/*--------------------------------*- C++ -*----------------------------------*\
| =========                 |                                                 |
| \\      /  F ield         | OpenFOAM: The Open Source CFD Toolbox           |
|  \\    /   O peration     | Version:  plus.master.MPPICInterFoam            |
|   \\  /    A nd           | Web:      www.OpenFOAM.com                      |
|    \\/     M anipulation  |                                                 |
\*---------------------------------------------------------------------------*/
FoamFile
{
    version     2.0;
    format      ascii;
    class       surfaceScalarField;
    location    "2.6";
    object      alphaPhi;
}
// * * * * * * * * * * * * * * * * * * * * * * * * * * * * * * * * * * * * * //

dimensions      [0 3 -1 0 0 0 0];

internalField   nonuniform List<scalar> 
34018
(
-7.47258e-07
3.59099e-06
-5.87557e-08
1.91303e-08
-7.81006e-07
3.84497e-06
-8.14965e-07
3.22394e-06
7.42397e-08
1.40795e-07
3.93181e-06
-7.87176e-07
1.75846e-07
3.28791e-06
-7.77135e-07
2.78323e-06
2.10066e-07
-8.38552e-07
5.97525e-07
-2.14451e-07
5.73941e-06
-6.05526e-07
2.42716e-07
3.68849e-07
-9.07112e-08
5.9313e-06
2.56968e-07
1.64313e-07
-5.69021e-08
5.39105e-06
1.79026e-07
5.76626e-08
-7.0265e-08
5.63404e-06
1.47932e-07
4.86535e-08
-1.76413e-07
4.72921e-06
1.30016e-07
7.97385e-08
-1.95694e-07
4.00855e-06
1.0138e-07
-2.07454e-07
3.46835e-06
9.57048e-08
6.61686e-08
4.43447e-07
-2.50742e-07
5.51022e-06
-6.35141e-07
2.16217e-07
-1.57203e-07
3.84784e-06
-1.73822e-08
-8.18733e-08
3.0879e-06
-1.29113e-07
-1.47912e-07
4.00453e-06
-4.49291e-08
-3.21893e-07
5.53857e-06
3.16997e-08
-3.59832e-07
4.60633e-06
-3.46736e-07
3.78899e-06
6.1028e-08
1.81595e-07
-4.08225e-07
4.76557e-06
-6.03981e-07
8.31257e-08
-2.19138e-07
2.90228e-06
2.30636e-09
-9.1906e-08
1.77153e-06
-9.52124e-08
-3.01196e-07
3.01997e-06
-3.5852e-08
-5.15196e-07
5.55548e-06
5.25586e-08
-4.9791e-07
4.96055e-06
-4.61941e-07
3.94303e-06
7.92067e-08
1.8747e-07
-5.69369e-07
5.1834e-06
-5.01281e-07
2.55786e-08
-3.05623e-07
3.18749e-06
6.37776e-08
-1.40138e-07
1.68402e-06
-2.65179e-08
-4.38715e-07
3.25999e-06
3.88973e-08
-6.63579e-07
5.61498e-06
1.06589e-07
-5.93189e-07
4.88806e-06
-5.63832e-07
3.90259e-06
1.25336e-07
3.67511e-07
-6.27164e-07
5.96348e-06
-4.18944e-07
1.8778e-07
-7.05743e-07
5.06223e-06
7.07368e-08
-6.37862e-07
4.26451e-06
2.85232e-08
-7.55453e-07
5.14975e-06
1.03409e-07
-7.25465e-07
5.47816e-06
1.63122e-07
-6.65965e-07
4.5135e-06
-6.41151e-07
3.66055e-06
1.69383e-07
3.78058e-07
-6.11059e-07
5.48172e-06
-3.13192e-07
3.02514e-07
-6.49172e-07
5.90899e-06
2.11846e-07
-6.47e-07
5.81441e-06
1.85224e-07
-7.05624e-07
5.50258e-06
2.01022e-07
-6.97465e-07
4.79756e-06
2.10544e-07
-6.61443e-07
3.85312e-06
-7.02372e-07
3.27683e-06
2.19611e-07
3.75821e-07
4.84612e-06
-3.80649e-07
-5.7039e-07
3.09846e-07
5.02806e-06
-5.34952e-07
2.9452e-07
4.94464e-06
-5.58777e-07
2.79901e-07
4.56925e-06
-5.825e-07
2.77644e-07
3.88134e-06
-6.17057e-07
2.97725e-07
3.36106e-06
-6.74246e-07
2.83157e-06
2.69389e-07
-7.06497e-07
2.50857e-07
-6.0117e-07
5.72383e-06
-1.67464e-07
5.26877e-07
2.94518e-07
-5.27693e-07
5.78314e-06
7.3162e-07
3.796e-07
-4.20527e-07
5.1136e-06
7.91239e-07
4.85248e-07
-5.19495e-07
5.49742e-06
6.51833e-07
4.47084e-07
-4.82698e-07
4.8159e-06
4.17081e-07
4.10077e-07
-3.65928e-07
4.27156e-06
2.75223e-07
-2.87031e-07
3.68346e-06
3.31235e-07
1.62235e-07
4.34867e-08
-3.39705e-07
5.23074e-06
2.84332e-08
5.58722e-08
-1.69185e-07
3.0856e-06
1.30644e-07
-8.01069e-08
1.71086e-06
4.85511e-07
-1.66003e-07
3.33129e-06
6.16727e-07
-4.18695e-07
5.44225e-06
5.04513e-07
-4.36761e-07
4.71747e-06
-3.68986e-07
3.99703e-06
3.80235e-07
1.02904e-08
-2.1078e-07
4.28057e-06
1.74796e-07
1.38952e-08
-7.5693e-08
1.84283e-06
5.87487e-08
-6.03879e-08
1.70102e-06
3.97754e-07
-9.19871e-08
1.83704e-06
7.31257e-07
-3.37029e-07
5.23309e-06
5.99489e-07
-4.07262e-07
5.07015e-06
-4.01588e-07
4.13983e-06
4.42959e-07
-2.42341e-08
-1.21094e-07
4.77927e-06
2.08956e-07
8.1912e-09
-5.28546e-08
2.32539e-06
1.18332e-07
-4.45866e-08
1.5511e-06
4.90776e-07
-9.81251e-08
2.5427e-06
7.57279e-07
-2.78917e-07
5.37614e-06
6.12912e-07
-3.70209e-07
4.99527e-06
-4.21126e-07
4.0772e-06
4.56144e-07
-1.61238e-08
-3.07247e-08
5.73405e-06
9.38502e-08
9.12443e-08
2.69029e-08
4.59864e-06
2.4645e-07
1.96129e-08
3.66226e-06
5.78616e-07
-9.71288e-08
4.76647e-06
6.27105e-07
-2.73068e-07
5.3952e-06
5.33691e-07
-3.89515e-07
4.55158e-06
-4.54914e-07
3.81101e-06
4.14937e-07
6.82568e-08
-1.08075e-07
5.46137e-06
2.07889e-08
2.12e-07
-2.56641e-08
5.7843e-06
3.83401e-07
-2.5457e-08
5.65424e-06
5.05058e-07
-1.65857e-07
5.42479e-06
4.88248e-07
-3.17133e-07
4.68075e-06
4.33391e-07
-4.30647e-07
3.97406e-06
-5.07015e-07
3.40923e-06
3.66796e-07
1.27479e-07
4.85113e-06
-4.33757e-08
-2.52365e-07
2.17655e-07
5.05934e-06
-1.61604e-07
3.48166e-07
4.94778e-06
-1.75156e-07
4.15068e-07
4.53083e-06
-2.67939e-07
4.21396e-07
3.96634e-06
-3.77326e-07
4.04811e-07
3.52421e-06
-4.77862e-07
2.93958e-06
3.0808e-07
-5.10774e-07
9.28338e-09
-7.48217e-07
5.84767e-06
8.94418e-08
5.42493e-07
2.26601e-07
-7.99685e-07
5.92291e-06
8.12577e-07
4.45782e-07
-5.86075e-07
5.34054e-06
1.00161e-06
5.94824e-07
-7.35798e-07
5.62822e-06
7.39889e-07
5.15254e-07
-5.70572e-07
5.00291e-06
4.45318e-07
4.46532e-07
-3.99354e-07
4.60034e-06
2.87025e-07
-2.7483e-07
3.93196e-06
3.27638e-07
1.48355e-07
-2.28614e-07
-4.33033e-07
5.51187e-06
3.31059e-07
2.442e-08
-2.0183e-07
3.14765e-06
1.99591e-07
-9.07324e-08
1.74826e-06
7.50368e-07
-2.23531e-07
3.65425e-06
7.91889e-07
-4.813e-07
5.5834e-06
5.88279e-07
-4.45731e-07
4.95024e-06
-3.45197e-07
4.2514e-06
4.07043e-07
-2.07907e-07
-1.15839e-07
4.69498e-06
6.34579e-07
9.3078e-11
-1.58738e-08
1.44367e-06
8.47623e-08
3.28576e-09
1.51763e-06
6.09422e-07
-4.1691e-08
1.84029e-06
1.00181e-06
-2.62339e-07
5.36238e-06
7.18518e-07
-3.62458e-07
5.27077e-06
-3.55847e-07
4.38321e-06
4.85245e-07
-2.95507e-07
1.37194e-07
5.1854e-06
5.84287e-07
1.47767e-08
2.2946e-07
2.14923e-06
1.19817e-07
7.16712e-08
1.37233e-06
7.58085e-07
9.94355e-08
2.48111e-06
1.00177e-06
-9.05452e-08
5.50685e-06
7.20128e-07
-2.77668e-07
5.18433e-06
-3.48345e-07
4.30091e-06
4.85581e-07
-2.38084e-07
2.24642e-07
5.8611e-06
3.00398e-07
3.95067e-08
5.89601e-07
4.98666e-06
3.73673e-07
4.85939e-07
4.093e-06
8.02219e-07
2.40486e-07
5.14269e-06
7.66931e-07
-9.28658e-08
5.47201e-06
5.75516e-07
-2.90596e-07
4.68592e-06
-3.7041e-07
4.01116e-06
4.10852e-07
-1.1748e-07
1.31512e-07
5.51949e-06
1.19963e-07
1.55176e-07
3.09554e-07
5.81169e-06
4.61305e-07
2.39713e-07
5.75709e-06
6.0964e-07
2.98627e-08
5.49391e-06
5.4362e-07
-1.67992e-07
4.78003e-06
4.46698e-07
-3.4013e-07
4.1541e-06
-4.02163e-07
3.59419e-06
3.22715e-07
-5.76447e-09
4.4144e-06
2.08881e-08
9.79291e-09
1.38937e-07
5.07236e-06
4.15931e-08
3.46222e-07
4.9572e-06
-8.201e-08
4.25006e-07
4.5941e-06
-1.69185e-07
4.19466e-07
4.12004e-06
-2.79992e-07
3.49234e-07
3.69851e-06
-3.91792e-07
3.06844e-06
2.08067e-07
-3.91717e-07
-5.7154e-09
-4.54245e-07
6.02905e-06
4.38721e-08
2.5526e-07
1.46984e-07
-6.63514e-07
6.30047e-06
4.3674e-07
2.98491e-07
-5.70772e-07
6.12279e-06
5.25895e-07
3.1048e-07
-5.07562e-07
5.95002e-06
3.39051e-07
2.27199e-07
-3.41884e-07
5.23236e-06
1.80146e-07
1.66448e-07
-2.42801e-07
4.89811e-06
9.58688e-08
-1.48889e-07
4.14352e-06
9.49171e-08
6.62618e-09
-1.5174e-07
-4.39972e-07
6.20714e-06
1.39388e-07
2.86885e-08
-2.45125e-07
4.8731e-06
2.04227e-07
-8.15678e-08
3.55388e-06
4.88775e-07
-2.5991e-07
5.39012e-06
3.92171e-07
-4.10469e-07
5.95745e-06
2.4872e-07
-3.51183e-07
5.28082e-06
-2.61261e-07
4.48384e-06
1.32079e-07
-2.66082e-07
-1.93231e-07
6.1044e-06
3.53463e-07
1.27913e-08
-2.21944e-08
2.13512e-06
6.77637e-08
1.60806e-08
1.36059e-06
5.79271e-07
-8.74968e-08
3.65342e-06
5.78562e-07
-3.25971e-07
6.135e-06
3.44996e-07
-3.7682e-07
5.5292e-06
-3.2719e-07
4.61094e-06
1.8271e-07
-3.01923e-07
-4.30146e-08
6.23202e-06
2.91097e-07
-1.04525e-10
1.61802e-07
3.55131e-06
1.31199e-07
1.15819e-07
1.26851e-06
6.82444e-07
3.72807e-09
4.21507e-06
5.91961e-07
-2.55044e-07
6.07273e-06
3.59141e-07
-3.64894e-07
5.39336e-06
-3.60742e-07
4.50913e-06
1.83273e-07
-1.28167e-07
-6.08332e-08
6.08548e-06
6.07652e-08
3.15306e-08
1.30947e-07
6.23938e-06
3.93925e-07
2.6243e-07
5.92004e-06
5.43962e-07
-8.8551e-08
6.11022e-06
4.32616e-07
-3.01109e-07
5.64519e-06
2.61694e-07
-3.98062e-07
4.85444e-06
-3.93161e-07
4.20211e-06
1.27086e-07
2.20981e-09
-1.12882e-07
5.48444e-06
-4.66835e-08
1.3968e-07
-9.38459e-08
5.92516e-06
3.75738e-07
-9.54905e-08
5.95787e-06
4.01814e-07
-2.53268e-07
5.65917e-06
2.93733e-07
-3.78865e-07
4.94157e-06
1.82777e-07
-4.36695e-07
4.37965e-06
-4.07596e-07
3.74888e-06
5.42563e-08
8.60581e-08
4.19363e-06
-2.3398e-08
-1.33478e-07
1.59779e-07
4.72709e-06
-2.30667e-07
2.70393e-07
4.87115e-06
-2.87285e-07
2.77294e-07
4.78166e-06
-3.78398e-07
2.04007e-07
4.35892e-06
-4.30508e-07
8.83008e-08
3.82454e-06
-4.50047e-07
3.17147e-06
-6.08992e-08
-3.70531e-07
1.09255e-07
-1.34032e-07
6.20782e-06
-8.67095e-08
-7.99908e-08
9.13296e-08
-1.65955e-07
6.56584e-06
-6.77386e-08
2.99875e-08
-1.09545e-07
6.49924e-06
-1.07628e-07
-9.45941e-08
7.0371e-11
6.23507e-06
-1.73283e-07
-1.71794e-07
-1.51846e-09
5.48367e-06
-1.85993e-07
-2.02128e-07
-1.01154e-08
5.12826e-06
-1.70004e-07
2.72304e-08
4.30694e-06
-2.03089e-07
-1.89576e-07
1.60069e-07
-3.27611e-07
6.51275e-06
-2.44801e-07
8.59093e-08
-1.98048e-07
5.83696e-06
3.53346e-08
-4.80315e-08
5.35957e-06
-7.85187e-08
-1.70565e-07
6.01095e-06
-1.66841e-07
-2.41803e-07
6.28951e-06
-2.19167e-07
-2.08293e-07
5.59465e-06
-1.38646e-07
4.67112e-06
-2.39338e-07
2.69755e-08
-3.79815e-07
6.73701e-06
-2.19156e-07
2.77812e-08
-1.53004e-07
4.23132e-06
1.69166e-08
-3.22517e-08
1.35118e-06
4.91042e-08
-2.65307e-07
5.55115e-06
-9.69527e-08
-4.12212e-07
6.58026e-06
-1.87717e-07
-3.76961e-07
5.78789e-06
-2.76714e-07
4.79893e-06
-2.37786e-07
7.51578e-08
-4.65835e-07
6.67897e-06
-2.42737e-07
4.39244e-09
-3.12872e-07
5.49102e-06
1.14578e-07
-9.03684e-08
2.54375e-06
1.24565e-07
-4.0862e-07
5.64453e-06
-5.27199e-08
-5.22826e-07
6.43111e-06
-1.65148e-07
-4.80258e-07
5.62813e-06
-3.70495e-07
4.67916e-06
-2.40261e-07
1.91682e-07
-5.62558e-07
6.27299e-06
-2.88188e-07
1.05481e-07
-5.12624e-07
6.67663e-06
2.10224e-07
-4.42869e-07
6.84554e-06
7.78299e-08
-5.98269e-07
6.51276e-06
-7.34987e-08
-5.82991e-07
5.84377e-06
-1.7832e-07
-5.38478e-07
5.10285e-06
-4.23239e-07
4.3483e-06
-2.68032e-07
2.29188e-07
-4.93795e-07
5.37115e-06
-2.74069e-07
1.88514e-07
-5.96414e-07
6.03678e-06
1.86226e-07
-6.15962e-07
6.14469e-06
5.8493e-08
-6.61782e-07
5.87147e-06
-8.90587e-08
-6.26456e-07
5.15822e-06
-2.07057e-07
-5.6757e-07
4.59405e-06
-4.30592e-07
3.85904e-06
-3.10484e-07
2.08382e-07
4.12645e-06
-2.43726e-07
-5.06781e-07
1.69517e-07
4.53104e-06
-5.0601e-07
1.37555e-07
4.96371e-06
-6.37983e-07
1.64075e-08
4.94505e-06
-6.62233e-07
-1.18938e-07
4.50439e-06
-6.18835e-07
-2.56866e-07
3.92851e-06
-5.35655e-07
3.24816e-06
-3.90632e-07
-3.80355e-07
3.27253e-07
2.4941e-07
6.30757e-06
-3.18499e-07
-4.1965e-07
1.1521e-07
3.26889e-07
6.89161e-06
-5.7165e-07
-2.02507e-07
3.7226e-07
6.92276e-06
-6.89299e-07
-4.55145e-07
4.31001e-07
6.50134e-06
-6.68869e-07
-5.51056e-07
3.38458e-07
5.76405e-06
-5.49245e-07
-5.27826e-07
2.41124e-07
5.30207e-06
-4.37185e-07
2.12129e-07
4.42276e-06
-4.6317e-07
-3.90436e-07
4.62178e-07
-1.08985e-07
6.81279e-06
-6.29838e-07
1.46203e-07
-4.53584e-08
6.1555e-06
-1.67463e-07
3.63312e-08
5.8761e-06
-5.50615e-07
-4.64881e-09
6.16372e-06
-7.02818e-07
-4.26186e-08
6.69885e-06
-6.49295e-07
-4.1439e-08
5.82525e-06
3.58952e-09
4.80658e-06
-5.75757e-07
3.78265e-07
-4.52117e-07
7.1905e-06
-7.15631e-07
3.93867e-08
-3.08089e-07
5.04197e-06
-1.18909e-07
-2.75368e-08
1.59723e-06
-4.90887e-07
-3.95548e-07
6.10385e-06
-7.24601e-07
-4.4878e-07
7.05328e-06
-6.78457e-07
-3.27844e-07
6.02843e-06
-1.89712e-07
4.93297e-06
-6.18627e-07
4.30697e-07
-7.32815e-07
7.06792e-06
-6.848e-07
8.4147e-08
-7.49885e-07
6.0141e-06
-7.32305e-08
-5.72548e-07
3.9755e-06
-4.37521e-07
-7.6769e-07
6.05836e-06
-6.48061e-07
-7.09298e-07
6.82188e-06
-6.57158e-07
-5.25009e-07
5.84468e-06
-3.29446e-07
4.79638e-06
-6.32673e-07
4.48301e-07
-8.68503e-07
6.51301e-06
-5.7933e-07
1.58494e-07
-9.63659e-07
7.03725e-06
-8.62569e-08
-9.88177e-07
7.30326e-06
-3.86471e-07
-9.97691e-07
6.88785e-06
-5.40544e-07
-7.81835e-07
5.99544e-06
-6.19347e-07
-6.20899e-07
5.35326e-06
-4.02787e-07
4.44403e-06
-6.42785e-07
3.61182e-07
-7.29134e-07
5.45393e-06
-4.67962e-07
1.89679e-07
-8.66579e-07
6.15202e-06
-3.56276e-08
-9.61916e-07
6.36425e-06
-2.85169e-07
-9.57926e-07
6.08218e-06
-4.80781e-07
-8.04446e-07
5.3639e-06
-5.89178e-07
-6.2866e-07
4.72969e-06
-4.15193e-07
3.93884e-06
-6.57639e-07
2.75132e-07
4.45737e-06
-4.09771e-07
-6.9722e-07
1.32044e-07
4.58473e-06
-8.64759e-07
-3.62203e-08
5.13541e-06
-8.89513e-07
-2.61318e-07
5.07894e-06
-8.5054e-07
-4.44591e-07
4.61714e-06
-7.34234e-07
-5.86442e-07
4.01779e-06
-5.76785e-07
3.3158e-06
-6.95469e-07
-3.76392e-07
5.09683e-07
6.49953e-07
6.31424e-06
-5.02449e-07
-7.09654e-07
1.48259e-07
7.61054e-07
6.87719e-06
-9.5215e-07
-3.65339e-07
7.27985e-07
6.59873e-06
-1.10557e-06
-6.59445e-07
7.41234e-07
6.46066e-06
-9.83154e-07
-7.13849e-07
6.10926e-07
5.88738e-06
-7.68886e-07
-6.41426e-07
4.20607e-07
5.39061e-06
-6.01755e-07
3.42503e-07
4.53909e-06
-5.67179e-07
-5.29724e-07
6.70654e-07
2.28525e-07
6.61303e-06
-8.59783e-07
1.77178e-07
1.65903e-07
5.31107e-06
-3.87174e-07
1.06652e-07
5.95868e-06
-8.58752e-07
2.61226e-07
4.71169e-06
-1.02047e-06
1.856e-07
6.74347e-06
-8.32331e-07
1.25205e-07
5.93528e-06
1.31123e-07
4.90198e-06
-7.16844e-07
5.79015e-07
-3.68412e-07
6.94759e-06
-1.03186e-06
2.19848e-08
-2.95043e-07
5.43163e-06
-1.73034e-07
-2.06317e-08
1.96561e-06
-8.7424e-07
-3.81716e-07
6.20642e-06
-1.12903e-06
-3.74501e-07
6.96915e-06
-9.14786e-07
-2.03058e-07
6.14412e-06
-6.39613e-08
5.00526e-06
-7.90514e-07
6.58489e-07
-7.89238e-07
7.10119e-06
-9.5973e-07
8.33002e-08
-9.19971e-07
6.08794e-06
-2.33944e-07
-7.68268e-07
4.37964e-06
-8.73271e-07
-9.2357e-07
5.95621e-06
-1.04851e-06
-7.23339e-07
6.96629e-06
-9.1175e-07
-4.3531e-07
5.94254e-06
-2.04775e-07
4.85419e-06
-8.25994e-07
6.08108e-07
-8.73374e-07
6.641e-06
-7.24602e-07
1.69431e-07
-1.14069e-06
7.06526e-06
-3.78222e-07
-1.22023e-06
7.43582e-06
-7.48263e-07
-1.15601e-06
6.97326e-06
-8.78719e-07
-8.31687e-07
6.06604e-06
-8.6074e-07
-5.31903e-07
5.44409e-06
-2.81088e-07
4.50342e-06
-8.43733e-07
4.09526e-07
-7.48447e-07
5.62274e-06
-5.55557e-07
1.37435e-07
-9.2003e-07
6.27848e-06
-2.16155e-07
-1.02926e-06
6.53748e-06
-5.23901e-07
-9.803e-07
6.2142e-06
-7.21161e-07
-7.62699e-07
5.47001e-06
-8.05328e-07
-5.3312e-07
4.82037e-06
-3.06678e-07
4.0144e-06
-8.53908e-07
2.93312e-07
4.84391e-06
-5.09536e-07
-7.00683e-07
1.01989e-07
4.94586e-06
-8.40403e-07
-1.63822e-07
5.29905e-06
-8.82176e-07
-4.37583e-07
5.1855e-06
-8.12185e-07
-6.34766e-07
4.725e-06
-6.72394e-07
-7.72795e-07
4.12461e-06
-4.96039e-07
3.40235e-06
-8.61529e-07
-3.05867e-07
2.67685e-07
5.55084e-07
6.27244e-06
-2.82968e-07
-5.78059e-07
5.65846e-08
4.66885e-07
6.32381e-06
-6.05343e-07
-1.97657e-07
3.32153e-07
5.44782e-06
-6.3948e-07
-3.23257e-07
4.10668e-07
6.0408e-06
-5.5494e-07
-3.26211e-07
4.21729e-07
5.90307e-06
-5.13351e-07
-3.16998e-07
3.51675e-07
5.52827e-06
-5.09942e-07
3.21043e-07
4.6961e-06
-3.78052e-07
-5.463e-07
2.7152e-07
2.94281e-07
5.93522e-06
-3.79316e-07
6.11753e-08
1.77182e-07
3.11892e-06
-2.05327e-07
9.40348e-08
3.60869e-06
-4.13345e-07
2.00555e-07
3.21831e-06
-5.07758e-07
2.17991e-07
6.25663e-06
-4.40883e-07
1.92111e-07
6.02993e-06
1.93277e-07
5.08211e-06
-4.97524e-07
1.7061e-07
-3.77428e-09
4.9573e-06
-3.84531e-07
-1.3373e-08
-4.25591e-08
3.50468e-06
-1.19949e-07
4.83479e-09
2.14938e-06
-4.09842e-07
-8.26447e-08
3.82973e-06
-6.11228e-07
-5.67665e-08
6.15361e-06
-5.18041e-07
3.76633e-08
6.20802e-06
1.09144e-07
5.13242e-06
-5.58864e-07
2.49325e-07
-2.18561e-07
6.04287e-06
-4.04568e-07
-1.42727e-08
-3.27455e-07
4.05224e-06
-1.49533e-07
-2.38252e-07
3.08147e-06
-5.08995e-07
-3.4841e-07
4.11078e-06
-6.1719e-07
-2.45315e-07
6.60585e-06
-5.77877e-07
-6.55263e-08
6.00875e-06
5.38485e-08
4.96276e-06
-6.28447e-07
2.83851e-07
-2.65209e-07
6.61921e-06
-3.28898e-07
3.677e-08
-4.57984e-07
6.23991e-06
-3.03925e-07
-4.92877e-07
5.8218e-06
-5.00267e-07
-4.68408e-07
6.41982e-06
-5.80931e-07
-2.88168e-07
6.13306e-06
-6.34146e-07
-1.22907e-07
5.55253e-06
9.06121e-09
4.62954e-06
-7.13005e-07
2.20825e-07
-2.89698e-07
5.78775e-06
-3.22713e-07
2.93654e-08
-3.60285e-07
6.40351e-06
-1.97413e-07
-4.14244e-07
6.64957e-06
-3.87449e-07
-3.83095e-07
6.32183e-06
-5.47354e-07
-2.76818e-07
5.60989e-06
-6.7374e-07
-1.59782e-07
4.98525e-06
-4.10701e-08
4.17714e-06
-7.81698e-07
2.25243e-07
5.16399e-06
-4.19218e-07
-3.47046e-07
5.44026e-08
5.13527e-06
-4.05421e-07
-1.46892e-07
5.51373e-06
-3.95164e-07
-3.56424e-07
5.37203e-06
-3.58187e-07
-5.38933e-07
4.9331e-06
-3.00318e-07
-7.00233e-07
4.34301e-06
-2.09506e-07
3.59497e-06
-8.03124e-07
-1.14046e-07
-2.08079e-07
1.15373e-07
6.33913e-06
1.83939e-07
-1.77464e-07
-5.2107e-08
-7.4354e-08
6.055e-06
1.89775e-07
1.17781e-07
-1.15198e-07
5.13067e-06
3.77936e-07
3.34612e-07
-1.21205e-07
5.84254e-06
2.52141e-07
3.69098e-07
-3.9808e-08
6.09707e-06
-2.60573e-08
2.18593e-07
9.93652e-08
5.85281e-06
-2.80916e-07
1.40307e-07
4.94622e-06
1.44148e-08
-4.24542e-07
-2.38682e-07
1.93131e-07
5.6956e-06
5.09305e-07
-6.60411e-08
4.37671e-08
2.54661e-06
2.19798e-09
6.24663e-08
2.05516e-06
2.99899e-07
4.34676e-08
3.04707e-06
4.78215e-07
9.29154e-08
6.07654e-06
2.38615e-07
1.27787e-07
6.24229e-06
1.51296e-07
5.41665e-06
-1.36508e-07
-2.28752e-07
2.84578e-07
4.26899e-06
6.36196e-07
-9.68844e-08
1.62502e-07
2.19065e-06
-6.40379e-08
1.45068e-07
2.02587e-06
2.3769e-07
1.61282e-07
2.61313e-06
4.70874e-07
2.63796e-07
5.8635e-06
1.80441e-07
2.77896e-07
6.35032e-06
2.50663e-07
5.40133e-06
-1.86676e-07
-2.83978e-07
5.78504e-07
5.45164e-06
6.42339e-07
-7.11002e-08
3.73805e-07
2.24977e-06
-1.56768e-08
2.8709e-07
2.16554e-06
2.36277e-07
4.06414e-07
3.22398e-06
3.26433e-07
4.65307e-07
6.3729e-06
4.01799e-08
4.00494e-07
6.17315e-06
3.36505e-07
5.20833e-06
-2.89941e-07
-2.90915e-07
5.76638e-07
6.60914e-06
3.67993e-07
-7.78584e-08
7.41836e-07
5.72548e-06
-5.00985e-09
7.71394e-07
4.6303e-06
1.48819e-07
6.73577e-07
6.08703e-06
7.83248e-08
4.94849e-07
6.27936e-06
-1.77455e-07
4.08491e-07
5.80291e-06
3.47415e-07
4.89954e-06
-4.54696e-07
-8.672e-08
3.58942e-07
6.02704e-06
4.80192e-08
-5.96714e-08
5.03949e-07
6.45457e-06
4.03378e-08
5.73957e-07
6.74221e-06
4.3268e-08
5.0536e-07
6.49045e-06
-1.14697e-07
3.92911e-07
5.93797e-06
-3.64319e-07
3.20628e-07
5.32561e-06
2.77148e-07
4.47442e-06
-5.89345e-07
1.14273e-07
5.59607e-06
-2.65098e-07
1.01678e-07
5.47912e-08
5.40846e-06
1.78439e-07
2.36266e-08
5.86045e-06
2.86399e-07
-7.17625e-08
5.71171e-06
2.62934e-07
-2.51592e-07
5.31941e-06
1.84253e-07
-4.77939e-07
4.73863e-06
1.48465e-07
3.90335e-06
-6.23754e-07
1.20121e-07
-3.89495e-07
-1.48325e-07
6.62014e-06
3.67175e-07
-2.32602e-08
-6.34804e-08
-4.35043e-07
6.33717e-06
5.25161e-07
3.19828e-07
-4.20155e-07
5.74854e-06
7.64239e-07
6.35863e-07
-4.28377e-07
6.29818e-06
5.12608e-07
6.16787e-07
-2.05435e-07
6.52442e-06
8.45697e-08
3.98697e-07
-4.54531e-09
6.25759e-06
-2.17694e-07
1.59439e-08
5.05991e-06
5.88669e-08
-2.89734e-07
-5.122e-07
7.92456e-08
6.11323e-06
8.24717e-07
-8.22927e-08
-1.85814e-09
3.0704e-06
1.6346e-07
3.15105e-08
2.11932e-06
7.90812e-07
-2.52084e-09
4.16994e-06
8.95955e-07
2.7249e-08
6.48343e-06
5.05314e-07
1.04361e-07
6.52062e-06
8.10752e-08
5.75071e-06
-3.58581e-08
-3.62449e-07
3.97327e-07
4.45955e-06
1.14879e-06
-1.0091e-07
1.60883e-07
1.75917e-06
2.88675e-08
1.58129e-07
1.76049e-06
6.95351e-07
2.21944e-07
2.7668e-06
9.60917e-07
4.16347e-07
6.26339e-06
4.59139e-07
3.97085e-07
6.55299e-06
3.16607e-07
5.72598e-06
-1.22759e-07
-5.18262e-07
9.24413e-07
5.58211e-06
1.0999e-06
-6.40023e-08
6.70857e-07
2.20058e-06
1.09056e-07
4.04599e-07
1.73668e-06
7.55211e-07
7.75581e-07
3.46461e-06
7.89647e-07
8.30735e-07
6.54636e-06
2.84338e-07
6.60148e-07
6.41534e-06
5.26045e-07
5.52535e-06
-2.41773e-07
-5.42364e-07
9.24057e-07
6.73443e-06
6.40566e-07
-9.56287e-08
1.31695e-06
5.84551e-06
2.61585e-07
1.46242e-06
4.57014e-06
6.12852e-07
1.23368e-06
6.18031e-06
4.47844e-07
9.09271e-07
6.64472e-06
2.95295e-08
7.29286e-07
6.15062e-06
5.94385e-07
5.28144e-06
-4.18348e-07
-1.72234e-07
6.17219e-07
6.33453e-06
1.88442e-07
-7.52495e-09
9.49513e-07
6.33196e-06
3.09201e-07
1.09633e-06
6.88196e-06
3.76946e-07
9.46056e-07
6.71397e-06
1.86614e-07
7.47545e-07
6.33681e-06
-1.72767e-07
6.18201e-07
5.77845e-06
4.97663e-07
4.93619e-06
-5.38836e-07
8.2777e-08
6.08049e-06
-1.98268e-07
2.57098e-07
1.41589e-07
5.74271e-06
4.71768e-07
2.44384e-07
6.22392e-06
6.52185e-07
2.10263e-07
6.10739e-06
5.84825e-07
2.23395e-08
5.80215e-06
4.46262e-07
-2.77471e-07
5.25543e-06
3.74425e-07
4.3894e-06
-4.99319e-07
2.33613e-07
-1.65208e-07
-1.5265e-07
7.02972e-06
5.96345e-08
-1.40355e-08
1.65365e-08
-4.79718e-07
7.03336e-06
2.80268e-07
2.92453e-07
-4.96762e-07
6.91806e-06
3.86718e-07
3.65115e-07
-2.24511e-07
6.92951e-06
1.36743e-07
2.56348e-07
7.60639e-08
6.79591e-06
-1.75476e-07
7.86906e-08
2.34264e-07
6.54486e-06
-4.50804e-07
1.24385e-07
4.31106e-06
-1.657e-07
-2.44313e-07
-4.54473e-07
-2.7198e-08
7.01489e-06
4.60054e-07
-6.4945e-08
-1.12929e-07
5.77548e-06
2.89356e-07
-2.9449e-08
4.88454e-06
6.63623e-07
-2.24769e-08
6.68879e-06
5.36217e-07
1.63956e-07
7.06822e-06
2.57672e-07
2.63548e-07
6.76683e-06
1.89834e-07
5.79471e-06
-1.5209e-07
-5.02125e-07
3.8959e-07
6.28879e-06
8.75636e-07
-3.02891e-08
1.58236e-07
2.08852e-06
1.03576e-07
7.97453e-08
1.50771e-06
8.40507e-07
2.93838e-07
5.29766e-06
6.88699e-07
4.71858e-07
7.10712e-06
2.7832e-07
4.70101e-07
6.74737e-06
4.0917e-07
5.92765e-06
-2.47911e-07
-5.4845e-07
7.31425e-07
6.80866e-06
7.16868e-07
-5.65695e-08
8.13228e-07
4.27656e-06
2.71459e-07
6.85261e-07
2.26958e-06
8.11626e-07
8.11077e-07
5.94595e-06
5.82813e-07
7.54481e-07
7.08381e-06
1.47929e-07
6.7358e-07
6.63908e-06
6.38383e-07
5.83651e-06
-3.98395e-07
-3.36179e-07
6.66924e-07
6.97516e-06
3.65256e-07
-3.2001e-08
1.00952e-06
6.97182e-06
3.7882e-07
1.27173e-06
6.36237e-06
5.52132e-07
9.94946e-07
6.90438e-06
3.8039e-07
7.73362e-07
6.95098e-06
1.68259e-08
7.04645e-07
6.48175e-06
7.06103e-07
5.69445e-06
-5.19526e-07
-9.10757e-09
4.17532e-07
6.66689e-06
3.14052e-08
1.29798e-07
7.5979e-07
6.73068e-06
3.72846e-07
9.05196e-07
7.01644e-06
4.01183e-07
7.68707e-07
6.91177e-06
2.5284e-07
6.15873e-07
6.64609e-06
-5.13761e-08
5.1635e-07
6.21102e-06
3.74931e-07
5.05365e-06
-5.89671e-07
2.66922e-07
6.45442e-06
-3.33771e-07
8.46172e-08
2.55176e-07
6.29893e-06
4.9869e-07
3.20607e-07
6.51417e-06
5.9128e-07
2.87432e-07
6.42087e-06
4.8692e-07
1.19637e-07
6.23918e-06
3.32085e-07
-2.0367e-07
5.59841e-06
2.16527e-07
3.95813e-06
-4.68346e-07
-4.1649e-08
1.33738e-07
3.8538e-08
7.28198e-06
-3.44949e-07
-7.10244e-08
6.99063e-08
-9.54529e-09
7.25503e-06
-4.7425e-08
8.46635e-08
3.8291e-08
7.17744e-06
-1.20638e-07
2.28853e-08
2.38189e-07
7.05851e-06
-2.73077e-07
-1.07531e-07
3.56041e-07
6.93847e-06
-3.63203e-07
-1.27073e-07
4.42766e-07
6.40516e-06
-5.54359e-07
2.24006e-07
3.88198e-06
-2.08616e-07
-1.25638e-07
-1.33981e-07
3.82383e-08
7.27246e-06
3.82279e-08
-3.77334e-08
-2.92437e-08
7.24951e-06
1.58217e-07
-3.64482e-09
7.04079e-06
1.45824e-07
1.79981e-07
7.11304e-06
6.62814e-08
3.4437e-07
7.19865e-06
-7.07402e-08
4.03517e-07
6.94118e-06
3.43038e-07
5.45298e-06
-3.03578e-07
-3.99059e-07
2.25747e-07
6.98257e-06
3.01483e-07
-4.74624e-08
1.87302e-07
4.5109e-06
7.30124e-08
9.53174e-08
1.38595e-06
2.88449e-07
3.51908e-07
7.15713e-06
1.43835e-07
4.22582e-07
7.33492e-06
-5.76413e-08
4.42046e-07
6.90886e-06
4.27692e-07
5.99263e-06
-3.78071e-07
-2.28022e-07
2.46082e-07
7.17311e-06
1.80875e-07
-5.98286e-08
4.44121e-07
6.80789e-06
1.74294e-07
5.97229e-07
5.03285e-06
2.52456e-07
4.81807e-07
7.18433e-06
1.40181e-07
4.49511e-07
7.27425e-06
-7.88001e-08
4.44416e-07
6.85508e-06
4.7384e-07
6.08726e-06
-5.44931e-07
-5.51874e-08
1.38352e-07
7.08076e-06
6.59617e-08
1.01058e-08
3.65659e-07
7.24998e-06
1.88952e-07
5.32276e-07
7.1342e-06
1.9266e-07
4.481e-07
7.13042e-06
1.28379e-07
3.74356e-07
7.10744e-06
-5.81459e-08
3.11081e-07
6.78684e-06
3.00168e-07
5.68976e-06
-5.74136e-07
9.28399e-08
-2.05668e-08
6.90137e-06
-7.72067e-08
9.86427e-08
2.85417e-07
7.12075e-06
1.64966e-07
3.88495e-07
7.09051e-06
1.73456e-07
3.26362e-07
7.02416e-06
9.87917e-08
2.33127e-07
6.86174e-06
-2.84945e-08
-5.09645e-09
6.48165e-06
1.24157e-08
3.63436e-06
-3.26673e-07
2.42736e-07
6.64224e-06
-3.57705e-07
-2.20886e-07
1.11717e-07
6.70985e-06
2.19334e-07
1.01002e-07
6.70722e-06
2.22597e-07
9.58012e-08
6.62632e-06
1.20117e-07
-9.02175e-08
6.49534e-06
9.35032e-08
-3.18213e-07
4.9372e-06
-3.10118e-07
3.11642e-06
-3.95707e-07
-2.85989e-07
2.54494e-07
3.1056e-07
7.47906e-06
-4.29489e-07
-3.2697e-07
6.48911e-08
3.23583e-07
7.44164e-06
-3.15929e-07
-7.73212e-08
3.59159e-07
7.32572e-06
-4.1855e-07
-1.76503e-07
3.76857e-07
7.21482e-06
-4.1851e-07
-2.59187e-07
3.58664e-07
7.03721e-06
-3.51871e-07
-2.09898e-07
4.33908e-07
6.01784e-06
-3.19361e-07
2.42526e-07
3.73396e-06
-1.9449e-07
-1.94763e-07
3.43663e-08
1.75285e-07
7.42534e-06
-8.30154e-08
-1.12754e-08
2.02569e-07
7.40129e-06
-5.65581e-08
1.68101e-07
7.28839e-06
-1.74453e-07
2.25955e-07
6.93288e-06
-2.57601e-07
3.19574e-07
7.33292e-06
-3.04642e-07
3.55717e-07
7.01094e-06
3.29791e-07
4.23202e-06
-3.49409e-07
-1.86332e-07
5.07098e-09
7.15115e-06
9.81376e-08
-1.05815e-07
9.61227e-08
5.9782e-06
-9.64639e-08
1.36684e-07
3.004e-06
-2.40477e-07
1.6367e-07
7.5112e-06
-2.57909e-07
2.0361e-07
7.46884e-06
-3.10364e-07
2.29801e-07
7.08175e-06
2.17197e-07
5.40419e-06
-5.36044e-07
-6.20527e-08
-2.23944e-07
7.18786e-06
2.01494e-08
-7.71019e-08
-4.29988e-08
7.21715e-06
-1.35125e-07
9.03095e-08
5.94448e-06
-2.17547e-07
4.00428e-08
7.32556e-06
-2.42113e-07
8.5985e-08
7.42303e-06
-3.31323e-07
7.46463e-08
7.06589e-06
1.89851e-08
5.19798e-06
-6.14468e-07
5.15444e-08
-3.81017e-07
7.20087e-06
-4.26152e-08
-6.16071e-08
-1.75589e-07
7.00981e-06
-1.32807e-07
-3.53719e-08
7.26794e-06
-1.81155e-07
-1.84941e-08
7.27957e-06
-2.18724e-07
-2.56259e-08
7.25585e-06
-2.9314e-07
-1.32778e-07
6.95906e-06
-2.1106e-07
4.05514e-06
-4.6523e-07
4.89078e-08
-4.71129e-07
7.05186e-06
-8.59406e-08
-3.08843e-08
-2.05681e-07
7.21823e-06
-6.42401e-08
-7.40823e-08
7.18897e-06
-9.02225e-08
-6.31274e-08
7.09781e-06
-1.48596e-07
-1.39759e-07
7.03541e-06
-2.78669e-07
-3.1249e-07
6.12596e-06
-2.16756e-07
3.53026e-06
-2.79729e-07
-5.67529e-08
6.49908e-06
-1.26932e-07
-5.19019e-07
-1.8691e-07
6.83091e-06
-2.4986e-07
-1.24153e-07
6.8031e-06
-2.42141e-07
-9.24205e-08
6.66506e-06
-1.73424e-07
-1.01561e-07
6.30798e-06
-2.33868e-07
-2.61696e-07
3.73616e-06
-3.66853e-07
3.29581e-06
-2.70384e-07
-5.49695e-07
4.2873e-07
5.03017e-07
7.58446e-06
-5.3853e-07
-5.33411e-07
1.37687e-07
4.60257e-07
7.64147e-06
-4.13897e-07
-1.8585e-07
3.5286e-07
7.28108e-06
-3.58817e-07
-3.27385e-07
1.54403e-07
7.38945e-06
-1.77301e-07
-3.84644e-07
1.58334e-07
7.12744e-06
-1.86304e-07
-3.47487e-07
4.20463e-07
5.37669e-06
-2.6706e-07
2.6884e-07
3.58364e-06
-2.19278e-07
-3.28226e-07
2.8367e-07
1.99093e-07
7.59982e-06
-2.58152e-07
8.19061e-09
2.39403e-07
7.61397e-06
-3.24597e-07
1.4596e-07
7.43261e-06
-5.3019e-07
3.9556e-08
6.87221e-06
-5.76494e-07
9.95332e-08
7.44691e-06
-5.15299e-07
2.28357e-07
6.73048e-06
2.22229e-07
3.8524e-06
-2.36506e-07
8.82249e-08
-2.11199e-07
6.85012e-06
-8.2874e-08
-1.28954e-07
-2.40195e-07
6.24525e-06
-4.25483e-07
-5.84207e-08
3.99659e-06
-6.98873e-07
-1.80602e-07
7.79457e-06
-6.32616e-07
-1.28868e-07
7.63684e-06
-6.07782e-07
-5.29624e-08
6.96988e-06
1.32552e-08
3.84451e-06
-3.72347e-07
7.0907e-08
-5.59088e-07
6.58336e-06
-8.76991e-08
-1.12725e-07
-4.59155e-07
7.43493e-06
-3.99134e-07
-2.85939e-07
6.0741e-06
-5.92627e-07
-3.81881e-07
7.39889e-06
-6.06106e-07
-2.73008e-07
7.59085e-06
-6.15008e-07
-3.27523e-07
7.04623e-06
-2.26168e-07
3.90568e-06
-3.81048e-07
1.20317e-07
-7.41001e-07
7.35504e-06
-1.40577e-07
-8.97468e-08
-6.05795e-07
7.03633e-06
-3.76004e-07
-4.03287e-07
7.06858e-06
-4.89955e-07
-4.10444e-07
7.52257e-06
-5.57786e-07
-4.00791e-07
7.45214e-06
-5.09128e-07
-6.60116e-07
6.59208e-06
-3.04156e-07
3.8573e-06
-3.19083e-07
6.81675e-08
-8.16658e-07
7.15522e-06
-1.34062e-07
-9.01808e-08
-5.73558e-07
7.33352e-06
-2.09813e-07
-3.71613e-07
7.28195e-06
-3.09586e-07
-4.07999e-07
7.19826e-06
-5.08648e-07
-5.50938e-07
7.20138e-06
-5.1212e-07
-5.98615e-07
4.37362e-06
-5.17031e-07
3.62579e-06
-4.60205e-07
-8.15947e-08
5.49957e-06
-7.67176e-08
-7.16718e-07
-2.86095e-07
6.42336e-06
-5.35313e-07
-2.79505e-07
6.66731e-06
-3.29755e-07
-2.64777e-07
6.50104e-06
-4.24819e-07
-2.28807e-07
5.18696e-06
-5.66535e-07
-2.60851e-07
3.5424e-06
-4.13276e-07
3.36835e-06
-2.91608e-07
-7.61342e-07
4.94639e-07
5.42582e-07
7.50357e-06
-5.43001e-07
-4.72203e-07
7.60831e-08
4.68506e-07
7.82041e-06
-3.40676e-07
-3.37181e-07
9.08494e-08
7.36812e-06
-3.14818e-08
-5.2772e-07
-1.28496e-07
7.55827e-06
1.5711e-07
-5.99338e-07
-1.98771e-07
7.12916e-06
1.23387e-08
-4.45412e-07
2.4282e-07
4.30261e-06
-1.96393e-07
2.15538e-07
3.18991e-06
-2.78559e-08
-3.17635e-07
6.23778e-07
1.23248e-07
7.83391e-06
-5.48982e-07
-9.9676e-08
-5.90982e-08
7.33264e-06
-7.67436e-07
-2.05112e-07
6.81052e-06
-1.01752e-06
-2.80799e-07
7.19858e-06
-1.05887e-06
-2.15458e-07
7.50136e-06
-6.90024e-07
3.74458e-08
4.74387e-06
1.70541e-07
3.55273e-06
-3.68453e-07
4.21203e-07
-2.99008e-07
7.14193e-06
-6.32804e-07
-1.65009e-07
-4.28625e-07
5.20035e-06
-7.7847e-07
-2.3019e-07
4.18644e-06
-1.25324e-06
-4.2265e-07
8.00542e-06
-1.22093e-06
-3.19958e-07
7.68966e-06
-8.59631e-07
-2.05283e-07
4.9699e-06
-7.36414e-09
3.6534e-06
-4.81459e-07
3.66536e-07
-6.20496e-07
6.78461e-06
-5.04404e-07
-2.11667e-07
-7.80891e-07
6.94102e-06
-6.40434e-07
-5.00224e-07
5.80917e-06
-1.06797e-06
-5.10578e-07
7.68913e-06
-1.17298e-06
-3.80492e-07
7.76335e-06
-8.26002e-07
-5.41948e-07
5.14182e-06
-1.85175e-07
3.73832e-06
-4.96252e-07
1.71094e-07
-7.66335e-07
7.47283e-06
-1.90525e-07
-7.83414e-08