/*--------------------------------*- C++ -*----------------------------------*\
| =========                 |                                                 |
| \\      /  F ield         | OpenFOAM: The Open Source CFD Toolbox           |
|  \\    /   O peration     | Version:  plus.master.MPPICInterFoam            |
|   \\  /    A nd           | Web:      www.OpenFOAM.com                      |
|    \\/     M anipulation  |                                                 |
\*---------------------------------------------------------------------------*/
FoamFile
{
    version     2.0;
    format      ascii;
    class       volScalarField;
    location    "2.6";
    object      epsilon;
}
// * * * * * * * * * * * * * * * * * * * * * * * * * * * * * * * * * * * * * //

dimensions      [0 2 -3 0 0 0 0];

internalField   nonuniform List<scalar> 
11821
(
0.182603
0.20371
0.156412
0.193563
0.161872
0.13088
0.277259
0.356504
0.40198
0.359142
0.288177
0.221165
0.167578
0.372301
0.486278
0.584033
0.489469
0.375924
0.268725
0.192089
0.450954
0.587369
0.589658
0.630026
0.452044
0.302233
0.206848
0.435714
0.565491
0.585309
0.597213
0.434874
0.294174
0.203123
0.345123
0.452881
0.53978
0.454601
0.34624
0.251273
0.182554
0.247671
0.308745
0.346382
0.313089
0.25663
0.201426
0.15598
0.179415
0.208996
0.227248
0.2172
0.191061
0.160392
0.130849
0.275252
0.356326
0.404665
0.353935
0.285445
0.221461
0.171159
0.369869
0.472385
0.502933
0.471432
0.369531
0.266032
0.193652
0.460126
0.537849
0.535782
0.55465
0.448262
0.298232
0.207309
0.429088
0.527595
0.571288
0.541127
0.419745
0.287315
0.202233
0.329786
0.428576
0.492981
0.424701
0.329608
0.244519
0.181745
0.239179
0.29436
0.327333
0.29658
0.24708
0.19773
0.156426
0.179347
0.204969
0.220748
0.211299
0.187664
0.159711
0.132479
0.261369
0.329718
0.371615
0.330357
0.273823
0.219835
0.175033
0.341027
0.432867
0.454882
0.431233
0.342291
0.255834
0.19386
0.421889
0.46879
0.48798
0.487556
0.40499
0.280852
0.204337
0.384857
0.460701
0.518714
0.46759
0.376559
0.269889
0.198992
0.299246
0.379724
0.431035
0.376927
0.301642
0.233343
0.180708
0.226652
0.270095
0.29652
0.273539
0.234373
0.194202
0.158129
0.180695
0.200017
0.212511
0.204542
0.185223
0.160862
0.135573
0.25165
0.302738
0.334991
0.309167
0.26603
0.221308
0.180593
0.311266
0.390217
0.433471
0.395535
0.316419
0.248879
0.196367
0.365602
0.407702
0.447896
0.455442
0.35598
0.265236
0.203708
0.335512
0.404285
0.425967
0.423066
0.334272
0.255169
0.198138
0.27314
0.335769
0.38724
0.33869
0.279145
0.226389
0.182086
0.21873
0.249592
0.270697
0.256671
0.227249
0.193706
0.161452
0.18186
0.198046
0.207372
0.202288
0.185592
0.163473
0.139569
0.258031
0.301435
0.328741
0.310055
0.270962
0.228662
0.188643
0.303676
0.373351
0.425958
0.381863
0.312806
0.253
0.203147
0.334437
0.407563
0.417369
0.438913
0.338608
0.264358
0.20876
0.311601
0.379671
0.393145
0.393783
0.317114
0.253439
0.202413
0.263969
0.309752
0.344339
0.317177
0.272683
0.227289
0.18664
0.219502
0.244027
0.260703
0.251878
0.227487
0.197004
0.166232
0.18774
0.199535
0.208439
0.204058
0.188674
0.167348
0.1444
0.280815
0.326741
0.354692
0.331614
0.288213
0.24089
0.198269
0.323514
0.391737
0.43564
0.399488
0.329789
0.265464
0.212677
0.34818
0.421683
0.420293
0.438781
0.352586
0.275969
0.217984
0.321342
0.380713
0.415007
0.3911
0.326221
0.262987
0.210536
0.273879
0.314319
0.341479
0.321085
0.279421
0.235147
0.193427
0.22875
0.25152
0.266596
0.258036
0.233856
0.202777
0.172072
0.19457
0.206713
0.214588
0.209237
0.193301
0.172283
0.15027
0.314313
0.370848
0.400391
0.368052
0.311889
0.253539
0.207711
0.362723
0.434796
0.487639
0.426211
0.360576
0.282012
0.222073
0.389191
0.466431
0.45825
0.480982
0.384832
0.294231
0.227757
0.353537
0.41622
0.448218
0.423039
0.352004
0.277881
0.21909
0.296204
0.340571
0.372152
0.344399
0.295804
0.244522
0.200173
0.242596
0.268124
0.2831
0.271001
0.242214
0.208492
0.178192
0.202389
0.216324
0.222873
0.215653
0.198453
0.177784
0.157636
0.342101
0.419621
0.447371
0.402608
0.324376
0.257636
0.215757
0.40677
0.456332
0.510941
0.437991
0.385366
0.289764
0.227203
0.427907
0.486537
0.466178
0.489593
0.417913
0.307179
0.233213
0.389033
0.446968
0.46631
0.441302
0.379783
0.287507
0.224096
0.318832
0.370355
0.403655
0.369142
0.308617
0.248471
0.204934
0.252368
0.283319
0.299742
0.281
0.24543
0.211363
0.184834
0.208168
0.222757
0.228348
0.219385
0.201919
0.183965
0.168108
0.334063
0.417913
0.464893
0.390489
0.307998
0.24989
0.221839
0.407467
0.462682
0.45197
0.444175
0.367399
0.276914
0.228266
0.44235
0.441434
0.425472
0.440025
0.413294
0.296027
0.233363
0.398106
0.416439
0.428673
0.42436
0.368471
0.277829
0.225218
0.315359
0.372922
0.395765
0.358728
0.295397
0.242104
0.20903
0.248182
0.279588
0.294951
0.272172
0.238309
0.211274
0.194209
0.209637
0.221192
0.226597
0.217654
0.203564
0.19234
0.184337
0.298485
0.358577
0.392639
0.331502
0.272495
0.234936
0.227846
0.355424
0.409439
0.402051
0.381839
0.309719
0.248571
0.227377
0.403997
0.416227
0.399137
0.393727
0.346652
0.263987
0.230645
0.360564
0.38241
0.383857
0.377956
0.317365
0.25296
0.225078
0.284313
0.333365
0.359496
0.313102
0.262826
0.228501
0.214985
0.229905
0.250515
0.266103
0.245631
0.222099
0.209619
0.208747
0.204172
0.210693
0.215653
0.209371
0.202296
0.203459
0.209077
0.258889
0.291189
0.307756
0.273669
0.236009
0.216145
0.230668
0.292035
0.344697
0.359014
0.316248
0.254539
0.218855
0.221178
0.330648
0.326986
0.351571
0.34404
0.274089
0.229011
0.226448
0.293894
0.324287
0.302851
0.314871
0.257178
0.224412
0.224751
0.242481
0.271823
0.291015
0.257426
0.224719
0.210633
0.221077
0.205398
0.216221
0.224785
0.212672
0.200238
0.202756
0.228241
0.191929
0.193752
0.199004
0.195367
0.194205
0.208816
0.243786
0.227938
0.244111
0.252509
0.231149
0.206414
0.198469
0.227936
0.244626
0.277298
0.296555
0.255531
0.21327
0.195564
0.214208
0.264112
0.286253
0.270478
0.278463
0.222795
0.201398
0.217017
0.244231
0.270933
0.272743
0.251577
0.212633
0.199399
0.218575
0.210319
0.224334
0.231908
0.21275
0.192972
0.191142
0.219262
0.184467
0.190189
0.192697
0.185517
0.17906
0.188391
0.225051
0.178898
0.179272
0.182258
0.181027
0.182797
0.213311
0.270144
0.208142
0.216609
0.221366
0.205064
0.186397
0.186426
0.237874
0.217338
0.233164
0.239353
0.214299
0.186798
0.179964
0.212819
0.23129
0.251151
0.236783
0.222739
0.191002
0.183011
0.214961
0.21869
0.230992
0.232674
0.208933
0.184105
0.180541
0.215087
0.190547
0.197567
0.199333
0.184614
0.171435
0.174791
0.212046
0.169414
0.171252
0.1727
0.167752
0.165407
0.181123
0.238779
0.16941
0.167385
0.170531
0.170552
0.178106
0.211648
0.31785
0.197418
0.204865
0.209213
0.192806
0.175775
0.182419
0.248369
0.206997
0.221562
0.223526
0.197468
0.173404
0.172704
0.212892
0.21847
0.233479
0.226874
0.20226
0.174959
0.171825
0.20421
0.205207
0.216361
0.212382
0.190089
0.168739
0.168881
0.20147
0.179705
0.185425
0.1851
0.171212
0.159819
0.168466
0.214107
0.159307
0.160736
0.162932
0.159106
0.160265
0.180733
0.266847
0.163704
0.160755
0.163108
0.167283
0.183927
0.232428
0.351037
0.192672
0.205851
0.209443
0.187772
0.168914
0.175213
0.256074
0.211131
0.233133
0.229281
0.194851
0.165003
0.163186
0.22546
0.227538
0.234775
0.220128
0.198705
0.165075
0.161958
0.215024
0.209287
0.22305
0.206356
0.185525
0.159422
0.160001
0.213608
0.176165
0.185176
0.185537
0.167023
0.153585
0.159617
0.228445
0.151239
0.154871
0.160488
0.157122
0.157038
0.176852
0.279447
0.150577
0.155041
0.165641
0.171048
0.180348
0.248647
0.34503
0.196105
0.226797
0.225193
0.187117
0.15985
0.168421
0.21849
0.232227
0.240595
0.23034
0.203488
0.16202
0.153751
0.205578
0.254392
0.218747
0.219609
0.207069
0.160465
0.150008
0.201349
0.226124
0.227314
0.214925
0.183361
0.153364
0.144872
0.202471
0.177447
0.196719
0.189432
0.163622
0.140941
0.147191
0.211151
0.146785
0.155317
0.159329
0.148943
0.138556
0.171914
0.239021
0.14541
0.147472
0.158617
0.158787
0.179899
0.235937
0.248713
0.0395516
0.0538026
0.0883948
0.0695235
0.0544778
0.0421165
0.0333932
0.0418982
0.146049
0.111233
0.0860712
0.0669338
0.0513618
0.0381329
0.0279962
0.032368
0.135012
0.104411
0.0815827
0.0634242
0.0479661
0.0342666
0.0231728
0.0245337
0.119665
0.0954738
0.0761785
0.0597046
0.0448143
0.0310571
0.0195047
0.0192264
0.104741
0.0871597
0.0713372
0.0565895
0.0425404
0.029253
0.0181047
0.0185252
0.131447
0.110061
0.092632
0.0780395
0.0655979
0.0554878
0.0502035
0.0722887
0.143787
0.114907
0.0934999
0.0765762
0.0623585
0.0502318
0.0418586
0.0544941
0.150921
0.117285
0.0931993
0.0746385
0.0591666
0.04559
0.0349262
0.0409441
0.148349
0.114628
0.0903171
0.0714226
0.0553979
0.0409272
0.0287826
0.0304016
0.136634
0.107177
0.085028
0.0669838
0.051006
0.0360814
0.0230901
0.0217086
0.120903
0.0975479
0.0786547
0.0620782
0.0465295
0.0315821
0.0183061
0.0154145
0.105617
0.0884065
0.0726696
0.0575813
0.0427681
0.0282663
0.0154793
0.0128392
0.136981
0.11642
0.0991921
0.0841743
0.0706691
0.0588949
0.0515154
0.070719
0.148265
0.120726
0.0998115
0.0826266
0.0673769
0.0533894
0.0423864
0.0507443
0.154495
0.122495
0.0990714
0.0803597
0.0638979
0.0483511
0.0347705
0.0360876
0.151068
0.119136
0.0955256
0.0764546
0.0594375
0.0430578
0.0280667
0.0254166
0.139081
0.11108
0.0893557
0.0709755
0.0539687
0.0373094
0.0218347
0.0170047
0.123434
0.100794
0.0819012
0.0647428
0.0481304
0.0316309
0.0163689
0.0109325
0.107827
0.0907178
0.0746189
0.0587917
0.0428562
0.0269552
0.0127083
0.0080453
0.142976
0.123318
0.106141
0.0904179
0.0754302
0.06138
0.0509172
0.0645401
0.152849
0.127021
0.106492
0.0887647
0.0720754
0.0556181
0.0410009
0.0428582
0.157739
0.128119
0.105325
0.0861506
0.0682276
0.0501417
0.0328613
0.0282657
0.153837
0.124178
0.101121
0.0815009
0.0629965
0.0441955
0.0258586
0.0186304
0.142198
0.115657
0.0940585
0.0749115
0.0564337
0.03762
0.0194332
0.011658
0.126915
0.104703
0.08542
0.0673504
0.049278
0.030886
0.0137461
0.00690443
0.110931
0.0935668
0.0768216
0.0599497
0.0426122
0.025168
0.00988191
0.00476362
0.149704
0.130642
0.113357
0.0967985
0.0800954
0.0631728
0.0485333
0.0543286
0.158476
0.133809
0.11339
0.094934
0.0765577
0.0571381
0.0379995
0.0324111
0.162236
0.134322
0.111782
0.0918201
0.0720855
0.0510384
0.0295312
0.0195541
0.157874
0.12983
0.106903
0.0863416
0.0659064
0.0442897
0.0224936
0.0121088
0.14636
0.120723
0.0989146
0.078647
0.0581965
0.03685
0.0162372
0.00722634
0.131036
0.108999
0.0891742
0.0697956
0.0498077
0.0292198
0.0108257
0.00418408
0.114526
0.0969017
0.0793661
0.061208
0.0421155
0.0228313
0.00726173
0.00299377
0.157707
0.138835
0.121365
0.103893
0.0851458
0.0646645
0.0447286
0.0416291
0.165842
0.141463
0.120908
0.101575
0.0811407
0.0581647
0.0338616
0.0219267
0.168917
0.141464
0.118708
0.0976305
0.0755794
0.0510215
0.0252296
0.0121454
0.163957
0.136344
0.113012
0.091043
0.0681079
0.0432239
0.018469
0.0072813
0.151983
0.126488
0.104012
0.0821428
0.0592013
0.0349732
0.0128089
0.00440032
0.13613
0.113933
0.0932577
0.0722082
0.0498366
0.026785
0.00811218
0.00272388
0.119084
0.101175
0.0827502
0.0629115
0.0415221
0.0201181
0.00515118
0.00220116
0.166896
0.148593
0.131118
0.112607
0.0912158
0.0662074
0.0398569
0.0284369
0.174268
0.150141
0.129717
0.109382
0.0862043
0.0587622
0.0289559
0.0133896
0.177013
0.149487
0.1265
0.103985
0.0788413
0.0499778
0.0204655
0.00710756
0.171391
0.143635
0.119695
0.0958673
0.0697021
0.0409672
0.0143902
0.00439628
0.15855
0.132961
0.109677
0.0857496
0.0596871
0.032229
0.0097015
0.0028847
0.142073
0.119914
0.0983068
0.0751164
0.0497362
0.0239531
0.00593298
0.00202257
0.125186
0.107202
0.0876803
0.0655856
0.0411564
0.0173681
0.00363534
0.00186117
0.177624
0.160992
0.144198
0.124113
0.0986237
0.0673968
0.0336253
0.0165625
0.183332
0.160807
0.141178
0.119267
0.0918232
0.058284
0.0232453
0.00742293
0.185488
0.158846
0.13602
0.111396
0.0818044
0.0474432
0.0156077
0.00415246
0.17914
0.151995
0.127592
0.101182
0.0707127
0.037519
0.0107009
0.00285122
0.165706
0.140787
0.116669
0.0899453
0.0598559
0.0288821
0.00716009
0.00210918
0.149537
0.127981
0.105258
0.0791175
0.0497516
0.020947
0.00429113
0.00167181
0.133843
0.116081
0.0951101
0.0697833
0.0410936
0.0146592
0.0025706
0.00169181
0.195019
0.180487
0.163481
0.139372
0.106551
0.0663572
0.0256455
0.00802802
0.194177
0.176062
0.157294
0.131734
0.0970911
0.0551032
0.0168807
0.00392498
0.194352
0.171106
0.148446
0.119929
0.0837228
0.0427034
0.0110191
0.00258771
0.187294
0.16266
0.137545
0.107013
0.0706969
0.0327891
0.007592
0.0020446
0.174283
0.15128
0.125831
0.0948761
0.0594377
0.0249231
0.00515904
0.00168909
0.159882
0.139559
0.115006
0.0843653
0.0494454
0.0176097
0.00304688
0.0014679
0.146768
0.129315
0.105873
0.0754224
0.0404897
0.0117241
0.00180062
0.00157595
0.214027
0.211067
0.190636
0.157238
0.112143
0.0598992
0.0166356
0.00363476
0.209729
0.198853
0.179147
0.145563
0.0995467
0.0474509
0.0107052
0.00225607
0.206212
0.188508
0.164237
0.12839
0.0827865
0.0353065
0.0071683
0.00182762
0.198215
0.177381
0.149796
0.112422
0.0684021
0.0267261
0.00518197
0.00162453
0.186622
0.166057
0.137482
0.0998177
0.0573742
0.0202869
0.00365393
0.0014427
0.175404
0.156245
0.127874
0.0899751
0.047366
0.0137229
0.00212046
0.00132608
0.1662
0.148309
0.119873
0.0810003
0.0376314
0.00850874
0.00126518
0.00146928
0.244407
0.254976
0.223542
0.172523
0.109854
0.0460415
0.00875633
0.00202094
0.234643
0.230783
0.204294
0.156076
0.0948066
0.0352784
0.00595655
0.00158345
0.223499
0.210983
0.180971
0.133258
0.0761432
0.026036
0.00449334
0.00148032
0.213602
0.195954
0.16243
0.114845
0.0620335
0.0200406
0.00358454
0.00140772
0.20451
0.185368
0.150281
0.102656
0.0520402
0.0153475
0.00264985
0.00129186
0.198664
0.178654
0.142488
0.0931995
0.041566
0.00962284
0.00150826
0.00121502
0.193879
0.172885
0.134434
0.0827186
0.0309162
0.00537552
0.000929248
0.0013608
0.279716
0.298808
0.249289
0.174008
0.0934025
0.028309
0.0039771
0.00150826
0.255905
0.267681
0.224232
0.155344
0.0790584
0.022285
0.00330765
0.0013203
0.246374
0.235435
0.193316
0.129825
0.0626127
0.0175673
0.00312666
0.00130626
0.23502
0.216386
0.172065
0.11139
0.0513795
0.0143622
0.00279002
0.00127137
0.230615
0.208749
0.161695
0.100378
0.0431705
0.0111563
0.00213355
0.00119157
0.22959
0.206771
0.155132
0.0897379
0.0322084
0.00637053
0.00119472
0.0011276
0.230517
0.199234
0.142776
0.0746675
0.0208014
0.00306333
0.000753595
0.00125857
0.310799
0.331304
0.25611
0.157052
0.0659331
0.014575
0.00204062
0.00131845
0.269558
0.294766
0.227935
0.138211
0.0563028
0.0133639
0.00217751
0.00118245
0.256516
0.256719
0.194708
0.114738
0.0463621
0.0122771
0.00241145
0.00117984
0.250024
0.236514
0.174365
0.0993707
0.0395938
0.0108271
0.00228557
0.00115222
0.249279
0.23466
0.166106
0.0893858
0.0332523
0.00840048
0.00176566
0.00109313
0.264531
0.234671
0.156859
0.0751242
0.0222375
0.00440115
0.00100445
0.00105158
0.268089
0.216363
0.135964
0.0553729
0.0115931
0.00193574
0.000678361
0.00117379
0.331007
0.328008
0.22855
0.11845
0.0383512
0.00735406
0.00132958
0.00121156
0.290864
0.297365
0.204382
0.105452
0.0361337
0.0080472
0.00155221
0.00108435
0.26943
0.265352
0.177442
0.0904791
0.033001
0.00856561
0.00186579
0.00107184
0.262317
0.248976
0.161777
0.0806133
0.0296141
0.00796032
0.00181715
0.00104642
0.275188
0.250013
0.153617
0.0717285
0.0242257
0.00603603
0.00140729
0.00100487
0.295188
0.241325
0.136879
0.0540512
0.0142517
0.00305118
0.000850051
0.000990967
0.286321
0.20859
0.107887
0.0326677
0.00631664
0.00143246
0.0006248
0.00110814
0.321377
0.282411
0.172011
0.0740207
0.0202145
0.00409172
0.00101236
0.00116518
0.300093
0.260869
0.15689
0.0693975
0.0213271
0.0049485
0.00117829
0.00103103
0.289153
0.241978
0.14191
0.0641432
0.0217829
0.00578447
0.00142976
0.000994943
0.28629
0.234244
0.133127
0.0594697
0.0204087
0.00554246
0.0014015
0.000967818
0.293783
0.231725
0.124266
0.0516242
0.0163081
0.00419278
0.00111149
0.000947467
0.299465
0.21142
0.102007
0.0350433
0.00917016
0.00224424
0.00073775
0.00096183
0.270517
0.168795
0.0689454
0.0179856
0.00404906
0.00118158
0.000585697
0.00108045
0.272224
0.203968
0.108951
0.0405929
0.0108886
0.00263552
0.000840438
0.00117443
0.269873
0.194688
0.103333
0.0412925
0.0125356
0.0032439
0.000932451
0.00102568
0.26973
0.188632
0.0991517
0.0415469
0.0138397
0.00388616
0.0010904
0.000966119
0.270234
0.186543
0.0957776
0.0397446
0.0132583
0.00375489
0.00106631
0.000936533
0.270905
0.180377
0.08747
0.0337688
0.0105294
0.00289651
0.000879691
0.00093416
0.261002
0.155684
0.0669368
0.022013
0.00613157
0.00169956
0.000645381
0.000974064
0.21817
0.112814
0.040191
0.0109837
0.00300725
0.0010015
0.000550829
0.00110323
0.187095
0.121873
0.0590261
0.0212385
0.00623715
0.00177844
0.000705713
0.00126799
0.192088
0.121471
0.060056
0.0234311
0.00742737
0.00211427
0.000734786
0.0010861
0.199879
0.123466
0.061364
0.025089
0.00847279
0.00249862
0.000812143
0.00100007
0.203503
0.123242
0.0598191
0.0240436
0.00805922
0.00238741
0.000786671
0.000967606
0.19928
0.115593
0.0528897
0.019909
0.00634482
0.00187225
0.000677448
0.000977774
0.178536
0.0941067
0.0384045
0.0129145
0.00388491
0.00120343
0.000551907
0.00104813
0.136704
0.0629547
0.0222389
0.00683974
0.00213731
0.000795545
0.000510315
0.00121223
0.151412
0.134413
0.124371
0.113184
0.0999096
0.0879616
0.082831
0.119175
0.191219
0.156389
0.133494
0.116336
0.101053
0.0882869
0.082469
0.116321
0.249931
0.190001
0.151053
0.12456
0.104626
0.089832
0.0832218
0.117006
0.304749
0.221386
0.167628
0.13285
0.108969
0.0925963
0.0858834
0.122965
0.311643
0.224102
0.168785
0.134323
0.110689
0.0948158
0.0892349
0.13224
0.262382
0.195996
0.154164
0.128195
0.109129
0.0957406
0.0924358
0.143747
0.206916
0.16633
0.139327
0.121169
0.10684
0.0962428
0.0959226
0.157162
0.15545
0.139542
0.127341
0.112282
0.0969746
0.0837518
0.077242
0.108769
0.190078
0.158238
0.136154
0.117441
0.100553
0.0867027
0.0799237
0.111008
0.243705
0.189416
0.152431
0.125844
0.105382
0.090083
0.0829864
0.115185
0.299482
0.219342
0.168226
0.134236
0.110339
0.0938204
0.0869141
0.122988
0.311204
0.224254
0.170404
0.135907
0.112124
0.096083
0.0903871
0.13285
0.26157
0.197924
0.157224
0.130244
0.110241
0.096456
0.0930552
0.144247
0.208578
0.169792
0.142957
0.123925
0.108146
0.0970589
0.0966393
0.158491
0.15802
0.143788
0.12872
0.111814
0.0954468
0.0816328
0.0743806
0.101705
0.187028
0.160163
0.139175
0.119432
0.10171
0.0873561
0.0800624
0.10856
0.230678
0.185832
0.153676
0.128575
0.108249
0.0928324
0.0855067
0.116189
0.277148
0.211749
0.167995
0.137008
0.114029
0.0976802
0.0906899
0.125699
0.290383
0.21749
0.170952
0.139051
0.115944
0.0999621
0.0941825
0.1359
0.250169
0.196639
0.160174
0.133759
0.113661
0.0995675
0.0959318
0.146741
0.206103
0.172246
0.147486
0.12778
0.111292
0.099689
0.0989854
0.161059
0.162262
0.147255
0.12982
0.11236
0.0961661
0.0827966
0.0757618
0.100845
0.187007
0.163772
0.142386
0.122539
0.105004
0.0909398
0.0837499
0.110537
0.221311
0.185807
0.157381
0.133414
0.113594
0.0984699
0.0912217
0.120768
0.256094
0.207034
0.170757
0.142511
0.120446
0.104403
0.0974739
0.131641
0.267474
0.213024
0.174288
0.144966
0.122482
0.106581
0.100779
0.141807
0.241222
0.198459
0.165855
0.140068
0.119595
0.105109
0.101225
0.151521
0.207241
0.178138
0.154846
0.133967
0.116511
0.104218
0.103034
0.165189
0.166433
0.149267
0.132074
0.115627
0.100681
0.0882901
0.0817264
0.106523
0.191187
0.168289
0.147045
0.128006
0.111463
0.0981289
0.0912035
0.117365
0.222344
0.190604
0.163887
0.140949
0.121957
0.107346
0.100217
0.12909
0.252288
0.211308
0.178358
0.151358
0.129936
0.114262
0.10745
0.140983
0.263372
0.218257
0.182751
0.154237
0.131988
0.116268
0.110587
0.150985
0.245111
0.206491
0.175207
0.148989
0.128074
0.113395
0.109405
0.158897
0.215756
0.188313
0.164104
0.142064
0.123741
0.110863
0.109156
0.1702
0.171659
0.154186
0.138338
0.123779
0.110235
0.0982647
0.0913159
0.116385
0.199335
0.175109
0.154626
0.137156
0.12195
0.109031
0.101623
0.127306
0.232992
0.201027
0.173809
0.15173
0.133735
0.119429
0.111755
0.139665
0.264757
0.223789
0.190205
0.163474
0.142702
0.127339
0.120189
0.152679
0.278293
0.232581
0.195751
0.166746
0.144823
0.129508
0.123854
0.163358
0.262387
0.221322
0.187706
0.160535
0.139635
0.125207
0.121252
0.169564
0.233493
0.202926
0.175614
0.152318
0.133542
0.12038
0.118132
0.17709
0.178505
0.162951
0.150052
0.137953
0.125273
0.112123
0.102544
0.125796
0.208772
0.1841
0.165624
0.150657
0.136718
0.122935
0.112859
0.135773
0.2486
0.21272
0.185773
0.165517
0.148801
0.133792
0.123419
0.147725
0.287921
0.24052
0.204365
0.178209
0.158548
0.142859
0.133529
0.162502
0.306381
0.251988
0.211081
0.181895
0.161094
0.146136
0.139364
0.176215
0.288878
0.239732
0.20212
0.174703
0.154908
0.141263
0.136968
0.183261
0.25419
0.218037
0.18845
0.165154
0.147068
0.13414
0.131139
0.187338
0.187719
0.176757
0.168813
0.159785
0.146672
0.129261
0.112708
0.128073
0.216151
0.194076
0.180356
0.169415
0.156276
0.138931
0.121703
0.134979
0.260955
0.222763
0.198812
0.182607
0.167288
0.149033
0.131248
0.144637
0.311211
0.254255
0.218067
0.195277
0.177448
0.159242
0.143122
0.161209
0.33631
0.268532
0.22576
0.199545
0.181179
0.165161
0.153517
0.181646
0.311803
0.253935
0.216282
0.192282
0.175477
0.162125
0.155292
0.196081
0.269821
0.230421
0.202854
0.182875
0.167076
0.154333
0.149434
0.201145
0.198514
0.197773
0.198875
0.192753
0.176275
0.148984
0.118058
0.115214
0.218281
0.204635
0.200225
0.195548
0.18185
0.156025
0.124244
0.117055
0.259607
0.228308
0.213598
0.204587
0.189835
0.163354
0.130521
0.122279
0.311849
0.258393
0.231071
0.216022
0.199874
0.174099
0.14328
0.139489
0.338122
0.273106
0.239459
0.221658
0.206135
0.184525
0.160417
0.167794
0.310684
0.259013
0.231712
0.216899
0.20372
0.18755
0.172632
0.199422
0.271473
0.24065
0.223565
0.212478
0.198489
0.183533
0.173211
0.215792
0.205258
0.220326
0.241356
0.241872
0.215667
0.169314
0.11395
0.0837395
0.213116
0.212753
0.224031
0.232372
0.21432
0.172296
0.116719
0.0820378
0.244409
0.228075
0.228526
0.233646
0.215612
0.173396
0.117438
0.0826204
0.287787
0.252671
0.242841
0.24275
0.22428
0.182881
0.12901
0.0976298
0.311604
0.266387
0.252879
0.251445
0.235673
0.19998
0.153709
0.131508
0.286192
0.257179
0.252837
0.25527
0.242053
0.215395
0.182793
0.183352
0.261563
0.252229
0.258738
0.260406
0.24682
0.223617
0.200701
0.228725
0.201228
0.227533
0.275307
0.309985
0.260846
0.183834
0.0965099
0.0447493
0.201613
0.213633
0.242514
0.2669
0.249936
0.182614
0.0973709
0.044222
0.223499
0.223091
0.237009
0.251284
0.236919
0.173389
0.0931048
0.0435655
0.253425
0.242328
0.248314
0.258157
0.241494
0.179564
0.102338
0.0537495
0.270353
0.253466
0.26052
0.276523
0.261773
0.204115
0.130758
0.0826695
0.255234
0.250337
0.270952
0.299217
0.288145
0.239488
0.178012
0.145437
0.244187
0.251317
0.282024
0.333494
0.319514
0.271491
0.221014
0.218175
0.192828
0.226556
0.309089
0.359324
0.289721
0.175963
0.0673952
0.018323
0.187855
0.206079
0.250736
0.305584
0.27921
0.175602
0.0684676
0.0190593
0.206754
0.220409
0.252371
0.275682
0.247352
0.160072
0.0644714
0.0194867
0.230142
0.239395
0.26325
0.277229
0.246025
0.164623
0.0721122
0.0247401
0.241354
0.24786
0.274942
0.299793
0.276333
0.195258
0.0992285
0.0421303
0.232088
0.244248
0.285604
0.334728
0.33309
0.251812
0.155413
0.0935626
0.22899
0.247734
0.300397
0.399501
0.404137
0.312931
0.217798
0.169959
0.189121
0.234674
0.333556
0.372858
0.270948
0.135869
0.0375029
0.00595397
0.177071
0.200554
0.258639
0.337776
0.270412
0.139006
0.0400315
0.00735005
0.193086
0.213894
0.270104
0.302336
0.240836
0.129319
0.0386329
0.00853485
0.215682
0.237999
0.287781
0.297904
0.23931
0.136697
0.0447973
0.0109909
0.225365
0.247706
0.301617
0.324919
0.276851
0.171872
0.0664456
0.0189522
0.216145
0.235688
0.296368
0.385611
0.362694
0.24194
0.116961
0.0482543
0.217059
0.244216
0.317615
0.44326
0.457671
0.321875
0.182345
0.104045
0.183776
0.239975
0.336897
0.327522
0.199587
0.0757356
0.0149861
0.00226622
0.167949
0.196686
0.271508
0.327317
0.216422
0.0885223
0.02007
0.0032646
0.181836
0.200467
0.253136
0.311081
0.20745
0.087941
0.0218453
0.00435185
0.205169
0.223008
0.277135
0.312561
0.214689
0.0985916
0.0261773
0.00574016
0.215505
0.234358
0.296591
0.351922
0.257306
0.131768
0.0396699
0.00899658
0.20703
0.226891
0.292159
0.411505
0.342994
0.198463
0.0744798
0.0202184
0.206801
0.237568
0.325216
0.466037
0.444256
0.280373
0.12631
0.0459258
0.178064
0.236534
0.279028
0.223829
0.106406
0.0291858
0.00493395
0.00148794
0.157136
0.179632
0.260569
0.26377
0.139403
0.0460217
0.0093685
0.00192188
0.172824
0.19091
0.250467
0.280953
0.150476
0.0538286
0.0126134
0.00272054
0.199477
0.214532
0.266963
0.297
0.167972
0.0634642
0.0159157
0.00358585
0.211913
0.228239
0.289903
0.337674
0.206888
0.0868134
0.0229815
0.00496533
0.202713
0.22333
0.299532
0.387985
0.273933
0.134605
0.0402537
0.00816545
0.197554
0.224653
0.307653
0.412141
0.354174
0.195779
0.0693531
0.0153892
0.165513
0.193749
0.183269
0.108179
0.0401241
0.00962394
0.00196249
0.00143432
0.143866
0.170647
0.208587
0.156195
0.0686609
0.0202701
0.00431304
0.00150809
0.16478
0.169176
0.225532
0.1956
0.0916645
0.0308816
0.00746164
0.0019379
0.194812
0.198371
0.249894
0.22877
0.111313
0.0399052
0.0103098
0.0024947
0.208467
0.208613
0.273911
0.265021
0.138678
0.052923
0.0139009
0.00312719
0.198655
0.199474
0.2774
0.292399
0.17725
0.0755901
0.0201759
0.00381989
0.188436
0.205688
0.272444
0.290121
0.216694
0.103427
0.0295921
0.00483748
0.206583
0.166774
0.141095
0.123301
0.109608
0.0986303
0.0980974
0.160607
0.250675
0.190966
0.155375
0.131301
0.112985
0.0989458
0.0951473
0.146675
0.278056
0.207511
0.163129
0.133374
0.111464
0.0958958
0.0901891
0.131608
0.259788
0.197814
0.156179
0.12685
0.105258
0.0900543
0.0837448
0.117827
0.21759
0.171183
0.13818
0.113676
0.0950562
0.0815519
0.0755852
0.104685
0.174103
0.141605
0.117144
0.0980512
0.0829394
0.0716116
0.0665552
0.0928581
0.13708
0.115345
0.0977517
0.0832133
0.0711281
0.061781
0.0578982
0.0841524
0.208275
0.170803
0.145669
0.12736
0.111758
0.100241
0.0994183
0.160749
0.250825
0.1937
0.159521
0.135727
0.116713
0.102412
0.0984015
0.149128
0.277674
0.209683
0.167382
0.138519
0.116755
0.100988
0.0950011
0.136274
0.258735
0.200515
0.161279
0.132928
0.111435
0.0958258
0.0889711
0.12286
0.218596
0.175436
0.144162
0.120221
0.101354
0.0871002
0.0802114
0.108705
0.177741
0.147152
0.123568
0.104559
0.0888337
0.0764265
0.0700781
0.0952021
0.142491
0.121614
0.104272
0.0893751
0.0763886
0.0656688
0.0601339
0.0845899
0.205269
0.172596
0.150216
0.131852
0.1152
0.103265
0.10232
0.163655
0.241595
0.193175
0.163427
0.141134
0.121465
0.106884
0.102766
0.153261
0.265178
0.208178
0.171788
0.144751
0.12294
0.106821
0.10044
0.141188
0.250498
0.20167
0.166895
0.139835
0.118256
0.101974
0.0942774
0.126885
0.21766
0.18
0.150929
0.127411
0.107978
0.0926101
0.0842904
0.110634
0.181555
0.153372
0.130627
0.111454
0.0948226
0.0808466
0.0724794
0.0944864
0.148329
0.1284
0.111187
0.0957511
0.0815031
0.0688093
0.0606704
0.0808287
0.20671
0.17838
0.156331
0.137685
0.120322
0.107926
0.106672
0.16799
0.236982
0.197668
0.169847
0.147642
0.127556
0.112701
0.108303
0.157918
0.256869
0.211425
0.179285
0.152439
0.130244
0.11357
0.106476
0.145602
0.247424
0.206557
0.174516
0.147904
0.125797
0.108487
0.0993867
0.129252
0.220309
0.186627
0.158854
0.135254
0.114908
0.0979161
0.087401
0.109715
0.187097
0.160596
0.138296
0.118714
0.100833
0.0847066
0.0733546
0.090169
0.154967
0.135693
0.11851
0.102364
0.0865258
0.071177
0.0592472
0.0724497
0.217565
0.190493
0.1675
0.145764
0.127432
0.114426
0.112534
0.172569
0.246419
0.210332
0.182473
0.156704
0.13556
0.120091
0.114984
0.162515
0.26462
0.223302
0.190175
0.162037
0.138919
0.121273
0.112886
0.148879
0.256171
0.21736
0.184851
0.157367
0.13413
0.115181
0.103778
0.128954
0.229228
0.196253
0.168199
0.143875
0.122173
0.102852
0.0889717
0.105056
0.195506
0.169227
0.146789
0.126568
0.107096
0.0880151
0.0722789
0.0815753
0.163026
0.143937
0.126629
0.109669
0.0918721
0.0730158
0.0558424
0.0596997
0.236843
0.206934
0.17974
0.155913
0.136764
0.12322
0.120489
0.178094
0.268045
0.228132
0.194846
0.167271
0.145331
0.129225
0.122989
0.167173
0.286103
0.240659
0.203368
0.173183
0.148856
0.129792
0.119196
0.150046
0.275273
0.232452
0.197083
0.167924
0.143143
0.121701
0.106443
0.124336
0.243456
0.208088
0.178649
0.153364
0.129928
0.107183
0.0880451
0.09542
0.205935
0.178978
0.156392
0.135584
0.114086
0.0908373
0.0686959
0.0676034
0.172238
0.153522
0.136364
0.118528
0.0981774
0.0746527
0.0505224
0.0437015
0.258048
0.221399
0.191605
0.16786
0.149182
0.13557
0.131759
0.186314
0.296164
0.24594
0.207795
0.179215
0.157302
0.140587
0.132449
0.171728
0.316622
0.259828
0.216986
0.185119
0.159921
0.138752
0.124124
0.146597
0.299666
0.2483
0.209257
0.178973
0.152659
0.127377
0.105664
0.112811
0.258589
0.219519
0.189377
0.163855
0.138346
0.110482
0.0831986
0.0781335
0.215977
0.189269
0.167678
0.146588
0.122227
0.0930096
0.0618987
0.0484206
0.182658
0.165575
0.149151
0.130019
0.105792
0.0758433
0.0430834
0.0266179
0.272633
0.232925
0.204829
0.184088
0.167381
0.153635
0.14774
0.198012
0.318364
0.258274
0.21947
0.193218
0.172721
0.154785
0.142659
0.173337
0.343642
0.27319
0.22822
0.197734
0.172522
0.147627
0.125387
0.134011
0.315669
0.257937
0.21952
0.190788
0.162969
0.131502
0.0993115
0.0906603
0.265549
0.227636
0.200712
0.176352
0.14779
0.112289
0.0735316
0.053529
0.222974
0.200858
0.182525
0.160803
0.131547
0.093826
0.0516479
0.0278591
0.196357
0.182951
0.167243
0.145025
0.114079
0.0750989
0.0332866
0.0126195
0.27293
0.241982
0.223317
0.209859
0.195769
0.180059
0.169112
0.211378
0.314832
0.26156
0.231909
0.21272
0.194166
0.172277
0.15131
0.165316
0.340331
0.274662
0.238166
0.213555
0.187939
0.155666
0.120121
0.108511
0.307679
0.259372
0.230166
0.205586
0.17468
0.133359
0.086368
0.0591255
0.261161
0.234885
0.215688
0.192658
0.158034
0.111526
0.0593563
0.028953
0.229206
0.217669
0.203673
0.179067
0.140814
0.0911916
0.0385174
0.012375
0.216146
0.208923
0.19245
0.163011
0.1206
0.06912
0.021825
0.00492585
0.265168
0.254155
0.254603
0.254064
0.240332
0.216872
0.193734
0.219176
0.290049
0.261191
0.250351
0.242719
0.223886
0.192026
0.15412
0.141764
0.305977
0.268557
0.251292
0.234961
0.206051
0.160948
0.106179
0.0714724
0.280544
0.25777