/*--------------------------------*- C++ -*----------------------------------*\
| =========                 |                                                 |
| \\      /  F ield         | OpenFOAM: The Open Source CFD Toolbox           |
|  \\    /   O peration     | Version:  plus.master.MPPICInterFoam            |
|   \\  /    A nd           | Web:      www.OpenFOAM.com                      |
|    \\/     M anipulation  |                                                 |
\*---------------------------------------------------------------------------*/
FoamFile
{
    version     2.0;
    format      ascii;
    class       volScalarField;
    location    "2.6";
    object      k;
}
// * * * * * * * * * * * * * * * * * * * * * * * * * * * * * * * * * * * * * //

dimensions      [0 2 -2 0 0 0 0];

internalField   nonuniform List<scalar> 
11821
(
0.0339358
0.0363461
0.0308653
0.0352793
0.0315866
0.0274532
0.0430827
0.0498833
0.0535158
0.0505884
0.0448065
0.0384515
0.0324544
0.0508355
0.0594385
0.0663492
0.0599635
0.0520613
0.0430483
0.0352847
0.056798
0.0672193
0.0674268
0.0697222
0.0576987
0.0459104
0.036778
0.0558199
0.0655356
0.0667251
0.0673938
0.0564126
0.0451695
0.036367
0.048983
0.0572328
0.0632179
0.0575489
0.0495958
0.0413095
0.0341345
0.0406461
0.0460657
0.0491697
0.0466867
0.0418469
0.0363044
0.0309578
0.0338493
0.0369872
0.038815
0.0379414
0.0352098
0.031549
0.0275018
0.0433681
0.0503075
0.0541261
0.050605
0.0450484
0.038899
0.0331598
0.0508967
0.0576135
0.0590344
0.0582218
0.0519742
0.0432295
0.0358042
0.0573337
0.0622374
0.0630885
0.0631539
0.0577175
0.0459989
0.0372166
0.05539
0.0618881
0.0655497
0.062858
0.0556264
0.0450055
0.0366314
0.0480577
0.0553006
0.0596323
0.0553944
0.0486111
0.0410674
0.034336
0.0402892
0.0452229
0.0480029
0.0456646
0.041345
0.0362261
0.0311881
0.0341733
0.0369754
0.0385804
0.0377059
0.0351133
0.0316284
0.0277447
0.0429077
0.0491911
0.052822
0.0497374
0.0447904
0.0392766
0.0338808
0.0497154
0.0562336
0.057407
0.0569426
0.0508131
0.0429611
0.0362273
0.0558238
0.0581836
0.0607445
0.0599246
0.0556572
0.0452186
0.0373673
0.0531836
0.0579924
0.0630035
0.0588424
0.0533428
0.0441442
0.03672
0.046382
0.0527073
0.0563644
0.052862
0.0470303
0.0405122
0.034523
0.0397091
0.0438797
0.0462489
0.0443486
0.040613
0.0361783
0.0315205
0.0346706
0.0369237
0.0382311
0.0373571
0.0350888
0.0318724
0.0280876
0.0428444
0.0480909
0.0512396
0.0490546
0.0447977
0.0398322
0.0346302
0.0486917
0.0556318
0.0590944
0.0567386
0.0497339
0.0428959
0.0367562
0.0533961
0.0560128
0.0601878
0.0608393
0.0531295
0.0444995
0.0376368
0.0508553
0.0562165
0.0578345
0.0582999
0.0511252
0.0434188
0.036929
0.045111
0.0510175
0.0554097
0.0514368
0.0458753
0.0402901
0.0348471
0.0394627
0.0427823
0.0448575
0.0435333
0.0403898
0.0363392
0.0319147
0.0347913
0.0370259
0.0380463
0.0374193
0.0352633
0.0321591
0.0284124
0.0439928
0.0487762
0.0515825
0.0498449
0.0456532
0.0407162
0.0354456
0.0489115
0.0560784
0.0609292
0.0570541
0.0501004
0.0436053
0.0375131
0.0518929
0.0590468
0.0599357
0.061992
0.0524942
0.0447967
0.03825
0.0497426
0.0566063
0.0573058
0.0578756
0.0503581
0.0435857
0.0374426
0.0448348
0.0496758
0.0528902
0.0503809
0.045776
0.040565
0.0353228
0.0397832
0.0426845
0.0444097
0.0434593
0.0406268
0.0367283
0.0323225
0.0354224
0.037153
0.0382701
0.0376831
0.0355938
0.0324646
0.0287128
0.0462984
0.0513384
0.054165
0.0519385
0.0472807
0.0418265
0.0362453
0.0510567
0.0581277
0.0619313
0.0589546
0.051783
0.0447536
0.038346
0.0535338
0.0609366
0.0606179
0.0621261
0.0539448
0.0458979
0.0390742
0.0509526
0.0571473
0.0603938
0.0578953
0.0513364
0.0445073
0.0381633
0.0459892
0.0503525
0.0528762
0.0508957
0.0464297
0.0413231
0.0358885
0.0407693
0.0435224
0.0450885
0.0440999
0.0412375
0.0372252
0.0327329
0.0360869
0.0378817
0.0388866
0.0381561
0.0359508
0.0327922
0.0290434
0.0490353
0.0546823
0.0575082
0.0544458
0.0490345
0.0427773
0.0368854
0.0540681
0.0612269
0.0656336
0.0602214
0.0538867
0.0459823
0.0390134
0.0568209
0.0640831
0.0632956
0.0650368
0.0562067
0.0472559
0.0397879
0.053566
0.0598093
0.0624628
0.0601647
0.0531881
0.0456403
0.0387826
0.0479086
0.0524712
0.0553348
0.0526459
0.0476707
0.0420374
0.0363391
0.0421041
0.0450112
0.0464819
0.0451436
0.0418856
0.0376179
0.0330886
0.0368706
0.0388423
0.0396387
0.0386829
0.0363207
0.0331277
0.0294662
0.0509131
0.0573323
0.0593148
0.0560089
0.0495201
0.0428191
0.037301
0.05626
0.0598916
0.0645483
0.0581248
0.0547123
0.0462596
0.0391658
0.0579278
0.0631997
0.0618453
0.0628005
0.057282
0.0479164
0.0399721
0.0551342
0.0601332
0.0616187
0.0591304
0.054425
0.0461259
0.038948
0.0493848
0.0537577
0.0564114
0.0535661
0.0483238
0.042134
0.036491
0.0428945
0.0460962
0.0475454
0.0457173
0.0419468
0.037666
0.0334137
0.0373829
0.0394163
0.0400258
0.0388997
0.0364902
0.0334889
0.0301349
0.0499629
0.0567704
0.0600402
0.0546036
0.0477089
0.0417118
0.0373868
0.05588
0.0586808
0.0568347
0.0575825
0.0528173
0.0447562
0.038825
0.0580229
0.0564639
0.0566868
0.0562897
0.0563702
0.0465964
0.0395696
0.0551242
0.0548625
0.0560208
0.0559498
0.0530007
0.0449366
0.0386464
0.0487717
0.0531466
0.0544156
0.0520436
0.0467909
0.0412422
0.0364691
0.0423014
0.0455062
0.0468036
0.0446523
0.0410445
0.0373689
0.0338959
0.037335
0.0390506
0.039674
0.0385533
0.036442
0.0339953
0.0312465
0.0467399
0.0521297
0.0548046
0.0498296
0.0443257
0.0397711
0.0371316
0.0519182
0.0550922
0.0537349
0.0533468
0.0479718
0.0417716
0.0381065
0.0556316
0.0556624
0.0548356
0.0534096
0.0511685
0.0434363
0.0387364
0.0525341
0.0527066
0.0529233
0.0527731
0.0487812
0.042371
0.0380686
0.0460222
0.0501483
0.0519293
0.0483303
0.0437463
0.0396199
0.0364814
0.0402941
0.0425031
0.0441111
0.0420419
0.0392553
0.0368392
0.0347086
0.0364173
0.0376861
0.0383477
0.0374747
0.0360093
0.0346606
0.0328884
0.0428957
0.0465056
0.0481285
0.0448033
0.0404102
0.0370539
0.036014
0.0468564
0.0518321
0.0529823
0.0495402
0.0429915
0.0382982
0.0365215
0.050571
0.0490741
0.0522236
0.0517369
0.0450634
0.0396546
0.037507
0.0473304
0.049666
0.0468133
0.0492227
0.0434161
0.0391596
0.0372678
0.042067
0.0452661
0.0470059
0.0436808
0.0398812
0.0373219
0.0363562
0.0374755
0.0390093
0.0399936
0.0385339
0.0365902
0.0355328
0.0359246
0.0345943
0.0354428
0.0362025
0.035521
0.0345435
0.0343151
0.0349282
0.0393316
0.041694
0.0426429
0.0401155
0.0366552
0.0342513
0.0339843
0.0421511
0.0462374
0.0482097
0.0437258
0.0383563
0.0351013
0.0346195
0.0445721
0.0472201
0.0451223
0.0463619
0.039694
0.0361295
0.0355096
0.0425964
0.0461289
0.0461444
0.0436885
0.0386012
0.0358687
0.0356475
0.0385146
0.0406215
0.0414808
0.0390019
0.0360426
0.0344746
0.0350659
0.0347892
0.0360493
0.0363009
0.0351469
0.0335914
0.0330012
0.0337068
0.0325648
0.0333912
0.0337343
0.033193
0.0323569
0.0333144
0.0342838
0.0365884
0.0382216
0.0387948
0.0366204
0.0337281
0.032016
0.0335231
0.0387706
0.0412152
0.0417931
0.0386741
0.0347694
0.0325811
0.0332328
0.0408445
0.0440304
0.0419721
0.0399944
0.0356158
0.0333376
0.0342244
0.0395059
0.0416996
0.0419918
0.0385928
0.0348227
0.0329717
0.0341276
0.0357761
0.0372697
0.0375242
0.0353217
0.0328904
0.0316919
0.0326141
0.0324277
0.0332502
0.0334273
0.0324103
0.0311475
0.030942
0.0325335
0.0307846
0.0312187
0.0315494
0.0310423
0.0306484
0.0310601
0.0350795
0.0347131
0.0362588
0.0367897
0.0345616
0.0318342
0.0306425
0.0329121
0.0368291
0.0393492
0.039586
0.0361229
0.0325083
0.0308996
0.0314288
0.0384549
0.0413031
0.0407105
0.0370342
0.0330347
0.0311917
0.0311169
0.0369414
0.0392561
0.0389148
0.035653
0.0322542
0.0307051
0.0305949
0.0336219
0.0350354
0.0350386
0.032942
0.0306958
0.0299078
0.0307443
0.0304628
0.0311774
0.0314295
0.0305373
0.02958
0.029289
0.0326247
0.0292845
0.0295705
0.0297161
0.0295885
0.0299265
0.0308022
0.0349932
0.033375
0.0353768
0.035771
0.0331326
0.0302765
0.0285134
0.0317159
0.0361258
0.0395012
0.0391605
0.0347589
0.0306337
0.0285016
0.0309337
0.037926
0.0400196
0.0384711
0.0354182
0.0309433
0.0288095
0.0304944
0.0360357
0.038678
0.0367332
0.0340408
0.0302684
0.0284797
0.030192
0.032149
0.0338061
0.0339641
0.0315563
0.0291108
0.0274733
0.0303319
0.0285995
0.0295209
0.0301938
0.0294537
0.0282226
0.0270976
0.0317414
0.0263525
0.0276571
0.0289868
0.0289506
0.0276685
0.0300833
0.0325684
0.0326931
0.0360969
0.0359769
0.0320194
0.0280964
0.0262212
0.0266387
0.0366904
0.037794
0.0370456
0.0343086
0.0293381
0.0260881
0.0271891
0.0386807
0.0353699
0.0362933
0.034836
0.0293908
0.0260526
0.027421
0.03609
0.036861
0.0359435
0.0326071
0.0286108
0.0252045
0.0273112
0.0310334
0.0335714
0.0331885
0.0303362
0.0263675
0.0244525
0.0269029
0.0270135
0.0285074
0.0290367
0.0272789
0.0242082
0.0250238
0.0268903
0.0244259
0.0252969
0.0266655
0.0255692
0.0256753
0.027324
0.0246618
0.00802614
0.00310918
0.0209171
0.017313
0.0139829
0.0107702
0.0074713
0.00277517
0.0294606
0.0246273
0.0204915
0.0168129
0.0133908
0.0100907
0.00677812
0.00239818
0.0280312
0.0235557
0.0196357
0.0160428
0.0126215
0.00928411
0.00598702
0.00199651
0.0258827
0.0220466
0.0185203
0.0151402
0.0118149
0.00851404
0.0052701
0.00165819
0.0234962
0.0204406
0.0173764
0.014277
0.0111385
0.00798247
0.00487797
0.00152942
0.0276765
0.0243909
0.0212867
0.0182876
0.0153123
0.0122649
0.00887855
0.00350913
0.0294086
0.0252693
0.0216514
0.0183144
0.0150914
0.0118532
0.00838572
0.00315941
0.0302777
0.0256228
0.021655
0.0180701
0.0146599
0.0112729
0.00773776
0.00276099
0.0299205
0.0251902
0.0211343
0.0174586
0.0139513
0.0104731
0.00692061
0.00232689
0.0283728
0.0239916
0.0201176
0.0165055
0.0129883
0.00947512
0.00596089
0.00186448
0.0261078
0.022317
0.0187926
0.0153568
0.0119116
0.00843972
0.00500778
0.00145338
0.0235868
0.0205132
0.0174016
0.0142062
0.01093
0.00759999
0.00433997
0.00122246
0.0285323
0.0252953
0.0221686
0.0190734
0.0159346
0.0126761
0.00907796
0.00348977
0.0301731
0.0261323
0.0225187
0.0190958
0.0157008
0.0122198
0.00849682
0.00305289
0.0309522
0.0264175
0.0224684
0.0188073
0.0152237
0.0115681
0.00773478
0.00258122
0.0304713
0.0258724
0.0218369
0.018082
0.0144008
0.010654
0.00679036
0.0021038
0.0288267
0.0245371
0.0206484
0.0169371
0.0132442
0.0094844
0.00568631
0.00161468
0.0264789
0.0226923
0.0190974
0.0155289
0.0119066
0.0082144
0.00455024
0.00117822
0.0238089
0.0206658
0.017435
0.0140871
0.010628
0.00710039
0.00368148
0.000911255
0.0293589
0.0261411
0.0229449
0.0197031
0.016352
0.0128466
0.00902783
0.00332858
0.030896
0.0269431
0.0232857
0.0197197
0.0160964
0.0123198
0.0083043
0.00277973
0.0315511
0.0271621
0.0231917
0.0193927
0.0155684
0.0115843
0.00740334
0.00223997
0.0309885
0.0265214
0.0224571
0.0185582
0.0146348
0.0105617
0.00634314
0.0017481
0.0293007
0.0250663
0.0211027
0.0172259
0.0133033
0.00925017
0.00513282
0.0012818
0.026888
0.0230471
0.0193174
0.0155763
0.0117362
0.00778688
0.00388839
0.000880642
0.0240494
0.0207782
0.0173915
0.0138638
0.0102043
0.00647605
0.00293632
0.000644265
0.0301007
0.0268526
0.0235554
0.0201505
0.0165793
0.0127994
0.00872742
0.00302559
0.0315779
0.0276352
0.0238868
0.0201514
0.0162832
0.0121791
0.00780915
0.00236476
0.0321374
0.0278045
0.0237554
0.0197781
0.0156849
0.0113416
0.00675213
0.00179723
0.0314997
0.0270817
0.0229306
0.0188429
0.0146397
0.0102089
0.00560373
0.00134083
0.0297528
0.0255018
0.0214231
0.0173493
0.0131504
0.00877192
0.00435665
0.000945688
0.0272353
0.0233085
0.0194377
0.015488
0.0113921
0.00716645
0.00311555
0.000630019
0.0242181
0.0208296
0.0172866
0.013573
0.00969402
0.00574594
0.00220283
0.000461718
0.0307984
0.027472
0.0240604
0.0204885
0.0166786
0.0125818
0.00819003
0.00259917
0.032265
0.0282427
0.0243709
0.0204543
0.0163183
0.0118437
0.00704738
0.0018733
0.0327722
0.0283758
0.0241964
0.0200123
0.0156152
0.010874
0.00584696
0.00133876
0.0320572
0.0275753
0.0232816
0.0189628
0.0144379
0.00962307
0.00467539
0.0009679
0.0302145
0.0258729
0.0216313
0.0173185
0.0128095
0.00809055
0.00349459
0.000678075
0.027563
0.0235198
0.0194809
0.0153042
0.0109262
0.00641834
0.00237528
0.00046268
0.0243902
0.0208959
0.0172074
0.0132864
0.00915086
0.00496982
0.00159205
0.000361806
0.0314514
0.0280828
0.0245669
0.020828
0.0167462
0.0122599
0.00743141
0.0020809
0.0328946
0.0287839
0.0248137
0.0207212
0.0162822
0.0113754
0.00608526
0.00138341
0.033392
0.0288781
0.0245689
0.0201645
0.0154185
0.0102296
0.00480793
0.000947633
0.0326107
0.0280068
0.0235539
0.0189794
0.0140906
0.00885827
0.00371046
0.000688271
0.0306495
0.0261926
0.0217871
0.0172148
0.0123626
0.00729298
0.00269645
0.000501432
0.0278738
0.0237469
0.0195539
0.0151293
0.0104331
0.00563434
0.00176929
0.00036724
0.0246577
0.0210967
0.0172612
0.0130996
0.00865402
0.00422493
0.00114654
0.000313335
0.0320916
0.0287611
0.0252165
0.0212924
0.0168374
0.0118165
0.00638791
0.00150373
0.0334402
0.0293593
0.0253618
0.0210675
0.016221
0.0107529
0.00494958
0.000948621
0.0339111
0.0293685
0.0249793
0.0203211
0.0151347
0.00940417
0.00374043
0.000657328
0.0330682
0.0284178
0.0238392
0.0189737
0.013652
0.00795994
0.00282669
0.000504356
0.0310353
0.0265513
0.0220041
0.0171339
0.0118789
0.00644327
0.00203372
0.000395272
0.0282647
0.0241272
0.0197865
0.0150629
0.00997377
0.00485905
0.00130841
0.00031435
0.0251422
0.0215599
0.0175638
0.0130898
0.00823126
0.0035254
0.000834955
0.000288329
0.0333216
0.0299349
0.0262416
0.0219333
0.0168557
0.0110666
0.00498853
0.000951066
0.0340251
0.0302034
0.0261766
0.0215252
0.0160491
0.00981593
0.00368592
0.000614521
0.034326
0.0299844
0.0255353
0.0204982
0.014708
0.00832883
0.00272727
0.000465827
0.0334338
0.0289244
0.0242271
0.0189664
0.0130954
0.00691711
0.00207078
0.00039149
0.0314519
0.0270764
0.02237
0.0170986
0.0113356
0.00552801
0.00150412
0.000331548
0.0288637
0.0247884
0.0202526
0.0151053
0.00948344
0.00405342
0.000959155
0.000282561
0.0259923
0.0223993
0.0181567
0.0132073
0.00775122
0.00281204
0.00061478
0.000272181
0.0340678
0.0314537
0.0275285
0.0225343
0.0165074
0.0097005
0.00336765
0.000548956
0.0347703
0.0314033
0.0272388
0.0219322
0.0155233
0.00836642
0.00244891
0.000406389
0.0348289
0.0308686
0.0262327
0.0205631
0.0139528
0.0069228
0.00186064
0.00035496
0.0338998
0.0296531
0.0247093
0.0188459
0.0122735
0.00569052
0.00146887
0.000326105
0.0320894
0.0278729
0.022866
0.016996
0.0105842
0.00451338
0.00109774
0.000292301
0.0298314
0.0258002
0.0208967
0.0150951
0.00875012
0.00316653
0.000700569
0.000260916
0.0273169
0.0236218
0.0189108
0.0132127
0.00696106
0.00206988
0.000466685
0.000258497
0.0353557
0.0336033
0.0288141
0.0226288
0.015324
0.00751675
0.00190713
0.000345007
0.0361176
0.0330317
0.0282543
0.0218502
0.0142456
0.00636377
0.00146853
0.000304319
0.0355792
0.0319282
0.0267882
0.0201655
0.0125735
0.00525356
0.0012337
0.000299097
0.034556
0.0305046
0.0250469
0.0183308
0.010966
0.00436122
0.00105057
0.000290833
0.033035
0.0288545
0.0232712
0.0165594
0.00940215
0.00344927
0.000817938
0.000268161
0.0313066
0.0270546
0.0214464
0.0146789
0.00751042
0.00225868
0.000530344
0.000244594
0.0290564
0.0249751
0.01941
0.0126652
0.0056483
0.00137166
0.000377424
0.000245065
0.0364441
0.0349654
0.0290853
0.0214406
0.0128642
0.00488071
0.000976779
0.000268877
0.0364181
0.0343233
0.0284683
0.0206833
0.0118974
0.00424367
0.0008905
0.000261949
0.0365455
0.0327348
0.0267114
0.018919
0.0104415
0.0036908
0.000888067
0.000271223
0.0355684
0.0312149
0.0248967
0.0171585
0.00913036
0.00318887
0.000822969
0.000269541
0.0345441
0.0297941
0.0232585
0.0154839
0.00775674
0.00252379
0.000662977
0.00025283
0.0329469
0.0281983
0.021434
0.0134607
0.00581485
0.00153493
0.000441559
0.000232171
0.0307651
0.0257955
0.0189703
0.0110196
0.00388918
0.000861284
0.000332468
0.000232409
0.0367902
0.0354488
0.0281239
0.0189387
0.00943927
0.00274081
0.000572636
0.000241527
0.035553
0.0345192
0.0273857
0.0181817
0.00881673
0.00268401
0.000626311
0.000241561
0.0357096
0.0327203
0.0255729
0.0165881
0.00796283
0.00262821
0.000699777
0.000252537
0.0354309
0.0312722
0.0238889
0.0150969
0.00712606
0.00239484
0.000679478
0.000252039
0.0343293
0.0301624
0.0223537
0.0134794
0.00598101
0.00188352
0.000559662
0.000238632
0.0334974
0.0285119
0.0202196
0.0110929
0.00406909
0.00108616
0.00039134
0.000221496
0.0313808
0.0253427
0.0170959
0.00824599
0.00230386
0.000606262
0.00031319
0.000221738
0.0365774
0.0336372
0.0249142
0.0147614
0.00592079
0.00151224
0.000419177
0.000227336
0.03562
0.0332066
0.0243585
0.0143257
0.00596786
0.00170295
0.000484823
0.000227372
0.034954
0.0318904
0.022971
0.0133645
0.0058211
0.00186684
0.000566851
0.000236622
0.0342445
0.0305863
0.0216099
0.0123341
0.00536913
0.00176553
0.000562462
0.00023617
0.0339522
0.029553
0.020013
0.010824
0.0043794
0.00137038
0.000474034
0.000225454
0.0333953
0.0271965
0.0172545
0.00812412
0.00267986
0.000797639
0.000355828
0.000212698
0.0305439
0.0230855
0.0135456
0.00514878
0.00135539
0.000494816
0.000300716
0.00021315
0.0343435
0.0292915
0.019631
0.00995591
0.00339868
0.000927995
0.000352929
0.000220648
0.0346097
0.0293159
0.0194727
0.0100576
0.00375576
0.00112175
0.0004044
0.000218976
0.0346017
0.0287807
0.0188223
0.0098747
0.00398282
0.00130896
0.00046934
0.000224338
0.0341473
0.0280366
0.017959
0.0093161
0.00377174
0.00126513
0.000469453
0.000223459
0.0333987
0.0266544
0.0163218
0.00796704
0.00300895
0.000995609
0.000410383
0.000216177
0.031734
0.0234833
0.0131564
0.0054658
0.00178622
0.000633773
0.000331784
0.000207996
0.0275585
0.0186814
0.00911757
0.00302355
0.00092997
0.000443627
0.000291606
0.00020896
0.0295179
0.0226559
0.0135733
0.00599691
0.00198132
0.000661579
0.000318109
0.000220376
0.0308504
0.0231672
0.0138439
0.00646036
0.00234463
0.000797487
0.000353373
0.000216898
0.0315127
0.0233275
0.0139007
0.00673873
0.00262975
0.000933561
0.000397841
0.000218627
0.0312573
0.0229824
0.0134747
0.00646715
0.00252263
0.000910403
0.000399672
0.000217317
0.0300433
0.0214408
0.0119919
0.0054088
0.0020075
0.000745432
0.000363539
0.000213063
0.0274873
0.0180275
0.00907464
0.00356843
0.00124794
0.000531535
0.000312484
0.000208756
0.0223599
0.0131475
0.00564965
0.00192572
0.000733623
0.000411477
0.000282503
0.000210578
0.021999
0.0151494
0.008207
0.00342499
0.00122765
0.00050949
0.000290453
0.000228913
0.0235914
0.0159813
0.00883105
0.00393224
0.00147777
0.00058873
0.00031296
0.000222629
0.0247342
0.0166096
0.00926391
0.00429122
0.00168757
0.000670382
0.000341265
0.000221073
0.0248107
0.0164361
0.00899733
0.0041052
0.00161087
0.000654868
0.00034349
0.000219592
0.023439
0.0149578
0.00777716
0.00335893
0.00129178
0.000562585
0.000322691
0.0002173
0.0201998
0.0118867
0.00558846
0.00221275
0.000869085
0.000448306
0.000291418
0.000216799
0.0151595
0.00800292
0.00333829
0.00127531
0.000588387
0.00037795
0.000268993
0.000221314
0.0304326
0.0277561
0.0255246
0.0229772
0.0198471
0.0162617
0.0120019
0.00487195
0.0350107
0.0308932
0.0274501
0.0242303
0.0207926
0.0169978
0.0125389
0.00512406
0.0407022
0.0346328
0.0298282
0.0257086
0.0217355
0.0176345
0.0129619
0.00535283
0.0454187
0.0377118
0.0317219
0.0268573
0.0224855
0.0181723
0.0133674
0.0056017
0.0458976
0.0378901
0.0317893
0.0269922
0.0226314
0.0183508
0.0135692
0.00578951
0.0416047
0.0350525
0.0300223
0.0259877
0.022058
0.0180416
0.0134336
0.00585844
0.0363047
0.0317168
0.0278431
0.0244288
0.0210393
0.0173527
0.012991
0.00578659
0.0310967
0.0284189
0.0259513
0.022937
0.0195423
0.0158267
0.0115515
0.00460476
0.035256
0.031254
0.027817
0.0243915
0.0207442
0.0168234
0.0123223
0.00497512
0.0405691
0.0349268
0.030175
0.0259355
0.02185
0.0176594
0.0129362
0.00529699
0.0454166
0.0379136
0.0320547
0.0271575
0.0227037
0.0183145
0.0134487
0.00559822
0.0462669
0.0382933
0.0322353
0.0273253
0.0228873
0.0185223
0.0136681
0.00580307
0.0419699
0.0356106
0.0306038
0.0263914
0.0223194
0.0181889
0.0135064
0.00587373
0.0368632
0.032371
0.028433
0.0249324
0.0213462
0.0175288
0.0130877
0.00582367
0.0313818
0.028871
0.0260646
0.0227852
0.0192188
0.015425
0.0111594
0.00440042
0.0352571
0.0315891
0.0282013
0.0245889
0.0207848
0.0167707
0.0122278
0.00489738
0.0399284
0.0348474
0.0304308
0.0262699
0.0221321
0.0178721
0.01308
0.00532061
0.0442514
0.0376661
0.03228
0.0275586
0.0231155
0.0186672
0.0137082
0.0056714
0.0453303
0.0381806
0.0325887
0.0277987
0.0233382
0.0188907
0.0139292
0.00588297
0.0416509
0.0359324
0.0311643
0.0268842
0.0227442
0.0185057
0.013707
0.00593328
0.0371209
0.0329076
0.0291084
0.0254864
0.0217689
0.0178264
0.0132743
0.00588504
0.0318618
0.0292389
0.0260708
0.0226338
0.0190231
0.0152497
0.011032
0.00434957
0.0354987
0.0320975
0.0285498
0.0248315
0.0209744
0.0169354
0.0123628
0.00493752
0.0395577
0.0351205
0.0309301
0.0267928
0.0226297
0.0183243
0.0134457
0.00544402
0.0431419
0.0376185
0.032758
0.0282038
0.0237715
0.0192624
0.0141796
0.00583398
0.0441913
0.0382341
0.0331681
0.0285157
0.0240261
0.0194833
0.0143773
0.00603803
0.0415726
0.036542
0.0319768
0.0276587
0.0233874
0.0190061
0.0140552
0.00605186
0.0377454
0.0338073
0.0301028
0.026285
0.0223721
0.0182676
0.0135638
0.00598003
0.032279
0.0293264
0.0261193
0.0227302
0.0192167
0.0155265
0.0113213
0.00448026
0.0360515
0.032603
0.0289914
0.0252852
0.0214748
0.0174596
0.0128315
0.00511592
0.0399727
0.0357411
0.0316679
0.0275702
0.0234233
0.0190904
0.0140949
0.00567431
0.0432959
0.0383017
0.0336687
0.0291682
0.0247219
0.0201484
0.0149131
0.00608995
0.0444003
0.0390528
0.0341824
0.0295301
0.0249753
0.0203343
0.0150617
0.00627689
0.0424187
0.0375754
0.0330635
0.0286278
0.0242155
0.0196956
0.0145721
0.00622946
0.0388582
0.0350162
0.0311719
0.0271732
0.0230705
0.0187947
0.0139102
0.0060917
0.0327937
0.029737
0.0265942
0.0233567
0.0199691
0.0163101
0.0120006
0.00473686
0.0369513
0.033308
0.0297185
0.0261186
0.0224067
0.0183986
0.0136332
0.00539247
0.0411681
0.0369394
0.0327452
0.0286697
0.0245659
0.0202017
0.0150296
0.00597732
0.0446771
0.0396743
0.034955
0.0304394
0.0259914
0.0213599
0.0159292
0.00641685
0.0460186
0.0405907
0.0355749
0.0308262
0.026222
0.0215045
0.0160404
0.0066001
0.0442461
0.0391495
0.03437
0.0297789
0.0252689
0.0206396
0.0153307
0.00648174
0.0407417
0.0365876
0.0323641
0.028144
0.0238812
0.0194516
0.0143744
0.00623396
0.0334074
0.0304944
0.0275903
0.0245585
0.0212489
0.0174919
0.0129131
0.00500881
0.0378977
0.0341957
0.0307543
0.027356
0.0237481
0.0196624
0.014625
0.00565738
0.042655
0.038114
0.0339551
0.0300193
0.0260086
0.0215676
0.0161087
0.00624162
0.0467205
0.0413231
0.0364093
0.0319195
0.0275329
0.0228332
0.0171261
0.00672109
0.0484161
0.0424367
0.037112
0.0323166
0.0277505
0.0229861
0.0172814
0.00695249
0.046547
0.0409181
0.0357839
0.0310921
0.0265764
0.0218986
0.0163874
0.00680844
0.042606
0.0380105
0.0335273
0.0291982
0.0248852
0.0203602
0.0150774
0.00644228
0.0342063
0.0316541
0.0291316
0.0263232
0.0229678
0.0188891
0.0138058
0.00513995
0.0385423
0.0350811
0.0320366
0.0289592
0.0254088
0.0210564
0.01552
0.00572282
0.0436643
0.0390349
0.0351504
0.0315461
0.0276466
0.0229708
0.0170109
0.00625731
0.0484387
0.0425405
0.0376919
0.0334771
0.0292344
0.0243552
0.0181781
0.00678848
0.0505052
0.0438413
0.0384479
0.0338896
0.0295014
0.0246451
0.0185477
0.00716591
0.0481983
0.0421174
0.0369965
0.0325351
0.0282093
0.0234904
0.0176697
0.00713577
0.0438291
0.0389804
0.0346139
0.0304747
0.0262647
0.0216638
0.0160984
0.00672943
0.0350254
0.0333447
0.03148
0.0287406
0.0250535
0.0202695
0.0143229
0.00493522
0.0385806
0.0358754
0.0335926
0.0309478
0.0272893
0.0222986
0.0158815
0.00536832
0.0433825
0.0394052
0.0363179
0.0332434
0.0293429
0.0240554
0.0171976
0.00577607
0.0483237
0.0427931
0.0387149
0.0350807
0.030951
0.0255391
0.018506
0.00634176
0.0504372
0.0441058
0.0395031
0.0355817
0.0314009
0.0261695
0.0193383
0.00695586
0.0478968
0.0423463
0.0380775
0.0343206
0.0302394
0.0253128
0.0189308
0.00729516
0.043724
0.0395516
0.0360066
0.0325535
0.0283582
0.0235129
0.0174536
0.00705873
0.0352064
0.034844
0.0343623
0.0317402
0.0272994
0.0212829
0.0139774
0.00419683
0.0377353
0.036205
0.0352311
0.0335167
0.0291675
0.0229773
0.0151721
0.00444359
0.0417548
0.0390172
0.0372095
0.0352778
0.0307875
0.0242823
0.0160479
0.00466789
0.0461769
0.0419947
0.039344
0.0368984
0.0323354
0.0257525
0.017395
0.00523583
0.0482291
0.0432691
0.0402651
0.0375904
0.0332175
0.0269947
0.0189654
0.00612285
0.045619
0.0418214
0.0394482
0.0369916
0.0327297
0.0271215
0.0198015
0.00706874
0.0424585
0.0401035
0.038565
0.0357748
0.0313792
0.0260603
0.0192486
0.00742164
0.0340496
0.0343457
0.0351524
0.0349558
0.0291658
0.0213415
0.0121343
0.00294562
0.0360154
0.035544
0.0358854
0.0347784
0.0302917
0.022609
0.0129927
0.00310469
0.0392953
0.0378133
0.036984
0.035226
0.0309612
0.0231279
0.0133569
0.00319984
0.0427317
0.0403482
0.0388191
0.0367921
0.0322879
0.0244217
0.0146649
0.00369823
0.0443392
0.0414392
0.0399429
0.0383817
0.0338658
0.0263919
0.0169724
0.00472995
0.0424421
0.04047
0.0399995
0.0392558
0.034913
0.0282187
0.0196152
0.00628375
0.0402231
0.0391432
0.0389818
0.0395576
0.0353859
0.0289303
0.0208752
0.00742516
0.0323199
0.0327462
0.0356514
0.0360771
0.0293616
0.0194484
0.00875941
0.00168767
0.0338866
0.0338651
0.0350574
0.0354277
0.0305942
0.0207039
0.00948826
0.0018272
0.036979
0.0366592
0.0371809
0.0357186
0.0302701
0.0207408
0.0097428
0.00190634
0.0399447
0.0391704
0.0389658
0.0369877
0.0313582
0.0219827
0.0109993
0.00227049
0.0410769
0.0400159
0.0399952
0.0386857
0.0335579
0.024565
0.0136949
0.0031615
0.0396036
0.0389924
0.0399241
0.0397925
0.0363037
0.0281255
0.0178743
0.00495105
0.0379841
0.0377473
0.0385975
0.0416937
0.0391
0.0307616
0.0209067
0.00660088
0.0310488
0.0323894
0.0360285
0.0351148
0.0265459
0.015123
0.00508564
0.000819076
0.0319188
0.0322426
0.0337546
0.035545
0.028277
0.0164763
0.00583455
0.000969981
0.0347327
0.0349957
0.0373367
0.0357559
0.0280807
0.0167776
0.00616915
0.00108422
0.0376988
0.038019
0.0399271
0.0370047
0.0292391
0.0182106
0.00723152
0.00130646
0.0387223
0.0389735
0.0409706
0.0389215
0.0321031
0.0213775
0.00971082
0.00187719
0.0372238
0.0371926
0.0392536
0.0413628
0.0367187
0.0262307
0.0142196
0.00333481
0.0359461
0.0362514
0.0385614
0.0422293
0.0401277
0.0299552
0.0182075
0.00504342
0.0292697
0.0313177
0.0345798
0.0307181
0.0203414
0.00906326
0.00222749
0.000398616
0.0300244
0.0305886
0.0329458
0.0328586
0.022981
0.011066
0.00311561
0.000540323
0.0325405
0.0324157
0.0330986
0.0337308
0.0237741
0.0118509
0.00365845
0.000666917
0.0354712
0.0352113
0.0362771
0.035116
0.0253354
0.013447
0.00442518
0.000815533
0.0366078
0.036393
0.0380625
0.0381229
0.0287774
0.0166334
0.00611448
0.00112077
0.0353587
0.0352464
0.0368884
0.0408338
0.033828
0.0217157
0.00961739
0.00193759
0.034046
0.0344622
0.0377421
0.0422093
0.0376904
0.0259597
0.0133802
0.00315457
0.0270742
0.0291579
0.0287093
0.0226979
0.0121232
0.00398872
0.000880863
0.000272436
0.0278538
0.0273707
0.0300416
0.0270425
0.0159063
0.0062549
0.00157576
0.000361778
0.0305739
0.0302626
0.031167
0.0295528
0.0178345
0.00765593
0.0021881
0.000473618
0.0336872
0.0331154
0.0330738
0.0315588
0.0200075
0.00905795
0.00275884
0.000578654
0.0350344
0.0345613
0.0350958
0.0346582
0.0232886
0.0114815
0.00369403
0.000729737
0.0339179
0.033851
0.036093
0.0375429
0.0277958
0.0155344
0.00556253
0.00105214
0.0323129
0.0323153
0.0351489
0.0375827
0.0311301
0.0191564
0.00794001
0.00161776
0.0241505
0.0237027
0.0205581
0.0127311
0.00536861
0.00156318
0.000449582
0.000251686
0.0249049
0.0247154
0.024283
0.0178459
0.00884399
0.00306726
0.000818618
0.000290418
0.0285879
0.0263339
0.0272101
0.0219195
0.0117435
0.00464318
0.0013363
0.000368976
0.0319475
0.0298913
0.0298502
0.0251057
0.0140512
0.00591977
0.0017961
0.000449032
0.0334043
0.0309339
0.031936
0.0279889
0.0165776
0.007385
0.0022809
0.000526997
0.0323216
0.0299371
0.032166
0.0299755
0.019612
0.00949113
0.00296063
0.000615499
0.0303582
0.0293683
0.0310652
0.0284595
0.021459
0.0113108
0.00371518
0.000732772
0.0362873
0.031792
0.0280882
0.0246412
0.0213145
0.0176104
0.0132036
0.00587953
0.0407475
0.034699
0.030195
0.0262233
0.0224463
0.0184052
0.0137186
0.0059385
0.0434027
0.0365883
0.0313132
0.0268902
0.0227367
0.0185123
0.0137259
0.00575878
0.042039
0.0357532
0.0306737
0.0262533
0.0221043
0.017948
0.0132696
0.00543311
0.0380398
0.0328429
0.028421
0.0244165
0.0205888
0.0167119
0.0123321
0.00496025
0.0332916
0.0291241
0.0253995
0.0219088
0.0185054
0.0150217
0.0110633
0.00439974
0.0285459
0.0252871
0.0221987
0.0192065
0.0162267
0.0131459
0.00964345
0.0038531
0.0368596
0.0325369
0.028798
0.0253
0.0217146
0.0178496
0.0133229
0.00588226
0.0412297
0.0353777
0.0309196
0.0269155
0.022996
0.01883
0.014012
0.00600496
0.0438657
0.0372304
0.0320693
0.0276581
0.0234528
0.0191211
0.0141808
0.00589981
0.0424174
0.0364322
0.031515
0.0271292
0.0229254
0.0186452
0.0137885
0.00559205
0.0385532
0.0336265
0.0293304
0.0253332
0.0214235
0.0174005
0.0128273
0.00509805
0.034013
0.0299978
0.0263233
0.0227973
0.019278
0.0156286
0.0114755
0.00449176
0.0294015
0.0261952
0.0230942
0.0200169
0.016895
0.0136322
0.00993693
0.00389236
0.03707
0.0329904
0.0294315
0.0258943
0.0221566
0.0181606
0.0135189
0.00594231
0.04107
0.0357315
0.0315633
0.0276556
0.0235979
0.0193009
0.0143472
0.00610569
0.0435324
0.0375448
0.0328181
0.0285117
0.0242115
0.0197408
0.0146267
0.00603763
0.0423289
0.0369794
0.0323746
0.0280294
0.0237363
0.0193006
0.0142531
0.00572064
0.038995
0.034444
0.0302639
0.026229
0.0221911
0.017996
0.0132212
0.00517528
0.0347701
0.0308894
0.0272188
0.023606
0.0199388
0.0160928
0.0117327
0.00449538
0.0302389
0.0270556
0.0238975
0.0207022
0.0174027
0.0139248
0.010025
0.00381496
0.0377239
0.0338401
0.0301593
0.0265892
0.0227245
0.0185953
0.0138218
0.00604347
0.0413349
0.0365536
0.0323712
0.0284701
0.0242886
0.0198565
0.0147471
0.00622668
0.0435467
0.0382934
0.0338515
0.0294565
0.0250162
0.0203912
0.0150923
0.00616684
0.0426825
0.0378159
0.0333409
0.0289512
0.024532
0.0199314
0.0146804
0.00580582
0.0396913
0.0353472
0.0311883
0.0270666
0.0228796
0.0184886
0.0135002
0.00517288
0.0355691
0.031742
0.0280271
0.0243002
0.0204569
0.0163893
0.0118105
0.00439373
0.0310079
0.0278035
0.0245683
0.0212321
0.0177326
0.014009
0.00988385
0.00360262
0.0391142
0.0352908
0.0315317
0.0275368
0.0234386
0.019129
0.014172
0.00614837
0.0426917
0.0381069
0.0339796
0.0295486
0.0251116
0.0204952
0.0151956
0.00634555
0.0447465
0.0397531
0.0351192
0.0304999
0.025877
0.0210763