/*--------------------------------*- C++ -*----------------------------------*\
| =========                 |                                                 |
| \\      /  F ield         | OpenFOAM: The Open Source CFD Toolbox           |
|  \\    /   O peration     | Version:  plus.master.MPPICInterFoam            |
|   \\  /    A nd           | Web:      www.OpenFOAM.com                      |
|    \\/     M anipulation  |                                                 |
\*---------------------------------------------------------------------------*/
FoamFile
{
    version     2.0;
    format      ascii;
    class       volScalarField;
    location    "2.6";
    object      p_rgh;
}
// * * * * * * * * * * * * * * * * * * * * * * * * * * * * * * * * * * * * * //

dimensions      [1 -1 -2 0 0 0 0];

internalField   nonuniform List<scalar> 
11821
(
5655.89
5541.61
5644.32
5516.88
5422.76
5633.54
5655.77
5466.55
5193.38
5525.91
5404.69
5365.35
5652.81
5131.02
4132.67
3753.94
4398.97
5500.91
5585.31
5649.38
4555.64
3234.51
2705.95
3572.66
5331.32
5652.64
5593.11
4753.83
3371.27
2707.23
3653.31
5393.36
5653.41
5649.3
5461.25
4621.4
4199.48
4903.47
5610.31
5642.71
5652.55
5662.13
5643.64
5563.55
5646.68
5654.53
5470.73
5629.53
5664.93
5663.65
5663.09
5640.89
5460.28
5451.96
5646.06
5645.29
5356.08
4887.12
5379.72
5360.19
5426.71
5658.31
4902.97
3411.66
2850.68
3655.42
5381.97
5541.71
5657.66
4130.08
2845.18
2625.45
2891.91
5019.47
5660.25
5663.48
4469.36
3047.6
2626.92
3164.83
5188.08
5662.72
5664.61
5390.53
4311.72
3746.57
4605.04
5560.45
5612.57
5648.01
5663.22
5612.28
5509.17
5622.08
5590.12
5471.03
5630.53
5647.27
5662.62
5661.65
5619.17
5459.94
5550.74
5663.73
5653.54
5410.55
4961.16
5402.56
5362.23
5528.23
5670.78
5010.6
3408.01
2702.92
3717.51
5406.39
5541.91
5668.41
4268.79
2563.65
2564.3
2748.93
5066.27
5674.05
5672.13
4634.35
2884.74
2563.68
3114.08
5239.52
5672.15
5669.53
5467.46
4464.83
3860.69
4749.55
5556.81
5529.53
5651.66
5665.83
5640.8
5567.83
5635.82
5494.12
5478.72
5648.32
5438.4
5638
5634.59
5529.16
5480.67
5650.17
5670.96
5654.98
5545.16
5286.18
5476.8
5358.67
5613.56
5675.37
5343.6
3964.64
3138.5
4380.45
5482.54
5582.07
5675.26
4931.39
2656.41
2498.42
3188.63
5356.41
5679.43
5676.16
5188.08
3223.68
2495.87
3600.97
5453.71
5663.1
5672.88
5585.78
5111.97
4667.13
5243.81
5558.87
5522.27
5662.1
5620.32
5645.45
5641.85
5648.58
5495.08
5520.51
5667.29
5016.28
5474.72
5501.69
5574.42
5578.6
5674.48
5670.65
5643.87
5587.23
5478.79
5472.33
5348.06
5660.98
5673.99
5497.79
4681.18
4067.49
4973.57
5517.67
5658.98
5674.43
5445.22
3322.94
2413.13
4163.03
5550.54
5676.54
5674.52
5528.71
4132.51
2697.33
4439.33
5564.01
5661.88
5672.35
5601.83
5508.35
5430.04
5520.79
5556.01
5536.47
5673.1
5485.36
5623.21
5649.62
5663.7
5505.09
5602.81
5669.48
4996.37
5069.61
5438.41
5631.85
5671.35
5673.06
5654.03
5598.87
5563.41
5462.94
5422.14
5349.32
5670.41
5669.62
5462.68
4736.19
4397.12
4891.76
5507.27
5670.88
5669.92
5486.25
3922.84
2323.58
4525.8
5548.57
5671.12
5669.9
5545.35
4556.46
3296.84
4668.32
5560.32
5669.56
5669.34
5599.98
5507.45
5552.3
5524.65
5436.68
5620.22
5669.46
5393.49
5556.7
5642.7
5669.77
5550.54
5649.74
5665.1
5067.55
5053.23
5461.66
5659.43
5669.68
5666.18
5648.98
5537.9
5454.43
5253.39
5286.94
5343.77
5659.98
5660.93
5273.45
4350.2
4203.57
4273.71
5418.29
5659.04
5660.46
5285.49
3814.24
2243.27
4326.85
5397.97
5658.65
5660.12
5430.68
4391.27
3338.29
4462.61
5498.28
5658.93
5660.25
5566.1
5389.07
5427.87
5431.28
5380.52
5655.11
5660.71
5403.7
5544.99
5639.04
5658.37
5557.69
5656.26
5657.24
5315.23
5100.48
5503.59
5660.24
5660.45
5656.78
5641.25
5502.49
5164.11
4626.06
5024.44
5326.88
5642.06
5596.59
4854.8
3306.04
3441.48
3200.24
5140.79
5645.74
5646.6
4448.48
3254.43
2159.06
3525.31
4941.03
5644.56
5649.52
4955.12
3676.64
2931.91
3714.9
5297.38
5645.39
5650.01
5501.15
4978.8
4814.29
5127.03
5358.34
5647.44
5651.08
5439.1
5550.01
5622.16
5643.85
5554
5649.48
5650.65
5494.89
5225.24
5532.13
5648.62
5650.08
5650.32
5637.62
5479.4
4920.32
4205.76
4870.23
5368.98
5641.22
5455.39
4581.06
2467.07
2273.84
2739.47
4959.68
5645.65
5629.42
3539.27
2225.47
2081.15
2431.36
4623.6
5645.07
5648.05
4350.31
2509.15
2181.58
2817.29
5096.18
5645.3
5648.37
5446.68
4451.17
3818.95
4801.88
5374.77
5645.46
5649.05
5444.07
5512.38
5607.08
5643.76
5585.64
5647.56
5649.91
5551.66
5207.41
5564.75
5646.43
5646.98
5648.56
5648.63
5507.48
5044.8
4466.89
5065.75
5525.5
5640.09
5238.14
4752.64
2578.91
2138.82
3077.66
5131.3
5649.73
5573.71
3596.41
2024.52
2024.22
2426.54
4817.02
5651.23
5647.78
4421.54
2241.47
2024.37
2864.23
5187.91
5654.2
5653.07
5483.15
4521.05
3704.86
4865.59
5487.95
5652.73
5652.92
5454.15
5262.19
5617.83
5653.28
5636.7
5647.74
5652.6
5575.96
5194.76
5587.67
5651.24
5646.25
5641.65
5652.02
5579.82
5412.67
5205.53
5476.16
5625.42
5600.24
4671.04
5255.34
3674.4
3029.2
4476.43
5490.67
5644.59
5408.2
4422.68
2051.92
1957.47
3343.47
5343.4
5649.95
5599.67
5031.69
2853.89
2089.42
3855.75
5472.47
5653.29
5651.55
5573.5
5098.15
4429.8
5232.66
5609.03
5650.56
5647.48
5498.6
5233.39
5626.78
5652.81
5648.69
5625.48
5546.71
5570.84
5237.66
5607.61
5649.9
5643.58
5571.99
5413.05
5608.48
5594.14
5593.92
5628.19
5627.28
5422.93
3662.08
5532.84
5053.97
4744.66
5394.1
5631.82
5638.62
5112.6
5318.21
2872.38
1866.47
4826.81
5611.61
5641.63
5500.25
5566.17
4415.48
3153.72
5131.4
5623.37
5642.32
5615.73
5600.94
5558.61
5345.41
5409.19
5639.17
5639.16
5462.13
5585.56
5554.69
5607.57
5642.62
5641.11
5563.07
4317.45
5529.2
5535.33
5629.64
5643.4
5623.53
5108.33
4099.69
5600.12
5598.08
5600.03
5626.54
5625.27
5161.52
3478.04
5529.07
5413.7
5303.48
5128.1
5628.85
5620.67
4417.3
5329.8
4120.22
2139.48
5368.45
5634
5635.72
5233.27
5517.31
5225.57
4319.21
5335.53
5635.15
5632.34
5220.2
5582.68
5406.6
5391.22
5443.26
5636.09
5595.26
4377.52
5615.95
5629.09
5614.6
5637.43
5636.68
5294.14
3411.53
5392.9
5549.05
5623.09
5623.08
5484.93
3818.02
3687.62
5593.75
5589.6
5482.73
5626.76
5626.59
4804.55
3430.47
5493.87
5365.05
5202.77
4935.87
5627.89
5479.43
3436.65
4985.78
4347.74
2801.68
5354.69
5630.88
5533.03
3839.89
5051.81
5156.91
4246.46
5205.22
5632.84
5535.31
3669.01
5578.91
5101.64
5138.4
5552.35
5635.29
5366.84
3356.53
5620.74
5634.74
5637.76
5638.17
5609.69
4226.83
3347.98
4912.45
5373.99
5570.05
5533.13
4934.24
3261.17
3739.15
5553.42
5565.32
5300.88
5630.63
5558.13
3846.99
3385.82
5491.67
5022.76
4774.48
4944.59
5631.66
4568.96
3369.64
4883.34
3857.94
2778.48
5327.41
5633.91
4671.41
3332.98
4816.89
4775.21
3818.77
5214.04
5635.23
4748.61
3302.9
5601.29
5099
5077.77
5625.33
5594.92
4141.95
3292.86
5539.54
5625.9
5640.42
5640.14
5040.95
3191.8
3278.07
3633.49
4330.58
5381.59
5182.22
3532.57
3193.62
3808.97
5517.34
5548.69
5289.17
5635.71
4928.35
3345.99
3375.03
5488.03
3786.45
3647.84
5181.04
5530.82
3462.58
3352.49
4897.7
2530.28
2563.49
5347.88
5577.65
3412.4
3262.28
4872.58
3841.36
3737.77
5309.53
5418
3339.9
3252.02
5604.39
5241.22
5218.63
5478.46
4655.87
3147.03
3240.23
5236.51
5550.61
5628.29
4978.04
3323.62
3137.69
3226.71
3171.62
3234.76
4372.3
3778.2
3149.2
3146.55
3907.95
5664.98
5664.92
5664.89
5664.89
5664.93
5664.94
5664.93
5664.91
5664.81
5665.19
5665.1
5665.07
5665.08
5665.08
5665.06
5665.04
5665.58
5665.46
5665.37
5665.37
5665.37
5665.36
5665.33
5665.3
5665.83
5665.67
5665.72
5665.72
5665.73
5665.73
5665.69
5665.64
5666.14
5665.97
5666.16
5666.2
5666.22
5666.21
5666.16
5666.07
5663.86
5664.41
5664.73
5665.41
5665.74
5665.96
5666.05
5666.07
5663.74
5664.54
5665.07
5665.45
5665.71
5665.9
5666
5666.03
5660.81
5664.41
5664.96
5665.34
5665.62
5665.82
5665.94
5666
5662.92
5664.57
5665.05
5665.44
5665.7
5665.88
5666.01
5666.07
5664.16
5664.84
5665.38
5665.72
5665.96
5666.12
5666.22
5666.26
5664.9
5665.43
5665.82
5666.11
5666.31
5666.46
5666.54
5666.55
5665.72
5666.1
5666.42
5666.66
5666.83
5666.93
5666.98
5666.97
5666.28
5666.73
5666.72
5667.49
5667.77
5667.94
5668.02
5668.01
5666.04
5666.62
5667.01
5667.35
5667.6
5667.78
5667.89
5667.9
5664.55
5666.41
5666.83
5667.17
5667.42
5667.62
5667.75
5667.8
5665.39
5666.41
5666.78
5667.14
5667.37
5667.56
5667.7
5667.76
5665.92
5664.42
5666.94
5667.27
5667.48
5667.64
5667.77
5667.82
5666.56
5667.02
5667.33
5667.55
5667.71
5667.84
5667.95
5667.98
5667.39
5667.75
5667.96
5668.1
5668.2
5668.28
5668.32
5668.31
5671.38
5671.01
5670.3
5670.56
5670.46
5670.39
5670.31
5670.19
5671.3
5670.72
5670.36
5670.22
5670.14
5670.11
5670.08
5669.99
5670.89
5670.37
5670.16
5669.98
5669.88
5669.84
5669.85
5669.81
5670.52
5661.93
5669.93
5669.83
5669.7
5669.65
5669.67
5669.65
5670.39
5667.81
5669.91
5669.75
5669.63
5669.58
5669.58
5669.56
5668.66
5670.26
5669.99
5669.8
5669.69
5669.64
5669.63
5669.6
5660.02
5670.74
5670.48
5670.21
5670.02
5669.92
5669.87
5669.8
5674.35
5673.49
5672.51
5672.24
5671.89
5671.64
5671.42
5671.19
5674.29
5673.08
5672.28
5671.81
5671.5
5671.3
5671.14
5670.97
5673.39
5663.36
5672.08
5671.56
5671.22
5671
5670.86
5670.73
5672.48
5661.73
5671.89
5671.36
5670.99
5670.75
5670.62
5670.51
5673.11
5670.26
5671.69
5671.18
5670.82
5670.59
5670.47
5670.37
5669.27
5672.21
5671.56
5671.11
5670.79
5670.57
5670.45
5670.35
5658.35
5672.51
5671.88
5671.35
5670.97
5670.72
5670.57
5670.45
5673.16
5672.43
5671.82
5671.35
5671.02
5670.76
5670.49
5670.22
5672.36
5672.1
5671.52
5671.04
5670.7
5670.45
5670.23
5670.01
5668.93
5658.87
5671.34
5670.83
5670.44
5670.16
5669.96
5669.79
5669.36
5661.73
5671.19
5670.65
5670.24
5669.94
5669.75
5669.59
5672.27
5670.65
5670.99
5670.48
5670.1
5669.82
5669.62
5669.47
5670.42
5671.41
5670.82
5670.37
5670.02
5669.75
5669.56
5669.42
5658.38
5671.52
5670.93
5670.44
5670.07
5669.78
5669.57
5669.42
5668.24
5663.49
5668.18
5667.99
5667.82
5667.65
5667.44
5667.19
5662.27
5652.94
5668.27
5667.95
5667.68
5667.46
5667.26
5667.05
5661.03
5654.95
5668.15
5667.79
5667.48
5667.23
5667.05
5666.88
5665.52
5664.16
5668.02
5667.65
5667.32
5667.07
5666.88
5666.72
5668.63
5668.12
5667.86
5667.51
5667.2
5666.93
5666.75
5666.62
5668.4
5668.02
5667.69
5667.39
5667.13
5666.9
5666.71
5666.58
5655.63
5667.88
5667.57
5667.3
5667.07
5666.84
5666.64
5666.51
5660.89
5604.59
5662.08
5662.47
5662.68
5662.76
5662.74
5662.61
5647.08
5633.05
5662.47
5662.67
5662.74
5662.74
5662.71
5662.6
5653.82
5651.79
5662.39
5662.57
5662.64
5662.64
5662.61
5662.53
5659.23
5661.64
5662.3
5662.48
5662.54
5662.53
5662.5
5662.43
5661.47
5661.98
5662.29
5662.45
5662.48
5662.47
5662.42
5662.36
5661.55
5661.97
5662.26
5662.4
5662.44
5662.42
5662.36
5662.3
5652.16
5661.86
5662.08
5662.23
5662.27
5662.27
5662.21
5662.16
5636.15
5569.64
5655.82
5656.73
5657.33
5657.72
5657.94
5657.95
5633.93
5620.56
5656.18
5657.01
5657.53
5657.87
5658.06
5658.08
5649.46
5650.62
5656.18
5657.02
5657.55
5657.9
5658.1
5658.13
5652.62
5654.95
5656.22
5657.04
5657.55
5657.88
5658.05
5658.1
5653.63
5655.26
5656.39
5657.11
5657.56
5657.85
5657.99
5658.03
5654.27
5655.59
5656.54
5657.15
5657.54
5657.79
5657.9
5657.95
5647.67
5655.68
5656.42
5656.99
5657.37
5657.6
5657.7
5657.75
4512.72
5494.8
5653.18
5653.8
5654.27
5654.64
5654.87
5654.9
5608.36
5602.42
5653.24
5653.91
5654.4
5654.76
5654.98
5655.03
5650.47
5651.9
5653.29
5654
5654.49
5654.85
5655.05
5655.1
5650.72
5652.3
5653.37
5654.07
5654.53
5654.87
5655.03
5655.09
5651.14
5652.52
5653.47
5654.1
5654.51
5654.8
5654.93
5655
5651.7
5652.77
5653.53
5654.06
5654.45
5654.7
5654.82
5654.89
5644.08
5652.69
5653.3
5653.81
5654.2
5654.47
5654.61
5654.68
3739.68
5099.4
5653.56
5653.38
5653.32
5653.37
5653.37
5653.31
5410.44
5559.07
5653.09
5653.14
5653.2
5653.31
5653.32
5653.29
5652.77
5653.03
5653.18
5653.21
5653.23
5653.31
5653.28
5653.28
5653.19
5653.28
5653.31
5653.29
5653.29
5653.32
5653.25
5653.28
5653.2
5653.25
5653.27
5653.26
5653.29
5653.25
5653.19
5653.21
5652.96
5653.06
5653.08
5653.1
5653.16
5653.19
5653.17
5653.2
5636.27
5652.7
5652.75
5652.83
5652.97
5653.04
5653.06
5653.09
3665.8
4547.33
5651.83
5651.78
5651.74
5651.7
5651.59
5651.53
4551.97
5442.5
5650.93
5651.21
5651.39
5651.52
5651.49
5651.52
5500.07
5650.83
5651.21
5651.28
5651.38
5651.46
5651.47
5651.54
5651.24
5651.61
5651.68
5651.61
5651.62
5651.6
5651.58
5651.65
5626.59
5651.61
5651.76
5651.7
5651.66
5651.66
5651.66
5651.74
5444.21
5651.51
5651.82
5651.93
5652.01
5651.99
5651.97
5652
5567.37
5652.21
5652.29
5652.32
5652.32
5652.22
5652.15
5652.15
3597.03
4503.15
5647.64
5648.39
5648.92
5649.22
5649.28
5649.4
3649.52
5291.91
5647.54
5648.35
5648.98
5649.39
5649.6
5649.74
4635.26
5646.77
5647.85
5648.53
5649.1
5649.52
5649.8
5649.99
5198.74
5647.31
5648.39
5648.98
5649.45
5649.85
5650.13
5650.31
4799.58
5647.37
5648.73
5649.41
5649.91
5650.24
5650.48
5650.65
4760.31
5628.74
5649.89
5650.53
5650.88
5651.06
5651.15
5651.22
5343.85
5650.6
5651.2
5651.5
5651.55
5651.52
5651.51
5651.54
3523.47
4727.58
5645.99
5647.1
5647.96
5648.44
5648.72
5648.91
3682.4
5297.82
5646.22
5647.35
5648.25
5648.86
5649.24
5649.47
4143.21
5644.53
5646.21
5647.39
5648.36
5649.1
5649.6
5649.88
4303
5644.86
5646.62
5647.8
5648.76
5649.53
5650.06
5650.34
4217.32
5608.66
5647.61
5648.7
5649.54
5650.2
5650.63
5650.86
4398.83
5622.58
5649.53
5650.25
5650.76
5651.11
5651.34
5651.48
5184.29
5649.9
5650.78
5651.25
5651.5
5651.67
5651.79
5651.89
3573.81
5211.91
5647.1
5648.49
5649.5
5650.19
5650.63
5650.89
4091.03
5486.67
5648.18
5649.27
5650.22
5650.94
5651.41
5651.67
4474.23
5646.06
5648.3
5649.44
5650.49
5651.34
5651.92
5652.23
4412.33
5647.02
5648.46
5649.67
5650.81
5651.74
5652.36
5652.7
4194.02
5596.23
5649.11
5650.33
5651.43
5652.3
5652.87
5653.18
4445.56
5636.75
5650.28
5651.4
5652.28
5652.94
5653.35
5653.59
5246.65
5650.15
5651.43
5652.3
5652.95
5653.41
5653.71
5653.89
4016.11
5534.48
5650.35
5652.31
5653.75
5654.77
5655.41
5655.75
4593.73
5637.61
5651.5
5653.2
5654.58
5655.67
5656.35
5656.7
4798.26
5649.89
5651.88
5653.6
5655.09
5656.28
5657.05
5657.46
4577.55
5649.31
5651.92
5653.77
5655.39
5656.68
5657.51
5657.96
4305.21
5624.35
5652.15
5654.08
5655.72
5657.02
5657.83
5658.26
4710.55
5649.97
5652.87
5654.77
5656.3
5657.39
5658.06
5658.42
5406.36
5651.85
5653.9
5655.51
5656.79
5657.68
5658.23
5658.52
4858.36
5652.63
5658.25
5660.6
5662.38
5663.61
5664.32
5664.63
5123.83
5656.01
5658.97
5661.3
5663.23
5664.57
5665.38
5665.78
5082.14
5656.29
5659.26
5661.76
5663.84
5665.34
5666.27
5666.75
4911.32
5656.33
5659.51
5662.14
5664.32
5665.87
5666.82
5667.31
4773.42
5656.79
5659.97
5662.56
5664.73
5666.22
5667.13
5667.59
5072.87
5657.65
5660.58
5662.99
5664.9
5666.21
5667.03
5667.45
5565.3
5658.7
5661.31
5663.51
5665.13
5666.22
5666.9
5667.24
5537.62
4681.05
5283.72
5666.95
5668.35
5668.42
5668.38
5668.27
5654.24
5539.59
5451.08
5667.42
5668.03
5668.2
5668.19
5668.05
5662.19
5663.94
5577
5666.9
5667.64
5667.93
5667.98
5667.86
5660.69
5663.43
5661.52
5666.46
5667.23
5667.59
5667.71
5667.67
5659.92
5663.06
5661.08
5644.19
5667.09
5667.46
5667.62
5667.66
5661.05
5657
5583.18
5439.45
5663.23
5667.61
5667.76
5667.83
5664.02
5460.17
4948.78
5407.35
5666.5
5667.72
5667.84
5667.96
5246.8
4755.72
5611.74
5668.75
5669.09
5669.28
5669.34
5669.27
5604.69
5214.49
5545.84
5668.54
5668.86
5669.06
5669.11
5669.01
5664.22
5627.04
5553.75
5667.86
5668.4
5668.72
5668.84
5668.76
5662.73
5665.02
5638.72
5667.23
5668.08
5668.47
5668.65
5668.64
5652.91
5664.77
5666.27
5667.36
5668
5668.4
5668.62
5668.68
5663.73
5654.5
5603.64
5667.44
5668.12
5668.57
5668.78
5668.86
5654.29
5323.36
4990.82
5649.81
5668.4
5668.72
5668.93
5669.04
4844.72
5201.84
5670.25
5672.06
5671.74
5671.52
5671.31
5671.1
5447.13
5211.04
5652.97
5671.56
5671.34
5671.17
5671.01
5670.79
5660.49
5448.74
5581.25
5671.32
5671.12
5670.97
5670.82
5670.6
5669.96
5664.81
5617.94
5671.16
5671.14
5670.97
5670.82
5670.63
5671.79
5672.73
5671.57
5671.58
5671.23
5671.02
5670.92
5670.76
5673.31
5657.55
5605.89
5671.53
5671.26
5671.07
5671.01
5670.94
5627.34
5178.76
5258.96
5670.94
5671.44
5671.2
5671.13
5671.12
4942.1
5624.89
5674.83
5673.85
5673.11
5672.53
5672.06
5671.7
5334.7
5501.48
5674.55
5673.55
5672.84
5672.32
5671.89
5671.52
5620.36
5427.1
5651.92
5673.64
5672.87
5672.31
5671.85
5671.47
5676.49
5631.83
5635.37
5674.06
5673.13
5672.48
5672.01
5671.63
5679.88
5677.28
5671.58
5674.22
5673.25
5672.61
5672.19
5671.85
5671.56
5618.89
5630.71
5673.86
5673.07
5672.57
5672.27
5672.03
5481.84
5104.86
5576.21
5673.8
5673.07
5672.62
5672.37
5672.26
5328.29
5673.81
5672.95
5671.85
5671.58
5670.97
5670.43
5669.99
5400.94
5671.34
5673
5672.17
5671.51
5670.96
5670.42
5669.98
5589.76
5499.14
5673.43
5672.49
5671.75
5671.14
5670.55
5670.07
5674.01
5603.18
5663.12
5672.96
5672.1
5671.42
5670.83
5670.33
5675.78
5674.37
5670.24
5673.23
5672.35
5671.69
5671.13
5670.67
5646.1
5472.61
5669.73
5673.08
5672.37
5671.82
5671.37
5671.01
5270.93
5164.71
5669.59
5673.33
5672.58
5672.06
5671.66
5671.37
5651.36
5669.16
5668.36
5667.56
5667.66
5667.2
5666.67
5666.22
5581.03
5669.55
5668.81
5668.23
5667.76
5667.29
5666.75
5666.26
5605.37
5659.55
5669.35
5668.63
5668.07
5667.54
5666.95
5666.4
5667.57
5598.64
5669.81
5669.06
5668.43
5667.86
5667.23
5666.65
5669.55
5664.19
5667.71
5669.38
5668.23
5668.24
5667.63
5667.06
5628.17
5438.62
5670.12
5669.4
5668.93
5668.56
5668.02
5667.52
5257.85
5374.16
5670.37
5669.57
5666.53
5668.81
5668.34
5667.93
5661.08
5661.32
5661.34
5661.25
5661.74
5661.65
5661.33
5660.93
5654.02
5661.04
5661.33
5661.53
5661.63
5661.58
5661.25
5660.84
5630
5660.77
5661.19
5661.46
5661.63
5661.61
5661.29
5660.84
5656.15
5632.67
5661.08
5661.48
5661.73
5661.75
5661.42
5660.94
5655.99
5637.17
5660.63
5661.25
5656.65
5662.13
5661.79
5661.28
5633.92
5555.96
5661.97
5660.36
5638.11
5662.66
5662.31
5661.8
5236.71
5588.12
5662.54
5662.45
5658.09
5663.03
5662.71
5662.25
5651.99
5653.55
5654.68
5655.46
5656.08
5656.35
5656.21
5655.86
5643.96
5651.82
5653.42
5654.58
5655.4
5655.86
5655.84
5655.54
5629.88
5649.72
5652.02
5653.63
5654.79
5655.47
5655.58
5655.32
5640.12
5637.51
5650.91
5653
5654.46
5655.33
5655.5
5655.25
5630.47
5608.42
5650.99
5652.83
5648.51
5655.67
5655.79
5655.48
5635.22
5649.64
5652.59
5651.37
5630.08
5656.46
5656.42
5655.99
5442.46
5649.2
5654.25
5655.67
5653.52
5657.11
5656.98
5656.52
5648.26
5650.49
5651.66
5652.48
5652.94
5653.08
5652.83
5652.39
5638.83
5646.38
5650.02
5651.16
5651.93
5652.4
5652.41
5652.08
5636.05
5646.49
5646.88
5650.19
5651.27
5651.99
5652.17
5651.93
5638.78
5638.8
5644.54
5649.65
5651.04
5651.92
5652.16
5651.96
5577.49
5606.11
5648.11
5650.03
5649.08
5652.3
5652.49
5652.24
5643.14
5647.06
5649.99
5651.28
5634.31
5653.17
5653.06
5652.54
5625.99
5649.97
5651.96
5652.41
5653.67
5654.03
5653.65
5652.94
5634.54
5445.66
5367.74
5649.18
5649.67
5649.68
5649.39
5648.97
5643.49
5637.66
5628.31
5587.39
5649.35
5649.67
5649.57
5649.24
5646.3
5648.87
5617.2
5625.26
5649.58
5649.99
5649.96
5649.66
5651.35
5649.23
5608.35
5548.45
5650.15
5650.49
5650.4
5650.06
5595.87
5634.9
5615.93
5617.66
5650.71
5650.96
5650.72
5650.18
5649.05
5645.92
5621.72
5650.76
5651.25
5651.5
5651.04
5650.4
5644.11
5626.7
5635.14
5408.64
5652.38
5652
5651.12
5650.16
5557.35
4625.07
4136.77
5478.8
5643.88
5644.41
5644.66
5644.62
5642.24
5594.22
5410.53
4803.83
5644.44
5645.11
5645.41
5645.38
5646.75
5647.43
5561.35
4850.31
5646.08
5646.51
5646.67
5646.54
5649.75
5649.18
5584.95
4855.68
5647.27
5647.42
5647.44
5647.23
5635.07
5648.67
5480.99
4915.38
5647.33
5647.42
5647.27
5646.89
5641.2
5635.16
5407.69
5216
5646.65
5646.85
5646.42
5645.75
5635.63
5400.72
4200.14
4994.75
5646.48
5646.49
5645.83
5645.08
5326.82
3521.4
3379.14
4737.11
5639.39
5640.64
5641.57
5642
5635.39
5426.23
4444.15
4314.58
5640.18
5641.4
5642.28
5642.65
5638.95
5640.17
5476.74
4722.77
5642.36
5643.12
5643.67
5643.78
5636.36
5642.73
5628.36
5009.17
5643.38
5643.89
5644.32
5644.34
5630.31
5641.6
5453.01
4712.19
5642.16
5642.77
5643.16
5643.16
5628.36
5599.04
4950.87
4194.38
5639.45
5640.49
5640.86
5640.78
5624.86
4886.06
3100.05
4079.82
5424.16
5638.87
5639.2
5639.08
4946.58
3311.87
3311.25
4306.01
5626.96
5641.19
5642.45
5643.06
5619.52
5089.53
3349.45
4286.62
5638.74
5641.94
5642.82
5643.19
5633.75
5605.13
4919.19
5011.66
5641.16
5642.42
5643.17
5643.42
5631.14
5627.67
5603.01
5510.15
5641.75
5642.55
5643.11
5643.25
5624.93
5626.99
5438.19
5092.17
5639.41
5640.52
5641.26
5641.49
5623.23
5514.12
4059.56
4042.83
5635.46
5637.15
5638.31
5638.84
5577.11
4252.67
3002.01
3202.63
4855.26
5634.9
5636.08
5636.73
4011.03
3262.94
3249.13
4606.25
5644.68
5646.59
5647.68
5648.13
5530.49
4395.33
3235.09
4493.85
5642.23
5645.12
5646.09
5646.57
5635.79
5461.44
3384.64
5206.42
5643.73
5645.03
5645.74
5646.09
5634.57
5546.78
4206.48
5568.07
5643.58
5644.55
5645.08
5645.35
5633.09
5541.69
4259.85
5409.49
5641.51
5642.63
5643.39
5643.78
5629.09
5400.42
3020.11
4111.97
5619.74
5639.88
5641.14
5641.77
5374.08
3467.94
2949.3
2955.17
4538.25
5637.11
5638.78
5639.74
3218.05
3220.94
3449.14
5358.57
5653.53
5655.04
5655.7
5655.98
5269.36
3357.76
3190.15
4932.82
5650.22
5652.04
5653.23
5653.81
5640.47
4909.47
3168.71
5218.78
5649.21
5650.62
5651.48
5652.01
5641.33
5143.08
3060.71
5529.4
5648.43
5649.67
5650.41
5650.9
5638.78
5023.45
2933.9
5370.85
5646.62
5648.07
5649.06
5649.64
5632.12
4962.5
2906.26
4351.39
5621.56
5646.15
5647.57
5648.33
5039.63
2898.13
2896.04
2898.81
4653.39
5643.84
5646.22
5647.42
3176.18
3238.02
4663.84
5660.61
5665.72
5666.51
5666.86
5667.06
4357.84
3254.13
3525.75
5437.6
5662.28
5663.66
5664.48
5664.89
5470.64
3688.02
3245.4
5307.68
5658.14
5660.25
5661.63
5662.29
5648.59
4103.7
3155.56
5491.66
5656.1
5658.16
5659.57
5660.29
5631.5
3707.56
2931.77
5318.09
5654.65
5656.99
5658.54
5659.24
5623.81
3584.66
2883.6
4779.95
5652.24
5657.15
5658.99
5659.72
4429.96
2847.67
2849.65
3115.56
5254.73
5657.14
5659.85
5660.95
5664.17
5643.21
4946.42
5069.22
5628.9
5667.71
5667.81
5667.89
5662.13
5660.9
4947.62
5253.47
5660.1
5667.46
5667.62
5667.72
5661.29
5643.48
5360.48
5569.26
5665.93
5666.7
5667.01
5667.14
5639.08
5535.64
5654.35
5664.73
5665.95
5666.47
5666.75
5666.87
5411.42
5627.71
5664.63
5665.36
5665.92
5666.33
5666.55
5666.63
5585.55
5664.07
5664.95
5665.52
5665.94
5666.24
5666.39
5666.43
5664.08
5664.73
5665.21
5665.65
5665.95
5666.15
5666.25
5666.26
5666.92
5535.89
4928.17
5419.29
5666.86
5669.1
5669.24
5669.3
5665.28
5613.46
4928.04
5417.16
5668.85
5669.05
5669.22
5669.3
5663.8
5587.91
5296.1
5587.44
5668.09
5668.53
5668.82
5668.94
5611.04
5572.48
5657.24
5665.27
5668
5668.43
5668.67
5668.75
5419.17
5641.8
5666.94
5667.51
5667.97
5668.32
5668.51
5668.55
5612.33
5666.49
5667.11
5667.58
5667.95
5668.21
5668.33
5668.35
5666.41
5666.96
5667.36
5667.71
5667.96
5668.13
5668.2
5668.19
5675.19
5250.63
4912.28
5611.64
5671.41
5671.3
5671.27
5671.21
5674.62
5471.42
4911.92
5589.73
5671.6
5671.44
5671.39
5671.31
5670.78
5444.78
5366.34
5640.07
5671.53
5671.38
5671.31
5671.19
5553.67
5580.05
5668.26
5669.78
5671.47
5671.35
5671.23
5671.08
5483.29
5665.48
5671.63
5671.35
5671.19
5671.09
5670.98
5670.83
5644.65
5671.45
5671.18
5671
5670.9
5670.83
5670.72
5670.59
5671.54
5671.33
5671.1
5670.9
5670.75
5670.64
5670.52
5670.4
5652.44
5053.34
4954.46
5666.44
5673.12
5672.7
5672.43
5672.28
5673.6
5369.45
5081.69
5667.41
5673.43
5672.92
5672.6
5672.37
5674.44
5436.27
5543.4
5671.9
5673.55
5672.99
5672.59
5672.28
5546.87
5611.1
5674.89
5673.59
5673.4
5672.9
5672.48
5672.13
5577.35
5675.06
5674.24
5673.51
5672.98
5672.56
5672.18
5671.85
5665.54
5674.25
5673.51
5672.95
5672.55
5672.23
5671.91
5671.62
5674.54
5673.9
5673.27
5672.71
5672.29
5671.97
5671.69
5671.44
5587.58
5116.21
5393.28
5673.45
5672.63
5672.06
5671.63
5671.36
5660.58
5433.7
5567.22
5673.37
5672.65
5672.11
5671.67
5671.31
5671.33
5573.36
5659.52
5673.4
5672.69
5672.1
5671.56
5671.11
5583.29
5661.07
5673.93
5673.13
5672.51
5671.97
5671.42
5670.94
5637.76
5674.09
5673.3
5672.68
5672.16
5671.69
5671.2
5670.75
5669.31
5673.28
5672.68
5672.17
5671.76
5671.39
5670.99
5670.61
5673.06
5668.02
5672.39
5671.88
5671.47
5671.14
5670.79
5670.48
5587.08
5556.75
5659.83
5669.75
5669.25
5668.79
5668.33
5667.95
5666.11
5618.29
5670.42
5669.83
5669.34
5668.86
5668.33
5667.85
5671.26
5667.54
5670.4
5669.79
5669.28
5668.78
5668.19
5667.64
5634.88
5670.74
5670.09
5669.39
5669.09
5668.63
5668.06
5667.51
5657.01
5670.2
5669.69
5669.25
5668.86
5668.47
5667.96
5667.46
5667.21
5669.58
5669.2
5668.85
5668.55
5668.26
5667.87
5667.47
5669.23
5658.86
5668.77
5668.5
5668.26
5668.03
5667.74
5667.43
5625.73
5661.41
5662.65
5662.96
5663.14
5663.09
5662.78
5662.36
5659.69
5661.21
5662.42
5662.92
5663.15
5663.11
5662.76
5662.27
5658.83
5660.03
5661.98
5662.56
5662.87
5662.92
5662.62
5662.15
5644.89
5661.06
5661.88
5662.19
5662.76
5662.85
5662.58
5662.16
5652.97
5661.62
5662.26
5662.67
5662.92
5662.99
5662.76
5662.38
5660.53
5662.07
5662.54
5662.83
5663
5663.04
5662.88
5662.59
5657.9
5657.95
5662.51
5662.77
5662.94
5662.99
5662.9
5662.7
5648.94
5652.05
5654.24
5655.6
5651.97
5657.12
5657.02
5656.59
5645.85
5650.42
5653.29
5655.17
5656.35
5656.93
5656.92
5656.53
5644.28
5647.4
5652.41
5654.52
5655.88
5656.65
5656.82
5656.56
5632.79
5650.14
5652.82
5654.51
5655.99
5656.76
5656.95
5656.76
5642
5651.95
5654.04
5655.49
5656.53
5657.17
5657.37
5657.21
5651.46
5653.53
5653.27
5656.28
5657.03
5657.48
5657.66
5657.57
5621.8
5654.67
5655.48
5656.72
5657.3
5657.66
5657.84
5657.81
5647.43
5649.95
5651.7
5652.95
5641.93
5653.93
5653.6
5652.95
5645.53
5648.41
5650.43
5652.01
5653.01
5653.54
5653.48
5653.05
5638.49
5646.89
5648.36
5630.04
5652.53
5653.23
5653.43
5653.23
5638.68
5648.29
5650.21
5651.65
5652.75
5653.45
5653.72
5653.6
5637.88
5649.47
5651.09
5652.31
5653.22
5653.8
5654.07
5654
5649.32
5651.05
5617.53
5652.99
5653.67
5654.1
5654.33
5654.32
5512.44
5651.72
5651.79
5653.46
5653.95
5654.33
5654.57
5654.61
5652.27
5651.95
5651.99
5591.34
5647.24
5652.16
5651.29
5650.3
5651.52
5652.35
5651.01
5628.29
5652.04
5651.99
5651.56
5650.96
5642.04
5652.21
5650.75
5619.3
5651.81
5651.84
5651.72
5651.4
5645.94
5650.09
5651.57
5651.81
5652.03
5652.12
5652.11
5651.9
5642.1
5606.67
5533.56
5651.9
5652.17
5652.24
5652.25
5652.12
5575.59
5632.41
5610.23
5652.33
5652.49
5652.55
5652.55
5652.46
5129.69
5652.3
5652.95
5652.95
5652.96
5653.03
5653.04
5652.99
5633.62
5553.68
5264.56
5127.29
5622.39
5646.32
5645.72
5644.97
5618.46
5647.06
5647.16
5498.11
5647.78
5647.73
5647.33
5646.78
5631.57
5645.48
5648.36
5642.04
5648.92
5648.78
5648.63
5648.31
5636.15
5570.84
5438.86
5649.2
5649.35
5649.29
5649.21
5649.05
5617.54
5430.28
4956.57
5649.14
5649.4
5649.46
5649.49
5649.42
5179.01
4560.49
5594.2
5649.74
5650.02
5650.14
5650.14
5650.09
4386.24
5572.43
5651.15
5651.34
5651.34
5651.3
5651.15
5651.07
5546.4
5024.53
3541.24
4248.07
5346.07
5638.22
5638.82
5638.8
5577.75
5500.59
5333.66
5281.84
5639.21
5640.67
5641.11
5641.13
5622.94
5538.04
5413.03
5642.09
5643
5643.41
5643.62
5643.65
5625.61
5342.23
4734.58
5643.6
5644.48
5644.93
5645.2
5645.27
5454.16
4882.73
4884.07
5644.47
5645.31
5645.89
5646.21
5646.4
4353.79
3696.28
5453.53
5645.49
5646.42
5647.03
5647.32
5647.48
3721.74
5222.84
5647.15
5647.97
5648.45
5648.67
5648.7
5648.75
5212.44
3813.12
2988.79
3251.67
4728.03
5634.83
5636.09
5636.7
5561.39
5062.88
3520.09
4928.97
5564.19
5636.92
5638.01
5638.53
5618.76
5349.34
4151.1
5637.06
5638.87
5639.95
5640.73
5641.11
5620.79
5145.17
4537.34
5640.37
5641.63
5642.5
5643.03
5643.41
5225.58
3676.96
4967.84
5642.58
5643.63
5644.44
5644.91
5645.21
3504.97
3628.72
5213.25
5644.38
5645.39
5646.11
5646.52
5646.78
3524.67
5072.14
5639.06
5646.57
5647.33
5647.74
5647.9
5648.09
4523.78
2947.67
2939.59
2952.15
4365.27
5636.61
5638.71
5639.56
5501.02
4220.35
2957.74
4440.67
5473.57
5638.6
5639.96
5640.67
5616.47
5272.28
4047.89
5638
5639.76
5641
5642.04
5642.64
5599.11
4826.32
4794.11
5641.57
5642.66
5643.64
5644.31
5644.77
5093
3239.68
4966.69
5643.57
5644.81
5645.72
5646.34
5646.74
3437.14
3512.49
5168.56
5645.99
5647.02
5647.75
5648.24
5648.55
3652.75
5112.27
5624.27
5647.83
5648.75
5649.33
5649.68
5649.93
3737.87
2894.8
2895.96
2895.65
4442.62
5643.74
5646.03
5647.08
5437.45
3144.49
2899.95
4278.12
5512.05
5644.97
5646.58
5647.43
5615.27
4833.85
4387.79
5614.94
5644.67
5646.41
5647.72
5648.46
5467.46
3693.26
4937.91
5645.25
5646.92
5648.29
5649.31
5649.94
4750.84
3152.26
4880.22
5646.47
5648.48
5649.93
5650.95
5651.55
3387.14
3473.7
5243.79
5649.72
5651.14
5652.19
5652.91
5653.34
4110.48
5180.09
5630.08
5651.59
5652.87
5653.76
5654.33
5654.67
3008.27
2849.32
2839.57
2957.87
5093.63
5656.93
5659.49
5660.44
5409.77
2853.51
3006.37
4625.94
5626.42
5657.29
5659.11
5659.85
5554.36
3211.8
4636.1
5640.89
5655.19
5657.45
5658.96
5659.65
4621.4
3105.64
4870.87
5653.81
5656.17
5658.13
5659.44
5660.1
3569.19
3106.66
4836.16
5655.17
5657.6
5659.48
5660.68
5661.27
3351.62
3739.67
5413.92
5658.13
5660.01
5661.37
5662.22
5662.64
4579.96
5346
5650.63
5659.95
5661.5
5662.59
5663.26
5663.59
5662.92
5666.35
5666.34
5666.4
5666.49
5666.55
5666.51
5666.4
5512.09
5666.84
5666.79
5666.81
5666.88
5666.92
5666.86
5666.71
5311.68
5603.67
5667.36
5667.28
5667.26
5667.26
5667.15
5666.96
5368.81
5388.76
5667.93
5667.79
5667.68
5667.56
5667.38
5667.15
5590.96
5667.92
5667.92
5667.81
5667.52
5667.24
5667.76
5667.49
5665.81
5666.17
5666.49
5666.78
5667.03
5667.2
5667.27
5667.22
5634.44
5666.35
5666.76
5667.11
5667.38
5667.57
5667.63
5667.55
5413.01
5666.38
5666.86
5667.22
5667.53
5667.75
5667.81
5667.72
5363.31
5624.42
5667.06
5667.47
5667.75
5667.94
5667.94
5667.8
5599.99
5115.42
5666.91
5667.7
5668.03
5668.16
5668.11
5667.93
5607.03
4751.23
5171.92
5668.23
5668.31
5668.37
5668.26
5668.08
5294.15
4678.63
4775.77
5663.54
5668.59
5668.55
5668.44
5668.28
5667.3
5667.62
5667.88
5668.1
5668.3
5668.44
5668.52
5668.48
5667.2
5667.68
5668.05
5668.32
5668.55
5668.72
5668.81
5668.77
5618.63
5667.53
5667.98
5668.34
5668.63
5668.84
5668.93
5668.87
5502.74
5667.32
5667.98
5668.41
5668.75
5668.98
5669.04
5668.95
5412.82
5241.6
5668.07
5668.51
5668.85
5669.09
5669.14
5669.02
5304.12
4671.82
5599.28
5668.7
5669
5669.23
5669.27
5669.16
4826.34
4653.66
5321.48
5668.68
5669
5669.24
5669.31
5669.23
5670.72
5670.49
5670.3
5670.15
5670.07
5670.03
5669.99
5669.9
5671.06
5670.79
5670.56
5670.4
5670.31
5670.26
5670.21
5670.1
5671.36
5670.95
5670.7
5670.55
5670.47
5670.42
5670.35
5670.22