/*--------------------------------*- C++ -*----------------------------------*\
| =========                 |                                                 |
| \\      /  F ield         | OpenFOAM: The Open Source CFD Toolbox           |
|  \\    /   O peration     | Version:  plus.master.MPPICInterFoam            |
|   \\  /    A nd           | Web:      www.OpenFOAM.com                      |
|    \\/     M anipulation  |                                                 |
\*---------------------------------------------------------------------------*/
FoamFile
{
    version     2.0;
    format      ascii;
    class       vectorField;
    location    "5.8/lagrangian/kinematicCloud";
    object      U;
}
// * * * * * * * * * * * * * * * * * * * * * * * * * * * * * * * * * * * * * //


93607
(
(0.000528425 -0.00246848 -9.1381e-05)
(-0.000103102 7.14664e-05 0.000248165)
(-5.59347e-05 0.000119533 0.000129863)
(-0.000126911 0.000733287 0.000336073)
(0.00173729 0.00119283 -3.20041e-05)
(0.000231055 -5.16819e-05 0.000289988)
(-0.000280623 -0.000150853 0.000187633)
(-0.000100892 -0.000541557 0.000189463)
(-0.000492694 -0.000268515 0.000263521)
(-7.54291e-05 3.22562e-06 0.000376501)
(-0.000475237 1.91699e-06 0.000309359)
(-0.000444179 0.000430572 0.00416903)
(-0.00107576 0.000633399 0.000242005)
(-0.000845996 0.000222722 -0.00243893)
(-0.000105928 -1.63711e-05 -0.00253048)
(0.000773812 -0.000162673 0.000349694)
(-0.000700427 -0.0025159 -0.000984135)
(0.000239847 -0.000363969 -0.000515605)
(-0.000786681 0.000322613 0.000387622)
(-0.000515291 -8.6308e-05 -0.00418985)
(0.000429702 -0.000272547 -0.00126787)
(-6.28794e-05 0.000507746 -5.81708e-05)
(0.000275264 0.000261034 0.0026593)
(0.000534641 0.000385104 -0.000507819)
(-8.77163e-05 7.44866e-05 0.000718724)
(0.000336119 0.000127848 -0.00218374)
(0.00024766 -0.00022741 0.00379034)
(2.74757e-05 -0.000539938 0.000699598)
(-4.37684e-06 0.000140091 -0.00156028)
(-0.000798399 -0.000182409 0.000294644)
(-5.8127e-05 -0.000776411 -0.00111368)
(-0.000776478 -0.000414522 0.00043789)
(0.000519267 -0.000378082 0.00095532)
(0.000270812 -0.000244285 0.00226185)
(-0.00100458 -7.40046e-05 -0.00157179)
(-0.000528159 0.000236225 -0.00176353)
(-8.51656e-05 -0.000133533 0.000516651)
(-8.41014e-05 1.06882e-05 0.000335964)
(0.00112905 -1.86454e-05 -0.000298095)
(-0.000288751 8.10027e-07 0.000282537)
(-0.00118632 -0.000444152 -0.00593515)
(0.000323107 0.000168774 -0.00293085)
(-0.000725591 -0.00047312 0.00281738)
(0.000152288 -0.000248903 0.000235854)
(0.000401022 -0.00038968 0.000814449)
(-0.000781633 -0.000381833 0.00024815)
(-0.000527794 0.00288437 -0.00700324)
(-2.74983e-05 0.000273326 0.000269545)
(0.000276338 0.00015702 0.000277249)
(0.000480863 -0.000670913 0.000228551)
(-0.000528894 -0.000300976 0.0014258)
(0.000182708 -8.15481e-05 0.00642746)
(-0.000611682 0.000255347 0.000264804)
(-9.93673e-05 -0.000146197 0.000588565)
(-0.000696247 -0.0002804 -0.00104328)
(-0.00048858 -0.000274493 0.000252182)
(0.000197128 0.000339017 -0.0070915)
(-0.000181912 0.00224225 0.00163914)
(0.000267007 -0.000254959 0.000289643)
(-0.000363681 -0.000144767 0.000312822)
(-0.000498102 -0.000772723 -0.00811302)
(-0.000847255 -0.0004149 0.00032017)
(-0.000815534 0.000300481 -0.00183855)
(0.000301692 -8.52789e-05 0.000274878)
(-0.000519792 -3.81442e-05 -0.00394705)
(0.000352877 0.000340767 0.000940593)
(-0.00015981 -0.000671816 0.000259328)
(-0.00115197 0.000209393 -0.000381628)
(0.000807842 0.000349375 -0.00238643)
(-0.000645013 -0.000291125 0.000295729)
(-0.000379922 0.00023572 -0.00534469)
(-0.000248054 -4.39127e-05 -0.0032196)
(-0.000439058 -0.000223877 0.000218283)
(-0.000486888 -0.000272893 0.000291784)
(-0.000802025 -0.000538313 0.000274351)
(-0.000561191 -0.000111213 -0.00170373)
(-0.000518596 -1.51101e-05 0.000257028)
(-0.0028139 0.0015436 2.8029e-05)
(-0.000551787 -0.000343642 0.000405777)
(-0.000464575 -0.000374279 -0.000168604)
(-0.00118395 -0.000186475 -0.000545573)
(0.000578583 0.000327511 0.000144171)
(0.000369571 -0.000325933 0.000377709)
(-0.000870342 -0.000134289 0.000296409)
(0.000865191 0.000491375 -0.00010717)
(-0.000849343 -0.000719372 -0.000319834)
(-0.000779144 0.000190474 0.000231964)
(-8.06317e-05 0.000114587 -0.00122643)
(0.00218237 -0.000943825 0.000199325)
(0.00130607 -0.000958535 0.000237469)
(0.000329092 -6.92509e-05 -0.00169636)
(-0.000800575 -0.000237273 0.00026494)
(-0.000424728 -0.000103131 0.000308254)
(0.000439524 0.000317279 0.000238389)
(-0.000721644 -0.000263156 6.6378e-05)
(0.000214304 0.000109965 -0.00360953)
(-0.00106917 0.000219907 0.00358089)
(-0.000283588 8.25704e-07 0.000264816)
(0.000727742 -0.000463144 -0.000515848)
(0.00260164 0.000236462 5.90651e-05)
(0.000428196 -1.96961e-05 0.00193305)
(-0.000637556 -0.000541205 -0.0011082)
(-7.27825e-05 -1.40254e-05 0.000496659)
(9.33931e-05 -0.00191265 -0.00152609)
(-0.000704092 -0.000394457 0.000244092)
(0.000341591 -0.000303999 9.14303e-05)
(-8.64937e-05 0.00012134 0.000394307)
(0.000314667 -0.000301809 -0.00182149)
(-0.000180606 -0.000131992 -0.00268846)
(4.95967e-05 -0.000272619 0.000227798)
(0.000313836 -0.000139329 0.000318288)
(-0.000986051 -0.000451538 -0.00048296)
(-0.00407617 -0.100578 -0.0311806)
(-0.000102637 6.01792e-05 0.000347075)
(-0.0006901 0.000316761 0.000426894)
(-0.000813141 -0.000688336 2.70895e-05)
(-0.000437617 0.000189065 -0.00240348)
(-0.000854338 -0.0004467 -0.00179332)
(0.000212207 0.000277922 0.000578803)
(-0.000890853 -0.000254949 -0.00178115)
(-0.000491106 0.000225146 -0.00180578)
(-0.000433019 -4.70924e-05 0.000230546)
(-0.000127113 0.000732413 0.000352503)
(-0.000301887 0.000289611 -0.00291723)
(0.000178971 -6.10356e-05 -0.000107539)
(-0.00105819 0.000771242 -0.00507251)
(0.0012643 -0.000942925 -2.73247e-05)
(-0.0007679 -1.71059e-05 0.000407646)
(-8.4601e-05 0.000481966 0.000320959)
(1.49411e-05 -0.000116152 0.000312609)
(-0.000359111 -3.85301e-05 0.000279099)
(-6.73918e-05 6.64552e-05 0.000273957)
(-0.000739549 -0.00062618 0.000870705)
(-0.000234267 3.64092e-05 -0.00211212)
(-0.000512361 -0.000177764 0.00121502)
(-0.000984096 0.000304763 0.00230614)
(0.000137858 -0.000639381 -0.0021809)
(-0.000369861 -0.000356067 0.000326056)
(-0.000273106 0.00104908 0.0038803)
(-7.21057e-05 0.000103499 0.000507684)
(0.00038715 -0.000317903 -0.00482674)
(-6.26308e-05 3.47878e-05 0.0058418)
(-0.00089853 0.000221414 0.000252835)
(0.000365589 0.00026996 -0.00148345)
(-0.00260206 0.000197322 -0.00291229)
(-0.000522069 0.00021752 0.000481791)
(0.000335887 0.000243035 0.00334567)
(0.000369853 -0.000623419 -0.00194111)
(-0.000510427 7.29228e-05 0.000350955)
(0.00026152 0.000263484 -9.11209e-05)
(-0.000116672 0.000453797 -0.00304084)
(-0.000924039 0.000264626 0.00141522)
(-0.000449232 -0.000315826 0.00102018)
(-0.000588543 -0.000184439 -0.0011619)
(-0.000464179 -0.000253121 0.000336205)
(-9.03855e-05 8.25759e-05 0.000380003)
(0.00108161 0.000512512 0.000364731)
(-0.000856353 0.000428481 -0.00156583)
(0.000398568 0.000252785 0.000316959)
(-0.00116903 4.26273e-05 0.000267277)
(0.000786649 0.00263834 -0.000894556)
(-6.6922e-05 9.75213e-05 -0.00192071)
(-0.000257351 -0.0001214 0.000121354)
(0.000264213 -0.000361997 0.00029925)
(-0.000492326 0.000326973 -0.00451877)
(-0.000976414 -0.000825525 0.000293775)
(0.000415553 -1.97376e-05 0.000202775)
(-0.000199985 0.00204428 0.000887932)
(-0.00056783 0.000225508 0.00215271)
(0.00371827 0.000592363 -0.00174992)
(-0.000141023 0.000104228 -0.00113461)
(-0.000274436 0.00201276 0.000276638)
(8.09318e-05 -0.000278505 0.000363071)
(-0.000537609 -0.000294859 6.71716e-05)
(-0.00127273 -0.000597927 -0.000490441)
(0.000146612 -3.39026e-05 0.00328921)
(0.000674772 0.00104871 0.00124287)
(0.00363273 6.66042e-05 -0.00113211)
(0.000744367 0.000363274 -0.00261385)
(0.000113821 3.35726e-05 -0.00114187)
(-0.000569066 -0.00032158 0.000312439)
(-0.00126862 0.000299611 0.00012396)
(0.000387489 -0.000333642 -0.00182857)
(0.000429029 -0.000374614 0.000321306)
(0.000457175 0.000335194 0.000328778)
(-5.14191e-05 0.00013573 -0.00248857)
(-0.000970144 5.99506e-05 0.000869533)
(-0.000332812 -0.000247837 0.000188176)
(-0.000111227 -0.00020353 0.000356398)
(0.000425505 -2.7841e-05 0.000363792)
(-0.000479328 8.09927e-05 0.002017)
(-0.000894256 4.28652e-05 0.00105734)
(-0.000478634 -8.0665e-05 0.000463691)
(-0.00109258 -0.00112375 0.000294145)
(-0.000409847 4.28377e-05 0.000289494)
(-4.62917e-05 -1.76037e-05 0.00511794)
(-0.000416083 -0.000462147 9.56259e-05)
(-0.000181614 -0.000173195 -5.29958e-05)
(-0.000975209 -6.15571e-05 -0.00412269)
(-0.000374153 -0.000738765 -0.00231282)
(-0.000527837 -0.000296537 -0.0012676)
(-0.000770859 0.000381263 0.000365715)
(-0.00240387 -0.00204935 -0.0130601)
(-0.000381318 -0.000534602 0.000384129)
(0.000287539 -0.000271881 0.0028097)
(-5.95724e-05 0.000362527 0.000663365)
(-0.000959852 -0.000417719 0.000368778)
(-0.000917701 -0.000308035 0.00252485)
(-6.99136e-05 0.000107263 9.22113e-05)
(0.00022487 -4.98451e-05 0.000424154)
(0.000273299 0.000213353 0.000226825)
(-0.000393063 0.000159597 -0.000106581)
(-0.0010067 -4.36016e-05 0.00657374)
(-0.000111201 -0.000580063 -0.00107255)
(0.000285978 0.000283053 -0.00223089)
(-7.3262e-05 -2.41106e-05 -0.000255612)
(0.00190698 -0.000388994 -0.00167548)
(5.58575e-05 -1.13913e-05 0.000135647)
(0.000413211 0.000554097 -0.000293835)
(-7.48045e-05 6.23583e-05 -0.00105546)
(0.000343179 -2.02932e-05 -0.00189033)
(-0.000848038 -0.000456251 0.00176841)
(0.00019387 0.00014032 0.00437452)
(0.00119232 0.00124077 -0.00112964)
(-0.000619488 -0.000567413 -0.00162237)
(0.000474989 -0.000348189 0.000117353)
(0.00253966 0.000251127 1.57644e-05)
(-6.71431e-05 0.000505278 -0.00242672)
(0.000209158 0.000173433 -0.00145448)
(-0.00139778 -0.000699973 -2.0142e-05)
(0.000232078 -0.000192041 0.00481697)
(-0.000956702 -0.000337459 -0.00126006)
(-0.000652041 -0.000203931 0.000503593)
(-7.07988e-05 -0.000431685 0.000457171)
(-0.000327038 0.00247686 0.00011562)
(0.00227406 0.000176096 -0.00107852)
(-0.00168256 -0.00285471 0.00271826)
(-0.000746122 0.000750616 0.000223577)
(3.17019e-05 -3.29957e-05 0.00611863)
(-0.000612106 0.00042192 -0.00182711)
(-0.000465285 -0.000516221 0.000327326)
(0.000544257 -0.00102951 -6.72332e-05)
(-0.000453955 -0.000144393 0.000387518)
(0.000264978 0.000128784 -0.00139723)
(6.86059e-05 -0.000360712 -0.00254627)
(-2.40303e-05 -0.00108144 -0.00247867)
(0.000264399 -0.000252642 0.000714353)
(-0.000720182 0.000499749 -0.00329909)
(0.000333145 -0.000222081 -0.00341049)
(0.000225873 -5.43694e-05 0.000300265)
(-0.000554005 0.000271445 0.000510179)
(0.00323069 0.000104251 -0.00118643)
(-6.43676e-05 -0.000228658 -0.00398434)
(0.00108121 0.000811942 0.00159053)
(0.000269123 -0.000369082 0.000255827)
(-9.65531e-05 0.000520516 -6.47212e-05)
(0.000568632 -0.000412096 -0.00044286)
(0.000270506 -0.000374235 0.00227736)
(-0.000619067 -0.00017174 -0.00191678)
(-0.000281199 0.000269294 -0.000739533)
(0.000560076 -0.000410693 -0.00309958)
(0.0002774 8.91072e-05 0.00515007)
(-1.01564e-05 -0.000717431 0.00138179)
(0.000368915 0.000272931 -0.0018399)
(-8.77182e-05 -1.39851e-05 0.000195195)
(-0.000791948 -0.000235696 1.00056e-05)
(-7.32201e-05 0.000104636 0.00052259)
(0.00104325 0.00105509 0.00033024)
(-0.000552176 0.000280776 0.000330887)
(-0.000108146 0.000132892 0.00207356)
(-5.41903e-05 -0.000564777 0.000659197)
(-4.51995e-05 0.000262639 0.000786725)
(-0.000337817 -3.72954e-05 0.000367861)
(-7.19242e-05 -7.779e-05 -0.0021663)
(-0.00263082 0.00268315 0.000230256)
(-0.000346393 -0.000335509 0.00058187)
(-0.000703702 0.00070461 0.000443405)
(-0.000122024 0.000242489 0.00428288)
(-0.00102729 8.46392e-06 0.000146631)
(0.000205997 -0.000305193 0.000306479)
(-0.000537642 0.00020502 0.000503498)
(-0.00048891 -0.000254359 0.0024076)
(-0.000468037 -0.000263506 -0.00109618)
(-0.000582923 -0.000323579 -0.000512394)
(0.000348097 -0.000251639 -0.00109652)
(-0.000203793 -0.000472255 -0.00283548)
(0.000307918 -0.000277645 0.000325959)
(0.000198362 0.00240055 -0.00113279)
(0.00130472 -0.000973529 0.000249761)
(-0.000327085 0.000373924 0.00038749)
(-0.000528174 -0.000394433 -0.00170875)
(-0.00033715 -0.000155018 0.000893279)
(0.000432963 -0.000290306 -0.000679775)
(-0.000591174 -0.000371765 0.00344812)
(-9.66539e-05 0.000191205 -0.000348195)
(0.000383627 -0.000262288 0.00077772)
(0.00063246 0.000481438 0.00136654)
(0.000299639 5.08964e-05 0.000346848)
(-0.00148048 0.000941013 -0.00239008)
(-0.00113558 0.000350177 1.60748e-05)
(0.000101385 0.000275545 -0.0013245)
(-0.000119309 -0.000104847 -0.00333151)
(0.000748938 -0.000159335 0.000804705)
(-0.00120607 0.000196232 -0.000622526)
(0.000288112 0.000189198 0.00025832)
(0.000360314 -0.000319885 -0.00189382)
(0.000268309 0.000253727 0.00017651)
(0.000322972 0.000188399 -0.000559146)
(-0.000552593 -9.4215e-06 0.00021579)
(-0.000264449 0.000176999 0.000193745)
(0.000251301 0.000321136 0.000305765)
(0.000249521 -9.03123e-06 0.000272873)
(-6.13739e-05 0.000426026 -0.00179521)
(9.15762e-05 -0.000157741 0.000497849)
(-0.00056109 -0.00031596 -0.000732392)
(0.000347276 0.000567326 0.000177023)
(-0.00101752 4.70648e-06 0.000394159)
(-0.000459119 -0.000260007 -0.00189565)
(0.000647819 -0.000404448 0.00036799)
(5.51686e-05 5.45613e-05 0.00880601)
(-0.000446903 0.000183523 0.000249533)
(0.000369757 -0.00033081 -5.56309e-06)
(-0.00106006 -0.00049192 0.000280878)
(0.00127247 -0.000484568 0.000324866)
(0.000603074 0.000358381 0.00056074)
(-0.000224963 -0.000901069 0.0028296)
(-0.00258513 0.000351517 0.000194932)
(-0.000484661 -0.000310147 -0.00105225)
(0.000462164 -2.30396e-05 0.00110356)
(0.000344105 0.000755456 0.000298122)
(-0.0010055 2.23448e-05 0.000464128)
(0.00020948 -0.000312457 -0.00253193)
(-6.84977e-05 0.000478045 -0.00251444)
(-0.000614057 0.000262738 0.000154146)
(8.43314e-05 -0.000284792 0.000282788)
(0.000300015 0.000160883 -0.00433894)
(-0.000788815 0.000602321 -0.00405701)
(0.00100486 0.00101866 0.000268725)
(0.000357712 -0.000354749 0.000281471)
(0.000121833 -0.000147926 0.00301839)
(-0.000568477 -0.000315863 -0.000221583)
(-0.000121021 -0.000395612 0.000505923)
(0.00014108 -0.000114543 -0.00123867)
(-0.000393985 -0.000130332 -0.000521665)
(-0.000404689 -0.00049404 0.00023405)
(-0.000707057 -0.000318932 -0.00306444)
(0.000358511 0.000170785 0.000518046)
(0.000430232 -0.000367654 -0.00120551)
(-5.13951e-05 -1.27629e-05 -0.00537691)
(0.000485524 0.000288504 -0.000181618)
(-0.000623574 4.14383e-05 0.000398116)
(-0.00055857 -0.000280049 8.64105e-06)
(-0.00168015 -0.000243758 1.22187e-05)
(0.000217198 9.80061e-05 -0.00136917)
(-0.00262393 -0.00141551 -0.014315)
(-7.52263e-05 -1.51444e-05 0.000426686)
(0.000317848 -0.000313946 1.92652e-05)
(0.000507172 0.000643353 -0.000921397)
(-8.88838e-05 0.000612199 0.00284155)
(-0.000632429 -5.51325e-05 -0.00115865)
(-0.000709397 -0.000310858 -0.000177898)
(-9.66492e-05 -0.000144825 0.000179454)
(-0.000168438 0.000239316 -0.00202809)
(0.000398893 -0.000723781 -0.00114015)
(-0.000272362 -4.0854e-05 -0.00150527)
(-8.5155e-05 0.000644752 0.00043872)
(-9.62482e-05 8.39608e-05 -3.90263e-05)
(0.000405673 7.95647e-06 0.000510044)
(0.000261303 0.000128112 -0.00108657)
(-0.000185149 -2.9304e-06 -0.000132467)
(0.000335398 -0.000326295 0.000233347)
(-0.000852034 0.000213694 -0.00186041)
(9.04953e-05 -0.000154253 1.33906e-05)
(-0.00061263 -0.000130206 -0.00131428)
(-0.000378146 2.13613e-05 0.000294935)
(0.00021537 -1.81149e-05 0.000161431)
(-0.000397036 -0.000214739 -0.000909148)
(7.99781e-05 -0.000249934 -0.00362042)
(3.87678e-06 -0.000109552 0.000339896)
(-0.000829686 0.000176494 -0.00111625)
(-0.000456185 0.000170919 0.000231192)
(-0.000330549 -0.000155535 -0.00237341)
(-0.000248599 -0.000471278 0.000324293)
(0.000358861 -0.000249069 0.000368303)
(-0.000906615 -2.62894e-05 -0.00242672)
(0.000433798 0.000548787 0.000167274)
(0.000239689 -5.72741e-06 0.000340348)
(-1.40364e-05 7.88095e-05 -0.00312996)
(-0.000403258 -0.000455885 0.00316624)
(-0.00038885 8.82733e-05 0.000323171)
(0.000272055 0.000129014 0.000282971)
(6.83982e-05 0.00135454 0.000257966)
(-0.00106609 -0.000162108 -0.000434646)
(-0.000535624 -0.000519085 0.000317246)
(0.00028262 -0.000132344 -0.00548536)
(0.00035452 -0.00101199 -0.000388624)
(0.000153862 -0.000294619 -0.00348891)
(0.000383259 -0.000332208 0.000165854)
(-0.00107308 4.48277e-05 1.88874e-05)
(0.000335374 0.000328312 0.000752143)
(0.000456171 0.000577178 0.000325113)
(-0.000379331 -0.000581459 0.000246585)
(-0.000740273 0.000328738 -0.00201939)
(0.000500519 -2.2358e-05 0.00087631)
(-0.000810611 0.000242067 -0.00142515)
(-0.000335532 -0.000252854 -3.63021e-05)
(6.89165e-05 6.50612e-05 -0.00615301)
(-4.97878e-05 -0.000173093 0.00505429)
(0.000516744 2.58022e-06 -0.000702104)
(-0.000456186 -0.00049254 0.000199106)
(-4.62559e-05 0.000148411 -0.000515089)
(0.000158763 -0.000184459 -0.00486011)
(0.000648672 -0.00211019 -0.00253604)
(0.00445439 0.000385464 -0.0136505)
(0.000240845 -0.000353013 -0.000734347)
(0.000688272 0.000379867 0.000228172)
(-6.2628e-05 -0.000357582 -0.000322391)
(0.000393198 0.000286176 0.000357128)
(0.00030242 -0.000208828 0.000196333)
(-0.000245151 9.15324e-05 -0.00110721)
(0.00123438 0.000105664 -0.00291187)
(0.000561854 -0.000661034 -0.000937006)
(-0.000702486 -0.000354993 -9.05485e-05)
(0.000360026 0.000451093 -0.00107136)
(0.00150034 -0.00268946 -0.0014655)
(-8.75643e-05 5.36636e-05 0.00011004)
(-0.000651897 0.000260722 9.04305e-05)
(-0.000760338 0.000656961 -0.00191563)
(-0.000772264 -0.00038997 -0.00419748)
(-1.04214e-05 2.49235e-06 0.000378489)
(0.000150492 0.000193984 -0.00118972)
(-0.000311413 1.29271e-06 0.000339822)
(-0.000457348 -0.000438583 0.000111916)
(-0.000780081 6.67443e-05 -0.00686527)
(0.000232515 -8.38499e-05 8.49608e-05)
(-9.06476e-05 -0.000170754 -0.00205586)
(-9.90355e-05 -0.000157461 -0.00110536)
(-0.000902075 -0.000623242 -0.00053936)
(0.000432405 -0.000381775 -0.00105759)
(-0.000302282 1.22327e-06 4.98519e-05)
(-0.000965242 0.00116262 -0.000959239)
(-0.000361999 -0.000125731 0.000423937)
(0.000901448 0.000421355 -0.00238121)
(-0.000331213 0.000113917 7.75824e-05)
(-0.000337195 -5.13117e-05 -0.0018371)
(0.000374081 0.000280725 0.000134276)
(-5.15967e-05 0.0023108 -0.000333575)
(0.000484581 0.000427089 -0.00482898)
(0.000113263 -0.000190698 0.000347494)
(0.000152225 -0.000283635 -0.00125303)
(-0.000468357 0.000145939 -0.00591787)
(-0.00049251 0.00208517 0.00020178)
(-0.000126841 -0.000250029 0.00154668)
(-1.26668e-05 1.08048e-05 0.0051003)
(-0.000437613 -0.000426785 0.000588764)
(-0.00103875 0.000386843 -0.00195992)
(0.000676832 0.000528431 0.000126128)
(-0.000971808 -0.000927664 0.000229832)
(-0.000462432 0.000505149 -0.00238338)
(-0.00249532 0.00154419 -1.86528e-05)
(-0.000487243 -0.000134248 0.000379907)
(0.00025682 -0.000995436 -0.000719064)
(0.000833511 -0.00265889 0.00273836)
(-0.00249187 -0.000784331 0.000278905)
(-0.000629248 0.000628547 -0.0013772)
(-0.000326271 -0.000666009 0.000357059)
(-0.00033611 -0.000551704 -8.98211e-05)
(0.000297678 0.000313563 0.000325457)
(-0.00111792 4.5965e-05 0.000541388)
(-0.00420443 -0.000944819 -0.00382934)
(0.000268292 0.000275493 0.000218654)
(0.000236989 -1.08622e-05 0.000289026)
(-6.82666e-05 0.000483713 0.000382778)
(-0.000234658 0.000422979 0.000196183)
(0.000641963 0.000379419 0.000279877)
(-3.52483e-05 -1.21711e-05 0.000172309)
(4.74199e-05 -0.000274326 0.000360167)
(-0.000426434 -0.000411581 -0.00202528)
(0.000296299 4.48197e-05 -0.000153677)
(-0.000474053 -1.3699e-05 -8.51679e-05)
(0.000118699 -0.000210665 -0.00115279)
(-0.000740522 -0.000372316 -0.000192832)
(0.000220709 -0.000151163 0.000381016)
(0.000170359 -0.000262431 8.6446e-06)
(-0.000549914 0.000114102 -0.00293634)
(-0.000400397 1.41527e-05 0.000466247)
(-0.000311733 1.75458e-05 0.00030124)
(-0.000597796 0.000145096 -0.00212423)
(-0.000342157 -4.20721e-05 0.00341542)
(-0.000659596 -0.000329628 -3.89223e-05)
(0.000203842 -0.000189942 -0.00302833)
(-0.000532738 -0.000517629 0.000336671)
(-0.000967723 -0.000247081 0.000465825)
(0.00215716 0.00215018 -0.00251536)
(0.000338682 -5.26764e-06 -0.000221704)
(-0.0010131 -0.000169955 -0.00190667)
(-0.000113583 6.0551e-05 0.000359539)
(6.50503e-05 0.0001845 0.0053996)
(0.000312136 -0.000300526 0.000407676)
(-7.26121e-05 6.76051e-05 0.000510045)
(-0.0012424 0.000543255 0.000238194)
(5.05454e-05 0.000326057 0.00523611)
(0.000545767 0.000687195 -0.000712406)
(-0.000106592 -1.73299e-05 0.000399317)
(0.000278069 0.000274691 0.000248719)
(0.00154493 -0.00321487 -0.000972641)
(-0.000144808 0.00016201 0.00231888)
(-5.51359e-05 6.05085e-05 0.000568935)
(-0.000174947 0.000117965 -0.00250169)
(-0.000513449 -7.97137e-06 0.00327432)
(-0.000559303 -0.000344693 0.00318568)
(0.000141284 0.000113704 0.00141576)
(0.000237986 0.000655497 0.000256313)
(0.000462591 -0.000500417 -0.00402381)
(6.93074e-05 -0.000303387 0.000407123)
(0.000321532 0.000238797 -0.000362615)
(-0.000178758 -3.83099e-06 -0.00108128)
(-0.000509703 0.000119313 -0.0010949)
(-0.000217788 -0.000923105 0.000327359)
(0.00206351 0.000221644 -0.000262215)
(-0.000300372 -1.12361e-06 0.000367719)
(0.000340779 -7.82196e-05 -0.00115762)
(0.000371803 0.000469116 -0.000125848)
(0.000651326 9.3662e-05 -0.00256729)
(-0.000491499 0.000575552 0.000369594)
(-6.6961e-05 -1.53159e-05 0.000214536)
(-0.000590207 -0.000285148 0.000437089)
(-0.000988127 0.000231543 -0.00500242)
(0.000540049 0.000141202 0.00185586)
(-7.47567e-05 -1.62406e-05 0.000328956)
(-0.000536626 -0.000215467 -6.35611e-08)
(-0.000229574 3.32202e-07 0.000356409)
(0.000268323 0.000136135 0.000284217)
(0.00109115 -0.000394846 -0.0012811)
(-0.000926989 0.000370765 -0.00296387)
(-0.000195117 0.00012945 0.00151657)
(0.000657951 0.000389898 0.000296294)
(0.000946782 0.000469518 0.00318241)
(1.84646e-05 -0.000296272 -0.00236042)
(4.3063e-05 8.14618e-05 2.3904e-05)
(3.5326e-05 0.0019439 -0.00022127)
(0.000767052 -8.04213e-05 -0.00172376)
(-0.000612901 -0.000271335 0.00043224)
(0.000361402 0.000456163 0.000541598)
(-0.000731909 0.000185547 -0.00111277)
(0.000393548 -0.000840664 0.000231255)
(-0.000407503 -0.000112541 -0.00685345)
(-0.000381041 0.000139827 0.000488426)
(-4.63959e-05 0.000162854 -0.00222298)
(-0.000138513 -0.000339206 0.00343072)
(-0.000124388 0.000625777 0.000428529)
(-2.23824e-05 -0.000668069 0.000130726)
(-0.00115851 0.000616904 0.000537726)
(0.000579333 0.000347229 0.000214901)
(0.000430991 -0.000421056 -0.00222196)
(0.00031725 0.000198002 -0.0045129)
(-0.000197351 6.63752e-05 -0.0046989)
(-0.00057374 0.000273294 0.000543235)
(-8.84164e-05 0.000126551 0.000366975)
(-0.00230898 -0.000163022 -0.000877422)
(-0.000104754 7.31249e-05 0.000349714)
(0.000358386 0.000236192 -0.00193083)
(0.000243396 0.000256988 0.000267046)
(0.00048277 -2.64978e-05 -0.00156336)
(-0.000106663 -2.03893e-05 -0.000457822)
(0.000242447 -0.000141116 0.000217999)
(-0.000460596 -0.000106747 -0.000659315)
(-0.000115742 6.81171e-05 0.00389726)
(0.000492806 0.000438084 -0.00092612)
(0.0010907 -0.000292133 0.00148198)
(-0.000318825 -0.000324277 0.000203439)
(-0.000507797 -0.000270467 0.000339656)
(0.000179564 -0.000294248 0.000289554)
(0.000352561 0.000258801 0.000528999)
(0.000393733 -0.000339421 -0.000251769)
(-0.000218657 -0.000128209 -0.0015871)
(0.000292669 0.000300154 0.00030501)
(-0.000536428 -0.000322054 0.000529635)
(-0.000110235 0.000220086 -0.00189093)
(-0.00237141 0.00166823 0.000206904)
(0.000325466 0.000396281 -0.00414065)
(0.000434052 -0.000382825 -0.000433711)
(-0.00042089 -3.82939e-05 0.00396885)
(0.000297855 0.000155216 -0.00249353)
(-0.000202513 0.00237783 0.000168913)
(0.000422924 -0.000311852 -0.000282085)
(-1.63154e-05 0.000198696 0.00287055)
(-0.00011759 0.00136473 -0.000647109)
(-6.71477e-05 -0.000429757 -0.0011324)
(0.000319492 -0.00033506 -0.00410009)
(5.91455e-05 -5.0404e-05 -0.00806937)
(0.000805258 -0.000706368 0.000804696)
(-3.29913e-05 0.000206625 0.00496279)
(-0.000578494 0.000574954 0.0010168)
(-0.000325874 -0.000537627 0.00044149)
(-0.00157587 0.000656404 0.000357065)
(0.000747614 -0.00267109 0.000245223)
(9.18414e-05 -0.000406538 0.000216485)
(-0.0002214 -0.000143906 0.00916312)
(0.000261474 -0.000124769 -0.000312801)
(-0.000490779 -0.000265474 0.000326588)
(-0.000242207 -0.000158933 0.00216)
(-0.000419817 -0.000389381 -0.0040646)
(0.000327492 -0.000467503 -0.000898704)
(0.00138852 -0.00016547 -0.00192501)
(-1.74386e-05 0.00242532 -0.000972829)
(-0.000333187 -0.000122519 0.00027994)
(0.000302218 0.000252051 -0.00063437)
(0.000361271 -0.000264602 0.00348643)
(2.50778e-05 -0.000224221 -0.00102731)
(-0.000215198 0.000247991 0.00222273)
(-8.49838e-05 0.000115882 0.000379741)
(0.000243862 0.000135796 -0.00411147)
(-0.000350892 -1.05e-05 -0.00116778)
(-0.000418133 0.000166369 0.000380467)
(-0.000321635 -9.75523e-05 4.25009e-06)
(-0.000284866 7.80205e-07 0.000231012)
(-7.47442e-05 -0.00044979 -0.00665522)
(0.000311993 -0.000152916 0.000441267)
(-0.00110143 0.000606278 0.000485878)
(-3.17445e-05 -0.00207229 0.000486323)
(0.000279058 0.000360491 0.000808397)
(-0.000824823 -0.000406759 0.000360482)
(-6.66927e-05 0.000481955 0.000771159)
(0.000262798 0.000123463 0.000289055)
(-0.000414966 -0.000165727 0.000501181)
(-0.00088696 -0.000468033 0.000349484)
(-0.000805402 0.000305568 0.000854942)
(0.000612015 -0.000600183 0.00269625)
(-0.000393544 -0.000251204 0.000613938)
(-0.000260216 -5.54006e-08 -0.00161876)
(-0.000643901 0.000678867 -0.00352887)
(-3.54944e-05 -0.000201436 0.000191168)
(7.37931e-05 -0.000283027 0.000323937)
(3.29586e-05 0.000374752 0.000312736)
(0.000254046 -1.53538e-05 0.000469703)
(0.00041103 -0.000586917 0.000422541)
(0.00272598 0.000237977 6.23477e-05)
(-0.000300285 -0.000117389 0.00139898)
(-0.000409641 0.000483575 0.00184406)
(-0.000261377 8.12625e-07 0.000402907)
(0.00031519 -0.000437988 0.000285163)
(-0.000276884 -3.29276e-05 -0.00134677)
(-0.000792674 -0.000128012 -0.00197364)
(0.000475862 -0.000353568 0.000315728)
(-0.000274032 4.80124e-05 -0.00625906)
(-0.000686006 0.000686439 4.33128e-05)
(0.000251558 -0.00034321 0.00059252)
(-8.78157e-05 4.41892e-05 0.000338978)
(0.000188434 -0.000311316 0.000341799)
(0.00150385 0.00182955 0.00137996)
(-0.000463297 0.000478237 -0.00118608)
(7.60903e-05 -9.87312e-05 -0.00317647)
(0.000392984 6.58794e-06 -6.80349e-05)
(0.000474922 -0.000346008 -0.00198181)
(0.000536479 -3.26881e-05 0.000285027)
(6.98574e-05 -0.000242612 0.000474274)
(-2.93536e-05 -0.000222721 0.000434865)
(-0.000643721 0.000302052 0.00040128)
(-0.000584747 0.000167156 0.000322529)
(-4.87538e-05 -0.000124835 0.000502831)
(-0.0004293 4.24593e-05 0.000571408)
(0.000427436 -0.000119341 0.000548106)
(-0.000233557 0.000153989 -0.00333021)
(-0.000382519 -0.000189458 -0.00270377)
(0.000406801 -0.000356956 0.000234142)
(-1.34082e-05 0.00022238 -0.00125726)
(0.000205543 -3.51772e-05 0.00444635)
(0.000811709 0.000175631 -0.00246588)
(-0.000163507 -3.36624e-06 0.000562995)
(0.000463343 0.000586578 0.00014255)
(-0.000571786 -8.6664e-05 -0.00140256)
(0.000404958 0.000227387 0.000146188)
(-0.000811816 -0.000418113 0.0022142)
(0.000489145 -0.000461081 0.000742125)
(1.46439e-05 -9.61737e-05 0.000691045)
(-0.000462999 -7.6697e-05 0.000396878)
(6.3688e-05 -0.000844674 -0.00248795)
(0.000948256 -0.00143337 0.000343522)
(0.00352068 7.77836e-05 -0.00124105)
(-0.000409043 5.40527e-05 -0.00252699)
(-0.000559836 -1.65971e-05 0.0035049)
(-0.000711366 -6.3436e-05 -0.000857925)
(-0.000265241 0.000267727 -0.00169163)
(-8.69258e-05 6.45713e-05 0.000102657)
(0.000293083 0.000290737 0.00036)
(0.0004233 0.0005349 0.000415746)
(-0.000742707 0.000203942 -0.000128564)
(6.33255e-05 3.21604e-05 0.000356929)
(-0.000124401 0.00181661 -0.00893399)
(-0.000296768 -0.000548938 0.000488256)
(0.0196735 -0.00522425 0.339665)
(-0.00075843 0.000358828 0.000342897)
(-0.000630513 0.000246664 -0.00050738)
(0.000453308 0.00057329 0.00027267)
(7.7252e-05 -0.000280315 0.000404241)
(8.46615e-05 -0.000145313 -0.00116207)
(-0.00092892 6.1678e-05 0.000554534)
(-0.000121968 -0.000131785 -0.0034633)
(-0.000733716 0.000208464 -0.00146082)
(-0.000154322 0.00243464 4.85757e-05)
(0.000231298 -0.000348371 -0.00159016)
(-0.000880893 0.000344507 -0.000501962)
(-0.00114341 -0.000179957 -0.00102636)
(-0.000412553 -0.000404531 0.000241731)
(-0.000510426 0.000505517 0.000320705)
(-3.72916e-05 0.000377661 0.00439123)
(7.95053e-05 -0.000569634 -0.00183871)
(0.000577429 7.80826e-06 0.000233994)
(-0.000849045 -0.000429174 0.000371655)
(-0.000763595 0.000127872 0.000557176)
(-0.000372402 0.000154105 0.000526584)
(-9.25852e-05 -0.00110446 -0.00497944)
(0.000594893 0.000352037 0.000444023)
(-6.34478e-05 -0.000782213 0.00214088)
(-0.000782702 0.000190451 0.00197531)
(-0.000820478 -0.00035485 -0.00419976)
(8.58218e-06 -0.000790107 -0.000932464)
(-0.000678724 -0.000240652 -9.76425e-05)
(0.000382816 0.000511288 -0.00145839)
(0.000325722 0.000164427 -0.000510419)
(0.00021389 -5.50129e-05 0.000261076)
(7.41548e-05 2.9598e-05 0.00310352)
(-7.83952e-05 8.03327e-05 -0.00226969)
(-0.000129433 -0.000429728 0.0003172)
(0.000322658 -0.000318193 0.000349339)
(-0.000374103 -0.000156543 -0.00113538)
(-0.000710547 0.000280076 -0.00211765)
(0.000399149 0.000503814 -0.00175199)
(-0.000909085 0.00235162 -0.00093346)
(-0.000816263 -0.000376372 -0.00189389)
(-0.000309571 0.000119337 -0.00131468)
(5.88051e-05 2.09424e-05 0.000190306)
(-0.00136616 0.000847682 0.000114557)
(-8.83835e-05 0.000124047 0.000371438)
(-0.000204923 0.00249774 -0.00173339)
(0.000411356 -0.000588234 0.000269833)
(0.000192879 -1.87357e-05 0.00241166)
(-0.00113493 -0.000137416 -0.000282893)
(0.00132486 -0.00113346 0.000304278)
(-0.000367653 0.000138268 -0.0013445)
(0.000429547 -0.000375125 0.000269146)
(-0.000479524 -0.000191785 0.000299117)
(0.00040916 0.000300124 -0.00191261)
(0.00010623 -0.000938895 -0.00421803)
(-0.000694086 0.000147261 0.000643183)
(0.00019527 -2.36374e-05 -0.00200378)
(0.000191408 -0.00060719 0.00012303)
(0.000336148 -0.000563353 -0.00031946)
(0.000251688 -0.000183587 -0.00029736)
(-0.000578269 -0.00032352 -0.00052378)
(-0.00254923 0.00256123 0.000209443)
(-0.000673523 0.000369268 -9.94879e-05)
(-0.000582339 -0.000186441 -0.00186577)
(0.000244632 0.000108606 0.000238561)