/*--------------------------------*- C++ -*----------------------------------*\
| =========                 |                                                 |
| \\      /  F ield         | OpenFOAM: The Open Source CFD Toolbox           |
|  \\    /   O peration     | Version:  plus.master.MPPICInterFoam            |
|   \\  /    A nd           | Web:      www.OpenFOAM.com                      |
|    \\/     M anipulation  |                                                 |
\*---------------------------------------------------------------------------*/
FoamFile
{
    version     2.0;
    format      ascii;
    class       surfaceScalarField;
    location    "12.6";
    object      alphaPhi;
}
// * * * * * * * * * * * * * * * * * * * * * * * * * * * * * * * * * * * * * //

dimensions      [0 3 -1 0 0 0 0];

internalField   nonuniform List<scalar> 
34004
(
-8.56214e-09
5.65836e-09
-1.58667e-06
-2.42328e-08
-2.27127e-08
1.60078e-08
-2.02052e-06
-3.43837e-08
-3.96636e-08
2.22038e-08
-2.3838e-06
-4.00626e-08
-5.98255e-08
2.6285e-08
-2.72357e-06
-4.4524e-08
-8.06601e-08
2.98517e-08
-3.06578e-06
-4.86439e-08
-1.00256e-07
3.32334e-08
-3.42828e-06
-5.25017e-08
-1.17455e-07
3.64308e-08
-3.80603e-06
-5.60232e-08
3.93533e-08
-4.19322e-06
-5.91253e-08
-1.30768e-07
-1.00668e-08
-1.1463e-08
-1.61051e-06
-2.52938e-08
-2.65269e-09
-2.05631e-06
-4.58578e-08
2.47079e-09
-2.41988e-06
-6.82727e-08
5.67518e-09
-2.75354e-06
-8.88734e-08
8.34254e-09
-3.09883e-06
-1.07412e-07
1.098e-08
-3.46115e-06
-1.23137e-07
1.35331e-08
-3.8391e-06
1.59295e-08
-4.22735e-06
-1.34871e-07
-6.99679e-09
-3.00367e-08
-1.64175e-06
-2.36416e-08
-2.46621e-08
-2.11631e-06
-5.19492e-08
-2.15484e-08
-2.48221e-06
-7.96687e-08
-1.87849e-08
-2.80572e-06
-1.01547e-07
-1.63291e-08
-3.1395e-06
-1.19611e-07
-1.41462e-08
-3.49529e-06
-1.33954e-07
-1.21961e-08
-3.87006e-06
-1.04816e-08
-4.25739e-06
-1.43905e-07
-1.30872e-08
-4.47481e-08
-1.62265e-06
-3.16272e-08
-4.23786e-08
-2.06607e-06
-5.41329e-08
-4.10023e-08
-2.43515e-06
-7.91107e-08
-4.01677e-08
-2.77758e-06
-1.00648e-07
-3.90994e-08
-3.12794e-06
-1.19105e-07
-3.81983e-08
-3.49363e-06
-1.34097e-07
-3.75005e-08
-3.87517e-06
-3.69897e-08
-4.26767e-06
-1.44658e-07
-1.40895e-08
-5.89081e-08
-1.609e-06
-3.34308e-08
-5.87025e-08
-2.04233e-06
-5.77142e-08
-5.89808e-08
-2.40472e-06
-8.05436e-08
-5.96344e-08
-2.75026e-06
-1.01261e-07
-6.01745e-08
-3.10635e-06
-1.19714e-07
-6.08009e-08
-3.47809e-06
-1.35055e-07
-6.15001e-08
-3.86465e-06
-6.22382e-08
-4.2611e-06
-1.46066e-07
-1.47169e-08
-7.19648e-08
-1.59738e-06
-3.4709e-08
-7.37042e-08
-2.02589e-06
-5.9112e-08
-7.55273e-08
-2.38631e-06
-8.12881e-08
-7.7361e-08
-2.72883e-06
-1.02233e-07
-7.93353e-08
-3.08598e-06
-1.21138e-07
-8.13061e-08
-3.45938e-06
-1.36941e-07
-8.31946e-08
-3.84722e-06
-8.49264e-08
-4.24448e-06
-1.48326e-07
-1.67027e-08
-1.58346e-06
-8.17472e-08
-3.89088e-08
-2.00674e-06
-8.49663e-08
-6.30454e-08
-2.3607e-06
-8.78402e-08
-8.70972e-08
-2.70452e-06
-9.09089e-08
-1.09901e-07
-3.06166e-06
-9.40499e-08
-1.30407e-07
-3.43401e-06
-9.71102e-08
-1.4738e-07
-3.82003e-06
-9.99605e-08
-4.21468e-06
-1.025e-07
-1.59367e-07
-7.73656e-09
1.10935e-08
-1.56108e-06
-2.89564e-08
-2.0796e-08
2.00485e-08
-1.98953e-06
-3.77414e-08
-3.70354e-08
2.48459e-08
-2.35033e-06
-4.20719e-08
-5.85289e-08
2.77292e-08
-2.68408e-06
-4.57146e-08
-7.75244e-08
3.05102e-08
-3.0286e-06
-4.8684e-08
-9.56085e-08
3.29735e-08
-3.3917e-06
-5.14588e-08
-1.11705e-07
3.52002e-08
-3.77122e-06
-5.39087e-08
3.71842e-08
-4.16158e-06
-5.59818e-08
-1.24544e-07
-8.80005e-09
-6.26842e-09
-1.58434e-06
-2.33213e-08
1.08426e-09
-2.02258e-06
-4.37097e-08
5.10219e-09
-2.37973e-06
-6.44676e-08
7.45726e-09
-2.7125e-06
-8.3565e-08
9.49236e-09
-3.0587e-06
-1.00789e-07
1.1391e-08
-3.42233e-06
-1.15564e-07
1.31594e-08
-3.80227e-06
1.47768e-08
-4.1936e-06
-1.26903e-07
-5.44137e-09
-2.58422e-08
-1.61673e-06
-2.17421e-08
-2.13425e-08
-2.07756e-06
-4.87515e-08
-1.88586e-08
-2.43122e-06
-7.40962e-08
-1.66766e-08
-2.75622e-06
-9.44439e-08
-1.47477e-08
-3.0949e-06
-1.11389e-07
-1.31251e-08
-3.45382e-06
-1.24995e-07
-1.17563e-08
-3.83153e-06
-1.06096e-08
-4.2223e-06
-1.34694e-07
-1.16796e-08
-4.09984e-08
-1.59581e-06
-2.89415e-08
-3.9285e-08
-2.03084e-06
-5.07304e-08
-3.8345e-08
-2.39386e-06
-7.26724e-08
-3.76714e-08
-2.73463e-06
-9.23866e-08
-3.69969e-08
-3.08596e-06
-1.09448e-07
-3.64524e-08
-3.45324e-06
-1.23505e-07
-3.60797e-08
-3.83679e-06
-3.58745e-08
-4.23218e-06
-1.33723e-07
-1.27104e-08
-5.52982e-08
-1.58198e-06
-3.06992e-08
-5.55751e-08
-2.00802e-06
-5.28248e-08
-5.59909e-08
-2.36493e-06
-7.3752e-08
-5.68259e-08
-2.71016e-06
-9.28514e-08
-5.75058e-08
-3.06673e-06
-1.09825e-07
-5.81942e-08
-3.43937e-06
-1.24109e-07
-5.89199e-08
-3.82752e-06
-5.96738e-08
-4.22672e-06
-1.34695e-07
-1.30936e-08
-6.8697e-08
-1.57088e-06
-3.13884e-08
-7.06823e-08
-1.99246e-06
-5.43302e-08
-7.25334e-08
-2.3468e-06
-7.4764e-08
-7.42641e-08
-2.69094e-06
-9.38832e-08
-7.60475e-08
-3.04831e-06
-1.1122e-07
-7.77772e-08
-3.42245e-06
-1.25964e-07
-7.94001e-08
-3.81199e-06
-8.08745e-08
-4.21225e-06
-1.36982e-07
-1.50975e-08
-1.55819e-06
-7.88666e-08
-3.52672e-08
-1.97513e-06
-8.20959e-08
-5.82265e-08
-2.32541e-06
-8.4846e-08
-8.01762e-08
-2.66927e-06
-8.75487e-08
-1.01024e-07
-3.0266e-06
-9.02523e-08
-1.19954e-07
-3.40003e-06
-9.28154e-08
-1.3595e-07
-3.78829e-06
-9.51402e-08
-4.18661e-06
-9.7169e-08
-1.47713e-07
-7.41523e-09
1.54828e-08
-1.53661e-06
-3.25279e-08
-1.93321e-08
2.25567e-08
-1.96106e-06
-3.92756e-08
-3.80125e-08
2.56888e-08
-2.31485e-06
-4.24481e-08
-5.79958e-08
2.78386e-08
-2.64691e-06
-4.49796e-08
-7.59284e-08
2.96963e-08
-2.99332e-06
-4.70062e-08
-9.25752e-08
3.12138e-08
-3.35752e-06
-4.87054e-08
-1.07358e-07
3.24494e-08
-3.7388e-06
-5.00413e-08
3.34502e-08
-4.13208e-06
-5.10192e-08
-1.1925e-07
-8.27243e-09
-2.01267e-09
-1.55855e-06
-2.24715e-08
3.82009e-09
-1.98959e-06
-4.2475e-08
6.485e-09
-2.34048e-06
-6.18328e-08
8.08698e-09
-2.67334e-06
-7.95907e-08
9.47348e-09
-3.02067e-06
-9.55113e-08
1.06456e-08
-3.3858e-06
-1.09183e-07
1.16325e-08
-3.76774e-06
1.24605e-08
-4.16197e-06
-1.19769e-07
-4.64805e-09
-2.2293e-08
-1.59177e-06
-2.15334e-08
-1.88199e-08
-2.03798e-06
-4.64885e-08
-1.68142e-08
-2.38292e-06
-6.89538e-08
-1.51839e-08
-2.71044e-06
-8.80583e-08
-1.38402e-08
-3.05244e-06
-1.03862e-07
-1.27477e-08
-3.41458e-06
-1.16636e-07
-1.19225e-08
-3.79516e-06
-1.13218e-08
-4.18925e-06
-1.25864e-07
-1.06319e-08
-3.78842e-08
-1.56956e-06
-2.67463e-08
-3.67138e-08
-1.99678e-06
-4.78297e-08
-3.61123e-08
-2.35343e-06
-6.71317e-08
-3.55264e-08
-2.69494e-06
-8.48148e-08
-3.51116e-08
-3.04696e-06
-1.00498e-07
-3.4858e-08
-3.4154e-06
-1.13601e-07
-3.47505e-08
-3.80081e-06
-3.47927e-08
-4.19897e-06
-1.23301e-07
-1.17074e-08
-5.2389e-08
-1.55574e-06
-2.84871e-08
-5.28776e-08
-1.97503e-06
-4.82918e-08
-5.33683e-08
-2.32782e-06
-6.74116e-08
-5.41206e-08
-2.6724e-06
-8.49281e-08
-5.47817e-08
-3.0295e-06
-1.00558e-07
-5.54207e-08
-3.40313e-06
-1.13796e-07
-5.6066e-08
-3.79292e-06
-5.67298e-08
-4.19476e-06
-1.23769e-07
-1.19308e-08
-6.61456e-08
-1.54516e-06
-2.89744e-08
-6.7961e-08
-1.96028e-06
-4.93332e-08
-6.94959e-08
-2.31027e-06
-6.83772e-08
-7.10533e-08
-2.65492e-06
-8.59528e-08
-7.25216e-08
-3.01295e-06
-1.01881e-07
-7.38707e-08
-3.38802e-06
-1.1553e-07
-7.50869e-08
-3.77928e-06
-7.6163e-08
-4.18238e-06
-1.25923e-07
-1.37556e-08
-1.53373e-06
-7.68178e-08
-3.22633e-08
-1.94503e-06
-7.94979e-08
-5.36026e-08
-2.2917e-06
-8.18224e-08
-7.37452e-08
-2.63612e-06
-8.40111e-08
-9.28559e-08
-2.99383e-06
-8.61288e-08
-1.1026e-07
-3.3684e-06
-8.80459e-08
-1.25111e-07
-3.75878e-06
-8.96968e-08
-4.16051e-06
-9.10678e-08
-1.36265e-07
-7.2401e-09
1.85724e-08
-1.51337e-06
-3.45541e-08
-2.02799e-08
2.35179e-08
-1.93262e-06
-3.9056e-08
-3.98194e-08
2.52635e-08
-2.2795e-06
-4.10002e-08
-5.80225e-08
2.65846e-08
-2.61262e-06
-4.2598e-08
-7.47811e-08
2.75086e-08
-2.96029e-06
-4.36975e-08
-8.99076e-08
2.80933e-08
-3.32607e-06
-4.43409e-08
-1.0319e-07
2.83652e-08
-3.70923e-06
-4.45678e-08
2.83964e-08
-4.10532e-06
-4.44433e-08
-1.13813e-07
-7.6431e-09
1.15738e-09
-1.53344e-06
-2.25527e-08
5.13422e-09
-1.95621e-06
-4.20514e-08
6.72619e-09
-2.30236e-06
-5.99452e-08
7.72856e-09
-2.63651e-06
-7.61721e-08
8.42966e-09
-2.98528e-06
-9.06703e-08
8.9096e-09
-3.35203e-06
-1.03073e-07
9.1615e-09
-3.73604e-06
9.23552e-09
-4.13314e-06
-1.12647e-07
-4.47231e-09
-1.95042e-08
-1.56659e-06
-2.14876e-08
-1.70431e-08
-1.9987e-06
-4.46357e-08
-1.55788e-08
-2.33739e-06
-6.47718e-08
-1.43945e-08
-2.66811e-06
-8.19955e-08
-1.34854e-08
-3.01322e-06
-9.65202e-08
-1.28653e-08
-3.37819e-06
-1.08327e-07
-1.2523e-08
-3.76158e-06
-1.24109e-08
-4.15894e-06
-1.16898e-07
-1.00316e-08
-3.53032e-08
-1.54368e-06
-2.55366e-08
-3.45333e-08
-1.9637e-06
-4.44462e-08
-3.39694e-08
-2.31605e-06
-6.16913e-08
-3.35613e-08
-2.65845e-06
-7.75242e-08
-3.3345e-08
-3.01119e-06
-9.17923e-08
-3.32887e-08
-3.38063e-06
-1.03921e-07
-3.33656e-08
-3.76775e-06
-3.35785e-08
-4.16864e-06
-1.12988e-07
-1.08222e-08
-4.99485e-08
-1.53022e-06
-2.62167e-08
-5.03901e-08
-1.94369e-06
-4.40913e-08
-5.07833e-08
-2.29305e-06
-6.1257e-08
-5.13381e-08
-2.63739e-06
-7.7194e-08
-5.18417e-08
-2.99499e-06
-9.15108e-08
-5.23176e-08
-3.3697e-06
-1.03685e-07
-5.27771e-08
-3.76125e-06
-5.32495e-08
-4.16575e-06
-1.12927e-07
-1.08991e-08
-6.39745e-08
-1.52019e-06
-2.64347e-08
-6.52575e-08
-1.92979e-06
-4.47034e-08
-6.63969e-08
-2.27631e-06
-6.19807e-08
-6.75e-08
-2.62141e-06
-7.80794e-08
-6.85046e-08
-2.98011e-06
-9.2666e-08
-6.93548e-08
-3.35632e-06
-1.05191e-07
-7.0049e-08
-3.74939e-06
-7.06118e-08
-4.15531e-06
-1.14805e-07
-1.26784e-08
-1.50995e-06
-7.50291e-08
-2.9787e-08
-1.91634e-06
-7.67439e-08
-4.88461e-08
-2.26062e-06
-7.83353e-08
-6.74054e-08
-2.60506e-06
-7.99253e-08
-8.48718e-08
-2.96346e-06
-8.13338e-08
-1.00761e-07
-3.3393e-06
-8.24824e-08
-1.14355e-07
-3.7318e-06
-8.33438e-08
-4.13678e-06
-8.3943e-08
-1.24651e-07
-7.3826e-09
2.04175e-08
-1.49136e-06
-3.5016e-08
-2.2243e-08
2.30278e-08
-1.90322e-06
-3.72382e-08
-4.08893e-08
2.37406e-08
-2.24643e-06
-3.8056e-08
-5.7756e-08
2.41503e-08
-2.58098e-06
-3.88234e-08
-7.30323e-08
2.42066e-08
-2.93013e-06
-3.89817e-08
-8.66674e-08
2.39066e-08
-3.2976e-06
-3.86207e-08
-9.84327e-08
2.32766e-08
-3.68281e-06
-3.78074e-08
2.24031e-08
-4.08171e-06
-3.6641e-08
-1.07666e-07
-7.32493e-09
3.67039e-09
-1.5093e-06
-2.26777e-08
5.7225e-09
-1.92343e-06
-4.13591e-08
6.28481e-09
-2.26612e-06
-5.76835e-08
6.63047e-09
-2.60256e-06
-7.24685e-08
6.66703e-09
-2.95284e-06
-8.55815e-08
6.48755e-09
-3.32137e-06
-9.66927e-08
6.0667e-09
-3.70759e-06
5.45767e-09
-4.10759e-06
-1.05162e-07
-5.21389e-09
-1.76323e-08
-1.54001e-06
-2.27949e-08
-1.59296e-08
-1.95935e-06
-4.27333e-08
-1.47226e-08
-2.29634e-06
-6.08513e-08
-1.39383e-08
-2.62931e-06
-7.60209e-08
-1.34562e-08
-2.97781e-06
-8.91472e-08
-1.32292e-08
-3.34523e-06
-9.99006e-08
-1.32962e-08
-3.73134e-06
-1.3596e-08
-4.13193e-06
-1.07712e-07
-9.47471e-09
-3.32426e-08
-1.51853e-06
-2.41906e-08
-3.26425e-08
-1.93216e-06
-4.09843e-08
-3.20637e-08
-2.28181e-06
-5.67919e-08
-3.17334e-08
-2.62474e-06
-7.0492e-08
-3.15636e-08
-2.97927e-06
-8.34802e-08
-3.16093e-08
-3.34914e-06
-9.45815e-08
-3.17691e-08
-3.73805e-06
-3.20578e-08
-4.14172e-06
-1.02905e-07
-9.9638e-09
-4.77518e-08
-1.50569e-06
-2.40372e-08
-4.79357e-08
-1.91421e-06
-3.99323e-08
-4.80927e-08
-2.26103e-06
-5.5388e-08
-4.83338e-08
-2.60522e-06
-6.9754e-08
-4.85636e-08
-2.96351e-06
-8.27395e-08
-4.87614e-08
-3.33945e-06
-9.3815e-08
-4.89326e-08
-3.73288e-06
-4.91192e-08
-4.14011e-06
-1.02253e-07
-9.95925e-09
-6.17892e-08
-1.49613e-06
-2.40723e-08
-6.22773e-08
-1.90123e-06
-4.00535e-08
-6.28236e-08
-2.24549e-06
-5.56908e-08
-6.33997e-08
-2.5906e-06
-7.03174e-08
-6.38373e-08
-2.95009e-06
-8.35773e-08
-6.40915e-08
-3.32761e-06
-9.49591e-08
-6.41765e-08
-3.72264e-06
-6.41427e-08
-4.13139e-06
-1.03715e-07
-1.16959e-08
-1.48697e-06
-7.30072e-08
-2.72826e-08
-1.88945e-06
-7.34703e-08
-4.43142e-08
-2.23208e-06
-7.42268e-08
-6.11179e-08
-2.57649e-06
-7.50549e-08
-7.69604e-08
-2.93568e-06
-7.56568e-08
-9.13343e-08
-3.31294e-06
-7.59578e-08
-1.03611e-07
-3.70762e-06
-7.59589e-08
-4.11576e-06
-7.57178e-08
-1.12917e-07
-8.09906e-09
2.10819e-08
-1.47022e-06
-3.4088e-08
-2.28675e-08
2.15579e-08
-1.87583e-06
-3.40375e-08
-4.06847e-08
2.12442e-08
-2.21556e-06
-3.41716e-08
-5.6238e-08
2.0858e-08
-2.55219e-06
-3.39678e-08
-7.01841e-08
2.01175e-08
-2.90295e-06
-3.32183e-08
-8.24289e-08
1.90192e-08
-3.27228e-06
-3.19413e-08
-9.27588e-08
1.75937e-08
-3.65972e-06
-3.02005e-08
1.5931e-08
-4.06148e-06
-2.81112e-08
-1.00639e-07
-7.59942e-09
5.40517e-09
-1.48593e-06
-2.22407e-08
5.81482e-09
-1.8929e-06
-3.92607e-08
5.4345e-09
-2.23315e-06
-5.44954e-08
5.03551e-09
-2.57136e-06
-6.80568e-08
4.49135e-09
-2.92351e-06
-7.99278e-08
3.72293e-09
-3.29405e-06
-8.98329e-08
2.71744e-09
-3.68265e-06
1.52732e-09
-4.0856e-06
-9.72356e-08
-5.86514e-09
-1.60719e-08
-1.51259e-06
-2.30261e-08
-1.48752e-08
-1.92136e-06
-4.05832e-08
-1.39269e-08
-2.25929e-06
-5.62154e-08
-1.35875e-08
-2.59492e-06
-6.991e-08
-1.34289e-08
-2.94606e-06
-8.1705e-08
-1.35512e-08
-3.31601e-06
-9.14077e-08
-1.39519e-08
-3.7048e-06
-1.45746e-08
-4.10862e-06
-9.84331e-08
-8.61444e-09
-3.14019e-08
-1.49451e-06
-2.2082e-08
-3.07696e-08
-1.90265e-06
-3.79182e-08
-3.01719e-08
-2.2496e-06
-5.13413e-08
-2.97543e-08
-2.59502e-06
-6.3928e-08
-2.96351e-08
-2.95033e-06
-7.59212e-08
-2.96813e-08
-3.32086e-06
-8.58807e-08
-2.98095e-08
-3.71207e-06
-3.00651e-08
-4.1186e-06
-9.33249e-08
-8.94431e-09
-4.55312e-08
-1.48253e-06
-2.15713e-08
-4.52733e-08
-1.88695e-06
-3.59892e-08
-4.51074e-08
-2.23155e-06
-4.97615e-08
-4.49652e-08
-2.57611e-06
-6.26842e-08
-4.48376e-08
-2.93524e-06
-7.43778e-08
-4.46533e-08
-3.31263e-06
-8.43485e-08
-4.44478e-08
-3.70811e-06
-4.42704e-08
-4.11813e-06
-9.19535e-08
-8.91893e-09
-5.92934e-08
-1.47337e-06
-2.15525e-08
-5.88144e-08
-1.87491e-06
-3.56579e-08
-5.86801e-08
-2.21769e-06
-4.96426e-08
-5.86299e-08
-2.56282e-06
-6.2825e-08
-5.84265e-08
-2.92318e-06
-7.47674e-08
-5.80222e-08
-3.30215e-06
-8.49994e-08
-5.74464e-08
-3.69925e-06
-5.67699e-08
-4.11084e-06
-9.28729e-08
-1.06449e-08
-1.46514e-06
-7.04004e-08
-2.47005e-08
-1.86461e-06
-6.94674e-08
-3.99063e-08
-2.20613e-06
-6.93057e-08
-5.49669e-08
-2.55064e-06
-6.92866e-08
-6.91858e-08
-2.91072e-06
-6.90254e-08
-8.20437e-08
-3.28952e-06
-6.84453e-08
-9.298e-08
-3.6864e-06
-6.75652e-08
-4.09762e-06
-6.64666e-08
-1.01249e-07
-8.71995e-09
2.05878e-08
-1.45002e-06
-3.20151e-08
-2.31095e-08
1.934e-08
-1.85042e-06
-3.01912e-08
-3.90528e-08
1.8197e-08
-2.18818e-06
-2.94839e-08
-5.35278e-08
1.70287e-08
-2.5262e-06
-2.83841e-08
-6.6234e-08
1.55926e-08
-2.87885e-06
-2.68184e-08
-7.7175e-08
1.38257e-08
-3.25024e-06
-2.47529e-08
-8.61763e-08
1.17534e-08
-3.64005e-06
-2.22396e-08
9.46033e-09
-4.0447e-06
-1.93949e-08
-9.28186e-08
-7.7014e-09
6.10005e-09
-1.46363e-06
-2.13224e-08
5.18956e-09
-1.86496e-06
-3.65137e-08
4.23585e-09
-2.20384e-06
-5.05732e-08
3.23425e-09
-2.54335e-06
-6.30146e-08
2.1876e-09
-2.8975e-06
-7.37445e-08
9.33465e-10
-3.27025e-06
-8.25308e-08
-5.39126e-10
-3.66138e-06
-2.15106e-09
-4.06735e-06
-8.89625e-08
-5.86632e-09
-1.43085e-08
-1.48622e-06
-2.10292e-08
-1.35556e-08
-1.88729e-06
-3.73003e-08
-1.30731e-08
-2.22556e-06
-5.11922e-08
-1.30059e-08
-2.56463e-06
-6.34848e-08
-1.31292e-08
-2.91828e-06
-7.42325e-08
-1.35993e-08
-3.29055e-06
-8.29672e-08
-1.42484e-08
-3.68217e-06
-1.50781e-08
-4.08922e-06
-8.92358e-08
-7.44181e-09
-2.94223e-08
-1.47186e-06
-1.93261e-08
-2.86753e-08
-1.87549e-06
-3.37983e-08
-2.81092e-08
-2.21994e-06
-4.59167e-08
-2.76483e-08
-2.5681e-06
-5.85617e-08
-2.74976e-08
-2.92316e-06
-6.90107e-08
-2.73423e-08
-3.2965e-06
-7.77731e-08
-2.73206e-08
-3.69006e-06
-2.74478e-08
-4.0995e-06
-8.43047e-08
-7.82973e-09
-4.30316e-08
-1.461e-06
-1.90697e-08
-4.21772e-08
-1.86204e-06
-3.19908e-08
-4.16133e-08
-2.20497e-06
-4.43439e-08
-4.10917e-08
-2.55016e-06
-5.5999e-08
-4.05328e-08
-2.91039e-06
-6.64664e-08
-3.99117e-08
-3.28942e-06
-7.53576e-08
-3.92704e-08
-3.68709e-06
-3.86763e-08
-4.09991e-06
-8.21448e-08
-7.7974e-09
-5.62709e-08
-1.45224e-06
-1.90113e-08
-5.47062e-08
-1.85101e-06
-3.14912e-08
-5.38372e-08
-2.19284e-06
-4.394e-08
-5.31186e-08
-2.53819e-06
-5.57053e-08
-5.22408e-08
-2.89955e-06
-6.63423e-08
-5.11571e-08
-3.2801e-06
-7.54298e-08
-4.99092e-08
-3.67934e-06
-4.85836e-08
-4.09373e-06
-8.24298e-08
-9.50107e-09
-1.44481e-06
-6.70107e-08
-2.20903e-08
-1.84194e-06
-6.46225e-08
-3.56223e-08
-2.18278e-06
-6.35005e-08
-4.90093e-08
-2.52761e-06
-6.26072e-08
-6.16169e-08
-2.88872e-06
-6.14802e-08
-7.29597e-08
-3.26913e-06
-6.00349e-08
-8.25578e-08
-3.66823e-06
-5.83026e-08
-4.08239e-06
-5.63805e-08
-8.9799e-08
-9.00337e-09
1.91937e-08
-1.43101e-06
-2.91447e-08
-2.24722e-08
1.66129e-08
-1.82732e-06
-2.60589e-08
-3.67244e-08
1.47706e-08
-2.16422e-06
-2.4311e-08
-4.98906e-08
1.29856e-08
-2.5034e-06
-2.24513e-08
-6.13716e-08
1.09913e-08
-2.85798e-06
-2.02035e-08
-7.10676e-08
8.71509e-09
-3.23157e-06
-1.75067e-08
-7.88414e-08
6.17255e-09
-3.62385e-06
-1.44054e-08
3.43513e-09
-4.03137e-06
-1.1005e-08
-8.43886e-08
-7.56449e-09
6.06488e-09
-1.44281e-06
-1.99697e-08
4.19092e-09
-1.83995e-06
-3.35291e-08
2.81847e-09
-2.17816e-06
-4.62895e-08
1.47066e-09
-2.5189e-06
-5.7569e-08
8.73989e-12
-2.87505e-06
-6.71912e-08
-1.55942e-09
-3.25017e-06
-7.49423e-08
-3.32484e-09
-3.64394e-06
-5.23979e-09
-4.0529e-06
-8.04978e-08
-5.75406e-09
-1.26198e-08
-1.46167e-06
-1.87068e-08
-1.22404e-08
-1.85773e-06
-3.31213e-08
-1.21394e-08
-2.19603e-06
-4.58363e-08
-1.22006e-08
-2.53808e-06
-5.72325e-08
-1.26195e-08
-2.89408e-06
-6.69085e-08
-1.32416e-08
-3.26901e-06
-7.46618e-08
-1.39901e-08
-3.66356e-06
-1.48965e-08
-4.07381e-06
-8.0203e-08
-6.34198e-09
-2.71805e-08
-1.45085e-06
-1.68373e-08
-2.62138e-08
-1.85084e-06
-2.89756e-08
-2.56102e-08
-2.19417e-06
-4.16841e-08
-2.52195e-08
-2.54221e-06
-5.29685e-08
-2.47894e-08
-2.89953e-06
-6.22589e-08
-2.44045e-08
-3.27586e-06
-6.9959e-08
-2.41682e-08
-3.67198e-06
-2.40939e-08
-4.08438e-06
-7.56629e-08
-6.80104e-09
-4.00649e-08
-1.44121e-06
-1.67965e-08
-3.85194e-08
-1.83957e-06
-2.80827e-08
-3.74962e-08
-2.18164e-06
-3.92547e-08
-3.65762e-08
-2.52746e-06
-4.9668e-08
-3.55685e-08
-2.88902e-06
-5.89378e-08
-3.44867e-08
-3.26989e-06
-6.67748e-08
-3.33888e-08
-3.66984e-06
-3.23566e-08
-4.08543e-06
-7.2777e-08
-6.73663e-09
-5.25472e-08
-1.43291e-06
-1.66268e-08
-4.9862e-08
-1.82961e-06
-2.76248e-08
-4.82524e-08
-2.17092e-06
-3.86082e-08
-4.68592e-08
-2.51676e-06
-4.89632e-08
-4.53145e-08
-2.87928e-06
-5.82824e-08
-4.35708e-08
-3.26151e-06
-6.62221e-08
-4.16782e-08
-3.66293e-06
-3.97342e-08
-4.08e-06
-7.23704e-08
-8.37887e-09
-1.42615e-06
-6.2717e-08
-1.95539e-08
-1.82155e-06
-5.89056e-08
-3.15007e-08
-2.16209e-06
-5.68411e-08
-4.32486e-08
-2.50746e-06
-5.51049e-08
-5.42385e-08
-2.86972e-06
-5.31564e-08
-6.40545e-08
-3.2518e-06
-5.09082e-08
-7.232e-08
-3.65306e-06
-4.83974e-08
-4.06994e-06
-4.57297e-08
-7.85709e-08
-8.991e-09
1.70859e-08
-1.41351e-06
-2.5529e-08
-2.13248e-08
1.35417e-08
-1.80694e-06
-2.14011e-08
-3.40148e-08
1.11876e-08
-2.14363e-06
-1.89187e-08
-4.57233e-08
8.98365e-09
-2.48403e-06
-1.64775e-08
-5.58878e-08
6.61889e-09
-2.84054e-06
-1.37273e-08
-6.43244e-08
4.02027e-09
-3.21638e-06
-1.05937e-08
-7.0928e-08
1.20127e-09
-3.61114e-06
-7.11142e-09
-1.78328e-09
-4.02142e-06
-3.37003e-09
-7.5511e-08
-7.31e-09
5.52899e-09
-1.42382e-06
-1.84764e-08
3.0392e-09
-1.81809e-06
-3.04942e-08
1.39032e-09
-2.15618e-06
-4.18557e-08
-1.58126e-10
-2.49822e-06
-5.19284e-08
-1.76143e-09
-2.85642e-06
-6.04015e-08
-3.54415e-09
-3.23395e-06
-6.71253e-08
-5.45985e-09
-3.63036e-06
-7.49672e-09
-4.04221e-06
-7.18845e-08
-5.58665e-09
-1.10352e-08
-1.43941e-06
-1.66216e-08
-1.09041e-08
-1.83258e-06
-2.88442e-08
-1.10164e-08
-2.17124e-06
-4.07099e-08
-1.12737e-08
-2.51493e-06
-5.11217e-08
-1.1728e-08
-2.87353e-06
-5.96158e-08
-1.22975e-08
-3.25158e-06
-6.64036e-08
-1.30134e-08
-3.64903e-06
-1.38806e-08
-4.06236e-06
-7.1254e-08
-5.45099e-09
-2.46152e-08
-1.43171e-06
-1.46859e-08
-2.33334e-08
-1.82901e-06
-2.54772e-08
-2.2584e-08
-2.17165e-06
-3.6952e-08
-2.2021e-08
-2.51982e-06
-4.70165e-08
-2.13757e-08
-2.87965e-06
-5.54555e-08
-2.07792e-08
-3.25876e-06
-6.21786e-08
-2.02891e-08
-3.6578e-06
-1.99579e-08
-4.07314e-06
-6.71312e-08
-5.90139e-09
-3.65138e-08
-1.4233e-06
-1.46863e-08
-3.42277e-08
-1.81972e-06
-2.45529e-08
-3.27297e-08
-2.16147e-06
-3.44211e-08
-3.1378e-08
-2.50808e-06
-4.35564e-08
-2.9928e-08
-2.87117e-06
-5.16132e-08
-2.83912e-08
-3.25404e-06
-5.83886e-08
-2.68462e-08
-3.65632e-06
-2.53827e-08
-4.07456e-06
-6.36275e-08
-5.80333e-09
-4.80127e-08
-1.4155e-06
-1.44537e-08
-4.42561e-08
-1.81076e-06
-2.40309e-08
-4.19413e-08
-2.15198e-06
-3.35473e-08
-3.99091e-08
-2.49855e-06
-4.24504e-08
-3.77441e-08
-2.86239e-06
-5.04009e-08
-3.53956e-08
-3.24639e-06
-5.71671e-08
-3.29188e-08
-3.6499e-06
-3.04173e-08
-4.06944e-06
-6.24838e-08
-7.3248e-09
-1.40927e-06
-5.74622e-08
-1.71134e-08
-1.80349e-06
-5.236e-08
-2.74884e-08
-2.14407e-06
-4.94351e-08
-3.75774e-08
-2.49019e-06
-4.69315e-08
-4.69021e-08
-2.85372e-06
-4.42572e-08
-5.51512e-08
-3.23746e-06
-4.13088e-08
-6.20783e-08
-3.64075e-06
-3.81302e-08
-4.06002e-06
-3.48283e-08
-6.73868e-08
-8.76044e-09
1.44602e-08
-1.39783e-06
-2.13203e-08
-1.99009e-08
1.03514e-08
-1.7895e-06
-1.64795e-08
-3.10558e-08
7.70261e-09
-2.12647e-06
-1.35625e-08
-4.12383e-08
5.27637e-09
-2.46822e-06
-1.07498e-08
-4.99709e-08
2.73522e-09
-2.82668e-06
-7.6985e-09
-5.70845e-08
1.40477e-11
-3.20477e-06
-4.33333e-09
-6.25297e-08
-2.90226e-09
-3.60193e-06
-6.77498e-10
-5.95212e-09
-4.01474e-06
3.19666e-09
-6.62509e-08
-7.00048e-09
4.70019e-09
-1.40695e-06
-1.69684e-08
1.93349e-09
-1.79954e-06
-2.74892e-08
1.71091e-10
-2.13797e-06
-3.74236e-08
-1.38149e-09
-2.48147e-06
-4.61364e-08
-3.0586e-09
-2.84175e-06
-5.33599e-08
-4.84696e-09
-3.22169e-06
-5.90244e-08
-6.7445e-09
-3.62067e-06
-8.75061e-09
-4.0352e-06
-6.30325e-08
-5.36235e-09
-9.43876e-09
-1.4198e-06
-1.48361e-08
-9.38828e-09
-1.81162e-06
-2.52745e-08
-9.52622e-09
-2.15095e-06
-3.57868e-08
-9.77307e-09
-2.49588e-06
-4.47792e-08
-1.01556e-08
-2.85728e-06
-5.21467e-08
-1.06351e-08
-3.23826e-06
-5.79492e-08
-1.12274e-08
-3.63856e-06
-1.1958e-08
-4.05478e-06
-6.21293e-08
-4.74569e-09
-2.16294e-08
-1.41467e-06
-1.27826e-08
-1.99749e-08
-1.81022e-06
-2.22238e-08
-1.90203e-08
-2.15257e-06
-3.24116e-08
-1.82243e-08
-2.50103e-06
-4.12191e-08
-1.73255e-08
-2.86351e-06
-4.83849e-08
-1.64513e-08
-3.24561e-06
-5.40829e-08
-1.56747e-08
-3.64748e-06
-1.50574e-08
-4.0656e-06
-5.8327e-08
-5.13563e-09
-3.22877e-08
-1.4074e-06
-1.27619e-08
-2.9276e-08
-1.80263e-06
-2.12593e-08
-2.73132e-08
-2.14453e-06
-2.97214e-08
-2.55381e-08
-2.49215e-06
-3.74463e-08
-2.36581e-08
-2.85695e-06
-4.41753e-08
-2.17009e-08
-3.2419e-06
-4.98257e-08
-1.97411e-08
-3.64643e-06
-1.78753e-08
-4.06707e-06
-5.43041e-08
-4.9889e-09
-4.26229e-08
-1.40008e-06
-1.24263e-08
-3.79233e-08
-1.79452e-06
-2.05578e-08
-3.49856e-08
-2.13603e-06
-2.85263e-08
-3.23871e-08
-2.48359e-06
-3.58625e-08
-2.96809e-08
-2.84888e-06
-4.23449e-08
-2.68122e-08
-3.23463e-06
-4.78825e-08
-2.38371e-08
-3.6401e-06
-2.08605e-08
-4.06177e-06
-5.23823e-08
-6.31686e-09
-1.39421e-06
-5.12642e-08
-1.46882e-08
-1.7878e-06
-4.50939e-08
-2.34229e-08
-2.12873e-06
-4.14476e-08
-3.17599e-08
-2.4758e-06
-3.82961e-08
-3.93154e-08
-2.84066e-06
-3.50318e-08
-4.59172e-08
-3.22599e-06
-3.15215e-08
-5.14802e-08
-3.63104e-06
-2.78125e-08
-4.05226e-06
-2.40089e-08
-5.5898e-08
-8.3721e-09
1.15781e-08
-1.38418e-06
-1.67964e-08
-1.82514e-08
7.29447e-09
-1.77506e-06
-1.17036e-08
-2.78717e-08
4.55841e-09
-2.11277e-06
-8.50197e-09
-3.64563e-08
2.09111e-09
-2.45607e-06
-5.51197e-09
-4.36395e-08
-4.43346e-10
-2.81654e-06
-2.36144e-09
-4.93254e-08
-3.13234e-09
-3.19684e-06
1.03729e-09
-5.35905e-08
-5.96625e-09
-3.59621e-06
4.6772e-09
-8.92681e-09
-4.01121e-06
8.50269e-09
-5.65182e-08
-6.66041e-09
3.80898e-09
-1.39241e-06
-1.54594e-08
1.0737e-09
-1.78437e-06
-2.45063e-08
-6.12247e-10
-2.12361e-06
-3.28858e-08
-2.10675e-09
-2.46876e-06
-4.00735e-08
-3.66993e-09
-2.83119e-06
-4.591e-08
-5.32209e-09
-3.21351e-06
-5.04251e-08
-7.0735e-09
-3.61488e-06
-8.93287e-09
-4.03176e-06
-5.36812e-08
-5.14659e-09
-7.68569e-09
-1.40307e-06
-1.331e-08
-7.55659e-09
-1.79469e-06
-2.22025e-08
-7.60159e-09
-2.13494e-06
-3.08088e-08
-7.68946e-09
-2.48155e-06
-3.82548e-08
-7.93869e-09
-2.84543e-06
-4.42774e-08
-8.23108e-09
-3.22918e-06
-4.8971e-08
-8.61614e-09
-3.63217e-06
-9.13752e-09
-4.05091e-06
-5.24562e-08
-4.2445e-09
-1.81151e-08
-1.3999e-06
-1.11772e-08
-1.60539e-08
-1.79465e-06
-1.9108e-08
-1.48288e-08
-2.13728e-06
-2.77762e-08
-1.37757e-08
-2.48615e-06
-3.48385e-08
-1.2591e-08
-2.85166e-06
-4.06548e-08
-1.14451e-08
-3.23643e-06
-4.52298e-08
-1.03836e-08
-3.64098e-06
-9.47602e-09
-4.06155e-06
-4.87707e-08
-4.47254e-09
-2.73289e-08
-1.39362e-06
-1.09332e-08
-2.36701e-08
-1.78842e-06
-1.79618e-08
-2.12842e-08
-2.13092e-06
-2.48149e-08
-1.91159e-08
-2.47983e-06
-3.09175e-08
-1.68648e-08
-2.84644e-06
-3.61471e-08
-1.45397e-08
-3.23343e-06
-4.05729e-08
-1.22187e-08
-3.64002e-06
-9.99896e-09
-4.06266e-06
-4.42865e-08
-4.22673e-09
-3.64021e-08
-1.38669e-06
-1.03854e-08
-3.0961e-08
-1.78093e-06
-1.69392e-08
-2.7525e-08
-2.12311e-06
-2.31745e-08
-2.44662e-08
-2.47187e-06
-2.87599e-08
-2.13256e-08
-2.8387e-06
-3.3623e-08
-1.80428e-08
-3.22612e-06
-3.78513e-08
-1.46719e-08
-3.63327e-06
-1.13146e-08
-4.05658e-06
-4.15511e-08
-5.28234e-09
-1.38101e-06
-4.42357e-08
-1.21139e-08
-1.77449e-06
-3.73031e-08
-1.90404e-08
-2.11608e-06
-3.31259e-08
-2.54341e-08
-2.46425e-06
-2.94924e-08
-3.10513e-08
-2.83045e-06
-2.57865e-08
-3.58835e-08
-3.21719e-06
-2.1869e-08
-4.00401e-08
-3.62363e-06
-1.77773e-08
-4.04621e-06
-1.36086e-08
-4.36276e-08
-7.85678e-09
8.69492e-09
-1.37281e-06
-1.21565e-08
-1.64235e-08
4.57913e-09
-1.76379e-06
-7.15577e-09
-2.44311e-08
1.9566e-09
-2.10266e-06
-3.93714e-09
-3.12812e-08
-3.90779e-10
-2.44774e-06
-9.76393e-10
-3.67468e-08
-2.77588e-09
-2.81026e-06
2.09032e-09
-4.08753e-08
-5.27788e-09
-3.19266e-06
5.35717e-09
-4.38902e-08
-7.9158e-09
-3.59397e-06
8.82989e-09
-1.06808e-08
-4.01069e-06
1.24757e-08
-4.60555e-08
-6.29323e-09
3.09696e-09
-1.38043e-06
-1.39096e-08
6.46288e-10
-1.7727e-06
-2.13924e-08
-8.4236e-10
-2.11322e-06
-2.80253e-08
-2.15213e-09
-2.46024e-06
-3.34699e-08
-3.49434e-09
-2.8249e-06
-3.7715e-08
-4.91051e-09
-3.2095e-06
-4.09568e-08
-6.42692e-09
-3.61299e-06
-8.0616e-09
-4.03174e-06
-4.3446e-08
-4.93029e-09
-5.60737e-09
-1.38935e-06
-1.18665e-08
-5.2728e-09
-1.78171e-06
-1.90529e-08
-5.13841e-09
-2.12334e-06
-2.56812e-08
-5.04757e-09
-2.47191e-06
-3.12073e-08
-5.02501e-09
-2.83825e-06
-3.55787e-08
-5.08007e-09
-3.22451e-06
-3.90044e-08
-5.21886e-09
-3.62982e-06
-5.49473e-09
-4.05057e-06
-4.17603e-08
-3.85991e-09
-1.39909e-08
-1.38758e-06
-9.67987e-09
-1.15389e-08
-1.78245e-06
-1.60511e-08
-1.00292e-08
-2.12591e-06
-2.23381e-08
-8.67432e-09
-2.47612e-06
-2.77222e-08
-7.2723e-09
-2.84391e-06
-3.18166e-08
-5.86224e-09
-3.23143e-06
-3.51158e-08
-4.53335e-09
-3.63823e-06
-3.35408e-09
-4.06071e-06
-3.794e-08
-3.81789e-09
-2.16334e-08
-1.38209e-06
-8.99024e-09
-1.74705e-08
-1.7772e-06
-1.43404e-08
-1.47436e-08
-2.12075e-06
-1.92819e-08
-1.22529e-08
-2.47119e-06
-2.34832e-08
-9.70018e-09
-2.83969e-06
-2.69829e-08
-7.08281e-09
-3.22858e-06
-3.00519e-08
-4.47021e-09
-3.63688e-06
-1.9577e-09
-4.06096e-06
-3.29979e-08
-3.40103e-09
-2.94451e-08
-1.3754e-06
-8.09248e-09
-2.35281e-08
-1.77007e-06
-1.28201e-08
-1.97554e-08
-2.11326e-06
-1.70458e-08
-1.63723e-08
-2.46341e-06
-2.06193e-08
-1.29219e-08
-2.83178e-06
-2.36652e-08
-9.34469e-09
-3.22069e-06
-2.64862e-08
-5.68807e-09
-3.62909e-06
-2.04651e-09
-4.05341e-06
-2.94168e-08
-4.10557e-09
-1.3697e-06
-3.65729e-08
-9.15545e-09
-1.7636e-06
-2.92527e-08
-1.3994e-08
-2.10611e-06
-2.47745e-08
-1.81659e-08
-2.4555e-06
-2.08417e-08
-2.16033e-08
-2.82295e-06
-1.68665e-08
-2.45027e-08
-3.21081e-06
-1.26987e-08
-2.71987e-08
-3.61812e-06
-8.3681e-09
-4.04131e-06
-3.96164e-09
-3.00349e-08
-7.21009e-09
6.0856e-09
-1.36395e-06
-7.69054e-09
-1.43527e-08
2.41567e-09
-1.75586e-06
-3.09306e-09
-2.05752e-08
6.49266e-11
-2.09631e-06
-9.55593e-11
-2.54872e-08
-2.02305e-09
-2.44337e-06
2.66938e-09
-2.90204e-08
-4.1476e-09
-2.80799e-06
5.51218e-09
-3.14053e-08
-6.37938e-09
-3.19231e-06
8.52884e-09
-3.30703e-08
-8.74859e-09
-3.59518e-06
1.17408e-08
-1.12591e-08
-4.01301e-06
1.51303e-08
-3.44938e-08
-5.85475e-09
2.80527e-09
-1.37122e-06
-1.21762e-08
8.23733e-10
-1.76468e-06
-1.79051e-08
-3.76108e-10
-2.10695e-06
-2.25349e-08
-1.41603e-09
-2.45612e-06
-2.59471e-08
-2.47674e-09
-2.82306e-06
-2.83531e-08
-3.60373e-09
-3.20976e-06
-3.01671e-08
-4.84166e-09
-3.61497e-06
-6.21743e-09
-4.03495e-06
-3.1868e-08
-4.63052e-09
-3.04226e-09
-1.37881e-06
-1.02335e-08
-2.42745e-09
-1.77276e-06
-1.55271e-08
-2.06622e-09
-2.11627e-06
-1.99371e-08
-1.74212e-09
-2.46708e-06
-2.3198e-08
-1.45927e-09
-2.8359e-06
-2.56096e-08
-1.2481e-09
-3.22435e-06
-2.75648e-08
-1.13197e-09
-3.63146e-06
-1.15967e-09
-4.05352e-06
-2.9543e-08
-3.42438e-09
-9.22082e-09
-1.37791e-06
-7.92306e-09
-6.457e-09
-1.77382e-06
-1.23718e-08
-4.70802e-09
-2.11873e-06
-1.62311e-08
-3.10031e-09
-2.4708e-06
-1.92637e-08
-1.4766e-09
-2.84075e-06
-2.14182e-08
1.58682e-10
-3.23058e-06
-2.32471e-08
1.70723e-09
-3.63912e-06
3.12186e-09
-4.06279e-06
-2.5323e-08
-3.03303e-09
-1.52601e-08
-1.37295e-06
-6.65671e-09
-1.07964e-08
-1.76913e-06
-9.99777e-09
-7.85365e-09
-2.11417e-06
-1.26711e-08
-5.1384e-09
-2.46639e-06
-1.462e-08
-2.37519e-09
-2.83674e-06
-1.61055e-08
4.42058e-10
-3.22727e-06
-1.7669e-08
3.27414e-09
-3.63676e-06
6.01553e-09
-4.06153e-06
-1.98605e-08
-2.35869e-09
-2.19166e-08
-1.36632e-06
-5.26287e-09
-1.58397e-08
-1.76202e-06
-7.796e-09
-1.19234e-08
-2.10657e-06
-9.64972e-09
-8.36852e-09
-2.45823e-06
-1.08835e-08
-4.75077e-09
-2.82807e-06
-1.18774e-08
-1.00423e-09
-3.21814e-06
-1.31862e-08
2.82918e-09
-3.62722e-06
6.66613e-09
-4.05171e-06
-1.54075e-08
-2.63124e-09
-1.36038e-06
-2.85451e-08
-5.53403e-09
-1.75518e-06
-2.12597e-08
-7.89011e-09
-2.09885e-06
-1.67321e-08
-9.47885e-09