/*--------------------------------*- C++ -*----------------------------------*\
| =========                 |                                                 |
| \\      /  F ield         | OpenFOAM: The Open Source CFD Toolbox           |
|  \\    /   O peration     | Version:  plus.master                           |
|   \\  /    A nd           | Web:      www.OpenFOAM.com                      |
|    \\/     M anipulation  |                                                 |
\*---------------------------------------------------------------------------*/
FoamFile
{
    version     2.0;
    format      ascii;
    class       volScalarField;
    location    "7.2";
    object      p;
}
// * * * * * * * * * * * * * * * * * * * * * * * * * * * * * * * * * * * * * //

dimensions      [1 -1 -2 0 0 0 0];

internalField   nonuniform List<scalar> 
47285
(
5619.94
5614.83
5611.88
5611.7
5611.64
5614.71
5619.3
5614.78
5620.08
5609.39
5609.43
5610.71
5619.9
5614.3
5611.53
5609.66
5610.94
5608.65
5611.37
5609.5
5611.78
5611.8
5609.7
5607.35
5608.81
5608.94
5610.56
5612.76
5611.61
5609.5
5610.89
5608.53
5611.33
5609.45
5612.01
5614.77
5619.98
5609.38
5609.35
5610.65
5619.8
5614.5
5619.69
5614.2
5611.17
5611.15
5611.16
5614.42
5619.25
5506.77
5506.62
5507.38
5507.4
5507.23
5506.74
5506.84
5506.38
5509.04
5510.94
5511.92
5510.2
5507.87
5506.97
5506.63
5511.56
5527.1
5526.47
5525.54
5509.55
5507.92
5506.53
5511.8
5525.56
5530.88
5524.23
5509.31
5508.14
5506.61
5511.5
5527.16
5526.53
5525.45
5509.47
5507.9
5506.37
5508.72
5510.92
5511.98
5510.08
5507.79
5506.98
5506.76
5506.59
5507.29
5507.33
5507.26
5506.74
5506.83
5385.37
5386.95
5388.49
5388.8
5387.45
5385.73
5383.95
5387.04
5389.07
5392.56
5394.5
5390.24
5387.65
5385.48
5388.38
5392.68
5406.35
5409.63
5400.92
5389.58
5386.86
5389.1
5396.73
5410.32
5415.65
5400.04
5389.12
5387.02
5388.41
5392.78
5406.63
5410.13
5401.09
5389.49
5386.82
5387.07
5389.17
5392.49
5394.84
5390.2
5387.62
5385.48
5385.41
5387.01
5388.45
5388.79
5387.43
5385.74
5383.98
5256.14
5258.77
5260.5
5260.92
5258.55
5255.87
5252.97
5259.42
5262.59
5265.49
5267.67
5261.88
5258.86
5255.48
5261.81
5266.21
5278.79
5283.59
5268.91
5261.43
5257.48
5264.01
5271.99
5285.96
5290.87
5268.01
5261.5
5257.95
5261.85
5266.23
5279.23
5284.56
5269.46
5261.59
5257.57
5259.54
5262.69
5265.73
5268.35
5262.04
5259.07
5255.68
5256.4
5259.08
5260.81
5261.25
5258.84
5256.18
5253.26
5107.77
5111.39
5113.96
5114.48
5111.92
5108.24
5104.29
5112.12
5116.93
5121.02
5122.57
5117.82
5112.89
5107.8
5115.48
5121.73
5134.74
5141.29
5125.78
5117.03
5110.72
5117.87
5128.51
5146.62
5150.6
5126.77
5118.24
5111.7
5115.55
5121.84
5135.2
5142.74
5126.23
5117.18
5110.81
5112.28
5117.2
5121.48
5123.54
5118.09
5113.12
5107.97
5108.03
5111.74
5114.36
5114.97
5112.25
5108.52
5104.5
5623.66
5626.71
5628.95
5630.73
5632.18
5633.33
5634.25
5635.02
5620.67
5625.06
5627.88
5630.06
5631.76
5633.09
5634.14
5635.02
5618.85
5624.31
5627.43
5629.79
5631.59
5632.99
5634.13
5635.08
5619.25
5624.44
5627.45
5629.79
5631.62
5633.02
5634.07
5635.01
5618.83
5624.18
5627.43
5629.8
5631.61
5632.99
5634.12
5635.07
5620.45
5624.9
5627.92
5630.05
5631.74
5633.06
5634.11
5634.99
5623.53
5626.62
5628.94
5630.72
5632.15
5633.3
5634.23
5635.01
5506.85
5506.87
5506.98
5507.16
5507.37
5507.6
5507.84
5508.1
5507.06
5506.99
5507.02
5507.15
5507.35
5507.59
5507.86
5508.14
5507.62
5507.32
5507.17
5507.21
5507.37
5507.59
5507.85
5508.14
5507.82
5507.48
5507.28
5507.27
5507.41
5507.62
5507.88
5508.16
5507.61
5507.32
5507.18
5507.21
5507.37
5507.59
5507.85
5508.14
5507.06
5506.99
5507.02
5507.15
5507.35
5507.59
5507.85
5508.13
5506.85
5506.88
5506.99
5507.17
5507.38
5507.61
5507.86
5508.11
5382.44
5381.41
5380.63
5380.04
5379.6
5379.28
5379.09
5379.04
5383.56
5382.13
5381.06
5380.29
5379.73
5379.34
5379.11
5379.03
5384.57
5382.81
5381.48
5380.53
5379.86
5379.4
5379.13
5379.04
5384.84
5383.06
5381.65
5380.64
5379.93
5379.44
5379.15
5379.05
5384.58
5382.83
5381.5
5380.56
5379.89
5379.43
5379.15
5379.06
5383.58
5382.16
5381.1
5380.34
5379.78
5379.39
5379.15
5379.08
5382.48
5381.46
5380.69
5380.11
5379.66
5379.35
5379.15
5379.09
5250.49
5248.84
5247.69
5246.96
5246.67
5246.85
5247.56
5248.78
5252.32
5250.02
5248.36
5247.28
5246.74
5246.79
5247.47
5248.76
5253.87
5251.02
5248.93
5247.57
5246.85
5246.78
5247.41
5248.73
5254.38
5251.44
5249.21
5247.74
5246.95
5246.84
5247.45
5248.77
5253.94
5251.12
5249.04
5247.68
5246.96
5246.89
5247.53
5248.84
5252.54
5250.23
5248.57
5247.5
5246.97
5247.02
5247.7
5248.98
5250.81
5249.18
5248.05
5247.34
5247.05
5247.25
5247.97
5249.19
5101
5098.5
5096.47
5094.78
5093.32
5091.64
5089.49
5088.88
5103.5
5100.2
5097.56
5095.45
5093.71
5091.83
5089.42
5088.5
5105.47
5101.49
5098.37
5095.95
5093.98
5091.93
5089.33
5088.22
5106.24
5102.04
5098.75
5096.21
5094.17
5092.06
5089.38
5088.2
5105.56
5101.58
5098.45
5096.03
5094.05
5091.99
5089.38
5088.26
5103.64
5100.34
5097.68
5095.56
5093.8
5091.89
5089.45
5088.49
5101.23
5098.74
5096.68
5094.97
5093.47
5091.75
5089.55
5088.85
5624.2
5627.04
5629.24
5631.01
5632.43
5633.58
5634.53
5635.33
5621.4
5625.34
5628.19
5630.38
5632.06
5633.37
5634.39
5635.19
5619.77
5624.56
5627.65
5630.07
5631.93
5633.34
5634.49
5635.42
5619.61
5624.46
5627.6
5630.13
5632.08
5633.58
5634.75
5635.7
5619.71
5624.56
5627.68
5630.13
5632
5633.4
5634.45
5635.36
5621.38
5625.39
5628.24
5630.36
5632.01
5633.31
5634.37
5635.24
5624.3
5627.09
5629.28
5631.05
5632.47
5633.63
5634.58
5635.38
5506.96
5507.1
5507.29
5507.52
5507.76
5508
5508.25
5508.49
5506.92
5507.09
5507.26
5507.48
5507.72
5507.97
5508.23
5508.48
5507.25
5507.33
5507.41
5507.57
5507.79
5508.03
5508.28
5508.53
5507.43
5507.52
5507.58
5507.73
5507.96
5508.21
5508.47
5508.72
5507.25
5507.33
5507.4
5507.57
5507.79
5508.04
5508.29
5508.53
5506.91
5507.07
5507.24
5507.46
5507.7
5507.96
5508.22
5508.48
5506.96
5507.09
5507.28
5507.5
5507.73
5507.97
5508.22
5508.46
5383.78
5382.65
5381.8
5381.15
5380.64
5380.26
5380
5379.86
5385.16
5383.59
5382.38
5381.5
5380.84
5380.36
5380.03
5379.85
5386.39
5384.58
5383.06
5381.94
5381.13
5380.54
5380.15
5379.93
5387.67
5385.43
5383.6
5382.27
5381.35
5380.71
5380.29
5380.06
5386.39
5384.57
5383.05
5381.93
5381.11
5380.53
5380.14
5379.92
5385.15
5383.58
5382.38
5381.5
5380.85
5380.37
5380.05
5379.89
5383.75
5382.62
5381.78
5381.12
5380.61
5380.23
5379.97
5379.83
5253.46
5251.57
5250.23
5249.34
5248.9
5248.93
5249.5
5250.55
5255.85
5253.05
5251.02
5249.68
5248.92
5248.76
5249.23
5250.32
5257.96
5254.6
5251.92
5250.12
5249.07
5248.71
5249.09
5250.13
5259.63
5255.78
5252.61
5250.47
5249.25
5248.79
5249.08
5250.08
5257.88
5254.52
5251.86
5250.07
5249.02
5248.69
5249.07
5250.14
5255.73
5252.94
5250.93
5249.6
5248.87
5248.72
5249.22
5250.32
5253.23
5251.32
5249.98
5249.1
5248.66
5248.7
5249.26
5250.33
5104.43
5101.85
5099.71
5097.92
5096.35
5094.57
5092.32
5091.52
5107.34
5103.71
5100.86
5098.61
5096.76
5094.8
5092.36
5091.42
5109.86
5105.36
5101.79
5099.1
5096.97
5094.84
5092.28
5091.43
5111.66
5106.58
5102.47
5099.53
5097.2
5094.99
5092.4
5091.68
5109.84
5105.36
5101.82
5099.16
5097.06
5094.95
5092.39
5091.49
5107.26
5103.68
5100.88
5098.69
5096.89
5094.98
5092.58
5091.65
5104.19
5101.63
5099.53
5097.8
5096.28
5094.55
5092.39
5091.69
5624.38
5627.17
5629.34
5631.11
5632.53
5633.68
5634.63
5635.42
5621.38
5625.53
5628.41
5630.57
5632.19
5633.49
5634.53
5635.39
5619.79
5624.8
5627.92
5630.39
5632.3
5633.74
5634.83
5635.68
5619.64
5624.62
5627.77
5630.25
5632.15
5633.65
5634.84
5635.79
5619.82
5624.65
5627.71
5630.07
5631.89
5633.35
5634.47
5635.31
5621.37
5625.36
5628.16
5630.3
5631.97
5633.28
5634.28
5635.1
5623.88
5626.78
5628.99
5630.78
5632.26
5633.46
5634.45
5635.28
5507.01
5507.14
5507.32
5507.54
5507.77
5508
5508.24
5508.47
5507.12
5507.26
5507.39
5507.57
5507.78
5508
5508.22
5508.45
5507.68
5507.65
5507.68
5507.81
5508
5508.23
5508.48
5508.71
5507.85
5507.7
5507.67
5507.78
5507.97
5508.2
5508.44
5508.67
5507.48
5507.37
5507.36
5507.47
5507.65
5507.86
5508.1
5508.34
5507
5507.02
5507.11
5507.26
5507.46
5507.68
5507.92
5508.16
5506.87
5506.91
5507.03
5507.2
5507.41
5507.63
5507.87
5508.11
5383.74
5382.64
5381.79
5381.13
5380.62
5380.23
5379.97
5379.83
5385
5383.47
5382.29
5381.42
5380.76
5380.28
5379.96
5379.79
5386.24
5384.43
5382.95
5381.84
5381.05
5380.49
5380.13
5379.93
5386.51
5384.52
5382.93
5381.76
5380.93
5380.36
5380
5379.82
5385.34
5383.6
5382.22
5381.2
5380.46
5379.94
5379.61
5379.44
5383.9
5382.48
5381.4
5380.6
5380.01
5379.58
5379.31
5379.19
5382.55
5381.55
5380.78
5380.17
5379.71
5379.38
5379.17
5379.1
5253.08
5251.23
5249.87
5248.96
5248.48
5248.49
5249.02
5250.07
5254.98
5252.28
5250.27
5248.93
5248.18
5248.01
5248.48
5249.53
5256.59
5253.44
5250.92
5249.19
5248.2
5247.9
5248.31
5249.37
5256.82
5253.54
5250.86
5249
5247.93
5247.58
5247.96
5248.99
5254.95
5252.02
5249.74
5248.19
5247.31
5247.09
5247.56
5248.66
5252.66
5250.31
5248.58
5247.42
5246.8
5246.74
5247.3
5248.45
5250.62
5249.04
5247.88
5247.11
5246.77
5246.89
5247.54
5248.71
5104.07
5101.56
5099.43
5097.65
5096.08
5094.32
5092.14
5091.52
5106.34
5102.81
5100.02
5097.85
5096.07
5094.15
5091.82
5091.22
5108.3
5103.97
5100.51
5097.93
5095.93
5093.9
5091.44
5091.02
5108.67
5104.12
5100.43
5097.73
5095.66
5093.58
5091.12
5090.92
5106.59
5102.51
5099.29
5096.85
5094.98
5092.99
5090.56
5090.25
5103.83
5100.63
5098.06
5096.02
5094.35
5092.52
5090.23
5089.76
5101.31
5099
5096.97
5095.26
5093.76
5092.03
5089.9
5089.41
5623.86
5626.7
5628.93
5630.75
5632.21
5633.4
5634.39
5635.2
5621.31
5625.39
5628.13
5630.27
5631.91
5633.21
5634.26
5635.09
5619.69
5624.78
5627.71
5630.11
5631.93
5633.32
5634.39
5635.24
5619.29
5624.61
5627.66
5630.17
5632.1
5633.6
5634.78
5635.71
5619.53
5624.86
5627.81
5630.24
5632.11
5633.54
5634.67
5635.56
5621.01
5625.54
5628.35
5630.54
5632.23
5633.51
5634.55
5635.4
5624.22
5627.11
5629.3
5631.06
5632.47
5633.61
5634.55
5635.34
5506.86
5506.9
5507.03
5507.21
5507.41
5507.64
5507.88
5508.13
5506.98
5507
5507.09
5507.25
5507.45
5507.68
5507.92
5508.16
5507.46
5507.34
5507.32
5507.43
5507.61
5507.83
5508.06
5508.29
5507.79
5507.64
5507.59
5507.68
5507.86
5508.09
5508.34
5508.59
5507.61
5507.59
5507.6
5507.72
5507.91
5508.13
5508.37
5508.6
5507.09
5507.23
5507.36
5507.54
5507.76
5507.99
5508.22
5508.46
5507
5507.13
5507.31
5507.54
5507.77
5508.01
5508.26
5508.5
5382.59
5381.59
5380.83
5380.23
5379.78
5379.45
5379.25
5379.17
5383.94
5382.52
5381.44
5380.65
5380.06
5379.64
5379.37
5379.25
5385.37
5383.62
5382.24
5381.21
5380.46
5379.94
5379.59
5379.41
5386.55
5384.56
5382.95
5381.76
5380.92
5380.34
5379.96
5379.77
5386.25
5384.43
5382.92
5381.8
5380.99
5380.42
5380.04
5379.84
5385.03
5383.49
5382.29
5381.41
5380.76
5380.28
5379.96
5379.8
5383.76
5382.64
5381.78
5381.13
5380.62
5380.24
5379.98
5379.84
5250.96
5249.4
5248.27
5247.55
5247.24
5247.41
5248.1
5249.29
5253.01
5250.68
5248.98
5247.85
5247.27
5247.27
5247.88
5249.12
5255.29
5252.35
5250.06
5248.51
5247.66
5247.47
5247.98
5249.16
5257.19
5253.88
5251.13
5249.25
5248.18
5247.86
5248.28
5249.37
5256.9
5253.72
5251.16
5249.43
5248.45
5248.18
5248.64
5249.77
5255.31
5252.58
5250.58
5249.26
5248.54
5248.41
5248.91
5250.03
5253.35
5251.48
5250.13
5249.24
5248.8
5248.84
5249.4
5250.46
5101.47
5099.12
5097.08
5095.35
5093.84
5092.12
5089.94
5089.28
5104.08
5100.82
5098.2
5096.11
5094.39
5092.56
5090.26
5089.51
5106.87
5102.7
5099.37
5096.86
5094.88
5092.88
5090.45
5089.8
5109.02
5104.34
5100.51
5097.66
5095.49
5093.38
5090.89
5090.36
5108.61
5104.17
5100.61
5097.96
5095.89
5093.84
5091.36
5090.64
5106.65
5103.04
5100.18
5097.96
5096.15
5094.24
5091.87
5091
5104.28
5101.71
5099.56
5097.76
5096.19
5094.41
5092.17
5091.39
5635.67
5635.73
5635.78
5635.75
5635.76
5635.69
5635.65
5508.37
5508.44
5508.44
5508.45
5508.43
5508.41
5508.37
5379.13
5379.12
5379.14
5379.16
5379.15
5379.17
5379.17
5250.18
5250.24
5250.25
5250.3
5250.34
5250.44
5250.56
5094.55
5094.36
5094.26
5094.29
5094.27
5094.3
5094.36
5635.99
5635.86
5636.06
5636.41
5636.04
5635.9
5636.03
5508.72
5508.73
5508.75
5508.95
5508.75
5508.73
5508.7
5379.85
5379.83
5379.88
5380.02
5379.89
5379.88
5379.82
5251.71
5251.59
5251.35
5251.26
5251.39
5251.59
5251.52
5096.72
5097.02
5097.8
5098.48
5097.72
5097.26
5096.99
5636.05
5636.07
5636.31
5636.48
5635.93
5635.79
5635.94
5508.7
5508.66
5508.91
5508.88
5508.56
5508.39
5508.36
5379.82
5379.76
5379.9
5379.8
5379.43
5379.22
5379.16
5251.28
5250.75
5250.55
5250.11
5249.88
5249.78
5250.09
5096.99
5097.51
5098.37
5098.88
5097.76
5096.38
5095.22
5635.84
5635.76
5635.87
5636.38
5636.2
5636.05
5635.98
5508.38
5508.4
5508.51
5508.81
5508.81
5508.68
5508.73
5379.23
5379.29
5379.4
5379.75
5379.8
5379.78
5379.82
5250.64
5250.52
5250.51
5250.6
5251.07
5251.32
5251.63
5094.8
5095.48
5096.55
5097.61
5097.2
5096.71
5096.63
5636.61
5637.57
5638.3
5638.87
5639.3
5639.61
5639.84
5639.99
5636.71
5637.68
5638.39
5638.93
5639.34
5639.63
5639.84
5639.98
5636.71
5637.68
5638.4
5638.91
5639.31
5639.61
5639.82
5639.95
5636.65
5637.62
5638.4
5638.96
5639.33
5639.59
5639.8
5639.93
5636.67
5637.65
5638.37
5638.88
5639.28
5639.57
5639.78
5639.92
5636.66
5637.63
5638.34
5638.87
5639.27
5639.56
5639.77
5639.91
5636.58
5637.53
5638.25
5638.8
5639.21
5639.51
5639.73
5639.87
5508.79
5509.2
5509.53
5509.8
5510.02
5510.21
5510.36
5510.46
5508.89
5509.27
5509.58
5509.85
5510.07
5510.24
5510.38
5510.48
5508.87
5509.27
5509.59
5509.85
5510.06
5510.24
5510.37
5510.47
5508.87
5509.29
5509.62
5509.88
5510.08
5510.24
5510.37
5510.46
5508.86
5509.26
5509.57
5509.83
5510.04
5510.21
5510.34
5510.43
5508.83
5509.23
5509.54
5509.8
5510.01
5510.18
5510.32
5510.41
5508.77
5509.17
5509.48
5509.74
5509.95
5510.12
5510.25
5510.35
5379.36
5379.77
5380.14
5380.43
5380.65
5380.81
5380.92
5380.99
5379.35
5379.8
5380.18
5380.48
5380.69
5380.85
5380.96
5381.03
5379.39
5379.82
5380.19
5380.48
5380.69
5380.85
5380.95
5381.02
5379.4
5379.82
5380.2
5380.48
5380.7
5380.85
5380.95
5381.02
5379.39
5379.81
5380.18
5380.46
5380.67
5380.82
5380.93
5380.99
5379.4
5379.81
5380.17
5380.45
5380.65
5380.8
5380.9
5380.96
5379.37
5379.79
5380.14
5380.4
5380.59
5380.73
5380.83
5380.89
5251.59
5251.51
5251.41
5251.36
5251.36
5251.38
5251.42
5251.46
5251.67
5251.57
5251.45
5251.4
5251.4
5251.42
5251.46
5251.5
5251.68
5251.59
5251.46
5251.41
5251.4
5251.42
5251.46
5251.49
5251.72
5251.62
5251.49
5251.43
5251.42
5251.43
5251.47
5251.5
5251.75
5251.63
5251.48
5251.41
5251.39
5251.41
5251.44
5251.47
5251.82
5251.65
5251.49
5251.4
5251.37
5251.38
5251.41
5251.44
5251.91
5251.68
5251.47
5251.37
5251.32
5251.32
5251.34
5251.36
5107
5114.39
5117.87
5119.68
5120.68
5121.24
5121.56
5121.74
5106.82
5114.32
5117.84
5119.68
5120.69
5121.26
5121.59
5121.77
5106.7
5114.26
5117.81
5119.66
5120.68
5121.25
5121.58
5121.76
5106.69
5114.25
5117.81
5119.67
5120.68
5121.25
5121.58
5121.77
5106.68
5114.25
5117.8
5119.65
5120.66
5121.23
5121.56
5121.74
5106.74
5114.29
5117.82
5119.66
5120.66
5121.22
5121.54
5121.72
5106.86
5114.35
5117.86
5119.66
5120.64
5121.18
5121.48
5121.65
5636.92
5637.86
5638.56
5639.07
5639.44
5639.72
5639.92
5640.05
5636.83
5637.76
5638.45
5638.95
5639.31
5639.57
5639.74
5639.84
5636.9
5637.73
5638.34
5638.77
5639.09
5639.33
5639.49
5639.58
5637.32
5638.17
5638.75
5639.16
5639.41
5639.6
5639.77
5639.86
5636.88
5637.72
5638.33
5638.76
5639.08
5639.33
5639.5
5639.6
5636.83
5637.78
5638.49
5638.99
5639.37
5639.65
5639.83
5639.93
5636.93
5637.87
5638.58
5639.1
5639.49
5639.78
5639.98
5640.12
5509.05
5509.38
5509.65
5509.86
5510.04
5510.18
5510.3
5510.38
5509.09
5509.43
5509.68
5509.87
5510.02
5510.13
5510.21
5510.27
5509.07
5509.37
5509.6
5509.77
5509.88
5509.96
5510.02
5510.06
5509.26
5509.57
5509.81
5509.99
5510.11
5510.2
5510.28
5510.34
5509.06
5509.37
5509.61
5509.78
5509.9
5509.98
5510.04
5510.07
5509.1
5509.46
5509.73
5509.93
5510.09
5510.2
5510.29
5510.36
5509.03
5509.38
5509.66
5509.89
5510.08
5510.23
5510.36
5510.45
5379.96
5380.2
5380.41
5380.58
5380.69
5380.78
5380.84
5380.88
5379.88
5380.1
5380.31
5380.48
5380.6
5380.69
5380.75
5380.8
5379.93
5380.06
5380.2
5380.3
5380.37
5380.41
5380.45
5380.48
5380.07
5380.22
5380.4
5380.55
5380.66
5380.74
5380.8
5380.84
5379.95
5380.09
5380.24
5380.37
5380.43
5380.47
5380.48
5380.5
5379.95
5380.18
5380.39
5380.56
5380.69
5380.77
5380.84
5380.88
5379.94
5380.2
5380.43
5380.61
5380.74
5380.84
5380.9
5380.95
5252.67
5252.19
5251.82
5251.58
5251.44
5251.37
5251.35
5251.34
5252.65
5252.25
5251.88
5251.63
5251.47
5251.37
5251.32
5251.31
5252.56
5252.31
5251.96
5251.64
5251.38
5251.16
5251.04
5251
5252.48
5252.38
5252.1
5251.85
5251.64
5251.49
5251.4
5251.35
5252.57
5252.31
5251.95
5251.63
5251.38
5251.18
5251.05
5250.99
5252.67
5252.26
5251.9
5251.66
5251.51
5251.42
5251.38
5251.36
5252.56
5252.15
5251.83
5251.62
5251.5
5251.44
5251.43
5251.42
5108.48
5115.36
5118.5
5120.08
5120.9
5121.33
5121.57
5121.69
5108.68
5115.49
5118.58
5120.12
5120.9
5121.3
5121.51
5121.63
5109.26
5115.86
5118.84
5120.26
5120.92
5121.18
5121.29
5121.31
5109.85
5116.23
5119.11
5120.47
5121.13
5121.42
5121.56
5121.63
5109.2
5115.81
5118.78
5120.21
5120.89
5121.18
5121.29
5121.33
5108.85
5115.57
5118.63
5120.15
5120.93
5121.33
5121.54
5121.65
5108.71
5115.48
5118.58
5120.14
5120.96
5121.4
5121.64
5121.77
5636.94
5637.86
5638.55
5639.07
5639.46
5639.76
5639.99
5640.14
5636.95
5637.86
5638.56
5639.04
5639.37
5639.62
5639.81
5639.94
5637.13
5637.95
5638.56
5639.01
5639.33
5639.55
5639.69
5639.78
5637.36
5638.19
5638.76
5639.16
5639.44
5639.62
5639.75
5639.85
5636.75
5637.59
5638.25
5638.75
5639.11
5639.35
5639.52
5639.63
5636.69
5637.65
5638.38
5638.87
5639.24
5639.5
5639.7
5639.84
5636.84
5637.75
5638.43
5638.94
5639.33
5639.62
5639.83
5639.98
5509.04
5509.39
5509.68
5509.91
5510.1
5510.27
5510.4
5510.5
5508.97
5509.34
5509.65
5509.88
5510.05
5510.18
5510.29
5510.38
5509.19
5509.5
5509.75
5509.94
5510.08
5510.19
5510.26
5510.3
5509.16
5509.47
5509.72
5509.91
5510.05
5510.16
5510.25
5510.31
5508.86
5509.21
5509.48
5509.7
5509.87
5510
5510.09
5510.14
5508.73
5509.14
5509.48
5509.73
5509.92
5510.08
5510.2
5510.3
5508.75
5509.17
5509.5
5509.77
5509.99
5510.17
5510.32
5510.42
5379.9
5380.15
5380.41
5380.62
5380.78
5380.9
5380.98
5381.04
5379.83
5380.01
5380.25
5380.44
5380.6
5380.72
5380.81
5380.87
5379.97
5380.15
5380.36
5380.55
5380.7
5380.83
5380.9
5380.92
5379.89
5380.07
5380.25
5380.41
5380.52
5380.61
5380.67
5380.71
5379.54
5379.75
5379.99
5380.2
5380.39
5380.54
5380.64
5380.7
5379.37
5379.64
5379.95
5380.21
5380.43
5380.59
5380.72
5380.79
5379.36
5379.72
5380.08
5380.37
5380.59
5380.76
5380.88
5380.96
5252.4
5252.1
5251.83
5251.66
5251.56
5251.53
5251.52
5251.53
5252.01
5251.95
5251.73
5251.57
5251.47
5251.42
5251.41
5251.4
5251.79
5252.02
5252.02
5251.93
5251.84
5251.75
5251.69
5251.65
5251.28
5251.49
5251.5
5251.46
5251.42
5251.41
5251.39
5251.36
5251.18
5251.5
5251.56
5251.53
5251.48
5251.42
5251.4
5251.39
5251.24
5251.41
5251.35
5251.3
5251.28
5251.28
5251.3
5251.32
5251.47
5251.49
5251.4
5251.36
5251.35
5251.38
5251.42
5251.45
5108.68
5115.41
5118.52
5120.11
5120.97
5121.44
5121.7
5121.85
5108.94
5115.45
5118.5
5120.07
5120.93
5121.4
5121.67
5121.81
5109.57
5115.66
5118.55
5120.09
5120.94
5121.44
5121.75
5121.94
5109.84
5115.76
5118.62
5120.11
5120.95
5121.46
5121.75
5121.89
5109.08
5115.23
5118.17
5119.76
5120.68
5121.22
5121.55
5121.74
5108.08
5114.77
5117.98
5119.68
5120.64
5121.18
5121.5
5121.68
5107.4
5114.54
5117.92
5119.7
5120.68
5121.23
5121.56
5121.74
5636.73
5637.64
5638.33
5638.83
5639.2
5639.47
5639.66
5639.8
5636.67
5637.56
5638.22
5638.71
5639.06
5639.3
5639.46
5639.57
5636.7
5637.52
5638.13
5638.59
5638.93
5639.16
5639.32
5639.42
5637.25
5638.04
5638.61
5639
5639.28
5639.49
5639.62
5639.73
5637.04
5637.84
5638.41
5638.83
5639.12
5639.33
5639.46
5639.55
5636.93
5637.8
5638.45
5638.93
5639.28
5639.52
5639.69
5639.79
5636.89
5637.81
5638.5
5639.02
5639.4
5639.68
5639.89
5640.02
5508.77
5509.15
5509.45
5509.69
5509.88
5510.03
5510.15
5510.24
5508.75
5509.13
5509.42
5509.62
5509.78
5509.89
5509.98
5510.05
5508.81
5509.13
5509.37
5509.55
5509.69
5509.78
5509.85
5509.9
5509.11
5509.42
5509.66
5509.83
5509.96
5510.07
5510.14
5510.21
5509.1
5509.39
5509.6
5509.76
5509.87
5509.94
5509.99
5510.03
5509.02
5509.38
5509.63
5509.82
5509.97
5510.08
5510.17
5510.23
5509.05
5509.37
5509.63
5509.84
5510.02
5510.16
5510.28
5510.37
5379.4
5379.77
5380.09
5380.33
5380.5
5380.63
5380.71
5380.77
5379.44
5379.7
5379.97
5380.18
5380.33
5380.44
5380.52
5380.56
5379.51
5379.7
5379.9
5380.05
5380.17
5380.24
5380.28
5380.31
5379.83
5380.01
5380.2
5380.37
5380.48
5380.57
5380.63
5380.68
5379.88
5380.05
5380.22
5380.35
5380.43
5380.47
5380.49
5380.49
5379.87
5380.08
5380.29
5380.45
5380.58
5380.67
5380.73
5380.77
5379.94
5380.19
5380.4
5380.57
5380.69
5380.78
5380.84
5380.88
5251.94
5251.69
5251.47
5251.34
5251.26
5251.23
5251.23
5251.24
5251.83
5251.69
5251.46
5251.3
5251.19
5251.12
5251.09
5251.07
5251.93
5251.85
5251.61
5251.39
5251.2
5251.04
5250.91
5250.83
5251.87
5251.9
5251.74
5251.55
5251.39
5251.27
5251.21
5251.18
5252.39
5252.24
5251.95
5251.69
5251.46
5251.28
5251.13
5251.03
5252.44
5252.11
5251.78
5251.55
5251.41
5251.33
5251.29
5251.28
5252.62
5252.17
5251.81
5251.58
5251.45
5251.39
5251.36
5251.36
5107.17
5114.53
5117.95
5119.7
5120.63
5121.13
5121.41
5121.56
5107.65
5114.81
5118.1
5119.76
5120.61
5121.06
5121.29
5121.4
5108.4
5115.27
5118.41
5119.94
5120.69
5121.01
5121.11
5121.1
5109.31
5115.88
5118.84
5120.28
5120.97
5121.3
5121.44
5121.52
5108.84
5115.56
5118.63
5120.15
5120.9
5121.25
5121.39
5121.4
5108.47
5115.34
5118.47
5120.04
5120.85
5121.27
5121.48
5121.6
5108.42
5115.32
5118.48
5120.07
5120.9
5121.34
5121.58
5121.71
5640.06
5640.1
5640.12
5640.13
5640.14
5640.14
5640.14
5640.14
5640.05
5640.09
5640.11
5640.12
5640.13
5640.13
5640.13
5640.13
5640.02
5640.06
5640.08
5640.1
5640.1
5640.1
5640.1
5640.11
5640
5640.04
5640.07
5640.08
5640.09
5640.09
5640.09
5640.09
5639.99
5640.02
5640.05
5640.06
5640.07
5640.07
5640.07
5640.07
5639.97
5640.01
5640.04
5640.05
5640.05
5640.05
5640.05
5640.05
5639.94
5639.97
5640
5640.01
5640.01
5640.01
5640.01
5640.02
5510.51
5510.55
5510.58
5510.6
5510.61
5510.61
5510.61
5510.61
5510.53
5510.56
5510.59
5510.61
5510.62
5510.62
5510.62
5510.62
5510.52
5510.55
5510.57
5510.59
5510.6
5510.6
5510.6
5510.6
5510.51
5510.54
5510.57
5510.58
5510.59
5510.59
5510.59
5510.59
5510.49
5510.52
5510.54
5510.56
5510.57
5510.57
5510.57
5510.57
5510.46
5510.49
5510.52
5510.53
5510.54
5510.55
5510.55
5510.54
5510.4
5510.44
5510.46
5510.48
5510.49
5510.49
5510.5
5510.49
5381.03
5381.06
5381.08
5381.1
5381.11
5381.11
5381.11
5381.11
5381.06
5381.09
5381.11
5381.12
5381.13
5381.13
5381.13
5381.13
5381.05
5381.08
5381.1
5381.11
5381.12
5381.12
5381.12
5381.12
5381.05
5381.08
5381.1
5381.11
5381.11
5381.12
5381.12
5381.11
5381.03
5381.05
5381.07
5381.08
5381.09
5381.09
5381.09
5381.09
5381
5381.02
5381.04
5381.05
5381.06
5381.06
5381.06
5381.06
5380.93
5380.96
5380.98
5380.99
5381
5381
5381
5381
5251.49
5251.51
5251.52
5251.54
5251.54
5251.55
5251.55
5251.55
5251.52
5251.55
5251.56
5251.57
5251.58
5251.58
5251.58
5251.58
5251.52
5251.54
5251.55
5251.56
5251.57
5251.57
5251.57
5251.57
5251.52
5251.54
5251.56
5251.57
5251.57
5251.57
5251.57
5251.57
5251.49
5251.51
5251.53
5251.54
5251.54
5251.55
5251.55
5251.54
5251.46
5251.48
5251.5
5251.51
5251.52
5251.52
5251.52
5251.52
5251.39
5251.41
5251.42
5251.43
5251.44
5251.45
5251.45
5251.44
5121.83
5121.89
5121.92
5121.95
5121.97
5121.98
5121.98
5121.98
5121.86
5121.91
5121.95
5121.98
5122
5122.01
5122.01
5122.01
5121.85
5121.91
5121.94
5121.97
5121.99
5122
5122
5122
5121.86
5121.91
5121.95
5121.98
5121.99
5122
5122.01
5122
5121.83
5121.88
5121.92
5121.95
5121.96
5121.97
5121.98
5121.98
5121.81
5121.86
5121.9
5121.93
5121.94
5121.95
5121.96
5121.96
5121.73
5121.78
5121.82
5121.85
5121.87
5121.88
5121.88
5121.88
5640.12
5640.15
5640.17
5640.17
5640.17
5640.16
5640.15
5640.15
5639.9
5639.94
5639.96
5639.97
5639.97
5639.97
5639.97
5639.98
5639.64
5639.67
5639.69
5639.71
5639.73
5639.74
5639.76
5639.79
5639.93
5639.97
5640
5640.03
5640.05
5640.06
5640.06
5640.08
5639.65
5639.69
5639.71
5639.73
5639.75
5639.77
5639.78
5639.81
5639.99
5640.02
5640.04
5640.05
5640.05
5640.05
5640.05
5640.07
5640.19
5640.22
5640.24
5640.25
5640.24
5640.23
5640.22
5640.22
5510.43
5510.47
5510.49
5510.51
5510.52
5510.53
5510.53
5510.53
5510.32
5510.35
5510.37
5510.39
5510.41
5510.41
5510.41
5510.42
5510.09
5510.11
5510.12
5510.14
5510.15
5510.17
5510.18
5510.2
5510.38
5510.41
5510.43
5510.45
5510.46
5510.48
5510.49
5510.51
5510.1
5510.11
5510.13
5510.15
5510.16
5510.18
5510.19
5510.22
5510.4
5510.43
5510.45
5510.47
5510.48
5510.49
5510.49
5510.5
5510.5
5510.54
5510.57
5510.58
5510.6
5510.6
5510.61
5510.6
5380.91
5380.93
5380.95
5380.96
5380.97
5380.98
5380.98
5380.98
5380.83
5380.86
5380.88
5380.9
5380.92
5380.94
5380.95
5380.95
5380.5
5380.52
5380.53
5380.54
5380.55
5380.56
5380.56
5380.58
5380.86
5380.88
5380.9
5380.92
5380.93
5380.94
5380.95
5380.95
5380.51
5380.53
5380.54
5380.55
5380.56
5380.58
5380.58
5380.6
5380.91
5380.93
5380.95
5380.97
5380.99
5381
5381.01
5381.01
5380.98
5381
5381.02
5381.04
5381.05
5381.05
5381.05
5381.05
5251.35
5251.37
5251.38
5251.39
5251.39
5251.4
5251.4
5251.4
5251.31
5251.32
5251.33
5251.34
5251.35
5251.36
5251.36
5251.36
5250.99
5250.99
5251
5251
5251
5251.01
5251.01
5251.02
5251.34
5251.34
5251.34
5251.34
5251.35
5251.35
5251.35
5251.36
5250.98
5250.98
5250.98
5251
5251.01
5251.02
5251.02
5251.02
5251.37
5251.37
5251.38
5251.39
5251.4
5251.41
5251.41
5251.41
5251.43
5251.44
5251.46
5251.46
5251.47
5251.47
5251.48
5251.47
5121.75
5121.79
5121.82
5121.84
5121.85
5121.86
5121.87
5121.87
5121.68
5121.71
5121.74
5121.76
5121.78
5121.79
5121.79
5121.79
5121.38
5121.43
5121.47
5121.5
5121.52
5121.53
5121.53
5121.53
5121.67
5121.7
5121.71
5121.73
5121.74
5121.75
5121.75
5121.75
5121.4
5121.44
5121.5
5121.52
5121.54
5121.55
5121.55
5121.54
5121.71
5121.74
5121.77
5121.79
5121.8
5121.81
5121.82
5121.82
5121.84
5121.87
5121.9
5121.92
5121.93
5121.94
5121.95
5121.95
5640.21
5640.26
5640.28
5640.29
5640.29
5640.28
5640.27
5640.27
5640.02
5640.07
5640.1
5640.12
5640.13
5640.13
5640.13
5640.13
5639.82
5639.85
5639.86
5639.87
5639.88
5639.89
5639.9
5639.92
5639.91
5639.96
5640
5640.02
5640.03
5640.04
5640.06
5640.09
5639.69
5639.72
5639.75
5639.77
5639.79
5639.8
5639.81
5639.84
5639.92
5639.97
5640
5640.02
5640.03
5640.03
5640.03
5640.04
5640.06
5640.1
5640.13
5640.14
5640.14
5640.14
5640.14
5640.14
5510.56
5510.59
5510.62
5510.64
5510.65
5510.66
5510.66
5510.66
5510.43
5510.47
5510.5
5510.52
5510.54
5510.55
5510.55
5510.55
5510.31
5510.32
5510.32
5510.32
5510.32
5510.33
5510.34
5510.35
5510.35
5510.37
5510.38
5510.39
5510.41
5510.43
5510.44
5510.46
5510.17
5510.18
5510.19
5510.19
5510.2
5510.21
5510.22
5510.24
5510.35
5510.39
5510.42
5510.45
5510.47
5510.48
5510.48
5510.49
5510.48
5510.52
5510.55
5510.57
5510.59
5510.59
5510.59
5510.59
5381.07
5381.1
5381.12
5381.13
5381.14
5381.15
5381.15
5381.14
5380.9
5380.92
5380.94
5380.95
5380.96
5380.97
5380.98
5380.98
5380.91
5380.9
5380.89
5380.88
5380.88
5380.88
5380.87
5380.86
5380.73
5380.74
5380.76
5380.77
5380.8
5380.81
5380.82
5380.83
5380.72
5380.73
5380.73
5380.74
5380.74
5380.75
5380.74
5380.74
5380.83
5380.86
5380.88
5380.9
5380.91
5380.92
5380.93
5380.93
5381
5381.03
5381.06
5381.07
5381.08
5381.09
5381.09
5381.09
5251.54
5251.56
5251.57
5251.58
5251.59
5251.59
5251.59
5251.59
5251.39
5251.39
5251.39
5251.38
5251.38
5251.37
5251.36
5251.36
5251.64
5251.64
5251.64
5251.64
5251.64
5251.63
5251.63
5251.62
5251.33
5251.31
5251.3
5251.28
5251.27
5251.26
5251.25
5251.25
5251.38
5251.39
5251.4
5251.41
5251.41
5251.41
5251.41
5251.4
5251.33
5251.34
5251.35
5251.35
5251.36
5251.35
5251.35
5251.35
5251.48
5251.5
5251.52
5251.53
5251.54
5251.55
5251.55
5251.54
5121.92
5121.96
5121.99
5122.01
5122.03
5122.03
5122.04
5122.04
5121.87
5121.9
5121.92
5121.93
5121.93
5121.93
5121.93
5121.92
5122.04
5122.11
5122.17
5122.22
5122.25
5122.27
5122.27
5122.26
5121.93
5121.94
5121.93
5121.91
5121.88
5121.86
5121.84
5121.84
5121.84
5121.9
5121.95
5121.98
5122.01
5122.01
5122.01
5122
5121.76
5121.8
5121.84
5121.86
5121.87
5121.87
5121.87
5121.87
5121.83
5121.89
5121.93
5121.96
5121.97
5121.99
5121.99
5121.99
5639.87
5639.9
5639.93
5639.94
5639.95
5639.95
5639.95
5639.95
5639.63
5639.67
5639.7
5639.72
5639.73
5639.75
5639.75
5639.77
5639.48
5639.52
5639.55
5639.58
5639.6
5639.62
5639.63
5639.66
5639.8
5639.84
5639.88
5639.91
5639.93
5639.94
5639.94
5639.97
5639.6
5639.63
5639.65
5639.67
5639.68
5639.7
5639.71
5639.73
5639.85
5639.88
5639.9
5639.91
5639.92
5639.93
5639.93
5639.94
5640.09
5640.13
5640.15
5640.15
5640.15
5640.14
5640.13
5640.13
5510.3
5510.33
5510.36
5510.38
5510.39
5510.4
5510.41
5510.41
5510.09
5510.13
5510.16
5510.18
5510.2
5510.22
5510.23
5510.24
5509.93
5509.96
5509.98
5510
5510.02
5510.04
5510.05
5510.08
5510.25
5510.29
5510.31
5510.33
5510.35
5510.36
5510.38
5510.4
5510.06
5510.07
5510.09
5510.11
5510.12
5510.14
5510.15
5510.17
5510.27
5510.3
5510.33
5510.35
5510.37
5510.38
5510.38
5510.39
5510.42
5510.45
5510.48
5510.5
5510.51
5510.51
5510.52
5510.51
5380.8
5380.83
5380.85
5380.87
5380.88
5380.89
5380.89
5380.89
5380.59
5380.63
5380.65
5380.67
5380.69
5380.71
5380.72
5380.72
5380.33
5380.36
5380.37
5380.39
5380.4
5380.41
5380.42
5380.43
5380.71
5380.74
5380.76
5380.78
5380.8
5380.81
5380.82
5380.82
5380.5
5380.51
5380.52
5380.53
5380.53
5380.54
5380.54
5380.55
5380.8
5380.83
5380.85
5380.86
5380.88
5380.89
5380.89
5380.89
5380.91
5380.93
5380.95
5380.96
5380.97
5380.98
5380.98
5380.98
5251.26
5251.28
5251.29
5251.31
5251.32
5251.32
5251.33
5251.33
5251.08
5251.11
5251.1
5251.12
5251.13
5251.14
5251.15
5251.15
5250.81
5250.8
5250.81
5250.81
5250.82
5250.83
5250.83
5250.83
5251.18
5251.19
5251.2
5251.21
5251.21
5251.22
5251.22
5251.22
5250.99
5250.98
5250.99
5251
5251
5251
5251
5250.99
5251.28
5251.3
5251.31
5251.32
5251.32
5251.32
5251.32
5251.32
5251.36
5251.38
5251.39
5251.4
5251.4
5251.41
5251.41
5251.41
5121.63
5121.68
5121.72
5121.74
5121.76
5121.77
5121.78
5121.78
5121.47
5121.51
5121.52
5121.55
5121.56