/*--------------------------------*- C++ -*----------------------------------*\
| =========                 |                                                 |
| \\      /  F ield         | OpenFOAM: The Open Source CFD Toolbox           |
|  \\    /   O peration     | Version:  plus.master.MPPICInterFoam            |
|   \\  /    A nd           | Web:      www.OpenFOAM.com                      |
|    \\/     M anipulation  |                                                 |
\*---------------------------------------------------------------------------*/
FoamFile
{
    version     2.0;
    format      ascii;
    class       scalarField;
    location    "9.8/lagrangian/kinematicCloud";
    object      age;
}
// * * * * * * * * * * * * * * * * * * * * * * * * * * * * * * * * * * * * * //


37
(
9.22637
9.79467
9.77857
9.24833
9.62107
9.20354
9.20561
8.92869
9.49625
8.9032
9.18109
9.00013
9.13147
9.784
8.90005
9.07025
8.99131
9.08006
9.27516
9.01201
8.99446
9.63029
9.10007
9.25099
9.20008
8.8726
9.0645
9.3571
9.17473
9.21419
8.9235
8.91753
9.59008
9.28783
9.50965
9.0036
9.70948
)


// ************************************************************************* //
