/*--------------------------------*- C++ -*----------------------------------*\
| =========                 |                                                 |
| \\      /  F ield         | OpenFOAM: The Open Source CFD Toolbox           |
|  \\    /   O peration     | Version:  plus.master.MPPICInterFoam            |
|   \\  /    A nd           | Web:      www.OpenFOAM.com                      |
|    \\/     M anipulation  |                                                 |
\*---------------------------------------------------------------------------*/
FoamFile
{
    version     2.0;
    format      ascii;
    class       Cloud<basicKinematicMPPICParcel>;
    location    "9.8/lagrangian/kinematicCloud";
    object      positions;
}
// * * * * * * * * * * * * * * * * * * * * * * * * * * * * * * * * * * * * * //

37
(
(-0.0118758 0.0369056 0.550317) 2902
(0.0551254 -0.00899219 0.503119) 1657
(-0.0550324 -0.00638404 0.503019) 2009
(0.00665104 0.054458 0.505467) 2665
(-0.00686225 0.0525966 0.511772) 2736
(0.00763258 0.050105 0.53855) 2832
(-0.00341302 0.0487994 0.550315) 2896
(0.00551742 0.0481366 0.550924) 2887
(0.00678447 0.0467702 0.553138) 2943
(0.00219632 0.0486327 0.551331) 2951
(0.000699786 0.046714 0.55852) 2951
(-0.000539475 0.0450173 0.562557) 9047
(0.000352234 0.0446425 0.56307) 9047
(-0.000541197 -0.0403324 0.567849) 8486
(0.000161001 0.0435916 0.565935) 9047
(0.00185515 0.0427936 0.567133) 9046
(0.00117487 0.0413559 0.569859) 9046
(-0.000458647 0.0421595 0.569491) 9046
(0.0022304 0.0405766 0.570572) 9046
(0.00160037 0.0380373 0.573954) 7282
(-0.000131601 0.0382717 0.574145) 9102
(-0.00228227 0.0344883 0.576593) 6589
(-0.00149987 0.0306792 0.578063) 6588
(-0.00388452 0.0310811 0.577836) 6596
(-0.0035322 0.0298237 0.577327) 6595
(-0.0038124 -0.0225482 0.570096) 5961
(-0.00313983 0.0265276 0.572105) 6586
(-0.00387977 0.0259273 0.570917) 6594
(-0.0050895 0.0245062 0.552523) 1618
(-0.00435764 0.0244916 0.544383) 1561
(-0.00363241 0.024795 0.540153) 1506
(-0.00694251 0.0245928 0.520057) 1394
(-0.00635972 0.0240536 0.517356) 1393
(-0.00793782 0.024029 0.512096) 1394
(-0.00454072 0.0251456 0.50924) 1338
(-0.00512149 0.0240471 0.509661) 1337
(-0.00484327 0.0244936 0.503295) 1337
)


// ************************************************************************* //
