/*--------------------------------*- C++ -*----------------------------------*\
| =========                 |                                                 |
| \\      /  F ield         | OpenFOAM: The Open Source CFD Toolbox           |
|  \\    /   O peration     | Version:  plus.master.MPPICInterFoam            |
|   \\  /    A nd           | Web:      www.OpenFOAM.com                      |
|    \\/     M anipulation  |                                                 |
\*---------------------------------------------------------------------------*/
FoamFile
{
    version     2.0;
    format      ascii;
    class       vectorField;
    location    "9.8/lagrangian/kinematicCloud";
    object      UCorrect;
}
// * * * * * * * * * * * * * * * * * * * * * * * * * * * * * * * * * * * * * //


37
(
(-8.05234e-29 -1.8844e-29 -3.06368e-35)
(-7.91126e-19 1.80569e-19 3.1506e-19)
(5.85961e-19 3.01753e-19 1.86071e-19)
(-4.39725e-19 2.68311e-20 -1.86071e-19)
(4.8437e-30 1.17557e-29 9.05236e-35)
(-7.22655e-20 -1.95867e-19 4.47389e-35)
(-9.98503e-31 7.79406e-34 -4.16778e-19)
(-5.62836e-20 -4.51231e-19 -8.65356e-36)
(-7.09359e-20 -4.91446e-19 -2.61548e-35)
(-2.46778e-19 -1.15765e-20 -1.17571e-19)
(-2.46778e-19 -2.63712e-19 -5.86832e-20)
(3.58733e-31 -2.50194e-19 3.8777e-22)
(3.58733e-31 -2.50194e-19 3.63957e-22)
(2.52168e-29 -5.66332e-30 -7.19655e-35)
(3.58733e-31 -1.2631e-20 2.30081e-22)
(-2.52168e-29 3.0471e-19 1.34479e-19)
(-2.52168e-29 1.15717e-18 2.78721e-20)
(-2.52168e-29 1.15717e-18 3.78992e-20)
(-2.52168e-29 1.15717e-18 8.42037e-21)
(-1.49294e-19 6.39071e-22 1.7648e-19)
(1.44096e-29 -1.63031e-22 -2.63168e-22)
(3.79821e-19 2.13865e-20 -1.49189e-19)
(2.28627e-19 -1.394e-18 -4.2683e-35)
(-5.64055e-20 7.32498e-19 -3.22651e-19)
(4.50548e-19 2.36296e-20 1.71799e-19)
(1.61024e-20 -5.7668e-20 -3.34778e-19)
(-7.90332e-20 8.25558e-19 3.59356e-19)
(2.37892e-19 4.97341e-20 -2.84126e-34)
(-5.18891e-19 -5.26253e-20 5.71567e-49)
(4.23974e-19 1.24481e-19 -3.10965e-37)
(-4.98635e-19 -2.66716e-20 1.84409e-19)
(-4.44855e-19 -5.82485e-20 -3.18721e-19)
(2.08858e-19 3.79777e-20 -1.99848e-19)
(-4.42404e-19 -7.36647e-20 -1.84229e-19)
(1.43029e-19 3.59479e-19 -1.84229e-19)
(-1.95848e-19 -2.86507e-19 3.90327e-22)
(-2.33409e-19 -5.02452e-20 3.90327e-22)
)


// ************************************************************************* //
