/*--------------------------------*- C++ -*----------------------------------*\
| =========                 |                                                 |
| \\      /  F ield         | OpenFOAM: The Open Source CFD Toolbox           |
|  \\    /   O peration     | Version:  plus.master.MPPICInterFoam            |
|   \\  /    A nd           | Web:      www.OpenFOAM.com                      |
|    \\/     M anipulation  |                                                 |
\*---------------------------------------------------------------------------*/
FoamFile
{
    version     2.0;
    format      ascii;
    class       vectorField;
    location    "6.4/lagrangian/kinematicCloud";
    object      U;
}
// * * * * * * * * * * * * * * * * * * * * * * * * * * * * * * * * * * * * * //


2827
(
(0.00679311 0.000938383 -0.0359157)
(0.00682959 0.000617499 -0.035194)
(0.00388752 0.00402387 -0.0372167)
(0.00396016 0.00406544 -0.0368336)
(0.00617149 0.00145756 -0.0297885)
(0.00662222 0.000323754 -0.0338682)
(0.00490858 0.00389678 -0.0354003)
(0.0053734 0.0042412 -0.0321373)
(0.00512035 0.00419355 -0.0353418)
(0.00611207 0.0014771 -0.0304057)
(0.00540431 0.00407848 -0.0309974)
(0.00551588 0.00380526 -0.0335119)
(0.00399494 0.00399538 -0.0353804)
(0.00498384 0.00421155 -0.0363214)
(0.00394123 0.00391028 -0.0327616)
(0.0065989 0.000601975 -0.0343803)
(0.00431499 0.00448126 -0.0354738)
(0.00466035 0.00387523 -0.0382506)
(0.00478539 0.00401342 -0.0369924)
(0.00507711 0.00429921 -0.036304)
(0.00673743 0.000600328 -0.0368625)
(0.00436456 0.00452776 -0.0357018)
(0.00671872 0.000284305 -0.0361278)
(0.00460063 0.00494383 -0.0295756)
(0.00375975 0.00392669 -0.0363588)
(0.0045728 0.003745 -0.03752)
(0.00419322 0.0043688 -0.0368903)
(0.00493486 0.00405009 -0.0371421)
(0.00392982 0.00393921 -0.037369)
(0.00456124 0.00494302 -0.0306216)
(0.00511858 0.00429623 -0.0289086)
(0.00354661 0.00394127 -0.0371073)
(0.00475554 0.003415 -0.0327845)
(0.00665445 0.000525963 -0.0360104)
(0.00520859 0.00425991 -0.0348802)
(0.00393418 0.00395012 -0.0379043)
(0.00375218 0.00392057 -0.0372778)
(0.00464648 0.00382324 -0.0376636)
(0.00466304 0.00500803 -0.0346137)
(0.00422721 0.0046229 -0.0370185)
(0.00610812 0.0015056 -0.0308105)
(0.00676129 0.000846784 -0.0370831)
(0.00496325 0.00392111 -0.0374995)
(0.00682382 0.000564785 -0.0384339)
(0.00648809 1.00886e-05 -0.0318567)
(0.00437845 0.00501279 -0.0365115)
(0.00535629 0.00407538 -0.0332157)
(0.0067101 0.000474839 -0.0364899)
(0.00437906 0.00509702 -0.0330229)
(0.00607079 0.00138307 -0.029804)
(0.00672334 0.000402136 -0.0361409)
(0.00637763 0.00143306 -0.0337424)
(0.00561915 0.00377433 -0.031948)
(0.00768667 1.70545e-05 -0.0323721)
(0.00450253 0.00552582 -0.0363802)
(0.00849435 0.000349846 -0.0320094)
(0.00421479 0.00404233 -0.0371502)
(0.00813763 0.00024626 -0.0323958)
(0.00409051 0.00379221 -0.0370609)
(0.00670552 0.00051223 -0.0365362)
(0.00838261 1.75201e-05 -0.0325636)
(0.0056549 0.00374865 -0.0340352)
(0.00638706 0.00127494 -0.0339349)
(0.00643324 0.000647196 -0.034442)
(0.00675285 0.000586678 -0.0367097)
(0.00471223 0.0050585 -0.0349865)
(0.00624763 0.00147721 -0.032276)
(0.00593668 0.00117272 -0.0269809)
(0.00382836 0.00350287 -0.0379896)
(0.00682568 0.000521725 -0.0367669)
(0.00659975 0.00146833 -0.0384345)
(0.00655167 0.000164089 -0.0344493)
(0.00670533 -0.00122616 -0.0323502)
(0.00670507 0.000612596 -0.0362528)
(0.00695647 0.000374635 -0.0379482)
(0.00689729 0.000522964 -0.0382214)
(0.00505319 0.003615 -0.0268174)
(0.00637913 3.511e-06 -0.0345509)
(0.00707957 -0.00118871 -0.0324515)
(0.00864025 0.000303831 -0.0321807)
(0.00863837 3.3127e-05 -0.0329376)
(0.00497694 0.00399652 -0.036332)
(0.00968655 -3.39162e-05 -0.028578)
(0.00741729 -0.00112203 -0.0324512)
(0.00447911 0.00525325 -0.0336264)
(0.00649968 -2.78801e-05 -0.0346903)
(0.00763481 0.00388842 -0.0279392)
(0.0064536 -0.00011704 -0.0339779)
(0.0060476 0.001268 -0.0280241)
(0.00664554 0.00147099 -0.0392474)
(0.00769955 0.00387875 -0.0285712)
(0.00791906 0.00353364 -0.029864)
(0.00567902 0.00116573 -0.0259811)
(0.00831711 -0.000422785 -0.033506)
(0.00680919 0.00336407 -0.0310305)
(0.00667963 0.00294748 -0.0311029)
(0.00637211 -0.00118301 -0.0327614)
(0.00690899 0.000286019 -0.036968)
(-0.0052761 0.00166661 -0.0433828)
(0.00789771 -0.00142559 -0.0324415)
(0.00794908 0.00336972 -0.0301995)
(0.00633087 0.00176819 -0.0335683)
(0.00647958 0.00050042 -0.0349982)
(0.00621239 0.00165733 -0.029719)
(0.00801273 0.00332884 -0.0313473)
(0.00636495 0.00202247 -0.0335072)
(0.00656309 1.46518e-06 -0.0349202)
(0.00691379 0.000512469 -0.0372088)
(-0.00567587 0.00026282 -0.0428847)
(-0.00563266 0.000374195 -0.0433455)
(-0.00568274 0.000181051 -0.0434834)
(0.00693462 -0.000887434 -0.0334126)
(0.00545078 0.00411124 -0.0305778)
(0.00631163 0.00197555 -0.0326039)
(-0.0052489 0.00201046 -0.0356556)
(0.00662011 0.000283273 -0.0354079)
(0.00804006 0.00358117 -0.0318332)
(0.00476452 0.00369083 -0.0354949)
(0.00468516 0.00394437 -0.0357288)
(0.00621446 0.00178876 -0.0294692)
(0.00662173 0.00077013 -0.0349194)
(-0.00520836 0.0019183 -0.0471045)
(-0.00524205 0.00191727 -0.0470068)
(0.0065712 -0.00121286 -0.0337724)
(0.00701941 0.00017248 -0.0378137)
(0.00545824 0.00403637 -0.035432)
(-0.00561489 0.000287302 -0.0421139)
(-0.00571025 -2.11677e-05 -0.0442375)
(0.00437253 0.00464908 -0.0248614)
(0.00422582 0.00472654 -0.028595)
(0.00539801 0.00398307 -0.0295913)
(0.00969588 0.000202826 -0.0297956)
(0.00781974 0.00299154 -0.0308372)
(0.00558825 0.0040347 -0.0337791)
(-0.00565488 0.000102526 -0.0443918)
(0.00576728 0.00369298 -0.0304508)
(0.00890956 0.00461741 -0.0310093)
(0.0067229 0.000738249 -0.0355703)
(0.00677351 0.000514947 -0.0357574)
(0.00636903 0.00164083 -0.0334158)
(-0.00560479 0.000897882 -0.041587)
(-0.0120396 0.00205599 -0.0327529)
(-0.00574421 1.61426e-05 -0.0440052)
(0.0057491 -0.0040095 -0.0292331)
(0.00811061 0.00353796 -0.0322505)
(0.00633231 0.00117091 -0.0311104)
(0.00629365 0.0019238 -0.029152)
(0.00634641 0.00181494 -0.0328738)
(0.00655074 -0.00124539 -0.0333269)
(-0.00524093 0.0018806 -0.0463175)
(-0.00525914 0.00180398 -0.0463225)
(0.00623242 -0.00225773 -0.0313666)
(0.00635288 0.00191016 -0.0324171)
(0.00484678 0.00504073 -0.033296)
(0.00698862 0.000300784 -0.0385444)
(-0.00577185 -2.7058e-05 -0.0442262)
(-0.0057997 -9.71929e-05 -0.0439657)
(-0.00520964 0.00181922 -0.0470048)
(0.00709239 -0.00090195 -0.033137)
(0.00799521 -0.00200234 -0.030864)
(0.0066873 0.000745319 -0.0357483)
(0.00640684 0.00169042 -0.0340525)
(0.00663178 0.000387296 -0.0350909)
(-0.00589046 -4.42547e-06 -0.0398748)
(-0.0056354 0.0013252 -0.0428547)
(-0.00586144 0.000768485 -0.0428797)
(0.00777328 -0.00170987 -0.0285809)
(0.00612305 -0.00162116 -0.0305801)
(0.0078482 -0.00133209 -0.032493)
(0.00465228 0.00552687 -0.0351929)
(0.00768422 0.0002673 -0.0327633)
(0.00661163 0.00040916 -0.0347294)
(-0.00585375 7.44526e-05 -0.0431891)
(0.00652962 0.00140787 -0.0357194)
(0.00533697 0.0044014 -0.0312327)
(0.00674399 0.00149994 -0.0377787)
(-0.0100854 0.000544434 -0.0340512)
(-0.0059092 0.000247627 -0.041448)
(0.00381633 0.00589854 -0.030115)
(0.00561952 0.00237723 -0.0263065)
(0.00613808 -0.00252191 -0.0315914)
(0.00651496 0.00139509 -0.0344421)
(0.0065576 0.00146379 -0.0359157)
(0.00642685 0.00153901 -0.0328388)
(0.00598009 0.00176935 -0.0270389)
(-0.00592765 1.7472e-05 -0.0408945)
(0.00599094 9.55629e-05 -0.027318)
(0.00668069 0.000201161 -0.0353751)
(0.00563937 0.00414876 -0.0343031)
(0.00664015 0.000465999 -0.0348336)
(-0.00571722 4.65691e-05 -0.0443771)
(0.00412895 0.00519306 -0.0292386)
(0.0059582 -8.83732e-05 -0.0265902)
(-0.00588991 0.000766091 -0.0428836)
(-0.00569168 0.000131987 -0.0463637)
(0.00817727 -0.000570011 -0.0302224)
(0.00491011 0.00409528 -0.0281933)
(0.00467837 0.00337374 -0.022129)
(0.00609317 -0.000317966 -0.028104)
(0.00556679 0.00230967 -0.0259576)
(0.00656155 0.00276386 -0.032368)
(0.00507974 0.00490934 -0.0314323)
(0.00604373 0.00160894 -0.0263427)
(0.00864708 -0.000411523 -0.0314692)
(0.00821817 0.00346223 -0.0317258)
(0.00553582 0.00389619 -0.0302783)
(0.00665738 0.00177131 -0.0361654)
(0.00649781 0.00135096 -0.0336342)
(0.00456229 0.00541003 -0.0329834)
(0.00467391 0.00523249 -0.0322193)
(-0.0102906 0.00045902 -0.0342347)
(-0.00588828 -0.000282638 -0.0392771)
(-0.00578879 -8.47222e-05 -0.0438951)
(-0.00585313 -0.000108306 -0.0452321)
(-0.00573737 0.000152706 -0.0461452)
(0.00362889 0.00589399 -0.029087)
(0.00605154 0.00156947 -0.0264314)
(0.00677733 0.00125994 -0.0359248)
(0.00463359 0.0055125 -0.0337163)
(-0.00524042 0.00183985 -0.037017)
(0.00365023 0.00592689 -0.0291445)
(0.00597679 0.00166957 -0.0259748)
(0.00606814 0.00155363 -0.0289275)
(0.0066645 0.000645668 -0.0337159)
(0.00511616 0.00489375 -0.0315047)
(0.0040408 0.00504904 -0.0271285)
(0.0081531 0.00343194 -0.0305697)
(0.00564969 0.00414761 -0.0319582)
(0.00458727 0.00536294 -0.0322011)
(0.00673074 0.00176094 -0.0360427)
(0.00654147 -0.0011223 -0.0325553)
(-0.00589192 -0.000330419 -0.0404126)
(-0.00591525 -0.000171543 -0.0447567)
(-0.00574392 0.00023697 -0.0460875)
(0.00621365 0.00135741 -0.0300617)
(0.00624161 0.00283823 -0.03135)
(0.00675853 0.0016083 -0.0359905)
(0.00491469 0.00509199 -0.0329957)
(0.00563724 0.00424804 -0.0334311)
(-0.00526978 0.00180816 -0.0364538)
(-0.00600045 -0.000239964 -0.0412402)
(-0.00504322 0.00211901 -0.0479694)
(0.00804842 -0.00111941 -0.0293411)
(0.00668435 0.00114471 -0.035038)
(0.00618784 0.00326013 -0.0309723)
(0.00853432 -0.000548717 -0.0296851)
(0.00612675 0.00127952 -0.0282775)
(-0.0122156 0.00154316 -0.0315771)
(-0.0059712 -4.26159e-05 -0.0418606)
(-0.0115938 0.000400474 -0.0379838)
(-0.005553 0.000298971 -0.0468109)
(0.00634611 -0.00248633 -0.0316969)
(0.00649294 0.00135249 -0.0314637)
(-0.00559029 0.000488855 -0.0396329)
(-0.00577861 0.000247311 -0.0444941)
(0.00621672 0.00186507 -0.0290209)
(0.00751853 -0.00218268 -0.0287376)
(0.00650601 0.0017319 -0.0332508)
(0.00665558 0.00152986 -0.0343175)
(0.00667761 0.00137325 -0.0343746)
(-0.00519113 0.00180707 -0.039266)
(-0.00567946 0.000312465 -0.0462115)
(0.00463527 0.00489793 -0.0299821)
(0.00671867 0.00197013 -0.0355617)
(-0.00596995 -5.75133e-05 -0.0422558)
(-0.00582783 -0.00018182 -0.0407127)
(-0.00580359 7.81387e-05 -0.0441257)
(-0.00573656 0.000487242 -0.0446686)
(0.00535685 0.00357899 -0.0274199)
(0.00496875 0.00365122 -0.0258813)
(-0.00529682 0.00167622 -0.0388951)
(-0.00576515 -7.24026e-05 -0.0454095)
(-0.00565958 0.000340659 -0.0405721)
(-0.00546962 0.000713547 -0.043166)
(0.00866644 5.99545e-05 -0.0308858)
(0.00661988 0.00163421 -0.0338415)
(0.00878394 0.000211724 -0.0311738)
(0.00665083 7.99114e-05 -0.0331825)
(-0.0122173 0.00179105 -0.0318046)
(-0.00573288 0.000128999 -0.0408358)
(0.00355014 0.00600206 -0.0280597)
(0.00552125 0.00394099 -0.0308791)
(0.00677675 0.00171916 -0.0349865)
(-0.00577261 0.00023458 -0.0440503)
(0.00529585 0.00416623 -0.0299928)
(-0.00595877 1.48726e-05 -0.0428795)
(-0.00518191 0.00183878 -0.0469439)
(0.00343285 0.0060191 -0.0276568)
(0.00356204 0.00612416 -0.0286908)
(0.006563 -0.000973702 -0.032114)
(-0.0123596 0.00170213 -0.0333475)
(-0.00523902 0.00188333 -0.040366)
(0.00592804 0.00142708 -0.02454)
(0.00523788 0.00419672 -0.0294844)
(-0.012325 0.00119839 -0.0321111)
(0.0068046 0.000441104 -0.0425227)
(0.00676817 0.000440895 -0.0432826)
(-0.012952 0.00201882 -0.034425)
(-0.00559076 0.000295098 -0.0462101)
(-0.00568286 0.000136028 -0.0430051)
(-0.00565075 0.00055927 -0.0436707)
(-0.00517793 0.00223055 -0.0406454)
(-0.00550432 0.000749113 -0.0443505)
(0.00640427 0.0015926 -0.0311287)
(-0.0053056 0.00184684 -0.0393619)
(-0.00575866 0.000302574 -0.0442157)
(-0.00525402 0.00200126 -0.0384062)
(-0.00550901 0.000767078 -0.0443342)
(0.00635386 -0.00165602 -0.0297488)
(0.00368494 0.00597474 -0.0279228)
(-0.00577048 -8.19724e-05 -0.0450943)
(-0.0057519 0.000128924 -0.0450249)
(-0.00551473 0.000776808 -0.0438801)
(0.00443614 0.00391723 -0.021016)
(0.00445118 0.00459706 -0.0252539)
(0.00404166 0.00520988 -0.0255322)
(0.00610962 -0.00175596 -0.0281091)
(0.00584825 -0.00390713 -0.0318415)
(-0.0107582 0.000145111 -0.0336876)
(0.00679024 0.00146486 -0.0342602)
(-0.00830237 -0.00049066 -0.0367025)
(0.00681191 0.000275783 -0.0408752)
(-0.00556206 0.000194322 -0.0431309)
(-0.0053546 0.00172665 -0.0394442)
(-0.00569413 0.000509926 -0.0448202)
(-0.00517626 0.00232766 -0.0417267)
(-0.00550335 0.000785939 -0.0440516)
(0.00320516 0.0058774 -0.0258456)
(0.00647176 0.00119806 -0.0302185)
(0.00638861 0.00092981 -0.028587)
(0.00645392 0.000238283 -0.0301096)
(0.00338869 0.00619326 -0.0285469)
(-0.0124974 0.000834026 -0.0332483)
(-0.00657125 -0.000991284 -0.0370366)
(-0.00723713 -0.000683193 -0.0374866)
(-0.00529688 0.00183372 -0.0378808)
(-0.00535049 0.00181246 -0.0393555)
(-0.00525715 0.00205069 -0.0414513)
(-0.00530692 0.00189761 -0.039922)
(-0.00527552 0.00201898 -0.0418463)
(-0.00550764 0.000201687 -0.0434546)
(-0.00534065 0.00179552 -0.0388746)
(-0.00530595 0.0019189 -0.0388432)
(-0.00523689 0.00212959 -0.0416878)
(0.00582569 0.000952229 -0.0239942)
(0.00342239 0.00608615 -0.0279886)
(0.00675093 0.0012201 -0.0332847)
(0.00685433 0.000497517 -0.0368039)
(-0.0118413 0.000283338 -0.031956)
(-0.00653713 -0.000687529 -0.0375104)
(-0.00533438 0.00180842 -0.0389621)
(-0.00531806 0.00192655 -0.0398761)
(-0.00530438 0.0019896 -0.0412933)
(-0.00560576 0.00030673 -0.0443127)
(-0.00534527 0.00188295 -0.0392812)
(-0.00587042 0.000789981 -0.0417243)
(0.00417085 0.00522676 -0.0279081)
(0.00562407 0.000971567 -0.0224654)
(0.0062183 0.00269326 -0.0298529)
(-0.00531827 0.0019284 -0.0398458)
(-0.00546973 0.000319699 -0.044242)
(-0.00532407 0.00193323 -0.039852)
(0.00474444 0.00492505 -0.0284297)
(0.00737947 -0.00323411 -0.0284751)
(0.00445341 0.00479377 -0.0269387)
(0.00504094 0.00374105 -0.0266184)
(0.00365396 0.00595602 -0.0271828)
(0.00683409 0.00127942 -0.0355761)
(-0.0124414 0.000684069 -0.0333386)
(-0.00587354 -0.000398803 -0.0380999)
(-0.00535587 0.00177824 -0.0389659)
(0.00615469 -0.00298664 -0.0324182)
(0.00609066 0.00248185 -0.0280697)
(0.00648815 0.00267756 -0.0312762)
(-0.0123171 0.000472879 -0.0333833)
(-0.013285 0.00166135 -0.0355265)
(-0.00534534 0.00195687 -0.0410605)
(0.00497517 0.00349796 -0.0201029)
(0.00596506 0.00244188 -0.0272545)
(-0.0130847 0.00189684 -0.0356832)
(-0.00495678 0.000716441 -0.0437674)
(-0.00529346 0.00217403 -0.0396001)
(0.00646421 0.00207607 -0.0283697)
(0.00613373 -0.000858919 -0.0267945)
(0.00625297 -0.000310779 -0.0282883)
(0.00651973 -0.00124828 -0.0307304)
(0.00529969 -0.00523036 -0.0354951)
(0.00681053 0.000545895 -0.0415638)
(0.00681125 0.000379249 -0.0413114)
(-0.00565159 7.75505e-06 -0.0471662)
(0.00615289 0.00163971 -0.0268571)
(0.00451989 0.004858 -0.0271855)
(0.006703 0.000348598 -0.0323471)
(0.00685867 0.000542681 -0.0375904)
(-0.00527365 0.00198564 -0.0380401)
(-0.00536741 0.00192239 -0.0399423)
(-0.00534356 0.00195316 -0.0404878)
(-0.00582492 7.41392e-05 -0.0444346)
(0.00323897 0.00570029 -0.024886)
(0.00484769 -0.00551236 -0.0336661)
(0.00684496 0.000270029 -0.0388564)
(-0.00541687 0.00169223 -0.0405201)
(-0.00539821 0.00171485 -0.040249)
(-0.0134544 0.000994007 -0.0363005)
(-0.0065417 -0.000503831 -0.0378342)
(-0.00544567 0.00137097 -0.0435049)
(-0.00561378 0.000808322 -0.0443902)
(-0.00592617 0.000809212 -0.0419084)
(-0.00535811 0.00172578 -0.0435278)
(-0.00556749 0.00100773 -0.0442763)
(0.00536366 -0.00493459 -0.0330894)
(0.00657361 -0.00471709 -0.029695)
(0.00571978 -0.00417675 -0.0313813)
(0.00522785 -0.00514487 -0.0336744)
(0.00642327 -0.00235416 -0.0331675)
(0.00685145 0.000417273 -0.0385845)
(0.00681286 0.000103353 -0.0408053)
(-0.00540648 0.00166416 -0.0402519)
(-0.00843058 -0.000105678 -0.0374559)
(0.00512819 0.00274058 -0.0240604)
(0.00659558 0.00127567 -0.0316064)
(0.00638909 -0.00170872 -0.0300987)
(-0.00537469 0.00167073 -0.0406769)
(-0.0135576 0.000807833 -0.0361436)
(0.00772133 0.00399457 -0.0209913)
(0.00112568 0.00705934 -0.0332041)
(0.00770054 -0.00337248 -0.0275041)
(0.0068516 6.33055e-05 -0.0343763)
(0.00681328 0.000203576 -0.0415336)
(-0.00538194 0.00160964 -0.0425408)
(-0.00535482 -0.00023126 -0.0459682)
(0.010287 0.00195698 -0.018897)
(0.00577079 -0.000936054 -0.0258635)
(0.00412505 0.00535063 -0.0280783)
(0.00763377 -0.00307262 -0.0274199)
(0.00637889 -0.00161408 -0.0299062)
(0.00539187 0.00401962 -0.0282087)
(0.00581699 -0.00412572 -0.0335928)
(0.00515039 -0.00529759 -0.0346635)
(-0.00553773 0.000900133 -0.0384934)
(-0.00535066 -0.000220743 -0.0462363)
(0.00636502 0.00129782 -0.0280866)
(0.00643844 -0.00111979 -0.029123)
(0.00252361 -0.00678114 -0.0354309)
(0.00479736 -0.00547657 -0.0334583)
(0.00686951 0.000140845 -0.038285)
(-0.00539997 0.00187036 -0.0417092)
(-0.0056276 -0.000269817 -0.0467524)
(0.00512424 0.00564496 -0.0214699)
(0.00413732 0.00538437 -0.0282632)
(0.00363823 -0.00636768 -0.032516)
(0.00551921 0.00449408 -0.0313675)
(0.00464906 -0.00535058 -0.0326862)
(0.00654 -0.000632505 -0.0408349)
(0.00476635 -0.00551509 -0.035052)
(0.00680998 0.000141337 -0.0421866)
(-0.00542908 0.00168752 -0.0408569)
(0.00680963 0.000257712 -0.0424853)
(-0.0134789 0.00101985 -0.0358201)
(-0.013409 0.00102749 -0.0354173)
(-0.00639834 0.000726513 -0.0399769)
(0.00600911 -0.00216533 -0.0310334)
(0.00644261 -0.00140058 -0.0296078)
(0.00546655 -0.00492469 -0.0352989)
(-0.00519015 0.00248972 -0.0336498)
(0.00672642 0.0013548 -0.0331966)
(0.00688782 5.66078e-05 -0.0374223)
(0.00690423 0.000563106 -0.0367121)
(0.00662659 0.000117235 -0.0405359)
(-0.00545078 0.00125608 -0.0374548)
(0.0068591 0.00175614 -0.0380232)
(-0.00548941 0.00157145 -0.0416472)
(0.00451323 -0.000480676 -0.0431706)
(0.0105358 0.00246775 -0.0210948)
(0.00595545 0.0015058 -0.0223412)
(0.00631177 0.00163118 -0.027797)
(0.00297931 0.00656819 -0.0314414)
(0.00265098 -0.0064961 -0.0332601)
(0.0068718 -3.95558e-05 -0.0383266)
(0.00688357 1.14925e-05 -0.0377105)
(-0.00544063 0.0015146 -0.0425806)
(-0.00575468 0.000819435 -0.0420255)
(-0.00549353 -0.000184909 -0.0478818)
(0.00655244 -0.000250304 -0.0293903)
(0.00472535 -0.00550597 -0.0344917)
(0.00658841 -0.00146378 -0.0336131)
(0.00109329 -0.00690998 -0.0368233)
(0.00121659 -0.00695369 -0.0385971)
(0.00399086 0.00623782 -0.0367975)
(0.00475692 -0.00550744 -0.0349991)
(0.0058736 -0.00411693 -0.0360925)
(0.00588693 -0.00410468 -0.0361161)
(0.00286283 0.00754233 -0.0381773)
(-0.00493636 0.0013249 -0.0433178)
(-0.00470721 0.000312724 -0.0474458)
(-0.0049843 0.000209743 -0.0467614)
(0.00645489 0.000762697 -0.0275511)
(0.00435233 0.00472578 -0.0255277)
(0.00830948 0.00331404 -0.0226469)
(0.00321368 0.00576813 -0.0246875)
(0.0011275 0.00534941 -0.0317594)
(0.00435839 0.00512879 -0.0270056)
(0.00112802 0.00700162 -0.0323533)
(0.00402409 -0.0023591 -0.0329001)
(0.00606319 -0.00381431 -0.0361364)
(0.00649772 -0.00256745 -0.039393)
(-0.00491632 0.00148549 -0.0330114)
(-0.00588249 -0.000259957 -0.0385354)
(-0.00546219 0.00141897 -0.0405842)
(-0.0046367 0.00201446 -0.0448007)
(0.00681754 -0.000927643 -0.0400368)
(0.00632285 -0.000824555 -0.0417786)
(-0.00471256 0.00100705 -0.0466936)
(0.00307819 0.00587809 -0.0248158)
(-0.00536162 0.0015682 -0.0336683)
(0.0040918 0.00614829 -0.0375201)
(0.0046726 -0.00560177 -0.0336251)
(0.00688874 -2.91145e-05 -0.0377057)
(0.00070852 0.00945404 -0.0356175)
(0.00382257 -0.00608404 -0.0318042)
(0.00591721 -0.00404633 -0.0357478)
(0.00680652 0.000211347 -0.0433216)
(0.00624789 -0.00130655 -0.0402312)
(0.00655603 -0.00248244 -0.0405896)
(-0.00494894 0.00325076 -0.0404963)
(-0.00594778 0.000313433 -0.0441087)
(-0.00533452 0.000446287 -0.047326)
(0.00675942 0.000725013 -0.0449714)
(0.00513687 0.0038027 -0.022608)
(0.00712822 -0.00532174 -0.0268759)
(0.00648235 0.00110853 -0.0286511)
(0.00630472 0.00251365 -0.0281123)
(-0.00506912 0.00160775 -0.0294933)
(0.0068446 0.000218606 -0.0351427)
(0.000700426 0.00933877 -0.0361935)
(0.00069088 0.00936622 -0.035948)
(0.000721064 0.0094412 -0.0365427)
(-0.0046979 0.00174307 -0.0319807)
(0.00138679 0.00806513 -0.037486)
(0.00110954 -0.00689792 -0.0367349)
(0.000727483 0.00947411 -0.0362522)
(0.00105495 0.00702166 -0.0356102)
(0.00498078 -0.0054768 -0.0371108)
(0.00640605 0.000904536 -0.0281855)
(0.00408236 0.00500692 -0.0254773)
(0.00337087 -0.00143302 -0.0324183)
(0.00329075 -0.000886748 -0.0334645)
(0.00602409 -0.003761 -0.0351135)
(0.00589682 -0.00398561 -0.0349786)
(0.00671422 -3.09095e-05 -0.0395575)
(0.00072406 0.00940882 -0.0369651)
(0.00568604 0.000672879 -0.0406897)
(0.00140632 0.0078365 -0.037664)
(0.00645041 -0.002679 -0.0398761)
(0.00476869 -0.00550246 -0.0359002)
(0.00249748 -0.00692062 -0.0387289)
(0.00257473 0.0077013 -0.0285184)
(0.00409661 -0.00225983 -0.0334769)
(0.00576428 0.000620153 -0.0377085)
(0.00122054 0.00707976 -0.0352752)
(0.00247501 -0.00759926 -0.0322722)
(0.00101757 0.00987741 -0.0347685)
(0.00244306 0.00753878 -0.0376255)
(0.00646165 -0.00266428 -0.0399512)
(0.00533378 -0.00498204 -0.0388316)
(0.00128802 -0.00703069 -0.0393531)
(-0.00535047 0.000591276 -0.0468034)
(-0.00547171 0.000247086 -0.0454952)
(0.00523973 0.00353026 -0.0209356)
(0.0051026 -0.00487344 -0.0306454)
(0.00627326 8.47152e-05 -0.0265392)
(0.00673678 0.000217871 -0.033046)
(-0.00520754 0.00160532 -0.0295978)
(0.00680787 7.57939e-05 -0.0346812)
(0.00682486 0.000160147 -0.0351484)
(0.00689909 -7.06759e-05 -0.0367322)
(0.00404555 0.00622446 -0.0370778)
(0.00684463 -0.00102627 -0.037912)
(0.00154891 -0.00702799 -0.0376041)
(0.00255848 0.00761041 -0.0363854)
(-0.00542563 0.00141338 -0.041014)
(0.00386045 -0.00627237 -0.0351126)
(-0.0054806 0.000500001 -0.0454119)
(-0.00551162 0.000502846 -0.0452518)
(0.00635153 -0.000406201 -0.0276905)
(0.00331885 -0.00146506 -0.0332568)
(0.00531414 -0.00606825 -0.028722)
(-0.00490687 0.00144781 -0.0272827)
(0.00657005 -0.00242155 -0.0306884)
(0.00674191 0.000154988 -0.0334306)
(0.00272125 0.00757134 -0.0360958)
(0.00570297 -7.30098e-05 -0.0397506)
(0.00520055 -0.00195428 -0.0347266)
(0.0014084 0.00715188 -0.0366249)
(0.00686511 0.00131454 -0.036692)
(0.00676039 0.00164502 -0.03459)
(0.00259674 0.00758993 -0.0375293)
(0.00568646 0.000143437 -0.0425189)
(0.006787 0.000528451 -0.0439909)
(0.00616744 -0.000954984 -0.0422252)
(0.00593941 0.00428821 -0.0396607)
(0.00591617 0.00230634 -0.0252625)
(0.00611618 0.00169004 -0.0261198)
(0.00302967 0.00582008 -0.0246823)
(0.00598283 -0.00374702 -0.0356637)
(0.00422697 0.00492712 -0.0256097)
(0.00675318 0.000229525 -0.0324512)
(0.00649035 0.00270497 -0.0327421)
(0.000874565 0.00697598 -0.0325246)
(0.00674513 0.000188226 -0.0335856)
(0.00365526 -0.00707814 -0.0304435)
(0.00101456 0.00942366 -0.035285)
(0.00569568 0.000504992 -0.0424834)
(0.00569835 0.000146502 -0.0425962)
(0.00639396 -0.0029053 -0.03873)
(0.00528811 0.00515006 -0.0360783)
(0.00568332 0.000270356 -0.0429593)
(0.00885916 -0.000877385 -0.0230416)
(0.00553437 0.0035128 -0.0218004)
(0.00620397 0.00123585 -0.0266223)
(0.00404211 0.00533075 -0.0267811)
(0.00521688 0.00397036 -0.0267752)
(0.00660214 0.00120689 -0.0305085)
(-0.00496697 0.00160307 -0.0284941)
(0.00255973 0.00662129 -0.0309046)
(0.00395747 0.00631005 -0.0375847)
(0.000961043 0.00946159 -0.0357666)
(0.00399788 0.00628045 -0.0377398)
(0.00587947 0.00421551 -0.036651)
(0.00279905 0.00773146 -0.035209)
(0.00114632 0.00951566 -0.0348083)
(0.00567683 0.000630615 -0.0406296)
(0.00237818 -0.00750182 -0.0314547)
(0.00571049 9.78034e-05 -0.0425501)
(0.00644058 -0.00275344 -0.040024)
(0.00518215 0.00526632 -0.036778)
(0.00671656 0.0005115 -0.0442963)
(0.00592841 -0.00406605 -0.0372964)
(0.00662028 0.00101101 -0.0299821)
(0.00530246 -0.00600084 -0.0277284)
(0.00638502 0.00297273 -0.0341564)
(-0.00501606 0.00149519 -0.028391)
(0.000877252 0.00693182 -0.0338869)
(0.00481501 0.00543025 -0.0344065)
(-0.00547221 0.00149271 -0.0359889)
(-0.00525439 0.00144772 -0.0303854)
(0.00660174 -0.00219921 -0.039849)
(0.00287059 0.00743 -0.0347469)
(0.00571105 0.000586821 -0.0425439)
(0.00341066 -0.00612664 -0.0307354)
(0.00597681 -0.00399034 -0.038203)
(-0.00603325 0.000776145 -0.041352)
(-0.00559044 0.00073763 -0.0434046)
(0.00410732 -0.00603787 -0.0352147)
(0.0041166 -0.00620345 -0.0362003)
(0.0064054 0.0013625 -0.028024)
(0.00654427 0.0016762 -0.0287494)
(0.00653299 0.00180093 -0.0287024)
(0.0065577 0.00143562 -0.0289019)
(0.00627455 -0.00014117 -0.0263101)
(0.0057126 0.0042789 -0.0335674)
(0.0021663 -0.00674569 -0.033659)
(0.00573257 0.00425474 -0.0341794)
(-0.00509944 0.00149452 -0.0292458)
(0.00400355 0.00628897 -0.0379614)
(0.000943961 0.00950721 -0.0365926)
(0.00684661 -0.000131034 -0.0360434)
(0.00585297 0.00436726 -0.0378657)
(0.00678992 -0.00105836 -0.0379285)
(0.00607006 0.00414513 -0.0402848)
(-0.00575323 4.69409e-05 -0.0436743)
(0.00515658 -0.00540142 -0.0379515)
(-0.00541497 0.00019894 -0.0466239)
(0.014535 0.00335765 -0.0181311)
(0.00341484 0.00566381 -0.0242935)
(0.00644788 0.00157733 -0.0282587)
(0.00660569 0.00248012 -0.0326416)
(0.00543077 0.00408355 -0.0277751)
(0.00301328 0.00424774 -0.030971)
(0.00216521 -0.00685313 -0.0380083)
(0.00204442 0.00690585 -0.0320965)
(0.000852436 0.00694537 -0.0334773)
(0.00576787 0.00420712 -0.0345185)
(0.00672661 0.000446442 -0.0306671)
(0.00510061 -0.00605138 -0.0269072)
(-0.00546861 0.00144909 -0.034858)
(0.00265603 0.00718486 -0.0348612)
(0.00616647 -0.00256981 -0.0366951)
(0.0028298 0.00782435 -0.0350776)
(0.00686636 0.0012682 -0.0379958)
(0.00643352 -0.00276717 -0.0418663)
(0.00383528 -0.00264631 -0.0343129)
(0.00689894 3.04735e-05 -0.0398001)
(0.00593518 -0.00520815 -0.0272091)
(0.00267714 0.00684944 -0.0303289)
(0.0035785 -0.00593483 -0.0289286)
(0.00667973 -0.00114576 -0.0348187)
(-0.00531025 0.00148071 -0.0309533)
(0.00382522 0.00636167 -0.0385089)
(0.00681705 -0.000885286 -0.0373046)
(0.00692029 0.00119143 -0.039181)
(0.00218427 -0.00640955 -0.0366845)
(0.00261698 -0.00660794 -0.0364117)
(-0.00479794 0.00140275 -0.0463251)
(-0.00546608 -0.00129712 -0.0411921)
(0.0108035 0.00270801 -0.0215678)
(0.0108828 0.00143932 -0.0214739)
(0.00349271 0.00703055 -0.0237318)
(0.00651323 0.00178283 -0.0286774)
(0.00418767 0.00522881 -0.0264967)
(0.00350693 -0.00689764 -0.028457)
(-0.00488026 0.00137879 -0.026792)
(0.0055724 -0.00264545 -0.0365649)
(0.00284488 -0.00656808 -0.0329152)
(0.00359091 -0.00591258 -0.0288444)
(0.002681 0.00803831 -0.0339281)
(0.0026978 0.00773712 -0.0396527)
(0.00472599 -0.00426946 -0.0350294)
(0.0059908 0.00413614 -0.0395332)
(0.00488067 -0.00506063 -0.036142)
(0.00553521 0.0111718 -0.0227755)
(0.00596072 0.00716297 -0.0243576)
(0.00657889 0.0012448 -0.0289828)
(0.00427107 0.00500292 -0.0257976)
(0.00563271 0.00444818 -0.0336037)
(0.0049177 0.00519067 -0.031498)
(-0.00494585 0.00148017 -0.0275871)
(0.00676083 0.000292759 -0.0338304)
(0.00396695 -0.00619033 -0.0355804)
(0.00109445 -0.00655432 -0.0338666)
(0.00656378 -0.00253493 -0.0427609)
(0.00155907 -0.00674386 -0.0378925)
(0.00136418 -0.0068494 -0.0355052)
(0.00389419 -0.00620333 -0.0350061)
(0.00594486 -0.00396801 -0.03818)
(0.00447696 -0.000470272 -0.0439185)
(-0.00479408 0.00123036 -0.0450966)
(0.00690961 0.00153152 -0.0400388)
(0.00636035 0.00173787 -0.0278767)
(0.00672874 0.000960389 -0.0314233)
(0.003384 -0.00589017 -0.0280863)
(0.00684056 0.00112229 -0.0331818)
(0.00661856 0.000891634 -0.0291905)
(0.00346712 -0.00147638 -0.0348639)
(0.00665905 -5.38015e-05 -0.0299975)
(0.0032576 -0.00588873 -0.0279504)
(-0.0055697 -0.00104251 -0.0404203)
(0.00118506 -0.00583795 -0.0371065)
(0.00495259 0.00452323 -0.025912)
(0.00641626 0.000673753 -0.0264608)
(0.00681987 0.0083047 -0.0214891)
(0.00637827 0.00130803 -0.0280867)
(0.00571942 0.0110459 -0.0218479)
(0.00534165 0.00432096 -0.0283812)
(0.00331316 -0.00144182 -0.0334949)
(0.00620865 0.00298916 -0.0296533)
(-0.00542672 0.00157675 -0.0336723)
(0.00378325 0.00629551 -0.0376844)
(-0.00533156 0.00145607 -0.0309811)
(0.00382452 0.00632249 -0.0383801)
(0.00690456 0.000562536 -0.0367651)
(0.00322193 -0.0059054 -0.0279018)
(0.00396584 0.00621805 -0.0383769)
(0.00304608 0.00770421 -0.0392282)
(-0.0049762 0.00142422 -0.0455071)
(0.00523481 -0.00500354 -0.0370549)
(0.00566923 0.00405743 -0.0311968)
(0.00670839 -9.42772e-06 -0.0315804)
(0.00674604 -7.81716e-05 -0.0333466)
(0.00662317 0.00251868 -0.0353252)
(0.00734979 -0.00326623 -0.027464)
(0.00580769 0.00417753 -0.0346958)
(0.00407297 0.00617208 -0.0385108)
(0.00675878 0.000265889 -0.0330728)
(0.00606856 0.00396229 -0.0377757)
(0.00636976 0.000523487 -0.0417255)
(0.00684408 -0.000133938 -0.0365503)
(0.0065823 0.000411804 -0.0412338)
(0.00306123 0.0077157 -0.0402073)
(0.00224611 -0.00638221 -0.0365492)
(0.00683484 -3.95454e-05 -0.0371507)
(0.00252966 -0.00674681 -0.0376531)
(0.00402242 -0.00612343 -0.0351858)
(0.00232303 -0.00660207 -0.0380307)
(-0.00560157 0.000504531 -0.0440649)
(-0.00560551 0.000156662 -0.0440959)
(-0.00555248 -2.23374e-05 -0.0449544)
(0.00637169 2.43007e-05 -0.0272948)
(0.00524802 0.0038006 -0.0265402)
(0.00654576 0.00143833 -0.0304837)
(0.00452641 0.00541075 -0.0303093)
(0.00666567 0.00129442 -0.0314182)
(0.006593 0.00111128 -0.0291609)
(0.00642785 -0.000293897 -0.0274666)
(0.000712542 0.00662624 -0.0296)
(0.00406295 0.00615087 -0.0382762)
(0.00572853 -0.000219306 -0.0389285)
(0.000899034 0.00700676 -0.0350427)
(0.00544863 -0.000541651 -0.0426016)
(0.00341801 -1.54108e-05 -0.0447182)
(0.00681195 -0.00130396 -0.0400948)
(0.00483358 -0.000410583 -0.0429151)
(0.00678232 0.00170179 -0.0378588)
(0.00503966 0.00519151 -0.0366813)
(0.00298896 -0.0065229 -0.0372169)
(-0.00580988 0.000552434 -0.0432046)
(0.00282142 -0.00682781 -0.0398184)
(0.0065094 0.00143933 -0.0286613)
(0.00472686 -0.00367899 -0.023709)
(0.00648633 0.000784621 -0.0280468)
(0.00676192 0.00170862 -0.0332866)
(-0.00499998 0.00137022 -0.0276023)
(0.000663501 0.00698992 -0.032926)
(0.00413788 0.00598684 -0.0379783)
(0.0036892 0.00642125 -0.0394854)
(0.00675819 0.000134998 -0.040749)
(-0.00553081 0.00122875 -0.040447)
(0.00577916 0.000173643 -0.0421599)
(0.00125815 -0.00586165 -0.0373127)
(0.00127255 -0.00585069 -0.037332)
(0.00415266 -0.00608849 -0.0353972)
(0.00650132 0.00851149 -0.0211355)
(0.0110607 0.00155287 -0.022118)