/*--------------------------------*- C++ -*----------------------------------*\
| =========                 |                                                 |
| \\      /  F ield         | OpenFOAM: The Open Source CFD Toolbox           |
|  \\    /   O peration     | Version:  plus.master.MPPICInterFoam            |
|   \\  /    A nd           | Web:      www.OpenFOAM.com                      |
|    \\/     M anipulation  |                                                 |
\*---------------------------------------------------------------------------*/
FoamFile
{
    version     2.0;
    format      ascii;
    class       vectorField;
    location    "9.2/lagrangian/kinematicCloud";
    object      U;
}
// * * * * * * * * * * * * * * * * * * * * * * * * * * * * * * * * * * * * * //


2844
(
(0.000954551 -5.30365e-05 -0.045586)
(0.00098866 -5.07676e-05 -0.0460638)
(0.00124438 0.00013757 -0.0465422)
(0.00179857 0.000156187 -0.0460381)
(0.00118116 8.64789e-05 -0.04636)
(0.00142041 0.000369276 -0.046013)
(0.00101047 -4.8472e-05 -0.0463085)
(0.00123951 0.000202317 -0.0460765)
(0.00125341 0.000225895 -0.0467674)
(0.00133437 0.000281511 -0.0455631)
(0.0012645 9.34863e-05 -0.0466048)
(0.000969765 -1.95431e-05 -0.0467527)
(0.000954598 -3.58096e-05 -0.0461747)
(0.00112299 0.000109416 -0.0488394)
(0.00130196 0.000345993 -0.0487188)
(0.00177992 0.000147969 -0.0467202)
(0.000885153 -2.87852e-05 -0.0472627)
(0.00111272 5.01103e-05 -0.0482611)
(0.0009285 -2.07581e-05 -0.047181)
(0.000904729 -1.61772e-05 -0.0476697)
(0.000918349 -3.13272e-06 -0.0474464)
(0.00091821 -1.48802e-05 -0.0476457)
(0.000909526 -2.25443e-05 -0.0475079)
(0.000890164 -4.75433e-05 -0.0474634)
(0.000728107 -8.35668e-05 -0.0455217)
(0.00121348 0.000953047 -0.0463657)
(0.00216773 0.000937389 -0.0453013)
(0.00120148 0.0011908 -0.0469504)
(0.000847821 -7.67563e-06 -0.0487674)
(0.000903555 -9.05297e-06 -0.0488335)
(0.000765428 -5.82627e-05 -0.0474408)
(0.000851502 -8.11295e-05 -0.0473624)
(0.0013432 0.000395952 -0.0486922)
(0.000980203 -9.32399e-05 -0.0453525)
(0.0013176 0.000670945 -0.0484867)
(0.00174 0.000139914 -0.0463217)
(0.000958422 -7.79285e-05 -0.0457598)
(0.000988559 -8.09746e-05 -0.0464839)
(0.000534226 -0.000125279 -0.0439822)
(0.00116468 0.000131889 -0.0479175)
(0.00112274 -4.95803e-05 -0.0461357)
(0.00110385 -6.82405e-05 -0.0460524)
(0.00169045 0.00211697 -0.0471194)
(0.000818736 -8.24876e-05 -0.0475246)
(0.000981395 -8.22622e-05 -0.0467917)
(0.00101586 -4.72273e-05 -0.0481802)
(0.00128922 1.512e-05 -0.0474084)
(0.00101156 -5.65921e-05 -0.0476695)
(0.00105577 -5.57723e-05 -0.047773)
(0.00126427 0.00126607 -0.0480244)
(0.00132926 0.00026033 -0.0484945)
(0.00100583 -6.92582e-05 -0.0478657)
(-0.000638422 0.000317088 -0.0485163)
(0.000957624 -6.12284e-05 -0.0486957)
(0.00127819 1.36868e-07 -0.0474365)
(0.00166001 0.00215211 -0.0479119)
(0.000895016 -4.53244e-05 -0.0434582)
(0.00116583 0.000137854 -0.0480379)
(0.0012702 0.000192858 -0.0482772)
(0.000794186 -1.94778e-05 -0.0487104)
(0.00106515 -9.26084e-05 -0.0459408)
(0.00122126 0.000126829 -0.0491836)
(0.00114789 2.37702e-05 -0.0472036)
(0.000943853 -6.86889e-05 -0.0479897)
(0.000989897 -4.79008e-05 -0.0487071)
(-0.000538638 0.00013567 -0.0480485)
(0.00106402 -0.000456202 -0.0426022)
(0.00100081 -4.76963e-05 -0.0488535)
(0.000903969 -6.13379e-05 -0.0480083)
(0.000955984 -0.000112362 -0.0466162)
(0.000984358 -5.6589e-05 -0.0485032)
(0.00173981 0.00195379 -0.0468698)
(0.00283523 -0.00112045 -0.0472625)
(0.00100384 -6.84531e-05 -0.0483878)
(0.00136183 0.000304416 -0.048361)
(0.00122921 0.00127414 -0.0479929)
(0.000765702 -0.000135313 -0.0474767)
(0.00104137 -4.50024e-05 -0.0492052)
(0.000829482 -0.000174649 -0.0469456)
(0.00285728 -0.000879225 -0.0478785)
(0.000798975 -8.27405e-05 -0.0479126)
(0.0013895 0.000436567 -0.047119)
(0.00090931 -1.47856e-05 -0.0492737)
(0.00141202 0.000328238 -0.0485169)
(-0.0010567 -0.00134386 -0.048789)
(0.00129166 0.000342966 -0.0451567)
(0.00088262 -0.000151539 -0.0471111)
(0.0028747 -0.00116578 -0.0483138)
(0.00106959 -2.80003e-05 -0.0493931)
(0.00098573 -5.64496e-05 -0.0489743)
(0.000814082 -0.000138504 -0.045299)
(0.00343031 -7.12919e-05 -0.0478358)
(0.0013016 0.000161125 -0.048894)
(0.00122634 0.000223906 -0.0470658)
(0.00331764 -0.000263832 -0.0468753)
(0.000756576 -8.47841e-05 -0.0475354)
(0.00190679 0.000878191 -0.0471004)
(0.000720996 -0.000167731 -0.0433698)
(0.00086316 -0.000114245 -0.0471039)
(0.000832673 -0.000156903 -0.0471916)
(0.00111076 -4.31039e-05 -0.0474289)
(0.00135183 0.000220903 -0.0463264)
(0.000580438 -0.00015695 -0.0440605)
(0.000841178 -1.24471e-05 -0.0483935)
(0.00105739 -5.97862e-05 -0.0478479)
(0.00121138 0.000125217 -0.0486015)
(0.00101605 -5.26273e-05 -0.0495808)
(0.00137853 0.000379398 -0.0478415)
(0.00134118 0.000284436 -0.0478997)
(-0.00108614 -0.00144209 -0.0494357)
(0.00189198 0.00207482 -0.0438027)
(0.000571837 -0.000154545 -0.0441577)
(0.00117902 -3.73656e-05 -0.0477658)
(0.00136828 0.000376831 -0.0466919)
(-0.00153003 -0.00263386 -0.0506827)
(0.00191544 0.00209705 -0.0440618)
(0.0005309 -0.000174173 -0.0436161)
(0.00186299 0.000136261 -0.0477611)
(0.00100627 -1.34224e-05 -0.0489815)
(0.00135257 0.000216328 -0.0465439)
(0.00217887 0.00190742 -0.0456715)
(0.00101625 -6.63433e-05 -0.0477952)
(0.00121689 8.72297e-05 -0.0483621)
(0.00135069 0.000322604 -0.0476439)
(0.00121456 -2.70712e-05 -0.0482)
(0.000989275 -0.00011388 -0.0474153)
(0.00114388 -2.03508e-05 -0.0486254)
(0.00115622 -5.72832e-05 -0.0468766)
(0.00120015 -3.3125e-05 -0.0480955)
(0.00135542 0.000297241 -0.047781)
(0.00130979 0.000157116 -0.0481759)
(-0.00159868 -0.00262289 -0.0503476)
(0.000835577 -0.000132605 -0.0462156)
(0.00112537 -4.15145e-05 -0.0486215)
(0.00120321 -1.01281e-05 -0.0459069)
(0.00082696 -9.30472e-05 -0.0475859)
(0.00152595 7.79611e-05 -0.0471614)
(-0.000529775 0.000197038 -0.0479148)
(-0.000708223 0.000208853 -0.0516876)
(0.00282937 -0.00120772 -0.0468412)
(0.000924197 -7.88977e-05 -0.0491392)
(0.00095806 -0.00011866 -0.0478181)
(0.000831548 -0.000199843 -0.0459999)
(0.00106866 -6.24167e-05 -0.0493813)
(0.00110218 -5.34248e-05 -0.0493057)
(0.00109284 -5.23901e-05 -0.0493713)
(0.00126385 0.000202398 -0.047865)
(0.00121574 -4.68497e-05 -0.048063)
(0.00192584 0.00067399 -0.0469408)
(0.000760116 -0.000121137 -0.0446736)
(-0.000825716 0.000346665 -0.052191)
(0.000905784 -5.39522e-05 -0.0488512)
(0.00108981 -6.23497e-05 -0.0492466)
(0.000910768 -4.93794e-05 -0.0488758)
(0.000963723 -3.05523e-05 -0.0490028)
(-0.000560466 0.000120184 -0.0479422)
(0.0018706 0.00211277 -0.043792)
(0.00119226 6.1667e-05 -0.0480355)
(0.0011739 -4.31052e-05 -0.0485573)
(0.00120341 0.000111243 -0.0478108)
(0.00188562 0.00238682 -0.0438719)
(0.00197401 0.00241812 -0.0441044)
(0.000953975 -9.40823e-05 -0.0476313)
(-0.00112744 -0.00150442 -0.0491764)
(0.00051279 -0.000194422 -0.0438699)
(0.00166105 0.000490026 -0.0475556)
(-0.000590564 0.000167441 -0.0482692)
(-0.000534686 0.000164111 -0.0505827)
(0.000963416 -9.90218e-05 -0.0490149)
(-0.00168763 -0.00281888 -0.052547)
(0.000866083 -0.000200118 -0.0462309)
(0.00195689 0.00205168 -0.0439051)
(0.000790783 -0.000121512 -0.0425721)
(0.000872014 -5.68835e-05 -0.0429712)
(0.000993195 2.84661e-05 -0.0439363)
(0.000814436 -0.000237205 -0.0456916)
(0.00118213 -0.00047432 -0.0459193)
(-0.000572593 0.000625463 -0.0483831)
(0.00112562 -6.02441e-05 -0.0484927)
(-0.0016215 -0.00300166 -0.0515569)
(-0.000840029 0.000347459 -0.0528962)
(0.00116999 0.000262263 -0.0436737)
(0.00092611 -0.000103432 -0.0491056)
(0.000838086 -0.000100854 -0.0473297)
(0.0009009 -7.41024e-05 -0.0487839)
(0.00146832 0.00116094 -0.0447022)
(-0.00105722 -0.00129203 -0.0492579)
(-0.00165835 -0.00295371 -0.0516042)
(-0.00163567 -0.00297458 -0.0522429)
(-0.00159945 -0.00288129 -0.0526661)
(-0.00162297 -0.0029279 -0.0528641)
(-0.00172768 -0.00291138 -0.0529471)
(-0.0016958 -0.00288191 -0.0529013)
(0.000432804 -0.00019733 -0.042201)
(0.00193549 0.00247155 -0.0442543)
(0.0010539 -7.80082e-05 -0.0483385)
(0.00115619 -2.02752e-05 -0.0484968)
(-0.000580619 0.000180161 -0.0483995)
(-0.00211254 -0.00419182 -0.0522045)
(-0.0017486 -0.00292144 -0.0530529)
(-0.00171426 -0.0029245 -0.0531179)
(0.00220314 0.00193077 -0.0457516)
(0.000409536 -0.000236449 -0.0434171)
(0.00104512 -8.68075e-05 -0.0472385)
(0.00122068 0.000189291 -0.0471152)
(0.000817759 -0.000288916 -0.0460579)
(0.00109289 0.000111488 -0.0462278)
(0.00189816 0.000737218 -0.0465139)
(0.00119324 0.000262554 -0.043665)
(0.00117649 -6.91289e-05 -0.0475283)
(-0.000996831 -0.00103572 -0.0492414)
(-0.00184713 -0.00332164 -0.0530297)
(-0.00172155 -0.00296601 -0.0532402)
(0.00108689 -0.000327797 -0.0469198)
(0.00100131 -9.53001e-05 -0.047486)
(0.00123288 -5.51076e-05 -0.0450318)
(-0.000655536 0.000246793 -0.0490506)
(-0.000575174 0.000227888 -0.0516301)
(0.000614508 -0.0001781 -0.0401556)
(0.000950747 -0.000128048 -0.0474413)
(-0.0011982 -0.00165801 -0.0516729)
(0.0010717 -0.000164442 -0.045453)
(0.000834444 -0.000214467 -0.046925)
(0.00337114 -0.00035469 -0.047276)
(0.000909757 -0.000150966 -0.0473893)
(0.00145197 -0.000728746 -0.0470825)
(0.000711928 -0.000152347 -0.0459612)
(0.00114479 0.000144368 -0.0466896)
(0.00093722 -5.12363e-05 -0.0488239)
(-0.00159025 -0.00289746 -0.0530868)
(0.00104092 0.00013253 -0.0416657)
(0.00206192 -0.0018883 -0.0458313)
(-0.00146035 -0.00302558 -0.0521489)
(-0.00271721 -0.00594195 -0.0524333)
(0.00130446 -0.000604622 -0.0460734)
(0.000908868 -0.000362097 -0.045872)
(0.00104243 -0.000412331 -0.0457709)
(0.00131661 -0.000624522 -0.0467388)
(0.00117563 -0.00030518 -0.0474542)
(-0.00270956 -0.00608238 -0.0523385)
(0.000693533 -0.000173618 -0.0456607)
(0.00099156 -0.000118135 -0.048599)
(0.000892738 -0.00020558 -0.0468395)
(-0.000971567 0.000362954 -0.052036)
(-0.000604248 0.000335215 -0.0523389)
(0.000628796 -0.000204337 -0.0445629)
(0.00124891 0.00124982 -0.046252)
(0.000798922 -0.000316704 -0.0454615)
(0.00105272 -6.74093e-05 -0.0484673)
(0.000383782 -0.000309672 -0.0419144)
(0.000744053 -0.000210438 -0.0474529)
(0.00177694 0.00141293 -0.0456102)
(0.000880136 -0.000355676 -0.0453917)
(0.000868722 -0.000186552 -0.0472543)
(0.00156451 0.000411939 -0.0475312)
(0.00129022 -0.000552337 -0.0462686)
(0.00139536 -0.000688238 -0.0476237)
(-0.00229617 -0.00455994 -0.053721)
(0.000869624 -0.000121902 -0.0482912)
(0.000850299 -0.000161519 -0.0475728)
(0.00156593 -0.0013748 -0.047238)
(0.00206491 -0.00196852 -0.0468233)
(0.000688731 -5.28323e-05 -0.0379888)
(0.00205015 0.0019898 -0.0454453)
(0.0015374 -0.00111593 -0.0443502)
(0.00132941 0.000159489 -0.0465891)
(0.00202307 -0.0019112 -0.0460418)
(0.00150025 -0.000820775 -0.0467791)
(-0.00111621 -0.00162035 -0.0525568)
(-0.0010331 -0.00164081 -0.0522803)
(0.00256177 -0.00103719 -0.0464957)
(0.000852094 -0.000168032 -0.0476332)
(0.00139418 -0.00060782 -0.0470368)
(-0.000582822 0.000496841 -0.0475483)
(0.00107984 -9.74509e-05 -0.0479493)
(0.00111747 -2.12029e-05 -0.0491207)
(-0.000849964 0.000167099 -0.0521733)
(0.00129147 -3.06313e-05 -0.0481148)
(0.000439831 -0.000241943 -0.0435018)
(0.000462741 -0.000229197 -0.0441781)
(0.000867761 -0.00013709 -0.0477837)
(0.00139417 0.00072737 -0.0452751)
(0.00150904 -0.00109838 -0.0472966)
(0.000818713 -0.00010345 -0.0478305)
(0.00205276 -0.00205154 -0.0469479)
(0.00104148 -0.000140227 -0.0487173)
(0.00136686 -0.00157139 -0.0495074)
(0.00131499 -0.00161127 -0.049884)
(0.001631 0.000797691 -0.0470687)
(0.00165484 -0.00116353 -0.0470962)
(0.0013423 -0.000524166 -0.0483137)
(0.00134529 -0.000523436 -0.0483558)
(0.00150089 0.000998811 -0.0486233)
(0.000822902 -0.000194159 -0.0459231)
(0.00090791 -2.8701e-05 -0.0436619)
(0.000710936 -0.000188064 -0.0445602)
(0.00105807 0.000139605 -0.0418058)
(0.00117118 0.00111861 -0.0452448)
(0.00117383 0.000195783 -0.0463083)
(0.00127057 0.00111335 -0.0457161)
(0.00122886 -0.00048762 -0.0469676)
(0.00131359 -0.000474859 -0.0486476)
(-0.000491026 0.000207438 -0.0516166)
(-0.00168545 -0.00313128 -0.0541074)
(0.00110577 0.000219026 -0.0427183)
(-0.000664704 0.00028596 -0.0496968)
(0.00164098 0.000763838 -0.0481145)
(0.00168217 -0.00129899 -0.0460673)
(0.00122044 0.0011578 -0.0480958)
(0.00132956 -0.000701875 -0.0452217)
(0.00129395 -0.000494018 -0.0482324)
(-0.000774573 0.000728821 -0.0533596)
(0.000697263 -0.000183367 -0.0449447)
(0.000770531 -0.000319755 -0.0454974)
(0.000981485 -0.00012001 -0.0477585)
(0.00107858 -0.000123344 -0.0464669)
(-0.000444368 0.000263596 -0.0474211)
(0.00106612 -5.4359e-05 -0.0494604)
(0.00122531 0.00130937 -0.047904)
(0.00124684 0.00123641 -0.0482555)
(0.00121353 0.0013188 -0.0488918)
(-0.00043893 0.000256195 -0.051573)
(0.00125776 0.00128929 -0.0477504)
(0.00137647 -0.0015756 -0.0501447)
(0.00121282 0.00130284 -0.0488737)
(0.00128057 0.00126927 -0.0493589)
(0.00148854 -0.000796115 -0.0486222)
(0.000967383 -0.000135038 -0.047381)
(0.000973939 2.08464e-05 -0.0437681)
(0.00106253 -0.000326258 -0.0476165)
(0.00147845 -0.000435031 -0.0496815)
(0.00132269 -0.000489091 -0.0477234)
(0.00133779 -0.000532546 -0.0476426)
(0.00126433 0.00123948 -0.0480397)
(0.00125193 0.00130481 -0.0477069)
(0.00148723 -0.000812329 -0.0479753)
(0.00155608 -0.00149184 -0.0500562)
(0.0013062 0.000519236 -0.0442339)
(0.00123396 -0.000470289 -0.047246)
(0.00124559 -3.96888e-05 -0.0488575)
(0.00130044 0.00125705 -0.048963)
(0.00148772 -0.00103389 -0.0475766)
(0.00120014 0.00114422 -0.0476297)
(0.0014668 0.00106848 -0.0483581)
(0.00133785 -0.00164852 -0.0503506)
(0.000708672 -0.000177245 -0.0436863)
(0.00115193 -0.00053702 -0.0452089)
(0.000493145 -0.000152871 -0.0449559)
(0.000955703 -7.423e-05 -0.0486253)
(-0.000499335 0.000256669 -0.0471537)
(0.00105057 -6.23041e-05 -0.0493568)
(0.0010607 -5.26252e-05 -0.0497476)
(0.00110527 -3.13414e-05 -0.0501196)
(0.00159841 0.000726305 -0.0483198)
(0.0011827 -9.41064e-05 -0.0505587)
(0.00139383 -0.00154293 -0.0501798)
(0.00144364 0.000895863 -0.0489496)
(0.00152515 -0.000956482 -0.0474875)
(0.003378 -0.000317513 -0.047041)
(0.00122636 -0.000391232 -0.048325)
(0.00105369 -0.000476939 -0.0450671)
(-0.000739674 0.000510138 -0.0456156)
(0.000905538 -0.000257258 -0.0469763)
(0.000966007 -7.44219e-05 -0.0486882)
(0.00145464 0.000887716 -0.0482523)
(0.00120982 -0.000292575 -0.0491582)
(0.00135592 0.00112454 -0.047586)
(0.00118731 -6.83822e-05 -0.0487589)
(0.000731233 -0.000191394 -0.0479845)
(0.00148838 0.00101755 -0.0491242)
(0.000824656 -0.000174993 -0.0458364)
(0.000634993 -0.000194484 -0.0463604)
(0.00109851 0.000224407 -0.0424414)
(0.00123453 -0.000428149 -0.0489219)
(0.000998509 3.72478e-05 -0.0444327)
(0.000940453 -7.92088e-05 -0.0485906)
(0.00120554 -4.95299e-05 -0.0474791)
(0.00118024 0.00108485 -0.0453623)
(0.000966482 -7.12665e-05 -0.0488589)
(0.00136409 -0.000777473 -0.0454355)
(0.00117915 0.00133128 -0.0477268)
(0.00100503 -0.000291803 -0.0483215)
(0.000367289 -0.000248351 -0.0451033)
(0.000798287 -0.000142842 -0.0440237)
(0.000615717 -0.000169542 -0.0468329)
(0.00119039 0.000236233 -0.0452857)
(0.00131222 0.000254578 -0.0466188)
(0.000976622 -0.00013611 -0.0471359)
(-0.00039951 0.000272337 -0.047177)
(0.00138261 0.000738673 -0.0456917)
(0.00157565 0.000724424 -0.0490144)
(0.00122721 0.00118651 -0.0481754)
(0.00157121 0.000727781 -0.0491883)
(0.00142882 0.000225364 -0.050061)
(0.0014214 0.000778543 -0.048482)
(0.00120798 0.00113445 -0.0481788)
(0.00146284 -0.000939097 -0.0478726)
(0.00102133 -0.000318558 -0.0492244)
(0.00136189 -0.000517933 -0.0498731)
(0.000966287 -0.000138039 -0.0466884)
(0.000983087 -0.000428702 -0.0446695)
(0.00124823 -6.17679e-06 -0.0484195)
(-0.00041499 0.00024142 -0.0469136)
(0.00119555 0.00106907 -0.0459776)
(0.00144718 0.000340921 -0.0479571)
(-0.00117898 -0.00160303 -0.0505824)
(-0.000512108 0.000212288 -0.0480465)
(0.00145908 0.000820746 -0.0488352)
(0.00132485 -0.000702384 -0.0454519)
(0.00146862 -0.000558509 -0.0484948)
(0.00181356 -0.00160243 -0.0477226)
(0.00158244 -0.00101656 -0.0471919)
(0.000998308 -0.000118218 -0.048443)
(0.000947744 -0.00018193 -0.0472676)
(0.000984776 -0.000184563 -0.046692)
(0.00100952 -0.000127575 -0.0478418)
(0.000492137 -0.00017111 -0.0448042)
(0.00135319 0.000149968 -0.0485122)
(0.00147484 -0.00110875 -0.0495718)
(0.00136212 0.000154873 -0.0486136)
(-0.000442953 0.000236721 -0.0475856)
(0.00158073 0.000729458 -0.0495564)
(0.00122195 0.00129394 -0.0487073)
(0.00108481 -4.69983e-05 -0.0500783)
(0.00146273 0.000271364 -0.0507628)
(0.00149532 -0.000777736 -0.0494315)
(0.000401125 -0.000212903 -0.0386477)
(0.00106515 0.000211502 -0.0428431)
(0.00104476 -0.000114865 -0.0480587)
(0.00120558 -5.88802e-05 -0.0472594)
(0.00123888 0.000140513 -0.0472182)
(0.00142539 0.00057403 -0.045466)
(0.00156201 -0.00153654 -0.0499412)
(0.00136473 0.000961825 -0.0455058)
(0.00119387 0.00108026 -0.0456212)
(0.00137169 0.000157303 -0.0488299)
(0.000941905 -0.000113631 -0.047243)
(0.000963944 -0.00043445 -0.0443481)
(-0.000976843 -0.000656036 -0.0499598)
(0.00140899 0.000746659 -0.0483717)
(0.00127106 -0.000307877 -0.050256)
(0.00141311 0.000725437 -0.0486067)
(0.00120572 -4.54033e-05 -0.0499999)
(0.0012587 -0.000526134 -0.0491365)
(0.000876637 -0.000412421 -0.0445515)
(0.00136139 0.000696236 -0.0454892)
(0.00122666 -0.000610383 -0.0449062)
(0.0014355 0.00124573 -0.0500684)
(-0.00053523 0.000228969 -0.0483208)
(0.00114689 -7.59517e-05 -0.0507111)
(0.00152933 -0.00142034 -0.0494174)
(0.00153252 -0.00124531 -0.0505573)
(-0.00097075 -0.000579619 -0.051416)
(0.00046142 -0.00023679 -0.0437596)
(0.000364048 -0.000260753 -0.0431576)
(0.00107609 0.000275394 -0.0424889)
(0.000975831 -0.000188046 -0.0469063)
(0.00111287 0.000160424 -0.0450374)
(0.00131327 -0.000636988 -0.0451566)
(-0.000937091 0.000530012 -0.0450697)
(0.0013132 -0.000375523 -0.0495767)
(0.00148261 -0.000959315 -0.0473585)
(0.00121865 -0.000604037 -0.0449035)
(0.00139862 0.000734423 -0.0483914)
(0.00141303 -0.00066552 -0.0474479)
(0.00136064 -0.000666278 -0.0496253)
(0.00103161 0.000194899 -0.0417271)
(0.000897274 -4.12539e-05 -0.0437227)
(0.000982797 -0.000140074 -0.0476777)
(0.00104273 7.93321e-05 -0.0449666)
(0.00135037 0.000139594 -0.049016)
(0.00135447 0.000285111 -0.0466314)
(-0.000745191 0.000537738 -0.0460559)
(0.00099199 -5.93053e-05 -0.0497332)
(0.00155329 -0.000978714 -0.0478086)
(0.00134993 -0.00154561 -0.0516023)
(0.00142289 -0.00156196 -0.0502602)
(0.00138993 -0.0014836 -0.0505863)
(0.00147045 -0.000875632 -0.0477586)
(0.00144194 -0.000536768 -0.0492555)
(0.00106023 -0.00013028 -0.0475764)
(0.000999539 -0.000151535 -0.0469392)
(0.00113699 -0.000434759 -0.044186)
(0.000834388 -0.000185565 -0.0480463)
(0.000937831 -0.000151247 -0.046725)
(0.00118313 -0.000321321 -0.048478)
(0.000864766 -0.000116241 -0.0479463)
(0.00115315 -0.000411808 -0.0438989)
(-0.000931051 -0.000468967 -0.0537548)
(0.00135069 -0.00162955 -0.0521209)
(0.00112373 0.000128082 -0.0448047)
(0.000789718 -0.000228414 -0.0459922)
(0.000754607 -6.46975e-05 -0.0406287)
(0.00100223 -0.000118074 -0.0487417)
(0.00083177 9.77469e-05 -0.0385854)
(0.00115036 5.63272e-05 -0.0468616)
(0.00111525 -0.000344471 -0.0484457)
(0.0011495 -7.65982e-05 -0.0463236)
(-0.000675368 0.00028767 -0.049491)
(0.00149658 0.000649121 -0.0495956)
(-0.000541682 0.000227892 -0.0484684)
(0.00157659 0.000742662 -0.0503345)
(0.00114857 -4.29532e-05 -0.0500874)
(0.00116718 -0.000431922 -0.044053)
(0.00156944 0.000714477 -0.0503414)
(0.00143099 -0.000688959 -0.04969)
(0.00122298 7.10166e-05 -0.0481266)
(0.000941654 -0.000115152 -0.048332)
(0.000958127 -6.03113e-05 -0.0500335)
(0.00128866 -2.49769e-05 -0.0482749)
(0.00274668 -0.00128496 -0.045563)
(0.00137187 0.000157939 -0.0493665)
(0.00159017 0.000716581 -0.0504149)
(0.000935656 -6.32982e-05 -0.0497619)
(0.00147853 0.000208053 -0.0503356)
(0.00109589 -4.006e-05 -0.0504845)
(0.0014739 -0.00119683 -0.0515808)
(0.0011018 -2.71665e-05 -0.0515821)
(0.00152506 -0.00134329 -0.0508256)
(0.00198714 -0.00230786 -0.0476354)
(0.00147393 -0.00136872 -0.0518324)
(0.000646535 -0.000159069 -0.0467474)
(0.00213871 0.000904977 -0.0470529)
(0.000981347 -0.000135099 -0.0477538)
(0.00131968 0.000312968 -0.0464684)
(0.00101357 -0.000124296 -0.047616)
(0.000958307 -0.000151406 -0.0475247)
(0.000717931 -0.000192267 -0.0470182)
(0.00334763 0.00237423 -0.0439135)
(0.00157676 0.000704564 -0.0502798)
(0.00131008 -7.32472e-05 -0.050239)
(0.00120006 0.00104895 -0.0474869)
(0.00120909 -3.14779e-05 -0.0510867)
(0.00149931 0.000425205 -0.0508431)
(0.00154551 -0.00117533 -0.0494859)
(0.00157478 -0.00139387 -0.050506)
(0.00101824 -0.000132373 -0.0479604)
(0.000506914 -0.000257088 -0.0428058)
(0.000858211 -0.000187937 -0.047071)
(0.0010978 -0.000105365 -0.0483952)
(-0.000761551 0.000518169 -0.0461897)
(0.00421515 0.00187878 -0.0468297)
(0.00163717 0.000713992 -0.0498772)
(0.00167002 0.000918795 -0.0490293)
(-0.000999687 0.00018036 -0.0545111)
(0.00142014 -0.00154602 -0.0507469)
(0.00142263 -0.00154431 -0.0507846)
(0.001538 -0.000943724 -0.0476921)
(0.000695315 -9.0412e-06 -0.0386124)
(0.000361955 -0.000259334 -0.0448946)
(0.000852693 -0.000148498 -0.048398)
(0.000949434 -1.7736e-07 -0.0459865)
(0.0013398 0.000303645 -0.046661)
(0.000953118 -0.000146808 -0.0476695)
(-0.000836961 0.000589677 -0.0495693)
(0.00139094 0.000115843 -0.0490928)
(0.00111073 0.00137181 -0.0468483)
(0.00145859 0.000592488 -0.0497412)
(0.00145724 0.000258885 -0.0504768)
(0.00146055 -0.00098586 -0.0505512)
(-0.000936307 -0.000505511 -0.0507131)
(-0.00096092 -0.000549371 -0.0507024)
(0.00111574 9.54424e-05 -0.0459007)
(0.00102666 -0.00014035 -0.0477136)
(0.00145152 -0.000882603 -0.0473151)
(0.00216781 0.000920389 -0.0471589)
(0.000952575 -0.000110203 -0.0488271)
(0.00143642 -0.00104526 -0.0503023)
(0.000994734 -8.73719e-05 -0.0495644)
(0.000921327 -6.97205e-05 -0.0497426)
(0.00095555 -7.85861e-05 -0.0498867)
(0.00164248 0.000732872 -0.0503207)
(0.00149256 0.000617752 -0.0500207)
(0.000629395 -0.000264423 -0.0489543)
(0.00148242 0.000600524 -0.0498985)
(0.00112026 -8.80375e-05 -0.0491078)
(0.00143712 0.00055771 -0.0496158)
(0.00153875 0.000937122 -0.0490517)
(0.00144952 0.000330703 -0.0489102)
(0.00127746 -0.000458952 -0.0484047)
(0.00145764 0.000277735 -0.0517893)
(0.00157307 -0.000838431 -0.0494241)
(0.000639952 -0.000378285 -0.0427579)
(0.00128951 -8.73554e-05 -0.0489002)
(0.00146051 -0.00079616 -0.0493301)
(0.000548461 -0.000188084 -0.0458094)
(0.00100407 -0.000127342 -0.0478178)
(0.000933876 -0.000106523 -0.0487432)
(0.00066172 -0.000308221 -0.0431668)
(0.000939947 -0.000146527 -0.0475538)
(0.00092933 -0.000140028 -0.0487986)
(0.000921969 -9.77094e-05 -0.0491435)
(0.00202004 -0.000737847 -0.0503315)
(0.00104704 -3.01015e-05 -0.0517994)
(0.00119401 -6.34148e-05 -0.0498417)
(0.000991179 -0.000410133 -0.0466768)
(-0.000901854 -0.000541097 -0.052181)
(0.00154108 -0.00122732 -0.0504617)
(0.000615828 -0.000257362 -0.0476573)
(0.00106939 0.000369825 -0.0423432)
(0.00124385 -0.000658941 -0.045657)
(0.000583796 -0.000299791 -0.0430805)
(0.00100853 -0.00013575 -0.0480609)
(0.000970497 -0.000149658 -0.0477893)
(0.00174915 0.000544696 -0.0477199)
(0.00113864 -0.000511918 -0.0440183)
(0.00108141 0.000289039 -0.0428615)
(0.00137576 0.000686743 -0.0452977)
(0.00208869 -0.000186198 -0.047737)
(0.000995988 -7.21315e-05 -0.0495423)
(0.000909422 -0.000108651 -0.0483121)
(0.00157219 0.000680154 -0.0503754)
(-0.000552781 0.000265238 -0.047792)
(0.00138232 0.000180565 -0.0490431)
(0.000857964 -0.000185482 -0.0484863)
(0.00115176 -5.83043e-05 -0.0508306)
(0.00431507 0.00171094 -0.0468708)
(0.000936655 -8.951e-05 -0.0493883)
(0.00106303 -0.000124179 -0.0480396)
(0.001425 0.000536937 -0.049652)
(0.00149155 0.000643781 -0.0501642)
(0.00150592 0.000662949 -0.0502296)
(0.00145503 0.000581406 -0.0498352)
(0.000982753 -4.60953e-05 -0.0511067)
(0.00156722 0.000532865 -0.0497349)
(0.000955322 7.27382e-05 -0.0428354)
(0.000830922 -0.000185334 -0.0482361)
(0.00103818 -0.000118071 -0.0459813)
(0.00105918 0.000745349 -0.0421065)
(0.000971778 -0.000147162 -0.0478703)
(0.00107355 0.000718166 -0.0419583)
(0.000969481 -0.000177136 -0.0475826)
(0.00130816 0.000140366 -0.0483372)
(0.0009256 -0.000103786 -0.0485691)
(0.000861057 -0.000151722 -0.0476972)
(0.00437605 0.00167777 -0.04557)
(0.00122756 -0.000487092 -0.0453764)
(0.00147058 0.000570617 -0.0501131)
(0.00118443 0.0010629 -0.046802)
(0.000950907 -8.50177e-05 -0.0495408)
(0.00118353 -0.000127674 -0.0489415)
(0.00153384 0.000964027 -0.0496926)
(0.00150582 0.000938693 -0.0495517)
(0.00142457 0.00101407 -0.0485514)
(0.00142909 0.000315908 -0.0491805)
(0.00138504 0.000503401 -0.0496255)
(0.00144439 0.000569307 -0.0498883)
(0.00457573 0.00200799 -0.0467185)
(0.00122349 -5.56814e-06 -0.0508971)
(0.00122813 0.00103641 -0.0480474)
(0.00131241 -0.000250081 -0.051053)
(0.00116564 -0.000514327 -0.0485578)
(-0.00102509 -2.10069e-06 -0.0551596)
(-2.25599e-05 0.00132584 -0.0508081)
(-0.000897167 0.000566076 -0.0520919)
(0.000976064 0.000254016 -0.0412653)
(0.00123193 0.00028717 -0.0448564)
(0.000598333 -0.00021125 -0.0471988)
(0.0006828 -0.000327339 -0.042228)
(0.000892847 -0.000124153 -0.0480258)
(0.000967442 -0.000295507 -0.0415294)
(0.00102266 -0.000310245 -0.0437228)
(0.00120718 -0.000115076 -0.0487354)
(0.00343777 0.00258717 -0.0447623)
(0.00127537 0.000112329 -0.0485719)
(0.000908951 -9.03566e-05 -0.0496313)
(0.000834525 -0.000270242 -0.0392349)
(0.000918731 -9.13694e-05 -0.0495194)
(0.00131543 0.00051605 -0.0464586)
(0.00132288 0.000541599 -0.0466391)
(0.00432217 0.00182723 -0.0464575)
(0.00153342 0.000457155 -0.0493781)
(0.0014264 -0.000787771 -0.0479019)
(0.0011145 -0.000481886 -0.0469423)
(0.00138376 -0.000516085 -0.0499954)
(0.00116102 -0.000513312 -0.0480342)
(0.00156238 -0.00120347 -0.0493732)
(-0.000862731 -0.000591088 -0.051576)
(0.000747094 -0.000157505 -0.0452154)
(0.00102781 6.04605e-05 -0.0449158)
(0.000380337 -0.000310509 -0.0438207)
(0.00110267 0.000821775 -0.0432406)
(0.00107333 -0.000567256 -0.044119)
(0.00112942 0.000318265 -0.0426515)
(0.00100885 0.000112406 -0.0437947)
(0.00103992 0.000257121 -0.0429285)
(0.000609823 -0.000308434 -0.0428006)
(0.00130716 0.000142701 -0.0483671)
(0.00145339 0.000687131 -0.0467518)
(0.00129269 -0.000109917 -0.0501092)
(0.000959518 -0.000294666 -0.041419)
(0.00154035 0.000685574 -0.049193)
(0.000709935 -0.000340956 -0.0437448)
(0.00127837 0.000696452 -0.0456114)
(0.0013243 0.000299027 -0.0471085)
(0.00144805 0.00016638 -0.0502091)
(0.00116886 0.00108219 -0.0480055)
(0.00152118 0.000649674 -0.0497392)
(0.00152895 0.000966881 -0.0499139)
(0.00414606 0.00179189 -0.0456601)
(0.00138965 0.000495459 -0.0497796)
(0.00144988 0.000571633 -0.0500423)
(0.0011938 0.00115506 -0.0482155)
(0.00657847 0.00275594 -0.0460849)
(0.00139846 0.000532991 -0.0499471)
(0.0011039 -6.87233e-05 -0.0505472)
(0.0020128 -0.0022961 -0.0478326)
(0.000939189 0.00154666 -0.0508114)
(-0.00132346 -0.00175486 -0.0538033)
(0.00150653 -0.00106275 -0.0500725)
(0.00207799 -0.0022065 -0.0472286)
(0.00154423 -0.000618882 -0.0488153)
(0.00151393 -0.00114314 -0.0499796)
(0.000868868 -3.63624e-05 -0.0435161)
(0.000939898 0.00011593 -0.0417531)
(0.000950763 -0.000436476 -0.0434511)
(0.000842788 -4.99426e-05 -0.0436146)
(0.00107807 0.000343885 -0.0436268)
(0.0009836 -0.000119829 -0.0460513)
(0.00120344 0.000119821 -0.0481173)
(0.000886368 -0.00011071 -0.0484701)
(0.00100918 -0.000286647 -0.0419704)
(0.000903979 -9.80445e-05 -0.0487498)
(0.0015392 0.000654143 -0.0504182)
(0.000987695 -0.000139443 -0.0481643)
(0.00154681 0.000607095 -0.0494497)
(0.00129173 0.000644193 -0.0456856)
(0.00165766 0.000728822 -0.0506406)
(0.00153434 0.000658139 -0.0495564)
(0.000778509 -0.000255076 -0.0386804)
(0.00111209 -3.45619e-05 -0.0515616)
(0.00109627 -3.04617e-05 -0.0521534)
(0.00155258 -0.00142754 -0.051234)
(0.00152192 -0.00143785 -0.0509944)
(0.00106504 0.000754509 -0.0424885)
(0.000509762 -0.000246377 -0.0455244)
(0.000794897 0.000132896 -0.0387839)
(0.000912038 -0.00016849 -0.0476817)
(0.000800794 -0.000225141 -0.0465192)
(0.000924314 -0.000165407 -0.0473109)
(0.00104299 0.000803918 -0.0431717)
(0.000884454 -0.000128881 -0.0480708)
(0.00117041 -9.40619e-05 -0.047869)
(0.000868852 -0.000126332 -0.0482814)
(0.00108446 -0.000117504 -0.0488344)
(0.00122972 9.27924e-05 -0.0482337)
(0.00132126 0.000241852 -0.0476651)
(0.000908499 -0.000105604 -0.0485846)
(0.00154684 0.000646967 -0.0504415)
(0.00331476 0.0065449 -0.0440122)
(0.00200466 0.00119619 -0.0471294)
(0.00153739 0.000639146 -0.050532)
(0.00148039 0.000314305 -0.0493173)
(0.000897419 -0.000100209 -0.0489415)
(0.00137248 0.000314146 -0.048484)
(0.000923652 -0.000102586 -0.0493891)
(0.00145987 0.000944789 -0.0498128)
(0.00152276 0.000971382 -0.0502906)
(0.00163056 0.000695746 -0.0506675)
(0.00125501 -1.32412e-05 -0.0502349)
(0.000866067 -0.000408328 -0.0510689)
(0.00132041 -0.000223546 -0.0509158)
(0.00446709 0.00171054 -0.0456606)
(0.00101424 -8.22305e-05 -0.050177)
(0.00117371 0.00128302 -0.049099)
(0.0014027 0.000939778 -0.0489607)
(0.00149649 -0.000975328 -0.0471488)
(0.00124186 -0.000539102 -0.0491897)
(0.00129103 -0.000591413 -0.0494595)
(-0.000855614 -0.000533967 -0.0533511)
(0.000636539 0.000130837 -0.0357414)
(0.00104626 0.000288168 -0.0432581)
(0.00107611 -0.000122885 -0.0467945)
(0.00114271 -0.000123589 -0.0475789)
(0.00125884 0.000218629 -0.0468863)
(0.00297327 0.00375551 -0.0442129)
(0.000912107 -0.000104087 -0.0495876)
(0.000913782 -9.29996e-05 -0.0498456)
(0.00146527 0.000595534 -0.0488144)
(0.00139182 0.000157931 -0.0501829)
(0.00138095 0.000472873 -0.0497741)
(0.00135007 0.000450778 -0.0498751)
(0.00145919 0.00123531 -0.0485058)
(0.00119246 -4.11619e-05 -0.0518554)
(0.00109922 -6.57835e-05 -0.0511776)
(0.00163529 0.00086021 -0.0515068)
(0.00135355 0.000613301 -0.0472494)
(0.00110057 -0.000352412 -0.0443927)
(0.00144096 0.0013895 -0.0521035)
(0.00143175 -0.00126186 -0.0490305)
(-0.0010827 0.000202393 -0.0532735)
(0.00140268 0.000249709 -0.0523611)
(-0.000793852 1.30789e-05 -0.0539347)
(0.00170189 -0.00136746 -0.0473642)
(0.000829361 -7.81389e-05 -0.0433386)
(0.000835418 -0.000181078 -0.0483699)
(0.000829215 -0.000182303 -0.048148)
(0.00118949 0.00046767 -0.0434035)
(0.000751606 -0.000250727 -0.0480392)