/*--------------------------------*- C++ -*----------------------------------*\
| =========                 |                                                 |
| \\      /  F ield         | OpenFOAM: The Open Source CFD Toolbox           |
|  \\    /   O peration     | Version:  plus.master.MPPICInterFoam            |
|   \\  /    A nd           | Web:      www.OpenFOAM.com                      |
|    \\/     M anipulation  |                                                 |
\*---------------------------------------------------------------------------*/
FoamFile
{
    version     2.0;
    format      ascii;
    class       scalarField;
    location    "3/lagrangian/kinematicCloud";
    object      age;
}
// * * * * * * * * * * * * * * * * * * * * * * * * * * * * * * * * * * * * * //


2459
(
2.96931
2.98552
2.91871
2.9917
2.85951
2.80579
2.95588
2.93011
2.79101
2.76165
2.73672
2.6346
2.9957
2.94695
2.92433
2.86421
2.79075
2.9937
2.94776
2.99394
2.98772
2.91857
2.91252
2.91247
2.89239
2.86659
2.85538
2.67767
2.97456
2.92007
2.8683
2.84992
2.77344
2.58118
2.99125
2.9819
2.97887
2.95441
2.95439
2.91206
2.90153
2.83174
2.80044
2.96268
2.8949
2.8592
2.83697
2.72404
2.61911
2.98668
2.96495
2.95959
2.95693
2.91774
2.90017
2.89926
2.89803
2.88623
2.77273
2.62579
2.99137
2.99051
2.97273
2.95301
2.94022
2.93795
2.91262
2.8991
2.88139
2.87836
2.82948
2.80302
2.80212
2.78314
2.7641
2.74484
2.74436
2.6362
2.61605
2.99903
2.9982
2.98878
2.98206
2.9814
2.97332
2.9598
2.95713
2.95654
2.94561
2.92757
2.89914
2.89374
2.88843
2.88833
2.87375
2.80752
2.80197
2.78263
2.75318
2.71785
2.69949
2.69641
2.68187
2.99058
2.9813
2.97657
2.97571
2.9543
2.95096
2.92768
2.92763
2.92531
2.92474
2.89653
2.89151
2.8863
2.88266
2.87854
2.8694
2.83313
2.83128
2.82242
2.79083
2.78347
2.77186
2.73446
2.72472
2.5757
2.54678
2.53944
3.00089
2.99773
2.99415
2.9781
2.97091
2.95804
2.94696
2.93576
2.92778
2.92732
2.90921
2.90111
2.86907
2.85277
2.85174
2.83972
2.82835
2.81034
2.797
2.78288
2.78127
2.7339
2.68461
2.5675
2.56558
2.99616
2.97979
2.97968
2.97647
2.96651
2.96542
2.9561
2.94064
2.93412
2.92648
2.9194
2.88837
2.86374
2.82064
2.78155
2.77148
2.76613
2.67477
2.99833
2.9741
2.96831
2.94747
2.9008
2.89823
2.89551
2.88794
2.84401
2.81313
2.81039
2.80932
2.76191
2.63934
2.99571
2.99197
2.99013
2.97036
2.95745
2.94599
2.94437
2.93819
2.93755
2.92251
2.91854
2.88867
2.88157
2.87963
2.87887
2.8736
2.87073
2.86732
2.85908
2.85421
2.84299
2.78354
2.76575
2.76196
2.74413
2.7367
2.66799
2.57038
2.98888
2.98549
2.97776
2.97049
2.94392
2.93156
2.93009
2.92979
2.92758
2.92588
2.92017
2.90798
2.88942
2.88734
2.88685
2.87932
2.8705
2.85922
2.84794
2.84475
2.84447
2.83926
2.8342
2.83084
2.8204
2.80619
2.791
2.79048
2.71493
2.69849
2.6703
2.53696
2.99893
2.98604
2.97665
2.97171
2.96708
2.96407
2.95734
2.95618
2.95156
2.95046
2.94691
2.92777
2.92772
2.92733
2.90995
2.89987
2.8839
2.87268
2.86861
2.86773
2.85956
2.85939
2.85206
2.84898
2.84208
2.82051
2.82011
2.75271
2.75015
2.7289
2.68474
2.66999
2.99847
2.9962
2.99423
2.98856
2.98491
2.97778
2.97045
2.96366
2.95663
2.94744
2.94476
2.94026
2.9374
2.91983
2.91957
2.91604
2.88863
2.86775
2.84897
2.84345
2.84019
2.82947
2.80553
2.79086
2.7829
2.76506
2.75323
2.74914
2.69621
2.99888
2.97856
2.97666
2.96538
2.96513
2.96485
2.96162
2.95621
2.93977
2.93948
2.92134
2.91766
2.90781
2.90659
2.90234
2.86383
2.85876
2.83939
2.81965
2.80765
2.80749
2.78785
2.78107
2.77389
2.74478
2.65944
3
2.99374
2.99367
2.99166
2.9916
2.98559
2.97623
2.96315
2.96218
2.9584
2.94378
2.93699
2.9337
2.93054
2.91762
2.91619
2.90775
2.90435
2.89175
2.88707
2.88657
2.87739
2.87591
2.86997
2.84008
2.83919
2.82976
2.81769
2.8003
2.79793
2.79574
2.79538
2.60025
2.99583
2.99063
2.98959
2.98506
2.97614
2.97313
2.9711
2.96389
2.95755
2.9561
2.94388
2.93416
2.93277
2.92734
2.92262
2.90865
2.90818
2.89991
2.88824
2.88616
2.87899
2.87866
2.87324
2.85562
2.83941
2.83918
2.83666
2.81393
2.77269
2.76812
2.76194
2.75578
2.74497
2.74492
2.72512
2.72397
2.68272
2.6585
2.99546
2.9903
2.98893
2.97075
2.96413
2.95975
2.94932
2.94486
2.92139
2.91723
2.91416
2.90085
2.89948
2.88582
2.87281
2.87083
2.85905
2.8531
2.85145
2.85048
2.84547
2.84029
2.83956
2.83918
2.80805
2.80007
2.78348
2.77445
2.70267
2.62857
2.99808
2.99178
2.97209
2.96518
2.95715
2.95638
2.9484
2.93455
2.92738
2.91824
2.89827
2.88957
2.88896
2.88823
2.8874
2.8788
2.87851
2.8714
2.87139
2.8688
2.86006
2.85428
2.85278
2.83592
2.83019
2.82075
2.8098
2.78753
2.77152
2.76316
2.76129
2.75342
2.73082
2.71735
2.69105
2.59953
2.56196
2.54221
2.53635
3.00021
2.99851
2.98817
2.98403
2.94739
2.9471
2.9372
2.93151
2.92951
2.92737
2.91925
2.91755
2.91621
2.90886
2.90773
2.90592
2.89829
2.88939
2.88842
2.87393
2.86995
2.86949
2.86912
2.86875
2.85762
2.83938
2.83256
2.83249
2.82939
2.81961
2.81105
2.78805
2.77376
2.75581
2.75238
2.69817
2.61945
2.44869
2.99127
2.98607
2.97714
2.97191
2.96437
2.95092
2.9478
2.94704
2.9347
2.93109
2.92614
2.92297
2.89972
2.87908
2.87857
2.87041
2.83067
2.82965
2.82288
2.82225
2.82081
2.79048
2.72519
2.61121
2.60367
2.5921
2.45016
3.00019
3.00017
2.98669
2.97192
2.96975
2.95801
2.95702
2.95247
2.95213
2.91936
2.89362
2.88871
2.8828
2.88104
2.87865
2.87443
2.87367
2.87207
2.85891
2.84897
2.83967
2.80286
2.78231
2.75239
2.74296
2.72726
2.68828
2.60214
2.57846
2.53888
3
3.00013
2.99456
2.97677
2.97281
2.96906
2.96729
2.96656
2.96401
2.9639
2.96385
2.95815
2.95603
2.95113
2.94457
2.94209
2.93414
2.92736
2.92006
2.91004
2.90999
2.87915
2.87081
2.86004
2.8416
2.79457
2.77784
2.73999
2.70736
2.59119
2.4796
2.98283
2.981
2.97647
2.97062
2.97078
2.95861
2.95641
2.9562
2.94006
2.93808
2.93752
2.93713
2.91065
2.91048
2.90888
2.90183
2.89816
2.88209
2.86155
2.86071
2.84318
2.81052
2.8053
2.79794
2.79135
2.77206
2.76657
2.76239
2.73859
2.73221
2.71443
2.60178
2.51528
2.99377
2.99145
2.99124
2.98504
2.98089
2.97045
2.97028
2.9669
2.9662
2.95505
2.944
2.93953
2.93765
2.93679
2.93541
2.93299
2.93074
2.91752
2.87698
2.86865
2.86856
2.86568
2.8498
2.84723
2.83019
2.82067
2.8198
2.81255
2.81047
2.79814
2.79568
2.77051
2.73526
2.71088
2.99908
2.99608
2.99217
2.98659
2.98222
2.98097
2.98113
2.98044
2.9731
2.97278
2.9644
2.96015
2.95778
2.94863
2.94694
2.92739
2.91952
2.91192
2.8982
2.89544
2.86597
2.85927
2.85802
2.84916
2.84799
2.84784
2.83949
2.82077
2.80911
2.7911
2.77074
2.76215
2.75281
2.74205
2.72355
2.67629
2.65825
2.6291
2.61457
2.9989
2.99236
2.98834
2.97742
2.97525
2.97417
2.96067
2.95933
2.95132
2.94762
2.94739
2.94325
2.93868
2.9325
2.93007
2.91857
2.91336
2.89168
2.89132
2.88648
2.88065
2.87884
2.87331
2.86176
2.86121
2.86082
2.85637
2.85131
2.82529
2.82322
2.78046
2.77253
2.77143
2.72848
2.70509
2.60232
2.99935
2.99811
2.99389
2.98835
2.98357
2.9777
2.9764
2.97204
2.96903
2.96865
2.9639
2.96099
2.93738
2.92816
2.92746
2.9178
2.90998
2.90816
2.89921
2.89395
2.88854
2.8675
2.84712
2.84168
2.83971
2.83043
2.8301
2.81087
2.78206
2.78138
2.78104
2.78096
2.77789
2.76717
2.7056
2.58519
2.99129
2.98491
2.98257
2.98092
2.97973
2.97105
2.96991
2.96731
2.96721
2.96681
2.96569
2.96496
2.96005
2.9471
2.93759
2.93402
2.93179
2.92004
2.91787
2.91754
2.91494
2.91452
2.91088
2.91067
2.89401
2.8826
2.87315
2.85767
2.84902
2.84857
2.84563
2.83032
2.82498
2.82079
2.80982
2.8037
2.80002
2.79912
2.79223
2.68883
2.67462
2.6517
2.6381
2.60853
2.54344
2.97068
2.96391
2.9639
2.96077
2.95079
2.92314
2.92073
2.91807
2.91768
2.90965
2.90816
2.90773
2.89794
2.88111
2.8793
2.87847
2.86875
2.85153
2.84991
2.84967
2.84933
2.84919
2.81419
2.77496
2.77189
2.74596
2.74423
2.68013
2.6579
2.63891
2.62788
2.55508
2.99896
2.98128
2.97697
2.96998
2.96096
2.94425
2.94276
2.94262
2.94135
2.92893
2.92379
2.92302
2.91994
2.89912
2.89845
2.89799
2.88815
2.88717
2.87844
2.85029
2.84999
2.8314
2.8237
2.82305
2.81066
2.80008
2.79838
2.77957
2.77344
2.77146
2.75173
2.7365
2.73482
2.73366
2.72944
2.65636
2.64774
2.99653
2.98301
2.97632
2.96394
2.96273
2.95625
2.95453
2.94883
2.94177
2.93711
2.92706
2.91944
2.91298
2.90386
2.90369
2.8947
2.89442
2.88169
2.87196
2.86047
2.85939
2.85218
2.83171
2.8184
2.80994
2.8098
2.80026
2.78157
2.7687
2.76209
2.70941
2.64941
2.6286
2.6286
2.49559
2.99271
2.99157
2.99081
2.98912
2.98834
2.97757
2.95429
2.94087
2.94081
2.93872
2.93837
2.93738
2.93144
2.93104
2.92904
2.92735
2.91582
2.90917
2.90254
2.88814
2.88668
2.87277
2.87237
2.86249
2.8476
2.84178
2.83818
2.82556
2.8232
2.8106
2.8059
2.79191
2.77143
2.73334
2.72003
2.66855
2.66057
2.65328
2.49664
2.44222
2.99369
2.97667
2.97127
2.95816
2.94871
2.94827
2.9481
2.948
2.93018
2.92999
2.9287
2.92739
2.91956
2.91064
2.90818
2.88901
2.84131
2.8409
2.82227
2.82096
2.81166
2.80863
2.8005
2.79873
2.78186
2.78185
2.77706
2.76634
2.75568
2.75239
2.7426
2.74188
2.69059
2.69016
2.68981
2.67777
2.66703
2.65891
2.65717
2.63197
2.61937
2.59287
2.50601
2.99397
2.98836
2.98379
2.98174
2.97902
2.97308
2.97077
2.97054
2.96422
2.95757
2.94808
2.93693
2.93187
2.91937
2.90987
2.90222
2.8981
2.89711
2.89263
2.88895
2.87428
2.86858
2.84898
2.84691
2.84523
2.83944
2.81962
2.81758
2.81751
2.81714
2.81288
2.80355
2.78522
2.77268
2.77214
2.76899
2.7449
2.72383
2.71395
2.70833
2.70555
2.70296
2.69868
2.62894
2.58096
2.99995
2.99526
2.99183
2.99131
2.99031
2.98866
2.97082
2.97027
2.96788
2.96672
2.96421
2.95242
2.94778
2.93753
2.93716
2.90349
2.90182
2.89287
2.87505
2.85947
2.85779
2.85632
2.84903
2.83934
2.82994
2.81232
2.79052
2.78054
2.76192
2.72936
2.71757
2.71532
2.70396
2.70075
2.67638
2.6762
2.64771
2.51463
2.49848
3.00016
2.99884
2.99599
2.98953
2.98451
2.9825
2.98118
2.98106
2.97148
2.96648
2.96217
2.95913
2.94702
2.94465
2.9401
2.91647
2.91281
2.91177
2.90776
2.902
2.9004
2.89813
2.8978
2.88165
2.88099
2.86209
2.85541
2.84853
2.84296
2.83843
2.81058
2.81033
2.80668
2.80055
2.80022
2.8
2.79102
2.791
2.77865
2.77017
2.7696
2.76198
2.74991
2.72799
2.72385
2.70933
2.70487
2.6983
2.68713
2.67516
2.66125
2.64766
2.63927
2.63812
2.63324
2.57154
2.50386
2.98256
2.97106
2.9574
2.95626
2.94667
2.94068
2.93571
2.93003
2.9108
2.90596
2.90543
2.90115
2.89805
2.86929
2.86445
2.8596
2.82805
2.82281
2.81968
2.81967
2.79667
2.76618
2.74286
2.72176
2.70398
2.65255
2.65094
2.61522
2.61141
2.61015
2.98177
2.95032
2.9501
2.94624
2.93767
2.93719
2.93296
2.91778
2.91752
2.91453
2.8895
2.83833
2.78108
2.78005
2.75547
2.73612
2.72605
2.70562
2.51429
2.49904
2.46077
2.99135
2.98896
2.98869
2.98091
2.98095
2.98029
2.9705
2.96418
2.96394
2.95191
2.93274
2.93101
2.92744
2.924
2.91766
2.91518
2.90141
2.87937
2.87784
2.8766
2.86275
2.85123
2.76654
2.71711
2.69675
2.67619
2.61112
2.54252
2.5256
2.49621
2.99881
2.99495
2.99378
2.99047
2.96251
2.95829
2.95818
2.95323
2.94727
2.94559
2.9244
2.88815
2.88512
2.88466
2.84088
2.82114
2.81122
2.80872
2.80372
2.79488
2.79052
2.757
2.75409
2.73898
2.70502
2.67619
2.65075
2.48717
2.4842
2.9941
2.99383
2.98075
2.97751
2.96392
2.96169
2.94199
2.93322
2.92421
2.90642
2.90463
2.8686
2.85241
2.84899
2.7895
2.75615
2.73635
2.67694
2.67205
2.98528
2.98154
2.97649
2.97146
2.95918
2.95768
2.95417
2.94792
2.93713
2.90795
2.89212
2.88553
2.87969
2.87946
2.87918
2.85528
2.83402
2.81959
2.8022
2.78858
2.78489
2.78362
2.78149
2.75446
2.99921
2.98554
2.97087
2.9561
2.94721
2.92829
2.91754
2.90674
2.89278
2.84035
2.7812
2.73386
2.70525
2.63823
2.44173
2.99848
2.99594
2.96447
2.96228
2.9622
2.95996
2.92881
2.91893
2.89796
2.89539
2.86856
2.86771
2.85106
2.8199
2.79053
2.79049
2.78048
2.73206
2.71857
2.71522
2.70962
2.70299
2.65268
2.61039
2.44821
2.99743
2.98228
2.97076
2.94692
2.91615
2.90799
2.90779
2.87492
2.8614
2.836
2.82476
2.74287
2.59048
2.50032
2.44678
2.41913
2.97644
2.96753
2.94212
2.9276
2.92582
2.90156
2.88449
2.88243
2.88138
2.87685
2.85357
2.83807
2.78376
2.78114
2.77839
2.76399
2.76242
2.75498
2.7256
2.64917
2.63881
2.63844
2.61441
2.58293
2.98947
2.98495
2.98264
2.98243
2.96395
2.96507
2.93722
2.91484
2.90177
2.87971
2.869
2.85222
2.84932
2.82127
2.75239
2.7299
2.68509
2.67846
2.54526
2.98162
2.98153
2.95756
2.93779
2.93183
2.92078
2.89817
2.89736
2.88874
2.84972
2.84016
2.82571
2.81554
2.73868
2.72868
2.70816
2.98107
2.9793
2.97546
2.9709
2.95845
2.95063
2.91908
2.90938
2.86866
2.83002
2.79423
2.78297
2.77166
2.76209
2.75294
2.743
2.72611
2.68624
2.66755
2.58201
2.55688
2.98496
2.97662
2.94751
2.94691
2.90655
2.88652
2.87958
2.87715
2.86909
2.8588
2.7833
2.75222
2.74969
2.74292
2.68867
2.66674
2.66157
2.57184
2.99895
2.99365
2.99159
2.96622
2.95612
2.95322
2.94767
2.93406
2.91181
2.88861
2.88041
2.849
2.84595
2.83165
2.81978
2.81237
2.78802
2.72006
2.70178
2.69535
2.62675
2.61927
2.593
2.56233
2.99882
2.98151
2.97621
2.96606
2.94698
2.94054
2.92941
2.91543
2.91013
2.90894
2.90777
2.87911
2.86058
2.85876
2.85435
2.84729
2.82943
2.8205
2.81726
2.7868
2.72423
2.69883
2.67783
2.66833
2.6413
2.62512
2.57304
2.99427
2.98629
2.97634
2.97061
2.96432
2.94256
2.83927
2.81259
2.76902
2.69249
2.64418
2.62045
2.99387
2.94731
2.92734
2.91331
2.90838
2.88894
2.88053
2.87002
2.86865
2.8518
2.83958
2.83922
2.82149
2.7862
2.75445
2.58975
2.99828
2.99365
2.99123
2.98002
2.97065
2.95363
2.94732
2.90132
2.88356
2.88142
2.86627
2.82975
2.77588
2.72698
2.62333
2.54989
2.99431
2.99204
2.96564
2.96498
2.9373
2.90276
2.87001
2.85283
2.85251
2.84644
2.84036
2.84033
2.78147
2.70556
2.69533
2.68655
3
2.99166
2.97781
2.97724
2.9767
2.94055
2.92402
2.85879
2.85599
2.82221
2.8155
2.80982
2.80025
2.7925
2.79082
2.72404
2.68493
2.56298
2.96442
2.89406
2.8784
2.86808
2.73386
2.73374
2.73333
2.71518
2.68095
2.98545
2.98161
2.98137
2.97699
2.95624
2.92835
2.90778
2.88548
2.84899
2.84849
2.79422
2.69898
2.6773
2.62902
2.62149
2.59048
2.9995
2.99245
2.98984
2.98492
2.98336
2.97287
2.9653
2.95992
2.95668
2.94139
2.92967
2.86001
2.85429
2.82743
2.82016
2.78438
2.74118
2.63741
2.54341
2.99928
2.99064
2.98971
2.98877
2.98843
2.98089
2.97622
2.97046
2.9646
2.92418
2.89883
2.87578
2.86099
2.85999
2.84505
2.84306
2.79352
2.74605
2.70025
2.60117
2.99923
2.96468
2.95623
2.95176
2.94693
2.93902
2.90534
2.89419
2.86109
2.79684
2.79185
2.7823
2.68578
2.59438
2.55837
2.99745
2.97613
2.96391
2.95611
2.92759
2.92398
2.86525
2.80301
2.80149
2.80052
2.79367
2.74016
2.69649
2.65757
2.62928
2.62861
2.62069
2.58534
2.41906
2.94992
2.94899
2.92965
2.92149
2.8889
2.81983
2.8
2.76268
2.7352
2.72382
2.71773
2.67014
2.66315
2.4294
2.93725
2.91006
2.90839
2.89251
2.88462
2.85018
2.83942
2.83876
2.77133
2.73128
2.70484
2.68824
2.6762
2.9937
2.99154
2.96464
2.95678
2.95578
2.94045
2.93718
2.92309
2.91997
2.91627
2.90078
2.89839
2.85878
2.82012
2.76236
2.62111
2.5334
2.50697
2.9844
2.9641
2.95624
2.89746
2.88519
2.88008
2.87034
2.86001
2.82193
2.80615
2.72649
2.72188
2.69835
2.68869
2.56544
2.5537
2.99435
2.93536
2.93409
2.92657
2.92041
2.91753
2.90801
2.85944
2.83153
2.80988
2.80043
2.76423
2.75593
2.66673
2.63813
2.98739
2.97056
2.96605
2.94767
2.92317
2.9072
2.89906
2.88878
2.87943
2.87045
2.86072
2.85876
2.83701
2.76799
2.63165
2.99367
2.99194
2.98806
2.97232
2.96918
2.95669
2.93857
2.92395
2.91623
2.87823
2.83001
2.82943
2.73996
2.70285
2.63425
2.61924
2.61717
2.97613
2.97139
2.96658
2.96047
2.96013
2.9522
2.94804
2.93975
2.8654
2.86484
2.83026
2.80587
2.75521
3.00072
2.99132
2.98224
2.95724
2.93851
2.91803
2.90812
2.87838
2.85026
2.83917
2.75264
2.73529
2.60551
2.54441
2.99764
2.98837
2.97626
2.97674
2.97065
2.95256
2.90693
2.88644
2.76336
2.66667
2.6023
2.50493
2.49185
2.47848
2.47548
2.99946
2.99894
2.99569
2.99027
2.98303
2.98179
2.96716
2.95868
2.95759
2.95361
2.94715
2.94539
2.93712
2.93639
2.93213
2.89792
2.88974
2.86858
2.83935
2.83829
2.78484
2.78129
2.64789
2.61564
2.61376
2.60123
2.57899
2.47685
2.99739
2.99235
2.98996
2.98628
2.98491
2.9779
2.97451
2.94554
2.91159
2.90269
2.87273
2.82636
2.781
2.7732
2.58299
2.5728
2.56084
2.55364
3.00002
2.99589
2.99156
2.97651
2.92736
2.89108
2.89047
2.88319
2.87841
2.84514
2.78404
2.77814
2.73632
2.71296
2.70575
2.6673
2.58478
2.99739
2.99142
2.94881
2.90548
2.90433
2.89423
2.89417
2.89409
2.86113
2.85952
2.75391
2.74019
2.70007
2.64071
2.58935
2.55249
2.53334
2.99955
2.9971
2.99461
2.98098
2.97055
2.95969
2.95045
2.94697
2.94048
2.87162
2.86963
2.86112
2.85827
2.8407
2.79151
2.76341
2.76043
2.66761
2.6584
2.65776
2.5775
2.98445
2.96791
2.96189
2.95839
2.95819
2.95645
2.93979
2.93721
2.91753
2.87843
2.83289
2.82949
2.81559
2.81355
2.8098
2.80276
2.79072
2.77143
2.76354
2.72237
2.53775
2.98849
2.96996
2.96435
2.95264
2.95239
2.94707
2.89817
2.88815
2.87029
2.86516
2.84815
2.80669
2.74752
2.73377
2.72345
2.70732
2.62924
2.61306
2.60028
2.57354
2.52515
2.99451
2.9769
2.96034
2.94947
2.91813
2.90019
2.89063
2.88847
2.83984
2.82975
2.82093
2.81813
2.6552
2.63528
2.60144
3.00001
2.97621
2.97378
2.96967
2.96649
2.96325
2.95622
2.94279
2.90806
2.89958
2.89194
2.88362
2.87066
2.83302
2.83143
2.81235
2.74288
2.58331
2.53416
2.99739
2.99654
2.99391
2.9894
2.96979
2.94691
2.93246
2.91955
2.91782
2.91042
2.90409
2.8884
2.87565
2.87348
2.86192
2.84361
2.84034
2.81066
2.79077
2.77146
2.76345
2.74549
2.71986
2.71817
2.63361
2.43277
2.97071
2.96944
2.96389
2.95925
2.95145
2.93543
2.90946
2.85099
2.84986
2.84684
2.83998
2.8349
2.82932
2.81113
2.80004
2.75938
2.75377
2.75006
2.62435
2.54426
2.49134
2.99988
2.99227
2.96924
2.96743
2.95617
2.90774
2.90112
2.89933
2.88086
2.86969
2.86719
2.80645
2.80535
2.79176
2.77658
2.77145
2.71431
2.69583
2.56411
2.99144
2.98092
2.97539
2.97132
2.96399
2.92673
2.86261
2.80984
2.80061
2.78352
2.78339
2.77216
2.71938
2.6477
2.6191
2.61117
2.99428
2.95738
2.95711
2.92757
2.88883
2.88819
2.87251
2.86254
2.84779
2.84435
2.80092
2.794
2.77317
2.74287
2.7221
2.69782
2.66105
2.56223
2.48713
2.99368
2.97675
2.95333
2.94927
2.89081
2.85839
2.84957
2.82049
2.80046
2.74293
2.70498
2.65829
2.59049
2.99209
2.9842
2.96953
2.96905
2.96697
2.96615
2.952
2.94799
2.90408
2.87208
2.83922
2.82066
2.81341
2.8133
2.80842
2.80121
2.79742
2.78284
2.73781
2.65552
2.64788
2.62657
3.0007
2.94988
2.94703
2.93773
2.93711
2.90745
2.87855
2.84898
2.84113
2.66915
2.63776
2.543
2.47932
3.0001
2.99291
2.99129
2.97282
2.95609
2.92631
2.90822
2.87429
2.85232
2.83049
2.82217
2.80008
2.79252
2.72422
2.9967
2.99133
2.98841
2.97906
2.96406
2.91964
2.89804
2.87836
2.82671
2.80803
2.7732
2.75338
2.73167
2.6803
2.64783
2.61027
2.58143
2.49968
2.44001
2.99626
2.96411
2.94768
2.94402
2.92371
2.86877
2.85148
2.80237
2.798
2.7544
2.74768
2.698
2.64069
2.63904
2.5082
2.99343
2.99167
2.97306
2.89294
2.8686
2.8684
2.80471
2.78561
2.78097
2.7172
2.68585
2.68581
2.62952
2.61444
2.563
2.4788
2.99164
2.97045
2.95717
2.94773
2.94338
2.93966
2.93754
2.91664
2.90806
2.87886
2.87838
2.87807
2.86233
2.85897
2.84929
2.82939
2.81831
2.69534
2.68685
2.59524
2.58095
2.99592
2.99124
2.96758
2.95589
2.94035
2.92796
2.92789
2.92245
2.90091
2.89595
2.8802
2.87044
2.85166
2.84903
2.8415
2.8364
2.82938
2.79308
2.78208
2.72788
2.53712
2.99945
2.99782
2.98906
2.97034
2.95364
2.88257
2.84397
2.84014
2.74014
2.67893
2.63533
2.57266
2.48202
2.99739
2.98943
2.97794
2.96644
2.9204
2.85051
2.74811
2.65476
2.99369
2.98502
2.96499
2.96474
2.96285
2.95896
2.95195
2.88496
2.85333
2.84618
2.80416
2.80096
2.75953
2.73091
2.69861
2.65836
2.6371
2.49674
2.99547
2.98675
2.98153
2.97745
2.95787
2.92724
2.91662
2.85886
2.85591
2.84583
2.82952
2.80005
2.7741
2.75425
2.66809
2.53431
2.9855
2.98258
2.98187
2.97152
2.95622
2.95153
2.93917
2.92599
2.91666
2.88064
2.66965
2.5347
2.97627
2.97419
2.95929
2.95855
2.95437
2.89254
2.84387
2.8
2.78278
2.75247
2.68971
2.67794
2.65937
2.60026
2.99191
2.98554
2.97135
2.90773
2.90419
2.88914
2.86533
2.86226
2.84017
2.77393
2.7729
2.72382
2.71815
2.70392
2.69404
2.68572
2.6774
2.6748
2.99378
2.98097
2.98134
2.9646
2.92261
2.91447
2.90845
2.85282
2.84007
2.82014
2.56838
2.99741
2.97643
2.97229
2.95786
2.95619
2.91032
2.86648
2.8585
2.82941
2.80799
2.78823
2.66816
3.00031
2.98447
2.9749
2.96445
2.91301
2.89297
2.84937
2.84902
2.71829
2.54398
2.51456
2.99571
2.98265
2.95067
2.93878
2.90855
2.88238
2.87925
2.83919
2.82274
2.74419
2.68925
2.63923
2.5716
2.98098
2.91465
2.86728
2.82581
2.76863
2.72994
2.70476
2.6213
2.52643
2.99134
2.9914
2.98741
2.96869
2.86869
2.8665
2.85185
2.82133
2.79334
2.7708
2.73333
2.64752
2.51515
2.9977
2.98211
2.96554
2.96391
2.9457
2.93111
2.83932
2.83387
2.73434
2.67464
2.97092
2.96477
2.95911
2.95617
2.9473
2.94072
2.92008
2.91012
2.84928
2.83504
2.82942
2.78128
2.67736
2.58191
)


// ************************************************************************* //
