/*--------------------------------*- C++ -*----------------------------------*\
| =========                 |                                                 |
| \\      /  F ield         | OpenFOAM: The Open Source CFD Toolbox           |
|  \\    /   O peration     | Version:  plus.master.MPPICInterFoam            |
|   \\  /    A nd           | Web:      www.OpenFOAM.com                      |
|    \\/     M anipulation  |                                                 |
\*---------------------------------------------------------------------------*/
FoamFile
{
    version     2.0;
    format      ascii;
    class       vectorField;
    location    "3/lagrangian/kinematicCloud";
    object      U;
}
// * * * * * * * * * * * * * * * * * * * * * * * * * * * * * * * * * * * * * //


2459
(
(-0.000724253 -6.71571e-05 0.283937)
(-0.000711684 0.00726495 0.277916)
(1.92352e-06 0.00566099 0.263669)
(-0.0013673 0.00843539 0.264031)
(0.0328128 0.00326717 0.323847)
(-0.000233439 0.00565775 0.295093)
(0.00193179 -0.00449675 0.305683)
(-0.000249943 0.00675122 0.260762)
(-0.000694223 0.00140137 0.291589)
(-0.00964941 0.00601281 0.291871)
(8.25112e-05 0.000353799 0.282431)
(-0.00955228 -0.000853674 0.302575)
(-0.00257771 0.0022886 0.311039)
(0.00183597 -0.00178495 0.31426)
(-0.00539964 0.0034481 0.334937)
(-0.00156867 0.00115433 0.274292)
(0.0206947 0.00242926 0.323039)
(0.0247568 0.00224189 0.322897)
(8.40594e-05 0.00659959 0.317672)
(0.000400686 0.00133294 0.320893)
(0.00225407 -0.00215534 0.311751)
(-0.00259289 0.0117905 0.31088)
(-0.0154709 0.00619789 0.3293)
(-0.0026533 -0.000222054 0.319823)
(0.000766291 0.00380876 0.281838)
(-4.6403e-05 -0.00156941 0.30414)
(-0.00421292 0.000464445 0.293985)
(-0.00604866 0.00963744 0.317665)
(-0.00156313 5.91104e-05 0.294484)
(0.00106109 0.000669896 0.283741)
(-0.00303202 0.0084229 0.25318)
(-0.00446298 0.0120961 0.303796)
(-0.0362304 0.0104405 0.322316)
(-0.000735814 0.00128627 0.287078)
(-0.00747255 0.00818006 0.316707)
(-0.0265876 0.00419967 0.320771)
(-0.00169823 0.00864513 0.293753)
(-0.00495775 -0.00283435 0.282302)
(-0.0031845 0.00875864 0.249739)
(-0.00829812 0.00369075 0.325436)
(0.0120769 -0.000416318 0.321882)
(-0.000569397 0.00188698 0.305538)
(-0.023934 0.0036684 0.278485)
(9.21905e-05 0.00318437 0.302069)
(-0.00978068 0.00602669 0.31283)
(-0.000130405 0.00814752 0.249393)
(-0.0171084 0.0128139 0.322591)
(-0.0020358 0.0050004 0.294575)
(-0.00381542 0.0162732 0.295123)
(-0.00734479 0.00974555 0.273439)
(-0.0132038 0.00339417 0.307177)
(-0.0159401 0.0115928 0.315817)
(0.00637581 -0.000158676 0.301045)
(0.00099052 0.000962286 0.300571)
(-0.00233976 -0.00309505 0.301813)
(-9.97764e-05 0.00485735 0.295191)
(-0.0172178 0.00882893 0.302365)
(-0.0249819 0.00094744 0.298751)
(-0.0170292 0.0037968 0.298156)
(-0.00306132 0.00644949 0.289818)
(0.00288531 0.0119706 0.282841)
(-0.00141525 0.00262544 0.288897)
(0.000890778 0.00165273 0.326113)
(0.000942063 -0.00120594 0.323488)
(-0.00979927 0.0184197 0.326832)
(0.000524016 0.00388289 0.285244)
(-0.00012686 -0.00139961 0.324158)
(-0.013262 0.00307998 0.312397)
(-0.00535486 0.00301021 0.292615)
(-0.0118273 0.000977226 0.316784)
(7.20315e-05 -0.000613119 0.321736)
(-0.0119885 0.0043292 0.286075)
(0.00078562 0.000716019 0.34777)
(-0.0143724 -0.000280253 0.315048)
(-0.00557026 0.00827414 0.275824)
(-0.00714845 0.00928111 0.306245)
(0.00177577 0.0117986 0.293043)
(-0.00776952 0.00569592 0.248206)
(-0.000825553 0.0062412 0.296481)
(0.00173481 0.000174598 0.328414)
(-0.00896706 0.00915731 0.311574)
(-0.0273963 0.00452718 0.297649)
(-0.00139197 0.00128065 0.323135)
(-0.025536 0.00416679 0.304127)
(0.000656177 0.00320747 0.319266)
(0.00161348 0.00728584 0.260668)
(-0.000596105 0.00204631 0.290334)
(-0.00263571 0.00820997 0.261739)
(-0.00209658 0.0087223 0.261109)
(0.000563128 0.00304552 0.311506)
(-0.0014549 0.00160431 0.262563)
(5.56449e-05 0.00594382 0.308326)
(-0.00526376 0.0055917 0.258734)
(0.0014426 0.00816884 0.302922)
(-0.000348536 0.011304 0.289149)
(-0.00884902 0.00922773 0.234297)
(-0.0132838 0.0110332 0.303414)
(-0.00342441 0.00608302 0.290982)
(-0.00453482 0.00871002 0.302371)
(0.000594414 0.00352799 0.3204)
(-0.00242036 0.00397857 0.312522)
(-0.0154594 0.00419839 0.307057)
(-0.00478629 0.00666582 0.263229)
(0.000732106 0.00650054 0.319589)
(-0.00767969 -0.00397348 0.274862)
(-0.0130584 0.0142641 0.304181)
(0.00119662 0.00380271 0.292964)
(-0.00340203 0.0130532 0.29341)
(0.000400706 0.00201429 0.287345)
(-0.00884692 0.00407347 0.304009)
(0.000800344 0.00347036 0.318533)
(0.000985068 0.00023212 0.327739)
(-0.00323752 0.00423006 0.324806)
(-0.0191481 0.00166703 0.29496)
(-0.000699822 0.000573242 0.339159)
(-0.00457405 0.00906444 0.243922)
(-0.0193927 0.0145998 0.316588)
(-0.0374357 0.00715619 0.308169)
(-0.0111913 0.00352432 0.318614)
(-0.00133141 0.00105587 0.336089)
(-0.0131437 0.00314373 0.303918)
(0.0008825 0.00298107 0.321651)
(0.00167719 0.00237404 0.332871)
(1.75631e-05 0.00508807 0.311966)
(-0.000282155 0.00313784 0.32965)
(-0.00143918 0.010714 0.296136)
(0.0015712 0.00218988 0.332949)
(-0.00296701 0.00605942 0.281593)
(0.000470179 0.00213106 0.333872)
(-0.0170612 0.0104675 0.300568)
(-0.00662524 0.00461224 0.309709)
(-0.0297261 0.0108206 0.260985)
(-0.0342276 0.0141481 0.241709)
(0.0010277 0.003282 0.284428)
(0.000394545 0.00558744 0.319027)
(0.000485633 0.00896321 0.248948)
(-0.020218 0.00313681 0.295041)
(-0.0235753 0.00626601 0.314949)
(-0.00356094 0.00805218 0.267724)
(-0.0130806 0.0112309 0.303433)
(0.00230798 0.000614433 0.274024)
(-0.0196298 0.00816368 0.269369)
(0.000134547 0.00479614 0.318561)
(-0.0280459 0.00637919 0.314379)
(0.00085208 0.00326704 0.327157)
(0.00152263 -0.00526903 0.306268)
(0.000839089 0.00354908 0.32715)
(-0.00962484 0.00392629 0.336573)
(-0.00820912 0.00282321 0.327655)
(-0.00528777 0.0134368 0.305805)
(0.000822767 0.00339505 0.32643)
(0.00135174 0.000990258 0.332615)
(0.000470773 0.00313312 0.333499)
(-0.0157519 -0.000591685 0.28913)
(0.00289411 0.0123827 0.301342)
(-0.00146839 0.000966256 0.351099)
(0.00121045 0.00529408 0.316758)
(0.00366441 0.00928514 0.320708)
(-0.0102189 0.00186952 0.324616)
(-0.00118931 0.00322638 0.34063)
(0.000825682 0.00691046 0.285613)
(0.00202866 0.00468825 0.313878)
(0.00118037 0.00166104 0.326395)
(0.000758387 0.00247117 0.327728)
(-0.000205387 0.00244531 0.245908)
(-0.000403874 0.00305304 0.340552)
(0.000427478 0.00369169 0.330399)
(0.00245234 0.0208627 0.303169)
(0.00110097 0.00182206 0.329788)
(0.000773976 0.00371253 0.32761)
(-1.41525e-05 0.00534251 0.319141)
(-0.0004264 0.010528 0.255578)
(-0.0345818 0.00682428 0.270913)
(0.000495468 0.0058918 0.276296)
(0.00169126 0.000815024 0.287642)
(-0.0111542 0.00296735 0.270062)
(0.00106413 0.00850701 0.260745)
(-0.00514743 0.00829068 0.248694)
(-0.00881563 0.00127903 0.319225)
(0.00012484 0.00579967 0.319699)
(0.000420357 0.0041262 0.324297)
(0.000965452 0.00231621 0.28304)
(0.00189352 0.00496829 0.322227)
(-0.00614839 0.0111198 0.247962)
(-0.00296145 0.0120014 0.315159)
(-0.0129591 0.00705179 0.243745)
(4.11707e-05 0.00168644 0.323587)
(-0.000760374 0.0021024 0.3486)
(-0.018334 0.00434804 0.291453)
(0.000125672 0.00515627 0.326901)
(-0.000710445 0.0113298 0.299344)
(0.00110381 0.0018834 0.342454)
(-0.00895323 0.00395899 0.332279)
(-0.00661031 0.00857985 0.306013)
(-0.0240875 0.00736412 0.286501)
(-0.00815753 0.0095617 0.318934)
(0.000619468 0.00642882 0.259513)
(-0.00850549 0.00432529 0.331867)
(-0.028283 0.00714579 0.279056)
(-0.0117859 0.0014024 0.282967)
(-0.00546662 0.00705896 0.24283)
(-5.00115e-05 0.00551231 0.329625)
(-0.0126075 0.00350853 0.267569)
(-0.017161 0.0106008 0.279663)
(-0.00895613 0.00387745 0.335664)
(0.000486884 0.00688832 0.311994)
(0.00161949 0.00573868 0.268542)
(-0.000400621 0.00376126 0.344126)
(-0.00353827 0.00843978 0.269809)
(0.00305252 0.00100514 0.321065)
(0.000714616 0.00760257 0.282519)
(-0.0196035 0.0064882 0.294592)
(-0.00425787 0.0103707 0.289202)
(-0.00655752 0.0266143 0.332877)
(-4.43744e-05 0.00430624 0.33712)
(0.0019327 0.00449861 0.326451)
(-0.0210817 0.00534273 0.292285)
(-0.00535251 0.0092568 0.246924)
(-0.00806354 0.00525857 0.33111)
(0.0022558 0.00704783 0.259825)
(-0.00599043 0.00185658 0.319353)
(-0.00442461 0.00107985 0.285175)
(0.00116883 0.00681259 0.277236)
(-0.006299 0.00843923 0.248449)
(-1.0319e-05 0.00478932 0.338443)
(0.000979927 0.00221925 0.345168)
(-0.00279597 0.00724311 0.331914)
(-0.00208566 0.010211 0.286332)
(-0.0290516 0.00353777 0.289844)
(0.000636434 0.00592669 0.317541)
(0.00172683 0.0077031 0.272876)
(-0.00514161 0.00239926 0.352784)
(6.86684e-05 0.00641667 0.322756)
(-0.00241606 0.017555 0.26975)
(-0.00119164 0.0115326 0.298696)
(0.000903625 0.00267415 0.339669)
(0.000117057 0.00573635 0.323995)
(-0.00963101 -6.46369e-05 0.312669)
(-0.00466952 0.00914216 0.27995)
(-0.00582385 0.00146586 0.284938)
(-0.00478326 0.0065735 0.338272)
(-0.0212559 0.00395562 0.276649)
(-0.00308874 0.00844864 0.301913)
(0.00103911 0.00294527 0.3362)
(-0.0015309 0.0106719 0.291129)
(-0.0229526 0.00365931 0.277647)
(-0.0131061 0.00680118 0.259137)
(0.00262286 0.00841756 0.269363)
(-0.00268623 0.00822784 0.278448)
(-0.0306408 0.0088108 0.278067)
(0.000601154 0.00646527 0.325274)
(-0.0012569 -0.00609098 0.314927)
(-0.000913631 0.00637965 0.310167)
(0.00210507 0.00402068 0.278417)
(-0.00741529 0.00479775 0.328396)
(0.00130059 0.00904885 0.318349)
(-0.00447928 0.00755294 0.305047)
(-0.00189675 0.00787224 0.282674)
(-0.000555829 0.00716992 0.307399)
(-0.000771305 0.00678471 0.315204)
(-0.000346997 0.00498942 0.342259)
(0.00131701 0.00218068 0.348126)
(0.00352232 0.00880391 0.257117)
(0.00367634 0.00806424 0.273759)
(-0.0283382 0.00841358 0.287165)
(-0.00113516 0.0113394 0.293835)
(-0.0283336 0.00895099 0.294463)
(-3.68262e-05 0.00575991 0.330141)
(-0.00682556 0.00520681 0.248487)
(-0.0105443 0.00672188 0.277901)
(-0.00323665 -0.000969723 0.303965)
(-0.00404096 0.00734241 0.292367)
(-0.00171003 0.0112243 0.292413)
(-0.00476978 0.0140224 0.26652)
(-0.0182789 0.00291625 0.295677)
(-0.000710166 0.00698479 0.309027)
(0.00321516 0.00380747 0.272362)
(-0.00863358 0.00300154 0.323069)
(-0.0262972 0.00480919 0.278482)
(-5.60845e-05 0.00450563 0.346904)
(0.000932047 0.00752544 0.318558)
(-0.00344382 0.00602405 0.323319)
(-0.0318882 0.00693696 0.288366)
(0.000732489 0.00667742 0.324591)
(-0.001432 0.00407104 0.306044)
(-0.00995851 0.00264092 0.290437)
(-0.0170951 0.0101222 0.271394)
(0.000491507 0.00343117 0.358113)
(-0.0116731 0.00625237 0.272545)
(-0.00396789 0.00903982 0.249197)
(-0.00562191 0.00961306 0.31069)
(0.00973513 0.000877388 0.253074)
(-0.00352546 0.00497247 0.291779)
(0.000318802 0.00605128 0.344378)
(-0.0108302 0.00116546 0.320601)
(0.000399415 0.00279943 0.35235)
(0.00317544 0.00782481 0.252668)
(1.63817e-05 0.00477736 0.342373)
(-0.00500311 0.000419788 0.262168)
(-0.0169811 0.0061939 0.275513)
(0.00108967 0.0071501 0.321714)
(0.000112646 0.00466782 0.342737)
(-0.00207968 0.00940573 0.291136)
(0.00771866 0.00111999 0.235168)
(7.16468e-05 0.00482762 0.339815)
(-0.00539737 0.000193659 0.293069)
(-0.00861978 0.00207366 0.298104)
(0.00111782 0.00508101 0.334682)
(0.000127686 0.00508352 0.345737)
(0.00282885 0.00936604 0.259538)
(-0.00462698 0.00761576 0.257997)
(0.000817648 0.00372109 0.347968)
(-0.00644111 0.00649301 0.313444)
(-0.00719327 0.0051982 0.327932)
(-0.0042566 0.00662734 0.259955)
(0.000671058 0.00522061 0.252918)
(-0.000850079 0.0102203 0.294477)
(-0.000353226 0.00890408 0.251311)
(-0.00672466 0.00448956 0.326115)
(-0.0189215 0.00724045 0.267856)
(0.0033955 0.00232487 0.334552)
(-0.00755497 0.00659225 0.282826)
(-0.0100216 0.0070357 0.278628)
(-0.00161428 0.0098518 0.284744)
(0.00291744 0.00548853 0.236341)
(-0.000350664 0.00682014 0.32682)
(0.00236864 0.00593944 0.277883)
(-0.00450331 0.00991072 0.274754)
(-0.00373946 0.0116193 0.306398)
(-0.002223 0.00216279 0.295294)
(-0.0120533 0.0117827 0.24095)
(0.00199201 0.00473433 0.325988)
(-0.00674071 0.00838698 0.27783)
(-0.00184317 0.00642802 0.256079)
(0.00103475 0.00562823 0.269167)
(-0.0102415 0.0042877 0.320042)
(-0.00113694 0.00718447 0.30592)
(0.0020574 0.00378707 0.328518)
(-0.00347549 0.00733315 0.249845)
(0.00130761 0.00806003 0.267585)
(-0.00967174 0.00955158 0.282313)
(-0.00690395 0.0053361 0.256259)
(0.00173342 0.00560142 0.336963)
(0.00758957 0.00390866 0.286109)
(0.00021232 0.00480128 0.340358)
(-6.09093e-05 0.00527845 0.344045)
(0.00163086 0.00663072 0.347779)
(-0.00484998 0.000955464 0.274119)
(-0.00644499 0.00543682 0.315983)
(0.00303755 0.00828321 0.332966)
(-0.0158238 0.00826631 0.268168)
(0.000329609 0.00725518 0.311068)
(-0.000800783 0.0064712 0.270004)
(-0.00180566 0.00842909 0.263232)
(0.00327538 0.00415243 0.355052)
(-1.97743e-05 0.00439664 0.346245)
(0.00029173 0.00495397 0.348764)
(-2.61508e-05 0.00559302 0.339433)
(0.000399169 0.00458807 0.346439)
(-0.00609761 0.00557176 0.31741)
(0.00578649 0.00936456 0.342913)
(0.00674512 0.0130939 0.343167)
(-0.00219117 0.00757098 0.290557)
(0.00161831 0.00177049 0.267782)
(-0.00169473 0.00811213 0.280601)
(0.000782495 0.00605687 0.332875)
(-0.00137094 0.0102916 0.305312)
(0.0010131 0.00622128 0.330471)
(-0.00635159 0.00454475 0.321293)
(-0.00434584 0.014549 0.304837)
(-0.0013496 0.0065821 0.318219)
(-4.81252e-06 0.00639405 0.333487)
(0.00075769 0.00601577 0.332285)
(0.000755359 0.00635105 0.325526)
(-0.000284393 0.00479194 0.349959)
(0.000372492 0.0114538 0.272102)
(-0.00133567 0.00641079 0.329138)
(0.00521307 0.00607916 0.259466)
(0.00100066 0.0106643 0.265968)
(0.00309889 0.00746263 0.275291)
(-0.00236694 0.00797884 0.26955)
(-0.00483139 0.00757159 0.301622)
(-0.0040982 0.0068167 0.277599)
(-0.00716897 -0.00118533 0.274927)
(-0.00688128 0.00915712 0.307065)
(0.000848711 0.00611454 0.329077)
(-0.00853229 0.00321753 0.25446)
(-0.000981846 0.00639258 0.325241)
(-0.0073662 0.0089177 0.30674)
(-0.00494738 -0.00549106 0.320977)
(-0.00464101 0.00813398 0.277899)
(-0.00343277 0.00629773 0.276448)
(-0.00226251 0.00610431 0.340197)
(0.00272368 0.00253593 0.308068)
(-0.00424338 0.0131779 0.298207)
(-0.0065265 0.00475825 0.3212)
(-0.00949932 0.00252624 0.344328)
(-0.0043839 0.00505343 0.260955)
(-0.00555981 0.00262514 0.322377)
(-0.0122016 0.00368697 0.343768)
(-0.000324185 -0.00328866 0.314167)
(-0.00250166 0.0205961 0.278067)
(0.00865304 0.0143197 0.228533)
(0.00335234 0.00577419 0.317518)
(-0.00625345 0.0057221 0.32532)
(0.002054 0.00736423 0.266434)
(-0.00604153 0.00769103 0.275968)
(-0.00663117 0.00332629 0.325091)
(0.000304862 0.00680569 0.347976)
(-0.00187235 0.00264357 0.27467)
(0.000573818 0.00633607 0.326096)
(-0.00420287 0.0105703 0.318719)
(-0.00951075 0.00183829 0.236703)
(0.0010249 0.00668918 0.30895)
(-0.000425507 0.00611356 0.341528)
(0.00235128 0.00721083 0.297819)
(-0.00954209 0.00500447 0.288418)
(-0.00173344 0.00635951 0.327037)
(0.00158408 0.00721128 0.260535)
(-0.000659674 0.00591106 0.343034)
(-0.0013175 0.00638228 0.32855)
(0.000344654 0.00629555 0.331264)
(-0.00677703 0.00858147 0.309159)
(-0.00171967 0.0141073 0.28679)
(-0.000596943 0.00605154 0.340034)
(-0.000686801 0.00607873 0.339914)
(0.0010496 0.00697769 0.254368)
(-0.00139921 0.00656338 0.323802)
(0.00031732 0.0063785 0.330036)
(0.000220121 0.0064183 0.324648)
(0.00129232 0.000600333 0.268248)
(-5.52867e-05 0.0128073 0.305128)
(-8.75032e-05 0.00644877 0.328044)
(-0.000466884 0.0058851 0.346051)
(0.0012421 0.0127468 0.341152)
(-8.29094e-05 0.0100188 0.344342)
(-0.00394666 0.00644686 0.230144)
(-0.00117268 0.00624327 0.335311)
(0.00211959 0.00685528 0.315747)
(-0.00196665 0.0071584 0.301935)
(-0.00161595 0.00689011 0.311039)
(-0.000573613 0.000471308 0.321378)
(-0.00223414 0.00611343 0.331872)
(-0.00158696 0.00691835 0.313897)
(-0.00121197 0.00681017 0.320607)
(-0.00156653 0.00666767 0.319406)
(-0.00199186 0.00680538 0.313298)
(-0.00102036 0.000172004 0.321239)
(-0.0102451 0.00319746 0.242739)
(-0.00657518 0.00613808 0.293053)
(-0.00136217 0.00665357 0.323341)
(0.00110624 0.006813 0.290413)
(-0.00610044 0.00482201 0.303817)
(0.0043068 0.0105155 0.216149)
(0.00381717 0.00162692 0.280821)
(0.00183902 0.00707574 0.305397)
(-0.000116789 0.00994519 0.336744)
(0.00579589 -0.00245812 0.296572)
(-0.00473089 0.0101502 0.323696)
(-0.00185597 0.00933839 0.295647)
(0.00828733 0.00349607 0.321575)
(-0.00129192 0.00627389 0.335641)
(-0.0012071 0.00347608 0.292194)
(-0.00150749 0.00645715 0.327294)
(-0.00502144 0.00318348 0.23991)
(0.00177237 0.0072546 0.247594)
(-0.00137197 0.00658164 0.324084)
(-0.00194662 0.00684242 0.311728)
(-0.00593941 0.00723657 0.281144)
(0.00901451 0.0016441 0.241673)
(0.00125074 0.00854605 0.290408)
(-0.00757045 0.00269509 0.325596)
(0.00149991 0.00718307 0.297762)
(-0.00175434 0.0066336 0.318216)
(0.00729616 0.00102666 0.29293)
(0.00639568 0.00388385 0.25576)
(-0.00196706 0.00721889 0.325253)
(-0.00123611 0.00696879 0.315795)
(-0.00038408 0.00941475 0.34559)
(-0.0025463 0.00686255 0.304551)
(-0.00204559 0.00677059 0.326895)
(-0.00373312 0.00646988 0.306227)
(-0.00193678 0.00693371 0.314018)
(0.00136434 0.00681476 0.267526)
(-0.0016719 0.00652602 0.325259)
(0.000376924 0.000808302 0.284769)
(0.0104723 0.00150295 0.259858)
(-0.00145862 0.00998692 0.263306)
(-0.00840201 -0.00179837 0.322576)
(-0.00339238 0.00684688 0.281609)
(-0.00180632 0.00693803 0.310383)
(-0.00145244 0.00715382 0.304939)
(-0.00418773 0.0061918 0.337794)
(-0.00111088 0.00658171 0.33306)
(-0.00554447 0.00717827 0.283548)
(-0.00859389 0.00439587 0.314955)
(0.0118849 0.00069116 0.267828)
(0.00115986 0.00730226 0.306172)
(-0.000858186 0.00628008 0.350428)
(-0.00240216 0.00682809 0.307898)
(-0.00775324 0.00651966 0.233436)
(-0.00474412 0.00726021 0.282303)
(-0.00212929 0.00690769 0.310821)
(-0.00342503 0.00700318 0.308037)
(0.0032515 0.0157023 0.28165)
(-0.0061031 0.00605749 0.311997)
(-0.00386667 0.0115086 0.314552)
(0.00334659 0.00243168 0.250692)
(-0.00222954 0.00774466 0.247287)
(-0.00505529 0.00737256 0.269083)
(-0.00242927 0.0068233 0.309674)
(-0.00201887 0.00687191 0.313208)
(0.0021503 0.00622375 0.260806)
(-0.00144144 0.00809754 0.265083)
(0.00177796 0.00920816 0.268048)
(-0.00501616 0.00269376 0.246501)
(-0.00262839 0.00759767 0.290001)
(-0.00269971 0.0070583 0.340475)
(-0.00547416 -0.00514316 0.329519)
(-0.000315288 0.0067435 0.346737)
(0.00268499 0.0109007 0.316693)
(-0.00180985 0.00695477 0.326354)
(0.00637219 0.00193554 0.293989)
(-0.00519743 0.000895853 0.256942)
(-0.00217424 0.0015085 0.295482)
(0.00409999 0.00606987 0.279081)
(-0.00433829 0.00208578 0.30454)
(-0.0194175 0.00955554 0.262045)
(0.000363021 0.0059484 0.249328)
(-0.0135941 0.00886033 0.278995)
(-0.0101493 0.00290187 0.316498)
(-0.00255295 0.00686983 0.306389)
(0.00217866 0.00493566 0.273663)
(-0.00534259 0.00915623 0.30582)
(-0.00631943 0.0021927 0.298697)
(-0.00137685 0.00654062 0.327025)
(0.00411162 0.00532541 0.215862)
(-0.00505151 -0.00227906 0.240431)
(-0.0025393 0.00695851 0.306474)
(-0.00612255 -0.00241238 0.316521)
(-0.00615392 0.00518793 0.319882)
(-0.00494847 0.00898455 0.253168)
(-0.00185402 0.00866462 0.311069)
(-0.000920025 0.0118874 0.33944)
(-0.00727782 0.00116184 0.321252)
(-0.0031189 0.00749582 0.281908)
(0.00235193 0.00812799 0.271656)
(0.00405481 0.00485551 0.314316)
(-0.0147628 0.00909689 0.279744)
(-0.00537857 0.0067681 0.305897)
(0.00186979 0.00917265 0.277192)
(0.000658927 0.00693176 0.336219)
(-0.0110035 0.00933038 0.283023)
(-0.00617664 0.00989537 0.284078)
(-0.00428494 0.00674523 0.325915)
(-0.000999326 0.00662434 0.341027)
(-0.00771385 0.0106707 0.263548)
(-0.00659838 0.00274675 0.278066)
(-8.42827e-05 0.00644946 0.352468)
(-0.00303117 0.00718622 0.295314)
(-0.0135226 0.00821041 0.281141)
(-0.00390726 0.0102835 0.311462)
(-0.000735895 0.0103594 0.293022)
(-0.00244367 0.00642249 0.298643)
(-0.0033114 0.00722485 0.286233)
(-0.0032826 0.00714513 0.291645)
(-0.0123393 0.00882283 0.281405)
(0.00348546 0.00650356 0.287263)
(0.00043007 0.00935748 0.294488)
(-0.00329313 0.00720546 0.287202)
(-0.00925494 0.00879622 0.282194)
(-0.00542869 -0.00255147 0.320874)
(-0.00335279 0.00684088 0.295763)
(-0.0032726 0.00710685 0.291793)
(-0.000196227 0.00736933 0.323081)
(0.00425362 0.00725447 0.19876)
(0.00153134 0.00476302 0.28011)
(-0.00667918 0.00600231 0.255932)
(-0.00742258 -0.00363647 0.313556)
(-0.00323598 0.0073671 0.283053)
(-0.00475871 0.0083734 0.266615)
(-0.00660601 -0.00281962 0.316716)
(-0.00501659 0.0075477 0.264928)
(-0.00236402 0.00642449 0.328208)
(0.000906949 0.00749676 0.285736)
(-0.00472008 0.00798562 0.315271)
(-0.00169281 0.0102672 0.261528)
(-0.00105148 0.0102649 0.295167)
(-0.0021962 0.00642505 0.330749)
(0.00269271 0.00445801 0.318702)
(-0.00430473 0.00518451 0.241771)
(-0.00752182 0.0108048 0.275075)
(-0.00455672 -0.00287975 0.238413)
(-0.0102706 0.00190849 0.268227)
(-0.00797424 0.015415 0.256469)
(0.00208562 0.00789189 0.293685)
(-0.00507111 0.00700852 0.288761)
(-0.00208685 0.00658711 0.342901)
(-0.00191853 0.00678522 0.30996)
(0.00425466 0.00541893 0.259173)
(-0.0174089 0.00820074 0.250519)
(0.00225048 0.00927606 0.350161)
(-0.00370682 0.00135804 0.288846)
(-0.00745458 0.00408041 0.285201)
(-0.00354106 0.00685885 0.290461)
(-0.00293009 0.007059 0.30324)
(0.00191078 0.0056524 0.283757)
(-0.00278882 0.00284147 0.327854)
(-0.0074978 0.00322204 0.2505)
(-0.00305609 0.00683509 0.302328)
(-0.00193021 -0.00199148 0.294529)
(1.37163e-05 0.0103834 0.282198)
(-0.00337162 0.00681493 0.294453)
(-0.00949923 0.00972297 0.256412)
(0.00238233 0.00921884 0.346372)
(0.0041854 0.00773051 0.284175)
(-0.00481008 0.0148447 0.296567)
(-0.0101087 0.000173606 0.270175)
(-0.00411728 0.00566469 0.313848)
(0.00420151 -0.00117796 0.314469)
(0.00279243 0.00483072 0.280968)
(-0.00222483 0.00829895 0.198366)
(-0.000890943 0.0141194 0.236632)
(-0.00329351 0.00682606 0.296707)
(-0.015395 0.00885579 0.285675)
(-0.0153423 0.00880418 0.286828)
(-5.76462e-05 0.00906064 0.228137)
(-0.00578702 0.00438791 0.286745)
(-0.00205122 0.00733387 0.274471)
(-0.00281064 0.00334633 0.260346)
(-0.00264503 0.00975624 0.200867)
(-0.0107804 0.00402046 0.25665)
(-0.00778375 -0.00192045 0.323826)
(-0.00451798 0.0100076 0.338783)
(-0.000472992 0.00910878 0.351261)
(0.00489853 9.8411e-05 0.298076)
(0.00193097 0.0039892 0.205079)
(-0.00555078 0.00262179 0.322017)
(-0.00250419 0.00620598 0.318207)
(-0.000558553 0.00730522 0.307561)
(-0.0205701 0.00753632 0.245003)
(0.00296424 0.00561331 0.279409)
(0.000471665 0.0147326 0.2512)
(0.00378692 0.00528265 0.328259)
(-0.00116658 0.00646673 0.33637)
(-0.00580395 0.00143597 0.292508)
(-0.0134452 0.0085999 0.271771)
(-0.00183449 -0.000614856 0.308346)
(0.000171878 0.00910049 0.353086)
(-0.00369087 0.00620094 0.283222)
(0.00112092 0.015664 0.251684)
(-0.00570519 0.00244773 0.25693)
(-0.00341459 0.00564935 0.319575)
(-0.00207455 0.0109565 0.284217)
(-0.000194819 0.0155756 0.285559)
(-0.00387077 0.00776667 0.315983)
(-0.00482095 0.00224818 0.271464)
(-0.00255259 0.00618367 0.318517)
(-0.00582431 0.00273122 0.34288)
(-0.0203083 0.00951463 0.288032)
(0.00455919 -0.000380353 0.298957)
(0.00250956 0.00434891 0.273396)
(0.0089468 0.000852082 0.283207)
(-0.00284548 -0.00010252 0.293107)
(-0.000867844 0.00970379 0.300694)
(0.00484459 0.00441232 0.316368)
(-0.00199515 0.0164801 0.234258)
(-0.00455654 0.0040735 0.324348)
(-0.00107375 0.00638539 0.342509)
(-0.00355026 0.01065 0.31993)
(-0.00456908 0.00495053 0.293433)
(-0.000683974 0.011437 0.24479)
(0.00105643 0.00663342 0.287089)
(-0.00478453 0.00830286 0.280363)
(-0.0134259 0.00945252 0.29241)
(0.0085227 0.00330413 0.267104)
(-0.0058295 0.00062472 0.317594)
(-0.00673499 -0.00380712 0.318813)
(-0.0017067 0.00476019 0.282779)
(-0.00309078 -0.00104758 0.251418)
(-0.00714446 -0.00425688 0.32409)
(-0.00669182 -0.00382589 0.32079)
(0.000688704 0.00699802 0.318171)
(-0.000350638 0.00200562 0.236595)
(-0.00559489 0.000495705 0.318644)
(0.00193226 0.0091146 0.348065)
(0.00155402 0.00581017 0.262486)
(0.00631978 0.00672693 0.249079)
(0.000195482 0.0101628 0.284023)
(-0.012555 0.00877778 0.29764)
(0.00917001 0.00183961 0.245654)
(-0.00641614 0.00156617 0.253164)
(-0.00442977 0.0026194 0.286315)
(-0.00595694 0.00233834 0.249026)
(-0.0013155 0.00655933 0.327298)
(-0.000828687 0.00649133 0.336075)
(-0.00263049 0.00779388 0.309875)
(0.00185371 0.00617011 0.318028)
(-0.00262061 1.50052e-06 0.296189)
(-0.00221986 0.00594429 0.327019)
(-0.00794448 0.00734345 0.2691)
(-0.000609421 0.00401 0.288789)
(0.00727458 0.00379446 0.266764)
(-0.0070416 -0.00491337 0.324153)
(0.000533695 0.00699047 0.33012)
(0.00924469 0.00293499 0.256635)
(-0.00380862 0.00522468 0.344514)
(-0.00103887 0.00598006 0.346039)
(-0.00148485 0.00788998 0.252216)
(-0.00470392 0.00458699 0.293052)
(-0.000344109 0.00632829 0.289866)
(-0.00387835 0.00762022 0.304634)
(-0.00479323 0.00450077 0.289785)
(0.00324642 0.00347199 0.329265)
(-0.00114213 0.00635684 0.34306)
(-0.00170712 0.00808137 0.261987)
(-0.00232669 0.00642801 0.316761)
(-0.000848722 0.00978786 0.339883)
(-0.00631126 0.0087804 0.322572)
(0.00257637 0.00360811 0.284896)
(0.00987385 -0.00161801 0.250661)
(0.00517435 0.00979848 0.289144)
(-0.00636111 0.00712311 0.313612)
(-0.0126655 0.00903321 0.294183)
(-0.00396383 0.0061655 0.297902)
(-0.00152867 0.00559345 0.282212)
(-0.0103725 0.00739549 0.288408)
(-0.00138507 0.00644217 0.336637)
(-0.00179904 0.00107749 0.290252)
(-0.00811923 -0.0058871 0.329637)
(-0.00372034 0.00730315 0.241886)
(-0.00192428 0.00255226 0.284619)
(-0.0044763 0.00602236 0.294917)
(0.00438134 0.00775 0.239188)
(-0.00246445 0.00603246 0.31732)
(0.00203299 0.00186548 0.290364)
(-0.000319072 0.00809563 0.254292)
(-0.00497363 -0.00097415 0.290448)
(-0.00581476 -0.000725444 0.245619)
(-0.000383803 0.00440775 0.223009)
(-0.000360837 0.00996789 0.250903)
(-0.00435749 0.00213812 0.279426)
(-0.00375855 0.0052869 0.314268)
(-0.0066546 -0.00285718 0.328338)
(-0.00321208 0.0026799 0.324381)
(-0.00163997 0.00539253 0.28593)
(-0.00742123 0.00227498 0.332718)
(0.00681964 0.00338667 0.277924)
(-0.00771675 0.00867259 0.274889)
(-0.00490763 0.0015555 0.283012)
(-0.00367485 0.00478912 0.318658)
(-0.00411028 0.00380707 0.32429)
(0.00178368 0.0043146 0.285599)
(-0.00412582 0.00595791 0.300994)
(-0.000726498 0.00669192 0.335044)
(-0.00550473 -0.000839974 0.259539)
(-0.00507 0.00382185 0.278016)
(-0.00272456 0.00845889 0.318673)
(-0.00650131 -0.000726543 0.235896)
(-0.00591389 -0.000669999 0.326502)
(-0.000373313 0.00702627 0.262061)
(-0.00254366 0.00941548 0.316247)
(-0.00293408 0.0086194 0.338669)
(-0.00414135 0.00632022 0.296177)
(-0.00563384 4.78041e-05 0.327568)
(-0.00458977 0.00483679 0.328587)
(-0.00696947 -0.003922 0.332653)
(-0.0117807 0.00850811 0.306443)
(-0.0030524 0.00828735 0.316786)
(0.00211524 0.00326901 0.327667)
(0.00189863 0.0067253 0.293169)
(-0.0134424 0.0079733 0.289831)
(-0.00371128 0.00573227 0.312302)
(-0.000598144 0.0137063 0.261244)
(-0.00239318 0.0062695 0.316552)
(-0.0032372 0.00635322 0.317463)
(-0.00704188 -0.00485179 0.329164)
(-0.00228322 0.00643821 0.334158)
(-3.92482e-06 0.00665204 0.323475)
(-0.0102255 0.00329183 0.205359)
(-0.000241483 0.00488583 0.306253)
(-0.00224476 0.00610929 0.324183)
(-0.0101627 0.0088004 0.276353)
(-0.0047226 0.0120083 0.292722)
(0.00175051 0.00544253 0.268045)
(-0.00307802 0.00224636 0.326408)
(-0.00573142 -0.00402069 0.335152)
(-0.000985313 0.0061891 0.339707)
(-0.000841768 0.00551073 0.340946)
(-0.00221751 0.00661661 0.267317)
(-0.00249283 -0.000366373 0.314117)
(0.00377784 0.00879754 0.226858)
(-0.00339038 0.0062904 0.31704)
(-0.00370694 0.00533138 0.315504)
(-0.00288499 0.00671959 0.314196)
(-0.00300008 0.00658439 0.324416)
(-0.00316036 0.0021305 0.314995)
(0.002234 0.00521534 0.267612)
(-0.00479065 0.00485546 0.273304)
(0.00586821 0.00515807 0.274266)
(-0.00461841 0.00783492 0.293676)
(-0.00333057 0.00631805 0.317838)
(-0.00234614 -0.00236823 0.325737)
(-0.00400827 -0.000102606 0.272785)
(-0.00259306 0.00625157 0.2876)
(-0.000729134 -0.00151297 0.294816)
(-0.00580588 -0.00317606 0.290901)
(0.00192908 0.00593324 0.264301)
(0.0112354 -0.00395423 0.257574)
(0.000112832 0.00280242 0.24522)
(-0.000719335 0.00239946 0.340898)
(-0.00466564 0.00264386 0.308176)
(0.00717979 0.00953661 0.24723)
(0.00294062 -0.000703981 0.202685)
(-0.00250229 0.0026505 0.224484)
(-0.00365983 0.0038783 0.313407)
(-0.00372518 0.00726713 0.306259)
(0.00693395 0.00338757 0.28042)
(-0.000588703 0.00991191 0.292726)
(-0.00375854 0.00384723 0.32345)
(-0.00645126 -0.00261587 0.330427)
(-0.00345445 0.00624471 0.313714)
(0.00507489 0.00618336 0.289277)
(-0.00282409 -0.00268085 0.2501)
(-0.00605722 0.00381329 0.341835)
(-0.00508409 0.0053298 0.33142)
(-0.00676051 0.00141337 0.293334)
(-0.00602054 0.00309153 0.271916)
(-0.00221533 0.00959307 0.351754)
(0.000828227 0.00604827 0.217663)
(0.0001113 0.00675446 0.255725)
(-0.00221485 0.00599404 0.332271)
(0.000539286 0.00241867 0.34227)
(-0.00320994 0.00408654 0.329156)
(-0.00697168 -0.00313196 0.241544)
(0.00942795 -0.00405435 0.256059)
(-0.00390883 0.00386981 0.331509)
(0.00320528 0.00850386 0.319222)
(-0.000802094 0.00614416 0.347885)
(-0.00136226 0.00750268 0.355072)
(-0.00583858 0.0119278 0.280598)
(0.0012333 0.00630646 0.347682)
(0.001964 0.0010658 0.298302)
(-0.00415952 0.00541873 0.311413)
(0.00231385 0.00520318 0.270364)
(-0.000680828 0.00984443 0.251106)
(-0.00630097 0.013812 0.345214)
(0.0013048 0.00436369 0.31331)
(0.00368381 0.00984232 0.328824)
(-0.00447849 0.00759605 0.285143)
(-0.00490783 0.003729 0.260624)
(-0.00148156 -0.00134555 0.298259)
(-0.00329571 0.00598702 0.328563)
(0.00252722 0.00642985 0.26604)
(-0.00332495 0.00602587 0.322834)
(-0.00357387 0.00345799 0.329176)
(-0.00555913 0.0033272 0.283613)
(-0.00412777 0.00492994 0.322351)
(-0.00457081 0.000527826 0.283217)
(0.00252793 0.00544032 0.264543)
(0.00204329 0.00820262 0.294829)
(-0.00409434 0.00557507 0.310529)
(0.00208748 0.0120454 0.297668)
(-0.00468563 0.000125824 0.278063)
(-0.00190595 0.00812122 0.247486)
(-0.00259199 0.0160064 0.323232)
(-0.000314343 0.00473279 0.323382)
(0.00938053 0.00355438 0.230148)
(0.00391915 0.00355897 0.295042)
(0.00341108 0.00132018 0.224715)
(0.00388383 0.0121217 0.335274)