/*--------------------------------*- C++ -*----------------------------------*\
| =========                 |                                                 |
| \\      /  F ield         | OpenFOAM: The Open Source CFD Toolbox           |
|  \\    /   O peration     | Version:  plus.master.MPPICInterFoam            |
|   \\  /    A nd           | Web:      www.OpenFOAM.com                      |
|    \\/     M anipulation  |                                                 |
\*---------------------------------------------------------------------------*/
FoamFile
{
    version     2.0;
    format      ascii;
    class       scalarField;
    location    "8.6/lagrangian/kinematicCloud";
    object      age;
}
// * * * * * * * * * * * * * * * * * * * * * * * * * * * * * * * * * * * * * //


45
(
7.77274
8.04204
7.71027
7.75826
7.71929
8.39218
7.80012
8.47258
7.8752
7.77053
8.57079
8.04724
7.84041
8.24762
7.69241
8.39115
7.78
7.83103
7.80726
7.66658
8.20832
8.39244
8.55971
8.55434
8.60004
7.90745
7.78161
7.8816
7.84
7.83956
7.84071
7.93702
7.88096
7.77235
8.15423
7.74162
8.21203
8.02637
7.80454
7.73198
8.42801
7.94118
8.07356
8.30571
7.87187
)


// ************************************************************************* //
