/*--------------------------------*- C++ -*----------------------------------*\
| =========                 |                                                 |
| \\      /  F ield         | OpenFOAM: The Open Source CFD Toolbox           |
|  \\    /   O peration     | Version:  plus.master.MPPICInterFoam            |
|   \\  /    A nd           | Web:      www.OpenFOAM.com                      |
|    \\/     M anipulation  |                                                 |
\*---------------------------------------------------------------------------*/
FoamFile
{
    version     2.0;
    format      ascii;
    class       vectorField;
    location    "8.6/lagrangian/kinematicCloud";
    object      U;
}
// * * * * * * * * * * * * * * * * * * * * * * * * * * * * * * * * * * * * * //


45
(
(0.00149126 -0.00280452 -0.0520377)
(-0.00280863 0.000299814 -0.0574973)
(0.000855073 -0.00284015 -0.0560276)
(0.00224363 0.00410725 -0.0565901)
(0.00105582 -0.00274809 -0.056569)
(0.00102875 -0.0027733 -0.0568901)
(0.00268388 0.00489185 -0.0614798)
(0.00139638 -0.00674484 -0.0609815)
(0.00177527 -0.00501496 -0.0579663)
(0.00176072 -0.00528781 -0.0584043)
(0.00191144 -0.00621768 -0.0593088)
(0.00193992 -0.00523306 -0.0599986)
(0.000675578 0.00609148 -0.0617579)
(-0.00453669 0.000204346 -0.0604937)
(0.00118618 -0.00592013 -0.0620179)
(0.00125577 -0.00681557 -0.0613542)
(0.00206208 -0.00468449 -0.0594985)
(-0.00336258 0.000346696 -0.0616787)
(0.0014919 -0.00524567 -0.0624284)
(0.000958982 -0.00448422 -0.0609992)
(0.00140232 0.00634777 -0.0653565)
(-0.00601326 0.000449506 -0.0636714)
(-9.5529e-05 -0.00785746 -0.0665977)
(0.00476899 0.00489965 -0.0657715)
(0.00567206 0.00787816 -0.0679658)
(-0.00463768 0.000318039 -0.0647294)
(-0.00512448 6.88147e-05 -0.0653857)
(0.00146209 0.00938254 -0.0723634)
(-0.00785038 -5.88395e-05 -0.0729439)
(0.00486249 0.0148979 -0.0816)
(0.0154298 0.0175469 -0.0858067)
(-0.00421873 -0.0317922 -0.102232)
(0.00967768 0.0112396 -0.0292988)
(-0.02718 -0.00387206 -0.10192)
(-0.0298537 -0.00183149 -0.104181)
(0.00103157 -0.0546472 -0.128618)
(-0.0518321 0.00638483 -0.119351)
(0.00142626 0.00135848 0.0858955)
(-0.0700059 -0.0019617 -0.122951)
(-0.070811 -0.00718549 -0.207204)
(-0.108476 0.000872408 -0.19531)
(-0.00799023 0.00774872 0.00475264)
(-0.0433157 -0.00994038 0.0143617)
(0.0272423 -0.00474096 0.257488)
(0.0104273 -0.00222435 0.400232)
)


// ************************************************************************* //
