/*--------------------------------*- C++ -*----------------------------------*\
| =========                 |                                                 |
| \\      /  F ield         | OpenFOAM: The Open Source CFD Toolbox           |
|  \\    /   O peration     | Version:  plus.master.MPPICInterFoam            |
|   \\  /    A nd           | Web:      www.OpenFOAM.com                      |
|    \\/     M anipulation  |                                                 |
\*---------------------------------------------------------------------------*/
FoamFile
{
    version     2.0;
    format      ascii;
    class       vectorField;
    location    "8.6/lagrangian/kinematicCloud";
    object      UCorrect;
}
// * * * * * * * * * * * * * * * * * * * * * * * * * * * * * * * * * * * * * //


45
(
(-3.65126e-20 -2.33481e-20 3.57281e-35)
(3.40123e-16 3.71734e-17 4.65195e-13)
(6.58384e-23 7.85034e-22 0)
(6.437e-19 1.97285e-19 -1.85708e-19)
(-1.72045e-29 7.92452e-22 0)
(-1.72045e-29 7.92452e-22 0)
(4.02687e-19 2.81619e-19 -3.52157e-19)
(1.18682e-19 -3.64386e-19 4.79624e-19)
(-1.72045e-29 1.51741e-21 0)
(1.18682e-19 -5.40176e-20 3.35233e-19)
(2.49956e-19 -3.49595e-19 3.35233e-19)
(-8.41158e-23 7.82975e-22 0)
(-3.15387e-22 1.91986e-20 -2.08781e-35)
(3.40548e-16 3.33988e-17 4.65195e-13)
(1.18682e-19 -1.94018e-19 3.35233e-19)
(1.18682e-19 -3.64386e-19 4.99046e-19)
(-1.16029e-19 -3.23075e-20 6.74497e-35)
(6.4186e-14 7.07683e-15 9.23268e-19)
(-1.72045e-29 1.43944e-21 0)
(-3.61991e-20 -4.01657e-19 -6.37218e-35)
(-4.79201e-31 1.01434e-18 2.99663e-19)
(1.21904e-16 -2.40619e-19 1.0303e-19)
(1.15708e-19 -2.64064e-20 3.34905e-19)
(4.49745e-19 5.63963e-19 -2.08593e-19)
(-1.70054e-19 -3.53122e-19 7.48303e-35)
(9.29528e-20 -2.89609e-29 1.11012e-34)
(5.2e-19 -4.16034e-19 1.11012e-34)
(-1.21959e-19 2.12033e-20 4.75766e-35)
(3.69615e-20 -2.89609e-29 1.11012e-34)
(-6.46838e-20 -4.40754e-19 -6.29018e-36)
(2.63711e-19 3.30683e-19 3.94356e-19)
(1.13502e-19 -4.33797e-20 1.04076e-35)
(-1.09495e-19 6.14772e-20 9.64025e-22)
(-2.11594e-19 -1.73146e-19 1.43719e-34)
(4.71957e-19 1.43099e-19 2.08389e-19)
(1.92651e-20 2.47535e-19 -1.6071e-34)
(5.46789e-19 -2.50651e-19 -1.53492e-34)
(-9.98436e-20 -6.90773e-19 2.78675e-35)
(2.49218e-19 9.66297e-31 -1.0443e-36)
(5.15447e-19 2.75118e-20 4.61437e-35)
(5.46789e-19 -2.50651e-19 1.73937e-34)
(-2.17748e-18 -7.32373e-19 1.52507e-19)
(-2.07151e-20 -3.22491e-19 1.47055e-34)
(-1.13528e-19 -8.45401e-19 -3.58144e-19)
(-4.08603e-19 -7.3591e-19 -8.87068e-35)
)


// ************************************************************************* //
