/*--------------------------------*- C++ -*----------------------------------*\
| =========                 |                                                 |
| \\      /  F ield         | OpenFOAM: The Open Source CFD Toolbox           |
|  \\    /   O peration     | Version:  plus.master.MPPICInterFoam            |
|   \\  /    A nd           | Web:      www.OpenFOAM.com                      |
|    \\/     M anipulation  |                                                 |
\*---------------------------------------------------------------------------*/
FoamFile
{
    version     2.0;
    format      ascii;
    class       volScalarField;
    location    "9";
    object      epsilon;
}
// * * * * * * * * * * * * * * * * * * * * * * * * * * * * * * * * * * * * * //

dimensions      [0 2 -3 0 0 0 0];

internalField   nonuniform List<scalar> 
11822
(
0.346053
0.379
0.381745
0.355886
0.312733
0.26286
0.214192
0.413153
0.443965
0.455659
0.435515
0.379998
0.311877
0.248664
0.42802
0.436764
0.463648
0.480241
0.43645
0.352506
0.27544
0.40979
0.425373
0.45697
0.487195
0.461156
0.372206
0.288178
0.416925
0.43131
0.459921
0.484863
0.450812
0.364596
0.283356
0.423126
0.442966
0.461147
0.459346
0.407564
0.332043
0.262161
0.376263
0.411732
0.416891
0.391601
0.342847
0.285277
0.229929
0.33014
0.362186
0.366376
0.343203
0.303183
0.256226
0.209983
0.396417
0.429268
0.442087
0.420974
0.367267
0.302988
0.243037
0.4153
0.426151
0.454948
0.470104
0.422187
0.341803
0.268745
0.390433
0.406643
0.436889
0.478242
0.447632
0.361095
0.281146
0.410937
0.414019
0.436907
0.479138
0.440269
0.35462
0.276783
0.412469
0.438242
0.458227
0.45082
0.397103
0.323611
0.256546
0.363187
0.400745
0.407034
0.381322
0.333994
0.278685
0.225558
0.317632
0.349006
0.354036
0.332709
0.294798
0.250345
0.206353
0.382892
0.420818
0.432823
0.410116
0.356557
0.295056
0.23803
0.412671
0.420417
0.449749
0.46511
0.410541
0.332416
0.262682
0.411444
0.407465
0.434018
0.47456
0.43747
0.351438
0.274692
0.411713
0.401643
0.435742
0.474638
0.429822
0.345206
0.270511
0.405257
0.4329
0.45254
0.445385
0.386951
0.315332
0.251077
0.351713
0.391489
0.398657
0.371856
0.325191
0.272076
0.221291
0.306795
0.33716
0.342328
0.32274
0.287416
0.245626
0.203695
0.36775
0.405682
0.416065
0.395221
0.345595
0.288053
0.234114
0.400625
0.412633
0.438294
0.449756
0.397061
0.323506
0.257664
0.400815
0.377859
0.412561
0.458144
0.423622
0.341648
0.269088
0.401204
0.399758
0.430463
0.460603
0.415532
0.335483
0.264947
0.390882
0.421857
0.439711
0.429006
0.373721
0.306769
0.2462
0.338287
0.377116
0.383955
0.358811
0.315317
0.265631
0.217539
0.298298
0.327316
0.333053
0.315595
0.283132
0.243799
0.203299
0.353316
0.386759
0.399315
0.381361
0.337161
0.284149
0.232875
0.373085
0.396295
0.422532
0.425722
0.384389
0.317415
0.255495
0.367903
0.369033
0.40479
0.444606
0.408574
0.334211
0.266295
0.378842
0.36909
0.396888
0.437922
0.399294
0.327738
0.262026
0.371747
0.402515
0.420264
0.408443
0.361096
0.30065
0.243833
0.324688
0.359873
0.366675
0.346104
0.307566
0.261792
0.215991
0.291448
0.319191
0.325512
0.311107
0.281824
0.244204
0.204027
0.341056
0.371897
0.383668
0.369132
0.331848
0.283253
0.233489
0.361861
0.384228
0.401787
0.406791
0.373287
0.314313
0.255619
0.362786
0.368606
0.395156
0.414395
0.393146
0.329417
0.265908
0.362637
0.390741
0.414508
0.41121
0.38498
0.323138
0.261484
0.355161
0.381421
0.397603
0.39118
0.352215
0.297898
0.243466
0.313507
0.345671
0.353688
0.337363
0.30355
0.260554
0.215691
0.173879
0.146527
0.123681
0.105302
0.091552
0.0834741
0.0864744
0.15289
0.197323
0.161416
0.132937
0.110611
0.0939172
0.083434
0.0837905
0.142178
0.216004
0.173949
0.141035
0.115536
0.096524
0.084238
0.0828144
0.136637
0.225038
0.180244
0.145322
0.118364
0.0982856
0.0852022
0.0831068
0.13578
0.221772
0.178465
0.144577
0.118324
0.0987423
0.0860665
0.0845095
0.13935
0.207339
0.169522
0.139489
0.115913
0.0982541
0.0871124
0.0873022
0.147939
0.186233
0.157021
0.132495
0.112699
0.0978425
0.0890699
0.0921629
0.162531
0.17136
0.144999
0.122856
0.104968
0.0915693
0.083777
0.0871432
0.154764
0.193972
0.159432
0.131861
0.110126
0.0938254
0.083636
0.0843341
0.143981
0.211985
0.171571
0.13973
0.114914
0.0963395
0.084365
0.0832775
0.138267
0.22076
0.177691
0.143901
0.117661
0.0980402
0.0852767
0.0835136
0.137294
0.217709
0.175998
0.143174
0.117607
0.0984687
0.0861068
0.0848754
0.140786
0.203842
0.167348
0.138217
0.115241
0.0979851
0.0871397
0.0876467
0.149341
0.183456
0.155214
0.131397
0.112104
0.097605
0.0891111
0.0925155
0.163929
0.169279
0.143783
0.122224
0.104723
0.0915916
0.084023
0.08769
0.156324
0.191104
0.157806
0.131008
0.109745
0.0937436
0.0837813
0.0847572
0.145438
0.208442
0.169559
0.138659
0.114399
0.0961638
0.0844341
0.083626
0.13959
0.2169
0.175465
0.142689
0.117049
0.0977909
0.0852834
0.0837979
0.138491
0.213937
0.173781
0.141931
0.116948
0.0981698
0.0860623
0.0851005
0.141863
0.200546
0.165347
0.137046
0.114588
0.0976639
0.0870592
0.0878209
0.150303
0.180819
0.153511
0.130341
0.111487
0.0972881
0.089019
0.092658
0.164766
0.167861
0.142936
0.121735
0.104479
0.0915549
0.0842237
0.0883262
0.159282
0.189093
0.156692
0.130374
0.109392
0.0936069
0.0838786
0.0852597
0.148152
0.205829
0.168141
0.137858
0.113933
0.0959374
0.0844523
0.0840417
0.142105
0.213919
0.173829
0.141751
0.116486
0.0974868
0.0852335
0.0841405
0.140852
0.210933
0.172075
0.140913
0.116312
0.0978002
0.0859511
0.0853778
0.144109
0.197864
0.163725
0.136016
0.113912
0.0972488
0.086898
0.0880422
0.152479
0.178602
0.152025
0.129329
0.110797
0.0968529
0.0888309
0.0928446
0.1669
0.168019
0.143229
0.122133
0.105064
0.0924685
0.0856757
0.0907905
0.165463
0.18898
0.15687
0.130668
0.10986
0.0944124
0.0852567
0.087734
0.15475
0.205335
0.168152
0.138043
0.114307
0.0966663
0.0857869
0.0865257
0.148869
0.213115
0.173671
0.141823
0.11677
0.098143
0.0865124
0.086584
0.147579
0.210005
0.171791
0.140879
0.116509
0.0983814
0.0871527
0.0877202
0.150592
0.197053
0.163393
0.135905
0.11404
0.0977563
0.0879992
0.090218
0.158507
0.177958
0.15167
0.129177
0.110896
0.0973203
0.0898468
0.0948301
0.17222
0.168875
0.144157
0.123515
0.107374
0.0963063
0.0922234
0.104645
0.230387
0.189879
0.157793
0.131991
0.112115
0.0982456
0.0918308
0.101494
0.218612
0.206124
0.169011
0.13928
0.116495
0.100502
0.0924558
0.100438
0.21264
0.213704
0.17441
0.142959
0.118885
0.101958
0.0932302
0.100623
0.211609
0.210387
0.172349
0.14188
0.11852
0.102101
0.0937743
0.10167
0.214691
0.19728
0.163767
0.136763
0.115912
0.101296
0.0943793
0.103901
0.222702
0.177983
0.151844
0.129865
0.112579
0.100609
0.0959225
0.108297
0.237152
0.308386
0.25896
0.215521
0.180504
0.154611
0.139714
0.145445
0.263369
0.364168
0.303716
0.247569
0.20208
0.168241
0.147451
0.148565
0.260655
0.393886
0.338268
0.27297
0.219215
0.17905
0.153712
0.15152
0.259945
0.39807
0.348456
0.280243
0.223715
0.181514
0.154722
0.151319
0.257282
0.389545
0.32878
0.264625
0.212582
0.173846
0.149431
0.147361
0.252538
0.346589
0.286121
0.232993
0.190518
0.159047
0.139761
0.141041
0.247528
0.284543
0.238016
0.198302
0.166572
0.143207
0.129886
0.135662
0.246689
0.297931
0.250926
0.209815
0.176647
0.152165
0.138299
0.144789
0.263559
0.350473
0.29231
0.239586
0.196759
0.164855
0.14542
0.14744
0.260052
0.379295
0.323244
0.262618
0.212509
0.174839
0.151161
0.149999
0.258629
0.384327
0.331157
0.268463
0.216281
0.176933
0.151971
0.149676
0.255724
0.372253
0.312738
0.254062
0.205871
0.169704
0.146981
0.145978
0.251424
0.330712
0.274286
0.225059
0.185403
0.155909
0.137986
0.140208
0.247442
0.273363
0.230073
0.192952
0.16314
0.141171
0.128858
0.135421
0.247599
0.288417
0.24329
0.204339
0.172988
0.149875
0.13697
0.144134
0.263715
0.339959
0.282248
0.232096
0.19168
0.16164
0.143515
0.146407
0.259699
0.371746
0.311308
0.253394
0.206172
0.1708
0.148739
0.148622
0.257735
0.375135
0.317898
0.258407
0.209438
0.172601
0.149396
0.148235
0.254811
0.360745
0.300478
0.244937
0.199736
0.165876
0.144765
0.144832
0.251002
0.318599
0.264413
0.218075
0.180846
0.153152
0.136484
0.139594
0.247884
0.264052
0.223212
0.188299
0.160205
0.139486
0.128061
0.135325
0.248811
0.278754
0.236199
0.199509
0.169893
0.147986
0.135876
0.143631
0.264821
0.327364
0.272618
0.225338
0.187301
0.158971
0.141975
0.145646
0.26055
0.358471
0.300232
0.24525
0.200738
0.167451
0.146799
0.147619
0.258314
0.363257
0.306905
0.250025
0.20378
0.169118
0.147409
0.147263
0.255613
0.346952
0.289803
0.237325
0.194764
0.162894
0.14313
0.144147
0.252233
0.306865
0.256004
0.212392
0.177295
0.151113
0.135461
0.139355
0.249716
0.256236
0.217745
0.18475
0.158081
0.138351
0.127609
0.135501
0.251259
0.270467
0.230797
0.196105
0.167751
0.146602
0.134987
0.143312
0.267154
0.314406
0.264289
0.220151
0.184135
0.157013
0.140744
0.145105
0.263082
0.341961
0.289422
0.238545
0.196676
0.164984
0.145271
0.146881
0.260831
0.346879
0.295971
0.243215
0.199659
0.16665
0.14592
0.146605
0.258481
0.332684
0.280599
0.231612
0.191356
0.160895
0.141986
0.14381
0.255561
0.297138
0.24974
0.208591
0.175093
0.149872
0.134838
0.139465
0.253528
0.250835
0.214358
0.182768
0.156984
0.137799
0.127467
0.136014
0.255271
0.264008
0.22652
0.193071
0.165292
0.144454
0.133317
0.144334
0.305007
0.3035
0.257464
0.215817
0.181029
0.154428
0.138535
0.144948
0.296453
0.328016
0.280159
0.232895
0.192937
0.162074
0.142778
0.146149
0.291738
0.33327
0.286673
0.237533
0.195977
0.163826
0.143494
0.145855
0.288928
0.320885
0.272904
0.226954
0.188286
0.158471
0.139902
0.143529
0.287309
0.289258
0.244873
0.205581
0.172934
0.148032
0.133304
0.140091
0.288211
0.24687
0.211875
0.181053
0.155565
0.136539
0.12665
0.138013
0.294395
0.278021
0.231619
0.192446
0.161161
0.138114
0.124871
0.130067
0.236825
0.298767
0.241988
0.196293
0.160645
0.134342
0.1181
0.118777
0.207206
0.300697
0.240794
0.192996
0.156007
0.128704
0.111318
0.109527
0.185182
0.281865
0.225887
0.181131
0.146408
0.120658
0.104049
0.10168
0.16995
0.249527
0.2016
0.163212
0.133246
0.110913
0.0965907
0.0952312
0.160056
0.212333
0.174053
0.143314
0.119111
0.101026
0.0897732
0.0904423
0.155694
0.176046
0.148274
0.125187
0.106656
0.0928319
0.0847911
0.0880593
0.156459
0.267521
0.224365
0.187658
0.15819
0.136457
0.124161
0.130116
0.238137
0.287643
0.234607
0.191627
0.157903
0.132949
0.117658
0.119093
0.208883
0.290336
0.234027
0.188838
0.15367
0.127614
0.111088
0.11
0.187015
0.273369
0.220394
0.177829
0.144623
0.119894
0.103974
0.102173
0.171662
0.243212
0.197603
0.160879
0.132053
0.11048
0.0966743
0.0957688
0.161718
0.20805
0.171415
0.141829
0.118406
0.100849
0.0899555
0.0910049
0.157474
0.173411
0.146679
0.124332
0.106315
0.0928536
0.0850779
0.0887148
0.158466
0.258611
0.218046
0.183503
0.155672
0.135109
0.123631
0.130246
0.23963
0.278209
0.228166
0.187583
0.155598
0.131833
0.117338
0.119418
0.21068
0.281414
0.228096
0.185253
0.151733
0.126761
0.110941
0.110476
0.188938
0.26592
0.215587
0.175029
0.143191
0.119343
0.104001
0.102723
0.173261
0.237646
0.194171
0.158964
0.131134
0.110198
0.0968217
0.096317
0.163189
0.204367
0.169244
0.14067
0.117896
0.100746
0.0901316
0.0914917
0.158934
0.171243
0.145429
0.123698
0.106084
0.0928829
0.0853059
0.0892063
0.160003
0.251431
0.213139
0.180421
0.153917
0.134252
0.123385
0.130573
0.242164
0.270535
0.223256
0.184712
0.154096
0.13119
0.117246
0.119871
0.213408
0.274035
0.223633
0.182808
0.150555
0.126329
0.110965
0.110951
0.191675
0.259837
0.21208
0.173207
0.142378
0.119121
0.104177
0.103369
0.175906
0.233359
0.191805
0.157778
0.130634
0.110125
0.0970562
0.0969885
0.165883
0.201758
0.167838
0.139967
0.117604
0.100729
0.0903314
0.0921227
0.161609
0.169819
0.144624
0.123272
0.105904
0.0928926
0.0855289
0.0898472
0.162898
0.246777
0.210368
0.178904
0.153168
0.133964
0.123456
0.13125
0.245978
0.265578
0.220711
0.183551
0.153652
0.131111
0.117448
0.120678
0.21773
0.269573
0.221625
0.182088
0.150423
0.126476
0.111369
0.111963
0.196134
0.256667
0.210894
0.172955
0.142509
0.119463
0.104809
0.10471
0.1809
0.231768
0.191423
0.157885
0.130936
0.110593
0.0978527
0.0986245
0.171255
0.20136
0.167968
0.140286
0.118048
0.101381
0.0913889
0.0940541
0.167276
0.169999
0.144954
0.123693
0.106475
0.0937395
0.0868421
0.0920755
0.168699
0.243443
0.208397
0.177571
0.152121
0.133178
0.123329
0.134348
0.286977
0.262397
0.219451
0.183018
0.153378
0.131121
0.118231
0.124825
0.259048
0.267169
0.221135
0.182193
0.150727
0.127146
0.113036
0.117388
0.239134
0.2558
0.211196
0.173506
0.143211
0.12066
0.107262
0.111416
0.226818
0.232194
0.192177
0.158663
0.131956
0.112329
0.101158
0.106794
0.220898
0.20228
0.168834
0.141252
0.119508
0.103865
0.0958742
0.104271
0.222114
0.170982
0.14593
0.125015
0.108584
0.0972035
0.0927899
0.104867
0.230557
0.190193
0.160371
0.135481
0.115417
0.100355
0.0914655
0.0946798
0.166706
0.232223
0.190836
0.157272
0.130676
0.110664
0.0980057
0.0982564
0.167754
0.276059
0.223863
0.181375
0.147934
0.122871
0.106647
0.10469
0.174419
0.314256
0.253121
0.203092
0.163897
0.134703
0.115776
0.112706
0.186436
0.335868
0.27047
0.216857
0.174935
0.143866
0.123981
0.121493
0.203817
0.331794
0.270057
0.219049
0.178844
0.149054
0.130536
0.13074
0.226479
0.305984
0.255327
0.21191
0.176962
0.151108
0.136084
0.141133
0.255225
0.187307
0.158497
0.134349
0.114814
0.100131
0.091537
0.0950758
0.168075
0.227719
0.187877
0.155449
0.129653
0.110191
0.0979248
0.0985327
0.168949
0.269768
0.219596
0.178673
0.146356
0.122063
0.106357
0.104797
0.175541
0.306383
0.247598
0.199493
0.16173
0.133542
0.115301
0.112748
0.187387
0.327088
0.26404
0.212533
0.172244
0.14236
0.1233
0.121415
0.204607
0.322355
0.263026
0.214201
0.175725
0.14722
0.129618
0.130493
0.227116
0.296051
0.247959
0.206732
0.173528
0.148993
0.134924
0.140674
0.255546
0.184553
0.156722
0.133259
0.11419
0.0998265
0.0914706
0.095251
0.16891
0.223218
0.184966
0.15367
0.128632
0.109666
0.0977376
0.0986344
0.169616
0.263298
0.215216
0.175929
0.144752
0.121198
0.105957
0.104718
0.176129
0.298281
0.241764
0.195707
0.159467
0.1323
0.114706
0.112587
0.188024
0.318002
0.257183
0.207927
0.169411
0.140764
0.122508
0.121157
0.205027
0.312773
0.255698
0.209157
0.172526
0.14535
0.128634
0.130102
0.227417
0.286466
0.240668
0.201608
0.170171
0.14694
0.133768
0.14013
0.255666
0.18221
0.155189
0.132237
0.113506
0.0994012
0.0912896
0.0954347
0.170965
0.219195
0.182474
0.152132
0.127673
0.109086
0.0974596
0.0987214
0.171206
0.256939
0.21126
0.173564
0.143354
0.120378
0.105511
0.10462
0.177439
0.289504
0.236136
0.19233
0.157517
0.131196
0.114105
0.112366
0.189287
0.307647
0.250299
0.203695
0.166957
0.139385
0.121772
0.120874
0.206026
0.302351
0.24849
0.20455
0.169756
0.14376
0.127766
0.129732
0.228379
0.276979
0.233867
0.19707
0.167318
0.145227
0.132786
0.139667
0.256578
0.18146
0.154768
0.132011
0.113495
0.0997082
0.0920856
0.0971269
0.175867
0.217323
0.181511
0.151584
0.127376
0.109071
0.0978766
0.0999755
0.175648
0.252987
0.209241
0.172489
0.142728
0.120055
0.105559
0.105376
0.181152
0.282792
0.232607
0.190489
0.156486
0.130588
0.113846
0.112696
0.192395
0.298537
0.245346
0.201058
0.165485
0.138508
0.121293
0.120951
0.208736
0.292966
0.243076
0.201485
0.167981
0.14267
0.127102
0.129597
0.230736
0.269115
0.228871
0.193987
0.16541
0.144008
0.13201
0.139389
0.258452
0.181503
0.154862
0.132485
0.114787
0.102383
0.097242
0.109114
0.23742
0.216931
0.181236
0.151492
0.127833
0.110615
0.101462
0.109314
0.229959
0.251499
0.208511
0.172005
0.142612
0.120761
0.107935
0.112686
0.229866
0.27919
0.230965
0.189536
0.155909
0.130631
0.115201
0.118266
0.237027
0.29256
0.242463
0.199424
0.164384
0.137941
0.121739
0.125009
0.250404
0.28613
0.239394
0.199225
0.166344
0.141489
0.126717
0.132414
0.270488
0.262999
0.224909
0.191159
0.163153
0.142158
0.130843
0.141294
0.297817
0.00864352
0.00731587
0.00871813
0.00983898
0.0102557
0.00997724
0.00916819
0.00804501
0.00852996
0.00729241
0.00872112
0.00984464
0.0102568
0.00997275
0.00915965
0.00803445
0.00841505
0.00727007
0.0087299
0.00986269
0.010277
0.00999188
0.00917632
0.00804748
0.00831325
0.00725221
0.00873894
0.00988078
0.0102973
0.0100109
0.00919235
0.00805971
0.00828075
0.00725112
0.00875013
0.00989535
0.0103104
0.0100203
0.00919827
0.00806378
0.00831059
0.00726965
0.00877014
0.00991453
0.0103253
0.0100291
0.00920112
0.00806268
0.00835609
0.00729614
0.00879522
0.0099395
0.0103489
0.0100495
0.00921711
0.0080742
0.0141103
0.0124066
0.0147445
0.0161918
0.0163526
0.0154095
0.0136967
0.0115943
0.0138991
0.0123863
0.0147616
0.0161995
0.016343
0.0153858
0.0136663
0.0115635
0.0136866
0.0123638
0.0147796
0.01622
0.0163583
0.0153962
0.013674
0.0115695
0.0135232
0.0123596
0.01481
0.0162561
0.0163907
0.0154219
0.0136931
0.0115827
0.0134968
0.0123873
0.014853
0.0162984
0.0164236
0.0154422
0.0137017
0.0115835
0.0135932
0.0124467
0.0149104
0.0163501
0.0164642
0.0154677
0.0137115
0.011581
0.0137267
0.0125113
0.0149645
0.0164021
0.0165134
0.0155103
0.013744
0.0116029
0.0219907
0.0217501
0.0251785
0.0265384
0.0258297
0.0235503
0.0202512
0.0165191
0.0215873
0.0217775
0.025226
0.0265469
0.0257922
0.0234798
0.0201669
0.0164374
0.0212014
0.0217795
0.0252582
0.0265642
0.0257857
0.0234574
0.0201407
0.0164149
0.0209535
0.0218259
0.0253344
0.0266322
0.0258343
0.0234872
0.0201571
0.0164231
0.0209767
0.0219275
0.0254424
0.0267267
0.0259053
0.0235305
0.0201741
0.0164201
0.0212259
0.0220578
0.0255548
0.026825
0.025986
0.0235864
0.0201999
0.0164173
0.0215383
0.022161
0.0256346
0.0269043
0.0260662
0.0236598
0.0202572
0.016454
0.0370359
0.0395112
0.0431124
0.042901
0.0399475
0.0351428
0.0292244
0.0229539
0.0361427
0.0397197
0.0432656
0.042932
0.0398724
0.0349981
0.0290514
0.0227864
0.0352297
0.0398444
0.0433906
0.0429827
0.0398492
0.0349268
0.0289654
0.022709
0.034703
0.0400446
0.0435911
0.0431288
0.0399344
0.034964
0.0289737
0.0227041
0.0348537
0.0402837
0.0437988
0.0432985
0.0400615
0.035046
0.029012
0.0227047
0.0355553
0.0404679
0.0439376
0.0434284
0.0401819
0.0351435
0.0290702
0.0227127
0.0364471
0.0405398
0.0439943
0.0435161
0.0402922
0.0352574
0.0291666
0.0227767
0.0742881
0.0765384
0.0735611
0.0679499
0.0600389
0.0506341
0.0405488
0.0305367
0.0753852
0.0774854
0.0740513
0.0680713
0.0599281
0.0503983
0.0402729
0.0302819
0.0760975
0.0782712
0.0745345
0.068277
0.0599363
0.0502893
0.0401249
0.0301526
0.0769304
0.0790295
0.0750779
0.0686169
0.0601137
0.0503557
0.0401305
0.030137
0.0776789
0.0794848
0.0754437
0.0689049
0.0603265
0.0504982
0.0402118
0.0301632
0.078013
0.0794469
0.0755087
0.0690483
0.060495
0.0506557
0.0403299
0.0302081
0.0778346
0.0790074
0.0753543
0.0691109
0.0606574
0.0508472
0.0405034
0.0303357
0.271629
0.147746
0.121997
0.10517
0.0878778
0.0701758
0.0531976
0.0374637
0.28138
0.151248
0.123503
0.105545
0.0876912
0.0697594
0.0527322
0.0370895
0.28975
0.154488
0.124992
0.106085
0.0877372
0.0695653
0.0524755
0.0369281
0.295714
0.156881
0.126283
0.106781
0.0880605
0.0696622
0.0524555
0.0368868
0.297367
0.157603
0.126909
0.107305
0.0884379
0.0698973
0.0525853
0.0369612
0.293142
0.156115
0.126519
0.107451
0.0887279
0.0701662
0.0527933
0.0370869
0.284647
0.153132
0.125322
0.107269
0.0889705
0.070532
0.0531441
0.0373511
0.0093712
0.00783874
0.00929475
0.0104892
0.010952
0.0106618
0.00978987
0.00857673
0.00950936
0.00789928
0.00935051
0.0105592
0.0110372
0.0107538
0.00987803
0.00865335
0.00962011
0.00793178
0.00936967
0.0105864
0.0110748
0.0107969
0.00991901
0.00868592
0.00972005
0.00795486
0.00937494
0.0105959
0.0110904
0.0108157
0.00993621
0.00869699
0.00980642
0.0079781
0.00938337
0.0106067
0.0111055
0.010834
0.00995463
0.00871196
0.00985524
0.00798712
0.0093787
0.0105985
0.0110968
0.0108286
0.00995399
0.00871491
0.00984739
0.00796554
0.00934371
0.010554
0.0110482
0.0107839
0.00991898
0.00869147
0.015774
0.013419
0.0158396
0.017458
0.0176968
0.0166879
0.0148007
0.0124809
0.0160111
0.0135025
0.0159249
0.0175855
0.0178601
0.0168646
0.0149675
0.0126221
0.0161891
0.013533
0.0159373
0.0176259
0.0179298
0.016951
0.0150542
0.0126952
0.0163457
0.0135521
0.0159299
0.0176351
0.0179584
0.0169931
0.0150995
0.012733
0.016469
0.0135746
0.0159304
0.0176413
0.0179776
0.0170255
0.0151397
0.012772
0.0165141
0.0135654
0.0158964
0.0175968
0.0179348
0.0169965
0.0151288
0.0127756
0.0164516
0.0134983
0.0158043
0.0174811
0.0178116
0.0168865
0.0150459
0.0127226
0.0257354
0.0235393
0.0272556
0.029033
0.0284652
0.0259944
0.022277
0.0180534
0.0261758
0.0236304
0.0274005
0.0292812
0.0287883
0.0263393
0.0225957
0.0183165
0.0265079
0.0236032
0.0273815
0.0293355
0.0289122
0.026502
0.0227635
0.0184624
0.0267924
0.0235746
0.0273322
0.0293293
0.0289538
0.0265779
0.0228538
0.0185466
0.0269481
0.0235639
0.0272831
0.0292898
0.0289466
0.0266095
0.0229165
0.0186218
0.0269017
0.0234934
0.0271607
0.0291384
0.0288016
0.0265045
0.0228654
0.0186162
0.026644
0.0233279
0.0269427
0.028865
0.0285147
0.026252
0.0226788
0.0185012
0.0472663
0.0422495
0.0468047
0.0476226
0.0449811
0.0397601
0.0329555
0.0256586
0.0480951
0.0423123
0.0470595
0.0481016
0.0456046
0.0404177
0.033552
0.0261401
0.0484256
0.0420668
0.0469246
0.0481536
0.0458165
0.040717
0.0338645
0.0264134
0.048607
0.0418444
0.046743
0.0480916
0.0458706
0.0408477
0.0340287
0.0265739
0.0485522
0.041684
0.0465468
0.0479213
0.0457668
0.0408315
0.0340947
0.0266914
0.0481712
0.041468
0.0462432
0.0475545
0.0454051
0.0405472
0.0339324
0.0266456
0.0474155
0.0411355
0.0457984
0.0469982
0.0448171
0.0400214
0.03354
0.026407
0.0788181
0.0776944
0.0787065
0.075949
0.0690439
0.0589712
0.0471903
0.035207
0.0789134
0.0775686
0.0791716
0.0768267
0.0701603
0.060133
0.0482259
0.0360239
0.0783821
0.0766519
0.0787068
0.0767544
0.0704299
0.0606161
0.0487603
0.0364965
0.0779899
0.075804
0.0780893
0.0764438
0.0704259
0.0608123
0.0490387
0.0367765
0.0774688
0.0753959
0.077692
0.076099
0.0701722
0.0606927
0.0490688
0.0369294
0.0766869
0.0751817
0.0773063
0.0755711
0.0695664
0.0601389
0.0486992
0.0367867
0.0755673
0.0747712
0.0765401
0.0745913
0.0685209
0.0591756
0.0479586
0.0363308
0.217983
0.137349
0.126067
0.116995
0.102991
0.0845069
0.0644366
0.0451536
0.211112
0.136916
0.127308
0.118891
0.105102
0.0865082
0.0660975
0.0463983
0.201174
0.134741
0.126636
0.118716
0.105358
0.0871495
0.0668629
0.0471039
0.192676
0.13201
0.124853
0.11756
0.104943
0.0872891
0.0672369
0.0475244
0.192681
0.131605
0.124488
0.117245
0.104658
0.087102
0.0672187
0.0476988
0.197542
0.132151
0.124348
0.11689
0.104052
0.0863543
0.0666257
0.0474224
0.201486
0.131693
0.122643
0.114879
0.102132
0.0846892
0.0653793
0.0466596
0.0097693
0.00790785
0.00927865
0.0104792
0.0109673
0.010705
0.00984979
0.00863588
0.00962338
0.00782023
0.00919396
0.0103892
0.0108732
0.010613
0.00976631
0.00856445
0.00943777
0.00772145
0.009105
0.0102945
0.0107724
0.0105122
0.00967208
0.00848037
0.00923087
0.00761494
0.00900649
0.0101832
0.0106496
0.0103878
0.00955657
0.00838118
0.00902274
0.0075017
0.00889592
0.010057
0.0105126
0.0102516
0.00943343
0.00828016
0.00884322
0.00739559
0.00878417
0.00992679
0.0103705
0.0101096
0.00930438
0.00817344
0.00872222
0.00733416
0.00872209
0.00984821
0.0102766
0.0100088
0.00920651
0.00808623
0.0162709
0.0133794
0.0156746
0.0173259
0.0176427
0.0167247
0.0149079
0.0126159
0.0159745
0.0132194
0.0155243
0.0171576
0.0174613
0.0165484
0.0147525
0.012489
0.0156202
0.0130571
0.0153794
0.0169907
0.0172779
0.0163665
0.0145886
0.0123508
0.0152393
0.0128943
0.0152254
0.0168003
0.0170609
0.0161463
0.0143872
0.012183
0.014857
0.0127128
0.0150457
0.0165846
0.0168213
0.015907
0.0141723
0.0120097
0.0145145
0.0125246
0.014846
0.0163496
0.0165643
0.0156512
0.0139411
0.0118202
0.0142732
0.01242
0.0147372
0.016206
0.0163931
0.0154698
0.0137672
0.0116673
0.0261971
0.0231124
0.0267007
0.0285576
0.028175
0.025929
0.022409
0.0182989
0.0255752
0.0228596
0.0264579
0.0282547
0.0278314
0.0255916
0.0221157
0.0180666
0.0248553
0.0226255
0.0262229
0.0279517
0.0274848
0.0252487
0.0218141
0.0178237
0.0241292
0.0224177
0.0259788
0.027615
0.0270899
0.0248474
0.0214506
0.017526
0.0234344
0.0221673
0.0256873
0.027242
0.0266673
0.0244249
0.0210728
0.0172248
0.0228242
0.0218707
0.0253431
0.0268276
0.0262149
0.0239789
0.0206728
0.016899
0.0223526
0.0217174
0.0251511
0.0265681
0.0259118
0.0236655
0.0203789
0.0166453
0.0463079
0.0408584
0.0454202
0.0464541
0.0441864
0.0394127
0.033034
0.0260351
0.0448432
0.0406732
0.0451689
0.0459947
0.0435905
0.0388021
0.0325002
0.0256183
0.0431279
0.0405047
0.0448758
0.0454811
0.0429511
0.0381608
0.0319433
0.025185
0.0414277
0.0403285
0.0445078
0.0448823
0.0422263
0.0374263
0.0312845
0.0246497
0.0399396
0.0400186
0.0440181
0.044208
0.0414612
0.0366694
0.0306127
0.0241138
0.0387496
0.0395517
0.0433972
0.0434522
0.0406567
0.0358975
0.0299341
0.0235664
0.0378226
0.0393357
0.0430447
0.0429713
0.0401151
0.0353593
0.0294475
0.0231594
0.074614
0.0749435
0.0761567
0.0737548
0.0674496
0.0581101
0.047073
0.0356877
0.0740292
0.0759386
0.0764088
0.0733089
0.066556
0.0570925
0.0461659
0.0349853
0.0738733
0.0768345
0.0764396
0.0726163
0.0654625
0.0559424
0.0451732
0.0342344
0.0740082
0.0772122
0.0760098
0.0715994
0.0641536
0.0546191
0.0440111
0.0333032
0.0738859
0.0768978
0.0751206
0.070337
0.0627489
0.053264
0.042833
0.032361
0.0732146
0.0761012
0.0739425
0.0689334
0.0613113
0.0519388
0.0417098
0.0314751
0.0732204
0.075886
0.0733492
0.0680791
0.0603617
0.0510269
0.0409201
0.03084
0.211692
0.13373
0.122436
0.113541
0.10026
0.0828498
0.0639209
0.0456341
0.229419
0.138889
0.124325
0.113571
0.0990692
0.0812428
0.062487
0.0445397
0.247609
0.144038
0.125972
0.113144
0.0973942
0.0792863
0.0608284
0.0433107
0.258939
0.146578
0.125853
0.111591
0.0951085
0.0769558
0.0588549
0.0417907
0.261998
0.146303
0.124131
0.109209
0.092557
0.0745929
0.0568728
0.0402349
0.261836
0.145036
0.122004
0.106681
0.0900432
0.0723737
0.0550722
0.0388722
0.264821
0.145418
0.121267
0.105327
0.0884743
0.0708911
0.0538289
0.0379007
0.0083739
0.00730786
0.00880469
0.00994803
0.0103576
0.010058
0.00922461
0.00808058
0.00837739
0.00732749
0.00883297
0.00998298
0.0103957
0.0100939
0.00925446
0.008103
0.00843219
0.00738259
0.00890247
0.0100682
0.0104893
0.0101855
0.00933573
0.00816937
0.00856151
0.00746651
0.00899065
0.0101683
0.0105971
0.0102916
0.0094314
0.00824951
0.00876645
0.00756828
0.00907968
0.0102599
0.0106925
0.0103851
0.00951645
0.0083221
0.00899596
0.00766792
0.00915419
0.0103323
0.0107688
0.0104626
0.00959048
0.00838967
0.00920657
0.00776005
0.00922524
0.0104076
0.0108548
0.0105558
0.00968424
0.00847873
0.0138139
0.0125459
0.0149875
0.0164243
0.0165353
0.0155295
0.0137587
0.0116134
0.0138891
0.0126176
0.015074
0.0165253
0.0166389
0.0156221
0.0138322
0.0116664
0.014048
0.0127534
0.0152416
0.0167238
0.0168466
0.0158158
0.0139962
0.0117946
0.0143208
0.0129105
0.0154132
0.0169235
0.0170591
0.0160189
0.0141728
0.0119367
0.0147054
0.0130666
0.0155544
0.0170832
0.0172323
0.016188
0.0143221
0.0120581
0.0151206
0.0131989
0.015651
0.0171965
0.0173646
0.0163246
0.014448
0.0121656
0.0154892
0.0133149
0.0157392
0.0173155
0.0175161
0.0164912
0.0146106
0.0123122
0.0217898
0.022219
0.0256803
0.0269567
0.0261191
0.0237039
0.020288
0.0164724
0.0220579
0.0224029
0.0259019
0.0272072
0.0263648
0.0239155
0.0204501
0.016585
0.0224542
0.0227138
0.0262898
0.027648
0.026804
0.0243071
0.0207675
0.016823
0.0230238
0.0229985
0.0266342
0.0280547
0.0272253
0.0246952
0.0210915
0.0170726
0.0237636
0.0232091
0.0268629
0.028348
0.027554
0.0250145
0.0213663
0.0172875
0.0245376
0.0233325
0.026982
0.0285433
0.0278081
0.0252811
0.0216055
0.0174795
0.0252064
0.0234245
0.0270885
0.0287526
0.0281019
0.0256065
0.0219149
0.0177454
0.0372047
0.0406051
0.0440835
0.0436443
0.0404261
0.0353695
0.029244
0.0228218
0.037994
0.0410138
0.0445829
0.0441919
0.0409463
0.0358048
0.0295659
0.0230328
0.0390852
0.0417248
0.045446
0.0451192
0.041825
0.0365545
0.0301464
0.0234466
0.0406079
0.0422658
0.0461574
0.0459471
0.042652
0.0372866
0.0307307
0.023875
0.0424939
0.042461
0.0465019
0.0464798
0.0432728
0.0378875
0.0312366
0.0242575
0.044419
0.0423486
0.0465326
0.0467762
0.0437438
0.0384032
0.0316972
0.0246138
0.0460335
0.042187
0.0465373
0.0470884
0.0442768
0.0390174
0.0322786
0.0251013
0.0777616
0.0788081
0.0754095
0.0693571
0.0609604
0.0511138
0.0406911
0.0304467
0.0784399
0.079436
0.0762777
0.0703601
0.0619281
0.0519217
0.0412766
0.0308095
0.0799015
0.0809188
0.0779981
0.07215
0.0635702
0.0532735
0.042276
0.0314779
0.0807389
0.0818752
0.0793912
0.0737576
0.0651354
0.0546124
0.0432961
0.0321803
0.080511
0.0814586
0.0797299
0.0746364
0.0662534
0.0557053
0.0441949
0.0328292
0.0794876
0.0797916
0.0790786
0.0748495
0.0670031
0.0566295
0.045033
0.0334607
0.0787148
0.078141
0.0784071
0.0750573
0.0678069
0.057669
0.0460312
0.0342847
0.279533
0.15125
0.124772
0.10748
0.0894949
0.0710566
0.0535319
0.037587
0.278566
0.151392
0.1258
0.109004
0.0910944
0.0724352
0.0545275
0.0381755
0.282478
0.153852
0.128783
0.112199
0.094005
0.0747732
0.0561953
0.039193
0.283298
0.155333
0.131336
0.115171
0.0968629
0.0771518
0.0579405
0.0403009
0.272727
0.152727
0.131283
0.116462
0.098787
0.0790921
0.059521
0.0413884
0.250387
0.145914
0.12841
0.115907
0.09976
0.080651
0.0609904
0.042476
0.229231
0.139627
0.125869
0.115499
0.100812
0.082294
0.0625792
0.0437615
0.00667464
0.00355247
0.00668806
0.00705803
0.00627903
0.00556264
0.0049421
0.00445812
0.00419686
0.00448986
0.00844981
0.00704724
0.00626716
0.00554969
0.00492809
0.00444295
0.00418007
0.00446994
0.00842556
0.00705655
0.00627243
0.00555065
0.00492459
0.00443488
0.0041671
0.00445071
0.00838933
0.00706542
0.00627779
0.00555228
0.00492231
0.00442846
0.00415604
0.0044334
0.00835327
0.00706968
0.00628259
0.005558
0.00492912
0.00443641
0.00416534
0.00444542
0.00838514
0.0070677
0.00628142
0.00555859
0.00493211
0.00444224
0.00417456
0.00445994
0.00842357
0.00707665
0.00628929
0.00556627
0.00494035
0.00445158
0.00418544
0.00447363
0.00845406
0.00987696
0.00856391
0.0073958
0.00641173
0.00565478
0.00522103
0.00550678
0.0103312
0.0098493
0.00853769
0.00737104
0.00638847
0.00563303
0.0052
0.00548055
0.0102877
0.00985317
0.00853825
0.00736759
0.00638033
0.00561922
0.00517856
0.00544743
0.0102175
0.00986209
0.00854269
0.00736734
0.00637499
0.00560793
0.00515957
0.00541664
0.0101482
0.00986108
0.00854203
0.00736849
0.00637875
0.00561474
0.00516976
0.00542991
0.0101789
0.00985381
0.008535