/*--------------------------------*- C++ -*----------------------------------*\
| =========                 |                                                 |
| \\      /  F ield         | OpenFOAM: The Open Source CFD Toolbox           |
|  \\    /   O peration     | Version:  plus.master.MPPICInterFoam            |
|   \\  /    A nd           | Web:      www.OpenFOAM.com                      |
|    \\/     M anipulation  |                                                 |
\*---------------------------------------------------------------------------*/
FoamFile
{
    version     2.0;
    format      ascii;
    class       volScalarField;
    location    "9";
    object      nut;
}
// * * * * * * * * * * * * * * * * * * * * * * * * * * * * * * * * * * * * * //

dimensions      [0 2 -1 0 0 0 0];

internalField   nonuniform List<scalar> 
11822
(
0.000756695
0.00079225
0.000810653
0.000813244
0.000801773
0.000775855
0.000736022
0.000784991
0.000821546
0.000844039
0.000849142
0.000840323
0.000813808
0.000773376
0.000804605
0.000847171
0.000870896
0.000873554
0.000866577
0.000838989
0.000796399
0.000812403
0.000879045
0.000902051
0.000890265
0.000879103
0.000849577
0.000805302
0.00080788
0.000867763
0.000893105
0.000885109
0.000871861
0.000843052
0.000799311
0.000786907
0.000831538
0.000853839
0.000857714
0.000847735
0.000820352
0.000778566
0.000759778
0.000797652
0.000817259
0.000820671
0.000810129
0.000783762
0.000742838
0.000769169
0.000806069
0.000825379
0.000827491
0.000814588
0.000787157
0.000745886
0.000804054
0.000839988
0.000864113
0.000869204
0.00085605
0.000826545
0.000784275
0.000818136
0.00086462
0.000891843
0.000896718
0.000885317
0.000852664
0.000807938
0.000814001
0.000881684
0.000902808
0.000911527
0.000897423
0.000863308
0.000816998
0.000822082
0.000871942
0.000884147
0.000901428
0.00088964
0.000856549
0.000810833
0.000801587
0.000845098
0.000869438
0.000873225
0.000863316
0.0008331
0.000789532
0.000770553
0.000808881
0.000829665
0.000834274
0.000823076
0.000795229
0.000752826
0.000780739
0.000818589
0.000837409
0.000839046
0.000824855
0.000796376
0.000754094
0.000825908
0.000864398
0.000884441
0.000886211
0.000868207
0.000836664
0.000793178
0.00086024
0.000887749
0.000911284
0.000919209
0.000899026
0.000863321
0.000817274
0.000878718
0.000907258
0.000926647
0.000929585
0.000911582
0.000874075
0.000826454
0.000855738
0.00087365
0.000902174
0.000918362
0.000903482
0.000867194
0.00082015
0.000824832
0.000859375
0.000883937
0.000893298
0.000876441
0.000843359
0.000798415
0.00078444
0.000824026
0.000845302
0.000847927
0.000833929
0.000804507
0.000760931
0.000786067
0.000824376
0.000843608
0.000845977
0.000832384
0.000803974
0.000761304
0.000826912
0.000867012
0.000886536
0.000890059
0.000874843
0.00084423
0.000800666
0.000861351
0.000887976
0.000912128
0.000922697
0.000904476
0.000870666
0.000824854
0.000874174
0.000874033
0.000899852
0.000924757
0.000916127
0.000881231
0.000833995
0.000856668
0.000883461
0.000909696
0.000922377
0.000908925
0.000874399
0.000827567
0.000827654
0.000865414
0.000890089
0.000896951
0.000882359
0.00085047
0.000805525
0.000789688
0.000829383
0.00085063
0.000853859
0.000840621
0.000811413
0.00076756
0.000792755
0.000831639
0.000852275
0.000855215
0.000842052
0.000813659
0.000770754
0.000826841
0.000866446
0.000891711
0.000896419
0.000883765
0.000853948
0.000810284
0.000839098
0.000889061
0.000918394
0.000920509
0.000912018
0.000880232
0.000834528
0.000841062
0.000879187
0.0009161
0.000940563
0.000924073
0.000890702
0.000843597
0.00084249
0.000853569
0.000881986
0.000924813
0.000915338
0.000883437
0.000836901
0.000827657
0.000867307
0.000895569
0.000901326
0.000889938
0.000859261
0.000814488
0.00079455
0.000834019
0.000855837
0.000860717
0.00084865
0.000819927
0.000776136
0.000806559
0.000846059
0.000867598
0.00087157
0.000858683
0.000830612
0.000789039
0.000838955
0.000878219
0.000903307
0.000911364
0.0009007
0.000870846
0.000827821
0.000856033
0.000903264
0.000921211
0.000932815
0.000928329
0.000897129
0.000851772
0.000868972
0.000912481
0.000936253
0.000933418
0.000938881
0.000907448
0.000860671
0.000861083
0.000933762
0.000959542
0.000935606
0.000931165
0.000899774
0.000853753
0.000838255
0.000885155
0.000912314
0.0009153
0.000905593
0.000875191
0.000831286
0.000805968
0.000845831
0.000869041
0.000875222
0.000863901
0.000835706
0.000793434
0.000687771
0.000639827
0.000581744
0.000510914
0.000422887
0.000310906
0.000167243
1.89716e-05
0.000724237
0.000674291
0.000615519
0.00054421
0.000454936
0.00033937
0.000186733
2.13445e-05
0.000746647
0.000696058
0.000636811
0.000565095
0.000474992
0.000357219
0.000199048
2.29578e-05
0.000755151
0.000704266
0.000644772
0.000572826
0.000482366
0.00036377
0.000203583
2.35798e-05
0.000749067
0.000698299
0.000638888
0.000566995
0.000476681
0.000358602
0.000199916
2.31123e-05
0.00072873
0.000678586
0.000619595
0.000548008
0.000458349
0.000342176
0.000188484
2.16353e-05
0.000694024
0.000646028
0.000587823
0.000516749
0.000428277
0.000315454
0.000170167
1.93689e-05
0.000696291
0.00064713
0.000587757
0.00051557
0.00042613
0.000312731
0.000167835
1.90519e-05
0.000733646
0.000682329
0.000622163
0.000549415
0.000458634
0.000341504
0.000187397
2.14388e-05
0.000756596
0.000704561
0.000643846
0.00057062
0.000478941
0.000359514
0.000199763
2.30541e-05
0.000765272
0.000712933
0.000651948
0.000578468
0.000486406
0.000366128
0.000204325
2.36731e-05
0.000759033
0.000706825
0.000645936
0.000572525
0.00048063
0.000360902
0.000200639
2.31981e-05
0.000738194
0.000686663
0.000626249
0.0005532
0.000462027
0.000344296
0.000189144
2.17105e-05
0.000702618
0.000653373
0.000593846
0.000521394
0.000431505
0.000317263
0.000170713
1.94313e-05
0.000703538
0.000653467
0.000593109
0.00051984
0.000429203
0.000314531
0.000168445
1.91195e-05
0.000741515
0.000689198
0.000627985
0.000554111
0.000462077
0.000343554
0.000188061
2.15153e-05
0.000764836
0.000711747
0.000649935
0.000575545
0.000482574
0.000361694
0.000200467
2.3132e-05
0.000773619
0.000720203
0.000658099
0.00058344
0.000490079
0.000368336
0.000205038
2.3747e-05
0.000767231
0.000713942
0.00065194
0.000577362
0.000484188
0.000363029
0.00020132
2.32629e-05
0.00074597
0.000693383
0.000631893
0.000557716
0.000465313
0.000346233
0.000189754
2.17631e-05
0.000709689
0.00065948
0.000598936
0.000525405
0.000434355
0.000318888
0.000171203
1.94708e-05
0.000710195
0.000659522
0.000598467
0.000524353
0.00043266
0.000316685
0.000169157
1.92483e-05
0.000748543
0.000695602
0.000633686
0.000558978
0.000465879
0.000345971
0.000188858
2.16581e-05
0.000772026
0.000718318
0.000655791
0.000580573
0.000486544
0.000364253
0.000201318
2.32808e-05
0.000780802
0.00072677
0.000663949
0.000588468
0.000494059
0.000370909
0.000205891
2.38924e-05
0.000774245
0.000720333
0.000657625
0.000582235
0.000488027
0.00036549
0.000202123
2.33964e-05
0.000752627
0.000699422
0.000637249
0.000562279
0.000468865
0.000348471
0.000190464
2.1879e-05
0.000715807
0.000665009
0.000603805
0.000529492
0.000437462
0.000320785
0.000171774
1.95657e-05
0.000719457
0.000668658
0.000607424
0.00053285
0.000440099
0.000322177
0.000171895
1.9505e-05
0.000757942
0.000704861
0.000642869
0.000567894
0.000473917
0.000352088
0.000191983
2.19878e-05
0.000781466
0.000727581
0.000665011
0.000589638
0.000494867
0.000370706
0.000204655
2.36591e-05
0.000790173
0.000735953
0.0006731
0.000597506
0.000502411
0.000377425
0.000209273
2.4282e-05
0.000783411
0.00072935
0.000666619
0.000591093
0.000496167
0.000371802
0.000205386
2.37573e-05
0.00076149
0.000708191
0.000645978
0.000570779
0.000476539
0.000354308
0.000193438
2.21778e-05
0.000724322
0.000673435
0.000612099
0.000537381
0.000444361
0.000325852
0.00017429
1.97846e-05
0.000740191
0.000691921
0.000633449
0.000560961
0.000468066
0.000345189
0.000182334
2.17776e-05
0.0007775
0.000727196
0.000668593
0.000596659
0.000503614
0.000377553
0.000204192
2.46616e-05
0.000800362
0.000749214
0.000690303
0.00061851
0.000525339
0.000397452
0.00021786
2.6621e-05
0.000808765
0.000757247
0.000698131
0.000626304
0.000533052
0.000404538
0.000222792
2.73487e-05
0.000801969
0.000750663
0.00069161
0.000619691
0.000526391
0.000398339
0.000218467
2.67073e-05
0.000780391
0.000729884
0.000671078
0.000598947
0.000505677
0.000379299
0.000205362
2.48176e-05
0.000744104
0.000695724
0.000637132
0.000564498
0.000471365
0.00034803
0.000184217
2.19969e-05
0.000714607
0.000669823
0.000612666
0.000541094
0.000450347
0.000332722
0.000179955
2.27683e-05
0.000746178
0.000703116
0.000647694
0.000577059
0.000486086
0.000365227
0.000202378
2.61659e-05
0.000762629
0.000722477
0.000668617
0.000599035
0.000508248
0.00038578
0.000216922
2.85032e-05
0.000764386
0.000728159
0.000675035
0.000605833
0.000515138
0.000392261
0.000221634
2.92429e-05
0.000761201
0.000720765
0.000666612
0.000596865
0.000506092
0.00038387
0.000215681
2.82345e-05
0.000743973
0.000699834
0.000643747
0.000572922
0.00048207
0.000361759
0.000200141
2.57185e-05
0.000710805
0.000664826
0.000607171
0.000535591
0.000445234
0.000328491
0.000177287
2.22723e-05
0.000723908
0.000677509
0.00061877
0.000545508
0.00045303
0.000333826
0.000179984
2.27692e-05
0.000757125
0.000711982
0.0006547
0.000582135
0.000489141
0.000366379
0.000202244
2.61425e-05
0.000774778
0.00073206
0.000676242
0.000604553
0.000511538
0.000386927
0.000216632
2.84579e-05
0.000779245
0.000738154
0.000682803
0.000611388
0.000518378
0.000393276
0.000221203
2.91857e-05
0.000776373
0.000731183
0.000674406
0.000602276
0.000509162
0.000384781
0.000215239
2.81879e-05
0.000757238
0.000709341
0.000650814
0.000577831
0.000484889
0.000362693
0.000199884
2.57054e-05
0.000720748
0.000672639
0.000613208
0.000539862
0.00044776
0.00032946
0.000177247
2.22919e-05
0.000734091
0.000684855
0.000624185
0.000549308
0.000455359
0.000334856
0.00018008
2.27649e-05
0.000773634
0.000721866
0.000661305
0.000586525
0.000491683
0.000367333
0.000202131
2.6113e-05
0.000801807
0.000745681
0.000684256
0.000609461
0.000514181
0.000387719
0.000216277
2.83991e-05
0.000813394
0.000753733
0.000691367
0.000616422
0.000520977
0.000393939
0.00022071
2.91176e-05
0.000801292
0.000743801
0.00068198
0.000606961
0.000511678
0.000385504
0.000214856
2.81409e-05
0.000771513
0.000718395
0.000657089
0.000582105
0.000487412
0.00036367
0.000199803
2.56997e-05
0.000729898
0.000679651
0.000618582
0.000543745
0.000450208
0.000330594
0.0001774
2.23163e-05
0.000739715
0.000690098
0.000628665
0.000552915
0.000458014
0.000336491
0.000180647
2.28004e-05
0.000778186
0.000727184
0.000666034
0.000590354
0.000494451
0.000368957
0.000202621
2.61371e-05
0.000803793
0.000750707
0.000689126
0.000613405
0.000516977
0.000389264
0.000216647
2.84089e-05
0.000813534
0.000758387
0.000696206
0.000620405
0.000523816
0.000395501
0.000221067
2.91318e-05
0.000802123
0.000748256
0.000686697
0.00061095
0.000514595
0.000387177
0.000215306
2.8173e-05
0.0007751
0.000723485
0.000661977
0.000586225
0.000490485
0.000365536
0.000200417
2.57574e-05
0.000735623
0.000685285
0.000623595
0.000547897
0.000453336
0.000332563
0.000178123
2.23905e-05
0.000745473
0.000695998
0.00063423
0.000557927
0.00046228
0.000339646
0.000182099
2.28909e-05
0.000781687
0.00073251
0.000671506
0.000595381
0.00049872
0.00037212
0.000204071
2.6246e-05
0.000802004
0.000754532
0.000694282
0.000618408
0.000521221
0.000392347
0.000218016
2.85264e-05
0.000807628
0.000761368
0.000701321
0.000625558
0.000528235
0.000398719
0.000222502
2.92668e-05
0.000799883
0.000752465
0.000692279
0.000616376
0.000519228
0.000390575
0.00021685
2.83207e-05
0.000779466
0.000729593
0.000668229
0.000591964
0.000495351
0.000369124
0.00020207
2.59091e-05
0.000742693
0.000692348
0.000630195
0.000553808
0.000458333
0.000336223
0.000179813
2.25307e-05
0.000756928
0.000707211
0.000645595
0.000569791
0.000474483
0.000350468
0.000186749
2.39524e-05
0.000792383
0.000743485
0.000682239
0.000606211
0.0005098
0.000382274
0.000208677
2.73425e-05
0.000811472
0.000765461
0.000704923
0.00062876
0.000531533
0.000401824
0.000222389
2.96402e-05
0.000816601
0.000772749
0.000712382
0.000636122
0.000538575
0.000408161
0.000226889
3.04045e-05
0.000810459
0.000764521
0.000703768
0.000627407
0.000530108
0.000400499
0.000221453
2.9477e-05
0.000792171
0.00074206
0.000680145
0.000603775
0.000507261
0.000379909
0.000206976
2.70673e-05
0.000755825
0.000704961
0.000642771
0.000566733
0.000471418
0.000347653
0.000184723
2.36541e-05
0.000710484
0.000663147
0.000605103
0.000533616
0.000443667
0.000327496
0.000176724
2.19686e-05
0.00074433
0.00069454
0.00063537
0.000563311
0.000472457
0.000353467
0.000194777
2.42154e-05
0.000762496
0.000711908
0.000652097
0.000579635
0.00048829
0.000367943
0.000205161
2.54175e-05
0.000765203
0.000714459
0.000654568
0.000582072
0.000490739
0.000370422
0.000207211
2.54171e-05
0.000753183
0.000702543
0.000642961
0.000570801
0.00048005
0.000361077
0.000200951
2.42027e-05
0.00072746
0.000677419
0.00061845
0.000546892
0.00045727
0.000340969
0.000187178
2.20009e-05
0.00068825
0.000640365
0.000582229
0.000511323
0.000423121
0.000310806
0.000166922
1.91151e-05
0.000720286
0.000671183
0.000611408
0.000538161
0.000446458
0.000328695
0.000176831
2.20024e-05
0.00075534
0.000703627
0.00064267
0.000568773
0.000476028
0.000355253
0.000195178
2.42745e-05
0.000774119
0.000721559
0.00065996
0.000585644
0.000492355
0.000370108
0.000205745
2.5495e-05
0.000776787
0.000724175
0.000662539
0.000588226
0.000494983
0.000372741
0.000207869
2.55008e-05
0.000764052
0.000711796
0.000650594
0.000576738
0.000484185
0.000363391
0.000201664
2.42879e-05
0.000737303
0.000685848
0.00062542
0.000552336
0.000461101
0.000343114
0.000187853
2.20877e-05
0.000696888
0.000647768
0.000588334
0.000516061
0.000426434
0.000312671
0.000167567
1.92009e-05
0.000728906
0.000678134
0.000616914
0.00054226
0.000449154
0.000330059
0.000177132
2.20391e-05
0.000764681
0.000711303
0.000648941
0.000573632
0.000479411
0.000357137
0.000195732
2.43355e-05
0.000783622
0.00072961
0.00066668
0.000590963
0.000496168
0.00037235
0.000206553
2.55766e-05
0.000786238
0.000732287
0.000669367
0.000593686
0.000498955
0.000375136
0.000208769
2.55732e-05
0.000773
0.000719594
0.000657192
0.000582032
0.000488039
0.000365695
0.000202488
2.43599e-05
0.000745542
0.00069306
0.000631534
0.00055727
0.000464663
0.000345222
0.00018862
2.21586e-05
0.000704248
0.000654207
0.000593771
0.000520391
0.000429528
0.000314542
0.00016825
1.9267e-05
0.000735036
0.000684003
0.000622168
0.000546655
0.000452507
0.000332207
0.000177958
2.21224e-05
0.000771391
0.000717863
0.000654916
0.000578727
0.000483395
0.000359775
0.000196803
2.44469e-05
0.000790784
0.00073663
0.000673082
0.000596447
0.00050049
0.000375246
0.000207682
2.57084e-05
0.000793723
0.000739489
0.000675884
0.000599273
0.000503384
0.000378129
0.000210034
2.57121e-05
0.000780566
0.000726688
0.000663559
0.0005875
0.000492392
0.00036856
0.000203634
2.44996e-05
0.000752858
0.000699785
0.00063753
0.000562379
0.000468647
0.000347749
0.000189615
2.22883e-05
0.00071103
0.000660372
0.000599219
0.000524956
0.000433033
0.000316783
0.000169022
1.93911e-05
0.000742699
0.000691487
0.000629117
0.000552858
0.000457722
0.000335992
0.000179706
2.22619e-05
0.000779882
0.000726196
0.00066267
0.000585697
0.000489341
0.000364208
0.000198917
2.46374e-05
0.000800039
0.000745555
0.000681352
0.000603912
0.000506908
0.000380043
0.000209969
2.59313e-05
0.000803267
0.000748635
0.000684403
0.000607061
0.000510168
0.000383228
0.000212472
2.59739e-05
0.000790147
0.000735832
0.000672195
0.000595555
0.000499479
0.000373949
0.000206406
2.47817e-05
0.000762286
0.000708856
0.000646248
0.0005706
0.000475902
0.000353276
0.000192425
2.25601e-05
0.000720264
0.000669387
0.000607981
0.000533192
0.00044022
0.00032207
0.000171577
1.96279e-05
0.000756259
0.00070481
0.000642584
0.000566784
0.000471782
0.000348177
0.000184991
2.34582e-05
0.000794441
0.000740575
0.000677332
0.000601103
0.000505282
0.000378571
0.000205806
2.61225e-05
0.000815509
0.000760932
0.000697261
0.00062092
0.000524791
0.000396431
0.00021824
2.77103e-05
0.000819417
0.000764982
0.000701768
0.000626016
0.000530289
0.00040167
0.000221836
2.80103e-05
0.000806883
0.000753409
0.000691461
0.000616895
0.000522092
0.000394418
0.000216676
2.69763e-05
0.000780134
0.000728363
0.000668053
0.000594667
0.000500857
0.000375139
0.000203023
2.47969e-05
0.0007403
0.000691632
0.000632706
0.000559838
0.000466768
0.000344037
0.000181597
2.17822e-05
0.000695618
0.000647701
0.0005893
0.000517875
0.000428964
0.000315719
0.000170224
1.95328e-05
0.000735999
0.000686064
0.000626899
0.000554854
0.000464406
0.000346934
0.00019121
2.25648e-05
0.00076244
0.000712189
0.000652541
0.000579981
0.000488461
0.000368194
0.000205751
2.4916e-05
0.000774231
0.000724405
0.000664672
0.000591903
0.000499883
0.00037825
0.00021256
2.6225e-05
0.000771031
0.00072149
0.000661952
0.000589308
0.00049734
0.000375715
0.000210423
2.6253e-05
0.000751849
0.000703
0.000644109
0.0005719
0.000480468
0.000360286
0.000199308
2.49526e-05
0.000716318
0.00066983
0.000612038
0.00054036
0.000449823
0.00033256
0.000179954
2.25312e-05
0.000704339
0.000655139
0.000595393
0.000522566
0.000432219
0.000317552
0.000170813
1.95933e-05
0.000745992
0.000694594
0.000633908
0.000560275
0.000468191
0.000349076
0.000191884
2.26266e-05
0.000773499
0.000721616
0.0006603
0.000585983
0.000492633
0.000370528
0.000206432
2.49794e-05
0.000785827
0.000734304
0.000672841
0.000598221
0.000504246
0.00038065
0.000213257
2.62772e-05
0.000782282
0.000731215
0.000670017
0.000595539
0.000501602
0.000378005
0.000211049
2.62948e-05
0.000762194
0.000711991
0.00065154
0.000577567
0.000484244
0.000362213
0.000199757
2.49805e-05
0.00072556
0.000677721
0.000618389
0.000545024
0.000452742
0.000333863
0.000180112
2.25397e-05
0.000711489
0.000661289
0.0006005
0.000526575
0.000435052
0.00031916
0.000171305
1.96314e-05
0.000754085
0.000701525
0.000639652
0.00056479
0.000471409
0.000350934
0.000192477
2.26612e-05
0.000782502
0.000729206
0.000666539
0.000590851
0.00049608
0.0003725
0.000207004
2.501e-05
0.00079572
0.000742348
0.000679364
0.00060325
0.000507748
0.000382605
0.00021379
2.63056e-05
0.000792527
0.000739326
0.000676505
0.000600478
0.000504975
0.000379835
0.000211539
2.63108e-05
0.000772108
0.000719737
0.000657628
0.000582111
0.000487265
0.00036378
0.000200127
2.49877e-05
0.000734735
0.000684795
0.00062377
0.00054888
0.000455163
0.000334994
0.000180286
2.2537e-05
0.000717604
0.000666801
0.000605346
0.000530638
0.000438148
0.000321069
0.000171914
1.97207e-05
0.000760598
0.00070743
0.000644853
0.000569182
0.000474818
0.000353122
0.000193265
2.27418e-05
0.000789138
0.000735328
0.000671945
0.000595408
0.000499629
0.000374804
0.000207835
2.50836e-05
0.000802212
0.000748489
0.000684819
0.000607831
0.00051129
0.000384902
0.000214623
2.63773e-05
0.000798736
0.000745298
0.00068184
0.000604966
0.000508406
0.000382049
0.00021238
2.63644e-05
0.000778068
0.00072538
0.000662629
0.000586265
0.000490424
0.000365806
0.000200894
2.50313e-05
0.000740379
0.000689986
0.000628269
0.000552537
0.000457877
0.000336685
0.000180897
2.25706e-05
0.000725939
0.00067497
0.000613329
0.000538196
0.000444743
0.00032591
0.000174287
1.99214e-05
0.000768877
0.00071542
0.000652576
0.000576516
0.000481338
0.000358028
0.000195678
2.29546e-05
0.00079724
0.000743121
0.000679351
0.000602351
0.000505806
0.000379509
0.000210119
2.52814e-05
0.000809902
0.000756017
0.000691913
0.000614368
0.000517038
0.000389266
0.000216696
2.65497e-05
0.000805782
0.000752408
0.00068857
0.000611076
0.000513708
0.000386059
0.000214282
2.65082e-05
0.000784584
0.000732005
0.000668908
0.000591968
0.000495332
0.000369483
0.000202628
2.51444e-05
0.000746523
0.000696091
0.000634001
0.000557691
0.000462245
0.000339893
0.000182378
2.26517e-05
0.000744874
0.000696088
0.000636924
0.00056374
0.000470279
0.000347021
0.000183702
2.20071e-05
0.000785459
0.000733616
0.000673057
0.000599297
0.000505082
0.000378779
0.000205523
2.51021e-05
0.000812552
0.000759233
0.00069714
0.000622238
0.000527029
0.00039877
0.000219666
2.73631e-05
0.000824467
0.000770763
0.000707689
0.000631777
0.000535721
0.000406534
0.000225354
2.84584e-05
0.000819389
0.000766019
0.000702788
0.000626474
0.000530145
0.00040126
0.000221779
2.8171e-05
0.000797142
0.000744611
0.000681968
0.000605907
0.000509967
0.000382823
0.000208929
2.65297e-05
0.000758295
0.000707837
0.000646077
0.000570382
0.000475255
0.000351307
0.00018728
2.3771e-05
2.30537e-05
0.000162432
0.00023987
0.000286015
0.000316245
0.000335051
0.000344011
0.000343378
2.29522e-05
0.000161072
0.000237498
0.000283182
0.000313337
0.000332258
0.000341437
0.000341103
2.28483e-05
0.000159776
0.000235215
0.000280436
0.000310488
0.000329483
0.000338833
0.000338745
2.27566e-05
0.000158849
0.000233536
0.00027843
0.000308403
0.000327438
0.0003369
0.000336981
2.27288e-05
0.000158589
0.000233054
0.00027788
0.000307848
0.0003269
0.000336395
0.000336532
2.27589e-05
0.000158902
0.000233613
0.000278575
0.00030858
0.000327603
0.000337036
0.000337101
2.28032e-05
0.000159469
0.000234618
0.000279787
0.00030982
0.000328761
0.000338057
0.000337975
2.7138e-05
0.000185428
0.000272041
0.000324498
0.000358316
0.00037788
0.000385327
0.000381773
2.70014e-05
0.000183522
0.000268884
0.000320877
0.000354715
0.0003745
0.000382253
0.00037906
2.68628e-05
0.00018182
0.000265973
0.000317536
0.000351356
0.0003713
0.000379284
0.00037637
2.67564e-05
0.000180743
0.000264022
0.00031531
0.000349098
0.000369109
0.000377208
0.000374448
2.67415e-05
0.000180608
0.000263733
0.00031499
0.000348753
0.00036873
0.000376802
0.000374046
2.68085e-05
0.000181291
0.000264912
0.000316338
0.000350062
0.000369886
0.000377769
0.00037484
2.68993e-05
0.000182394
0.000266807
0.000318489
0.000352149
0.00037174
0.000379324
0.000376105
3.14337e-05
0.000211554
0.000308748
0.000370263
0.00040893
0.000428964
0.000433366
0.000424598
3.12378e-05
0.00020894
0.000304398
0.000365591
0.00040445
0.000424868
0.000429711
0.000421391
3.10482e-05
0.000206699
0.000300585
0.00036146
0.000400453
0.000421176
0.000426362
0.000418387
3.09267e-05
0.000205445
0.000298362
0.000359036
0.000398068
0.000418904
0.000424222
0.000416389
3.09406e-05
0.000205552
0.000298464
0.000359135
0.000398094
0.000418806
0.000423989
0.000416058
3.10661e-05
0.000206875
0.000300627
0.000361459
0.000400234
0.00042059
0.000425368
0.000417078
3.12213e-05
0.000208868
0.000303869
0.000364938
0.000403469
0.000423352
0.000427584
0.000418782
3.73758e-05
0.000235137
0.000350167
0.000424708
0.00046921
0.000488874
0.00048816
0.000471263
3.70691e-05
0.000231207
0.00034436
0.000418774
0.000463699
0.000483962
0.000483879
0.000467582
3.6752e-05
0.000227951
0.000339419
0.000413665
0.000458922
0.000479686
0.000480122
0.000464297
3.65678e-05
0.000226351
0.000336892
0.000411033
0.00045641
0.000477355
0.000477967
0.000462296
3.66225e-05
0.00022684
0.000337542
0.000411691
0.000456936
0.000477661
0.000478017
0.000462118
3.68713e-05
0.000229204
0.00034102
0.000415244
0.000460112
0.00048025
0.000479946
0.000463438
3.71871e-05
0.00023263
0.000346074
0.000420397
0.000464756
0.000484128
0.000482981
0.000465672
4.72266e-05
0.000258291
0.000403727
0.000494122
0.000542269
0.000557967
0.000548415
0.000519482
4.74758e-05
0.000252501
0.000396382
0.000486865
0.000535719
0.000552283
0.000543602
0.000515549
4.76487e-05
0.000247711
0.000390206
0.000480719
0.000530134
0.000547427
0.000539494
0.000512166
4.78313e-05
0.000245554
0.00038746
0.000477942
0.000527526
0.000545061
0.000537372
0.000510265
4.79769e-05
0.0002465
0.00038882
0.000479263
0.000528607
0.000545827
0.000537786
0.000510337
4.80101e-05
0.000250286
0.000393894
0.000484226
0.000532903
0.000549282
0.000540348
0.000512036
4.79362e-05
0.000255698
0.000401064
0.000491312
0.000539122
0.0005544
0.000544341
0.000514956
7.23542e-05
0.000328505
0.000508537
0.000601862
0.000638435
0.000637889
0.000610039
0.00056178
7.32642e-05
0.000323164
0.000500799
0.000593655
0.00063092
0.000631426
0.000604512
0.000557521
7.40835e-05
0.000318628
0.000493957
0.000586583
0.00062452
0.000625962
0.000600002
0.000554184
7.46261e-05
0.000317138
0.000491492
0.00058389
0.000621883
0.000623533
0.000597814
0.000552444
7.47161e-05
0.000319111
0.00049413
0.000586245
0.000623657
0.000624756
0.000598571
0.000552789
7.42052e-05
0.000323686
0.000500911
0.000592917
0.000629187
0.000629025
0.00060173
0.000554732
7.33497e-05
0.000329016
0.000509019
0.000601599
0.000636931
0.000635392
0.000606844
0.000558543
2.3708e-05
0.000170894
0.000254056
0.000302515
0.00033304
0.000350979
0.000358479
0.000356112
2.38238e-05
0.000172105
0.000256143
0.000304899
0.000335418
0.000353209
0.000360495
0.000357879
2.39151e-05
0.000173016
0.000257699
0.000306669
0.000337135
0.000354756
0.000361816
0.00035895
2.39972e-05
0.000173715
0.000258829
0.000308012
0.000338448
0.000355932
0.000362802
0.000359717
2.40669e-05
0.000174143
0.000259509
0.000308869
0.000339331
0.00035677
0.00036355
0.000360343
2.41049e-05
0.000174246
0.000259693
0.00030919
0.000339727
0.00035721
0.000364003
0.000360779
2.40956e-05
0.000173953
0.000259239
0.000308765
0.000339382
0.000356966
0.000363853
0.000360701
2.82e-05
0.000199499
0.00029488
0.000349997
0.000383175
0.000400527
0.00040517
0.000398725
2.83401e-05
0.000201162
0.000297556
0.000352972
0.000386071
0.000403209
0.000407584
0.000400838
2.84428e-05
0.000202347
0.000299439
0.00035506
0.000388062
0.000405003
0.000409136
0.000402115
2.85324e-05
0.000203179
0.000300728
0.000356549
0.000389511
0.000406329
0.000410286
0.000403045
2.86015e-05
0.000203576
0.00030135
0.000357353
0.000390383
0.000407216
0.000411133
0.000403798
2.86246e-05
0.000203477
0.000301246
0.000357399
0.000390582
0.000407552
0.000411563
0.000404265
2.85842e-05
0.000202799
0.000300228
0.000356402
0.000389759
0.000406958
0.000411183
0.000404052
3.31957e-05
0.000235065
0.000345529
0.000409105
0.0004451
0.000460619
0.0004601
0.000446694
3.33799e-05
0.000237203
0.000349041
0.000412748
0.000448534
0.000463774
0.000462965
0.000449238
3.35085e-05
0.000238502
0.000351285
0.000415015
0.000450632
0.000465696
0.000464703
0.000450745
3.36158e-05
0.000239276
0.000352622
0.000416421
0.000451994
0.000467016
0.00046595
0.000451843
3.36725e-05
0.000239421
0.000352912
0.000416885
0.000452627
0.000467804
0.00046684
0.00045274
3.36479e-05
0.00023882
0.000352168
0.000416332
0.000452377
0.000467874
0.000467175
0.000453239
3.35333e-05
0.000237371
0.000350112
0.000414335
0.000450751
0.000466707
0.000466432
0.000452827
4.06566e-05
0.000275264
0.000407523
0.000481717
0.000520203
0.000532157
0.000523721
0.000499821
4.09004e-05
0.000278375
0.000411934
0.000485964
0.000524089
0.000535734
0.000527049
0.000502877
4.09949e-05
0.000280016
0.000414199
0.000488002
0.000525935
0.000537525
0.000528841
0.000504605
4.10417e-05
0.000280715
0.000415211
0.000488905
0.00052683
0.000538549
0.000530021
0.000505832
4.10191e-05
0.00028023
0.000414767
0.000488664
0.000526902
0.00053899
0.000530809
0.000506844
4.09053e-05
0.000278674
0.000412918
0.000487158
0.000525924
0.000538573
0.000530904
0.000507327
4.06776e-05
0.000275864
0.000409161
0.000483731
0.000523176
0.000536575
0.000529609
0.00050661
4.82596e-05
0.000325865
0.000484309
0.000570324
0.0006091
0.000614141
0.000594229
0.000555847
4.8289e-05
0.000330939
0.000489435
0.000574729
0.000613047
0.000617883
0.000597873
0.00055936
4.81581e-05
0.000332817
0.000490769
0.00057556
0.000613888
0.000619044
0.000599417
0.000561178
4.80396e-05
0.000333102
0.000490545
0.000575154
0.000613715
0.000619352
0.000600266
0.000562425
4.793e-05
0.000331826
0.000489258
0.000574162
0.000613141
0.000619305
0.000600802
0.000563474
4.7786e-05
0.000329182
0.000486732
0.000572181
0.000611712
0.000618456
0.000600595
0.000563878
4.755e-05
0.000323908
0.000481163
0.00056749
0.000607964
0.000615608
0.000598642
0.000562746
6.74579e-05
0.000409183
0.000596586
0.000686105
0.000715985
0.000705088
0.000666268
0.000606661
6.68899e-05
0.000416985
0.000602202
0.00069034
0.000719722
0.000708777
0.000670001
0.000610386
6.60377e-05
0.000419388
0.000601596
0.000688727
0.000718468
0.000708556
0.000670765
0.000611926
6.51308e-05
0.000417705
0.000598111
0.000685369
0.000716129
0.000707487
0.000670842
0.000612886
6.51582e-05
0.000416286
0.000597045
0.000684552
0.000715529
0.000707257
0.000671194
0.000613915
6.55923e-05
0.000413559
0.000595976
0.000684126
0.000715106
0.000706764
0.000671063
0.000614364
6.58343e-05
0.000404494
0.000588753
0.000678612
0.000710793
0.000703319
0.000668592
0.000612888
2.40288e-05
0.000173179
0.000257933
0.000307283
0.000337918
0.000355628
0.000362684
0.000359709
2.39054e-05
0.000171893
0.000255708
0.000304652
0.000335222
0.000353052
0.000360323
0.000357612
2.3748e-05
0.000170226
0.000252814
0.000301206
0.000331677
0.000349649
0.000357189
0.000354815
2.3571e-05
0.000168413
0.000249737
0.000297561
0.000327963
0.000346137
0.000354023
0.000352074
2.33901e-05
0.000166666
0.000246865
0.000294178
0.000324536
0.000342921
0.000351163
0.000349647
2.32315e-05
0.000165124
0.000244397
0.000291299
0.00032162
0.000340174
0.000348703
0.000347537
2.31239e-05
0.00016376
0.000242162
0.000288701
0.000318985
0.000337673
0.000346428
0.000345533
2.84748e-05
0.00020143
0.000298022
0.000353979
0.000387461
0.000404934
0.000409475
0.00040265
2.82965e-05
0.000199371
0.000294628
0.000350135
0.000383682
0.000401447
0.000406363
0.000399933
2.80818e-05
0.000196796
0.000290372
0.000345288
0.00037889
0.000396989
0.000402348
0.000396396
2.7849e-05
0.000194048
0.000285866
0.000340164
0.00037384
0.000392329
0.000398223
0.000392877
2.76116e-05
0.000191477
0.000281741
0.000335473
0.00036921
0.000388063
0.000394487
0.000389757
2.73958e-05
0.000189269
0.000278263
0.00033153
0.000365293
0.000384421
0.000391261
0.000387021
2.72427e-05
0.000187333
0.000275169
0.000328033
0.000361819
0.000381168
0.000388327
0.000384452
3.33428e-05
0.000234935
0.000346402
0.000410467
0.000447253
0.000463738
0.000464001
0.000450883
3.30762e-05
0.000231643
0.000341145
0.000404891
0.000442037
0.000459105
0.000459976
0.000447428
3.27599e-05
0.000227737
0.000334755
0.000398114
0.000435651
0.000453366
0.000454929
0.000443042
3.24332e-05
0.000223687
0.000328102
0.000391035
0.000428937
0.000447303
0.000449618