/*--------------------------------*- C++ -*----------------------------------*\
| =========                 |                                                 |
| \\      /  F ield         | OpenFOAM: The Open Source CFD Toolbox           |
|  \\    /   O peration     | Version:  plus.master.MPPICInterFoam            |
|   \\  /    A nd           | Web:      www.OpenFOAM.com                      |
|    \\/     M anipulation  |                                                 |
\*---------------------------------------------------------------------------*/
FoamFile
{
    version     2.0;
    format      ascii;
    class       volScalarField;
    location    "9";
    object      rho;
}
// * * * * * * * * * * * * * * * * * * * * * * * * * * * * * * * * * * * * * //

dimensions      [1 -3 0 0 0 0 0];

internalField   nonuniform List<scalar> 
11822
(
939.58
902.074
904.503
973.476
999.662
1000
1000
544.318
494.003
498.634
651.208
929.397
1000
1000
418.497
417.377
417.071
432.261
773.527
1000
1000
422.164
582.991
591.764
440.085
734.978
999.83
1000
426.573
578.276
575.334
444.038
742.066
1000
1000
458.985
443.224
437.074
523.086
861.062
1000
1000
818.197
737.926
708.707
848.446
983.89
1000
1000
957.5
931.192
929.848
981.997
999.751
999.999
1000
618.993
549.845
552.947
714.991
942.89
1000
1000
461.569
417.255
417.053
495.608
816.574
1000
1000
425.225
608.81
607.363
479.753
771.555
1000.01
1000
442.444
528.505
457.934
459.494
775.649
1000.01
1000
487.775
438.669
436.432
561.269
884.731
1000
1000
845.046
762.13
735.884
866.745
986.51
1000
1000
972.554
949.748
942.166
987.267
999.928
999.999
1000
687.487
624.307
600.904
761.077
949.805
1000
1000
586.696
419.081
416.989
553.99
837.019
1000
1000
585.531
608.355
584.525
477.962
795.403
1000
1000
524.203
419.292
417.858
477.066
796.238
1000
1000
555.47
448.098
436.194
616.472
900.577
1000
1000
884.026
807.937
779.241
887.856
988.973
1000
1000
975.566
948.926
940.459
987.049
999.99
1000
1000
680.94
614.616
583.982
756.65
948.49
1000
1000
555.805
416.891
416.952
520.299
831.258
1000
1000
564.728
481.724
416.99
426.422
784.892
1000.01
1000
502.144
417.834
417.285
453.331
788.455
1000.01
1000
560.082
442.526
429.497
614.22
899.386
1000
1000
897.518
817.284
786.073
892.387
989.793
1000
1000
975.826
945.963
938.631
986.086
999.97
1000
1000
667.424
579.704
569.579
751.603
946.248
1000
1000
430.385
416.82
416.921
449.259
826.373
1000
1000
422.79
416.921
417.003
417.922
775.564
1000.01
1000
428.254
417.261
417.511
417.06
778.472
1000.01
1000
548.734
425.393
423.176
607.128
898.177
1000
1000
903.713
817.266
790.115
897.461
990.604
1000
1000
978.722
951.579
946.854
987.13
999.971
1000
1000
700.074
603.393
630.785
782.881
951.193
1000
1000
416.897
416.765
417.994
479.101
848.592
999.998
1000
417.427
416.984
417.441
480.077
823.447
999.997
1000
418.479
573.988
577.618
435.199
802.765
999.997
1000
576.737
437.481
439.892
645.805
910.588
999.999
1000
925.98
846.221
833.402
922.343
993.126
1000
1000
1000
1000
1000
1000
999.401
999.538
999.933
997.381
1000
1000
1000
1000
1000
1000
1000
999.973
1000
1000
1000
1000
1000
1000
1000
1000
1000
1000
1000
1000
1000
1000
1000
1000
1000
1000
1000
1000
1000
1000
1000
1000
1000
1000
1000
1000
1000
1000
1000
1000
1000
1000
1000
1000
1000
999.993
999.999
1000
1000
1000
1000
1000
999.429
999.822
999.891
998.643
1000
1000
1000
1000
1000
1000
1000
999.995
1000
1000
1000
1000
1000
1000
1000
1000
1000
1000
1000
1000
1000
1000
1000
1000
1000
1000
1000
1000
1000
1000
1000
1000
1000
1000
1000
1000
1000
1000
1000
1000
1000
1000
1000
999.999
1000
1000
1000
1000
1000
1000
1000
999.999
999.59
999.95
999.767
999.526
1000
1000
1000
1000
1000
1000
1000
1000
1000
1000
1000
1000
1000
1000
1000
1000
1000
1000
1000
1000
1000
1000
1000
1000
1000
1000
1000
1000
1000
1000
1000
1000
1000
1000
1000
1000
1000
1000
1000
1000
1000
1000
1000
999.999
1000
1000
1000
1000
1000
1000
1000
999.996
999.846
999.995
999.68
999.538
1000
1000
1000
1000
1000
1000
1000
1000
1000
1000
1000
1000
1000
1000
1000
1000
1000
1000
1000
1000
1000
1000
1000
1000
1000
1000
1000
1000
1000
1000
1000
1000
1000
1000
1000
1000
1000
1000
1000
1000
1000
1000
1000
1000
999.993
1000
1000
1000
1000
1000
1000
999.971
999.995
999.639
999.691
999.494
1000
1000
1000
1000
1000
1000
1000
1000
1000
1000
1000
1000
1000
1000
1000
1000
1000
1000
1000
1000
1000
1000
1000
1000
1000
1000
1000
1000
1000
1000
1000
1000
1000
1000
1000
1000
1000
999.998
999.998
1000
1000
1000
1000
1000
999.974
1000
999.997
999.997
1000
1000
1000
999.943
1000
998.952
999.612
999.552
1000
1000
1000
1000
1000
1000
1000
1000
1000
1000
1000
1000
1000
1000
1000
1000
1000
1000
1000
1000
1000
1000
1000
1000
1000
1000
1000
1000
1000
1000
1000
1000
1000
1000
1000
1000
1000
999.998
999.998
1000
1000
1000
1000
1000
999.976
999.969
999.98
999.997
988.687
1000
1000
1000
1000
1000
1000
1000
779.664
998.115
1000
1000
999.997
999.999
999.998
999.999
522.455
921.118
1000
1000
999.976
999.987
999.915
999.988
468.728
869.429
1000
1000
999.998
1000
999.915
999.986
560.833
939.374
1000
1000
1000
1000
999.933
999.995
864.49
998.887
1000
1000
1000
1000
999.995
999.999
998.691
999.969
1000
1000
1000
1000
1000
1000
991.995
1000
1000
1000
1000
1000
1000
1000
816.287
999.297
1000
999.999
999.998
1000
999.999
1000
572.061
938.756
1000
999.995
999.976
999.993
999.949
999.996
511.42
896.153
1000
1000
999.998
1000
999.915
999.996
624.363
955.445
1000
1000
1000
1000
999.987
999.999
892.922
998.94
1000
1000
1000
1000
999.998
999.999
999.043
999.967
1000
1000
1000
1000
1000
999.999
996.613
1000
1000
1000
1000
1000
1000
1000
870.027
999.989
1000
999.999
999.999
1000
999.999
1000
669.835
964.581
1000
999.988
999.981
999.999
999.997
1000
615.082
936.715
1000
1000
999.999
1000
999.94
999.998
706.276
976.12
1000
1000
1000
1000
1000
999.998
922.468
999.281
1000
1000
1000
1000
999.999
999.999
999.586
999.971
1000
1000
1000
1000
1000
999.999
998.549
1000
1000
1000
1000
1000
1000
1000
886.92
1000
1000
999.999
1000
1000
999.999
1000
684.818
976.067
1000
999.992
999.997
1000
1000
1000
631.08
954.489
1000
1000
999.999
1000
999.998
999.98
708.987
985.411
1000
1000
1000
1000
1000
999.987
924.308
999.864
1000
1000
1000
1000
999.999
999.999
999.769
999.981
1000
1000
1000
1000
1000
999.999
999.011
1000
1000
1000
1000
1000
1000
1000
892.17
1000
1000
1000
1000
1000
999.999
1000
674.148
980.188
1000
1000
1000
999.999
999.998
1000
617.246
960.06
1000
1000
1000
1000
999.996
999.977
700.776
989.356
1000
1000
1000
1000
1000
999.979
923.241
1000
1000
1000
1000
1000
999.999
999.999
999.738
999.989
1000
1000
1000
1000
1000
1000
999.641
1000
1000
1000
1000
1000
1000
1000
913.218
1000
1000
1000
1000
1000
999.999
1000
700.235
986.632
1000
1000
1000
999.991
999.992
1000
648.479
970.736
1000
1000
1000
999.999
999.946
999.984
732.413
995.391
1000
1000
1000
1000
999.973
999.985
934.068
1000
1000
1000
1000
1000
999.999
999.999
999.76
999.994
1000
1000
1000
1000
1000
1000
1000
1000
1000
1000
999.957
1000
999.942
999.999
1000
1000
1000
999.999
1000
999.354
999.98
999.968
1000
1000
1000
1000
1000
999.224
999.971
999.165
1000
1000
999.992
999.927
999.934
999.99
999.932
996.916
1000
1000
999.989
999.685
999.942
999.248
999.631
996.848
1000
1000
999.781
999.811
999.813
995.933
999.916
996.83
1000
1000
999.954
1000
996.305
995.898
999.932
996.868
1000
1000
1000
1000
999.997
999.99
999.939
999.998
1000
1000
1000
1000
999.999
999.971
999.996
999.999
1000
1000
1000
1000
999.996
999.954
999.996
999.984
1000
1000
999.995
999.944
999.925
999.997
999.904
996.884
1000
1000
999.912
999.973
999.973
999.845
999.801
996.872
1000
1000
999.781
999.93
999.006
995.937
999.649
996.804
1000
1000
999.972
1000
996.301
996.583
999.126
996.853
1000
1000
1000
1000
1000
999.976
999.946
999.999
1000
1000
1000
1000
999.991
999.999
999.999
999.999
1000
1000
1000
1000
999.91
1000
999.263
999.999
1000
1000
999.995
999.98
999.933
1000
998.786
998.221
1000
1000
999.857
999.972
999.973
999.834
999.833
998.604
1000
1000
999.864
999.999
996.86
995.941
997.281
996.803
1000
1000
999.993
1000
996.331
998.708
996.884
996.803
1000
1000
1000
1000
1000
999.974
999.988
999.999
1000
1000
1000
1000
999.972
999.998
999.951
999.999
1000
1000
1000
999.999
999.896
1000
997.401
999.177
1000
1000
999.994
999.997
999.983
1000
997.424
999.409
1000
999.996
999.857
999.971
999.487
999.731
999.831
999.766
1000
1000
999.984
999.977
996.531
996.461
996.733
998.258
1000
1000
1000
999.988
998.288
999.026
996.759
996.775
1000
1000
1000
1000
1000
999.974
1000
999.999
1000
1000
1000
1000
999.972
1000
998.296
999.244
1000
1000
1000
999.998
999.896
999.987
997.355
997.345
1000
1000
999.991
999.998
1000
1000
998.079
999.21
1000
999.994
999.857
999.999
997.507
999.427
997.938
999.732
1000
1000
999.997
999.998
996.547
999.261
996.747
999.292
1000
1000
1000
999.931
999.776
998.771
997.08
996.777
1000
1000
1000
1000
1000
999.996
1000
999.84
1000
1000
1000
1000
999.983
1000
997.656
997.345
1000
1000
1000
1000
999.896
1000
997.357
997.345
1000
1000
999.988
999.998
1000
999.992
999.603
999.104
1000
999.997
999.902
999.999
998.125
999.436
996.812
999.6
1000
1000
1000
1000
998.668
999.467
996.815
997.456
1000
1000
1000
999.922
1000
998.809
997.987
996.781
1000
1000
1000
999.999
999.986
999.714
999.834
999.162
999.999
1000
1000
1000
999.941
999.645
999.592
997.655
1000
1000
1000
1000
999.969
999.919
999.466
999.695
1000
1000
1000
1000
1000
999.946
999.475
1000
997.868
1000
1000
1000
999.998
1000
1000
1000
1000.01
1000
1000
1000
1000
1000
999.997
1000
1000
1000
1000
1000
1000
1000
1000
1000
1000
1000
1000
999.998
999.989
999.792
999.801
999.748
1000
1000
1000
1000
999.939
999.566
999.573
997.655
1000
1000
1000
1000
999.961
999.917
999.557
998.097
1000
1000
1000
1000
1000
999.942
999.475
1000
998.998
1000
1000
1000
999.999
999.996
1000
1000
1000.01
1000
1000
1000
1000
1000
999.997
1000
1000
1000
1000
1000
1000
1000
1000
1000
1000
1000
1000
999.997
999.997
999.867
999.805
999.956
1000
1000
1000
1000
999.941
999.486
999.487
997.784
1000
1000
1000
1000
999.96
999.856
999.675
997.689
1000
1000
1000
1000
1000
999.941
999.736
1000
999.978
1000
1000
1000
1000
999.936
1000
1000
1000
1000
1000
1000
1000
1000
999.998
1000
1000
1000
1000
1000
1000
1000
1000
1000
1000
1000
1000
999.996
999.991
999.922
999.873
1000
1000
1000
1000
1000
999.946
999.486
999.493
999.066
1000
1000
1000
1000
999.959
999.63
999.688
997.689
1000
1000
1000
1000
1000
999.96
999.935
999.053
1000
1000
1000
1000
999.999
999.926
999.999
1000
1000
1000
1000
1000
1000
1000
999.999
999.999
1000
1000
1000
1000
1000
1000
1000
1000
999.999
1000
1000
999.995
999.873
999.962
999.976
999.998
999.998
1000
1000
1000
999.942
999.543
999.855
999.797
1000
1000
1000
1000
999.954
999.576
999.685
997.689
1000
1000
1000
1000
999.986
999.974
999.97
997.923
1000.01
1000
1000
1000
999.999
999.926
999.996
1000
1000
1000
1000
1000
1000
1000
1000
999.999
1000
1000
1000
1000
1000
1000
1000
1000
999.999
1000
1000
999.995
999.865
999.894
999.956
999.989
999.994
1000
1000
1000
999.918
999.709
999.866
999.928
1000
1000
1000
1000
999.972
999.597
999.656
998.168
1000
1000
1000
1000
999.975
999.87
999.964
998.279
999.998
1000
1000
1000
999.994
999.929
999.994
1000
1000
1000
1000
1000
1000
1000
1000
999.999
1000
1000
1000
1000
1000
1000
1000
1000
1000
1000
1000
1000
1000
1000
1000
1000
1000
1000
1000
1000
1000
1000
1000
1000
1000
1000
1000
1000
1000
1000
1000
1000
1000
1000
1000
1000
1000
1000
1000
1000
1000
1000
1000
1000
1000
1000
1000
1000
1000
1000
1000
1000
1000
1000
1000
1000
1000
1000
1000
1000
1000
1000
1000
1000
1000
1000
1000
1000
1000
1000
1000
1000
1000
1000
1000
1000
1000
1000
1000
1000
1000
1000
1000
1000
1000
1000
1000
1000
1000
1000
1000
1000
1000
1000
1000
1000
1000
1000
1000
1000
1000
1000
1000
1000
1000
1000
1000
1000
1000
1000
1000
1000
1000
1000
1000
1000
1000
1000
1000
1000
1000
999.999
999.999
1000
1000
1000
1000
1000
1000
1000
1000
1000
1000
1000
1000
1000
1000
1000
1000
1000
1000
1000
1000
1000
1000
1000
1000
1000
1000
1000
1000
1000
1000
1000
1000
1000
1000
1000
1000
1000
1000
1000
1000
1000
1000
1000
1000
1000
1000
1000
1000
1000
1000
1000
1000
1000
1000
999.995
999.998
1000
1000
1000
1000
1000
1000
1000
1000
1000
1000
1000
1000
1000
1000
1000
1000
1000
1000
1000
1000
1000
1000
1000
1000
1000
1000
1000
1000
1000
1000
1000
1000
1000
1000
1000
1000
1000
1000
1000
1000
1000
1000
1000
1000
1000
1000
1000
1000
1000
1000
1000
1000
1000
999.973
999.993
1000
1000
1000
1000
999.999
999.999
1000
1000
1000
1000
1000
1000
999.999
999.999
1000
1000
1000
1000
1000
1000
999.999
999.999
1000
1000
1000
1000
1000
1000
999.999
999.999
1000
1000
1000
1000
1000
1000
999.999
999.999
1000
1000
1000
1000
1000
1000
999.999
999.999
1000
1000
1000
1000
1000
1000
999.999
999.999
999.996
999.994
999.999
999.999
999.995
999.997
979.933
931.608
1000
1000
1000
999.999
999.995
999.997
978.798
930.774
1000
1000
1000
999.998
999.995
999.997
979.106
931.526
1000
1000
1000
999.998
999.995
999.997
978.352
931.406
1000
1000
1000
999.998
999.995
999.997
979.039
931.934
1000
1000
1000
999.998
999.995
999.997
979.576
929.369
1000
1000
1000
999.999
999.995
999.997
980.627
931.897
1000
1000
1000
1000
1000
1000
1000
1000
1000
1000
1000
1000
1000
1000
1000
1000
1000
1000
1000
1000
1000
1000
1000
1000
1000
1000
1000
1000
1000
1000
1000
1000
1000
1000
1000
1000
1000
1000
1000
1000
1000
1000
1000
1000
1000
1000
1000
1000
1000
1000
1000
1000
1000
1000
1000
1000
1000
1000
1000
1000
1000
1000
1000
1000
1000
1000
1000
1000
1000
1000
1000
1000
1000
1000
1000
1000
1000
1000
1000
1000
1000
1000
1000
1000
1000
1000
1000
1000
1000
1000
1000
1000
1000
1000
1000
1000
1000
1000
1000
1000
1000
1000
1000
1000
1000
1000
1000
1000
1000
1000
1000
1000
1000
1000
1000
1000
1000
1000
1000
1000
1000
1000
1000
1000
1000
1000
1000
1000
1000
1000
1000
1000
1000
1000
1000
1000
1000
1000
1000
1000
1000
1000
1000
1000
1000
1000
1000
1000
1000
1000
1000
1000
1000
1000
1000
1000
1000
1000
1000
1000
1000
1000
1000
1000
1000
1000
1000
1000
1000
1000
1000
1000
1000
1000
1000
1000
1000
1000
1000
1000
1000
1000
1000
1000
1000
1000
1000
1000
1000
1000
1000
1000
1000
1000
1000
1000
1000
1000
1000
1000
1000
1000
1000
1000
1000
1000
1000
1000
1000
1000
1000
1000
1000
1000
1000
1000
1000
1000
1000
1000
1000
1000
1000
1000
1000
1000
1000
1000
1000
1000
999.999
999.999
1000
1000
1000
1000
1000
1000
999.999
999.999
1000
1000
1000
1000
1000
1000
999.999
999.999
1000
1000
1000
1000
1000
1000
999.999
999.999
1000
1000
1000
1000
1000
1000
999.999
999.999
1000
1000
1000
1000
1000
1000
999.999
999.999
1000
1000
1000
1000
1000
1000
1000
999.999
1000
1000
1000
1000
999.996
999.996
985.341
943.661
1000
1000
1000
1000
999.997
999.996
985.218
943.044
1000
1000
1000
1000
999.998
999.996
985.917
941.81
999.993
1000
1000
1000
999.998
999.996
986.435
940.05
999.995
1000
1000
1000
999.998
999.996
986.892
941.354
1000
1000
1000
1000
999.998
999.996
987.643
943.332
1000
1000
1000
1000
999.998
999.996
988.249
945.392
1000
1000
1000
1000
1000
1000
1000
1000
1000
1000
1000
999.982
999.996
1000
1000
1000
1000
1000
1000
999.969
999.994
1000
1000
1000
1000
1000
999.999
999.999
1000
1000
1000
1000
1000
1000
999.996
999.996
1000
1000
1000
1000
1000
1000
999.998
999.975
999.993
1000
1000
1000
1000
1000
1000
999.992
999.998
1000
1000
1000
1000
1000
1000
1000
1000
1000
1000
1000
1000
1000
999.942
999.948
999.996
1000
1000
1000
1000
1000
999.949
999.941
999.992
1000
1000
1000
1000
1000
999.994
999.998
1000
1000
1000
1000
1000
999.993
999.985
999.994
1000
1000
1000
1000
1000
999.985
999.848
999.891
999.993
1000
1000
1000
1000
1000
999.953
999.963
999.997
1000
1000
1000
1000
1000
1000
1000
1000
1000
1000
1000
1000
999.927
999.723
999.962
1000
1000
1000
1000
1000
999.899
999.678
999.941
1000
1000
1000
1000
1000
999.992
999.992
999.998
1000
1000
1000
1000
999.999
999.978
999.984
999.996
1000
1000
1000
1000
1000
999.828
999.75
999.891
1000
1000
1000
1000
1000
999.923
999.846
999.959
1000
1000
1000
1000
1000
1000
1000
1000
1000
1000
1000
1000
999.948
999.423
999.692
999.995
1000
1000
1000
1000
999.96
999.392
999.58
999.987
1000
1000
1000
1000
1000
999.959
999.991
1000
1000
1000
1000
1000
1000
999.977
999.995
999.999
1000
1000
1000
1000
999.971
999.764
999.777
999.976
1000
1000
1000
1000
999.995
999.783
999.855
999.99
1000
1000
1000
1000
999.99
999.999
1000
1000
1000
1000
1000
999.999
999.946
999.393
999.839
1000
1000
1000
1000
999.999
999.857
999.392
999.785
999.999
1000
1000
999.999
999.999
999.907
999.936
999.996
1000
1000
1000
999.999
999.999
999.949
999.982
999.998
999.999
1000
1000
999.999
999.999
999.893
999.834
999.956
999.998
1000
1000
999.999
999.999
999.84
999.884
999.952
999.998
1000
1000
999.999
999.999
999.871
999.999
1000
1000
999.997
999.996
988.246
944.846
998.523
999.577
999.983
999.999
999.996
999.996
988.26
945.095
998.412
999.466
999.972
999.998
999.995
999.997
987.034
949.408
999.533
999.963
999.996
999.999
999.995
999.997
985.289
946.76
999.826
999.982
999.998
999.998
999.995
999.997
983.008
939.622
999.565
999.972
999.973
999.997
999.995
999.997
980.594
934.743
999.569
999.976
999.972
999.997
999.995
999.997
979.338
930.429
1000
1000
1000
1000
1000
1000
1000
1000
1000
1000
1000
1000
1000
1000
1000
1000
1000
1000
1000
1000
1000
1000
1000
1000
1000
1000
1000
1000
1000
1000
1000
1000
1000
1000
1000
1000
1000
1000
1000
1000
1000
1000
1000
1000
1000
1000
1000
1000
1000
1000
1000
1000
1000
1000
1000
1000
1000
1000
1000
1000
1000
1000
1000
1000
1000
1000
1000
1000
1000
1000
1000
1000
1000
1000
1000
1000
1000
1000
1000
1000
1000
1000
1000
1000
1000
1000
1000
1000
1000
1000
1000
1000
1000
1000
1000
1000
1000
1000
1000
1000
1000
1000
1000
1000
1000
1000
1000
1000
1000
1000
1000
1000
1000
1000
1000
1000
1000
1000
1000
1000
1000
1000
1000
1000
1000
1000
1000
1000
1000
1000
1000
1000
1000
1000
1000
1000
1000
1000
1000
1000
1000
1000
1000
1000
1000
1000
1000
1000
1000
1000
1000
1000
1000
1000
1000
1000
1000
1000
1000
1000
1000
1000
1000
1000
1000
1000
1000
1000
1000
1000
1000
1000
1000
1000
1000
1000
1000
1000
1000
1000
1000
1000
1000
1000
1000
1000
1000
1000
1000
1000
1000
1000
1000
1000
1000
1000
1000
1000
1000
1000
1000
1000
1000
1000
1000
1000
1000
1000
1000
1000
1000
1000
1000
1000
1000
1000
1000
1000
1000
1000
1000
1000
1000
1000
1000
1000
1000
1000
1000
1000
999.999
999.999
1000
1000
1000
1000
1000
1000
999.999
999.999
1000
1000
1000
1000
1000
1000
999.999
999.999
1000
1000
1000
1000
1000
1000
999.999
999.999
1000
1000
1000
1000
1000
1000
999.999
999.999
1000
1000
1000
1000
1000
1000
999.999
999.999
1000
1000
1000
1000
1000
1000
999.999
999.999
1000
1000
1000
999.999
999.995
999.997
980.895
934.899
1000
1000
1000
999.999
999.996
999.997
981.379
933.151
1000
1000
1000
1000
999.995
999.997
982.206
935.845
1000
1000
1000
1000
999.995
999.997
983.225
938.059
1000
1000
1000
1000
999.995
999.997
984.148
939.686
1000
1000
1000
1000
999.995
999.997
985.362
939.294
1000
1000
1000
1000
999.996
999.996
985.983
943.096
1000
1000
1000
1000
1000
1000
1000
1000
1000
1000
1000
1000
1000
1000
1000
1000
1000
1000
1000
1000
1000
1000
1000
1000
1000
1000
1000
1000
1000
1000
1000
1000
1000
1000
1000
1000
1000
1000
1000
1000
1000
1000
999.998
1000
1000
1000
1000
1000
1000
1000
1000
1000
1000
1000
1000
1000
1000
1000
1000
1000
1000
1000
1000
1000
1000
1000
1000
1000
1000
1000
1000
1000
1000
1000
999.745
1000
1000
1000
1000
1000
1000
1000
999.878
1000
1000
1000
1000
1000
1000
1000
999.944
1000
1000
1000
1000
1000
1000
1000
999.825
1000
1000
1000
1000
1000
1000
1000
999.795
1000
1000
1000
1000
1000
1000
1000
999.648
1000
1000
1000
1000
1000
1000
1000
999.999
1000
1000
1000
1000
1000
1000
996.216
999.219
1000
1000
1000
1000
1000
1000
997.255
999.698
1000
1000
1000
1000
1000
1000
997.904
999.836
1000
1000
1000
1000
1000
1000
995.843
999.626
1000
1000
1000
1000
1000
1000
996.38
999.45
1000
1000
1000
1000
1000
1000
996.906
999.114
1000
1000
1000
1000
1000
997.932
1000
1000
1000
1000
1000
999.724
1000
996.263
988.383
999.525
1000
1000
1000
999.58
999.994
993.976
989.209
999.828
1000
1000
1000
999.571
999.914
990.476
991.864
999.836
1000
1000
1000
999.496
999.894
988.945
988.551
999.828
1000
1000
1000
999.386
999.315
988.152
984.508
999.816
1000
1000
1000
998.767
998.968
989.194
981.262
999.389
996.142
992.302
983.012
975.665
975.487
967.364
994.821
993.172
998.517
996.48
978.299
969.398
973.915
962.221
991.61
994.549
999.77
998.283
976.831
971.951
967.945
955.888
991.831
991.845
1000
998.618
976.805
972.002
965.05
952.851
991.864
991.736
1000
998.986
979.825
969.802
964.52
955.092
991.829
990.41
999.937
1000
985.892
968.041
972.773
961.984
987.209
991.952
998.837
1000
985.643
973.638
971.68
956.762
981.552
995.685
876.672
852.205
880.096
927.089
935.462
953.293
928.549
919.745
890.621
848.73
887.892
952.615
927.842
943.156
954.674
918.616
901.557
857.944
897.289
957.706
930.535
943.183
958.561
919.183
906.422
857.463
901.467
956.484
933.03
948.307
957.939
918.566
912.503
871.271
893.626
952.844
936.743
953.947
961.136
920.379
905.886
907.792
870.733
956.127
967.074
958.529
948.658
927.073
898.411
904.141
881.395
967.891
964.08
955.434
959.54
926.601
1000
1000
1000
1000
1000
1000
1000
1000
1000
1000
1000
1000
1000
1000
1000
1000
1000
1000
1000
1000
1000
1000
1000
1000
1000
1000
1000
1000
1000
1000
1000
1000
1000
1000
1000
1000
1000
1000
1000
1000
1000
1000
1000
1000
1000
1000
1000
1000
1000
1000
1000
1000
1000
1000
1000
1000
1000
1000
1000
1000
1000
1000
1000
1000
1000
1000
1000
1000
1000
1000
1000
1000
1000
1000
1000
1000
1000
1000
1000
1000
1000
1000
1000
1000
1000
1000
1000
1000
1000
1000
1000
1000
1000
1000
1000
1000
1000
1000
1000
1000
1000
1000
1000
1000
1000
1000
1000
1000
1000
1000
1000
1000
1000
1000
1000
1000
1000
1000
1000
1000
1000
1000
1000
1000
1000
1000
1000
1000
1000
1000
1000
1000
1000
1000
1000
1000
1000
1000
1000
1000
1000
1000
1000
1000
1000
1000
1000
1000
1000
1000
1000
1000
1000
1000
1000
1000
1000
1000
1000
1000
1000
1000
1000
1000
1000
1000
1000
1000
1000
1000
1000
1000
1000
998.389
1000
1000
1000
1000
1000
1000
1000
999.666
1000
1000
1000
1000
1000
1000
1000
1000
1000
1000
1000
1000
1000
1000
1000
1000
1000
1000
1000
1000
1000
1000
1000
1000
1000
1000
1000
1000
1000
1000
1000
1000
1000
1000
1000
1000
1000
1000
1000
1000
1000
1000
997.158
996.678
992.097
975.369
977.231
973.237
993.037
997.08
997.716
995.82
993.452
979.353
978.12
977.161
994.559
997.726
998.144
997.277
993.214
981.065
987.566
981.122
993.181
998.848
998.839
997.782
990.976
987.037
990.543
979.422
993.851
999.263
999.266
997.403
988.987
990.392
991.842
978.217
993.709
999.476
999.321
996.635
986.454
991.819
992.638
976.778
992.772
999.497
999.219
995.821
984.12
992.679
992.634
975.508
992.657
999.426
883.25
898.85
873.46
916.002
953.133
956.75
923.601
914.703
886.03
894.962
882.912
906.156
946.596
951.703
925.153
916.985
886.137
899.525
879.597
923.751
946.395
946.189
924.885
919.617
886.532
894.007
883.26
931.34
939.572
946.586
928.202
922.196
887.384
884.987
887.521
934.987
936.522
947.854
930.817
924.048
888.01
874.552
888.621
936.538
934.734
948.825
933.178
924.929
889.232
865.874
890.329
937.197
930.967
949.822
934.224
925.098
1000
1000
1000
1000
1000
1000
1000
1000
1000
1000
1000
1000
1000
1000
1000
1000
1000
1000
1000
1000
1000
1000
1000
1000
1000
1000
1000
1000
1000
1000
1000
1000
1000
1000
1000
1000
1000
1000
1000
1000
1000
1000
1000
1000
1000
1000
1000
1000
1000
1000
1000
1000
1000
1000
1000
1000
1000
1000
1000
1000
1000
1000
1000
1000
1000
1000
1000
1000
1000
1000
1000
1000
1000
1000
1000
1000
1000
1000
1000
1000
1000
1000
1000
1000
1000
1000
1000
1000
1000
1000
1000
1000
1000
1000
1000
1000
1000
1000
1000
1000
1000
1000
1000
1000
1000
1000
1000
1000
1000
1000
1000
1000
1000
1000
1000
1000
1000
1000
1000
1000
1000
1000
1000
1000
1000
1000
1000
1000
1000
1000
1000
1000
1000
1000
1000
1000
1000
1000
1000
1000
1000
1000
1000
1000
1000
1000
1000
1000
1000
1000
1000
1000
1000
1000
1000
1000
1000
1000
1000
1000
1000
1000
1000
1000
1000
1000
1000
1000
1000
1000
1000
1000
1000
999.584
1000
1000
1000
1000
1000
1000
1000
999.399
1000
1000
1000
1000
1000
1000
1000
999.736
1000
1000
1000
1000
1000
1000
1000
998.461
1000
1000
1000
1000
1000
1000
1000
999.452
1000
1000
1000
1000
1000
1000
1000
1000
1000
1000
1000
1000
1000
1000
1000
1000
1000
1000
998.887
994.616
982.663
991.818
991.641
973.082
991.629
999.09
998.052
992.534
984.046
987.25
990.438
972.327
990.53
998.582
994.43
984.754
988.574
978.019
983.163
974.644
989.66
997.822
993.23
987.971
988.448
980.354
981.938
970.138
992.118
997.009
995.945
992.312
986.469
977.819
979.131
972.133
998.254
996.06
997.083
994.035
988.27
972.918
979.326
976.028
995.109
996.282
996.87
992.257
987.665
971.589
976.083
976.532
998.284
995.899
887.495
861.191
889.374
934.137
932.869
950.569
934.009
924.657
882.078
861.254
883.1
925.076
946.326
949.064
930.518
925.095
867.558
867.651
881.481
909.038
965.336
948.741
927.753
923.396
867.319
873.749
873.925
920.883
957.777
950.14
926.156
922.903
874.288
860.232
874.261
924.541
931.17
947.299
926.477
920.402
879.665
853.364
875.339
929.246
928.595
936.323
933.698
919.852
876.82
851.463
872.541
928.257
925.952
936.552
929.951
919.129
1000
1000
1000
1000
1000
1000
1000
1000
1000
1000
999.974
1000
1000
1000
1000
1000
1000
1000
1000
1000
1000
1000
1000
1000
1000
1000
1000
1000
1000
1000
1000
1000
1000
1000
999.997
1000
1000
1000
1000
1000
1000
1000
1000
1000
1000
1000
1000
1000
1000
1000
1000
1000
1000
1000
1000
1000
1000
1000
1000
1000
1000
1000
1000
1000
1000
1000
999.262
1000
1000
1000
1000
1000
1000
1000
999.873
1000
1000
1000
1000
1000
1000
1000
999.951
1000
1000
1000
1000
1000
1000
1000
999.967
1000
1000
1000
1000
1000
1000
1000
999.998
1000
1000
1000
1000
1000
1000
1000
1000
1000
1000
1000
1000
1000
1000
1000
1000
1000
1000
1000
1000
1000
1000
993.16
998.612
1000
1000
1000
1000
1000
1000
998.341
999.507
1000
1000
1000
1000
1000
1000
999.856
999.896
1000
1000
1000
1000
1000
1000
999.973
999.953
1000
1000
1000
1000
1000
1000
1000
999.996
1000
1000
1000
1000
1000
1000
1000
1000
1000
1000
1000
1000
1000
1000
1000
1000
1000
1000
1000
998.294
999.425
987.661
981.261
999.044
1000
1000
1000
999.28
999.319
991.028
983.762
999.669
1000
1000
1000
999.805
998.817
993.482
989.437
999.986
1000
1000
1000
999.941
998.597
993.709
991.929
999.993
1000
1000
1000
999.754
998.144
993.924
996.611
999.998
1000
1000
1000
999.827
997.906
995.258
998.249
1000
1000
1000
1000
1000
999.318
996.712
999.893
1000
999.065
1000
989.007
969.327
974.266
957.773
984.701
996.763
1000
1000
984.76
972.938
975.185
951.322
981.969
995.269
1000
999.97
981.897
976.291
974.968
948.817
981.727
994.523
999.765
999.093
981.604
977.181
976.482
948.744
982.873
994.05
999.069
998.413
980.308
975.063
982.243
949.369
980.599
995.641
998.567
998.499
981.649
978.978
986.434
945.771
978.965
997.886
997.594
998.06
989.602
976.553
983.42
960.6
985.785
997.58
900.179
910.921
879.709
964.096
962.877
960.737
960.953
928.049
907.57
906.625
878.167
964.703
965.03
956.452
958.788
925.458
905.89
894.556
876.764
963.545
969.861
947.87
951.02
923.917
901.9
892.348
873.169
960.997
973.406
946.086
945.588
921.402
897.233
887.66
871.095
966.336
982.014
943.492
937.324
918.332
892.564
889.245
871.282
971.456
986.415
936.376
933.678
918.166
885.318
903.617
862.253
938.901
975.144
950.087
924.851
913.227
990.789
975.088
969.199
994.754
1000
1000
1000
830.009
732.367
779.765
861.96
968.059
1000
1000
545.441
416.576
596.391
669.171
902.627
999.998
1000
442.503
417.232
498.326
817.041
910.6
999.998
1000
516.175
643.115
642.396
637.113
860.422
999.997
1000
697.754
555.658
556.057
757.886
933.491
999.999
1000
959.364
909.017
905.186
956.179
998.522
1000
1000
960.312
967.256
959.699
975.851
998.172
1000
1000
870.748
845.721
800.24
852.029
923.558
999.994
1000
774.395
485.19
610.379
790.527
881.32
994.487
999.999
675.582
574.869
706.971
823.368
864.569
989.448
999.999
661.137
466.356
462.197
717.944
838.031
986.308
999.998
748.353
618.56
607.151
775.157
880.247
995.257
999.999
935.017
896.748
886.147
919.06
977.221
999.999
1000
546.303
634.228
617.759
576.906
675.47
927.843
1000.01
431.157
615.296
557.633
429.312
467.439
748.04
997.042
707.505
558.817
388.194
546.847
450.42
659.549
973.896
727.861
730.199
728.872
443.93
393.04
655.044
974.718
591.194
363.919
364.285
533.727
435.784
660.828
977.489
474.5
461.796
458.028
423.228
461.346
750.263
998.777
557.44
593.206
561.338
535.956
652.923
928.295
1000.01
143.529
208.097
189.805
168.901
220.26
564.396
967.338
124.544
150.29
142.714
109.534
134.237
264.559
819.511
449.441
518.261
372.346
164.36
137.879
223.532
770.453
671.225
729.577
691.467
250.832
154.429
259.361
822.633
394.133
369.615
371.369
188.059
159.461
235.142
772.315
181.25
184.312
165.936
135.892
146.507
277.104
820.017
196.517
227.467
212.825
182.829
221.172
550.292
958.285
377.742
254.881
225.868
240.838
295.74
492.146
558.193
95.8821
73.8758
92.1802
96.783
147.709
371.169
622.813
121.287
194.684
180.961
58.8156
127.172
357.367
660.972
222.87
363.121
262.926
102.892
173.682
415.161
671.407
137.956
220.07
216.669
65.8986
165.955
416.57
667.207
158.844
173.135
168.772
123.954
126.515
304.619
557.047
433.781
385.029
292.396
280.819
237.711
231.088
354.157
6.70003
10.0955
11.4769
5.4813
0.999578
0.999996
1
48.5357
41.7909
45.9188
42.2764
14.0746
0.999716
0.999998
63.1013
44.9587
49.0742
56.0697
32.864
0.994259
0.999986
53.0962
34.7303
33.7056
47.2939
36.2087
1.85176
0.999975
63.4979
48.0646
52.0644
56.8139
32.5444
0.993875
0.999983
58.1754
54.0149
55.9812
50.0697
18.8922
0.999367
0.999996
21.3221
24.1567
23.5016
11.2913
0.998683
1.00004
1.00003
1
1
1
1
1
1
1
1
1
1
1
1
1
1
1
1
1
1
1
1
1
1
1
1
1
1
1
1
1
1
1
1
1
1
1
1
1
1
1
1
0.999999
1
1
1
1
1
0.999993
0.999999
1
1
1
1
1
1.00002
1.00002
1.00001
1
1
1
1
1
1
1
1
1
1
1
1
1
1
1
1
1
1
1
1
1
1
1
1
1
1
1
1
1
1
1
1
1
1
1
1
1
1
1
1.00031
1.00185
1.00106
1
1
1
1
1.00001
1.00001
1
1
1
1
1
1
1
1
1
1
1
1
1
1
1
1
1
1
1
1
1
1
1
1
1
1
1
1
1
1
1
1
1
1
1
1
1
1
1
1
1
1
1.00021
1
1
1
1
1
1
1
1
1
1
1
1
1
1
1
1
1
1
1
1
1
1
1
1
1
1
1
1
1
1
1
1
1
1
1
1
1
1
1
1
1
1
1
1
1
1
1
1
1
1000
1000
1000
999.985
1000
999.866
999.614
999.593
1000
1000
1000
1000
1000
1000
1000
1000
1000