/*--------------------------------*- C++ -*----------------------------------*\
| =========                 |                                                 |
| \\      /  F ield         | OpenFOAM: The Open Source CFD Toolbox           |
|  \\    /   O peration     | Version:  plus.master.MPPICInterFoam            |
|   \\  /    A nd           | Web:      www.OpenFOAM.com                      |
|    \\/     M anipulation  |                                                 |
\*---------------------------------------------------------------------------*/
FoamFile
{
    version     2.0;
    format      ascii;
    class       vectorField;
    location    "13.4/lagrangian/kinematicCloud";
    object      UCorrect;
}
// * * * * * * * * * * * * * * * * * * * * * * * * * * * * * * * * * * * * * //

10((7.75531e-20 -1.20046e-19 -1.04195e-19) (7.52493e-20 -1.24829e-19 -1.04195e-19) (9.11089e-20 -9.18968e-20 -1.04195e-19) (5.19428e-20 3.92441e-20 -2.08389e-19) (1.70006e-19 -9.8677e-20 1.17801e-19) (-3.32518e-20 -1.17506e-19 1.63922e-19) (-4.205e-20 -2.40593e-19 -2.62196e-19) (-5.43023e-20 -3.49335e-19 -1.04195e-19) (-7.58392e-19 1.08027e-18 -1.79442e-19) (1.01016e-18 1.81977e-19 -2.8498e-19))

// ************************************************************************* //
