/*--------------------------------*- C++ -*----------------------------------*\
| =========                 |                                                 |
| \\      /  F ield         | OpenFOAM: The Open Source CFD Toolbox           |
|  \\    /   O peration     | Version:  plus.master.MPPICInterFoam            |
|   \\  /    A nd           | Web:      www.OpenFOAM.com                      |
|    \\/     M anipulation  |                                                 |
\*---------------------------------------------------------------------------*/
FoamFile
{
    version     2.0;
    format      ascii;
    class       volScalarField;
    location    "2";
    object      k;
}
// * * * * * * * * * * * * * * * * * * * * * * * * * * * * * * * * * * * * * //

dimensions      [0 2 -2 0 0 0 0];

internalField   nonuniform List<scalar> 
11821
(
0.000387753
0.000392799
0.000380002
0.000387771
0.000379984
0.000366231
0.000366247
0.000379997
0.000387984
0.000390627
0.000388053
0.000380126
0.000366337
0.000380003
0.000392952
0.000400662
0.000403238
0.000400755
0.000393124
0.000380157
0.000388012
0.000400675
0.00040822
0.000410736
0.000408281
0.000400798
0.0003881
0.000390656
0.000403239
0.000410727
0.000413208
0.000410749
0.000403287
0.000390634
0.000388056
0.000400729
0.000408256
0.000410727
0.000408223
0.000400683
0.000388027
0.000380099
0.000393075
0.000400753
0.000403246
0.00040067
0.000393032
0.000380104
0.0003663
0.000380078
0.000388017
0.000390573
0.000387991
0.000380087
0.000366309
0.000366418
0.000380247
0.000388208
0.000390819
0.000388207
0.000380275
0.000366532
0.000380253
0.000393239
0.000400909
0.000403442
0.000400933
0.000393318
0.00038039
0.000388195
0.000400886
0.0004084
0.000410886
0.00040842
0.000400946
0.000388272
0.000390803
0.000403425
0.000410878
0.000413335
0.000410868
0.000403427
0.000390824
0.000388201
0.000400913
0.000408394
0.000410848
0.000408348
0.000400846
0.000388174
0.000380264
0.000393263
0.000400885
0.000403376
0.00040082
0.000393164
0.00038021
0.000366477
0.000380276
0.000388173
0.000390746
0.000388127
0.000380192
0.000366414
0.000366535
0.00038037
0.000388292
0.000390874
0.000388248
0.000380323
0.0003666
0.000380363
0.000393345
0.000400966
0.000403466
0.000400942
0.000393332
0.000380425
0.00038826
0.000400941
0.000408399
0.000410855
0.000408385
0.000400933
0.000388298
0.000390847
0.000403453
0.000410851
0.000413288
0.000410834
0.000403428
0.00039087
0.000388243
0.000400939
0.000408376
0.000410826
0.000408352
0.000400886
0.000388237
0.000380323
0.000393313
0.000400904
0.000403405
0.000400875
0.000393234
0.000380285
0.000366568
0.000380367
0.000388244
0.000390831
0.000388216
0.000380279
0.0003665
0.000366474
0.000380236
0.000388153
0.000390737
0.000388119
0.000380191
0.000366442
0.000380224
0.000393158
0.000400777
0.000403278
0.000400751
0.000393127
0.000380208
0.000388122
0.000400751
0.000408197
0.000410648
0.000408182
0.000400739
0.000388124
0.000390702
0.000403246
0.000410642
0.000413083
0.000410644
0.000403257
0.000390723
0.000388091
0.000400727
0.000408183
0.00041065
0.000408194
0.000400747
0.000388115
0.000380172
0.000393119
0.00040075
0.000403274
0.000400758
0.000393124
0.000380178
0.000366431
0.000380213
0.000388143
0.000390749
0.000388135
0.000380187
0.000366399
0.000366314
0.000380037
0.000387951
0.000390538
0.000387924
0.000379986
0.000366204
0.000380027
0.000392918
0.000400536
0.000403043
0.000400517
0.000392882
0.000379943
0.000387938
0.000400526
0.000407975
0.000410429
0.000407962
0.000400511
0.000387887
0.000390516
0.000403017
0.000410423
0.000412866
0.000410421
0.000403028
0.000390492
0.000387893
0.000400489
0.000407964
0.00041043
0.000407967
0.000400516
0.000387889
0.000379958
0.000392874
0.000400531
0.000403053
0.00040053
0.000392896
0.000379958
0.000366202
0.000379968
0.000387927
0.000390531
0.000387913
0.000379966
0.000366183
0.000366177
0.00037989
0.000387815
0.00039041
0.000387796
0.00037985
0.000366048
0.000379888
0.00039277
0.000400399
0.000402912
0.000400386
0.000392744
0.000379791
0.00038782
0.000400405
0.000407866
0.000410325
0.000407855
0.000400395
0.000387757
0.000390408
0.000402906
0.00041032
0.000412762
0.000410312
0.000402912
0.000390368
0.00038778
0.000400368
0.000407847
0.000410309
0.000407844
0.000400392
0.000387768
0.000379824
0.000392725
0.000400388
0.000402909
0.00040039
0.000392765
0.000379839
0.000366032
0.000379784
0.000387754
0.000390363
0.000387758
0.00037983
0.000366064
0.000366118
0.000379846
0.000387787
0.000390391
0.000387777
0.000379826
0.000366022
0.000379849
0.000392747
0.00040039
0.000402908
0.00040038
0.000392736
0.000379781
0.00038779
0.000400393
0.000407867
0.000410333
0.000407866
0.000400405
0.000387762
0.000390386
0.000402904
0.000410327
0.000412777
0.000410331
0.000402931
0.000390382
0.00038776
0.000400365
0.00040785
0.000410321
0.000407862
0.000400412
0.000387782
0.000379796
0.000392711
0.000400379
0.00040291
0.0004004
0.000392779
0.00037985
0.00036599
0.000379751
0.000387728
0.00039035
0.000387757
0.000379835
0.000366068
0.000366143
0.000379911
0.000387856
0.000390466
0.000387856
0.000379912
0.000366125
0.000379911
0.000392841
0.000400487
0.000403013
0.000400493
0.000392857
0.000379912
0.000387844
0.000400475
0.000407955
0.000410431
0.000407971
0.000400515
0.000387875
0.000390444
0.000402993
0.000410422
0.000412882
0.000410443
0.000403044
0.00039049
0.000387825
0.000400465
0.000407952
0.000410432
0.000407977
0.000400523
0.000387883
0.000379872
0.000392821
0.000400486
0.000403023
0.000400514
0.000392885
0.00037994
0.000366079
0.000379868
0.000387837
0.000390462
0.000387865
0.000379932
0.000366149
0.000366199
0.000379994
0.000387947
0.00039057
0.000387974
0.000380043
0.000366274
0.000379991
0.000392953
0.000400612
0.000403154
0.000400649
0.000393025
0.000380088
0.000387928
0.000400593
0.000408079
0.000410567
0.000408116
0.000400664
0.000388024
0.000390539
0.000403123
0.000410554
0.000413024
0.000410591
0.000403191
0.000390633
0.000387932
0.000400606
0.000408091
0.000410578
0.000408125
0.000400667
0.000388018
0.000379991
0.000392968
0.000400627
0.000403168
0.000400657
0.000393021
0.000380066
0.000366208
0.000380017
0.000387977
0.000390602
0.000388001
0.000380059
0.000366269
0.00036625
0.000380047
0.000388009
0.000390642
0.000388055
0.000380131
0.000366365
0.000380044
0.000393024
0.000400694
0.000403246
0.000400748
0.000393125
0.000380185
0.000387995
0.000400679
0.000408169
0.000410662
0.000408214
0.00040076
0.000388117
0.000390617
0.000403218
0.00041065
0.000413123
0.00041069
0.000403289
0.000390728
0.000388018
0.000400706
0.000408189
0.000410677
0.000408225
0.000400765
0.000388115
0.000380082
0.000393067
0.000400723
0.000403264
0.000400754
0.000393117
0.000380164
0.000366299
0.000380112
0.000388068
0.000390692
0.000388093
0.000380154
0.000366369
0.000366305
0.000380112
0.000388061
0.000390686
0.000388094
0.000380167
0.000366398
0.00038011
0.000393091
0.000400744
0.000403285
0.000400779
0.000393151
0.000380206
0.000388054
0.000400736
0.000408209
0.000410692
0.000408237
0.000400781
0.000388136
0.000390672
0.000403269
0.000410685
0.000413149
0.000410711
0.000403308
0.000390748
0.000388073
0.000400757
0.000408224
0.000410704
0.000408247
0.000400789
0.000388142
0.000380141
0.000393122
0.000400761
0.000403294
0.000400782
0.000393149
0.000380202
0.000366364
0.000380171
0.00038811
0.000390728
0.000388129
0.000380196
0.00036642
0.000366363
0.000380185
0.000388111
0.00039072
0.00038812
0.00038019
0.000366423
0.000380184
0.000393156
0.000400779
0.000403303
0.000400789
0.000393159
0.000380218
0.000388105
0.000400773
0.000408222
0.000410691
0.000408231
0.000400774
0.000388134
0.000390711
0.000403294
0.000410688
0.000413139
0.000410697
0.000403296
0.000390741
0.000388108
0.000400779
0.000408226
0.000410695
0.000408235
0.00040078
0.00038814
0.00038018
0.000393151
0.00040077
0.000403293
0.000400778
0.00039315
0.000380211
0.000366414
0.000380211
0.000388129
0.000390738
0.000388139
0.000380211
0.000366444
0.000366394
0.000380201
0.000388124
0.00039073
0.00038813
0.000380205
0.000366445
0.0003802
0.000393158
0.000400777
0.0004033
0.000400788
0.000393165
0.000380231
0.000388117
0.00040077
0.000408217
0.000410684
0.000408227
0.000400776
0.000388142
0.000390719
0.000403287
0.000410679
0.000413129
0.00041069
0.000403294
0.000390746
0.000388116
0.000400772
0.000408219
0.000410687
0.00040823
0.00040078
0.000388147
0.000380191
0.000393148
0.000400767
0.00040329
0.000400779
0.000393156
0.000380224
0.000366427
0.000380213
0.000388132
0.000390743
0.000388147
0.000380224
0.000366464
0.000366395
0.000380168
0.000388108
0.000390723
0.000388129
0.000380209
0.000366449
0.000380167
0.000393112
0.000400754
0.000403285
0.000400781
0.000393163
0.000380231
0.000388103
0.000400747
0.000408212
0.000410687
0.000408235
0.000400788
0.000388155
0.000390712
0.000403271
0.000410681
0.000413137
0.000410703
0.00040331
0.000390764
0.000388112
0.000400759
0.000408223
0.000410697
0.000408245
0.000400798
0.000388166
0.000380186
0.000393134
0.000400771
0.000403301
0.000400794
0.000393174
0.000380244
0.000366417
0.000380197
0.000388135
0.000390752
0.000388161
0.000380242
0.000366482
0.000366418
0.000380182
0.00038813
0.000390747
0.000388152
0.000380228
0.000366461
0.000380183
0.000393129
0.000400778
0.00040331
0.000400802
0.000393178
0.00038024
0.00038813
0.000400778
0.00040825
0.000410724
0.000408269
0.000400817
0.000388178
0.000390745
0.000403307
0.000410722
0.000413178
0.00041074
0.000403343
0.000390791
0.000388147
0.000400795
0.000408264
0.000410738
0.000408282
0.000400831
0.000388194
0.000380218
0.000393166
0.000400809
0.000403338
0.000400828
0.000393205
0.00038027
0.000366444
0.000380224
0.000388168
0.000390784
0.00038819
0.000380268
0.000366504
0.000366514
0.000380305
0.000388233
0.000390837
0.000388229
0.000380293
0.000366516
0.000380308
0.000393261
0.000400883
0.000403399
0.000400875
0.000393238
0.00038029
0.000388243
0.000400894
0.000408342
0.000410803
0.000408334
0.000400872
0.000388227
0.000390854
0.000403418
0.00041081
0.000413252
0.000410802
0.000403395
0.000390837
0.000388252
0.0004009
0.000408346
0.000410807
0.00040834
0.000400879
0.000388236
0.000380319
0.000393267
0.000400888
0.000403404
0.000400883
0.00039325
0.000380309
0.000366545
0.000380321
0.000388244
0.000390848
0.000388243
0.000380311
0.00036654
0.000175873
0.00014466
0.000328614
0.00030094
0.000267922
0.000228407
0.00017991
0.000140419
0.000373627
0.000354852
0.000331753
0.000303882
0.000270563
0.000230572
0.000181219
0.00013909
0.000371035
0.000352045
0.00032891
0.000301145
0.000268084
0.000228542
0.000179939
0.000140321
0.000362648
0.000343431
0.0003204
0.000293049
0.000260812
0.000222622
0.000176273
0.000144508
0.00034822
0.000329424
0.000306848
0.000280301
0.000249422
0.000213334
0.000170607
0.000152552
0.000348368
0.000329481
0.000306807
0.000280205
0.000249288
0.000213169
0.000170446
0.000153146
0.000362715
0.000343388
0.000320262
0.00029286
0.000260585
0.000222285
0.000175884
0.000144954
0.000371093
0.000351941
0.000328688
0.00030089
0.00026782
0.000228286
0.000179749
0.000140686
0.000373891
0.000354907
0.000331687
0.000303741
0.000270386
0.000230387
0.000181048
0.00013936
0.00037111
0.000352016
0.000328804
0.000300988
0.000267907
0.000228362
0.000179767
0.000140613
0.000362695
0.000343393
0.000320295
0.000292908
0.000260656
0.000222455
0.000176106
0.000144845
0.000348282
0.000329403
0.000306756
0.000280166
0.000249259
0.000213147
0.000170424
0.00015298
0.000348584
0.000329624
0.000306851
0.000280172
0.000249211
0.000213068
0.00017034
0.000153329
0.000362944
0.000343543
0.000320344
0.000292885
0.000260583
0.000222342
0.000175961
0.000145125
0.000371283
0.0003521
0.000328804
0.000300936
0.000267819
0.000228255
0.000179679
0.000140836
0.000374052
0.000355004
0.000331717
0.000303716
0.000270322
0.0002303
0.000180952
0.000139517
0.000371215
0.000352067
0.000328797
0.000300934
0.000267823
0.000228263
0.000179669
0.000140781
0.000362785
0.000343434
0.000320279
0.000292851
0.000260574
0.000222358
0.000176009
0.000145033
0.000348391
0.000329452
0.000306741
0.000280108
0.000249174
0.000213042
0.000170311
0.000153209
0.00034863
0.000329666
0.000306884
0.000280185
0.000249205
0.000213046
0.000170306
0.000153417
0.000363002
0.000343617
0.00032041
0.000292932
0.000260615
0.000222372
0.000176008
0.000145204
0.000371348
0.000352179
0.000328874
0.000300981
0.000267842
0.000228259
0.000179657
0.000140905
0.00037412
0.000355064
0.000331752
0.000303725
0.000270309
0.000230267
0.000180906
0.000139587
0.00037128
0.000352112
0.000328811
0.000300918
0.000267784
0.000228207
0.000179609
0.000140855
0.000362854
0.000343476
0.000320281
0.000292817
0.000260515
0.000222287
0.00017594
0.000145114
0.000348464
0.000329494
0.000306733
0.000280058
0.000249097
0.000212955
0.000170228
0.000153307
0.000348407
0.000329493
0.000306776
0.000280119
0.000249162
0.000213014
0.000170282
0.000153431
0.000362801
0.000343481
0.000320327
0.000292882
0.000260585
0.000222353
0.000175998
0.000145218
0.000371198
0.000352078
0.00032881
0.000300938
0.000267811
0.000228235
0.000179633
0.000140923
0.000373995
0.000354976
0.000331691
0.000303681
0.000270274
0.000230236
0.000180877
0.000139608
0.000371167
0.000352027
0.000328748
0.000300871
0.000267745
0.000228171
0.000179577
0.000140882
0.000362738
0.000343386
0.000320213
0.000292763
0.000260468
0.000222245
0.000175905
0.000145149
0.000348329
0.000329394
0.00030666
0.000279998
0.000249044
0.000212907
0.000170191
0.000153351
0.000348128
0.000329253
0.000306588
0.000279977
0.000249057
0.000212939
0.000170234
0.000153417
0.000362524
0.000343243
0.00032014
0.00029274
0.000260477
0.000222273
0.000175945
0.000145211
0.000370956
0.000351874
0.000328651
0.000300817
0.00026772
0.000228166
0.000179585
0.000140922
0.00037377
0.000354795
0.000331556
0.000303582
0.000270201
0.000230183
0.00018084
0.000139614
0.000370951
0.000351862
0.000328632
0.000300792
0.000267691
0.000228133
0.000179553
0.000140898
0.000362523
0.000343224
0.000320105
0.000292694
0.000260425
0.000222219
0.000175892
0.000145176
0.0003481
0.000329222
0.000306547
0.000279929
0.000249004
0.000212886
0.000170184
0.000153384
0.000347954
0.000329088
0.00030644
0.00027985
0.000248954
0.00021286
0.000170179
0.000153424
0.000362357
0.000343078
0.000319989
0.000292608
0.000260367
0.000222185
0.000175881
0.000145218
0.000370812
0.000351734
0.000328524
0.000300706
0.000267625
0.000228088
0.000179527
0.000140926
0.000373641
0.000354677
0.000331452
0.000303493
0.000270126
0.000230122
0.000180796
0.000139623
0.000370834
0.000351761
0.000328548
0.000300723
0.000267636
0.000228092
0.000179527
0.000140918
0.000362414
0.000343134
0.000320034
0.00029264
0.000260387
0.000222194
0.000175881
0.00014521
0.000347993
0.000329129
0.000306474
0.000279876
0.000248971
0.000212869
0.000170181
0.000153429
0.000347923
0.000329052
0.000306401
0.000279812
0.000248918
0.000212828
0.000170155
0.000153469
0.000362341
0.000343053
0.000319954
0.000292569
0.000260326
0.000222147
0.000175851
0.000145247
0.000370808
0.000351716
0.000328494
0.000300668
0.000267585
0.000228049
0.000179496
0.000140945
0.000373643
0.000354662
0.000331425
0.000303458
0.000270089
0.000230086
0.000180768
0.000139642
0.000370838
0.000351749
0.000328524
0.000300694
0.000267606
0.000228065
0.000179507
0.000140946
0.000362416
0.000343123
0.000320014
0.000292618
0.000260365
0.000222176
0.000175871
0.000145251
0.000347992
0.000329119
0.000306457
0.000279858
0.000248956
0.000212858
0.000170178
0.000153485
0.000348057
0.000329162
0.000306483
0.000279871
0.000248958
0.000212852
0.000170168
0.000153528
0.000362477
0.000343163
0.000320037
0.000292627
0.000260366
0.000222171
0.000175865
0.000145288
0.00037092
0.000351805
0.00032856
0.000300714
0.000267614
0.000228066
0.000179505
0.000140976
0.000373743
0.000354737
0.000331475
0.000303489
0.000270106
0.000230094
0.000180771
0.000139668
0.000370925
0.000351809
0.000328561
0.000300714
0.000267614
0.000228066
0.000179505
0.000140974
0.000362494
0.000343175
0.000320046
0.000292634
0.000260371
0.000222175
0.000175867
0.000145288
0.000348066
0.000329172
0.000306491
0.000279878
0.000248964
0.000212858
0.000170173
0.000153536
0.000348243
0.000329315
0.000306595
0.000279953
0.000249016
0.000212892
0.000170194
0.000153572
0.000362657
0.000343308
0.000320148
0.000292711
0.000260429
0.000222218
0.000175899
0.000145324
0.000371071
0.00035193
0.000328658
0.00030079
0.000267673
0.000228111
0.000179539
0.000141007
0.000373881
0.000354849
0.000331562
0.000303555
0.000270154
0.000230129
0.000180796
0.000139694
0.000371055
0.000351911
0.000328637
0.000300768
0.000267651
0.00022809
0.00017952
0.000140997
0.00036262
0.000343272
0.000320114
0.000292679
0.000260398
0.000222189
0.000175872
0.000145312
0.0003482
0.000329272
0.000306558
0.00027992
0.000248987
0.000212866
0.000170173
0.000153567
0.000348338
0.000329392
0.000306653
0.000279995
0.000249047
0.000212915
0.000170213
0.000153591
0.000362752
0.000343385
0.000320208
0.000292758
0.000260466
0.000222248
0.000175923
0.000145344
0.000371161
0.000352006
0.000328718
0.000300838
0.000267712
0.000228144
0.000179565
0.000141025
0.000373973
0.000354927
0.000331624
0.000303604
0.000270194
0.00023016
0.00018082
0.00013971
0.000371153
0.000351993
0.000328701
0.000300816
0.000267687
0.000228116
0.000179539
0.00014101
0.000362726
0.000343359
0.00032018
0.000292726
0.00026043
0.00022221
0.000175886
0.000145323
0.00034832
0.000329365
0.000306624
0.000279963
0.000249014
0.000212882
0.000170182
0.00015358
0.000348357
0.000329411
0.000306672
0.000280011
0.000249061
0.000212928
0.000170225
0.000153594
0.000362769
0.000343404
0.000320226
0.000292773
0.000260478
0.000222257
0.00017593
0.000145343
0.000371178
0.000352024
0.000328735
0.000300852
0.000267723
0.000228151
0.00017957
0.000141022
0.000373996
0.000354951
0.000331646
0.000303623
0.000270209
0.000230172
0.000180828
0.000139706
0.000371185
0.000352027
0.000328732
0.000300843
0.000267709
0.000228133
0.000179551
0.000141007
0.000362771
0.000343405
0.00032022
0.00029276
0.000260458
0.000222231
0.000175902
0.000145322
0.000348381
0.000329421
0.000306671
0.000280002
0.000249044
0.000212906
0.000170202
0.000153579
0.000348378
0.000329435
0.000306695
0.000280031
0.000249077
0.000212941
0.000170236
0.000153585
0.000362782
0.000343422
0.000320242
0.000292784
0.000260484
0.000222257
0.000175926
0.000145323
0.00037118
0.00035203
0.000328742
0.000300855
0.000267721
0.000228145
0.00017956
0.000140997
0.000373994
0.000354956
0.000331653
0.000303629
0.000270212
0.000230171
0.000180823
0.000139684
0.000371189
0.000352039
0.000328748
0.000300859
0.000267722
0.000228143
0.000179557
0.00014099
0.000362787
0.000343429
0.000320248
0.000292787
0.000260483
0.000222254
0.000175921
0.000145311
0.000348407
0.000329456
0.000306709
0.000280038
0.000249078
0.000212937
0.000170229
0.00015357
0.000348399
0.000329457
0.000306715
0.000280047
0.000249088
0.000212946
0.000170238
0.000153559
0.000362798
0.000343441
0.000320257
0.000292794
0.000260486
0.000222254
0.000175918
0.00014529
0.000371191
0.000352043
0.000328752
0.000300861
0.000267721
0.000228139
0.00017955
0.000140964
0.000374003
0.000354968
0.000331665
0.000303638
0.000270217
0.000230172
0.000180821
0.000139656
0.000371199
0.000352055
0.000328765
0.000300875
0.000267737
0.000228156
0.000179567
0.000140969
0.000362802
0.000343451
0.000320272
0.000292812
0.000260507
0.000222277
0.000175941
0.000145295
0.000348425
0.000329482
0.000306739
0.00028007
0.000249109
0.000212966
0.000170255
0.000153553
0.000348391
0.000329455
0.000306716
0.000280047
0.000249087
0.000212944
0.000170235
0.000153522
0.000362796
0.000343443
0.000320261
0.000292796
0.000260487
0.000222252
0.000175915
0.000145258
0.000371202
0.000352055
0.000328763
0.000300869
0.000267727
0.000228143
0.000179553
0.000140938
0.000374019
0.000354984
0.00033168
0.000303652
0.00027023
0.000230184
0.000180831
0.000139635
0.000371217
0.000352073
0.000328784
0.000300894
0.000267756
0.000228174
0.000179583
0.000140952
0.000362819
0.00034347
0.000320293
0.000292834
0.00026053
0.000222299
0.000175961
0.000145279
0.000348435
0.000329498
0.000306759
0.000280091
0.000249132
0.000212989
0.000170275
0.000153532
0.000348391
0.00032946
0.000306726
0.000280062
0.000249104
0.000212964
0.000170253
0.000153502
0.0003628
0.000343451
0.000320275
0.000292814
0.000260508
0.000222276
0.000175938
0.00014525
0.00037122
0.000352074
0.000328785
0.000300895
0.000267755
0.000228173
0.000179582
0.000140936
0.000374041
0.000355007
0.000331706
0.000303681
0.000270262
0.000230218
0.000180864
0.000139637
0.00037124
0.000352097
0.000328811
0.000300925
0.000267789
0.000228209
0.000179617
0.000140955
0.000362838
0.000343492
0.000320319
0.000292864
0.000260562
0.000222333
0.000175993
0.000145279
0.000348447
0.000329516
0.000306782
0.000280119
0.000249163
0.000213022
0.000170305
0.000153526
0.000348445
0.000329517
0.000306789
0.000280131
0.000249178
0.000213039
0.000170323
0.000153539
0.000362848
0.000343501
0.000320332
0.000292879
0.000260579
0.00022235
0.000176009
0.000145294
0.000371265
0.000352123
0.00032884
0.000300957
0.000267824
0.000228245
0.000179652
0.000140982
0.000374084
0.000355053
0.000331759
0.000303741
0.000270327
0.000230286
0.000180931
0.000139684
0.000371279
0.00035214
0.000328861
0.000300982
0.000267852
0.000228275
0.000179681
0.000141
0.000362873
0.000343532
0.000320368
0.00029292
0.000260625
0.000222399
0.000176056
0.000145322
0.000348478
0.000329556
0.000306833
0.000280178
0.000249228
0.00021309
0.00017037
0.000153566
0.000348223
0.000329311
0.000306622
0.000280006
0.000249096
0.000213003
0.000170347
0.00015349
0.000362617
0.000343277
0.000320138
0.000292723
0.000260462
0.000222271
0.000175978
0.000145284
0.000371053
0.000351899
0.000328625
0.000300762
0.000267656
0.000228111
0.000179573
0.000141002
0.000373856
0.000354797
0.000331496
0.000303489
0.000270098
0.000230093
0.000180803
0.000139712
0.000371011
0.000351842
0.000328556
0.000300685
0.000267579
0.000228043
0.000179524
0.00014103
0.00036254
0.000343191
0.000320032
0.000292601
0.000260338
0.000222156
0.000175896
0.000145353
0.000348058
0.000329182
0.000306488
0.000279867
0.000248957
0.000212872
0.00017024
0.000153613
0.000348424
0.000329462
0.000306715
0.000280053
0.000249105
0.000212975
0.000170277
0.000153512
0.000362849
0.000343428
0.000320231
0.000292771
0.000260475
0.000222257
0.000175935
0.000145285
0.000371242
0.000352015
0.000328695
0.0003008
0.000267672
0.000228109
0.000179545
0.000140998
0.000374025
0.000354898
0.000331557
0.000303525
0.000270119
0.000230101
0.000180788
0.000139708
0.000371181
0.000351949
0.000328621
0.000300727
0.000267605
0.000228054
0.000179509
0.00014102
0.000362752
0.000343329
0.000320117
0.000292653
0.000260364
0.00022216
0.000175868
0.000145327
0.000348357
0.000329352
0.000306588
0.000279918
0.000248971
0.000212855
0.000170188
0.000153574
0.000348544
0.000329561
0.000306776
0.000280077
0.000249099
0.000212947
0.000170231
0.000153494
0.00036296
0.000343509
0.000320281
0.000292791
0.00026047
0.000222233
0.000175898
0.000145265
0.000371315
0.000352078
0.000328743
0.000300829
0.000267682
0.000228103
0.000179526
0.00014098
0.000374091
0.000354965
0.000331618
0.000303573
0.000270153
0.00023012
0.00018079
0.000139697
0.000371264
0.000352034
0.000328701
0.000300796
0.000267662
0.000228095
0.000179529
0.00014101
0.00036287
0.000343441
0.000320219
0.000292741
0.000260435
0.000222213
0.000175895
0.000145312
0.000348518
0.000329491
0.000306704
0.000280011
0.000249042
0.000212903
0.000170206
0.000153546
0.000348386
0.000329435
0.000306688
0.000280015
0.000249052
0.000212908
0.000170198
0.000153457
0.000362758
0.000343385
0.000320201
0.000292738
0.000260431
0.0002222
0.000175868
0.000145232
0.000371131
0.00035198
0.000328692
0.000300803
0.000267667
0.00022809
0.000179509
0.000140951
0.000373931
0.0003549
0.000331604
0.000303583
0.000270169
0.000230133
0.000180794
0.000139672
0.000371132
0.000351995
0.000328713
0.000300831
0.000267702
0.000228131
0.000179553
0.00014099
0.00036275
0.000343409
0.000320239
0.000292786
0.000260488
0.000222265
0.000175934
0.000145293
0.000348373
0.000329455
0.000306722
0.000280057
0.0002491
0.00021296
0.00017025
0.00015352
0.000348122
0.000329227
0.000306538
0.00027991
0.000248982
0.000212863
0.000170169
0.00015343
0.000362482
0.000343194
0.000320067
0.000292646
0.000260369
0.000222159
0.000175842
0.000145208
0.000370902
0.00035183
0.000328592
0.000300739
0.000267626
0.000228064
0.000179492
0.000140925
0.000373732
0.000354782
0.000331536
0.000303546
0.00027015
0.000230123
0.000180786
0.000139645
0.000370952
0.000351895
0.000328663
0.00030081
0.000267697
0.000228133
0.000179555
0.000140965
0.000362572
0.000343306
0.000320186
0.000292765
0.000260487
0.000222273
0.000175945
0.000145273
0.000348181
0.000329336
0.000306656
0.000280028
0.000249096
0.000212973
0.000170267
0.000153501
0.000347919
0.000329064
0.000306414
0.000279821
0.00024892
0.000212824
0.000170147
0.000153433
0.000362301
0.000343058
0.000319963
0.000292569
0.000260316
0.000222125
0.000175823
0.00014521
0.000370772
0.000351728
0.000328511
0.000300676
0.000267581
0.000228033
0.000179474
0.000140918
0.000373624
0.000354693
0.000331463
0.00030349
0.000270108
0.000230093
0.000180767
0.000139631
0.000370843
0.000351803
0.000328588
0.000300754
0.000267656
0.000228103
0.000179535
0.000140951
0.000362446
0.000343198
0.000320101
0.000292702
0.000260443
0.000222244
0.000175927
0.000145266
0.000348034
0.000329211
0.000306557
0.000279956
0.000249048
0.000212943
0.000170252
0.000153503
0.000347878
0.000329024
0.000306381
0.000279796
0.000248902
0.000212812
0.000170141
0.000153468
0.000362278
0.000343029
0.000319937
0.000292548
0.000260299
0.000222114
0.000175819
0.000145233
0.000370758
0.000351702
0.000328482
0.000300649
0.000267557
0.000228015
0.000179462
0.00014093
0.000373608
0.00035466
0.000331424
0.000303453
0.000270075
0.000230067
0.000180748
0.000139636
0.000370815
0.000351757
0.000328539
0.000300709
0.000267617
0.000228073
0.000179514
0.000140956
0.000362403
0.000343142
0.000320045
0.000292654
0.000260403
0.000222214
0.000175906
0.00014528
0.000347987
0.000329153
0.000306502
0.00027991
0.000249011
0.000212915
0.000170233
0.00015353
0.000348001
0.000329114
0.000306442
0.000279836
0.000248927
0.000212826
0.000170148
0.000153512
0.000362406
0.000343104
0.000319984
0.000292577
0.000260317
0.000222125
0.000175824
0.000145264
0.000370851
0.00035175
0.000328509
0.000300663
0.000267563
0.000228016
0.000179461
0.00014095
0.000373682
0.000354692
0.000331437
0.000303453
0.00027007
0.000230059
0.000180742
0.000139652
0.000370877
0.000351779
0.000328542
0.000300701
0.000267605
0.00022806
0.000179504
0.000140975
0.000362465
0.000343164
0.000320048
0.000292647
0.000260392
0.000222201
0.000175895
0.000145306
0.000348074
0.000329187
0.000306514
0.00027991
0.000249005
0.000212904
0.000170222
0.000153566
0.000348149
0.000329226
0.000306517
0.000279884
0.000248957
0.000212842
0.000170155
0.000153546
0.000362559
0.000343199
0.000320045
0.000292617
0.000260342
0.000222139
0.000175831
0.000145288
0.000370976
0.000351823
0.000328556
0.000300693
0.000267581
0.000228026
0.000179467
0.00014097
0.000373792
0.000354752
0.000331473
0.000303474
0.000270081
0.000230065
0.000180745
0.000139671
0.000370978
0.000351831
0.000328571
0.000300715
0.000267609
0.00022806
0.000179503
0.000140994
0.00036256
0.00034321
0.000320071
0.000292655
0.000260391
0.000222195
0.000175888
0.000145328
0.000348168
0.000329232
0.000306536
0.000279918
0.000249002
0.000212895
0.00017021
0.000153593
0.000348238
0.000329297
0.000306569
0.000279921
0.000248982
0.000212859
0.000170167
0.000153567
0.000362653
0.000343268
0.000320097
0.000292655
0.00026037
0.000222159
0.000175846
0.000145305
0.000371064
0.000351884
0.000328602
0.000300728
0.000267608
0.000228047
0.000179482
0.000140985
0.000373875
0.000354807
0.000331513
0.000303504
0.000270104
0.000230083
0.000180758
0.000139684
0.000371053
0.000351878
0.000328604
0.000300737
0.000267624
0.00022807
0.000179508
0.000141005
0.000362622
0.000343249
0.000320097
0.00029267
0.000260396
0.000222194
0.000175884
0.000145337
0.00034821
0.000329261
0.000306554
0.000279925
0.000249
0.000212886
0.000170197
0.000153604
0.00034831
0.000329363
0.000306628
0.000279971
0.000249024
0.000212894
0.000170196
0.000153584
0.000362726
0.00034334
0.000320162
0.000292712
0.000260419
0.000222201
0.00017588
0.000145318
0.000371126
0.000351948
0.00032866
0.00030078
0.000267654
0.000228086
0.000179514
0.000140994
0.000373932
0.000354866
0.000331567
0.000303551
0.000270144
0.000230115
0.000180783
0.000139689
0.000371111
0.000351937
0.000328655
0.000300779
0.000267657
0.000228093
0.000179523
0.000141005
0.000362686
0.000343312
0.000320147
0.000292706
0.00026042
0.000222208
0.00017589
0.000145334
0.000348284
0.000329326
0.000306602
0.000279956
0.000249018
0.000212894
0.000170199
0.0001536
0.000348374
0.000329428
0.000306688
0.000280024
0.00024907
0.000212934
0.00017023
0.000153588
0.000362789
0.000343409
0.000320228
0.000292772
0.000260473
0.000222249
0.000175921
0.00014532
0.000371175
0.000352007
0.000328719
0.000300836
0.000267705
0.000228132
0.000179551
0.000140993
0.000373976
0.000354922
0.000331622
0.000303602
0.000270189
0.000230153
0.000180811
0.000139683
0.00037116
0.000351997
0.000328709
0.000300825
0.000267694
0.000228121
0.000179542
0.000140993
0.000362753
0.000343382
0.000320204
0.000292749
0.000260452
0.000222229
0.000175903
0.000145319
0.000348382
0.000329407
0.000306662
0.000279999
0.000249046
0.00021291
0.000170209
0.000153582
0.000348384
0.000329444
0.000306707
0.000280043
0.000249088
0.00021295
0.000170244
0.000153567
0.000362794
0.00034343
0.000320253
0.000292799
0.0002605
0.000222275
0.000175943
0.000145307
0.00037118
0.000352029
0.000328745
0.000300864
0.000267734
0.00022816
0.000179576
0.000140981
0.000373981
0.000354943
0.000331647
0.000303628
0.000270216
0.000230178
0.000180832
0.000139668
0.000371165
0.000352016
0.000328731
0.000300846
0.000267714
0.000228138
0.000179554
0.000140972
0.000362759
0.000343401
0.000320222
0.000292765
0.000260463
0.000222236
0.000175906
0.000145291
0.000348384
0.000329424
0.000306678
0.000280009