/*--------------------------------*- C++ -*----------------------------------*\
| =========                 |                                                 |
| \\      /  F ield         | OpenFOAM: The Open Source CFD Toolbox           |
|  \\    /   O peration     | Version:  plus.master                           |
|   \\  /    A nd           | Web:      www.OpenFOAM.com                      |
|    \\/     M anipulation  |                                                 |
\*---------------------------------------------------------------------------*/
FoamFile
{
    version     2.0;
    format      ascii;
    class       Cloud<passiveParticle>;
    location    "9.2/lagrangian/kinematicCloud";
    object      positions;
}
// * * * * * * * * * * * * * * * * * * * * * * * * * * * * * * * * * * * * * //

96597
(
(-0.00349616 -0.0156842 0.000265134) 821
(0.0229762 -0.0266063 0.00025319) 860
(0.00181878 0.0785996 0.000277387) 2376
(0.00422884 -0.0442111 0.000304893) 2090
(0.0278997 -0.059142 0.000278105) 2110
(-0.0235132 -0.0466184 0.000291633) 2075
(0.0195701 -0.0465861 0.000277916) 2107
(-0.00240243 0.0189005 0.000278258) 1110
(0.0204311 0.0398898 0.000261703) 2354
(-0.00195505 0.0696221 0.000253162) 2374
(0.0296713 0.0522216 0.000281349) 2357
(0.0385421 0.017344 0.000259669) 1545
(-0.0188325 -0.00140261 0.000269172) 550
(0.027719 0.0193542 0.000282917) 300
(0.0589309 -0.00299269 0.000263547) 1532
(-0.00513462 0.0392057 0.000264557) 2377
(-1.78248e-05 -0.0157635 0.000266102) 829
(-0.0451879 0.0220055 0.000292365) 1795
(0.0322705 0.0185438 0.000272514) 1370
(0.0187128 0.0644588 0.000293325) 2366
(-0.0225446 0.0225073 0.000318742) 530
(-0.00396694 -0.0934726 0.000279709) 3212
(-0.0433331 -0.0230884 0.000226849) 1827
(-0.0403551 -0.0181697 0.000292054) 1826
(0.0236081 -0.0245469 0.000307237) 860
(-0.00981496 -0.0582064 0.000247242) 2084
(-0.0220533 0.0218947 0.00032603) 530
(0.00117535 0.100417 0.000259998) 3494
(-0.0424281 -0.0227628 0.000273245) 1826
(0.0325343 -0.0239955 0.000298742) 1505
(-0.0224896 0.0224736 0.000263284) 530
(0.0347019 -0.0164574 0.000294469) 1513
(-0.0339784 0.0157752 0.000278817) 1401
(-0.0208206 0.0207766 0.000315909) 529
(0.0042971 0.0367629 0.000294103) 1472
(0.0391676 0.0173951 0.000266329) 1545
(-0.00133979 0.0601573 0.000264959) 2373
(-0.000428349 0.0705143 0.000292274) 2374
(-0.0312798 0.0271393 0.000293215) 1785
(-0.0801977 -6.25095e-05 0.000257197) 1816
(0.0147436 -0.0499112 0.00026455) 2099
(-0.0216819 -0.0401201 0.000282257) 2074
(0.0089609 0.0222427 0.000284666) 1096
(-0.0435305 0.0207348 0.000268242) 1794
(-0.0195766 0.0381956 0.000301624) 2385
(0.0311501 -0.0211411 0.000276037) 1365
(-0.006823 -0.0900603 0.000283464) 3211
(-0.00907661 0.0174148 0.000300492) 1126
(-0.0187285 -0.0415636 0.000241929) 2074
(-0.0145956 0.0307771 0.000273562) 1132
(0.0405316 -0.0157716 0.000291529) 1513
(-0.0164241 0.0327602 0.00026953) 1475
(0.0188835 -0.0216221 0.000247378) 857
(-0.00404605 -0.0609552 0.00027816) 2093
(0.0307342 -0.0125964 0.000265249) 259
(0.0191671 0.0408528 0.000242261) 2354
(0.0235825 0.0255244 0.000285681) 1092
(-4.21619e-05 0.0157545 0.00024891) 1109
(-0.0186124 0.0427776 0.000273457) 2386
(0.0114922 0.0590159 0.000274307) 2365
(0.0448106 -0.0165132 0.000306801) 1514
(0.0360266 -0.0178992 0.00028284) 1513
(0.0368653 0.0138821 0.000268292) 1545
(-0.0213277 0.0390902 0.000275991) 2386
(0.018984 -0.001971 0.000854241) 271
(-0.0421617 -0.0245181 0.000296129) 1826
(0.00484857 0.100281 0.000288471) 3494
(0.0115777 0.0146811 0.000289391) 1085
(-0.100581 0.000305964 0.000277071) 2934
(0.0432211 -0.0169155 0.00026431) 1514
(0.0194945 -0.021941 0.000285081) 857
(0.0231814 0.0254386 0.000298984) 1092
(0.0177191 0.0432117 0.000290298) 2354
(0.0185331 0.0378028 0.000240424) 2353
(0.0095048 0.0216276 0.000272085) 1096
(0.0252977 -0.0256289 0.000271368) 860
(0.0596452 -0.000904425 0.000289847) 1533
(-0.0157195 -0.00305604 0.000298854) 557
(0.0138895 0.0276999 0.00029531) 1098
(0.00166528 0.0205857 0.000269463) 1111
(0.00410224 0.0361377 0.000257318) 1472
(-0.0129011 -0.0481937 0.000268202) 2083
(-0.0385866 0.0191449 0.000279554) 1793
(0.0232397 0.0195015 0.000271831) 298
(-0.0256475 0.0256687 0.000287474) 1140
(0.0112502 0.0258904 0.000304996) 1097
(0.022592 -0.0153048 0.000272885) 249
(0.00540408 0.0757947 0.000278634) 2375
(-0.0165494 0.00662923 0.000259655) 534
(-0.0350974 0.00827479 0.000286004) 548
(-0.00442801 0.0194131 0.000273644) 1119
(0.0134464 0.0167019 0.000271325) 1086
(0.018696 -0.0511088 0.000271956) 2108
(-0.0422838 -0.0160651 0.000258225) 1826
(0.0250247 -0.0160865 0.000284241) 250
(-0.0258727 -0.0260059 0.000327227) 1435
(0.0315782 0.0169201 0.000280966) 292
(-0.0813602 0.00503949 0.000258648) 1816
(-0.00967656 0.0496527 0.000260673) 2379
(0.0178061 -0.000209714 0.000276037) 270
(-0.0907768 0.00251742 0.000278132) 2931
(0.0099977 0.0283527 0.000267466) 1106
(0.0553899 0.00249414 0.000266099) 1532
(-0.0274858 0.00466604 0.000285609) 546
(0.0205662 -0.0090234 0.000280701) 255
(-0.0368696 0.0190968 0.00029838) 1793
(-0.00139709 0.0733399 0.000272957) 2375
(-0.0195858 0.0382478 0.000281444) 2385
(0.0362377 -0.0244126 0.000322911) 1506
(-0.0544914 0.027878 0.000282559) 1797
(-0.0257907 0.0478002 0.000293205) 2388
(0.0327356 -0.0205437 0.000313568) 1513
(-0.00268248 -0.0548101 0.000299871) 2092
(0.0336004 0.0160075 0.000282851) 1370
(0.00918551 0.0301443 0.000278541) 1107
(0.0193902 -0.0393344 0.000265566) 2106
(0.0141771 0.01989 0.000276005) 1088
(-0.0485196 -0.023633 0.000276786) 1827
(0.0229844 -0.00893851 0.000266145) 256
(0.0193781 -0.0388362 0.000268163) 2105
(0.0515599 0.00324145 0.000288837) 1531
(0.00407744 -0.0456545 0.000300398) 2090
(0.0218441 -0.0234518 0.000292389) 859
(-0.023034 -0.0464417 0.000297858) 2075
(0.0233359 0.0110452 0.000289471) 289
(-0.0316656 0.00744028 0.00028009) 547
(0.0241918 0.0232905 0.000262098) 299
(0.00444865 -0.0898978 0.000300567) 3211
(0.0184758 0.0268169 0.00028174) 1091
(0.0502321 0.00146012 0.000261368) 1531
(0.0243852 -0.0253639 0.000286627) 860
(0.00867457 0.0306599 0.000285394) 1107
(0.0218726 0.0434385 0.000258701) 2354
(0.0182067 0.047898 0.000256007) 2355
(0.0240623 0.016131 0.000274919) 298
(-0.00093326 0.100408 0.000267728) 3494
(0.0158301 0.0350597 0.000270183) 2353
(0.00696529 -0.0184808 0.000289496) 839
(-0.000797453 0.072682 0.000266823) 2375
(-0.0203754 0.0428332 0.000261853) 2386
(-0.0259404 0.0260787 0.000338231) 1476
(0.0249858 0.010248 0.000269908) 289
(-0.0409931 -0.0179872 0.000283745) 1826
(0.00131508 0.0188731 0.000301322) 1110
(0.01924 -0.0220042 0.000254249) 857
(-0.0243874 -0.0245188 0.00029389) 812
(-0.0529301 0.00726502 0.000264242) 1803
(0.00211774 0.0257481 0.000276162) 1113
(-0.0434562 -0.0193554 0.000266801) 1826
(0.0255819 -0.0308856 0.000289361) 2113
(0.0109343 -0.0181407 0.000279711) 847
(0.018798 0.0216664 0.000237054) 1089
(0.0214518 -0.00535001 0.000316323) 263
(0.0214748 0.0409518 0.000257136) 2354
(0.0238279 -0.0257669 0.000286441) 860
(-0.0226531 -0.0095131 0.000265462) 568
(0.0114339 -0.0459994 0.000254697) 2098
(-0.0422524 -0.0192805 0.000248958) 1826
(0.0355814 -0.000144925 0.000265783) 276
(-0.00557125 0.0172929 0.000268882) 1118
(-0.00166042 -0.0561599 0.00024688) 2092
(0.0165119 -0.0458682 0.000261707) 2106
(-0.0170362 0.0366542 0.000264226) 2385
(0.0102752 -0.0151003 0.000237847) 845
(0.0094386 0.0151201 0.000252764) 1093
(-0.0922178 -0.00362936 0.000292704) 2931
(0.000258655 0.0157587 0.000272644) 1109
(0.00649032 -0.0573818 0.000264833) 2100
(0.0170474 0.00920448 0.000262664) 286
(0.0244129 -0.0254074 0.000281852) 860
(-0.000643074 0.0157564 0.000267222) 1109
(-0.0502059 0.0204481 0.000271007) 1796
(0.0400456 -0.0170855 0.000301987) 1514
(-0.0157431 0.00264687 0.000256607) 541
(-0.0134288 0.0339022 0.000252339) 1475
(-0.017265 -0.0309562 0.00029317) 820
(0.0177762 -0.000183415 0.000282491) 270
(-0.1006 -0.000631988 0.000275495) 2934
(-0.0272152 -0.0272542 0.000310068) 2065
(0.0322251 -0.00986496 0.00026063) 268
(0.0153721 0.0077899 0.000277935) 285
(-0.0418071 0.019381 0.000242263) 1794
(-0.0410766 0.0189835 0.000277434) 1794
(-0.0414673 -0.0189645 0.000283661) 1826
(-0.000764175 -0.097078 0.000254209) 3213
(0.031699 0.0228654 0.000289903) 1553
(0.0187893 0.0223957 0.000243405) 1090
(0.00168709 -0.066864 0.000279357) 2094
(-0.0281434 -0.0548892 0.000284734) 2077
(0.0236553 -0.0244804 0.000296912) 859
(0.0317356 0.0231673 0.00027766) 1553
(0.0184475 0.063752 0.000279952) 2366
(0.0097726 0.0244144 0.000259718) 1097
(0.028855 0.0589515 0.000285935) 2358
(-0.0267544 -0.0266909 0.000313843) 1406
(0.000549005 -0.0188461 0.000291504) 830
(-0.000903984 -0.102762 0.000302164) 3214
(0.0254049 0.0211742 0.000258094) 299
(0.0468265 -0.0140134 0.000322016) 1523
(0.019564 0.040837 0.000258148) 2354
(0.0349937 0.0155105 0.000306865) 1545
(0.0014599 -0.0996437 0.000261267) 3214
(0.0429687 -0.0117224 0.000244768) 1522
(-0.022184 0.0222399 0.000307391) 1138
(-0.0184119 -0.0353873 0.000262152) 2073
(0.0249297 -0.0159714 0.000277523) 258
(0.0260482 -0.0167228 0.000307057) 250
(-0.000780719 0.0766763 0.000282559) 2376
(-0.0250875 -0.0459878 0.00029074) 2075
(-0.0641936 -0.0152644 0.000308642) 1822
(0.0209018 -0.0400723 0.000282203) 2106
(0.0196594 0.0227599 0.000290934) 1090
(0.0434144 -0.0158872 0.000295038) 1514
(-0.0427349 -0.0237428 0.000294186) 1827
(0.0596415 0.00132887 0.000295758) 1533
(-0.0190637 0.0190921 0.000283775) 1136
(-0.025739 -0.0256101 0.000276037) 1406
(-0.0576203 -0.0140394 0.000257466) 1820
(0.0250975 -0.0255956 0.000281712) 860
(-0.0925206 0.00188403 0.000276235) 2931
(0.00794773 0.0488083 0.000259147) 2363
(-0.0236306 -0.0234101 0.000294201) 579
(-0.00958437 -0.0226229 0.000288352) 816
(0.0210892 -0.0245902 0.00027921) 859
(-0.0338484 0.0166489 0.000279445) 1401
(0.0178384 -7.28241e-05 0.000303267) 270
(0.00470755 -0.0933016 0.000276789) 3212
(-0.0636567 -0.0169302 0.000277211) 1822
(0.0138278 0.0202737 0.000268246) 1088
(-0.0226265 0.0225621 0.000274607) 530
(0.026583 -0.00939292 0.000299795) 266
(0.0314373 -0.0251499 0.00032805) 1505
(-0.00115338 0.0903739 0.000283121) 3491
(0.00324119 0.0157144 0.000252911) 1101
(0.0157482 0.0012541 0.00022763) 269
(0.0140689 -0.0114586 0.000262887) 245
(0.0147779 -0.0353711 0.000329369) 2105
(-0.0256684 0.0256682 0.000298545) 1400
(0.0189846 -0.0218354 0.000264584) 857
(0.0467066 -0.0145181 0.000321026) 1523
(-0.00905326 0.0220974 0.000265721) 1128
(0.0146329 0.0471205 0.0002651) 2363
(-0.0200638 -0.038558 0.000295477) 2073
(-0.0743312 0.0270389 0.000313598) 1800
(0.000565666 0.10056 0.000269484) 3494
(-0.0183012 0.0429017 0.000273622) 2386
(0.0317418 0.0225129 0.000273234) 1553
(-0.0228619 0.0416311 0.000263138) 2386
(-0.0245896 -0.0427941 0.000293637) 2075
(0.0324278 0.0187577 0.000281197) 1370
(0.0156441 0.0037479 0.000242074) 277
(-0.00759769 -0.0670931 0.000305493) 2086
(-0.0101769 -0.0263048 0.000252764) 817
(-0.0171924 0.0357967 0.000296861) 2385
(0.000796943 -0.0947688 0.000276926) 3212
(-0.0341645 0.0168655 0.000272277) 1401
(-0.0169838 0.033288 0.000297259) 1475
(0.0258612 -0.0537776 0.000309396) 2109
(0.0209326 -0.0231291 0.000284779) 858
(-0.0330702 0.015722 0.000295602) 1401
(-0.0271005 -0.0271592 0.000324548) 1435
(-0.0258303 0.011298 0.000286318) 537
(-0.0414414 -0.0189601 0.000277401) 1826
(0.0572122 -0.00136877 0.000263112) 1532
(0.0211591 -0.00766904 0.000258258) 263
(-8.20232e-05 0.0741648 0.000261533) 2375
(-0.0101602 -0.0150736 0.000312674) 813
(0.0320308 0.0212992 0.000289658) 1553
(-0.0243733 0.0242913 0.000325542) 532
(-0.0199858 0.0204151 0.000229765) 1137
(-0.0647667 -0.0353918 0.000297107) 1831
(0.0500903 0.00111627 0.000259044) 1531
(0.0146258 0.0166592 0.000236816) 1086
(-0.0169633 -0.00547579 0.000273783) 558
(0.0180693 0.0338388 0.000305532) 2353
(0.0146962 -0.0313397 0.000283066) 852
(-0.0695301 -0.0172453 0.000272275) 1823
(0.0254951 -0.00164674 0.000282548) 273
(-0.045843 0.0196588 0.000253848) 1795
(0.00888878 -0.0530787 0.000275705) 2099
(0.0193513 0.037523 0.000301055) 2353
(0.0313905 -0.0119219 0.000265701) 259
(0.0211863 0.0397312 0.000278847) 2354
(-0.0230764 0.042904 0.000324928) 2386
(-0.00368801 0.0381914 0.000255472) 1473
(-0.0381968 0.0192476 0.000288927) 1793
(-0.00213036 0.0158262 0.000322473) 1117
(-0.0275257 0.010179 0.000280949) 538
(0.044182 0.021844 0.000255229) 1547
(0.0192795 0.0221018 0.00026222) 1090
(0.021642 0.0236709 0.000256217) 1091
(-0.010701 0.0623679 0.000253304) 2381
(0.0136077 0.0283857 0.000293864) 1099
(-0.00187997 0.0775019 0.000274821) 2376
(-0.0127616 0.0619538 0.000265697) 2381
(0.0247731 -0.0292747 0.000292739) 2113
(-0.00397208 0.0198373 0.0002944) 1119
(0.00724833 -0.0322355 0.000266279) 843
(0.00744687 -0.0233744 0.000306252) 840
(-0.0532469 -0.0266314 0.000313294) 1829
(0.019376 -0.00342635 0.000790921) 263
(-0.0231033 -0.0229033 0.000242903) 579
(0.00283763 0.0340508 0.000291962) 1116
(-0.0150596 -0.0146922 0.000263088) 574
(-0.0397194 0.0193389 0.000284762) 1794
(-0.0460707 -0.0225455 0.000245808) 1827
(-0.0225933 -0.0404003 0.000262966) 2074
(0.0216477 0.0207032 0.000253008) 298
(0.0217165 -0.0232084 0.000277988) 859
(-0.0476329 -0.0247307 0.000271017) 1827
(-0.0197162 -0.0451624 0.000257501) 2075
(0.00681902 -0.0932367 0.000249384) 3212
(-0.0650258 0.00848966 0.000268028) 1806
(0.0206651 0.0394106 0.000265596) 2354
(-0.0171879 -0.0342031 0.000326241) 2073
(0.0270384 -0.000182334 0.000274479) 273
(0.0194181 0.0403751 0.000233112) 2354
(-0.0145246 0.0498127 0.00026219) 2379
(-0.0245929 -0.0243697 0.000262426) 580
(0.01672 -0.0402229 0.000307173) 2106
(-0.0392922 0.0191582 0.000273369) 1794
(0.0243388 -0.0155987 0.000294362) 258
(-0.0227287 0.0228578 0.000307284) 1139
(-0.0339783 -0.0179945 0.00029378) 1825
(-0.0176977 0.0176909 0.000303384) 527
(0.0150785 -0.00997092 0.000234399) 253
(0.0147679 0.0274853 0.000281507) 1099
(-0.0960446 0.00659902 0.0002713) 2932
(-0.0281458 -0.00983462 0.000286671) 562
(0.0036033 0.0383718 0.000285029) 2369
(-0.0459164 0.020878 0.000268471) 1795
(0.00274605 -0.0902753 0.000262795) 3211
(0.0367858 0.0163921 0.000257517) 1545
(-0.0488917 0.0253896 0.000258167) 1796
(-0.0256523 -0.0256304 0.000277874) 580
(0.0093098 -0.0152113 0.000285184) 845
(-0.0109384 -0.0145982 0.000299384) 805
(-0.0161294 0.0424629 0.000259609) 2386
(-0.0112404 0.0204333 0.000257499) 1128
(0.019183 0.038761 0.000274767) 2353
(-0.00210227 0.0455721 0.000244327) 2370
(-0.0233177 -0.0949643 0.000297328) 3205
(0.0233924 -0.0457383 0.000279153) 2107
(0.000360303 -0.0188431 0.000302014) 830
(0.0192433 -0.00671713 0.000289774) 263
(-0.017138 -0.00684943 0.000302412) 566
(-0.0407239 0.0192678 0.00025047) 1794
(-0.0261554 -0.0259018 0.000291191) 1406
(-0.0341422 -0.0179333 0.000269477) 1825
(0.0215493 -0.014956 0.000285843) 248
(0.0321238 -0.0115708 0.000234248) 260
(0.0440032 0.0138024 0.000282562) 1538
(-0.0226289 -0.0409746 0.000268931) 2074
(-0.00198452 -0.0998115 0.000274559) 3214
(0.0585197 0.000992297 0.000277912) 1532
(-0.0201517 0.0419048 0.00025967) 2386
(-0.0193768 -0.0341064 0.000301019) 2073
(0.00159422 -0.0890672 0.000305514) 3210
(0.0425185 0.000518531 0.000237728) 1529
(0.0251807 -0.0084779 0.000301482) 265
(-9.00567e-05 -0.0607878 0.000275763) 2093
(0.0216508 0.0095983 0.000257916) 288
(-0.0128393 0.0324495 0.000280558) 1132
(0.0503591 -0.000801242 0.00031625) 1531
(0.00401632 -0.0884964 0.000323608) 3210
(-0.0266105 0.026374 0.000314834) 1400
(-0.0654944 0.00443707 0.000281979) 1814
(-0.0223924 -0.0410847 0.000280296) 2074
(-0.0829977 -0.00117502 0.000297746) 2929
(-0.0222029 0.0388068 0.000273663) 2386
(0.024478 0.0106523 0.000271097) 289
(-0.0656707 0.00764044 0.000304479) 1806
(0.0326068 -0.0240427 0.000278782) 1505
(-0.0744437 0.000848402 0.000268162) 1815
(-0.0193766 -0.0462738 0.000256242) 2075
(0.0167339 0.0384909 0.000251174) 2353
(-0.0286058 0.0116756 0.000301651) 538
(0.0208855 0.0229933 0.000288596) 1090
(0.032449 0.0129061 0.000284216) 292
(0.0119341 -0.0517307 0.000263538) 2099
(0.0186023 -0.0461581 0.0002858) 2107
(-0.0251054 0.0269657 0.000259938) 1476
(-0.0146859 0.0563657 0.000290093) 2380
(0.0243744 0.022122 0.000283348) 299
(-0.0176017 -0.0340284 0.000288511) 2073
(-0.0257057 -0.045492 0.000254364) 2075
(0.0244229 0.0263086 0.000288263) 1092
(0.00486641 0.0477539 0.000265316) 2370
(0.0111238 -0.0588055 0.000255567) 2101
(-0.0187249 -0.0427687 0.000279567) 2074
(0.00168485 -0.0892155 0.000304644) 3211
(0.0224218 0.0231952 0.000299135) 1091
(0.0163922 0.0349818 0.000290633) 2353
(-0.0229651 0.0416473 0.000270097) 2386
(0.0161387 0.00703442 0.000290497) 286
(-0.0429781 -0.0236705 0.000263392) 1827
(-0.0417371 0.0197452 0.000253321) 1794
(0.0368531 0.000796333 0.000297329) 1368
(-0.0422693 -0.0232686 0.000271313) 1826
(-0.018769 -0.034175 0.000281236) 2073
(0.0419867 -0.0137684 0.00026099) 1522
(0.0333128 0.0189269 0.000307432) 1370
(-0.0901248 0.00107962 0.000286384) 2931
(0.0132635 -0.0175227 0.000265154) 855
(0.0186333 0.021707 0.000270837) 1089
(-0.0242407 -0.0240211 0.000300358) 580
(0.0251918 0.026087 0.000304506) 1470
(-0.0962298 -0.00410461 0.000265059) 2933
(0.000271396 -0.0188433 0.000298851) 830
(-0.000243883 -0.0969808 0.00027335) 3213
(-0.0243214 0.0240878 0.00028447) 532
(-0.0354399 0.00693053 0.000281063) 1402
(-0.0825838 0.0032204 0.000284482) 2929
(-0.0436048 0.0228737 0.000276478) 1795
(-0.00942111 -0.0474505 0.000318436) 2082
(0.00087631 0.0914164 0.000265067) 3491
(-0.0406538 -0.0185522 0.000271531) 1826
(-0.0100004 0.0623825 0.000266389) 2381
(0.0255878 -0.0258375 0.000286825) 1441
(-0.104035 -0.000970658 0.000265651) 2935
(-0.0158126 0.0291593 0.000290354) 1131
(0.0356982 -0.0112791 0.000268998) 1367
(-0.0175924 -0.0340012 0.000252489) 2073
(-0.00614678 -0.0155348 0.000280901) 821
(0.000410834 -0.0578468 0.000279875) 2092
(0.0326806 0.0183062 0.000260339) 1370
(0.017796 0.0138683 0.000266705) 295
(0.0218252 0.0235247 0.000292415) 1091
(-0.0241572 -0.0240119 0.000284429) 579
(-0.0504303 -0.0209981 0.000246454) 1828
(-0.0808656 0.000771486 0.000282258) 1816
(0.0162803 0.0350807 0.000266799) 2353
(0.0160468 -0.0621913 0.000291366) 2101
(-0.0233249 0.0532097 0.000309346) 2388
(-0.0265821 -0.0263836 0.000308515) 1406
(0.00273978 0.0622536 0.000257893) 2373
(0.00939015 0.0218896 0.000269613) 1096
(-0.0385424 0.0194875 0.000306673) 1793
(-0.0807283 0.00105828 0.00027716) 1816
(-0.0194861 -0.00338547 0.000292746) 559
(0.0180038 0.0923029 0.000315572) 3484
(-0.0256035 0.0254525 0.000261076) 532
(0.0172754 -0.0410216 0.00030117) 2106
(0.0255888 -0.0257396 0.00027297) 1441
(-0.041661 -0.0188272 0.000301034) 1826
(0.00368186 0.0166278 0.000278104) 1102
(-0.0239376 -0.0235976 0.000289408) 579
(-0.0651081 0.0091361 0.000295356) 1806
(-0.0287711 0.0109924 0.000286347) 538
(0.0212249 -0.0230911 0.000292087) 858
(0.000736054 0.0157529 0.000297142) 1109
(0.0251411 0.0261126 0.000311036) 1470
(-0.0253688 0.0255092 0.000291069) 1140
(0.0143268 0.0366167 0.000302818) 2353
(0.0364254 0.0128616 0.000295198) 1545
(-0.0170752 -0.0307948 0.000294112) 820
(0.00966789 0.0224587 0.000258785) 1096
(0.0435009 0.0159498 0.000273691) 1546
(-0.0157093 -0.00313307 0.000297662) 557
(0.0201916 0.0452603 0.00029738) 2355
(0.00678962 0.0190333 0.000254139) 1103
(0.0241905 0.0260656 0.00025182) 1092
(-0.0156759 0.00386641 0.000236719) 541
(0.0174695 -0.0327256 0.000269163) 1440
(0.0436295 -0.0147428 0.000304206) 1522
(0.0446102 -0.0157334 0.000291603) 1514
(-0.041934 -0.023893 0.000314407) 1826
(0.0350188 0.00222082 0.000303209) 276
(-0.102116 0.0027632 0.0180477) 2990
(-0.0430967 -0.0212298 0.000277345) 1826
(-0.0238908 -0.043492 0.000256137) 2075
(-0.00427597 -0.0892115 0.00026969) 3211
(-0.0256727 -0.0256714 0.00026615) 1406
(-0.0349147 -0.0179558 0.000273024) 1825
(-0.0876148 -0.00809721 0.000263262) 2930
(-0.0534288 0.0310828 0.00028302) 1797
(0.0163539 0.0322159 0.000282919) 1471
(-0.00441027 0.0218956 0.000292771) 1120
(0.0600403 0.00147617 0.000257949) 1533
(-0.0632372 0.0114611 0.0002744) 1805
(0.0316634 -0.020362 0.00028283) 1365
(-0.0250114 0.0454715 0.000311851) 2387
(-0.0438426 0.0191788 0.000252344) 1794
(0.0199073 0.00582744 0.000328429) 279
(0.0322557 -0.000181952 0.000265588) 275
(-0.0757556 0.00265972 0.000261754) 1815
(0.0124391 -0.060126 0.000269708) 2101
(0.0502087 -0.000865873 0.000292302) 1531
(0.0321315 -0.0184882 0.00027338) 1366
(-0.024327 0.024447 0.000267308) 1140
(0.0182017 0.0343577 0.000288211) 2353
(0.0217101 -0.00851478 0.000263314) 256
(-0.0267865 -0.00651616 0.000236296) 561
(-0.0219081 -0.0582286 0.000251784) 2077
(0.00245869 0.0299221 0.000262566) 1114
(-0.000501239 -0.0584904 0.000318191) 2092
(-0.0536088 -0.0241026 0.000270017) 1828
(-0.0154474 0.0403971 0.000267696) 2385
(0.0243881 -0.0254345 0.000271922) 860
(0.00440383 -0.0186506 0.000293897) 838
(0.0442634 0.0172441 0.000273025) 1546
(-0.0190411 -0.0333678 0.000318821) 2073
(0.0580503 -0.00134707 0.000277368) 1532
(-0.0462748 -0.0229671 0.000279851) 1827
(-0.00591744 -0.0155513 0.000287306) 821
(-0.023789 0.023615 0.0002843) 531
(0.0241002 -0.0250674 0.000278739) 860
(0.0261154 -0.0263884 0.000287357) 1441
(0.0248457 -0.025531 0.000283085) 860
(0.0129506 0.0213964 0.000266511) 1096
(-0.02549 -0.0255638 0.00027561) 812
(-0.0191424 -0.0190878 0.000307835) 576
(-0.021208 0.0213301 0.00029833) 1138
(-0.0482074 0.0246177 0.000307961) 1796
(-0.0401856 -0.0176311 0.000286381) 1826
(-0.0836344 0.000183306 0.000287581) 2929
(0.0108479 -0.0600867 0.000272634) 2101
(0.00455156 0.10041 0.000280446) 3494
(0.0157471 -0.000378182 0.000299119) 269
(-0.0774301 0.00590826 0.000274036) 1816
(-0.00980365 0.0674455 0.000279849) 2382
(-0.0160895 -0.0347318 0.000305365) 2073
(-0.100492 0.00438368 0.000302286) 2934
(0.0430689 0.0155577 0.000292973) 1546
(0.0587242 -0.00306138 0.000277037) 1532
(0.0403144 -0.0169277 0.000272541) 1514
(0.0366906 0.0146681 0.00025754) 1545
(-0.0192819 0.0444341 0.00028167) 2386
(0.0568312 -4.05504e-05 0.000289716) 1532
(0.0154753 0.0575789 0.000302317) 2365
(-0.0783537 -0.00169274 0.000292496) 1816
(-0.0213689 -0.0397333 0.000264225) 2074
(-0.00526942 -0.0310119 0.000251629) 827
(0.0351933 0.0158526 0.000286061) 1545
(0.0244085 -0.0253889 0.00028333) 860
(-0.035087 -0.0177783 0.000295825) 1825
(-0.02567 0.0256606 0.000273115) 532
(-0.048537 0.0239109 0.000250082) 1796
(-0.0240625 -0.0240678 0.00028566) 811
(-0.0193856 -0.007534 0.000276868) 567
(-0.0191692 -0.0172967 0.000261655) 576
(0.0413158 -0.0165038 0.000263291) 1514
(-0.0171228 -0.0354643 0.000245401) 2073
(0.0250969 0.00894173 0.000269642) 281
(-0.0130151 0.0224884 0.000272985) 1128
(0.0216622 -0.0149425 0.000276303) 248
(0.0199834 -0.0372985 0.000302663) 2105
(-0.00362587 -0.0964932 0.000295618) 3213
(0.000967308 -0.103828 0.000288472) 3215
(0.00270613 -0.0401932 0.000268831) 2089
(0.001892 0.10043 0.000265715) 3494
(-0.0194544 -0.00317384 0.000289419) 559
(-0.035393 -0.0169256 0.000268173) 1825
(-0.0207198 0.0385982 0.000299321) 2386
(-0.0256724 -0.0256705 0.000284894) 1406
(0.0154991 -0.0182727 0.000248635) 855
(0.0386221 0.0187164 0.000286751) 1545
(0.00109324 0.0724846 0.00028008) 2375
(-0.0157712 0.00113484 0.000280975) 549
(-0.000903293 -0.0549938 0.000268706) 2092
(-0.0216087 -0.0212626 0.000273744) 578
(-0.0420259 -0.024444 0.000292457) 1826
(-0.0133882 -0.0297794 0.000290329) 819
(0.0585197 -0.00217197 0.000305385) 1532
(-0.0243778 -0.051091 0.000281959) 2076
(0.0253502 -0.0471574 0.000283567) 2107
(-0.0232868 0.0230772 0.000290612) 531
(-0.0475214 -0.0230566 0.000276329) 1827
(-0.00615186 0.0385058 0.000264922) 2377
(3.30029e-05 0.0361675 0.000253395) 1473
(0.0197268 0.0412613 0.000281547) 2354
(-0.042544 0.0216201 0.000281528) 1794
(-0.0368128 -0.0199508 0.000288906) 1825
(-0.0372307 0.0188676 0.000263241) 1793
(0.000439301 -0.102775 0.000279551) 3214
(-0.0422289 -0.0245539 0.00031567) 1826
(0.0130482 0.0524815 0.000291432) 2363
(0.00265347 0.0778203 0.000291628) 2376
(-0.0158044 -0.00205159 0.00030402) 549
(-0.0516765 -0.0221748 0.000264778) 1828
(-0.0369565 0.0190276 0.000305487) 1793
(0.022613 0.0246904 0.00025969) 1091
(-0.0201365 -0.0398384 0.00028096) 2074
(0.000214351 0.0157568 0.000275762) 1109
(-0.00975512 0.0549113 0.00026605) 2380
(-0.0605157 -0.0303992 0.000265513) 1830
(0.0282502 0.0119113 0.000275804) 290
(0.000243752 0.0899491 0.000289905) 3491
(-0.0240113 0.0239814 0.000299318) 531
(-0.0259438 0.0258108 0.000309814) 1400
(-0.0272205 -0.0272222 0.000309088) 1435
(0.0239085 0.0260336 0.000314184) 1092
(0.015683 -0.0311136 0.000252592) 852
(0.0450816 -0.0124211 0.000261146) 1522
(0.00104369 -0.0195019 0.000302713) 831
(-0.00621821 -0.0155301 0.000283523) 821
(-0.00155983 0.100247 0.000291986) 3494
(-0.0272245 -0.0272243 0.00029547) 1833
(-0.0212277 0.0504425 0.000255825) 2388
(0.0217593 0.0397784 0.000264163) 2354
(-0.0263129 -0.025953 0.000305071) 1406
(0.0129244 0.0130285 0.000256572) 1085
(-0.0594477 0.0125603 0.000287494) 1805
(0.045365 -0.0133556 0.000277502) 1522
(-0.00401834 0.0156497 0.000290485) 1117
(0.020282 -0.0452193 0.000261778) 2107
(-0.0242471 -0.0240201 0.000285409) 580
(-0.0255836 0.0450957 0.000317287) 2387
(0.0233774 0.0275212 0.000322781) 1470
(0.00604732 -0.0536654 0.000294082) 2099
(0.000795528 0.0739286 0.000260393) 2375
(-0.0225656 -0.0226056 0.000310605) 810
(0.0605156 -0.000884553 0.000267249) 1533
(0.0200204 -0.037511 0.000292095) 2105
(0.0243062 -0.0469716 0.000241594) 2107
(-0.0799494 0.000128959 0.000261787) 1816
(-0.000308392 0.0580687 0.000295125) 2372
(-0.0221875 0.050149 0.000257643) 2388
(-0.0188395 -0.00112875 0.000279888) 550
(0.000608117 -0.0198195 0.000275273) 831
(-0.05327 -0.0208945 0.000285555) 1828
(0.03627 -0.0124187 0.000274278) 1367
(-0.000671414 -0.093908 0.000258709) 3212
(-0.0187117 -0.0391577 0.000300208) 2073
(0.0135539 0.0580137 0.000286256) 2365
(0.037645 -0.0101131 0.000297929) 1521
(0.0320889 0.0211835 0.000267107) 1553
(0.0399781 -0.0189385 0.000294583) 1514
(-0.0825609 -0.00021295 0.000254866) 2929
(-0.027206 -0.0272091 0.00028549) 1435
(-0.0647044 0.0278513 0.000288605) 1798
(-0.0501442 0.0205853 0.000280864) 1796
(0.0268353 -0.0319896 0.000321315) 2113
(-0.0299874 0.0603884 0.000274399) 2390
(-0.0586347 0.0105336 0.000306945) 1804
(0.0157541 -0.000989188 0.00026903) 269
(0.0219919 0.0241455 0.000291968) 1091
(0.046793 0.0140823 0.000298241) 1539
(-0.0807803 0.00326208 0.000253841) 1816
(-0.0179536 0.0329321 0.000276705) 1475
(0.0509639 0.0033025 0.000259486) 1531
(0.0325717 -0.0238373 0.000264083) 1505
(-0.00780345 0.0563348 0.000264039) 2380
(0.0185679 0.0451592 0.000310541) 2354
(0.0139852 -0.0340553 0.000279899) 1440
(-0.0175038 0.0362053 0.000298254) 2385
(-0.00207021 -0.0585584 0.00030474) 2092
(-0.0472688 0.0224603 0.000286247) 1795
(-0.0240015 -0.00661392 0.000259985) 560
(0.0464453 0.0156622 0.000281593) 1539
(-0.0254321 0.0253523 0.000292083) 532
(-0.067005 0.00433559 0.000284201) 1814
(-0.0333955 0.0162597 0.000262788) 1401
(-0.100518 0.0058119 0.000291379) 2934
(-0.0500384 0.0260587 0.000244187) 1796
(-0.0597104 0.0275901 0.000274898) 1798
(0.0344141 0.0162198 0.000287178) 1370
(0.0274925 0.0235976 0.00026601) 1371
(0.021629 0.0236373 0.000253129) 1091
(0.0297087 0.062543 0.000287581) 2358
(-0.0217566 0.0395748 0.000272335) 2386
(-0.00391298 0.0329269 0.00028841) 1123
(0.0184267 -0.00308379 0.000262181) 262
(-0.0394955 0.0191653 0.000278092) 1794
(0.0268068 -0.027614 0.000281555) 2113
(-0.0366896 0.0184196 0.000303047) 1793
(-0.100643 0.00168095 0.000258672) 2934
(-0.0847742 0.00622711 0.000289683) 2929
(-0.0197381 -0.0333021 0.000276662) 2073
(0.0287591 -0.0215151 0.000292802) 252
(-0.0172992 -0.00604177 0.000307037) 558
(0.0385915 -0.0107417 0.000282879) 1521
(7.47772e-05 0.0729118 0.000277473) 2375
(0.022427 0.0245297 0.000285673) 1091
(0.0274031 0.0503903 0.0003091) 2356
(0.00054129 0.100418 0.000282433) 3494
(-0.00403243 -0.0274756 0.000247907) 825
(0.0156357 0.00389617 0.000268053) 277
(0.0208566 -0.0231275 0.000297899) 858
(0.0604307 -0.00155133 0.000255086) 1533
(0.00415005 0.0368392 0.000244763) 1473
(0.0218995 -0.0233593 0.000261751) 859
(-0.00576787 -0.0584507 0.000229549) 2092
(-0.0443485 -0.024869 0.000277894) 1827
(-0.0183277 -0.0334929 0.000275008) 1436
(0.0260572 0.0100437 0.000274789) 289
(0.0239821 0.0259563 0.000287162) 1092
(-0.0040634 -0.0986093 0.000280704) 3213
(0.0440147 -0.0148319 0.00027828) 1522
(0.0330113 0.0205143 0.000309801) 1545
(0.0267998 0.00937693 0.000252896) 282
(-0.0191306 -0.0337283 0.000266479) 2073
(-0.0482394 0.0261492 0.000263784) 1796
(-0.0663588 0.00762723 0.000305292) 1806
(-0.0188867 0.0023823 0.00028828) 550
(-0.00206273 -0.0601164 0.000238281) 2093
(0.0253308 0.0100972 0.000274747) 289
(0.000193301 0.015751 0.000273474) 1109
(-0.0445017 0.0237064 0.000280813) 1795
(0.0360089 0.0197864 0.000286254) 1545
(0.021899 0.0234309 0.000289993) 1091
(-0.0251816 0.0276159 0.000286493) 1476
(0.0418516 0.0135302 0.00026302) 1538
(-0.0653037 -0.0363957 0.000298422) 1831
(-0.000124154 0.100443 0.000265911) 3494
(-0.096119 -0.00568723 0.000261492) 2933
(0.036322 -0.0133849 0.000280277) 1513
(0.0289734 0.0189238 0.000285493) 300
(0.0152392 -0.0403877 0.000261023) 2105
(-0.0250657 0.00909089 0.000315318) 545
(-0.0341189 -0.0178919 0.000260861) 1825
(0.000846937 0.0960578 0.00031568) 3493
(0.00586909 -0.0185033 0.000249896) 838
(0.0421155 -0.0172915 0.000282067) 1514
(-0.00571426 0.0961203 0.000324747) 3493
(0.0189743 -0.0053432 0.000312526) 263
(-0.0594344 -0.0149849 0.000263027) 1821
(-0.0219261 -0.0380232 0.000296605) 2074
(-0.0227583 -0.0452051 0.000291725) 2075
(0.00427489 0.0709025 0.000245693) 2375
(0.0243257 0.026238 0.000276679) 1092
(0.00357323 0.0546576 0.000279596) 2372
(-0.0227935 0.0415508 0.000264687) 2386
(0.0168248 0.0195782 0.000283645) 1088
(0.0136906 -0.053312 0.000269488) 2100
(-0.0181475 -0.0317846 0.000255469) 1436
(0.00390613 0.0165657 0.000280397) 1102
(0.0342106 -0.021591 0.000282312) 1505
(0.0215009 -0.0403076 0.000282031) 2106
(0.0246056 0.0263982 0.00028567) 1092
(0.00947013 -0.0257853 0.000329723) 849
(-0.000701915 0.0742071 0.000273897) 2375