/*--------------------------------*- C++ -*----------------------------------*\
| =========                 |                                                 |
| \\      /  F ield         | OpenFOAM: The Open Source CFD Toolbox           |
|  \\    /   O peration     | Version:  plus.master.MPPICInterFoam            |
|   \\  /    A nd           | Web:      www.OpenFOAM.com                      |
|    \\/     M anipulation  |                                                 |
\*---------------------------------------------------------------------------*/
FoamFile
{
    version     2.0;
    format      ascii;
    class       volScalarField;
    location    "8";
    object      epsilon;
}
// * * * * * * * * * * * * * * * * * * * * * * * * * * * * * * * * * * * * * //

dimensions      [0 2 -3 0 0 0 0];

internalField   nonuniform List<scalar> 
11821
(
0.000413951
0.00229723
0.0151853
0.0215191
0.00554305
0.000680521
0.000193349
0.00167858
0.0480587
0.256842
0.427301
0.152494
0.0259022
0.000792781
0.0103101
0.217256
0.372152
1.26466
0.264392
0.163434
0.00712276
0.0251823
0.44065
1.42797
1.22842
1.13887
0.340536
0.0169167
0.0119548
0.234472
0.390458
1.22179
0.284459
0.177173
0.00819882
0.00198122
0.0521626
0.27154
0.479974
0.164556
0.0294356
0.000969669
0.000483466
0.00264479
0.0166488
0.0251876
0.00631081
0.00080205
0.000217556
0.00340605
0.0274569
0.135036
0.190856
0.0468047
0.00613743
0.00115543
0.0238967
0.194048
0.727657
1.36893
0.389465
0.0627127
0.0057131
0.112761
0.666851
1.39289
4.25299
1.14091
0.298005
0.0332324
0.250083
1.49856
4.83887
4.18639
5.98708
0.790551
0.0791097
0.129703
0.727822
1.48067
4.24733
1.26603
0.352313
0.0430665
0.0290861
0.223711
0.815125
1.61073
0.474807
0.0821332
0.00784047
0.00410999
0.0329843
0.15876
0.24192
0.0629287
0.00851981
0.0014006
0.0116704
0.0689342
0.273042
0.41047
0.102099
0.0144929
0.0041584
0.0695687
0.439524
1.44912
2.65708
0.783133
0.109176
0.0118077
0.301027
1.49569
2.86454
6.05125
2.73287
0.482024
0.0468025
0.647683
3.33487
7.32227
6.48806
9.73071
1.15855
0.103387
0.33496
1.59
3.01562
6.06663
2.86559
0.569757
0.0610726
0.086455
0.506072
1.61588
3.059
0.959241
0.152684
0.0163322
0.0149033
0.088394
0.335807
0.525269
0.1503
0.0218059
0.00501397
0.0230369
0.0920092
0.339506
0.493291
0.12687
0.0253463
0.0115165
0.101267
0.625787
2.1033
3.372
0.961833
0.129861
0.0210874
0.459086
2.50048
4.23851
5.74877
4.05284
0.575342
0.0572442
1.06092
5.84611
7.70043
7.71312
10.3877
1.22741
0.109131
0.512489
2.66222
4.4353
5.82696
4.23833
0.660671
0.0694308
0.126211
0.73136
2.36894
3.88187
1.18517
0.180127
0.0263034
0.0283469
0.121685
0.433057
0.638725
0.188372
0.0349826
0.0130013
0.0258604
0.0818652
0.292185
0.398504
0.110855
0.0281616
0.0154179
0.0918565
0.591567
2.21089
2.94457
0.831552
0.115658
0.0241837
0.437093
2.93364
4.79152
4.95894
3.90751
0.520917
0.0560493
1.07789
8.01372
6.62137
7.8697
9.19966
1.11122
0.101864
0.499422
3.24182
4.68358
5.19081
4.20005
0.594941
0.0657805
0.11624
0.727925
2.65327
3.49097
1.04753
0.158824
0.0287966
0.0309615
0.110837
0.396335
0.54963
0.166497
0.0371068
0.0170074
0.000137624
0.000134266
0.000133238
0.000127638
0.000123099
0.00011964
0.000116273
0.000113432
0.000234842
0.000160972
0.000135096
0.00012507
0.000118745
0.000113961
0.000109576
0.000106683
0.00108871
0.00025952
0.000149256
0.00012805
0.000120105
0.000114194
0.00010979
0.000106224
0.00249323
0.000422345
0.000161123
0.000123296
0.000114014
0.000108689
0.000102959
9.95526e-05
0.00124018
0.000278544
0.000149503
0.000126134
0.000117926
0.000112341
0.000107898
0.000104319
0.000275076
0.000164394
0.000136896
0.000123612
0.000117605
0.00011298
0.0001083
0.000105927
0.000151214
0.000139525
0.00013418
0.000128492
0.000124737
0.000121451
0.000118071
0.000115102
0.000547908
0.000425417
0.000363128
0.000317341
0.000281014
0.00025144
0.000226863
0.000205979
0.000961439
0.000499917
0.000387485
0.000328567
0.000286533
0.000253501
0.000226616
0.000204125
0.00265005
0.000673359
0.000418531
0.000336306
0.00028825
0.000252273
0.000223751
0.000199983
0.00490983
0.000828641
0.000439566
0.000340955
0.000290032
0.000252915
0.000223203
0.000198759
0.00333069
0.000726907
0.000424662
0.000336727
0.000288376
0.00025268
0.000224244
0.000200487
0.00118999
0.000531158
0.000392664
0.000330007
0.000287672
0.000254896
0.000228213
0.000205896
0.000607165
0.000442483
0.00037316
0.000326081
0.000289702
0.000260216
0.000235751
0.000214736
0.00257942
0.00216883
0.00188835
0.00161841
0.00134927
0.00109033
0.000855601
0.000658661
0.00351328
0.00239996
0.00199159
0.0016883
0.00140256
0.00112766
0.000875502
0.000662091
0.00627468
0.0027996
0.0020921
0.00173533
0.00143625
0.00115235
0.00088968
0.000665381
0.00943894
0.00311043
0.00215142
0.00175895
0.001453
0.001165
0.000897114
0.000667323
0.00740557
0.00294095
0.00212318
0.0017476
0.00144421
0.00115817
0.000893554
0.000667722
0.00404612
0.00250357
0.00202258
0.00170384
0.00141371
0.00113674
0.000883391
0.000669712
0.00276048
0.0022422
0.00193696
0.00165839
0.00138379
0.00112044
0.00088269
0.000684896
0.0086463
0.00747927
0.00648858
0.00557192
0.00479213
0.00417956
0.00369301
0.00320503
0.0102722
0.0081079
0.00688007
0.00583808
0.00495271
0.00426068
0.00373176
0.00322625
0.0138208
0.00880208
0.00716905
0.00602692
0.00507636
0.00433201
0.00377344
0.0032567
0.0175554
0.0093132
0.00733412
0.00613201
0.00515058
0.0043791
0.00380143
0.00327355
0.0150832
0.00904914
0.00727036
0.00609548
0.00512958
0.0043732
0.00380384
0.00327572
0.0110291
0.00835062
0.00702192
0.00594875
0.00504481
0.00433749
0.00379377
0.00326946
0.00905617
0.00774147
0.00671076
0.00577337
0.00497498
0.00434213
0.00383079
0.00330708
0.0126476
0.0116249
0.0108868
0.0101576
0.00923516
0.0078619
0.00595674
0.00397487
0.0140892
0.0119862
0.0109318
0.0100965
0.00922134
0.00799934
0.00621035
0.00419758
0.0174323
0.0125763
0.0110834
0.0101651
0.00932238
0.00819144
0.00645817
0.00439599
0.0210672
0.0131044
0.0112417
0.0102654
0.00942278
0.00831087
0.00658015
0.00447999
0.0185441
0.0128309
0.0112116
0.0102672
0.00940981
0.00825781
0.00649215
0.00439376
0.0148556
0.012282
0.0111429
0.0102838
0.0093845
0.00812057
0.00626842
0.00418902
0.0131741
0.0120306
0.0112742
0.0105334
0.00957707
0.0081293
0.0061084
0.00400433
0.000206182
0.000171897
0.000168993
0.000165368
0.000162073
0.000159228
0.000156633
0.000154788
0.000442794
0.000200167
0.000159975
0.000149235
0.000142187
0.000135531
0.000132407
0.000128652
0.00212407
0.000456072
0.000188344
0.000145041
0.000133018
0.000124475
0.000119004
0.000112285
0.00425695
0.000756463
0.0002204
0.000143635
0.000125381
0.000113858
0.000104811
9.81035e-05
0.00183547
0.000409453
0.000184332
0.000148177
0.00013522
0.000124728
0.000115712
0.000113355
0.000382597
0.000185948
0.000156195
0.000145083
0.000140247
0.000137593
0.000133282
0.000129426
0.000190799
0.000163995
0.000158052
0.000154874
0.000152093
0.000148907
0.000146588
0.000144542
0.000957734
0.000624469
0.000520559
0.000447062
0.000388358
0.000341025
0.000302974
0.000272105
0.00317998
0.000969185
0.000652126
0.000531498
0.000451326
0.000387488
0.000334515
0.00028946
0.0140234
0.00206912
0.0008928
0.000650005
0.000535683
0.000452051
0.000383227
0.00032448
0.0266333
0.00296687
0.000979107
0.000660411
0.000533652
0.000448173
0.000379943
0.000323028
0.0114665
0.00176362
0.000809341
0.000600159
0.000497307
0.000422206
0.000360298
0.000308308
0.00260721
0.000859562
0.000596397
0.000488441
0.000415811
0.000357445
0.000309997
0.000270639
0.000867418
0.000582261
0.000481337
0.000408773
0.000351467
0.000306041
0.000270223
0.000241733
0.00423399
0.00294594
0.00253497
0.00219331
0.00184354
0.00149176
0.0011639
0.000888174
0.011649
0.00403934
0.00287452
0.00241569
0.00205074
0.00168592
0.00132275
0.000989715
0.0412625
0.00693722
0.00330998
0.00254154
0.00213854
0.00178235
0.00142679
0.00108491
0.0795282
0.00962869
0.00348316
0.00249671
0.00206756
0.0017143
0.00136841
0.00103713
0.034804
0.00615667
0.00315527
0.00248004
0.00209951
0.00174962
0.00139562
0.00105574
0.0094364
0.00364228
0.00271358
0.00230049
0.00194796
0.00159179
0.00124168
0.000927122
0.00373185
0.00275221
0.00238957
0.00206471
0.00172828
0.00139117
0.00107881
0.000817511
0.012282
0.00958373
0.00822334
0.00705472
0.00603753
0.00520726
0.00452675
0.00384764
0.023584
0.0116221
0.00899041
0.00754503
0.00639684
0.00548672
0.00479712
0.00418171
0.0663633
0.0161661
0.00963703
0.00763164
0.00632515
0.00531708
0.0045792
0.00398081
0.128677
0.0208684
0.0100031
0.00759171
0.00623547
0.00521821
0.00448263
0.00389145
0.0573738
0.0150433
0.00945172
0.00761162
0.00636277
0.00539212
0.00467976
0.00409146
0.0201104
0.0108845
0.00867534
0.00733137
0.00622633
0.00534306
0.00466677
0.00404973
0.0112018
0.00905416
0.00781179
0.00669798
0.00572882
0.00494717
0.00431545
0.00368775
0.0168187
0.014489
0.0135041
0.0126498
0.0115534
0.00985955
0.00741348
0.00476276
0.0269245
0.0163217
0.0141849
0.0133244
0.0126001
0.0113946
0.00922322
0.00643208
0.0651908
0.0205559
0.0146644
0.0133099
0.0127218
0.0119468
0.0102869
0.00789274
0.121288
0.0250333
0.0149917
0.0132005
0.0126205
0.0119941
0.0105353
0.00829321
0.0568051
0.0195204
0.014578
0.0134185
0.0128617
0.0120162
0.0102137
0.00765335
0.0235637
0.0155366
0.0137927
0.0129672
0.0121834
0.0109128
0.00873578
0.00600683
0.0156779
0.0138624
0.0129712
0.0121373
0.0110566
0.00940395
0.00705425
0.0045438
0.000204177
0.000157059
0.000145683
0.0001413
0.000137329
0.000133746
0.000131046
0.000128662
0.000588617
0.000216146
0.000137348
0.000118754
0.000109544
0.000104923
0.000101987
9.71151e-05
0.00259507
0.000487541
0.000166206
0.000116285
0.000101859
9.2148e-05
8.30716e-05
7.55787e-05
0.00328898
0.000522748
0.000165796
0.000115396
9.89313e-05
8.91269e-05
8.13541e-05
7.46446e-05
0.000928971
0.000237801
0.000136818
0.000116608
0.000106838
0.000100646
9.47951e-05
8.72118e-05
0.000217736
0.000147652
0.000129006
0.00012046
0.000113187
0.000107411
0.000103426
9.95458e-05
0.00013706
0.00012928
0.000129305
0.000127294
0.000125239
0.00012225
0.000119007
0.000115578
0.000990263
0.000602105
0.000489465
0.000411955
0.000350874
0.000302132
0.000263171
0.000231833
0.00373904
0.00108053
0.000667229
0.00051381
0.000416203
0.000342191
0.000283471
0.000237808
0.0135033
0.00192448
0.000828417
0.000589471
0.000471005
0.000386296
0.000319617
0.000266134
0.0147361
0.00177838
0.00076608
0.000555151
0.000449479
0.000372463
0.000310926
0.000260778
0.00384841
0.000955838
0.000598869
0.000473563
0.0003915
0.000326303
0.0002723
0.000228255
0.0010389
0.000582321
0.000459876
0.000383513
0.000324566
0.000277038
0.000238733
0.000207302
0.000570856
0.00045279
0.000383408
0.000329412
0.000286366
0.000252345
0.000225421
0.000203633
0.00375568
0.00270123
0.002336
0.00202056
0.00169523
0.00136698
0.00105859
0.000795353
0.00991311
0.00365224
0.00261824
0.00219562
0.00185632
0.00151642
0.00117807
0.000869041
0.0295689
0.00535037
0.00277455
0.00216989
0.00182682
0.00151531
0.00119953
0.000893583
0.0361009
0.00535069
0.00266754
0.00207004
0.00172441
0.0014128
0.00110637
0.000818239
0.0105027
0.0034334
0.0024239
0.00202975
0.00171947
0.00141038
0.00109867
0.000806052
0.00379564
0.0025706
0.0021761
0.00187763
0.0015833
0.00128421
0.00099432
0.000736564
0.00262686
0.00224516
0.00196951
0.00169429
0.00141429
0.00114096
0.000890466
0.000679031
0.010918
0.00876724
0.00753834
0.0064627
0.00553841
0.00480336
0.00422038
0.00364647
0.0186992
0.0102013
0.00805388
0.00678059
0.00576161
0.00496609
0.00437217
0.00383293
0.0421833
0.0124928
0.00818294
0.0066003
0.00550311
0.00467757
0.00409999
0.00362933
0.0522589
0.0127946
0.00796797
0.00633608
0.00520595
0.00434095
0.00372811
0.00323652
0.020427
0.00990036
0.00762312
0.00634178
0.00529887
0.00447539
0.00387875
0.00338317
0.0108852
0.00842062
0.00718043
0.00612498
0.00520615
0.00447808
0.00393085
0.00343232
0.00872496
0.00759962
0.00660713
0.0056806
0.00488787
0.00426372
0.00377101
0.0032843
0.0153019
0.0134285
0.0124953
0.0116515
0.010588
0.00898588
0.00672139
0.00432084
0.0218798
0.0146055
0.0128697
0.0120061
0.0111668
0.00984837
0.00770101
0.00513788
0.0410214
0.0165745
0.0128662
0.0117959
0.0111403
0.0101683
0.00832629
0.0058754
0.049504
0.0168361
0.0123711
0.0111125
0.0104028
0.00954499
0.00799444
0.0059114
0.0238874
0.0141105
0.0120264
0.0111365
0.010464
0.00951057
0.00781038
0.00559773
0.0149925
0.0126073
0.0116142
0.0109017
0.0101574
0.00902297
0.00718647
0.00497098
0.0127765
0.0117929
0.0110585
0.0103454
0.00945488
0.00811769
0.00622001
0.00418945
0.000150581
0.000141576
0.000136181
0.000132456
0.000129753
0.000126922
0.000124179
0.000120393
0.000248021
0.000161099
0.000141268
0.000132049
0.000124798
0.000118492
0.000114502
0.000110899
0.00117242
0.000300683
0.000161662
0.000136434
0.000126017
0.000117718
0.000109607
0.00010209
0.00413916
0.000700401
0.000214556
0.00014275
0.000124015
0.000113698
0.000104779
9.61913e-05
0.00310357
0.00063033
0.000217624
0.000148646
0.000129738
0.000119584
0.000111262
0.000103878
0.000715853
0.00027901
0.000176901
0.000153033
0.000144031
0.000137763
0.000131581
0.000126659
0.00023473
0.000184195
0.00016971
0.000164512
0.000161035
0.000158002
0.000155747
0.000154539
0.000622778
0.000482009
0.000409086
0.000354063
0.000310283
0.000275212
0.00024698
0.000223565
0.00126902
0.000649591
0.000509459
0.000429981
0.000369523
0.000320226
0.00027933
0.000244689
0.00535602
0.00117045
0.000697995
0.000553952
0.000466213
0.000396473
0.000337428
0.000287249
0.0211916
0.00242296
0.000952178
0.000680973
0.000557295
0.000467883
0.000394647
0.000333404
0.0176231
0.00250866
0.00102591
0.000725733
0.000588337
0.000491149
0.0004134
0.000348673
0.00446828
0.00125335
0.000770606
0.000603094
0.000502343
0.000425393
0.0003633
0.000312406
0.00105661
0.00064603
0.000541292
0.000467279
0.00040711
0.000357633
0.000317142
0.000283732
0.0028273
0.00236741
0.00208241
0.00180217
0.00151358
0.00122772
0.000963252
0.000739522
0.00470891
0.00284586
0.00237796
0.00206802
0.00176789
0.00145713
0.00114806
0.000866166
0.0159708
0.00426035
0.00277753
0.00231174
0.00198881
0.00167195
0.00134344
0.00102199
0.0554896
0.00753558
0.0032543
0.00245026
0.00206007
0.00172589
0.00139148
0.00106403
0.0418488
0.00719921
0.00338209
0.00258263
0.00218467
0.00183974
0.00148998
0.00114478
0.0127689
0.00430621
0.00298748
0.00249897
0.00212897
0.00176147
0.00139221
0.00105011
0.0042798
0.00295026
0.00255237
0.00221924
0.00187341
0.00152161
0.0011905
0.000909652
0.00931322
0.00807353
0.00706617
0.0061236
0.00530722
0.00465345
0.00412326
0.00358011
0.0126741
0.0092368
0.00787565
0.00680401
0.00587704
0.00513905
0.00458154
0.00406117
0.028625
0.0116833
0.00860591
0.00719679
0.00612371
0.00528356
0.00468023
0.00418048
0.0781017
0.0166465
0.0093606
0.00736572
0.00614603
0.00523062
0.00458055
0.00405665
0.0589445
0.0156335
0.00954624
0.00764732
0.00645382
0.00557345
0.00496259
0.0044699
0.023657
0.0117275
0.00904214
0.00762367
0.00652592
0.00566798
0.00502017
0.00441945
0.0122969
0.00956676
0.00821259
0.00705671
0.00605132
0.00523175
0.00456036
0.0038865
0.0136212
0.0125815
0.011892
0.0112094
0.0103032
0.00886851
0.00677453
0.00449782
0.017107
0.0138737
0.0129111
0.0123708
0.011788
0.0107024
0.00871367
0.00616306
0.032201
0.01648
0.013755
0.0130331
0.0126982
0.0120417
0.0104102
0.0079641
0.0743158
0.0212546
0.0144726
0.0131145
0.0126963
0.0121614
0.0107428
0.00849036
0.0570459
0.020056
0.0147778
0.0136156
0.0131431
0.0123532
0.0104996
0.00777782
0.0268223
0.016392
0.0142046
0.0132963
0.0124711
0.0111158
0.00880308
0.00594411
0.0168337
0.0144384
0.0134178
0.0125239
0.011378
0.00963176
0.00715856
0.00453558
0.000111193
0.00010441
0.000101833
9.84426e-05
0.000100297
0.000104787
0.000112867
0.000187333
0.000184122
0.000179114
0.000177339
0.000179576
0.000185895
0.000195799
0.00050859
0.00050002
0.000494911
0.000492818
0.000496514
0.000508779
0.000536708
0.00253599
0.00250496
0.00249996
0.0024982
0.00250453
0.00251966
0.00258507
0.00216692
0.00215497
0.00215755
0.00215206
0.00213172
0.00210608
0.00211464
0.000153361
0.00012417
0.00010254
9.24053e-05
0.000109083
0.000126367
0.000142612
0.000246334
0.000251674
0.000276151
0.000276501
0.000263537
0.000237866
0.000218447
0.000683712
0.000720182
0.000794098
0.000757463
0.000768923
0.000678251
0.0006246
0.00295278
0.00334535
0.00320762
0.00311087
0.00331247
0.00319946
0.00285322
0.00233196
0.00334363
0.00474082
0.00515612
0.00441788
0.00304334
0.00224807
0.00012681
9.4526e-05
7.06978e-05
6.88805e-05
8.08347e-05
9.7126e-05
0.000112285
0.000206063
0.000202652
0.00022345
0.000220566
0.000193035
0.000181962
0.000185101
0.000595804
0.000621699
0.000633297
0.000579872
0.000565175
0.000533611
0.000517619
0.0028676
0.00306391
0.00295402
0.00256858
0.0027078
0.00273416
0.0026189
0.00214308
0.00246812
0.00296973
0.00327901
0.00294705
0.00257348
0.00227826
0.000116233
0.000107327
9.56176e-05
8.85545e-05
9.69246e-05
0.000122398
0.000153591
0.00020312
0.000215301
0.000245302
0.00028355
0.000295964
0.000270076
0.000255374
0.000569883
0.000638451
0.000745496
0.000780546
0.000843718
0.000771473
0.000699623
0.00282283
0.00328794
0.00345814
0.00331081
0.00373995
0.00353985
0.00298841
0.00237247
0.003316
0.00473909
0.00529634
0.00434583
0.00291686
0.00218909
0.000109389
0.000104465
9.49343e-05
8.45577e-05
7.347e-05
6.25479e-05
5.22502e-05
4.26236e-05
0.000102002
9.76018e-05
8.91915e-05
7.88593e-05
6.83385e-05
5.80122e-05
4.82772e-05
3.91971e-05
9.82259e-05
9.34517e-05
8.58376e-05
7.5372e-05
6.50262e-05
5.51999e-05
4.59384e-05
3.7281e-05
9.66066e-05
9.19168e-05
8.60329e-05
7.67174e-05
6.55675e-05
5.4577e-05
4.50393e-05
3.6512e-05
9.72301e-05
9.34362e-05
8.62591e-05
7.57847e-05
6.52269e-05
5.53404e-05
4.60679e-05
3.74253e-05
0.000102846
9.85137e-05
8.9964e-05
7.93678e-05
6.86566e-05
5.8299e-05
4.85821e-05
3.95409e-05
0.000111092
0.000105954
9.67439e-05
8.57482e-05
7.41836e-05
6.30362e-05
5.26786e-05
4.31021e-05
0.00017027
0.000142567
0.000112715
8.75589e-05
6.87423e-05
5.48882e-05
4.44887e-05
3.66768e-05
0.000166881
0.000139758
0.000110306
8.57919e-05
6.72404e-05
5.3533e-05
4.32384e-05
3.54998e-05
0.000161767
0.000135915
0.000107376
8.37999e-05
6.58625e-05
5.25042e-05
4.24193e-05
3.47934e-05
0.000159858
0.000134792
0.000106982
8.33396e-05
6.51515e-05
5.18347e-05
4.19146e-05
3.44374e-05
0.000162311
0.000136128
0.00010718
8.33998e-05
6.55213e-05
5.22712e-05
4.2313e-05
3.4788e-05
0.000168691
0.000140772
0.000110333
8.52934e-05
6.66334e-05
5.30334e-05
4.29338e-05
3.53818e-05
0.000177826
0.000147411
0.000114249
8.72535e-05
6.76696e-05
5.37298e-05
4.35869e-05
3.61262e-05
0.000400158
0.000298895
0.000196168
0.000126682
8.48859e-05
5.97863e-05
4.43026e-05
3.47348e-05
0.000390611
0.000290994
0.000191876
0.000124617
8.39258e-05
5.93702e-05
4.41635e-05
3.47332e-05
0.00038488
0.000285943
0.000189734
0.000123871
8.37012e-05
5.93185e-05
4.41444e-05
3.46857e-05
0.000382118
0.000283606
0.000188648
0.000123488
8.35614e-05
5.92642e-05
4.41545e-05
3.4742e-05
0.000386662
0.000288065
0.000189967
0.000123455
8.32418e-05
5.89961e-05
4.39794e-05
3.46434e-05
0.000403042
0.000297698
0.000192988
0.000123797
8.28006e-05
5.84601e-05
4.35783e-05
3.44275e-05
0.000434663
0.000314978
0.000199504
0.000125507
8.27115e-05
5.78524e-05
4.29713e-05
3.39984e-05
0.00180847
0.00085494
0.00035898
0.000170277
9.33415e-05
5.77867e-05
3.95858e-05
2.98573e-05
0.00177151
0.000834679
0.000351291
0.000167696
9.26351e-05
5.78059e-05
3.99231e-05
3.03637e-05
0.00176015
0.000830476
0.000350445
0.000167756
9.29283e-05
5.81196e-05
4.01926e-05
3.0577e-05
0.00175312
0.000826571
0.000349165
0.000167382
9.28646e-05
5.81866e-05
4.03324e-05
3.07631e-05
0.00175625
0.000825236
0.000347888
0.000166517
9.22352e-05
5.77174e-05
3.99758e-05
3.04795e-05
0.00176544
0.000826162
0.000346713
0.000165098
9.09612e-05
5.67095e-05
3.92456e-05
2.99804e-05
0.00181277
0.00084713
0.00035347
0.000166447
9.05198e-05
5.58071e-05
3.83442e-05
2.91941e-05
0.00156897
0.000930914
0.000397837
0.000176753
8.85278e-05
5.05949e-05
3.28948e-05
2.43091e-05
0.00153546
0.000917113
0.000395175
0.000176536
8.88013e-05
5.09621e-05
3.33005e-05
2.47808e-05
0.00151939
0.000910445
0.000394246
0.000176696
8.90907e-05
5.1217e-05
3.35097e-05
2.49635e-05
0.00150774
0.000904217
0.000392317
0.000176094
8.89472e-05
5.12563e-05
3.36323e-05
2.51331e-05
0.00150047
0.000899585
0.000389581
0.000174508
8.79797e-05
5.06303e-05
3.3201e-05
2.48008e-05
0.00150059
0.000897139
0.000385967
0.000171913
8.63298e-05
4.96075e-05
3.25679e-05
2.43915e-05
0.00153539
0.000912913
0.000388981
0.000171743
8.55957e-05
4.8925e-05
3.20184e-05
2.38992e-05
0.000150117
0.00014014
0.000125591
0.000108842
9.26854e-05
7.80222e-05
6.50148e-05
5.34727e-05
0.000120489
0.000112514
0.000105164
9.439e-05
8.20293e-05
6.99606e-05
5.87923e-05
4.88467e-05
9.54629e-05
8.622e-05
7.77752e-05
6.91215e-05
6.0674e-05
5.30844e-05
4.58658e-05
3.87705e-05
8.6918e-05
7.75148e-05
6.81716e-05
5.9323e-05
5.09317e-05
4.37755e-05
3.78574e-05
3.1615e-05
0.000101408
9.25318e-05
8.336e-05
7.39617e-05
6.48739e-05
5.68759e-05
4.915e-05
4.14245e-05
0.00012445
0.000118639
0.000111218
9.9259e-05
8.61312e-05
7.34558e-05
6.14052e-05
5.05606e-05
0.000139717
0.000130815
0.000118123
0.00010332
8.86413e-05
7.50073e-05
6.26561e-05
5.15851e-05
0.000220567
0.000176526
0.000130608
9.53021e-05
7.1271e-05
5.53101e-05
4.4464e-05
3.68987e-05
0.00021796
0.000174791
0.000134616
0.000100966
7.61015e-05
5.90078e-05
4.73798e-05
3.90381e-05
0.000233032
0.000181558
0.000139919
0.000108091
8.44041e-05
6.67587e-05
5.29834e-05
4.21578e-05
0.000234892
0.000185523
0.000145439
0.000114394
9.04529e-05
7.24609e-05
5.78284e-05
4.63409e-05
0.00022439
0.000176595
0.000136768
0.000105741
8.24105e-05
6.50753e-05
5.1514e-05
4.0992e-05
0.000208938
0.000171957
0.000132843
0.000100089
7.54533e-05
5.79933e-05
4.59219e-05
3.7644e-05
0.000196818
0.000160742
0.000121399
9.0157e-05
6.82001e-05
5.32198e-05
4.2846e-05
3.55561e-05
0.000550957
0.000372217
0.000220893
0.000131258
8.27251e-05
5.61046e-05
4.08671e-05
3.19358e-05
0.000524269
0.000352705
0.000237403
0.000156143
0.00010603
7.61682e-05
5.75211e-05
4.52195e-05
0.000564963
0.000351552
0.000227698
0.000155805
0.000112126
8.40905e-05
6.49165e-05
5.10682e-05
0.000537857
0.000337397
0.000222875
0.000156372
0.000114756
8.68962e-05
6.71054e-05
5.26886e-05
0.000548413
0.000345387
0.00022544
0.000154272
0.000110242
8.19146e-05
6.28467e-05
4.93568e-05
0.000502873
0.000354435
0.000231214
0.000147423
9.73601e-05
6.82047e-05
5.09255e-05
4.02616e-05
0.000497564
0.000345349
0.000209221
0.000125975
7.9959e-05
5.44019e-05
3.96956e-05
3.10595e-05
0.00201652
0.000931219
0.000382161
0.000174155
9.1653e-05
5.51716e-05
3.72978e-05
2.79995e-05
0.00243354
0.00123191
0.000552517
0.000272483
0.000153905
9.74103e-05
6.72817e-05
5.00674e-05
0.00237921
0.00127625
0.000618651
0.000316803
0.000181982
0.000118391
8.54018e-05
6.63405e-05
0.00227438
0.00119432
0.00056821
0.000287709
0.000164299
0.000106297
7.57883e-05
5.76213e-05
0.00247516
0.00131737
0.000622349
0.000310767
0.000174251
0.000111807
8.01398e-05
6.17941e-05
0.00228973
0.00111639
0.00048299
0.000230957
0.000127108
7.94102e-05
5.51176e-05
4.17719e-05
0.00196778
0.000904525
0.00036774
0.000166738
8.74497e-05
5.25463e-05
3.55796e-05
2.68247e-05
0.00166375
0.000972384
0.000410856
0.000180125
8.93374e-05
5.1163e-05
3.36905e-05
2.51084e-05
0.00223453
0.00136684
0.000649727
0.00032098
0.000173734
0.000103627
6.82793e-05
4.94885e-05
0.00299299
0.00191091
0.000997691
0.000515856
0.000274793
0.000161855
0.000112438
9.08346e-05
0.00322413
0.00206012
0.00108162
0.00056351
0.000302773
0.000172809
0.00010916
7.59728e-05
0.00281188
0.00180403
0.000934671
0.000486855
0.000260699
0.000150881
0.00010189
8.07694e-05
0.00206466
0.00124651
0.00057161
0.000271842
0.000143094
8.41049e-05
5.54926e-05
4.09215e-05
0.00161587
0.000941632
0.000393403
0.00017017
8.33542e-05
4.74212e-05
3.12696e-05
2.34892e-05
0.000124967
0.000119027
0.000109107
9.65001e-05
8.33965e-05
7.10542e-05
5.966e-05
4.91639e-05
9.31216e-05
8.83862e-05
8.51325e-05
8.13474e-05
7.35181e-05
6.42436e-05
5.49698e-05
4.588e-05
6.7387e-05
6.21666e-05
5.77575e-05
5.31988e-05
4.81299e-05
4.27252e-05
3.74348e-05
3.22135e-05
6.46476e-05
5.79971e-05
5.15981e-05
4.55734e-05
4.01729e-05
3.498e-05
3.02427e-05
2.58035e-05
7.69141e-05
7.04711e-05
6.5203e-05
5.95344e-05
5.3378e-05
4.71434e-05
4.10168e-05
3.47344e-05
9.56662e-05
9.06081e-05
8.73097e-05
8.13566e-05
7.27507e-05
6.30181e-05
5.34931e-05
4.43994e-05
0.000108464
0.00010344
9.66349e-05
8.71206e-05
7.63243e-05
6.54961e-05
5.51268e-05
4.53358e-05
0.000183958
0.000151715
0.000116738
8.81331e-05
6.75414e-05
5.31613e-05
4.29529e-05
3.55926e-05
0.000174628
0.000144214
0.00011905
9.53846e-05
7.58444e-05
6.09071e-05
4.9659e-05
4.11007e-05
0.00018839
0.000148852
0.000117477
9.39631e-05
7.59383e-05
6.17807e-05
5.03815e-05
4.04639e-05
0.000186792
0.000146285
0.00011342
8.82062e-05
6.8772e-05
5.41177e-05
4.28685e-05
3.42814e-05
0.000164184
0.000129967
0.00010242
8.18804e-05
6.63044e-05
5.42845e-05
4.43506e-05
3.59689e-05
0.000160814
0.000135356
0.000110911
8.92895e-05
7.14156e-05
5.76185e-05
4.70251e-05
3.88511e-05
0.000168416
0.000143962
0.000115223
9.00117e-05
7.05665e-05
5.61705e-05
4.54696e-05
3.75084e-05
0.000457548
0.000330957
0.000209328
0.000130036
8.4266e-05
5.79465e-05
4.23462e-05
3.29825e-05
0.000450235
0.000314286
0.000221757
0.000150933
0.00010413
7.45062e-05
5.5614e-05
4.35645e-05
0.000444195
0.000281417
0.000194729
0.000147624
0.000116933
9.2519e-05
7.29856e-05
5.83115e-05
0.000406783
0.000252707
0.000166952
0.000117691
8.63901e-05
6.47467e-05
4.90839e-05
3.7847e-05
0.000395382
0.000246289
0.000167381
0.000125656
9.6833e-05
7.49169e-05
5.86345e-05
4.69318e-05
0.000393907
0.000274712
0.000197996
0.000137714
9.65207e-05
6.96847e-05
5.21575e-05
4.07218e-05
0.000401696
0.000298943
0.000200543
0.000131095
8.81263e-05
6.1973e-05
4.57449e-05
3.5677e-05
0.00201534
0.000936178
0.000383085
0.000175237
9.29805e-05
5.63312e-05
3.81731e-05
2.86391e-05
0.00222022
0.00110074
0.000473917
0.000222895
0.000120991
7.50245e-05
5.19316e-05
3.9558e-05
0.00221939
0.0011862
0.000563817
0.000283097
0.000158296
0.00010067
7.21562e-05
5.76126e-05
0.00187662
0.000994659
0.000496326
0.000274206
0.000171354
0.000118032
8.63009e-05
6.44221e-05
0.00201093
0.0010642
0.000502556
0.000252035
0.000142979
9.25583e-05
6.69013e-05
5.31071e-05
0.00199453
0.00100693
0.000440665
0.000210779
0.000116257
7.28408e-05
5.04846e-05
3.81628e-05
0.00188403
0.000906008
0.000383191
0.000181038
9.87821e-05
6.09684e-05
4.16333e-05
3.12304e-05
0.0015565
0.0009076
0.000379934
0.000166231
8.26721e-05
4.74232e-05
3.11763e-05
2.3255e-05
0.00172252
0.00100627
0.000432937
0.00019565
0.000100802
5.99062e-05
4.06289e-05
3.10487e-05
0.00195742
0.00115162
0.000514923
0.000242722
0.000131057
8.2391e-05
5.97486e-05
4.92246e-05
0.00207547
0.00120929
0.000576544
0.000306937
0.000194524
0.000143657
0.000119188
0.000108122
0.00194544
0.0011369
0.000506642
0.000240653
0.000132018
8.4387e-05
6.17627e-05
5.08689e-05
0.00179121
0.00104649
0.000451173
0.000204528
0.000105487
6.24768e-05
4.20115e-05
3.17344e-05
0.00164373
0.000966556
0.00041211
0.00018337
9.22249e-05
5.29984e-05
3.45927e-05
2.55434e-05
0.000112869
0.000108836
0.000100896
8.97699e-05
7.75875e-05
6.57762e-05
5.49437e-05
4.51262e-05
0.000104365
9.75479e-05
9.11781e-05
8.31411e-05
7.28974e-05
6.19155e-05
5.13732e-05
4.1915e-05
9.06133e-05
8.24769e-05
7.47391e-05
6.69974e-05
5.90141e-05
5.10769e-05
4.33619e-05
3.60882e-05
8.21526e-05
7.23243e-05
6.36344e-05
5.57272e-05
4.83676e-05
4.1624e-05
3.52264e-05
2.9518e-05
9.14903e-05
8.32899e-05
7.57558e-05
6.8158e-05
6.03052e-05
5.25774e-05
4.50395e-05
3.76723e-05
0.000118246
0.000111142
0.000105369
9.63304e-05
8.44238e-05
7.16821e-05
5.93711e-05
4.80791e-05
0.000150775
0.000140965
0.000126208
0.000109191
9.26547e-05
7.77498e-05
6.45886e-05
5.29424e-05
0.000184373
0.000154493
0.000119685
9.02753e-05
6.86494e-05
5.34563e-05
4.28124e-05
3.53549e-05
0.000189077
0.000154646
0.000121838
9.28982e-05
6.9902e-05
5.27753e-05
4.07082e-05
3.28434e-05
0.00020802
0.000162593
0.000125247
9.61641e-05
7.40062e-05
5.71918e-05
4.44505e-05
3.49024e-05
0.000238913
0.000187297
0.000145608
0.000113228
8.82859e-05
6.93105e-05
5.47734e-05
4.33384e-05
0.00024919
0.000195091
0.000150797
0.000116134
8.98917e-05
6.99124e-05
5.45536e-05
4.27352e-05
0.000233367
0.000189076
0.000148322
0.000112708
8.50465e-05
6.47651e-05
5.02872e-05
4.04047e-05
0.000227296
0.000180682
0.000132876
9.64032e-05
7.17486e-05
5.54495e-05
4.44224e-05
3.67652e-05
0.000452456
0.000333112
0.000211564
0.00013122
8.45221e-05
5.77173e-05
4.20809e-05
3.29363e-05
0.000475762
0.000332803
0.000230664
0.000152236
0.000100651
6.85097e-05
4.90885e-05
3.82256e-05
0.000532615
0.000334437
0.000217988
0.000147834
0.000103229
7.39296e-05
5.43562e-05
4.13461e-05
0.00055541
0.000347061
0.000226995
0.000156907
0.000112815
8.36313e-05
6.35324e-05
4.92078e-05
0.000605164
0.000386964
0.000258843
0.000180879
0.000129761
9.48041e-05
7.0642e-05
5.39337e-05
0.000570045
0.000405014
0.000273803
0.000180413
0.000122132
8.67104e-05
6.48258e-05
5.10126e-05
0.000562956
0.000379605
0.000224664
0.000133143
8.37183e-05
5.6738e-05
4.13919e-05
3.2376e-05
0.00199967
0.000945247
0.000393618
0.000182252
9.70113e-05
5.85009e-05
3.9438e-05
2.9578e-05
0.00242142
0.00124376
0.000559882
0.000273944
0.000152328
9.43226e-05
6.35499e-05
4.68185e-05
0.00264181
0.00146125
0.00071843
0.000365862
0.000198825
0.000117495
7.6246e-05
5.44332e-05
0.0024709
0.00132439
0.000635063
0.00031846
0.000176416
0.000109218
7.46759e-05
5.50812e-05
0.00288205
0.00161183
0.000811475
0.000432106
0.000249727
0.000153547
0.000101794
7.34531e-05
0.00255542
0.00126864
0.000561272
0.00027586
0.000158371
0.000104304
7.529e-05
5.74413e-05
0.00203962
0.000936163
0.000382021
0.000173906
9.1782e-05
5.55476e-05
3.7782e-05
2.8446e-05
0.00170571
0.0010112
0.000436668
0.000195825
9.88363e-05
5.67706e-05
3.69527e-05
2.71952e-05
0.0022375
0.00137864
0.000663004
0.000337863
0.000192501
0.000119687
7.85326e-05
5.47722e-05
0.00299439
0.00195632
0.00106835
0.000606248
0.000354114
0.000198925
0.00011274
7.281e-05
0.00328423
0.00214626
0.00118299