/*--------------------------------*- C++ -*----------------------------------*\
| =========                 |                                                 |
| \\      /  F ield         | OpenFOAM: The Open Source CFD Toolbox           |
|  \\    /   O peration     | Version:  plus.master.MPPICInterFoam            |
|   \\  /    A nd           | Web:      www.OpenFOAM.com                      |
|    \\/     M anipulation  |                                                 |
\*---------------------------------------------------------------------------*/
FoamFile
{
    version     2.0;
    format      ascii;
    class       volScalarField;
    location    "8";
    object      p;
}
// * * * * * * * * * * * * * * * * * * * * * * * * * * * * * * * * * * * * * //

dimensions      [1 -1 -2 0 0 0 0];

internalField   nonuniform List<scalar> 
11821
(
5653.69
5656.58
5656.98
5657.4
5657.01
5656.03
5653.18
5656.54
5674.51
5670.47
5670.88
5670.74
5673.97
5655.72
5657.37
5670.59
5672.81
5669.59
5672.62
5669.95
5656.38
5657.81
5670.9
5669.09
5671.43
5670.08
5671.4
5657.08
5657.45
5670.59
5672.86
5670.02
5672.65
5670.04
5656.58
5656.68
5674.62
5670.77
5670.9
5671.11
5674.09
5656.12
5653.82
5656.21
5656.84
5657.14
5656.82
5656
5652.9
5520.52
5523.25
5525.03
5525.56
5524.6
5522.53
5520.01
5523.16
5528.95
5532.51
5534.17
5531.53
5527.23
5522.58
5525.34
5533.15
5545.9
5548.27
5543.28
5530.87
5524.48
5525.99
5534.26
5548
5555.35
5546.07
5532.51
5525.27
5525.45
5533.26
5546.32
5549.23
5543.92
5531.03
5524.51
5523.28
5529.81
5533.03
5534.89
5532.09
5527.3
5522.66
5520.64
5523.41
5525.37
5525.93
5524.84
5522.67
5520.08
5379.02
5379.93
5380.54
5380.78
5380.44
5379.9
5379.18
5379.62
5380.83
5382.51
5383.68
5382.08
5381.29
5380.2
5379.96
5382.52
5391.87
5394.59
5387.68
5382.53
5381.14
5380.12
5383.09
5394.35
5401.26
5389.52
5383.26
5381.62
5380.05
5382.69
5392.38
5395.23
5388.56
5382.74
5381.22
5379.67
5380.92
5382.85
5384.1
5382.37
5381.35
5380.27
5379.09
5379.99
5380.67
5380.93
5380.5
5379.96
5379.24
5231.49
5229.9
5228.2
5227.97
5229.02
5230.65
5232.26
5229.3
5225.75
5222.7
5223.51
5224.51
5228.29
5231.17
5226.63
5222.16
5228.57
5232.63
5224.64
5225.57
5230.31
5225.63
5222.92
5230.07
5236.72
5223.84
5224.42
5230.03
5226.49
5222.15
5228.91
5233.08
5225.44
5225.54
5230.42
5229.16
5225.36
5222.62
5223.77
5224.29
5228.27
5231.29
5231.46
5229.68
5227.84
5227.7
5228.85
5230.67
5232.35
5075.14
5072.39
5069.79
5069.39
5071.05
5073.57
5076.15
5071.92
5066.26
5060.52
5061.46
5064.27
5069.61
5074.04
5068.48
5060.33
5066.92
5070.88
5061.66
5065.47
5072.34
5067.36
5062.01
5069.55
5073.16
5058.56
5063.14
5071.51
5068.13
5060.05
5067.29
5071.56
5062.56
5065.01
5072.24
5071.55
5065.42
5059.94
5061.62
5063.46
5069.16
5073.9
5074.9
5071.84
5068.94
5068.62
5070.44
5073.21
5075.97
5651.06
5649.79
5648.39
5647.13
5646.05
5645.14
5644.37
5643.72
5652.79
5651.39
5649.3
5647.71
5646.43
5645.37
5644.49
5643.79
5653.48
5652.34
5649.98
5648.1
5646.66
5645.49
5644.57
5643.84
5654.05
5652.66
5650.25
5648.3
5646.78
5645.58
5644.56
5643.74
5653.51
5652.21
5649.97
5648.1
5646.64
5645.48
5644.54
5643.78
5652.7
5651.24
5649.31
5647.67
5646.39
5645.33
5644.43
5643.71
5651.03
5649.8
5648.38
5647.11
5646.04
5645.12
5644.34
5643.68
5517.98
5516.52
5515.34
5514.4
5513.64
5513.04
5512.56
5512.2
5519.52
5517.5
5515.97
5514.8
5513.9
5513.2
5512.66
5512.26
5520.73
5518.27
5516.43
5515.08
5514.07
5513.3
5512.71
5512.28
5521.3
5518.64
5516.65
5515.21
5514.14
5513.34
5512.73
5512.28
5520.79
5518.3
5516.44
5515.07
5514.05
5513.27
5512.68
5512.23
5519.57
5517.52
5515.97
5514.78
5513.87
5513.16
5512.62
5512.2
5518.02
5516.55
5515.35
5514.39
5513.61
5513
5512.51
5512.13
5378.62
5378.17
5377.87
5377.67
5377.55
5377.51
5377.53
5377.65
5379.24
5378.59
5378.14
5377.84
5377.66
5377.58
5377.6
5377.72
5379.83
5378.93
5378.31
5377.93
5377.7
5377.59
5377.6
5377.74
5380.14
5379.11
5378.41
5377.98
5377.73
5377.61
5377.61
5377.74
5379.89
5378.96
5378.33
5377.93
5377.7
5377.59
5377.59
5377.71
5379.27
5378.59
5378.13
5377.83
5377.65
5377.57
5377.57
5377.68
5378.65
5378.19
5377.88
5377.67
5377.55
5377.5
5377.52
5377.63
5233.6
5234.54
5235.57
5236.65
5237.87
5239.28
5240.95
5242.9
5232.94
5234.14
5235.25
5236.37
5237.6
5239.05
5240.81
5242.9
5232.53
5233.83
5234.98
5236.13
5237.38
5238.86
5240.67
5242.84
5232.43
5233.78
5234.94
5236.11
5237.37
5238.85
5240.67
5242.85
5232.65
5233.94
5235.07
5236.22
5237.47
5238.94
5240.74
5242.89
5233.06
5234.25
5235.34
5236.46
5237.68
5239.12
5240.88
5242.95
5233.68
5234.62
5235.66
5236.76
5237.97
5239.38
5241.05
5242.98
5078.3
5079.63
5080.8
5081.78
5082.52
5082.64
5082
5082.59
5077.12
5079.02
5080.45
5081.58
5082.42
5082.62
5081.91
5082.35
5076.16
5078.42
5080.09
5081.38
5082.32
5082.56
5081.81
5082.16
5075.77
5078.23
5080.01
5081.37
5082.36
5082.63
5081.85
5082.17
5076.16
5078.44
5080.12
5081.42
5082.37
5082.63
5081.88
5082.21
5077.05
5078.96
5080.42
5081.57
5082.44
5082.66
5081.97
5082.38
5078.14
5079.48
5080.68
5081.7
5082.47
5082.64
5082.04
5082.6
5651.85
5650.21
5648.69
5647.36
5646.22
5645.25
5644.43
5643.74
5653.72
5651.56
5649.56
5647.94
5646.56
5645.39
5644.44
5643.65
5654.8
5652.61
5650.19
5648.37
5646.86
5645.61
5644.62
5643.78
5655.09
5652.87
5650.39
5648.56
5647.08
5645.84
5644.82
5643.98
5654.72
5652.46
5650.08
5648.28
5646.79
5645.51
5644.42
5643.6
5653.52
5651.4
5649.45
5647.8
5646.44
5645.33
5644.38
5643.58
5651.74
5650.13
5648.62
5647.29
5646.17
5645.21
5644.41
5643.74
5518.49
5516.89
5515.59
5514.53
5513.68
5512.99
5512.45
5512.02
5520.12
5517.93
5516.25
5514.95
5513.93
5513.11
5512.47
5511.96
5521.43
5518.83
5516.86
5515.38
5514.23
5513.33
5512.63
5512.08
5521.83
5519.14
5517.09
5515.57
5514.42
5513.52
5512.81
5512.25
5521.33
5518.72
5516.74
5515.26
5514.13
5513.24
5512.53
5511.96
5520.02
5517.83
5516.16
5514.87
5513.85
5513.05
5512.42
5511.93
5518.39
5516.8
5515.51
5514.46
5513.61
5512.93
5512.39
5511.96
5378.46
5378.01
5377.71
5377.51
5377.39
5377.34
5377.35
5377.43
5378.83
5378.23
5377.78
5377.49
5377.31
5377.22
5377.21
5377.29
5379.2
5378.54
5378.01
5377.63
5377.4
5377.28
5377.25
5377.32
5379.28
5378.64
5378.1
5377.72
5377.49
5377.38
5377.39
5377.49
5379.1
5378.4
5377.86
5377.49
5377.26
5377.14
5377.11
5377.18
5378.76
5378.14
5377.7
5377.42
5377.25
5377.18
5377.19
5377.29
5378.38
5377.92
5377.62
5377.42
5377.31
5377.26
5377.27
5377.36
5232.7
5233.82
5234.98
5236.19
5237.47
5238.9
5240.56
5242.45
5231.45
5232.91
5234.14
5235.38
5236.69
5238.16
5239.9
5241.93
5230.37
5232.41
5233.76
5234.99
5236.31
5237.79
5239.54
5241.58
5230
5232.33
5233.74
5234.98
5236.31
5237.84
5239.65
5241.73
5230.36
5232.29
5233.62
5234.87
5236.21
5237.71
5239.49
5241.55
5231.47
5232.89
5234.13
5235.39
5236.71
5238.2
5239.95
5242
5232.68
5233.77
5234.94
5236.14
5237.42
5238.87
5240.55
5242.47
5077.17
5078.96
5080.51
5081.83
5082.85
5083.24
5082.88
5083.65
5075.18
5077.54
5079.38
5080.9
5082.1
5082.62
5082.3
5083.19
5073.66
5076.62
5078.62
5080.27
5081.62
5082.3
5082.11
5083.45
5073.26
5076.45
5078.45
5080.1
5081.46
5082.16
5081.98
5083.41
5073.77
5076.62
5078.61
5080.27
5081.6
5082.25
5082.02
5083.22
5075.37
5077.68
5079.5
5081.01
5082.18
5082.7
5082.34
5083.17
5077.34
5079.09
5080.62
5081.91
5082.9
5083.26
5082.87
5083.64
5651.71
5650.16
5648.65
5647.33
5646.2
5645.23
5644.42
5643.73
5653.44
5651.51
5649.57
5647.97
5646.59
5645.47
5644.55
5643.74
5654.43
5652.54
5650.17
5648.44
5647.03
5645.86
5644.86
5644.01
5654.93
5652.8
5650.32
5648.51
5647.02
5645.82
5644.84
5644.02
5654.44
5652.4
5650
5648.19
5646.71
5645.53
5644.56
5643.72
5653.54
5651.52
5649.43
5647.82
5646.48
5645.36
5644.44
5643.66
5651.41
5649.83
5648.37
5647.12
5646.07
5645.2
5644.47
5643.86
5518.43
5516.87
5515.58
5514.54
5513.7
5513.02
5512.48
5512.05
5520.09
5517.98
5516.34
5515.07
5514.07
5513.27
5512.63
5512.13
5521.24
5518.77
5516.88
5515.46
5514.38
5513.55
5512.89
5512.37
5521.56
5518.95
5516.97
5515.51
5514.4
5513.54
5512.86
5512.33
5520.92
5518.46
5516.59
5515.19
5514.12
5513.28
5512.64
5512.13
5519.59
5517.58
5516.02
5514.82
5513.88
5513.14
5512.55
5512.09
5518.04
5516.59
5515.39
5514.42
5513.65
5513.03
5512.54
5512.16
5378.47
5378.03
5377.72
5377.52
5377.4
5377.35
5377.37
5377.46
5379.06
5378.47
5378.02
5377.71
5377.53
5377.43
5377.42
5377.5
5379.55
5378.84
5378.28
5377.9
5377.68
5377.58
5377.58
5377.68
5379.69
5378.9
5378.28
5377.86
5377.6
5377.48
5377.48
5377.57
5379.41
5378.64
5378.07
5377.7
5377.47
5377.35
5377.35
5377.44
5378.96
5378.35
5377.91
5377.62
5377.44
5377.35
5377.35
5377.45
5378.59
5378.18
5377.87
5377.65
5377.52
5377.46
5377.47
5377.58
5232.82
5233.91
5235.05
5236.24
5237.52
5238.97
5240.66
5242.59
5231.98
5233.34
5234.51
5235.71
5237.01
5238.5
5240.26
5242.34
5231.4
5233.1
5234.29
5235.46
5236.77
5238.29
5240.14
5242.31
5231.28
5233.02
5234.17
5235.3
5236.58
5238.08
5239.9
5242.05
5231.53
5233
5234.16
5235.33
5236.62
5238.12
5239.93
5242.08
5232.26
5233.51
5234.64
5235.78
5237.02
5238.47
5240.21
5242.29
5233.49
5234.53
5235.56
5236.64
5237.81
5239.18
5240.83
5242.75
5077.4
5079.11
5080.6
5081.87
5082.85
5083.2
5082.8
5083.59
5075.78
5078.03
5079.77
5081.23
5082.38
5082.86
5082.48
5083.3
5074.65
5077.28
5079.12
5080.65
5081.88
5082.43
5082.07
5083.1
5074.46
5077.15
5078.96
5080.46
5081.68
5082.21
5081.82
5083.02
5075
5077.4
5079.17
5080.62
5081.76
5082.22
5081.76
5082.75
5076.38
5078.43
5079.99
5081.24
5082.2
5082.54
5081.99
5082.76
5078.3
5079.77
5080.94
5081.9
5082.62
5082.74
5082.13
5082.79
5651.38
5649.93
5648.43
5647.14
5646.06
5645.16
5644.42
5643.79
5653.5
5651.48
5649.42
5647.81
5646.47
5645.34
5644.42
5643.66
5654.76
5652.76
5650.11
5648.3
5646.83
5645.6
5644.57
5643.71
5654.7
5653
5650.38
5648.55
5647.07
5645.87
5644.89
5644.07
5654.38
5652.66
5650.2
5648.42
5646.96
5645.76
5644.76
5643.92
5653.36
5651.69
5649.66
5648.02
5646.68
5645.55
5644.6
5643.8
5651.77
5650.26
5648.72
5647.39
5646.25
5645.28
5644.45
5643.75
5518.09
5516.62
5515.4
5514.42
5513.62
5512.99
5512.48
5512.08
5519.7
5517.65
5516.07
5514.85
5513.88
5513.12
5512.51
5512.03
5521.07
5518.58
5516.69
5515.27
5514.17
5513.31
5512.63
5512.09
5521.74
5519.08
5517.07
5515.58
5514.44
5513.57
5512.88
5512.34
5521.42
5518.9
5516.97
5515.52
5514.41
5513.54
5512.85
5512.31
5520.21
5518.07
5516.4
5515.1
5514.08
5513.27
5512.63
5512.12
5518.52
5516.94
5515.63
5514.58
5513.73
5513.05
5512.5
5512.07
5378.64
5378.21
5377.89
5377.67
5377.52
5377.46
5377.46
5377.55
5379.04
5378.42
5377.97
5377.66
5377.47
5377.36
5377.35
5377.44
5379.49
5378.74
5378.18
5377.78
5377.53
5377.39
5377.36
5377.42
5379.8
5379.04
5378.44
5378.02
5377.77
5377.64
5377.63
5377.71
5379.67
5378.96
5378.4
5378
5377.74
5377.61
5377.57
5377.63
5379.16
5378.55
5378.08
5377.77
5377.57
5377.48
5377.47
5377.56
5378.54
5378.08
5377.78
5377.58
5377.47
5377.42
5377.43
5377.51
5233.53
5234.57
5235.6
5236.68
5237.86
5239.23
5240.86
5242.76
5232.3
5233.55
5234.66
5235.79
5237.02
5238.44
5240.16
5242.21
5231.52
5233.05
5234.21
5235.36
5236.62
5238.09
5239.86
5241.95
5231.19
5233.08
5234.29
5235.41
5236.67
5238.16
5239.96
5242.07
5231.27
5233.08
5234.29
5235.44
5236.72
5238.22
5240.04
5242.16
5231.9
5233.29
5234.47
5235.68
5236.99
5238.48
5240.26
5242.34
5232.79
5233.89
5235.06
5236.27
5237.56
5239.02
5240.71
5242.62
5078.09
5079.61
5080.81
5081.79
5082.53
5082.7
5082.12
5082.75
5076.04
5078.1
5079.67
5080.94
5081.92
5082.3
5081.84
5082.6
5074.59
5077.07
5078.84
5080.29
5081.47
5082.01
5081.68
5082.8
5073.93
5076.83
5078.67
5080.18
5081.44
5082.04
5081.76
5083.07
5074.13
5076.94
5078.83
5080.4
5081.69
5082.32
5082.06
5083.18
5075.41
5077.73
5079.54
5081.06
5082.26
5082.81
5082.48
5083.28
5077.18
5078.94
5080.5
5081.84
5082.88
5083.3
5082.95
5083.71
5643.2
5643.27
5643.28
5643.18
5643.22
5643.19
5643.14
5511.94
5512
5512.01
5512.01
5511.96
5511.93
5511.85
5377.88
5377.97
5378.01
5378
5377.97
5377.93
5377.86
5244.84
5244.93
5244.91
5244.93
5244.94
5244.93
5244.85
5088.95
5088.96
5088.95
5089
5088.95
5088.89
5088.82
5643.16
5643.02
5643.11
5643.36
5642.96
5642.96
5643.16
5511.68
5511.59
5511.68
5511.85
5511.57
5511.57
5511.65
5377.62
5377.47
5377.48
5377.68
5377.35
5377.49
5377.56
5244.26
5243.89
5243.45
5243.61
5243.48
5243.96
5244.33
5089.85
5090.09
5091.56
5091.85
5091
5089.95
5089.87
5643.14
5643.12
5643.36
5643.41
5643.06
5643.08
5643.35
5511.72
5511.76
5511.99
5511.95
5511.77
5511.77
5511.9
5377.66
5377.7
5377.88
5377.77
5377.64
5377.67
5377.81
5244.48
5244.35
5244.36
5244.01
5244.12
5244.32
5244.69
5089.89
5090.1
5090.7
5091.24
5090.48
5089.77
5089.23
5643.24
5643.06
5643.05
5643.45
5643.28
5643.18
5643.16
5511.78
5511.68
5511.71
5511.96
5511.91
5511.75
5511.73
5377.76
5377.63
5377.58
5377.9
5377.79
5377.74
5377.71
5244.63
5244.2
5243.92
5244
5244.16
5244.3
5244.44
5089.03
5089.51
5090.64
5091.4
5090.83
5089.98
5089.87
5642.45
5641.66
5641.11
5640.73
5640.45
5640.25
5640.08
5639.94
5642.54
5641.77
5641.21
5640.81
5640.51
5640.29
5640.12
5639.96
5642.53
5641.78
5641.23
5640.81
5640.51
5640.29
5640.11
5639.96
5642.43
5641.69
5641.19
5640.82
5640.51
5640.27
5640.09
5639.94
5642.45
5641.7
5641.16
5640.75
5640.46
5640.24
5640.06
5639.91
5642.43
5641.67
5641.11
5640.71
5640.42
5640.2
5640.02
5639.87
5642.33
5641.54
5640.98
5640.59
5640.3
5640.09
5639.93
5639.79
5511.58
5511.12
5510.78
5510.54
5510.37
5510.25
5510.16
5510.08
5511.65
5511.2
5510.86
5510.62
5510.44
5510.32
5510.22
5510.13
5511.69
5511.23
5510.89
5510.64
5510.46
5510.33
5510.23
5510.14
5511.68
5511.24
5510.9
5510.65
5510.46
5510.32
5510.22
5510.13
5511.62
5511.17
5510.83
5510.58
5510.4
5510.28
5510.18
5510.1
5511.56
5511.1
5510.75
5510.51
5510.33
5510.21
5510.12
5510.04
5511.45
5510.97
5510.63
5510.38
5510.2
5510.08
5509.99
5509.92
5378.31
5378.87
5379.31
5379.63
5379.85
5379.99
5380.07
5380.12
5378.4
5378.97
5379.41
5379.72
5379.93
5380.06
5380.14
5380.18
5378.46
5379
5379.43
5379.74
5379.94
5380.08
5380.15
5380.19
5378.45
5378.99
5379.42
5379.73
5379.94
5380.07
5380.15
5380.18
5378.39
5378.96
5379.39
5379.69
5379.9
5380.03
5380.11
5380.14
5378.36
5378.91
5379.33
5379.63
5379.83
5379.96
5380.03
5380.07
5378.3
5378.82
5379.22
5379.5
5379.69
5379.81
5379.9
5379.94
5247.08
5247.99
5248.63
5249.12
5249.49
5249.76
5249.96
5250.1
5247.16
5248.05
5248.69
5249.18
5249.55
5249.82
5250.02
5250.16
5247.11
5248.04
5248.69
5249.19
5249.56
5249.83
5250.03
5250.17
5247.12
5248.04
5248.68
5249.18
5249.55
5249.83
5250.03
5250.16
5247.13
5248.01
5248.63
5249.12
5249.5
5249.77
5249.98
5250.12
5247.1
5247.94
5248.55
5249.04
5249.41
5249.69
5249.9
5250.04
5246.96
5247.8
5248.41
5248.89
5249.26
5249.54
5249.75
5249.9
5102.52
5110.98
5115.08
5117.28
5118.55
5119.32
5119.79
5120.09
5102.47
5110.97
5115.09
5117.31
5118.59
5119.36
5119.84
5120.14
5102.42
5110.95
5115.08
5117.31
5118.59
5119.37
5119.85
5120.14
5102.42
5110.94
5115.07
5117.3
5118.59
5119.36
5119.84
5120.14
5102.39
5110.92
5115.04
5117.27
5118.55
5119.32
5119.8
5120.1
5102.38
5110.89
5115.01
5117.22
5118.5
5119.26
5119.74
5120.04
5102.39
5110.87
5114.95
5117.14
5118.4
5119.15
5119.61
5119.91
5642.28
5641.43
5640.82
5640.39
5640.08
5639.85
5639.69
5639.56
5642.15
5641.28
5640.66
5640.19
5639.85
5639.61
5639.42
5639.27
5642.21
5641.29
5640.61
5640.1
5639.72
5639.45
5639.23
5639.06
5642.53
5641.64
5640.94
5640.4
5639.97
5639.65
5639.43
5639.25
5642.06
5641.16
5640.5
5640
5639.64
5639.39
5639.19
5639.03
5642.1
5641.27
5640.67
5640.21
5639.89
5639.66
5639.47
5639.32
5642.28
5641.42
5640.83
5640.41
5640.1
5639.88
5639.71
5639.58
5511.18
5510.63
5510.24
5509.96
5509.78
5509.65
5509.57
5509.51
5511.1
5510.6
5510.19
5509.88
5509.66
5509.52
5509.42
5509.35
5511.15
5510.59
5510.17
5509.85
5509.61
5509.43
5509.29
5509.18
5511.32
5510.77
5510.36
5510.04
5509.8
5509.61
5509.48
5509.38
5511.05
5510.5
5510.1
5509.79
5509.56
5509.39
5509.25
5509.15
5511.09
5510.6
5510.22
5509.93
5509.72
5509.57
5509.47
5509.39
5511.17
5510.65
5510.28
5510.01
5509.83
5509.71
5509.63
5509.56
5378.01
5378.41
5378.74
5379
5379.18
5379.3
5379.4
5379.46
5377.81
5378.15
5378.5
5378.77
5378.99
5379.13
5379.24
5379.31
5377.8
5378.14
5378.44
5378.68
5378.85
5378.97
5379.05
5379.09
5378.03
5378.42
5378.74
5378.97
5379.12
5379.23
5379.3
5379.33
5377.69
5378.03
5378.32
5378.56
5378.73
5378.87
5378.97
5379.04
5377.85
5378.24
5378.58
5378.84
5379.03
5379.17
5379.28
5379.35
5377.97
5378.43
5378.79
5379.06
5379.25
5379.38
5379.47
5379.53
5246.26
5247.15
5247.79
5248.31
5248.71
5249.01
5249.24
5249.41
5246.05
5247.05
5247.72
5248.23
5248.62
5248.9
5249.12
5249.28
5245.67
5246.92
5247.69
5248.22
5248.58
5248.85
5249.05
5249.19
5245.81
5247.05
5247.82
5248.34
5248.7
5248.97
5249.16
5249.29
5245.82
5246.97
5247.65
5248.13
5248.48
5248.76
5248.97
5249.12
5246.08
5247.04
5247.7
5248.21
5248.6
5248.91
5249.13
5249.29
5246.39
5247.29
5247.93
5248.44
5248.83
5249.12
5249.34
5249.5
5102.93
5110.94
5114.8
5116.86
5118.04
5118.76
5119.21
5119.5
5103.05
5110.98
5114.79
5116.82
5117.95
5118.61
5119.04
5119.33
5104.21
5111.67
5115.2
5117.03
5118.02
5118.63
5119.05
5119.35
5104.46
5111.83
5115.34
5117.14
5118.13
5118.72
5119.11
5119.35
5103.69
5111.32
5115
5116.88
5117.88
5118.49
5118.92
5119.23
5102.95
5110.9
5114.71
5116.73
5117.89
5118.58
5119.02
5119.32
5102.95
5110.98
5114.84
5116.91
5118.1
5118.82
5119.28
5119.58
5642.25
5641.4
5640.82
5640.41
5640.12
5639.92
5639.77
5639.65
5642.29
5641.45
5640.87
5640.43
5640.08
5639.83
5639.64
5639.5
5642.48
5641.6
5640.94
5640.46
5640.1
5639.81
5639.59
5639.41
5642.61
5641.75
5641.09
5640.58
5640.19
5639.89
5639.65
5639.48
5642.2
5641.35
5640.76
5640.33
5640.01
5639.75
5639.55
5639.38
5642.28
5641.51
5640.98
5640.56
5640.23
5639.99
5639.81
5639.67
5642.53
5641.72
5641.14
5640.72
5640.41
5640.19
5640.02
5639.88
5511.25
5510.73
5510.36
5510.1
5509.93
5509.81
5509.73
5509.67
5511.28
5510.81
5510.44
5510.15
5509.94
5509.79
5509.68
5509.6
5511.48
5510.95
5510.56
5510.27
5510.05
5509.87
5509.72
5509.59
5511.45
5510.93
5510.54
5510.25
5510.02
5509.85
5509.71
5509.61
5511.3
5510.81
5510.45
5510.18
5509.97
5509.8
5509.67
5509.55
5511.35
5510.93
5510.58
5510.32
5510.12
5509.98
5509.88
5509.8
5511.53
5511.05
5510.7
5510.45
5510.28
5510.16
5510.07
5509.99
5378.03
5378.52
5378.91
5379.2
5379.4
5379.53
5379.62
5379.68
5378.07
5378.48
5378.86
5379.14
5379.34
5379.48
5379.56
5379.6
5378.26
5378.71
5379.1
5379.38
5379.56
5379.67
5379.72
5379.73
5378.15
5378.58
5378.92
5379.18
5379.36
5379.47
5379.54
5379.57
5378.03
5378.49
5378.88
5379.17
5379.38
5379.52
5379.61
5379.64
5378.07
5378.51
5378.96
5379.29
5379.52
5379.67
5379.77
5379.81
5378.21
5378.75
5379.19
5379.52
5379.74
5379.89
5379.98
5380.03
5246.61
5247.5
5248.14
5248.64
5249.02
5249.3
5249.51
5249.66
5246.59
5247.6
5248.25
5248.74
5249.1
5249.36
5249.54
5249.67
5246.8
5247.94
5248.61
5249.07
5249.39
5249.62
5249.79
5249.91
5246.34
5247.7
5248.54
5249.06
5249.4
5249.61
5249.75
5249.82
5246.59
5247.79
5248.5
5248.98
5249.31
5249.55
5249.72
5249.84
5246.66
5247.77
5248.45
5248.95
5249.31
5249.57
5249.76
5249.88
5246.91
5247.9
5248.56
5249.06
5249.43
5249.7
5249.9
5250.03
5103.01
5111.07
5114.94
5117.03
5118.24
5118.97
5119.43
5119.72
5103.12
5111.15
5115.03
5117.13
5118.33
5119.06
5119.51
5119.79
5103.45
5111.33
5115.18
5117.26
5118.47
5119.21
5119.69
5119.99
5103.94
5111.56
5115.28
5117.36
5118.6
5119.34
5119.79
5120.04
5103.32
5111.22
5115.11
5117.23
5118.46
5119.21
5119.68
5119.97
5102.97
5111.12
5115.08
5117.23
5118.47
5119.21
5119.67
5119.96
5102.69
5111.03
5115.08
5117.26
5118.52
5119.28
5119.75
5120.04
5642.4
5641.57
5640.96
5640.52
5640.19
5639.95
5639.77
5639.63
5642.24
5641.39
5640.76
5640.29
5639.93
5639.66
5639.45
5639.3
5642.17
5641.27
5640.62
5640.14
5639.79
5639.52
5639.3
5639.14
5642.6
5641.7
5641.01
5640.47
5640.06
5639.76
5639.52
5639.36
5642.4
5641.48
5640.79
5640.27
5639.87
5639.57
5639.34
5639.16
5642.31
5641.43
5640.78
5640.3
5639.95
5639.67
5639.46
5639.31
5642.27
5641.42
5640.81
5640.37
5640.07
5639.85
5639.69
5639.56
5511.36
5510.86
5510.49
5510.22
5510.03
5509.89
5509.8
5509.73
5511.21
5510.72
5510.33
5510.03
5509.79
5509.62
5509.5
5509.43
5511.2
5510.65
5510.24
5509.93
5509.69
5509.5
5509.37
5509.27
5511.45
5510.9
5510.49
5510.16
5509.92
5509.74
5509.6
5509.5
5511.38
5510.8
5510.36
5510.02
5509.75
5509.56
5509.41
5509.3
5511.25
5510.74
5510.32
5510.01
5509.77
5509.6
5509.48
5509.41
5511.22
5510.67
5510.27
5509.99
5509.8
5509.68
5509.59
5509.53
5378.14
5378.63
5379.01
5379.27
5379.46
5379.58
5379.66
5379.72
5378
5378.36
5378.7
5378.95
5379.12
5379.22
5379.32
5379.39
5377.92
5378.27
5378.56
5378.77
5378.92
5379.03
5379.11
5379.17
5378.24
5378.61
5378.91
5379.13
5379.27
5379.37
5379.43
5379.47
5378.11
5378.46
5378.73
5378.92
5379.04
5379.12
5379.19
5379.24
5378.09
5378.45
5378.78
5379.01
5379.17
5379.28
5379.37
5379.42
5378.1
5378.51
5378.83
5379.07
5379.24
5379.35
5379.44
5379.49
5246.74
5247.6
5248.21
5248.68
5249.04
5249.31
5249.52
5249.68
5246.39
5247.38
5247.98
5248.43
5248.76
5249.02
5249.24
5249.37
5246.29
5247.4
5248.01
5248.41
5248.69
5248.9
5249.07
5249.21
5246.25
5247.44
5248.14
5248.6
5248.92
5249.15
5249.33
5249.45
5246.51
5247.57
5248.15
5248.54
5248.8
5249
5249.17
5249.32
5246.41
5247.33
5247.94
5248.41
5248.77
5249.05
5249.26
5249.41
5246.43
5247.28
5247.91
5248.4
5248.78
5249.07
5249.29
5249.45
5102.51
5110.87
5114.9
5117.04
5118.25
5118.97
5119.43
5119.72
5102.82
5111.01
5114.92
5116.98
5118.12
5118.78
5119.19
5119.43
5103.61
5111.46
5115.23
5117.15
5118.16
5118.68
5119.02
5119.27
5104.25
5111.88
5115.52
5117.39
5118.39
5118.95
5119.31
5119.54
5103.66
5111.51
5115.29
5117.27
5118.35
5118.93
5119.27
5119.5
5103.05
5111.07
5114.91
5116.95
5118.1
5118.78
5119.2
5119.47
5102.98
5111.02
5114.88
5116.94
5118.12
5118.82
5119.26
5119.55
5639.84
5639.77
5639.71
5639.66
5639.62
5639.58
5639.56
5639.55
5639.86
5639.79
5639.73
5639.68
5639.63
5639.6
5639.58
5639.58
5639.86
5639.79
5639.73
5639.67
5639.63
5639.6
5639.58
5639.58
5639.84
5639.77
5639.71
5639.66
5639.62
5639.59
5639.57
5639.56
5639.81
5639.74
5639.69
5639.63
5639.59
5639.56
5639.54
5639.54
5639.77
5639.7
5639.65
5639.59
5639.55
5639.52
5639.5
5639.49
5639.69
5639.63
5639.57
5639.51
5639.47
5639.44
5639.42
5639.41
5510.03
5510
5509.97
5509.94
5509.92
5509.91
5509.89
5509.88
5510.08
5510.04
5510.01
5509.98
5509.96
5509.94
5509.93
5509.92
5510.08
5510.05
5510.01
5509.99
5509.96
5509.94
5509.93
5509.92
5510.07
5510.04
5510.01
5509.98
5509.95
5509.94
5509.92
5509.91
5510.04
5510
5509.97
5509.95
5509.92
5509.91
5509.89
5509.88
5509.98
5509.95
5509.92
5509.89
5509.87
5509.85
5509.84
5509.83
5509.87
5509.84
5509.82
5509.79
5509.78
5509.76
5509.75
5509.74
5380.13
5380.14
5380.15
5380.16
5380.16
5380.15
5380.15
5380.15
5380.19
5380.2
5380.21
5380.21
5380.21
5380.2
5380.2
5380.19
5380.2
5380.21
5380.22
5380.22
5380.21
5380.21
5380.21
5380.2
5380.2
5380.21
5380.21
5380.21
5380.21
5380.2
5380.2
5380.2
5380.16
5380.17
5380.17
5380.17
5380.17
5380.17
5380.17
5380.16
5380.09
5380.1
5380.11
5380.12
5380.12
5380.11
5380.11
5380.11
5379.97
5379.98
5380
5380
5380.01
5380.01
5380.01
5380
5250.17
5250.22
5250.26
5250.29
5250.31
5250.32
5250.33
5250.33
5250.23
5250.28
5250.32
5250.35
5250.37
5250.38
5250.38
5250.38
5250.24
5250.29
5250.33
5250.36
5250.38
5250.39
5250.39
5250.39
5250.24
5250.29
5250.33
5250.35
5250.37
5250.38
5250.39
5250.39
5250.2
5250.25
5250.29
5250.32
5250.33
5250.35
5250.35
5250.35
5250.13
5250.18
5250.22
5250.25
5250.27
5250.29
5250.29
5250.29
5249.99
5250.05
5250.09
5250.13
5250.15
5250.17
5250.17
5250.18
5120.24
5120.34
5120.41
5120.46
5120.5
5120.52
5120.53
5120.53
5120.29
5120.39
5120.46
5120.51
5120.55
5120.57
5120.58
5120.59
5120.3
5120.4
5120.47
5120.52
5120.55
5120.58
5120.59
5120.59
5120.3
5120.39
5120.47
5120.52
5120.55
5120.58
5120.59
5120.59
5120.26
5120.35
5120.43
5120.48
5120.52
5120.54
5120.55
5120.56
5120.2
5120.29
5120.37
5120.42
5120.46
5120.48
5120.5
5120.5
5120.07
5120.17
5120.24
5120.3
5120.34
5120.36
5120.38
5120.38
5639.47
5639.41
5639.36
5639.3
5639.25
5639.21
5639.17
5639.16
5639.18
5639.12
5639.07
5639.02
5638.98
5638.95
5638.94
5638.94
5638.95
5638.89
5638.83
5638.8
5638.77
5638.75
5638.75
5638.77
5639.16
5639.1
5639.06
5639.02
5639
5638.98
5638.96
5638.98
5638.93
5638.87
5638.82
5638.79
5638.76
5638.75
5638.75
5638.77
5639.22
5639.16
5639.11
5639.06
5639.02
5638.99
5638.97
5638.98
5639.49
5639.43
5639.38
5639.32
5639.27
5639.23
5639.2
5639.19
5509.47
5509.45
5509.44
5509.42
5509.41
5509.4
5509.39
5509.38
5509.3
5509.28
5509.26
5509.25
5509.23
5509.22
5509.21
5509.21
5509.12
5509.08
5509.05
5509.03
5509.02
5509.01
5509.01
5509.03
5509.32
5509.29
5509.26
5509.24
5509.23
5509.22
5509.23
5509.24
5509.09
5509.05
5509.03
5509.01
5509
5509
5509
5509.02
5509.35
5509.32
5509.3
5509.28
5509.27
5509.26
5509.25
5509.25
5509.53
5509.5
5509.48
5509.47
5509.45
5509.44
5509.43
5509.42
5379.5
5379.52
5379.54
5379.55
5379.56
5379.57
5379.57
5379.57
5379.36
5379.39
5379.41
5379.43
5379.45
5379.46
5379.47
5379.47
5379.12
5379.13
5379.14
5379.15
5379.15
5379.15
5379.16
5379.17
5379.35
5379.37
5379.38
5379.39
5379.4
5379.41
5379.41
5379.42
5379.07
5379.09
5379.11
5379.12
5379.13
5379.14
5379.15
5379.16
5379.39
5379.42
5379.44
5379.46
5379.47
5379.49
5379.5
5379.5
5379.57
5379.59
5379.6
5379.62
5379.62
5379.63
5379.63
5379.63
5249.51
5249.57
5249.62
5249.66
5249.69
5249.71
5249.72
5249.72
5249.38
5249.45
5249.5
5249.54
5249.57
5249.6
5249.61
5249.61
5249.27
5249.32
5249.35
5249.37
5249.38
5249.39
5249.39
5249.4
5249.37
5249.42
5249.46
5249.49
5249.52
5249.54
5249.55
5249.55
5249.21
5249.26
5249.3
5249.33
5249.35
5249.36
5249.37
5249.37
5249.4
5249.46
5249.52
5249.56
5249.59
5249.61
5249.62
5249.63
5249.6
5249.66
5249.7
5249.74
5249.76
5249.78
5249.79
5249.79
5119.66
5119.76
5119.83
5119.89
5119.93
5119.96
5119.97
5119.98
5119.49
5119.59
5119.67
5119.73
5119.78
5119.81
5119.83
5119.84
5119.52
5119.61
5119.68
5119.71
5119.74
5119.75
5119.76
5119.76
5119.48
5119.56
5119.63
5119.68
5119.72
5119.74
5119.76
5119.77
5119.41
5119.52
5119.59
5119.64
5119.67
5119.68
5119.69
5119.69
5119.49
5119.6
5119.68
5119.74
5119.78
5119.81
5119.83
5119.84
5119.74
5119.83
5119.91
5119.96
5120
5120.03
5120.04
5120.05
5639.56
5639.5
5639.45
5639.4
5639.35
5639.31
5639.28
5639.27
5639.41
5639.36
5639.31
5639.27
5639.23
5639.2
5639.18
5639.17
5639.29
5639.21
5639.15
5639.11
5639.08
5639.06
5639.05
5639.06
5639.38
5639.33
5639.29
5639.25
5639.22
5639.21
5639.21
5639.22
5639.28
5639.21
5639.17
5639.13
5639.11
5639.1
5639.09
5639.1
5639.58
5639.52
5639.47
5639.43
5639.39
5639.37
5639.35
5639.35
5639.78
5639.72
5639.66
5639.61
5639.57
5639.53
5639.51
5639.5
5509.63
5509.6
5509.58
5509.57
5509.55
5509.54
5509.53
5509.52
5509.56
5509.54
5509.51
5509.5
5509.49
5509.48
5509.47
5509.46
5509.5
5509.45
5509.41
5509.38
5509.37
5509.36
5509.35
5509.35
5509.55
5509.52
5509.49
5509.46
5509.46
5509.46
5509.46
5509.47
5509.47
5509.43
5509.4
5509.38
5509.37
5509.36
5509.36
5509.37
5509.75
5509.72
5509.7
5509.68
5509.67
5509.66
5509.66
5509.65
5509.94
5509.92
5509.89
5509.87
5509.85
5509.84
5509.82
5509.82
5379.71
5379.73
5379.74
5379.75
5379.76
5379.76
5379.76
5379.76
5379.62
5379.64
5379.64
5379.65
5379.65
5379.66
5379.66
5379.66
5379.71
5379.7
5379.69
5379.69
5379.68
5379.67
5379.66
5379.66
5379.58
5379.59
5379.6
5379.62
5379.63
5379.64
5379.64
5379.65
5379.64
5379.65
5379.66
5379.66
5379.66
5379.65
5379.65
5379.65
5379.83
5379.84
5379.85
5379.85
5379.86
5379.86
5379.87
5379.87
5380.05
5380.06
5380.07
5380.08
5380.08
5380.08
5380.08
5380.08
5249.75
5249.81
5249.85
5249.89
5249.91
5249.93
5249.93
5249.94
5249.73
5249.77
5249.79
5249.81
5249.82
5249.82
5249.82
5249.82
5249.99
5250.03
5250.07
5250.09
5250.09
5250.09
5250.09
5250.08
5249.84
5249.85
5249.85
5249.85
5249.85
5249.85
5249.85
5249.85
5249.91
5249.95
5249.98
5250
5250.02
5250.02
5250.01
5250.01
5249.94
5249.98
5250.01
5250.03
5250.04
5250.05
5250.06
5250.06
5250.11
5250.16
5250.2
5250.23
5250.25
5250.26
5250.27
5250.27
5119.87
5119.97
5120.04
5120.09
5120.13
5120.16
5120.17
5120.18
5119.93
5120.02
5120.08
5120.12
5120.14
5120.16
5120.16
5120.17
5120.16
5120.26
5120.34
5120.4
5120.44
5120.47
5120.48
5120.48
5120.13
5120.18
5120.2
5120.21
5120.22
5120.21
5120.21
5120.21
5120.13
5120.22
5120.29
5120.34
5120.36
5120.37
5120.37
5120.37
5120.1
5120.19
5120.25
5120.29
5120.32
5120.34
5120.35
5120.35
5120.2
5120.29
5120.36
5120.41
5120.45
5120.47
5120.49
5120.49
5639.54
5639.48
5639.43
5639.38
5639.34
5639.3
5639.28
5639.28
5639.21
5639.16
5639.11
5639.07
5639.05
5639.03
5639.02
5639.03
5639.04
5638.98
5638.94
5638.91
5638.88
5638.87
5638.87
5638.89
5639.26
5639.2
5639.16
5639.13
5639.11
5639.09
5639.07
5639.09
5639.05
5638.98
5638.93
5638.89
5638.87
5638.85
5638.84
5638.86
5639.22
5639.16
5639.12
5639.08
5639.04
5639.01
5639
5639
5639.48
5639.42
5639.36
5639.31
5639.26
5639.21
5639.18
5639.17
5509.69
5509.67
5509.64
5509.63
5509.61
5509.6
5509.59
5509.59
5509.4
5509.38
5509.36
5509.35
5509.34
5509.34
5509.33
5509.34
5509.21
5509.18
5509.16
5509.14
5509.13
5509.13
5509.14
5509.15
5509.45
5509.42
5509.39
5509.37
5509.36
5509.35
5509.35
5509.37
5509.23
5509.2
5509.17
5509.15
5509.14
5509.13
5509.13
5509.14
5509.37
5509.35
5509.33
5509.32
5509.31
5509.3
5509.29
5509.29
5509.49
5509.47
5509.45
5509.44
5509.43
5509.41
5509.4
5509.4
5379.75
5379.78
5379.8
5379.81
5379.82
5379.82
5379.83
5379.83
5379.44
5379.48
5379.51
5379.53
5379.55
5379.56
5379.57
5379.57
5379.19
5379.21
5379.22
5379.23
5379.24
5379.25
5379.26
5379.27
5379.49
5379.5
5379.51
5379.52
5379.53
5379.54
5379.54
5379.54
5379.26
5379.27
5379.28
5379.28
5379.29
5379.29
5379.29
5379.3
5379.46
5379.48
5379.5
5379.52
5379.53
5379.53
5379.54
5379.54
5379.53
5379.55
5379.57
5379.58
5379.59
5379.6
5379.6
5379.6
5249.78
5249.84
5249.89
5249.93
5249.96
5249.98
5249.99
5249.99
5249.47
5249.54
5249.6
5249.64
5249.68
5249.7
5249.71
5249.72
5249.28
5249.33
5249.37
5249.4
5249.42
5249.44
5249.44
5249.45
5249.53
5249.57
5249.61
5249.64
5249.66
5249.67
5249.68
5249.68
5249.41
5249.46
5249.49
5249.52
5249.53
5249.53
5249.53
5249.53
5249.5
5249.56
5249.6
5249.64
5249.66
5249.68
5249.69
5249.69
5249.55
5249.61
5249.66
5249.7
5249.73
5249.74
5249.76
5249.76
5119.89
5119.99
5120.07
5120.13
5120.18
5120.2
5120.22
5120.23