/*--------------------------------*- C++ -*----------------------------------*\
| =========                 |                                                 |
| \\      /  F ield         | OpenFOAM: The Open Source CFD Toolbox           |
|  \\    /   O peration     | Version:  plus.master.MPPICInterFoam            |
|   \\  /    A nd           | Web:      www.OpenFOAM.com                      |
|    \\/     M anipulation  |                                                 |
\*---------------------------------------------------------------------------*/
FoamFile
{
    version     2.0;
    format      ascii;
    class       scalarField;
    location    "11/lagrangian/kinematicCloud";
    object      age;
}
// * * * * * * * * * * * * * * * * * * * * * * * * * * * * * * * * * * * * * //


298
(
10.8499
10.728
10.93
10.7829
10.9644
10.7905
10.6023
10.8205
10.8588
10.7823
10.8983
10.9198
10.9642
10.724
10.8894
10.5684
10.8694
10.8435
10.8301
10.7622
10.9763
10.9622
10.9078
10.9271
10.8075
10.7821
11.0002
10.9009
10.8317
10.9671
10.6517
10.9641
10.9683
10.8459
10.8965
10.9428
10.9937
10.5675
10.8784
10.7878
10.8982
10.811
10.9473
10.9305
10.908
10.9884
10.5264
10.5286
10.7039
10.6339
10.9488
10.7282
10.6996
10.8847
10.6765
10.966
10.8422
10.8647
10.9977
10.1203
10.9784
10.0952
10.9762
10.9711
10.4667
10.1226
10.6171
10.6825
10.8686
10.4896
10.2489
10.5094
10.629
10.1786
10.9914
10.6979
10.4956
10.2406
10.9768
10.6442
10.24
10.6525
10.4441
10.2368
10.971
10.4516
10.2811
10.7628
10.6008
10.9855
10.696
10.7376
10.2574
10.9529
10.33
10.1735
10.9835
10.211
10.4076
10.5122
10.9108
10.3231
10.7873
10.535
10.2086
10.2424
10.5829
10.5489
10.4412
10.5794
10.1508
10.1604
10.3698
10.255
10.2102
10.9685
10.2916
10.4767
10.9077
10.5735
10.14
10.9665
10.9932
10.2618
10.3422
10.1067
10.3334
10.6887
10.141
10.4916
10.9939
10.5633
10.5139
10.0961
10.17
10.5308
10.2301
10.5648
10.2024
10.4459
10.4486
10.3508
10.6301
10.0801
10.1792
10.1301
10.102
10.3986
10.2226
10.6143
10.7719
10.1702
10.1129
10.8055
10.5064
10.2766
10.2417
10.2205
10.0937
10.3453
10.4385
10.8747
10.3603
10.5914
10.7429
10.2717
10.2426
10.1943
10.9885
10.411
10.7064
10.1504
10.0804
10.2398
10.7487
10.1293
10.3669
10.8252
10.1172
10.5938
10.1143
10.2
10.7254
10.5794
10.0874
10.7815
10.2777
10.2758
10.3706
10.1222
10.5338
10.7055
10.8653
10.1727
10.1193
10.7922
10.442
10.1103
10.1583
10.0924
10.8726
10.2752
10.1705
10.7911
10.2073
10.9708
10.4472
10.2001
10.231
10.6476
10.18
10.2404
10.7924
10.0666
10.6083
10.9597
10.9543
11
10.3074
10.2816
10.1816
10.24
10.2396
10.337
10.2407
10.1724
10.5542
10.1416
10.2045
10.612
10.3412
10.828
10.132
10.4736
10.7057
10.2719
10.281
10.9786
10.9947
10.4483
10.8211
10.4035
10.1032
10.4056
10.1287
10.6963
10.3811
10.2001
10.3315
10.1
10.2703
10.1913
10.2801
10.4752
10.984
10.1945
10.212
10.5162
10.8303
10.3001
10.4001
10.2645
10.451
10.5571
10.0726
10.2411
10.1076
10.3747
10.4142
10.1235
10.429
10.4102
10.1175
10.4878
10.7901
10.5081
10.2901
10.2765
10.7096
10.1252
10.9095
10.2036
10.0707
10.4397
10.1902
10.7849
10.3259
10.1301
10.2354
10.9138
10.1802
10.0851
10.4608
10.5159
10.2211
10.2807
10.3002
10.9325
)


// ************************************************************************* //
