/*--------------------------------*- C++ -*----------------------------------*\
| =========                 |                                                 |
| \\      /  F ield         | OpenFOAM: The Open Source CFD Toolbox           |
|  \\    /   O peration     | Version:  plus.master.MPPICInterFoam            |
|   \\  /    A nd           | Web:      www.OpenFOAM.com                      |
|    \\/     M anipulation  |                                                 |
\*---------------------------------------------------------------------------*/
FoamFile
{
    version     2.0;
    format      ascii;
    class       vectorField;
    location    "11/lagrangian/kinematicCloud";
    object      U;
}
// * * * * * * * * * * * * * * * * * * * * * * * * * * * * * * * * * * * * * //


298
(
(9.17487e-05 0.000130809 -0.0401844)
(0.000272231 -0.0002204 -0.0385347)
(1.61469e-05 0.000194757 -0.047647)
(0.000191677 -0.000274564 -0.0403253)
(0.000203208 -0.000344879 -0.047035)
(0.000274045 -8.60751e-05 -0.0474879)
(0.000410109 -0.000225165 -0.0482718)
(0.000133551 0.000204505 -0.0477493)
(6.99619e-05 0.000180932 -0.047469)
(0.000167821 0.000180918 -0.0463391)
(0.00025837 -0.000195956 -0.0481614)
(-0.000122314 0.000177205 -0.0398627)
(0.000216447 -0.000266091 -0.0428691)
(-0.000208434 8.22776e-05 -0.0361472)
(0.000214012 -0.000177446 -0.0444413)
(0.000383552 -0.000300526 -0.0480446)
(0.000121076 0.000212402 -0.0461134)
(-7.67815e-05 0.000253712 -0.0473563)
(5.99922e-05 0.000261332 -0.04931)
(4.60412e-05 0.000276999 -0.0490807)
(-4.90688e-06 0.000221388 -0.0490621)
(-0.000178779 8.60585e-05 -0.0376775)
(0.000251388 -0.000455484 -0.0476646)
(0.00020029 0.000135281 -0.0489302)
(-0.000164376 0.000221415 -0.0453279)
(0.0002552 -0.00028188 -0.0467238)
(-0.000107267 0.00020351 -0.0427784)
(-0.000143331 0.000260474 -0.0465729)
(-2.10395e-05 0.000262917 -0.0487185)
(9.22115e-05 0.000221505 -0.0487076)
(-0.000115466 0.000176708 -0.0433617)
(-0.000136467 0.000219266 -0.0476842)
(-4.39449e-05 0.000337483 -0.0482938)
(-0.000127755 0.000178197 -0.0435957)
(1.04388e-05 0.000186672 -0.045797)
(0.000255422 -0.000196514 -0.0492351)
(-0.000128469 0.000183229 -0.0444675)
(-0.000182859 0.000286673 -0.046724)
(1.4816e-05 0.000184648 -0.0469805)
(-0.000298636 0.000164355 -0.0461675)
(-0.000166383 0.000217584 -0.0473665)
(-0.000338121 0.000135717 -0.0423782)
(-5.3323e-07 -1.11384e-07 -0.0232482)
(-0.00035917 0.000141169 -0.0441614)
(0.000288134 -0.000719628 -0.0486052)
(-0.000456769 -0.000135615 -0.0504317)
(-2.17088e-08 -1.24049e-08 -0.0215064)
(-0.00042666 -7.22652e-05 -0.052641)
(-0.000319949 0.000259404 -0.0488976)
(-0.000407759 -6.12889e-05 -0.0525666)
(4.54331e-07 0.000647837 -0.0495287)
(0.000307299 -0.0006447 -0.0525097)
(0.000287312 -0.000741168 -0.052452)
(-8.4528e-05 0.000376297 -0.0522186)
(0.000177337 -0.000592489 -0.0534047)
(-0.000459201 -6.47116e-05 -0.0547476)
(-0.000416775 -8.3153e-05 -0.0540897)
(0.000661159 -0.000183372 -0.0530719)
(-4.99878e-05 0.000600899 -0.0523628)
(-2.53535e-05 0.000608574 -0.0532476)
(0.000572666 -0.000200667 -0.0524182)
(-0.000216835 0.0005851 -0.0521733)
(0.000302754 -0.000221588 -0.0516705)
(-0.000148761 0.000561562 -0.0512586)
(0.000240283 -0.000219131 -0.0521466)
(0.000272939 -0.000282145 -0.0540486)
(0.000227741 -0.000272643 -0.0544053)
(0.000213866 -0.000278085 -0.0538799)
(-2.09166e-05 -0.000537578 -0.0516195)
(0.000195153 -0.000257768 -0.0542801)
(0.000525965 -0.000359168 -0.0544059)
(0.00022186 -0.000237008 -0.0531676)
(3.23445e-05 -0.000564105 -0.0536639)
(-0.000241847 0.000554785 -0.0535538)
(-0.000388383 -4.00517e-05 -0.0547139)
(0.000188899 -0.000217479 -0.0526997)
(0.000623634 -0.000136857 -0.0541957)
(0.000579131 -0.000133776 -0.0534891)
(0.000560207 -8.72758e-05 -0.0528878)
(0.00046958 -0.000219435 -0.051951)
(0.000442623 -0.000245045 -0.0523575)
(0.000590267 -0.000107415 -0.0536662)
(0.000496431 -0.000153175 -0.0518755)
(0.000413038 -0.000252928 -0.0516196)
(-0.000312105 5.46039e-05 -0.0506128)
(0.000477558 -0.000123309 -0.0525286)
(0.000579305 -0.000122788 -0.053909)
(0.000459764 -0.000272582 -0.053551)
(0.000466987 -0.000257891 -0.0536807)
(0.000633416 -0.000141085 -0.0553279)
(0.000438409 -0.000288567 -0.0527828)
(-1.7727e-05 -0.00053411 -0.0556268)
(0.000457436 -0.000327553 -0.0542425)
(0.000451219 -0.00031233 -0.0536785)
(0.000411619 -0.000217387 -0.053092)
(0.000417172 -0.000255491 -0.0524077)
(0.00047207 -0.000285955 -0.0542315)
(0.000478466 -0.000145046 -0.0524266)
(0.000136733 -0.000224185 -0.0551816)
(0.000446569 -0.00027679 -0.0542337)
(0.00040485 -0.000173329 -0.0517324)
(0.000540456 -6.14218e-05 -0.0540734)
(0.000394743 -0.000206745 -0.0521283)
(0.000445904 -0.000192074 -0.0527836)
(0.000409426 -0.000216539 -0.0529644)
(0.000470607 -9.85022e-05 -0.0530597)
(9.36271e-05 -0.00049058 -0.0555396)
(0.00040924 -5.75803e-05 -0.0514648)
(0.000430146 -0.000194922 -0.053146)
(0.000409722 -0.000228694 -0.0540269)
(-0.000171094 0.000541433 -0.0539453)
(0.000492791 -1.75088e-05 -0.0538785)
(0.000269701 -9.96629e-05 -0.0496174)
(0.000472939 -0.000120443 -0.0539269)
(0.000361421 -0.0001536 -0.0519999)
(0.00035826 -0.000194535 -0.0530123)
(0.000465684 -2.67048e-05 -0.0536546)
(0.000422111 -0.000121386 -0.0526392)
(-0.000145367 -0.000346052 -0.0529744)
(0.00033541 -0.000171615 -0.0526983)
(0.000275994 -0.000106247 -0.0513665)
(-1.25244e-05 -7.9947e-06 -0.0226362)
(0.000412564 -0.000174315 -0.0541144)
(0.000323993 -0.000124982 -0.0520533)
(0.000324901 -0.000166871 -0.0531511)
(0.000330592 -0.000183889 -0.0536167)
(0.000408167 -0.000158059 -0.0543051)
(0.000403601 -0.000153084 -0.0540341)
(0.0003229 -0.000161537 -0.053812)
(0.000341845 -6.60427e-05 -0.0532264)
(0.00026741 -0.000112222 -0.0521896)
(0.000352525 -0.000171336 -0.0542458)
(0.00026501 -8.43629e-05 -0.0518575)
(0.000359579 -0.000177483 -0.0546793)
(-0.000203875 -0.000288167 -0.0561623)
(-0.000273795 -0.000159712 -0.054685)
(-0.000379937 0.00041502 -0.053738)
(0.000243293 -8.13986e-05 -0.0520929)
(-0.000420146 0.000367662 -0.0535586)
(0.000400211 -0.00011716 -0.0547834)
(-8.13155e-05 -0.000350468 -0.0540309)
(0.000299368 -3.7755e-05 -0.0523268)
(-0.000406116 0.000374211 -0.0541649)
(-0.000410898 0.000365452 -0.0540689)
(0.000322049 -4.9127e-05 -0.0535312)
(-0.000403685 0.000368032 -0.0528318)
(0.000479106 -0.000175577 -0.0565702)
(-0.000220307 -0.000233473 -0.053489)
(0.000350166 -3.52135e-05 -0.0538562)
(0.000374676 -0.000119961 -0.054992)
(0.000289552 -0.000114696 -0.053719)
(0.000318174 -3.54667e-05 -0.0536106)
(0.000274976 4.81287e-06 -0.0522703)
(0.000407666 -0.000161323 -0.0551869)
(-0.000498065 0.000277765 -0.0522862)
(0.000376026 -6.0166e-06 -0.0540261)
(0.000350947 -0.000120576 -0.0542284)
(0.000359513 -0.000123662 -0.0540901)
(-0.000436028 0.000343913 -0.0523692)
(-0.000309946 0.00048094 -0.0550878)
(0.000317224 -8.02701e-05 -0.0532936)
(0.000394883 -5.73367e-05 -0.0549786)
(0.000448133 -9.56104e-05 -0.0565353)
(0.000292102 -6.30199e-05 -0.0530874)
(-0.000470312 0.000314966 -0.0532787)
(-0.000320975 -3.29555e-05 -0.0529694)
(-0.000321551 0.000435196 -0.0536847)
(-0.000471283 0.000280883 -0.0523428)
(-0.000339843 -6.3349e-05 -0.0532655)
(-0.000465647 0.000291954 -0.0521265)
(-0.000352667 0.000355075 -0.0516381)
(-0.000429961 0.000358668 -0.0543308)
(-0.000496825 0.000255157 -0.0521341)
(-0.000491172 0.000252146 -0.0515001)
(-0.000480891 0.000268462 -0.0523172)
(-0.000472749 0.000282093 -0.052695)
(-0.000501262 0.000248906 -0.0524435)
(-0.000307821 5.6237e-05 -0.0572002)
(-0.000400779 0.000350982 -0.0530769)
(0.000244993 -2.68946e-05 -0.0536846)
(-0.00035988 3.69433e-05 -0.0526433)
(0.000272224 -4.90605e-05 -0.0543132)
(-0.000288226 -0.000115342 -0.0541205)
(-0.000463831 0.000253371 -0.0517181)
(-0.000450916 0.000263261 -0.0520415)
(-0.00051088 0.000189963 -0.0510645)
(-0.000496887 0.000207339 -0.051075)
(0.000148558 1.97189e-05 -0.0530557)
(-0.000527666 0.000133988 -0.0515084)
(-0.000421135 0.000234498 -0.051552)
(-0.000398595 0.000294512 -0.0532523)
(-0.000508168 0.000150141 -0.050966)
(-0.000538193 9.48618e-05 -0.0508004)
(-0.000551338 -1.29978e-06 -0.0496944)
(-0.00044854 0.000225496 -0.0537941)
(-0.000445736 0.000228449 -0.0539191)
(9.58956e-05 6.25931e-05 -0.0548993)
(-0.000434956 0.000212042 -0.053209)
(-0.000411595 0.000407924 -0.0510456)
(-0.00048806 0.000159431 -0.0536287)
(-0.000526354 6.7445e-05 -0.0519966)
(-0.000549853 -1.77827e-05 -0.0507718)
(-0.000551516 -1.69341e-05 -0.0508412)
(-0.000517083 8.5342e-05 -0.052206)
(-0.00050771 0.000166717 -0.0543112)
(-0.000553995 -7.13696e-05 -0.0504834)
(-0.00055024 5.20126e-06 -0.0520099)
(-0.000413524 0.000332354 -0.053671)
(8.24726e-05 6.72937e-05 -0.0564697)
(-8.95803e-05 0.0001234 -0.0533078)
(-0.000555623 -6.15209e-06 -0.0521539)
(-0.000186364 0.000209692 -0.052926)
(-0.000122504 0.000137693 -0.053333)
(-0.000456408 0.000130493 -0.0534402)
(-0.000261563 0.000129475 -0.0548577)
(-0.000440124 6.7367e-05 -0.0526736)
(-0.00041023 0.000705528 -0.0532143)
(-0.000353359 0.000879656 -0.0507071)
(-0.00035723 0.000194973 -0.0527559)
(-0.000192999 0.000463112 -0.0541897)
(-0.000387117 0.000172586 -0.0529383)
(-0.000441867 0.000191604 -0.0531297)
(-0.000268795 0.000635559 -0.0545718)
(-0.000540044 -0.000380969 -0.0528809)
(-0.000273605 0.00106071 -0.0526887)
(-0.000651857 0.000146813 -0.0540963)
(-0.000684247 0.000227251 -0.0540742)
(-0.00048571 -0.000630477 -0.0509311)
(-0.000638026 0.000227507 -0.0561955)
(-0.000522584 0.000384483 -0.0575956)
(-0.000956683 3.03779e-05 -0.0559245)
(-0.000854479 0.000242121 -0.0540292)
(-0.000851457 8.54992e-05 -0.0535575)
(-0.00115778 -5.60865e-07 -0.0535914)
(0.000672986 0.000441758 -0.0564077)
(-0.00111318 4.48907e-05 -0.0562793)
(0.000287575 0.000972818 -0.0483759)
(-0.00156788 -0.000243301 -0.0565872)
(0.00146196 0.000496956 -0.0543065)
(0.000931312 0.00225186 -0.0532346)
(0.000855375 0.00230157 -0.0575341)
(0.00243587 0.00301682 -0.0546739)
(0.00271709 0.00352448 -0.0572676)
(0.00254442 0.00372965 -0.056548)
(0.00297406 0.0034484 -0.0560559)
(0.00305304 0.00317123 -0.0562843)
(0.00291705 0.00381682 -0.0568404)
(0.00291232 0.00408415 -0.0576454)
(0.0029637 0.00400097 -0.0577013)
(0.00302289 0.00420354 -0.057591)
(0.00310884 0.00394039 -0.0583943)
(0.00311981 0.00393498 -0.058786)
(0.00311763 0.00460837 -0.0566876)
(0.00316444 0.00379778 -0.0591777)
(0.00252823 -0.00455553 -0.0564838)
(0.00318267 0.00390893 -0.0592537)
(0.00330759 0.00387334 -0.0590363)
(-5.801e-05 -0.00530184 0.318029)
(0.00318451 0.00441103 -0.0592377)
(0.00334942 0.00429566 -0.0599099)
(0.0031543 0.00393886 -0.0614003)
(0.00337628 0.00396141 -0.0626392)
(0.00315696 0.00381122 -0.061102)
(0.00337033 0.00424818 -0.0623128)
(0.0028545 -0.00551733 -0.06041)
(-0.000870196 -0.00272789 0.330096)
(-0.000828671 -0.0025227 0.319662)
(0.00345103 0.00397205 -0.0630212)
(0.00356533 0.00485277 -0.0613765)
(0.00376103 0.00510878 -0.0608886)
(-0.00203577 -0.00341188 0.333891)
(-0.000698052 0.00384773 0.443292)
(0.00310148 0.00500061 -0.0660633)
(0.0027422 0.00588338 -0.0653713)
(0.0033111 0.00492499 -0.0650822)
(-0.00122332 0.000367099 0.470635)
(0.0030292 0.00555592 -0.065579)
(0.00254305 0.00525006 -0.0701651)
(0.0037912 0.00499456 -0.0640764)
(-0.0023233 0.0096173 0.435464)
(0.00379478 0.00502317 -0.0644845)
(0.00373704 0.00446891 -0.0647342)
(0.00290818 0.00598865 -0.0658315)
(0.00280856 0.00604118 -0.0672095)
(-0.00236204 0.00535796 0.435079)
(0.00360068 0.00450562 -0.0661266)
(0.00343168 0.00497351 -0.0674079)
(0.00297481 0.00563194 -0.0698225)
(0.00336826 0.00512256 -0.0682178)
(0.00315886 0.00542689 -0.0687454)
(-0.00944315 -0.00671582 0.376875)
(-0.00946518 -0.00666858 0.366652)
(0.00338962 0.00477104 -0.0700532)
(0.00330557 0.00494433 -0.0709574)
(0.00320452 0.00518017 -0.0710105)
(0.00274904 0.00584678 -0.0721675)
(0.00259803 0.00576814 -0.0726755)
(0.003232 0.00499779 -0.0721973)
)


// ************************************************************************* //
