/*--------------------------------*- C++ -*----------------------------------*\
| =========                 |                                                 |
| \\      /  F ield         | OpenFOAM: The Open Source CFD Toolbox           |
|  \\    /   O peration     | Version:  plus.master.MPPICInterFoam            |
|   \\  /    A nd           | Web:      www.OpenFOAM.com                      |
|    \\/     M anipulation  |                                                 |
\*---------------------------------------------------------------------------*/
FoamFile
{
    version     2.0;
    format      ascii;
    class       vectorField;
    location    "3/lagrangian/kinematicCloud";
    object      U;
}
// * * * * * * * * * * * * * * * * * * * * * * * * * * * * * * * * * * * * * //


97
(
(-0.00747175 -0.0050018 0.372029)
(0.00713261 -0.0327762 0.356816)
(-0.0190623 -0.0102607 0.352119)
(0.00907248 0.00521747 0.348871)
(0.00933838 -0.0082627 0.343994)
(0.00137054 -0.0254071 0.349057)
(-0.0091434 -0.0116964 0.351313)
(-0.01424 0.00477151 0.315206)
(-0.00628081 0.00503504 0.334551)
(0.0162477 0.00828392 0.347969)
(0.00375947 -0.0254384 0.348853)
(-0.0101847 0.00554008 0.318406)
(-0.00302513 0.01703 0.345654)
(0.000761113 -0.00662636 0.337326)
(-0.00630359 0.00988409 0.343022)
(-0.0033556 0.00746599 0.339558)
(-0.0110925 0.0259825 0.344768)
(-0.00459135 -0.00209771 0.325789)
(-0.00536576 0.00444613 0.308217)
(-0.00460431 -0.00222516 0.325665)
(0.00199025 -0.00594055 0.338345)
(-0.00763752 0.0109329 0.324678)
(0.000494036 -0.0057638 0.339115)
(0.000200547 0.0115896 0.350997)
(-0.0150184 0.0109266 0.35118)
(-0.00804997 0.00830053 0.333613)
(-0.00519419 0.00942172 0.309511)
(-0.0164906 0.00467039 0.349404)
(-0.00504414 -0.00138075 0.331381)
(-0.00870806 0.0050065 0.338517)
(-0.00212301 -0.00642658 0.342205)
(-0.00185263 -0.00659337 0.345338)
(-0.00502787 0.00387665 0.310826)
(-0.00691477 0.00134383 0.34401)
(-0.000244708 -0.00769165 0.351599)
(-0.00508086 0.00665119 0.353453)
(-0.00481057 0.00478853 0.315442)
(-0.0081106 0.007834 0.314697)
(-0.00354082 -0.00790635 0.340623)
(-0.00498696 0.00293177 0.29892)
(-0.0124742 0.00121728 0.31882)
(-0.00349499 0.00800225 0.348017)
(-0.00831898 0.00498916 0.318)
(-0.00953067 0.00346492 0.318912)
(-0.0028012 -0.00524507 0.337279)
(-0.00182244 -0.00549898 0.324406)
(-0.0118687 0.0203199 0.335273)
(-0.00350244 0.000590193 0.305166)
(-0.0101737 -0.00121224 0.300157)
(-0.00231672 -0.00380551 0.327177)
(-0.0136686 0.012111 0.329459)
(-0.00145337 -0.00295803 0.338026)
(-0.0123459 0.00272657 0.310696)
(-0.0215213 0.00536081 0.307333)
(-0.0126452 0.00185999 0.314843)
(-0.00358959 0.000430256 0.332191)
(-0.00911021 0.0138751 0.308101)
(-0.00319977 -0.00228737 0.332491)
(-0.00393675 0.00921024 0.349437)
(-0.00381182 0.0141923 0.339578)
(-0.00232641 -0.00586976 0.336314)
(-0.0026432 0.000548545 0.307541)
(-0.0126714 0.00166872 0.314779)
(-0.0121632 0.00103014 0.317147)
(-0.00119551 -0.00495407 0.347764)
(-0.000790108 -0.00335911 0.31275)
(-0.0110342 0.00460056 0.307062)
(-0.0100672 0.0113083 0.322177)
(-0.00981879 -0.00323618 0.316528)
(-0.00390377 -0.00156285 0.326529)
(-0.0144353 0.0121199 0.339905)
(-0.00761623 0.00289183 0.329261)
(-0.00222396 -0.00357711 0.302979)
(-0.00457842 -0.00179317 0.346006)
(0.00116534 -0.00325193 0.299278)
(-0.0125897 0.00726904 0.308262)
(-0.02721 0.00141787 0.33734)
(-0.0183253 0.0100907 0.328151)
(-0.0112475 0.00473836 0.307536)
(-0.0200994 0.00585408 0.335134)
(-0.00268076 0.00893334 0.336704)
(-0.00977189 0.00455841 0.322378)
(-0.0143942 0.00279663 0.335636)
(-0.00984973 0.00543864 0.327804)
(-0.00893237 0.00110251 0.296933)
(-0.0104023 0.00328886 0.315815)
(-0.0103625 0.00592468 0.310913)
(-0.0016178 0.000847392 0.3389)
(-0.00634889 0.000764161 0.296733)
(-0.0100285 0.00246325 0.318803)
(-0.00153137 0.0049793 0.325661)
(-0.00158091 0.00230955 0.333482)
(0.00170955 -0.000532668 0.355279)
(0.000321046 -0.000286172 0.338769)
(-0.00743631 0.00468049 0.34178)
(-0.00067885 0.00179078 0.351699)
(-0.00928526 0.00438349 0.33443)
)


// ************************************************************************* //
