/*--------------------------------*- C++ -*----------------------------------*\
| =========                 |                                                 |
| \\      /  F ield         | OpenFOAM: The Open Source CFD Toolbox           |
|  \\    /   O peration     | Version:  plus.master.MPPICInterFoam            |
|   \\  /    A nd           | Web:      www.OpenFOAM.com                      |
|    \\/     M anipulation  |                                                 |
\*---------------------------------------------------------------------------*/
FoamFile
{
    version     2.0;
    format      ascii;
    class       vectorField;
    location    "5.6/lagrangian/kinematicCloud";
    object      UCorrect;
}
// * * * * * * * * * * * * * * * * * * * * * * * * * * * * * * * * * * * * * //


93624
(
(0.000275595 0.00452056 6.00672e-05)
(0.000281944 -9.60144e-05 5.10635e-05)
(-1.15083e-07 3.48516e-05 7.10799e-07)
(-4.65169e-06 9.09967e-05 5.70348e-05)
(2.96441e-05 -4.67525e-05 3.73659e-05)
(-0.00010583 -0.000159118 6.11055e-05)
(0.00011797 -0.000175718 5.83956e-05)
(5.54226e-05 0.00020293 0.00144612)
(5.06776e-05 8.28514e-05 5.46102e-05)
(2.32849e-06 2.0786e-05 4.82364e-05)
(4.97601e-05 6.46715e-05 5.33522e-05)
(0.000156726 0.000175441 0.00101672)
(-0.00079563 0.000161133 5.86678e-05)
(7.96465e-05 0.000151663 5.81721e-05)
(0.000194769 -4.13682e-10 5.26726e-05)
(0.000149416 8.21682e-05 3.99169e-05)
(-0.000217413 0.00433252 0.00157191)
(-0.000135138 6.50791e-05 6.2434e-05)
(9.92476e-05 0.000178048 5.42331e-05)
(2.43629e-05 1.45511e-05 5.02065e-05)
(-0.0001071 0.00013182 0.00130691)
(5.31434e-07 0.000152496 1.5147e-06)
(-0.000108368 -5.21871e-05 4.78154e-05)
(-0.000118033 -5.61044e-05 6.32889e-05)
(0.000281944 -9.60144e-05 5.78022e-05)
(-2.59804e-05 -2.7467e-05 4.21858e-05)
(-0.000108158 0.000116747 0.00130031)
(-1.16819e-11 0.000135459 3.97798e-06)
(-0.000137602 -6.62655e-05 0.00139403)
(5.20451e-05 -0.000132962 5.53027e-05)
(-0.000242933 -1.8028e-05 4.84116e-05)
(8.2804e-05 -0.000174144 5.94429e-05)
(-0.000103085 4.96401e-05 6.20636e-05)
(-0.000113901 0.000118162 0.0013278)
(-0.000146314 0.000132885 5.40924e-05)
(7.43951e-05 0.000135793 4.09459e-05)
(-8.63514e-08 -2.2242e-06 5.15058e-05)
(2.32849e-06 2.0786e-05 5.60907e-05)
(0.000107978 0.000152343 1.81861e-07)
(-6.57654e-05 1.54413e-06 4.7965e-05)
(0.00011797 -0.000175718 5.56842e-05)
(-9.99072e-05 -0.000169502 6.09577e-05)
(-6.58421e-05 -6.1477e-05 0.00141468)
(-0.000135138 6.50791e-05 5.74831e-05)
(-4.37725e-05 7.99265e-05 6.26501e-05)
(8.2804e-05 -0.000174144 5.60518e-05)
(0.000542651 4.24948e-05 7.45232e-07)
(-5.98502e-05 0.000119129 6.77294e-05)
(-9.99072e-05 -0.000169502 5.25924e-05)
(-2.29963e-05 5.30484e-05 5.98749e-05)
(0.000183761 -0.00020837 0.00133195)
(-7.65232e-05 0.000130113 0.00141577)
(0.000186553 -4.12229e-05 5.24648e-05)
(-3.25719e-06 -7.53325e-05 5.48e-05)
(9.3456e-05 -0.000202169 0.00135794)
(5.06776e-05 8.28514e-05 5.08439e-05)
(0.000235284 0.000178122 0.00134596)
(1.62264e-05 -0.00447243 1.61692e-05)
(-4.37725e-05 7.99265e-05 5.74435e-05)
(1.2016e-05 6.48745e-06 4.98567e-05)
(0.000180398 -0.000154229 0.00116564)
(8.2804e-05 -0.000174144 5.62746e-05)
(3.04006e-05 0.000152467 5.67428e-05)
(-4.37725e-05 7.99265e-05 5.79519e-05)
(0.000472719 -4.09415e-06 0.00161337)
(-0.000108368 -5.21871e-05 6.21089e-05)
(-1.16819e-11 0.000135459 4.40774e-06)
(9.5882e-05 0.00022239 6.22372e-05)
(-9.2981e-05 -3.76309e-12 5.84383e-05)
(8.90701e-05 -0.000126437 3.80066e-05)
(0.000113324 -3.02483e-05 0.00137313)
(0.000287879 0.000125527 6.26502e-05)
(5.06776e-05 8.28514e-05 6.09574e-05)
(5.06776e-05 8.28514e-05 5.1127e-05)
(-3.00753e-05 2.19285e-05 5.75964e-05)
(0.000262587 -7.39688e-05 5.31782e-05)
(2.38697e-05 -5.8476e-11 4.78651e-05)
(0.00435244 0.000588709 6.79721e-05)
(4.86733e-05 0.000100211 6.23275e-05)
(1.9294e-05 0.00015655 5.53224e-05)
(-0.000146314 0.000132885 4.77989e-05)
(5.07582e-05 3.39655e-06 4.91085e-05)
(-0.000104366 5.02599e-05 6.17184e-05)
(4.63328e-05 9.63208e-05 5.48549e-05)
(5.90733e-05 0.000327151 4.84203e-05)
(-1.68177e-05 3.35967e-05 6.11329e-05)
(6.33641e-05 -9.48505e-05 0.00137313)
(-2.57484e-08 3.47567e-05 5.33074e-05)
(0.000345852 -0.000104762 5.49169e-05)
(0.000119437 -0.000155592 6.29098e-05)
(8.97954e-05 0.000272238 6.0502e-05)
(8.65207e-05 0.000168106 0.00143629)
(8.69278e-05 -0.000126389 5.26178e-05)
(-0.000118033 -5.61044e-05 5.61771e-05)
(6.90032e-05 -0.000167572 5.82055e-05)
(-0.000195635 -0.000156835 0.00127389)
(9.92476e-05 0.000178048 5.64352e-05)
(-6.57654e-05 1.54413e-06 4.81656e-05)
(6.56055e-05 -6.18965e-06 4.21815e-05)
(-0.00512538 0.000101934 7.04886e-05)
(0.000237724 -3.83873e-06 5.10493e-05)
(-1.68177e-05 3.35967e-05 5.80245e-05)
(0.000194769 -4.13682e-10 5.296e-05)
(4.03764e-06 -0.000166066 6.22302e-05)
(0.000219629 -0.000156913 6.50381e-05)
(-0.000104366 5.02599e-05 6.5101e-05)
(-2.57484e-08 3.47567e-05 5.12682e-05)
(-4.37725e-05 7.99265e-05 5.95108e-05)
(8.4035e-05 -7.48098e-05 4.60199e-07)
(-8.55805e-05 6.02975e-05 5.5389e-05)
(-5.55577e-05 8.11666e-05 5.76376e-05)
(8.2804e-05 -0.000174144 5.87754e-05)
(-1.24487e-16 1.48939e-16 2.36248e-12)
(-2.30629e-06 -3.68473e-05 6.01e-05)
(9.92476e-05 0.000178048 5.68718e-05)
(6.61118e-06 8.55222e-05 0.00144313)
(8.18374e-05 -0.000117919 5.85607e-05)
(0.000132646 8.74081e-05 5.78732e-05)
(-8.66188e-05 -4.17135e-05 5.68972e-05)
(0.00013243 -0.000125332 6.06364e-05)
(8.18374e-05 -0.000117919 5.72414e-05)
(0.000170035 -5.07017e-06 6.04887e-05)
(-4.65169e-06 9.09967e-05 5.6405e-05)
(0.000217296 -0.000155349 0.00137911)
(-0.00010583 -0.000159118 6.24272e-05)
(0.000133032 0.000142155 6.51338e-05)
(0.000119437 -0.000155592 6.49108e-05)
(5.83381e-05 0.000134532 5.20759e-05)
(5.31434e-07 0.000152496 1.62337e-06)
(0.000287879 0.000125527 5.70579e-05)
(0.000170035 -5.07017e-06 5.39828e-05)
(0.000281944 -9.60144e-05 5.81378e-05)
(-1.68177e-05 3.35967e-05 6.20761e-05)
(5.73319e-05 9.5717e-05 0.00134355)
(5.17821e-05 8.41926e-05 5.22931e-05)
(6.48521e-05 0.000193676 5.77359e-05)
(-1.16819e-11 0.000135459 4.07749e-06)
(4.42501e-05 2.45886e-05 5.74486e-05)
(5.13393e-05 8.43273e-05 0.00140853)
(-2.57484e-08 3.47567e-05 5.09624e-05)
(-5.54462e-05 0.000104167 0.00138975)
(-0.000135711 0.00012966 0.00117759)
(0.000133032 0.000142155 6.00228e-05)
(-0.000118033 -5.61044e-05 6.22784e-05)
(5.54226e-05 0.000174753 0.00144612)
(0.000156727 -7.10486e-05 0.00139504)
(-0.000167956 -0.000118947 0.0013221)
(2.22138e-05 -7.80253e-05 3.42634e-05)
(-4.18912e-05 0.000196358 5.78135e-05)
(-0.000108368 -5.21871e-05 5.63031e-05)
(0.000259141 8.56658e-06 4.02585e-05)
(0.000114141 -0.000121248 6.06321e-05)
(0.000203429 5.86542e-05 5.01559e-05)
(0.000219629 -0.000156913 7.17892e-05)
(5.06776e-05 8.28514e-05 5.36995e-05)
(0.000281944 -9.60144e-05 5.7791e-05)
(-8.94593e-05 0.000152687 6.01832e-05)
(-4.46841e-05 1.74813e-06 4.75196e-05)
(-0.000137893 -6.56686e-05 0.00143713)
(-7.14907e-05 2.23817e-05 5.93396e-05)
(6.07462e-05 -0.00462473 7.35897e-05)
(-2.30629e-06 -3.68473e-05 4.9438e-05)
(0.00011797 -0.000175718 5.4698e-05)
(-5.36318e-05 8.25782e-05 5.67692e-05)
(0.000143199 4.86314e-06 0.00145658)
(-7.23859e-05 -0.000185073 5.57766e-05)
(0.000140713 -3.83873e-06 2.28021e-06)
(1.62264e-05 -0.00447243 1.76582e-05)
(7.86733e-07 -2.00129e-05 4.60294e-05)
(-0.00484059 -0.000396645 5.76745e-05)
(0.000185285 -0.000192674 0.00133066)
(1.62264e-05 -0.00447243 1.72262e-05)
(-0.000123921 6.49152e-05 5.27758e-05)
(8.90701e-05 -0.000126437 4.11614e-05)
(0.00426597 -0.0002441 5.52249e-05)
(-7.66502e-05 0.000130376 0.00141577)
(-1.53261e-05 -8.43889e-06 6.68704e-05)
(-0.00512538 0.000101934 7.22042e-05)
(-9.2981e-05 -3.76309e-12 5.78211e-05)
(-9.30526e-05 -9.4286e-05 0.000144176)
(0.000183199 -0.000138402 5.66029e-05)
(-0.000231 0.000271504 6.10458e-05)
(-0.000104366 5.02599e-05 5.30557e-05)
(-0.000104366 5.02599e-05 6.0113e-05)
(-0.000118033 -5.61044e-05 6.16029e-05)
(7.73933e-07 8.24069e-05 2.24417e-06)
(1.83447e-05 0.000150075 0.00108795)
(0.000203429 5.86542e-05 4.97023e-05)
(-1.69339e-06 -6.93204e-05 5.12408e-05)
(-5.44773e-05 -8.60043e-05 5.08068e-05)
(0.000281944 -9.60144e-05 5.65636e-05)
(3.57022e-05 0.000122451 4.59043e-05)
(2.43629e-05 1.45511e-05 4.86094e-05)
(-8.78326e-05 -8.1682e-05 5.67321e-05)
(3.56649e-05 4.77879e-05 4.62665e-05)
(-0.000166437 -0.000142866 0.00124977)
(1.70987e-05 -0.000335011 6.25342e-05)
(5.25676e-07 -0.000271922 2.66048e-06)
(5.83381e-05 0.000134532 5.15058e-05)
(0.000180327 -0.000154213 0.00116564)
(5.06776e-05 8.28514e-05 5.38105e-05)
(9.92476e-05 0.000178048 6.04534e-05)
(7.73933e-07 5.40049e-05 5.85483e-05)
(0.000187228 -0.000198459 4.90636e-05)
(-0.000110521 0.000128399 0.00130691)
(-1.53261e-05 -8.43889e-06 6.01258e-05)
(6.25912e-05 -0.000204535 5.6179e-05)
(0.000110619 -0.000186349 0.00138429)
(-2.57484e-08 3.47567e-05 5.34213e-05)
(-0.00010583 -0.000159118 6.07919e-05)
(2.97606e-05 -3.10224e-05 5.91604e-05)
(8.18374e-05 -0.000117919 6.2698e-05)
(0.000167944 9.4139e-05 0.00137382)
(0.000187228 -0.000198459 5.95974e-05)
(-0.000108368 -5.21871e-05 5.79187e-05)
(2.38697e-05 -5.8476e-11 4.63173e-05)
(-0.000102791 0.000107804 0.00134571)
(-0.000166911 -0.000142391 0.00124977)
(5.8237e-05 6.51932e-05 3.575e-05)
(0.000262587 -7.39688e-05 5.58763e-05)
(0.000140713 -3.83873e-06 2.15236e-06)
(-5.94058e-05 -8.26808e-06 4.05452e-05)
(-0.000166009 -0.000120894 0.0013221)
(0.000290357 0.000240686 0.00145697)
(0.000297046 -7.55994e-05 5.81173e-05)
(-0.000103085 4.96401e-05 6.25889e-05)
(-0.00512538 0.000101934 7.70985e-05)
(5.31434e-07 0.000152496 1.52454e-06)
(2.97606e-05 -3.10224e-05 5.26071e-05)
(0.000132646 8.74081e-05 5.68589e-05)
(-0.000111616 0.000127304 0.00130691)
(0.000118403 -0.000145406 6.17039e-05)
(5.20451e-05 -0.000132962 6.0786e-05)
(-1.03706e-10 -0.000143745 6.41202e-07)
(4.72196e-05 -0.00453191 6.80834e-05)
(-0.00512538 0.000101934 6.02009e-05)
(0.000119912 -0.000127426 5.63936e-05)
(-1.98068e-05 5.2726e-05 6.54963e-05)
(-0.000135012 0.000130359 0.00117759)
(0.000156713 -7.10624e-05 0.00139504)
(0.000114578 -0.000139206 5.12707e-05)
(4.77677e-05 -0.000106676 5.85604e-05)
(5.17821e-05 8.41926e-05 5.38299e-05)
(-9.99072e-05 -0.000169502 6.18292e-05)
(1.53823e-06 2.71516e-05 1.40104e-06)
(-1.16819e-11 0.000135459 4.1804e-06)
(-4.37725e-05 7.99265e-05 5.78727e-05)
(9.92476e-05 0.000178048 5.4353e-05)
(-5.5495e-05 0.000104269 0.00138975)
(-0.00010583 -0.000159118 6.13648e-05)
(9.92476e-05 0.000178048 5.61981e-05)
(-0.00514817 0.000166493 6.20902e-05)
(-3.16774e-05 -6.5942e-05 0.00120599)
(0.000150893 -6.58408e-05 5.55497e-05)
(-5.36318e-05 8.25782e-05 6.28611e-05)
(7.73933e-07 8.24069e-05 2.45705e-06)
(-0.000103085 4.96401e-05 6.14746e-05)
(-5.36318e-05 8.25782e-05 6.37286e-05)
(6.52397e-05 -0.000100566 5.78651e-05)
(0.000297046 -7.55994e-05 5.95211e-05)
(-0.000103085 4.96401e-05 6.61343e-05)
(-0.000120708 -0.00010638 0.000594911)
(9.21358e-05 -0.000194309 6.31659e-05)
(-0.000118033 -5.61044e-05 6.03645e-05)
(0.000194769 -4.13682e-10 5.22687e-05)
(0.000219629 -0.000156913 5.95861e-05)
(-2.57484e-08 3.47567e-05 4.95838e-05)
(1.57824e-05 4.05271e-05 6.79568e-05)
(9.92476e-05 0.000178048 5.68111e-05)
(-0.000161693 0.000153591 0.00126973)
(-0.000277886 -3.63812e-05 4.67605e-05)
(-5.46359e-05 -4.04358e-05 4.64978e-05)
(0.000170035 -5.07017e-06 5.42388e-05)
(0.000179742 7.96204e-05 0.00143629)
(0.00427725 0.000857057 6.20185e-05)
(4.42501e-05 2.45886e-05 6.13593e-05)
(-1.98068e-05 5.2726e-05 6.29044e-05)
(-4.67847e-05 -4.04317e-05 4.86524e-05)
(7.35652e-05 1.43811e-05 6.39356e-05)
(-0.000135138 6.50791e-05 5.42282e-05)
(7.86733e-07 -2.00129e-05 5.10521e-05)
(5.06776e-05 8.28514e-05 6.3733e-05)
(0.000183199 -0.000138402 5.42677e-05)
(5.06776e-05 8.28514e-05 5.85442e-05)
(-5.45303e-05 8.667e-05 6.33753e-05)
(-1.37558e-05 -1.12041e-05 3.50426e-05)
(-0.000104366 5.02599e-05 6.35238e-05)
(6.07462e-05 -0.00462473 8.4495e-05)
(0.000119437 -0.000155592 6.62057e-05)
(0.000140795 0.000144631 4.65431e-05)
(0.000168647 9.34361e-05 0.00137382)
(0.000237293 0.000176113 0.00134596)
(-7.80713e-06 -6.2877e-06 4.66793e-05)
(4.86733e-05 0.000100211 6.37193e-05)
(-1.15083e-07 3.48516e-05 7.05469e-07)
(-7.80713e-06 -6.2877e-06 4.79931e-05)
(0.000259141 8.56658e-06 3.90534e-05)
(8.97954e-05 0.000272238 6.40855e-05)
(-0.000183688 -1.79697e-05 6.05607e-05)
(-0.000182353 5.87175e-05 6.69033e-05)
(-8.62554e-05 -4.70879e-05 5.75166e-05)
(0.00060932 -4.09415e-06 0.000104239)
(-1.66892e-05 -0.000248297 4.76092e-05)
(-0.000164191 0.000158574 0.00129777)
(-0.000128605 -0.000200074 5.60134e-05)
(6.60167e-10 1.10875e-10 3.0749e-07)
(-0.000104366 5.02599e-05 6.21348e-05)
(-0.000108368 -5.21871e-05 5.1187e-05)
(-9.99072e-05 -0.000169502 5.74755e-05)
(0.000123688 0.000137065 5.15598e-05)
(0.000297046 -7.55994e-05 5.85252e-05)
(-8.66188e-05 -4.17135e-05 5.57079e-05)
(-0.00010583 -0.000159118 5.47363e-05)
(5.31434e-07 0.000152496 1.33549e-06)
(-1.3148e-05 4.77538e-05 5.06296e-05)
(5.06776e-05 8.28514e-05 5.52665e-05)
(-1.53261e-05 -8.43889e-06 6.94318e-05)
(7.35652e-05 1.43811e-05 6.15007e-05)
(5.06776e-05 8.28514e-05 4.91233e-05)
(6.56055e-05 -6.18965e-06 4.19696e-05)
(-0.000152488 -0.000112498 0.00130256)
(8.18374e-05 -0.000117919 6.21467e-05)
(-0.000104366 5.02599e-05 5.96255e-05)
(6.25912e-05 -0.000204535 5.98423e-05)
(-0.000106567 0.000118338 0.00130031)
(-3.42709e-05 -1.58778e-05 6.56274e-05)
(-0.00024366 3.54906e-05 5.82367e-05)
(-0.000251238 -0.000154372 5.10973e-05)
(4.86733e-05 0.000100211 6.11086e-05)
(0.000182062 -1.34347e-07 2.33734e-06)
(-0.00017606 8.83664e-05 6.33633e-05)
(-0.000126396 0.000143727 5.05074e-05)
(-0.000135138 6.50791e-05 5.78221e-05)
(5.31434e-07 0.000152496 1.41633e-06)
(9.92476e-05 0.000178048 5.16315e-05)
(-0.000123921 6.49152e-05 5.31378e-05)
(-0.000195039 -0.000157431 0.00127389)
(0.000161573 -1.91765e-05 0.00143178)
(1.57824e-05 4.05271e-05 6.52978e-05)
(-4.37725e-05 7.99265e-05 5.5e-05)
(-4.50831e-05 0.000177026 0.00143754)
(5.06776e-05 8.28514e-05 5.70664e-05)
(-4.14072e-06 -3.03781e-05 3.7121e-05)
(-4.01974e-05 8.26296e-06 2.77191e-05)
(0.00011797 -0.000175718 5.82111e-05)
(1.70987e-05 -0.000335011 6.38926e-05)
(0.00019834 -0.000100961 7.30828e-05)
(-8.87515e-05 -8.81333e-06 6.65561e-05)
(-0.000104366 5.02599e-05 5.50821e-05)
(-0.000167212 -0.000142091 0.00124977)
(-3.42709e-05 -1.58778e-05 6.04351e-05)
(0.000115625 -9.37786e-05 6.08541e-05)
(0.000183199 -0.000138402 5.08205e-05)
(0.000144047 0.000186192 5.78317e-05)
(-9.99072e-05 -0.000169502 5.83979e-05)
(7.73933e-07 2.41674e-05 5.85483e-05)
(0.000194769 -4.13682e-10 5.48629e-05)
(-4.37725e-05 7.99265e-05 5.45705e-05)
(-1.53261e-05 -8.43889e-06 6.89099e-05)
(9.83257e-12 0.000151295 1.15199e-06)
(0.000127644 -1.46667e-05 5.09857e-05)
(0.000118403 -0.000145406 6.8306e-05)
(-3.25719e-06 -7.53325e-05 5.355e-05)
(0.000219029 0.000127465 0.00149458)
(-2.29963e-05 5.30484e-05 6.12607e-05)
(0.000170035 -5.07017e-06 6.66009e-05)
(9.83257e-12 0.000151295 1.28515e-06)
(-0.000134371 0.000133707 0.00117449)
(0.000103074 4.04136e-06 3.19725e-06)
(-9.99072e-05 -0.000169502 6.09067e-05)
(-2.65786e-05 1.09442e-06 5.31899e-05)
(-4.37725e-05 7.99265e-05 5.75857e-05)
(0.000133032 0.000142155 6.09935e-05)
(-1.3148e-05 4.77538e-05 5.39316e-05)
(5.20451e-05 -0.000132962 5.16158e-05)
(-0.000107711 6.03813e-06 5.31856e-05)
(-0.00010583 -0.000159118 5.40937e-05)
(5.06776e-05 8.28514e-05 5.22206e-05)
(-0.000219441 7.60346e-06 0.00153856)
(0.00023753 0.000175876 0.00134596)
(0.00010328 9.08622e-05 5.93255e-05)
(7.86733e-07 -2.00129e-05 4.81169e-05)
(0.00011797 -0.000175718 5.96345e-05)
(-0.000258599 6.77214e-06 4.72122e-05)
(-7.80713e-06 -6.2877e-06 5.20248e-05)
(5.83381e-05 0.000134532 5.67018e-05)
(-1.53261e-05 -8.43889e-06 6.50163e-05)
(-0.00010583 -0.000159118 5.31862e-05)
(0.00017222 0.000242179 0.00128069)
(1.575e-05 -1.67361e-05 0.00103262)
(1.89974e-05 -2.98992e-05 4.54718e-05)
(-9.99072e-05 -0.000169502 6.10503e-05)
(9.83257e-12 0.000151295 1.22275e-06)
(4.63328e-05 9.63208e-05 5.98328e-05)
(4.42501e-05 2.45886e-05 6.22964e-05)
(-5.55321e-05 0.000104345 0.00138975)
(-0.00344415 -0.00141915 6.10332e-05)
(-0.000108368 -5.21871e-05 5.5488e-05)
(-0.000104366 5.02599e-05 5.57301e-05)
(-7.14907e-05 2.23817e-05 6.62815e-05)
(-0.000108368 -5.21871e-05 5.73405e-05)
(-1.53261e-05 -8.43889e-06 6.49854e-05)
(0.000187228 -0.000198459 5.27455e-05)
(9.92476e-05 0.000178048 5.69503e-05)
(0.000136509 -1.12296e-06 7.32865e-07)
(0.000114141 -0.000121248 5.77909e-05)
(0.000168862 9.3221e-05 0.00137382)
(-0.000151517 -0.000113469 0.00130256)
(0.00023139 8.54365e-05 0.00119049)
(0.000182062 -1.34347e-07 2.27699e-06)
(1.70987e-05 -0.000335011 6.20201e-05)
(7.73933e-07 8.24069e-05 2.40584e-06)
(-0.000156291 0.000158993 0.00126973)
(0.000119437 -0.000155592 6.36459e-05)
(0.00113662 1.15827e-11 -1.2302e-06)
(-0.000135138 6.50791e-05 5.92828e-05)
(5.07582e-05 3.39655e-06 5.78184e-05)
(-2.63898e-06 -0.000139327 1.84119e-06)
(-0.000118033 -5.61044e-05 5.90933e-05)
(-7.80713e-06 -6.2877e-06 4.77151e-05)
(0.000175664 -0.000160892 0.00130087)
(-0.000362919 -5.84817e-13 5.1585e-05)
(1.52908e-05 6.54379e-05 6.31582e-05)
(7.55522e-05 -0.00015684 5.75849e-05)
(-1.53261e-05 -8.43889e-06 5.57929e-05)
(0.000275595 0.00452056 6.36193e-05)
(-2.30629e-06 -3.68473e-05 5.57001e-05)
(9.92476e-05 0.000178048 5.18298e-05)
(0.000150196 0.000300144 5.92244e-05)
(9.85008e-05 4.41528e-05 0.00132521)
(-0.000164719 -0.000122184 0.0013221)
(-8.66188e-05 -4.17135e-05 5.10383e-05)
(-6.57654e-05 1.54413e-06 5.25395e-05)
(4.42501e-05 2.45886e-05 5.72775e-05)
(1.89769e-05 -2.51162e-05 4.50999e-05)
(-5.55577e-05 8.11666e-05 6.13389e-05)
(-0.000190869 -0.000161601 0.00127389)
(-8.63514e-08 -2.2242e-06 5.03766e-05)
(-3.00753e-05 2.19285e-05 5.6887e-05)
(-0.000104366 5.02599e-05 6.74451e-05)
(-6.57654e-05 1.54413e-06 5.16637e-05)
(-0.00079563 0.000161133 6.38451e-05)
(2.73781e-05 -9.15771e-06 4.08814e-05)
(5.90733e-05 0.000327151 4.43927e-05)
(8.18374e-05 -0.000117919 6.70102e-05)
(0.000262587 -7.39688e-05 5.27623e-05)
(-0.000118033 -5.61044e-05 6.53099e-05)
(4.72196e-05 -0.00453191 7.33904e-05)
(-0.000169731 -0.000117172 0.0013221)
(-1.3148e-05 4.77538e-05 5.60631e-05)
(-0.0001987 5.38769e-05 0.00151319)
(0.000297046 -7.55994e-05 6.10858e-05)
(4.72196e-05 -0.00453191 7.99415e-05)
(0.000231476 8.55444e-05 0.00119049)
(-0.000158538 0.000156747 0.00126973)
(4.42501e-05 2.45886e-05 6.50103e-05)
(3.04006e-05 0.000152467 6.07795e-05)
(7.39837e-05 0.000177015 0.00150975)
(-8.42074e-05 -0.000117592 5.51182e-05)
(0.000144047 0.000186192 5.60312e-05)
(0.00435244 0.000588709 6.8067e-05)
(5.17821e-05 8.41926e-05 6.07943e-05)
(-2.66977e-07 0.000273197 5.61289e-05)
(0.000274624 0.000139776 4.88787e-05)
(0.00426597 -0.0002441 5.05634e-05)
(-1.98068e-05 5.2726e-05 5.95897e-05)
(0.000187228 -0.000198459 6.10093e-05)
(0.000187228 -0.000198459 5.44876e-05)
(-0.000108368 -5.21871e-05 6.67279e-05)
(-7.14907e-05 2.23817e-05 6.72081e-05)
(0.000112169 -2.12325e-08 5.74989e-05)
(-0.000108368 -5.21871e-05 5.8638e-05)
(-0.00010583 -0.000159118 5.38884e-05)
(9.83257e-12 0.000151295 1.06424e-06)
(-0.00030373 -4.87395e-05 4.97155e-05)
(-3.42709e-05 -1.58778e-05 6.11009e-05)
(9.45468e-06 -3.01089e-07 5.75714e-07)
(-8.55805e-05 6.02975e-05 5.54345e-05)
(4.42501e-05 2.45886e-05 6.08778e-05)
(8.97954e-05 0.000272238 6.41882e-05)
(2.38697e-05 -5.8476e-11 4.32122e-05)
(-1.3148e-05 4.77538e-05 5.14268e-05)
(8.2804e-05 -0.000174144 5.70831e-05)
(-5.45303e-05 8.667e-05 6.4053e-05)
(-0.000135138 6.50791e-05 5.37156e-05)
(0.000229825 0.000149984 0.00153014)
(0.000215834 9.91252e-06 5.76952e-05)
(-0.000107711 6.03813e-06 5.15736e-05)
(1.89974e-05 -2.98992e-05 4.81075e-05)
(0.000170035 -5.07017e-06 6.15492e-05)
(8.2804e-05 -0.000174144 5.47472e-05)
(-0.000137489 0.000123852 0.00127637)
(4.42501e-05 2.45886e-05 6.17525e-05)
(0.00013243 -0.000125332 5.95704e-05)
(0.000195766 0.000233526 5.36782e-05)
(-5.44773e-05 -8.60043e-05 4.45719e-05)
(-0.00014009 0.000162713 5.31581e-05)
(-2.30629e-06 -3.68473e-05 6.38077e-05)
(-8.26361e-05 -4.53449e-05 0.0013229)
(-4.37725e-05 7.99265e-05 5.64256e-05)
(0.000281944 -9.60144e-05 5.57708e-05)
(-0.000302551 -6.17214e-05 5.81178e-05)
(0.000155968 0.000101267 0.00120108)
(-1.53261e-05 -8.43889e-06 7.20519e-05)
(0.000194769 -4.13682e-10 5.52568e-05)
(-0.000108368 -5.21871e-05 5.9336e-05)
(0.000275595 0.00452056 6.44315e-05)
(-0.000155037 0.000160247 0.00126973)
(0.000281944 -9.60144e-05 5.63924e-05)
(0.000262587 -7.39688e-05 5.65071e-05)
(0.000262587 -7.39688e-05 5.63133e-05)
(0.000132646 8.74081e-05 5.64952e-05)
(-0.000165401 -0.000143902 0.00124977)
(-0.000176007 1.48733e-06 5.72822e-05)
(-0.000127817 0.000113688 0.00132958)
(-0.000123921 6.49152e-05 5.87964e-05)
(-0.000118033 -5.61044e-05 6.30124e-05)
(-2.65786e-05 1.09442e-06 5.14831e-05)
(1.89974e-05 -2.98992e-05 4.8352e-05)
(-1.16819e-11 0.000135459 4.31046e-06)
(-0.00512538 0.000101934 7.91147e-05)
(-6.57654e-05 1.54413e-06 5.17687e-05)
(-2.29667e-05 1.5053e-05 4.99261e-05)
(-1.53261e-05 -8.43889e-06 6.74394e-05)
(-9.2981e-05 -3.76309e-12 6.34346e-05)
(0.000144047 0.000186192 6.04702e-05)
(0.000194769 -4.13682e-10 5.5271e-05)
(8.90701e-05 -0.000126437 3.82575e-05)
(0.000105736 0.000159504 0.00131761)
(-5.45303e-05 8.667e-05 5.7545e-05)
(0.000194769 -4.13682e-10 5.78944e-05)
(1.2016e-05 6.48745e-06 5.16975e-05)
(-6.57654e-05 1.54413e-06 5.46778e-05)
(-9.99072e-05 -0.000169502 5.74834e-05)
(0.000348023 -0.00019615 2.43545e-05)
(9.92476e-05 0.000178048 5.688e-05)
(0.000281944 -9.60144e-05 5.72903e-05)
(-3.42709e-05 -1.58778e-05 6.59675e-05)
(5.90733e-05 0.000327151 4.57775e-05)
(-0.000166856 8.55914e-05 0.00134836)
(-0.000164234 -0.000122669 0.0013221)
(-0.000189828 0.000243258 5.87189e-05)
(2.77108e-05 -0.000216032 5.49244e-05)
(8.90701e-05 -0.000126437 3.79669e-05)
(-1.53261e-05 -8.43889e-06 5.59562e-05)
(0.000133032 0.000142155 6.05711e-05)
(4.77677e-05 -0.000106676 5.75152e-05)
(8.25167e-05 -6.10554e-05 5.75204e-05)
(8.18374e-05 -0.000117919 6.77807e-05)
(7.73933e-07 8.24069e-05 2.6086e-06)
(5.25676e-07 -0.000271922 2.85508e-06)
(-1.43472e-06 3.25873e-05 0.00119034)
(-1.16819e-11 0.000135459 4.03214e-06)
(-0.00079563 0.000161133 6.37197e-05)
(-3.42709e-05 -1.58778e-05 6.04662e-05)
(-4.37725e-05 7.99265e-05 6.35747e-05)
(-0.000195102 -0.000157368 0.00127389)
(0.000162405 -4.69982e-05 0.00138937)
(7.43951e-05 0.000135793 4.41102e-05)
(-2.57484e-08 3.47567e-05 5.33522e-05)
(0.00411894 -5.20785e-05 0.000174424)
(-2.30629e-06 -3.68473e-05 5.39478e-05)
(-0.000140438 -0.000107386 0.00132619)
(-0.000108368 -5.21871e-05 6.24719e-05)
(-2.70038e-05 -0.000208724 0.00147038)
(0.000194769 -4.13682e-10 6.08226e-05)
(-9.69491e-05 -0.000153658 5.59045e-05)
(0.00011797 -0.000175718 5.91449e-05)
(-0.000136953 0.000124388 0.00127637)
(-0.000103899 -5.0035e-05 0.00139403)
(0.000149416 8.21682e-05 3.98959e-05)
(-4.06383e-05 3.63366e-05 2.74166e-05)
(5.06776e-05 8.28514e-05 5.87664e-05)
(-0.000135138 6.50791e-05 6.03711e-05)
(-0.000118033 -5.61044e-05 6.31779e-05)
(-0.000104366 5.02599e-05 5.72931e-05)
(5.25676e-07 -0.000271922 2.57113e-06)
(-0.000108368 -5.21871e-05 6.10699e-05)
(-1.60273e-05 -1.72454e-05 4.8895e-05)
(-1.15083e-07 3.48516e-05 7.49199e-07)
(0.00435244 0.000588709 6.34767e-05)
(-8.66188e-05 -4.17135e-05 5.46019e-05)
(-0.000104366 5.02599e-05 6.68235e-05)
(0.000287879 0.000125527 5.27945e-05)
(-9.99072e-05 -0.000169502 6.1356e-05)
(1.62264e-05 -0.00447243 1.793e-05)
(2.08561e-05 -1.36344e-05 4.63409e-05)
(-8.37e-05 -6.95547e-05 5.07232e-05)
(0.000181368 0.000145142 6.06804e-05)
(-1.03706e-10 -0.000143745 6.61243e-07)
(-0.00015368 0.000161605 0.00126973)
(-0.00013474 0.000130631 0.00117759)
(7.73801e-06 -0.000313714 0.000144176)
(0.000274624 0.000139776 6.12621e-05)
(-1.98068e-05 5.2726e-05 5.64505e-05)
(0.000187228 -0.000198459 5.32074e-05)
(-0.000302551 -6.17214e-05 6.62164e-05)
(0.000275595 0.00452056 6.43724e-05)
(-1.16819e-11 0.000135459 4.44131e-06)
(-0.00019034 -0.000162129 0.00127389)
(-5.55577e-05 8.11666e-05 5.12482e-05)
(5.06776e-05 8.28514e-05 5.61609e-05)
(-0.000167752 -0.00014155 0.00124977)
(0.000179568 7.97949e-05 0.00143629)
(3.97597e-05 -5.1322e-05 5.20072e-05)
(0.000187228 -0.000198459 5.61922e-05)
(6.07462e-05 -0.00462473 7.92851e-05)
(0.00011797 -0.000175718 5.49591e-05)
(-0.000150203 -0.000114783 0.00130256)
(-5.45303e-05 8.667e-05 6.42009e-05)
(0.000206642 5.44036e-05 5.3249e-05)
(6.47577e-05 -1.28051e-05 0.0012155)
(-2.57484e-08 3.47567e-05 4.90531e-05)
(-0.000141317 -0.000106506 0.00132619)
(2.38697e-05 -5.8476e-11 4.52707e-05)
(8.18374e-05 -0.000117919 6.48028e-05)
(0.00011797 -0.000175718 5.1052e-05)
(-6.57654e-05 1.54413e-06 4.88247e-05)
(-3.19541e-06 -2.37393e-05 0.00126725)
(-5.55577e-05 8.11666e-05 5.15755e-05)
(-0.00079563 0.000161133 6.08729e-05)
(5.144e-05 -0.00101853 4.59275e-06)
(-8.66188e-05 -4.17135e-05 5.9183e-05)
(7.55522e-05 -0.00015684 5.83535e-05)
(5.31434e-07 0.000152496 1.40237e-06)
(-9.99072e-05 -0.000169502 5.98134e-05)
(1.2016e-05 6.48745e-06 4.90924e-05)
(7.55522e-05 -0.00015684 6.35158e-05)
(9.92476e-05 0.000178048 5.28062e-05)
(-0.0051036 0.000328848 0.00175192)
(8.90701e-05 -0.000126437 4.15752e-05)
(-4.51801e-05 1.09442e-06 0.00117489)
(-0.000369003 8.78691e-06 0.000594911)
(-7.17608e-05 5.92586e-05 5.38817e-05)
(-0.000123921 6.49152e-05 5.49085e-05)
(0.000259141 8.56658e-06 4.48547e-05)
(-3.90635e-05 4.95203e-05 4.56839e-05)
(3.97597e-05 -5.1322e-05 5.36214e-05)
(-0.00512538 0.000101934 7.14597e-05)
(0.000237499 0.000175907 0.00134596)
(0.000140795 0.000144631 5.15276e-05)
(-6.57654e-05 1.54413e-06 4.71053e-05)
(-5.36318e-05 8.25782e-05 5.92035e-05)
(0.000170035 -5.07017e-06 5.44704e-05)
(5.20451e-05 -0.000132962 4.89517e-05)
(2.08561e-05 -1.36344e-05 4.57111e-05)
(5.73309e-05 9.57149e-05 0.00134355)
(-1.98068e-05 5.2726e-05 6.27535e-05)
(-5.36318e-05 8.25782e-05 6.37622e-05)
(-2.30629e-06 -3.68473e-05 6.09503e-05)
(-0.000135138 6.50791e-05 6.11571e-05)
(0.000256693 0.000321896 0.00143785)
(0.000140795 0.000144631 4.94725e-05)
(-0.000157103 0.000158182 0.00126973)
(0.000103074 4.04136e-06 3.2713e-06)
(-0.000103085 4.96401e-05 5.95387e-05)
(-9.2981e-05 -3.76309e-12 6.07199e-05)
(-0.000123921 6.49152e-05 4.96277e-05)
(-7.17608e-05 5.92586e-05 5.05557e-05)
(9.92476e-05 0.000178048 5.81719e-05)
(0.000106194 0.000182776 5.11214e-05)
(0.000237007 0.000176399 0.00134596)
(3.56649e-05 4.77879e-05 4.65583e-05)
(-4.37725e-05 7.99265e-05 5.7048e-05)
(3.37092e-06 0.000166246 0.00125385)
(0.000472123 -4.09415e-06 0.00161337)
(-0.000104366 5.02599e-05 6.07809e-05)
(0.00032987 -8.01247e-05 0.000914513)
(-0.000124908 6.01524e-05 0.00144512)
(-9.2981e-05 -3.76309e-12 5.44961e-05)
(-2.65786e-05 1.09442e-06 5.15417e-05)
(-1.53261e-05 -8.43889e-06 6.32707e-05)
(0.000121659 -0.000129358 5.77485e-05)
(-8.87515e-05 -8.81333e-06 6.9255e-05)
(7.55522e-05 -0.00015684 6.04488e-05)
(-2.57484e-08 3.47567e-05 5.25597e-05)
(0.000287879 0.000125527 6.06922e-05)
(5.41903e-05 7.12554e-05 6.08751e-05)
(-1.16819e-11 0.000135459 4.25985e-06)
(0.00019731 -0.000657322 4.68822e-05)
(-0.00514817 0.000166493 6.93454e-05)
(0.000297046 -7.55994e-05 6.56632e-05)
(2.38697e-05 -5.8476e-11 4.30023e-05)
(-0.000146314 0.000132885 4.68576e-05)
(0.000297046 -7.55994e-05 5.44988e-05)
(-2.30629e-06 -3.68473e-05 4.58309e-05)
(-0.000108368 -5.21871e-05 5.87907e-05)
(-1.53261e-05 -8.43889e-06 6.31599e-05)
(0.000133032 0.000142155 6.13222e-05)
(0.000274624 0.000139776 5.7001e-05)
(0.000600561 4.19039e-05 -1.90139e-05)
(0.000187228 -0.000198459 5.62999e-05)
(-1.53195e-05 -9.40908e-05 -9.4807e-08)
(9.92476e-05 0.000178048 5.88271e-05)
(0.00018531 0.000152575 0.00147864)
(-1.53261e-05 -8.43889e-06 6.09991e-05)
(-0.000123921 6.49152e-05 5.36863e-05)
(-1.3148e-05 4.77538e-05 5.36157e-05)
(-0.000587782 0.000113031 5.58648e-05)
(-3.25719e-06 -7.53325e-05 4.62869e-05)
(0.000133032 0.000142155 6.18469e-05)
(1.62264e-05 -0.00447243 1.78863e-05)
(-0.000135138 6.50791e-05 5.94339e-05)
(9.92476e-05 0.000178048 5.62686e-05)
(4.63328e-05 9.63208e-05 5.81736e-05)
(-0.000206394 -1.9668e-05 4.12222e-06)
(0.000144047 0.000186192 5.34948e-05)
(-5.46359e-05 -4.04358e-05 4.63035e-05)
(-1.16819e-11 0.000135459 4.08546e-06)
(0.000182062 -1.34347e-07 2.26846e-06)
(7.55522e-05 -0.00015684 6.04572e-05)
(4.61849e-05 0.000126189 5.80943e-05)
(8.18374e-05 -0.000117919 5.79634e-05)
(-0.000305383 -2.88647e-05 0.0014687)
(-3.42709e-05 -1.58778e-05 5.89432e-05)
(-4.66606e-07 -0.000200692 2.39528e-06)
(0.000154034 2.38081e-05 0.00140575)
(8.90701e-05 -0.000126437 3.99861e-05)
(-4.66606e-07 -0.000200692 2.36546e-06)
(0.00019834 -0.000100961 6.97748e-05)
(5.8237e-05 6.51932e-05 3.58814e-05)
(-9.99072e-05 -0.000169502 6.4725e-05)
(-0.00010583 -0.000159118 6.16326e-05)
(2.32849e-06 2.394e-05 0.0012694)
(0.000172057 0.000242342 0.00128069)
(-3.19541e-06 -4.89021e-05 5.46984e-05)
(-5.52864e-05 0.000103835 0.00138975)
(0.000135702 8.43529e-05 0.0013913)
(7.86733e-07 -2.00129e-05 4.96586e-05)
(-1.53261e-05 -8.43889e-06 5.88158e-05)
(4.72196e-05 -0.00453191 7.27806e-05)
(8.2804e-05 -0.000174144 5.46086e-05)
(8.18374e-05 -0.000117919 6.24281e-05)
(0.000274624 0.000139776 5.53978e-05)
(-0.000183688 -1.79697e-05 6.68811e-05)
(-2.57484e-08 3.47567e-05 5.135e-05)
(1.62264e-05 -0.00447243 1.84986e-05)
(3.97597e-05 -5.1322e-05 5.11556e-05)
(-0.00010583 -0.000159118 5.4057e-05)
(-0.000165519 0.00013212 5.60982e-05)
(4.03764e-06 -0.000166066 6.42129e-05)
(8.18374e-05 -0.000117919 6.56817e-05)
(-0.000104366 5.02599e-05 5.95918e-05)
(1.2016e-05 6.48745e-06 4.98389e-05)
(-0.000118033 -5.61044e-05 6.1175e-05)
(-0.000137066 -3.25676e-05 7.86643e-06)
(9.51166e-05 -8.64636e-05 5.29352e-05)
(-0.00010583 -0.000159118 5.57418e-05)
(-9.40448e-05 0.000132838 6.21945e-05)
(2.22138e-05 -7.80253e-05 3.27601e-05)
(-5.45303e-05 8.667e-05 5.40709e-05)
(5.06776e-05 8.28514e-05 5.80318e-05)
(0.00427725 0.000857057 5.80401e-05)
(9.92476e-05 0.000178048 6.46059e-05)
(5.17821e-05 8.41926e-05 5.76877e-05)
(-9.99072e-05 -0.000169502 6.15479e-05)
(-8.63514e-08 -2.2242e-06 5.25587e-05)
(0.000194769 -4.13682e-10 6.10497e-05)
(-0.000135138 6.50791e-05 5.61671e-05)