/*--------------------------------*- C++ -*----------------------------------*\
| =========                 |                                                 |
| \\      /  F ield         | OpenFOAM: The Open Source CFD Toolbox           |
|  \\    /   O peration     | Version:  plus.master                           |
|   \\  /    A nd           | Web:      www.OpenFOAM.com                      |
|    \\/     M anipulation  |                                                 |
\*---------------------------------------------------------------------------*/
FoamFile
{
    version     2.0;
    format      ascii;
    class       surfaceScalarField;
    location    "5.8";
    object      alphaPhi;
}
// * * * * * * * * * * * * * * * * * * * * * * * * * * * * * * * * * * * * * //

dimensions      [0 3 -1 0 0 0 0];

internalField   nonuniform List<scalar> 
138768
(
1.66663e-06
1.60478e-06
1.77675e-07
-1.79941e-06
-1.65082e-06
1.08001e-06
2.16102e-06
3.04262e-07
-1.87867e-06
8.45875e-08
2.32073e-06
5.83278e-07
-1.90843e-06
-9.03786e-07
2.03772e-06
7.23108e-07
-1.77184e-06
-1.82762e-06
2.17056e-06
4.83816e-07
-1.73055e-06
-2.23295e-06
1.88134e-06
2.32147e-07
-1.70748e-06
1.42899e-06
1.40772e-07
-2.34766e-06
-1.45496e-06
2.20449e-06
1.06578e-06
2.859e-07
-1.95141e-06
1.12246e-06
1.15341e-06
1.37075e-06
4.51393e-07
4.69562e-07
2.04434e-06
-8.62122e-07
7.98737e-07
2.43397e-06
-1.38249e-06
2.51677e-07
1.92233e-06
-2.49265e-06
1.04122e-06
1.26484e-06
1.02109e-06
1.84261e-07
-2.26902e-06
2.42099e-06
1.49518e-07
5.48853e-07
-2.05359e-06
5.09748e-07
5.48646e-07
2.00042e-06
7.94203e-08
8.34404e-08
7.61963e-07
-7.34963e-08
6.17225e-08
9.66167e-07
-7.39122e-07
1.0719e-07
7.82314e-07
-2.38594e-06
4.71903e-07
1.87927e-06
1.82989e-07
3.71715e-07
-1.91959e-06
2.22403e-06
-6.89651e-07
7.04973e-07
-2.08987e-06
1.03091e-06
-7.95488e-07
2.39557e-06
1.05055e-07
-8.75722e-08
1.33821e-06
-5.35298e-08
-9.31921e-08
3.11694e-07
-6.74201e-07
-1.09762e-07
8.15613e-07
-2.02994e-06
-6.57346e-07
2.34026e-06
-5.72832e-07
5.29555e-07
-1.80371e-06
2.41756e-06
-1.50523e-06
4.93846e-07
-2.09458e-06
4.50705e-07
-1.30334e-06
1.94631e-06
9.19131e-08
-5.7893e-07
8.01611e-07
-9.85399e-08
-8.1686e-07
9.65568e-07
-7.65125e-07
-3.46373e-07
8.53932e-07
-2.44061e-06
-1.18835e-06
1.80927e-06
-1.34168e-06
3.24131e-07
-1.99585e-06
2.11788e-06
-1.85632e-06
2.51748e-07
-2.01931e-06
1.11882e-06
-2.31722e-06
1.32912e-06
3.92403e-07
-2.3294e-06
2.03905e-06
-9.73694e-07
-2.12558e-06
2.488e-06
-1.46989e-06
-2.24586e-06
1.8781e-06
-2.48311e-06
-2.04437e-06
1.2232e-06
-1.65062e-06
1.60717e-07
-2.33333e-06
1.61679e-06
1.52895e-07
-1.7086e-06
-1.9181e-06
1.07155e-06
2.49605e-07
-2.02162e-06
-9.50097e-09
5.27858e-07
-1.77621e-06
-1.03622e-06
6.9001e-07
-1.78888e-06
-1.95848e-06
4.11508e-07
-1.73512e-06
-2.28459e-06
1.89595e-07
-1.90839e-06
1.26466e-07
-2.32055e-06
-1.7421e-06
9.98019e-07
7.59909e-07
7.61082e-07
-1.35204e-06
-9.8927e-07
4.57598e-07
7.83818e-07
1.04691e-06
-9.86018e-07
-1.60704e-07
3.59671e-07
1.55996e-06
-7.17986e-07
-8.42703e-07
1.14744e-07
1.80197e-06
-5.11584e-07
-1.23952e-06
-3.28778e-08
1.3867e-06
-4.73158e-07
-1.56448e-06
2.37939e-07
9.27657e-07
-6.08426e-07
2.26863e-07
7.27646e-07
-1.79096e-06
-5.87264e-07
9.251e-07
4.28814e-07
1.00798e-06
-1.31606e-06
5.56445e-07
5.97059e-07
2.12259e-06
1.16369e-08
1.18617e-07
3.19252e-06
-8.59886e-07
-7.34178e-09
3.76476e-06
-1.16154e-06
-1.53133e-07
2.99852e-06
-1.33154e-06
9.88241e-09
1.78788e-06
-1.30064e-07
8.56636e-07
-1.64708e-06
5.12978e-07
2.00571e-08
1.50224e-06
-1.05759e-06
-9.8376e-09
3.65162e-07
3.16255e-06
3.14319e-08
1.17752e-07
1.89194e-06
-5.12339e-08
3.19657e-08
1.75515e-06
-4.73026e-08
1.24241e-08
1.69131e-06
-5.44596e-07
-1.89139e-07
2.76324e-06
-2.86312e-07
1.16609e-06
-1.18269e-06
5.49419e-07
-6.12618e-07
1.78072e-06
-9.9248e-07
3.50792e-07
-7.51271e-07
3.78463e-06
9.29201e-08
-9.00995e-08
2.273e-06
4.6265e-08
5.54978e-08
3.28881e-07
4.52069e-07
-7.78843e-10
8.94164e-07
1.94194e-07
-1.29947e-07
3.55379e-06
-1.66553e-07
1.39004e-06
-7.86043e-07
4.31031e-07
-9.22013e-07
1.38968e-06
-1.01745e-06
-3.10942e-08
-1.01981e-06
3.09308e-06
1.60912e-08
-1.43149e-07
1.88526e-06
-3.514e-08
4.21765e-07
1.06093e-06
-5.3783e-08
1.57498e-07
1.83492e-06
-5.35842e-07
-3.14798e-07
2.66689e-06
-2.84787e-07
1.08012e-06
-1.17351e-06
7.30995e-07
-1.15169e-06
9.23089e-07
-1.17262e-06
2.56535e-07
-1.05659e-06
1.99868e-06
-3.35326e-07
-4.46968e-07
3.21157e-06
-7.57314e-07
1.43564e-07
3.86024e-06
-1.02373e-06
-6.4545e-08
2.96345e-06
-1.19818e-06
-5.01427e-07
1.67987e-06
-5.84362e-07
8.03588e-07
-1.54148e-06
7.51353e-07
7.11659e-07
-1.16341e-06
-1.29832e-06
2.14814e-07
9.55514e-07
-1.22587e-06
-3.44129e-07
1.48063e-06
-8.40803e-07
-8.13338e-07
1.7881e-06
-4.85333e-07
-1.09097e-06
1.26884e-06
-6.44234e-07
-1.38463e-06
8.502e-07
-8.68373e-07
6.95294e-07
-1.63675e-06
-9.01088e-07
1.13039e-06
7.21614e-07
1.63758e-06
-1.61724e-06
-1.11122e-06
5.11183e-07
6.10126e-07
2.0083e-06
-9.52325e-07
-1.92392e-07
3.02168e-07
2.64455e-06
-6.83146e-07
-8.23012e-07
-1.24971e-07
2.98711e-06
-4.29578e-07
-1.25951e-06
-1.30483e-07
2.43027e-06
-4.76602e-07
-1.65886e-06
1.06103e-07
1.87415e-06
-6.53163e-07
3.11754e-07
1.61392e-06
-2.04375e-06
-8.13408e-07
9.53579e-07
3.04336e-07
1.94752e-06
-1.47585e-06
3.70586e-07
3.09934e-07
3.00575e-06
-3.28677e-07
-9.91237e-08
4.36837e-06
-8.58369e-07
-5.20617e-07
5.05791e-06
-1.11452e-06
-5.85011e-07
4.03243e-06
-1.45657e-06
-3.27862e-07
2.56451e-06
-1.69743e-07
1.77294e-06
-1.8919e-06
5.43061e-07
-1.5874e-07
2.56778e-06
-1.14516e-06
-1.5166e-07
-1.28797e-07
4.38515e-06
-8.40618e-08
2.03961e-08
3.86183e-06
-1.18302e-07
-9.44088e-10
2.73102e-06
-1.53477e-07
-1.01247e-07
3.84524e-06
-7.97511e-07
-5.51263e-07
3.63318e-06
-4.03864e-07
2.07483e-06
-1.47153e-06
1.1277e-07
-5.8395e-07
2.97869e-06
-8.85866e-07
-5.80945e-07
-5.38495e-07
5.15637e-06
-1.44062e-08
-5.37848e-08
2.48074e-06
1.92007e-09
2.34725e-08
2.76073e-07
5.42291e-07
5.92366e-08
1.67564e-06
3.18565e-08
-6.48946e-08
4.35879e-06
-1.80035e-07
2.27747e-06
-1.07944e-06
2.45369e-07
-8.67646e-07
2.4398e-06
-1.0119e-06
-4.93305e-07
-7.47213e-07
4.29353e-06
-1.41911e-07
7.90951e-08
3.61088e-06
-2.21669e-08
8.68431e-07
9.98693e-07
9.89559e-08
4.97869e-07
3.89759e-06
-6.31635e-07
-1.47311e-07
3.51023e-06
-3.38824e-07
1.99673e-06
-1.38948e-06
5.52398e-07
-1.12347e-06
1.85141e-06
-1.22492e-06
-1.24105e-07
-9.25036e-07
2.8523e-06
-7.66608e-07
-2.76884e-07
4.34766e-06
-4.70577e-07
7.20303e-07
4.87305e-06
-7.55446e-07
3.35498e-08
3.92043e-06
-1.16279e-06
-4.73069e-07
2.41289e-06
-7.306e-07
1.72282e-06
-1.69033e-06
7.86477e-07
1.58519e-06
-1.36252e-06
-1.42081e-06
1.12954e-07
1.88805e-06
-1.18364e-06
-4.49407e-07
2.48797e-06
-7.225e-07
-5.75529e-07
2.89346e-06
-2.59019e-07
-9.13111e-07
2.25737e-06
-6.17502e-07
-1.3628e-06
1.78304e-06
-9.56292e-07
1.57764e-06
-1.80543e-06
-1.17034e-06
1.84221e-06
1.19685e-06
3.16313e-06
-2.62096e-06
-1.94363e-06
9.67729e-07
9.11443e-07
3.54274e-06
-1.57138e-06
2.72324e-08
5.71923e-07
4.19841e-06
-1.18528e-06
-7.61511e-07
8.79595e-08
4.58883e-06
-9.01001e-07
-1.55199e-06
4.44651e-07
3.95574e-06
-1.1798e-06
-2.32123e-06
7.91299e-07
3.40319e-06
-1.55112e-06
1.12971e-06
3.12453e-06
-3.05297e-06
-1.9088e-06
1.58227e-06
4.77915e-07
3.47613e-06
-2.3919e-06
6.84259e-07
3.20908e-07
4.49424e-06
-2.65249e-07
-3.42905e-08
5.93309e-06
-8.01919e-07
-6.35023e-07
6.58547e-06
-1.53707e-06
-2.06871e-07
5.43123e-06
-2.2195e-06
8.47528e-08
3.9537e-06
3.73975e-07
3.29218e-06
-2.98359e-06
1.06959e-06
-1.94741e-07
4.10409e-06
-1.93328e-06
1.15546e-07
-3.22471e-07
5.98233e-06
-2.00338e-07
-1.1483e-07
5.33422e-06
-2.77451e-07
-4.57213e-08
3.60251e-06
-1.03897e-06
-1.843e-07
6.21709e-06
-1.8258e-06
-3.99965e-07
4.9065e-06
-2.09141e-07
3.54017e-06
-2.70749e-06
3.36713e-07
-6.07747e-07
4.58077e-06
-1.5259e-06
-7.09221e-07
-4.94511e-07
6.60491e-06
-8.98292e-08
-4.68732e-08
2.6945e-06
-1.70343e-07
4.30905e-08
2.55673e-07
-1.27307e-07
-3.26192e-08
4.22941e-06
-1.25683e-06
-4.14983e-07
5.50418e-06
-4.76737e-07
3.69481e-06
-2.40678e-06
7.84853e-07
-1.11214e-06
3.97256e-06
-1.81345e-06
-2.50734e-07
-9.46678e-07
5.81469e-06
-2.09868e-07
-1.56024e-07
5.26729e-06
-6.93603e-08
7.31261e-07
1.66609e-06
-6.2819e-07
-9.96485e-08
6.23819e-06
-1.57562e-06
-7.35164e-07
4.77759e-06
-9.81091e-07
3.48665e-06
-2.56135e-06
1.2036e-06
-1.68852e-06
3.38888e-06
-2.16488e-06
1.9521e-07
-1.36328e-06
4.27644e-06
-6.13396e-07
-7.25697e-07
5.74787e-06
-4.08799e-07
2.07353e-07
6.22129e-06
-1.0774e-06
-7.33619e-07
5.22287e-06
-1.87824e-06
-1.32081e-06
3.79915e-06
-1.65792e-06
3.2566e-06
-2.73534e-06
1.5439e-06
3.11906e-06
-2.4028e-06
-2.36347e-06
6.21698e-07
3.41874e-06
-1.97148e-06
-1.49908e-07
3.95942e-06
-1.42637e-06
-4.6485e-07
4.35999e-06
-9.44399e-07
-1.17663e-06
3.75252e-06
-1.51718e-06
-2.00951e-06
3.32144e-06
-2.02643e-06
3.09596e-06
-2.79224e-06
-2.39357e-06
2.43459e-06
1.97299e-06
-3.27391e-06
-2.96382e-06
4.99326e-06
1.44989e-06
1.69521e-06
-2.5717e-06
5.40379e-06
2.87782e-07
1.42071e-06
-2.16726e-06
6.10687e-06
-7.73678e-07
1.025e-06
-1.8957e-06
6.52074e-06
-1.84877e-06
1.54075e-06
-2.31274e-06
5.80251e-06
-2.79476e-06
1.87915e-06
-2.74492e-06
5.21482e-06
2.13396e-06
-3.59162e-06
-3.12529e-06
4.91242e-06
2.37681e-06
9.96132e-07
-3.25405e-06
5.33008e-06
1.32613e-06
8.55283e-07
6.38446e-06
-2.91483e-09
7.47516e-07
7.93487e-06
-1.01463e-06
4.43922e-08
8.53064e-06
-2.1299e-06
8.42938e-07
7.24392e-06
-3.00362e-06
9.9038e-07
5.7158e-06
1.14965e-06
-3.81203e-06
5.08445e-06
2.05981e-06
-1.40482e-09
-2.95345e-06
5.99415e-06
1.05271e-06
-1.49753e-07
7.994e-06
-1.08454e-07
-2.07439e-08
6.76704e-06
-8.4073e-07
-5.6895e-08
5.02884e-06
-2.35848e-06
6.50572e-08
8.49295e-06
-3.0697e-06
3.05238e-09
6.60499e-06
1.37544e-07
-3.83322e-06
5.31553e-06
1.30522e-06
-6.99314e-07
-2.56265e-06
6.53579e-06
-2.08941e-07
-6.93846e-07
8.47748e-06
-2.40636e-07
-1.85225e-07
3.47548e-06
-4.30426e-07
3.01317e-08
4.55034e-07
-2.16849e-06
-6.48064e-07
8.32099e-06
-2.90908e-06
-8.73228e-07
7.1209e-06
-7.62455e-07
-3.75474e-06
5.4401e-06
1.86419e-06
-1.52729e-06
-2.89719e-06
5.83328e-06
7.52112e-07
-1.51633e-06
7.74881e-06
-1.42379e-07
-1.20136e-06
7.21705e-06
-5.75648e-07
-5.1571e-08
3.95071e-06
-2.00014e-06
-1.38977e-06
8.56856e-06
-2.86686e-06
-1.66346e-06
6.43425e-06
-1.66606e-06
-3.72675e-06
5.24992e-06
2.16349e-06
-2.36163e-06
-3.15184e-06
5.21125e-06
1.03463e-06
-2.17613e-06
6.06472e-06
-1.44773e-07
-1.79395e-06
7.51937e-06
-7.16813e-07
-1.17417e-06
8.15043e-06
-1.77863e-06
-1.99137e-06
6.88604e-06
-2.76728e-06
-2.39484e-06
5.51894e-06
-2.54779e-06
-3.65514e-06
5.02605e-06
2.30278e-06
-3.23111e-06
-3.23475e-06
4.92021e-06
1.27379e-06
-2.95703e-06
5.22825e-06
2.21438e-07
-2.53409e-06
5.75163e-06
-5.58231e-07
-2.16809e-06
6.13338e-06
-1.60216e-06
-2.7214e-06
5.52632e-06
-2.6118e-06
-3.1624e-06
5.09846e-06
-3.48576e-06
-3.43669e-06
4.85864e-06
-2.59015e-06
-3.1576e-07
8.76424e-08
4.68874e-07
-2.70658e-06
-4.72794e-07
1.08874e-07
4.82623e-07
-2.89579e-06
-4.01933e-07
1.26742e-07
4.6553e-07
-3.12851e-06
-3.61546e-07
1.3667e-07
4.56451e-07
-3.38083e-06
-3.39805e-07
1.37273e-07
4.54676e-07
-3.64185e-06
-3.25275e-07
1.29011e-07
4.57277e-07
-3.89792e-06
-3.12043e-07
1.11695e-07
4.5741e-07
-3.04734e-07
8.82816e-08
4.61753e-07
-4.1433e-06
-2.49059e-06
-1.7655e-07
8.25025e-08
-2.70085e-06
-3.76443e-07
1.14272e-07
-2.95666e-06
-2.84642e-07
1.39157e-07
-3.22929e-06
-2.42498e-07
1.53796e-07
-3.50797e-06
-2.17802e-07
1.55712e-07
-3.77325e-06
-2.06439e-07
1.4719e-07
-4.01464e-06
-1.99978e-07
1.28627e-07
-1.94008e-07
1.03298e-07
-4.2288e-06
-2.06862e-06
-1.0818e-07
8.06291e-08
-2.37884e-06
-1.71282e-07
1.0508e-07
-2.65632e-06
-1.42361e-07
1.36623e-07
-2.94247e-06
-1.18438e-07
1.6075e-07
-3.2233e-06
-1.04825e-07
1.65689e-07
-3.4964e-06
-8.90735e-08
1.57822e-07
-3.75697e-06
-8.01097e-08
1.40473e-07
-7.41796e-08
1.15163e-07
-3.99275e-06
-1.98089e-06
-2.61939e-08
9.52478e-08
-2.30184e-06
4.84688e-08
1.01197e-07
-2.57502e-06
-7.36451e-09
1.36801e-07
-2.83741e-06
-1.97397e-08
1.64725e-07
-3.09113e-06
-2.12589e-08
1.71707e-07
-3.32594e-06
-2.04198e-08
1.64894e-07
-3.53712e-06
-1.57161e-08
1.46693e-07
-8.3723e-09
1.21587e-07
-3.7246e-06
-2.1349e-06
3.27391e-08
8.01335e-08
-2.41326e-06
2.22021e-07
1.04782e-07
-2.6957e-06
1.40118e-07
1.36163e-07
-2.98622e-06
1.05731e-07
1.63915e-07
-3.26729e-06
8.89756e-08
1.69556e-07
-3.53507e-06
8.63486e-08
1.62198e-07
-3.78497e-06
8.88656e-08
1.45276e-07
9.16199e-08
1.19639e-07
-4.00379e-06
-2.53335e-06
1.49718e-07
8.29402e-08
-2.70729e-06
2.80762e-07
1.11647e-07
-2.9624e-06
2.56307e-07
1.38723e-07
-3.23002e-06
2.22092e-07
1.53334e-07
-3.50158e-06
2.04941e-07
1.55736e-07
-3.76067e-06
1.97097e-07
1.47142e-07
-3.99434e-06
1.9368e-07
1.28914e-07
1.91553e-07
1.04105e-07
-4.19728e-06
-2.53791e-06
8.1219e-08
2.85866e-07
-2.68937e-06
1.04882e-07
3.29462e-07
-2.89807e-06
1.22806e-07
3.40151e-07
-3.1494e-06
1.31374e-07
3.36814e-07
-3.40756e-06
1.30136e-07
3.36278e-07
-3.66537e-06
1.20836e-07
3.38075e-07
-3.91611e-06
1.0362e-07
3.40001e-07
7.97558e-08
3.42279e-07
-4.14766e-06
-2.18258e-06
-4.7757e-07
4.04548e-07
5.52259e-07
-2.62567e-06
-4.27218e-07
4.44551e-07
5.34686e-07
-3.08359e-06
-3.90791e-07
4.59341e-07
5.16153e-07
-3.53043e-06
-3.64621e-07
4.47351e-07
5.00753e-07
-3.94676e-06
-3.43896e-07
4.10672e-07
4.86854e-07
-4.31822e-06
-3.2608e-07
3.53389e-07
4.73176e-07
-4.63671e-06
-3.0988e-07
2.81169e-07
4.58916e-07
-2.9469e-07
2.00419e-07
4.4388e-07
-4.89804e-06
-2.13578e-06
-4.27546e-07
5.21143e-07
-2.65008e-06
-3.46482e-07
5.47966e-07
-3.16693e-06
-2.91609e-07
5.56866e-07
-3.65779e-06
-2.56464e-07
5.36559e-07
-4.1027e-06
-2.30946e-07
4.87674e-07
-4.48524e-06
-2.11375e-07
4.15032e-07
-4.79669e-06
-1.95674e-07
3.25899e-07
-1.82408e-07
2.28217e-07
-5.03394e-06
-1.84821e-06
-2.9473e-07
6.13324e-07
-2.48102e-06
-2.26015e-07
6.17437e-07
-3.07828e-06
-1.85245e-07
6.27525e-07
-3.62276e-06
-1.58969e-07
6.07804e-07
-4.10308e-06
-1.39721e-07
5.54708e-07
-4.50613e-06
-1.24224e-07
4.73685e-07
-4.82339e-06
-1.11464e-07
3.73509e-07
-1.00823e-07
2.63647e-07
-5.05356e-06
-1.61685e-06
-2.27625e-08
6.54156e-07
-2.34394e-06
-3.93962e-08
6.41682e-07
-2.9936e-06
-5.2125e-08
6.53385e-07
-3.56841e-06
-5.52444e-08
6.357e-07
-4.0668e-06
-5.23599e-08
5.82776e-07
-4.47896e-06
-4.69283e-08
4.99719e-07
-4.79968e-06
-4.05167e-08
3.96413e-07
-3.38321e-08
2.82949e-07
-5.02812e-06
-1.83549e-06
1.17302e-07
6.02107e-07
-2.46319e-06
7.61677e-08
6.1688e-07
-3.05798e-06
4.87661e-08
6.30036e-07
-3.5979e-06
3.64969e-08
6.12101e-07
-4.07323e-06
3.18587e-08
5.60558e-07
-4.47018e-06
3.13542e-08
4.80794e-07
-4.78018e-06
3.30481e-08
3.81644e-07
3.56701e-08
2.72627e-07
-5.00274e-06
-2.0579e-06
2.0389e-07
5.1281e-07
-2.58896e-06
1.7431e-07
5.44634e-07
-3.1138e-06
1.57075e-07
5.55197e-07
-3.60682e-06
1.46926e-07
5.35964e-07
-4.04911e-06
1.41414e-07
4.8845e-07
-4.42617e-06
1.38117e-07
4.17376e-07
-4.72999e-06
1.3589e-07
3.29797e-07
1.3419e-07
2.33557e-07
-4.95801e-06
-2.07462e-06
3.92892e-07
3.30149e-07
-2.54792e-06
4.31403e-07
3.21117e-07
-3.02525e-06
4.4401e-07
3.13307e-07
-3.48359e-06
4.30329e-07
3.06239e-07
-3.90492e-06
3.92828e-07
2.99957e-07
-4.27525e-06
3.35611e-07
2.93681e-07
-4.58687e-06
2.64178e-07
2.8697e-07
1.8475e-07
2.79834e-07
-4.83751e-06
-2.64922e-06
-4.33507e-07
9.05225e-07
5.38457e-07
-3.34063e-06
-3.50058e-07
9.87577e-07
4.98631e-07
-4.07219e-06
-2.96611e-07
1.02227e-06
4.65343e-07
-4.81167e-06
-2.579e-07
1.00785e-06
4.36966e-07
-5.53037e-06
-2.28212e-07
9.45751e-07
4.11879e-07
-6.19941e-06
-2.04612e-07
8.37886e-07
3.89166e-07
-6.78716e-06
-1.85522e-07
6.86101e-07
3.68311e-07
-1.69954e-07
4.95956e-07
3.48971e-07
-7.26177e-06
-2.60844e-06
-3.82467e-07
1.18639e-06
-3.37655e-06
-2.7745e-07
1.24349e-06
-4.16478e-06
-2.12572e-07
1.26108e-06
-4.94448e-06
-1.68341e-07
1.22672e-06
-5.68799e-06
-1.36079e-07
1.13903e-06
-6.36508e-06
-1.11778e-07
9.99256e-07
-6.94037e-06
-9.3353e-08
8.08981e-07
-7.96532e-08
5.75143e-07
-7.37764e-06
-2.34486e-06
-2.9288e-07
1.39717e-06
-3.22282e-06
-2.08653e-07
1.42661e-06
-4.08533e-06
-1.60577e-07
1.43808e-06
-4.91499e-06
-1.281e-07
1.39724e-06
-5.69079e-06
-1.03437e-07
1.29788e-06
-6.38538e-06
-8.37876e-08
1.1403e-06
-6.96312e-06
-6.80307e-08
9.25932e-07
-5.55076e-08
6.62624e-07
-7.38625e-06
-2.11737e-06
-7.94768e-08
1.47871e-06
-3.08439e-06
-9.40513e-08
1.49411e-06
-3.99751e-06
-9.96163e-08
1.50562e-06
-4.85822e-06
-9.65198e-08
1.46481e-06
-5.65371e-06
-8.85694e-08
1.36338e-06
-6.36024e-06
-7.88464e-08
1.20131e-06
-6.94302e-06
-6.87779e-08
9.79945e-07
-5.89969e-08
7.07344e-07
-7.36393e-06
-2.26972e-06
1.38835e-08
1.389e-06
-3.15154e-06
-2.60107e-08
1.43061e-06
-4.01788e-06
-4.97603e-08
1.44647e-06
-4.85123e-06
-5.99217e-08
1.4088e-06
-5.63008e-06
-6.18472e-08
1.31264e-06
-6.32722e-06
-5.93361e-08
1.15839e-06
-6.90718e-06
-5.44436e-08
9.47245e-07
-4.81948e-08
6.86709e-07
-7.3321e-06
-2.45534e-06
1.10562e-07
1.18107e-06
-3.24562e-06
6.22185e-08
1.24673e-06
-4.04725e-06
3.79343e-08
1.26913e-06
-4.83559e-06
2.50337e-08
1.23937e-06
-5.58445e-06
1.85764e-08
1.15687e-06
-6.26514e-06
1.59426e-08
1.02271e-06
-6.84374e-06
1.57209e-08
8.38152e-07
1.71138e-08
6.09585e-07
-7.28515e-06
-2.46527e-06
8.94537e-07
2.68789e-07
-3.19584e-06
9.77526e-07
2.467e-07
-3.95592e-06
1.01264e-06
2.29382e-07
-4.71483e-06
9.99789e-07
2.14522e-07
-5.44558e-06
9.40618e-07
2.01528e-07
-6.12109e-06
8.36861e-07
1.90155e-07
-6.71163e-06
6.90042e-07
1.80325e-07
5.05201e-07
1.71958e-07
-7.187e-06
-4.1557e-06
-2.63837e-07
1.80587e-06
4.66131e-07
-5.40993e-06
-1.62028e-07
2.00774e-06
3.96208e-07
-6.74708e-06
-9.07567e-08
2.11024e-06
3.40051e-07
-8.08349e-06
-4.09378e-08
2.09271e-06
2.92503e-07
-9.32007e-06
-5.25726e-09
1.93546e-06
2.52004e-07
-1.03407e-05
1.53893e-08
1.62588e-06
2.17125e-07
-1.10286e-05
3.00654e-08
1.15838e-06
1.8537e-07
4.0084e-08
5.26075e-07
1.55051e-07
-1.12539e-05
-4.18525e-06
-2.17238e-07
2.3412e-06
-5.5053e-06
-1.16472e-07
2.51786e-06
-6.89137e-06
-4.51649e-08
2.60148e-06
-8.26756e-06
4.03745e-09
2.55783e-06
-9.52917e-06
3.6925e-08
2.35832e-06
-1.05553e-05
5.73484e-08
1.98326e-06
-1.12063e-05
6.77212e-08
1.42228e-06
6.99081e-08
6.60661e-07
-1.13217e-05
-4.00081e-06
-2.39902e-07
2.71316e-06
-5.39779e-06
-1.60917e-07
2.86799e-06
-6.84161e-06
-1.1048e-07
2.94718e-06
-8.26326e-06
-7.43702e-08
2.89726e-06
-9.56144e-06
-4.72589e-08
2.68026e-06
-1.06057e-05
-2.74501e-08
2.26939e-06
-1.1247e-05
-1.3784e-08
1.64883e-06
-5.24385e-09
7.96329e-07
-1.13055e-05
-3.8198e-06
-1.99883e-07
2.85162e-06
-5.28086e-06
-2.01888e-07
2.99615e-06
-6.76205e-06
-1.9988e-07
3.07627e-06
-8.20912e-06
-1.89797e-07
3.02732e-06
-9.52544e-06
-1.74956e-07
2.80742e-06
-1.05808e-05
-1.57538e-07
2.38675e-06
-1.12233e-05
-1.38426e-07
1.7471e-06
-1.17968e-07
8.62767e-07
-1.1266e-05
-3.88265e-06
-2.00114e-07
2.71049e-06
-5.29182e-06
-2.37485e-07
2.87533e-06
-6.74542e-06
-2.59185e-07
2.95933e-06
-8.17545e-06
-2.64527e-07
2.91355e-06
-9.47998e-06
-2.58667e-07
2.70087e-06
-1.05288e-05
-2.44862e-07
2.29446e-06
-1.11733e-05
-2.24905e-07
1.67814e-06
-1.99875e-07
8.28315e-07
-1.12331e-05
-3.98023e-06
-1.159e-07
2.34165e-06
-5.32743e-06
-1.70161e-07
2.52662e-06
-6.73386e-06
-1.99933e-07
2.61628e-06
-8.12428e-06
-2.13787e-07
2.57907e-06
-9.39628e-06
-2.16729e-07
2.38689e-06
-1.04264e-05
-2.121e-07
2.01995e-06
-1.10784e-05
-2.02142e-07
1.46721e-06
-1.88284e-07
7.11637e-07
-1.11923e-05
-3.95691e-06
1.80042e-06
1.42902e-07
-5.25541e-06
2.00415e-06
1.01701e-07
-6.62077e-06
2.10847e-06
6.95688e-08
-7.97115e-06
2.09385e-06
4.24702e-08
-9.20847e-06
1.941e-06
2.00963e-08
-1.02236e-05
1.63728e-06
2.4365e-09
-1.08996e-05
1.17701e-06
-1.3277e-08
5.51578e-07
-2.53024e-08
-1.11091e-05
-4.89632e-06
1.04369e-07
1.311e-07
2.87484e-06
-6.41856e-06
2.36883e-07
5.76178e-09
3.28704e-06
-8.13928e-06
3.53602e-07
-1.1986e-07
3.59702e-06
-1.00422e-05
4.50937e-07
-2.26906e-07
3.77129e-06
-1.21027e-05
5.27903e-07
-3.17482e-07
3.78513e-06
-1.42945e-05
5.80316e-07
-3.8658e-07
3.62376e-06
-1.65905e-05
5.97367e-07
-4.28606e-07
3.28548e-06
5.71909e-07
-4.3875e-07
-1.90129e-05
2.81517e-06
-5.15292e-06
8.56142e-08
3.70043e-06
-6.67464e-06
1.93813e-07
4.08217e-06
-8.3779e-06
2.88997e-07
4.36897e-06
-1.02521e-05
3.66577e-07
4.51606e-06
-1.22763e-05
4.24798e-07
4.48539e-06
-1.44228e-05
4.60529e-07
4.24933e-06
-1.66724e-05
4.68531e-07
3.80058e-06
4.43685e-07
-1.90844e-05
3.20082e-06
-5.20777e-06
-8.50119e-08
4.258e-06
-6.75268e-06
-6.58408e-09
4.61292e-06
-8.46045e-06
5.25081e-08
4.89104e-06
-1.03328e-05
1.03807e-07
5.03215e-06
-1.23556e-05
1.43368e-07
4.98437e-06
-1.45019e-05
1.69343e-07
4.70682e-06
-1.67498e-05
1.79934e-07
4.1852e-06
1.73845e-07
-1.91767e-05
3.49303e-06
-5.17652e-06
-2.69448e-07
4.45752e-06
-6.74399e-06
-2.44592e-07
4.80139e-06
-8.46727e-06
-2.26619e-07
5.07839e-06
-1.03494e-05
-2.07239e-07
5.22039e-06
-1.23804e-05
-1.88027e-07
5.16971e-06
-1.45341e-05
-1.7015e-07
4.87995e-06
-1.67878e-05
-1.53139e-07
4.33376e-06
-1.34746e-07
-1.92258e-05
3.60933e-06
-5.13542e-06
-3.93806e-07
4.24325e-06
-6.70201e-06
-4.1143e-07
4.60853e-06
-8.43385e-06
-4.27896e-07
4.89228e-06
-1.03294e-05
-4.35347e-07
5.03711e-06
-1.23734e-05
-4.35353e-07
4.99211e-06
-1.45381e-05
-4.27829e-07
4.71674e-06
-1.6801e-05
-4.09297e-07
4.19706e-06
-3.74617e-07
-1.92397e-05
3.50686e-06
-5.05283e-06
-3.39655e-07
3.68499e-06
-6.6174e-06
-3.95887e-07
4.07534e-06
-8.36033e-06
-4.36189e-07
4.36732e-06
-1.02714e-05
-4.63481e-07
4.5181e-06
-1.23297e-05
-4.80913e-07
4.49064e-06
-1.45075e-05
-4.87889e-07
4.25764e-06
-1.67854e-05
-4.76591e-07
3.81235e-06
-4.41858e-07
-1.92235e-05
3.21678e-06
-4.85729e-06
-2.52242e-08
2.85724e-06
-6.42675e-06
-9.15176e-08
3.269e-06
-8.18711e-06
-1.44731e-07
3.5772e-06
-1.01179e-05
-1.88613e-07
3.74951e-06
-1.21981e-05
-2.22251e-07
3.76234e-06
-1.44059e-05
-2.44564e-07
3.60156e-06
-1.67184e-05
-2.53506e-07
3.26633e-06
-2.48389e-07
-1.91619e-05
2.80144e-06
-1.96476e-06
3.2303e-07
9.2604e-08
-1.59332e-07
-2.19083e-06
2.62103e-07
1.11134e-07
-1.4646e-07
-2.46829e-06
2.44289e-07
1.20842e-07
-8.76643e-08
-2.77381e-06
2.41524e-07
1.22854e-07
-5.8896e-08
-3.08466e-06
2.36713e-07
1.14447e-07
-3.95428e-08
-3.38104e-06
2.21982e-07
9.70882e-08
-2.35612e-08
-3.66048e-06
2.15983e-07
7.24758e-08
-9.78967e-09
2.05536e-07
4.17655e-08
2.78491e-09
-3.90961e-06
-2.10241e-06
2.84061e-07
1.21882e-07
-2.18837e-06
2.12512e-07
1.35757e-07
-2.36021e-06
2.63493e-07
1.52538e-07
-2.54305e-06
2.65026e-07
1.58613e-07
-2.72648e-06
2.68575e-07
1.51943e-07
-2.91035e-06
2.74986e-07
1.32477e-07
-3.09503e-06
2.87267e-07
1.10898e-07
2.92145e-07
8.42511e-08
-3.26581e-06
-2.1546e-06
1.77202e-07
1.66679e-07
-2.26401e-06
1.44855e-07
1.7578e-07
-2.39917e-06
1.94606e-07
2.04508e-07
-2.55967e-06
2.07986e-07
2.18499e-07
-2.74454e-06
2.25868e-07
2.26797e-07
-2.92346e-06
2.36898e-07
2.15864e-07
-3.07331e-06
2.43062e-07
1.94572e-07
2.48113e-07
1.66161e-07
-3.19577e-06
-2.25513e-06
1.18176e-07
2.2437e-07
-2.41427e-06
8.29151e-08
2.21039e-07
-2.5336e-06
5.54861e-08
2.59238e-07
-2.65865e-06
4.30898e-08
2.90047e-07
-2.74507e-06
1.20248e-10
3.11311e-07
-2.79257e-06
-3.21114e-08
3.16418e-07
-2.8035e-06
-5.45475e-08
3.08437e-07
-7.25626e-08
2.93532e-07
-2.77644e-06
-2.12114e-06
3.63905e-09
1.8206e-07
-2.27518e-06
4.4554e-08
1.92817e-07
-2.41413e-06
-3.50047e-08
2.29436e-07
-2.54394e-06
-7.46975e-08
2.47486e-07
-2.69554e-06
-9.83038e-08
2.4992e-07
-2.84193e-06
-1.28863e-07
2.42623e-07
-2.96316e-06
-1.55929e-07
2.2297e-07
-1.73523e-07
1.93936e-07
-3.05633e-06
-2.02153e-06
-5.10082e-08
1.24793e-07
-2.13856e-06
1.43964e-08
1.45925e-07
-2.2927e-06
-4.38994e-08
1.63699e-07
-2.46459e-06
-7.04046e-08
1.68403e-07
-2.64893e-06
-7.3201e-08
1.58368e-07
-2.84684e-06
-7.44935e-08
1.43947e-07
-3.04339e-06
-8.24745e-08
1.22461e-07
-9.15926e-08
9.49946e-08
-3.21975e-06
-2.02689e-06
9.84365e-08
7.80349e-08
-2.22394e-06
1.16622e-07
9.47731e-08
-2.49939e-06
1.27855e-07
1.03691e-07
-2.8159e-06
1.28934e-07
1.16506e-07
-3.13826e-06
1.18517e-07
1.29368e-07
-3.45256e-06
1.00091e-07
1.4032e-07
-3.75321e-06
7.3639e-08
1.46662e-07
4.08771e-08
1.49649e-07
-4.03638e-06
-1.6352e-06
2.38611e-07
3.93651e-07
-6.79489e-08
-2.13059e-06
2.27599e-07
4.26167e-07
-4.71317e-08
-2.62754e-06
2.12517e-07
4.32016e-07
-2.67855e-08
-3.10327e-06
2.00268e-07
4.09572e-07
-1.12653e-08
-3.54149e-06
1.90647e-07
3.6165e-07
4.22056e-10
-3.92967e-06
1.83158e-07
2.93005e-07
9.20436e-09
-4.25901e-06
1.76997e-07
2.09624e-07
1.51972e-08
1.71792e-07
1.17784e-07
1.91402e-08
-4.52599e-06
-1.64248e-06
2.89145e-07
5.41215e-07
-2.11246e-06
2.71802e-07
5.61599e-07
-2.58315e-06
2.67294e-07
5.68431e-07
-3.03417e-06
2.6487e-07
5.45026e-07
-3.44649e-06
2.63588e-07
4.9126e-07
-3.80712e-06
2.63983e-07
4.1232e-07
-4.0997e-06
2.65085e-07
3.15403e-07
2.66068e-07
2.08692e-07
-4.31851e-06
-1.51716e-06
2.52643e-07
7.03045e-07
-1.96546e-06
2.1234e-07
6.83512e-07
-2.3932e-06
2.00351e-07
6.99205e-07
-2.79423e-06
1.92461e-07
6.92053e-07
-3.14272e-06
1.864e-07
6.52524e-07
-3.42741e-06
1.81129e-07
5.83374e-07
-3.63698e-06
1.76355e-07
4.92822e-07
1.72579e-07
3.90463e-07
-3.76785e-06
-1.48494e-06
1.37543e-07
8.32218e-07
-1.91531e-06
1.11137e-07
7.5261e-07
-2.31428e-06
8.59219e-08
7.71974e-07
-2.67649e-06
6.41707e-08
7.8061e-07
-2.97839e-06
4.07326e-08
7.59656e-07
-3.20672e-06
1.71091e-08
7.08727e-07
-3.35203e-06
-4.89372e-09
6.34933e-07
-2.20517e-08
5.48431e-07
-3.41239e-06
-1.55078e-06
6.46839e-08
7.47891e-07
-1.98906e-06
3.48614e-08
7.07347e-07
-2.39535e-06
2.69617e-09
7.19032e-07
-2.77709e-06
-1.92255e-08
7.12533e-07
-3.11762e-06
-4.32642e-08
6.74407e-07
-3.39668e-06
-6.79454e-08
6.06658e-07
-3.60346e-06
-9.13138e-08
5.16104e-07
-1.1234e-07
4.13568e-07
-3.73284e-06
-1.7483e-06
5.42127e-08
5.67606e-07
-2.1892e-06
4.14118e-08
5.80213e-07
-2.63872e-06
3.06663e-08
5.85218e-07
-3.07325e-06
2.23038e-08
5.61416e-07
-3.4797e-06
1.41461e-08
5.07308e-07
-3.83656e-06
5.63364e-09
4.27165e-07
-4.13004e-06
-3.43896e-09
3.28007e-07
-1.20089e-08
2.18319e-07
-4.35377e-06
-1.77454e-06
4.1137e-07
1.63823e-07
-2.23327e-06
4.44129e-07
1.72593e-07
-2.70387e-06
4.50759e-07
1.78338e-07
-3.16337e-06
4.28288e-07
1.82418e-07
-3.59469e-06
3.79499e-07
1.84444e-07
-3.98221e-06
3.0914e-07
1.84068e-07
-4.31678e-06
2.23363e-07
1.81385e-07
1.28974e-07
1.76689e-07
-4.5936e-06
-2.05123e-06
2.26253e-07
8.90487e-07
-3.43782e-08
-2.80052e-06
2.28198e-07
9.68285e-07
-2.09231e-08
-3.57474e-06
2.19401e-07
9.97203e-07
-1.04286e-08
-4.3443e-06
2.0686e-07
9.75524e-07
-3.25605e-09
-5.08265e-06
1.93188e-07
9.05323e-07
1.56111e-09
-5.76247e-06
1.79687e-07
7.89021e-07
4.17128e-09
-6.35394e-06
1.66939e-07
6.2898e-07
5.17408e-09
1.5529e-07
4.31282e-07
5.17672e-09
-6.82796e-06
-1.96942e-06
3.09592e-07
1.20258e-06
-2.726e-06
2.87585e-07
1.259e-06
-3.49497e-06
2.74803e-07
1.28206e-06
-4.25615e-06
2.61462e-07
1.25165e-06
-4.98325e-06
2.45904e-07
1.16567e-06
-5.64594e-06
2.29244e-07
1.02547e-06
-6.20909e-06
2.12584e-07
8.32889e-07
1.9668e-07
5.94979e-07
-6.6368e-06
-1.76115e-06
2.73423e-07
1.48853e-06
-2.50137e-06
2.19375e-07
1.49196e-06
-3.24419e-06
1.95348e-07
1.5215e-06
-3.97377e-06
1.77729e-07
1.50542e-06
-4.6658e-06
1.60434e-07
1.43003e-06
-5.2905e-06
1.43267e-07
1.29407e-06
-5.81069e-06
1.27195e-07
1.09841e-06
1.13009e-07
8.50417e-07
-6.18699e-06
-1.62493e-06
1.67757e-07
1.67682e-06
-2.35157e-06
1.02843e-07
1.59632e-06
-3.07473e-06
6.34843e-08
1.62708e-06
-3.77774e-06
3.42785e-08
1.62689e-06
-4.4358e-06
9.56277e-09
1.5686e-06
-5.02159e-06
-1.00364e-08
1.44784e-06
-5.49913e-06
-2.56701e-08
1.26536e-06
-3.78694e-08
1.02881e-06
-5.82861e-06
-1.83313e-06
7.53819e-08
1.5281e-06
-2.5423e-06
1.26691e-08
1.50607e-06
-3.27042e-06
-1.9621e-08
1.53033e-06
-3.99013e-06
-4.58161e-08
1.51232e-06
-4.6754e-06
-6.55045e-08
1.43472e-06
-5.29555e-06
-7.90672e-08
1.29585e-06
-5.81381e-06
-8.79663e-08
1.09666e-06
-9.33652e-08
8.44929e-07
-6.18967e-06
-2.14173e-06
8.43371e-08
1.22459e-06
-2.85847e-06
4.03482e-08
1.26921e-06
-3.5973e-06
1.62804e-08
1.28822e-06
-4.33583e-06
1.15424e-11
1.25411e-06
-5.04778e-06
-9.47641e-09
1.16321e-06
-5.69974e-06
-1.69297e-08
1.01696e-06
-6.25506e-06
-2.23581e-08
8.17697e-07
-2.65417e-08
5.73187e-07
-6.67677e-06
-2.24184e-06
9.05804e-07
2.14479e-07
-2.94428e-06
9.82826e-07
2.04045e-07
-3.68378e-06
1.01167e-06
1.94851e-07
-4.43003e-06
9.88507e-07
1.86012e-07
-5.1524e-06
9.15321e-07
1.77077e-07
-5.82259e-06
7.94792e-07
1.67597e-07
-6.4089e-06
6.29691e-07
1.57605e-07
4.26661e-07
1.47259e-07
-6.88042e-06
-3.58562e-06
2.67046e-07
1.80553e-06
7.54732e-10
-4.90095e-06
2.8344e-07
2.00638e-06
-6.12561e-09
-6.28046e-06
2.80724e-07
2.10842e-06
-1.24841e-08
-7.64092e-06
2.64781e-07
2.09048e-06
-1.93819e-08
-8.88324e-06
2.41342e-07
1.93255e-06
-2.6377e-08
-9.89614e-06
2.13872e-07
1.62109e-06
-3.31839e-08
-1.05614e-05
1.84491e-07
1.14941e-06
-3.97743e-08
1.54958e-07
5.10155e-07
-4.60879e-08
-1.07493e-05
-3.41802e-06
3.47342e-07
2.37557e-06
-4.76592e-06
3.36292e-07
2.55418e-06
-6.17403e-06
3.23136e-07
2.64772e-06
-7.5698e-06
2.97367e-07
2.61478e-06
-8.84876e-06
2.61551e-07
2.42433e-06
-9.88394e-06
2.20091e-07
2.05431e-06
-1.05341e-05
1.75811e-07
1.4916e-06
1.30299e-07
7.18814e-07
-1.06334e-05
-3.07706e-06
2.74487e-07
2.82479e-06
-4.432e-06
2.2798e-07
2.95521e-06
-5.84459e-06
2.04373e-07
3.05282e-06
-7.25129e-06
1.80121e-07
3.02938e-06
-8.54932e-06
1.51735e-07
2.83791e-06
-9.60433e-06
1.22049e-07
2.44712e-06
-1.0261e-05
9.31742e-08
1.83766e-06
6.60145e-08
9.81852e-07
-1.03282e-05
-2.80823e-06
1.69781e-07
3.06306e-06
-4.18497e-06
8.3524e-08
3.11757e-06
-5.6036e-06
3.4264e-08
3.2159e-06
-7.00433e-06
2.70716e-09
3.20513e-06
-8.29693e-06
-1.31609e-08
3.02617e-06
-9.34804e-06
-2.21639e-08
2.64317e-06
-9.99861e-06
-2.44251e-08
2.03349e-06
-2.18216e-08
1.16268e-06
-1.00446e-05
-3.13311e-06
4.59833e-08
2.85289e-06
-4.47201e-06
-3.19262e-08
2.96047e-06
-5.87865e-06
-7.92645e-08
3.05058e-06
-7.28367e-06
-1.022e-07
3.02228e-06
-8.58202e-06
-1.06299e-07
2.82623e-06
-9.64107e-06
-9.80735e-08
2.43078e-06
-1.03041e-05
-8.16223e-08
1.81682e-06
-5.96613e-08
9.57598e-07
-1.0379e-05
-3.57278e-06
6.15553e-08
2.38985e-06
-4.88214e-06
-8.93773e-09
2.55559e-06
-6.26755e-06
-4.80337e-08
2.64247e-06
-7.65075e-06
-6.79064e-08
2.60303e-06