/*--------------------------------*- C++ -*----------------------------------*\
| =========                 |                                                 |
| \\      /  F ield         | OpenFOAM: The Open Source CFD Toolbox           |
|  \\    /   O peration     | Version:  plus.master                           |
|   \\  /    A nd           | Web:      www.OpenFOAM.com                      |
|    \\/     M anipulation  |                                                 |
\*---------------------------------------------------------------------------*/
FoamFile
{
    version     2.0;
    format      ascii;
    class       volScalarField;
    location    "5.8";
    object      k;
}
// * * * * * * * * * * * * * * * * * * * * * * * * * * * * * * * * * * * * * //

dimensions      [0 2 -2 0 0 0 0];

internalField   nonuniform List<scalar> 
47285
(
0.000261425
0.000616879
0.00228972
0.00364634
0.00178599
0.000472091
0.00021655
0.000588304
0.00275143
0.0135348
0.0198961
0.0114412
0.0025295
0.000543767
0.00208738
0.0126422
0.0139369
0.0379419
0.0138463
0.0131975
0.00230675
0.0032077
0.0170829
0.0408296
0.038565
0.0425172
0.0210851
0.00387063
0.00176307
0.0114162
0.0145888
0.0467212
0.0135407
0.0116377
0.00193558
0.000507328
0.00268293
0.0140344
0.0203666
0.0109373
0.00216391
0.000437753
0.000255576
0.000653215
0.00256352
0.00389841
0.00179774
0.000434663
0.000200255
0.000925753
0.00191858
0.00518752
0.00737541
0.0040767
0.00141417
0.000750467
0.00189149
0.00697794
0.0195889
0.0325392
0.018328
0.00579757
0.00140472
0.0050826
0.0193661
0.0351965
0.108129
0.037428
0.020308
0.00424582
0.0073111
0.0299409
0.117046
0.0996516
0.0976113
0.0409978
0.00729915
0.00444409
0.0187961
0.0376981
0.0976794
0.0400816
0.0187838
0.00356272
0.00169801
0.00701161
0.0223802
0.0409892
0.0195125
0.00537593
0.00122508
0.000910102
0.00187852
0.00574911
0.00881664
0.00408801
0.00130354
0.000762166
0.00230197
0.00401097
0.00838587
0.0112065
0.006553
0.00281112
0.00188658
0.00409104
0.0115777
0.0251428
0.0404538
0.0223189
0.00799548
0.00262151
0.00900323
0.0263262
0.0564218
0.145616
0.0555019
0.0210474
0.00522482
0.0129721
0.0442046
0.142974
0.123687
0.133605
0.0409903
0.00795911
0.00827826
0.0270278
0.0615754
0.117845
0.0616136
0.0204222
0.0045885
0.00368732
0.0115087
0.0289279
0.0517603
0.0243764
0.0073198
0.00241979
0.00226964
0.0037136
0.00863083
0.0131877
0.00623658
0.00259324
0.00194136
0.00456524
0.00648247
0.0116098
0.0149873
0.00890916
0.00479623
0.00394151
0.00661119
0.0160238
0.031449
0.0459284
0.0254568
0.00961079
0.00448474
0.0126559
0.0340665
0.067832
0.131045
0.06063
0.0209002
0.00626092
0.0181439
0.055383
0.127253
0.12038
0.13087
0.0336858
0.00796906
0.0115431
0.0336941
0.071924
0.113697
0.0646071
0.0201846
0.00579772
0.0060009
0.0147454
0.0326957
0.0524497
0.0258625
0.00853956
0.00436165
0.00452337
0.00583747
0.010403
0.0147553
0.00778649
0.00457666
0.00406735
0.00550287
0.00752148
0.0131666
0.0169515
0.00996004
0.00572472
0.00483868
0.00756102
0.0180995
0.035541
0.0482762
0.0272074
0.0101564
0.00532579
0.0140095
0.0389271
0.0714885
0.10911
0.0609685
0.020386
0.00669073
0.0205352
0.062802
0.111653
0.11227
0.117388
0.0299627
0.00777794
0.0125299
0.0369681
0.0731503
0.102606
0.0608626
0.0190351
0.00626184
0.0067614
0.0152849
0.0327371
0.0474453
0.024721
0.00861631
0.00516545
0.00535806
0.0065532
0.010494
0.0141778
0.0080587
0.00540072
0.00489313
0.000174425
0.000168664
0.000167967
0.000164924
0.000160962
0.000157232
0.000154414
0.000152048
0.000246646
0.000187466
0.000172012
0.000165097
0.000159607
0.000154783
0.000151225
0.000148304
0.000676859
0.000258928
0.00018078
0.000165775
0.000159048
0.000154589
0.000150856
0.000146838
0.00111247
0.000340905
0.000189796
0.000163975
0.000156035
0.000150179
0.00014611
0.000142154
0.000561266
0.000235514
0.000178313
0.000165646
0.000158851
0.000153738
0.000149583
0.000145216
0.00020769
0.000177397
0.000171695
0.000164493
0.000158679
0.000153548
0.000149673
0.000146375
0.00017196
0.000171781
0.000169406
0.000164549
0.000160277
0.000156561
0.000152799
0.00015013
0.000649181
0.000615269
0.000581454
0.000546044
0.000512266
0.000481819
0.000454851
0.000430484
0.000701819
0.000620101
0.000585326
0.000550603
0.000516174
0.00048435
0.000455996
0.000430354
0.000927762
0.000635892
0.000592294
0.000558471
0.000523594
0.000489829
0.00045867
0.000430329
0.00111943
0.000643728
0.000596356
0.000563896
0.000529226
0.000494857
0.000463032
0.00043331
0.000857132
0.000641578
0.000600028
0.00056377
0.000527444
0.00049274
0.000460948
0.000431979
0.000706542
0.000642465
0.000603202
0.000564203
0.000526939
0.000493044
0.000462836
0.000435472
0.000677935
0.000642171
0.000604377
0.000566474
0.000531313
0.000499722
0.000471542
0.000445975
0.00173699
0.00168442
0.00160532
0.00149427
0.00135818
0.00120633
0.0010496
0.000900469
0.00179583
0.00169371
0.00162183
0.0015193
0.00138626
0.00123195
0.00106847
0.000910348
0.00198298
0.00169697
0.00162957
0.00153885
0.0014117
0.00125689
0.00108773
0.000920873
0.00210842
0.00169487
0.00163575
0.00155134
0.0014264
0.00127081
0.00109865
0.000927433
0.00193692
0.00172215
0.0016563
0.00156119
0.00143018
0.00127209
0.00109976
0.000929612
0.00183548
0.00175653
0.00167894
0.00156852
0.00142821
0.00126687
0.00109616
0.000930643
0.00182561
0.00177146
0.00168432
0.00156452
0.00141977
0.00125932
0.00109411
0.000936884
0.00374193
0.00358747
0.00335516
0.00307922
0.00280556
0.00256392
0.00235539
0.00214178
0.00380429
0.00365445
0.00344521
0.00317059
0.00288086
0.00261937
0.00239769
0.00217746
0.00388472
0.0036532
0.00348064
0.00322547
0.00293428
0.00266272
0.00243311
0.00220993
0.00392973
0.00364799
0.00349802
0.00325309
0.00296192
0.00268603
0.0024527
0.00222818
0.00388695
0.00369918
0.00351974
0.0032558
0.00295941
0.00268553
0.00245556
0.00223326
0.00389008
0.00374811
0.0035245
0.00323736
0.00293963
0.0026738
0.00245033
0.00222982
0.00389253
0.00372717
0.00348082
0.00319426
0.00291351
0.0026672
0.00245528
0.00223784
0.00456587
0.00435189
0.00408253
0.00376389
0.00339247
0.00294329
0.00240464
0.00183839
0.00464482
0.00441154
0.00413317
0.00379884
0.00341968
0.00297528
0.00244172
0.00186937
0.00470218
0.00441406
0.00416079
0.00383816
0.00346488
0.00302788
0.0024965
0.00191495
0.0047129
0.00440805
0.00417577
0.00386157
0.0034909
0.00305581
0.0025242
0.00193805
0.00469553
0.00443984
0.00417802
0.00384696
0.00346933
0.00303091
0.0024997
0.00191916
0.00468774
0.00445547
0.00415772
0.00380721
0.00341773
0.00296837
0.0024345
0.00186574
0.00464809
0.00441022
0.0041111
0.0037646
0.00337
0.00290544
0.00236181
0.00180135
0.0002016
0.000197726
0.000196055
0.000192815
0.0001888
0.000186077
0.000183848
0.000182
0.000238623
0.000195306
0.000190969
0.000185665
0.000179301
0.000177147
0.000175511
0.000174623
0.000525677
0.000250515
0.000199398
0.00018929
0.000183087
0.000175268
0.000169616
0.000165108
0.000924564
0.000333497
0.000212744
0.000190729
0.000182617
0.000175099
0.000168833
0.000163382
0.000648074
0.000288172
0.000211809
0.000191722
0.000184835
0.000179366
0.000172931
0.0001682
0.000273238
0.000211613
0.000197151
0.000188929
0.000185373
0.000184616
0.000181679
0.000177731
0.000204692
0.000201566
0.000200115
0.000196028
0.000192915
0.000190792
0.000188357
0.000186561
0.000783313
0.000740106
0.000697556
0.000652733
0.000609909
0.000570985
0.000536247
0.000504994
0.000862539
0.000767695
0.000727928
0.000686635
0.000643289
0.000601063
0.00056056
0.000524459
0.00114737
0.000792034
0.000746959
0.000715167
0.000677219
0.000637422
0.00059775
0.000559702
0.00154493
0.000797442
0.000735832
0.000708981
0.000675325
0.000638149
0.000600967
0.000564749
0.0012833
0.000799726
0.000747181
0.000718831
0.000684795
0.000646877
0.000608731
0.000571663
0.000891095
0.000772423
0.000734301
0.000695621
0.000654317
0.000612622
0.000573202
0.000536931
0.000779098
0.000735811
0.00069457
0.000649925
0.000606365
0.000566103
0.000530233
0.000498164
0.00203333
0.00196993
0.00188164
0.00175304
0.00159082
0.00140626
0.00121374
0.00103011
0.00217444
0.00199625
0.00192001
0.00181405
0.00166774
0.00148859
0.00129032
0.00109167
0.00268449
0.00199585
0.00190817
0.00183148
0.00171285
0.00155417
0.00136658
0.00116775
0.00340856
0.00197607
0.00185625
0.00179427
0.00168942
0.00154318
0.00136715
0.00117749
0.00286759
0.0019871
0.00188603
0.00181438
0.00170106
0.00154678
0.00136292
0.0011672
0.00220749
0.00196862
0.00189204
0.00179247
0.00165233
0.00147837
0.00128446
0.00108934
0.00199277
0.00192329
0.00184063
0.00171869
0.00156247
0.00138326
0.00119554
0.00101613
0.00420719
0.00403051
0.0037699
0.00345563
0.00313883
0.00285456
0.00260647
0.00235416
0.00437612
0.00411412
0.00388202
0.00358171
0.0032565
0.0029571
0.00270224
0.00245412
0.00492566
0.00410442
0.00388472
0.00362483
0.00331749
0.00302407
0.00278006
0.00255507
0.00579963
0.00407101
0.00382636
0.00359321
0.00330107
0.00301479
0.00277952
0.00257076
0.00513039
0.00409346
0.00385979
0.0036077
0.00330701
0.0030176
0.00277545
0.00255037
0.00441283
0.00407424
0.00384499
0.00355422
0.00323448
0.00293652
0.00268022
0.00242859
0.00413649
0.00395632
0.0037062
0.00339897
0.00308401
0.00279827
0.00254766
0.00229381
0.00497977
0.00471997
0.00439095
0.00400175
0.00355553
0.00303292
0.00242739
0.00180807
0.005209
0.00486297
0.0045427
0.00416115
0.00372459
0.00321291
0.00260093
0.00194662
0.00581174
0.0049344
0.00462088
0.0042764
0.00386803
0.00337736
0.00276721
0.00208998
0.00680082
0.00497039
0.00462647
0.0043126
0.0039352
0.00348007
0.00290591
0.00225388
0.00605555
0.00495604
0.0046234
0.00428188
0.00387551
0.00338424
0.0027721
0.00209206
0.00530851
0.0048784
0.00455928
0.00418533
0.00375171
0.00323786
0.00261981
0.00195698
0.00498564
0.0047305
0.00442322
0.00405406
0.00362212
0.00310484
0.00249308
0.00185697
0.000202415
0.000197543
0.000195456
0.00019077
0.000186569
0.000182895
0.000178992
0.000175726
0.00027766
0.000204072
0.00018813
0.000180028
0.000172988
0.000167703
0.00016255
0.000157861
0.000720353
0.000301393
0.00020707
0.000186163
0.000173909
0.000160997
0.000151348
0.000144065
0.00106391
0.000359748
0.000205051
0.000172627
0.000162124
0.000153911
0.000146493
0.000139522
0.000542588
0.000241969
0.000181568
0.000169404
0.000161091
0.000151621
0.00014382
0.000137198
0.000222704
0.000177828
0.000168339
0.000163127
0.000158191
0.000152615
0.00014883
0.000146174
0.000173018
0.00016928
0.000170283
0.000168242
0.000164966
0.000161464
0.0001586
0.000154959
0.00079283
0.000746798
0.000700612
0.000650037
0.000600151
0.000554096
0.00051337
0.000477775
0.000935724
0.000814427
0.000768261
0.000716973
0.000660013
0.000601841
0.000546001
0.000495033
0.00139399
0.000870976
0.000807219
0.0007653
0.000712363
0.000654878
0.000597053
0.000541293
0.00163783
0.000843275
0.000771029
0.000738654
0.00069507
0.000644452
0.000592247
0.000541652
0.00110928
0.000785711
0.000743491
0.00070563
0.000656206
0.000602879
0.000549349
0.000498348
0.000786516
0.000715434
0.000678619
0.000634568
0.000586052
0.000537296
0.000491976
0.000450041
0.000684349
0.000648918
0.000609333
0.00056649
0.000525287
0.000488223
0.000456103
0.00042819
0.00197688
0.00191253
0.00183458
0.00171788
0.00156646
0.00139002
0.00120148
0.00101677
0.00217491
0.00194482
0.00187591
0.00178377
0.00165143
0.00148395
0.00129179
0.00109045
0.00277695
0.00193388
0.00184396
0.00178267
0.0016794
0.00153464
0.00135722
0.00116127
0.003097
0.00184459
0.00175575
0.00171357
0.00162377
0.00149042
0.00132441
0.00113927
0.00232208
0.00180643
0.00175241
0.00169429
0.00159239
0.00145021
0.00127682
0.00108641
0.00187481
0.00177043
0.00171775
0.0016311
0.0015068
0.00135144
0.00117506
0.000991933
0.00175791
0.0017154
0.00164277
0.00153512
0.00139913
0.00124359
0.00107934
0.000919662
0.00409969
0.00393532
0.00369303
0.00338946
0.00307502
0.00278926
0.00254153
0.00229729
0.00429957
0.00398715
0.00378507
0.00350748
0.00318255
0.00286745
0.00259584
0.00234727
0.00486436
0.00391761
0.00374925
0.00354055
0.00324562
0.00292274
0.00262256
0.00233726
0.00517244
0.00376472
0.003636
0.00348049
0.00322026
0.00291665
0.00262615
0.00234397
0.00429307
0.00375019
0.00362667
0.00342416
0.00313616
0.00282362
0.00253408
0.00225705
0.00387393
0.00373046
0.00355401
0.00329001
0.00298321
0.00268798
0.00243377
0.00219802
0.0037606
0.00362822
0.00340174
0.00312279
0.00284041
0.00258852
0.00237234
0.00215681
0.00498947
0.00475192
0.00445966
0.00411093
0.00370702
0.00322369
0.00264021
0.00201117
0.00527379
0.00488461
0.00462374
0.0043154
0.00395444
0.00351825
0.00296881
0.0023392
0.00592159
0.00488253
0.00461988
0.00434242
0.00399782
0.00358392
0.00306147
0.00246785
0.00630362
0.00476999
0.00452877
0.00428807
0.00397017
0.00358678
0.00310593
0.00256087
0.00530992
0.00469151
0.0044803
0.00421415
0.00387922
0.00347726
0.00297047
0.00239504
0.00481119
0.0045981
0.00436987
0.00407977
0.00374004
0.00333323
0.00282252
0.00224515
0.00462353
0.00442818
0.00416506
0.00385369
0.00349515
0.0030645
0.00254047
0.00197288
0.000176886
0.000176667
0.000174973
0.00017124
0.000167563
0.000164502
0.000161415
0.000157659
0.000226565
0.000189417
0.000178778
0.000171814
0.000165751
0.000161665
0.000159012
0.000155946
0.000579364
0.000262444
0.00019601
0.000181394
0.000172904
0.000165151
0.000158465
0.000152562
0.00118597
0.000392391
0.000222961
0.000191903
0.000180749
0.000171684
0.000163103
0.000155102
0.000838632
0.0003352
0.000220812
0.000195661
0.000184051
0.000175087
0.000166635
0.000158821
0.000310935
0.000224868
0.000198368
0.000189076
0.000181907
0.00017638
0.000172168
0.000167281
0.000207719
0.000201252
0.000196554
0.000191493
0.000186758
0.000183285
0.000180695
0.000178557
0.000709977
0.000673833
0.000633823
0.000592699
0.000554252
0.000519953
0.000489807
0.000462857
0.000795604
0.000735306
0.000697916
0.000655633
0.000611455
0.000568698
0.000528883
0.000492346
0.00106869
0.000797599
0.000759771
0.000723516
0.000678687
0.000630489
0.000582826
0.000537284
0.00163235
0.00085467
0.000795619
0.000763333
0.000719718
0.00067015
0.000620494
0.000572764
0.001382
0.000868405
0.000809796
0.00077068
0.000723556
0.000672136
0.000620749
0.00057165
0.000933338
0.000818272
0.000772251
0.000723737
0.000671874
0.000620972
0.000573159
0.000529484
0.00079611
0.00075313
0.000709698
0.000663567
0.000618702
0.000577372
0.00054013
0.000506593
0.00186045
0.00182014
0.00174225
0.00162786
0.00148405
0.00131995
0.00114722
0.000980233
0.00194196
0.0018829
0.00183188
0.00174102
0.0016104
0.00144688
0.00126147
0.0010707
0.00224169
0.00190611
0.0018719
0.00181289
0.00170769
0.00156132
0.00138199
0.00118383
0.00297159
0.00192315
0.0018718
0.00182826
0.0017347
0.00159687
0.00142422
0.00123012
0.00264786
0.00199203
0.00192976
0.00186825
0.00176166
0.00161337
0.00143171
0.00123004
0.00217561
0.00201229
0.00194716
0.00185052
0.00171193
0.00153718
0.00133803
0.00113209
0.00202681
0.00197153
0.00188948
0.00176673
0.0016087
0.00142568
0.00123156
0.00104341
0.00394875
0.00381035
0.00357678
0.0032961
0.00301542
0.00276531
0.0025475
0.00232283
0.00404011
0.00394804
0.0037693
0.00350935
0.00322129
0.0029549
0.00272926
0.00250829
0.00423472
0.00395327
0.00383287
0.00361392
0.00333314
0.00306144
0.00283719
0.00263699
0.00483751
0.00393237
0.00382365
0.00363241
0.0033577
0.0030752
0.00283509
0.00262147
0.00461961
0.00404961
0.00389988
0.00367416
0.0033855
0.00310706
0.00287867
0.00267827
0.00432487
0.00412263
0.0039238
0.00364862
0.00334182
0.00305614
0.00281417
0.00258077
0.00419528
0.00403694
0.00378753
0.00348199
0.00317074
0.00288964
0.0026438
0.00239411
0.00472566
0.00450783
0.00421467
0.00386814
0.0034681
0.00299368
0.00243369
0.00184912
0.0049107
0.00474243
0.0044986
0.00418443
0.0038086
0.0033432
0.00275486
0.00209789
0.00514748
0.00484595
0.00465973
0.00439561
0.00406506
0.00364564
0.00308358
0.00241549
0.00566882
0.00487854
0.00470106
0.00446332
0.00416008
0.00378318
0.00327604
0.00266408
0.0054912
0.00495156
0.00473775
0.00446636
0.00412871
0.00370233
0.0031284
0.00244337
0.00519594
0.00492903
0.004661
0.00432605
0.00392599
0.00343228
0.00281071
0.00211898
0.00498977
0.00474675
0.00442819
0.00404759
0.00360695
0.00308661
0.00247885
0.00185085
0.000149539
0.000145447
0.000143061
0.000137689
0.000140951
0.000143224
0.000147888
0.000407923
0.000406747
0.000404413
0.000405923
0.000405267
0.000410253
0.000421888
0.000771807
0.000774043
0.000776281
0.000778645
0.000781902
0.000787669
0.000801052
0.00184924
0.00186418
0.00188497
0.00189948
0.00190929
0.0019159
0.00193794
0.00123723
0.00121893
0.00122322
0.0012292
0.00122862
0.00122287
0.0012174
0.000180299
0.000175003
0.000161465
0.000158379
0.000164311
0.000176046
0.000185035
0.000475755
0.000490964
0.000523951
0.000530329
0.000536106
0.000503704
0.000468534
0.000872268
0.000915739
0.000984959
0.00100079
0.000986712
0.000915903
0.000861819
0.00201603
0.00210791
0.00222981
0.00226957
0.00222307
0.00207787
0.0019576
0.00117494
0.00121954
0.00129728
0.00145099
0.00129445
0.00121837
0.00119765
0.000172739
0.000153623
0.000138064
0.000133298
0.000131551
0.000141878
0.000151261
0.000446276
0.000449921
0.000490986
0.000496345
0.000452574
0.000413296
0.000403409
0.000852949
0.000902559
0.000972984
0.000961392
0.000904456
0.000822185
0.000778825
0.00197965
0.00203788
0.00198137
0.00198243
0.00190766
0.00189877
0.00186896
0.00132342
0.00156063
0.00170185
0.00182904
0.00165282
0.00152482
0.001339
0.000153841
0.000152389
0.000147504
0.000147815
0.000152212
0.000163642
0.000176692
0.000437771
0.000458902
0.00049574
0.000529583
0.000526771
0.000490433
0.000475483
0.000833973
0.000897047
0.000992964
0.00104197
0.00103403
0.000943888
0.000878895
0.00201193
0.00218616
0.00234745
0.00232404
0.00239001
0.00224738
0.00205811
0.00123477
0.0013404
0.00157035
0.00184174
0.00157647
0.00132949
0.001202
0.000147333
0.00014493
0.000140279
0.000133182
0.00012414
0.000114128
0.00010367
9.28068e-05
0.000143655
0.000140367
0.000134796
0.000127526
0.000118596
0.000108775
9.85484e-05
8.79943e-05
0.000140984
0.000137987
0.000132692
0.000124076
0.000114766
0.000105189
9.52818e-05
8.50944e-05
0.000135721
0.000134729
0.000131575
0.000124707
0.000114696
0.000103891
9.36691e-05
8.36436e-05
0.000138247
0.000135249
0.000130967
0.000122391
0.000113145
0.000103774
9.40586e-05
8.4064e-05
0.000141101
0.000137117
0.000131856
0.000124608
0.000115826
0.000106179
9.61793e-05
8.59153e-05
0.000145419
0.000143033
0.000138455
0.000130859
0.000121383
0.000111096
0.000100575
8.98681e-05
0.000384665
0.000350938
0.000312132
0.000274578
0.000241105
0.000211381
0.000184432
0.000159689
0.000383747
0.000349361
0.000310409
0.000272087
0.000237748
0.000207275
0.000179858
0.000154985
0.000380312
0.000345094
0.00030553
0.000267665
0.000233704
0.000203588
0.000176567
0.000152087
0.000380839
0.000344483
0.000305399
0.000266776
0.000231954
0.000201528
0.00017461
0.000150391
0.000380256
0.000344299
0.00030371
0.000265634
0.000231551
0.000201497
0.000174676
0.00015046
0.000385373
0.000348754
0.000307909
0.000268645
0.000233772
0.000203188
0.00017599
0.000151537
0.000396352
0.000358363
0.000315059
0.000274273
0.000238486
0.000207334
0.000179739
0.000154955
0.000661492
0.000555141
0.000454411
0.000369189
0.000302186
0.000249945
0.000208502
0.000175077
0.000663582
0.000556095
0.000455118
0.000369355
0.000301538
0.000248484
0.000206417
0.000172642
0.000663045
0.000553042
0.000453189
0.000367997
0.000300196
0.000247037
0.0002049
0.000171124
0.000663141
0.00055109
0.000452184
0.000367418
0.000299438
0.000246053
0.00020386
0.000170148
0.000665502
0.000552142
0.000452078
0.000366703
0.000298688
0.000245474
0.000203438
0.000169848
0.000670667
0.000556342
0.000453893
0.00036708
0.000298439
0.000245008
0.000202979
0.000169507
0.000682856
0.000567454
0.000460918
0.000371164
0.000300961
0.000246785
0.000204449
0.000170881
0.00148867
0.000975944
0.000625723
0.000436574
0.000327015
0.000256532
0.000207451
0.000171613
0.00149711
0.00098113
0.000629091
0.000439006
0.000328549
0.00025715
0.00020729
0.000170932
0.00151342
0.000992449
0.00063458
0.000441092
0.000329059
0.000256894
0.000206637
0.000170085
0.00152536
0.00100031
0.000637994
0.00044204
0.000328986
0.000256463
0.00020614
0.000169628
0.00153438
0.00100441
0.000638596
0.000441292
0.000327971
0.000255544
0.00020539
0.000169042
0.00154032
0.00100484
0.00063687
0.000439172
0.000325965
0.000253828
0.000204034
0.000168049
0.00155902
0.00101274
0.0006393
0.000439512
0.000325484
0.000253104
0.000203369
0.000167581
0.00116535
0.000958773
0.000640467
0.000437679
0.000316634
0.000241606
0.000192759
0.00015958
0.00114748
0.000952151
0.000641344
0.000440419
0.000318944
0.000242852
0.000193047
0.000159307
0.00114977
0.000955704
0.000644519
0.000442192
0.000319541
0.000242677
0.000192444
0.000158536
0.00115458
0.000959044
0.000646493
0.0004431
0.000319868
0.000242749
0.000192423
0.000158498
0.00115518
0.000958173
0.000644885
0.000441467
0.000318434
0.000241568
0.000191494
0.00015778
0.00115254
0.000954028
0.000640584
0.000437992
0.000315822
0.00023969
0.000190195
0.000156911
0.00114978
0.000948562
0.000634394
0.000432767
0.000311687
0.000236507
0.000187829
0.000155202
0.000179081
0.000175786
0.000167633
0.000155782
0.000142572
0.000129284
0.000116296
0.000103609
0.000173258
0.000170764
0.000165111
0.000154721
0.000141888
0.000128613
0.000115143
0.00010215
0.000157937
0.000151693
0.000145245
0.00013858
0.000129471
0.000119502
0.000108282
9.61487e-05
0.000153848
0.000145288
0.000136199
0.000126582
0.000116082
0.00010635
9.68091e-05
8.66325e-05
0.000160266
0.000153346
0.000146536
0.000140076
0.000131426
0.000121639
0.000110976
9.88979e-05
0.000175849
0.000174637
0.000169059
0.000158459
0.00014588
0.000132544
0.000118606
0.000104957
0.000183514
0.000179031
0.000170671
0.000158895
0.000145805
0.000132477
0.000119262
0.000106176
0.000444414
0.000396108
0.000343376
0.000295082
0.000253672
0.000218628
0.00018859
0.000162337
0.000457703
0.00041153
0.000359681
0.000309892
0.000265717
0.000226951
0.000193321
0.000164126
0.000487124
0.000437243
0.000387704
0.00034069
0.00029833
0.000260491
0.000225596
0.000193087
0.00049418
0.000444454
0.000394204
0.00034613
0.000301125
0.000260554
0.000223684
0.000191013
0.000499291
0.000449771
0.000400208
0.000352635
0.000308853
0.000270032
0.000233956
0.000200271
0.000470169
0.000423457
0.000370483
0.000319697
0.000274199
0.000234143
0.000199143
0.000168789
0.000437601
0.000391919
0.000341962
0.000296064
0.00025625
0.000222006
0.000192087
0.000165568
0.000735635
0.000600775
0.000475737
0.000375087
0.000299515
0.000243132
0.000200391
0.000167356
0.000766174
0.000626463
0.000503981
0.000402547
0.000324003
0.000264118
0.000218049
0.000182172
0.000825413
0.000670585
0.000563306
0.000473141
0.00039994
0.000341772
0.000294567
0.000255235
0.000843065
0.000684533
0.000571209
0.000482823
0.000407647
0.000343156
0.000289166
0.000245478
0.000829263
0.000677371
0.000569568
0.000477941
0.000403201
0.000343553
0.000295192
0.000255544
0.000769065
0.000632125
0.000509097
0.00040735
0.00032864
0.000268406
0.00022175
0.000185223
0.000729263
0.00059549
0.000472806
0.000374819
0.000301202
0.000245882
0.00020346
0.000170259
0.00159736
0.0010177
0.000631727
0.000427781
0.000312949
0.000241443
0.000193443
0.000159671
0.00168706
0.00109151
0.000684867
0.000467203
0.000344367
0.000267954
0.000216765
0.000180926
0.00182225
0.00122845
0.000800504
0.000568366
0.000441402
0.000365119
0.000315099
0.000280482
0.0018912
0.00131953
0.00090145
0.000663594
0.000524746
0.000429217
0.000350141
0.000288589
0.00181332
0.00122046
0.000795387
0.000564225
0.000436636
0.000358926
0.000307225
0.000271174
0.00165859
0.00107469
0.000679311
0.00046712
0.000346149
0.000269982
0.000218332
0.000181868
0.00154904
0.000993687
0.000624212
0.000427335
0.000315262
0.000244794
0.00019697
0.000162897
0.00109722
0.000900441
0.000598447
0.000406371
0.000292068
0.000222047
0.000177485
0.000148019
0.00113317
0.000935167
0.000629496
0.000433372
0.000316283
0.000244443
0.000198674
0.000168638
0.00120295
0.00100187
0.000691193
0.000494962
0.00038318
0.000320482
0.000285745
0.000267501
0.00135577
0.00117163
0.000869047
0.000682948
0.000583312
0.000523424
0.000464155
0.000385297
0.00120081
0.00099962
0.000688007
0.000490141
0.000376379
0.000311918
0.000275539
0.000254278
0.00113064
0.000934088
0.000629531
0.000434136
0.000317065
0.000244772
0.000198366
0.000167744
0.00111353
0.000910354
0.000604586
0.000411444
0.000296954
0.000226782
0.000181795
0.000151621
0.000169344
0.000165205
0.000159763
0.000150568
0.000139535
0.000127977
0.000116229
0.000104232
0.000150054
0.000144276
0.000136952
0.000130353
0.000123051
0.000114458
0.000105438
9.59257e-05
0.000133073
0.000125328
0.000117975
0.000111241
0.000104003
9.63444e-05
8.86684e-05
8.10211e-05
0.000128133
0.000119654
0.00011152
0.000103948
9.60397e-05
8.82058e-05
8.06284e-05
7.34802e-05
0.000127039
0.000120219
0.000114137
0.000107865
0.00010144
9.43435e-05
8.69344e-05
7.94912e-05
0.000138394
0.000133751
0.000128431
0.000121962
0.000116633
0.000109386
0.000101222
9.2475e-05
0.000147693
0.000142076
0.000139329
0.000133949
0.000126066
0.000116962
0.000107172
9.67541e-05
0.000414376
0.00037289
0.00032703
0.000284151
0.000246785
0.000214806
0.000186942
0.000162005
0.000406235
0.000352859
0.000307773
0.00026934
0.000235989
0.00020739
0.00018247
0.000159768
0.000439472
0.000376016
0.000322316
0.000276937
0.000238406
0.000205028
0.000175777
0.000149937
0.000449045
0.000389554
0.000337031
0.000289754
0.000248298
0.00021195
0.000179732
0.00015111
0.000406338
0.000348445
0.00029897
0.0002574
0.000221976
0.000191537
0.000164855
0.000140995
0.000377748
0.000333713
0.000292892
0.000258724
0.00022739
0.000200222
0.000176414
0.000154753
0.000378559
0.000346308
0.000309521
0.000272777
0.000239492
0.000210116
0.000183885
0.000159962
0.00070851
0.000574959
0.000462958
0.000371486
0.000300839
0.000246903
0.000205145
0.000172195
0.000732082
0.00056452
0.000457869
0.00038309
0.000321854
0.00027149
0.000229809
0.000194696
0.000793986
0.000606335
0.000475977
0.000382332
0.000311212
0.000255772
0.000211728
0.000176081
0.000790892
0.000612109
0.000486183
0.000394653
0.000324461
0.000268401
0.000222244
0.000183589
0.000735263
0.000559647
0.000438913
0.000353235
0.000288526
0.000237485
0.000196268
0.000163073
0.000671171
0.000522173
0.000425029
0.000357324
0.000301185
0.000254745
0.000216383
0.000184216
0.00065629
0.00054112
0.000445529
0.000364456
0.000299489
0.000248442
0.000207957
0.000175349
0.00158603
0.00103343
0.000654493
0.000448304
0.0003308
0.000257139
0.000207106
0.000171262
0.00167921
0.00116007
0.000773447
0.000540307
0.000402587
0.000315296
0.000254554
0.000209114
0.00158594
0.00107172
0.000721471
0.000517395
0.000394682
0.000315485
0.000260768
0.000219907
0.00158115
0.00107415
0.000729886
0.000525651
0.000399244
0.000314624
0.000253503
0.000206536
0.00152311
0.00102532
0.000687659
0.000492178
0.000374581
0.00029757
0.000244237
0.000206243
0.00155675
0.00106573
0.000706758
0.000493559
0.000368903
0.000290519
0.000236541
0.000196434
0.00151054
0.000999646
0.000641052
0.000444032
0.000330965
0.000259522
0.0002105
0.000174934
0.00123134
0.0010006
0.000663109
0.000449366
0.00032324
0.000246358
0.00019685
0.000163196
0.00145704
0.00119173
0.000801094
0.000548682
0.000399405
0.00030776
0.000246703
0.000202796
0.00160657
0.00127067
0.000859285
0.000607526
0.000464195
0.00037736
0.000315414
0.000264916
0.0017478
0.0013823
0.00094626
0.000667785
0.000490931
0.000375081
0.000294712
0.00023629
0.00156071
0.00122948
0.000822557
0.000574922
0.000433693
0.000349157
0.000292374
0.000249148
0.00143406
0.00116972
0.000776502
0.000525734
0.000380171
0.00029308
0.000236231
0.00019576
0.00125938
0.0010263
0.000678003
0.000457739
0.000328737
0.000250747
0.000200753
0.00016678
0.000150999
0.000148869
0.000145775
0.000138382
0.00012853
0.000117698
0.000106636
9.54345e-05
0.000149295
0.000145078
0.000141767
0.000136483
0.000128077
0.000117864
0.000106851
9.56459e-05
0.000142936
0.000134438
0.000126964
0.000119773
0.000112229
0.000104259
9.62113e-05
8.75523e-05
0.000141952
0.000132409
0.00012316
0.000114536
0.000106193
9.77518e-05
8.92892e-05
8.09697e-05
0.000146714
0.000137812
0.000129788
0.000121924
0.000113835
0.000105562
9.70372e-05
8.78667e-05
0.000160987
0.000155583
0.000151852
0.000145032
0.000135223
0.000123784
0.000111871
9.99253e-05
0.000175134
0.000172907
0.000165617
0.000154446
0.000141578
0.000128521
0.000115735
0.000103167
0.000411395
0.000373429
0.000327984
0.000284296
0.000245646
0.000212203
0.000183042
0.00015727
0.000425563
0.000381582
0.000336659
0.000292283
0.000252031
0.000216621
0.000185644
0.000158182
0.000453306
0.000399307
0.000350035
0.00030707
0.000269552
0.000236388
0.000205495
0.000175697
0.000484452
0.000426224
0.000372807
0.000325603
0.000283661
0.000246138
0.000212195
0.000180841
0.00048054
0.00042213
0.000369809
0.000324656
0.000285522
0.000250206
0.000217202
0.000184852
0.000451282
0.00040185
0.0003522
0.000304561
0.00026191
0.000224935
0.000192891
0.00016477
0.000442646
0.000394229
0.000341646
0.000293385
0.000252043
0.000217183
0.000187352
0.000161283
0.000706405
0.000585233
0.000473631
0.000379163
0.000305261
0.000248518
0.000204579
0.000170088
0.00074719
0.000606875
0.000496477
0.000402239
0.000326166
0.000266399
0.000219571
0.000182662
0.000817469
0.000640862
0.000523188
0.000441812
0.000377701
0.000322495
0.0002757
0.000236977
0.000862739
0.000674358
0.000543433
0.000449625
0.000377074
0.00031805
0.000269179
0.000228499
0.000850349
0.000664211
0.000540785
0.000455541
0.000389944
0.000333282
0.000284308
0.000243188
0.000779646
0.000627606
0.000509672
0.000410896
0.000332347
0.000271352
0.000224068
0.000187102
0.000734813
0.000600685
0.000477095
0.000376472
0.000300465
0.000243661
0.000200623
0.000167387
0.00161709
0.00104752
0.000656635
0.000446749
0.000327618
0.000252811
0.000202032
0.00016585
0.00177565
0.00117192
0.000737335
0.000497364
0.000362403
0.000279536
0.000224308
0.000185534
0.00197439
0.0013796
0.000922495
0.000645801
0.00048048
0.000378301
0.000312544
0.000270094
0.00194841
0.00136338
0.000915271
0.000638804
0.000469367
0.000362231
0.00029228
0.000245433
0.00201399
0.00140984
0.00094447
0.000661831
0.000491075
0.000384377