/*--------------------------------*- C++ -*----------------------------------*\
| =========                 |                                                 |
| \\      /  F ield         | OpenFOAM: The Open Source CFD Toolbox           |
|  \\    /   O peration     | Version:  plus.master                           |
|   \\  /    A nd           | Web:      www.OpenFOAM.com                      |
|    \\/     M anipulation  |                                                 |
\*---------------------------------------------------------------------------*/
FoamFile
{
    version     2.0;
    format      ascii;
    class       volScalarField;
    location    "5.8";
    object      nut;
}
// * * * * * * * * * * * * * * * * * * * * * * * * * * * * * * * * * * * * * //

dimensions      [0 2 -1 0 0 0 0];

internalField   nonuniform List<scalar> 
47285
(
2.40226e-05
3.67884e-05
7.17409e-05
9.02006e-05
6.31946e-05
3.22239e-05
2.18823e-05
3.58381e-05
2.76774e-05
8.47008e-05
0.000104463
7.43917e-05
2.57313e-05
3.46907e-05
6.8177e-05
7.93762e-05
7.23869e-05
0.0001046
7.17688e-05
8.34436e-05
7.2104e-05
8.38903e-05
9.00975e-05
9.83415e-05
9.49831e-05
0.000106862
0.000105478
9.30681e-05
6.25914e-05
7.26975e-05
7.09704e-05
0.000110438
6.54665e-05
7.47785e-05
6.60401e-05
3.32983e-05
2.70397e-05
8.71755e-05
0.000102643
7.10828e-05
2.24295e-05
3.11283e-05
2.37691e-05
3.7891e-05
7.56673e-05
9.26074e-05
6.31304e-05
3.09156e-05
2.10337e-05
3.32326e-05
2.70606e-05
4.47982e-05
4.90012e-05
3.62514e-05
2.24737e-05
3.27021e-05
2.6414e-05
5.41147e-05
9.99846e-05
0.000116039
9.11662e-05
4.49802e-05
2.13443e-05
4.34414e-05
9.85828e-05
0.00010375
0.000177004
0.000109304
9.61056e-05
3.50283e-05
4.86107e-05
0.000109142
0.000188739
0.000191666
0.000165781
0.000127818
4.18285e-05
3.83493e-05
9.46178e-05
0.000111109
0.00016809
0.00011508
8.98621e-05
3.0368e-05
2.46899e-05
5.26471e-05
0.000106545
0.00013278
9.30614e-05
4.11723e-05
2.08607e-05
3.54367e-05
2.60634e-05
4.57118e-05
5.17883e-05
3.44506e-05
2.19077e-05
3.8524e-05
5.77091e-05
4.57158e-05
6.10716e-05
6.3609e-05
5.01573e-05
3.94171e-05
6.24644e-05
4.58287e-05
7.6629e-05
0.000114778
0.000127682
0.000100674
5.59594e-05
3.83568e-05
6.32195e-05
0.000118807
0.000153199
0.00022657
0.000145853
9.30713e-05
4.05655e-05
7.07564e-05
0.000138936
0.000225101
0.000226871
0.000205495
0.000122033
4.369e-05
5.82801e-05
0.000118398
0.00016423
0.000196064
0.000159735
9.01553e-05
3.69597e-05
4.34252e-05
7.33363e-05
0.000121869
0.00015177
0.000104341
5.06932e-05
4.02269e-05
6.33416e-05
4.31787e-05
5.8183e-05
6.56187e-05
4.55095e-05
4.01439e-05
7.31212e-05
9.96101e-05
6.98483e-05
7.78324e-05
7.99362e-05
6.54941e-05
6.87739e-05
0.000110983
7.03792e-05
9.62223e-05
0.000135641
0.000149265
0.000112425
6.76265e-05
7.15875e-05
8.08915e-05
0.000142958
0.000192192
0.000233327
0.000169683
9.31097e-05
5.39645e-05
9.02505e-05
0.000173678
0.000230941
0.000227539
0.000226056
0.000108614
4.84665e-05
7.53038e-05
0.00013973
0.000199905
0.000213837
0.000178003
8.91957e-05
5.27681e-05
7.04118e-05
8.82125e-05
0.000134282
0.000162697
0.000109979
6.13994e-05
7.92285e-05
0.000110692
6.96713e-05
6.90466e-05
7.4333e-05
5.84152e-05
7.61467e-05
0.000125414
0.000115537
8.11212e-05
8.52661e-05
8.84852e-05
7.35297e-05
8.46634e-05
0.000126487
8.11045e-05
0.000103577
0.00014749
0.000162877
0.000118582
7.36469e-05
8.89109e-05
8.62328e-05
0.000154971
0.000211543
0.000230442
0.000179656
9.25574e-05
6.34542e-05
9.63807e-05
0.00019375
0.000238443
0.000232614
0.000232691
0.000100541
5.30835e-05
7.97928e-05
0.000146549
0.000212279
0.000225217
0.000177854
8.63349e-05
6.38608e-05
8.26195e-05
9.0365e-05
0.000133542
0.000157511
0.000106982
6.7297e-05
9.85591e-05
0.000126536
8.30839e-05
7.208e-05
7.42439e-05
6.56115e-05
9.53006e-05
0.000138789
1.95911e-05
1.92486e-05
1.92131e-05
1.90385e-05
1.8806e-05
1.85867e-05
1.84175e-05
1.82764e-05
2.34198e-05
2.03167e-05
1.9443e-05
1.90473e-05
1.87262e-05
1.84399e-05
1.82275e-05
1.80506e-05
3.89643e-05
2.39543e-05
1.99435e-05
1.90881e-05
1.86941e-05
1.84297e-05
1.82058e-05
1.79606e-05
4.99456e-05
2.75615e-05
2.045e-05
1.89837e-05
1.85139e-05
1.81652e-05
1.79165e-05
1.76733e-05
3.54771e-05
2.28312e-05
1.98028e-05
1.9079e-05
1.86828e-05
1.8379e-05
1.81281e-05
1.78604e-05
2.14614e-05
1.9761e-05
1.9425e-05
1.90106e-05
1.86719e-05
1.83674e-05
1.81333e-05
1.79326e-05
1.94484e-05
1.94327e-05
1.92969e-05
1.90158e-05
1.87659e-05
1.8547e-05
1.83232e-05
1.81626e-05
5.63283e-05
7.10815e-05
7.64627e-05
7.8459e-05
7.91125e-05
7.92304e-05
7.90542e-05
7.85727e-05
3.22816e-05
5.84644e-05
7.20605e-05
7.714e-05
7.88492e-05
7.93268e-05
7.92857e-05
7.88498e-05
1.92215e-05
4.26042e-05
6.58277e-05
7.52573e-05
7.84018e-05
7.93083e-05
7.93481e-05
7.88877e-05
1.53638e-05
3.56067e-05
6.29949e-05
7.45158e-05
7.83199e-05
7.94359e-05
7.95581e-05
7.90898e-05
2.07793e-05
4.72838e-05
6.82634e-05
7.61945e-05
7.87693e-05
7.94669e-05
7.94331e-05
7.89464e-05
4.14278e-05
6.61224e-05
7.57331e-05
7.89361e-05
7.98865e-05
8.00459e-05
7.98416e-05
7.92978e-05
6.67843e-05
7.67698e-05
7.98019e-05
8.07858e-05
8.1033e-05
8.09707e-05
8.06822e-05
8.01031e-05
9.57719e-05
0.000112847
0.000118725
0.000119207
0.000116643
0.000112214
0.000106703
0.000100819
6.67021e-05
9.93926e-05
0.000114122
0.000118285
0.000117178
0.000113242
0.000107763
0.000101707
4.19417e-05
8.15053e-05
0.00010734
0.000116378
0.000117184
0.000113946
0.000108598
0.000102402
3.15997e-05
7.27476e-05
0.000104421
0.000115754
0.000117361
0.000114391
0.000109079
0.000102808
4.6093e-05
8.71839e-05
0.000110458
0.000118034
0.000118191
0.000114636
0.000109096
0.000102754
7.83059e-05
0.000107625
0.000118762
0.000121176
0.000119223
0.000114802
0.000108966
0.000102602
0.000107256
0.000120061
0.000123627
0.000122893
0.000119611
0.000114681
0.000108768
0.000102544
0.000144379
0.000155718
0.000156098
0.000151391
0.000144663
0.000137664
0.000131059
0.000124245
0.000118609
0.000147044
0.000154917
0.000152928
0.000146877
0.000139791
0.000132986
0.000126056
8.67661e-05
0.000132561
0.000151038
0.000153163
0.000148446
0.00014161
0.000134766
0.000127814
7.05717e-05
0.000125188
0.000149427
0.000153482
0.000149343
0.000142611
0.000135741
0.00012878
9.36814e-05
0.000138085
0.000154063
0.000154969
0.00014973
0.000142674
0.000135747
0.00012879
0.000130125
0.000154237
0.000159396
0.000156161
0.000149538
0.000142175
0.000135242
0.000128278
0.000154675
0.000162609
0.000161319
0.000155823
0.000148709
0.000141501
0.000134768
0.000127861
0.000146806
0.000145508
0.000135069
0.000121315
0.000106788
9.21885e-05
7.76291e-05
6.40384e-05
0.000131275
0.000144806
0.000139101
0.000125816
0.000110395
9.47229e-05
7.91607e-05
6.46522e-05
0.000104857
0.000137435
0.000140116
0.000129043
0.00011359
9.72745e-05
8.09287e-05
6.56168e-05
9.00535e-05
0.000132933
0.000140336
0.000130504
0.000115112
9.85201e-05
8.18196e-05
6.61422e-05
0.000111613
0.000141568
0.000142195
0.000130245
0.000114389
9.78391e-05
8.13229e-05
6.58735e-05
0.000140428
0.000149843
0.000142065
0.000127773
0.000111733
9.56065e-05
7.96958e-05
6.49356e-05
0.000153819
0.000149955
0.00013812
0.000123384
0.000108022
9.27121e-05
7.76191e-05
6.37185e-05
2.10558e-05
2.08383e-05
2.07587e-05
2.05881e-05
2.03718e-05
2.02251e-05
2.01038e-05
2.00024e-05
2.29387e-05
2.07304e-05
2.04892e-05
2.02023e-05
1.98476e-05
1.97258e-05
1.96387e-05
1.95877e-05
3.40949e-05
2.34872e-05
2.0931e-05
2.03911e-05
2.00548e-05
1.96209e-05
1.92994e-05
1.904e-05
4.50967e-05
2.71004e-05
2.16237e-05
2.04669e-05
2.00246e-05
1.96062e-05
1.92507e-05
1.89361e-05
3.78653e-05
2.51926e-05
2.15739e-05
2.05247e-05
2.01491e-05
1.9845e-05
1.94844e-05
1.92155e-05
2.45505e-05
2.15771e-05
2.08121e-05
2.03675e-05
2.01754e-05
2.0136e-05
1.99778e-05
1.97591e-05
2.12175e-05
2.10481e-05
2.09712e-05
2.07555e-05
2.05913e-05
2.04756e-05
2.0344e-05
2.02478e-05
6.74868e-05
8.03926e-05
8.40281e-05
8.51254e-05
8.52573e-05
8.49203e-05
8.42198e-05
8.31039e-05
3.9016e-05
6.66433e-05
7.94789e-05
8.42063e-05
8.57927e-05
8.61241e-05
8.5759e-05
8.49626e-05
2.27686e-05
4.5543e-05
6.99254e-05
8.07859e-05
8.47634e-05
8.61677e-05
8.65137e-05
8.62902e-05
2.02391e-05
3.3226e-05
6.18062e-05
7.66349e-05
8.20174e-05
8.37409e-05
8.41035e-05
8.37887e-05
2.25385e-05
4.07182e-05
6.66348e-05
7.93139e-05
8.42028e-05
8.60034e-05
8.65917e-05
8.65404e-05
3.4925e-05
6.22902e-05
7.74938e-05
8.36056e-05
8.58897e-05
8.65436e-05
8.64323e-05
8.5799e-05
6.32237e-05
7.82703e-05
8.27317e-05
8.41968e-05
8.44774e-05
8.41708e-05
8.34714e-05
8.23566e-05
0.000105435
0.000123571
0.000128386
0.000127821
0.000124119
0.000118362
0.000111348
0.000103866
6.7724e-05
0.000106101
0.000123216
0.000128004
0.000126836
0.000122372
0.000115959
0.000108658
4.098e-05
7.65595e-05
0.000110748
0.000124853
0.00012803
0.000125967
0.00012111
0.000114869
3.45478e-05
5.65547e-05
9.89569e-05
0.000120231
0.000126522
0.00012591
0.000121932
0.000116327
3.97448e-05
6.99841e-05
0.000106568
0.000123061
0.000127362
0.000125837
0.00012129
0.000115262
6.06408e-05
9.91313e-05
0.000119629
0.000126317
0.000126072
0.000122108
0.000116017
0.000108937
9.77316e-05
0.000119305
0.000125709
0.000125914
0.000122649
0.000117179
0.000110366
0.000103017
0.000153315
0.000166818
0.000166704
0.000161005
0.000153058
0.00014474
0.00013682
0.000128745
0.000115262
0.000153867
0.000165384
0.000164118
0.000157595
0.000149543
0.000141668
0.000133776
7.26899e-05
0.000124174
0.000156282
0.000164368
0.000161605
0.000155161
0.000148293
0.000141471
5.61617e-05
9.89538e-05
0.000145429
0.000161683
0.000162122
0.000156977
0.00015086
0.000144814
6.8789e-05
0.000116962
0.000152574
0.000162859
0.000160992
0.000154895
0.000148153
0.00014135
0.000104674
0.000146475
0.000161761
0.000162234
0.000156399
0.000148584
0.000140742
0.000132769
0.000144576
0.000162028
0.000163651
0.00015871
0.000151055
0.000142805
0.000134854
0.000126716
0.000155741
0.000155737
0.00014405
0.0001283
0.000111519
9.47395e-05
7.83067e-05
6.33331e-05
0.000129996
0.000153749
0.00015021
0.000136038
0.00011859
0.000100563
8.26562e-05
6.60597e-05
8.69429e-05
0.000134552
0.000149718
0.00014151
0.000125092
0.000106549
8.75253e-05
6.94796e-05
6.57765e-05
0.00011292
0.000144293
0.00014236
0.000127625
0.000109615
9.09274e-05
7.30553e-05
8.25954e-05
0.000129153
0.000147506
0.000140653
0.000124669
0.000106282
8.73422e-05
6.93548e-05
0.000120258
0.000148752
0.000148171
0.000135075
0.000118037
0.000100208
8.24259e-05
6.59175e-05
0.000149648
0.000153088
0.000142812
0.000127782
0.000111481
9.50498e-05
7.88175e-05
6.38788e-05
2.1097e-05
2.08311e-05
2.07214e-05
2.04723e-05
2.02451e-05
2.00443e-05
1.98297e-05
1.96472e-05
2.47723e-05
2.11844e-05
2.03305e-05
1.98889e-05
1.94945e-05
1.91896e-05
1.88916e-05
1.86184e-05
4.00749e-05
2.5813e-05
2.13382e-05
2.02176e-05
1.95407e-05
1.88026e-05
1.82277e-05
1.77827e-05
4.86097e-05
2.8185e-05
2.12293e-05
1.94717e-05
1.88652e-05
1.83796e-05
1.79301e-05
1.74975e-05
3.47181e-05
2.30878e-05
1.99748e-05
1.92869e-05
1.88061e-05
1.82455e-05
1.77694e-05
1.73548e-05
2.21631e-05
1.97714e-05
1.92327e-05
1.89311e-05
1.86413e-05
1.8308e-05
1.80789e-05
1.79164e-05
1.95076e-05
1.92875e-05
1.93373e-05
1.92248e-05
1.90388e-05
1.88332e-05
1.86647e-05
1.84495e-05
6.26238e-05
7.69309e-05
8.106e-05
8.22107e-05
8.22115e-05
8.17331e-05
8.1025e-05
8.00987e-05
3.6159e-05
6.11608e-05
7.44048e-05
7.93457e-05
8.06636e-05
8.04254e-05
7.94913e-05
7.82114e-05
2.43889e-05
3.98346e-05
6.20863e-05
7.29709e-05
7.66456e-05
7.7269e-05
7.66096e-05
7.53263e-05
2.18144e-05
3.19187e-05
5.57644e-05
6.86057e-05
7.30849e-05
7.38987e-05
7.31997e-05
7.18271e-05
2.31626e-05
4.34452e-05
6.39587e-05
7.30164e-05
7.58857e-05
7.62147e-05
7.54582e-05
7.41846e-05
3.83159e-05
6.22669e-05
7.29469e-05
7.67777e-05
7.7762e-05
7.75552e-05
7.68671e-05
7.58322e-05
6.04017e-05
7.2352e-05
7.64361e-05
7.77657e-05
7.79732e-05
7.77591e-05
7.73762e-05
7.68379e-05
9.57485e-05
0.000117369
0.000124294
0.000125002
0.000122269
0.000117346
0.000111044
0.000104126
5.95687e-05
9.54293e-05
0.000115449
0.000122637
0.000123274
0.000120335
0.000115234
0.000108947
3.97557e-05
6.57185e-05
9.86197e-05
0.000114883
0.000120162
0.000119843
0.000116462
0.00011138
3.35998e-05
5.19311e-05
8.85082e-05
0.000108758
0.000115984
0.000116578
0.000113695
0.000108935
3.94819e-05
7.09884e-05
0.000100682
0.000114264
0.000118346
0.000117484
0.000113801
0.000108525
6.58447e-05
9.85657e-05
0.000113869
0.000119134
0.000119178
0.000116179
0.000111262
0.000105284
9.67813e-05
0.000113276
0.000118955
0.000119612
0.000117281
0.000113012
0.000107527
0.000101515
0.00014224
0.000160863
0.000163603
0.000159485
0.000152419
0.000144602
0.000137044
0.0001294
0.000100971
0.000141991
0.000159329
0.000162178
0.000158282
0.000151868
0.000145161
0.000138557
6.65266e-05
0.000109381
0.000144954
0.000158373
0.000159487
0.000155198
0.00014913
0.000142423
5.36042e-05
9.08392e-05
0.000134418
0.000153344
0.000157082
0.000153992
0.000148452
0.000141984
7.01672e-05
0.000115787
0.000146155
0.000156685
0.000156662
0.00015197
0.000145777
0.000139011
0.000111553
0.000144738
0.000156611
0.000157468
0.000153051
0.000146656
0.000140133
0.000133689
0.000144094
0.000156544
0.000157559
0.000153332
0.000146828
0.000139856
0.000133226
0.000126484
0.000149305
0.000153786
0.000144098
0.000129534
0.000113756
9.78973e-05
8.20899e-05
6.71687e-05
0.000117839
0.000148293
0.000150718
0.000139731
0.000124101
0.000107409
9.05287e-05
7.42014e-05
8.11007e-05
0.000125203
0.000147706
0.000145011
0.000131201
0.000113874
9.56691e-05
7.81869e-05
6.5901e-05
0.000108662
0.000141713
0.000144328
0.000132262
0.000115419
9.74771e-05
8.03269e-05
8.70497e-05
0.000130115
0.000146986
0.000142291
0.000128239
0.000111289
9.36598e-05
7.67504e-05
0.000127336
0.000148044
0.00014625
0.000134556
0.000119459
0.000103723
8.78483e-05
7.26204e-05
0.00014819
0.000147807
0.000137512
0.00012381
0.000109395
9.49793e-05
8.05224e-05
6.67902e-05
1.97205e-05
1.97035e-05
1.96099e-05
1.93973e-05
1.91876e-05
1.90123e-05
1.8833e-05
1.86121e-05
2.23634e-05
2.04048e-05
1.98202e-05
1.94284e-05
1.9082e-05
1.88447e-05
1.86888e-05
1.85079e-05
3.58758e-05
2.40583e-05
2.07542e-05
1.99616e-05
1.94858e-05
1.90424e-05
1.86518e-05
1.83006e-05
5.12241e-05
2.94791e-05
2.21504e-05
2.05283e-05
1.99192e-05
1.94128e-05
1.89209e-05
1.84497e-05
4.32084e-05
2.72334e-05
2.20386e-05
2.07305e-05
2.01039e-05
1.9607e-05
1.91265e-05
1.86721e-05
2.62924e-05
2.22634e-05
2.08842e-05
2.03835e-05
1.99941e-05
1.96847e-05
1.94449e-05
1.91681e-05
2.13807e-05
2.10314e-05
2.07844e-05
2.05152e-05
2.026e-05
2.00716e-05
1.99298e-05
1.98121e-05
6.82615e-05
7.75155e-05
8.02452e-05
8.11165e-05
8.12975e-05
8.12163e-05
8.09643e-05
8.04706e-05
4.41047e-05
6.80874e-05
7.73905e-05
8.07532e-05
8.18035e-05
8.19444e-05
8.16672e-05
8.10896e-05
2.33792e-05
4.8548e-05
6.96239e-05
7.83223e-05
8.12553e-05
8.19071e-05
8.16479e-05
8.0936e-05
1.99473e-05
3.47701e-05
6.21714e-05
7.53353e-05
7.97931e-05
8.07296e-05
8.03137e-05
7.9309e-05
2.32206e-05
4.20196e-05
6.64927e-05
7.78345e-05
8.18109e-05
8.27839e-05
8.25641e-05
8.18143e-05
3.7495e-05
6.47243e-05
7.78778e-05
8.28032e-05
8.43148e-05
8.44554e-05
8.39998e-05
8.32002e-05
6.76403e-05
8.05978e-05
8.38996e-05
8.49091e-05
8.50198e-05
8.46998e-05
8.40539e-05
8.30352e-05
0.000107749
0.000120808
0.00012469
0.000124294
0.000121228
0.000116358
0.000110347
0.000103892
7.76551e-05
0.000108934
0.000121496
0.000125226
0.000124256
0.000120393
0.000114646
0.000107914
4.25353e-05
8.30599e-05
0.00011148
0.000122962
0.000125825
0.000124198
0.000119882
0.000113999
3.08359e-05
6.05255e-05
0.000100705
0.000119239
0.000125095
0.000124905
0.000121454
0.000116173
3.90834e-05
7.42956e-05
0.000108097
0.000122734
0.000126842
0.000125735
0.000121692
0.00011597
6.62278e-05
0.000103838
0.000121603
0.000127271
0.000126869
0.000123026
0.000117057
0.000109981
0.000104513
0.000122914
0.000128108
0.000127884
0.000124487
0.000118985
0.000112157
0.000104785
0.000155657
0.000164447
0.000163659
0.000158501
0.00015153
0.000144301
0.000137437
0.000130339
0.000128521
0.000157051
0.000165087
0.0001638
0.000158292
0.000151458
0.000144772
0.000138012
8.16899e-05
0.000133816
0.00015924
0.000165931
0.00016403
0.000159013
0.000153577
0.000148273
5.4588e-05
0.000108378
0.00015019
0.000164362
0.000165387
0.000161415
0.000156292
0.000151121
7.27302e-05
0.000125809
0.00015727
0.000166526
0.00016546
0.000160699
0.000155323
0.000150089
0.000114781
0.000153275
0.000166136
0.00016634
0.000161052
0.00015398
0.000146931
0.000139837
0.000152547
0.000166705
0.000167254
0.000162037
0.000154429
0.000146338
0.000138572
0.000130628
0.00015557
0.000152184
0.000140456
0.000125672
0.000110109
9.44863e-05
7.8968e-05
6.45554e-05
0.000141619
0.000155729
0.000150216
0.000136715
0.000120453
0.000103404
8.59788e-05
6.92787e-05
0.000102191
0.000144711
0.000153884
0.000145186
0.000129785
0.000112356
9.41007e-05
7.6084e-05
7.11134e-05
0.000126708
0.000151393
0.000147851
0.000133681
0.000116579
9.86291e-05
8.10419e-05
9.16501e-05
0.000139705
0.000153949
0.000146647
0.000131316
0.000113631
9.50137e-05
7.6593e-05
0.000131263
0.000155164
0.000152859
0.000139724
0.000122932
0.000105123
8.69149e-05
6.95008e-05
0.000155641
0.000156196
0.000144916
0.000129399
0.000112726
9.59502e-05
7.9416e-05
6.4219e-05
1.81255e-05
1.78753e-05
1.77283e-05
1.73934e-05
1.75962e-05
1.77382e-05
1.80262e-05
7.77335e-05
7.80194e-05
7.80009e-05
7.81592e-05
7.80357e-05
7.83806e-05
7.91389e-05
9.52806e-05
9.61025e-05
9.66707e-05
9.70102e-05
9.69117e-05
9.67463e-05
9.67304e-05
0.000115529
0.000117012
0.000118616
0.000119547
0.000119629
0.000119259
0.000119045
5.2177e-05
5.17875e-05
5.18764e-05
5.20013e-05
5.19878e-05
5.18657e-05
5.17495e-05
1.99077e-05
1.96074e-05
1.88281e-05
1.86432e-05
1.89915e-05
1.96655e-05
2.01613e-05
8.14807e-05
8.3677e-05
8.561e-05
8.30157e-05
8.59831e-05
8.46822e-05
8.07428e-05
9.67175e-05
0.000101684
0.000108801
0.000110771
0.000109341
0.000102091
9.59428e-05
0.000118791
0.00012387
0.000132629
0.000136954
0.00013246
0.000122713
0.00011672
5.08284e-05
5.17888e-05
5.34567e-05
5.65405e-05
5.33904e-05
5.17679e-05
5.13237e-05
1.94798e-05
1.8367e-05
1.7408e-05
1.71024e-05
1.69936e-05
1.76518e-05
1.82282e-05
7.89013e-05
7.67275e-05
7.37818e-05
7.02218e-05
7.26843e-05
7.46268e-05
7.6099e-05
9.73973e-05
0.000102654
0.000106022
0.000103838
0.000103044
9.93343e-05
9.57093e-05
0.000120049
0.000130678
0.00013421
0.000133944
0.000130712
0.000125852
0.000117978
5.39543e-05
5.86007e-05
6.11975e-05
6.34364e-05
6.03034e-05
5.79253e-05
5.42868e-05
1.83854e-05
1.82954e-05
1.79943e-05
1.80104e-05
1.82789e-05
1.89593e-05
1.97069e-05
7.96236e-05
8.02081e-05
7.99706e-05
7.80788e-05
8.0803e-05
8.21348e-05
8.15415e-05
9.77377e-05
0.000101372
0.000108004
0.000110656
0.000110049
0.000103055
9.76872e-05
0.000121241
0.000129089
0.000141259
0.000144383
0.000143187
0.000130658
0.000120764
5.21126e-05
5.4304e-05
5.87782e-05
6.36526e-05
5.88832e-05
5.40729e-05
5.14064e-05
1.79903e-05
1.78405e-05
1.75522e-05
1.71023e-05
1.65111e-05
1.58307e-05
1.50872e-05
1.42739e-05
1.77635e-05
1.75573e-05
1.7206e-05
1.67352e-05
1.61379e-05
1.54546e-05
1.47093e-05
1.38983e-05
1.75981e-05
1.74065e-05
1.70707e-05
1.65069e-05
1.58749e-05
1.51973e-05
1.4463e-05
1.3667e-05
1.72666e-05
1.72026e-05
1.69982e-05
1.65484e-05
1.58699e-05
1.51032e-05
1.434e-05
1.35498e-05
1.74263e-05
1.72333e-05
1.69592e-05
1.63944e-05
1.57624e-05
1.50947e-05
1.43698e-05
1.35839e-05
1.76054e-05
1.73538e-05
1.7018e-05
1.65429e-05
1.59486e-05
1.52691e-05
1.45314e-05
1.37331e-05
1.78749e-05
1.77259e-05
1.74397e-05
1.69539e-05
1.63277e-05
1.56196e-05
1.48607e-05
1.40465e-05
7.62064e-05
7.34319e-05
7.05995e-05
6.75424e-05
6.36721e-05
5.8786e-05
5.29762e-05
4.64172e-05
7.65291e-05
7.37922e-05
7.07608e-05
6.73931e-05
6.32365e-05
5.8137e-05
5.22062e-05
4.56263e-05
7.64645e-05
7.3752e-05
7.04145e-05
6.68402e-05
6.25783e-05
5.74613e-05
5.15812e-05
4.5094e-05
7.65737e-05
7.38271e-05
7.04848e-05
6.6702e-05
6.22611e-05
5.70825e-05
5.12238e-05
4.47998e-05
7.64581e-05
7.3719e-05
7.02085e-05
6.65339e-05
6.22364e-05
5.71347e-05
5.13009e-05
4.48768e-05
7.6755e-05
7.38159e-05
7.04546e-05
6.68839e-05
6.26353e-05
5.7529e-05
5.16504e-05
4.51641e-05
7.73763e-05
7.41225e-05
7.08638e-05
6.75201e-05
6.34583e-05
5.84519e-05
5.25903e-05
4.60531e-05
8.9272e-05
8.32448e-05
8.16362e-05
7.96965e-05
7.57576e-05
6.97668e-05
6.22759e-05
5.38682e-05
9.02966e-05
8.44187e-05
8.25311e-05
8.01927e-05
7.5847e-05
6.95111e-05
6.17676e-05
5.32175e-05
9.08911e-05
8.50546e-05
8.27599e-05
8.01059e-05
7.55389e-05
6.90804e-05
6.1296e-05
5.2765e-05
9.1215e-05
8.54097e-05
8.28489e-05
8.00028e-05
7.52966e-05
6.87609e-05
6.09576e-05
5.24507e-05
9.10179e-05
8.51044e-05
8.255e-05
7.9783e-05
7.51816e-05
6.87347e-05
6.09902e-05
5.25169e-05
9.06695e-05
8.45457e-05
8.21945e-05
7.96242e-05
7.51711e-05
6.88045e-05
6.10875e-05
5.26127e-05
9.03862e-05
8.39459e-05
8.18712e-05
7.96219e-05
7.54763e-05
6.93381e-05
6.1754e-05
5.33285e-05
0.000103894
9.07975e-05
8.36735e-05
8.09062e-05
7.76945e-05
7.23079e-05
6.50489e-05
5.66819e-05
0.000105404
9.22576e-05
8.49718e-05
8.1943e-05
7.83443e-05
7.25179e-05
6.48481e-05
5.61653e-05
0.000106893
9.33712e-05
8.55822e-05
8.21412e-05
7.82521e-05
7.22287e-05
6.44389e-05
5.57022e-05
0.000107721
9.39133e-05
8.57842e-05
8.20946e-05
7.80525e-05
7.19381e-05
6.41055e-05
5.53642e-05
0.000107743
9.37561e-05
8.55045e-05
8.18186e-05
7.7854e-05
7.18251e-05
6.40611e-05
5.53707e-05
0.000107305
9.32128e-05
8.49922e-05
8.14285e-05
7.75988e-05
7.16714e-05
6.39727e-05
5.53265e-05
0.000106922
9.25817e-05
8.43306e-05
8.09296e-05
7.73691e-05
7.17148e-05
6.42344e-05
5.57427e-05
6.72224e-05
7.67644e-05
7.69779e-05
7.67983e-05
7.50744e-05
7.08832e-05
6.46919e-05
5.73456e-05
6.81954e-05
7.81685e-05
7.85702e-05
7.83164e-05
7.62543e-05
7.15484e-05
6.47967e-05
5.69753e-05
6.90099e-05
7.90413e-05
7.91948e-05
7.86161e-05
7.62565e-05
7.13155e-05
6.4397e-05
5.64793e-05
6.94226e-05
7.94202e-05
7.94083e-05
7.8651e-05
7.61454e-05
7.11009e-05
6.4119e-05
5.61714e-05
6.92889e-05
7.91584e-05
7.91027e-05
7.83663e-05
7.59158e-05
7.09323e-05
6.40062e-05
5.61091e-05
6.88971e-05
7.86377e-05
7.8614e-05
7.79863e-05
7.56436e-05
7.07371e-05
6.38652e-05
5.60148e-05
6.80951e-05
7.75103e-05
7.74766e-05
7.70286e-05
7.49559e-05
7.03279e-05
6.37023e-05
5.60623e-05
1.98392e-05
1.96551e-05
1.91927e-05
1.85006e-05
1.76979e-05
1.6852e-05
1.59822e-05
1.50844e-05
1.95106e-05
1.9366e-05
1.90432e-05
1.84347e-05
1.76536e-05
1.6807e-05
1.5902e-05
1.49773e-05
1.86192e-05
1.8245e-05
1.78486e-05
1.74324e-05
1.6851e-05
1.619e-05
1.54118e-05
1.45231e-05
1.83733e-05
1.78533e-05
1.72845e-05
1.66621e-05
1.59556e-05
1.52716e-05
1.45704e-05
1.37828e-05
1.87549e-05
1.8344e-05
1.79304e-05
1.75255e-05
1.69777e-05
1.63347e-05
1.56033e-05
1.47302e-05
1.96553e-05
1.95821e-05
1.92689e-05
1.86555e-05
1.78997e-05
1.70618e-05
1.61394e-05
1.51818e-05
2.00775e-05
1.98318e-05
1.93629e-05
1.86824e-05
1.78958e-05
1.70576e-05
1.61837e-05
1.52692e-05
7.8794e-05
7.51377e-05
7.24154e-05
6.96856e-05
6.59936e-05
6.10725e-05
5.5085e-05
4.82773e-05
8.15048e-05
7.79294e-05
7.44531e-05
7.08073e-05
6.63713e-05
6.08682e-05
5.44604e-05
4.73694e-05
8.40852e-05
8.14946e-05
7.79853e-05
7.36687e-05
6.88639e-05
6.35549e-05
5.77066e-05
5.13858e-05
8.14443e-05
7.88242e-05
7.5341e-05
7.10709e-05
6.61312e-05
6.06487e-05
5.45269e-05
4.82209e-05
8.4618e-05
8.23246e-05
7.91365e-05
7.501e-05
7.01573e-05
6.47927e-05
5.88449e-05
5.23885e-05
8.26578e-05
7.9248e-05
7.5847e-05
7.22207e-05
6.76977e-05
6.20591e-05
5.54719e-05
4.81916e-05
7.81247e-05
7.48071e-05
7.24233e-05
6.99315e-05
6.63631e-05
6.14849e-05
5.54717e-05
4.85874e-05
8.88273e-05
8.21814e-05
8.04176e-05
7.87175e-05
7.51895e-05
6.95144e-05
6.21971e-05
5.38945e-05
9.41367e-05
8.61887e-05
8.31792e-05
8.03291e-05
7.57981e-05
6.94261e-05
6.1737e-05
5.33219e-05
0.000102147
9.57987e-05
9.06948e-05
8.62126e-05
8.06596e-05
7.40904e-05
6.69812e-05
5.97036e-05
0.000104571
9.88578e-05
9.3929e-05
8.8271e-05
8.19655e-05
7.51384e-05
6.80004e-05
6.07842e-05
0.000102808
9.65336e-05
9.16295e-05
8.71591e-05
8.15048e-05
7.47626e-05
6.74467e-05
6.00129e-05
9.46591e-05
8.69102e-05
8.41975e-05
8.15194e-05
7.70798e-05
7.07222e-05
6.2971e-05
5.44285e-05
8.81439e-05
8.19891e-05
8.05115e-05
7.90515e-05
7.57042e-05
7.01527e-05
6.28982e-05
5.45841e-05
0.00010563
9.04775e-05
8.19726e-05
7.87271e-05
7.55478e-05
7.0282e-05
6.31409e-05
5.49748e-05
0.000110712
9.48772e-05
8.50915e-05
8.03247e-05
7.57194e-05
6.94236e-05
6.17882e-05
5.36285e-05
0.00012007
0.000104053
9.27196e-05
8.56789e-05
7.89586e-05
7.16074e-05
6.42779e-05
5.74203e-05
0.000125645
0.000110208
9.83836e-05
9.00873e-05
8.27557e-05
7.57736e-05
6.92722e-05
6.29253e-05
0.000119853
0.000104048
9.3067e-05
8.63035e-05
7.96238e-05
7.20718e-05
6.43802e-05
5.71529e-05
0.00010967
9.44754e-05
8.54849e-05
8.1336e-05
7.71316e-05
7.10375e-05
6.3423e-05
5.51292e-05
0.000103775
8.94366e-05
8.17203e-05
7.89578e-05
7.61129e-05
7.1138e-05
6.42226e-05
5.61666e-05
6.53352e-05
7.44581e-05
7.4632e-05
7.45262e-05
7.27735e-05
6.83826e-05
6.1989e-05
5.4648e-05
6.70308e-05
7.62406e-05
7.58044e-05
7.45092e-05
7.13552e-05
6.58558e-05
5.89405e-05
5.16282e-05
7.07542e-05
8.04386e-05
7.86678e-05
7.47962e-05
6.8982e-05
6.22725e-05
5.60039e-05
5.05816e-05
7.68857e-05
8.79865e-05
8.67308e-05
8.31979e-05
7.88309e-05
7.43927e-05
6.94745e-05
6.38314e-05
7.07812e-05
8.06921e-05
7.93348e-05
7.594e-05
7.03645e-05
6.34395e-05
5.66676e-05
5.07065e-05
6.66748e-05
7.60952e-05
7.62162e-05
7.55902e-05
7.30434e-05
6.7928e-05
6.10881e-05
5.35537e-05
6.47761e-05
7.38053e-05
7.42152e-05
7.44621e-05
7.31671e-05
6.92868e-05
6.33298e-05
5.62403e-05
1.92867e-05
1.90471e-05
1.87309e-05
1.81837e-05
1.75045e-05
1.67634e-05
1.59748e-05
1.51271e-05
1.81516e-05
1.77976e-05
1.73403e-05
1.69158e-05
1.6436e-05
1.5852e-05
1.52145e-05
1.45116e-05
1.70894e-05
1.6584e-05
1.60899e-05
1.56236e-05
1.51068e-05
1.45398e-05
1.39483e-05
1.33329e-05
1.67665e-05
1.62015e-05
1.564e-05
1.5099e-05
1.4513e-05
1.39083e-05
1.32973e-05
1.26934e-05
1.66989e-05
1.62437e-05
1.58273e-05
1.53863e-05
1.49209e-05
1.43893e-05
1.38123e-05
1.32072e-05
1.74334e-05
1.71369e-05
1.6793e-05
1.63629e-05
1.60022e-05
1.54972e-05
1.49075e-05
1.42482e-05
1.80114e-05
1.76651e-05
1.74912e-05
1.71503e-05
1.66379e-05
1.60254e-05
1.53395e-05
1.45742e-05
7.68916e-05
7.3657e-05
7.06321e-05
6.76136e-05
6.38471e-05
5.90674e-05
5.33404e-05
4.68049e-05
7.44719e-05
7.14737e-05
6.83721e-05
6.45233e-05
5.98588e-05
5.47393e-05
4.91837e-05
4.31255e-05
7.13639e-05
6.7799e-05
6.3887e-05
5.95019e-05
5.47601e-05
4.97321e-05
4.44697e-05
3.90256e-05
6.77828e-05
6.41343e-05
6.0122e-05
5.55711e-05
5.07159e-05
4.56869e-05
4.05302e-05
3.52989e-05
7.03441e-05
6.68469e-05
6.29555e-05
5.86426e-05
5.39428e-05
4.89889e-05
4.37812e-05
3.8297e-05
7.27428e-05
7.02128e-05
6.71752e-05
6.36677e-05
5.90435e-05
5.39215e-05
4.83764e-05
4.23712e-05
7.47873e-05
7.29039e-05
6.99722e-05
6.66364e-05
6.26269e-05
5.77705e-05
5.21089e-05
4.57368e-05
8.988e-05
8.22893e-05
7.96913e-05
7.75603e-05
7.3861e-05
6.83023e-05
6.13185e-05
5.3418e-05
9.55003e-05
8.8583e-05
8.34439e-05
7.83895e-05
7.29476e-05
6.65433e-05
5.93305e-05
5.15635e-05
9.95008e-05
9.19573e-05
8.51497e-05
7.7884e-05
6.9998e-05
6.17287e-05
5.33173e-05
4.49072e-05
9.75414e-05
8.99742e-05
8.29858e-05
7.57171e-05
6.81259e-05
6.04094e-05
5.27164e-05
4.51443e-05
9.65394e-05
8.92304e-05
8.27075e-05
7.57093e-05
6.80718e-05
5.99322e-05
5.1528e-05
4.31055e-05
9.26747e-05
8.63859e-05
8.16806e-05
7.67075e-05
7.11946e-05
6.47e-05
5.74645e-05
4.97726e-05
8.93084e-05
8.31459e-05
8.04559e-05
7.80181e-05
7.39215e-05
6.80324e-05
6.08391e-05
5.28336e-05
0.000107172
9.21325e-05
8.31549e-05
7.90713e-05
7.53962e-05
7.02037e-05
6.35527e-05
5.5987e-05
0.000119845
0.000104728
9.3454e-05
8.59474e-05
7.92992e-05
7.1998e-05
6.40669e-05
5.58469e-05
0.000123226
0.000108378
9.69456e-05
8.74832e-05
7.76587e-05
6.74192e-05
5.74686e-05
4.82678e-05
0.000123342
0.000108927
9.75439e-05
8.79865e-05
7.83986e-05
6.86952e-05
5.92876e-05
5.03758e-05
0.000119726
0.000105164
9.41647e-05
8.51878e-05
7.57497e-05
6.57181e-05
5.59902e-05
4.71789e-05
0.000115234
0.000100509
8.97968e-05
8.2728e-05
7.62995e-05
6.91377e-05
6.14151e-05
5.34934e-05
0.00010597
9.19975e-05
8.35771e-05
7.96302e-05
7.57903e-05
7.03282e-05
6.3436e-05
5.56856e-05
6.84051e-05
7.73186e-05
7.63077e-05
7.49669e-05
7.26542e-05
6.85807e-05
6.30618e-05
5.6652e-05
7.86466e-05
8.90737e-05
8.63263e-05
8.22348e-05
7.72333e-05
7.09884e-05
6.39849e-05
5.67217e-05
9.04483e-05
0.000100163
9.56764e-05
8.94974e-05
8.20111e-05
7.37329e-05
6.52987e-05
5.68899e-05
9.86436e-05
0.000108346
0.000102538
9.43619e-05
8.4778e-05
7.4709e-05
6.48157e-05
5.54457e-05
8.78408e-05
9.71652e-05
9.25194e-05
8.62946e-05
7.87876e-05
7.05546e-05
6.24406e-05
5.46508e-05
7.73419e-05
8.75937e-05
8.44992e-05
8.0237e-05
7.51664e-05
6.89336e-05
6.20436e-05
5.49952e-05
6.95311e-05
7.88686e-05
7.76018e-05
7.58826e-05
7.31811e-05
6.87662e-05
6.30044e-05
5.64438e-05
1.82145e-05
1.80833e-05
1.78945e-05
1.74344e-05
1.68016e-05
1.60773e-05
1.53022e-05
1.44752e-05
1.81086e-05
1.78501e-05
1.76432e-05
1.73121e-05
1.67708e-05
1.60881e-05
1.53174e-05
1.44912e-05
1.77132e-05
1.71786e-05
1.66942e-05
1.62143e-05
1.5695e-05
1.51268e-05
1.45294e-05
1.38596e-05
1.76481e-05
1.70436e-05
1.64369e-05
1.58501e-05
1.52612e-05
1.46417e-05
1.39931e-05
1.33249e-05
1.79446e-05
1.73917e-05
1.68776e-05
1.63582e-05
1.58059e-05
1.52203e-05
1.45923e-05
1.38853e-05
1.88048e-05
1.84857e-05
1.82603e-05
1.78465e-05
1.72329e-05
1.64879e-05
1.56741e-05
1.4813e-05
1.96169e-05
1.9492e-05
1.90759e-05
1.84204e-05
1.76355e-05
1.68017e-05
1.59431e-05
1.50517e-05
7.80047e-05
7.50065e-05
7.17389e-05
6.83827e-05
6.42923e-05
5.92151e-05
5.3245e-05
4.65737e-05
7.86001e-05
7.60979e-05
7.26951e-05
6.87983e-05
6.43155e-05
5.90153e-05
5.29287e-05
4.61642e-05
7.82325e-05
7.57391e-05
7.27545e-05
6.93131e-05
6.53661e-05
6.08253e-05
5.54519e-05
4.91916e-05
7.60628e-05
7.3086e-05
6.96467e-05
6.57174e-05
6.12696e-05
5.63386e-05
5.09495e-05
4.50699e-05
7.90248e-05
7.65158e-05
7.36253e-05
7.03277e-05
6.65452e-05
6.21077e-05
5.68167e-05
5.03974e-05
8.02565e-05
7.74524e-05
7.39033e-05
7.00747e-05
6.56552e-05
6.03767e-05
5.42438e-05
4.73839e-05