/*--------------------------------*- C++ -*----------------------------------*\
| =========                 |                                                 |
| \\      /  F ield         | OpenFOAM: The Open Source CFD Toolbox           |
|  \\    /   O peration     | Version:  plus.master                           |
|   \\  /    A nd           | Web:      www.OpenFOAM.com                      |
|    \\/     M anipulation  |                                                 |
\*---------------------------------------------------------------------------*/
FoamFile
{
    version     2.0;
    format      ascii;
    class       surfaceScalarField;
    location    "5.8";
    object      phi;
}
// * * * * * * * * * * * * * * * * * * * * * * * * * * * * * * * * * * * * * //

dimensions      [0 3 -1 0 0 0 0];

internalField   nonuniform List<scalar> 
138768
(
1.79175e-06
1.73086e-06
1.58292e-07
-2.034e-06
-1.86879e-06
1.15518e-06
2.39918e-06
2.79653e-07
-2.17459e-06
1.08701e-07
2.58701e-06
5.54858e-07
-2.27947e-06
-9.12358e-07
2.28235e-06
6.93003e-07
-2.16672e-06
-1.90096e-06
2.45603e-06
4.56092e-07
-2.12483e-06
-2.35963e-06
2.12797e-06
2.07642e-07
-1.99698e-06
1.56014e-06
1.21184e-07
-2.55547e-06
-1.63966e-06
2.44363e-06
1.13748e-06
2.6158e-07
-2.28327e-06
3.81816e-06
3.83829e-06
1.70409e-06
9.10567e-07
7.61341e-06
2.3987e-06
-1.76523e-06
6.80498e-06
2.67045e-06
-4.53729e-06
7.27958e-06
2.46572e-06
-2.73626e-06
3.34272e-06
1.50167e-06
1.09561e-06
1.61452e-07
-2.6929e-06
2.69082e-06
1.65779e-07
5.19547e-07
-2.45188e-06
7.71024e-06
1.02041e-06
2.31595e-06
4.66407e-06
4.49821e-06
1.06784e-05
-4.19327e-06
7.77246e-06
1.24049e-05
-7.53839e-06
4.4831e-06
1.06541e-05
-2.64598e-06
8.97855e-07
2.06891e-06
2.03038e-07
3.46417e-07
-2.43654e-06
2.45953e-06
-7.01378e-07
6.72983e-07
-2.44116e-06
6.95734e-06
-1.49045e-06
2.5304e-06
1.00788e-05
-4.50692e-06
1.03988e-05
-6.2011e-06
-8.47716e-06
3.70429e-05
-6.22803e-06
-4.51591e-06
1.35341e-05
-2.27343e-06
-1.24465e-06
2.70514e-06
-5.95365e-07
5.09491e-07
-2.28607e-06
2.68895e-06
-1.5753e-06
4.65591e-07
-2.43111e-06
7.56723e-06
-4.18255e-06
2.3312e-06
4.80632e-06
-7.64583e-06
1.0413e-05
-4.81541e-06
-6.74535e-06
1.24016e-05
-7.57371e-06
-7.34202e-06
1.01013e-05
-2.69625e-06
-3.59232e-06
1.98739e-06
-1.41537e-06
2.99208e-07
-2.48414e-06
2.35717e-06
-1.9764e-06
2.27965e-07
-2.24513e-06
3.63732e-06
-2.54973e-06
1.60457e-06
7.83665e-07
-2.58366e-06
2.30751e-06
-1.93559e-06
-2.36723e-06
2.85856e-06
-4.52251e-06
-2.51977e-06
2.28187e-06
-2.72204e-06
-2.28305e-06
1.40801e-06
-1.77469e-06
1.38572e-07
-2.67427e-06
1.74355e-06
1.34113e-07
-1.89228e-06
-2.17169e-06
1.14666e-06
2.26628e-07
-2.42562e-06
1.75138e-08
5.02344e-07
-2.28866e-06
-1.04741e-06
6.66807e-07
-2.26839e-06
-2.03236e-06
3.8602e-07
-2.23628e-06
-2.40833e-06
1.66884e-07
-2.26554e-06
1.07731e-07
-2.59677e-06
-1.98879e-06
1.0282e-06
7.93758e-07
7.33832e-07
-1.37934e-06
-1.0182e-06
4.68489e-07
8.57687e-07
1.01338e-06
-1.03187e-06
-1.6145e-07
4.23203e-07
1.52182e-06
-7.60606e-07
-8.43325e-07
1.63227e-07
1.7614e-06
-5.50108e-07
-1.25752e-06
3.37101e-08
1.35076e-06
-5.1428e-07
-1.59817e-06
3.04952e-07
8.93552e-07
-6.50286e-07
2.52622e-07
6.99866e-07
-1.81853e-06
-6.11025e-07
9.96022e-07
4.45041e-07
9.74342e-07
-1.36023e-06
7.07784e-07
7.58492e-07
2.09132e-06
3.25058e-08
2.99079e-07
3.19799e-06
-1.01416e-06
5.89144e-08
3.82136e-06
-1.38799e-06
-2.57495e-07
3.13065e-06
-1.4e-06
5.47556e-08
1.76378e-06
-1.19978e-07
8.23401e-07
-1.68933e-06
5.71721e-07
2.92391e-08
1.46224e-06
-1.09872e-06
7.85517e-08
4.09345e-07
3.15813e-06
6.44559e-07
1.4798e-06
8.93126e-06
-8.66825e-07
1.12117e-06
1.28539e-05
-1.33861e-07
5.97248e-07
9.06621e-06
-5.98136e-07
-1.82068e-07
2.76985e-06
-2.7932e-07
1.13199e-06
-1.22445e-06
6.23878e-07
-6.11441e-07
1.73305e-06
-1.04397e-06
6.00966e-07
-8.48331e-07
3.81093e-06
1.79701e-06
-1.10546e-06
1.1788e-05
1.84674e-06
1.79783e-06
3.6315e-05
1.24012e-06
-1.02028e-07
1.4842e-05
1.46625e-07
-1.34528e-07
3.75124e-06
-1.68196e-07
1.36388e-06
-8.19201e-07
5.09138e-07
-9.38067e-07
1.3503e-06
-1.0673e-06
5.58036e-08
-1.21782e-06
3.15395e-06
5.70533e-07
-2.96325e-07
9.08881e-06
-1.07448e-06
9.93367e-07
1.48499e-05
-1.76075e-07
2.63198e-07
8.83769e-06
-5.98176e-07
-3.88841e-07
2.66377e-06
-2.94075e-07
1.04572e-06
-1.21888e-06
8.08058e-07
-1.18685e-06
8.89746e-07
-1.22108e-06
3.54366e-07
-1.13107e-06
1.97142e-06
-3.35559e-07
-5.1473e-07
3.21596e-06
-8.59406e-07
7.34779e-08
4.30219e-06
-1.20522e-06
-1.3408e-07
3.02488e-06
-1.27266e-06
-5.68022e-07
1.65458e-06
-6.11017e-07
7.69949e-07
-1.58725e-06
7.86473e-07
6.84039e-07
-1.19381e-06
-1.32954e-06
2.34112e-07
9.22721e-07
-1.27485e-06
-3.35155e-07
1.44835e-06
-8.91508e-07
-8.28011e-07
1.76921e-06
-5.36326e-07
-1.11769e-06
1.23498e-06
-6.93468e-07
-1.42243e-06
8.16341e-07
-9.12859e-07
6.67464e-07
-1.667e-06
-9.26355e-07
1.08159e-06
6.78331e-07
1.6167e-06
-1.57334e-06
-1.06942e-06
4.63997e-07
5.46801e-07
1.98037e-06
-8.9594e-07
-2.19091e-07
2.03872e-07
2.60581e-06
-6.04526e-07
-8.16778e-07
-2.44147e-07
2.9405e-06
-3.36932e-07
-1.21655e-06
-2.60892e-07
2.39691e-06
-3.85252e-07
-1.61163e-06
2.78658e-08
1.84795e-06
-5.87037e-07
2.54327e-07
1.59427e-06
-1.99752e-06
-7.62821e-07
8.83842e-07
2.67329e-07
1.91937e-06
-1.4176e-06
3.08498e-07
2.50083e-07
2.96381e-06
-3.67192e-07
-2.43294e-07
4.32129e-06
-8.5752e-07
-1.04502e-06
5.11302e-06
-1.02734e-06
-9.81726e-07
4.02169e-06
-1.37865e-06
-3.94041e-07
2.53751e-06
-2.23658e-07
1.74856e-06
-1.82577e-06
4.36128e-07
-1.65674e-07
2.52734e-06
-1.06843e-06
-3.62816e-07
-1.2736e-07
4.33482e-06
-3.22112e-07
2.10389e-07
8.43729e-06
-8.48878e-07
1.12031e-07
1.22243e-05
-6.49876e-08
-5.53144e-07
7.85524e-06
-6.78936e-07
-6.21369e-07
3.61283e-06
-4.37812e-07
2.04766e-06
-1.38002e-06
2.70249e-08
-5.73969e-07
2.92226e-06
-8.0826e-07
-1.05561e-06
-5.39717e-07
5.30631e-06
-1.42901e-06
-3.55713e-07
1.27281e-05
1.68803e-07
2.60155e-06
3.22311e-05
1.49789e-06
4.21684e-07
1.25301e-05
2.17507e-07
-2.32666e-08
4.4341e-06
-1.51194e-07
2.25486e-06
-9.58982e-07
1.36711e-07
-8.28996e-07
2.40148e-06
-9.32645e-07
-8.42456e-07
-6.76434e-07
4.27028e-06
-9.63066e-07
2.37209e-07
8.6183e-06
-3.18354e-07
2.46059e-06
1.43677e-05
2.72002e-07
8.6726e-07
7.80223e-06
-5.11598e-07
-7.25034e-08
3.49677e-06
-2.87054e-07
1.96999e-06
-1.29985e-06
4.82623e-07
-1.08015e-06
1.82436e-06
-1.16594e-06
-1.83185e-07
-8.59744e-07
2.82048e-06
-8.80459e-07
-1.7541e-07
4.32502e-06
-4.71432e-07
8.78602e-07
5.47557e-06
-6.74108e-07
1.66578e-07
3.9284e-06
-1.0877e-06
-3.9309e-07
2.38886e-06
-6.76271e-07
1.69853e-06
-1.62699e-06
7.37398e-07
1.56372e-06
-1.31797e-06
-1.37909e-06
6.64184e-08
1.86206e-06
-1.12764e-06
-4.78923e-07
2.46102e-06
-6.42834e-07
-5.681e-07
2.87963e-06
-1.42541e-07
-8.69756e-07
2.23192e-06
-5.28651e-07
-1.31369e-06
1.75843e-06
-8.91153e-07
1.55796e-06
-1.75908e-06
-1.12138e-06
1.73732e-06
1.09125e-06
3.15477e-06
-2.52241e-06
-1.84416e-06
8.76106e-07
7.5379e-07
3.52559e-06
-1.43755e-06
-1.15095e-08
3.4315e-07
4.16223e-06
-1.01171e-06
-7.2591e-07
-1.87585e-07
4.53838e-06
-6.95482e-07
-1.45942e-06
1.96043e-07
3.92944e-06
-9.94708e-07
-2.2149e-06
6.25161e-07
3.39097e-06
-1.41243e-06
1.02116e-06
3.11921e-06
-2.95365e-06
-1.80723e-06
1.42505e-06
3.85122e-07
3.45923e-06
-2.25853e-06
5.28425e-07
1.66907e-07
4.44782e-06
-3.73868e-07
-2.82111e-07
5.84936e-06
-7.19756e-07
-1.33393e-06
6.60591e-06
-1.36228e-06
-5.1704e-07
5.37794e-06
-2.05678e-06
-7.16212e-08
3.9296e-06
2.79344e-07
3.2816e-06
-2.84792e-06
8.42775e-07
-2.40992e-07
4.06918e-06
-1.75982e-06
-1.03868e-07
-4.4217e-07
5.89101e-06
-7.18596e-07
-4.90529e-07
9.26087e-06
-6.8091e-07
-1.41222e-06
1.22656e-05
-7.1792e-07
-6.99893e-07
8.07645e-06
-1.57995e-06
-4.64557e-07
4.87021e-06
-2.49343e-07
3.52497e-06
-2.52765e-06
5.77752e-08
-5.73255e-07
4.52202e-06
-1.32547e-06
-1.5806e-06
-4.27609e-07
6.93056e-06
-3.02485e-06
-1.23598e-07
1.38062e-05
-8.2828e-07
2.25929e-06
2.63656e-05
1.82666e-07
7.26013e-08
1.07216e-05
-9.70227e-07
-3.46892e-07
5.46894e-06
-4.3998e-07
3.67942e-06
-2.20368e-06
5.32615e-07
-1.01961e-06
3.94257e-06
-1.62702e-06
-6.02814e-07
-7.68942e-07
5.74756e-06
-1.32319e-06
5.1711e-08
9.1653e-06
-5.5555e-08
2.18376e-06
1.32129e-05
-2.97029e-07
1.54266e-07
7.96175e-06
-1.32776e-06
-5.64305e-07
4.74504e-06
-8.88145e-07
3.47235e-06
-2.38149e-06
1.03417e-06
-1.58139e-06
3.37505e-06
-2.02291e-06
3.90172e-08
-1.19993e-06
4.24629e-06
-7.92791e-07
-4.88938e-07
5.69523e-06
-3.0462e-07
5.48188e-07
6.62355e-06
-9.1279e-07
-4.93431e-07
5.1845e-06
-1.7131e-06
-1.15721e-06
3.78227e-06
-1.55116e-06
3.24676e-06
-2.59812e-06
1.43071e-06
3.11156e-06
-2.29823e-06
-2.26131e-06
5.18546e-07
3.40648e-06
-1.83136e-06
-2.13469e-07
3.94183e-06
-1.23816e-06
-4.11274e-07
4.33923e-06
-7.13357e-07
-1.07837e-06
3.73772e-06
-1.33194e-06
-1.89952e-06
3.31119e-06
-1.88864e-06
3.09074e-06
-2.69041e-06
-2.29296e-06
2.26919e-06
1.79954e-06
-3.12153e-06
-2.80688e-06
5.01449e-06
1.30949e-06
1.42546e-06
-2.35422e-06
5.41379e-06
2.34255e-07
1.03893e-06
-1.88408e-06
6.0824e-06
-6.96239e-07
5.81945e-07
-1.58348e-06
6.47034e-06
-1.70095e-06
1.1826e-06
-2.04501e-06
5.79663e-06
-2.63513e-06
1.64217e-06
-2.54847e-06
5.23149e-06
1.98438e-06
-3.45002e-06
-2.98602e-06
4.93577e-06
2.11476e-06
8.41965e-07
-3.03986e-06
5.3416e-06
1.07526e-06
5.72545e-07
6.34009e-06
-6.58124e-08
2.68788e-07
7.76053e-06
-8.40255e-07
-4.65264e-07
8.42763e-06
-1.85995e-06
4.29338e-07
7.15103e-06
-2.75917e-06
7.58077e-07
5.71267e-06
1.02078e-06
-3.61784e-06
5.10365e-06
1.66714e-06
-6.19114e-08
-2.66997e-06
5.97481e-06
6.30103e-07
-3.13765e-07
7.81443e-06
-4.95273e-07
-3.83879e-07
1.10389e-05
-1.11608e-06
-1.05109e-06
1.34721e-05
-1.87349e-06
-1.53726e-07
9.41703e-06
-2.716e-06
-9.07872e-08
6.56131e-06
8.00773e-08
-3.57964e-06
5.32926e-06
8.23874e-07
-6.18217e-07
-2.22745e-06
6.47789e-06
-9.31587e-07
-5.19351e-07
8.89165e-06
-3.01319e-06
-2.63822e-07
1.57678e-05
-1.67979e-06
7.53211e-07
2.32285e-05
-1.55245e-06
-6.55981e-07
1.10986e-05
-2.48038e-06
-7.59286e-07
7.06538e-06
-7.09956e-07
-3.46563e-06
5.45334e-06
1.47222e-06
-1.36881e-06
-2.60364e-06
5.82469e-06
3.14509e-07
-1.22404e-06
7.60996e-06
-7.61247e-07
-7.00739e-07
1.06775e-05
-5.5887e-07
5.56128e-07
1.32043e-05
-1.50451e-06
-9.37537e-07
9.18904e-06
-2.5015e-06
-1.42099e-06
6.40372e-06
-1.53768e-06
-3.46834e-06
5.26705e-06
1.8987e-06
-2.18735e-06
-2.93352e-06
5.2285e-06
7.75483e-07
-1.90437e-06
6.04997e-06
-2.56873e-07
-1.40005e-06
7.42705e-06
-5.3999e-07
-6.92853e-07
8.15564e-06
-1.50386e-06
-1.62361e-06
6.83446e-06
-2.51658e-06
-2.15578e-06
5.52987e-06
-2.39844e-06
-3.45673e-06
5.04777e-06
2.13613e-06
-3.07691e-06
-3.07828e-06
4.94332e-06
1.13058e-06
-2.7392e-06
5.2469e-06
1.63042e-07
-2.24753e-06
5.75704e-06
-4.7429e-07
-1.84035e-06
6.12366e-06
-1.44947e-06
-2.4506e-06
5.54009e-06
-2.44841e-06
-2.9653e-06
5.1197e-06
-3.34125e-06
-3.29796e-06
4.88306e-06
-2.94196e-06
-3.41277e-07
7.93372e-08
4.97853e-07
-3.15862e-06
-5.37346e-07
1.03603e-07
5.4178e-07
-3.3426e-06
-4.54222e-07
1.22788e-07
5.24131e-07
-3.53663e-06
-4.01752e-07
1.32766e-07
5.08286e-07
-3.75256e-06
-3.7108e-07
1.33193e-07
4.98417e-07
-3.98933e-06
-3.50391e-07
1.24625e-07
4.94399e-07
-4.22098e-06
-3.34429e-07
1.0732e-07
4.91128e-07
-3.22798e-07
8.34914e-08
4.86881e-07
-4.41206e-06
-3.14334e-06
-2.15684e-07
7.5472e-08
-3.31002e-06
-4.50869e-07
1.08411e-07
-3.50754e-06
-3.33576e-07
1.34142e-07
-3.7199e-06
-2.78446e-07
1.49339e-07
-3.94021e-06
-2.44655e-07
1.50983e-07
-4.17221e-06
-2.2987e-07
1.42409e-07
-4.3806e-06
-2.20041e-07
1.23938e-07
-2.10354e-07
9.83221e-08
-4.54094e-06
-2.86943e-06
-1.44151e-07
7.56952e-08
-3.09327e-06
-2.11358e-07
9.8871e-08
-3.33651e-06
-1.6999e-07
1.32776e-07
-3.57665e-06
-1.39092e-07
1.58235e-07
-3.83431e-06
-1.20806e-07
1.63792e-07
-4.08302e-06
-1.01889e-07
1.56693e-07
-4.28477e-06
-9.06796e-08
1.38451e-07
-8.25479e-08
1.12148e-07
-4.4541e-06
-2.74777e-06
-3.68085e-08
9.02348e-08
-2.96835e-06
5.83004e-08
9.44606e-08
-3.19406e-06
-1.00663e-08
1.30844e-07
-3.43755e-06
-2.44268e-08
1.61535e-07
-3.66433e-06
-2.52527e-08
1.69267e-07
-3.89895e-06
-2.39384e-08
1.63262e-07
-4.08601e-06
-1.81756e-08
1.45498e-07
-9.53254e-09
1.19288e-07
-4.20469e-06
-2.91333e-06
3.16504e-08
7.36814e-08
-3.1326e-06
2.65718e-07
9.90238e-08
-3.36884e-06
1.61142e-07
1.32184e-07
-3.61439e-06
1.19709e-07
1.6151e-07
-3.86101e-06
9.88501e-08
1.67625e-07
-4.10208e-06
9.5251e-08
1.60792e-07
-4.2933e-06
9.73688e-08
1.43241e-07
9.88721e-08
1.165e-07
-4.43891e-06
-3.11848e-06
1.51742e-07
7.35433e-08
-3.34143e-06
3.1894e-07
1.06762e-07
-3.50887e-06
2.8517e-07
1.33711e-07
-3.728e-06
2.43591e-07
1.48985e-07
-3.94657e-06
2.22618e-07
1.5144e-07
-4.17123e-06
2.11263e-07
1.42629e-07
-4.36924e-06
2.05763e-07
1.24588e-07
2.02143e-07
9.92143e-08
-4.52033e-06
-2.96254e-06
7.48834e-08
3.16729e-07
-3.12394e-06
9.98325e-08
3.71083e-07
-3.29199e-06
1.18026e-07
3.7876e-07
-3.51243e-06
1.2642e-07
3.68003e-07
-3.74807e-06
1.25454e-07
3.64788e-07
-3.96278e-06
1.15761e-07
3.62054e-07
-4.18625e-06
9.81757e-08
3.58986e-07
7.45003e-08
3.56382e-07
-4.37994e-06
-2.21038e-06
-4.76354e-07
3.91388e-07
5.5387e-07
-2.65147e-06
-4.28293e-07
4.31709e-07
5.35827e-07
-3.10763e-06
-3.91908e-07
4.47095e-07
5.17019e-07
-3.55301e-06
-3.65488e-07
4.35888e-07
5.01439e-07
-3.9682e-06
-3.44552e-07
4.00073e-07
4.87401e-07
-4.33858e-06
-3.26578e-07
3.43645e-07
4.7363e-07
-4.65598e-06
-3.10263e-07
2.72236e-07
4.59307e-07
-2.94972e-07
1.92378e-07
4.44219e-07
-4.91627e-06
-2.16682e-06
-4.30792e-07
5.01122e-07
-2.67668e-06
-3.48325e-07
5.29871e-07
-3.19098e-06
-2.929e-07
5.40536e-07
-3.68017e-06
-2.57356e-07
5.21895e-07
-4.12367e-06
-2.31604e-07
4.74556e-07
-4.50489e-06
-2.11876e-07
4.03314e-07
-4.81498e-06
-1.9606e-07
3.15432e-07
-1.82696e-07
2.19064e-07
-5.05093e-06
-1.87995e-06
-2.9717e-07
5.87895e-07
-2.50709e-06
-2.27146e-07
5.95176e-07
-3.10127e-06
-1.8585e-07
6.08101e-07
-3.64418e-06
-1.5934e-07
5.90793e-07
-4.12317e-06
-1.39953e-07
5.39797e-07
-4.52491e-06
-1.24391e-07
4.60598e-07
-4.84078e-06
-1.11604e-07
3.62001e-07
-1.00944e-07
2.53742e-07
-5.06955e-06
-1.64524e-06
-1.90558e-08
6.27043e-07
-2.36737e-06
-3.7013e-08
6.17701e-07
-3.01503e-06
-5.04444e-08
6.32725e-07
-3.58882e-06
-5.41532e-08
6.17785e-07
-4.0863e-06
-5.17066e-08
5.67172e-07
-4.49735e-06
-4.65159e-08
4.861e-07
-4.81679e-06
-4.02412e-08
3.84508e-07
-3.36423e-08
2.72765e-07
-5.044e-06
-1.87101e-06
1.21686e-07
5.766e-07
-2.49217e-06
7.87823e-08
5.9451e-07
-3.08287e-06
5.05513e-08
6.10474e-07
-3.62071e-06
3.76786e-08
5.94983e-07
-4.09426e-06
3.26897e-08
5.45546e-07
-4.48961e-06
3.19479e-08
4.67611e-07
-4.79802e-06
3.34807e-08
3.7005e-07
3.59818e-08
2.62647e-07
-5.01911e-06
-2.09204e-06
2.03058e-07
4.92678e-07
-2.61798e-06
1.75803e-07
5.26405e-07
-3.1398e-06
1.58422e-07
5.3871e-07
-3.63083e-06
1.47912e-07
5.21137e-07
-4.07142e-06
1.42118e-07
4.75171e-07
-4.44683e-06
1.38634e-07
4.05497e-07
-4.74895e-06
1.36269e-07
3.19189e-07
1.34437e-07
2.24288e-07
-4.97552e-06
-2.10485e-06
3.79633e-07
3.3224e-07
-2.57594e-06
4.18425e-07
3.22601e-07
-3.05127e-06
4.31606e-07
3.14394e-07
-3.50789e-06
4.18694e-07
3.07087e-07
-3.92776e-06
3.82044e-07
3.00634e-07
-4.29683e-06
3.25682e-07
2.94235e-07
-4.60721e-06
2.5509e-07
2.87442e-07
1.76608e-07
2.80251e-07
-4.85678e-06
-2.60184e-06
-4.40731e-07
8.96508e-07
5.39962e-07
-3.29358e-06
-3.55412e-07
9.79324e-07
4.99758e-07
-4.02696e-06
-3.00287e-07
1.01467e-06
4.66213e-07
-4.76919e-06
-2.60482e-07
1.00104e-06
4.37633e-07
-5.49114e-06
-2.30071e-07
9.39766e-07
4.12389e-07
-6.16371e-06
-2.05973e-07
8.3269e-07
3.89546e-07
-6.755e-06
-1.86524e-07
6.81554e-07
3.68585e-07
-1.70692e-07
4.91889e-07
3.49151e-07
-7.23285e-06
-2.5449e-06
-3.93106e-07
1.17266e-06
-3.31772e-06
-2.84007e-07
1.2314e-06
-4.11101e-06
-2.16928e-07
1.25057e-06
-4.89583e-06
-1.71395e-07
1.2177e-06
-5.64443e-06
-1.3826e-07
1.13139e-06
-6.32649e-06
-1.13348e-07
9.92815e-07
-6.90652e-06
-9.44874e-08
8.03519e-07
-8.04715e-08
5.70409e-07
-7.348e-06
-2.26351e-06
-3.00666e-07
1.37921e-06
-3.1511e-06
-2.12511e-07
1.41139e-06
-4.02234e-06
-1.62823e-07
1.42529e-06
-4.85981e-06
-1.29573e-07
1.38654e-06
-5.6428e-06
-1.04468e-07
1.28901e-06
-6.34396e-06
-8.4521e-08
1.13299e-06
-6.9277e-06
-6.85582e-08
9.19864e-07
-5.58907e-08
6.57464e-07
-7.35597e-06
-2.02109e-06
-7.11104e-08
1.45957e-06
-3.00419e-06
-8.93748e-08
1.47773e-06
-3.92934e-06
-9.69316e-08
1.49196e-06
-4.79978e-06
-9.48926e-08
1.45349e-06
-5.6036e-06
-8.75332e-08
1.35405e-06
-6.31751e-06
-7.81645e-08
1.19366e-06
-6.90689e-06
-6.83208e-08
9.73632e-07
-5.86869e-08
7.02014e-07
-7.33336e-06
-2.19132e-06
2.62014e-08
1.37088e-06
-3.08101e-06
-2.03759e-08
1.41522e-06
-3.95544e-06
-4.55896e-08
1.43352e-06
-4.79642e-06
-5.70161e-08
1.39796e-06
-5.58228e-06
-5.98185e-08
1.30364e-06
-6.28591e-06
-5.79143e-08
1.15095e-06
-6.87183e-06
-5.34399e-08
9.41052e-07
-4.74795e-08
6.81439e-07
-7.30185e-06
-2.39233e-06
1.17082e-07
1.16709e-06
-3.18768e-06
6.69394e-08
1.23436e-06
-3.9941e-06
4.11166e-08
1.25833e-06
-4.78736e-06
2.72136e-08
1.23008e-06
-5.54117e-06
2.0114e-08
1.14896e-06
-6.22671e-06
1.70547e-08
1.01602e-06
-6.80994e-06
1.65452e-08
8.32448e-07
1.77401e-08
6.04625e-07
-7.25545e-06
-2.4178e-06
8.85615e-07
2.69711e-07
-3.14887e-06
9.69041e-07
2.47262e-07
-3.9108e-06
1.00477e-06
2.29774e-07
-4.67245e-06
9.92677e-07
2.14795e-07
-5.40638e-06
9.34312e-07
2.01719e-07
-6.08527e-06
8.31327e-07
1.90285e-07
-6.67914e-06
6.85152e-07
1.80407e-07
5.00802e-07
1.71999e-07
-7.1575e-06
-4.05336e-06
-2.7608e-07
1.80561e-06
4.66807e-07
-5.30978e-06
-1.69753e-07
2.00896e-06
3.96885e-07
-6.65272e-06
-9.58288e-08
2.11304e-06
3.40668e-07
-7.99761e-06
-4.43321e-08
2.09739e-06
2.93029e-07
-9.24437e-06
-7.98424e-09
1.94217e-06
2.52442e-07
-1.02768e-05
1.38602e-08
1.63385e-06
2.17439e-07
-1.0975e-05
2.8944e-08
1.1653e-06
1.85621e-07
3.92927e-08
5.2916e-07
1.55304e-07
-1.12067e-05
-4.05588e-06
-2.33819e-07
2.33832e-06
-5.38514e-06
-1.26499e-07
2.51754e-06
-6.78196e-06
-5.17511e-08
2.60348e-06
-8.17049e-06
-1.95816e-10
2.5622e-06
-9.44579e-06
3.35948e-08
2.36517e-06
-1.0486e-05
5.50987e-08
1.99192e-06
-1.11499e-05
6.62552e-08
1.43024e-06
6.89951e-08
6.64392e-07
-1.12735e-05
-3.84105e-06
-2.48332e-07
2.70759e-06
-5.25591e-06
-1.66048e-07
2.86612e-06
-6.71669e-06
-1.13876e-07
2.94839e-06
-8.15467e-06
-7.67703e-08
2.9013e-06
-9.47004e-06
-4.8993e-08
2.68708e-06
-1.05315e-05
-2.86649e-08
2.27833e-06
-1.1188e-05
-1.46022e-08
1.65733e-06
-5.77247e-09
8.00419e-07
-1.12561e-05
-3.64415e-06
-1.92043e-07
2.84491e-06
-5.1283e-06
-1.97473e-07
2.99356e-06
-6.62978e-06
-1.9739e-07
3.07709e-06
-8.09581e-06
-1.88304e-07
3.03116e-06
-9.43075e-06
-1.7405e-07
2.81414e-06
-1.05044e-05
-1.57015e-07
2.3957e-06
-1.11628e-05
-1.38156e-07
1.75568e-06
-1.17855e-07
8.6689e-07
-1.12155e-05
-3.72238e-06
-1.84883e-07
2.70489e-06
-5.14918e-06
-2.28605e-07
2.87337e-06
-6.61969e-06
-2.53654e-07
2.96044e-06
-8.06653e-06
-2.60905e-07
2.91746e-06
-9.38813e-06
-2.5627e-07
2.70753e-06
-1.0454e-05
-2.4333e-07
2.3032e-06
-1.11135e-05
-2.2399e-07
1.6864e-06
-1.99385e-07
8.32185e-07
-1.11827e-05
-3.84905e-06
-1.0548e-07
2.33872e-06
-5.20564e-06
-1.63716e-07
2.52617e-06
-6.62304e-06
-1.95947e-07
2.61811e-06
-8.02581e-06
-2.1122e-07
2.58323e-06
-9.31151e-06
-2.15038e-07
2.39346e-06
-1.0356e-05
-2.11011e-07
2.02824e-06
-1.10208e-05
-2.01491e-07
1.47475e-06
-1.87946e-07
7.14992e-07
-1.11425e-05
-3.85236e-06
1.80001e-06
1.42156e-07
-5.15332e-06
2.0052e-06
1.01116e-07
-6.52464e-06
2.11104e-06
6.9127e-08
-7.88351e-06
2.09826e-06
4.21034e-08
-9.13129e-06
1.94735e-06
1.97806e-08
-1.01579e-05
1.6448e-06
2.20697e-09
-1.08441e-05
1.18343e-06
-1.3533e-08
5.54228e-07
-2.55114e-08
-1.10599e-05
-4.75416e-06
8.89415e-08
1.29888e-07
2.89072e-06
-6.28565e-06
2.28829e-07
5.44359e-09
3.30602e-06
-8.01999e-06
3.48606e-07
-1.19864e-07
3.61859e-06
-9.93893e-06
4.47515e-07
-2.26553e-07
3.79538e-06
-1.20168e-05
5.25392e-07
-3.16857e-07
3.81161e-06
-1.42271e-05
5.785e-07
-3.85817e-07
3.65162e-06
-1.65423e-05
5.96228e-07
-4.27965e-07
3.31228e-06
5.71448e-07
-4.3839e-07
-1.89847e-05
2.83846e-06
-4.9747e-06
6.47231e-08
3.71921e-06
-6.51507e-06
1.81867e-07
4.10488e-06
-8.23886e-06
2.81426e-07
4.39457e-06
-1.01345e-05
3.61466e-07
4.54411e-06
-1.21807e-05
4.21271e-07
4.51573e-06
-1.43493e-05
4.58122e-07
4.28112e-06
-1.6621e-05
4.67016e-07
3.83126e-06
4.42943e-07
-1.90553e-05
3.22722e-06
-4.9879e-06
-9.71826e-08
4.27771e-06
-6.56378e-06
-1.36583e-08
4.63765e-06
-8.30104e-06
4.80939e-08
4.91921e-06
-1.02015e-05
1.00704e-07
5.06283e-06
-1.22512e-05
1.41134e-07
5.01721e-06
-1.44233e-05
1.6772e-07
4.7411e-06
-1.66958e-05
1.78804e-07
4.21834e-06
1.73154e-07
-1.91469e-05
3.52145e-06
-4.93487e-06
-2.60686e-07
4.47783e-06
-6.54114e-06
-2.40471e-07
4.82685e-06
-8.29851e-06
-2.24589e-07
5.10742e-06
-1.0212e-05
-2.06258e-07
5.25191e-06
-1.22721e-05
-1.87652e-07
5.20332e-06
-1.44533e-05
-1.70162e-07
4.91493e-06
-1.67327e-05
-1.53399e-07
4.36759e-06
-1.35115e-07
-1.91955e-05
3.63829e-06
-4.91273e-06
-3.74946e-07
4.2637e-06
-6.51137e-06
-4.01743e-07
4.63349e-06
-8.27324e-06
-4.22413e-07
4.92038e-06
-1.01973e-05
-4.32087e-07
5.06754e-06
-1.22684e-05
-4.33427e-07
5.02461e-06
-1.44589e-05
-4.26815e-07
4.7506e-06
-1.67464e-05
-4.08963e-07
4.22972e-06
-3.74764e-07
-1.9209e-05
3.53479e-06
-4.87165e-06
-3.25632e-07
3.70432e-06
-6.45555e-06
-3.89757e-07
4.0981e-06
-8.21952e-06
-4.32999e-07
4.39268e-06
-1.01524e-05
-4.61647e-07
4.5457e-06
-1.22328e-05
-4.79815e-07
4.52039e-06
-1.44327e-05
-4.87319e-07
4.28872e-06
-1.67326e-05
-4.76455e-07
3.8422e-06
-4.42071e-07
-1.91924e-05
3.24233e-06
-4.71213e-06
-2.80827e-08
2.87325e-06
-6.29119e-06
-9.34309e-08
3.28784e-06
-8.06559e-06
-1.46092e-07
3.59842e-06
-1.00125e-05
-1.89581e-07
3.77305e-06
-1.21101e-05
-2.22906e-07
3.78811e-06
-1.43361e-05
-2.44992e-07
3.62855e-06
-1.66674e-05
-2.53813e-07
3.29213e-06
-2.48699e-07
-1.913e-05
2.82368e-06
-2.22606e-06
3.54459e-07
8.51591e-08
-1.74599e-07
-2.49341e-06
2.93641e-07
1.04609e-07
-1.61174e-07
-2.77095e-06
2.73116e-07
1.1544e-07
-9.62631e-08
-3.04467e-06
2.64203e-07
1.16898e-07
-6.34994e-08
-3.34023e-06
2.56978e-07
1.08308e-07
-4.23045e-08
-3.6145e-06
2.45783e-07
9.10568e-08
-2.51994e-08
-3.8595e-06
2.35285e-07
6.63947e-08
-1.05402e-08
2.2684e-07
3.5952e-08
2.37065e-09
-4.06374e-06
-2.43089e-06
3.12298e-07
1.10203e-07
-2.59726e-06
2.37438e-07
1.28802e-07
-2.7538e-06
2.88373e-07
1.47339e-07
-2.9139e-06
2.90736e-07
1.53655e-07
-3.17665e-06
2.86284e-07
1.47736e-07
-3.42827e-06
2.97984e-07
1.31831e-07
-3.66516e-06
3.06696e-07
1.08967e-07
3.18348e-07
8.3458e-08
-3.90697e-06
-2.55822e-06
1.99301e-07
1.57822e-07
-2.55926e-06
1.55006e-07
1.64906e-07
-2.67468e-06
2.02625e-07
1.92855e-07
-2.79669e-06
2.19307e-07
2.11433e-07
-2.88648e-06
2.30122e-07
2.16542e-07
-3.02159e-06
2.38488e-07
2.05919e-07
-3.15368e-06
2.43328e-07
1.85152e-07
2.48932e-07
1.58444e-07
-3.26725e-06
-2.67212e-06
1.40707e-07
2.19312e-07
-2.67754e-06
9.14809e-08
2.08231e-07
-2.74635e-06
5.72943e-08
2.45983e-07
-2.82741e-06
4.40565e-08
2.78858e-07
-2.85683e-06
-2.83032e-10
2.99444e-07
-2.87705e-06
-3.26685e-08
3.04978e-07
-2.87578e-06
-5.48959e-08
2.98605e-07
-7.33298e-08
2.84923e-07
-2.83878e-06
-2.64097e-06
-1.07583e-10
1.78086e-07
-2.61764e-06
4.78345e-08
1.85614e-07
-2.62447e-06
-3.97231e-08
2.17606e-07
-2.7237e-06
-8.09139e-08
2.35916e-07
-2.84474e-06
-1.07959e-07
2.40504e-07
-2.94113e-06
-1.40484e-07
2.32827e-07
-3.055e-06
-1.67675e-07
2.13532e-07
-1.86306e-07
1.86881e-07
-3.14533e-06
-2.47055e-06
-6.60564e-08
1.18337e-07
-2.53915e-06
1.29597e-08
1.39946e-07
-2.65273e-06
-5.18279e-08
1.57855e-07
-2.88044e-06
-7.89864e-08
1.63319e-07
-3.16153e-06
-8.32058e-08
1.57583e-07
-3.37381e-06
-8.3825e-08
1.44205e-07
-3.5443e-06
-9.13209e-08
1.21706e-07
-1.00021e-07
9.30181e-08
-3.74882e-06
-2.3721e-06
9.27841e-08
8.63919e-08
-2.58171e-06
1.1222e-07
1.06412e-07
-2.82686e-06
1.23349e-07
1.14197e-07
-3.12873e-06
1.23665e-07
1.25642e-07
-3.44344e-06
1.13654e-07
1.39332e-07
-3.72512e-06
9.47142e-08
1.4908e-07
-3.99429e-06
6.79793e-08
1.54051e-07
3.52985e-08
1.55593e-07
-4.22813e-06
-1.66678e-06
2.43617e-07
3.80354e-07
-6.85249e-08
-2.16049e-06
2.28861e-07
4.13155e-07
-4.75441e-08
-2.65551e-06
2.13171e-07
4.19585e-07
-2.71061e-08
-3.1295e-06
2.00786e-07
3.97906e-07
-1.15329e-08
-3.56616e-06
1.91125e-07
3.50824e-07
9.59638e-11
-3.95292e-06
1.83617e-07
2.83018e-07
8.97622e-09
-4.28065e-06
1.77443e-07
2.00473e-07
1.50093e-08
1.72234e-07
1.09591e-07
1.89914e-08
-4.54593e-06
-1.68065e-06
2.89534e-07
5.21142e-07
-2.14561e-06
2.72249e-07
5.43299e-07
-2.6129e-06
2.67773e-07
5.51893e-07
-3.06129e-06
2.65385e-07
5.30189e-07
-3.47134e-06
2.6411e-07
4.78001e-07
-3.82988e-06
2.64485e-07
4.0049e-07
-4.12041e-06
2.65577e-07
3.04909e-07
2.6663e-07
1.99542e-07
-4.33717e-06
-1.55769e-06
2.51338e-07
6.77576e-07
-1.99977e-06
2.11969e-07
6.61029e-07
-2.4233e-06
2.0029e-07
6.79481e-07
-2.82122e-06
1.92597e-07
6.74822e-07
-3.1671e-06
1.86603e-07
6.37493e-07
-3.44943e-06
1.81422e-07
5.70271e-07
-3.65796e-06
1.76741e-07
4.81443e-07
1.72887e-07
3.80811e-07
-3.78681e-06
-1.52653e-06
1.34264e-07
8.04739e-07
-1.94956e-06
1.09448e-07
7.28989e-07
-2.34408e-06
8.50996e-08
7.5154e-07
-2.70303e-06
6.35038e-08
7.62767e-07
-3.00304e-06
4.03016e-08
7.44046e-07
-3.23111e-06
1.67766e-08
6.95332e-07
-3.37366e-06
-5.16374e-09
6.23616e-07
-2.23001e-08
5.38449e-07
-3.42982e-06
-1.58642e-06
6.29125e-08
7.2311e-07
-2.02186e-06
3.36177e-08
6.8532e-07
-2.42553e-06
1.97552e-09
7.00073e-07
-2.80343e-06
-2.01216e-08
6.95463e-07
-3.14165e-06
-4.40106e-08
6.59643e-07
-3.41908e-06
-6.85534e-08
5.93684e-07
-3.62388e-06
-9.1867e-08
5.04958e-07
-1.1281e-07
4.03878e-07
-3.75022e-06
-1.78342e-06
4.88174e-08
5.4781e-07
-2.22e-06
3.96099e-08
5.62169e-07
-2.66652e-06
2.96672e-08
5.68946e-07
-3.09899e-06
2.15182e-08
5.46832e-07
-3.50347e-06
1.3471e-08
4.94313e-07
-3.85841e-06
5.02038e-09
4.15593e-07
-4.14998e-06
-3.99871e-09
3.17703e-07
-1.2568e-08
2.09333e-07
-4.37193e-06
-1.80363e-06
3.98378e-07
1.63036e-07
-2.26101e-06
4.31413e-07
1.71941e-07
-2.73002e-06
4.38629e-07
1.77787e-07
-3.18812e-06
4.1694e-07
1.81963e-07
-3.61811e-06
3.69007e-07
1.84077e-07
-4.00434e-06
2.99492e-07
1.83772e-07
-4.3376e-06
2.14526e-07
1.8113e-07
1.2107e-07
1.76463e-07
-4.61301e-06
-2.00647e-06
2.23789e-07
8.80614e-07
-3.56123e-08
-2.75616e-06
2.25855e-07
9.58962e-07
-2.1906e-08
-3.53203e-06
2.17972e-07
9.88645e-07
-1.12256e-08
-4.3041e-06
2.06013e-07
9.6785e-07
-3.89795e-09
-5.04542e-06
1.92673e-07
8.98563e-07
9.41723e-10
-5.72857e-06
1.79375e-07
7.83131e-07
3.66169e-09
-6.32338e-06
1.66757e-07
6.23844e-07
4.74196e-09
1.55195e-07
4.2677e-07
4.80938e-09
-6.80045e-06
-1.91264e-06
3.04806e-07
1.18699e-06
-2.67286e-06
2.84268e-07
1.24518e-06
-3.44586e-06
2.72742e-07
1.27011e-06
-4.21129e-06
2.6019e-07
1.24148e-06
-4.94281e-06
2.45117e-07
1.15711e-06
-5.61007e-06
2.28773e-07
1.01832e-06
-6.17757e-06
2.12329e-07
8.26883e-07
1.96565e-07
5.89839e-07
-6.60917e-06
-1.69061e-06
2.72964e-07
1.46771e-06
-2.4383e-06
2.18816e-07
1.47438e-06
-3.18771e-06
1.94891e-07
1.50681e-06
-3.92353e-06
1.77499e-07
1.49334e-06
-4.62146e-06
1.60314e-07
1.42022e-06
-5.25184e-06
1.43245e-07
1.28615e-06
-5.77725e-06
1.27238e-07
1.09194e-06
1.13082e-07
8.44924e-07
-6.15801e-06
-1.55363e-06
1.69343e-07
1.65341e-06
-2.2884e-06
1.04442e-07
1.579e-06
-3.01859e-06
6.46519e-08
1.61222e-06
-3.72703e-06
3.50954e-08
1.61467e-06
-4.39027e-06
1.02098e-08
1.55842e-06
-4.98202e-06
-9.60158e-09
1.43975e-06
-5.46517e-06
-2.5323e-08
1.25885e-06
-3.76087e-08
1.02334e-06
-5.79942e-06
-1.76448e-06
8.01581e-08
1.50932e-06
-2.4812e-06
1.68814e-08
1.48935e-06
-3.21497e-06
-1.78631e-08
1.51641e-06
-3.93976e-06
-4.41549e-08
1.50052e-06
-4.63101e-06
-6.43163e-08
1.42514e-06
-5.25684e-06
-7.82633e-08
1.28811e-06
-5.78038e-06
-8.74335e-08
1.09037e-06
-9.30208e-08
8.39606e-07
-6.16072e-06
-2.08563e-06
8.67552e-08
1.20943e-06
-2.80535e-06
4.2967e-08
1.25583e-06
-3.54885e-06
1.78807e-08
1.27668e-06
-4.29146e-06
9.40385e-10
1.24433e-06
-5.0077e-06
-8.7901e-09
1.15502e-06
-5.66407e-06
-1.64216e-08
1.01015e-06
-6.22375e-06
-2.20223e-08
8.11988e-07
-2.63499e-08
5.68291e-07
-6.64936e-06
-2.19775e-06
8.96429e-07
2.13446e-07
-2.90045e-06
9.73974e-07
2.03241e-07
-3.64161e-06
1.00356e-06
1.94185e-07
-4.39047e-06
9.81273e-07
1.85464e-07
-5.11581e-06
9.08998e-07
1.76639e-07
-5.78919e-06
7.89326e-07
1.67239e-07
-6.37884e-06
6.24943e-07
1.57301e-07
4.22485e-07
1.46996e-07
-6.8535e-06
-3.47803e-06
2.56882e-07
1.80417e-06
-4.80592e-10
-4.79599e-06
2.77508e-07
2.00668e-06
-7.03685e-09
-6.18181e-06
2.77261e-07
2.11049e-06
-1.3258e-08
-7.5512e-06
2.62703e-07
2.09462e-06
-2.00157e-08
-8.80456e-06
2.4006e-07
1.93886e-06
-2.69005e-08
-9.82956e-06
2.13107e-07
1.62872e-06
-3.36333e-08
-1.05055e-05
1.84081e-07
1.1559e-06
-4.01648e-08
1.54808e-07
5.12608e-07
-4.64152e-08
-1.06996e-05
-3.28316e-06
3.34009e-07
2.37061e-06
-4.6408e-06
3.28452e-07
2.55208e-06
-6.06018e-06
3.18448e-07
2.64841e-06
-7.46867e-06
2.94472e-07
2.61828e-06
-8.76184e-06
2.59731e-07
2.43067e-06
-9.81207e-06
2.18979e-07
2.06269e-06
-1.04756e-05
1.75189e-07
1.4993e-06
1.30043e-07
7.22089e-07
-1.0583e-05
-2.91138e-06
2.708e-07
2.81551e-06
-4.28472e-06
2.26021e-07
2.95045e-06
-5.71458e-06
2.03216e-07
3.05202e-06
-7.13846e-06
1.79572e-07
3.03219e-06
-8.4541e-06
1.51485e-07
2.84415e-06
-9.52685e-06
1.21969e-07
2.45595e-06
-1.01991e-05
9.32162e-08
1.8462e-06
6.61382e-08
9.85867e-07
-1.02761e-05
-2.63491e-06
1.81138e-07
3.05583e-06
-4.03272e-06
8.98757e-08
3.11376e-06
-5.46828e-06
3.83238e-08
3.21443e-06
-6.88784e-06
5.65525e-09
3.20766e-06
-8.1991e-06
-1.1308e-08
3.0324e-06
-9.26874e-06
-2.08385e-08
2.65223e-06
-9.93551e-06
-2.35485e-08
2.04241e-06
-2.12646e-08
1.16701e-06
-9.99176e-06
-2.97611e-06
6.25868e-08
2.8451e-06
-4.32783e-06
-2.27732e-08
2.95587e-06
-5.75102e-06
-7.24184e-08
3.04988e-06
-7.17251e-06
-9.74923e-08
3.02522e-06
-8.48827e-06
-1.031e-07
2.83261e-06
-9.56485e-06
-9.59223e-08
2.43977e-06
-1.02433e-05
-8.02471e-08
1.8255e-06
-5.88873e-08
9.61641e-07
-1.03277e-05
-3.44438e-06
7.36561e-08
2.38452e-06
-4.76139e-06
-3.26639e-09
2.55343e-06
-6.15729e-06
-4.30697e-08
2.64321e-06
-7.55262e-06
-6.45137e-08
2.60668e-06
-8.84031e-06
-7.2174e-08