/*--------------------------------*- C++ -*----------------------------------*\
| =========                 |                                                 |
| \\      /  F ield         | OpenFOAM: The Open Source CFD Toolbox           |
|  \\    /   O peration     | Version:  plus.master                           |
|   \\  /    A nd           | Web:      www.OpenFOAM.com                      |
|    \\/     M anipulation  |                                                 |
\*---------------------------------------------------------------------------*/
FoamFile
{
    version     2.0;
    format      ascii;
    class       volVectorField;
    location    "5.8";
    object      U;
}
// * * * * * * * * * * * * * * * * * * * * * * * * * * * * * * * * * * * * * //

dimensions      [0 1 -1 0 0 0 0];

internalField   nonuniform List<vector> 
47285
(
(0.0433899 0.0408853 -0.00120818)
(0.0313443 0.0436299 0.00401895)
(0.0157348 0.0435761 0.0166819)
(-0.00992124 0.0399813 0.0237602)
(-0.0309693 0.041282 0.0123508)
(-0.0450349 0.0391107 0.000203482)
(-0.053939 0.0353972 -0.00388528)
(0.0461728 0.0303252 0.00335593)
(0.0722148 0.0720321 0.0706763)
(0.0583615 0.0780074 0.113005)
(-0.0115475 0.06918 0.127694)
(-0.0750861 0.0742442 0.114491)
(-0.0800996 0.0630246 0.0606089)
(-0.0539481 0.0280897 -0.00225582)
(0.0470721 0.0157563 0.015208)
(0.079146 0.0592243 0.10757)
(0.186303 0.187659 0.532076)
(0.00229556 0.176373 0.611357)
(-0.175424 0.176968 0.521188)
(-0.0767914 0.0514276 0.0929853)
(-0.0505139 0.0152558 0.00766271)
(0.043812 -0.00672304 0.0224972)
(0.072674 -0.00650564 0.117656)
(0.187455 -0.00237131 0.533044)
(0.0574434 -0.0132166 1.78792)
(-0.156161 -0.00160702 0.645609)
(-0.0672073 -0.00480672 0.117408)
(-0.043673 -0.00488295 0.0152418)
(0.0457268 -0.0254303 0.013102)
(0.0793219 -0.0675608 0.107045)
(0.190887 -0.185201 0.514237)
(-0.0046023 -0.168743 0.595194)
(-0.185694 -0.17592 0.490401)
(-0.0780471 -0.0574911 0.0873438)
(-0.050565 -0.0222852 0.00551693)
(0.0431035 -0.0374744 0.00194024)
(0.0692355 -0.0752844 0.0650184)
(0.0561581 -0.0775289 0.103372)
(-0.0158999 -0.0718444 0.123703)
(-0.0770169 -0.0747017 0.100328)
(-0.0790395 -0.0655497 0.0549764)
(-0.0526113 -0.033462 -0.00349094)
(0.0407795 -0.0467776 -0.00247127)
(0.0307312 -0.0498659 0.000947166)
(0.0146278 -0.0482818 0.0127078)
(-0.0131114 -0.0441201 0.0195217)
(-0.0334647 -0.0467644 0.00803044)
(-0.0469034 -0.0452279 -0.00213143)
(-0.05573 -0.0421741 -0.00468798)
(0.0259043 0.0195223 0.0306117)
(0.0163264 0.0184331 0.0458936)
(0.00531366 0.00740355 0.0768681)
(-0.0121415 0.00154446 0.0907795)
(-0.0235131 0.00121517 0.0660997)
(-0.0302083 0.00890915 0.0385342)
(-0.0355806 0.00978706 0.0276475)
(0.0234743 0.0133056 0.0437248)
(0.0186373 0.0173297 0.144778)
(0.0135128 0.00688987 0.21427)
(-0.012149 0.00239282 0.248989)
(-0.030383 -0.00153125 0.217054)
(-0.0293824 0.00302488 0.128037)
(-0.0302755 0.00109897 0.0339348)
(0.0123318 0.00728182 0.0726561)
(0.00792227 0.0184685 0.208835)
(0.0107323 0.024505 0.698789)
(-0.00158713 0.0213718 0.96114)
(-0.0139561 0.00567823 0.73304)
(-0.00701737 -0.000485254 0.193098)
(-0.0134116 -0.00536472 0.054731)
(0.0110158 -0.00657129 0.0878169)
(0.00967582 -0.00510241 0.239184)
(0.0321935 0.00391778 0.818811)
(0.0583513 0.0405767 2.59028)
(0.0142257 0.00676742 1.13041)
(0.00515598 -0.00293903 0.264733)
(0.00071802 -0.00469978 0.0724867)
(0.0116614 -0.0178531 0.065764)
(0.00572994 -0.0274101 0.208346)
(0.0114004 -0.0211304 0.700804)
(-0.00449421 0.0137657 1.06265)
(-0.0178336 -0.0029899 0.704595)
(-0.0049567 -0.00629165 0.185817)
(-0.0140768 -0.00364503 0.0490642)
(0.0203426 -0.022528 0.0393179)
(0.012189 -0.0252948 0.137073)
(0.00407692 -0.00835735 0.2136)
(-0.0144797 0.000716182 0.281088)
(-0.0258445 0.000532643 0.208237)
(-0.0251352 -0.00952385 0.12149)
(-0.0282195 -0.00940299 0.0310695)
(0.0216838 -0.026338 0.0278701)
(0.0113939 -0.0233778 0.0406722)
(-0.00054359 -0.00927238 0.0729391)
(-0.0134229 0.00255354 0.0907868)
(-0.0208547 -0.00403323 0.0595408)
(-0.0267276 -0.0142927 0.034151)
(-0.0323215 -0.0165072 0.0260994)
(0.0282377 0.0186387 0.0802561)
(0.016969 0.0150048 0.10622)
(0.00395266 0.00732553 0.150072)
(-0.0124253 -0.000840633 0.172006)
(-0.0220147 0.000423378 0.135882)
(-0.0297872 0.00670886 0.0962826)
(-0.0375488 0.0112185 0.0783237)
(0.0240999 0.0102497 0.102337)
(0.0128512 0.00834416 0.18459)
(0.00173866 -0.000979379 0.278846)
(-0.0148711 -0.0102772 0.335736)
(-0.0218859 -0.0116584 0.266153)
(-0.0241505 -0.00446924 0.156159)
(-0.0331404 0.000229828 0.0897205)
(0.0140901 0.00189849 0.145253)
(0.00194446 0.00361569 0.278044)
(-0.00915481 -0.00128082 0.625372)
(-0.0138204 -0.0160886 0.932944)
(-0.00717566 -0.0188334 0.608511)
(-0.00374052 -0.0123774 0.23768)
(-0.0207907 -0.00896737 0.114067)
(0.00591369 -0.00841416 0.171114)
(-0.00488392 -0.00811201 0.344951)
(-0.0239413 -0.00131743 0.928828)
(-0.0173305 0.0338845 2.68677)
(0.0219416 -0.00122744 1.0438)
(0.0157696 -0.00586724 0.30952)
(-0.0064929 -0.00614198 0.131573)
(0.00976553 -0.0153524 0.136417)
(-0.00518376 -0.0154559 0.277871)
(-0.0199089 -0.00010274 0.646432)
(-0.0159595 0.0568225 1.12474)
(0.00196929 0.016124 0.604956)
(0.00214472 0.00156788 0.229995)
(-0.0187788 -0.00268688 0.107423)
(0.0178309 -0.0199944 0.095124)
(0.0031081 -0.0155689 0.176034)
(-0.0121742 0.00190533 0.283364)
(-0.0152005 0.0212993 0.374174)
(-0.0106904 0.0106026 0.261288)
(-0.016973 -0.00404754 0.145971)
(-0.0284541 -0.0100528 0.0852554)
(0.0222694 -0.0254835 0.0758557)
(0.00915394 -0.0202053 0.098136)
(-0.00557942 -0.00708942 0.143507)
(-0.0118894 0.0108731 0.174152)
(-0.0139897 -0.00291578 0.125702)
(-0.0231102 -0.0135152 0.089444)
(-0.0321522 -0.0189485 0.0751242)
(0.0444818 0.0306796 0.166022)
(0.0278622 0.0224754 0.19534)
(0.00943956 0.0128995 0.244793)
(-0.00919315 0.00350131 0.272704)
(-0.0227337 0.0117533 0.227561)
(-0.0386625 0.0212786 0.184847)
(-0.0536515 0.0295539 0.16377)
(0.0382525 0.0154997 0.190395)
(0.0204494 0.00917232 0.267614)
(0.00239664 0.00168711 0.372623)
(-0.0135883 -0.0102111 0.433032)
(-0.0220677 -0.00317398 0.341723)
(-0.0345251 0.00550605 0.230029)
(-0.0510219 0.0137447 0.17653)
(0.0254066 0.000901745 0.238446)
(0.00951736 -0.00260886 0.374969)
(-0.009968 -0.00914564 0.647653)
(-0.0158898 -0.0298491 0.901736)
(-0.0166002 -0.0143125 0.573951)
(-0.0210258 -0.00731958 0.306562)
(-0.0427093 -0.00111832 0.197386)
(0.0114215 -0.00925215 0.271475)
(-0.00608302 -0.0102432 0.453311)
(-0.0449799 -0.00781081 0.983441)
(-0.049867 0.00868443 2.18244)
(-0.00458167 -0.0069423 0.823844)
(-0.00233714 -0.00913226 0.356657)
(-0.0332262 -0.00766758 0.210829)
(0.0213059 -0.0159751 0.228596)
(0.00120233 -0.013075 0.366522)
(-0.021734 0.000618309 0.650811)
(-0.0120689 0.0505551 1.02215)
(-0.00492602 0.00529135 0.568793)
(-0.0137771 -0.00802498 0.297379)
(-0.0390845 -0.0126626 0.192593)
(0.0323934 -0.0268635 0.183537)
(0.0110803 -0.0191899 0.254551)
(-0.010705 -0.00361571 0.367737)
(-0.0120858 0.0183904 0.446279)
(-0.00934613 -0.00180551 0.331484)
(-0.0264935 -0.0171704 0.218875)
(-0.0452614 -0.0254025 0.173502)
(0.0391494 -0.0395803 0.162564)
(0.0210568 -0.0309365 0.186239)
(0.000954094 -0.0167772 0.230712)
(-0.00733206 0.000845688 0.262687)
(-0.0136416 -0.0185544 0.213907)
(-0.0316357 -0.0315565 0.178506)
(-0.047745 -0.0397031 0.161545)
(0.0561184 0.047825 0.313255)
(0.0381589 0.038972 0.339644)
(0.0168842 0.0290627 0.384856)
(-0.0057269 0.0208789 0.412616)
(-0.0251279 0.0328049 0.366972)
(-0.0459691 0.0432755 0.329129)
(-0.0632696 0.0514209 0.309293)
(0.0537067 0.0278119 0.334652)
(0.0339071 0.0206326 0.403611)
(0.0114015 0.015388 0.506639)
(-0.0120298 0.00566608 0.558723)
(-0.0287425 0.0172936 0.466556)
(-0.0479568 0.0251445 0.363248)
(-0.0664093 0.0315792 0.320725)
(0.0439472 0.00705519 0.377319)
(0.0263753 0.00242721 0.510454)
(0.00235923 -0.000963831 0.745711)
(-0.0174169 -0.0170157 0.938099)
(-0.0351569 0.00323881 0.640515)
(-0.0454553 0.00731856 0.42561)
(-0.065604 0.0116083 0.336234)
(0.0296228 -0.00821478 0.411526)
(0.00845412 -0.0102939 0.587566)
(-0.0383045 -0.00812957 1.09007)
(-0.0595353 -0.00333449 1.75949)
(-0.0386828 -0.00902445 0.779143)
(-0.0377251 -0.0100909 0.464645)
(-0.062504 -0.00718643 0.345603)
(0.0418369 -0.0197688 0.367873)
(0.0204268 -0.0184083 0.49684)
(-0.00562394 -0.0114033 0.725411)
(-0.0127805 0.0162684 0.949488)
(-0.0257659 -0.0163455 0.627718)
(-0.0393495 -0.0228808 0.415655)
(-0.0626465 -0.0233939 0.332616)
(0.050778 -0.0371153 0.32819)
(0.0285899 -0.0316162 0.385976)
(0.0034088 -0.021339 0.487371)
(-0.00995954 -0.00545198 0.545801)
(-0.0195764 -0.0257035 0.447353)
(-0.0421824 -0.0369285 0.351851)
(-0.0624281 -0.0411663 0.317839)
(0.0543263 -0.0543644 0.309406)
(0.0349095 -0.0478456 0.329947)
(0.0124975 -0.0371178 0.365259)
(-0.00347466 -0.0249928 0.392028)
(-0.0191103 -0.0420222 0.35124)
(-0.0414984 -0.0528088 0.322629)
(-0.0602426 -0.0587602 0.306545)
(-0.0528298 0.0213684 -0.0028843)
(-0.0501049 0.0152956 -0.00158556)
(-0.0479002 0.0161042 -0.000567017)
(-0.0455676 0.0161057 -2.48451e-05)
(-0.0439913 0.0160551 0.00012051)
(-0.0427767 0.0160196 -6.67594e-05)
(-0.0415449 0.0157806 -0.000547568)
(-0.0407484 0.015703 -0.00117887)
(-0.0514538 0.0130487 -0.00499026)
(-0.054982 0.00732971 -0.00285679)
(-0.0512207 0.00872951 -0.00132544)
(-0.0487658 0.00930598 -0.000370973)
(-0.0471113 0.0094345 1.69529e-05)
(-0.0459894 0.00931488 5.79132e-05)
(-0.0445146 0.00903467 -0.000223428)
(-0.0436212 0.0088962 -0.00066172)
(-0.0423978 0.00420429 -0.00522802)
(-0.0530416 0.00177564 -0.00421092)
(-0.0475701 0.00299261 -0.00240442)
(-0.0468387 0.00382898 -0.000997992)
(-0.0454974 0.0043229 -0.000369748)
(-0.0439746 0.0044645 -0.000122903)
(-0.0433154 0.00443017 -0.000148576)
(-0.0425639 0.00444591 -0.0003668)
(-0.0412646 -0.00217116 -0.00434838)
(-0.0496517 -0.00188519 -0.00460554)
(-0.046841 -0.00240148 -0.00273421)
(-0.0436865 -0.00214068 -0.0011593)
(-0.043642 -0.00194408 -0.000440941)
(-0.0427242 -0.00170831 -0.000103946)
(-0.040612 -0.0014375 -0.000105392)
(-0.0401959 -0.00119376 -0.00024539)
(-0.0450792 -0.0085888 -0.00534732)
(-0.051609 -0.00540782 -0.00423254)
(-0.0480093 -0.00723297 -0.0025083)
(-0.0466855 -0.00776234 -0.000924565)
(-0.0453669 -0.00788807 -0.000302341)
(-0.0438256 -0.00769266 -7.06536e-05)
(-0.0427539 -0.00736782 -0.000110268)
(-0.0417192 -0.00704772 -0.000381684)
(-0.0545135 -0.0197784 -0.00514772)
(-0.0507933 -0.0120812 -0.00299528)
(-0.0507584 -0.0139852 -0.00142234)
(-0.0475609 -0.0140449 -0.000480413)
(-0.0456821 -0.0138489 -0.000108694)
(-0.0443264 -0.0134096 -0.000131018)
(-0.0427981 -0.012746 -0.000433462)
(-0.0418804 -0.0122992 -0.000900671)
(-0.0514078 -0.0284891 -0.00325311)
(-0.0488809 -0.0216123 -0.00174897)
(-0.0459032 -0.0205414 -0.000763857)
(-0.0433937 -0.0201929 -0.000335503)
(-0.0414533 -0.0196263 -0.000348623)
(-0.0403874 -0.0193474 -0.000661134)
(-0.0393427 -0.0189909 -0.00120072)
(-0.037918 -0.0183397 -0.00187157)
(-0.0388828 0.0100409 0.0266042)
(-0.0409466 0.0126324 0.0265388)
(-0.0427364 0.0148125 0.0254843)
(-0.044097 0.0164269 0.023568)
(-0.0449224 0.0175295 0.021081)
(-0.0452265 0.0181986 0.0182409)
(-0.045058 0.0185014 0.0151835)
(-0.0444605 0.0184766 0.0120306)
(-0.0372756 0.00252316 0.0249636)
(-0.0411672 0.00587568 0.0255644)
(-0.0439407 0.00831506 0.0250714)
(-0.0460718 0.0100636 0.0235603)
(-0.047396 0.0112391 0.021225)
(-0.0479416 0.0119454 0.0184332)
(-0.047795 0.0122789 0.0153607)
(-0.0470388 0.012304 0.012156)
(-0.0309117 -0.00409747 0.024054)
(-0.0376771 -0.000395755 0.0241556)
(-0.0420829 0.00183068 0.0246516)
(-0.0454149 0.00330292 0.0238922)
(-0.047528 0.00430199 0.0218211)
(-0.0485412 0.00494028 0.0190871)
(-0.0486414 0.00529759 0.0159521)
(-0.047949 0.00543362 0.0126373)
(-0.0258535 -0.00354456 0.0253551)
(-0.0346092 -0.00315663 0.0235043)
(-0.0402181 -0.00294984 0.0243861)
(-0.0442261 -0.00272005 0.0240332)
(-0.0468173 -0.00247062 0.0221356)
(-0.0481083 -0.00221956 0.019454)
(-0.0483449 -0.00197998 0.0163443)
(-0.0477316 -0.00175723 0.0130159)
(-0.0305809 -0.00342972 0.023653)
(-0.0368433 -0.00614861 0.0241577)
(-0.0411271 -0.00781927 0.0247149)
(-0.0443289 -0.00879119 0.024174)
(-0.0463546 -0.00930293 0.0221704)
(-0.0473115 -0.00948269 0.0194756)
(-0.0473723 -0.0094192 0.0163834)
(-0.0466581 -0.00917256 0.0130791)
(-0.0352959 -0.0102936 0.0245926)
(-0.0388509 -0.012709 0.0253869)
(-0.0416307 -0.0145605 0.0250424)
(-0.0436521 -0.0157761 0.0235913)
(-0.044894 -0.0164506 0.0213613)
(-0.045389 -0.0166851 0.0186393)
(-0.0452239 -0.0165745 0.0156437)
(-0.0444749 -0.016185 0.0125049)
(-0.0358327 -0.0169904 0.0258035)
(-0.0377672 -0.0191298 0.0258042)
(-0.0394765 -0.0208206 0.0247332)
(-0.0407126 -0.0219918 0.0228319)
(-0.0414263 -0.0226714 0.0204186)
(-0.0416426 -0.0229358 0.017675)
(-0.0414071 -0.022846 0.0147312)
(-0.0407598 -0.0224359 0.0117044)
(-0.0440893 0.0153438 0.0694092)
(-0.0483221 0.0207406 0.0627268)
(-0.0520514 0.025038 0.0550157)
(-0.0550729 0.0284081 0.046285)
(-0.0573325 0.0309788 0.0369007)
(-0.0588392 0.032838 0.0272922)
(-0.0595689 0.0340099 0.0179312)
(-0.0594159 0.0344343 0.00934925)
(-0.0421986 0.00587142 0.0730416)
(-0.0490497 0.0114248 0.0651553)
(-0.0544333 0.0154581 0.0573635)
(-0.0587673 0.0185363 0.048553)
(-0.0620148 0.0208408 0.0388688)
(-0.0642086 0.0224802 0.0287597)
(-0.0653349 0.0235019 0.0187777)
(-0.0652692 0.02388 0.00957855)
(-0.036014 -0.00242119 0.0774877)
(-0.0458989 0.00238779 0.0675124)
(-0.0533824 0.00542643 0.0597655)
(-0.0592737 0.00763096 0.0511371)
(-0.0636518 0.00926905 0.0414041)
(-0.0666276 0.0104527 0.0310099)
(-0.0682514 0.0112338 0.0205829)
(-0.0684189 0.0116146 0.0108864)
(-0.0303045 -0.00443539 0.0797331)
(-0.0427913 -0.00372459 0.0684525)
(-0.0516284 -0.00327546 0.0607767)
(-0.058417 -0.00287371 0.0522774)
(-0.0634216 -0.00248625 0.0425695)
(-0.0668295 -0.00212294 0.0321039)
(-0.0687442 -0.00179181 0.0215404)
(-0.0690802 -0.00149544 0.011681)
(-0.0343106 -0.0065028 0.0764566)
(-0.0440669 -0.00983917 0.067503)
(-0.0515788 -0.0119521 0.0599806)
(-0.0575546 -0.0133522 0.0514243)
(-0.0620367 -0.0142432 0.041725)
(-0.0651315 -0.0147508 0.0313522)
(-0.0668803 -0.014936 0.0209356)
(-0.0671694 -0.0148025 0.0112391)
(-0.0384416 -0.0142118 0.0719688)
(-0.0454464 -0.0186053 0.0647891)
(-0.0510224 -0.0217804 0.0571856)
(-0.0555078 -0.0240875 0.0484537)
(-0.0589152 -0.0257001 0.0388334)
(-0.0612831 -0.0267322 0.0287767)
(-0.0625954 -0.027232 0.0188356)
(-0.0627241 -0.0271723 0.00966956)
(-0.0393567 -0.0227915 0.0674167)
(-0.0437414 -0.0275828 0.0608229)
(-0.047631 -0.0313055 0.0530523)
(-0.0507553 -0.0341316 0.0442917)
(-0.0531023 -0.036194 0.0349383)
(-0.0546977 -0.0375784 0.0254145)
(-0.0555297 -0.0383092 0.0161796)
(-0.0554987 -0.038326 0.00775993)
(-0.0659985 0.0368298 0.150185)
(-0.0735383 0.0459774 0.139326)
(-0.0805111 0.0536047 0.127418)
(-0.0861798 0.059593 0.114517)
(-0.0901447 0.0638329 0.100794)
(-0.0919823 0.0661477 0.0862847)
(-0.0911723 0.0662845 0.070673)
(-0.0871652 0.0639095 0.0532102)
(-0.0658591 0.0206912 0.157386)
(-0.077204 0.0284711 0.145167)
(-0.0869271 0.0348089 0.133005)
(-0.0950331 0.0398143 0.11992)
(-0.10099 0.0434319 0.105861)
(-0.104228 0.0455562 0.0908188)
(-0.104062 0.0459319 0.0744425)
(-0.0997338 0.0442611 0.0558113)
(-0.0615774 0.00575868 0.164199)
(-0.0760004 0.011161 0.150185)
(-0.0882569 0.0152695 0.137965)
(-0.09853 0.0185113 0.124975)
(-0.10624 0.0209155 0.110877)
(-0.11076 0.0223869 0.0956377)
(-0.111281 0.0228042 0.0788716)
(-0.106908 0.0220214 0.0595422)
(-0.0573499 -0.00547155 0.167195)
(-0.0737376 -0.0045915 0.152263)
(-0.08732 -0.00400956 0.140118)
(-0.0986419 -0.00348739 0.127268)
(-0.107165 -0.00299642 0.113261)
(-0.11227 -0.00253736 0.098046)
(-0.113133 -0.00211068 0.0812265)
(-0.108811 -0.00171269 0.0617255)
(-0.058802 -0.0163262 0.163832)
(-0.0733615 -0.0200415 0.15076)
(-0.0858286 -0.0229369 0.138878)
(-0.0963171 -0.025085 0.126129)
(-0.104239 -0.0264858 0.112269)
(-0.108959 -0.0270808 0.0972626)
(-0.109666 -0.0267391 0.0807123)
(-0.105456 -0.0252886 0.0615683)
(-0.0609066 -0.0303522 0.157434)
(-0.07253 -0.0367959 0.146074)
(-0.0825846 -0.0420496 0.134397)
(-0.0909913 -0.0461032 0.121759)
(-0.0972415 -0.048876 0.108161)
(-0.100772 -0.0502104 0.0935837)
(-0.100891 -0.0498524 0.0776442)
(-0.096843 -0.0474866 0.0593923)
(-0.0606972 -0.0456623 0.149676)
(-0.0685149 -0.0537372 0.139288)
(-0.0757279 -0.0603818 0.127813)
(-0.0815589 -0.0655 0.115402)
(-0.0856229 -0.0689839 0.10221)
(-0.0875271 -0.0706462 0.0882296)
(-0.0867963 -0.0701866 0.0731105)
(-0.0829102 -0.0672216 0.0560639)
(-0.0759207 0.0581098 0.293455)
(-0.0828412 0.068858 0.277559)
(-0.0902815 0.079036 0.255922)
(-0.0974332 0.0883664 0.226705)
(-0.104351 0.0968322 0.188567)
(-0.111971 0.10505 0.140895)
(-0.121684 0.113901 0.0839988)
(-0.130511 0.120634 0.0195916)
(-0.0811383 0.0367657 0.301944)
(-0.0918869 0.0450926 0.286092)
(-0.10232 0.0529662 0.265842)
(-0.112426 0.0601714 0.238189)
(-0.122124 0.0665752 0.200965)
(-0.132483 0.0725343 0.152869)
(-0.145436 0.0788071 0.0937659)
(-0.157522 0.0836798 0.0251749)
(-0.0818826 0.0159906 0.308666)
(-0.0953437 0.0211928 0.292169)
(-0.108194 0.0259039 0.272982)
(-0.120566 0.0301504 0.246769)
(-0.13236 0.0338577 0.210609)
(-0.144707 0.037181 0.162577)
(-0.159838 0.0405449 0.102142)
(-0.174007 0.0431171 0.0307126)
(-0.080804 -0.0046929 0.31151)
(-0.0956221 -0.00347285 0.294587)
(-0.1096 -0.00245434 0.275822)
(-0.123008 -0.00153149 0.250207)
(-0.135715 -0.000735819 0.214526)
(-0.148878 -0.000118524 0.166609)
(-0.164828 0.000288803 0.105767)
(-0.179718 0.000490236 0.0333568)
(-0.0799155 -0.0242295 0.308144)
(-0.0937731 -0.0271264 0.292387)
(-0.107116 -0.0299568 0.273489)
(-0.120004 -0.0325343 0.247448)
(-0.132281 -0.0348411 0.211417)
(-0.145039 -0.0371085 0.163491)
(-0.160467 -0.0397969 0.103148)
(-0.174782 -0.0420546 0.0317973)
(-0.0781454 -0.0437968 0.301466)
(-0.0896711 -0.0500852 0.28628)
(-0.100977 -0.0560407 0.266359)
(-0.112012 -0.0615086 0.238949)
(-0.122626 -0.0664608 0.201944)
(-0.1338 -0.0713419 0.154064)
(-0.147371 -0.0769663 0.0951905)
(-0.159788 -0.0816184 0.0268543)
(-0.0739804 -0.0632809 0.292243)
(-0.0817845 -0.072124 0.276516)
(-0.0902479 -0.0804403 0.254884)
(-0.0985097 -0.0880958 0.225667)
(-0.106512 -0.0951564 0.187586)
(-0.115101 -0.102329 0.140065)
(-0.125579 -0.110565 0.0834521)
(-0.134873 -0.117152 0.0194718)
(0.0367064 -0.0377411 -0.00180477)
(0.0342046 -0.0350988 -0.000902704)
(0.0315616 -0.0320575 -0.000554931)
(0.0305926 -0.0312628 -0.000556896)
(0.0293453 -0.0305678 -0.000933869)
(0.0283476 -0.0298859 -0.00156901)
(0.0275158 -0.0291771 -0.00236553)
(0.0266242 -0.0283548 -0.00325551)
(0.0441218 -0.0289319 -0.00191528)
(0.0381511 -0.0236439 -0.00137837)
(0.0357534 -0.0227773 -0.000565294)
(0.0342581 -0.0218987 -0.000185089)
(0.0334006 -0.0209063 -0.000188229)
(0.0311015 -0.0192063 -0.000463511)
(0.0330546 -0.0199419 -0.000648451)
(0.0303519 -0.018501 -0.00078006)
(0.0449626 -0.0150334 -0.000334332)
(0.0429256 -0.0140409 -0.000267248)
(0.0381152 -0.0152485 0.000825798)
(0.0333972 -0.0148898 0.00125198)
(0.0331244 -0.0161286 0.00146711)
(0.0304706 -0.0169664 0.00100381)
(0.029262 -0.017501 0.000312827)
(0.0276248 -0.0180615 -0.000398102)
(0.0454949 -0.00423318 0.00260069)
(0.0469043 -0.00307527 0.00252863)
(0.0406097 -0.00365211 0.00410453)
(0.0367699 -0.00409919 0.00512761)
(0.0348319 -0.00355041 0.00569666)
(0.0322444 -0.00312849 0.00561233)
(0.0298932 -0.00279753 0.0051547)
(0.0277246 -0.002509 0.00461232)
(0.0445793 0.00727839 -4.87831e-05)
(0.0445584 0.00734906 0.000750695)
(0.0401222 0.00872437 0.00264967)
(0.0349026 0.00895176 0.00306595)
(0.0320886 0.0100405 0.00283077)
(0.0309969 0.01139 0.0024344)
(0.0295421 0.0121336 0.00175754)
(0.0276291 0.0125904 0.000952666)
(0.0417598 0.0185185 -0.00215854)
(0.0411418 0.0162073 -0.000934839)
(0.0365817 0.0168753 -7.06145e-05)
(0.035521 0.0174249 0.000226904)
(0.0329343 0.0164301 8.45335e-05)
(0.0324695 0.0163773 1.03076e-05)
(0.0322075 0.0166661 -0.000139656)
(0.0317988 0.0169015 -0.000360095)
(0.0401545 0.0300969 -0.00144341)
(0.0376791 0.0265602 -0.000626984)
(0.0352931 0.0262576 -0.000215887)
(0.0342761 0.0263183 -0.000259603)
(0.0330497 0.0255304 -0.000706477)
(0.0327495 0.0254146 -0.00137982)
(0.0319193 0.0251817 -0.00223682)
(0.0310434 0.0248944 -0.00321711)
(0.0262287 -0.0255939 0.0265957)
(0.028252 -0.0267519 0.0256859)
(0.0302121 -0.0276756 0.0238928)
(0.0317212 -0.0283541 0.0213876)
(0.0326718 -0.028716 0.0184247)
(0.0331036 -0.0287644 0.0152167)
(0.0330658 -0.0285117 0.0118691)
(0.0325853 -0.0279666 0.00845377)
(0.0273802 -0.0201008 0.0283353)
(0.0298825 -0.0207262 0.0272015)
(0.0321207 -0.0214391 0.0259526)
(0.0339076 -0.0220562 0.0237767)
(0.035071 -0.0224717 0.0209274)
(0.0355789 -0.022672 0.0177113)
(0.0355064 -0.0226676 0.0142481)
(0.0347955 -0.0224003 0.010803)
(0.0260572 -0.0124535 0.0333222)
(0.0293298 -0.012531 0.0298882)
(0.031792 -0.0129508 0.0292089)
(0.0336738 -0.0133579 0.0280188)
(0.0348752 -0.0137177 0.0259201)
(0.0352122 -0.0139487 0.0232349)
(0.0348387 -0.0140484 0.0202446)
(0.0338208 -0.0140402 0.0171464)
(0.025912 -0.00491213 0.0397995)
(0.0296025 -0.0040869 0.0327595)
(0.0319719 -0.00371297 0.0322764)
(0.0337595 -0.00342761 0.0316453)
(0.034828 -0.00312538 0.0303328)
(0.0349761 -0.00282669 0.0284083)
(0.0343175 -0.00253858 0.0260707)
(0.0329899 -0.00225738 0.0235094)
(0.0266696 0.00281394 0.0368255)
(0.0305158 0.00434905 0.0320009)
(0.0328352 0.00565994 0.030758)
(0.0345358 0.006816 0.029361)
(0.0355669 0.00789317 0.027336)
(0.0358797 0.00883058 0.0246928)
(0.0354388 0.00955803 0.0216562)
(0.0343421 0.0100905 0.0184872)
(0.0299826 0.0115812 0.0304602)
(0.0326463 0.0132158 0.0287072)
(0.0347026 0.0146319 0.0271032)
(0.0364057 0.0158551 0.0247632)
(0.0375007 0.0168078 0.0218824)
(0.0379975 0.0175153 0.0185994)
(0.0378636 0.0179586 0.0150086)
(0.0371345 0.0181286 0.011319)
(0.0299215 0.0188565 0.0282722)
(0.0318663 0.0204619 0.0270429)
(0.0337285 0.0219136 0.0249837)
(0.0352158 0.0230578 0.0221911)
(0.0361869 0.0238419 0.0189762)
(0.0366602 0.0242935 0.0155167)
(0.0366495 0.0244258 0.0119357)
(0.0361897 0.0242556 0.00832801)
(0.0306099 -0.0278532 0.0669677)
(0.0355296 -0.031704 0.0599106)
(0.0399314 -0.0348123 0.0517217)
(0.0435271 -0.0372128 0.0424051)
(0.0462641 -0.0389734 0.0324134)
(0.0481646 -0.0401477 0.0222322)
(0.0492176 -0.0407396 0.0123796)
(0.0493362 -0.0406819 0.00343624)
(0.0290915 -0.0208513 0.0742147)
(0.0361206 -0.0235373 0.0658874)
(0.0417662 -0.0256712 0.0581986)
(0.0464881 -0.027342 0.0493412)
(0.0502008 -0.0285164 0.0394248)
(0.0528916 -0.0292185 0.0289276)
(0.0545181 -0.0294583 0.0184494)
(0.0549435 -0.0291965 0.00871187)
(0.0256786 -0.0128506 0.0850663)
(0.0341428 -0.0137427 0.0722819)
(0.0406591 -0.0146088 0.0650988)
(0.0460759 -0.0153421 0.0573771)
(0.0503653 -0.0158462 0.0483568)
(0.0534649 -0.0161036 0.0383663)
(0.0553395 -0.0161248 0.0280372)
(0.0558456 -0.0159005 0.0181846)
(0.0234197 -0.00563129 0.0956219)
(0.0327811 -0.00412021 0.0763903)
(0.0395453 -0.00335485 0.0689755)
(0.0451337 -0.00279937 0.0621583)
(0.0494908 -0.00228392 0.054057)
(0.0525618 -0.00179154 0.0448234)
(0.0543474 -0.00134554 0.0350707)
(0.0547206 -0.000962206 0.02562)
(0.0277802 0.00234603 0.0893087)
(0.0357251 0.0057002 0.0740288)
(0.0419843 0.00805124 0.0664242)
(0.047159 0.00992339 0.0585717)
(0.0512717 0.011429 0.0494994)
(0.0542225 0.0125539 0.0394418)
(0.0559669 0.0133063 0.0290232)
(0.0563643 0.0136842 0.0190665)
(0.0335009 0.0124334 0.0770496)
(0.0398754 0.0163965 0.0675744)
(0.0450569 0.0194253 0.0596056)
(0.0494138 0.0218656 0.050618)
(0.0528288 0.0237301 0.0405633)
(0.0552694 0.0250411 0.0299)
(0.0566684 0.0258124 0.0192353)
(0.0568829 0.0260128 0.00930177)
(0.035492 0.0214629 0.0695714)
(0.0398887 0.025939 0.0622606)
(0.0438891 0.0296067 0.054023)
(0.0472122 0.0325307 0.0446325)
(0.0497449 0.0347604 0.0345218)
(0.051479 0.0363486 0.024182)
(0.0523924 0.0373072 0.0141387)
(0.0523879 0.0375732 0.00497671)
(0.0531894 -0.0449236 0.149364)
(0.0621955 -0.0527078 0.138437)
(0.0703677 -0.0591324 0.126517)
(0.0770346 -0.0640544 0.113576)
(0.0817841 -0.0673639 0.099815)
(0.0842294 -0.0688621 0.0852576)
(0.0838979 -0.0682314 0.0695593)
(0.0802739 -0.0651048 0.0519069)
(0.0499811 -0.0305229 0.159952)
(0.0629602 -0.0361346 0.147332)
(0.0740767 -0.0406964 0.135482)
(0.0835901 -0.0441412 0.122657)
(0.0908917 -0.0463257 0.108763)
(0.0953742 -0.0471009 0.0938282)
(0.0963018 -0.046217 0.0775133)
(0.0928851 -0.0433688 0.0588733)
(0.0438865 -0.0165372 0.17346)
(0.0596192 -0.0192652 0.156015)
(0.0727344 -0.0214192 0.144311)
(0.0841222 -0.0230195 0.13234)
(0.0931108 -0.0239383 0.119198)
(0.0989099 -0.0240978 0.104829)
(0.100621 -0.0233775 0.0889175)
(0.0972754 -0.0216102 0.0704582)
(0.0385805 -0.00573215 0.185762)
(0.056639 -0.00404903 0.160706)
(0.070769 -0.00314766 0.148605)
(0.0827672 -0.0024531 0.137267)
(0.0922822 -0.00182789 0.124828)
(0.0984652 -0.00129147 0.111139)
(0.100378 -0.000851392 0.0958967)
(0.0970234 -0.000498492 0.0781124)
(0.0457568 0.00579734 0.176434)
(0.0611729 0.0114295 0.156625)
(0.0740769 0.0153396 0.144316)
(0.0852879 0.0182723 0.132007)
(0.0941483 0.0202856 0.118564)
(0.0998455 0.0213471 0.103896)
(0.101479 0.0213632 0.0877)
(0.0980598 0.0201973 0.0689993)
(0.0542384 0.0214222 0.161541)
(0.0665883 0.0286937 0.147474)
(0.0772154 0.0345061 0.134997)
(0.0863941 0.0390164 0.12165)
(0.0934321 0.042121 0.107221)
(0.0976778 0.0437008 0.0917558)
(0.0983733 0.0435332 0.074953)
(0.0947241 0.0413409 0.0558999)
(0.0575426 0.0375403 0.150484)
(0.0660423 0.046398 0.138999)
(0.0738497 0.0537253 0.126672)
(0.0802782 0.0594252 0.113254)
(0.0848732 0.0634174 0.0989611)
(0.0872 0.0655329 0.0838699)
(0.0867385 0.0654817 0.0676873)
(0.0829407 0.0629207 0.0496442)
(0.0691761 -0.0587198 0.293933)
(0.0784452 -0.0673124 0.277894)
(0.0879599 -0.0752357 0.256268)
(0.0970564 -0.0824724 0.227115)
(0.105661 -0.0891812 0.189013)
(0.114621 -0.0961201 0.141234)
(0.125268 -0.104286 0.0839857)
(0.134591 -0.11101 0.0189149)
(0.0686248 -0.0395249 0.305984)
(0.082243 -0.0452182 0.289848)
(0.095163 -0.0503433 0.27008)
(0.107677 -0.0548714 0.243014)
(0.11955 -0.0589019 0.206215)
(0.131696 -0.0630043 0.15814)
(0.145943 -0.0680978 0.0984382)
(0.158815 -0.0725647 0.028499)
(0.0641613 -0.02025 0.319109)
(0.0808064 -0.0228371 0.299733)
(0.0961668 -0.0249923 0.280956)
(0.111156 -0.0267641 0.25573)
(0.125508 -0.0282253 0.220382)
(0.14017 -0.0297606 0.172594)
(0.157236 -0.0319685 0.111567)
(0.172846 -0.0341142 0.0385737)
(0.0582785 -0.00418411 0.330117)
(0.0780279 -0.00230224 0.305089)
(0.0946535 -0.00111376 0.286082)
(0.11064 -0.000199501 0.261788)
(0.125963 0.000496407 0.227539)
(0.141616 0.000941128 0.180588)
(0.159793 0.00113126 0.119877)
(0.176371 0.0011032 0.0464979)
(0.0650152 0.0128822 0.321638)
(0.0814664 0.0187154 0.300308)
(0.0965091 0.0230262 0.280911)
(0.111137 0.026513 0.25538)
(0.125131 0.0293023 0.21984)
(0.139456 0.0317348 0.171929)
(0.156228 0.034395 0.110819)
(0.171647 0.0365944 0.0377268)
(0.0704352 0.0335481 0.307696)
(0.0833364 0.0416358 0.29035)
(0.0954872 0.0488095 0.270097)
(0.107185 0.055146 0.242724)
(0.118229 0.0606606 0.205679)
(0.129613 0.0658368 0.157388)
(0.143265 0.0715371 0.097466)
(0.155806 0.0761503 0.0272531)
(0.0698006 0.0546043 0.295817)
(0.0781213 0.0651748 0.279552)
(0.086631 0.074989 0.257959)
(0.0946727 0.0839232 0.228848)
(0.102243 0.092054 0.190706)
(0.11027 0.100046 0.14275)
(0.120188 0.10882 0.0851414)
(0.129106 0.115673 0.0195061)
(0.0334166 0.0362559 -0.00108519)
(0.0313721 0.0330117 -0.000115239)
(0.0315812 0.0303546 0.000545814)
(0.032124 0.0284599 0.000759929)
(0.0325073 0.0266216 0.000619435)
(0.0330744 0.0254406 0.000270356)
(0.0331498 0.0240976 -0.00031547)
(0.0329002 0.022777 -0.0010644)
(0.0204564 0.0396396 -0.00157161)
(0.0186429 0.036412 -0.000540828)
(0.0188197 0.031213 0.000311833)
(0.0189853 0.0292236 0.000894937)
(0.0185119 0.0271357 0.000954958)
(0.0183058 0.0260856 0.00085788)
(0.0186522 0.0260711 0.00074073)
(0.0182207 0.0248842 0.000517908)
(0.0051026 0.0413021 -0.000102226)
(0.00502951 0.0397332 1.60503e-05)
(0.00797343 0.0323821 0.00178436)
(0.0096068 0.0270787 0.00351802)
(0.0123661 0.0254864 0.00543152)
(0.0139499 0.0225978 0.00588489)
(0.0148714 0.0209495 0.00540094)
(0.0159386 0.020151 0.0047845)
(-0.00865442 0.0385422 0.0012086)
(-0.00887138 0.0412347 0.00260453)
(-0.00918033 0.0351597 0.00610297)
(-0.00882599 0.0301916 0.0079397)
(-0.00797809 0.0279604 0.00906673)
(-0.00729933 0.0253082 0.00946545)
(-0.00634342 0.0229703 0.00936931)
(-0.00547464 0.0209094 0.00894479)
(-0.0194539 0.036993 -0.00195104)
(-0.0183466 0.0369834 -0.000807735)
(-0.0187886 0.0293008 0.000732709)
(-0.0193385 0.0250014 0.00208751)
(-0.022076 0.0245276 0.00359884)
(-0.0229144 0.0218632 0.00398386)
(-0.0242496 0.0205936 0.00393247)
(-0.0243544 0.0199087 0.00360006)
(-0.0349524 0.0364439 -0.00275623)
(-0.0326517 0.0323709 -0.00115445)
(-0.0327706 0.0279538 7.34767e-05)
(-0.0312296 0.0254025 0.000807294)
(-0.0293128 0.0240945 0.00107287)
(-0.0287498 0.0243758 0.00115091)
(-0.0261995 0.0224676 0.000922314)
(-0.0261867 0.0232247 0.000901182)
(-0.0468327 0.0325885 -0.00230309)
(-0.0424442 0.0269956 -0.00104035)
(-0.0421956 0.0251414 7.24844e-05)
(-0.0419968 0.0231717 0.000831745)
(-0.0419665 0.0214203 0.00124388)
(-0.0421531 0.0198076 0.00138095)
(-0.0422933 0.0178781 0.00125706)
(-0.042141 0.0165337 0.000887356)
(0.0252452 0.0219509 0.0301314)
(0.0274224 0.0233584 0.0293455)
(0.0293351 0.024829 0.0277468)
(0.0309005 0.0260193 0.0253866)
(0.032029 0.0268092 0.0225487)
(0.0327048 0.0272167 0.0194115)
(0.0329381 0.0272616 0.0160918)
(0.0327634 0.0269768 0.0127097)
(0.0152625 0.0221463 0.0342466)
(0.0174215 0.0235479 0.033283)
(0.0191171 0.0248954 0.0326256)
(0.0206239 0.0262283 0.0312671)
(0.0218971 0.0272263 0.0291713)
(0.0229257 0.0278351 0.0265857)
(0.023688 0.0280194 0.0236647)
(0.024167 0.0277446 0.0206074)
(0.00235567 0.0185129 0.0419563)
(0.00477945 0.0209648 0.0375871)
(0.00662524 0.0227584 0.03759)
(0.00819409 0.0243415 0.0372927)
(0.00964743 0.0254426 0.0359241)
(0.0108521 0.0258751 0.0338526)