/*--------------------------------*- C++ -*----------------------------------*\
| =========                 |                                                 |
| \\      /  F ield         | OpenFOAM: The Open Source CFD Toolbox           |
|  \\    /   O peration     | Version:  plus.master.MPPICInterFoam            |
|   \\  /    A nd           | Web:      www.OpenFOAM.com                      |
|    \\/     M anipulation  |                                                 |
\*---------------------------------------------------------------------------*/
FoamFile
{
    version     2.0;
    format      ascii;
    class       volScalarField;
    location    "1.8";
    object      epsilon;
}
// * * * * * * * * * * * * * * * * * * * * * * * * * * * * * * * * * * * * * //

dimensions      [0 2 -3 0 0 0 0];

internalField   nonuniform List<scalar> 
11821
(
0.00027459
0.000230402
0.000250506
0.000269865
0.000283385
0.000290803
0.000292497
0.00028846
0.000274519
0.000230378
0.000250488
0.000269851
0.000283374
0.000290798
0.000292498
0.000288468
0.000274474
0.000230363
0.000250476
0.000269839
0.000283363
0.000290785
0.000292483
0.000288448
0.000274453
0.000230357
0.000250474
0.00026984
0.000283367
0.000290794
0.000292496
0.000288465
0.000274439
0.000230352
0.000250473
0.00026984
0.000283367
0.000290795
0.000292498
0.00028847
0.000274441
0.000230353
0.000250477
0.000269843
0.000283366
0.000290789
0.000292485
0.000288449
0.000274468
0.000230363
0.000250489
0.000269855
0.000283378
0.0002908
0.000292499
0.000288468
0.000274518
0.00023038
0.000250489
0.000269849
0.000283367
0.000290785
0.000292478
0.00028844
0.000274459
0.000230364
0.000250477
0.000269839
0.000283361
0.000290782
0.000292478
0.000288442
0.00027443
0.000230353
0.000250469
0.000269834
0.000283359
0.000290785
0.000292486
0.000288457
0.000274401
0.000230342
0.000250461
0.000269828
0.000283354
0.00029078
0.000292481
0.000288452
0.000274387
0.000230337
0.00025046
0.000269828
0.000283354
0.00029078
0.000292481
0.00028845
0.000274386
0.000230337
0.000250464
0.000269833
0.000283358
0.000290784
0.000292485
0.000288455
0.000274396
0.000230343
0.000250473
0.000269839
0.000283361
0.000290781
0.000292476
0.000288438
0.000274472
0.000230371
0.000250483
0.000269843
0.000283362
0.00029078
0.000292474
0.000288437
0.000274423
0.000230357
0.000250471
0.000269834
0.000283355
0.000290776
0.000292472
0.000288437
0.000274394
0.000230346
0.000250463
0.000269826
0.000283349
0.000290771
0.000292468
0.000288434
0.000274371
0.000230338
0.000250458
0.000269823
0.000283347
0.000290771
0.000292471
0.00028844
0.000274357
0.000230333
0.000250456
0.000269823
0.000283348
0.000290773
0.000292473
0.000288442
0.000274354
0.000230332
0.000250459
0.000269826
0.00028335
0.000290774
0.000292473
0.00028844
0.000274361
0.000230336
0.000250466
0.000269833
0.000283356
0.000290777
0.000292475
0.000288441
0.00027445
0.000230373
0.000250485
0.000269844
0.000283361
0.000290778
0.00029247
0.000288432
0.000274409
0.000230361
0.000250476
0.000269837
0.000283356
0.000290774
0.000292468
0.000288431
0.000274384
0.000230352
0.000250468
0.00026983
0.00028335
0.00029077
0.000292467
0.000288432
0.000274362
0.000230343
0.000250462
0.000269824
0.000283345
0.000290767
0.000292464
0.000288431
0.000274349
0.000230338
0.00025046
0.000269823
0.000283345
0.000290767
0.000292465
0.000288432
0.000274346
0.000230337
0.000250462
0.000269826
0.000283348
0.000290769
0.000292467
0.000288433
0.00027435
0.00023034
0.000250468
0.000269832
0.000283352
0.000290772
0.000292467
0.000288431
0.000274442
0.000230381
0.000250492
0.000269848
0.000283363
0.000290777
0.000292468
0.000288428
0.000274411
0.000230373
0.000250485
0.000269842
0.000283358
0.000290774
0.000292467
0.000288429
0.00027439
0.000230364
0.000250477
0.000269835
0.000283352
0.00029077
0.000292464
0.000288428
0.00027437
0.000230355
0.00025047
0.000269829
0.000283347
0.000290766
0.000292461
0.000288427
0.000274356
0.000230348
0.000250467
0.000269827
0.000283345
0.000290764
0.00029246
0.000288426
0.00027435
0.000230347
0.000250468
0.000269828
0.000283347
0.000290765
0.000292461
0.000288426
0.000274352
0.000230349
0.000250473
0.000269834
0.000283351
0.000290769
0.000292463
0.000288427
0.000274437
0.000230385
0.000250494
0.000269848
0.00028336
0.000290773
0.000292463
0.000288423
0.000274414
0.000230379
0.000250488
0.000269843
0.000283357
0.000290771
0.000292463
0.000288425
0.000274396
0.000230371
0.000250482
0.000269838
0.000283353
0.000290769
0.000292462
0.000288426
0.000274377
0.000230362
0.000250475
0.000269833
0.000283349
0.000290766
0.00029246
0.000288425
0.000274362
0.000230356
0.000250472
0.00026983
0.000283347
0.000290764
0.000292459
0.000288423
0.000274356
0.000230354
0.000250473
0.000269831
0.000283347
0.000290764
0.000292458
0.000288423
0.000274356
0.000230356
0.000250476
0.000269835
0.00028335
0.000290766
0.000292459
0.000288422
0.000274425
0.000230382
0.00025049
0.000269844
0.000283356
0.000290769
0.00029246
0.000288421
0.000274403
0.000230374
0.000250484
0.000269839
0.000283353
0.000290768
0.00029246
0.000288422
0.000274388
0.000230367
0.00025048
0.000269836
0.000283351
0.000290767
0.00029246
0.000288424
0.000274373
0.000230362
0.000250476
0.000269833
0.000283349
0.000290766
0.00029246
0.000288424
0.000274362
0.000230358
0.000250474
0.000269832
0.000283349
0.000290766
0.00029246
0.000288424
0.000274357
0.000230357
0.000250475
0.000269833
0.000283349
0.000290765
0.000292459
0.000288423
0.000274355
0.000230357
0.000250476
0.000269835
0.00028335
0.000290766
0.000292459
0.000288422
0.000274409
0.000230375
0.000250487
0.000269842
0.000283355
0.00029077
0.000292461
0.000288423
0.000274387
0.000230367
0.000250481
0.000269837
0.000283352
0.000290768
0.00029246
0.000288423
0.000274374
0.000230362
0.000250477
0.000269835
0.00028335
0.000290767
0.00029246
0.000288423
0.000274364
0.000230359
0.000250476
0.000269834
0.00028335
0.000290767
0.000292461
0.000288424
0.000274358
0.000230358
0.000250476
0.000269835
0.000283351
0.000290768
0.000292462
0.000288425
0.000274354
0.000230357
0.000250477
0.000269835
0.000283352
0.000290768
0.000292462
0.000288425
0.00027435
0.000230355
0.000250477
0.000269836
0.000283351
0.000290768
0.000292461
0.000288424
0.000274399
0.000230373
0.000250487
0.000269844
0.000283359
0.000290773
0.000292465
0.000288426
0.000274378
0.000230366
0.000250482
0.00026984
0.000283355
0.00029077
0.000292462
0.000288425
0.000274368
0.000230362
0.000250479
0.000269838
0.000283353
0.000290769
0.000292461
0.000288424
0.000274361
0.00023036
0.000250479
0.000269837
0.000283353
0.000290769
0.000292461
0.000288424
0.000274356
0.00023036
0.000250479
0.000269838
0.000283353
0.00029077
0.000292462
0.000288425
0.000274352
0.000230359
0.000250479
0.000269838
0.000283354
0.00029077
0.000292463
0.000288426
0.000274347
0.000230357
0.000250479
0.000269839
0.000283354
0.00029077
0.000292463
0.000288425
0.000274396
0.000230375
0.000250491
0.000269848
0.000283362
0.000290775
0.000292465
0.000288425
0.000274378
0.00023037
0.000250487
0.000269844
0.000283359
0.000290773
0.000292464
0.000288424
0.000274371
0.000230367
0.000250484
0.000269842
0.000283357
0.000290771
0.000292462
0.000288423
0.000274365
0.000230365
0.000250483
0.000269841
0.000283355
0.00029077
0.000292461
0.000288423
0.000274359
0.000230363
0.000250482
0.000269841
0.000283356
0.00029077
0.000292462
0.000288423
0.000274354
0.000230362
0.000250482
0.000269841
0.000283356
0.000290771
0.000292462
0.000288424
0.000274349
0.000230361
0.000250483
0.000269842
0.000283357
0.000290772
0.000292463
0.000288424
0.000274397
0.000230379
0.000250494
0.00026985
0.000283363
0.000290775
0.000292463
0.000288421
0.000274381
0.000230375
0.000250491
0.000269848
0.000283361
0.000290773
0.000292463
0.000288421
0.000274377
0.000230373
0.000250489
0.000269846
0.000283359
0.000290772
0.000292461
0.00028842
0.000274371
0.00023037
0.000250488
0.000269845
0.000283358
0.000290771
0.000292461
0.00028842
0.000274365
0.000230368
0.000250486
0.000269844
0.000283357
0.00029077
0.00029246
0.000288419
0.000274358
0.000230366
0.000250486
0.000269843
0.000283357
0.00029077
0.00029246
0.00028842
0.000274354
0.000230365
0.000250486
0.000269844
0.000283358
0.000290771
0.000292461
0.00028842
0.000274398
0.000230383
0.000250497
0.000269852
0.000283363
0.000290773
0.00029246
0.000288417
0.000274386
0.00023038
0.000250495
0.00026985
0.000283362
0.000290773
0.00029246
0.000288418
0.000274383
0.000230378
0.000250494
0.000269849
0.000283361
0.000290772
0.00029246
0.000288417
0.000274378
0.000230376
0.000250492
0.000269848
0.00028336
0.000290771
0.000292459
0.000288417
0.000274372
0.000230373
0.000250491
0.000269847
0.000283359
0.000290771
0.000292459
0.000288416
0.000274364
0.000230371
0.00025049
0.000269846
0.000283358
0.00029077
0.000292458
0.000288416
0.00027436
0.00023037
0.00025049
0.000269847
0.000283359
0.000290771
0.000292459
0.000288417
0.000274399
0.000230387
0.000250501
0.000269855
0.000283364
0.000290774
0.00029246
0.000288416
0.000274392
0.000230385
0.000250499
0.000269853
0.000283363
0.000290773
0.00029246
0.000288417
0.000274389
0.000230383
0.000250498
0.000269852
0.000283363
0.000290773
0.00029246
0.000288416
0.000274385
0.000230381
0.000250497
0.000269851
0.000283362
0.000290772
0.000292459
0.000288416
0.000274378
0.000230378
0.000250495
0.00026985
0.000283361
0.000290771
0.000292458
0.000288416
0.000274371
0.000230376
0.000250494
0.000269849
0.00028336
0.000290771
0.000292458
0.000288416
0.000274366
0.000230374
0.000250493
0.000269849
0.00028336
0.000290771
0.000292459
0.000288416
0.000274402
0.000230391
0.000250504
0.000269857
0.000283367
0.000290776
0.000292463
0.000288421
0.000274396
0.000230389
0.000250503
0.000269856
0.000283366
0.000290775
0.000292462
0.000288419
0.000274394
0.000230387
0.000250501
0.000269855
0.000283365
0.000290774
0.000292461
0.000288419
0.000274389
0.000230385
0.0002505
0.000269854
0.000283364
0.000290774
0.000292461
0.000288418
0.000274383
0.000230382
0.000250498
0.000269853
0.000283363
0.000290774
0.000292461
0.000288418
0.000274375
0.000230379
0.000250496
0.000269851
0.000283362
0.000290773
0.000292461
0.000288419
0.000274369
0.000230377
0.000250495
0.000269851
0.000283362
0.000290773
0.000292461
0.000288419
0.000274852
0.000230479
0.000250563
0.000269906
0.000283407
0.000290806
0.000292481
0.000288429
0.000274887
0.000230493
0.000250572
0.000269912
0.000283403
0.000290768
0.000292438
0.000288401
0.000274937
0.000230488
0.000250515
0.000269763
0.000282903
0.000275131
0.000230468
0.000275607
0.000274733
0.000230446
0.00025054
0.000269888
0.000283392
0.000290796
0.000292478
0.000288432
0.000274762
0.000230467
0.00025056
0.000269911
0.000283417
0.000290812
0.00029249
0.000288435
0.000274821
0.000230506
0.000250608
0.000269962
0.00028336
0.000290645
0.000292363
0.000288353
0.000274834
0.000230478
0.000250534
0.000269874
0.000283369
0.000290772
0.000292455
0.000288409
0.000274894
0.000230547
0.000250601
0.000269928
0.000283417
0.00029081
0.000292482
0.000288426
0.000274856
0.00023051
0.000250578
0.000269915
0.000283413
0.000290811
0.000292488
0.000288438
0.000274837
0.000230505
0.000250571
0.000269905
0.000283401
0.000290801
0.00029248
0.000288437
0.000274647
0.000230426
0.000250524
0.000269874
0.000283379
0.000290784
0.000292465
0.000288417
0.000274656
0.000230434
0.00025053
0.00026988
0.000283387
0.000290791
0.00029247
0.000288419
0.000274686
0.00023045
0.000250551
0.000269917
0.000283427
0.000290816
0.000292486
0.000288432
0.000274725
0.000230464
0.000250552
0.000269899
0.000283401
0.000290801
0.000292476
0.000288425
0.000274716
0.000230463
0.000250549
0.000269893
0.000283393
0.000290794
0.000292471
0.000288421
0.000274736
0.000230472
0.000250554
0.000269894
0.000283392
0.000290791
0.000292466
0.000288414
0.000274748
0.000230477
0.000250556
0.000269895
0.000283394
0.000290792
0.000292467
0.000288412
0.000274592
0.000230417
0.00025052
0.000269872
0.000283378
0.000290784
0.000292467
0.000288421
0.000274599
0.000230426
0.000250526
0.000269874
0.000283378
0.000290782
0.000292462
0.000288415
0.000274627
0.000230436
0.00025053
0.000269878
0.000283383
0.000290786
0.000292464
0.000288414
0.000274655
0.000230449
0.000250539
0.000269883
0.000283384
0.000290785
0.000292463
0.000288412
0.000274667
0.000230455
0.000250543
0.000269885
0.000283385
0.000290785
0.000292462
0.000288412
0.000274677
0.00023046
0.000250545
0.000269886
0.000283386
0.000290787
0.000292466
0.000288417
0.000274685
0.000230463
0.000250545
0.000269886
0.000283386
0.000290787
0.000292466
0.000288419
0.000274552
0.000230417
0.000250522
0.000269872
0.000283377
0.000290782
0.000292464
0.000288418
0.000274566
0.000230428
0.000250529
0.000269876
0.000283379
0.000290782
0.000292463
0.000288416
0.000274591
0.000230437
0.000250533
0.000269878
0.000283379
0.000290782
0.000292462
0.000288414
0.000274611
0.000230443
0.000250536
0.000269879
0.00028338
0.000290781
0.000292461
0.000288412
0.000274622
0.000230447
0.000250537
0.000269879
0.000283379
0.00029078
0.00029246
0.000288411
0.00027463
0.000230451
0.000250538
0.000269879
0.000283379
0.00029078
0.000292459
0.000288411
0.000274638
0.000230454
0.00025054
0.000269881
0.000283381
0.000290782
0.000292461
0.000288412
0.000274532
0.00023042
0.000250523
0.00026987
0.000283374
0.000290778
0.000292461
0.000288415
0.000274546
0.000230428
0.000250527
0.000269872
0.000283375
0.000290778
0.00029246
0.000288414
0.000274565
0.000230434
0.00025053
0.000269874
0.000283376
0.000290779
0.00029246
0.000288414
0.000274581
0.000230439
0.000250533
0.000269876
0.000283377
0.000290779
0.00029246
0.000288412
0.000274591
0.000230443
0.000250534
0.000269877
0.000283377
0.000290779
0.000292459
0.000288411
0.000274599
0.000230447
0.000250536
0.000269878
0.000283378
0.000290779
0.000292459
0.000288412
0.000274606
0.00023045
0.000250538
0.000269879
0.000283379
0.00029078
0.00029246
0.000288413
0.000274513
0.000230414
0.000250516
0.000269864
0.000283368
0.000290774
0.000292458
0.000288413
0.000274522
0.000230418
0.000250519
0.000269865
0.000283369
0.000290774
0.000292458
0.000288413
0.000274538
0.000230424
0.000250522
0.000269868
0.000283371
0.000290776
0.000292459
0.000288414
0.000274554
0.000230431
0.000250527
0.000269871
0.000283374
0.000290777
0.000292459
0.000288413
0.000274568
0.000230438
0.000250532
0.000269874
0.000283376
0.000290779
0.00029246
0.000288413
0.000274578
0.000230444
0.000250535
0.000269877
0.000283378
0.00029078
0.000292461
0.000288414
0.000274585
0.000230447
0.000250536
0.000269877
0.000283378
0.00029078
0.000292461
0.000288414
0.000274489
0.000230403
0.000250509
0.000269859
0.000283366
0.000290774
0.000292459
0.000288416
0.000274492
0.000230406
0.00025051
0.000269859
0.000283366
0.000290773
0.000292458
0.000288415
0.000274507
0.000230412
0.000250514
0.000269862
0.000283368
0.000290774
0.000292459
0.000288415
0.000274525
0.000230421
0.00025052
0.000269867
0.000283371
0.000290776
0.00029246
0.000288415
0.000274542
0.00023043
0.000250526
0.000269871
0.000283375
0.000290779
0.000292461
0.000288416
0.000274554
0.000230436
0.000250531
0.000269875
0.000283377
0.000290781
0.000292464
0.000288418
0.000274559
0.000230439
0.000250532
0.000269875
0.000283378
0.000290782
0.000292464
0.000288419
0.000274467
0.000230396
0.000250506
0.000269859
0.000283367
0.000290776
0.000292463
0.00028842
0.000274468
0.000230399
0.000250507
0.000269859
0.000283367
0.000290775
0.000292461
0.000288419
0.000274481
0.000230404
0.00025051
0.000269861
0.000283368
0.000290775
0.000292461
0.000288418
0.000274498
0.000230412
0.000250515
0.000269864
0.00028337
0.000290777
0.000292461
0.000288417
0.000274514
0.00023042
0.000250521
0.000269868
0.000283373
0.000290779
0.000292463
0.000288419
0.000274523
0.000230426
0.000250525
0.000269872
0.000283376
0.000290782
0.000292466
0.000288421
0.000274525
0.000230427
0.000250526
0.000269872
0.000283377
0.000290783
0.000292467
0.000288422
0.000274454
0.000230396
0.000250508
0.000269861
0.00028337
0.000290779
0.000292465
0.000288421
0.000274454
0.000230398
0.000250509
0.000269861
0.000283369
0.000290778
0.000292463
0.00028842
0.000274465
0.000230402
0.000250511
0.000269862
0.000283369
0.000290777
0.000292463
0.000288419
0.000274478
0.000230408
0.000250513
0.000269864
0.00028337
0.000290778
0.000292462
0.000288418
0.000274489
0.000230413
0.000250517
0.000269866
0.000283372
0.000290779
0.000292463
0.000288419
0.000274495
0.000230416
0.000250519
0.000269868
0.000283374
0.000290781
0.000292465
0.00028842
0.000274494
0.000230416
0.000250519
0.000269869
0.000283375
0.000290781
0.000292465
0.00028842
0.000274448
0.000230397
0.000250509
0.000269862
0.00028337
0.000290778
0.000292463
0.000288418
0.000274448
0.0002304
0.00025051
0.000269862
0.00028337
0.000290778
0.000292462
0.000288417
0.000274457
0.000230403
0.000250512
0.000269863
0.00028337
0.000290777
0.000292462
0.000288417
0.000274468
0.000230406
0.000250513
0.000269864
0.000283371
0.000290777
0.000292462
0.000288417
0.000274475
0.000230409
0.000250515
0.000269864
0.000283371
0.000290778
0.000292462
0.000288416
0.000274475
0.000230409
0.000250515
0.000269865
0.000283371
0.000290778
0.000292462
0.000288416
0.000274472
0.000230409
0.000250515
0.000269865
0.000283371
0.000290778
0.000292462
0.000288416
0.000274444
0.000230398
0.000250509
0.000269861
0.000283369
0.000290775
0.000292459
0.000288413
0.000274445
0.000230401
0.000250511
0.000269862
0.000283369
0.000290776
0.000292459
0.000288413
0.000274454
0.000230404
0.000250513
0.000269863
0.00028337
0.000290776
0.000292459
0.000288413
0.000274462
0.000230407
0.000250514
0.000269864
0.00028337
0.000290776
0.000292459
0.000288413
0.000274466
0.000230408
0.000250514
0.000269864
0.00028337
0.000290776
0.000292459
0.000288413
0.000274464
0.000230407
0.000250514
0.000269863
0.000283369
0.000290775
0.000292458
0.000288412
0.00027446
0.000230407
0.000250513
0.000269863
0.000283369
0.000290775
0.000292458
0.000288412
0.000274439
0.000230399
0.00025051
0.000269861
0.000283368
0.000290774
0.000292458
0.000288412
0.000274442
0.000230402
0.000250512
0.000269862
0.000283368
0.000290774
0.000292457
0.000288411
0.00027445
0.000230405
0.000250513
0.000269863
0.000283369
0.000290775
0.000292458
0.000288412
0.000274458
0.000230407
0.000250515
0.000269864
0.000283369
0.000290775
0.000292458
0.000288411
0.000274461
0.000230408
0.000250515
0.000269864
0.000283369
0.000290775
0.000292457
0.000288411
0.000274457
0.000230408
0.000250514
0.000269863
0.000283369
0.000290774
0.000292457
0.00028841
0.000274453
0.000230407
0.000250514
0.000269863
0.000283368
0.000290774
0.000292456
0.00028841
0.000274432
0.0002304
0.000250511
0.000269862
0.000283368
0.000290775
0.000292459
0.000288414
0.000274438
0.000230403
0.000250513
0.000269863
0.000283369
0.000290775
0.000292459
0.000288414
0.000274445
0.000230406
0.000250514
0.000269864
0.00028337
0.000290775
0.000292459
0.000288413
0.000274453
0.000230408
0.000250515
0.000269865
0.00028337
0.000290775
0.000292458
0.000288413
0.000274456
0.000230409
0.000250516
0.000269865
0.00028337
0.000290775
0.000292458
0.000288412
0.000274451
0.000230408
0.000250515
0.000269864
0.000283369
0.000290775
0.000292458
0.000288412
0.000274447
0.000230407
0.000250514
0.000269863
0.000283369
0.000290775
0.000292458
0.000288413
0.000275286
0.000274939
0.00023051
0.000275
0.000230561
0.000250679
0.000270166
0.000283959
0.000274787
0.000230449
0.000250521
0.000269875
0.00028346
0.000290902
0.000292554
0.000288459
0.000274683
0.000230431
0.00025052
0.000269864
0.000283377
0.000290795
0.000292488
0.000288452
0.000274855
0.000230526
0.000250586
0.000269909
0.000283393
0.000290779
0.000292441
0.000288374
0.000274735
0.000230468
0.000250578
0.000269928
0.000283431
0.000290833
0.000292514
0.00028847
0.000274722
0.00023036
0.000250471
0.000269845
0.000283362
0.000290768
0.000292451
0.000288408
0.000274972
0.000230511
0.000250601
0.000269948
0.000283455
0.000290831
0.00029247
0.000288405
0.000274767
0.000230449
0.000250504
0.000269851
0.000283494
0.000290984
0.000292624
0.000288501
0.000274733
0.000230449
0.000250527
0.000269851
0.000283358
0.000290786
0.000292481
0.000288446
0.000274569
0.000230412
0.000250518
0.00026987
0.000283378
0.000290789
0.000292476
0.000288432
0.00027476
0.000230479
0.000250555
0.000269895
0.000283396
0.0002908
0.000292483
0.000288441
0.000274795
0.00023048
0.000250553
0.000269889
0.000283385
0.000290781
0.000292453
0.000288396
0.000274821
0.000230486
0.000250556
0.000269896
0.000283395
0.000290795
0.000292472
0.000288422
0.00027476
0.000230467
0.000250541
0.000269882
0.000283385
0.000290788
0.000292466
0.000288416
0.000274705
0.00023045
0.000250528
0.000269851
0.000283351
0.000290774
0.000292465
0.000288424
0.000274596
0.000230424
0.000250527
0.000269873
0.000283374
0.00029078
0.000292463
0.000288416
0.00027449
0.000230391
0.000250502
0.00026986
0.000283374
0.000290788
0.000292478
0.000288438
0.000274691
0.000230463
0.000250544
0.000269884
0.000283383
0.000290782
0.000292459
0.000288406
0.000274696
0.000230462
0.000250544
0.000269886
0.000283387
0.000290789
0.000292468
0.00028842
0.000274687
0.000230458
0.000250541
0.000269882
0.000283383
0.000290784
0.000292462
0.000288412
0.000274667
0.000230448
0.000250535
0.000269878
0.000283379
0.000290782
0.000292461
0.000288413
0.000274602
0.00023043
0.000250526
0.000269871
0.000283372
0.000290776
0.000292457
0.00028841
0.000274521
0.000230404
0.000250511
0.000269864
0.000283374
0.000290783
0.00029247
0.000288429
0.000274467
0.00023039
0.000250499
0.000269855
0.000283368
0.00029078
0.000292469
0.000288427
0.000274642
0.000230456
0.000250541
0.000269883
0.000283383
0.000290785
0.000292464
0.000288417
0.000274641
0.000230454
0.00025054
0.000269881
0.000283381
0.000290782
0.00029246
0.000288411
0.00027463
0.000230448
0.000250536
0.000269879
0.00028338
0.000290782
0.000292462
0.000288414
0.000274601
0.000230436
0.000250528
0.000269873
0.000283376
0.000290779
0.00029246
0.000288413
0.000274545
0.000230418
0.000250517
0.000269866
0.000283371
0.000290778
0.000292462
0.000288418
0.000274488
0.000230401
0.000250506
0.000269858
0.000283366
0.000290775
0.000292461
0.000288418
0.000274457
0.000230393
0.0002505
0.000269853
0.000283365
0.000290777
0.000292465
0.000288425
0.00027461
0.000230452
0.000250539
0.000269879
0.000283379
0.00029078
0.00029246
0.000288412
0.000274607
0.00023045
0.000250538
0.000269879
0.00028338
0.000290781
0.000292461
0.000288414
0.000274593
0.000230444
0.000250534
0.000269876
0.000283378
0.000290781
0.000292462
0.000288415
0.000274563
0.000230432
0.000250526
0.000269871
0.000283374
0.000290779
0.000292462
0.000288417
0.000274513
0.000230415
0.000250515
0.000269863
0.000283369
0.000290776
0.000292461
0.000288418
0.00027447
0.0002304
0.000250505
0.000269856
0.000283365
0.000290775
0.000292462
0.000288421
0.000274445
0.000230392
0.000250497
0.000269849
0.00028336
0.000290772
0.000292461
0.000288421
0.000274586
0.000230446
0.000250535
0.000269877
0.000283377
0.00029078
0.000292461
0.000288414
0.000274579
0.000230443
0.000250533
0.000269874
0.000283376
0.000290779
0.000292461
0.000288414
0.000274562
0.000230436
0.000250528
0.000269872
0.000283375
0.000290779
0.000292462
0.000288417
0.000274532
0.000230424
0.000250522
0.000269868
0.000283373
0.000290779
0.000292464
0.00028842
0.000274488
0.000230409
0.000250513
0.000269862
0.000283369
0.000290778
0.000292465
0.000288422
0.000274454
0.000230396
0.000250503
0.000269855
0.000283364
0.000290775
0.000292464
0.000288423
0.000274428
0.000230386
0.000250494
0.000269847
0.000283359
0.000290772
0.000292462
0.000288423
0.000274556
0.000230436
0.000250529
0.000269873
0.000283376
0.000290781
0.000292463
0.000288418
0.000274545
0.00023043
0.000250525
0.00026987
0.000283374
0.000290779
0.000292463
0.000288417
0.000274525
0.000230422
0.00025052
0.000269867
0.000283372
0.000290779
0.000292463
0.000288419
0.000274498
0.000230412
0.000250515
0.000269864
0.000283371
0.000290779
0.000292465
0.000288422
0.00027446
0.000230401
0.000250508
0.00026986
0.000283369
0.000290779
0.000292467
0.000288425
0.000274436
0.000230391
0.000250501
0.000269855
0.000283366
0.000290778
0.000292467
0.000288427
0.00027441
0.000230381
0.000250493
0.000269848
0.000283361
0.000290775
0.000292465
0.000288426
0.00027452
0.000230424
0.000250523
0.000269871
0.000283376
0.000290782
0.000292466
0.000288421
0.000274507
0.000230418
0.000250519
0.000269867
0.000283374
0.000290781
0.000292465
0.00028842
0.000274489
0.00023041
0.000250514
0.000269864
0.000283371
0.000290779
0.000292465
0.000288421
0.000274464
0.000230402
0.000250509
0.000269861
0.00028337
0.000290779
0.000292466
0.000288423
0.000274435
0.000230393
0.000250504
0.000269858
0.000283369
0.00029078
0.000292467
0.000288426
0.000274419
0.000230387
0.0002505
0.000269855
0.000283367
0.000290779
0.000292468
0.000288427
0.000274398
0.00023038
0.000250494
0.000269851
0.000283364
0.000290777
0.000292467
0.000288427
0.000274488
0.000230414
0.000250518
0.000269868
0.000283375
0.000290781
0.000292465
0.000288421
0.000274479
0.000230411
0.000250516
0.000269866
0.000283373
0.00029078
0.000292465
0.00028842
0.000274465
0.000230405
0.000250513
0.000269864
0.000283372
0.000290779
0.000292464
0.00028842
0.000274444
0.000230398
0.000250508
0.000269861
0.00028337
0.000290779
0.000292465
0.000288421
0.000274421
0.000230391
0.000250504
0.000269858
0.000283368
0.000290779
0.000292465
0.000288422
0.00027441
0.000230386
0.0002505
0.000269855
0.000283367
0.000290778
0.000292466
0.000288424
0.000274394
0.000230381
0.000250496
0.000269852
0.000283365
0.000290777
0.000292466
0.000288425
0.000274469
0.000230409
0.000250515
0.000269865
0.000283371
0.000290778
0.000292462
0.000288416
0.000274463
0.000230407
0.000250514
0.000269865
0.000283371
0.000290778
0.000292462
0.000288417
0.000274452
0.000230404
0.000250513
0.000269864
0.000283371
0.000290778
0.000292462
0.000288416
0.000274437
0.000230399
0.00025051
0.000269862
0.00028337
0.000290777
0.000292462
0.000288417
0.000274419
0.000230393
0.000250505
0.000269858
0.000283368
0.000290777
0.000292462
0.000288418
0.000274409
0.000230388
0.000250501
0.000269855
0.000283366
0.000290776
0.000292462
0.000288419
0.000274394
0.000230384
0.000250498
0.000269853
0.000283364
0.000290775
0.000292462
0.000288419
0.000274458
0.000230407
0.000250513
0.000269863
0.000283369
0.000290775
0.000292458
0.000288412
0.000274455
0.000230406
0.000250514
0.000269863
0.00028337
0.000290776
0.000292459
0.000288413
0.000274448
0.000230405
0.000250513
0.000269863
0.00028337
0.000290776
0.000292459
0.000288413
0.000274435
0.000230401
0.000250511
0.000269862
0.000283369
0.000290776
0.000292459
0.000288414
0.000274419
0.000230395
0.000250507
0.000269859
0.000283367
0.000290775
0.00029246
0.000288414
0.000274409
0.000230391
0.000250503
0.000269856
0.000283365
0.000290774
0.000292459
0.000288415
0.000274397
0.000230387
0.0002505
0.000269854
0.000283364
0.000290773
0.000292459
0.000288415
0.000274451
0.000230406
0.000250513
0.000269863
0.000283368
0.000290774
0.000292457
0.000288411
0.000274449
0.000230406
0.000250514
0.000269863
0.000283369
0.000290775
0.000292458
0.000288412
0.000274444
0.000230405
0.000250513
0.000269863
0.000283369
0.000290775
0.000292459
0.000288413
0.000274432
0.000230402
0.000250511
0.000269862
0.000283369
0.000290775
0.000292459
0.000288413
0.000274417
0.000230397
0.000250508
0.00026986
0.000283367
0.000290775
0.000292459
0.000288414
0.00027441
0.000230393
0.000250505
0.000269858
0.000283366
0.000290774
0.000292459
0.000288415
0.000274401
0.000230391
0.000250503
0.000269856
0.000283364
0.000290773
0.000292459
0.000288415
0.000274444
0.000230407
0.000250514
0.000269863
0.000283369
0.000290775
0.000292459
0.000288413
0.000274443
0.000230406
0.000250514
0.000269863
0.000283369
0.000290776
0.00029246
0.000288414
0.00027444
0.000230405
0.000250513
0.000269863
0.00028337
0.000290776
0.00029246
0.000288415
0.000274429
0.000230402
0.000250511
0.000269862
0.000283369
0.000290776
0.000292461
0.000288416
0.000274416
0.000230397
0.000250509
0.00026986
0.000283368
0.000290776
0.000292461
0.000288417
0.00027441
0.000230394
0.000250506
0.000269859
0.000283367
0.000290775
0.000292461
0.000288418
0.000274404
0.000230392
0.000250505
0.000269857
0.000283366
0.000290775
0.000292461
0.000288418
0.000274551
0.000230383
0.000250502
0.000269862
0.000283377
0.000290789
0.000292478
0.000288436
0.000274655
0.000230411
0.000250523
0.00026988
0.000283392
0.000290802
0.000292489
0.000288447
0.000274747
0.000230436
0.00025054
0.000269893
0.0002834
0.000290806
0.00029249
0.000288445
0.000274825
0.000230457
0.000250553
0.000269902
0.000283405
0.000290808
0.000292489
0.000288446
0.000274834
0.000230464
0.000250553
0.000269898
0.000283395
0.00029079
0.00029246
0.000288399
0.000274838
0.000230469
0.00025056
0.00026991
0.000283416
0.000290823
0.000292509
0.000288468
0.000274815
0.000230469
0.000250556
0.0002699
0.000283401
0.000290802
0.000292481
0.000288433
0.000274457
0.000230361
0.000250488
0.000269852
0.000283371
0.000290789
0.000292482
0.000288446
0.000274538
0.000230384
0.000250503
0.000269862
0.000283376
0.000290787
0.000292475
0.000288434
0.000274618
0.000230407
0.000250518
0.000269874
0.000283382
0.00029079
0.000292474
0.000288429
0.00027468
0.000230425
0.000250531
0.000269883
0.00028339
0.000290794
0.000292475
0.000288425
0.000274696
0.000230433
0.000250535
0.000269888
0.000283396
0.000290804
0.000292491
0.000288452
0.000274701
0.000230434
0.000250533
0.000269882
0.000283385
0.000290788
0.000292466
0.000288414
0.00027469
0.000230439
0.000250537
0.000269887
0.000283392
0.000290796
0.000292477
0.00028843
0.000274399
0.000230348
0.000250477
0.000269841
0.00028336
0.000290777
0.000292469
0.000288431
0.000274465
0.000230368
0.000250491
0.000269852
0.000283367
0.00029078
0.000292469
0.000288429
0.000274529
0.000230387
0.000250504
0.000269862
0.000283373
0.000290783
0.00029247
0.000288427
0.000274578
0.000230402
0.000250513
0.000269868
0.000283378
0.000290786
0.000292471
0.000288427
0.0002746
0.00023041
0.000250517
0.00026987
0.000283378
0.000290785
0.000292467
0.00028842
0.000274613
0.000230416
0.000250521
0.000269875
0.000283384
0.000290792
0.000292477
0.000288433
0.000274605