/*--------------------------------*- C++ -*----------------------------------*\
| =========                 |                                                 |
| \\      /  F ield         | OpenFOAM: The Open Source CFD Toolbox           |
|  \\    /   O peration     | Version:  plus.master.MPPICInterFoam            |
|   \\  /    A nd           | Web:      www.OpenFOAM.com                      |
|    \\/     M anipulation  |                                                 |
\*---------------------------------------------------------------------------*/
FoamFile
{
    version     2.0;
    format      ascii;
    class       surfaceScalarField;
    location    "6.2";
    object      alphaPhi;
}
// * * * * * * * * * * * * * * * * * * * * * * * * * * * * * * * * * * * * * //

dimensions      [0 3 -1 0 0 0 0];

internalField   nonuniform List<scalar> 
34004
(
1.40535e-08
6.88781e-08
-1.6878e-06
-9.113e-08
2.50617e-08
6.22894e-08
-2.09414e-06
-8.24761e-08
3.34132e-08
5.85342e-08
-2.4216e-06
-7.75483e-08
3.94335e-08
5.60615e-08
-2.7386e-06
-7.42702e-08
4.31974e-08
5.39961e-08
-3.0583e-06
-7.15399e-08
4.47297e-08
5.21078e-08
-3.38423e-06
-6.90672e-08
4.40442e-08
5.03456e-08
-3.71711e-06
-6.67752e-08
4.87142e-08
-4.05573e-06
-6.46854e-08
4.11761e-08
1.81509e-08
3.87891e-08
-1.70274e-06
3.19131e-08
3.51127e-08
-2.11142e-06
4.20962e-08
3.30455e-08
-2.44148e-06
4.92581e-08
3.17378e-08
-2.7611e-06
5.36123e-08
3.06526e-08
-3.08346e-06
5.52864e-08
2.96522e-08
-3.41212e-06
5.43784e-08
2.87145e-08
-3.74784e-06
2.78621e-08
-4.08946e-06
5.09421e-08
1.97569e-08
4.54525e-09
-1.71265e-06
3.45675e-08
3.97153e-09
-2.12299e-06
4.52269e-08
3.93331e-09
-2.45464e-06
5.24431e-08
4.04571e-09
-2.77577e-06
5.65442e-08
4.1566e-09
-3.09959e-06
5.77587e-08
4.23155e-09
-3.42966e-06
5.62715e-08
4.27683e-09
-3.76673e-06
4.31185e-09
-4.10964e-06
5.22258e-08
2.06509e-08
-3.21931e-08
-1.71729e-06
3.59611e-08
-2.95182e-08
-2.1284e-06
4.69101e-08
-2.74398e-08
-2.46078e-06
5.43032e-08
-2.58818e-08
-2.78262e-06
5.8519e-08
-2.4561e-08
-3.10714e-06
5.98136e-08
-2.33896e-08
-3.43792e-06
5.83806e-08
-2.23252e-08
-3.77571e-06
-2.13374e-08
-4.11939e-06
5.43422e-08
1.94898e-08
-6.85241e-08
-1.71598e-06
3.3734e-08
-6.27952e-08
-2.12691e-06
4.38073e-08
-5.88553e-08
-2.45897e-06
5.05495e-08
-5.61312e-08
-2.78044e-06
5.43655e-08
-5.38995e-08
-3.10453e-06
5.55236e-08
-5.19424e-08
-3.43482e-06
5.42038e-08
-5.01627e-08
-3.77208e-06
-4.85227e-08
-4.11518e-06
5.05129e-08
1.71747e-08
-1.02629e-07
-1.70921e-06
2.93517e-08
-9.40261e-08
-2.1189e-06
3.79663e-08
-8.87731e-08
-2.44961e-06
4.38839e-08
-8.54557e-08
-2.76969e-06
4.74837e-08
-8.28593e-08
-3.09234e-06
4.89881e-08
-8.06137e-08
-3.42114e-06
4.84975e-08
-7.8536e-08
-3.7569e-06
-7.65172e-08
-4.09852e-06
4.59694e-08
9.54522e-09
-1.69579e-06
-1.28257e-07
1.54521e-08
-2.10339e-06
-1.17983e-07
1.89696e-08
-2.4312e-06
-1.12359e-07
2.10059e-08
-2.74807e-06
-1.09447e-07
2.19733e-08
-3.06718e-06
-1.07518e-07
2.22089e-08
-3.39207e-06
-1.06137e-07
2.18527e-08
-3.72358e-06
-1.04967e-07
-4.06063e-06
-1.03861e-07
2.09243e-08
1.20854e-08
5.3929e-08
-1.6812e-06
-7.26204e-08
2.1578e-08
4.86172e-08
-2.08672e-06
-6.55601e-08
2.88258e-08
4.57328e-08
-2.41298e-06
-6.16257e-08
3.40939e-08
4.39075e-08
-2.72873e-06
-5.90718e-08
3.74431e-08
4.24346e-08
-3.0471e-06
-5.70071e-08
3.88857e-08
4.11147e-08
-3.37164e-06
-5.51817e-08
3.84243e-08
3.98923e-08
-3.70308e-06
-5.35205e-08
3.87582e-08
-4.04024e-06
-5.20258e-08
3.60736e-08
1.56945e-08
2.88064e-08
-1.69333e-06
2.77363e-08
2.59544e-08
-2.10082e-06
3.67901e-08
2.45016e-08
-2.42931e-06
4.32908e-08
2.36579e-08
-2.74734e-06
4.73796e-08
2.30002e-08
-3.06809e-06
4.9118e-08
2.24112e-08
-3.39511e-06
4.8538e-08
2.18648e-08
-3.72915e-06
2.13733e-08
-4.06903e-06
4.56419e-08
1.72588e-08
1.3933e-10
-1.70125e-06
3.04172e-08
-8.96114e-11
-2.11012e-06
4.00915e-08
1.71735e-10
-2.44e-06
4.68485e-08
4.94861e-10
-2.75939e-06
5.09108e-08
7.97206e-10
-3.08149e-06
5.24095e-08
1.0554e-09
-3.40986e-06
5.14423e-08
1.27175e-09
-3.74526e-06
1.45962e-09
-4.0865e-06
4.8074e-08
1.81505e-08
-3.05688e-08
-1.70473e-06
3.18271e-08
-2.79588e-08
-2.11421e-06
4.18773e-08
-2.59679e-08
-2.4447e-06
4.88997e-08
-2.44674e-08
-2.76468e-06
5.31431e-08
-2.31906e-08
-3.08738e-06
5.47505e-08
-2.20569e-08
-3.41637e-06
5.38152e-08
-2.10282e-08
-3.75241e-06
-2.0077e-08
-4.09432e-06
5.0385e-08
1.71035e-08
-6.07014e-08
-1.70297e-06
2.9879e-08
-5.5461e-08
-2.11221e-06
3.91788e-08
-5.19232e-08
-2.44234e-06
4.56366e-08
-4.94602e-08
-2.76193e-06
4.95238e-08
-4.74451e-08
-3.08419e-06
5.09961e-08
-4.56855e-08
-3.4127e-06
5.01452e-08
-4.40965e-08
-3.74821e-06
-4.26436e-08
-4.08957e-06
4.70129e-08
1.50453e-08
-8.85856e-08
-1.69638e-06
2.60284e-08
-8.08867e-08
-2.10448e-06
3.40621e-08
-7.62379e-08
-2.43334e-06
3.97886e-08
-7.32528e-08
-2.75162e-06
4.34573e-08
-7.09148e-08
-3.07252e-06
4.51837e-08
-6.89017e-08
-3.39962e-06
4.49929e-08
-6.70588e-08
-3.7337e-06
-6.52913e-08
-4.07362e-06
4.28089e-08
8.54403e-09
-1.68409e-06
-1.08846e-07
1.42361e-08
-2.09028e-06
-9.97238e-08
1.79545e-08
-2.4165e-06
-9.46724e-08
2.03337e-08
-2.73187e-06
-9.18447e-08
2.16601e-08
-3.04954e-06
-8.98846e-08
2.21499e-08
-3.37307e-06
-8.84031e-08
2.18831e-08
-3.70324e-06
-8.71374e-08
-4.03895e-06
-8.59743e-08
2.08697e-08
1.04317e-08
4.19153e-08
-1.67579e-06
-5.77696e-08
1.86517e-08
3.75561e-08
-2.08062e-06
-5.18833e-08
2.49416e-08
3.52848e-08
-2.40589e-06
-4.86593e-08
2.95249e-08
3.38988e-08
-2.72059e-06
-4.65998e-08
3.24522e-08
3.28246e-08
-3.03785e-06
-4.49756e-08
3.37293e-08
3.18925e-08
-3.36119e-06
-4.35738e-08
3.33503e-08
3.10483e-08
-3.69137e-06
-4.23223e-08
3.02772e-08
-4.0272e-06
-4.12123e-08
3.13213e-08
1.34902e-08
2.09194e-08
-1.68583e-06
2.39318e-08
1.86617e-08
-2.09236e-06
3.18637e-08
1.7612e-08
-2.41957e-06
3.76353e-08
1.70579e-08
-2.73627e-06
4.13459e-08
1.66636e-08
-3.05563e-06
4.30239e-08
1.63292e-08
-3.38123e-06
4.26715e-08
1.60268e-08
-3.7138e-06
1.57611e-08
-4.05215e-06
4.0262e-08
1.48813e-08
-2.93677e-09
-1.69228e-06
2.63331e-08
-2.91016e-09
-2.1e-06
3.48882e-08
-2.54012e-09
-2.4284e-06
4.09803e-08
-2.1288e-09
-2.74628e-06
4.47606e-08
-1.73642e-09
-3.06685e-06
4.63032e-08
-1.38611e-09
-3.39366e-06
4.5652e-08
-1.07705e-09
-3.72746e-06
-8.03019e-10
-4.06706e-06
4.28349e-08
1.56654e-08
-2.84317e-08
-1.69491e-06
2.7635e-08
-2.59755e-08
-2.10312e-06
3.65666e-08
-2.41383e-08
-2.43203e-06
4.29443e-08
-2.27504e-08
-2.75043e-06
4.69399e-08
-2.15669e-08
-3.07155e-06
4.86297e-08
-2.05155e-08
-3.39894e-06
4.80511e-08
-1.95635e-08
-3.73337e-06
-1.86869e-08
-4.07363e-06
4.52003e-08
1.47098e-08
-5.3186e-08
-1.69293e-06
2.58708e-08
-4.84646e-08
-2.10088e-06
3.41448e-08
-4.53243e-08
-2.42943e-06
4.00208e-08
-4.31264e-08
-2.74742e-06
4.36844e-08
-4.13282e-08
-3.06807e-06
4.52229e-08
-3.97622e-08
-3.39497e-06
4.46742e-08
-3.83544e-08
-3.72884e-06
-3.70732e-08
-4.06852e-06
4.2046e-08
1.28909e-08
-7.57598e-08
-1.68671e-06
2.24992e-08
-6.89418e-08
-2.09362e-06
2.96787e-08
-6.48575e-08
-2.42099e-06
3.4914e-08
-6.22019e-08
-2.73778e-06
3.83717e-08
-6.0121e-08
-3.05718e-06
4.01061e-08
-5.83379e-08
-3.38278e-06
4.01033e-08
-5.67229e-08
-3.71533e-06
-5.51939e-08
-4.05368e-06
3.82708e-08
7.44176e-09
-1.67563e-06
-9.16714e-08
1.26468e-08
-2.0808e-06
-8.36326e-08
1.62286e-08
-2.40581e-06
-7.91289e-08
1.86291e-08
-2.72e-06
-7.64658e-08
2.00548e-08
-3.03651e-06
-7.45645e-08
2.06422e-08
-3.3589e-06
-7.30791e-08
2.04396e-08
-3.68793e-06
-7.18106e-08
-4.02248e-06
-7.06652e-08
1.94514e-08
9.02215e-09
3.20813e-08
-1.67135e-06
-4.55515e-08
1.61655e-08
2.84342e-08
-2.0756e-06
-4.0548e-08
2.16294e-08
2.65988e-08
-2.40005e-06
-3.7853e-08
2.56142e-08
2.55111e-08
-2.71389e-06
-3.61532e-08
2.81671e-08
2.4703e-08
-3.03021e-06
-3.48456e-08
2.92952e-08
2.40303e-08
-3.35257e-06
-3.37488e-08
2.89934e-08
2.34416e-08
-3.6817e-06
-3.27962e-08
2.29192e-08
-4.01641e-06
-3.1973e-08
2.72612e-08
1.15348e-08
1.45959e-08
-1.67986e-06
2.05248e-08
1.27597e-08
-2.08563e-06
2.73909e-08
1.19795e-08
-2.41177e-06
3.24237e-08
1.16094e-08
-2.72736e-06
3.56993e-08
1.13819e-08
-3.04555e-06
3.72307e-08
1.1213e-08
-3.3699e-06
3.70073e-08
1.10753e-08
-3.70117e-06
1.09683e-08
-4.03815e-06
3.49954e-08
1.26977e-08
-5.11411e-09
-1.68526e-06
2.25489e-08
-4.9755e-09
-2.09208e-06
2.99749e-08
-4.54892e-09
-2.41926e-06
3.53282e-08
-4.10264e-09
-2.73589e-06
3.87202e-08
-3.67369e-09
-3.05516e-06
4.01938e-08
-3.27825e-09
-3.38063e-06
3.9766e-08
-2.91889e-09
-3.71303e-06
-2.58976e-09
-4.05117e-06
3.74365e-08
1.3329e-08
-2.60537e-08
-1.68729e-06
2.36057e-08
-2.38067e-08
-2.09453e-06
3.13532e-08
-2.21483e-08
-2.42215e-06
3.69624e-08
-2.08936e-08
-2.73922e-06
4.05568e-08
-1.9821e-08
-3.05896e-06
4.21776e-08
-1.88662e-08
-3.38495e-06
4.18323e-08
-1.80009e-08
-3.71791e-06
-1.72042e-08
-4.05665e-06
3.94986e-08
1.24565e-08
-4.61599e-08
-1.68527e-06
2.20157e-08
-4.1956e-08
-2.09226e-06
2.91838e-08
-3.91955e-08
-2.41951e-06
3.4349e-08
-3.72568e-08
-2.73619e-06
3.76441e-08
-3.56715e-08
-3.0555e-06
3.9119e-08
-3.42947e-08
-3.381e-06
3.87839e-08
-3.30625e-08
-3.71344e-06
-3.19466e-08
-4.05161e-06
3.66255e-08
1.08539e-08
-6.4212e-08
-1.6795e-06
1.90697e-08
-5.82167e-08
-2.08554e-06
2.5289e-08
-5.46469e-08
-2.41173e-06
2.98881e-08
-5.23038e-08
-2.7273e-06
3.29831e-08
-5.04673e-08
-3.04546e-06
3.45964e-08
-4.8902e-08
-3.36976e-06
3.46977e-08
-4.74986e-08
-3.70098e-06
-4.61869e-08
-4.03792e-06
3.31953e-08
6.35498e-09
-1.6696e-06
-7.65936e-08
1.09565e-08
-2.07405e-06
-6.95383e-08
1.42182e-08
-2.39815e-06
-6.55453e-08
1.64616e-08
-2.71143e-06
-6.30968e-08
1.78374e-08
-3.02703e-06
-6.1309e-08
1.84356e-08
-3.34849e-06
-5.98881e-08
1.82866e-08
-3.6766e-06
-5.86774e-08
-4.01017e-06
-5.76005e-08
1.73917e-08
7.81092e-09
2.38519e-08
-1.66777e-06
-3.52264e-08
1.40115e-08
2.07381e-08
-2.07155e-06
-3.09017e-08
1.87472e-08
1.92185e-08
-2.39532e-06
-2.86114e-08
2.21999e-08
1.83395e-08
-2.70843e-06
-2.71817e-08
2.44153e-08
1.77164e-08
-3.02398e-06
-2.61094e-08
2.54041e-08
1.72267e-08
-3.3455e-06
-2.52395e-08
2.51648e-08
1.68229e-08
-3.67374e-06
-2.45111e-08
1.64855e-08
-4.0075e-06
-2.39056e-08
2.3696e-08
9.81504e-09
9.41221e-09
-1.67518e-06
1.74962e-08
7.8709e-09
-2.08036e-06
2.33767e-08
7.26648e-09
-2.40563e-06
2.77045e-08
7.00836e-09
-2.7203e-06
3.05438e-08
6.88197e-09
-3.03751e-06
3.19035e-08
6.81681e-09
-3.36082e-06
3.17705e-08
6.78674e-09
-3.69097e-06
6.78782e-09
-4.02678e-06
3.01099e-08
1.07356e-08
-6.6848e-09
-1.67986e-06
1.91034e-08
-6.50704e-09
-2.08599e-06
2.54411e-08
-6.07981e-09
-2.41219e-06
3.0044e-08
-5.64375e-09
-2.72779e-06
3.30012e-08
-5.21847e-09
-3.04597e-06
3.43421e-08
-4.81644e-09
-3.3703e-06
3.40718e-08
-4.44123e-09
-3.7015e-06
-4.08988e-09
-4.03838e-06
3.21799e-08
1.11973e-08
-2.36304e-08
-1.6815e-06
1.98755e-08
-2.16193e-08
-2.08802e-06
2.64563e-08
-2.01504e-08
-2.4146e-06
3.12628e-08
-1.90382e-08
-2.73058e-06
3.43914e-08
-1.80851e-08
-3.04919e-06
3.58677e-08
-1.72346e-08
-3.37398e-06
3.56868e-08
-1.64622e-08
-3.70569e-06
-1.57496e-08
-4.0431e-06
3.3817e-08
1.04025e-08
-3.97032e-08
-1.67956e-06
1.84393e-08
-3.59933e-08
-2.08585e-06
2.45042e-08
-3.35853e-08
-2.41209e-06
2.89139e-08
-3.18907e-08
-2.7277e-06
3.17707e-08
-3.0506e-08
-3.0459e-06
3.31073e-08
-2.93068e-08
-3.37024e-06
3.29225e-08
-2.8238e-08
-3.70146e-06
-2.72744e-08
-4.03835e-06
3.11955e-08
9.00019e-09
-5.38957e-08
-1.67427e-06
1.58811e-08
-4.86484e-08
-2.0797e-06
2.11274e-08
-4.55416e-08
-2.40496e-06
2.50397e-08
-4.34882e-08
-2.71957e-06
2.77054e-08
-4.18801e-08
-3.03672e-06
2.91347e-08
-4.05182e-08
-3.35996e-06
2.92951e-08
-3.93104e-08
-3.69006e-06
-3.81966e-08
-4.02581e-06
2.81031e-08
5.33523e-09
-1.66543e-06
-6.33686e-08
9.28675e-09
-2.06941e-06
-5.71862e-08
1.21336e-08
-2.39282e-06
-5.36654e-08
1.41207e-08
-2.70541e-06
-5.14518e-08
1.5362e-08
-3.02031e-06
-4.9811e-08
1.59226e-08
-3.34106e-06
-4.84968e-08
1.58248e-08
-3.66843e-06
-4.73829e-08
-4.00121e-06
-4.6407e-08
1.50699e-08
6.75651e-09
1.67873e-08
-1.66501e-06
-2.62695e-08
1.21081e-08
1.40724e-08
-2.06841e-06
-2.24758e-08
1.61904e-08
1.27851e-08
-2.39162e-06
-2.05033e-08
1.91645e-08
1.20549e-08
-2.70413e-06
-1.9284e-08
2.1077e-08
1.15638e-08
-3.01902e-06
-1.83957e-08
2.19446e-08
1.12077e-08
-3.33985e-06
-1.77056e-08
2.17716e-08
1.09421e-08
-3.66734e-06
-1.71574e-08
1.07472e-08
-4.0003e-06
-1.67301e-08
2.0556e-08
8.30035e-09
5.03916e-09
-1.67168e-06
1.47952e-08
3.69986e-09
-2.07641e-06
1.9768e-08
3.20844e-09
-2.40097e-06
2.34324e-08
3.01645e-09
-2.71488e-06
2.58489e-08
2.95091e-09
-3.03127e-06
2.703e-08
2.95225e-09
-3.35372e-06
2.69673e-08
2.99559e-09
-3.68295e-06
3.07444e-09
-4.01776e-06
2.56294e-08
8.98431e-09
-7.86977e-09
-1.67588e-06
1.59849e-08
-7.70302e-09
-2.08152e-06
2.1295e-08
-7.3086e-09
-2.40693e-06
2.51656e-08
-6.90837e-09
-2.72169e-06
2.76755e-08
-6.51029e-09
-3.03899e-06
2.88533e-08
-6.12377e-09
-3.36238e-06
2.87039e-08
-5.75315e-09
-3.6926e-06
-5.39754e-09
-4.02841e-06
2.72126e-08
9.28e-09
-2.12869e-08
-1.67732e-06
1.64717e-08
-1.952e-08
-2.08333e-06
2.19356e-08
-1.8239e-08
-2.40908e-06
2.59433e-08
-1.72688e-08
-2.72419e-06
2.8579e-08
-1.64347e-08
-3.04187e-06
2.98673e-08
-1.56876e-08
-3.36569e-06
2.98038e-08
-1.50065e-08
-3.69637e-06
-1.43758e-08
-4.03268e-06
2.83558e-08
8.55698e-09
-3.38312e-08
-1.67553e-06
1.51727e-08
-3.05805e-08
-2.08134e-06
2.01742e-08
-2.84946e-08
-2.40678e-06
2.38252e-08
-2.70256e-08
-2.72155e-06
2.6214e-08
-2.58271e-08
-3.03887e-06
2.7371e-08
-2.47925e-08
-3.36228e-06
2.72963e-08
-2.38744e-08
-3.69252e-06
-2.30504e-08
-4.02836e-06
2.59681e-08
7.34104e-09
-4.46961e-08
-1.6707e-06
1.2971e-08
-4.01161e-08
-2.07572e-06
1.72717e-08
-3.74223e-08
-2.40028e-06
2.04891e-08
-3.5633e-08
-2.71414e-06
2.26986e-08
-3.4235e-08
-3.03049e-06
2.39127e-08
-3.30607e-08
-3.3529e-06
2.41074e-08
-3.20317e-08
-3.68211e-06
-3.10971e-08
-4.01689e-06
2.32127e-08
4.39565e-09
-1.66276e-06
-5.17153e-08
7.68354e-09
-2.06644e-06
-4.62983e-08
1.00659e-08
-2.38937e-06
-4.32094e-08
1.17375e-08
-2.70144e-06
-4.1234e-08
1.27923e-08
-3.01582e-06
-3.97577e-08
1.32858e-08
-3.33603e-06
-3.85748e-08
1.32407e-08
-3.66284e-06
-3.75814e-08
-3.99502e-06
-3.67262e-08
1.26606e-08
5.82522e-09
1.05432e-08
-1.66306e-06
-1.82876e-08
1.04026e-08
8.12692e-09
-2.06615e-06
-1.49097e-08
1.38801e-08
7.01306e-09
-2.38888e-06
-1.31906e-08
1.64038e-08
6.39145e-09
-2.70087e-06
-1.21388e-08
1.80269e-08
5.99798e-09
-3.01523e-06
-1.13998e-08
1.87782e-08
5.74385e-09
-3.33548e-06
-1.08588e-08
1.86725e-08
5.58727e-09
-3.66236e-06
-1.04632e-08
5.50813e-09
-3.99467e-06
-1.01905e-08
1.77094e-08
6.96265e-09
1.21524e-09
-1.66927e-06
1.23748e-08
1.40048e-11
-2.07367e-06
1.65002e-08
-4.03672e-10
-2.39765e-06
1.95273e-08
-5.53869e-10
-2.71094e-06
2.15278e-08
-5.86066e-10
-3.02668e-06
2.25223e-08
-5.35616e-10
-3.34844e-06
2.25156e-08
-4.35351e-10
-3.67694e-06
-2.93179e-10
-4.01095e-06
2.14825e-08
7.41866e-09
-8.83704e-09
-1.67321e-06
1.31563e-08
-8.71449e-09
-2.07849e-06
1.74898e-08
-8.37246e-09
-2.40327e-06
2.06414e-08
-8.02206e-09
-2.71736e-06
2.26877e-08
-7.6639e-09
-3.03395e-06
2.3675e-08
-7.30456e-09
-3.35661e-06
2.36175e-08
-6.94922e-09
-3.68605e-06
-6.59868e-09
-4.02103e-06
2.25038e-08
7.56078e-09
-1.91005e-08
-1.67458e-06
1.33735e-08
-1.75749e-08
-2.08025e-06
1.77681e-08
-1.64744e-08
-2.40535e-06
2.09816e-08
-1.56406e-08
-2.71977e-06
2.31015e-08
-1.49209e-08
-3.03674e-06
2.4166e-08
-1.42726e-08
-3.3598e-06
2.41842e-08
-1.3678e-08
-3.68969e-06
-1.31238e-08
-4.02514e-06
2.31288e-08
6.90361e-09
-2.85128e-08
-1.67298e-06
1.21953e-08
-2.56819e-08
-2.07848e-06
1.61705e-08
-2.38874e-08
-2.40332e-06
1.90596e-08
-2.26245e-08
-2.71744e-06
2.09534e-08
-2.15967e-08
-3.03408e-06
2.18956e-08
-2.07128e-08
-3.35679e-06
2.19e-08
-1.99322e-08
-3.6863e-06
-1.92352e-08
-4.02133e-06
2.09506e-08
5.86442e-09
-3.64629e-08
-1.66858e-06
1.03263e-08
-3.24717e-08
-2.07335e-06
1.37101e-08
-3.01445e-08
-2.39738e-06
1.62275e-08
-2.85943e-08
-2.71067e-06
1.79588e-08
-2.73888e-08
-3.02643e-06
1.89332e-08
-2.63864e-08
-3.34821e-06
1.91464e-08
-2.55209e-08
-3.67675e-06
-2.47487e-08
-4.01081e-06
1.85456e-08
3.53388e-09
-1.66137e-06
-4.13492e-08
6.1539e-09
-2.06489e-06
-3.65994e-08
8.03209e-09
-2.38745e-06
-3.39019e-08
9.33504e-09
-2.69916e-06
-3.21586e-08
1.01539e-08
-3.01316e-06
-3.08536e-08
1.055e-08
-3.333e-06
-2.98146e-08
1.05563e-08
-3.65943e-06
-2.89553e-08
-3.9912e-06
-2.82322e-08
1.0181e-08
4.99906e-09
4.84197e-09
-1.66191e-06
-1.09669e-08
8.85107e-09
2.64572e-09
-2.06472e-06
-7.91484e-09
1.17353e-08
1.6607e-09
-2.38701e-06
-6.40063e-09
1.37955e-08
1.11693e-09
-2.69856e-06
-5.48573e-09
1.51054e-08
7.95138e-10
-3.01247e-06
-4.87217e-09
1.57178e-08
6.18954e-10
-3.33226e-06
-4.46059e-09
1.5669e-08
5.4992e-10
-3.65869e-06
-4.20089e-09
5.69391e-10
-3.99049e-06
-4.06908e-09
1.49659e-08
5.76828e-09
-2.27243e-09
-1.66791e-06
1.01673e-08
-3.39733e-09
-2.07202e-06
1.34635e-08
-3.77577e-09
-2.39551e-06
1.58445e-08
-3.917e-09
-2.70829e-06
1.73979e-08
-3.93084e-09
-3.02353e-06
1.81781e-08
-3.86011e-09
-3.34477e-06
1.82142e-08
-3.72762e-09
-3.67274e-06
-3.54247e-09
-4.00617e-06
1.74951e-08
6.01599e-09
-9.71953e-09
-1.67177e-06
1.05625e-08
-9.66395e-09
-2.07677e-06
1.39326e-08
-9.38625e-09
-2.40104e-06
1.63359e-08
-9.09388e-09
-2.7146e-06
1.78777e-08
-8.78205e-09
-3.03067e-06
1.86281e-08
-8.45601e-09
-3.3528e-06
1.86287e-08
-8.12118e-09
-3.6817e-06
-7.77939e-09
-4.0161e-06
1.78793e-08
6.01227e-09
-1.71144e-08
-1.67319e-06
1.05207e-08
-1.58211e-08
-2.0786e-06
1.38554e-08
-1.48909e-08
-2.40319e-06
1.62436e-08
-1.41858e-08
-2.71709e-06
1.77972e-08
-1.35737e-08
-3.03353e-06
1.85876e-08
-1.30175e-08
-3.35606e-06
1.86544e-08
-1.25027e-08
-3.68541e-06
-1.20183e-08
-4.02028e-06
1.7987e-08
5.41372e-09
-2.3691e-08
-1.67181e-06
9.44476e-09
-2.12407e-08
-2.0771e-06
1.23935e-08
-1.97089e-08
-2.40145e-06
1.44822e-08
-1.86332e-08
-2.7151e-06
1.58263e-08
-1.77608e-08
-3.03127e-06
1.65028e-08
-1.70141e-08
-3.3535e-06
1.65566e-08
-1.63586e-08
-3.68253e-06
-1.5777e-08
-4.01704e-06
1.59883e-08
4.54381e-09
-2.90316e-08
-1.66777e-06
7.88952e-09
-2.55572e-08
-2.07237e-06
1.03504e-08
-2.35555e-08
-2.39599e-06
1.21302e-08
-2.22214e-08
-2.70887e-06
1.3335e-08
-2.11915e-08
-3.02422e-06
1.40296e-08
-2.03467e-08
-3.3456e-06
1.42444e-08
-1.96307e-08
-3.67372e-06
-1.9007e-08
-4.00731e-06
1.39523e-08
2.738e-09
-1.66112e-06
-3.20011e-08
4.66983e-09
-2.06453e-06
-2.78318e-08
5.98171e-09
-2.38683e-06
-2.54878e-08
6.8374e-09
-2.69828e-06
-2.39652e-08
7.3464e-09
-3.01204e-06
-2.28308e-08
7.59506e-09
-3.33168e-06
-2.19404e-08
7.64091e-09
-3.65791e-06
-2.12214e-08
-3.98946e-06
-2.06366e-08
7.50472e-09
4.26788e-09
-5.78776e-10
-1.66155e-06
-4.04838e-09
7.38716e-09
-2.58989e-09
-2.06402e-06
-1.25732e-09
9.6307e-09
-3.4674e-09
-2.38588e-06
6.80665e-11
1.11511e-08
-3.94414e-09
-2.69704e-06
8.68487e-10
1.20679e-08
-4.20272e-09
-3.01059e-06
1.37205e-09
1.24747e-08
-4.30665e-09
-3.33007e-06
1.67317e-09
1.24515e-08
-4.29232e-09
-3.65621e-06
1.80708e-09
-4.17968e-09
-3.98773e-06
1.81053e-09
1.20219e-08
4.6773e-09
-5.6071e-09
-1.66757e-06
8.07301e-09
-6.67941e-09
-2.07136e-06
1.04928e-08
-7.03912e-09
-2.39439e-06
1.21463e-08
-7.17609e-09
-2.70676e-06
1.31683e-08
-7.18218e-09
-3.02162e-06
1.36675e-08
-7.09298e-09
-3.34252e-06
1.37216e-08
-6.93034e-09
-3.67019e-06
-6.7037e-09
-4.00331e-06
1.33482e-08
4.72197e-09
-1.06174e-08
-1.67149e-06
8.08608e-09
-1.06434e-08
-2.07622e-06
1.04305e-08
-1.04362e-08
-2.40003e-06
1.19918e-08
-1.02049e-08
-2.71318e-06
1.29254e-08
-9.94176e-09
-3.02889e-06
1.33579e-08
-9.65075e-09
-3.35072e-06
1.33818e-08
-9.33771e-09
-3.67936e-06
-9.00519e-09
-4.01347e-06
1.30281e-08
4.58582e-09
-1.53496e-08
-1.67306e-06
7.79666e-09
-1.42769e-08
-2.07822e-06
1.00062e-08
-1.35056e-08
-2.40237e-06
1.14669e-08
-1.29206e-08
-2.71588e-06
1.23452e-08
-1.24083e-08
-3.03198e-06
1.27743e-08
-1.19372e-08
-3.35424e-06
1.28505e-08
-1.14953e-08
-3.68336e-06
-1.10738e-08
-4.01797e-06
1.26005e-08
4.03687e-09
-1.92965e-08
-1.67192e-06
6.80329e-09
-1.71905e-08
-2.07699e-06
8.65089e-09
-1.58954e-08
-2.40095e-06
9.82893e-09
-1.49892e-08
-2.71425e-06
1.05084e-08
-1.42577e-08
-3.03013e-06
1.08287e-08
-1.36358e-08
-3.35215e-06
1.08924e-08
-1.30941e-08
-3.681e-06
-1.26178e-08
-4.01534e-06
1.07377e-08
3.32997e-09
-2.22369e-08
-1.66817e-06
5.54817e-09
-1.92166e-08
-2.0726e-06
7.00892e-09
-1.75048e-08
-2.39588e-06
7.94363e-09
-1.63659e-08
-2.70846e-06
8.51309e-09
-1.54961e-08
-3.02358e-06
8.84583e-09
-1.47958e-08
-3.34479e-06
9.03177e-09
-1.42173e-08
-3.67279e-06
-1.37304e-08
-4.00625e-06
9.0878e-09
1.97676e-09
-1.66192e-06
-2.34232e-08
3.15465e-09
-2.06519e-06
-1.97604e-08
3.78045e-09
-2.38725e-06
-1.77348e-08
4.04905e-09
-2.69852e-06
-1.64186e-08
4.11754e-09
-3.01218e-06
-1.54492e-08
4.12582e-09
-3.33179e-06
-1.47067e-08
4.17997e-09
-3.65806e-06
-1.41293e-08
-3.98966e-06
-1.3685e-08
4.33105e-09
3.56327e-09
-5.81378e-09
-1.66196e-06
2.65669e-09
5.8804e-09
-7.71143e-09
-2.06394e-06
5.24474e-09
7.32951e-09
-8.51903e-09
-2.38533e-06
6.44742e-09
8.13729e-09
-8.95554e-09
-2.69611e-06
7.15397e-09
8.49373e-09
-9.16881e-09
-3.0094e-06
7.57034e-09
8.57521e-09
-9.21427e-09
-3.32875e-06
7.77041e-09
8.52824e-09
-9.12713e-09
-3.65486e-06
7.79932e-09
-8.92723e-09
-3.98638e-06
7.68097e-09
8.42897e-09
3.64586e-09
-8.91751e-09
-1.66815e-06
5.95338e-09
-9.968e-09
-2.07148e-06
7.33697e-09
-1.03232e-08
-2.39404e-06
8.07311e-09
-1.04675e-08
-2.70604e-06
8.38236e-09
-1.04741e-08
-3.02066e-06
8.46421e-09
-1.03726e-08
-3.34147e-06
8.48006e-09
-1.01841e-08
-3.66915e-06
-9.91784e-09
-4.00232e-06
8.50739e-09
3.46936e-09
-1.16156e-08
-1.6723e-06
5.55437e-09
-1.17317e-08
-2.0766e-06
6.69707e-09
-1.15972e-08
-2.39995e-06
7.20637e-09
-1.14276e-08
-2.71278e-06
7.32961e-09
-1.12139e-08
-3.02831e-06
7.29174e-09
-1.09586e-08
-3.3501e-06
7.27508e-09
-1.06679e-08
-3.67884e-06
-1.03444e-08
-4.01311e-06
7.37801e-09
3.20171e-09
-1.38147e-08
-1.6741e-06
5.0132e-09
-1.29497e-08
-2.07888e-06
5.91108e-09
-1.23258e-08
-2.40259e-06
6.22211e-09
-1.18518e-08
-2.7158e-06
6.21134e-09
-1.14323e-08
-3.03177e-06
6.11645e-09
-1.10398e-08
-3.35406e-06
6.13171e-09
-1.06651e-08
-3.68334e-06
-1.0301e-08
-4.01818e-06
6.35888e-09
2.69116e-09
-1.52557e-08
-1.6732e-06
4.08087e-09
-1.34612e-08
-2.07792e-06
4.63139e-09
-1.23799e-08
-2.40149e-06
4.66342e-09
-1.16272e-08
-2.71454e-06
4.45421e-09
-1.10237e-08
-3.03034e-06
4.24814e-09
-1.05153e-08
-3.35246e-06
4.24701e-09
-1.00775e-08
-3.68155e-06
-9.69833e-09
-4.0162e-06
4.5648e-09
2.14327e-09
-1.59193e-08
-1.66968e-06
3.11896e-09
-1.33006e-08
-2.07378e-06
3.38281e-09
-1.18488e-08
-2.39671e-06
3.24081e-09
-1.08866e-08
-2.70908e-06
2.95667e-09
-1.0163e-08
-3.02416e-06
2.7644e-09
-9.59524e-09
-3.3455e-06
2.85385e-09
-9.14289e-09
-3.67378e-06
-8.78222e-09
-4.00758e-06
3.32165e-09
1.19483e-09
-1.66367e-06
-1.53885e-08
1.46377e-09
-2.06663e-06
-1.21699e-08
1.17555e-09
-2.38841e-06
-1.04315e-08
6.03589e-10
-2.69954e-06
-9.30613e-09
-4.3892e-12
-3.01325e-06
-8.49277e-09
-4.12013e-10
-3.33308e-06
-7.89272e-09
-4.17932e-10
-3.65972e-06
-7.45439e-09
-3.99176e-06
-7.15006e-09
9.55077e-11
2.8017e-09
-1.11052e-08
-1.66303e-06
9.33824e-09
4.11149e-09
-1.29133e-08
-2.06418e-06
1.17546e-08
4.48005e-09
-1.36642e-08
-2.38494e-06
1.2844e-08
4.25312e-09
-1.40694e-08
-2.69534e-06
1.34759e-08
3.74883e-09
-1.42487e-08
-3.00849e-06
1.3818e-08
3.27624e-09
-1.4247e-08
-3.32796e-06
1.3932e-08
3.10668e-09
-1.40967e-08
-3.65442e-06
1.38601e-08
-1.38158e-08
-3.98643e-06
1.36254e-08
3.41487e-09
2.55971e-09
-1.23345e-08
-1.66954e-06
3.55784e-09
-1.33774e-08
-2.07209e-06
3.58692e-09
-1.37381e-08
-2.39404e-06
3.05113e-09
-1.38976e-08
-2.7057e-06
2.31587e-09
-1.39132e-08
-3.02027e-06
1.72821e-09
-1.38075e-08
-3.3413e-06
1.59001e-09
-1.35991e-08
-3.66946e-06
-1.3297e-08
-4.00326e-06
2.0939e-09
2.15079e-09
-1.27853e-08
-1.67405e-06
2.7024e-09
-1.29896e-08
-2.07759e-06
2.28641e-09
-1.29281e-08
-2.40038e-06
1.35056e-09
-1.28213e-08
-2.71293e-06
2.95099e-10
-1.2659e-08
-3.02849e-06
-4.96093e-10
-1.2442e-08
-3.35064e-06
-6.83021e-10
-1.21764e-08
-3.68001e-06
-1.18633e-08
-4.01508e-06
-4.53753e-11
1.74841e-09
-1.25098e-08
-1.67616e-06
1.88172e-09
-1.18373e-08
-2.0802e-06
1.08489e-09
-1.13522e-08
-2.40339e-06
-1.69713e-10
-1.09786e-08
-2.71639e-06
-1.45796e-09
-1.06475e-08
-3.03247e-06
-2.37424e-09
-1.03298e-08
-3.3552e-06
-2.56234e-09
-1.00186e-08
-3.68523e-06
-9.70828e-09
-4.02101e-06
-1.78396e-09
1.271e-09
-1.14936e-08
-1.67552e-06
9.77423e-10
-9.98163e-09
-2.07952e-06
-1.90575e-10
-9.09338e-09
-2.4026e-06
-1.71965e-09
-8.48327e-09
-2.7155e-06
-3.21318e-09
-7.99527e-09
-3.03147e-06
-4.25161e-09
-7.58989e-09
-3.3541e-06
-4.46575e-09
-7.24686e-09
-3.68404e-06
-6.95681e-09
-4.01972e-06
-3.6019e-09
8.86489e-10
-9.9297e-09
-1.67216e-06
3.13326e-10
-7.66958e-09
-2.07555e-06
-1.02735e-09
-6.45325e-09
-2.39802e-06
-2.66484e-09
-5.65386e-09
-2.71027e-06
-4.19466e-09
-5.0624e-09
-3.02554e-06
-5.21148e-09
-4.61419e-09
-3.34742e-06
-5.35877e-09
-4.27647e-09
-3.67655e-06
-4.03111e-09
-4.01139e-06
-4.40059e-09
3.03619e-10
-1.66624e-06
-7.68674e-09
-6.51159e-10
-2.0685e-06
-4.8676e-09
-2.26625e-09
-2.38986e-06
-3.39137e-09
-4.10464e-09
-2.70091e-06
-2.44675e-09
-5.77677e-09
-3.01483e-06
-1.78471e-09
-6.88947e-09
-3.33522e-06
-1.32499e-09
-7.0924e-09
-3.66271e-06
-1.02338e-09
-3.99582e-06
-8.55955e-10
-6.14207e-09
1.86588e-09
-1.65799e-08
-1.66449e-06
1.61417e-08
1.76943e-09
-1.83008e-08
-2.06425e-06
1.84165e-08
5.33106e-10
-1.90088e-08
-2.38414e-06
1.94146e-08
-1.28116e-09
-1.93969e-08
-2.69412e-06
1.99897e-08
-3.15567e-09
-1.95584e-08
-3.00732e-06
2.02731e-08
-4.57539e-09
-1.95246e-08
-3.32729e-06
2.03144e-08
-5.06393e-09
-1.93241e-08
-3.65469e-06
2.01512e-08
-1.89709e-08
-3.98797e-06
1.98042e-08
-4.26969e-09
1.29252e-09
-1.59627e-08
-1.67149e-06
5.19161e-10
-1.69954e-08
-2.07265e-06
-1.39566e-09
-1.73702e-08
-2.39377e-06
-3.80264e-09
-1.75583e-08
-2.70512e-06
-6.14103e-09
-1.75947e-08
-3.01986e-06
-7.83313e-09
-1.7497e-08
-3.34158e-06
-8.34865e-09
-1.72802e-08
-3.67091e-06
-1.69495e-08
-4.00624e-06
-7.29366e-09
6.23028e-10
-1.41819e-08
-1.67648e-06
-8.79162e-10
-1.44598e-08
-2.07863e-06
-3.49812e-09
-1.44737e-08
-2.40064e-06
-6.53811e-09
-1.44367e-08
-2.71298e-06
-9.38259e-09
-1.43316e-08
-3.02886e-06
-1.14016e-08
-1.41592e-08
-3.35189e-06
-1.20118e-08
-1.39236e-08
-3.68268e-06
-1.36249e-08
-4.01956e-06
-1.07692e-08
3.78971e-11
-1.14266e-08
-1.67897e-06
-2.04738e-09
-1.0928e-08
-2.08164e-06
-5.21455e-09
-1.05708e-08
-2.4041e-06
-8.73296e-09
-1.03033e-08
-2.71696e-06
-1.19468e-08
-1.00556e-08
-3.03348e-06
-1.41924e-08
-9.80939e-09
-3.35725e-06
-1.48504e-08
-9.55895e-09
-3.68887e-06
-9.29961e-09
-4.02667e-06
-1.34474e-08
-4.38038e-10
-7.93457e-09
-1.67858e-06
-2.95889e-09
-6.68674e-09
-2.08122e-06
-6.50039e-09
-5.97688e-09
-2.40362e-06
-1.03364e-08
-5.49115e-09
-2.71643e-06
-1.37908e-08
-5.10833e-09
-3.03291e-06
-1.61859e-08
-4.79602e-09
-3.35667e-06
-1.68867e-08
-4.5382e-09
-3.6883e-06
-4.32829e-09
-4.02611e-06
-1.54022e-08
-6.62141e-10
-4.13068e-09
-1.67531e-06
-3.33054e-09
-2.20464e-09
-2.07735e-06
-6.94289e-09
-1.19786e-09
-2.39917e-06
-1.07931e-08
-5.34982e-10
-2.71135e-06
-1.42309e-08
-4.2881e-11
-3.02713e-06
-1.65811e-08
2.99488e-10
-3.35012e-06
-1.72237e-08
5.3289e-10
-3.68093e-06
6.73672e-10
-4.01788e-06
-1.56864e-08
-8.8136e-10
-1.66933e-06
-1.62009e-10
-3.60996e-09
-2.07026e-06
2.2885e-09
-7.2068e-09
-2.39098e-06
3.53272e-09
-1.10101e-08
-2.70195e-06
4.33307e-09
-1.43818e-08
-3.01636e-06
4.88309e-09
-1.66969e-08
-3.33781e-06
5.24218e-09
-1.73562e-08
-3.66693e-06
5.44505e-09
-4.00206e-06
5.50561e-09
-1.58935e-08
5.7513e-10
-2.23466e-08
-1.66594e-06
2.32034e-08
-1.64089e-09
-2.39605e-08
-2.0634e-06
2.53355e-08
-5.32146e-09
-2.46433e-08
-2.38207e-06
2.62601e-08
-9.59073e-09
-2.50384e-08
-2.69159e-06
2.68012e-08
-1.36409e-08
-2.52014e-08
-3.00508e-06
2.70448e-08
-1.66426e-08
-2.51552e-08
-3.32612e-06
2.70288e-08
-1.78007e-08
-2.4921e-08
-3.65535e-06
2.67859e-08
-2.45067e-08
-3.99107e-06
2.63326e-08
-1.64719e-08
-4.23329e-10
-1.98778e-08
-1.67354e-06
-3.73803e-09
-2.08988e-08
-2.07238e-06
-8.49883e-09
-2.12969e-08
-2.39234e-06
-1.37393e-08
-2.15262e-08
-2.70336e-06
-1.85625e-08
-2.16011e-08
-3.0186e-06
-2.20557e-08
-2.15283e-08
-3.34168e-06
-2.33374e-08
-2.13176e-08
-3.6732e-06
-2.09684e-08
-4.0114e-06
-2.16868e-08
-1.42424e-09
-1.58302e-08
-1.6791e-06
-5.83445e-09
-1.61924e-08
-2.07891e-06
-1.16443e-08
-1.62779e-08
-2.39983e-06
-1.78252e-08
-1.63136e-08
-2.71199e-06
-2.34137e-08
-1.62744e-08
-3.02858e-06
-2.74191e-08
-1.61553e-08
-3.35324e-06
-2.88774e-08
-1.59576e-08
-3.68657e-06
-1.56782e-08
-4.02674e-06
-2.69872e-08
-2.2105e-09
-1.05502e-08
-1.68202e-06
-7.45667e-09
-1.02206e-08
-2.08234e-06
-1.40456e-08
-9.98432e-09
-2.40378e-06
-2.09132e-08
-9.81374e-09
-2.71657e-06
-2.70524e-08
-9.64813e-09
-3.03395e-06
-3.14196e-08
-9.4713e-09
-3.35955e-06
-3.29942e-08
-9.27862e-09
-3.69397e-06
-9.0663e-09
-4.03535e-06
-3.09227e-08
-2.7097e-09
-4.51468e-09
-1.68189e-06
-8.43743e-09
-3.51498e-09
-2.08218e-06
-1.54508e-08
-2.97084e-09
-2.4036e-06
-2.26808e-08
-2.60107e-09
-2.7164e-06
-2.91047e-08
-2.3124e-09
-3.03382e-06
-3.36576e-08
-2.07989e-09
-3.3595e-06
-3.5296e-08
-1.89342e-09
-3.69405e-06
-1.75088e-09
-4.03558e-06
-3.31415e-08
-2.77854e-09
1.60246e-09
-1.67863e-06
-8.50361e-09
3.20768e-09
-2.07834e-06
-1.54596e-08
4.01228e-09
-2.39919e-06
-2.26018e-08
4.54154e-09
-2.71134e-06
-2.89268e-08
4.91677e-09
-3.02803e-06
-3.33886e-08
5.17295e-09
-3.35291e-06
-3.49634e-08
5.32673e-09
-3.68658e-06
5.38234e-09
-4.02717e-06
-3.27948e-08
-2.62467e-09
-1.67248e-06
7.38323e-09
-8.0435e-09
-2.07111e-06
9.47272e-09
-1.46518e-08
-2.39087e-06
1.04992e-08
-2.14586e-08
-2.70178e-06
1.11665e-08
-2.7503e-08
-3.01702e-06
1.16151e-08
-3.1784e-08
-3.34025e-06
1.18862e-08
-3.3321e-08
-3.67207e-06
1.20031e-08
-4.01068e-06
1.19694e-08
-3.12894e-08
-1.41554e-09
-2.84559e-08
3.06011e-08
-1.66666e-06
-6.85564e-09
-2.99732e-08
3.25761e-08
-2.06055e-06
-1.42275e-08
-3.06388e-08
3.34441e-08
-2.37749e-06
-2.22177e-08
-3.10598e-08
3.39697e-08
-2.6865e-06
-2.961e-08
-3.12487e-08
3.41959e-08
-3.00062e-06
-3.51356e-08
-3.12112e-08
3.41419e-08
-3.32352e-06
-3.75278e-08
-3.09594e-08
3.38324e-08
-3.65583e-06
-3.04918e-08
3.32783e-08
-3.56929e-08
-3.9957e-06
-2.90936e-09