/*--------------------------------*- C++ -*----------------------------------*\
| =========                 |                                                 |
| \\      /  F ield         | OpenFOAM: The Open Source CFD Toolbox           |
|  \\    /   O peration     | Version:  plus.master.MPPICInterFoam            |
|   \\  /    A nd           | Web:      www.OpenFOAM.com                      |
|    \\/     M anipulation  |                                                 |
\*---------------------------------------------------------------------------*/
FoamFile
{
    version     2.0;
    format      ascii;
    class       volScalarField;
    location    "6.2";
    object      k;
}
// * * * * * * * * * * * * * * * * * * * * * * * * * * * * * * * * * * * * * //

dimensions      [0 2 -2 0 0 0 0];

internalField   nonuniform List<scalar> 
11821
(
5.57478e-05
7.1565e-05
8.61437e-05
9.5987e-05
0.000102273
0.0001055
0.000105864
0.00010342
5.58783e-05
7.13161e-05
8.59076e-05
9.57974e-05
0.000102135
0.000105413
0.000105828
0.000103431
5.59776e-05
7.11743e-05
8.57674e-05
9.56835e-05
0.00010205
0.000105357
0.000105798
0.000103424
5.60334e-05
7.11122e-05
8.57062e-05
9.56338e-05
0.000102013
0.000105332
0.000105786
0.000103422
5.60469e-05
7.11732e-05
8.57639e-05
9.5682e-05
0.00010205
0.000105357
0.000105798
0.000103423
5.60174e-05
7.13228e-05
8.59108e-05
9.58036e-05
0.000102142
0.000105418
0.00010583
0.00010343
5.59569e-05
7.16474e-05
8.62205e-05
9.606e-05
0.000102337
0.000105548
0.000105892
0.000103427
5.56869e-05
7.16133e-05
8.61751e-05
9.59979e-05
0.000102266
0.000105475
0.000105824
0.000103368
5.5798e-05
7.14164e-05
8.59883e-05
9.58479e-05
0.000102156
0.000105407
0.000105798
0.000103379
5.58815e-05
7.13028e-05
8.58758e-05
9.57564e-05
0.000102089
0.000105364
0.000105776
0.000103377
5.59257e-05
7.12519e-05
8.58257e-05
9.57153e-05
0.000102058
0.000105343
0.000105765
0.000103377
5.59302e-05
7.13005e-05
8.58714e-05
9.5753e-05
0.000102086
0.000105361
0.000105774
0.000103376
5.58935e-05
7.14193e-05
8.5988e-05
9.58489e-05
0.000102158
0.000105408
0.000105797
0.000103379
5.58249e-05
7.16741e-05
8.62306e-05
9.60485e-05
0.000102308
0.000105505
0.000105839
0.000103368
5.56429e-05
7.16683e-05
8.62181e-05
9.60231e-05
0.000102273
0.000105466
0.000105799
0.000103328
5.57419e-05
7.15171e-05
8.60734e-05
9.59065e-05
0.000102188
0.000105413
0.000105779
0.00010334
5.5815e-05
7.14296e-05
8.59859e-05
9.58345e-05
0.000102134
0.000105378
0.000105762
0.000103338
5.5852e-05
7.13908e-05
8.59472e-05
9.58024e-05
0.00010211
0.000105361
0.000105753
0.000103337
5.5851e-05
7.14305e-05
8.5984e-05
9.58322e-05
0.000102132
0.000105375
0.000105758
0.000103335
5.58107e-05
7.15245e-05
8.60766e-05
9.59082e-05
0.000102188
0.000105411
0.000105776
0.000103336
5.57387e-05
7.17225e-05
8.62655e-05
9.60631e-05
0.000102304
0.000105484
0.000105805
0.000103323
5.56127e-05
7.17265e-05
8.62672e-05
9.60563e-05
0.00010229
0.000105466
0.000105783
0.000103299
5.5705e-05
7.16156e-05
8.61591e-05
9.59682e-05
0.000102225
0.000105425
0.000105767
0.000103307
5.57722e-05
7.15524e-05
8.60942e-05
9.5914e-05
0.000102183
0.000105397
0.000105753
0.000103304
5.58052e-05
7.15257e-05
8.60665e-05
9.58903e-05
0.000102165
0.000105384
0.000105745
0.000103302
5.58015e-05
7.1559e-05
8.60971e-05
9.59147e-05
0.000102182
0.000105394
0.000105748
0.000103299
5.57599e-05
7.1633e-05
8.61703e-05
9.59747e-05
0.000102227
0.000105422
0.000105762
0.000103299
5.56871e-05
7.17844e-05
8.63157e-05
9.6094e-05
0.000102315
0.000105478
0.000105783
0.000103287
5.55948e-05
7.17871e-05
8.63204e-05
9.60949e-05
0.000102312
0.000105471
0.000105773
0.000103275
5.56847e-05
7.17119e-05
8.62444e-05
9.60317e-05
0.000102264
0.00010544
0.00010576
0.000103278
5.57497e-05
7.16712e-05
8.62001e-05
9.59934e-05
0.000102234
0.000105419
0.000105747
0.000103273
5.57812e-05
7.16563e-05
8.61831e-05
9.59779e-05
0.000102221
0.000105408
0.000105739
0.00010327
5.57768e-05
7.16851e-05
8.62093e-05
9.59985e-05
0.000102235
0.000105416
0.000105741
0.000103266
5.57353e-05
7.17426e-05
8.62667e-05
9.60456e-05
0.00010227
0.000105438
0.000105751
0.000103266
5.56627e-05
7.18556e-05
8.63765e-05
9.61361e-05
0.000102338
0.000105481
0.000105768
0.000103257
5.55891e-05
7.18513e-05
8.63788e-05
9.61394e-05
0.00010234
0.000105482
0.000105767
0.000103253
5.56802e-05
7.18079e-05
8.63314e-05
9.60982e-05
0.000102307
0.000105459
0.000105754
0.000103251
5.57459e-05
7.17883e-05
8.63061e-05
9.60746e-05
0.000102287
0.000105442
0.000105742
0.000103244
5.57782e-05
7.17849e-05
8.62992e-05
9.60668e-05
0.000102279
0.000105435
0.000105735
0.000103238
5.57744e-05
7.18109e-05
8.63226e-05
9.60848e-05
0.000102291
0.000105441
0.000105736
0.000103233
5.57337e-05
7.18545e-05
8.63667e-05
9.61213e-05
0.000102318
0.000105458
0.000105744
0.000103234
5.56612e-05
7.19354e-05
8.64471e-05
9.61883e-05
0.000102369
0.000105491
0.000105758
0.000103229
5.55971e-05
7.19226e-05
8.64463e-05
9.6193e-05
0.000102376
0.000105498
0.000105763
0.000103231
5.56923e-05
7.19087e-05
8.6425e-05
9.61719e-05
0.000102357
0.000105482
0.000105751
0.000103224
5.57614e-05
7.19091e-05
8.64176e-05
9.61622e-05
0.000102346
0.00010547
0.000105739
0.000103213
5.57964e-05
7.1917e-05
8.64207e-05
9.61619e-05
0.000102343
0.000105465
0.000105732
0.000103206
5.57944e-05
7.19415e-05
8.64424e-05
9.61783e-05
0.000102353
0.000105469
0.000105732
0.0001032
5.57545e-05
7.19733e-05
8.64754e-05
9.62058e-05
0.000102374
0.000105483
0.000105738
0.000103201
5.56816e-05
7.20268e-05
8.65308e-05
9.6253e-05
0.00010241
0.000105507
0.00010575
0.000103199
5.56214e-05
7.20081e-05
8.65305e-05
9.62625e-05
0.000102424
0.000105522
0.000105762
0.000103207
5.5724e-05
7.20225e-05
8.6534e-05
9.62606e-05
0.000102418
0.000105512
0.00010575
0.000103195
5.5799e-05
7.20426e-05
8.65443e-05
9.62643e-05
0.000102416
0.000105505
0.000105739
0.00010318
5.58386e-05
7.20621e-05
8.65575e-05
9.62717e-05
0.000102418
0.000105502
0.000105731
0.00010317
5.58393e-05
7.20864e-05
8.65787e-05
9.62874e-05
0.000102427
0.000105505
0.00010573
0.000103163
5.58001e-05
7.21077e-05
8.66018e-05
9.6307e-05
0.000102442
0.000105516
0.000105735
0.000103165
5.57255e-05
7.21371e-05
8.66354e-05
9.63368e-05
0.000102467
0.000105533
0.000105745
0.000103167
5.56668e-05
7.21192e-05
8.66438e-05
9.63593e-05
0.000102495
0.00010556
0.000105767
0.000103181
5.57805e-05
7.21619e-05
8.66724e-05
9.63766e-05
0.000102501
0.000105557
0.000105755
0.000103163
5.58642e-05
7.22026e-05
8.6701e-05
9.63943e-05
0.000102508
0.000105554
0.000105744
0.000103144
5.59104e-05
7.22344e-05
8.6725e-05
9.64098e-05
0.000102515
0.000105553
0.000105735
0.00010313
5.59146e-05
7.22597e-05
8.67467e-05
9.64256e-05
0.000102524
0.000105556
0.000105733
0.000103123
5.58756e-05
7.22716e-05
8.67609e-05
9.64379e-05
0.000102534
0.000105563
0.000105737
0.000103125
5.57978e-05
7.22788e-05
8.67744e-05
9.6452e-05
0.000102547
0.000105574
0.000105746
0.000103131
5.57407e-05
7.22737e-05
8.68063e-05
9.65021e-05
0.000102603
0.000105624
0.000105785
0.000103153
5.58692e-05
7.23466e-05
8.68618e-05
9.65402e-05
0.000102623
0.000105628
0.000105774
0.00010313
5.59653e-05
7.24101e-05
8.69106e-05
9.65735e-05
0.00010264
0.00010563
0.000105762
0.000103107
5.60206e-05
7.24558e-05
8.69471e-05
9.65983e-05
0.000102653
0.000105631
0.000105753
0.000103091
5.60293e-05
7.24836e-05
8.69704e-05
9.66148e-05
0.000102662
0.000105634
0.000105749
0.000103082
5.59899e-05
7.24865e-05
8.69759e-05
9.66201e-05
0.000102667
0.000105637
0.000105752
0.000103084
5.59069e-05
7.24722e-05
8.69699e-05
9.66185e-05
0.000102669
0.000105642
0.00010576
0.000103094
5.58539e-05
7.24996e-05
8.70495e-05
9.6721e-05
0.000102774
0.000105736
0.000105831
0.000103135
5.60021e-05
7.26069e-05
8.71361e-05
9.67836e-05
0.000102812
0.000105749
0.000105823
0.000103109
5.61154e-05
7.26976e-05
8.72093e-05
9.6836e-05
0.000102842
0.000105758
0.000105813
0.000103084
5.61831e-05
7.27603e-05
8.7261e-05
9.6872e-05
0.000102862
0.000105763
0.000105805
0.000103065
5.61977e-05
7.27924e-05
8.72873e-05
9.68905e-05
0.000102872
0.000105765
0.000105799
0.000103054
5.61569e-05
7.27863e-05
8.72838e-05
9.68881e-05
0.00010287
0.000105764
0.000105799
0.000103056
5.60659e-05
7.27496e-05
8.72573e-05
9.68694e-05
0.000102859
0.000105761
0.000105804
0.000103067
5.60227e-05
7.28403e-05
8.74223e-05
9.70641e-05
0.000103054
0.000105935
0.000105941
0.000103156
5.61978e-05
7.29898e-05
8.75478e-05
9.71585e-05
0.000103115
0.000105964
0.000105942
0.000103134
5.63348e-05
7.31153e-05
8.76525e-05
9.72355e-05
0.000103164
0.000105985
0.00010594
0.000103112
5.64195e-05
7.32007e-05
8.77234e-05
9.72864e-05
0.000103194
0.000105997
0.000105935
0.000103094
5.64423e-05
7.32397e-05
8.7754e-05
9.73071e-05
0.000103205
0.000105999
0.000105929
0.000103082
5.63987e-05
7.32232e-05
8.77394e-05
9.72949e-05
0.000103196
0.000105992
0.000105924
0.00010308
5.62958e-05
7.31602e-05
8.76871e-05
9.72554e-05
0.000103169
0.000105978
0.000105922
0.000103088
5.62719e-05
7.33613e-05
8.79986e-05
9.76061e-05
0.000103518
0.000106298
0.000106192
0.00010329
5.64842e-05
7.35663e-05
8.81733e-05
9.77429e-05
0.000103616
0.000106359
0.00010622
0.000103291
5.66548e-05
7.37359e-05
8.83166e-05
9.78543e-05
0.000103694
0.000106406
0.000106239
0.000103287
5.67634e-05
7.38479e-05
8.84119e-05
9.7927e-05
0.000103744
0.000106433
0.000106248
0.000103281
5.6796e-05
7.38923e-05
8.84483e-05
9.79526e-05
0.000103758
0.000106437
0.000106243
0.000103269
5.67462e-05
7.38607e-05
8.84201e-05
9.79279e-05
0.000103737
0.000106419
0.000106229
0.000103258
5.66233e-05
7.37645e-05
8.83372e-05
9.78617e-05
0.000103688
0.000106386
0.00010621
0.000103252
5.66389e-05
7.41512e-05
8.88777e-05
9.84633e-05
0.000104299
0.000106973
0.000106745
0.000103708
5.69021e-05
7.44209e-05
8.91199e-05
9.86656e-05
0.00010446
0.000107096
0.000106836
0.00010377
5.7114e-05
7.46446e-05
8.93198e-05
9.88313e-05
0.000104591
0.000107195
0.000106908
0.00010382
5.72492e-05
7.47933e-05
8.94511e-05
9.8938e-05
0.000104673
0.000107255
0.000106949
0.000103847
5.7291e-05
7.48478e-05
8.94966e-05
9.89711e-05
0.000104694
0.000107264
0.00010695
0.000103841
5.72307e-05
7.47978e-05
8.94493e-05
9.89272e-05
0.000104653
0.000107226
0.000106914
0.000103808
5.70814e-05
7.46603e-05
8.93252e-05
9.88214e-05
0.000104565
0.000107155
0.000106857
0.000103763
5.52066e-05
7.22645e-05
8.67996e-05
9.6485e-05
0.000102596
0.000105648
0.000105856
0.000103284
5.53781e-05
7.27023e-05
8.71639e-05
9.67558e-05
0.000102766
0.000105715
0.000105823
0.00010317
5.54342e-05
7.2944e-05
8.75092e-05
9.71881e-05
0.000103309
5.61636e-05
7.43592e-05
5.53432e-05
5.50459e-05
7.21569e-05
8.6691e-05
9.63826e-05
0.000102505
0.000105572
0.000105794
0.000103235
5.51466e-05
7.24663e-05
8.6942e-05
9.65601e-05
0.000102602
0.000105586
0.000105728
0.000103106
5.51467e-05
7.25619e-05
8.70951e-05
9.67491e-05
0.000102831
0.000105855
0.000106027
0.000103428
5.5617e-05
7.34781e-05
8.78996e-05
9.74416e-05
0.0001034
0.000106284
0.000106321
0.000103618
5.51017e-05
7.25235e-05
8.70549e-05
9.6707e-05
0.00010278
0.000105797
0.000105974
0.00010338
5.50616e-05
7.24494e-05
8.69222e-05
9.65373e-05
0.000102579
0.000105563
0.000105707
0.000103085
5.48895e-05
7.20528e-05
8.66066e-05
9.63143e-05
0.000102455
0.000105541
0.000105782
0.000103233
5.49436e-05
7.20797e-05
8.6618e-05
9.63189e-05
0.000102453
0.000105532
0.000105765
0.000103214
5.49964e-05
7.22968e-05
8.6792e-05
9.64392e-05
0.000102514
0.000105531
0.000105705
0.000103107
5.49686e-05
7.23186e-05
8.6852e-05
9.65185e-05
0.000102609
0.000105642
0.000105833
0.00010325
5.52719e-05
7.29217e-05
8.73578e-05
9.69287e-05
0.000102917
0.000105835
0.000105906
0.000103228
5.49385e-05
7.22962e-05
8.68284e-05
9.64935e-05
0.000102583
0.000105616
0.000105808
0.000103226
5.49395e-05
7.22859e-05
8.67812e-05
9.64275e-05
0.000102503
0.00010552
0.000105694
0.000103095
5.4834e-05
7.19983e-05
8.6556e-05
9.62722e-05
0.000102422
0.000105516
0.000105763
0.000103219
5.48778e-05
7.2018e-05
8.65628e-05
9.62745e-05
0.00010242
0.00010551
0.000105752
0.000103207
5.48965e-05
7.2166e-05
8.66803e-05
9.63542e-05
0.000102458
0.000105504
0.000105703
0.000103125
5.48547e-05
7.21494e-05
8.66924e-05
9.63806e-05
0.000102495
0.000105552
0.000105763
0.000103195
5.50492e-05
7.25519e-05
8.70188e-05
9.66325e-05
0.000102668
0.000105635
0.000105754
0.000103113
5.48301e-05
7.21307e-05
8.66739e-05
9.63617e-05
0.000102477
0.000105534
0.000105747
0.00010318
5.48513e-05
7.21487e-05
8.6666e-05
9.6342e-05
0.000102448
0.000105496
0.000105696
0.000103117
5.47913e-05
7.19414e-05
8.65052e-05
9.62327e-05
0.000102394
0.000105498
0.000105752
0.000103214
5.48338e-05
7.19632e-05
8.65163e-05
9.62398e-05
0.000102397
0.000105497
0.000105747
0.000103207
5.48275e-05
7.20595e-05
8.65917e-05
9.62896e-05
0.000102419
0.000105488
0.000105709
0.000103146
5.47787e-05
7.20225e-05
8.65779e-05
9.62882e-05
0.000102427
0.000105506
0.000105737
0.000103183
5.49005e-05
7.22926e-05
8.67912e-05
9.64465e-05
0.000102527
0.000105541
0.000105705
0.000103097
5.47552e-05
7.20032e-05
8.65601e-05
9.62714e-05
0.000102411
0.000105493
0.000105726
0.000103174
5.47843e-05
7.20299e-05
8.65677e-05
9.62707e-05
0.000102405
0.000105479
0.000105702
0.00010314
5.47549e-05
7.18811e-05
8.6453e-05
9.61937e-05
0.000102368
0.000105483
0.000105746
0.000103214
5.48024e-05
7.1912e-05
8.64752e-05
9.62113e-05
0.00010238
0.000105489
0.000105746
0.000103209
5.47765e-05
7.19688e-05
8.65186e-05
9.62383e-05
0.000102389
0.000105478
0.000105716
0.000103165
5.47246e-05
7.19223e-05
8.64913e-05
9.62225e-05
0.000102383
0.000105482
0.000105729
0.000103187
5.47963e-05
7.21006e-05
8.6629e-05
9.63217e-05
0.000102441
0.000105494
0.000105694
0.000103114
5.46987e-05
7.18979e-05
8.64697e-05
9.62038e-05
0.000102367
0.00010547
0.000105721
0.000103181
5.47291e-05
7.1924e-05
8.64815e-05
9.62096e-05
0.000102368
0.000105465
0.000105708
0.000103161
5.47207e-05
7.18179e-05
8.64002e-05
9.61556e-05
0.000102343
0.00010547
0.000105742
0.000103216
5.47788e-05
7.18651e-05
8.64405e-05
9.61895e-05
0.000102369
0.000105485
0.000105747
0.000103213
5.47362e-05
7.18908e-05
8.64588e-05
9.61987e-05
0.000102368
0.000105473
0.000105723
0.00010318
5.46837e-05
7.18403e-05
8.64244e-05
9.61751e-05
0.000102354
0.000105469
0.000105728
0.000103194
5.47195e-05
7.19531e-05
8.65095e-05
9.62347e-05
0.000102386
0.00010547
0.000105698
0.000103138
5.46527e-05
7.18079e-05
8.63962e-05
9.61519e-05
0.000102336
0.000105456
0.000105721
0.000103191
5.4681e-05
7.18291e-05
8.64068e-05
9.61583e-05
0.000102339
0.000105455
0.000105714
0.000103178
5.46877e-05
7.17544e-05
8.63498e-05
9.61208e-05
0.000102322
0.00010546
0.00010574
0.00010322
5.47615e-05
7.18266e-05
8.6417e-05
9.61789e-05
0.000102366
0.000105488
0.00010575
0.000103215
5.47043e-05
7.18269e-05
8.64149e-05
9.61734e-05
0.000102357
0.000105473
0.00010573
0.00010319
5.46518e-05
7.17748e-05
8.63764e-05
9.6145e-05
0.000102338
0.000105464
0.000105731
0.0001032
5.46613e-05
7.18401e-05
8.64239e-05
9.61769e-05
0.000102353
0.00010546
0.000105706
0.000103158
5.46141e-05
7.17324e-05
8.63396e-05
9.61155e-05
0.000102316
0.00010545
0.000105724
0.000103199
5.46387e-05
7.1747e-05
8.63465e-05
9.61199e-05
0.000102319
0.00010545
0.00010572
0.000103191
5.46571e-05
7.16952e-05
8.63069e-05
9.6094e-05
0.000102308
0.000105454
0.000105739
0.000103222
5.47521e-05
7.18039e-05
8.64134e-05
9.61871e-05
0.000102379
0.000105499
0.000105756
0.000103213
5.46824e-05
7.17831e-05
8.63942e-05
9.61693e-05
0.000102362
0.000105482
0.000105738
0.000103195
5.46282e-05
7.17297e-05
8.63524e-05
9.61373e-05
0.00010234
0.00010547
0.000105736
0.000103201
5.46187e-05
7.17598e-05
8.63721e-05
9.61489e-05
0.000102343
0.000105462
0.000105717
0.000103172
5.45836e-05
7.16758e-05
8.63056e-05
9.61e-05
0.000102313
0.000105453
0.000105729
0.000103202
5.46038e-05
7.1683e-05
8.63073e-05
9.6101e-05
0.000102314
0.000105454
0.000105728
0.000103199
5.46327e-05
7.16482e-05
8.62803e-05
9.6083e-05
0.000102306
0.000105456
0.000105741
0.000103222
5.47549e-05
7.18091e-05
8.64434e-05
9.62273e-05
0.000102417
0.000105527
0.000105769
0.000103208
5.46748e-05
7.17709e-05
8.64099e-05
9.61988e-05
0.000102394
0.000105507
0.000105752
0.000103193
5.46171e-05
7.17152e-05
8.63644e-05
9.61631e-05
0.000102368
0.000105492
0.000105747
0.000103197
5.45929e-05
7.17186e-05
8.63629e-05
9.61594e-05
0.000102362
0.000105482
0.000105732
0.000103178
5.45654e-05
7.16486e-05
8.63061e-05
9.61169e-05
0.000102335
0.000105473
0.00010574
0.000103201
5.45809e-05
7.16477e-05
8.63018e-05
9.61136e-05
0.000102334
0.000105473
0.000105741
0.000103203
5.46208e-05
7.16258e-05
8.6283e-05
9.61004e-05
0.000102327
0.000105474
0.000105751
0.00010322
5.47781e-05
7.18624e-05
8.65298e-05
9.63209e-05
0.0001025
0.000105585
0.000105794
0.000103199
5.46887e-05
7.18094e-05
8.64838e-05
9.62829e-05
0.000102469
0.000105561
0.000105777
0.000103187
5.46265e-05
7.17504e-05
8.6434e-05
9.6243e-05
0.00010244
0.000105543
0.000105769
0.000103188
5.45898e-05
7.17327e-05
8.64157e-05
9.6227e-05
0.000102427
0.000105532
0.000105758
0.000103178
5.45676e-05
7.16697e-05
8.63626e-05
9.61865e-05
0.000102401
0.000105522
0.000105764
0.000103197
5.45782e-05
7.16602e-05
8.63514e-05
9.61782e-05
0.000102397
0.000105522
0.000105768
0.000103203
5.46244e-05
7.16469e-05
8.63383e-05
9.61688e-05
0.000102392
0.000105523
0.000105776
0.000103218
5.48347e-05
7.19964e-05
8.67082e-05
9.6502e-05
0.000102655
0.000105695
0.00010585
0.000103195
5.47362e-05
7.19294e-05
8.66504e-05
9.64547e-05
0.000102617
0.000105667
0.00010583
0.000103182
5.46694e-05
7.18667e-05
8.65954e-05
9.64096e-05
0.000102584
0.000105646
0.00010582
0.000103182
5.46204e-05
7.1831e-05
8.65636e-05
9.63837e-05
0.000102565
0.000105633
0.000105813
0.00010318
5.46009e-05
7.17703e-05
8.65093e-05
9.63419e-05
0.000102539
0.000105624
0.000105819
0.0001032
5.46073e-05
7.17513e-05
8.64904e-05
9.63279e-05
0.000102531
0.000105623
0.000105824
0.00010321
5.46518e-05
7.17428e-05
8.64816e-05
9.63222e-05
0.00010253
0.000105626
0.000105834
0.000103225
5.49349e-05
7.22586e-05
8.70336e-05
9.68242e-05
0.000102932
0.000105901
0.000105969
0.000103223
5.483e-05
7.21795e-05
8.69633e-05
9.67653e-05
0.000102884
0.000105864
0.000105943
0.000103206
5.47561e-05
7.21114e-05
8.69025e-05
9.67151e-05
0.000102848
0.000105841
0.000105932
0.000103205
5.47006e-05
7.20589e-05
8.68568e-05
9.66795e-05
0.000102822
0.000105827
0.000105928
0.00010321
5.46743e-05
7.19955e-05
8.67992e-05
9.66354e-05
0.000102796
0.00010582
0.000105939
0.000103236
5.46757e-05
7.19659e-05
8.67715e-05
9.6615e-05
0.000102785
0.000105818
0.000105946
0.00010325
5.47177e-05
7.19592e-05
8.67646e-05
9.66116e-05
0.000102786
0.000105824
0.000105957
0.000103266
5.51002e-05
7.27166e-05
8.75834e-05
9.73656e-05
0.000103406
0.000106274
0.000106223
0.000103348
5.49879e-05
7.26255e-05
8.74996e-05
9.72911e-05
0.000103344
0.000106225
0.000106186
0.000103323
5.4907e-05
7.25506e-05
8.74311e-05
9.72346e-05
0.000103302
0.000106198
0.000106174
0.000103322
5.48445e-05
7.24835e-05
8.73727e-05
9.71893e-05
0.000103273
0.000106186
0.000106176
0.000103338
5.48091e-05
7.24109e-05
8.73076e-05
9.71434e-05
0.000103248
0.000106182
0.000106192
0.00010337
5.48039e-05
7.23685e-05
8.72694e-05
9.71157e-05
0.000103234
0.000106179
0.0001062
0.000103386
5.4843e-05
7.23609e-05
8.72621e-05
9.71128e-05
0.000103236
0.000106187
0.000106212
0.000103402
5.50119e-05
5.53126e-05
7.25085e-05
5.53132e-05
7.2283e-05
8.68181e-05
9.65175e-05
0.000102635
5.54288e-05
7.21524e-05
8.66901e-05
9.64147e-05
0.000102568
0.000105659
0.000105891
0.000103325
5.55866e-05
7.18259e-05
8.63925e-05
9.6185e-05
0.000102416
0.000105587
0.000105902
0.000103415
5.48767e-05
7.19942e-05
8.65548e-05
9.62734e-05
0.000102424
0.000105519
0.000105765
0.000103219
5.49632e-05
7.20599e-05
8.66008e-05
9.63026e-05
0.000102436
0.000105514
0.000105741
0.000103177
5.50422e-05
7.20836e-05
8.6635e-05
9.63407e-05
0.000102472
0.000105545
0.000105769
0.000103204
5.52725e-05
7.23343e-05
8.68219e-05
9.64839e-05
0.000102574
0.0001056
0.000105772
0.000103156
5.52893e-05
7.21585e-05
8.66921e-05
9.63988e-05
0.000102534
0.00010561
0.000105836
0.00010327
5.54111e-05
7.20651e-05
8.65965e-05
9.63272e-05
0.000102492
0.000105595
0.00010584
0.000103286
5.55486e-05
7.18142e-05
8.63675e-05
9.61506e-05
0.000102374
0.000105539
0.000105848
0.000103356
5.48521e-05
7.19652e-05
8.65251e-05
9.62491e-05
0.000102406
0.000105506
0.000105755
0.00010321
5.49504e-05
7.20125e-05
8.65571e-05
9.62699e-05
0.000102416
0.000105504
0.000105741
0.000103184
5.50316e-05
7.20356e-05
8.65826e-05
9.62947e-05
0.000102438
0.000105523
0.000105758
0.000103201
5.52231e-05
7.2193e-05
8.67031e-05
9.63874e-05
0.000102502
0.000105553
0.000105751
0.000103157
5.52692e-05
7.20717e-05
8.66062e-05
9.63244e-05
0.000102476
0.000105567
0.000105806
0.00010325
5.53941e-05
7.20084e-05
8.65384e-05
9.62741e-05
0.000102446
0.000105557
0.00010581
0.000103263
5.55193e-05
7.18197e-05
8.63651e-05
9.61404e-05
0.000102357
0.000105515
0.000105818
0.000103319
5.48303e-05
7.19268e-05
8.64897e-05
9.62216e-05
0.000102387
0.000105495
0.000105749
0.000103209
5.49265e-05
7.19605e-05
8.65132e-05
9.62387e-05
0.000102398
0.000105497
0.000105744
0.000103194
5.50137e-05
7.19809e-05
8.65322e-05
9.62563e-05
0.000102412
0.000105509
0.000105754
0.000103205
5.51814e-05
7.20891e-05
8.66141e-05
9.63196e-05
0.000102456
0.00010553
0.000105748
0.000103173
5.52526e-05
7.20117e-05
8.65488e-05
9.62765e-05
0.000102439
0.000105541
0.000105788
0.00010324
5.53779e-05
7.19717e-05
8.65028e-05
9.62428e-05
0.00010242
0.000105536
0.000105794
0.000103253
5.54973e-05
7.18354e-05
8.63753e-05
9.61435e-05
0.000102353
0.000105503
0.000105798
0.000103292
5.48065e-05
7.18791e-05
8.64484e-05
9.61912e-05
0.000102367
0.000105484
0.000105746
0.000103211
5.49004e-05
7.1907e-05
8.64686e-05
9.62073e-05
0.000102379
0.00010549
0.000105746
0.000103204
5.49947e-05
7.19305e-05
8.64876e-05
9.62236e-05
0.000102392
0.0001055
0.000105754
0.000103212
5.51448e-05
7.20114e-05
8.65491e-05
9.62718e-05
0.000102426
0.000105518
0.000105752
0.00010319
5.52373e-05
7.19684e-05
8.65095e-05
9.62456e-05
0.000102416
0.000105526
0.00010578
0.000103238
5.53644e-05
7.19498e-05
8.6483e-05
9.62257e-05
0.000102405
0.000105524
0.000105784
0.000103245
5.54828e-05
7.18586e-05
8.63949e-05
9.61562e-05
0.000102358
0.0001055
0.000105786
0.000103272
5.478e-05
7.18253e-05
8.64037e-05
9.61595e-05
0.000102348
0.000105474
0.000105744
0.000103216
5.48727e-05
7.18531e-05
8.64248e-05
9.61767e-05
0.000102361
0.000105483
0.000105748
0.000103214
5.4975e-05
7.1883e-05
8.64476e-05
9.61954e-05
0.000102375
0.000105493
0.000105755
0.000103219
5.51138e-05
7.19518e-05
8.65009e-05
9.62378e-05
0.000102406
0.000105511
0.000105757
0.000103205
5.52248e-05
7.19382e-05
8.64843e-05
9.62271e-05
0.000102404
0.000105518
0.000105776
0.000103236
5.53554e-05
7.19408e-05
8.64768e-05
9.62211e-05
0.000102401
0.000105519
0.000105779
0.000103239
5.54764e-05
7.18892e-05
8.64232e-05
9.61777e-05
0.00010237
0.000105502
0.000105778
0.000103255
5.47519e-05
7.17693e-05
8.63598e-05
9.61297e-05
0.00010233
0.000105466
0.000105743
0.00010322
5.48465e-05
7.18015e-05
8.63846e-05
9.61497e-05
0.000102345
0.000105477
0.000105749
0.00010322
5.49568e-05
7.18401e-05
8.64143e-05
9.61736e-05
0.000102363
0.000105489
0.000105756
0.000103224
5.50918e-05
7.19084e-05
8.64677e-05
9.62162e-05
0.000102395
0.000105508
0.000105762
0.000103215
5.52173e-05
7.19209e-05
8.64733e-05
9.62215e-05
0.000102401
0.000105517
0.000105775
0.000103234
5.53533e-05
7.19455e-05
8.64856e-05
9.62301e-05
0.000102407
0.000105521
0.000105776
0.000103232
5.54799e-05
7.19296e-05
8.64632e-05
9.62102e-05
0.000102392
0.000105511
0.000105774
0.000103239
5.47253e-05
7.17169e-05
8.63227e-05
9.61071e-05
0.000102318
0.000105462
0.000105744
0.000103223
5.48251e-05
7.1756e-05
8.63529e-05
9.61312e-05
0.000102337
0.000105474
0.000105751
0.000103225
5.49423e-05
7.18059e-05
8.63925e-05
9.61629e-05
0.00010236
0.00010549
0.000105759
0.000103227
5.508e-05
7.18812e-05
8.64524e-05
9.62105e-05
0.000102395
0.000105512
0.000105767
0.000103221
5.52172e-05
7.19198e-05
8.64808e-05
9.62327e-05
0.000102412
0.000105524
0.000105776
0.00010323
5.53612e-05
7.19678e-05
8.65139e-05
9.6257e-05
0.000102428
0.000105532
0.000105777
0.000103223
5.54966e-05
7.19856e-05
8.6521e-05
9.62595e-05
0.000102427
0.000105529
0.000105773
0.000103221
5.47057e-05
7.16762e-05
8.63008e-05
9.60995e-05
0.000102319
0.000105465
0.000105747
0.000103224
5.48105e-05
7.17235e-05
8.63385e-05
9.61298e-05
0.000102342
0.000105481
0.000105756
0.000103226
5.49347e-05
7.17878e-05
8.63911e-05
9.61717e-05
0.000102373
0.000105501
0.000105765
0.000103227
5.50789e-05
7.18758e-05
8.64627e-05
9.62285e-05
0.000102414
0.000105526
0.000105774
0.000103221
5.52284e-05
7.19421e-05
8.65152e-05
9.62692e-05
0.000102443
0.000105544
0.000105783
0.000103222
5.53832e-05
7.20157e-05
8.65713e-05
9.6311e-05
0.00010247
0.000105557
0.000105783
0.000103211
5.55309e-05
7.20668e-05
8.66076e-05
9.63358e-05
0.000102484
0.000105561
0.000105778
0.0001032
5.46969e-05
7.16587e-05
8.63084e-05
9.61211e-05
0.000102344
0.000105486
0.000105758
0.000103223
5.48059e-05
7.17169e-05
8.63564e-05
9.61598e-05
0.000102373
0.000105506
0.000105768
0.000103225
5.49385e-05
7.17985e-05
8.64246e-05
9.62143e-05
0.000102413
0.000105531
0.00010578
0.000103224
5.50925e-05
7.19045e-05
8.65129e-05
9.62843e-05
0.000102463
0.000105562
0.000105791
0.000103217
5.52564e-05
7.20008e-05
8.6592e-05
9.63457e-05
0.000102506
0.000105587
0.0001058
0.000103213
5.54256e-05
7.21032e-05
8.6674e-05
9.64075e-05
0.000102547
0.000105606
0.0001058
0.000103196
5.55895e-05
7.2189e-05
8.67412e-05
9.64562e-05
0.000102577
0.000105618
0.000105795
0.000103178
5.47027e-05
7.16853e-05
8.63693e-05
9.61943e-05
0.000102412
0.000105538
0.000105785
0.000103222
5.48175e-05
7.17567e-05
8.64298e-05
9.62434e-05
0.000102449
0.000105562
0.000105797
0.000103224
5.49606e-05
7.18588e-05
8.6517e-05
9.63135e-05
0.000102501
0.000105595
0.000105812
0.000103222
5.5128e-05
7.19882e-05
8.66271e-05
9.64012e-05
0.000102564
0.000105633
0.000105827
0.000103215
5.53094e-05
7.2118e-05
8.67365e-05
9.64868e-05
0.000102624
0.000105668
0.000105838
0.000103207
5.54974e-05
7.22537e-05
8.6849e-05
9.65727e-05
0.000102681
0.000105697
0.000105841
0.000103187
5.56819e-05
7.2378e-05
8.69509e-05
9.66486e-05
0.00010273
0.000105719
0.000105838
0.000103164
5.47329e-05
7.17872e-05
8.65189e-05
9.63533e-05
0.000102554
0.000105644
0.000105845
0.00010323
5.48553e-05
7.18744e-05
8.65944e-05
9.64151e-05
0.000102601
0.000105675
0.000105861
0.000103233
5.50118e-05
7.20009e-05
8.67048e-05
9.65048e-05
0.000102667
0.000105718
0.000105882
0.000103233
5.51967e-05
7.21601e-05
8.68433e-05
9.66163e-05
0.000102749
0.00010577
0.000105904
0.000103229
5.53997e-05
7.23283e-05
8.69887e-05
9.67316e-05
0.000102832
0.000105819
0.000105923
0.000103222
5.5612e-05
7.25046e-05
8.7139e-05
9.68486e-05
0.000102912
0.000105863
0.000105934
0.000103203
5.58228e-05
7.26736e-05
8.72823e-05
9.69581e-05
0.000102985
0.000105901
0.000105939
0.000103181
5.48023e-05
7.20101e-05
8.6809e-05
9.66492e-05
0.000102816
0.000105846
0.000105971
0.000103273
5.49345e-05
7.21159e-05
8.69028e-05
9.6727e-05
0.000102876
0.000105888
0.000105994
0.000103279
5.51076e-05
7.22722e-05
8.70425e-05
9.68426e-05
0.000102964
0.000105948
0.000106028
0.000103288
5.53151e-05
7.24694e-05
8.72185e-05
9.69871e-05
0.000103073
0.000106021
0.000106067
0.000103297
5.55455e-05
7.26845e-05
8.74092e-05
9.71418e-05
0.000103188
0.000106096
0.000106106
0.000103304
5.57894e-05
7.29117e-05
8.76084e-05
9.73011e-05
0.000103303
0.000106167
0.000106137
0.000103301
5.60345e-05
7.31365e-05
8.78051e-05
9.74554e-05
0.000103412
0.000106233
0.000106164
0.000103295
5.49319e-05
7.24194e-05
8.73148e-05
9.71586e-05
0.000103273
0.000106216
0.000106231
0.000103412
5.50762e-05
7.25474e-05
8.74317e-05
9.72578e-05
0.000103352
0.000106273
0.000106268
0.00010343
5.52706e-05
7.27412e-05
8.76099e-05
9.74091e-05
0.000103474
0.000106363
0.000106329
0.000103464
5.55072e-05
7.29879e-05
8.78366e-05
9.76015e-05
0.000103626
0.000106476
0.000106406
0.000103508
5.57733e-05
7.32631e-05
8.80883e-05
9.7812e-05
0.000103791
0.000106599
0.000106491
0.000103559
5.60585e-05
7.35574e-05
8.83533e-05
9.80294e-05
0.00010396
0.000106722
0.000106572
0.000103604
5.63495e-05
7.38554e-05
8.86162e-05
9.82459e-05
0.000104128
0.000106845
0.000106654
0.00010365
5.58922e-05
7.20078e-05
8.6564e-05
9.63376e-05
0.000102541
0.000105678
0.000105956
0.000103434
5.60383e-05
7.2681e-05
8.71199e-05
9.67462e-05
0.000102795
0.000105774
0.000105905
0.000103266
5.60482e-05
7.29876e-05
8.74437e-05
9.70652e-05
0.000103117
0.000106113
0.000106273
0.00010367
5.6456e-05
7.39993e-05
8.83985e-05
9.79332e-05
0.000103879
0.000106744
0.00010677
0.000104081
5.5681e-05
7.2767e-05
8.72908e-05
9.69423e-05
0.000103007
0.000106007
0.00010616
0.000103545
5.5581e-05
7.27057e-05
8.71273e-05
9.66982e-05
0.000102689
0.000105618
0.000105713
0.000103055
5.52401e-05
7.22115e-05
8.67606e-05
9.64575e-05
0.000102576
0.000105634
0.000105845
0.000103274
5.57425e-05
7.19467e-05
8.64911e-05
9.62593e-05
0.000102463
0.000105603
0.000105886
0.000103369
5.58085e-05
7.24509e-05
8.69095e-05
9.65632e-05
0.000102644
0.00010566
0.000105825
0.000103214
5.57574e-05
7.26318e-05
8.70972e-05
9.67348e-05
0.000102802
0.000105813
0.000105984
0.000103385
5.59996e-05
7.32986e-05
8.7694e-05
9.72394e-05
0.000103196
0.000106074
0.000106103
0.000103396
5.54451e-05
7.2491e-05
8.69955e-05
9.66431e-05
0.000102711
0.000105719
0.000105886
0.000103282
5.53684e-05
7.24886e-05
8.69357e-05
9.65424e-05
0.000102575
0.000105548
0.000105683
0.000103056
5.50908e-05
7.21264e-05
8.66673e-05
9.63656e-05
0.000102493
0.000105563
0.000105788
0.000103229
5.56474e-05
7.19271e-05
8.64634e-05
9.62235e-05
0.000102421
0.000105558
0.000105839
0.000103322
5.56589e-05
7.23018e-05
8.67766e-05
9.64512e-05
0.000102557
0.000105599
0.000105789
0.000103198
5.55747e-05
7.24094e-05
8.6889e-05
9.65475e-05
0.000102638
0.000105671
0.00010586
0.000103274
5.5708e-05
7.28538e-05
8.72714e-05
9.68517e-05
0.000102849
0.000105773
0.000105848
0.000103171
5.52965e-05
7.23163e-05
8.68206e-05
9.64809e-05
0.000102568
0.000105596
0.000105783
0.000103195
5.52275e-05
7.23329e-05
8.68047e-05
9.64431e-05
0.000102511
0.000105521
0.000105687
0.000103084
5.49979e-05