/*--------------------------------*- C++ -*----------------------------------*\
| =========                 |                                                 |
| \\      /  F ield         | OpenFOAM: The Open Source CFD Toolbox           |
|  \\    /   O peration     | Version:  plus.master.MPPICInterFoam            |
|   \\  /    A nd           | Web:      www.OpenFOAM.com                      |
|    \\/     M anipulation  |                                                 |
\*---------------------------------------------------------------------------*/
FoamFile
{
    version     2.0;
    format      ascii;
    class       labelField;
    location    "3.2/lagrangian/kinematicCloud";
    object      origId;
}
// * * * * * * * * * * * * * * * * * * * * * * * * * * * * * * * * * * * * * //


948
(
20259
9946
26185
14213
32109
4396
12380
1855
13385
8872
8524
21479
19095
26738
20163
173
1210
4928
10702
11727
19261
240
155
25434
20059
22958
1293
26615
1554
28391
9649
23703
8360
11450
1198
22477
6935
12659
22140
13362
7919
13082
14545
6507
4095
22973
8711
7626
2557
13989
13630
29110
13522
13805
1796
4470
1896
35296
11479
4578
1145
7718
3797
13503
14181
41496
1026
7589
6470
2397
8661
6250
5231
1958
21083
6490
2724
4155
15796
8938
28606
16792
13979
23650
5740
4293
25875
12768
30797
24889
35141
10542
13063
18386
5052
15422
9526
9530
11357
10723
3228
5519
9519
8391
11596
17440
19774
540
620
8415
20508
8095
21122
5355
24779
37343
14234
17946
11264
46063
3943
14194
6720
8358
13843
21727
23612
28280
8803
615
6339
16456
10053
20190
3745
20215
17184
13125
12500
32443
2987
8917
5090
6224
9560
3181
28945
18499
15567
18099
22687
27390
12020
22623
4959
12923
43871
3563
8327
8723
13693
11951
1579
8911
32963
17565
26293
207
1236
8078
3440
44178
6684
18705
14897
16347
8220
9745
298
20232
24218
11639
14838
21685
1147
4535
11430
2510
7435
12180
1265
33936
29280
5222
14829
8784
16067
4121
16770
1240
26236
23744
11020
20015
231
6463
7278
12252
13281
1758
27055
2565
5035
2155
11321
19434
16974
3327
32436
31129
8620
9301
13757
17854
23997
26222
325
15296
5435
9085
10831
316
5004
12034
22373
7064
1376
1903
4054
4565
7461
13199
34884
3474
6073
14379
8732
42718
22406
5278
5617
536
2653
9309
17951
16923
835
19126
1233
4380
1513
30591
8891
21748
903
797
27296
16
22434
36804
14933
12237
21227
3196
12074
17049
25149
9247
13484
15703
16282
38101
15367
44698
1054
11525
3028
5662
13906
3896
762
584
5282
5806
14940
17246
12004
6002
23376
10597
28426
38252
10853
30796
14411
24161
7607
17359
4277
8054
9134
3408
12899
23468
4733
10802
13658
17040
20082
3287
19986
23721
1553
10191
15168
6177
3096
38977
4108
13416
22463
31099
43179
16379
5702
8042
25837
4084
10124
10751
12974
13452
16874
23278
7410
12939
25403
39605
3719
16085
18700
7729
1648
4746
24309
39218
2235
2503
3685
16328
16062
17032
1837
15452
8967
17764
8820
13404
13827
23343
4893
13422
11093
12271
20525
8235
16837
21883
23330
2934
26228
5910
11010
47091
5665
13371
29983
49223
226
990
15782
2172
25443
2251
2982
46864
307
26323
30876
5149
8171
11796
11888
7176
18458
22503
9736
827
1091
6985
7342
15478
44039
27057
7760
14055
16534
18725
1059
22372
27758
2004
5996
7644
21896
11438
6417
7434
7506
3126
1107
8064
17615
2625
9831
11942
11816
4974
13494
21718
858
8616
4078
7788
11006
16926
38858
55878
12489
2317
9876
6450
6785
13992
23462
1389
10848
13013
4050
33413
6428
15372
12841
17668
10398
32550
5001
18021
549
11029
5635
6496
8490
4729
5441
6215
6946
21686
33703
1702
17202
6155
7611
11821
13003
18515
72
41650
5338
14587
2374
14035
20026
14567
11972
16839
18299
15785
32603
6278
25542
8756
18946
8525
13602
13991
18983
55705
732
4374
5881
18686
34918
12931
3918
4020
9778
12604
24693
1923
7731
33729
12208
22040
5347
3593
17765
6235
323
2034
10005
16185
30198
42228
37143
4355
25751
6359
1024
13668
14172
27879
1424
6716
25433
25897
10270
20113
18689
7401
3760
3224
4195
9571
25516
3886
23234
38052
14143
20753
14902
5108
8040
13427
16751
6761
10534
22052
20789
40804
9418
13974
28213
123
16847
7361
15803
21667
6074
6880
18278
3786
16572
2351
11412
9109
31704
5436
12001
24132
3808
12588
22366
12211
222
3597
14405
4202
26572
31891
4832
6964
3689
201
37877
893
3762
7108
23030
24058
8735
4361
10007
12630
13039
27448
5428
964
20421
8533
18743
119
21068
21202
1306
19369
14753
8313
2769
3222
21067
22773
3879
35572
36870
216
13552
1495
31735
19136
22225
28526
1367
2978
10633
2588
9118
2885
4852
15281
10656
15595
25692
28002
9741
9676
8165
175
11416
1130
7056
7441
9675
40057
45215
2856
1349
5953
35510
6104
37248
6056
26243
10167
16916
20877
22071
10773
114
3662
7071
27195
1006
11612
7590
9048
21003
26127
18391
4532
8265
56523
22570
38880
1311
37104
50529
5449
22358
16141
4479
20104
7690
10000
40982
70
5020
4469
3121
15237
4642
4710
2741
8448
11119
17601
27074
22568
21842
43713
21142
21846
25055
35650
12820
22250
22636
3449
37034
16420
2786
9911
28222
12294
9177
3304
42998
8733
23849
14184
12844
15901
12150
24634
26721
2554
33392
30195
22010
27689
26639
15538
6064
358
4890
6455
4508
13024
15477
2720
5554
20436
40507
11044
24552
7043
21206
4767
6528
29815
7841
34106
889
7070
36131
39582
22908
25176
4331
29009
3663
47039
12412
671
17884
5577
12978
46900
3939
2820
14286
23861
5858
35783
8194
14505
16159
2977
31761
76
30520
17241
12605
25686
1254
18799
12225
8202
19655
7226
14672
1655
23490
19681
18682
10543
19132
16012
22883
9582
17105
10304
25119
9191
14601
4847
34775
10661
4600
5208
28987
14990
23033
3509
16441
21622
2327
2464
9066
17780
19724
11507
29897
30521
6184
6304
3557
13228
15902
4945
19255
17494
12267
10755
4946
10306
30904
8808
11934
6573
24612
2689
8912
23605
1071
7648
20208
27607
7884
16048
26230
30860
14538
896
4465
33072
12864
14173
21312
873
16253
16971
771
2655
1918
7521
24712
46707
13760
1136
12883
13704
23568
3971
18881
4664
22537
16020
21043
3383
30379
10578
20111
8295
24742
8091
11576
4257
125
1153
19486
16146
28588
18429
9656
15772
16610
9286
16458
18115
5733
10381
33575
39719
38907
14861
12275
18680
26827
5141
7673
4702
7539
11582
1543
4657
15826
8498
19508
24729
2301
18636
25315
33335
52467
5688
25487
22116
)


// ************************************************************************* //
