/*--------------------------------*- C++ -*----------------------------------*\
| =========                 |                                                 |
| \\      /  F ield         | OpenFOAM: The Open Source CFD Toolbox           |
|  \\    /   O peration     | Version:  plus.master.MPPICInterFoam            |
|   \\  /    A nd           | Web:      www.OpenFOAM.com                      |
|    \\/     M anipulation  |                                                 |
\*---------------------------------------------------------------------------*/
FoamFile
{
    version     2.0;
    format      ascii;
    class       vectorField;
    location    "3.2/lagrangian/kinematicCloud";
    object      U;
}
// * * * * * * * * * * * * * * * * * * * * * * * * * * * * * * * * * * * * * //


948
(
(-0.000705055 0.0256589 0.421574)
(-0.00389927 0.00314649 0.416867)
(0.013909 0.0125872 0.41068)
(-0.00555639 -0.00256038 0.424825)
(-0.00753234 0.00125614 0.415551)
(-0.0064591 -0.00152234 0.398747)
(-0.0110576 -0.00365877 0.402233)
(-0.0172524 0.00126256 0.333001)
(-0.011913 0.00302585 0.38738)
(-0.00607725 -0.0022653 0.39664)
(-0.0102922 -0.000817497 0.397753)
(-0.0156949 -0.00168827 0.334915)
(-0.00292825 -0.00422973 0.387047)
(0.000190429 -0.0127352 0.359993)
(-0.0112878 0.00420482 0.373338)
(-0.00962958 0.000265488 0.366426)
(-0.0100145 0.000705247 0.372407)
(-0.00846438 -0.0095065 0.33635)
(-0.00989862 0.00861941 0.313713)
(-0.00808761 -0.00960289 0.329983)
(-0.0110999 -0.0133132 0.365504)
(-0.0130731 -0.00520597 0.327574)
(-0.0112856 -0.013192 0.361853)
(-0.00218005 -0.00618884 0.381845)
(-0.018523 0.000833251 0.374277)
(-0.0137851 -0.00795209 0.360282)
(-0.00240107 -0.00309193 0.341072)
(-0.0167931 -0.000455265 0.370975)
(-0.00888673 -0.00931529 0.340572)
(-0.00906952 -0.00205907 0.363789)
(-0.0126161 -0.0104402 0.36274)
(-0.0133199 -0.00985061 0.365008)
(-0.0107755 -0.00542326 0.316395)
(-0.00813667 -0.00228122 0.369695)
(-0.00787983 -0.00713393 0.388508)
(-0.00698337 -0.00971662 0.37335)
(-0.00892359 -0.00483612 0.316086)
(-0.0071842 -0.00720179 0.335776)
(-0.0139166 -0.00176815 0.357483)
(-0.00549397 0.00284248 0.307822)
(-0.00277331 0.000696132 0.350689)
(-0.00629507 -0.00867316 0.368522)
(-0.0104551 -0.000626807 0.336134)
(-0.0104211 -0.00138078 0.340115)
(-0.0106276 -0.0100636 0.357333)
(-0.00711424 -0.0115414 0.350115)
(-0.0143421 -0.00147981 0.359412)
(-0.00529275 -0.00691704 0.315969)
(-0.0140598 -0.0101195 0.303372)
(-0.00564438 -0.0116225 0.33579)
(-0.0125248 -0.000756894 0.358511)
(-0.00922508 -0.0115003 0.363076)
(-0.00685596 -0.00614646 0.331345)
(-0.023618 -0.0157616 0.302213)
(-0.00863093 -0.00140325 0.344919)
(-0.00292233 -0.00766621 0.347338)
(-0.0120412 0.00115709 0.338799)
(-0.00212985 -0.00989131 0.354962)
(-0.00495744 -0.00512487 0.360462)
(-0.00836025 -0.00322038 0.360226)
(-0.00949635 -0.00976337 0.365933)
(-0.00375197 -0.00637449 0.319033)
(-0.00811347 0.000614898 0.341036)
(-0.00247849 0.00274478 0.329159)
(-0.00277194 -0.00606479 0.375451)
(-0.002685 -0.0109087 0.338303)
(-0.0105349 0.00222277 0.325439)
(-0.011412 -0.00319146 0.34344)
(-0.0171954 -0.0139662 0.335358)
(-0.00513993 -0.00946001 0.330194)
(-0.00615666 -0.00147764 0.3568)
(-0.00523926 -0.000329282 0.344756)
(-0.00100255 -0.0102478 0.327164)
(-0.00242861 -0.0103728 0.365098)
(-0.000605733 -0.00260916 0.326123)
(-0.0172592 0.0180437 0.319648)
(-0.0223104 -0.00379595 0.355839)
(-0.0104557 0.00292937 0.347483)
(-0.0164166 0.0213215 0.319458)
(-0.0207359 -0.000438244 0.355293)
(-0.000484062 0.00209026 0.341906)
(-0.0163567 0.00892192 0.322441)
(-0.0162738 -0.00129088 0.346315)
(-0.010542 0.00628677 0.327445)
(-0.0121229 -0.0129756 0.322649)
(-0.00506103 0.00467524 0.310503)
(-0.0156386 0.0203701 0.316354)
(3.17427e-05 -0.00691535 0.351766)
(-0.00463067 -0.00115576 0.312447)
(0.00494944 -0.00272934 0.340592)
(-0.0051599 -0.00455062 0.341957)
(-0.00154823 -0.010063 0.377311)
(-0.0049124 -0.00983382 0.361874)
(0.00156138 0.00226652 0.349246)
(0.00233679 -0.00645214 0.370478)
(-0.0159078 -0.000267653 0.3247)
(-0.0180614 0.00538279 0.34808)
(0.000417863 -0.00793833 0.322204)
(-0.0168545 0.0164478 0.314262)
(0.00252619 -0.0100083 0.325174)
(0.00180819 -0.00222563 0.33628)
(-0.00057295 -0.00937646 0.350575)
(0.00254712 -0.00892596 0.352406)
(-0.000689309 -0.00238061 0.335674)
(-0.000396532 -0.00798917 0.350369)
(0.000896884 -0.00715734 0.347147)
(-0.0167853 -0.00176711 0.345877)
(0.00194544 -0.00491425 0.365282)
(0.00126917 -0.00328121 0.31917)
(-0.00939628 0.00228249 0.34267)
(-0.00196445 -0.00881854 0.370371)
(0.00480151 0.00321752 0.330405)
(-0.00519667 0.00678388 0.33777)
(0.00313082 -0.003629 0.332023)
(-0.000983322 0.00634909 0.306172)
(-0.0118144 -0.0260246 0.339733)
(0.00184899 -0.00872605 0.320989)
(0.0035668 -0.0087368 0.348662)
(-0.00671247 0.00771329 0.304896)
(0.00245859 -0.00580965 0.348476)
(0.000512562 -0.00480429 0.351503)
(-0.0154859 0.00873762 0.322136)
(-0.0167173 0.00318069 0.343942)
(0.00363465 -0.00829438 0.351335)
(-0.0125333 0.0102651 0.324393)
(0.00325999 -0.00557801 0.348922)
(0.00243991 -0.00385679 0.341417)
(0.00323204 -0.00596547 0.349079)
(0.00114798 -0.00499625 0.353085)
(-0.000514641 -0.00432986 0.363659)
(-0.01814 0.0117791 0.31568)
(0.00188208 -0.00430192 0.357822)
(-0.00235639 0.00392488 0.327276)
(-0.00548234 0.00249119 0.345792)
(-0.00102295 -0.00616666 0.296279)
(-0.000747266 -0.00151791 0.306049)
(-0.0154565 0.00252948 0.342664)
(-0.0121404 0.0100323 0.319796)
(-0.0184118 0.0117012 0.33595)
(0.00678997 -0.00459147 0.348357)
(-0.0124069 0.00782747 0.327451)
(-0.0163182 0.00692688 0.338396)
(0.000175617 -0.00508505 0.377178)
(-0.00358846 -0.0106897 0.337245)
(-0.0122201 0.0115336 0.315057)
(0.00423761 -0.00426356 0.333124)
(0.00409076 -0.00374776 0.333621)
(0.00665134 -0.00455846 0.338909)
(0.00771502 -0.00430863 0.343347)
(0.00791847 -0.0037286 0.343093)
(0.00783314 -0.00393584 0.342524)
(0.002272 -0.0055472 0.349289)
(0.00690113 -0.0031408 0.345429)
(0.00793975 -0.00333786 0.343243)
(0.00105647 -0.00779991 0.355376)
(0.00345549 -0.000995022 0.341713)
(0.00306095 -0.00278243 0.34888)
(-0.0108775 0.00933893 0.318541)
(0.00306067 -0.00224571 0.349974)
(0.00686101 -0.00814445 0.359058)
(0.00137478 -0.00720266 0.371656)
(0.00140823 -0.00391986 0.367498)
(0.00177928 -0.0121801 0.343325)
(0.00445353 0.00651232 0.319051)
(-0.00561927 0.00193636 0.337018)
(0.00371075 -0.0117615 0.33174)
(-0.0024374 0.00436523 0.30432)
(-0.00550678 -0.00704322 0.346597)
(0.0036125 -0.000107075 0.332866)
(0.00419594 -0.00406816 0.330409)
(0.00372924 -0.00102663 0.332218)
(0.00352285 0.0065572 0.321939)
(-0.00556961 -0.00606689 0.337476)
(-0.00483289 -0.00653767 0.339316)
(0.0031642 0.00070045 0.335015)
(-0.00565887 -0.00657855 0.345674)
(0.00356434 -0.00108176 0.352286)
(0.00302085 -0.00735097 0.369278)
(0.00354387 -0.00254102 0.359469)
(0.00398458 -0.00207727 0.354136)
(0.00435508 -0.00167317 0.349954)
(-0.0107834 -0.0270483 0.330129)
(-0.0227619 -0.00779513 0.304257)
(0.0036201 -0.0109512 0.312539)
(-0.0180926 0.00158078 0.345876)
(0.00217779 -0.00407119 0.315718)
(0.00281396 5.31394e-05 0.320255)
(0.00195866 0.00443234 0.339188)
(0.00832978 -0.00682106 0.338864)
(0.00566484 -0.00340531 0.335317)
(0.00435752 -0.0012028 0.339449)
(-0.00529202 0.0110557 0.344981)
(-0.00449955 -0.00582344 0.347146)
(-0.00732967 0.0133765 0.310998)
(0.00425988 0.00105953 0.342652)
(0.00407829 -0.000631266 0.356428)
(0.00437429 -0.00163542 0.352577)
(-0.00896104 0.0130861 0.309925)
(0.0076634 -0.0026135 0.358077)
(-0.016626 -0.035433 0.335454)
(0.000682942 0.00643202 0.317483)
(0.00437417 6.77441e-05 0.331873)
(-0.0179493 0.0205846 0.333253)
(0.00297168 0.0148324 0.320409)
(0.00426411 -0.00146666 0.356641)
(0.00769888 -0.00220504 0.34992)
(0.00433792 -0.000752472 0.354995)
(0.00946689 -0.00532167 0.367703)
(0.00738856 -0.00201211 0.357322)
(0.00149077 0.00181799 0.288336)
(0.00199734 -0.00643576 0.305618)
(-0.00481638 0.00542223 0.310847)
(0.000174446 -0.00933105 0.335904)
(-0.00388207 -0.0118964 0.351878)
(0.00423323 0.000772431 0.3307)
(0.00563042 -0.00213959 0.344706)
(0.00463651 0.000635559 0.335468)
(0.0045078 0.00189188 0.337159)
(-0.000920109 0.0181455 0.314393)
(0.00808696 -0.00143548 0.354612)
(-0.00226417 0.00985022 0.308817)
(-0.00435152 0.00544747 0.340029)
(0.0047658 0.0006714 0.34871)
(-0.0055713 0.00517368 0.3409)
(-0.00508282 0.00717492 0.344541)
(-0.00457879 0.00700955 0.343409)
(-0.000530166 0.00386029 0.357451)
(-0.00990355 -0.0222608 0.32226)
(-0.0193473 -0.0386146 0.350325)
(0.00536321 -0.0117671 0.331109)
(0.00308234 -0.00183283 0.310299)
(-0.0211693 0.0108853 0.342648)
(-0.0123533 -0.0212713 0.333029)
(0.00227002 0.00405753 0.311999)
(0.00482296 -0.00143214 0.332157)
(-0.00166824 0.015857 0.321406)
(0.00620806 -0.00392823 0.351704)
(0.00478964 0.00184035 0.337173)
(0.00580048 -0.00610263 0.370318)
(0.00494221 -0.00132656 0.368796)
(0.0051232 0.00066885 0.361641)
(-0.00434443 -0.00515215 0.34963)
(-0.00144595 0.01245 0.30821)
(0.0055023 0.00209237 0.360966)
(-0.000586585 0.00254552 0.360069)
(-0.00490812 -0.00799169 0.302732)
(0.00246686 -0.00736885 0.311458)
(-0.00343263 -0.010321 0.321537)
(-0.0252021 0.0179153 0.352822)
(0.00584484 -0.00339185 0.342609)
(0.00620219 0.00739578 0.339446)
(0.00441446 0.00410392 0.333174)
(0.00157926 0.00625663 0.318197)
(-0.00137072 0.00954412 0.320102)
(0.00470754 0.00234058 0.335625)
(0.00405894 0.00396538 0.339663)
(0.000595479 0.00791985 0.314069)
(-0.00172995 0.00027105 0.361903)
(-0.00315505 0.00959967 0.3075)
(0.00660542 -0.00506091 0.371472)
(-0.00191654 0.0117938 0.307196)
(0.0059095 0.00142062 0.361099)
(-0.000353125 -0.000269629 0.285384)
(-0.023439 -0.0134004 0.316541)
(-0.0227282 -0.0136033 0.316034)
(-0.00788685 -0.0116287 0.287966)
(-0.00571438 0.00998565 0.302235)
(-0.0247471 0.014939 0.335994)
(-8.07113e-05 0.0128272 0.313282)
(0.0104071 -0.0132009 0.359421)
(0.002792 0.00302935 0.316358)
(0.00510887 -9.75189e-05 0.343876)
(0.00586516 0.000297226 0.355604)
(0.00591236 0.000130311 0.355197)
(0.0059943 0.00020841 0.355026)
(0.0056908 -0.00416508 0.358685)
(-0.00228356 0.00543318 0.318086)
(0.0055214 0.00131006 0.3542)
(0.00563483 0.00061216 0.356598)
(0.00535506 0.00152796 0.352077)
(0.00544338 0.00184489 0.352325)
(-0.00249882 0.00793121 0.341474)
(-0.00293957 0.00796703 0.337499)
(-0.000676862 0.0144285 0.30761)
(-0.00119444 0.00296958 0.28046)
(0.000262251 -0.0107089 0.319997)
(0.00313778 -0.00821707 0.326301)
(-0.00790276 -0.00981328 0.32186)
(-0.000393521 -0.0097516 0.340711)
(-0.0148958 0.00644441 0.331494)
(0.00459825 -0.00410376 0.339271)
(0.00621026 0.000619388 0.356459)
(0.00402319 0.00426604 0.338213)
(-0.0039134 0.00841016 0.307565)
(0.00550223 0.00084103 0.356588)
(-0.00473117 0.0089514 0.307271)
(0.000450139 0.0019731 0.346669)
(-0.00971188 0.006744 0.345801)
(0.0099705 0.0235609 0.337432)
(-0.0601866 -0.0215299 0.348356)
(-0.00465098 -0.0071562 0.326793)
(-0.00578402 -0.00933916 0.320469)
(0.0296275 -0.0176502 0.333085)
(0.0106112 -0.0124364 0.338702)
(0.00597187 0.0150899 0.316092)
(0.0106024 -0.0129562 0.362145)
(-0.0200487 0.00824398 0.337597)
(-0.00359484 0.0141055 0.308631)
(0.00241177 0.0025024 0.325598)
(0.00279202 0.00308921 0.325423)
(-0.0126608 0.00834378 0.325667)
(0.00552676 0.000783529 0.352536)
(0.00401791 0.00235397 0.336846)
(-0.00542865 0.00490817 0.31649)
(0.00488223 0.000110474 0.349092)
(0.00398635 0.004694 0.340152)
(0.00398378 0.00231428 0.341725)
(0.00511816 0.000953168 0.352466)
(0.0044777 0.000921579 0.34649)
(0.00437006 0.00242351 0.34476)
(0.00469768 0.00289105 0.348415)
(0.0041547 0.00383005 0.34214)
(0.00442509 0.00700818 0.344722)
(-0.00520843 0.0105444 0.307126)
(0.00313424 -0.00259932 0.371512)
(0.00508763 0.00368354 0.362953)
(-0.00478326 -0.0127346 0.334979)
(0.00142996 0.0131334 0.325666)
(0.0445189 -0.0266867 0.334003)
(0.00165849 0.00535923 0.308186)
(-0.00418442 0.0104422 0.301945)
(0.0584344 -0.0302337 0.335419)
(-0.00479031 -0.0054665 0.308895)
(-0.00539599 0.000309826 0.313091)
(-0.00283915 0.0064143 0.312627)
(0.00201736 0.00231149 0.318953)
(0.00215921 0.00207683 0.319675)
(-0.0119328 0.00744861 0.326041)
(0.0123825 -0.0114299 0.37303)
(-0.00364252 0.00838755 0.324029)
(-0.00386793 0.00783108 0.323274)
(-0.0134623 0.00734067 0.320408)
(0.00347635 0.00274982 0.339267)
(0.00410945 0.00118977 0.346153)
(0.00319614 0.00441678 0.344489)
(0.00366758 0.00409805 0.339068)
(0.00351312 0.00290224 0.339483)
(-0.00284934 0.00752133 0.345742)
(-0.00187996 0.00690891 0.367154)
(0.00198293 -0.00184097 0.373163)
(-0.00269223 0.00796523 0.352354)
(-0.00285156 0.00164261 0.281486)
(-0.000985641 0.0061637 0.287591)
(0.00751856 0.014424 0.343995)
(-0.000512278 0.00881439 0.29254)
(-0.00424181 -0.00921589 0.329588)
(0.0193994 -0.0242543 0.330645)
(-0.00197491 -0.00546146 0.342774)
(0.00177039 0.00805306 0.317012)
(0.00128446 0.00637979 0.314384)
(-0.0150191 0.0108373 0.307389)
(-0.0117052 0.00474239 0.324784)
(0.00297838 0.00174001 0.337075)
(-0.00851639 0.00462555 0.323061)
(0.00308173 0.00410485 0.336189)
(-0.00115747 0.00535226 0.307349)
(0.00257558 0.00163395 0.343536)
(0.00420559 0.000272638 0.353331)
(-0.00697394 0.00762362 0.320064)
(-0.00968882 -0.00129061 0.319881)
(-0.00335706 0.0107422 0.30408)
(0.00417336 0.00404583 0.357271)
(-0.0230065 -0.00438548 0.347758)
(-0.0384378 -0.00891974 0.347326)
(-0.0172702 -0.0178171 0.328857)
(-0.0173197 -0.018606 0.329013)
(-0.0166098 0.0067725 0.323116)
(-0.00306587 0.00567969 0.312424)
(0.00380847 -0.00661237 0.361179)
(0.0052381 -0.00343442 0.360037)
(-0.0140552 0.00535214 0.321501)
(-0.0153945 0.00186883 0.338992)
(0.00209657 0.00263993 0.334803)
(0.00186695 0.00194868 0.335346)
(0.00216948 -0.00115972 0.357838)
(0.00720494 0.00980306 0.343032)
(0.00468357 0.0047837 0.362795)
(-0.00482475 0.011563 0.307736)
(-0.00149101 0.0104874 0.36387)
(0.000402141 0.00894695 0.358482)
(-0.00682875 0.0109963 0.316842)
(-0.0435912 -0.00992915 0.343817)
(0.0318871 -0.0140914 0.329395)
(-0.0135639 -0.0078709 0.333654)
(-0.0194901 -0.0206403 0.328869)
(-0.00993273 -0.018631 0.328363)
(-0.00083595 -0.00235027 0.303359)
(-0.0184673 0.010079 0.338942)
(-0.000477138 0.00695403 0.30144)
(0.000422322 0.00190226 0.325275)
(0.000273661 0.00172066 0.329235)
(4.86408e-05 0.00236088 0.326876)
(-0.0114657 0.00195508 0.315149)
(0.00611357 0.00662791 0.350478)
(-0.00559289 0.00922637 0.318375)
(-0.00878201 0.00396719 0.311382)
(0.00200322 0.00346403 0.350706)
(-0.00132194 0.00626387 0.366737)
(0.00354146 0.000543274 0.372032)
(-0.00397682 -0.00241881 0.320004)
(-0.00250001 0.000273966 0.348793)
(-0.001929 0.000783883 0.348418)
(-0.0230737 -0.00882765 0.339544)
(-0.00740288 0.00938495 0.312077)
(-0.00115919 0.00019776 0.303729)
(-0.000781747 0.00464892 0.307735)
(-0.000184891 0.00397651 0.308337)
(-0.00115346 0.00575789 0.30334)
(-0.00321009 -0.00803382 0.341852)
(-0.00487539 0.00166369 0.324862)
(-6.55357e-05 0.00246497 0.325004)
(0.00166938 0.00422725 0.339066)
(-0.00918381 3.70675e-05 0.317775)
(0.00112315 0.00160592 0.343628)
(-0.00640399 0.00578256 0.326715)
(-0.00707872 0.00302413 0.324503)
(0.00147318 0.00352472 0.348706)
(-0.00898892 0.0102046 0.30923)
(0.00548098 0.000390543 0.379881)
(-0.00445505 0.00185388 0.326802)
(-0.00299331 0.00764025 0.30656)
(0.0547916 0.00557189 0.342542)
(0.0242242 -0.00120416 0.341546)
(-0.00502832 -0.00102895 0.316811)
(-0.0139866 -0.0066472 0.325677)
(0.0791619 0.00391664 0.340507)
(-0.00189872 0.00311848 0.294995)
(-0.00283079 0.00955302 0.310947)
(0.020718 0.00945742 0.335487)
(-0.00153328 0.00706824 0.299621)
(-0.000829566 0.00167792 0.323943)
(-0.00032046 -0.000256715 0.33077)
(-7.3613e-05 -0.00110847 0.343971)
(-0.00114763 0.00250428 0.327084)
(-0.000788042 0.0027322 0.324341)
(-0.00149972 0.00550871 0.323346)
(-0.00119727 0.00261379 0.328725)
(-0.000723454 0.00258994 0.330315)
(-0.000863106 0.00153809 0.357694)
(-0.00194466 3.86081e-05 0.374516)
(0.00231195 0.0020016 0.366989)
(-0.00219858 -0.00112427 0.339367)
(0.000339594 0.0033292 0.357519)
(-0.00383705 0.0066848 0.371409)
(0.0154654 0.0182667 0.343603)
(0.0603002 -0.00968103 0.327137)
(-0.01469 -0.0109425 0.307069)
(-0.0305862 -0.0342639 0.350111)
(-0.00175157 0.000662953 0.310871)
(0.0795427 0.00326095 0.339883)
(-0.015465 -0.00212148 0.346124)
(-0.00225778 0.000699981 0.296303)
(-0.00313507 0.00922963 0.293355)
(-0.00286602 0.00477343 0.295079)
(-0.000799555 0.000740972 0.338047)
(-0.00309311 -0.000990927 0.349818)
(-0.00154266 0.00276136 0.315935)
(-0.00144856 0.00276589 0.328622)
(0.000118724 0.00377953 0.364871)
(0.00180349 0.00268899 0.371311)
(0.00134215 0.00400552 0.367921)
(-0.00518008 0.0034598 0.366952)
(-0.00395421 0.0104768 0.378597)
(-0.0028284 0.0017203 0.289879)
(0.00364502 0.012489 0.319792)
(-0.0293347 -0.0299935 0.345165)
(-0.00690403 0.0135363 0.333423)
(0.022662 0.0015082 0.323657)
(0.0227161 0.00136185 0.326967)
(-0.00377097 0.00509045 0.282254)
(-0.00439803 0.00103889 0.335229)
(-0.00233463 0.00294764 0.316844)
(-0.00382922 -4.99449e-05 0.315316)
(-0.00192182 0.00305462 0.317573)
(0.000647365 -0.00171283 0.309872)
(-0.00252486 0.00287148 0.318449)
(-0.00509361 -0.00577152 0.299061)
(-0.0017655 0.00371756 0.33119)
(-0.00824003 -0.0106548 0.316591)
(-0.00490356 -0.00112484 0.322924)
(-0.0154394 -0.00865254 0.314625)
(-0.0020778 0.00475877 0.331034)
(-0.000462684 0.00385989 0.362352)
(-0.0144725 -0.00540583 0.311457)
(-0.00204386 0.00012517 0.367163)
(-0.015937 -0.00799379 0.314431)
(-0.00536412 0.00120173 0.346028)
(-0.00606296 0.00297878 0.37323)
(-0.00687901 0.00573106 0.271316)
(-0.00355246 0.00422909 0.289994)
(-0.0266328 -0.0364836 0.348183)
(-0.00943561 -0.0113735 0.338358)
(-0.00687074 -0.0128245 0.299832)
(-0.0151759 -0.00760583 0.308164)
(0.00369999 0.0110016 0.320655)
(-0.0023911 0.00280215 0.328292)
(-0.000545128 -0.00200142 0.311514)
(-0.00333416 0.0029128 0.319178)
(-0.00830372 -0.00756738 0.303228)
(-0.00529814 -7.94095e-05 0.306547)
(-0.016258 -0.0113295 0.311698)
(-0.00294185 0.00319759 0.346376)
(-0.0118809 -0.00883996 0.315479)
(-0.00197018 0.00319597 0.355574)
(-0.00299505 0.00352902 0.355587)
(-0.000522178 0.00458513 0.361134)
(-0.00585714 -0.000125987 0.348271)
(-0.0122429 -0.00539049 0.299316)
(-0.0035634 0.00318583 0.305565)
(-0.0261989 -0.0463588 0.3445)
(-0.0165419 -0.00523685 0.324295)
(0.0314033 -0.00228855 0.323149)
(0.00303322 -0.00179584 0.310714)
(-0.00554845 -0.0200744 0.351251)
(-0.00690916 -0.00449634 0.306102)
(-0.00324542 0.00340948 0.334833)
(-0.00334237 0.00337334 0.334918)
(-0.00742288 -0.00443502 0.310629)
(-0.0172114 -0.0113373 0.310966)
(-0.0161596 -0.00253404 0.319511)
(-0.0176882 -0.0113018 0.311484)
(-0.0161819 -0.0114264 0.317267)
(-0.0177067 -0.0133317 0.314084)
(-0.00386311 0.00288023 0.348818)
(-0.0172533 -0.0123874 0.31547)
(-0.00650413 -0.00121236 0.36016)
(-0.005968 -0.00242541 0.366755)
(-0.00791959 0.00439463 0.272893)
(0.0203049 -0.0108288 0.35262)
(0.0197714 -0.00487762 0.321113)
(-0.0142436 -0.0764419 0.366617)
(-0.00730906 0.00190864 0.284273)
(-0.0173043 -0.0487209 0.350123)
(-0.00804028 -0.0304932 0.351309)
(-0.0146127 -0.0366934 0.335837)
(-0.0100787 -0.00483442 0.317498)
(-0.00339936 0.00765045 0.29518)
(-0.00797044 -0.00406067 0.319312)
(-0.00436059 0.00603392 0.330864)
(-0.00226239 0.00186769 0.349329)
(-0.00189328 0.00347036 0.351816)
(-0.00430649 0.000223006 0.308717)
(-0.00486262 -0.00361589 0.302904)
(-0.00547432 -0.00518855 0.307473)
(-0.00481205 0.00285159 0.347426)
(-0.0132693 -0.0112348 0.317653)
(-0.00680623 -0.0012805 0.367404)
(-0.00850147 0.000900057 0.345904)
(-0.00803483 0.0040766 0.264304)
(-0.0404719 -0.032383 0.362511)
(-0.00366954 0.00424593 0.269308)
(-0.00791595 0.0071385 0.273649)
(0.00490018 0.00523758 0.296237)
(-0.0136572 -0.00991895 0.313558)
(0.0538275 0.00140424 0.318277)
(-0.0011024 0.00272618 0.326808)
(0.0517758 0.00120125 0.316191)
(-0.0117664 -0.0342804 0.330615)
(-0.00510948 0.00440571 0.304844)
(-0.00117072 0.00320632 0.322908)
(-0.0042031 0.00568258 0.30715)
(-0.00139084 0.0162758 0.297702)
(-0.0059839 0.00776842 0.317734)
(-0.00769359 -0.0372287 0.34879)
(-0.00624534 0.00435138 0.304848)
(-0.00665915 0.000645713 0.317567)
(-0.00352759 -0.00753023 0.30974)
(-0.00661877 0.00772331 0.314664)
(-0.00480498 0.00327449 0.330719)
(-0.00544416 -0.00460492 0.309736)
(-0.00469828 0.00314643 0.329912)
(-0.00492178 -0.00159872 0.317688)
(0.000226423 0.00455399 0.325525)
(-0.00471204 0.00340348 0.337772)
(-0.0075135 -0.00428381 0.325924)
(-0.00537181 0.00310237 0.345145)
(-0.00845654 -0.00799176 0.359242)
(-0.00840794 0.00466098 0.259852)
(-0.00795513 0.00548442 0.261476)
(-0.00390809 0.00997304 0.276599)
(-0.0255952 -0.00192156 0.305615)
(0.044737 -0.00405756 0.34779)
(-0.00600028 0.00727656 0.281504)
(0.0294119 0.00630909 0.320803)
(-0.00513822 0.004891 0.292607)
(0.0330783 -0.00815915 0.351454)
(-0.00181284 0.00762063 0.29869)
(-0.00659008 0.0083608 0.299318)
(-0.00388179 0.00382522 0.308059)
(-0.00632104 0.00455455 0.302589)
(-0.00676574 0.00409641 0.31146)
(-0.00671992 0.00726629 0.312409)
(-0.00653375 0.00431052 0.317045)
(-0.00600551 -0.0313855 0.340856)
(-0.00488705 0.00514574 0.350466)
(-0.00900698 -0.000269716 0.329315)
(-0.0015592 -0.00205913 0.311035)
(-0.0051983 0.0049603 0.359282)
(-0.00516476 0.00334432 0.329533)
(-0.00754063 0.00296657 0.327362)
(-0.00708921 0.00371357 0.334632)
(-0.0082826 -0.00560657 0.353291)
(-0.0038611 -0.0127685 0.318034)
(-0.0137236 -0.0125551 0.318511)
(-0.00712514 0.00469105 0.365441)
(-0.0066048 0.00287336 0.339243)
(-0.0149394 -0.0151689 0.320799)
(-0.0159352 -0.00948493 0.331339)
(0.0375059 -0.000223118 0.340903)
(-0.00149851 0.00168797 0.295008)
(0.0390891 -0.00135522 0.343495)
(-0.00513481 0.00670226 0.295171)
(-0.000194567 0.00721831 0.285096)
(-0.00641559 0.0107998 0.293396)
(-0.00404981 -0.0131486 0.3159)
(-0.00197267 -0.00397126 0.309127)
(-0.00560812 0.00682008 0.323827)
(-0.00105946 0.0165713 0.305781)
(-0.0074608 0.003514 0.305807)
(-0.00694512 0.00490702 0.301617)
(-0.00754311 0.00384279 0.306557)
(-0.00637688 0.00295676 0.320362)
(-0.00517302 -0.00185287 0.329043)
(-0.00442218 0.00192513 0.319153)
(-0.00768381 0.00294622 0.336729)
(-0.00286146 -0.00385394 0.321216)
(-0.00549355 -0.0189084 0.34142)
(-0.00857427 0.00237723 0.348411)
(-0.00596856 -0.0202852 0.34561)
(-0.0269318 0.00451778 0.36503)
(-0.0289099 0.00391166 0.369371)
(-0.0191809 0.00492017 0.368934)
(-0.0242311 0.00321947 0.390573)
(0.00754844 0.011737 0.325139)
(-0.0257817 -0.0280862 0.332472)
(-0.00875753 0.00989699 0.273198)
(0.0094391 0.00511524 0.306985)
(0.0181985 -0.0105046 0.332059)
(-0.00362472 0.00166789 0.313248)
(0.0526622 0.000640631 0.311441)
(-0.0282425 -0.0209053 0.329654)
(-0.00152714 0.00531689 0.295149)
(0.00487906 0.000618918 0.33672)
(-0.00703334 0.00539873 0.295987)
(0.00206338 -0.00189764 0.349865)
(-0.00752329 0.00434246 0.303197)
(-0.0064795 0.00716199 0.333312)
(-0.00241441 -0.00264724 0.311942)
(-0.0124701 -0.00228098 0.318353)
(-0.00594835 0.00217137 0.345612)
(-0.00859839 0.00366133 0.322252)
(-0.00708918 0.00248306 0.319456)
(-0.00856521 0.00366252 0.323121)
(-0.00810343 0.00313791 0.319771)
(-0.00918483 0.00256125 0.327493)
(-0.0111867 -0.0113227 0.361464)
(-0.00803428 -0.00171176 0.340008)
(-0.0295942 0.00388967 0.377887)
(-0.0214053 0.00474505 0.36765)
(-0.027254 0.00403155 0.374404)
(-0.00863891 0.00492025 0.252634)
(-0.0102523 0.00386365 0.277274)
(0.0391359 0.000758785 0.298335)
(0.0184025 0.00621575 0.305205)
(-0.00504276 0.00148305 0.280544)
(0.00663365 0.00443687 0.296982)
(-0.0159621 -0.004844 0.302619)
(-0.0174329 -0.0298373 0.317369)
(-0.00759344 0.00579591 0.295483)
(-0.00868759 0.00428505 0.297493)
(-0.00556297 -0.000631703 0.295096)
(-0.000241827 -0.00208766 0.345865)
(-0.00309895 -0.0357646 0.332073)
(-0.00771313 0.00303609 0.303149)
(-0.00949956 -0.000353859 0.3163)
(-0.00775009 0.00180359 0.316795)
(-0.00772093 0.00203004 0.315977)
(-0.00997644 0.00538817 0.344381)
(-0.00812381 -0.000346343 0.324041)
(-0.0156076 -0.0164974 0.324424)
(-0.0161448 -0.0144868 0.322183)
(-0.0157092 -0.0134489 0.326709)
(-0.0150538 -0.00989965 0.330315)
(-0.0147939 -0.00839755 0.333249)
(-0.0109046 0.00713055 0.362025)
(-0.0101066 0.0032147 0.355118)
(-0.00941817 0.00737939 0.363004)
(-0.00469957 -0.0625773 0.381915)
(-0.00944049 -0.0632749 0.385022)
(-0.00774527 0.00376021 0.296271)
(-0.00191829 -0.0290413 0.330948)
(-0.00364488 0.00609521 0.294481)
(-0.0100967 -0.0116041 0.306504)
(-0.00467202 -0.0185048 0.32538)
(0.00496571 0.00192461 0.320927)
(-0.00335975 0.00253477 0.314315)
(-0.00814798 0.00906408 0.286807)
(-0.00778029 0.00671118 0.288454)
(-0.00169708 -0.00524267 0.306811)
(-0.00889756 0.00307687 0.299028)
(-0.00839104 0.00292169 0.303955)
(-0.00781975 -0.000440522 0.312596)
(-0.00976034 0.00143568 0.321538)
(-0.00347538 -0.0198779 0.327753)
(-0.00948888 0.00682985 0.347783)
(-0.00664699 0.0017255 0.320414)
(-0.0142283 -0.00435229 0.315638)
(-0.013981 -0.0139722 0.337129)
(-0.0247681 0.00449902 0.371158)
(-0.00524338 -0.0606939 0.35905)
(-0.011095 0.0038839 0.363885)
(-0.00492702 -0.0398158 0.367197)
(-0.00468314 -0.0458017 0.367152)
(-0.00488342 -0.0394851 0.366818)
(-0.00602153 -0.0884382 0.365168)
(-0.0108114 -0.0519184 0.379921)
(-0.0107108 -0.0512335 0.380204)
(-0.0047047 -0.060802 0.379532)
(-0.0106848 -0.0540829 0.38037)
(0.0158476 -0.0164931 0.318276)
(0.0454547 0.00120218 0.298491)
(-0.00872487 0.00475067 0.281029)
(-0.0115884 -0.00886481 0.299351)
(0.00174374 0.012026 0.254579)
(-0.00473032 -0.0130991 0.299396)
(-0.000758798 0.00376983 0.339182)
(0.00463326 0.00257873 0.328553)
(0.000422778 0.00603654 0.327715)
(-0.0121117 0.00915016 0.331925)
(-0.0091655 0.0043807 0.300048)
(-0.0106524 0.00528086 0.325521)
(-0.00936334 0.00229697 0.310225)
(-0.00897344 -0.00075478 0.31824)
(-0.0105918 -0.00218364 0.319057)
(-0.0147473 -0.0154519 0.327174)
(-0.0123133 0.00271177 0.340272)
(-0.0329309 0.00130849 0.361389)
(-0.0176447 0.00215389 0.366188)
(-0.0111365 0.00420347 0.361791)
(-0.0271444 0.00221032 0.382725)
(-0.00487869 -0.0655121 0.369067)
(0.0546954 0.00178155 0.317166)
(0.0559461 -0.00272124 0.324554)
(0.0409675 -0.00636006 0.319553)
(-0.00619302 0.00765462 0.262771)
(-0.00155359 0.00988057 0.267659)
(-0.0179033 -0.0207711 0.294132)
(0.010876 -0.00416489 0.307321)
(-0.00011091 0.00908956 0.314812)
(-0.00989918 0.0106342 0.26966)
(-0.0100505 0.00938268 0.28367)
(0.0052988 0.00355635 0.282344)
(-0.000629724 -0.000606105 0.284017)
(-0.0034334 -0.00759083 0.307951)
(-0.00727567 0.00427806 0.290298)
(-0.00536936 0.00485657 0.292583)
(-0.00805472 0.00262234 0.289321)
(-0.00852808 0.0152426 0.339434)
(-0.0102347 0.00341539 0.304625)
(-0.0110168 0.00274832 0.316154)
(-0.0134607 -0.0181926 0.323821)
(-0.00884304 -0.0151437 0.310622)
(-0.00839141 -0.00819547 0.340282)
(-0.0129304 0.00191126 0.331044)
(-0.0131488 0.00503232 0.354363)
(-0.0130317 0.00808426 0.355707)
(-0.0316742 3.5657e-05 0.363947)
(-0.0335179 0.00326673 0.363739)
(-0.0497655 0.00371971 0.368323)
(-0.00430743 -0.0430343 0.357931)
(-0.00473249 -0.0607716 0.362059)
(0.0399134 -0.000990891 0.316828)
(-0.0108353 0.0116835 0.292826)
(0.00213036 0.0146714 0.262087)
(-0.00268976 0.0008017 0.28144)
(-0.00308214 0.0160448 0.334179)
(-0.0076213 -0.016842 0.294359)
(-0.00694693 0.0170668 0.290903)
(0.00242673 0.0135268 0.296238)
(0.0013653 0.00606456 0.28782)
(-0.00465378 -0.015689 0.295525)
(-0.00405482 0.00791618 0.324524)
(-0.0102462 0.0065574 0.320871)
(-0.0111816 -0.00386619 0.314726)
(-0.00933526 -0.01389 0.310082)
(-0.0101967 0.0103226 0.345603)
(-0.00978135 -0.00924009 0.31735)
(-0.00674608 -0.00416637 0.320238)
(-0.0119339 0.00188764 0.319546)
(-0.00159509 -0.0133013 0.331702)
(-0.0143853 -0.00803407 0.346814)
(-0.0331202 0.0077146 0.361639)
(-0.00993371 -0.0445894 0.351396)
(-0.00684639 -0.0412806 0.34981)
(0.0485331 -2.69582e-05 0.314771)
(-0.00150123 -0.00312361 0.284647)
(-0.00777056 0.0063273 0.272906)
(-0.00812811 0.00631201 0.275021)
(-0.00960969 0.00359136 0.294761)
(-0.00408514 -0.0139685 0.288077)
(0.00545138 0.022497 0.330058)
(-0.00608182 0.00241532 0.289714)
(-0.0052233 0.00344942 0.299275)
(-0.00308289 0.0191425 0.324568)
(-0.0090862 -0.00126668 0.29854)
(-0.00839292 -0.00851672 0.32046)
(-0.0122385 0.00156979 0.31803)
(-0.0105964 -0.000296992 0.333521)
(-0.00976521 -0.0185985 0.315202)
(-0.00794005 -0.00890294 0.325468)
(-0.0081756 -0.00944511 0.325265)
(-0.0189123 -0.00545963 0.343344)
(-0.0182528 0.0158511 0.359856)
(-0.0140614 -0.0515217 0.357174)
(-0.0176318 -0.0255617 0.356632)
(-0.00820495 -0.0523434 0.363663)
(0.0569621 0.00132244 0.314938)
(-0.00576395 0.00798564 0.266295)
(-0.00726009 0.00595834 0.251529)
(-0.00558014 0.000265444 0.26144)
(0.0267894 0.0142531 0.295772)
(-0.00718894 0.00376331 0.275803)
(-0.00182421 -0.0007374 0.305978)
(-0.00503888 0.00488448 0.272222)
(0.000856382 0.0114803 0.271666)
(-0.0119416 0.00420876 0.271731)
(-0.00650632 0.00943893 0.293821)
(-0.0157034 0.00921995 0.273314)
(-0.0113413 0.00768574 0.320743)
(-0.00515047 -0.0304881 0.320064)
(-0.00926144 -0.00365154 0.309164)
(-0.0101212 -0.006325 0.321038)
(-0.00141903 0.000650114 0.326352)
(-0.00813608 -0.00839408 0.319919)
(-0.00498985 -0.0080089 0.328286)
(-0.00370569 0.00773103 0.355493)
(-0.0190136 3.59835e-05 0.349982)
(-0.0200411 0.0109271 0.355873)
(-0.0192547 -0.0184623 0.350359)
(-0.0062421 -0.0292164 0.352575)
(-0.0169799 0.011355 0.36032)
(0.0372055 0.00512251 0.305449)
(-0.00780768 0.00446238 0.246331)
(-0.00384585 0.0103312 0.270446)
(-0.00877834 -0.0148231 0.274545)
(0.0285469 -9.76815e-05 0.301075)
(0.000898104 -0.00522454 0.28331)
(0.00831332 0.00417918 0.288361)
(-0.00250833 0.0117951 0.273935)
(-0.00768037 0.00898959 0.290387)
(-0.00131638 -0.0173333 0.292517)
(-0.0026267 0.00339647 0.291001)
(-0.0104556 -0.00730262 0.299987)
(-0.00917367 0.00916984 0.316604)
(-0.0107181 -0.00432529 0.305329)
(-0.0113982 -0.00460979 0.30534)
(-0.0117139 0.00513941 0.307396)
(-0.00430003 0.0143511 0.339209)
(-0.00352418 -0.0107311 0.308581)
(-0.0117613 0.00369679 0.306891)
(-0.00876646 -0.0172032 0.307739)