/*--------------------------------*- C++ -*----------------------------------*\
| =========                 |                                                 |
| \\      /  F ield         | OpenFOAM: The Open Source CFD Toolbox           |
|  \\    /   O peration     | Version:  plus.master.MPPICInterFoam            |
|   \\  /    A nd           | Web:      www.OpenFOAM.com                      |
|    \\/     M anipulation  |                                                 |
\*---------------------------------------------------------------------------*/
FoamFile
{
    version     2.0;
    format      ascii;
    class       vectorField;
    location    "3.2/lagrangian/kinematicCloud";
    object      UCorrect;
}
// * * * * * * * * * * * * * * * * * * * * * * * * * * * * * * * * * * * * * //


948
(
(4.97131e-13 7.96193e-13 9.24327e-13)
(1.45349e-09 -1.04187e-10 7.73987e-08)
(-2.1627e-10 -3.34628e-11 3.26077e-08)
(2.68853e-10 1.92018e-10 2.09737e-08)
(3.10545e-06 5.18799e-06 2.41366e-06)
(0.00111729 -0.000135857 -0.000920301)
(-0.00065037 -5.42961e-05 6.21533e-06)
(-5.77057e-06 -8.91881e-07 5.3566e-09)
(0.000111701 -0.000391907 0.00100338)
(0.00112777 -7.27472e-05 -0.000920301)
(-0.000658471 -0.000103099 6.21533e-06)
(-8.70212e-06 -9.1063e-07 1.31389e-07)
(0.00175111 -0.00203131 0.00051875)
(1.01211e-09 -7.58529e-09 -5.12336e-10)
(-0.00019007 0.00740888 1.38632e-05)
(-0.000915931 0.000852386 2.36891e-06)
(-0.000550284 -0.000695039 1.38632e-05)
(-7.03947e-05 -2.81623e-05 2.15942e-09)
(-0.001496 -0.000652296 0.000122129)
(-7.96765e-06 -1.92072e-06 4.92305e-07)
(-3.04089e-07 -5.37519e-06 4.13397e-09)
(-0.00197877 0.000199547 0.000388894)
(-6.45788e-07 4.64343e-06 1.48153e-06)
(0.00494512 0.00175124 2.36891e-06)
(0.000620665 0.00154004 0.000275599)
(-0.00145048 -0.000184869 -0.00200804)
(0.00283276 -0.00174611 2.52714e-06)
(0.000593331 0.00129589 0.000275599)
(0.000458842 3.5659e-05 2.15942e-09)
(0.000291432 0.000795214 3.58929e-06)
(-0.000138689 0.000497809 0.00123659)
(-0.000103458 0.000864791 0.00123659)
(-0.000142769 0.000513881 1.47845e-05)
(0.000291432 0.000795214 3.44137e-06)
(7.56441e-05 0.00273039 0.00244675)
(0.00485095 -0.00231359 3.79951e-05)
(-1.29527e-05 1.67967e-05 -5.1511e-06)
(0.000375094 -0.00262558 -7.94035e-07)
(0.000551823 0.00430294 0.00123659)
(0.000173873 0.000142057 -2.17605e-05)
(0.00421031 0.00231335 9.85195e-07)
(0.00482984 -0.00229248 3.79951e-05)
(-7.01626e-06 -1.46005e-06 0.00237421)
(-7.01626e-06 -1.46005e-06 0.00286909)
(-0.000162678 0.000247934 0.00123659)
(1.11183e-06 3.67328e-06 2.65563e-06)
(0.000161636 -2.51228e-05 3.36187e-06)
(-0.000914322 -0.00025833 2.04635e-09)
(-0.00441034 -0.00442659 -7.94035e-07)
(-7.01754e-06 -1.7609e-06 -3.38037e-07)
(0.000127979 -1.44415e-05 3.58259e-05)
(-7.21707e-07 2.27721e-05 1.45377e-06)
(0.00021583 -0.00267387 -7.94035e-07)
(-0.00854857 -0.00577729 -7.94035e-07)
(-1.1236e-05 2.7597e-06 3.67476e-05)
(0.00263675 0.000425772 0.00152256)
(0.00112802 -0.000440801 1.16283e-05)
(0.00265151 0.000272081 0.000846022)
(-0.00010507 0.000729402 2.52714e-06)
(0.00110389 0.00131872 0.00083662)
(2.54578e-05 -1.29096e-05 -7.50296e-06)
(-0.000930565 -0.000204689 -8.16185e-07)
(-1.102e-05 2.54366e-06 3.67476e-05)
(0.00185052 0.00159789 -3.46221e-06)
(0.00700925 0.00204453 0.00123659)
(4.73567e-05 4.01995e-06 1.19046e-05)
(0.000852235 -0.00721704 1.16283e-05)
(0.00102928 -0.000384838 1.16283e-05)
(7.60234e-09 5.68764e-08 7.73339e-07)
(-0.00094168 -8.89177e-05 2.04635e-09)
(0.00484045 -0.00182 1.16283e-05)
(0.0013662 0.000855862 0.000426915)
(-8.63272e-05 7.10227e-06 4.62667e-07)
(0.0020224 -7.53669e-05 1.19046e-05)
(0.000824828 0.00347023 4.65494e-06)
(-0.00434588 0.000856739 3.43827e-06)
(-0.000648085 -0.00195657 -6.84853e-06)
(0.00379521 -0.00150349 1.16283e-05)
(-0.00435074 0.000832388 3.43827e-06)
(-0.000660872 -0.00218353 -6.84853e-06)
(0.00421031 0.00231335 -5.68587e-06)
(-0.00431206 0.00102635 1.35477e-05)
(-0.00369855 0.000657369 7.90077e-06)
(0.00209441 -0.00098848 1.48714e-05)
(2.15016e-06 1.16815e-06 4.56807e-06)
(0.00195699 -0.000487621 -3.49453e-05)
(-0.00434634 0.000854428 3.43827e-06)
(0.00264583 0.000331261 0.000846022)
(5.07316e-05 5.75352e-05 -4.20244e-06)
(4.11761e-05 -0.000765449 9.90232e-10)
(-0.00260879 -0.00129394 3.67861e-06)
(0.00429704 4.01995e-06 1.19046e-05)
(2.68118e-05 1.19381e-06 -1.59229e-06)
(0.00977081 0.00323628 -3.46221e-06)
(0.00500038 0.000659577 0.000846022)
(-0.00431206 0.00102635 1.04951e-05)
(-8.94924e-05 -0.000962005 -1.69438e-05)
(-8.29105e-05 1.06285e-07 4.62667e-07)
(-0.00434946 0.000838784 3.43827e-06)
(-1.80387e-05 2.32389e-07 3.58183e-05)
(-0.000836195 -0.000940426 9.90232e-10)
(-1.44475e-06 3.68342e-05 2.12206e-05)
(-2.17031e-06 2.92765e-05 2.12206e-05)
(5.71554e-07 -2.30222e-05 1.73188e-05)
(-3.98449e-06 1.03793e-05 2.09055e-05)
(-3.98449e-06 1.03793e-05 2.09923e-05)
(-0.00436085 0.000590516 3.43827e-06)
(0.00519625 0.000678952 0.000846022)
(-0.000105282 0.0003805 5.12066e-07)
(-0.000521479 -0.00170142 1.19638e-06)
(7.01984e-06 7.07781e-05 -3.226e-05)
(1.50782e-05 -8.09899e-08 -8.87483e-07)
(-0.000507616 -0.00161789 1.19638e-06)
(0.000842534 0.0035287 4.65494e-06)
(1.34699e-05 2.53856e-05 1.91146e-05)
(2.17302e-10 -4.96609e-10 3.55989e-10)
(-0.000941176 0.000102915 8.18113e-07)
(-1.84181e-06 3.26983e-05 2.12206e-05)
(0.00123129 -0.000318833 -5.91251e-10)
(-2.45599e-06 -5.54227e-06 2.12206e-05)
(-1.44551e-07 -1.91871e-05 1.73188e-05)
(-0.00431206 0.00102635 -3.62265e-06)
(-0.00189391 0.000255497 -2.53199e-05)
(-1.882e-06 3.22796e-05 2.12206e-05)
(-4.07823e-06 -8.10986e-06 -7.88666e-06)
(-2.6327e-06 -3.70158e-06 2.12206e-05)
(-2.38191e-07 -1.82117e-05 1.73188e-05)
(-3.12739e-06 1.45139e-06 2.12206e-05)
(-2.48177e-07 -1.81077e-05 1.73188e-05)
(5.24512e-05 7.8215e-06 -5.04191e-06)
(-0.00431206 0.00102635 -8.32658e-06)
(4.09607e-05 -1.72942e-05 1.73188e-05)
(-5.91777e-05 0.000171747 -2.13123e-06)
(-4.02994e-05 4.91733e-05 -6.86054e-05)
(-0.00151389 0.000102915 -2.21119e-08)
(-0.00177501 -0.000293515 6.13482e-09)
(-8.93537e-05 -0.000959543 -1.69438e-05)
(2.46513e-05 -1.68094e-05 -1.95997e-06)
(-5.9166e-05 -0.000614363 6.37397e-10)
(-2.32776e-06 -6.8779e-06 2.12206e-05)
(-4.07823e-06 -8.10986e-06 -6.69909e-06)
(-0.00431206 0.00102635 -6.88588e-06)
(8.49594e-05 -2.06566e-07 9.24735e-05)
(-0.00136569 0.0025854 0.000780926)
(-9.39684e-06 -3.47786e-05 -1.95997e-06)
(-0.000117201 2.8959e-05 2.56799e-06)
(-0.000120742 2.8959e-05 2.56799e-06)
(-5.59177e-06 2.8959e-05 1.57822e-05)
(-5.59177e-06 2.8959e-05 2.04627e-05)
(-5.59177e-06 2.8959e-05 1.79582e-05)
(-5.59177e-06 2.8959e-05 1.90835e-05)
(0.000309553 0.00176857 4.59841e-06)
(-5.59177e-06 2.8959e-05 2.11509e-05)
(-5.59177e-06 2.8959e-05 1.73011e-05)
(0.000150137 0.000108024 4.65494e-06)
(1.38236e-06 -4.85181e-05 2.24253e-05)
(6.21152e-08 -2.13398e-05 2.13299e-05)
(-7.41167e-06 -2.48245e-05 -1.95997e-06)
(6.21152e-08 -2.13398e-05 2.18533e-05)
(-1.57558e-06 3.54715e-05 2.12206e-05)
(0.000102921 -2.06566e-07 9.24735e-05)
(5.3084e-05 7.88409e-06 -5.04191e-06)
(-1.92281e-06 3.05413e-06 1.21457e-06)
(0.000319727 -0.00116253 1.97708e-09)
(0.000527179 -9.04448e-05 -7.21533e-05)
(-1.68706e-05 -5.14204e-05 -6.09679e-06)
(-0.00173264 -0.000495932 6.13482e-09)
(-0.00442437 0.00103308 4.46883e-06)
(-3.42723e-05 -5.32324e-05 1.44168e-05)
(-0.00011986 2.8959e-05 2.56799e-06)
(-4.92647e-05 -5.52147e-05 1.44168e-05)
(1.08638e-05 -3.84378e-05 2.52837e-06)
(-0.00442437 0.00103308 2.46693e-06)
(-0.00442437 0.00103308 3.29117e-06)
(4.70307e-06 -5.94845e-05 1.44168e-05)
(-0.00447145 0.000542601 -3.9811e-07)
(1.38236e-06 -4.85181e-05 2.29202e-05)
(3.75761e-05 0.000204556 6.51795e-07)
(3.90055e-05 -1.74876e-05 1.73188e-05)
(6.21152e-08 -2.13398e-05 2.32412e-05)
(1.38236e-06 -4.85181e-05 2.17465e-05)
(4.07592e-05 9.21458e-06 1.24489e-06)
(2.45383e-08 1.74619e-06 5.74696e-09)
(-3.03289e-05 -0.000115276 4.04478e-07)
(-0.00121357 -7.49023e-05 0.0003289)
(-0.000941176 0.000102915 -4.56851e-07)
(-0.000238946 -0.000183098 6.13482e-09)
(4.46687e-06 -4.53063e-06 1.01858e-06)
(-2.18666e-06 6.44279e-05 2.56799e-06)
(-7.93587e-05 2.8959e-05 2.56799e-06)
(-1.56223e-07 -3.24916e-05 1.44168e-05)
(0.00137795 0.00243832 2.26773e-06)
(-0.00445284 0.000736461 -3.9811e-07)
(-9.93434e-06 -3.74737e-05 -1.95997e-06)
(1.38236e-06 -4.85181e-05 1.63703e-05)
(0.000126493 -3.61423e-05 1.44168e-05)
(1.38236e-06 -4.85181e-05 2.18421e-05)
(-1.20092e-05 -4.78776e-05 -1.95997e-06)
(-5.59177e-06 2.8959e-05 1.65466e-05)
(3.04521e-05 -0.000183612 0.000122928)
(-0.000792723 -0.00149981 -1.14505e-06)
(-5.79539e-07 -2.80822e-05 1.44168e-05)
(-5.9166e-05 -0.000614363 4.29909e-10)
(1.92544e-06 1.61177e-06 8.77197e-06)
(8.62542e-05 -4.01227e-05 1.44168e-05)
(-3.28238e-06 4.90342e-06 2.56799e-06)
(7.73173e-05 -4.10067e-05 1.44168e-05)
(0.000115339 2.8959e-05 2.56799e-06)
(-2.78376e-06 -2.90477e-07 2.56799e-06)
(-2.91647e-07 1.28311e-06 -8.2944e-06)
(-1.81153e-05 -3.07452e-05 -1.27731e-05)
(-0.0078937 -0.00308645 2.10204e-06)
(-0.00136569 0.0025854 0.000102565)
(-0.000200961 0.000238307 9.66791e-06)
(1.38236e-06 -4.85181e-05 7.77112e-06)
(-5.59177e-06 2.8959e-05 -7.05621e-06)
(1.38236e-06 -4.85181e-05 9.45366e-06)
(1.38236e-06 -4.85181e-05 8.25423e-06)
(-3.16893e-05 6.04176e-06 -1.32864e-07)
(-2.75198e-06 -6.21499e-07 2.56799e-06)
(0.00162665 -0.000396134 3.48644e-09)
(-9.91094e-06 1.37621e-06 2.85407e-06)
(1.44586e-09 -3.41339e-05 1.44168e-05)
(-1.15128e-05 -3.79454e-07 2.85407e-06)
(0.00217072 -7.1451e-06 2.26773e-06)
(0.0021779 5.69852e-05 2.26773e-06)
(-4.51655e-07 1.31124e-06 1.05207e-08)
(0.000276533 0.00402752 6.74023e-07)
(4.21078e-07 -1.07067e-09 -7.03887e-08)
(-6.32922e-05 -0.000390638 7.23686e-08)
(-4.78866e-05 4.04364e-07 4.1266e-06)
(2.51274e-05 -0.000193821 6.65277e-05)
(1.75278e-05 -5.29549e-05 6.29836e-05)
(-0.00028181 0.00101434 -1.29422e-07)
(-5.59177e-06 2.8959e-05 -1.52573e-05)
(0.000338173 0.000531637 1.71453e-06)
(-3.48834e-06 5.08691e-05 2.56799e-06)
(-9.74518e-06 -2.4987e-05 3.62667e-06)
(0.000127035 -7.41878e-05 2.17849e-09)
(0.000139849 -1.54249e-08 -1.79452e-07)
(0.000272176 0.00011579 2.0403e-06)
(-0.00446769 0.000581769 -3.9811e-07)
(-1.46083e-05 -6.21685e-05 -1.32864e-07)
(0.000267504 0.000115328 2.0403e-06)
(-7.12133e-05 -4.29608e-05 7.12267e-06)
(0.000257676 9.17256e-05 -1.32209e-06)
(-2.19409e-05 -6.97754e-05 -1.27731e-05)
(0.00048672 -0.000215402 0.000436681)
(1.521e-05 0.00222431 2.33244e-06)
(-5.55005e-06 3.94397e-05 -1.54044e-05)
(0.00141073 0.000472461 1.92563e-06)
(-9.74518e-06 -2.4987e-05 -5.6539e-06)
(-0.00405217 -0.00222457 2.10204e-06)
(1.27932e-06 -8.10317e-06 8.11991e-06)
(-9.74518e-06 -2.4987e-05 -1.41632e-06)
(-9.74518e-06 -2.4987e-05 -8.9423e-07)
(-5.71727e-05 9.2149e-05 7.66063e-05)
(-9.14053e-07 4.92023e-06 -6.00477e-06)
(-1.39522e-05 -5.88783e-05 -1.32864e-07)
(0.000101643 -7.1676e-05 2.17849e-09)
(-1.51525e-05 -6.48969e-05 -1.32864e-07)
(0.000107563 -3.80149e-05 1.44168e-05)
(-0.000936256 0.000386965 0.000451595)
(6.6178e-08 8.61275e-08 5.39829e-11)
(6.36617e-08 8.61275e-08 5.39829e-11)
(8.06714e-06 9.30715e-06 6.66877e-07)
(-0.00798611 -0.00311137 2.10204e-06)
(1.521e-05 0.000723711 -6.24457e-07)
(-3.6763e-05 -1.96371e-05 6.76566e-06)
(0.0036948 -0.00122601 5.83157e-06)
(-0.00028293 0.0010142 -1.29422e-07)
(-5.0244e-06 3.39643e-05 -8.73376e-06)
(-5.55005e-06 3.94397e-05 -1.50638e-05)
(-5.55005e-06 3.94397e-05 -1.5126e-05)
(-5.55005e-06 3.94397e-05 -1.30068e-05)
(2.27392e-06 2.89265e-05 -4.92972e-06)
(-0.00432462 -0.00145643 2.10204e-06)
(-9.74518e-06 -2.4987e-05 3.52562e-06)
(-4.64184e-06 2.99794e-05 -8.73376e-06)
(-1.35211e-05 1.43439e-05 -1.31363e-05)
(-9.74518e-06 -2.4987e-05 1.77783e-07)
(-1.73617e-05 -1.13873e-06 4.23681e-06)
(-2.0527e-05 -2.02087e-05 -1.21947e-06)
(-1.41905e-05 -6.00735e-05 -1.32864e-07)
(-0.000908802 0.000100992 0.000263441)
(0.00128313 -0.00142445 0.000436681)
(-6.32922e-05 -0.000390638 4.87393e-07)
(2.21679e-06 9.87366e-07 -6.7237e-07)
(0.000589879 -0.000553373 -1.59946e-07)
(-6.14959e-06 -1.40692e-05 -4.24091e-06)
(3.13596e-06 3.79058e-05 -3.70028e-06)
(5.83128e-05 3.94397e-05 -8.73376e-06)
(-5.0776e-06 -4.04014e-05 -1.31363e-05)
(-1.2819e-05 -5.31964e-05 -1.32864e-07)
(-4.93612e-06 3.30448e-05 -8.73376e-06)
(-1.57892e-05 -6.80896e-05 -1.32864e-07)
(0.000362826 -0.0022375 1.66652e-08)
(-0.000720942 -0.00121548 0.000455069)
(0.000265522 -0.000530265 0.000455069)
(2.70386e-05 0.000200657 2.15297e-07)
(0.000365303 0.00358241 6.74023e-07)
(-2.09909e-06 5.41069e-06 -2.25483e-05)
(0.000358063 0.00158922 0.000236037)
(0.00334833 -0.00183735 3.36628e-07)
(-3.72325e-05 -1.97794e-05 6.76566e-06)
(0.00346943 -0.00162368 3.36628e-07)
(1.521e-05 0.000477975 -6.24457e-07)
(-1.66963e-05 3.04001e-07 -4.57417e-06)
(-8.91974e-05 4.04364e-07 6.82953e-06)
(-0.000118109 -3.9315e-05 -1.31363e-05)
(-0.000115415 -0.000740151 1.30189e-05)
(-5.0573e-06 3.4307e-05 -8.73376e-06)
(-1.31105e-05 1.00672e-05 -1.31363e-05)
(-0.00433632 -0.00141777 2.10204e-06)
(-5.55005e-06 3.94397e-05 -7.0694e-06)
(-9.74518e-06 -2.4987e-05 -2.26991e-05)
(-1.34811e-05 1.39282e-05 -1.31363e-05)
(-4.95503e-06 3.32417e-05 -8.73376e-06)
(-5.01322e-06 3.38478e-05 -8.73376e-06)
(-1.27122e-05 5.91852e-06 -1.31363e-05)
(-1.24302e-05 2.98102e-06 -1.31363e-05)
(-9.74518e-06 -2.4987e-05 -2.20025e-05)
(0.00027246 0.000245454 1.47902e-06)
(-4.12089e-06 -9.58202e-06 -4.38052e-06)
(-0.000122248 1.32194e-05 2.92003e-07)
(0.000562971 0.000211837 3.03858e-07)
(0.00206974 0.000697935 6.74023e-07)
(1.27932e-06 -8.10317e-06 3.2816e-06)
(0.000358063 0.00158922 6.15466e-06)
(9.47543e-05 0.00284145 1.3353e-05)
(0.000137294 -6.48112e-05 0.000119516)
(0.000358063 0.00158922 3.33901e-05)
(1.7445e-05 6.45135e-06 1.35756e-09)
(-8.41759e-05 0.000397997 1.58954e-06)
(-0.00251364 -0.00210612 6.14215e-07)
(7.01558e-05 -0.000460008 1.41751e-06)
(7.01558e-05 -0.000460008 1.63553e-06)
(1.32305e-05 -8.16194e-06 1.48331e-05)
(0.00560577 -0.00143995 3.36628e-07)
(-0.00570106 -0.00512223 2.26149e-06)
(-0.00570106 -0.00512223 1.96471e-06)
(1.32305e-05 -8.16194e-06 1.48266e-05)
(-9.74518e-06 -2.4987e-05 -2.88549e-05)
(-4.91158e-06 3.27891e-05 -8.73376e-06)
(9.90211e-05 -1.42281e-05 -1.31363e-05)
(-9.74518e-06 -2.4987e-05 -2.79761e-05)
(-9.74518e-06 -2.4987e-05 -2.95941e-05)
(-2.46754e-05 6.17496e-06 -1.21947e-06)
(-2.93109e-05 2.74193e-05 1.02992e-06)
(5.35677e-05 -3.26507e-06 2.95981e-06)
(0.00219069 0.000864784 -1.65482e-06)
(-0.000905441 0.000707945 0.000263441)
(-8.69183e-06 1.78688e-05 -1.48403e-09)
(0.000265522 -0.00121548 8.26503e-05)
(-2.47254e-05 0.00284145 1.1182e-05)
(0.000225121 -0.000361942 -1.24044e-06)
(0.000539637 0.00176565 0.00112347)
(8.06757e-05 0.000453415 1.49221e-06)
(0.000263616 0.00460038 1.1182e-05)
(3.85154e-05 0.00284145 1.1182e-05)
(2.88695e-05 -9.66333e-06 1.48072e-05)
(1.32305e-05 -8.16194e-06 1.48259e-05)
(1.29968e-05 1.04342e-05 -2.1336e-06)
(1.32305e-05 -8.16194e-06 1.48205e-05)
(8.47914e-08 -2.48283e-05 -3.13337e-05)
(-0.00206035 -0.00290596 7.60475e-06)
(1.29968e-05 1.04342e-05 -1.44485e-06)
(-5.55005e-06 3.94397e-05 -2.88724e-06)
(-0.00241978 -0.00253912 1.37668e-06)
(-1.66963e-05 3.04001e-07 7.70159e-07)
(0.000987349 -0.000250506 0.000202818)
(0.000317494 0.000187555 3.03858e-07)
(0.00412745 -0.00389512 0.00215754)
(0.00412745 -0.000441255 0.0012369)
(0.00430521 5.61124e-06 -1.0328e-06)
(0.00427001 5.61124e-06 -1.0328e-06)
(1.53975e-05 -9.99543e-05 4.17183e-07)
(-0.00294977 -0.00222373 7.60475e-06)
(0.000631698 -0.000209154 -5.75475e-06)
(0.0015359 -0.000235565 1.57351e-06)
(7.7233e-06 -0.000303436 4.17183e-07)
(-7.45355e-06 8.17558e-07 -1.78078e-06)
(4.50287e-07 -2.86354e-05 -6.13207e-06)
(1.55987e-05 -1.66687e-05 -1.44781e-05)
(2.27392e-06 2.89265e-05 -2.11877e-06)
(0.00169559 0.000881092 -3.99902e-07)
(0.00262538 0.000415846 -1.24173e-06)
(-2.36777e-05 -3.47025e-05 1.62662e-05)
(0.0023009 0.00184921 -3.17454e-06)
(0.00347387 0.00149402 -1.65482e-06)
(-0.00218574 -0.00163513 1.37668e-06)
(0.00412745 -8.67065e-05 0.0012369)
(0.000539637 0.000727631 0.000651131)
(-5.88705e-08 -1.99619e-06 -9.27841e-11)
(0.00408675 5.61124e-06 -1.0328e-06)
(0.0046054 5.61124e-06 -1.0328e-06)
(-1.81444e-05 -5.89636e-05 3.97678e-07)
(0.0033866 4.86377e-07 1.53875e-06)
(9.47543e-05 0.00284145 9.40335e-06)
(-4.01793e-05 1.04342e-05 -1.44781e-05)
(-3.58073e-05 1.04342e-05 -1.44781e-05)
(-4.1586e-05 1.04342e-05 -1.44781e-05)
(2.86045e-05 -9.63788e-06 1.48072e-05)
(0.0018571 0.000572146 -3.99902e-07)
(-0.00540472 -0.00541856 -2.22475e-06)
(-2.16794e-05 -2.46824e-05 1.62662e-05)
(2.01971e-05 -2.28388e-05 -6.13207e-06)
(0.00132576 0.000151086 1.02941e-06)
(0.000143104 4.89655e-07 7.26929e-07)
(-6.17987e-07 1.79141e-07 -8.87478e-07)
(-0.000458434 -0.000863022 2.12073e-06)
(-0.000414236 -0.000863022 2.12073e-06)
(0.00412745 -0.0014866 0.0012369)
(-0.0100375 -0.00643697 -2.22475e-06)
(4.97867e-05 0.000166332 -5.72944e-07)
(9.47543e-05 0.00284145 8.76127e-06)
(7.01558e-05 -0.000460008 -9.16504e-07)
(9.47543e-05 0.00284145 8.70731e-06)
(0.00041703 -0.00113637 -1.24044e-06)
(-0.00622766 -0.00419302 -2.22475e-06)
(-4.32281e-05 1.04342e-05 -1.44781e-05)
(6.64536e-06 -2.41793e-05 -6.13207e-06)
(1.32305e-05 -8.16194e-06 1.47947e-05)
(1.42675e-05 2.36707e-05 -1.44781e-05)
(-2.02803e-06 -3.54155e-06 1.48072e-05)
(-2.78329e-06 -3.90895e-06 1.62662e-05)
(1.63076e-05 -2.32235e-05 -6.13207e-06)
(-1.66963e-05 3.04001e-07 2.86223e-05)
(0.00327676 4.89655e-07 5.3395e-06)
(1.60305e-07 -1.42827e-06 2.39826e-05)
(-0.000381382 0.000814643 -3.43683e-05)
(-1.50073e-06 -1.83022e-06 6.51109e-06)
(-1.50073e-06 -1.83022e-06 5.27158e-06)
(-2.09909e-06 5.41069e-06 7.25533e-07)
(6.47012e-09 -2.00246e-06 -1.78707e-10)
(0.00061192 4.86377e-07 -2.68306e-06)
(-2.3712e-06 3.21097e-07 7.00463e-06)
(-8.41759e-05 0.000397997 4.81883e-06)
(0.00461631 4.86377e-07 1.53875e-06)
(9.47543e-05 0.00284145 7.79028e-06)
(-4.1589e-05 1.04342e-05 -1.44781e-05)
(4.97867e-05 0.000166332 -3.72596e-07)
(0.000176114 -0.000118296 -3.27406e-06)
(-3.94769e-05 1.04342e-05 -1.44781e-05)
(-3.55817e-05 1.04342e-05 -1.44781e-05)
(-4.32548e-05 0.00284145 1.1182e-05)
(-3.45586e-05 1.04342e-05 -1.44781e-05)
(1.57313e-05 -1.80499e-05 -1.44781e-05)
(-0.00127274 0.000194873 -1.97238e-06)
(0.00154444 -0.00014658 2.28538e-08)
(0.000310908 4.89655e-07 7.26929e-07)
(0.000512792 -0.00312159 5.65194e-05)
(3.2332e-05 -2.16384e-05 -6.13207e-06)
(0.000175115 0.000588944 1.98212e-06)
(0.000183904 -0.000273551 2.12073e-06)
(0.000539637 0.00176565 0.000154366)
(-3.03442e-05 -1.6634e-07 2.24034e-05)
(-3.13889e-05 1.20863e-05 -2.71516e-10)
(9.73328e-05 -2.79041e-05 1.16873e-05)
(0.00061192 4.86377e-07 -3.58098e-06)
(0.00412745 -0.00389512 0.000288403)
(1.17859e-08 -1.06966e-07 1.64031e-06)
(-0.000142643 0.000371006 -2.15996e-07)
(4.54516e-05 -2.09539e-05 8.88104e-06)
(-0.00126177 0.000309132 -1.92629e-06)
(-0.000172768 0.000199971 7.7736e-10)
(-2.3712e-06 3.21097e-07 7.45638e-06)
(1.29968e-05 1.04342e-05 -2.60261e-05)
(0.000210594 0.00012889 3.22473e-06)
(0.00070111 4.89655e-07 7.26929e-07)
(0.000470741 0.000154623 3.22473e-06)
(-5.53359e-07 -5.17718e-06 -3.9649e-06)
(0.00017987 0.0011851 1.98212e-06)
(-1.97327e-07 5.03569e-08 8.08451e-07)
(7.98619e-05 -0.000204894 -4.54898e-06)
(-1.46236e-05 1.74231e-05 1.50859e-06)
(0.00061192 -1.27278e-06 1.53875e-06)
(-0.00040734 -6.90454e-07 -0.000632649)
(-0.00181744 -6.90454e-07 -0.000148586)
(-7.27678e-05 9.37276e-07 -6.85351e-08)
(5.83872e-06 -8.15757e-06 4.80031e-06)
(8.56804e-07 -3.33031e-05 4.57351e-06)
(0.00110476 -0.00361703 1.28593e-05)
(6.64732e-05 3.21097e-07 4.57351e-06)
(0.00315085 -0.00722738 -1.33962e-06)
(7.14813e-07 -3.1824e-05 4.57351e-06)
(-0.00216463 -0.0134005 3.53494e-07)
(-2.43348e-05 1.80932e-05 1.63788e-05)
(-0.000909 -0.00711789 3.53494e-07)
(0.00110476 -0.00361703 1.15973e-05)
(-0.00384472 -0.00768461 2.80958e-05)
(8.36116e-05 1.54098e-05 -4.74185e-08)
(0.000231811 0.000130989 3.22473e-06)
(-0.00384472 -0.00768461 2.782e-05)
(0.00132576 0.000369169 1.02941e-06)
(-0.00384472 -0.00768461 2.73766e-05)
(0.000204777 0.00135659 2.54645e-06)
(0.000359097 0.00130986 0.000557768)
(-5.57279e-05 0.000116132 -6.85351e-08)
(-5.91539e-05 3.21097e-07 4.57351e-06)
(-6.11795e-06 -0.00557553 0.00152122)
(0.00452569 -0.00180649 1.72307e-07)
(-2.71309e-05 0.000357842 -2.15996e-07)
(-0.00461771 -0.0115605 4.96614e-06)
(1.46629e-05 -0.000139695 -4.54898e-06)
(-1.32432e-08 -5.40994e-08 -4.26006e-07)
(0.00310892 -0.00715339 -1.33962e-06)
(7.86631e-07 -3.25721e-05 4.57351e-06)
(-0.00206006 -0.0123435 3.53494e-07)
(-0.00194755 -0.011206 3.53494e-07)
(-0.00384472 -0.00768461 1.996e-05)
(-2.43348e-05 1.80932e-05 1.57286e-05)
(-0.00280972 -0.00799801 4.96614e-06)
(8.47914e-08 -2.48283e-05 1.78904e-05)
(6.87461e-05 2.73005e-05 7.57346e-06)
(0.00449696 0.000707283 8.01827e-06)
(9.80584e-05 0.000621547 -5.08578e-07)
(-0.00525638 -0.014763 4.96614e-06)
(9.75238e-05 -2.72733e-05 1.16873e-05)
(1.65073e-05 -0.00557553 0.00152122)
(0.00791819 -0.00364151 1.72307e-07)
(-5.85845e-06 4.12411e-06 -0.000145737)
(0.00319352 -0.00730267 -1.33962e-06)
(0.00452569 -0.000960046 1.72307e-07)
(-0.00197232 -0.0114564 3.53494e-07)
(-1.90088e-05 5.04653e-07 7.57346e-06)
(-1.88813e-05 8.34089e-08 7.57346e-06)
(-0.00187158 -0.010438 3.53494e-07)
(-0.00433639 -0.01015 4.96614e-06)
(-0.00426388 -0.00744706 4.96614e-06)
(-0.00426549 -0.00979444 4.96614e-06)
(-0.00343269 -0.00780937 4.96614e-06)
(-0.00429034 -0.00991903 4.96614e-06)
(-2.7548e-05 5.15633e-05 7.57346e-06)
(-0.00418917 -0.00941176 4.96614e-06)
(0.000190321 -0.00175612 2.60658e-05)
(0.000869777 0.00276818 7.53397e-06)
(-0.000850154 1.33349e-06 8.39723e-07)
(0.000633945 -0.00456569 -6.18045e-07)
(-3.03589e-05 4.12411e-06 -0.000145737)
(0.000920719 -0.00557553 0.00152122)
(-4.90685e-07 -3.72726e-07 2.34807e-06)
(0.00114715 -0.00557553 0.00152122)
(0.00452569 -0.000281483 1.72307e-07)
(0.00405503 -0.0107725 0.00152122)
(0.000496526 -0.000735467 1.55139e-06)
(4.40116e-05 -5.95449e-06 1.63109e-05)
(4.83919e-05 -0.000740339 1.55139e-06)
(-2.55095e-09 -2.04846e-07 2.39826e-05)
(9.68662e-05 -2.23124e-06 6.91579e-05)
(2.78254e-08 2.61885e-07 -3.48426e-07)
(-0.0015372 -0.00705758 -6.88286e-06)
(-0.00201374 -0.0118751 3.53494e-07)
(-0.00189189 -0.0106433 3.53494e-07)
(4.4392e-05 1.34467e-05 -4.74185e-08)
(-0.00297264 -0.00794868 4.96614e-06)
(-0.000851803 0.000298344 -0.000468416)
(0.000681212 0.00108388 7.44998e-06)
(-0.000850154 1.33349e-06 8.42601e-07)
(-5.13129e-05 1.01944e-05 2.05034e-05)
(-3.27883e-05 -5.85164e-05 1.40703e-06)
(-0.00132101 -0.00070608 0.000739602)
(0.000910165 -0.00366951 -1.33962e-06)
(0.00838613 -0.00349982 1.72307e-07)
(0.00010628 0.00151845 0.000454618)
(-2.48183e-07 2.72894e-07 4.40489e-06)
(0.00155735 0.00020698 0.000454618)
(0.00405503 -0.0105422 0.00152122)
(-2.3712e-06 3.21097e-07 2.61531e-06)
(-8.82189e-06 7.50871e-06 7.28361e-06)
(-4.21849e-07 1.38077e-07 9.83131e-05)
(-0.00025992 0.000335494 -4.22753e-06)
(-0.000264831 -0.000205204 1.51411e-05)
(-4.89961e-05 0.000251701 1.19782e-09)
(-2.3712e-06 3.21097e-07 1.71833e-06)
(0.000163375 -0.000508163 -1.33962e-06)
(-0.0015372 -0.00705758 -1.08275e-05)
(-0.000264831 -0.000205204 1.58843e-05)
(-2.43348e-05 1.80932e-05 4.09598e-06)
(-0.0015372 -0.00705758 -9.16637e-06)
(-2.43348e-05 1.80932e-05 1.61562e-06)
(-0.00193503 -0.00693712 3.53494e-07)
(0.000641623 -0.000766655 -3.61155e-06)
(-2.43348e-05 1.80932e-05 4.57719e-06)
(0.000950356 -0.00364783 -1.33962e-06)
(3.00921e-05 2.3477e-05 7.57346e-06)
(0.000861244 0.00277076 7.44998e-06)
(-0.000844958 5.54544e-05 8.57621e-07)
(-0.00137577 -0.000135691 0.000391612)
(-5.46843e-05 0.00164408 2.19295e-10)
(0.000475967 -0.00150739 2.44547e-07)
(0.000633945 -0.00501634 -6.18045e-07)
(-5.55842e-05 -2.80023e-05 -4.44265e-09)
(-0.000204938 1.73825e-06 -1.47572e-06)
(-0.000614808 -0.000686123 2.75551e-07)
(0.000633945 -0.00479238 -6.18045e-07)
(0.00238471 -0.000876627 0.000361391)
(0.000143934 0.00339346 -2.12012e-06)
(-2.54625e-05 -2.36458e-05 -4.44265e-09)
(0.000449781 0.000207644 -1.12209e-05)
(-2.3712e-06 3.21097e-07 1.47723e-06)
(0.000143934 0.00339346 1.05192e-06)
(-2.3712e-06 3.21097e-07 1.55193e-06)
(-4.86117e-05 0.000251738 1.19782e-09)
(1.29262e-07 -2.51779e-07 -3.30646e-07)
(0.000142098 -0.000437898 -1.33962e-06)
(1.69228e-05 -5.83442e-05 -1.40075e-05)
(3.64148e-06 -3.11067e-06 -1.85187e-06)
(-2.43348e-05 1.80932e-05 8.01737e-07)
(-2.43348e-05 1.80932e-05 -3.1018e-06)
(3.55217e-05 3.15568e-05 7.25518e-06)
(-0.000290983 3.07475e-05 5.16775e-06)
(-0.0015372 -0.00705758 -1.16863e-05)
(-0.00384472 -0.00768461 -1.96057e-05)
(0.000171933 1.07942e-05 -9.46435e-07)
(-2.43348e-05 1.80932e-05 -4.14265e-07)
(-0.00384472 -0.00768461 -2.22903e-05)
(-0.00314455 -0.00143049 4.96614e-06)
(0.000633945 -0.00285857 -5.19174e-06)
(0.00273769 4.65726e-05 -5.87033e-11)
(0.000633945 -0.00285857 -4.78564e-06)
(-0.00114624 -1.74643e-05 0.00101427)
(0.00136654 0.000178207 1.12401e-06)
(0.000357687 0.00562 -1.12209e-05)
(0.00146002 -8.06321e-05 9.00881e-07)
(1.69228e-05 -5.83442e-05 -1.18559e-05)
(-7.14419e-05 -8.87341e-05 1.53705e-06)
(-2.6676e-06 9.17183e-06 -4.2061e-06)
(-4.16168e-05 -2.57818e-05 1.51546e-05)
(0.000421928 0.000497773 -1.12209e-05)
(-4.2946e-05 -1.19363e-05 -4.44265e-09)
(2.99888e-06 -1.06909e-05 -7.35205e-06)
(0.00110476 -0.00361703 -2.18423e-05)
(1.69228e-05 -5.83442e-05 -1.28267e-05)
(-2.43348e-05 1.80932e-05 -2.60492e-06)
(1.69228e-05 -5.83442e-05 -1.26125e-05)
(9.80584e-05 0.000621547 3.01996e-05)
(-2.43348e-05 1.80932e-05 -2.80711e-06)
(0.000843216 0.00277622 7.44998e-06)
(0.00449696 0.000707283 8.73825e-06)
(0.00449696 0.000707283 8.61514e-06)
(0.00113002 0.000114733 -9.46435e-07)
(0.00848986 0.000932249 8.41766e-06)
(-0.00181744 -6.90454e-07 -0.000130227)
(5.27498e-06 0.00157752 -0.000265478)
(-0.00164777 0.00121384 2.19295e-10)
(-1.32983e-09 5.85626e-06 4.55909e-07)
(0.00111827 -0.00265416 0.00169152)
(-0.000432865 -0.00359449 0.000670498)
(0.00187892 6.22608e-07 1.29491e-05)
(5.27498e-06 0.00157752 -0.000233291)
(0.00153254 -0.000209029 -2.75202e-05)
(0.00501862 -0.0041797 2.94608e-06)
(0.000432388 0.000388817 -1.12209e-05)
(0.00307376 -0.00896614 1.29e-06)
(0.000462023 8.0118e-05 -1.12209e-05)
(4.96957e-06 -2.35829e-06 4.08701e-07)
(1.69228e-05 -5.83442e-05 -8.46116e-06)
(-3.13234e-05 2.57891e-05 6.04162e-07)
(0.00245513 0.000794832 2.22157e-06)
(3.22803e-05 3.22094e-05 2.90225e-06)
(9.0845e-06 -3.07882e-05 -1.59444e-05)
(3.23012e-05 3.19913e-05 2.90225e-06)
(-2.13466e-05 -1.39098e-05 -1.59444e-05)
(2.99888e-06 -1.06909e-05 -8.99505e-06)
(-0.000851803 0.00133441 -0.000922593)
(0.000933485 0.00248704 0.000905494)
(0.00449696 0.000707283 8.76487e-06)
(0.00567293 0.000892675 8.00446e-06)
(0.00449696 0.000707283 8.77629e-06)
(-0.00137382 -0.000156009 0.000391612)
(-0.00324963 -0.00161335 2.75551e-07)
(0.000191031 6.22608e-07 6.65089e-06)
(1.70417e-08 -2.63052e-07 -1.92956e-06)
(-0.00106636 -0.00193117 4.35708e-06)
(0.00136654 -0.00417267 -5.87033e-11)
(0.000473582 -0.00150811 2.44547e-07)
(0.00421795 -0.000924994 0.000936412)
(0.000401741 0.000708039 -1.12209e-05)
(-4.29948e-05 -1.14277e-05 -4.44265e-09)
(-0.000185647 -0.00169367 4.35708e-06)
(0.00322182 -0.00985817 1.29e-06)
(0.000556002 -0.00148315 -1.32457e-06)
(-3.11611e-05 -2.43993e-05 -4.44265e-09)
(-4.52786e-05 2.78254e-06 9.17321e-06)
(1.41603e-05 -4.75506e-05 -1.59444e-05)
(1.27611e-05 -4.293e-05 -1.59444e-05)
(3.24749e-05 2.15185e-05 2.90225e-06)
(1.48447e-05 -4.43057e-05 -1.20984e-05)
(-0.00308975 -0.00445555 -1.3737e-05)
(-0.00297416 -0.00342311 -1.3737e-05)
(-0.00286842 -0.00247863 -1.3737e-05)
(-0.00278987 -0.00177692 -1.3737e-05)
(-0.00269633 -0.000941479 -1.3737e-05)
(0.00022532 0.0019443 -0.000776977)
(-6.58779e-07 2.74088e-05 -1.59444e-05)
(0.000339462 0.0019443 -0.000776977)
(0.000715326 0.00462067 -0.000298344)
(0.000715326 0.00462067 -0.000255012)
(-5.25669e-05 -5.63039e-05 9.17321e-06)
(0.00171058 0.00157752 -0.00057704)
(0.00237431 -0.000910911 0.000361391)
(0.000487081 -0.00150402 2.44547e-07)
(-0.00333299 -0.00265416 0.000991921)
(0.00530183 -0.00389649 2.94608e-06)
(-0.000258267 -0.00446997 0.000670498)
(1.30423e-05 0.00339346 -1.12209e-05)
(0.00033668 0.00138574 -1.12209e-05)
(1.70069e-05 -5.74939e-05 -3.55491e-06)
(-3.4851e-05 -2.48872e-05 -4.44265e-09)
(-2.94136e-05 -2.41683e-05 -4.44265e-09)
(1.45279e-05 -4.32595e-05 -1.20984e-05)
(1.17014e-05 -3.94304e-05 -1.59444e-05)
(3.09361e-05 8.50769e-06 3.52579e-05)
(0.000418216 -1.4133e-05 6.87684e-07)
(-1.22528e-05 -1.94669e-05 9.17321e-06)
(-1.99907e-05 1.23419e-05 6.04162e-07)
(0.00147207 0.00266475 7.18814e-06)
(0.00551364 0.00141871 3.38584e-06)
(0.00110377 0.00450304 -0.00203333)
(0.0029497 0.000623298 3.38584e-06)
(0.000715326 0.00462067 -0.00133483)
(0.000715326 0.00462067 -0.00119656)
(0.000715326 0.00462067 -0.00132711)
(0.00122578 0.0044661 -0.00203333)
(0.00115512 0.00666461 -5.36759e-07)
(0.00115512 0.00665059 -5.36759e-07)
(0.000715326 0.00462067 -0.000576568)
(0.00115512 0.00634229 -5.36759e-07)
(-0.000778606 -0.00265416 0.000991921)
(-0.000875038 -4.20227e-05 -3.28762e-07)
(-4.16168e-05 -2.57818e-05 -1.27163e-05)
(-0.00419288 -0.0110152 -1.3737e-05)
(-2.78058e-06 -1.18346e-07 2.62776e-05)
(0.00226096 -0.0036398 0.000936412)
(0.00591782 -0.00330219 2.94608e-06)
(0.00487222 -0.0043261 2.94608e-06)
(0.00594618 -0.00325214 -3.07844e-06)
(-0.000544576 0.000259797 2.27345e-05)
(0.000453241 0.0001716 -1.12209e-05)
(3.66164e-05 2.58502e-05 2.90225e-06)
(-2.09952e-05 -1.38634e-05 -1.59444e-05)
(-1.60335e-05 -1.73243e-05 9.17321e-06)
(-2.99125e-05 3.80813e-05 9.17321e-06)
(-0.00295488 -0.00325086 -1.3737e-05)
(3.20364e-07 1.72097e-05 -1.59444e-05)
(0.00248119 0.000708765 5.20793e-06)
(0.00292749 0.000621102 3.38584e-06)
(0.00158984 0.000488784 3.38584e-06)
(0.00561009 0.00110021 3.38584e-06)
(0.000927814 0.00455632 -0.00203333)
(0.00228486 0.000200709 0.000766797)
(0.000174431 -0.00192938 0.000766797)
(-6.70644e-05 3.2723e-06 3.43908e-05)
(-0.000257904 0.000179188 3.46295e-07)
(0.000151293 6.18358e-05 -2.31047e-05)
(0.00421795 -0.00304721 0.000161709)
(0.00111827 -0.00265416 0.000243393)