/*--------------------------------*- C++ -*----------------------------------*\
| =========                 |                                                 |
| \\      /  F ield         | OpenFOAM: The Open Source CFD Toolbox           |
|  \\    /   O peration     | Version:  plus.master.MPPICInterFoam            |
|   \\  /    A nd           | Web:      www.OpenFOAM.com                      |
|    \\/     M anipulation  |                                                 |
\*---------------------------------------------------------------------------*/
FoamFile
{
    version     2.0;
    format      ascii;
    class       volScalarField;
    location    "5.8";
    object      epsilon;
}
// * * * * * * * * * * * * * * * * * * * * * * * * * * * * * * * * * * * * * //

dimensions      [0 2 -3 0 0 0 0];

internalField   nonuniform List<scalar> 
11821
(
0.454298
0.498097
0.354644
0.442222
0.348058
0.261774
0.367667
0.47751
0.57956
0.604774
0.528191
0.416782
0.316362
0.47604
0.615843
0.713367
0.719358
0.677062
0.544359
0.397497
0.573759
0.723899
0.701051
0.676634
0.702876
0.6727
0.470003
0.582761
0.746283
0.733001
0.726632
0.739904
0.707166
0.485453
0.499873
0.666915
0.772264
0.795395
0.740064
0.591027
0.419163
0.38662
0.512853
0.640869
0.696622
0.58861
0.448361
0.331361
0.284087
0.361934
0.432405
0.456459
0.402128
0.323624
0.251966
0.33244
0.413962
0.487167
0.516461
0.454301
0.374841
0.298846
0.409513
0.517469
0.608502
0.669099
0.573528
0.466114
0.358633
0.474432
0.611387
0.617663
0.584162
0.649057
0.548953
0.406289
0.479576
0.620183
0.680743
0.672827
0.631738
0.566413
0.4142
0.42013
0.537597
0.620605
0.657375
0.582826
0.481876
0.367074
0.340449
0.428457
0.507203
0.545841
0.476091
0.386646
0.304369
0.262254
0.321042
0.368596
0.385043
0.350011
0.296474
0.241847
0.311665
0.378689
0.430007
0.445695
0.408754
0.351192
0.289539
0.371717
0.464908
0.535285
0.559463
0.505761
0.419708
0.336344
0.413338
0.526322
0.580484
0.534566
0.56547
0.469616
0.366647
0.414711
0.52876
0.596227
0.512169
0.560503
0.474332
0.368217
0.373431
0.468656
0.541212
0.558521
0.509481
0.423085
0.336739
0.312507
0.380783
0.434348
0.451226
0.412536
0.351881
0.289231
0.247916
0.296183
0.330597
0.340554
0.319127
0.280973
0.236484
0.30469
0.368398
0.413224
0.425867
0.398037
0.349382
0.291628
0.35924
0.440489
0.498178
0.515194
0.47566
0.408206
0.335797
0.392345
0.487237
0.548074
0.55414
0.533319
0.445081
0.360989
0.391379
0.485833
0.557372
0.558281
0.528887
0.444435
0.359697
0.356096
0.436399
0.496308
0.5136
0.472962
0.404126
0.332369
0.301834
0.363226
0.406924
0.418841
0.392012
0.344299
0.288739
0.2418
0.287725
0.319201
0.328383
0.312314
0.27947
0.237759
0.307754
0.380059
0.434225
0.451019
0.422227
0.368266
0.30389
0.367327
0.460875
0.514896
0.497802
0.50493
0.437489
0.354742
0.403873
0.51356
0.548072
0.542548
0.536799
0.482803
0.384668
0.402663
0.517962
0.535817
0.579704
0.545811
0.476639
0.381995
0.362616
0.454233
0.524734
0.528685
0.496347
0.429752
0.350316
0.304438
0.372787
0.424944
0.439715
0.413418
0.361966
0.301096
0.242164
0.291731
0.327758
0.339856
0.324506
0.289841
0.245286
0.313748
0.3984
0.468217
0.492703
0.462474
0.396979
0.321523
0.381485
0.496159
0.563538
0.567852
0.556583
0.484533
0.383454
0.426967
0.573409
0.549699
0.608741
0.536297
0.551839
0.423759
0.425517
0.573013
0.572177
0.606858
0.56958
0.546904
0.422324
0.377596
0.490455
0.57644
0.590879
0.562737
0.480732
0.380454
0.312458
0.392997
0.462569
0.492469
0.458974
0.393167
0.320662
0.245885
0.30127
0.345054
0.362957
0.346446
0.306744
0.256827
0.318061
0.412439
0.499677
0.543603
0.50362
0.425806
0.340146
0.391248
0.525591
0.636297
0.691654
0.642636
0.535099
0.413309
0.44391
0.624283
0.665824
0.655716
0.664713
0.624897
0.464783
0.442949
0.624226
0.69956
0.576902
0.650212
0.626225
0.464114
0.38996
0.52212
0.646809
0.721674
0.653062
0.533827
0.412258
0.320218
0.411345
0.49711
0.542293
0.503538
0.425615
0.342054
0.250208
0.311121
0.362415
0.386372
0.369401
0.325181
0.269687
0.320365
0.420372
0.51645
0.574668
0.535097
0.450984
0.356895
0.395805
0.540444
0.690914
0.789129
0.71397
0.578204
0.439396
0.449928
0.648339
0.768589
0.683728
0.771417
0.690651
0.499121
0.45019
0.648623
0.776489
0.747442
0.761341
0.695016
0.499641
0.397575
0.54201
0.69657
0.812143
0.730466
0.582226
0.440941
0.325585
0.424458
0.521827
0.582541
0.542525
0.45566
0.361695
0.252823
0.318483
0.376165
0.406425
0.390345
0.34225
0.280784
0.321002
0.428815
0.537385
0.609704
0.570415
0.476753
0.371104
0.400312
0.557514
0.73444
0.870585
0.772035
0.623344
0.465249
0.457062
0.668763
0.870965
0.843013
0.903199
0.744012
0.533443
0.45837
0.671304
0.876959
0.868444
0.888639
0.744621
0.534324
0.404313
0.563005
0.742773
0.894206
0.78747
0.630215
0.468847
0.328399
0.436842
0.548955
0.626618
0.583986
0.485352
0.378289
0.252158
0.322956
0.388204
0.425467
0.409565
0.355853
0.287117
0.317656
0.437185
0.564513
0.654968
0.614868
0.501887
0.377274
0.404198
0.583486
0.784982
0.946812
0.831986
0.671369
0.488817
0.467936
0.711743
0.937692
0.931885
0.971345
0.779016
0.572649
0.470079
0.716694
0.942813
0.946007
0.982301
0.797553
0.574512
0.409807
0.5925
0.800267
0.972846
0.848429
0.677213
0.494533
0.326463
0.447858
0.580344
0.675529
0.632362
0.512878
0.386471
0.246641
0.321713
0.395689
0.440572
0.423802
0.361279
0.284667
0.303787
0.42449
0.564995
0.66282
0.624648
0.492511
0.36039
0.394018
0.583353
0.777938
0.950165
0.819422
0.670764
0.479549
0.467795
0.723817
0.962319
0.931703
0.994874
0.791677
0.579995
0.470212
0.729569
0.967332
0.934078
0.989634
0.789174
0.584705
0.400397
0.593695
0.790642
0.966369
0.827929
0.675175
0.486314
0.313196
0.435979
0.580187
0.679511
0.639513
0.503629
0.370677
0.236568
0.308578
0.385517
0.43656
0.41697
0.347707
0.271374
0.279107
0.378145
0.497335
0.597867
0.549942
0.430722
0.32211
0.357282
0.51535
0.678467
0.79082
0.74006
0.589361
0.422635
0.427622
0.658519
0.851882
0.84382
0.818165
0.739144
0.515425
0.429993
0.663029
0.862768
0.849165
0.818567
0.74271
0.519319
0.36393
0.525757
0.689744
0.815495
0.748282
0.597952
0.430363
0.288574
0.389991
0.513214
0.615794
0.568738
0.443367
0.332988
0.22414
0.2845
0.350437
0.397967
0.377523
0.315639
0.251443
0.250731
0.318218
0.391668
0.452614
0.420384
0.350416
0.279228
0.304905
0.404893
0.500349
0.564239
0.541308
0.452339
0.34677
0.352337
0.497876
0.597043
0.722589
0.651806
0.56086
0.407966
0.354801
0.502426
0.604781
0.718787
0.659749
0.565977
0.411396
0.311209
0.414293
0.511792
0.579618
0.55057
0.462356
0.354453
0.259782
0.329378
0.405725
0.471388
0.436792
0.363273
0.289808
0.21176
0.256781
0.301923
0.333206
0.318372
0.277587
0.231112
0.232664
0.279117
0.325103
0.357012
0.340456
0.299352
0.251472
0.269229
0.334896
0.400457
0.442157
0.421991
0.36615
0.296008
0.296487
0.382892
0.451808
0.451861
0.469156
0.42336
0.330616
0.298812
0.387604
0.465198
0.464835
0.480351
0.429159
0.333738
0.275028
0.342885
0.411333
0.458197
0.432655
0.375781
0.303109
0.241288
0.289557
0.338253
0.373168
0.354853
0.311378
0.261465
0.205005
0.239138
0.269413
0.287429
0.278987
0.252779
0.218571
0.23107
0.267267
0.29778
0.31483
0.306581
0.28043
0.244614
0.259573
0.305119
0.348071
0.37323
0.361034
0.324043
0.277686
0.277761
0.33162
0.383424
0.387302
0.399835
0.355374
0.299574
0.279753
0.334468
0.387419
0.378821
0.40377
0.358635
0.302065
0.264992
0.312018
0.357332
0.384024
0.371419
0.332633
0.284125
0.239543
0.277087
0.309602
0.327837
0.319136
0.291426
0.254157
0.207734
0.237561
0.260772
0.272518
0.266998
0.247292
0.218007
0.246495
0.283382
0.311412
0.324971
0.318361
0.294451
0.258293
0.276025
0.319062
0.35483
0.373211
0.365517
0.333907
0.291156
0.293271
0.340602
0.381279
0.409397
0.393892
0.359921
0.310992
0.295227
0.343155
0.385262
0.416342
0.399258
0.363959
0.313517
0.281517
0.325897
0.36385
0.384431
0.378112
0.342429
0.297587
0.255408
0.293641
0.323241
0.337947
0.331162
0.305571
0.268004
0.220655
0.252785
0.27623
0.287038
0.281523
0.261213
0.229579
0.0674776
0.103355
0.175694
0.130894
0.0988943
0.0769379
0.0666303
0.0980977
0.34473
0.242378
0.175454
0.129792
0.0974987
0.0754008
0.0647548
0.093931
0.306225
0.218501
0.160279
0.119835
0.0908849
0.0709986
0.061674
0.0904917
0.247214
0.182379
0.137598
0.105261
0.0815344
0.0651927
0.0582786
0.0887171
0.19107
0.148051
0.115785
0.0911593
0.0726228
0.0599861
0.0558795
0.0896506
0.237798
0.188449
0.149252
0.117962
0.0937308
0.0770032
0.0715479
0.116442
0.285591
0.216266
0.165941
0.127899
0.0991154
0.0790242
0.0705699
0.108682
0.324671
0.237742
0.177971
0.134613
0.102544
0.0801688
0.0697175
0.103225
0.330506
0.239052
0.177448
0.133418
0.101127
0.0786259
0.0678222
0.0989414
0.293649
0.216464
0.162749
0.123548
0.0944881
0.0741984
0.0647419
0.0955398
0.24093
0.183075
0.140925
0.109087
0.0850677
0.0683406
0.0613607
0.0939388
0.190404
0.150704
0.119525
0.0949017
0.0760088
0.0630553
0.0589792
0.095094
0.232615
0.188477
0.151109
0.120177
0.0959144
0.079219
0.074072
0.120546
0.271997
0.213311
0.166965
0.129997
0.101342
0.0812739
0.0730644
0.11265
0.301096
0.231035
0.177807
0.13643
0.104728
0.0824072
0.0721879
0.107017
0.303904
0.23127
0.176943
0.135165
0.103326
0.080885
0.0702962
0.102703
0.274913
0.211682
0.163285
0.125634
0.0968181
0.0765283
0.0672638
0.0994285
0.232312
0.182097
0.142681
0.111509
0.0875025
0.0707356
0.0639564
0.0980767
0.188326
0.151984
0.121889
0.0974234
0.0784497
0.0654778
0.0616519
0.0995014
0.229605
0.188359
0.151971
0.121352
0.0973273
0.0809693
0.0763818
0.124561
0.263969
0.21155
0.167473
0.131175
0.102795
0.0830194
0.075308
0.116505
0.286326
0.226907
0.177632
0.137464
0.106163
0.084141
0.0743998
0.110744
0.286852
0.226357
0.176578
0.136199
0.104806
0.0826524
0.0725148
0.106413
0.263691
0.208896
0.163652
0.126968
0.098455
0.0783907
0.0695374
0.103236
0.227391
0.18163
0.143821
0.113126
0.089289
0.0727071
0.0663253
0.102105
0.187222
0.15282
0.123399
0.0991474
0.0803084
0.0675359
0.0641379
0.103808
0.231698
0.190145
0.153406
0.122668
0.0987574
0.0826985
0.0786755
0.129042
0.265987
0.213851
0.169403
0.132798
0.104352
0.0847526
0.0775172
0.120773
0.286935
0.229063
0.179729
0.139247
0.107802
0.0858894
0.0765782
0.114913
0.2864
0.228177
0.178631
0.138045
0.106504
0.0844319
0.0746921
0.11054
0.264371
0.210938
0.165742
0.128837
0.100203
0.0802196
0.0717481
0.107389
0.229078
0.183751
0.145824
0.114956
0.0910718
0.0746057
0.0686204
0.106426
0.189073
0.1547
0.125182
0.100885
0.0821088
0.0695181
0.0665627
0.108399
0.238718
0.194345
0.156043
0.124581
0.100458
0.0844951
0.0809214
0.133731
0.276792
0.220153
0.173153
0.135239
0.106246
0.0865629
0.0796763
0.125265
0.300485
0.236911
0.18431
0.142092
0.10986
0.0877386
0.0787067
0.1193
0.299805
0.236133
0.183368
0.140981
0.108609
0.0862993
0.0768119
0.114861
0.275294
0.217603
0.169859
0.131536
0.102235
0.0820819
0.0738774
0.111676
0.236852
0.188702
0.14909
0.117294
0.0930002
0.0764798
0.0708071
0.110766
0.194109
0.158129
0.127679
0.102912
0.0839782
0.0714524
0.0688746
0.112966
0.248798
0.200287
0.15957
0.126844
0.10222
0.0862336
0.083061
0.138279
0.292499
0.229036
0.178145
0.138136
0.108206
0.0882952
0.081706
0.129551
0.321034
0.24826
0.190541
0.145559
0.112035
0.0895172
0.0806971
0.123448
0.320898
0.2478
0.189771
0.144537
0.110822
0.0880872
0.0787912
0.118942
0.29206
0.22722
0.175308
0.134671
0.104291
0.0838341
0.0758683
0.115767
0.248413
0.195575
0.153164
0.119841
0.0948766
0.0782238
0.0728536
0.114952
0.201321
0.162652
0.130607
0.105019
0.0857691
0.0732621
0.0710521
0.117392
0.259575
0.206436
0.162901
0.128742
0.103634
0.0877398
0.0850919
0.142491
0.309315
0.238397
0.183013
0.140621
0.109739
0.0897291
0.0835768
0.133437
0.343146
0.260436
0.196829
0.148654
0.113764
0.0909657
0.0825044
0.127176
0.343601
0.260317
0.196205
0.147717
0.112586
0.0895437
0.0805862
0.122625
0.310315
0.237445
0.180602
0.137345
0.105911
0.0852888
0.0776988
0.119511
0.260976
0.202602
0.156879
0.121901
0.0963584
0.0797246
0.0747814
0.118882
0.208881
0.166999
0.133131
0.106705
0.0872451
0.0748845
0.0731514
0.121647
0.268144
0.210492
0.164423
0.129329
0.104267
0.0888854
0.0870729
0.146792
0.323558
0.245438
0.185765
0.14152
0.110321
0.0907146
0.0853419
0.137356
0.362091
0.27019
0.200861
0.149985
0.114421
0.0919043
0.0841758
0.130947
0.36325
0.270475
0.200459
0.149114
0.113282
0.0904957
0.0822415
0.126363
0.32621
0.245356
0.183767
0.138461
0.106619
0.0863146
0.0794096
0.123322
0.271299
0.207388
0.158741
0.122714
0.0971427
0.0809006
0.0766271
0.122899
0.214256
0.169438
0.13423
0.10749
0.088226
0.0762786
0.0752139
0.126053
0.272611
0.210693
0.163222
0.128394
0.104211
0.0897794
0.0890533
0.151977
0.33443
0.248304
0.18525
0.140532
0.110048
0.0913852
0.0870625
0.142084
0.378453
0.275809
0.201293
0.149195
0.114116
0.0924868
0.0857806
0.135527
0.380167
0.27634
0.201007
0.148426
0.11304
0.0911032
0.0838227
0.130868
0.33856
0.248872
0.183586
0.137722
0.106523
0.0870499
0.0810522
0.127823
0.27708
0.208102
0.157932
0.122159
0.0973526
0.0818578
0.0784138
0.127503
0.21543
0.168815
0.133517
0.107383
0.0888267
0.0775066
0.0772165
0.130953
0.270011
0.206153
0.159698
0.126697
0.104054
0.0906701
0.0909328
0.158046
0.337775
0.24494
0.181415
0.138371
0.109578
0.0920528
0.0886849
0.147604
0.388642
0.274638
0.197764
0.146901
0.113513
0.0930567
0.0872783
0.14082
0.391111
0.275422
0.197564
0.14622
0.112502
0.0916976
0.0852915
0.136001
0.343011
0.245949
0.180104
0.135865
0.106249
0.0877779
0.082581
0.132893
0.275143
0.204107
0.155086
0.121033
0.0975197
0.0828037
0.0800592
0.132596
0.211511
0.165623
0.131848
0.107082
0.0894478
0.0786955
0.0790434
0.13629
0.258689
0.198745
0.156014
0.125581
0.104379
0.0916858
0.0924877
0.163307
0.325649
0.235797
0.176473
0.136561
0.109551
0.0928643
0.0900367
0.152338
0.380127
0.265536
0.192323
0.144752
0.113312
0.0937649
0.0885058
0.145222
0.382832
0.266364
0.192247
0.144169
0.112363
0.0924248
0.0864947
0.140213
0.330936
0.237085
0.175571
0.134404
0.106413
0.0886382
0.0838598
0.137121
0.263961
0.197548
0.152264
0.120491
0.0980961
0.0838405
0.0814576
0.136976
0.20452
0.162077
0.130735
0.107367
0.0903849
0.0799004
0.0805818
0.140928
0.240266
0.189697
0.152437
0.124834
0.104871
0.0925988
0.093567
0.165977
0.296894
0.221513
0.170457
0.134747
0.109584
0.0935632
0.0909831
0.15471
0.345253
0.247511
0.184486
0.142162
0.113024
0.0943105
0.0893305
0.147249
0.347633
0.248376
0.184552
0.141696
0.112128
0.0929771
0.0873067
0.142144
0.302165
0.223244
0.170059
0.132915
0.106573
0.089348
0.0847731
0.139255
0.24582
0.189515
0.149513
0.120165
0.0987017
0.0847328
0.0825081
0.13946
0.195705
0.158605
0.130014
0.107862
0.0913036
0.0809295
0.0817445
0.14369
0.219977
0.180503
0.148972
0.124003
0.105094
0.0931891
0.0942695
0.1666
0.261467
0.205531
0.164085
0.132718
0.109308
0.0939383
0.0916053
0.155299
0.295408
0.225152
0.175485
0.139088
0.112319
0.0944879
0.0898407
0.147586
0.297652
0.226184
0.175716
0.138718
0.111448
0.0931495
0.0878182
0.142503
0.266818
0.207767
0.164132
0.131099
0.106341
0.089709
0.0854114
0.139946
0.226023
0.181278
0.146675
0.119572
0.0989475
0.0853138
0.0833116
0.140594
0.18663
0.155145
0.129139
0.108031
0.0918573
0.0816669
0.082671
0.145116
0.206892
0.175008
0.14718
0.123735
0.105385
0.0937245
0.0949679
0.166969
0.237386
0.195173
0.160309
0.131661
0.109264
0.0943199
0.092253
0.155743
0.259797
0.209854
0.169719
0.137228
0.111922
0.0946983
0.0904085
0.147909
0.261982
0.211015
0.170052
0.136881
0.111037
0.0933487
0.0884041
0.142927
0.242676
0.197706
0.160541
0.13006
0.106247
0.0900677
0.0861241
0.140686
0.213293
0.176349
0.145156
0.119335
0.0992004
0.0858727
0.0841959
0.14175
0.181229
0.153297
0.128792
0.108244
0.0923316
0.0823819
0.0837027
0.146582
0.205642
0.175983
0.148638
0.124992
0.106389
0.0946666
0.0960834
0.168417
0.231632
0.194606
0.161364
0.132822
0.110212
0.0952014
0.0933098
0.157138
0.24877
0.207322
0.170099
0.13813
0.112733
0.0954983
0.091429
0.149275
0.250851
0.208509
0.170422
0.137739
0.11181
0.094142
0.0894621
0.144448
0.236833
0.197184
0.161518
0.131079
0.10709
0.0909381
0.0872865
0.142489
0.212242
0.177431
0.146521
0.120436
0.100119
0.0868557
0.0855098
0.143927
0.182382
0.154837
0.130112
0.109292
0.0932926
0.0834781
0.0851823
0.149134
0.215865
0.183247
0.153294
0.127804
0.108171
0.0960822
0.0976881
0.171061
0.243585
0.203495
0.167085
0.136171
0.112201
0.0966589
0.0948718
0.159726
0.260931
0.216959
0.176391
0.141761
0.114817
0.0969758
0.0929938
0.151903
0.263086
0.218163
0.176667
0.14131
0.113859
0.0956249
0.0910697
0.147203
0.248926
0.206027
0.167045
0.134242
0.10899
0.0924149
0.0889626
0.14541
0.222825
0.184569
0.150873
0.123016
0.101831
0.088343
0.0872879
0.147068
0.190181
0.159938
0.133303
0.111364
0.0948736
0.0850176
0.0871093
0.152591
0.208736
0.159318
0.121342
0.0926388
0.0717913
0.0582049
0.0538118
0.0865616
0.275368
0.201436
0.14766
0.10854
0.0807952
0.062708
0.0552687
0.0844062
0.347243
0.247357
0.176538
0.126162
0.0910091
0.0682063
0.0578903
0.0851165
0.398583
0.279493
0.196917
0.138937
0.0987418
0.0727157
0.0605913
0.0879522
0.392803
0.277825
0.197535
0.140531
0.100573
0.0745164
0.0625377
0.0921064
0.336172
0.245924
0.180103
0.131641
0.0967441
0.0736946
0.06382
0.097895
0.269827
0.206952
0.157582
0.11939
0.0910532
0.0722323
0.0655564
0.106348
0.198602
0.155118
0.120166
0.0930571
0.0731522
0.0602166
0.0564892
0.0913044
0.253872
0.191864
0.143891
0.107658
0.0814966
0.0643943
0.0577693
0.088847
0.309599
0.230115
0.16909
0.123422
0.0907426
0.0694036
0.060144
0.0891964
0.348206
0.256284
0.186604
0.134701
0.0976438
0.0734597
0.0626056
0.0917322
0.345212
0.255894
0.187669
0.136334
0.0993557
0.0751143
0.0644307
0.095738
0.304743
0.231225
0.173358
0.12876
0.0960449
0.0744494
0.0657216
0.101553
0.252879
0.198786
0.153777
0.117853
0.090942
0.0731993
0.0674972
0.110018
0.190673
0.1511
0.118513
0.0929561
0.0741363
0.0620052
0.0590715
0.0960532
0.238872
0.184074
0.140136
0.106361
0.0818252
0.0658462
0.0601646
0.0932929
0.284694
0.217139
0.162481
0.120487
0.0901571
0.0703881
0.0623128
0.0933423
0.314789
0.23913
0.17774
0.130441
0.0962815
0.0740248
0.0645687
0.0956527
0.313812
0.239607
0.179031
0.131999
0.0978326
0.0755287
0.0662862
0.0995354
0.283948
0.219815
0.166987
0.125472
0.0949535
0.0749953
0.067584
0.105339
0.240569
0.191543
0.149511
0.115635
0.0903546
0.0739415
0.0694167
0.11383
0.186708
0.148764
0.117589
0.093203
0.0752888
0.063863
0.0616894
0.101173
0.232131
0.179785
0.137841
0.105716
0.0824588
0.067427
0.0626159
0.0981258
0.27443
0.2105
0.158507
0.118711
0.090115
0.0716177
0.0645931
0.0979582
0.301885
0.230838
0.172539
0.127779
0.0956697
0.0749436
0.0667047
0.100149
0.302071
0.231728
0.173849
0.129208
0.0970557
0.076315
0.0683406
0.103959
0.275782
0.213795
0.162848
0.123217
0.0944128
0.0758495
0.0696383
0.109749
0.234806
0.187017
0.146372
0.11401
0.0901509
0.0749446
0.0715372
0.118334
0.186162
0.148282
0.117685
0.0939948
0.0767044
0.0658132
0.0642944
0.106349
0.231568
0.17852
0.137104
0.105896
0.0835061
0.0691823
0.0651061
0.103118
0.274608
0.208628
0.15686
0.118157
0.0907133
0.0731458
0.0669808
0.102887
0.303401
0.228828
0.170291
0.126659
0.0958974
0.0762725
0.069007
0.105042
0.303869
0.229778
0.171499
0.127923
0.0971366
0.077541
0.0705886
0.108829
0.276378
0.211769
0.160743
0.12215
0.0945917
0.0770961
0.0718836
0.114634
0.233796
0.184914
0.144646
0.113304
0.0905462
0.0762942
0.0738425
0.12334
0.187693
0.149079
0.118499
0.0951424
0.0782678
0.0678029
0.0668804
0.111514
0.234025
0.179101
0.137439
0.106638
0.084812
0.0710339
0.0676109
0.108133
0.278944
0.209211
0.156701
0.118436
0.0917252
0.074856
0.0694304
0.107844
0.309893
0.229635
0.169783
0.126558
0.0966632
0.0778573
0.0714035
0.109964
0.310192
0.230368
0.170774
0.12764
0.0977756
0.0790514
0.0729543
0.113764
0.279866
0.211614
0.159938
0.121919
0.0952605
0.0786075
0.0742539
0.119621
0.234743
0.184283
0.144003
0.113316
0.0913716
0.0778844
0.0762721
0.128483
0.189564
0.150043
0.119348
0.0962694
0.0798062
0.0697879
0.0695026
0.116677
0.236846
0.18003
0.137965
0.107455
0.0861454
0.0729046
0.0701493
0.113097
0.283029
0.210217
0.156917
0.118926
0.0928373
0.0766115
0.0719176
0.1127
0.315135
0.230663
0.169727
0.12677
0.0975751
0.0795108
0.0738577
0.114784
0.314892
0.231018
0.170466
0.127686
0.0985819
0.0806518
0.0753996
0.118608
0.282377
0.211617
0.159504
0.121976
0.09609
0.0802221
0.0767229
0.124543
0.23562
0.184017
0.143731
0.113589
0.0923606
0.0795936
0.0788195
0.133578
0.190037
0.150038
0.119609
0.0970878
0.081207
0.0717332
0.0721789
0.122083
0.238148
0.179928
0.137828
0.107908
0.0873196
0.074729
0.0727302
0.118263
0.285169
0.210108
0.1564
0.119002
0.0937688
0.0783215
0.0744505
0.117744
0.317071
0.230254
0.168843
0.126529
0.0983043
0.0811322
0.0763796
0.119824
0.316166
0.230234
0.169364
0.127307
0.0992292
0.0822428
0.077938
0.123696
0.282871
0.210578
0.158423
0.12168
0.0967965
0.0818517
0.0793114
0.129731
0.235321
0.183002
0.142957
0.113581
0.0932496
0.0813339
0.0815207
0.138991
0.188115
0.148551
0.119146
0.097643
0.0825396
0.0736471
0.0748359
0.127907
0.236731
0.177878
0.136687
0.108012
0.0884289
0.076548
0.0753196
0.123943
0.285086
0.207977
0.154747
0.118666
0.0946412
0.0800543
0.0770218
0.123436
0.31779
0.22818
0.166895
0.125896
0.0990018
0.0828037
0.0789617
0.125587
0.31636
0.227924
0.167278
0.126577
0.0998673
0.0839025
0.0805591
0.129573
0.281685
0.207927
0.156407
0.121065
0.0975032
0.0835576
0.0820051
0.135761
0.232979
0.180414
0.141321
0.113263
0.094117
0.083143
0.0843654
0.145366
0.184123
0.146371
0.118721
0.0984596
0.0840734
0.0755861
0.0773403
0.134124
0.231991
0.174357
0.135319
0.108369
0.0898063
0.0784535
0.0777917
0.130039
0.281779
0.203844
0.152566
0.118538
0.0958372
0.0819373
0.0795223
0.129632
0.316594
0.224206
0.164349
0.125475
0.100077
0.0846773
0.0815018
0.131932
0.314885
0.22386
0.164654
0.126084
0.100905
0.0857772
0.0831503
0.13612
0.277872
0.203525
0.153936
0.120701
0.0985846
0.0854573
0.0846697
0.142548
0.227929
0.176412
0.139371
0.11318
0.0952967
0.0850957
0.0871529
0.152578
0.180041
0.145191
0.119384
0.100054
0.0859928
0.0775694
0.0795819
0.13977
0.224654
0.171262
0.135108
0.109682
0.091705
0.0804816
0.080036
0.13555
0.273263
0.199195
0.151431
0.119489
0.0976776
0.0840128
0.0818028
0.135145
0.309594
0.219222
0.162742
0.126175
0.101854
0.0867772
0.0838223
0.137543
0.307993
0.218888
0.16299
0.126724
0.102653
0.0878843
0.0855179
0.141949
0.269452
0.198688
0.152523
0.121444
0.100346
0.0875638
0.0870861
0.148659
0.220576
0.172677
0.138545
0.114131
0.0970956
0.0872102
0.089644
0.159109
0.176058
0.144898
0.120795
0.102026
0.0879733
0.0793975
0.0814239
0.143593
0.214803
0.168444
0.135634
0.111479
0.0937482
0.0823997
0.0819109
0.139245
0.256941
0.193141
0.15064
0.120909
0.0997128
0.0860083
0.0837143
0.138705
0.289727
0.210917
0.160872
0.127206
0.103819
0.0888044
0.0857622
0.14105
0.288288
0.210528
0.161004
0.127678
0.10459
0.0899213
0.0874886
0.145571
0.253152
0.192269
0.151362
0.122652
0.102324
0.0895988
0.0890814
0.152506
0.210496
0.169079
0.138482
0.11567
0.0991251
0.0892297
0.0916404
0.163136
0.1721
0.144775
0.122164
0.103738
0.0896085
0.080901
0.0829314
0.145872
0.203817
0.165613
0.136182
0.113081
0.0954598
0.0839771
0.0834343
0.141375
0.23551
0.185954
0.149643
0.122114
0.101407
0.0876356
0.0852433
0.140591
0.258657
0.199621
0.158303
0.12792
0.105418
0.0904433
0.0872946
0.142764
0.257123
0.199002
0.158244
0.128294
0.106163
0.0915704
0.0890363
0.147282
0.231491
0.184533
0.149924
0.123645
0.103974
0.0912602
0.0906453
0.154349
0.199013
0.165398
0.138474
0.117061
0.100836
0.0908665
0.0931596
0.164919
0.170679
0.14567
0.123731
0.105294
0.0910074
0.0822272
0.0843596
0.147804
0.197627
0.164923
0.137457
0.11472
0.0969686
0.0853461
0.0848266
0.14311
0.221431
0.182206
0.149997
0.123604
0.102954
0.089035
0.0866034
0.142044
0.236516
0.192654
0.15756
0.129123
0.106929
0.0918525
0.0886368
0.14401
0.234865
0.19181
0.157338
0.129432
0.107669
0.0929949
0.0903856
0.148474
0.217192
0.180316
0.149957
0.125016
0.105522
0.0926935
0.0920068
0.155612
0.192286
0.164031
0.139368
0.118588
0.102358
0.0922571
0.0944843
0.166072
0.174291
0.149036
0.126401
0.107308
0.0926053
0.0836876
0.0859981
0.150435
0.200372
0.16866
0.140716
0.117158
0.0987711
0.0868376
0.0863631
0.145436
0.221285
0.185425
0.153518
0.126377
0.104954
0.0905798
0.0880777
0.144056
0.232913
0.194851
0.160972
0.132024
0.109045
0.093447
0.0900897
0.14582
0.231217
0.193884
0.160698
0.132335
0.109808
0.0946065
0.0918339
0.150199
0.216879
0.183278
0.153373
0.127809
0.107582
0.0942808
0.0934708
0.157417
0.19454
0.167413
0.14253
0.121071
0.104225
0.0937745
0.0959691
0.167949
0.183324
0.155192
0.130416
0.109939
0.0944788
0.0852796
0.0877635
0.153447
0.212624
0.177205
0.146203
0.12055
0.100947
0.0884659
0.0880009
0.148132
0.235615
0.196046
0.160475
0.130597
0.107497
0.0923041
0.0896541
0.146531
0.247894
0.206542
0.168818
0.136805
0.111863
0.0952603
0.0916499
0.148167
0.246079
0.2055
0.168546
0.137139
0.112647
0.0964268
0.0933799
0.152457
0.230895
0.193747
0.160363
0.13212
0.110189
0.096018
0.0950115
0.15966
0.206179
0.175847
0.148144
0.124607
0.10647
0.0953941
0.097537
0.170243
0.269664
0.207226
0.158248
0.120273
0.091975
0.0730976
0.066399
0.107622
0.340189
0.251065
0.185877
0.137418
0.101929
0.078022
0.0676091
0.103578
0.403048
0.288932
0.209193
0.151873
0.1106
0.0827476
0.0695832
0.102482
0.419136
0.298165
0.214997
0.155879
0.113428
0.0846651
0.0707658
0.102884
0.372975
0.271542
0.199811
0.147582
0.109365
0.0831836
0.070853
0.104652
0.303876
0.229356
0.174368
0.132717
0.101402
0.0797503
0.0705164
0.108494
0.239478
0.189298
0.149498
0.117807
0.0933396
0.0765022
0.0709787
0.115293
0.253385
0.199611
0.154844
0.118982
0.0919889
0.0741086
0.068335
0.111254
0.311338
0.238546
0.180789
0.135573
0.10172
0.078914
0.0694535
0.106968
0.359638
0.270796
0.202346
0.149642
0.110341
0.0836413
0.0714161
0.105674
0.374576
0.27998
0.208724
0.154265
0.113625
0.0858325
0.0727449
0.106149
0.340263
0.259436
0.196586
0.147571
0.110463
0.084852
0.0731087
0.108268
0.287458
0.224628
0.174332
0.134166
0.103247
0.0818268
0.0730083
0.112543
0.233985
0.189131
0.151246
0.119976
0.0955291
0.0787655
0.0735923
0.119628
0.241628
0.192832
0.150892
0.116947
0.0914831
0.0748727
0.0702455
0.11503
0.292723
0.229039
0.175772
0.133026
0.100915
0.0794976
0.0712416
0.110528
0.331355
0.257758
0.196257
0.146761
0.109397
0.0841568
0.073165
0.109098
0.342941
0.266625
0.203165
0.151967
0.113082
0.086581
0.0746215
0.109673
0.319241
0.251119
0.193634
0.146752
0.110767
0.0860513
0.0752063
0.11203
0.277559
0.221483
0.173851
0.134665
0.104304
0.0834276
0.0753023
0.116583
0.230708
0.188825
0.152002
0.121107
0.0969511
0.0805678
0.0759978
0.123881
0.236463
0.188733
0.14802
0.115461
0.0913418
0.0758909
0.0723577
0.119526
0.287066
0.224936
0.17279
0.131323
0.100559
0.0803556
0.0732282
0.114831
0.324519
0.253885
0.193602
0.145208
0.109074
0.0850092
0.0751317
0.113352
0.336296
0.263781
0.201486
0.151105
0.113172
0.0876524
0.0767008
0.114053
0.316797
0.250709
0.193561
0.146944
0.111493
0.0874504
0.0774291
0.116532
0.278459
0.222721
0.174866
0.135639
0.105529
0.0850872
0.0776326
0.121191
0.232649
0.190469
0.15335
0.1224
0.0984149
0.0823693
0.0784089
0.128631
0.236136
0.187055
0.14653
0.11486
0.0917632
0.0772289
0.0746257
0.124394
0.290991
0.225065
0.17183
0.130727
0.100844
0.0815542
0.0753626
0.11946
0.333875
0.256898
0.193946
0.14512
0.109523
0.08624
0.0772405
0.117923
0.348701
0.269043
0.203273
0.15184
0.114047
0.0890782
0.0788857
0.118706
0.329637
0.256865
0.196304
0.148431
0.112824
0.0890939
0.0796867
0.121217
0.288661
0.228099
0.177737
0.137474
0.107132
0.0868653
0.0799265
0.12589
0.239548
0.194537
0.155886
0.124267
0.100117
0.0842111
0.0807307
0.133392
0.237773
0.186817
0.14609
0.114954
0.0925964
0.0787881
0.0769986
0.129404
0.298075
0.22707
0.172123
0.130929
0.101579
0.0829817
0.0775936
0.124215
0.348944
0.262739
0.195934
0.145996
0.110479
0.087702
0.0794296
0.122581
0.369345
0.278146
0.207077
0.153655
0.115438
0.0907089
0.0811205
0.123414
0.349496
0.266405
0.200838
0.150821
0.114542
0.0908564
0.0819382
0.125901
0.303587
0.235973
0.181924
0.139916
0.108943
0.0886611
0.0821557
0.130538
0.249485
0.200347
0.159327
0.126501
0.101898
0.086002
0.0829436
0.138051
0.239275
0.186885
0.145964
0.115264
0.0935756
0.0804743
0.0795174
0.134444
0.303915
0.229022
0.172621
0.131284
0.102419
0.0845126
0.0799656
0.129009
0.362163
0.268256
0.198059
0.146979
0.111479
0.0892152
0.0817222
0.12719
0.389987
0.287412
0.211157
0.155551
0.116811
0.0923364
0.0834179
0.128003
0.369245
0.276311
0.205624
0.153202
0.116144
0.0925404
0.0842008
0.130419
0.318978
0.244269
0.186164
0.142164
0.110519
0.0903101
0.084352
0.134983
0.259999
0.206339
0.162589
0.128408
0.103381
0.0876148
0.0851069
0.142491
0.239381
0.186063
0.145262
0.115255
0.0944393
0.0821902
0.0822096
0.139872
0.30709
0.229514
0.172164
0.131072
0.103004
0.0860061
0.0824788
0.134171
0.370477
0.271644
0.198888
0.147106
0.112025
0.0905841
0.0841088
0.132136
0.404755
0.29435
0.213759
0.156457
0.117599
0.0937244
0.0857482
0.132853
0.385601
0.284469
0.208965
0.154445
0.117034
0.0939032
0.0864455
0.135127
0.33241
0.250874
0.188836
0.143193
0.111343
0.0916086
0.0864992
0.139525
0.268548
0.210447
0.164232
0.129136
0.104159
0.088904
0.0872366
0.147026
0.237304
0.183482
0.143535
0.114839
0.0952275
0.0839498
0.0850294
0.146174
0.30842
0.227747
0.170061
0.130049
0.103336
0.0874795
0.0850841
0.140143
0.378177
0.272741
0.197508
0.145952
0.112069
0.0918355
0.0865574
0.137953
0.419302
0.29899
0.213808
0.155666
0.117625
0.0948735
0.0880925
0.138606
0.401144
0.28971
0.209319
0.153754
0.117027
0.0949513
0.0886635
0.140683
0.343029
0.253677
0.188357
0.142341
0.111311
0.0925948
0.088613
0.14486
0.27298
0.210692
0.163123
0.128323
0.104236
0.0899296
0.0893545
0.152394
0.232189
0.179287
0.141377
0.114576
0.0962758
0.0858214
0.087758
0.153257
0.306095
0.222887
0.166562
0.128798
0.103844
0.0890794
0.0876139
0.1469
0.38354
0.269864
0.193668
0.143995
0.112095
0.0931782
0.0889326
0.144614
0.43231
0.299159
0.210663
0.153587
0.117418
0.0960388
0.0903403
0.145222
0.413492
0.289428
0.205991
0.15157
0.116683
0.0959622
0.0907618
0.147086
0.347096
0.25053
0.184553
0.140249
0.11101
0.0935394
0.0905953
0.151001
0.270529
0.206289
0.159732
0.126725
0.104172
0.0909162
0.0913299
0.158585
0.224226
0.175137
0.140253