/*--------------------------------*- C++ -*----------------------------------*\
| =========                 |                                                 |
| \\      /  F ield         | OpenFOAM: The Open Source CFD Toolbox           |
|  \\    /   O peration     | Version:  plus.master.MPPICInterFoam            |
|   \\  /    A nd           | Web:      www.OpenFOAM.com                      |
|    \\/     M anipulation  |                                                 |
\*---------------------------------------------------------------------------*/
FoamFile
{
    version     2.0;
    format      ascii;
    class       volScalarField;
    location    "5.8";
    object      k;
}
// * * * * * * * * * * * * * * * * * * * * * * * * * * * * * * * * * * * * * //

dimensions      [0 2 -2 0 0 0 0];

internalField   nonuniform List<scalar> 
11821
(
0.0510905
0.0536171
0.0442145
0.049788
0.0435179
0.0369334
0.0453337
0.0530542
0.0594699
0.061096
0.0567536
0.0497037
0.0423257
0.0528468
0.0606543
0.0657497
0.0658716
0.064216
0.0576988
0.0485306
0.0588558
0.066108
0.0647356
0.0630262
0.0635199
0.0646762
0.0534486
0.0593664
0.0674494
0.0655561
0.0667439
0.0648224
0.0662973
0.0543431
0.0543425
0.0633997
0.0683274
0.0688397
0.0664487
0.0599928
0.049916
0.0468094
0.0550981
0.0624052
0.0654324
0.0596865
0.051567
0.043541
0.0389576
0.0450744
0.0500301
0.0516611
0.0482316
0.0427479
0.0370059
0.0437165
0.0502646
0.0556602
0.0578481
0.0537799
0.0480491
0.041877
0.049811
0.0573768
0.0628397
0.0664725
0.0613363
0.0548202
0.046954
0.0544622
0.0630517
0.0611544
0.0581989
0.0642925
0.060079
0.0505726
0.0548408
0.0636547
0.065649
0.0659684
0.0622815
0.0608737
0.0510946
0.0506834
0.0586429
0.0629219
0.0640768
0.0606733
0.0555201
0.0476135
0.0446748
0.051404
0.0566903
0.0591102
0.0549261
0.0489444
0.0426024
0.038102
0.0432244
0.0469858
0.0482672
0.0458863
0.0417855
0.0370075
0.0427901
0.048799
0.0532172
0.0546213
0.0519586
0.0472521
0.0417731
0.0481048
0.0561748
0.0621089
0.0638851
0.0602627
0.0533019
0.046176
0.0515781
0.0611267
0.0656129
0.0610063
0.0648812
0.0574373
0.048856
0.0517541
0.0612813
0.0665686
0.0586572
0.0641572
0.0577571
0.0490236
0.0485097
0.0566147
0.062533
0.0635009
0.0604971
0.05371
0.0464382
0.0434139
0.0494166
0.0539077
0.055286
0.0525673
0.0477103
0.0422403
0.0375624
0.04216
0.0452628
0.0462155
0.0446262
0.0413854
0.037166
0.0425698
0.0483442
0.052358
0.0536169
0.0515964
0.047519
0.0423067
0.0474962
0.0547147
0.0602987
0.0623686
0.0589337
0.0529756
0.0465786
0.0504067
0.0590064
0.0656102
0.067107
0.064776
0.0564967
0.0489906
0.0504533
0.0588593
0.0663277
0.0673241
0.0645149
0.0565615
0.0490054
0.0476523
0.0547724
0.0604052
0.0624543
0.0591565
0.0530453
0.0466661
0.0430296
0.0486147
0.05255
0.0538085
0.0517706
0.0477321
0.0426871
0.0374672
0.0419711
0.0449522
0.0459218
0.0446709
0.0417562
0.0376826
0.0430675
0.049321
0.0537957
0.0552927
0.0533853
0.0491446
0.0435673
0.0482473
0.0559395
0.060794
0.0598693
0.0606456
0.0551658
0.0482794
0.0512828
0.0602827
0.0650125
0.065367
0.0649307
0.0590701
0.0509752
0.0513491
0.060585
0.0637639
0.06872
0.0657138
0.058949
0.0509308
0.0483649
0.0559861
0.0620794
0.0634792
0.0607626
0.055097
0.048362
0.0435679
0.0495808
0.054005
0.0554696
0.0535455
0.0493954
0.0440345
0.0378536
0.0426525
0.0459665
0.0471565
0.045983
0.0429622
0.038666
0.0438669
0.050859
0.0561093
0.0580721
0.0561863
0.0514791
0.0452686
0.0495355
0.0581115
0.062748
0.0640132
0.0629569
0.0582969
0.05069
0.0530674
0.0633867
0.0622
0.0691813
0.0615736
0.0631459
0.0539985
0.0531312
0.0634535
0.0635256
0.0695886
0.0647447
0.0629727
0.0540416
0.0497528
0.0582918
0.0641374
0.0655132
0.0638922
0.0585513
0.050924
0.0445662
0.0513378
0.0566933
0.0590118
0.0568498
0.0520062
0.0459455
0.038541
0.0437896
0.0476353
0.0492174
0.0480163
0.0446833
0.0399873
0.0446161
0.0522927
0.0586234
0.0617358
0.0593474
0.0539676
0.0470817
0.0506796
0.0603797
0.0672548
0.0711741
0.0683847
0.0620195
0.0532944
0.0546802
0.0666768
0.069134
0.0704928
0.0696947
0.0678684
0.05733
0.0547975
0.0669297
0.0713214
0.0622496
0.0680202
0.0680825
0.0574424
0.051108
0.0607819
0.0686827
0.0729211
0.0695891
0.0625004
0.0537068
0.0456039
0.0531169
0.0594492
0.0626023
0.060294
0.054814
0.0480185
0.0392923
0.0449908
0.0493782
0.051369
0.0501724
0.0465375
0.0414062
0.0452024
0.0533847
0.0603979
0.0643686
0.0620735
0.0562345
0.0486846
0.0515097
0.0621364
0.0716305
0.0771692
0.0737539
0.0656653
0.0556226
0.0556598
0.0690824
0.0757166
0.06978
0.0766686
0.0731072
0.0602861
0.0558588
0.0693113
0.076546
0.0752495
0.0763411
0.073561
0.0604934
0.0521567
0.0628489
0.0727165
0.0793651
0.0755422
0.0665657
0.0562578
0.0464314
0.0545849
0.061782
0.0659676
0.063611
0.0574933
0.0498812
0.0398567
0.0459596
0.0508414
0.0532796
0.0521472
0.0482144
0.0425989
0.0455442
0.054358
0.0623454
0.067277
0.0649663
0.0583432
0.0499054
0.0521839
0.0638979
0.0756435
0.0836174
0.0787386
0.0693947
0.057685
0.0565566
0.0713141
0.0837864
0.0825307
0.0871787
0.0778048
0.0629991
0.0568242
0.0716833
0.084422
0.084689
0.086214
0.0779078
0.0632343
0.0529855
0.0648612
0.0768285
0.085842
0.0804108
0.0705409
0.0584907
0.0469328
0.0558413
0.0641752
0.0695646
0.0669987
0.05993
0.0512978
0.0400546
0.0465712
0.0520135
0.0549334
0.0537963
0.0494382
0.0432679
0.0454484
0.055023
0.0642103
0.0703058
0.0677859
0.0598447
0.0502808
0.052576
0.0657513
0.0789671
0.0882303
0.0827137
0.0721264
0.0590427
0.0573917
0.0742821
0.0876563
0.0883866
0.0918255
0.0794311
0.0652013
0.0577095
0.0747959
0.0882361
0.089699
0.0929351
0.0810899
0.0655666
0.0534716
0.0669341
0.0806559
0.0906422
0.0846125
0.0731945
0.0599823
0.046916
0.0566611
0.0662883
0.072766
0.0700224
0.0615494
0.0517901
0.0397684
0.0465853
0.0525793
0.0559308
0.0547137
0.0497933
0.0431074
0.0444949
0.0538774
0.0631367
0.0688638
0.0667703
0.0584887
0.0489056
0.0517943
0.0645576
0.0759853
0.0861607
0.0785827
0.0694799
0.0578164
0.0572047
0.0731384
0.0873322
0.0870569
0.0918126
0.0773202
0.0645745
0.0575331
0.073679
0.0878657
0.0874755
0.0916067
0.0772116
0.0650627
0.052716
0.0657462
0.0773374
0.0877582
0.0795337
0.070205
0.0587497
0.0459703
0.0554962
0.0649762
0.0707099
0.0685258
0.0600376
0.0504338
0.0391112
0.0456279
0.0517155
0.0553722
0.0539724
0.048672
0.0420876
0.0429756
0.0509486
0.0589552
0.0649209
0.0621875
0.0545571
0.0463496
0.0495602
0.0603278
0.0686801
0.0743472
0.071991
0.0643491
0.0542023
0.0548923
0.0689209
0.0788142
0.0801405
0.0754924
0.0729032
0.0606219
0.055219
0.0693993
0.0797893
0.080765
0.0757978
0.0732703
0.0610523
0.0505017
0.0615324
0.0699654
0.0764955
0.0729359
0.0653358
0.0552039
0.0444481
0.0525756
0.0608296
0.0668728
0.0641963
0.056193
0.0479183
0.038446
0.0441224
0.0495412
0.0530683
0.051525
0.0465658
0.040772
0.0412859
0.0473572
0.0529954
0.0571149
0.0549787
0.0497764
0.0436095
0.0463617
0.0541576
0.0594763
0.0622567
0.0618534
0.0573655
0.0496105
0.0503828
0.0605553
0.0643221
0.0739105
0.067667
0.0643865
0.0545254
0.0507237
0.0610486
0.0651188
0.0737273
0.0685046
0.0648751
0.0549341
0.0472906
0.0553255
0.0607188
0.063831
0.0628587
0.0585438
0.0506579
0.0427428
0.0489474
0.0547704
0.0592166
0.0569445
0.0515149
0.0451937
0.0378417
0.0424713
0.0465493
0.0490983
0.0478203
0.0441672
0.0395015
0.0402374
0.0450656
0.0493806
0.0520834
0.0505892
0.0467113
0.0417842
0.0441765
0.0504786
0.0560505
0.0587434
0.0576153
0.0530444
0.0463706
0.0468623
0.0546798
0.0592849
0.0573595
0.0601759
0.0579075
0.0496542
0.0471981
0.0552119
0.0604101
0.0585599
0.0611126
0.0585416
0.0500659
0.0450833
0.0515612
0.0573067
0.0601868
0.0588517
0.0542914
0.0474022
0.0416886
0.0466396
0.0511847
0.0541293
0.0525172
0.0484408
0.0433545
0.0375872
0.0414584
0.0445434
0.0461837
0.0453097
0.042578
0.0387141
0.040389
0.0444838
0.0476799
0.0492954
0.0483616
0.0454979
0.0414237
0.0437587
0.0486503
0.0530486
0.0554025
0.054112
0.0501785
0.045165
0.0458119
0.0514199
0.0566171
0.0563403
0.0580371
0.0533816
0.0475309
0.0461236
0.0517958
0.0570189
0.0551937
0.058433
0.053794
0.0478874
0.0446525
0.049666
0.0542777
0.0567079
0.0554693
0.0513743
0.0461524
0.041857
0.0460346
0.0494088
0.0511177
0.0501556
0.0471569
0.0429756
0.03808
0.0416198
0.0441622
0.0453173
0.0446341
0.0423571
0.0388511
0.0419808
0.0461363
0.0491411
0.0504655
0.0496207
0.0468836
0.0427666
0.045465
0.0501872
0.053969
0.0558667
0.054868
0.0512605
0.0464818
0.0474701
0.0525976
0.0570093
0.0601777
0.0580178
0.0541442
0.0486999
0.0477881
0.0529723
0.0575431
0.06107
0.0587172
0.0546833
0.0490751
0.0463892
0.0512291
0.0552289
0.0573784
0.0565585
0.0524927
0.0474872
0.0435231
0.0477697
0.0508973
0.0523259
0.0514862
0.0485808
0.0443539
0.039494
0.0432161
0.0457597
0.0468173
0.0461124
0.0437673
0.0400706
0.0107803
0.00470734
0.0289693
0.0238457
0.019354
0.0152182
0.0110167
0.00474636
0.0434458
0.0353045
0.0289804
0.0237899
0.0192692
0.0151239
0.0109284
0.00467781
0.040557
0.0332385
0.0274739
0.0226632
0.0184239
0.0145038
0.0105032
0.00449752
0.0357884
0.0298551
0.025012
0.0208332
0.0170644
0.0135219
0.00984436
0.00425103
0.0306538
0.026221
0.0223241
0.0188013
0.0155382
0.0124107
0.0090913
0.00398677
0.0355802
0.030728
0.0262876
0.0221597
0.0182833
0.0145644
0.0106515
0.00475813
0.0398589
0.0336454
0.0283749
0.023683
0.0193788
0.0153193
0.0111336
0.0048783
0.0429773
0.0356762
0.0297498
0.0246373
0.0200352
0.0157478
0.011383
0.00492095
0.0433907
0.0358139
0.0297588
0.024587
0.0199577
0.0156601
0.0112992
0.00485287
0.0405408
0.033809
0.0282707
0.0234565
0.0191039
0.0150347
0.010873
0.00467238
0.0360992
0.0305679
0.0258383
0.0216099
0.0177207
0.0140367
0.0102075
0.00442413
0.0312783
0.0270216
0.023138
0.0195359
0.0161545
0.0128975
0.00943853
0.00415345
0.0357992
0.0312223
0.0268346
0.0226511
0.0186873
0.0148799
0.0108751
0.00486957
0.0396235
0.0339943
0.0289056
0.0242003
0.0198146
0.0156618
0.0113751
0.00499652
0.042188
0.0358202
0.030229
0.0251574
0.0204842
0.0161014
0.0116327
0.00504061
0.0424405
0.0359078
0.0302295
0.0251131
0.0204168
0.0160228
0.0115557
0.00497475
0.0400337
0.034081
0.0288044
0.0240031
0.0195729
0.0154057
0.011137
0.0047979
0.036174
0.0310585
0.0264322
0.0221641
0.0181879
0.0144085
0.0104753
0.0045527
0.0317128
0.027618
0.0237375
0.0200691
0.0166019
0.0132569
0.00970058
0.00428035
0.0360112
0.031571
0.0271932
0.0229731
0.0189683
0.0151222
0.0110657
0.00496948
0.0395687
0.0342693
0.0292692
0.0245473
0.02012
0.0159228
0.0115785
0.00510205
0.0417528
0.0359659
0.0305653
0.0255089
0.0207996
0.0163708
0.0118422
0.00514854
0.0418794
0.0360141
0.0305624
0.0254726
0.0207429
0.0163017
0.0117725
0.00508547
0.0398277
0.0343261
0.0291886
0.0243874
0.0199152
0.0156973
0.0113627
0.00491199
0.036332
0.0314385
0.0268581
0.0225626
0.0185396
0.0147087
0.0107079
0.00466981
0.0320714
0.0280544
0.0241658
0.0204585
0.0169472
0.0135544
0.00993291
0.00439691
0.0365119
0.0320079
0.0275601
0.0232889
0.0192503
0.0153753
0.0112733
0.00507955
0.0401028
0.034776
0.0297005
0.0249092
0.0204306
0.0161929
0.0117957
0.00521746
0.0422235
0.0364844
0.0310251
0.0258953
0.0211264
0.0166509
0.0120659
0.00526816
0.0422968
0.0365194
0.0310262
0.0258705
0.0210802
0.01659
0.0120017
0.00520751
0.040316
0.0348463
0.029656
0.0247882
0.0202591
0.0159923
0.0115974
0.00503501
0.0368658
0.0319481
0.0273087
0.0229546
0.0188837
0.0150077
0.0109463
0.00479353
0.0325778
0.0285177
0.0245795
0.0208295
0.0172828
0.0138517
0.0101716
0.00451915
0.0373965
0.0326494
0.028041
0.0236726
0.019575
0.0156543
0.0114967
0.00519751
0.0412824
0.0356042
0.0302936
0.0253556
0.0207875
0.0164873
0.0120262
0.00534123
0.043605
0.0374442
0.0316978
0.0263857
0.0215062
0.0169571
0.0123031
0.00539662
0.0436854
0.0375002
0.0317214
0.0263743
0.0214681
0.0169017
0.0122425
0.00533765
0.0415467
0.0357322
0.0302994
0.0252712
0.02064
0.0163033
0.0118392
0.00516393
0.0378636
0.0326904
0.027873
0.0234001
0.0192505
0.0153153
0.0111885
0.00492009
0.0333393
0.0291138
0.0250613
0.0212348
0.0176341
0.014155
0.010413
0.00464286
0.0385526
0.0334574
0.0286147
0.0240971
0.0199089
0.0159281
0.0117116
0.00531299
0.0428687
0.0366663
0.0310091
0.0258512
0.0211526
0.0167732
0.0122464
0.00546131
0.0455376
0.0387089
0.032527
0.0269402
0.0218987
0.0172554
0.0125293
0.00552023
0.0456698
0.0387993
0.03257
0.0269402
0.021867
0.0172038
0.0124712
0.0054626
0.043249
0.0368781
0.0310698
0.0257993
0.0210228
0.0166002
0.0120665
0.00528814
0.0391838
0.0336089
0.0285177
0.0238679
0.0196107
0.0156062
0.0114156
0.00504128
0.0342967
0.0298157
0.0255883
0.021649
0.0179756
0.0144423
0.0106404
0.00476104
0.0397602
0.034269
0.0291547
0.0244697
0.0201905
0.0161602
0.0119003
0.00541888
0.0445558
0.0377562
0.0316954
0.026289
0.0214563
0.0170104
0.0124356
0.00556895
0.0476226
0.040032
0.0333419
0.0274398
0.0222278
0.0175017
0.0127217
0.00563001
0.0478094
0.0401559
0.0333991
0.0274501
0.0222022
0.0174541
0.0126665
0.00557394
0.0450749
0.0380567
0.0318037
0.0262614
0.0213423
0.0168493
0.0122646
0.00540041
0.0405723
0.0345194
0.029107
0.0242666
0.0199108
0.0158551
0.0116178
0.00515404
0.0352644
0.0304815
0.0260567
0.0220015
0.0182661
0.0146942
0.0108471
0.0048736
0.0407135
0.0348385
0.0294806
0.0246782
0.0203655
0.0163363
0.0120687
0.00552135
0.0459611
0.0385746
0.0321326
0.0265314
0.0216334
0.0171814
0.0126
0.00567164
0.0493929
0.0410684
0.033889
0.0277236
0.0224162
0.0176747
0.0128867
0.00573492
0.0496395
0.041229
0.0339707
0.0277416
0.0223966
0.0176323
0.0128356
0.00568097
0.0466248
0.0389552
0.032282
0.0265286
0.0215391
0.0170362
0.0124401
0.00550915
0.0416876
0.0351621
0.0294699
0.0245034
0.0201133
0.0160553
0.0118022
0.00526433
0.0359717
0.0309167
0.0263442
0.022231
0.0184844
0.0149106
0.0110413
0.00498552
0.0412077
0.0349922
0.0295026
0.0247087
0.0204623
0.0164955
0.0122501
0.00564101
0.0469176
0.0389283
0.0322074
0.0265558
0.0217122
0.017327
0.012774
0.00579157
0.0507347
0.0416207
0.0340347
0.027764
0.0224945
0.0178181
0.0130611
0.0058584
0.051026
0.0418018
0.0341265
0.0277929
0.0224835
0.0177824
0.0130137
0.00580622
0.0476995
0.0393629
0.0323862
0.0265785
0.0216417
0.0172005
0.0126244
0.00563432
0.0422898
0.035358
0.0295257
0.0245737
0.0202479
0.016241
0.0119953
0.00538868
0.0362218
0.0310059
0.0264135
0.0223485
0.01866
0.015121
0.0112454
0.00510891
0.0410299
0.0346876
0.0292911
0.0246689
0.0205713
0.0166911
0.0124639
0.00578596
0.0470926
0.0386841
0.0319548
0.0264676
0.0217919
0.0175077
0.0129792
0.00593674
0.0512993
0.0415113
0.033796
0.0276606
0.0225636
0.0179962
0.0132668
0.00600685
0.0516515
0.0417139
0.0338938
0.0276984
0.0225604
0.0179654
0.0132208
0.00595451
0.0479475
0.0391505
0.0321639
0.0265209
0.0217456
0.0173949
0.0128336
0.0057799
0.0421484
0.03509
0.0293732
0.0245928
0.0203982
0.0164546
0.0122084
0.00552831
0.0359716
0.0308294
0.0263839
0.0224574
0.0188597
0.0153561
0.0114649
0.005244
0.040165
0.0341713
0.0291109
0.0247267
0.0207573
0.0169174
0.0126697
0.00592295
0.0460797
0.0380041
0.0316616
0.0264646
0.0219491
0.0177202
0.0131768
0.00607284
0.0504546
0.0408125
0.0334578
0.027631
0.0227107
0.018206
0.0134625
0.00614243
0.0508181
0.0410195
0.0335694
0.0276788
0.0227146
0.0181781
0.0134157
0.00608796
0.0469252
0.0384915
0.0319084
0.0265543
0.0219262
0.0176167
0.0130302
0.00591196
0.0412813
0.0346449
0.0292758
0.0247121
0.0206153
0.0166873
0.0124062
0.00565795
0.035494
0.0306655
0.0264518
0.0226578
0.0191092
0.0155983
0.0116636
0.00537014
0.0389452
0.0336352
0.0289963
0.0248262
0.0209314
0.0170852
0.0127925
0.00600194
0.0441789
0.0370938
0.0313647
0.0264836
0.0220897
0.0178739
0.0132928
0.00615021
0.0482105
0.0396552
0.0330332
0.0275964
0.0228311
0.018351
0.013572
0.00621473
0.0485525
0.0398657
0.0331575
0.0276567
0.0228423
0.0183252
0.0135245
0.00615858
0.0450297
0.0376223
0.0316613
0.0266108
0.022087
0.0177774
0.0131463
0.00598664
0.040093
0.0342043
0.0292457
0.0248626
0.0208112
0.0168612
0.0125297
0.00573788
0.0349987
0.0305852
0.0265874
0.0228737
0.0193259
0.015777
0.0117883
0.00545076
0.0376332
0.0330818
0.0288493
0.0248555
0.0210083
0.0171489
0.012821
0.00602239
0.0419004
0.0360682
0.0310008
0.0264197
0.0221285
0.0179233
0.0133178
0.00617047
0.0450647
0.0382035
0.0324806
0.027454
0.0228363
0.018384
0.0135871
0.00622853
0.045398
0.0384275
0.03262
0.0275262
0.0228535
0.0183604
0.0135406
0.00617286
0.0427724
0.036646
0.0313454
0.0265782
0.0221421
0.0178352
0.013177
0.00600991
0.0388415
0.0337451
0.0291692
0.0249326
0.0209104
0.0169419
0.0125763
0.00577216
0.0344913
0.0304816
0.0266637
0.0230024
0.0194463
0.0158664
0.0118403
0.00548967
0.0367594
0.032747
0.0287845
0.0248909
0.0210597
0.0171837
0.0128283
0.00602671
0.0402693
0.035367
0.0307752
0.0263896
0.0221553
0.0179516
0.0133276
0.00617708
0.0426528
0.0371394
0.0320965
0.0273545
0.0228307
0.0183958
0.0135886
0.00623139
0.0429848
0.0373758
0.032248
0.0274327
0.0228505
0.0183741
0.0135445
0.0061785
0.041146
0.0359776
0.0311469
0.0265626
0.0221769
0.0178714
0.0131964
0.00602504
0.0380142
0.033474
0.029149
0.0249948
0.0209832
0.0170015
0.012613
0.0057985
0.034201
0.0304551
0.0267414
0.0231014
0.0195346
0.0159345
0.0118835
0.00552161
0.0368108
0.0329659
0.0290304
0.0250982
0.0212131
0.0172879
0.0128864
0.00605213
0.0399697
0.0354552
0.0309855
0.0265929
0.0223129
0.0180626
0.0133942
0.00620499
0.0419547
0.0370661
0.0322441
0.0275315
0.0229753
0.0185005
0.0136536
0.00625987
0.0422791
0.0373064
0.0323975
0.0276091
0.0229948
0.0184807
0.0136131
0.00621194
0.0408465
0.0360783
0.0313607
0.0267642
0.0223353
0.0179901
0.0132758
0.00606652
0.0380971
0.0337207
0.0294091
0.0252119
0.0211523
0.0171313
0.0127032
0.00584852
0.0344666
0.0307453
0.0269972
0.0233082
0.0196994
0.0160653
0.0119775
0.00557665
0.0378893
0.033803
0.0296343
0.0255147
0.021498
0.0174844
0.0130122
0.0061104
0.0411706
0.0364184
0.0316827
0.0270664
0.0226302
0.0182786
0.0135327
0.00626698
0.0431597
0.0380765
0.0329824
0.028029
0.0233042
0.0187229
0.0137971
0.00632628
0.0434946
0.0383213
0.0331354
0.0281049
0.0233239
0.0187064
0.0137619
0.00628413
0.0420688
0.0370478
0.0320526
0.0272324
0.0226545
0.0182163
0.0134295
0.00614377
0.0392256
0.0345709
0.0300109
0.0256304
0.0214523
0.0173548
0.0128608
0.00592933
0.0353831
0.0314272
0.0274914
0.0236701
0.019975
0.0162811
0.0121351
0.00565927
0.0322817
0.0273064
0.0228813
0.0189436
0.0154182
0.0121719
0.0088471
0.00390058
0.0381391
0.0315045
0.0258924
0.021076
0.0168927
0.0131604
0.00947461
0.00411931
0.0437086
0.0355537
0.0287928
0.0231126
0.0182806
0.014071
0.0100356
0.0043272
0.0473713
0.0381532
0.0306555
0.0244349
0.0191939
0.0146788
0.0104166
0.00448941
0.0469563
0.0379884
0.0306561
0.0245236
0.0193161
0.0148019
0.0105207
0.00456492
0.0428216
0.0352994
0.0289332
0.0234498
0.0186797
0.0144526
0.0103513
0.00455414
0.037431
0.0316665
0.026478
0.0218206
0.0176415
0.0138261
0.00999948
0.00448331
0.0320509
0.0274128
0.0231448
0.0192675
0.0157551
0.0124892
0.00910749
0.00403946
0.0372486
0.0312723
0.0259823
0.0213098
0.0171847
0.0134595
0.00973121
0.00425979
0.041928
0.0348451
0.0286291
0.0232047
0.0184906
0.0143243
0.0102693
0.0044609
0.0449105
0.037076
0.0302897
0.0244065
0.0193266
0.0148829
0.0106215
0.00461318
0.04463
0.0369706
0.0303029
0.0244822
0.0194252
0.0149812
0.0107053
0.00468032
0.0413464
0.0346993
0.0287686
0.0234868
0.0188146
0.0146321
0.0105258
0.00466363
0.0367319
0.0314499
0.0264951
0.021939
0.0178047
0.0140042
0.0101593
0.00458314
0.0318318
0.0274132
0.0232742
0.0194779
0.0160139
0.0127621
0.00934856
0.00417084
0.0366069
0.031024
0.0259611
0.0214286
0.0173925
0.0137097
0.00996661
0.00439232
0.0407047
0.0342538
0.0283974
0.0231888
0.0186148
0.0145283
0.0104836
0.00458827
0.043181
0.0362048
0.0298876
0.0242774
0.0193755
0.01504
0.01081
0.00473259
0.0430066
0.036141
0.0299028
0.0243351
0.0194497
0.0151145
0.0108751
0.00479184
0.0403318
0.0341716
0.0285177
0.0234103
0.018865
0.0147664
0.010686
0.00476814
0.0361911
0.0311795
0.026382
0.0219318
0.0178814
0.0141381
0.0103069
0.00467818
0.0318309
0.0274934
0.0234329
0.0197065
0.0162902
0.0130525
0.00960632
0.00431068
0.0364292
0.0309698
0.0260168
0.0215859
0.0176281
0.0139833
0.010222
0.00453443
0.0402848
0.0340309
0.0283222
0.0232497
0.0187884
0.0147691
0.0107267
0.0047289
0.0425673
0.0358567
0.0297134
0.0242602
0.0194931
0.0152468
0.0110358
0.00486914
0.0424548
0.0358098
0.0297203
0.0242995
0.019545
0.0153008
0.0110857
0.00492171
0.0400113
0.0339623
0.0284056
0.0234094
0.0189713
0.0149481
0.0108854
0.00488966
0.0360242
0.0310638
0.0263322
0.0219679
0.0180013
0.0143163
0.0104942
0.00479033
0.0321077
0.0277389
0.0236948
0.0200004
0.016607
0.013367
0.00987804
0.00445337
0.0367208
0.0311679
0.0262189
0.0218338
0.0179197
0.0142902
0.0104968
0.00468308
0.0406163
0.0341866
0.0284547
0.0234369
0.0190419
0.0150589
0.0109976
0.00488055
0.0429592
0.0359959
0.0297972
0.0243983
0.0197124
0.0155172
0.0112987
0.0050201
0.0428501
0.035944
0.0297901
0.024418
0.0197453
0.0155551
0.0113375
0.00506755
0.0403354
0.0340822
0.0284832
0.0235357
0.0191694
0.0151925
0.0111244
0.00502693
0.0362346
0.0311618
0.0264228
0.0221088
0.0182024
0.0145528
0.0107203
0.00491801
0.0325859
0.0281186
0.0240391
0.0203386
0.0169432
0.0136865
0.0101483
0.00459331
0.0372927
0.0315513
0.0265383
0.022149
0.0182443
0.0146098
0.0107742
0.00483065
0.0413235
0.0345825
0.0287449
0.0237202
0.0193468
0.0153723
0.0112769
0.00503364
0.0437962
0.0364099
0.0300637
0.0246519
0.0199975
0.0158212
0.0115757
0.00517331
0.0436638
0.0363338
0.0300336
0.0246512
0.0200141
0.0158471
0.0116061
0.00521695
0.0409512
0.0344008
0.0287049
0.0237602
0.0194284
0.0154716
0.0113804
0.00516874
0.0366518
0.0314193
0.0266362
0.0223363
0.0184582
0.0148209
0.0109622
0.00505058
0.0330942
0.0285086
0.024378
0.0206639
0.0172654
0.0139941
0.0104099
0.00473156
0.0379109
0.0319666
0.0268709
0.022463
0.0185624
0.014922
0.0110449
0.00497507
0.0420583
0.0350273
0.0290699
0.0240193
0.0196552
0.0156824
0.0115513
0.00518141
0.0446189
0.0368678
0.0303768
0.0249347
0.020292
0.0161239
0.0118482
0.00532125
0.0444378
0.0367566
0.0303221
0.0249161
0.0202949
0.0161398
0.0118719
0.00536179
0.0415477
0.034752
0.0289652
0.0240115
0.0196983
0.0157527
0.0116352
0.0053071
0.0370898
0.0317176
0.0268852
0.0225862
0.0187246
0.0150922
0.0112044
0.00518064
0.0334347
0.0287701
0.0246292
0.0209364
0.0175605
0.0142913
0.0106701
0.00487194
0.0383579
0.0322491
0.0271076
0.022717
0.0188494
0.0152223
0.0113139
0.00512048
0.0426073
0.0353371
0.0292933
0.0242521
0.0199286
0.0159799
0.0118249
0.00532976
0.0451774
0.0371706
0.0305813
0.0251468
0.0205503
0.0164143
0.012121
0.00547042
0.044946
0.0370288
0.0305069
0.0251139
0.0205421
0.0164222
0.0121397
0.00550834
0.0419674
0.0349834
0.0291367
0.0242044
0.0199396
0.0160266
0.011894
0.00544764
0.0374017
0.0319203
0.0270612
0.0227876
0.0189663
0.0153579
0.0114515
0.00531367
0.0334958
0.0288443
0.0247793
0.0211703
0.0178521
0.0146001
0.010946
0.00502181
0.0384877
0.0322942
0.0272086
0.0229179
0.01913
0.0155352
0.0115999
0.00527847
0.0428666
0.0353955
0.0293635
0.0244218
0.0201942
0.0162926
0.0121184
0.00549377
0.0455126
0.0372466
0.0306359
0.0252956
0.0208031
0.0167237
0.0124176
0.005637
0.0452442
0.0370873
0.0305503
0.025253
0.0207867
0.0167262
0.0124335
0.00567352
0.0421458
0.0350036
0.029177
0.0243455
0.0201814
0.0163237
0.0121802
0.00560703
0.0374638
0.0319274
0.0271206
0.022943
0.0192086
0.0156466
0.0117275
0.00546702
0.0333333
0.0288378
0.024937
0.021448
0.0181893
0.0149402
0.011238
0.00518083
0.03827
0.0321761
0.0272839
0.0231584
0.0194626
0.0158864
0.0119065
0.00544788
0.0427635
0.035235
0.0293729
0.0246226
0.020517
0.0166519
0.0124382
0.00567424
0.0455659
0.0371056
0.0306191
0.0254736
0.0211191
0.0170879
0.012746
0.00582343
0.0452803
0.036941
0.0305274
0.0254238
0.0210976
0.0170882
0.0127624
0.00586069
0.0420148
0.0348274
0.0291623
0.0245218
0.0204879
0.016677
0.0125018
0.0057894
0.0372387
0.0317786
0.0271442
0.0231353
0.0195112
0.0159886
0.01204
0.00564249
0.0332037
0.0289736
0.0252457
0.0218362
0.0185828
0.0152902
0.0115111
0.00533268
0.0378588
0.0321469
0.0275228
0.0235349
0.0198714
0.0162586
0.0121984
0.00560887
0.0422467
0.0350788
0.0295389
0.0249783
0.0209346
0.0170434
0.0127477
0.00584329
0.0451524
0.0369258
0.0307512
0.0258144
0.0215389
0.0174899
0.0130663
0.00599743
0.0448762
0.0367624
0.0306543
0.0257582
0.0215135
0.0174896
0.013085
0.00603688
0.0415142
0.0346571
0.0293021
0.0248544
0.0208934
0.017067
0.0128167
0.00596311
0.036837
0.0316929
0.0273207
0.0234695
0.019903
0.0163631
0.012344
0.00581157
0.0331968
0.0292562
0.0256513
0.0222549
0.0189523
0.0155818
0.0117131
0.00544034
0.0374164
0.0322466
0.0278784
0.0239632
0.0202693
0.0165778
0.0124192
0.00572214
0.0413652
0.0349487
0.0298071
0.0253939
0.0213494
0.0173838
0.0129829
0.00595882
0.0440689
0.0366474
0.030947
0.0262084
0.0219561
0.0178393
0.0133088
0.00611356
0.0438036
0.0364788
0.0308385
0.026143
0.0219254
0.0178374
0.0133281
0.00615422
0.0406329
0.0344926
0.0295312
0.0252423
0.0212936
0.0174027
0.0130522
0.00608022
0.0363699
0.0317145
0.0276098
0.0238591
0.0202854
0.0166794
0.0125652
0.00592402
0.0331896
0.029524
0.0260053
0.0225906
0.0192258
0.0157809
0.0118365
0.00550227
0.0369192
0.0323303
0.0281916
0.024314
0.0205705
0.0168003
0.0125567
0.00578533
0.040158
0.0347241
0.0300146
0.0257265
0.0216609
0.0176187
0.0131264
0.00601831
0.0422342
0.0361337
0.0310392
0.0265056
0.022262
0.0180759
0.0134526
0.00616916
0.0419607
0.0359446
0.0309103
0.0264265
0.0222237
0.0180703
0.0134699
0.00620884
0.0393997
0.0342127
0.0296865
0.0255398
0.0215847
0.0176262
0.0131879
0.00613561
0.0358156
0.0317075
0.0278508
0.0241646
0.0205596
0.0168821
0.0126836
0.00597384
0.0333154
0.0298147
0.0263225
0.0228675
0.0194421
0.0159363
0.0119317
0.00554774
0.0367048
0.0325125
0.0285033
0.0246169
0.0208141
0.0169749
0.0126617
0.00582967
0.0393815
0.0346763
0.0302571
0.0260229
0.0219132
0.0178002
0.0132325
0.00605662
0.0408875
0.0358409
0.031192
0.0267754
0.0225086
0.0182556
0.0135555
0.0062017
0.0406013
0.0356285
0.0310425
0.0266842
0.0224642
0.0182467
0.0135702
0.00623908
0.0385922
0.03411
0.0298825
0.0258063
0.0218193
0.0177952
0.0132831
0.00616602
0.0355323
0.031805
0.0280976
0.0244246
0.0207722
0.0170285
0.0127605
0.00599851
0.0338674
0.0303276
0.0267478
0.0231991
0.019693
0.0161202
0.0120519
0.0056069
0.0372023
0.033072
0.0289973
0.0250048
0.0211012
0.0171783
0.0127898
0.0058858
0.0396593
0.0351961
0.0307772
0.0264458
0.0222242
0.0180142
0.0133617
0.00610653
0.0409024
0.0362753
0.0316976
0.0272054
0.0228279
0.0184733
0.0136836
0.00624607
0.0406079
0.036047
0.0315388
0.0271097
0.0227813
0.0184625
0.0136955
0.00627994
0.0388403
0.0345907
0.0303759
0.0262148
0.0221216
0.0180012
0.0134024
0.00620626
0.03596
0.032303
0.0285515
0.0247863
0.0210368
0.0172076
0.0128618
0.00603577
0.0349514
0.0311444
0.0273436
0.0236299
0.0200078
0.0163513
0.0122083
0.00568019
0.038567
0.0341103
0.0297429
0.0255245
0.0214621
0.0174291
0.0129511
0.00595743
0.041195
0.0364098
0.0316553
0.0270472
0.0226268
0.0182814
0.0135253
0.00617467
0.0424867
0.0375704
0.0326469
0.0278558
0.0232565
0.0187499
0.0138468
0.0063106
0.0421763
0.0373304
0.032484
0.0277577
0.0232084
0.018737
0.0138553
0.00634044
0.0403308
0.0357735
0.0312414
0.0268117
0.0225197
0.0182607
0.0135551
0.00626387
0.0372396
0.0332995
0.0292801
0.0252952
0.0213829
0.0174378
0.0129993
0.00608968
0.0374711
0.0317396
0.0265828
0.0219433
0.0177643
0.0139341
0.0100821
0.00451996
0.0433132
0.0359001
0.0296023
0.0241317
0.0193104
0.0149795
0.0107415
0.00473184
0.0480707
0.0392191
0.0319667
0.0258335
0.0205178
0.0158009
0.0112593
0.00490625
0.0493625
0.0401283
0.0326564
0.0263871
0.0209607
0.0161389
0.0114927
0.00498949
0.0462777
0.0381486
0.0314083
0.0256311
0.0205368
0.0159321
0.0114113
0.0049717
0.0411418
0.0346034
0.0289918
0.0240145
0.0195008
0.0153121
0.0110742
0.00487498
0.0356866
0.0307665
0.0262705
0.0221039
0.0182048
0.0144792
0.0105762
0.00472662
0.0368266
0.0315709
0.0266377
0.0220867
0.017941
0.0141171
0.0102415
0.00461848
0.0420532
0.0354899
0.0295919
0.0242733
0.019499
0.0151747
0.0109097
0.00483198
0.0460968
0.0385253
0.0318829
0.0259814
0.0207266
0.0160114
0.0114353
0.00500518
0.0474186
0.0394875
0.0326517
0.0266076
0.0212232
0.0163829
0.011686
0.00509239
0.0449681
0.0378979
0.0316289
0.0259838
0.0208811
0.0162256
0.011632
0.00508419
0.0407232
0.0348088
0.0294274
0.0244717
0.0199008
0.015637
0.0113117
0.00499502
0.0358754
0.0312397
0.0268061
0.0225916
0.0186109
0.014801
0.0108076
0.00484431
0.0363314
0.0313413
0.0265542
0.0220978
0.0180259
0.0142525
0.0103872
0.00471213
0.041224
0.0351276
0.029467
0.0242716
0.0195804
0.0153118
0.011059
0.00492745
0.0447453
0.0379699
0.0317106
0.0259744
0.02081
0.0161516
0.0115873
0.0051004
0.0458938
0.0389423
0.0325416
0.026663
0.0213512
0.0165505
0.0118527
0.00519182
0.0441122
0.0377082
0.0317231
0.0261662
0.0210878
0.016438
0.0118205
0.00519
0.0405315
0.0349673
0.0297043
0.0247586
0.0201704
0.0158834
0.0115147
0.00510461
0.0360613
0.0315701
0.0271548
0.0229099
0.018894
0.0150489
0.0110054
0.00495042
0.0362132
0.0312637
0.0265298
0.0221477
0.018152
0.0144317
0.0105724
0.00482345
0.0410955
0.0350783
0.02946
0.024325
0.0197056
0.0154921
0.011248
0.00504299
0.0445548
0.0379571
0.0317476
0.0260556
0.0209505
0.016342
0.0117838
0.00521972
0.0457426
0.0390215
0.0326662
0.0268101
0.0215345
0.0167659
0.0120627
0.00531677
0.0442786
0.0379836
0.031984
0.0264067
0.0213299
0.0166843
0.0120426
0.00531697
0.0409502
0.0353738
0.0300527
0.0250623
0.020452
0.0161475
0.0117396
0.00522863
0.036545
0.0319935
0.0275142
0.0232249
0.0191812
0.0153103
0.0112219
0.00506788
0.0364796
0.0314009
0.026644
0.0223
0.018356
0.0146668
0.0107953
0.0049483
0.0416649
0.0353775
0.0296436
0.0245
0.0199155
0.0157309
0.0114754
0.0051725
0.0454674
0.0384771
0.0320518
0.0262899
0.0211891
0.0165961
0.0120204
0.00535395
0.0468645
0.0397143
0.0330927
0.0271207
0.0218167
0.0170433
0.012311
0.00545545
0.045492
0.0387653
0.0324925
0.0267812
0.0216509
0.0169788
0.0122943
0.00545415
0.0420459
0.0361153
0.0305707
0.0254592
0.0207881
0.0164443
0.0119847
0.00535923
0.0374179
0.0326256
0.0279892
0.0236078
0.0195094
0.0155965
0.0114538
0.00518913
0.0369541
0.0316952
0.0268783
0.022537
0.0186133
0.0149317
0.0110325
0.00507615
0.0425469
0.0358782
0.0299691
0.024771
0.0201834
0.0160006
0.0117176
0.00530437
0.0468719
0.0392795