/*--------------------------------*- C++ -*----------------------------------*\
| =========                 |                                                 |
| \\      /  F ield         | OpenFOAM: The Open Source CFD Toolbox           |
|  \\    /   O peration     | Version:  plus.master.MPPICInterFoam            |
|   \\  /    A nd           | Web:      www.OpenFOAM.com                      |
|    \\/     M anipulation  |                                                 |
\*---------------------------------------------------------------------------*/
FoamFile
{
    version     2.0;
    format      ascii;
    class       volVectorField;
    location    "5.8";
    object      U;
}
// * * * * * * * * * * * * * * * * * * * * * * * * * * * * * * * * * * * * * //

dimensions      [0 1 -1 0 0 0 0];

internalField   nonuniform List<vector> 
11821
(
(0.00296729 -0.00436798 0.539533)
(0.000651542 -0.00771983 0.570797)
(0.00472436 -0.00231689 0.476746)
(0.00441663 -0.00332475 0.521112)
(0.00476682 -0.00160576 0.469183)
(0.00600996 0.000480182 0.409424)
(-0.0208926 -0.0216087 0.492494)
(-0.0152297 -0.0299439 0.57649)
(-0.00484529 -0.0354062 0.653009)
(0.00641201 -0.0344182 0.672532)
(0.0164282 -0.0328199 0.621439)
(0.0236758 -0.0246592 0.541442)
(0.0249279 -0.0174239 0.467813)
(-0.0286936 -0.0167225 0.562652)
(-0.0201491 -0.022159 0.72878)
(-0.00238095 -0.0196823 0.905431)
(0.00745579 -0.0131066 0.94989)
(0.0191617 -0.0223104 0.822246)
(0.0311514 -0.0188186 0.63995)
(0.032488 -0.0137529 0.520571)
(-0.033049 -0.00808351 0.618251)
(-0.016191 -0.00943175 0.873292)
(0.0127972 -0.00458302 1.1334)
(0.00464695 -0.0027053 1.19581)
(0.0069339 -0.00568068 1.06933)
(0.0325719 -0.0093461 0.73254)
(0.0367921 -0.00712569 0.557875)
(-0.0334841 0.00269633 0.619808)
(-0.0180278 0.00173729 0.870073)
(0.00755516 -0.00803937 1.14393)
(0.013083 -0.00999792 1.22065)
(0.0200241 -0.00237276 1.0994)
(0.0338897 0.000596059 0.750539)
(0.0375534 0.0012644 0.561425)
(-0.0300472 0.0133469 0.561768)
(-0.0220869 0.0170112 0.734985)
(-0.00338145 0.0115893 0.938249)
(0.0102659 0.0110362 1.02552)
(0.0219107 0.0129605 0.873304)
(0.032434 0.0126453 0.656874)
(0.0337625 0.00953074 0.523374)
(-0.0216873 0.0196028 0.486837)
(-0.0161014 0.0264391 0.576071)
(-0.00534276 0.0303771 0.664417)
(0.00701871 0.0304211 0.696114)
(0.0181924 0.0272543 0.637366)
(0.0249792 0.02046 0.545145)
(0.0260301 0.0144922 0.466744)
(-0.0148652 0.0202627 0.416287)
(-0.010863 0.0267254 0.471189)
(-0.00354257 0.0314116 0.513611)
(0.00579031 0.0319897 0.527465)
(0.0139712 0.0283561 0.503548)
(0.0186252 0.0214265 0.458567)
(0.0193915 0.0156069 0.406892)
(-0.0271598 -0.0269103 0.491798)
(-0.0242002 -0.040538 0.554357)
(-0.0125523 -0.0532097 0.605336)
(0.00712383 -0.0569262 0.621221)
(0.0242663 -0.0488013 0.588567)
(0.031213 -0.0339225 0.535791)
(0.0297368 -0.0218977 0.475863)
(-0.0400989 -0.0233603 0.542439)
(-0.0380638 -0.0372685 0.633063)
(-0.0219297 -0.0524705 0.746568)
(0.0101749 -0.0578537 0.794061)
(0.0366371 -0.048544 0.693195)
(0.0460896 -0.031884 0.596085)
(0.0416955 -0.0193331 0.520105)
(-0.050648 -0.0112125 0.577347)
(-0.0507182 -0.0189143 0.719276)
(-0.0289406 -0.0275724 0.988191)
(0.0137149 -0.036162 1.163)
(0.0481953 -0.0293791 0.850162)
(0.0583747 -0.0180851 0.649331)
(0.0515324 -0.0104208 0.548197)
(-0.0510257 0.00654943 0.576166)
(-0.0499094 0.0107455 0.71227)
(-0.027914 0.0142973 0.943452)
(0.01302 0.011788 1.11505)
(0.0522506 0.0134703 0.912169)
(0.060378 0.00689527 0.660225)
(0.0530994 0.0039546 0.549)
(-0.0420191 0.0203178 0.537608)
(-0.0410805 0.0316512 0.628567)
(-0.0252328 0.0427091 0.751438)
(0.00947041 0.0486627 0.838859)
(0.0406107 0.0416685 0.722481)
(0.0490227 0.0260168 0.59962)
(0.0440301 0.0157022 0.518242)
(-0.0283077 0.0253224 0.482678)
(-0.0262201 0.0380401 0.544689)
(-0.0145459 0.0496126 0.5978)
(0.00710248 0.0537322 0.620516)
(0.0265601 0.0457165 0.584924)
(0.0340456 0.0312939 0.530218)
(0.0317989 0.0198797 0.471199)
(-0.0180925 0.0237581 0.421796)
(-0.0153099 0.0332977 0.469796)
(-0.00741676 0.0422311 0.504424)
(0.00577406 0.04543 0.516377)
(0.0175264 0.0388703 0.498519)
(0.0225443 0.0279317 0.462527)
(0.0221961 0.0192508 0.416506)
(-0.01309 -0.0135341 0.497712)
(-0.0120818 -0.0204559 0.556724)
(-0.00696889 -0.0288373 0.598618)
(0.00479867 -0.0331099 0.61165)
(0.0149006 -0.0251817 0.588675)
(0.0171364 -0.0164014 0.544043)
(0.0158845 -0.01049 0.486674)
(-0.0196033 -0.0125485 0.544621)
(-0.0208375 -0.0212584 0.614108)
(-0.0152027 -0.0351782 0.67504)
(0.00622335 -0.044186 0.695335)
(0.0237677 -0.0306345 0.652579)
(0.0259184 -0.0177138 0.595458)
(0.0217071 -0.00996399 0.5294)
(-0.0266134 -0.00657771 0.571443)
(-0.0327253 -0.0120978 0.655008)
(-0.0251891 -0.0193263 0.723658)
(0.00850056 -0.0299098 0.807181)
(0.0336414 -0.0198275 0.687429)
(0.036076 -0.0114901 0.625029)
(0.0276727 -0.00603206 0.553295)
(-0.0271159 0.00340624 0.569659)
(-0.0328059 0.00612188 0.650444)
(-0.0280578 0.010927 0.723279)
(0.00512704 0.0157914 0.829214)
(0.0351302 0.00630805 0.692953)
(0.0378616 0.00308566 0.623783)
(0.0288931 0.00168912 0.552024)
(-0.0201308 0.0105966 0.537285)
(-0.0224258 0.0174964 0.605104)
(-0.0168291 0.0268084 0.656437)
(0.00499322 0.0327903 0.675304)
(0.0249357 0.0238668 0.639922)
(0.0276162 0.0133089 0.587962)
(0.0227664 0.00753395 0.524774)
(-0.01276 0.0124441 0.486919)
(-0.012424 0.0187119 0.543493)
(-0.00749499 0.0263984 0.582872)
(0.00515768 0.0310692 0.596069)
(0.0161985 0.023299 0.575484)
(0.0185568 0.0143997 0.534451)
(0.0165187 0.00902215 0.48024)
(-0.00807336 0.0117495 0.427774)
(-0.00653391 0.0156834 0.474422)
(-0.002706 0.0201301 0.506512)
(0.00452535 0.0223283 0.517286)
(0.0107333 0.0178521 0.503258)
(0.0125841 0.0123929 0.470618)
(0.0119824 0.00884989 0.425688)
(0.00215533 0.000575679 0.4953)
(0.00354234 0.00215976 0.556682)
(0.00322326 0.00404443 0.600338)
(0.00280777 0.00560267 0.613761)
(0.00184362 0.00571409 0.592976)
(0.00069003 0.00381855 0.547665)
(0.00093282 0.00209281 0.48889)
(0.0037367 0.000210554 0.543081)
(0.00521723 0.00106798 0.618284)
(0.00227388 0.000144146 0.680916)
(0.00146383 -0.0035795 0.699369)
(0.000930872 0.00193815 0.661002)
(-0.001186 0.00184942 0.601381)
(-0.000563391 0.00107388 0.532853)
(0.00471316 -0.00050607 0.569573)
(0.00583356 -0.00107393 0.658987)
(-0.000322099 -0.00247423 0.722824)
(0.00201334 -0.00751678 0.744557)
(0.0050384 -0.00389712 0.687071)
(-0.00120268 -0.00149845 0.630669)
(-0.00111321 -0.000645886 0.556782)
(0.00466301 -0.000843289 0.566214)
(0.00599645 -0.00217281 0.649057)
(-0.00295832 -0.00227335 0.708771)
(0.000937782 -0.00327066 0.72801)
(0.00638914 -0.00465854 0.687897)
(0.000441022 -0.00313025 0.628056)
(-0.000531384 -0.00179158 0.554643)
(0.00435028 -0.0010252 0.534188)
(0.00562546 -0.00310545 0.60501)
(0.00262336 -0.0044605 0.657508)
(0.00301953 -0.00100406 0.67108)
(0.00309779 -0.00493384 0.647501)
(-0.000246829 -0.00441024 0.592774)
(-0.000328933 -0.0026132 0.527264)
(0.00324697 -0.000799674 0.484036)
(0.00427238 -0.00313332 0.541442)
(0.00370892 -0.00485605 0.581818)
(0.00374035 -0.00474417 0.595414)
(0.00303831 -0.00636389 0.577669)
(0.00121701 -0.00505379 0.536695)
(0.000755772 -0.00292175 0.481888)
(0.00217568 -0.000105539 0.42532)
(0.00303751 -0.00187909 0.471811)
(0.0033182 -0.00329509 0.503977)
(0.00351699 -0.00390311 0.515296)
(0.00311052 -0.00456917 0.502948)
(0.00208118 -0.00374319 0.471231)
(0.00144126 -0.00214544 0.426522)
(0.00876126 0.00667012 0.486381)
(0.0109389 0.0115692 0.551243)
(0.00925163 0.0174666 0.601008)
(0.00309021 0.0231074 0.617545)
(-0.00380811 0.0198312 0.59556)
(-0.00664648 0.0135313 0.546488)
(-0.00588582 0.00831869 0.484971)
(0.0132923 0.00614167 0.535874)
(0.0171529 0.0116643 0.621445)
(0.0112313 0.0181488 0.714729)
(0.0010053 0.0233243 0.764943)
(-0.00807235 0.0199608 0.68909)
(-0.0135412 0.0124645 0.609156)
(-0.0106859 0.00688513 0.531822)
(0.0176592 0.00292424 0.563786)
(0.0252192 0.00576223 0.669468)
(0.0158026 0.00921653 0.782479)
(0.00380784 0.0102309 0.785146)
(-0.0088784 0.00709142 0.75494)
(-0.0199805 0.00458674 0.646193)
(-0.014702 0.00237449 0.558152)
(0.018201 -0.00221442 0.560358)
(0.0260502 -0.00506204 0.658751)
(0.0184386 -0.00818543 0.797016)
(0.00385709 -0.00688223 0.746742)
(-0.00892034 -0.009274 0.727721)
(-0.0184926 -0.00628822 0.641355)
(-0.0141691 -0.00355738 0.555885)
(0.0145921 -0.00586417 0.527047)
(0.019257 -0.0122228 0.606915)
(0.0145962 -0.0193853 0.677178)
(0.0034846 -0.0201736 0.697977)
(-0.0077221 -0.0202264 0.667836)
(-0.0130706 -0.0134535 0.599533)
(-0.0106528 -0.00767924 0.526384)
(0.0100659 -0.00627865 0.475945)
(0.0118902 -0.0120963 0.53611)
(0.00959028 -0.0181274 0.580978)
(0.00360026 -0.0217221 0.596991)
(-0.00288596 -0.0195219 0.579132)
(-0.00640826 -0.0139639 0.535759)
(-0.00631493 -0.0085121 0.478613)
(0.00675906 -0.00512348 0.417657)
(0.00744403 -0.0090545 0.464343)
(0.00637496 -0.012908 0.497661)
(0.00325431 -0.0151541 0.510195)
(-0.000358062 -0.0140497 0.498517)
(-0.00265393 -0.0108697 0.466821)
(-0.00344079 -0.0071944 0.422114)
(0.00745195 0.00554095 0.475927)
(0.00999719 0.00966894 0.543011)
(0.00963215 0.0142034 0.5995)
(0.004151 0.0205647 0.621653)
(-0.00257088 0.0166112 0.597827)
(-0.00490401 0.0122265 0.54364)
(-0.0045312 0.00750794 0.479782)
(0.0109474 0.00536088 0.526095)
(0.0156237 0.0108671 0.621807)
(0.0137563 0.018478 0.742352)
(0.00404852 0.0287232 0.786513)
(-0.00651711 0.0204451 0.728219)
(-0.011089 0.012714 0.619344)
(-0.00854732 0.00671144 0.529241)
(0.0144047 0.00264073 0.555367)
(0.0239341 0.00562447 0.680585)
(0.0243959 0.0143202 0.890419)
(0.00641201 0.0188986 0.858716)
(-0.0142303 0.016246 0.872358)
(-0.0184346 0.00595814 0.67083)
(-0.0122539 0.00270787 0.558482)
(0.0137922 -0.00160905 0.55246)
(0.021487 -0.00399522 0.674614)
(0.0275087 -0.00546949 0.880575)
(0.00885066 -0.00375079 0.892817)
(-0.0130216 -0.0059544 0.842101)
(-0.0170411 -0.00555595 0.672356)
(-0.0115823 -0.00305596 0.556808)
(0.0116348 -0.0041391 0.518519)
(0.0166116 -0.00946836 0.608949)
(0.0170662 -0.0156534 0.715051)
(0.00589391 -0.0256463 0.766659)
(-0.00792635 -0.0196817 0.710688)
(-0.0109957 -0.0125488 0.611017)
(-0.00864043 -0.00676945 0.524799)
(0.00848259 -0.00450016 0.467209)
(0.0106452 -0.0091837 0.529958)
(0.00997535 -0.0138656 0.581761)
(0.0043001 -0.0192566 0.603305)
(-0.00232086 -0.0161337 0.583222)
(-0.00523416 -0.0120656 0.534565)
(-0.00519422 -0.00733719 0.474587)
(0.00590096 -0.00384421 0.409896)
(0.00675533 -0.00696625 0.456535)
(0.00632739 -0.010178 0.491042)
(0.00350702 -0.0128639 0.504982)
(-4.68232e-05 -0.0117553 0.493775)
(-0.0020757 -0.00926985 0.461886)
(-0.00293791 -0.00617584 0.417228)
(0.00227812 0.00100105 0.468405)
(0.00432941 0.0019031 0.534814)
(0.00615385 0.00265078 0.593073)
(0.004694 0.0064995 0.619178)
(0.00189888 0.00498368 0.595509)
(0.00103714 0.00457496 0.541433)
(0.000503565 0.00303118 0.477734)
(0.00252149 0.00103906 0.517547)
(0.00564266 0.00277317 0.614363)
(0.0105823 0.00685481 0.74485)
(0.00669502 0.0164824 0.807751)
(-0.000445154 0.00868209 0.736631)
(-0.000486647 0.00540741 0.62128)
(-0.000103387 0.0027413 0.528471)
(0.00256458 0.000661188 0.546922)
(0.00824604 0.00161656 0.676801)
(0.0196469 0.0062859 0.904356)
(0.00900882 0.0126458 0.984848)
(-0.00758983 0.00757958 0.896995)
(-0.00312263 0.00252576 0.683068)
(-0.000807799 0.000942387 0.558989)
(0.00186042 0.000372426 0.54457)
(0.00549964 -0.000519222 0.670465)
(0.0128344 -0.00117129 0.895231)
(0.0114846 -0.00633128 1.08022)
(-0.000197345 -0.00272239 0.919618)
(-0.00102173 -0.00252606 0.683065)
(-2.68185e-05 -0.00116659 0.557712)
(0.00300201 0.000421985 0.51174)
(0.00597584 -0.000919942 0.60352)
(0.010253 -0.0034178 0.71634)
(0.00662883 -0.0122596 0.780633)
(2.91842e-05 -0.00658097 0.720006)
(-0.000546292 -0.00455459 0.61426)
(-0.000341073 -0.00224778 0.524829)
(0.00324952 2.08725e-08 0.461752)
(0.00475052 -0.00111063 0.524824)
(0.00612541 -0.00209516 0.578941)
(0.00467473 -0.00486996 0.604452)
(0.00181305 -0.00431056 0.584099)
(0.000596464 -0.00417669 0.534235)
(-0.000169036 -0.00266471 0.473697)
(0.00272115 -0.000261117 0.405736)
(0.00354822 -0.00124332 0.45218)
(0.0041358 -0.00205244 0.487284)
(0.00352343 -0.00359907 0.502072)
(0.00208873 -0.00359665 0.491699)
(0.000962818 -0.00343539 0.460219)
(-5.18376e-05 -0.00229229 0.415642)
(0.000463554 -0.000435418 0.466123)
(0.00161257 -0.00122769 0.531137)
(0.00369893 -0.00276713 0.587226)
(0.00474657 -0.00169814 0.615347)
(0.00439815 -0.00051228 0.595588)
(0.00352297 0.00143537 0.544283)
(0.00193278 0.00135878 0.480609)
(-0.000732558 -0.000873474 0.514111)
(0.000156005 -0.0016662 0.602454)
(0.00459927 -0.00198314 0.70989)
(0.00683498 0.00255397 0.788597)
(0.00542679 -0.000589384 0.728336)
(0.00525516 0.000935491 0.623853)
(0.00297069 0.000823889 0.533001)
(-0.00261841 -0.00015317 0.542824)
(-0.00217183 -0.000524153 0.655832)
(0.00437608 -0.000110903 0.877568)
(0.00747929 0.000788873 1.07084)
(0.00406491 0.0001067 0.911586)
(0.00801405 0.000206514 0.686918)
(0.00446574 0.000220689 0.565429)
(-0.00262492 0.00143869 0.541306)
(-0.00266261 0.00211514 0.653844)
(0.00120682 0.00356755 0.875496)
(0.00692711 0.000961903 1.06429)
(0.00787365 0.00160633 0.928205)
(0.00854761 5.81407e-05 0.687565)
(0.0047257 0.000138769 0.564509)
(0.000128249 0.00205389 0.51006)
(0.000822199 0.00310483 0.596747)
(0.00434148 0.00437171 0.701086)
(0.00642644 0.00159665 0.772685)
(0.00551293 0.00268989 0.717896)
(0.00504048 0.000123439 0.619138)
(0.00237839 -0.000144877 0.530439)
(0.00157033 0.00123116 0.461146)
(0.00224328 0.00162931 0.524303)
(0.00361783 0.00312113 0.578808)
(0.00459785 0.00269635 0.605993)
(0.00428804 0.00131826 0.588309)
(0.00307204 -0.00114231 0.539307)
(0.00113446 -0.000997233 0.477733)
(0.0016798 0.000537245 0.405268)
(0.00222348 0.000319353 0.452406)
(0.00292084 0.000716049 0.488694)
(0.00333268 0.000289403 0.504821)
(0.00292788 -0.000620314 0.495245)
(0.00183692 -0.00163509 0.463486)
(0.00047165 -0.0010556 0.417672)
(0.00562966 0.00405798 0.46429)
(0.00721531 0.00605775 0.531606)
(0.00716197 0.00701096 0.589602)
(0.00511271 0.00793299 0.619192)
(0.00146282 0.0095913 0.601736)
(-0.00235409 0.00974067 0.550356)
(-0.00429314 0.00632054 0.483305)
(0.00722814 0.0025747 0.513724)
(0.00869292 0.00381455 0.60318)
(0.00946117 0.00454271 0.704796)
(0.00763715 0.00747555 0.777029)
(0.00247086 0.0057845 0.731846)
(-0.00234953 0.00769409 0.632549)
(-0.00647519 0.00505158 0.539749)
(0.00686732 0.00117134 0.543511)
(0.00694287 0.00153914 0.652521)
(0.00937176 0.00267661 0.832665)
(0.00688209 0.0070882 1.04196)
(0.00197907 0.00304179 0.864276)
(0.00162011 0.00289388 0.694108)
(-0.00676648 0.00204568 0.575156)
(0.00702219 3.71499e-05 0.542453)
(0.00688149 -1.12043e-05 0.651158)
(0.00840322 -3.26936e-06 0.832912)
(0.00696123 0.00436453 1.04708)
(0.00301655 -0.000855504 0.877384)
(0.00157268 -0.00237368 0.695173)
(-0.0065484 -0.00133205 0.574601)
(0.00792755 -0.00156413 0.510847)
(0.00924728 -0.00266115 0.599453)
(0.00940168 -0.00247727 0.700739)
(0.00805636 -0.00292322 0.770128)
(0.00300647 -0.00286143 0.725484)
(-0.00261731 -0.00619985 0.630886)
(-0.00725445 -0.00422867 0.538403)
(0.00665269 -0.00304153 0.460683)
(0.00789114 -0.00551271 0.526922)
(0.00739385 -0.00633898 0.584082)
(0.00526432 -0.00642695 0.613523)
(0.00134564 -0.0087749 0.597805)
(-0.00308099 -0.0095039 0.547846)
(-0.00542456 -0.00577067 0.481891)
(0.00456108 -0.00310907 0.403538)
(0.00510499 -0.00551628 0.452575)
(0.00473166 -0.00724439 0.491472)
(0.00324862 -0.00841162 0.509746)
(0.000745712 -0.00912246 0.500402)
(-0.00189171 -0.00810681 0.466593)
(-0.0034563 -0.00487173 0.417948)
(0.0107775 0.00882527 0.454117)
(0.0146576 0.0160926 0.526523)
(0.0131856 0.0225393 0.593915)
(0.00514281 0.0248642 0.631543)
(-0.00542167 0.0254748 0.614091)
(-0.011627 0.0199668 0.552736)
(-0.0109088 0.0111126 0.476089)
(0.0169394 0.00725339 0.506035)
(0.0224846 0.0141234 0.606348)
(0.0194573 0.0181542 0.717884)
(0.00808839 0.0201082 0.798015)
(-0.00740976 0.0203798 0.772159)
(-0.018244 0.0184564 0.66018)
(-0.0182982 0.0101395 0.540727)
(0.0199641 0.00322232 0.538034)
(0.0234386 0.00615817 0.659621)
(0.0216259 0.00934233 0.853868)
(0.00798781 0.0134431 1.07602)
(-0.00790497 0.00961136 0.909596)
(-0.0175831 0.00829273 0.759202)
(-0.0222023 0.00463332 0.586435)
(0.0201375 -0.00197533 0.537371)
(0.0235566 -0.00436618 0.659284)
(0.0217866 -0.00611596 0.858011)
(0.00854725 -0.0065723 1.07867)
(-0.00768502 -0.00645825 0.910592)
(-0.0176464 -0.00607083 0.747373)
(-0.0224496 -0.00333542 0.586446)
(0.0174939 -0.00621799 0.504235)
(0.0231152 -0.0129468 0.605131)
(0.0198873 -0.0163118 0.718453)
(0.00854215 -0.016755 0.798286)
(-0.00738959 -0.0181527 0.774814)
(-0.0190601 -0.0176058 0.665441)
(-0.0192837 -0.00928492 0.541354)
(0.0117771 -0.00746981 0.451812)
(0.0157095 -0.0154194 0.52411)
(0.0139264 -0.0219736 0.5929)
(0.00540017 -0.0241925 0.63407)
(-0.00600539 -0.0254476 0.617071)
(-0.0130771 -0.0202636 0.554348)
(-0.0125243 -0.0104286 0.47646)
(0.00664027 -0.00586987 0.394281)
(0.00795392 -0.0114601 0.444201)
(0.00685987 -0.0170128 0.486243)
(0.00261899 -0.0200418 0.507319)
(-0.00283835 -0.0192479 0.497298)
(-0.00639207 -0.014178 0.460162)
(-0.00678674 -0.0074649 0.408967)
(0.000122375 0.00142257 0.435336)
(0.00480617 0.00644611 0.509287)
(0.00696741 0.0126814 0.598774)
(0.00203209 0.016836 0.662836)
(-0.0055125 0.0141436 0.628022)
(-0.00565005 0.00627311 0.539067)
(-0.000715392 0.00120824 0.455377)
(0.00333198 0.00264735 0.486881)
(0.0120661 0.00964101 0.615957)
(0.0160878 0.0171474 0.804636)
(0.00361453 0.0181651 0.913226)
(-0.0129781 0.0221854 0.881633)
(-0.0147801 0.0116777 0.692635)
(-0.00438788 0.00344179 0.52386)
(0.00514068 0.0016765 0.521753)
(0.0153491 0.00534843 0.70448)
(0.0172141 0.00850147 0.9574)
(0.00524822 0.012917 1.18273)
(-0.0106457 0.00985342 1.01264)
(-0.0221275 0.00724363 0.821046)
(-0.00780107 0.00254495 0.579621)
(0.00512557 -0.000538647 0.521265)
(0.0152197 -0.0040056 0.704833)
(0.0173511 -0.0067276 0.962361)
(0.00618228 -0.0107704 1.19027)
(-0.0109976 -0.00855208 1.02376)
(-0.0221363 -0.00523401 0.834581)
(-0.00836564 -0.0010729 0.581452)
(0.00347748 -0.00147397 0.485562)
(0.0121623 -0.00852846 0.616255)
(0.0162327 -0.0159901 0.811041)
(0.00390186 -0.0163243 0.92513)
(-0.0132631 -0.0221143 0.894782)
(-0.0160429 -0.0118579 0.702381)
(-0.00499781 -0.00258633 0.525973)
(0.000723097 -1.82829e-05 0.433748)
(0.00544317 -0.00571279 0.508584)
(0.00762634 -0.012496 0.60289)
(0.00241148 -0.0173064 0.672481)
(-0.00589755 -0.0150469 0.63714)
(-0.00666211 -0.00657383 0.543412)
(-0.00177485 -0.000410507 0.456411)
(-0.00131419 0.00232324 0.380639)
(0.00068709 -0.000561292 0.426662)
(0.00169101 -0.00353891 0.468207)
(0.00034329 -0.0050521 0.490597)
(-0.00171816 -0.00376951 0.479124)
(-0.00156323 -0.00027226 0.441323)
(0.000758415 0.00286295 0.393062)
(-0.0232635 -0.0165912 0.423921)
(-0.0213304 -0.0226266 0.484586)
(-0.0142545 -0.0287272 0.560553)
(-0.00414322 -0.029753 0.621734)
(0.00735611 -0.0318947 0.5856)
(0.0179256 -0.0279509 0.507086)
(0.0233334 -0.0202795 0.438587)
(-0.0305947 -0.0115998 0.468245)
(-0.0289105 -0.0156194 0.576067)
(-0.0183872 -0.0173403 0.779403)
(-0.00721673 -0.0152395 0.952708)
(0.00595558 -0.016796 0.856845)
(0.0240307 -0.0203574 0.641088)
(0.0315279 -0.0144461 0.49514)
(-0.0346034 -0.00383749 0.499975)
(-0.0315656 -0.00506222 0.668088)
(-0.0173927 -0.00248903 0.996065)
(-0.00712264 0.000356892 1.22838)
(0.00332963 -0.00210854 1.13242)
(0.0206673 -0.00679191 0.785601)
(0.035672 -0.00479736 0.544495)
(-0.0345127 0.00506718 0.499459)
(-0.0316893 0.00583136 0.668273)
(-0.0177963 0.00258329 0.996799)
(-0.00717477 3.66467e-05 1.23151)
(0.000988217 0.000177488 1.14593)
(0.0199609 0.00684837 0.790997)
(0.0354386 0.00615438 0.545762)
(-0.0304612 0.0130218 0.466995)
(-0.0291292 0.0164366 0.576312)
(-0.0185619 0.0177351 0.785514)
(-0.00772989 0.0152599 0.956736)
(0.00485562 0.0159289 0.88015)
(0.0237434 0.0207689 0.650913)
(0.0314646 0.0156854 0.496514)
(-0.0229601 0.0176932 0.42225)
(-0.0213059 0.0231701 0.483862)
(-0.014121 0.0286948 0.563969)
(-0.00398052 0.0291476 0.629705)
(0.00778054 0.0315195 0.593486)
(0.0182178 0.0283124 0.510211)
(0.0234124 0.0212091 0.438696)
(-0.0162104 0.01836 0.37707)
(-0.0148455 0.0237702 0.415872)
(-0.0100269 0.0293997 0.451321)
(-0.00265044 0.0322083 0.471188)
(0.00562655 0.0322919 0.460504)
(0.0126093 0.0281787 0.42709)
(0.0163239 0.0217705 0.3864)
(-0.0325726 -0.0244317 0.428222)
(-0.0338202 -0.0372136 0.472418)
(-0.02599 -0.0519986 0.517257)
(-0.00563617 -0.0601882 0.552525)
(0.0180914 -0.0567713 0.528037)
(0.0309191 -0.043351 0.483802)
(0.0330163 -0.0285303 0.438127)
(-0.0462236 -0.0193755 0.462331)
(-0.0510093 -0.0317677 0.527677)
(-0.0433307 -0.0478388 0.644061)
(-0.0118505 -0.0564194 0.801812)
(0.0313405 -0.053657 0.681768)
(0.0476249 -0.0377366 0.548029)
(0.0482485 -0.023322 0.476507)
(-0.055819 -0.0073173 0.486145)
(-0.0628757 -0.0133644 0.585943)
(-0.0564664 -0.0223992 0.864391)
(-0.0191462 -0.0173203 1.08184)
(0.034887 -0.0257342 0.951477)
(0.058531 -0.0167274 0.628849)
(0.0585647 -0.00906641 0.504943)
(-0.0555021 0.00891702 0.485704)
(-0.0624685 0.0139743 0.586563)
(-0.054472 0.023455 0.869192)
(-0.0201701 0.0188696 1.08882)
(0.0316434 0.0245758 0.962367)
(0.0582999 0.0166616 0.633774)
(0.0584949 0.0105677 0.505497)
(-0.0458652 0.021105 0.461071)
(-0.0510452 0.0322508 0.527442)
(-0.0434257 0.0477862 0.650371)
(-0.0131592 0.0544989 0.821725)
(0.0310683 0.0538222 0.697294)
(0.0479076 0.0382911 0.550729)
(0.0484018 0.0248653 0.476096)
(-0.0322094 0.0253657 0.426158)
(-0.0341408 0.0377756 0.471112)
(-0.0260059 0.0520539 0.518545)
(-0.00553246 0.0596492 0.556261)
(0.0188268 0.0569854 0.529746)
(0.0318898 0.0441179 0.483067)
(0.0336224 0.029761 0.436811)
(-0.0213031 0.0241665 0.387169)
(-0.0210466 0.0336533 0.420184)
(-0.0155837 0.0446676 0.447295)
(-0.00319301 0.051244 0.461893)
(0.0107522 0.0486494 0.452981)
(0.019279 0.0387138 0.427674)
(0.0218742 0.0279285 0.394413)
(-0.0210531 -0.0157444 0.438322)
(-0.0226087 -0.0250156 0.47598)
(-0.0185549 -0.0376557 0.5055)
(-0.00290501 -0.0477524 0.521847)
(0.0148893 -0.0408481 0.511171)
(0.0215455 -0.0282257 0.483743)
(0.0213844 -0.0178446 0.446386)
(-0.0306775 -0.0131345 0.467879)
(-0.0365776 -0.0236488 0.512422)
(-0.0321015 -0.0375558 0.552403)
(-0.00458128 -0.0487912 0.597582)
(0.0267813 -0.0410328 0.562317)
(0.0360207 -0.0272555 0.522934)
(0.0320089 -0.0154013 0.478212)
(-0.0393319 -0.00501532 0.486021)
(-0.0495678 -0.0107089 0.539159)
(-0.0451384 -0.019528 0.620148)
(-0.0107883 -0.0364882 0.821788)
(0.0397936 -0.0224403 0.64583)
(0.0489427 -0.0126586 0.553255)
(0.0418692 -0.00626918 0.49842)
(-0.0392584 0.00694508 0.485719)
(-0.0494172 0.0109046 0.539593)
(-0.0449054 0.0187016 0.627519)
(-0.0116268 0.032353 0.883973)
(0.039988 0.0211831 0.657775)
(0.0492126 0.0124757 0.554242)
(0.0421488 0.00778633 0.498393)
(-0.0302555 0.0151978 0.466733)
(-0.0368284 0.0244789 0.511991)
(-0.0321457 0.0372068 0.554156)
(-0.0047647 0.0477 0.607437)
(0.0272921 0.0407579 0.564732)
(0.0366322 0.0280846 0.523174)
(0.0321779 0.01722 0.477395)
(-0.0205818 0.0170284 0.436409)
(-0.0227841 0.0258928 0.474137)
(-0.0188689 0.0381452 0.504365)
(-0.00251743 0.047888 0.521348)
(0.0155849 0.0417167 0.510127)
(0.0222248 0.0294045 0.482182)
(0.021519 0.0194183 0.444787)
(-0.0132678 0.015838 0.399181)
(-0.0134425 0.0219862 0.43052)
(-0.0104912 0.0296509 0.453712)
(-0.00167682 0.0357386 0.46466)
(0.00800308 0.0320475 0.457665)
(0.0127394 0.0246166 0.436385)
(0.0137633 0.017925 0.405352)
(-0.00602678 -0.00355042 0.442803)
(-0.00669719 -0.00660713 0.479086)
(-0.00585476 -0.0109972 0.505256)
(-0.000428382 -0.0158751 0.517599)
(0.00562465 -0.0121141 0.509258)
(0.00705263 -0.00775387 0.485354)
(0.00672417 -0.0044773 0.450017)
(-0.00893501 -0.00311865 0.471246)
(-0.0113578 -0.00703813 0.511942)
(-0.011473 -0.0135255 0.543242)
(-0.000857727 -0.0217239 0.558618)
(0.0110107 -0.0150932 0.548099)
(0.0121916 -0.00853809 0.519691)
(0.00986006 -0.00417662 0.479754)
(-0.0118341 -0.000769724 0.48738)
(-0.0172222 -0.00326952 0.532293)
(-0.0195359 -0.00758486 0.567205)
(-0.00122111 -0.0151986 0.600173)
(0.0184572 -0.00860451 0.571338)
(0.0186986 -0.00428498 0.540777)
(0.0132844 -0.00159355 0.49673)
(-0.0118118 0.00317865 0.487235)
(-0.0177674 0.00406224 0.532398)
(-0.0205265 0.00647001 0.56779)
(-0.00121276 0.0109686 0.608187)
(0.0199381 0.0071515 0.572507)
(0.0195536 0.00458341 0.541409)
(0.0134833 0.00320951 0.496659)
(-0.00846588 0.00557698 0.470698)
(-0.0112898 0.00850976 0.511516)
(-0.0118594 0.0142204 0.542747)
(-0.000680874 0.0220969 0.557432)
(0.0115635 0.0160173 0.547796)
(0.0123973 0.00970793 0.519454)
(0.0095964 0.00621207 0.479147)
(-0.00522253 0.00553046 0.441997)
(-0.00639011 0.00801834 0.477903)
(-0.00595852 0.0119496 0.50433)
(-0.000403303 0.0169959 0.516769)
(0.0055223 0.0133538 0.508305)
(0.00681017 0.0091659 0.484224)
(0.00602136 0.0064105 0.44904)
(-0.00281985 0.00489271 0.405089)
(-0.00329603 0.0063092 0.436202)
(-0.00301336 0.00846939 0.45813)
(-0.00041496 0.0105816 0.467408)
(0.00252172 0.00933169 0.461081)
(0.00345678 0.00729124 0.441031)
(0.00338982 0.00568843 0.410488)
(0.0035898 0.00469063 0.444845)
(0.00275758 0.00477553 0.48206)
(0.00146817 0.00451228 0.507169)
(0.000808309 0.00384424 0.518325)
(0.000109207 0.00411886 0.511069)
(-0.00128529 0.00424858 0.488084)
(-0.00219968 0.00397084 0.452128)
(0.0041411 0.00355248 0.474039)
(0.00286573 0.00316714 0.513935)
(0.00114435 0.0024338 0.540995)
(0.00101881 0.000806253 0.55489)
(0.00087558 0.00145191 0.545443)
(-0.00122132 0.00252305 0.521795)
(-0.00289867 0.00285197 0.482527)
(0.0043837 0.00222837 0.490272)
(0.00287251 0.0016868 0.532804)
(0.000392084 0.001042 0.563947)
(0.000740602 -0.000318547 0.577144)
(0.00193655 0.00031016 0.569581)
(-0.000351308 0.00109042 0.540713)
(-0.00306319 0.00162719 0.499338)
(0.0046376 0.000918247 0.490539)
(0.00302318 0.000436724 0.533214)
(0.000292826 4.21322e-05 0.564454)
(0.000949873 0.000546231 0.575324)
(0.00207621 0.000855548 0.569541)
(-0.000506667 0.000449135 0.540139)
(-0.0033375 0.000661998 0.499395)
(0.00497369 -0.00057545 0.474556)
(0.00350759 -0.0011383 0.514435)
(0.00154743 -0.00118704 0.541593)
(0.00122326 0.000197336 0.555538)
(0.000485947 -0.000221124 0.543564)
(-0.00209082 -0.000934934 0.5224)
(-0.00395975 -0.000601363 0.482726)
(0.00488467 -0.00196718 0.445742)
(0.00368306 -0.00297278 0.482133)
(0.00192786 -0.00340095 0.507632)
(0.00066512 -0.00313723 0.518913)
(-0.000703572 -0.00326139 0.511197)
(-0.00263035 -0.00282759 0.488252)
(-0.00397441 -0.0019226 0.452502)
(0.00456592 -0.0027235 0.407791)
(0.00349535 -0.00403004 0.44003)
(0.00192636 -0.00480361 0.462275)
(0.000349558 -0.00483545 0.471426)
(-0.00120572 -0.0046086 0.465017)
(-0.00275431 -0.00381005 0.444581)
(-0.00378472 -0.00261865 0.412954)
(0.0034575 0.00189075 0.172003)
(0.00240542 0.00228886 0.128078)
(0.00824935 -0.00057569 0.339467)
(0.00731276 0.000220378 0.288519)
(0.00607529 0.000893101 0.244116)
(0.00454174 0.00149699 0.20488)
(0.00312165 0.00199253 0.168102)
(0.00185893 0.00227937 0.122466)
(0.00651312 -0.00184534 0.472037)
(0.00827917 -0.000552667 0.397479)
(0.00818081 0.000304157 0.336566)
(0.00718472 0.00101427 0.284697)
(0.00572976 0.00144663 0.239637)
(0.00413546 0.00179532 0.199918)
(0.00262575 0.00207495 0.162831)
(0.00131174 0.00228296 0.117105)
(0.0068947 -0.00108957 0.445818)
(0.00781306 0.000607908 0.377707)
(0.0073477 0.00136513 0.321094)
(0.00622739 0.00171124 0.272325)
(0.00482586 0.00185622 0.229641)
(0.00333302 0.00190728 0.19178)
(0.0019369 0.00194945 0.156173)
(0.000719828 0.00202493 0.111952)
(0.00678752 0.000321456 0.403047)
(0.00691458 0.00168467 0.346155)
(0.00617814 0.00204407 0.297362)
(0.00510043 0.00204618 0.254399)
(0.00386301 0.00186791 0.21626)
(0.00260286 0.00163351 0.182022)
(0.00144575 0.00142702 0.149322)
(0.000433071 0.00129637 0.107992)
(0.00630562 0.00170894 0.354841)
(0.00585071 0.00239903 0.310755)
(0.00515471 0.00247882 0.27081)
(0.00423096 0.00226399 0.234622)
(0.00322891 0.00190478 0.201961)
(0.00221211 0.00149433 0.172189)
(0.00126134 0.00112879 0.143151)
(0.000386341 0.000880325 0.105542)
(0.0213232 -0.0130797 0.408488)
(0.0177258 -0.00995014 0.363019)
(0.0147176 -0.00724818 0.320873)
(0.012012 -0.0049534 0.28209)
(0.00952893 -0.00295438 0.24686)
(0.00726291 -0.00119707 0.214727)
(0.00525221 0.000312958 0.183354)
(0.00333035 0.00155699 0.142238)
(0.0273132 -0.0109925 0.444233)
(0.0220756 -0.00819253 0.38692)
(0.0177019 -0.0056925 0.336667)
(0.0139904 -0.0035605 0.29166)
(0.010699 -0.00178696 0.25144)
(0.00779327 -0.00029455 0.215296)
(0.00526825 0.000952108 0.180783)
(0.00293086 0.00195122 0.136829)
(0.0316137 -0.00580412 0.466602)
(0.0255365 -0.00406039 0.401008)
(0.0202341 -0.00251469 0.345046)
(0.0157383 -0.00123296 0.295873)
(0.0117269 -0.000127558 0.252314)
(0.0082313 0.000821223 0.213541)
(0.00521555 0.00162116 0.177)
(0.00251433 0.00225298 0.131349)
(0.0322446 0.00134449 0.466646)
(0.02605 0.00149823 0.39909)
(0.0204714 0.00171511 0.341933)
(0.0156858 0.00185218 0.291886)
(0.0115209 0.00202118 0.24771)
(0.00787095 0.00220815 0.208458)
(0.004735 0.00241482 0.17161)
(0.00194633 0.00260555 0.125878)
(0.0284209 0.00801649 0.441718)
(0.0227328 0.00652509 0.379938)
(0.0177851 0.00537942 0.326584)
(0.0135527 0.00447515 0.27937)
(0.00985531 0.00378141 0.237445)
(0.00658471 0.0032554 0.200002)
(0.00374873 0.00288495 0.164618)
(0.00119898 0.00262587 0.120404)
(0.0221084 0.0115518 0.402293)
(0.0175957 0.00912979 0.349839)
(0.0138471 0.0072558 0.303219)
(0.0105944 0.00573465 0.261283)
(0.00769594 0.0045121 0.223679)
(0.00508245 0.00351157 0.189766)
(0.00278289 0.00271364 0.157256)
(0.000676187 0.00204896 0.115938)
(0.0164292 0.0122036 0.357306)
(0.0133125 0.0098182 0.315621)
(0.0106091 0.00788043 0.276886)
(0.00820598 0.00623878 0.24129)
(0.00599271 0.00481038 0.20896)
(0.00396118 0.00356017 0.179405)
(0.002143 0.00251054 0.150496)
(0.000429469 0.00159919 0.112867)
(0.0241874 -0.0157106 0.42029)
(0.0195353 -0.0113321 0.375547)
(0.0157178 -0.00814686 0.332965)