/*--------------------------------*- C++ -*----------------------------------*\
| =========                 |                                                 |
| \\      /  F ield         | OpenFOAM: The Open Source CFD Toolbox           |
|  \\    /   O peration     | Version:  plus.master.MPPICInterFoam            |
|   \\  /    A nd           | Web:      www.OpenFOAM.com                      |
|    \\/     M anipulation  |                                                 |
\*---------------------------------------------------------------------------*/
FoamFile
{
    version     2.0;
    format      ascii;
    class       volScalarField;
    location    "1.6";
    object      epsilon;
}
// * * * * * * * * * * * * * * * * * * * * * * * * * * * * * * * * * * * * * //

dimensions      [0 2 -3 0 0 0 0];

internalField   nonuniform List<scalar> 
11822
(
0.000321195
0.000330632
0.000336062
0.000337842
0.000336061
0.000330631
0.000321193
0.000330632
0.000339463
0.000344643
0.000346344
0.000344637
0.000339454
0.000330625
0.000336063
0.000344643
0.000349665
0.000351314
0.000349657
0.00034463
0.00033605
0.000337843
0.000346345
0.000351314
0.000352945
0.000351306
0.000346331
0.000337826
0.000336064
0.000344639
0.000349659
0.000351306
0.000349651
0.000344624
0.000336043
0.000330635
0.000339458
0.000344632
0.00034633
0.000344624
0.000339442
0.000330612
0.000321197
0.000330626
0.000336049
0.000337824
0.000336043
0.000330612
0.000321174
0.000321185
0.000330612
0.000336039
0.000337814
0.000336033
0.000330609
0.000321177
0.000330609
0.000339429
0.000344605
0.000346304
0.000344601
0.000339425
0.000330599
0.000336035
0.000344604
0.000349625
0.000351273
0.000349621
0.000344597
0.000336018
0.000337812
0.000346305
0.000351274
0.000352904
0.000351266
0.000346291
0.000337787
0.000336036
0.000344603
0.00034962
0.000351266
0.000349608
0.000344581
0.000336001
0.000330611
0.000339425
0.000344596
0.000346291
0.000344582
0.000339399
0.000330571
0.000321176
0.000330597
0.000336018
0.000337788
0.000336003
0.000330572
0.000321135
0.000321262
0.000330682
0.000336104
0.000337879
0.000336102
0.000330675
0.000321234
0.000330681
0.000339495
0.000344668
0.000346369
0.000344665
0.000339485
0.000330657
0.000336105
0.00034467
0.000349688
0.000351335
0.000349679
0.000344655
0.000336082
0.00033788
0.000346368
0.000351334
0.000352961
0.000351322
0.000346352
0.000337857
0.000336099
0.000344661
0.000349678
0.000351324
0.000349669
0.00034465
0.000336079
0.000330671
0.000339484
0.000344659
0.000346358
0.000344652
0.000339475
0.000330652
0.000321236
0.000330664
0.000336089
0.000337863
0.000336081
0.000330651
0.000321211
0.000321843
0.000331216
0.000336619
0.000338386
0.000336614
0.000331216
0.000321832
0.000331216
0.000339982
0.000345127
0.000346814
0.000345119
0.00033998
0.000331219
0.000336616
0.000345127
0.000350111
0.000351745
0.000350106
0.000345128
0.000336619
0.000338386
0.000346816
0.000351748
0.000353367
0.000351748
0.00034682
0.000338385
0.000336617
0.000345126
0.000350111
0.000351748
0.00035011
0.000345128
0.000336613
0.000331222
0.00033999
0.000345131
0.000346818
0.000345127
0.000339986
0.000331215
0.000321842
0.000331223
0.000336616
0.000338386
0.000336617
0.000331218
0.00032183
0.000324522
0.000333576
0.000338779
0.000340479
0.000338777
0.00033358
0.000324516
0.000333574
0.000342017
0.000346966
0.000348596
0.000346974
0.000342027
0.000333571
0.000338777
0.000346966
0.00035176
0.000353339
0.000351766
0.000346975
0.000338779
0.000340482
0.000348594
0.000353335
0.000354894
0.000353337
0.000348598
0.000340482
0.000338778
0.000346969
0.000351763
0.000353339
0.000351761
0.000346969
0.000338776
0.000333576
0.000342024
0.00034698
0.000348606
0.000346974
0.000342022
0.000333572
0.000324517
0.000333577
0.000338791
0.000340494
0.00033878
0.000333573
0.000324515
0.000332759
0.000340453
0.000344914
0.000346369
0.000344899
0.000340447
0.000332749
0.000340455
0.000347679
0.00035193
0.000353324
0.000351914
0.000347667
0.000340453
0.00034491
0.000351927
0.000356042
0.000357392
0.000356033
0.000351925
0.000344911
0.00034637
0.000353324
0.000357393
0.000358726
0.000357386
0.000353324
0.000346369
0.000344903
0.000351919
0.000356036
0.000357386
0.000356029
0.000351923
0.000344906
0.000340451
0.000347674
0.00035192
0.000353316
0.000351919
0.000347678
0.000340455
0.000332751
0.000340446
0.000344896
0.000346358
0.0003449
0.000340458
0.000332756
0.00030886
0.000296113
0.000281237
0.000264742
0.000247704
0.000233078
0.000233769
0.000386343
0.000318696
0.000305535
0.000290077
0.000272555
0.000253825
0.000236462
0.00023174
0.000360833
0.000324471
0.000311421
0.000295771
0.000277718
0.000258002
0.000238976
0.000231031
0.000346541
0.000326399
0.000313421
0.000297732
0.000279515
0.000259472
0.000239886
0.000230875
0.000342053
0.000324463
0.000311412
0.000295763
0.000277711
0.000257996
0.000238971
0.000231026
0.000346539
0.000318682
0.000305519
0.000290061
0.000272541
0.000253811
0.000236448
0.000231727
0.000360826
0.00030884
0.000296093
0.000281216
0.000264719
0.000247681
0.000233053
0.00023374
0.000386295
0.000308843
0.000296097
0.00028122
0.00026472
0.000247676
0.000233041
0.000233723
0.000386403
0.000318671
0.000305512
0.000290055
0.000272533
0.0002538
0.00023643
0.000231703
0.000360893
0.000324439
0.000311392
0.000295746
0.000277694
0.000257976
0.000238946
0.000230999
0.00034661
0.000326361
0.000313387
0.000297703
0.000279487
0.000259442
0.000239852
0.000230835
0.000342105
0.000324423
0.000311377
0.000295731
0.000277677
0.000257957
0.000238924
0.000230969
0.000346552
0.000318643
0.000305483
0.000290023
0.000272496
0.000253757
0.00023638
0.000231637
0.000360757
0.000308801
0.000296052
0.000281168
0.00026466
0.000247607
0.000232958
0.000233607
0.000386125
0.000308894
0.000296145
0.000281261
0.000264748
0.000247681
0.000233011
0.000233638
0.000386374
0.000318732
0.000305577
0.00029012
0.00027259
0.000253843
0.000236451
0.000231699
0.000361082
0.000324512
0.000311471
0.000295826
0.000277772
0.000258045
0.000238999
0.000231037
0.000346899
0.000326442
0.000313474
0.00029779
0.000279571
0.000259518
0.000239913
0.000230883
0.000342404
0.000324507
0.000311462
0.000295814
0.000277757
0.000258029
0.000238979
0.000231008
0.000346818
0.000318724
0.00030556
0.000290096
0.000272564
0.000253814
0.000236415
0.000231646
0.000360941
0.00030887
0.000296118
0.000281231
0.000264716
0.000247645
0.000232967
0.000233573
0.00038619
0.000309564
0.000296859
0.000282006
0.000265502
0.000248419
0.000233712
0.000234349
0.000388312
0.000319363
0.000306262
0.00029085
0.000273347
0.000254594
0.000237165
0.000232399
0.000362821
0.000325119
0.000312138
0.000296548
0.000278528
0.000258803
0.00023972
0.000231728
0.000348495
0.00032704
0.000314134
0.000298509
0.000280327
0.000260278
0.000240638
0.000231575
0.000343965
0.00032511
0.000312129
0.00029654
0.000278519
0.000258792
0.000239709
0.000231712
0.000348438
0.000319354
0.000306252
0.00029084
0.000273336
0.000254583
0.000237153
0.000232377
0.000362735
0.000309553
0.000296851
0.000282001
0.000265501
0.000248421
0.000233715
0.000234351
0.000388307
0.000312632
0.000300305
0.000285851
0.000269731
0.000252991
0.000238603
0.000239898
0.000400221
0.00032212
0.000309432
0.000294457
0.000277385
0.000259029
0.000241951
0.000237754
0.000373678
0.000327688
0.000315127
0.000299991
0.000282432
0.000263141
0.000244438
0.000236976
0.000358777
0.000329544
0.000317061
0.000301898
0.000284188
0.000264584
0.000245333
0.000236792
0.000354084
0.000327688
0.000315126
0.000299989
0.000282428
0.000263132
0.000244425
0.000236963
0.000358747
0.000322125
0.000309436
0.000294455
0.000277379
0.000259019
0.000241935
0.000237729
0.000373611
0.000312637
0.000300308
0.000285849
0.000269725
0.00025298
0.000238586
0.00023987
0.000400119
0.000322676
0.00031236
0.000300428
0.000287443
0.00027472
0.000266157
0.000279768
0.000514202
0.0003307
0.000319982
0.000307485
0.000293539
0.000279227
0.00026796
0.000275545
0.000479075
0.000335447
0.000324794
0.000312102
0.000297661
0.000282442
0.000269579
0.000273689
0.000459678
0.000337029
0.00032643
0.000313702
0.000299111
0.000283589
0.000270194
0.000273175
0.00045362
0.000335438
0.000324782
0.000312099
0.000297667
0.000282449
0.000269587
0.000273709
0.000459729
0.000330699
0.000319982
0.00030749
0.000293544
0.000279235
0.000267978
0.000275579
0.000479144
0.000322686
0.000312374
0.000300452
0.000287468
0.000274752
0.000266204
0.00027983
0.000514287
0.000308867
0.000296121
0.000281245
0.000264751
0.000247715
0.000233092
0.000233789
0.000386399
0.000318706
0.000305548
0.000290091
0.000272571
0.000253844
0.000236483
0.000231769
0.000360913
0.000324485
0.000311436
0.000295787
0.000277735
0.00025802
0.000238996
0.000231056
0.000346601
0.000326417
0.000313438
0.000297749
0.000279531
0.000259488
0.000239904
0.000230896
0.000342099
0.000324483
0.00031143
0.000295779
0.000277726
0.000258011
0.000238986
0.000231043
0.000346565
0.000318702
0.000305538
0.000290077
0.000272555
0.000253825
0.000236461
0.000231738
0.000360826
0.000308857
0.000296112
0.000281233
0.000264736
0.000247696
0.000233067
0.00023375
0.000386282
0.000308849
0.000296106
0.000281232
0.000264735
0.000247694
0.000233064
0.000233762
0.000386532
0.000318684
0.000305534
0.000290082
0.000272563
0.000253834
0.000236471
0.000231766
0.000361095
0.000324462
0.000311422
0.000295778
0.000277729
0.000258014
0.000238991
0.000231064
0.000346804
0.000326391
0.000313423
0.00029774
0.000279524
0.000259483
0.0002399
0.000230906
0.000342305
0.000324457
0.000311415
0.00029577
0.00027772
0.000258005
0.000238981
0.000231053
0.00034678
0.000318679
0.000305525
0.000290069
0.000272548
0.000253817
0.000236453
0.000231744
0.000361043
0.000308836
0.0002961
0.000281224
0.000264726
0.000247684
0.000233053
0.00023375
0.000386508
0.000308903
0.000296155
0.000281271
0.000264758
0.000247693
0.000233027
0.000233668
0.000386493
0.00031874
0.00030559
0.000290134
0.000272606
0.00025386
0.000236474
0.00023174
0.000361242
0.000324523
0.000311487
0.000295843
0.00027779
0.000258066
0.000239024
0.00023108
0.000347059
0.000326458
0.000313495
0.000297812
0.000279595
0.000259544
0.000239944
0.000230932
0.000342571
0.00032453
0.000311491
0.000295846
0.000277791
0.000258063
0.000239019
0.000231067
0.000347012
0.000318755
0.000305602
0.00029014
0.000272608
0.000253858
0.000236465
0.000231719
0.000361172
0.000308908
0.00029617
0.000281282
0.000264766
0.000247697
0.000233027
0.000233664
0.000386477
0.000309564
0.000296859
0.000282004
0.0002655
0.000248416
0.000233707
0.000234344
0.000388302
0.000319357
0.000306256
0.000290839
0.000273332
0.000254576
0.000237145
0.000232373
0.000362759
0.000325111
0.00031213
0.000296536
0.000278512
0.000258784
0.000239699
0.000231703
0.00034845
0.000327034
0.000314132
0.000298503
0.000280319
0.000260268
0.000240626
0.000231562
0.000343953
0.000325112
0.000312134
0.000296543
0.000278522
0.000258796
0.000239712
0.000231718
0.000348471
0.00031936
0.000306261
0.000290851
0.000273349
0.000254598
0.00023717
0.0002324
0.000362794
0.000309553
0.000296861
0.000282015
0.000265518
0.000248441
0.000233736
0.000234373
0.000388334
0.000312633
0.000300304
0.000285846
0.000269724
0.000252981
0.00023859
0.000239878
0.000400167
0.00032211
0.000309424
0.000294442
0.000277364
0.000258999
0.000241914
0.0002377
0.000373534
0.000327681
0.000315117
0.000299973
0.000282406
0.000263106
0.000244393
0.000236914
0.000358621
0.000329538
0.000317052
0.000301882
0.000284166
0.000264556
0.000245298
0.000236742
0.000353962
0.00032768
0.000315118
0.00029998
0.000282417
0.00026312
0.00024441
0.000236941
0.00035869
0.00032212
0.000309433
0.000294454
0.000277383
0.000259027
0.000241948
0.000237746
0.000373644
0.000312628
0.000300311
0.000285859
0.000269744
0.000253009
0.000238625
0.000239922
0.000400235
0.000322666
0.000312348
0.000300414
0.000287425
0.0002747
0.000266133
0.000279736
0.000514143
0.000330678
0.000319965
0.000307465
0.000293511
0.000279188
0.00026791
0.000275478
0.000478919
0.000335428
0.000324779
0.000312082
0.000297634
0.000282403
0.000269527
0.000273616
0.000459512
0.000337018
0.000326421
0.000313687
0.000299088
0.000283558
0.000270151
0.000273109
0.000453445
0.000335435
0.000324781
0.000312091
0.000297648
0.000282421
0.000269551
0.000273654
0.000459543
0.000330694
0.000319978
0.00030748
0.000293525
0.000279209
0.000267944
0.000275526
0.000478958
0.000322674
0.000312366
0.000300438
0.000287449
0.000274728
0.000266175
0.000279787
0.000514157
0.000308858
0.000296113
0.000281234
0.000264736
0.000247695
0.000233064
0.000233743
0.000386256
0.000318703
0.00030554
0.000290079
0.000272556
0.000253824
0.000236457
0.000231729
0.00036079
0.000324483
0.00031143
0.000295778
0.000277724
0.000258008
0.000238981
0.000231033
0.000346532
0.000326414
0.000313434
0.000297745
0.000279526
0.000259483
0.000239898
0.000230886
0.000342066
0.00032448
0.000311429
0.00029578
0.000277728
0.000258013
0.000238987
0.000231043
0.000346561
0.000318701
0.000305541
0.000290083
0.000272563
0.000253833
0.00023647
0.000231749
0.000360851
0.000308858
0.000296118
0.000281242
0.000264745
0.000247707
0.000233079
0.000233767
0.000386327
0.000308839
0.000296103
0.000281227
0.000264729
0.000247688
0.000233058
0.000233755
0.000386511
0.000318684
0.000305531
0.000290076
0.000272556
0.000253827
0.000236465
0.00023176
0.000361069
0.00032446
0.00031142
0.000295777
0.000277729
0.000258016
0.000238994
0.000231069
0.000346805
0.000326391
0.000313426
0.000297746
0.000279532
0.000259492
0.00023991
0.000230918
0.00034232
0.000324461
0.000311424
0.000295782
0.000277733
0.000258019
0.000238996
0.000231071
0.000346811
0.000318686
0.000305536
0.000290082
0.000272562
0.000253833
0.000236472
0.000231768
0.000361095
0.000308837
0.000296105
0.00028123
0.000264733
0.000247692
0.000233063
0.00023376
0.000386521
0.000308906
0.00029617
0.000281286
0.000264771
0.000247705
0.000233039
0.000233686
0.000386545
0.000318754
0.000305604
0.000290146
0.000272617
0.000253871
0.000236485
0.000231754
0.000361276
0.000324531
0.000311496
0.000295852
0.000277799
0.000258074
0.000239034
0.000231094
0.000347089
0.000326463
0.0003135
0.000297818
0.0002796
0.000259551
0.000239953
0.000230947
0.00034261
0.00032453
0.00031149
0.000295845
0.000277792
0.000258069
0.000239029
0.000231085
0.000347064
0.000318745
0.000305591
0.000290133
0.000272606
0.000253862
0.000236474
0.000231736
0.00036123
0.000308883
0.000296152
0.000281271
0.000264759
0.000247693
0.000233025
0.000233664
0.000386481
0.000309553
0.000296867
0.000282022
0.000265525
0.000248449
0.000233748
0.000234396
0.000388413
0.000319364
0.00030627
0.000290861
0.000273361
0.000254612
0.000237188
0.00023243
0.000362885
0.00032512
0.00031214
0.000296549
0.00027853
0.000258807
0.000239728
0.00023174
0.000348532
0.000327034
0.000314133
0.000298508
0.000280326
0.000260279
0.000240639
0.000231578
0.000343992
0.000325103
0.00031213
0.000296541
0.000278518
0.000258791
0.000239707
0.000231713
0.000348471
0.000319353
0.000306262
0.000290845
0.000273336
0.000254579
0.000237147
0.000232372
0.000362745
0.000309547
0.000296853
0.000281999
0.000265496
0.000248412
0.000233702
0.000234332
0.000388265
0.000312626
0.000300309
0.000285859
0.000269743
0.000253006
0.000238622
0.000239919
0.000400208
0.000322113
0.000309427
0.00029445
0.000277382
0.000259028
0.00024195
0.000237749
0.000373625
0.000327678
0.000315118
0.000299979
0.00028242
0.000263128
0.00024442
0.000236946
0.000358681
0.000329538
0.000317052
0.000301883
0.000284169
0.000264562
0.000245307
0.000236754
0.000353977
0.00032768
0.000315112
0.000299969
0.000282406
0.000263106
0.000244395
0.000236924
0.000358656
0.000322116
0.00030942
0.000294437
0.000277361
0.000258998
0.00024191
0.000237696
0.000373542
0.000312606
0.000300296
0.000285844
0.000269723
0.000252978
0.000238581
0.000239859
0.000400114
0.000322669
0.000312365
0.000300438
0.000287451
0.000274729
0.000266174
0.000279785
0.000514154
0.000330694
0.000319981
0.000307479
0.000293526
0.000279211
0.000267942
0.000275513
0.000478936
0.000335439
0.000324792
0.000312092
0.000297643
0.00028242
0.000269551
0.000273637
0.000459517
0.00033702
0.000326423
0.000313688
0.000299087
0.000283556
0.000270152
0.000273109
0.000453421
0.000335422
0.000324773
0.000312083
0.00029764
0.000282405
0.000269528
0.000273628
0.000459514
0.000330677
0.000319968
0.000307463
0.000293506
0.000279182
0.000267903
0.000275469
0.000478893
0.000322668
0.000312364
0.000300427
0.000287429
0.000274701
0.000266136
0.000279736
0.00051411
0.00030884
0.000296093
0.000281216
0.000264719
0.000247679
0.00023305
0.000233733
0.000386272
0.000318683
0.00030552
0.000290062
0.000272539
0.000253808
0.000236442
0.000231715
0.000360789
0.000324463
0.000311412
0.000295762
0.000277709
0.000257992
0.000238964
0.000231014
0.000346504
0.000326398
0.000313418
0.000297729
0.000279511
0.000259467
0.00023988
0.000230865
0.000342024
0.000324468
0.000311416
0.000295766
0.000277713
0.000257997
0.00023897
0.000231023
0.000346512
0.000318695
0.000305531
0.000290072
0.000272549
0.000253819
0.000236454
0.000231728
0.000360796
0.000308857
0.000296115
0.000281237
0.00026474
0.000247701
0.000233073
0.000233758
0.000386302
0.000308803
0.000296051
0.000281167
0.000264659
0.000247606
0.000232955
0.0002336
0.000386095
0.000318647
0.000305483
0.000290021
0.000272495
0.000253757
0.000236378
0.000231631
0.000360729
0.000324426
0.000311377
0.00029573
0.000277677
0.000257958
0.000238925
0.000230967
0.000346534
0.000326363
0.000313389
0.000297705
0.000279489
0.000259445
0.000239855
0.000230837
0.000342096
0.000324439
0.000311393
0.000295748
0.000277696
0.000257978
0.000238949
0.000231
0.0003466
0.000318672
0.000305513
0.000290055
0.000272531
0.000253797
0.000236426
0.000231697
0.000360872
0.000308828
0.000296096
0.000281218
0.000264717
0.000247671
0.000233033
0.000233709
0.000386359
0.000308868
0.000296121
0.000281237
0.000264724
0.000247655
0.00023298
0.000233594
0.000386252
0.00031872
0.000305564
0.000290108
0.00027258
0.000253832
0.000236438
0.000231681
0.000361046
0.000324507
0.000311468
0.000295826
0.000277774
0.000258047
0.000239001
0.000231042
0.000346912
0.000326447
0.000313482
0.000297801
0.000279584
0.000259534
0.000239931
0.00023091
0.000342469
0.000324523
0.00031148
0.000295835
0.000277782
0.000258057
0.000239014
0.000231056
0.000346941
0.000318747
0.000305587
0.000290127
0.000272598
0.000253851
0.00023646
0.000231709
0.000361109
0.000308886
0.000296152
0.000281269
0.000264755
0.000247688
0.000233017
0.000233646
0.00038639
0.000309555
0.000296857
0.000282008
0.000265509
0.000248431
0.000233729
0.000234379
0.000388405
0.000319363
0.000306264
0.000290853
0.00027335
0.0002546
0.000237176
0.000232417
0.000362859
0.000325123
0.00031214
0.000296549
0.00027853
0.000258808
0.00023973
0.000231744
0.000348531
0.000327045
0.000314139
0.000298516
0.000280338
0.000260293
0.000240657
0.0002316
0.000344032
0.000325118
0.000312142
0.000296557
0.000278539
0.000258816
0.000239737
0.000231751
0.00034855
0.000319368
0.000306275
0.000290864
0.00027336
0.000254608
0.000237182
0.000232419
0.000362857
0.000309554
0.000296863
0.000282013
0.000265513
0.000248432
0.000233726
0.000234366
0.000388347
0.000312636
0.000300304
0.000285847
0.000269721
0.000252974
0.000238579
0.000239859
0.000400071
0.000322123
0.000309429
0.000294448
0.000277372
0.00025901
0.000241926
0.000237716
0.000373552
0.000327688
0.000315127
0.000299989
0.000282427
0.000263133
0.000244424
0.000236953
0.0003587
0.00032955
0.000317068
0.000301903
0.000284189
0.000264585
0.000245333
0.000236791
0.000354067
0.000327696
0.000315131
0.000299994
0.000282434
0.000263139
0.000244435
0.000236981
0.000358792
0.000322133
0.000309439
0.000294461
0.000277389
0.00025903
0.000241951
0.000237757
0.0003737
0.000312615
0.000300307
0.000285857
0.000269738
0.000252996
0.000238605
0.000239899
0.000400225
0.000322682
0.000312373
0.00030045
0.000287469
0.000274753
0.000266203
0.00027983
0.000514281
0.000330696
0.000319982
0.000307491
0.000293546
0.000279238
0.000267976
0.00027557
0.000479112
0.000335438
0.000324789
0.000312102
0.000297661
0.000282443
0.000269582
0.000273693
0.000459694
0.000337021
0.000326424
0.000313699
0.000299106
0.00028358
0.000270185
0.000273166
0.000453597
0.000335429
0.000324774
0.000312093
0.000297657
0.00028243
0.000269564
0.000273685
0.000459679
0.000330688
0.000319971
0.00030747
0.000293519
0.000279201
0.000267931
0.000275516
0.00047903
0.000322665
0.000312361
0.000300425
0.000287429
0.000274702
0.000266139
0.000279744
0.000514142
0.000336323
0.00029137
0.000318536
0.000343186
0.000359884
0.000368888
0.000371047
0.000366479
0.000336332
0.000291378
0.000318544
0.000343196
0.000359896
0.000368902
0.000371065
0.000366501
0.000336328
0.000291378
0.000318543
0.000343194
0.000359894
0.000368903
0.00037107
0.000366511
0.000336328
0.000291377
0.00031854
0.000343188
0.000359885
0.000368889
0.000371049
0.000366483
0.000336335
0.000291378
0.000318543
0.000343192
0.000359889
0.000368892
0.000371049
0.000366479
0.000336338
0.000291379
0.000318545
0.000343196
0.000359895
0.000368899
0.000371054
0.000366475
0.000336336
0.000291378
0.000318544
0.000343196
0.000359895
0.000368901
0.000371062
0.000366496
0.000336411
0.000291404
0.000318535
0.000343175
0.000359872
0.00036888
0.000371047
0.00036649
0.000336423
0.000291405
0.000318536
0.000343176
0.000359871
0.000368878
0.000371041
0.000366481
0.000336421
0.000291405
0.000318537
0.000343177
0.000359872
0.000368877
0.000371038
0.000366475
0.000336417
0.000291403
0.000318537
0.000343179
0.000359876
0.000368883
0.000371046
0.000366486
0.000336409
0.0002914
0.000318536
0.000343179
0.000359877
0.000368886
0.00037105
0.000366492
0.000336408
0.000291399
0.000318536
0.000343179
0.000359878
0.000368885
0.000371049
0.000366493
0.000336409
0.0002914
0.000318538
0.000343182
0.00035988
0.000368884
0.000371043
0.000366477
0.000336672
0.000291554
0.000318632
0.000343246
0.000359915
0.000368896
0.000371042
0.000366476
0.000336674
0.000291559
0.000318638
0.000343249
0.000359917
0.000368899
0.000371047
0.000366482
0.000336671
0.000291561
0.000318639
0.000343249
0.000359917
0.000368899
0.000371048
0.000366484
0.000336669
0.000291561
0.000318638
0.000343248
0.000359916
0.000368898
0.000371045
0.000366481
0.000336668
0.000291562
0.000318639
0.000343249
0.000359917
0.000368898
0.000371045
0.00036648
0.000336666
0.00029156
0.000318639
0.00034325
0.000359918
0.000368899
0.000371045
0.000366477
0.000336663
0.00029156
0.000318638
0.00034325
0.000359921
0.000368902
0.000371048
0.000366484
0.000337934
0.000292441
0.000319272
0.000343677
0.000360169
0.00036902
0.00037108
0.000366466
0.000337945
0.00029245
0.000319274
0.000343679
0.000360171
0.000369021
0.000371082
0.000366465
0.000337954
0.000292451
0.000319275
0.00034368
0.000360173
0.000369023
0.000371084
0.000366468
0.000337954
0.000292451
0.000319274
0.00034368
0.000360173
0.000369023
0.000371085
0.000366468
0.000337955
0.00029245
0.000319274
0.00034368
0.000360173
0.000369024
0.000371086
0.000366469
0.000337954
0.000292447
0.000319273
0.000343681
0.000360173
0.000369023
0.000371084
0.000366467
0.00033795
0.000292445
0.000319273
0.000343681
0.000360174
0.000369023
0.000371083
0.000366465
0.000345688
0.000297275
0.000322269
0.000345464
0.000361126
0.000369429
0.00037116
0.000366371
0.000345701
0.000297282
0.000322274
0.000345467
0.000361127
0.000369432
0.000371163
0.000366375
0.000345703
0.000297286
0.000322275
0.000345467
0.000361128
0.000369432
0.000371163
0.000366373
0.000345703
0.000297287
0.000322275
0.000345466
0.000361126
0.000369429
0.00037116
0.000366373
0.000345698
0.000297285
0.000322273
0.000345464
0.000361124
0.000369428
0.00037116
0.000366371
0.000345693
0.00029728
0.000322271
0.000345464
0.000361124
0.000369428
0.000371159
0.000366369
0.000345686
0.000297277
0.000322269
0.000345463
0.000361125
0.000369429
0.000371159
0.00036637
0.000434733
0.000320998
0.000333283
0.00035093
0.000363609
0.000370232
0.000371052
0.000365826
0.000434788
0.000321014
0.000333292
0.000350938
0.000363615
0.000370237
0.000371055
0.000365826
0.000434836
0.000321024
0.000333294
0.000350938
0.000363615
0.000370238
0.000371056
0.000365829
0.000434845
0.000321026
0.000333294
0.000350938
0.000363614
0.000370236
0.000371054
0.000365825
0.000434806
0.00032102
0.000333292
0.000350937
0.000363613
0.000370235
0.000371053
0.000365825
0.000434739
0.000321003
0.000333286
0.000350934
0.000363611
0.000370234
0.000371053
0.000365825
0.000434681
0.000320987
0.000333279
0.000350931
0.000363611
0.000370235
0.000371053
0.000365826
0.000336317
0.000291368
0.000318535
0.000343187
0.000359887
0.000368894
0.000371057
0.000366494
0.00033632
0.000291369
0.000318536
0.000343189
0.000359888
0.000368895
0.000371059
0.000366497
0.000336319
0.000291368
0.000318535
0.000343186
0.000359886
0.000368894
0.000371057
0.000366494
0.000336321
0.000291369
0.000318535
0.000343187
0.000359887
0.000368894
0.000371057
0.000366493
0.000336322
0.000291369
0.000318536
0.000343187
0.000359887
0.000368895
0.000371059
0.000366496
0.000336318
0.000291368
0.000318535
0.000343186
0.000359886
0.000368895
0.00037106
0.000366498
0.000336318
0.000291367
0.000318534
0.000343185
0.000359885
0.000368894
0.000371057
0.000366494
0.000336405
0.000291401
0.000318532
0.000343172
0.000359869
0.000368877
0.000371043
0.000366484
0.000336415
0.000291399
0.000318531
0.000343172
0.00035987
0.000368877
0.000371042
0.000366483
0.00033641
0.000291397
0.000318531
0.000343173
0.000359871
0.000368878
0.000371043
0.000366484
0.000336406
0.000291394
0.00031853
0.000343173
0.000359871
0.000368878
0.000371042
0.000366483
0.000336397
0.000291392
0.000318529
0.000343172
0.000359871
0.000368878
0.000371042
0.000366482
0.000336392
0.00029139
0.000318529
0.000343173
0.000359871
0.000368878
0.000371042
0.000366483
0.000336391
0.000291391
0.000318529
0.000343173
0.000359872
0.00036888
0.000371044
0.000366485
0.000336665
0.000291551
0.00031863
0.000343245
0.000359915
0.000368897
0.000371045
0.00036648
0.000336663
0.000291552
0.000318633
0.000343245
0.000359914
0.000368897
0.000371045
0.000366481
0.000336659
0.000291552
0.000318632
0.000343244
0.000359913
0.000368896
0.000371044
0.00036648
0.000336657
0.000291553
0.000318633
0.000343244
0.000359914
0.000368896
0.000371045
0.000366482
0.000336654
0.000291553
0.000318632
0.000343244
0.000359913
0.000368896
0.000371046
0.000366483
0.000336651
0.000291551
0.000318631
0.000343243
0.000359913
0.000368896
0.000371046
0.000366483
0.00033665
0.000291551
0.000318629
0.000343242
0.000359913
0.000368896
0.000371045
0.000366482
0.000337926
0.000292439
0.00031927
0.000343675
0.000360169
0.00036902
0.000371081
0.000366466
0.000337936
0.000292444
0.00031927
0.000343675
0.000360168
0.000369019
0.000371081
0.000366465
0.000337942
0.000292443
0.000319269
0.000343675
0.000360169
0.000369021
0.000371084
0.000366468
0.000337943
0.000292443
0.000319268
0.000343675
0.000360169
0.000369021
0.000371083
0.000366467
0.000337943
0.000292442
0.000319268
0.000343674
0.000360168
0.00036902
0.000371083
0.000366467
0.000337943
0.000292439
0.000319267
0.000343675
0.000360168
0.00036902
0.000371083
0.000366467
0.00033794
0.000292438
0.000319266
0.000343675
0.000360169
0.00036902
0.000371083
0.000366468
0.000345683
0.000297273
0.000322268
0.000345463
0.000361126
0.000369429
0.000371161
0.000366372
0.000345695
0.000297278
0.00032227
0.000345464
0.000361125
0.00036943
0.000371161
0.000366374
0.000345696
0.00029728
0.00032227
0.000345464
0.000361125
0.00036943
0.000371161
0.000366372
0.000345698
0.000297282
0.000322271
0.000345463
0.000361124
0.000369428
0.00037116
0.000366372
0.000345695
0.000297281
0.00032227
0.000345462
0.000361123
0.000369427
0.00037116
0.000366372
0.000345694
0.000297278
0.000322269
0.000345463
0.000361123
0.000369428
0.00037116
0.000366372
0.000345692
0.000297277
0.000322269
0.000345462
0.000361123
0.000369427
0.000371159
0.000366371
0.000434736
0.000320998
0.000333284
0.000350931
0.000363609
0.000370233
0.000371053
0.000365826
0.000434793
0.000321014
0.000333292
0.000350937
0.000363614
0.000370236
0.000371053
0.000365825
0.000434843
0.000321023
0.000333292
0.000350936
0.000363613
0.000370236
0.000371055
0.000365828
0.000434858
0.000321025
0.000333293
0.000350938
0.000363615
0.000370237
0.000371054
0.000365826
0.000434829
0.000321023
0.000333296
0.00035094
0.000363616
0.000370237
0.000371054
0.000365826
0.000434777
0.000321011
0.000333291
0.000350939
0.000363615
0.000370236
0.000371054
0.000365826
0.000434732
0.000320999
0.000333287
0.000350937
0.000363615
0.000370236
0.000371054
0.000365825
0.000336319
0.000291368
0.000318535
0.000343186
0.000359887
0.000368895
0.000371059
0.000366495
0.00033632
0.000291368
0.000318535
0.000343187
0.000359888
0.000368897
0.000371062
0.000366499
0.00033632
0.000291368
0.000318535
0.000343186
0.000359886
0.000368895
0.00037106
0.000366498
0.000336322
0.000291368
0.000318534
0.000343184
0.000359884
0.000368891
0.000371053
0.000366487
0.000336324
0.000291369
0.000318535
0.000343186
0.000359886
0.000368894
0.000371058
0.000366493
0.000336326
0.000291371
0.000318536
0.000343187
0.000359886
0.000368895
0.000371063
0.000366503
0.00033633
0.000291373
0.000318539
0.000343189
0.000359886
0.000368893
0.000371058
0.000366496
0.000336391
0.000291391
0.000318529
0.000343173
0.000359872
0.00036888
0.000371044
0.000366485
0.000336393
0.000291391
0.000318529
0.000343172
0.000359871
0.000368878
0.000371041
0.000366481
0.000336395
0.000291391
0.000318529
0.000343173
0.000359871
0.000368878
0.000371041
0.000366481
0.000336396
0.000291392
0.000318529
0.000343173
0.000359873
0.00036888
0.000371045
0.000366487
0.000336395
0.000291391
0.000318529
0.000343173
0.000359871
0.000368878
0.000371042
0.000366483
0.000336398
0.000291393
0.000318529
0.000343172
0.000359869
0.000368876
0.000371038
0.000366477
0.000336411
0.000291394
0.000318531
0.000343175
0.000359872
0.000368878
0.00037104
0.00036648
0.000336651
0.000291551
0.00031863
0.000343242
0.000359913
0.000368896
0.000371045
0.000366482
0.000336654
0.000291552
0.000318631
0.000343243
0.000359913
0.000368896
0.000371046
0.000366483
0.000336655
0.000291552
0.00031863
0.000343242
0.000359912
0.000368896
0.000371046
0.000366483
0.000336656
0.000291553
0.00031863