/*--------------------------------*- C++ -*----------------------------------*\
| =========                 |                                                 |
| \\      /  F ield         | OpenFOAM: The Open Source CFD Toolbox           |
|  \\    /   O peration     | Version:  plus.master.MPPICInterFoam            |
|   \\  /    A nd           | Web:      www.OpenFOAM.com                      |
|    \\/     M anipulation  |                                                 |
\*---------------------------------------------------------------------------*/
FoamFile
{
    version     2.0;
    format      ascii;
    class       volScalarField;
    location    "1.6";
    object      k;
}
// * * * * * * * * * * * * * * * * * * * * * * * * * * * * * * * * * * * * * //

dimensions      [0 2 -2 0 0 0 0];

internalField   nonuniform List<scalar> 
11822
(
0.000488941
0.000506448
0.000516442
0.000519708
0.00051644
0.000506446
0.000488934
0.000506449
0.0005227
0.000532197
0.000535313
0.000532188
0.000522687
0.000506435
0.000516443
0.000532197
0.000541401
0.000544422
0.00054139
0.00053218
0.000516423
0.000519709
0.000535314
0.000544423
0.000547413
0.000544412
0.000535295
0.000519685
0.000516443
0.000532192
0.000541392
0.000544412
0.000541381
0.000532172
0.000516415
0.000506452
0.000522692
0.000532182
0.000535295
0.000532171
0.000522672
0.00050642
0.000488939
0.000506437
0.000516422
0.000519683
0.000516414
0.00050642
0.000488908
0.000488947
0.000506443
0.000516432
0.000519692
0.000516425
0.000506438
0.000488932
0.000506439
0.000522675
0.000532168
0.000535282
0.000532162
0.00052267
0.000506422
0.000516428
0.000532168
0.000541369
0.000544392
0.000541364
0.000532158
0.000516402
0.000519691
0.000535284
0.000544392
0.000547382
0.000544382
0.000535266
0.000519654
0.000516428
0.000532165
0.000541364
0.000544382
0.000541348
0.000532136
0.000516379
0.000506441
0.00052267
0.000532157
0.000535266
0.000532138
0.000522636
0.000506386
0.000488931
0.00050642
0.000516402
0.000519656
0.000516382
0.000506388
0.000488876
0.000489133
0.000506622
0.000516608
0.000519871
0.000516607
0.000506614
0.000489092
0.000506622
0.000522852
0.000532344
0.00053546
0.000532339
0.000522841
0.000506588
0.000516609
0.000532345
0.000541545
0.000544564
0.000541533
0.000532327
0.000516577
0.000519871
0.000535458
0.000544563
0.000547549
0.000544547
0.000535437
0.000519839
0.000516603
0.000532334
0.000541532
0.00054455
0.00054152
0.00053232
0.000516575
0.000506609
0.00052284
0.000532333
0.000535446
0.000532324
0.00052283
0.000506583
0.000489096
0.000506599
0.000516589
0.000519849
0.000516578
0.000506582
0.000489062
0.000490248
0.000507689
0.000517652
0.000520901
0.000517643
0.000507688
0.000490234
0.000507688
0.000523861
0.00053331
0.000536407
0.000533298
0.000523856
0.000507691
0.000517647
0.00053331
0.000542459
0.00054546
0.000542451
0.000533311
0.00051765
0.000520901
0.000536409
0.000545463
0.000548435
0.000545462
0.000536414
0.000520899
0.000517647
0.000533307
0.000542458
0.000545462
0.000542457
0.000533312
0.000517642
0.000507696
0.00052387
0.000533315
0.000536413
0.000533311
0.000523866
0.000507688
0.000490248
0.000507698
0.000517647
0.000520902
0.00051765
0.000507693
0.000490232
0.000494849
0.000511889
0.000521587
0.000524747
0.000521586
0.000511897
0.000494839
0.000511888
0.000527622
0.000536798
0.000539814
0.000536811
0.000527639
0.000511884
0.000521585
0.0005368
0.000545673
0.000548593
0.000545684
0.000536816
0.00052159
0.000524752
0.000539813
0.000548589
0.000551472
0.000548593
0.000539822
0.000524754
0.000521588
0.000536806
0.000545681
0.000548596
0.00054568
0.000536807
0.000521586
0.000511893
0.000527638
0.000536823
0.000539832
0.000536814
0.000527634
0.000511888
0.000494843
0.000511893
0.000521606
0.00052477
0.000521591
0.000511887
0.00049484
0.000508225
0.000523485
0.000532166
0.000534985
0.000532147
0.000523478
0.000508212
0.000523488
0.000537528
0.000545698
0.000548371
0.000545679
0.000537513
0.000523486
0.000532159
0.000545695
0.000553566
0.000556144
0.000553555
0.000545695
0.000532165
0.000534985
0.00054837
0.000556145
0.000558688
0.000556137
0.000548375
0.00053499
0.00053215
0.000545683
0.000553558
0.000556136
0.000553552
0.000545695
0.000532161
0.000523482
0.000537523
0.000545688
0.000548364
0.000545691
0.000537535
0.000523497
0.000508213
0.000523477
0.000532146
0.000534975
0.000532155
0.000523501
0.000508233
0.000465703
0.000441066
0.000411054
0.000375223
0.00033259
0.000280824
0.000213095
0.000105688
0.000484268
0.000459343
0.000429039
0.000392503
0.000348525
0.0002946
0.000223564
0.000108282
0.000495004
0.000470488
0.000440208
0.000403311
0.000358491
0.000303134
0.000229897
0.000109962
0.000498571
0.000474245
0.000444006
0.000407
0.000361894
0.000306045
0.000232051
0.000110565
0.000494993
0.000470477
0.000440198
0.000403303
0.000358484
0.000303128
0.000229892
0.000109962
0.00048425
0.000459322
0.000429018
0.000392484
0.000348507
0.000294584
0.000223551
0.000108281
0.000465677
0.000441038
0.000411024
0.000375192
0.000332559
0.000280793
0.000213068
0.00010568
0.000465697
0.000441058
0.000411041
0.000375202
0.000332558
0.000280781
0.000213048
0.000105705
0.000484253
0.000459327
0.000429023
0.000392483
0.000348499
0.000294567
0.000223528
0.000108299
0.00049498
0.000470466
0.000440189
0.000403291
0.000358468
0.000303107
0.000229869
0.000109981
0.00049854
0.000474218
0.000443983
0.000406976
0.000361868
0.000306014
0.00023202
0.000110581
0.00049496
0.000470448
0.000440171
0.000403272
0.000358446
0.000303085
0.000229849
0.000109969
0.000484218
0.000459291
0.000428983
0.000392439
0.000348452
0.000294519
0.000223484
0.000108272
0.000465643
0.000441
0.000410976
0.000375129
0.000332481
0.000280702
0.000212973
0.000105656
0.000465844
0.000441193
0.000411156
0.000375287
0.000332604
0.000280782
0.000213009
0.000105707
0.000484419
0.000459492
0.000429176
0.000392616
0.000348601
0.000294631
0.000223556
0.000108344
0.000495165
0.000470654
0.00044037
0.000403457
0.000358608
0.000303212
0.000229936
0.000110049
0.000498737
0.000474417
0.000444173
0.000407151
0.000362018
0.00030613
0.000232096
0.000110651
0.00049516
0.000470642
0.000440353
0.000403437
0.000358587
0.000303191
0.000229915
0.000110032
0.000484409
0.000459469
0.000429146
0.000392581
0.000348565
0.000294594
0.000223519
0.000108315
0.000465813
0.000441156
0.000411116
0.000375246
0.000332563
0.00028074
0.000212968
0.000105674
0.000467056
0.000442427
0.000412378
0.000376451
0.000333657
0.000281664
0.000213656
0.000106077
0.0004856
0.000460714
0.00043041
0.000393814
0.000349699
0.000295557
0.000224229
0.000108707
0.000496321
0.000471864
0.000441607
0.000404673
0.000359733
0.000304164
0.000230622
0.000110402
0.00049988
0.000475621
0.000445412
0.000408372
0.000363152
0.000307092
0.000232789
0.000111004
0.000496308
0.000471852
0.000441595
0.000404659
0.000359717
0.000304148
0.000230607
0.00011039
0.000485588
0.0004607
0.000430396
0.000393799
0.000349685
0.000295541
0.000224211
0.00010869
0.000467042
0.000442415
0.000412372
0.000376451
0.000333662
0.000281672
0.000213664
0.000106076
0.000472093
0.000447824
0.000418072
0.000382292
0.000339399
0.000286944
0.000217924
0.000108259
0.000490294
0.000465856
0.000435939
0.000399588
0.000355472
0.000300938
0.000228612
0.000110894
0.00050079
0.000476817
0.000446997
0.000410369
0.000365497
0.000309594
0.000235072
0.000112595
0.000504269
0.000480506
0.000450755
0.000414047
0.000368915
0.000312539
0.000237265
0.000113203
0.000500789
0.000476817
0.000446998
0.000410368
0.000365489
0.000309583
0.000235064
0.000112589
0.000490304
0.000465865
0.000435943
0.000399586
0.000355466
0.000300929
0.000228603
0.000110881
0.000472102
0.000447832
0.000418076
0.00038229
0.000339392
0.000286934
0.000217913
0.000108241
0.000487714
0.000465708
0.000438472
0.000405264
0.000364684
0.000313704
0.000243909
0.000128034
0.000504145
0.000482101
0.00045488
0.000421397
0.000380036
0.000327551
0.000255075
0.000130936
0.000513583
0.000492021
0.000464988
0.0004314
0.000389554
0.00033607
0.000261813
0.000132872
0.000516703
0.000495349
0.000468416
0.000434808
0.000392795
0.000338967
0.000264107
0.000133576
0.000513574
0.000492009
0.000464988
0.000431413
0.000389569
0.000336085
0.000261834
0.000132882
0.000504153
0.000482109
0.000454893
0.000421412
0.000380057
0.000327585
0.000255115
0.000130948
0.000487738
0.000465737
0.000438511
0.000405305
0.000364734
0.000313766
0.000243972
0.000128048
0.000465715
0.000441077
0.000411067
0.000375237
0.000332607
0.000280842
0.000213112
0.000105698
0.000484283
0.000459363
0.000429061
0.000392528
0.000348553
0.000294629
0.000223591
0.000108298
0.000495024
0.000470512
0.000440234
0.000403338
0.000358519
0.000303161
0.000229921
0.000109975
0.000498596
0.000474272
0.000444032
0.000407025
0.000361919
0.000306068
0.000232072
0.000110575
0.000495022
0.000470505
0.000440223
0.000403326
0.000358506
0.000303149
0.000229911
0.000109967
0.00048428
0.000459351
0.000429044
0.000392508
0.000348531
0.000294606
0.000223569
0.000108281
0.000465702
0.000441068
0.000411053
0.00037522
0.000332587
0.00028082
0.00021309
0.000105678
0.000465707
0.000441072
0.000411061
0.000375226
0.000332586
0.000280811
0.000213078
0.000105728
0.000484272
0.000459362
0.000429064
0.00039253
0.00034855
0.000294621
0.000223582
0.000108339
0.000495013
0.000470512
0.000440239
0.000403345
0.000358523
0.000303163
0.000229923
0.000110022
0.000498583
0.000474271
0.000444038
0.000407033
0.000361926
0.000306073
0.000232076
0.000110623
0.000495008
0.000470504
0.000440229
0.000403333
0.000358511
0.000303152
0.000229914
0.000110017
0.000484268
0.000459352
0.00042905
0.000392512
0.00034853
0.0002946
0.000223563
0.000108329
0.000465691
0.000441068
0.000411055
0.000375218
0.000332577
0.000280803
0.000213072
0.000105724
0.000465858
0.000441208
0.000411172
0.000375304
0.000332624
0.000280804
0.000213033
0.000105729
0.00048443
0.000459513
0.0004292
0.000392641
0.000348629
0.000294663
0.000223589
0.000108376
0.000495182
0.000470679
0.000440397
0.000403486
0.000358639
0.000303245
0.000229969
0.000110083
0.000498759
0.000474448
0.000444208
0.000407188
0.000362057
0.000306169
0.000232133
0.000110688
0.00049519
0.000470685
0.000440401
0.000403487
0.000358636
0.000303239
0.00022996
0.000110073
0.000484452
0.000459529
0.000429209
0.000392644
0.000348626
0.000294653
0.000223575
0.000108362
0.000465862
0.000441229
0.00041119
0.000375317
0.000332631
0.000280808
0.000213034
0.000105727
0.000467057
0.000442427
0.000412376
0.000376447
0.000333651
0.000281656
0.000213646
0.000106075
0.00048559
0.000460705
0.000430395
0.000393792
0.000349673
0.000295527
0.000224198
0.000108695
0.000496309
0.000471853
0.000441589
0.000404649
0.000359705
0.000304132
0.000230591
0.000110393
0.000499872
0.000475617
0.000445403
0.00040836
0.000363136
0.000307072
0.000232769
0.000111002
0.000496309
0.000471857
0.000441598
0.000404661
0.000359718
0.000304147
0.000230604
0.000110397
0.000485593
0.000460711
0.000430407
0.000393812
0.000349698
0.000295553
0.000224219
0.000108702
0.000467039
0.000442425
0.000412385
0.000376465
0.000333676
0.000281682
0.000213667
0.000106081
0.000472093
0.000447822
0.000418066
0.000382282
0.000339385
0.000286928
0.000217906
0.000108249
0.000490279
0.000465843
0.000435917
0.000399555
0.00035543
0.00030089
0.000228563
0.000110866
0.000500777
0.000476801
0.000446969
0.00041033
0.000365445
0.000309533
0.000235011
0.000112563
0.000504259
0.000480492
0.000450729
0.000414011
0.00036887
0.000312488
0.000237211
0.000113177
0.000500777
0.000476804
0.00044698
0.000410345
0.000365463
0.000309553
0.000235033
0.000112577
0.000490293
0.000465858
0.000435934
0.00039958
0.000355462
0.000300927
0.0002286
0.000110887
0.000472085
0.000447831
0.00041808
0.000382302
0.00033941
0.000286956
0.000217935
0.000108262
0.000487701
0.000465693
0.000438455
0.000405244
0.000364664
0.000313682
0.000243887
0.000128025
0.000504114
0.000482075
0.000454851
0.000421359
0.000379987
0.000327497
0.000255023
0.000130907
0.000513553
0.000491996
0.000464957
0.00043136
0.000389501
0.000336007
0.000261752
0.00013284
0.000516681
0.00049533
0.000468388
0.00043477
0.000392748
0.000338911
0.000264049
0.000133542
0.000513561
0.000491998
0.000464968
0.000431378
0.000389523
0.000336034
0.000261783
0.000132847
0.000504134
0.000482091
0.000454868
0.000421375
0.000380011
0.000327534
0.000255066
0.000130915
0.000487708
0.000465711
0.000438479
0.000405266
0.000364691
0.000313724
0.000243934
0.000128027
0.000465703
0.000441069
0.000411054
0.000375221
0.000332586
0.000280817
0.000213087
0.000105673
0.00048428
0.000459353
0.000429046
0.000392508
0.000348529
0.000294602
0.000223564
0.000108273
0.000495021
0.000470504
0.000440222
0.000403324
0.000358502
0.000303144
0.000229905
0.00010996
0.000498593
0.000474267
0.000444026
0.000407019
0.000361913
0.000306062
0.000232065
0.000110568
0.000495017
0.000470503
0.000440224
0.000403329
0.000358509
0.000303151
0.000229912
0.000109966
0.000484276
0.000459353
0.000429051
0.000392517
0.00034854
0.000294614
0.000223576
0.000108286
0.000465699
0.000441073
0.000411061
0.00037523
0.000332597
0.000280829
0.000213099
0.000105686
0.000465695
0.000441071
0.000411058
0.000375222
0.000332582
0.000280808
0.000213076
0.000105725
0.000484274
0.000459359
0.000429058
0.000392521
0.000348541
0.000294612
0.000223575
0.000108334
0.000495011
0.00047051
0.000440238
0.000403344
0.000358524
0.000303164
0.000229926
0.000110022
0.000498583
0.000474276
0.000444046
0.000407043
0.000361937
0.000306083
0.000232086
0.000110627
0.000495012
0.000470516
0.000440245
0.00040335
0.000358529
0.000303169
0.000229928
0.000110023
0.000484276
0.000459365
0.000429065
0.000392529
0.000348548
0.00029462
0.000223581
0.000108339
0.000465688
0.00044107
0.000411058
0.000375223
0.000332583
0.000280809
0.000213077
0.000105727
0.00046586
0.00044123
0.000411195
0.000375326
0.000332644
0.000280825
0.000213053
0.000105739
0.00048445
0.000459533
0.000429219
0.000392659
0.000348646
0.000294678
0.000223603
0.000108382
0.000495193
0.000470693
0.000440411
0.000403499
0.000358652
0.000303258
0.000229982
0.000110089
0.000498766
0.000474457
0.000444216
0.000407196
0.000362066
0.000306181
0.000232146
0.000110696
0.000495191
0.000470685
0.0004404
0.000403489
0.000358644
0.000303252
0.000229975
0.000110084
0.000484438
0.000459514
0.000429199
0.000392643
0.000348632
0.000294665
0.000223589
0.000108374
0.000465828
0.000441202
0.000411171
0.000375305
0.000332624
0.000280804
0.000213032
0.000105728
0.000467039
0.000442433
0.000412395
0.000376476
0.000333687
0.000281696
0.000213685
0.000106096
0.0004856
0.000460722
0.000430422
0.00039383
0.000349718
0.000295577
0.000224246
0.00010872
0.00049632
0.000471866
0.000441608
0.000404674
0.000359736
0.000304167
0.000230624
0.000110411
0.000499873
0.000475618
0.00044541
0.000408371
0.00036315
0.000307088
0.000232783
0.00011101
0.000496298
0.000471853
0.000441596
0.000404658
0.000359714
0.000304143
0.0002306
0.000110398
0.000485585
0.000460712
0.000430402
0.000393798
0.000349678
0.00029553
0.000224198
0.000108693
0.00046703
0.000442416
0.000412367
0.00037644
0.000333645
0.000281649
0.000213636
0.00010607
0.000472082
0.000447827
0.000418079
0.000382298
0.000339404
0.00028695
0.00021793
0.000108257
0.000490282
0.000465847
0.000435926
0.000399574
0.000355457
0.000300923
0.000228598
0.000110884
0.000500772
0.000476801
0.000446975
0.000410344
0.000365468
0.00030956
0.000235035
0.000112576
0.000504256
0.00048049
0.000450729
0.000414013
0.000368875
0.000312495
0.00023722
0.000113181
0.000500776
0.000476794
0.000446964
0.000410329
0.000365444
0.000309534
0.000235018
0.00011257
0.000490288
0.00046584
0.000435912
0.000399553
0.000355428
0.000300887
0.000228562
0.000110867
0.000472056
0.00044781
0.000418063
0.000382279
0.000339378
0.000286916
0.000217893
0.00010824
0.000487702
0.00046571
0.000438478
0.000405267
0.00036469
0.000313719
0.000243929
0.000128027
0.000504135
0.000482095
0.000454865
0.000421373
0.000380008
0.000327526
0.00025505
0.00013091
0.000513568
0.000492012
0.000464968
0.000431369
0.000389518
0.000336031
0.000261769
0.000132842
0.000516685
0.000495332
0.000468388
0.000434767
0.000392743
0.00033891
0.000264049
0.000133537
0.000513545
0.000491987
0.000464957
0.000431367
0.000389504
0.000336011
0.000261763
0.000132841
0.000504114
0.000482078
0.000454847
0.000421353
0.000379984
0.000327496
0.000255025
0.000130903
0.000487701
0.000465712
0.000438469
0.000405248
0.000364668
0.000313694
0.000243901
0.00012802
0.000465677
0.000441038
0.000411024
0.000375191
0.000332557
0.00028079
0.000213064
0.000105676
0.000484251
0.000459323
0.000429018
0.000392481
0.000348503
0.000294578
0.000223543
0.000108274
0.000494993
0.000470477
0.000440196
0.000403299
0.000358478
0.000303121
0.000229884
0.000109954
0.000498568
0.000474241
0.000444002
0.000406994
0.000361888
0.000306038
0.000232044
0.000110559
0.000495
0.000470482
0.000440201
0.000403304
0.000358483
0.000303127
0.00022989
0.000109956
0.000484267
0.000459338
0.000429032
0.000392495
0.000348516
0.000294591
0.000223555
0.000108274
0.000465697
0.000441067
0.000411053
0.00037522
0.000332586
0.000280818
0.000213089
0.000105682
0.000465645
0.000440999
0.000410974
0.000375128
0.000332481
0.000280701
0.00021297
0.00010565
0.000484222
0.000459291
0.000428981
0.000392438
0.000348453
0.00029452
0.000223483
0.000108267
0.000494963
0.000470448
0.00044017
0.000403273
0.00035845
0.000303088
0.000229851
0.000109965
0.000498542
0.000474221
0.000443986
0.000406981
0.000361873
0.000306019
0.000232023
0.000110579
0.000494981
0.000470469
0.000440193
0.000403296
0.000358472
0.00030311
0.000229871
0.000109979
0.000484255
0.00045933
0.000429024
0.000392483
0.000348497
0.000294564
0.000223524
0.000108295
0.000465675
0.000441057
0.000411041
0.0003752
0.000332555
0.000280776
0.00021304
0.000105698
0.00046581
0.000441161
0.000411125
0.000375259
0.000332579
0.000280759
0.000212989
0.000105685
0.000484406
0.000459477
0.000429164
0.000392606
0.000348594
0.000294626
0.000223552
0.000108336
0.000495161
0.000470652
0.000440372
0.000403462
0.000358614
0.00030322
0.000229944
0.000110051
0.000498746
0.00047443
0.000444191
0.000407171
0.00036204
0.000306154
0.000232119
0.000110665
0.000495182
0.000470669
0.000440384
0.000403471
0.000358625
0.000303231
0.000229953
0.000110058
0.000484441
0.000459508
0.000429189
0.000392628
0.000348614
0.000294644
0.000223567
0.000108349
0.000465833
0.000441203
0.000411168
0.000375298
0.000332615
0.000280792
0.000213018
0.000105711
0.000467047
0.000442425
0.000412382
0.000376462
0.000333675
0.000281689
0.000213685
0.000106094
0.000485601
0.000460717
0.000430415
0.00039382
0.000349709
0.000295571
0.000224245
0.000108714
0.000496327
0.000471868
0.00044161
0.000404677
0.00035974
0.000304174
0.000230634
0.00011041
0.000499889
0.00047563
0.000445424
0.000408389
0.000363173
0.000307114
0.00023281
0.000111018
0.000496321
0.000471872
0.000441622
0.00040469
0.000359752
0.000304184
0.000230642
0.000110414
0.000485607
0.000460733
0.000430431
0.000393835
0.000349721
0.000295578
0.000224246
0.000108714
0.000467042
0.000442431
0.000412388
0.000376465
0.000333673
0.00028168
0.000213668
0.000106084
0.0004721
0.000447828
0.000418072
0.000382283
0.000339382
0.000286923
0.000217903
0.000108232
0.000490299
0.000465855
0.000435931
0.000399572
0.00035545
0.000300913
0.000228587
0.00011087
0.000500789
0.000476818
0.000446995
0.000410363
0.000365486
0.000309578
0.000235053
0.00011258
0.000504276
0.000480516
0.000450761
0.000414048
0.000368914
0.000312537
0.000237261
0.0001132
0.0005008
0.000476824
0.000447004
0.000410375
0.000365495
0.00030959
0.000235074
0.000112598
0.000490313
0.000465868
0.000435948
0.000399596
0.000355476
0.000300941
0.000228616
0.000110898
0.00047207
0.000447827
0.000418082
0.000382301
0.000339405
0.000286945
0.000217923
0.00010826
0.000487733
0.000465736
0.000438509
0.000405306
0.000364733
0.000313763
0.000243968
0.000128047
0.000504151
0.00048211
0.000454894
0.000421414
0.000380058
0.000327579
0.000255104
0.000130942
0.000513576
0.000492018
0.000464992
0.000431404
0.000389562
0.000336079
0.000261821
0.000132875
0.000516694
0.000495341
0.000468413
0.000434802
0.000392785
0.000338957
0.000264099
0.000133571
0.00051356
0.000491996
0.000464977
0.000431397
0.000389543
0.000336057
0.00026181
0.000132873
0.00050413
0.000482086
0.000454862
0.000421375
0.000380012
0.00032753
0.000255061
0.000130927
0.000487699
0.000465708
0.000438467
0.000405249
0.000364671
0.000313696
0.000243904
0.000128025
0.000169953
0.000372684
0.000468413
0.000526851
0.00056205
0.000580256
0.000584622
0.000575852
0.000169956
0.000372692
0.000468424
0.000526866
0.000562068
0.000580278
0.00058465
0.000575885
0.000169954
0.00037269
0.000468422
0.000526862
0.000562065
0.000580279
0.000584657
0.0005759
0.000169955
0.000372688
0.000468417
0.000526854
0.000562052
0.000580259
0.000584627
0.000575861
0.000169956
0.00037269
0.000468421
0.000526859
0.000562057
0.000580262
0.000584626
0.000575853
0.000169958
0.000372694
0.000468426
0.000526866
0.000562067
0.000580272
0.000584631
0.000575844
0.000169957
0.000372695
0.000468427
0.000526867
0.000562068
0.000580276
0.000584644
0.000575876
0.000169985
0.000372658
0.000468394
0.000526836
0.000562041
0.000580255
0.000584633
0.000575878
0.000169989
0.000372658
0.000468395
0.000526837
0.00056204
0.000580251
0.000584624
0.000575865
0.000169988
0.000372657
0.000468395
0.000526839
0.000562041
0.000580249
0.000584619
0.000575856
0.000169986
0.000372653
0.000468395
0.000526841
0.000562047
0.000580258
0.000584631
0.000575873
0.000169984
0.00037265
0.000468394
0.000526841
0.000562048
0.000580263
0.000584637
0.000575882
0.000169984
0.000372651
0.000468395
0.000526843
0.000562049
0.000580262
0.000584636
0.000575883
0.000169984
0.000372652
0.000468398
0.000526847
0.000562052
0.000580261
0.000584626
0.00057586
0.000170077
0.000372709
0.000468501
0.000526951
0.000562126
0.000580298
0.000584637
0.000575862
0.000170078
0.000372713
0.000468508
0.000526956
0.00056213
0.000580302
0.000584644
0.000575871
0.000170077
0.000372714
0.000468508
0.000526956
0.000562131
0.000580303
0.000584646
0.000575875
0.000170076
0.000372713
0.000468507
0.000526953
0.000562129
0.0005803
0.000584642
0.00057587
0.000170076
0.000372712
0.000468507
0.000526954
0.00056213
0.000580301
0.000584642
0.000575868
0.000170075
0.000372712
0.000468508
0.000526956
0.000562132
0.000580302
0.000584641
0.000575865
0.000170074
0.000372711
0.000468508
0.000526957
0.000562135
0.000580306
0.000584646
0.000575874
0.000170515
0.000373415
0.000469334
0.000527644
0.000562594
0.000580551
0.00058473
0.000575856
0.000170519
0.000373423
0.000469336
0.000527647
0.000562596
0.000580553
0.000584732
0.000575854
0.000170522
0.000373422
0.000469336
0.000527648
0.000562599
0.000580555
0.000584735
0.000575858
0.000170522
0.000373421
0.000469335
0.000527648
0.000562598
0.000580555
0.000584735
0.000575858
0.000170522
0.000373421
0.000469335
0.000527648
0.000562599
0.000580556
0.000584737
0.00057586
0.000170522
0.000373419
0.000469334
0.000527649
0.000562599
0.000580555
0.000584733
0.000575857
0.00017052
0.000373417
0.000469333
0.000527649
0.000562601
0.000580556
0.000584733
0.000575855
0.000173179
0.000377563
0.000473183
0.000530429
0.00056428
0.000581356
0.00058494
0.000575726
0.000173184
0.000377569
0.000473188
0.000530433
0.000564282
0.000581361
0.000584945
0.000575733
0.000173184
0.00037757
0.000473188
0.000530433
0.000564283
0.000581361
0.000584945
0.00057573
0.000173184
0.000377569
0.000473186
0.00053043
0.000564279
0.000581357
0.000584942
0.00057573
0.000173183
0.000377566
0.000473183
0.000530428
0.000564277
0.000581356
0.000584941
0.000575728
0.000173181
0.000377563
0.000473181
0.000530427
0.000564277
0.000581356
0.000584939
0.000575724
0.000173178
0.00037756
0.000473179
0.000530427
0.000564278
0.000581356
0.000584939
0.000575725
0.000202392
0.000400108
0.000487978
0.000539111
0.000568693
0.000583013
0.000584966
0.000574913
0.00020241
0.000400113
0.000487985
0.00053912
0.000568701
0.000583019
0.000584969
0.000574913
0.000202425
0.000400112
0.000487982
0.000539118
0.000568701
0.00058302
0.000584972
0.000574918
0.000202428
0.000400109
0.000487979
0.000539117
0.000568699
0.000583017
0.000584968
0.000574912
0.000202416
0.000400105
0.000487978
0.000539115
0.000568697
0.000583015
0.000584967
0.000574912
0.000202394
0.000400097
0.000487974
0.000539112
0.000568695
0.000583014
0.000584966
0.000574912
0.000202376
0.000400091
0.000487969
0.00053911
0.000568696
0.000583015
0.000584967
0.000574912
0.000169951
0.000372682
0.000468412
0.000526852
0.000562055
0.000580265
0.000584637
0.000575875
0.000169952
0.000372683
0.000468414
0.000526855
0.000562057
0.000580268
0.000584641
0.00057588
0.000169951
0.000372683
0.000468412
0.000526852
0.000562054
0.000580265
0.000584639
0.000575876
0.000169952
0.000372684
0.000468413
0.000526852
0.000562055
0.000580266
0.000584639
0.000575874
0.000169952
0.000372683
0.000468413
0.000526852
0.000562055
0.000580268
0.000584642
0.000575879
0.000169951
0.000372681
0.000468411
0.000526851
0.000562054
0.000580267
0.000584642
0.000575882
0.000169951
0.00037268
0.000468411
0.000526849
0.000562052
0.000580265
0.000584638
0.000575875
0.000169983
0.000372655
0.00046839
0.000526832
0.000562036
0.00058025
0.000584627
0.000575871
0.000169986
0.000372653
0.000468389
0.000526832
0.000562037
0.00058025
0.000584625
0.000575868
0.000169984
0.000372651
0.000468389
0.000526834
0.000562039
0.000580252
0.000584627
0.000575871
0.000169983
0.000372647
0.000468387
0.000526833
0.000562039
0.000580252
0.000584625
0.000575869
0.00016998
0.000372644
0.000468386
0.000526832
0.000562038
0.000580251
0.000584624
0.000575868
0.000169978
0.000372641
0.000468385
0.000526832
0.000562039
0.000580251
0.000584625
0.000575868
0.000169978
0.000372641
0.000468385
0.000526833
0.000562041
0.000580254
0.000584628
0.000575873
0.000170075
0.000372705
0.000468498
0.000526949
0.000562126
0.0005803
0.000584642
0.000575869
0.000170074
0.000372706
0.000468501
0.000526949
0.000562125
0.000580299
0.000584642
0.000575871
0.000170073
0.000372706
0.0004685
0.000526948
0.000562124
0.000580297
0.00058464
0.000575868
0.000170072
0.000372707
0.000468501
0.000526948
0.000562125
0.000580298
0.000584642
0.000575871
0.000170071
0.000372706
0.0004685
0.000526948
0.000562125
0.000580298
0.000584642
0.000575872
0.00017007
0.000372703
0.000468498
0.000526946
0.000562124
0.000580298
0.000584643
0.000575873
0.00017007
0.000372702
0.000468496
0.000526945
0.000562124
0.000580298
0.000584642
0.000575872
0.000170512
0.000373412
0.000469331
0.000527642
0.000562593
0.000580551
0.00058473
0.000575857
0.000170516
0.000373417
0.00046933
0.000527642
0.000562593
0.00058055
0.000584731
0.000575853
0.000170518
0.000373415
0.000469329
0.000527642
0.000562594
0.000580553
0.000584734
0.000575859
0.000170518
0.000373415
0.000469328
0.000527641
0.000562593
0.000580552
0.000584733
0.000575857
0.000170518
0.000373415
0.000469328
0.000527641
0.000562593
0.000580551
0.000584732
0.000575857
0.000170518
0.000373413
0.000469327
0.000527641
0.000562593
0.00058055
0.000584732
0.000575857
0.000170517
0.000373412
0.000469326
0.000527641
0.000562593
0.000580551
0.000584732
0.000575858
0.000173178
0.000377561
0.000473181
0.000530429
0.000564279
0.000581357
0.000584942
0.000575729
0.000173182
0.000377566
0.000473184
0.000530429
0.000564279
0.000581358
0.000584943
0.000575732
0.000173182
0.000377566
0.000473183
0.000530428
0.000564279
0.000581358
0.000584942
0.000575728
0.000173183
0.000377568
0.000473183
0.000530428
0.000564277
0.000581355
0.000584941
0.000575729
0.000173182
0.000377567
0.000473183
0.000530427
0.000564276
0.000581355
0.000584941
0.000575729
0.000173181
0.000377567
0.000473183
0.000530428
0.000564277
0.000581355
0.00058494
0.000575729
0.00017318
0.000377567
0.000473183
0.000530428
0.000564277
0.000581355
0.000584939
0.000575727
0.000202393
0.000400111
0.000487979
0.000539112
0.000568694
0.000583014
0.000584967
0.000574914
0.000202411
0.000400117
0.000487986
0.00053912
0.0005687
0.000583017
0.000584967
0.000574911
0.000202428
0.000400115
0.000487983
0.000539117
0.000568699
0.000583018
0.00058497
0.000574916
0.000202433
0.000400114
0.000487983
0.000539118
0.000568701
0.000583018
0.000584968
0.000574912
0.000202423
0.000400115
0.000487987
0.000539122
0.000568702
0.000583018
0.000584968
0.000574913
0.000202406
0.000400113
0.000487986
0.000539122
0.000568702
0.000583018
0.000584968
0.000574912
0.000202392
0.000400111
0.000487985
0.000539122
0.000568702
0.000583018
0.000584968
0.000574912
0.000169951
0.000372681
0.000468411
0.000526851
0.000562054
0.000580267
0.00058464
0.000575876
0.000169952
0.000372682
0.000468412
0.000526852
0.000562056
0.000580271
0.000584646
0.000575885
0.000169952
0.000372682
0.000468411
0.00052685
0.000562054
0.000580267
0.000584642
0.000575882
0.000169952
0.000372682
0.000468411
0.000526848
0.00056205
0.00058026
0.000584631
0.000575865
0.000169953
0.000372683
0.000468412
0.000526851
0.000562053
0.000580266
0.000584638
0.000575873
0.000169954
0.000372685
0.000468414
0.000526852
0.000562054
0.000580268
0.000584647
0.00057589
0.000169955
0.000372687
0.000468417
0.000526855
0.000562054
0.000580265
0.000584641
0.00057588
0.000169978
0.000372642
0.000468385
0.000526832
0.00056204
0.000580254
0.000584628
0.000575872
0.000169978
0.000372642
0.000468385
0.000526831
0.000562038
0.000580251
0.000584623
0.000575866
0.000169979
0.000372642
0.000468386
0.000526832
0.000562039
0.000580251
0.000584624
0.000575866
0.000169979
0.000372643
0.000468386
0.000526833
0.000562041
0.000580254
0.000584629
0.000575875
0.000169979
0.000372643
0.000468385
0.000526832
0.000562039
0.000580251
0.000584625
0.000575869
0.00016998
0.000372645
0.000468386
0.000526831
0.000562036
0.000580247
0.000584619
0.000575859
0.000169985
0.000372646
0.000468389
0.000526835
0.00056204
0.000580251
0.000584621
0.000575863
0.00017007
0.000372703
0.000468496
0.000526945
0.000562124
0.000580298
0.000584642
0.000575871
0.000170071
0.000372703
0.000468497
0.000526946
0.000562123
0.000580298
0.000584643
0.000575873
0.000170072
0.000372704
0.000468497
0.000526945
0.000562123
0.000580297
0.000584643
0.000575873
0.000170072
0.000372705
0.000468497