/*--------------------------------*- C++ -*----------------------------------*\
| =========                 |                                                 |
| \\      /  F ield         | OpenFOAM: The Open Source CFD Toolbox           |
|  \\    /   O peration     | Version:  plus.master.MPPICInterFoam            |
|   \\  /    A nd           | Web:      www.OpenFOAM.com                      |
|    \\/     M anipulation  |                                                 |
\*---------------------------------------------------------------------------*/
FoamFile
{
    version     2.0;
    format      ascii;
    class       surfaceScalarField;
    location    "1.6";
    object      phi;
}
// * * * * * * * * * * * * * * * * * * * * * * * * * * * * * * * * * * * * * //

dimensions      [0 3 -1 0 0 0 0];

internalField   nonuniform List<scalar> 
34319
(
-8.03817e-10
-7.97478e-10
2.58664e-07
9.0234e-10
8.80856e-10
-3.91397e-10
-8.68718e-10
2.59054e-07
1.11717e-09
-1.0605e-10
-9.5251e-10
2.59225e-07
1.2393e-09
1.69254e-10
-9.87954e-10
2.59263e-07
1.29389e-09
4.30758e-10
-9.48726e-10
2.59214e-07
1.25337e-09
6.70894e-10
-8.48619e-10
2.59031e-07
1.13647e-09
-7.31478e-10
2.58638e-07
9.43791e-10
9.31622e-10
-8.79707e-10
-3.94805e-10
2.59055e-07
1.13876e-09
-4.306e-10
-4.25657e-10
2.59177e-07
-1.16162e-10
-4.74359e-10
2.59181e-07
1.89623e-10
-4.92285e-10
2.59166e-07
4.90267e-10
-4.62059e-10
2.5917e-07
7.84924e-10
-3.94926e-10
2.59153e-07
-3.34875e-10
2.59023e-07
1.08552e-09
-9.62887e-10
-1.14811e-10
2.59228e-07
1.25571e-09
-4.82395e-10
-1.17899e-10
2.59183e-07
-1.29632e-10
-1.2636e-10
2.59104e-07
2.18447e-10
-1.23743e-10
2.59065e-07
5.65488e-10
-1.05881e-10
2.59092e-07
9.07401e-10
-7.82704e-11
2.59157e-07
-6.17209e-11
2.59192e-07
1.23292e-09
-9.98445e-10
1.56373e-10
2.59267e-07
1.30622e-09
-5.01441e-10
1.84728e-10
2.59168e-07
-1.29743e-10
2.19609e-10
2.59065e-07
2.38144e-10
2.42267e-10
2.59019e-07
6.06899e-10
2.46261e-10
2.59052e-07
9.70327e-10
2.32427e-10
2.59139e-07
2.09737e-10
2.59228e-07
1.30644e-09
-9.60557e-10
4.16828e-10
2.59218e-07
1.26574e-09
-4.7279e-10
4.8457e-10
2.59172e-07
-1.14477e-10
5.63842e-10
2.59093e-07
2.402e-10
6.05399e-10
2.59052e-07
5.95518e-10
5.94042e-10
2.59077e-07
9.47501e-10
5.37805e-10
2.5914e-07
4.71848e-10
2.59176e-07
1.27583e-09
-8.63442e-10
6.61506e-10
2.59034e-07
1.1453e-09
-4.11074e-10
7.78146e-10
2.59154e-07
-9.31095e-11
9.00747e-10
2.59156e-07
2.2292e-10
9.62961e-10
2.59138e-07
5.38197e-10
9.38018e-10
2.5914e-07
8.5092e-10
8.38571e-10
2.5912e-07
7.2199e-10
2.58991e-07
1.15337e-09
-7.5068e-10
2.5864e-07
1.08872e-09
7.94854e-10
-3.59387e-10
2.59023e-07
1.07727e-09
-8.30769e-11
2.59191e-07
1.22397e-09
1.9496e-10
2.59227e-07
1.29642e-09
4.67577e-10
2.59176e-07
1.25967e-09
7.33117e-10
2.58991e-07
1.12862e-09
2.58599e-07
9.97299e-10
9.69996e-10
-1.39235e-09
-1.41395e-09
2.58134e-07
1.68613e-09
1.72432e-09
-8.30459e-10
-1.53646e-09
2.5838e-07
1.93895e-09
-2.80133e-10
-1.6461e-09
2.58467e-07
2.09356e-09
2.78061e-10
-1.69733e-09
2.58479e-07
2.17726e-09
7.97753e-10
-1.66473e-09
2.58463e-07
2.15149e-09
1.24536e-09
-1.55862e-09
2.58371e-07
2.01703e-09
-1.41837e-09
2.58127e-07
1.61006e-09
1.78893e-09
-1.51834e-09
-8.47934e-10
2.58381e-07
1.91677e-09
-9.04094e-10
-9.16835e-10
2.58348e-07
-3.06317e-10
-9.79884e-10
2.58257e-07
3.02153e-10
-1.00855e-09
2.58211e-07
8.73173e-10
-9.88938e-10
2.5825e-07
1.36712e-09
-9.2651e-10
2.58333e-07
-8.47414e-10
2.58364e-07
1.75748e-09
-1.63162e-09
-2.99812e-10
2.5847e-07
2.07994e-09
-9.71005e-10
-3.1906e-10
2.58258e-07
-3.29882e-10
-3.36935e-10
2.58077e-07
3.23442e-10
-3.45022e-10
2.58004e-07
9.43054e-10
-3.39518e-10
2.58067e-07
1.48673e-09
-3.23363e-10
2.58238e-07
-3.00442e-10
2.58448e-07
1.92337e-09
-1.68469e-09
2.58395e-10
2.58483e-07
2.15568e-09
-1.00114e-09
2.91379e-10
2.58213e-07
-3.40872e-10
3.17898e-10
2.58004e-07
3.32079e-10
3.2774e-10
2.57923e-07
9.73014e-10
3.16004e-10
2.57993e-07
1.54665e-09
2.90355e-10
2.5819e-07
2.59979e-10
2.58456e-07
2.01255e-09
-1.6525e-09
7.8796e-10
2.58467e-07
2.12432e-09
-9.83348e-10
8.68882e-10
2.58252e-07
-3.39088e-10
9.39399e-10
2.58069e-07
3.18666e-10
9.71846e-10
2.57994e-07
9.52255e-10
9.53572e-10
2.58057e-07
1.52281e-09
8.85761e-10
2.58228e-07
7.9573e-10
2.58436e-07
1.98744e-09
-1.54946e-09
1.2453e-09
2.58375e-07
1.99312e-09
-9.2605e-10
1.36803e-09
2.58335e-07
-3.24094e-10
1.49396e-09
2.58241e-07
2.93368e-10
1.55641e-09
2.58193e-07
8.84487e-10
1.52776e-09
2.58228e-07
1.41427e-09
1.41747e-09
2.58309e-07
1.26975e-09
2.5834e-07
1.83991e-09
-1.41325e-09
2.5813e-07
1.86625e-09
1.52923e-09
-8.44876e-10
2.58368e-07
1.77124e-09
-3.00633e-10
2.58451e-07
1.94708e-09
2.58591e-10
2.58457e-07
2.02479e-09
7.93069e-10
2.58435e-07
1.98293e-09
1.26728e-09
2.58338e-07
1.83805e-09
2.58093e-07
1.63779e-09
1.64925e-09
-2.80018e-09
-2.85093e-09
2.56756e-07
3.48988e-09
3.58001e-09
-1.75808e-09
-3.08808e-09
2.56636e-07
3.90169e-09
-6.02041e-10
-3.28039e-09
2.56506e-07
4.18014e-09
5.95741e-10
-3.3546e-09
2.56449e-07
4.28435e-09
1.73746e-09
-3.29679e-09
2.56512e-07
4.19986e-09
2.74019e-09
-3.11363e-09
2.56649e-07
3.92391e-09
-2.87166e-09
2.56776e-07
3.46089e-09
3.6001e-09
-3.04195e-09
-1.78629e-09
2.56636e-07
3.83269e-09
-1.92143e-09
-1.94735e-09
2.56222e-07
-6.60726e-10
-2.06285e-09
2.55902e-07
6.46823e-10
-2.10676e-09
2.55781e-07
1.88964e-09
-2.07355e-09
2.55903e-07
2.96688e-09
-1.9609e-09
2.56227e-07
-1.79145e-09
2.56649e-07
3.75715e-09
-3.24518e-09
-6.13857e-10
2.56508e-07
4.128e-09
-2.04446e-09
-6.68859e-10
2.55903e-07
-7.05375e-10
-7.07635e-10
2.55483e-07
6.8132e-10
-7.25745e-10
2.5533e-07
2.00416e-09
-7.19703e-10
2.55478e-07
3.16603e-09
-6.82598e-10
2.55898e-07
-6.24116e-10
2.56507e-07
4.04009e-09
-3.32873e-09
5.99446e-10
2.56453e-07
4.24797e-09
-2.09512e-09
6.56828e-10
2.55785e-07
-7.2859e-10
6.96217e-10
2.55332e-07
6.85303e-10
7.07916e-10
2.55169e-07
2.04078e-09
6.88463e-10
2.55324e-07
3.23452e-09
6.43482e-10
2.55772e-07
5.8113e-10
2.5644e-07
4.1377e-09
-3.27508e-09
1.76222e-09
2.56518e-07
4.16676e-09
-2.06589e-09
1.92049e-09
2.55909e-07
-7.23045e-10
2.04678e-09
2.55482e-07
6.62238e-10
2.08861e-09
2.55325e-07
1.99102e-09
2.03785e-09
2.55473e-07
3.15341e-09
1.90558e-09
2.55892e-07
1.7317e-09
2.56498e-07
4.02439e-09
-3.09449e-09
2.78047e-09
2.56655e-07
3.89646e-09
-1.94706e-09
3.02241e-09
2.56233e-07
-6.87086e-10
3.22435e-09
2.55901e-07
6.08815e-10
3.28513e-09
2.55771e-07
1.85512e-09
3.20457e-09
2.5589e-07
2.94121e-09
2.99834e-09
2.56213e-07
2.74576e-09
2.56631e-07
3.72085e-09
-2.85117e-09
2.56781e-07
3.63006e-09
3.46556e-09
-1.78158e-09
2.56652e-07
3.81635e-09
-6.42255e-10
2.56506e-07
4.09567e-09
5.40887e-10
2.56438e-07
4.18494e-09
1.68333e-09
2.56498e-07
4.08471e-09
2.69021e-09
2.56632e-07
3.79956e-09
2.56757e-07
3.39693e-09
3.48093e-09
-6.65758e-09
-6.67451e-09
2.53214e-07
8.45324e-09
8.43371e-09
-4.18443e-09
-7.06847e-09
2.52249e-07
9.00406e-09
-1.42237e-09
-7.40545e-09
2.51605e-07
9.54158e-09
1.45535e-09
-7.52716e-09
2.5138e-07
9.71442e-09
4.23451e-09
-7.40931e-09
2.51617e-07
9.51442e-09
6.69634e-09
-7.07231e-09
2.5227e-07
8.98784e-09
-6.64741e-09
2.53246e-07
8.48065e-09
8.40378e-09
-7.05074e-09
-4.19012e-09
2.52251e-07
8.9767e-09
-4.46645e-09
-4.46564e-09
2.5101e-07
-1.5231e-09
-4.6722e-09
2.50184e-07
1.53832e-09
-4.7528e-09
2.49896e-07
4.49858e-09
-4.68887e-09
2.5019e-07
7.10006e-09
-4.48568e-09
2.51024e-07
-4.20815e-09
2.52269e-07
8.99717e-09
-7.38649e-09
-1.40354e-09
2.51608e-07
9.49638e-09
-4.67773e-09
-1.50402e-09
2.50183e-07
-1.60663e-09
-1.58261e-09
2.49263e-07
1.59066e-09
-1.61803e-09
2.48948e-07
4.69027e-09
-1.59655e-09
2.4927e-07
7.42459e-09
-1.5271e-09
2.5019e-07
-1.43561e-09
2.51613e-07
9.52371e-09
-7.51743e-09
1.47723e-09
2.51383e-07
9.67896e-09
-4.7646e-09
1.56789e-09
2.49897e-07
-1.64763e-09
1.62654e-09
2.48949e-07
1.60321e-09
1.64096e-09
2.48625e-07
4.74744e-09
1.61361e-09
2.48951e-07
7.52207e-09
1.53821e-09
2.49893e-07
1.43237e-09
2.51374e-07
9.6743e-09
-7.40512e-09
4.24763e-09
2.51625e-07
9.492e-09
-4.70615e-09
4.53113e-09
2.50195e-07
-1.6351e-09
4.72274e-09
2.49272e-07
1.57061e-09
4.78123e-09
2.48953e-07
4.6545e-09
4.69543e-09
2.49267e-07
7.36469e-09
4.47753e-09
2.50182e-07
4.1951e-09
2.51605e-07
9.44928e-09
-7.0719e-09
6.71018e-09
2.52283e-07
8.96388e-09
-4.51661e-09
7.12917e-09
2.51031e-07
-1.57527e-09
7.45841e-09
2.50196e-07
1.49232e-09
7.57257e-09
2.49902e-07
4.43302e-09
7.43182e-09
2.50187e-07
7.00604e-09
7.07237e-09
2.51013e-07
6.65789e-09
2.52257e-07
8.90896e-09
-6.67812e-09
2.53259e-07
8.42626e-09
8.46785e-09
-4.25649e-09
2.52279e-07
9.04215e-09
-1.47933e-09
2.51624e-07
9.57586e-09
1.39544e-09
2.51385e-07
9.7574e-09
4.14898e-09
2.51611e-07
9.55327e-09
6.59579e-09
2.52259e-07
8.98198e-09
2.53231e-07
8.37945e-09
8.39428e-09
-1.69391e-08
-1.68882e-08
2.43247e-07
2.19022e-08
2.18946e-08
-1.04987e-08
-1.7245e-08
2.40612e-07
2.23242e-08
-3.51377e-09
-1.76663e-08
2.39042e-07
2.31342e-08
3.63225e-09
-1.78489e-08
2.38531e-07
2.34295e-08
1.06148e-08
-1.76784e-08
2.39094e-07
2.31277e-08
1.7043e-08
-1.7259e-08
2.40703e-07
2.23242e-08
-1.68976e-08
2.43364e-07
2.19146e-08
2.18223e-08
-1.73023e-08
-1.04605e-08
2.40622e-07
2.23733e-08
-1.08191e-08
-1.07795e-08
2.37888e-07
-3.63914e-09
-1.10323e-08
2.36211e-07
3.74286e-09
-1.11194e-08
2.35662e-07
1.09246e-08
-1.10205e-08
2.36257e-07
1.7398e-08
-1.07986e-08
2.37966e-07
-1.04985e-08
2.4072e-07
2.24465e-08
-1.77288e-08
-3.47763e-09
2.39067e-07
2.31966e-08
-1.10699e-08
-3.58627e-09
2.36226e-07
-3.71393e-09
-3.67082e-09
2.34499e-07
3.83143e-09
-3.7054e-09
2.33928e-07
1.1147e-08
-3.69589e-09
2.34527e-07
1.78074e-08
-3.64121e-09
2.36279e-07
-3.55093e-09
2.39133e-07
2.32707e-08
-1.78905e-08
3.68858e-09
2.38563e-07
2.34948e-08
-1.11589e-08
3.79524e-09
2.35685e-07
-3.74519e-09
3.87277e-09
2.33938e-07
3.84355e-09
3.88322e-09
2.33355e-07
1.12162e-08
3.82397e-09
2.33952e-07
1.79652e-08
3.7231e-09
2.35714e-07
3.60337e-09
2.38601e-07
2.35516e-08
-1.77215e-08
1.06441e-08
2.39127e-07
2.32039e-08
-1.10646e-08
1.09585e-08
2.36282e-07
-3.73016e-09
1.11844e-08
2.34542e-07
3.789e-09
1.12566e-08
2.33958e-07
1.11111e-08
1.11428e-08
2.34548e-07
1.77977e-08
1.08902e-08
2.36294e-07
1.0566e-08
2.39141e-07
2.32595e-08
-1.73095e-08
1.7044e-08
2.40739e-07
2.23824e-08
-1.08364e-08
1.74282e-08
2.37994e-07
-3.66545e-09
1.78419e-08
2.36297e-07
3.68877e-09
1.7988e-08
2.35721e-07
1.08613e-08
1.7803e-08
2.36294e-07
1.73703e-08
1.73807e-08
2.3799e-07
1.70016e-08
2.40732e-07
2.2428e-08
-1.69523e-08
2.43401e-07
2.18628e-08
2.19384e-08
-1.05428e-08
2.40745e-07
2.24363e-08
-3.58134e-09
2.39148e-07
2.32459e-08
3.55853e-09
2.38603e-07
2.35384e-08
1.05395e-08
2.39134e-07
2.32229e-08
1.69862e-08
2.40725e-07
2.23969e-08
2.43374e-07
2.18687e-08
2.18989e-08
-3.54287e-08
-3.53658e-08
4.71009e-08
4.71868e-08
2.19738e-07
-2.16476e-08
-3.61249e-08
4.81015e-08
2.14707e-07
-7.16982e-09
-3.69099e-08
4.97106e-08
2.11702e-07
7.47349e-09
-3.72674e-08
5.03557e-08
2.1073e-07
2.19337e-08
-3.70229e-08
4.98223e-08
2.11746e-07
3.57964e-08
-3.63333e-08
4.82585e-08
2.14807e-07
-3.56882e-08
4.74838e-08
4.73588e-08
2.19931e-07
-3.61827e-08
-2.15527e-08
4.81547e-08
2.14708e-07
-2.2244e-08
-2.21709e-08
2.09899e-07
-7.40586e-09
-2.26319e-08
2.07003e-07
7.65185e-09
-2.28547e-08
2.06049e-07
2.24832e-08
-2.2759e-08
2.07022e-07
3.64569e-08
-2.23987e-08
2.09949e-07
-2.18642e-08
4.83643e-08
2.14825e-07
-3.69758e-08
-7.12922e-09
4.98047e-08
2.11717e-07
-2.26991e-08
-7.36325e-09
2.0701e-07
-7.60043e-09
-7.5543e-09
2.04199e-07
7.74943e-09
-7.65648e-09
2.03266e-07
2.28666e-08
-7.63775e-09
2.04196e-07
3.71692e-08
-7.51283e-09
2.0701e-07
-7.32965e-09
4.99188e-08
2.11739e-07
-3.73117e-08
7.50194e-09
5.03897e-08
2.10764e-07
-2.29023e-08
7.68266e-09
2.06068e-07
-7.69343e-09
7.78019e-09
2.03276e-07
7.78072e-09
7.81195e-09
2.02346e-07
2.30264e-08
7.76651e-09
2.03253e-07
3.74814e-08
7.63849e-09
2.06019e-07
7.40828e-09
5.05291e-08
2.10698e-07
-3.70473e-08
2.19612e-08
4.98069e-08
2.118e-07
-2.27884e-08
2.25205e-08
2.07054e-07
-7.65652e-09
2.29006e-08
2.04217e-07
7.74281e-09
2.30397e-08
2.03262e-07
2.29023e-08
2.29016e-08
2.04166e-07
3.72171e-08
2.25298e-08
2.06959e-07
2.19472e-08
5.00108e-08
2.11672e-07
-3.63732e-08
3.57638e-08
4.83395e-08
2.1488e-07
-2.24211e-08
3.64473e-08
2.09988e-07
-7.53306e-09
3.71754e-08
2.07035e-07
7.61957e-09
3.74642e-08
2.06036e-07
2.25407e-08
3.71763e-08
2.06969e-07
3.65453e-08
3.65049e-08
2.09866e-07
3.58354e-08
4.85258e-08
2.14717e-07
-3.57664e-08
4.75447e-08
4.72856e-08
2.19976e-07
-2.18922e-08
4.82999e-08
2.14838e-07
-7.35407e-09
4.99541e-08
2.11756e-07
7.3903e-09
5.05048e-08
2.10719e-07
2.1979e-08
4.99272e-08
2.11692e-07
3.5888e-08
4.85073e-08
2.14731e-07
4.75595e-08
4.76502e-08
2.19835e-07
1.53024e-09
-1.46495e-10
1.59148e-07
-2.62305e-11
2.0038e-09
-1.2189e-10
1.89386e-07
-3.97631e-12
2.3258e-09
-9.00645e-11
2.18618e-07
-1.19722e-11
2.46338e-09
-4.25086e-11
2.46757e-07
-2.2546e-11
2.36303e-09
2.15573e-11
2.73696e-07
-3.20808e-11
1.97093e-09
9.66952e-11
2.99306e-07
-3.95387e-11
1.21963e-09
1.81704e-10
3.22905e-07
-4.47872e-11
2.70613e-10
3.36188e-07
-4.76858e-11
1.54719e-09
-8.01162e-11
1.9973e-07
1.93873e-09
-9.19165e-11
2.30066e-07
2.20752e-09
-8.17759e-11
2.59379e-07
2.30944e-09
-4.50049e-11
2.8755e-07
2.20558e-09
9.56158e-12
3.1448e-07
1.84088e-09
9.02834e-11
3.40076e-07
1.16626e-09
1.76442e-10
3.6373e-07
2.60524e-10
3.77585e-07
1.65229e-09
-5.34174e-12
2.25149e-07
1.99195e-09
-2.83319e-11
2.55845e-07
2.20647e-09
-3.5348e-11
2.85414e-07
2.26018e-09
-2.53046e-11
3.1376e-07
2.11651e-09
-1.5277e-12
3.40835e-07
1.7511e-09
3.32152e-11
3.66578e-07
1.11539e-09
7.51638e-11
3.90424e-07
1.2101e-10
4.0467e-07
1.72564e-09
7.87311e-11
2.33789e-07
2.04945e-09
5.48426e-11
2.6465e-07
2.24045e-09
3.49079e-11
2.94337e-07
2.27226e-09
1.33907e-11
3.22772e-07
2.11535e-09
-8.04647e-12
3.49928e-07
1.74058e-09
-2.67803e-11
3.75754e-07
1.10503e-09
-3.93322e-11
3.997e-07
-3.97594e-11
4.141e-07
1.70689e-09
1.33902e-10
2.25139e-07
2.04777e-09
1.10176e-10
2.55836e-07
2.25213e-09
8.32767e-11
2.85406e-07
2.28951e-09
4.40492e-11
3.13754e-07
2.13227e-09
-6.43243e-12
3.40834e-07
1.7538e-09
-6.33672e-11
3.66583e-07
1.10807e-09
-1.19414e-10
3.90439e-07
-1.65187e-10
4.047e-07
1.61734e-09
1.1783e-10
1.9971e-07
2.00138e-09
9.24976e-11
2.30047e-07
2.25009e-09
6.8386e-11
2.59363e-07
2.32502e-09
3.45343e-11
2.87538e-07
2.19052e-09
-9.25273e-12
3.14476e-07
1.81501e-09
-6.37436e-11
3.40083e-07
1.14857e-09
-1.1957e-10
3.63754e-07
-1.72841e-10
3.77636e-07
1.54983e-09
1.59128e-07
-1.12422e-11
1.98354e-09
1.89365e-07
-1.01072e-11
2.27352e-09
2.18598e-07
-9.34586e-12
2.38672e-09
2.4674e-07
-9.12989e-12
2.28102e-09
2.73687e-07
-8.6226e-12
1.90795e-09
2.99309e-07
-6.84261e-12
1.21332e-09
3.22925e-07
-3.81896e-12
3.36236e-07
1.36608e-12
2.24128e-09
-2.78303e-10
1.5894e-07
7.18316e-11
2.73604e-09
-2.19558e-10
1.89282e-07
5.93017e-11
3.02294e-09
-1.56979e-10
2.18679e-07
4.0268e-11
3.05241e-09
-8.90269e-11
2.47031e-07
1.61278e-11
2.78491e-09
-1.31957e-11
2.74217e-07
-9.64359e-12
2.19908e-09
6.87404e-11
3.00093e-07
-3.56375e-11
1.28596e-09
1.51794e-10
3.23967e-07
-6.30958e-11
2.28518e-10
3.37528e-07
-9.16936e-11
2.34129e-09
-2.3477e-10
1.99377e-07
2.81358e-09
-2.04209e-10
2.29854e-07
3.08305e-09
-1.58181e-10
2.59377e-07
3.0923e-09
-1.00806e-10
2.8781e-07
2.81252e-09
-3.68115e-11
3.15039e-07
2.22285e-09
4.34151e-11
3.40949e-07
1.32587e-09
1.22529e-10
3.64917e-07
1.92222e-10
3.79079e-07
2.51421e-09
-1.07702e-10
2.24691e-07
2.97558e-09
-1.07421e-10
2.55552e-07
3.22335e-09
-9.71337e-11
2.85358e-07
3.20556e-09
-7.59904e-11
3.13999e-07
2.89063e-09
-4.46611e-11
3.41407e-07
2.27709e-09
-4.84502e-12
3.67496e-07
1.35844e-09
4.33477e-11
3.91682e-07
9.56984e-11
4.06251e-07
2.61439e-09
5.19428e-11
2.33291e-07
3.06821e-09
2.35189e-11
2.64325e-07
3.30032e-09
-2.51235e-12
2.94258e-07
3.26275e-09
-2.37049e-11
3.22999e-07
2.9331e-09
-3.77338e-11
3.505e-07
2.3003e-09
-4.1966e-11
3.76682e-07
1.36693e-09
-3.45587e-11
4.00973e-07
-7.37144e-12
4.15694e-07
2.58476e-09
1.69338e-10
2.2468e-07
3.02883e-09
1.16634e-10
2.55539e-07
3.24901e-09
6.53239e-11
2.85345e-07
3.20602e-09
1.67712e-11
3.13987e-07
2.87749e-09
-2.75587e-11
3.41395e-07
2.24867e-09
-6.51673e-11
3.67482e-07
1.32943e-09
-9.24698e-11
3.91663e-07
-9.63486e-11
4.06225e-07
2.41914e-09
1.72109e-10
1.99359e-07
2.85652e-09
1.09631e-10
2.29833e-07
3.08006e-09
6.12812e-11
2.59354e-07
3.04939e-09
1.82786e-11
2.87786e-07
2.74214e-09
-2.65926e-11
3.15011e-07
2.1417e-09
-6.7559e-11
3.40914e-07
1.25823e-09
-1.05113e-10
3.6487e-07
-1.27219e-10
3.79017e-07
2.23538e-09
1.58923e-07
3.21619e-12
2.65842e-09
1.89261e-07
-4.02429e-12
2.88034e-09
2.18652e-07
-1.23457e-11
2.86835e-09
2.46999e-07
-1.80593e-11
2.58498e-09
2.74177e-07
-2.27797e-11
2.02067e-09
3.0004e-07
-2.78221e-11
1.18186e-09
3.23893e-07
-3.37987e-11
3.37424e-07
-3.937e-11
4.49532e-09
-4.15271e-10
1.58375e-07
6.64222e-11
5.21348e-09
-3.01619e-10
1.88929e-07
4.56538e-11
5.50298e-09
-2.03308e-10
2.18661e-07
2.46564e-11
5.31009e-09
-1.11412e-10
2.47437e-07
2.46402e-12
4.59772e-09
-2.77279e-11
2.75087e-07
-1.94522e-11
3.39798e-09
3.3451e-11
3.01409e-07
-4.56336e-11
1.81195e-09
7.78617e-11
3.25647e-07
-7.12709e-11
9.47806e-11
3.39411e-07
-9.13541e-11
4.82496e-09
-3.98166e-10
1.98413e-07
5.61579e-09
-3.23913e-10
2.29175e-07
5.98579e-09
-2.29055e-10
2.59126e-07
5.84226e-09
-1.38779e-10
2.88091e-07
5.1317e-09
-6.49474e-11
3.15903e-07
3.8534e-09
-2.13362e-12
3.42376e-07
2.10714e-09
3.61772e-11
3.66815e-07
5.83474e-11
3.81281e-07
5.16493e-09
-1.76189e-10
2.23429e-07
6.01071e-09
-1.51556e-10
2.54621e-07
6.44335e-09
-1.13978e-10
2.84917e-07
6.33615e-09
-7.57656e-11
3.14167e-07
5.5983e-09
-4.11745e-11
3.42244e-07
4.23481e-09
-1.03428e-11
3.68984e-07
2.33214e-09
1.86589e-11
3.93719e-07
4.85663e-11
4.0865e-07
5.28626e-09
1.25914e-10
2.3192e-07
6.15275e-09
9.37192e-11
2.63301e-07
6.60556e-09
6.09326e-11
2.93745e-07
6.50489e-09
3.33896e-11
3.23121e-07
5.7552e-09
1.56158e-11
3.51318e-07
4.35203e-09
8.28918e-12
3.78181e-07
2.39476e-09
1.43787e-11
4.03047e-07
3.20197e-11
4.18149e-07
5.14238e-09
3.55242e-10
2.23421e-07
5.98711e-09
2.80319e-10
2.54612e-07
6.41702e-09
1.94777e-10
2.84906e-07
6.29773e-09
1.18671e-10
3.14151e-07
5.5506e-09
5.91779e-11
3.42221e-07
4.18343e-09
1.91381e-11
3.68953e-07
2.29759e-09
1.59062e-12
3.93678e-07
1.16596e-11
4.0859e-07
4.76318e-09
3.68629e-10
1.98398e-07
5.56255e-09
2.7176e-10
2.29158e-07
5.94484e-09
1.90115e-10
2.59102e-07
5.79175e-09
1.15276e-10
2.88056e-07
5.05788e-09
5.08565e-11
3.15854e-07
3.77872e-09
7.9503e-13
3.42313e-07
2.04751e-09
-2.3221e-11
3.66733e-07
-2.79306e-11
3.81161e-07
4.41324e-09
1.5836e-07
2.85258e-11
5.12939e-09
1.8891e-07
2.12849e-11
5.4349e-09
2.18634e-07
1.89929e-11
5.24027e-09
2.47395e-07
1.45662e-11
4.52431e-09
2.75026e-07
7.54254e-12
3.33101e-09
3.01327e-07
-1.53411e-12
1.77586e-09
3.2554e-07
-1.50383e-11
3.39259e-07
-3.25479e-11
1.11033e-08
-1.00583e-09
1.56741e-07
-1.9135e-11
1.30248e-08
-7.55487e-10
1.87754e-07
-1.35021e-11
1.39887e-08
-5.42244e-10
2.18273e-07
-1.51564e-11
1.37374e-08
-3.71532e-10
2.481e-07
-2.93203e-11
1.21266e-08
-2.43842e-10
2.76989e-07
-4.22167e-11
9.1509e-09
-1.48158e-10
3.046e-07
-4.50518e-11
4.97392e-09
-7.4616e-11
3.29975e-07
-3.95193e-11
-1.61394e-11
3.44453e-07
-3.09723e-11
1.16313e-08
-1.03299e-09
1.95789e-07
1.37781e-08
-8.46158e-10
2.2715e-07
1.49788e-08
-6.46845e-10
2.58057e-07
1.48783e-08
-4.81663e-10
2.883e-07
1.32503e-08
-3.50181e-10
3.17626e-07
1.00529e-08
-2.4014e-10
3.45679e-07
5.48117e-09
-1.43445e-10
3.71489e-07
-5.37618e-11
3.86799e-07
1.22798e-08
-4.21142e-10
2.20057e-07
1.45246e-08
-3.53704e-10
2.51902e-07
1.58314e-08
-2.75613e-10
2.83257e-07
1.57923e-08
-2.09484e-10
3.13938e-07
1.41184e-08
-1.57101e-10
3.43728e-07
1.07304e-08
-1.10516e-10
3.72267e-07
5.84257e-09
-6.60262e-11
3.9856e-07
-2.26622e-11
4.14463e-07
1.24726e-08
4.14219e-10
2.28266e-07
1.47601e-08
3.54374e-10
2.6031e-07
1.61031e-08
2.84795e-10
2.91844e-07
1.60794e-08
2.2118e-10
3.22704e-07
1.43935e-08
1.64196e-10
3.52688e-07
1.09454e-08
1.1232e-10
3.81431e-07
5.95435e-09
6.53181e-11
4.07928e-07
2.46014e-11
4.24058e-07
1.21978e-08
1.03257e-09
2.20046e-07
1.44383e-08
8.55314e-10
2.51882e-07
1.57337e-08
6.64585e-10
2.83227e-07
1.56881e-08
5.02927e-10
3.13902e-07
1.40281e-08
3.68875e-10
3.43686e-07
1.06582e-08
2.49272e-10
3.72215e-07
5.79974e-09
1.3832e-10
3.98497e-07
3.68355e-11
4.14386e-07
1.15516e-08
1.04008e-09
1.95772e-07
1.36852e-08
7.90011e-10
2.27118e-07
1.48653e-08
5.86558e-10
2.58011e-07
1.4774e-08
4.25441e-10
2.88243e-07
1.3176e-08
2.97845e-10
3.17558e-07
9.99891e-09
1.87608e-10
3.45594e-07
5.44799e-09
8.4945e-11
3.71383e-07
-1.25365e-11
3.8667e-07
1.106e-08
1.56727e-07
1.36625e-11
1.30178e-08
1.87723e-07
2.48211e-11
1.39905e-08
2.1822e-07
2.97294e-11
1.37757e-08
2.48029e-07
2.90266e-11
1.22075e-08
2.76903e-07
2.11831e-11
9.24063e-09
3.04496e-07
7.88201e-12
5.04444e-09
3.29851e-07
-5.63745e-12
3.44314e-07
-2.2601e-11
2.91673e-08
-2.73051e-09
1.52188e-07
-3.63538e-11
3.51145e-08
-2.22214e-09
1.84016e-07
-5.95764e-11
3.90118e-08
-1.86804e-09
2.16182e-07
-8.08165e-11
4.00102e-08
-1.56394e-09
2.48636e-07
-6.97359e-11
3.71987e-08
-1.25465e-09
2.81068e-07
-3.95799e-11
2.99295e-08
-9.18511e-10
3.12783e-07
-1.10396e-11
1.81805e-08
-5.80282e-10
3.42251e-07
8.29459e-12
-1.91143e-10
3.62759e-07
2.43648e-11
2.96361e-08
-2.73319e-09
1.88533e-07
3.60581e-08
-2.42499e-09
2.20826e-07
4.06467e-08
-2.1031e-09
2.5362e-07
4.22869e-08
-1.79586e-09
2.86863e-07
3.98407e-08
-1.46378e-09
3.20282e-07
3.24829e-08
-1.09452e-09
3.53193e-07
2.00202e-08
-7.14039e-10
3.84037e-07
-2.74083e-10
4.06874e-07
3.06951e-08
-1.1182e-09
2.10928e-07
3.73695e-08
-1.03498e-09
2.43716e-07
4.22763e-08
-9.26339e-10
2.77071e-07
4.42065e-08
-8.08018e-10
3.1098e-07
4.1892e-08
-6.74447e-10
3.45231e-07
3.4359e-08
-5.23677e-10
3.79158e-07
2.13119e-08
-3.6559e-10
4.11165e-07
-1.7904e-10
4.35632e-07
3.10812e-08
1.10644e-09
2.18478e-07
3.78672e-08
9.73982e-10
2.51458e-07
4.28734e-08
8.2714e-10
2.85026e-07
4.4877e-08
6.80759e-10
3.19193e-07
4.25931e-08
5.25008e-10
3.5377e-07
3.50103e-08
3.56214e-10
3.88099e-07
2.17899e-08
1.92264e-10
4.20567e-07
9.88773e-12
4.45636e-07
3.06766e-08
2.73793e-09
2.10927e-07
3.73462e-08
2.4038e-09
2.43698e-07
4.22522e-08
2.0599e-09
2.77032e-07
4.41653e-08
1.72543e-09
3.10917e-07
4.18192e-08
1.36424e-09
3.45147e-07
3.42949e-08
9.6839e-10
3.79059e-07
2.12973e-08
5.72493e-10
4.11059e-07
1.23742e-10
4.35534e-07
2.9576e-08
2.74572e-09
1.88532e-07
3.59663e-08
2.22031e-09
2.20809e-07
4.05542e-08
1.86359e-09
2.53571e-07
4.2194e-08
1.54885e-09
2.86769e-07
3.97113e-08
1.21152e-09
3.20139e-07
3.23495e-08
8.40743e-10
3.5301e-07
1.99481e-08
4.77477e-10
3.83827e-07
7.12974e-11
4.06666e-07
2.9053e-08
1.52178e-07
1.17199e-11
3.49278e-08
1.83995e-07
5.5893e-12
3.88395e-08
2.16137e-07
-4.60408e-12
3.98535e-08
2.48549e-07
-1.41266e-11
3.70142e-08
2.80925e-07
-2.61272e-11
2.97493e-08
3.12582e-07
-3.17813e-11
1.80879e-08
3.42004e-07
-2.92131e-11
3.62491e-07
-1.76194e-11
6.60123e-08
-4.88294e-09
-6.6935e-11
1.38467e-07
8.32723e-08
-3.68618e-09
-1.02735e-10
1.70424e-07
9.74175e-08
-2.79921e-09
-6.10865e-11
2.04878e-07
1.05815e-07
-2.01155e-09
-2.19036e-11
2.42231e-07
1.04845e-07
-1.25738e-09
-1.0605e-11
2.83167e-07
8.97668e-08
-5.26912e-10
2.29103e-12
3.28227e-07
5.49648e-08
1.91719e-10
1.78109e-11
3.76775e-07
9.76251e-10
4.72916e-11
4.16686e-07
6.6678e-08
-4.96997e-09
1.70156e-07
8.50936e-08
-4.15959e-09
2.02822e-07
1.01061e-07
-3.32409e-09
2.38165e-07
1.11503e-07
-2.55126e-09
2.76916e-07
1.12219e-07
-1.80449e-09
3.20006e-07
9.75358e-08
-1.04783e-09
3.68297e-07
6.04391e-08
-2.23936e-10
4.21549e-07
6.06015e-10
4.6767e-07
6.86482e-08
-2.03475e-09
1.89157e-07
8.76623e-08
-1.80216e-09
2.22276e-07
1.04613e-07
-1.50184e-09
2.58249e-07
1.16189e-07
-1.19862e-09
2.97979e-07
1.17833e-07
-8.98933e-10
3.42593e-07
1.03265e-07
-5.94129e-10
3.93204e-07
6.45627e-08
-2.61908e-10
4.49902e-07
1.32124e-10
5.00665e-07
6.94662e-08
1.95855e-09
1.95446e-07
8.87326e-08
1.61194e-09
2.28728e-07
1.06005e-07
1.25407e-09
2.64936e-07
1.17944e-07
9.29465e-10
3.05023e-07
1.19886e-07
6.26346e-10
3.50187e-07
1.05351e-07
3.2136e-10
4.01641e-07
6.59953e-08
-1.92112e-11
4.596e-07
-3.65185e-10
5.12091e-07
6.87887e-08
4.90812e-09
1.89084e-07
8.78297e-08
4.04327e-09
2.22184e-07
1.04794e-07
3.15382e-09
2.58155e-07
1.16367e-07
2.33891e-09
2.97891e-07
1.17992e-07
1.57227e-09
3.42509e-07
1.03421e-07
8.13429e-10
3.93127e-07
6.4633e-08
-3.76288e-11
4.49827e-07
-8.18659e-10
5.00607e-07
6.69309e-08
4.85767e-09
1.7005e-07
8.53981e-08
3.64127e-09
2.02663e-07
1.01354e-07
2.70729e-09
2.37979e-07
1.11774e-07
1.86989e-09
2.76723e-07
1.12501e-07
1.08962e-09
3.19816e-07
9.78289e-08
3.60328e-10
3.68113e-07
6.05985e-08
-3.61632e-10
4.21368e-07
-1.14935e-09
4.67518e-07
6.61424e-08
1.44696e-11
1.38405e-07
8.34497e-08
-1.58233e-11
1.70316e-07
9.75223e-08
-3.34433e-11
2.0472e-07
1.05852e-07
-4.07397e-11
2.42032e-07
1.0495e-07
-4.12214e-11
2.82939e-07
8.99756e-08
-4.09574e-11
3.27979e-07
5.51464e-08
-3.97561e-11
3.76508e-07
-4.35886e-11
4.1644e-07
1.71448e-09
-9.9678e-11
1.59154e-07
-1.15663e-10
2.20017e-09
-8.29079e-11
1.89396e-07
-5.43537e-11
2.51627e-09
-8.05067e-11
2.18631e-07
-1.75981e-11
2.63635e-09
-6.29491e-11
2.46773e-07
1.27027e-11
2.50894e-09
-2.96067e-11
2.73713e-07
3.94131e-11
2.07994e-09
1.46259e-11
2.99323e-07
7.00682e-11
1.27782e-09
7.07186e-11
3.22919e-07
1.05234e-10
1.26291e-10
3.3619e-07
1.43767e-10
1.78835e-09
-7.45195e-11
1.9975e-07
2.2023e-09
-7.46485e-11
2.30093e-07
2.47224e-09
-7.3467e-11
2.59414e-07
2.5536e-09
-5.00718e-11
2.8759e-07
2.40858e-09
-9.98882e-12
3.14526e-07
1.98412e-09
5.46045e-11
3.40124e-07
1.2421e-09
1.15611e-10
3.63776e-07
1.73602e-10
3.77616e-07
1.85635e-09
-3.35053e-11
2.25183e-07
2.21741e-09
-2.90564e-11
2.55889e-07
2.43089e-09
-2.54621e-11
2.85466e-07
2.46571e-09
-1.51704e-11
3.13819e-07
2.28814e-09
3.10858e-12
3.409e-07
1.8775e-09
2.56995e-11
3.66646e-07
1.18181e-09
5.08358e-11
3.90488e-07
7.01531e-11
4.04709e-07
1.88383e-09
3.15906e-11
2.33835e-07
2.22437e-09
4.71116e-11
2.64706e-07
2.41696e-09
4.66596e-11
2.94401e-07
2.43799e-09
3.1579e-11
3.22843e-07
2.25893e-09
7.49036e-12
3.50002e-07
1.85102e-09
-2.10197e-11
3.75827e-07
1.16821e-09
-4.92623e-11
3.99763e-07
-7.35109e-11
4.14124e-07
1.83303e-09
8.78642e-11
2.25191e-07
2.18345e-09
1.02748e-10
2.55897e-07
2.39298e-09
9.74038e-11
2.85473e-07
2.42715e-09
6.32931e-11
3.13825e-07
2.2581e-09
8.47933e-12
3.40902e-07
1.85785e-09
-6.0372e-11
3.66642e-07
1.17042e-09
-1.31054e-10
3.90477e-07
-1.96468e-10
4.04681e-07
1.74185e-09
9.24948e-11
1.99762e-07
2.13784e-09
8.87019e-11
2.30106e-07
2.39923e-09
7.89988e-11
2.59427e-07
2.47722e-09
4.69804e-11
2.876e-07
2.33282e-09
4.71328e-13
3.1453e-07
1.9295e-09
-6.421e-11
3.40119e-07
1.21513e-09
-1.33034e-10
3.63756e-07
-2.00622e-10
3.77565e-07
1.72846e-09
1.59171e-07
-7.73698e-12
2.17265e-09
1.89413e-07
-4.41369e-12
2.47445e-09
2.18649e-07
-3.24527e-12
2.59056e-09
2.46789e-07
-2.83268e-12
2.47067e-09
2.73724e-07
-2.22816e-12
2.0576e-09
2.99325e-07
-1.93069e-12
1.29681e-09
3.22904e-07
-1.20386e-12
3.36139e-07
7.60284e-13
2.52835e-09
-1.06899e-10
1.58946e-07
-1.22576e-10
3.01222e-09
-7.94976e-11
1.8929e-07
-7.45375e-11
3.27456e-09
-6.12519e-11
2.18689e-07
-4.04644e-11
3.27635e-09
-4.77485e-11
2.47044e-07
-6.43177e-12
2.97719e-09
-3.13294e-11
2.74235e-07
3.03935e-11
2.35091e-09
-1.1565e-11
3.00117e-07
7.1702e-11
1.37758e-09
1.25353e-11
3.23997e-07
1.15452e-10
2.54157e-11
3.37568e-07
1.61753e-10
2.70636e-09
-1.18636e-10
1.99389e-07
3.20595e-09
-9.42583e-11
2.29873e-07
3.48088e-09
-7.34567e-11
2.59404e-07
3.47516e-09
-5.14014e-11
2.87848e-07
3.15257e-09
-2.31619e-11
3.1509e-07
2.48858e-09
1.65056e-11
3.41015e-07
1.4853e-09
5.18915e-11
3.65001e-07
7.66887e-11
3.79183e-07
2.84637e-09
-3.85224e-11
2.24713e-07
3.33754e-09
-2.52667e-11
2.55582e-07
3.5938e-09
-1.76228e-11
2.854e-07
3.56191e-09
-1.24854e-11
3.14056e-07
3.20933e-09
-3.79558e-12
3.41483e-07
2.53054e-09
6.41786e-12
3.67595e-07
1.5111e-09
1.36139e-11
3.91808e-07
1.15978e-11
4.0641e-07
2.88435e-09
9.01507e-11
2.33321e-07
3.3656e-09
8.78958e-11
2.64362e-07
3.61324e-09
7.40229e-11
2.94306e-07
3.57984e-09
5.07723e-11
3.23062e-07
3.22926e-09
2.08501e-11
3.5058e-07
2.54968e-09
-1.22888e-11
3.76785e-07
1.52699e-09
-4.63778e-11
4.01105e-07
-7.79671e-11
4.15864e-07
2.79452e-09
1.93115e-10
2.24714e-07
3.27006e-09
1.72315e-10
2.5558e-07
3.52265e-09
1.37818e-10
2.85393e-07
3.50159e-09
9.2169e-11
3.14045e-07
3.17197e-09
3.32293e-11
3.41467e-07
2.51041e-09
-3.48839e-11
3.67573e-07
1.50733e-09
-1.01265e-10
3.91781e-07
-1.60224e-10
4.06387e-07
2.61975e-09
1.92662e-10
1.99391e-07
3.09868e-09
1.52905e-10
2.29871e-07
3.37479e-09
1.16049e-10
2.59398e-07
3.38207e-09
7.46434e-11
2.87836e-07
3.08327e-09
2.38397e-11
3.15071e-07
2.44999e-09
-3.93966e-11
3.40988e-07
1.47307e-09
-1.02914e-10
3.64967e-07
-1.63035e-10
3.79155e-07
2.47962e-09
1.58947e-07
1.61452e-11
2.96078e-09
1.8929e-07
1.27013e-11
3.24526e-09
2.18687e-07
1.05825e-11
3.27478e-09
2.47041e-07
8.51919e-12
3.00395e-09
2.74227e-07
6.45873e-12
2.39953e-09
3.00103e-07
3.26281e-12
1.44828e-09
3.23976e-07
-3.23654e-13
3.37545e-07
-7.85975e-12
4.66171e-09
-3.14845e-10
1.58378e-07
-4.354e-11
5.37626e-09
-2.17522e-10
1.88936e-07
-2.58716e-11
5.6528e-09
-1.5103e-10
2.18671e-07
-1.43052e-11
5.44567e-09
-1.0059e-10
2.47451e-07
6.40495e-12
4.71814e-09
-6.37637e-11
2.75107e-07
2.86211e-11
3.49543e-09
-4.39957e-11
3.01438e-07
4.75694e-11
1.87551e-09
-4.25227e-11
3.25692e-07
6.9301e-11
-6.06199e-11
3.39487e-07
9.30685e-11
5.04604e-09
-3.20573e-10
1.98423e-07
5.86077e-09
-2.5456e-10
2.29192e-07
6.23629e-09
-1.82392e-10
2.5915e-07
6.08126e-09
-1.21321e-10
2.88126e-07
5.3414e-09
-7.86115e-11
3.15954e-07
4.02374e-09
-5.30447e-11
3.42449e-07
2.21098e-09
-4.26855e-11
3.66919e-07
-4.85202e-11
3.81435e-07
5.37529e-09
-1.29216e-10
2.23445e-07
6.2473e-09
-1.03875e-10
2.54643e-07
6.68799e-09
-7.59946e-11
2.84949e-07
6.57054e-09
-5.39079e-11
3.14217e-07
5.80648e-09
-4.00043e-11
3.42319e-07
4.39745e-09
-3.39426e-11
3.69092e-07
2.43025e-09
-3.37946e-11
3.93874e-07
-3.45341e-11
4.08881e-07
5.46947e-09
1.58924e-10
2.31935e-07
6.35991e-09
1.27835e-10
2.6332e-07
6.82276e-09
9.07521e-11