/*--------------------------------*- C++ -*----------------------------------*\
| =========                 |                                                 |
| \\      /  F ield         | OpenFOAM: The Open Source CFD Toolbox           |
|  \\    /   O peration     | Version:  plus.master.MPPICInterFoam            |
|   \\  /    A nd           | Web:      www.OpenFOAM.com                      |
|    \\/     M anipulation  |                                                 |
\*---------------------------------------------------------------------------*/
FoamFile
{
    version     2.0;
    format      ascii;
    class       scalarField;
    location    "5.6/lagrangian/kinematicCloud";
    object      age;
}
// * * * * * * * * * * * * * * * * * * * * * * * * * * * * * * * * * * * * * //


2113
(
5.50845
5.46697
5.51885
5.40663
5.4784
5.52085
5.5771
5.54308
5.46201
5.56463
5.59571
5.3596
5.51262
5.53827
5.4705
5.52531
5.397
5.54022
5.28461
5.45174
5.42835
5.38127
5.56538
5.42242
5.38155
5.47887
5.56218
5.5337
5.59125
5.53412
5.31493
5.46963
5.4694
5.48794
5.45956
5.57647
5.41313
5.41769
5.54599
5.47836
5.59058
5.57091
5.45762
5.5982
5.5561
5.59583
5.44897
5.49653
5.38314
5.36575
5.16558
5.55156
5.5711
5.45538
5.47367
5.30736
5.38347
5.60089
5.59423
5.50153
5.55975
5.5962
5.5561
5.42067
5.57614
5.55092
5.50888
5.55441
5.56708
5.53455
5.37389
5.59377
5.59051
5.49948
5.52134
5.35342
5.58506
5.49803
5.5372
5.55713
5.58893
5.47443
5.4828
5.59063
5.5819
5.56569
5.46421
5.43972
5.53109
5.544
5.48854
5.52007
5.54932
5.34492
5.1675
5.59166
5.47854
5.42498
5.47847
5.58896
5.55096
5.4342
5.37376
5.44991
5.37496
5.33446
5.54437
5.42077
5.56391
5.53738
5.58953
5.10386
5.44898
5.44992
5.48957
5.04869
5.54696
5.35271
5.2291
5.41751
5.54808
5.25255
5.43019
5.48896
5.38231
5.33082
5.49362
5.35281
5.51768
5.29059
5.38263
5.5741
5.52951
5.49829
5.42939
5.46865
5.51983
5.38805
5.5347
5.5639
5.39667
5.39048
5.58549
5.46773
5.58856
5.60017
5.58092
5.58834
5.57632
5.23812
5.55417
5.38362
5.39052
5.38858
5.21141
5.59367
5.46875
5.53009
5.54026
5.35323
5.38489
5.38149
5.57087
5.23823
5.35547
5.56394
5.50921
5.357
5.25075
5.24766
5.436
5.35615
5.59137
5.5562
5.42529
5.35239
5.39052
5.55715
5.42225
5.34914
5.44168
5.59129
5.34596
5.34287
5.54667
5.41554
5.5471
5.53151
5.48939
5.46155
5.5639
5.54863
5.3056
5.40749
5.4736
5.53977
5.38785
5.59389
5.37789
5.47196
5.49799
5.17154
5.31711
5.47685
5.49914
5.47857
5.41961
5.25825
5.59811
5.56721
5.56865
5.52004
5.56731
5.29016
5.17846
5.4614
5.47918
5.60019
5.52262
5.59456
5.4874
5.54694
5.50816
5.57278
5.53541
5.56831
5.59271
5.50111
5.50085
5.52739
5.52379
5.57076
5.46771
5.55734
5.48139
5.55603
5.20025
5.3911
5.53868
5.49401
5.50816
5.38104
5.2517
5.59896
5.57623
5.56366
5.50818
5.47946
5.57192
5.46249
5.60016
5.51754
5.44932
5.21927
5.55959
5.53576
5.45277
5.51192
5.4498
5.56903
5.48111
5.58959
5.59935
5.53402
5.51067
5.49972
5.59217
5.4237
5.44345
5.56392
5.27694
5.59895
5.39086
5.5644
5.55453
5.49395
5.53759
5.38753
5.51787
5.39912
5.57697
5.55933
5.44903
5.5705
5.55756
5.33334
5.55063
5.3868
5.58668
5.46383
5.34296
5.57028
5.41393
5.53179
5.38185
5.56005
5.54702
5.39423
5.59365
5.44595
5.30487
5.46909
5.52881
5.5917
5.48942
5.37273
5.59197
5.52778
5.53808
5.04222
5.53054
5.19953
5.57417
5.38186
5.51755
5.4793
5.44131
5.50463
5.35409
5.54054
5.54256
5.14989
5.4003
5.56273
5.52706
5.36209
5.34188
5.56315
5.49816
5.35239
5.46209
5.43927
5.50177
5.5501
5.46058
5.54691
5.59427
5.22045
5.38147
5.32404
5.41259
5.47932
5.51416
5.43967
5.45145
5.4314
5.3365
5.44933
5.48815
5.52904
5.26703
5.4476
5.57667
5.48138
5.50222
5.51177
5.43843
5.27619
5.0842
5.49817
5.449
5.41237
5.55612
5.47958
5.4518
5.54698
5.57634
5.56606
5.59387
5.28828
5.57677
5.39794
5.54883
5.24941
5.52735
5.41105
5.46071
5.38054
5.30833
5.30396
5.44296
5.42114
5.49796
5.3256
5.52967
5.58496
5.47715
5.58002
5.47268
5.50659
5.44794
5.40765
5.30941
5.37051
5.41758
5.29868
5.51647
5.43807
5.44016
5.2413
5.17304
5.33374
5.59882
5.51543
5.42943
5.58545
5.27846
5.48734
5.56437
5.57281
5.51065
5.45278
5.55213
5.37253
5.4301
5.49263
5.51857
5.59415
5.39838
5.38802
5.6
5.15837
5.4784
5.53752
5.32512
5.46568
5.41087
5.42805
5.59159
5.37588
5.45251
5.55624
5.45429
5.57622
5.46808
5.26157
5.48867
5.49132
5.56099
5.42011
5.5178
5.36215
5.3449
5.47908
5.55641
5.26674
5.4205
5.56564
5.50778
5.39684
5.33386
5.47578
5.46525
5.4688
5.39574
5.32726
5.43941
5.40007
5.42079
5.57127
5.32355
5.44999
5.55829
5.48243
5.54732
5.52402
5.46099
5.52759
5.6
5.6
5.57078
5.45637
5.36239
5.54276
5.57647
5.53104
5.59124
5.41232
5.58106
5.37146
5.40872
5.46912
5.50156
5.38297
5.50894
5.28095
5.2762
5.43922
5.58137
5.59431
5.40149
5.58604
5.4675
5.53713
5.29817
5.59157
5.49175
5.56413
5.51088
5.43171
5.26125
5.58177
5.45123
5.39049
5.52829
5.59923
5.55668
5.38354
5.56015
5.21522
5.54792
5.50799
5.46865
5.42016
5.49883
5.36236
5.45876
5.5814
5.52648
5.58835
5.46082
5.44523
5.58451
5.53296
5.45876
5.29105
5.45927
5.53722
5.57027
5.37839
5.27619
5.50078
5.48142
5.18534
5.36268
5.55624
5.39568
5.41255
5.36192
5.5639
5.59131
5.41714
5.4596
5.58243
5.34118
5.4
5.29535
5.59064
5.20117
5.50132
5.45018
5.56385
5.48616
5.45767
5.2579
5.36618
5.49912
5.33386
5.58629
5.59743
5.57724
5.55678
5.1537
5.21924
5.55654
5.44019
5.55702
5.58659
5.57742
5.48648
5.47315
5.47331
5.48099
5.58866
5.55818
5.39488
5.59031
5.31522
5.44729
5.55623
5.53725
5.37133
5.5937
5.54045
5.4592
5.45562
5.45206
5.45891
5.5662
5.36191
5.47971
5.56464
5.52309
5.5844
5.54212
5.28187
5.50865
5.5008
5.31735
5.55755
5.58257
5.42305
5.59884
5.14526
5.52657
5.5072
5.3732
5.54561
5.36613
5.34478
5.55247
5.42081
5.5325
5.09848
5.30933
5.37214
5.51944
5.53716
5.35498
5.01913
5.51006
5.59027
5.50534
5.43942
5.59132
5.52835
5.51753
5.56047
5.53213
5.5653
5.56658
5.43829
5.54747
5.56067
5.56077
5.59081
5.42994
5.48668
5.58091
5.35446
5.34205
5.57973
5.48814
5.42556
5.4686
5.54778
5.44853
5.04173
5.45876
5.45944
5.23881
5.5522
5.1728
5.15364
5.57139
5.55361
5.34019
5.47045
5.55578
5.38129
5.58837
5.55625
5.48169
5.25094
5.44967
5.58118
5.47277
5.5481
5.548
5.25717
5.47428
5.54692
5.47492
5.45222
5.5276
5.54899
5.36336
5.37814
5.2673
5.40286
5.13888
5.47963
5.53018
5.20232
5.31532
5.23324
5.50987
5.41962
5.30296
5.18096
5.4654
5.40615
5.38484
5.42193
5.58628
5.4683
5.42965
5.52734
5.14221
5.57054
5.42281
5.25328
5.58379
5.2983
5.53713
5.52999
5.37268
5.32385
5.54624
5.30299
5.15688
5.48041
5.54715
5.51159
5.40276
5.49251
5.58224
5.10493
5.42975
5.07685
5.15249
5.42943
5.54697
5.57856
5.48707
5.57062
5.44784
5.57525
5.49711
5.53719
5.50183
5.30555
5.47505
5.32936
5.5401
5.49805
5.11429
5.50655
5.40052
5.55611
5.58984
5.38404
5.49423
5.47162
5.55645
5.57065
5.59569
5.57055
5.39072
5.48843
5.54392
5.58044
5.33221
5.37143
5.4
5.58256
5.56422
5.56217
5.59599
5.5244
5.24917
5.50776
5.44088
5.30502
5.59135
5.53718
5.36354
5.53851
5.55868
5.43935
5.42636
5.36341
5.07848
5.59894
5.24789
5.20123
5.47273
5.13416
5.5971
5.55439
5.53277
5.57204
5.55757
5.53003
5.45947
5.343
5.55768
5.45528
5.53779
5.56788
5.58528
5.39102
5.32799
5.36399
5.55992
5.3823
5.30484
5.32649
5.47843
5.33996
5.50806
5.49194
5.23813
5.59955
5.37146
5.55804
5.53074
5.48065
5.4766
5.55191
5.50674
5.50369
5.34286
5.51298
5.31395
5.45632
5.34991
5.20178
5.502
5.28713
5.47911
5.39367
5.48008
5.59142
5.55239
5.48815
5.46969
5.57714
5.36634
5.56998
5.41033
5.23927
5.40055
5.47002
5.22902
5.42012
5.54539
5.4889
5.57613
5.50812
5.53979
5.41066
5.31817
5.50946
5.53767
5.59881
5.58153
5.3829
5.59921
5.46866
5.4022
5.51181
5.51908
5.54707
5.50019
5.40535
5.37145
5.56944
5.47698
5.4826
5.32605
5.41959
5.22788
5.51484
5.53406
5.42149
5.33529
5.59235
5.51623
5.43026
5.53721
5.50409
5.37658
5.56162
5.57105
5.35568
5.33612
5.46858
5.59369
5.57065
5.52149
5.14441
5.46963
5.56189
5.59739
5.50548
5.09134
5.21117
5.16223
5.48086
5.59428
5.52757
5.36194
5.42322
5.54135
5.48717
5.57148
5.38048
5.18201
5.41967
5.45357
5.44899
5.52736
5.56442
5.48644
5.54804
5.51753
5.20144
5.49933
5.50839
5.46254
5.40355
5.39223
5.51752
5.50115
5.59848
5.524
5.469
5.24418
5.36799
5.53409
5.52395
5.40061
5.56905
5.29583
5.29782
5.21717
5.58303
5.17354
5.16084
5.39151
5.42066
5.4133
5.54338
5.52297
5.38157
5.28509
5.32397
5.48356
5.48878
5.44033
5.5646
5.46516
5.55145
5.36345
5.44986
5.19049
5.26105
5.42217
5.53711
5.298
5.52746
5.50254
5.45241
5.47784
5.58264
5.4053
5.32698
5.60002
5.54947
5.44034
5.1775
5.54279
5.42049
5.40092
5.50408
5.3221
5.35938
5.59144
5.44898
5.23904
5.25476
5.4991
5.48582
5.44723
5.51582
5.47237
5.3696
5.5622
5.5641
5.09185
5.58092
5.31938
5.2584
5.24069
5.51664
5.52737
5.5941
5.42975
5.58554
5.39422
5.50773
5.56325
5.57071
5.59988
5.41235
5.39176
5.26915
5.50806
5.4863
5.48209
5.10601
5.54068
5.36899
5.52744
5.42227
5.36209
5.56648
5.46001
5.59245
5.59368
5.38352
5.04001
5.2803
5.08202
5.41047
5.50886
5.5574
5.51893
5.59828
5.56034
5.37216
5.34287
5.42671
5.59626
5.44929
5.53948
5.55815
5.58128
5.32006
5.45435
5.57644
5.58336
5.3352
5.59435
5.55759
5.52965
5.57621
5.56979
5.2023
5.13334
5.43049
5.51964
5.56406
5.53917
5.48064
5.59191
5.56418
5.45779
5.49278
5.30732
5.3732
5.44397
5.59592
5.46728
5.4665
5.55113
5.51494
5.49794
5.30509
5.54139
5.44815
5.30285
5.57132
5.56495
5.58834
5.40043
5.44563
5.45599
5.3812
5.40002
5.33632
5.48819
5.22924
5.40008
5.46877
5.13712
5.45153
5.31088
5.44644
5.51997
5.26673
5.51813
5.35338
5.51782
5.47855
5.57282
5.48257
5.53966
5.2774
5.38823
5.58301
5.55778
5.59653
5.4005
5.46275
5.58222
5.53007
5.32944
5.27783
5.45839
5.52673
5.40004
5.398
5.4684
5.56554
5.50386
5.40752
5.09904
5.59365
5.57781
5.19048
5.49417
5.30525
5.30025
5.31296
5.55711
5.56953
5.49804
5.42014
5.26816
5.29641
5.09621
5.4155
5.45218
5.54035
5.55079
5.58836
5.5793
5.59946
5.55669
5.5894
5.16544
5.54988
5.56791
5.6001
5.59133
5.09968
5.59167
5.4415
5.56758
5.44903
5.46533
5.55996
5.43402
5.51331
5.44849
5.50779
5.40842
5.49595
5.4585
5.1716
5.52732
5.49442
5.51453
5.50917
5.20367
5.34292
5.40237
5.5967
5.37393
5.49544
5.32868
5.31773
5.28869
5.43302
5.59164
5.36043
5.53773
5.59129
5.33333
5.56665
5.54126
5.44916
5.52893
5.28867
5.41355
5.2477
5.22928
5.34288
5.50773
5.44029
5.52736
5.55913
5.50998
5.193
5.56447
5.57626
5.21441
5.34016
5.5779
5.54767
5.38097
5.44957
5.59369
5.09674
5.53878
5.59741
5.56496
5.54554
5.46121
5.5471
5.49736
5.5769
5.57451
5.32422
5.47251
5.35953
5.56401
5.57308
5.53571
5.35222
5.46001
5.30575
5.44306
5.47348
5.42941
5.14398
5.38561
5.56233
5.40197
5.27777
5.19048
5.59156
5.18975
5.46484
5.52582
5.10032
5.50777
5.18331
5.2191
5.59739
5.52796
5.35425
5.47044
5.57191
5.54177
5.49287
5.52398
5.48815
5.57232
5.24071
5.41113
5.46192
5.53246
5.55617
5.40984
5.28581
5.59945
5.49254
5.51662
5.45886
5.51447
5.28585
5.55617
5.38046
5.52418
5.58877
5.51042
5.39077
5.42939
5.143
5.56285
5.13431
5.35247
5.42202
5.54643
5.0796
5.44972
5.39053
5.43001
5.33635
5.39352
5.44113
5.52041
5.57034
5.57229
5.27464
5.46926
5.1921
5.54762
5.28013
5.57751
5.30178
5.58161
5.16233
5.56013
5.55264
5.22675
5.10697
5.23425
5.49063
5.53712
5.24783
5.59124
5.43932
5.59995
5.58095
5.56395
5.28624
5.42571
5.19438
5.48974
5.56716
5.48895
5.56753
5.23776
5.45166
5.50112
5.44618
5.50745
5.32382
5.57829
5.56241
5.5561
5.50141
5.55322
5.3833
5.56605
5.55622
5.5842
5.3729
5.44583
5.44937
5.49778
5.55676
5.57649
5.06077
5.55724
5.11463
5.59461
5.33167
5.58151
5.58153
5.57135
5.56644
5.57419
5.58906
5.16838
5.50997
5.17911
5.14166
5.45041
5.44799
5.41968
5.44178
5.5709
5.50276
5.28824
5.49839
5.21444
5.27794
5.50419
5.44902
5.51465
5.58435
5.18222
5.36316
5.53693
5.35445
5.44035
5.42949
5.49958
5.39873
5.35391
5.22657
5.55609
5.45051
5.55929
5.52008
5.45591
5.55067
5.5778
5.54006
5.47066
5.59227
5.55925
5.57152
5.59378
5.35266
5.18191
5.54944
5.55699
5.4232
5.43958
5.07548
5.45827
5.57651
5.57621
5.22435
5.31986
5.56615
5.54768
5.55969
5.26761
5.4364
5.40046
5.5914
5.38128
5.51684
5.5278
5.22874
5.54486
5.57068
5.5825
5.54559
5.59047
5.57674
5.18299
5.47838
5.46113
5.46719
5.54048
5.58265
5.57092
5.43387
5.46648
5.55786
5.2193
5.45185
5.55494
5.44691
5.36198
5.41978
5.43876
5.381
5.58504
5.50269
5.58187
5.2552
5.44017
5.40005
5.2748
5.12458
5.36863
5.13417
5.28574
5.4407
5.49845
5.55333
5.47807
5.31431
5.49294
5.56499
5.58447
5.23923
5.27736
5.41419
5.46004
5.48053
5.51955
5.50822
5.55896
5.49409
5.21027
5.46261
5.54773
5.11515
5.60031
5.43504
5.38952
5.56477
5.31429
5.56392
5.48823
5.59526
5.40863
5.36902
5.45541
5.54881
5.60001
5.40301
5.53747
5.57834
5.54072
5.59406
5.46024
5.56622
5.57056
5.4037
5.47429
5.45232
5.47836
5.23844
5.49817
5.46226
5.42581
5.56697
5.55855
5.40622
5.40915
5.4006
5.43949
5.37143
5.51778
5.59594
5.57082
5.32345
5.25829
5.52599
5.55364
5.32994
5.38208
5.24752
5.57631
5.3435
5.56652
5.43256
5.43032
5.57077
5.55429
5.54055
5.32382
5.43143
5.59194
5.52245
5.21376
5.34014
5.51301
5.57045
5.54462
5.391
5.43165
5.22952
5.59343
5.48883
5.59291
5.54402
5.56411
5.58943
5.55787
5.59571
5.37143
5.26122
5.57611
5.53328
5.58541
5.46929
5.47208
5.42938
5.58134
5.3708
5.40979
5.15483
5.12433
5.52549
5.26667
5.28685
5.43919
5.53111
5.25715
5.56834
5.49292
5.42952
5.47925
5.56692
5.47915
5.49081
5.17266
5.49297
5.34768
5.29404
5.58258
5.57794
5.55622
5.2865
5.34071
5.3716
5.59178
5.53144
5.50543
5.44361
5.43917
5.56729
5.54081
5.51937
5.59743
5.59547
5.33781
5.44387
5.3152
5.51952
5.50642
5.37166
5.31518
5.53322
5.55819
5.58491
5.45878
5.25937
5.40416
5.56445
5.59631
5.56884
5.26293
5.29686
5.41052
5.37317
5.55589
5.34811
5.28971
5.52724
5.45333
5.57663
5.27113
5.49054
5.56887
5.2762
5.54731
5.5767
5.27014
5.42127
5.45897
5.27893
5.49108
5.46869
5.40096
5.5749
5.15978
5.5909
5.12276
5.3895
5.58554
5.45282
5.49539
5.5004
5.59928
5.47823
5.08717
5.56399
5.54799
5.50845
5.50812
5.5084
5.31018
5.51752
5.58843
5.394
5.43922
5.38284
5.23533
5.50855
5.56967
5.30392
5.34292
5.56869
5.53902
5.3544
5.22111
5.57627
5.58841
5.48238
5.32788
5.59665
5.555
5.53783
5.03184
5.50818
5.48553
5.49047
5.6007
5.48496
5.49848
5.30768
5.55597
5.51518
5.29249
5.30498
5.58211
5.28925
5.50833
5.25891
5.44036
5.45879
5.3925
5.17899
5.46858
5.48319
5.40645
5.42093
5.50774
5.46233
5.21564
5.29534
5.55437
5.55153
5.31443
5.5995
5.18293
5.57906
5.48847
5.5646
5.57628
5.34419
5.58438
5.50258
5.43934
5.41375
5.50077
5.41813
5.4802
5.39252
5.40803
5.33091
5.57643
5.42133
5.41949
5.44294
5.52024
5.53755
5.26833
5.45106
5.46445
5.45999
5.51615
5.5977
5.43002
5.11626
5.28596
5.45878
5.18825
5.33391
5.54827
5.50693
5.52631
5.30476
5.1082
5.48914
5.48011
5.4392
5.36271
5.53274
5.52371
5.51012
5.42274
5.44879
5.58123
5.21923
5.44091
5.53872
5.03277
5.31815
5.11456
5.47838
5.55619
5.58098
5.44014
5.33868
5.48652
5.39185
5.2213
5.38129
5.58963
5.42942
5.33434
5.30483
5.59492
5.31531
5.59166
5.34752
5.43963
5.45118
5.04835
5.59798
5.58154
5.38278
5.58445
5.50091
5.39334
5.18095
5.59782
5.55911
5.53713
5.45877
5.41408
5.3426
5.55363
5.55045
5.44435
5.5204
5.52789
5.37076
5.57758
5.55804
5.5181
5.45399
5.33446
5.55717
5.44928
5.56391
5.57177
5.51783
5.2131
5.25828
5.47974
5.56396
5.21913
5.4588
5.20028
5.39308
5.59739
5.60001
5.34684
5.47327
5.23361
5.55839
5.56184
5.58097
5.41945
5.46519
5.31474
5.44899
5.5457
5.24788
5.5473
5.46004
5.59409
5.51472
5.3318
5.3489
5.58991
5.50776
5.36344
5.57169
5.43521
5.57416
5.5672
5.29608
5.57617
5.54721
5.53101
5.2371
5.40799
5.57045
5.33689
5.34955
5.05771
5.49792
5.58502
5.34969
5.53754
5.04821
5.59745
5.47841
5.55469
5.28572
5.58272
5.37179
5.40006
5.48861
5.51032
5.54703
5.42055
5.53133
5.03858
5.5437
5.48466
5.50938
5.48874
5.57745
5.41966
5.28771
5.37985
5.41058
5.52994
5.56649
5.29393
5.58741
5.56519
5.29535
5.11453
5.12643
5.47503
5.31918
5.47844
5.26809
5.37764
5.56251
5.52941
5.53183
5.37931
5.57647
5.35403
5.51092
5.42949
5.36474
5.29273
5.33501
5.50816
5.28683
5.5575
5.36126
5.59025
5.48858
5.23199
5.41086
5.50587
5.50821
5.57546
5.51627
5.59134
5.33131
5.51805
5.28576
5.50833
5.42221
5.14426
5.25836
5.5376
5.26965
5.51797
5.43452
5.32558
5.40372
5.30556
5.20016
5.48548
5.32176
5.20026
5.55685
5.51981
5.35768
5.5572
5.55066
5.41046
5.52235
5.5806
5.52813
5.42598
5.48839
5.25552
5.54867
5.31456
5.3947
5.53046
5.46057
5.35275
5.54001
5.59209
5.59308
5.37197
5.46129
5.49808
5.55176
5.44779
5.56924
5.37519
5.57174
5.5855
5.4742
5.56498
5.32237
5.43892
5.596
5.22907
5.56416
5.57831
5.35255
5.54199
5.40019
5.15705
5.43918
5.47008
5.56888
5.31449
5.46146
5.5974
5.30526
5.5241
5.47886
5.59134
5.24931
5.58285
5.45099
5.25636
5.50182
5.58703
5.49406
5.5652
5.38261
5.54691
5.40121
5.54721
5.32569
5.41073
5.51773
5.57686
5.59739
5.53639
5.57234
5.57739
5.39127
5.41341
5.47137
5.5762
5.59744
5.54901
5.52261
5.52862
5.53319
5.18143
5.52734
5.46072
5.42525
5.52397
5.49082
5.34681
5.50794
5.29528
5.51666
5.27047
5.29861
5.5168
5.59749
5.59365
5.45376
5.59204
5.48965
5.433
5.4893
5.3741
5.58806
5.1735
5.40053
5.50801
5.43261
5.32761
5.12515
5.47713
5.30747
5.52735
5.40231
5.54007
5.36566
5.59746
5.56507
5.53071
5.43522
5.34828
5.56511
5.57056
5.26349
5.32427
5.46087
5.4978
5.50345
5.47056
5.60009
5.43419
5.40154
5.41154
5.4895
5.48425
5.57105
5.57688
5.57614
5.54409
5.18541
5.42592
5.59208
5.22973
5.1678
5.57096
5.42156
5.17709
5.25376
5.58839
5.22862
5.56578
5.58129
5.5442
5.56167
5.52045
5.51527
5.10602
5.23407
5.17202
5.59131
5.10417
5.35325
5.57853
5.39557
5.5885
5.48847
5.33752
5.53742
5.34573
5.36386
5.30042
5.55642
5.39331
5.43934
5.58762
5.59125
5.34332
5.32165
5.5088
5.26554
5.56459
5.33398
5.24966
5.55062
5.59155
5.32403
5.48366
5.53042
5.1977
5.47175
5.45971
5.55762
5.11864
5.14054
5.29208
)


// ************************************************************************* //
