/*--------------------------------*- C++ -*----------------------------------*\
| =========                 |                                                 |
| \\      /  F ield         | OpenFOAM: The Open Source CFD Toolbox           |
|  \\    /   O peration     | Version:  plus.master.MPPICInterFoam            |
|   \\  /    A nd           | Web:      www.OpenFOAM.com                      |
|    \\/     M anipulation  |                                                 |
\*---------------------------------------------------------------------------*/
FoamFile
{
    version     2.0;
    format      ascii;
    class       volScalarField;
    location    "10.4";
    object      p_rgh;
}
// * * * * * * * * * * * * * * * * * * * * * * * * * * * * * * * * * * * * * //

dimensions      [1 -1 -2 0 0 0 0];

internalField   nonuniform List<scalar> 
11821
(
5701.29
5697.57
5697.43
5698.18
5697.64
5697.68
5701.41
5694.84
5654.91
5663.7
5665.98
5654.65
5658.91
5697.89
5697.27
5652.45
5637.27
5637.6
5637.56
5664.68
5697.97
5697.98
5665.83
5637.55
5635.53
5637.99
5670.44
5699.02
5697.16
5656.73
5636.8
5637.22
5638.2
5668.41
5698.02
5696.63
5654.48
5659.22
5663.48
5650.62
5660.37
5698.52
5701.65
5697.71
5697.06
5697.83
5696.79
5696.72
5701.61
5720.14
5723.23
5725.18
5725.55
5724.04
5721.39
5718.68
5722.83
5703.67
5724.98
5715.1
5714.55
5716.28
5721.29
5725.83
5684.11
5593.06
5582.89
5623.11
5729.55
5723.43
5727.04
5711.05
5582.27
5567.56
5599.34
5730.92
5724.18
5726.67
5700.93
5590.82
5576.62
5607.7
5730.04
5723.6
5724.05
5686.99
5712.28
5702.15
5689.79
5722.16
5721.9
5721.06
5724.07
5726.33
5726.37
5724.91
5721.69
5718.99
5724.64
5728.51
5731.22
5731.79
5729.55
5725.98
5722.05
5728.84
5734.61
5734.9
5717.57
5737.03
5731.35
5725.76
5732.5
5695.54
5540.32
5493.64
5649.12
5736.23
5728.84
5734.44
5704.05
5479.11
5448.59
5570.82
5738.16
5730.18
5733.07
5702.8
5522.83
5472.1
5601.27
5737.84
5729.74
5729.67
5723.56
5715.24
5690.95
5719.81
5732.08
5726.37
5725.55
5729.65
5732.81
5733.32
5730.84
5726.85
5722.74
5717.22
5722.01
5725.25
5725.77
5722.53
5717.97
5713.3
5722.41
5729.25
5728.12
5701.3
5730.87
5724.03
5717.51
5726.89
5685.9
5472.21
5400.75
5649.55
5729.64
5721.23
5729.33
5666.08
5360.74
5317.46
5554.93
5732.26
5723.03
5727.8
5683.16
5431.02
5356.72
5582.53
5731.63
5722.4
5723.6
5728.29
5694.89
5654.83
5721.23
5726.14
5718.97
5718.54
5723.5
5727.27
5728.16
5724.6
5719.62
5714.46
5681.63
5686.56
5690.41
5691.01
5687.17
5682.5
5678.25
5686.81
5694.5
5698.85
5663.96
5695.67
5688.16
5681.92
5691.6
5652.51
5376.4
5299.73
5627.99
5693.83
5685.45
5694.52
5575.34
5206.46
5163.5
5533.54
5696.99
5687.32
5692.72
5634.19
5300.33
5213.73
5547.84
5696.18
5686.54
5688
5696.02
5644.02
5585.85
5693.87
5690.09
5683.01
5682.73
5687.9
5692.35
5693.46
5688.86
5683.57
5678.85
5704.34
5706.47
5707.77
5708.65
5709.25
5709.66
5709.92
5710.1
5703.17
5706.41
5707.74
5708.72
5709.38
5709.81
5710.09
5710.27
5702.14
5705.81
5708.01
5708.86
5709.52
5709.95
5710.21
5710.37
5702.51
5706.57
5708.63
5709.15
5709.68
5709.96
5710.19
5710.36
5702.68
5706.32
5708.09
5708.99
5709.62
5710.01
5710.24
5710.37
5703.09
5706.54
5708.14
5709.01
5709.57
5709.96
5710.21
5710.37
5704.18
5706.4
5707.95
5708.81
5709.39
5709.79
5710.06
5710.23
5716.57
5715.17
5714.11
5713.29
5712.66
5712.17
5711.8
5711.53
5718.26
5716.24
5714.78
5713.72
5712.93
5712.34
5711.9
5711.57
5719.73
5717.2
5715.38
5714.09
5713.15
5712.47
5711.96
5711.59
5720.34
5717.64
5715.68
5714.28
5713.28
5712.55
5712.02
5711.64
5719.94
5717.38
5715.51
5714.18
5713.23
5712.53
5712.01
5711.64
5718.67
5716.53
5714.99
5713.88
5713.06
5712.44
5711.98
5711.65
5716.88
5715.44
5714.33
5713.47
5712.81
5712.3
5711.9
5711.6
5718.82
5716.52
5714.69
5713.22
5712.06
5711.18
5710.52
5710.08
5721.32
5718.14
5715.71
5713.85
5712.43
5711.37
5710.6
5710.1
5723.34
5719.46
5716.54
5714.36
5712.72
5711.51
5710.66
5710.11
5724.33
5720.12
5716.96
5714.61
5712.87
5711.6
5710.69
5710.12
5723.85
5719.78
5716.74
5714.49
5712.81
5711.56
5710.68
5710.1
5721.77
5718.48
5715.96
5714.03
5712.55
5711.44
5710.62
5710.06
5719.26
5716.84
5714.92
5713.38
5712.17
5711.23
5710.53
5710.05
5709.76
5707.27
5705.48
5704.3
5703.71
5703.72
5704.34
5705.55
5712.43
5708.92
5706.41
5704.73
5703.8
5703.61
5704.17
5705.42
5714.79
5710.37
5707.24
5705.15
5703.95
5703.6
5704.08
5705.34
5716.02
5711.15
5707.72
5705.44
5704.12
5703.68
5704.12
5705.36
5715.52
5710.86
5707.57
5705.4
5704.14
5703.74
5704.19
5705.42
5713.34
5709.55
5706.85
5705.04
5704.02
5703.78
5704.3
5705.53
5710.38
5707.66
5705.73
5704.45
5703.78
5703.73
5704.31
5705.5
5675.52
5673.49
5672.02
5671.01
5670.32
5669.5
5668.32
5668.75
5677.67
5674.79
5672.74
5671.35
5670.45
5669.53
5668.21
5668.5
5679.66
5675.93
5673.37
5671.69
5670.6
5669.58
5668.15
5668.34
5680.69
5676.54
5673.73
5671.9
5670.74
5669.66
5668.19
5668.33
5680.17
5676.2
5673.51
5671.76
5670.64
5669.61
5668.19
5668.37
5678.19
5675.04
5672.84
5671.39
5670.48
5669.58
5668.29
5668.58
5675.59
5673.32
5671.77
5670.75
5670.11
5669.37
5668.29
5668.79
5705.09
5707.14
5708.53
5709.41
5710.01
5710.41
5710.66
5710.82
5703.14
5706.31
5708.31
5709.35
5710
5710.43
5710.72
5710.87
5702.97
5706.34
5708.42
5709.54
5710.24
5710.68
5710.98
5711.12
5703.6
5706.46
5708.35
5709.53
5710.28
5710.76
5711.05
5711.22
5702.43
5705.81
5708.38
5709.22
5709.99
5710.43
5710.67
5710.82
5702.36
5706.04
5708.4
5709.24
5709.92
5710.29
5710.53
5710.69
5704.64
5706.79
5708.33
5709.21
5709.81
5710.22
5710.49
5710.67
5718.68
5717.01
5715.72
5714.71
5713.91
5713.28
5712.78
5712.38
5720.64
5718.27
5716.54
5715.24
5714.24
5713.47
5712.86
5712.38
5722.29
5719.44
5717.35
5715.82
5714.67
5713.8
5713.13
5712.61
5722.69
5719.7
5717.51
5715.93
5714.76
5713.87
5713.2
5712.67
5721.76
5718.95
5716.94
5715.43
5714.32
5713.47
5712.81
5712.3
5719.91
5717.69
5716.07
5714.83
5713.89
5713.17
5712.59
5712.15
5717.99
5716.42
5715.21
5714.25
5713.47
5712.88
5712.44
5712.08
5721.85
5719.12
5716.91
5715.15
5713.75
5712.65
5711.79
5711.17
5724.71
5721.05
5718.15
5715.9
5714.17
5712.85
5711.85
5711.15
5727.03
5722.73
5719.32
5716.68
5714.66
5713.15
5712.03
5711.25
5727.77
5723.19
5719.6
5716.82
5714.72
5713.16
5712.02
5711.23
5726.51
5722.21
5718.83
5716.22
5714.25
5712.76
5711.67
5710.9
5724
5720.4
5717.58
5715.4
5713.73
5712.44
5711.49
5710.8
5721.05
5718.41
5716.26
5714.56
5713.22
5712.16
5711.36
5710.78
5713.8
5710.53
5708.13
5706.51
5705.57
5705.3
5705.69
5706.71
5717.27
5712.7
5709.26
5706.9
5705.48
5704.91
5705.15
5706.15
5720.14
5714.71
5710.49
5707.52
5705.7
5704.88
5705.01
5705.98
5721.03
5715.3
5710.83
5707.63
5705.66
5704.75
5704.83
5705.74
5719.38
5713.99
5709.87
5707
5705.25
5704.48
5704.6
5705.48
5716.24
5711.81
5708.54
5706.26
5704.78
5704.26
5704.54
5705.59
5712.73
5709.66
5707.4
5705.9
5705.04
5704.81
5705.25
5706.31
5678.39
5675.62
5673.71
5672.48
5671.71
5670.92
5669.86
5670.5
5681.48
5677.25
5674.32
5672.48
5671.4
5670.48
5669.33
5670
5684.34
5678.84
5674.96
5672.52
5671.1
5670.01
5668.78
5669.7
5685.32
5679.37
5675.14
5672.43
5670.86
5669.68
5668.43
5669.48
5683.57
5678.26
5674.51
5672.15
5670.76
5669.67
5668.43
5669.22
5680.61
5676.61
5673.84
5671.97
5670.71
5670
5668.79
5669.43
5677.74
5675.16
5673.29
5672.04
5671.2
5670.33
5669.2
5669.76
5704.63
5706.71
5708.13
5709.05
5709.66
5710.08
5710.34
5710.48
5702.94
5706.07
5707.91
5709.01
5709.74
5710.25
5710.52
5710.64
5703
5706.19
5707.99
5709.13
5709.86
5710.34
5710.62
5710.75
5703.49
5706.34
5708.09
5709.11
5709.77
5710.21
5710.48
5710.64
5703.01
5706.01
5707.89
5708.87
5709.53
5709.94
5710.22
5710.36
5703.22
5706.08
5707.87
5708.83
5709.46
5709.83
5710.07
5710.2
5704.54
5706.45
5707.85
5708.69
5709.29
5709.73
5710.03
5710.24
5717.92
5716.36
5715.14
5714.18
5713.37
5712.78
5712.31
5711.97
5719.84
5717.57
5715.9
5714.66
5713.69
5712.95
5712.4
5711.97
5721.13
5718.41
5716.41
5714.97
5713.92
5713.14
5712.55
5712.1
5721.36
5718.46
5716.38
5714.88
5713.79
5712.99
5712.38
5711.93
5720.26
5717.65
5715.78
5714.41
5713.41
5712.66
5712.09
5711.66
5718.48
5716.44
5714.97
5713.87
5713.04
5712.41
5711.93
5711.57
5716.67
5715.26
5714.19
5713.35
5712.7
5712.21
5711.82
5711.53
5720.91
5718.27
5716.14
5714.39
5713.05
5712.09
5711.3
5710.73
5723.58
5720.03
5717.24
5715.01
5713.36
5712.13
5711.22
5710.69
5725.37
5721.23
5717.98
5715.52
5713.68
5712.33
5711.36
5710.72
5725.59
5721.27
5717.91
5715.36
5713.47
5712.08
5711.08
5710.4
5724.05
5720.11
5717.08
5714.79
5713.07
5711.79
5710.87
5710.27
5721.57
5718.38
5715.93
5714.05
5712.59
5711.5
5710.7
5710.13
5718.93
5716.65
5714.8
5713.32
5712.16
5711.26
5710.59
5710.14
5712.54
5709.44
5707.22
5705.75
5704.98
5704.82
5705.32
5706.43
5715.8
5711.5
5708.33
5706.12
5704.91
5704.63
5705.01
5706.15
5717.98
5712.84
5708.99
5706.41
5704.91
5704.35
5704.68
5705.83
5718.14
5712.82
5708.84
5706.17
5704.61
5704.02
5704.35
5705.52
5715.93
5711.25
5707.85
5705.57
5704.25
5703.8
5704.19
5705.32
5712.83
5709.26
5706.69
5704.96
5703.98
5703.74
5704.25
5705.46
5709.91
5707.46
5705.66
5704.46
5703.85
5703.83
5704.43
5705.61
5677.52
5674.87
5673.05
5671.87
5671.09
5670.28
5669.17
5669.7
5680.47
5676.61
5673.94
5672.2
5671.25
5670.3
5669.02
5669.42
5682.69
5677.77
5674.41
5672.31
5671.04
5669.97
5668.6
5669.01
5682.98
5677.86
5674.36
5672.16
5670.82
5669.71
5668.33
5668.8
5680.8
5676.59
5673.69
5671.8
5670.61
5669.58
5668.2
5668.59
5678.07
5675.11
5672.99
5671.57
5670.65
5669.74
5668.46
5668.83
5675.7
5673.69
5672.19
5671.16
5670.45
5669.62
5668.42
5668.86
5704.63
5706.62
5708.07
5708.91
5709.5
5709.89
5710.18
5710.38
5703.02
5706.33
5708.63
5709.33
5709.91
5710.27
5710.46
5710.56
5702.73
5706
5708.49
5709.37
5710.04
5710.44
5710.68
5710.77
5703.35
5706.18
5708.51
5709.62
5710.26
5710.71
5710.99
5711.16
5703.17
5706.42
5708.33
5709.52
5710.25
5710.72
5710.99
5711.13
5703.35
5706.46
5708.33
5709.45
5710.12
5710.56
5710.82
5710.96
5705.1
5707.26
5708.61
5709.47
5710.05
5710.43
5710.68
5710.81
5717.05
5715.61
5714.5
5713.62
5712.93
5712.39
5711.96
5711.64
5719.06
5716.94
5715.42
5714.26
5713.39
5712.71
5712.17
5711.76
5721.05
5718.32
5716.4
5714.97
5713.92
5713.12
5712.5
5712.02
5722.23
5719.25
5717.11
5715.57
5714.44
5713.59
5712.94
5712.44
5722.07
5719.26
5717.21
5715.71
5714.6
5713.75
5713.09
5712.58
5720.65
5718.33
5716.6
5715.3
5714.29
5713.5
5712.89
5712.4
5718.67
5717
5715.7
5714.7
5713.9
5713.27
5712.77
5712.38
5719.49
5717.09
5715.14
5713.57
5712.32
5711.35
5710.62
5710.12
5722.39
5719.03
5716.43
5714.42
5712.86
5711.67
5710.8
5710.2
5725.13
5721.03
5717.85
5715.4
5713.55
5712.16
5711.14
5710.44
5726.83
5722.39
5718.93
5716.26
5714.25
5712.76
5711.68
5710.94
5726.68
5722.42
5719.04
5716.43
5714.45
5712.97
5711.88
5711.12
5724.7
5720.99
5718.1
5715.85
5714.12
5712.8
5711.81
5711.11
5721.77
5719.06
5716.85
5715.1
5713.71
5712.61
5711.76
5711.14
5710.6
5707.95
5705.96
5704.6
5703.85
5703.71
5704.2
5705.31
5713.86
5709.86
5706.94
5704.96
5703.79
5703.39
5703.76
5704.86
5717.38
5712.27
5708.46
5705.86
5704.31
5703.69
5703.96
5705.01
5719.77
5714.14
5709.83
5706.82
5704.99
5704.21
5704.38
5705.36
5719.53
5714.14
5709.98
5707.07
5705.32
5704.58
5704.77
5705.78
5717.04
5712.44
5709.06
5706.73
5705.34
5704.8
5705.07
5706.08
5713.7
5710.43
5708.03
5706.42
5705.5
5705.24
5705.64
5706.66
5675.86
5673.7
5672.06
5670.95
5670.2
5669.4
5668.3
5668.91
5678.26
5674.86
5672.42
5670.89
5670
5669.14
5668.01
5668.72
5681.5
5676.7
5673.37
5671.21
5669.99
5669.08
5667.89
5668.86
5684.1
5678.34
5674.34
5671.83
5670.4
5669.25
5667.98
5669.13
5683.75
5678.29
5674.51
5672.15
5670.76
5669.71
5668.59
5669.58
5681.2
5676.97
5674.13
5672.33
5671.26
5670.36
5669.22
5669.9
5678.29
5675.52
5673.63
5672.41
5671.65
5670.87
5669.82
5670.46
5710.23
5710.37
5710.46
5710.45
5710.44
5710.45
5710.32
5711.34
5711.37
5711.37
5711.41
5711.42
5711.44
5711.39
5709.87
5709.89
5709.89
5709.88
5709.85
5709.78
5709.78
5707
5706.94
5706.9
5706.92
5706.95
5707.04
5706.92
5675.42
5675.49
5675.54
5675.58
5675.54
5675.54
5675.49
5710.89
5710.93
5711.14
5711.3
5710.85
5710.76
5710.76
5712.08
5712.03
5712.23
5712.3
5711.94
5711.83
5711.8
5710.76
5710.72
5710.79
5710.78
5710.45
5710.38
5710.42
5707.97
5707.47
5707.26
5706.91
5706.76
5707.09
5707.65
5677.29
5677.4
5678.11
5678.47
5677.58
5676.93
5676.54
5710.55
5710.7
5710.8
5710.71
5710.39
5710.3
5710.36
5711.76
5711.66
5711.78
5711.62
5711.37
5711.32
5711.34
5710.38
5710.39
5710.4
5710.04
5709.85
5709.81
5709.92
5707.79
5707.58
5707.29
5707.01
5706.79
5706.99
5707.05
5676.45
5676.52
5676.55
5676.62
5676.13
5675.87
5675.54
5710.49
5710.61
5710.78
5711.23
5711.16
5711.01
5710.87
5711.4
5711.45
5711.68
5712.09
5712.2
5712.04
5712.07
5709.84
5709.87
5710.05
5710.53
5710.67
5710.69
5710.73
5706.71
5706.25
5706.31
5706.57
5707.06
5707.38
5707.93
5675.75
5676.37
5677.47
5678.35
5678.04
5677.35
5677.26
5710.36
5710.39
5710.39
5710.37
5710.31
5710.25
5710.16
5710.07
5710.46
5710.5
5710.48
5710.42
5710.35
5710.26
5710.17
5710.06
5710.51
5710.53
5710.5
5710.43
5710.35
5710.26
5710.16
5710.06
5710.52
5710.5
5710.48
5710.45
5710.38
5710.27
5710.17
5710.07
5710.48
5710.52
5710.49
5710.43
5710.37
5710.28
5710.19
5710.09
5710.5
5710.55
5710.52
5710.46
5710.39
5710.31
5710.22
5710.12
5710.4
5710.42
5710.42
5710.39
5710.34
5710.28
5710.2
5710.11
5711.08
5710.75
5710.49
5710.28
5710.13
5710
5709.9
5709.81
5711.11
5710.8
5710.54
5710.33
5710.17
5710.04
5709.93
5709.83
5711.09
5710.8
5710.54
5710.34
5710.17
5710.04
5709.93
5709.84
5711.15
5710.84
5710.59
5710.37
5710.19
5710.06
5709.94
5709.85
5711.16
5710.82
5710.54
5710.33
5710.17
5710.04
5709.94
5709.85
5711.16
5710.8
5710.52
5710.31
5710.15
5710.03
5709.93
5709.84
5711.08
5710.72
5710.44
5710.24
5710.08
5709.97
5709.88
5709.8
5709.65
5709.53
5709.52
5709.53
5709.54
5709.54
5709.52
5709.49
5709.69
5709.56
5709.55
5709.56
5709.57
5709.56
5709.55
5709.51
5709.7
5709.57
5709.55
5709.56
5709.56
5709.56
5709.55
5709.51
5709.67
5709.55
5709.54
5709.55
5709.56
5709.56
5709.55
5709.52
5709.62
5709.52
5709.52
5709.53
5709.55
5709.55
5709.54
5709.51
5709.48
5709.46
5709.48
5709.51
5709.52
5709.53
5709.52
5709.49
5709.49
5709.42
5709.42
5709.43
5709.45
5709.45
5709.45
5709.43
5708.52
5708.62
5708.67
5708.75
5708.84
5708.92
5708.99
5709.03
5708.47
5708.6
5708.65
5708.74
5708.84
5708.93
5709
5709.05
5708.43
5708.56
5708.62
5708.72
5708.82
5708.91
5708.99
5709.04
5708.43
5708.55
5708.61
5708.7
5708.81
5708.91
5708.99
5709.04
5708.46
5708.53
5708.58
5708.67
5708.78
5708.88
5708.96
5709.02
5708.59
5708.55
5708.57
5708.65
5708.75
5708.85
5708.94
5709
5708.43
5708.44
5708.48
5708.57
5708.67
5708.77
5708.86
5708.92
5689.68
5698.77
5703.23
5705.61
5706.95
5707.72
5708.18
5708.45
5689.66
5698.75
5703.21
5705.6
5706.94
5707.72
5708.18
5708.45
5689.65
5698.73
5703.19
5705.58
5706.92
5707.71
5708.17
5708.45
5689.66
5698.73
5703.18
5705.57
5706.92
5707.7
5708.17
5708.45
5689.66
5698.72
5703.17
5705.56
5706.9
5707.68
5708.15
5708.43
5689.72
5698.76
5703.19
5705.56
5706.89
5707.67
5708.13
5708.41
5689.77
5698.78
5703.2
5705.55
5706.87
5707.63
5708.08
5708.35
5710.94
5710.91
5710.84
5710.74
5710.64
5710.54
5710.45
5710.35
5710.94
5710.85
5710.73
5710.6
5710.47
5710.35
5710.22
5710.09
5711.09
5710.94
5710.75
5710.55
5710.37
5710.2
5710.06
5709.92
5711.33
5711.21
5711.02
5710.79
5710.57
5710.38
5710.23
5710.1
5710.8
5710.67
5710.52
5710.36
5710.2
5710.07
5709.95
5709.83
5710.77
5710.71
5710.62
5710.49
5710.37
5710.25
5710.12
5709.99
5710.81
5710.81
5710.74
5710.64
5710.53
5710.43
5710.33
5710.23
5711.61
5711.12
5710.74
5710.46
5710.25
5710.09
5709.98
5709.89
5711.55
5711.07
5710.74
5710.45
5710.21
5710.02
5709.87
5709.73
5711.72
5711.19
5710.78
5710.45
5710.18
5709.96
5709.79
5709.65
5711.8
5711.28
5710.87
5710.54
5710.27
5710.06
5709.9
5709.79
5711.47
5710.97
5710.58
5710.27
5710.02
5709.82
5709.66
5709.54
5711.39
5710.97
5710.63
5710.34
5710.11
5709.93
5709.78
5709.66
5711.41
5710.97
5710.63
5710.37
5710.17
5710.02
5709.91
5709.82
5710.24
5709.96
5709.81
5709.71
5709.63
5709.57
5709.53
5709.49
5710.25
5709.86
5709.67
5709.56
5709.49
5709.44
5709.4
5709.27
5710.3
5709.92
5709.72
5709.59
5709.49
5709.4
5709.32
5709.24
5710.31
5709.94
5709.74
5709.61
5709.51
5709.44
5709.39
5709.35
5709.99
5709.64
5709.46
5709.34
5709.22
5709.18
5709.13
5709.07
5709.94
5709.58
5709.47
5709.39
5709.35
5709.32
5709.29
5709.2
5709.98
5709.75
5709.65
5709.59
5709.54
5709.51
5709.47
5709.43
5709.23
5709.02
5708.89
5708.86
5708.88
5708.91
5708.95
5708.98
5708.83
5708.87
5708.77
5708.74
5708.76
5708.79
5708.82
5708.79
5708.76
5709.09
5709.09
5709.02
5708.97
5708.94
5708.86
5708.73
5708.26
5708.61
5708.73
5708.78
5708.8
5708.81
5708.82
5708.84
5708.32
5708.79
5708.82
5708.8
5708.81
5708.78
5708.76
5708.5
5708.54
5708.67
5708.64
5708.65
5708.68
5708.71
5708.75
5708.69
5709.01
5708.9
5708.82
5708.81
5708.84
5708.88
5708.92
5708.95
5691.09
5699.6
5703.74
5705.91
5707.11
5707.8
5708.2
5708.43
5691.12
5699.58
5703.69
5705.86
5707.05
5707.72
5708.09
5708.27
5691.67
5699.8
5703.84
5705.99
5707.18
5707.86
5708.06
5707.7
5691.97
5700.11
5704.04
5706.12
5707.24
5707.83
5708.15
5708.35
5691.27
5699.61
5703.69
5705.86
5707.06
5707.74
5707.92
5707.29
5690.77
5699.34
5703.53
5705.73
5706.95
5707.64
5708.04
5708.17
5690.53
5699.27
5703.53
5705.78
5707.03
5707.74
5708.16
5708.4
5710.63
5710.64
5710.6
5710.54
5710.47
5710.4
5710.33
5710.24
5710.69
5710.6
5710.55
5710.5
5710.39
5710.25
5710.15
5710.05
5710.81
5710.71
5710.58
5710.42
5710.28
5710.16
5710.04
5709.92
5710.74
5710.68
5710.57
5710.41
5710.27
5710.13
5710
5709.89
5710.4
5710.34
5710.22
5710.13
5710.04
5709.95
5709.86
5709.76
5710.44
5710.33
5710.3
5710.3
5710.23
5710.13
5710.05
5709.97
5710.45
5710.48
5710.46
5710.4
5710.33
5710.25
5710.16
5710.07
5711.36
5710.94
5710.62
5710.38
5710.2
5710.06
5709.96
5709.88
5711.25
5710.91
5710.6
5710.33
5710.11
5709.94
5709.81
5709.72
5711.36
5710.93
5710.6
5710.31
5710.09
5709.97
5709.85
5709.74
5711.21
5710.78
5710.45
5710.13
5709.91
5709.83
5709.72
5709.62
5710.99
5710.59
5710.22
5709.84
5709.68
5709.76
5709.66
5709.56
5710.99
5710.63
5710.35
5710.18
5710.01
5709.87
5709.77
5709.69
5711.06
5710.72
5710.46
5710.25
5710.1
5709.97
5709.88
5709.79
5709.93
5709.79
5709.72
5709.67
5709.63
5709.59
5709.56
5709.53
5710.04
5709.77
5709.64
5709.58
5709.53
5709.48
5709.44
5709.38
5710.08
5709.72
5709.6
5709.54
5709.48
5709.42
5709.36
5709.3
5709.81
5709.66
5709.57
5709.5
5709.41
5709.3
5709.26
5709.29
5709.37
5709.1
5709.02
5708.97
5708.93
5709.14
5709.35
5709.31
5709.54
5709.43
5709.38
5709.36
5709.4
5709.42
5709.4
5709.37
5709.69
5709.55
5709.53
5709.53
5709.53
5709.52
5709.51
5709.48
5709.2
5709.01
5708.9
5708.89
5708.92
5708.96
5709.01
5709.04
5708.97
5708.96
5708.9
5708.91
5708.94
5708.97
5709.01
5709.02
5708.83
5708.99
5709.01
5709.02
5709.06
5709.1
5709.14
5709.11
5708.69
5708.95
5708.87
5708.73
5708.76
5708.79
5708.82
5709.07
5708.52
5708.76
5708.81
5708.69
5708.68
5708.91
5708.97
5708.95
5708.52
5708.67
5708.71
5708.75
5708.81
5708.88
5708.95
5708.97
5708.55
5708.65
5708.7
5708.77
5708.85
5708.92
5708.99
5709.03
5690.48
5699.27
5703.55
5705.82
5707.08
5707.8
5708.22
5708.47
5690.46
5699.26
5703.55
5705.83
5707.1
5707.83
5708.25
5708.49
5690.42
5699.22
5703.54
5705.85
5707.13
5707.88
5708.32
5708.59
5690.44
5699.23
5703.49
5705.67
5707.08
5707.96
5708.36
5708.5
5690.13
5699.04
5703.41
5705.75
5707.05
5707.8
5708.23
5708.4
5689.96
5698.94
5703.34
5705.68
5707
5707.75
5708.19
5708.44
5689.78
5698.84
5703.27
5705.64
5706.97
5707.73
5708.19
5708.45
5710.54
5710.54
5710.48
5710.39
5710.3
5710.21
5710.12
5710.03
5710.61
5710.53
5710.41
5710.28
5710.14
5710
5709.87
5709.76
5710.73
5710.57
5710.42
5710.27
5710.12
5709.98
5709.84
5709.73
5711.25
5711.1
5710.9
5710.69
5710.48
5710.3
5710.14
5710.02
5711.14
5710.98
5710.79
5710.59
5710.39
5710.21
5710.05
5709.91
5711.03
5710.92
5710.76
5710.61
5710.46
5710.32
5710.19
5710.07
5710.93
5710.89
5710.8
5710.7
5710.6
5710.51
5710.43
5710.34
5711.06
5710.68
5710.38
5710.16
5709.99
5709.86
5709.76
5709.69
5711.04
5710.62
5710.33
5710.08
5709.87
5709.7
5709.56
5709.38
5711.22
5710.75
5710.39
5710.11
5709.88
5709.7
5709.55
5709.42
5711.62
5711.13
5710.74
5710.43
5710.18
5709.98
5709.83
5709.72
5711.7
5711.17
5710.75
5710.42
5710.16
5709.95
5709.77
5709.63
5711.55
5711.06
5710.71
5710.42
5710.18
5709.99
5709.85
5709.68
5711.6
5711.11
5710.73
5710.44
5710.23
5710.08
5709.97
5709.88
5709.53
5709.35
5709.31
5709.31
5709.31
5709.31
5709.29
5709.29
5709.53
5709.28
5709.16
5709.11
5709.09
5709.09
5708.94
5708.74
5709.66
5709.36
5709.22
5709.15
5709.1
5709.07
5709.03
5708.89
5710.11
5709.79
5709.62
5709.51
5709.43
5709.37
5709.32
5709.28
5710.2
5709.84
5709.66
5709.55
5709.47
5709.39
5709.32
5709.24
5710.22
5709.82
5709.65
5709.54
5709.47
5709.42
5709.31
5709.15
5710.2
5709.93
5709.78
5709.69
5709.62
5709.57
5709.53
5709.49
5708.17
5708.3
5708.38
5708.48
5708.59
5708.69
5708.75
5708.79
5707.85
5708.14
5708.25
5708.35
5708.43
5708.51
5708.49
5708.16
5707.88
5708.42
5708.6
5708.64
5708.66
5708.67
5708.68
5708.66
5707.99
5708.42
5708.59
5708.67
5708.7
5708.73
5708.76
5708.78
5708.58
5709.01
5709.05
5709.01
5708.98
5708.94
5708.79
5708.66
5708.76
5708.84
5708.73
5708.71
5708.72
5708.76
5708.69
5708.55
5709.21
5709
5708.88
5708.85
5708.87
5708.9
5708.95
5708.98
5689.97
5698.86
5703.22
5705.54
5706.84
5707.59
5708.03
5708.28
5690.34
5699
5703.29
5705.55
5706.8
5707.52
5707.92
5707.82
5691.26
5699.45
5703.56
5705.76
5706.99
5707.68
5708
5707.83
5691.9
5699.97
5703.93
5706.02
5707.16
5707.78
5708.11
5708.28
5691.64
5699.74
5703.79
5705.96
5707.16
5707.6
5707.53
5707.76
5691.08
5699.54
5703.66
5705.83
5707.03
5707.69
5708
5708.2
5691.07
5699.59
5703.72
5705.9
5707.11
5707.79
5708.2
5708.43
5709.99
5709.93
5709.87
5709.83
5709.79
5709.76
5709.75
5709.75
5709.98
5709.92
5709.87
5709.82
5709.79
5709.76
5709.75
5709.75
5709.97
5709.92
5709.86
5709.82
5709.78
5709.76
5709.75
5709.75
5709.99
5709.93
5709.87
5709.83
5709.79
5709.77
5709.75
5709.75
5710.01
5709.94
5709.89
5709.84
5709.8
5709.78
5709.76
5709.77
5710.03
5709.97
5709.91
5709.86
5709.82
5709.8
5709.78
5709.78
5710.03
5709.97
5709.92
5709.86
5709.82
5709.79
5709.77
5709.78
5709.75
5709.71
5709.67
5709.64
5709.62
5709.6
5709.58
5709.58
5709.77
5709.72
5709.68
5709.65
5709.62
5709.6
5709.59
5709.59
5709.77
5709.72
5709.69
5709.65
5709.63
5709.6
5709.59
5709.59
5709.78
5709.73
5709.69
5709.66
5709.63
5709.61
5709.6
5709.6
5709.78
5709.74
5709.7
5709.67
5709.64
5709.62
5709.6
5709.6
5709.78
5709.74
5709.7
5709.67
5709.64
5709.62
5709.61
5709.61
5709.74
5709.7
5709.67
5709.64
5709.62
5709.6
5709.59
5709.59
5709.47
5709.46
5709.44
5709.43
5709.43
5709.42
5709.41
5709.41
5709.49
5709.48
5709.46
5709.45
5709.44
5709.43
5709.43
5709.42
5709.49
5709.48
5709.46
5709.45
5709.44
5709.43
5709.43
5709.42
5709.5
5709.48
5709.47
5709.46
5709.45
5709.44
5709.43
5709.43
5709.49
5709.48
5709.47
5709.46
5709.45
5709.44
5709.44
5709.43
5709.48
5709.47
5709.46
5709.45
5709.45
5709.44
5709.44
5709.43
5709.42
5709.42
5709.41
5709.41
5709.41
5709.41
5709.4
5709.4
5709.06
5709.08
5709.1
5709.11
5709.12
5709.12
5709.12
5709.12
5709.08
5709.1
5709.12
5709.13
5709.14
5709.14
5709.14
5709.14
5709.07
5709.1
5709.11
5709.13
5709.14
5709.14
5709.14
5709.14
5709.08
5709.1
5709.12
5709.13
5709.14
5709.15
5709.15
5709.15
5709.06
5709.08
5709.11
5709.12
5709.13
5709.14
5709.14
5709.14
5709.04
5709.07
5709.09
5709.11
5709.12
5709.13
5709.13
5709.13
5708.97
5709
5709.02
5709.04
5709.06
5709.06
5709.07
5709.07
5708.58
5708.66
5708.72
5708.76
5708.79
5708.81
5708.82
5708.82
5708.59
5708.67
5708.73
5708.78
5708.8
5708.82
5708.83
5708.83
5708.58
5708.67
5708.73
5708.77
5708.8
5708.82
5708.83
5708.83
5708.58
5708.67
5708.73
5708.78
5708.81
5708.83
5708.84
5708.84
5708.57
5708.65
5708.71
5708.76
5708.79
5708.81
5708.82
5708.82
5708.55
5708.63
5708.7
5708.74
5708.77
5708.79
5708.81
5708.81
5708.49
5708.57
5708.63
5708.68
5708.71
5708.73
5708.74
5708.75
5710.28
5710.22
5710.17
5710.11
5710.06
5710.02
5709.98
5709.98
5710
5709.95
5709.9
5709.87
5709.83
5709.81
5709.79
5709.8
5709.83
5709.78
5709.73
5709.7
5709.68
5709.67
5709.66
5709.68
5710.02
5709.97
5709.94
5709.91
5709.9
5709.88
5709.87
5709.89
5709.75
5709.7
5709.66
5709.63
5709.61
5709.6
5709.6
5709.62
5709.91
5709.85
5709.81
5709.77
5709.74
5709.72
5709.7
5709.71
5710.15
5710.09
5710.04
5709.99
5709.94
5709.9
5709.88
5709.87
5709.83
5709.79
5709.76
5709.73
5709.71
5709.7
5709.68
5709.67
5709.61
5709.57
5709.57
5709.6
5709.58
5709.56
5709.54
5709.54
5709.55
5709.49
5709.45
5709.45
5709.43
5709.43
5709.42
5709.43
5709.72
5709.68
5709.65
5709.62
5709.61
5709.6
5709.6
5709.61
5709.44
5709.39
5709.38
5709.36
5709.35
5709.35
5709.34
5709.35
5709.51
5709.46
5709.54
5709.52
5709.5
5709.49
5709.48
5709.48
5709.76
5709.72
5709.69
5709.67
5709.65
5709.63
5709.62
5709.61
5709.46
5709.45
5709.44
5709.43
5709.42
5709.42
5709.42
5709.41
5709.22
5709.21
5709.2
5709.3
5709.33
5709.32
5709.31
5709.32
5709.18
5709.11
5709.07
5709.14
5709.13
5709.12
5709.09
5709.05
5709.32
5709.31
5709.3
5709.3
5709.3
5709.3
5709.29
5709.26
5708.93
5708.87
5709.03
5709.03
5709.03
5709.02
5708.99
5708.97
5708.93
5708.95
5709.18
5709.24
5709.24
5709.24
5709.24
5709.25
5709.41
5709.4
5709.39
5709.39
5709.38
5709.38
5709.38
5709.37
5709
5709.02
5709.03
5709.04
5709.05
5709.05
5709.06
5709.05
5708.69
5708.71
5708.74
5708.88
5708.92
5708.86
5708.82
5708.83
5708.76
5708.83
5708.85
5708.86
5708.85
5708.79
5708.73
5708.65
5708.85
5708.86
5708.88
5708.89
5708.9
5708.9
5708.9
5708.86
5708.3
5708.65
5708.75
5708.75
5708.76
5708.71
5708.65
5708.63
5708.35
5708.37
5708.68
5708.84
5708.84
5708.8
5708.78
5708.83
5708.98
5708.99
5709.01
5709.02
5709.03
5709.03
5709.04
5709.04
5708.54
5708.61
5708.66
5708.69
5708.72
5708.73
5708.74
5708.74
5708.31
5708.32
5708.45
5708.5
5708.46
5708.46
5708.48
5708.46
5707.79
5707.83
5708.53
5708.49
5708.5
5708.55
5708.39
5708.39
5708.42
5708.46
5708.51
5708.53
5708.54
5708.53
5708.53
5708.52
5707.38
5707.43
5708.13
5708.49
5708.34
5708.27
5708.28
5708.33
5708
5707.98
5708.38
5708.43
5708.46
5708.46
5708.44
5708.39
5708.52
5708.59
5708.64
5708.68
5708.71
5708.72
5708.73
5708.74
5710.17
5710.12
5710.06
5710.01
5709.97
5709.93
5709.91
5709.9
5709.98
5709.94
5709.89
5709.85
5709.81
5709.78
5709.77
5709.76
5709.85
5709.8
5709.75
5709.72
5709.7
5709.69
5709.68
5709.68
5709.82
5709.77
5709.74
5709.72
5709.7
5709.69
5709.68
5709.69
5709.7
5709.66
5709.63
5709.61
5709.59
5709.58
5709.57
5709.59
5709.9
5709.85
5709.8
5709.75
5709.72
5709.7
5709.68
5709.68
5709.99
5709.94
5709.89
5709.84
5709.8
5709.77
5709.75
5709.75
5709.82
5709.79
5709.76
5709.73
5709.7
5709.69
5709.67
5709.66
5709.67
5709.66
5709.63
5709.6
5709.58
5709.57
5709.57
5709.56
5709.67
5709.63
5709.6
5709.57
5709.55
5709.54
5709.53
5709.53
5709.56
5709.53
5709.5
5709.49
5709.48
5709.47
5709.47
5709.48
5709.51
5709.47
5709.44
5709.42
5709.4
5709.4
5709.4
5709.4
5709.63
5709.6
5709.57
5709.54
5709.52
5709.51
5709.51
5709.51
5709.73
5709.69
5709.66
5709.63
5709.61
5709.59
5709.58
5709.57
5709.5
5709.49
5709.48
5709.47
5709.46
5709.46
5709.45
5709.45
5709.35
5709.35
5709.35
5709.34
5709.31
5709.29
5709.29
5709.31
5709.25
5709.22
5709.34
5709.41
5709.38
5709.36
5709.36
5709.36
5709.28
5709.26
5709.25
5709.24
5709.23
5709.23
5709.24
5709.24
5709.27
5709.26
5709.25
5709.21
5709.15
5709.16
5709.2
5709.21
5709.35
5709.34
5709.33
5709.32
5709.29
5709.26
5709.29
5709.29
5709.45
5709.44
5709.43
5709.42
5709.41
5709.41
5709.4
5709.4
5709.06
5709.08
5709.09
5709.1
5709.11
5709.11
5709.12
5709.12
5709
5709.01
5709.04
5709.04
5709.03
5709
5708.96
5708.95
5708.84
5709.05
5709.18
5709.18
5709.03
5708.94
5708.93
5708.97
5709.07
5709.06
5709.05
5709.04
5709.03
5709.02
5709
5708.99
5708.91
5708.97
5709
5708.97
5708.87
5708.82
5708.81
5708.81
5708.99
5709
5709.02
5709.02
5709.02
5709.01
5708.97
5708.99
5709.05
5709.07
5709.09
5709.1
5709.1
5709.11
5709.11
5709.1
5708.59
5708.66
5708.71
5708.75
5708.78
5708.79
5708.8
5708.81
5708.61
5708.68
5708.72
5708.76
5708.78
5708.79
5708.78
5708.77
5708.71
5708.79
5708.84
5708.88
5708.91
5708.83
5708.7
5708.7
5708.61
5708.67
5708.7
5708.85
5708.83
5708.85
5708.85
5708.84
5708.52
5708.68
5708.72
5708.75
5708.77
5708.72
5708.59
5708.56
5708.56
5708.64
5708.7
5708.73
5708.75
5708.77
5708.76
5708.73
5708.58
5708.66
5708.72
5708.76
5708.78
5708.8
5708.81
5708.81
5709.96
5709.91
5709.86
5709.81
5709.77
5709.74
5709.73
5709.73
5709.69
5709.65
5709.61
5709.58
5709.55
5709.54
5709.54
5709.55
5709.65
5709.6
5709.57
5709.54
5709.53
5709.52
5709.52
5709.54
5709.95
5709.9
5709.87
5709.84
5709.83
5709.81
5709.8
5709.82
5709.81
5709.75
5709.71
5709.67
5709.65
5709.64
5709.63
5709.64
5709.99
5709.94
5709.9
5709.86
5709.82
5709.8
5709.79
5709.79
5710.27
5710.22
5710.16
5710.11
5710.06
5710.01
5709.98
5709.97
5709.64
5709.61
5709.58
5709.56
5709.55
5709.53
5709.52
5709.52
5709.35
5709.4
5709.38
5709.36
5709.35
5709.34
5709.34
5709.35
5709.35
5709.32
5709.3
5709.29
5709.28
5709.28
5709.29
5709.3
5709.66
5709.62
5709.59
5709.57
5709.56
5709.55
5709.55
5709.55
5709.54
5709.48
5709.45
5709.44
5709.42
5709.41
5709.4
5709.39
5709.6
5709.59
5709.62
5709.6
5709.58
5709.56
5709.54
5709.54
5709.83
5709.79
5709.76
5709.74
5709.71
5709.7
5709.68
5709.67
5709.3
5709.3
5709.3
5709.31
5709.31
5709.31
5709.32
5709.32
5708.78
5709.05
5709.08
5709.09
5709.09
5709.07
5709.08
5709.11
5708.78
5708.93
5708.94
5708.94
5708.94
5708.94
5708.93
5708.93
5709.26
5709.25
5709.24
5709.24
5709.24
5709.24
5709.23
5709.2
5709.17
5709.14
5709.17
5709.17
5709.15
5709.14
5709.1
5709.09
5709.19
5709.29
5709.33
5709.33
5709.32
5709.31
5709.3
5709.3
5709.46
5709.45
5709.45
5709.44
5709.43
5709.43
5709.42
5709.42
5708.85
5708.9
5708.93
5708.95
5708.97
5708.98
5708.98
5708.98
5708.18
5708.38
5708.68
5708.7
5708.68
5708.6
5708.6
5708.62
5708.52
5708.52
5708.68
5708.7
5708.7
5708.68
5708.63
5708.62
5708.8
5708.81
5708.82
5708.84
5708.85
5708.85
5708.85
5708.83
5708.72
5708.87
5708.92
5708.95
5708.95
5708.94
5708.91
5708.9
5708.73
5708.87
5708.88
5708.89
5708.9
5708.89
5708.87
5708.87
5709
5709.03
5709.04
5709.05
5709.06
5709.07
5709.07
5709.07
5708.39
5708.49
5708.57
5708.61
5708.65
5708.66
5708.68
5708.68