/*--------------------------------*- C++ -*----------------------------------*\
| =========                 |                                                 |
| \\      /  F ield         | OpenFOAM: The Open Source CFD Toolbox           |
|  \\    /   O peration     | Version:  plus.master.MPPICInterFoam            |
|   \\  /    A nd           | Web:      www.OpenFOAM.com                      |
|    \\/     M anipulation  |                                                 |
\*---------------------------------------------------------------------------*/
FoamFile
{
    version     2.0;
    format      ascii;
    class       surfaceScalarField;
    location    "1.4";
    object      alphaPhi;
}
// * * * * * * * * * * * * * * * * * * * * * * * * * * * * * * * * * * * * * //

dimensions      [0 3 -1 0 0 0 0];

internalField   nonuniform List<scalar> 
34018
(
3.93982e-11
2.00968e-08
1.1277e-10
4.86058e-11
5.72427e-11
2.01005e-08
-1.2798e-11
2.00546e-08
1.46243e-11
1.02605e-10
2.01118e-08
9.24134e-11
-1.47827e-11
2.00567e-08
2.28321e-11
1.99832e-08
-5.10267e-11
-4.11199e-11
6.75735e-11
1.11721e-10
2.0061e-08
-1.0729e-10
-1.4536e-10
8.75863e-11
7.5741e-11
2.01364e-08
-7.80804e-11
7.44202e-11
4.30303e-11
2.01727e-08
-4.51246e-11
6.39292e-11
3.08981e-11
2.01874e-08
-3.81503e-11
6.2184e-11
3.69543e-11
2.01796e-08
-5.54892e-11
7.52933e-11
5.83738e-11
2.01483e-08
-9.27273e-11
8.14127e-11
2.00866e-08
1.15876e-10
-1.42652e-10
2.29253e-11
1.24731e-10
2.01397e-08
-1.99788e-11
5.08804e-11
9.85744e-11
2.0181e-08
4.44263e-11
6.67018e-11
2.02016e-08
4.2104e-11
4.98549e-11
2.02096e-08
5.15188e-11
4.34681e-11
2.02053e-08
7.8058e-11
4.87284e-11
2.01883e-08
6.20919e-11
2.01544e-08
1.22475e-10
-1.33199e-11
1.08453e-10
2.01777e-08
1.43049e-11
1.8289e-11
8.62081e-11
2.02026e-08
1.2781e-11
5.64376e-11
2.02165e-08
1.42019e-11
3.34321e-11
2.0222e-08
2.95439e-11
1.37572e-11
2.02197e-08
6.11582e-11
4.54207e-12
2.02094e-08
7.10047e-12
2.01895e-08
1.12807e-10
-2.84051e-11
9.48944e-11
2.01939e-08
2.31676e-11
3.26379e-13
7.47987e-11
2.02124e-08
-1.21966e-11
4.93636e-11
2.0224e-08
-1.56673e-11
2.12574e-11
2.02283e-08
-2.37316e-12
-8.44505e-12
2.02264e-08
2.85027e-11
-2.77654e-11
2.02174e-08
-3.23226e-11
2.02026e-08
7.22441e-11
-2.18187e-11
9.42413e-11
2.01869e-08
1.30354e-13
-2.04734e-12
7.16593e-11
2.02091e-08
-2.35629e-11
4.77481e-11
2.02224e-08
-4.11305e-11
2.12717e-11
2.02266e-08
-3.45341e-11
-1.52662e-11
2.02237e-08
-1.11316e-11
-4.70428e-11
2.02133e-08
-6.74233e-11
2.01929e-08
1.80677e-11
-7.30255e-12
1.28128e-10
2.01562e-08
-5.72343e-11
6.80938e-12
8.40542e-11
2.01928e-08
-1.86701e-11
5.32585e-11
2.02127e-08
-5.22666e-11
3.51747e-11
2.02174e-08
-5.89668e-11
-3.54762e-12
2.02129e-08
-5.40816e-11
-5.67525e-11
2.01946e-08
-9.39591e-11
2.01597e-08
-4.16799e-11
5.87287e-12
2.00882e-08
-7.41649e-11
1.45846e-10
2.30866e-11
2.01587e-08
1.44263e-10
1.10342e-11
2.01949e-08
7.9912e-11
-4.11611e-11
2.02022e-08
7.13536e-11
-7.27494e-11
2.01908e-08
1.61506e-11
-8.22333e-11
2.01585e-08
-5.61722e-11
2.00958e-08
-8.20999e-11
-1.10682e-10
-9.97212e-11
-8.29706e-11
2.01542e-08
6.04038e-11
4.61408e-11
-7.1382e-11
-7.0867e-11
2.02189e-08
5.18157e-11
-7.41041e-11
-6.02381e-11
2.02584e-08
4.44783e-11
-7.12179e-11
-3.09853e-11
2.02731e-08
1.05835e-11
-5.89475e-11
7.64348e-12
2.02666e-08
-3.83979e-11
-3.21883e-11
4.80665e-11
2.02371e-08
-9.47734e-11
7.27794e-11
2.01764e-08
1.62079e-11
-1.41784e-10
-1.03056e-10
-4.2983e-11
2.02215e-08
7.29984e-11
-8.38629e-11
-5.0704e-11
2.02598e-08
-8.75291e-11
-4.42316e-11
2.02838e-08
-8.00911e-11
-2.7965e-11
2.02939e-08
-5.95214e-11
-4.19102e-12
2.02913e-08
-2.51276e-11
2.15783e-11
2.02758e-08
3.96334e-11
2.02427e-08
1.97884e-11
-9.09849e-11
-4.30572e-11
2.02636e-08
7.36741e-11
-7.92762e-11
-5.11528e-11
2.0286e-08
-8.67185e-11
-5.07022e-11
2.03013e-08
-8.3919e-11
-4.64029e-11
2.0308e-08
-6.63994e-11
-3.91914e-11
2.03069e-08
-3.34505e-11
-3.04842e-11
2.02977e-08
-2.24618e-11
2.02787e-08
1.12922e-11
-6.48684e-11
-3.33697e-11
2.02793e-08
3.82526e-11
-6.35568e-11
-4.2868e-11
2.02971e-08
-8.06047e-11
-4.81162e-11
2.03092e-08
-8.70911e-11
-5.58164e-11
2.03148e-08
-7.88438e-11
-6.48148e-11
2.03139e-08
-5.60272e-11
-7.24184e-11
2.03067e-08
-7.50603e-11
2.02923e-08
-2.14509e-11
-2.70613e-11
-1.08895e-11
2.0273e-08
-1.33396e-11
-3.8962e-11
-2.37328e-11
2.02949e-08
-7.03623e-11
-3.29449e-11
2.03083e-08
-9.07829e-11
-5.23713e-11
2.03143e-08
-9.66077e-11
-7.76543e-11
2.03128e-08
-8.75214e-11
-1.01492e-10
2.03036e-08
-1.16022e-10
2.02848e-08
-6.68376e-11
1.07144e-11
3.39482e-11
2.02422e-08
-7.26468e-11
-1.10142e-11
2.34195e-12
2.02787e-08
-5.68495e-11
-5.6767e-12
2.02987e-08
-9.20296e-11
-3.61136e-11
2.03067e-08
-1.12436e-10
-7.69271e-11
2.03033e-08
-1.18616e-10
-1.17894e-10
2.02873e-08
-1.44555e-10
2.0254e-08
-1.12671e-10
6.88383e-11
2.01814e-08
-9.18581e-11
3.73478e-11
2.40668e-11
2.02442e-08
5.40106e-11
-3.95404e-11
2.02787e-08
4.15032e-11
-8.66511e-11
2.02913e-08
-5.17239e-12
-1.18915e-10
2.02835e-08
-6.37776e-11
-1.36353e-10
2.02531e-08
-1.22695e-10
2.01915e-08
-1.3987e-10
-1.61974e-10
-1.9674e-10
-1.95889e-10
2.02249e-08
1.62468e-10
1.73172e-10
-1.84656e-10
-1.57488e-10
2.02919e-08
1.40836e-10
-1.74981e-10
-1.13009e-10
2.0329e-08
8.29247e-11
-1.5631e-10
-5.83679e-11
2.03435e-08
2.02904e-11
-1.30571e-10
5.31755e-12
2.03378e-08
-5.09576e-11
-9.33445e-11
5.94081e-11
2.03094e-08
-1.17571e-10
8.72652e-11
2.02497e-08
-4.04479e-11
-1.61682e-10
-1.65369e-10
-1.73725e-10
2.02936e-08
1.39584e-10
-1.61984e-10
-1.45718e-10
2.03322e-08
-1.63593e-10
-1.11732e-10
2.03542e-08
-1.53796e-10
-6.8363e-11
2.03642e-08
-1.27335e-10
-2.23609e-11
2.03627e-08
-8.90682e-11
1.91758e-11
2.03483e-08
4.53574e-11
2.03157e-08
-4.59686e-11
-1.25859e-10
-1.55558e-10
2.03324e-08
9.00235e-11
-1.33398e-10
-1.37733e-10
2.03558e-08
-1.45132e-10
-1.16771e-10
2.03703e-08
-1.42849e-10
-8.83989e-11
2.03777e-08
-1.25339e-10
-5.92776e-11
2.03777e-08
-9.34089e-11
-3.38619e-11
2.03697e-08
-1.63596e-11
2.03511e-08
-5.11905e-11
-8.11574e-11
-1.26123e-10
2.03484e-08
3.37952e-11
-9.52149e-11
-1.23051e-10
2.03667e-08
-1.18574e-10
-1.10816e-10
2.03786e-08
-1.28322e-10
-9.68268e-11
2.03849e-08
-1.22574e-10
-8.43735e-11
2.03852e-08
-1.02871e-10
-7.39113e-11
2.0379e-08
-6.46988e-11
2.03648e-08
-7.3577e-11
-2.39853e-11
-8.81007e-11
2.03433e-08
-3.30051e-11
-5.24005e-11
-9.52387e-11
2.03656e-08
-9.07195e-11
-9.1432e-11
2.03789e-08
-1.15178e-10
-9.1623e-11
2.03854e-08
-1.24068e-10
-9.55889e-11
2.03849e-08
-1.18779e-10
-1.00052e-10
2.03767e-08
-9.9951e-11
2.03579e-08
-1.03319e-10
2.25312e-11
-4.19916e-11
2.0315e-08
-9.01825e-11
-1.44101e-11
-6.07458e-11
2.03512e-08
-6.55489e-11
-6.10106e-11
2.03707e-08
-1.03312e-10
-7.439e-11
2.03791e-08
-1.25905e-10
-9.40682e-11
2.03764e-08
-1.34256e-10
-1.13472e-10
2.03614e-08
-1.22656e-10
2.03282e-08
-1.3222e-10
7.09765e-11
2.02559e-08
-1.17614e-10
-1.90729e-11
1.94997e-11
2.03186e-08
-8.74486e-12
-4.44262e-11
2.03517e-08
-1.58992e-11
-9.1234e-11
2.03642e-08
-4.71287e-11
-1.23041e-10
2.0357e-08
-8.25669e-11
-1.40446e-10
2.03275e-08
-1.17019e-10
2.02666e-08
-1.46513e-10
-1.35934e-10
-1.95467e-10
-2.08539e-10
2.02816e-08
1.67948e-10
1.89385e-10
-1.87839e-10
-1.65418e-10
2.03462e-08
1.51863e-10
-1.76238e-10
-1.13319e-10
2.03804e-08
8.58838e-11
-1.52018e-10
-6.05248e-11
2.03933e-08
2.26898e-11
-1.24896e-10
1.6881e-12
2.03866e-08
-4.14044e-11
-9.05844e-11
5.14562e-11
2.03582e-08
-9.81978e-11
7.1672e-11
2.02985e-08
-4.47465e-11
-1.29757e-10
-1.5722e-10
-1.93843e-10
2.03471e-08
1.37391e-10
-1.55943e-10
-1.58275e-10
2.03855e-08
-1.53453e-10
-1.18183e-10
2.04058e-08
-1.43752e-10
-7.11716e-11
2.04145e-08
-1.19761e-10
-2.2824e-11
2.04124e-08
-8.67054e-11
1.8447e-11
2.03977e-08
4.08718e-11
2.03645e-08
-5.27133e-11
-1.108e-10
-1.75168e-10
2.03823e-08
7.83162e-11
-1.19822e-10
-1.5093e-10
2.04068e-08
-1.28316e-10
-1.23094e-10
2.04204e-08
-1.25279e-10
-8.70962e-11
2.0427e-08
-1.09773e-10
-5.1199e-11
2.04267e-08
-8.29499e-11
-2.12966e-11
2.04185e-08
-3.06305e-12
2.03989e-08
-4.9451e-11
-6.33402e-11
-1.45553e-10
2.03963e-08
2.19377e-11
-7.63828e-11
-1.37719e-10
2.04157e-08
-9.42122e-11
-1.17464e-10
2.04272e-08
-1.00721e-10
-9.25457e-11
2.04333e-08
-9.46215e-11
-6.90648e-11
2.04334e-08
-7.77397e-11
-4.95001e-11
2.04269e-08
-3.48306e-11
2.04114e-08
-5.49646e-11
-7.27437e-12
-1.11257e-10
2.03903e-08
-3.78843e-11
-3.09882e-11
-1.13087e-10
2.04137e-08
-5.98244e-11
-1.00264e-10
2.04267e-08
-7.75068e-11
-8.63382e-11
2.04334e-08
-8.2715e-11
-7.50897e-11
2.04328e-08
-7.69769e-11
-6.6021e-11
2.04243e-08
-5.63402e-11
2.04044e-08
-6.42882e-11
3.50949e-11
-7.12924e-11
2.03621e-08
-8.59894e-11
7.27555e-12
-8.38938e-11
2.03988e-08
-3.07524e-11
-7.39093e-11
2.04184e-08
-5.78209e-11
-7.0316e-11
2.04266e-08
-7.30246e-11
-7.06558e-11
2.0424e-08
-7.74155e-11
-7.22085e-11
2.04089e-08
-6.82337e-11
2.03751e-08
-7.45015e-11
7.11464e-11
2.03032e-08
-1.07348e-10
-4.63758e-11
3.61257e-11
2.03655e-08
-4.38117e-11
-1.01054e-11
2.03986e-08
-3.67383e-11
-4.20665e-11
2.04106e-08
-4.71904e-11
-6.28522e-11
2.04035e-08
-5.88656e-11
-7.34106e-11
2.03747e-08
-7.10038e-11
2.03139e-08
-7.63878e-11
-7.29944e-11
-1.48402e-10
-1.55984e-10
2.03264e-08
1.28216e-10
1.38099e-10
-1.44979e-10
-1.24524e-10
2.03879e-08
1.11483e-10
-1.39694e-10
-9.02581e-11
2.04194e-08
7.00156e-11
-1.25665e-10
-5.52465e-11
2.04295e-08
2.91844e-11
-1.11229e-10
-1.66256e-11
2.04204e-08
-7.32661e-12
-9.54104e-11
1.61128e-11
2.03897e-08
-3.92436e-11
1.82812e-11
2.03287e-08
-6.43375e-11
-5.51792e-11
-1.09265e-10
-1.48561e-10
2.03899e-08
9.12339e-11
-1.10777e-10
-1.23062e-10
2.04269e-08
-1.11425e-10
-9.64538e-11
2.04454e-08
-1.08293e-10
-6.2682e-11
2.04514e-08
-9.85154e-11
-2.82062e-11
2.04469e-08
-8.13448e-11
-5.0062e-13
2.043e-08
1.08757e-11
2.03937e-08
-6.90035e-11
-6.89791e-11
-1.37754e-10
2.04213e-08
4.337e-11
-7.4239e-11
-1.23942e-10
2.04456e-08
-8.1215e-11
-1.03257e-10
2.04583e-08
-8.21048e-11
-7.35501e-11
2.04629e-08
-7.53826e-11
-4.44559e-11
2.04604e-08
-6.19181e-11
-2.10325e-11
2.04496e-08
-8.37747e-12
2.04268e-08
-4.5549e-11
-2.28294e-11
-1.23616e-10
2.04316e-08
-2.51007e-12
-2.99089e-11
-1.20404e-10
2.04519e-08
-4.1667e-11
-1.03313e-10
2.04632e-08
-4.75818e-11
-7.76124e-11
2.04675e-08
-4.55476e-11
-5.43208e-11
2.04655e-08
-3.68431e-11
-3.50446e-11
2.04565e-08
-2.1438e-11
2.04378e-08
-2.5194e-11
2.79792e-11
-1.08554e-10
2.04227e-08
-5.12957e-11
1.80812e-11
-1.11394e-10
2.04473e-08
-2.33036e-12
-9.27651e-11
2.04607e-08
-1.3709e-11
-7.41503e-11
2.04656e-08
-1.73038e-11
-5.66579e-11
2.04631e-08
-1.39845e-11
-4.20118e-11
2.04523e-08
-2.94295e-11
2.04296e-08
-6.18606e-12
6.40607e-11
-8.94338e-11
2.03922e-08
-8.91469e-11
5.16932e-11
-9.76201e-11
2.04302e-08
3.02182e-11
-7.85967e-11
2.04497e-08
1.57232e-11
-6.49737e-11
2.04562e-08
7.46537e-12
-5.21145e-11
2.04521e-08
5.33126e-12
-4.18298e-11
2.04353e-08
-3.26629e-11
2.03996e-08
9.3001e-12
9.11984e-11
2.03308e-08
-1.06023e-10
-7.77924e-11
7.56806e-11
2.0394e-08
-7.63713e-11
5.46544e-11
2.04262e-08
-6.01382e-11
3.91604e-11
2.0437e-08
-5.09051e-11
2.98696e-11
2.04288e-08
-4.3084e-11
2.70325e-11
2.0399e-08
-3.81229e-11
2.03385e-08
2.52446e-11
-2.8753e-11
-1.42243e-10
-9.45584e-11
2.03635e-08
1.32547e-10
7.12398e-11
-1.42151e-10
-7.70204e-11
2.04231e-08
6.10477e-11
-1.43096e-10
-6.1699e-11
2.04519e-08
4.52445e-11
-1.39992e-10
-4.36823e-11
2.04588e-08
2.60331e-11
-1.36963e-10
-2.60667e-11
2.04467e-08
1.127e-11
-1.31646e-10
-1.46406e-11
2.04138e-08
-1.68486e-14
-2.33158e-11
2.03501e-08
-1.13662e-10
-1.20215e-12
-1.00222e-10
-9.15833e-11
2.04239e-08
8.26511e-11
-1.05559e-10
-7.97091e-11
2.04603e-08
-1.10913e-10
-6.84117e-11
2.04771e-08
-1.13478e-10
-5.0735e-11
2.04806e-08
-1.13161e-10
-3.29627e-11
2.04731e-08
-1.107e-10
-2.03173e-11
2.04529e-08
-2.04777e-11
2.04132e-08
-1.13027e-10
-5.80035e-11
-8.63768e-11
2.04533e-08
3.55507e-11
-6.53127e-11
-8.47155e-11
2.04775e-08
-7.45229e-11
-7.60224e-11
2.04894e-08
-8.01485e-11
-5.96156e-11
2.04918e-08
-8.10301e-11
-4.36101e-11
2.04864e-08
-7.79463e-11
-3.14543e-11
2.04723e-08
-2.69619e-11
2.04453e-08
-7.47688e-11
-8.69252e-12
-8.0683e-11
2.04599e-08
-1.06843e-11
-1.7088e-11
-8.65496e-11
2.04817e-08
-2.94858e-11
-7.85229e-11
2.04925e-08
-3.81336e-11
-6.3658e-11
2.04947e-08
-4.12182e-11
-5.04849e-11
2.04899e-08
-3.989e-11
-3.94609e-11
2.04776e-08
-3.18008e-11
2.04547e-08
-3.70975e-11
4.11592e-11
-7.42195e-11
2.0448e-08
-5.82687e-11
3.06811e-11
-8.40222e-11
2.0475e-08
1.35339e-11
-7.36064e-11
2.04874e-08
3.81424e-12
-6.40405e-11
2.04902e-08
-1.63304e-12
-5.27612e-11
2.04853e-08
-2.42359e-12
-4.33891e-11
2.04715e-08
-3.47601e-11
2.04449e-08
8.04085e-14
7.80917e-11
-6.71586e-11
2.04157e-08
-9.37766e-11
6.83685e-11
-7.91445e-11
2.04551e-08
5.47159e-11
-6.86533e-11
2.04729e-08
4.26122e-11
-5.91186e-11
2.04779e-08
3.52978e-11
-5.03924e-11
2.04715e-08
3.28627e-11
-4.33492e-11
2.04522e-08
-3.42726e-11
2.04136e-08
3.34244e-11
1.0615e-10
2.03503e-08
-1.11674e-10
-6.59768e-11
9.63468e-11
2.04148e-08
-7.01635e-11
8.4006e-11
2.04456e-08
-6.07639e-11
7.47899e-11
2.04547e-08
-5.26189e-11
6.92606e-11
2.04446e-08
-4.56559e-11
6.69553e-11
2.04132e-08
-4.01133e-11
2.03511e-08
6.93401e-11
-3.29334e-11
-1.81867e-10
-8.53966e-11
2.03697e-08
1.88069e-10
7.50528e-11
-1.75684e-10
-7.54046e-11
2.04283e-08
7.25523e-11
-1.66308e-10
-6.55033e-11
2.0455e-08
6.03156e-11
-1.51759e-10
-5.20993e-11
2.04609e-08
4.21328e-11
-1.32309e-10
-3.87343e-11
2.04484e-08
2.41797e-11
-1.09119e-10
-2.9969e-11
2.04155e-08
1.17622e-11
-3.6869e-11
2.03509e-08
-7.89927e-11
1.28155e-11
-1.464e-10
-7.26041e-11
2.04271e-08
1.39041e-10
-1.44985e-10
-6.891e-11
2.0464e-08
-1.40039e-10
-6.49181e-11
2.048e-08
-1.2985e-10
-5.64038e-11
2.0483e-08
-1.15236e-10
-4.70647e-11
2.04752e-08
-9.75357e-11
-4.11746e-11
2.04549e-08
-4.52726e-11
2.04146e-08
-8.25746e-11
-1.04169e-10
-5.82584e-11
2.04542e-08
9.56839e-11
-1.0911e-10
-5.82411e-11
2.04801e-08
-1.10134e-10
-6.03418e-11
2.04917e-08
-1.05284e-10
-5.72916e-11
2.04939e-08
-9.41497e-11
-5.35971e-11
2.04882e-08
-7.79774e-11
-5.18507e-11
2.04734e-08
-5.45817e-11
2.04451e-08
-6.16693e-11
-5.78516e-11
-3.26261e-11
2.04603e-08
3.84294e-11
-6.76877e-11
-4.13739e-11
2.0483e-08
-7.40122e-11
-4.94919e-11
2.04939e-08
-7.48181e-11
-5.2076e-11
2.04963e-08
-6.88664e-11
-5.4941e-11
2.04915e-08
-5.71431e-11
-5.84412e-11
2.04786e-08
-6.15404e-11
2.04543e-08
-4.35598e-11
-1.4344e-11
-4.66512e-13
2.04477e-08
-1.09385e-11
-2.50233e-11
-2.21083e-11
2.04751e-08
-3.69183e-11
-3.22059e-11
2.04883e-08
-4.39442e-11
-4.01434e-11
2.04915e-08
-4.39829e-11
-5.00429e-11
2.04865e-08
-3.78079e-11
-5.94886e-11
2.04723e-08
-6.47498e-11
2.04446e-08
-2.80805e-11
2.62326e-11
3.46056e-11
2.0414e-08
-5.27693e-11
1.40962e-11
-7.4764e-13
2.04549e-08
-3.91446e-12
-8.57011e-12
2.04737e-08
-1.52155e-11
-2.32123e-11
2.04785e-08
-1.99912e-11
-3.99135e-11
2.04721e-08
-1.86545e-11
-5.54855e-11
2.04529e-08
-6.45391e-11
2.04137e-08
-1.24617e-11
6.19698e-11
2.03526e-08
-6.92562e-11
4.7108e-11
4.03054e-11
2.04148e-08
2.86708e-11
2.19183e-11
2.04454e-08
1.62013e-11
1.0784e-11
2.0454e-08
-5.07453e-12
5.60621e-12
2.04441e-08
-2.79356e-11
5.22464e-12
2.04133e-08
-4.86712e-11
2.03519e-08
9.82094e-12
-6.23711e-11
-1.48893e-10
-1.24329e-10
2.0335e-08
1.65149e-10
1.43178e-10
-1.31557e-10
-1.10879e-10
2.03947e-08
1.25316e-10
-1.05496e-10
-9.15732e-11
2.04201e-08
1.00392e-10
-7.29673e-11
-6.6304e-11
2.04272e-08
6.65261e-11
-2.82077e-11
-3.95863e-11
2.04182e-08
2.39506e-11
2.43537e-11
-1.93579e-11
2.03887e-08
-7.40715e-12
-1.08908e-11
2.03293e-08
8.3495e-11
-2.74436e-11
-1.29879e-10
-9.81012e-11
2.03921e-08
1.36944e-10
-1.17788e-10
-9.08292e-11
2.04301e-08
-9.68553e-11
-8.06957e-11
2.04459e-08
-6.75344e-11
-6.61488e-11
2.0451e-08
-2.93975e-11
-5.00262e-11
2.04452e-08
1.37277e-11
-3.68258e-11
2.04269e-08
-3.08274e-11
2.03893e-08
5.54484e-11
-1.03684e-10
-6.3839e-11
2.04181e-08
1.04781e-10
-1.0048e-10
-6.19387e-11
2.04457e-08
-8.85029e-11
-6.06456e-11
2.04575e-08
-6.80732e-11
-5.66786e-11
2.04621e-08
-3.78282e-11
-5.22702e-11
2.04587e-08
1.32222e-13
-4.92483e-11
2.04467e-08
-4.85767e-11
2.04215e-08
4.02752e-11
-7.09525e-11
-2.06273e-11
2.0425e-08
6.2107e-11
-7.79813e-11
-2.37274e-11
2.04495e-08
-7.63082e-11
-3.13595e-11
2.0461e-08
-6.62505e-11
-3.83829e-11
2.04662e-08
-4.61996e-11
-4.65175e-11
2.04639e-08
-1.76218e-11
-5.49359e-11
2.04538e-08
-6.14731e-11
2.04322e-08
1.54535e-11
-3.75993e-11
3.64928e-11
2.04153e-08
1.17751e-11
-5.3867e-11
2.23175e-11
2.04434e-08
-6.35492e-11
7.50585e-12
2.04575e-08
-6.52472e-11
-1.03977e-11
2.04634e-08
-5.70538e-11
-3.12645e-11
2.04611e-08
-3.9874e-11
-5.1543e-11
2.04497e-08
-6.58378e-11
2.04245e-08
-1.72933e-11
-1.23533e-11
1.00688e-10
2.03857e-08
-2.42837e-11
-3.33424e-11
7.14247e-11
2.04254e-08
-5.27826e-11
5.36929e-11
2.04455e-08
-6.49665e-11
2.53829e-11
2.04531e-08
-6.75188e-11
-8.01485e-12
2.04494e-08
-6.1301e-11
-3.96826e-11
2.04327e-08
-6.24073e-11
2.03958e-08
-4.85951e-11
1.63922e-11
2.03254e-08
-4.66957e-11
1.58112e-10
-1.73657e-11
2.03886e-08
1.27723e-10
-4.46837e-11
2.04205e-08
1.03736e-10
-6.35167e-11
2.04315e-08
6.47953e-11
-7.26003e-11
2.04241e-08
1.92485e-11
-7.37009e-11
2.03956e-08
-2.25688e-11
2.03361e-08
-6.75598e-11
-5.37202e-11
3.77575e-12
-9.94223e-11
2.03037e-08
-7.65239e-12
1.33312e-10
1.73327e-11
-8.26627e-11
2.0359e-08
9.26066e-11
3.22821e-11
-5.46329e-11
2.03892e-08
6.29558e-11
6.17567e-11
-2.25328e-11
2.03985e-08
1.32522e-11
9.48574e-11
2.00505e-11
2.03903e-08
-3.39539e-11
1.37291e-10
5.57748e-11
2.03623e-08
-8.03459e-11
7.96166e-11
2.03044e-08
1.90765e-10
-1.1677e-10
8.22753e-12
-8.12845e-11
2.03599e-08
-6.35318e-12
1.40467e-11
-6.98043e-11
2.0396e-08
2.6654e-11
-5.00176e-11
2.04155e-08
4.51688e-11
-2.47147e-11
2.04214e-08
7.51995e-11
3.95452e-12
2.04182e-08
1.15245e-10
2.66299e-11
2.04029e-08
4.29475e-11
2.0368e-08
1.58304e-10
1.17755e-11
-5.6183e-11
2.03865e-08
-1.37464e-11
9.82183e-12
-4.89046e-11
2.04135e-08
1.36749e-11
-3.59447e-11
2.04294e-08
2.72631e-11
-2.11709e-11
2.04352e-08
5.24098e-11
-6.124e-12
2.04343e-08
8.61978e-11
6.12021e-12
2.04244e-08
1.6016e-11
2.0401e-08
1.24086e-10
2.05745e-11
-2.58397e-11
2.03954e-08
-2.99365e-11
9.63979e-12
-2.19431e-11
2.04202e-08
4.21415e-12
-1.47113e-11
2.04353e-08
8.78822e-12
-1.06628e-11
2.04413e-08
2.30744e-11
-7.21455e-12
2.04409e-08
4.59386e-11
-5.44706e-12
2.04326e-08
-3.2185e-12
2.04128e-08
7.44891e-11
3.18976e-11
1.37189e-11
2.03877e-08
-5.25265e-11
1.03532e-11
1.28963e-11
2.04173e-08
-5.52055e-12
1.49116e-11
2.04342e-08
-1.31103e-11
9.55102e-12
2.04411e-08
-1.09594e-11
1.5068e-12
2.04404e-08
5.56802e-14
-7.34753e-12
2.04305e-08
-1.23991e-11
2.04067e-08
1.68953e-11
3.92849e-11
6.25911e-11
2.03607e-08
-7.14835e-11
8.69746e-12
5.38348e-11
2.04027e-08
-1.70475e-11
5.2053e-11
2.04248e-08
-3.54735e-11
3.79131e-11
2.04334e-08
-4.47511e-11
1.92271e-11
2.0431e-08
-4.46985e-11
-1.72485e-13
2.04154e-08
-1.25973e-11
2.03793e-08
-3.79566e-11
4.82258e-11
2.03041e-08
-8.03709e-11
1.08393e-10
5.75842e-12
2.03691e-08
1.00663e-10
-2.86871e-11
2.04024e-08
9.40982e-11
-5.60282e-11
2.04145e-08
7.22171e-11
-7.3683e-11
2.04082e-08
4.28743e-11
-8.23233e-11
2.03803e-08
1.38353e-11
2.03207e-08
-8.40019e-11
-5.10689e-12
1.33295e-10
2.03061e-11
2.03031e-08
-1.29346e-10
-2.64611e-11
1.10311e-10
3.29884e-11
2.03627e-08
-3.62697e-11
9.80693e-11
4.50579e-11
2.03922e-08
-5.1204e-11
8.76191e-11
6.00729e-11
2.04023e-08
-6.96705e-11
8.05518e-11
7.6412e-11
2.03959e-08
-9.12853e-11
7.77626e-11
9.21679e-11
2.03691e-08
-1.12524e-10
1.01582e-10
2.03117e-08
8.08722e-11
-1.28293e-10
1.1297e-10
1.08233e-11
2.03603e-08
-1.264e-10
9.36629e-11
1.72115e-11
2.04018e-08
8.17439e-11
2.60957e-11
2.04223e-08
7.13825e-11
3.7378e-11
2.04303e-08
6.48602e-11
4.90673e-11
2.0428e-08
6.30485e-11
5.9522e-11
2.04132e-08
6.56544e-11
2.03776e-08
6.29164e-11
9.82212e-11
-1.34596e-12
2.03904e-08
-1.06076e-10
7.77812e-11
4.87078e-12
2.04221e-08
6.38166e-11
1.25984e-11
2.04385e-08
5.14266e-11
2.13079e-11
2.04457e-08
4.30469e-11
2.94122e-11
2.04448e-08
3.90103e-11
3.64497e-11
2.04345e-08
4.13343e-11
2.04093e-08
3.72149e-11
8.22925e-11
-1.12396e-11
2.04001e-08
-9.34626e-11
5.86702e-11
-5.1064e-12
2.04297e-08
4.25089e-11
5.21894e-13
2.04455e-08
2.76878e-11
6.63381e-12
2.04528e-08
1.64174e-11
1.12615e-11
2.04525e-08
9.20982e-12
1.50532e-11
2.04433e-08
1.87216e-11
2.04209e-08
5.25283e-12
6.72608e-11
-1.77788e-11
2.03942e-08
-8.35639e-11
4.06111e-11
-1.30837e-11
2.04282e-08
2.0841e-11
-8.50799e-12
2.04454e-08
2.53648e-12
-4.80159e-12
2.0453e-08
-1.25308e-11
-3.36006e-12
2.04521e-08
-2.3643e-11
-2.60933e-12
2.0441e-08
-3.27375e-13
2.04146e-08
-3.09287e-11
5.05773e-11
-2.24037e-11
2.03685e-08
-6.97755e-11
2.3316e-11
-2.05998e-11
2.04143e-08
-4.60998e-13
-1.37057e-11
2.04363e-08
-2.21102e-11
-1.24595e-11
2.04448e-08
-4.07687e-11
-1.39311e-11
2.0442e-08
-5.56849e-11
-1.61012e-11
2.04255e-08
-1.60478e-11
2.03873e-08
-6.62755e-11
4.22143e-11
2.03137e-08
-6.06225e-11
-2.91299e-11
8.71914e-12
2.03799e-08
-2.46412e-11
-1.91148e-11
2.04127e-08
-1.50422e-11
-4.3571e-11
2.04239e-08
-1.57843e-11
-6.46891e-11
2.0417e-08
-1.9937e-11
-8.36087e-11
2.03886e-08
-2.38256e-11
2.0328e-08
-9.88395e-11
-2.64087e-11
1.26474e-10
1.38328e-10
2.03342e-08
-1.4145e-10
-1.58729e-10
8.72692e-11
1.27373e-10
2.03954e-08
-1.53684e-10
5.44681e-11
1.10101e-10
2.04241e-08
-1.32278e-10
1.52211e-11
8.91009e-11
2.04342e-08
-1.05669e-10
-3.17868e-11
6.56318e-11
2.04292e-08
-7.60399e-11
-8.48596e-11
4.42663e-11
2.04056e-08
-5.16303e-11
1.83369e-11
2.03504e-08
-1.35493e-10
-3.05965e-11
1.10224e-10
9.21531e-11
2.03938e-08
-1.30275e-10
7.37448e-11
8.46852e-11
2.04377e-08
4.17837e-11
7.06477e-11
2.04586e-08
4.5026e-12
5.45458e-11
2.04669e-08
-3.84258e-11
3.63774e-11
2.04651e-08
-8.70265e-11
2.00619e-11
2.04507e-08
4.58812e-12
2.04139e-08
-1.47337e-10
8.78679e-11
5.36892e-11
2.04217e-08
-1.04637e-10
5.39975e-11
4.77998e-11
2.04577e-08
2.44751e-11
3.62297e-11
2.04761e-08
-1.09478e-11
2.56326e-11
2.04839e-08
-5.17361e-11
1.32271e-11
2.04831e-08
-9.66518e-11
2.48928e-12
2.04716e-08
-7.88378e-12
2.04429e-08
-1.44272e-10
6.19273e-11
1.06905e-11
2.04314e-08
-7.42254e-11
3.20601e-11
6.94634e-12
2.04653e-08
6.45952e-12
-2.26086e-12
2.04834e-08
-2.35638e-11
-8.71625e-12
2.0491e-08
-6.01148e-11
-1.41551e-11
2.04903e-08
-1.01215e-10
-1.88589e-11
2.04794e-08
-2.38748e-11
2.04527e-08
-1.43945e-10
3.38374e-11
-3.70917e-11
2.04266e-08
-4.25384e-11
1.12564e-11
-4.01769e-11
2.04631e-08
-9.95942e-12
-4.40053e-11
2.04825e-08
-3.48963e-11
-4.70537e-11
2.04902e-08
-6.5399e-11
-4.66534e-11
2.04888e-08
-1.00904e-10
-4.51631e-11
2.04763e-08
-4.5057e-11
2.04462e-08
-1.3817e-10
2.18728e-12
-8.75539e-11
2.04039e-08
-1.08645e-11
-1.3011e-11
-9.40104e-11
2.04489e-08
-2.57296e-11
-9.17266e-11
2.04711e-08
-4.40457e-11
-8.95755e-11
2.04795e-08
-6.7987e-11
-8.37046e-11
2.04766e-08
-9.74816e-11
-7.65935e-11
2.04599e-08
-7.30602e-11
2.04199e-08
-1.29e-10
-1.38817e-11
2.03499e-08
6.92526e-12
-1.40103e-10
-2.96053e-11
2.04128e-08
-1.49227e-10
-3.83032e-11
2.04429e-08
-1.40646e-10
-5.10115e-11
2.04533e-08
-1.33208e-10
-6.91613e-11
2.0447e-08
-1.22408e-10
-9.42733e-11
2.04205e-08
-1.10265e-10
2.03611e-08
-1.22792e-10
-1.0517e-10
1.40723e-10
1.9785e-10
2.03852e-08
-1.642e-10
-2.31138e-10
8.86344e-11
1.73111e-10
2.04435e-08
-2.1262e-10
4.3246e-11
1.48198e-10
2.04696e-08
-1.79595e-10
-1.21678e-11
1.15252e-10
2.04784e-08
-1.36216e-10
-8.0372e-11
7.47858e-11
2.04742e-08
-8.38087e-11
-1.60355e-10
3.48787e-11
2.04535e-08
-3.50635e-11
3.63727e-13
2.04024e-08
-2.36694e-10
-8.42422e-12
1.28509e-10
1.3266e-10
2.04427e-08
-1.55657e-10
8.05599e-11
1.15069e-10
2.04857e-08
3.94885e-11
9.59058e-11
2.05053e-08
-9.81853e-12
7.20322e-11
2.05125e-08
-7.03103e-11
4.33858e-11
2.05101e-08
-1.44448e-10
1.69837e-11
2.04956e-08
1.16201e-12
2.0459e-08
-2.40298e-10
1.15936e-10
7.7653e-11
2.0468e-08
-1.39274e-10
7.14971e-11
6.59055e-11
2.05045e-08
3.38062e-11
5.21715e-11
2.05224e-08
-1.2765e-11
3.81636e-11
2.05293e-08
-7.22749e-11
2.36726e-11
2.05276e-08
-1.42587e-10
9.07874e-12
2.05154e-08
1.74773e-12
2.0485e-08
-2.21095e-10
9.66361e-11
1.71473e-11
2.04765e-08
-1.13375e-10
5.90784e-11
1.07271e-11
2.05111e-08
2.90843e-11
1.77105e-12
2.05287e-08
-9.41887e-12
-2.93985e-12
2.05355e-08
-6.05365e-11
-3.66832e-12
2.05336e-08
-1.26164e-10
-2.43044e-12
2.05213e-08
-3.4663e-12
2.04923e-08
-1.96839e-10
7.04744e-11
-5.07952e-11
2.04719e-08
-8.00373e-11
4.2677e-11
-5.32859e-11
2.05083e-08
2.42994e-11
-5.86525e-11
2.05265e-08
-1.96632e-12
-5.47143e-11
2.05331e-08
-4.09974e-11
-4.18474e-11
2.05307e-08
-9.44204e-11
-2.55008e-11
2.05173e-08
-1.85622e-11
2.04858e-08
-1.55152e-10
4.3722e-11
-1.26053e-10
2.04508e-08
-4.7385e-11
2.7978e-11
-1.28626e-10
2.04936e-08
2.13078e-11
-1.29283e-10
2.05137e-08
8.41241e-12
-1.17979e-10
2.05204e-08
-1.65943e-11
-9.27069e-11
2.05169e-08
-5.61321e-11
-6.22591e-11
2.05005e-08
-4.65168e-11
2.04615e-08
-1.06091e-10
3.60892e-11
2.03993e-08
-4.17527e-11
-2.01456e-10
2.58788e-11
2.04569e-08
-2.12737e-10
2.3965e-11
2.04832e-08
-2.04368e-10
1.69841e-11
2.04913e-08
-1.85198e-10
1.79154e-13
2.04853e-08
-1.50305e-10
-2.96496e-11
2.04613e-08
-1.09364e-10
2.04049e-08
-7.00924e-11
-8.72381e-11
1.9492e-10
2.15877e-10
2.04384e-08
-2.19507e-10
-2.51784e-10
1.33388e-10
1.90606e-10
2.04934e-08
-2.34288e-10
8.0499e-11
1.79736e-10
2.05176e-08
-2.1533e-10
1.88498e-11
1.61053e-10
2.05254e-08
-1.87475e-10
-5.05558e-11
1.30102e-10
2.05197e-08
-1.47573e-10
-1.26081e-10
9.77014e-11
2.04979e-08
-1.07994e-10
8.14255e-11
2.04468e-08
-2.09227e-10
-8.45267e-11
1.79397e-10
1.4248e-10
2.04938e-08
-2.12357e-10
1.24166e-10
1.24946e-10
2.05321e-08
8.17773e-11
1.18411e-10
2.05493e-08
3.29847e-11
1.0748e-10
2.05548e-08
-2.59936e-11
8.84549e-11
2.05506e-08
-9.66332e-11
6.84233e-11
2.05349e-08
6.47469e-11
2.04994e-08
-1.84256e-10
1.77287e-10
7.89618e-11
2.05181e-08
-2.04947e-10
1.24853e-10
7.25832e-11
2.05494e-08
8.57001e-11
7.09783e-11
2.0564e-08
3.98818e-11
6.90212e-11
2.05687e-08
-1.85995e-11
6.50549e-11
2.05649e-08
-9.19136e-11
6.13963e-11
2.05513e-08
6.46292e-11
2.05221e-08
-1.75113e-10
1.6762e-10
9.08226e-12
2.0526e-08
-1.88498e-10
1.20955e-10
1.51557e-11
2.05551e-08
8.85581e-11
1.82601e-11
2.05688e-08
4.95726e-11
2.53347e-11
2.05731e-08
-3.36519e-12
3.73021e-11
2.05691e-08
-7.25675e-11
5.05916e-11
2.05559e-08
5.84885e-11
2.05283e-08
-1.48887e-10
1.46042e-10
-6.46154e-11
2.05204e-08
-1.62211e-10
1.08985e-10
-5.04909e-11
2.0551e-08
8.89195e-11
-4.50782e-11
2.0565e-08
6.31779e-11
-3.0176e-11
2.05692e-08
2.34587e-11
-2.52125e-12
2.05649e-08
-3.37654e-11
2.86301e-11
2.05509e-08
4.3573e-11
2.05213e-08
-1.00698e-10
1.22927e-10
-1.40343e-10
2.04986e-08
-1.36231e-10
9.61745e-11
-1.25525e-10
2.05354e-08
8.93749e-11
-1.20758e-10
2.05515e-08
7.79355e-11
-9.96103e-11
2.0556e-08
5.35501e-11
-5.76167e-11
2.05509e-08
1.21911e-11
-9.51681e-12
2.05344e-08
1.56295e-11
2.0498e-08
-4.27647e-11
1.22338e-10
2.04469e-08
-1.41187e-10
-2.10334e-10
1.01277e-10
2.04996e-08
-2.11263e-10
9.67856e-11
2.05222e-08
-2.02259e-10
8.67131e-11
2.05284e-08
-1.7303e-10
6.67813e-11
2.05214e-08
-1.19937e-10
3.31705e-11
2.04982e-08
-5.91459e-11
2.04456e-08
-1.31357e-11
-2.6776e-11
1.78576e-10
1.66597e-10
2.04514e-08
-1.87144e-10
-1.80007e-10
1.21615e-10
1.42478e-10
2.05059e-08
-1.65787e-10
7.5831e-11
1.36437e-10
2.053e-08
-1.52707e-10
2.34918e-11
1.29737e-10
2.05371e-08
-1.39279e-10
-3.11348e-11
1.16021e-10
2.05289e-08
-1.2082e-10
-8.29206e-11
1.0338e-10
2.05038e-08
-1.07878e-10
1.02682e-10
2.04505e-08
-1.38558e-10
-1.01806e-10
1.50753e-10
1.02829e-10
2.05072e-08
-1.68149e-10
1.04389e-10
8.76185e-11
2.05422e-08
7.41798e-11
8.6501e-11
2.0557e-08
3.99744e-11
8.52886e-11
2.05609e-08
1.08065e-12
7.85133e-11
2.05543e-08
-4.22376e-11
7.17888e-11
2.05366e-08
7.72507e-11
2.05018e-08
-9.59348e-11
1.40982e-10
4.88591e-11
2.05317e-08
-1.50949e-10
1.00135e-10
4.79319e-11
2.05574e-08
7.62558e-11
5.32049e-11
2.05672e-08
4.79832e-11
5.86395e-11
2.05697e-08
1.22077e-11
6.1683e-11
2.05639e-08
-3.17026e-11
6.39615e-11
2.05497e-08
7.06317e-11
2.05232e-08
-8.15149e-11
1.30844e-10
-1.06882e-11
2.05394e-08
-1.34936e-10
9.50975e-11
4.41053e-12
2.05617e-08
7.69359e-11
1.58199e-11
2.05704e-08
5.44017e-11
2.81073e-11
2.05722e-08
2.29221e-11
4.18755e-11
2.05667e-08
-1.84758e-11
5.395e-11
2.05535e-08
5.90188e-11
2.05292e-08
-6.28619e-11
1.14328e-10
-7.01762e-11
2.05315e-08
-1.16236e-10
8.47815e-11
-4.31337e-11
2.05554e-08
7.48056e-11
-2.79048e-11
2.05651e-08
6.10263e-11
-9.83913e-12
2.05672e-08
3.80331e-11
1.45969e-11
2.05614e-08
4.21064e-12
3.73269e-11
2.05475e-08
4.23566e-11
2.05212e-08
-3.37479e-11
9.97463e-11
-1.26542e-10
2.0507e-08
-1.0218e-10
7.57272e-11
-9.46848e-11
2.05382e-08
7.23575e-11
-7.76459e-11
2.05511e-08
6.57464e-11
-5.53645e-11
2.05544e-08
5.11069e-11
-2.1534e-11
2.05479e-08
2.56992e-11
1.24651e-11
2.0531e-08
2.05191e-11
2.04972e-08
-6.45471e-12
1.07892e-10
2.04523e-08
-1.18848e-10
-1.71507e-10
8.37696e-11
2.05032e-08
-1.51057e-10
7.6019e-11
2.05246e-08
-1.28217e-10
6.39899e-11
2.05304e-08
-1.00275e-10
4.56723e-11
2.05218e-08
-5.82401e-11
2.11165e-11
2.04975e-08
-1.70845e-11
2.04462e-08
-1.03488e-11
-5.84578e-12
6.66697e-11
5.03692e-11
2.03634e-08
-3.0185e-11
-9.43268e-12
4.89321e-11
2.53031e-11
2.04154e-08
6.19538e-12
3.8361e-11
-5.3036e-12
2.04406e-08
4.91568e-11
2.0991e-11
-1.26153e-11
2.04457e-08
6.55221e-11
8.60199e-12
-8.15843e-12
2.04333e-08
6.06955e-11
1.14512e-11
1.1547e-11
2.04025e-08
3.15076e-11
2.69122e-11
2.03425e-08
2.41378e-11
1.26116e-11
2.93028e-11
3.46789e-11
2.04164e-08
4.06671e-13
2.84752e-11
2.17042e-11
2.0445e-08
3.32781e-11
7.68022e-12
2.04596e-08
3.66144e-11
4.51551e-12
2.04614e-08
4.18015e-11
1.07152e-11
2.04516e-08
5.77478e-11
2.2712e-11
2.04304e-08
3.34139e-11
2.03927e-08
7.76216e-11
-1.17724e-11
2.10923e-11
2.04427e-08
5.81053e-11
7.76647e-12
1.92094e-11
2.04609e-08
2.99769e-11
2.37522e-11
2.04709e-08
4.73574e-11
2.85778e-11
2.0471e-08
6.68726e-11
3.54455e-11
2.04629e-08
9.33528e-11
4.28982e-11
2.04466e-08
4.85957e-11
2.04192e-08
1.23221e-10
-2.70239e-11
6.63137e-13
2.04482e-08
8.29589e-11
-5.0026e-12
1.66587e-11
2.04635e-08
2.66098e-11
3.35777e-11
2.04716e-08
5.24386e-11
4.66071e-11
2.04716e-08
7.85412e-11
5.50156e-11
2.04645e-08
1.10021e-10
5.79624e-11