/*--------------------------------*- C++ -*----------------------------------*\
| =========                 |                                                 |
| \\      /  F ield         | OpenFOAM: The Open Source CFD Toolbox           |
|  \\    /   O peration     | Version:  plus.master.MPPICInterFoam            |
|   \\  /    A nd           | Web:      www.OpenFOAM.com                      |
|    \\/     M anipulation  |                                                 |
\*---------------------------------------------------------------------------*/
FoamFile
{
    version     2.0;
    format      ascii;
    class       volScalarField;
    location    "1.4";
    object      k;
}
// * * * * * * * * * * * * * * * * * * * * * * * * * * * * * * * * * * * * * //

dimensions      [0 2 -2 0 0 0 0];

internalField   nonuniform List<scalar> 
11821
(
0.000608199
0.000615171
0.000596858
0.000608197
0.000596861
0.000576973
0.00057679
0.000596629
0.000607843
0.000611501
0.000607863
0.000596665
0.00057688
0.000596632
0.000614841
0.000625382
0.000628838
0.000625404
0.00061488
0.000596715
0.00060785
0.000625385
0.000635529
0.000638858
0.000635553
0.000625425
0.00060793
0.000611511
0.000628844
0.000638861
0.000642148
0.000638884
0.000628882
0.000611583
0.000607875
0.000625412
0.000635557
0.000638886
0.000635577
0.000625439
0.000607917
0.000596678
0.000614888
0.00062543
0.000628884
0.00062544
0.000614884
0.00059668
0.000576892
0.000596722
0.000607933
0.000611584
0.000607917
0.00059668
0.000576848
0.000576847
0.000596667
0.000607861
0.000611498
0.000607841
0.000596628
0.000576829
0.000596669
0.000614862
0.000625386
0.000628825
0.000625373
0.000614833
0.000596654
0.000607865
0.000625388
0.000635518
0.000638831
0.000635508
0.000625365
0.000607856
0.000611504
0.000628829
0.000638833
0.000642104
0.000638824
0.000628806
0.000611496
0.000607851
0.00062538
0.000635512
0.000638826
0.000635501
0.000625351
0.000607834
0.00059664
0.00061484
0.000625369
0.000628809
0.000625352
0.000614801
0.000596607
0.000576841
0.000596662
0.000607861
0.000611498
0.000607834
0.000596606
0.000576786
0.000576896
0.000596702
0.000607882
0.000611507
0.000607841
0.00059662
0.000576817
0.000596702
0.000614887
0.000625401
0.00062883
0.00062537
0.000614823
0.00059664
0.000607883
0.000625402
0.000635525
0.000638831
0.000635502
0.000625353
0.00060784
0.000611511
0.000628833
0.000638833
0.000642099
0.000638815
0.000628793
0.00061148
0.000607848
0.000625376
0.000635506
0.000638816
0.000635489
0.000625339
0.000607821
0.000596632
0.000614831
0.000625359
0.000628796
0.00062534
0.000614791
0.0005966
0.000576831
0.00059665
0.000607847
0.000611485
0.000607824
0.000596602
0.000576787
0.000576905
0.000596707
0.000607886
0.000611511
0.000607846
0.000596627
0.000576826
0.000596706
0.000614889
0.000625403
0.000628832
0.000625372
0.000614826
0.000596644
0.000607886
0.000625403
0.000635526
0.000638832
0.000635504
0.000625356
0.000607844
0.000611512
0.000628832
0.000638833
0.0006421
0.000638817
0.000628798
0.000611487
0.000607848
0.000625375
0.000635506
0.000638818
0.000635494
0.000625347
0.000607834
0.000596632
0.000614829
0.000625358
0.000628799
0.000625348
0.000614805
0.000596621
0.000576831
0.000596647
0.000607846
0.000611489
0.000607835
0.000596621
0.000576816
0.000576889
0.000596693
0.000607878
0.000611509
0.000607849
0.000596635
0.000576834
0.000596691
0.000614876
0.000625394
0.000628827
0.000625372
0.000614828
0.000596645
0.000607874
0.000625392
0.000635519
0.000638828
0.000635503
0.000625357
0.000607845
0.000611503
0.000628824
0.000638826
0.000642096
0.000638817
0.0006288
0.000611491
0.000607842
0.000625366
0.0006355
0.000638815
0.000635495
0.000625353
0.000607843
0.000596626
0.000614821
0.000625351
0.000628797
0.000625351
0.000614815
0.000596637
0.000576822
0.000596635
0.000607837
0.000611485
0.00060784
0.000596636
0.000576841
0.000576878
0.000596684
0.000607872
0.000611505
0.000607848
0.000596634
0.000576832
0.000596682
0.000614867
0.000625387
0.000628822
0.000625367
0.000614823
0.000596639
0.000607868
0.000625385
0.000635513
0.000638822
0.000635497
0.00062535
0.000607836
0.000611499
0.000628818
0.00063882
0.00064209
0.00063881
0.000628793
0.000611482
0.000607839
0.000625361
0.000635494
0.000638809
0.000635489
0.000625347
0.000607837
0.000596624
0.000614816
0.000625345
0.00062879
0.000625345
0.00061481
0.000596634
0.00057682
0.000596629
0.00060783
0.000611478
0.000607835
0.000596633
0.000576841
0.000576886
0.000596688
0.000607874
0.000611507
0.000607849
0.000596638
0.000576839
0.000596688
0.000614869
0.000625387
0.00062882
0.000625366
0.000614824
0.000596642
0.000607874
0.000625387
0.000635512
0.000638819
0.000635493
0.000625347
0.000607835
0.000611507
0.000628821
0.00063882
0.000642086
0.000638804
0.000628786
0.000611476
0.00060785
0.000625367
0.000635495
0.000638805
0.000635482
0.000625337
0.000607826
0.000596641
0.000614827
0.000625351
0.000628789
0.000625339
0.000614799
0.000596618
0.000576845
0.000596648
0.000607842
0.000611482
0.00060783
0.000596621
0.000576821
0.00057689
0.000596692
0.000607878
0.000611511
0.000607856
0.000596648
0.000576856
0.000596691
0.000614871
0.000625389
0.000628823
0.000625372
0.000614834
0.000596659
0.000607877
0.000625389
0.000635514
0.000638822
0.000635499
0.000625356
0.00060785
0.000611512
0.000628824
0.000638823
0.00064209
0.000638808
0.000628792
0.000611485
0.000607858
0.000625374
0.000635501
0.00063881
0.000635485
0.000625339
0.000607828
0.000596653
0.000614838
0.00062536
0.000628796
0.000625341
0.000614797
0.000596613
0.000576864
0.000596666
0.000607857
0.000611491
0.000607833
0.000596616
0.000576808
0.00057687
0.000596681
0.000607875
0.000611514
0.000607862
0.000596656
0.000576865
0.000596677
0.000614866
0.000625392
0.000628831
0.000625382
0.000614845
0.000596672
0.000607871
0.00062539
0.000635521
0.000638834
0.000635513
0.000625371
0.000607865
0.000611509
0.000628828
0.000638833
0.000642103
0.000638824
0.000628808
0.000611501
0.000607857
0.000625379
0.000635511
0.000638823
0.0006355
0.000625354
0.000607843
0.00059665
0.000614841
0.000625368
0.000628807
0.000625354
0.000614811
0.000596626
0.000576857
0.000596666
0.000607862
0.0006115
0.000607843
0.000596627
0.000576819
0.000576849
0.00059667
0.000607874
0.00061152
0.000607872
0.000596666
0.000576869
0.000596667
0.000614864
0.000625397
0.000628841
0.000625393
0.000614855
0.000596675
0.000607872
0.000625396
0.000635532
0.000638847
0.000635525
0.000625382
0.00060787
0.000611518
0.000628839
0.000638846
0.000642117
0.000638837
0.00062882
0.000611509
0.00060787
0.00062539
0.000635523
0.000638836
0.000635513
0.000625367
0.000607854
0.000596662
0.000614851
0.000625378
0.000628818
0.000625367
0.000614825
0.000596641
0.000576862
0.000596669
0.000607866
0.000611506
0.000607853
0.000596641
0.000576836
0.000576867
0.000596689
0.000607899
0.00061155
0.000607905
0.0005967
0.000576897
0.000596691
0.000614887
0.000625423
0.000628868
0.000625422
0.000614883
0.000596696
0.000607903
0.000625424
0.000635561
0.000638876
0.000635554
0.000625408
0.00060789
0.000611555
0.000628871
0.000638877
0.000642148
0.000638867
0.000628848
0.000611531
0.000607912
0.000625426
0.000635557
0.000638868
0.000635545
0.000625399
0.000607882
0.000596708
0.000614888
0.000625412
0.00062885
0.0006254
0.000614859
0.000596674
0.000576906
0.000596702
0.000607895
0.000611535
0.000607884
0.000596675
0.000576872
0.000576932
0.000596761
0.000607976
0.00061163
0.000607989
0.000596783
0.000576975
0.000596764
0.000614966
0.000625505
0.000628953
0.000625509
0.000614968
0.000596775
0.00060798
0.000625506
0.000635645
0.000638963
0.000635643
0.000625495
0.000607971
0.000611636
0.000628956
0.000638965
0.000642237
0.000638958
0.000628937
0.000611615
0.000607995
0.000625513
0.000635645
0.000638959
0.000635637
0.000625491
0.00060797
0.000596789
0.000614972
0.000625497
0.000628938
0.000625491
0.000614953
0.000596768
0.000576979
0.000596777
0.000607972
0.000611617
0.000607972
0.000596769
0.00057697
0.000577029
0.000596868
0.000608084
0.000611736
0.000608089
0.000596877
0.000577059
0.000596868
0.000615079
0.000625617
0.000629063
0.000625613
0.000615066
0.000596865
0.000608084
0.000625617
0.000635755
0.000639069
0.000635744
0.00062559
0.000608059
0.000611735
0.000629062
0.000639067
0.000642336
0.000639053
0.000629028
0.000611702
0.000608087
0.00062561
0.00063574
0.000639052
0.000635728
0.00062558
0.000608057
0.00059687
0.000615059
0.000625584
0.000629024
0.000625578
0.000615041
0.000596856
0.000577046
0.000596852
0.000608049
0.000611696
0.000608055
0.000596856
0.000577059
0.000577063
0.000596898
0.000608107
0.000611752
0.0006081
0.000596884
0.000577065
0.000596898
0.000615102
0.000625634
0.000629073
0.00062562
0.000615071
0.000596872
0.000608106
0.000625633
0.000635765
0.000639074
0.000635746
0.000625593
0.000608065
0.00061175
0.000629071
0.000639072
0.000642337
0.000639053
0.000629029
0.000611707
0.000608096
0.000625615
0.000635742
0.000639051
0.000635727
0.000625579
0.000608061
0.000596877
0.000615063
0.000625586
0.000629025
0.000625578
0.00061504
0.000596858
0.000577054
0.00059686
0.000608056
0.000611701
0.000608057
0.000596856
0.000577059
0.000577016
0.000596839
0.000608047
0.000611696
0.000608049
0.000596841
0.000577035
0.00059684
0.000615033
0.000625567
0.000629011
0.000625565
0.000615026
0.00059684
0.000608049
0.000625568
0.000635703
0.000639018
0.000635697
0.000625553
0.000608038
0.000611698
0.000629012
0.000639018
0.000642289
0.00063901
0.000628994
0.000611682
0.00060805
0.000625564
0.000635696
0.00063901
0.000635689
0.000625546
0.000608035
0.000596841
0.000615023
0.000625551
0.000628992
0.000625545
0.000615009
0.00059683
0.000577033
0.000596836
0.000608035
0.000611679
0.000608032
0.000596828
0.00057703
0.000577043
0.000596852
0.000608058
0.000611705
0.000608058
0.000596852
0.000577053
0.000596853
0.000615041
0.000625574
0.000629017
0.000625569
0.000615031
0.000596851
0.000608062
0.000625576
0.00063571
0.000639024
0.000635702
0.00062556
0.000608051
0.000611711
0.000629021
0.000639025
0.000642294
0.000639015
0.000629
0.000611693
0.000608065
0.000625574
0.000635704
0.000639015
0.000635694
0.000625552
0.000608045
0.000596859
0.000615034
0.00062556
0.000628999
0.000625551
0.000615015
0.000596839
0.000577057
0.000596851
0.000608048
0.000611691
0.000608043
0.000596839
0.000577044
0.000264967
0.000116418
0.000521355
0.000478358
0.000425729
0.00036021
0.000272611
0.000119619
0.000588142
0.000560436
0.000525623
0.000482609
0.000429704
0.000363641
0.000275195
0.000120675
0.000583984
0.000556023
0.00052114
0.000478216
0.000425606
0.00036009
0.000272503
0.000119547
0.000571716
0.00054316
0.00050811
0.000465475
0.00041374
0.000349819
0.000264713
0.000116336
0.000550426
0.000521995
0.000487079
0.000445084
0.000394775
0.000333263
0.000251842
0.00011108
0.000550399
0.000522005
0.000487115
0.000445137
0.000394839
0.00033333
0.000251903
0.000111104
0.000571662
0.000543161
0.000508153
0.000465549
0.000413839
0.000349933
0.000264821
0.000116388
0.000583856
0.000555971
0.000521132
0.000478241
0.000425657
0.000360162
0.000272583
0.000119594
0.000587881
0.000560249
0.000525504
0.000482527
0.000429643
0.000363595
0.000275162
0.000120658
0.000583815
0.000555907
0.000521055
0.000478151
0.000425554
0.00036005
0.000272473
0.000119531
0.000571596
0.000543069
0.000508037
0.000465414
0.000413689
0.000349775
0.000264678
0.000116317
0.000550332
0.000521917
0.00048701
0.000445021
0.000394717
0.00033321
0.000251796
0.000111056
0.00055034
0.000521943
0.000487051
0.000445073
0.000394776
0.000333271
0.000251851
0.000111075
0.000571593
0.00054309
0.000508081
0.000465479
0.000413772
0.000349871
0.000264772
0.000116358
0.000583773
0.000555886
0.000521054
0.00047817
0.00042559
0.000360098
0.000272526
0.000119555
0.000587799
0.000560172
0.000525434
0.000482463
0.000429584
0.00036354
0.000275114
0.000120626
0.000583741
0.000555841
0.000520996
0.000478097
0.000425504
0.000360003
0.000272431
0.000119504
0.000571532
0.000543013
0.000507987
0.000465368
0.000413646
0.000349736
0.000264642
0.000116294
0.000550278
0.000521869
0.000486967
0.000444982
0.00039468
0.000333175
0.000251765
0.000111037
0.000550325
0.000521928
0.000487037
0.000445062
0.000394769
0.000333269
0.000251854
0.000111074
0.000571576
0.000543071
0.000508061
0.000465459
0.000413752
0.000349853
0.000264758
0.000116344
0.000583755
0.000555864
0.000521031
0.000478144
0.000425562
0.000360069
0.000272497
0.000119529
0.000587782
0.000560154
0.000525414
0.000482441
0.000429559
0.000363513
0.000275085
0.000120599
0.00058373
0.000555831
0.000520986
0.000478087
0.000425493
0.00035999
0.000272416
0.000119484
0.000571529
0.000543014
0.000507992
0.000465376
0.000413654
0.000349744
0.000264649
0.000116288
0.000550284
0.000521881
0.000486985
0.000445004
0.000394707
0.000333204
0.000251792
0.000111043
0.000550334
0.000521941
0.000487056
0.000445086
0.000394798
0.000333302
0.000251887
0.000111089
0.00057158
0.000543075
0.000508066
0.000465465
0.000413758
0.000349858
0.000264761
0.000116341
0.000583758
0.000555867
0.000521032
0.000478142
0.000425557
0.00036006
0.000272486
0.000119513
0.00058779
0.000560162
0.000525422
0.000482447
0.000429563
0.000363515
0.000275085
0.000120586
0.000583746
0.000555851
0.00052101
0.000478113
0.000425521
0.000360019
0.000272442
0.000119486
0.000571556
0.000543049
0.000508034
0.000465424
0.000413708
0.0003498
0.000264701
0.000116303
0.000550321
0.000521927
0.00048704
0.000445067
0.000394776
0.000333275
0.000251857
0.000111069
0.000550341
0.00052195
0.000487067
0.0004451
0.000394814
0.000333318
0.000251902
0.000111097
0.000571579
0.000543073
0.000508061
0.000465455
0.000413743
0.000349838
0.000264739
0.000116325
0.000583757
0.000555863
0.000521023
0.000478128
0.000425536
0.000360034
0.000272457
0.000119491
0.000587793
0.000560166
0.000525424
0.000482448
0.000429561
0.000363511
0.00027508
0.000120577
0.000583758
0.000555867
0.000521031
0.000478138
0.00042555
0.00036005
0.000272474
0.000119497
0.000571579
0.00054308
0.000508074
0.000465473
0.000413764
0.000349861
0.000264761
0.000116331
0.000550354
0.00052197
0.000487093
0.00044513
0.000394846
0.000333349
0.000251927
0.000111103
0.000550336
0.000521945
0.000487061
0.000445092
0.000394803
0.000333305
0.000251888
0.000111088
0.000571569
0.000543059
0.000508042
0.000465431
0.000413712
0.0003498
0.000264697
0.000116297
0.000583745
0.000555847
0.000521002
0.0004781
0.000425502
0.000359993
0.000272412
0.000119459
0.000587783
0.000560153
0.000525408
0.000482428
0.000429537
0.000363483
0.00027505
0.000120553
0.000583752
0.000555861
0.000521024
0.000478132
0.000425543
0.000360043
0.000272466
0.000119488
0.000571577
0.000543081
0.000508079
0.000465481
0.000413775
0.000349875
0.000264776
0.000116341
0.000550358
0.000521978
0.000487107
0.000445149
0.00039487
0.000333378
0.000251959
0.000111125
0.000550347
0.000521959
0.000487078
0.000445111
0.000394824
0.000333326
0.000251907
0.000111093
0.000571577
0.000543073
0.000508062
0.000465456
0.000413742
0.000349834
0.000264731
0.000116304
0.000583748
0.000555855
0.000521015
0.000478119
0.000425526
0.000360022
0.000272441
0.000119461
0.000587778
0.00056015
0.000525408
0.00048243
0.000429542
0.000363489
0.000275055
0.000120544
0.000583739
0.000555847
0.000521009
0.000478114
0.000425523
0.000360021
0.000272443
0.000119469
0.000571557
0.000543058
0.000508051
0.000465448
0.000413738
0.000349835
0.000264737
0.000116318
0.000550332
0.000521948
0.000487072
0.00044511
0.000394827
0.000333333
0.000251917
0.000111109
0.000550373
0.000521991
0.000487116
0.000445155
0.000394873
0.000333378
0.000251958
0.000111124
0.000571603
0.000543109
0.00050811
0.000465516
0.000413816
0.000349921
0.000264822
0.000116361
0.00058377
0.000555887
0.000521059
0.000478178
0.0004256
0.000360109
0.000272535
0.000119518
0.000587792
0.000560171
0.000525436
0.000482467
0.000429589
0.000363545
0.000275116
0.000120577
0.000583742
0.00055585
0.000521012
0.000478119
0.00042553
0.00036003
0.000272453
0.000119469
0.000571548
0.000543042
0.000508028
0.000465419
0.000413703
0.000349795
0.000264696
0.000116295
0.00055031
0.000521917
0.000487031
0.000445058
0.000394766
0.000333265
0.000251849
0.000111074
0.000550383
0.000522
0.000487124
0.000445162
0.000394879
0.000333385
0.000251966
0.000111137
0.000571616
0.000543123
0.000508125
0.000465534
0.000413837
0.000349946
0.00026485
0.000116392
0.000583786
0.000555903
0.000521078
0.0004782
0.000425628
0.000360142
0.000272571
0.000119553
0.000587809
0.000560188
0.000525455
0.00048249
0.000429616
0.000363576
0.000275148
0.000120605
0.000583757
0.000555865
0.000521029
0.000478137
0.00042555
0.000360052
0.000272477
0.000119486
0.00057156
0.000543053
0.000508039
0.000465429
0.000413713
0.000349805
0.000264706
0.000116298
0.000550319
0.000521924
0.000487036
0.000445062
0.000394767
0.000333265
0.000251849
0.000111069
0.000550377
0.000521989
0.000487107
0.000445137
0.000394848
0.000333348
0.000251927
0.000111114
0.000571611
0.000543109
0.000508101
0.000465497
0.000413788
0.000349885
0.000264784
0.000116347
0.000583783
0.000555891
0.000521054
0.000478162
0.000425575
0.000360076
0.000272499
0.000119503
0.00058781
0.000560182
0.000525439
0.000482463
0.000429577
0.000363526
0.000275094
0.000120567
0.000583764
0.000555868
0.000521026
0.000478128
0.000425534
0.000360029
0.00027245
0.000119469
0.000571573
0.000543066
0.000508051
0.00046544
0.000413721
0.000349811
0.000264709
0.000116298
0.000550337
0.000521944
0.000487058
0.000445085
0.000394792
0.00033329
0.000251871
0.000111079
0.000550394
0.000522
0.000487111
0.000445133
0.000394835
0.000333326
0.0002519
0.000111098
0.00057162
0.000543105
0.000508079
0.000465455
0.000413723
0.000349799
0.000264685
0.000116287
0.00058379
0.000555883
0.000521025
0.000478108
0.000425494
0.000359971
0.00027238
0.000119429
0.000587822
0.000560179
0.000525419
0.000482421
0.000429513
0.000363443
0.000274999
0.000120506
0.000583784
0.000555879
0.000521026
0.000478114
0.000425505
0.000359987
0.000272397
0.00011943
0.000571602
0.000543092
0.000508071
0.000465453
0.000413727
0.000349808
0.000264697
0.000116282
0.000550371
0.000521979
0.000487091
0.000445115
0.000394818
0.00033331
0.000251883
0.000111078
0.000550459
0.000522052
0.000487147
0.000445152
0.000394837
0.000333313
0.000251874
0.000111077
0.000571685
0.000543154
0.000508108
0.000465463
0.000413711
0.000349769
0.000264642
0.000116249
0.000583859
0.000555935
0.000521058
0.000478122
0.00042549
0.000359952
0.000272349
0.000119393
0.000587896
0.000560241
0.000525467
0.000482455
0.000429534
0.000363453
0.000274997
0.000120485
0.000583866
0.000555955
0.000521093
0.000478173
0.000425557
0.000360031
0.000272431
0.000119427
0.000571693
0.00054318
0.000508156
0.000465535
0.000413805
0.000349881
0.000264758
0.000116296
0.000550469
0.000522076
0.000487186
0.000445208
0.000394907
0.000333393
0.000251951
0.000111099
0.000550529
0.000522106
0.000487182
0.000445168
0.000394835
0.000333296
0.000251844
0.000111042
0.000571764
0.000543221
0.000508161
0.000465504
0.000413741
0.000349791
0.000264656
0.000116236
0.000583939
0.000556008
0.000521124
0.000478182
0.000425546
0.000360005
0.000272394
0.000119396
0.000587978
0.000560319
0.00052554
0.000482527
0.000429604
0.00036352
0.000275056
0.000120495
0.000583951
0.000556037
0.000521172
0.000478251
0.000425633
0.000360103
0.000272492
0.000119442
0.000571781
0.000543265
0.000508238
0.000465612
0.000413878
0.000349947
0.000264812
0.000116309
0.000550557
0.00052216
0.000487265
0.000445279
0.00039497
0.000333445
0.00025199
0.000111107
0.000550538
0.000522118
0.000487196
0.000445184
0.000394851
0.00033331
0.000251852
0.000111018
0.000571777
0.00054324
0.000508188
0.000465537
0.000413778
0.000349829
0.000264688
0.000116228
0.000583952
0.00055603
0.000521155
0.000478221
0.000425591
0.000360051
0.000272436
0.000119395
0.000587989
0.000560338
0.000525568
0.000482561
0.000429643
0.000363559
0.00027509
0.000120492
0.000583959
0.000556051
0.00052119
0.000478271
0.000425652
0.00036012
0.000272503
0.000119429
0.000571785
0.00054327
0.000508242
0.000465613
0.000413873
0.000349935
0.000264793
0.000116282
0.000550555
0.000522156
0.000487256
0.000445264
0.000394947
0.000333413
0.00025195
0.000111068
0.000550526
0.000522126
0.000487227
0.000445237
0.000394924
0.000333397
0.000251945
0.000111044
0.000571764
0.000543248
0.000508219
0.000465591
0.000413853
0.000349919
0.000264785
0.00011626
0.000583942
0.000556038
0.000521184
0.00047827
0.000425659
0.000360134
0.000272525
0.00011943
0.000587978
0.000560342
0.000525589
0.000482599
0.000429696
0.000363626
0.000275164
0.000120527
0.000583944
0.000556047
0.000521201
0.000478296
0.000425691
0.000360171
0.000272562
0.000119457
0.000571764
0.00054326
0.000508245
0.000465631
0.000413905
0.000349979
0.000264845
0.000116301
0.000550533
0.000522144
0.00048726
0.000445284
0.000394982
0.000333462
0.000252008
0.000111084
0.000550556
0.000522173
0.000487296
0.000445331
0.000395044
0.000333541
0.000252102
0.000111172
0.000571786
0.000543285
0.000508274
0.000465668
0.000413953
0.00035004
0.000264918
0.000116374
0.000583964
0.00055607
0.00052123
0.000478332
0.000425739
0.00036023
0.000272631
0.000119528
0.000587997
0.00056037
0.000525628
0.000482651
0.000429763
0.000363706
0.000275253
0.000120613
0.00058396
0.000556071
0.000521236
0.000478344
0.000425755
0.000360248
0.000272648
0.000119541
0.00057178
0.000543286
0.000508285
0.000465687
0.000413979
0.000350071
0.000264949
0.000116401
0.000550555
0.00052218
0.000487313
0.000445358
0.000395079
0.000333581
0.000252141
0.000111206
0.000550384
0.00052198
0.000487081
0.000445094
0.000394786
0.000333269
0.000251839
0.000111071
0.00057162
0.000543092
0.000508062
0.000465439
0.000413709
0.000349789
0.000264685
0.00011632
0.000583791
0.000555878
0.00052103
0.000478129
0.000425537
0.000360037
0.000272467
0.000119535
0.000587818
0.000560174
0.000525429
0.000482456
0.000429577
0.000363538
0.00027512
0.000120647
0.000583768
0.000555858
0.000521015
0.000478122
0.000425538
0.000360046
0.000272482
0.00011954
0.000571568
0.000543041
0.000508017
0.000465402
0.000413682
0.000349773
0.000264678
0.000116308
0.000550322
0.000521899
0.000486992
0.000445002
0.000394693
0.000333179
0.000251758
0.000111019
0.000550335
0.000521927
0.000487026
0.000445037
0.00039473
0.000333216
0.000251794
0.000111046
0.00057158
0.000543046
0.000508009
0.000465378
0.000413643
0.000349721
0.000264619
0.000116284
0.000583765
0.000555847
0.000520989
0.000478078
0.000425475
0.000359967
0.000272395
0.000119492
0.000587813
0.000560166
0.000525415
0.000482434
0.000429547
0.0003635
0.000275076
0.000120612
0.000583787
0.000555881
0.000521039
0.000478145
0.000425558
0.000360063
0.000272492
0.000119536
0.000571613
0.000543097
0.000508082
0.000465476
0.000413762
0.000349856
0.000264754
0.000116337
0.000550392
0.000521984
0.000487092
0.000445116
0.000394819
0.000333311
0.000251882
0.000111067
0.000550324
0.000521916
0.000487016
0.00044503
0.000394727
0.000333218
0.0002518
0.000111046
0.000571569
0.000543032
0.00050799
0.000465356
0.000413617
0.000349692
0.00026459
0.000116259
0.000583759
0.000555834
0.000520968
0.000478047
0.000425432
0.000359914
0.000272336
0.000119448
0.000587817
0.000560166
0.000525406
0.000482414
0.000429515
0.000363455
0.000275024
0.000120569
0.000583807
0.000555901
0.000521057
0.000478159
0.000425566
0.000360063
0.000272484
0.000119518
0.000571653
0.000543144
0.000508136
0.000465535
0.000413826
0.000349921
0.000264814
0.000116364
0.00055045
0.000522055
0.000487176
0.000445214
0.000394929
0.000333429
0.000251997
0.000111131
0.000550328
0.000521927
0.000487033
0.000445056
0.00039476
0.000333258
0.000251842
0.000111065
0.000571572
0.000543041
0.000508007
0.000465381
0.00041365
0.000349733
0.000264633
0.000116271
0.00058376
0.00055584
0.000520977
0.00047806
0.000425449
0.000359934
0.000272356
0.000119443
0.000587817
0.000560168
0.000525409
0.000482416
0.000429515
0.000363453
0.000275018
0.00012055
0.000583809
0.000555905
0.00052106
0.00047816
0.000425564
0.000360057
0.000272474
0.000119501
0.000571658
0.000543152
0.000508146
0.000465546
0.000413837
0.000349932
0.000264823
0.000116367
0.000550459
0.000522069
0.000487195
0.000445238
0.000394957
0.000333459
0.000252027
0.000111157
0.000550324
0.000521926
0.000487038
0.000445066
0.000394776
0.000333278
0.000251865
0.000111076
0.000571569
0.000543046
0.000508021
0.000465405
0.000413685
0.000349776
0.000264681
0.000116292
0.000583757
0.000555843
0.000520988
0.00047808
0.000425478
0.000359971
0.000272396
0.000119456
0.00058781
0.000560164
0.000525409
0.00048242
0.000429523
0.000363464
0.000275032
0.000120549
0.000583796
0.000555892
0.000521047
0.000478147
0.00042555
0.000360042
0.000272459
0.000119486
0.00057164
0.000543133
0.000508125
0.000465523
0.000413811
0.000349903
0.000264794
0.000116348
0.000550437
0.000522046
0.00048717
0.000445211
0.000394928
0.00033343
0.000252
0.000111145
0.000550323
0.000521929
0.000487043
0.000445073
0.000394784
0.000333288
0.000251875
0.00011108
0.000571568
0.000543049
0.000508027
0.000465413
0.000413695
0.000349787
0.000264691
0.000116294
0.000583755
0.000555844
0.000520991
0.000478084
0.000425483
0.000359976
0.000272401
0.000119453
0.000587805
0.000560161
0.000525406
0.000482417
0.00042952
0.000363461
0.000275027
0.00012054
0.000583788
0.000555884
0.000521038
0.000478136
0.000425538
0.000360028
0.000272444
0.000119472
0.000571628
0.000543121
0.000508111
0.000465506
0.000413793
0.000349884
0.000264775
0.000116334
0.000550421
0.000522029
0.000487152
0.000445191
0.000394908
0.00033341
0.000251983
0.000111135
0.000550352
0.000521963
0.000487081
0.000445114
0.000394826
0.000333329
0.000251911
0.000111098
0.000571588
0.000543072
0.000508052
0.000465438
0.000413718
0.000349807
0.000264705
0.000116296
0.000583769
0.000555861
0.00052101
0.000478103
0.000425501
0.000359992
0.000272412
0.000119451
0.000587817
0.000560176
0.000525425
0.000482439
0.000429543
0.000363485
0.000275049
0.000120541
0.000583799
0.000555899
0.000521058
0.000478161
0.000425567
0.000360062
0.000272479
0.000119483
0.000571638
0.000543135
0.000508131
0.000465531
0.000413823
0.000349919
0.000264812
0.000116355
0.000550432
0.000522044
0.000487171
0.000445214
0.000394934
0.000333439
0.000252012
0.000111157
0.000550371
0.000521982
0.000487099
0.00044513
0.000394839
0.000333337
0.000251914
0.000111103
0.000571599
0.000543083
0.000508062
0.000465445
0.000413721
0.000349806
0.000264701
0.000116294
0.000583777
0.00055587
0.00052102
0.000478113
0.000425512
0.000360003
0.000272424
0.000119454
0.000587823
0.000560185
0.000525437
0.000482455
0.000429565
0.000363511
0.000275078
0.000120555
0.000583804
0.000555907
0.00052107
0.000478178
0.00042559
0.000360092
0.000272513
0.000119508
0.000571643
0.000543142
0.00050814
0.000465544
0.00041384
0.000349939
0.000264836
0.000116377
0.000550437
0.00052205
0.000487179
0.000445222
0.000394943
0.000333449
0.000252023
0.000111172
0.000550356
0.00052196
0.000487069
0.000445091
0.000394793
0.000333286
0.000251863
0.000111075
0.000571589
0.000543067
0.000508038
0.000465415
0.000413686
0.000349767
0.000264661
0.000116271
0.00058377
0.000555857
0.000521001
0.000478091
0.000425488
0.000359978
0.0002724
0.00011944
0.000587813
0.000560169
0.000525415
0.00048243
0.000429539
0.000363487
0.000275058
0.000120545
0.000583788
0.000555883
0.000521037
0.000478139
0.000425548
0.000360048
0.000272472
0.000119485
0.000571619
0.000543108
0.000508094
0.000465487
0.000413774
0.000349867
0.000264765
0.000116335
0.000550403
0.000522007
0.000487123
0.000445155
0.000394866
0.000333364
0.00025194
0.000111125
0.000550361
0.000521966
0.000487076
0.000445099
0.000394803
0.000333297
0.000251874
0.000111074
0.000571601
0.000543083
0.000508059
0.00046544
0.000413715
0.000349798
0.000264692
0.000116278
0.00058378
0.00055587
0.000521016
0.000478108
0.000425505
0.000359995
0.000272414
0.000119437
0.000587817
0.00056017
0.000525412
0.000482423
0.000429527
0.00036347
0.000275037
0.000120525
0.000583779
0.000555867
0.000521012
0.000478104
0.000425502
0.000359994
0.000272415
0.000119445
0.000571595
0.000543073
0.000508047
0.000465427
0.000413701
0.000349785
0.000264681
0.000116284
0.000550363
0.000521955
0.00048706
0.000445079
0.000394779
0.000333272
0.00025185
0.000111073
0.000550416
0.000522028
0.000487145
0.000445174
0.000394882
0.000333379
0.000251952
0.000111115
0.000571657
0.00054315
0.000508138
0.000465529
0.000413813
0.000349901
0.00026479
0.000116324
0.000583831
0.000555932
0.000521087
0.000478185
0.000425586
0.000360075
0.000272484
0.000119462
0.000587858
0.000560219
0.000525465
0.000482476
0.000429577
0.000363512
0.000275066
0.000120526
0.000583811
0.000555902
0.000521048
0.000478137
0.00042553
0.000360014
0.000272423
0.000119436
0.000571618
0.000543097
0.000508071
0.000465449
0.000413721
0.000349803
0.000264695
0.000116283
0.000550378
0.000521969
0.000487073
0.000445092
0.000394792
0.000333286
0.000251865
0.000111076
0.000550484
0.000522085
0.000487189
0.000445206
0.000394902
0.000333388
0.000251951
0.000111115
0.000571735
0.000543222
0.000508201
0.000465585
0.000413861
0.000349942
0.00026482
0.000116333
0.000583913
0.000556009
0.000521158
0.000478252
0.000425648
0.00036013
0.000272527
0.000119473
0.000587938
0.000560294
0.000525535
0.000482542
0.000429637
0.000363566
0.000275108
0.000120533
0.000583887
0.000555972
0.000521111
0.000478194
0.000425581
0.000360057
0.000272456
0.00011944
0.000571688
0.000543159
0.000508123
0.000465493
0.000413758
0.000349832
0.000264714
0.000116284
0.000550441
0.000522023
0.000487115
0.000445123
0.000394813
0.000333296
0.000251865
0.000111074
0.000550537
0.00052212
0.000487202
0.000445196
0.000394872
0.000333339
0.000251888
0.000111067
0.000571806
0.000543275
0.000508235
0.0004656
0.000413859
0.000349925
0.000264791
0.000116304
0.000583995
0.000556075
0.000521209
0.000478289
0.000425674
0.000360148
0.000272535
0.000119464
0.000588028
0.000560369
0.000525595
0.00048259
0.000429677
0.0003636
0.000275133
0.000120533
0.000583981
0.000556048
0.00052117
0.000478238
0.000425614
0.00036008
0.000272469
0.000119433
0.000571781
0.000543232
0.000508173
0.00046552
0.000413766
0.000349823
0.00026469
0.000116255
0.000550523
0.000522085
0.000487151
0.000445131
0.000394796