/*--------------------------------*- C++ -*----------------------------------*\
| =========                 |                                                 |
| \\      /  F ield         | OpenFOAM: The Open Source CFD Toolbox           |
|  \\    /   O peration     | Version:  plus.master.MPPICInterFoam            |
|   \\  /    A nd           | Web:      www.OpenFOAM.com                      |
|    \\/     M anipulation  |                                                 |
\*---------------------------------------------------------------------------*/
FoamFile
{
    version     2.0;
    format      ascii;
    class       volVectorField;
    location    "1.4";
    object      U;
}
// * * * * * * * * * * * * * * * * * * * * * * * * * * * * * * * * * * * * * //

dimensions      [0 1 -1 0 0 0 0];

internalField   nonuniform List<vector> 
11821
(
(3.00779e-06 1.90973e-06 0.00153078)
(9.63813e-07 2.23382e-06 0.00153076)
(1.99758e-06 1.75479e-06 0.00152825)
(3.57735e-07 3.833e-06 0.0015308)
(1.50088e-06 3.02166e-06 0.00152824)
(-7.30434e-07 7.82837e-08 0.00152362)
(1.39166e-06 2.55542e-06 0.00153587)
(1.92613e-06 1.43036e-06 0.00154115)
(2.00441e-06 7.05385e-07 0.00154385)
(1.80131e-06 4.95981e-07 0.00154486)
(1.67343e-06 8.33923e-07 0.00154418)
(1.92313e-06 1.61629e-06 0.00154179)
(3.18539e-06 2.53896e-06 0.0015372)
(-9.44797e-09 3.04583e-06 0.00154135)
(6.6494e-07 2.02626e-06 0.00154425)
(1.10416e-06 1.27408e-06 0.00154575)
(1.13553e-06 8.86296e-07 0.00154633)
(1.29837e-06 9.05802e-07 0.00154598)
(1.92222e-06 1.30714e-06 0.00154475)
(3.20255e-06 1.94644e-06 0.00154239)
(-8.83683e-07 3.00296e-06 0.0015442)
(-2.11585e-07 2.32256e-06 0.00154589)
(3.03868e-07 1.62344e-06 0.00154685)
(3.6766e-07 1.08168e-06 0.00154729)
(5.73795e-07 7.57423e-07 0.00154717)
(1.3492e-06 7.42558e-07 0.00154655)
(2.76985e-06 1.01816e-06 0.00154544)
(-1.15103e-06 2.67623e-06 0.00154534)
(-6.07871e-07 2.13683e-06 0.00154662)
(-2.41045e-07 1.47111e-06 0.00154742)
(-3.09423e-07 7.62261e-07 0.00154787)
(-1.86843e-07 1.51205e-07 0.00154789)
(5.30008e-07 -1.22774e-07 0.0015476)
(1.93283e-06 9.75528e-10 0.00154722)
(-7.46354e-07 2.55284e-06 0.00154478)
(-5.30728e-07 2.07198e-06 0.00154638)
(-4.5885e-07 1.45615e-06 0.00154738)
(-8.29114e-07 6.39364e-07 0.00154799)
(-9.04534e-07 -2.04339e-07 0.00154814)
(-3.16809e-07 -7.57615e-07 0.00154789)
(7.50915e-07 -9.88435e-07 0.00154639)
(1.59529e-07 2.82977e-06 0.00154252)
(-9.46268e-08 2.38184e-06 0.00154516)
(-2.5865e-07 1.7826e-06 0.00154679)
(-9.20853e-07 1.08666e-06 0.00154788)
(-1.26746e-06 4.8693e-08 0.00154784)
(-1.14009e-06 -9.87241e-07 0.00154643)
(-6.51654e-07 -1.77478e-06 0.00154326)
(6.37613e-07 4.41523e-06 0.00153797)
(4.80015e-07 3.48547e-06 0.00154257)
(4.43036e-07 2.75963e-06 0.00154532)
(-3.87993e-07 2.07089e-06 0.00154679)
(-1.29111e-06 8.06646e-07 0.00154644)
(-1.68791e-06 -8.82315e-07 0.00154303)
(-1.60538e-06 -2.13947e-06 0.0015382)
(-3.07122e-06 -2.59613e-06 0.00154756)
(-2.22231e-06 -2.51273e-06 0.00155284)
(-2.29943e-06 -2.06335e-06 0.00155578)
(-2.0305e-06 -1.12202e-06 0.00155696)
(-1.76471e-06 4.98892e-08 0.00155648)
(-1.0993e-06 1.38595e-06 0.00155425)
(4.55754e-07 2.52606e-06 0.00154976)
(-3.2219e-06 -1.63342e-06 0.00155307)
(-2.69236e-06 -1.93062e-06 0.00155608)
(-2.53233e-06 -1.5521e-06 0.00155782)
(-2.27363e-06 -9.88033e-07 0.00155856)
(-1.76273e-06 -1.21125e-07 0.00155837)
(-8.0592e-07 8.38569e-07 0.00155722)
(5.75485e-07 1.69193e-06 0.00155481)
(-2.95495e-06 -1.55845e-06 0.00155616)
(-2.39966e-06 -1.63089e-06 0.00155796)
(-2.34521e-06 -1.42121e-06 0.00155908)
(-2.20345e-06 -1.06502e-06 0.00155962)
(-1.82697e-06 -5.74004e-07 0.00155957)
(-1.0004e-06 -7.43648e-08 0.00155895)
(3.13067e-07 3.65413e-07 0.00155763)
(-2.01278e-06 -1.05299e-06 0.00155743)
(-1.84185e-06 -1.23661e-06 0.00155881)
(-1.9863e-06 -1.23039e-06 0.00155972)
(-2.12855e-06 -1.23138e-06 0.00156019)
(-2.0097e-06 -1.22415e-06 0.00156019)
(-1.43396e-06 -1.15235e-06 0.00155972)
(-3.85746e-07 -1.02481e-06 0.00155873)
(-6.81442e-07 -5.26157e-07 0.00155697)
(-9.82233e-07 -7.39931e-07 0.00155865)
(-1.44122e-06 -8.60038e-07 0.00155971)
(-1.99882e-06 -1.21025e-06 0.00156022)
(-2.27873e-06 -1.66039e-06 0.00156018)
(-2.09807e-06 -2.0765e-06 0.00155952)
(-1.4173e-06 -2.32151e-06 0.00155812)
(6.91484e-07 3.9048e-08 0.00155468)
(-5.34147e-09 3.04226e-08 0.00155748)
(-7.81982e-07 -1.38305e-07 0.00155906)
(-1.80316e-06 -7.79917e-07 0.00155972)
(-2.50372e-06 -1.67947e-06 0.00155949)
(-2.75899e-06 -2.58379e-06 0.00155824)
(-2.49966e-06 -3.19718e-06 0.00155571)
(1.742e-06 1.58227e-06 0.00154998)
(1.21452e-06 1.51495e-06 0.00155497)
(5.32841e-09 1.15742e-06 0.00155772)
(-1.44509e-06 1.2816e-07 0.00155863)
(-2.52961e-06 -1.20798e-06 0.00155799)
(-3.13803e-06 -2.59145e-06 0.00155562)
(-3.13858e-06 -3.52563e-06 0.00155099)
(-5.87363e-06 -5.97342e-06 0.00155956)
(-5.42364e-06 -5.15558e-06 0.00156453)
(-4.97907e-06 -3.65833e-06 0.00156746)
(-4.50419e-06 -1.80413e-06 0.00156862)
(-3.83682e-06 5.43942e-08 0.00156822)
(-2.79799e-06 1.7615e-06 0.00156609)
(-1.03548e-06 3.01681e-06 0.00156167)
(-5.29845e-06 -5.25102e-06 0.00156471)
(-4.8547e-06 -4.50018e-06 0.00156759)
(-4.50976e-06 -3.28e-06 0.00156936)
(-4.25207e-06 -1.87187e-06 0.00157016)
(-3.61483e-06 -3.97965e-07 0.00157007)
(-2.5063e-06 9.5749e-07 0.00156898)
(-1.02544e-06 1.92702e-06 0.00156658)
(-4.00755e-06 -4.57367e-06 0.0015678)
(-3.80584e-06 -3.92534e-06 0.00156951)
(-3.79558e-06 -3.104e-06 0.00157066)
(-3.76406e-06 -2.08073e-06 0.00157123)
(-3.33411e-06 -1.00133e-06 0.00157123)
(-2.45271e-06 -5.25615e-08 0.00157065)
(-1.14635e-06 6.1504e-07 0.00156932)
(-2.29674e-06 -3.82437e-06 0.00156906)
(-2.48822e-06 -3.45433e-06 0.0015704)
(-2.85424e-06 -2.91218e-06 0.00157132)
(-3.14433e-06 -2.27629e-06 0.00157181)
(-3.05725e-06 -1.65985e-06 0.00157184)
(-2.51406e-06 -1.12978e-06 0.00157139)
(-1.547e-06 -7.18169e-07 0.00157039)
(-5.213e-07 -2.80795e-06 0.00156869)
(-1.11216e-06 -2.69229e-06 0.00157033)
(-1.82471e-06 -2.38699e-06 0.00157136)
(-2.53807e-06 -2.17035e-06 0.00157188)
(-2.88487e-06 -2.04925e-06 0.00157185)
(-2.76754e-06 -1.9837e-06 0.00157124)
(-2.19498e-06 -1.90051e-06 0.00156988)
(1.039e-06 -1.64406e-06 0.00156654)
(1.2569e-07 -1.60757e-06 0.00156925)
(-8.7604e-07 -1.47921e-06 0.00157077)
(-2.01134e-06 -1.66129e-06 0.00157142)
(-2.76805e-06 -2.01761e-06 0.00157123)
(-3.06021e-06 -2.40724e-06 0.00157009)
(-2.8823e-06 -2.6294e-06 0.00156763)
(2.14756e-06 2.04143e-07 0.00156214)
(1.23359e-06 2.05605e-08 0.00156683)
(-6.1111e-08 -1.29011e-07 0.0015694)
(-1.56332e-06 -7.48005e-07 0.00157036)
(-2.62241e-06 -1.55163e-06 0.00156981)
(-3.20273e-06 -2.38103e-06 0.00156757)
(-3.23348e-06 -2.83511e-06 0.00156304)
(-5.8819e-06 -6.31902e-06 0.00157098)
(-5.58579e-06 -5.40514e-06 0.00157584)
(-4.97156e-06 -3.82714e-06 0.00157854)
(-4.39238e-06 -1.97758e-06 0.00157961)
(-3.62966e-06 -1.98697e-07 0.0015792)
(-2.60206e-06 1.36052e-06 0.0015771)
(-9.99111e-07 2.36756e-06 0.00157274)
(-5.14505e-06 -5.85826e-06 0.00157593)
(-4.70723e-06 -4.85223e-06 0.0015788)
(-4.22534e-06 -3.48091e-06 0.00158043)
(-3.91159e-06 -1.94155e-06 0.00158117)
(-3.29437e-06 -4.44371e-07 0.00158109)
(-2.2811e-06 8.59785e-07 0.00158003)
(-9.5924e-07 1.69185e-06 0.00157763)
(-3.7104e-06 -5.0542e-06 0.00157873)
(-3.46693e-06 -4.21729e-06 0.00158052)
(-3.31878e-06 -3.21883e-06 0.00158161)
(-3.22275e-06 -2.03639e-06 0.00158217)
(-2.79585e-06 -8.30535e-07 0.00158221)
(-1.99097e-06 1.86398e-07 0.00158165)
(-8.18413e-07 8.35873e-07 0.00158027)
(-1.98356e-06 -4.31164e-06 0.00157989)
(-2.03377e-06 -3.78294e-06 0.00158131)
(-2.19742e-06 -3.02444e-06 0.00158221)
(-2.35272e-06 -2.1295e-06 0.00158271)
(-2.20192e-06 -1.26489e-06 0.00158278)
(-1.67212e-06 -5.44171e-07 0.00158235)
(-8.10603e-07 -4.43031e-08 0.00158128)
(-3.08801e-07 -3.34615e-06 0.00157953)
(-6.18215e-07 -3.08083e-06 0.00158123)
(-1.03047e-06 -2.51201e-06 0.00158225)
(-1.51283e-06 -1.95143e-06 0.00158279)
(-1.70974e-06 -1.47362e-06 0.00158279)
(-1.52227e-06 -1.10758e-06 0.0015822)
(-9.75026e-07 -8.34453e-07 0.00158079)
(1.12545e-06 -2.21738e-06 0.00157746)
(5.98361e-07 -2.08392e-06 0.00158019)
(-2.03805e-08 -1.67611e-06 0.00158168)
(-8.27168e-07 -1.4312e-06 0.00158234)
(-1.33652e-06 -1.32131e-06 0.00158218)
(-1.46769e-06 -1.29925e-06 0.00158107)
(-1.23075e-06 -1.23068e-06 0.00157859)
(1.9796e-06 -5.80088e-07 0.00157315)
(1.5021e-06 -6.12651e-07 0.00157779)
(7.1208e-07 -4.42549e-07 0.00158029)
(-3.35017e-07 -5.69284e-07 0.00158124)
(-1.05436e-06 -8.10655e-07 0.00158072)
(-1.39238e-06 -1.13014e-06 0.00157855)
(-1.29927e-06 -1.19734e-06 0.00157406)
(-4.65078e-06 -4.87452e-06 0.00158125)
(-4.29922e-06 -4.31288e-06 0.0015859)
(-3.83647e-06 -3.28532e-06 0.00158836)
(-3.46493e-06 -2.06256e-06 0.00158924)
(-3.02462e-06 -8.62436e-07 0.00158868)
(-2.42044e-06 1.30414e-07 0.00158651)
(-1.32697e-06 5.76544e-07 0.00158211)
(-3.86158e-06 -4.45834e-06 0.001586)
(-3.36985e-06 -3.75333e-06 0.0015888)
(-2.97644e-06 -2.81891e-06 0.00159027)
(-2.7867e-06 -1.71998e-06 0.00159085)
(-2.46545e-06 -6.59603e-07 0.00159064)
(-1.87894e-06 2.65432e-07 0.00158949)
(-1.05177e-06 7.48557e-07 0.00158694)
(-2.5587e-06 -3.88149e-06 0.00158848)
(-2.18762e-06 -3.3126e-06 0.00159031)
(-2.00647e-06 -2.59878e-06 0.00159131)
(-1.92361e-06 -1.68674e-06 0.00159176)
(-1.67562e-06 -7.71145e-07 0.00159169)
(-1.18057e-06 1.86123e-09 0.00159101)
(-4.01407e-07 4.17273e-07 0.00158947)
(-1.07075e-06 -3.47073e-06 0.00158939)
(-8.82381e-07 -3.12595e-06 0.00159089)
(-8.12185e-07 -2.50557e-06 0.00159176)
(-8.39495e-07 -1.68659e-06 0.00159218)
(-7.46605e-07 -9.26954e-07 0.00159215)
(-3.91215e-07 -3.07965e-07 0.0015916)
(2.15289e-07 8.17878e-08 0.00159036)
(3.53973e-07 -2.9707e-06 0.00158885)
(4.36788e-07 -2.76602e-06 0.00159067)
(4.3055e-07 -2.18318e-06 0.00159167)
(2.33509e-07 -1.53789e-06 0.00159213)
(1.10614e-07 -9.73945e-07 0.00159205)
(2.86702e-07 -5.36612e-07 0.00159137)
(7.14851e-07 -2.41521e-07 0.00158981)
(1.59543e-06 -2.34198e-06 0.00158669)
(1.58971e-06 -2.20264e-06 0.0015895)
(1.50531e-06 -1.61006e-06 0.00159097)
(1.11862e-06 -1.15215e-06 0.00159156)
(8.28431e-07 -7.72148e-07 0.00159134)
(8.1285e-07 -5.16757e-07 0.00159017)
(1.06856e-06 -3.34217e-07 0.00158761)
(2.21585e-06 -1.4323e-06 0.00158228)
(2.42079e-06 -1.20975e-06 0.00158695)
(2.26557e-06 -7.61277e-07 0.0015894)
(1.72912e-06 -4.89567e-07 0.00159029)
(1.3732e-06 -3.07605e-07 0.00158974)
(1.24193e-06 -2.57689e-07 0.00158757)
(1.48564e-06 -9.99769e-08 0.0015831)
(-4.54578e-06 -3.12767e-06 0.00159103)
(-4.15158e-06 -3.01374e-06 0.00159553)
(-3.81303e-06 -2.47451e-06 0.00159778)
(-3.68389e-06 -1.84422e-06 0.0015984)
(-3.51398e-06 -1.21275e-06 0.00159759)
(-3.21515e-06 -7.08576e-07 0.0015952)
(-2.54547e-06 -6.2751e-07 0.00159057)
(-3.53666e-06 -2.7017e-06 0.00159563)
(-3.14649e-06 -2.38474e-06 0.00159839)
(-2.86221e-06 -1.94543e-06 0.00159971)
(-2.82358e-06 -1.3554e-06 0.00160006)
(-2.71501e-06 -7.55232e-07 0.00159959)
(-2.47486e-06 -2.60557e-07 0.00159817)
(-2.06509e-06 -1.21708e-07 0.00159532)
(-2.2255e-06 -2.411e-06 0.0015979)
(-1.89054e-06 -2.17286e-06 0.00159974)
(-1.76569e-06 -1.83985e-06 0.00160066)
(-1.78915e-06 -1.33411e-06 0.00160091)
(-1.72248e-06 -8.26946e-07 0.00160058)
(-1.48209e-06 -4.19839e-07 0.00159962)
(-1.03227e-06 -2.5028e-07 0.00159773)
(-7.70894e-07 -2.1574e-06 0.00159852)
(-5.30448e-07 -2.09669e-06 0.00160013)
(-4.53432e-07 -1.78242e-06 0.00160094)
(-5.33756e-07 -1.30461e-06 0.00160117)
(-5.55238e-07 -8.62307e-07 0.00160089)
(-3.81642e-07 -5.14478e-07 0.00160006)
(-1.01989e-08 -3.32544e-07 0.00159847)
(6.57493e-07 -1.88318e-06 0.00159773)
(8.42812e-07 -1.91371e-06 0.00159968)
(8.98776e-07 -1.57674e-06 0.00160064)
(7.17524e-07 -1.20177e-06 0.0016009)
(5.72793e-07 -8.65204e-07 0.0016006)
(6.56437e-07 -6.1577e-07 0.00159965)
(9.27166e-07 -4.52685e-07 0.00159778)
(1.88463e-06 -1.55044e-06 0.00159534)
(2.05751e-06 -1.5864e-06 0.00159825)
(2.09077e-06 -1.21312e-06 0.00159965)
(1.79259e-06 -9.27806e-07 0.00160007)
(1.57327e-06 -6.95109e-07 0.00159964)
(1.55631e-06 -5.5413e-07 0.00159826)
(1.74944e-06 -4.27032e-07 0.00159546)
(2.55294e-06 -1.00942e-06 0.00159061)
(2.93728e-06 -9.09418e-07 0.00159535)
(2.96499e-06 -6.45513e-07 0.00159771)
(2.6175e-06 -4.434e-07 0.00159845)
(2.39965e-06 -3.26183e-07 0.00159774)
(2.37264e-06 -3.1528e-07 0.00159543)
(2.61464e-06 -2.16825e-07 0.00159086)
(-5.73623e-06 -2.97442e-06 0.00159938)
(-5.19451e-06 -3.01824e-06 0.00160382)
(-4.58727e-06 -2.66235e-06 0.00160589)
(-4.17658e-06 -2.17844e-06 0.00160631)
(-3.62031e-06 -1.63343e-06 0.00160533)
(-2.87862e-06 -1.15136e-06 0.00160277)
(-1.79401e-06 -1.02963e-06 0.00159792)
(-4.80429e-06 -2.33528e-06 0.00160382)
(-4.32908e-06 -2.22325e-06 0.0016066)
(-3.79448e-06 -1.98343e-06 0.00160782)
(-3.46334e-06 -1.5844e-06 0.00160802)
(-2.99247e-06 -1.12975e-06 0.00160736)
(-2.36163e-06 -7.60419e-07 0.00160574)
(-1.54569e-06 -6.93111e-07 0.00160263)
(-3.60307e-06 -1.7597e-06 0.00160594)
(-3.18787e-06 -1.67218e-06 0.00160786)
(-2.84456e-06 -1.58591e-06 0.00160871)
(-2.64635e-06 -1.3786e-06 0.00160883)
(-2.28072e-06 -1.15158e-06 0.00160833)
(-1.71084e-06 -9.80755e-07 0.00160714)
(-9.2996e-07 -9.62904e-07 0.00160495)
(-2.18109e-06 -1.10394e-06 0.00160639)
(-1.85281e-06 -1.14633e-06 0.00160809)
(-1.73524e-06 -1.20105e-06 0.00160887)
(-1.68425e-06 -1.1441e-06 0.00160898)
(-1.47898e-06 -1.1017e-06 0.00160854)
(-1.05183e-06 -1.105e-06 0.00160748)
(-4.05048e-07 -1.17349e-06 0.0016056)
(-6.72246e-07 -2.00994e-07 0.00160542)
(-5.19983e-07 -4.80432e-07 0.00160748)
(-6.01332e-07 -6.43214e-07 0.0016084)
(-7.16354e-07 -7.55062e-07 0.00160856)
(-7.13528e-07 -9.33272e-07 0.0016081)
(-4.70251e-07 -1.14126e-06 0.00160695)
(6.75235e-09 -1.31718e-06 0.00160481)
(6.48758e-07 6.56799e-07 0.00160286)
(5.84664e-07 2.80425e-07 0.00160587)
(4.33158e-07 1.26024e-07 0.00160721)
(1.56407e-07 -1.62352e-07 0.00160751)
(-2.58265e-08 -5.62668e-07 0.00160695)
(4.40783e-08 -9.8414e-07 0.0016054)
(3.52808e-07 -1.29666e-06 0.0016024)
(1.38399e-06 1.95118e-06 0.00159804)
(1.53556e-06 1.46423e-06 0.00160275)
(1.28946e-06 1.15445e-06 0.00160501)
(8.65111e-07 6.39437e-07 0.00160561)
(6.10684e-07 2.78745e-08 0.00160479)
(5.97263e-07 -6.13843e-07 0.00160238)
(8.97243e-07 -1.05606e-06 0.00159774)
(-4.92941e-06 -4.29789e-06 0.00160368)
(-4.08102e-06 -4.05296e-06 0.00160805)
(-3.17501e-06 -3.42189e-06 0.00160999)
(-2.29924e-06 -2.59195e-06 0.00161044)
(-1.17636e-06 -1.61255e-06 0.00160958)
(2.15095e-07 -6.49234e-07 0.00160719)
(2.23914e-06 -7.25349e-08 0.00160254)
(-4.46748e-06 -3.27794e-06 0.00160791)
(-3.69096e-06 -3.05422e-06 0.00161072)
(-2.85682e-06 -2.60725e-06 0.0016119)
(-2.05961e-06 -1.96517e-06 0.00161217)
(-1.02463e-06 -1.22094e-06 0.00161161)
(2.64393e-07 -5.45243e-07 0.00161011)
(1.78156e-06 -7.85358e-08 0.00160713)
(-3.62682e-06 -2.18168e-06 0.00160987)
(-3.04275e-06 -2.02594e-06 0.00161188)
(-2.45628e-06 -1.81962e-06 0.00161275)
(-1.8837e-06 -1.52047e-06 0.00161297)
(-1.0587e-06 -1.19883e-06 0.00161259)
(5.7397e-08 -9.25301e-07 0.00161153)
(1.45333e-06 -7.4713e-07 0.00160946)
(-2.56738e-06 -1.03564e-06 0.00161031)
(-2.18676e-06 -9.83107e-07 0.00161209)
(-1.93112e-06 -9.99466e-07 0.00161292)
(-1.64658e-06 -9.96964e-07 0.00161317)
(-1.11361e-06 -1.02064e-06 0.00161287)
(-2.73758e-07 -1.07745e-06 0.00161195)
(8.61495e-07 -1.14289e-06 0.00161018)
(-1.34755e-06 4.09962e-07 0.00160942)
(-1.24249e-06 3.11747e-07 0.00161152)
(-1.3774e-06 8.47821e-08 0.00161252)
(-1.42958e-06 -2.27017e-07 0.00161284)
(-1.24827e-06 -6.29236e-07 0.00161253)
(-7.55606e-07 -1.05322e-06 0.00161153)
(6.84286e-08 -1.39551e-06 0.0016095)
(-1.95125e-07 2.17505e-06 0.00160701)
(-4.11536e-07 1.82304e-06 0.00161001)
(-8.79657e-07 1.45027e-06 0.00161146)
(-1.26254e-06 8.32103e-07 0.0016119)
(-1.41988e-06 4.89579e-08 0.00161149)
(-1.26375e-06 -7.45585e-07 0.00161011)
(-7.49004e-07 -1.36124e-06 0.00160724)
(5.43658e-07 4.25265e-06 0.00160245)
(1.67726e-07 3.68151e-06 0.00160708)
(-4.68304e-07 3.08573e-06 0.00160939)
(-1.13739e-06 2.16405e-06 0.0016101)
(-1.54206e-06 1.05254e-06 0.00160944)
(-1.61985e-06 -7.25789e-08 0.00160719)
(-1.27898e-06 -9.19884e-07 0.00160272)
(-5.59061e-07 -3.74895e-06 0.00160533)
(2.2425e-07 -3.1068e-06 0.00160955)
(6.07199e-07 -2.28366e-06 0.00161162)
(1.39509e-06 -1.10628e-06 0.00161224)
(2.28836e-06 1.77248e-07 0.00161161)
(3.46239e-06 1.40367e-06 0.00160949)
(5.15438e-06 2.437e-06 0.0016052)
(-5.32729e-07 -2.59858e-06 0.00160946)
(4.22501e-08 -2.31733e-06 0.00161221)
(5.22325e-07 -1.61001e-06 0.00161353)
(1.18104e-06 -6.94305e-07 0.00161396)
(1.92568e-06 2.27828e-07 0.00161365)
(3.04354e-06 1.12218e-06 0.00161242)
(4.46035e-06 1.854e-06 0.00160977)
(-2.89773e-07 -1.84872e-06 0.00161141)
(5.20858e-08 -1.56413e-06 0.00161343)
(3.71584e-07 -1.07259e-06 0.00161446)
(8.48684e-07 -4.99463e-07 0.00161487)
(1.4436e-06 1.12614e-07 0.00161474)
(2.40978e-06 6.90808e-07 0.00161396)
(3.63908e-06 1.16405e-06 0.00161221)
(1.22376e-07 -1.02087e-06 0.00161199)
(2.05299e-07 -7.85358e-07 0.00161382)
(2.93759e-07 -4.46384e-07 0.00161482)
(5.04517e-07 -1.42536e-07 0.00161525)
(8.19394e-07 1.40084e-07 0.00161519)
(1.47824e-06 3.65146e-07 0.00161455)
(2.43442e-06 5.28502e-07 0.00161307)
(6.75421e-07 -4.71129e-09 0.00161134)
(4.49477e-07 1.82532e-07 0.00161349)
(2.19209e-07 3.75367e-07 0.00161466)
(7.88141e-08 3.8442e-07 0.00161516)
(5.8642e-08 3.13763e-07 0.00161509)
(3.55755e-07 1.9174e-07 0.00161434)
(1.02818e-06 9.03476e-08 0.00161257)
(1.21611e-06 1.25354e-06 0.00160925)
(6.70661e-07 1.38671e-06 0.0016123)
(1.21492e-07 1.46123e-06 0.00161388)
(-3.8676e-07 1.20494e-06 0.00161452)
(-7.39315e-07 7.89635e-07 0.00161433)
(-7.84706e-07 3.15743e-07 0.00161316)
(-4.18762e-07 -2.65875e-08 0.00161049)
(1.50436e-06 3.08394e-06 0.00160498)
(8.52137e-07 2.99879e-06 0.00160972)
(2.02924e-08 2.83471e-06 0.00161217)
(-8.44669e-07 2.32525e-06 0.00161307)
(-1.50087e-06 1.63623e-06 0.00161259)
(-1.80758e-06 9.1455e-07 0.00161051)
(-1.6386e-06 4.15046e-07 0.00160615)
(3.05244e-06 6.32298e-08 0.00160861)
(3.16576e-06 3.36139e-07 0.00161289)
(2.95818e-06 7.46536e-07 0.00161514)
(2.68386e-06 1.24227e-06 0.00161588)
(2.48319e-06 1.81935e-06 0.00161534)
(2.46879e-06 2.41984e-06 0.00161328)
(2.79644e-06 2.93687e-06 0.00160903)
(2.63426e-06 3.31545e-07 0.00161284)
(2.62292e-06 4.81351e-07 0.00161573)
(2.51579e-06 7.76807e-07 0.00161724)
(2.30144e-06 1.17868e-06 0.00161777)
(2.15082e-06 1.6345e-06 0.00161757)
(2.1735e-06 2.09883e-06 0.00161644)
(2.41227e-06 2.45507e-06 0.00161385)
(2.21738e-06 1.404e-07 0.00161499)
(2.2242e-06 3.85154e-07 0.00161717)
(2.09186e-06 6.62256e-07 0.00161837)
(1.84304e-06 9.8189e-07 0.00161886)
(1.65519e-06 1.30321e-06 0.0016188)
(1.62907e-06 1.60101e-06 0.00161806)
(1.79669e-06 1.82007e-06 0.0016163)
(1.89539e-06 -5.51102e-09 0.00161572)
(1.78335e-06 2.43693e-07 0.00161774)
(1.57917e-06 4.6442e-07 0.00161888)
(1.2663e-06 6.95307e-07 0.00161938)
(9.98335e-07 8.87108e-07 0.00161936)
(8.7801e-07 1.04266e-06 0.00161872)
(9.52394e-07 1.15933e-06 0.0016172)
(1.6457e-06 -2.18937e-07 0.00161523)
(1.4028e-06 5.70098e-08 0.00161759)
(1.08172e-06 2.66014e-07 0.00161886)
(6.58145e-07 4.32343e-07 0.0016194)
(2.5831e-07 5.09832e-07 0.00161935)
(1.02277e-08 5.39856e-07 0.00161857)
(-1.94043e-08 5.66782e-07 0.00161674)
(1.40632e-06 -3.51699e-07 0.00161327)
(1.04609e-06 -2.06867e-08 0.00161654)
(5.98038e-07 2.2301e-07 0.0016182)
(4.32574e-08 3.05963e-07 0.00161885)
(-5.00439e-07 2.76258e-07 0.00161865)
(-8.81197e-07 1.85435e-07 0.00161743)
(-1.0122e-06 1.21629e-07 0.00161467)
(1.18769e-06 -1.73647e-08 0.00160915)
(7.97582e-07 1.98915e-07 0.00161405)
(1.69389e-07 4.02199e-07 0.00161655)
(-5.35994e-07 3.75484e-07 0.00161743)
(-1.18821e-06 2.50683e-07 0.00161692)
(-1.68134e-06 7.23227e-08 0.00161478)
(-1.91909e-06 -3.54041e-08 0.00161031)
(3.14659e-06 3.59175e-06 0.00161453)
(2.76821e-06 3.23997e-06 0.00161906)
(2.07691e-06 2.75063e-06 0.00162129)
(1.14826e-06 2.14881e-06 0.00162205)
(1.45342e-08 1.49202e-06 0.0016216)
(-1.21208e-06 9.52974e-07 0.00161965)
(-2.47184e-06 3.74271e-07 0.00161543)
(2.65796e-06 2.96736e-06 0.00161892)
(2.34463e-06 2.71583e-06 0.00162214)
(1.72752e-06 2.29752e-06 0.00162373)
(8.87938e-07 1.82427e-06 0.00162434)
(-1.2528e-07 1.31729e-06 0.00162417)
(-1.26097e-06 9.01105e-07 0.00162303)
(-2.53634e-06 5.56051e-07 0.00162028)
(2.0667e-06 2.09717e-06 0.00162113)
(1.77857e-06 1.94196e-06 0.00162369)
(1.2515e-06 1.62899e-06 0.00162502)
(4.99543e-07 1.3022e-06 0.00162558)
(-4.43907e-07 9.29583e-07 0.0016255)
(-1.48962e-06 5.71325e-07 0.00162465)
(-2.5701e-06 2.33849e-07 0.0016226)
(1.36227e-06 1.04678e-06 0.00162187)
(1.15465e-06 9.94388e-07 0.00162428)
(7.40179e-07 7.67973e-07 0.00162556)
(1.33113e-07 5.75035e-07 0.00162612)
(-6.9461e-07 3.69519e-07 0.00162606)
(-1.64001e-06 1.69887e-07 0.00162528)
(-2.63088e-06 -5.31913e-08 0.00162342)
(6.305e-07 -1.27299e-07 0.00162146)
(5.35316e-07 -1.08747e-07 0.00162413)
(2.039e-07 -2.20346e-07 0.00162552)
(-2.40118e-07 -3.17979e-07 0.00162609)
(-9.27071e-07 -3.88943e-07 0.00162598)
(-1.72767e-06 -4.6209e-07 0.00162507)
(-2.58409e-06 -5.80151e-07 0.00162293)
(-9.25264e-08 -1.35025e-06 0.0016196)
(2.73031e-08 -1.36213e-06 0.00162304)
(-2.55047e-07 -1.31242e-06 0.00162473)
(-5.84055e-07 -1.30147e-06 0.00162536)
(-1.121e-06 -1.23563e-06 0.00162513)
(-1.77347e-06 -1.1763e-06 0.00162384)
(-2.49234e-06 -1.19984e-06 0.00162087)
(-5.72401e-07 -2.64426e-06 0.00161553)
(-3.55955e-07 -2.55783e-06 0.00162038)
(-5.77353e-07 -2.41572e-06 0.00162278)
(-8.67972e-07 -2.30548e-06 0.00162359)
(-1.29888e-06 -2.13047e-06 0.00162307)
(-1.83122e-06 -1.96878e-06 0.00162097)
(-2.42221e-06 -1.91267e-06 0.00161645)
(3.59447e-06 5.34522e-06 0.00162178)
(3.01547e-06 4.67128e-06 0.00162629)
(1.96902e-06 3.94591e-06 0.00162841)
(6.47082e-07 2.96574e-06 0.00162915)
(-1.00691e-06 1.76446e-06 0.00162884)
(-2.89561e-06 5.91749e-07 0.0016272)
(-4.84431e-06 -2.65155e-07 0.00162325)
(3.26433e-06 4.34893e-06 0.00162619)
(2.69133e-06 3.76212e-06 0.00162953)
(1.79783e-06 3.15641e-06 0.00163111)
(6.88965e-07 2.40777e-06 0.00163173)
(-7.19358e-07 1.52015e-06 0.00163161)
(-2.45535e-06 7.32352e-07 0.00163054)
(-4.57713e-06 3.68933e-07 0.00162776)
(2.96278e-06 3.01256e-06 0.00162822)
(2.39397e-06 2.61773e-06 0.00163103)
(1.62215e-06 2.19438e-06 0.00163245)
(6.30585e-07 1.70807e-06 0.00163305)
(-6.95609e-07 1.14809e-06 0.00163299)
(-2.35861e-06 6.24845e-07 0.00163211)
(-4.25871e-06 3.31023e-07 0.00162987)
(2.41685e-06 1.47903e-06 0.00162892)
(1.99132e-06 1.31624e-06 0.00163158)
(1.41956e-06 1.06414e-06 0.00163298)
(6.52412e-07 8.4969e-07 0.00163357)
(-4.52281e-07 6.71981e-07 0.00163351)
(-1.93105e-06 5.39963e-07 0.00163264)
(-3.70892e-06 4.09778e-07 0.00163052)
(1.68123e-06 -2.31216e-07 0.00162858)
(1.47088e-06 -2.07858e-07 0.00163141)
(1.16297e-06 -3.19669e-07 0.00163288)
(7.13171e-07 -2.93406e-07 0.00163346)
(-7.98938e-08 -1.24331e-07 0.00163335)
(-1.24162e-06 8.2325e-08 0.00163238)
(-2.75538e-06 8.76319e-08 0.00163003)
(9.77145e-07 -2.07568e-06 0.00162694)
(1.01641e-06 -2.00111e-06 0.00163032)
(9.62155e-07 -1.98651e-06 0.00163196)
(8.2334e-07 -1.74702e-06 0.00163256)
(3.5802e-07 -1.23533e-06 0.00163235)
(-4.42457e-07 -6.55499e-07 0.0016311)
(-1.63403e-06 -4.42354e-07 0.00162811)
(6.79226e-07 -3.97567e-06 0.00162303)
(9.70489e-07 -3.90285e-06 0.00162756)
(1.0215e-06 -3.81738e-06 0.00162972)
(9.54522e-07 -3.42581e-06 0.00163045)
(6.13594e-07 -2.66174e-06 0.00163001)
(3.36662e-08 -1.77536e-06 0.0016281)
(-7.8087e-07 -1.26045e-06 0.00162376)
(5.06158e-06 5.84721e-06 0.00163027)
(4.42839e-06 5.24644e-06 0.00163453)
(3.13927e-06 4.94233e-06 0.00163645)
(1.58682e-06 4.37546e-06 0.00163711)
(-2.18603e-07 3.464e-06 0.00163678)
(-2.09684e-06 2.48981e-06 0.00163522)
(-3.91536e-06 1.85399e-06 0.00163144)
(4.76268e-06 4.81619e-06 0.00163452)
(3.99837e-06 4.16183e-06 0.00163765)
(2.98921e-06 3.90449e-06 0.00163907)
(1.8574e-06 3.52225e-06 0.00163957)
(4.67304e-07 2.89184e-06 0.00163936)
(-1.19702e-06 2.28837e-06 0.00163825)
(-3.12897e-06 2.28124e-06 0.00163554)
(4.76602e-06 3.21003e-06 0.00163642)
(3.96728e-06 2.85895e-06 0.00163904)
(3.06957e-06 2.76464e-06 0.00164031)
(2.07177e-06 2.62e-06 0.00164077)
(7.78092e-07 2.34286e-06 0.0016406)
(-9.05843e-07 2.07524e-06 0.00163963)
(-2.93228e-06 2.16895e-06 0.00163737)
(4.49368e-06 1.39967e-06 0.00163706)
(3.81196e-06 1.47468e-06 0.00163953)
(3.0918e-06 1.56297e-06 0.00164075)
(2.2873e-06 1.67665e-06 0.0016412)
(1.17339e-06 1.81143e-06 0.001641)
(-3.81865e-07 1.95666e-06 0.00164004)
(-2.33039e-06 2.1105e-06 0.00163788)
(3.91605e-06 -5.68544e-07 0.00163672)
(3.41284e-06 -1.15457e-07 0.0016393)
(2.97758e-06 1.13941e-07 0.00164055)
(2.50295e-06 4.65434e-07 0.00164098)
(1.73166e-06 1.01368e-06 0.00164074)
(5.16555e-07 1.58285e-06 0.0016397)
(-1.18083e-06 1.78858e-06 0.00163737)
(3.33285e-06 -2.53433e-06 0.00163514)
(3.02108e-06 -1.93189e-06 0.00163818)
(2.8714e-06 -1.6646e-06 0.00163956)
(2.71533e-06 -1.12601e-06 0.00163999)
(2.299e-06 -1.78383e-07 0.00163968)
(1.49774e-06 8.42231e-07 0.00163844)
(2.01649e-07 1.19957e-06 0.00163558)
(3.20398e-06 -4.17763e-06 0.00163131)
(3.22219e-06 -3.79955e-06 0.00163544)
(3.13427e-06 -3.6674e-06 0.00163728)
(2.91626e-06 -3.02606e-06 0.00163782)
(2.47285e-06 -1.78908e-06 0.00163733)
(1.78653e-06 -3.66297e-07 0.00163556)
(9.78105e-07 4.65512e-07 0.0016315)
(4.43555e-06 4.2471e-06 0.00163837)
(4.10476e-06 3.70043e-06 0.0016424)
(2.93663e-06 3.54076e-06 0.00164416)
(1.59145e-06 3.32893e-06 0.0016447)
(9.28037e-08 2.9398e-06 0.0016442)
(-1.26697e-06 2.60472e-06 0.00164247)
(-2.33371e-06 2.44369e-06 0.00163862)
(3.79073e-06 3.69068e-06 0.00164248)
(3.40255e-06 3.07498e-06 0.00164522)
(2.64112e-06 2.95257e-06 0.0016464)
(1.8556e-06 2.86726e-06 0.00164674)
(9.03289e-07 2.64677e-06 0.00164633)
(-1.1964e-07 2.49853e-06 0.00164508)
(-1.14939e-06 2.79014e-06 0.00164245)
(3.5558e-06 2.2797e-06 0.00164428)
(3.19599e-06 2.04331e-06 0.00164643)
(2.62804e-06 2.11875e-06 0.00164734)
(2.05858e-06 2.20962e-06 0.00164759)
(1.28355e-06 2.19861e-06 0.00164722)
(3.05244e-07 2.1978e-06 0.00164616)
(-8.21424e-07 2.4575e-06 0.00164404)
(3.28433e-06 7.28254e-07 0.00164485)
(3.02149e-06 1.00436e-06 0.00164681)
(2.60558e-06 1.29866e-06 0.00164763)
(2.20095e-06 1.58507e-06 0.00164784)
(1.5752e-06 1.83989e-06 0.00164747)
(6.84204e-07 2.04859e-06 0.00164645)
(-4.12536e-07 2.20588e-06 0.00164447)
(2.87838e-06 -9.27194e-07 0.00164437)
(2.72328e-06 -1.80977e-07 0.00164643)
(2.48211e-06 2.94717e-07 0.00164729)
(2.28854e-06 7.60863e-07 0.0016475)
(1.88173e-06 1.28882e-06 0.0016471)
(1.1975e-06 1.72637e-06 0.00164604)
(2.67335e-07 1.76712e-06 0.00164392)
(2.57959e-06 -2.45223e-06 0.00164267)
(2.51142e-06 -1.44365e-06 0.0016452)
(2.38799e-06 -8.7463e-07 0.00164624)
(2.32605e-06 -2.80387e-07 0.0016465)
(2.07776e-06 5.06692e-07 0.00164606)
(1.5968e-06 1.20117e-06 0.00164481)
(9.38901e-07 1.22256e-06 0.00164221)
(2.79418e-06 -3.40347e-06 0.00163874)
(2.842e-06 -2.52961e-06 0.00164254)
(2.62974e-06 -2.0633e-06 0.00164412)
(2.32996e-06 -1.43427e-06 0.00164453)
(1.86175e-06 -4.57918e-07 0.00164395)
(1.2871e-06 5.29876e-07 0.00164223)
(8.58398e-07 8.69004e-07 0.00163844)
(5.32135e-07 1.2341e-07 0.00164122)
(1.73516e-06 -3.51004e-07 0.00164517)
(1.3577e-06 -1.08832e-06 0.00164696)
(1.02532e-06 -1.3827e-06 0.00164741)
(5.78767e-07 -1.19153e-06 0.00164666)
(4.87079e-07 -5.12546e-07 0.00164464)
(1.0733e-06 -2.48672e-07 0.00164053)
(-3.14063e-07 1.39807e-06 0.00164525)
(9.20002e-07 8.08516e-07 0.00164758)
(9.88421e-07 1.89175e-07 0.00164864)
(1.22532e-06 2.58479e-08 0.00164884)
(1.34149e-06 2.44892e-07 0.00164823)
(1.69706e-06 8.17926e-07 0.00164682)
(2.54694e-06 1.31459e-06 0.0016442)
(-1.35309e-06 9.04787e-07 0.00164711)
(4.75706e-08 6.85586e-07 0.00164871)
(6.34807e-07 5.44636e-07 0.0016494)
(1.38361e-06 6.09481e-07 0.00164947)
(1.90981e-06 8.08481e-07 0.00164894)
(2.61047e-06 1.13923e-06 0.00164783)
(3.6662e-06 1.43296e-06 0.00164588)
(-1.87684e-06 4.99807e-07 0.00164759)
(-3.49799e-07 7.78465e-07 0.00164895)
(4.97591e-07 1.12399e-06 0.00164952)
(1.44081e-06 1.39352e-06 0.00164956)
(2.17369e-06 1.60897e-06 0.00164908)
(3.03006e-06 1.7503e-06 0.00164808)
(4.18324e-06 1.80447e-06 0.00164634)
(-1.86608e-06 1.18515e-08 0.00164686)
(-3.58727e-07 7.4181e-07 0.00164838)
(4.95795e-07 1.42791e-06 0.00164904)
(1.43496e-06 1.91251e-06 0.00164912)
(2.17112e-06 2.15742e-06 0.00164864)
(3.01277e-06 2.15197e-06 0.00164759)
(4.14858e-06 1.99319e-06 0.00164569)
(-1.41372e-06 -3.48958e-07 0.00164484)
(-4.38264e-08 8.33851e-07 0.00164698)
(6.21048e-07 1.91144e-06 0.00164795)
(1.36099e-06 2.57872e-06 0.00164816)
(1.89855e-06 2.83946e-06 0.00164762)
(2.56114e-06 2.70599e-06 0.00164632)
(3.55486e-06 2.35909e-06 0.0016438)
(-6.44534e-07 3.65033e-07 0.00164067)
(5.53035e-07 1.55626e-06 0.00164434)
(8.65312e-07 2.90134e-06 0.00164601)
(1.23163e-06 3.62731e-06 0.00164643)
(1.46702e-06 3.86388e-06 0.00164574)
(1.87028e-06 3.64616e-06 0.00164382)
(2.55369e-06 3.15584e-06 0.00163982)
(-4.41446e-06 -3.95872e-06 0.00163179)
(-2.27756e-06 -5.10134e-06 0.00163618)
(-9.23368e-07 -6.96323e-06 0.00163817)
(2.19249e-07 -7.6986e-06 0.00163854)
(1.37828e-06 -6.86772e-06 0.00163747)
(2.93053e-06 -4.97369e-06 0.00163482)
(4.96738e-06 -3.93846e-06 0.0016297)
(-5.77106e-06 -1.86061e-06 0.00163628)
(-2.79126e-06 -2.2146e-06 0.00163865)
(-1.04231e-06 -3.44977e-06 0.00163967)
(3.27892e-07 -3.93233e-06 0.00163974)
(1.69124e-06 -3.28669e-06 0.00163891)
(3.60714e-06 -2.00305e-06 0.00163715)
(6.48148e-06 -1.72117e-06 0.00163399)
(-7.78143e-06 -6.32368e-07 0.00163835)
(-4.14798e-06 -6.18211e-07 0.00163977)
(-1.61922e-06 -1.07546e-06 0.00164037)
(4.71934e-07 -1.19993e-06 0.0016403)
(2.50633e-06 -8.04174e-07 0.00163961)
(5.11301e-06 -1.53248e-07 0.0016383)
(8.61777e-06 -1.0817e-07 0.0016361)
(-8.61282e-06 3.99518e-07 0.00163876)
(-4.7523e-06 5.98168e-07 0.0016399)
(-1.8569e-06 8.54393e-07 0.00164036)
(5.8331e-07 1.07532e-06 0.00164028)
(2.97142e-06 1.23922e-06 0.00163968)
(5.9259e-06 1.33077e-06 0.00163856)
(9.70198e-06 1.29529e-06 0.00163667)
(-7.96421e-06 1.43214e-06 0.00163771)
(-4.27102e-06 1.77079e-06 0.00163911)
(-1.58309e-06 2.71616e-06 0.00163973)