/*--------------------------------*- C++ -*----------------------------------*\
| =========                 |                                                 |
| \\      /  F ield         | OpenFOAM: The Open Source CFD Toolbox           |
|  \\    /   O peration     | Version:  plus.master.MPPICInterFoam            |
|   \\  /    A nd           | Web:      www.OpenFOAM.com                      |
|    \\/     M anipulation  |                                                 |
\*---------------------------------------------------------------------------*/
FoamFile
{
    version     2.0;
    format      ascii;
    class       scalarField;
    location    "11.6/lagrangian/kinematicCloud";
    object      age;
}
// * * * * * * * * * * * * * * * * * * * * * * * * * * * * * * * * * * * * * //


3090
(
11.5699
11.5823
11.2286
11.2131
11.0956
11.5175
11.5105
11.5776
11.4329
11.3261
11.4098
11.3624
11.2849
11.4981
11.5059
11.4398
11.481
11.5849
11.4401
11.5643
11.437
11.3946
11.2207
11.4304
11.5816
11.57
11.4183
11.4611
11.5639
11.4686
11.577
11.561
11.4663
11.4852
11.5807
11.4797
11.5937
11.2286
11.4703
11.4917
11.3183
11.137
11.1641
11.4
11.5977
11.4274
11.2353
11.4067
11.5903
11.5199
11.2576
11.5939
11.2477
11.5767
11.5162
11.4714
11.4198
11.5981
11.4503
11.3096
11.3811
11.4991
11.4093
11.5193
11.4595
11.5674
11.1425
11.5186
11.4325
11.5276
11.4868
11.4492
11.3844
11.5172
11.5939
11.4001
11.5738
11.0788
11.5185
11.5874
11.5731
11.4851
11.3734
11.4704
11.3448
11.4099
11.5181
11.3526
11.4728
11.4707
11.2953
11.1378
11.5849
11.5447
11.1371
11.5649
11.4673
11.2215
11.268
11.5121
11.5705
11.3429
11.3027
11.5639
11.4688
11.3524
11.5766
11.3242
11.4921
11.3007
11.508
11.1704
11.5647
11.3974
11.4062
11.5667
11.4756
11.3524
11.4882
11.4515
11.5318
11.5243
11.4313
11.3502
11.5811
11.2251
11.3559
11.3442
11.4117
11.1347
11.3834
11.5404
11.3744
11.3778
11.5817
11.5761
11.5503
11.3798
11.5182
11.3172
11.4383
11.5645
11.4345
11.2962
11.5711
11.5207
11.4535
11.5849
11.3717
11.4672
11.5194
11.3981
11.4098
11.5499
11.5405
11.5705
11.2984
11.5764
11.524
11.4393
11.516
11.5603
11.3178
11.4955
11.585
11.4003
11.5203
11.1394
11.2676
11.4059
11.5769
11.3935
11.5894
11.4513
11.4605
11.4981
11.5901
11.5426
11.3666
11.579
11.298
11.3913
11.498
11.4805
11.3719
11.4738
11.4486
11.5692
11.4047
11.5809
11.1852
11.5473
11.5371
11.5617
11.518
11.2055
11.3907
11.4104
11.5477
11.5916
11.4498
11.4238
11.3232
11.1468
11.4788
11.3285
11.5895
11.362
11.4666
11.5368
11.5196
11.5398
11.5731
11.5108
11.6007
11.5388
11.4267
11.3715
11.552
11.4928
11.4959
11.5433
11.5562
11.5406
11.3441
11.5647
11.2682
11.4399
11.5985
11.1256
11.0294
11.4156
11.398
11.4591
11.3908
11.4004
11.5582
11.5861
11.5974
11.5576
11.5914
11.408
11.5382
11.5208
11.592
11.4002
11.5407
11.4135
11.4866
11.6001
11.5282
11.4735
11.4884
11.5669
11.0871
11.4248
11.5591
11.566
11.4774
11.5145
11.5913
11.4496
11.3367
11.5278
11.5319
11.5574
11.445
11.4223
11.3534
11.4594
11.1334
11.2988
11.4585
11.5566
11.4205
11.4204
11.3348
11.2578
11.562
11.533
11.5274
11.1003
11.3882
11.1929
11.5374
11.3552
11.5778
11.4006
11.5187
11.4107
11.5487
11.3811
11.5562
11.4798
11.5274
11.5961
11.4611
11.4098
11.5543
11.3461
11.5914
11.5357
11.4999
11.1952
11.4808
11.489
11.5754
11.5723
11.5477
11.2583
11.5194
11.4173
11.5639
11.5386
11.4584
11.3687
11.3787
11.4401
11.5828
11.421
11.4464
11.5078
11.567
11.2266
11.3339
11.0191
11.3386
11.1622
11.4925
11.4684
11.5706
11.232
11.4503
11.5976
11.4726
11.5733
11.2374
11.5965
11.5834
11.1654
11.3954
11.4409
11.5642
11.5043
11.082
11.3321
11.3796
11.3811
11.5493
11.4974
11.5713
11.2673
11.1444
11.1905
11.5082
11.5641
11.2606
11.4198
11.4872
11.3051
11.5077
11.3056
11.59
11.5526
11.3429
11.449
11.4005
11.4155
11.5924
11.4103
11.2102
11.5475
11.5903
11.5395
11.239
11.143
11.5305
11.4416
11.4206
11.5721
11.3455
11.4085
11.163
11.5231
11.5563
11.44
11.5885
11.4947
11.5633
11.4591
11.4637
11.5384
11.2243
11.4456
11.4758
11.5231
11.3812
11.4606
11.2858
11.5959
11.449
11.4349
11.5945
11.4727
11.4864
11.5568
11.1894
11.3052
11.5414
11.4578
11.4394
11.2111
11.2982
11.3714
11.2887
11.2477
11.2774
11.5569
11.2191
11.3721
11.5095
11.2584
11.4497
11.5856
11.5959
11.56
11.3732
11.565
11.537
11.5277
11.5513
11.2746
11.4975
11.5974
11.564
11.4201
11.4806
11.3577
11.5627
11.47
11.0468
11.3856
11.5762
11.5623
11.5375
11.4594
11.4652
11.4107
11.3816
11.5765
11.3147
11.3527
11.3146
11.4394
11.581
11.1848
11.3338
11.2012
11.1049
11.3353
11.3632
11.3595
11.5863
11.5783
11.3333
11.2561
11.1923
11.4784
11.4788
11.3082
11.2773
11.3186
11.3862
11.5276
11.3942
11.511
11.4392
11.5766
11.2362
11.4826
11.4431
11.5341
11.5665
11.5913
11.3337
11.5002
11.3641
11.4716
11.34
11.5372
11.4991
11.4653
11.1537
11.5181
11.2801
11.5967
11.4206
11.4448
11.5524
11.5499
11.5694
11.5813
11.5522
11.523
11.5508
11.448
11.3987
11.5827
11.596
11.3242
11.0966
11.2317
11.524
11.3182
11.3218
11.4934
11.5177
11.4455
11.4198
11.4794
11.4817
11.4315
11.5524
11.4654
11.5989
11.3594
11.4469
11.1944
11.3789
11.4884
11.4298
11.4942
11.5385
11.544
11.4725
11.3714
11.599
11.5592
11.5039
11.2978
11.5767
11.4053
11.313
11.3453
11.4708
11.3838
11.3624
11.5276
11.3002
11.2003
11.493
11.4098
11.4678
11.3771
11.4789
11.5053
11.0913
11.4415
11.5163
11.598
11.4883
11.1912
11.384
11.5762
11.4687
11.5937
11.3194
11.2746
11.5568
11.3256
11.4317
11.3176
11.4889
11.5644
11.2827
11.5995
11.4881
11.5943
11.5641
11.5957
11.1146
11.5884
11.2479
11.4889
11.5471
11.52
11.5779
11.2112
11.3905
11.444
11.5572
11.51
11.5767
11.5375
11.2631
11.5232
11.4295
11.5414
11.4411
11.5196
11.47
11.4786
11.2407
11.557
11.2748
11.2018
11.4123
11.518
11.372
11.5937
11.5757
11.1551
11.2888
11.5079
11.5354
11.5177
11.3352
11.5401
11.3716
11.5134
11.5887
11.5938
11.4155
11.5809
11.4394
11.5434
11.4809
11.2548
11.4393
11.5055
11.2611
11.2697
11.5301
11.2763
11.0785
11.4919
11.5469
11.5092
11.565
11.2968
11.2527
11.3813
11.2343
11.3109
11.2552
11.5575
11.5242
11.4797
11.3616
11.5891
11.5354
11.5533
11.5822
11.4594
11.5495
11.4653
11.3604
11.5705
11.4199
11.5946
11.3913
11.5913
11.2764
11.163
11.4992
11.3918
11.2144
11.5698
11.3238
11.5855
11.4846
11.5914
11.3619
11.5511
11.564
11.2555
11.5099
11.5867
11.4184
11.0793
11.106
11.4
11.5974
11.5999
11.5719
11.5149
11.3317
11.4743
11.5519
11.5224
11.4478
11.3977
11.162
11.5809
11.3242
11.5158
11.5471
11.1342
11.4554
11.5938
11.5816
11.5547
11.5201
11.5642
11.5273
11.5372
11.3915
11.4686
11.5196
11.5081
11.5708
11.4791
11.3224
11.3526
11.4999
11.5571
11.5728
11.6
11.3752
11.5897
11.5817
11.5912
11.5985
11.4112
11.5705
11.4298
11.4326
11.5781
11.5949
11.3719
11.3429
11.4215
11.369
11.5189
11.4978
11.4462
11.5437
11.391
11.5836
11.3919
11.4053
11.5793
11.4036
11.5267
11.5917
11.5469
11.3613
11.2995
11.2146
11.4307
11.5842
11.5766
11.4804
11.1525
11.5826
11.5579
11.5957
11.5518
11.2195
11.5372
11.3739
11.5562
11.5829
11.5698
11.1153
11.4787
11.5448
11.5551
11.2289
11.3642
11.5373
11.5664
11.4403
11.4942
11.107
11.3313
11.5996
11.2865
11.5438
11.339
11.4553
11.5974
11.5078
11.451
11.5638
11.4394
11.4445
11.4421
11.3702
11.5867
11.5661
11.513
11.5845
11.6
11.2965
11.4794
11.5101
11.5913
11.5421
11.5707
11.5204
11.4392
11.5983
11.4588
11.5616
11.0918
11.2291
11.5919
11.5298
11.4845
11.5715
11.5898
11.4906
11.1905
11.5902
11.5364
11.5274
11.5011
11.4778
11.4395
11.5717
11.558
11.4583
11.4293
11.4925
11.5775
11.4111
11.5707
11.5729
11.4067
11.3333
11.4382
11.5915
11.3339
11.1145
11.5821
11.5586
11.5918
11.4499
11.5081
11.2192
11.1853
11.5532
11.5225
11.4703
11.3201
11.4481
11.5662
11.4517
11.5168
11.5704
11.4197
11.5562
11.2985
11.5989
11.381
11.5897
11.5342
11.3908
11.3294
11.5717
11.4644
11.4886
11.4652
11.51
11.3805
11.4197
11.4524
11.5719
11.4615
11.3161
11.2685
11.4791
11.5994
11.5028
11.46
11.3279
11.4314
11.1443
11.3192
11.232
11.3145
11.3416
11.5727
11.4721
11.4601
11.5084
11.3557
11.2893
11.4693
11.3056
11.4886
11.5889
11.4468
11.3265
11.5378
11.4388
11.4981
11.4392
11.5247
11.5446
11.5373
11.2866
11.4106
11.5923
11.434
11.5723
11.5226
11.2573
11.4816
11.5505
11.3313
11.4942
11.5474
11.5654
11.5803
11.2898
11.3662
11.0769
11.4797
11.0962
11.2859
11.5974
11.3538
11.5844
11.4771
11.3401
11.5104
11.4979
11.4623
11.55
11.3908
11.4142
11.5965
11.4941
11.5853
11.5988
11.547
11.5855
11.1608
11.5314
11.0386
11.4862
11.1536
11.2887
11.5625
11.5913
11.5665
11.5789
11.3177
11.5145
11.4984
11.5561
11.5779
11.3199
11.479
11.538
11.5574
11.327
11.2138
11.4037
11.5806
11.54
11.4844
11.4873
11.5653
11.4015
11.4028
11.2701
11.3672
11.3707
11.552
11.5562
11.5916
11.2384
11.5672
11.1143
11.2014
11.3715
11.449
11.5507
11.4409
11.5313
11.5877
11.5778
11.4882
11.1812
11.5101
11.5398
11.4985
11.5167
11.458
11.5404
11.403
11.5844
11.5918
11.3825
11.5746
11.3848
11.1728
11.5943
11.4993
11.4086
11.5408
11.5993
11.3387
11.4141
11.3791
11.5798
11.5818
11.3714
11.524
11.5923
11.5272
11.5755
11.5564
11.4126
11.3766
11.1898
11.5688
11.5472
11.5302
11.4839
11.3501
11.3238
11.5905
11.46
11.1819
11.5769
11.4884
11.5018
11.2721
11.5215
11.0482
11.3732
11.3048
11.4294
11.5881
11.1757
11.5116
11.2983
11.193
11.5014
11.5912
11.5882
11.3529
11.466
11.4563
11.5763
11.5853
11.5377
11.5581
11.5646
11.5313
11.157
11.4733
11.2037
11.5992
11.4207
11.5281
11.5378
11.2292
11.5405
11.3621
11.5619
11.542
11.6001
11.591
11.3613
11.5089
11.587
11.3734
11.4543
11.583
11.5175
11.4801
11.5939
11.1905
11.5763
11.4364
11.5082
11.5133
11.4012
11.5153
11.4183
11.2477
11.2752
11.1499
11.3713
11.5418
11.5507
11.553
11.5439
11.1833
11.4888
11.5591
11.5642
11.3309
11.3708
11.4493
11.3527
11.4711
11.5704
11.324
11.3048
11.5995
11.4257
11.5957
11.498
11.3093
11.526
11.4229
11.2021
11.3322
11.4502
11.3018
11.2193
11.5605
11.5963
11.4305
11.449
11.4505
11.4954
11.4201
11.5809
11.549
11.5723
11.2152
11.5307
11.549
11.5884
11.51
11.4908
11.4107
11.4051
11.5717
11.362
11.5008
11.5582
11.4996
11.5582
11.5294
11.5125
11.4785
11.5666
11.5046
11.4133
11.5814
11.5202
11.324
11.2762
11.4687
11.0872
11.5584
11.5442
11.2233
11.3815
11.5078
11.4784
11.3541
11.381
11.3705
11.5708
11.2703
11.5991
11.5106
11.572
11.6
11.5666
11.5467
11.459
11.5175
11.5985
11.3402
11.4781
11.5201
11.3468
11.5706
11.5318
11.548
11.4688
11.2969
11.3181
11.4695
11.181
11.5025
11.5018
11.3239
11.3252
11.3663
11.5888
11.5894
11.2897
11.5205
11.47
11.4884
11.594
11.4202
11.4784
11.4389
11.4886
11.547
11.4099
11.4728
11.1584
11.5629
11.4826
11.3539
11.4488
11.1814
11.4005
11.547
11.3781
11.4494
11.4396
11.4222
11.5559
11.5855
11.4595
11.4528
11.1718
11.2667
11.4911
11.3933
11.5026
11.5899
11.5652
11.1434
11.4707
11.4451
11.5562
11.477
11.2407
11.4392
11.4806
11.4383
11.3793
11.3957
11.3435
11.3979
11.5567
11.4836
11.461
11.5937
11.4697
11.548
11.585
11.5848
11.4129
11.5008
11.5397
11.2584
11.5762
11.4742
11.5943
11.4784
11.5372
11.3727
11.599
11.1775
11.5974
11.5375
11.5575
11.5409
11.0842
11.4731
11.4704
11.3828
11.547
11.4821
11.5697
11.4832
11.2002
11.4676
11.4542
11.5214
11.5691
11.5912
11.547
11.5906
11.5041
11.5266
11.3729
11.4297
11.5279
11.4746
11.3801
11.5484
11.3665
11.4004
11.4836
11.3714
11.5562
11.3634
11.4264
11.5027
11.5763
11.3353
11.4001
11.3412
11.5426
11.182
11.5884
11.4
11.5827
11.2705
11.3864
11.5372
11.3627
11.3727
11.4528
11.5797
11.4403
11.475
11.5078
11.5099
11.4681
11.5576
11.5479
11.5299
11.1598
11.571
11.4993
11.581
11.5598
11.579
11.5287
11.5376
11.4208
11.2616
11.5672
11.34
11.5043
11.3238
11.2104
11.5709
11.3957
11.4896
11.5274
11.3658
11.4037
11.2572
11.524
11.5166
11.3378
11.4154
11.5035
11.5914
11.47
11.3256
11.5944
11.408
11.5593
11.5763
11.5318
11.5618
11.3718
11.5569
11.5656
11.5804
11.3696
11.2003
11.5241
11.3532
11.4595
11.558
11.2785
11.5407
11.5273
11.2538
11.281
11.5283
11.5276
11.5974
11.2594
11.4059
11.5707
11.5077
11.585
11.364
11.4394
11.5709
11.4613
11.5008
11.4865
11.2986
11.5692
11.3805
11.4881
11.2779
11.3527
11.4
11.4626
11.4002
11.3924
11.4686
11.4708
11.27
11.5855
11.4691
11.4525
11.585
11.5358
11.383
11.4638
11.4024
11.3053
11.408
11.5023
11.4176
11.5826
11.5762
11.3361
11.5147
11.0577
11.4983
11.5462
11.5863
11.5002
11.5321
11.4103
11.5579
11.5761
11.2286
11.3289
11.1363
11.3558
11.5162
11.4518
11.4196
11.5178
11.2205
11.4988
11.4042
11.5374
11.4782
11.4505
11.3558
11.3419
11.3868
11.5274
11.5011
11.4884
11.2103
11.5515
11.5707
11.3919
11.5585
11.3083
11.449
11.3905
11.5456
11.3364
11.391
11.5658
11.4207
11.5478
11.5501
11.589
11.5587
11.144
11.5532
11.3143
11.5474
11.5714
11.4222
11.5258
11.3947
11.592
11.4392
11.3367
11.0502
11.4402
11.5178
11.3522
11.4896
11.5506
11.4897
11.569
11.335
11.4606
11.0985
11.5004
11.3094
11.3624
11.5883
11.5826
11.57
11.2868
11.5845
11.4109
11.5844
11.4326
11.5022
11.5469
11.4625
11.5325
11.5302
11.5742
11.5652
11.5125
11.2194
11.4982
11.5275
11.5543
11.5177
11.3532
11.2258
11.4098
11.2389
11.4769
11.5191
11.5018
11.5883
11.2774
11.58
11.5597
11.2953
11.5652
11.3956
11.5577
11.299
11.5395
11.4091
11.5567
11.4403
11.402
11.454
11.2995
11.2085
11.5639
11.5297
11.5577
11.3721
11.4589
11.5913
11.5916
11.5274
11.1829
11.3532
11.3779
11.4677
11.4792
11.4493
11.5273
11.2478
11.3621
11.4294
11.6007
11.4058
11.5184
11.491
11.3852
11.5668
11.436
11.5654
11.5988
11.4796
11.498
11.5242
11.4784
11.5103
11.4592
11.5536
11.4596
11.5593
11.5978
11.5665
11.3247
11.4
11.4522
11.5761
11.2393
11.4787
11.5883
11.2769
11.3261
11.2667
11.4889
11.5327
11.2346
11.4901
11.523
11.5456
11.443
11.4316
11.5695
11.5676
11.3475
11.2594
11.3495
11.5955
11.4608
11.4299
11.5558
11.5101
11.5195
11.4194
11.4308
11.3937
11.5255
11.4648
11.494
11.5731
11.1995
11.534
11.4001
11.4863
11.5778
11.2192
11.5559
11.1163
11.3741
11.4979
11.345
11.4302
11.2526
11.4223
11.0796
11.381
11.3153
11.5473
11.3925
11.5938
11.5768
11.4522
11.4814
11.5703
11.5263
11.3933
11.5705
11.099
11.5809
11.4381
11.3477
11.5176
11.5962
11.5562
11.3967
11.5295
11.3525
11.5376
11.5765
11.5478
11.3727
11.584
11.4879
11.3634
11.4201
11.3524
11.5064
11.4512
11.4472
11.5934
11.5963
11.3497
11.5433
11.5478
11.2871
11.2762
11.3345
11.5202
11.2509
11.4294
11.5774
11.2778
11.5471
11.5079
11.4824
11.5084
11.3555
11.5639
11.5809
11.565
11.5274
11.4196
11.3886
11.388
11.5713
11.4123
11.2392
11.5288
11.4392
11.5742
11.304
11.4688
11.561
11.343
11.4211
11.5162
11.2291
11.506
11.5908
11.5851
11.3333
11.4885
11.2927
11.4789
11.2479
11.5483
11.5931
11.2953
11.2286
11.4688
11.0487
11.3968
11.3776
11.3339
11.4259
11.5813
11.3829
11.4403
11.4131
11.2819
11.5607
11.343
11.3722
11.3153
11.4005
11.5376
11.5639
11.5867
11.4874
11.4913
11.5641
11.0608
11.5109
11.5813
11.426
11.4706
11.4139
11.4397
11.5177
11.4743
11.4394
11.2213
11.0967
11.5077
11.4105
11.5316
11.5278
11.2778
11.4253
11.4493
11.4862
11.5472
11.4905
11.4295
11.3681
11.5913
11.4704
11.5913
11.4224
11.548
11.5488
11.5375
11.5679
11.3895
11.4009
11.5374
11.4982
11.4295
11.4924
11.1434
11.1333
11.5066
11.391
11.5481
11.5568
11.5765
11.5599
11.5939
11.5639
11.5042
11.4228
11.5075
11.5884
11.3814
11.5703
11.2493
11.3826
11.2585
11.5561
11.5469
11.5651
11.4691
11.4175
11.5481
11.4991
11.4076
11.5913
11.4397
11.6002
11.4714
11.5561
11.3144
11.5457
11.4937
11.449
11.3922
11.3819
11.3949
11.5471
11.2378
11.3647
11.294
11.2954
11.2655
11.5989
11.4396
11.4543
11.4686
11.3369
11.4393
11.5644
11.172
11.3457
11.5989
11.5469
11.5092
11.5812
11.4926
11.5487
11.3639
11.4991
11.46
11.5162
11.4544
11.3337
11.5657
11.4314
11.5638
11.5586
11.5895
11.43
11.437
11.5731
11.4982
11.5561
11.4786
11.4749
11.1039
11.4577
11.3818
11.5265
11.2612
11.3365
11.2803
11.4084
11.2156
11.3481
11.4342
11.5685
11.3835
11.4417
11.3139
11.2211
11.2353
11.5885
11.3562
11.3429
11.5454
11.5072
11.3029
11.5089
11.3004
11.4592
11.1251
11.4784
11.4915
11.3979
11.2851
11.5598
11.3433
11.4256
11.4237
11.5707
11.1727
11.1243
11.5381
11.56
11.0484
11.5813
11.4208
11.5711
11.5475
11.1453
11.4944
11.46
11.4209
11.2297
11.5441
11.5728
11.5145
11.4893
11.4843
11.216
11.5772
11.592
11.4793
11.3449
11.4458
11.581
11.3686
11.369
11.5662
11.5761
11.5771
11.346
11.557
11.508
11.5854
11.5849
11.4657
11.5673
11.5608
11.5572
11.3048
11.5213
11.3421
11.2413
11.4515
11.4295
11.5034
11.403
11.5824
11.291
11.5084
11.513
11.5651
11.4359
11.4384
11.4607
11.5651
11.5584
11.4596
11.4588
11.5118
11.4005
11.5204
11.4941
11.3468
11.5703
11.173
11.5765
11.5767
11.5705
11.5819
11.4588
11.5277
11.5814
11.3149
11.2987
11.2144
11.5881
11.1678
11.5148
11.5065
11.5622
11.304
11.5811
11.5341
11.5107
11.5627
11.4479
11.533
11.5583
11.5706
11.494
11.5705
11.5975
11.5374
11.3308
11.5639
11.1569
11.5565
11.5369
11.5641
11.5332
11.4252
11.4771
11.5646
11.5576
11.5602
11.5927
11.5874
11.5437
11.2286
11.5562
11.4609
11.544
11.449
11.5708
11.0422
11.5646
11.2381
11.4478
11.4001
11.5259
11.5175
11.5767
11.5977
11.3828
11.555
11.4739
11.5693
11.5938
11.2381
11.4691
11.4476
11.303
11.5988
11.5515
11.4533
11.1735
11.5333
11.3216
11.5253
11.5946
11.2477
11.6
11.5401
11.529
11.5013
11.2857
11.3318
11.5764
11.5201
11.3152
11.5617
11.4471
11.4499
11.4737
11.5745
11.3925
11.2612
11.3426
11.5273
11.4367
11.5283
11.4721
11.2267
11.2681
11.4195
11.5876
11.3821
11.3909
11.3534
11.4744
11.2393
11.3732
11.5713
11.4429
11.5762
11.5797
11.4615
11.5226
11.4196
11.4393
11.539
11.2964
11.2858
11.4352
11.2371
11.4827
11.3299
11.5652
11.4887
11.4858
11.4005
11.3805
11.2691
11.4294
11.4686
11.5917
11.2883
11.3074
11.52
11.4895
11.4559
11.4611
11.6003
11.564
11.4137
11.4949
11.391
11.354
11.3489
11.229
11.3273
11.502
11.4473
11.449
11.4181
11.4887
11.3627
11.5783
11.5506
11.3911
11.3875
11.4576
11.5975
11.2381
11.4917
11.3524
11.5488
11.435
11.4602
11.5769
11.3001
11.5624
11.5562
11.5474
11.4814
11.2114
11.5059
11.5562
11.5921
11.2683
11.5181
11.5082
11.5083
11.5941
11.5544
11.4439
11.4618
11.5995
11.5178
11.547
11.599
11.5639
11.4393
11.2777
11.45
11.4784
11.5821
11.4693
11.5469
11.5536
11.3236
11.1342
11.5094
11.5561
11.5562
11.4814
11.5673
11.4824
11.508
11.5545
11.5845
11.4701
11.3429
11.5644
11.1422
11.5811
11.5916
11.4444
11.5476
11.5168
11.3833
11.5936
11.4614
11.581
11.5753
11.5742
11.5178
11.551
11.493
11.4227
11.4855
11.4511
11.4258
11.5273
11.4055
11.2112
11.5084
11.4006
11.5165
11.3716
11.5689
11.5375
11.5786
11.1152
11.5198
11.1854
11.4197
11.5958
11.5081
11.3243
11.3715
11.357
11.5284
11.3836
11.5377
11.4106
11.2676
11.5083
11.5884
11.5913
11.5311
11.5571
11.5208
11.5709
11.5887
11.2858
11.5896
11.2191
11.4105
11.5667
11.5639
11.5077
11.5082
11.5311
11.4294
11.5909
11.5177
11.2939
11.5224
11.5715
11.5261
11.5521
11.4498
11.5244
11.3058
11.4929
11.1791
11.4432
11.4521
11.4817
11.4724
11.4003
11.2762
11.5601
11.2958
11.1882
11.4733
11.5765
11.4828
11.4984
11.5888
11.2906
11.46
11.5785
11.4759
11.4675
11.5152
11.5936
11.3299
11.5494
11.4401
11.5916
11.4795
11.449
11.1623
11.5913
11.397
11.5542
11.5119
11.5082
11.5728
11.2865
11.5549
11.4867
11.2332
11.5477
11.433
11.3102
11.5565
11.5815
11.4392
11.179
11.2961
11.4064
11.2925
11.5764
11.2388
11.3056
11.5398
11.4687
11.3402
11.1146
11.3717
11.422
11.3543
11.3444
11.183
11.5085
11.4392
11.5096
11.5937
11.5015
11.5525
11.2002
11.2564
11.5783
11.6002
11.5849
11.4686
11.2583
11.3813
11.1822
11.2287
11.3813
11.5709
11.3056
11.3831
11.4802
11.4619
11.5689
11.4021
11.5037
11.4504
11.5669
11.5838
11.5196
11.3257
11.4294
11.3407
11.556
11.5181
11.4213
11.4742
11.5341
11.5387
11.5142
11.5085
11.3634
11.4091
11.1417
11.1228
11.4404
11.3143
11.2579
11.5639
11.5649
11.5675
11.4232
11.4801
11.5194
11.5237
11.4971
11.5009
11.558
11.5924
11.444
11.556
11.5464
11.4978
11.6002
11.4413
11.5421
11.5477
11.3715
11.4642
11.5942
11.3491
11.5126
11.4528
11.2341
11.4554
11.4793
11.5646
11.5949
11.5449
11.5941
11.5981
11.489
11.0417
11.4098
11.2336
11.4687
11.5077
11.5637
11.3784
11.2789
11.2571
11.2882
11.5371
11.5469
11.4784
11.586
11.5906
11.3596
11.3815
11.4105
11.5041
11.5655
11.3905
11.4531
11.5347
11.5903
11.375
11.4232
11.569
11.401
11.5917
11.5763
11.0191
11.531
11.449
11.5276
11.4696
11.5194
11.5921
11.1042
11.3528
11.4296
11.5919
11.585
11.6
11.467
11.5253
11.5413
11.0318
11.449
11.4171
11.5623
11.5596
11.5708
11.1771
11.4536
11.581
11.5762
11.4303
11.5392
11.4888
11.4954
11.2762
11.4517
11.4125
11.5815
11.4303
11.4908
11.5004
11.498
11.5937
11.4294
11.3708
11.3544
11.4885
11.2868
11.4628
11.5974
11.2629
11.5536
11.3221
11.4855
11.3174
11.5176
11.4022
11.5154
11.4793
11.6
11.5822
11.0755
11.3532
11.5526
11.1343
11.4811
11.5301
11.5818
11.5914
11.5937
11.5826
11.368
11.1785
11.472
11.5593
11.5276
11.2193
11.4216
11.4732
11.5011
11.3429
11.5974
11.106
11.5917
11.4885
11.5544
11.5082
11.559
11.5088
11.3152
11.2507
11.2902
11.5573
11.1389
11.449
11.5439
11.3339
11.3073
11.3429
11.2862
11.3075
11.5304
11.4723
11.3835
11.481
11.547
11.286
11.0997
11.443
11.5175
11.5166
11.334
11.528
11.5971
11.5278
11.4205
11.5315
11.3442
11.5054
11.3449
11.4887
11.5179
11.5428
11.5226
11.5889
11.4029
11.5906
11.4512
11.5307
11.6001
11.571
11.2497
11.3908
11.4342
11.5974
11.4397
11.524
11.2172
11.181
11.4109
11.3905
11.5711
11.5564
11.4001
11.5819
11.5941
11.2191
11.4528
11.3429
11.43
11.5406
11.3739
11.3448
11.4837
11.4714
11.5778
11.5296
11.5715
11.4997
11.5639
11.5646
11.433
11.3276
11.2492
11.5431
11.5341
11.3049
11.583
11.4219
11.04
11.5774
11.2442
11.53
11.3171
11.5761
11.4392
11.462
11.303
11.5067
11.6009
11.3619
11.5913
11.4589
11.4791
11.394
11.4556
11.5147
11.2012
11.1716
11.5905
11.3738
11.4705
11.4625
11.4402
11.2953
11.2857
11.2293
11.4213
11.5289
11.3545
11.3375
11.5544
11.51
11.4015
11.4736
11.3635
11.5982
11.5686
11.4396
11.5504
11.4881
11.5718
11.4492
11.5957
11.5089
11.3661
11.4023
11.4115
11.4696
11.5571
11.4538
11.5022
11.5473
11.4784
11.5886
11.5941
11.5929
11.1246
11.3657
11.4588
11.2023
11.4882
11.5301
11.4418
11.5955
11.1735
11.5372
11.5891
11.2279
11.4683
11.5455
11.267
11.4612
11.4929
11.4134
11.5016
11.4231
11.475
11.3759
11.5994
11.564
11.4402
11.3287
11.5578
11.5345
11.5983
11.4686
11.4929
11.4665
11.4066
11.2533
11.2877
11.1921
11.5855
11.1656
11.4673
11.4493
11.4789
11.4607
11.4688
11.3813
11.3152
11.5371
11.4982
11.5371
11.5572
11.4588
11.5855
11.5912
11.5188
11.3496
11.5118
11.5966
11.4894
11.5679
11.4785
11.4891
11.5081
11.5622
11.5992
11.2295
11.1186
11.5562
11.4207
11.3635
11.5337
11.2846
11.5741
11.5912
11.4197
11.5815
11.4621
11.4936
11.4677
11.3345
11.2847
11.469
11.5371
11.4062
11.2583
11.5749
11.4284
11.5069
11.5286
11.5325
11.5988
11.4588
11.4523
11.3619
11.5383
11.4208
11.5078
11.5288
11.3483
11.3984
11.2748
11.546
11.1548
11.5403
11.4339
11.4665
11.456
11.3835
11.4331
11.3077
11.4485
11.2635
11.0328
11.4865
11.5896
11.5791
11.5959
10.8919
11.3816
11.4597
11.4352
11.4623
11.5444
11.4485
11.5401
11.564
11.5775
11.4497
11.5704
11.4515
11.4518
11.305
11.5687
11.3517
11.5332
10.7169
11.5402
11.5509
11.4295
11.5812
11.2131
11.3895
11.5683
11.3725
11.3881
11.2475
11.2382
11.596
11.5631
11.5564
11.4718
11.4177
11.2589
11.5561
11.5672
11.4785
11.5576
11.4062
11.3343
11.2741
11.601
11.2711
11.3714
11.4588
11.5516
11.4871
11.5387
11.5446
11.3931
11.5953
11.3905
11.5916
11.5915
11.3651
11.3942
11.5644
11.5354
11.5999
11.425
11.324
11.485
11.3826
11.5238
11.3363
10.96
11.5082
11.4727
11.4784
11.3101
11.5648
11.4409
11.3545
11.3823
11.4075
11.4407
11.3294
11.4905
11.4087
11.3235
11.5776
11.5328
11.5706
11.283
11.1405
11.2921
11.5939
11.4281
11.4796
11.4593
11.5576
11.498
10.9143
11.4686
11.5274
11.5815
11.1108
11.5109
11.4436
11.1082
11.4302
11.5493
11.577
11.5371
11.1715
11.5089
11.5866
11.243
11.0762
11.1273
11.305
11.5086
11.4098
11.3499
11.5662
11.1977
11.5995
11.565
11.3849
11.5486
11.5825
11.5782
11.2727
11.2667
11.5922
11.4452
11.5993
11.4995
11.2953
11.2242
11.5254
11.3991
11.4899
11.381
10.8608
11.355
11.5175
11.531
11.4124
11.5766
11.4881
10.7123
11.0801
11.5186
11.5766
10.6937
11.3835
11.4766
11.5371
11.5937
11.5706
11.3251
11.5974
11.4657
11.1688
11.5771
11.5962
11.2453
11.3312
11.4564
11.577
11.5376
11.5107
11.5815
11.0917
11.2494
11.4047
11.449
10.9629
11.4498
11.3086
10.8477
10.9448
11.4647
10.7226
11.3905
11.4301
11.5488
10.8489
11.3622
11.1286
11.2171
11.2023
11.5644
11.2996
11.508
11.4983
11.2825
11.5884
11.5763
11.0896
11.5855
11.4205
11.566
11.0956
11.2339
11.53
10.7203
10.8574
11.1684
11.1094
10.6952
11.5784
11.5529
11.3282
11.0076
11.5977
10.7786
10.8406
11.2525
10.8811
11.0667
11.5835
11.4588
11.5271
11.5768
11.4317
11.5683
11.4422
11.296
11.2979
11.1122
11.5671
11.2765
11.5428
11.2008
11.5762
11.3628
11.4435
10.9231
10.702
11.4499
11.3823
10.7735
11.4894
11.2442
10.8368
11.0441
10.84
10.811
11.5711
11.1794
11.4847
11.3897
11.3821
10.7604
11.135
10.8086
10.7508
11.328
11.3376
11.0412
11.4055
11.3873
10.8424
11.0516
10.93
10.855
10.7352
10.9603
10.8916
11.5108
11.4694
11.229
11.5914
10.9453
11.5932
11.5685
10.9334
10.6961
11.2887
11.0767
11.1633
10.8205
11.0459
11.5078
11.5641
11.5009
11.4747
11.3039
11.1489
10.8102
11.1735
10.7067
11.2143
11.4686
10.8417
10.9422
10.8766
10.741
10.8301
11.0385
11.1829
11.1675
10.8024
10.8618
11.2301
11.1914
11.3041
10.8226
11.0916
10.6801
10.8426
10.7504
10.77
11.3719
11.3429
11.4784
10.7792
11.5642
10.7702
10.9698
11.5939
11.4965
10.9508
10.8
10.74
10.7301
11.1139
11.3829
10.7129
10.7172
11.1938
11.1648
11.1064
11.1308
10.6937
11.4252
11.5077
10.9669
10.6804
10.7293
11.077
11.6002
11.011
11.3487
11.0486
10.7943
11.3064
11.5198
10.8398
11.571
10.8758
11.3878
10.9986
11.1794
10.6874
11.4982
10.831
11.5885
11.042
11.4075
11.1338
)


// ************************************************************************* //
