/*--------------------------------*- C++ -*----------------------------------*\
| =========                 |                                                 |
| \\      /  F ield         | OpenFOAM: The Open Source CFD Toolbox           |
|  \\    /   O peration     | Version:  plus.master.MPPICInterFoam            |
|   \\  /    A nd           | Web:      www.OpenFOAM.com                      |
|    \\/     M anipulation  |                                                 |
\*---------------------------------------------------------------------------*/
FoamFile
{
    version     2.0;
    format      ascii;
    class       volScalarField;
    location    "8";
    object      epsilon;
}
// * * * * * * * * * * * * * * * * * * * * * * * * * * * * * * * * * * * * * //

dimensions      [0 2 -3 0 0 0 0];

internalField   nonuniform List<scalar> 
11821
(
5.18936e-05
1.74858e-05
1.25367e-05
1.14075e-05
1.11192e-05
1.10286e-05
1.09371e-05
1.07917e-05
5.21183e-05
1.75716e-05
1.25703e-05
1.14233e-05
1.11284e-05
1.10355e-05
1.09434e-05
1.07981e-05
5.22488e-05
1.76197e-05
1.25915e-05
1.14351e-05
1.11364e-05
1.10419e-05
1.09493e-05
1.08036e-05
5.22674e-05
1.76417e-05
1.26061e-05
1.1446e-05
1.11453e-05
1.10494e-05
1.09556e-05
1.08088e-05
5.21606e-05
1.76138e-05
1.26051e-05
1.1453e-05
1.11544e-05
1.10581e-05
1.09628e-05
1.08142e-05
5.19234e-05
1.75326e-05
1.25842e-05
1.14528e-05
1.11612e-05
1.10661e-05
1.09697e-05
1.08191e-05
5.15721e-05
1.73494e-05
1.25247e-05
1.14386e-05
1.11642e-05
1.10747e-05
1.09786e-05
1.08265e-05
5.17706e-05
1.74899e-05
1.25633e-05
1.14452e-05
1.11647e-05
1.10791e-05
1.09894e-05
1.08416e-05
5.20009e-05
1.75688e-05
1.25969e-05
1.14647e-05
1.11794e-05
1.10926e-05
1.10028e-05
1.08549e-05
5.21359e-05
1.76114e-05
1.26177e-05
1.1479e-05
1.11916e-05
1.11042e-05
1.10144e-05
1.08662e-05
5.2159e-05
1.76263e-05
1.26297e-05
1.14898e-05
1.12018e-05
1.11139e-05
1.10234e-05
1.08744e-05
5.20551e-05
1.75926e-05
1.26247e-05
1.14938e-05
1.12084e-05
1.11205e-05
1.10289e-05
1.08786e-05
5.1821e-05
1.75117e-05
1.2601e-05
1.1489e-05
1.12098e-05
1.11229e-05
1.10303e-05
1.08783e-05
5.14729e-05
1.73438e-05
1.25434e-05
1.14701e-05
1.12046e-05
1.11215e-05
1.10287e-05
1.08755e-05
5.17261e-05
1.7514e-05
1.2614e-05
1.15137e-05
1.12469e-05
1.11714e-05
1.10866e-05
1.09368e-05
5.19719e-05
1.75893e-05
1.26506e-05
1.15403e-05
1.12715e-05
1.11965e-05
1.11128e-05
1.09631e-05
5.21228e-05
1.76298e-05
1.26739e-05
1.15603e-05
1.12917e-05
1.12177e-05
1.11349e-05
1.09853e-05
5.21591e-05
1.76412e-05
1.2686e-05
1.15736e-05
1.1306e-05
1.12327e-05
1.11502e-05
1.10002e-05
5.20646e-05
1.76055e-05
1.26791e-05
1.15762e-05
1.13115e-05
1.12386e-05
1.11554e-05
1.10045e-05
5.1837e-05
1.7527e-05
1.26534e-05
1.15671e-05
1.13072e-05
1.12346e-05
1.115e-05
1.09977e-05
5.14941e-05
1.73739e-05
1.2597e-05
1.15423e-05
1.12924e-05
1.12214e-05
1.11356e-05
1.0982e-05
5.17657e-05
1.75693e-05
1.27029e-05
1.16304e-05
1.13873e-05
1.13303e-05
1.12566e-05
1.11066e-05
5.2038e-05
1.76455e-05
1.27472e-05
1.16697e-05
1.14285e-05
1.13751e-05
1.13045e-05
1.11554e-05
5.22158e-05
1.76881e-05
1.27773e-05
1.17006e-05
1.14627e-05
1.14131e-05
1.13454e-05
1.11975e-05
5.22737e-05
1.76998e-05
1.27927e-05
1.172e-05
1.14854e-05
1.14383e-05
1.13724e-05
1.1225e-05
5.21934e-05
1.76653e-05
1.27861e-05
1.17228e-05
1.14913e-05
1.1445e-05
1.13789e-05
1.12309e-05
5.19728e-05
1.75897e-05
1.2758e-05
1.17083e-05
1.14798e-05
1.14324e-05
1.13643e-05
1.12149e-05
5.16324e-05
1.74492e-05
1.27004e-05
1.16748e-05
1.14515e-05
1.14028e-05
1.13316e-05
1.11805e-05
5.19027e-05
1.76714e-05
1.2851e-05
1.18221e-05
1.16185e-05
1.15943e-05
1.15422e-05
1.13966e-05
5.22151e-05
1.77549e-05
1.291e-05
1.1883e-05
1.16869e-05
1.16712e-05
1.16259e-05
1.14832e-05
5.24321e-05
1.78054e-05
1.29534e-05
1.19324e-05
1.17446e-05
1.1737e-05
1.16982e-05
1.15586e-05
5.25206e-05
1.78222e-05
1.29771e-05
1.19635e-05
1.1782e-05
1.17799e-05
1.17454e-05
1.1608e-05
5.24585e-05
1.77916e-05
1.29729e-05
1.19684e-05
1.17904e-05
1.17896e-05
1.17556e-05
1.16183e-05
5.22434e-05
1.77184e-05
1.29411e-05
1.19464e-05
1.17686e-05
1.17649e-05
1.17277e-05
1.15886e-05
5.18996e-05
1.75865e-05
1.28781e-05
1.18989e-05
1.17203e-05
1.17106e-05
1.16674e-05
1.15254e-05
5.21613e-05
1.78435e-05
1.30892e-05
1.21283e-05
1.19885e-05
1.20196e-05
1.20067e-05
1.18746e-05
5.2531e-05
1.79436e-05
1.31741e-05
1.22239e-05
1.21001e-05
1.21471e-05
1.21473e-05
1.20218e-05
5.28022e-05
1.80104e-05
1.32406e-05
1.23038e-05
1.21954e-05
1.22574e-05
1.22697e-05
1.21511e-05
5.29323e-05
1.80389e-05
1.32796e-05
1.23546e-05
1.22571e-05
1.23291e-05
1.23497e-05
1.22361e-05
5.28931e-05
1.80154e-05
1.32807e-05
1.23644e-05
1.22708e-05
1.2345e-05
1.23672e-05
1.22547e-05
5.26799e-05
1.79433e-05
1.32428e-05
1.23315e-05
1.22343e-05
1.23027e-05
1.23199e-05
1.22048e-05
5.23238e-05
1.78145e-05
1.31688e-05
1.22614e-05
1.21553e-05
1.22117e-05
1.22184e-05
1.20978e-05
5.25808e-05
1.81202e-05
1.34631e-05
1.26055e-05
1.25657e-05
1.26856e-05
1.27395e-05
1.26373e-05
5.30299e-05
1.82509e-05
1.359e-05
1.27554e-05
1.27434e-05
1.28905e-05
1.29667e-05
1.28771e-05
5.3376e-05
1.83471e-05
1.36947e-05
1.28832e-05
1.28969e-05
1.30689e-05
1.31662e-05
1.30894e-05
5.35627e-05
1.83978e-05
1.37598e-05
1.29658e-05
1.29967e-05
1.31855e-05
1.32973e-05
1.323e-05
5.35521e-05
1.83863e-05
1.37708e-05
1.29841e-05
1.30196e-05
1.32123e-05
1.33275e-05
1.32628e-05
5.33355e-05
1.83137e-05
1.37237e-05
1.29345e-05
1.29616e-05
1.31452e-05
1.32528e-05
1.31841e-05
5.2954e-05
1.8188e-05
1.36258e-05
1.28278e-05
1.28366e-05
1.3e-05
1.30905e-05
1.30125e-05
5.32209e-05
1.8553e-05
1.40371e-05
1.33326e-05
1.34437e-05
1.37007e-05
1.38617e-05
1.38154e-05
5.37806e-05
1.87356e-05
1.42302e-05
1.35643e-05
1.37192e-05
1.40193e-05
1.42163e-05
1.41914e-05
5.42316e-05
1.88826e-05
1.43965e-05
1.37642e-05
1.39589e-05
1.42987e-05
1.45296e-05
1.45265e-05
5.44972e-05
1.89766e-05
1.45035e-05
1.38939e-05
1.41154e-05
1.44823e-05
1.47367e-05
1.47495e-05
5.45233e-05
1.89917e-05
1.45269e-05
1.39243e-05
1.41528e-05
1.45266e-05
1.47873e-05
1.48049e-05
5.42932e-05
1.89156e-05
1.44611e-05
1.38497e-05
1.40647e-05
1.44249e-05
1.46748e-05
1.46866e-05
5.38573e-05
1.87608e-05
1.43205e-05
1.36881e-05
1.38728e-05
1.4202e-05
1.4426e-05
1.44228e-05
5.41739e-05
1.92176e-05
1.49021e-05
1.44149e-05
1.47456e-05
1.52066e-05
1.55318e-05
1.55795e-05
5.48905e-05
1.9489e-05
1.51955e-05
1.47635e-05
1.51602e-05
1.56863e-05
1.60657e-05
1.61469e-05
5.54907e-05
1.97322e-05
1.54483e-05
1.50658e-05
1.55229e-05
1.61092e-05
1.65398e-05
1.66548e-05
5.586e-05
1.98878e-05
1.56117e-05
1.52628e-05
1.57607e-05
1.63882e-05
1.68546e-05
1.6994e-05
5.59235e-05
1.99198e-05
1.565e-05
1.53109e-05
1.58202e-05
1.64591e-05
1.69359e-05
1.70832e-05
5.56604e-05
1.98201e-05
1.55553e-05
1.52013e-05
1.5691e-05
1.63112e-05
1.67733e-05
1.6913e-05
5.51367e-05
1.96111e-05
1.53506e-05
1.49613e-05
1.54055e-05
1.59806e-05
1.64057e-05
1.65234e-05
5.55815e-05
2.02348e-05
1.61744e-05
1.59853e-05
1.66276e-05
1.7382e-05
1.7947e-05
1.81411e-05
5.65185e-05
2.06481e-05
1.66043e-05
1.6495e-05
1.7233e-05
1.80805e-05
1.87224e-05
1.89646e-05
5.73125e-05
2.10014e-05
1.69753e-05
1.69389e-05
1.77643e-05
1.86981e-05
1.94131e-05
1.97037e-05
5.7814e-05
2.1227e-05
1.72158e-05
1.7229e-05
1.8114e-05
1.9107e-05
1.98727e-05
2.01983e-05
5.79213e-05
2.12777e-05
1.72745e-05
1.73027e-05
1.82051e-05
1.92158e-05
1.99974e-05
2.03347e-05
5.76042e-05
2.11418e-05
1.71394e-05
1.71461e-05
1.80224e-05
1.90086e-05
1.97719e-05
2.01001e-05
5.69502e-05
2.08532e-05
1.68447e-05
1.67987e-05
1.76108e-05
1.85351e-05
1.92484e-05
1.95472e-05
5.76425e-05
2.17475e-05
1.79943e-05
1.82094e-05
1.92815e-05
2.04422e-05
2.13425e-05
2.175e-05
5.88707e-05
2.23295e-05
1.86067e-05
1.89337e-05
2.01372e-05
2.1424e-05
2.24269e-05
2.28983e-05
5.99277e-05
2.28286e-05
1.91367e-05
1.9566e-05
2.08899e-05
2.22936e-05
2.33941e-05
2.393e-05
6.06082e-05
2.31496e-05
1.94813e-05
1.99801e-05
2.13861e-05
2.28701e-05
2.40385e-05
2.46206e-05
6.07717e-05
2.32259e-05
1.95684e-05
2.00891e-05
2.15205e-05
2.30299e-05
2.42208e-05
2.48195e-05
6.03728e-05
2.30397e-05
1.93801e-05
1.98727e-05
2.12711e-05
2.2751e-05
2.39207e-05
2.451e-05
5.95291e-05
2.26391e-05
1.89638e-05
1.93839e-05
2.06972e-05
2.2097e-05
2.32037e-05
2.37567e-05
6.06252e-05
2.39047e-05
2.05369e-05
2.12862e-05
2.29313e-05
2.46348e-05
2.59852e-05
2.66878e-05
6.2253e-05
2.47116e-05
2.13871e-05
2.22843e-05
2.41001e-05
2.59642e-05
2.74427e-05
2.82235e-05
6.36725e-05
2.54072e-05
2.21245e-05
2.31564e-05
2.51286e-05
2.7142e-05
2.87425e-05
2.96029e-05
6.45981e-05
2.58567e-05
2.26044e-05
2.37279e-05
2.58067e-05
2.79225e-05
2.9608e-05
3.05256e-05
6.48363e-05
2.59682e-05
2.27297e-05
2.38833e-05
2.5997e-05
2.81473e-05
2.98627e-05
3.08021e-05
6.43178e-05
2.57147e-05
2.24742e-05
2.35941e-05
2.56695e-05
2.77869e-05
2.94806e-05
3.04124e-05
6.32029e-05
2.51634e-05
2.19018e-05
2.29295e-05
2.48988e-05
2.69189e-05
2.85385e-05
2.94293e-05
6.49189e-05
2.69196e-05
2.40111e-05
2.5443e-05
2.78263e-05
3.02294e-05
3.21618e-05
3.32557e-05
6.70959e-05
2.80208e-05
2.51592e-05
2.67731e-05
2.93647e-05
3.19595e-05
3.40404e-05
3.52218e-05
6.90148e-05
2.89736e-05
2.61555e-05
2.79349e-05
3.07173e-05
3.34904e-05
3.57137e-05
3.69858e-05
7.02773e-05
2.95899e-05
2.68031e-05
2.86951e-05
3.16078e-05
3.45037e-05
3.68265e-05
3.81645e-05
7.06168e-05
2.97479e-05
2.6977e-05
2.89083e-05
3.18663e-05
3.48064e-05
3.71669e-05
3.85319e-05
6.99267e-05
2.94082e-05
2.6641e-05
2.85362e-05
3.14536e-05
3.43611e-05
3.67027e-05
3.80648e-05
6.84361e-05
2.86635e-05
2.58786e-05
2.76651e-05
3.04587e-05
3.32557e-05
3.55167e-05
3.68372e-05
7.10669e-05
3.10524e-05
2.86539e-05
3.09261e-05
3.42288e-05
3.75046e-05
4.01665e-05
4.17631e-05
7.39979e-05
3.25244e-05
3.01565e-05
3.26358e-05
3.61753e-05
3.96635e-05
4.2484e-05
4.41693e-05
7.66128e-05
3.38001e-05
3.14597e-05
3.41273e-05
3.78838e-05
4.15706e-05
4.45448e-05
4.63247e-05
7.83521e-05
3.46233e-05
3.23041e-05
3.51003e-05
3.90062e-05
4.28311e-05
4.59144e-05
4.77647e-05
7.88339e-05
3.48402e-05
3.25367e-05
3.53813e-05
3.93431e-05
4.32218e-05
4.63505e-05
4.82333e-05
7.78956e-05
3.43963e-05
3.21107e-05
3.49219e-05
3.88458e-05
4.26969e-05
4.58139e-05
4.77019e-05
7.58723e-05
3.34137e-05
3.11284e-05
3.38222e-05
3.76119e-05
4.13472e-05
4.4384e-05
4.62346e-05
4.88462e-05
1.66775e-05
1.22398e-05
1.12682e-05
1.10379e-05
1.09675e-05
1.08815e-05
1.07375e-05
4.88343e-05
1.66085e-05
1.22078e-05
1.12543e-05
1.10328e-05
1.09673e-05
1.08855e-05
1.07492e-05
4.89309e-05
1.66057e-05
1.22345e-05
1.13082e-05
1.11128e-05
4.93684e-05
1.65412e-05
4.91674e-05
4.87505e-05
1.66727e-05
1.22452e-05
1.12775e-05
1.10496e-05
1.09807e-05
1.08949e-05
1.07496e-05
4.86973e-05
1.66084e-05
1.22137e-05
1.12609e-05
1.10395e-05
1.09737e-05
1.08908e-05
1.07512e-05
4.87461e-05
1.66032e-05
1.22233e-05
1.12838e-05
1.10748e-05
1.10204e-05
1.09464e-05
1.08131e-05
4.90043e-05
1.65293e-05
1.22039e-05
1.13038e-05
1.11229e-05
1.10933e-05
1.10509e-05
1.09673e-05
4.89278e-05
1.66114e-05
1.22205e-05
1.12817e-05
1.10745e-05
1.10221e-05
1.09515e-05
1.08222e-05
4.90136e-05
1.66484e-05
1.223e-05
1.12753e-05
1.10558e-05
1.09924e-05
1.09111e-05
1.07718e-05
4.91529e-05
1.67357e-05
1.22694e-05
1.12937e-05
1.10649e-05
1.09973e-05
1.0913e-05
1.07675e-05
4.8728e-05
1.66849e-05
1.22663e-05
1.13048e-05
1.10817e-05
1.10161e-05
1.09316e-05
1.07844e-05
4.86466e-05
1.66257e-05
1.22362e-05
1.12874e-05
1.10699e-05
1.10069e-05
1.09247e-05
1.07821e-05
4.86622e-05
1.66189e-05
1.22378e-05
1.12957e-05
1.10843e-05
1.10269e-05
1.09492e-05
1.08089e-05
4.88157e-05
1.65516e-05
1.22104e-05
1.12953e-05
1.11015e-05
1.10582e-05
1.09971e-05
1.08841e-05
4.87944e-05
1.66218e-05
1.22332e-05
1.12922e-05
1.10828e-05
1.10275e-05
1.09519e-05
1.0814e-05
4.88965e-05
1.6652e-05
1.22434e-05
1.12932e-05
1.10774e-05
1.10167e-05
1.09362e-05
1.0794e-05
4.90435e-05
1.67304e-05
1.22798e-05
1.1312e-05
1.10886e-05
1.10249e-05
1.09423e-05
1.07955e-05
4.87616e-05
1.67165e-05
1.23082e-05
1.13567e-05
1.11424e-05
1.10836e-05
1.10023e-05
1.08532e-05
4.86626e-05
1.66616e-05
1.22792e-05
1.13386e-05
1.11293e-05
1.1073e-05
1.09941e-05
1.08489e-05
4.86512e-05
1.66522e-05
1.22761e-05
1.13395e-05
1.11337e-05
1.10808e-05
1.10044e-05
1.08602e-05
4.87406e-05
1.65956e-05
1.22485e-05
1.13307e-05
1.11361e-05
1.10911e-05
1.10239e-05
1.08956e-05
4.87413e-05
1.66499e-05
1.2269e-05
1.13337e-05
1.11297e-05
1.10784e-05
1.10037e-05
1.08611e-05
4.88442e-05
1.6674e-05
1.22778e-05
1.13365e-05
1.11288e-05
1.10746e-05
1.09973e-05
1.08528e-05
4.89918e-05
1.67467e-05
1.23118e-05
1.13547e-05
1.11404e-05
1.10836e-05
1.10045e-05
1.08563e-05
4.88492e-05
1.67745e-05
1.23812e-05
1.14466e-05
1.12479e-05
1.12018e-05
1.1128e-05
1.09779e-05
4.87392e-05
1.67224e-05
1.23524e-05
1.14272e-05
1.1233e-05
1.11896e-05
1.11185e-05
1.09723e-05
4.87045e-05
1.67096e-05
1.23456e-05
1.14235e-05
1.12322e-05
1.11916e-05
1.11227e-05
1.09775e-05
4.87518e-05
1.66628e-05
1.23202e-05
1.14111e-05
1.1227e-05
1.11909e-05
1.11271e-05
1.09914e-05
4.87571e-05
1.67019e-05
1.23356e-05
1.14146e-05
1.12246e-05
1.11851e-05
1.11173e-05
1.09731e-05
4.88522e-05
1.6721e-05
1.23423e-05
1.14169e-05
1.12241e-05
1.11823e-05
1.11125e-05
1.09668e-05
4.89985e-05
1.67945e-05
1.23755e-05
1.14345e-05
1.12354e-05
1.11911e-05
1.11194e-05
1.09706e-05
4.89996e-05
1.68712e-05
1.25019e-05
1.15951e-05
1.14235e-05
1.14006e-05
1.13423e-05
1.11946e-05
4.88805e-05
1.68198e-05
1.24717e-05
1.15732e-05
1.1406e-05
1.13864e-05
1.13315e-05
1.11883e-05
4.88261e-05
1.68027e-05
1.24614e-05
1.15661e-05
1.14019e-05
1.13856e-05
1.13338e-05
1.11925e-05
4.88431e-05
1.67634e-05
1.24382e-05
1.1552e-05
1.13923e-05
1.13783e-05
1.1329e-05
1.11933e-05
4.88437e-05
1.67891e-05
1.24475e-05
1.15532e-05
1.13894e-05
1.13733e-05
1.13215e-05
1.11803e-05
4.89261e-05
1.68043e-05
1.24521e-05
1.15534e-05
1.13867e-05
1.13677e-05
1.13132e-05
1.117e-05
4.90707e-05
1.68834e-05
1.24856e-05
1.15705e-05
1.13973e-05
1.13754e-05
1.13186e-05
1.11722e-05
4.92305e-05
1.70248e-05
1.26945e-05
1.18334e-05
1.17074e-05
1.17256e-05
1.1697e-05
1.15592e-05
4.91014e-05
1.69718e-05
1.26609e-05
1.18074e-05
1.16862e-05
1.17088e-05
1.16852e-05
1.15535e-05
4.90303e-05
1.69496e-05
1.26467e-05
1.17971e-05
1.16798e-05
1.17067e-05
1.16879e-05
1.15601e-05
4.90236e-05
1.69152e-05
1.26248e-05
1.17814e-05
1.16667e-05
1.16945e-05
1.16764e-05
1.15514e-05
4.90147e-05
1.69296e-05
1.2628e-05
1.17784e-05
1.16602e-05
1.16857e-05
1.16651e-05
1.15359e-05
4.90817e-05
1.69413e-05
1.263e-05
1.17755e-05
1.1653e-05
1.1674e-05
1.16489e-05
1.15159e-05
4.92211e-05
1.70238e-05
1.26628e-05
1.17914e-05
1.16622e-05
1.16796e-05
1.16513e-05
1.15142e-05
4.95701e-05
1.72624e-05
1.29941e-05
1.22062e-05
1.21553e-05
1.22428e-05
1.22678e-05
1.21548e-05
4.94284e-05
1.72046e-05
1.29547e-05
1.21742e-05
1.21291e-05
1.22231e-05
1.22562e-05
1.21523e-05
4.93426e-05
1.71766e-05
1.29359e-05
1.21603e-05
1.21205e-05
1.22211e-05
1.22615e-05
1.21646e-05
4.93158e-05
1.71446e-05
1.29138e-05
1.21423e-05
1.21037e-05
1.22038e-05
1.22436e-05
1.21475e-05
4.92953e-05
1.71494e-05
1.29108e-05
1.21336e-05
1.20906e-05
1.2187e-05
1.22228e-05
1.21219e-05
4.93458e-05
1.71577e-05
1.29096e-05
1.2126e-05
1.20765e-05
1.21654e-05
1.21933e-05
1.20855e-05
4.94754e-05
1.72385e-05
1.29397e-05
1.21402e-05
1.20835e-05
1.21674e-05
1.21902e-05
1.20767e-05
5.00611e-05
1.76229e-05
1.34506e-05
1.2777e-05
1.28455e-05
1.30458e-05
1.31624e-05
1.30999e-05
4.99027e-05
1.75565e-05
1.3402e-05
1.27365e-05
1.2813e-05
1.30237e-05
1.31533e-05
1.31055e-05
4.98026e-05
1.75215e-05
1.33777e-05
1.27185e-05
1.28025e-05
1.30229e-05
1.3164e-05
1.31277e-05
4.97578e-05
1.74897e-05
1.3354e-05
1.26971e-05
1.2781e-05
1.29999e-05
1.3139e-05
1.3102e-05
4.97253e-05
1.74864e-05
1.33444e-05
1.26809e-05
1.27581e-05
1.29701e-05
1.31021e-05
1.30578e-05
4.97595e-05
1.74911e-05
1.3339e-05
1.26668e-05
1.27337e-05
1.29337e-05
1.30528e-05
1.29965e-05
4.98754e-05
1.75631e-05
1.33649e-05
1.26791e-05
1.27379e-05
1.29303e-05
1.3041e-05
1.29759e-05
5.07682e-05
1.81622e-05
1.41337e-05
1.36337e-05
1.38861e-05
1.42635e-05
1.45286e-05
1.45579e-05
5.05867e-05
1.8082e-05
1.40718e-05
1.35816e-05
1.38461e-05
1.42402e-05
1.45265e-05
1.45795e-05
5.04709e-05
1.80384e-05
1.40404e-05
1.35588e-05
1.38342e-05
1.4243e-05
1.4547e-05
1.46182e-05
5.04096e-05
1.8005e-05
1.40136e-05
1.35327e-05
1.38068e-05
1.42129e-05
1.45139e-05
1.45829e-05
5.0366e-05
1.79948e-05
1.39969e-05
1.3507e-05
1.37705e-05
1.41648e-05
1.44534e-05
1.45106e-05
5.03857e-05
1.7996e-05
1.39867e-05
1.34843e-05
1.37321e-05
1.41078e-05
1.43759e-05
1.4414e-05
5.04865e-05
1.80517e-05
1.40099e-05
1.34952e-05
1.37327e-05
1.40967e-05
1.43517e-05
1.43757e-05
5.17903e-05
1.89595e-05
1.51392e-05
1.48957e-05
1.54232e-05
1.60688e-05
1.65643e-05
1.6747e-05
5.15753e-05
1.88586e-05
1.50584e-05
1.48283e-05
1.53746e-05
1.6047e-05
1.65764e-05
1.67962e-05
5.14397e-05
1.88037e-05
1.50181e-05
1.47999e-05
1.53626e-05
1.60571e-05
1.66133e-05
1.68613e-05
5.13632e-05
1.87672e-05
1.49868e-05
1.4768e-05
1.53282e-05
1.60193e-05
1.65716e-05
1.68167e-05
5.1311e-05
1.87516e-05
1.49628e-05
1.4731e-05
1.52749e-05
1.59473e-05
1.64799e-05
1.67063e-05
5.13202e-05
1.87501e-05
1.49475e-05
1.46979e-05
1.52188e-05
1.58633e-05
1.63655e-05
1.65628e-05
5.14112e-05
1.87923e-05
1.49713e-05
1.4709e-05
1.52157e-05
1.58429e-05
1.63247e-05
1.65007e-05
5.32779e-05
2.01257e-05
1.6597e-05
1.6722e-05
1.76494e-05
1.86881e-05
1.95266e-05
1.99491e-05
5.30126e-05
1.99946e-05
1.64901e-05
1.66349e-05
1.75917e-05
1.86724e-05
1.95632e-05
2.00422e-05
5.28498e-05
1.99246e-05
1.64384e-05
1.66005e-05
1.75817e-05
1.86956e-05
1.96264e-05
2.01475e-05
5.27589e-05
1.98839e-05
1.64019e-05
1.65624e-05
1.75408e-05
1.86512e-05
1.95784e-05
2.00968e-05
5.27031e-05
1.98647e-05
1.63711e-05
1.65132e-05
1.74681e-05
1.85513e-05
1.94496e-05
1.99409e-05
5.27097e-05
1.98635e-05
1.63518e-05
1.64692e-05
1.73917e-05
1.84354e-05
1.92906e-05
1.97401e-05
5.28076e-05
1.99105e-05
1.63818e-05
1.64839e-05
1.73866e-05
1.84051e-05
1.92305e-05
1.96487e-05
5.54572e-05
2.18139e-05
1.86795e-05
1.93207e-05
2.08131e-05
2.24103e-05
2.37401e-05
2.45171e-05
5.51152e-05
2.16395e-05
1.85372e-05
1.92084e-05
2.07462e-05
2.24069e-05
2.38144e-05
2.4674e-05
5.49127e-05
2.15491e-05
1.84712e-05
1.91678e-05
2.07421e-05
2.24517e-05
2.39176e-05
2.4838e-05
5.48088e-05
2.15036e-05
1.84298e-05
1.91252e-05
2.06977e-05
2.24058e-05
2.38706e-05
2.47911e-05
5.47583e-05
2.14846e-05
1.83947e-05
1.90655e-05
2.06066e-05
2.22783e-05
2.37047e-05
2.45889e-05
5.4776e-05
2.14891e-05
1.83753e-05
1.90132e-05
2.05108e-05
2.21297e-05
2.34983e-05
2.43261e-05
5.49005e-05
2.15524e-05
1.84194e-05
1.90378e-05
2.05085e-05
2.20923e-05
2.34194e-05
2.42034e-05
5.86629e-05
2.42317e-05
2.16117e-05
2.29562e-05
2.52249e-05
2.75908e-05
2.95998e-05
3.08776e-05
5.82035e-05
2.39961e-05
2.14217e-05
2.28119e-05
2.51483e-05
2.76065e-05
2.9726e-05
3.1119e-05
5.79419e-05
2.38779e-05
2.13379e-05
2.27658e-05
2.51558e-05
2.76846e-05
2.98865e-05
3.13645e-05
5.78275e-05
2.38287e-05
2.12942e-05
2.27237e-05
2.51162e-05
2.76492e-05
2.98569e-05
3.13415e-05
5.77982e-05
2.38168e-05
2.12613e-05
2.26606e-05
2.50149e-05
2.75039e-05
2.96653e-05
3.1106e-05
5.78503e-05
2.38367e-05
2.12505e-05
2.26083e-05
2.49078e-05
2.73303e-05
2.94189e-05
3.07881e-05
5.80308e-05
2.39305e-05
2.13208e-05
2.26538e-05
2.49184e-05
2.72948e-05
2.93285e-05
3.06394e-05
5.02445e-05
5.05638e-05
1.70553e-05
5.09239e-05
1.71904e-05
1.24227e-05
1.13521e-05
1.10857e-05
5.12728e-05
1.72674e-05
1.24518e-05
1.13673e-05
1.10961e-05
1.10114e-05
1.09213e-05
1.07757e-05
5.16049e-05
1.73992e-05
1.25037e-05
1.1392e-05
1.11104e-05
1.10221e-05
1.0931e-05
1.07853e-05
4.94061e-05
1.68469e-05
1.23127e-05
1.13121e-05
1.10724e-05
1.09996e-05
1.09122e-05
1.07645e-05
4.97346e-05
1.69561e-05
1.23515e-05
1.13272e-05
1.10784e-05
1.10022e-05
1.0914e-05
1.07666e-05
5.00782e-05
1.7053e-05
1.23882e-05
1.13449e-05
1.10891e-05
1.10101e-05
1.09207e-05
1.07724e-05
5.04253e-05
1.7082e-05
1.23958e-05
1.13511e-05
1.1096e-05
1.10185e-05
1.09307e-05
1.07843e-05
5.07913e-05
1.72069e-05
1.24464e-05
1.13787e-05
1.11155e-05
1.10351e-05
1.09462e-05
1.07987e-05
5.11448e-05
1.72872e-05
1.24792e-05
1.13984e-05
1.11309e-05
1.10493e-05
1.09603e-05
1.08128e-05
5.14781e-05
1.74066e-05
1.25287e-05
1.14253e-05
1.11497e-05
1.10655e-05
1.09759e-05
1.08281e-05
4.93014e-05
1.68387e-05
1.23231e-05
1.1332e-05
1.1099e-05
1.10308e-05
1.09457e-05
1.07973e-05
4.96264e-05
1.69529e-05
1.23672e-05
1.13528e-05
1.1111e-05
1.10397e-05
1.09538e-05
1.08054e-05
4.9973e-05
1.70545e-05
1.24087e-05
1.13758e-05
1.11274e-05
1.10538e-05
1.0967e-05
1.08176e-05
5.03347e-05
1.71115e-05
1.24319e-05
1.13927e-05
1.11434e-05
1.10705e-05
1.09848e-05
1.08364e-05
5.07065e-05
1.72308e-05
1.24843e-05
1.14253e-05
1.11697e-05
1.10952e-05
1.1009e-05
1.08597e-05
5.10718e-05
1.73168e-05
1.25235e-05
1.14526e-05
1.11939e-05
1.11191e-05
1.10334e-05
1.08839e-05
5.14175e-05
1.74304e-05
1.25748e-05
1.14858e-05
1.12217e-05
1.11459e-05
1.10604e-05
1.09105e-05
4.92488e-05
1.68541e-05
1.23558e-05
1.13767e-05
1.11536e-05
1.1093e-05
1.1012e-05
1.08625e-05
4.95683e-05
1.69697e-05
1.24041e-05
1.14031e-05
1.11721e-05
1.1109e-05
1.10274e-05
1.08776e-05
4.99173e-05
1.70755e-05
1.24515e-05
1.14333e-05
1.11969e-05
1.11323e-05
1.10504e-05
1.08998e-05
5.02901e-05
1.71534e-05
1.2489e-05
1.14625e-05
1.12251e-05
1.11617e-05
1.10811e-05
1.0931e-05
5.06755e-05
1.72727e-05
1.25471e-05
1.15045e-05
1.12632e-05
1.12e-05
1.11202e-05
1.09695e-05
5.10607e-05
1.73675e-05
1.25963e-05
1.15441e-05
1.1302e-05
1.12405e-05
1.11623e-05
1.10117e-05
5.14297e-05
1.74813e-05
1.26546e-05
1.15891e-05
1.13451e-05
1.12852e-05
1.12088e-05
1.10582e-05
4.92492e-05
1.68987e-05
1.24202e-05
1.14589e-05
1.1252e-05
1.12046e-05
1.11314e-05
1.09813e-05
4.95625e-05
1.70142e-05
1.24728e-05
1.14919e-05
1.12787e-05
1.12298e-05
1.11566e-05
1.10063e-05
4.99158e-05
1.71249e-05
1.25281e-05
1.15324e-05
1.13158e-05
1.12671e-05
1.11949e-05
1.10442e-05
5.03032e-05
1.72207e-05
1.2581e-05
1.15775e-05
1.13615e-05
1.13157e-05
1.1246e-05
1.10959e-05
5.07101e-05
1.73457e-05
1.26503e-05
1.16352e-05
1.14191e-05
1.13767e-05
1.13099e-05
1.11601e-05
5.1124e-05
1.74533e-05
1.27149e-05
1.1694e-05
1.1481e-05
1.14437e-05
1.13809e-05
1.12321e-05
5.15283e-05
1.75738e-05
1.27868e-05
1.17589e-05
1.15491e-05
1.15174e-05
1.14593e-05
1.13116e-05
4.93112e-05
1.69819e-05
1.25309e-05
1.15981e-05
1.14184e-05
1.13941e-05
1.13362e-05
1.11884e-05
4.96201e-05
1.70978e-05
1.25894e-05
1.16402e-05
1.14565e-05
1.14325e-05
1.13757e-05
1.12279e-05
4.99819e-05
1.72158e-05
1.26563e-05
1.16958e-05
1.1512e-05
1.14912e-05
1.14374e-05
1.12901e-05
5.03901e-05
1.73299e-05
1.27282e-05
1.17631e-05
1.15835e-05
1.15691e-05
1.15204e-05
1.13748e-05
5.08281e-05
1.74671e-05
1.28161e-05
1.18456e-05
1.16718e-05
1.16655e-05
1.16235e-05
1.148e-05
5.1282e-05
1.75936e-05
1.2904e-05
1.1934e-05
1.17694e-05
1.17738e-05
1.17401e-05
1.15995e-05
5.17348e-05
1.77281e-05
1.29989e-05
1.20303e-05
1.18763e-05
1.18928e-05
1.18685e-05
1.17314e-05
4.94515e-05
1.71187e-05
1.27102e-05
1.18238e-05
1.16897e-05
1.17056e-05
1.16763e-05
1.15376e-05
4.97598e-05
1.72374e-05
1.27777e-05
1.1879e-05
1.17441e-05
1.1763e-05
1.17367e-05
1.15987e-05
5.01364e-05
1.73668e-05
1.28616e-05
1.1957e-05
1.1827e-05
1.18533e-05
1.18334e-05
1.16977e-05
5.05746e-05
1.7503e-05
1.29597e-05
1.20562e-05
1.19367e-05
1.19752e-05
1.19649e-05
1.1833e-05
5.10561e-05
1.76611e-05
1.30767e-05
1.21767e-05
1.20713e-05
1.21256e-05
1.21278e-05
1.20012e-05
5.15652e-05
1.78148e-05
1.31994e-05
1.23094e-05
1.22226e-05
1.22959e-05
1.23131e-05
1.21932e-05
5.20807e-05
1.79744e-05
1.33311e-05
1.2454e-05
1.23885e-05
1.24833e-05
1.25174e-05
1.2405e-05
4.96975e-05
1.73327e-05
1.29914e-05
1.21796e-05
1.21199e-05
1.22033e-05
1.22254e-05
1.21096e-05
5.00106e-05
1.74583e-05
1.30727e-05
1.22538e-05
1.21978e-05
1.22879e-05
1.23159e-05
1.22021e-05
5.0411e-05
1.76057e-05
1.31819e-05
1.23644e-05
1.23203e-05
1.24243e-05
1.24636e-05
1.23549e-05
5.08924e-05
1.77717e-05
1.33171e-05
1.25099e-05
1.24857e-05
1.26104e-05
1.26661e-05
1.25651e-05
5.14346e-05
1.79622e-05
1.34778e-05
1.26864e-05
1.26882e-05
1.28395e-05
1.29164e-05
1.28259e-05
5.20168e-05
1.81557e-05
1.36523e-05
1.28843e-05
1.2918e-05
1.31005e-05
1.32022e-05
1.31244e-05
5.2618e-05
1.83577e-05
1.3841e-05
1.31011e-05
1.31708e-05
1.33879e-05
1.3517e-05
1.34529e-05
5.00922e-05
1.76599e-05
1.34236e-05
1.27285e-05
1.27867e-05
1.29796e-05
1.30896e-05
1.30213e-05
5.04173e-05
1.77985e-05
1.35254e-05
1.28298e-05
1.28977e-05
1.31024e-05
1.32219e-05
1.31576e-05
5.08541e-05
1.79734e-05
1.36714e-05
1.29871e-05
1.30765e-05
1.33038e-05
1.34414e-05
1.33863e-05
5.13979e-05
1.81816e-05
1.38595e-05
1.31982e-05
1.33204e-05
1.35801e-05
1.37438e-05
1.37022e-05
5.20228e-05
1.84208e-05
1.40843e-05
1.34553e-05
1.36197e-05
1.39208e-05
1.41176e-05
1.4094e-05
5.27048e-05
1.86741e-05
1.43349e-05
1.37472e-05
1.39611e-05
1.431e-05
1.45451e-05
1.45426e-05
5.34268e-05
1.89438e-05
1.46086e-05
1.40684e-05
1.43369e-05
1.47381e-05
1.50148e-05
1.50346e-05
5.07025e-05
1.81548e-05
1.4078e-05
1.35599e-05
1.3799e-05
1.41642e-05
1.44178e-05
1.44373e-05
5.10496e-05
1.83145e-05
1.42091e-05
1.36989e-05
1.39555e-05
1.43386e-05
1.46062e-05
1.4632e-05
5.15409e-05
1.85304e-05
1.44074e-05
1.39209e-05
1.42111e-05
1.46278e-05
1.49223e-05
1.49626e-05
5.21729e-05
1.87982e-05
1.46696e-05
1.4223e-05
1.45627e-05
1.50274e-05
1.53602e-05
1.54217e-05
5.29114e-05
1.91114e-05
1.49871e-05
1.45931e-05
1.49953e-05
1.55203e-05
1.59018e-05
1.59909e-05
5.37362e-05
1.9454e-05
1.53479e-05
1.50154e-05
1.54897e-05
1.60837e-05
1.65208e-05
1.66418e-05
5.46287e-05
1.9828e-05
1.57455e-05
1.54805e-05
1.60336e-05
1.67024e-05
1.71985e-05
1.73521e-05
5.16328e-05
1.89002e-05
1.5057e-05
1.47957e-05
1.53059e-05
1.59343e-05
1.64135e-05
1.65822e-05
5.20159e-05
1.90906e-05
1.52289e-05
1.49866e-05
1.55227e-05
1.6176e-05
1.66739e-05
1.68511e-05
5.2587e-05
1.93647e-05
1.54984e-05
1.52951e-05
1.58796e-05
1.65793e-05
1.7114e-05
1.73115e-05
5.33415e-05
1.97186e-05
1.58643e-05
1.57198e-05
1.63742e-05
1.71405e-05
1.77281e-05
1.79555e-05
5.42445e-05
2.01419e-05
1.63113e-05
1.62415e-05
1.69834e-05
1.78331e-05
1.84874e-05
1.87534e-05
5.52728e-05
2.06226e-05
1.68215e-05
1.68378e-05
1.76793e-05
1.86235e-05
1.93533e-05
1.96635e-05
5.64092e-05
2.1163e-05
1.73846e-05
1.74945e-05
1.84441e-05
1.94892e-05
2.02977e-05
2.06514e-05
5.30481e-05
2.00314e-05
1.64943e-05
1.66012e-05
1.75086e-05
1.85275e-05
1.93476e-05
1.97542e-05
5.34866e-05
2.02603e-05
1.67238e-05
1.686e-05
1.78022e-05
1.88528e-05
1.96955e-05
2.01115e-05
5.41691e-05
2.06147e-05
1.70892e-05
1.72807e-05
1.82874e-05
1.93981e-05
2.02873e-05
2.07283e-05
5.51015e-05
2.10951e-05
1.75919e-05
1.7864e-05
1.89635e-05
2.01612e-05
2.11182e-05
2.15971e-05
5.62407e-05
2.16825e-05
1.82089e-05
1.85816e-05
1.97969e-05
2.11029e-05
2.21454e-05
2.26736e-05
5.75535e-05
2.23548e-05
1.89143e-05
1.94012e-05
2.07471e-05
2.21751e-05
2.33134e-05
2.38976e-05
5.90158e-05
2.30987e-05
1.96924e-05
2.03029e-05
2.1789e-05
2.33454e-05
2.45816e-05
2.52187e-05
5.51875e-05
2.17099e-05
1.85714e-05
1.91967e-05
2.06722e-05
2.22541e-05
2.35709e-05
2.43366e-05
5.57171e-05
2.20064e-05
1.88766e-05
1.95406e-05
2.1059e-05
2.26776e-05
2.40185e-05
2.4792e-05
5.65594e-05
2.2474e-05
1.93654e-05
2.01006e-05
2.16989e-05
2.33895e-05
2.47835e-05
2.55829e-05
5.77382e-05
2.31187e-05
2.00422e-05
2.08798e-05
2.25938e-05
2.439e-05
2.58638e-05
2.67059e-05
5.91968e-05
2.39107e-05
2.08742e-05
2.18391e-05
2.36969e-05
2.5625e-05
2.72001e-05
2.80989e-05
6.08899e-05
2.48184e-05
2.18247e-05
2.29324e-05
2.49512e-05
2.70265e-05
2.87146e-05
2.96778e-05
6.27952e-05
2.58246e-05
2.28725e-05
2.4133e-05
2.63227e-05
2.85507e-05
3.03512e-05
3.13725e-05
5.83981e-05
2.41424e-05
2.15271e-05
2.28677e-05
2.51354e-05
2.7505e-05
2.95208e-05
3.08035e-05
5.90597e-05
2.45312e-05
2.19279e-05
2.33141e-05
2.56296e-05
2.80367e-05
3.00734e-05
3.13571e-05
6.01252e-05
2.5146e-05
2.25677e-05
2.40372e-05
2.64436e-05
2.89288e-05
3.1018e-05
3.23226e-05
6.16384e-05
2.59989e-05
2.34554e-05
2.50451e-05
2.75848e-05
3.01874e-05
3.23607e-05
3.37055e-05
6.35284e-05
2.70496e-05
2.45473e-05
2.62857e-05
2.89914e-05
3.1742e-05
3.40245e-05
3.54268e-05
6.57356e-05
2.82546e-05
2.57924e-05
2.76958e-05
3.05858e-05
3.35007e-05
3.59049e-05
3.73733e-05
6.82401e-05
2.95924e-05
2.71635e-05
2.9241e-05
3.23243e-05
3.54069e-05
3.79292e-05
3.94539e-05
5.1171e-05
1.71502e-05
1.24568e-05
1.14181e-05
1.11628e-05
1.10811e-05
1.09883e-05
1.08379e-05
5.08623e-05
1.70145e-05
1.2401e-05
1.13955e-05
1.11552e-05
1.10806e-05
1.09927e-05
1.08505e-05
5.0523e-05
1.69173e-05
1.23703e-05
1.1397e-05
1.11802e-05
1.11262e-05
1.10576e-05
1.09337e-05
5.03327e-05
1.6761e-05
1.23237e-05
1.14052e-05
1.12244e-05
1.12012e-05
1.11692e-05
1.11011e-05
4.96363e-05
1.67723e-05
1.22927e-05
1.13246e-05
1.11021e-05
1.10392e-05
1.09605e-05
1.08253e-05
4.93134e-05
1.67063e-05
1.22435e-05
1.12696e-05
1.10372e-05
1.09644e-05
1.08777e-05
1.07384e-05
4.89738e-05
1.67133e-05
1.22529e-05
1.12722e-05
1.10369e-05
1.09632e-05
1.08747e-05
1.07285e-05
5.10654e-05
1.7166e-05
1.24803e-05
1.14458e-05
1.11947e-05
1.11166e-05
1.10254e-05
1.08733e-05
5.07266e-05
1.7037e-05
1.24233e-05
1.14155e-05
1.11748e-05
1.11002e-05
1.10112e-05
1.08647e-05
5.03419e-05
1.69421e-05
1.23846e-05
1.13982e-05
1.11703e-05
1.11059e-05
1.10263e-05
1.08887e-05
5.00825e-05
1.6789e-05
1.23202e-05
1.13724e-05
1.11657e-05
1.11168e-05
1.10555e-05
1.0949e-05
4.95024e-05
1.67896e-05
1.23026e-05
1.13253e-05
1.10952e-05
1.10254e-05
1.09397e-05
1.07962e-05
4.92079e-05
1.67189e-05
1.22605e-05
1.12877e-05
1.10565e-05
1.09846e-05
1.08974e-05
1.07549e-05
4.88842e-05
1.67113e-05
1.22607e-05
1.12842e-05
1.10516e-05
1.09796e-05
1.08915e-05
1.07443e-05
5.10839e-05
1.72146e-05
1.25363e-05
1.15118e-05
1.12711e-05
1.1202e-05
1.1116e-05
1.09627e-05
5.07192e-05
1.70893e-05
1.24762e-05
1.14728e-05
1.12383e-05
1.11696e-05
1.10833e-05
1.09336e-05
5.03013e-05
1.69925e-05
1.24299e-05
1.14414e-05
1.12135e-05
1.11489e-05
1.10664e-05
1.09209e-05
4.99931e-05
1.68454e-05
1.23576e-05
1.13974e-05
1.1182e-05
1.11245e-05
1.10508e-05
1.09234e-05
4.94727e-05
1.68255e-05
1.23367e-05
1.13594e-05
1.11303e-05
1.10612e-05
1.0974e-05
1.08252e-05
4.91837e-05
1.67479e-05
1.22937e-05
1.13251e-05
1.10984e-05
1.10298e-05
1.09435e-05