/*--------------------------------*- C++ -*----------------------------------*\
| =========                 |                                                 |
| \\      /  F ield         | OpenFOAM: The Open Source CFD Toolbox           |
|  \\    /   O peration     | Version:  plus.master.MPPICInterFoam            |
|   \\  /    A nd           | Web:      www.OpenFOAM.com                      |
|    \\/     M anipulation  |                                                 |
\*---------------------------------------------------------------------------*/
FoamFile
{
    version     2.0;
    format      ascii;
    class       volScalarField;
    location    "8";
    object      nut;
}
// * * * * * * * * * * * * * * * * * * * * * * * * * * * * * * * * * * * * * //

dimensions      [0 2 -1 0 0 0 0];

internalField   nonuniform List<scalar> 
11821
(
4.18485e-06
1.37819e-05
2.63017e-05
3.52936e-05
4.07915e-05
4.35942e-05
4.42056e-05
4.28129e-05
4.19091e-06
1.36906e-05
2.6187e-05
3.52e-05
4.07191e-05
4.35362e-05
4.41576e-05
4.27744e-05
4.19441e-06
1.36568e-05
2.61442e-05
3.51635e-05
4.06866e-05
4.35035e-05
4.41225e-05
4.27376e-05
4.19491e-06
1.36662e-05
2.6158e-05
3.51743e-05
4.069e-05
4.3498e-05
4.41087e-05
4.27178e-05
4.19202e-06
1.37521e-05
2.62693e-05
3.5265e-05
4.07531e-05
4.35362e-05
4.41263e-05
4.27185e-05
4.1856e-06
1.39125e-05
2.6477e-05
3.54344e-05
4.08743e-05
4.36169e-05
4.41752e-05
4.27423e-05
4.17607e-06
1.42137e-05
2.68553e-05
3.57366e-05
4.10882e-05
4.37576e-05
4.42566e-05
4.27724e-05
4.18156e-06
1.38523e-05
2.63779e-05
3.53217e-05
4.07524e-05
4.34857e-05
4.4037e-05
4.26048e-05
4.1878e-06
1.37911e-05
2.63018e-05
3.52557e-05
4.06918e-05
4.34242e-05
4.39723e-05
4.25396e-05
4.19144e-06
1.37783e-05
2.62855e-05
3.52369e-05
4.06651e-05
4.33856e-05
4.39215e-05
4.24798e-05
4.19206e-06
1.38008e-05
2.63146e-05
3.52569e-05
4.06698e-05
4.33739e-05
4.38951e-05
4.24427e-05
4.18926e-06
1.38851e-05
2.64212e-05
3.53411e-05
4.07258e-05
4.34049e-05
4.39053e-05
4.24359e-05
4.18292e-06
1.4025e-05
2.65989e-05
3.54851e-05
4.08301e-05
4.34772e-05
4.39531e-05
4.24641e-05
4.17346e-06
1.42744e-05
2.69072e-05
3.57311e-05
4.10083e-05
4.36018e-05
4.40354e-05
4.25086e-05
4.18042e-06
1.39379e-05
2.64691e-05
3.5343e-05
4.06753e-05
4.33065e-05
4.37689e-05
4.22783e-05
4.18708e-06
1.3906e-05
2.64295e-05
3.53004e-05
4.06202e-05
4.32326e-05
4.36766e-05
4.21744e-05
4.19117e-06
1.39139e-05
2.64381e-05
3.52961e-05
4.05935e-05
4.318e-05
4.35999e-05
4.20803e-05
4.19216e-06
1.39488e-05
2.64811e-05
3.53226e-05
4.05955e-05
4.31569e-05
4.35546e-05
4.20189e-05
4.18961e-06
1.40305e-05
2.65819e-05
3.53996e-05
4.06436e-05
4.31795e-05
4.35561e-05
4.20035e-05
4.18345e-06
1.41504e-05
2.67315e-05
3.5521e-05
4.07345e-05
4.32474e-05
4.36071e-05
4.20404e-05
4.17413e-06
1.43524e-05
2.69775e-05
3.57194e-05
4.08861e-05
4.33655e-05
4.37004e-05
4.21101e-05
4.18156e-06
1.40445e-05
2.65776e-05
3.53488e-05
4.05387e-05
4.30225e-05
4.33573e-05
4.17835e-05
4.18895e-06
1.4042e-05
2.65728e-05
3.53247e-05
4.04803e-05
4.29245e-05
4.32233e-05
4.16257e-05
4.19377e-06
1.40711e-05
2.66052e-05
3.53308e-05
4.04464e-05
4.28478e-05
4.31085e-05
4.14842e-05
4.19535e-06
1.41183e-05
2.66606e-05
3.53605e-05
4.04405e-05
4.28061e-05
4.3036e-05
4.13897e-05
4.19319e-06
1.41967e-05
2.67545e-05
3.54288e-05
4.0479e-05
4.28181e-05
4.30263e-05
4.13632e-05
4.18723e-06
1.42969e-05
2.68773e-05
3.553e-05
4.05593e-05
4.2885e-05
4.30844e-05
4.14131e-05
4.178e-06
1.44548e-05
2.7067e-05
3.5688e-05
4.06923e-05
4.30053e-05
4.31979e-05
4.15173e-05
4.18537e-06
1.41827e-05
2.67106e-05
3.53329e-05
4.03209e-05
4.25986e-05
4.27572e-05
4.10699e-05
4.19384e-06
1.42111e-05
2.67394e-05
3.53218e-05
4.02499e-05
4.24641e-05
4.25675e-05
4.08441e-05
4.19972e-06
1.4263e-05
2.6795e-05
3.53336e-05
4.02005e-05
4.23524e-05
4.24025e-05
4.06429e-05
4.20212e-06
1.43231e-05
2.68615e-05
3.53626e-05
4.01806e-05
4.22846e-05
4.22944e-05
4.05073e-05
4.20046e-06
1.4398e-05
2.69475e-05
3.54206e-05
4.02067e-05
4.22828e-05
4.22702e-05
4.04669e-05
4.19467e-06
1.44784e-05
2.7044e-05
3.55028e-05
4.02784e-05
4.23509e-05
4.23375e-05
4.05318e-05
4.18537e-06
1.45945e-05
2.71819e-05
3.56261e-05
4.03991e-05
4.24801e-05
4.24778e-05
4.06771e-05
4.19248e-06
1.43695e-05
2.68817e-05
3.52944e-05
4.00077e-05
4.20119e-05
4.19412e-05
4.01091e-05
4.20249e-06
1.44317e-05
2.6944e-05
3.52917e-05
3.99165e-05
4.18322e-05
4.16881e-05
3.98097e-05
4.20981e-06
1.45093e-05
2.70223e-05
3.53052e-05
3.98448e-05
4.16783e-05
4.14668e-05
3.95452e-05
4.21332e-06
1.45836e-05
2.70991e-05
3.53293e-05
3.98058e-05
4.15789e-05
4.13188e-05
3.93664e-05
4.21229e-06
1.46552e-05
2.71752e-05
3.53754e-05
3.98166e-05
4.15601e-05
4.12775e-05
3.93102e-05
4.20658e-06
1.4715e-05
2.72459e-05
3.54381e-05
3.98795e-05
4.1629e-05
4.13528e-05
3.9388e-05
4.19699e-06
1.47905e-05
2.73283e-05
3.5527e-05
3.99932e-05
4.17737e-05
4.15242e-05
3.95738e-05
4.20394e-06
1.46283e-05
2.71126e-05
3.52463e-05
3.96081e-05
4.12747e-05
4.09299e-05
3.89305e-05
4.21604e-06
1.47292e-05
2.72101e-05
3.52501e-05
3.9496e-05
4.10526e-05
4.06227e-05
3.8573e-05
4.22532e-06
1.48368e-05
2.73116e-05
3.52637e-05
3.94008e-05
4.08603e-05
4.03553e-05
3.82609e-05
4.23033e-06
1.49271e-05
2.73978e-05
3.52793e-05
3.9341e-05
4.07331e-05
4.01764e-05
3.80512e-05
4.23007e-06
1.49958e-05
2.74591e-05
3.5308e-05
3.93361e-05
4.06995e-05
4.01211e-05
3.79826e-05
4.22431e-06
1.50327e-05
2.74958e-05
3.53507e-05
3.93908e-05
4.07674e-05
4.01991e-05
3.80648e-05
4.21411e-06
1.5052e-05
2.75262e-05
3.54143e-05
3.95012e-05
4.09238e-05
4.0391e-05
3.8275e-05
4.22129e-06
1.49911e-05
2.74381e-05
3.52261e-05
3.91745e-05
4.04653e-05
3.98317e-05
3.76642e-05
4.23625e-06
1.51376e-05
2.75744e-05
3.52392e-05
3.90542e-05
4.02292e-05
3.95114e-05
3.72982e-05
4.24824e-06
1.52802e-05
2.76926e-05
3.52539e-05
3.89525e-05
4.00272e-05
3.92374e-05
3.69855e-05
4.25529e-06
1.5382e-05
2.77785e-05
3.52682e-05
3.88866e-05
3.98931e-05
3.90551e-05
3.67777e-05
4.256e-06
1.54342e-05
2.78275e-05
3.52869e-05
3.88722e-05
3.98512e-05
3.89938e-05
3.67059e-05
4.24994e-06
1.54395e-05
2.78378e-05
3.53114e-05
3.89142e-05
3.99081e-05
3.90601e-05
3.67752e-05
4.23839e-06
1.54149e-05
2.78253e-05
3.5348e-05
3.90097e-05
4.00544e-05
3.9241e-05
3.69714e-05
4.24684e-06
1.54988e-05
2.79025e-05
3.53036e-05
3.88302e-05
3.97623e-05
3.88711e-05
3.65636e-05
4.26577e-06
1.5692e-05
2.80716e-05
3.53506e-05
3.87447e-05
3.95709e-05
3.86117e-05
3.62733e-05
4.28151e-06
1.58515e-05
2.82212e-05
3.53947e-05
3.8675e-05
3.94122e-05
3.83973e-05
3.60347e-05
4.29114e-06
1.59623e-05
2.83257e-05
3.54264e-05
3.86292e-05
3.93073e-05
3.82565e-05
3.58795e-05
4.29281e-06
1.60117e-05
2.83721e-05
3.54425e-05
3.86139e-05
3.92679e-05
3.82026e-05
3.58196e-05
4.28598e-06
1.5995e-05
2.8357e-05
3.54434e-05
3.86315e-05
3.92968e-05
3.82362e-05
3.5853e-05
4.27231e-06
1.59296e-05
2.82975e-05
3.54384e-05
3.86848e-05
3.93932e-05
3.83559e-05
3.59789e-05
4.28402e-06
1.61772e-05
2.85707e-05
3.56223e-05
3.87821e-05
3.9432e-05
3.8363e-05
3.59709e-05
4.30833e-06
1.64061e-05
2.88061e-05
3.57473e-05
3.87949e-05
3.93681e-05
3.8261e-05
3.58595e-05
4.32872e-06
1.66087e-05
2.90141e-05
3.58598e-05
3.88129e-05
3.93244e-05
3.81895e-05
3.57835e-05
4.34151e-06
1.67485e-05
2.91555e-05
3.5935e-05
3.88249e-05
3.92967e-05
3.81455e-05
3.57389e-05
4.34425e-06
1.68023e-05
2.92066e-05
3.59575e-05
3.88204e-05
3.92751e-05
3.81164e-05
3.57096e-05
4.3362e-06
1.67633e-05
2.9162e-05
3.59245e-05
3.87975e-05
3.92555e-05
3.80948e-05
3.56842e-05
4.31949e-06
1.66514e-05
2.90425e-05
3.58517e-05
3.87688e-05
3.92507e-05
3.80953e-05
3.56797e-05
4.33729e-06
1.70657e-05
2.95692e-05
3.63714e-05
3.92871e-05
3.9786e-05
3.86514e-05
3.62398e-05
4.36833e-06
1.73656e-05
2.99077e-05
3.66306e-05
3.94748e-05
3.99406e-05
3.88047e-05
3.64041e-05
4.39472e-06
1.76306e-05
3.02044e-05
3.68593e-05
3.96458e-05
4.00889e-05
3.89574e-05
3.65703e-05
4.41155e-06
1.78099e-05
3.04022e-05
3.701e-05
3.97585e-05
4.01886e-05
3.90627e-05
3.66872e-05
4.41559e-06
1.7872e-05
3.04649e-05
3.70494e-05
3.97793e-05
4.02015e-05
3.90764e-05
3.6706e-05
4.40577e-06
1.78081e-05
3.03839e-05
3.69698e-05
3.96991e-05
4.01152e-05
3.89818e-05
3.66062e-05
4.38485e-06
1.76414e-05
3.01856e-05
3.67965e-05
3.95438e-05
3.99585e-05
3.88114e-05
3.64228e-05
4.41209e-06
1.82519e-05
3.10365e-05
3.77601e-05
4.06096e-05
4.11168e-05
4.00316e-05
3.76501e-05
4.45179e-06
1.86417e-05
3.15155e-05
3.82125e-05
4.1046e-05
4.1569e-05
4.05157e-05
3.81571e-05
4.48585e-06
1.89822e-05
3.19318e-05
3.8607e-05
4.14312e-05
4.19735e-05
4.09532e-05
3.86186e-05
4.50779e-06
1.92092e-05
3.22063e-05
3.88655e-05
4.16842e-05
4.22414e-05
4.12455e-05
3.89292e-05
4.51342e-06
1.92827e-05
3.22879e-05
3.89333e-05
4.17442e-05
4.23038e-05
4.13162e-05
3.90087e-05
4.50121e-06
1.91915e-05
3.21632e-05
3.87958e-05
4.15941e-05
4.21393e-05
4.114e-05
3.88288e-05
4.47469e-06
1.89624e-05
3.18664e-05
3.84899e-05
4.12742e-05
4.1793e-05
4.07662e-05
3.84406e-05
4.51543e-06
1.98003e-05
3.3107e-05
3.99819e-05
4.29688e-05
4.36383e-05
4.26919e-05
4.03569e-05
4.56598e-06
2.02914e-05
3.37593e-05
4.0677e-05
4.37083e-05
4.4437e-05
4.35443e-05
4.12316e-05
4.60966e-06
2.07163e-05
3.43218e-05
4.12772e-05
4.43505e-05
4.51354e-05
4.42945e-05
4.20059e-05
4.63797e-06
2.09962e-05
3.46904e-05
4.16691e-05
4.47706e-05
4.55941e-05
4.47895e-05
4.25192e-05
4.64554e-06
2.10837e-05
3.47977e-05
4.17752e-05
4.48807e-05
4.57158e-05
4.4925e-05
4.2665e-05
4.63019e-06
2.09642e-05
3.46247e-05
4.15734e-05
4.46554e-05
4.54711e-05
4.46689e-05
4.24095e-05
4.59664e-06
2.0669e-05
3.42142e-05
4.11126e-05
4.4149e-05
4.49194e-05
4.40838e-05
4.18162e-05
4.65548e-06
2.17566e-05
3.58895e-05
4.31774e-05
4.6498e-05
4.74519e-05
4.66923e-05
4.43834e-05
4.71929e-06
2.23518e-05
3.67348e-05
4.41419e-05
4.75621e-05
4.86057e-05
4.7907e-05
4.56078e-05
4.77492e-06
2.28625e-05
3.74586e-05
4.49678e-05
4.84761e-05
4.96019e-05
4.89619e-05
4.66777e-05
4.81119e-06
2.3196e-05
3.79305e-05
4.55049e-05
4.9071e-05
5.02519e-05
4.96525e-05
4.73807e-05
4.82116e-06
2.32987e-05
3.80684e-05
4.56555e-05
4.92366e-05
5.04361e-05
4.98536e-05
4.75914e-05
4.8018e-06
2.31532e-05
3.78475e-05
4.53904e-05
4.89402e-05
5.01189e-05
4.9528e-05
4.72725e-05
4.75938e-06
2.27937e-05
3.73177e-05
4.47683e-05
4.82466e-05
4.93694e-05
4.87473e-05
4.64948e-05
4.1007e-06
1.48147e-05
2.75361e-05
3.62348e-05
4.14107e-05
4.39594e-05
4.4384e-05
4.28521e-05
4.10032e-06
1.50523e-05
2.7834e-05
3.64691e-05
4.15502e-05
4.40025e-05
4.43343e-05
4.27177e-05
4.10302e-06
1.51301e-05
2.8e-05
3.6661e-05
4.17469e-05
4.11509e-06
1.57445e-05
4.10972e-06
4.09808e-06
1.47818e-05
2.74767e-05
3.61632e-05
4.13316e-05
4.38733e-05
4.42923e-05
4.27598e-05
4.09655e-06
1.49602e-05
2.76958e-05
3.63303e-05
4.14247e-05
4.38924e-05
4.42415e-05
4.26468e-05
4.09792e-06
1.498e-05
2.77609e-05
3.64117e-05
4.15094e-05
4.39767e-05
4.43216e-05
4.27226e-05
4.10506e-06
1.53898e-05
2.82854e-05
3.68482e-05
4.18007e-05
4.41022e-05
4.42694e-05
4.24822e-05
4.10303e-06
1.49993e-05
2.77843e-05
3.64308e-05
4.15233e-05
4.39863e-05
4.43311e-05
4.27316e-05
4.10549e-06
1.48703e-05
2.76056e-05
3.62763e-05
4.14129e-05
4.39183e-05
4.42975e-05
4.2723e-05
4.10944e-06
1.46191e-05
2.72892e-05
3.60297e-05
4.12701e-05
4.388e-05
4.4356e-05
4.28659e-05
4.0975e-06
1.47551e-05
2.74266e-05
3.60924e-05
4.12384e-05
4.37561e-05
4.41538e-05
4.26107e-05
4.09519e-06
1.48865e-05
2.75857e-05
3.6211e-05
4.13011e-05
4.37634e-05
4.41095e-05
4.25208e-05
4.09563e-06
1.48805e-05
2.76019e-05
3.62379e-05
4.1332e-05
4.37969e-05
4.41464e-05
4.2562e-05
4.09988e-06
1.51516e-05
2.79471e-05
3.65213e-05
4.15166e-05
4.38705e-05
4.41003e-05
4.23915e-05
4.09936e-06
1.48743e-05
2.75967e-05
3.62372e-05
4.13385e-05
4.38115e-05
4.41686e-05
4.25897e-05
4.10225e-06
1.47865e-05
2.74796e-05
3.61425e-05
4.12797e-05
4.3786e-05
4.41684e-05
4.26054e-05
4.10641e-06
1.45832e-05
2.72272e-05
3.59498e-05
4.11722e-05
4.37627e-05
4.42219e-05
4.27242e-05
4.09851e-06
1.47385e-05
2.73859e-05
3.6014e-05
4.11127e-05
4.35795e-05
4.39325e-05
4.23637e-05
4.09571e-06
1.48329e-05
2.74983e-05
3.60952e-05
4.11524e-05
4.35783e-05
4.38934e-05
4.22914e-05
4.09539e-06
1.48173e-05
2.74923e-05
3.60962e-05
4.11578e-05
4.35882e-05
4.39091e-05
4.23144e-05
4.09787e-06
1.49939e-05
2.77166e-05
3.62788e-05
4.12748e-05
4.36326e-05
4.3876e-05
4.22017e-05
4.09794e-06
1.47934e-05
2.74674e-05
3.60828e-05
4.11608e-05
4.36086e-05
4.39451e-05
4.23618e-05
4.10084e-06
1.47279e-05
2.73841e-05
3.60213e-05
4.1131e-05
4.36077e-05
4.39657e-05
4.23948e-05
4.10501e-06
1.45576e-05
2.7177e-05
3.58673e-05
4.10489e-05
4.35948e-05
4.40142e-05
4.24939e-05
4.10105e-06
1.47387e-05
2.73574e-05
3.59206e-05
4.09346e-05
4.33112e-05
4.35851e-05
4.19685e-05
4.09795e-06
1.48047e-05
2.74341e-05
3.5973e-05
4.09558e-05
4.3302e-05
4.35476e-05
4.19067e-05
4.09698e-06
1.47869e-05
2.74191e-05
3.59621e-05
4.09486e-05
4.32991e-05
4.35501e-05
4.19158e-05
4.09828e-06
1.48991e-05
2.75617e-05
3.60782e-05
4.10239e-05
4.33299e-05
4.35339e-05
4.18516e-05
4.09846e-06
1.47514e-05
2.73821e-05
3.59433e-05
4.09551e-05
4.33318e-05
4.36064e-05
4.19895e-05
4.10113e-06
1.46972e-05
2.73173e-05
3.59015e-05
4.09444e-05
4.33497e-05
4.36459e-05
4.20418e-05
4.10526e-06
1.45458e-05
2.71406e-05
3.5776e-05
4.08829e-05
4.3347e-05
4.36936e-05
4.21296e-05
4.10536e-06
1.47653e-05
2.73475e-05
3.58062e-05
4.06831e-05
4.29157e-05
4.30637e-05
4.1369e-05
4.10202e-06
1.48101e-05
2.73972e-05
3.5836e-05
4.06885e-05
4.28971e-05
4.30227e-05
4.13089e-05
4.1005e-06
1.47931e-05
2.73794e-05
3.582e-05
4.06748e-05
4.28861e-05
4.3015e-05
4.13052e-05
4.10096e-06
1.48613e-05
2.7467e-05
3.58929e-05
4.07254e-05
4.2913e-05
4.30169e-05
4.12815e-05
4.10099e-06
1.47502e-05
2.73364e-05
3.58026e-05
4.0692e-05
4.2939e-05
4.30998e-05
4.14136e-05
4.1033e-06
1.47012e-05
2.72822e-05
3.57747e-05
4.06976e-05
4.29758e-05
4.31613e-05
4.14906e-05
4.10737e-06
1.45593e-05
2.71259e-05
3.56721e-05
4.0655e-05
4.29857e-05
4.32146e-05
4.15766e-05
4.11195e-06
1.48323e-05
2.73673e-05
3.56685e-05
4.03409e-05
4.23623e-05
4.23277e-05
4.05181e-05
4.10834e-06
1.48608e-05
2.7396e-05
3.56796e-05
4.03311e-05
4.23316e-05
4.22769e-05
4.04503e-05
4.10635e-06
1.48454e-05
2.73777e-05
3.56613e-05
4.03132e-05
4.23139e-05
4.22592e-05
4.04327e-05
4.10615e-06
1.4884e-05
2.7429e-05
3.57073e-05
4.03511e-05
4.23435e-05
4.22798e-05
4.04434e-05
4.10591e-06
1.47984e-05
2.73339e-05
3.56517e-05
4.03485e-05
4.23948e-05
4.23807e-05
4.05838e-05
4.10778e-06
1.47518e-05
2.72873e-05
3.56362e-05
4.03711e-05
4.24533e-05
4.24684e-05
4.06909e-05
4.11168e-06
1.46174e-05
2.71508e-05
3.5557e-05
4.03491e-05
4.2479e-05
4.25329e-05
4.07835e-05
4.12158e-06
1.49584e-05
2.74343e-05
3.55142e-05
3.99049e-05
4.16427e-05
4.13676e-05
3.94065e-05
4.11764e-06
1.4974e-05
2.74455e-05
3.55085e-05
3.98793e-05
4.15962e-05
4.13004e-05
3.93222e-05
4.11524e-06
1.49598e-05
2.74273e-05
3.54885e-05
3.98574e-05
4.15715e-05
4.12719e-05
3.92896e-05
4.11449e-06
1.49784e-05
2.74553e-05
3.55192e-05
3.98909e-05
4.1608e-05
4.13105e-05
3.93286e-05
4.11392e-06
1.49108e-05
2.7387e-05
3.54922e-05
3.99164e-05
4.16857e-05
4.14342e-05
3.94861e-05
4.11532e-06
1.48661e-05
2.73477e-05
3.54896e-05
3.99572e-05
4.17674e-05
4.15496e-05
3.96242e-05
4.11892e-06
1.4742e-05
2.72363e-05
3.54365e-05
3.99566e-05
4.18106e-05
4.16281e-05
3.97276e-05
4.13542e-06
1.51689e-05
2.75769e-05
3.53692e-05
3.94048e-05
4.07981e-05
4.02406e-05
3.81054e-05
4.13103e-06
1.51729e-05
2.75722e-05
3.53466e-05
3.9361e-05
4.07315e-05
4.01517e-05
3.79987e-05
4.12825e-06
1.51588e-05
2.75531e-05
3.53243e-05
3.93344e-05
4.06991e-05
4.01121e-05
3.79519e-05
4.12701e-06
1.51643e-05
2.75669e-05
3.53475e-05
3.93685e-05
4.07438e-05
4.01655e-05
3.8011e-05
4.12611e-06
1.51099e-05
2.75197e-05
3.53445e-05
3.94188e-05
4.08452e-05
4.03098e-05
3.81843e-05
4.12705e-06
1.50678e-05
2.74886e-05
3.53551e-05
3.94772e-05
4.09476e-05
4.04478e-05
3.83455e-05
4.13025e-06
1.49617e-05
2.74092e-05
3.53267e-05
3.94962e-05
4.10067e-05
4.05384e-05
3.84576e-05
4.15518e-06
1.54969e-05
2.784e-05
3.52921e-05
3.89248e-05
3.99487e-05
3.91062e-05
3.68051e-05
4.15019e-06
1.54893e-05
2.78188e-05
3.52507e-05
3.88599e-05
3.98592e-05
3.8994e-05
3.66764e-05
4.147e-06
1.54742e-05
2.77976e-05
3.52247e-05
3.88275e-05
3.98188e-05
3.89449e-05
3.66196e-05
4.14531e-06
1.54709e-05
2.78032e-05
3.52448e-05
3.88636e-05
3.98692e-05
3.90062e-05
3.66874e-05
4.14412e-06
1.54266e-05
2.77726e-05
3.52607e-05
3.8932e-05
3.99851e-05
3.9159e-05
3.68621e-05
4.14466e-06
1.53886e-05
2.775e-05
3.52827e-05
3.90027e-05
4.00983e-05
3.9304e-05
3.70255e-05
4.14742e-06
1.53129e-05
2.76988e-05
3.52751e-05
3.90368e-05
4.01671e-05
3.93988e-05
3.71364e-05
4.18342e-06
1.59859e-05
2.82913e-05
3.53869e-05
3.86212e-05
3.93109e-05
3.82373e-05
3.58185e-05
4.17757e-06
1.59654e-05
2.82515e-05
3.53239e-05
3.85328e-05
3.91985e-05
3.81062e-05
3.56775e-05
4.17388e-06
1.59475e-05
2.82265e-05
3.52926e-05
3.8494e-05
3.91519e-05
3.80528e-05
3.56193e-05
4.1718e-06
1.59386e-05
2.82275e-05
3.5311e-05
3.85299e-05
3.92017e-05
3.81114e-05
3.56817e-05
4.17039e-06
1.59019e-05
2.82089e-05
3.53384e-05
3.86047e-05
3.93152e-05
3.82505e-05
3.58315e-05
4.17064e-06
1.58687e-05
2.81936e-05
3.53665e-05
3.86766e-05
3.9421e-05
3.83769e-05
3.59655e-05
4.17312e-06
1.58254e-05
2.8165e-05
3.53741e-05
3.87185e-05
3.94892e-05
3.8462e-05
3.60579e-05
4.22386e-06
1.66904e-05
2.9027e-05
3.58106e-05
3.87231e-05
3.91838e-05
3.79879e-05
3.55305e-05
4.21676e-06
1.66545e-05
2.89655e-05
3.57229e-05
3.86109e-05
3.90536e-05
3.78497e-05
3.53954e-05
4.2124e-06
1.66323e-05
2.89349e-05
3.56852e-05
3.85665e-05
3.90048e-05
3.78002e-05
3.53486e-05
4.20998e-06
1.66197e-05
2.89326e-05
3.57003e-05
3.8597e-05
3.90453e-05
3.78447e-05
3.53919e-05
4.2085e-06
1.65889e-05
2.89213e-05
3.57295e-05
3.86625e-05
3.91343e-05
3.79425e-05
3.54859e-05
4.20869e-06
1.65603e-05
2.89101e-05
3.57553e-05
3.87199e-05
3.92091e-05
3.80201e-05
3.55552e-05
4.21133e-06
1.65349e-05
2.8898e-05
3.57718e-05
3.87605e-05
3.92638e-05
3.80785e-05
3.56094e-05
4.28175e-06
1.76761e-05
3.01731e-05
3.67668e-05
3.95092e-05
3.99022e-05
3.8723e-05
3.63104e-05
4.27282e-06
1.76218e-05
3.00863e-05
3.66524e-05
3.9376e-05
3.97638e-05
3.85944e-05
3.62035e-05
4.26752e-06
1.75937e-05
3.00484e-05
3.66079e-05
3.93286e-05
3.97197e-05
3.85597e-05
3.61818e-05
4.26482e-06
1.75789e-05
3.00428e-05
3.66166e-05
3.93475e-05
3.97425e-05
3.85806e-05
3.61969e-05
4.26353e-06
1.7553e-05
3.00337e-05
3.66367e-05
3.93869e-05
3.97855e-05
3.86131e-05
3.62104e-05
4.26403e-06
1.75292e-05
3.00231e-05
3.66502e-05
3.9413e-05
3.98069e-05
3.86157e-05
3.61876e-05
4.26731e-06
1.75174e-05
3.00237e-05
3.66704e-05
3.94439e-05
3.98364e-05
3.86334e-05
3.61881e-05
4.36413e-06
1.90169e-05
3.18786e-05
3.84833e-05
4.12628e-05
4.17732e-05
4.07435e-05
3.8433e-05
4.35256e-06
1.89413e-05
3.17632e-05
3.83421e-05
4.11144e-05
4.16391e-05
4.0642e-05
3.83741e-05
4.34595e-06
1.8906e-05
3.1717e-05
3.82916e-05
4.10682e-05
4.16073e-05
4.06324e-05
3.83893e-05
4.34309e-06
1.88903e-05
3.17077e-05
3.82909e-05
4.10712e-05
4.16082e-05
4.06266e-05
3.83747e-05
4.34239e-06
1.88695e-05
3.16968e-05
3.8293e-05
4.10719e-05
4.15913e-05
4.0581e-05
3.82978e-05
4.34377e-06
1.88518e-05
3.16842e-05
3.82864e-05
4.10546e-05
4.15454e-05
4.04955e-05
3.81721e-05
4.34837e-06
1.88542e-05
3.16969e-05
3.83076e-05
4.10712e-05
4.15436e-05
4.04663e-05
3.81133e-05
4.13976e-06
4.14862e-06
1.42435e-05
4.15851e-06
1.41033e-05
2.67033e-05
3.56154e-05
4.1027e-05
4.16802e-06
1.40286e-05
2.66103e-05
3.55417e-05
4.09743e-05
4.37275e-05
4.43016e-05
4.28756e-05
4.17704e-06
1.3878e-05
2.64245e-05
3.53945e-05
4.08688e-05
4.3655e-05
4.42558e-05
4.28551e-05
4.11655e-06
1.444e-05
2.7075e-05
3.58679e-05
4.11692e-05
4.38301e-05
4.43456e-05
4.28859e-05
4.1257e-06
1.43005e-05
2.69099e-05
3.57441e-05
4.10872e-05
4.37792e-05
4.43164e-05
4.28722e-05
4.13523e-06
1.42049e-05
2.68007e-05
3.56633e-05
4.10313e-05
4.37392e-05
4.42865e-05
4.28507e-05
4.14483e-06
1.42043e-05
2.6806e-05
3.56694e-05
4.10315e-05
4.37269e-05
4.4256e-05
4.27977e-05
4.15488e-06
1.40928e-05
2.66754e-05
3.55687e-05
4.09573e-05
4.36711e-05
4.42161e-05
4.27762e-05
4.16455e-06
1.40332e-05
2.66023e-05
3.55084e-05
4.09068e-05
4.36233e-05
4.41657e-05
4.27221e-05
4.17363e-06
1.39201e-05
2.64637e-05
3.53957e-05
4.0818e-05
4.35499e-05
4.41035e-05
4.26726e-05
4.11365e-06
1.44292e-05
2.7045e-05
3.58141e-05
4.1088e-05
4.37203e-05
4.42108e-05
4.27373e-05
4.12272e-06
1.42982e-05
2.68921e-05
3.57e-05
4.10113e-05
4.36702e-05
4.4179e-05
4.2719e-05
4.13235e-06
1.42086e-05
2.679e-05
3.56232e-05
4.09545e-05
4.3624e-05
4.41378e-05
4.26824e-05
4.14234e-06
1.41903e-05
2.67728e-05
3.56096e-05
4.09362e-05
4.35931e-05
4.40897e-05
4.26155e-05
4.15258e-06
1.4103e-05
2.66715e-05
3.55281e-05
4.08676e-05
4.3529e-05
4.40277e-05
4.256e-05
4.16259e-06
1.40586e-05
2.66177e-05
3.54792e-05
4.08157e-05
4.34665e-05
4.39515e-05
4.24729e-05
4.17203e-06
1.39787e-05
2.65205e-05
3.53946e-05
4.07363e-05
4.33836e-05
4.38634e-05
4.23846e-05
4.11222e-06
1.44216e-05
2.7018e-05
3.57505e-05
4.09765e-05
4.35569e-05
4.40016e-05
4.25008e-05
4.12113e-06
1.43031e-05
2.68805e-05
3.56472e-05
4.09039e-05
4.35043e-05
4.39617e-05
4.24706e-05
4.13084e-06
1.42238e-05
2.679e-05
3.55762e-05
4.0845e-05
4.34479e-05
4.39029e-05
4.24109e-05
4.14115e-06
1.41991e-05
2.67641e-05
3.55516e-05
4.08106e-05
4.3395e-05
4.38284e-05
4.23171e-05
4.15177e-06
1.41344e-05
2.66891e-05
3.5485e-05
4.07408e-05
4.33132e-05
4.37337e-05
4.2217e-05
4.16234e-06
1.41067e-05
2.66553e-05
3.54451e-05
4.0682e-05
4.32274e-05
4.36206e-05
4.2084e-05
4.17242e-06
1.40579e-05
2.65959e-05
3.53826e-05
4.0603e-05
4.31237e-05
4.34932e-05
4.19429e-05
4.11228e-06
1.44266e-05
2.70019e-05
3.56753e-05
4.08201e-05
4.33126e-05
4.36794e-05
4.21301e-05
4.12102e-06
1.4323e-05
2.68819e-05
3.5583e-05
4.07499e-05
4.32541e-05
4.36262e-05
4.20816e-05
4.13085e-06
1.42566e-05
2.68055e-05
3.55182e-05
4.06863e-05
4.31818e-05
4.3542e-05
4.19896e-05
4.14157e-06
1.42345e-05
2.67811e-05
3.54877e-05
4.06352e-05
4.31012e-05
4.3431e-05
4.1855e-05
4.15279e-06
1.41926e-05
2.67317e-05
3.54322e-05
4.05573e-05
4.29919e-05
4.32919e-05
4.16982e-05
4.16414e-06
1.41842e-05
2.67194e-05
3.5399e-05
4.04845e-05
4.28721e-05
4.31283e-05
4.15044e-05
4.17519e-06
1.4167e-05
2.66961e-05
3.53534e-05
4.03973e-05
4.2736e-05
4.29485e-05
4.12972e-05
4.11409e-06
1.44569e-05
2.70078e-05
3.5587e-05
4.06016e-05
4.2955e-05
4.31988e-05
4.15713e-05
4.1227e-06
1.43695e-05
2.69065e-05
3.55055e-05
4.05322e-05
4.28874e-05
4.31282e-05
4.14991e-05
4.13276e-06
1.43185e-05
2.68465e-05
3.54465e-05
4.04607e-05
4.27939e-05
4.30114e-05
4.13667e-05
4.14405e-06
1.43062e-05
2.68311e-05
3.54134e-05
4.03912e-05
4.26796e-05
4.28546e-05
4.11799e-05
4.15611e-06
1.42893e-05
2.68082e-05
3.53664e-05
4.02987e-05
4.25338e-05
4.2661e-05
4.09563e-05
4.16855e-06
1.4304e-05
2.682e-05
3.53379e-05
4.02062e-05
4.23714e-05
4.24371e-05
4.06916e-05
4.18091e-06
1.43208e-05
2.68333e-05
3.53055e-05
4.01037e-05
4.21943e-05
4.21964e-05
4.04111e-05
4.11811e-06
1.45297e-05
2.70513e-05
3.54863e-05
4.03051e-05
4.24529e-05
4.25171e-05
4.07739e-05
4.12669e-06
1.44592e-05
2.69693e-05
3.54156e-05
4.02356e-05
4.23752e-05
4.24278e-05
4.06767e-05
4.13714e-06
1.4426e-05
2.69281e-05
3.5363e-05
4.01549e-05
4.2258e-05
4.22759e-05
4.05018e-05
4.14925e-06
1.44304e-05
2.69286e-05
3.53302e-05
4.00667e-05
4.21079e-05
4.20706e-05
4.02598e-05
4.16248e-06
1.44422e-05
2.69352e-05
3.52913e-05
3.9957e-05
4.19227e-05
4.18211e-05
3.99703e-05
4.1764e-06
1.44858e-05
2.69757e-05
3.52686e-05
3.98438e-05
4.17172e-05
4.15385e-05
3.96389e-05
4.19042e-06
1.4541e-05
2.70277e-05
3.52482e-05
3.97244e-05
4.14998e-05
4.12419e-05
3.92947e-05
4.1251e-06
1.46672e-05
2.71536e-05
3.53808e-05
3.99242e-05
4.17911e-05
4.16146e-05
3.97173e-05
4.13379e-06
1.46144e-05
2.70921e-05
3.53222e-05
3.9857e-05
4.17069e-05
4.15123e-05
3.96018e-05
4.14487e-06
1.46023e-05
2.70733e-05
3.52789e-05
3.97705e-05
4.15715e-05
4.13336e-05
3.93952e-05
4.15813e-06
1.46303e-05
2.70972e-05
3.52521e-05
3.96694e-05
4.13937e-05
4.10917e-05
3.91132e-05
4.17298e-06
1.4677e-05
2.71391e-05
3.52261e-05
3.95492e-05
4.11808e-05
4.08043e-05
3.87818e-05
4.18883e-06
1.47575e-05
2.72155e-05
3.52155e-05
3.94244e-05
4.09477e-05
4.04863e-05
3.84141e-05
4.20509e-06
1.48574e-05
2.73112e-05
3.52126e-05
3.9299e-05
4.07094e-05
4.0164e-05
3.80453e-05
4.13625e-06
1.48988e-05
2.7345e-05
3.52922e-05
3.94778e-05
4.09956e-05
4.05306e-05
3.84516e-05
4.14523e-06
1.4865e-05
2.73067e-05
3.52504e-05
3.94216e-05
4.09164e-05
4.04298e-05
3.83364e-05
4.15726e-06
1.48782e-05
2.73162e-05
3.52242e-05
3.93418e-05
4.07816e-05
4.02501e-05
3.81294e-05
4.17216e-06
1.49382e-05
2.73736e-05
3.52158e-05
3.92458e-05
4.06028e-05
4.0008e-05
3.78511e-05
4.18917e-06
1.50278e-05
2.74598e-05
3.52157e-05
3.9136e-05
4.03954e-05
3.97288e-05
3.75331e-05
4.2076e-06
1.51554e-05
2.75832e-05
3.52326e-05
3.90257e-05
4.01769e-05
3.94329e-05
3.71962e-05
4.22697e-06
1.53086e-05
2.77327e-05
3.52608e-05
3.89245e-05
3.9968e-05
3.91509e-05
3.68786e-05
4.15335e-06
1.52622e-05
2.76667e-05
3.52623e-05
3.90343e-05
4.01696e-05
3.94037e-05
3.71426e-05
4.16286e-06
1.52498e-05
2.7659e-05
3.52512e-05
3.90025e-05
4.0115e-05
3.93311e-05
3.70594e-05
4.17629e-06
1.52945e-05
2.77064e-05
3.5259e-05
3.89547e-05
4.0017e-05
3.91971e-05
3.69064e-05
4.19347e-06
1.53962e-05
2.78108e-05
3.52889e-05
3.88984e-05
3.9888e-05
3.90189e-05
3.67042e-05
4.21338e-06
1.55385e-05
2.7955e-05
3.53366e-05
3.88421e-05
3.97482e-05
3.88255e-05
3.64868e-05
4.23543e-06
1.57258e-05
2.81338e-05
3.54081e-05
3.87994e-05
3.9617e-05
3.86398e-05
3.62781e-05
4.25906e-06
1.59413e-05
2.83387e-05
3.55044e-05
3.87821e-05
3.9516e-05
3.84919e-05
3.6114e-05
4.17914e-06
1.58018e-05
2.81611e-05
3.53847e-05
3.87376e-05
3.95132e-05
3.84887e-05
3.60853e-05
4.18952e-06
1.58178e-05
2.81991e-05
3.54148e-05
3.87518e-05
3.95138e-05
3.84813e-05
3.60746e-05
4.20495e-06
1.59017e-05
2.82998e-05
3.54802e-05
3.87744e-05
3.95046e-05
3.84552e-05
3.60431e-05
4.22519e-06
1.60553e-05
2.84644e-05
3.55836e-05
3.88117e-05
3.94956e-05
3.8423e-05
3.60048e-05
4.24918e-06
1.62599e-05
2.86787e-05
3.57226e-05
3.88734e-05
3.9506e-05
3.84106e-05
3.59888e-05
4.27621e-06
1.65054e-05
2.89386e-05
3.59012e-05
3.89709e-05
3.95529e-05
3.84374e-05
3.6014e-05
4.30571e-06
1.67714e-05
2.92365e-05
3.61206e-05
3.91138e-05
3.9653e-05
3.85262e-05
3.61077e-05
4.21777e-06
1.65439e-05
2.89231e-05
3.58109e-05
3.88092e-05
3.93185e-05
3.81357e-05
3.56652e-05
4.22946e-06
1.6605e-05
2.90105e-05
3.59005e-05
3.88973e-05
3.94085e-05
3.82308e-05
3.57642e-05
4.24756e-06
1.67387e-05
2.91799e-05
3.60561e-05
3.90375e-05
3.95456e-05
3.83746e-05
3.59158e-05
4.27206e-06
1.69466e-05
2.94317e-05
3.62786e-05
3.9232e-05
3.9732e-05
3.85688e-05
3.61205e-05
4.30166e-06
1.72105e-05
2.97513e-05
3.65636e-05
3.94853e-05
3.99786e-05
3.88274e-05
3.63928e-05
4.33529e-06
1.752e-05
3.01305e-05
3.69095e-05
3.98018e-05
4.02927e-05
3.91574e-05
3.67377e-05
4.37218e-06
1.78676e-05
3.05617e-05
3.73137e-05
4.0184e-05
4.06813e-05
3.95693e-05
3.71681e-05
4.27482e-06
1.75498e-05
3.00803e-05
3.6745e-05
3.95307e-05
3.99293e-05
3.87264e-05
3.62753e-05
4.28858e-06
1.76503e-05
3.02276e-05
3.69149e-05
3.97195e-05
4.01371e-05
3.89499e-05
3.65055e-05
4.31031e-06
1.78381e-05
3.04858e-05
3.7196e-05
4.00221e-05
4.04674e-05
3.93071e-05
3.68767e-05
4.34037e-06
1.81141e-05
3.0854e-05
3.75852e-05
4.04325e-05
4.09105e-05
3.9784e-05
3.73715e-05
4.37703e-06
1.84605e-05
3.13143e-05
3.80705e-05
4.09432e-05
4.14604e-05
4.03737e-05
3.79815e-05
4.41886e-06
1.88626e-05
3.18515e-05
3.86407e-05
4.15452e-05
4.21071e-05
4.10636e-05
3.86908e-05
4.46503e-06
1.9311e-05
3.24539e-05
3.92856e-05
4.22303e-05
4.28444e-05
4.1848e-05
3.94939e-05
4.35764e-06
1.89114e-05
3.17899e-05
3.84249e-05
4.12024e-05
4.16787e-05
4.05961e-05
3.82302e-05
4.3742e-06
1.9053e-05
3.2008e-05
3.86923e-05
4.15097e-05
4.20176e-05
4.09547e-05
3.85915e-05
4.40059e-06
1.93008e-05
3.23736e-05
3.9127e-05
4.20036e-05
4.25636e-05
4.1537e-05
3.91838e-05
4.43756e-06
1.96555e-05
3.28835e-05
3.97193e-05
4.26672e-05
4.32925e-05
4.23126e-05
3.99717e-05
4.48291e-06
2.00958e-05
3.35125e-05
4.04448e-05
4.34752e-05
4.41756e-05
4.32489e-05
4.09205e-05
4.53477e-06
2.06006e-05
3.42356e-05
4.12781e-05
4.43996e-05
4.51806e-05
4.43087e-05
4.19897e-05
4.59224e-06
2.11573e-05
3.50349e-05
4.21992e-05
4.54194e-05
4.62854e-05
4.54685e-05
4.31544e-05
4.16512e-06
1.45489e-05
2.72625e-05
3.60564e-05
4.1308e-05
4.38958e-05
4.43321e-05
4.27981e-05
4.15659e-06
1.48949e-05
2.77062e-05
3.6416e-05
4.15419e-05
4.40064e-05
4.43301e-05
4.26965e-05
4.14721e-06
1.50978e-05
2.79818e-05
3.66614e-05
4.17355e-05
4.41527e-05
4.44375e-05
4.27708e-05
4.14183e-06
1.55345e-05
2.85432e-05
3.71295e-05
4.20527e-05
4.42979e-05
4.43911e-05
4.25157e-05
4.12271e-06
1.50039e-05
2.78385e-05
3.65228e-05
4.16268e-05
4.40836e-05
4.44116e-05
4.27877e-05
4.11372e-06
1.49978e-05
2.77715e-05
3.642e-05
4.1512e-05
4.39698e-05
4.43056e-05
4.26919e-05
4.10429e-06
1.47666e-05
2.74804e-05
3.61926e-05
4.1383e-05
4.39435e-05
4.43776e-05
4.28538e-05
4.16234e-06
1.45382e-05
2.72235e-05
3.59802e-05
4.11867e-05
4.37267e-05
4.41218e-05
4.25647e-05
4.15299e-06
1.48046e-05
2.7561e-05
3.62541e-05
4.13704e-05
4.38251e-05
4.41435e-05
4.25179e-05
4.14236e-06
1.49336e-05
2.77321e-05
3.64056e-05
4.14939e-05
4.39278e-05
4.42332e-05
4.25983e-05
4.13509e-06
1.52455e-05
2.81252e-05
3.67262e-05
4.1706e-05
4.40217e-05
4.41995e-05
4.24277e-05
4.11909e-06
1.48885e-05
2.76529e-05
3.63278e-05
4.14419e-05
4.39133e-05
4.42599e-05
4.26626e-05
4.11086e-06
1.49142e-05
2.76484e-05
3.6299e-05
4.14043e-05
4.38758e-05
4.42254e-05
4.26296e-05
4.10184e-06
1.47461e-05
2.74357e-05
3.61331e-05
4.13124e-05
4.38623e-05
4.42874e-05
4.27601e-05
4.16294e-06
1.4555e-05
2.72164e-05
3.59115e-05
4.1036e-05
4.34894e-05
4.38093e-05
4.22067e-05
4.15289e-06
1.47562e-05
2.74698e-05
3.61228e-05
4.1192e-05
4.35967e-05
4.3874e-05
4.22313e-05
4.14135e-06
1.48365e-05
2.75754e-05
3.62224e-05
4.12873e-05
4.36963e-05
4.39833e-05
4.23487e-05
4.13275e-06
1.50593e-05
2.78525e-05
3.64493e-05
4.14449e-05
4.37821e-05
4.39927e-05
4.22746e-05
4.11835e-06
1.48147e-05
2.75311e-05
3.61869e-05
4.12876e-05
4.37457e-05
4.40833e-05
4.24898e-05
4.11026e-06
1.48501e-05
2.75519e-05
3.6192e-05
4.12894e-05
4.37516e-05
4.40943e-05
4.25019e-05
4.10153e-06
1.4729e-05
2.73976e-05