/*--------------------------------*- C++ -*----------------------------------*\
| =========                 |                                                 |
| \\      /  F ield         | OpenFOAM: The Open Source CFD Toolbox           |
|  \\    /   O peration     | Version:  plus.master.MPPICInterFoam            |
|   \\  /    A nd           | Web:      www.OpenFOAM.com                      |
|    \\/     M anipulation  |                                                 |
\*---------------------------------------------------------------------------*/
FoamFile
{
    version     2.0;
    format      ascii;
    class       volScalarField;
    location    "8";
    object      p;
}
// * * * * * * * * * * * * * * * * * * * * * * * * * * * * * * * * * * * * * //

dimensions      [1 -1 -2 0 0 0 0];

internalField   nonuniform List<scalar> 
11821
(
3938.59
3938.59
3938.59
3938.59
3938.59
3938.59
3938.59
3938.6
3938.59
3938.59
3938.59
3938.59
3938.59
3938.6
3938.6
3938.6
3938.6
3938.6
3938.6
3938.6
3938.6
3938.6
3938.6
3938.6
3938.6
3938.61
3938.61
3938.61
3938.61
3938.61
3938.61
3938.61
3938.61
3938.62
3938.62
3938.62
3938.62
3938.62
3938.62
3938.62
3938.63
3938.63
3938.63
3938.63
3938.63
3938.63
3938.63
3938.63
3938.64
3938.64
3938.64
3938.65
3938.65
3938.65
3938.65
3938.65
3841.51
3841.51
3841.51
3841.51
3841.51
3841.51
3841.52
3841.52
3841.52
3841.52
3841.52
3841.52
3841.52
3841.52
3841.52
3841.52
3841.52
3841.52
3841.52
3841.52
3841.52
3841.52
3841.52
3841.52
3841.53
3841.53
3841.53
3841.53
3841.53
3841.53
3841.53
3841.53
3841.54
3841.54
3841.54
3841.54
3841.54
3841.54
3841.54
3841.54
3841.55
3841.55
3841.55
3841.55
3841.55
3841.55
3841.55
3841.55
3841.56
3841.56
3841.56
3841.57
3841.57
3841.57
3841.57
3841.57
3744.44
3744.44
3744.44
3744.44
3744.44
3744.44
3744.44
3744.44
3744.44
3744.44
3744.44
3744.44
3744.44
3744.44
3744.44
3744.44
3744.44
3744.44
3744.44
3744.44
3744.44
3744.44
3744.44
3744.44
3744.45
3744.45
3744.45
3744.45
3744.45
3744.45
3744.45
3744.45
3744.46
3744.46
3744.46
3744.46
3744.46
3744.46
3744.46
3744.46
3744.47
3744.47
3744.47
3744.47
3744.47
3744.47
3744.47
3744.47
3744.48
3744.48
3744.48
3744.48
3744.48
3744.49
3744.49
3744.49
3647.36
3647.36
3647.36
3647.36
3647.36
3647.36
3647.36
3647.36
3647.36
3647.36
3647.36
3647.36
3647.36
3647.36
3647.36
3647.36
3647.37
3647.37
3647.37
3647.37
3647.36
3647.36
3647.36
3647.36
3647.37
3647.37
3647.37
3647.37
3647.37
3647.37
3647.37
3647.37
3647.38
3647.38
3647.38
3647.38
3647.38
3647.38
3647.38
3647.38
3647.39
3647.39
3647.39
3647.39
3647.39
3647.39
3647.39
3647.39
3647.4
3647.4
3647.4
3647.4
3647.4
3647.4
3647.4
3647.4
3550.28
3550.28
3550.28
3550.28
3550.28
3550.28
3550.28
3550.28
3550.28
3550.28
3550.28
3550.28
3550.28
3550.28
3550.28
3550.28
3550.29
3550.29
3550.29
3550.29
3550.29
3550.28
3550.28
3550.28
3550.29
3550.29
3550.29
3550.29
3550.29
3550.29
3550.29
3550.29
3550.3
3550.3
3550.3
3550.3
3550.3
3550.3
3550.3
3550.3
3550.31
3550.31
3550.31
3550.31
3550.31
3550.31
3550.31
3550.31
3550.32
3550.32
3550.32
3550.32
3550.32
3550.32
3550.32
3550.32
3453.2
3453.2
3453.2
3453.2
3453.2
3453.2
3453.2
3453.2
3453.2
3453.2
3453.2
3453.2
3453.2
3453.2
3453.2
3453.2
3453.21
3453.21
3453.21
3453.21
3453.2
3453.2
3453.2
3453.2
3453.21
3453.21
3453.21
3453.21
3453.21
3453.21
3453.21
3453.21
3453.22
3453.22
3453.22
3453.22
3453.22
3453.22
3453.22
3453.21
3453.23
3453.23
3453.23
3453.23
3453.23
3453.23
3453.23
3453.22
3453.24
3453.24
3453.24
3453.24
3453.24
3453.24
3453.24
3453.24
3356.12
3356.12
3356.12
3356.12
3356.12
3356.12
3356.11
3356.11
3356.12
3356.12
3356.12
3356.12
3356.12
3356.12
3356.12
3356.11
3356.13
3356.13
3356.13
3356.12
3356.12
3356.12
3356.12
3356.12
3356.13
3356.13
3356.13
3356.13
3356.13
3356.13
3356.13
3356.12
3356.14
3356.14
3356.14
3356.14
3356.14
3356.13
3356.13
3356.13
3356.15
3356.15
3356.15
3356.15
3356.14
3356.14
3356.14
3356.14
3356.16
3356.16
3356.16
3356.15
3356.15
3356.15
3356.15
3356.15
3259.04
3259.04
3259.04
3259.04
3259.03
3259.03
3259.03
3259.03
3259.04
3259.04
3259.04
3259.04
3259.04
3259.03
3259.03
3259.03
3259.04
3259.04
3259.04
3259.04
3259.04
3259.04
3259.04
3259.03
3259.05
3259.05
3259.05
3259.05
3259.04
3259.04
3259.04
3259.04
3259.06
3259.06
3259.05
3259.05
3259.05
3259.05
3259.05
3259.05
3259.06
3259.06
3259.06
3259.06
3259.06
3259.06
3259.06
3259.05
3259.07
3259.07
3259.07
3259.07
3259.07
3259.07
3259.07
3259.07
3161.95
3161.95
3161.95
3161.95
3161.95
3161.95
3161.94
3161.94
3161.96
3161.96
3161.95
3161.95
3161.95
3161.95
3161.95
3161.94
3161.96
3161.96
3161.96
3161.95
3161.95
3161.95
3161.95
3161.95
3161.97
3161.96
3161.96
3161.96
3161.96
3161.96
3161.95
3161.95
3161.97
3161.97
3161.97
3161.97
3161.96
3161.96
3161.96
3161.96
3161.98
3161.98
3161.98
3161.97
3161.97
3161.97
3161.97
3161.97
3161.99
3161.99
3161.98
3161.98
3161.98
3161.98
3161.98
3161.98
3064.87
3064.87
3064.86
3064.86
3064.86
3064.86
3064.85
3064.85
3064.87
3064.87
3064.87
3064.86
3064.86
3064.86
3064.86
3064.85
3064.87
3064.87
3064.87
3064.87
3064.86
3064.86
3064.86
3064.86
3064.88
3064.88
3064.87
3064.87
3064.87
3064.87
3064.86
3064.86
3064.89
3064.88
3064.88
3064.88
3064.88
3064.87
3064.87
3064.87
3064.89
3064.89
3064.89
3064.89
3064.88
3064.88
3064.88
3064.88
3064.9
3064.9
3064.9
3064.89
3064.89
3064.89
3064.89
3064.89
2967.78
2967.77
2967.77
2967.77
2967.77
2967.76
2967.76
2967.76
2967.78
2967.78
2967.77
2967.77
2967.77
2967.77
2967.76
2967.76
2967.78
2967.78
2967.78
2967.77
2967.77
2967.77
2967.77
2967.76
2967.79
2967.79
2967.78
2967.78
2967.78
2967.77
2967.77
2967.77
2967.8
2967.79
2967.79
2967.79
2967.78
2967.78
2967.78
2967.78
2967.8
2967.8
2967.8
2967.79
2967.79
2967.79
2967.79
2967.78
2967.81
2967.81
2967.8
2967.8
2967.8
2967.8
2967.8
2967.79
2870.68
2870.68
2870.68
2870.67
2870.67
2870.67
2870.66
2870.66
2870.68
2870.68
2870.68
2870.67
2870.67
2870.67
2870.67
2870.66
2870.69
2870.69
2870.68
2870.68
2870.68
2870.67
2870.67
2870.67
2870.7
2870.69
2870.69
2870.68
2870.68
2870.68
2870.67
2870.67
2870.7
2870.7
2870.69
2870.69
2870.69
2870.68
2870.68
2870.68
2870.71
2870.7
2870.7
2870.7
2870.7
2870.69
2870.69
2870.69
2870.72
2870.71
2870.71
2870.71
2870.7
2870.7
2870.7
2870.7
2773.58
2773.58
2773.58
2773.57
2773.57
2773.57
2773.56
2773.56
2773.59
2773.58
2773.58
2773.58
2773.57
2773.57
2773.57
2773.56
2773.59
2773.59
2773.58
2773.58
2773.58
2773.57
2773.57
2773.57
2773.6
2773.59
2773.59
2773.58
2773.58
2773.58
2773.57
2773.57
2773.61
2773.6
2773.6
2773.59
2773.59
2773.58
2773.58
2773.58
2773.61
2773.61
2773.6
2773.6
2773.6
2773.59
2773.59
2773.59
2773.62
2773.62
2773.61
2773.61
2773.61
2773.6
2773.6
2773.6
2676.48
2676.48
2676.48
2676.47
2676.47
2676.46
2676.46
2676.46
2676.49
2676.48
2676.48
2676.47
2676.47
2676.47
2676.46
2676.46
2676.49
2676.49
2676.48
2676.48
2676.47
2676.47
2676.47
2676.46
2676.5
2676.49
2676.49
2676.48
2676.48
2676.47
2676.47
2676.47
2676.51
2676.5
2676.49
2676.49
2676.49
2676.48
2676.48
2676.48
2676.51
2676.51
2676.5
2676.5
2676.49
2676.49
2676.49
2676.48
2676.52
2676.52
2676.51
2676.51
2676.5
2676.5
2676.5
2676.5
3938.68
3938.68
3938.68
3938.68
3938.68
3938.68
3938.68
3938.68
3938.68
3938.68
3938.68
3938.69
3938.69
3938.69
3938.7
3938.7
3938.67
3938.67
3938.67
3938.67
3938.68
3938.68
3938.68
3938.65
3841.6
3841.6
3841.6
3841.6
3841.6
3841.6
3841.6
3841.6
3841.6
3841.6
3841.6
3841.6
3841.61
3841.61
3841.61
3841.61
3841.59
3841.59
3841.59
3841.59
3841.6
3841.6
3841.6
3841.6
3841.6
3841.6
3841.6
3841.61
3841.61
3841.62
3841.63
3841.64
3841.58
3841.58
3841.58
3841.58
3841.58
3841.58
3841.59
3841.59
3841.57
3841.57
3841.57
3841.57
3841.57
3841.58
3841.58
3841.58
3841.55
3841.55
3841.55
3841.55
3841.55
3841.55
3841.55
3841.55
3744.52
3744.52
3744.52
3744.52
3744.52
3744.52
3744.52
3744.52
3744.52
3744.52
3744.52
3744.52
3744.52
3744.52
3744.53
3744.53
3744.51
3744.51
3744.51
3744.51
3744.51
3744.51
3744.51
3744.52
3744.51
3744.51
3744.52
3744.52
3744.52
3744.53
3744.54
3744.55
3744.5
3744.5
3744.5
3744.5
3744.5
3744.5
3744.5
3744.5
3744.49
3744.49
3744.49
3744.49
3744.49
3744.49
3744.5
3744.5
3744.47
3744.47
3744.47
3744.47
3744.47
3744.47
3744.47
3744.47
3647.44
3647.44
3647.44
3647.44
3647.44
3647.44
3647.44
3647.44
3647.44
3647.44
3647.44
3647.44
3647.44
3647.44
3647.44
3647.44
3647.43
3647.43
3647.43
3647.43
3647.43
3647.43
3647.43
3647.43
3647.43
3647.43
3647.43
3647.43
3647.44
3647.44
3647.45
3647.45
3647.42
3647.42
3647.42
3647.42
3647.42
3647.42
3647.42
3647.42
3647.41
3647.41
3647.41
3647.41
3647.41
3647.41
3647.41
3647.41
3647.39
3647.39
3647.39
3647.39
3647.39
3647.39
3647.39
3647.39
3550.36
3550.36
3550.36
3550.36
3550.36
3550.36
3550.36
3550.36
3550.35
3550.35
3550.35
3550.36
3550.36
3550.36
3550.36
3550.36
3550.35
3550.35
3550.35
3550.35
3550.35
3550.35
3550.35
3550.35
3550.35
3550.35
3550.35
3550.35
3550.35
3550.35
3550.36
3550.36
3550.33
3550.33
3550.34
3550.34
3550.34
3550.34
3550.34
3550.34
3550.33
3550.33
3550.33
3550.33
3550.33
3550.33
3550.33
3550.33
3550.32
3550.32
3550.32
3550.32
3550.32
3550.32
3550.31
3550.31
3453.27
3453.27
3453.27
3453.27
3453.27
3453.27
3453.27
3453.27
3453.27
3453.27
3453.27
3453.27
3453.27
3453.27
3453.27
3453.27
3453.27
3453.27
3453.27
3453.27
3453.27
3453.27
3453.27
3453.27
3453.26
3453.26
3453.26
3453.27
3453.27
3453.27
3453.27
3453.27
3453.25
3453.25
3453.25
3453.25
3453.25
3453.25
3453.25
3453.25
3453.25
3453.25
3453.25
3453.25
3453.25
3453.25
3453.25
3453.25
3453.24
3453.24
3453.24
3453.24
3453.24
3453.23
3453.23
3453.23
3356.19
3356.19
3356.19
3356.19
3356.19
3356.19
3356.19
3356.19
3356.19
3356.19
3356.19
3356.19
3356.19
3356.19
3356.19
3356.19
3356.18
3356.18
3356.18
3356.18
3356.18
3356.18
3356.18
3356.18
3356.18
3356.18
3356.18
3356.18
3356.18
3356.18
3356.18
3356.19
3356.17
3356.17
3356.17
3356.17
3356.17
3356.17
3356.17
3356.17
3356.16
3356.16
3356.16
3356.16
3356.16
3356.16
3356.16
3356.17
3356.16
3356.16
3356.16
3356.15
3356.15
3356.15
3356.15
3356.15
3259.11
3259.11
3259.11
3259.1
3259.1
3259.1
3259.1
3259.1
3259.1
3259.1
3259.1
3259.1
3259.1
3259.1
3259.1
3259.1
3259.1
3259.1
3259.1
3259.1
3259.1
3259.1
3259.1
3259.1
3259.1
3259.1
3259.1
3259.1
3259.1
3259.1
3259.1
3259.1
3259.09
3259.09
3259.09
3259.09
3259.09
3259.09
3259.09
3259.09
3259.08
3259.08
3259.08
3259.08
3259.08
3259.08
3259.08
3259.08
3259.07
3259.07
3259.07
3259.07
3259.07
3259.07
3259.07
3259.07
3162.02
3162.02
3162.02
3162.02
3162.02
3162.02
3162.02
3162.02
3162.02
3162.02
3162.02
3162.02
3162.02
3162.02
3162.02
3162.02
3162.01
3162.01
3162.01
3162.01
3162.01
3162.01
3162.01
3162.01
3162.01
3162.01
3162.01
3162.01
3162.01
3162.01
3162.01
3162.01
3162
3162
3162
3162
3162
3162
3162
3162
3162
3162
3162
3162
3162
3161.99
3161.99
3161.99
3161.99
3161.99
3161.99
3161.99
3161.99
3161.99
3161.98
3161.98
3064.93
3064.93
3064.93
3064.93
3064.93
3064.93
3064.93
3064.93
3064.93
3064.93
3064.93
3064.93
3064.93
3064.93
3064.93
3064.93
3064.93
3064.93
3064.93
3064.93
3064.93
3064.93
3064.92
3064.92
3064.92
3064.92
3064.92
3064.92
3064.92
3064.92
3064.92
3064.92
3064.92
3064.92
3064.92
3064.92
3064.91
3064.91
3064.91
3064.91
3064.91
3064.91
3064.91
3064.91
3064.91
3064.91
3064.91
3064.91
3064.9
3064.9
3064.9
3064.9
3064.9
3064.9
3064.9
3064.9
2967.84
2967.84
2967.84
2967.84
2967.84
2967.84
2967.84
2967.84
2967.84
2967.84
2967.84
2967.84
2967.84
2967.84
2967.84
2967.84
2967.84
2967.84
2967.84
2967.84
2967.84
2967.84
2967.83
2967.83
2967.84
2967.83
2967.83
2967.83
2967.83
2967.83
2967.83
2967.83
2967.83
2967.83
2967.83
2967.83
2967.82
2967.82
2967.82
2967.82
2967.82
2967.82
2967.82
2967.82
2967.82
2967.82
2967.82
2967.81
2967.81
2967.81
2967.81
2967.81
2967.81
2967.81
2967.81
2967.81
2870.75
2870.75
2870.75
2870.75
2870.75
2870.75
2870.75
2870.75
2870.75
2870.75
2870.75
2870.75
2870.75
2870.75
2870.75
2870.75
2870.75
2870.75
2870.75
2870.75
2870.74
2870.74
2870.74
2870.74
2870.74
2870.74
2870.74
2870.74
2870.74
2870.74
2870.74
2870.74
2870.74
2870.74
2870.74
2870.73
2870.73
2870.73
2870.73
2870.73
2870.73
2870.73
2870.73
2870.73
2870.73
2870.72
2870.72
2870.72
2870.72
2870.72
2870.72
2870.72
2870.72
2870.71
2870.71
2870.71
2773.66
2773.66
2773.66
2773.66
2773.66
2773.65
2773.65
2773.65
2773.66
2773.66
2773.66
2773.66
2773.65
2773.65
2773.65
2773.65
2773.66
2773.66
2773.65
2773.65
2773.65
2773.65
2773.65
2773.65
2773.65
2773.65
2773.65
2773.65
2773.65
2773.64
2773.64
2773.64
2773.65
2773.64
2773.64
2773.64
2773.64
2773.64
2773.64
2773.63
2773.64
2773.64
2773.63
2773.63
2773.63
2773.63
2773.63
2773.63
2773.63
2773.63
2773.63
2773.62
2773.62
2773.62
2773.62
2773.62
2676.57
2676.57
2676.56
2676.56
2676.56
2676.56
2676.56
2676.56
2676.57
2676.56
2676.56
2676.56
2676.56
2676.56
2676.56
2676.56
2676.56
2676.56
2676.56
2676.56
2676.56
2676.56
2676.55
2676.55
2676.56
2676.56
2676.55
2676.55
2676.55
2676.55
2676.55
2676.55
2676.55
2676.55
2676.55
2676.55
2676.54
2676.54
2676.54
2676.54
2676.54
2676.54
2676.54
2676.54
2676.54
2676.53
2676.53
2676.53
2676.53
2676.53
2676.53
2676.53
2676.53
2676.52
2676.52
2676.52
3938.6
3938.59
3938.59
3938.59
3938.59
3938.59
3938.59
3938.59
3938.59
3938.59
3938.59
3938.59
3938.59
3938.59
3938.59
3938.6
3938.59
3938.59
3938.59
3938.59
3938.59
3938.59
3938.59
3938.59
3841.54
3841.54
3841.54
3841.54
3841.54
3841.54
3841.54
3841.54
3841.53
3841.53
3841.53
3841.53
3841.53
3841.53
3841.53
3841.53
3841.52
3841.52
3841.52
3841.52
3841.52
3841.52
3841.52
3841.52
3841.52
3841.52
3841.52
3841.52
3841.52
3841.52
3841.52
3841.52
3841.51
3841.51
3841.51
3841.51
3841.51
3841.52
3841.52
3841.52
3841.51
3841.51
3841.51
3841.51
3841.51
3841.51
3841.52
3841.52
3841.51
3841.51
3841.51
3841.51
3841.51
3841.51
3841.51
3841.51
3744.46
3744.46
3744.46
3744.46
3744.46
3744.46
3744.46
3744.46
3744.45
3744.45
3744.45
3744.45
3744.45
3744.45
3744.45
3744.45
3744.44
3744.45
3744.45
3744.45
3744.45
3744.45
3744.45
3744.45
3744.44
3744.44
3744.44
3744.44
3744.44
3744.44
3744.44
3744.44
3744.44
3744.44
3744.44
3744.44
3744.44
3744.44
3744.44
3744.44
3744.43
3744.44
3744.44
3744.44
3744.44
3744.44
3744.44
3744.44
3744.43
3744.43
3744.43
3744.43
3744.43
3744.43
3744.43
3744.43
3647.38
3647.39
3647.39
3647.39
3647.38
3647.38
3647.38
3647.38
3647.38
3647.38
3647.38
3647.38
3647.38
3647.38
3647.38
3647.37
3647.37
3647.37
3647.37
3647.37
3647.37
3647.37
3647.37
3647.37
3647.36
3647.36
3647.36
3647.36
3647.36
3647.36
3647.36
3647.36
3647.36
3647.36
3647.36
3647.36
3647.36
3647.36
3647.36
3647.36
3647.36
3647.36
3647.36
3647.36
3647.36
3647.36
3647.36
3647.36
3647.36
3647.36
3647.36
3647.36
3647.36
3647.36
3647.36
3647.36
3550.31
3550.31
3550.31
3550.31
3550.31
3550.31
3550.31
3550.31
3550.3
3550.3
3550.3
3550.3
3550.3
3550.3
3550.3
3550.3
3550.29
3550.29
3550.29
3550.29
3550.29
3550.29
3550.29
3550.29
3550.29
3550.29
3550.29
3550.29
3550.29
3550.29
3550.28
3550.28
3550.28
3550.28
3550.28
3550.28
3550.28
3550.28
3550.28
3550.28
3550.28
3550.28
3550.28
3550.28
3550.28
3550.28
3550.28
3550.28
3550.28
3550.28
3550.28
3550.28
3550.28
3550.28
3550.28
3550.28
3453.23
3453.23
3453.23
3453.23
3453.23
3453.23
3453.23
3453.23
3453.22
3453.22
3453.22
3453.22
3453.22
3453.22
3453.22
3453.22
3453.21
3453.21
3453.21
3453.21
3453.21
3453.21
3453.21
3453.21
3453.21
3453.21
3453.21
3453.21
3453.21
3453.21
3453.2
3453.2
3453.2
3453.2
3453.2
3453.2
3453.2
3453.2
3453.2
3453.2
3453.2
3453.2
3453.2
3453.2
3453.2
3453.2
3453.2
3453.2
3453.2
3453.2
3453.2
3453.2
3453.2
3453.2
3453.2
3453.19
3356.15
3356.15
3356.15
3356.15
3356.15
3356.15
3356.14
3356.14
3356.14
3356.14
3356.14
3356.14
3356.14
3356.14
3356.14
3356.14
3356.13
3356.13
3356.13
3356.13
3356.13
3356.13
3356.13
3356.13
3356.13
3356.13
3356.13
3356.13
3356.13
3356.12
3356.12
3356.12
3356.12
3356.12
3356.12
3356.12
3356.12
3356.12
3356.12
3356.12
3356.12
3356.12
3356.12
3356.12
3356.12
3356.12
3356.12
3356.11
3356.12
3356.12
3356.12
3356.12
3356.12
3356.12
3356.11
3356.11
3259.07
3259.07
3259.06
3259.06
3259.06
3259.06
3259.06
3259.06
3259.06
3259.06
3259.06
3259.06
3259.06
3259.05
3259.05
3259.05
3259.05
3259.05
3259.05
3259.05
3259.05
3259.05
3259.05
3259.04
3259.05
3259.05
3259.05
3259.04
3259.04
3259.04
3259.04
3259.04
3259.04
3259.04
3259.04
3259.04
3259.04
3259.04
3259.04
3259.03
3259.04
3259.04
3259.04
3259.04
3259.03
3259.03
3259.03
3259.03
3259.04
3259.04
3259.04
3259.03
3259.03
3259.03
3259.03
3259.03
3161.98
3161.98
3161.98
3161.98
3161.98
3161.98
3161.98
3161.98
3161.97
3161.97
3161.97
3161.97
3161.97
3161.97
3161.97
3161.97
3161.97
3161.97
3161.97
3161.96
3161.96
3161.96
3161.96
3161.96
3161.96
3161.96
3161.96
3161.96
3161.96
3161.96
3161.95
3161.95
3161.96
3161.96
3161.96
3161.95
3161.95
3161.95
3161.95
3161.95
3161.95
3161.95
3161.95
3161.95
3161.95
3161.95
3161.95
3161.94
3161.95
3161.95
3161.95
3161.95
3161.95
3161.95
3161.94
3161.94
3064.89
3064.89
3064.89
3064.89
3064.89
3064.89
3064.89
3064.89
3064.89
3064.89
3064.89
3064.88
3064.88
3064.88
3064.88
3064.88
3064.88
3064.88
3064.88
3064.88
3064.88
3064.87
3064.87
3064.87
3064.87
3064.87
3064.87
3064.87
3064.87
3064.87
3064.87
3064.86
3064.87
3064.87
3064.87
3064.87
3064.86
3064.86
3064.86
3064.86
3064.87
3064.87
3064.86
3064.86
3064.86
3064.86
3064.86
3064.85
3064.87
3064.87
3064.86
3064.86
3064.86
3064.86
3064.85
3064.85
2967.81
2967.81
2967.8
2967.8
2967.8
2967.8
2967.8
2967.8
2967.8
2967.8
2967.8
2967.79
2967.79
2967.79
2967.79
2967.79
2967.79
2967.79
2967.79
2967.79
2967.78
2967.78
2967.78
2967.78
2967.78
2967.78
2967.78
2967.78
2967.78
2967.78
2967.77
2967.77
2967.78
2967.78
2967.78
2967.77
2967.77
2967.77
2967.77
2967.77
2967.78
2967.78
2967.77
2967.77
2967.77
2967.77
2967.76
2967.76
2967.78
2967.77
2967.77
2967.77
2967.77
2967.76
2967.76
2967.76
2870.71
2870.71
2870.71
2870.71
2870.71
2870.71
2870.7
2870.7
2870.71
2870.7
2870.7
2870.7
2870.7
2870.7
2870.69
2870.69
2870.7
2870.7
2870.69
2870.69
2870.69
2870.69
2870.69
2870.68
2870.69
2870.69
2870.69
2870.69
2870.68
2870.68
2870.68
2870.68
2870.69
2870.68
2870.68
2870.68
2870.68
2870.67
2870.67
2870.67
2870.68
2870.68
2870.68
2870.68
2870.67
2870.67
2870.67
2870.66
2870.68
2870.68
2870.68
2870.67
2870.67
2870.67
2870.66
2870.66
2773.62
2773.62
2773.62
2773.61
2773.61
2773.61
2773.61
2773.61
2773.61
2773.61
2773.61
2773.6
2773.6
2773.6
2773.6
2773.6
2773.6
2773.6
2773.6
2773.6
2773.59
2773.59
2773.59
2773.59
2773.6
2773.59
2773.59
2773.59
2773.59
2773.58
2773.58
2773.58
2773.59
2773.59
2773.58
2773.58
2773.58
2773.58
2773.57
2773.57
2773.59
2773.58
2773.58
2773.58
2773.57
2773.57
2773.57
2773.56
2773.58
2773.58
2773.58
2773.57
2773.57
2773.57
2773.56
2773.56
2676.53
2676.52
2676.52
2676.52
2676.52
2676.51
2676.51
2676.51
2676.52
2676.51
2676.51
2676.51
2676.5
2676.5
2676.5
2676.5
2676.51
2676.5
2676.5
2676.5
2676.49
2676.49
2676.49
2676.49
2676.5
2676.49
2676.49
2676.49
2676.49
2676.48
2676.48
2676.48
2676.49
2676.49
2676.48
2676.48
2676.48
2676.47
2676.47
2676.47
2676.49
2676.48
2676.48
2676.48
2676.47
2676.47
2676.47
2676.46
2676.48
2676.48
2676.48
2676.47
2676.47
2676.46
2676.46
2676.46
3938.66
3938.66
3938.66
3938.66
3938.66
3938.67
3938.67
3938.67
3938.68
3938.68
3938.68
3938.69
3938.69
3938.69
3938.7
3938.7
3938.69
3938.69
3938.69
3938.69
3938.7
3938.7
3938.71
3938.71
3938.71
3938.71
3938.71
3938.72
3938.73
3938.74
3938.75
3938.76
3938.69
3938.69
3938.69
3938.7
3938.7
3938.7
3938.7
3938.71
3938.7
3938.7
3938.7
3938.7
3938.7
3938.7
3938.71
3938.71
3938.69
3938.69
3938.69
3938.69
3938.69
3938.69
3938.69
3938.69
3841.58
3841.58
3841.58
3841.58
3841.58
3841.58
3841.58
3841.58
3841.59
3841.6
3841.6
3841.6
3841.6
3841.61
3841.61
3841.61
3841.6
3841.6
3841.6
3841.61
3841.61
3841.61
3841.62
3841.62
3841.62
3841.62
3841.62
3841.63
3841.63
3841.64
3841.65
3841.66
3841.61
3841.61
3841.61
3841.61
3841.61
3841.61
3841.62
3841.62
3841.61
3841.61
3841.61
3841.61
3841.62
3841.62
3841.62
3841.62
3841.6
3841.6
3841.6
3841.6
3841.6
3841.61
3841.61
3841.61
3744.49
3744.5
3744.5
3744.5
3744.5
3744.5
3744.5
3744.5
3744.51
3744.51
3744.51
3744.51
3744.52
3744.52
3744.52
3744.52
3744.52
3744.52
3744.52
3744.52
3744.52
3744.52
3744.53
3744.53
3744.53
3744.53
3744.53
3744.54
3744.54
3744.55
3744.55
3744.56
3744.52
3744.52
3744.53
3744.53
3744.53
3744.53
3744.53
3744.53
3744.53
3744.53
3744.53
3744.53
3744.53
3744.53
3744.53
3744.54
3744.52
3744.52
3744.52
3744.52
3744.52
3744.52
3744.52
3744.52
3647.41
3647.41
3647.41
3647.41
3647.41
3647.41
3647.41
3647.42
3647.43
3647.43
3647.43
3647.43
3647.43
3647.43
3647.43
3647.43
3647.43
3647.43
3647.43
3647.43
3647.44
3647.44
3647.44
3647.44
3647.44
3647.44
3647.44
3647.45
3647.45
3647.45
3647.46
3647.46
3647.44
3647.44
3647.44
3647.44
3647.44
3647.44
3647.44
3647.44
3647.44
3647.44
3647.44
3647.44
3647.45
3647.45
3647.45
3647.45
3647.44
3647.44
3647.44
3647.44
3647.44
3647.44
3647.44
3647.44
3550.33
3550.33
3550.33
3550.33
3550.33
3550.33
3550.33
3550.33
3550.34
3550.34
3550.34
3550.34
3550.34
3550.35
3550.35
3550.35
3550.35
3550.35
3550.35
3550.35
3550.35
3550.35
3550.35
3550.35
3550.36
3550.36
3550.36
3550.36
3550.36
3550.36
3550.37
3550.37
3550.36
3550.36
3550.36
3550.36
3550.36
3550.36
3550.36
3550.36
3550.36
3550.36
3550.36
3550.36
3550.36
3550.36
3550.36
3550.36
3550.36
3550.36
3550.36
3550.36
3550.36
3550.36
3550.36
3550.36
3453.25
3453.25
3453.25
3453.25
3453.25
3453.25
3453.25
3453.25
3453.26
3453.26
3453.26
3453.26
3453.26
3453.26
3453.26
3453.26
3453.26
3453.26
3453.26
3453.26
3453.26
3453.26
3453.27
3453.27
3453.27
3453.27
3453.27
3453.27
3453.27
3453.28
3453.28
3453.28
3453.27
3453.27
3453.27
3453.27
3453.27
3453.27
3453.27
3453.27
3453.28
3453.28
3453.28
3453.28
3453.28
3453.28
3453.28
3453.28
3453.27
3453.27
3453.27
3453.27
3453.27
3453.27
3453.27
3453.27
3356.17
3356.16
3356.16
3356.16
3356.16
3356.16
3356.16
3356.16
3356.17
3356.17
3356.17
3356.17
3356.17
3356.17
3356.17
3356.17
3356.18
3356.18
3356.18
3356.18
3356.18
3356.18
3356.18
3356.18
3356.19
3356.19
3356.19
3356.19
3356.19
3356.19
3356.19
3356.19
3356.19
3356.19
3356.19
3356.19
3356.19
3356.19
3356.19
3356.19
3356.19
3356.19
3356.19
3356.19
3356.19
3356.19
3356.19
3356.19
3356.19
3356.19
3356.19
3356.19
3356.19
3356.19
3356.19
3356.19
3259.08
3259.08
3259.08
3259.08
3259.08
3259.08
3259.08
3259.07
3259.09
3259.09
3259.09
3259.09
3259.09
3259.09
3259.09
3259.09
3259.09
3259.09
3259.09
3259.09
3259.09
3259.09
3259.09
3259.09
3259.1
3259.1
3259.1
3259.1
3259.1
3259.1
3259.1
3259.1
3259.1
3259.1
3259.1
3259.1
3259.1
3259.1
3259.1
3259.1
3259.11
3259.11
3259.11
3259.11
3259.11
3259.11
3259.11
3259.11
3259.11
3259.11
3259.11
3259.11
3259.11
3259.1
3259.1
3259.1
3162
3161.99
3161.99
3161.99
3161.99
3161.99
3161.99
3161.99
3162
3162
3162
3162
3162
3162
3162
3162
3162.01
3162.01
3162.01
3162.01
3162
3162
3162
3162
3162.01
3162.01
3162.01
3162.01
3162.01
3162.01
3162.01
3162.01
3162.02
3162.02
3162.02
3162.02
3162.01
3162.01
3162.01
3162.01
3162.02
3162.02
3162.02
3162.02
3162.02
3162.02
3162.02
3162.02
3162.02
3162.02
3162.02
3162.02
3162.02
3162.02
3162.02
3162.02
3064.91
3064.91
3064.9
3064.9
3064.9
3064.9
3064.9
3064.9
3064.91
3064.91
3064.91
3064.91
3064.91
3064.91
3064.91
3064.91
3064.92
3064.92
3064.92
3064.92
3064.92
3064.91
3064.91
3064.91
3064.93
3064.93
3064.92
3064.92
3064.92
3064.92
3064.92
3064.92
3064.93
3064.93
3064.93
3064.93
3064.93
3064.93
3064.92
3064.92
3064.93
3064.93
3064.93
3064.93
3064.93
3064.93
3064.93
3064.93
3064.93
3064.93
3064.93
3064.93
3064.93
3064.93
3064.93
3064.93
2967.82
2967.81
2967.81
2967.81
2967.81
2967.81
2967.8
2967.8
2967.82
2967.82
2967.82
2967.82
2967.82
2967.81
2967.81
2967.81
2967.83
2967.83
2967.83
2967.83
2967.82
2967.82
2967.82
2967.82
2967.84
2967.83
2967.83
2967.83
2967.83
2967.83
2967.83
2967.83
2967.84
2967.84
2967.84
2967.84
2967.84
2967.83
2967.83
2967.83
2967.84
2967.84
2967.84
2967.84
2967.84
2967.84
2967.84
2967.84
2967.84
2967.84
2967.84
2967.84
2967.84
2967.84
2967.84
2967.84
2870.72
2870.72
2870.72
2870.71
2870.71
2870.71
2870.71
2870.71
2870.73
2870.73
2870.73
2870.72
2870.72
2870.72
2870.72
2870.72
2870.74
2870.74
2870.73
2870.73
2870.73
2870.73
2870.73
2870.72
2870.74
2870.74
2870.74
2870.74
2870.74
2870.74
2870.73
2870.73
2870.75
2870.75
2870.75
2870.74
2870.74
2870.74
2870.74
2870.74
2870.75
2870.75
2870.75
2870.75
2870.75
2870.75
2870.74
2870.74
2870.75
2870.75
2870.75
2870.75
2870.75
2870.75
2870.75
2870.75
2773.63
2773.62
2773.62
2773.62
2773.61
2773.61
2773.61
2773.61
2773.64
2773.63
2773.63
2773.63
2773.62
2773.62
2773.62
2773.62
2773.64
2773.64
2773.64
2773.63
2773.63
2773.63
2773.63
2773.63
2773.65
2773.65
2773.64
2773.64
2773.64
2773.64
2773.64
2773.64
2773.66
2773.65
2773.65
2773.65
2773.65
2773.65
2773.64
2773.64
2773.66
2773.66
2773.66
2773.65
2773.65
2773.65
2773.65
2773.65
2773.66
2773.66
2773.66
2773.66
2773.65
2773.65
2773.65
2773.65
2676.53
2676.52
2676.52
2676.52
2676.51
2676.51
2676.51
2676.51
2676.54
2676.53
2676.53
2676.53
2676.52
2676.52
2676.52
2676.52
2676.55
2676.54
2676.54
2676.54
2676.53
2676.53
2676.53
2676.53
2676.55
2676.55
2676.55
2676.55
2676.54
2676.54
2676.54
2676.54
2676.56
2676.56
2676.55
2676.55
2676.55
2676.55
2676.55
2676.55
2676.57
2676.56
2676.56
2676.56
2676.56
2676.56
2676.55
2676.55
2676.57
2676.57
2676.56
2676.56
2676.56
2676.56
2676.56
2676.56
3808.31
3799.08
3790.96
3786.31
3794.21
3803.92
3814.3
3797.29
3787.64
3781.57
3779.68
3782.3
3790.92
3804.7
3787.56
3782.55
3777.35
3774.48
3777.9
3779.2
3795.55
3776.95
3777.28
3779.96
3780.73
3769.71
3767.69
3788.36
3787.78
3786.27
3781.23
3779.63
3778.94
3776.89
3793.39
3797.26
3791.42
3789.49
3781.97
3782.17
3788.08
3802.05
3806.87
3797.77
3789.92
3780.93
3789.55
3799.91
3811.37
3771.95
3776.24
3779.94
3780.2
3775.19
3770.96
3767.21
3778.08
3789.5
3801.38
3800.33
3789.36
3777.6
3770.79
3787.21
3808.57
3810.13
3802.01
3805.13
3787.93
3774.46
3795.53
3812.51
3799.73
3794.16
3808.79
3794.5
3776.65
3789.9
3812.6
3810.61
3805.51
3810.66
3792.54
3775.96
3781.13
3796.68
3810.88
3812.17
3799.98
3782.66
3772.98
3774.38
3780.36
3787.52
3791.21
3781.47
3774.28
3769.06
3705.35
3712.42
3717.88
3720.03
3713.78
3706.91
3698.89
3713.98
3725.57
3742.04
3751.98
3731.25
3717.98
3706.7
3722.21
3749.5
3793.62
3814.5
3763.88
3730.4
3713.67
3731.5
3781.46
3808.86
3809.45
3793.69
3742.04
3717.89
3723.45
3755.68
3805.03
3807.66
3766.85
3731.22
3714.24
3715.48
3728.58
3750.03
3762.06
3734.13
3719.23
3707.94
3707.03
3714.2
3719.69
3722.51
3715.2
3708.48
3700.24
3608.57
3612.53
3615.48
3616.49
3613.55
3609.44
3603.85
3613.6
3617.39
3620.15
3622.58
3619.71
3615.79
3609.29
3615.78
3619.06
3634.49
3648.71
3626.56
3620.74
3613.83
3617.65
3628.69
3687.89
3724.6
3642.31
3625.38
3616.63
3615.83
3618.97
3638.55
3657.33
3627.41
3620.78
3614.17
3613.86
3617.06
3619.34
3622.97
3619.64
3616.24
3609.98
3609.38
3613.1
3615.26
3616.31
3613.99
3610.29
3604.67
3503.59
3507.66
3509.69
3509.57
3506.59
3502.35
3497.48
3509.68
3514.82
3516.06
3515.37
3512.69
3507.81
3501.64
3514.29
3517.34
3511.28
3512.02
3514.66
3511.66
3504.83
3516.37
3514.17
3505.25
3508.35
3513.13
3513.37
3506.39
3514.37
3516.82
3511.45
3513.82
3514
3511.86
3505.05
3510.01
3515.03
3516.86
3515.8
3512.94
3508.38
3502.07
3504.09
3508.35
3510.69
3510.55
3507.46
3503.08
3498.02
3378.84
3380.42
3381.07
3380.79
3379.56
3378.31
3377
3380.36
3379.27
3376.25
3376.93
3378
3379.33
3378.19
3380.71
3371.81
3374.85
3366.63
3368.73
3378.99
3379.4
3379.77
3378.56
3380.47
3362.04
3365.13
3378.74
3380.05
3379.06
3367.93
3364.51
3355.51
3366.48
3377.56
3378.92
3378.51
3375.07
3368.83
3369.45
3373.61
3377.63
3377.55
3377.66
3378.21
3377.92
3377.39
3377.36
3377.27
3376.53
3231.65
3222.56
3218.14
3219.43
3225.65
3235.56
3244.9
3217.48
3206.13
3207.15
3204.98
3210.06
3223.33
3237.57
3206.68
3199.97
3196.24
3198.74
3207.83
3213.29
3231.7
3208.38
3195.09
3207.2
3200.39
3204.84
3210.76
3229.75
3207.04
3201.38
3199.55
3202.92
3204.58
3213.15
3231.38
3217.42
3207.13
3209.69
3205.44
3210.93
3222.38
3236.98
3231.28
3221.91
3216.91
3218.12
3224.21
3234.57
3244.3
3127.02
3117.55
3112.87
3114.43
3120.75
3130.9
3141.69
3115.83
3112.58
3113.22
3112.39
3113.98
3119.62
3133.02
3112.53
3112.92
3112.49
3116.03
3115.17
3114.58
3125.69
3113.72
3112.51
3124.43
3117.76
3115.66
3113.73
3122.39
3113.6
3114.81
3117.52
3121.41
3116.67
3115.61
3126.23
3117.63
3115.68
3117.65
3117.41
3118
3121.26
3133.63
3128.36
3119.71
3115.81
3117.65
3122.79
3131.81
3142.09
3079.93
3081.7
3080.96
3081.18
3079.57
3077.65
3077.87
3085.18
3089.86
3087.3
3087.35
3086.04
3079.59
3077.22
3089.67
3088.67
3085.69
3083.93
3085.36
3081.99
3077
3089.18
3087.58
3082.02
3079.18
3082.61
3081.93
3076.42
3089.9
3088.77
3086.03
3085.26
3086.9
3082.86
3077.38
3085.55
3090.25
3087.55
3087.82
3086.95
3080.41
3077.62
3080.37
3082.28
3081.8
3081.97
3080.31
3078.07
3078.04
3021.99
3028.81
3033.27
3031.51
3024.9
3017.98
3012.04
3033.59
3051.42
3060.73
3058.02
3042.3
3026.25
3016.65
3049.21
3072.4
3072.23
3070.84
3062.57
3036.51
3020.57
3055.8
3069.94
3069.35
3069.97
3069.2
3041.49
3022.13
3048.41
3071.56
3070.84
3069.8
3061.89
3036.24
3020.41
3032.76
3049.96
3059.36
3056.64
3041.43
3025.83
3016.38
3021.47
3028.03
3032.35
3030.81
3024.36
3017.54
3011.69
2929.36
2932.98
2935.38
2934.55
2931.41
2927.21
2922.19
2934.1
2940.92
2948.75
2946.16
2938.23
2932.21
2926.33
2939.99
2959.82
2980.94
2975.21
2950.75
2936.89
2929.58
2945.65
2975.91
3003.25
3002.41
2962.35
2939.82
2931.01
2939.46
2958.57
2977.71
2974.15
2950.1
2936.44
2929.21
2933.51
2940.03
2946.85
2945.06
2937.55
2931.68
2925.9
2928.81
2932.33
2934.53
2933.84
2930.79
2926.61
2921.73
2820.71
2823.04
2824.4
2824
2822.17
2819.41
2816.19
2823.15
2824.22
2825.19
2824.78
2824.3
2822.22
2818.64
2823.63
2821.22
2821.5
2819.54
2822.09
2823.73
2820.41
2824.14
2821.97
2823.71
2820.18
2818.48
2823.84
2821.04
2823.33
2820.52
2819.02
2815.5
2821.04
2823.17
2820.1
2822.73
2823.89
2824.71
2823.51
2823.36
2821.66
2818.28
2820.2
2822.48
2823.67
2823.12
2821.45
2818.9
2815.84
2693.48
2689.97
2687.55
2687.76
2690.9
2694.74
2697.52
2686.63
2679.3
2673.34
2673.93
2680.48
2689.73
2695.48
2679.43
2670
2663.55
2665.58
2671.91
2684.27
2693.7
2676.87
2665.81
2670.67
2664.17
2673.98
2681.59
2693.02
2678.93
2668.43
2662.76
2666.91
2671.01
2684.13
2693.63
2685.96
2677.28
2671.82