/*--------------------------------*- C++ -*----------------------------------*\
| =========                 |                                                 |
| \\      /  F ield         | OpenFOAM: The Open Source CFD Toolbox           |
|  \\    /   O peration     | Version:  plus.master                           |
|   \\  /    A nd           | Web:      www.OpenFOAM.com                      |
|    \\/     M anipulation  |                                                 |
\*---------------------------------------------------------------------------*/
FoamFile
{
    version     2.0;
    format      ascii;
    class       surfaceScalarField;
    location    "3.8";
    object      phi;
}
// * * * * * * * * * * * * * * * * * * * * * * * * * * * * * * * * * * * * * //

dimensions      [0 3 -1 0 0 0 0];

internalField   nonuniform List<scalar> 
138768
(
1.43545e-06
1.0382e-06
1.66921e-07
-1.63991e-06
-1.26789e-06
1.09326e-06
1.78848e-06
2.46109e-07
-1.69826e-06
3.7709e-07
2.09962e-06
4.22649e-07
-1.90917e-06
-3.63479e-07
2.1792e-06
6.08161e-07
-2.06037e-06
-1.14147e-06
2.19699e-06
3.96144e-07
-1.92179e-06
-1.60277e-06
2.03441e-06
2.32394e-07
-1.88017e-06
1.52633e-06
1.70495e-07
-1.94689e-06
-1.63796e-06
1.91208e-06
2.6061e-07
2.15505e-07
-1.56732e-06
3.32934e-06
2.68515e-06
1.54092e-06
1.36743e-06
5.89562e-06
2.02088e-06
-1.1279e-06
6.20683e-06
2.32285e-06
-3.18643e-06
6.17322e-06
1.93735e-06
-2.05878e-06
3.34606e-06
1.41589e-06
1.22366e-06
2.0794e-07
-2.08997e-06
2.15323e-06
-5.67493e-08
3.90846e-07
-2.22733e-06
6.02306e-06
7.04642e-07
1.96568e-06
4.37595e-06
3.43261e-06
7.96557e-06
-3.86416e-06
9.27424e-06
9.02933e-06
-5.90522e-06
4.38378e-06
7.68805e-06
-2.07083e-06
1.33714e-06
2.03023e-06
4.62725e-07
3.71888e-07
-1.88903e-06
1.99968e-06
-2.52351e-07
5.27719e-07
-2.33157e-06
5.56371e-06
-1.23906e-06
2.2349e-06
6.04519e-06
-3.273e-06
1.00809e-05
-7.07616e-06
-3.81513e-06
3.00715e-05
-6.0532e-06
-3.94304e-06
1.11662e-05
-2.04011e-06
-1.52258e-06
2.70165e-06
-6.44217e-07
6.28437e-07
-1.77519e-06
2.10927e-06
-6.23564e-07
3.68829e-07
-2.10661e-06
5.95078e-06
-3.2384e-06
2.01318e-06
3.81755e-06
-5.93048e-06
8.64932e-06
-3.61231e-06
-5.43504e-06
1.29124e-05
-5.87542e-06
-6.04027e-06
8.21595e-06
-2.05783e-06
-3.51923e-06
2.03432e-06
-1.40507e-06
3.56618e-07
-1.86513e-06
1.78859e-06
-1.42364e-06
2.03705e-07
-1.37945e-06
2.9696e-06
-2.03334e-06
1.46945e-06
9.77864e-07
-2.03201e-06
1.94926e-06
-1.26182e-06
-1.82561e-06
2.48549e-06
-3.17737e-06
-2.12581e-06
1.85633e-06
-2.07921e-06
-2.10597e-06
1.3433e-06
-1.72821e-06
1.9179e-07
-2.09029e-06
1.45547e-06
1.60206e-07
-1.59896e-06
-1.64587e-06
1.08192e-06
2.12909e-07
-2.00363e-06
2.7736e-07
3.51183e-07
-1.78922e-06
-5.67697e-07
4.89926e-07
-1.67307e-06
-1.32625e-06
3.06484e-07
-1.88952e-06
-1.71935e-06
1.9485e-07
-2.05904e-06
1.588e-07
-1.97929e-06
-1.86907e-06
1.17986e-06
9.21757e-07
6.46853e-07
-1.37976e-06
-1.20193e-06
8.7605e-07
1.09439e-06
8.04515e-07
-1.34873e-06
3.40351e-07
1.15718e-06
1.19319e-06
-1.39336e-06
-4.75191e-07
1.26089e-06
1.59308e-06
-1.4304e-06
-1.04031e-06
1.24185e-06
1.13431e-06
-1.41466e-06
-1.3893e-06
1.19013e-06
7.57662e-07
-1.36618e-06
9.63292e-07
6.30183e-07
-1.60205e-06
-1.2102e-06
1.32494e-06
4.66469e-07
7.89697e-07
-1.44537e-06
1.40261e-06
8.89386e-07
1.66864e-06
8.34935e-07
9.55941e-07
2.79013e-06
-5.72304e-07
1.15938e-06
3.83197e-06
-1.39584e-06
1.16931e-06
2.8338e-06
-1.52789e-06
1.1235e-06
1.61492e-06
6.05662e-07
7.37524e-07
-1.69957e-06
1.26664e-06
-7.34234e-08
1.11035e-06
-1.44578e-06
1.50152e-06
3.45432e-08
2.58594e-06
2.33025e-06
5.6512e-07
7.52816e-06
-9.45466e-07
1.24722e-06
1.2218e-05
-1.24512e-06
7.20359e-07
8.43762e-06
-1.34565e-06
2.67729e-07
2.98695e-06
8.54216e-08
1.12151e-06
-1.57533e-06
9.91085e-07
-4.69868e-07
1.32597e-06
-1.3927e-06
1.07064e-06
-9.17711e-07
3.10793e-06
2.21431e-06
-1.29165e-06
1.07948e-05
1.80446e-06
1.85487e-06
2.98764e-05
-2.24929e-07
-1.36283e-06
1.52803e-05
-9.24975e-07
-8.79319e-07
4.54904e-06
-5.59438e-07
1.62388e-06
-1.28088e-06
9.09745e-07
-8.43107e-07
1.07422e-06
-1.2417e-06
8.56357e-07
-1.33187e-06
2.48106e-06
1.04178e-06
-9.45653e-07
8.11903e-06
-1.08555e-07
1.3088e-07
1.57897e-05
-7.74768e-07
-1.15272e-06
8.67268e-06
-1.05343e-06
-1.40136e-06
2.83518e-06
-9.04763e-07
1.07016e-06
-1.42209e-06
9.09944e-07
-1.12973e-06
7.80883e-07
-1.20087e-06
7.56068e-07
-1.25171e-06
1.54342e-06
1.88499e-07
-9.02299e-07
2.47375e-06
-2.45582e-07
-3.25563e-07
3.37643e-06
-9.91914e-07
-1.01138e-06
2.46151e-06
-1.22102e-06
-1.28371e-06
1.45489e-06
-1.1435e-06
7.24118e-07
-1.51446e-06
8.50282e-07
6.52889e-07
-1.15446e-06
-1.31827e-06
4.02541e-07
7.84307e-07
-1.37516e-06
-1.90503e-08
1.03543e-06
-1.16626e-06
-2.5022e-07
1.2451e-06
-8.52747e-07
-6.83264e-07
9.58738e-07
-1.23083e-06
-1.12206e-06
7.32859e-07
-1.38277e-06
6.33931e-07
-1.41985e-06
-1.32073e-06
1.27634e-06
1.16776e-06
1.37802e-06
-1.64968e-06
-1.52558e-06
7.82881e-07
1.28555e-06
1.59739e-06
-1.58537e-06
1.13744e-07
1.25319e-06
2.16868e-06
-1.55929e-06
-5.40126e-07
8.43041e-07
2.72919e-06
-1.32548e-06
-1.09523e-06
9.99288e-07
2.10805e-06
-1.41772e-06
-1.47945e-06
1.01145e-06
1.54285e-06
-1.41224e-06
9.30483e-07
1.35794e-06
-1.78474e-06
-1.35283e-06
1.41841e-06
6.69682e-07
1.58151e-06
-1.71159e-06
1.15184e-06
7.81709e-07
2.43952e-06
4.73591e-07
6.58629e-07
4.06325e-06
-4.8424e-07
-1.53081e-07
5.78623e-06
-1.23137e-06
3.25384e-07
4.25518e-06
-1.56233e-06
4.83508e-07
2.47395e-06
3.86958e-07
1.52303e-06
-1.80414e-06
1.4698e-06
2.51923e-08
1.98372e-06
-1.69911e-06
1.31998e-06
-1.02623e-07
3.62003e-06
1.36241e-06
-1.75313e-07
8.31997e-06
-6.04233e-08
-1.49376e-06
1.49822e-05
-7.69247e-07
-8.7916e-07
1.0352e-05
-1.22512e-06
-3.78535e-07
4.30483e-06
-1.56941e-07
2.04044e-06
-1.60088e-06
1.29986e-06
-5.55854e-07
2.2209e-06
-1.61354e-06
1.14035e-06
-9.78802e-07
4.14385e-06
2.55091e-06
-1.7368e-06
1.09462e-05
3.30453e-06
-3.60165e-07
2.79909e-05
1.34479e-06
-1.0687e-06
1.74341e-05
-2.09819e-07
-5.78589e-07
6.30424e-06
-2.90056e-07
2.63102e-06
-1.08403e-06
1.1293e-06
-9.85431e-07
1.91736e-06
-1.5427e-06
6.37876e-07
-1.31984e-06
3.31365e-06
3.82371e-07
-1.17726e-06
7.81556e-06
6.12624e-07
2.66145e-07
1.49332e-05
-2.40322e-07
-7.66782e-07
9.22447e-06
-9.75597e-07
-9.48976e-07
3.94103e-06
-6.60736e-07
1.95472e-06
-1.48932e-06
1.05915e-06
-1.32724e-06
1.57202e-06
-1.50846e-06
5.41463e-07
-1.4327e-06
2.17407e-06
-1.42047e-07
-1.27046e-06
3.25112e-06
-2.00156e-07
-4.46952e-07
4.14804e-06
-8.30641e-07
-1.01485e-06
3.34023e-06
-1.31272e-06
-1.16727e-06
2.15541e-06
-1.10307e-06
1.51313e-06
-1.65923e-06
1.01135e-06
1.40279e-06
-1.46286e-06
-1.6257e-06
4.22886e-07
1.56997e-06
-1.63012e-06
-1.85089e-07
1.85225e-06
-1.47968e-06
-3.27856e-07
2.05973e-06
-1.11781e-06
-7.94461e-07
1.78973e-06
-1.37909e-06
-1.26311e-06
1.51876e-06
-1.48437e-06
1.38204e-06
-1.6376e-06
-1.47656e-06
1.54722e-06
1.6267e-06
2.70431e-06
-2.26873e-06
-2.23145e-06
7.37282e-07
1.5691e-06
2.95403e-06
-2.11543e-06
-8.96518e-08
1.30786e-06
3.56096e-06
-1.87291e-06
-5.78995e-07
5.07637e-07
4.13501e-06
-1.42385e-06
-1.14395e-06
7.90015e-07
3.50498e-06
-1.62167e-06
-1.72857e-06
1.05703e-06
2.90596e-06
-1.8352e-06
1.25736e-06
2.6882e-06
-2.33516e-06
-1.98082e-06
1.53531e-06
9.67616e-07
2.93335e-06
-2.22773e-06
9.09287e-07
8.58146e-07
3.77707e-06
1.44364e-07
5.73516e-07
5.56295e-06
-5.57539e-07
-7.33465e-07
7.7298e-06
-1.13065e-06
-1.9308e-07
5.81221e-06
-1.61815e-06
2.17956e-07
3.80103e-06
4.99768e-07
2.88369e-06
-2.22099e-06
1.52395e-06
2.35779e-07
3.34081e-06
-2.14932e-06
1.05452e-06
-3.71713e-08
4.98537e-06
6.50525e-07
-4.71265e-07
9.76938e-06
-1.30919e-07
-2.87185e-06
1.79035e-05
-5.86612e-07
-1.59107e-06
1.22083e-05
-1.13946e-06
-5.26034e-07
5.60246e-06
-5.37871e-08
3.36237e-06
-1.90769e-06
1.45252e-06
-4.66708e-07
3.56051e-06
-2.08926e-06
9.89447e-07
-8.62782e-07
5.43316e-06
1.8227e-06
-1.93331e-06
1.15763e-05
2.86144e-06
-2.62986e-06
2.67141e-05
1.0863e-06
-1.06492e-06
1.86895e-05
-1.86656e-07
-3.42658e-07
7.3956e-06
-7.15276e-08
3.86674e-06
-1.40435e-06
1.47416e-06
-1.11355e-06
3.25174e-06
-2.16132e-06
7.33916e-07
-1.34327e-06
4.53493e-06
1.60261e-07
-1.4953e-06
7.95254e-06
1.55852e-07
-5.71251e-07
1.28824e-05
-4.17165e-07
-7.41254e-07
9.4756e-06
-1.22932e-06
-6.9431e-07
5.10516e-06
-6.26766e-07
3.26941e-06
-1.98846e-06
1.54603e-06
-1.75593e-06
2.90898e-06
-2.24036e-06
7.4716e-07
-1.79312e-06
3.4233e-06
-1.57128e-07
-1.74153e-06
4.40253e-06
-5.51344e-07
-1.16279e-06
5.13374e-06
-1.16337e-06
-1.30082e-06
4.51215e-06
-1.75008e-06
-1.36005e-06
3.40819e-06
-1.43006e-06
2.86319e-06
-2.29651e-06
1.57567e-06
2.72386e-06
-2.27447e-06
-2.378e-06
7.79853e-07
2.90108e-06
-2.32816e-06
-6.75974e-08
3.16294e-06
-2.20427e-06
-5.81039e-07
3.3366e-06
-1.92574e-06
-1.19232e-06
3.11803e-06
-2.01713e-06
-1.79214e-06
2.8617e-06
-2.10289e-06
2.70709e-06
-2.37898e-06
-2.16806e-06
1.71576e-06
1.91568e-06
-2.57515e-06
-2.64934e-06
4.29739e-06
7.87479e-07
1.78884e-06
-2.48076e-06
4.57437e-06
-1.1869e-07
1.46637e-06
-2.17789e-06
5.17891e-06
-6.17679e-07
5.95808e-07
-1.69622e-06
5.73469e-06
-1.22225e-06
9.52727e-07
-1.94234e-06
5.09959e-06
-1.92075e-06
1.34315e-06
-2.24159e-06
4.50333e-06
1.61379e-06
-2.66379e-06
-2.44836e-06
4.26615e-06
1.62905e-06
1.18407e-06
-2.51858e-06
4.55462e-06
8.03609e-07
1.00023e-06
5.39158e-06
-5.03768e-08
6.90554e-07
7.1932e-06
-6.45925e-07
-5.51196e-07
9.47303e-06
-1.1783e-06
-9.67858e-08
7.39535e-06
-1.79302e-06
4.3329e-07
5.32681e-06
7.96789e-07
-2.5668e-06
4.47494e-06
1.56088e-06
4.09431e-07
-2.41579e-06
4.97066e-06
8.28567e-07
1.01312e-07
6.61724e-06
2.38768e-07
-5.4914e-07
1.15997e-05
-2.67682e-07
-3.1526e-06
2.10136e-05
-7.01382e-07
-1.41591e-06
1.39643e-05
-1.3825e-06
-2.31803e-07
6.95086e-06
1.84299e-07
-2.30573e-06
4.89888e-06
1.5298e-06
-3.55586e-07
-2.37503e-06
5.17116e-06
7.65862e-07
-6.69262e-07
6.96855e-06
7.07924e-07
-1.7249e-06
1.28118e-05
1.47731e-06
-2.88798e-06
2.56866e-05
1.74252e-07
-1.11198e-06
1.96887e-05
-7.50861e-07
-2.5008e-07
8.34034e-06
-2.62862e-08
-1.96959e-06
5.29643e-06
1.75071e-06
-1.16453e-06
-2.54896e-06
4.85939e-06
9.34046e-07
-1.33838e-06
6.02145e-06
1.65425e-07
-1.68052e-06
8.67819e-06
-3.71043e-07
-1.38793e-06
1.19257e-05
-9.84346e-07
-9.89291e-07
9.96881e-06
-1.74467e-06
-7.76924e-07
6.39266e-06
-7.81458e-07
-2.52607e-06
4.8064e-06
1.9062e-06
-1.98707e-06
-2.68315e-06
4.50896e-06
1.03219e-06
-2.02132e-06
4.98091e-06
-2.48206e-09
-2.08478e-06
5.84164e-06
-8.79086e-07
-1.83157e-06
6.45463e-06
-1.55942e-06
-1.70239e-06
5.90602e-06
-2.17315e-06
-1.6705e-06
4.91588e-06
-1.73659e-06
-2.79274e-06
4.43829e-06
1.93586e-06
-2.72803e-06
-2.77587e-06
4.30529e-06
1.07038e-06
-2.74304e-06
4.48901e-06
8.79442e-08
-2.67668e-06
4.73759e-06
-7.55701e-07
-2.53282e-06
4.88002e-06
-1.49252e-06
-2.52714e-06
4.68004e-06
-2.16631e-06
-2.56631e-06
4.43166e-06
-2.84947e-06
-2.61716e-06
4.27109e-06
-2.26793e-06
-4.636e-08
1.07634e-07
1.83869e-07
-2.41355e-06
-1.6284e-07
1.29897e-07
2.10498e-07
-2.62251e-06
-1.32937e-07
1.44472e-07
2.02521e-07
-2.85112e-06
-1.22519e-07
1.52179e-07
2.09415e-07
-3.07504e-06
-1.20396e-07
1.52779e-07
2.14955e-07
-3.28757e-06
-1.26231e-07
1.47223e-07
2.18738e-07
-3.46651e-06
-1.31761e-07
1.35452e-07
2.1873e-07
-1.36826e-07
1.17479e-07
2.14713e-07
-3.61215e-06
-2.41435e-06
-1.86635e-08
1.26083e-07
-2.60627e-06
-2.09737e-07
1.52159e-07
-2.78588e-06
-1.17633e-07
1.69551e-07
-2.9906e-06
-7.79281e-08
1.76744e-07
-3.22523e-06
-6.33231e-08
1.78987e-07
-3.44302e-06
-5.91272e-08
1.71454e-07
-3.6274e-06
-5.95391e-08
1.56944e-07
-6.56884e-08
1.36919e-07
-3.78591e-06
-2.1872e-06
-5.99576e-08
1.45134e-07
-2.36913e-06
-1.27173e-07
1.72384e-07
-2.55837e-06
-7.56725e-08
1.88659e-07
-2.76356e-06
-6.08165e-08
1.95222e-07
-2.9807e-06
-4.83169e-08
1.9289e-07
-3.18405e-06
-4.13547e-08
1.81834e-07
-3.37953e-06
-3.61848e-08
1.63472e-07
-3.15766e-08
1.45126e-07
-3.57402e-06
-2.04214e-06
-1.08363e-07
1.61376e-07
-2.20706e-06
-2.64096e-08
1.69087e-07
-2.39799e-06
-6.93695e-08
1.84588e-07
-2.58404e-06
-7.60062e-08
1.96066e-07
-2.77501e-06
-6.7526e-08
1.92302e-07
-2.94672e-06
-5.92757e-08
1.81693e-07
-3.10303e-06
-5.33657e-08
1.62339e-07
-4.29386e-08
1.42765e-07
-3.25471e-06
-2.15496e-06
-1.15546e-07
1.43372e-07
-2.35101e-06
6.06359e-08
1.69324e-07
-2.58517e-06
-1.64254e-08
1.8745e-07
-2.79379e-06
-3.33487e-08
1.95842e-07
-3.03205e-06
-3.92007e-08
1.93735e-07
-3.25735e-06
-3.03527e-08
1.8411e-07
-3.44363e-06
-1.82764e-08
1.65393e-07
-3.32357e-09
1.47867e-07
-3.64446e-06
-2.4278e-06
-7.94159e-08
1.21891e-07
-2.63032e-06
6.19798e-08
1.51957e-07
-2.82851e-06
4.9377e-08
1.71315e-07
-3.05183e-06
3.40557e-08
1.82414e-07
-3.27826e-06
3.06425e-08
1.83682e-07
-3.49278e-06
3.70905e-08
1.76754e-07
-3.67464e-06
4.39313e-08
1.6273e-07
5.11274e-08
1.42057e-07
-3.81682e-06
-2.30362e-06
1.04376e-07
6.34712e-08
-2.43691e-06
1.27342e-07
1.02717e-07
-2.64697e-06
1.4401e-07
1.10726e-07
-2.89242e-06
1.53309e-07
1.0962e-07
-3.09628e-06
1.56335e-07
1.1294e-07
-3.29373e-06
1.52107e-07
1.16188e-07
-3.46177e-06
1.41193e-07
1.17347e-07
1.243e-07
1.15676e-07
-3.59076e-06
-1.96885e-06
-7.89409e-08
3.64156e-07
1.82919e-07
-2.34674e-06
-8.65254e-08
4.06098e-07
1.81933e-07
-2.72893e-06
-8.50005e-08
4.25874e-07
1.79502e-07
-3.10092e-06
-8.37758e-08
4.22464e-07
1.78881e-07
-3.44598e-06
-8.39478e-08
3.97177e-07
1.78907e-07
-3.75058e-06
-8.5102e-08
3.52991e-07
1.78987e-07
-4.00548e-06
-8.67565e-08
2.94641e-07
1.78819e-07
-8.85873e-08
2.27691e-07
1.78383e-07
-4.20779e-06
-2.04553e-06
-8.68908e-08
4.73683e-07
-2.42061e-06
-8.14936e-08
5.11013e-07
-2.81069e-06
-6.76186e-08
5.29825e-07
-3.19407e-06
-5.75768e-08
5.22154e-07
-3.54696e-06
-5.14608e-08
4.88044e-07
-3.85394e-06
-4.83351e-08
4.31088e-07
-4.10216e-06
-4.73846e-08
3.57323e-07
-4.79201e-08
2.74215e-07
-4.28655e-06
-1.95609e-06
-1.36849e-07
5.61314e-07
-2.3454e-06
-1.11715e-07
5.78022e-07
-2.74885e-06
-8.59808e-08
5.98027e-07
-3.14436e-06
-6.95086e-08
5.89982e-07
-3.50765e-06
-5.79922e-08
5.51303e-07
-3.82175e-06
-5.0059e-08
4.86078e-07
-4.0727e-06
-4.45525e-08
4.02319e-07
-4.05733e-08
3.0825e-07
-4.2523e-06
-1.76078e-06
-1.36984e-07
6.23983e-07
-2.20614e-06
-9.75264e-08
5.95141e-07
-2.64861e-06
-8.66719e-08
6.16131e-07
-3.06748e-06
-7.73468e-08
6.10308e-07
-3.44808e-06
-6.81519e-08
5.71557e-07
-3.77288e-06
-5.97063e-08
5.04022e-07
-4.02921e-06
-5.20753e-08
4.16709e-07
-4.51077e-08
3.18449e-07
-4.20985e-06
-1.85978e-06
-1.33359e-07
5.63368e-07
-2.28248e-06
-1.00135e-07
5.82882e-07
-2.71044e-06
-8.8253e-08
6.03193e-07
-3.12264e-06
-7.79393e-08
5.95663e-07
-3.49754e-06
-6.83888e-08
5.57376e-07
-3.81896e-06
-5.90894e-08
4.926e-07
-4.07486e-06
-5.00118e-08
4.0938e-07
-4.12028e-08
3.15466e-07
-4.25524e-06
-1.91726e-06
-9.41002e-08
4.78454e-07
-2.33215e-06
-6.37641e-08
5.18268e-07
-2.75118e-06
-4.86922e-08
5.38858e-07
-3.15313e-06
-3.76941e-08
5.32596e-07
-3.51998e-06
-2.83377e-08
4.99889e-07
-3.83597e-06
-1.95766e-08
4.44009e-07
-4.09051e-06
-1.14738e-08
3.71063e-07
-4.09625e-09
2.88418e-07
-4.27951e-06
-1.83063e-06
3.68574e-07
4.72805e-08
-2.24355e-06
4.11993e-07
5.86284e-08
-2.6526e-06
4.3354e-07
6.59275e-08
-3.04673e-06
4.3233e-07
7.04768e-08
-3.40832e-06
4.09308e-07
7.44105e-08
-3.7258e-06
3.6716e-07
7.79045e-08
-3.99152e-06
3.10752e-07
8.10091e-08
2.45545e-07
8.38335e-08
-4.20294e-06
-2.3225e-06
-7.76041e-08
7.87468e-07
1.92072e-07
-2.90976e-06
-5.90595e-08
8.74243e-07
1.78157e-07
-3.52678e-06
-4.45236e-08
9.19571e-07
1.67829e-07
-4.15087e-06
-3.60051e-08
9.21902e-07
1.60672e-07
-4.75935e-06
-3.19373e-08
8.82108e-07
1.55496e-07
-5.32877e-06
-3.06886e-08
8.01503e-07
1.5162e-07
-5.83305e-06
-3.11317e-08
6.8144e-07
1.48643e-07
-3.25168e-08
5.26894e-07
1.46334e-07
-6.24603e-06
-2.34314e-06
-9.92e-08
1.03433e-06
-2.946e-06
-5.47881e-08
1.10967e-06
-3.581e-06
-2.81181e-08
1.14846e-06
-4.22127e-06
-1.23335e-08
1.13878e-06
-4.84085e-06
-3.94183e-09
1.07968e-06
-5.413e-06
4.34922e-10
9.7218e-07
-5.90629e-06
1.86422e-09
8.177e-07
1.37582e-09
6.23185e-07
-6.28906e-06
-2.2105e-06
-1.58083e-07
1.22973e-06
-2.85484e-06
-9.99023e-08
1.26854e-06
-3.52322e-06
-6.56028e-08
1.30399e-06
-4.19035e-06
-4.53278e-08
1.29022e-06
-4.83061e-06
-3.31397e-08
1.2209e-06
-5.41516e-06
-2.53389e-08
1.09656e-06
-5.90942e-06
-2.01624e-08
9.1877e-07
-1.66217e-08
6.95974e-07
-6.27899e-06
-1.90853e-06
-6.26896e-08
1.35085e-06
-2.67328e-06
-6.65178e-08
1.3272e-06
-3.40975e-06
-7.17529e-08
1.35883e-06
-4.11794e-06
-7.19244e-08
1.34527e-06
-4.78473e-06
-6.82308e-08
1.27363e-06
-5.38678e-06
-6.31167e-08
1.14404e-06
-5.89081e-06
-5.75538e-08
9.58313e-07
-5.17989e-08
7.25557e-07
-6.26255e-06
-2.14417e-06
-8.14435e-08
1.23695e-06
-2.81149e-06
-9.57161e-08
1.27957e-06
-3.49366e-06
-1.00269e-07
1.31406e-06
-4.17074e-06
-9.89995e-08
1.30002e-06
-4.81812e-06
-9.44027e-08
1.23112e-06
-5.40795e-06
-8.79964e-08
1.10748e-06
-5.9057e-06
-8.06747e-08
9.30404e-07
-7.29002e-08
7.08212e-07
-6.27719e-06
-2.23947e-06
-7.19527e-08
1.04935e-06
-2.87214e-06
-7.03894e-08
1.12576e-06
-3.52842e-06
-6.96259e-08
1.16466e-06
-4.18418e-06
-6.65749e-08
1.15607e-06
-4.81545e-06
-6.17209e-08
1.09861e-06
-5.39642e-06
-5.57959e-08
9.9289e-07
-5.89655e-06
-4.9421e-08
8.40036e-07
-4.30443e-08
6.46877e-07
-6.28477e-06
-2.21355e-06
8.01064e-07
7.16391e-08
-2.8306e-06
8.88934e-07
6.98331e-08
-3.47069e-06
9.36147e-07
6.79548e-08
-4.11251e-06
9.41183e-07
6.64533e-08
-4.73491e-06
9.04483e-07
6.55647e-08
-5.31576e-06
8.27028e-07
6.52396e-08
-5.82974e-06
7.09961e-07
6.53674e-08
5.58164e-07
6.58704e-08
-6.25125e-06
-3.29644e-06
1.92814e-08
1.58098e-06
1.48509e-07
-4.38172e-06
5.6817e-08
1.77663e-06
1.26013e-07
-5.54296e-06
8.38681e-08
1.88827e-06
1.0851e-07
-6.70959e-06
9.81846e-08
1.89578e-06
9.44003e-08
-7.79273e-06
1.03308e-07
1.77889e-06
8.28892e-08
-8.68969e-06
1.01853e-07
1.52292e-06
7.3555e-08
-9.29198e-06
9.55509e-08
1.12193e-06
6.61461e-08
8.60903e-08
5.71602e-07
6.05679e-08
-9.48343e-06
-3.21775e-06
-4.27197e-09
2.05474e-06
-4.34722e-06
5.99034e-08
2.23605e-06
-5.55128e-06
9.58692e-08
2.34047e-06
-6.76242e-06
1.14531e-07
2.33348e-06
-7.88765e-06
1.21681e-07
2.18647e-06
-8.8121e-06
1.20687e-07
1.87773e-06
-9.40769e-06
1.13277e-07
1.39551e-06
1.00594e-07
7.28202e-07
-9.52726e-06
-3.01647e-06
-6.51387e-08
2.39891e-06
-4.22042e-06
-1.16498e-08
2.54406e-06
-5.47799e-06
1.25417e-08
2.64486e-06
-6.73382e-06
2.63833e-08
2.63419e-06
-7.89801e-06
3.36716e-08
2.47313e-06
-8.84974e-06
3.5933e-08
2.13312e-06
-9.44903e-06
3.45489e-08
1.59685e-06
3.03259e-08
8.46036e-07
-9.52876e-06
-2.722e-06
3.39175e-08
2.56931e-06
-4.04146e-06
-2.8212e-08
2.66341e-06
-5.37184e-06
-5.5819e-08
2.75774e-06
-6.67437e-06
-7.1226e-08
2.74557e-06
-7.87027e-06
-7.69749e-08
2.58034e-06
-8.84324e-06
-7.70006e-08
2.2301e-06
-9.45225e-06
-7.31098e-08
1.67511e-06
-6.61751e-08
8.94292e-07
-9.52435e-06
-3.06911e-06
-5.28538e-08
2.4047e-06
-4.25831e-06
-1.13665e-07
2.55448e-06
-5.50754e-06
-1.46914e-07
2.65462e-06
-6.75957e-06
-1.62501e-07
2.64354e-06
-7.92125e-06
-1.66763e-07
2.48277e-06
-8.87117e-06
-1.63021e-07
2.14357e-06
-9.46922e-06
-1.52957e-07
1.6084e-06
-1.37736e-07
8.58326e-07
-9.54765e-06
-3.27875e-06
-8.81151e-08
2.06714e-06
-4.39899e-06
-1.18409e-07
2.25097e-06
-5.59761e-06
-1.39247e-07
2.35581e-06
-6.80482e-06
-1.48788e-07
2.34971e-06
-7.92717e-06
-1.49973e-07
2.20426e-06
-8.84977e-06
-1.4508e-07
1.89761e-06
-9.44469e-06
-1.35765e-07
1.41778e-06
-1.23701e-07
7.52051e-07
-9.56386e-06
-3.3486e-06
1.59392e-06
8.88453e-08
-4.43911e-06
1.79092e-06
7.0272e-08
-5.60189e-06
1.90408e-06
5.56925e-08
-6.76788e-06
1.91382e-06
4.45948e-08
-7.84948e-06
1.79994e-06
3.61729e-08
-8.74527e-06
1.54779e-06
2.99323e-08
-9.34782e-06
1.15118e-06
2.54972e-08
6.04257e-07
2.26235e-08
-9.54028e-06
-3.82018e-06
1.38261e-07
7.97903e-08
2.51977e-06
-5.17585e-06
1.84281e-07
4.91908e-08
2.89929e-06
-6.72506e-06
2.21405e-07
2.28279e-08
3.19347e-06
-8.44742e-06
2.47826e-07
6.3628e-10
3.36981e-06
-1.03186e-05
2.68723e-07
-2.14587e-08
3.40288e-06
-1.23172e-05
2.8391e-07
-3.79537e-08
3.27547e-06
-1.44195e-05
2.86541e-07
-4.96288e-08
2.98722e-06
2.71751e-07
-5.61242e-08
-1.66473e-05
2.5836e-06
-3.7674e-06
1.37003e-07
3.25686e-06
-5.15278e-06
1.87901e-07
3.61794e-06
-6.72135e-06
2.26989e-07
3.90355e-06
-8.46047e-06
2.5235e-07
4.0681e-06
-1.03472e-05
2.69284e-07
4.07267e-06
-1.23517e-05
2.78888e-07
3.88716e-06
-1.4452e-05
2.77892e-07
3.50425e-06
2.61508e-07
-1.66991e-05
2.98544e-06
-3.60396e-06
5.73827e-08
3.77734e-06
-5.04852e-06
7.84435e-08
4.09841e-06
-6.65029e-06
9.84897e-08
4.37533e-06
-8.41159e-06
1.10326e-07
4.53759e-06
-1.03173e-05
1.16751e-07
4.53134e-06
-1.2338e-05
1.19284e-07
4.31333e-06
-1.44487e-05
1.17e-07
3.86826e-06
1.07992e-07
-1.67176e-05
3.2682e-06
-3.41841e-06
7.31527e-08
4.00439e-06
-4.94678e-06
-1.10877e-08
4.28162e-06
-6.59443e-06
-4.50121e-08
4.54911e-06
-8.38049e-06
-6.71569e-08
4.70925e-06
-1.03026e-05
-8.05565e-08
4.69979e-06
-1.23359e-05
-8.87973e-08
4.4713e-06
-1.44559e-05
-9.27548e-08
4.00484e-06
-9.12872e-08
-1.67393e-05
3.37684e-06
-3.74598e-06
-7.66606e-08
3.7748e-06
-5.15854e-06
-1.47845e-07
4.10404e-06
-6.73934e-06
-1.9226e-07
4.38284e-06
-8.48792e-06
-2.20457e-07
4.54549e-06
-1.03859e-05
-2.39361e-07
4.53946e-06
-1.2402e-05
-2.51084e-07
4.32192e-06
-1.4511e-05
-2.5346e-07
3.87796e-06
-2.4236e-07
-1.67825e-05
3.28098e-06
-3.94348e-06
-1.20692e-07
3.26219e-06
-5.30372e-06
-1.65662e-07
3.62922e-06
-6.85702e-06
-1.996e-07
3.91657e-06
-8.58712e-06
-2.22575e-07
4.08192e-06
-1.047e-05
-2.3985e-07
4.08747e-06
-1.24741e-05
-2.52725e-07
3.90328e-06
-1.4577e-05
-2.55429e-07
3.52258e-06
-2.43636e-07
-1.68319e-05
3.00825e-06
-3.99999e-06
9.47514e-08
2.52924e-06
-5.35299e-06
6.73237e-08
2.91111e-06
-6.90013e-06
4.52475e-08
3.20641e-06
-8.62093e-06
2.78087e-08
3.38418e-06
-1.04944e-05
1.40416e-08
3.41946e-06
-1.2498e-05
3.49587e-09
3.29517e-06
-1.46086e-05
-4.85887e-09
3.01116e-06
-1.12396e-08
-1.685e-05
2.61309e-06
-1.70553e-06
-1.56624e-07
1.01082e-07
7.44321e-08
-1.83401e-06
-1.92005e-08
1.23848e-07
1.21336e-08
-2.0178e-06
9.36468e-08
1.398e-07
-2.09037e-08
-2.30686e-06
2.3281e-07
1.48261e-07
-7.30054e-08
-2.62476e-06
2.97488e-07
1.48862e-07
-9.66621e-08
-2.89742e-06
2.56925e-07
1.42308e-07
-8.54068e-08
-3.10264e-06
1.88215e-07
1.30112e-07
-5.55545e-08
1.31038e-07
1.12089e-07
-2.8264e-08
-3.25152e-06
-1.38018e-06
-3.46176e-07
1.13449e-07
-1.53903e-06
4.84615e-08
1.34143e-07
-1.73328e-06
1.24109e-07
1.51019e-07
-1.95056e-06
2.77842e-07
1.58391e-07
-2.18127e-06
3.43187e-07
1.5469e-07
-2.43057e-06
3.00862e-07
1.42673e-07
-2.65006e-06
2.35402e-07
1.26422e-07
1.86732e-07
1.04243e-07
-2.78273e-06
-2.43005e-06
-1.05841e-07
1.24752e-07
-2.63195e-06
1.24321e-07
1.22842e-07
-2.78376e-06
1.27873e-07
1.38131e-07
-2.8612e-06
1.89336e-07
1.47112e-07
-2.91734e-06
2.28799e-07
1.44595e-07
-2.99614e-06
2.27909e-07
1.30327e-07
-3.08892e-06
2.00345e-07
1.06656e-07
1.63858e-07
7.68522e-08
-3.15764e-06
-2.89655e-06
2.40221e-07
2.19481e-07
-3.07685e-06
9.1495e-08
2.13346e-07
-3.26355e-06
1.09991e-07
2.04729e-07
-3.34437e-06
8.25249e-08
1.87718e-07
-3.32344e-06
2.91642e-08
1.78747e-07
-3.25683e-06
-2.00125e-09
1.63286e-07
-3.19668e-06
-1.16083e-10
1.40262e-07
-1.43343e-08
1.12525e-07
-3.13106e-06
-2.50807e-06
4.31658e-07
1.42335e-07
-2.72763e-06
1.86442e-07
1.35769e-07
-2.92427e-06
1.73949e-07
1.4455e-07
-3.02475e-06
3.63699e-08
1.4886e-07
-3.0649e-06
-7.90522e-08
1.42961e-07
-3.09685e-06
-1.05615e-07
1.26871e-07
-3.15514e-06
-4.79662e-08
1.01876e-07
-5.20603e-08
7.16068e-08
-3.19281e-06
-1.58524e-06
2.84489e-07
1.19551e-07
-1.67281e-06
2.35298e-07
1.37255e-07
-1.78788e-06
1.24785e-07
1.51283e-07
-1.9248e-06
5.96554e-09
1.58316e-07
-2.12137e-06
-8.45029e-08
1.55171e-07
-2.33357e-06
-8.69464e-08
1.43903e-07
-2.51213e-06
-1.68729e-08
1.2573e-07
-3.28764e-09
1.01905e-07
-2.66494e-06
-1.81358e-06
1.02707e-07
2.61118e-07
-1.86714e-06
1.26644e-07
1.87984e-07
-2.01803e-06
1.41342e-07
1.40378e-07
-2.24716e-06
1.47813e-07
1.07741e-07
-2.51964e-06
1.46349e-07
8.45852e-08
-2.79322e-06
1.37564e-07
8.94366e-08
-3.00056e-06
1.219e-07
1.05151e-07
1.01162e-07
1.10275e-07
-3.1755e-06
-1.55192e-06
1.8968e-07
3.70836e-07
-6.57774e-08
-1.9623e-06
1.69936e-07
4.11619e-07
-5.37651e-08
-2.37622e-06
1.62939e-07
4.31143e-07
-4.61573e-08
-2.77925e-06
1.60903e-07
4.26964e-07
-4.20604e-08
-3.15538e-06
1.58175e-07
4.00067e-07
-3.82614e-08
-3.48962e-06
1.52197e-07
3.53697e-07
-3.33094e-08
-3.77172e-06
1.44501e-07
2.92638e-07
-2.77645e-08
1.37022e-07
2.22568e-07
-2.25893e-08
-3.99804e-06
-1.59199e-06
1.95016e-07
4.86311e-07
-1.99421e-06
1.84583e-07
5.13029e-07
-2.39996e-06
1.80286e-07
5.27473e-07
-2.79102e-06
1.83597e-07
5.1625e-07
-3.15314e-06
1.85778e-07
4.77917e-07
-3.46842e-06
1.84456e-07
4.16038e-07
-3.72583e-06
1.80638e-07
3.36715e-07
1.76851e-07
2.47369e-07
-3.91673e-06
-1.6764e-06
1.5883e-07
5.95778e-07
-2.10007e-06
1.43748e-07
5.87499e-07
-2.50376e-06
1.28507e-07
5.93743e-07
-2.87843e-06
1.26471e-07
5.7904e-07
-3.20916e-06
1.25319e-07
5.3592e-07
-3.48262e-06
1.2244e-07
4.65923e-07
-3.68897e-06
1.18277e-07
3.75469e-07
1.14408e-07
2.72921e-07
-3.82249e-06
-1.84408e-06
1.36891e-07
6.93051e-07
-2.22418e-06
8.23978e-08
6.54967e-07
-2.59e-06
6.36315e-08
6.35575e-07
-2.93718e-06
4.4564e-08
6.16958e-07
-3.23326e-06
2.7502e-08
5.72798e-07
-3.46352e-06
1.30374e-08
5.03081e-07
-3.61814e-06
1.11631e-10
4.13177e-07
-8.74062e-09
3.11528e-07
-3.69388e-06
-1.81716e-06
5.33699e-08
5.97755e-07
-2.20082e-06
1.56608e-08
5.86325e-07
-2.58051e-06
-3.55291e-09
5.91586e-07
-2.93783e-06
-2.49703e-08
5.7588e-07
-3.25413e-06
-4.47925e-08
5.31727e-07
-3.51516e-06
-5.96366e-08
4.60714e-07
-3.71211e-06
-7.03203e-08
3.69362e-07
-7.91558e-08
2.66221e-07
-3.83622e-06
-1.77535e-06
7.07141e-09
4.82024e-07
-2.13317e-06
-1.86379e-09
5.07326e-07
-2.50413e-06
-1.16779e-08
5.2044e-07
-2.86696e-06
-2.12763e-08
5.08085e-07
-3.20561e-06
-2.95815e-08
4.6844e-07
-3.5029e-06
-3.42426e-08
4.05323e-07
-3.7453e-06
-3.64811e-08
3.24471e-07
-3.85519e-08
2.33314e-07
-3.925e-06
-1.7304e-06
3.65798e-07
8.81257e-08
-2.10204e-06
4.05414e-07
8.38105e-08
-2.48266e-06
4.23076e-07
8.0067e-08
-2.85809e-06
4.16546e-07
7.80175e-08
-3.21067e-06
3.86937e-07
7.67019e-08
-3.52561e-06
3.37583e-07
7.62636e-08
-3.79302e-06
2.7362e-07
7.62172e-08
2.00814e-07
7.57825e-08
-4.00899e-06
-2.0605e-06
2.35556e-07
8.04568e-07
-7.17381e-08
-2.69083e-06
2.11249e-07
8.88678e-07
-5.81046e-08
-3.34172e-06
1.97289e-07
9.33245e-07
-4.86616e-08
-3.99428e-06
1.8621e-07
9.34965e-07
-4.17484e-08
-4.62782e-06
1.75916e-07
8.93818e-07
-3.61906e-08
-5.21962e-06
1.65968e-07
8.10863e-07
-3.14091e-08
-5.74378e-06
1.5649e-07
6.87464e-07
-2.7167e-08
1.47708e-07
5.28693e-07
-2.33596e-08
-6.17425e-06
-2.11382e-06
2.62721e-07
1.06405e-06
-2.74432e-06
2.27284e-07
1.12738e-06
-3.39139e-06
2.11596e-07
1.16015e-06
-4.03784e-06
2.01731e-07
1.14711e-06
-4.66141e-06
1.92831e-07
1.08456e-06
-5.23572e-06
1.83831e-07
9.72487e-07
-5.72928e-06
1.74809e-07
8.12006e-07
1.66059e-07
6.09955e-07
-6.11015e-06
-2.14017e-06
1.83697e-07
1.2722e-06
-2.76183e-06
1.44512e-07
1.29191e-06
-3.40112e-06
1.30297e-07
1.31434e-06
-4.03764e-06
1.22187e-07
1.29512e-06
-4.64704e-06
1.15614e-07
1.22261e-06
-5.20132e-06
1.09541e-07
1.09459e-06
-5.66654e-06
1.03954e-07
9.11656e-07
9.89935e-08
6.8192e-07
-6.00836e-06
-2.17997e-06
5.96793e-08
1.38364e-06
-2.77248e-06
3.32934e-08
1.35881e-06
-3.39666e-06
1.75199e-08
1.37267e-06
-4.01498e-06
5.31752e-09
1.35232e-06
-4.60258e-06
-2.93716e-09
1.27914e-06
-5.12913e-06
-9.58127e-09
1.14893e-06
-5.55881e-06
-1.48645e-08
9.61867e-07
-1.90996e-08
7.26442e-07
-5.85546e-06
-2.2445e-06
-6.23189e-08
1.26585e-06
-2.838e-06
-6.7063e-08
1.28133e-06
-3.45851e-06
-7.49365e-08
1.3048e-06
-4.08081e-06
-8.22299e-08
1.28598e-06
-4.6781e-06
-8.68633e-08
1.21319e-06
-5.22238e-06
-8.90273e-08
1.08464e-06
-5.67955e-06
-8.93206e-08
9.01202e-07
-8.8408e-08
6.71081e-07
-6.01492e-06
-2.26184e-06
-7.92749e-08
1.04911e-06
-2.85601e-06
-7.68045e-08
1.11153e-06
-3.47613e-06
-7.84181e-08
1.14434e-06
-4.10117e-06
-7.91718e-08
1.13034e-06
-4.70706e-06
-7.84778e-08
1.0662e-06
-5.26631e-06
-7.66212e-08
9.52378e-07
-5.74707e-06
-7.40905e-08
7.90217e-07
-7.13069e-08
5.86704e-07
-6.11741e-06
-2.20647e-06
7.90057e-07
5.38171e-08
-2.80349e-06
8.73118e-07
5.28158e-08
-3.42692e-06
9.15763e-07
5.25794e-08
-4.05672e-06
9.14629e-07
5.27827e-08
-4.67118e-06
8.70147e-07
5.29739e-08
-5.24682e-06
7.83712e-07
5.30707e-08
-5.75713e-06
6.56905e-07
5.30982e-08
4.94928e-07
5.30884e-08
-6.17554e-06
-3.28124e-06
2.60555e-07
1.59779e-06
-4.67864e-08
-4.39441e-06
2.5036e-07
1.79204e-06
-4.04424e-08
-5.57359e-06
2.45386e-07
1.90333e-06
-3.63548e-08
-6.75222e-06
2.36341e-07
1.91045e-06
-3.32741e-08
-7.84305e-06
2.23108e-07
1.7922e-06
-3.07352e-08
-8.74397e-06
2.06731e-07
1.53343e-06
-2.84974e-08
-9.34645e-06
1.88275e-07
1.12806e-06
-2.64347e-08
1.69095e-07
5.71754e-07
-2.44836e-08
-9.53415e-06
-3.26198e-06
2.66377e-07
2.08004e-06
-4.39072e-06
2.52013e-07
2.2545e-06
-5.58931e-06
2.48694e-07
2.35537e-06
-6.79439e-06
2.42083e-07
2.34635e-06
-7.91318e-06
2.30153e-07
2.19623e-06
-8.82887e-06
2.13525e-07
1.88132e-06
-9.4106e-06
1.93056e-07
1.38893e-06
1.69712e-07
7.08112e-07
-9.50939e-06
-3.1809e-06
1.27318e-07
2.43113e-06
-4.32037e-06
1.17834e-07
2.56563e-06
-5.53412e-06
1.18109e-07
2.65873e-06
-6.75871e-06
1.16587e-07
2.6452e-06
-7.89944e-06
1.11729e-07
2.48181e-06
-8.83224e-06
1.04239e-07
2.13672e-06
-9.41335e-06
9.4702e-08
1.59116e-06
8.3675e-08
8.27798e-07
-9.47315e-06
-3.10589e-06
-5.81263e-08
2.58616e-06
-4.25291e-06
-5.54638e-08
2.67934e-06
-5.47102e-06
-5.77095e-08
2.76676e-06
-6.69578e-06
-6.00142e-08
2.7538e-06
-7.83394e-06
-5.96535e-08
2.58881e-06
-8.7597e-06
-5.66002e-08
2.23562e-06
-9.32402e-06
-5.13226e-08
1.6723e-06
-4.44364e-08
8.78671e-07
-9.34803e-06
-3.17238e-06
-1.97305e-07
2.42816e-06
-4.31447e-06
-1.87005e-07
2.55523e-06
-5.52711e-06
-1.88846e-07
2.64879e-06
-6.7495e-06
-1.87395e-07
2.63591e-06
-7.88843e-06
-1.79989e-07
2.47259e-06
-8.81997e-06
-1.67383e-07
2.12707e-06
-9.40022e-06
-1.50526e-07
1.5808e-06
-1.30404e-07
8.17039e-07
-9.46006e-06
-3.25072e-06
-1.91516e-07
2.06688e-06
-4.37698e-06
-1.87349e-07
2.23836e-06
-5.57182e-06
-1.88585e-07
2.33907e-06
-6.77365e-06
-1.8456e-07