/*--------------------------------*- C++ -*----------------------------------*\
| =========                 |                                                 |
| \\      /  F ield         | OpenFOAM: The Open Source CFD Toolbox           |
|  \\    /   O peration     | Version:  plus.master.MPPICInterFoam            |
|   \\  /    A nd           | Web:      www.OpenFOAM.com                      |
|    \\/     M anipulation  |                                                 |
\*---------------------------------------------------------------------------*/
FoamFile
{
    version     2.0;
    format      ascii;
    class       surfaceScalarField;
    location    "9.2";
    object      alphaPhi;
}
// * * * * * * * * * * * * * * * * * * * * * * * * * * * * * * * * * * * * * //

dimensions      [0 3 -1 0 0 0 0];

internalField   nonuniform List<scalar> 
34319
(
9.87989e-09
-4.13532e-08
7.22065e-06
-2.43066e-08
6.10424e-08
-1.22845e-08
-8.09661e-09
7.27006e-06
2.74747e-08
-2.20063e-08
-1.45962e-08
6.99569e-06
2.06957e-08
-2.8344e-08
-5.58985e-09
6.68459e-06
1.3913e-08
-1.97022e-08
-2.39713e-08
5.98463e-06
2.37792e-08
2.01352e-10
-5.06691e-08
5.20755e-06
4.01327e-08
-6.23445e-08
4.44683e-06
2.18802e-08
4.50825e-08
2.32489e-08
-4.9478e-08
6.42556e-06
-4.52059e-08
-7.85953e-09
-1.93338e-09
6.34742e-06
-2.60273e-08
-3.35977e-08
5.76501e-06
-4.63303e-08
-2.03645e-08
6.47536e-06
-3.81437e-08
-3.82743e-08
6.55394e-06
-9.773e-09
-6.73974e-08
5.77277e-06
-7.69025e-08
4.87007e-06
1.51802e-08
2.23771e-08
-9.50494e-08
5.6867e-06
9.43111e-09
2.12078e-08
-1.81147e-08
4.34229e-06
2.32225e-08
-2.26094e-08
4.5592e-06
-9.60459e-09
-2.47323e-08
5.4606e-06
-1.79141e-08
-4.74791e-08
6.55917e-06
3.40234e-09
-7.54639e-08
6.22503e-06
-8.33134e-08
5.18872e-06
2.584e-08
4.03412e-08
-6.34173e-08
7.26188e-06
7.00614e-08
3.58867e-08
-5.90044e-08
5.14159e-06
1.62326e-08
-5.47959e-08
4.7222e-06
2.34036e-10
-3.03382e-08
4.93316e-06
-2.02947e-09
-6.43327e-08
6.5183e-06
1.99779e-08
-8.09482e-08
6.44375e-06
-8.36688e-08
5.3519e-06
4.14737e-08
2.54397e-08
-2.29439e-08
6.55644e-06
7.80512e-08
1.55509e-07
-1.28275e-08
6.25306e-06
4.94946e-08
-3.59813e-08
5.2353e-06
5.99877e-09
-5.08534e-08
5.23279e-06
1.24727e-08
-8.21105e-08
6.44149e-06
3.52933e-08
-7.96826e-08
6.41634e-06
-8.04045e-08
5.32538e-06
5.7691e-08
1.21925e-08
-4.02975e-08
5.55682e-06
4.53348e-08
5.9212e-08
-3.84042e-08
4.43955e-06
5.21302e-08
-3.70447e-08
4.48202e-06
2.83528e-08
-6.58233e-08
5.76086e-06
3.08369e-08
-8.04724e-08
6.61838e-06
5.2245e-08
-7.01059e-08
6.11303e-06
-7.41411e-08
5.1156e-06
7.38501e-08
2.02755e-08
7.22595e-06
-3.42385e-09
-4.45098e-08
2.24911e-08
6.91679e-06
-4.55508e-08
1.12023e-08
6.46577e-06
-5.35489e-08
1.7064e-08
6.80866e-06
-7.05285e-08
3.76678e-08
6.46237e-06
-7.16692e-08
6.70318e-08
5.62015e-06
-6.46901e-08
4.7612e-06
9.3446e-08
-7.35386e-08
2.07559e-08
1.03965e-07
7.14466e-06
-7.75901e-08
-4.61031e-08
-4.4487e-08
1.47156e-07
7.15884e-06
-1.13527e-07
-8.70405e-08
1.21237e-07
6.86647e-06
-1.1228e-07
-9.72709e-08
1.07173e-07
6.62317e-06
-8.44993e-08
-7.70834e-08
5.28714e-08
5.95259e-06
-4.09738e-08
-4.18451e-08
-5.36356e-09
5.17959e-06
-2.02285e-09
-3.33401e-08
4.42984e-06
-7.5358e-09
1.59539e-08
1.91203e-08
6.54339e-08
6.01424e-06
-1.14144e-07
-6.13084e-08
7.07353e-08
5.90892e-06
-1.00855e-07
3.00998e-08
5.26511e-06
-1.46952e-07
5.22517e-08
6.19696e-06
-1.30072e-07
2.60732e-08
6.42616e-06
-7.07245e-08
-2.91496e-08
5.73712e-06
-5.33695e-08
4.84385e-06
-2.45452e-08
-4.79175e-08
4.00799e-08
5.23919e-06
-4.83645e-08
-3.30897e-08
2.74227e-08
4.37447e-06
-3.18081e-08
5.59448e-09
4.45905e-06
-1.07165e-07
-7.52797e-10
4.84337e-06
-1.41782e-07
-1.83683e-08
6.29723e-06
-7.4302e-08
-5.57141e-08
6.18405e-06
-7.08003e-08
5.15506e-06
-2.33039e-08
-1.76386e-07
-5.03808e-08
6.36763e-06
-2.69453e-08
-8.46843e-08
2.66272e-08
5.49539e-06
-4.21772e-08
-3.75278e-09
5.36647e-06
-8.62271e-08
-4.04485e-08
4.57661e-06
-1.26219e-07
-7.65129e-08
6.1828e-06
-6.53468e-08
-8.70044e-08
6.3738e-06
-8.52372e-08
5.31301e-06
-1.20593e-08
-1.13755e-07
-1.25628e-07
5.78935e-06
-2.90636e-08
-8.87165e-08
-7.26974e-08
5.34979e-06
-3.18612e-08
-4.0777e-08
4.52345e-06
-7.55354e-08
-8.02505e-08
4.39283e-06
-1.02926e-07
-1.21408e-07
6.09802e-06
-4.41173e-08
-1.06586e-07
6.35368e-06
-9.39103e-08
5.28376e-06
6.24473e-09
-3.14279e-08
-1.57823e-07
5.42548e-06
-3.24179e-08
-3.46247e-08
-1.32505e-07
4.38061e-06
-3.18962e-08
-9.23148e-08
4.36347e-06
-8.04057e-08
-1.45297e-07
5.32494e-06
-7.67138e-08
-1.50031e-07
6.43613e-06
-1.76448e-08
-1.11299e-07
6.05877e-06
-9.7791e-08
5.07411e-06
2.78801e-08
1.1683e-08
7.09791e-06
-5.87757e-08
-1.64588e-07
-4.94833e-08
6.72963e-06
-2.16195e-07
-6.81718e-08
6.18159e-06
-1.96639e-07
-6.98109e-08
6.65225e-06
-1.78319e-07
-3.34317e-08
6.37313e-06
-1.41819e-07
1.64867e-08
5.56673e-06
-1.07598e-07
4.72324e-06
5.74223e-08
-1.00535e-07
2.31684e-08
-5.22167e-09
6.98837e-06
-4.34709e-08
4.64433e-08
-2.42235e-08
6.02062e-08
6.91492e-06
-1.92975e-08
-4.41883e-08
3.76569e-08
6.62554e-06
-1.73911e-08
-3.34021e-08
1.19864e-08
6.52762e-06
1.1606e-09
-1.18344e-08
-1.33565e-08
5.92559e-06
1.84919e-08
1.57875e-08
-4.49088e-08
5.16231e-06
3.46444e-08
-5.50259e-08
4.4245e-06
3.80477e-08
3.80274e-08
6.91985e-09
3.7392e-09
5.40645e-06
-4.53984e-08
-4.31859e-08
3.74985e-08
4.96275e-06
-5.73108e-08
1.02453e-08
4.73719e-06
-6.66161e-08
3.7002e-09
5.82148e-06
-3.95009e-08
-2.31444e-08
6.25222e-06
6.39196e-09
-6.2224e-08
5.70843e-06
-7.00435e-08
4.82959e-06
3.5552e-08
-6.59175e-08
-3.47998e-09
4.19738e-06
-1.5881e-09
-3.58332e-08
9.70127e-09
4.37638e-06
-1.49101e-08
-2.9115e-09
4.24558e-06
-4.00691e-08
-2.76527e-08
3.89878e-06
-2.84951e-08
-3.69096e-08
5.96437e-06
1.85553e-08
-7.11235e-08
6.1458e-06
-7.77847e-08
5.1335e-06
4.77815e-08
-1.62117e-07
-1.85073e-08
4.5529e-06
-4.75174e-09
-9.20134e-08
5.16401e-09
5.91562e-06
-1.22061e-08
2.01346e-08
5.64165e-06
-3.51682e-08
-2.94229e-08
3.97185e-06
-1.63333e-08
-6.91921e-08
5.76115e-06
3.50075e-08
-8.0835e-08
6.3177e-06
-8.02182e-08
5.28657e-06
6.38603e-08
-1.56676e-07
-3.51128e-08
4.4603e-06
4.02132e-08
-7.54224e-08
-2.14292e-08
4.6918e-06
-1.29844e-08
-2.82343e-08
4.52197e-06
-1.27566e-08
-3.18851e-08
3.95107e-06
1.44037e-08
-7.50524e-08
5.76005e-06
5.71583e-08
-7.7134e-08
6.29803e-06
-7.59844e-08
5.25549e-06
8.11658e-08
-7.61519e-08
-6.23827e-08
4.46003e-06
3.72507e-08
-3.65287e-08
-5.31531e-08
4.12428e-06
-1.20863e-08
-3.85769e-08
3.98812e-06
-1.2855e-08
-6.7529e-08
4.80547e-06
2.8388e-08
-8.72097e-08
6.19119e-06
6.91948e-08
-7.09521e-08
6.0117e-06
-7.21504e-08
5.04656e-06
9.28906e-08
-2.31907e-09
6.76012e-06
-8.0304e-09
-5.02197e-08
-2.49749e-08
6.12289e-06
-8.50813e-08
-1.86993e-08
5.77275e-06
-7.1007e-08
6.84998e-09
6.36937e-06
-8.10168e-08
4.66213e-08
6.28508e-06
-7.63728e-08
8.32114e-08
5.52503e-06
-6.58414e-08
4.69941e-06
1.07741e-07
-7.28639e-08
5.42771e-09
-1.84922e-07
6.88106e-06
2.59694e-08
1.88368e-07
9.37464e-09
-1.22276e-07
6.78355e-06
1.62833e-07
3.55306e-08
-1.41382e-07
6.53106e-06
1.62106e-07
7.29846e-08
-1.6389e-07
6.4677e-06
1.46212e-07
8.80422e-08
-1.21653e-07
5.91734e-06
1.14275e-07
1.00503e-07
-1.07466e-07
5.16195e-06
9.55058e-08
-9.14224e-08
4.43043e-06
1.08152e-07
7.78606e-08
-5.13652e-09
-9.41252e-08
5.38374e-06
5.38656e-08
-5.90184e-09
-9.03061e-09
4.95399e-06
2.70356e-08
-3.93114e-08
4.79632e-06
8.1822e-08
-9.20186e-08
5.7672e-06
1.07406e-07
-1.04292e-07
6.18999e-06
1.21281e-07
-1.12256e-07
5.69952e-06
-9.69247e-08
4.83067e-06
1.2569e-07
-3.65304e-08
-5.97092e-08
4.12349e-06
8.23846e-08
-6.52358e-09
7.9653e-09
4.33472e-06
2.32149e-08
-4.75962e-10
4.18131e-06
8.70654e-08
-2.96543e-08
3.96727e-06
1.57798e-07
-6.53572e-08
5.90659e-06
1.58581e-07
-9.30543e-08
6.12595e-06
-8.79744e-08
5.12972e-06
1.53484e-07
-3.9988e-08
-5.32549e-09
4.48265e-06
4.70222e-08
1.97261e-08
4.35208e-09
5.98555e-06
3.76676e-08
2.44042e-08
5.52417e-06
6.2149e-08
-1.38614e-08
3.95831e-06
1.84923e-07
-5.04857e-08
5.70894e-06
1.86289e-07
-6.72304e-08
6.29294e-06
-6.99094e-08
5.27851e-06
1.76448e-07
-5.08411e-08
2.12118e-08
4.39279e-06
1.00862e-07
-1.23966e-08
1.36685e-08
4.65461e-06
3.117e-08
1.49209e-08
4.49616e-06
8.16978e-08
-1.57621e-09
3.90087e-06
2.10289e-07
-1.70776e-08
5.71979e-06
2.029e-07
-3.13603e-08
6.27036e-06
-4.64877e-08
5.24497e-06
1.90074e-07
-5.18013e-08
4.57637e-08
4.1761e-06
1.12969e-07
-2.75066e-09
3.16306e-08
4.06538e-06
4.00797e-08
4.28298e-08
3.92295e-06
1.36828e-07
5.18876e-08
4.82201e-06
1.91499e-07
1.26427e-08
6.12238e-06
1.94159e-07
-5.23875e-09
5.98297e-06
-2.90598e-08
5.03548e-06
1.87811e-07
-9.44853e-09
6.65588e-06
5.89841e-08
9.9882e-08
1.69042e-08
6.00604e-06
1.21095e-07
6.83468e-08
5.72874e-06
1.21323e-07
1.38821e-07
6.28455e-06
8.40191e-08
1.65624e-07
6.24143e-06
3.2708e-08
1.77676e-07
5.50285e-06
4.882e-09
4.68987e-06
1.81535e-07
-2.33881e-08
-3.63476e-08
-3.22023e-07
6.81682e-06
1.10352e-07
3.03623e-07
1.9818e-08
-3.08114e-07
6.73066e-06
3.20815e-07
9.14386e-08
-3.2068e-07
6.49827e-06
3.124e-07
1.55077e-07
-2.92322e-07
6.42363e-06
2.62665e-07
1.80969e-07
-2.06766e-07
5.89371e-06
2.04598e-07
2.06503e-07
-1.72771e-07
5.13394e-06
1.7534e-07
-1.49939e-07
4.40198e-06
2.29857e-07
1.55094e-07
-4.00297e-08
-1.25755e-07
5.60564e-06
1.29987e-07
9.40458e-09
-9.49848e-08
5.37408e-06
1.03367e-07
-1.37983e-07
5.28815e-06
1.95339e-07
-2.06713e-07
5.8236e-06
2.24113e-07
-1.73236e-07
6.15441e-06
2.37991e-07
-1.59624e-07
5.67277e-06
-1.33889e-07
4.8e-06
2.52699e-07
-4.87616e-08
-6.57306e-08
4.01493e-06
1.01331e-07
-1.16957e-08
-4.06448e-08
4.24781e-06
6.7466e-08
-9.25694e-08
4.06443e-06
2.19704e-07
-7.66e-08
4.57291e-06
3.03657e-07
-1.08246e-07
5.90533e-06
2.88093e-07
-1.15643e-07
6.09755e-06
-1.00055e-07
5.09833e-06
2.85624e-07
-3.6884e-08
-3.06217e-08
4.41623e-06
6.72503e-08
-3.20795e-08
-1.226e-09
5.2369e-06
7.96306e-08
-1.58673e-08
5.34424e-06
1.58374e-07
-1.70369e-08
3.84984e-06
3.62032e-07
-3.41602e-08
5.77569e-06
3.27445e-07
-4.87746e-08
6.26985e-06
-5.22059e-08
5.24536e-06
3.12766e-07
-5.79967e-08
2.76789e-08
4.28214e-06
1.21048e-07
-4.59987e-08
4.39905e-08
4.60575e-06
6.40633e-08
7.25601e-08
4.30302e-06
2.41913e-07
7.7172e-08
4.22173e-06
3.74352e-07
4.21415e-08
5.83824e-06
3.38435e-07
2.10661e-08
6.23631e-06
-8.67365e-10
5.20918e-06
3.22922e-07
-4.42361e-08
1.4333e-07
4.36052e-06
1.95043e-07
6.43714e-10
1.02543e-07
3.9673e-06
8.25224e-08
1.15505e-07
3.80112e-06
2.85681e-07
1.91481e-07
5.29998e-06
3.27425e-07
1.09911e-07
6.08094e-06
3.16129e-07
7.12161e-08
5.9442e-06
4.00708e-08
4.99711e-06
3.13578e-07
-3.92388e-08
6.61094e-06
1.39374e-07
2.22302e-07
3.38354e-08
6.07848e-06
2.94822e-07
1.33417e-07
5.92231e-06
2.93779e-07
2.37434e-07
6.26491e-06
2.22077e-07
2.67343e-07
6.19741e-06
1.38327e-07
2.83396e-07
5.4622e-06
9.58316e-08
4.65129e-06
2.98392e-07
6.36795e-08
-7.32876e-08
-3.54008e-07
1.86254e-07
3.32089e-07
6.69138e-06
1.23709e-08
-3.52115e-07
3.32648e-07
6.61817e-06
7.66319e-08
-2.89032e-07
2.97975e-07
6.40097e-06
1.43934e-07
-2.3244e-07
2.60498e-07
6.31216e-06
2.02653e-07
-1.91391e-07
2.40482e-07
5.78486e-06
2.78506e-07
-1.96388e-07
2.48115e-07
5.00636e-06
-2.00858e-07
3.61041e-07
2.53277e-07
4.26703e-06
-3.21412e-08
-2.65686e-07
1.60372e-07
5.78615e-06
5.68602e-08
-2.61862e-07
5.7868e-06
1.08999e-07
-2.27942e-07
5.47932e-06
1.66637e-07
-2.12491e-07
5.7458e-06
2.18603e-07
-1.43908e-07
6.05033e-06
2.89777e-07
-1.53653e-07
5.55888e-06
-1.51339e-07
3.74085e-07
4.6663e-06
-1.5616e-08
-1.27682e-07
1.9514e-07
4.60245e-06
8.30982e-08
-1.63144e-07
4.50444e-06
1.66144e-07
-1.46236e-07
5.13924e-06
2.39946e-07
-1.1759e-07
5.28557e-06
2.66986e-07
-9.25881e-08
5.80882e-06
3.16093e-07
-9.85439e-08
5.99199e-06
-9.41754e-08
3.91012e-07
4.96636e-06
-2.63007e-08
-1.74688e-08
1.40283e-07
4.19457e-06
8.59203e-08
-3.41781e-08
5.00754e-06
1.89602e-07
-4.27945e-08
6.15507e-06
2.42345e-07
-1.31627e-08
5.09372e-06
3.15085e-07
-2.9343e-08
5.80395e-06
3.43026e-07
-3.08598e-08
6.17261e-06
-2.83664e-08
4.08167e-07
5.11443e-06
-4.27295e-08
1.14103e-07
2.50689e-07
4.68047e-06
4.56206e-08
1.06164e-07
4.38758e-06
2.32633e-07
8.82856e-08
5.99451e-06
3.18247e-07
1.13272e-07
5.91751e-06
3.23923e-07
4.66907e-08
5.77592e-06
3.55444e-07
4.51045e-08
6.12568e-06
4.29008e-08
4.1721e-07
5.07616e-06
-6.47308e-08
2.33562e-07
2.72713e-07
5.51785e-06
4.25892e-08
2.2392e-07
4.11343e-06
1.71911e-07
1.54672e-07
4.41817e-06
2.91064e-07
1.68698e-07
5.52692e-06
3.04673e-07
1.21916e-07
5.97506e-06
3.46899e-07
1.17318e-07
5.82955e-06
1.10552e-07
4.1533e-07
4.861e-06
-6.93943e-08
2.11982e-07
2.72048e-07
6.55481e-06
5.34499e-08
3.2708e-07
6.20294e-06
1.17737e-07
2.70118e-07
6.00705e-06
2.01475e-07
2.1127e-07
6.17389e-06
2.60504e-07
1.78412e-07
6.09108e-06
3.28656e-07
1.77549e-07
5.33379e-06
4.0545e-07
1.73079e-07
4.51189e-06
4.03436e-08
-2.88544e-08
2.3597e-06
8.15462e-09
5.41893e-08
-2.28797e-08
2.47733e-06
4.98215e-10
6.172e-08
-1.61776e-08
2.50574e-06
-7.71527e-09
6.19392e-08
-9.90619e-09
2.46737e-06
-1.52883e-08
5.48383e-08
-4.43518e-09
2.37802e-06
-2.19772e-08
4.09406e-08
2.69989e-11
2.24005e-06
-2.72759e-08
2.07532e-08
3.02179e-09
2.03909e-06
-2.95992e-08
3.01642e-09
1.64156e-06
-3.29393e-08
3.88711e-08
-5.06607e-08
3.18788e-06
5.71795e-08
-4.72608e-08
3.16429e-06
6.77083e-08
-4.2845e-08
3.06314e-06
6.97966e-08
-3.89981e-08
2.90382e-06
6.34959e-08
-3.58375e-08
2.70099e-06
4.94002e-08
-3.34669e-08
2.45836e-06
2.85399e-08
-3.17596e-08
2.14976e-06
-2.90716e-08
1.62035e-06
4.99706e-08
-6.76368e-08
3.78639e-06
6.81911e-08
-6.73318e-08
3.66302e-06
7.85383e-08
-6.65832e-08
3.46696e-06
7.98303e-08
-6.61999e-08
3.21981e-06
7.19165e-08
-6.62145e-08
2.93654e-06
5.52871e-08
-6.652e-08
2.62034e-06
3.09538e-08
-6.65585e-08
2.24212e-06
-6.35229e-08
1.63209e-06
6.45627e-08
-7.88686e-08
4.03937e-06
8.14314e-08
-8.1513e-08
3.8796e-06
9.02857e-08
-8.46768e-08
3.64899e-06
8.98975e-08
-8.80249e-08
3.36991e-06
7.99029e-08
-9.13975e-08
3.05763e-06
6.08389e-08
-9.44317e-08
2.71522e-06
3.38605e-08
-9.63043e-08
2.31232e-06
-9.32241e-08
1.67249e-06
7.84284e-08
-8.52068e-08
3.88357e-06
9.31431e-08
-9.03827e-08
3.76367e-06
9.98774e-08
-9.66228e-08
3.57015e-06
9.73825e-08
-1.02816e-07
3.32483e-06
8.53604e-08
-1.08677e-07
3.04285e-06
6.42678e-08
-1.13679e-07
2.72747e-06
3.53177e-08
-1.16835e-07
2.34905e-06
-1.13877e-07
1.73417e-06
8.93033e-08
-8.68928e-08
3.34635e-06
1.00208e-07
-9.43249e-08
3.33333e-06
1.03836e-07
-1.02239e-07
3.24002e-06
9.8997e-08
-1.09876e-07
3.08628e-06
8.54326e-08
-1.16921e-07
2.88723e-06
6.3563e-08
-1.22833e-07
2.6468e-06
3.44744e-08
-1.26517e-07
2.33819e-06
-1.23472e-07
1.80021e-06
1.00156e-07
2.52688e-06
-8.32913e-08
1.04308e-07
2.66594e-06
-9.22435e-08
1.02904e-07
2.71024e-06
-1.00593e-07
9.4581e-08
2.68306e-06
-1.08372e-07
7.89469e-08
2.60033e-06
-1.15449e-07
5.65732e-08
2.46685e-06
-1.21529e-07
2.92939e-08
2.26012e-06
-1.25882e-07
1.83708e-06
-1.23315e-07
1.17527e-08
-2.46265e-08
2.35662e-06
8.37257e-09
2.82133e-08
-1.97959e-08
2.48049e-06
1.66699e-10
3.92035e-08
-1.32073e-08
2.51659e-06
-8.52908e-09
4.33416e-08
-7.09371e-09
2.48636e-06
-1.58994e-08
4.06495e-08
-1.62224e-09
2.40471e-06
-2.2441e-08
3.23011e-08
2.62561e-09
2.27415e-06
-2.75869e-08
1.83617e-08
5.67735e-09
2.07819e-06
-3.03438e-08
6.02428e-09
1.68587e-06
-3.15778e-08
5.16822e-09
-4.48383e-08
3.17831e-06
2.87553e-08
-4.27917e-08
3.16381e-06
4.40549e-08
-3.8296e-08
3.07308e-06
5.09475e-08
-3.45507e-08
2.92453e-06
4.98227e-08
-3.15549e-08
2.73216e-06
4.12844e-08
-2.94489e-08
2.49906e-06
2.59986e-08
-2.80615e-08
2.19884e-06
-2.59829e-08
1.67847e-06
1.05584e-08
-6.22851e-08
3.76998e-06
3.59756e-08
-6.25304e-08
3.65742e-06
5.27299e-08
-6.16954e-08
3.47373e-06
6.01433e-08
-6.13441e-08
3.23936e-06
5.82597e-08
-6.14969e-08
2.9685e-06
4.77216e-08
-6.20305e-08
2.66362e-06
2.90866e-08
-6.24291e-08
2.29521e-06
-6.00991e-08
1.69534e-06
2.22336e-08
-7.52124e-08
4.01802e-06
4.72278e-08
-7.72201e-08
3.8694e-06
6.3334e-08
-8.04134e-08
3.65171e-06
6.97221e-08
-8.3728e-08
3.38603e-06
6.62799e-08
-8.70748e-08
3.08675e-06
5.35033e-08
-9.01169e-08
2.75616e-06
3.21379e-08
-9.20936e-08
2.36344e-06
-8.9418e-08
1.73402e-06
3.67505e-08
-8.28065e-08
3.86079e-06
5.91298e-08
-8.66793e-08
3.75092e-06
7.28373e-08
-9.30458e-08
3.56921e-06
7.69514e-08
-9.913e-08
3.33621e-06
7.14516e-08
-1.04819e-07
3.06625e-06
5.67131e-08
-1.09631e-07
2.76184e-06
3.34955e-08
-1.12643e-07
2.39294e-06
-1.09724e-07
1.78808e-06
5.0646e-08
-8.50997e-08
3.32602e-06
6.81691e-08
-9.13522e-08
3.32062e-06
7.78009e-08
-9.91319e-08
3.2366e-06
7.88349e-08
-1.0648e-07
3.09271e-06
7.12712e-08
-1.1324e-07
2.90336e-06
5.55554e-08
-1.1887e-07
2.6719e-06
3.24226e-08
-1.22346e-07
2.37122e-06
-1.19185e-07
1.84218e-06
6.63425e-08
2.51209e-06
-7.90693e-08
7.46556e-08
2.65529e-06
-8.88935e-08
7.79209e-08
2.70551e-06
-9.75197e-08
7.47801e-08
2.68503e-06
-1.05116e-07
6.47766e-08
2.60908e-06
-1.11793e-07
4.83179e-08
2.4819e-06
-1.17356e-07
2.67226e-08
2.28078e-06
-1.21198e-07
1.86438e-06
-1.19049e-07
5.44943e-08
-1.83344e-08
2.36042e-06
-1.97631e-09
6.67475e-08
-1.35906e-08
2.4908e-06
-8.85512e-09
7.17666e-08
-7.57278e-09
2.53454e-06
-1.52744e-08
6.84721e-08
-2.08103e-09
2.5127e-06
-2.0858e-08
5.68139e-08
2.58619e-09
2.43889e-06
-2.56729e-08
3.85438e-08
6.70468e-09
2.31688e-06
-3.01695e-08
1.70244e-08
9.2028e-09
2.12562e-06
-3.48284e-08
8.95489e-09
1.72699e-06
-3.16555e-08
5.86816e-08
-4.10337e-08
3.17779e-06
7.46668e-08
-3.78227e-08
3.17214e-06
8.23644e-08
-3.34386e-08
3.09141e-06
8.10705e-08
-2.99117e-08
2.95376e-06
7.06247e-08
-2.72921e-08
2.77257e-06
5.21286e-08
-2.56352e-08
2.54999e-06
2.66833e-08
-2.48353e-08
2.25837e-06
-2.38336e-08
1.73803e-06
7.2508e-08
-6.01447e-08
3.76438e-06
8.9062e-08
-5.91187e-08
3.66224e-06
9.71514e-08
-5.79223e-08
3.49025e-06
9.55563e-08
-5.74857e-08
3.26863e-06
8.37445e-08
-5.77517e-08
3.01082e-06
6.21402e-08
-5.8539e-08
2.71824e-06
3.19819e-08
-5.93394e-08
2.35997e-06
-5.77356e-08
1.76126e-06
8.79676e-08
-7.47008e-08
4.00851e-06
1.03511e-07
-7.57732e-08
3.8706e-06
1.10529e-07
-7.81917e-08
3.66505e-06
1.07592e-07
-8.10818e-08
3.41261e-06
9.3897e-08
-8.42016e-08
3.12691e-06
6.95759e-08
-8.71509e-08
2.8091e-06
3.601e-08
-8.91392e-08
2.42691e-06
-8.6672e-08
1.79906e-06
1.01349e-07
-8.38016e-08
3.84977e-06
1.14123e-07
-8.71022e-08
3.74954e-06
1.18714e-07
-9.24538e-08
3.57893e-06
1.13655e-07
-9.78933e-08
3.35814e-06
9.81429e-08
-1.03068e-07
3.10074e-06
7.2194e-08
-1.07446e-07
2.80816e-06
3.71377e-08
-1.10075e-07
2.44904e-06
-1.06816e-07
1.84545e-06
1.08021e-07
-8.90487e-08
3.31615e-06
1.17284e-07
-9.40071e-08
3.31829e-06
1.18803e-07
-1.00503e-07
3.24315e-06
1.11493e-07
-1.06914e-07
3.10916e-06
9.47453e-08
-1.12851e-07
2.93008e-06
6.87543e-08
-1.17757e-07
2.70835e-06
3.4939e-08
-1.20606e-07
2.41571e-06
-1.1667e-07
1.88702e-06
1.13614e-07
2.50558e-06
-8.84371e-08
1.16934e-07
2.6534e-06
-9.54522e-08
1.1406e-07
2.70965e-06
-1.0172e-07
1.03732e-07
2.69611e-06
-1.07496e-07
8.54503e-08
2.62745e-06
-1.12736e-07
5.95816e-08
2.50722e-06
-1.17081e-07
2.8249e-08
2.31163e-06
-1.19996e-07
1.89394e-06
-1.1776e-07
1.27809e-07
-1.03803e-08
2.36648e-06
-1.53924e-08
1.40524e-07
-4.28861e-09
2.50207e-06
-1.96924e-08
1.44304e-07
1.11506e-09
2.55304e-06
-2.34441e-08
1.38195e-07
5.56504e-09
2.53982e-06
-2.66114e-08
1.21582e-07
9.07036e-09
2.47446e-06
-2.86946e-08
9.5911e-08
1.20836e-08
2.36202e-06
-3.07284e-08
6.19706e-08
1.39769e-08
2.18046e-06
-3.47776e-08
1.29297e-08
1.80766e-06
-2.87523e-08
1.45977e-07
-3.63271e-08
3.18347e-06
1.59387e-07
-3.03561e-08
3.18472e-06
1.64372e-07
-2.60155e-08
3.11347e-06
1.58874e-07
-2.28e-08
2.98759e-06
1.4192e-07
-2.06998e-08
2.81934e-06
1.14049e-07
-1.95245e-08
2.60957e-06
7.31027e-08
-1.90869e-08
2.33244e-06
-1.85215e-08
1.84265e-06
1.70807e-07
-5.74196e-08
3.76819e-06
1.83092e-07
-5.44749e-08
3.674e-06
1.87231e-07
-5.29687e-08
3.513e-06
1.80316e-07
-5.25073e-08
3.3052e-06
1.60573e-07
-5.29356e-08
3.06286e-06
1.2767e-07
-5.39593e-08
2.78566e-06
7.97968e-08
-5.50078e-08
2.4439e-06
-5.38344e-08
1.8764e-06
1.91194e-07
-7.33203e-08
4.0097e-06
2.01606e-07
-7.43508e-08
3.88001e-06
2.04063e-07
-7.61811e-08
3.68578e-06
1.95285e-07
-7.88069e-08
3.4477e-06
1.73003e-07
-8.18503e-08
3.17817e-06
1.3661e-07
-8.4896e-08
2.87646e-06
8.4501e-08
-8.71434e-08
2.51131e-06
-8.52153e-08
1.91492e-06
2.01706e-07
-8.39761e-08
3.84878e-06
2.09374e-07
-8.85469e-08
3.756e-06
2.09477e-07
-9.31312e-08
3.59576e-06
1.98823e-07
-9.81314e-08
3.38815e-06
1.75108e-07
-1.02999e-07
3.1456e-06
1.37775e-07
-1.07257e-07
2.86787e-06
8.49258e-08
-1.10039e-07
2.52476e-06
-1.07325e-07
1.95244e-06
1.98414e-07
-9.23912e-08
3.31398e-06
2.03821e-07
-9.76274e-08
3.32195e-06
2.01815e-07
-1.03108e-07
3.25512e-06
1.89872e-07
-1.08722e-07
3.13172e-06
1.66289e-07
-1.13916e-07
2.96456e-06
1.30711e-07
-1.18233e-07
2.75484e-06
8.10212e-08
-1.2075e-07
2.476e-06
-1.1715e-07
1.97794e-06
1.89884e-07
2.50324e-06
-9.83375e-08
1.92951e-07
2.65461e-06
-1.01852e-07
1.88294e-07
2.71643e-06
-1.0527e-07
1.74477e-07
2.71004e-06
-1.08882e-07
1.5093e-07
2.6494e-06
-1.12369e-07
1.17781e-07
2.53731e-06
-1.15221e-07
7.32565e-08
2.35213e-06
-1.16684e-07
1.96266e-06
-1.12514e-07
2.77521e-07
-3.49828e-09
2.3574e-06
-3.50645e-08
3.15287e-07
3.01412e-09
2.49885e-06
-3.76397e-08
3.38442e-07
7.23328e-09
2.5621e-06
-3.94278e-08
3.39396e-07
1.05716e-08
2.56916e-06
-4.07824e-08
3.10364e-07
1.28469e-08
2.53177e-06
-4.09845e-08
2.47334e-07
1.43901e-08
2.4527e-06
-4.1209e-08
1.57547e-07
1.49385e-08
2.29973e-06
-4.44392e-08
1.38513e-08
1.99102e-06
-3.93228e-08
3.01939e-07
-3.42318e-08
3.16505e-06
3.45121e-07
-2.7102e-08
3.1717e-06
3.75459e-07
-2.37144e-08
3.11415e-06
3.83463e-07
-2.13802e-08
3.01167e-06
3.60031e-07
-2.02206e-08
2.87602e-06
2.98633e-07
-2.00847e-08
2.70559e-06
1.99901e-07
-2.08353e-08
2.46706e-06
-2.06546e-08
2.07705e-06
3.31444e-07
-5.51011e-08
3.74321e-06
3.76199e-07
-5.11471e-08
3.6533e-06
4.09253e-07
-4.98478e-08
3.50617e-06
4.19941e-07
-4.97034e-08
3.32301e-06
3.978e-07
-5.05382e-08
3.11554e-06
3.34424e-07
-5.20885e-08
2.88105e-06
2.27867e-07
-5.38473e-08
2.58348e-06
-5.3301e-08
2.13686e-06
3.53996e-07
-6.80647e-08
3.98148e-06
3.96736e-07
-6.91487e-08
3.85537e-06
4.28744e-07
-7.05437e-08
3.6747e-06
4.38581e-07
-7.29497e-08
3.46134e-06
4.15058e-07
-7.59061e-08
3.2272e-06
3.49294e-07
-7.9003e-08
2.96921e-06
2.38272e-07
-8.1518e-08
2.65005e-06
-8.09972e-08
2.18087e-06
3.61081e-07
-7.79882e-08
3.82058e-06
3.99905e-07
-8.31866e-08
3.73135e-06
4.28127e-07
-8.68763e-08
3.58406e-06
4.34492e-07
-9.12245e-08
3.40016e-06
4.07976e-07
-9.55392e-08
3.19166e-06
3.40195e-07
-9.93483e-08
2.95601e-06
2.29009e-07
-1.01921e-07
2.65635e-06
-1.00763e-07
2.20135e-06
3.5084e-07
-9.11806e-08
3.29e-06
3.8455e-07
-9.67396e-08
3.3019e-06
4.07e-07
-1.01264e-07
3.2471e-06
4.07964e-07
-1.0604e-07
3.1455e-06
3.77686e-07
-1.10387e-07
3.00958e-06
3.08892e-07
-1.13919e-07
2.8382e-06
2.02114e-07
-1.16042e-07
2.59693e-06
-1.13718e-07
2.19316e-06
3.33773e-07
2.48764e-06
-1.10895e-07
3.61287e-07
2.64291e-06
-1.12501e-07
3.75571e-07
2.71499e-06
-1.14154e-07
3.68581e-07
2.72706e-06
-1.16197e-07
3.32756e-07
2.69303e-06
-1.18264e-07
2.62831e-07
2.6135e-06
-1.2004e-07
1.62756e-07
2.45731e-06
-1.21002e-07
2.12919e-06
-1.17518e-07
4.86971e-07
9.92024e-09
-4.83632e-08
2.27008e-06
6.13403e-07
1.54801e-08
-4.77791e-08
2.40469e-06
7.28681e-07
1.75813e-08
-4.56862e-08
2.47484e-06
8.17914e-07
1.82451e-08
-4.17529e-08
2.50339e-06
8.59271e-07
1.79421e-08
-3.54577e-08
2.50833e-06
8.14956e-07
1.69258e-08
-2.7723e-08
2.50834e-06
5.90023e-07
1.536e-08
-1.64454e-08
2.52574e-06
1.33091e-08
6.77987e-10
2.56701e-06
5.13757e-07
-2.18419e-08
3.0573e-06
6.5792e-07
-1.56767e-08
3.05876e-06
7.90816e-07
-1.27836e-08
3.01162e-06
8.94685e-07
-1.11391e-08
2.93727e-06
9.45285e-07
-1.03809e-08
2.85381e-06
8.98935e-07
-1.01861e-08
2.77906e-06
6.5114e-07
-1.00702e-08
2.74038e-06
-8.0242e-09
2.74953e-06
5.33753e-07
-4.3214e-08
3.62188e-06
6.86296e-07
-4.04152e-08
3.5255e-06
8.29697e-07
-3.93731e-08
3.38934e-06
9.43916e-07
-3.91962e-08
3.23695e-06
1.00212e-06
-3.95941e-08
3.08668e-06
9.56598e-07
-4.02522e-08
2.95665e-06
6.94072e-07
-4.05019e-08
2.87634e-06
-3.78541e-08
2.86087e-06
5.48839e-07
-5.75272e-08
3.85514e-06
7.01845e-07
-5.93151e-08
3.72134e-06
8.47261e-07
-6.11319e-08
3.55111e-06
9.63802e-07
-6.31188e-08
3.36875e-06
1.02359e-06
-6.49749e-08
3.19281e-06
9.77714e-07
-6.64313e-08
3.0414e-06
7.09675e-07
-6.70415e-08
2.94459e-06
-6.48915e-08
2.91778e-06
5.52202e-07
-6.9628e-08
3.6977e-06
6.98695e-07
-7.51753e-08
3.60077e-06
8.37643e-07
-7.89777e-08
3.46305e-06
9.48423e-07
-8.21328e-08
3.30847e-06
1.00416e-06
-8.46107e-08
3.15566e-06
9.575e-07
-8.63241e-08
3.02275e-06
6.9512e-07
-8.71155e-08
2.93894e-06
-8.57411e-08
2.91751e-06
5.42766e-07
-8.61434e-08
3.17906e-06
6.77455e-07
-9.16744e-08
3.18364e-06
8.03126e-07
-9.44582e-08
3.13695e-06
9.01531e-07
-9.59461e-08
3.06102e-06
9.48454e-07
-9.64163e-08
2.97468e-06
9.00575e-07
-9.59729e-08
2.89594e-06
6.53369e-07
-9.48575e-08
2.85204e-06
-9.16523e-08
2.8524e-06
5.18722e-07
-1.07891e-07
2.39606e-06
6.35199e-07
-1.07459e-07
2.54221e-06
7.42786e-07
-1.05577e-07
2.61864e-06
8.26512e-07
-1.02051e-07
2.64957e-06
8.65198e-07
-9.65035e-08
2.65452e-06
8.20383e-07
-8.84794e-08
2.65095e-06
5.97231e-07
-7.67494e-08
2.66236e-06
-5.63143e-08
2.69098e-06
-6.45758e-09
5.29775e-08
4.58224e-06
-2.49418e-08
-2.34973e-09
3.78015e-08
4.98544e-06
-9.94606e-09
8.32795e-09
1.61394e-08
5.26092e-06
5.77151e-09
1.7741e-08
2.18044e-12
5.43818e-06
2.05168e-08
2.09611e-08
-1.1046e-08
5.53471e-06
3.33651e-08
1.77595e-08
-2.19037e-08
5.55125e-06
4.55722e-08
9.84338e-09
-3.3813e-08
5.44309e-06
5.75228e-08
-4.7848e-08
4.94939e-06
6.96576e-08
5.0215e-08
6.28827e-08
5.75518e-06
5.51623e-08
6.66257e-08
6.73033e-06
6.65659e-08
4.28395e-08
6.83866e-06
7.34984e-08
2.88401e-08
6.86901e-06
7.06614e-08
2.16678e-08
6.83602e-06
5.62096e-08
1.51611e-08
6.73543e-06
3.14823e-08
7.34303e-09
6.51076e-06
-4.67924e-09
5.84856e-06
8.99311e-08
6.39228e-08
5.71093e-06
1.02609e-07
8.25594e-08
7.8056e-06
1.07939e-07
7.10514e-08
7.98022e-06
1.09485e-07
6.34326e-08
7.87874e-06
1.01731e-07
6.04674e-08
7.73256e-06
8.0767e-08
5.86614e-08
7.53437e-06
4.64402e-08
5.64578e-08
7.21803e-06
5.07303e-08
6.43107e-06
6.68111e-08
6.87252e-08
5.99762e-06
8.66462e-08
8.00935e-08
8.07237e-06
9.3771e-08
8.74671e-08
8.30032e-06
9.64335e-08
8.98124e-08
8.15182e-06
9.03867e-08
9.14021e-08
7.9642e-06
7.19825e-08
9.38488e-08
7.7293e-06
4.09179e-08
9.62631e-08
7.37865e-06
9.46711e-08
6.54838e-06
1.74303e-08
4.95191e-08
5.83079e-06
3.17175e-08
7.70395e-08
7.64375e-06
4.74561e-08
9.08895e-08
7.68961e-06
5.88617e-08
9.93348e-08
7.6045e-06
6.05629e-08
1.05518e-07
7.46892e-06
5.08205e-08
1.11949e-07
7.2767e-06
2.97779e-08
1.18151e-07
6.96512e-06
1.20435e-07
6.1919e-06
-4.11731e-08
4.49019e-08
5.73721e-06
-1.8315e-08
6.34376e-08
6.27355e-06
5.26738e-09
8.08957e-08
6.40024e-06
2.25395e-08
9.35443e-08
6.44254e-06
2.93476e-08
1.04424e-07
6.4163e-06
2.61797e-08
1.14208e-07
6.31966e-06
1.49416e-08
1.22391e-07
6.10053e-06
1.2475e-07
5.46233e-06
-1.69065e-08
4.19239e-06
4.46273e-08
-4.0783e-09
4.57168e-06
6.03757e-08
9.86523e-09
4.83481e-06
7.52374e-08
1.97346e-08
5.00225e-06
8.79633e-08
2.38175e-08
5.09052e-06
9.95348e-08
2.1464e-08
5.1006e-06
1.10133e-07
1.34115e-08
4.9917e-06
1.19374e-07
4.52194e-06
1.24529e-07
-6.43952e-08
8.1926e-08
4.54233e-06
-4.04814e-08
-4.55946e-08
4.2789e-08
4.93721e-06
-1.32053e-08
-2.72173e-08
2.52337e-08
5.21259e-06
4.83452e-09
-1.47349e-08
1.40149e-08
5.39293e-06
1.88671e-08
-6.55057e-09
7.42464e-10
5.49425e-06
3.16091e-08
-2.10214e-09
-1.28256e-08
5.51585e-06
4.38102e-08
8.02416e-11
-2.73333e-08
5.41248e-06
5.59155e-08
-4.33579e-08
4.92492e-06
6.80586e-08
-7.31954e-08
8.69804e-08
5.67291e-06
-4.77518e-08
6.77658e-08
6.68004e-06
-1.55238e-08
5.24968e-08
6.77936e-06
8.33129e-09
4.73177e-08
6.81207e-06
2.08969e-08
3.89242e-08
6.78549e-06
2.29003e-08
2.82322e-08
6.69243e-06
1.54392e-08
1.62352e-08
6.47481e-06
3.83788e-12
5.82072e-06
-1.13237e-07
4.49513e-08
5.38509e-06
-1.11716e-07
6.26119e-08
7.75211e-06
-6.37337e-08
6.50173e-08
7.91978e-06
-1.91681e-08
6.69344e-08
7.81464e-06
1.14468e-08
6.56017e-08
7.67543e-06
2.46923e-08
6.23508e-08
7.4871e-06
2.11878e-08
5.78401e-08
7.18009e-06
4.9504e-08
6.4028e-06
-1.4642e-07
1.06092e-08
5.56095e-06
-1.6603e-07
4.82826e-08
8.03165e-06
-1.13584e-07
6.74782e-08
8.24551e-06
-5.88176e-08
7.37393e-08
8.09033e-06
-1.69662e-08
7.8408e-08
7.90974e-06
6.5044e-09
8.2814e-08
7.68557e-06
1.19986e-08
8.60049e-08
7.34512e-06
8.47341e-08
6.52523e-06
-1.51121e-07
-5.44464e-09
5.51288e-06
-1.4771e-07
4.96146e-08
7.61096e-06
-9.99898e-08
6.87174e-08
7.64078e-06
-5.31279e-08
7.67268e-08
7.55488e-06
-1.82771e-08
8.57381e-08
7.42688e-06
1.92843e-09
9.51023e-08
7.24447e-06
7.96546e-09
1.03321e-07
6.94191e-06
1.07006e-07
6.1777e-06
-1.45066e-07
7.62223e-09
5.67353e-06
-1.10285e-07
4.7374e-08
6.24117e-06
-7.08448e-08
6.63039e-08
6.36341e-06
-3.90605e-08
7.81566e-08
6.40951e-06
-1.71861e-08
9.02424e-08
6.39019e-06
-4.5339e-09
1.01291e-07
6.30112e-06
7.56406e-10
1.10095e-07
6.08871e-06
1.12741e-07
5.45752e-06
-7.75078e-08
4.17145e-06
2.86057e-08
-5.86718e-08
4.54647e-06
5.40207e-08
-3.84015e-08
4.81146e-06
6.96046e-08
-2.20235e-08
4.9831e-06
8.10984e-08
-9.42537e-09
5.07657e-06
9.18894e-08
-1.05146e-09
5.09192e-06
1.01847e-07
2.91631e-09
4.98773e-06
1.10349e-07
4.52306e-06
1.14711e-07
6.92279e-11
3.93227e-08
4.49303e-06
-1.20236e-08
1.766e-08
1.74731e-08
4.89759e-06
4.61699e-09
2.5756e-08
1.28384e-08
5.17584e-06
1.59396e-08
2.62774e-08
6.67138e-09
5.36044e-06
2.53907e-08
2.2765e-08
-4.48863e-09
5.46665e-06
3.56807e-08
1.67593e-08
-1.74825e-08
5.49306e-06
4.63906e-08
8.92789e-09
-3.10868e-08
5.39427e-06
5.73196e-08
-4.60878e-08
4.91197e-06
6.80876e-08
3.46045e-08
5.26288e-08
5.43523e-06
5.31924e-08
4.80488e-08
6.63092e-06
6.67018e-08
4.76995e-08
6.731e-06
7.09781e-08
4.46825e-08
6.76987e-06
6.57641e-08
3.54604e-08
6.7509e-06
5.15732e-08
2.36897e-08
6.66559e-06
2.92889e-08
1.0862e-08
6.4553e-06
-5.43313e-09
5.80947e-06
-6.56723e-09
4.05688e-08
4.48658e-06
1.23839e-08
5.9997e-08
7.54777e-06
4.59109e-08
6.79769e-08
7.86604e-06
6.95866e-08
6.87094e-08
7.76709e-06
7.75975e-08
6.48857e-08
7.63829e-06