/*--------------------------------*- C++ -*----------------------------------*\
| =========                 |                                                 |
| \\      /  F ield         | OpenFOAM: The Open Source CFD Toolbox           |
|  \\    /   O peration     | Version:  plus.master.MPPICInterFoam            |
|   \\  /    A nd           | Web:      www.OpenFOAM.com                      |
|    \\/     M anipulation  |                                                 |
\*---------------------------------------------------------------------------*/
FoamFile
{
    version     2.0;
    format      ascii;
    class       volVectorField;
    location    "9.2";
    object      U;
}
// * * * * * * * * * * * * * * * * * * * * * * * * * * * * * * * * * * * * * //

dimensions      [0 1 -1 0 0 0 0];

internalField   nonuniform List<vector> 
11822
(
(0.000193004 -0.00282565 0.544868)
(0.000144328 -0.00219011 0.556688)
(2.10091e-05 -0.00198165 0.539968)
(4.61263e-05 -0.00140862 0.498872)
(1.54743e-05 -0.00138537 0.445384)
(0.000311489 -0.0016951 0.387868)
(0.000814627 -0.00176659 0.331181)
(0.000864536 -0.00357784 0.648322)
(0.000778151 -0.001992 0.676438)
(0.000248631 -0.00275361 0.655176)
(-5.16789e-05 -0.00184969 0.584118)
(-0.000164511 -0.00177451 0.503866)
(0.000180545 -0.00214871 0.429821)
(0.000768332 -0.00224589 0.362849)
(0.000393684 -0.0048907 0.757425)
(0.00296663 -0.00194984 0.83186)
(0.00259336 -0.00282527 0.795457)
(0.00188622 -0.00203274 0.676845)
(0.0010465 -0.00203621 0.557411)
(0.000888455 -0.00239276 0.463338)
(0.00125508 -0.00246641 0.386712)
(0.00168816 -0.00406404 0.805246)
(0.0059711 -0.00371075 0.906875)
(0.00385501 -0.00297253 0.877578)
(0.00221027 -0.00198332 0.737168)
(0.00176724 -0.00210677 0.588888)
(0.00152397 -0.00229331 0.481292)
(0.00178675 -0.00240306 0.399033)
(0.000542422 -0.001606 0.794271)
(0.00599288 -0.0024848 0.869992)
(0.0059081 -0.00279641 0.837231)
(0.00298518 -0.00196506 0.725823)
(0.00203548 -0.00212148 0.584192)
(0.00193682 -0.00204763 0.47848)
(0.00222027 -0.00217021 0.397278)
(-0.00080035 0.000341382 0.721867)
(0.00338752 0.000246554 0.784987)
(0.00439063 -0.00227849 0.756508)
(0.00294678 -0.00159457 0.651464)
(0.00227013 -0.00177842 0.544418)
(0.00219444 -0.00163761 0.45591)
(0.00252982 -0.00185561 0.381846)
(-5.16465e-05 0.000187924 0.60755)
(0.00125289 9.16581e-05 0.632343)
(0.00158129 -0.000388593 0.615086)
(0.00145285 -0.000896124 0.557787)
(0.00170571 -0.00129836 0.488126)
(0.00221203 -0.00132537 0.419637)
(0.00280973 -0.0016838 0.355542)
(0.00155612 0.00258515 0.544321)
(-0.000374517 0.00423874 0.55679)
(-0.00189092 0.00382827 0.540245)
(-0.0026289 0.00296016 0.49838)
(-0.00252694 0.00147278 0.444167)
(-0.00165688 8.05933e-05 0.386523)
(-0.000650264 -0.000594795 0.330304)
(0.00251076 0.00382104 0.651268)
(-0.000840279 0.00454381 0.680194)
(-0.00340285 0.00354074 0.659899)
(-0.00443476 0.00305103 0.586522)
(-0.00426319 0.00128206 0.50389)
(-0.00281221 -0.000389526 0.428343)
(-0.00125141 -0.00119243 0.361482)
(0.000520626 0.00298287 0.762427)
(-0.00220381 0.00414184 0.835832)
(-0.00255703 0.00152348 0.801245)
(-0.00350958 0.00129601 0.681874)
(-0.00457488 0.000129315 0.559056)
(-0.00307161 -0.00114111 0.461847)
(-0.0012735 -0.00171844 0.38495)
(-0.00241191 -0.000395017 0.806624)
(-0.00598028 0.0019255 0.910581)
(-0.00396538 0.000323376 0.883078)
(-0.00355429 -0.00104308 0.743157)
(-0.00450091 -0.00159085 0.591251)
(-0.00290953 -0.00198429 0.479791)
(-0.00101383 -0.00217275 0.396927)
(-0.000609204 -0.00458283 0.798339)
(-0.00295365 -0.00263927 0.874055)
(-0.00250863 -0.00216195 0.87071)
(-0.00353493 -0.0038529 0.733142)
(-0.00395841 -0.00345656 0.586011)
(-0.00228084 -0.00273105 0.47638)
(-0.000481179 -0.00249785 0.394864)
(0.000385611 -0.00755951 0.720922)
(-0.00117682 -0.00878315 0.786494)
(-0.00184087 -0.00656779 0.758444)
(-0.00253168 -0.00577309 0.653329)
(-0.00281105 -0.00439875 0.54328)
(-0.00135751 -0.00306623 0.453118)
(0.000172989 -0.00264108 0.379247)
(0.0013126 -0.0059089 0.604501)
(-0.000500137 -0.00701227 0.629876)
(-0.00188313 -0.00586309 0.613709)
(-0.00218034 -0.00543573 0.55548)
(-0.00159589 -0.00423531 0.485187)
(-0.000268162 -0.00308153 0.416467)
(0.00102345 -0.00276726 0.353012)
(0.00128309 0.000534293 0.542815)
(-0.000188537 0.00264693 0.556734)
(-0.00150626 0.00216966 0.539774)
(-0.00176683 0.00122371 0.496267)
(-0.00127206 0.000250118 0.441411)
(-0.000409631 -0.000684374 0.384168)
(0.000439864 -0.00103862 0.328845)
(0.00154187 0.00166995 0.662244)
(-0.0011952 0.00354038 0.697268)
(-0.00329955 0.00263302 0.672448)
(-0.00349596 0.00153885 0.590427)
(-0.00264409 0.000217402 0.502307)
(-0.0011344 -0.00107809 0.425305)
(0.000160427 -0.0015503 0.359292)
(-0.0014917 0.00186777 0.799625)
(-0.00385442 0.00348521 0.848809)
(-0.00318765 0.00114741 0.817651)
(-0.00280552 4.33169e-05 0.702138)
(-0.00280369 -0.000523214 0.560304)
(-0.00103557 -0.00158065 0.458315)
(0.000400349 -0.00192812 0.382173)
(-0.00431905 -0.000201803 0.879014)
(-0.00668237 0.00182433 0.906352)
(-0.00402805 0.000939134 0.876024)
(-0.00292849 -0.00157909 0.764111)
(-0.00278448 -0.00186741 0.594217)
(-0.000751217 -0.00208153 0.475959)
(0.000781872 -0.00217827 0.393756)
(-0.0041558 -0.00314326 0.854199)
(-0.00717135 -0.00115375 0.912496)
(-0.0039031 -0.000533336 0.874749)
(-0.0014881 -0.00304044 0.750318)
(-0.00158619 -0.00302839 0.586395)
(2.95746e-05 -0.00238808 0.472085)
(0.00131906 -0.00225005 0.39154)
(-0.00222393 -0.00485487 0.735962)
(-0.00385985 -0.00608129 0.797507)
(-0.00263622 -0.00418303 0.76883)
(-0.00157661 -0.0040603 0.659974)
(-0.000924363 -0.0033156 0.540723)
(0.000545163 -0.00236983 0.448672)
(0.00172403 -0.00218408 0.376024)
(0.000500183 -0.00360621 0.603429)
(-0.000815932 -0.00454685 0.632231)
(-0.00153406 -0.00396159 0.614562)
(-0.000994255 -0.00358543 0.552846)
(-3.50677e-05 -0.00298614 0.480496)
(0.00121976 -0.00224995 0.412248)
(0.00224606 -0.0021994 0.350104)
(-7.85597e-05 -0.00486095 0.541216)
(0.000197901 -0.00360046 0.55493)
(0.000274172 -0.00391428 0.537966)
(0.00111535 -0.00374254 0.494433)
(0.00188499 -0.0029295 0.440004)
(0.00232573 -0.00263263 0.383651)
(0.00272686 -0.00224348 0.329309)
(-0.000740868 -0.00462708 0.658145)
(-0.000360895 -0.0015796 0.694449)
(-0.000386278 -0.00278061 0.667817)
(0.00107702 -0.00367987 0.586362)
(0.00217696 -0.00295594 0.499696)
(0.0027676 -0.00287972 0.423828)
(0.00317356 -0.00254237 0.359082)
(-0.00359124 -0.00408709 0.793341)
(-0.00187885 0.000896401 0.844646)
(-2.67174e-05 -0.000871238 0.810762)
(0.00195735 -0.00274375 0.696114)
(0.00338578 -0.00254442 0.555789)
(0.00389005 -0.00272431 0.455981)
(0.00399478 -0.00253197 0.381402)
(-0.00318834 -0.00178685 0.86671)
(-0.0015083 0.000579111 0.902002)
(0.000697459 0.0006818 0.86758)
(0.0016736 -0.00143779 0.756942)
(0.00359755 -0.00209345 0.58876)
(0.004597 -0.00222276 0.473081)
(0.00465541 -0.00219229 0.392618)
(-0.0053055 0.00054684 0.846342)
(-0.00313532 0.000175381 0.90146)
(0.000377831 0.00111987 0.866933)
(0.0032876 -0.000597201 0.742441)
(0.00469149 -0.00145262 0.580967)
(0.00517832 -0.00145744 0.469154)
(0.00506521 -0.00164549 0.390268)
(-0.0043356 0.00145135 0.73717)
(-0.00230042 0.000555671 0.791629)
(0.000664385 0.00102825 0.760774)
(0.00291471 0.000284563 0.65318)
(0.00450445 -0.000414066 0.536037)
(0.00490216 -0.000622892 0.445873)
(0.0049718 -0.00108254 0.374818)
(-0.00101112 0.00187848 0.597814)
(-6.74177e-05 0.00188543 0.626271)
(0.00108698 0.00207581 0.607644)
(0.00277507 0.00154936 0.547347)
(0.00388646 0.000382138 0.47652)
(0.00442413 -0.000115663 0.409934)
(0.00474916 -0.000760075 0.349213)
(-0.00223771 -0.00916161 0.539203)
(-0.000297946 -0.00946477 0.55236)
(0.00159005 -0.00950352 0.535391)
(0.0036359 -0.0079099 0.492719)
(0.00478599 -0.00585195 0.438729)
(0.00542031 -0.00495642 0.382585)
(0.00617291 -0.00431964 0.328274)
(-0.00322171 -0.00899851 0.650899)
(-0.00079373 -0.00773133 0.683699)
(0.00197167 -0.00949819 0.656068)
(0.00507988 -0.00845286 0.580467)
(0.00626328 -0.00577535 0.497223)
(0.00645002 -0.00476634 0.422451)
(0.00691429 -0.00404475 0.35799)
(-0.00553635 -0.0071127 0.782232)
(-0.00242278 -0.00370114 0.830684)
(0.001563 -0.00699385 0.793094)
(0.00635248 -0.00643055 0.684047)
(0.00881755 -0.00468055 0.551076)
(0.00822368 -0.0039468 0.4541)
(0.00801481 -0.00335459 0.380164)
(-0.00397222 -0.00346289 0.854111)
(-0.00194459 -0.0009042 0.89439)
(0.00129696 -0.0026983 0.857702)
(0.00764909 -0.00314829 0.745884)
(0.010308 -0.00262444 0.582325)
(0.0095073 -0.00235532 0.470609)
(0.00891792 -0.00215473 0.391178)
(-0.00689191 0.000693972 0.833038)
(-0.00380453 0.00192544 0.889258)
(0.000502257 0.00213704 0.855694)
(0.00773803 0.0013054 0.735432)
(0.0108999 6.99178e-05 0.574001)
(0.00985358 -0.000326264 0.466498)
(0.00920076 -0.000690376 0.388601)
(-0.00594887 0.00427505 0.727578)
(-0.00186269 0.00575866 0.779521)
(0.00288308 0.00719753 0.74873)
(0.00733494 0.00522779 0.640798)
(0.00944915 0.00255251 0.530772)
(0.00896097 0.00145479 0.443188)
(0.0087971 0.000665481 0.372954)
(-0.00302436 0.00650947 0.591535)
(-0.000107271 0.00769837 0.61803)
(0.00293454 0.00807883 0.598675)
(0.00593764 0.00644474 0.541163)
(0.00732487 0.00376727 0.472856)
(0.00770591 0.00253703 0.407469)
(0.00817011 0.00161546 0.347238)
(-0.00404798 -0.0105702 0.539196)
(-0.000821124 -0.0109422 0.551991)
(0.00177598 -0.00970397 0.535096)
(0.00383042 -0.00791725 0.49225)
(0.00538294 -0.00658719 0.437865)
(0.00704125 -0.00645479 0.381413)
(0.00917575 -0.00637721 0.327715)
(-0.00391278 -0.0118676 0.641306)
(0.000470737 -0.0118168 0.66851)
(0.00363955 -0.0105238 0.644737)
(0.00568418 -0.00841484 0.577929)
(0.00652805 -0.00571387 0.496341)
(0.00759417 -0.00528772 0.421135)
(0.00966424 -0.00509179 0.356667)
(-0.00571211 -0.0109127 0.768636)
(0.00155369 -0.0100266 0.813174)
(0.00589622 -0.00845366 0.76606)
(0.00806013 -0.00696705 0.660392)
(0.00917021 -0.00450071 0.54887)
(0.00877077 -0.0038806 0.452576)
(0.0103626 -0.0036042 0.378497)
(-0.00646979 -0.00534758 0.838704)
(0.00111688 -0.00499161 0.886119)
(0.00527218 -0.00429347 0.821918)
(0.00883071 -0.00336805 0.716593)
(0.010787 -0.00234781 0.575864)
(0.00985092 -0.00192477 0.468748)
(0.0109928 -0.00177135 0.389299)
(-0.00810306 0.00296592 0.816153)
(-0.000234836 0.00313316 0.873818)
(0.00572565 0.00138847 0.803559)
(0.00978065 0.00181261 0.687701)
(0.0116592 0.000599555 0.568359)
(0.0102062 0.000378476 0.464429)
(0.0112554 0.000296536 0.386658)
(-0.00700769 0.0078241 0.699362)
(-0.000468199 0.010116 0.76156)
(0.00548311 0.00719185 0.724257)
(0.00896448 0.00602152 0.624302)
(0.0098338 0.00336294 0.527862)
(0.00965458 0.00267951 0.441163)
(0.011059 0.00235098 0.371149)
(-0.0048042 0.00900586 0.585377)
(-0.000152721 0.010529 0.608233)
(0.00350006 0.00875238 0.589407)
(0.00591881 0.00697272 0.537219)
(0.00734253 0.00500923 0.470721)
(0.00868195 0.00451304 0.405577)
(0.0105482 0.00412374 0.345972)
(0.0010708 -0.00158513 0.285045)
(0.00115192 -0.0013244 0.251421)
(0.001198 -0.0010011 0.220525)
(0.00118501 -0.000644898 0.192638)
(0.00111878 -0.000286055 0.16755)
(0.00100269 4.76342e-05 0.144549)
(0.000835941 0.000319088 0.12149)
(0.000649889 0.000509067 0.091312)
(0.00108612 -0.00208539 0.307718)
(0.00118092 -0.00194293 0.265158)
(0.00117777 -0.0017373 0.227854)
(0.00106989 -0.00150097 0.195)
(0.000873871 -0.00125151 0.165899)
(0.000616084 -0.00100844 0.139547)
(0.000329643 -0.00079005 0.113698)
(4.75442e-05 -0.000636391 0.0802405)
(0.00149742 -0.00240002 0.324889)
(0.00157662 -0.00235679 0.276718)
(0.00152468 -0.0022795 0.234936)
(0.00134289 -0.00219233 0.198561)
(0.00105217 -0.00210281 0.166685)
(0.000686224 -0.00201714 0.13815)
(0.000292946 -0.00193116 0.110577)
(-5.36638e-05 -0.00178174 0.0755541)
(0.00199928 -0.00247648 0.334113)
(0.00209602 -0.00254333 0.283668)
(0.00203833 -0.00261921 0.240073)
(0.00184543 -0.0027086 0.202259)
(0.00153978 -0.00280895 0.169249)
(0.00115499 -0.00291149 0.139826)
(0.000738919 -0.00299058 0.111546)
(0.000359846 -0.00292284 0.0758317)
(0.0024494 -0.00237024 0.333566)
(0.00259658 -0.00252783 0.284647)
(0.002595 -0.00273858 0.242255)
(0.00246606 -0.00298712 0.205366)
(0.0022318 -0.00325849 0.173052)
(0.00192059 -0.00352931 0.144135)
(0.00156896 -0.00375518 0.116194)
(0.00120765 -0.00376365 0.0806339)
(0.00279007 -0.00216508 0.323654)
(0.00299571 -0.00239371 0.279953)
(0.00308617 -0.00269384 0.241645)
(0.00307798 -0.00304408 0.207891)
(0.00298574 -0.00342297 0.17798)
(0.00282644 -0.00379791 0.150891)
(0.00261513 -0.00411274 0.124316)
(0.00232426 -0.00416829 0.0897927)
(0.00316261 -0.00205633 0.30612)
(0.00340155 -0.00232308 0.271453)
(0.0035841 -0.00265838 0.23942)
(0.00370803 -0.00303649 0.210379)
(0.00377773 -0.00343648 0.184112)
(0.00379909 -0.0038275 0.159845)
(0.00376519 -0.00415657 0.135456)
(0.00358199 -0.00421232 0.102748)
(-1.23603e-05 -0.000706169 0.284885)
(0.00032943 -0.000668251 0.251916)
(0.000599424 -0.000487332 0.221661)
(0.000744084 -0.000249093 0.19433)
(0.000816525 1.15541e-05 0.169686)
(0.000828196 0.000262745 0.146998)
(0.000774453 0.000461274 0.124135)
(0.00068482 0.000568352 0.0940727)
(-0.000303951 -0.00127872 0.307055)
(0.000197983 -0.00137844 0.265274)
(0.00047037 -0.00128625 0.228744)
(0.0005702 -0.00113807 0.196563)
(0.000543742 -0.000959148 0.168014)
(0.000431436 -0.000776921 0.142092)
(0.00026755 -0.000615275 0.11656)
(9.31881e-05 -0.000503914 0.083319)
(-0.000180512 -0.00183969 0.323779)
(0.000394868 -0.00194413 0.276448)
(0.000682938 -0.0019322 0.235526)
(0.000755953 -0.00189808 0.19991)
(0.000665882 -0.00185326 0.168665)
(0.000463963 -0.00180931 0.140628)
(0.000203949 -0.00176482 0.113425)
(-3.43167e-05 -0.00166616 0.0786692)
(0.000163011 -0.002281 0.332636)
(0.000800848 -0.00236024 0.283068)
(0.00111228 -0.00244186 0.240369)
(0.00119705 -0.00253388 0.203352)
(0.00110703 -0.00263667 0.171007)
(0.00089576 -0.00274312 0.14211)
(0.000619469 -0.00283013 0.114223)
(0.000354961 -0.00278216 0.0787963)
(0.00064235 -0.00257021 0.331847)
(0.00130582 -0.00260158 0.283811)
(0.00166021 -0.00275646 0.242301)
(0.00179883 -0.00295523 0.206192)
(0.00177305 -0.00318393 0.174526)
(0.00163 -0.00341797 0.146124)
(0.00141477 -0.00361464 0.11857)
(0.00116725 -0.0036076 0.0833029)
(0.00116611 -0.00271468 0.321866)
(0.00181637 -0.00270505 0.278996)
(0.00221735 -0.00289018 0.241497)
(0.00243838 -0.00314409 0.208451)
(0.00252708 -0.00344179 0.179128)
(0.00251566 -0.00374574 0.152505)
(0.00242659 -0.00399948 0.126285)
(0.00224068 -0.00400798 0.0920407)
(0.00183082 -0.00281656 0.30445)
(0.00237649 -0.00284254 0.270466)
(0.00281229 -0.00301789 0.23911)
(0.00311487 -0.00326006 0.210668)
(0.00333089 -0.00354057 0.184898)
(0.00347123 -0.00382743 0.161024)
(0.00353663 -0.0040686 0.136925)
(0.00344741 -0.00406487 0.104403)
(0.000855579 -0.00101689 0.284332)
(0.00103599 -0.000881913 0.252043)
(0.0011557 -0.000629231 0.222385)
(0.001164 -0.000333212 0.195537)
(0.00110461 -1.35396e-05 0.171259)
(0.00100722 0.000316891 0.148787)
(0.000894645 0.000602096 0.126035)
(0.000678604 0.000676606 0.0958108)
(0.000802765 -0.00155262 0.305964)
(0.0010558 -0.0015381 0.265074)
(0.00113588 -0.00136693 0.229289)
(0.00107579 -0.00115795 0.19772)
(0.000904226 -0.00092876 0.169659)
(0.000659959 -0.000699501 0.144103)
(0.000387076 -0.000508468 0.118816)
(9.39655e-05 -0.000374483 0.0856659)
(0.001102 -0.00196856 0.322225)
(0.00138393 -0.00198895 0.275901)
(0.00144645 -0.00192444 0.23583)
(0.00133618 -0.00185358 0.200922)
(0.00108164 -0.00178287 0.17025)
(0.000726111 -0.00172066 0.142651)
(0.000333753 -0.00167024 0.115747)
(-4.90983e-05 -0.00158252 0.081122)
(0.00152745 -0.00222131 0.330758)
(0.00184049 -0.00226717 0.282226)
(0.00191101 -0.00232953 0.240418)
(0.00179993 -0.00241201 0.204148)
(0.00153548 -0.00251201 0.172411)
(0.00116157 -0.00262068 0.143981)
(0.000746044 -0.00271449 0.116414)
(0.00033241 -0.00268281 0.0811358)
(0.00198577 -0.00230361 0.329811)
(0.0023153 -0.00236545 0.282763)
(0.00242195 -0.00254338 0.242112)
(0.00236322 -0.0027635 0.206724)
(0.00216371 -0.0030135 0.175647)
(0.00186086 -0.00326928 0.147697)
(0.00151012 -0.00348474 0.120459)
(0.00111969 -0.00350012 0.0853495)
(0.00234096 -0.00228542 0.31983)
(0.00269954 -0.00235625 0.277837)
(0.00287675 -0.00260203 0.241104)
(0.0029179 -0.00290659 0.2087)
(0.0028471 -0.00324866 0.179896)
(0.00268919 -0.00359214 0.153673)
(0.00247623 -0.00387491 0.127735)
(0.00216114 -0.00390825 0.0936463)
(0.00276812 -0.00233964 0.302576)
(0.00311175 -0.00245391 0.269271)
(0.00336652 -0.00269789 0.23854)
(0.0035161 -0.00300053 0.210622)
(0.00359165 -0.00333896 0.185272)
(0.00360134 -0.00367959 0.161717)
(0.00355639 -0.00396432 0.137835)
(0.0033624 -0.00401055 0.105408)
(0.00279623 -0.00194448 0.285649)
(0.0027271 -0.00162581 0.254025)
(0.00260612 -0.00128139 0.225028)
(0.00242074 -0.000917543 0.198821)
(0.00216041 -0.000540186 0.175134)
(0.00185984 -0.000138782 0.153137)
(0.00154153 0.000273405 0.130812)
(0.00109864 0.000422365 0.100885)
(0.00319855 -0.00230897 0.306775)
(0.00305309 -0.00202857 0.266698)
(0.00285922 -0.00174189 0.231697)
(0.00257071 -0.00144918 0.200897)
(0.00218203 -0.00115221 0.17357)
(0.00171451 -0.00085162 0.148673)
(0.00118775 -0.000562446 0.123983)
(0.000669336 -0.000334585 0.0915839)
(0.00385462 -0.00237585 0.322606)
(0.00363192 -0.00221443 0.277179)
(0.00335678 -0.0020733 0.237972)
(0.00297124 -0.00194669 0.203918)
(0.00246124 -0.00183242 0.174062)
(0.0018437 -0.00172751 0.147196)
(0.00114797 -0.00162445 0.120947)
(0.000497738 -0.0014973 0.0871378)
(0.00443479 -0.00216395 0.330826)
(0.00419329 -0.00217058 0.283222)
(0.00389238 -0.00221223 0.242309)
(0.00348139 -0.00228556 0.206922)
(0.00294144 -0.00238379 0.176027)
(0.00228713 -0.00249543 0.148352)
(0.00154901 -0.00259589 0.121454)
(0.000850984 -0.00257978 0.0870038)
(0.00480353 -0.00175596 0.329726)
(0.00458885 -0.00193497 0.283577)
(0.00432544 -0.00215633 0.243796)
(0.0039715 -0.00241948 0.209262)
(0.00350484 -0.00271358 0.178998)
(0.00293437 -0.0030206 0.151777)
(0.00227895 -0.00330426 0.125186)
(0.00161901 -0.00339552 0.090879)
(0.00484011 -0.0013298 0.319753)
(0.00472905 -0.00163168 0.278584)
(0.00457595 -0.00197734 0.242644)
(0.00435635 -0.00236754 0.211011)
(0.0040507 -0.0027883 0.182939)
(0.00366134 -0.00321645 0.157372)
(0.0031883 -0.00361001 0.132027)
(0.00263859 -0.00376432 0.0986789)
(0.00480065 -0.00114411 0.302684)
(0.00481602 -0.00144749 0.270046)
(0.00478342 -0.00179841 0.239979)
(0.00470639 -0.00219649 0.212704)
(0.00457114 -0.00262809 0.187957)
(0.00437762 -0.00306648 0.16494)
(0.00410943 -0.00347453 0.141549)
(0.00369303 -0.00364884 0.109725)
(0.00644974 -0.00401042 0.284637)
(0.0063657 -0.00369909 0.253011)
(0.00614309 -0.00335421 0.224038)
(0.00575012 -0.0028888 0.197807)
(0.00508704 -0.00226435 0.173912)
(0.00422008 -0.00150638 0.151343)
(0.00344016 -0.000835005 0.127816)
(0.00188117 0.000108149 0.0949401)
(0.00707109 -0.0038062 0.30578)
(0.00699865 -0.00349765 0.265767)
(0.00682714 -0.00326215 0.230899)
(0.00641653 -0.00296212 0.200231)
(0.00566632 -0.00256213 0.17288)
(0.00461566 -0.00207561 0.147606)
(0.00362336 -0.00167653 0.121853)
(0.0016842 -0.000894977 0.0866189)
(0.00791422 -0.00312762 0.321538)
(0.00781141 -0.00293304 0.276225)
(0.00763579 -0.00282728 0.237219)
(0.00720151 -0.00270927 0.203387)
(0.00638475 -0.00255664 0.173616)
(0.00521147 -0.00236949 0.146483)
(0.00409009 -0.00222934 0.119243)
(0.00185108 -0.00182485 0.0825219)
(0.0085941 -0.00206118 0.32962)
(0.00845289 -0.00203957 0.282154)
(0.00826169 -0.002068 0.241465)
(0.00781886 -0.00213632 0.206332)
(0.00698854 -0.00223446 0.175565)
(0.00578826 -0.00235107 0.147672)
(0.0046397 -0.00246476 0.119832)
(0.00230342 -0.00248341 0.0825083)
(0.00886417 -0.000777066 0.328326)
(0.00871582 -0.000949295 0.282305)
(0.00852112 -0.00112011 0.242725)
(0.00810044 -0.00137065 0.208413)
(0.00731854 -0.00170693 0.178244)
(0.00619011 -0.00210923 0.150784)
(0.00510948 -0.00245926 0.123262)
(0.00288466 -0.00289429 0.0861879)
(0.00866667 0.0004252 0.318143)
(0.00855741 0.000101342 0.277057)
(0.0083838 -0.000195923 0.24125)
(0.00801922 -0.000601468 0.209753)
(0.0073434 -0.00113785 0.181686)
(0.00637562 -0.0017754 0.155806)
(0.00544741 -0.00231575 0.129516)
(0.00352085 -0.00308068 0.0935858)
(0.00833168 0.00118839 0.300855)
(0.00827603 0.000878098 0.268219)
(0.00810817 0.000511564 0.238183)
(0.00780129 -2.63484e-06 0.21091)
(0.00725635 -0.00069744 0.186026)
(0.00650527 -0.0015175 0.162579)
(0.00577904 -0.00221052 0.138204)
(0.00427227 -0.00317919 0.104019)
(0.0109117 -0.00668166 0.285816)
(0.0117513 -0.00723651 0.25646)
(0.0123598 -0.00769054 0.230826)
(0.0125636 -0.00788061 0.209123)
(0.0122118 -0.00771979 0.191218)
(0.0111723 -0.00708959 0.176883)
(0.00921417 -0.00587764 0.166323)
(0.00488893 -0.00303823 0.160431)
(0.0115688 -0.00515042 0.305662)
(0.0129484 -0.00540042 0.267738)
(0.0140023 -0.0057053 0.236093)
(0.0145473 -0.00585106 0.209933)
(0.0143985 -0.00574228 0.188656)
(0.0133562 -0.00527604 0.171834)
(0.0111917 -0.0043432 0.159588)
(0.00609564 -0.00208587 0.15342)
(0.0121697 -0.00356394 0.320714)
(0.0137465 -0.00369008 0.277234)
(0.0150241 -0.00387074 0.241268)
(0.0157617 -0.00398713 0.21182)
(0.0157276 -0.00398363 0.188067)
(0.0146624 -0.00379946 0.169418)
(0.012299 -0.00337233 0.155913)
(0.00653757 -0.0022204 0.149323)
(0.0126697 -0.00170124 0.328501)
(0.0142822 -0.00169416 0.282754)
(0.015624 -0.00172121 0.24501)
(0.0164314 -0.00177212 0.214188)
(0.0164513 -0.00183499 0.189387)
(0.0154001 -0.00189836 0.169952)
(0.0129959 -0.00194112 0.155871)
(0.0070076 -0.0018831 0.148927)
(0.0128495 0.00032885 0.327245)
(0.0143684 0.000451607 0.282995)
(0.015626 0.000568366 0.246382)
(0.0163775 0.000586844 0.216381)
(0.0163839 0.000469813 0.192154)
(0.0153748 0.000174591 0.173084)
(0.0130679 -0.000327657 0.159153)
(0.00730242 -0.00138385 0.151937)
(0.0126713 0.0023218 0.3175)
(0.0139972 0.0025455 0.278378)
(0.0150487 0.0027845 0.245661)
(0.0156354 0.00286085 0.21854)
(0.0155635 0.00268806 0.196411)
(0.0146166 0.0021741 0.178815)
(0.0125405 0.00123068 0.165783)
(0.00744998 -0.000886619 0.158495)
(0.0121719 0.00425856 0.301192)
(0.0130244 0.00480388 0.270667)
(0.0136802 0.00524077 0.243806)
(0.013959 0.00542942 0.220905)
(0.013714 0.00528413 0.201854)
(0.0127842 0.00470147 0.186439)
(0.0109218 0.00355578 0.17473)
(0.00658719 0.000860068 0.16712)
(-0.000769191 -0.000649365 0.556044)
(-0.000523272 -0.00031602 0.508572)
(-0.000350339 0.000419666 0.46623)
(-0.000170671 0.00105572 0.428278)
(0.000120506 0.00144349 0.394042)
(0.000544162 0.00173967 0.3621)
(0.00105829 0.00201505 0.32884)
(0.00161648 0.00235875 0.27948)
(-0.00282162 -0.00103141 0.633297)
(-0.00252873 -0.000816317 0.565588)
(-0.0021436 -7.87647e-05 0.511559)
(-0.00182066 0.000487254 0.46497)
(-0.00149091 0.000707445 0.424196)
(-0.0010079 0.000840458 0.387206)
(-0.000424014 0.00100257 0.349823)
(0.000204582 0.00132353 0.295948)
(-0.00462488 -0.00201739 0.693656)
(-0.00432329 -0.00185333 0.6069)
(-0.00371922 -0.00129416 0.542806)
(-0.003128 -0.000914546 0.48921)
(-0.00261224 -0.000850068 0.443125)
(-0.00201372 -0.000867583 0.402134)
(-0.00135194 -0.000865391 0.361626)
(-0.000707284 -0.000700269 0.304544)
(-0.00412149 -0.00356401 0.703671)
(-0.00395656 -0.00317839 0.614048)
(-0.00338423 -0.00293632 0.547289)
(-0.00285281 -0.00282637 0.491949)
(-0.00231269 -0.0028078 0.444471)
(-0.0017125 -0.00284633 0.402397)
(-0.00106517 -0.00289433 0.361047)
(-0.000478841 -0.00281369 0.303182)
(-0.00219663 -0.00395413 0.661279)
(-0.00188381 -0.00372003 0.582102)
(-0.0016069 -0.00390431 0.522571)
(-0.00128903 -0.00406166 0.471704)
(-0.000930934 -0.00412201 0.427546)
(-0.000460754 -0.00419937 0.387945)
(8.56728e-05 -0.00428688 0.348551)
(0.000560014 -0.0042691 0.292854)
(0.000304813 -0.00265708 0.583117)
(0.000268105 -0.00305033 0.52624)
(0.00027019 -0.0036399 0.47786)
(0.000365709 -0.00405862 0.435235)
(0.000640907 -0.00431523 0.397337)
(0.00105551 -0.00451474 0.362542)
(0.00154957 -0.00466393 0.327063)
(0.00194325 -0.00467164 0.275751)
(0.000218652 -0.00272957 0.506796)
(0.000462674 -0.00309539 0.465239)
(0.000782695 -0.00365278 0.427363)
(0.00119151 -0.00403703 0.392881)
(0.00168449 -0.00431237 0.361395)
(0.00224254 -0.00449729 0.331737)
(0.00282331 -0.00460364 0.300658)
(0.00325533 -0.00458245 0.254522)
(0.00149132 -0.00400268 0.552319)
(0.00105434 -0.00204194 0.504556)
(0.0006486 -0.000796099 0.462618)
(0.000494979 -1.45006e-05 0.425229)
(0.00060013 0.000590071 0.391574)
(0.000836308 0.00112436 0.360175)
(0.0011924 0.0016033 0.32738)
(0.0015897 0.00213445 0.278466)
(0.00154939 -0.005028 0.63121)
(0.00116008 -0.00304711 0.562241)
(0.000311057 -0.00182541 0.508007)
(-0.000249924 -0.00117132 0.461789)
(-0.00045813 -0.000632059 0.421592)
(-0.000391125 -0.000126637 0.385203)
(-0.000133222 0.000364247 0.348342)
(0.000222258 0.000974683 0.294953)
(0.002792 -0.00393328 0.695076)
(0.00270757 -0.00309346 0.605137)
(0.00145565 -0.00248191 0.539852)
(0.000330009 -0.00218328 0.486152)
(-0.000342795 -0.00190467 0.440508)
(-0.000629874 -0.00162258 0.400134)
(-0.000635102 -0.00133436 0.360213)
(-0.000513177 -0.000898449 0.303666)
(0.00325506 -0.00148111 0.707131)
(0.00408402 -0.00202114 0.613333)
(0.00266251 -0.00231887 0.545022)
(0.00137034 -0.00249032 0.489327)
(0.000475909 -0.00259464 0.4422)
(-3.4956e-06 -0.00267016 0.400703)
(-0.000171404 -0.00270812 0.359921)
(-0.000223302 -0.00259398 0.302578)
(0.00379816 0.000685977 0.663545)
(0.00380859 -0.000967416 0.581282)
(0.00269961 -0.00188916 0.520532)
(0.001667 -0.00241136 0.469557)
(0.0010126 -0.00284332 0.425801)
(0.000701846 -0.00323132 0.386744)
(0.000649854 -0.00354641 0.347858)
(0.00064337 -0.00370415 0.292616)
(0.0037064 0.00179844 0.583257)
(0.00316157 -0.00038228 0.524735)
(0.00228996 -0.00163266 0.476059)
(0.00174052 -0.00235762 0.433684)
(0.00152147 -0.00296676 0.396241)
(0.00154579 -0.00347406 0.361926)
(0.00171761 -0.00385886 0.32686)
(0.00182453 -0.00405847 0.275903)
(0.00213407 0.000599049 0.505261)
(0.00195943 -0.00112551 0.46346)
(0.00185027 -0.00216171 0.42588)
(0.00192372 -0.00278133 0.391838)
(0.00214474 -0.00328817 0.360814)
(0.00245322 -0.00368125 0.331569)
(0.00280348 -0.00395451 0.30082)
(0.0030161 -0.00408327 0.254953)
(0.000491063 -0.00174795 0.547766)
(0.000144193 -0.000343444 0.499486)
(-8.19657e-05 0.000294634 0.458211)
(-1.87675e-05 0.000612065 0.421564)
(0.000271334 0.000978571 0.388601)
(0.000644346 0.00136049 0.357783)
(0.00108461 0.00173735 0.325475)
(0.00153848 0.00217544 0.277067)
(-8.06785e-05 -0.00294915 0.632862)
(-0.000347353 -0.00142019 0.558069)
(-0.000918273 -0.00101051 0.503457)
(-0.00113103 -0.000764758 0.457814)
(-0.00104354 -0.000353433 0.418356)
(-0.000737358 9.26049e-05 0.382654)
(-0.000307219 0.000545419 0.346385)
(0.000183935 0.00110971 0.293593)
(0.00105421 -0.00295222 0.712715)
(0.00126597 -0.00236332 0.604315)
(0.000125185 -0.00228254 0.535587)
(-0.000721081 -0.00214271 0.481983)
(-0.00111803 -0.00184331 0.437112)
(-0.00114211 -0.00150977 0.397553)
(-0.000932928 -0.00117261 0.358327)
(-0.000621126 -0.000702397 0.302439)
(0.00276754 -0.00113129 0.731356)
(0.00315946 -0.00192859 0.614219)
(0.00168735 -0.00232067 0.54116)
(0.000445217 -0.00249651 0.485324)
(-0.00025857 -0.0025578 0.438964)
(-0.000534899 -0.00257482 0.398336)
(-0.000519443 -0.00255803 0.3583)
(-0.000396533 -0.00240452 0.301642)
(0.00225747 0.000220058 0.675285)
(0.00227733 -0.00146897 0.579707)
(0.00138746 -0.00211226 0.516904)
(0.000617972 -0.00250095 0.466207)
(0.000228473 -0.0028574 0.423218)
(0.00015274 -0.00316879 0.384934)
(0.000283858 -0.00341309 0.346699)
(0.000445334 -0.00351163 0.292051)
(0.00232745 6.19021e-06 0.583615)
(0.001926 -0.00170143 0.521749)
(0.00131042 -0.00235082 0.473021)
(0.000994126 -0.00275208 0.431232)
(0.00098228 -0.00315034 0.39446)
(0.00115658 -0.00349681 0.360744)
(0.00142237 -0.00375552 0.326177)
(0.0016082 -0.00384748 0.275689)
(0.00153745 -0.00100895 0.502476)
(0.00141995 -0.00229659 0.46062)
(0.00136515 -0.00284585 0.423615)
(0.0015135 -0.00315378 0.390161)
(0.00179508 -0.00343442 0.359659)
(0.00214503 -0.00366161 0.330853)
(0.0025117 -0.00381516 0.300473)
(0.00274143 -0.00384268 0.254963)
(-0.00167356 0.00185028 0.543425)
(-0.00155935 0.00198132 0.496126)
(-0.00138894 0.0018884 0.455765)
(-0.00101302 0.00186829 0.41985)
(-0.000546246 0.00193653 0.387493)
(-4.71271e-06 0.00201643 0.357162)
(0.000602277 0.00211979 0.325245)
(0.00124653 0.00227016 0.277257)
(-0.0041803 0.00127349 0.628213)
(-0.00406309 0.00113283 0.554157)
(-0.0036663 0.000876323 0.500494)
(-0.00311365 0.000824333 0.455753)
(-0.00242873 0.000897416 0.417053)
(-0.00168722 0.000996185 0.381974)
(-0.000884123 0.00112917 0.346201)
(-3.43781e-05 0.00138025 0.293893)
(-0.00511042 -0.000603912 0.710662)
(-0.00491305 -0.0010076 0.600528)
(-0.00474333 -0.00112595 0.532406)
(-0.00431925 -0.00105011 0.479832)
(-0.00362494 -0.000896669 0.435864)
(-0.00279941 -0.000753267 0.397042)
(-0.0018951 -0.000607532 0.358388)
(-0.000953547 -0.00033524 0.303022)
(-0.00332201 -0.00210496 0.73308)
(-0.00360653 -0.002506 0.610939)
(-0.00388482 -0.00263782 0.538141)
(-0.00374718 -0.00260296 0.483386)
(-0.0032402 -0.00252336 0.437985)
(-0.00252388 -0.00244291 0.398137)
(-0.00169983 -0.00236991 0.358702)
(-0.000846673 -0.00219968 0.302575)
(-0.00348748 -0.00334222 0.671394)
(-0.00337241 -0.0036367 0.576949)
(-0.00310922 -0.003683 0.514741)
(-0.00274803 -0.00364824 0.464988)
(-0.00219367 -0.00361995 0.422811)
(-0.00150367 -0.00357971 0.38519)
(-0.000741447 -0.0035425 0.347471)
(1.66265e-05 -0.0034218 0.293275)
(-0.00146146 -0.00444935 0.58112)
(-0.00144829 -0.00446609 0.519734)
(-0.00129834 -0.00426461 0.471847)
(-0.000988803 -0.00414777 0.430793)
(-0.000541328 -0.00407131 0.394632)
(5.64412e-06 -0.00398985 0.361419)
(0.000603653 -0.00389651 0.327251)
(0.00115222 -0.00369505 0.277135)
(-0.000537989 -0.00455794 0.501025)
(-0.000416646 -0.00452702 0.459778)
(-0.000178834 -0.00433627 0.423353)
(0.000185255 -0.00424123 0.390392)
(0.000641857 -0.00415043 0.360315)
(0.00116472 -0.00404346 0.331868)
(0.0017164 -0.00390684 0.301786)
(0.00218162 -0.0036604 0.256586)
(-0.00419891 0.00482884 0.53889)