/*--------------------------------*- C++ -*----------------------------------*\
| =========                 |                                                 |
| \\      /  F ield         | OpenFOAM: The Open Source CFD Toolbox           |
|  \\    /   O peration     | Version:  plus.master                           |
|   \\  /    A nd           | Web:      www.OpenFOAM.com                      |
|    \\/     M anipulation  |                                                 |
\*---------------------------------------------------------------------------*/
FoamFile
{
    version     2.0;
    format      ascii;
    class       volVectorField;
    location    "6.4";
    object      U;
}
// * * * * * * * * * * * * * * * * * * * * * * * * * * * * * * * * * * * * * //

dimensions      [0 1 -1 0 0 0 0];

internalField   nonuniform List<vector> 
47285
(
(0.0291413 0.0287531 0.00823709)
(0.022787 0.0214364 0.0170385)
(0.0152344 0.0214215 0.031784)
(-0.0137797 0.0206745 0.0390171)
(-0.033991 0.0170022 0.026359)
(-0.0387752 0.015064 0.0135941)
(-0.0446942 0.0234401 0.00675224)
(0.021909 0.0251195 0.016241)
(0.0146088 0.0178205 0.0979357)
(0.037315 0.0456871 0.129875)
(-0.0187453 0.0512342 0.140267)
(-0.0585662 0.035434 0.121991)
(-0.0264208 0.00679135 0.0843098)
(-0.0324823 0.0188428 0.0119146)
(0.0238985 0.0190228 0.0303161)
(0.0449665 0.0442762 0.127744)
(0.0946815 0.104592 0.400771)
(-0.0191047 0.120934 0.459362)
(-0.112629 0.0920634 0.370102)
(-0.0478994 0.0353607 0.102922)
(-0.0279308 0.0149855 0.0223302)
(0.024012 -0.0064652 0.0398261)
(0.0551981 -0.0058273 0.146058)
(0.113288 -0.00361338 0.476009)
(-0.0149259 0.00603976 1.42742)
(-0.12782 -0.00269019 0.409679)
(-0.0467917 -0.00442453 0.117518)
(-0.0230133 -0.00468809 0.0296322)
(0.0216565 -0.0266391 0.0280402)
(0.0432515 -0.0507419 0.125458)
(0.0917262 -0.108729 0.397159)
(-0.0210103 -0.117838 0.467866)
(-0.111752 -0.0954671 0.364468)
(-0.0467987 -0.0404215 0.100448)
(-0.026187 -0.0210206 0.0207368)
(0.0195036 -0.0296435 0.0145004)
(0.0124903 -0.0206093 0.0922175)
(0.0348068 -0.0453819 0.122077)
(-0.0207267 -0.0484364 0.136728)
(-0.0579906 -0.0353057 0.113709)
(-0.0261145 -0.0102272 0.0800729)
(-0.0296057 -0.0230816 0.0108096)
(0.0278936 -0.0344767 0.00682923)
(0.0218491 -0.0269479 0.0141508)
(0.0130769 -0.0246861 0.0281402)
(-0.0156683 -0.0215201 0.0351677)
(-0.0347108 -0.0206907 0.0228642)
(-0.0394982 -0.0201797 0.0115606)
(-0.0443455 -0.0277975 0.00599142)
(0.0325549 0.026802 0.044448)
(0.0244192 0.0295598 0.0658417)
(0.0124173 0.0216704 0.106137)
(-0.0101737 0.0183432 0.123213)
(-0.0282077 0.0210831 0.0898444)
(-0.0387456 0.0235231 0.0576439)
(-0.0449414 0.0205752 0.0422201)
(0.0337673 0.0198487 0.0632601)
(0.0314203 0.0276837 0.173209)
(0.0245735 0.0304376 0.264823)
(-0.0114321 0.0291519 0.298739)
(-0.0387851 0.0272471 0.231871)
(-0.0426322 0.0207402 0.141903)
(-0.0448764 0.0137305 0.0532852)
(0.022671 0.00945981 0.10354)
(0.0307467 0.0225978 0.267491)
(0.024389 0.0272182 0.582204)
(-0.0128865 0.0282995 0.7677)
(-0.0431597 0.0301245 0.480321)
(-0.0371136 0.019742 0.202611)
(-0.0381342 0.00684673 0.0753937)
(0.013673 -0.00584097 0.132338)
(0.0241354 -0.00588579 0.338613)
(-0.00587297 -0.00306857 0.92674)
(-0.0684298 0.00773347 1.9534)
(-0.06631 -0.00304212 0.630008)
(-0.0323728 -0.00480042 0.238807)
(-0.0359791 -0.00442943 0.0877734)
(0.0217718 -0.018592 0.0968073)
(0.0276017 -0.0308486 0.261924)
(0.0213069 -0.0295437 0.569048)
(-0.0131507 -0.0176516 0.788674)
(-0.0412465 -0.0334241 0.46788)
(-0.0348716 -0.0266422 0.195748)
(-0.0375286 -0.0139886 0.070708)
(0.0302941 -0.0267355 0.0592528)
(0.0250621 -0.0331709 0.165085)
(0.018048 -0.0303601 0.253303)
(-0.0130915 -0.0259404 0.294135)
(-0.0352105 -0.0279536 0.218754)
(-0.0389603 -0.0259298 0.134736)
(-0.0424836 -0.0200231 0.0507799)
(0.0286993 -0.0317562 0.0420878)
(0.0196476 -0.0325214 0.0609275)
(0.00767172 -0.0226965 0.0993005)
(-0.0109257 -0.0171109 0.115764)
(-0.0253132 -0.0235174 0.0813363)
(-0.0354113 -0.0275505 0.0535711)
(-0.0419652 -0.0256197 0.0409976)
(0.0433154 0.0338463 0.0853326)
(0.0337247 0.0370129 0.114491)
(0.0193311 0.0373058 0.173304)
(-0.00468903 0.0375029 0.205793)
(-0.0289987 0.0409197 0.152892)
(-0.0461419 0.037408 0.103726)
(-0.0562643 0.0326543 0.0813574)
(0.046318 0.0228443 0.109084)
(0.0428442 0.0313544 0.209782)
(0.0330869 0.0370613 0.349313)
(-0.00434765 0.0385773 0.419786)
(-0.0394882 0.0410917 0.300081)
(-0.0538032 0.0335065 0.170694)
(-0.0613676 0.0231058 0.0969428)
(0.0407225 0.00781421 0.162011)
(0.0401344 0.0182571 0.347983)
(0.0416047 0.0313967 0.696017)
(-0.00374458 0.0385042 0.982022)
(-0.0557557 0.0445194 0.576165)
(-0.0532351 0.025539 0.261898)
(-0.0625572 0.0116665 0.128656)
(0.0301518 -0.00534129 0.207021)
(0.0322328 -0.00655472 0.465838)
(0.0176513 -0.00501005 1.13034)
(-0.0539079 -0.00184439 2.15546)
(-0.0779515 -0.00552871 0.785523)
(-0.0539005 -0.00569928 0.322978)
(-0.0638265 -0.00443728 0.147296)
(0.039905 -0.0171665 0.152155)
(0.0373292 -0.0280107 0.335132)
(0.0379473 -0.0374631 0.674403)
(-0.00335199 -0.037552 0.973683)
(-0.0526024 -0.0515687 0.557921)
(-0.0508948 -0.0341688 0.25033)
(-0.061741 -0.0195636 0.12176)
(0.0426137 -0.0304487 0.102493)
(0.0367873 -0.0378455 0.194636)
(0.0259994 -0.0373314 0.326979)
(-0.0052551 -0.0365234 0.40306)
(-0.0347385 -0.0432153 0.277453)
(-0.0502121 -0.0402433 0.157032)
(-0.0584336 -0.0305003 0.092088)
(0.0394393 -0.039401 0.0814981)
(0.0286279 -0.0415603 0.106535)
(0.0140922 -0.0396464 0.159255)
(-0.00474741 -0.0380357 0.190182)
(-0.0249399 -0.0450871 0.13785)
(-0.0420867 -0.0430106 0.0967018)
(-0.052738 -0.0388969 0.0783392)
(0.063218 0.051259 0.157344)
(0.0476452 0.0528603 0.18419)
(0.0258674 0.0544175 0.245379)
(-0.00225548 0.0530927 0.295061)
(-0.033127 0.057248 0.230243)
(-0.0579965 0.0533885 0.176829)
(-0.0739664 0.0510146 0.153083)
(0.0680819 0.0348618 0.176912)
(0.0592462 0.0432774 0.260797)
(0.0459457 0.047048 0.434211)
(-0.000711431 0.0511188 0.559291)
(-0.0467072 0.0526044 0.388926)
(-0.0685242 0.045013 0.237041)
(-0.0814648 0.035319 0.168664)
(0.0675377 0.0123566 0.219866)
(0.05506 0.0235817 0.41158)
(0.0815159 0.0560864 0.863811)
(0.00177 0.06589 1.23875)
(-0.0811996 0.0672139 0.764245)
(-0.0690246 0.0309917 0.343715)
(-0.0852621 0.0165853 0.200103)
(0.0581067 -0.00496865 0.263656)
(0.0490011 -0.00775327 0.559124)
(0.0730918 -0.0110824 1.33199)
(-0.0346853 -0.0197775 2.67416)
(-0.0930542 -0.00979127 1.0392)
(-0.0701489 -0.00725303 0.42744)
(-0.0856345 -0.00491471 0.221663)
(0.0669411 -0.0219179 0.210812)
(0.0531644 -0.0346135 0.391249)
(0.0768085 -0.0681629 0.835367)
(0.000854001 -0.0765413 1.18407)
(-0.075532 -0.0771308 0.732684)
(-0.0670609 -0.041406 0.327998)
(-0.0838582 -0.0258924 0.193425)
(0.0652048 -0.0435634 0.172004)
(0.0550053 -0.0518648 0.242011)
(0.0393408 -0.0503354 0.396776)
(-0.00160717 -0.0516875 0.515074)
(-0.0423625 -0.0571247 0.353632)
(-0.0652157 -0.0537822 0.220446)
(-0.0782124 -0.0447379 0.164664)
(0.0605247 -0.0587549 0.154404)
(0.0441761 -0.0606193 0.176421)
(0.0219101 -0.0609077 0.225103)
(-0.00234555 -0.0586671 0.267056)
(-0.0296579 -0.064779 0.210784)
(-0.0542107 -0.0623848 0.169889)
(-0.0703842 -0.0599879 0.150849)
(0.0666555 0.0616507 0.287385)
(0.0490486 0.0611739 0.305099)
(0.0236944 0.0571326 0.351898)
(-0.00218166 0.0488286 0.406362)
(-0.0312804 0.0585265 0.344083)
(-0.0573045 0.0601962 0.301085)
(-0.0734215 0.0616595 0.283771)
(0.0742085 0.0425588 0.298159)
(0.0603529 0.0478947 0.3531)
(0.0429213 0.0378177 0.527408)
(0.000824668 0.0380919 0.718194)
(-0.0420818 0.0428411 0.497548)
(-0.0673873 0.0453695 0.346482)
(-0.0829268 0.041554 0.293884)
(0.0768535 0.0170295 0.322271)
(0.0495488 0.0252548 0.480517)
(0.0946426 0.0660929 1.18502)
(0.00155567 0.0943277 1.8675)
(-0.0731196 0.0704835 1.03066)
(-0.0609456 0.0285686 0.453084)
(-0.0867109 0.0187133 0.317144)
(0.071068 -0.00355991 0.350359)
(0.0406034 -0.00740951 0.628169)
(0.101119 -0.0135099 1.70652)
(-0.0230625 -0.0134195 3.67435)
(-0.0772041 -0.0101552 1.42582)
(-0.0594709 -0.00715065 0.557664)
(-0.0855518 -0.00397558 0.336977)
(0.0763774 -0.0239627 0.316748)
(0.0506067 -0.0351093 0.456784)
(0.0854821 -0.0720013 1.08415)
(-5.4139e-05 -0.10322 1.66151)
(-0.0636164 -0.0729947 0.93609)
(-0.0608917 -0.0376621 0.432018)
(-0.0856792 -0.0262075 0.311976)
(0.0729902 -0.0485156 0.295023)
(0.0585248 -0.0556736 0.337321)
(0.0393513 -0.0446072 0.479763)
(0.000100634 -0.0407829 0.63901)
(-0.0407 -0.0496599 0.454792)
(-0.0657372 -0.0533969 0.331319)
(-0.0810512 -0.0485776 0.290896)
(0.0669129 -0.0661055 0.284765)
(0.0484118 -0.0678821 0.298901)
(0.0226363 -0.0653067 0.332351)
(-0.00227804 -0.0594064 0.373184)
(-0.0295909 -0.067011 0.325825)
(-0.0553468 -0.067817 0.295347)
(-0.0723148 -0.0672976 0.281631)
(-0.042411 0.011494 0.00587534)
(-0.0445265 0.0111846 0.00536766)
(-0.042149 0.0131809 0.00466153)
(-0.0417363 0.0138808 0.00388085)
(-0.041834 0.0148475 0.00298858)
(-0.0414749 0.0154045 0.0020009)
(-0.0409831 0.0157269 0.000924431)
(-0.0406159 0.0159051 -0.00018277)
(-0.0329117 0.0043799 0.00678482)
(-0.0463438 0.00276458 0.0058775)
(-0.0450679 0.00592024 0.0049319)
(-0.0437598 0.00731683 0.00414164)
(-0.0448733 0.00865107 0.00321328)
(-0.0446174 0.0089397 0.00229975)
(-0.044297 0.00912339 0.00131947)
(-0.0434824 0.00913871 0.000367238)
(-0.0222696 0.00228733 0.00742422)
(-0.0418945 0.000705089 0.00580441)
(-0.0402714 0.00220124 0.0048228)
(-0.0428644 0.00351061 0.00426621)
(-0.0433056 0.00439661 0.00345341)
(-0.0432332 0.00483782 0.00264131)
(-0.0434608 0.00483264 0.00179301)
(-0.0431009 0.00487946 0.000915338)
(-0.0224081 -0.00151599 0.0087716)
(-0.0377015 -0.00133457 0.00575382)
(-0.0402088 -0.00202078 0.00481575)
(-0.0392688 -0.00162992 0.00430717)
(-0.0411269 -0.00137076 0.0034631)
(-0.0425438 -0.00108163 0.0026648)
(-0.0403025 -0.000912456 0.00194132)
(-0.0412121 -0.00074752 0.00123892)
(-0.0254752 -0.00553962 0.00751732)
(-0.0381285 -0.00251144 0.00571827)
(-0.0406796 -0.00533404 0.00478659)
(-0.0420745 -0.00617984 0.00437765)
(-0.0423461 -0.006583 0.00351945)
(-0.0432658 -0.00692933 0.00265459)
(-0.0420756 -0.00653378 0.00180231)
(-0.0421552 -0.00640774 0.000889518)
(-0.0377081 -0.0112757 0.00625765)
(-0.0391863 -0.0054443 0.005689)
(-0.0448402 -0.0099369 0.00486046)
(-0.0428625 -0.0109131 0.00401011)
(-0.0429165 -0.0116567 0.00304906)
(-0.0428707 -0.0119104 0.00209279)
(-0.0420536 -0.0115099 0.00113492)
(-0.0417771 -0.0113695 0.000167659)
(-0.0407884 -0.0172053 0.00546637)
(-0.042579 -0.014943 0.00503993)
(-0.0406377 -0.0156222 0.0042844)
(-0.0402618 -0.0167888 0.00337539)
(-0.0397978 -0.0171563 0.00236513)
(-0.039511 -0.017358 0.00123819)
(-0.0392227 -0.0174181 7.46154e-05)
(-0.0384226 -0.0172162 -0.00104623)
(-0.0473063 0.0181522 0.0377792)
(-0.0479262 0.0190156 0.0351682)
(-0.0486564 0.0199561 0.0319813)
(-0.0491833 0.020695 0.0284876)
(-0.0493337 0.0211663 0.0247748)
(-0.049073 0.0213634 0.0209701)
(-0.0484379 0.0213139 0.0171747)
(-0.047439 0.0210202 0.0134584)
(-0.0487684 0.0110719 0.0391683)
(-0.050534 0.012098 0.035857)
(-0.0516398 0.0130774 0.032485)
(-0.0524567 0.0138521 0.0289694)
(-0.0527816 0.0143604 0.0251561)
(-0.0525193 0.0145819 0.0212422)
(-0.0517331 0.0145645 0.0173325)
(-0.0504496 0.0143314 0.013516)
(-0.0467687 0.00331508 0.0409765)
(-0.0500945 0.00442992 0.0357552)
(-0.0519564 0.0053091 0.0328477)
(-0.0533648 0.00598605 0.0297338)
(-0.0540108 0.00646755 0.0259607)
(-0.0539171 0.00674938 0.0219718)
(-0.0531601 0.00685285 0.0179224)
(-0.051796 0.00680805 0.0139324)
(-0.045211 -0.0030018 0.0428822)
(-0.0491139 -0.002569 0.0357159)
(-0.0513408 -0.00230999 0.0330209)
(-0.0529215 -0.00205869 0.0301176)
(-0.0537727 -0.00181791 0.0263931)
(-0.0538057 -0.00158836 0.0223429)
(-0.0530888 -0.00137728 0.0183005)
(-0.0517618 -0.00118647 0.0143245)
(-0.0460855 -0.00938066 0.0400077)
(-0.0489495 -0.00962804 0.0358731)
(-0.0508679 -0.0099713 0.0331215)
(-0.0521978 -0.0101512 0.0301363)
(-0.0527984 -0.0101684 0.0263885)
(-0.0526846 -0.0100238 0.0223835)
(-0.0519028 -0.00973143 0.0183654)
(-0.0505517 -0.00932318 0.0143998)
(-0.046696 -0.0170749 0.0386437)
(-0.0482242 -0.0173491 0.0357364)
(-0.049457 -0.0178152 0.0325605)
(-0.0501905 -0.0181066 0.0289938)
(-0.050457 -0.0181627 0.0252138)
(-0.0501761 -0.0179611 0.0213532)
(-0.0493884 -0.0175341 0.0175268)
(-0.0481333 -0.0169112 0.0137858)
(-0.0445143 -0.0234166 0.0370289)
(-0.0450907 -0.0239129 0.0344218)
(-0.0457999 -0.0244358 0.0312259)
(-0.046231 -0.0248077 0.0276905)
(-0.046275 -0.0248983 0.0239964)
(-0.0459288 -0.0247158 0.0202481)
(-0.0452234 -0.0242855 0.0165258)
(-0.0441642 -0.0236062 0.0128886)
(-0.0605378 0.031194 0.0705714)
(-0.0617361 0.0329968 0.0630079)
(-0.0630538 0.0349312 0.0546225)
(-0.0640963 0.0366011 0.0453686)
(-0.0647447 0.0378785 0.0356064)
(-0.0649351 0.0387199 0.0257572)
(-0.0645968 0.0390855 0.0162852)
(-0.0635963 0.0388821 0.00771222)
(-0.0646166 0.0211175 0.0752109)
(-0.0667465 0.0223989 0.0656454)
(-0.0686584 0.0239072 0.0569179)
(-0.0702718 0.0252985 0.0474766)
(-0.0713619 0.0263862 0.0373547)
(-0.0718183 0.0271015 0.0269651)
(-0.0715512 0.0274073 0.0168549)
(-0.0704059 0.0272396 0.00767724)
(-0.0656445 0.00902578 0.0817614)
(-0.0685772 0.0101173 0.0683559)
(-0.0710634 0.0111233 0.0593075)
(-0.0731972 0.0120535 0.0499618)
(-0.0747409 0.0128279 0.0397622)
(-0.0755231 0.0133896 0.0290724)
(-0.0754304 0.0137068 0.0185126)
(-0.0742974 0.0137442 0.00884795)
(-0.0654192 -0.00306601 0.085478)
(-0.0685541 -0.00261385 0.069452)
(-0.0712004 -0.00227623 0.0602598)
(-0.0735374 -0.00196465 0.0510213)
(-0.0753127 -0.00165565 0.0408624)
(-0.076296 -0.00135962 0.0301117)
(-0.0763461 -0.00108843 0.0194232)
(-0.0752843 -0.000847143 0.00960567)
(-0.0646647 -0.0154504 0.0805344)
(-0.0672871 -0.0154939 0.0683468)
(-0.0697119 -0.0157426 0.0595084)
(-0.0718456 -0.0160039 0.0502066)
(-0.0734355 -0.0161513 0.0400188)
(-0.0742979 -0.01614 0.0293335)
(-0.0743038 -0.0159506 0.0187728)
(-0.073274 -0.0155526 0.0091024)
(-0.0620117 -0.0275272 0.0741219)
(-0.064107 -0.0278805 0.065193)
(-0.0660403 -0.0286207 0.0565876)
(-0.0676989 -0.029327 0.0471624)
(-0.0688719 -0.0297985 0.0370597)
(-0.069444 -0.029968 0.0266995)
(-0.0693174 -0.0298004 0.0166221)
(-0.0683317 -0.0292351 0.00747957)
(-0.0571547 -0.0371438 0.0685778)
(-0.0583042 -0.0383853 0.0609649)
(-0.0596382 -0.0397788 0.0524053)
(-0.0606838 -0.0409419 0.0430217)
(-0.0613416 -0.041737 0.0332081)
(-0.0615598 -0.0421187 0.0233792)
(-0.0612784 -0.0420517 0.0139874)
(-0.0603701 -0.0414488 0.00555149)
(-0.0830943 0.0526591 0.139803)
(-0.0872054 0.058141 0.12977)
(-0.0913371 0.0634917 0.118701)
(-0.0947401 0.0678197 0.106551)
(-0.0968673 0.0707132 0.0935061)
(-0.0971357 0.0718946 0.0796031)
(-0.0949929 0.0710727 0.0645607)
(-0.0899903 0.068008 0.0477226)
(-0.0889639 0.0352852 0.146447)
(-0.0949917 0.0388875 0.134599)
(-0.100837 0.0428786 0.123304)
(-0.106034 0.0463524 0.111062)
(-0.109691 0.0488726 0.0977337)
(-0.111002 0.0500749 0.0833284)
(-0.10917 0.0496482 0.0675261)
(-0.103594 0.047372 0.0495091)
(-0.0912797 0.0159202 0.154395)
(-0.0984146 0.0183141 0.139141)
(-0.105367 0.0206792 0.127599)
(-0.111794 0.0228204 0.115529)
(-0.116622 0.02443 0.102266)
(-0.118799 0.0252705 0.0877301)
(-0.117332 0.0251644 0.0715709)
(-0.111474 0.0239929 0.0528714)
(-0.0910658 -0.00365463 0.158575)
(-0.0987149 -0.00321102 0.141089)
(-0.10604 -0.00284083 0.129487)
(-0.11295 -0.00246794 0.117623)
(-0.118281 -0.00208019 0.104518)
(-0.120849 -0.00168728 0.0900455)
(-0.119582 -0.00131681 0.073849)
(-0.113676 -0.000978808 0.0549802)
(-0.0898547 -0.023498 0.153714)
(-0.09673 -0.0247109 0.139677)
(-0.103658 -0.0261598 0.128511)
(-0.110157 -0.027428 0.116688)
(-0.115096 -0.0282263 0.103651)
(-0.117395 -0.0283502 0.0893264)
(-0.116052 -0.0276114 0.0733519)
(-0.11031 -0.0258682 0.0547918)
(-0.0857728 -0.0429679 0.146324)
(-0.0917897 -0.04542 0.1354)
(-0.0977417 -0.0485079 0.124574)
(-0.103056 -0.0511718 0.112743)
(-0.106856 -0.0529106 0.0998356)
(-0.108329 -0.053383 0.0858374)
(-0.106683 -0.0522764 0.0703949)
(-0.10131 -0.0493481 0.0526545)
(-0.0796389 -0.0603281 0.139171)
(-0.0837743 -0.0647973 0.129516)
(-0.0879626 -0.0691774 0.118777)
(-0.0913764 -0.0726598 0.107001)
(-0.0934779 -0.0748371 0.0943532)
(-0.0937221 -0.0753689 0.080838)
(-0.091577 -0.0739239 0.06613)
(-0.0866338 -0.0702181 0.049515)
(-0.0834816 0.0655345 0.271769)
(-0.0882771 0.0741271 0.259038)
(-0.0937425 0.0831064 0.239987)
(-0.0992939 0.0915111 0.21246)
(-0.104878 0.0991358 0.174999)
(-0.11123 0.106464 0.127387)
(-0.119402 0.114131 0.0712184)
(-0.126708 0.119623 0.0105968)
(-0.0918675 0.0436505 0.277489)
(-0.0991323 0.0495364 0.265224)
(-0.107057 0.0563151 0.248145)
(-0.115252 0.0628013 0.222755)
(-0.123343 0.0685793 0.186642)
(-0.132159 0.0738628 0.138728)
(-0.143212 0.0792196 0.0800883)
(-0.153365 0.0831102 0.0150249)
(-0.095943 0.0205307 0.283519)
(-0.104794 0.0244443 0.269855)
(-0.114281 0.0283693 0.254054)
(-0.124317 0.0321176 0.230504)
(-0.134264 0.0354236 0.195825)
(-0.144877 0.0383368 0.148153)
(-0.157874 0.0411635 0.0880787)
(-0.169839 0.0431523 0.0200278)
(-0.0963267 -0.00246551 0.287024)
(-0.10608 -0.00165688 0.271882)
(-0.116247 -0.000894497 0.256472)
(-0.127124 -0.000154536 0.233669)
(-0.137914 0.000500064 0.199627)
(-0.149292 0.000989709 0.152148)
(-0.16304 0.00126221 0.0916235)
(-0.175636 0.00130916 0.0225033)
(-0.0951759 -0.0254375 0.283007)
(-0.104198 -0.0274856 0.270193)
(-0.113997 -0.0298547 0.254653)
(-0.124404 -0.0321853 0.231236)
(-0.134731 -0.0342966 0.196642)
(-0.145686 -0.0363385 0.149025)
(-0.158941 -0.0386738 0.0889866)
(-0.171027 -0.0405536 0.0209237)
(-0.0905201 -0.0482892 0.277169)
(-0.0983444 -0.0522949 0.265481)
(-0.106945 -0.0573022 0.248634)
(-0.115904 -0.0621795 0.223381)
(-0.124782 -0.0666201 0.187372)
(-0.134315 -0.0709426 0.139551)
(-0.145927 -0.0757873 0.0810209)
(-0.156375 -0.0796302 0.0160512)
(-0.083184 -0.0690963 0.270729)
(-0.0886711 -0.075849 0.257963)
(-0.0949779 -0.083009 0.23871)
(-0.101466 -0.0897733 0.210958)
(-0.107979 -0.0960254 0.17332)
(-0.115173 -0.102328 0.125621)
(-0.124038 -0.109411 0.0694886)
(-0.13178 -0.114848 0.00899231)
(0.0265009 -0.0298171 0.00520108)
(0.0266442 -0.0301753 0.00426905)
(0.0250071 -0.0280178 0.00331669)
(0.0263446 -0.0290111 0.00212701)
(0.0263301 -0.0294384 0.000854775)
(0.026223 -0.0296312 -0.000458607)
(0.0259274 -0.0294759 -0.00175992)
(0.0254463 -0.0292533 -0.00300785)
(0.0241513 -0.0207474 0.00724261)
(0.0269338 -0.0199456 0.00560922)
(0.0263079 -0.0201499 0.00457413)
(0.027076 -0.0201866 0.0035554)
(0.0281959 -0.0202332 0.00258263)
(0.0263532 -0.0186864 0.00183323)
(0.0281435 -0.0194016 0.00103433)
(0.0272606 -0.0187141 0.000462211)
(0.0255088 -0.0139183 0.0104951)
(0.0309171 -0.0127129 0.00696921)
(0.0281528 -0.0133745 0.00583293)
(0.0264945 -0.0132724 0.00519113)
(0.0274473 -0.0143433 0.00440493)
(0.0274665 -0.01575 0.0034551)
(0.0255461 -0.0159614 0.00253238)
(0.0255045 -0.017336 0.00168535)
(0.0266973 -0.00288835 0.0139209)
(0.0351063 -0.00158391 0.0093905)
(0.0304772 -0.00229395 0.00881566)
(0.0298802 -0.00248289 0.00893104)
(0.0296045 -0.00232954 0.00890852)
(0.028785 -0.00242346 0.00851715)
(0.027153 -0.00256809 0.00776462)
(0.0256817 -0.00192098 0.00699948)
(0.0199272 0.00596941 0.0105246)
(0.0340098 0.00768887 0.00782749)
(0.0284581 0.00850509 0.00683664)
(0.0278276 0.00936303 0.00629249)
(0.0271341 0.0106815 0.00573343)
(0.0273703 0.0132885 0.00493558)
(0.0264132 0.0146228 0.00378725)
(0.024807 0.0149253 0.00267084)
(0.025338 0.0136208 0.00798911)
(0.0288693 0.0135072 0.00628271)
(0.0291933 0.0163373 0.00501039)
(0.0285366 0.016558 0.00394075)
(0.0310788 0.0177514 0.00284189)
(0.0282454 0.0161775 0.00215561)
(0.0305685 0.017501 0.00148502)
(0.0301177 0.0178669 0.00075885)
(0.0287976 0.0226468 0.00599253)
(0.0285704 0.0224764 0.00502497)
(0.0285431 0.0239878 0.00396573)
(0.0291365 0.0254335 0.00272041)
(0.0293169 0.0262676 0.00144908)
(0.029555 0.0266076 0.00010058)
(0.0295506 0.0266926 -0.00126682)
(0.0290575 0.0267556 -0.00263143)
(0.0315199 -0.0294601 0.0370167)
(0.0322774 -0.0299649 0.0335654)
(0.033405 -0.0303828 0.0297798)
(0.0343089 -0.0307307 0.0257328)
(0.034787 -0.030838 0.0215265)
(0.0348466 -0.0306766 0.0173137)
(0.0345026 -0.0302464 0.0131626)
(0.033763 -0.0295545 0.00910852)
(0.0335396 -0.0224848 0.0416837)
(0.0343628 -0.0228322 0.0371831)
(0.0354174 -0.023258 0.0335172)
(0.0363492 -0.0236855 0.0296383)
(0.0368778 -0.0239772 0.0254936)
(0.0368932 -0.024073 0.0213252)
(0.0364458 -0.0239842 0.017158)
(0.0354691 -0.0236476 0.013095)
(0.0325724 -0.0118434 0.0488497)
(0.0336078 -0.0126858 0.0413721)
(0.0347161 -0.0132567 0.0382514)
(0.0356845 -0.0137053 0.0353648)
(0.0361718 -0.0141105 0.032122)
(0.0360197 -0.0144237 0.0286526)
(0.0352738 -0.014616 0.0251997)
(0.0340039 -0.0147132 0.0217183)
(0.0305555 -0.00394615 0.0564015)
(0.0329116 -0.00324767 0.0445649)
(0.0342588 -0.00291864 0.0418683)
(0.0353769 -0.00260792 0.0396676)
(0.0357918 -0.00226812 0.037174)
(0.0354507 -0.00192228 0.034398)
(0.0344306 -0.00159636 0.0314993)
(0.0328469 -0.00128378 0.0285699)
(0.0328271 0.0037125 0.0521081)
(0.0346071 0.00620434 0.0431963)
(0.0354962 0.00778837 0.0397611)
(0.0364488 0.00903732 0.0367434)
(0.0368684 0.0101302 0.0334881)
(0.0366691 0.0110582 0.0299214)
(0.0358623 0.0117724 0.0262105)
(0.0345427 0.0122959 0.0225272)
(0.0362024 0.0159079 0.0434188)
(0.0368475 0.017061 0.0385394)
(0.0377285 0.0181219 0.034569)
(0.0385563 0.0190414 0.0304686)
(0.039085 0.0197982 0.0260721)
(0.039105 0.0203145 0.0217325)
(0.0386799 0.0206332 0.0174612)
(0.03769 0.0206777 0.0131631)
(0.0346978 0.0244254 0.0385139)
(0.035275 0.0252648 0.0349205)
(0.0362906 0.0261106 0.03099)
(0.0371562 0.026833 0.0267155)
(0.0376632 0.0273039 0.0223202)
(0.0377626 0.0274949 0.0179298)
(0.0374514 0.0274132 0.0136302)
(0.0367269 0.027076 0.00944251)
(0.0443656 -0.038283 0.0707406)
(0.0465527 -0.0399482 0.0622164)
(0.0487551 -0.041528 0.0528119)
(0.0505869 -0.0427832 0.0425357)
(0.0519298 -0.0436344 0.0317749)
(0.0527209 -0.0440646 0.0209883)
(0.0529043 -0.0440655 0.0106964)
(0.0523703 -0.0435764 0.00149824)
(0.0459492 -0.0283115 0.0798538)
(0.0489147 -0.0291899 0.0700802)
(0.0517108 -0.0301862 0.0610653)
(0.0542165 -0.0310113 0.051214)
(0.0561965 -0.0315172 0.0405474)
(0.0575234 -0.0316767 0.0294598)
(0.0580844 -0.0314848 0.0185172)
(0.0577191 -0.0309227 0.00844431)
(0.0446 -0.0144709 0.0917989)
(0.0477662 -0.0156041 0.0784643)
(0.050772 -0.0162228 0.070267)
(0.0535549 -0.0166586 0.0617779)
(0.0558027 -0.0169068 0.0523115)
(0.057318 -0.0169585 0.0420858)
(0.0579634 -0.0168212 0.0316069)
(0.0575433 -0.0164803 0.0215888)
(0.0408331 -0.00342733 0.102671)
(0.045463 -0.00263621 0.0833163)
(0.0488571 -0.00208597 0.0753885)
(0.0518383 -0.00157978 0.0677625)
(0.0541669 -0.00110103 0.0591708)
(0.0556588 -0.000648141 0.0496611)
(0.0562253 -0.000253789 0.0397536)
(0.0557273 0.000105877 0.0302312)
(0.0450488 0.00722719 0.0950642)
(0.0483642 0.0102513 0.0800204)
(0.0513448 0.0120647 0.0714531)
(0.0540792 0.0134368 0.0627925)
(0.056263 0.0145033 0.0531845)
(0.0577126 0.0152748 0.0427498)
(0.0582906 0.0157395 0.0319515)
(0.0578288 0.0158932 0.0216504)
(0.0485893 0.0220417 0.0823153)
(0.0512299 0.0239855 0.0717756)
(0.0538014 0.0257567 0.062505)
(0.0561545 0.0272605 0.0524442)
(0.0580038 0.0283706 0.0415469)
(0.0592045 0.0290524 0.0302159)
(0.0596393 0.0293078 0.0190318)
(0.0591541 0.02909 0.00873041)
(0.0474217 0.0333203 0.0733326)
(0.049285 0.0355059 0.0647676)
(0.0512936 0.0375828 0.0553822)
(0.0530108 0.0393072 0.0450711)
(0.0542651 0.0405932 0.0342231)
(0.0549743 0.0414226 0.0233026)
(0.0550684 0.0417798 0.0128336)
(0.054436 0.0415986 0.00341524)
(0.0705344 -0.0590673 0.141976)
(0.0761363 -0.0633091 0.13129)
(0.0814698 -0.0673587 0.119599)
(0.0858815 -0.0705176 0.106924)
(0.088826 -0.0724 0.0934307)
(0.0897473 -0.0726487 0.0791226)
(0.0881041 -0.070911 0.0636549)
(0.0834829 -0.0669176 0.0462678)
(0.0721841 -0.0419687 0.152445)
(0.0796381 -0.0439864 0.140888)
(0.0869328 -0.0464081 0.129502)
(0.0935535 -0.0483147 0.117131)
(0.0986191 -0.049298 0.103697)
(0.101278 -0.049043 0.0892034)
(0.100657 -0.0472768 0.0733145)
(0.0960952 -0.0437558 0.0551575)
(0.0707628 -0.0213576 0.164384)
(0.0783048 -0.0226771 0.150647)
(0.0861842 -0.0237505 0.140163)
(0.0938102 -0.0244993 0.129077)
(0.0999674 -0.0247578 0.116792)
(0.103552 -0.0243868 0.103247)
(0.103464 -0.0232287 0.0881041)
(0.0988227 -0.0211292 0.0704897)
(0.0664604 -0.00315472 0.173379)
(0.0752013 -0.00226628 0.155603)
(0.0835703 -0.0015654 0.145293)
(0.0916629 -0.000950801 0.134905)
(0.098244 -0.000435041 0.123443)
(0.102134 -3.84653e-05 0.110767)
(0.102199 0.00025458 0.0965697)
(0.0975308 0.000455603 0.0799872)
(0.0710755 0.014683 0.166149)
(0.0788461 0.0180023 0.150959)
(0.086777 0.0204052 0.139877)
(0.0944357 0.0222352 0.128279)
(0.100621 0.0233825 0.115514)
(0.104229 0.0237216 0.10151)
(0.104151 0.0231157 0.0859135)
(0.0994943 0.0214389 0.067924)
(0.0743011 0.0354004 0.153523)
(0.0815762 0.038803 0.140956)
(0.0887287 0.0423241 0.12891)
(0.0952513 0.0451765 0.115897)
(0.100215 0.0469792 0.101826)
(0.10275 0.0474475 0.0867318)
(0.101976 0.0463174 0.0703126)
(0.0972313 0.0433732 0.0517251)
(0.0726687 0.0531585 0.143284)
(0.0780099 0.0583343 0.132219)
(0.0832111 0.0632191 0.120154)
(0.0875495 0.0671345 0.107047)
(0.0904446 0.069717 0.0931025)
(0.0913088 0.0706361 0.0783751)
(0.0895691 0.069558 0.062569)
(0.084781 0.0662396 0.0449726)
(0.078971 -0.0668273 0.274)
(0.0859992 -0.0723337 0.260951)
(0.0934999 -0.0782392 0.241498)
(0.100976 -0.0839012 0.213609)
(0.108233 -0.0892551 0.17576)
(0.115903 -0.0948964 0.127564)
(0.124984 -0.101589 0.0704553)
(0.132722 -0.106959 0.00853574)
(0.082148 -0.0466861 0.282572)
(0.0916161 -0.0489368 0.271298)
(0.101799 -0.0520735 0.25478)
(0.112306 -0.0551377 0.229824)
(0.122599 -0.0579463 0.193934)
(0.133274 -0.0609388 0.145761)
(0.145675 -0.0648585 0.0860849)
(0.15657 -0.0683017 0.0191119)
(0.0816917 -0.0233088 0.290991)
(0.0914751 -0.0241672 0.280101)
(0.102765 -0.0250996 0.266115)
(0.115061 -0.0259043 0.244003)
(0.127528 -0.0265814 0.210288)
(0.140655 -0.0274279 0.16287)
(0.155829 -0.0289702 0.101969)
(0.169328 -0.0306083 0.0318168)
(0.0780547 -0.00156902 0.296861)
(0.0887723 -0.000399211 0.284383)
(0.100747 0.000490276 0.271181)
(0.11391 0.00116306 0.250455)
(0.127327 0.00154618 0.218252)
(0.141527 0.00164829 0.172034)
(0.157941 0.0015408 0.111768)
(0.172519 0.00130593 0.041576)
(0.0816888 0.0200902 0.2918)
(0.091417 0.0232442 0.280027)
(0.102524 0.0259191 0.265538)
(0.114594 0.0281071 0.243016)
(0.126768 0.0297718 0.209019)
(0.139548 0.0311839 0.161422)
(0.154383 0.0328262 0.100394)
(0.16767 0.0341433 0.0301568)
(0.0825312 0.0435773 0.283258)
(0.0914587 0.0478891 0.271357)
(0.101051 0.052893 0.254461)
(0.11087 0.0575765 0.229209)
(0.12041 0.0616959 0.193093)
(0.130364 0.0655888 0.144758)
(0.142175 0.0699252 0.0849462)
(0.15272 0.0732894 0.0178683)
(0.0778323 0.0645818 0.275624)
(0.0840486 0.0719305 0.262656)
(0.0906983 0.0796453 0.243391)
(0.0972486 0.0869725 0.215677)
(0.103576 0.0937413 0.177919)
(0.110392 0.100442 0.129675)
(0.118789 0.107734 0.0723452)
(0.126135 0.113178 0.0100847)
(0.0231317 0.0268927 0.00648354)
(0.0242632 0.0260382 0.00567992)
(0.0260454 0.0252771 0.00479982)
(0.0281861 0.0255345 0.00380436)
(0.0296179 0.025034 0.00276309)
(0.0310054 0.0246842 0.0016647)
(0.0318071 0.0239817 0.000492973)
(0.0320443 0.0231805 -0.000717933)
(0.011333 0.0228401 0.00857357)
(0.0125729 0.0266072 0.00679253)
(0.0147131 0.0240824 0.00572743)
(0.0163333 0.025146 0.00499461)
(0.0165067 0.0243099 0.00414836)
(0.0174302 0.0254189 0.00334321)
(0.0178283 0.0255844 0.002597)
(0.0178313 0.0251009 0.00199128)
(0.000848348 0.0190345 0.0113537)
(0.00241695 0.0295809 0.00855215)
(0.00555665 0.0241078 0.00771441)
(0.00778159 0.0225043 0.00773905)
(0.0102675 0.0213988 0.00806041)
(0.0129135 0.021532 0.00825877)
(0.0142512 0.0197946 0.00746521)
(0.015468 0.019408 0.0064498)
(-0.0101155 0.0171908 0.0129955)
(-0.0105771 0.0326782 0.0107354)
(-0.0104824 0.0248495 0.0107694)
(-0.0107058 0.0256979 0.0114922)
(-0.010038 0.024577 0.0116999)
(-0.00961509 0.0235363 0.0114873)
(-0.00841241 0.0220698 0.0109258)
(-0.00721391 0.0204662 0.0101733)
(-0.018046 0.0157843 0.0102447)
(-0.0176447 0.024766 0.00785947)
(-0.0188788 0.0213663 0.00683594)
(-0.0191082 0.0198835 0.00642845)
(-0.0207745 0.0211206 0.00625813)
(-0.0221038 0.0200396 0.00594897)
(-0.0250728 0.0199895 0.00557261)
(-0.026168 0.0196282 0.00487592)
(-0.0298089 0.0188676 0.00804375)
(-0.0296635 0.0216213 0.00674344)
(-0.0316726 0.0210885 0.00596254)
(-0.0313217 0.0199882 0.00532947)
(-0.0313713 0.0210787 0.00460144)
(-0.0306919 0.0226207 0.00372211)
(-0.0273263 0.0217859 0.00291184)
(-0.0269603 0.0231047 0.0023344)
(-0.0365129 0.0204827 0.00622373)
(-0.0382533 0.0204359 0.00576437)
(-0.0383084 0.0197057 0.00524078)
(-0.0389227 0.0193821 0.00465668)
(-0.0405288 0.019494 0.00408735)
(-0.042098 0.0187643 0.00344387)
(-0.0430909 0.017321 0.00269485)
(-0.0432854 0.0161995 0.00180151)
(0.0295441 0.0283694 0.04048)
(0.0304625 0.0287026 0.037325)
(0.0314749 0.0295254 0.033855)
(0.032436 0.0302177 0.0300224)
(0.033141 0.0306111 0.0260135)
(0.0335009 0.0307022 0.0219603)
(0.0334891 0.0304966 0.0179295)
(0.0331146 0.0300157 0.0139823)
(0.0196171 0.0304594 0.0477006)
(0.0201588 0.0301385 0.0434569)
(0.0209007 0.0303622 0.0404195)
(0.0217753 0.0308878 0.0373115)
(0.0226023 0.0312749 0.0338764)
(0.0233053 0.0314502 0.0302055)
(0.0238155 0.0312864 0.0264642)
(0.0241172 0.0307751 0.0228034)
(0.00521141 0.028802 0.0584549)
(0.00616865 0.0289485 0.049394)
(0.00727585 0.0289286 0.0465995)
(0.00842721 0.0293843 0.0444073)
(0.00964568 0.0295863 0.0417806)
(0.0107749 0.0293916 0.0386123)
(0.0116866 0.028747 0.0353075)
(0.0124046 0.0278135 0.0320188)
(-0.00904216 0.0277263 0.0627291)
(-0.00888654 0.0284025 0.0507476)
(-0.00849988 0.0282815 0.0481269)
(-0.00819475 0.0287678 0.0463272)
(-0.00792628 0.0288764 0.0444165)
(-0.00769578 0.0285479 0.0421966)
(-0.00747094 0.0277463 0.0397246)
(-0.00726162 0.0265099 0.0370762)
(-0.0224342 0.0270991 0.0535139)