/*--------------------------------*- C++ -*----------------------------------*\
| =========                 |                                                 |
| \\      /  F ield         | OpenFOAM: The Open Source CFD Toolbox           |
|  \\    /   O peration     | Version:  plus.master.MPPICInterFoam            |
|   \\  /    A nd           | Web:      www.OpenFOAM.com                      |
|    \\/     M anipulation  |                                                 |
\*---------------------------------------------------------------------------*/
FoamFile
{
    version     2.0;
    format      ascii;
    class       labelField;
    location    "3.4/lagrangian/kinematicCloud";
    object      origId;
}
// * * * * * * * * * * * * * * * * * * * * * * * * * * * * * * * * * * * * * //


713
(
3880
19738
29411
1843
20364
35283
6670
21024
8806
3459
10574
11198
15294
19727
14363
28684
5714
11805
7523
7650
4545
12363
20362
52016
6580
16041
21960
6120
15635
55959
9303
36966
42430
4405
18620
7587
11928
26910
3042
9809
17796
12255
15044
25864
11955
2219
7799
31582
8201
5481
1018
4104
30204
1176
2779
15060
18519
21471
11409
12314
163
181
1456
14763
5603
6839
21548
403
20422
33716
9297
15072
38611
8700
10044
3985
14671
1027
1559
13156
20210
13093
17061
10252
34264
7246
7309
11192
14082
39243
39371
42968
1901
10508
22794
2985
11634
11693
12461
13074
5860
11407
14628
25337
4738
5703
6697
33992
1979
4853
4874
28650
11039
26004
28593
40795
48222
11992
18663
19102
35346
108
2893
3148
3724
3945
5200
10790
17598
433
6281
8786
28799
37408
57470
4774
15643
18049
38343
46309
997
3749
3870
10187
10632
14201
20174
29484
4308
14495
11910
16149
16355
21331
23407
5499
11659
20748
30336
34912
1013
1994
3905
3975
5966
13542
16999
19410
20618
22438
26970
35328
36038
38207
28
6182
10225
37165
46558
950
1195
5294
8304
9993
13380
15515
21469
1460
2551
13123
20083
27710
36054
39739
42650
4265
6017
6449
8453
15592
25280
25993
49911
918
11485
22196
32271
32288
37801
39322
3603
4997
6008
7068
12927
13092
13164
14518
14965
18016
31335
32057
42854
1154
5354
8001
8015
8537
10651
12724
13700
15575
17217
18046
21412
22534
27953
167
348
1355
3686
5480
16760
26818
32828
37298
43475
428
1319
2639
3949
8701
15700
25963
1848
4102
4525
4799
5589
12345
15435
16239
20328
20656
24893
27753
30866
34903
37199
670
1643
2405
2685
4908
8256
9278
15012
15264
16260
17931
20886
23310
25296
33923
47322
1760
2107
2175
3350
5202
5619
8321
9276
12676
33758
47266
2869
3120
4771
4837
5437
11514
16389
20937
22445
25625
31769
32930
34783
40801
1030
1755
3372
10204
10408
11858
14307
14524
16755
23326
23440
28552
28921
30523
31495
32362
33000
33411
899
2329
2415
4159
8526
9399
9945
15474
16771
18793
43984
416
2828
3268
4910
5213
9708
14240
15122
17994
20085
22030
33914
59
1978
3075
4437
9492
11483
15890
16019
28910
46347
49370
618
2101
5685
6867
9928
12521
12852
17034
18470
26315
31805
36820
43690
2323
9388
14196
18245
23966
27811
30465
38591
48080
1113
1189
1598
3783
14013
14239
15557
18613
21388
23846
27622
36201
49244
361
2150
4036
4357
6354
7642
16946
17383
27314
33420
3439
4133
4786
5225
6096
6677
8731
9727
15913
17302
17982
22685
33005
42562
408
2858
2867
2979
3613
9267
11486
20188
23216
49098
4586
5064
5794
9743
21959
29953
35226
7083
7227
10006
10157
13868
15623
23793
29506
3931
4556
7487
16856
20003
22684
48309
498
525
1985
5876
6414
6634
7053
20024
26057
26591
37975
42961
2605
2651
3774
4551
22948
30397
32112
38899
3806
4344
11199
25556
45239
558
1302
3006
7745
18538
19031
23848
34620
39423
42517
2609
2672
6316
9023
18718
32060
32335
33639
47344
3909
8034
8348
9059
10961
705
1257
1927
2421
5048
10016
15712
17291
20718
46736
3321
7625
12735
14595
14729
17035
18944
19033
32234
781
5025
5419
16097
29365
48357
49380
777
2821
5405
29233
3330
15078
17015
17080
19383
2967
11962
14756
16460
5686
9004
9954
11686
15064
25872
26423
27730
42030
3772
13333
19357
44882
2096
31040
31950
34501
1983
3942
4250
7697
26785
34914
9969
23685
24384
31501
1217
8716
10664
19750
37530
27041
32322
48633
55933
4953
19682
25322
27388
31149
111
4889
7969
8994
14316
21276
4321
9652
10309
57544
5402
7006
10516
24490
28845
38921
40833
3122
6119
15387
18234
56936
3324
9384
17945
23045
24247
29762
939
12780
37882
5350
333
8758
16655
31568
2909
3263
6468
5838
12926
28152
3887
9968
27703
1115
20823
23628
29319
4399
7065
9995
13743
22919
25008
25912
3771
26055
27295
55012
18281
29216
1281
24799
27224
4076
28165
45055
2607
13605
14612
17337
421
8544
14688
20884
2692
13450
30263
38964
29390
11073
13053
23586
31329
446
4993
6739
7894
8437
12014
21636
25531
429
9088
2455
25591
35794
7493
17451
19702
22465
1623
2085
13386
10069
8429
9269
15403
29972
31373
11658
449
879
2895
11786
27974
33689
11833
43373
17484
20734
6733
8198
17290
20489
25952
448
24168
3528
13213
)


// ************************************************************************* //
