/*--------------------------------*- C++ -*----------------------------------*\
| =========                 |                                                 |
| \\      /  F ield         | OpenFOAM: The Open Source CFD Toolbox           |
|  \\    /   O peration     | Version:  plus.master.MPPICInterFoam            |
|   \\  /    A nd           | Web:      www.OpenFOAM.com                      |
|    \\/     M anipulation  |                                                 |
\*---------------------------------------------------------------------------*/
FoamFile
{
    version     2.0;
    format      ascii;
    class       vectorField;
    location    "3.4/lagrangian/kinematicCloud";
    object      U;
}
// * * * * * * * * * * * * * * * * * * * * * * * * * * * * * * * * * * * * * //


713
(
(-0.0205694 0.0126389 0.239702)
(-0.00990213 0.00927991 0.253401)
(-0.00189128 0.011228 0.236699)
(-0.0137731 0.0101367 0.263202)
(-0.00839451 0.00755746 0.263958)
(0.00320465 0.00501395 0.199634)
(-0.00246753 0.00327163 0.254556)
(-0.0238397 0.00808218 0.288034)
(-0.00942941 0.00433696 0.259588)
(0.00110994 0.00109542 0.276978)
(0.00103127 -0.00100019 0.202094)
(-0.00105254 0.00207204 0.176033)
(-0.0283935 0.019878 0.277226)
(0.00194171 0.00242926 0.220767)
(0.00488137 0.00446132 0.235514)
(0.00351451 0.00325097 0.210086)
(-0.0123816 0.00779519 0.271268)
(0.000362793 -0.000401059 0.175282)
(0.00563502 0.00628205 0.236411)
(0.0025161 0.00329535 0.231338)
(0.00015813 0.00742271 0.23574)
(-0.0083476 -0.00213863 0.224262)
(-0.00191757 -0.00731575 0.223564)
(0.00507624 0.00886596 0.216153)
(0.000801775 0.00544371 0.212804)
(0.0023914 0.00654061 0.234888)
(0.00562528 -0.00228897 0.233301)
(0.00335558 0.00369438 0.23204)
(-0.00510349 -0.0016434 0.249698)
(0.00584198 0.0028799 0.225098)
(0.0120868 0.00163933 0.235995)
(-0.0122332 0.00635923 0.256638)
(0.00866424 0.0137865 0.235893)
(0.00269555 -0.00900741 0.187713)
(-0.0012469 0.00421479 0.256762)
(0.00578149 0.00567829 0.222903)
(0.00107572 0.00515736 0.233632)
(-0.00386418 -0.00242626 0.257405)
(-0.000782294 -0.00941275 0.232912)
(-0.00720211 0.000430122 0.243436)
(-0.00183942 -0.00179405 0.243224)
(-0.0062909 0.00321977 0.246667)
(-0.00043816 0.00497614 0.245721)
(-0.00137418 -0.00747042 0.250674)
(-0.00654793 -0.00366545 0.245342)
(-0.0076687 0.0144724 0.293267)
(-0.00791476 -0.00147187 0.245057)
(0.00786139 0.00169119 0.273272)
(1.6012e-05 0.00353103 0.196421)
(0.00393043 0.000740159 0.251774)
(0.00233744 -0.00874251 0.209663)
(-0.00188154 -0.0107948 0.238112)
(-0.00181867 0.00639401 0.235123)
(-0.00707108 -0.00276298 0.25905)
(0.00185617 0.00286176 0.264534)
(-0.00788024 -0.00175839 0.269677)
(0.00139842 -0.00684218 0.235318)
(-0.00627955 0.00422497 0.264245)
(-0.00232491 0.00763241 0.221163)
(-0.00218915 0.00729583 0.228075)
(-0.0113641 -0.00338282 0.270549)
(-0.00183113 0.00870509 0.27256)
(-0.00482979 4.62693e-05 0.281551)
(-0.000451999 0.00682718 0.260403)
(-0.00421899 0.00734531 0.227262)
(0.00225607 0.00561989 0.25835)
(-0.0117269 0.000893056 0.263915)
(0.00469025 -0.00541551 0.232908)
(0.00929741 0.00235711 0.282813)
(0.000581603 0.00595964 0.262716)
(-0.00484203 -0.0114627 0.255734)
(-0.0092678 0.00184412 0.283663)
(0.0152328 -0.00129531 0.272338)
(-0.00745121 0.0118735 0.317533)
(0.000703015 -0.000124067 0.192034)
(-0.00755972 0.00941683 0.327327)
(0.00193761 -0.010799 0.223629)
(0.0013733 0.0010861 0.299282)
(-0.00465315 -0.00522385 0.214247)
(-0.000762103 0.00610196 0.273612)
(-0.0120114 0.00994753 0.318682)
(-0.00639473 0.0043773 0.300008)
(0.00164024 0.018549 0.285855)
(-0.00633986 0.0100211 0.261002)
(-0.00359945 0.00813675 0.281816)
(-0.00791845 0.011395 0.301289)
(-0.00491394 -0.0104072 0.242001)
(-0.00334517 -0.0116635 0.265561)
(-0.0033036 0.00840493 0.271551)
(0.0045059 -0.00473602 0.281268)
(0.00125247 -0.00171391 0.30029)
(-0.010397 -0.00147478 0.280212)
(0.0029221 -0.00232115 0.309486)
(-0.00306678 0.00685557 0.305741)
(0.00250078 0.00148309 0.294235)
(0.0065934 0.00825312 0.317767)
(0.0126053 -0.000222915 0.284578)
(-0.000429027 0.00391214 0.269411)
(0.00572863 -0.00139222 0.290764)
(0.0064196 -0.00227486 0.241693)
(-0.0112239 0.000676192 0.30716)
(0.000673036 0.00136116 0.314453)
(0.0054296 0.0126022 0.307089)
(-0.00178829 0.00762365 0.318721)
(-0.0013107 0.00207353 0.331514)
(-0.0030945 0.00572046 0.254809)
(0.0107108 0.0107458 0.313671)
(0.000820857 0.00316074 0.324628)
(0.00789123 -0.0044524 0.271038)
(0.00409804 -0.0010902 0.245524)
(-0.00317918 0.00935539 0.286587)
(0.00748111 -0.000395094 0.234845)
(-0.00593723 -0.00546918 0.298572)
(0.00709396 -0.00338068 0.279938)
(-0.000691391 0.00237707 0.285354)
(-0.00987326 -0.000131375 0.279123)
(-0.000828641 -0.00149181 0.208061)
(0.00672693 -0.00701836 0.287767)
(-0.0104134 0.00214703 0.299464)
(-0.00330395 0.00666216 0.271086)
(0.00377544 0.00595411 0.329135)
(0.0154121 0.0179474 0.295846)
(-0.00098996 0.0111581 0.307782)
(-0.00639357 0.0108846 0.320035)
(0.00796469 -0.00374283 0.28875)
(-0.000230961 0.0086671 0.243963)
(-0.00213562 0.0050464 0.306327)
(-0.0131159 0.0112683 0.31308)
(-0.00835378 0.00405264 0.311912)
(0.0102816 -0.00398621 0.266775)
(0.00829624 0.00166977 0.224355)
(0.0247605 0.0187679 0.299649)
(-0.00710603 0.00152447 0.318497)
(-0.00604633 0.0078073 0.257183)
(-0.0149093 0.00265299 0.279205)
(-0.00763451 0.00335148 0.313003)
(-0.00606328 0.00532649 0.226391)
(0.00195925 0.00198859 0.320472)
(0.00213835 0.00435553 0.303689)
(-0.00771706 0.00678314 0.246006)
(-0.00806461 0.00902765 0.321309)
(-0.00587532 -0.00946965 0.25623)
(0.0290638 0.0112836 0.323713)
(-0.00748305 -0.0100992 0.297775)
(-0.00126415 0.00305098 0.326433)
(-0.00262629 0.00791571 0.312024)
(0.0271332 -0.000153271 0.3131)
(0.00307155 0.00537026 0.306757)
(0.00535058 -0.00834226 0.299949)
(0.00998647 0.00448994 0.325478)
(0.051326 0.00781596 0.293132)
(-0.0101546 0.00934976 0.239406)
(-0.00877101 -0.00945806 0.282716)
(-0.00795155 -0.00774452 0.294167)
(0.0133967 0.0181964 0.286215)
(0.03186 0.0132152 0.312621)
(-0.00834513 0.000813677 0.29963)
(0.00129696 -0.00895584 0.321537)
(-0.00341635 0.00660379 0.272483)
(-0.00724281 0.0056662 0.311073)
(-0.00722008 0.00897993 0.240217)
(1.76778e-05 0.0033466 0.318528)
(0.0343245 0.00568993 0.31298)
(-0.00478286 0.00734903 0.323152)
(-0.00515115 0.0032326 0.279022)
(-0.0032634 0.00572874 0.290766)
(-0.0088054 0.00849745 0.294)
(0.00601045 0.00168584 0.23209)
(-0.00244855 -0.00783702 0.24238)
(0.015544 0.016434 0.282134)
(0.024924 0.000653696 0.287624)
(-0.00060235 0.00300396 0.250253)
(0.00892181 -0.0104704 0.252192)
(0.0100855 0.00627727 0.319398)
(0.0235458 0.0207966 0.284571)
(0.000231284 -0.0112984 0.265777)
(-0.00706199 -0.00410834 0.336665)
(-0.00778734 0.00647765 0.324295)
(-0.00590639 0.01371 0.341523)
(-0.00547349 0.00772224 0.300662)
(-0.00375928 0.0234691 0.353474)
(-0.00515336 0.00520291 0.311283)
(-0.0117206 -0.00147426 0.280733)
(-0.0040693 0.00560428 0.300343)
(-0.00353545 0.00628913 0.303696)
(-0.00452026 0.00663246 0.304371)
(-0.0140396 0.00434513 0.296205)
(0.0123789 0.0105623 0.259856)
(0.013432 0.00906988 0.252737)
(-0.00459262 0.00621886 0.294869)
(0.0178193 0.0227143 0.273054)
(0.00034898 0.0111773 0.319122)
(-0.00279862 0.00398604 0.324263)
(0.0268569 0.00201689 0.3197)
(-0.000877921 0.00198564 0.235238)
(-0.00269007 -0.0134832 0.319979)
(-0.00440155 -0.00710254 0.31679)
(0.0592274 0.0108966 0.298791)
(-0.00823728 0.0115523 0.276356)
(0.0457107 0.00811973 0.312418)
(-0.0120199 -9.11963e-05 0.313371)
(0.0682506 0.0112635 0.309029)
(-0.00808753 0.00652874 0.270072)
(-0.0125329 0.000448182 0.335657)
(-0.00693773 -0.00685874 0.309127)
(-0.00102316 0.000257242 0.348055)
(-0.00229889 0.000165688 0.34519)
(-0.00589156 0.00610185 0.330021)
(-0.00840709 0.00382468 0.300086)
(-0.00421214 0.00635657 0.319311)
(0.00194818 -0.0247537 0.317208)
(-0.0105544 0.00755736 0.267382)
(0.0422113 0.000322006 0.330498)
(-0.0152777 0.0045162 0.280619)
(-0.00131065 0.000123423 0.350891)
(-0.0101309 0.00781581 0.275256)
(-0.00387345 0.00673969 0.317412)
(-0.00712674 0.00932106 0.281505)
(0.0479625 0.00149765 0.334595)
(-0.00741641 0.00373468 0.33024)
(0.0249372 0.0192801 0.282132)
(0.0106343 0.00169236 0.329956)
(-0.00971589 0.00827975 0.269397)
(-0.00306026 0.00256499 0.337686)
(-0.0221381 -0.00356162 0.322623)
(-0.00324362 0.00536681 0.361377)
(0.0243524 0.0153855 0.274088)
(-0.00706096 0.00818287 0.314769)
(-0.013947 0.00148593 0.289016)
(-0.00892673 0.0123867 0.276405)
(-0.00283613 0.00361388 0.355822)
(0.00140543 0.00376249 0.334144)
(-0.00363538 0.00624462 0.313555)
(0.0229936 -0.00769123 0.331815)
(-0.0102479 0.0151063 0.267881)
(0.00250525 -0.0388004 0.324742)
(0.0206637 0.000390973 0.279035)
(-0.00436492 0.00742228 0.358487)
(-0.00199775 -0.011008 0.290065)
(-0.00563151 0.0032902 0.337708)
(-0.0083269 0.00153832 0.354448)
(0.0290683 0.00440323 0.320302)
(0.00842802 -0.0101709 0.284958)
(0.0620072 0.0106252 0.310723)
(0.0768696 0.0117033 0.297911)
(0.0293812 0.00360894 0.334346)
(-0.00778968 0.00735678 0.311781)
(-0.00710032 0.00580115 0.350745)
(0.0313134 0.00174632 0.321315)
(-0.00932859 0.00801553 0.303045)
(-0.00535335 0.0255187 0.357949)
(0.0176131 0.0220739 0.269077)
(-0.0107869 -0.000836449 0.342248)
(-0.00734901 0.0068059 0.306001)
(0.00957338 -0.00664133 0.274073)
(-0.0129411 0.0151292 0.319354)
(-0.00154374 0.000524039 0.346844)
(-0.00707172 0.00658617 0.323815)
(-0.00156943 0.00479544 0.391028)
(-0.00167681 -0.0115241 0.304109)
(0.0395527 0.00228162 0.325607)
(-0.00182963 0.00130914 0.369563)
(0.0391806 0.00892407 0.293958)
(-0.0101492 0.0115397 0.290859)
(-0.00674008 0.0127204 0.353707)
(0.0379829 -0.003752 0.323517)
(-0.00553347 0.000492171 0.248144)
(-0.00947193 0.015142 0.249355)
(-0.0131686 0.00390414 0.282222)
(-0.0113238 0.0102999 0.307892)
(-0.00539891 0.0138363 0.387049)
(-0.00681472 0.000558568 0.329214)
(-0.00812543 0.0163438 0.25631)
(0.0424089 0.00153666 0.318436)
(0.0619658 0.00571536 0.294998)
(-0.00514264 0.0145532 0.378042)
(-0.00192007 0.0121475 0.391839)
(-0.0088465 0.0142966 0.333519)
(-0.00600662 -0.000902053 0.349572)
(-0.00841246 0.0078283 0.290711)
(-0.0097532 0.0149068 0.333339)
(-0.00603686 -0.000125826 0.247968)
(-0.00334268 0.0081857 0.360243)
(-0.0111539 0.00899328 0.251456)
(-0.0052362 0.0139024 0.38657)
(-0.00625572 0.0028843 0.235554)
(0.0104492 -0.027101 0.319502)
(-0.0136848 0.00101534 0.348921)
(-0.00676553 -0.011885 0.363402)
(0.0685619 0.0083535 0.306537)
(0.00172778 -0.00564875 0.290318)
(0.0147649 0.00343361 0.30863)
(-0.00483016 0.000679445 0.224099)
(0.00161172 0.00723888 0.393946)
(-0.00334417 -0.000536574 0.261073)
(0.014742 0.00825882 0.400819)
(-0.00314961 -0.0263732 0.325472)
(-0.0105878 0.000844759 0.345977)
(-0.00886389 -0.000419447 0.355514)
(-0.0112716 0.0137241 0.301015)
(-0.013032 -0.0127244 0.316792)
(-0.00719512 0.0107782 0.359192)
(0.00577961 -0.00727165 0.319263)
(0.0231816 0.00860429 0.413289)
(-0.012175 -0.00681883 0.281674)
(-0.0118511 0.00462848 0.357028)
(-0.0215338 0.000230435 0.321504)
(-0.00748043 0.0196907 0.370373)
(0.0298174 0.0020778 0.33091)
(0.0114236 -0.00560419 0.272714)
(0.024847 0.00821202 0.412855)
(-0.0160571 0.00469496 0.318063)
(-0.00844593 0.00556453 0.349269)
(-0.00715511 0.00629536 0.376324)
(-0.00764395 0.0240002 0.37839)
(-0.0097502 0.00819629 0.276188)
(-0.0158625 0.0116934 0.385997)
(-0.0103109 -0.0124859 0.340509)
(-0.00941215 -0.000669886 0.320931)
(-0.00871344 0.00807535 0.381277)
(-0.00830322 0.00306903 0.361621)
(-0.00646696 0.0180214 0.381831)
(-0.0151958 0.00228789 0.302113)
(0.00113009 -0.0329435 0.324088)
(-0.0137947 -0.00387387 0.325387)
(-0.00916608 0.00403839 0.26288)
(0.0101521 0.00789761 0.394083)
(-0.0112903 0.0460515 0.342439)
(-0.00992348 0.00436336 0.331314)
(-0.00941719 0.00996141 0.259071)
(0.0351606 0.000581934 0.319299)
(0.00964972 -0.0038594 0.293264)
(-0.00470255 -0.00124578 0.240651)
(-0.00810446 0.00215412 0.347032)
(-0.00985851 0.00995846 0.291309)
(-0.0116077 0.0201652 0.304469)
(0.0241679 0.00851945 0.417885)
(0.00975415 0.00811489 0.389021)
(-0.0103453 0.0267344 0.357831)
(-0.003028 0.00075942 0.383961)
(-0.0121202 -0.00854385 0.307405)
(-0.0117626 0.00411203 0.364516)
(-0.00864487 0.00567805 0.323057)
(0.030681 0.00249883 0.287214)
(-0.00984359 -0.0117648 0.289525)
(-0.00689895 0.0151164 0.331644)
(-0.00335579 0.00641985 0.382696)
(-0.00478188 0.00638041 0.369035)
(-0.0160599 0.00176447 0.290602)
(0.0182986 0.00607494 0.407798)
(0.0106741 0.00562953 0.40017)
(-0.00774942 -0.0157896 0.342183)
(-0.00362656 -0.0084959 0.346526)
(-0.0125708 0.0184595 0.301205)
(-0.0169123 -0.000361289 0.325406)
(-0.0180899 0.000705692 0.330412)
(-0.00690155 0.0236672 0.320146)
(-0.00931748 -0.0113572 0.367636)
(-0.0100744 -0.0286532 0.36972)
(0.00754048 0.0074391 0.385959)
(0.0047527 0.00686822 0.371549)
(-0.0119389 -0.0133151 0.307161)
(0.027833 -0.000132205 0.303661)
(-0.0197406 -0.00188496 0.362325)
(-0.0143469 -0.00823511 0.349182)
(-0.00128671 0.00527719 0.378042)
(-0.00922181 -0.0116696 0.325442)
(-0.0146873 0.00585776 0.317788)
(-0.0159205 0.0042654 0.304553)
(-0.00832393 -0.0112783 0.328367)
(-0.00357457 0.00108914 0.291525)
(-0.0102322 -0.000800515 0.291508)
(0.0403312 0.00554372 0.285355)
(-0.0195679 0.0211393 0.325389)
(-0.00511446 0.00599019 0.392098)
(-0.0187134 -0.00348271 0.296248)
(-0.0150652 0.0340675 0.360359)
(-0.00243918 0.00622575 0.422618)
(-0.0043645 -0.0123396 0.325907)
(-0.0114095 0.0161588 0.330283)
(0.00739249 -0.0239777 0.325408)
(-0.0161829 -0.00675387 0.303427)
(-0.00347829 -0.00244448 0.292516)
(-0.00578427 0.000718342 0.277736)
(-0.0117104 -0.00800322 0.277638)
(-0.00559171 -0.0110953 0.376576)
(-0.00815185 -0.00672704 0.268296)
(-0.0106638 0.00455139 0.282039)
(-0.00525475 -0.0162422 0.323087)
(-0.00146497 0.00600607 0.424278)
(-0.00878626 0.0342851 0.335399)
(-0.0107519 0.0111762 0.29856)
(-0.0151291 0.00115314 0.30122)
(-0.0101416 -0.0211276 0.343853)
(-0.00661757 0.00562896 0.390206)
(-0.0111566 0.0249525 0.332906)
(-0.0132596 0.00904441 0.330958)
(-0.00576091 0.0344676 0.309169)
(-0.0111737 0.0208888 0.316661)
(-0.00465079 0.0072675 0.422691)
(0.00986096 -0.00713063 0.29063)
(-0.0159673 -0.00646608 0.299376)
(0.0113515 -0.0407064 0.320396)
(-0.0154371 0.00567843 0.372958)
(-0.016017 0.0408556 0.358136)
(-0.00815386 0.000916529 0.276435)
(-0.00464452 -0.00328532 0.385245)
(-0.00849725 -0.0172455 0.358599)
(-0.00868696 0.060096 0.333012)
(0.016333 0.00905215 0.270523)
(-0.00905414 0.00565167 0.377729)
(-0.00344691 -0.0075172 0.286964)
(-0.0148329 0.00493605 0.32165)
(-0.0171698 0.00476099 0.360888)
(0.0326642 0.00469192 0.279485)
(-0.013202 -0.00492777 0.301734)
(-0.00941437 -0.0460078 0.357243)
(0.00681547 -0.0108661 0.313802)
(-0.0067158 -0.0231645 0.366442)
(-0.00973584 0.0440274 0.332509)
(-0.0197989 -0.0280986 0.364175)
(-0.00815862 0.0234288 0.320821)
(-0.0177094 0.00537274 0.332675)
(0.0363873 -0.004769 0.315369)
(-0.000833871 -0.0189003 0.317124)
(0.0119976 0.000742854 0.279116)
(-0.0177832 0.003082 0.353839)
(-0.00829868 -0.017706 0.336053)
(-0.00967834 0.0367847 0.333772)
(-0.0115583 -0.00549229 0.271087)
(-0.0149865 -0.00267611 0.29944)
(-0.0124278 -0.00639589 0.295243)
(-0.0195048 -0.00857251 0.366787)
(-0.023267 -0.0336044 0.374479)
(-0.0129308 -0.0121693 0.375091)
(-0.0090145 0.038749 0.33777)
(-0.00856372 -0.00077942 0.285702)
(-0.0187259 0.00149686 0.33314)
(-0.0170866 -0.00941543 0.342566)
(-0.0045845 -8.51226e-05 0.288401)
(0.00550378 0.00701611 0.26389)
(0.00841526 0.00442321 0.271446)
(-0.0161332 0.00465756 0.37855)
(-0.00963104 0.000425126 0.286821)
(-0.0154511 0.022003 0.333451)
(-0.0231937 -0.017549 0.363781)
(-0.0152291 0.00513018 0.415674)
(-0.0167977 0.00398007 0.403188)
(-0.00689211 -0.00789476 0.327111)
(-0.0175734 0.00200736 0.301168)
(-0.0127536 0.00865248 0.31593)
(-0.0126028 -0.00742347 0.310503)
(-0.00944706 0.0995746 0.365843)
(0.00792046 -0.00508257 0.308285)
(-0.0163602 0.00494812 0.320478)
(-0.0180408 -0.00708844 0.369931)
(-0.00793533 0.000876818 0.277119)
(-0.00994667 0.0805962 0.342354)
(-0.0169958 0.00415953 0.413595)
(-0.0106958 -0.00709601 0.281363)
(-0.0087311 -0.0355477 0.347939)
(-0.00197793 -0.000709369 0.251318)
(-0.0193287 0.00070135 0.322058)
(-0.0141559 -0.00322519 0.352457)
(-0.0145164 0.00137621 0.372562)
(-0.0128591 0.0016949 0.354297)
(-0.0133426 -0.00248632 0.359668)
(-0.0161971 -7.62102e-05 0.328832)
(-0.00151015 -0.00458083 0.387736)
(-0.000128512 0.00532481 0.276337)
(0.000835395 0.0026094 0.304922)
(-0.0117302 0.0306391 0.320732)
(-0.0148982 0.0018963 0.364118)
(-0.0154291 0.029546 0.323231)
(-0.017921 -0.0183966 0.360933)
(-0.0187973 0.00527913 0.387327)
(-0.0167979 -0.0238526 0.371604)
(-0.0136482 0.0547051 0.327763)
(-0.00456144 -0.000924906 0.27637)
(-0.00682202 -0.00817736 0.316274)
(-0.0179431 0.00466887 0.335072)
(0.00124079 0.00656682 0.273028)
(-0.0051884 0.0037467 0.401625)
(-0.00109143 -0.00127943 0.304356)
(-0.00707945 0.000986951 0.302701)
(-0.0180317 0.00276426 0.332993)
(-0.00579803 -0.0074179 0.29378)
(-0.0119254 0.00129932 0.378768)
(-0.0230899 0.00448792 0.392906)
(-0.00893627 -0.00292889 0.308907)
(-0.00565109 0.00074015 0.402355)
(0.00158902 0.0019327 0.283545)
(-0.00853422 -0.00300213 0.314712)
(-0.0112573 -0.0013036 0.290486)
(-0.0141264 -0.00476728 0.353969)
(-0.0119854 0.00937435 0.308379)
(-0.0143592 -0.0011366 0.361005)
(-0.0161784 -0.00633543 0.356816)
(-0.0206308 0.00638659 0.375612)
(-0.0103957 -0.00263156 0.341325)
(-0.00353147 0.000876956 0.306129)
(-0.0124913 0.0017644 0.328074)
(-0.00658443 -0.0111206 0.305969)
(0.00425299 0.00326051 0.282812)
(-0.0148177 0.00298951 0.339476)
(-0.005367 -0.00709538 0.301667)
(-0.00582474 0.000306653 0.302741)
(-0.00821169 -0.00818987 0.31992)
(-0.00599495 -0.000277193 0.391666)
(-0.00769534 0.00341242 0.302331)
(-0.0168653 0.00254717 0.344833)
(0.000901404 0.00200957 0.397149)
(-0.0104436 0.00338238 0.300967)
(0.000876236 0.00163477 0.301674)
(-0.00723821 0.00408316 0.321144)
(-0.00933611 -0.00300972 0.292166)
(-0.00691598 -0.00345637 0.35069)
(-0.00686825 0.00335977 0.301697)
(0.00240611 0.00297754 0.285434)
(-0.00767528 0.000795261 0.31346)
(-0.00647396 -0.00979955 0.318208)
(-0.02098 -0.0382009 0.376897)
(-0.0156676 0.00222999 0.386019)
(-0.00778127 -0.00416587 0.314437)
(-0.00783538 0.00821784 0.335928)
(-0.00982956 -0.000202914 0.296522)
(-0.00913001 0.00274008 0.352271)
(-0.00888198 0.000207859 0.310524)
(-0.00989288 -0.00494568 0.317213)
(-0.00840315 -0.00198726 0.311071)
(-0.00631067 -0.00210904 0.382429)
(-0.00577759 -0.0116767 0.345985)
(-0.00586274 0.00187641 0.316018)
(0.000783918 -0.00503951 0.314978)
(-0.00179875 -0.00180414 0.326364)
(-0.00704893 0.000800461 0.30168)
(-0.00727547 0.00816294 0.335841)
(-0.00402328 0.00272672 0.28563)
(-0.00471769 0.00167301 0.292925)
(-0.00745618 -0.00980391 0.314248)
(-0.0096592 0.000716874 0.342572)
(-0.00675032 0.00238723 0.303071)
(-0.0076816 -2.61647e-05 0.320776)
(-0.0163354 -0.0162495 0.337006)
(-0.00698914 -0.000621866 0.360166)
(-0.00849249 -0.00340236 0.316071)
(-0.00532321 -0.00792802 0.309073)
(-0.00284372 -0.00171633 0.370185)
(-0.00392046 -0.000157251 0.312007)
(-0.0016562 -0.00896472 0.323221)
(0.0028348 0.00325205 0.354192)
(-0.000630683 -0.000573743 0.31537)
(0.000110763 -0.00288757 0.330594)
(-0.00435313 0.00357595 0.353922)
(-0.00970118 -0.000179648 0.303396)
(-0.0328453 -0.016349 0.343493)
(-0.00869737 -0.0086387 0.332353)
(-0.0067959 0.00301391 0.35256)
(0.00315978 0.00175873 0.346819)
(0.0110698 -0.000613897 0.376429)
(-0.00876582 5.98847e-05 0.328883)
(-0.00761517 -0.00681693 0.300255)
(0.0123497 -0.00347957 0.379345)
(-0.0113625 -0.00942131 0.31084)
(-0.00414389 0.00829328 0.353243)
(0.0122485 -0.000426372 0.37402)
(-0.00579913 -0.0142005 0.331878)
(-0.00562025 -0.0105785 0.327241)
(0.013828 -0.004493 0.376492)
(-0.00735285 0.0101021 0.346313)
(0.00317386 -0.00790084 0.351415)
(-0.016284 -0.00189232 0.308916)
(-0.00253188 -0.00564546 0.320371)
(-0.00795788 -0.0121027 0.327848)
(-0.012707 -0.000964168 0.316109)
(0.0184135 -0.00585744 0.386314)
(-0.00395776 -0.00886806 0.334727)
(-0.0141464 0.00187327 0.327357)
(-0.00678294 -0.00181649 0.338027)
(-0.00721607 -0.00981095 0.335618)
(-0.0015628 0.00417819 0.35637)
(-0.0105481 -0.00474384 0.329997)
(0.00292334 0.00509945 0.350679)
(-0.00177039 0.00214094 0.351516)
(-0.0107556 -0.00289418 0.324366)
(-0.00324112 -0.0100553 0.353531)
(-0.0114645 0.00789498 0.344663)
(-0.0110284 0.0159921 0.348755)
(-0.00302231 -0.00869476 0.332876)
(-0.00824028 -0.00163664 0.334257)
(-0.00603387 -0.0050091 0.344542)
(0.00458656 -0.00410627 0.370782)
(-0.00899498 0.0110613 0.369003)
(0.00657365 -0.00309934 0.385192)
(0.00605744 -0.00346209 0.384034)
(-0.000471919 -0.00221891 0.364176)
(-0.00506991 -0.00197995 0.353305)
(-0.00947099 -0.00584964 0.347739)
(-0.0167563 -0.000711172 0.307223)
(-0.0100657 -0.00550284 0.346833)
(0.00094331 0.000740574 0.297863)
(-0.0025886 0.00501865 0.366913)
(-0.00344607 -0.00629999 0.324653)
(-0.00337192 -0.00421541 0.335663)
(0.000242854 -0.00472718 0.332507)
(-0.000481319 -0.00386353 0.36352)
(-0.010093 -0.00350532 0.348647)
(-0.0111849 0.00140477 0.340822)
(-0.00987057 0.000110268 0.327895)
(0.00317268 -0.00668992 0.405155)
(-0.0030109 -0.00652126 0.354959)
(-0.00525197 0.00364086 0.381413)
(-0.00386953 0.00545384 0.342154)
(-0.00206664 -0.00818624 0.405626)
(-0.0056033 0.00244849 0.388537)
(-0.00390964 -0.00751989 0.360865)
(-0.0119954 -0.00429246 0.354175)
(-0.00501551 0.019998 0.352381)
(-0.0033803 -0.00716105 0.369172)
(0.00175403 -0.00736551 0.344497)
(-0.019617 -0.00548398 0.363559)
(-0.0168793 0.00787811 0.328047)
(-0.0074479 0.00980487 0.33881)
(-0.0165483 0.00386063 0.322423)
(-0.0055716 -0.00338404 0.388725)
(-0.0141188 0.00763352 0.3563)
(-0.00377715 -0.0048432 0.38952)
(-0.0161439 0.00309657 0.309203)
(-0.00932218 0.00586896 0.341827)
(-0.00525952 -0.00885616 0.364832)
(-0.00707084 -0.00508646 0.387741)
(-0.0335625 -0.00357108 0.361453)
(-0.0073819 -0.0103093 0.395674)
(-0.00582625 -0.00948355 0.360338)
(-0.00652385 0.0162988 0.348477)
(-0.00480894 -0.00764946 0.396721)
(-0.00113815 -0.0108606 0.365848)
(-0.010427 -0.0077926 0.380743)
(0.00531104 -0.00858273 0.353413)
(-0.00446051 -0.0061365 0.390505)
(-0.0172619 -0.00055712 0.371906)
(-0.0148909 -0.00783117 0.368892)
(0.00305522 -0.0114671 0.352563)
(-0.0137666 -0.0105398 0.393048)
(-0.0315457 -0.0105098 0.392526)
(-0.0185592 0.00279344 0.370216)
(-0.00596185 -0.0100584 0.362393)
(-0.0141656 0.0066567 0.333146)
(-0.0347714 -0.0109172 0.381601)
(0.00108995 -0.0119305 0.357157)
(0.00699449 -0.00932546 0.366107)
(-0.00691097 0.00724226 0.36038)
(-0.01152 -0.00099808 0.351334)
(-0.002891 -0.00902839 0.382018)
(-0.0121199 -0.00143333 0.353294)
(0.00452285 -0.0104301 0.369884)
(-0.01905 -0.00109833 0.365608)
(-0.0029315 -0.00973684 0.388268)
(0.00397833 -0.0123392 0.361447)
(-0.00283251 -0.00406069 0.375924)
(-0.0111022 -0.00250163 0.355318)
(-0.0203491 -0.00556439 0.384561)
(0.00553142 -0.0110044 0.367625)
(-0.0262437 -0.0159668 0.370121)
(-0.0162665 -0.00723204 0.378973)
(-0.0279823 -0.0117468 0.378051)
(-0.00925894 -0.00746813 0.377472)
(-0.00918812 0.00354026 0.349405)
(0.000348292 -0.00770279 0.384637)
(-0.00329911 -0.00988727 0.369674)
(0.00382018 -0.012427 0.371359)
(-0.00318106 0.00350833 0.362766)
(-0.0460631 -0.0126275 0.387591)
(-0.000875569 -0.0104277 0.366719)
(-0.000139564 -0.00788499 0.380275)
(0.00847714 -0.0115532 0.37518)
(-0.00267774 -0.0105639 0.343246)
(0.00146264 -0.00761491 0.381676)
(0.000764809 -0.00885394 0.36842)
(-0.000481067 0.00498584 0.371798)
(0.000217998 0.00500887 0.359564)
(-0.000348327 0.00567598 0.366068)
(-0.0455136 -0.011654 0.382061)
(0.0018432 0.00154687 0.370116)
(0.0021475 -0.00703244 0.357991)
(-0.00643273 -0.008728 0.366759)
(0.00178973 -0.00722596 0.373564)
(-0.0156217 -0.0142331 0.357328)
(-0.0550291 -0.0151389 0.377121)
(-0.00592048 0.0191398 0.362231)
(0.000848175 0.0163479 0.371165)
(-0.00198382 0.0323999 0.365973)
(0.00629895 -0.0133139 0.373408)
(-0.0269901 -0.0109248 0.35546)
(0.00731488 -0.0225934 0.379929)
(-0.0150813 -0.00966038 0.345643)
(0.00489528 -0.0577311 0.384843)
(0.000577895 -0.0240425 0.367045)
(0.000462919 0.0262395 0.36736)
(0.00324896 -0.000211576 0.345672)
(-0.00870028 -0.00848557 0.334788)
(0.00612749 -0.00469833 0.370964)
(0.00226928 -4.70028e-05 0.359305)
(-0.00467667 -0.00488379 0.331454)
(-0.00947544 -0.00451318 0.353643)
(-0.0019436 -0.00423289 0.337441)
(0.00334143 0.00464463 0.376323)
(0.000970261 -0.00636729 0.37365)
(-0.000359444 -0.00537859 0.36218)
(-0.0120932 -0.00388197 0.352485)
(-0.000197481 -0.0134768 0.379664)
(0.00370499 0.010688 0.394581)
(0.00311484 0.00928036 0.370458)
)


// ************************************************************************* //
