/*--------------------------------*- C++ -*----------------------------------*\
| =========                 |                                                 |
| \\      /  F ield         | OpenFOAM: The Open Source CFD Toolbox           |
|  \\    /   O peration     | Version:  plus.master.MPPICInterFoam            |
|   \\  /    A nd           | Web:      www.OpenFOAM.com                      |
|    \\/     M anipulation  |                                                 |
\*---------------------------------------------------------------------------*/
FoamFile
{
    version     2.0;
    format      ascii;
    class       vectorField;
    location    "3.4/lagrangian/kinematicCloud";
    object      UCorrect;
}
// * * * * * * * * * * * * * * * * * * * * * * * * * * * * * * * * * * * * * //


713
(
(5.95833e-05 0.000174573 1.14397e-05)
(4.01499e-06 3.39847e-06 2.11054e-06)
(7.24068e-05 0.000172016 1.14397e-05)
(6.05847e-06 2.99094e-06 -4.55978e-07)
(0.000120703 -0.00273044 1.68618e-06)
(3.82745e-06 8.21898e-06 3.90702e-08)
(0.00197927 -0.00237637 1.68618e-06)
(2.8941e-05 -3.34852e-06 -3.34938e-06)
(-0.00028242 1.43734e-05 1.0832e-06)
(0.00489585 -0.00861962 -2.3879e-06)
(8.79208e-05 -0.000181926 6.35345e-06)
(-0.000623931 0.00144999 3.84058e-08)
(0.00234107 0.00478631 3.80476e-06)
(4.25418e-08 1.44452e-08 1.44013e-10)
(0.000209549 0.000824228 3.16758e-07)
(9.76201e-06 -3.43564e-06 7.82037e-07)
(0.00318384 0.000414854 3.80476e-06)
(-0.000379148 0.000976291 3.84058e-08)
(0.000217251 0.000671149 -8.75612e-06)
(1.83136e-07 9.62821e-08 -1.75814e-11)
(-4.74465e-06 1.71415e-06 -2.01079e-06)
(1.716e-06 4.24937e-06 4.30493e-06)
(0.00189009 -0.00116531 0.000442197)
(0.00105007 7.44334e-05 3.6947e-10)
(-5.11211e-09 7.75776e-09 -1.86325e-08)
(-4.92949e-06 -9.60573e-06 -1.98858e-10)
(1.74644e-05 -4.24025e-06 7.30951e-07)
(-1.20905e-05 1.69044e-05 6.5482e-08)
(0.00174676 -0.00152103 -8.44739e-11)
(7.16144e-06 -1.81156e-06 -1.21521e-05)
(0.00105722 -2.80277e-08 1.17807e-06)
(1.76407e-05 5.26302e-06 3.03331e-06)
(4.76595e-05 -0.000219555 -1.06108e-05)
(-1.96044e-05 -8.75334e-06 3.95718e-07)
(4.36052e-06 -1.49958e-05 1.29383e-06)
(1.64519e-06 1.41075e-07 3.6842e-08)
(-1.31371e-06 2.4379e-06 3.38089e-11)
(0.000836197 -0.00160844 9.23944e-07)
(0.00186076 -0.00117419 0.000442197)
(-6.93924e-05 -0.000185818 -6.81875e-08)
(0.000964652 -0.00165169 9.55975e-06)
(-2.42556e-05 -4.79045e-05 -6.81875e-08)
(7.37061e-08 1.06443e-07 1.73512e-06)
(0.00106309 -0.00141573 0.000633214)
(1.24298e-05 -7.81492e-08 -6.84234e-07)
(1.83571e-06 4.1951e-06 -2.05304e-06)
(-2.55646e-06 -1.01326e-05 -2.65872e-06)
(0.00368083 -0.00181995 6.2477e-06)
(4.82408e-05 9.43157e-05 1.72678e-08)
(6.95054e-06 -1.37521e-05 1.29383e-06)
(2.74054e-07 -6.96718e-07 0.000162318)
(0.000343989 -0.000569149 -9.65911e-07)
(-7.3995e-06 -1.60713e-05 -3.06104e-11)
(-0.000165132 -0.000979344 -0.000277094)
(1.24103e-06 8.76631e-06 7.03181e-07)
(-0.00027818 -0.000955763 -0.000277094)
(1.28141e-05 -3.35775e-05 1.41104e-09)
(-1.86548e-06 -7.59661e-06 1.7503e-10)
(-1.47145e-08 -6.21122e-09 1.98663e-06)
(0.000138255 6.18331e-05 1.36411e-06)
(-9.2268e-05 0.000179616 -5.56463e-10)
(-1.32869e-08 -1.21685e-07 7.29844e-08)
(0.000836197 -0.000206463 -8.44739e-11)
(-0.000406923 0.000209497 1.16523e-06)
(1.65986e-10 6.6316e-09 5.65853e-07)
(-5.97879e-06 3.56239e-06 -3.42211e-11)
(-0.00126697 -0.00101779 -7.62719e-07)
(0.00129785 -0.00146285 -0.000701382)
(0.00383101 -0.00132401 4.7747e-07)
(-9.61249e-06 2.01687e-06 -7.9453e-11)
(-8.63708e-06 -0.000635354 -0.000194789)
(-0.000591935 0.00218598 -5.56463e-10)
(0.00368083 -0.00181995 -3.6221e-06)
(0.000166264 -0.000311926 -1.13055e-07)
(0.000107958 7.68993e-05 -1.98768e-05)
(-0.0019973 0.000243672 1.46765e-07)
(5.24787e-08 -1.97037e-08 4.18272e-05)
(0.00425102 -0.00473466 -3.59396e-06)
(-1.37353e-06 -2.60522e-07 -1.46297e-08)
(-0.000561301 -0.000101474 1.16523e-06)
(-0.000559795 0.00022324 1.46765e-07)
(2.02565e-06 1.355e-06 -4.67879e-08)
(0.00030926 0.000610002 1.03718e-06)
(-8.63755e-07 -1.91543e-07 -1.19951e-06)
(-4.96333e-06 8.51502e-06 -1.48054e-07)
(-0.000771487 0.00262502 -0.000837511)
(-6.95866e-06 -5.74852e-06 -1.02449e-07)
(0.00026412 3.48706e-07 -9.65911e-07)
(-1.72895e-06 -1.28233e-06 -2.12024e-06)
(-2.63708e-06 8.21763e-07 3.74921e-06)
(5.73165e-05 -8.62055e-06 -2.45077e-05)
(-0.000822738 -0.00126955 -7.62719e-07)
(-0.000526261 0.00102517 -3.99598e-06)
(2.69353e-06 5.71472e-06 -2.05304e-06)
(2.90359e-06 -5.0915e-06 2.16699e-06)
(-4.89203e-06 -8.95056e-07 8.78307e-11)
(1.90042e-05 -5.30667e-06 -4.76629e-06)
(1.96834e-06 9.1785e-06 7.03181e-07)
(0.000798777 -0.0014973 4.7747e-07)
(8.94461e-05 0.000319613 1.08636e-06)
(-0.000145312 -1.30467e-05 3.55585e-06)
(-0.0014728 0.00118915 -1.52954e-06)
(-0.00160802 -0.000424446 -0.000692116)
(-0.00043438 0.000216174 1.46765e-07)
(-0.000436717 0.000426472 -0.000268144)
(1.48068e-06 5.15392e-06 -8.67589e-07)
(-4.94421e-06 -8.95056e-07 8.78307e-11)
(-0.000436717 0.000426472 -0.000294284)
(-2.20659e-06 2.16438e-06 -1.68122e-06)
(6.3161e-06 7.49781e-07 -4.77347e-06)
(-0.000724444 0.000367171 6.95972e-07)
(-1.375e-06 0.000347148 1.47494e-06)
(-0.00102849 -0.00020506 1.15582e-06)
(-7.22837e-06 2.9979e-06 -1.68122e-06)
(2.82709e-06 1.26715e-06 -2.92389e-07)
(6.9896e-06 1.06831e-05 -1.25953e-11)
(-5.30065e-07 4.14194e-07 -2.25421e-05)
(-4.98827e-06 1.49872e-05 1.36837e-06)
(0.0005088 0.000485332 -4.1852e-06)
(6.65958e-07 4.6922e-06 -8.67589e-07)
(-0.000272978 0.000104602 -0.000359814)
(0.000300609 0.00259059 3.80476e-06)
(-0.00166017 -0.000252235 -3.71409e-05)
(-0.00137666 0.000435632 -1.80616e-05)
(-8.87276e-05 0.000485733 -2.74687e-06)
(-0.000574506 0.00422927 0.00057499)
(0.00328285 -0.00528335 -2.3879e-06)
(-0.00137666 0.000435632 -1.5867e-05)
(-1.59099e-06 -1.07667e-05 1.75187e-06)
(0.000356933 -0.000225265 1.29718e-06)
(0.000454039 0.00148842 -4.23117e-05)
(0.000976941 0.00262869 3.80476e-06)
(1.61337e-06 1.39458e-06 -4.67879e-08)
(-5.19448e-07 -8.0335e-07 -1.55605e-11)
(-0.00196744 -0.000864833 4.35528e-12)
(-0.000960027 -3.34039e-05 9.82209e-07)
(-1.26564e-05 -3.60824e-05 2.4947e-10)
(-1.1993e-06 -9.19438e-06 5.25568e-07)
(-9.58428e-07 -4.29432e-06 2.34999e-07)
(-1.77491e-05 5.67567e-06 1.34821e-08)
(-1.34932e-05 4.18727e-06 -2.05304e-06)
(-8.1998e-06 -3.03067e-06 -1.51838e-09)
(-1.48489e-06 -8.90709e-06 -9.70906e-07)
(-0.00011598 -0.00112997 -0.000308826)
(7.30554e-06 -1.21458e-05 3.00085e-06)
(9.84432e-08 -6.97668e-07 2.81505e-07)
(-0.00173472 0.000960544 -1.52954e-06)
(-1.06296e-05 7.39228e-06 3.03331e-06)
(-5.14741e-06 1.5946e-05 1.36837e-06)
(-0.000198401 0.0001004 -0.000359814)
(-0.00327023 -0.000363464 -2.51115e-06)
(-0.00102939 0.000743841 -0.000287241)
(-0.000342992 -4.79827e-05 -0.000194789)
(-0.000353936 -0.0019286 -0.000308826)
(-9.02702e-06 0.000107489 -0.000506309)
(-0.000160364 -0.000167734 -0.000692116)
(6.83166e-06 -5.36189e-06 1.11796e-06)
(7.64919e-05 -0.00013869 -3.74621e-10)
(8.8478e-05 5.50137e-06 1.32951e-06)
(9.84432e-08 -6.97668e-07 1.04822e-06)
(1.44157e-05 0.000970576 -0.000287241)
(-1.0914e-05 -2.97943e-06 -1.60325e-06)
(-0.00273568 0.000434173 -6.54741e-07)
(-2.22261e-05 0.000138431 4.17059e-11)
(0.00080374 -0.00191105 5.24461e-08)
(-5.99195e-07 1.3376e-05 8.39417e-09)
(-0.000311239 2.65316e-05 -3.96438e-07)
(0.000745024 0.00200187 -0.000484171)
(-6.50414e-06 -1.71882e-05 -4.2586e-07)
(1.45051e-06 -0.000361503 -6.3192e-06)
(-0.00263517 0.000766115 -2.76664e-06)
(-0.000292644 0.0032996 0.00057499)
(0.00221514 -0.00312609 -0.000558546)
(-0.00248558 0.000788525 7.15589e-06)
(-0.000118197 5.81693e-05 -6.40594e-06)
(-0.000163173 -5.18977e-05 1.121e-07)
(3.55458e-07 -2.21901e-05 -2.16466e-06)
(-1.64682e-06 -2.79454e-06 4.31583e-06)
(0.0020402 0.00429053 -2.06947e-07)
(-5.78486e-06 9.21554e-07 1.21671e-07)
(0.00260122 0.00767057 -2.06947e-07)
(2.10735e-05 2.77617e-06 -1.10116e-07)
(7.56113e-05 0.000152964 -7.43265e-07)
(1.01993e-06 5.2573e-06 2.73875e-06)
(-0.000508769 -4.97118e-05 3.99576e-07)
(-5.17692e-06 7.97523e-06 -0.000255415)
(-0.00111131 -0.000211499 4.35528e-12)
(-0.000286478 -1.40883e-06 -0.00114261)
(2.65845e-05 -1.71566e-05 -1.17628e-06)
(5.95473e-06 6.7516e-06 8.39417e-09)
(-0.000130798 9.38563e-05 -0.000506309)
(-2.53928e-05 7.55286e-08 -5.54832e-06)
(2.25363e-06 6.08539e-06 1.31396e-06)
(-0.00225439 0.00119645 3.80495e-06)
(0.000109233 0.000305373 -1.20001e-05)
(-0.000565234 0.00212586 -8.47889e-06)
(-0.000156954 4.41319e-05 -0.000837511)
(-1.6707e-06 -1.1495e-05 4.0286e-06)
(-0.000964166 0.00197359 2.63637e-06)
(-0.00327281 -0.000336611 -2.51115e-06)
(-0.000912294 0.00027748 -2.11043e-06)
(-0.00326661 -0.000401188 -2.51115e-06)
(0.000720977 -0.00163807 5.24461e-08)
(-0.000745452 -0.00100194 0.000848468)
(-0.00164449 -0.000281614 1.15582e-06)
(3.76783e-06 8.51303e-06 0.000600912)
(-0.000220016 0.000171337 -2.71305e-06)
(-0.000422697 0.00273064 -0.000380383)
(2.36114e-06 -4.00818e-06 1.11796e-06)
(-2.24211e-06 -1.52558e-07 1.74464e-06)
(-1.07328e-07 -1.09248e-06 -8.91553e-08)
(-0.000707265 -1.34281e-05 -4.96143e-07)
(-0.00248889 0.000777574 3.80495e-06)
(-3.01686e-06 -3.54657e-07 -1.56483e-07)
(4.30336e-06 9.04856e-06 0.000600912)
(-2.48337e-08 -4.53726e-08 2.62092e-07)
(1.78254e-05 -2.8678e-06 9.86843e-10)
(-0.000556435 -7.08678e-05 1.68003e-06)
(-0.00248558 0.000788525 5.28259e-07)
(-5.60213e-06 0.000133997 7.10832e-08)
(-9.66325e-05 -1.30462e-05 -3.89688e-06)
(-0.00248558 0.000788525 3.20258e-06)
(-1.40053e-06 -3.8723e-06 -1.00564e-10)
(0.000887403 -0.00176451 5.7247e-06)
(-0.00285863 -0.00160123 0.000848468)
(0.000399983 -0.00106858 7.59245e-10)
(-0.000238182 0.00152258 -0.00100556)
(-0.000180715 0.000367171 1.56373e-07)
(1.46351e-08 -8.72579e-08 -1.07708e-05)
(4.69993e-05 2.64066e-05 7.07575e-06)
(4.18574e-06 6.09162e-07 8.39908e-06)
(-2.91744e-07 -2.21364e-07 -3.00996e-10)
(1.42003e-06 1.25955e-05 8.33263e-10)
(-0.00314448 0.000710037 -2.74687e-06)
(-0.000764872 0.00203394 1.68003e-06)
(1.62965e-06 -5.66512e-07 -4.52372e-07)
(-0.000207334 5.69617e-05 -2.24679e-06)
(0.000466284 0.000252717 1.69303e-06)
(-0.000251365 0.000904631 6.86003e-07)
(0.000887403 -0.00176451 4.8764e-06)
(-5.60213e-06 0.00305359 -3.25422e-06)
(-0.00254386 0.00414002 -0.000123551)
(0.00168856 -0.000777797 -0.000558546)
(-0.00327049 -0.000360844 -2.51115e-06)
(-0.00327246 -0.000340285 -2.51115e-06)
(-0.00254386 0.00414002 -0.0004025)
(-0.000313673 1.17583e-06 -4.64995e-07)
(1.19984e-05 1.90693e-06 -3.66682e-06)
(-0.000994717 0.00396659 -0.00119276)
(-0.000508769 -4.97118e-05 -4.65872e-07)
(9.10883e-06 -3.46292e-06 3.59342e-06)
(-0.00371289 0.00113357 -0.000527508)
(0.000170349 0.000221469 1.18368e-06)
(-2.6717e-06 -1.28285e-06 -7.70276e-07)
(0.000276487 -0.000546494 1.09887e-07)
(-6.44124e-06 1.55925e-05 -0.000410307)
(-3.84113e-06 -8.60425e-06 3.15693e-06)
(6.54476e-07 1.98488e-06 -1.05928e-06)
(0.000604551 -5.6953e-05 0.000227179)
(-0.000256199 0.00198839 6.86003e-07)
(-0.000976925 0.0039646 -0.00119276)
(0.00208692 -0.000474384 -0.00032818)
(-0.00352615 -1.40883e-06 -0.000542336)
(0.000547953 -0.00212423 1.1774e-06)
(0.000264726 0.00302764 7.10832e-08)
(-0.00174301 0.000945919 -1.52954e-06)
(-3.34978e-06 -1.61328e-06 -2.75491e-07)
(-0.000220895 0.00227481 -0.000652062)
(-1.32392e-06 -3.8852e-06 -3.95413e-10)
(1.43334e-05 8.36871e-05 -7.70061e-07)
(-3.63987e-06 -1.7168e-06 0.000438113)
(-0.000422697 0.00273064 -0.00148191)
(0.000964799 0.00277514 -0.000652062)
(3.16842e-05 -6.72624e-06 -1.81305e-06)
(-0.00352615 -1.40883e-06 -3.9018e-06)
(0.000384302 -0.00107333 7.59245e-10)
(0.000604551 -2.20657e-05 0.000227179)
(9.67202e-07 3.40627e-06 2.3417e-06)
(-0.000853643 -0.000483015 -0.000109714)
(0.000304754 -0.000388 1.51639e-06)
(0.000345634 -0.0021855 4.47826e-06)
(4.41669e-10 -7.52286e-11 -4.01176e-08)
(-4.94899e-05 7.55286e-08 -3.41975e-06)
(-0.00107711 0.00120645 -1.22475e-06)
(-6.19891e-07 2.69459e-06 0.000438113)
(0.000180385 5.29761e-05 3.00032e-07)
(-0.000526261 0.00102517 -3.09606e-06)
(-0.00294919 -0.00144144 0.00163948)
(0.00101199 0.00100718 -2.17228e-07)
(-0.00352615 -1.40883e-06 -0.000259127)
(-0.000656841 0.00110121 -1.16061e-06)
(5.0407e-06 6.50939e-06 8.81445e-07)
(-5.93815e-06 1.26943e-05 2.10505e-07)
(-5.70006e-06 -2.04973e-05 2.89952e-06)
(-2.80815e-06 -6.95526e-06 -1.96676e-05)
(0.00427644 5.42483e-06 6.61152e-06)
(-0.000579595 0.00212151 -8.47889e-06)
(0.000316223 0.000952915 4.45775e-07)
(0.00117205 -0.00129844 2.7709e-06)
(0.000620455 8.86906e-05 -1.06825e-06)
(-0.000300166 1.29576e-05 -2.72014e-11)
(0.000227864 0.00303118 7.10832e-08)
(-0.000741302 0.000698456 5.1573e-07)
(0.0081975 5.42483e-06 -4.0668e-06)
(9.56532e-05 -3.3319e-05 -3.18258e-08)
(0.00190996 0.00350582 -6.07863e-06)
(-0.00308308 -0.0009993 0.000848468)
(9.10883e-06 -3.83798e-06 9.26551e-06)
(-0.0013781 0.00400951 -0.00119276)
(0.000276487 -0.000546494 -1.9011e-07)
(0.00887441 5.42483e-06 -4.0668e-06)
(-3.01793e-06 1.0554e-06 3.4604e-07)
(-7.44556e-06 4.4063e-06 2.2021e-08)
(6.27937e-06 4.44907e-06 -3.66682e-06)
(2.0303e-05 -1.8102e-05 -0.000142869)
(-4.22844e-06 8.51941e-06 0.000371016)
(-0.00303096 0.00280063 -0.00043451)
(-0.000171205 -1.92317e-05 -2.72014e-11)
(-0.000615214 0.00476781 -5.56463e-10)
(-0.000516854 0.000241297 -0.00043451)
(0.000253014 0.00302876 7.10832e-08)
(2.0303e-05 -2.75608e-05 -0.000142869)
(-2.5505e-06 -3.53232e-07 -6.2422e-07)
(-0.00107714 0.000863017 -1.0541e-06)
(-0.000926748 0.000205004 -1.64092e-06)
(-0.00010101 -0.000231959 8.49219e-09)
(0.00425 0.0002808 -4.0668e-06)
(5.9655e-06 8.80246e-07 3.44821e-05)
(0.0016538 -0.00244267 4.27474e-08)
(0.000314466 0.00257821 -0.00126078)
(-0.00544707 0.000586937 -2.76664e-06)
(-6.92635e-06 -7.5321e-06 -8.00603e-07)
(-0.000231155 0.000125504 5.47775e-07)
(-1.43949e-06 1.5424e-05 -3.7971e-06)
(-3.99795e-06 8.65004e-06 0.000371016)
(-3.49814e-05 0.000247388 -2.34485e-06)
(0.00897215 5.42483e-06 -4.0668e-06)
(0.00424745 0.000307376 -4.0668e-06)
(0.00097758 -0.0017134 4.03072e-06)
(0.00547198 -0.000672869 2.7709e-06)
(0.000991845 -0.000186618 -1.11837e-06)
(0.000980238 -3.50251e-05 0.000693824)
(0.00198124 -0.00211524 4.27474e-08)
(0.000263916 0.000745835 1.52565e-06)
(-9.82495e-08 3.56199e-07 5.29246e-08)
(0.00483602 0.00030996 -1.09881e-06)
(-5.04908e-06 -2.72781e-05 1.80359e-06)
(-1.28913e-05 -2.12086e-05 1.80359e-06)
(-0.000101662 1.80466e-05 -8.01353e-06)
(0.00859666 5.42483e-06 -4.0668e-06)
(0.00424563 -0.000315454 -4.0668e-06)
(-6.54139e-07 0.000590251 -9.83611e-07)
(0.00457878 -0.00228707 -0.00088088)
(-8.93375e-05 0.000242169 -2.34485e-06)
(-9.4653e-05 0.000293226 -1.96302e-06)
(0.00116433 0.00217996 -0.000687263)
(0.00033658 8.06216e-06 8.95053e-05)
(0.000153015 0.00152636 -2.17228e-07)
(5.09063e-05 0.000558708 1.47957e-06)
(0.00424287 0.000355067 -4.0668e-06)
(0.00424292 0.000354506 -4.0668e-06)
(-1.05075e-06 -7.9264e-06 -1.46373e-05)
(-0.00265008 0.000716879 -2.76664e-06)
(0.000119595 -2.14886e-05 -3.0468e-06)
(0.000790365 0.0023919 -0.000107037)
(0.000354644 -1.22561e-05 -8.99618e-06)
(0.00173712 -0.000409661 -1.11837e-06)
(1.18595e-05 6.98491e-07 -3.25365e-07)
(2.38085e-05 -8.48126e-05 2.73481e-07)
(-2.45801e-06 -3.33723e-06 4.70244e-07)
(-0.0023479 0.0012876 3.31408e-07)
(-0.000361861 -0.0021208 -0.00064629)
(-0.0012196 -1.40883e-06 -0.00114261)
(-0.0022367 0.00148921 1.35028e-06)
(-5.3712e-06 -2.39228e-05 1.80359e-06)
(-0.00153161 -0.001166 -0.000300982)
(-0.0022367 0.00148921 2.02451e-06)
(0.000120001 -0.000283681 0.000767781)
(-0.000160263 0.000364718 -8.47889e-06)
(0.000482147 -0.00460845 1.1774e-06)
(0.00047898 5.46676e-05 3.73987e-06)
(3.64204e-05 6.71293e-05 -1.64931e-06)
(-6.68838e-05 -0.000408346 -3.37434e-05)
(-0.000187198 -5.01414e-06 -0.000181402)
(-0.000348296 -0.00167393 0.00093828)
(0.00438657 1.04766e-05 0.000693824)
(-0.000609771 -0.00204763 -0.00064629)
(-0.000415463 0.000143876 1.44406e-06)
(1.0598e-06 -4.65129e-06 -1.31439e-06)
(0.000304811 -0.000273269 0.000767781)
(0.00294675 -0.00429743 -1.09881e-06)
(-1.74933e-07 0.000115146 -1.18036e-06)
(-1.71113e-05 2.92259e-05 -2.49364e-05)
(-6.54139e-07 0.00295909 -6.01388e-06)
(-5.64019e-06 6.0681e-06 -1.6324e-05)
(0.000478643 -0.00454627 1.1774e-06)
(-0.000178531 8.99219e-05 7.05829e-07)
(-8.23417e-09 -6.46201e-09 -2.86493e-07)
(4.28262e-06 -3.92718e-07 -1.53705e-07)
(0.000312033 -0.000272862 0.000767781)
(0.000340518 -0.000254229 1.29718e-06)
(-2.23737e-05 -3.93555e-05 5.78305e-08)
(1.43271e-05 -1.37743e-05 -9.64815e-07)
(-4.30135e-06 9.03292e-06 5.11727e-06)
(-0.0022367 -0.00356086 1.08104e-07)
(-0.000162935 0.000285899 -6.97896e-07)
(0.00546258 -0.000673922 2.7709e-06)
(-6.54139e-07 0.00295909 3.69065e-06)
(0.00490078 -0.000268456 -1.09881e-06)
(-2.16974e-07 4.07443e-06 -1.45827e-07)
(-5.40526e-06 5.98858e-07 1.14888e-09)
(-1.32262e-06 4.86669e-08 -6.48372e-05)
(0.00126847 -0.0013623 -0.000937887)
(-1.88622e-05 9.39946e-07 5.11727e-06)
(-0.00352615 -1.40883e-06 -0.00216917)
(-6.54238e-06 -1.54804e-05 -3.99256e-07)
(-6.54139e-07 0.00295909 -4.20669e-06)
(0.00159175 0.000106268 -0.000323538)
(0.00101199 0.00144389 2.13139e-06)
(0.00488584 -0.000134974 -1.09881e-06)
(-6.00472e-05 -0.000153083 1.91731e-06)
(0.000195797 -0.000451979 8.95053e-05)
(-1.12934e-07 1.80434e-06 3.4604e-07)
(-0.00443083 2.09422e-05 1.29718e-06)
(0.000123371 -5.12949e-05 -1.23585e-06)
(5.64546e-05 6.07064e-05 4.54949e-07)
(-4.30794e-05 -5.85362e-06 1.46455e-06)
(2.2982e-06 3.05267e-08 1.56056e-06)
(0.00481096 0.000533867 -1.09881e-06)
(-0.00136908 -0.00136483 3.00872e-06)
(0.000307422 -0.000670081 -0.000449475)
(-0.000379732 6.47129e-05 7.94591e-07)
(-0.000587557 8.60575e-05 5.59301e-06)
(-0.000162805 -0.000121967 1.59861e-06)
(0.000121968 0.000544589 1.47957e-06)
(0.00487343 -2.41302e-05 -1.09881e-06)
(-0.000155661 0.000222546 2.11721e-07)
(-2.39766e-05 -3.96401e-06 1.82787e-06)
(9.00558e-06 -2.90152e-06 3.8734e-06)
(-0.00247521 0.00106297 3.31408e-07)
(7.6449e-06 -4.32894e-05 3.13429e-06)
(2.19655e-05 2.31081e-05 2.27338e-06)
(-3.66869e-06 2.44285e-06 7.94612e-06)
(-0.000415463 0.000143876 -9.80541e-07)
(0.000883243 -0.0035526 -0.000937887)
(-0.00133146 0.00271656 1.20574e-06)
(9.88718e-05 -0.00042878 -0.000345794)
(5.81218e-06 2.97702e-06 5.11727e-06)
(0.0042809 0.00175677 -0.000766429)
(-9.67682e-06 -9.07078e-07 -4.18826e-07)
(-2.99497e-06 -0.00254654 -2.34485e-06)
(-0.000379732 6.47129e-05 7.85127e-07)
(0.00659406 -0.00259611 -1.09881e-06)
(0.00429165 0.00155855 1.11118e-08)
(-5.68766e-06 1.96298e-06 -6.22394e-07)
(0.00110764 0.00522588 -0.000687263)
(-0.00117381 -0.000253977 0.000679291)
(0.00489403 -0.00020812 -1.09881e-06)
(8.47588e-05 -0.000429575 -0.000345794)
(-0.000133991 -5.3132e-05 3.00872e-06)
(-6.54139e-07 0.00295909 -5.48975e-06)
(0.000685471 0.000960797 -0.00027881)
(-5.43057e-06 3.88472e-07 -4.18826e-07)
(0.00377714 -0.00087256 -0.00161032)
(0.00304656 0.000552532 -1.12796e-06)
(0.00417723 0.000664376 -1.08938e-05)
(0.00337219 0.000464766 -0.00088088)
(-4.61022e-06 -2.81576e-06 -4.18826e-07)
(0.00744882 -0.000461498 -0.00088088)
(-0.000484289 0.00047597 7.45419e-07)
(-0.00146853 0.000487173 -2.38293e-06)
(0.000883243 -0.00174753 -0.00163362)
(0.0018083 0.000430046 -1.12796e-06)
(-2.76299e-07 -5.89992e-06 1.58248e-06)
(-0.00133146 0.00271656 2.13161e-07)
(-4.57584e-07 5.09466e-08 3.64641e-11)
(-0.000141671 -0.000128367 1.91731e-06)
(-0.00026854 2.37157e-05 -1.97356e-06)
(-0.0009219 -0.00108588 0.000352247)
(-1.28312e-06 -2.86719e-07 -5.9877e-07)
(6.46395e-06 2.89001e-07 -1.44635e-08)
(-0.000359362 0.000488328 7.45419e-07)
(0.00799518 0.000879485 -1.12796e-06)
(-0.00449229 -1.26087e-05 -1.0577e-06)
(5.91559e-09 -3.21397e-09 -3.45954e-07)
(-7.27235e-06 2.91897e-06 -6.22394e-07)
(-0.000287635 -9.57282e-06 -6.96764e-05)
(0.00417723 0.000664376 -6.58499e-06)
(4.69167e-06 1.65793e-05 1.72259e-06)
(-1.20055e-05 7.66797e-05 2.5986e-07)
(0.00885746 0.000928067 -1.12796e-06)
(7.36835e-06 4.32764e-06 -7.12295e-07)
(-5.34747e-07 -6.0664e-05 1.59662e-07)
(-0.000806947 0.00163044 -4.36181e-07)
(0.00257149 0.00646199 -0.000766429)
(1.39373e-06 -5.39422e-06 1.60754e-06)
(0.00229847 -0.00121657 -1.0077e-05)
(-0.0015654 0.00306596 -2.23715e-06)
(6.75444e-05 -3.73721e-05 -3.44936e-10)
(8.54412e-07 2.59351e-07 -7.97251e-06)
(-3.57169e-06 1.61382e-05 1.43041e-07)
(9.88869e-07 1.18408e-07 -1.46491e-06)
(-0.000652504 0.000360631 3.40933e-08)
(0.00177208 -8.50938e-08 0.000285758)
(0.000260712 3.5106e-06 -1.74269e-10)
(-5.29036e-06 -1.37729e-06 -9.74442e-06)
(5.8074e-05 -0.000623078 -2.91531e-07)
(-5.34747e-07 -6.0664e-05 4.98774e-07)
(0.00417723 0.000664376 -1.15282e-05)
(-0.00147447 0.000467563 -2.15946e-06)
(0.000318338 3.5106e-06 -1.74269e-10)
(0.00899383 0.000935751 -1.12796e-06)
(2.74643e-09 -2.75438e-09 1.54628e-07)
(0.00011267 -3.66729e-05 -7.95874e-07)
(3.35219e-05 7.84512e-06 -4.7302e-06)
(-0.000364297 -0.00121123 -0.000347199)
(0.00229847 -0.00121657 -3.27191e-06)
(5.55184e-05 -1.49647e-05 1.52603e-07)
(0.00164342 -8.50938e-08 0.000285758)
(-4.54743e-06 1.46256e-05 -1.29725e-06)
(1.27836e-05 -2.01845e-05 4.31102e-05)
(-0.0023205 0.00301605 4.73777e-07)
(0.00367594 3.5106e-06 -1.74269e-10)
(-1.4944e-06 -3.07002e-07 -5.9877e-07)
(1.43057e-06 -1.00057e-05 -2.91531e-07)
(-0.000651972 -0.00101708 9.22346e-06)
(-5.34831e-08 3.91437e-09 4.82675e-07)
(-0.000536342 -0.0010521 9.22346e-06)
(-0.000816079 0.00143103 -2.71462e-07)
(-0.000363395 -0.0012115 -0.000347199)
(0.0038175 -0.00113099 -7.52224e-06)
(0.000183005 0.00063982 -2.23715e-06)
(0.000112478 -3.73083e-05 -7.95874e-07)
(7.53566e-05 -7.76591e-05 -7.95328e-11)
(4.91714e-08 -1.53569e-07 -3.8373e-09)
(-1.20203e-08 6.75078e-09 -4.5449e-07)
(9.74049e-06 2.19911e-06 -1.04552e-06)
(1.584e-06 0.000905041 -0.000638547)
(-3.25291e-07 -1.64327e-06 -5.69761e-07)
(-7.832e-05 0.000113518 9.69212e-07)
(-0.00107677 0.000161027 8.8017e-06)
(1.584e-06 0.000905041 -0.00064411)
(8.12646e-08 2.72038e-07 -9.51358e-07)
(-2.64543e-05 1.32405e-05 -3.13845e-06)
(-2.25457e-06 -2.81238e-07 -8.01243e-11)
(-0.000523801 0.00171617 -7.40183e-07)
(-0.000444343 0.000745628 8.48952e-09)
(-6.60287e-08 -8.23115e-09 -5.46149e-07)
(-0.00113272 5.33827e-05 1.39626e-11)
(-0.000102588 -0.000285157 5.92295e-07)
(0.00145167 0.000148557 0.000325106)
(1.33544e-05 1.60125e-06 -1.40449e-07)
(-3.98284e-06 2.44018e-07 7.39391e-07)
(0.000420131 0.00126185 0.000700897)
(6.12536e-05 8.17594e-06 -1.77598e-06)
(8.39153e-05 -0.00392501 1.11118e-08)
(3.16898e-05 6.17878e-07 8.54224e-07)
(0.000365167 0.00248137 -3.29811e-06)
(0.000184004 5.16281e-05 7.49881e-07)
(0.00313126 0.000332128 3.68382e-07)
(-0.000424688 0.00132747 -0.000353104)
(-3.83225e-06 1.81224e-06 -1.20732e-05)
(0.00460346 2.38989e-06 2.05744e-11)
(-0.00146076 0.00123582 -2.90587e-07)
(-2.20047e-06 -2.06311e-05 1.06324e-08)
(0.00290299 0.000319266 3.68382e-07)
(0.00112687 -0.00224842 8.54224e-07)
(0.00112687 -0.00170098 8.54224e-07)
(0.00401916 2.38989e-06 2.05744e-11)
(0.000420131 0.00126185 6.11952e-05)
(-2.0726e-07 6.32853e-08 1.12307e-06)
(-0.00132041 -0.000178096 -0.000630974)
(-0.0011673 -0.000306816 1.39626e-11)
(-6.63688e-06 -0.00115878 -5.13647e-11)
(3.32557e-06 -3.63507e-06 -0.000130513)
(0.00506117 2.38989e-06 2.05744e-11)
(0.00142563 -0.000205354 -8.75544e-08)
(-0.00256272 -0.00197327 -0.000764159)
(1.41896e-08 -3.52005e-09 1.21717e-07)
(0.000893012 -0.00188837 -0.000403317)
(0.00010601 -0.000717919 -0.000302697)
(-1.33239e-05 -1.85893e-05 2.06207e-08)
(0.00311423 -0.000510364 -2.10189e-10)
(0.0014432 -0.000349941 3.546e-06)
(-0.000525065 0.000356076 -0.000353104)
(-9.80807e-05 -2.78627e-05 -2.81318e-07)
(-0.00209469 0.000373495 -0.00087222)
(0.000623001 -0.00185184 0.000604026)
(0.00151707 -0.00102212 -1.76477e-06)
(0.000893012 -0.00139981 -0.000403317)
(1.17959e-08 3.43913e-09 1.52066e-06)
(1.62799e-06 1.20433e-06 -1.5154e-06)
(-0.00176611 0.00330852 -0.000764159)
(0.000993834 -0.000435569 -0.000197875)
(2.05009e-05 -0.000490408 -0.000369218)
(0.000223622 0.00139308 8.03968e-07)
(0.000522991 -0.00131757 0.000232101)
(1.69748e-05 0.00212134 -0.000725473)
(-0.00131369 -0.000218585 -0.000630974)
(-0.00175186 0.00212134 -0.00132561)
(-8.91858e-11 9.91526e-10 -3.9212e-09)
(0.0014432 -0.000349941 -2.86026e-06)
(-3.64154e-06 1.04612e-08 5.52344e-06)
(6.11598e-06 2.83287e-07 8.03968e-07)
(3.97336e-08 -6.2703e-07 9.34846e-09)
(-1.5919e-06 9.6089e-06 -7.87247e-07)
(0.0013746 -0.00011779 -3.20975e-08)
(1.71122e-06 -1.06359e-05 -1.45709e-08)
(-0.000126702 -1.35251e-05 -9.94054e-07)
(0.00112388 8.66675e-09 0.00073992)
(-6.05882e-05 0.000432243 1.32866e-06)
(0.000522991 -5.21395e-05 0.000458446)
(0.00173857 6.75624e-05 0.000604026)
(0.000319774 8.66675e-09 0.000402186)
(6.87156e-06 3.36571e-05 -1.52896e-06)
(-0.000686019 0.000502263 1.32866e-06)
(-0.00124005 0.00111095 3.91845e-06)
(-4.76644e-05 2.01668e-07 -2.9516e-06)
(2.56166e-05 7.60523e-06 7.81862e-06)
(6.34459e-05 0.000291861 1.13602e-07)
(-0.00091013 0.000816838 0.000262767)
(1.64861e-05 -3.00578e-05 -3.76624e-10)
(9.12558e-05 2.12893e-05 1.04772e-06)
(1.45677e-07 -3.1439e-07 2.9905e-10)
(-6.02253e-07 2.66115e-08 -8.93566e-07)
(0.0013746 -0.000154064 -3.20975e-08)
(-9.26997e-05 -0.000223857 -3.6968e-08)
(5.26558e-05 -4.31654e-07 -9.79261e-07)
(0.000793828 0.00016832 7.15883e-07)
(1.01718e-07 6.12014e-08 -6.72418e-11)
(-0.000634291 -0.000181413 -9.60545e-12)
(-0.000167658 9.26437e-05 3.17388e-08)
(0.000119848 -1.82406e-09 -7.15734e-07)
(-1.16929e-05 6.41009e-05 4.91647e-06)
(0.000800515 4.96471e-05 7.15883e-07)
(-0.000117612 -0.000777948 -9.60545e-12)
(-0.00150001 0.000471486 -3.05619e-05)
(0.000167045 -2.518e-05 -7.20122e-07)
(0.000181889 -0.000112576 0.000671484)
(-1.8004e-05 3.01074e-06 -8.49058e-08)
(-0.00118793 0.00165387 3.91845e-06)
(-0.00170469 6.49088e-07 1.52654e-06)
(3.39193e-05 0.000227387 -4.4933e-07)
(0.000100066 -1.82406e-09 -7.15734e-07)
(4.4883e-06 1.77036e-05 -2.50682e-06)
(-0.00300379 0.00530127 1.52654e-06)
(-2.5149e-09 1.26891e-08 1.05078e-06)
(4.70824e-05 -0.000145218 -1.99959e-07)
(0.000256822 7.56305e-05 7.41749e-10)
(-0.000341765 0.000341815 -0.000561231)
(-1.54809e-07 -1.01664e-06 -5.67366e-09)
(-9.81673e-07 -3.3535e-07 -1.48724e-06)
(-3.21734e-05 -6.63492e-06 5.50254e-08)
(4.43274e-09 6.2902e-09 -4.35068e-07)
(-0.000986835 1.04024e-06 -1.04761e-06)
(-0.00195442 7.78673e-06 0.000356297)
(-0.00308705 0.00443399 1.52654e-06)
(2.44286e-07 -1.59638e-08 -4.06602e-10)
(2.14762e-06 -2.06486e-07 2.63092e-06)
(3.01744e-05 0.00037494 -6.78576e-05)
(-0.000988915 3.79602e-05 -1.04761e-06)
(3.55069e-06 6.49088e-07 1.52654e-06)
(0.00479345 1.19367e-06 -0.000808519)
(-0.00167967 -0.00191988 -0.000460234)
(-0.00351266 6.49088e-07 -4.29841e-06)
(0.000127657 -0.000100971 -9.37158e-10)
(0.00436999 1.19367e-06 -0.000808519)
(1.0215e-05 -3.7883e-05 -7.16029e-07)
(2.95447e-05 4.58037e-06 -8.28927e-08)
(0.00451315 1.19367e-06 -0.000808519)
(0.000274568 -0.000123507 0.000639784)
(0.000490025 -0.00127868 2.47103e-06)
(-0.000884812 -0.000486509 -0.000460234)
(1.63253e-07 -0.00110592 -0.00011651)
(2.08899e-10 5.12769e-09 7.21222e-07)
(0.00253018 -0.000250591 -1.4193e-08)
(-1.29499e-06 -4.40345e-07 -4.8878e-06)
(1.00599e-05 6.19799e-05 1.32912e-10)
(1.63253e-07 -0.000244429 -0.000351275)
(0.000490025 -0.00145247 2.47103e-06)
(0.00184433 -0.00402238 -4.19224e-07)
(0.00184433 -0.00488501 -4.19224e-07)
(-3.83737e-07 1.99212e-06 3.77368e-07)
(0.00184433 -0.00547383 -4.19224e-07)
(-6.57113e-07 3.90322e-08 -1.77447e-06)
(-3.07503e-05 2.71955e-07 0.000676435)
(-1.82765e-08 1.78052e-06 2.09118e-06)
(0.000145579 -0.00183644 -2.5544e-07)
(1.19509e-07 -1.85997e-06 -3.14867e-08)
(5.9707e-05 -0.000218099 -1.48747e-12)
(-6.43445e-09 5.59555e-08 -2.47264e-06)
(-4.05712e-10 3.89657e-09 -1.53735e-11)
(0.00191272 -0.00363109 -4.84424e-12)
(0.000814054 7.05826e-06 0.000179694)
(0.00191272 -0.000613983 -3.80902e-06)
(-9.88542e-06 -3.93638e-05 6.15301e-07)
(0.000129247 0.000154571 -8.62487e-11)
(-4.892e-05 -0.000425661 -4.84424e-12)
(-6.63937e-12 -2.57765e-12 -5.04998e-12)
(3.96645e-10 -2.62771e-09 -8.11944e-06)
(-6.71763e-09 -7.97487e-10 -3.35323e-07)
(-1.66036e-09 -1.16689e-08 -2.09111e-06)
(3.81421e-09 -6.93554e-09 -5.55405e-06)
(2.63395e-13 3.12476e-12 -8.40725e-13)
(1.09619e-16 1.52212e-15 -1.2245e-14)
(6.01432e-13 4.3252e-13 -1.21906e-09)
(-9.6304e-12 -1.27465e-11 -3.81984e-12)
(-9.58419e-15 1.37355e-14 2.00153e-14)
(-4.44817e-16 4.61908e-15 -1.49518e-14)
(-1.65113e-19 4.31132e-19 -1.98465e-20)
(-1.15488e-15 1.00689e-14 1.48636e-13)
(-1.42598e-15 1.48168e-14 -2.40714e-12)
(-1.7348e-15 -2.4774e-14 -6.88086e-17)
)


// ************************************************************************* //
