/*--------------------------------*- C++ -*----------------------------------*\
| =========                 |                                                 |
| \\      /  F ield         | OpenFOAM: The Open Source CFD Toolbox           |
|  \\    /   O peration     | Version:  plus.master                           |
|   \\  /    A nd           | Web:      www.OpenFOAM.com                      |
|    \\/     M anipulation  |                                                 |
\*---------------------------------------------------------------------------*/
FoamFile
{
    version     2.0;
    format      ascii;
    class       volScalarField;
    location    "1.6";
    object      nut;
}
// * * * * * * * * * * * * * * * * * * * * * * * * * * * * * * * * * * * * * //

dimensions      [0 2 -1 0 0 0 0];

internalField   nonuniform List<scalar> 
47285
(
5.50027e-05
6.28096e-05
7.51465e-05
7.41828e-05
6.16262e-05
5.57355e-05
5.08961e-05
6.42203e-05
6.1402e-05
8.18194e-05
8.35035e-05
6.26536e-05
6.15621e-05
5.66791e-05
8.24543e-05
8.56334e-05
9.49781e-05
9.28652e-05
8.90972e-05
6.61397e-05
6.37175e-05
9.01385e-05
9.72483e-05
0.000100054
0.000103793
0.000108382
6.52352e-05
6.65426e-05
6.98391e-05
6.85191e-05
0.000102072
0.00011093
6.94148e-05
6.83729e-05
6.12308e-05
5.9933e-05
6.51509e-05
7.64199e-05
7.46209e-05
7.03604e-05
6.54593e-05
5.49813e-05
5.31126e-05
6.03195e-05
7.05533e-05
6.96932e-05
6.08484e-05
5.41289e-05
5.08506e-05
9.36879e-05
0.000109474
0.000113415
0.000108654
0.000107664
0.000101065
9.21333e-05
0.00010885
0.000137231
0.000157304
0.000154419
0.000131204
0.000107096
9.36648e-05
0.000121829
0.000166897
0.000175538
0.000185921
0.000170661
0.000115653
9.13017e-05
0.00012326
0.000177969
0.000185736
0.000189577
0.000179197
0.00011189
8.80088e-05
0.000114856
0.000146568
0.000189007
0.000183279
0.000138009
0.000107092
9.47898e-05
0.000105991
0.000119088
0.000130514
0.000127481
0.000114887
0.00010529
9.6565e-05
9.83995e-05
0.000108599
0.000112875
0.00011302
0.000110792
0.000103375
9.42591e-05
0.00010301
0.00013527
0.000151297
0.000148125
0.00013382
0.000111356
8.83718e-05
0.000135372
0.000183079
0.000215439
0.000207819
0.000171625
0.000130816
0.000100242
0.000160166
0.000222418
0.000237893
0.000244012
0.000212964
0.000148132
0.000107725
0.000163909
0.000227996
0.000248284
0.000246861
0.000219124
0.000148213
0.000109413
0.000148729
0.000193905
0.00023873
0.00022954
0.000180594
0.000138242
0.000109629
0.000127478
0.000153707
0.000171158
0.000167887
0.000148548
0.0001261
0.000102203
0.000107177
0.000127807
0.000138535
0.000139646
0.000130238
0.000111701
9.08945e-05
9.8431e-05
0.000144014
0.000168914
0.000167445
0.000142991
0.000106215
7.12597e-05
0.000146056
0.000205326
0.00024403
0.000234065
0.000190518
0.000140219
9.59015e-05
0.000179422
0.000250047
0.00026596
0.000267681
0.000229462
0.000163944
0.000114998
0.000185008
0.00025226
0.000277634
0.000274414
0.000234619
0.00016815
0.000121871
0.000167191
0.000219499
0.000261407
0.000250716
0.000204202
0.000158122
0.000117535
0.000136119
0.000173576
0.000195206
0.000192744
0.00017038
0.000137816
0.000101103
0.000102149
0.00013426
0.000152969
0.000155358
0.000139437
0.000110636
8.03251e-05
0.00010164
0.000155075
0.000184463
0.000183054
0.000153125
0.000108329
6.91391e-05
0.000159409
0.00022555
0.000266778
0.000257145
0.000208909
0.000151934
0.000100036
0.000197082
0.000269748
0.000270722
0.000272313
0.000249017
0.000180218
0.000125339
0.000203138
0.000268855
0.000277952
0.000269543
0.000252492
0.000185383
0.000134689
0.000182859
0.000240462
0.000280037
0.000270564
0.000224718
0.000175796
0.000126909
0.000143232
0.000190085
0.000213254
0.00021304
0.000189775
0.000148229
0.000104717
9.9258e-05
0.000138592
0.000164322
0.000168393
0.000147715
0.000113038
7.76353e-05
4.92977e-05
4.81569e-05
4.53415e-05
4.19905e-05
3.84675e-05
3.54036e-05
3.28328e-05
3.08239e-05
5.35292e-05
5.11104e-05
4.8724e-05
4.61242e-05
4.35806e-05
4.1131e-05
3.84821e-05
3.57199e-05
5.54696e-05
5.20665e-05
4.95069e-05
4.7043e-05
4.49268e-05
4.33069e-05
4.18007e-05
3.99232e-05
5.53663e-05
5.18607e-05
5.0297e-05
4.85028e-05
4.71385e-05
4.6303e-05
4.52151e-05
4.37544e-05
5.51234e-05
5.24604e-05
4.96175e-05
4.71891e-05
4.50802e-05
4.35097e-05
4.20007e-05
4.01772e-05
5.26287e-05
5.14002e-05
4.83553e-05
4.57192e-05
4.30869e-05
4.04361e-05
3.78064e-05
3.51708e-05
4.91774e-05
4.73622e-05
4.47353e-05
4.11465e-05
3.76191e-05
3.46074e-05
3.21793e-05
3.04309e-05
8.79086e-05
8.76928e-05
8.88989e-05
9.05508e-05
9.12975e-05
9.05383e-05
8.83656e-05
8.52741e-05
8.53851e-05
8.24099e-05
8.27641e-05
8.5697e-05
8.84908e-05
8.9156e-05
8.74752e-05
8.41524e-05
8.17743e-05
7.75838e-05
7.54096e-05
7.78014e-05
8.24735e-05
8.55836e-05
8.56162e-05
8.30971e-05
8.09755e-05
7.77631e-05
7.46845e-05
7.54419e-05
7.952e-05
8.31174e-05
8.35039e-05
8.10453e-05
8.57123e-05
8.01781e-05
7.75253e-05
7.97199e-05
8.3977e-05
8.66574e-05
8.62592e-05
8.33587e-05
8.85619e-05
8.53217e-05
8.53917e-05
8.78851e-05
9.0027e-05
9.01591e-05
8.80917e-05
8.4538e-05
9.02413e-05
8.9902e-05
9.0637e-05
9.17153e-05
9.18814e-05
9.06721e-05
8.82365e-05
8.50477e-05
7.30744e-05
6.6998e-05
6.74686e-05
7.38011e-05
8.20904e-05
8.88574e-05
9.24702e-05
9.32035e-05
7.72515e-05
6.51025e-05
6.00145e-05
6.42023e-05
7.3793e-05
8.32336e-05
8.91121e-05
9.10999e-05
8.15832e-05
6.44549e-05
5.50503e-05
5.56555e-05
6.47532e-05
7.61768e-05
8.44741e-05
8.81694e-05
8.42243e-05
6.62248e-05
5.50684e-05
5.31665e-05
6.08687e-05
7.25453e-05
8.177e-05
8.62277e-05
8.45433e-05
6.75345e-05
5.81119e-05
5.8922e-05
6.80277e-05
7.88513e-05
8.62283e-05
8.91002e-05
8.04801e-05
6.84724e-05
6.38777e-05
6.83758e-05
7.76788e-05
8.62409e-05
9.10711e-05
9.2185e-05
7.65339e-05
7.07867e-05
7.16422e-05
7.79329e-05
8.56379e-05
9.14979e-05
9.41791e-05
9.41624e-05
4.84241e-05
3.78913e-05
3.63367e-05
4.24302e-05
5.32008e-05
6.41936e-05
7.11492e-05
7.26237e-05
6.22248e-05
4.30036e-05
3.38572e-05
3.49087e-05
4.42067e-05
5.71701e-05
6.74148e-05
7.11618e-05
7.62563e-05
5.07025e-05
3.57001e-05
3.13578e-05
3.68511e-05
4.92839e-05
6.17524e-05
6.81264e-05
8.34444e-05
5.62519e-05
3.87166e-05
3.17033e-05
3.49963e-05
4.63263e-05
5.9205e-05
6.65493e-05
8.03628e-05
5.50309e-05
3.90506e-05
3.47066e-05
4.11638e-05
5.39126e-05
6.54285e-05
7.02542e-05
6.94333e-05
4.95323e-05
3.93123e-05
4.03638e-05
5.01063e-05
6.25563e-05
7.12583e-05
7.33638e-05
5.73841e-05
4.56661e-05
4.30279e-05
4.87026e-05
5.90114e-05
6.89661e-05
7.44938e-05
7.47074e-05
4.30312e-05
2.95978e-05
2.45505e-05
2.60116e-05
3.13277e-05
3.63345e-05
3.45317e-05
2.23048e-05
6.34269e-05
4.12097e-05
2.78067e-05
2.35139e-05
2.60419e-05
3.15535e-05
3.27248e-05
2.2125e-05
8.18978e-05
5.40835e-05
3.50487e-05
2.51851e-05
2.35353e-05
2.7251e-05
2.97038e-05
2.1226e-05
8.99655e-05
5.9779e-05
3.89365e-05
2.71018e-05
2.3622e-05
2.62722e-05
2.87386e-05
2.08862e-05
8.41399e-05
5.49464e-05
3.48092e-05
2.58715e-05
2.59719e-05
3.08539e-05
3.27509e-05
2.23564e-05
6.81441e-05
4.38009e-05
2.97504e-05
2.6478e-05
3.04449e-05
3.62758e-05
3.58762e-05
2.32017e-05
4.93636e-05
3.43182e-05
2.88001e-05
3.07597e-05
3.63875e-05
4.06392e-05
3.70035e-05
2.32e-05
5.11955e-05
4.88224e-05
4.60624e-05
4.2688e-05
3.9133e-05
3.59192e-05
3.32317e-05
3.1147e-05
5.52311e-05
5.41622e-05
5.21176e-05
4.94477e-05
4.67473e-05
4.43519e-05
4.18541e-05
3.92363e-05
5.93914e-05
5.77471e-05
5.65269e-05
5.40077e-05
5.10485e-05
4.85585e-05
4.64751e-05
4.4679e-05
6.64342e-05
5.96648e-05
5.78574e-05
5.54379e-05
5.29211e-05
5.07737e-05
4.91226e-05
4.76662e-05
6.36274e-05
5.87964e-05
5.67003e-05
5.39172e-05
5.10398e-05
4.86279e-05
4.66385e-05
4.49342e-05
5.66447e-05
5.4406e-05
5.20336e-05
4.95769e-05
4.69097e-05
4.44288e-05
4.2028e-05
3.96148e-05
5.19855e-05
4.96657e-05
4.72241e-05
4.38523e-05
4.03694e-05
3.72152e-05
3.43596e-05
3.19525e-05
9.08525e-05
8.68456e-05
8.54211e-05
8.66623e-05
8.83884e-05
8.89991e-05
8.80143e-05
8.57116e-05
9.56667e-05
8.75384e-05
8.1524e-05
8.08118e-05
8.39448e-05
8.71185e-05
8.79825e-05
8.6362e-05
9.88838e-05
8.98928e-05
8.04206e-05
7.43824e-05
7.52227e-05
7.99894e-05
8.37713e-05
8.44903e-05
9.66127e-05
8.74939e-05
7.89687e-05
7.12056e-05
6.99801e-05
7.47822e-05
8.01197e-05
8.28285e-05
9.47669e-05
8.32948e-05
7.41424e-05
6.90702e-05
7.14311e-05
7.77013e-05
8.26951e-05
8.4325e-05
8.8974e-05
7.93781e-05
7.42986e-05
7.56028e-05
8.08434e-05
8.55197e-05
8.72981e-05
8.62417e-05
8.2696e-05
7.89972e-05
7.94578e-05
8.31241e-05
8.67149e-05
8.84284e-05
8.79985e-05
8.59324e-05
8.65704e-05
7.42533e-05
6.779e-05
6.9644e-05
7.67825e-05
8.44938e-05
8.97499e-05
9.20385e-05
9.99077e-05
7.8552e-05
6.40879e-05
5.97127e-05
6.56036e-05
7.5696e-05
8.4091e-05
8.86821e-05
0.000112601
8.56279e-05
6.39803e-05
5.19e-05
5.35238e-05
6.41294e-05
7.55603e-05
8.3133e-05
0.000116915
8.69371e-05
6.2397e-05
4.72775e-05
4.48524e-05
5.34142e-05
6.59087e-05
7.59591e-05
0.000110621
7.93387e-05
5.66336e-05
4.53501e-05
4.79622e-05
5.93674e-05
7.19142e-05
8.07232e-05
9.37659e-05
6.76462e-05
5.28003e-05
5.04375e-05
5.85931e-05
7.05548e-05
8.05477e-05
8.64295e-05
7.5125e-05
6.05536e-05
5.5236e-05
5.98361e-05
6.9544e-05
7.9325e-05
8.62103e-05
8.9712e-05
7.07847e-05
5.12848e-05
4.10749e-05
4.12341e-05
4.8892e-05
5.92786e-05
6.72895e-05
7.04141e-05
9.4219e-05
6.32245e-05
4.22083e-05
3.41933e-05
3.82139e-05
4.93918e-05
6.07386e-05
6.68639e-05
0.000116793
7.69841e-05
4.7467e-05
3.1544e-05
3.00102e-05
3.87516e-05
5.14646e-05
6.06915e-05
0.000126526
8.31623e-05
5.03215e-05
3.14444e-05
2.57844e-05
3.00354e-05
4.10023e-05
5.25769e-05
0.00011685
7.23241e-05
4.16296e-05
2.69918e-05
2.56074e-05
3.35249e-05
4.63414e-05
5.70378e-05
8.94322e-05
5.24049e-05
3.18187e-05
2.60832e-05
3.10397e-05
4.27446e-05
5.53647e-05
6.32458e-05
5.79351e-05
3.64369e-05
2.85642e-05
3.11423e-05
4.03703e-05
5.23365e-05
6.21256e-05
6.68438e-05
6.25054e-05
3.97129e-05
2.79544e-05
2.59859e-05
2.94688e-05
3.38566e-05
3.28068e-05
2.18018e-05
9.32263e-05
5.79939e-05
3.41314e-05
2.38848e-05
2.36814e-05
2.80621e-05
2.9913e-05
2.09916e-05
0.000122707
7.6955e-05
4.48035e-05
2.64272e-05
2.10033e-05
2.30032e-05
2.57236e-05
1.94256e-05
0.000137675
8.79819e-05
5.36277e-05
3.25492e-05
2.22389e-05
1.96144e-05
2.0535e-05
1.66326e-05
0.000127594
7.72952e-05
4.46457e-05
2.60745e-05
1.93589e-05
1.99807e-05
2.24525e-05
1.77852e-05
9.47918e-05
5.39035e-05
3.03118e-05
2.01986e-05
1.93931e-05
2.33877e-05
2.61938e-05
1.93819e-05
5.59426e-05
3.21574e-05
2.15827e-05
2.01481e-05
2.37774e-05
2.88637e-05
2.94696e-05
2.03448e-05
5.26224e-05
5.07402e-05
4.76633e-05
4.41043e-05
4.06749e-05
3.75701e-05
3.47998e-05
3.2421e-05
5.62502e-05
5.44519e-05
5.21216e-05
4.9355e-05
4.66798e-05
4.44741e-05
4.24222e-05
4.01334e-05
6.03649e-05
5.60297e-05
5.49621e-05
5.37484e-05
5.17954e-05
4.961e-05
4.73737e-05
4.54707e-05
5.9958e-05
5.58661e-05
5.44107e-05
5.31166e-05
5.22849e-05
5.13092e-05
4.98495e-05
4.83983e-05
5.53077e-05
5.37722e-05
5.34157e-05
5.25827e-05
5.12562e-05
4.955e-05
4.78446e-05
4.61759e-05
5.3229e-05
5.24413e-05
5.0274e-05
4.80598e-05
4.60456e-05
4.42277e-05
4.26197e-05
4.0714e-05
5.04156e-05
4.88301e-05
4.62886e-05
4.34544e-05
4.04445e-05
3.76232e-05
3.50924e-05
3.28352e-05
8.4731e-05
8.08372e-05
8.09203e-05
8.42301e-05
8.76437e-05
8.92965e-05
8.88843e-05
8.68769e-05
9.50967e-05
8.66663e-05
8.02044e-05
7.88736e-05
8.23953e-05
8.66878e-05
8.87499e-05
8.80766e-05
9.88758e-05
9.52692e-05
8.95761e-05
8.34899e-05
8.10592e-05
8.3113e-05
8.61921e-05
8.73149e-05
9.7124e-05
9.6825e-05
9.65504e-05
9.51404e-05
9.1821e-05
8.91157e-05
8.86314e-05
8.85191e-05
0.000102855
0.000101178
9.70394e-05
9.1969e-05
8.91857e-05
8.92327e-05
8.98767e-05
8.91613e-05
9.81616e-05
9.41485e-05
9.04387e-05
8.95286e-05
9.0859e-05
9.21649e-05
9.17465e-05
8.94009e-05
9.16228e-05
9.0699e-05
9.11788e-05
9.26639e-05
9.35569e-05
9.30019e-05
9.0976e-05
8.79236e-05
7.67747e-05
6.22975e-05
5.64856e-05
6.05136e-05
6.98813e-05
7.95018e-05
8.63418e-05
8.98505e-05
9.95338e-05
7.54702e-05
5.89563e-05
5.32722e-05
5.91931e-05
7.03333e-05
8.02085e-05
8.61866e-05
0.000113443
9.06122e-05
6.96493e-05
5.45542e-05
5.2212e-05
6.10558e-05
7.28508e-05
8.15803e-05
0.000114718
9.65226e-05
7.93948e-05
6.39038e-05
5.56217e-05
5.95168e-05
6.97179e-05
7.87542e-05
0.000108989
9.00594e-05
7.30337e-05
6.12134e-05
6.05297e-05
6.86573e-05
7.82866e-05
8.47265e-05
9.24075e-05
7.71352e-05
6.6736e-05
6.50689e-05
7.14125e-05
8.02922e-05
8.69883e-05
9.01504e-05
7.68649e-05
6.98032e-05
6.88524e-05
7.41304e-05
8.1973e-05
8.87246e-05
9.2531e-05
9.35229e-05
5.84935e-05
3.70459e-05
2.89649e-05
3.1419e-05
4.05968e-05
5.24897e-05
6.21731e-05
6.67669e-05
9.1253e-05
5.5732e-05
3.42235e-05
2.73479e-05
3.16018e-05
4.28771e-05
5.51005e-05
6.25948e-05
0.000114391
7.56075e-05
4.61711e-05
2.9932e-05
2.73824e-05
3.47008e-05
4.69526e-05
5.69724e-05
0.000117702
8.1972e-05
5.37359e-05
3.51674e-05
2.90478e-05
3.30508e-05
4.37112e-05
5.42931e-05
0.000100578
6.83366e-05
4.47713e-05
3.26789e-05
3.25727e-05
4.13024e-05
5.30413e-05
6.10079e-05
7.29975e-05
4.98509e-05
3.64089e-05
3.45308e-05
4.17343e-05
5.3519e-05
6.36363e-05
6.79724e-05
5.03119e-05
3.88874e-05
3.6713e-05
4.24476e-05
5.29075e-05
6.37065e-05
7.05725e-05
7.21076e-05
5.60552e-05
3.24197e-05
2.17395e-05
2.02993e-05
2.40334e-05
2.91976e-05
2.97276e-05
2.04381e-05
9.24767e-05
5.31758e-05
3.02544e-05
2.05923e-05
1.98496e-05
2.38524e-05
2.65656e-05
1.95263e-05
0.00011986
7.42845e-05
4.38185e-05
2.62426e-05
1.99045e-05
2.0677e-05
2.31144e-05
1.81161e-05
0.000123111
8.05485e-05
5.11005e-05
3.19188e-05
2.25996e-05
2.06957e-05
2.19408e-05
1.76125e-05
0.000100814
6.43267e-05
3.93851e-05
2.56952e-05
2.18889e-05
2.4131e-05
2.66082e-05
1.97994e-05
6.89001e-05
4.29393e-05
2.7685e-05
2.27588e-05
2.49962e-05
3.03036e-05
3.15962e-05
2.16108e-05
4.3352e-05
2.94498e-05
2.44016e-05
2.60373e-05
3.14441e-05
3.63671e-05
3.44178e-05
2.22807e-05
4.86767e-05
4.65752e-05
4.44272e-05
4.1439e-05
3.84675e-05
3.56799e-05
3.32013e-05
3.12316e-05
5.2367e-05
5.1174e-05
4.88339e-05
4.61066e-05
4.37224e-05
4.15948e-05
3.96315e-05
3.77655e-05
5.62439e-05
5.51562e-05
5.36483e-05
5.17474e-05
4.933e-05
4.70342e-05
4.52119e-05
4.36798e-05
5.98344e-05
5.83441e-05
5.7613e-05
5.61664e-05
5.37581e-05
5.15827e-05
4.97281e-05
4.81952e-05
6.04069e-05
5.82456e-05
5.70207e-05
5.50449e-05
5.19439e-05
4.92573e-05
4.70876e-05
4.53779e-05
5.61722e-05
5.42577e-05
5.14304e-05
4.86129e-05
4.59475e-05
4.35364e-05
4.14038e-05
3.9257e-05
5.11525e-05
4.88902e-05
4.55977e-05
4.21999e-05
3.89964e-05
3.60833e-05
3.35415e-05
3.14631e-05
9.23656e-05
9.1472e-05
9.20333e-05
9.31045e-05
9.33755e-05
9.22621e-05
8.986e-05
8.66174e-05
9.85734e-05
9.35238e-05
9.06437e-05
9.06311e-05
9.18788e-05
9.21951e-05
9.06739e-05
8.75939e-05
0.000106789
0.000100591
9.37271e-05
8.93191e-05
8.85976e-05
8.95812e-05
8.97999e-05
8.80463e-05
0.000111558
0.000107409
0.00010019
9.28867e-05
8.90498e-05
8.89039e-05
8.9903e-05
8.94049e-05
0.000109668
0.00010438
9.65096e-05
8.94318e-05
8.65862e-05
8.73414e-05
8.83233e-05
8.75045e-05
0.000102103
9.51741e-05
8.91285e-05
8.66022e-05
8.73836e-05
8.8802e-05
8.87201e-05
8.66371e-05
9.27122e-05
8.8456e-05
8.67055e-05
8.75103e-05
8.89221e-05
8.93517e-05
8.82763e-05
8.59393e-05
8.01226e-05
7.3329e-05
7.28691e-05
7.82747e-05
8.56429e-05
9.1496e-05
9.43129e-05
9.44775e-05
9.45263e-05
8.07282e-05
7.15647e-05
7.09693e-05
7.72259e-05
8.49749e-05
9.01379e-05
9.19388e-05
0.000111068
9.26628e-05
7.70929e-05
6.7681e-05
6.83965e-05
7.59074e-05
8.35441e-05
8.77323e-05
0.00012087
0.000102031
8.34317e-05
6.88189e-05
6.37637e-05
6.86882e-05
7.72152e-05
8.33377e-05
0.000118361
9.91773e-05
8.09287e-05
6.74637e-05
6.46133e-05
7.1068e-05
7.97408e-05
8.54435e-05
0.00010617
8.80047e-05
7.40602e-05
6.74623e-05
7.03343e-05
7.82085e-05
8.53305e-05
8.92078e-05
8.92036e-05
7.69809e-05
7.00766e-05
7.1222e-05
7.77741e-05
8.50977e-05
9.01092e-05
9.22507e-05
6.07313e-05
4.80451e-05
4.43225e-05
4.91868e-05
5.8962e-05
6.8653e-05
7.41337e-05
7.44555e-05
8.27655e-05
6.1047e-05
4.65412e-05
4.31286e-05
4.95474e-05
6.03937e-05
6.89529e-05
7.16499e-05
0.00010668
7.90717e-05
5.65978e-05
4.32202e-05
4.20192e-05
5.03894e-05
6.08755e-05
6.65516e-05
0.000121335
9.13455e-05
6.54279e-05
4.63517e-05
3.89495e-05
4.34469e-05
5.38335e-05
6.17801e-05
0.000117542
8.69576e-05
6.11247e-05
4.33391e-05
3.85386e-05
4.51743e-05
5.61952e-05
6.36118e-05
9.86661e-05
7.12534e-05
5.07198e-05
4.07883e-05
4.26146e-05
5.22044e-05
6.24132e-05
6.77325e-05
7.3219e-05
5.38926e-05
4.31924e-05
4.27775e-05
5.00028e-05
6.00349e-05
6.77681e-05
7.06718e-05
5.12666e-05
3.55753e-05
2.95746e-05
3.11748e-05
3.65297e-05
4.05703e-05
3.68782e-05
2.32058e-05
7.85528e-05
5.17641e-05
3.44045e-05
2.84683e-05
3.06517e-05
3.54838e-05
3.50812e-05
2.29854e-05
0.000106935
7.41035e-05
4.75003e-05
3.19815e-05
2.78167e-05
3.02193e-05
3.15457e-05
2.19303e-05
0.00012365
8.79345e-05
5.82228e-05
3.71856e-05
2.79668e-05
2.70684e-05
2.80622e-05
2.05604e-05
0.000117956
8.15115e-05
5.17358e-05
3.27004e-05
2.61323e-05
2.73355e-05
2.89525e-05
2.08726e-05
9.4517e-05
6.23435e-05
3.8639e-05
2.74162e-05
2.6421e-05
3.01943e-05
3.13027e-05
2.16425e-05
6.37613e-05
4.10001e-05
2.89182e-05
2.67273e-05
3.01029e-05
3.43656e-05
3.31853e-05
2.19617e-05
2.94928e-05
3.32446e-05
3.78628e-05
4.26027e-05
3.83248e-05
3.28141e-05
2.92891e-05
8.19222e-05
8.03631e-05
7.96112e-05
7.76076e-05
7.96349e-05
8.0655e-05
8.17218e-05
9.28968e-05
9.13891e-05
8.94432e-05
8.79763e-05
8.9869e-05
9.19046e-05
9.33349e-05
7.77951e-05
7.7229e-05
7.56876e-05
7.48544e-05
7.67131e-05
7.82437e-05
7.88175e-05
3.66588e-05
3.63629e-05
3.61389e-05
3.6069e-05
3.61002e-05
3.61926e-05
3.64156e-05
2.9738e-05
3.68414e-05
4.31722e-05
4.67837e-05
4.34881e-05
3.72806e-05
3.02653e-05
8.27266e-05
8.34159e-05
8.29225e-05
8.26909e-05
8.33095e-05
8.35876e-05
8.29822e-05
9.29312e-05
9.10313e-05
8.75589e-05
8.24828e-05
8.61024e-05
8.96948e-05
9.14893e-05
7.7157e-05
7.54851e-05
7.20759e-05
6.73578e-05
7.0092e-05
7.35136e-05
7.51132e-05
3.72912e-05
3.70828e-05
3.71155e-05
3.70971e-05
3.71063e-05
3.71249e-05
3.73122e-05
3.06309e-05
3.79894e-05
4.38817e-05
4.7316e-05
4.47078e-05
3.88364e-05
3.10181e-05
8.39469e-05
8.56263e-05
8.61852e-05
8.76081e-05
8.70889e-05
8.60836e-05
8.43915e-05
9.16363e-05
8.95544e-05
8.67956e-05
8.43564e-05
8.83862e-05
9.15959e-05
9.34565e-05
7.49731e-05
7.27403e-05
6.94321e-05
6.80335e-05
7.15268e-05
7.54497e-05
7.75743e-05
3.73077e-05
3.70885e-05
3.69893e-05
3.72948e-05
3.69463e-05
3.68067e-05
3.67887e-05
2.98481e-05
3.5921e-05
4.24153e-05
4.70367e-05
4.39384e-05
3.73099e-05
2.99918e-05
8.31113e-05
8.39751e-05
8.51496e-05
8.7441e-05
8.51061e-05
8.34794e-05
8.29408e-05
9.38228e-05
9.2435e-05
8.97861e-05
8.6771e-05
8.85701e-05
9.11656e-05
9.30609e-05
7.87885e-05
7.75458e-05
7.48135e-05
7.23223e-05
7.33276e-05
7.57335e-05
7.72582e-05
3.65219e-05
3.65453e-05
3.67672e-05
3.7124e-05
3.69493e-05
3.70776e-05
3.73012e-05
2.84901e-05
2.77352e-05
2.73153e-05
2.708e-05
2.69497e-05
2.68542e-05
2.67499e-05
2.65988e-05
2.98515e-05
2.79322e-05
2.73242e-05
2.70014e-05
2.68431e-05
2.67544e-05
2.66704e-05
2.65424e-05
3.41997e-05
3.07505e-05
2.86524e-05
2.75902e-05
2.70372e-05
2.68079e-05
2.66877e-05
2.65518e-05
4.00099e-05
3.67506e-05
3.39427e-05
3.12364e-05
2.8776e-05
2.73408e-05
2.6822e-05
2.65935e-05
3.48918e-05
3.15903e-05
2.91602e-05
2.77406e-05
2.70722e-05
2.68161e-05
2.66871e-05
2.65486e-05
2.98767e-05
2.80598e-05
2.74287e-05
2.70517e-05
2.68681e-05
2.67685e-05
2.66783e-05
2.65465e-05
2.84224e-05
2.77251e-05
2.7315e-05
2.70819e-05
2.69426e-05
2.68372e-05
2.67285e-05
2.65787e-05
7.71638e-05
7.33115e-05
7.1464e-05
7.05801e-05
7.00755e-05
6.95744e-05
6.87339e-05
6.71603e-05
7.50892e-05
7.08549e-05
6.92874e-05
6.90469e-05
6.91169e-05
6.90148e-05
6.84411e-05
6.70443e-05
7.43795e-05
6.91448e-05
6.66154e-05
6.67833e-05
6.76201e-05
6.81567e-05
6.79793e-05
6.68137e-05
7.23246e-05
6.6506e-05
6.26107e-05
6.19372e-05
6.33631e-05
6.50158e-05
6.59056e-05
6.55655e-05
7.41749e-05
6.87002e-05
6.60029e-05
6.62977e-05
6.72899e-05
6.79525e-05
6.78808e-05
6.67744e-05
7.53732e-05
7.12502e-05
6.96163e-05
6.92751e-05
6.92679e-05
6.91224e-05
6.85205e-05
6.71035e-05
7.71415e-05
7.34976e-05
7.16954e-05
7.07948e-05
7.02642e-05
6.9738e-05
6.8878e-05
6.72927e-05
9.08685e-05
8.74315e-05
8.54095e-05
8.43141e-05
8.35638e-05
8.27102e-05
8.13354e-05
7.89505e-05
8.99045e-05
8.66739e-05
8.48017e-05
8.38763e-05
8.32781e-05
8.25439e-05
8.12595e-05
7.89384e-05
8.89156e-05
8.60981e-05
8.43422e-05
8.35057e-05
8.30057e-05
8.23686e-05
8.1165e-05
7.89038e-05
8.7912e-05
8.53305e-05
8.36998e-05
8.27687e-05
8.2358e-05
8.18963e-05
8.08701e-05
7.87519e-05
8.89673e-05
8.60892e-05
8.43313e-05
8.349e-05
8.2987e-05
8.23547e-05
8.11587e-05
7.89029e-05
8.99791e-05
8.67014e-05
8.48447e-05
8.39226e-05
8.33212e-05
8.25833e-05
8.12951e-05
7.89712e-05
9.08953e-05
8.74382e-05
8.54406e-05
8.43602e-05
8.36175e-05
8.27642e-05
8.13866e-05
7.8998e-05
8.1808e-05
8.38333e-05
8.51406e-05
8.57739e-05
8.59366e-05
8.55234e-05
8.42669e-05
8.17543e-05
8.17682e-05
8.37444e-05
8.49979e-05
8.56409e-05
8.58452e-05
8.5476e-05
8.42588e-05
8.17763e-05
8.14492e-05
8.37507e-05
8.4986e-05
8.55852e-05
8.57855e-05
8.54329e-05
8.42374e-05
8.17744e-05
8.1382e-05
8.39761e-05
8.51326e-05
8.56093e-05
8.57485e-05
8.53874e-05
8.42076e-05
8.17669e-05
8.17311e-05
8.38147e-05
8.4985e-05
8.55737e-05
8.5778e-05
8.54318e-05
8.42414e-05
8.17822e-05
8.19662e-05
8.37385e-05
8.49678e-05
8.56265e-05
8.58428e-05
8.54783e-05
8.4261e-05
8.17773e-05
8.20349e-05
8.38046e-05
8.50803e-05
8.57402e-05
8.59274e-05
8.55273e-05
8.42783e-05
8.17717e-05
5.15358e-05
6.10026e-05
7.27721e-05
8.01013e-05
8.35375e-05
8.47149e-05
8.42344e-05
8.20643e-05
5.15562e-05
6.08513e-05
7.26133e-05
8.00119e-05
8.34906e-05
8.4693e-05
8.42315e-05
8.20768e-05
5.16066e-05
6.0794e-05
7.25538e-05
7.99846e-05
8.34752e-05
8.46854e-05
8.42334e-05
8.20891e-05
5.17002e-05
6.09077e-05
7.2627e-05
8.00038e-05
8.34694e-05
8.46732e-05
8.42244e-05
8.20871e-05
5.15513e-05
6.08292e-05
7.25946e-05
7.99816e-05
8.34645e-05
8.46771e-05
8.42271e-05
8.20845e-05
5.14138e-05
6.08186e-05
7.26256e-05
7.99939e-05
8.34727e-05
8.4683e-05
8.42277e-05
8.20787e-05
5.13684e-05
6.09093e-05
7.27334e-05
8.00523e-05
8.35019e-05
8.46943e-05
8.42243e-05
8.2063e-05
2.86711e-05
2.78456e-05
2.74229e-05
2.71568e-05
2.69711e-05
2.6833e-05
2.67093e-05
2.65549e-05
3.27882e-05
2.9749e-05
2.83556e-05
2.78269e-05
2.74596e-05
2.71496e-05
2.69077e-05
2.66719e-05
4.03719e-05
3.83607e-05
3.70389e-05
3.51634e-05
3.2123e-05
2.95987e-05
2.84547e-05
2.76218e-05
4.48933e-05
4.40622e-05
4.3029e-05
4.35168e-05
4.44732e-05
4.564e-05
4.52777e-05
3.9342e-05
4.07279e-05
3.8869e-05
3.81194e-05
3.70255e-05
3.40566e-05
3.05411e-05
2.85797e-05
2.76505e-05
3.33306e-05
3.02522e-05
2.86696e-05
2.80024e-05
2.75982e-05
2.72319e-05
2.69492e-05
2.66926e-05
2.89461e-05
2.7992e-05
2.75119e-05
2.72152e-05
2.7015e-05
2.68655e-05
2.67347e-05
2.65752e-05
7.82253e-05
7.42461e-05
7.21929e-05
7.09765e-05
7.01816e-05
6.94544e-05
6.84782e-05
6.68659e-05
7.8529e-05
7.32297e-05
7.05313e-05
6.931e-05
6.84829e-05
6.78657e-05
6.7138e-05
6.58184e-05
7.88083e-05
7.21747e-05
6.69914e-05
6.42229e-05
6.3663e-05
6.44238e-05
6.50704e-05
6.45959e-05
7.99992e-05
7.43823e-05
6.94746e-05
6.61315e-05
6.3838e-05
6.27941e-05
6.24224e-05
6.20002e-05
7.95762e-05
7.27149e-05
6.68689e-05
6.3664e-05
6.29781e-05
6.38126e-05
6.46022e-05
6.43056e-05
7.87835e-05
7.33148e-05
7.04522e-05
6.93508e-05
6.85197e-05
6.78451e-05
6.70854e-05
6.57488e-05
7.82647e-05
7.40266e-05
7.19869e-05
7.08852e-05
7.0125e-05
6.94142e-05
6.84436e-05
6.68249e-05
9.20752e-05
8.87305e-05
8.63749e-05
8.49305e-05
8.39018e-05
8.28561e-05
8.13652e-05
7.89224e-05
9.15969e-05
8.87602e-05
8.64301e-05
8.49396e-05
8.38578e-05
8.27596e-05
8.12116e-05
7.87722e-05
9.01431e-05
8.81767e-05
8.59655e-05
8.44117e-05
8.31535e-05
8.21259e-05
8.07734e-05
7.84972e-05
8.71353e-05
8.58084e-05
8.31737e-05
8.03603e-05
7.86705e-05
7.87433e-05
7.84774e-05
7.70872e-05
8.95571e-05
8.78576e-05
8.56443e-05
8.40437e-05
8.27826e-05
8.18691e-05
8.06183e-05
7.84074e-05
9.10706e-05
8.85357e-05
8.6326e-05
8.48984e-05
8.38377e-05
8.27454e-05
8.11877e-05
7.87418e-05
9.14384e-05
8.84081e-05
8.6196e-05
8.48314e-05
8.38388e-05
8.2806e-05
8.13188e-05
7.88803e-05
8.27238e-05
8.49393e-05
8.58631e-05
8.61585e-05
8.61234e-05
8.55986e-05
8.42823e-05
8.1743e-05
8.2713e-05
8.54583e-05
8.62614e-05
8.6367e-05
8.62069e-05
8.56163e-05
8.42712e-05
8.1725e-05
8.20479e-05
8.61823e-05
8.69689e-05
8.67681e-05
8.63783e-05
8.56736e-05
8.42849e-05
8.17385e-05
8.06158e-05
8.64682e-05
8.74864e-05
8.71181e-05
8.64286e-05
8.55339e-05
8.41265e-05
8.16308e-05
8.14373e-05
8.61708e-05
8.70769e-05
8.6837e-05
8.64034e-05
8.56676e-05
8.42721e-05
8.17275e-05
8.20354e-05
8.53503e-05
8.63058e-05
8.64123e-05
8.62299e-05
8.56209e-05
8.42674e-05
8.17197e-05
8.1934e-05
8.47418e-05
8.58579e-05
8.61813e-05
8.61375e-05
8.5598e-05
8.427e-05
8.17238e-05
5.24774e-05
6.16858e-05
7.31992e-05
8.03131e-05
8.36228e-05
8.47384e-05
8.42256e-05
8.20367e-05
5.27971e-05
6.19231e-05
7.33433e-05
8.03968e-05
8.36579e-05
8.47465e-05
8.42231e-05
8.20343e-05
5.32929e-05
6.24227e-05
7.36732e-05
8.05707e-05
8.37287e-05
8.47704e-05
8.42284e-05
8.20334e-05
5.37471e-05
6.28705e-05
7.40335e-05
8.0813e-05
8.38454e-05
8.48083e-05
8.42321e-05
8.20298e-05
5.33813e-05
6.24594e-05
7.3686e-05
8.06032e-05
8.37472e-05
8.47755e-05
8.42284e-05
8.20334e-05
5.28547e-05
6.19768e-05
7.33626e-05
8.04398e-05
8.36876e-05
8.47586e-05
8.42251e-05
8.20319e-05
5.24597e-05
6.17437e-05
7.32315e-05
8.03707e-05
8.36666e-05
8.47589e-05
8.42305e-05
8.20344e-05
2.91514e-05
2.81124e-05
2.7551e-05
2.72055e-05
2.70254e-05
2.68984e-05
2.67691e-05
2.66013e-05
3.47109e-05
3.15773e-05
2.92679e-05
2.80264e-05
2.75048e-05
2.72271e-05
2.70021e-05
2.677e-05
4.14265e-05
3.9448e-05
3.76732e-05
3.53971e-05
3.26155e-05
3.01562e-05
2.86254e-05
2.80057e-05
4.54616e-05
4.4109e-05
4.32418e-05
4.2475e-05
4.16899e-05
4.10688e-05
4.13001e-05
4.08626e-05
4.23258e-05
4.0447e-05
3.88484e-05
3.68575e-05
3.40436e-05
3.1076e-05
2.89649e-05
2.80673e-05
3.5682e-05
3.289e-05
3.03988e-05
2.84518e-05
2.7493e-05
2.71734e-05
2.69793e-05
2.67757e-05
2.938e-05
2.81889e-05
2.76398e-05
2.72232e-05
2.7003e-05
2.68867e-05
2.67796e-05
2.66298e-05
7.90641e-05
7.42667e-05
7.19374e-05
7.08204e-05
7.01244e-05
6.94592e-05
6.85013e-05
6.68655e-05
8.07832e-05
7.46497e-05
7.12472e-05
6.98671e-05
6.92355e-05
6.86448e-05
6.77029e-05
6.60345e-05
8.24557e-05
7.61422e-05
7.17064e-05
6.96917e-05
6.87453e-05
6.79223e-05
6.73211e-05
6.59736e-05
8.47246e-05
7.83005e-05
7.3105e-05
7.0781e-05
6.99442e-05
6.81357e-05
6.54287e-05
6.21969e-05
8.25791e-05
7.60695e-05
7.14073e-05
6.91598e-05
6.7899e-05
6.71172e-05
6.67687e-05
6.5698e-05
8.05545e-05
7.4228e-05
7.0849e-05
6.95217e-05
6.89227e-05
6.8366e-05
6.74835e-05
6.58907e-05
7.90289e-05
7.40461e-05
7.17125e-05
7.06172e-05
6.99725e-05
6.93821e-05
6.84877e-05
6.68962e-05
9.15889e-05
8.84631e-05
8.61905e-05
8.48039e-05
8.38097e-05
8.27788e-05
8.1288e-05
7.88401e-05
9.1083e-05
8.84632e-05
8.61958e-05
8.48018e-05
8.37999e-05
8.27395e-05
8.1201e-05
7.87053e-05
9.01245e-05
8.7871e-05
8.54445e-05
8.41146e-05
8.32782e-05
8.23926e-05
8.10642e-05
7.87979e-05
8.798e-05
8.46362e-05
8.09542e-05
7.90898e-05
7.76042e-05
7.63546e-05
7.48568e-05
7.30095e-05
9.03493e-05
8.77316e-05
8.52412e-05
8.39197e-05
8.312e-05
8.22605e-05
8.09643e-05
7.87336e-05
9.14422e-05
8.83815e-05
8.6086e-05
8.47019e-05
8.37115e-05
8.2669e-05
8.11574e-05
7.86916e-05
9.168e-05
8.81571e-05
8.59355e-05
8.46358e-05
8.3712e-05
8.27363e-05
8.12864e-05
7.88641e-05
8.17969e-05
8.46739e-05
8.58472e-05
8.6192e-05
8.61503e-05
8.56048e-05
8.42675e-05
8.17115e-05
8.14003e-05
8.51666e-05
8.63779e-05
8.65693e-05
8.63843e-05
8.57297e-05
8.43074e-05
8.16893e-05
8.04978e-05
8.54407e-05
8.67244e-05
8.67892e-05
8.65408e-05
8.58914e-05
8.45012e-05
8.19081e-05
8.06533e-05
8.63528e-05
8.72115e-05
8.68236e-05
8.59949e-05
8.50076e-05
8.34238e-05
8.08945e-05
8.09898e-05
8.54657e-05
8.66724e-05
8.6743e-05
8.65019e-05
8.58609e-05
8.44822e-05
8.19016e-05
8.19279e-05
8.50537e-05
8.62264e-05
8.64669e-05
8.63222e-05
8.56957e-05
8.42952e-05
8.16942e-05
8.20418e-05
8.42752e-05
8.55123e-05
8.60048e-05
8.60575e-05
8.55664e-05
8.42613e-05
8.1724e-05
5.24331e-05
6.17897e-05
7.32916e-05
8.04133e-05
8.36929e-05
8.47729e-05
8.42343e-05
8.20294e-05
5.27984e-05
6.22544e-05
7.36867e-05
8.06666e-05
8.38305e-05
8.48313e-05
8.42357e-05
8.19891e-05
5.31052e-05
6.26415e-05
7.40054e-05
8.08955e-05
8.39861e-05
8.49515e-05
8.43433e-05
8.20906e-05
5.42765e-05
6.39339e-05
7.50449e-05
8.14955e-05
8.42935e-05
8.50789e-05
8.43348e-05
8.19985e-05
5.30184e-05
6.26624e-05
7.40529e-05
8.08985e-05
8.39786e-05
8.4947e-05
8.43439e-05
8.20961e-05
5.23831e-05
6.20512e-05
7.35929e-05
8.05907e-05
8.37847e-05
8.48112e-05
8.42333e-05
8.19983e-05
5.1814e-05
6.13852e-05
7.30775e-05
8.0277e-05
8.36238e-05
8.47464e-05
8.42323e-05
8.20416e-05
2.87322e-05
2.788e-05
2.74391e-05
2.71584e-05
2.69825e-05
2.68584e-05
2.67425e-05
2.65924e-05
3.28156e-05
3.00654e-05
2.85708e-05
2.7813e-05
2.73886e-05
2.71309e-05
2.69486e-05
2.6737e-05
4.02162e-05
3.84186e-05
3.68612e-05
3.47463e-05
3.19496e-05
2.97317e-05
2.85625e-05
2.80309e-05
4.50814e-05
4.36902e-05
4.2897e-05
4.26823e-05
4.20247e-05
4.19819e-05
4.26809e-05
4.24782e-05
4.15266e-05
3.95884e-05
3.80271e-05
3.60264e-05
3.30825e-05
3.02048e-05
2.85316e-05
2.78552e-05
3.40732e-05
3.09131e-05
2.88072e-05
2.78182e-05
2.73708e-05
2.71059e-05
2.69145e-05
2.6709e-05
2.88354e-05
2.79349e-05
2.746e-05
2.71581e-05
2.69671e-05
2.68322e-05
2.67099e-05
2.65562e-05
7.81913e-05
7.41638e-05
7.21667e-05
7.10683e-05
7.03346e-05
6.96639e-05
6.87205e-05
6.70991e-05
7.86169e-05
7.33853e-05
7.08273e-05
6.9732e-05
6.90617e-05
6.8387e-05
6.74418e-05
6.59254e-05
7.99017e-05
7.34072e-05
6.89651e-05
6.67388e-05
6.56717e-05
6.57042e-05
6.58457e-05
6.51529e-05
8.30296e-05
7.6359e-05
7.13591e-05
6.96172e-05
6.84487e-05
6.60426e-05
6.31622e-05
6.07358e-05
8.01268e-05
7.35106e-05
6.88756e-05
6.62188e-05
6.48146e-05
6.51315e-05
6.54922e-05
6.49687e-05
7.83413e-05
7.30917e-05
7.05564e-05
6.94989e-05
6.8806e-05
6.81104e-05
6.71858e-05
6.57082e-05
7.8381e-05
7.43486e-05
7.23144e-05