/*--------------------------------*- C++ -*----------------------------------*\
| =========                 |                                                 |
| \\      /  F ield         | OpenFOAM: The Open Source CFD Toolbox           |
|  \\    /   O peration     | Version:  plus.master                           |
|   \\  /    A nd           | Web:      www.OpenFOAM.com                      |
|    \\/     M anipulation  |                                                 |
\*---------------------------------------------------------------------------*/
FoamFile
{
    version     2.0;
    format      ascii;
    class       volVectorField;
    location    "1.6";
    object      U;
}
// * * * * * * * * * * * * * * * * * * * * * * * * * * * * * * * * * * * * * //

dimensions      [0 1 -1 0 0 0 0];

internalField   nonuniform List<vector> 
47285
(
(0.026252 0.0383282 -0.00435282)
(0.0158458 0.0399251 0.00432567)
(0.00475808 0.0435059 0.0299468)
(-0.0230529 0.0510836 0.0465375)
(-0.037409 0.039988 0.00984852)
(-0.0406475 0.0277761 -0.00356256)
(-0.0517963 0.0239638 -0.00710928)
(0.0312224 0.0258953 0.00313257)
(0.0347438 0.0423399 0.0539318)
(0.0172576 0.05624 0.111908)
(-0.038348 0.0598053 0.123955)
(-0.0599924 0.0447461 0.0688212)
(-0.0414909 0.0163326 0.0268345)
(-0.02091 0.00121435 -0.00554489)
(0.0289301 0.0122836 0.0164705)
(0.0463248 0.0271797 0.10805)
(0.0434349 0.0606107 0.315222)
(-0.0541892 0.0700266 0.408911)
(-0.0838239 0.0449697 0.132408)
(-0.049734 0.00930289 0.0353933)
(-0.0395416 -0.00886024 -0.00782741)
(0.0312315 -0.0157797 0.0230538)
(0.0494228 -0.0336062 0.133824)
(0.0454196 -0.0375677 0.515127)
(-0.109551 -0.0548118 0.63215)
(-0.0974297 -0.0244915 0.162536)
(-0.0504392 -0.0122788 0.045462)
(-0.0408075 -0.00476331 0.0004593)
(0.0283835 -0.0342436 0.00955095)
(0.0379342 -0.070907 0.0886032)
(0.0303953 -0.0864576 0.191005)
(-0.0434888 -0.0874096 0.20474)
(-0.0822704 -0.0773991 0.119063)
(-0.0547794 -0.0279444 0.0300244)
(-0.0395682 -0.00122538 -0.0103273)
(0.0185181 -0.0423525 0.00204168)
(0.00936497 -0.06106 0.033085)
(-0.0034199 -0.0567306 0.0518991)
(-0.0259305 -0.052769 0.0527984)
(-0.0399517 -0.0526682 0.0404246)
(-0.0355077 -0.0302964 0.028492)
(-0.0210692 -0.00692271 -0.00724238)
(0.0198782 -0.0478773 -0.00403206)
(0.00417722 -0.0473877 0.000898967)
(-0.0068202 -0.0432831 0.0046193)
(-0.0150219 -0.0413369 0.00275769)
(-0.0209001 -0.0403474 -0.00334327)
(-0.0196703 -0.0357202 -0.00601391)
(-0.0216036 -0.0323204 -0.0103569)
(0.0172273 0.0221633 0.00925102)
(0.00844458 0.0177125 0.0625503)
(-0.00571873 0.014718 0.117765)
(-0.0224692 0.0183671 0.127771)
(-0.0304864 0.0140878 0.0670098)
(-0.0339423 0.017533 0.0170815)
(-0.0363094 0.0200171 -0.0149905)
(0.010855 0.0169885 0.0548705)
(0.00522203 0.0145142 0.155602)
(-0.00989161 0.0138092 0.259379)
(-0.028073 0.0107231 0.253397)
(-0.03183 0.00467904 0.150589)
(-0.0302705 0.010212 0.0657416)
(-0.0341139 0.0143639 0.00248447)
(0.0026879 0.00479927 0.106702)
(0.000806616 0.000323067 0.27509)
(-0.0174235 -0.00329962 0.606971)
(-0.0262345 -0.00881715 0.594529)
(-0.031428 -0.00138755 0.240114)
(-0.0220166 0.00247773 0.105497)
(-0.0298955 0.00614369 0.0271745)
(-0.00174872 -0.0128174 0.120259)
(-0.00688156 -0.024699 0.311571)
(-0.0302295 -0.0266434 0.808254)
(-0.0263677 -0.01507 0.817832)
(-0.0317732 -0.0147619 0.269762)
(-0.0199797 -0.00882099 0.115111)
(-0.0293682 -0.00331823 0.0391651)
(0.00772042 -0.0228011 0.0764638)
(-0.000716967 -0.0338939 0.191236)
(-0.0125701 -0.0351183 0.319579)
(-0.029486 -0.0241987 0.319848)
(-0.0336021 -0.0233449 0.185446)
(-0.0286875 -0.0175381 0.0801126)
(-0.0327614 -0.0126377 0.0177573)
(0.0165119 -0.0273455 0.0293148)
(0.00521061 -0.0292359 0.0906559)
(-0.00978929 -0.0202777 0.134443)
(-0.0227535 -0.015228 0.128956)
(-0.0302624 -0.0218921 0.0878018)
(-0.0331101 -0.0222271 0.0435178)
(-0.0354561 -0.0202435 -0.00525958)
(0.022158 -0.0288057 -0.00155389)
(0.0124788 -0.0291602 0.0275726)
(-0.0019671 -0.0256276 0.0529785)
(-0.0160355 -0.0236109 0.0502183)
(-0.0265385 -0.0255425 0.0244167)
(-0.0331732 -0.0256287 -0.00321807)
(-0.0361994 -0.0244922 -0.0217379)
(0.0141674 0.0212398 0.0645456)
(0.00475882 0.0175104 0.127241)
(-0.00603394 0.0132735 0.186134)
(-0.0149442 0.0162238 0.189533)
(-0.0190136 0.0197259 0.123689)
(-0.0238245 0.0262156 0.06702)
(-0.029134 0.0280769 0.0270063)
(0.00842632 0.0143368 0.124422)
(-0.000394803 0.0113121 0.230517)
(-0.011845 0.00999914 0.348554)
(-0.0198221 0.00768951 0.33192)
(-0.0219756 0.00692461 0.205702)
(-0.0253604 0.0164483 0.113243)
(-0.0309281 0.0207404 0.054522)
(0.000442943 0.00388213 0.187052)
(-0.00490391 -0.00197927 0.373599)
(-0.0179575 -0.0110842 0.719529)
(-0.0122277 -0.0134708 0.627586)
(-0.0189143 -0.00405743 0.296837)
(-0.0209196 0.00563148 0.160838)
(-0.0298625 0.0108928 0.0809034)
(-0.00245255 -0.00685635 0.199496)
(-0.0127841 -0.0166589 0.400224)
(-0.0257328 -0.0181373 0.805038)
(-0.00613879 -0.010673 0.736888)
(-0.0175421 -0.00880235 0.318388)
(-0.0201798 -0.0033322 0.171132)
(-0.0305043 0.00132071 0.0901386)
(0.00944138 -0.0134686 0.146588)
(-0.00294371 -0.0230818 0.253554)
(-0.0154046 -0.0256899 0.369797)
(-0.0219697 -0.0173221 0.357974)
(-0.0259863 -0.0146788 0.227333)
(-0.0298563 -0.012995 0.13042)
(-0.0356065 -0.00955683 0.0704623)
(0.0204394 -0.0205705 0.088673)
(0.00868617 -0.0246199 0.146238)
(-0.00626779 -0.0216601 0.196024)
(-0.0175102 -0.0190568 0.187802)
(-0.025375 -0.0232729 0.136186)
(-0.0323647 -0.0234745 0.084088)
(-0.0372274 -0.0205471 0.0434067)
(0.0255581 -0.0266372 0.0456767)
(0.0158069 -0.0291314 0.0805999)
(0.00243931 -0.0285715 0.10856)
(-0.010462 -0.0285879 0.106606)
(-0.0206808 -0.0311952 0.078981)
(-0.029461 -0.0310291 0.0467202)
(-0.0350368 -0.0282724 0.0181528)
(0.0228999 0.028787 0.107644)
(0.011696 0.0270607 0.184345)
(-0.00128487 0.0245261 0.246478)
(-0.0117495 0.0277428 0.242427)
(-0.0191876 0.0329391 0.177102)
(-0.0277624 0.0371342 0.110819)
(-0.0343957 0.0362548 0.0537661)
(0.01691 0.0204494 0.186981)
(0.00606767 0.0200325 0.301209)
(-0.00698951 0.0211182 0.417262)
(-0.0185101 0.0204659 0.394738)
(-0.0242528 0.0199722 0.267453)
(-0.0306347 0.0265809 0.170514)
(-0.0368316 0.0281387 0.0993826)
(0.0106779 0.00839572 0.261295)
(0.00421569 0.00639033 0.452493)
(-0.00797565 0.00336046 0.776375)
(-0.0156271 0.00284926 0.648242)
(-0.0230984 0.00507117 0.358175)
(-0.0295485 0.01218 0.225546)
(-0.0372334 0.014979 0.137781)
(0.0100673 -0.0047708 0.274237)
(0.00048939 -0.0138859 0.473927)
(-0.0120058 -0.0174269 0.780818)
(-0.013549 -0.0122597 0.667694)
(-0.0242591 -0.00688563 0.37325)
(-0.0305915 -0.00203889 0.238718)
(-0.0387042 0.000746802 0.1499)
(0.01923 -0.01511 0.2157)
(0.00594386 -0.0246642 0.323193)
(-0.00940877 -0.0292356 0.424965)
(-0.0212528 -0.0254292 0.40664)
(-0.0293102 -0.0190963 0.289883)
(-0.0363518 -0.0170577 0.195805)
(-0.041724 -0.0143625 0.125454)
(0.0280397 -0.025356 0.146157)
(0.0161808 -0.0302741 0.212472)
(-0.00057136 -0.0314409 0.266087)
(-0.0161438 -0.0311005 0.257433)
(-0.0272946 -0.0321386 0.201591)
(-0.0360832 -0.0309735 0.14155)
(-0.0412676 -0.0276487 0.086269)
(0.0320199 -0.0331364 0.0849537)
(0.0219214 -0.0363598 0.134943)
(0.00700333 -0.0379909 0.170607)
(-0.00886509 -0.0396817 0.169423)
(-0.0217417 -0.0410609 0.13557)
(-0.0320256 -0.0396276 0.0906018)
(-0.0375661 -0.0355502 0.0442655)
(0.0352244 0.0378761 0.165971)
(0.0203356 0.0392951 0.260538)
(0.00314354 0.0413346 0.325674)
(-0.0114171 0.045525 0.317041)
(-0.023448 0.0486928 0.250685)
(-0.0364848 0.0490475 0.171624)
(-0.0457917 0.0462851 0.0888631)
(0.0292363 0.0260742 0.269429)
(0.0157728 0.0302249 0.390832)
(-0.00180526 0.034332 0.506532)
(-0.0211267 0.0360479 0.481229)
(-0.0312202 0.0342824 0.351921)
(-0.0404142 0.035431 0.251491)
(-0.0478841 0.0339909 0.164125)
(0.0258512 0.0106768 0.353689)
(0.0169265 0.0148301 0.564697)
(0.00720323 0.0258395 0.922092)
(-0.0284223 0.0250791 0.790532)
(-0.0337078 0.0147777 0.45247)
(-0.0434557 0.0163385 0.315773)
(-0.0497247 0.0158865 0.218118)
(0.0272231 -0.00609664 0.366946)
(0.0183483 -0.0161789 0.597375)
(0.00696751 -0.0252751 0.93164)
(-0.0286841 -0.0214077 0.81241)
(-0.0367566 -0.00905256 0.468869)
(-0.0461569 -0.00379069 0.33039)
(-0.0519013 -0.00215466 0.230501)
(0.0329215 -0.0199374 0.300882)
(0.0185049 -0.0312852 0.416914)
(-0.00192578 -0.0380548 0.523874)
(-0.0246031 -0.0372606 0.502315)
(-0.037772 -0.0296561 0.381039)
(-0.0466192 -0.0240211 0.284503)
(-0.0522602 -0.0205765 0.198067)
(0.0375607 -0.0337065 0.217144)
(0.0239463 -0.040432 0.295659)
(0.00435296 -0.0461923 0.355442)
(-0.0160079 -0.047864 0.347719)
(-0.0307462 -0.0452885 0.287285)
(-0.0421338 -0.0417067 0.218714)
(-0.0493611 -0.0376964 0.140543)
(0.040431 -0.0435633 0.129165)
(0.0277658 -0.0475582 0.202138)
(0.0102568 -0.0515808 0.247357)
(-0.00748907 -0.0549594 0.247283)
(-0.0234515 -0.0553896 0.206712)
(-0.0370911 -0.0525432 0.144386)
(-0.0452231 -0.0477452 0.0701656)
(-0.0319761 0.0017408 -0.00346373)
(-0.0366332 -0.00382139 -0.00300198)
(-0.0265464 -0.00189062 -0.00286211)
(-0.0214663 6.59087e-05 -0.0026169)
(-0.015529 0.00425928 -0.00192296)
(-0.0126635 0.00589841 -0.00142263)
(-0.0115352 0.00691368 -0.000907038)
(-0.0114796 0.00667532 -0.000350311)
(0.000931265 -0.00868924 -0.00270368)
(-0.00661498 -0.00701566 -0.00306264)
(-0.0100751 -0.00155065 -0.00391414)
(-0.00904359 -7.43821e-05 -0.0040769)
(-0.00462956 0.00289445 -0.00324043)
(-0.00246411 0.00278815 -0.00318303)
(0.000667869 0.00233203 -0.00315207)
(0.0034318 0.00343461 -0.00281312)
(-0.0396952 -0.00202029 -0.0201314)
(-0.0345445 0.0141311 -0.0258242)
(-0.0280611 0.00798038 -0.0280365)
(-0.0205123 0.00402551 -0.0274215)
(-0.0120006 0.00572926 -0.022227)
(-0.00366794 0.00376723 -0.0123857)
(0.00203528 0.00193051 -0.00522857)
(0.00672617 0.00310183 -0.00439759)
(-0.0471799 -0.00121268 -0.00852485)
(-0.0400506 0.000767713 -0.0157427)
(-0.0278793 -0.00133489 -0.0224535)
(-0.0166678 -0.00167478 -0.0296931)
(-0.00614172 -0.00175592 -0.0284447)
(0.00739769 -0.00157669 -0.0127367)
(0.0121578 -0.00121673 -0.00518115)
(0.0208347 -0.000479137 -0.00533167)
(-0.0379485 -0.00112039 -0.022466)
(-0.0350263 0.000174988 -0.0281268)
(-0.0265399 -0.0137099 -0.0299651)
(-0.0181075 -0.0130843 -0.0293164)
(-0.00945789 -0.0127063 -0.0243751)
(-0.000950824 -0.00902383 -0.0140765)
(0.00420516 -0.00423225 -0.00472504)
(0.00988187 -0.00382092 -0.00426508)
(-0.00201315 0.0028084 -0.00617239)
(-0.00188513 0.0193417 -0.00173658)
(-0.000918824 0.00161612 -0.00261507)
(-0.00251518 -0.00187466 -0.00289802)
(-0.002338 -0.00520546 -0.00359923)
(-0.000706055 -0.00596964 -0.00348595)
(0.00177435 -0.00681977 -0.00300754)
(0.00418711 -0.00775485 -0.00243017)
(-0.00163471 -0.00370607 -0.00307484)
(-0.00549509 0.0215577 -0.000509138)
(-0.0110623 0.0153775 -0.000761739)
(-0.011282 0.00775257 -0.00062473)
(-0.00991583 -0.000429803 -0.000714913)
(-0.00964996 -0.00559734 -0.000696332)
(-0.00996308 -0.00740973 -0.000407342)
(-0.0113653 -0.00715286 -3.00517e-05)
(-0.0351345 0.0191646 -0.0270575)
(-0.0328765 0.0182347 -0.0286179)
(-0.0300543 0.0165745 -0.0281126)
(-0.0272144 0.0146543 -0.0257364)
(-0.0244638 0.0127466 -0.0225839)
(-0.0219125 0.0109741 -0.019181)
(-0.0196434 0.00940336 -0.0157494)
(-0.0176962 0.00805411 -0.0125431)
(-0.0347687 0.0152299 -0.0229666)
(-0.0330501 0.0154406 -0.0299145)
(-0.0299236 0.0143064 -0.0340192)
(-0.0265841 0.0125825 -0.0346907)
(-0.0233212 0.0106887 -0.0326174)
(-0.0203228 0.00883092 -0.0286031)
(-0.01772 0.00719341 -0.0236343)
(-0.0156023 0.00587909 -0.0177963)
(-0.0324354 0.00767829 -0.00576043)
(-0.0315353 0.00841894 -0.021868)
(-0.0290687 0.00825989 -0.0305316)
(-0.0259079 0.00764126 -0.0353584)
(-0.0226253 0.00666114 -0.0377389)
(-0.0192684 0.00542596 -0.0378796)
(-0.0159438 0.00423601 -0.034752)
(-0.0130595 0.0033283 -0.0286227)
(-0.0320719 -0.000791265 0.0102638)
(-0.0300125 5.38058e-06 -0.00804406)
(-0.0264831 0.00018718 -0.0225183)
(-0.0229202 0.000165349 -0.0344951)
(-0.0196271 9.81162e-05 -0.0407482)
(-0.0159298 1.69501e-05 -0.044968)
(-0.0120054 -6.28648e-05 -0.0425629)
(-0.00845458 -0.000115832 -0.0370954)
(-0.0338736 -0.0100659 -0.00929267)
(-0.0322677 -0.00953071 -0.0235863)
(-0.0292982 -0.00908645 -0.0313618)
(-0.0258735 -0.00835317 -0.0356594)
(-0.0224221 -0.00723966 -0.0376732)
(-0.0190271 -0.0059158 -0.0383342)
(-0.0155776 -0.00463482 -0.0353562)
(-0.0125322 -0.00364475 -0.0292839)
(-0.035584 -0.0181907 -0.0235061)
(-0.0333852 -0.017173 -0.029781)
(-0.0297962 -0.0155281 -0.0328998)
(-0.0262348 -0.0135419 -0.0331655)
(-0.0229662 -0.0115083 -0.0310517)
(-0.0200641 -0.00956788 -0.0272483)
(-0.0175122 -0.00785875 -0.0221267)
(-0.0153651 -0.00647071 -0.016558)
(-0.0351948 -0.0215701 -0.0273514)
(-0.0327948 -0.0193752 -0.0260042)
(-0.0298841 -0.0171335 -0.0242372)
(-0.027023 -0.0150167 -0.022227)
(-0.0242995 -0.0130647 -0.019792)
(-0.0218154 -0.0112941 -0.0170119)
(-0.0196086 -0.00972803 -0.0141263)
(-0.0176855 -0.00839243 -0.0113196)
(-0.0302267 0.0258885 0.00118781)
(-0.0283244 0.0235518 -0.0143542)
(-0.0256408 0.0202222 -0.0239766)
(-0.0225548 0.0169084 -0.0284929)
(-0.0193795 0.0138783 -0.0295703)
(-0.0162453 0.0110993 -0.0286893)
(-0.0132561 0.00855856 -0.0262927)
(-0.0106104 0.00636947 -0.022647)
(-0.0332376 0.0200684 0.0189267)
(-0.0324276 0.0188581 -0.00425507)
(-0.029833 0.0165737 -0.0193786)
(-0.0261272 0.0140272 -0.0272302)
(-0.0221779 0.0116473 -0.0294573)
(-0.018356 0.00947276 -0.0288736)
(-0.0147505 0.00745646 -0.0263557)
(-0.0115415 0.00565051 -0.0222461)
(-0.033621 0.0110163 0.0350926)
(-0.0339904 0.0103012 0.00560163)
(-0.0316382 0.00911619 -0.0152804)
(-0.0277509 0.00794209 -0.0270675)
(-0.0232448 0.00675589 -0.0312407)
(-0.0190428 0.00564804 -0.0307926)
(-0.0152015 0.00460969 -0.0281778)
(-0.0118611 0.00365975 -0.0236693)
(-0.0343753 0.00264789 0.0424934)
(-0.0345522 0.00216509 0.0111426)
(-0.0320325 0.00122223 -0.0116708)
(-0.0278713 0.000550588 -0.0261149)
(-0.0231459 0.000298494 -0.0318295)
(-0.0187834 0.000194994 -0.03193)
(-0.0148951 0.000126913 -0.0294097)
(-0.0116279 6.21628e-05 -0.0247471)
(-0.0372216 -0.00690539 0.0308547)
(-0.0364068 -0.00691499 0.0032922)
(-0.0331186 -0.0073687 -0.0162728)
(-0.0285596 -0.00719871 -0.0276236)
(-0.023777 -0.00643889 -0.0314823)
(-0.0193972 -0.00551005 -0.0312127)
(-0.0154551 -0.00456673 -0.0284889)
(-0.012058 -0.00368545 -0.0238494)
(-0.0378916 -0.0176345 0.0134936)
(-0.0357459 -0.0168931 -0.00724745)
(-0.0320011 -0.0155269 -0.0208009)
(-0.0275835 -0.0136306 -0.0278247)
(-0.0232269 -0.0116092 -0.0298992)
(-0.019122 -0.00960603 -0.0291459)
(-0.0152973 -0.00766513 -0.026472)
(-0.0119187 -0.00589572 -0.0222659)
(-0.0348654 -0.0248649 -0.00373965)
(-0.0320153 -0.0229216 -0.017067)
(-0.0284434 -0.0201369 -0.0252306)
(-0.0246781 -0.0171814 -0.0289517)
(-0.0209979 -0.0143168 -0.0297065)
(-0.0174844 -0.0115974 -0.0285995)
(-0.0142068 -0.00907496 -0.0260664)
(-0.0113354 -0.00689365 -0.0223574)
(-0.034071 0.0306592 0.0100746)
(-0.0301632 0.0257401 -0.0200341)
(-0.0253278 0.020115 -0.0393471)
(-0.0203134 0.0151309 -0.0482382)
(-0.0153074 0.0107917 -0.0514078)
(-0.0103687 0.00678446 -0.0514429)
(-0.00564161 0.00300711 -0.0483794)
(-0.00100183 -0.00067599 -0.0408099)
(-0.0380328 0.0246696 0.0441701)
(-0.0354016 0.0217225 0.00250837)
(-0.0307169 0.0174019 -0.0287403)
(-0.0248363 0.0129704 -0.0459245)
(-0.0188846 0.0091957 -0.0514363)
(-0.0126841 0.00581641 -0.0522924)
(-0.00680588 0.00278632 -0.0495474)
(-0.000969707 -0.000173764 -0.0417223)
(-0.0401497 0.0133709 0.0729896)
(-0.0395497 0.0121214 0.0233328)
(-0.0346184 0.00995879 -0.0161709)
(-0.028294 0.00756387 -0.0409054)
(-0.0211606 0.00528766 -0.05038)
(-0.0142096 0.00334999 -0.0529238)
(-0.00740935 0.00162083 -0.0507284)
(-0.000753516 -5.16475e-05 -0.0428854)
(-0.0417835 0.000245023 0.0834062)
(-0.0411959 -0.00103176 0.032155)
(-0.0367168 -0.00150197 -0.00932061)
(-0.0295844 -0.00101518 -0.0365969)
(-0.0221838 -0.000388785 -0.0488458)
(-0.0149492 -0.000102046 -0.0528121)
(-0.00775804 -2.7538e-07 -0.0510697)
(-0.000809247 1.68474e-05 -0.0433029)
(-0.0425863 -0.0128014 0.0660427)
(-0.0401684 -0.0127457 0.018489)
(-0.0349639 -0.0113748 -0.0194648)
(-0.0279337 -0.00854494 -0.0428913)
(-0.0211438 -0.00589241 -0.0515522)
(-0.0140964 -0.00367575 -0.0534555)
(-0.00740981 -0.00182402 -0.0510205)
(-0.000731931 -0.000103547 -0.043031)
(-0.0405364 -0.0235118 0.0364257)
(-0.0364303 -0.0207507 -0.0027091)
(-0.0308963 -0.0168451 -0.0317793)
(-0.0246678 -0.0127332 -0.0474331)
(-0.0184956 -0.00915012 -0.0524248)
(-0.0124135 -0.00593355 -0.0529988)
(-0.00656415 -0.00293086 -0.0500134)
(-0.00072737 -4.04103e-07 -0.0420147)
(-0.0356289 -0.0294987 0.00413125)
(-0.0308816 -0.02484 -0.0239655)
(-0.0255144 -0.0196171 -0.0419094)
(-0.0201977 -0.0149127 -0.0504022)
(-0.0150809 -0.0107095 -0.0528019)
(-0.0101524 -0.00678667 -0.0523974)
(-0.00540889 -0.00304408 -0.049021)
(-0.000771896 0.000578045 -0.0412403)
(-0.045139 0.0381341 0.0172583)
(-0.0395746 0.0313777 -0.0326062)
(-0.032801 0.0242359 -0.0627991)
(-0.0264867 0.018428 -0.0792468)
(-0.0199711 0.0135569 -0.0873718)
(-0.0139032 0.00937232 -0.0906775)
(-0.00857718 0.00559749 -0.0905494)
(-0.00166494 0.000128724 -0.0833909)
(-0.0485825 0.0286909 0.0821121)
(-0.0442215 0.0247613 0.0128561)
(-0.037235 0.0192371 -0.0394716)
(-0.0296621 0.0136627 -0.0688935)
(-0.0233935 0.0097976 -0.0853336)
(-0.0160564 0.0064407 -0.0910787)
(-0.00964563 0.00363409 -0.0919136)
(-0.00111421 -0.000422367 -0.0852974)
(-0.0517798 0.0132577 0.129179)
(-0.048991 0.0123057 0.0524691)
(-0.0413744 0.0102325 -0.0125149)
(-0.0314761 0.00735094 -0.0549923)
(-0.0247406 0.00523587 -0.0813274)
(-0.0165601 0.00326236 -0.0905404)
(-0.00946563 0.00170451 -0.092629)
(3.0151e-05 -0.000492923 -0.086615)
(-0.0543697 -0.00337559 0.138985)
(-0.0524219 -0.00381704 0.0613606)
(-0.0436977 -0.00246298 -0.00482292)
(-0.0340424 -0.000758856 -0.0510359)
(-0.0257376 2.89773e-05 -0.0794988)
(-0.0172419 0.000228637 -0.0901038)
(-0.00974344 0.000256811 -0.0927679)
(0.000248901 0.000239512 -0.0869515)
(-0.053095 -0.0187895 0.110121)
(-0.0494596 -0.0175674 0.0330163)
(-0.042103 -0.0137497 -0.0286339)
(-0.0329029 -0.00916498 -0.0655767)
(-0.0253263 -0.00598021 -0.0846681)
(-0.0170796 -0.00361298 -0.0915917)
(-0.00983772 -0.00180988 -0.0930058)
(-0.000155116 0.000507139 -0.0867489)
(-0.0486716 -0.0320152 0.0601732)
(-0.0434912 -0.0268488 -0.00615988)
(-0.0368178 -0.020523 -0.0526393)
(-0.0292311 -0.0146018 -0.0763274)
(-0.0224208 -0.0104449 -0.0877941)
(-0.0153134 -0.00691041 -0.0920578)
(-0.00899796 -0.00385136 -0.0924858)
(-0.000544597 0.000318785 -0.0857372)
(-0.0431108 -0.0389307 0.00260023)
(-0.0370871 -0.0313622 -0.0429825)
(-0.0305324 -0.0242428 -0.0692983)
(-0.023968 -0.0181734 -0.0820167)
(-0.0180238 -0.0133991 -0.0889928)
(-0.0122816 -0.00905802 -0.091879)
(-0.00716952 -0.00514007 -0.0915573)
(-0.000541844 0.000232911 -0.0842952)
(0.023316 -0.0433715 -0.004982)
(0.0203978 -0.026123 -0.00438047)
(0.0184624 -0.0191194 -0.00397797)
(0.0168209 -0.0159286 -0.00335609)
(0.0152766 -0.0142408 -0.00216848)
(0.0126863 -0.01226 -0.00093074)
(0.0110364 -0.0133349 0.000118745)
(0.00957197 -0.0140672 0.000914195)
(0.0084737 -0.0225751 -0.00427137)
(0.00994927 -0.0148472 -0.00668384)
(0.00737975 -0.0103991 -0.00908709)
(0.00215936 -0.00447532 -0.00991689)
(-0.00334502 0.00062681 -0.00868997)
(-0.00829835 0.00392916 -0.00728488)
(-0.0123487 0.00412108 -0.00612917)
(-0.0167719 0.00222082 -0.00584415)
(0.0210869 -0.0312306 -0.0107176)
(0.0142259 -0.0219251 -0.0212153)
(0.00662285 -0.0147511 -0.0299496)
(-0.00126214 -0.00932663 -0.0388213)
(-0.00946369 -0.00634117 -0.0460474)
(-0.0170814 -0.00444004 -0.0497744)
(-0.0250963 -0.00484251 -0.0502981)
(-0.03377 -0.0076594 -0.0486114)
(0.0251241 -0.00892714 -0.0074808)
(0.0146418 -0.00442916 -0.0213788)
(0.00331456 -0.00212257 -0.0282984)
(-0.0078926 -0.00119115 -0.0342368)
(-0.0183331 -0.000585974 -0.0402956)
(-0.0294742 -0.00019503 -0.0441002)
(-0.0407078 -3.98998e-05 -0.0462453)
(-0.0518363 -1.07522e-05 -0.0480157)
(0.0234396 0.0150603 -0.0104783)
(0.0142348 0.0151911 -0.0221795)
(0.00474839 0.0120916 -0.030596)
(-0.00342236 0.00658327 -0.0398093)
(-0.0116856 0.00519824 -0.0464734)
(-0.0199589 0.00520741 -0.0497287)
(-0.0284794 0.00639858 -0.0503604)
(-0.0374972 0.00914135 -0.0491305)
(0.0217289 0.0231808 -0.00722745)
(0.0169649 0.0200169 -0.00920315)
(0.009778 0.0112747 -0.00850244)
(0.00372493 0.00345716 -0.00829554)
(-0.00345541 -0.000647501 -0.00776105)
(-0.0096978 -0.00296154 -0.00705335)
(-0.0153681 -0.00328327 -0.0066072)
(-0.0204521 -0.00172934 -0.00647005)
(0.0273866 0.0364902 -0.00570112)
(0.0202387 0.0279867 -0.00449037)
(0.0204275 0.0252331 -0.00449181)
(0.0161734 0.0196584 -0.00401038)
(0.0121297 0.0173099 -0.00286038)
(0.00774516 0.0161237 -0.0016915)
(0.00487375 0.0176612 -0.000852551)
(0.00273771 0.0177989 -3.36765e-05)
(0.0251674 -0.0264151 -0.0199995)
(0.0253777 -0.024869 -0.0279698)
(0.024142 -0.0231295 -0.0300484)
(0.022353 -0.0213923 -0.0286216)
(0.0204167 -0.0197135 -0.0255093)
(0.0185659 -0.0181683 -0.0219954)
(0.0169463 -0.0168393 -0.0183439)
(0.0156261 -0.0157266 -0.0148143)
(0.0221945 -0.0234248 -0.00798102)
(0.023378 -0.0217934 -0.0280233)
(0.0218668 -0.0204809 -0.0387441)
(0.0192151 -0.0195704 -0.0443235)
(0.0162913 -0.0189083 -0.045528)
(0.0135899 -0.0183407 -0.0435813)
(0.0113468 -0.0178531 -0.0393782)
(0.00973819 -0.0174011 -0.0332356)
(0.0158509 -0.015557 0.0228086)
(0.0174314 -0.0127022 -0.00758123)
(0.0156175 -0.0114733 -0.0267329)
(0.0123374 -0.0112548 -0.0388957)
(0.00855466 -0.0117043 -0.04534)
(0.00518642 -0.0123817 -0.0470003)
(0.00249238 -0.0131777 -0.0455595)
(0.000497052 -0.0140174 -0.0421384)
(0.00916687 -0.00396696 0.0480961)
(0.0116631 0.000324408 0.0108256)
(0.0100573 0.00160845 -0.0122353)
(0.00642821 0.00145987 -0.0268869)
(0.00142826 0.000913361 -0.0374513)
(-0.00391955 0.000403803 -0.0425219)
(-0.00878552 4.03822e-05 -0.0441556)
(-0.0131064 -0.000217752 -0.0446367)
(0.0111607 0.00983988 0.0341533)
(0.0132934 0.0127659 -0.00463016)
(0.0120322 0.0133625 -0.0272851)
(0.00925568 0.0130988 -0.0404559)
(0.00571232 0.0129984 -0.0467958)
(0.00233929 0.0132262 -0.0483744)
(-0.000537255 0.0136888 -0.0469509)
(-0.00280456 0.0143688 -0.0437766)
(0.0171703 0.0196055 -0.000415428)
(0.019059 0.0212081 -0.0288214)
(0.0180845 0.0210262 -0.0425011)
(0.0157505 0.0202528 -0.047793)
(0.0129819 0.0194889 -0.0477493)
(0.0103917 0.0188692 -0.0448544)
(0.00824646 0.0184024 -0.0399178)
(0.00670456 0.018028 -0.0338483)
(0.0208367 0.0234944 -0.0198346)
(0.0214772 0.0236156 -0.0314757)
(0.0205847 0.022505 -0.0339695)
(0.0190446 0.0209808 -0.0323723)
(0.0173286 0.0194548 -0.0286355)
(0.0156647 0.018053 -0.0243747)
(0.0142353 0.0168425 -0.0201218)
(0.0131267 0.0158183 -0.0161966)
(0.0290091 -0.0237623 0.0153421)
(0.0286544 -0.0229432 -0.00601747)
(0.0263646 -0.0213163 -0.0205203)
(0.0231395 -0.0190869 -0.0285157)
(0.019772 -0.0166724 -0.0314689)
(0.016559 -0.0142492 -0.0313578)
(0.0135821 -0.011919 -0.0292407)
(0.0110029 -0.0098516 -0.0256352)
(0.0269489 -0.0159959 0.0443979)
(0.0293068 -0.0147432 0.0121083)
(0.0279181 -0.0142737 -0.0118438)
(0.0246613 -0.0136894 -0.0268877)
(0.0208793 -0.012679 -0.0335008)
(0.017315 -0.0114053 -0.0346818)
(0.0141037 -0.0100453 -0.032806)
(0.0113887 -0.00877674 -0.0288343)
(0.0189555 -0.00645633 0.079485)
(0.0241667 -0.00371848 0.0346938)
(0.0252343 -0.00381178 5.6437e-05)
(0.0231458 -0.00524674 -0.0238978)
(0.0195334 -0.00579188 -0.0362361)
(0.0158146 -0.00561059 -0.0397478)
(0.0125239 -0.00523915 -0.038789)
(0.00987508 -0.00489266 -0.0350036)
(0.00976784 0.000664733 0.106459)
(0.0176368 0.00335289 0.0499472)
(0.0211117 0.00301282 0.00915948)
(0.0203043 0.00161268 -0.0199386)
(0.0173988 0.000710799 -0.0378574)
(0.0135536 0.000315441 -0.0414197)
(0.00989463 0.000114238 -0.0411516)
(0.00705243 -2.98276e-05 -0.0381595)
(0.0111702 0.00809929 0.0942324)
(0.0180945 0.00933939 0.0390172)
(0.0208961 0.00878622 0.000275851)
(0.0202693 0.00803308 -0.0251949)
(0.0175549 0.00721291 -0.0379032)
(0.0142418 0.006364 -0.0407556)
(0.0111486 0.0056338 -0.0394285)
(0.00864985 0.00505371 -0.0356992)
(0.0167419 0.0163792 0.0565682)
(0.0211717 0.0171397 0.0150002)
(0.0219596 0.0164643 -0.012769)
(0.0203916 0.0150195 -0.0286374)
(0.0176728 0.0133425 -0.0348252)
(0.014785 0.0116862 -0.0351401)
(0.0120186 0.0101168 -0.0330768)
(0.00964149 0.00873163 -0.0291346)
(0.0195138 0.022251 0.0214878)
(0.0209387 0.0222616 -0.00538172)
(0.0203709 0.0205623 -0.0218599)
(0.0184818 0.0181365 -0.0297616)
(0.0161333 0.0156678 -0.0322159)
(0.0136651 0.0132848 -0.0316931)
(0.01124 0.0110267 -0.0294445)
(0.00909452 0.0090376 -0.02581)
(0.0337257 -0.0284717 0.0356994)
(0.0309455 -0.0250121 -0.00248924)
(0.0262929 -0.0205104 -0.0312229)
(0.0211017 -0.0160463 -0.0472543)
(0.0160426 -0.0119805 -0.0529344)
(0.0111605 -0.0081228 -0.0538009)
(0.00646397 -0.00439496 -0.0509454)
(0.00180537 -0.000737086 -0.0433329)
(0.0332059 -0.0207099 0.0844642)
(0.0335002 -0.0187566 0.0322167)
(0.0299992 -0.0162034 -0.0112813)
(0.0247952 -0.0131173 -0.0407981)
(0.0190883 -0.0100458 -0.0526085)
(0.0132526 -0.00707327 -0.0555182)
(0.00756346 -0.00419643 -0.0533774)
(0.0018889 -0.0013456 -0.0455821)
(0.0279745 -0.00982171 0.133427)
(0.0320393 -0.00953082 0.0686682)
(0.0309185 -0.0104464 0.0133422)
(0.0264104 -0.00949742 -0.0284452)
(0.0205577 -0.0068776 -0.0493969)
(0.0144388 -0.00442303 -0.0558414)
(0.00821993 -0.00243864 -0.0549196)
(0.00194404 -0.000676165 -0.0473049)
(0.0208876 0.00039791 0.167374)
(0.0281443 0.00101755 0.0933144)
(0.0301663 -0.000391457 0.0326505)
(0.027364 -0.00109239 -0.0135371)
(0.0198672 -0.000641789 -0.0407027)
(0.0156018 -0.000231969 -0.0529952)
(0.00845817 -2.52444e-05 -0.0547091)
(0.00194422 1.90717e-05 -0.0478799)
(0.0210774 0.0104968 0.152533)
(0.0277138 0.0115894 0.07756)
(0.0292209 0.0113727 0.0181714)
(0.0255148 0.00927268 -0.0245819)
(0.0199188 0.0063709 -0.0467802)
(0.0143428 0.00416288 -0.0547533)
(0.00806365 0.00226422 -0.0546875)
(0.00176119 0.000516642 -0.0473419)
(0.0252334 0.0208238 0.101105)
(0.0287885 0.0205897 0.0382642)
(0.0276128 0.0180793 -0.00892048)
(0.0234627 0.0142044 -0.038274)
(0.0184363 0.0104981 -0.0512004)
(0.013066 0.00727007 -0.054811)
(0.00734305 0.00417589 -0.0528761)
(0.00170253 0.00121339 -0.0451955)
(0.027681 0.0274457 0.0436162)
(0.0271996 0.0250074 -0.001117)
(0.024191 0.0207972 -0.0313985)
(0.0199441 0.0162971 -0.0467079)
(0.0153888 0.0120454 -0.0521911)
(0.0107848 0.00810033 -0.0530686)
(0.00619283 0.00430588 -0.0502774)
(0.00162396 0.000599715 -0.0427015)
(0.0424509 -0.0372211 0.0492362)
(0.0385219 -0.0313622 -0.0141071)
(0.0326562 -0.0247423 -0.0563823)
(0.0259811 -0.0185389 -0.0771454)
(0.0203321 -0.0138725 -0.0882019)
(0.0146185 -0.00957823 -0.0927104)
(0.00954144 -0.00572111 -0.0928945)
(0.00272527 -0.000313343 -0.0855773)
(0.0428299 -0.028415 0.129986)
(0.0421286 -0.0253346 0.0467107)
(0.0373381 -0.0204531 -0.0231706)
(0.0301155 -0.0149198 -0.0645397)
(0.0241171 -0.0108741 -0.0851665)
(0.0173903 -0.00732351 -0.0930053)
(0.01122 -0.00428102 -0.0944263)
(0.00261153 -5.49236e-05 -0.0877)
(0.0416147 -0.0146529 0.198226)
(0.044906 -0.0146852 0.103572)
(0.0413793 -0.0138831 0.016394)
(0.0339509 -0.0103436 -0.0465897)
(0.0265815 -0.00657161 -0.0789024)
(0.0193072 -0.00369676 -0.0917674)
(0.0124456 -0.00175781 -0.0950473)
(0.00257598 0.000648195 -0.0890025)
(0.0374129 -0.00236139 0.242405)
(0.0431148 -0.00257823 0.14631)
(0.0416923 -0.00304538 0.0595053)
(0.033819 -0.00169528 -0.0126603)
(0.0248923 -0.000420109 -0.0599847)
(0.0176561 0.000115987 -0.0856203)
(0.0109059 0.000255871 -0.0936572)
(0.000871761 0.000245348 -0.0893074)
(0.0361995 0.00951076 0.228933)
(0.0418837 0.0101726 0.129361)
(0.0401929 0.0101162 0.0390942)
(0.0332482 0.00822298 -0.0313625)
(0.0255534 0.00532271 -0.070687)
(0.018758 0.00296648 -0.0893346)
(0.0120258 0.0013481 -0.0943716)
(0.00226228 -0.000884363 -0.0889126)
(0.0379929 0.0235736 0.163605)
(0.0410788 0.0225765 0.0702649)
(0.0378836 0.0191508 -0.00798861)
(0.0317561 0.0147791 -0.057621)
(0.0253032 0.0105004 -0.0821208)
(0.0186978 0.00701427 -0.0917998)
(0.0123327 0.00413147 -0.0938041)
(0.0035414 -1.67441e-05 -0.0872083)
(0.0412565 0.0346576 0.0696934)
(0.0396145 0.0308536 -0.00356766)
(0.034761 0.025305 -0.0513209)
(0.0284861 0.0196702 -0.0749438)
(0.0225511 0.014803 -0.0867359)
(0.0166275 0.0104188 -0.0916439)
(0.0112706 0.00649495 -0.091907)
(0.00434476 0.00108287 -0.0844903)
(0.0180394 0.0240395 -0.00466968)
(0.0177774 0.0247778 -0.00443203)
(0.0212207 0.0230576 -0.00505098)
(0.0183799 0.018616 -0.0045022)
(0.0166168 0.0149971 -0.00343494)
(0.0137381 0.0119781 -0.00200466)
(0.0116138 0.0105122 -0.000892626)
(0.0111428 0.00850751 8.57632e-05)
(0.0166841 0.0333859 -0.00942782)
(0.0208894 0.0301138 -0.0133742)
(0.0180715 0.0237732 -0.0132835)
(0.0123181 0.0196735 -0.0132361)
(0.00734405 0.0124545 -0.0111904)
(0.00202635 0.00564329 -0.00822721)
(-0.00239066 0.000762983 -0.00609284)
(-0.00327524 -0.00387193 -0.00511636)
(0.00914993 0.0417331 0.00405921)
(0.0253502 0.0331029 -0.0146388)
(0.0256819 0.0250198 -0.0233862)
(0.0141712 0.0183319 -0.0302128)
(0.00814305 0.0102492 -0.0365568)
(0.00448443 0.00195889 -0.0410286)
(0.00343278 -0.00582667 -0.042852)
(0.00468192 -0.0127059 -0.0411752)
(-0.0163827 0.0548268 0.0309654)
(-0.0155298 0.0442042 0.0166603)
(-0.0107343 0.0267569 0.00714679)
(-0.00598061 0.0141081 -0.000738617)
(-0.003107 0.00689406 -0.0193165)
(-0.00112562 -0.000773169 -0.0276376)
(0.000519328 -0.00939273 -0.03541)
(0.00111885 -0.0183701 -0.0402689)
(-0.0373948 0.0349604 -0.00510065)
(-0.0463704 0.0286709 -0.0160321)
(-0.0401246 0.0224747 -0.0228161)
(-0.0257876 0.0162051 -0.0282968)
(-0.0161004 0.00803151 -0.0338981)
(-0.00990673 -0.000653234 -0.0385099)
(-0.00405354 -0.00812179 -0.0415041)
(-0.00447596 -0.0155594 -0.0410532)
(-0.0306237 0.0152587 -0.00814767)
(-0.0420543 0.0202634 -0.0145606)
(-0.0354023 0.0159837 -0.0163822)
(-0.0252901 0.011442 -0.0157847)
(-0.0170741 0.00693031 -0.0144984)
(-0.00889745 0.000866507 -0.0109032)
(0.000956416 -0.00358248 -0.00601597)
(0.00257011 -0.00954878 -0.0046047)