/*--------------------------------*- C++ -*----------------------------------*\
| =========                 |                                                 |
| \\      /  F ield         | OpenFOAM: The Open Source CFD Toolbox           |
|  \\    /   O peration     | Version:  plus.master.MPPICInterFoam            |
|   \\  /    A nd           | Web:      www.OpenFOAM.com                      |
|    \\/     M anipulation  |                                                 |
\*---------------------------------------------------------------------------*/
FoamFile
{
    version     2.0;
    format      ascii;
    class       Cloud<basicKinematicMPPICParcel>;
    location    "13.2/lagrangian/kinematicCloud";
    object      positions;
}
// * * * * * * * * * * * * * * * * * * * * * * * * * * * * * * * * * * * * * //

147
(
(0.0116188 -0.0365919 0.362857) 6382
(0.0323013 -0.0208569 0.379104) 4670
(0.020613 -0.0327325 0.390173) 6566
(0.0258859 0.0402902 0.334523) 7191
(0.0173436 0.0579517 0.345321) 7258
(0.0130084 0.059824 0.344895) 7258
(0.00637904 0.0601185 0.347487) 7266
(0.0175704 0.0591547 0.349983) 7258
(0.0189746 0.0567238 0.351858) 7257
(0.0126045 0.0607857 0.350516) 7258
(0.0111101 0.0621847 0.349573) 7258
(0.0125893 0.0618861 0.349661) 7258
(0.0126538 0.062938 0.351094) 7258
(0.0151916 0.0613393 0.349533) 7258
(0.0145436 0.0611545 0.349258) 7258
(0.0122864 0.0643846 0.355775) 7315
(0.0160957 0.0601615 0.348754) 7258
(0.00877257 -0.0629515 0.357577) 6386
(0.0133281 0.0603082 0.350133) 7258
(0.0161251 0.0600471 0.351567) 7258
(0.00980961 0.0621815 0.353874) 7314
(0.0120624 0.0611079 0.354098) 7314
(0.00741011 0.0588226 0.353008) 7257
(0.0108139 0.0589844 0.349968) 7258
(0.00601061 0.0579989 0.353958) 7321
(0.00940502 0.0602081 0.352606) 7258
(0.00671899 -0.0624814 0.360085) 6378
(0.00615331 0.057942 0.358061) 7321
(0.00920475 0.0614382 0.363063) 7370
(0.0116304 0.0625594 0.364807) 7370
(0.00132253 0.0610959 0.3555) 7322
(-0.0014452 0.0640935 0.35885) 7322
(0.0031245 0.0609235 0.36137) 7322
(0.000669002 0.0630735 0.362496) 7322
(-0.0053831 0.0607683 0.352165) 7266
(0.00918623 0.0608786 0.366575) 7370
(0.00923701 0.0608642 0.36695) 7370
(0.00802564 0.0586892 0.366996) 7369
(-0.000537879 0.0645975 0.365868) 7378
(-0.001424 0.0643227 0.36334) 7378
(0.00532823 0.0586619 0.367802) 7377
(0.00354872 0.0605943 0.368204) 7378
(-0.000498772 0.0620905 0.363181) 7378
(0.00263516 0.0610099 0.367013) 7378
(0.00108697 0.061944 0.365852) 7378
(0.00261265 0.059851 0.369939) 7378
(0.00185738 0.060569 0.370183) 7378
(0.00116982 0.0613376 0.370394) 7378
(-0.00213432 0.0630416 0.368988) 7378
(-0.0031653 0.062844 0.368828) 7378
(0.00124793 0.0607512 0.370513) 7378
(-0.000539494 0.0623102 0.372403) 7378
(0.00226485 0.0598338 0.372742) 7378
(-0.000864476 -0.0633898 0.382803) 6546
(2.91758e-05 0.0614191 0.374468) 7434
(-0.00438173 0.0615457 0.372866) 7378
(-0.00268889 -0.0627176 0.384368) 6546
(-0.00287165 -0.0626082 0.384587) 6546
(-0.012572 0.0562692 0.369772) 7385
(-0.00700144 0.0591071 0.374008) 7441
(-0.0635352 0.00395565 0.371326) 5538
(-0.00682451 0.0601805 0.380852) 7442
(-0.0637062 0.00268447 0.375646) 5594
(-0.0623679 0.00197547 0.371021) 5538
(-0.00863893 0.0556263 0.377136) 7441
(-0.0634145 0.000479681 0.371654) 5538
(-0.00207635 0.0610867 0.379209) 7434
(-0.00343054 0.0606344 0.378113) 7434
(-0.0639223 0.000282188 0.376752) 5594
(0.00370143 0.0574653 0.388968) 7489
(-0.00128055 0.0602668 0.383899) 7490
(0.0010763 0.0591957 0.387462) 7489
(-0.00340916 0.0601108 0.38417) 7490
(0.00161376 0.0589896 0.389496) 7489
(0.00179524 0.0574421 0.383625) 7489
(-0.00586974 -0.0610767 0.394122) 6602
(-0.000975622 0.0599094 0.386541) 7490
(-0.00557513 -0.0611119 0.394827) 6602
(0.00425018 0.0557308 0.391119) 7489
(-0.00513193 -0.0612449 0.397351) 6602
(-0.00357139 0.0594344 0.388427) 7489
(-0.0645551 -0.00108414 0.385518) 5650
(-0.0644899 0.00111562 0.386291) 5650
(-0.0643081 0.00212672 0.386389) 5650
(-0.0643779 -0.00196791 0.386927) 5650
(-0.00577578 -0.0606362 0.399281) 6602
(-0.000946771 0.0585214 0.393474) 7545
(-0.00582785 -0.0603715 0.399534) 6602
(-0.00264742 0.059182 0.391456) 7489
(-0.00406597 0.0591504 0.393924) 7545
(-0.0638887 0.00292857 0.390879) 5650
(-0.0102789 0.054987 0.394614) 7553
(-0.0635835 0.00301199 0.395988) 5706
(-0.0175819 0.0547561 0.396955) 7553
(-0.00682963 -0.0560044 0.41164) 6649
(-0.0144111 0.0538698 0.4014) 7553
(-0.0146415 0.0538016 0.400887) 7553
(-0.0136756 -0.0559729 0.411906) 6649
(-0.00971494 0.0575541 0.402115) 7553
(-0.0153706 0.0539802 0.401365) 7553
(-0.00548375 -0.0584786 0.41302) 6713
(-0.0116419 -0.0561093 0.412378) 6649
(-0.0144704 0.0533399 0.405716) 7609
(-0.00726573 -0.0524896 0.418764) 6704
(-0.013862 -0.0548625 0.416412) 6705
(-0.00745738 -0.0544907 0.419105) 6705
(-0.0166551 -0.0537952 0.417423) 6705
(-0.00780427 -0.052402 0.420915) 6704
(-0.0187076 -0.0528181 0.419318) 6697
(-0.0154159 -0.053715 0.419697) 6705
(-0.0180732 0.0536958 0.412749) 7665
(-0.0172605 -0.0528523 0.422114) 6705
(-0.00858356 -0.0509806 0.425724) 6760
(-0.0126251 -0.0538637 0.425256) 6761
(-0.0098928 -0.0515875 0.425928) 6760
(-0.0600054 0.0108066 0.416569) 5810
(-0.0159678 -0.0525658 0.42649) 6761
(-0.0168254 0.0536854 0.421008) 7665
(-0.0112405 0.0580603 0.429356) 7721
(-0.0185751 -0.0510694 0.432693) 6808
(-0.0142269 -0.052402 0.434838) 6817
(-0.0191817 0.0538437 0.428346) 7729
(-0.0159173 -0.051785 0.436411) 6816
(-0.0220822 0.0536974 0.438205) 7785
(-0.0209982 -0.0487581 0.44541) 6864
(-0.0200833 -0.0491087 0.447204) 6864
(-0.0589504 0.0102532 0.441577) 5922
(-0.0569307 0.0129467 0.439714) 5921
(-0.0567307 0.012776 0.441353) 5921
(-0.0129555 0.0374081 0.478168) 7998
(-0.0219944 -0.048226 0.448539) 6864
(-0.0576112 0.011909 0.444216) 5977
(-0.0197296 -0.0487598 0.451621) 6864
(-0.0587001 0.0124842 0.446561) 5978
(-0.0201918 -0.0482746 0.454413) 6920
(-0.0194088 -0.0482189 0.46069) 6920
(-0.0219633 0.0524789 0.45876) 7897
(-0.0180304 -0.0483581 0.467465) 6976
(-0.0197696 -0.0471371 0.469306) 6976
(-0.02124 -0.0468191 0.47124) 6976
(-0.0126084 -0.0176186 0.47117) 3296
(-0.0198467 -0.0468843 0.475696) 7032
(-0.0124774 0.0246932 0.463891) 4274
(-0.0182936 -0.0469319 0.490506) 7088
(-0.0193128 -0.0465299 0.491847) 7144
(-0.0188872 0.0484552 0.496681) 8120
(-0.0277314 -0.0414798 0.497886) 7136
)


// ************************************************************************* //
