/*--------------------------------*- C++ -*----------------------------------*\
| =========                 |                                                 |
| \\      /  F ield         | OpenFOAM: The Open Source CFD Toolbox           |
|  \\    /   O peration     | Version:  plus.master.MPPICInterFoam            |
|   \\  /    A nd           | Web:      www.OpenFOAM.com                      |
|    \\/     M anipulation  |                                                 |
\*---------------------------------------------------------------------------*/
FoamFile
{
    version     2.0;
    format      ascii;
    class       volScalarField;
    location    "12.4";
    object      p_rgh;
}
// * * * * * * * * * * * * * * * * * * * * * * * * * * * * * * * * * * * * * //

dimensions      [1 -1 -2 0 0 0 0];

internalField   nonuniform List<scalar> 
11821
(
5653.05
5655.68
5653.37
5496.19
5654.74
5653.17
5666.24
5666.34
5665.87
5664.86
5663.4
5661.84
5660.36
5525.72
5499.6
5474.19
5597.89
5664.87
5663.49
5661.61
4854.88
4013.2
4101.61
5222.91
5601.07
5665.15
5662.8
4028.49
3285.46
3284.74
4367.89
5478.77
5666.52
5663.73
3851.69
3292.15
3287.37
4214.67
5448.07
5666.91
5664.12
4501.36
3505.71
3557.4
4631
5463.65
5666.76
5664.04
5132.14
4943.86
4834.4
5252.39
5594.75
5665.51
5663.3
5669.89
5670.66
5670.49
5669.46
5668.14
5666.7
5665.31
5505.7
5524.65
5475.34
5598.27
5669.96
5668.18
5666.4
4853.21
4086.06
4232.72
5200.9
5601.04
5669.6
5667.41
4548.84
3226.45
3223.9
4502.53
5470.12
5670.77
5668.19
4786.2
3289.63
3232.93
4234.95
5447.24
5671.02
5668.4
4990.15
4151.47
3916.56
4847.81
5416.47
5670.23
5668
4916.72
4939.09
4747.32
5129.69
5583.39
5669
5667.19
5668.39
5669.19
5669.41
5668.95
5668.38
5667.78
5667.21
5362.5
5402.88
5338.44
5561.37
5668.11
5668.35
5667.62
4301.85
3722.18
3943.23
4879.74
5557.6
5668.88
5667.98
3771.61
4120.18
3920.09
4118.63
5334.7
5669.26
5668.22
4488.61
4317.66
4034.36
3724.58
5279.16
5668.95
5668.08
4195.26
3957.56
3506.27
4366.96
5188.18
5668.08
5667.68
4088.44
4021.23
3916.14
4588.92
5495.47
5667.53
5667.29
5668.01
5667.21
5667.8
5668.41
5668.92
5669.35
5669.64
5216.57
5175.68
5167.48
5523.18
5665.45
5668.92
5669.4
3559.17
3375.86
3456.82
4596
5513.5
5668.5
5669.15
3170.95
4312.06
3738.81
3561.22
5190.35
5667.98
5668.91
3309.69
4454.88
4446.88
3463.31
5060.74
5667.37
5668.69
3152.74
3239.4
3137.27
3471.43
5039.92
5667.92
5668.88
3597.19
3259.54
3257.84
4271.08
5415.2
5668.54
5669.2
5676.55
5675.93
5675.93
5675.82
5675.63
5675.52
5675.46
5238.6
5168.94
5179.29
5539.43
5673.58
5675.61
5675.5
3549.46
3331.25
3404.02
4658.42
5529.73
5675.83
5675.59
3116.69
3518.62
3137.63
3560.87
5211.56
5675.99
5675.66
3109.86
4444.29
4315.33
3422.48
5099.66
5675.78
5675.64
3097.92
3089.31
3086.19
3429.27
5099.59
5676.52
5675.96
3712.15
3259.71
3370.71
4401.44
5433.8
5676.58
5676.12
5684.97
5684.9
5684.63
5684.04
5683.34
5682.72
5682.23
5315.69
5271.22
5258.68
5569.87
5683.37
5683.33
5682.62
3897.2
3321.18
3572.56
4879.53
5568.63
5684.07
5683.06
3098.49
3036.61
3033.64
3825.96
5301.04
5684.72
5683.41
3142.77
4287.55
3174.96
3597.88
5231.43
5684.75
5683.51
3204.51
3031.23
3028.08
3854.43
5221.95
5684.91
5683.64
4171.67
3682
3834.68
4715.91
5470.42
5684.4
5683.45
5689.48
5689.58
5689.51
5689.13
5688.67
5688.23
5687.83
5315.08
5325.57
5268.72
5577.72
5688.73
5688.69
5688.17
4073.94
3409.64
3724.67
4912.6
5581.7
5689.23
5688.53
3304.18
2969.5
2968.53
3978.36
5323.24
5689.72
5688.82
3846.3
3007.58
2967.16
3616.26
5276.48
5689.74
5688.9
3980.48
2965.81
2962.61
4151.52
5227.65
5689.64
5688.88
4246.99
3940.98
3881.03
4693.55
5468.03
5689.18
5688.65
5692.41
5692.66
5692.77
5692.71
5692.67
5692.59
5692.49
5243.51
5296.34
5230.48
5575.32
5692.09
5692.74
5692.61
3867.55
3366.21
3629.34
4826.87
5577.84
5692.93
5692.74
3300.21
2907.53
3219.87
3872.47
5302.68
5693.12
5692.85
3901.62
3395.19
3232.12
3542.43
5250.41
5693.06
5692.83
4045.65
2980.1
2890.53
3997.1
5175.99
5692.89
5692.75
3875.67
3722.98
3585.19
4459.74
5431.84
5692.65
5692.65
5696.58
5696.55
5696.62
5696.75
5696.9
5697.04
5697.13
5137.23
5199.49
5164.65
5570.83
5695.89
5696.97
5697.09
3382.47
3166.7
3400.11
4715.46
5569.2
5696.97
5697.08
2877.41
3631.45
3337.85
3652.14
5269.28
5696.96
5697.08
2934.53
3936.72
3911.46
3435.43
5189.16
5696.79
5697.02
3232.89
3022.04
2823.1
3604.03
5124.89
5696.81
5697.03
3339.05
3153.26
3209.37
4273.4
5393.04
5696.83
5697.05
5702.51
5702.1
5702.15
5702.25
5702.37
5702.47
5702.54
5110.46
5097.1
5134.45
5574.57
5701.56
5702.43
5702.53
3160.83
2862.02
3263.68
4691.77
5570.64
5702.51
5702.56
2786.43
3589.54
2892.84
3525.85
5259.63
5702.61
5702.6
2792.45
3902.12
3737.78
3325.73
5160.41
5702.6
5702.6
2800.65
2855.16
2761.83
3400.91
5124.94
5702.73
5702.68
3282.46
2978.42
3165.93
4276.54
5390.02
5702.7
5702.72
5709.61
5709.46
5709.35
5709.15
5708.98
5708.84
5708.74
5119.17
5086.44
5141.62
5588.19
5708.9
5709.01
5708.86
3153.49
2780.03
3271.58
4738.72
5584.69
5709.3
5709.01
2726.57
2813.02
2768.9
3520.58
5279.14
5709.57
5709.15
2813.22
3487.24
2709.84
3205.33
5184.25
5709.64
5709.2
2733.69
2703.22
2702.3
3398.16
5163.77
5709.65
5709.26
3395.38
3021.18
3168.25
4344.26
5403.81
5709.42
5709.21
5716.42
5716.52
5716.31
5715.91
5715.55
5715.25
5715.02
5135.73
5135.06
5173.15
5607.45
5715.95
5715.58
5715.23
3162.39
2726.13
3407.48
4843.87
5604.75
5716.03
5715.48
2668.05
2671.19
3074.07
3642.52
5315.02
5716.46
5715.71
3532.68
2958.96
2648.47
3124.02
5260.5
5716.64
5715.82
3175.25
2643.2
2645.19
3479.9
5203.42
5716.53
5715.83
3401.45
2970.91
3102.06
4369.87
5422.55
5716.12
5715.68
5721.4
5721.34
5721.23
5721.09
5720.89
5720.73
5720.59
5134.83
5183.54
5204.62
5624.98
5721.19
5720.95
5720.73
3107.42
2776.96
3469.3
4906.87
5624.7
5721.27
5720.89
2602.21
2797.62
3359.89
3783.64
5343.89
5721.52
5721.04
3183.42
3893.76
3455.67
3109.72
5323.32
5721.58
5721.11
3396.58
2576.26
2581.25
3553.23
5228.08
5721.55
5721.14
3198.63
2760.73
3001.88
4347.44
5440.67
5721.34
5721.07
5726.37
5726.06
5726.05
5726
5725.91
5725.85
5725.78
5137.6
5196.3
5233.93
5643.09
5726.02
5725.94
5725.84
3058.51
2891.32
3458.22
4938.28
5647.52
5726.09
5725.91
2537.32
3547.93
2810.1
3823.96
5375.19
5726.16
5725.97
2530.83
3872.45
3870.64
3330.98
5352.4
5726.07
5725.98
2735.99
2512.04
2525.19
3602.91
5265.56
5726.17
5726.05
2958.25
2612.23
2959.93
4332.88
5472.2
5726.15
5726.08
5732
5731.68
5731.57
5731.41
5731.26
5731.11
5730.95
5186.41
5233.17
5286.3
5663.97
5731.45
5731.28
5731.08
3123.33
2941.66
3506.17
5005.6
5672.48
5731.52
5731.24
2463.83
3291.23
2631.94
3864.62
5425.41
5731.77
5731.39
2460.54
3838.95
3841.34
3774.92
5400.94
5731.85
5731.46
2452.91
2453.23
2463.05
3755.73
5336.71
5731.87
5731.5
2984.6
2757.67
3066.91
4413.9
5524.12
5731.7
5731.46
5737.61
5737.4
5737.12
5736.81
5736.52
5736.22
5735.92
5287.25
5322.65
5356.86
5681.89
5736.9
5736.54
5736.18
3393.52
2976.37
3652.3
5109.11
5691.63
5736.92
5736.45
2395.12
2433.13
2571.71
3965.01
5482.21
5737.35
5736.68
2401.2
3807.92
3397.17
3880.71
5469.12
5737.5
5736.79
2458.62
2392.89
2393.43
3951.89
5412.68
5737.42
5736.76
3309.4
3279.09
3307.08
4555.94
5573.27
5737.02
5736.57
5648.82
5648.27
5650.14
5649.87
5649.71
5649.62
5649.58
5649.55
5651.52
5650.82
5650.34
5650.03
5649.85
5649.74
5649.69
5649.68
5651.8
5651.03
5650.53
5650.2
5650
5649.89
5649.85
5649.87
5652.08
5651.28
5650.76
5650.44
5650.24
5650.14
5650.12
5650.14
5652.07
5651.45
5650.99
5650.67
5650.49
5650.41
5650.43
5650.46
5659.05
5658.18
5657.46
5656.92
5656.53
5656.26
5652.71
5645.75
5659.88
5658.69
5657.78
5657.1
5656.61
5656.26
5655.68
5655.53
5660.75
5659.3
5658.19
5657.38
5656.8
5656.4
5656.15
5656.04
5661.44
5659.82
5658.59
5657.68
5657.03
5656.59
5656.33
5656.22
5661.79
5660.14
5658.89
5657.96
5657.29
5656.85
5656.6
5656.5
5661.84
5660.29
5659.12
5658.24
5657.62
5657.21
5656.99
5656.91
5661.39
5660.22
5659.25
5658.5
5657.97
5657.63
5657.46
5657.25
5664.18
5663.39
5662.75
5662.26
5661.89
5661.62
5658.64
5653.65
5664.94
5663.86
5663.03
5662.39
5661.93
5661.59
5661.19
5661.12
5665.63
5664.33
5663.33
5662.58
5662.05
5661.68
5661.46
5661.36
5666.16
5664.72
5663.63
5662.82
5662.24
5661.84
5661.61
5661.52
5666.36
5664.94
5663.85
5663.04
5662.46
5662.07
5661.85
5661.77
5666.19
5664.95
5663.99
5663.26
5662.73
5662.38
5662.19
5662.13
5665.6
5664.69
5663.97
5663.39
5662.97
5662.71
5662.58
5662.23
5666.79
5666.51
5666.29
5666.12
5666
5665.92
5663.13
5658.92
5667.07
5666.67
5666.37
5666.14
5665.98
5665.85
5665.68
5665.67
5667.29
5666.8
5666.43
5666.17
5665.99
5665.88
5665.82
5665.82
5667.45
5666.9
5666.51
5666.23
5666.05
5665.95
5665.9
5665.93
5667.4
5666.92
5666.57
5666.32
5666.16
5666.07
5666.05
5666.08
5667.19
5666.86
5666.61
5666.43
5666.31
5666.26
5666.26
5666.3
5666.79
5666.6
5666.5
5666.43
5666.41
5666.42
5666.47
5666.22
5669.8
5669.95
5670.08
5670.18
5670.27
5670.35
5667.77
5663.31
5669.68
5669.88
5670.02
5670.13
5670.22
5670.28
5670.3
5670.33
5669.55
5669.79
5669.96
5670.08
5670.19
5670.28
5670.37
5670.46
5669.43
5669.71
5669.92
5670.07
5670.2
5670.32
5670.42
5670.53
5669.32
5669.67
5669.92
5670.1
5670.25
5670.39
5670.51
5670.63
5669.42
5669.75
5670.01
5670.21
5670.37
5670.52
5670.65
5670.78
5669.45
5669.71
5669.98
5670.22
5670.43
5670.61
5670.79
5670.75
5675.36
5675.39
5675.43
5675.48
5675.55
5675.62
5673.31
5668.09
5675.41
5675.4
5675.43
5675.47
5675.53
5675.59
5675.65
5675.66
5675.47
5675.44
5675.45
5675.48
5675.54
5675.61
5675.7
5675.78
5675.53
5675.49
5675.5
5675.53
5675.59
5675.66
5675.76
5675.87
5675.57
5675.56
5675.57
5675.61
5675.67
5675.76
5675.87
5675.98
5675.8
5675.74
5675.74
5675.77
5675.83
5675.92
5676.03
5676.14
5675.81
5675.77
5675.79
5675.85
5675.94
5676.06
5676.2
5676.3
5681.81
5681.61
5681.46
5681.38
5681.34
5681.34
5679.47
5673.85
5682.08
5681.76
5681.55
5681.42
5681.36
5681.33
5681.37
5681.39
5682.37
5681.95
5681.67
5681.49
5681.4
5681.38
5681.4
5681.47
5682.6
5682.12
5681.8
5681.59
5681.48
5681.44
5681.48
5681.55
5682.73
5682.24
5681.91
5681.7
5681.58
5681.55
5681.59
5681.68
5682.85
5682.37
5682.07
5681.86
5681.76
5681.73
5681.78
5681.81
5682.66
5682.31
5682.08
5681.94
5681.88
5681.9
5681.93
5682.03
5687.47
5687.26
5687.1
5686.99
5686.93
5686.91
5685.54
5681.44
5687.72
5687.42
5687.19
5687.04
5686.95
5686.9
5686.93
5686.97
5687.96
5687.57
5687.29
5687.1
5686.99
5686.95
5686.96
5687.02
5688.16
5687.71
5687.4
5687.19
5687.06
5687
5687.02
5687.09
5688.24
5687.8
5687.48
5687.27
5687.14
5687.09
5687.11
5687.19
5688.27
5687.86
5687.58
5687.38
5687.26
5687.22
5687.26
5687.19
5687.99
5687.7
5687.52
5687.4
5687.33
5687.34
5687.34
5687.05
5692.35
5692.28
5692.22
5692.19
5692.18
5692.19
5691.25
5687.43
5692.46
5692.35
5692.26
5692.21
5692.19
5692.2
5692.24
5692.31
5692.54
5692.4
5692.3
5692.23
5692.2
5692.22
5692.27
5692.34
5692.62
5692.46
5692.34
5692.27
5692.24
5692.26
5692.31
5692.4
5692.64
5692.48
5692.38
5692.31
5692.29
5692.31
5692.37
5692.46
5692.61
5692.5
5692.42
5692.37
5692.36
5692.39
5692.46
5692.39
5692.36
5692.31
5692.31
5692.33
5692.36
5692.43
5692.51
5690.61
5697.15
5697.2
5697.26
5697.32
5697.38
5697.45
5696.8
5693.1
5697.15
5697.21
5697.27
5697.32
5697.38
5697.45
5697.54
5697.63
5697.15
5697.2
5697.26
5697.32
5697.38
5697.46
5697.56
5697.67
5697.16
5697.21
5697.27
5697.33
5697.41
5697.5
5697.6
5697.72
5697.13
5697.21
5697.28
5697.36
5697.44
5697.53
5697.65
5697.76
5697.14
5697.24
5697.32
5697.41
5697.49
5697.59
5697.71
5697.75
5696.98
5697.09
5697.23
5697.36
5697.48
5697.61
5697.74
5694.42
5702.54
5702.62
5702.7
5702.78
5702.87
5702.97
5702.41
5698.93
5702.57
5702.64
5702.72
5702.8
5702.88
5702.97
5703.08
5703.18
5702.6
5702.66
5702.73
5702.8
5702.89
5702.99
5703.1
5703.22
5702.64
5702.69
5702.76
5702.83
5702.92
5703.03
5703.15
5703.27
5702.65
5702.71
5702.79
5702.87
5702.97
5703.08
5703.21
5703.33
5702.71
5702.77
5702.85
5702.94
5703.04
5703.15
5703.27
5703.38
5702.61
5702.68
5702.8
5702.92
5703.05
5703.18
5703.32
5699.89
5708.61
5708.59
5708.61
5708.64
5708.69
5708.76
5708.16
5704.98
5708.71
5708.66
5708.65
5708.67
5708.71
5708.77
5708.86
5708.96
5708.82
5708.74
5708.7
5708.7
5708.73
5708.79
5708.89
5708.99
5708.92
5708.81
5708.76
5708.75
5708.78
5708.84
5708.94
5709.05
5708.98
5708.87
5708.82
5708.81
5708.84
5708.91
5709.01
5709.12
5709.05
5708.94
5708.9
5708.9
5708.93
5709
5709.1
5709.21
5708.92
5708.86
5708.87
5708.91
5708.97
5709.07
5709.18
5706.25
5714.79
5714.68
5714.6
5714.56
5714.55
5714.59
5713.87
5711.19
5714.94
5714.76
5714.65
5714.59
5714.57
5714.59
5714.65
5714.73
5715.09
5714.86
5714.71
5714.62
5714.59
5714.61
5714.67
5714.76
5715.23
5714.96
5714.79
5714.69
5714.65
5714.66
5714.72
5714.81
5715.33
5715.04
5714.87
5714.76
5714.72
5714.73
5714.8
5714.89
5715.39
5715.12
5714.95
5714.86
5714.82
5714.84
5714.91
5715
5715.24
5715.06
5714.95
5714.9
5714.89
5714.92
5715.02
5713.24
5720.42
5720.32
5720.24
5720.18
5720.16
5720.18
5719.28
5717.32
5720.51
5720.37
5720.26
5720.19
5720.16
5720.17
5720.22
5720.29
5720.59
5720.41
5720.29
5720.21
5720.17
5720.18
5720.24
5720.32
5720.69
5720.48
5720.34
5720.25
5720.21
5720.22
5720.28
5720.36
5720.76
5720.54
5720.4
5720.31
5720.28
5720.29
5720.35
5720.43
5720.84
5720.62
5720.49
5720.41
5720.38
5720.39
5720.45
5720.53
5720.76
5720.61
5720.52
5720.47
5720.46
5720.45
5720.55
5719.86
5725.66
5725.59
5725.53
5725.49
5725.48
5725.49
5724.32
5723.17
5725.71
5725.62
5725.54
5725.49
5725.47
5725.49
5725.54
5725.6
5725.75
5725.64
5725.56
5725.51
5725.49
5725.5
5725.56
5725.62
5725.79
5725.68
5725.6
5725.54
5725.52
5725.54
5725.6
5725.67
5725.83
5725.72
5725.65
5725.6
5725.58
5725.6
5725.65
5725.73
5725.92
5725.8
5725.73
5725.69
5725.67
5725.69
5725.75
5725.81
5725.91
5725.83
5725.78
5725.76
5725.76
5725.76
5725.82
5725.55
5730.77
5730.67
5730.6
5730.55
5730.54
5730.54
5729.06
5728.66
5730.88
5730.75
5730.65
5730.59
5730.55
5730.55
5730.59
5730.63
5731
5730.84
5730.72
5730.63
5730.59
5730.59
5730.62
5730.67
5731.11
5730.93
5730.79
5730.7
5730.65
5730.64
5730.67
5730.72
5731.18
5730.99
5730.86
5730.76
5730.71
5730.7
5730.73
5730.78
5731.24
5731.05
5730.93
5730.85
5730.8
5730.8
5730.83
5730.87
5731.18
5731.05
5730.97
5730.91
5730.89
5730.89
5730.8
5730.61
5735.65
5735.5
5735.4
5735.33
5735.29
5735.29
5733.63
5733.75
5735.86
5735.65
5735.5
5735.39
5735.33
5735.3
5735.31
5735.34
5736.06
5735.8
5735.6
5735.46
5735.38
5735.34
5735.34
5735.37
5736.24
5735.93
5735.71
5735.55
5735.45
5735.4
5735.4
5735.42
5736.31
5736.01
5735.78
5735.62
5735.52
5735.47
5735.46
5735.49
5736.32
5736.04
5735.84
5735.7
5735.61
5735.56
5735.55
5735.57
5736.14
5735.94
5735.81
5735.72
5735.67
5735.65
5735.39
5735.28
5535.13
5667.44
5666.12
5664.85
5663.88
5663.29
5663.11
5663.19
5335.59
5631.44
5667.46
5665.82
5664.53
5663.72
5663.42
5663.49
5223.36
5557.07
5668.05
5666.28
5664.81
5663.84
5663.24
5663.45
5183.69
5610.59
5667.46
5665.7
5664.27
5663.32
5662.61
5662.85
5450.52
5667.52
5665.79
5664.28
5663.09
5662.24
5661.95
5662.02
5657
5665.2
5663.79
5662.61
5661.73
5661.18
5660.96
5660.98
5664.65
5663.49
5662.36
5661.41
5660.7
5660.25
5660.08
5660.08
5479.77
5670.22
5669.35
5668.49
5667.84
5667.43
5667.28
5667.33
5050.21
5583.53
5670.1
5669.01
5668.15
5667.6
5667.37
5667.42
5095
5469.37
5670.67
5669.39
5668.33
5667.63
5667.12
5667.31
5057.62
5567.94
5670.3
5669.03
5667.99
5667.27
5666.65
5666.89
5368.36
5670.26
5669.2
5668.08
5667.19
5666.51
5666.28
5666.34
5660.21
5669.08
5667.97
5667.02
5666.29
5665.83
5665.62
5665.62
5668.85
5667.94
5666.97
5666.15
5665.54
5665.15
5664.97
5664.95
5321.14
5667.08
5667.61
5667.98
5668.24
5668.46
5668.7
5668.93
4126.25
5469.99
5667.09
5667.6
5667.95
5668.23
5668.52
5668.83
4046.96
5218.82
5666.95
5667.47
5667.8
5668.07
5668.24
5668.66
4270.71
5434.11
5667.52
5667.73
5667.88
5667.98
5667.96
5668.5
5063.05
5667.53
5667.81
5667.86
5667.92
5667.92
5668.13
5668.42
5643.04
5668.11
5668.01
5667.92
5667.88
5667.91
5668.02
5668.19
5668.33
5668.26
5668.04
5667.87
5667.78
5667.76
5667.81
5667.93
5214.42
5668
5669.06
5669.96
5670.66
5671.21
5671.71
5672.1
3743.22
5415.7
5668.55
5669.54
5670.33
5670.98
5671.56
5672.06
3359.8
5083.4
5668.13
5669.16
5670.02
5670.72
5671.3
5671.89
3645.14
5334.26
5668.35
5669.3
5670.09
5670.58
5671
5671.78
4845.09
5667.52
5668.91
5669.72
5670.36
5670.82
5671.33
5671.79
5615.4
5668.73
5669.5
5670.1
5670.58
5670.99
5671.36
5671.68
5668.91
5669.59
5670.07
5670.47
5670.79
5671.06
5671.33
5671.56
5235.36
5677.78
5677.38
5677.27
5677.3
5677.46
5677.77
5678.09
3954.05
5457.34
5678
5677.5
5677.38
5677.49
5677.82
5678.23
3455.1
5160.52
5677.98
5677.37
5677.22
5677.34
5677.64
5678.13
3732.76
5366.81
5677.56
5677.12
5677.04
5676.98
5677.19
5677.92
4899.24
5676.95
5677.02
5676.83
5676.84
5676.98
5677.28
5677.68
5618.44
5676.5
5676.44
5676.48
5676.59
5676.76
5677.03
5677.32
5676.29
5676.27
5676.33
5676.38
5676.48
5676.62
5676.83
5677.05
5250.15
5684.74
5684.38
5684
5683.77
5683.74
5683.92
5684.19
4588.06
5473.49
5685.36
5684.57
5684.12
5683.97
5684.12
5684.43
4199.25
5276.08
5685.38
5684.63
5684.16
5683.93
5684.03
5684.43
4226.12
5423.16
5685.42
5684.56
5684.05
5683.62
5683.78
5684.25
5038.48
5682.35
5684.64
5683.99
5683.62
5683.47
5683.59
5683.86
5627.32
5684.25
5683.71
5683.33
5683.11
5683.05
5683.17
5683.36
5684.05
5683.6
5683.26
5682.98
5682.81
5682.77
5682.85
5683.01
5175.1
5685.74
5688.89
5688.73
5688.63
5688.67
5688.87
5689.12
4662.18
5373.17
5689.59
5689.18
5688.9
5688.84
5689
5689.28
4661.28
5198.3
5688.82
5689.32
5689
5688.67
5688.85
5689.27
4360.07
5382.13
5689.67
5689.24
5688.92
5688.56
5688.83
5689.18
5003.61
5679.16
5689.13
5688.81
5688.58
5688.5
5688.62
5688.74
5626.78
5688.87
5688.63
5688.4
5688.25
5688.21
5688.32
5688.17
5688.95
5688.74
5688.48
5688.23
5688.07
5688.03
5688.1
5688.18
4983.41
5686.7
5691.82
5692.21
5692.5
5692.78
5693.1
5693.38
4062.21
5184.11
5691.56
5692.02
5692.35
5692.65
5693
5693.36
4164.17
4919.03
5691.12
5691.96
5692.26
5692.32
5692.73
5693.22
4007.57
5225.8
5691.81
5692.15
5692.36
5692.35
5692.84
5693.25
4789.41
5672.42
5691.97
5692.22
5692.38
5692.56
5692.82
5692.69
5609.41
5691.99
5692.22
5692.34
5692.44
5692.57
5692.77
5692.47
5692.35
5692.54
5692.55
5692.53
5692.54
5692.61
5692.74
5692.76
4893.89
5693.06
5696.45
5696.9
5697.26
5697.59
5697.94
5698.23
3393.51
5144.56
5696.04
5696.55
5696.98
5697.36
5697.76
5698.16
3143.47
4768.65
5695.83
5696.31
5696.73
5697.02
5697.51
5697.96
3419.93
5102.89
5696.15
5696.5
5696.83
5697.03
5697.55
5698
4572.46
5671.47
5696.37
5696.69
5696.97
5697.25
5697.59
5697.42
5588.28
5696.37
5696.68
5696.92
5697.14
5697.36
5697.62
5697.35
5696.64
5696.94
5697.07
5697.19
5697.32
5697.48
5697.67
5697.68
4891.02
5700.07
5703.06
5703.16
5703.27
5703.47
5703.73
5704
3427.47
5169.76
5703.51
5703.25
5703.25
5703.39
5703.7
5704.06
3046.38
4802.32
5703.36
5703.07
5703.06
5703.22
5703.56
5703.92
3334.83
5093.51
5703.05
5702.91
5702.95
5703.14
5703.48
5703.9
4544.98
5674.73
5702.77
5702.8
5702.92
5703.11
5703.41
5703.25
5583.31
5702.45
5702.6
5702.74
5702.9
5703.09
5703.34
5703.06
5702.42
5702.6
5702.72
5702.84
5702.97
5703.12
5703.32
5703.34
4868.55
5699.82
5709.15
5709.22
5709.3
5709.48
5709.73
5710.01
3861.07
5166.23
5709.86
5709.57
5709.48
5709.57
5709.83
5710.21
3555.4
4870.35
5707.99
5709.59
5709.5
5709.58
5709.85
5710.25
3396.07
5086.1
5709.84
5709.54
5709.44
5709.53
5709.8
5710.18
4551.33
5676.69
5709.49
5709.36
5709.33
5709.43
5709.67
5709.47
5586.1
5709.14
5709.18
5709.17
5709.2
5709.3
5709.51
5709.19
5709.17
5709.16
5709.16
5709.15
5709.18
5709.26
5709.41
5709.48
4766.17
5692.44
5715.39
5715.36
5715.39
5715.52
5715.75
5716.02
4057.65
5045.52
5716.11
5715.72
5715.57
5715.63
5715.85
5716.22
3951.18
4803.9
5708.89
5715.84
5715.65
5715.67
5715.87
5716.26
3338.35
5036.74
5716.31
5715.87
5715.65
5715.65
5715.86
5716.15
4526.56
5673.51
5715.83
5715.61
5715.5
5715.52
5715.7
5715.42
5588.68
5715.37
5715.52
5715.4
5715.34
5715.37
5715.53
5715.16
5715.77
5715.65
5715.5
5715.37
5715.3
5715.31
5715.41
5715.53
4621.89
5692.27
5720.96
5721
5721.07
5721.22
5721.46
5721.72
3693.68
4854.25
5721.03
5720.96
5721
5721.16
5721.42
5721.8
3528.59
4574.3
5715.09
5720.82
5720.87
5721.03
5721.3
5721.72
3125.91
4912.25
5721.21
5721.02
5720.97
5721.06
5721.31
5721.24
4444.42
5663.33
5720.92
5720.87
5720.88
5720.96
5721.18
5720.86
5588.92
5720.27
5720.81
5720.79
5720.81
5720.87
5721.04
5720.88
5721.03
5721.04
5720.95
5720.86
5720.82
5720.84
5720.95
5721.08
4600.92
5699.67
5726.65
5726.64
5726.69
5726.8
5727
5727.22
3103.49
4838.53
5726.65
5726.5
5726.53
5726.67
5726.95
5727.29
2735.81
4468.46
5725.83
5726.29
5726.31
5726.47
5726.75
5727.16
2952.93
4861.16
5726.48
5726.3
5726.3
5726.42
5726.69
5726.44
4397.05
5659.06
5726.18
5726.16
5726.2
5726.31
5726.54
5726.21
5594.08
5725.39
5726.04
5726.06
5726.11
5726.2
5726.38
5726.48
5726.12
5726.17
5726.14
5726.11
5726.11
5726.15
5726.26
5726.39
4651.33
5708.73
5732.58
5732.37
5732.24
5732.23
5732.33
5732.49
3111.47
4923.46
5733.18
5732.58
5732.32
5732.27
5732.42
5732.68
2711.85
4550.72
5731.36
5732.46
5732.2
5732.16
5732.34
5732.63
2986.17
4894.25
5732.6
5732.2
5732.02
5732.01
5732.18
5731.84
4442.86
5665.98
5732.04
5731.86
5731.77
5731.78
5731.94
5731.53
5615.06
5731.12
5731.65
5731.57
5731.54
5731.56
5731.68
5731.8
5731.66
5731.61
5731.54
5731.46
5731.41
5731.42
5731.49
5731.58
4715.72
5712.47
5737.36
5737.09
5736.9
5736.81
5736.83
5736.91
3641.6
5017.31
5738.49
5737.71
5737.28
5737.09
5737.11
5737.26
3429.2
4737.99
5730.35
5737.77
5737.35
5737.14
5737.15
5737.32
3295.47
4990.42
5738.38
5737.71
5737.28
5737.08
5737.07
5736.74
4594.87
5681.61
5737.61
5737.21
5736.93
5736.79
5736.8
5736.44
5648.76
5736.75
5737
5736.76
5736.59
5736.49
5736.49
5736.56
5737.1
5736.88
5736.68
5736.5
5736.36
5736.28
5736.26
5736.32
5664
5662.56
5661.36
5660.4
5659.74
5659.33
5659.14
5659.11
5664.04
5662.21
5660.55
5659.47
5659.11
5658.58
5658.38
5658.31
5663.51
5661.1
5658.56
5658.54
5658.46
5657.91
5657.67
5657.58
5662.65
5660.07
5657.86
5658.57
5657.85
5657.38
5657.11
5657
5661.49
5660.02
5658.86
5657.98
5657.34
5656.91
5656.65
5656.55
5660.27
5659.08
5658.13
5657.41
5656.9
5656.54
5656.12
5654.96
5659.2
5658.37
5657.64
5657.07
5656.65
5656.36
5654.01
5646.07
5667.95
5666.86
5665.95
5665.19
5664.68
5664.34
5664.16
5664.12
5668.5
5666.92
5664.82
5664.54
5664.24
5663.74
5663.53
5663.45
5668.26
5665.69
5663.57
5663.85
5663.66
5663.16
5662.92
5662.82
5667.45
5664.37
5663.28
5663.83
5663.11
5662.68
5662.41
5662.22
5666.44
5665.12
5664.08
5663.26
5662.67
5662.25
5662
5661.9
5665.35
5664.28
5663.39
5662.74
5662.26
5661.92
5661.33
5656.5
5664.38
5663.6
5662.93
5662.41
5662.01
5661.74
5658.65
5651.17
5667.74
5667.53
5667.38
5667.32
5667.32
5667.32
5667.37
5667.44
5668.39
5667.85
5665.78
5666.99
5667.18
5667.05
5667.05
5667.09
5668.5
5666.38
5665.61
5666.75
5666.84
5666.74
5666.7
5666.73
5668.17
5665.79
5666.34
5666.87
5666.62
5666.49
5666.42
5666.32
5667.76
5667.28
5666.91
5666.62
5666.42
5666.28
5666.21
5666.21
5667.31
5666.92
5666.59
5666.39
5666.23
5666.12
5665.49
5658.45
5666.95
5666.67
5666.43
5666.24
5666.12
5666.03
5662.19
5655.36
5668.74
5669.3
5669.73
5670.18
5670.57
5670.84
5671.08
5671.26
5668.62
5669.19
5668.01
5669.92
5670.49
5670.73
5670.92
5671.07
5668.87
5667.61
5668.01
5669.99
5670.36
5670.59
5670.75
5670.89
5669.17
5667.77
5669.62
5670.2
5670.38
5670.52
5670.64
5670.67
5669.46
5669.8
5670.04
5670.22
5670.36
5670.47
5670.56
5670.65
5669.67
5669.89
5670.06
5670.23
5670.35
5670.44
5669.81
5661.89
5669.87
5670.04
5670.15
5670.26
5670.35
5670.42
5666.07
5659.65
5676.01
5675.93
5675.87
5675.99
5676.16
5676.31
5676.5
5676.67
5675.81
5675.31
5674.28
5675.74
5675.96
5676.12
5676.27
5676.42
5675.71
5673.74
5674
5675.66
5675.78
5675.93
5676.06
5676.19
5675.64
5673.85
5675.46
5675.64
5675.72
5675.81
5675.91
5676.03
5675.53
5675.5
5675.52
5675.58
5675.64
5675.72
5675.81
5674.52
5675.42
5675.4
5675.45
5675.54
5675.61
5675.68
5674.96
5666.29
5675.4
5675.44
5675.48
5675.54
5675.6
5675.67
5671.04
5665.5
5683.7
5683.12
5682.67
5682.48
5682.38
5682.37
5682.45
5682.57
5683.74
5681.98
5682.16
5682.3
5682.15
5682.12
5682.16
5682.25
5683.49
5680.84
5681.59
5682.05
5681.9
5681.85
5681.88
5681.96
5683.07
5681.81
5682.05
5681.84
5681.71
5681.65
5681.67
5681.74
5682.62
5682.15
5681.84
5681.64
5681.53
5681.49
5681.51
5677.51
5682.17
5681.81
5681.62
5681.5
5681.43
5681.41
5680.59
5671.39
5681.86
5681.67
5681.52
5681.42
5681.37
5681.37
5676.36
5670.89
5688.63
5688.23
5687.94
5687.81
5687.72
5687.71
5687.77
5687.87
5688.87
5687.27
5687.92
5687.75
5687.6
5687.53
5687.55
5687.63
5688.74
5686.3
5687.68
5687.55
5687.39
5687.31
5687.32
5687.39
5688.41
5687.93
5687.61
5687.37
5687.22
5687.15
5687.15
5687.21
5688.12
5687.7
5687.42
5687.21
5687.07
5687.02
5687.02
5681.72
5687.78
5687.44
5687.24
5687.08
5686.98
5686.95
5686.09
5680.01
5687.53
5687.33
5687.16
5687.03
5686.95
5686.92
5681.89
5676.27
5692.16
5692.15
5692.22
5692.29
5692.35
5692.45
5692.57
5692.69
5692.55
5692.02
5692.41
5692.39
5692.38
5692.4
5692.48
5692.58
5692.62
5692.15
5692.37
5692.32
5692.29
5692.3
5692.36
5692.46
5692.55
5692.43
5692.34
5692.27
5692.23
5692.24
5692.27
5692.37
5692.51
5692.38
5692.29
5692.18
5692.19
5692.2
5692.24
5687.7
5692.44
5692.33
5692.25
5692.19
5692.17
5692.18
5691.28
5688.83
5692.4
5692.33
5692.26
5692.21
5692.19
5692.2
5687.2
5681.42
5696.51
5696.63
5696.85
5697.05
5697.22
5697.39
5697.56
5697.72
5696.75
5696.91
5697.05
5697.17
5697.28
5697.4
5697.54
5697.67
5696.83
5696.96
5697.06
5697.16
5697.25
5697.36
5697.49
5697.56
5696.91
5697.01
5697.11
5697.19
5697.26
5697.36
5697.46
5697.59
5697.01
5697.09
5697.12
5697.15
5697.3
5697.39
5697.43
5696.4
5697.09
5697.15
5697.19
5697.27
5697.34
5697.41
5695.95
5694.38
5697.18
5697.23
5697.28
5697.33
5697.39
5697.46
5692.49
5686.3
5702.31
5702.37
5702.52
5702.67
5702.82
5702.99
5703.18
5703.34
5702.3
5702.44
5702.58
5702.7
5702.82
5702.96
5703.11
5703.26
5702.31
5702.43
5702.55
5702.66
5702.77
5702.9
5703.04
5703.12
5702.37
5702.47
5702.57
5702.64
5702.76
5702.89
5703.02
5703.15
5702.44
5702.52
5701.57
5702.61
5702.8
5702.91
5702.94
5703.14
5702.48
5702.56
5702.62
5702.74
5702.83
5702.93
5700.04
5697.69
5702.55
5702.63
5702.71
5702.8
5702.88
5702.97
5698.18
5691.58
5709.09
5708.94
5708.9
5708.91
5708.97
5709.07
5709.22
5709.36
5709.13
5708.96
5708.89
5708.87
5708.9
5708.97
5709.09
5709.22
5709.04
5708.87
5708.79
5708.77
5708.79
5708.86
5708.97
5709.04
5708.92
5708.78
5708.66
5708.16
5708.72
5708.8
5708.9
5708.93
5708.79
5708.6
5707.36
5708.56
5708.7
5708.76
5708.75
5708.96
5708.68
5708.58
5708.59
5708.65
5708.69
5708.75
5705.28
5698.72
5708.62
5708.62
5708.63
5708.66
5708.7
5708.77
5704.02
5697.1
5715.68
5715.38
5715.2
5715.09
5715.06
5715.09
5715.19
5715.3
5715.84
5715.43
5715.18
5715.03
5714.96
5714.97
5715.04
5715.14
5715.67
5715.28
5715.03
5714.89
5714.79
5714.82
5714.88
5714.98
5715.41
5715.09
5712.32
5713.94
5714.71
5714.71
5714.77
5713.7
5715.16
5712.41
5713.43
5714.61
5714.63
5714.64
5714.61
5714.65
5714.96
5714.64
5714.65
5714.61
5714.59
5714.61
5711.06
5702.64
5714.81
5714.71
5714.64
5714.59
5714.57
5714.6
5709.68
5702.62
5720.96
5720.78
5720.66
5720.6
5720.6
5720.65
5720.75
5720.85
5721.03
5720.79
5720.64
5720.55
5720.52
5720.54
5720.61
5720.7
5720.9
5720.67
5720.52
5720.42
5720.35
5720.4
5720.47
5720.55
5720.77
5720.54
5717.04
5719.5
5720.31
5720.31
5720.37
5718.4
5720.64
5717.03
5719.01
5720.25
5720.24
5720.24
5720.28
5720.11
5720.54
5720.18
5720.28
5720.24
5720.2
5720.21
5716.54
5710.23
5720.46
5720.36
5720.28
5720.21
5720.18
5720.2
5714.92
5707.93
5726.09
5725.96
5725.89
5725.87
5725.9
5725.96
5726.06
5726.16
5726
5725.88
5725.82
5725.8
5725.8
5725.84
5725.92
5726
5725.9
5725.79
5725.65
5724.78
5725.65
5725.72
5725.79
5725.87
5725.85
5725.39
5722.21
5724.89
5725.63
5725.65
5725.7
5723.67
5725.76
5722.18
5724.44
5725.58
5725.57
5725.58
5725.62
5725.36
5725.73
5725.43
5725.58
5725.55
5725.53
5725.54
5720.44
5722.08
5725.69
5725.63
5725.57
5725.52
5725.5
5725.52
5719.35
5712.98
5731.6
5731.4
5731.26
5731.18
5731.15
5731.18
5731.24
5731.31
5731.46
5731.26
5731.13
5731.05
5730.96
5731.02
5731.06
5731.12
5731.31
5731.13
5729.47
5729.36
5730.85
5730.87
5730.91
5730.96
5731.2
5728.92
5727.36
5730.36
5730.78
5730.77
5730.8
5728.74
5730.96
5727.32
5730.04
5730.73
5730.69
5730.68
5730.65
5730.53
5730.91
5730.63
5730.7
5730.65
5730.61
5730.61
5723.42
5728.96
5730.8
5730.71
5730.64
5730.59
5730.57
5730.58
5723.36
5717.76
5736.94
5736.59
5736.33
5736.17
5736.06
5736.02
5736.02
5736.04
5736.88
5736.5
5736.23
5735.98
5735.86
5735.86
5735.84
5735.85
5736.65
5736.31
5732.69
5734.38
5735.75
5735.68
5735.67
5735.68
5736.43
5732.18
5732.67
5735.55
5735.61
5735.55
5735.54
5734.66
5735.81
5733.16
5735.38
5735.58
5735.49
5735.44
5734.47
5735.36
5735.88
5735.61
5735.55
5735.45
5735.39
5735.36
5728.24
5733.54
5735.68
5735.54
5735.43
5735.36
5735.33
5735.32
5727.96
5722.2
5652.33
5651.86
5651.48
5651.17
5650.97
5650.88
5650.89
5650.98
5653.39
5652.6
5651.97
5651.56
5651.32
5651.23
5651.23
5650.81
5654.64
5653.68
5652.86
5652.29
5651.94
5651.81
5651.81
5651.55
5573
5655.28
5653.95
5653.16
5652.67
5652.08
5652.43
5652.25
5654.54
5653.54
5653.12
5652.57
5652.84
5653.26
5653.44
5653.77
5662.01
5660.99
5660.04
5659.24
5658.66
5658.28
5658.11
5657.51
5663.83
5662.41
5661.15
5660.16
5659.44
5658.99
5658.71
5658.55
5665.79
5664.28
5662.71
5661.46
5660.53
5659.93
5659.56
5659.52
5615.96
5666.2
5664.4
5662.86
5661.66
5660.57
5660.54
5660.14
5475.34
5667.6
5665.59
5663.88
5662.67
5661.49
5661.35
5661.48
5494.63
5668.08
5666.11
5664.44
5663.24
5662.48
5662.22
5662.28
5616.77
5667.63
5666.03
5664.63
5663.59
5662.96
5662.74
5662.78
5666.33
5665.49
5664.7
5664.07
5663.61
5663.31
5663.17
5661.21
5667.7
5666.58
5665.6
5664.81
5664.24
5663.87
5663.63
5663.64
5669.22
5667.98
5666.79
5665.82
5665.09
5664.62
5664.29
5664.3
5595.98
5669.26
5667.94
5666.81
5665.82
5664.99
5665.06
5664.67
5369.43
5670.21
5668.86
5667.66
5666.72
5665.74
5665.73
5665.8
5371.74
5670.31
5669.23
5668.13
5667.29
5666.69
5666.46
5666.49
5577.61
5669.85
5668.96
5668.11
5667.48
5667.08
5666.94
5666.96
5667.22
5667.1
5666.95
5666.85
5666.79
5666.78
5666.84
5664.33
5667.3
5667.17
5667.07
5666.99
5666.95
5666.97
5667
5666.81
5667.24
5667.26
5667.22
5667.18
5667.17
5667.22
5667.23
5667.43
5527.92
5667.06
5667.21