/*--------------------------------*- C++ -*----------------------------------*\
| =========                 |                                                 |
| \\      /  F ield         | OpenFOAM: The Open Source CFD Toolbox           |
|  \\    /   O peration     | Version:  plus.master.MPPICInterFoam            |
|   \\  /    A nd           | Web:      www.OpenFOAM.com                      |
|    \\/     M anipulation  |                                                 |
\*---------------------------------------------------------------------------*/
FoamFile
{
    version     2.0;
    format      ascii;
    class       surfaceScalarField;
    location    "12.4";
    object      phi;
}
// * * * * * * * * * * * * * * * * * * * * * * * * * * * * * * * * * * * * * //

dimensions      [0 3 -1 0 0 0 0];

internalField   nonuniform List<scalar> 
34018
(
3.4657e-07
6.11842e-06
3.52014e-07
4.80897e-07
6.2865e-07
7.60958e-06
4.81739e-07
6.01013e-06
3.35072e-07
4.51453e-07
8.54886e-06
9.4876e-07
3.55451e-07
7.03463e-06
7.07719e-07
5.61156e-06
2.62578e-07
5.26617e-07
-5.38338e-07
-3.26952e-07
7.39264e-06
5.89575e-07
2.56383e-07
-4.00949e-07
-4.04478e-07
7.58667e-06
2.99226e-07
-2.40534e-07
-3.99754e-07
7.36264e-06
3.0221e-07
-1.2123e-07
-2.95223e-07
6.76087e-06
2.39694e-07
-5.41296e-08
-1.74781e-07
5.89889e-06
1.57741e-07
-1.68252e-08
-8.79212e-08
4.91384e-06
9.02617e-08
-2.31899e-08
3.90142e-06
7.52672e-09
2.96072e-08
-6.79328e-07
-3.94948e-07
9.01193e-06
7.81814e-07
-4.36841e-07
-4.75631e-07
9.33671e-06
-1.88973e-07
-4.51382e-07
9.07017e-06
-4.0433e-08
-3.10571e-07
8.2442e-06
1.83248e-08
-1.52298e-07
7.11135e-06
3.57811e-08
-5.02083e-08
5.88403e-06
1.44245e-08
4.67437e-06
3.8668e-08
-7.57452e-07
-3.24329e-07
1.08378e-05
1.05369e-06
-4.06603e-07
-1.17197e-07
1.18955e-05
-6.71016e-08
-1.09735e-07
1.14564e-05
1.35818e-07
-1.68385e-07
9.83102e-06
1.544e-07
-2.50341e-08
8.27733e-06
1.24893e-07
5.95771e-08
6.76832e-06
9.72445e-08
5.35064e-06
9.61072e-08
-5.05049e-07
6.80421e-08
1.26633e-05
1.36786e-06
-2.82484e-07
-1.09677e-07
1.60696e-05
-6.97384e-08
6.59519e-08
1.51755e-05
3.27507e-07
1.79278e-07
1.14867e-05
2.9674e-07
2.40662e-07
9.2051e-06
2.13336e-07
2.47808e-07
7.42636e-06
2.22839e-07
5.84333e-06
1.50183e-07
-5.41475e-07
6.4766e-07
1.34131e-05
1.4809e-06
-1.39407e-07
4.02858e-07
1.69482e-05
-8.84796e-08
2.78659e-07
1.67686e-05
3.59933e-07
5.41817e-07
1.2197e-05
3.21453e-07
5.28483e-07
9.58846e-06
2.30948e-07
4.3275e-07
7.70906e-06
3.43428e-07
6.0647e-06
1.64134e-07
-8.80393e-07
1.0562e-06
1.23169e-05
1.33901e-06
-3.07708e-07
1.19708e-06
1.41751e-05
5.40241e-08
1.12533e-06
1.37696e-05
3.1674e-07
9.66435e-07
1.13429e-05
2.65318e-07
7.22447e-07
9.31531e-06
1.91358e-07
5.59626e-07
7.55641e-06
4.23138e-07
5.97944e-06
1.42416e-07
-7.61867e-07
1.07521e-05
8.74644e-07
9.02691e-07
-3.66515e-07
1.14359e-05
1.1592e-06
-5.72067e-08
1.12387e-05
1.13494e-06
8.21276e-08
1.00298e-05
9.31144e-07
1.08784e-07
8.52985e-06
7.1458e-07
1.07984e-07
7.03178e-06
5.63331e-07
5.61006e-06
1.07685e-07
4.25239e-07
-4.51179e-07
2.41544e-07
7.33036e-06
3.86433e-07
-1.14509e-07
-4.25248e-07
1.96553e-07
7.49123e-06
-1.26856e-07
-3.50597e-07
1.46109e-07
7.24149e-06
-9.9587e-08
-2.82923e-07
1.49487e-07
6.63277e-06
-8.91217e-08
-2.12826e-07
1.25006e-07
5.77704e-06
-7.33387e-08
-1.45082e-07
1.00766e-07
4.80788e-06
-6.23921e-08
9.01666e-08
3.81884e-06
-8.60047e-08
-6.64452e-08
-6.03049e-07
3.35804e-07
9.02608e-06
4.94662e-07
-5.30001e-07
1.786e-07
9.28182e-06
-4.06564e-07
1.21913e-07
8.97095e-06
-3.31321e-07
2.04575e-07
8.11399e-06
-2.49361e-07
1.81119e-07
6.97308e-06
-1.69252e-07
1.48745e-07
5.75601e-06
1.2787e-07
4.57044e-06
-1.02571e-07
-8.13494e-07
2.91924e-07
1.10835e-05
6.11879e-07
-6.20918e-07
-3.81869e-08
1.19199e-05
-3.78611e-07
-1.16004e-08
1.13472e-05
-3.29129e-07
2.23228e-07
9.76324e-06
-2.55982e-07
2.47876e-07
8.13753e-06
-1.75859e-07
2.14219e-07
6.6228e-06
1.8002e-07
5.22896e-06
-1.0616e-07
-1.45925e-06
4.16959e-07
1.30522e-05
9.45294e-07
-7.03237e-07
5.19221e-07
1.47565e-05
-1.04172e-07
4.88748e-07
1.40761e-05
-2.12694e-07
4.56696e-07
1.13619e-05
-2.24e-07
3.9358e-07
9.07078e-06
-1.68729e-07
3.15001e-07
7.27015e-06
2.47053e-07
5.71161e-06
-1.04097e-07
-1.54201e-06
8.3551e-07
1.34385e-05
1.09787e-06
-7.38251e-07
1.22297e-06
1.54415e-05
-7.70451e-08
1.22142e-06
1.53744e-05
-2.34569e-07
6.93514e-07
1.21175e-05
-2.58253e-07
5.18502e-07
9.48686e-06
-1.89318e-07
3.91134e-07
7.56396e-06
2.9653e-07
5.93762e-06
-1.11583e-07
-1.12082e-06
5.78714e-07
1.29459e-05
7.48684e-07
-6.1487e-07
9.94635e-07
1.38978e-05
-3.61439e-07
9.69516e-07
1.37682e-05
-4.05516e-07
6.22099e-07
1.14586e-05
-3.34153e-07
4.64873e-07
9.29757e-06
-2.15982e-07
3.89401e-07
7.44011e-06
3.05177e-07
5.8699e-06
-1.1495e-07
-6.05807e-07
1.13051e-05
3.94562e-07
2.37362e-07
-5.89499e-07
1.20012e-05
4.13132e-07
-5.49996e-07
1.17448e-05
4.24301e-07
-4.90663e-07
1.02425e-05
3.50255e-07
-3.50055e-07
8.50474e-06
3.49614e-07
-2.08295e-07
6.94311e-06
3.36511e-07
5.5256e-06
-8.83452e-08
2.69831e-07
-3.37852e-07
4.20124e-07
7.20413e-06
2.53156e-07
-2.09166e-07
-3.92465e-07
4.88744e-07
7.34171e-06
-2.84258e-07
-3.73371e-07
3.93273e-07
7.07418e-06
-2.45088e-07
-3.20256e-07
3.06868e-07
6.46186e-06
-1.89075e-07
-2.43069e-07
2.17098e-07
5.61811e-06
-1.3525e-07
-1.63061e-07
1.5003e-07
4.67531e-06
-9.70761e-08
1.11319e-07
3.72069e-06
-9.38424e-08
-8.19819e-08
-4.45762e-07
5.90481e-07
8.9898e-06
3.11622e-07
-5.41679e-07
6.29719e-07
9.23676e-06
-4.93814e-07
4.439e-07
8.8727e-06
-4.29186e-07
4.08668e-07
7.94823e-06
-3.24093e-07
2.98242e-07
6.78715e-06
-2.13637e-07
2.06205e-07
5.58967e-06
1.49655e-07
4.44279e-06
-1.2368e-07
-8.15447e-07
6.21122e-07
1.1514e-05
3.54511e-07
-6.53439e-07
2.34968e-07
1.21529e-05
-5.30867e-07
1.8589e-07
1.14827e-05
-5.14932e-07
4.22162e-07
9.7341e-06
-3.96604e-07
3.58842e-07
7.95899e-06
-2.59101e-07
2.59397e-07
6.43227e-06
1.90348e-07
5.07727e-06
-1.47852e-07
-1.48907e-06
7.08729e-07
1.38847e-05
5.69202e-07
-7.68144e-07
7.64721e-07
1.35063e-05
-2.72586e-07
5.73918e-07
1.31929e-05
-5.25916e-07
5.46649e-07
1.14906e-05
-4.62733e-07
4.36542e-07
8.93001e-06
-3.02612e-07
3.03103e-07
7.06652e-06
2.23633e-07
5.54503e-06
-1.69186e-07
-1.53407e-06
6.29417e-07
1.44941e-05
5.57814e-07
-1.05787e-06
1.23359e-06
1.44963e-05
-2.93996e-07
1.36644e-06
1.38182e-05
-7.13401e-07
7.22026e-07
1.23621e-05
-5.57072e-07
3.80232e-07
9.38696e-06
-3.4633e-07
2.93962e-07
7.36245e-06
2.28895e-07
5.77006e-06
-1.83925e-07
-8.16103e-07
2.19517e-07
1.38693e-05
3.02829e-07
-9.62001e-07
4.70814e-07
1.48065e-05
-7.24491e-07
5.8609e-07
1.43111e-05
-7.29308e-07
3.16454e-07
1.18691e-05
-5.42437e-07
2.73647e-07
9.21738e-06
-3.21757e-07
2.57648e-07
7.25589e-06
2.18308e-07
5.71765e-06
-1.58791e-07
-3.55979e-07
1.17303e-05
1.61978e-07
-1.14051e-08
-6.97318e-07
1.28666e-05
-5.33718e-08
-7.46896e-07
1.23357e-05
4.53643e-08
-6.44332e-07
1.03674e-05
8.92785e-08
-4.37402e-07
8.38748e-06
1.84166e-07
-2.49668e-07
6.78722e-06
2.25996e-07
5.40272e-06
-1.02693e-07
1.94267e-07
-2.58249e-07
1.27923e-07
7.08536e-06
2.52343e-07
-3.21239e-09
-3.11647e-07
3.00494e-07
7.19146e-06
-9.67236e-08
-2.81074e-07
1.98401e-07
6.912e-06
-6.67648e-08
-2.07054e-07
1.11179e-07
6.30583e-06
-2.89876e-08
-1.2869e-07
7.02749e-08
5.48261e-06
-1.30487e-08
-6.15541e-08
4.58346e-08
4.57039e-06
-7.91296e-09
3.70868e-08
3.64989e-06
-1.21847e-08
-1.54714e-08
-2.70765e-07
2.40795e-07
8.84333e-06
3.04412e-07
-4.42248e-07
6.25735e-07
9.08303e-06
-3.86567e-07
3.3525e-07
8.68034e-06
-2.78495e-07
2.09564e-07
7.74246e-06
-1.69197e-07
1.45049e-07
6.60349e-06
-7.91391e-08
9.95848e-08
5.44611e-06
7.46885e-08
4.34392e-06
-1.76392e-08
-4.58152e-07
3.46707e-07
1.15249e-05
3.41501e-07
-4.31859e-07
6.54384e-07
1.20985e-05
-4.7394e-07
4.78241e-07
1.13821e-05
-3.33064e-07
2.96169e-07
9.50685e-06
-1.97075e-07
2.31198e-07
7.7373e-06
-8.91368e-08
1.67867e-07
6.25625e-06
1.24242e-07
4.95526e-06
-1.66064e-08
-3.31689e-07
3.4094e-07
1.39676e-05
2.55032e-07
-5.98729e-07
2.96321e-07
1.41324e-05
-6.32879e-07
1.7591e-07
1.35297e-05
-4.15968e-07
2.05481e-07
1.13641e-05
-2.61011e-07
3.11071e-07
8.69536e-06
-1.15092e-07
2.19015e-07
6.86971e-06
1.66542e-07
5.40849e-06
-2.06952e-08
-6.86179e-07
2.51352e-07
1.49613e-05
3.08914e-07
-7.52558e-07
2.64687e-07
1.45942e-05
-6.88017e-07
1.90051e-07
1.37399e-05
-7.37227e-07
3.76878e-07
1.22403e-05
-3.74311e-07
1.78448e-07
9.15697e-06
-1.52389e-07
1.9882e-07
7.16081e-06
1.78076e-07
5.63212e-06
-2.59438e-08
-4.89836e-07
1.17451e-07
1.4191e-05
3.02025e-07
-6.68468e-07
9.7758e-08
1.51523e-05
-5.02323e-07
1.04324e-07
1.42312e-05
-3.85644e-07
2.0449e-07
1.19252e-05
-2.19533e-07
2.4245e-07
8.98746e-06
-7.88575e-08
2.37148e-07
7.077e-06
2.05555e-07
5.59742e-06
1.3994e-08
-3.0003e-07
1.15857e-05
3.08282e-07
2.54105e-07
-4.59758e-07
1.29209e-05
2.03151e-07
-3.86687e-07
1.2155e-05
2.12247e-07
-2.51722e-07
1.01346e-05
3.02545e-07
-1.18311e-07
8.20119e-06
2.95421e-07
-2.03456e-08
6.64888e-06
2.77626e-07
5.31382e-06
5.39066e-08
2.20244e-07
-2.71108e-07
-2.09858e-07
7.02167e-06
3.28307e-07
2.16362e-07
-2.36269e-07
-1.16804e-07
7.1e-06
1.73242e-07
-1.59401e-07
-1.46062e-07
6.80644e-06
1.74791e-07
-7.05924e-08
-1.45061e-07
6.20303e-06
1.59018e-07
-3.45535e-09
-1.01376e-07
5.39651e-06
1.20445e-07
4.1319e-08
-6.67005e-08
4.50752e-06
8.47436e-08
-3.86319e-08
3.6119e-06
6.6953e-08
5.08557e-08
-2.93336e-07
-1.83402e-07
8.6918e-06
4.18472e-07
-2.85677e-07
5.79437e-08
8.90052e-06
-1.92909e-07
-4.07767e-08
8.48245e-06
-6.51878e-08
-1.03817e-07
7.57335e-06
1.53305e-08
-5.05395e-08
6.47215e-06
6.36477e-08
-2.17493e-08
5.35277e-06
-2.88113e-09
4.285e-06
8.64926e-08
-2.75872e-07
-2.95842e-08
1.11206e-05
5.26306e-07
-3.03268e-07
3.16937e-07
1.18668e-05
-2.14259e-07
2.35936e-07
1.10168e-05
-2.28357e-08
7.13919e-09
9.20451e-06
6.14857e-08
5.24389e-08
7.55001e-06
1.0131e-07
5.99608e-08
6.13463e-06
5.78752e-08
4.87911e-06
1.16574e-07
-1.15441e-07
-1.31872e-07
1.37505e-05
4.34839e-07
-3.59363e-07
-1.05186e-08
1.47035e-05
-4.27234e-07
1.24307e-07
1.37092e-05
-3.40809e-08
3.41284e-08
1.09439e-05
7.63638e-08
1.77699e-07
8.45984e-06
1.22239e-07
1.53023e-07
6.73084e-06
1.27026e-07
5.32266e-06
1.38934e-07
-3.19348e-07
1.77128e-07
1.46393e-05
3.32484e-07
-3.74345e-07
-1.39271e-07
1.47782e-05
-5.81917e-07
-2.28188e-07
1.43001e-05
-2.57049e-07
1.56856e-07
1.17926e-05
1.2312e-08
1.62118e-07
8.90333e-06
1.0858e-07
1.96952e-07
7.02066e-06
1.75577e-07
5.54741e-06
1.44716e-07
-3.85713e-07
3.19139e-07
1.38403e-05
5.94268e-07
-2.60172e-07
4.54711e-08
1.48422e-05
-2.8766e-07
6.36762e-08
1.3967e-05
6.12739e-08
3.79429e-07
1.13537e-05
1.30862e-07
3.36023e-07
8.74398e-06
1.56677e-07
2.94094e-07
6.95402e-06
2.3575e-07
5.52638e-06
1.675e-07
-3.21759e-07
1.12034e-05
4.93486e-07
5.29486e-07
-1.73825e-07
1.22388e-05
5.79548e-07
-6.80969e-08
1.15657e-05
5.47005e-07
8.59416e-08
9.79708e-06
5.62939e-07
1.3698e-07
8.04379e-06
4.42348e-07
1.58284e-07
6.56295e-06
3.58656e-07
5.26749e-06
1.75357e-07
2.64937e-07
-2.94419e-07
-2.39846e-07
6.97266e-06
3.50596e-07
2.32654e-07
-2.18829e-07
-2.24993e-07
7.02482e-06
2.24362e-07
-1.22886e-07
-2.25727e-07
6.7167e-06
2.19541e-07
-3.59807e-08
-1.84808e-07
6.11475e-06
1.86195e-07
2.46671e-08
-1.27443e-07
5.32321e-06
1.40122e-07
6.31516e-08
-8.59661e-08
4.45428e-06
1.00571e-07
-5.53142e-08
3.57996e-06
8.43264e-08
6.57882e-08
-3.44298e-07
-2.35441e-07
8.57562e-06
4.56063e-07
-2.45421e-07
-1.59261e-07
8.7359e-06
-1.25621e-07
-1.80314e-07
8.31716e-06
-1.36554e-08
-1.55408e-07
7.43147e-06
5.23563e-08
-8.52223e-08
6.36371e-06
8.89176e-08
-4.44086e-08
5.27447e-06
-2.09521e-08
4.23406e-06
1.05154e-07
-3.15954e-07
-1.28894e-07
1.07439e-05
5.85953e-07
-2.3382e-07
1.04128e-07
1.1521e-05
-6.85384e-08
1.19957e-08
1.06593e-05
6.39021e-08
-3.8128e-08
8.9546e-06
1.12661e-07
1.75304e-08
7.39823e-06
1.3248e-07
3.79812e-08
6.03224e-06
4.09663e-08
4.81194e-06
1.37578e-07
-2.10534e-07
-3.39132e-08
1.32186e-05
6.47143e-07
-1.12139e-07
1.39862e-07
1.45685e-05
-8.08635e-08
2.20682e-07
1.3469e-05
1.09503e-07
1.602e-07
1.05554e-05
1.57858e-07
1.63132e-07
8.26583e-06
1.66056e-07
1.47555e-07
6.61293e-06
1.19138e-07
5.2463e-06
1.64172e-07
9.1812e-08
1.50547e-07
1.38891e-05
4.7383e-07
-1.81981e-07
-6.98211e-08
1.52615e-05
-4.20536e-07
-7.11735e-09
1.47661e-05
-9.47591e-09
1.57785e-07
1.13835e-05
1.23931e-07
2.3963e-07
8.69335e-06
1.59633e-07
2.28197e-07
6.90428e-06
1.83705e-07
5.47254e-06
1.69907e-07
-1.84047e-07
4.51177e-07
1.30265e-05
6.97368e-07
-8.24577e-08
9.37784e-08
1.45767e-05
-1.12788e-07
3.48456e-07
1.36415e-05
1.0555e-07
4.57067e-07
1.08359e-05
1.53945e-07
3.76317e-07
8.55883e-06
1.66885e-07
3.17412e-07
6.85179e-06
2.41713e-07
5.46187e-06
1.7329e-07
-2.64601e-07
1.09272e-05
4.7716e-07
5.14394e-07
-2.09664e-07
1.17054e-05
5.72329e-07
-6.21299e-08
1.11592e-05
6.07126e-07
6.35543e-08
9.56484e-06
5.63423e-07
1.11932e-07
7.92876e-06
4.42846e-07
1.42832e-07
6.49156e-06
3.57775e-07
5.2232e-06
1.71049e-07
2.57693e-07
-2.98388e-07
-6.5137e-08
6.90696e-06
3.08721e-07
1.20477e-07
-2.37295e-07
-9.14831e-08
6.93342e-06
1.21756e-07
-1.50139e-07
-1.10184e-07
6.61132e-06
1.28384e-07
-7.29553e-08
-8.51143e-08
6.0112e-06
1.11468e-07
-1.06163e-08
-6.46955e-08
5.23488e-06
9.06536e-08
3.50892e-08
-5.01978e-08
4.38794e-06
7.07073e-08
-3.73886e-08
3.53831e-06
6.40831e-08
4.98439e-08
-3.89985e-07
-6.54214e-09
8.50045e-06
4.06489e-07
-2.98889e-07
-5.04353e-08
8.60378e-06
-1.82856e-07
-8.10605e-08
8.17179e-06
-8.40556e-08
-4.12038e-08
7.28842e-06
-9.65208e-09
-1.86328e-08
6.24302e-06
4.20545e-08
-9.25969e-09
5.18174e-06
-5.19693e-09
4.17086e-06
7.30467e-08
-4.67943e-07
4.01472e-08
1.06519e-05
5.13295e-07
-3.30542e-07
9.1691e-08
1.12412e-05
-1.48306e-07
-1.99948e-08
1.04159e-05
-4.99427e-08
3.92156e-08
8.77545e-06
1.68279e-08
6.62162e-08
7.24637e-06
6.37215e-08
6.01273e-08
5.91588e-06
4.78115e-08
4.73066e-06
9.19553e-08
-4.90272e-07
1.32244e-07
1.28754e-05
7.41282e-07
-3.83959e-07
1.56511e-07
1.43968e-05
-5.98472e-08
1.29546e-07
1.29954e-05
5.26694e-09
2.22297e-07
1.03074e-05
5.06135e-08
1.93428e-07
8.09305e-06
8.5032e-08
1.56214e-07
6.48221e-06
1.1561e-07
5.15449e-06
1.0893e-07
-5.32811e-07
3.25653e-07
1.3374e-05
8.54303e-07
-4.92157e-07
3.30295e-07
1.50466e-05
-1.99642e-07
4.99117e-07
1.41036e-05
-5.27497e-08
3.29707e-07
1.1129e-05
2.59668e-08
2.86137e-07
8.52175e-06
7.66107e-08
2.33542e-07
6.77621e-06
1.73056e-07
5.38118e-06
1.10486e-07
-4.42187e-07
4.96286e-07
1.25034e-05
7.94669e-07
-3.211e-07
5.16047e-07
1.42697e-05
-1.42915e-07
5.72991e-07
1.33888e-05
-6.76436e-08
4.4089e-07
1.06493e-05
4.68748e-09
3.47871e-07
8.42466e-06
6.38578e-08
2.87515e-07
6.73859e-06
2.11432e-07
5.3801e-06
1.07209e-07
-3.78127e-07
1.10445e-05
4.15527e-07
3.41415e-07
-3.27224e-07
1.1717e-05
4.53785e-07
-2.29058e-07
1.11648e-05
4.6912e-07
-1.33135e-07
9.50888e-06
4.00776e-07
-3.29278e-08
7.82942e-06
3.46918e-07
4.78492e-08
6.40316e-06
2.95081e-07
5.15974e-06
1.13097e-07
2.09616e-07
-2.62821e-07
5.36072e-08
6.82111e-06
2.44818e-07
5.02419e-08
-2.28958e-07
3.41812e-08
6.8268e-06
3.86896e-08
-1.66087e-07
6.8793e-09
6.4924e-06
4.90666e-08
-9.98324e-08
-2.89045e-09
5.8953e-06
5.2397e-08
-3.56648e-08
-1.78414e-08
5.13482e-06
5.36056e-08
1.612e-08
-2.53335e-08
4.31209e-06
4.94293e-08
-2.5775e-08
3.49121e-06
5.02652e-08
3.8824e-08
-3.78214e-07
1.76342e-07
8.42752e-06
3.28306e-07
-3.27578e-07
9.67786e-08
8.49038e-06
-2.37727e-07
6.13531e-08
8.02734e-06
-1.43236e-07
5.52103e-08
7.13597e-06
-5.78728e-08
3.13286e-08
6.10841e-06
8.72241e-09
1.34465e-08
5.07636e-06
3.14438e-09
4.10002e-06
5.08859e-08
-5.73609e-07
2.51629e-07
1.07449e-05
4.05242e-07
-4.41441e-07
8.51183e-08
1.11206e-05
-2.75524e-07
4.77748e-08
1.02632e-05
-1.57177e-07
1.09956e-07
8.60224e-06
-6.18491e-08
9.94129e-08
7.08295e-06
1.17554e-08
6.98379e-08
5.78585e-06
4.64872e-08
4.64027e-06
5.88278e-08
-1.02747e-06
4.40824e-07
1.30548e-05
6.58773e-07
-5.24685e-07
3.21272e-07
1.36578e-05
-1.76939e-07
2.70853e-07
1.24245e-05
-1.34835e-07
2.54171e-07
1.01208e-05
-5.34947e-08
1.97904e-07
7.91304e-06
1.79335e-08
1.42643e-07
6.33786e-06
9.94812e-08
5.0527e-06
6.66371e-08
-1.24012e-06
4.53594e-07
1.38458e-05
7.55354e-07
-6.90253e-07
6.11052e-07
1.42066e-05
-2.77188e-07
6.5442e-07
1.33068e-05
-1.96058e-07
3.84968e-07
1.09172e-05
-8.2072e-08
2.54272e-07
8.35125e-06
5.56258e-09
1.98804e-07
6.6323e-06
1.41868e-07
5.27819e-06
6.60846e-08
-1.0319e-06
2.39493e-07
1.31651e-05
5.84037e-07
-6.88749e-07
5.03684e-07
1.40337e-05
-3.49602e-07
5.0885e-07
1.31949e-05
-2.32644e-07
3.19329e-07
1.05979e-05
-1.05119e-07
2.71586e-07
8.27969e-06
-2.92768e-09
2.28388e-07
6.60673e-06
1.65965e-07
5.28583e-06
6.72066e-08
-4.82375e-07
1.13062e-05
3.12342e-07
1.48071e-07
-5.02162e-07
1.19954e-05
2.44866e-07
-3.78999e-07
1.12698e-05
2.8087e-07
-2.5531e-07
9.45672e-06
2.47777e-07
-1.10672e-07
7.70954e-06
2.46788e-07
1.36392e-09
6.29282e-06
2.26665e-07
5.08338e-06
8.34939e-08
1.60161e-07
-1.92001e-07
-1.85836e-09
6.7323e-06
1.95422e-07
8.72554e-08
-1.79733e-07
4.51693e-08
6.71844e-06
5.1035e-08
-1.36212e-07
1.81542e-08
6.37553e-06
5.51459e-08
-7.67798e-08
-8.9106e-09
5.78309e-06
6.1637e-08
-1.63659e-08
-2.75329e-08
5.03876e-06
6.3152e-08
3.18119e-08
-3.64562e-08
4.24169e-06
5.88235e-08
-3.7046e-08
3.4499e-06
6.2099e-08
4.82687e-08
-2.56183e-07
1.01817e-07
8.32237e-06
2.57619e-07
-2.70758e-07
1.78059e-07
8.37197e-06
-2.11773e-07
1.09317e-07
7.87721e-06
-1.24905e-07
5.87783e-08
6.98171e-06
-4.0758e-08
2.27486e-08
5.9741e-06
2.44401e-08
-1.41762e-12
4.97477e-06
-1.08696e-08
4.03503e-06
6.34365e-08
-4.32242e-07
2.09695e-07
1.07681e-05
3.01233e-07
-3.6146e-07
1.19687e-07
1.11082e-05
-2.75017e-07
1.59304e-07
1.01266e-05
-1.57825e-07
1.23846e-07
8.42002e-06
-5.21825e-08
8.38652e-08
6.91636e-06
2.5132e-08
5.07699e-08
5.65781e-06
2.81028e-08
4.55555e-06
7.08912e-08
-7.51275e-07
4.03544e-07
1.32103e-05
4.01891e-07
-3.60006e-07
3.64115e-07
1.30225e-05
-3.12046e-07
1.98355e-07
1.23374e-05
-1.78654e-07
1.69436e-07
9.94145e-06
-6.29425e-08
1.52858e-07
7.72831e-06
2.48209e-08
1.06863e-07
6.19406e-06
7.20292e-08
4.95633e-06
7.72546e-08
-8.18674e-07
3.55593e-07
1.4257e-05
4.55337e-07
-5.80103e-07
3.69508e-07
1.39626e-05
-3.78402e-07
2.87282e-07
1.30162e-05
-2.70928e-07
2.24777e-07
1.07545e-05
-9.54735e-08
1.5823e-07
8.17039e-06
1.54648e-08
1.42784e-07
6.4854e-06
1.06317e-07
5.17997e-06
7.93341e-08
-7.29653e-07
1.25488e-07
1.3764e-05
3.60535e-07
-5.92788e-07
1.95874e-07
1.40706e-05
-3.75148e-07
1.99294e-07
1.30653e-05
-2.20773e-07
1.61611e-07
1.05066e-05
-7.88324e-08
1.88846e-07
8.1071e-06
2.40577e-08
1.75575e-07
6.47102e-06
1.32285e-07
5.19624e-06
8.76452e-08
-3.26097e-07
1.13684e-05
2.37425e-07
1.52056e-07
-4.07458e-07
1.21067e-05
1.65581e-07
-3.11816e-07
1.12043e-05
1.69279e-07
-1.90574e-07
9.30315e-06
1.94051e-07
-5.96778e-08
7.56482e-06
2.02672e-07
3.67694e-08
6.18047e-06
1.91472e-07
5.0118e-06
1.05311e-07
1.35284e-07
-1.57868e-07
-1.39157e-07
6.66099e-06
1.94343e-07
1.73998e-07
-1.30031e-07
-8.05643e-08
6.6281e-06
1.43094e-07
-7.82334e-08
-9.4029e-08
6.27919e-06
1.38645e-07
-1.86854e-08
-9.535e-08
5.69143e-06
1.27556e-07
3.42256e-08
-8.72643e-08
4.96301e-06
1.102e-07
7.13543e-08
-7.68607e-08
4.18953e-06
9.19292e-08
-6.51619e-08
3.42275e-06
9.13004e-08
7.23787e-08
-1.76552e-07
-9.31597e-08
8.20405e-06
2.48959e-07
-1.8648e-07
6.16294e-08
8.2398e-06
-1.23306e-07
-1.08684e-08
7.73105e-06
-3.96232e-08
-4.19075e-08
6.84475e-06
3.04037e-08
-4.4714e-08
5.86163e-06
7.78768e-08
-4.42141e-08
4.8947e-06
-4.1151e-08
3.98718e-06
1.01633e-07
-1.94341e-07
-2.44494e-08
1.06018e-05
2.91937e-07
-2.15345e-07
1.71802e-07
1.10192e-05
-1.48039e-07
1.21256e-07
9.92743e-06
-3.98757e-08
4.15153e-08
8.22872e-06
4.20079e-08
2.1799e-08
6.76807e-06
9.37725e-08
8.77134e-09
5.55302e-06
-7.40992e-10
4.49024e-06
1.18604e-07
-8.46506e-08
-3.75718e-08
1.30606e-05
2.47746e-07
-2.87874e-07
-6.3704e-09
1.34041e-05
-2.45591e-07
8.89981e-08
1.23274e-05
-6.05184e-08
7.08371e-08
9.72701e-06
4.61391e-08
8.79703e-08
7.55567e-06
1.05137e-07
6.97842e-08
6.07418e-06
4.75844e-08
4.88044e-06
1.32759e-07
-1.27295e-07
1.38979e-07
1.40163e-05
1.91588e-07
-2.57516e-07
8.60972e-09
1.40781e-05
-2.85253e-07
-3.9549e-08
1.31726e-05
-1.16e-07
9.58287e-08
1.05604e-05
3.0445e-08
1.19909e-07
7.99221e-06
1.0406e-07
1.19504e-07
6.36216e-06
9.02757e-08
5.10234e-06
1.39039e-07
-1.78399e-07
2.19442e-07
1.352e-05
3.42071e-07
-2.28295e-07
4.47503e-08
1.40846e-05
-2.05216e-07
5.60387e-08
1.2947e-05
-5.35251e-08
1.55589e-07
1.02953e-05
5.08785e-08
1.87383e-07
7.93532e-06
1.11373e-07
1.7201e-07
6.35809e-06
1.27383e-07
5.12612e-06
1.44429e-07
-1.13802e-07
1.11723e-05
2.4976e-07
2.7958e-07
-1.40769e-07
1.18954e-05
2.83109e-07
-1.23085e-07
1.09934e-05
2.49368e-07
-4.05575e-08
9.11484e-06
2.61478e-07
4.77063e-08
7.4312e-06
2.32821e-07
1.08501e-07
6.08982e-06
2.01912e-07
4.95771e-06
1.50499e-07
1.39487e-07
-1.69552e-07
-2.158e-07
6.60547e-06
2.15853e-07
2.25038e-07
-1.08299e-07
-2.09733e-07
6.55589e-06
2.20628e-07
-3.58062e-08
-2.0701e-07
6.20174e-06
2.12068e-07
2.73539e-08
-1.74314e-07
5.61977e-06
1.82929e-07
7.34637e-08
-1.38632e-07
4.90702e-06
1.48614e-07
1.01374e-07
-1.10142e-07
4.15368e-06
1.18048e-07
-8.71614e-08
3.40781e-06
1.12672e-07
9.06154e-08
-2.14061e-07
-1.86861e-07
8.10155e-06
2.87732e-07
-1.43059e-07
-1.50826e-07
8.11004e-06
-5.04754e-08
-1.67551e-07
7.59914e-06
3.44704e-08
-1.43512e-07
6.72881e-06
8.9453e-08
-1.05126e-07
5.77312e-06
1.20427e-07
-8.14949e-08
4.83506e-06
-6.53254e-08
3.95462e-06
1.30937e-07
-2.44021e-07
-1.26439e-07
1.04162e-05
3.69287e-07
-1.58175e-07
-3.46655e-08
1.08173e-05
-1.84191e-08
-5.98839e-08
9.68034e-06
7.76331e-08
-5.12626e-08
8.04049e-06
1.26607e-07
-3.01256e-08
6.64406e-06
1.51327e-07
-2.45237e-08
5.47136e-06
-2.3074e-08
4.44249e-06
1.56799e-07
-1.7164e-07
-1.36113e-07
1.28246e-05
4.17372e-07
-2.21573e-07
-8.91346e-08
1.35084e-05
-1.73089e-08
1.20948e-07
1.19426e-05
9.35995e-08
8.79843e-08
9.47719e-06
1.55738e-07
6.23774e-08
7.40117e-06
1.76664e-07
5.15139e-08
5.97726e-06
3.2797e-08
4.82269e-06
1.78597e-07
5.36007e-08
6.47267e-08
1.33878e-05
3.74287e-07
-5.67253e-08
2.75897e-08
1.4072e-05
-1.56778e-07
5.96579e-08
1.33342e-05
6.01512e-08
1.1005e-07
1.03212e-05
1.51362e-07
1.41875e-07
7.8216e-06
1.8049e-07
1.23408e-07
6.26124e-06
8.61961e-08
5.04246e-06
1.87062e-07
-1.2501e-07
2.80257e-07
1.29549e-05
4.75076e-07
-1.65191e-08
1.64718e-07
1.38391e-05
-1.29457e-09
2.71723e-07
1.272e-05
8.60429e-08
2.67445e-07
1.00507e-05
1.49997e-07
2.30073e-07
7.7833e-06
1.76184e-07
1.88598e-07
6.26679e-06
1.3082e-07
5.07249e-06
1.85265e-07
-1.17111e-07
1.0982e-05
2.85875e-07
3.01732e-07
-1.12906e-07
1.16751e-05
3.81217e-07
-3.4294e-08
1.08015e-05
3.84782e-07
4.90893e-08
8.95024e-06
3.48724e-07
1.13871e-07
7.32084e-06
2.75697e-07
1.54201e-07
6.01888e-06
2.19261e-07
4.91772e-06
1.79724e-07
1.45341e-07
-1.76125e-07
-1.95096e-07
6.5539e-06
2.12659e-07
2.10137e-07
-1.05709e-07
-2.19502e-07
6.48823e-06
2.16704e-07
-2.87512e-08
-2.13587e-07
6.12996e-06
2.08412e-07
3.37827e-08
-1.7898e-07
5.55588e-06
1.80333e-07
7.67648e-08
-1.41035e-07
4.85855e-06
1.46514e-07
1.01741e-07
-1.11179e-07
4.12376e-06
1.16021e-07
-8.77249e-08
3.39693e-06
1.10964e-07
8.92869e-08
-2.55462e-07
-1.54249e-07
8.01195e-06
3.04225e-07
-1.50403e-07
-1.96829e-07
7.98235e-06
-4.28107e-08
-1.9556e-07
7.47351e-06
4.50444e-08
-1.63283e-07
6.62513e-06
9.51074e-08
-1.13873e-07
5.69583e-06
1.21521e-07
-8.64897e-08
4.78387e-06
-6.89672e-08
3.92784e-06
1.29437e-07
-3.91446e-07
-6.21885e-08
1.02765e-05
4.39116e-07
-1.71909e-07
-1.53375e-07
1.05543e-05
1.32017e-08
-1.3081e-07
9.43048e-06
1.00334e-07
-8.3255e-08
7.87322e-06
1.35606e-07
-3.96873e-08
6.53457e-06
1.53153e-07
-3.27631e-08
5.4001e-06
-3.04983e-08
4.40176e-06
1.55423e-07
-5.70222e-07
3.50069e-08
1.26467e-05
6.51002e-07
-2.92039e-07
6.53223e-08
1.30113e-05
3.40666e-08
7.55828e-08
1.14102e-05
1.2695e-07
8.6001e-08
9.21531e-06
1.68752e-07
5.76673e-08
7.26195e-06
1.79505e-07
4.23837e-08
5.89129e-06
2.2158e-08
4.7724e-06
1.77116e-07
-6.07295e-07
2.09737e-07
1.30599e-05
7.6043e-07
-3.92024e-07
3.38228e-07
1.35838e-05
-1.63585e-08
4.27609e-07
1.26065e-05
1.12439e-07
2.0375e-07
1.00746e-05
1.70305e-07
1.54749e-07
7.66663e-06
1.85231e-07
1.17067e-07
6.17162e-06
7.44053e-08
4.98991e-06
1.85585e-07
-4.057e-07
3.34112e-07
1.25371e-05
6.99207e-07
-2.3705e-07
4.48544e-07
1.356e-05
2.30614e-09
4.91453e-07
1.24166e-05
1.07445e-07
3.34654e-07
9.81476e-06
1.56757e-07
2.36631e-07
7.65206e-06
1.76922e-07
1.77942e-07
6.18574e-06
1.16126e-07
5.0253e-06
1.82433e-07
-2.91698e-07
1.09863e-05
3.56063e-07
2.65448e-07
-2.27366e-07
1.1642e-05
4.17325e-07
-5.332e-08
1.06824e-05
4.36484e-07
4.86366e-08
8.8252e-06
3.57652e-07
1.15123e-07
7.22431e-06
2.66651e-07
1.53268e-07
5.9558e-06
2.02879e-07
4.88249e-06
1.75768e-07
1.28928e-07
-1.42063e-07
-1.40824e-07
6.49717e-06
1.69511e-07
1.70095e-07
-9.57794e-08
-1.34488e-07
6.41553e-06
1.60991e-07
-3.74321e-08
-1.3778e-07
6.05436e-06
1.54972e-07
1.97908e-08
-1.32582e-07
5.49003e-06
1.41125e-07
6.12056e-08
-1.11053e-07
4.80941e-06
1.18686e-07
8.66533e-08
-9.18046e-08
4.09353e-06
9.66779e-08
-7.54488e-08
3.38543e-06
9.73664e-08
7.64247e-08
-2.17469e-07
-8.55354e-08
7.91795e-06
2.56223e-07
-1.62699e-07
-6.15559e-08
7.85455e-06
-7.41335e-08
-9.73452e-08
7.34444e-06
1.48476e-08
-1.15984e-07
6.51968e-06
6.91046e-08
-8.80576e-08
5.61857e-06
9.93369e-08
-7.12496e-08
4.7331e-06
-6.03118e-08
3.9011e-06
1.1111e-07
-4.14191e-07
7.36753e-08
1.01345e-05
3.96792e-07
-2.08841e-07
3.16498e-08
1.02557e-05
-5.56544e-08
-2.9729e-08
9.20933e-06
5.011e-08
-6.40696e-08
7.71538e-06
9.73438e-08
-2.68257e-08
6.42614e-06
1.22543e-07
-2.62935e-08
5.33003e-06
-2.90704e-08
4.3616e-06
1.31547e-07
-6.74744e-07
2.85933e-07
1.24707e-05
6.3827e-07
-2.52033e-07
2.7154e-07
1.23487e-05
-5.23274e-08
3.79179e-08
1.11427e-05
6.87429e-08
5.06983e-08
8.97943e-06
1.16238e-07
6.08031e-08
7.12673e-06
1.40707e-07
3.38124e-08
5.8067e-06
1.27101e-08
4.72288e-06
1.4844e-07
-8.90862e-07
3.00257e-07
1.32621e-05
6.74176e-07
-4.9e-07
3.79571e-07
1.30746e-05
-1.05814e-07
4.72207e-07
1.17879e-05
8.92874e-09
2.23873e-07
9.78677e-06
1.05159e-07
1.12387e-07
7.51872e-06
1.42e-07
8.56935e-08
6.08283e-06
5.18065e-08
4.93779e-06
1.54965e-07
-7.59176e-07
1.90478e-07
1.27625e-05
6.43348e-07
-5.46849e-07
3.71733e-07
1.33554e-05
-1.42609e-07
4.05258e-07
1.20791e-05
4.25057e-08
2.66949e-07
9.5864e-06
1.08192e-07
1.78911e-07
7.51973e-06
1.42082e-07
1.33025e-07
6.10441e-06
8.49484e-08
4.97807e-06
1.56133e-07
-4.17524e-07
1.10358e-05
3.55767e-07
2.02926e-07
-3.36011e-07
1.16172e-05
3.14756e-07
-1.1603e-07
1.05373e-05
3.30421e-07
1.3366e-08
8.68793e-06
2.74801e-07
8.94253e-08
7.12191e-06
2.05186e-07
1.30392e-07
5.89123e-06
1.56578e-07
4.84652e-06
1.54565e-07
9.67782e-08
-9.5539e-08
-1.55597e-07
6.44984e-06
1.29162e-07
1.69303e-07
-6.59948e-08
-1.16653e-07
6.35545e-06
1.47227e-07
-2.02316e-08
-1.21898e-07
5.99224e-06
1.38251e-07
2.54457e-08
-1.14365e-07
5.43558e-06
1.2313e-07
5.94057e-08
-9.70994e-08
4.76947e-06
1.03053e-07
8.04956e-08
-8.1859e-08
4.06973e-06
8.47046e-08
-6.87074e-08
3.37755e-06
8.93206e-08
6.80768e-08
-1.41486e-07
-1.22763e-07
7.8295e-06
1.97167e-07
-1.26339e-07
-2.64316e-08
7.74915e-06
-5.21978e-08
-8.62893e-08
7.23463e-06
1.95653e-08
-9.57235e-08
6.42937e-06
6.53658e-08
-7.84269e-08
5.55422e-06
9.14164e-08
-6.64444e-08
4.69182e-06
-5.74267e-08
3.88021e-06
1.0132e-07
-2.91981e-07
2.20753e-08
9.97543e-06
3.06117e-07
-1.67649e-07
6.45526e-08
1.00402e-05
-5.19216e-08
-4.3763e-09
9.0114e-06
4.1475e-08
-4.67543e-08
7.57291e-06
8.89503e-08
-3.31144e-08
6.33344e-06
1.1243e-07
-3.21065e-08
5.27234e-06
-3.2713e-08
4.32943e-06
1.19987e-07
-4.66868e-07
2.24266e-07
1.22942e-05
4.41045e-07
-2.20775e-07
1.68495e-07
1.19988e-05
-1.17957e-07
4.27403e-08
1.09926e-05
5.11823e-08
-5.13844e-09
8.76845e-06
1.08384e-07
2.85897e-08
7.00781e-06
1.30929e-07
1.49378e-08
5.73714e-06
1.15283e-09
4.68302e-06
1.36916e-07
-6.3529e-07
2.6392e-07
1.33078e-05
5.49865e-07
-4.33124e-07
2.24181e-07
1.28167e-05
-2.00218e-07
5.36223e-08
1.1544e-05
1.45106e-08
1.08426e-07
9.45847e-06
1.05153e-07
6.16774e-08
7.39492e-06
1.36946e-07
5.57009e-08
6.01018e-06
3.43129e-08
4.89597e-06
1.45526e-07
-6.4523e-07
1.66248e-07
1.29797e-05
5.25355e-07
-3.94203e-07
1.75678e-07
1.31528e-05
-1.49779e-07
1.422e-07
1.17461e-05
5.41515e-08
1.46902e-07
9.34384e-06
1.15525e-07
1.22217e-07
7.39771e-06
1.3956e-07
9.88867e-08
6.03708e-06
6.41496e-08
4.94005e-06
1.47694e-07
-3.10465e-07
1.09669e-05
3.08396e-07
2.37193e-07
-2.07239e-07
1.14015e-05
2.87926e-07
-5.95367e-08
1.03018e-05
2.29931e-07
4.36151e-08
8.52989e-06
2.0173e-07
1.0106e-07
7.02716e-06
1.5944e-07
1.28797e-07
5.83762e-06
1.24705e-07
4.81784e-06
1.4505e-07
7.6597e-08
-6.84935e-08
-1.8892e-07
6.42319e-06
1.11547e-07
1.72528e-07
-3.58616e-08
-1.47767e-07
6.31913e-06
1.51385e-07
2.43812e-10
-1.30785e-07
5.95383e-06
1.33155e-07
3.24206e-08
-1.08652e-07
5.40143e-06
1.10627e-07
5.71619e-08
-8.92879e-08
4.74422e-06
8.98923e-08
7.25743e-08
-7.39339e-08
4.05507e-06
7.33e-08
-6.17787e-08
3.37422e-06
7.86737e-08
5.91691e-08
-8.81147e-08
-1.94858e-07
7.75939e-06
1.64302e-07
-5.90412e-08
-9.82275e-08
7.67058e-06
-1.09781e-08
-1.03218e-07
7.15907e-06
3.57186e-08
-9.76633e-08
6.37157e-06
6.72024e-08
-7.95826e-08
5.51313e-06
8.45074e-08
-6.44426e-08
4.66515e-06
-5.417e-08
3.86726e-06
8.99507e-08
-1.19704e-07
-1.06685e-07
9.77572e-06
2.31129e-07
-7.35245e-08
1.88189e-08
9.87698e-06
2.15595e-09
-2.47897e-08
8.85729e-06
6.76154e-08
-6.4606e-08
7.47437e-06
9.67502e-08
-4.98853e-08
6.27466e-06
1.07962e-07
-3.83386e-08
5.2351e-06
-3.38751e-08
4.30847e-06
1.08652e-07
-8.00961e-08
-9.66559e-08
1.21152e-05
2.49015e-07
-1.60819e-07
-7.92617e-08
1.21775e-05
-5.88656e-09
-1.83102e-08
1.08311e-05
1.08642e-07
-3.94958e-08
8.62898e-06
1.31977e-07
2.26659e-09
6.93242e-06
1.32727e-07
4.96398e-09
5.69313e-06
-2.41602e-09
4.65691e-06
1.27393e-07
-2.07843e-07
7.70779e-08
1.3125e-05
2.16946e-07
-1.53125e-07
-2.75338e-08
1.27106e-05
3.12941e-09
-1.15443e-07
1.14849e-05
1.09636e-07
3.44529e-08
9.27792e-06
1.40525e-07
4.85085e-08
7.31787e-06
1.41896e-07
4.87331e-08
5.96504e-06
3.0432e-08
4.86852e-06
1.36494e-07
-2.48779e-07
1.76199e-07
1.2761e-05
3.68369e-07
-5.65538e-08