/*--------------------------------*- C++ -*----------------------------------*\
| =========                 |                                                 |
| \\      /  F ield         | OpenFOAM: The Open Source CFD Toolbox           |
|  \\    /   O peration     | Version:  plus.master.MPPICInterFoam            |
|   \\  /    A nd           | Web:      www.OpenFOAM.com                      |
|    \\/     M anipulation  |                                                 |
\*---------------------------------------------------------------------------*/
FoamFile
{
    version     2.0;
    format      ascii;
    class       volScalarField;
    location    "1.4";
    object      k;
}
// * * * * * * * * * * * * * * * * * * * * * * * * * * * * * * * * * * * * * //

dimensions      [0 2 -2 0 0 0 0];

internalField   nonuniform List<scalar> 
11822
(
0.000577043
0.000596841
0.000608042
0.000611687
0.00060804
0.000596839
0.000577049
0.000596841
0.000615019
0.000625548
0.000628988
0.000625541
0.000615007
0.000596836
0.000608044
0.000625549
0.000635677
0.000638987
0.000635667
0.000625528
0.000608026
0.00061169
0.000628991
0.000638989
0.000642255
0.000638976
0.000628964
0.000611663
0.000608046
0.000625546
0.000635669
0.000638976
0.000635654
0.000625514
0.000608011
0.000596846
0.000615012
0.00062553
0.000628964
0.000625514
0.000614978
0.000596805
0.000577053
0.000596837
0.000608025
0.000611662
0.00060801
0.000596805
0.000577011
0.000577016
0.000596812
0.000608005
0.000611645
0.000607999
0.000596801
0.000577013
0.00059681
0.000614977
0.000625495
0.00062893
0.000625485
0.000614955
0.000596788
0.000608
0.000625492
0.000635612
0.000638918
0.000635597
0.000625462
0.000607965
0.000611639
0.000628926
0.000638916
0.000642177
0.000638897
0.000628888
0.000611593
0.000607993
0.000625479
0.000635595
0.000638897
0.000635573
0.000625437
0.000607939
0.000596796
0.000614952
0.000625463
0.000628892
0.000625439
0.000614905
0.000596735
0.000577011
0.000596789
0.00060797
0.0006116
0.000607944
0.000596737
0.000576941
0.000577156
0.000596952
0.00060814
0.000611772
0.000608121
0.000596919
0.00057712
0.000596949
0.000615115
0.00062563
0.000629061
0.000625612
0.000615081
0.000596909
0.000608137
0.000625631
0.000635753
0.000639057
0.000635736
0.000625602
0.000608101
0.000611772
0.000629061
0.000639056
0.000642318
0.000639041
0.000629035
0.000611736
0.000608122
0.000625613
0.000635736
0.000639041
0.000635723
0.00062559
0.000608087
0.000596922
0.000615085
0.000625603
0.000629036
0.00062559
0.00061506
0.000596883
0.000577126
0.000596913
0.000608101
0.000611738
0.00060809
0.000596887
0.000577085
0.000578129
0.000597855
0.000609013
0.000612645
0.000609018
0.000597861
0.000578124
0.000597853
0.000615946
0.000626427
0.000629858
0.00062644
0.000615966
0.000597869
0.000609014
0.000626431
0.000636511
0.000639814
0.000636526
0.000626453
0.000609038
0.000612653
0.000629868
0.00063982
0.000643079
0.000639829
0.00062988
0.000612665
0.000609031
0.000626454
0.000636535
0.000639831
0.000636531
0.000626446
0.000609024
0.000597874
0.000615979
0.00062646
0.000629881
0.000626446
0.000615956
0.000597853
0.000578137
0.000597882
0.000609045
0.00061267
0.000609028
0.000597857
0.000578113
0.000582836
0.0006021
0.000612942
0.000616462
0.000612937
0.000602091
0.000582847
0.000602098
0.000619684
0.000629819
0.000633121
0.000629806
0.000619661
0.000602096
0.000612936
0.000629812
0.000639522
0.000642683
0.000639502
0.000629781
0.000612931
0.00061645
0.000633106
0.000642676
0.000645794
0.000642664
0.000633086
0.000616456
0.000612924
0.000629789
0.000639497
0.000642667
0.0006395
0.000629793
0.000612949
0.000602081
0.000619655
0.00062979
0.000633103
0.000629804
0.000619679
0.000602122
0.000582849
0.000602107
0.000612955
0.00061648
0.000612964
0.000602127
0.000582883
0.000597047
0.0006142
0.000623793
0.000626887
0.000623771
0.000614177
0.000597053
0.000614204
0.000629757
0.000638667
0.000641559
0.000638654
0.000629738
0.000614204
0.0006238
0.000638673
0.000647194
0.000649966
0.000647189
0.000638661
0.000623788
0.0006269
0.000641571
0.000649972
0.000652702
0.000649963
0.000641554
0.000626884
0.000623789
0.00063867
0.000647194
0.000649959
0.000647173
0.000638635
0.000623761
0.000614193
0.000629747
0.000638652
0.000641538
0.000638624
0.000629693
0.00061415
0.000597052
0.000614188
0.000623761
0.000626857
0.000623744
0.000614144
0.000597009
0.000550565
0.000522197
0.000487335
0.000445386
0.000395112
0.000333619
0.000252185
0.000111269
0.00057178
0.000543291
0.000508293
0.000465697
0.000413991
0.000350084
0.000264965
0.000116439
0.000583947
0.000556063
0.000521232
0.000478342
0.000425753
0.000360247
0.00027265
0.000119571
0.000587974
0.000560355
0.000525619
0.000482646
0.00042976
0.000363704
0.000275254
0.000120643
0.000583933
0.000556051
0.00052122
0.000478331
0.000425742
0.000360237
0.000272641
0.000119568
0.000571752
0.000543263
0.000508267
0.000465673
0.000413967
0.00035006
0.000264944
0.000116433
0.000550528
0.000522158
0.000487297
0.000445347
0.000395072
0.000333578
0.000252147
0.000111253
0.000550528
0.000522158
0.000487291
0.000445329
0.000395039
0.000333532
0.000252093
0.00011123
0.000571735
0.00054325
0.000508251
0.000465648
0.00041393
0.000350013
0.000264892
0.000116409
0.000583891
0.000556014
0.000521184
0.000478289
0.000425694
0.000360183
0.000272588
0.000119546
0.00058791
0.000560296
0.000525561
0.000482584
0.000429693
0.000363634
0.000275188
0.000120615
0.000583865
0.000555984
0.000521151
0.000478255
0.000425659
0.000360149
0.000272557
0.000119528
0.00057168
0.000543188
0.000508183
0.000465577
0.000413859
0.000349944
0.000264829
0.00011637
0.000550448
0.000522069
0.000487195
0.000445227
0.000394935
0.000333426
0.000251993
0.000111163
0.000550607
0.000522208
0.000487305
0.000445308
0.000394984
0.000333445
0.00025198
0.000111152
0.000571841
0.000543333
0.00050831
0.000465685
0.000413947
0.000350007
0.000264859
0.000116375
0.000584014
0.000556122
0.000521276
0.000478369
0.000425756
0.000360221
0.000272595
0.000119537
0.000588041
0.000560415
0.000525669
0.000482682
0.000429775
0.000363689
0.000275206
0.00012061
0.000583998
0.000556105
0.000521261
0.000478354
0.000425741
0.000360202
0.000272572
0.000119517
0.000571811
0.000543301
0.00050828
0.000465655
0.000413914
0.000349968
0.000264818
0.000116349
0.000550571
0.000522171
0.000487271
0.000445275
0.00039495
0.000333407
0.000251941
0.000111123
0.000551675
0.000523311
0.000488416
0.00044638
0.000395954
0.00033424
0.000252525
0.000111338
0.000572886
0.000544441
0.000509451
0.000466802
0.000414961
0.000350834
0.000265415
0.000116567
0.000585048
0.000557233
0.000522432
0.000479505
0.00042679
0.000361063
0.000273154
0.00011972
0.000589068
0.000561523
0.000526824
0.000483819
0.000430811
0.000364535
0.00027577
0.000120796
0.000585032
0.000557216
0.000522414
0.000479485
0.00042677
0.000361047
0.000273144
0.000119714
0.000572869
0.000544426
0.000509434
0.000466779
0.000414936
0.000350812
0.000265402
0.000116557
0.000551668
0.000523311
0.000488422
0.000446386
0.000395961
0.000334252
0.000252545
0.000111341
0.000556953
0.000529026
0.000494468
0.000452582
0.000402029
0.000339784
0.000256897
0.000113126
0.000577735
0.000549833
0.000515286
0.000472908
0.000421066
0.000356503
0.000269929
0.000118381
0.000589595
0.000562365
0.000528074
0.000485507
0.000432883
0.000366789
0.000277742
0.000121549
0.000593517
0.000566565
0.000532395
0.00048978
0.000436897
0.00037028
0.000280385
0.00012263
0.000589604
0.00056236
0.000528059
0.000485489
0.000432868
0.000366779
0.000277735
0.000121541
0.000577753
0.000549829
0.000515267
0.000472889
0.000421052
0.000356491
0.000269915
0.000118364
0.000556975
0.000529026
0.000494449
0.000452563
0.000402018
0.000339777
0.000256884
0.0001131
0.000573825
0.000548527
0.000516887
0.000478044
0.000430304
0.000369944
0.000286301
0.000132428
0.000592488
0.000567393
0.000536029
0.000497069
0.000448545
0.000386512
0.000299912
0.000138706
0.00060305
0.000578672
0.000547698
0.000508763
0.00045977
0.000396624
0.000308036
0.000142526
0.000606527
0.000582444
0.000551634
0.000512724
0.000463577
0.000400052
0.000310784
0.000143838
0.000603033
0.000578671
0.000547706
0.000508775
0.000459781
0.000396635
0.000308048
0.000142533
0.00059245
0.000567388
0.000536051
0.000497102
0.000448577
0.000386539
0.000299935
0.000138708
0.000573788
0.000548521
0.00051692
0.000478098
0.000430361
0.000369996
0.000286346
0.000132436
0.000550577
0.000522209
0.000487349
0.000445401
0.000395128
0.000333636
0.000252201
0.000111279
0.000571803
0.000543313
0.000508317
0.000465722
0.000414017
0.00035011
0.000264989
0.000116454
0.000583976
0.00055609
0.000521258
0.000478367
0.000425778
0.000360271
0.000272672
0.000119583
0.000588007
0.000560383
0.000525644
0.00048267
0.000429784
0.000363728
0.000275276
0.000120655
0.000583969
0.00055608
0.000521246
0.000478355
0.000425765
0.00036026
0.000272663
0.000119578
0.000571789
0.000543295
0.000508295
0.000465699
0.000413992
0.000350086
0.000264967
0.000116438
0.000550565
0.000522191
0.000487329
0.000445379
0.000395104
0.00033361
0.000252176
0.000111255
0.000550539
0.000522174
0.000487311
0.000445353
0.000395066
0.000333561
0.000252122
0.000111255
0.000571762
0.000543283
0.00050829
0.000465692
0.000413978
0.000350063
0.000264941
0.000116448
0.000583929
0.000556058
0.000521232
0.000478341
0.000425747
0.000360236
0.00027264
0.000119588
0.000587959
0.00056035
0.000525618
0.000482642
0.000429752
0.000363694
0.000275246
0.000120662
0.000583926
0.000556049
0.000521219
0.000478324
0.00042573
0.000360222
0.00027263
0.000119586
0.000571755
0.000543266
0.000508265
0.000465663
0.00041395
0.00035004
0.000264925
0.000116441
0.000550542
0.000522164
0.000487294
0.000445334
0.00039505
0.00033355
0.000252117
0.000111251
0.000550621
0.000522224
0.000487324
0.000445328
0.000395006
0.000333468
0.000252003
0.000111168
0.000571859
0.000543355
0.000508334
0.000465709
0.00041397
0.000350028
0.000264881
0.000116398
0.000584038
0.000556148
0.000521302
0.000478392
0.000425778
0.000360242
0.000272616
0.000119563
0.000588076
0.000560451
0.000525701
0.000482711
0.000429802
0.000363715
0.000275233
0.00012064
0.000584049
0.000556154
0.000521306
0.000478396
0.00042578
0.00036024
0.000272609
0.000119552
0.000571875
0.000543364
0.000508338
0.000465711
0.000413969
0.000350021
0.000264867
0.000116383
0.000550643
0.00052224
0.000487337
0.000445339
0.000395014
0.000333471
0.000252001
0.000111161
0.000551673
0.000523303
0.000488404
0.000446365
0.000395936
0.00033422
0.000252504
0.000111335
0.000572878
0.00054442
0.00050942
0.000466763
0.000414916
0.000350785
0.000265366
0.000116553
0.000585039
0.000557211
0.000522402
0.000479467
0.000426746
0.000361015
0.000273105
0.000119708
0.000589065
0.000561513
0.000526808
0.000483799
0.000430785
0.000364504
0.000275735
0.00012079
0.000585038
0.000557222
0.00052242
0.00047949
0.000426772
0.000361042
0.000273131
0.000119717
0.000572885
0.000544446
0.000509459
0.000466805
0.000414958
0.000350827
0.000265407
0.000116567
0.000551691
0.00052334
0.000488454
0.000446416
0.000395983
0.000334264
0.000252545
0.00011135
0.000556954
0.000529025
0.000494462
0.00045257
0.000402012
0.000339763
0.000256874
0.000113119
0.000577718
0.000549809
0.000515254
0.000472867
0.000421015
0.000356444
0.000269869
0.000118359
0.000589573
0.000562333
0.000528034
0.000485456
0.000432821
0.000366718
0.00027767
0.000121522
0.000593496
0.000566532
0.000532357
0.000489736
0.000436844
0.000370221
0.000280325
0.000122608
0.000589579
0.000562328
0.00052803
0.000485462
0.000432841
0.000366749
0.000277705
0.000121536
0.000577725
0.000549804
0.000515255
0.000472887
0.000421057
0.0003565
0.000269926
0.000118381
0.000556956
0.000529017
0.000494458
0.000452588
0.000402055
0.000339821
0.000256931
0.000113136
0.000573813
0.000548509
0.000516864
0.000478015
0.000430271
0.000369909
0.000286268
0.000132418
0.000592489
0.000567374
0.000535993
0.00049702
0.000448487
0.000386448
0.000299853
0.000138679
0.000603056
0.000578655
0.000547658
0.000508709
0.000459707
0.000396557
0.000307976
0.000142493
0.000606541
0.000582434
0.000551602
0.000512676
0.000463521
0.000399993
0.000310733
0.000143808
0.000603065
0.000578673
0.000547681
0.00050873
0.000459728
0.000396581
0.000308001
0.000142506
0.000592494
0.000567395
0.000536026
0.000497056
0.000448521
0.000386481
0.000299884
0.000138679
0.00057382
0.000548517
0.000516887
0.000478049
0.000430306
0.000369942
0.0002863
0.000132415
0.000550565
0.000522192
0.000487329
0.000445378
0.000395102
0.000333607
0.000252172
0.000111249
0.000571789
0.000543296
0.000508296
0.000465699
0.000413991
0.000350083
0.000264963
0.00011643
0.000583967
0.00055608
0.000521246
0.000478354
0.000425764
0.000360257
0.000272659
0.00011957
0.000588003
0.00056038
0.000525642
0.000482667
0.00042978
0.000363723
0.000275271
0.000120649
0.000583969
0.000556084
0.000521251
0.00047836
0.00042577
0.000360263
0.000272664
0.000119576
0.000571794
0.000543305
0.000508307
0.000465711
0.000414004
0.000350096
0.000264976
0.000116443
0.00055058
0.000522206
0.000487344
0.000445394
0.000395119
0.000333624
0.000252188
0.000111264
0.000550545
0.000522167
0.000487299
0.00044534
0.000395057
0.000333557
0.000252123
0.000111253
0.000571762
0.000543273
0.000508276
0.000465678
0.000413967
0.000350059
0.000264942
0.00011645
0.000583934
0.000556057
0.00052123
0.00047834
0.000425749
0.000360243
0.00027265
0.000119595
0.000587968
0.000560358
0.000525627
0.000482653
0.000429765
0.000363709
0.000275261
0.00012067
0.000583936
0.000556064
0.000521237
0.000478344
0.000425751
0.000360245
0.00027265
0.000119595
0.000571764
0.000543284
0.000508288
0.000465688
0.000413976
0.000350066
0.000264948
0.000116454
0.00055055
0.000522178
0.000487311
0.000445351
0.000395065
0.000333562
0.000252125
0.000111254
0.00055065
0.000522249
0.000487348
0.000445353
0.000395031
0.000333491
0.000252023
0.00011117
0.000571883
0.000543374
0.000508351
0.000465727
0.000413988
0.000350045
0.000264895
0.000116405
0.000584055
0.000556161
0.000521315
0.000478407
0.000425794
0.000360258
0.000272631
0.000119571
0.00058808
0.000560454
0.000525709
0.000482723
0.000429817
0.000363732
0.000275249
0.000120649
0.000584036
0.000556145
0.000521305
0.000478404
0.000425794
0.000360256
0.000272625
0.000119563
0.000571851
0.000543349
0.000508333
0.000465714
0.000413976
0.000350031
0.000264877
0.000116392
0.000550614
0.000522219
0.000487323
0.00044533
0.000395008
0.000333466
0.000251996
0.000111162
0.000551695
0.000523349
0.000488465
0.000446431
0.000396002
0.000334287
0.000252568
0.000111362
0.000572889
0.000544459
0.000509475
0.000466824
0.000414982
0.000350856
0.000265436
0.000116582
0.00058504
0.000557233
0.000522434
0.000479504
0.000426787
0.00036106
0.000273151
0.000119727
0.000589062
0.00056152
0.000526821
0.000483812
0.0004308
0.00036452
0.000275752
0.000120796
0.000585035
0.000557217
0.000522412
0.000479478
0.000426756
0.000361026
0.000273117
0.000119713
0.000572879
0.000544429
0.000509429
0.000466766
0.000414913
0.00035078
0.000265365
0.000116551
0.000551675
0.00052331
0.000488411
0.000446365
0.000395927
0.000334207
0.000252494
0.00011133
0.000556953
0.000529014
0.000494455
0.000452582
0.000402047
0.000339812
0.000256919
0.000113135
0.000577726
0.000549806
0.000515259
0.000472892
0.00042106
0.000356498
0.000269918
0.000118381
0.000589586
0.000562336
0.000528041
0.000485477
0.000432853
0.000366754
0.000277703
0.000121537
0.000593505
0.000566533
0.000532357
0.000489741
0.000436854
0.000370232
0.000280333
0.000122613
0.000589579
0.00056232
0.000528015
0.000485444
0.000432819
0.000366726
0.000277683
0.000121528
0.000577718
0.000549791
0.000515233
0.000472853
0.000421012
0.000356448
0.000269874
0.000118357
0.000556956
0.000529014
0.000494441
0.000452553
0.000402007
0.000339767
0.000256875
0.000113108
0.000573813
0.000548509
0.000516882
0.000478045
0.000430306
0.000369945
0.000286306
0.000132419
0.000592481
0.000567379
0.000536012
0.000497047
0.000448517
0.000386481
0.000299887
0.00013868
0.000603051
0.000578657
0.000547669
0.000508725
0.000459723
0.000396572
0.00030799
0.000142493
0.000606527
0.000582424
0.000551598
0.000512673
0.000463516
0.000399988
0.000310729
0.000143806
0.00060304
0.000578653
0.000547663
0.000508709
0.000459702
0.000396552
0.000307973
0.000142492
0.000592474
0.000567378
0.000536001
0.000497024
0.000448483
0.000386438
0.00029984
0.000138662
0.000573822
0.000548503
0.00051687
0.000478027
0.000430275
0.000369899
0.000286252
0.0001324
0.000550528
0.000522158
0.000487296
0.000445344
0.000395068
0.000333573
0.000252141
0.000111247
0.000571751
0.000543262
0.000508265
0.000465668
0.00041396
0.000350052
0.000264934
0.000116423
0.000583932
0.000556049
0.000521217
0.000478326
0.000425735
0.000360228
0.000272631
0.000119559
0.000587972
0.000560352
0.000525615
0.00048264
0.000429753
0.000363697
0.000275247
0.000120636
0.000583945
0.00055606
0.000521227
0.000478336
0.000425746
0.00036024
0.000272644
0.000119566
0.000571779
0.000543288
0.000508288
0.000465691
0.000413983
0.000350075
0.000264956
0.000116434
0.000550577
0.0005222
0.000487336
0.000445384
0.000395108
0.000333613
0.000252177
0.00011126
0.000550449
0.00052207
0.000487195
0.000445228
0.000394933
0.000333423
0.000251988
0.000111157
0.000571682
0.000543191
0.000508187
0.000465582
0.000413863
0.000349945
0.000264827
0.000116363
0.000583868
0.000555989
0.000521157
0.000478262
0.000425666
0.000360155
0.00027256
0.000119524
0.000587915
0.000560301
0.000525566
0.000482589
0.000429698
0.000363639
0.000275192
0.000120614
0.000583895
0.000556018
0.000521186
0.000478289
0.000425694
0.000360184
0.00027259
0.000119546
0.000571736
0.00054325
0.000508247
0.00046564
0.000413923
0.000350008
0.000264889
0.000116407
0.000550538
0.000522161
0.000487289
0.000445323
0.000395031
0.000333523
0.000252084
0.00011122
0.000550579
0.000522183
0.000487285
0.000445293
0.000394972
0.000333432
0.000251968
0.000111132
0.000571823
0.000543318
0.000508301
0.000465681
0.000413945
0.000350003
0.000264857
0.000116368
0.00058401
0.000556119
0.00052128
0.000478377
0.000425767
0.000360232
0.000272606
0.000119542
0.000588048
0.000560426
0.000525687
0.000482706
0.000429802
0.000363718
0.000275235
0.000120628
0.000584017
0.000556129
0.000521293
0.000478394
0.000425786
0.000360249
0.000272618
0.000119547
0.000571843
0.000543341
0.000508326
0.000465708
0.000413971
0.000350027
0.000264873
0.00011638
0.000550612
0.000522217
0.000487321
0.000445329
0.000395007
0.000333464
0.000251992
0.000111154
0.000551674
0.000523321
0.000488435
0.000446404
0.000395983
0.000334279
0.000252573
0.000111357
0.000572876
0.00054444
0.000509453
0.000466804
0.000414967
0.00035085
0.000265441
0.000116578
0.000585041
0.000557231
0.00052243
0.000479503
0.000426793
0.000361074
0.000273172
0.000119731
0.000589079
0.000561538
0.00052684
0.000483835
0.00043083
0.000364558
0.000275794
0.000120809
0.000585061
0.000557249
0.000522449
0.000479521
0.000426807
0.000361083
0.000273176
0.000119732
0.000572907
0.000544464
0.000509472
0.000466817
0.000414972
0.000350846
0.00026543
0.000116575
0.000551696
0.000523335
0.000488441
0.000446399
0.000395966
0.000334251
0.000252538
0.000111346
0.000556969
0.000529019
0.000494441
0.000452552
0.000402004
0.000339758
0.000256862
0.000113093
0.000577751
0.000549824
0.000515263
0.000472883
0.000421041
0.000356472
0.000269888
0.000118353
0.000589612
0.000562365
0.000528065
0.000485496
0.000432869
0.000366767
0.000277713
0.000121532
0.000593533
0.000566573
0.000532399
0.000489784
0.000436899
0.000370277
0.000280375
0.000122626
0.000589612
0.000562368
0.000528068
0.000485502
0.000432882
0.00036679
0.000277743
0.000121551
0.000577751
0.000549833
0.00051528
0.000472907
0.000421072
0.000356512
0.000269935
0.000118383
0.00055698
0.000529039
0.000494467
0.000452582
0.000402039
0.000339801
0.000256909
0.000113126
0.000573785
0.000548519
0.000516918
0.000478096
0.000430361
0.000370001
0.000286355
0.000132443
0.000592446
0.000567383
0.000536044
0.000497095
0.000448572
0.000386538
0.000299939
0.000138712
0.000603021
0.000578658
0.000547695
0.000508766
0.000459772
0.000396625
0.000308039
0.000142524
0.000606503
0.000582423
0.000551618
0.000512709
0.000463563
0.000400041
0.000310779
0.000143837
0.00060302
0.000578651
0.000547681
0.000508743
0.000459748
0.000396604
0.000308024
0.000142525
0.000592456
0.000567376
0.000536014
0.000497049
0.000448516
0.000386476
0.000299879
0.00013869
0.000573812
0.0005485
0.00051687
0.000478029
0.000430277
0.000369901
0.000286256
0.000132411
0.000199411
0.000436025
0.000546282
0.000612239
0.000651009
0.000670703
0.000675603
0.000666735
0.000199414
0.000436033
0.000546292
0.000612248
0.000651017
0.000670709
0.000675607
0.000666739
0.000199413
0.000436035
0.000546294
0.000612248
0.000651017
0.000670709
0.00067561
0.000666744
0.000199414
0.000436033
0.000546291
0.000612244
0.00065101
0.0006707
0.000675596
0.000666724
0.000199415
0.000436034
0.000546291
0.000612246
0.000651015
0.000670705
0.000675597
0.000666721
0.000199417
0.000436036
0.000546295
0.000612253
0.000651026
0.000670718
0.000675609
0.000666726
0.000199417
0.000436033
0.000546293
0.000612252
0.000651024
0.000670715
0.000675608
0.000666731
0.000199427
0.000436056
0.000546307
0.00061225
0.000651006
0.000670687
0.000675582
0.000666712
0.000199433
0.000436059
0.00054631
0.000612253
0.00065101
0.000670692
0.000675585
0.000666713
0.000199432
0.00043606
0.00054631
0.000612253
0.000651011
0.000670692
0.000675583
0.000666711
0.000199431
0.000436057
0.000546308
0.000612253
0.000651012
0.000670694
0.000675586
0.000666715
0.000199429
0.000436054
0.000546307
0.000612254
0.000651014
0.000670698
0.000675591
0.000666721
0.000199429
0.000436054
0.000546308
0.000612256
0.000651015
0.000670696
0.000675587
0.000666714
0.000199429
0.000436055
0.00054631
0.000612259
0.000651019
0.000670699
0.000675586
0.000666705
0.000199485
0.0004362
0.000546477
0.000612399
0.000651109
0.000670738
0.000675591
0.0006667
0.000199486
0.000436205
0.000546484
0.000612405
0.000651112
0.00067074
0.000675592
0.000666701
0.000199484
0.000436207
0.000546486
0.000612405
0.000651111
0.00067074
0.000675594
0.000666705
0.000199483
0.000436207
0.000546486
0.000612405
0.000651111
0.000670739
0.000675593
0.000666704
0.000199483
0.000436205
0.000546485
0.000612405
0.000651112
0.000670739
0.000675593
0.000666704
0.000199481
0.000436204
0.000546485
0.000612406
0.000651113
0.00067074
0.000675592
0.000666701
0.00019948
0.000436203
0.000546484
0.000612408
0.000651116
0.000670745
0.000675598
0.000666708
0.000199821
0.000437112
0.000547431
0.000613146
0.000651577
0.000670963
0.000675644
0.000666649
0.000199824
0.000437123
0.000547435
0.000613149
0.000651582
0.00067097
0.000675653
0.000666659
0.000199827
0.000437127
0.000547438
0.000613153
0.000651586
0.000670973
0.000675655
0.000666659
0.000199828
0.000437126
0.000547439
0.000613155
0.000651588
0.000670974
0.000675655
0.000666659
0.000199829
0.000437124
0.000547438
0.000613156
0.00065159
0.000670976
0.000675657
0.000666659
0.000199827
0.000437123
0.000547438
0.000613157
0.000651592
0.000670979
0.000675659
0.000666659
0.000199825
0.000437121
0.000547438
0.000613158
0.000651593
0.000670979
0.000675658
0.000666657
0.000202224
0.000442044
0.000551758
0.000616154
0.000653312
0.000671736
0.000675807
0.000666487
0.000202233
0.000442048
0.000551766
0.000616159
0.000653312
0.000671733
0.000675802
0.00066648
0.00020223
0.000442053
0.000551772
0.000616162
0.000653315
0.000671737
0.000675807
0.000666486
0.000202231
0.000442055
0.000551773
0.000616162
0.000653312
0.000671733
0.000675802
0.000666481
0.000202232
0.000442054
0.000551771
0.00061616
0.000653311
0.000671732
0.000675802
0.00066648
0.000202231
0.000442051
0.00055177
0.000616159
0.000653309
0.000671731
0.0006758
0.000666478
0.000202228
0.000442047
0.000551767
0.000616157
0.000653309
0.000671733
0.000675803
0.000666481
0.000229753
0.000466474
0.000567996
0.00062555
0.000657923
0.000673338
0.00067571
0.000665568
0.000229758
0.000466482
0.000568004
0.000625561
0.000657939
0.000673356
0.000675724
0.000665574
0.000229758
0.000466481
0.000568002
0.000625561
0.000657938
0.000673354
0.000675722
0.000665573
0.000229756
0.00046648
0.000568003
0.000625561
0.000657938
0.000673352
0.000675718
0.000665568
0.00022975
0.000466474
0.000567999
0.000625558
0.000657936
0.000673351
0.000675718
0.000665568
0.000229741
0.000466462
0.000567989
0.000625551
0.000657932
0.000673351
0.00067572
0.000665571
0.000229731
0.000466452
0.000567981
0.000625546
0.000657929
0.00067335
0.000675721
0.000665574
0.000199407
0.000436021
0.000546279
0.000612236
0.000651009
0.000670703
0.000675606
0.000666739
0.000199409
0.000436022
0.00054628
0.000612237
0.000651008
0.000670702
0.000675602
0.000666736
0.000199409
0.000436023
0.00054628
0.000612236
0.000651007
0.000670702
0.000675604
0.000666738
0.00019941
0.000436023
0.00054628
0.000612236
0.000651007
0.000670701
0.000675602
0.000666734
0.000199409
0.000436023
0.00054628
0.000612236
0.000651007
0.000670701
0.000675602
0.000666735
0.000199408
0.000436022
0.00054628
0.000612236
0.000651008
0.000670703
0.000675605
0.000666739
0.000199408
0.000436021
0.00054628
0.000612236
0.000651008
0.000670704
0.000675607
0.000666741
0.000199424
0.000436052
0.000546303
0.000612247
0.000651004
0.000670686
0.000675582
0.000666714
0.000199429
0.00043605
0.000546301
0.000612245
0.000651004
0.000670689
0.000675584
0.000666715
0.000199428
0.000436048
0.000546299
0.000612245
0.000651006
0.00067069
0.000675584
0.000666715
0.000199426
0.000436046
0.000546298
0.000612245
0.000651006
0.000670689
0.000675583
0.000666714
0.000199423
0.000436043
0.000546297
0.000612246
0.000651007
0.00067069
0.000675582
0.000666714
0.000199421
0.000436043
0.000546298
0.000612246
0.000651007
0.00067069
0.000675583
0.000666714
0.000199421
0.000436043
0.000546297
0.000612245
0.000651006
0.000670689
0.000675583
0.000666714
0.00019948
0.000436195
0.000546473
0.000612396
0.000651107
0.000670738
0.000675593
0.000666703
0.00019948
0.000436195
0.000546474
0.000612397
0.000651106
0.000670736
0.00067559
0.0006667
0.000199478
0.000436195
0.000546475
0.000612396
0.000651104
0.000670735
0.00067559
0.000666703
0.000199477
0.000436196
0.000546475
0.000612396
0.000651105
0.000670735
0.000675591
0.000666703
0.000199476
0.000436194
0.000546473
0.000612395
0.000651103
0.000670734
0.00067559
0.000666703
0.000199473
0.000436191
0.000546471
0.000612393
0.000651102
0.000670733
0.000675591
0.000666704
0.000199473
0.000436191
0.00054647
0.000612393
0.000651102
0.000670735
0.000675592
0.000666705
0.000199817
0.000437108
0.000547427
0.000613143
0.000651576
0.000670963
0.000675646
0.000666652
0.000199819
0.000437114
0.000547426
0.000613141
0.000651576
0.000670967
0.000675651
0.000666658
0.000199821
0.000437115
0.000547426
0.000613143
0.000651578
0.000670968
0.000675652
0.000666657
0.000199822
0.000437114
0.000547426
0.000613144
0.000651579
0.000670968
0.000675652
0.000666658
0.000199822
0.000437111
0.000547424
0.000613143
0.000651579
0.000670968
0.000675652
0.000666657
0.00019982
0.000437109
0.000547424
0.000613143
0.00065158
0.000670969
0.000675654
0.000666658
0.00019982
0.000437109
0.000547425
0.000613144
0.00065158
0.00067097
0.000675654
0.000666659
0.000202221
0.000442041
0.000551755
0.000616152
0.00065331
0.000671736
0.000675808
0.000666489
0.000202229
0.00044204
0.000551758
0.000616152
0.000653306
0.000671728
0.000675798
0.000666478
0.000202226
0.000442043
0.000551761
0.000616153
0.000653307
0.000671731
0.000675803
0.000666483
0.000202227
0.000442046
0.000551763
0.000616153
0.000653305
0.000671728
0.000675799
0.000666479
0.000202228
0.000442045
0.000551763
0.000616153
0.000653305
0.000671728
0.000675799
0.000666478
0.000202227
0.000442046
0.000551764
0.000616153
0.000653305
0.000671728
0.0006758
0.000666479
0.000202227
0.000442045
0.000551762
0.000616151
0.000653303
0.000671727
0.000675799
0.000666479
0.000229756
0.000466476
0.000567997
0.000625549
0.000657922
0.000673338
0.000675711
0.000665569
0.000229761
0.000466483
0.000568002
0.000625558
0.000657934
0.000673352
0.000675721
0.000665571
0.000229762
0.000466479
0.000567999
0.000625556
0.000657933
0.00067335
0.000675718
0.00066557
0.00022976
0.000466481
0.000568002
0.000625559
0.000657935
0.000673351
0.000675718
0.000665568
0.000229759
0.000466479
0.000568001
0.000625559
0.000657936
0.000673352
0.000675719
0.000665569
0.000229756
0.000466474
0.000567997
0.000625555
0.000657933
0.00067335
0.000675718
0.000665568
0.000229751
0.00046647
0.000567994
0.000625553
0.000657931
0.000673349
0.000675717
0.000665568
0.000199408
0.000436021
0.00054628
0.000612236
0.000651008
0.000670703
0.000675606
0.00066674
0.000199409
0.000436023
0.00054628
0.000612235
0.000651007
0.000670701
0.000675603
0.000666737
0.00019941
0.000436023
0.00054628
0.000612235
0.000651006
0.0006707
0.000675601
0.000666734
0.000199411
0.000436024
0.000546281
0.000612236
0.000651008
0.000670703
0.000675606
0.00066674
0.000199411
0.000436024
0.000546281
0.000612236
0.000651008
0.000670702
0.000675606
0.000666741
0.000199411
0.000436024
0.000546281
0.000612236
0.000651005
0.000670697
0.000675598
0.000666732
0.000199414
0.000436027
0.000546285
0.000612239
0.000651005
0.000670694
0.000675592
0.000666724
0.000199421
0.000436042
0.000546296
0.000612245
0.000651007
0.00067069
0.000675584
0.000666714
0.000199422
0.000436043
0.000546297
0.000612246
0.000651008
0.000670691
0.000675584
0.000666715
0.000199423
0.000436043
0.000546296
0.000612245
0.000651007
0.000670691
0.000675584
0.000666716
0.000199423
0.000436042
0.000546295
0.000612245
0.000651005
0.000670688
0.000675582
0.000666713
0.000199423
0.000436042
0.000546296
0.000612245
0.000651005
0.000670686
0.000675579
0.00066671
0.000199425
0.000436044
0.000546298
0.000612246
0.000651006
0.000670688
0.00067558
0.000666711
0.000199432
0.000436046
0.000546299
0.000612246
0.000651007
0.00067069
0.000675583
0.000666715
0.000199474
0.00043619
0.00054647
0.000612394
0.000651104
0.000670735
0.000675592
0.000666705
0.000199475
0.000436192
0.000546471
0.000612394
0.000651103
0.000670734
0.000675591
0.000666704
0.000199475
0.000436193
0.000546472
0.000612394
0.000651102
0.000670733
0.00067559
0.000666703
0.000199476
0.000436194
0.000546473
0.000612394