/*--------------------------------*- C++ -*----------------------------------*\
| =========                 |                                                 |
| \\      /  F ield         | OpenFOAM: The Open Source CFD Toolbox           |
|  \\    /   O peration     | Version:  plus.master.MPPICInterFoam            |
|   \\  /    A nd           | Web:      www.OpenFOAM.com                      |
|    \\/     M anipulation  |                                                 |
\*---------------------------------------------------------------------------*/
FoamFile
{
    version     2.0;
    format      ascii;
    class       scalarField;
    location    "6.8/lagrangian/kinematicCloud";
    object      d;
}
// * * * * * * * * * * * * * * * * * * * * * * * * * * * * * * * * * * * * * //


120
(
0.000559999
0.000545034
0.000588101
0.000527485
0.000560948
0.000568964
0.000544569
0.000532023
0.000582629
0.00057175
0.000587846
0.000585102
0.000578379
0.000608202
0.000609008
0.000559474
0.000607198
0.000575777
0.000576954
0.000638434
0.000628087
0.000588061
0.000587022
0.000540275
0.000647611
0.000593956
0.000621555
0.000607321
0.000608935
0.000559395
0.000564095
0.000611559
0.000587869
0.000519684
0.000635184
0.000613785
0.000572792
0.000548303
0.000555965
0.000568613
0.000486851
0.000494503
0.000555686
0.000457275
0.00053035
0.000583372
0.000522416
0.000525412
0.000507807
0.000526414
0.000546649
0.000524585
0.000541416
0.000543315
0.000608403
0.00055558
0.000543519
0.000569911
0.000544259
0.000546687
0.000533593
0.000537731
0.000552667
0.000467055
0.000530576
0.000587175
0.000575706
0.000587704
0.000560872
0.000588295
0.000574534
0.000471066
0.000547075
0.000578219
0.000510243
0.000578875
0.000546399
0.000564228
0.000592119
0.000467077
0.000527275
0.000530418
0.000595506
0.000488085
0.000590013
0.00054447
0.000569547
0.000555448
0.0005982
0.000570521
0.000608442
0.000524072
0.00059971
0.000537933
0.000514237
0.00056241
0.000543029
0.000516374
0.000520153
0.00052073
0.00053391
0.00057193
0.000583548
0.000567671
0.000543786
0.000493274
0.000477691
0.000543659
0.000634917
0.00055691
0.000540958
0.000532361
0.000548291
0.000560065
0.000525529
0.000581622
0.000511321
0.000564914
0.000568397
0.000552668
)


// ************************************************************************* //
