/*--------------------------------*- C++ -*----------------------------------*\
| =========                 |                                                 |
| \\      /  F ield         | OpenFOAM: The Open Source CFD Toolbox           |
|  \\    /   O peration     | Version:  plus.master.MPPICInterFoam            |
|   \\  /    A nd           | Web:      www.OpenFOAM.com                      |
|    \\/     M anipulation  |                                                 |
\*---------------------------------------------------------------------------*/
FoamFile
{
    version     2.0;
    format      ascii;
    class       Cloud<basicKinematicMPPICParcel>;
    location    "6.8/lagrangian/kinematicCloud";
    object      positions;
}
// * * * * * * * * * * * * * * * * * * * * * * * * * * * * * * * * * * * * * //

120
(
(-0.0251701 -0.041596 0.505866) 2319
(-0.024933 -0.0413009 0.503698) 2319
(-0.0140834 -0.0462899 0.503208) 2327
(-0.00034034 -0.0486792 0.505364) 2335
(-0.0121512 -0.0448773 0.501946) 2327
(0.00318929 -0.0464945 0.505915) 2335
(-0.000617306 -0.0487484 0.503359) 2336
(0.000127792 -0.0481913 0.502349) 2335
(-0.0175208 -0.0428036 0.502861) 2319
(-0.0122442 -0.0450514 0.502222) 2327
(-0.0178986 -0.0426642 0.50412) 2319
(-0.0177247 -0.0426489 0.50338) 2319
(0.0016226 -0.046337 0.507354) 2335
(-0.0290832 -0.037231 0.502005) 2311
(-0.01162 -0.0447536 0.506585) 2327
(0.00331165 -0.0462789 0.505943) 2335
(-0.0482439 -0.00523517 0.504385) 1999
(0.00102968 -0.046588 0.503054) 2335
(-2.3397e-05 -0.0476493 0.502714) 2335
(0.00142762 -0.0444557 0.501801) 2335
(-0.0484025 -0.00657463 0.501846) 2007
(0.0109274 -0.0463292 0.501885) 2343
(0.0122762 -0.046639 0.502225) 2343
(0.0182458 -0.0513244 0.524175) 2465
(0.0116245 -0.0365936 0.511599) 2398
(0.029796 -0.0462775 0.515397) 2417
(-0.00421023 -0.0527119 0.52999) 2448
(0.0209271 -0.0333483 0.530275) 2462
(0.0323023 -0.0208576 0.516733) 1694
(0.0598497 0.00922394 0.507869) 1674
(-0.00340537 -0.0625147 0.504485) 2338
(-0.0115865 -0.0598707 0.505499) 2330
(-0.00804162 0.058213 0.513852) 2737
(0.00481268 -0.0615919 0.509684) 2338
(0.0585751 0.00234536 0.50944) 1665
(0.0583135 0.0106864 0.510878) 1673
(0.00169525 -0.0613096 0.511148) 2338
(0.00251451 0.061491 0.512656) 2730
(0.00344543 0.0612178 0.513624) 2730
(-0.0608464 -0.0130932 0.519827) 2066
(-0.000572816 0.0623839 0.522485) 2786
(0.00185597 0.0617083 0.523568) 2786
(0.00371801 0.0599474 0.524813) 2786
(0.00173731 0.0624658 0.525098) 2786
(0.00156187 0.0619315 0.526972) 2786
(-0.0599004 0.00798484 0.529204) 2106
(0.00481949 0.0617205 0.530164) 2786
(0.00613064 0.0600435 0.532003) 2842
(-0.00537877 -0.0623856 0.52899) 2450
(0.00956774 0.0611199 0.530625) 2778
(-0.00442903 -0.0619423 0.530607) 2450
(0.0615225 0.00412361 0.53209) 1834
(-0.00101609 -0.0626015 0.530998) 2450
(-0.00260404 0.0588769 0.535144) 2841
(-0.007773 -0.0580946 0.533791) 2497
(0.0586609 0.00178324 0.534874) 1833
(0.0562196 -0.00584827 0.537439) 1833
(-0.00218176 -0.0602606 0.533406) 2506
(0.0590037 -0.00119787 0.534718) 1833
(0.0548523 -0.00577825 0.53961) 1833
(0.00188758 -0.0607013 0.533847) 2506
(0.0591793 0.00171823 0.53465) 1833
(0.00241448 0.0568761 0.538803) 2841
(0.0586144 -0.00110627 0.537974) 1833
(0.00326329 0.0560647 0.542507) 2897
(0.0113049 0.0548299 0.541601) 2889
(0.0563584 -0.00108953 0.541237) 1889
(0.0117058 0.0544853 0.542548) 2889
(-0.00710153 0.0520033 0.546006) 2904
(0.0051482 0.0492435 0.548865) 2896
(0.00368451 0.0536162 0.547035) 2896
(-0.00523417 -0.0562069 0.543212) 2561
(-0.0506649 -0.00535486 0.550507) 2224
(0.0547679 -0.00116984 0.547369) 1889
(-0.0044965 -0.0540829 0.549395) 2560
(0.0546197 -0.00163217 0.547657) 1889
(-0.00355489 -0.0543446 0.549359) 2561
(-0.00861964 -0.0536819 0.548903) 2553
(0.0499994 -0.00338112 0.554746) 1944
(-0.00234713 -0.0538076 0.552806) 2616
(-0.00123672 0.0485641 0.556899) 2951
(-0.000893204 -0.0501831 0.557644) 2616
(-0.0477255 -0.00776824 0.5576) 2287
(0.000730972 -0.0498051 0.558976) 2616
(0.0478953 -0.00349633 0.557235) 1943
(0.00202243 -0.0437157 0.56441) 8487
(0.0403283 -0.0035678 0.564785) 7366
(-0.0383713 -0.00543434 0.570272) 7934
(0.000780524 -0.0413358 0.56752) 8486
(0.0304782 -0.00450497 0.576358) 4900
(-0.000917374 0.0282756 0.575876) 6587
(-0.00196227 -0.0301074 0.577636) 6027
(0.027291 -0.000994993 0.576192) 4906
(-0.0034331 -0.025879 0.578651) 6018
(-0.00282079 -0.0257847 0.578765) 6026
(-0.00327167 -0.0248096 0.578071) 6018
(-0.0235093 -0.00258433 0.56322) 5409
(-0.0230276 -0.000605063 0.558151) 937
(0.000396411 -0.0230283 0.554257) 1273
(-0.0229642 -0.0012719 0.546999) 881
(-0.0228649 -0.00165012 0.541911) 881
(-0.0219825 0.000768629 0.539139) 825
(0.0232709 -0.00324738 0.530979) 425
(-0.0226979 0.000423819 0.532154) 825
(-0.0218402 0.0010898 0.532383) 824
(-0.000354881 0.0212607 0.52437) 1440
(0.0226167 -0.00350463 0.521708) 425
(-0.0208365 -0.000787028 0.525196) 768
(-0.00265646 0.0213908 0.518655) 1392
(0.000355698 0.0211956 0.518397) 1384
(-0.0209111 -0.000712471 0.520997) 712
(-0.0205696 -0.000202548 0.519581) 712
(-0.0231464 -0.00320794 0.51631) 721
(0.000844925 -0.0224763 0.518106) 1049
(-0.0232124 0.000504769 0.513814) 713
(-0.0228169 0.00407594 0.51296) 705
(-0.0209232 -6.8803e-05 0.512773) 712
(-0.0209609 0.000948291 0.512315) 712
(-0.0216849 -0.00485313 0.508115) 665
(-0.0229026 -0.00458833 0.506284) 665
)


// ************************************************************************* //
