/*--------------------------------*- C++ -*----------------------------------*\
| =========                 |                                                 |
| \\      /  F ield         | OpenFOAM: The Open Source CFD Toolbox           |
|  \\    /   O peration     | Version:  plus.master.MPPICInterFoam            |
|   \\  /    A nd           | Web:      www.OpenFOAM.com                      |
|    \\/     M anipulation  |                                                 |
\*---------------------------------------------------------------------------*/
FoamFile
{
    version     2.0;
    format      ascii;
    class       vectorField;
    location    "6.8/lagrangian/kinematicCloud";
    object      U;
}
// * * * * * * * * * * * * * * * * * * * * * * * * * * * * * * * * * * * * * //


120
(
(0.00178026 0.00454287 -0.0134142)
(0.00171398 0.00436815 -0.0127195)
(0.000347189 0.00486046 -0.0156401)
(-0.00135022 0.000145262 -0.0120726)
(4.85996e-05 0.00429228 -0.0118306)
(-0.00171537 0.00480642 -0.010038)
(-0.00121547 -0.00022641 -0.0136388)
(-0.00124068 0.00408966 -0.0132759)
(0.000686863 0.00421091 -0.0116989)
(6.99435e-05 0.00438243 -0.0125156)
(0.000777407 0.00436154 -0.01144)
(0.000725847 0.00425417 -0.0114887)
(-0.00164728 0.00501246 -0.00938902)
(0.00212235 0.00374381 -0.0145438)
(-4.99732e-05 0.00475192 -0.0117602)
(-0.00171649 0.00471708 -0.00928419)
(0.00464923 -0.000134049 -0.014566)
(-0.00138408 0.00471108 -0.0122319)
(-0.00124652 0.004896 -0.0142732)
(-0.00125809 0.00400897 -0.0123282)
(0.00459718 4.46235e-05 -0.0169982)
(-0.00226046 0.00420888 -0.01569)
(-0.00244459 0.00436055 -0.0165389)
(-0.00209684 0.000290574 -0.0313428)
(-4.91357e-06 5.48885e-06 -0.0231805)
(-0.0033659 0.00214772 -0.0311567)
(-0.00191683 -0.000520716 -0.0331452)
(-0.000820249 0.00063485 -0.016688)
(-2.07988e-06 7.10682e-07 -0.0214882)
(-0.00371434 -0.000707145 -0.0399436)
(-0.00130225 0.00309494 -0.0417101)
(-0.000672516 0.0035258 -0.0410487)
(-0.000902878 -0.00301874 -0.03788)
(-0.00179941 0.00192762 -0.0397826)
(-0.00404612 -0.000411539 -0.0400889)
(-0.00342146 -0.000675202 -0.0409959)
(-0.00161414 0.00155354 -0.042177)
(-0.00144148 -0.00172184 -0.0423261)
(-0.00143669 -0.00144993 -0.0427133)
(-0.00341465 -0.00111011 -0.0473391)
(-0.00159199 0.00491127 -0.0487098)
(-0.00139496 0.00525254 -0.0488038)
(-0.001294 0.00537313 -0.0492389)
(-0.00125199 0.00721846 -0.0505451)
(-0.00116438 0.00877876 -0.054937)
(-0.00998063 0.000933649 -0.0535738)
(-0.00046343 0.0126501 -0.057979)
(-0.000141977 0.013682 -0.0572615)
(-0.00282022 -0.0114872 -0.0567047)
(0.00059191 0.0132737 -0.0589182)
(-0.00256267 -0.012859 -0.0595503)
(0.0147057 0.00130985 -0.0626253)
(-0.00175115 -0.0142149 -0.0613963)
(-0.00257208 0.0170526 -0.0600081)
(-0.00351556 -0.0132077 -0.0584804)
(0.015484 0.0012541 -0.0618128)
(0.0170389 -0.00150716 -0.0573354)
(-0.00180827 -0.0154324 -0.0618311)
(0.0160252 0.000633676 -0.0620669)
(0.0184385 -0.00161063 -0.05668)
(-0.00114559 -0.0164465 -0.0620392)
(0.0163232 0.00139215 -0.0621441)
(-0.00059769 0.0206767 -0.0603304)
(0.0207018 0.000207596 -0.062899)
(-0.000265284 0.0288887 -0.0641801)
(0.0037044 0.0261963 -0.0646246)
(0.0247923 0.000513817 -0.0663391)
(0.00435159 0.0284548 -0.0663432)
(-0.005669 0.0319621 -0.0580398)
(0.00212625 0.0341484 -0.0552854)
(0.00125222 0.0384066 -0.0692794)
(-0.00424479 -0.0278312 -0.0620352)
(-0.0395156 -0.00346247 -0.0637165)
(0.0401722 0.000781144 -0.0787351)
(-0.00523131 -0.0419781 -0.0753155)
(0.0407659 0.000337746 -0.0790928)
(-0.004407 -0.0428108 -0.0783748)
(-0.0077005 -0.0408651 -0.0771127)
(0.0609202 -0.00211003 -0.125089)
(-0.00292616 -0.0546595 -0.10691)
(-0.00438097 0.0734261 -0.146725)
(-0.00231815 -0.0746302 -0.132108)
(-0.0719357 -0.00986523 -0.138247)
(0.000479233 -0.0821679 -0.140179)
(0.0682359 -0.00368691 -0.145746)
(0.0015735 -0.0690711 -0.176551)
(0.0323045 0.000292408 -0.139969)
(-0.138902 -0.0152252 -0.185985)
(-0.000283571 -0.112114 -0.158296)
(0.114151 -0.00959257 -0.0511489)
(-0.00287107 0.103145 -0.0357593)
(-0.00389789 -0.094338 -0.0229245)
(0.107281 0.00493652 0.080012)
(-0.0157672 -0.115755 0.015819)
(-0.0129229 -0.116085 0.0209436)
(-0.0145005 -0.106363 0.0473162)
(-0.0365791 0.00192439 0.293036)
(-0.0189856 0.00453076 0.305774)
(0.00180923 -0.0064617 0.330453)
(-0.00601085 0.0034813 0.309033)
(-0.00316741 0.002698 0.311983)
(-0.000751122 0.00344655 0.317948)
(0.00313883 0.00260943 0.287394)
(-0.00218651 0.00315039 0.312227)
(-0.0014827 0.00325785 0.323902)
(0.0029128 0.00413329 0.288353)
(0.00491441 0.00222634 0.298498)
(-0.00294529 0.002619 0.345809)
(-0.000527097 0.00466198 0.279688)
(0.00318295 0.00685876 0.284497)
(-0.002697 0.002814 0.345207)
(-0.00314826 0.00304742 0.350201)
(-0.0050114 0.00175827 0.314981)
(0.00369979 -0.00259854 0.345799)
(-0.00525936 0.00335121 0.309427)
(-0.00435747 0.00454681 0.301423)
(-0.00948348 0.0031609 0.344009)
(-0.00929408 0.00365819 0.338895)
(-0.00210176 0.000942958 0.331)
(-0.00560408 0.000982594 0.315758)
)


// ************************************************************************* //
