/*--------------------------------*- C++ -*----------------------------------*\
| =========                 |                                                 |
| \\      /  F ield         | OpenFOAM: The Open Source CFD Toolbox           |
|  \\    /   O peration     | Version:  plus.master.MPPICInterFoam            |
|   \\  /    A nd           | Web:      www.OpenFOAM.com                      |
|    \\/     M anipulation  |                                                 |
\*---------------------------------------------------------------------------*/
FoamFile
{
    version     2.0;
    format      ascii;
    class       vectorField;
    location    "6.8/lagrangian/kinematicCloud";
    object      UCorrect;
}
// * * * * * * * * * * * * * * * * * * * * * * * * * * * * * * * * * * * * * //


120
(
(-5.15083e-11 -1.06131e-10 1.21116e-07)
(-3.99441e-11 -6.60291e-11 1.21116e-07)
(-5.71056e-07 1.23768e-07 1.16008e-07)
(-4.07546e-14 -0.000985535 0.000279769)
(-5.77031e-07 9.75913e-08 2.23581e-07)
(1.99704e-06 -1.90261e-05 0.000279769)
(-4.07546e-14 -0.00101203 0.000279769)
(-4.07546e-14 -1.92511e-05 4.13211e-05)
(-3.39959e-11 -6.97665e-11 2.11337e-07)
(-5.77031e-07 9.75913e-08 2.17123e-07)
(-3.39959e-11 -6.97665e-11 1.8055e-07)
(-3.39959e-11 -6.97665e-11 1.98643e-07)
(1.01543e-06 -1.91367e-05 0.000279769)
(1.06723e-08 -9.5452e-09 5.74157e-13)
(-4.34296e-07 4.76461e-08 1.16008e-07)
(2.08998e-06 -1.90156e-05 0.000279769)
(1.48568e-11 1.66884e-12 7.62488e-15)
(-4.07546e-14 -1.92511e-05 8.13015e-05)
(-4.07546e-14 -1.92511e-05 6.20288e-05)
(-4.07546e-14 -1.92511e-05 1.01874e-05)
(6.85585e-08 1.56437e-08 1.9219e-11)
(5.7727e-07 9.76148e-08 3.55503e-07)
(5.7727e-07 9.76148e-08 3.42944e-07)
(6.79256e-18 1.839e-18 1.38623e-17)
(4.28144e-10 9.78431e-11 3.01911e-10)
(1.72639e-17 1.16935e-17 8.6523e-18)
(1.82938e-19 -9.37255e-11 1.01947e-10)
(1.74835e-18 2.46988e-18 2.50351e-16)
(1.56285e-19 1.95961e-19 1.30393e-34)
(6.59793e-20 -4.5808e-20 -8.37264e-20)
(-7.88743e-11 -1.46654e-09 1.11683e-12)
(-5.3648e-11 -2.35707e-10 3.12014e-13)
(-4.27514e-18 1.07943e-16 2.94388e-14)
(1.1514e-10 -1.46255e-09 1.11683e-12)
(7.22213e-19 2.40384e-19 -1.85344e-19)
(1.78042e-19 -7.61727e-19 1.48857e-18)
(4.20506e-13 -1.47547e-09 1.4068e-12)
(6.02615e-30 1.90328e-19 2.95892e-19)
(6.02615e-30 1.90328e-19 2.63205e-19)
(-1.94818e-13 -4.4466e-14 1.14433e-13)
(1.18567e-19 -3.65104e-19 5.82438e-22)
(1.18567e-19 -3.65104e-19 5.10877e-22)
(1.18567e-19 2.74952e-19 3.27056e-22)
(1.18567e-19 -3.65104e-19 4.09782e-22)
(8.24629e-20 -3.61036e-19 3.27056e-22)
(-4.54431e-18 7.12096e-19 3.14811e-17)
(1.18567e-19 -3.65104e-19 7.50308e-23)
(-3.8071e-19 -5.0591e-19 -2.51179e-19)
(-1.08614e-16 -1.25132e-15 2.03455e-15)
(1.96837e-19 3.29566e-19 -1.44606e-19)
(-6.02614e-30 -1.26356e-15 2.85043e-16)
(7.34677e-19 4.33162e-30 -4.22164e-19)
(-6.02614e-30 -1.26356e-15 1.23985e-16)
(-3.80873e-30 5.2628e-20 1.8171e-22)
(-8.8378e-19 -8.87191e-19 2.6608e-17)
(5.51625e-22 -1.20309e-19 9.30355e-20)
(1.71993e-20 -1.10265e-20 9.30355e-20)
(-6.02615e-30 -1.86889e-18 -2.49217e-19)
(-2.71224e-22 -1.20309e-19 9.30355e-20)
(1.73741e-20 -9.47516e-21 9.30355e-20)
(-6.02615e-30 -1.58933e-18 -2.49217e-19)
(-6.92573e-22 -1.20309e-19 9.30355e-20)
(-3.80873e-30 2.14621e-19 2.75439e-22)
(6.63154e-22 -1.20309e-19 9.30355e-20)
(2.40149e-19 -5.97224e-19 -4.88169e-20)
(1.86454e-19 -2.62313e-19 -1.5591e-19)
(2.08546e-19 1.20309e-19 -7.38056e-38)
(1.86454e-19 -2.62313e-19 -8.47238e-20)
(3.02635e-20 -2.20611e-19 2.08389e-19)
(-1.87019e-19 4.61643e-19 0)
(-1.21959e-19 8.33516e-20 0)
(6.77054e-22 5.60069e-19 4.65177e-19)
(2.02446e-19 2.57793e-19 -8.29188e-35)
(3.74984e-19 1.20309e-19 -8.6551e-35)
(1.21959e-19 -1.63903e-19 8.89815e-17)
(3.8681e-19 1.20309e-19 -8.6551e-35)
(-3.00421e-19 5.22367e-20 4.65177e-19)
(-2.43876e-20 4.32233e-19 9.28538e-20)
(2.88255e-20 1.46469e-19 2.36911e-35)
(7.08693e-31 -7.59807e-19 1.03584e-19)
(9.03781e-31 -9.0243e-19 1.17801e-19)
(7.08693e-31 4.58987e-19 1.03584e-19)
(7.72369e-19 1.76288e-19 1.17801e-19)
(7.08693e-31 5.88363e-19 1.03584e-19)
(8.62706e-20 -7.45536e-30 -1.17801e-19)
(-1.23631e-19 6.62845e-20 8.03548e-35)
(1.15266e-18 9.49507e-20 3.3292e-35)
(-7.01595e-19 -1.60134e-19 -2.35319e-19)
(1.78976e-29 1.43871e-20 -9.19982e-20)
(7.02297e-19 1.19234e-19 3.22683e-36)
(2.3023e-19 -1.57567e-18 3.80686e-35)
(2.72267e-08 -3.83355e-10 -2.93395e-18)
(-5.84987e-19 -1.55291e-21 -1.79678e-19)
(-8.51035e-07 -3.63951e-07 3.48528e-16)
(2.08021e-08 -1.72938e-09 -2.17412e-17)
(-2.89658e-06 2.86545e-05 3.48528e-16)
(1.61949e-16 5.59215e-17 7.85185e-19)
(3.15362e-13 2.89751e-18 5.06012e-14)
(2.08789e-14 4.52705e-15 -1.0548e-15)
(5.85141e-10 1.70812e-11 1.79651e-07)
(5.86781e-10 1.84621e-15 3.33515e-07)
(-2.22516e-05 -3.85133e-14 -9.88961e-05)
(4.98957e-07 -7.23174e-07 7.45795e-06)
(-0.000331327 -3.85133e-14 -0.000181013)
(1.2036e-06 4.4269e-15 -3.09068e-09)
(6.5546e-15 -1.12354e-09 4.98349e-07)
(4.98957e-07 -7.23174e-07 -7.47918e-06)
(9.61544e-08 2.43489e-09 1.18873e-06)
(-0.000941174 -6.33841e-05 -0.000239517)
(-1.97696e-13 0.000856529 -0.000239517)
(0.00151387 2.75642e-10 -3.43247e-05)
(0.00151387 2.75642e-10 -0.000163434)
(1.85655e-05 2.00686e-06 1.37262e-07)
(-2.16906e-19 1.51818e-18 -2.91526e-19)
(-3.8043e-06 1.19399e-13 1.42165e-07)
(1.84578e-05 -3.12853e-06 2.4511e-08)
(0.00151387 2.75642e-10 -0.000784238)
(0.00151387 2.75642e-10 -0.000826021)
(0.000556672 5.91284e-05 4.3927e-07)
(-2.1384e-05 9.87023e-05 4.3927e-07)
)


// ************************************************************************* //
