/*--------------------------------*- C++ -*----------------------------------*\
| =========                 |                                                 |
| \\      /  F ield         | OpenFOAM: The Open Source CFD Toolbox           |
|  \\    /   O peration     | Version:  plus.master.MPPICInterFoam            |
|   \\  /    A nd           | Web:      www.OpenFOAM.com                      |
|    \\/     M anipulation  |                                                 |
\*---------------------------------------------------------------------------*/
FoamFile
{
    version     2.0;
    format      ascii;
    class       volScalarField;
    location    "8.6";
    object      p_rgh;
}
// * * * * * * * * * * * * * * * * * * * * * * * * * * * * * * * * * * * * * //

dimensions      [1 -1 -2 0 0 0 0];

internalField   nonuniform List<scalar> 
11822
(
5711.44
5652.86
5665.9
5692.37
5736.04
5736.83
5736.49
5346.98
5356.47
5574.62
5571.18
5613.64
5737.4
5737.17
4909.39
4605.52
4644.7
5407.09
5605.59
5710.47
5737.64
4636.64
3566.74
3565.54
4610.73
5582.46
5675.26
5737.82
4850.65
4608.37
4592.74
5409.68
5596.65
5704.58
5737.69
5332.49
5142.51
5342.64
5450.92
5554.86
5737.69
5737.2
5701.34
5641.95
5676.27
5670.41
5735.42
5736.86
5736.5
5718.56
5636.73
5630.89
5667.24
5735.82
5735.77
5735.85
5283.4
5336.6
5531.8
5301.79
5474.11
5735.76
5736.02
4981.6
4908.41
5241.08
4925.86
5268.12
5691.19
5736.06
5099.77
3504.02
3502.43
4933.18
5422.27
5634.32
5736.07
5052.42
4603.98
5088.86
4830.49
5202.64
5679.83
5736.05
5306.13
5192.72
5207.81
5200.47
5380.94
5735.78
5736.01
5714.5
5634.93
5655.58
5639.91
5735.37
5735.63
5735.83
5674.09
5461.23
5411.57
5482.4
5715.48
5732.49
5734.28
4661.35
4290.82
3724.71
4031.43
4917.38
5723.48
5733.69
3979.3
3428.55
4756.32
2728.27
3906.2
5539.82
5733.2
4361.39
3888.31
3578.47
3441.35
4096.87
5432.89
5732.99
4246.03
3064.35
3816.46
2606.12
3742.05
5498.13
5733.14
4690.96
4332.1
3723.03
3968.83
4772.69
5714.29
5733.58
5674.62
5439.1
5402.07
5417.03
5696.52
5731.99
5734.13
5554.75
5021.88
4819.57
5032.5
5636.13
5733.72
5737.61
3601.7
2739.17
2577.93
2646.51
4058.04
5662.31
5737.13
2668.64
2570.92
2841.58
2553.25
2611.09
5171.92
5736.82
2654.39
4075.47
4084.88
2548.7
2640.38
5034.87
5736.7
2768.7
2555.11
2546.95
2548.44
2584.22
5083.48
5736.78
3620.7
2802.53
2573.78
2642.5
3953.56
5640.31
5737
5565.82
4952.97
4709.48
4929.86
5589.71
5732.99
5737.43
5505.56
4833.36
4542.21
4840.14
5581.3
5737.55
5744.26
3315.77
2527.42
2524.66
2516.71
3842.75
5606.95
5744.29
2525.29
2520.18
2517.49
2512.21
2516.65
5029.49
5744.4
2530.34
3663.56
4097.5
2504.71
2511.89
4931.19
5744.33
2521.01
2512.42
2503.3
2501.47
2503.48
4930.32
5744.25
3352.22
2520.67
2512.85
2503.38
3791.53
5595.47
5744.04
5523.11
4747.76
4414.07
4762.36
5551.56
5737.78
5743.95
5586.4
5047.34
4795.5
5054.58
5615.44
5747.14
5756.75
3709.76
2696.45
2481.59
2588.28
4213.2
5627.22
5757.28
2483.12
2482.36
2478.34
2475.14
2706.95
5220.9
5757.74
2483.88
2519.2
4090.73
2471.96
2720.16
5177.54
5757.75
2477.54
2472.94
2468.91
2464.52
2670.05
5130.15
5757.48
3765.02
2580
2472.06
2593.5
4156.6
5629.98
5756.87
5604.38
4976.25
4690.07
5007.48
5615.93
5748.5
5756.27
5735.72
5735.04
5734.15
5733.83
5733.59
5730.4
5733.19
5731.36
5736.07
5735.21
5734.51
5733.97
5733.58
5733.31
5733.15
5733.1
5736.35
5735.4
5734.62
5734.01
5733.55
5733.24
5733.07
5733.01
5736.48
5735.48
5734.66
5734.02
5733.53
5733.2
5733.02
5732.96
5736.4
5735.41
5734.6
5733.97
5733.49
5733.18
5733
5732.94
5736.11
5735.2
5734.45
5733.87
5733.45
5733.17
5733.01
5732.95
5735.66
5734.94
5734.31
5733.79
5733.45
5732.95
5732.99
5732.96
5735.56
5735.44
5735.15
5735.32
5735.4
5734.41
5735.33
5733.81
5736.02
5735.95
5735.81
5735.66
5735.53
5735.41
5735.32
5735.28
5736.24
5736.1
5735.89
5735.68
5735.5
5735.37
5735.28
5735.24
5736.27
5736.1
5735.87
5735.65
5735.46
5735.33
5735.24
5735.2
5736.18
5736.01
5735.81
5735.6
5735.43
5735.29
5735.21
5735.17
5735.97
5735.85
5735.69
5735.53
5735.39
5735.26
5735.18
5735.13
5735.58
5735.43
5735.38
5735.31
5735.28
5735.03
5735.12
5735.04
5734.69
5735.24
5735.57
5736.22
5736.59
5736.22
5735.16
5735.95
5734.92
5735.75
5736.27
5736.59
5736.81
5736.96
5737.05
5737.13
5734.9
5735.73
5736.23
5736.55
5736.77
5736.93
5737.05
5737.16
5734.83
5735.64
5736.15
5736.49
5736.73
5736.9
5737.02
5737.14
5734.77
5735.57
5736.11
5736.46
5736.7
5736.86
5736.98
5737.09
5734.75
5735.52
5736.07
5736.43
5736.66
5736.81
5736.92
5737.01
5734.68
5735.21
5735.76
5736.18
5736.5
5736.64
5736.82
5736.84
5738.04
5738.57
5738.85
5739.48
5739.66
5739.27
5729.5
5739.33
5738.05
5738.78
5739.29
5739.65
5739.91
5740.11
5740.26
5740.37
5737.99
5738.7
5739.21
5739.57
5739.84
5740.06
5740.24
5740.39
5737.91
5738.61
5739.13
5739.51
5739.79
5740.01
5740.2
5740.34
5737.88
5738.57
5739.11
5739.49
5739.77
5739.98
5740.16
5740.3
5737.88
5738.57
5739.11
5739.49
5739.76
5739.96
5740.13
5740.24
5737.93
5738.47
5738.98
5739.37
5739.67
5739.88
5740.05
5740.12
5744.03
5743.98
5743.68
5743.85
5743.5
5742.24
5731.56
5743.63
5744.05
5743.99
5743.92
5743.85
5743.81
5743.91
5744.21
5744.49
5744.07
5743.98
5743.9
5743.81
5743.75
5743.83
5744.15
5744.43
5744.02
5743.93
5743.85
5743.75
5743.69
5743.76
5744.06
5744.34
5743.93
5743.84
5743.77
5743.68
5743.61
5743.69
5744
5744.28
5743.82
5743.75
5743.68
5743.59
5743.55
5743.65
5743.96
5744.23
5743.76
5743.71
5743.63
5743.53
5743.47
5743.62
5743.93
5744.18
5755.91
5755.14
5754.36
5753.69
5752.96
5749.47
5742.22
5751.58
5755.85
5754.8
5753.92
5753.2
5752.62
5752.21
5751.98
5751.84
5755.93
5754.79
5753.84
5753.04
5752.37
5751.89
5751.62
5751.44
5755.87
5754.72
5753.75
5752.92
5752.23
5751.74
5751.44
5751.22
5755.74
5754.63
5753.69
5752.89
5752.24
5751.77
5751.5
5751.3
5755.55
5754.55
5753.67
5752.94
5752.38
5751.99
5751.78
5751.62
5755.53
5754.84
5754.04
5753.33
5752.64
5752.44
5752.26
5752.11
5734.39
5737.73
5736.83
5735.92
5735.19
5734.66
5734.34
5734.19
5690.06
5737.49
5737.11
5736.15
5735.43
5734.94
5734.64
5734.48
5548.1
5729.25
5737.65
5736.72
5735.81
5734.85
5734.94
5734.9
5456.84
5719.67
5737.72
5736.66
5727.89
5728.25
5735.13
5735.09
5559.28
5729.1
5737.69
5736.78
5734.86
5732.83
5735.01
5735
5688.59
5736.86
5737.21
5736.31
5735.6
5735.1
5734.8
5734.69
5734.25
5737.72
5736.96
5736.08
5735.37
5734.88
5734.61
5734.49
5735.61
5735.82
5735.89
5735.88
5735.83
5735.71
5735.57
5735.45
5708.41
5736.07
5736.27
5736.24
5736.1
5735.91
5735.72
5735.59
5577.48
5736.19
5736.54
5736.5
5736.15
5735.51
5735.84
5735.75
5614.49
5736.31
5736.71
5735.8
5726.63
5729.47
5736.04
5735.86
5593.01
5736.27
5736.62
5736.49
5734.56
5733.74
5735.96
5735.85
5699.92
5736.22
5736.4
5736.35
5736.22
5736.06
5735.89
5735.78
5735.93
5736.01
5736.05
5736.03
5735.99
5735.91
5735.8
5735.71
5731.88
5733.15
5734.22
5735.12
5735.76
5736.13
5736.28
5736.3
5670.25
5732.87
5734.4
5735.35
5735.9
5736.18
5736.28
5736.29
5233.37
5732.33
5734.25
5735.25
5735.5
5735.44
5736.2
5736.25
5349.5
5732.31
5734.3
5734.57
5725.8
5729.71
5736.28
5736.28
5289.97
5732.27
5734.27
5735.22
5733.42
5733.9
5736.33
5736.36
5642.82
5732.98
5734.52
5735.44
5736.01
5736.33
5736.47
5736.49
5732.19
5733.4
5734.42
5735.29
5735.93
5736.33
5736.52
5736.56
5735.44
5736.31
5737.17
5737.97
5738.56
5738.94
5739.16
5739.28
5564.57
5736.04
5737.17
5737.97
5738.51
5738.85
5739.05
5739.18
4378.98
5735.44
5736.84
5737.67
5737.65
5737.91
5738.86
5739.05
4417.24
5727.35
5736.6
5737.37
5727.88
5732.39
5738.81
5739.01
4447.12
5735.64
5737
5737.8
5734.99
5736.67
5738.99
5739.17
5487.23
5736.22
5737.34
5738.12
5738.66
5739.02
5739.26
5739.4
5735.5
5736.55
5737.37
5738.15
5738.77
5739.19
5739.43
5739.56
5743.89
5743.56
5743.43
5743.34
5743.31
5743.41
5743.69
5743.96
5515.96
5744.02
5743.67
5743.48
5743.38
5743.43
5743.7
5743.98
4080.05
5736.83
5743.81
5743.48
5742.32
5742.67
5743.66
5743.98
3802.41
5699.88
5743.56
5743.35
5732.81
5738.16
5743.62
5743.95
4085.43
5737.64
5743.92
5743.61
5739.19
5741.86
5743.76
5744.08
5419.37
5744.19
5743.86
5743.67
5743.58
5743.62
5743.91
5744.2
5743.64
5743.81
5743.71
5743.64
5743.62
5743.72
5744.01
5744.28
5757.91
5756.64
5755.38
5754.18
5753.16
5752.37
5751.82
5751.49
5590.95
5757.36
5755.61
5754.2
5753.06
5752.15
5751.51
5751.13
4433.64
5758.05
5756.12
5754.33
5751.7
5751.58
5751.38
5751.01
4018.21
5730.48
5756.03
5753.9
5742.54
5748.63
5751.26
5750.89
4401.27
5758.09
5756.19
5754.45
5748.46
5751.16
5751.38
5751.01
5505.25
5757.61
5755.83
5754.4
5753.22
5752.24
5751.57
5751.22
5757.58
5757.01
5755.78
5754.53
5753.43
5752.56
5751.97
5751.67
5738.75
5737.65
5736.63
5735.77
5735.11
5733.02
5734.34
5732.89
5738.52
5737.15
5736.12
5735.39
5734.67
5734.3
5734.25
5722.13
5737.9
5737
5736.01
5735.03
5734.61
5725.49
5733.08
5724.36
5737.77
5736.71
5735.8
5735.08
5734.09
5726.95
5733.65
5732.1
5737.1
5736.22
5735.34
5733.83
5734.09
5730.93
5733.42
5733.25
5736.44
5735.69
5734.97
5734.15
5732.19
5720.69
5733.03
5722
5735.79
5735.24
5734.65
5734.13
5732.26
5720.53
5732.31
5717.75
5735.84
5735.88
5735.93
5735.95
5735.89
5734.15
5735.78
5735.38
5736.13
5736.35
5736.35
5736.24
5735.87
5735.67
5735.8
5731.26
5736.28
5736.49
5736.43
5736.18
5735.67
5726.9
5735.39
5734.42
5736.35
5736.47
5736.36
5736.17
5734.78
5733.36
5735.4
5733.72
5736.39
5736.38
5736.16
5735.09
5735.7
5730.44
5735.04
5734.61
5736.22
5736.14
5735.99
5735.76
5729.69
5726.62
5734.88
5720.54
5735.81
5735.65
5735.56
5735.52
5732.92
5730.74
5734.55
5719.49
5732.2
5733.53
5734.66
5735.53
5736.11
5734.88
5734.75
5736.36
5732.54
5734.51
5735.6
5736.2
5736.42
5735.87
5730.27
5735.92
5732.8
5734.72
5735.73
5736.29
5735.57
5727.63
5736.49
5736.53
5733.37
5734.93
5735.8
5736.31
5734.78
5735.67
5729.38
5734.88
5734.12
5735.25
5735.93
5735.55
5734.77
5733.84
5735.21
5729.99
5734.73
5735.49
5736.06
5736.33
5728.57
5735.06
5736.35
5721.95
5734.95
5735.36
5735.85
5736.31
5730.87
5736.22
5732.76
5727.4
5735.74
5736.81
5737.74
5738.49
5739.01
5738.23
5733.51
5739.41
5735.93
5737.44
5738.38
5738.96
5739.33
5735.55
5721.39
5739.32
5736.14
5737.57
5738.46
5739.03
5736.87
5730.3
5737.46
5738.41
5736.75
5737.86
5738.61
5739.14
5737.89
5738.59
5724.58
5737.73
5737.28
5738.13
5738.79
5738.62
5731.51
5738.74
5737.94
5730.64
5737.77
5738.42
5739
5739.05
5731.47
5739.34
5739.53
5724.94
5738.11
5738.56
5739.08
5739.51
5733.68
5737.77
5721.92
5735.84
5744.16
5744.02
5743.91
5743.82
5743.67
5742.87
5738.29
5744.25
5744.51
5744.22
5744.08
5743.98
5743.94
5732.84
5725.53
5743.99
5744.7
5744.33
5744.2
5744.11
5741.09
5735.3
5725.76
5726.15
5744.69
5744.37
5744.26
5744.18
5743.28
5743.43
5728.65
5741.83
5744.37
5744.24
5744.2
5743.63
5735.67
5743.07
5743.03
5739.79
5744.15
5744.12
5744.1
5743.7
5735.59
5742.26
5739.51
5731.94
5744.05
5744.03
5744
5743.96
5739.07
5730.75
5724.96
5741.2
5758.64
5757.2
5755.79
5754.54
5753.21
5751.58
5748.95
5751.09
5758.86
5756.84
5755.36
5754.22
5753.31
5741.18
5732.86
5741.64
5758.74
5756.8
5755.4
5754.32
5750.86
5747.36
5732.89
5732.53
5758.28
5756.58
5755.32
5754.27
5753.24
5752.49
5743.39
5743.64
5757.35
5756.1
5755.04
5753.85
5747.71
5748.49
5750.06
5749.7
5756.5
5755.57
5754.67
5753.88
5746.81
5737.24
5732.61
5745.31
5755.95
5755.3
5754.57
5753.88
5750.38
5733.1
5732.88
5748.23
5735.75
5735.11
5734.48
5733.77
5733.15
5732.12
5732.8
5732.76
5736.49
5735.66
5734.9
5734.07
5732.19
5733.16
5733.08
5732.52
5737.15
5736.26
5735.39
5734.6
5732.82
5733.31
5733.27
5733.13
5737.83
5736.76
5735.77
5734.84
5734.32
5733.14
5733.03
5733.37
5737.91
5737.05
5735.98
5734.95
5733.87
5734.08
5733.51
5733.53
5738.45
5737.19
5736.04
5735.19
5734.36
5734.16
5733.89
5733.78
5738.9
5737.7
5736.54
5735.59
5734.89
5734.43
5734.14
5733.97
5735.73
5735.53
5735.39
5734.95
5735.06
5733.82
5733.79
5734.77
5736.1
5735.93
5735.75
5735.29
5733.79
5734.79
5730.81
5734.25
5736.3
5736.19
5736
5735.69
5733.94
5734.97
5734.99
5734.72
5736.27
5736.34
5736.17
5735.91
5735.7
5735.44
5735.21
5735.08
5736.18
5736.37
5736.25
5735.84
5735.76
5735.58
5735.09
5735.15
5735.95
5736.21
5736.18
5735.93
5735.8
5735.63
5735.4
5735.31
5735.5
5735.58
5735.69
5735.75
5735.72
5735.61
5735.47
5735.35
5734.77
5735.18
5735.62
5735.62
5736.33
5735.2
5734.02
5736.5
5734.41
5735.11
5735.67
5735.63
5735.59
5735.66
5729.11
5735.8
5733.78
5734.84
5735.55
5735.9
5734.63
5735.85
5731.6
5735.47
5733.06
5734.59
5735.45
5735.93
5735.99
5736.26
5736.44
5736.44
5732.51
5734.42
5735.39
5735.76
5736.27
5736.43
5736.22
5736.48
5732.09
5734.12
5735.26
5735.73
5736.23
5736.41
5736.34
5736.46
5731.64
5733.05
5734.31
5735.26
5735.87
5736.21
5736.34
5736.35
5737.92
5738.37
5738.8
5738.88
5739.48
5738.16
5737.1
5739.81
5737.49
5738.11
5738.63
5738.54
5739.1
5737.5
5732.08
5739.02
5736.98
5737.78
5738.4
5738.72
5737.51
5738.67
5731.93
5738.19
5736.53
5737.54
5738.25
5738.71
5737.52
5738.9
5739.43
5739.02
5736.06
5737.34
5738.16
5738.5
5739.05
5738.42
5739.26
5739.58
5735.62
5737.13
5738.07
5738.55
5739.02
5739.19
5739.2
5739.52
5735.36
5736.46
5737.44
5738.23
5738.78
5739.12
5739.31
5739.41
5743.7
5743.66
5743.55
5743.34
5743.31
5741.65
5741.66
5744.01
5743.76
5743.69
5743.55
5743
5743.33
5738.31
5736.01
5743.39
5743.94
5743.75
5743.64
5743.26
5742
5742.52
5736.02
5742.6
5744.25
5743.85
5743.68
5743.53
5741.86
5742.93
5742.43
5742.83
5744.33
5743.86
5743.67
5743.44
5743.43
5742.56
5743.77
5744.1
5744.15
5743.8
5743.64
5743.5
5743.45
5742.66
5743.58
5744.06
5743.85
5743.69
5743.56
5743.45
5743.39
5743.49
5743.76
5744.02
5755.45
5754.87
5754.09
5753.41
5752.35
5750.41
5751.33
5752.06
5755.9
5755.01
5754.08
5752.81
5752.7
5746.23
5743.91
5751.33
5756.65
5755.41
5754.36
5752.99
5752.24
5749.52
5743.72
5750.49
5757.49
5755.81
5754.58
5753.55
5751.66
5751.72
5743.76
5749.83
5757.94
5756.01
5754.66
5753.61
5752.65
5751.08
5751.5
5751.15
5758.14
5756.19
5754.76
5753.66
5752.8
5751.24
5751.41
5751.26
5758.14
5756.81
5755.41
5754.17
5753.18
5752.43
5751.91
5751.6
5702.35
5702.35
5702.41
5702.52
5702.64
5702.75
5702.84
5702.93
5702.3
5702.3
5702.37
5702.48
5702.6
5702.71
5702.81
5702.89
5702.27
5702.27
5702.34
5702.46
5702.58
5702.69
5702.79
5702.88
5702.24
5702.25
5702.32
5702.43
5702.56
5702.67
5702.77
5702.85
5702.22
5702.23
5702.3
5702.41
5702.53
5702.65
5702.75
5702.83
5702.2
5702.21
5702.28
5702.4
5702.52
5702.63
5702.73
5702.81
5702.2
5702.21
5702.28
5702.39
5702.51
5702.62
5702.72
5702.8
5701.67
5701.76
5701.94
5702.18
5702.41
5702.6
5702.74
5702.84
5701.62
5701.71
5701.9
5702.14
5702.37
5702.56
5702.7
5702.79
5701.59
5701.68
5701.87
5702.12
5702.36
5702.55
5702.69
5702.79
5701.56
5701.66
5701.85
5702.1
5702.34
5702.53
5702.67
5702.76
5701.53
5701.63
5701.83
5702.08
5702.31
5702.5
5702.64
5702.74
5701.51
5701.61
5701.8
5702.05
5702.29
5702.48
5702.62
5702.72
5701.51
5701.61
5701.8
5702.05
5702.28
5702.47
5702.61
5702.7
5700.79
5700.97
5701.33
5701.77
5702.16
5702.44
5702.61
5702.69
5700.74
5700.93
5701.3
5701.74
5702.13
5702.41
5702.57
5702.65
5700.71
5700.91
5701.29
5701.75
5702.14
5702.42
5702.59
5702.66
5700.68
5700.89
5701.28
5701.74
5702.13
5702.41
5702.57
5702.64
5700.64
5700.86
5701.26
5701.71
5702.1
5702.38
5702.54
5702.62
5700.61
5700.83
5701.21
5701.66
5702.06
5702.34
5702.51
5702.59
5700.6
5700.81
5701.2
5701.64
5702.03
5702.32
5702.49
5702.57
5698.33
5699.13
5700.23
5701.21
5701.91
5702.32
5702.46
5702.45
5698.3
5699.12
5700.23
5701.22
5701.92
5702.32
5702.46
5702.45
5698.31
5699.16
5700.29
5701.27
5701.97
5702.37
5702.52
5702.5
5698.32
5699.19
5700.32
5701.3
5701.99
5702.38
5702.51
5702.48
5698.28
5699.15
5700.28
5701.27
5701.96
5702.35
5702.49
5702.47
5698.21
5699.07
5700.2
5701.18
5701.87
5702.28
5702.44
5702.45
5698.19
5699.03
5700.16
5701.14
5701.83
5702.24
5702.41
5702.42
5697.24
5698.33
5700.06
5701.47
5702.34
5702.71
5702.65
5702.23
5697.28
5698.4
5700.15
5701.55
5702.41
5702.78
5702.71
5702.31
5697.36
5698.56
5700.31
5701.7
5702.54
5702.89
5702.81
5702.42
5697.41
5698.67
5700.42
5701.78
5702.6
5702.92
5702.81
5702.42
5697.32
5698.58
5700.35
5701.72
5702.55
5702.88
5702.8
5702.43
5697.15
5698.38
5700.14
5701.53
5702.39
5702.75
5702.72
5702.39
5697.09
5698.28
5700.04
5701.45
5702.32
5702.7
5702.69
5702.37
5684.75
5692.91
5698.88
5702.44
5704.08
5704.59
5676.49
5434.22
5684.88
5693.21
5699.2
5702.66
5704.23
5704.7
5672.33
5441.66
5684.75
5693.7
5699.7
5703.01
5704.45
5704.86
5664.99
5442.36
5684.7
5694.08
5700.07
5703.24
5704.59
5704.94
5650.63
5428.55
5684.46
5693.83
5699.84
5703.06
5704.45
5704.81
5658.73
5437.9
5684.29
5693.3
5699.29
5702.62
5704.09
5704.51
5672.78
5450.79
5684.4
5693.13
5699.06
5702.44
5703.96
5704.4
5685.21
5466.35
5702.5
5702.5
5702.55
5702.65
5702.76
5702.86
5702.95
5703.03
5702.56
5702.55
5702.61
5702.7
5702.81
5702.91
5703.01
5703.09
5702.61
5702.61
5702.66
5702.75
5702.86
5702.96
5703.06
5703.14
5702.66
5702.66
5702.7
5702.8
5702.91
5703.01
5703.1
5703.19
5702.7
5702.69
5702.74
5702.84
5702.94
5703.05
5703.14
5703.22
5702.73
5702.72
5702.77
5702.86
5702.97
5703.07
5703.16
5703.25
5702.74
5702.73
5702.78
5702.88
5702.98
5703.08
5703.18
5703.26
5701.88
5701.95
5702.11
5702.34
5702.55
5702.72
5702.86
5702.96
5701.95
5702.02
5702.18
5702.4
5702.61
5702.79
5702.93
5703.03
5702.02
5702.09
5702.24
5702.46
5702.67
5702.85
5702.99
5703.09
5702.08
5702.14
5702.3
5702.51
5702.72
5702.9
5703.04
5703.14
5702.13
5702.19
5702.34
5702.56
5702.77
5702.95
5703.08
5703.19
5702.16
5702.22
5702.37
5702.59
5702.8
5702.97
5703.11
5703.21
5702.17
5702.23
5702.38
5702.6
5702.81
5702.99
5703.12
5703.22
5701.05
5701.18
5701.51
5701.93
5702.3
5702.58
5702.75
5702.84
5701.13
5701.26
5701.58
5702
5702.38
5702.66
5702.83
5702.92
5701.22
5701.33
5701.65
5702.07
5702.45
5702.72
5702.9
5702.99
5701.29
5701.38
5701.72
5702.13
5702.51
5702.79
5702.96
5703.06
5701.34
5701.43
5701.76
5702.18
5702.56
5702.84
5703.01
5703.11
5701.38
5701.47
5701.79
5702.21
5702.59
5702.87
5703.04
5703.14
5701.39
5701.47
5701.8
5702.22
5702.6
5702.88
5703.05
5703.15
5698.57
5699.31
5700.35
5701.33
5702.03
5702.43
5702.59
5702.6
5698.67
5699.4
5700.44
5701.42
5702.12
5702.53
5702.69
5702.7
5698.76
5699.48
5700.51
5701.49
5702.2
5702.61
5702.77
5702.79
5698.85
5699.55
5700.58
5701.57
5702.28
5702.69
5702.85
5702.87
5698.9
5699.6
5700.63
5701.62
5702.34
5702.75
5702.91
5702.93
5698.94
5699.63
5700.67
5701.66
5702.39
5702.8
5702.96
5702.98
5698.93
5699.62
5700.66
5701.65
5702.37
5702.79
5702.96
5702.98
5697.29
5698.18
5699.92
5701.41
5702.34
5702.73
5702.7
5702.29
5697.46
5698.32
5700.04
5701.53
5702.47
5702.86
5702.8
5702.39
5697.6
5698.45
5700.14
5701.62
5702.57
5702.95
5702.87
5702.44
5697.77
5698.57
5700.23
5701.71
5702.67
5703.05
5702.97
5702.52
5697.83
5698.62
5700.28
5701.77
5702.73
5703.12
5703.04
5702.6
5697.87
5698.66
5700.33
5701.83
5702.79
5703.19
5703.11
5702.68
5697.85
5698.63
5700.3
5701.79
5702.75
5703.16
5703.09
5702.67
5685.87
5690.93
5697.55
5701.89
5703.91
5704.37
5698.91
5458.7
5686.16
5690.86
5697.63
5702.08
5704.14
5704.57
5688
5469.77
5686.48
5690.8
5697.65
5702.16
5704.26
5704.68
5686.67
5430.84
5686.72
5690.77
5697.69
5702.25
5704.39
5704.82
5680.77
5408.66
5686.83
5690.76
5697.69
5702.27
5704.44
5704.88
5678.41
5407.7
5686.85
5690.83
5697.75
5702.34
5704.51
5704.95
5679.52
5409.08
5686.77
5690.9
5697.7
5702.24
5704.39
5704.85
5684.63
5414.13
5702.73
5702.73
5702.78
5702.87
5702.98
5703.08
5703.17
5703.25
5702.72
5702.71
5702.77
5702.87
5702.97
5703.08
5703.17
5703.25
5702.69
5702.68
5702.74
5702.84
5702.95
5703.05
5703.14
5703.22
5702.64
5702.63
5702.69
5702.79
5702.9
5703
5703.1
5703.18
5702.56
5702.56
5702.62
5702.72
5702.83
5702.94
5703.03
5703.11
5702.48
5702.48
5702.54
5702.64
5702.76
5702.86
5702.96
5703.04
5702.41
5702.41
5702.47
5702.57
5702.69
5702.8
5702.89
5702.97
5702.17
5702.23
5702.38
5702.6
5702.81
5702.99
5703.12
5703.22
5702.16
5702.22
5702.38
5702.57
5702.81
5702.99
5703.12
5703.22
5702.12
5702.19
5702.35
5702.53
5702.78
5702.96
5703.1
5703.19
5702.05
5702.12
5702.29
5702.52
5702.73
5702.91
5703.04
5703.13
5701.96
5702.03
5702.2
5702.43
5702.65
5702.82
5702.95
5703.05
5701.85
5701.92
5702.1
5702.3
5702.55
5702.73
5702.86
5702.96
5701.75
5701.83
5702.01
5702.24
5702.47
5702.65
5702.79
5702.88
5701.39
5701.48
5701.81
5702.23
5702.6
5702.88
5703.05
5703.15
5701.4
5701.49
5701.59
5702.18
5702.63
5702.9
5703.07
5703.15
5701.38
5701.49
5701.48
5702.14
5702.62
5702.89
5703.04
5703.12
5701.3
5701.43
5701.76
5702.18
5702.56
5702.82
5702.97
5703.04
5701.17
5701.3
5701.61
5702.07
5702.45
5702.72
5702.87
5702.93
5701.02
5701.17
5701.16
5701.82
5702.33
5702.6
5702.75
5702.82
5700.89
5701.06
5701.38
5701.83
5702.22
5702.5
5702.66
5702.74
5698.94
5699.63
5700.68
5701.67
5702.39
5702.8
5702.96
5702.98
5698.98
5699.23
5700.1
5701.66
5702.45
5702.86
5703
5703
5699
5699.29
5700.14
5701.67
5702.48
5702.87
5703
5702.97
5698.94
5699.67
5700.74
5701.73
5702.42
5702.8
5702.91
5702.87
5698.78
5699.38
5700.49
5701.59
5702.28
5702.66
5702.77
5702.72
5698.57
5698.41
5699.49
5701.26
5702.11
5702.5
5702.62
5702.58
5698.44
5698.98
5700
5701.25
5701.98
5702.38
5702.51
5702.48
5697.9
5698.7
5700.36
5701.84
5702.78
5703.17
5703.11
5702.69
5698.07
5696.55
5700.01
5702.06
5702.97
5703.32
5703.22
5702.77
5698.19
5696.99
5700.15
5702.22
5703.09
5703.41
5703.28
5702.79
5698.14
5699.08
5700.8
5702.19
5703.03
5703.33
5703.19
5702.68
5697.88
5698.75
5700.5
5702
5702.84
5703.15
5703
5702.49
5697.61
5696.48
5699.45
5701.73
5702.59
5702.92
5702.8
5702.31
5697.2
5697.22
5699.66
5701.56
5702.43
5702.78
5702.68
5702.22
5685.46
5691.25
5697.92
5702.34
5704.41
5704.86
5686.82
5421.87
5677.75
5689.34
5698.63
5702.94
5704.82
5705.17
5687.42
5424.68
5678.3
5690.35
5699.36
5703.45
5705.15
5705.43
5686.52
5457.73
5685.49
5693.5
5699.77
5703.5
5705.09
5705.37
5690.83
5442.42
5685.03
5693.32
5699.47
5703.23
5704.82
5705.16
5689.1
5427.17
5680.16
5690.89
5698.88
5702.79
5704.44
5704.85
5684.83
5427.78
5680.44
5691.49
5698.77
5702.56
5704.23
5704.7
5679.43
5428.42
5702.22
5702.22
5702.29
5702.4
5702.52
5702.63
5702.73
5702.81
5702.24
5702.25
5702.32
5702.43
5702.54
5702.65
5702.74
5702.83
5702.28
5702.29
5702.36
5702.47
5702.58
5702.68
5702.78
5702.86
5702.33
5702.34
5702.4
5702.5
5702.62
5702.72
5702.81
5702.89
5702.37
5702.38
5702.44
5702.54
5702.65
5702.75
5702.85
5702.93
5702.41
5702.41
5702.47
5702.57
5702.68
5702.78
5702.87
5702.96
5702.46
5702.45
5702.51
5702.61
5702.71
5702.81
5702.91
5702.99
5701.53
5701.63
5701.82
5702.06
5702.29
5702.47
5702.61
5702.71
5701.57
5701.67
5701.85
5702.09
5702.31
5702.5
5702.63
5702.73
5701.63
5701.73
5701.91
5702.15
5702.37
5702.55
5702.68
5702.77
5701.69
5701.78
5701.96
5702.2
5702.41
5702.59
5702.72
5702.81
5701.74
5701.83
5702
5702.24
5702.45
5702.63
5702.76
5702.85
5701.78
5701.86
5702.03
5702.26
5702.47
5702.65
5702.78
5702.88
5701.83
5701.9
5702.06
5702.29
5702.5
5702.67
5702.81
5702.91
5700.63
5700.83
5701.21
5701.65
5702.04
5702.32
5702.49
5702.58
5700.68
5700.89
5701.26
5701.7
5702.08
5702.35
5702.51
5702.59
5700.77
5700.97
5701.34
5701.78
5702.15
5702.42
5702.58
5702.65
5700.86
5701.06
5701.42
5701.85
5702.22
5702.48
5702.63
5702.7
5700.92
5701.1
5701.45
5701.88
5702.25
5702.51
5702.66
5702.73
5700.95
5701.11
5701.46
5701.88
5702.25
5702.51
5702.67
5702.75
5700.98
5701.13
5701.46
5701.88
5702.25
5702.52
5702.69
5702.78
5698.21
5699.05
5700.16
5701.14
5701.83
5702.24
5702.41
5702.43
5698.28
5699.12
5700.23
5701.2
5701.88
5702.27
5702.42
5702.41
5698.41
5699.25
5700.35
5701.31
5701.98
5702.36
5702.49
5702.47
5698.52
5699.36
5700.45
5701.41
5702.07
5702.44
5702.55
5702.52
5698.57
5699.38
5700.46
5701.42
5702.09
5702.46
5702.58
5702.55
5698.54
5699.32
5700.38
5701.35
5702.03
5702.42
5702.56
5702.55
5698.52
5699.26
5700.31
5701.28
5701.98
5702.38
5702.53
5702.54
5697.08
5698.26
5700.02
5701.43
5702.3
5702.68
5702.68
5702.36
5697.16
5698.34
5700.11
5701.51
5702.36
5702.71
5702.65
5702.29
5697.34
5698.54
5700.32
5701.71
5702.53
5702.84
5702.74
5702.33
5697.51
5698.68
5700.46
5701.84
5702.66
5702.95
5702.83
5702.39
5697.51
5698.62
5700.4
5701.81
5702.65
5702.96
5702.86
5702.42
5697.35
5698.36
5700.13
5701.58
5702.47
5702.83
5702.77
5702.35
5697.23
5698.15
5699.89
5701.37
5702.29
5702.69
5702.67
5702.27
5684.46
5692.99
5698.95
5702.37
5703.9
5704.34
5690.25
5467.9
5684.58
5692.98
5699.03
5702.51
5704.02
5704.43
5673.7
5433.14
5685.01
5693.29
5699.42
5702.9
5704.36
5704.7
5667.97
5410.13
5685.54
5693.46
5699.64
5703.15
5704.6
5704.9
5671.93
5404.48
5685.8
5693.06
5699.33
5703.02
5704.58
5704.9
5683.61
5415.91
5685.71
5692.08
5698.47
5702.44
5704.2
5704.62
5694.19
5424.29
5685.7
5691.25
5697.7
5701.88
5703.83
5704.32
5701.22
5446.05
5703.34
5703.24
5703.34
5703
5703.05
5703.1
5703.15
5703.22
5703.31
5703.43
5703.55
5702.95
5703
5703.05
5703.1
5703.17
5703.26
5703.37
5703.51
5702.94
5702.99
5703.04
5703.09
5703.16
5703.25
5703.37
5703.5
5702.92
5702.97
5703.01
5703.07
5703.13
5703.22
5703.34
5703.48
5702.9
5702.94
5702.99
5703.04
5703.11
5703.2
5703.32
5703.46
5702.88
5702.92
5702.97
5703.02
5703.09
5703.18
5703.3
5703.43
5702.87
5702.91
5702.96
5703.01
5703.07
5703.16
5703.29
5703.43
5702.91
5702.96
5703.01
5703.07
5703.15
5703.27
5703.42
5703.58
5702.86
5702.91
5702.95
5703.01
5703.08
5703.18
5703.34
5703.48
5702.86
5702.9
5702.95
5703
5703.07
5703.18
5703.34
5703.51
5702.83
5702.87
5702.92
5702.97
5703.05
5703.16
5703.31
5703.47
5702.81
5702.85
5702.89
5702.94
5703.01
5703.12
5703.28
5703.42
5702.78
5702.83
5702.87
5702.92
5702.99
5703.1
5703.25
5703.41
5702.77
5702.81
5702.85
5702.9
5702.97
5703.08
5703.23
5703.21
5702.75
5702.78
5702.83
5702.89
5702.99
5703.13
5703.31
5703.49
5702.7
5702.72
5702.76
5702.81
5702.89
5703
5700.32
5701.26
5702.71
5702.74
5702.77
5702.82
5702.89
5703.01
5700.59
5702.91
5702.68
5702.71
5702.74
5702.79
5702.86
5702.98
5701.76
5703.29
5702.66
5702.68
5702.71
5702.75
5702.82
5702.93
5697.57
5702.77
5702.64
5702.66
5702.69
5702.72
5702.79
5702.89
5699.19
5702.07
5702.62
5702.64
5702.66
5702.69
5702.75
5702.85
5698.47
5700.57
5702.43
5702.44
5702.47
5702.58
5702.74
5702.59
5703.17
5703.32
5702.42
5702.42
5702.46
5702.58
5702.76
5683.55
5643.9
5699.67
5702.47
5702.47
5702.5
5702.61
5702.76
5676.41
5654.94
5701.71
5702.45
5702.44
5702.47
5702.57
5702.71
5667.7
5667.32
5703.25
5702.45
5702.45
5702.48
5702.57
5702.71
5658.18
5648.15
5702.53
5702.45
5702.46
5702.48
5702.58
5702.71
5650.4
5635.72
5700.36
5702.42
5702.43
5702.45
5702.53
5702.64
5659.71
5624.24
5699.5
5701.76
5689.87
5632.75
5619.82
5621.73
5528.61
5666.03
5693.92
5702.11
5691.58
5599.64
5599.7
5651.26
5507.88
5624.67
5697.39
5702.25
5687.69
5606.19
5607.83
5611.9
5477.69
5637.37
5687.53
5702.25
5682.15
5606.1
5603.25
5589.67
5456.91
5643.03
5686.99
5702.29
5685.73
5618.22
5597.82
5587.42
5463.54
5636.52
5680.49
5702.28
5697.21
5623.59
5610.76
5592.98
5474.53
5606.05
5681.98
5702.26
5701.75
5629.53
5612.1
5590.17
5442.03
5592.51
5697.59
5190.23
5031.53
5015.12
5244.58
5223.48
5371.16
5445.02
5265.59
5218.1
4995.93
5008.83
5348.63
5186.3
5410.54
5568.11
5299.69
5255.85
4972.68
5062.97
5371.92
5177.68
5394.63
5594.36
5297.35
5240.92
4930.93
5076.89
5360.61
5177.8
5410.05
5580.41
5297.06
5266.07
4981.37
5080.7
5333.47
5179.66
5437.47
5606.07
5297.8
5283.3
5104.11
5053.59
5283.75
5340.57
5523.94
5523.88
5315.86
5270.55
5141.86
5017.83
5401.2
5333.95
5440.98
5562.6
5314.66
5703.1
5703.15
5703.21
5703.26
5703.33
5703.42
5703.54
5703.67
5703.16
5703.21
5703.26
5703.32
5703.39
5703.48
5703.6
5703.72
5703.21
5703.26
5703.31
5703.37
5703.44
5703.53
5703.64
5703.77
5703.25
5703.31
5703.36
5703.42
5703.48
5703.57
5703.68
5703.81
5703.29
5703.34
5703.39
5703.45
5703.52
5703.61
5703.72
5703.84
5703.31
5703.36
5703.42
5703.47
5703.54
5703.63
5703.74
5703.86
5703.32
5703.37
5703.42
5703.48
5703.55
5703.64
5703.75
5703.87
5703.04
5703.1
5703.15
5703.22
5703.3
5703.42
5703.58
5703.74
5703.11
5703.17
5703.23
5703.3
5703.38
5703.5
5703.65
5703.82
5703.17
5703.23
5703.29
5703.35
5703.44
5703.55
5703.7
5703.87
5703.22
5703.28
5703.34
5703.41
5703.49
5703.6
5703.75
5703.92
5703.27
5703.32
5703.38
5703.45
5703.53
5703.64
5703.79
5703.96
5703.29
5703.35
5703.4
5703.47
5703.55
5703.66
5703.81
5703.98
5703.3
5703.36
5703.41
5703.48
5703.56
5703.67
5703.82
5703.99
5702.91
5702.96
5703.01
5703.09
5703.19
5703.34
5703.52
5703.72
5703
5703.05
5703.11
5703.19
5703.29
5703.43
5703.62
5703.81
5703.07
5703.12
5703.18
5703.26
5703.36
5703.5
5703.68
5703.88
5703.13
5703.19
5703.25
5703.32
5703.42
5703.56
5703.74
5703.93
5703.18
5703.24
5703.3
5703.37
5703.47
5703.6
5703.78
5703.97
5703.22
5703.27
5703.33
5703.4
5703.49
5703.63
5703.81
5704
5703.22
5703.28
5703.33
5703.4
5703.49
5703.63
5703.81
5704
5702.63
5702.66
5702.72
5702.83
5702.98
5703.12
5703.42
5703.6
5702.73
5702.78
5702.86
5702.97
5703.12
5703.3
5703.54
5703.72
5702.82
5702.87
5702.95
5703.07
5703.22
5703.38
5703.6
5703.79
5702.9
5702.95
5703.04
5703.16
5703.3
5703.44
5703.66
5703.84
5702.97
5703.02
5703.11
5703.23
5703.36
5703.49
5703.71
5703.9
5703.02
5703.07
5703.15
5703.27
5703.39
5703.51
5703.73
5703.92
5703.02
5703.07
5703.15
5703.26
5703.38
5703.5
5703.72
5703.92
5698.77
5702.27
5662.88
5620.48
5631.69
5550.68
5669.71
5703.61
5697.71
5701.43
5684.61
5651.16
5654.71
5579.3
5667.18
5703.91
5701.24
5702.4
5674.07
5664.46
5675.36
5596.72
5662.72
5703.94
5702.36
5702.48
5672.64
5681.15
5680.24
5589.6
5663.55
5704.01
5702.45
5701.61
5674.48
5690.42
5682.6
5584.04
5661.94
5704.06
5702.53
5701.11
5674.77
5695.13
5682.73
5576.63
5657.41
5704.1
5702.52
5700.92
5672.83
5695.85
5681.46
5572.16
5658.24
5704.09
5039.53
5176.33
5103.53
5184.87
5297.75
5393.73
5400.11
5303.15
5053.92
5119.51
5161.21
5142.69
5253.13
5389.35
5410.42
5318.65
5075.53
5164.16
5099.79
5240.14
5292.27
5381.05
5391.91
5338.01
5150.04
5124.68
5105.46
5312.54
5280.99
5372.8
5400.63
5345.16
5186.59
5089.36
5141.82
5353.42
5283.42
5371.02
5408.3
5350.94
5201.57
5089.71
5156.34
5377.74
5289.81
5371.61
5413.98
5355.34
5200.91
5091.04
5162.05
5394.91
5283.51
5372.42
5417.4
5356.6
5703.32
5703.37
5703.42
5703.47
5703.54
5703.63
5703.74
5703.86
5703.31
5703.36
5703.41
5703.46
5703.53
5703.62
5703.73
5703.85
5703.29
5703.33
5703.38
5703.44
5703.5
5703.59
5703.7
5703.82
5703.24
5703.29
5703.33
5703.39
5703.45
5703.54
5703.65
5703.78
5703.17
5703.22
5703.27
5703.32
5703.39
5703.48
5703.59
5703.72