/*--------------------------------*- C++ -*----------------------------------*\
| =========                 |                                                 |
| \\      /  F ield         | OpenFOAM: The Open Source CFD Toolbox           |
|  \\    /   O peration     | Version:  plus.master.MPPICInterFoam            |
|   \\  /    A nd           | Web:      www.OpenFOAM.com                      |
|    \\/     M anipulation  |                                                 |
\*---------------------------------------------------------------------------*/
FoamFile
{
    version     2.0;
    format      ascii;
    class       volScalarField;
    location    "7.6";
    object      nut;
}
// * * * * * * * * * * * * * * * * * * * * * * * * * * * * * * * * * * * * * //

dimensions      [0 2 -1 0 0 0 0];

internalField   nonuniform List<scalar> 
11822
(
0.000768952
0.000813628
0.000843466
0.000851861
0.000829309
0.000797752
0.000752641
0.000820261
0.000877017
0.000917345
0.000915003
0.0008746
0.000846802
0.000795323
0.0008675
0.000949314
0.000957897
0.000964494
0.000942543
0.000888003
0.000824154
0.000879674
0.00095695
0.000968473
0.000989216
0.000969763
0.000904084
0.000835193
0.000850704
0.000919459
0.000935914
0.000976937
0.000959358
0.0008846
0.000823366
0.000816996
0.000861977
0.00089598
0.000907594
0.000886554
0.000847263
0.000796718
0.000771143
0.000812467
0.000838713
0.000844865
0.000829916
0.000799449
0.00075474
0.000775506
0.000819248
0.000857496
0.000864945
0.000837436
0.000805581
0.000760053
0.000823726
0.00088335
0.00096176
0.00096439
0.000904127
0.00085253
0.000803317
0.0008621
0.000935793
0.000988072
0.0010018
0.000981264
0.000891129
0.00083196
0.000873373
0.000938646
0.000980966
0.00100009
0.000969959
0.000901165
0.000841591
0.000855362
0.000889764
0.000914988
0.000933596
0.000897852
0.00088091
0.000830075
0.00082517
0.000866349
0.000890646
0.000901943
0.000884063
0.00085218
0.000803255
0.000778669
0.000820931
0.000845512
0.000851722
0.000836849
0.000806279
0.000761263
0.000781104
0.000824281
0.000849798
0.000857265
0.000841156
0.000810772
0.000765791
0.000831473
0.000877371
0.000860745
0.000891535
0.000879474
0.000856554
0.000809526
0.000870267
0.000942317
0.000968715
0.000931809
0.000867061
0.000884757
0.000836709
0.000880219
0.000953228
0.00097845
0.000890972
0.000872022
0.0008956
0.000845859
0.000863824
0.000904458
0.000920173
0.000895177
0.000897655
0.000884889
0.000835493
0.000832053
0.000876388
0.000901477
0.000905488
0.000890363
0.000856968
0.000808515
0.000783944
0.000828002
0.000853
0.000857748
0.000842503
0.000811244
0.000766135
0.000777982
0.000820793
0.000844187
0.000850011
0.000838939
0.000809444
0.000766958
0.000826694
0.000861594
0.000853643
0.000851659
0.000879071
0.000856182
0.000809796
0.000860663
0.000888096
0.00083251
0.000844279
0.000884886
0.000887123
0.00083691
0.000872608
0.000899107
0.000852008
0.000872547
0.000894004
0.000897688
0.000845662
0.000861362
0.000902141
0.000916314
0.000915588
0.000913414
0.000886603
0.000834877
0.000827507
0.000879492
0.000908212
0.000912193
0.000893409
0.00085404
0.000807742
0.000781199
0.000825651
0.000851921
0.000856407
0.000840768
0.000809723
0.000766168
0.000761994
0.000802533
0.000827602
0.000835621
0.00082088
0.000795039
0.000762989
0.000796836
0.000834743
0.000853069
0.000859436
0.000857866
0.000830086
0.000800564
0.00081397
0.000824059
0.000845505
0.000862502
0.000876605
0.000852431
0.000824155
0.000818432
0.000831019
0.000853984
0.000876537
0.000885086
0.000852564
0.00083135
0.000821792
0.000857855
0.000879043
0.000890037
0.000875211
0.000848327
0.000822922
0.000798521
0.000839616
0.000859598
0.000864233
0.000850137
0.000829708
0.000800874
0.000769618
0.000808413
0.000832187
0.00083706
0.000824952
0.00080114
0.000764033
0.000757863
0.000789294
0.000813214
0.000815364
0.000811966
0.000799125
0.000770464
0.000790232
0.000841502
0.000866925
0.000865682
0.000861921
0.000831227
0.000807533
0.000811832
0.000866887
0.000871702
0.000874405
0.000889571
0.000855294
0.000831437
0.000818661
0.000877921
0.000894786
0.000893219
0.000906834
0.000867407
0.000840926
0.000818121
0.000874521
0.000907047
0.000904601
0.000906117
0.000862193
0.000832972
0.000801315
0.000837543
0.000861507
0.000865
0.000861503
0.000840404
0.000810279
0.000773188
0.000810793
0.000835295
0.000840373
0.000831129
0.000809208
0.000773319
0.000700428
0.000650234
0.000590865
0.000519303
0.000430364
0.000316435
0.000169704
1.99627e-05
0.000740306
0.000686615
0.000625699
0.000553365
0.000463262
0.000345883
0.000189865
2.24606e-05
0.000765923
0.00071007
0.000647745
0.00057456
0.00048356
0.000364072
0.000202507
2.40816e-05
0.00077503
0.000718338
0.00065546
0.000581882
0.000490487
0.000370271
0.000206881
2.45706e-05
0.0007658
0.000710345
0.000648137
0.000574871
0.000483692
0.000364097
0.000202564
2.38441e-05
0.000741276
0.000687753
0.000626811
0.00055423
0.000463789
0.000346223
0.000190197
2.20445e-05
0.00070219
0.000652213
0.000592756
0.000520903
0.000431635
0.000317558
0.000170673
1.94612e-05
0.000707102
0.000656432
0.00059639
0.000523895
0.000433712
0.000318313
0.000170218
1.99703e-05
0.000747242
0.000693005
0.000631482
0.000558293
0.000466962
0.00034802
0.000190435
2.24698e-05
0.000772673
0.00071633
0.000653505
0.000579582
0.000487435
0.000366388
0.000203143
2.40931e-05
0.000781379
0.000724408
0.000661112
0.000586854
0.000494363
0.000372628
0.000207544
2.4581e-05
0.000772179
0.000716355
0.000653656
0.000579654
0.000487371
0.000366316
0.000203184
2.38484e-05
0.000747501
0.000693591
0.000632078
0.00055868
0.000467124
0.00034818
0.000190727
2.20397e-05
0.000708169
0.000657743
0.000597628
0.000524909
0.000434554
0.000319225
0.00017112
1.94495e-05
0.00071253
0.000661689
0.000601266
0.000528119
0.00043701
0.000320433
0.000171005
1.9986e-05
0.000752689
0.000698265
0.000636441
0.000562679
0.000470447
0.000350287
0.000191239
2.24879e-05
0.000777637
0.000721372
0.00065839
0.000584014
0.000491053
0.000368813
0.000204027
2.41156e-05
0.000786065
0.00072924
0.000665827
0.000591163
0.000497918
0.000375057
0.000208444
2.46015e-05
0.000777007
0.000721064
0.000658136
0.000583683
0.000490666
0.000368559
0.000204003
2.38592e-05
0.000752244
0.000698099
0.000636246
0.000562323
0.000470036
0.000350124
0.000191406
2.2036e-05
0.000712651
0.000661968
0.000601445
0.000528162
0.000437098
0.000320888
0.000171686
1.94358e-05
0.000714768
0.000664676
0.000604717
0.000531721
0.000440415
0.000323147
0.000172239
2.0105e-05
0.000754166
0.000700775
0.000639657
0.000566225
0.000473911
0.000353132
0.000192569
2.26229e-05
0.000778681
0.000723524
0.000661393
0.000587504
0.000494595
0.000371842
0.000205504
2.42672e-05
0.000786719
0.000731068
0.000668579
0.000594479
0.00050137
0.000378074
0.000209947
2.4757e-05
0.000777434
0.000722659
0.000660628
0.000586709
0.00049384
0.000371337
0.000205359
2.39982e-05
0.000752811
0.000699677
0.000638549
0.000565036
0.000472843
0.000352532
0.000192507
2.21467e-05
0.00071373
0.000663722
0.000603667
0.000530644
0.0004396
0.000322973
0.000172576
1.95249e-05
0.000715486
0.000667751
0.000609281
0.00053712
0.000446026
0.000328047
0.000174932
2.03633e-05
0.000752713
0.00070295
0.000643894
0.000571564
0.000479644
0.00035831
0.000195524
2.29311e-05
0.000776072
0.000725197
0.000665453
0.000592837
0.000500459
0.000377283
0.000208719
2.462e-05
0.000783864
0.000732677
0.000672598
0.000599786
0.000507251
0.000383585
0.000213246
2.51255e-05
0.000775261
0.000724521
0.000664665
0.000591933
0.000499606
0.000376705
0.000208541
2.43471e-05
0.000752363
0.000702156
0.000642703
0.000570167
0.000478388
0.000357565
0.000195408
2.24436e-05
0.000715116
0.000666838
0.000607964
0.000535693
0.000444888
0.000327602
0.000175167
1.97576e-05
0.000724684
0.000678393
0.000621709
0.00055146
0.000461638
0.000342168
0.000181138
2.19107e-05
0.000761732
0.000713417
0.000656225
0.000585997
0.000495816
0.000373625
0.000202823
2.47194e-05
0.000785475
0.000735808
0.000677946
0.000607528
0.000517132
0.000393462
0.00021679
2.66028e-05
0.000793824
0.000743639
0.000685474
0.000614968
0.000524559
0.000400464
0.000221763
2.72219e-05
0.000785491
0.000735984
0.000678188
0.000607914
0.00051772
0.0003941
0.000217125
2.64604e-05
0.000762842
0.000714352
0.000657188
0.000587214
0.000497338
0.000375125
0.000203637
2.44699e-05
0.000726545
0.000680169
0.000623687
0.000553818
0.000464279
0.000344577
0.00018249
2.16024e-05
0.000718614
0.000667662
0.000606944
0.000533715
0.000442818
0.000326329
0.00017565
2.06827e-05
0.000760948
0.000706668
0.000644281
0.000570082
0.000477866
0.000357702
0.000197145
2.36907e-05
0.000789689
0.000732608
0.000668396
0.000592998
0.000499738
0.000377405
0.000210972
2.58298e-05
0.000804766
0.000742926
0.000677068
0.00060085
0.000507096
0.000384051
0.000215711
2.66983e-05
0.000793876
0.000732965
0.000667912
0.00059231
0.0004991
0.000376968
0.000210757
2.61058e-05
0.000760114
0.000705027
0.00064238
0.000568273
0.000476433
0.000356734
0.000196639
2.41728e-05
0.000715836
0.000664533
0.000603859
0.000530972
0.000440608
0.000324649
0.000174598
2.12636e-05
0.000725097
0.000673438
0.000611947
0.000537863
0.00044591
0.000328116
0.000176092
2.0604e-05
0.000768209
0.000713069
0.000649815
0.000574735
0.000481445
0.000359857
0.000197686
2.35981e-05
0.000797655
0.000739443
0.000674316
0.000598046
0.000503737
0.000379925
0.00021165
2.57362e-05
0.000811043
0.000749628
0.000683098
0.000606058
0.000511298
0.000386773
0.000216488
2.66076e-05
0.000799833
0.00073953
0.000673838
0.000597364
0.000503165
0.000379553
0.000211454
2.6015e-05
0.000767051
0.000711422
0.000648016
0.000573074
0.000480159
0.000358966
0.000197165
2.40851e-05
0.000722122
0.000670339
0.000609006
0.00053531
0.000443848
0.000326467
0.000174986
2.11899e-05
0.000729266
0.000677161
0.000615258
0.000540711
0.000448115
0.00032944
0.000176398
2.05063e-05
0.000773293
0.000717174
0.000653357
0.000577807
0.00048389
0.000361357
0.000197991
2.3482e-05
0.000803561
0.000743747
0.000678063
0.000601392
0.000506537
0.000381748
0.000212067
2.56184e-05
0.000816628
0.000753861
0.000686929
0.000609582
0.000514341
0.000388833
0.000217022
2.64931e-05
0.000805313
0.000743904
0.000677773
0.000600982
0.00050625
0.000381588
0.000211964
2.5901e-05
0.000772584
0.000715884
0.000652025
0.000576679
0.000483103
0.000360805
0.000197601
2.39764e-05
0.000726713
0.000674666
0.000613014
0.000538862
0.000446643
0.000328155
0.000175431
2.11016e-05
0.000727547
0.000676668
0.000615633
0.000541687
0.000449382
0.000330565
0.000176768
2.04771e-05
0.000769605
0.000715376
0.000652913
0.00057834
0.000485005
0.0003625
0.000198378
2.34432e-05
0.000798585
0.000740914
0.000677062
0.000601718
0.000507759
0.000383177
0.000212635
2.55974e-05
0.000810408
0.000750421
0.000685733
0.000609919
0.000515723
0.000390491
0.000217735
2.64835e-05
0.000799714
0.000741138
0.000677028
0.000601643
0.000507771
0.000383226
0.000212613
2.58817e-05
0.000768932
0.000714425
0.000652136
0.000577818
0.000484734
0.000362278
0.000198102
2.39376e-05
0.000725226
0.000674825
0.000614214
0.000540661
0.000448549
0.000329664
0.000175977
2.10653e-05
0.000722021
0.000674721
0.000616109
0.00054374
0.000452274
0.000333414
0.000178324
2.06065e-05
0.000756951
0.000709954
0.000651556
0.000579482
0.00048754
0.000365355
0.00020003
2.3605e-05
0.000777575
0.000732364
0.000674121
0.000602217
0.000510261
0.000386373
0.000214643
2.5802e-05
0.000782207
0.000740232
0.000682091
0.000610201
0.000518325
0.000393955
0.000219969
2.67116e-05
0.000775058
0.000731617
0.000673674
0.000602053
0.000510392
0.000386574
0.000214681
2.60971e-05
0.000753127
0.000707564
0.000650081
0.000578739
0.000487313
0.000365233
0.000199765
2.41122e-05
0.000717327
0.000671616
0.000614051
0.000542443
0.000451352
0.00033244
0.00017741
2.12056e-05
0.000727215
0.000681747
0.000625489
0.000555488
0.000465694
0.000345818
0.000183489
2.20598e-05
0.000760371
0.000714847
0.000658922
0.000589458
0.000499684
0.000377439
0.00020558
2.51498e-05
0.000779265
0.000736244
0.000680152
0.000610949
0.000521353
0.00039793
0.000220304
2.73747e-05
0.000786285
0.000744832
0.000687682
0.000618307
0.000528781
0.00040506
0.00022555
2.82609e-05
0.000777229
0.000735719
0.000679012
0.000609862
0.000520445
0.000397208
0.000219932
2.75759e-05
0.000753775
0.000710729
0.000655464
0.000586568
0.000497236
0.000375451
0.000204482
2.54778e-05
0.000718973
0.000675458
0.000620215
0.000550804
0.00046143
0.000342212
0.000181455
2.24264e-05
0.000713608
0.000662331
0.000601746
0.000529087
0.000439039
0.000323438
0.000173833
2.11744e-05
0.000752054
0.000697001
0.000634608
0.000561088
0.000470148
0.000351617
0.000193197
2.38159e-05
0.00077648
0.0007187
0.000654634
0.000580253
0.00048866
0.000368522
0.000205181
2.54886e-05
0.000781945
0.000723857
0.000659733
0.000585379
0.000493706
0.000373182
0.00020854
2.5889e-05
0.000768099
0.000712385
0.000649567
0.000576012
0.000484939
0.000365281
0.000202837
2.49863e-05
0.000741314
0.000687323
0.000626074
0.000553545
0.000463406
0.000345848
0.000189263
2.29041e-05
0.000700098
0.000649984
0.00059056
0.000518943
0.000429983
0.000316013
0.000169267
2.00449e-05
0.000719789
0.000668115
0.000606891
0.000533423
0.000442259
0.000325209
0.000174185
2.11109e-05
0.000758383
0.000703204
0.000640255
0.000565969
0.000473897
0.000353735
0.00019347
2.37631e-05
0.000784829
0.000725713
0.000660824
0.000585627
0.000492923
0.000371055
0.000205623
2.54552e-05
0.000791303
0.00073139
0.000666284
0.000591043
0.000498247
0.000375906
0.000209227
2.58679e-05
0.000775724
0.000719483
0.000655994
0.000581616
0.000489305
0.000367865
0.000203465
2.49729e-05
0.000748449
0.000694028
0.000632167
0.000558763
0.000467336
0.000348118
0.000189936
2.28985e-05
0.00070688
0.000656327
0.000596215
0.000523637
0.000433399
0.000317909
0.000169789
2.00519e-05
0.000724532
0.000672566
0.000611035
0.000537123
0.000445188
0.000326993
0.000174683
2.10403e-05
0.000763643
0.000708159
0.000644894
0.000570207
0.00047735
0.000355895
0.000194059
2.37076e-05
0.000788552
0.000730499
0.000665742
0.000590323
0.000496859
0.000373594
0.00020631
2.5423e-05
0.000794877
0.000736374
0.000671466
0.000595986
0.000502386
0.000378658
0.000210159
2.58628e-05
0.000781646
0.00072511
0.000661401
0.000586598
0.000493422
0.000370567
0.000204428
2.49647e-05
0.000753884
0.000699497
0.000637425
0.000563488
0.000471118
0.000350584
0.000190909
2.28944e-05
0.000712375
0.000661704
0.00060122
0.000527989
0.000436787
0.000320058
0.000170576
2.00666e-05
0.000723671
0.000673079
0.000612522
0.000539211
0.000447405
0.00032878
0.000175395
2.10387e-05
0.000762993
0.000708876
0.000646704
0.000572779
0.000480181
0.000358337
0.000195195
2.37366e-05
0.000786999
0.000731353
0.000667963
0.0005934
0.000500236
0.000376543
0.000207675
2.55068e-05
0.000793472
0.000737595
0.000674083
0.000599442
0.000506038
0.000381835
0.000211588
2.60027e-05
0.000781773
0.00072697
0.000664359
0.000590215
0.000497172
0.000373723
0.000206044
2.50694e-05
0.000754782
0.000701872
0.00064067
0.000567158
0.00047473
0.000353514
0.000192329
2.30046e-05
0.00071462
0.000664766
0.000604756
0.000531664
0.000440224
0.000322748
0.000171795
2.01727e-05
0.000716828
0.000670532
0.000612975
0.000541531
0.000450651
0.000331927
0.000177033
2.1195e-05
0.000754658
0.000705645
0.000647147
0.000575606
0.000484268
0.000362457
0.00019761
2.39598e-05
0.000779208
0.000728501
0.000668838
0.000596814
0.000505046
0.000381461
0.000210667
2.58096e-05
0.000786245
0.000735412
0.00067557
0.000603334
0.000511244
0.000387057
0.00021472
2.63455e-05
0.000774917
0.000725693
0.000666636
0.000594606
0.000502582
0.000378995
0.000209242
2.54151e-05
0.000751005
0.000702605
0.000644063
0.000572032
0.000480192
0.000358505
0.000195186
2.33127e-05
0.000715052
0.000667634
0.000609177
0.000536954
0.000445734
0.000327543
0.000174404
2.04245e-05
0.000718734
0.000674802
0.000619547
0.000550222
0.00046099
0.000341933
0.00018122
2.24152e-05
0.000754196
0.00070951
0.000653763
0.000584602
0.000495193
0.000373502
0.000202986
2.5349e-05
0.000778638
0.000732961
0.000675965
0.00060636
0.000516561
0.000393264
0.000216833
2.73401e-05
0.000785074
0.000740392
0.000683314
0.000613464
0.000523406
0.000399501
0.000221247
2.79546e-05
0.000777744
0.000732152
0.000675524
0.000605695
0.000515518
0.000391992
0.00021592
2.70615e-05
0.000758096
0.00071103
0.000654342
0.000584293
0.000494127
0.000372036
0.000201745
2.49156e-05
0.000723787
0.00067767
0.000620955
0.000550596
0.000460669
0.000341181
0.000180418
2.19184e-05
0.00070299
0.000652926
0.000593357
0.000521369
0.000431918
0.000317651
0.000170684
1.94686e-05
0.000744676
0.000690962
0.000629738
0.000556862
0.000466034
0.000347908
0.000191205
2.2142e-05
0.000772395
0.000716593
0.000653818
0.000579942
0.000488075
0.000367552
0.000204703
2.40504e-05
0.000784813
0.000727812
0.000664113
0.000589539
0.000497127
0.000375581
0.000210183
2.48943e-05
0.000779209
0.000722699
0.000659233
0.000584708
0.000492305
0.000371114
0.000206943
2.45153e-05
0.000756288
0.000701661
0.00063938
0.000565504
0.000473783
0.000354413
0.000195175
2.29758e-05
0.000717768
0.00066659
0.000605885
0.00053281
0.000442178
0.000326002
0.000175556
2.05215e-05
0.000708969
0.000658454
0.000598225
0.000525378
0.000434854
0.000319359
0.000171178
1.94486e-05
0.000750957
0.000696766
0.000634929
0.000561234
0.000469297
0.000349819
0.000191729
2.21091e-05
0.00077887
0.000722566
0.000659182
0.000584552
0.000491612
0.000369677
0.000205282
2.40078e-05
0.000791436
0.000733895
0.000669519
0.000594246
0.000500732
0.000377798
0.000210812
2.48422e-05
0.000785967
0.000728831
0.000664625
0.00058931
0.000495856
0.000373297
0.000207518
2.44517e-05
0.000763176
0.000707684
0.000644609
0.000569897
0.000477125
0.000356388
0.000195651
2.29038e-05
0.000724113
0.000672209
0.000610755
0.000536842
0.000445164
0.000327699
0.000175944
2.04483e-05
0.000713396
0.000662636
0.000602011
0.0005286
0.000437372
0.000321015
0.000171761
1.94244e-05
0.000755398
0.000700965
0.000638806
0.0005646
0.000471928
0.000351534
0.000192301
2.20719e-05
0.000783441
0.000726799
0.00066311
0.000588011
0.000494393
0.000371518
0.00020589
2.39607e-05
0.000796263
0.000738196
0.000673449
0.000597741
0.000503618
0.000379722
0.000211448
2.47854e-05
0.000791153
0.00073313
0.0006684
0.000592664
0.000498629
0.000375148
0.000208086
2.43811e-05
0.00076796
0.000711703
0.00064815
0.000572998
0.000479605
0.000357962
0.000196058
2.28195e-05
0.000728238
0.000675864
0.000614021
0.000539669
0.000447362
0.000329028
0.000176251
2.03599e-05
0.000714396
0.000664304
0.000604118
0.00053094
0.000439731
0.000323003
0.000172619
1.94936e-05
0.000755266
0.000701884
0.000640483
0.000566694
0.000474147
0.00035351
0.000193195
2.21409e-05
0.000782627
0.000727116
0.000664364
0.000589928
0.00049661
0.000373566
0.000206855
2.40318e-05
0.00079534
0.000738215
0.000674425
0.000599478
0.000505781
0.000381782
0.000212434
2.48531e-05
0.000790122
0.000732911
0.000669125
0.000594184
0.000500609
0.00037704
0.000208945
2.44267e-05
0.000766424
0.000711211
0.000648634
0.00057425
0.000481265
0.000359512
0.000196675
2.2834e-05
0.000726877
0.000675514
0.000614535
0.000540813
0.000448802
0.000330302
0.000176694
2.03539e-05
0.000715506
0.000667204
0.000608241
0.000535845
0.000444905
0.000327554
0.000175165
1.97232e-05
0.000753454
0.000703295
0.000643759
0.000571099
0.00047909
0.000358126
0.000195865
2.24135e-05
0.000777924
0.000726932
0.000666756
0.000593864
0.000501275
0.000378074
0.000209569
2.43278e-05
0.000789094
0.000736932
0.000676113
0.000602961
0.000510175
0.000386137
0.000215087
2.51449e-05
0.000783177
0.000730967
0.000670276
0.000597248
0.000504643
0.000381057
0.000211373
2.46884e-05
0.000759872
0.00070922
0.000649527
0.000576941
0.000484901
0.000363123
0.000198763
2.30397e-05
0.000722176
0.000674209
0.00061555
0.000543323
0.000452081
0.000333458
0.000178445
2.05013e-05
0.000726758
0.000680435
0.000623927
0.000553983
0.000464332
0.000344549
0.000182464
2.15785e-05
0.000762907
0.000714837
0.00065788
0.000588007
0.000498035
0.000375701
0.000204035
2.44611e-05
0.000785826
0.000736931
0.000679471
0.000609428
0.000519153
0.000395233
0.000217916
2.64588e-05
0.000795486
0.000745557
0.000687611
0.000617375
0.000526995
0.00040259
0.000223192
2.72494e-05
0.000788906
0.00073885
0.000681013
0.000610863
0.000520554
0.000396572
0.000218886
2.66661e-05
0.000765301
0.000716905
0.000659914
0.000590035
0.000500089
0.000377663
0.000205462
2.48134e-05
0.000728046
0.000682153
0.000625903
0.000556056
0.000466427
0.000346577
0.000183943
2.20178e-05
1.98473e-05
0.000152137
0.000227047
0.000269578
0.000298752
0.000318747
0.000330311
0.000332749
1.97986e-05
0.000151505
0.000225886
0.000268173
0.00029727
0.000317307
0.000328988
0.000331596
1.97247e-05
0.000150689
0.000224499
0.000266454
0.00029541
0.000315454
0.000327245
0.000330032
1.96545e-05
0.000149921
0.000223216
0.000264878
0.000293739
0.000313811
0.00032573
0.000328711
1.96041e-05
0.000149368
0.000222286
0.000263755
0.00029258
0.000312735
0.0003248
0.000327964
1.95711e-05
0.000149018
0.000221659
0.000263006
0.000291854
0.000312098
0.000324286
0.000327585
1.95392e-05
0.000148669
0.000221002
0.000262166
0.000290985
0.000311274
0.000323544
0.000326949
2.35757e-05
0.000174861
0.000257009
0.00030597
0.000339339
0.000361556
0.000373588
0.000375206
2.34936e-05
0.000173781
0.000255068
0.000303729
0.000337067
0.00035943
0.000371708
0.000373635
2.33685e-05
0.000172451
0.000252818
0.000301034
0.000334267
0.000356741
0.000369272
0.000371537
2.32465e-05
0.00017122
0.00025077
0.000298609
0.000331783
0.000354389
0.000367178
0.000369778
2.31571e-05
0.000170323
0.000249285
0.000296907
0.000330093
0.000352852
0.000365869
0.000368735
2.31032e-05
0.000169773
0.000248335
0.000295882
0.000329144
0.000352044
0.000365219
0.000368236
2.30548e-05
0.000169247
0.000247433
0.000294873
0.000328175
0.000351171
0.00036446
0.000367595
2.82978e-05
0.000201755
0.000294203
0.000350858
0.000388969
0.000412704
0.000423829
0.000422962
2.81638e-05
0.000199844
0.00029103
0.000347306
0.000385507
0.00040955
0.00042109
0.000420696
2.7959e-05
0.00019766
0.000287445
0.000343183
0.00038138
0.000405699
0.000417677
0.000417819
2.77641e-05
0.000195705
0.00028429
0.000339605
0.000377836
0.000402438
0.000414842
0.000415495
2.76218e-05
0.000194288
0.000282106
0.000337218
0.00037555
0.000400402
0.00041313
0.000414134
2.75456e-05
0.000193457
0.000280882
0.000336013
0.000374504
0.000399553
0.000412471
0.000413629
2.74751e-05
0.000192736
0.000279855
0.00033499
0.000373609
0.000398807
0.000411866
0.000413145
3.41186e-05
0.000231699
0.000339902
0.000407686
0.000450453
0.000473723
0.000481191
0.00047498
3.39136e-05
0.000228305
0.000334899
0.000402485
0.000445545
0.000469319
0.000477378
0.00047178
3.36043e-05
0.00022467
0.00032935
0.000396521
0.000439793
0.000464077
0.000472783
0.000467898
3.33275e-05
0.000221579
0.00032475
0.000391624
0.00043509
0.000459826
0.000469123
0.000464913
3.31245e-05
0.000219461
0.000321816
0.00038864
0.000432324
0.000457398
0.000467098
0.00046331
3.30378e-05
0.000218397
0.000320651
0.00038767
0.000431558
0.000456819
0.0004667
0.000463057
3.29441e-05
0.000217646
0.000319797
0.000386998
0.000431062
0.000456471
0.000466475
0.000462935
4.13514e-05
0.000266838
0.000401004
0.000483147
0.000528558
0.00054699
0.000545709
0.000529364
4.11097e-05
0.000261286
0.000394097
0.00047631
0.00052224
0.000541369
0.000540854
0.000525265
4.06982e-05
0.000254816
0.000385599
0.00046783
0.000514491
0.000534565
0.000535013
0.000520317
4.03768e-05
0.000249904
0.000379244
0.000461477
0.000508623
0.00052937
0.000530573
0.000516665
4.01788e-05
0.000247164
0.00037611
0.000458463
0.000505843
0.000526895
0.000528494
0.000515041
4.01959e-05
0.000246971
0.000376546
0.000459117
0.000506395
0.000527281
0.000528819
0.000515433
4.02009e-05
0.000246698
0.0003769
0.000459812
0.00050711
0.000527894
0.000529341
0.00051592
6.02424e-05
0.000333043
0.000501727
0.000592132
0.000631343
0.00063562
0.000616807
0.000582408
6.10565e-05
0.000327194
0.000495015
0.0005851
0.000624364
0.00062916
0.000611132
0.000577692
6.07222e-05
0.000317155
0.00048257
0.000573146
0.000613892
0.000620407
0.000603953
0.000571829
6.06419e-05
0.000309643
0.000473728
0.000564935
0.000606705
0.000614277
0.000598854
0.000567697
6.12382e-05
0.000308101
0.000472379
0.000563514
0.000605045
0.000612474
0.000597169
0.000566405
6.24942e-05
0.000310994
0.000477284
0.000568478
0.000608984
0.000615176
0.000599014
0.000567988
6.319e-05
0.000312262
0.000480101
0.000571827
0.000612056
0.000617587
0.000600822
0.000569414
1.93476e-05
0.000148206
0.000220622
0.000261254
0.00028953
0.000309349
0.000321094
0.000323956
1.93503e-05
0.000148592
0.000221337
0.000262042
0.000290232
0.00030992
0.000321487
0.000324147
1.93603e-05
0.000149012
0.000222119
0.000262902
0.000290975
0.000310489
0.000321843
0.000324284
1.93927e-05
0.000149562
0.0002231
0.000264067
0.000292114
0.000311508
0.000322679
0.000324916
1.94617e-05
0.000150272
0.000224298
0.000265581
0.000293762
0.000313141
0.000324218
0.000326315
1.95502e-05
0.000151045
0.000225566
0.000267233
0.000295653
0.000315107
0.000326177
0.00032821
1.96299e-05
0.000151717
0.000226674
0.000268668
0.000297292
0.000316815
0.000327894
0.000329894
2.29418e-05
0.00017021
0.000249674
0.000296927
0.000329856
0.000352098
0.000364402
0.000366463
2.2988e-05
0.000171019
0.000251035
0.000298328
0.000331131
0.000353117
0.000365121
0.000366884
2.30368e-05
0.000171826
0.000252404
0.000299688
0.000332294
0.000353961
0.000365619
0.000367069
2.31096e-05
0.000172771
0.000254043
0.000301471
0.000333951
0.000355369
0.000366724
0.000367878
2.32225e-05
0.00017389
0.000255939
0.000303733
0.00033628
0.000357576
0.000368732
0.00036965
2.33521e-05
0.000175045
0.000257833
0.000306099
0.000338816
0.000360134
0.000371213
0.000371995
2.34581e-05
0.000175975
0.000259343
0.000307977
0.000340837
0.000362195
0.000373247
0.000373958
2.75696e-05
0.000197176
0.000287024
0.000342701
0.000380567
0.000404396
0.000415799
0.000415334
2.76856e-05
0.000198707
0.000289309
0.000345085
0.000382632
0.000405991
0.000416901
0.000415999
2.77897e-05
0.000200111
0.000291424
0.000347157
0.000384312
0.000407137
0.000417498
0.000416129
2.79117e-05
0.00020163
0.000293871
0.000349715
0.000386549
0.000408909
0.000418795
0.000417013
2.80758e-05
0.000203304
0.00029663
0.000352792
0.000389546
0.000411666
0.000421233
0.000419116
2.82573e-05
0.000204939
0.000299298
0.000355898
0.000392751
0.000414815
0.000424225
0.000421895
2.83937e-05
0.000206123
0.000301249
0.000358169
0.000395151
0.000417222
0.000426558
0.000424107
3.33932e-05
0.0002283
0.000334675
0.000401868
0.000444413
0.000467653
0.000475285
0.000469416
3.36181e-05
0.000231019
0.000338631
0.000405651
0.000447551
0.000469992
0.000476835
0.000470304
3.37844e-05
0.00023338
0.000341955
0.000408642
0.000449832
0.000471485
0.000477534
0.000470301
3.39461e-05
0.000235798
0.000345439
0.000411883
0.000452529
0.000473519
0.000478897
0.000471086
3.4158e-05
0.000238368
0.000349286
0.000415793
0.000456147
0.000476738
0.000481656
0.00047339
3.44e-05
0.000240692
0.000352804
0.000419637
0.000459992
0.000480418
0.000485077
0.000476501
3.4549e-05
0.000242128
0.000354957
0.000422094
0.000462591
0.000483048
0.000487627
0.000478882
4.08928e-05
0.000264867
0.000398787
0.000480808
0.000525901
0.000543942
0.000542492
0.000526417
4.11945e-05
0.000270367
0.000405217
0.000486596
0.000530532
0.000547314
0.000544653
0.00052755
4.13504e-05
0.000274985
0.000410078
0.00049056
0.00053338
0.000549148
0.000545508
0.000527484
4.14721e-05
0.00027927
0.000414479
0.00049417
0.000536195
0.000551228
0.000546812
0.000528036
4.16905e-05
0.000283552
0.000419391
0.000498807
0.000540348
0.000554832
0.00054981
0.000530417
4.19566e-05
0.000286857
0.000423595
0.000503182
0.000544659
0.000558921
0.000553556
0.000533739
4.20555e-05
0.000287942
0.000425104
0.000505002
0.000546813
0.00056134
0.00055607
0.000536123
6.03588e-05
0.000333523
0.000503352
0.000594072
0.000632821
0.000636168
0.000616469
0.00058242
6.02426e-05
0.000341434
0.000512441
0.000602316
0.000639439
0.000640982
0.0006195
0.000583938
5.98763e-05
0.000349199
0.000519767
0.00060786
0.000643124
0.000643271
0.000620474
0.000583789
5.91696e-05
0.000355295
0.000524771
0.000611491
0.000645719
0.000645145
0.000621473
0.000583787
5.84424e-05
0.000359582
0.000528791
0.000615432
0.000649577
0.000648724
0.000624472
0.000585988
5.78378e-05
0.00036159
0.000531034
0.000618361
0.000653161
0.000652609
0.000628203
0.000589207
5.70276e-05
0.000360989
0.000529821
0.000617676
0.00065348
0.000653876
0.000630064
0.000591073
1.96866e-05
0.000152187
0.000227475
0.000269642
0.000298318
0.000317818
0.000328841
0.00033076
1.97228e-05
0.000152415
0.000227913
0.000270103
0.000298682
0.000318062
0.000328949
0.000330722
1.97421e-05
0.000152447
0.000228014
0.000270136
0.000298583
0.000317835
0.000328606
0.000330275
1.97601e-05
0.000152408
0.000227965
0.000270075
0.000298513
0.000317756
0.000328546
0.000330254
1.97878e-05
0.000152414
0.00022793
0.000270154
0.000298769
0.000318155
0.000329112
0.000330993
1.98192e-05
0.000152462
0.000227902
0.000270332
0.000299221
0.000318848
0.000330041
0.000332139
1.98478e-05
0.000152432
0.000227698
0.000270277
0.000299376
0.000319235
0.000330644
0.00033293
2.35251e-05
0.000176562
0.000260252
0.000309004
0.000341879
0.000363205
0.000374201
0.000374835
2.35506e-05
0.000176733
0.000260516
0.000309154
0.000341921
0.000363144
0.000374043
0.000374567
2.3547e-05
0.000176557
0.000260212
0.000308649
0.000341284
0.000362426
0.000373279
0.000373758
2.35383e-05
0.000176242
0.000259681
0.000308025
0.000340636
0.000361826
0.000372778
0.000373377
2.35461e-05
0.000175977
0.000259226
0.000307704
0.000340451
0.000361857
0.00037306
0.000373919
2.35689e-05
0.000175778
0.000258863
0.000307636
0.000340646
0.000362356
0.000373862
0.000375006
2.35903e-05
0.00017549
0.000258255
0.000307253
0.000340506
0.000362506
0.000374294
0.000375678
2.84771e-05
0.000206776
0.000302166
0.000359167
0.000396154
0.000418196
0.000427478
0.000424949
2.84917e-05
0.000206813
0.000302007
0.000358843
0.000395714
0.000417706
0.000426968
0.000424397
2.84559e-05
0.000206289
0.000301016
0.000357599
0.000394376
0.000416388
0.000425731
0.00042322
2.84026e-05
0.000205497
0.00029971
0.000356117