/*--------------------------------*- C++ -*----------------------------------*\
| =========                 |                                                 |
| \\      /  F ield         | OpenFOAM: The Open Source CFD Toolbox           |
|  \\    /   O peration     | Version:  plus.master.MPPICInterFoam            |
|   \\  /    A nd           | Web:      www.OpenFOAM.com                      |
|    \\/     M anipulation  |                                                 |
\*---------------------------------------------------------------------------*/
FoamFile
{
    version     2.0;
    format      ascii;
    class       volScalarField;
    location    "7.6";
    object      p_rgh;
}
// * * * * * * * * * * * * * * * * * * * * * * * * * * * * * * * * * * * * * //

dimensions      [1 -1 -2 0 0 0 0];

internalField   nonuniform List<scalar> 
11822
(
5591.14
4861
4425.61
4398.59
4805.06
5597.03
5721.34
4684.48
3758.76
4856.99
4891.55
3601.47
4780.59
5721.69
4588.96
4598.48
4892.99
4918.13
4915.47
4559.2
5721.6
4731.82
4646.89
4884.6
4915.51
4914.91
4830.72
5721.59
4429.4
4203.59
2939.94
4816.35
4339.59
4622.14
5721.48
5290.54
4299.41
4691.27
4417.1
4433.61
5447.68
5721.25
5718.34
5667.43
5571.02
5612.8
5699.03
5721.24
5720.83
5557.37
4786.01
4398.86
4369.75
4768.76
5545.41
5717.6
4562.43
3025.35
4255.45
4707.86
3095.41
4692.88
5717.23
4149.65
4769.01
4812.62
4793.14
4117.91
4187.35
5713.15
4229.56
4726.46
4690.3
4153.86
4061.92
4384.68
5700.61
4447.2
2949.66
2159.54
3156.28
2602.46
4522.76
5707.32
5193.19
4372.02
4320.9
4210.03
4446.8
5313.84
5717.55
5703.86
5618.04
5543.76
5567.69
5647.34
5716.32
5717.97
5478.22
4765.83
4422.8
4373.76
4731.34
5437.09
5713.96
4533.17
2941.77
2297.51
2954.33
3023.97
4593.95
5683.45
4067.68
4526.86
3806.22
3341.13
1983.26
4064
5621.87
4009.83
4587.02
3819.75
2310.98
2178.17
4069.71
5593.83
4404.93
2703.18
2026.66
1970.82
2412.55
4359.44
5630.74
4986.91
4358.49
4184.33
4046.85
4339.92
5075.99
5714.6
5681.59
5485.13
5427.91
5417.21
5526.07
5700.09
5715.96
5303.42
4509.84
4173.05
4134.44
4427.51
5201.34
5713.96
4204.85
2845.74
1874.05
1863.46
2879.52
4183.53
5567.87
3708.97
2973.2
1998.34
1844.76
1830.39
3622.06
5370.13
3530.66
3025.48
2084.58
1837.33
1833.04
3412.25
5311.02
4017.24
2631.8
1984.13
1870.94
2239.52
3792.41
5446.35
4536.51
3993.72
3764.55
3558.49
3788.41
4606.22
5694.52
5639.84
5231.94
5100.31
5060.87
5291.35
5659.97
5717.01
4843.19
3496.88
3130.79
3131.48
3390.51
4651.26
5705.82
3073.75
2188.57
1758.55
1758.68
2128.5
3002
5286.42
2386.52
1779.08
1769.04
1763.51
1765.62
2361.33
4801.29
2213.03
1789.67
1778.27
1770.68
1765.51
2129.98
4738.39
2719.39
2029.38
1779.96
1774.22
1793.09
2522.86
5078.76
3748.55
2666.79
2341.87
2214.97
2447.23
3852.32
5637.59
5559.71
4826.98
4469.79
4450.86
4889.19
5581.14
5723.71
4423.22
2569.59
2285.66
2146.31
2584.64
4353.84
5714.01
2316.8
1720.94
1718.98
1708.52
1717.7
2346.48
5164.22
1743.19
1730.91
1723.61
1722.16
1722.52
1729.99
4585.83
1752.63
1740.16
1733.11
1727.42
1725.19
1846.95
4620.42
2014.69
1742.71
1736.93
1732.45
1728.09
2273.48
5017.76
3509.48
2003.58
1832.97
1736.45
2112.05
3777.82
5634.55
5556.25
4765.38
4387.25
4378.64
4843.16
5576.15
5743.73
5721.1
5720.66
5720.3
5720.02
5719.63
5718.04
5717.7
5719.28
5721.35
5720.94
5720.55
5720.18
5719.86
5719.59
5719.39
5719.27
5721.41
5721.01
5720.6
5720.2
5719.85
5719.56
5719.35
5719.23
5721.38
5720.99
5720.57
5720.17
5719.82
5719.53
5719.32
5719.2
5721.27
5720.88
5720.48
5720.1
5719.76
5719.49
5719.28
5719.17
5721.05
5720.67
5720.31
5719.97
5719.67
5719.42
5719.23
5719.12
5720.62
5720.25
5719.97
5719.74
5719.54
5719.25
5719.18
5719.08
5718.29
5718.62
5718.98
5719.28
5719.43
5717
5717.7
5719.53
5718.31
5718.96
5719.37
5719.59
5719.7
5719.72
5719.69
5719.65
5718.11
5718.91
5719.37
5719.61
5719.73
5719.76
5719.74
5719.71
5718.09
5718.92
5719.38
5719.63
5719.77
5719.81
5719.8
5719.77
5718.38
5719.06
5719.45
5719.69
5719.81
5719.85
5719.84
5719.81
5718.59
5719.12
5719.48
5719.7
5719.83
5719.87
5719.85
5719.82
5718.57
5718.88
5719.23
5719.53
5719.72
5719.73
5719.81
5719.79
5715.81
5717.01
5718.11
5719
5719.65
5716.11
5718.48
5720.43
5715.42
5717.24
5718.49
5719.36
5719.95
5720.34
5720.56
5720.66
5715.12
5717.17
5718.5
5719.42
5720.05
5720.47
5720.72
5720.84
5715.38
5717.33
5718.63
5719.54
5720.18
5720.61
5720.87
5721
5716.09
5717.74
5718.9
5719.74
5720.35
5720.75
5721
5721.12
5716.78
5718.14
5719.17
5719.94
5720.49
5720.86
5721.08
5721.19
5717.33
5718.26
5719.15
5719.91
5720.48
5720.83
5721.08
5721.18
5717.5
5719.15
5720.54
5721.67
5722.53
5719.02
5722.01
5723.8
5716.67
5718.92
5720.57
5721.79
5722.7
5723.35
5723.78
5724.04
5716.14
5718.64
5720.43
5721.76
5722.75
5723.47
5723.96
5724.28
5716.17
5718.68
5720.51
5721.89
5722.91
5723.65
5724.16
5724.48
5716.78
5719.12
5720.87
5722.19
5723.17
5723.87
5724.35
5724.66
5717.87
5719.89
5721.44
5722.62
5723.49
5724.12
5724.55
5724.81
5719.18
5720.63
5721.88
5722.91
5723.71
5724.29
5724.68
5724.91
5723.82
5725.21
5726.31
5727.18
5727.93
5724.89
5728.64
5729.39
5723.04
5724.7
5726.04
5727.11
5727.97
5728.77
5729.59
5730.19
5722.76
5724.44
5725.89
5727.06
5728.01
5728.87
5729.77
5730.44
5722.8
5724.49
5725.98
5727.18
5728.15
5729.03
5729.95
5730.63
5723.19
5724.89
5726.32
5727.46
5728.39
5729.24
5730.13
5730.79
5724.01
5725.58
5726.86
5727.86
5728.69
5729.48
5730.31
5730.91
5725.19
5726.42
5727.43
5728.25
5728.97
5729.69
5730.46
5731.02
5742.22
5742.29
5742.29
5742.27
5742.33
5739.88
5741.65
5742
5742.25
5741.79
5741.72
5741.78
5741.94
5742.22
5742.73
5743.33
5742.93
5742.05
5741.83
5741.84
5741.95
5742.23
5742.78
5743.5
5743.36
5742.35
5742.06
5742.02
5742.12
5742.41
5743
5743.78
5743.27
5742.53
5742.32
5742.32
5742.45
5742.78
5743.4
5744.19
5742.95
5742.67
5742.62
5742.69
5742.91
5743.3
5743.95
5744.7
5743.14
5743.33
5743.41
5743.49
5743.7
5744.09
5744.72
5745.4
5721.57
5721.16
5720.78
5720.44
5720.13
5719.85
5719.61
5719.45
5721.72
5721.42
5721.04
5720.66
5720.29
5719.96
5719.68
5719.5
5674.96
5721.76
5721.33
5720.88
5720.45
5720.06
5719.75
5719.56
5579.12
5721.94
5721.48
5720.99
5720.54
5720.14
5719.81
5719.61
5543.51
5721.87
5721.21
5721
5720.56
5720.17
5719.86
5719.66
5722.08
5721.69
5721.1
5720.89
5720.52
5720.17
5719.88
5719.7
5722.21
5721.72
5721.23
5720.76
5720.18
5720.11
5719.79
5719.72
5718.68
5718.97
5719.22
5719.45
5719.61
5719.66
5719.61
5719.53
5718.22
5718.99
5719.4
5719.61
5719.69
5719.67
5719.58
5719.48
5626.7
5718.84
5719.33
5719.57
5719.65
5719.61
5719.51
5719.41
5534.47
5718.43
5719.09
5719.41
5719.53
5719.52
5719.42
5719.33
5518.37
5718.33
5719
5719.33
5719.47
5719.47
5719.38
5719.28
5717.04
5718.58
5719.08
5719.38
5719.48
5719.47
5719.37
5719.27
5718.2
5718.63
5718.93
5719.07
5719.12
5719.35
5719.3
5719.24
5716.21
5717.34
5718.25
5719.05
5719.66
5720.05
5720.25
5720.31
5714.81
5716.81
5718.08
5718.94
5719.54
5719.91
5720.09
5720.15
5503.7
5716.07
5717.6
5718.59
5719.26
5719.66
5719.87
5719.95
5392.9
5715.39
5717.14
5718.26
5719
5719.45
5719.67
5719.76
5431.03
5715.35
5717.08
5718.18
5718.91
5719.35
5719.56
5719.64
5661.33
5715.79
5717.3
5718.29
5718.94
5719.34
5719.54
5719.6
5714.51
5716.03
5717.17
5717.96
5718.65
5719.2
5719.47
5719.53
5717.1
5718.95
5720.38
5721.54
5722.42
5723.05
5723.44
5723.67
5693.24
5717.47
5719.49
5720.91
5721.93
5722.64
5723.08
5723.36
5253.11
5715.87
5718.37
5720.06
5721.28
5722.11
5722.65
5723
4984.37
5714.95
5717.76
5719.59
5720.88
5721.76
5722.33
5722.71
5139.36
5715.18
5717.87
5719.62
5720.85
5721.68
5722.22
5722.57
5533.98
5716.3
5718.49
5720
5721.07
5721.81
5722.27
5722.56
5715.03
5717.34
5718.96
5720.07
5721.12
5721.85
5722.29
5722.56
5723.99
5725.36
5726.45
5727.33
5728.08
5728.81
5729.58
5730.13
5638.79
5724.12
5725.54
5726.66
5727.57
5728.38
5729.22
5729.83
4797.03
5723.01
5724.61
5725.9
5726.93
5727.85
5728.79
5729.48
4110.51
5720.06
5724.01
5725.4
5726.5
5727.46
5728.44
5729.17
4373.08
5722.13
5724.03
5725.39
5726.45
5727.37
5728.3
5728.99
5258.78
5722.97
5724.53
5725.75
5726.7
5727.52
5728.34
5728.95
5722.09
5723.87
5725.18
5725.99
5726.89
5727.66
5728.4
5728.93
5743.72
5743.53
5743.44
5743.33
5743.32
5743.48
5743.87
5744.37
5632.17
5743.63
5742.99
5742.69
5742.59
5742.67
5743.02
5743.53
4667.3
5744.2
5742.92
5742.34
5742.08
5742.05
5742.36
5742.9
3893.81
5739.9
5742.75
5742.02
5741.67
5741.58
5741.85
5742.4
4068.06
5743.69
5742.5
5741.82
5741.48
5741.37
5741.61
5742.13
5114.99
5743.1
5742.19
5741.73
5741.49
5741.43
5741.64
5742.09
5743.02
5742.37
5742.19
5741.87
5741.72
5741.72
5741.91
5742.28
5722.11
5721.63
5721.15
5720.64
5716.98
5717.6
5719.82
5719.4
5722.25
5721.74
5721.26
5720.84
5719.75
5709.84
5718.76
5704.74
5722.02
5721.75
5721.3
5720.85
5720.08
5709.77
5714.67
5710.26
5682.21
5721.64
5721.22
5720.78
5720.24
5718.59
5718.98
5718.96
5721.88
5721.48
5721.02
5720.48
5720.05
5719.71
5718.24
5694.56
5721.61
5721.21
5720.75
5720.43
5717.22
5708.25
5694.63
5694.49
5721.24
5720.83
5720.46
5720.14
5719.38
5708.47
5697.37
5717.46
5718.15
5718.59
5718.9
5719
5715.84
5718.24
5719.29
5718.92
5717.8
5718.61
5719.07
5719.33
5718.45
5708.96
5717.83
5693.01
5717.35
5718.39
5718.95
5719.26
5718.84
5708.93
5715.12
5693.33
5692.44
5718.4
5718.96
5719.26
5717.95
5717.3
5718.8
5718.74
5717.96
5718.71
5719.14
5719.38
5719.39
5718.02
5716.16
5694.01
5718.31
5718.9
5719.19
5719.46
5717.29
5709.77
5694.16
5695.46
5718.47
5718.76
5719.02
5719.27
5719.17
5706.31
5702.95
5718.41
5714.47
5715.99
5717.15
5717.99
5715.23
5718.21
5719.33
5719.05
5713.05
5715.53
5717.09
5718.15
5717.33
5712.89
5716.23
5692.81
5699.6
5714.87
5716.75
5717.97
5717.51
5709.87
5715.03
5692.86
5668.38
5715.04
5716.86
5718.02
5716.39
5717.24
5719.31
5718.5
5713.49
5715.84
5717.36
5718.39
5719.02
5712.02
5715.11
5696.23
5714.79
5716.62
5717.86
5718.75
5718.58
5710.64
5694.28
5711.23
5715.93
5717.07
5718.02
5718.85
5719.13
5706.49
5710.01
5720.01
5715.19
5717.39
5718.96
5720.2
5718.25
5720.48
5719.18
5721.98
5696.36
5716.39
5718.52
5720.02
5718.69
5719.1
5709.29
5695.32
5615.04
5715.81
5718.15
5719.78
5718.61
5719.54
5717.3
5695.37
5576.44
5716.05
5718.3
5719.88
5718.52
5720.25
5722.36
5705.7
5680.12
5716.85
5718.86
5720.31
5721.38
5711.05
5718.86
5716.75
5715.53
5717.97
5719.66
5720.86
5721.85
5711.5
5712.06
5722.79
5717.57
5719.03
5720.3
5721.4
5721.65
5709.24
5717.94
5723.49
5722.25
5723.99
5725.2
5726.13
5726.44
5725.08
5718.39
5728.3
5560.16
5722.83
5724.44
5725.69
5724.66
5723.61
5709.79
5708.97
5324.38
5722.34
5724.06
5725.41
5725.26
5727.42
5719.27
5701.28
5282.27
5722.43
5724.1
5725.44
5724.25
5726.63
5728.41
5701.41
5522.28
5722.91
5724.51
5725.79
5726.63
5719.8
5726.75
5728.8
5721.9
5723.78
5725.23
5726.3
5727.21
5714.24
5726.7
5729.44
5723.69
5724.97
5726.06
5726.95
5726.43
5714.54
5726.46
5729.67
5742.89
5742.43
5742.17
5741.92
5741.72
5737.6
5726.77
5741.37
5378.61
5742.45
5741.69
5741.34
5740.53
5734.85
5722.68
5734.84
5046.38
5742.66
5741.6
5741.16
5740.96
5740.94
5728.94
5713.49
4974.06
5742.5
5741.48
5741.07
5740.61
5740.7
5741.19
5716.74
5371.41
5742.07
5741.41
5741.16
5740.28
5739.04
5739.69
5739.75
5742.53
5741.7
5741.49
5741.35
5741.41
5727.62
5735.82
5742.31
5741.91
5742.05
5742.12
5742.08
5741.81
5728.13
5735.98
5742.47
5720.67
5720.29
5720.01
5719.41
5712.89
5717.49
5719.18
5719.08
5721.07
5720.68
5720.34
5719.21
5703.92
5713.78
5719.25
5719.12
5721.27
5720.92
5720.55
5719.66
5704.03
5709.27
5719.32
5719.18
5721.36
5721.06
5720.68
5720.18
5713.8
5709.14
5719.31
5719.24
5721.57
5721.2
5720.8
5720.02
5710.82
5715.36
5719.47
5719.31
5721.61
5721.2
5720.79
5720.39
5719.64
5719.42
5719.51
5719.36
5721.41
5720.99
5720.61
5720.3
5720.03
5719.77
5719.55
5719.4
5718.63
5718.94
5719.26
5718.73
5713.91
5718.69
5719.81
5719.78
5718.61
5719.15
5719.52
5718
5703.75
5715.68
5719.85
5719.81
5718.39
5719.12
5719.53
5719.31
5703.77
5712.38
5719.86
5719.81
5718.21
5719.06
5719.5
5719.53
5703.86
5712.07
5719.84
5719.78
5718.31
5719.13
5719.55
5719.58
5712.61
5718.09
5719.81
5719.74
5718.38
5719.13
5719.54
5719.7
5719.33
5719.49
5719.76
5719.68
5718.34
5718.78
5719.16
5719.46
5719.65
5719.71
5719.66
5719.58
5717.38
5718.32
5719.18
5718.27
5716.83
5720.41
5721.08
5721.17
5716.76
5718.16
5719.21
5714.77
5704.09
5718.12
5721.09
5721.18
5716.07
5717.77
5718.96
5719.53
5703.98
5714.92
5721.01
5721.11
5715.49
5717.43
5718.72
5719.47
5703.83
5713.74
5720.88
5720.99
5715.28
5717.31
5718.61
5719.48
5716.96
5719.54
5720.74
5720.83
5715.46
5717.35
5718.6
5719.18
5719.26
5720.11
5720.6
5720.67
5715.85
5717.12
5718.23
5719.13
5719.79
5720.19
5720.4
5720.47
5719.21
5720.67
5721.91
5721.1
5722.19
5724.2
5724.69
5724.92
5717.83
5719.92
5721.5
5712.81
5707.62
5722.66
5724.6
5724.86
5716.6
5719.08
5720.88
5721.03
5706.5
5718.96
5724.41
5724.71
5715.83
5718.54
5720.47
5721.9
5706.28
5717.62
5724.2
5724.52
5715.57
5718.38
5720.33
5721.68
5718.82
5722.36
5724.01
5724.31
5715.97
5718.62
5720.46
5721.05
5721.88
5723.19
5723.87
5724.13
5717.01
5718.95
5720.5
5721.73
5722.65
5723.29
5723.69
5723.92
5725.2
5726.45
5727.46
5726.74
5728.49
5729.72
5730.5
5731.06
5724.16
5725.74
5727.01
5717.56
5719.99
5729.11
5730.45
5731.05
5723.46
5725.14
5726.54
5721.39
5711.54
5725.33
5730.32
5730.97
5723.21
5724.81
5726.27
5725.16
5711.4
5723.55
5730.18
5730.85
5723.17
5724.77
5726.21
5726.33
5713.55
5727.29
5730.04
5730.7
5723.4
5725.04
5726.39
5726.66
5727.5
5728.91
5729.94
5730.55
5724.18
5725.61
5726.71
5727.58
5728.32
5729.05
5729.82
5730.37
5743.17
5743.37
5743.48
5742.87
5743.57
5744.22
5744.87
5745.54
5743.36
5743.08
5743.03
5733.13
5737.86
5743.66
5744.37
5745.1
5744.19
5743.33
5743.05
5730.47
5725.77
5738.96
5744.03
5744.77
5744.93
5743.61
5743.13
5735.31
5725.73
5736.38
5743.84
5744.57
5744.95
5743.62
5743.15
5736.28
5725.81
5740.07
5743.82
5744.53
5744.41
5743.53
5743.18
5742.38
5742.41
5743.31
5743.95
5744.6
5744.13
5743.98
5743.78
5743.63
5743.61
5743.81
5744.25
5744.79
5703.32
5703.27
5703.29
5703.38
5703.48
5703.59
5703.7
5703.8
5703.24
5703.19
5703.21
5703.3
5703.41
5703.51
5703.62
5703.72
5703.17
5703.13
5703.14
5703.23
5703.33
5703.43
5703.54
5703.64
5703.11
5703.07
5703.08
5703.17
5703.27
5703.37
5703.47
5703.57
5703.06
5703.02
5703.03
5703.12
5703.21
5703.32
5703.42
5703.52
5703.03
5702.98
5703
5703.08
5703.18
5703.29
5703.39
5703.5
5703.01
5702.96
5702.97
5703.06
5703.16
5703.27
5703.38
5703.48
5702.92
5702.89
5703.02
5703.24
5703.44
5703.62
5703.78
5703.91
5702.82
5702.8
5702.94
5703.15
5703.36
5703.54
5703.7
5703.82
5702.74
5702.71
5702.85
5703.07
5703.27
5703.45
5703.61
5703.73
5702.67
5702.64
5702.78
5702.99
5703.2
5703.38
5703.53
5703.66
5702.61
5702.58
5702.72
5702.93
5703.14
5703.32
5703.47
5703.6
5702.57
5702.55
5702.69
5702.9
5703.1
5703.29
5703.44
5703.57
5702.55
5702.52
5702.66
5702.87
5703.07
5703.26
5703.41
5703.54
5702.28
5702.41
5702.67
5703.06
5703.42
5703.71
5703.91
5704.04
5702.19
5702.33
5702.59
5702.98
5703.35
5703.63
5703.83
5703.94
5702.11
5702.24
5702.5
5702.89
5703.25
5703.53
5703.72
5703.84
5702.04
5702.17
5702.43
5702.81
5703.17
5703.45
5703.64
5703.75
5701.98
5702.12
5702.37
5702.75
5703.11
5703.39
5703.58
5703.69
5701.94
5702.08
5702.34
5702.72
5703.08
5703.35
5703.55
5703.67
5701.92
5702.06
5702.31
5702.68
5703.04
5703.32
5703.51
5703.63
5700.29
5700.83
5701.77
5702.72
5703.44
5703.88
5704.1
5704.14
5700.17
5700.74
5701.7
5702.67
5703.39
5703.82
5704.02
5704.05
5700.08
5700.64
5701.61
5702.57
5703.28
5703.71
5703.9
5703.93
5700
5700.57
5701.53
5702.5
5703.2
5703.62
5703.82
5703.84
5699.93
5700.51
5701.48
5702.44
5703.14
5703.56
5703.75
5703.77
5699.86
5700.47
5701.44
5702.4
5703.11
5703.53
5703.73
5703.75
5699.82
5700.43
5701.41
5702.36
5703.06
5703.48
5703.68
5703.72
5699.33
5700.27
5701.78
5703.18
5704.14
5704.58
5704.61
5704.37
5699.32
5700.25
5701.79
5703.2
5704.15
5704.57
5704.6
5704.35
5699.35
5700.27
5701.78
5703.15
5704.06
5704.46
5704.48
5704.22
5699.39
5700.29
5701.77
5703.11
5704
5704.39
5704.4
5704.14
5699.41
5700.3
5701.76
5703.09
5703.96
5704.34
5704.34
5704.08
5699.43
5700.27
5701.73
5703.05
5703.92
5704.3
5704.32
5704.07
5699.48
5700.3
5701.73
5703.02
5703.88
5704.25
5704.27
5704.03
5689.16
5693.6
5699.76
5703.85
5705.81
5706.21
5705.94
5692.61
5688.86
5693.74
5699.89
5703.97
5705.9
5706.26
5706.01
5695.36
5688.9
5694.13
5700.17
5704.07
5705.86
5706.16
5705.93
5698.66
5688.96
5694.44
5700.34
5704.09
5705.79
5706.07
5705.87
5696.76
5688.81
5694.63
5700.46
5704.13
5705.77
5706.03
5705.83
5701.19
5688.48
5694.65
5700.44
5704.05
5705.69
5705.96
5705.8
5705.46
5688.48
5694.87
5700.58
5704.07
5705.63
5705.88
5705.72
5705.34
5703.39
5703.33
5703.34
5703.43
5703.53
5703.64
5703.75
5703.86
5703.46
5703.39
5703.4
5703.49
5703.59
5703.7
5703.82
5703.93
5703.52
5703.45
5703.46
5703.55
5703.65
5703.76
5703.88
5703.99
5703.57
5703.51
5703.52
5703.6
5703.71
5703.82
5703.93
5704.04
5703.62
5703.55
5703.57
5703.65
5703.75
5703.86
5703.98
5704.09
5703.65
5703.59
5703.61
5703.69
5703.79
5703.9
5704.01
5704.12
5703.68
5703.62
5703.63
5703.72
5703.82
5703.93
5704.04
5704.15
5703.01
5702.98
5703.09
5703.3
5703.5
5703.69
5703.86
5704.01
5703.08
5703.04
5703.16
5703.36
5703.57
5703.76
5703.93
5704.08
5703.14
5703.11
5703.22
5703.42
5703.63
5703.83
5704
5704.15
5703.21
5703.17
5703.28
5703.48
5703.69
5703.88
5704.06
5704.2
5703.26
5703.22
5703.33
5703.53
5703.74
5703.93
5704.1
5704.25
5703.31
5703.27
5703.38
5703.58
5703.78
5703.97
5704.14
5704.29
5703.35
5703.31
5703.42
5703.62
5703.82
5704
5704.17
5704.32
5702.38
5702.51
5702.77
5703.15
5703.52
5703.82
5704.04
5704.2
5702.43
5702.54
5702.8
5703.2
5703.58
5703.89
5704.11
5704.27
5702.47
5702.59
5702.85
5703.25
5703.63
5703.95
5704.18
5704.34
5702.53
5702.64
5702.9
5703.31
5703.69
5704.01
5704.24
5704.4
5702.59
5702.7
5702.95
5703.35
5703.74
5704.06
5704.29
5704.45
5702.66
5702.76
5703.01
5703.41
5703.79
5704.1
5704.33
5704.49
5702.72
5702.82
5703.07
5703.46
5703.83
5704.14
5704.36
5704.51
5700.46
5701.02
5701.96
5702.91
5703.63
5704.07
5704.3
5704.38
5700.46
5700.99
5701.93
5702.9
5703.64
5704.11
5704.36
5704.46
5700.47
5700.99
5701.94
5702.92
5703.68
5704.17
5704.43
5704.54
5700.53
5701.02
5701.98
5702.96
5703.74
5704.23
5704.5
5704.6
5700.62
5701.09
5702.03
5703.01
5703.78
5704.27
5704.53
5704.64
5700.73
5701.19
5702.11
5703.07
5703.83
5704.32
5704.58
5704.67
5700.85
5701.3
5702.21
5703.15
5703.9
5704.37
5704.61
5704.7
5699.69
5700.65
5702.15
5703.53
5704.46
5704.87
5704.9
5704.69
5699.42
5700.37
5701.9
5703.35
5704.36
5704.84
5704.92
5704.75
5699.2
5700.18
5701.77
5703.29
5704.37
5704.89
5704.97
5704.8
5699.12
5700.12
5701.72
5703.28
5704.39
5704.94
5705.03
5704.83
5699.15
5700.15
5701.72
5703.28
5704.4
5704.96
5705.04
5704.83
5699.31
5700.28
5701.82
5703.34
5704.45
5705
5705.07
5704.84
5699.52
5700.5
5702
5703.49
5704.56
5705.07
5705.11
5704.86
5689.6
5694.25
5700.38
5704.4
5706.28
5706.54
5706.2
5706
5689.09
5693.33
5699.62
5703.87
5705.96
5706.36
5706.08
5705.81
5688.7
5692.58
5699.12
5703.64
5705.92
5706.4
5706.18
5688.59
5688.64
5692.15
5698.84
5703.53
5705.92
5706.46
5706.25
5646.02
5688.87
5692.01
5698.7
5703.44
5705.89
5706.46
5706.24
5624.77
5689.31
5692.17
5698.77
5703.49
5705.94
5706.5
5706.26
5608.27
5689.99
5692.61
5699.16
5703.79
5706.16
5706.65
5706.37
5596.29
5703.7
5703.64
5703.66
5703.74
5703.84
5703.95
5704.06
5704.17
5703.7
5703.64
5703.66
5703.75
5703.85
5703.96
5704.08
5704.19
5703.69
5703.63
5703.65
5703.74
5703.84
5703.95
5704.07
5704.18
5703.64
5703.59
5703.61
5703.7
5703.81
5703.92
5704.03
5704.14
5703.58
5703.53
5703.55
5703.64
5703.74
5703.86
5703.97
5704.08
5703.5
5703.45
5703.47
5703.56
5703.66
5703.77
5703.88
5703.99
5703.41
5703.37
5703.38
5703.47
5703.57
5703.68
5703.79
5703.89
5703.38
5703.34
5703.44
5703.65
5703.85
5704.04
5704.2
5704.35
5703.39
5703.35
5703.46
5703.66
5703.87
5704.06
5704.23
5704.37
5703.37
5703.33
5703.44
5703.65
5703.86
5704.05
5704.22
5704.36
5703.32
5703.28
5703.4
5703.61
5703.82
5704.01
5704.18
5704.32
5703.24
5703.21
5703.33
5703.54
5703.75
5703.94
5704.11
5704.24
5703.14
5703.11
5703.23
5703.44
5703.65
5703.84
5704
5704.14
5703.02
5702.99
5703.12
5703.34
5703.54
5703.73
5703.89
5704.02
5702.76
5702.86
5703.11
5703.5
5703.88
5704.18
5704.4
5704.55
5702.78
5702.87
5703.13
5703.53
5703.91
5704.22
5704.44
5704.59
5702.76
5702.86
5703.12
5703.52
5703.91
5704.22
5704.44
5704.59
5702.71
5702.81
5703.07
5703.48
5703.87
5704.18
5704.4
5704.54
5702.63
5702.74
5703
5703.4
5703.79
5704.09
5704.31
5704.45
5702.52
5702.64
5702.9
5703.3
5703.67
5703.97
5704.18
5704.32
5702.4
5702.53
5702.79
5703.18
5703.55
5703.84
5704.04
5704.18
5700.91
5701.35
5702.26
5703.21
5703.95
5704.43
5704.67
5704.75
5700.91
5701.35
5702.29
5703.24
5704
5704.48
5704.72
5704.8
5700.88
5701.32
5702.28
5703.24
5704.01
5704.49
5704.74
5704.82
5700.82
5701.28
5702.24
5703.21
5703.97
5704.45
5704.69
5704.76
5700.73
5701.21
5702.16
5703.13
5703.88
5704.36
5704.59
5704.65
5700.61
5701.1
5702.05
5703.01
5703.75
5704.21
5704.43
5704.48
5700.46
5700.98
5701.91
5702.87
5703.6
5704.04
5704.26
5704.31
5699.59
5700.57
5702.07
5703.56
5704.64
5705.15
5705.19
5704.93
5699.55
5700.54
5702.08
5703.61
5704.71
5705.24
5705.29
5705.05
5699.51
5700.53
5702.1
5703.65
5704.76
5705.3
5705.37
5705.15
5699.49
5700.51
5702.11
5703.65
5704.74
5705.27
5705.33
5705.11
5699.45
5700.48
5702.07
5703.59
5704.65
5705.15
5705.2
5704.95
5699.42
5700.41
5701.97
5703.46
5704.49
5704.97
5705.01
5704.76
5699.4
5700.35
5701.88
5703.31
5704.3
5704.76
5704.79
5704.55
5690.01
5692.61
5699.17
5703.84
5706.26
5706.77
5706.5
5603.02
5689.58
5692.45
5699.12
5703.91
5706.4
5706.94
5706.65
5630.35
5689.28
5692.5
5699.26
5704.08
5706.56
5707.1
5706.79
5677.64
5689.36
5692.69
5699.44
5704.19
5706.6
5707.13
5706.79
5687.39
5688.84
5692.83
5699.54
5704.18
5706.51
5707
5706.67
5684.36
5687.92
5692.85
5699.53
5704.02
5706.26
5706.74
5706.43
5684.03
5688.24
5693.32
5699.66
5703.92
5706.01
5706.45
5706.15
5688.86
5703.01
5702.96
5702.97
5703.06
5703.16
5703.27
5703.38
5703.48
5703.04
5702.98
5703
5703.08
5703.19
5703.29
5703.4
5703.51
5703.08
5703.02
5703.03
5703.12
5703.23
5703.34
5703.45
5703.56
5703.13
5703.07
5703.08
5703.17
5703.27
5703.39
5703.5
5703.61
5703.19
5703.13
5703.14
5703.23
5703.33
5703.44
5703.56
5703.67
5703.26
5703.19
5703.2
5703.29
5703.4
5703.51
5703.62
5703.73
5703.32
5703.26
5703.27
5703.36
5703.46
5703.57
5703.69
5703.8
5702.55
5702.52
5702.65
5702.88
5703.08
5703.26
5703.42
5703.55
5702.57
5702.54
5702.68
5702.9
5703.11
5703.3
5703.46
5703.6
5702.62
5702.59
5702.72
5702.94
5703.15
5703.35
5703.52
5703.66
5702.69
5702.65
5702.78
5703
5703.21
5703.41
5703.58
5703.72
5702.76
5702.73
5702.86
5703.07
5703.28
5703.48
5703.65
5703.79
5702.85
5702.81
5702.93
5703.15
5703.35
5703.55
5703.72
5703.86
5702.93
5702.9
5703.02
5703.23
5703.43
5703.62
5703.79
5703.94
5701.91
5702.05
5702.31
5702.69
5703.05
5703.33
5703.53
5703.65
5701.92
5702.06
5702.32
5702.71
5703.07
5703.36
5703.57
5703.7
5701.96
5702.1
5702.37
5702.76
5703.14
5703.43
5703.65
5703.79
5702.03
5702.16
5702.43
5702.83
5703.2
5703.5
5703.72
5703.86
5702.12
5702.25
5702.51
5702.91
5703.28
5703.58
5703.8
5703.95
5702.22
5702.34
5702.61
5702.99
5703.36
5703.66
5703.88
5704.02
5702.31
5702.44
5702.7
5703.09
5703.45
5703.75
5703.96
5704.11
5699.8
5700.42
5701.4
5702.37
5703.08
5703.5
5703.71
5703.75
5699.78
5700.41
5701.39
5702.37
5703.1
5703.54
5703.76
5703.81
5699.82
5700.45
5701.45
5702.44
5703.18
5703.63
5703.86
5703.92
5699.9
5700.53
5701.52
5702.51
5703.25
5703.71
5703.94
5704.01
5700.04
5700.65
5701.63
5702.62
5703.35
5703.8
5704.03
5704.1
5700.22
5700.81
5701.77
5702.73
5703.45
5703.89
5704.11
5704.18
5700.39
5700.96
5701.91
5702.85
5703.56
5704
5704.22
5704.29
5699.47
5700.3
5701.74
5703.04
5703.9
5704.29
5704.32
5704.09
5699.35
5700.18
5701.64
5702.98
5703.89
5704.3
5704.36
5704.14
5699.3
5700.16
5701.68
5703.07
5704
5704.42
5704.48
5704.26
5699.33
5700.21
5701.75
5703.15
5704.08
5704.5
5704.56
5704.34
5699.44
5700.33
5701.86
5703.25
5704.18
5704.6
5704.64
5704.42
5699.62
5700.53
5702.02
5703.38
5704.28
5704.68
5704.71
5704.48
5699.79
5700.72
5702.2
5703.54
5704.44
5704.82
5704.83
5704.6
5688.36
5694.9
5700.63
5704.11
5705.66
5705.93
5705.8
5705.52
5687.97
5694.5
5700.31
5703.91
5705.57
5705.9
5705.81
5705.58
5687.75
5694.27
5700.23
5703.99
5705.73
5706.07
5705.98
5705.74
5687.86
5694.21
5700.25
5704.08
5705.84
5706.16
5706.04
5705.8
5688.29
5694.29
5700.32
5704.18
5705.95
5706.24
5706.09
5705.87
5688.99
5694.49
5700.47
5704.31
5706.07
5706.33
5706.12
5705.88
5689.64
5694.67
5700.7
5704.56
5706.32
5706.53
5706.22
5705.98
5703.95
5703.97
5704.03
5703.88
5703.95
5704.01
5704.08
5704.16
5704.25
5704.35
5704.48
5703.8
5703.86
5703.92
5703.99
5704.07
5704.16
5704.27
5704.39
5703.72
5703.78
5703.84
5703.91
5703.99
5704.08
5704.19
5704.32
5703.65
5703.71
5703.78
5703.84
5703.92
5704.01
5704.12
5704.25
5703.6
5703.66
5703.73
5703.79
5703.87
5703.96
5704.08
5704.2
5703.58
5703.64
5703.71
5703.78
5703.86
5703.96
5704.08
5704.21
5703.57
5703.64
5703.71
5703.79
5703.87
5703.97
5704.08
5704.22
5704.01
5704.08
5704.15
5704.23
5704.33
5704.46
5704.62
5704.82
5703.91
5703.98
5704.04
5704.12
5704.21
5704.34
5704.52
5704.71
5703.82
5703.88
5703.95
5704.02
5704.12
5704.25
5704.42
5704.62
5703.74
5703.81
5703.87
5703.95
5704.04
5704.17
5704.35
5704.55
5703.69
5703.75
5703.82
5703.89
5703.99
5704.12
5704.3
5704.5
5703.66
5703.73
5703.79
5703.87
5703.96
5704.1
5704.28
5704.48
5703.63
5703.69
5703.76
5703.84
5703.93
5704.07
5704.25
5704.46
5704.12
5704.17
5704.22
5704.29
5704.4
5704.56
5704.79
5705.06
5704.01
5704.05
5704.09
5704.14
5704.24
5704.4
5704.64
5704.91
5703.9
5703.93
5703.97
5704.03
5704.12
5704.29
5704.53
5704.8
5703.81
5703.84
5703.88
5703.93
5704.03
5704.2
5704.44
5704.72
5703.75
5703.78
5703.82
5703.87
5703.97
5704.14
5704.38
5704.66
5703.73
5703.76
5703.81
5703.86
5703.95
5704.12
5704.36
5704.65
5703.69
5703.73
5703.77
5703.82
5703.91
5704.08
5704.33
5704.61
5704.12
5704.12
5704.13
5704.17
5704.27
5704.45
5704.74
5705.06
5704.01
5703.98
5703.97
5703.98
5704.03
5699.82
5703.81
5704.87
5703.88
5703.85
5703.82
5703.81
5703.85
5704.02
5704.37
5704.71
5703.79
5703.74
5703.7
5703.69
5703.71
5703.54
5704.27
5704.61
5703.72
5703.68
5703.64
5703.63
5703.65
5703.82
5704.19
5704.55
5703.71
5703.67
5703.64
5703.64
5703.68
5703.6
5704
5704.55
5703.67
5703.63
5703.61
5703.61
5703.65
5693.4
5700.25
5704.53
5704.01
5703.65
5702.89
5704.02
5688.42
5664.11
5677.71
5704.97
5703.98
5703.71
5703.79
5704.02
5668.9
5506.08
5634.67
5705.04
5703.84
5703.63
5703.71
5703.79
5598.72
5556.76
5639.94
5704.8
5703.76
5703.55
5703.59
5703.61
5554.24
5567.49
5650.57
5704.66
5703.7
5703.51
5703.56
5703.58
5575.73
5554.51
5635.39
5704.63
5703.67
5703.41
5703.51
5703.66
5654.24
5513.76
5615.9
5704.72
5703.64
5703.36
5703.43
5703.67
5663.62
5462.89
5627.39
5704.76
5639.04
5211.28
5283.28
5547.26
5232.81
5231.79
5476.29
5437.89
5622.78
5222.08
5313.57
5560.75
5213.89
5410.05
5450.44
5422.96
5564.72
5284.76
5459.09
5436.49
5177.85
5392.44
5431.78
5398.46
5558.55
5337.84
5478.37
5352.19
5174.14
5414.39
5410.63
5395.22
5546.02
5344.74
5495.16
5385.82
5185.05
5381.43
5411.91
5392.82
5576.88
5239
5405.98
5533.11
5115.03
5335.81
5428.11
5407.23
5620.05
5234.02
5304.36
5591.39
5115.5
5365.75
5459.4
5443.79
5703.95
5704.02
5704.09
5704.16
5704.23
5704.32
5704.42
5704.53
5704.02
5704.09
5704.15
5704.22
5704.3
5704.38
5704.48
5704.59
5704.08
5704.14
5704.21
5704.28
5704.35
5704.44
5704.53
5704.64
5704.13
5704.2
5704.27
5704.33
5704.41
5704.49
5704.58
5704.69
5704.18
5704.24
5704.31
5704.38
5704.45
5704.53
5704.63
5704.73
5704.21
5704.28
5704.35
5704.42
5704.49
5704.58
5704.67
5704.78
5704.24
5704.31
5704.37
5704.44
5704.52
5704.6
5704.7
5704.81
5704.12
5704.2
5704.27
5704.36
5704.46
5704.58
5704.75
5704.93
5704.19
5704.27
5704.35
5704.43
5704.53
5704.66
5704.82
5705
5704.25
5704.33
5704.41
5704.49
5704.59
5704.71
5704.87
5705.05
5704.31
5704.39
5704.47
5704.56
5704.65
5704.77
5704.93
5705.1
5704.36
5704.44
5704.52
5704.6
5704.7
5704.82
5704.98
5705.15
5704.4
5704.48
5704.56
5704.65
5704.75
5704.87
5705.03
5705.2
5704.43
5704.51
5704.59
5704.68
5704.77
5704.9
5705.06
5705.24
5704.29
5704.35
5704.42
5704.5
5704.61
5704.77
5705
5705.27
5704.37
5704.44
5704.5
5704.59
5704.7
5704.86
5705.09
5705.35
5704.44
5704.51
5704.58
5704.66
5704.77
5704.93
5705.15
5705.41
5704.51
5704.58
5704.65
5704.73
5704.84
5705
5705.22
5705.48
5704.55
5704.63
5704.7
5704.78
5704.89
5705.06
5705.28
5705.53
5704.6
5704.67
5704.75
5704.83
5704.94
5705.11
5705.34
5705.59
5704.62
5704.7
5704.77
5704.86
5704.97
5705.14
5705.37
5705.63
5704.38
5704.38
5704.4
5704.45
5704.55
5704.74
5705.04
5705.38
5704.48
5704.49
5704.51
5704.56
5704.66
5704.85
5705.15
5705.49
5704.56
5704.58
5704.6
5704.66
5704.76
5704.95
5705.24
5705.57
5704.64
5704.67
5704.7
5704.75
5704.85
5705.04
5705.33
5705.66
5704.68
5704.71
5704.75
5704.81
5704.91
5705.1
5705.39
5705.72
5704.72
5704.76
5704.8
5704.86
5704.96
5705.16
5705.46
5705.79
5704.75
5704.78
5704.83
5704.89
5705
5705.19
5705.49
5705.83
5704.34
5704.08
5704.08
5704.26
5702.04
5686.53
5699.07
5705.24
5704.47
5704.28
5704.22
5704.35
5704.48
5683.17
5698.02
5705.39
5704.53
5704.4
5704.42
5704.51
5704.6
5684.11
5699.12
5705.5
5704.62
5704.56
5704.58
5704.62
5704.69
5688.47
5700.62
5705.62
5704.66
5704.63
5704.66
5704.68
5704.59
5690.86
5701.44
5705.7
5704.69
5704.68
5704.72
5704.75
5703.75
5692.39
5701.77
5705.77
5704.69
5704.7
5704.77
5704.79
5703.25
5694.12
5702.56
5705.82
5629.92
5329.36
5381.52
5580.56
5367.59
5214.96
5476.07
5494.62
5637.83
5494.68
5400.68
5489.72
5411.95
5255.57
5454.26
5508.02
5556.26
5482.77
5515.92
5511.49
5391.42
5281.01
5447.9
5516.09
5515.74
5529.67
5556.26
5498.35
5369.2
5287.27
5443.99
5522.33
5509.96
5540.41
5565.7
5494.95
5354.69
5283.07
5442.85
5526.91
5493.05
5538.89
5572.77
5501.5
5334.08
5271.95
5439.41
5528.63
5456.56
5526.06
5581.77
5518.72
5318.35
5273.18
5438.54
5528.34
5704.26
5704.33
5704.4
5704.47
5704.54
5704.63
5704.73
5704.83
5704.28
5704.34
5704.41
5704.48
5704.55
5704.64
5704.73
5704.84
5704.27
5704.33
5704.4
5704.47
5704.54
5704.62
5704.72
5704.83
5704.23
5704.29
5704.36
5704.43
5704.5
5704.58
5704.68
5704.79
5704.16
5704.23
5704.29
5704.36
5704.43
5704.52