/*--------------------------------*- C++ -*----------------------------------*\
| =========                 |                                                 |
| \\      /  F ield         | OpenFOAM: The Open Source CFD Toolbox           |
|  \\    /   O peration     | Version:  plus.master.MPPICInterFoam            |
|   \\  /    A nd           | Web:      www.OpenFOAM.com                      |
|    \\/     M anipulation  |                                                 |
\*---------------------------------------------------------------------------*/
FoamFile
{
    version     2.0;
    format      ascii;
    class       volScalarField;
    location    "7.6";
    object      rho;
}
// * * * * * * * * * * * * * * * * * * * * * * * * * * * * * * * * * * * * * //

dimensions      [1 -3 0 0 0 0 0];

internalField   nonuniform List<scalar> 
11822
(
973.64
826.641
738.955
733.447
815.431
974.906
1000
791.107
603.964
826.244
833.244
572.151
810.556
1000
772.014
773.656
833.266
838.586
838.504
766.103
1000
800.873
783.527
832.014
838.571
838.586
820.985
1000
739.82
694.633
439.008
819.344
722.739
778.813
1000
913.184
713.325
792.767
737.593
740.691
944.928
1000
999.365
989.048
969.664
978.168
995.502
1000
1000
968.487
816.337
739.934
734.102
812.849
966.11
1000
772.142
467.055
713.142
802.134
481.364
797.909
1000
690.675
813.602
822.954
820.184
686.282
698.308
999.314
706.55
805.208
798.912
694.717
675.818
737.657
996.886
749.39
453.379
296.268
495.686
385.195
764.603
998.096
896.564
734.473
724.783
702.992
749.53
920.528
1000
997.313
980.469
965.861
970.639
986.288
999.769
1000
954.74
817.179
751.23
741.514
810.422
946.79
1000
771.99
463.839
339.366
467.639
480.252
783.904
994.372
681.935
772.323
634.437
543.995
278.462
681.788
982.66
670.709
783.928
636.613
343.365
316.461
682.84
977.167
747.119
417.455
286.236
275.603
361.161
738.366
984.037
859.513
738.202
704.908
678.19
734.555
876.753
1000
993.753
955.991
945.052
942.931
963.786
997.205
1000
922.434
772.134
708.364
700.857
756.291
902.963
999.808
714.208
456.149
270.978
269.056
462.38
710.049
972.406
620.433
481.31
295.732
265.99
262.798
603.759
935.077
586.608
491.4
312.318
264.428
263.296
563.926
923.852
678.849
415.837
292.601
270.8
340.817
635.925
949.379
776.862
674.48
631.336
591.966
635.257
790.015
996.18
985.936
908.816
883.991
876.408
919.97
989.628
1000
836.232
585.224
517.018
517.163
565.35
800.493
996.996
506.067
340.948
260.499
260.564
329.79
492.723
918.904
377.815
264.29
262.1
261.191
261.825
373.16
828.41
345.401
266.241
263.822
262.465
261.703
329.868
816.663
439.886
311.163
264.455
263.373
266.913
403.142
880.12
631.764
430.049
369.5
345.788
388.991
651.217
984.254
969.641
833.039
766.412
762.883
844.662
973.689
1000
757.337
417.109
364.956
339.449
419.938
744.816
994.678
370.427
260.973
260.621
258.882
260.487
376.015
893.606
264.724
262.332
261.012
260.697
260.86
262.463
787.249
266.287
263.754
262.253
261.178
260.962
283.697
793.465
314.571
264.367
263.017
262.181
261.498
362.076
866.437
589.222
312.478
280.917
263.191
332.324
638.576
979.827
965.253
819.911
750.36
748.782
834.244
969.063
999.994
1000
999.999
999.999
1000
999.969
999.691
999.658
999.998
1000
1000
1000
1000
1000
1000
1000
1000
1000
1000
1000
1000
1000
1000
1000
1000
1000
1000
1000
1000
1000
1000
1000
1000
1000
1000
1000
1000
1000
1000
1000
1000
1000
1000
1000
1000
1000
1000
1000
1000
1000
1000
1000
1000
1000
999.98
999.999
1000
1000
999.999
1000
1000
999.991
999.491
999.631
999.999
1000
1000
1000
1000
1000
1000
1000
1000
1000
1000
1000
1000
1000
1000
1000
1000
1000
1000
1000
1000
1000
1000
1000
1000
1000
1000
1000
1000
1000
1000
1000
1000
1000
1000
1000
1000
1000
1000
1000
1000
1000
1000
1000
1000
1000
999.985
999.999
1000
1000
999.999
1000
1000
999.998
999.226
999.64
999.999
1000
1000
1000
1000
1000
1000
999.999
999.999
1000
1000
1000
1000
1000
1000
1000
1000
1000
1000
1000
1000
1000
1000
1000
1000
1000
1000
1000
1000
1000
1000
1000
1000
1000
1000
1000
1000
1000
1000
1000
1000
1000
1000
1000
1000
1000
999.994
1000
1000
1000
1000
1000
1000
1000
999.213
999.705
999.999
1000
1000
1000
1000
1000
1000
999.997
999.995
1000
1000
1000
1000
1000
1000
1000
1000
1000
1000
1000
1000
1000
1000
1000
1000
1000
1000
1000
1000
1000
1000
1000
1000
1000
1000
1000
1000
1000
1000
1000
1000
1000
1000
1000
1000
1000
999.999
1000
1000
1000
1000
1000
1000
1000
999.293
999.852
999.886
1000
1000
1000
1000
1000
1000
999.997
999.994
1000.01
1000
1000
1000
1000
1000
1000
1000
1000.01
1000
1000
1000
1000
1000
1000
1000
1000
1000
1000
1000
1000
1000
1000
1000
1000
1000
1000
1000
1000
1000
1000
1000
1000
1000
1000
1000
1000
1000
1000
1000
999.999
1000
1000
1000
1000
999.508
999.753
999.72
999.988
1000
1000
1000
1000
1000
999.999
999.994
999.98
1000
1000
1000
1000
1000
1000
1000
999.981
1000
1000
1000
1000
1000
1000
1000
999.987
1000
1000
1000
1000
1000
1000
1000
999.998
1000
1000
1000
1000
1000
1000
1000
1000
1000
1000
1000
1000
1000
1000
1000
1000
1000
1000
1000
1000
1000
1000
1000
1000
1000
1000
1000
1000
1000
1000
1000
990.523
1000
1000
1000
1000
999.999
1000
1000
971.246
1000
999.999
999.998
1000
1000
1000
1000
964.092
1000
999.95
1000
1000
1000
1000
1000
1000
999.999
999.965
1000
1000
1000
1000
1000
1000
1000
1000
999.988
999.942
999.991
999.978
1000
1000
1000
1000
1000
1000
1000
1000
1000
1000
1000
1000
1000
1000
1000
1000
1000
982
1000
1000
1000
1000
999.999
1000
1000
963.984
1000
1000
1000
1000
999.999
1000
1000
960.829
1000
999.998
1000
1000
1000
1000
1000
999.872
1000
999.996
1000
1000
1000
1000
1000
1000
1000
1000
999.975
999.952
999.989
999.992
1000
1000
1000
1000
1000
1000
1000
1000
1000
1000
1000
1000
1000
1000
1000
1000
1000
959.343
1000
1000
1000
1000
999.999
1000
1000
938.11
1000
1000
1000
1000
1000
1000
1000
945.477
1000
1000
1000
1000
1000
1000
1000
989.919
1000
1000
1000
1000
1000
1000
1000
1000
1000
999.999
999.97
999.967
999.989
1000
1000
1000
1000
1000
1000
1000
1000
1000
1000
996
1000
1000
1000
1000
1000
1000
1000
912.784
1000
1000
1000
1000
999.999
1000
1000
861.992
1000
1000
1000
1000
1000
1000
1000
891.385
1000
1000
1000
1000
1000
1000
1000
966.019
1000
1000
1000
1000
1000
1000
1000
1000
1000
1000
999.97
999.984
999.994
1000
1000
1000
1000
1000
1000
1000
1000
1000
1000
984.411
1000
1000
1000
1000
1000
1000
1000
827.504
1000.01
1000
1000
1000
999.999
1000
1000
699.458
999.599
1000
1000
1000
1000
1000
1000
748.493
999.98
1000
1000
1000
1000
1000
1000
913.73
1000
1000
1000
1000
1000
1000
1000
999.999
1000
1000
999.97
999.991
1000
1000
1000
1000
1000
1000
1000
1000
1000
1000
1000
979.269
999.999
1000
1000
1000
1000
1000
1000
801.947
999.99
1000
1000
1000
999.999
1000
1000
659.903
999.167
1000
1000
1000
1000
1000
1000
692.01
999.935
1000
1000
1000
1000
1000
1000
884.401
999.994
1000
1000
1000
1000
1000
1000
1000.03
1000
1000
999.985
999.991
1000
1000
1000
1000
1000
999.999
999.978
999.307
999.491
999.989
999.94
1000
1000
1000
1000
999.859
997.933
999.79
997
1000
1000
1000
1000
999.931
997.932
998.983
998.132
992.028
1000
1000
1000
999.976
999.72
999.858
999.888
1000
1000
999.995
999.971
999.966
999.966
999.726
994.981
1000
999.999
999.986
1000
999.424
997.677
994.981
994.981
1000
999.999
999.999
1000
999.901
997.75
995.541
999.616
1000
1000
1000
999.967
999.307
999.773
999.993
999.939
1000
1000
1000
1000
999.805
997.933
999.704
994.809
1000
1000
1000
1000
999.892
997.933
999.173
994.876
995.083
1000
1000
999.997
999.709
999.578
999.886
999.888
1000
1000
999.999
1000
999.98
999.708
999.353
994.982
1000
999.999
999.987
1000
999.552
998.062
994.985
995.257
1000
1000
999.999
1000
999.946
997.386
996.72
999.784
1000
1000
1000
999.98
999.307
999.801
999.977
999.913
1000
1000
1000
1000
999.705
998.763
999.371
994.808
997.634
1000
1000
1000
999.757
998.181
999.133
994.808
991.518
1000
1000
999.995
999.525
999.596
999.943
999.767
1000
1000
1000
1000
999.984
998.539
999.087
995.399
1000
1000
999.998
999.996
999.841
998.221
994.988
998.269
1000
1000
1000
1000
999.929
997.388
998.029
999.946
1000
1000
1000
999.999
999.442
999.735
999.408
999.893
996.816
1000
1000
1000
999.543
999.481
997.529
994.808
981.55
1000
1000
1000
999.556
999.577
999.051
994.808
974.123
1000
1000
999.999
999.525
999.698
999.997
996.757
993.605
1000
1000
1000
999.999
997.881
999.272
998.807
1000
1000
1000
999.986
999.992
997.889
997.909
999.898
1000
1000
1000
1000
999.881
997.391
998.977
999.984
1000.01
1000
1000
1000
999.909
999.518
998.124
999.876
970.051
1000
1000
1000
999.625
999.267
996.527
996.259
926.146
1000
1000
1000
999.772
999.999
998.306
994.808
918.271
1000
1000
1000
999.575
999.844
999.999
994.813
962.962
1000
1000
1000
999.964
998.515
999.647
999.905
999.999
1000
1000
999.986
999.987
997.398
999.585
999.983
1000
1000
1000
1000
999.76
997.392
999.488
999.984
1000.02
1000
1000
1000
1000
999.255
997.222
999.836
932.972
999.996
1000
1000
999.882
998.842
996.554
998.705
871.905
999.991
1000
1000
999.999
1000
997.749
994.811
858.672
999.991
1000
1000
999.947
999.964
1000
995.404
931.715
999.995
1000
1000
999.857
999.62
999.683
999.597
1000.02
1000
1000
999.989
1000
997.436
998.887
999.981
1000
1000
1000
1000
999.948
997.398
998.779
999.877
999.999
999.995
1000
999.93
998.655
999.626
1000
1000
1000
999.993
1000
999.841
996.807
998.857
1000
1000
1000
999.997
1000
999.899
996.807
997.927
1000
1000
1000
999.998
1000
999.977
998.762
997.88
999.985
1000
1000
999.999
1000
999.925
998.139
999.12
1000
1000
1000
999.999
999.999
999.995
999.912
999.929
999.998
1000
1000
1000
1000
1000
1000
1000
1000
1000
1000
1000
1000
999.84
998.847
999.78
1000
1000
1000
1000
1000
999.657
996.806
999.168
1000
1000
1000
1000
1000
999.911
996.806
998.514
1000
1000
1000
1000
1000
999.957
996.825
998.454
1000
1000
1000
1000
1000
999.961
998.561
999.648
1000
1000
1000
1000
1000
999.989
999.899
999.931
1000
1000
1000
1000
1000
1000
1000
1000
1000
1000
1000
1000
1000
999.68
999.29
999.912
1000
1000
1000
1000
1000
998.99
996.806
999.466
1000
1000
1000
1000
1000
999.949
996.806
998.863
1000
1000
1000
1000
1000
999.971
996.806
998.658
1000
1000
1000
1000
1000
999.993
999.383
999.809
1000
1000
1000
1000
1000
999.945
999.846
999.942
1000
1000
1000
1000
1000
1000
1000
1000
1000
1000
1000
1000
1000
999.652
999.708
999.98
1000
1000
1000
1000
1000
998.122
996.961
999.712
1000
1000
1000
1000
1000
999.773
996.806
999.054
1000
1000
1000
1000
1000
1000
996.817
998.844
1000
1000
1000
1000
1000
999.986
999.245
999.779
1000
1000
1000
1000
1000
999.856
999.831
999.954
1000
1000
1000
1000
1000
1000
1000
1000
1000
1000
1000
1000
1000
999.711
999.904
999.998
1000
1000
1000
1000
1000
998.044
998.342
999.904
1000
1000
1000.01
1000
1000
998.825
996.806
999.232
1000
1000
1000.02
1000
1000
999.573
996.811
998.931
1000
1000
1000.02
1000
1000
999.807
997.237
999.654
1000
1000
1000.01
1000
1000
999.852
999.849
999.964
1000
1000
1000
1000
1000
1000
1000
1000
1000
1000
1000
1000
999.999
999.865
999.951
999.998
1000
1000
999.998
1000
1000
998.161
998.993
999.988
1000
1000
999.989
1000
1000
997.7
996.811
999.183
1000
1000
999.983
1000
1000
998.593
996.818
998.738
1000
1000
999.983
1000
1000
998.767
996.831
999.414
1000
1000
999.981
1000
1000
999.872
999.863
999.98
1000
1000
999.995
1000
1000
1000
1000
1000
1000
1000
1000
1000
1000
1000
1000
1000
1000
1000
1000
1000
1000
1000
1000
1000
1000
1000
1000
1000
1000
1000
1000
1000
1000
1000
1000
1000
1000
1000
1000
1000
1000
1000
1000
1000
1000
1000
1000
1000
1000
1000
1000
1000
1000
1000
1000
1000
1000
1000
1000
1000
1000
1000
1000
1000
1000
1000
1000
1000
1000
1000
1000
1000
1000
1000
1000
1000
1000
1000
1000
1000
1000
1000
1000
1000
1000
1000
1000
1000
1000
1000
1000
1000
1000
1000
1000
1000
1000
1000
1000
1000
1000
1000
1000
1000
1000
1000
1000
1000
1000
1000
1000
1000
1000
1000
1000
1000
1000
1000
1000
1000
1000
1000
1000
1000
1000
1000
1000
1000
1000
1000
1000
1000
1000
1000
1000
1000
1000
1000
1000
1000
1000
1000
1000
1000
1000
1000
1000
1000
1000
1000
1000
1000
1000
1000
1000
1000
1000
1000
1000
1000
1000
1000
1000
1000
1000
1000
1000
1000
1000
1000
1000
1000
1000
1000
1000
1000
1000
1000
1000
1000
1000
1000
1000
1000
1000
1000
1000
1000
1000
1000
1000
1000
1000
1000
1000
1000
1000
1000
1000
1000
1000
1000
1000
1000
1000
1000
1000
1000
1000
1000
1000
1000
1000
1000
1000
1000
1000
1000
1000
1000
1000
1000
1000
1000
1000
1000
1000
1000
1000
1000
1000
1000
1000
1000
1000
1000
1000
1000
1000
1000
1000
1000
1000
1000
1000
1000
1000
1000
1000
1000
1000
1000
1000
1000
1000
1000
1000
1000
1000
1000
1000
1000
1000
1000
1000
1000
1000
1000
1000
1000
1000
1000
1000
1000
1000
1000
1000
1000
1000
1000
1000
1000
1000
1000
1000
1000
1000
1000
1000
1000
999.994
1000
1000
1000
999.999
999.997
999.997
997.626
1000
1000
1000
1000
999.999
999.997
999.997
998.121
1000
1000
1000
1000
999.999
999.997
999.997
998.748
1000
1000
1000
1000
999.999
999.997
999.997
998.411
1000
1000
1000
1000
999.999
999.997
999.997
999.229
1000
1000
1000
1000
999.999
999.997
999.997
999.998
1000
1000
1000
1000
999.999
999.997
999.997
999.985
1000
1000
1000
1000
1000
1000
1000
1000
1000
1000
1000
1000
1000
1000
1000
1000
1000
1000
1000
1000
1000
1000
1000
1000
1000
1000
1000
1000
1000
1000
1000
1000
1000
1000
1000
1000
1000
1000
1000
1000
1000
1000
1000
1000
1000
1000
1000
1000
1000
1000
1000
1000
1000
1000
1000
1000
1000
1000
1000
1000
1000
1000
1000
1000
1000
1000
1000
1000
1000
1000
1000
1000
1000
1000
1000
1000
1000
1000
1000
1000
1000
1000
1000
1000
1000
1000
1000
1000
1000
1000
1000
1000
1000
1000
1000
1000
1000
1000
1000
1000
1000
1000
1000
1000
1000
1000
1000
1000
1000
1000
1000
1000
1000
1000
1000
1000
1000
1000
1000
1000
1000
1000
1000
1000
1000
1000
1000
1000
1000
1000
1000
1000
1000
1000
1000
1000
1000
1000
1000
1000
1000
1000
1000
1000
1000
1000
1000
1000
1000
1000
1000
1000
1000
1000
1000
1000
1000
1000
1000
1000
1000
1000
1000
1000
1000
1000
1000
1000
1000
1000
1000
1000
1000
1000
1000
1000
1000
1000
1000
1000
1000
1000
1000
1000
1000
1000
1000
1000
1000
1000
1000
1000
1000
1000
1000
1000
1000
1000
1000
1000
1000
1000
1000
1000
1000
1000
1000
1000
1000
1000
1000
1000
1000
1000
1000
1000
1000
1000
1000
1000
1000
1000
1000
1000
1000
1000
1000
1000
1000
1000
1000
1000
1000
1000
1000
1000
1000
1000
1000
1000
1000
1000
1000
1000
1000
1000
1000
1000
1000
1000
1000
1000
1000
1000
1000
1000
1000
1000
1000
1000
1000
1000
1000
1000
1000
1000
1000
1000
1000
1000
1000
1000
1000
1000
1000
1000
1000
1000
1000
1000
1000
1000
1000
1000
1000
999.997
999.996
999.998
1000
1000
1000
1000
1000
999.997
999.997
999.998
1000
1000
1000
1000
1000
999.997
999.997
996.846
1000
1000
1000
1000
1000
999.996
999.997
989.048
1000
1000
1000
1000
1000
999.996
999.997
985.159
1000
1000
1000
1000
1000
999.996
999.997
982.135
1000
1000
1000
1000
1000
999.996
999.997
979.931
1000
1000
1000
1000
1000
1000
1000
1000
1000
1000
1000
1000
1000
1000
1000
1000
1000
1000
1000
1000
1000
1000
1000
1000
1000
1000
1000
1000
1000
1000
1000
1000
1000
1000
1000
1000
1000
1000
1000
1000
1000
1000
1000
1000
1000
1000
1000
1000
1000
1000
1000
1000
1000
1000
1000
1000
1000
1000
1000
1000
1000
1000
1000
1000
1000
1000
1000
1000
1000
1000
1000
1000
1000
1000
1000
1000
1000
1000
1000
1000
1000
1000
1000
1000
1000
1000
1000
1000
1000
1000
1000
1000
1000
1000
1000
1000
1000
1000
1000
1000
1000
1000
1000
1000
1000
1000
1000
1000
1000
1000
1000
1000
1000
1000
1000
1000
1000
1000
1000
1000
1000
1000
1000
1000
1000
1000
1000
1000
1000
1000
1000
1000
1000
1000
1000
1000
1000
1000
1000
1000
1000
1000
1000
1000
1000
1000
1000
1000
1000
1000
1000
1000
1000
1000
1000
1000
1000
1000
1000
1000
1000
1000
1000
1000
1000
1000
1000
1000
1000
1000
1000
1000
1000
1000
1000
1000
1000
1000
1000
1000
1000
1000
1000
1000
1000
1000
1000
1000
1000
1000
1000
1000
1000
1000
1000
1000
1000
1000
1000
1000
1000
1000
1000
1000
1000
1000
1000
1000
1000
1000
1000
1000
1000
1000
1000
1000
1000
1000
1000
1000
1000
1000
1000
1000
1000
1000
1000
1000
1000
1000
1000
1000
1000
1000
1000
1000
1000
1000
1000
1000
1000
1000
1000
1000
1000
1000
1000
1000
1000
1000
1000
1000
1000
1000
1000
1000
1000
1000
1000
1000
1000
1000
1000
1000
1000
1000
1000
1000
1000
1000
1000
1000
1000
1000
1000
1000
1000
1000
1000
1000
999.98
1000
1000
1000
1000
999.996
999.997
981.147
999.939
1000
1000
1000
1000
999.996
999.997
986.126
999.91
1000
1000
1000
1000
999.997
999.997
994.752
999.94
1000
1000
1000
1000
999.997
999.997
996.534
999.86
999.994
1000
1000
1000
999.997
999.997
996.009
999.709
999.968
1000
1000
1000
999.997
999.997
995.986
999.781
999.992
1000
1000
999.999
999.997
999.997
996.909
1000
1000
1000
1000
1000
1000
1000
1000
1000
1000
1000
1000
1000
1000
1000
1000
1000
1000
1000
1000
1000
1000
1000
1000
1000
1000
1000
1000
1000
1000
1000
1000
1000
1000
1000
1000
1000
1000
1000
1000
1000
1000
1000
1000
1000
1000
1000
1000
1000
1000
1000
1000
1000
1000
1000
1000
1000
1000
1000
1000
1000
1000
1000
1000
1000
1000
1000
1000
1000
1000
1000
1000
1000
1000
1000
1000
1000
1000
1000
1000
1000
1000
1000
1000
1000
1000
1000
1000
1000
1000
1000
1000
1000
1000
1000
1000
1000
1000
1000
1000
1000
1000
1000
1000
1000
1000
1000
1000
1000
1000
1000
1000
1000
1000
1000
1000
1000
1000
1000
1000
1000
1000
1000
1000
1000
1000
1000
1000
1000
1000
1000
1000
1000
1000
1000
1000
1000
1000
1000
1000
1000
1000
1000
1000
1000
1000
1000
1000
1000
1000
1000
1000
1000
1000
1000
1000
1000
1000
1000
1000
1000
1000
1000
1000
1000
1000
1000
1000
1000
1000
1000
1000
1000
1000
1000
1000
1000
1000
1000
1000
1000
1000
1000
1000
1000
1000
1000
1000
1000
1000
1000
1000
1000
1000
1000
1000
1000
1000
1000
1000
1000
1000
1000
1000
1000
1000
1000
1000
1000
1000
1000
1000
1000
1000
1000
1000
1000
1000
1000
1000
1000
1000
1000
1000
1000
1000
1000
1000
1000
1000
1000
1000
1000
1000
1000
1000
1000
1000
1000
1000
1000
1000
1000
1000
1000
1000
1000
1000
1000
1000
1000
1000
1000
1000
1000
1000
1000
1000
1000
1000
1000
1000
1000
1000
1000
1000
1000
1000
1000
1000
1000
1000
1000
1000
1000
1000
1000
1000
1000
1000
1000
1000
1000
1000
999.999
999.997
999.997
999.998
1000
1000
1000
1000
999.999
999.997
999.997
999.998
1000
1000
1000
1000
999.999
999.997
999.997
999.998
1000
1000
1000
1000
999.999
999.997
999.997
999.998
1000
1000
1000
1000
999.999
999.997
999.997
999.998
1000
1000
1000
1000
999.999
999.997
999.997
999.998
1000
1000
1000
1000
999.999
999.997
999.997
999.998
1000
1000
1000
1000
1000
1000
1000
1000
1000
1000
1000
1000
1000
1000
1000
1000
1000
1000
1000
1000
1000
1000
1000
1000
1000
1000
1000
1000
1000
1000
1000
1000
1000
1000
1000
1000
1000
1000
1000
1000
1000
1000
1000
1000
1000
1000
1000
1000
1000
1000
1000
1000
1000
1000
1000
1000
1000
1000
1000
1000
1000
1000
1000
1000
1000
1000
1000
1000
1000
1000
1000
1000
1000
1000
1000
1000
1000
1000
1000
1000
1000
1000
1000
1000
1000
1000
1000
1000
1000
1000
1000
1000
1000
1000
1000
1000
1000
1000
1000
1000
1000
1000
1000
1000
1000
1000
1000
1000
1000
1000
1000
1000
1000
1000
1000
1000
1000
1000
1000
1000
1000
1000
1000
1000
1000
1000
1000
1000
1000
1000
1000
1000
1000
1000
1000
1000
1000
1000
1000
1000
1000
1000
1000
1000
1000
1000
1000
1000
1000
1000
1000
1000
1000
1000
1000
1000
1000
1000
1000
1000
1000
1000
1000
1000
1000
1000
1000
1000
1000
1000
1000
1000
1000
1000
1000
1000
1000
1000
1000
1000
1000
1000
1000
1000
999.173
999.866
1000
1000
1000
1000
1000
1000
1000
1000
1000
1000
1000
1000
1000
1000
999.93
1000
1000
1000
1000
1000
1000
1000
999.998
1000
1000
1000
1000
1000
1000
1000
999.958
999.968
1000
1000
1000
1000
1000
1000
998.025
999.256
999.999
1000
999.987
999.835
1000
997.077
992.486
994.95
1000
1000
1000
1000
1000
993.439
962.908
986.915
1000
1000
999.999
1000
1000
980.37
972.452
987.943
1000
1000
999.999
1000
1000
972.079
974.487
989.951
1000
1000
999.999
1000
1000
976.108
972.069
987.126
1000
1000
999.999
1000
1000
990.776
964.429
983.478
1000
1000
999.999
1000
1000
992.53
954.892
985.618
999.999
987.867
909.322
922.454
970.714
913.048
912.8
957.641
950.627
984.884
911.304
928.007
973.175
909.556
945.522
952.888
947.878
974.259
922.836
954.71
950.454
902.937
942.308
949.472
943.395
973.136
932.598
958.253
935.014
902.27
946.352
945.619
942.819
970.849
933.876
961.344
941.196
904.283
940.305
945.849
942.379
976.509
914.452
945.002
968.143
891.37
931.907
948.804
945.004
984.435
913.556
926.377
978.791
891.456
937.437
954.572
951.728
1000
1000
1000
1000
1000
1000
1000
1000
1000
1000
1000
1000
1000
1000
1000
1000
1000
1000
1000
1000
1000
1000
1000
1000
1000
1000
1000
1000
1000
1000
1000
1000
1000
1000
1000
1000
1000
1000
1000
1000
1000
1000
1000
1000
1000
1000
1000
1000
1000
1000
1000
1000
1000
1000
1000
1000
1000
1000
1000
1000
1000
1000
1000
1000
1000
1000
1000
1000
1000
1000
1000
1000
1000
1000
1000
1000
1000
1000
1000
1000
1000
1000
1000
1000
1000
1000
1000
1000
1000
1000
1000
1000
1000
1000
1000
1000
1000
1000
1000
1000
1000
1000
1000
1000
1000
1000
1000
1000
1000
1000
1000
1000
1000
1000
1000
1000
1000
1000
1000
1000
1000
1000
1000
1000
1000
1000
1000
1000
1000
1000
1000
1000
1000
1000
1000
1000
1000
1000
1000
1000
1000
1000
1000
1000
1000
1000
1000
1000
1000
1000
1000
1000
1000
1000
1000
1000
1000
1000
1000
1000
1000
1000
1000
1000
1000
1000
1000
1000
1000
1000
1000
1000
1000
1000
1000
1000
1000
1000
1000
1000
1000
1000
1000
1000
1000
1000
1000
1000
1000
1000
1000
1000
1000
1000
1000
1000
1000
1000
1000
1000
1000
1000
1000
1000
1000
1000
1000
1000
1000
1000
1000
1000
1000
1000
1000
1000
1000
1000
1000
1000
1000
1000
1000
1000
1000
999.999
1000
1000
999.574
996.642
998.904
1000
1000
1000
1000
1000
1000
995.983
998.683
1000
1000
1000
1000
1000
1000
996.137
998.87
1000
999.999
1000
1000
1000
1000
996.931
999.129
1000
999.999
1000
1000
1000
999.971
997.365
999.268
1000
999.999
1000
1000
1000
999.805
997.641
999.317
1000
999.999
1000
1000
1000
999.705
997.958
999.456
1000
986.165
931.032
940.53
976.901
937.831
909.716
957.652
961.046
987.63
961.399
944.068
960.298
945.965
917.169
953.639
963.475
972.673
959.194
965.188
964.277
942.186
921.829
952.458
964.937
965.211
967.739
972.544
961.85
938.087
922.964
951.72
966.053
964.143
969.687
974.25
961.205
935.406
922.177
951.492
966.87
961.027
969.384
975.516
962.376
931.6
920.117
950.839
967.161
954.316
967.01
977.138
965.51
928.699
920.33
950.667
967.096
1000
1000
1000
1000
1000
1000
1000
1000
1000
1000
1000
1000
1000
1000
1000
1000
1000
1000
1000
1000
1000
1000
1000
1000
1000
1000
1000
1000
1000
1000
1000
1000
1000
1000
1000
1000
1000
1000
1000
1000
1000
1000
1000
1000
1000
1000
1000
1000
1000
1000
1000
1000
1000
1000
1000
1000
1000
1000
1000
1000
1000
1000
1000
1000
1000
1000
1000
1000
1000
1000
1000
1000
1000
1000
1000
1000
1000
1000
1000
1000
1000
1000
1000
1000
1000
1000
1000
1000
1000
1000
1000
1000
1000
1000
1000
1000
1000
1000
1000
1000
1000
1000
1000
1000
1000
1000
1000
1000
1000
1000
1000
1000
1000
1000
1000
1000
1000
1000
1000
1000
1000
1000
1000
1000
1000
1000
1000
1000
1000
1000
1000
1000
1000
1000
1000
1000
1000
1000
1000
1000
1000
1000
1000
1000
1000
1000
1000
1000
1000
1000
1000
1000
1000
1000
1000
1000
1000
1000
1000
1000
1000
1000
1000
1000
1000
1000
1000
1000
1000
1000
1000
1000
1000
1000
1000
1000
1000
1000
1000
1000
1000
1000
1000
1000
1000
1000
1000
1000
1000
1000
1000
1000
1000
1000
1000
1000
1000
1000
1000
1000
1000
1000
1000
1000
1000
1000
1000
1000
1000
1000
1000
1000
1000
1000
1000
1000
1000
1000
1000
1000
1000
1000
1000
1000
999.999
1000
1000
1000
999.377
997.609
999.395
1000
999.999
1000
1000
1000
998.947
996.66
999.197
1000
1000
1000
1000
1000
998.491
994.338
998.131
1000
1000
999.999
999.988
1000
997.136
995.286
998.643
1000
1000
1000
1000
1000
997.151
995.22
998.355
1000
1000
1000
1000
1000
995.435
986.599
995.553
1000
1000
999.999
999.893
1000
996.205
991.146
996.569
1000
951.72
963.956
976.794
965.6
923.466
920.488
949.991
966.159
957.812
963.147
970.321
959.327
921.446
921.424
950.151
964.429
978.292
952.817
933.051
954.857
929.569
912.888
952.063
962.218
982.964
930.639
929.647
967.765
919.166
910.392
957.671
958.712
982.274
924.95
931.841
973.803
916.969
917.081
959.156
956.304
983.393
923.982
928.592
975.854
917.897
930.993
957.918
954.573
986.785
915.647
921.908
974.013
917.375
925.84
956.038
953.057
1000
1000
1000
1000
1000
1000
1000
1000
1000
1000
1000
1000
1000
1000
1000
1000
1000
1000
1000
1000
1000
1000
1000
1000
1000
1000
1000
1000
1000
1000
1000
1000
1000
1000
1000
1000
1000
1000
1000
1000
1000
1000
1000
1000
1000
1000
1000
1000
1000
1000
1000
1000
1000
1000
1000
1000
1000
1000
1000
1000
1000
1000
1000
1000
1000
1000
1000
1000
1000
1000
1000
1000
1000
1000
1000
1000
1000
1000
1000
1000
1000
1000
1000
1000
1000
1000
1000
1000
1000
1000
1000
1000
1000
1000
1000
1000
1000
1000
1000
1000
1000
1000
1000
1000
1000
1000
1000
1000
1000
1000
1000
1000
1000
1000
1000
1000
1000
1000
1000
1000
1000
1000
1000
1000
1000
1000
1000
1000
1000
1000
1000
1000
1000
1000
1000
1000
1000
1000
1000
1000
1000
1000
1000
1000
1000
1000
1000
1000
1000
1000
1000
1000
1000
1000
1000
1000
1000
1000
1000
1000
1000
1000
1000
1000
1000
1000
1000
1000
1000
1000
1000
1000
1000
1000
1000
1000
996.53
998.566
999.999
1000
1000
1000
1000
1000
999.784
999.957
1000
1000
1000
1000
1000
1000
1000
1000
1000
1000
1000
1000
1000
1000
1000
1000
1000
1000
1000
1000
1000
1000
1000
1000
1000
1000
1000
1000
1000
1000
1000
1000
1000
1000
1000
1000
1000
1000
1000
1000
1000
1000
999.999
1000
1000
990.699
951.16
984.438
999.998
1000
999.999
1000
1000
987.064
959.576
987.109
1000
1000
999.999
1000
1000
987.033
968.387
990.075
1000
1000
999.999
1000
1000
989.21
975.741
991.629
1000
1000
999.999
1000
1000
990.004
985.363
995.29
1000
1000
999.999
1000
1000
990.708
988.43
996.689
1000
1000
999.999
1000
1000
997.062
994.956
998.385
1000
982.196
917.905
932.868
972.484
891.507
941.777
952.4
951.734
980.705
922.28
940.161
973.891
891.564
926.977
952.463
952.209
983.235
923.885
937.94
978.03
891.785
917.322
955.802
953.205
982.087
928.37
942.665
976.637
895.211
911.329
959.276
953.118
981.768
929.185
944.8
976.518
906.077
904.057
958.139
955.451
978.308
928.985
948.807
980.953
908.58
908.635
957.181
958.068
983.364
929.82
944.851
977.71
926.607
907.379
956.775
959.656
824.27
550.66
527.112
448.364
557.914
847.053
998.9
548.493
311.071
283.582
260.115
296.656
577.173
959.465
522.866
345.564
262.356
283.356
296.639
474.062
906.03
516.988
353.267
353.394
387.06
359.383
551.92
918.308
531.884
327.301
393.041
308.334
432.725
664.572
952.056
761.653
549.516
573.516
498.092
615.881
839.313
993.432
987.284
931.189
900.967
901.23
935.572
987.834
999.964
997.685
937.676
939.153
885.581
907.875
995.085
999.985
955.846
806.548
747.08
654.184
722.169
951.442
999.895
972.138
803.433
717.533
649.493
732.195
950.822
999.813
976.91
879.073
856.2
740.607
791.207
954.804
999.843
943.19
863.791
883.685
810.628
779.499
933.738
999.897
985.798
954.325
984.729
964.516
928.489
995.303
999.98
999.966
999.867
999.835
999.839
999.889
999.975
999.999
641.371
844.449
882.536
912.506
877.41
730.093
512.817
794.062
850.205
903.657
912.506
874.236
726.425
640.305
812.663
795.222
897.559
790.163
773.727
782.183
724.22
818.365
856.007
897.494
757.432
718.189
738.599
690.422
781.727
800.826
831.801
842.842
624.028
567.83
617.816
635.019
676.611
763.765
848.806
688.497
513.471
553.907
505.831
625.49
688.204
712.87
678.663
587.618
527.01
252.403
400.746
547.532
685.193
518.619
292.146
251.271
337.891
631.266
834.493
845.745
692.48
380.021
239.823
362.815
721.044
896.288
787.6
691.681
403.751
225.642
342.264
685.103
869.117
768.543
659.648
371.279
222.421
262.266
465.197
625.749
692.259
486.178
267.468
233.863
256.521
269.545
306.05
371.711
280.722
238.692
240.686
242.775
226.699
224.938
219.354
235.929
228.049
227.852
271.327
301.495
317.598
319.775
298.691
304.453
298.809
268.824
300.733
354.092
353.013
320.309
306.232
264.843
276.362
350.179
371.874
367.088
351.656
307.331
229.841
260.945
345.376
375.409
372.466
361.579
309.89
222.585
240.365
316.241
336.208
333.011
324.785
311.213
249.183
272.877
277.408
267.275
269.599
260.964
302.777
291.544
266.941
211.31
180.127
183.918
186.964
234.588
228.816
1
1
1
1
1
1
1
1
1
1
1
1
1
1
1
1
1
1
1
1
1
1
1
1
1
1
1
1
1
1
1
1
1
1
1
1
1
1
1
1
1
1
1
1
1
1
1
1
1
1
1
1
1
1
1
1
1
1
1
1
1
1
1
1
1
1
1
1
1
1
1
1
1
1
1
1
1
1
1
1
1
1
1
1
1
1
1
1
1
1
1
1
1
1
1
1
1
1
1
1
1
1
1
1
1
1
1
1
1
1
1
1
1
1
1
1
1
1
1
1
1
1
1
1
1
1
1
1
1
1
1
1
1
1
1
1
1
1
1
1
1
1
1
1
1
1
1
1
1
1
1
1
1
1
1
1
1
1
1
1
1
1
1
1
1
1
1
1
1
1
1
1
1
1
1
1
1
1
1
1
1
1
1
1
1
1
1
1
1
1
1
1
1
1
1
1
1
1
1
1
1
1
1
1
1
1
1
1
1
1
1
1
1
1
1
1
1
1
1
1
1
1
1
1
1
1
1
1
1
1
1
1
1
1
1
1
1
1
1
1
1
1
1
1
1
999.998
1000
1000
1000
1000
999.929
999.872
999.81
999.978
999.999
1000
1000
1000
1000
1000
1000
999.958
999.999
1000
1000
1000
1000
1000
1000
999.965
999.999
1000
1000
1000
1000
1000
1000
999.979
999.999
1000
1000
1000
1000
1000
1000
999.996
1000
1000
1000
1000
1000
1000
1000
1000
1000
1000
1000
1000
1000
1000
1000
999.999
1000
1000
1000
1000
1000
999.993
999.991
999.996
1000
1000
1000
1000
1000
1000
1000
999.992
1000
1000
1000
1000
1000
1000
1000
999.994
1000
1000
1000
1000
1000
1000
1000
999.996
1000
1000
1000
1000
1000
1000
1000
999.999
1000
1000
1000
1000
1000
1000
1000
1000
1000
1000
1000
1000
1000
1000
1000.01
526.992
660.294
947.418
1000
1000
999.917
999.454
999.628
599.581
676.631
932.925
1000
1000.01
1000
1000
998.541
618.361
678.842
931.99
1000
1000.02
1000
999.998
996.441
631.066
713.415
960.966
1000
1000
999.833
999.125
991.94
633.673
753.076
981.172
1000
999.948
998.459
998.582
992.414
629.695
828.808
999.297
1000
999.535
991.805
992.649
989.041
697.142
967.322
1000.02
1000
1000
993.91
983.128
981.143
241.019
309.669
636.491
769.458
722.199
621.633
534.509
562.237
233.519
455.998
796.053
813.755
735.299
603.045
623.201
577.841
254.959
529.479
838.105
818.412
699.248
603.857
623.139
523.925
274.659
584.344
852.994
819.636
713.494
589.689
543.406
450.355
313.97
658.446
850.534
799.219
655.077
498.552
518.881
450.011
352.165
704.2
838.519
794.348
653.568
397.566
429.234
415.861
462.93
715.301
766.392
747.165
701.787
536.75
353.901
354.01
262.259
59.665
0.954072
0.999053
0.999979
1
1
1
188.25
42.4009
0.979181
0.999663
0.999994
1
1
1
156.158
57.8026
0.971645
0.999581
0.999994
1
1
1