/*--------------------------------*- C++ -*----------------------------------*\
| =========                 |                                                 |
| \\      /  F ield         | OpenFOAM: The Open Source CFD Toolbox           |
|  \\    /   O peration     | Version:  plus.master.MPPICInterFoam            |
|   \\  /    A nd           | Web:      www.OpenFOAM.com                      |
|    \\/     M anipulation  |                                                 |
\*---------------------------------------------------------------------------*/
FoamFile
{
    version     2.0;
    format      ascii;
    class       volScalarField;
    location    "13";
    object      p;
}
// * * * * * * * * * * * * * * * * * * * * * * * * * * * * * * * * * * * * * //

dimensions      [1 -1 -2 0 0 0 0];

internalField   nonuniform List<scalar> 
11821
(
5676.11
5683.09
5684.11
5685.42
5684.86
5683.44
5674.85
5685.42
5713.78
5711.39
5713.39
5710.9
5712.41
5680.87
5687.06
5712.2
5714.28
5710.79
5713.96
5710.54
5683.19
5687.72
5713.39
5711.63
5712.92
5711.2
5713.74
5684.13
5686.82
5712.11
5714.51
5711.85
5714.08
5711.43
5683.24
5685.3
5714.27
5712.17
5713.14
5712.41
5712.34
5681.61
5676.63
5683.73
5685.67
5687.08
5687.51
5684.7
5674.94
5534.7
5540.39
5544.03
5545.16
5543.16
5538.71
5533.15
5541.01
5551.04
5557.8
5559.82
5555.67
5547.97
5538.49
5546.34
5560.06
5573.4
5574.78
5569.84
5554.76
5542.28
5547.95
5562.22
5576.83
5582.38
5571.59
5557.28
5543.68
5546.68
5560.13
5574.14
5576.73
5570.47
5555.6
5542.45
5541.88
5553.56
5559.41
5562.22
5557.77
5548.25
5538.77
5535.56
5541.77
5545.87
5547.17
5544.75
5539.55
5533.54
5376.89
5377.93
5378.57
5378.53
5378.23
5377.77
5377.21
5377.72
5379.4
5380.84
5380.45
5379.82
5379.35
5378.07
5378.38
5381.39
5388.08
5387.62
5382.52
5380.36
5378.89
5378.12
5379.71
5388.63
5391.48
5382.04
5379.79
5379.15
5378.06
5380.36
5387.2
5387.77
5383.75
5380.19
5379.01
5377.14
5378.93
5379.72
5379.12
5379.04
5378.81
5377.86
5376.44
5377.27
5377.93
5377.84
5377.47
5377.24
5376.77
5206.69
5198.75
5191.52
5189.62
5195.43
5203.6
5211.58
5196.6
5182.17
5169.12
5166.42
5175.93
5192.02
5204.89
5185.83
5167.95
5167.07
5167.36
5165.39
5179.08
5199.17
5180.82
5161.55
5164.97
5168.6
5161.59
5172.23
5196.48
5184.31
5165.67
5165.63
5167.16
5165.48
5175.5
5197.77
5194.1
5178.16
5166.24
5164.25
5170.84
5188.05
5202.88
5204.5
5194.9
5186.22
5183.33
5190.19
5200.18
5209.43
5052.35
5042.63
5034.03
5032.69
5040.19
5049.64
5058.72
5040.54
5022.95
5006.17
5006.98
5018.86
5036.39
5051.03
5028.95
5007.75
5011.59
5014.05
5008.87
5022.79
5044.54
5025.2
5008.79
5014.31
5015.99
5007.37
5014.54
5041.22
5028.87
5010.63
5015.98
5016.94
5012.33
5018.88
5043.04
5039.44
5021.23
5010.3
5010.46
5013.83
5032.23
5048.88
5051.22
5040.22
5030.61
5028.55
5035.5
5046.26
5056.53
5668.54
5664.78
5661.59
5658.51
5655.95
5653.79
5651.96
5650.42
5672.92
5668.48
5663.82
5659.93
5656.85
5654.34
5652.26
5650.53
5674.67
5670.06
5665.13
5660.8
5657.38
5654.63
5652.38
5650.53
5675.37
5671.07
5665.61
5660.89
5657.4
5654.6
5652.31
5650.4
5675.13
5670.3
5665.1
5660.81
5657.36
5654.59
5652.33
5650.47
5673.11
5668.56
5663.94
5660.01
5656.86
5654.31
5652.2
5650.45
5668.87
5665.27
5661.7
5658.57
5655.95
5653.75
5651.89
5650.32
5528.77
5525.64
5523.1
5521.06
5519.43
5518.12
5517.06
5516.21
5531.95
5527.61
5524.35
5521.83
5519.89
5518.37
5517.18
5516.24
5534.29
5529.06
5525.22
5522.34
5520.17
5518.5
5517.21
5516.21
5535.18
5529.62
5525.55
5522.53
5520.26
5518.54
5517.21
5516.18
5534.38
5529.12
5525.23
5522.33
5520.13
5518.45
5517.14
5516.12
5532.07
5527.67
5524.35
5521.79
5519.82
5518.29
5517.08
5516.14
5528.91
5525.7
5523.09
5521
5519.32
5517.98
5516.9
5516.03
5377.05
5376.9
5376.89
5376.95
5377.08
5377.24
5377.44
5377.7
5377.3
5377.01
5376.9
5376.92
5377.02
5377.18
5377.4
5377.68
5377.61
5377.04
5376.82
5376.8
5376.91
5377.08
5377.32
5377.62
5377.72
5377.03
5376.75
5376.71
5376.81
5377
5377.24
5377.55
5377.56
5376.91
5376.66
5376.63
5376.73
5376.91
5377.14
5377.43
5376.98
5376.65
5376.55
5376.58
5376.7
5376.87
5377.07
5377.32
5376.5
5376.32
5376.32
5376.41
5376.55
5376.73
5376.93
5377.17
5217.86
5222.11
5225.75
5228.9
5231.7
5234.31
5236.86
5239.43
5213.62
5219.46
5224
5227.7
5230.87
5233.76
5236.55
5239.36
5210.24
5217.28
5222.57
5226.76
5230.24
5233.35
5236.32
5239.27
5208.61
5216.23
5221.88
5226.29
5229.92
5233.13
5236.18
5239.19
5209.41
5216.69
5222.1
5226.38
5229.94
5233.11
5236.13
5239.14
5212.22
5218.36
5223.11
5226.97
5230.27
5233.26
5236.15
5239.04
5216.18
5220.64
5224.49
5227.82
5230.77
5233.51
5236.18
5238.85
5065.73
5070.37
5074.12
5077.1
5079.38
5080.76
5081.19
5082.41
5061.06
5067.57
5072.41
5076.08
5078.83
5080.54
5081.09
5082.29
5057.23
5065.22
5071
5075.28
5078.41
5080.36
5081.01
5082.19
5055.33
5064.05
5070.28
5074.85
5078.17
5080.24
5080.94
5082.14
5056.33
5064.54
5070.48
5074.88
5078.11
5080.14
5080.85
5082.07
5059.6
5066.42
5071.52
5075.4
5078.33
5080.17
5080.83
5082.08
5063.97
5068.87
5072.91
5076.15
5078.65
5080.22
5080.8
5082.1
5670.84
5666.57
5662.76
5659.42
5656.61
5654.24
5652.25
5650.56
5675.62
5669.67
5664.99
5660.71
5657.4
5654.68
5652.4
5650.48
5677.64
5671.37
5666.38
5661.53
5657.97
5655.02
5652.57
5650.54
5678.41
5672.06
5666.69
5661.82
5658.16
5655.16
5652.69
5650.67
5677.63
5671.08
5666.12
5661.32
5657.75
5654.81
5652.38
5650.36
5675.61
5669.66
5664.62
5660.27
5657.07
5654.39
5652.16
5650.3
5670.54
5666.28
5662.44
5659.16
5656.43
5654.13
5652.19
5650.56
5530.55
5526.9
5523.96
5521.59
5519.7
5518.18
5516.96
5515.98
5534.37
5529.26
5525.45
5522.5
5520.22
5518.44
5517.02
5515.9
5537.32
5531.12
5526.66
5523.3
5520.76
5518.8
5517.26
5516.04
5538.18
5531.68
5527.01
5523.52
5520.9
5518.89
5517.33
5516.09
5536.97
5530.79
5526.37
5523.05
5520.53
5518.59
5517.07
5515.87
5533.81
5528.81
5525.12
5522.25
5520.03
5518.29
5516.91
5515.81
5529.97
5526.46
5523.63
5521.34
5519.51
5518.05
5516.86
5515.91
5376.08
5375.82
5375.75
5375.81
5375.95
5376.13
5376.34
5376.59
5376.26
5375.83
5375.65
5375.65
5375.76
5375.96
5376.19
5376.48
5376.76
5376.07
5375.76
5375.7
5375.77
5375.95
5376.19
5376.49
5376.81
5376.07
5375.77
5375.71
5375.79
5375.96
5376.21
5376.52
5376.83
5376.03
5375.7
5375.63
5375.7
5375.87
5376.11
5376.4
5376.57
5376.02
5375.79
5375.74
5375.82
5375.98
5376.2
5376.47
5376.4
5376.09
5375.98
5376
5376.11
5376.27
5376.45
5376.69
5211.98
5217.21
5221.61
5225.41
5228.73
5231.75
5234.62
5237.44
5205.79
5213.33
5218.96
5223.48
5227.31
5230.7
5233.88
5236.97
5200.63
5210.34
5217.13
5222.26
5226.48
5230.16
5233.57
5236.85
5198.64
5209.26
5216.56
5221.94
5226.27
5230.03
5233.48
5236.76
5201.33
5210.72
5217.37
5222.43
5226.59
5230.23
5233.6
5236.83
5207.14
5214.23
5219.61
5223.96
5227.65
5230.94
5234.03
5237.06
5213.46
5218.41
5222.58
5226.17
5229.33
5232.22
5234.99
5237.74
5059.55
5065.45
5070.27
5074.19
5077.25
5079.29
5080.3
5082
5052.64
5061.16
5067.4
5072.24
5075.98
5078.51
5079.81
5081.69
5046.64
5057.65
5065.18
5070.74
5074.97
5077.83
5079.38
5081.58
5044.32
5056.31
5064.42
5070.21
5074.57
5077.55
5079.17
5081.59
5046.81
5057.75
5065.26
5070.76
5074.95
5077.79
5079.29
5081.49
5053.21
5061.57
5067.71
5072.45
5076.07
5078.51
5079.74
5081.6
5060.38
5066.15
5070.8
5074.53
5077.42
5079.32
5080.22
5081.84
5670.01
5665.96
5662.26
5659.01
5656.29
5653.99
5652.04
5650.38
5674.12
5668.74
5664.22
5660.28
5657.16
5654.53
5652.32
5650.51
5675.82
5670.95
5665.55
5661.03
5657.65
5654.82
5652.49
5650.55
5676.89
5671.1
5665.69
5661.22
5657.69
5654.8
5652.43
5650.47
5676.23
5670.32
5665.41
5660.88
5657.43
5654.62
5652.32
5650.41
5674.15
5668.42
5663.99
5660.04
5656.91
5654.34
5652.2
5650.39
5669.11
5665.06
5661.69
5658.62
5656.04
5653.86
5652.02
5650.47
5529.79
5526.36
5523.56
5521.31
5519.51
5518.07
5516.91
5515.98
5533.19
5528.47
5524.91
5522.18
5520.07
5518.42
5517.11
5516.08
5535.47
5529.91
5525.81
5522.73
5520.41
5518.62
5517.23
5516.13
5536.15
5530.28
5526.01
5522.82
5520.43
5518.6
5517.18
5516.06
5534.96
5529.49
5525.51
5522.5
5520.23
5518.48
5517.11
5516.03
5532.25
5527.81
5524.48
5521.89
5519.89
5518.33
5517.09
5516.12
5528.87
5525.71
5523.15
5521.09
5519.43
5518.1
5517.03
5516.17
5376.42
5376.13
5376.04
5376.09
5376.22
5376.39
5376.59
5376.84
5376.83
5376.37
5376.18
5376.17
5376.28
5376.45
5376.68
5376.97
5377.14
5376.5
5376.23
5376.19
5376.3
5376.5
5376.77
5377.1
5377.18
5376.53
5376.26
5376.21
5376.32
5376.51
5376.77
5377.1
5377.12
5376.59
5376.39
5376.38
5376.5
5376.7
5376.95
5377.27
5377
5376.72
5376.63
5376.66
5376.77
5376.95
5377.18
5377.46
5377.01
5376.86
5376.85
5376.91
5377.03
5377.19
5377.39
5377.65
5213.91
5218.7
5222.83
5226.41
5229.57
5232.47
5235.26
5238.02
5209.23
5215.98
5221.12
5225.3
5228.88
5232.08
5235.12
5238.11
5205.36
5213.79
5219.81
5224.5
5228.39
5231.81
5235.03
5238.17
5204.61
5213.49
5219.73
5224.52
5228.46
5231.92
5235.15
5238.32
5207.57
5215.27
5220.96
5225.43
5229.14
5232.42
5235.52
5238.58
5212.36
5218.45
5223.17
5227.02
5230.3
5233.27
5236.12
5238.97
5217.63
5221.94
5225.6
5228.75
5231.56
5234.18
5236.74
5239.32
5060.62
5066.23
5070.86
5074.59
5077.49
5079.39
5080.27
5081.83
5055.24
5063.16
5069.04
5073.55
5076.98
5079.23
5080.24
5081.8
5050.9
5060.8
5067.68
5072.77
5076.57
5079.04
5080.13
5081.71
5050.35
5060.68
5067.72
5072.88
5076.7
5079.16
5080.23
5081.79
5054.07
5062.86
5069.18
5073.88
5077.35
5079.57
5080.46
5081.87
5059.67
5066.5
5071.59
5075.47
5078.38
5080.22
5080.89
5082.19
5065.46
5070.18
5073.96
5076.97
5079.27
5080.68
5081.13
5082.37
5669.61
5665.56
5661.96
5658.78
5656.12
5653.87
5651.98
5650.4
5675.05
5669.35
5664.57
5660.32
5657.13
5654.48
5652.28
5650.43
5677.58
5670.86
5666.07
5661.15
5657.66
5654.76
5652.37
5650.4
5678.17
5671.7
5666.36
5661.65
5658.03
5655.04
5652.59
5650.59
5677.02
5671.28
5666.2
5661.58
5657.95
5655.03
5652.62
5650.62
5674.99
5669.67
5664.82
5660.73
5657.47
5654.75
5652.47
5650.56
5670.63
5666.5
5662.72
5659.4
5656.61
5654.25
5652.25
5650.56
5529.15
5525.87
5523.21
5521.06
5519.33
5517.95
5516.84
5515.95
5532.84
5528.15
5524.66
5521.94
5519.84
5518.18
5516.87
5515.83
5535.98
5530.09
5525.89
5522.71
5520.3
5518.44
5516.98
5515.83
5537.41
5531.11
5526.58
5523.21
5520.68
5518.75
5517.24
5516.04
5536.71
5530.76
5526.42
5523.18
5520.71
5518.8
5517.31
5516.12
5534.19
5529.2
5525.44
5522.54
5520.28
5518.51
5517.11
5515.99
5530.5
5526.88
5523.95
5521.59
5519.7
5518.19
5516.97
5515.99
5376.43
5376.27
5376.24
5376.3
5376.41
5376.57
5376.76
5376.99
5376.36
5376.02
5375.9
5375.92
5376.04
5376.22
5376.45
5376.73
5376.42
5375.89
5375.7
5375.7
5375.83
5376.03
5376.29
5376.6
5376.54
5375.94
5375.74
5375.74
5375.86
5376.06
5376.33
5376.66
5376.62
5376.05
5375.84
5375.82
5375.94
5376.13
5376.38
5376.7
5376.39
5375.99
5375.81
5375.81
5375.92
5376.11
5376.35
5376.64
5376.09
5375.83
5375.77
5375.84
5375.99
5376.17
5376.39
5376.64
5215.63
5220.28
5224.18
5227.51
5230.46
5233.19
5235.84
5238.51
5209.51
5216.07
5221.13
5225.24
5228.74
5231.87
5234.85
5237.81
5203.86
5212.47
5218.69
5223.51
5227.51
5231.02
5234.29
5237.46
5200.45
5210.59
5217.56
5222.75
5226.97
5230.65
5234.03
5237.27
5201.88
5211.32
5217.92
5222.93
5227.06
5230.69
5234.06
5237.31
5206.53
5213.94
5219.47
5223.93
5227.71
5231.08
5234.24
5237.31
5212.11
5217.29
5221.7
5225.49
5228.82
5231.84
5234.71
5237.53
5063.55
5068.65
5072.71
5075.95
5078.47
5080.07
5080.71
5082.1
5056.88
5064.24
5069.74
5073.96
5077.19
5079.32
5080.27
5081.87
5050.67
5060.26
5067.03
5072.14
5075.97
5078.51
5079.75
5081.67
5046.87
5058.2
5065.78
5071.27
5075.4
5078.17
5079.61
5081.8
5048.2
5058.85
5066.12
5071.49
5075.55
5078.3
5079.7
5081.72
5053.41
5061.78
5067.91
5072.67
5076.34
5078.81
5080.04
5081.84
5059.66
5065.52
5070.33
5074.24
5077.29
5079.32
5080.32
5082.01
5649.14
5649.18
5649.14
5649
5649.07
5649.1
5649.02
5515.55
5515.57
5515.53
5515.49
5515.42
5515.47
5515.35
5378.04
5378.04
5378.01
5377.95
5377.79
5377.65
5377.5
5241.88
5241.91
5241.89
5241.84
5241.81
5241.65
5241.37
5088.44
5088.6
5088.67
5088.67
5088.55
5088.39
5088.17
5649.15
5648.97
5649
5649.16
5648.81
5648.82
5649.18
5515.2
5515.05
5515.15
5515.2
5515
5514.99
5515.16
5376.91
5376.83
5376.83
5376.87
5376.74
5376.8
5376.99
5240.05
5239.73
5239.68
5239.52
5239.64
5239.81
5240.32
5088.26
5088.39
5088.97
5089.58
5088.95
5088.35
5088.09
5649.01
5649.09
5649.07
5649.01
5648.95
5648.99
5649.18
5515.25
5515.33
5515.34
5515.27
5515.27
5515.41
5515.51
5377.15
5377.33
5377.51
5377.51
5377.66
5377.83
5378
5240.6
5240.78
5240.94
5241.11
5241.29
5241.56
5241.77
5088.04
5088.29
5088.44
5088.6
5088.52
5088.55
5088.42
5649.07
5648.98
5648.89
5649.1
5649.11
5649.08
5649.14
5515.26
5515.05
5515
5515.19
5515.26
5515.15
5515.21
5377.31
5377.09
5376.97
5377.02
5377.06
5377
5376.95
5241.05
5240.52
5240.24
5240.03
5240.12
5240.04
5240.14
5088.23
5088.48
5088.93
5089.52
5088.92
5088.48
5088.27
5647.26
5645.3
5643.89
5642.85
5642.06
5641.47
5641.01
5640.64
5647.29
5645.37
5643.95
5642.89
5642.09
5641.49
5641.02
5640.64
5647.26
5645.35
5643.93
5642.87
5642.08
5641.48
5641.01
5640.64
5647.21
5645.33
5643.9
5642.86
5642.08
5641.46
5641
5640.63
5647.2
5645.27
5643.85
5642.81
5642.03
5641.44
5640.99
5640.62
5647.21
5645.27
5643.84
5642.79
5642.01
5641.42
5640.97
5640.6
5647.08
5645.11
5643.7
5642.68
5641.92
5641.35
5640.9
5640.55
5514.62
5513.51
5512.66
5512
5511.51
5511.13
5510.84
5510.6
5514.67
5513.56
5512.7
5512.04
5511.55
5511.17
5510.87
5510.63
5514.65
5513.55
5512.69
5512.03
5511.54
5511.16
5510.87
5510.63
5514.61
5513.53
5512.68
5512.03
5511.53
5511.15
5510.86
5510.62
5514.49
5513.41
5512.57
5511.94
5511.47
5511.1
5510.82
5510.59
5514.48
5513.36
5512.51
5511.88
5511.41
5511.05
5510.78
5510.55
5514.35
5513.22
5512.38
5511.75
5511.29
5510.94
5510.67
5510.45
5378.6
5379.18
5379.65
5379.99
5380.21
5380.33
5380.38
5380.38
5378.59
5379.19
5379.68
5380.02
5380.23
5380.35
5380.41
5380.41
5378.57
5379.18
5379.67
5380.01
5380.23
5380.35
5380.41
5380.41
5378.53
5379.13
5379.62
5379.98
5380.21
5380.34
5380.4
5380.4
5378.31
5379.02
5379.55
5379.92
5380.16
5380.29
5380.36
5380.37
5378.25
5378.95
5379.48
5379.86
5380.1
5380.23
5380.3
5380.31
5378.11
5378.8
5379.33
5379.71
5379.95
5380.1
5380.18
5380.2
5244.92
5246.71
5247.94
5248.77
5249.34
5249.72
5249.98
5250.15
5244.95
5246.74
5247.96
5248.8
5249.36
5249.75
5250.01
5250.18
5244.91
5246.72
5247.94
5248.78
5249.35
5249.74
5250.01
5250.18
5244.87
5246.68
5247.91
5248.76
5249.33
5249.73
5249.99
5250.17
5244.94
5246.65
5247.86
5248.7
5249.28
5249.67
5249.95
5250.13
5244.77
5246.53
5247.77
5248.62
5249.2
5249.61
5249.89
5250.07
5244.53
5246.35
5247.61
5248.48
5249.08
5249.49
5249.77
5249.96
5101.52
5109.99
5114.3
5116.73
5118.18
5119.08
5119.66
5120.03
5101.58
5110.03
5114.33
5116.75
5118.2
5119.1
5119.68
5120.05
5101.59
5110.02
5114.32
5116.75
5118.2
5119.1
5119.68
5120.05
5101.56
5109.99
5114.29
5116.72
5118.17
5119.08
5119.67
5120.04
5101.49
5109.93
5114.24
5116.67
5118.13
5119.04
5119.62
5120
5101.41
5109.86
5114.18
5116.61
5118.07
5118.98
5119.57
5119.94
5101.31
5109.77
5114.09
5116.52
5117.98
5118.89
5119.47
5119.85
5647.05
5644.96
5643.44
5642.33
5641.52
5640.93
5640.48
5640.14
5646.87
5644.8
5643.29
5642.16
5641.33
5640.72
5640.26
5639.9
5646.91
5644.79
5643.22
5642.07
5641.21
5640.57
5640.1
5639.74
5647.15
5645.04
5643.47
5642.28
5641.39
5640.73
5640.24
5639.88
5646.73
5644.65
5643.11
5641.99
5641.16
5640.54
5640.08
5639.73
5646.83
5644.82
5643.29
5642.17
5641.35
5640.75
5640.29
5639.93
5647.16
5645.06
5643.54
5642.43
5641.61
5641
5640.55
5640.2
5514.04
5512.81
5511.9
5511.23
5510.75
5510.4
5510.14
5509.94
5513.91
5512.77
5511.86
5511.17
5510.66
5510.28
5510
5509.79
5513.96
5512.74
5511.83
5511.14
5510.62
5510.22
5509.92
5509.69
5514.03
5512.8
5511.89
5511.2
5510.67
5510.28
5509.99
5509.78
5513.85
5512.65
5511.76
5511.08
5510.57
5510.19
5509.9
5509.68
5513.89
5512.8
5511.88
5511.2
5510.69
5510.32
5510.04
5509.83
5514.06
5512.89
5512
5511.34
5510.86
5510.51
5510.24
5510.04
5377.49
5378.16
5378.69
5379.07
5379.34
5379.5
5379.6
5379.64
5377.4
5377.95
5378.46
5378.85
5379.13
5379.31
5379.42
5379.48
5377.4
5378.01
5378.52
5378.9
5379.13
5379.28
5379.37
5379.41
5377.43
5378.04
5378.52
5378.88
5379.11
5379.27
5379.37
5379.43
5377.29
5377.9
5378.4
5378.77
5379.02
5379.19
5379.3
5379.36
5377.35
5377.87
5378.42
5378.84
5379.13
5379.32
5379.44
5379.5
5377.51
5378.21
5378.76
5379.17
5379.44
5379.61
5379.71
5379.75
5243.34
5245.38
5246.78
5247.75
5248.41
5248.86
5249.17
5249.38
5243.05
5245.16
5246.59
5247.58
5248.25
5248.71
5249.03
5249.24
5243.19
5245.37
5246.78
5247.72
5248.39
5248.83
5249.13
5249.32
5242.93
5245.24
5246.72
5247.69
5248.34
5248.77
5249.05
5249.25
5243.16
5245.35
5246.77
5247.72
5248.38
5248.82
5249.11
5249.3
5243.15
5245.28
5246.7
5247.68
5248.34
5248.79
5249.1
5249.31
5243.62
5245.58
5246.95
5247.9
5248.55
5249
5249.31
5249.51
5101.15
5109.37
5113.59
5115.99
5117.43
5118.34
5118.93
5119.32
5101.21
5109.39
5113.59
5115.95
5117.38
5118.28
5118.86
5119.23
5101.56
5109.6
5113.74
5116.06
5117.47
5118.35
5118.93
5119.31
5102.1
5109.96
5114.01
5116.28
5117.64
5118.48
5119.01
5119.34
5101.56
5109.65
5113.8
5116.13
5117.53
5118.4
5118.96
5119.31
5101.24
5109.47
5113.69
5116.06
5117.48
5118.37
5118.94
5119.31
5101.1
5109.43
5113.7
5116.11
5117.56
5118.47
5119.06
5119.44
5646.96
5644.94
5643.49
5642.43
5641.65
5641.07
5640.63
5640.28
5647.11
5645.09
5643.6
5642.51
5641.7
5641.07
5640.6
5640.24
5647.1
5645.1
5643.62
5642.51
5641.68
5641.05
5640.57
5640.2
5647.06
5645.09
5643.61
5642.49
5641.66
5641.04
5640.56
5640.2
5646.98
5645.02
5643.57
5642.51
5641.71
5641.1
5640.63
5640.26
5647.13
5645.21
5643.77
5642.72
5641.92
5641.31
5640.85
5640.49
5647.28
5645.32
5643.89
5642.83
5642.03
5641.43
5640.97
5640.6
5514.18
5513
5512.11
5511.46
5510.98
5510.63
5510.36
5510.15
5514.33
5513.14
5512.24
5511.56
5511.05
5510.67
5510.38
5510.16
5514.29
5513.18
5512.36
5511.7
5511.18
5510.78
5510.48
5510.24
5514.23
5513.11
5512.26
5511.61
5511.1
5510.71
5510.42
5510.2
5514.27
5513.22
5512.37
5511.7
5511.19
5510.8
5510.51
5510.27
5514.47
5513.36
5512.51
5511.85
5511.35
5510.97
5510.67
5510.44
5514.56
5513.45
5512.59
5511.94
5511.45
5511.08
5510.79
5510.55
5377.74
5378.42
5378.96
5379.35
5379.61
5379.76
5379.85
5379.88
5377.89
5378.54
5379.06
5379.44
5379.68
5379.83
5379.9
5379.92
5378.14
5378.76
5379.22
5379.58
5379.82
5379.96
5380.03
5380.04
5378.16
5378.81
5379.27
5379.6
5379.82
5379.94
5380.01
5380.02
5378.27
5378.81
5379.3
5379.66
5379.89
5380.02
5380.09
5380.1
5378.39
5378.98
5379.46
5379.81
5380.04
5380.16
5380.22
5380.23
5378.56
5379.13
5379.6
5379.94
5380.15
5380.27
5380.33
5380.33
5243.85
5245.79
5247.14
5248.07
5248.7
5249.14
5249.44
5249.64
5243.97
5245.94
5247.28
5248.2
5248.82
5249.25
5249.54
5249.73
5244.16
5246.12
5247.43
5248.33
5248.95
5249.37
5249.66
5249.86
5244.34
5246.29
5247.61
5248.51
5249.11
5249.52
5249.79
5249.97
5244.45
5246.35
5247.64
5248.51
5249.1
5249.5
5249.78
5249.95
5244.65
5246.51
5247.77
5248.63
5249.21
5249.6
5249.86
5250.03
5244.81
5246.63
5247.87
5248.72
5249.29
5249.68
5249.94
5250.11
5101.09
5109.47
5113.77
5116.19
5117.66
5118.57
5119.17
5119.55
5101.22
5109.59
5113.88
5116.3
5117.76
5118.68
5119.27
5119.65
5101.33
5109.7
5113.98
5116.4
5117.86
5118.78
5119.38
5119.77
5101.43
5109.82
5114.11
5116.54
5118
5118.91
5119.51
5119.89
5101.43
5109.83
5114.12
5116.55
5118
5118.91
5119.5
5119.88
5101.51
5109.92
5114.21
5116.63
5118.08
5118.99
5119.57
5119.93
5101.49
5109.95
5114.26
5116.69
5118.14
5119.04
5119.62
5119.99
5647.1
5645.11
5643.65
5642.59
5641.8
5641.22
5640.78
5640.43
5646.96
5644.93
5643.45
5642.36
5641.55
5640.93
5640.47
5640.12
5646.85
5644.78
5643.28
5642.17
5641.36
5640.74
5640.28
5639.93
5647.12
5645.06
5643.53
5642.37
5641.5
5640.85
5640.37
5640.02
5647.07
5644.97
5643.42
5642.26
5641.41
5640.77
5640.29
5639.93
5647.02
5644.93
5643.4
5642.27
5641.45
5640.84
5640.39
5640.04
5647.03
5644.93
5643.42
5642.32
5641.53
5640.95
5640.51
5640.18
5514.22
5513.08
5512.23
5511.59
5511.13
5510.78
5510.52
5510.31
5514
5512.92
5512.05
5511.4
5510.9
5510.53
5510.25
5510.04
5513.9
5512.76
5511.9
5511.25
5510.76
5510.39
5510.12
5509.89
5514.06
5512.88
5512
5511.33
5510.82
5510.44
5510.15
5509.95
5514.11
5512.91
5512
5511.32
5510.81
5510.42
5510.13
5509.9
5514.02
5512.88
5511.97
5511.28
5510.78
5510.4
5510.13
5509.92
5514.07
5512.84
5511.93
5511.27
5510.79
5510.44
5510.18
5509.98
5377.87
5378.58
5379.13
5379.53
5379.79
5379.95
5380.03
5380.06
5377.68
5378.24
5378.76
5379.16
5379.43
5379.61
5379.71
5379.76
5377.56
5378.2
5378.71
5379.07
5379.32
5379.48
5379.57
5379.62
5377.61
5378.23
5378.72
5379.06
5379.29
5379.44
5379.54
5379.61
5377.65
5378.3
5378.82
5379.17
5379.42
5379.57
5379.65
5379.68
5377.57
5378.11
5378.63
5379.01
5379.28
5379.46
5379.56
5379.61
5377.55
5378.21
5378.73
5379.12
5379.38
5379.55
5379.65
5379.69
5244.27
5246.13
5247.43
5248.33
5248.94
5249.36
5249.64
5249.84
5243.8
5245.83
5247.19
5248.11
5248.73
5249.15
5249.43
5249.62
5243.67
5245.79
5247.17
5248.11
5248.73
5249.15
5249.42
5249.6
5243.45
5245.72
5247.16
5248.08
5248.7
5249.11
5249.38
5249.55
5243.55
5245.68
5247.06
5248
5248.64
5249.06
5249.35
5249.54
5243.33
5245.41
5246.82
5247.79
5248.45
5248.9
5249.21
5249.41
5243.42
5245.44
5246.84
5247.8
5248.46
5248.91
5249.22
5249.43
5101.34
5109.75
5114.04
5116.45
5117.9
5118.8
5119.38
5119.75
5101.47
5109.78
5114.02
5116.4
5117.82
5118.7
5119.27
5119.62
5101.71
5109.89
5114.08
5116.42
5117.82
5118.7
5119.26
5119.62
5102.16
5110.13
5114.25
5116.58
5117.96
5118.8
5119.33
5119.66
5101.62
5109.74
5113.9
5116.25
5117.66
5118.54
5119.12
5119.5
5101.31
5109.52
5113.72
5116.1
5117.53
5118.43
5119.02
5119.39
5101.17
5109.41
5113.64
5116.03
5117.48
5118.39
5118.98
5119.36
5640.4
5640.25
5640.12
5640.02
5639.95
5639.9
5639.87
5639.87
5640.4
5640.25
5640.13
5640.04
5639.96
5639.92
5639.89
5639.89
5640.4
5640.25
5640.13
5640.04
5639.97
5639.92
5639.89
5639.89
5640.4
5640.25
5640.13
5640.03
5639.96
5639.91
5639.88
5639.88
5640.39
5640.23
5640.11
5640.01
5639.94
5639.89
5639.86
5639.86
5640.37
5640.21
5640.09
5639.98
5639.91
5639.86
5639.83
5639.83
5640.31
5640.16
5640.03
5639.93
5639.85
5639.79
5639.76
5639.76
5510.45
5510.35
5510.27
5510.21
5510.16
5510.12
5510.1
5510.1
5510.48
5510.38
5510.3
5510.24
5510.19
5510.16
5510.14
5510.13
5510.48
5510.38
5510.3
5510.24
5510.19
5510.16
5510.14
5510.14
5510.47
5510.38
5510.3
5510.23
5510.18
5510.15
5510.13
5510.13
5510.44
5510.35
5510.27
5510.2
5510.15
5510.12
5510.1
5510.09
5510.4
5510.31
5510.23
5510.16
5510.11
5510.07
5510.05
5510.05
5510.31
5510.22
5510.15
5510.08
5510.04
5510
5509.98
5509.97
5380.37
5380.36
5380.35
5380.34
5380.33
5380.33
5380.32
5380.32
5380.4
5380.39
5380.38
5380.37
5380.36
5380.35
5380.35
5380.34
5380.4
5380.39
5380.38
5380.37
5380.36
5380.36
5380.35
5380.35
5380.39
5380.38
5380.37
5380.36
5380.35
5380.35
5380.34
5380.33
5380.36
5380.35
5380.34
5380.33
5380.32
5380.31
5380.31
5380.3
5380.31
5380.3
5380.29
5380.28
5380.28
5380.27
5380.26
5380.26
5380.2
5380.2
5380.2
5380.2
5380.19
5380.19
5380.19
5380.18
5250.25
5250.31
5250.36
5250.39
5250.42
5250.43
5250.44
5250.44
5250.28
5250.34
5250.39
5250.43
5250.45
5250.47
5250.48
5250.48
5250.28
5250.35
5250.39
5250.43
5250.46
5250.47
5250.48
5250.48
5250.27
5250.34
5250.38
5250.42
5250.45
5250.46
5250.47
5250.47
5250.23
5250.29
5250.34
5250.38
5250.4
5250.42
5250.43
5250.43
5250.17
5250.24
5250.29
5250.32
5250.35
5250.37
5250.38
5250.38
5250.07
5250.13
5250.18
5250.22
5250.25
5250.27
5250.28
5250.28
5120.23
5120.35
5120.44
5120.5
5120.55
5120.58
5120.6
5120.6
5120.25
5120.38
5120.47
5120.54
5120.59
5120.62
5120.64
5120.64
5120.25
5120.38
5120.47
5120.54
5120.59
5120.62
5120.64
5120.65
5120.24
5120.37
5120.46
5120.53
5120.58
5120.61
5120.63
5120.63
5120.2
5120.32
5120.42
5120.49
5120.54
5120.57
5120.59
5120.59
5120.14
5120.27
5120.36
5120.43
5120.48
5120.51
5120.53
5120.53
5120.05
5120.17
5120.26
5120.33
5120.38
5120.41
5120.43
5120.44
5639.93
5639.79
5639.67
5639.57
5639.49
5639.42
5639.38
5639.37
5639.69
5639.55
5639.44
5639.35
5639.28
5639.24
5639.21
5639.21
5639.53
5639.4
5639.3
5639.22
5639.17
5639.14
5639.12
5639.12
5639.67
5639.54
5639.45
5639.37
5639.33
5639.29
5639.27
5639.28
5639.52
5639.4
5639.3
5639.22
5639.17
5639.14
5639.12
5639.12
5639.71
5639.57
5639.46
5639.37
5639.3
5639.26
5639.23
5639.23
5639.98
5639.84
5639.72
5639.61
5639.53
5639.47
5639.44
5639.43
5509.81
5509.74
5509.67
5509.62
5509.58
5509.54
5509.52
5509.51
5509.66
5509.59
5509.53
5509.48
5509.44
5509.41
5509.39
5509.39
5509.56
5509.48
5509.42
5509.37
5509.34
5509.33
5509.32
5509.33
5509.66
5509.58
5509.53
5509.48
5509.45
5509.43
5509.43
5509.43
5509.55
5509.47
5509.41
5509.36
5509.33
5509.32
5509.31
5509.32
5509.7
5509.62
5509.56
5509.51
5509.47
5509.45
5509.43
5509.43
5509.91
5509.83
5509.76
5509.71
5509.66
5509.63
5509.61
5509.6
5379.65
5379.66
5379.66
5379.66
5379.66
5379.66
5379.66
5379.66
5379.51
5379.52
5379.54
5379.54
5379.55
5379.55
5379.55
5379.55
5379.42
5379.43
5379.43
5379.43
5379.43
5379.43
5379.43
5379.44
5379.46
5379.48
5379.49
5379.51
5379.52
5379.53
5379.53
5379.53
5379.38
5379.39
5379.4
5379.4
5379.4
5379.4
5379.4
5379.41
5379.53
5379.55
5379.56
5379.57
5379.58
5379.58
5379.58
5379.59
5379.76
5379.77
5379.77
5379.77
5379.77
5379.77
5379.77
5379.77
5249.5
5249.58
5249.63
5249.67
5249.7
5249.72
5249.74
5249.74
5249.36
5249.44
5249.5
5249.55
5249.58
5249.61
5249.62
5249.63
5249.42
5249.48
5249.52
5249.55
5249.57
5249.58
5249.59
5249.59
5249.35
5249.42
5249.48
5249.52
5249.55
5249.58
5249.6
5249.61
5249.4
5249.46
5249.5
5249.54
5249.56
5249.57
5249.58
5249.58
5249.42
5249.49
5249.54
5249.58
5249.61
5249.63
5249.65
5249.66
5249.63
5249.7
5249.76
5249.8
5249.83
5249.85
5249.86
5249.86
5119.52
5119.65
5119.74
5119.81
5119.86
5119.89
5119.91
5119.92
5119.43
5119.54
5119.63
5119.7
5119.75
5119.78
5119.8
5119.81
5119.51
5119.63
5119.71
5119.77
5119.8
5119.82
5119.83
5119.83
5119.5
5119.6
5119.67
5119.72
5119.75
5119.78
5119.79
5119.81
5119.51
5119.62
5119.71
5119.77
5119.81
5119.83
5119.84
5119.84
5119.5
5119.62
5119.7
5119.76
5119.81
5119.84
5119.86
5119.87
5119.65
5119.77
5119.86
5119.93
5119.98
5120.02
5120.04
5120.04
5640.06
5639.92
5639.79
5639.69
5639.61
5639.55
5639.52
5639.51
5640.01
5639.87
5639.75
5639.65
5639.58
5639.53
5639.5
5639.5
5639.97
5639.84
5639.73
5639.65
5639.59
5639.55
5639.53
5639.52
5640
5639.87
5639.77
5639.7
5639.65
5639.61
5639.59
5639.59
5640.04
5639.9
5639.8
5639.72
5639.66
5639.63
5639.6
5639.61
5640.25
5640.1
5639.98
5639.88
5639.81
5639.75
5639.73
5639.72
5640.37
5640.21
5640.09
5639.99
5639.91
5639.86
5639.83
5639.83
5510.02
5509.94
5509.87
5509.81
5509.77
5509.73
5509.71
5509.7
5510.02
5509.94
5509.87
5509.82
5509.78
5509.75
5509.73
5509.73
5510.09
5510
5509.93
5509.88
5509.84
5509.82
5509.8
5509.8
5510.06
5509.98
5509.92
5509.88
5509.85
5509.83
5509.82
5509.82
5510.13
5510.05
5509.98
5509.92
5509.88
5509.86
5509.85
5509.85
5510.29
5510.2
5510.12
5510.06
5510.01
5509.98
5509.96
5509.96
5510.4
5510.31
5510.23
5510.17
5510.12
5510.08
5510.06
5510.05
5379.89
5379.9
5379.9
5379.9
5379.9
5379.9
5379.9
5379.89
5379.92
5379.92
5379.92
5379.92
5379.91
5379.91
5379.91
5379.91
5380.04
5380.04
5380.03
5380.02
5380.01
5380
5379.99
5379.99
5380.02
5380.02
5380.02
5380.01
5380.01
5380
5380
5380.01
5380.09
5380.09
5380.08
5380.07
5380.06
5380.05
5380.04
5380.04
5380.22
5380.21
5380.2
5380.18
5380.17
5380.17
5380.16
5380.16
5380.32
5380.31
5380.3
5380.29
5380.28
5380.27
5380.27
5380.27
5249.75
5249.82
5249.88
5249.92
5249.95
5249.97
5249.98
5249.98
5249.83
5249.9
5249.94
5249.98
5250
5250.02
5250.02
5250.03
5249.97
5250.04
5250.09
5250.13
5250.15
5250.16
5250.17
5250.17
5250.05
5250.1
5250.14
5250.16
5250.17
5250.18
5250.18
5250.18
5250.05
5250.11
5250.15
5250.18
5250.19
5250.2
5250.21
5250.21
5250.12
5250.18
5250.22
5250.25
5250.27
5250.28
5250.29
5250.29
5250.2
5250.26
5250.31
5250.34
5250.36
5250.38
5250.38
5250.39
5119.76
5119.88
5119.98
5120.05
5120.1
5120.13
5120.15
5120.16
5119.85
5119.97
5120.07
5120.14
5120.18
5120.21
5120.23
5120.24
5119.98
5120.11
5120.21
5120.28
5120.33
5120.37
5120.38
5120.39
5120.1
5120.22
5120.31
5120.37
5120.41
5120.43
5120.44
5120.44
5120.08
5120.2
5120.3
5120.36
5120.41
5120.44
5120.45
5120.46
5120.13
5120.25
5120.34
5120.4
5120.44
5120.47
5120.49
5120.49
5120.19
5120.3
5120.39
5120.46
5120.51
5120.54
5120.55
5120.56
5640.2
5640.06
5639.93
5639.83
5639.75
5639.7
5639.67
5639.67
5639.89
5639.75
5639.64
5639.56
5639.49
5639.46
5639.44
5639.45
5639.72
5639.6
5639.51
5639.44
5639.39
5639.36
5639.34
5639.36
5639.82
5639.7
5639.61
5639.54
5639.49
5639.46
5639.43
5639.44
5639.71
5639.57
5639.47
5639.39
5639.33
5639.29
5639.27
5639.28
5639.82
5639.68
5639.57
5639.47
5639.4
5639.35
5639.32
5639.32
5639.96
5639.82
5639.7
5639.6
5639.52
5639.46
5639.42
5639.41
5510.18
5510.09
5510.02
5509.97
5509.93
5509.9
5509.87
5509.87
5509.91
5509.83
5509.77
5509.72
5509.68
5509.66
5509.65
5509.66
5509.76
5509.68
5509.63
5509.59
5509.56
5509.55
5509.55
5509.57
5509.83
5509.76
5509.7
5509.66
5509.64
5509.62
5509.61
5509.61
5509.76
5509.68
5509.61
5509.56
5509.53
5509.5
5509.49
5509.5
5509.8
5509.72
5509.65
5509.6
5509.56
5509.53
5509.51
5509.51
5509.86
5509.78
5509.71
5509.66
5509.61
5509.58
5509.56
5509.55
5380.07
5380.07
5380.07
5380.07
5380.07
5380.07
5380.07
5380.07
5379.78
5379.8
5379.81
5379.82
5379.82
5379.83
5379.83
5379.83
5379.64
5379.66
5379.66
5379.66
5379.66
5379.66
5379.66
5379.67
5379.64
5379.66
5379.68
5379.69
5379.71
5379.72
5379.72
5379.72
5379.68
5379.68
5379.67
5379.66
5379.65
5379.65
5379.64
5379.64
5379.63
5379.64
5379.65
5379.66
5379.66
5379.67
5379.67
5379.67
5379.7
5379.71
5379.71
5379.71
5379.71
5379.71
5379.71
5379.71
5249.95
5250.01
5250.07
5250.1
5250.13
5250.15
5250.16
5250.16
5249.72
5249.79
5249.83
5249.87
5249.89
5249.91
5249.93
5249.93
5249.69
5249.75
5249.79
5249.81
5249.83
5249.84
5249.84
5249.85
5249.64
5249.69
5249.73
5249.76
5249.79
5249.81
5249.82
5249.83
5249.64
5249.71
5249.75
5249.78
5249.8
5249.81
5249.82
5249.82
5249.52
5249.59
5249.64
5249.68
5249.7
5249.72
5249.73
5249.73
5249.55
5249.62
5249.68
5249.72
5249.75
5249.77
5249.78
5249.78
5119.95
5120.08
5120.17
5120.23
5120.28
5120.31
5120.33
5120.34
5119.81