/*--------------------------------*- C++ -*----------------------------------*\
| =========                 |                                                 |
| \\      /  F ield         | OpenFOAM: The Open Source CFD Toolbox           |
|  \\    /   O peration     | Version:  plus.master                           |
|   \\  /    A nd           | Web:      www.OpenFOAM.com                      |
|    \\/     M anipulation  |                                                 |
\*---------------------------------------------------------------------------*/
FoamFile
{
    version     2.0;
    format      ascii;
    class       volVectorField;
    location    "11";
    object      U;
}
// * * * * * * * * * * * * * * * * * * * * * * * * * * * * * * * * * * * * * //

dimensions      [0 1 -1 0 0 0 0];

internalField   nonuniform List<vector> 
47285
(
(0.0517345 0.0796003 -0.00781305)
(0.03858 0.0849233 0.00108892)
(0.00723402 0.0911067 0.0176758)
(-0.0333704 0.0890517 0.0197132)
(-0.0659872 0.0825603 0.00347148)
(-0.0787752 0.0696742 -0.00797945)
(-0.0863847 0.0644882 -0.0128469)
(0.0637654 0.0755874 0.00321403)
(0.0901254 0.126568 0.0550744)
(0.0571498 0.140964 0.110749)
(-0.0525485 0.132143 0.140375)
(-0.132514 0.133756 0.0847422)
(-0.124795 0.100614 0.0304282)
(-0.0954162 0.0551388 -0.0102795)
(0.0762462 0.0549372 0.021189)
(0.135148 0.123239 0.134065)
(0.209996 0.255148 0.489778)
(-0.0603542 0.260243 0.701445)
(-0.258307 0.230224 0.361904)
(-0.136913 0.086838 0.0708519)
(-0.100882 0.0362408 0.000197688)
(0.0841912 0.0131033 0.0366037)
(0.138081 0.0183643 0.170446)
(0.256806 0.0178571 0.702899)
(-0.0259419 0.0163588 2.09154)
(-0.262115 0.0254756 0.553546)
(-0.122632 0.0159279 0.1079)
(-0.0954282 0.00948958 0.0111855)
(0.0846388 -0.0361192 0.0239423)
(0.138356 -0.0951645 0.13054)
(0.238218 -0.244636 0.52981)
(-0.0406722 -0.260159 0.786612)
(-0.249724 -0.196766 0.401601)
(-0.136662 -0.0614278 0.0800946)
(-0.101522 -0.0186377 0.00496335)
(0.0704958 -0.0613684 0.00612345)
(0.102132 -0.114194 0.0652762)
(0.0757849 -0.140386 0.129766)
(-0.0513393 -0.138702 0.172259)
(-0.146457 -0.132984 0.118697)
(-0.131895 -0.0843355 0.0379097)
(-0.0953952 -0.0404055 -0.00734814)
(0.0597168 -0.0713677 -0.00571867)
(0.0468024 -0.0816371 0.00505308)
(0.0152551 -0.0918024 0.0239653)
(-0.0361747 -0.0839128 0.0289324)
(-0.0720671 -0.0731176 0.0110249)
(-0.0856374 -0.0599306 -0.00375601)
(-0.0908388 -0.0521368 -0.0121731)
(0.0231581 0.0495484 0.0127055)
(0.00601669 0.0471185 0.0460564)
(-0.0135333 0.0303584 0.0831037)
(-0.0296778 0.0211271 0.084519)
(-0.0404599 0.0316605 0.0359007)
(-0.0477049 0.037434 0.00862408)
(-0.0516708 0.0323522 0.00310089)
(0.0293527 0.0472674 0.041861)
(0.0215037 0.0602372 0.186913)
(-0.00221489 0.0352514 0.299706)
(-0.0344145 0.0250169 0.36659)
(-0.057058 0.0290917 0.223836)
(-0.0589176 0.0342609 0.101832)
(-0.0548397 0.0213376 0.00399861)
(0.0216936 0.0343479 0.0934169)
(0.0343369 0.0570576 0.368622)
(0.064658 0.081425 1.17909)
(-0.047189 0.0484759 1.74506)
(-0.0891896 0.0764387 0.87321)
(-0.0299639 0.0280021 0.176757)
(-0.0450419 0.012004 0.0205059)
(0.0168871 0.0119396 0.130008)
(0.0310475 0.0128074 0.428307)
(0.0520511 0.021125 1.75267)
(-0.0545234 0.00064728 4.27397)
(-0.0896273 0.0191704 1.38751)
(-0.0198932 0.0114555 0.247207)
(-0.0381495 0.00919224 0.0412006)
(0.0233612 -0.0142155 0.106508)
(0.0341893 -0.0342251 0.363075)
(0.0618169 -0.0685397 1.15107)
(-0.051405 -0.0521881 1.94997)
(-0.0809472 -0.0608335 1.04922)
(-0.0304538 -0.00712231 0.208122)
(-0.0429999 0.00547687 0.0354112)
(0.0361916 -0.031394 0.0505492)
(0.0389391 -0.0529563 0.218086)
(0.012398 -0.0351444 0.358133)
(-0.0337849 -0.0292369 0.450844)
(-0.0676574 -0.02829 0.309348)
(-0.0614508 -0.0149647 0.12406)
(-0.058098 -0.00340742 0.0123627)
(0.0319125 -0.0400384 0.0168364)
(0.0163723 -0.0411326 0.0564311)
(-0.0066023 -0.0232399 0.111021)
(-0.0312387 -0.013602 0.122045)
(-0.0502023 -0.0194662 0.0658435)
(-0.058284 -0.0232849 0.0193299)
(-0.0591293 -0.0177026 0.00203087)
(0.00710136 0.0307272 0.0657651)
(-0.00872799 0.0192689 0.113392)
(-0.0193254 -0.0020942 0.167503)
(-0.020892 -0.013952 0.180727)
(-0.0208262 0.00627601 0.104655)
(-0.0282922 0.0204508 0.0612637)
(-0.0362186 0.0256645 0.0511398)
(-0.000417527 0.0252283 0.114654)
(-0.0156532 0.0135061 0.235991)
(-0.0245002 -0.0136089 0.363067)
(-0.0215673 -0.0283643 0.437701)
(-0.0156086 -0.0126163 0.26241)
(-0.0225239 0.00710541 0.117758)
(-0.0340508 0.0131319 0.0575897)
(-0.0125688 0.0184189 0.191834)
(-0.0228027 0.0119702 0.427981)
(-0.0308256 -0.00799162 1.26416)
(-0.0233315 -0.0495955 2.01853)
(-0.0014791 -0.00365449 0.708322)
(0.00654327 0.00792865 0.2159)
(-0.0235086 0.00520836 0.0766249)
(-0.0207494 0.00967654 0.248704)
(-0.0258832 0.00873153 0.552)
(-0.0583206 0.0176534 2.06045)
(-0.0935502 0.00100627 4.86066)
(-0.0220399 0.0108122 1.34482)
(0.0144716 0.00888188 0.301512)
(-0.0185888 0.00652017 0.0998999)
(-0.0122401 -0.000711035 0.211649)
(-0.0220843 0.00191233 0.445223)
(-0.0365255 0.0209101 1.56)
(-0.0418764 0.0482307 2.02209)
(0.000102492 0.0169546 0.915062)
(0.00970963 0.00915091 0.256251)
(-0.020341 0.0100733 0.0921924)
(0.00567824 -0.0105163 0.132141)
(-0.0075966 -0.00278142 0.281329)
(-0.0173912 0.0194249 0.432441)
(-0.0219144 0.0315304 0.531723)
(-0.0194423 0.022878 0.344383)
(-0.0234938 0.0114576 0.15475)
(-0.0363539 0.00554341 0.0661281)
(0.0132647 -0.0198765 0.0750252)
(-0.00232788 -0.00968184 0.137727)
(-0.0163474 0.0126643 0.211819)
(-0.0237899 0.0256837 0.233885)
(-0.0287015 0.0113028 0.15018)
(-0.0358744 -0.00198312 0.0768901)
(-0.0423816 -0.00961426 0.0527597)
(0.0167885 0.0336914 0.15943)
(-0.00311862 0.0180489 0.20105)
(-0.0155871 -0.00651372 0.256229)
(-0.0115016 -0.0199077 0.268003)
(-0.0105104 0.010165 0.197311)
(-0.0260709 0.0303315 0.16005)
(-0.0419696 0.0404456 0.147255)
(-0.000770242 0.021096 0.206085)
(-0.0213639 0.00266615 0.312032)
(-0.0298913 -0.0248547 0.423133)
(-0.012915 -0.043088 0.479466)
(-0.000817553 -0.0161649 0.323733)
(-0.0182058 0.0101235 0.196853)
(-0.0383728 0.0234121 0.156001)
(-0.0207221 0.0109497 0.289477)
(-0.038106 -0.00539343 0.481198)
(-0.0589979 -0.0351411 0.942281)
(-0.00198429 -0.0735304 1.64099)
(0.0150788 -0.0163392 0.584494)
(0.00632335 0.00386659 0.279991)
(-0.0286501 0.0101773 0.171394)
(-0.0371528 0.00825406 0.357254)
(-0.0524309 0.00594866 0.618014)
(-0.122652 0.0145669 1.99832)
(-0.11231 0.0748713 3.63502)
(-0.000821791 0.00804513 0.930927)
(0.014054 0.00685027 0.350145)
(-0.0243258 0.00482339 0.188043)
(-0.0227479 0.00514096 0.314201)
(-0.038636 0.0177289 0.514726)
(-0.0601431 0.0564872 1.15297)
(-0.00163925 0.1127 1.7328)
(0.015599 0.0311113 0.700715)
(0.0104105 0.0118701 0.31502)
(-0.0261934 0.00319069 0.181488)
(0.000737028 -0.00637868 0.229028)
(-0.0182238 0.0110692 0.359132)
(-0.0270812 0.0359584 0.497828)
(-0.0133692 0.0544931 0.572609)
(-0.00420075 0.0320419 0.393542)
(-0.0193412 0.0107076 0.229657)
(-0.0410083 -0.0073984 0.160704)
(0.017934 -0.0207499 0.170048)
(-0.00139361 -0.00283657 0.231722)
(-0.0165825 0.0231786 0.310041)
(-0.0169308 0.038509 0.330844)
(-0.0180899 0.0133189 0.241023)
(-0.032016 -0.0100286 0.17149)
(-0.0462056 -0.0264868 0.148777)
(0.0340694 0.0414825 0.318287)
(0.0115482 0.0299126 0.347182)
(-0.0051806 0.00943218 0.3879)
(-0.0061253 -0.000753812 0.393184)
(-0.0111536 0.0270507 0.34431)
(-0.0305692 0.045309 0.316829)
(-0.0494184 0.0536252 0.304293)
(0.0149542 0.0257094 0.353693)
(-0.0100642 0.010349 0.435075)
(-0.023237 -0.0152631 0.525639)
(-0.0107474 -0.0304408 0.554909)
(-0.00519215 -0.000227686 0.432847)
(-0.0265251 0.0238564 0.341047)
(-0.0481803 0.0344336 0.312894)
(-0.00767124 0.0116232 0.422618)
(-0.0302786 -0.00453505 0.582719)
(-0.0480413 -0.0329333 0.884701)
(0.00248251 -0.0562305 1.11156)
(0.00777437 -0.0115904 0.609831)
(-0.0115919 0.0103358 0.398769)
(-0.0429018 0.0173264 0.324108)
(-0.0281848 0.00695514 0.485858)
(-0.0484354 0.00483479 0.713592)
(-0.111712 -0.00111946 2.14805)
(-0.0286216 0.0401154 2.69513)
(0.00196335 0.00294892 0.815935)
(-0.00278312 0.00631183 0.452633)
(-0.0401832 0.00457359 0.335475)
(-0.0119493 0.00165832 0.446778)
(-0.0323781 0.0172691 0.624109)
(-0.0573032 0.0523313 1.03766)
(0.00203007 0.112692 1.96128)
(0.00868008 0.0256542 0.697939)
(-0.00642154 0.00529148 0.425926)
(-0.041338 -0.00681461 0.330419)
(0.0123982 -0.0136409 0.374495)
(-0.0105804 0.00492908 0.480455)
(-0.0263589 0.0297047 0.604898)
(-0.0128426 0.0483114 0.654902)
(-0.00633172 0.0213699 0.49368)
(-0.0275736 -0.00430411 0.363631)
(-0.0496125 -0.0232897 0.316792)
(0.031256 -0.0317171 0.328072)
(0.0095716 -0.013253 0.374494)
(-0.00947566 0.0125707 0.439347)
(-0.0123516 0.0281234 0.453857)
(-0.0159153 -0.00244869 0.376843)
(-0.0332967 -0.028292 0.326485)
(-0.0499317 -0.0450835 0.307019)
(-0.0825473 0.0463132 -0.0108269)
(-0.0749018 0.034757 -0.00841177)
(-0.0698461 0.0367199 -0.00723516)
(-0.0615377 0.0339585 -0.00646672)
(-0.0564244 0.0318637 -0.00611243)
(-0.0525402 0.0302834 -0.00609425)
(-0.0492447 0.0289545 -0.00630465)
(-0.0464371 0.0277379 -0.00666643)
(-0.0778937 0.0336392 -0.00951456)
(-0.0876766 0.0252694 -0.00894441)
(-0.0751999 0.0240588 -0.00736765)
(-0.0663905 0.0233658 -0.00608713)
(-0.0608424 0.0221618 -0.00536306)
(-0.0565996 0.0210461 -0.00504802)
(-0.0528378 0.0199876 -0.00504245)
(-0.0497106 0.0190989 -0.00525649)
(-0.0914598 0.0240132 -0.0105918)
(-0.0840575 0.0150613 -0.00881138)
(-0.0824204 0.0150468 -0.00769362)
(-0.0705303 0.014452 -0.00606284)
(-0.0639971 0.0137328 -0.00508354)
(-0.0589869 0.0130396 -0.00459923)
(-0.0550441 0.0123877 -0.00452604)
(-0.0514517 0.0116945 -0.00472411)
(-0.0850204 0.00561289 -0.00795279)
(-0.0830814 0.00488715 -0.00812582)
(-0.0822489 0.00488728 -0.00765021)
(-0.0709349 0.00429981 -0.00606392)
(-0.0645563 0.00386694 -0.0049721)
(-0.0605175 0.0034829 -0.00428629)
(-0.0563271 0.00304239 -0.00385427)
(-0.0537448 0.0027007 -0.00368345)
(-0.0896398 -0.0079048 -0.00938744)
(-0.0910779 -0.00204443 -0.00949575)
(-0.0818628 -0.00370248 -0.00769533)
(-0.0722755 -0.00420848 -0.0062755)
(-0.0659281 -0.00391806 -0.00543082)
(-0.0614512 -0.00372935 -0.00504138)
(-0.0575144 -0.00347352 -0.00504616)
(-0.0544291 -0.00332751 -0.00528355)
(-0.0872672 -0.0233108 -0.010497)
(-0.0858562 -0.0135622 -0.00857954)
(-0.0800707 -0.0147026 -0.00725234)
(-0.0719941 -0.0135952 -0.00596027)
(-0.0651201 -0.0125482 -0.00527322)
(-0.0605794 -0.0122165 -0.00499507)
(-0.0565857 -0.011901 -0.00502305)
(-0.0536473 -0.0116686 -0.00529319)
(-0.0867895 -0.0359766 -0.0111112)
(-0.0788867 -0.0239054 -0.00828215)
(-0.0767902 -0.0267577 -0.00712567)
(-0.0678033 -0.0248327 -0.00627526)
(-0.0625135 -0.0229708 -0.00590933)
(-0.0586008 -0.0212693 -0.0059046)
(-0.0555186 -0.0197141 -0.0062148)
(-0.0529224 -0.0183981 -0.00677077)
(-0.0518543 0.0297283 0.00604598)
(-0.051096 0.0298437 0.00844403)
(-0.0503151 0.0302985 0.00962536)
(-0.0494212 0.0304828 0.00946931)
(-0.04836 0.0303607 0.00855975)
(-0.047066 0.0299467 0.00711533)
(-0.0455432 0.0292777 0.00529907)
(-0.0437926 0.0283764 0.00322244)
(-0.0548992 0.0203997 0.0022034)
(-0.0542212 0.020789 0.00781584)
(-0.0537227 0.021413 0.0103155)
(-0.0532057 0.0218156 0.0110469)
(-0.0524029 0.021859 0.0105843)
(-0.0512193 0.0215862 0.0093249)
(-0.0496577 0.0210553 0.00750838)
(-0.0477189 0.020307 0.00530592)
(-0.0527275 0.0107099 -0.00132827)
(-0.053861 0.0119793 0.00520879)
(-0.0545646 0.012656 0.00996015)
(-0.0548376 0.0129947 0.0115901)
(-0.0546091 0.0130227 0.0114738)
(-0.0537455 0.0128011 0.0103002)
(-0.0523068 0.0123976 0.00843321)
(-0.0503497 0.0118602 0.00610096)
(-0.0506266 0.00655573 -0.000152565)
(-0.0535838 0.00587236 0.00460685)
(-0.0550967 0.00542797 0.00930792)
(-0.0559203 0.00500292 0.0108822)
(-0.0560745 0.00458193 0.0106732)
(-0.0554351 0.0041871 0.00936094)
(-0.0540839 0.00383203 0.00737955)
(-0.0521242 0.00352266 0.00491731)
(-0.053947 0.00340159 0.000342029)
(-0.0558771 0.000273136 0.00474686)
(-0.0567268 -0.00151967 0.00880406)
(-0.0571193 -0.00273511 0.0101003)
(-0.056939 -0.0036044 0.00976693)
(-0.0560622 -0.00417857 0.00845396)
(-0.0545595 -0.00449883 0.00645411)
(-0.0525275 -0.00460899 0.00401241)
(-0.0588767 -0.00536896 0.00089296)
(-0.0584265 -0.00781163 0.00568138)
(-0.0581406 -0.00962794 0.00855086)
(-0.0577313 -0.0109822 0.0094074)
(-0.0569436 -0.0119162 0.00873698)
(-0.0557087 -0.0124592 0.00722435)
(-0.0540343 -0.0126508 0.00516222)
(-0.0519663 -0.0125533 0.00271526)
(-0.0580813 -0.0155565 0.00428281)
(-0.0575129 -0.0168608 0.00716266)
(-0.056789 -0.0181844 0.00865906)
(-0.0559293 -0.0191615 0.00851723)
(-0.054868 -0.0197649 0.00748032)
(-0.0535346 -0.0200228 0.00583066)
(-0.0519341 -0.0199971 0.00375589)
(-0.0500688 -0.019727 0.00137573)
(-0.0428148 0.029363 0.0469273)
(-0.046672 0.0340589 0.0423829)
(-0.0499168 0.0377245 0.0363069)
(-0.0524185 0.0404235 0.0290776)
(-0.0542196 0.0423297 0.0211701)
(-0.0553516 0.0435591 0.0130244)
(-0.055787 0.0441469 0.00510203)
(-0.0554069 0.0440346 -0.00205976)
(-0.0426028 0.0182132 0.0500282)
(-0.0488802 0.0226575 0.0459687)
(-0.0538755 0.025916 0.040534)
(-0.0578805 0.0282284 0.0335459)
(-0.0608774 0.0297767 0.025449)
(-0.062913 0.0307043 0.0167804)
(-0.0639521 0.0310724 0.00813315)
(-0.0638285 0.0308543 0.000198866)
(-0.0378342 0.00930446 0.0526723)
(-0.0474415 0.0125763 0.0479176)
(-0.0546324 0.014626 0.0429372)
(-0.0602903 0.015976 0.0361932)
(-0.0644584 0.016791 0.02799)
(-0.0672712 0.0172001 0.0189424)
(-0.0687713 0.0172689 0.00975392)
(-0.0688152 0.0169983 0.0012379)
(-0.0355423 0.00513361 0.0543764)
(-0.0469458 0.00489512 0.047994)
(-0.0551368 0.00456564 0.0430044)
(-0.0615238 0.00414281 0.0363356)
(-0.0661938 0.00367154 0.0281068)
(-0.0692997 0.00320794 0.0189522)
(-0.0709413 0.00277729 0.00962061)
(-0.0710114 0.00238623 0.000964187)
(-0.0379884 0.00284423 0.0531248)
(-0.0488898 -0.00201479 0.0464195)
(-0.0564677 -0.00516638 0.0411297)
(-0.0622575 -0.00760359 0.0342977)
(-0.0664028 -0.00949506 0.0260286)
(-0.0690886 -0.0108997 0.0169341)
(-0.0704207 -0.0118563 0.00773438)
(-0.0703038 -0.0123683 -0.00075054)
(-0.0458014 -0.00441951 0.0490923)
(-0.0529029 -0.0111453 0.0437784)
(-0.0580941 -0.0159605 0.0380537)
(-0.0620548 -0.0196492 0.0308766)
(-0.0648285 -0.022409 0.0225779)
(-0.0665475 -0.0243747 0.0137324)
(-0.067251 -0.02562 0.00496946)
(-0.0668355 -0.0261486 -0.00300461)
(-0.0484523 -0.0158626 0.0463179)
(-0.0526593 -0.0224702 0.0414009)
(-0.0558636 -0.0277098 0.0350988)
(-0.0582161 -0.0317593 0.0275647)
(-0.059772 -0.0347917 0.0193005)
(-0.0606158 -0.0369436 0.010805)
(-0.0607625 -0.038277 0.00258573)
(-0.060128 -0.0387627 -0.00479269)
(-0.0559218 0.0472001 0.138859)
(-0.0646283 0.0562025 0.130654)
(-0.0726082 0.0634769 0.121088)
(-0.0790884 0.0689934 0.110372)
(-0.0836886 0.0727022 0.0986224)
(-0.0859815 0.0744149 0.0857617)
(-0.085445 0.0738028 0.0713404)
(-0.0815554 0.0705012 0.0544848)
(-0.0554375 0.0299801 0.144748)
(-0.0684 0.037497 0.136285)
(-0.0796132 0.0434496 0.126803)
(-0.0889996 0.0479402 0.115956)
(-0.0960439 0.0509825 0.103808)
(-0.100136 0.0524489 0.0903154)
(-0.100501 0.052071 0.0750022)
(-0.0963796 0.0495408 0.0568051)
(-0.0515989 0.0151681 0.149327)
(-0.0682428 0.0195718 0.139885)
(-0.0824065 0.0229085 0.130418)
(-0.0942782 0.0253487 0.119489)
(-0.103263 0.0269418 0.107042)
(-0.108717 0.0276487 0.0930582)
(-0.109753 0.027331 0.0770559)
(-0.105474 0.0258215 0.0578492)
(-0.0500875 0.00380555 0.151418)
(-0.0683336 0.00339532 0.140628)
(-0.0835978 0.00292894 0.131026)
(-0.0963737 0.0023639 0.120005)
(-0.106015 0.00178544 0.10738)
(-0.11189 0.00129478 0.0931502)
(-0.113093 0.000912283 0.0768383)
(-0.10868 0.000629966 0.0572223)
(-0.051909 -0.00602616 0.149466)
(-0.0694532 -0.0123744 0.138497)
(-0.0837986 -0.0173331 0.128514)
(-0.09564 -0.0212345 0.117232)
(-0.104459 -0.0240276 0.104472)
(-0.10969 -0.025675 0.090201)
(-0.110495 -0.0260599 0.0739402)
(-0.105998 -0.0250501 0.054509)
(-0.0586369 -0.0193384 0.143643)
(-0.0718203 -0.0295829 0.133784)
(-0.0827623 -0.0377128 0.123508)
(-0.0917572 -0.043994 0.111956)
(-0.0983244 -0.0484583 0.0991373)
(-0.101912 -0.0510138 0.0850176)
(-0.101773 -0.0514316 0.0691359)
(-0.0971728 -0.0494516 0.0504377)
(-0.0597485 -0.03766 0.137551)
(-0.068356 -0.0494455 0.12836)
(-0.0759435 -0.0588371 0.117939)
(-0.08187 -0.0660177 0.106349)
(-0.0858337 -0.0710878 0.0937456)
(-0.0874637 -0.0739015 0.0800795)
(-0.086269 -0.0741382 0.064918)
(-0.0817358 -0.0714679 0.0474033)
(-0.065146 0.0595619 0.292637)
(-0.0752049 0.0696186 0.27792)
(-0.0858309 0.0785955 0.256518)
(-0.0960766 0.0866061 0.2268)
(-0.105825 0.0939011 0.187309)
(-0.115934 0.101356 0.137214)
(-0.1276 0.109933 0.0772038)
(-0.137478 0.116753 0.0112472)
(-0.0668866 0.0392355 0.300429)
(-0.0811465 0.0470554 0.28721)
(-0.0948846 0.053842 0.268183)
(-0.108074 0.059777 0.240726)
(-0.120518 0.06504 0.202607)
(-0.133234 0.0702254 0.152218)
(-0.147997 0.0761886 0.0895628)
(-0.160982 0.0810938 0.018377)
(-0.065413 0.0201503 0.305623)
(-0.0828453 0.024097 0.292732)
(-0.0992136 0.0275122 0.275274)
(-0.114634 0.0304528 0.249524)
(-0.128958 0.0330199 0.212573)
(-0.143394 0.0355291 0.162192)
(-0.160132 0.0384718 0.0978527)
(-0.175121 0.0409371 0.0231159)
(-0.064799 0.00261494 0.308099)
(-0.083378 0.00135193 0.294523)
(-0.100551 0.000219731 0.277468)
(-0.116616 -0.000777063 0.252311)
(-0.131443 -0.00152451 0.215805)
(-0.146341 -0.00196383 0.165459)
(-0.163662 -0.00210662 0.100522)
(-0.179301 -0.00200676 0.024503)
(-0.0652675 -0.014791 0.306273)
(-0.0828516 -0.0216226 0.292296)
(-0.0988945 -0.0274012 0.274441)
(-0.113855 -0.0322538 0.2485)
(-0.127708 -0.0361806 0.211456)
(-0.141756 -0.0394928 0.161022)
(-0.158252 -0.0427436 0.096612)
(-0.17319 -0.0451249 0.0218001)
(-0.0678837 -0.0335983 0.300624)
(-0.0814126 -0.0448725 0.286425)
(-0.0940885 -0.0545246 0.26691)
(-0.10612 -0.0626774 0.239151)
(-0.117481 -0.0694533 0.200835)
(-0.129328 -0.0754717 0.150285)
(-0.143546 -0.0816812 0.0874199)
(-0.156386 -0.0863825 0.0159968)
(-0.0645572 -0.0558134 0.293305)
(-0.0733322 -0.0692809 0.278189)
(-0.0824623 -0.0810898 0.256586)
(-0.0911557 -0.0912596 0.226682)
(-0.0994957 -0.100038 0.186908)
(-0.108479 -0.10832 0.136368)
(-0.119417 -0.117148 0.07574)
(-0.129056 -0.123753 0.00912121)
(0.0573724 -0.0583453 -0.00825245)
(0.0486729 -0.0486546 -0.0072764)
(0.0445394 -0.0428414 -0.00630696)
(0.039138 -0.0399404 -0.00596347)
(0.0359147 -0.0386784 -0.00611133)
(0.0329648 -0.0377095 -0.00658095)
(0.0305989 -0.0369085 -0.00721823)
(0.0285484 -0.0359844 -0.00789988)
(0.0711923 -0.0455098 -0.00639956)
(0.0553642 -0.0303437 -0.00703191)
(0.054212 -0.0291609 -0.00551798)
(0.0440822 -0.0271733 -0.00428129)
(0.0396186 -0.0255586 -0.00342964)
(0.0368172 -0.0242883 -0.00300619)
(0.0332498 -0.0221353 -0.00285978)
(0.0321723 -0.0217282 -0.00270724)
(0.0842502 -0.0221026 -0.00320275)
(0.0643093 -0.0132555 -0.00691861)
(0.0622483 -0.0133952 -0.00541352)
(0.0476549 -0.0140803 -0.00323417)
(0.0406101 -0.0140877 -0.00143723)
(0.0356133 -0.0145963 -0.000119102)
(0.0299495 -0.0155511 0.000687873)
(0.027799 -0.0176017 0.00176552)
(0.0875335 0.00956005 0.00119162)
(0.0672773 0.00890182 -0.00642733)
(0.0656578 0.00923005 -0.00457232)
(0.051844 0.00909177 -0.00107333)
(0.0433628 0.00926464 0.00147933)
(0.0380855 0.00932182 0.00352513)
(0.0341215 0.00885877 0.00513196)
(0.0300619 0.00907214 0.00585393)
(0.0829378 0.039593 -0.00319097)
(0.0515871 0.0225519 -0.00587918)
(0.0634848 0.0246703 -0.00588061)
(0.0444617 0.0223678 -0.00427394)
(0.0399489 0.0223087 -0.00276181)
(0.0346605 0.02182 -0.00175118)
(0.0316311 0.0228699 -0.000966257)
(0.0276807 0.0239622 -0.000735277)
(0.0689728 0.0625397 -0.00795203)
(0.0514166 0.0458164 -0.00767728)
(0.0533676 0.0438016 -0.00569587)
(0.0399336 0.0394528 -0.00471507)
(0.0372624 0.0373453 -0.00395746)
(0.0345585 0.0356088 -0.00347613)
(0.032537 0.0331668 -0.00330621)
(0.0302799 0.0305999 -0.00329364)
(0.0533558 0.07047 -0.00910399)
(0.0450382 0.0598374 -0.00771468)
(0.0430025 0.0505593 -0.0064066)
(0.03869 0.0465044 -0.00565241)
(0.0357808 0.044055 -0.00522763)
(0.0326194 0.0433057 -0.00522197)
(0.029691 0.0435331 -0.00563522)
(0.026506 0.0429458 -0.00624074)
(0.0337236 -0.0342325 0.0128384)
(0.0328906 -0.0326647 0.0137954)
(0.0330121 -0.0321667 0.0140274)
(0.0332261 -0.032062 0.0129773)
(0.0333015 -0.0319635 0.0110986)
(0.033101 -0.0316821 0.00862929)
(0.0326007 -0.0311443 0.00578804)
(0.0318212 -0.0303578 0.00267815)
(0.0398197 -0.0237932 0.0178077)
(0.0360767 -0.0225246 0.0164392)
(0.0347807 -0.0222125 0.0186959)
(0.0340888 -0.0223118 0.0192552)
(0.0337247 -0.0225356 0.0187329)
(0.0332641 -0.0226887 0.0172599)
(0.0325608 -0.0226772 0.0151904)
(0.0315937 -0.0225024 0.0127096)
(0.0383153 -0.00621607 0.0343336)
(0.0346956 -0.00669996 0.0210423)
(0.0332649 -0.00788876 0.0238565)
(0.0321079 -0.00894403 0.0261079)
(0.0314039 -0.00997937 0.0272519)
(0.0305543 -0.0110018 0.0272262)
(0.0293394 -0.0119313 0.0263908)
(0.0277997 -0.0126913 0.0247086)
(0.0370286 0.0112263 0.0381215)
(0.0336319 0.0100221 0.0206766)
(0.033078 0.00923592 0.0241477)
(0.0320814 0.00871175 0.0271563)
(0.0313845 0.00838841 0.0291169)
(0.0305053 0.0081165 0.0299697)
(0.0291967 0.0078373 0.0298569)
(0.0273712 0.00754323 0.029071)
(0.0373165 0.0262158 0.02297)
(0.033054 0.0240751 0.0155555)
(0.0325202 0.0233129 0.0203464)
(0.031702 0.0229074 0.0222039)
(0.0314267 0.0227798 0.0230902)
(0.030884 0.0226974 0.0227974)
(0.0300008 0.0226269 0.0216642)
(0.0286795 0.0224885 0.0199485)
(0.0340481 0.038847 0.0128787)
(0.0317279 0.0364902 0.0137005)
(0.0315547 0.035608 0.0162822)
(0.0313797 0.0351586 0.0166044)
(0.031403 0.0348311 0.0160254)
(0.0311297 0.0344111 0.0146241)
(0.0305115 0.0338163 0.0125883)
(0.0295348 0.03305 0.0101608)
(0.0271123 0.0446947 0.0114118)
(0.0273606 0.0431124 0.0130616)
(0.0280816 0.0424128 0.0135656)
(0.0286715 0.0420136 0.0128152)
(0.0289984 0.0415688 0.0113594)
(0.0289417 0.040958 0.00934804)
(0.0285193 0.0400967 0.00691455)
(0.0277746 0.0389731 0.00415165)
(0.0231432 -0.0237626 0.0558056)
(0.0293091 -0.0285135 0.0481281)
(0.0345089 -0.0322991 0.0411837)
(0.0389334 -0.0353356 0.032878)
(0.0423948 -0.0375769 0.0235034)
(0.044922 -0.0390967 0.0136936)
(0.046524 -0.0399385 0.00411985)
(0.0471263 -0.0400697 -0.00450503)
(0.0185641 -0.0135244 0.0738552)
(0.0260164 -0.0182407 0.0587524)
(0.0319019 -0.0212736 0.0527971)
(0.037116 -0.0235813 0.046483)
(0.0415788 -0.0253675 0.0385588)
(0.0451405 -0.0265984 0.0293565)
(0.0476992 -0.0272706 0.019605)
(0.049057 -0.0273461 0.0102088)
(0.00818076 -0.000840105 0.107524)
(0.0175101 -0.00485908 0.0729577)
(0.0243672 -0.00796596 0.0656276)
(0.0300802 -0.0100681 0.0614416)
(0.0349808 -0.0118208 0.0558541)
(0.038916 -0.0132455 0.0484614)
(0.0417348 -0.0143192 0.0398017)
(0.0432576 -0.0150011 0.0307939)
(0.00353075 0.00985937 0.120689)
(0.0143308 0.00867736 0.0760744)
(0.0217966 0.00738021 0.0688159)
(0.0277706 0.00638138 0.066037)
(0.0328529 0.00556308 0.0619757)
(0.0369319 0.0047836 0.0560461)
(0.0398206 0.00406246 0.0487255)
(0.0413132 0.00342717 0.0409172)
(0.00843623 0.0191861 0.0921796)
(0.0184994 0.0204462 0.0653186)
(0.0258624 0.0209494 0.0602463)
(0.0318994 0.0212015 0.0561806)
(0.0370732 0.0213636 0.0503886)
(0.0412073 0.0213446 0.0428393)
(0.0441901 0.02112 0.0341822)
(0.0458326 0.0206717 0.0253539)
(0.0147497 0.0283013 0.0649258)
(0.0234149 0.0315112 0.0543168)
(0.0300976 0.0335265 0.049043)
(0.0358006 0.0350012 0.0427136)
(0.040542 0.0359533 0.0348262)
(0.0442431 0.0363888 0.0258332)
(0.046859 0.0363351 0.0164354)
(0.04822 0.0357566 0.00748212)
(0.0179493 0.0346615 0.0527382)
(0.0247792 0.0390517 0.046375)
(0.0303777 0.042433 0.039717)
(0.0350643 0.0449757 0.0316888)
(0.0387323 0.0467043 0.0227146)
(0.0414408 0.0477276 0.0133743)
(0.0432148 0.0480922 0.00427464)
(0.0439834 0.0477582 -0.00392739)
(0.0359827 -0.031824 0.146812)
(0.0494649 -0.0429795 0.134294)
(0.0608778 -0.0516341 0.122842)
(0.070349 -0.0581706 0.110484)
(0.0773355 -0.062565 0.0971856)
(0.0814907 -0.0647368 0.0829443)
(0.0823474 -0.0643966 0.0673423)
(0.079429 -0.061198 0.0494778)
(0.022571 -0.0162483 0.169337)
(0.0408818 -0.0258653 0.149213)
(0.0557726 -0.0322864 0.137864)
(0.0687216 -0.036951 0.126696)
(0.0791758 -0.040038 0.114254)
(0.0863621 -0.0414404 0.100393)
(0.0894423 -0.0409335 0.0847445)
(0.0876028 -0.0382204 0.0663176)
(0.00409131 -0.00150653 0.205538)
(0.0255259 -0.00924502 0.16733)
(0.043247 -0.0141351 0.154564)
(0.0583965 -0.0174441 0.145274)
(0.0710294 -0.0198768 0.135047)
(0.0801117 -0.0213825 0.123188)
(0.084494 -0.0217868 0.109268)
(0.0831916 -0.0209033 0.0922225)
(-0.00557836 0.00762943 0.22385)
(0.0183177 0.00532974 0.174281)
(0.0374056 0.00328964 0.161132)
(0.053347 0.00183425 0.153182)
(0.0666496 0.000676974 0.144488)
(0.0763164 -0.000269333 0.134063)
(0.0810841 -0.000999838 0.121349)
(0.0798796 -0.00151197 0.105124)
(0.00726599 0.0157729 0.191005)
(0.029168 0.0190896 0.16173)
(0.0467319 0.0207038 0.151451)
(0.0617954 0.0216843 0.14284)
(0.0742859 0.022212 0.132953)
(0.0831702 0.0221581 0.121386)
(0.0873642 0.021355 0.10773)
(0.0859041 0.0195978 0.0908846)
(0.0229686 0.0287569 0.161131)
(0.0417465 0.0356183 0.146312)
(0.0569255 0.0400541 0.136367)
(0.0700826 0.043084 0.125805)
(0.0806312 0.0447504 0.11387)
(0.0878723 0.0449786 0.100499)
(0.091005 0.043539 0.0853043)
(0.0892357 0.0401069 0.0672747)
(0.0349076 0.0420312 0.144042)
(0.0486813 0.0513757 0.133493)
(0.0604418 0.058531 0.122815)
(0.0702044 0.0636981 0.111058)
(0.0774981 0.0669215 0.0983177)
(0.0819851 0.0681218 0.0845707)
(0.0831954 0.0669918 0.0693886)
(0.0806342 0.0631546 0.0518857)
(0.051824 -0.0429489 0.305925)
(0.0671032 -0.0552902 0.288197)
(0.0810961 -0.0654089 0.266031)
(0.0938254 -0.0738923 0.236069)
(0.105183 -0.0812572 0.196275)
(0.116222 -0.0886094 0.145322)
(0.128304 -0.0970402 0.0834949)
(0.138166 -0.103731 0.0148482)
(0.0382248 -0.0239263 0.327254)
(0.060235 -0.0335586 0.305997)
(0.0794054 -0.0401866 0.285995)
(0.0974791 -0.0453639 0.258919)
(0.114124 -0.0496017 0.220953)
(0.130199 -0.0537835 0.169756)
(0.147353 -0.0589633 0.104874)
(0.161572 -0.0635857 0.0300334)
(0.0183018 -0.00678061 0.356746)
(0.0446541 -0.0142521 0.324566)
(0.0679568 -0.0184457 0.305456)
(0.0899605 -0.0211562 0.281732)
(0.110936 -0.0230494 0.246794)
(0.131561 -0.0246389 0.197005)
(0.153544 -0.0266343 0.131136)
(0.172034 -0.0281934 0.0529396)
(0.00712539 0.00454653 0.372098)
(0.0360331 0.00126152 0.33282)
(0.0613169 -0.00089448 0.314489)
(0.0845863 -0.0021819 0.293424)
(0.106979 -0.00293959 0.261672)
(0.129283 -0.00336235 0.214964)
(0.153286 -0.00351714 0.151521)
(0.173619 -0.00345858 0.0745904)
(0.023118 0.0146869 0.345937)
(0.0492207 0.0168296 0.320196)
(0.0720895 0.0175037 0.302911)
(0.0938712 0.017863 0.279794)
(0.114609 0.0182096 0.245178)
(0.134991 0.0189562 0.195758)
(0.156744 0.02061 0.130527)
(0.175014 0.0223408 0.0531137)
(0.0417681 0.030848 0.32013)
(0.063822 0.0365915 0.30285)
(0.0832768 0.0403267 0.284047)
(0.101715 0.0432055 0.257525)
(0.118673 0.0457309 0.220001)
(0.134989 0.0488271 0.169284)
(0.152272 0.0535207 0.104994)
(0.166506 0.0580769 0.0309357)
(0.0549387 0.047917 0.301899)
(0.0706605 0.0571414 0.285544)
(0.0853496 0.0647879 0.263793)
(0.0988711 0.0712888 0.234103)
(0.111069 0.0771114 0.194691)
(0.122846 0.0834301 0.144239)
(0.135408 0.0913946 0.0830409)
(0.145444 0.0981905 0.0150823)
(0.0358706 0.0725584 -0.00950134)
(0.0241156 0.0672116 -0.00817877)
(0.0244072 0.0603967 -0.00732661)
(0.0259798 0.0530522 -0.00726041)
(0.0264231 0.0483818 -0.00763672)
(0.02608 0.0452272 -0.00813004)
(0.0255125 0.0427056 -0.00864638)
(0.0251915 0.0406201 -0.00911544)
(0.026677 0.0823124 -0.00920037)
(0.0168091 0.0699182 -0.00735369)
(0.0195797 0.0689194 -0.00587838)
(0.019198 0.0597322 -0.00442579)
(0.0174483 0.0510016 -0.00340915)
(0.0166924 0.046304 -0.0026891)
(0.0158591 0.0415055 -0.00221695)
(0.0167402 0.0406231 -0.00192471)
(-0.000293634 0.0901055 -0.00679041)
(-0.00233314 0.0723644 -0.00686115)
(-0.000687377 0.0730438 -0.00521051)
(-0.00125253 0.0569609 -0.0026513)
(-0.0014919 0.0489966 -0.000622205)
(-0.000782628 0.0431747 0.000871576)
(0.000345912 0.0386082 0.0018789)
(0.00185582 0.0354428 0.00230514)
(-0.0213688 0.0827216 -0.00644395)
(-0.0184731 0.0755166 -0.00806756)
(-0.0176844 0.0671621 -0.00607249)
(-0.0185466 0.0562353 -0.00379235)
(-0.0185406 0.04892 -0.00196296)
(-0.0182821 0.0445671 -0.000666039)
(-0.0174505 0.0405252 2.87724e-05)
(-0.0154409 0.037114 0.000355246)
(-0.0467754 0.084808 -0.00998379)
(-0.0322566 0.0654696 -0.00836828)
(-0.0326922 0.0642988 -0.00669093)
(-0.0305797 0.0525557 -0.00504326)
(-0.0292884 0.0469871 -0.00381716)
(-0.0286909 0.043008 -0.00302155)
(-0.0291809 0.0386484 -0.00258999)
(-0.0309186 0.0366619 -0.00244173)
(-0.0634047 0.074133 -0.0111287)
(-0.0478754 0.0580469 -0.00830893)
(-0.0470352 0.0579199 -0.00664042)
(-0.0437631 0.0481817 -0.00542687)
(-0.0411038 0.0433926 -0.00467077)
(-0.0388286 0.0406821 -0.0042383)
(-0.035205 0.0375191 -0.00408983)
(-0.033184 0.0364168 -0.00405333)
(-0.0760816 0.0628273 -0.0110181)
(-0.0668944 0.0519265 -0.00879176)
(-0.0597985 0.0489046 -0.00725197)
(-0.0550469 0.0430508 -0.00643096)
(-0.0521152 0.0392465 -0.00607606)
(-0.0496887 0.0358884 -0.00605393)
(-0.048003 0.0331193 -0.00628794)
(-0.0457921 0.0304991 -0.00665177)
(0.0188356 0.0475769 0.0121264)
(0.020066 0.046453 0.0135911)
(0.0212881 0.0457252 0.014003)
(0.0223308 0.0451949 0.0130593)
(0.0230109 0.0446307 0.0112685)
(0.0232879 0.0439015 0.00889601)
(0.0232004 0.0429524 0.00610695)
(0.0227962 0.0417552 0.00306622)
(0.00478617 0.0483134 0.0160013)
(0.00850135 0.0457848 0.0159747)
(0.0108431 0.0447013 0.018884)
(0.0124494 0.0441643 0.0192642)
(0.0135762 0.0436285 0.0184441)
(0.0142748 0.0429463 0.01683)
(0.0145546 0.0419688 0.0145273)
(0.0144932 0.0407252 0.0116754)
(-0.0113774 0.0433183 0.0228277)
(-0.00571403 0.0419735 0.0180569)
(-0.00233461 0.0411492 0.0229222)
(-9.1246e-05 0.0406289 0.0252277)
(0.00177843 0.0400863 0.0262547)
(0.0034416 0.0391769 0.0261185)
(0.00489873 0.0377974 0.0249588)
(0.00613414 0.0359865 0.0230129)
(-0.0217444 0.040722 0.0182175)
(-0.0176992 0.039661 0.016468)