/*--------------------------------*- C++ -*----------------------------------*\
| =========                 |                                                 |
| \\      /  F ield         | OpenFOAM: The Open Source CFD Toolbox           |
|  \\    /   O peration     | Version:  plus.master.MPPICInterFoam            |
|   \\  /    A nd           | Web:      www.OpenFOAM.com                      |
|    \\/     M anipulation  |                                                 |
\*---------------------------------------------------------------------------*/
FoamFile
{
    version     2.0;
    format      ascii;
    class       surfaceScalarField;
    location    "9.4";
    object      phi;
}
// * * * * * * * * * * * * * * * * * * * * * * * * * * * * * * * * * * * * * //

dimensions      [0 3 -1 0 0 0 0];

internalField   nonuniform List<scalar> 
34004
(
1.25231e-08
-2.76097e-08
-1.74365e-06
3.5312e-09
1.69376e-08
-3.14932e-08
-2.22367e-06
1.03137e-08
1.62035e-08
-3.18351e-08
-2.5934e-06
1.27077e-08
1.27394e-08
-3.14557e-08
-2.94304e-06
1.35635e-08
8.14419e-09
-3.05403e-08
-3.2931e-06
1.35736e-08
3.83363e-09
-2.91709e-08
-3.64838e-06
1.29475e-08
1.05226e-09
-2.74277e-08
-4.00873e-06
1.18107e-08
-2.54115e-08
-4.37037e-06
1.02615e-08
6.98965e-10
1.25919e-08
-5.15501e-08
-1.75465e-06
1.64175e-08
-5.19244e-08
-2.23651e-06
1.48679e-08
-5.00883e-08
-2.60827e-06
1.05984e-08
-4.8438e-08
-2.96048e-06
5.36317e-09
-4.66007e-08
-3.31372e-06
7.0251e-10
-4.45169e-08
-3.67278e-06
-2.03976e-09
-4.22118e-08
-4.03741e-06
-3.97643e-08
-4.4036e-06
-1.93117e-09
1.14805e-08
-7.38355e-08
-1.76078e-06
1.38778e-08
-7.03442e-08
-2.24373e-06
1.08486e-08
-6.62954e-08
-2.61665e-06
5.24102e-09
-6.3384e-08
-2.97053e-06
-1.07009e-09
-6.06514e-08
-3.32596e-06
-6.46221e-09
-5.78938e-08
-3.68769e-06
-9.44663e-09
-5.51109e-08
-4.05539e-06
-5.23771e-08
-4.42487e-06
-8.91787e-09
1.01457e-08
-9.40243e-08
-1.7608e-06
1.1165e-08
-8.64837e-08
-2.24384e-06
6.93271e-09
-8.03826e-08
-2.61691e-06
3.8865e-10
-7.63636e-08
-2.97132e-06
-6.54272e-09
-7.28843e-08
-3.32767e-06
-1.21637e-08
-6.96151e-08
-3.69068e-06
-1.49392e-08
-6.65085e-08
-4.05996e-06
-6.36238e-08
-4.43115e-06
-1.37733e-08
7.96736e-09
-1.10959e-07
-1.75356e-06
7.28548e-09
-9.96216e-08
-2.23561e-06
1.86429e-09
-9.18932e-08
-2.60752e-06
-5.51287e-09
-8.70636e-08
-2.96085e-06
-1.28587e-08
-8.31571e-08
-3.31632e-06
-1.8479e-08
-7.96969e-08
-3.67852e-06
-2.08945e-08
-7.65804e-08
-4.04701e-06
-7.38576e-08
-4.4174e-06
-1.9031e-08
5.23842e-09
-1.2366e-07
-1.73891e-06
2.57431e-09
-1.09014e-07
-2.21878e-06
-3.80093e-09
-1.00406e-07
-2.5882e-06
-1.15672e-08
-9.51853e-08
-2.93877e-06
-1.87946e-08
-9.1308e-08
-3.29139e-06
-2.38728e-08
-8.80531e-08
-3.65055e-06
-2.54565e-08
-8.52696e-08
-4.01584e-06
-8.29524e-08
-4.38287e-06
-2.26234e-08
-4.14018e-10
-1.7179e-06
-1.28611e-07
-7.10315e-09
-2.19434e-06
-1.12035e-07
-1.62899e-08
-2.55936e-06
-1.03366e-07
-2.57466e-08
-2.90529e-06
-9.84082e-08
-3.39104e-08
-3.25269e-06
-9.50926e-08
-3.92493e-08
-3.60605e-06
-9.26245e-08
-4.04838e-08
-3.96492e-06
-9.0766e-08
-4.32505e-06
-8.94789e-08
-3.67355e-08
1.14905e-08
-3.47725e-08
-1.73425e-06
1.38898e-08
1.40854e-08
-3.78736e-08
-2.20812e-06
1.97292e-08
1.14356e-08
-3.76738e-08
-2.57441e-06
2.13275e-08
6.18313e-09
-3.684e-08
-2.92253e-06
2.15804e-08
9.37298e-11
-3.54554e-08
-3.27256e-06
2.10069e-08
-5.26686e-09
-3.35721e-08
-3.62922e-06
1.97724e-08
-8.4828e-09
-3.12803e-08
-3.99225e-06
1.80068e-08
-2.87189e-08
-4.35753e-06
1.58434e-08
-8.45187e-09
1.05221e-08
-5.43361e-08
-1.74561e-06
1.15928e-08
-5.42438e-08
-2.22121e-06
7.33869e-09
-5.22198e-08
-2.58947e-06
6.55378e-10
-5.03509e-08
-2.94028e-06
-6.53328e-09
-4.8247e-08
-3.29374e-06
-1.25249e-08
-4.5836e-08
-3.65452e-06
-1.57741e-08
-4.31706e-08
-4.02227e-06
-4.03627e-08
-4.39262e-06
-1.51096e-08
8.54955e-09
-7.1213e-08
-1.75245e-06
7.41531e-09
-6.77342e-08
-2.22911e-06
1.04344e-09
-6.3949e-08
-2.59855e-06
-7.5213e-09
-6.111e-08
-2.95121e-06
-1.61774e-08
-5.83713e-08
-3.30718e-06
-2.30766e-08
-5.55439e-08
-3.67109e-06
-2.65643e-08
-5.26453e-08
-4.04244e-06
-4.9779e-08
-4.41665e-06
-2.53664e-08
6.56591e-09
-8.52051e-08
-1.75338e-06
3.41808e-09
-7.83088e-08
-2.23012e-06
-4.64776e-09
-7.2965e-08
-2.59983e-06
-1.45767e-08
-6.93309e-08
-2.95317e-06
-2.4161e-08
-6.61405e-08
-3.31032e-06
-3.14859e-08
-6.30838e-08
-3.67582e-06
-3.4845e-08
-6.01436e-08
-4.0491e-06
-5.73993e-08
-4.42543e-06
-3.29429e-08
4.20864e-09
-9.56913e-08
-1.74728e-06
-9.75745e-10
-8.56431e-08
-2.22309e-06
-1.04593e-08
-7.91837e-08
-2.59182e-06
-2.13735e-08
-7.50095e-08
-2.94426e-06
-3.15401e-08
-7.16255e-08
-3.30067e-06
-3.90213e-08
-6.86105e-08
-3.66551e-06
-4.21166e-08
-6.58986e-08
-4.03817e-06
-6.3546e-08
-4.41384e-06
-3.95394e-08
1.94312e-09
-1.02457e-07
-1.73408e-06
-4.81178e-09
-8.97517e-08
-2.20792e-06
-1.53077e-08
-8.26202e-08
-2.57427e-06
-2.65953e-08
-7.82789e-08
-2.92421e-06
-3.66825e-08
-7.50389e-08
-3.27789e-06
-4.3732e-08
-7.23587e-08
-3.63976e-06
-4.61436e-08
-7.01168e-08
-4.00921e-06
-6.83138e-08
-4.38149e-06
-4.27529e-08
-2.48177e-09
-1.71485e-06
-1.03019e-07
-1.21473e-08
-2.1855e-06
-8.8924e-08
-2.46192e-08
-2.54788e-06
-8.16243e-08
-3.71473e-08
-2.89352e-06
-7.75186e-08
-4.79107e-08
-3.2422e-06
-7.47688e-08
-5.51652e-08
-3.59838e-06
-7.27801e-08
-5.73653e-08
-3.96147e-06
-7.13672e-08
-4.32686e-06
-7.04951e-08
-5.33725e-08
9.42656e-09
-4.14419e-08
-1.72574e-06
2.35075e-08
8.97853e-09
-4.34608e-08
-2.19228e-06
2.80672e-08
3.18209e-09
-4.25366e-08
-2.55478e-06
2.86969e-08
-5.01698e-09
-4.10648e-08
-2.90143e-06
2.81527e-08
-1.36188e-08
-3.90156e-08
-3.25173e-06
2.67795e-08
-2.08241e-08
-3.64132e-08
-3.61031e-06
2.46998e-08
-2.498e-08
-3.33724e-08
-3.9768e-06
2.20685e-08
-3.00868e-08
-4.34675e-06
1.90866e-08
-2.47712e-08
7.45226e-09
-5.69667e-08
-1.73754e-06
4.56447e-09
-5.61563e-08
-2.20564e-06
-3.57761e-09
-5.37653e-08
-2.5701e-06
-1.38184e-08
-5.15e-08
-2.91962e-06
-2.39529e-08
-4.89557e-08
-3.27367e-06
-3.20445e-08
-4.60417e-08
-3.63681e-06
-3.63316e-08
-4.28377e-08
-4.00853e-06
-3.95079e-08
-4.38412e-06
-3.54235e-08
4.644e-09
-6.88677e-08
-1.7452e-06
-1.30514e-09
-6.51832e-08
-2.21414e-06
-1.21635e-08
-6.15507e-08
-2.57992e-06
-2.47144e-08
-5.86183e-08
-2.93155e-06
-3.66267e-08
-5.57154e-08
-3.28852e-06
-4.58217e-08
-5.26626e-08
-3.65528e-06
-5.04177e-08
-4.9504e-08
-4.03118e-06
-4.63794e-08
-4.4113e-06
-4.89178e-08
2.11907e-09
-7.72386e-08
-1.74713e-06
-6.32534e-09
-7.08428e-08
-2.21603e-06
-1.94472e-08
-6.61489e-08
-2.58212e-06
-3.37401e-08
-6.27763e-08
-2.93473e-06
-4.68579e-08
-5.97328e-08
-3.29319e-06
-5.66647e-08
-5.67669e-08
-3.66192e-06
-6.12227e-08
-5.38874e-08
-4.04017e-06
-5.11946e-08
-4.42285e-06
-5.90059e-08
-2.83265e-10
-8.2016e-08
-1.74222e-06
-1.08241e-08
-7.3255e-08
-2.21015e-06
-2.56112e-08
-6.78252e-08
-2.57537e-06
-4.10766e-08
-6.42504e-08
-2.92733e-06
-5.49188e-08
-6.13017e-08
-3.28527e-06
-6.49981e-08
-5.86633e-08
-3.65354e-06
-6.93742e-08
-5.63014e-08
-4.03139e-06
-5.42768e-08
-4.41362e-06
-6.65226e-08
-2.18182e-09
-8.36069e-08
-1.73032e-06
-1.39976e-08
-7.29385e-08
-2.19643e-06
-2.94841e-08
-6.71014e-08
-2.55952e-06
-4.52162e-08
-6.35825e-08
-2.90916e-06
-5.89686e-08
-6.09627e-08
-3.26449e-06
-6.86778e-08
-5.88502e-08
-3.62987e-06
-7.24811e-08
-5.71563e-08
-4.00456e-06
-5.58765e-08
-4.38343e-06
-6.8953e-08
-5.32209e-09
-1.71255e-06
-8.05943e-08
-1.90843e-08
-2.17578e-06
-6.89065e-08
-3.57298e-08
-2.53536e-06
-6.29899e-08
-5.21812e-08
-2.88091e-06
-5.97496e-08
-6.62992e-08
-3.23141e-06
-5.76453e-08
-7.60879e-08
-3.59121e-06
-5.62342e-08
-7.97309e-08
-3.95962e-06
-5.53727e-08
-4.33165e-06
-5.50131e-08
-7.58148e-08
6.43881e-09
-4.74761e-08
-1.71695e-06
3.22411e-08
1.86343e-09
-4.80206e-08
-2.17485e-06
3.51418e-08
-8.09326e-09
-4.6175e-08
-2.53323e-06
3.45664e-08
-2.0186e-08
-4.38346e-08
-2.87849e-06
3.29792e-08
-3.21339e-08
-4.08843e-08
-3.22946e-06
3.05458e-08
-4.18911e-08
-3.73189e-08
-3.5906e-06
2.73531e-08
-4.75675e-08
-3.32928e-08
-3.96144e-06
2.35906e-08
-2.9076e-08
-4.33721e-06
1.9547e-08
-4.75982e-08
3.52145e-09
-5.93219e-08
-1.72923e-06
-4.36729e-09
-5.7427e-08
-2.18836e-06
-1.73798e-08
-5.45287e-08
-2.54875e-06
-3.20112e-08
-5.16656e-08
-2.89717e-06
-4.58501e-08
-4.8462e-08
-3.25227e-06
-5.67312e-08
-4.48323e-08
-3.61844e-06
-6.26633e-08
-4.08906e-08
-3.99502e-06
-3.68647e-08
-4.377e-06
-6.20184e-08
-7.82445e-11
-6.67055e-08
-1.73774e-06
-1.1655e-08
-6.26268e-08
-2.19738e-06
-2.80116e-08
-5.89015e-08
-2.5592e-06
-4.53724e-08
-5.57337e-08
-2.91013e-06
-6.1265e-08
-5.25004e-08
-3.26861e-06
-7.34215e-08
-4.90623e-08
-3.63891e-06
-7.97493e-08
-4.54975e-08
-4.02027e-06
-4.19898e-08
-4.40741e-06
-7.85293e-08
-3.17553e-09
-7.00488e-08
-1.74062e-06
-1.78068e-08
-6.40811e-08
-2.19996e-06
-3.67216e-08
-5.98084e-08
-2.56232e-06
-5.61036e-08
-5.65872e-08
-2.91451e-06
-7.3425e-08
-5.35824e-08
-3.27481e-06
-8.63544e-08
-5.06089e-08
-3.64746e-06
-9.27458e-08
-4.77057e-08
-4.03159e-06
-4.49943e-08
-4.42176e-06
-9.08532e-08
-5.71064e-09
-6.97992e-08
-1.73677e-06
-2.25165e-08
-6.2353e-08
-2.19508e-06
-4.31162e-08
-5.78005e-08
-2.55679e-06
-6.37537e-08
-5.47462e-08
-2.90855e-06
-8.18875e-08
-5.21884e-08
-3.26854e-06
-9.51715e-08
-4.99004e-08
-3.64098e-06
-1.01453e-07
-4.78751e-08
-4.02495e-06
-4.61716e-08
-4.41493e-06
-9.89823e-08
-7.11759e-09
-6.70065e-08
-1.726e-06
-2.48611e-08
-5.83652e-08
-2.18269e-06
-4.59326e-08
-5.37666e-08
-2.5425e-06
-6.67196e-08
-5.10539e-08
-2.89208e-06
-8.47348e-08
-4.90912e-08
-3.24958e-06
-9.7687e-08
-4.76e-08
-3.61923e-06
-1.03483e-07
-4.6516e-08
-4.00014e-06
-4.58167e-08
-4.38684e-06
-1.00451e-07
-9.08759e-09
-1.70944e-06
-6.10316e-08
-2.7787e-08
-2.1637e-06
-5.17544e-08
-4.93244e-08
-2.52032e-06
-4.72785e-08
-7.0335e-08
-2.86598e-06
-4.49817e-08
-8.84049e-08
-3.21879e-06
-4.36534e-08
-1.01289e-07
-3.58297e-06
-4.29737e-08
-1.06923e-07
-3.9577e-06
-4.28219e-08
-4.33766e-06
-4.31191e-08
-1.03634e-07
2.63167e-09
-5.26214e-08
-1.7068e-06
3.98312e-08
-6.96121e-09
-5.12495e-08
-2.15461e-06
4.05789e-08
-2.19581e-08
-4.82428e-08
-2.50859e-06
3.85792e-08
-3.86775e-08
-4.47922e-08
-2.85267e-06
3.567e-08
-5.46365e-08
-4.06748e-08
-3.20473e-06
3.18825e-08
-6.75775e-08
-3.5887e-08
-3.56908e-06
2.72828e-08
-7.53867e-08
-3.06359e-08
-3.94513e-06
2.21149e-08
-2.52829e-08
-4.32785e-06
1.67711e-08
-7.62604e-08
-1.24548e-09
-6.11492e-08
-1.71947e-06
-1.48897e-08
-5.78965e-08
-2.16809e-06
-3.34599e-08
-5.42018e-08
-2.52425e-06
-5.30819e-08
-5.05358e-08
-2.87183e-06
-7.11881e-08
-4.64566e-08
-3.22841e-06
-8.54299e-08
-4.19e-08
-3.59821e-06
-9.36219e-08
-3.70284e-08
-3.98046e-06
-3.21425e-08
-4.36987e-06
-9.39197e-08
-5.69385e-09
-6.45354e-08
-1.72868e-06
-2.36803e-08
-5.98614e-08
-2.17745e-06
-4.59235e-08
-5.58244e-08
-2.53536e-06
-6.85296e-08
-5.2249e-08
-2.88583e-06
-8.88563e-08
-4.85278e-08
-3.24623e-06
-1.0448e-07
-4.45593e-08
-3.62065e-06
-1.13148e-07
-4.04607e-08
-4.00819e-06
-3.64629e-08
-4.40331e-06
-1.12951e-07
-9.40344e-09
-6.35289e-08
-1.73223e-06
-3.07612e-08
-5.78747e-08
-2.18061e-06
-5.57943e-08
-5.38437e-08
-2.53928e-06
-8.06164e-08
-5.06644e-08
-2.89129e-06
-1.02531e-07
-4.76139e-08
-3.25383e-06
-1.19055e-07
-4.45639e-08
-3.63095e-06
-1.27891e-07
-4.15821e-08
-4.02166e-06
-3.88091e-08
-4.42022e-06
-1.27112e-07
-1.20484e-08
-5.90366e-08
-1.72923e-06
-3.55506e-08
-5.28166e-08
-2.17666e-06
-6.22791e-08
-4.90524e-08
-2.53487e-06
-8.83875e-08
-4.64824e-08
-2.88664e-06
-1.11162e-07
-4.43119e-08
-3.24909e-06
-1.28097e-07
-4.23888e-08
-3.62625e-06
-1.36889e-07
-4.07243e-08
-4.01704e-06
-3.93681e-08
-4.41568e-06
-1.35606e-07
-1.30069e-08
-5.2597e-08
-1.71944e-06
-3.70792e-08
-4.59578e-08
-2.1655e-06
-6.40709e-08
-4.25974e-08
-2.52198e-06
-9.02212e-08
-4.07305e-08
-2.8717e-06
-1.12849e-07
-3.95063e-08
-3.23178e-06
-1.29487e-07
-3.87364e-08
-3.60627e-06
-1.37871e-07
-3.83658e-08
-3.99414e-06
-3.83402e-08
-4.38964e-06
-1.36126e-07
-1.38352e-08
-1.70402e-06
-4.41994e-08
-3.80269e-08
-2.14808e-06
-3.74118e-08
-6.49132e-08
-2.50159e-06
-3.44621e-08
-9.0883e-08
-2.84753e-06
-3.32381e-08
-1.1331e-07
-3.20303e-06
-3.28606e-08
-1.29752e-07
-3.57218e-06
-3.31074e-08
-1.37954e-07
-3.95403e-06
-3.38598e-08
-4.34297e-06
-3.49881e-08
-1.36025e-07
-2.09998e-09
-5.64669e-08
-1.69414e-06
4.5906e-08
-1.7401e-08
-5.28493e-08
-2.13051e-06
4.40266e-08
-3.79145e-08
-4.83824e-08
-2.48001e-06
4.02916e-08
-5.96992e-08
-4.3572e-08
-2.82314e-06
3.57978e-08
-8.01125e-08
-3.80403e-08
-3.17668e-06
3.03751e-08
-9.67264e-08
-3.17996e-08
-3.5448e-06
2.41004e-08
-1.07252e-07
-2.51243e-08
-3.9268e-06
1.72913e-08
-1.84728e-08
-4.31743e-06
1.04525e-08
-1.09679e-07
-6.87477e-09
-6.21503e-08
-1.70693e-06
-2.68051e-08
-5.72488e-08
-2.14379e-06
-5.11667e-08
-5.25105e-08
-2.49578e-06
-7.60287e-08
-4.78339e-08
-2.84273e-06
-9.86931e-08
-4.26847e-08
-3.20113e-06
-1.16684e-07
-3.70249e-08
-3.57502e-06
-1.27685e-07
-3.10739e-08
-3.96354e-06
-2.52069e-08
-4.36118e-06
-1.29676e-07
-1.22219e-08
-6.21503e-08
-1.71647e-06
-3.68272e-08
-5.66459e-08
-2.15348e-06
-6.5051e-08
-5.21076e-08
-2.50756e-06
-9.29783e-08
-4.79769e-08
-2.85779e-06
-1.17876e-07
-4.36415e-08
-3.2204e-06
-1.37252e-07
-3.90376e-08
-3.59929e-06
-1.4877e-07
-3.43217e-08
-3.99346e-06
-2.9769e-08
-4.39717e-06
-1.50381e-07
-1.64449e-08
-5.75732e-08
-1.72038e-06
-4.45953e-08
-5.20555e-08
-2.15708e-06
-7.57284e-08
-4.81424e-08
-2.51214e-06
-1.0597e-07
-4.4927e-08
-2.86412e-06
-1.32546e-07
-4.17813e-08
-3.22914e-06
-1.52909e-07
-3.86258e-08
-3.61103e-06
-1.6469e-07
-3.55512e-08
-4.00868e-06
-3.27107e-08
-4.41616e-06
-1.65834e-07
-1.91212e-08
-4.96714e-08
-1.71803e-06
-4.93582e-08
-4.45878e-08
-2.15392e-06
-8.21546e-08
-4.15594e-08
-2.50868e-06
-1.13676e-07
-3.94729e-08
-2.8606e-06
-1.4113e-07
-3.77218e-08
-3.22572e-06
-1.61944e-07
-3.6213e-08
-3.60788e-06
-1.73745e-07
-3.49655e-08
-4.00586e-06
-3.40107e-08
-4.41369e-06
-1.74473e-07
-1.96156e-08
-4.03651e-08
-1.70915e-06
-5.01281e-08
-3.57355e-08
-2.14386e-06
-8.30248e-08
-3.36365e-08
-2.49703e-06
-1.14514e-07
-3.26939e-08
-2.84702e-06
-1.41819e-07
-3.23226e-08
-3.2099e-06
-1.62384e-07
-3.24014e-08
-3.58955e-06
-1.73859e-07
-3.28694e-08
-3.98479e-06
-3.36281e-08
-4.38969e-06
-1.74223e-07
-1.93935e-08
-1.69488e-06
-3.01211e-08
-4.93766e-08
-2.12792e-06
-2.59393e-08
-8.17442e-08
-2.47826e-06
-2.4621e-08
-1.12776e-07
-2.82459e-06
-2.46306e-08
-1.39717e-07
-3.18304e-06
-2.54034e-08
-1.60015e-07
-3.55753e-06
-2.67879e-08
-1.71305e-07
-3.94699e-06
-2.86476e-08
-4.34561e-06
-3.07862e-08
-1.71533e-07
-7.66901e-09
-5.86393e-08
-1.67779e-06
4.9946e-08
-2.90677e-08
-5.24496e-08
-2.10181e-06
4.51088e-08
-5.52201e-08
-4.62948e-08
-2.44696e-06
3.93673e-08
-8.21768e-08
-3.99191e-08
-2.78933e-06
3.30397e-08
-1.07195e-07
-3.27901e-08
-3.14466e-06
2.57574e-08
-1.27745e-07
-2.49489e-08
-3.51695e-06
1.76223e-08
-1.41432e-07
-1.67442e-08
-3.90544e-06
9.03422e-09
-8.72456e-09
-4.30469e-06
5.9086e-10
-1.46077e-07
-1.33089e-08
-6.20245e-08
-1.69026e-06
-3.95232e-08
-5.51892e-08
-2.11487e-06
-6.9568e-08
-4.92286e-08
-2.46284e-06
-9.95521e-08
-4.33854e-08
-2.80931e-06
-1.26734e-07
-3.70355e-08
-3.16974e-06
-1.48601e-07
-3.0173e-08
-3.54796e-06
-1.62782e-07
-2.30771e-08
-3.94306e-06
-1.61876e-08
-4.3494e-06
-1.67136e-07
-1.93743e-08
-5.9305e-08
-1.69984e-06
-5.04283e-08
-5.27535e-08
-2.1249e-06
-8.43152e-08
-4.7585e-08
-2.47535e-06
-1.17222e-07
-4.28007e-08
-2.8255e-06
-1.46441e-07
-3.77852e-08
-3.19047e-06
-1.69545e-07
-3.25108e-08
-3.57388e-06
-1.84208e-07
-2.71668e-08
-3.97474e-06
-2.20604e-08
-4.38727e-06
-1.88284e-07
-2.39093e-08
-5.20191e-08
-1.70378e-06
-5.85453e-08
-4.64942e-08
-2.12873e-06
-9.53396e-08
-4.26184e-08
-2.48034e-06
-1.30569e-07
-3.9331e-08
-2.8324e-06
-1.61505e-07
-3.60879e-08
-3.19993e-06
-1.85645e-07
-3.28489e-08
-3.58659e-06
-2.00639e-07
-2.97182e-08
-3.99117e-06
-2.685e-08
-4.4077e-06
-2.04351e-07
-2.65312e-08
-4.16446e-08
-1.70189e-06
-6.31511e-08
-3.76334e-08
-2.1262e-06
-1.01541e-07
-3.53165e-08
-2.47763e-06
-1.38022e-07
-3.3744e-08
-2.82974e-06
-1.69841e-07
-3.24736e-08
-3.19755e-06
-1.94465e-07
-3.14542e-08
-3.58468e-06
-2.09538e-07
-3.07019e-08
-3.98984e-06
-3.02215e-08
-4.40697e-06
-2.12923e-07
-2.65964e-08
-3.03477e-08
-1.69387e-06
-6.32643e-08
-2.77468e-08
-2.11712e-06
-1.01651e-07
-2.69459e-08
-2.46705e-06
-1.38077e-07
-2.70251e-08
-2.81734e-06
-1.69784e-07
-2.76309e-08
-3.18307e-06
-1.94236e-07
-2.86868e-08
-3.5679e-06
-2.09083e-07
-3.01124e-08
-3.97057e-06
-3.17584e-08
-4.38506e-06
-2.12213e-07
-2.54977e-08
-1.68084e-06
-1.89093e-08
-6.11874e-08
-2.10256e-06
-1.74475e-08
-9.87928e-08
-2.44977e-06
-1.78665e-08
-1.34632e-07
-2.79653e-06
-1.92768e-08
-1.65932e-07
-3.15801e-06
-2.13926e-08
-1.90128e-07
-3.53795e-06
-2.41061e-08
-2.04834e-07
-3.93519e-06
-2.72469e-08
-4.34381e-06
-3.05452e-08
-2.07887e-07
-1.3976e-08
-5.87888e-08
-1.65662e-06
5.15771e-08
-4.13296e-08
-4.97939e-08
-2.06818e-06
4.34842e-08
-7.28618e-08
-4.18324e-08
-2.40921e-06
3.55775e-08
-1.04709e-07
-3.37887e-08
-2.75101e-06
2.72726e-08
-1.34119e-07
-2.50017e-08
-3.10832e-06
1.8034e-08
-1.58555e-07
-1.55502e-08
-3.48501e-06
8.00425e-09
-1.75566e-07
-5.85818e-09
-3.88025e-06
-2.35891e-09
3.44333e-09
-4.28859e-06
-1.22714e-08
-1.82892e-07
-2.01661e-08
-6.04765e-08
-1.66843e-06
-5.22945e-08
-5.1537e-08
-2.08104e-06
-8.75002e-08
-4.42726e-08
-2.42523e-06
-1.22074e-07
-3.72017e-08
-2.77136e-06
-1.53345e-07
-2.96274e-08
-3.13388e-06
-1.78872e-07
-2.1578e-08
-3.51645e-06
-1.96305e-07
-1.33915e-08
-3.91814e-06
-5.54742e-09
-4.33333e-06
-2.03428e-07
-2.6729e-08
-5.57373e-08
-1.67787e-06
-6.36673e-08
-4.80319e-08
-2.0915e-06
-1.02464e-07
-4.21763e-08
-2.43868e-06
-1.39538e-07
-3.67188e-08
-2.78894e-06
-1.72362e-07
-3.10467e-08
-3.15626e-06
-1.98783e-07
-2.51646e-08
-3.54392e-06
-2.16546e-07
-1.92773e-08
-3.95113e-06
-1.37047e-08
-4.37227e-06
-2.23431e-07
-3.13221e-08
-4.66996e-08
-1.68152e-06
-7.17035e-08
-4.10931e-08
-2.09533e-06
-1.13284e-07
-3.72218e-08
-2.44375e-06
-1.52636e-07
-3.38791e-08
-2.79592e-06
-1.87217e-07
-3.05932e-08
-3.16584e-06
-2.14698e-07
-2.73528e-08
-3.55696e-06
-2.32811e-07
-2.42589e-08
-3.96811e-06
-2.14532e-08
-4.39344e-06
-2.3937e-07
-3.37991e-08
-3.49065e-08
-1.67991e-06
-7.60048e-08
-3.19258e-08
-2.0932e-06
-1.1908e-07
-3.03185e-08
-2.44149e-06
-1.59653e-07
-2.93126e-08
-2.79377e-06
-1.95136e-07
-2.86015e-08
-3.1641e-06
-2.23135e-07
-2.81591e-08
-3.55591e-06
-2.41377e-07
-2.79875e-08
-3.96791e-06
-2.80598e-08
-4.39411e-06
-2.47683e-07
-3.34992e-08
-2.26068e-08
-1.67269e-06
-7.55978e-08
-2.20308e-08
-2.08495e-06
-1.18629e-07
-2.25601e-08
-2.43181e-06
-1.59188e-07
-2.37491e-08
-2.78238e-06
-1.94649e-07
-2.54352e-08
-3.15082e-06
-2.22588e-07
-2.75643e-08
-3.54059e-06
-2.40727e-07
-3.00278e-08
-3.95043e-06
-3.26272e-08
-4.37436e-06
-2.46904e-07
-3.17527e-08
-1.66101e-06
-1.07131e-08
-7.26362e-08
-2.07171e-06
-1.20368e-08
-1.1482e-07
-2.41591e-06
-1.42705e-08
-1.54823e-07
-2.76309e-06
-1.72138e-08
-1.89961e-07
-3.12753e-06
-2.08143e-08
-2.17753e-07
-3.51278e-06
-2.49818e-08
-2.35859e-07
-3.91765e-06
-2.95026e-08
-4.33624e-06
-3.40396e-08
-2.4206e-07
-2.05844e-08
-5.66514e-08
-1.62987e-06
5.04751e-08
-5.33789e-08
-4.4831e-08
-2.02963e-06
3.90242e-08
-8.96108e-08
-3.50931e-08
-2.36687e-06
2.89464e-08
-1.25644e-07
-2.54357e-08
-2.70826e-06
1.86841e-08
-1.58825e-07
-1.51e-08
-3.06766e-06
7.58071e-09
-1.86686e-07
-4.20887e-09
-3.4488e-06
-4.18271e-09
-2.06848e-07
6.73648e-09
-3.85089e-06
-1.59874e-08
1.70952e-08
-4.26849e-06
-2.7133e-08
-2.16959e-07
-2.69764e-08
-5.73118e-08
-1.64082e-06
-6.42352e-08
-4.62923e-08
-2.04236e-06
-1.03661e-07
-3.77705e-08
-2.38316e-06
-1.41864e-07
-2.95481e-08
-2.72909e-06
-1.76384e-07
-2.08661e-08
-3.09363e-06
-2.04968e-07
-1.17793e-08
-3.48034e-06
-2.25334e-07
-2.68283e-09
-3.8884e-06
5.90269e-09
-4.31234e-06
-2.35179e-07
-3.38682e-08
-5.12419e-08
-1.6501e-06
-7.57337e-08
-4.24258e-08
-2.05354e-06
-1.18243e-07
-3.59206e-08
-2.39806e-06
-1.58163e-07
-2.98696e-08
-2.74874e-06
-1.93312e-07
-2.36718e-08
-3.11835e-06
-2.22212e-07
-1.73623e-08
-3.50948e-06
-2.42635e-07
-1.11253e-08
-3.92231e-06
-5.27262e-09
-4.35155e-06
-2.52227e-07
-3.81983e-08
-4.14673e-08
-1.65312e-06
-8.31611e-08
-3.57886e-08
-2.05705e-06
-1.28228e-07
-3.19452e-08
-2.4027e-06
-1.70405e-07
-2.86186e-08
-2.75503e-06
-2.07496e-07
-2.54049e-08
-3.12706e-06
-2.37484e-07
-2.23081e-08
-3.52207e-06
-2.58198e-07
-1.94e-08
-3.93917e-06
-1.67954e-08
-4.37277e-06
-2.67396e-07
-4.04128e-08
-2.93967e-08
-1.65159e-06
-8.69648e-08
-2.74222e-08
-2.05505e-06
-1.3341e-07
-2.65387e-08
-2.40049e-06
-1.7683e-07
-2.61602e-08
-2.75285e-06
-2.14906e-07
-2.6089e-08
-3.12538e-06
-2.45459e-07
-2.63072e-08
-3.52141e-06
-2.66329e-07
-2.67918e-08
-3.9397e-06
-2.74837e-08
-4.37449e-06
-2.75307e-07
-3.98209e-08
-1.71773e-08
-1.64512e-06
-8.6182e-08
-1.8571e-08
-2.04748e-06
-1.32616e-07
-2.04343e-08
-2.39152e-06
-1.76135e-07
-2.27814e-08
-2.74228e-06
-2.14338e-07
-2.55968e-08
-3.11315e-06
-2.44979e-07
-2.88305e-08
-3.50747e-06
-2.65884e-07
-3.23423e-08
-3.92402e-06
-3.58953e-08
-4.35702e-06
-2.74865e-07
-3.76751e-08
-1.63484e-06
-5.69407e-09
-8.28036e-08
-2.03546e-06
-9.73579e-09
-1.2851e-07
-2.37689e-06
-1.37896e-08
-1.71658e-07
-2.72445e-06
-1.83168e-08
-2.09747e-07
-3.09164e-06
-2.34433e-08
-2.40439e-07
-3.48188e-06
-2.90751e-08
-2.61488e-07
-3.89403e-06
-3.49554e-08
-4.32234e-06
-4.06978e-08
-2.70643e-07
-2.69989e-08
-5.21782e-08
-1.59721e-06
4.6502e-08
-6.42985e-08
-3.77772e-08
-1.98647e-06
3.18757e-08
-1.04144e-07
-2.64768e-08
-2.3204e-06
1.98157e-08
-1.43259e-07
-1.54503e-08
-2.66157e-06
7.82795e-09
-1.7919e-07
-3.86993e-09
-3.02308e-06
-4.82689e-09
-2.09675e-07
8.10041e-09
-3.40863e-06
-1.78332e-08
-2.32376e-07
1.9875e-08
-3.81748e-06
-3.06327e-08
3.08091e-08
-4.24433e-06
-4.25068e-08
-2.44889e-07
-3.32483e-08
-5.25485e-08
-1.60723e-06
-7.44577e-08
-3.9684e-08
-1.9993e-06
-1.16778e-07
-3.01134e-08
-2.33725e-06
-1.5726e-07
-2.09792e-08
-2.68312e-06
-1.93819e-07
-1.14466e-08
-3.04954e-06
-2.24515e-07
-1.55502e-09
-3.44004e-06
-2.47052e-07
8.05912e-09
-3.8541e-06
1.70029e-08
-4.28654e-06
-2.59109e-07
-4.04125e-08
-4.57425e-08
-1.61652e-06
-8.59544e-08
-3.60098e-08
-2.01172e-06
-1.3061e-07
-2.89932e-08
-2.35457e-06
-1.7151e-07
-2.25256e-08
-2.70634e-06
-2.07036e-07
-1.60415e-08
-3.07827e-06
-2.37278e-07
-9.61005e-09
-3.47123e-06
-2.59673e-07
-3.33397e-09
-3.88858e-06
2.50343e-09
-4.32526e-06
-2.71527e-07
-4.40229e-08
-3.62171e-08
-1.61865e-06
-9.20938e-08
-3.05606e-08
-2.01447e-06
-1.39041e-07
-2.68169e-08
-2.35797e-06
-1.82367e-07
-2.36247e-08
-2.71065e-06
-2.20448e-07
-2.06588e-08
-3.08441e-06
-2.51805e-07
-1.7912e-08
-3.48246e-06
-2.74259e-07
-1.53871e-08
-3.90471e-06
-1.31598e-08
-4.34597e-06
-2.85451e-07
-4.57884e-08
-2.50147e-08
-1.61703e-06
-9.51082e-08
-2.40484e-08
-2.01229e-06
-1.43335e-07
-2.39088e-08
-2.35521e-06
-1.88089e-07
-2.42115e-08
-2.70755e-06
-2.27418e-07
-2.48482e-08
-3.08191e-06
-2.59401e-07
-2.57907e-08
-3.48159e-06
-2.81975e-07
-2.69799e-08
-3.90558e-06
-2.83285e-08
-4.34845e-06
-2.92896e-07
-4.49941e-08
-1.39718e-08
-1.61119e-06
-9.40912e-08
-1.7241e-08
-2.00524e-06
-1.42409e-07
-2.03992e-08
-2.34675e-06
-1.87461e-07
-2.38897e-08
-2.69759e-06
-2.27128e-07
-2.78049e-08
-3.07057e-06
-2.59365e-07
-3.20853e-08
-3.46899e-06
-2.82106e-07
-3.65626e-08
-3.89175e-06
-4.09788e-08
-4.33339e-06
-2.93143e-07
-4.2749e-08
-1.6023e-06
-3.7942e-09
-9.07811e-08
-1.99433e-06
-1.03906e-08
-1.38642e-07
-2.33329e-06
-1.61797e-08
-1.83634e-07
-2.68116e-06
-2.22295e-08
-2.23487e-07
-3.05084e-06
-2.87881e-08
-2.56038e-07
-3.44572e-06
-3.57465e-08
-2.79141e-07
-3.86472e-06
-4.28152e-08
-4.3024e-06
-4.9587e-08
-2.9053e-07
-3.26428e-08
-4.56136e-08
-1.55878e-06
3.98151e-08
-7.31549e-08
-2.91149e-08
-1.93938e-06
2.24843e-08
-1.15217e-07
-1.66579e-08
-2.27058e-06
8.84588e-09
-1.56008e-07
-4.7006e-09
-2.6117e-06
-4.421e-09
-1.93457e-07
7.66679e-09
-2.97535e-06
-1.79922e-08
-2.25464e-07
2.01646e-08
-3.36522e-06
-3.16226e-08
-2.49748e-07
3.21445e-08
-3.78068e-06
-4.47164e-08
4.30721e-08
-4.2167e-06
-5.66375e-08
-2.63867e-07
-3.83775e-08
-4.64353e-08
-1.56807e-06
-8.21146e-08
-3.21513e-08
-1.95258e-06
-1.25772e-07
-2.19152e-08
-2.28839e-06
-1.66935e-07
-1.22258e-08
-2.63448e-06
-2.04181e-07
-2.08026e-09
-3.0026e-06
-2.35751e-07
8.02578e-09
-3.39638e-06
-2.59456e-07
1.77218e-08
-3.81603e-06
2.65701e-08
-4.25668e-06
-2.72876e-07
-4.5926e-08
-3.93034e-08
-1.57775e-06
-9.3822e-08
-2.89933e-08
-1.96704e-06
-1.387e-07
-2.16982e-08
-2.30996e-06
-1.77919e-07
-1.51088e-08
-2.66428e-06
-2.12096e-07
-8.74457e-09
-3.03748e-06
-2.42505e-07
-2.57916e-09
-3.43027e-06
-2.66109e-07
3.38823e-09
-3.85069e-06
8.86541e-09
-4.29419e-06
-2.79534e-07
-4.82308e-08
-3.09163e-08
-1.57884e-06
-9.78859e-08
-2.54522e-08
-1.96841e-06
-1.45002e-07
-2.19138e-08
-2.31069e-06
-1.8753e-07
-1.90154e-08
-2.66427e-06
-2.24876e-07
-1.65269e-08
-3.03933e-06
-2.56421e-07
-1.4384e-08
-3.43916e-06
-2.79614e-07
-1.24606e-08
-3.86573e-06
-1.08057e-08
-4.31408e-06
-2.9189e-07
-4.92752e-08
-2.16666e-08
-1.57704e-06
-9.96828e-08
-2.17203e-08
-1.96567e-06
-1.48046e-07
-2.23333e-08
-2.30648e-06
-1.92542e-07
-2.33485e-08
-2.65877e-06
-2.31696e-07
-2.47325e-08
-3.0346e-06
-2.63862e-07
-2.64244e-08
-3.43744e-06
-2.87015e-07
-2.83209e-08
-3.86662e-06
-3.03147e-08
-4.31716e-06
-2.98862e-07
-4.83468e-08
-1.28204e-08
-1.57172e-06
-9.8529e-08
-1.7817e-08
-1.95901e-06
-1.47154e-07
-2.21661e-08
-2.29834e-06
-1.92253e-07
-2.67018e-08
-2.64919e-06
-2.32015e-07
-3.15917e-08
-3.024e-06
-2.64592e-07
-3.67584e-08
-3.42613e-06
-2.88004e-07
-4.20132e-08
-3.8547e-06
-4.70981e-08
-4.30464e-06
-3.00031e-07
-4.63101e-08
-1.56406e-06
-4.7829e-09
-9.5727e-08
-1.94911e-06
-1.36647e-08
-1.44269e-07
-2.28597e-06
-2.09915e-08
-1.89701e-07
-2.63412e-06
-2.8363e-08
-2.3e-07
-3.00608e-06
-3.61057e-08
-2.63173e-07
-3.40526e-06
-4.40927e-08
-2.87168e-07
-3.83078e-06
-5.20193e-08
-4.27752e-06
-5.94901e-08
-2.99707e-07
-3.68408e-08
-3.73238e-08
-1.51545e-06
3.08104e-08
-7.91131e-08
-1.94468e-08
-1.88924e-06
1.15176e-08
-1.21864e-07
-6.42719e-09
-2.21833e-06
-3.1122e-09
-1.62929e-07
5.9193e-09
-2.55972e-06
-1.68842e-08
-2.00603e-07
1.84711e-08
-2.92555e-06
-3.06568e-08
-2.32924e-07
3.07696e-08
-3.31964e-06
-4.40882e-08
-2.57664e-07
4.224e-08
-3.7416e-06
-5.66382e-08
5.24494e-08
-4.18675e-06
-6.77892e-08
-2.72345e-07
-4.18154e-08
-3.92545e-08
-1.52436e-06
-8.65792e-08
-2.41679e-08
-1.90315e-06
-1.29973e-07
-1.37446e-08
-2.23772e-06
-1.70348e-07
-3.76043e-09
-2.58448e-06
-2.06873e-07
6.26255e-09
-2.95392e-06
-2.38174e-07
1.61418e-08
-3.35051e-06
-2.61967e-07
2.53563e-08
-3.77541e-06
3.35404e-08
-4.22408e-06
-2.75723e-07
-5.00557e-08
-3.21529e-08
-1.53483e-06
-9.8779e-08
-2.17305e-08
-1.9208e-06
-1.4111e-07
-1.45108e-08
-2.26691e-06
-1.7664e-07
-8.30197e-09
-2.62441e-06
-2.08723e-07
-2.52116e-09
-2.99818e-06
-2.38682e-07
3.08862e-09
-3.38731e-06
-2.62637e-07
8.37148e-09
-3.80981e-06
1.30604e-08
-4.25973e-06
-2.76672e-07
-5.05123e-08
-2.56967e-08
-1.53481e-06
-1.00179e-07
-2.06623e-08
-1.91986e-06
-1.45716e-07
-1.75061e-08
-2.26221e-06
-1.8578e-07
-1.51302e-08
-2.61742e-06
-2.21224e-07
-1.3355e-08
-2.9931e-06
-2.51769e-07
-1.20033e-08
-3.39358e-06
-2.74694e-07
-1.08625e-08
-3.82363e-06
-9.9526e-09
-4.27873e-06
-2.87098e-07
-5.05934e-08
-1.93422e-08
-1.53283e-06
-1.0046e-07
-2.04015e-08
-1.91611e-06
-1.47427e-07
-2.17508e-08
-2.25532e-06
-1.90181e-07
-2.34705e-08
-2.60772e-06
-2.27889e-07
-2.55913e-08
-2.98471e-06
-2.5909e-07
-2.79912e-08
-3.3903e-06
-2.81732e-07
-3.05269e-08
-3.82437e-06
-3.30856e-08
-4.28235e-06
-2.93474e-07
-4.95361e-08
-1.35531e-08
-1.52801e-06
-9.91931e-08
-2.00223e-08
-1.90979e-06
-1.46654e-07
-2.53657e-08
-2.24731e-06
-1.90428e-07
-3.07508e-08
-2.59819e-06
-2.29024e-07
-3.63891e-08
-2.97465e-06
-2.60747e-07
-4.21774e-08
-3.38028e-06
-2.83676e-07
-4.7919e-08
-3.81443e-06
-5.33758e-08
-4.2725e-06
-2.9559e-07
-4.78908e-08
-1.52139e-06
-8.3578e-09
-9.71786e-08
-1.90082e-06
-1.90825e-08
-1.45004e-07
-2.23595e-06
-2.76041e-08
-1.89551e-07
-2.58442e-06
-3.59479e-08
-2.29039e-07
-2.95856e-06
-4.44768e-08
-2.61615e-07
-3.36187e-06
-5.30478e-08
-2.85301e-07
-3.79371e-06
-6.13612e-08
-4.24937e-06
-6.90625e-08
-2.97831e-07
-3.92337e-08
-2.76752e-08
-1.46853e-06
1.99729e-08
-8.17387e-08
-9.33568e-09
-1.83709e-06
-3.66743e-10
-1.23837e-07
3.54673e-09
-2.16487e-06
-1.49653e-08
-1.63912e-07
1.57385e-08
-2.50694e-06
-2.85024e-08
-2.00649e-07
2.76794e-08
-2.87495e-06
-4.15927e-08
-2.32165e-07
3.89716e-08
-3.27323e-06
-5.3921e-08
-2.56259e-07
4.91302e-08
-3.70166e-06
-6.50324e-08
5.78581e-08
-4.15592e-06
-7.45565e-08
-2.70447e-07
-4.34155e-08
-3.11757e-08
-1.47748e-06
-8.77343e-08
-1.60256e-08
-1.8522e-06
-1.29536e-07
-5.79291e-09
-2.18664e-06
-1.67732e-07
3.79902e-09
-2.53459e-06
-2.02678e-07
1.30696e-08
-2.90455e-06
-2.32779e-07
2.21994e-08
-3.30369e-06
-2.55655e-07
3.02984e-08
-3.73376e-06
3.71938e-08
-4.19039e-06
-2.68741e-07
-5.22701e-08
-2.4773e-08
-1.489e-06
-9.94681e-08
-1.48307e-08
-1.87486e-06
-1.3732e-07
-8.28311e-09
-2.22691e-06
-1.69652e-07
-2.91248e-09
-2.58796e-06
-1.98751e-07
2.06583e-09
-2.96086e-06
-2.28925e-07
6.82178e-09
-3.3418e-06
-2.52214e-07
1.10214e-08
-3.7673e-06
1.46102e-08
-4.22385e-06
-2.65577e-07
-5.08146e-08
-2.09297e-08
-1.48788e-06
-9.89389e-08
-1.66463e-08
-1.86998e-06
-1.41639e-07
-1.41299e-08
-2.21391e-06
-1.78123e-07
-1.24999e-08
-2.57225e-06
-2.11281e-07
-1.16271e-08
-2.9474e-06
-2.40226e-07
-1.11128e-08
-3.34676e-06
-2.61955e-07
-1.08048e-08
-3.78013e-06
-1.07025e-08
-4.24192e-06
-2.73518e-07
-4.99519e-08
-1.8115e-08
-1.48573e-06
-9.78472e-08
-2.01424e-08
-1.86478e-06
-1.42173e-07
-2.21858e-08
-2.20298e-06
-1.81983e-07
-2.45441e-08
-2.55592e-06
-2.17399e-07
-2.73093e-08
-2.93366e-06
-2.46788e-07
-3.02791e-08
-3.3418e-06
-2.68052e-07
-3.32922e-08
-3.78068e-06
-3.62504e-08
-4.24607e-06
-2.78848e-07
-4.87579e-08
-1.59607e-08
-1.48144e-06
-9.64646e-08
-2.35348e-08
-1.85874e-06
-1.41501e-07
-2.95819e-08
-2.19493e-06
-1.82834e-07
-3.55286e-08
-2.54592e-06
-2.19286e-07
-4.15969e-08
-2.92397e-06
-2.49224e-07
-4.76534e-08
-3.33302e-06
-2.70749e-07
-5.35084e-08
-3.77275e-06
-5.89617e-08
-4.23893e-06
-2.81669e-07
-4.75436e-08
-1.47572e-06
-1.41219e-08
-9.53103e-08
-1.85059e-06
-2.60463e-08
-1.41203e-07
-2.18442e-06