/*--------------------------------*- C++ -*----------------------------------*\
| =========                 |                                                 |
| \\      /  F ield         | OpenFOAM: The Open Source CFD Toolbox           |
|  \\    /   O peration     | Version:  plus.master.MPPICInterFoam            |
|   \\  /    A nd           | Web:      www.OpenFOAM.com                      |
|    \\/     M anipulation  |                                                 |
\*---------------------------------------------------------------------------*/
FoamFile
{
    version     2.0;
    format      ascii;
    class       volScalarField;
    location    "12.6";
    object      k;
}
// * * * * * * * * * * * * * * * * * * * * * * * * * * * * * * * * * * * * * //

dimensions      [0 2 -2 0 0 0 0];

internalField   nonuniform List<scalar> 
11821
(
0.0488214
0.0585649
0.0468718
0.0627345
0.05233
0.0425526
0.0530182
0.056978
0.0573096
0.0543712
0.0493911
0.0434996
0.0373254
0.0655027
0.0711078
0.0712027
0.0663369
0.0589108
0.0507374
0.0428442
0.0740128
0.0772396
0.0793936
0.0767185
0.0680005
0.0573325
0.0474685
0.0734098
0.067327
0.074197
0.0815691
0.0747233
0.0619883
0.0504483
0.070067
0.0660449
0.0664127
0.080308
0.0760317
0.0629699
0.0509898
0.073468
0.0704328
0.0742361
0.0775442
0.0723742
0.060108
0.0489655
0.0709814
0.0733486
0.0745732
0.0715742
0.0638661
0.0540616
0.0446649
0.0541225
0.0581013
0.0585837
0.0558866
0.0511968
0.0454935
0.0393304
0.0665323
0.0728199
0.0730659
0.0679535
0.0605512
0.0526353
0.0448595
0.0785179
0.0850415
0.0868142
0.0809487
0.0697995
0.0590338
0.0493886
0.0801474
0.0794906
0.0861839
0.0898956
0.0770196
0.0634868
0.0522534
0.0772108
0.0666654
0.0767161
0.0902261
0.0787315
0.064447
0.0527619
0.0787425
0.0769002
0.0817062
0.0847583
0.0739837
0.0615097
0.0507331
0.0733972
0.0802126
0.0804109
0.0747373
0.0654005
0.0556879
0.0464878
0.0553214
0.0591331
0.0596497
0.0572148
0.0527766
0.04718
0.040996
0.0671731
0.0729668
0.0732888
0.0686607
0.0618369
0.0542421
0.0465417
0.0782994
0.0866271
0.0879229
0.080928
0.0705573
0.0604288
0.0510206
0.0848297
0.081554
0.0867748
0.0906464
0.0773201
0.0646503
0.053814
0.0843031
0.0721433
0.0823871
0.0922108
0.079126
0.0656435
0.0543277
0.0810657
0.0822597
0.0858379
0.0853046
0.0748974
0.0629177
0.0523452
0.0735211
0.0795892
0.0805029
0.0756534
0.0668065
0.0573
0.048112
0.0567785
0.0605118
0.061024
0.0586919
0.054318
0.0487092
0.0424621
0.0685276
0.0736994
0.0738944
0.069757
0.0632718
0.0557693
0.0480403
0.0783406
0.0814839
0.0843636
0.0805084
0.0716273
0.0618817
0.0525156
0.0786
0.0769503
0.0834937
0.0868214
0.0777618
0.0659848
0.0552841
0.0783453
0.0763172
0.0775878
0.0856446
0.0794456
0.0669771
0.0557881
0.0779129
0.0777039
0.080056
0.085181
0.0759302
0.0644405
0.0538147
0.0722476
0.0753576
0.0786399
0.0758231
0.0683109
0.0588351
0.0495323
0.0581952
0.0619978
0.0625542
0.0602428
0.055822
0.0501251
0.0437798
0.0696504
0.0744705
0.0749004
0.0711198
0.0647751
0.0572268
0.049412
0.0749778
0.0792128
0.0821627
0.0807182
0.0729216
0.0633445
0.053921
0.0727334
0.0795277
0.0839898
0.084288
0.0786458
0.0674059
0.0566878
0.0673877
0.0738386
0.0796473
0.0833704
0.0800251
0.0683476
0.0571575
0.0688715
0.0716565
0.0767266
0.0809392
0.0769722
0.0658329
0.0551654
0.0704332
0.0729195
0.0747123
0.0757307
0.069387
0.0601565
0.0508317
0.0595409
0.0635329
0.0640942
0.0617002
0.0571598
0.0513448
0.0448775
0.0712067
0.0763936
0.0766293
0.0726704
0.0661968
0.0585268
0.0505825
0.0777872
0.0831523
0.085258
0.0824548
0.0743762
0.0647046
0.0551529
0.0764047
0.0780797
0.0830205
0.0872416
0.0801977
0.0688127
0.0579616
0.0699662
0.0729818
0.0822179
0.0853064
0.0815256
0.0697106
0.0584219
0.0735475
0.0718925
0.079848
0.083031
0.078202
0.0670969
0.0563784
0.0723901
0.0749673
0.077214
0.0767652
0.070441
0.0613315
0.0519819
0.0605204
0.0646604
0.0652408
0.0627653
0.0581051
0.0521764
0.0456127
0.0724682
0.0780887
0.0783071
0.0741025
0.0673185
0.0594405
0.0513607
0.0813004
0.0865862
0.0894107
0.0850745
0.0758295
0.0657298
0.0559792
0.0807845
0.080074
0.0900699
0.0921379
0.0820109
0.069932
0.0588314
0.0749121
0.0791609
0.0817447
0.0923961
0.0835668
0.0708673
0.0593133
0.0764922
0.0778361
0.085531
0.088095
0.0797924
0.0681267
0.0572324
0.0753339
0.0792586
0.0822595
0.0795566
0.0717357
0.062285
0.0527989
0.061087
0.0652351
0.0657635
0.0632247
0.0585383
0.0525916
0.0460153
0.073166
0.0789849
0.0791124
0.0746643
0.0677536
0.0598306
0.0517361
0.0833236
0.0898766
0.0923183
0.0862211
0.0763801
0.0661148
0.0563351
0.0842433
0.0872461
0.0951572
0.0948498
0.0828081
0.0703528
0.059191
0.0822396
0.0752919
0.0891795
0.0953692
0.0845657
0.0713662
0.0597072
0.0816437
0.0826933
0.0895313
0.0910417
0.0806423
0.0686283
0.0576463
0.0762163
0.0820198
0.0838985
0.0807625
0.0724276
0.0627946
0.053237
0.0614086
0.0654198
0.0658503
0.0633104
0.058664
0.0527638
0.0462292
0.0735339
0.0789786
0.0788859
0.0744826
0.0677028
0.0598931
0.0518828
0.0837091
0.0897164
0.0911935
0.0856202
0.076106
0.0660646
0.0564221
0.0849958
0.0858549
0.0947381
0.0933775
0.0823233
0.0702288
0.0592508
0.0834352
0.0781468
0.0876779
0.0935999
0.0840681
0.0712719
0.0597882
0.0794574
0.0802121
0.0880504
0.0904988
0.080552
0.0686601
0.0577803
0.0762679
0.0814596
0.0838397
0.0806844
0.072551
0.0629295
0.0534292
0.0615619
0.0654835
0.0658552
0.0633329
0.0587233
0.0528608
0.0463633
0.0733211
0.078544
0.0783788
0.0741423
0.067557
0.0598753
0.0519582
0.0817419
0.0876485
0.0892965
0.0845717
0.0756765
0.065922
0.0564439
0.081019
0.0864338
0.0940057
0.0913489
0.0816324
0.0700005
0.0592494
0.0765604
0.0830132
0.0909845
0.0915932
0.0833708
0.07105
0.0597989
0.0796939
0.0815425
0.0865891
0.0882388
0.080018
0.0685199
0.0578338
0.0736769
0.0776303
0.0808435
0.0795822
0.0722492
0.0629
0.05354
0.0617791
0.0656674
0.0660041
0.0634457
0.0588039
0.0529296
0.0464297
0.0733771
0.078501
0.0783026
0.074104
0.067547
0.0598941
0.0519956
0.0813996
0.0869416
0.0889397
0.08428
0.0755451
0.0658923
0.0564629
0.0819859
0.0874169
0.0914376
0.0910575
0.0814465
0.0699599
0.0592708
0.0756521
0.0815813
0.091481
0.0915591
0.0832486
0.0710324
0.0598384
0.0746353
0.0807589
0.0872163
0.088303
0.0799328
0.0685328
0.0578964
0.0736834
0.0785343
0.0814117
0.0796028
0.0722385
0.0629533
0.0536317
0.0619194
0.0658135
0.0661264
0.0635037
0.0587988
0.0528876
0.0463802
0.0734732
0.0787093
0.0784912
0.0741937
0.0675422
0.0598328
0.0519194
0.0819578
0.0878907
0.0897909
0.0845202
0.0755721
0.0658303
0.0563758
0.0824991
0.0847248
0.0924003
0.0919504
0.0815561
0.0699162
0.0591889
0.0760831
0.0810339
0.0853102
0.0932812
0.0834692
0.0710181
0.0597744
0.0763716
0.0778902
0.0875098
0.0892252
0.0801011
0.0685332
0.0578548
0.0740834
0.0794615
0.0830818
0.0802645
0.0723839
0.0629726
0.053617
0.0618694
0.0657176
0.0659726
0.0633022
0.058574
0.0526744
0.0462041
0.0734779
0.0787356
0.0784477
0.0740164
0.0672712
0.0595553
0.0516851
0.0825095
0.0885622
0.090604
0.0846631
0.0753165
0.0655099
0.0560981
0.0829867
0.0870818
0.0948835
0.092713
0.0813584
0.0695768
0.0588893
0.0808734
0.0799829
0.0901375
0.0943278
0.0833542
0.0706941
0.0594828
0.0774774
0.0803538
0.0894869
0.0904331
0.0800167
0.0682525
0.0575989
0.074277
0.0798785
0.0836372
0.0804912
0.0722652
0.0627474
0.0534171
0.0616261
0.0653297
0.0655097
0.0628566
0.0581918
0.0523673
0.0459725
0.0732428
0.0781547
0.0777184
0.0733468
0.066722
0.0591282
0.0513733
0.0825683
0.088037
0.0894655
0.0837118
0.0745874
0.0649651
0.0557137
0.0833153
0.0861775
0.0945264
0.0912692
0.0804294
0.068939
0.0584577
0.0823844
0.0816929
0.0893114
0.0923055
0.0822847
0.0700337
0.0590488
0.0806089
0.0812541
0.0889915
0.0894085
0.0792058
0.0676722
0.0572084
0.0742863
0.0794316
0.0831939
0.0798833
0.0716851
0.0622902
0.0531043
0.0613093
0.0649119
0.0650463
0.062433
0.0578449
0.052102
0.0457716
0.072663
0.0773997
0.0768647
0.0726208
0.0661768
0.058746
0.0511068
0.0812903
0.0869327
0.0880057
0.0825567
0.0737968
0.0644529
0.0553828
0.0819046
0.0887063
0.0929301
0.0897375
0.0794182
0.0683227
0.0580821
0.0761877
0.0838551
0.092091
0.0908532
0.0812373
0.069394
0.0586688
0.0773337
0.0797764
0.0877936
0.087745
0.0782046
0.0670824
0.0568638
0.0728018
0.0778318
0.0810342
0.0786819
0.0709152
0.0618229
0.0528298
0.0611331
0.0646832
0.0647997
0.0622037
0.0576502
0.0519331
0.0456156
0.0722746
0.0769127
0.0763489
0.0721964
0.065871
0.0585239
0.0509254
0.0808798
0.0865595
0.0871502
0.0817843
0.0733297
0.0641629
0.0551769
0.0820381
0.089375
0.0922249
0.0886685
0.0787915
0.0679722
0.0578592
0.0753889
0.0832237
0.0905318
0.0896001
0.0805056
0.0690135
0.0584454
0.0734519
0.0813024
0.0871228
0.086584
0.077529
0.0667344
0.0566632
0.0718653
0.077435
0.0802985
0.0777906
0.0704061
0.0615508
0.0526691
0.00876164
0.00356542
0.024949
0.0203996
0.0164437
0.0128589
0.00921401
0.00369678
0.0389368
0.0320323
0.026252
0.0213455
0.0171085
0.0133081
0.00949449
0.00374272
0.0393921
0.0324506
0.0266166
0.0216388
0.0173265
0.0134595
0.00959362
0.00374769
0.0379149
0.0315351
0.0260736
0.021325
0.0171493
0.0133674
0.00956291
0.00383036
0.0350314
0.0297707
0.0249739
0.0206386
0.0167292
0.0131231
0.00943955
0.00390605
0.0311625
0.0267648
0.0227463
0.0190859
0.0157205
0.0125088
0.00906989
0.00373239
0.0353774
0.0298111
0.0249846
0.0207404
0.0169398
0.0133945
0.00968105
0.00395239
0.0389787
0.0325252
0.0269942
0.0222062
0.0179897
0.0141245
0.0101501
0.00408769
0.0412758
0.0342769
0.0283066
0.0231643
0.0186679
0.0145858
0.0104403
0.00413744
0.0416828
0.0346569
0.0286401
0.0234352
0.0188732
0.0147335
0.0105408
0.00415243
0.0401419
0.0336736
0.0280323
0.0230652
0.018653
0.0146138
0.010497
0.00423593
0.0371969
0.0318218
0.0268432
0.0222968
0.0181645
0.0143187
0.0103418
0.0043067
0.0330707
0.0285502
0.0243791
0.0205471
0.0169948
0.0135749
0.00987784
0.00407837
0.037342
0.0316659
0.0266878
0.0222646
0.0182637
0.0144954
0.0105081
0.00430309
0.0409274
0.0343978
0.0287286
0.0237642
0.0193433
0.0152467
0.0109902
0.00444138
0.0431781
0.0361335
0.03004
0.0247308
0.0200355
0.0157235
0.0112923
0.00449482
0.043556
0.0364858
0.0303504
0.0249875
0.0202371
0.0158756
0.0114015
0.00452667
0.0419897
0.0354605
0.0296965
0.0245777
0.0199906
0.0157442
0.0113563
0.00461744
0.0390167
0.0335484
0.028438
0.0237445
0.0194512
0.0154158
0.0111846
0.00468892
0.0346933
0.0300828
0.0257951
0.0218249
0.0181145
0.0145144
0.0105916
0.00438252
0.0390072
0.0332527
0.0281607
0.0235935
0.0194237
0.015462
0.0112367
0.00461036
0.0425834
0.0359975
0.0302263
0.0251223
0.0205308
0.0162358
0.0117331
0.00475292
0.0448048
0.0377229
0.0315393
0.0261003
0.0212408
0.0167315
0.0120503
0.00481579
0.0451735
0.0380587
0.0318347
0.0263534
0.0214508
0.0168994
0.0121767
0.00487417
0.0436035
0.0370043
0.0311512
0.0259256
0.0211997
0.0167737
0.0121424
0.004974
0.0405874
0.0350326
0.0298365
0.0250467
0.0206307
0.0164318
0.0119697
0.00505199
0.0361242
0.0314281
0.0270315
0.0229343
0.0190816
0.0153219
0.0112018
0.00464047
0.0404835
0.0346506
0.0294489
0.0247476
0.0204248
0.0162927
0.0118602
0.00487242
0.0440641
0.0374145
0.0315435
0.0263088
0.0215618
0.017089
0.0123702
0.00502125
0.0462689
0.0391368
0.03287
0.0273109
0.0222985
0.017609
0.0127054
0.00509527
0.0466212
0.0394609
0.0331703
0.0275796
0.0225299
0.0178009
0.012855
0.00518323
0.0450364
0.0383939
0.0324804
0.0271536
0.0222898
0.0176923
0.012839
0.00529479
0.0419668
0.0363763
0.031124
0.0262481
0.0217109
0.0173531
0.0126761
0.00538282
0.0373854
0.0325908
0.0280832
0.0238659
0.0198868
0.0159906
0.0117048
0.00485247
0.0418061
0.0358716
0.03055
0.0257171
0.021257
0.0169789
0.0123728
0.00508718
0.0454182
0.0386747
0.0326835
0.027312
0.0224201
0.0177941
0.0128944
0.00523976
0.0476291
0.0404196
0.034039
0.0283436
0.0231846
0.0183382
0.013248
0.00532485
0.0479699
0.0407516
0.0343574
0.0286361
0.0234427
0.0185571
0.0134224
0.00544475
0.0463821
0.0396816
0.0336713
0.028223
0.0232215
0.0184698
0.0134263
0.00556825
0.0432674
0.0376218
0.0322894
0.0273095
0.0226467
0.0181412
0.0132759
0.00566604
0.0383948
0.0335067
0.0289058
0.0245957
0.0205223
0.0165238
0.0121094
0.00501892
0.0428771
0.0368326
0.0314052
0.0264703
0.0219086
0.0175219
0.012782
0.00525511
0.0465352
0.0396729
0.0335678
0.0280876
0.0230891
0.0183502
0.0133123
0.00541092
0.0487787
0.0414485
0.034951
0.0291445
0.0238768
0.0189151
0.0136827
0.00551499
0.0491281
0.0417988
0.035292
0.029462
0.0241609
0.0191598
0.0138802
0.00565966
0.0475235
0.0407281
0.0346164
0.0290659
0.0239602
0.0190937
0.013903
0.0057937
0.0443633
0.0386445
0.0332279
0.0281563
0.0233948
0.0187768
0.0137642
0.00589985
0.0390821
0.034148
0.0294994
0.0251386
0.0210081
0.0169409
0.0124316
0.00515074
0.0435865
0.0374865
0.0320083
0.027021
0.0224002
0.0179421
0.0131043
0.00538627
0.0472634
0.0403367
0.0341785
0.0286464
0.0235896
0.0187789
0.013641
0.00554545
0.0495285
0.0421281
0.0355762
0.029719
0.0243948
0.0193621
0.0140287
0.00567724
0.049897
0.0424979
0.0359372
0.0300579
0.0247018
0.0196298
0.0142465
0.0058372
0.0482902
0.0414377
0.0352777
0.0296806
0.0245215
0.0195842
0.0142873
0.00598063
0.0451173
0.0393555
0.0338962
0.0287805
0.023967
0.0192792
0.0141601
0.00609459
0.0395091
0.0345764
0.0299188
0.0255379
0.0213757
0.0172626
0.0126834
0.00525386
0.0439902
0.0379011
0.0324216
0.0274187
0.0227677
0.0182633
0.0133541
0.00548779
0.0476428
0.0407349
0.0345844
0.0290441
0.0239618
0.0191067
0.013897
0.00565183
0.0499024
0.0425247
0.0359863
0.0301271
0.0247821
0.0197074
0.0143023
0.00581498
0.0502906
0.0429109
0.0363646
0.0304857
0.0251109
0.0199969
0.0145389
0.00598516
0.0487093
0.0418733
0.0357261
0.0301295
0.0249523
0.0199727
0.0145978
0.00613738
0.0455595
0.0398093
0.0343585
0.0292418
0.0244107
0.0196814
0.0144837
0.00625961
0.0397843
0.0348712
0.0302184
0.0258296
0.0216478
0.0175027
0.012872
0.00532964
0.044225
0.0381744
0.0327103
0.0277045
0.0230359
0.0184998
0.0135389
0.00556155
0.0478367
0.0409856
0.0348636
0.0293291
0.024234
0.0193492
0.0140876
0.00573597
0.050079
0.0427697
0.0362692
0.0304226
0.0250692
0.0199669
0.0145103
0.00592616
0.0504826
0.0431719
0.0366658
0.0308021
0.0254202
0.020278
0.0147648
0.00610497
0.0489388
0.0421617
0.0360518
0.03047
0.0252854
0.0202759
0.0148418
0.00626557
0.045823
0.0401198
0.0347011
0.0295982
0.0247602
0.0200005
0.0147414
0.00639634
0.0399693
0.0350697
0.0304206
0.0260278
0.0218345
0.0176692
0.0130041
0.00538815
0.0443785
0.0383553
0.0329018
0.0278952
0.0232165
0.0186606
0.0136654
0.00561029
0.0479589
0.0411511
0.035049
0.0295193
0.0244177
0.0195154
0.0142211
0.00580811
0.0501912
0.0429355
0.0364615
0.0306239
0.0252664
0.0201473
0.0146566
0.00600989
0.0506102
0.0433557
0.0368783
0.0310247
0.0256386
0.0204779
0.0149269
0.00619603
0.0491005
0.0423739
0.0362907
0.0307179
0.0255275
0.0204968
0.0150207
0.00636408
0.0460151
0.0403536
0.0349591
0.0298649
0.0250201
0.0202371
0.0149319
0.00650234
0.0400632
0.0351722
0.0305293
0.0261399
0.0219461
0.017774
0.0130923
0.00544407
0.0444513
0.038441
0.0329969
0.0279963
0.0233189
0.0187574
0.0137455
0.00565425
0.0480164
0.0412261
0.0351375
0.0296172
0.0245198
0.0196143
0.014305
0.00586203
0.0502494
0.0430143
0.0365563
0.0307302
0.0253781
0.0202559
0.0147488
0.00606867
0.0506862
0.0434534
0.0369922
0.0311499
0.0257683
0.0206026
0.0150318
0.00626045
0.0492038
0.0424985
0.0364303
0.0308668
0.0256785
0.0206399
0.0151399
0.00643437
0.0461413
0.0405003
0.03512
0.0300336
0.0251884
0.020394
0.0150605
0.00657819
0.0400449
0.0351744
0.0305507
0.0261772
0.0219947
0.0178278
0.0131425
0.00548233
0.0444044
0.0384187
0.0329987
0.0280186
0.0233563
0.0188027
0.0137893
0.00569019
0.0479505
0.0411866
0.0351265
0.0296315
0.024553
0.019658
0.0143486
0.00589853
0.0501811
0.0429727
0.0365456
0.0307475
0.0254165
0.0203057
0.0147978
0.00610767
0.0506331
0.0434266
0.036996
0.0311817
0.0258207
0.0206653
0.015091
0.00630343
0.0491782
0.0424981
0.0364578
0.0309195
0.0257493
0.0207183
0.0152113
0.0064818
0.0461436
0.040527
0.0351711
0.0301059
0.0252752
0.0204849
0.0151406
0.00662941
0.0399289
0.0350982
0.0305074
0.0261601
0.0219971
0.0178432
0.0131637
0.00550715
0.0442412
0.0383085
0.0329314
0.0279844
0.0233466
0.0188094
0.0138043
0.00571384
0.0477485
0.0410479
0.0350402
0.0295857
0.0245369
0.0196617
0.0143623
0.00592182
0.0499593
0.0428213
0.0364531
0.0307008
0.0254028
0.0203134
0.0148154
0.0061324
0.0504187
0.0432835
0.0369134
0.031146
0.0258186
0.0206837
0.015117
0.00633105
0.0489959
0.0423811
0.0363968
0.0309027
0.025764
0.0207513
0.0152484
0.00651306
0.0460053
0.0404426
0.0351345
0.0301084
0.0253058
0.020531
0.0151878
0.00666356
0.0397738
0.0349878
0.0304317
0.0261114
0.0219694
0.0178314
0.013163
0.00552155
0.0440329
0.0381638
0.0328323
0.0279191
0.0233067
0.0187889
0.0137974
0.00572714
0.0474908
0.0408721
0.0349221
0.029509
0.0244906
0.0196376
0.0143537
0.00593457
0.0496719
0.0426293
0.0363282
0.0306231
0.0253585
0.0202925
0.0148097
0.00614605
0.0501334
0.0430973
0.0367973
0.031079
0.0257853
0.0206727
0.0151188
0.00634706
0.0487436
0.0422196
0.0363017
0.0308546
0.0257478
0.0207547
0.0152609
0.00653244
0.0458027
0.0403133
0.0350629
0.0300798
0.0253068
0.0205493
0.015212
0.00668564
0.0396298
0.0348739
0.0303421
0.0260431
0.0219203
0.0177993
0.0131459
0.00552705
0.0438504
0.0380249
0.0327242
0.027836
0.0232458
0.0187476
0.0137735
0.00573092
0.0472713
0.0407117
0.0348007
0.029417
0.0244234
0.0195922
0.0143271
0.00593736
0.0494301
0.04246
0.0362047
0.0305321
0.0252934
0.0202492
0.0147846
0.00614915
0.0498948
0.0429363
0.0366851
0.0309998
0.025731
0.0206382
0.0150999
0.00635198
0.0485331
0.0420816
0.0362104
0.0307949
0.0257108
0.0207343
0.015252
0.00654039
0.0456321
0.0402016
0.0349934
0.0300403
0.025288
0.0205443
0.0152146
0.00669602
0.0394931
0.0347499
0.0302337
0.0259534
0.0218508
0.0177499
0.0131158
0.00552612
0.0436965
0.037885
0.0326003
0.0277318
0.0231639
0.0186883
0.0137359
0.00572789
0.0471047
0.0405625
0.034668
0.0293045
0.0243344
0.0195273
0.0142856
0.00593278
0.0492593
0.0423119
0.036074
0.030421
0.025205
0.0201845
0.014743
0.00614398
0.0497326
0.0428009
0.0365676
0.0309005
0.0256521
0.0205805
0.0150628
0.00634747
0.0483921
0.0419673
0.036114
0.0307149
0.025648
0.020689
0.0152232
0.0065378
0.0455146
0.0401088
0.0349188
0.0299812
0.0252435
0.0205133
0.0151956
0.00669515
0.0607505
0.0522979
0.0440104
0.0364128
0.0295273
0.0232103
0.016899
0.00784153
0.0685862
0.0594222
0.0492244
0.0401333
0.032101
0.0249201
0.0179764
0.0082292
0.0709208
0.0632366
0.0520267
0.0419662
0.033207
0.0255202
0.0182529
0.00825077
0.0711672
0.0617751
0.0506397
0.0407768
0.0322064
0.0246904
0.0176053
0.00787191
0.0653125
0.0552712
0.0455316
0.0369128
0.0293402
0.0226148
0.0161738
0.00717781
0.0554857
0.0466778
0.0387855
0.0317766
0.0255274
0.0198699
0.0143049
0.0063426
0.0449671
0.0383289
0.0322787
0.0267716
0.0217613
0.0171252
0.01242
0.00554329
0.0616877
0.0530751
0.0450336
0.0375323
0.0306057
0.0241663
0.0176571
0.0082303
0.0709973
0.0598244
0.0499429
0.0410824
0.0330944
0.0258398
0.0187263
0.00861845
0.0760355
0.06383
0.0526199
0.0428135
0.0341432
0.026413
0.0189956
0.00863468
0.0745586
0.0623341
0.0513411
0.0416991
0.0331863
0.0256154
0.0183709
0.00826295
0.0667647
0.0560512
0.046529
0.0380159
0.0304181
0.0235892
0.0169595
0.00757111
0.0564994
0.0478587
0.0400662
0.0330194
0.0266629
0.020858
0.0150822
0.00672208
0.0463104
0.0397352
0.0336302
0.0280099
0.0228651
0.0180744
0.0131591
0.00589547
0.062432
0.0541729
0.0462317
0.0386801
0.0316605
0.0251051
0.0184206
0.00863418
0.0714404
0.0605011
0.0509306
0.0421405
0.0341177
0.0267838
0.0195154
0.00904442
0.0764714
0.0642112
0.0534158
0.043773
0.0351263
0.0273542
0.0197992
0.00906841
0.0747693
0.062838
0.0522063
0.0426963
0.0341974
0.0265788
0.0191877
0.00869813
0.0673474
0.0569806
0.0476314
0.0391267
0.0314845
0.0245691
0.0177676
0.00799093
0.0576156
0.0491287
0.0413146
0.0341929
0.0277485
0.021826
0.0158608
0.00711414
0.0476588
0.0410565
0.0348674
0.0291581
0.0239177
0.0190038
0.0138971
0.00625521
0.0629302
0.0555361
0.0474791
0.0398084
0.0326935
0.0260309
0.0191762
0.0090441
0.0689568
0.0614825
0.0521893
0.0433214
0.0352131
0.0277746
0.0203286
0.00948914
0.0711746
0.0644363
0.0545588
0.0449548
0.0362586
0.0283921
0.0206532
0.00953088
0.0733105
0.0637264
0.0534265
0.0438977
0.0353434
0.0276237
0.0200415
0.00915442
0.0679998
0.0582917
0.0489203
0.040339
0.032616
0.0255835
0.0185832
0.00841762
0.0590914
0.0505386
0.0425977
0.0353817
0.0288417
0.022794
0.0166291
0.00750506
0.0490658
0.0423606
0.0360844
0.0302989
0.0249695
0.0199249
0.0146197
0.00661069
0.063403
0.0565324
0.0485028
0.0407916
0.0336187
0.0268624
0.0198461
0.00941199
0.0674533
0.0624389
0.0533327
0.0444246
0.0362373
0.0286809
0.021047
0.00987866
0.0696524
0.065511
0.0558399
0.0461678
0.0373735
0.0293661
0.0214134
0.00993373
0.0702718
0.0645073
0.0546527
0.045119
0.0364727
0.0286061
0.0208033
0.00955252
0.0682282
0.0595095
0.0501922
0.041539
0.0337089
0.0265272
0.0193113
0.00879273
0.060429
0.0518789
0.0438531
0.036542
0.0298906
0.0236939
0.0173211
0.00785486
0.0504404
0.0436487
0.0372907
0.0314159
0.0259717
0.0207788
0.0152735
0.00693218
0.0643954
0.0571881
0.0491971
0.0415246
0.0343443
0.0275244
0.0203771
0.00970791
0.0694441
0.063341
0.0541116
0.0452195
0.0370089
0.0293697
0.0215862
0.0101725
0.0711573
0.0666065
0.0567112
0.0470428
0.0382071
0.0300932
0.0219707
0.0102278
0.0726869
0.065635
0.0556346
0.0460722
0.0373527
0.0293591
0.0213735
0.00984874
0.0697042
0.0606262
0.0512397
0.0425249
0.0345964
0.0272795
0.0198807
0.00908571
0.0617183
0.0530368
0.044938
0.037538
0.0307747
0.0244405
0.0178875
0.00814196
0.0516933
0.044808
0.0383622
0.0323866
0.0268277
0.0215009
0.0158225
0.00720371
0.0656348
0.057675
0.0497048
0.0420726
0.0348956
0.0280335
0.0207905
0.00994731
0.0731151
0.0640821
0.0546228
0.0457423
0.0375324
0.0298541
0.0219803
0.0104022
0.0754949
0.0675185
0.0572537
0.0475865
0.0387372
0.0305749
0.0223607
0.0104515
0.0762677
0.0666925
0.0563234
0.0466979
0.0379298
0.0298709
0.0217816
0.0100779
0.0714814
0.0615288
0.0520023
0.0432207
0.0352268
0.0278306
0.020315
0.00932238
0.0627423
0.0539179
0.045756
0.0382882
0.0314494
0.025025
0.0183441
0.00838246
0.0526451
0.0456951
0.0391853
0.0331409
0.0275069
0.0220887
0.0162806
0.00743664
0.0662664
0.0580891
0.0501368
0.0425147
0.0353282
0.0284344
0.0211242
0.0101521
0.0744496
0.0646277
0.054991
0.046115
0.0379121
0.0302261
0.0223067
0.0106127
0.0787231
0.0682804
0.0576181
0.0479324
0.0390925
0.0309358
0.0226867
0.010664
0.0778849
0.0673241
0.0567317
0.0470808
0.0383143
0.0302546
0.0221244
0.0102945
0.0723763
0.0620821
0.0524899
0.0436867
0.0356803
0.0282636
0.0206851
0.0095419
0.0633965
0.0545181
0.0463294
0.0388338
0.0319694
0.0255039
0.0187384
0.00860199
0.0532841
0.0463193
0.0397879
0.0337213
0.0280568
0.0225864
0.0166826
0.00764899
0.066199
0.0583681
0.0504568
0.0428278
0.0356385
0.0287358
0.0213875
0.0103274
0.0743398
0.0644599
0.0551834
0.0463714
0.0382013
0.0305356
0.0225962
0.0108139
0.0784896
0.0681637
0.0578311
0.048187
0.0393846
0.0312627
0.0230014
0.0108818
0.078498
0.0676171
0.0569968
0.047357
0.0386309
0.0306044
0.0224535
0.0105129
0.0728035
0.0624234
0.0528165
0.0440295
0.0360556
0.0286502
0.0210279
0.00975366
0.063819
0.0549264
0.0467379
0.0392606
0.0324087
0.0259271
0.019095
0.00880693
0.0537058
0.0467652
0.0402568
0.0342042
0.0285336
0.0230272
0.0170429
0.0078442
0.0654424
0.0583489
0.0505274
0.0429568
0.0358147
0.028939
0.0215809
0.0104718
0.0704752
0.0641663
0.0551806
0.0464905
0.0383992
0.0307765
0.022829
0.010985
0.0734733
0.0675551
0.0578309
0.048337
0.0396279
0.0315524
0.0232751
0.011073
0.0754956
0.067034
0.0569839
0.0475382
0.0389114
0.0309226
0.0227423
0.0107037
0.0719795
0.062364
0.0529833
0.044308
0.0363932
0.0289964
0.0213248
0.00993708
0.0638697
0.0551518
0.0470526
0.0396313
0.032799
0.0262985
0.0194009
0.00898463
0.0539924
0.0471272
0.040665
0.0346299
0.0289504
0.0234072
0.0173492
0.00801306
0.0652554
0.0581879
0.0504434
0.0429632
0.0358969
0.029067
0.0217151
0.0105877
0.0702242
0.0640046
0.055097
0.0465099
0.0385079
0.0309324
0.0229828
0.0111099
0.0729384
0.0673728
0.0577648
0.0484011
0.0397877
0.031751
0.0234555
0.0112053
0.0754057
0.0669225
0.0570048
0.0476826
0.0391306
0.0311584
0.0229422
0.0108387
0.0719427
0.0624242
0.0531511
0.0445536
0.0366713
0.0292643
0.0215418
0.0100737
0.0640272
0.0553789
0.0473406
0.03995
0.0331185
0.0265911
0.0196346
0.00912369
0.054284
0.0474547
0.0410119
0.0349779
0.0292827
0.0237053
0.0175866
0.00814759
0.0653243
0.05794
0.0503096
0.0429284
0.0359331
0.0291436
0.0218013
0.0106776
0.0713112
0.0638211
0.0549411
0.0464711
0.0385443
0.0310059
0.023061
0.0111938
0.0737184
0.0671767
0.0575734
0.0483763
0.0398452
0.0318366
0.0235352
0.0112839
0.0756985
0.0668345
0.0569907
0.0477621
0.0392481
0.0312802
0.0230437
0.010923
0.0720952
0.0624903
0.0532842
0.0447211
0.0368454
0.0294271
0.0216734
0.0101679
0.0641588
0.0555545
0.0475483
0.0401674
0.0333322
0.0267881
0.0197946
0.00922709
0.0544843
0.0476736
0.0412421
0.0352112
0.0295107
0.0239157
0.0177584
0.00825063
0.0653571
0.0577828
0.0502043
0.0428798
0.0359272
0.0291664
0.0218379
0.0107405
0.0728182
0.0638884
0.0548434
0.0464009
0.0385111
0.0310048
0.0230808
0.0112521
0.0769372
0.0674223
0.0575049
0.0483107
0.0398061
0.0318272
0.0235487
0.0113379
0.0767095
0.0669837
0.0569925
0.0477523
0.0392494
0.0313027
0.023081
0.0109843
0.0722968
0.0625582
0.0533283
0.0447652
0.0369021
0.0294996
0.0217484
0.010241
0.0642122
0.0556139
0.047621
0.0402574
0.0334408
0.0269077
0.0199049
0.00930921
0.054524
0.0477405
0.0413374
0.0353324
0.0296508
0.0240608
0.0178862
0.00833352
0.06515
0.0575909
0.050054
0.0427601
0.0358456
0.0291223
0.0218237
0.0107784
0.0730752
0.0636076
0.054642
0.0462353
0.0383931
0.0309406
0.023062
0.0112972
0.0770859
0.0674076
0.0573691
0.0481554
0.0396859
0.0317672
0.0235411
0.0113919
0.0770272
0.0670708
0.0568813
0.0476229
0.0391639
0.0312777
0.0231003
0.0110453
0.0723927
0.0624915
0.0532253
0.0446902
0.0368825
0.0295306
0.0218051
0.0103094
0.0640937
0.0555168
0.0475649
0.0402565
0.0334916
0.0269922
0.0199953
0.00938284
0.054411
0.0476899
0.0413475
0.0353941
0.0297488
0.0241751
0.0179926
0.00840589
0.0641876
0.0571708
0.0497224
0.042514
0.0356777
0.0290195
0.0217707
0.0107972
0.0699702
0.0628237
0.0541847
0.0459256
0.0381958
0.0308309
0.0230146
0.0113272
0.0729582
0.0663387
0.0569058
0.0478589
0.0395133
0.0316885
0.0235226
0.0114369
0.0752381
0.0662453
0.0564466
0.0473746
0.0390441
0.0312446
0.0231137
0.0110981
0.0715871
0.0620452
0.052961
0.0445599
0.0368494
0.0295573
0.0218547
0.0103684
0.0637096
0.0552874
0.0474574
0.0402407
0.0335374
0.0270694
0.0200745
0.00944608
0.0542366
0.0476193
0.0413533
0.0354527
0.0298383
0.0242749
0.018082
0.0084666
0.0634711
0.056621
0.0493094
0.042218
0.0354797
0.028897
0.0217031
0.0108048
0.0686472
0.0620796
0.0536809
0.0455792
0.0379733
0.0306979
0.0229414
0.0113335
0.0715772
0.0656493
0.0564295
0.0475419
0.0393256
0.0315868
0.0234702
0.0114485
0.0745857
0.0656936
0.0560702
0.0471518
0.0389342
0.0312006
0.023099
0.0111207
0.071098
0.0616977
0.0527564
0.0444703
0.0368333
0.0295772
0.0218815
0.0104034
0.0634458
0.055139
0.0474063
0.0402562
0.0335898
0.0271344
0.0201319
0.00949046
0.0541552
0.0476067
0.0413891
0.0355174
0.029916
0.0243523
0.0181462
0.00851002
0.0436332
0.0370515
0.0310281
0.0255728
0.0206632
0.0161739
0.0116619
0.00510905
0.0460364
0.0381969
0.0314609
0.0255952
0.0204552
0.0158561
0.0113305
0.00478879
0.0463406
0.0381031
0.0311239
0.0251486
0.0199881
0.0154181
0.0109557
0.00448904
0.0442702
0.0364655
0.0298176
0.0241261
0.0192099
0.0148414
0.010543
0.00422473
0.0405064
0.0336267
0.0277115
0.0226034
0.0181428
0.0141191
0.0100764
0.00398909
0.0359344
0.0301744
0.0251776
0.0207935
0.0168906
0.0132835
0.00955276
0.00379289
0.0310872
0.0266574
0.0226257
0.0189644
0.0156064
0.0124078
0.00898754
0.00366434
0.0450312
0.0384996
0.0324141
0.0268454
0.0218031
0.0171563
0.0124261
0.00546809
0.047462
0.039722
0.0329485
0.0269775
0.0216992
0.0169254
0.0121548
0.00516251
0.0478754
0.0397395
0.032726
0.0266425
0.0213292
0.0165624
0.0118298
0.00487394
0.0459841
0.0382362
0.0315266
0.025706
0.0206159
0.0160305
0.0114444
0.00461431
0.0424012
0.0354978
0.029475
0.0242099
0.0195576
0.0153055
0.0109706
0.00437422
0.0379018
0.0320522
0.026914
0.0223569
0.0182563
0.0144229
0.0104085
0.00416022
0.0330014
0.0284526
0.0242706
0.0204393
0.0168925
0.013481
0.0097966
0.00401068
0.0464081
0.0398402
0.0336771
0.0280299
0.0228957
0.0181194
0.0131862
0.00583234
0.048836
0.0411424
0.0343174
0.0282692
0.0228858
0.0179598
0.0129591
0.00553493
0.0492988
0.0412411
0.0341924
0.0280246
0.0225875
0.0176476
0.0126647
0.00525119
0.0475386
0.0398274
0.0330674
0.0271449
0.0219095
0.0171327
0.0122851
0.00498515
0.0440674
0.0371412
0.0310377
0.0256484
0.020835
0.0163834
0.0117881
0.00472968
0.0395945
0.03368
0.0284365
0.0237419
0.0194736
0.015441
0.0111736
0.00448943
0.0346429
0.0300059
0.0257082
0.0217377
0.0180303
0.0144344
0.0105191
0.00431801
0.0477915
0.0411411
0.0349226
0.0292107
0.0239816
0.0190642
0.0139217
0.00618735
0.0502846
0.0425442
0.0356665
0.0295443
0.0240451
0.0189553
0.0137234
0.00589264
0.0507882
0.0427117
0.0356086
0.0293548
0.0237859
0.0186676
0.0134416
0.00560721
0.0490787
0.0413412
0.0345116
0.0284833
0.0231032
0.0181413
0.0130492
0.00533045
0.0456275
0.0386527
0.0324617
0.0269499
0.0219829
0.0173463
0.0125153
0.00505083
0.0411258
0.0351411
0.0297949
0.0249709
0.020548
0.0163366
0.0118471
0.00478106
0.0361014
0.0313798
0.0269745
0.0228753
0.0190222
0.0152626
0.0111456
0.00458051
0.0491687
0.0424586
0.0361647
0.0303575
0.0250049
0.0199321
0.0145837
0.00650676
0.051767
0.0439652
0.0370045
0.0307649
0.0251214
0.0198597
0.014408
0.00621415
0.0523156
0.0441759
0.0369804
0.0305976
0.0248749
0.0195784
0.0141283
0.00592383
0.0506054
0.0427929
0.035859
0.0296964
0.0241617
0.0190238
0.0137133
0.00563386
0.0471032
0.0400423
0.0337389
0.0280949
0.0229781
0.0181737
0.0131367
0.00533558
0.0425188
0.0364403
0.0309821
0.0260286
0.0214643
0.0170978
0.0124196
0.0050379
0.0373941
0.0325756
0.0280587
0.0238378
0.0198559
0.0159568
0.0116699
0.00479971
0.0504339
0.043638
0.0372529
0.0313428
0.025874
0.0206663
0.0151434
0.00677869
0.0531626
0.0452415
0.0381635
0.0318025
0.0260308
0.0206258
0.0149913
0.00649072
0.0537224
0.0454632