/*--------------------------------*- C++ -*----------------------------------*\
| =========                 |                                                 |
| \\      /  F ield         | OpenFOAM: The Open Source CFD Toolbox           |
|  \\    /   O peration     | Version:  plus.master.MPPICInterFoam            |
|   \\  /    A nd           | Web:      www.OpenFOAM.com                      |
|    \\/     M anipulation  |                                                 |
\*---------------------------------------------------------------------------*/
FoamFile
{
    version     2.0;
    format      ascii;
    class       volScalarField;
    location    "12.6";
    object      nut;
}
// * * * * * * * * * * * * * * * * * * * * * * * * * * * * * * * * * * * * * //

dimensions      [0 2 -1 0 0 0 0];

internalField   nonuniform List<scalar> 
11821
(
0.000490216
0.000510318
0.000480486
0.000509479
0.000489534
0.000461115
0.000508816
0.000527422
0.000534948
0.000533797
0.000525256
0.000509854
0.000487538
0.000541626
0.00056019
0.000567395
0.000565132
0.000554179
0.000535512
0.000511071
0.000547672
0.000560135
0.000573859
0.000580502
0.000574562
0.000553158
0.000525767
0.000542152
0.000529905
0.000556489
0.000584712
0.000585661
0.000562338
0.000532128
0.000538361
0.000555334
0.000533815
0.00057771
0.00058511
0.000561611
0.000530087
0.000537075
0.00054627
0.000559793
0.000566332
0.000573828
0.000550044
0.000518989
0.000535923
0.000542587
0.000555236
0.000558221
0.000550179
0.000527316
0.000497565
0.00054069
0.000561929
0.000571323
0.000570942
0.000562178
0.000546373
0.000523191
0.000582612
0.00060653
0.000614821
0.000609031
0.000593842
0.00057337
0.000547894
0.000618038
0.000632363
0.00064654
0.000645538
0.000620266
0.000592518
0.000563371
0.000609222
0.000614638
0.000640482
0.000662778
0.000637287
0.000602426
0.000569938
0.000596007
0.000556757
0.000600896
0.000659687
0.000639205
0.00060144
0.000567296
0.000608066
0.000599719
0.000622165
0.000647814
0.000623185
0.000588182
0.000554797
0.000598408
0.000625663
0.000632805
0.000619264
0.00059192
0.000562791
0.000531308
0.000567532
0.000590702
0.000601784
0.000602796
0.000595015
0.000579544
0.000555776
0.000610161
0.000634671
0.00064459
0.000640341
0.000626495
0.000606812
0.000581257
0.000648557
0.000671381
0.000683656
0.00067635
0.00065245
0.000625845
0.000596983
0.000676428
0.000653737
0.000666913
0.000697154
0.000668896
0.000635422
0.000603425
0.000682168
0.000615708
0.000661878
0.000698409
0.000670362
0.000633841
0.000600216
0.000670837
0.000668274
0.000680233
0.000683457
0.000655673
0.000619847
0.000586674
0.000627553
0.000657023
0.000663587
0.000650332
0.000622383
0.00059314
0.000561803
0.000592155
0.000617389
0.000630124
0.000632658
0.000626157
0.000611034
0.000586439
0.000631169
0.0006588
0.000670164
0.000667698
0.000656584
0.000638394
0.000612767
0.000666282
0.000681664
0.000702009
0.000698858
0.000680275
0.000656739
0.000628633
0.000672906
0.000668065
0.0006975
0.000715447
0.000694761
0.000665419
0.000634811
0.000684161
0.000686669
0.000672378
0.000701103
0.000694326
0.000662872
0.00063102
0.000675434
0.000679086
0.000678789
0.000704213
0.00067794
0.000647871
0.000616541
0.000620945
0.000643496
0.000664314
0.000660611
0.000644949
0.00062068
0.000590634
0.000617929
0.000644838
0.000659235
0.000663232
0.000657468
0.000641871
0.000615669
0.000649118
0.000678361
0.000693026
0.000695483
0.000687576
0.000670054
0.00064336
0.00065115
0.000689544
0.000708944
0.000716903
0.000708557
0.000688246
0.000659817
0.000647094
0.000719619
0.000736948
0.000722129
0.000719164
0.000696258
0.000666
0.000620879
0.000693715
0.00072228
0.000717757
0.00071614
0.000692988
0.000661836
0.000607605
0.000657261
0.00068004
0.00069049
0.000698763
0.000677149
0.000646542
0.00060653
0.0006306
0.000645463
0.00066923
0.000668579
0.000649468
0.000619543
0.000646857
0.000675258
0.00069072
0.000695083
0.000688696
0.000671455
0.00064291
0.000679171
0.00070962
0.000724956
0.000728282
0.000720434
0.000701506
0.000672515
0.000685187
0.000724804
0.000741262
0.000748721
0.00074178
0.000720846
0.000690274
0.000686082
0.000723092
0.000737831
0.000755165
0.000752326
0.000729305
0.000697031
0.00066
0.000706266
0.000757043
0.000747959
0.000749647
0.000725972
0.000692762
0.000659106
0.000676898
0.000720172
0.000725179
0.00073096
0.000709392
0.000676776
0.000638764
0.000662705
0.000683223
0.000699994
0.000700201
0.000680371
0.000648284
0.000675476
0.000705403
0.000721682
0.000725527
0.000717382
0.000697894
0.00066684
0.000713988
0.000745138
0.000761739
0.000763631
0.000752482
0.000730401
0.00069845
0.000731781
0.000761581
0.000787117
0.000793116
0.000777904
0.000752001
0.000717824
0.000729125
0.000743512
0.000786609
0.000806994
0.000791601
0.000761871
0.000725522
0.000711539
0.000772727
0.000756718
0.000804277
0.000790164
0.000758758
0.000721308
0.000699516
0.000737672
0.000768147
0.000781453
0.000771082
0.000741368
0.000704553
0.000691569
0.000718156
0.000746221
0.000750766
0.000736184
0.000710088
0.000674295
0.000699462
0.000730964
0.000747604
0.000750761
0.000741265
0.000720127
0.000687169
0.000742265
0.000775773
0.000792083
0.000792085
0.000778617
0.000754358
0.000720272
0.000773899
0.000805257
0.000830559
0.00082695
0.000806687
0.000777551
0.000740823
0.000780245
0.000801938
0.000836424
0.000848554
0.000822713
0.000788522
0.000749244
0.00077904
0.000745185
0.000812461
0.000842819
0.000821794
0.000785528
0.000745064
0.000768616
0.00078395
0.000812059
0.000825181
0.000801545
0.000767256
0.000727614
0.000730685
0.000762909
0.000780728
0.000782831
0.000763428
0.000734095
0.00069598
0.000718805
0.000751555
0.00076851
0.000771417
0.000761319
0.000739222
0.000704879
0.000763476
0.000798037
0.000814326
0.000813599
0.00079954
0.000774415
0.00073904
0.00079861
0.000829323
0.00085308
0.00084942
0.00082821
0.000798272
0.000760313
0.000813585
0.000820161
0.000861597
0.00087032
0.000844633
0.000809618
0.00076914
0.000822653
0.000788739
0.000829139
0.000863309
0.000843327
0.000806504
0.000764934
0.000779624
0.000792224
0.000829771
0.000846441
0.000822688
0.000787533
0.000746952
0.000749887
0.000783825
0.00080223
0.000800813
0.000782611
0.000753284
0.000714424
0.000735494
0.000769451
0.000786824
0.000789911
0.00077959
0.000756669
0.000721006
0.000776295
0.000814372
0.000831055
0.000831442
0.000818083
0.000792612
0.000756159
0.000798149
0.000845317
0.000866066
0.000864177
0.000846135
0.000816768
0.000778039
0.000799008
0.000854293
0.000896487
0.00088334
0.000861868
0.000828158
0.000787159
0.000788109
0.000858984
0.000894127
0.000880042
0.000860664
0.000825015
0.000782972
0.000803325
0.000833454
0.000849783
0.000852787
0.000837913
0.000805418
0.00076464
0.000731987
0.000770218
0.000795115
0.000807632
0.000797758
0.000770729
0.000731525
0.000753312
0.000787706
0.000805338
0.000808291
0.000797293
0.000773165
0.00073588
0.00079409
0.000831882
0.00084925
0.000850185
0.00083666
0.000810214
0.000772243
0.000812674
0.000859389
0.000881307
0.000881698
0.000864797
0.000835013
0.00079494
0.000826212
0.000884403
0.000897328
0.000899745
0.000880341
0.000846698
0.0008045
0.00079777
0.00086333
0.000915056
0.000900788
0.000879556
0.00084368
0.000800416
0.000767947
0.000845298
0.000871711
0.000871505
0.000856434
0.000823885
0.000781858
0.000743763
0.000791157
0.000815842
0.000825934
0.000816301
0.000788734
0.000748088
0.000771153
0.000806002
0.000823755
0.000826151
0.000813944
0.000788205
0.000749079
0.000814235
0.000851809
0.000869453
0.000869927
0.000855046
0.000826778
0.000786808
0.000835761
0.000877635
0.000901871
0.000902538
0.000884492
0.000852751
0.000810542
0.000842613
0.000873352
0.000903835
0.00091991
0.000900471
0.000865051
0.000820706
0.000818262
0.000873891
0.000869891
0.000917424
0.000899331
0.00086209
0.000816754
0.00079774
0.000829934
0.000875955
0.000891782
0.000876973
0.000842225
0.000797935
0.00076656
0.000812252
0.000844514
0.000850697
0.000836517
0.000806296
0.000763321
0.000786763
0.000822352
0.00084011
0.000841714
0.000828189
0.000800941
0.000760201
0.000833196
0.000871509
0.00088918
0.000888144
0.000871151
0.000840942
0.000799128
0.000862842
0.000902532
0.000929284
0.000925352
0.000902657
0.000868192
0.000823831
0.000875713
0.000905364
0.000939113
0.000947456
0.000920301
0.00088136
0.000834619
0.000880012
0.000881615
0.000923409
0.000943081
0.000919572
0.00087862
0.000830824
0.000835748
0.000868604
0.000908215
0.000920631
0.000896788
0.000858297
0.000811646
0.000797394
0.000836367
0.000867407
0.000871751
0.000854094
0.000821207
0.000776169
0.000799084
0.000835339
0.000853048
0.000854154
0.000839806
0.000811516
0.000769574
0.00084742
0.000886207
0.00090359
0.00090182
0.000883847
0.000852485
0.000809394
0.000881255
0.000920457
0.000945821
0.00094038
0.000916335
0.00088055
0.000834798
0.000901816
0.000921928
0.000966833
0.000963793
0.000934717
0.000894283
0.000846058
0.000920315
0.000914969
0.000938312
0.000960941
0.000934174
0.000891697
0.000842388
0.000890329
0.000901669
0.000929735
0.000937145
0.000910741
0.000870893
0.000822905
0.000817972
0.000852941
0.000884682
0.000885879
0.000866837
0.000832987
0.000786796
0.000809269
0.000846304
0.000863994
0.000864829
0.00084996
0.000820882
0.000777936
0.000856625
0.000897916
0.000914805
0.000912824
0.000894547
0.000862529
0.000818495
0.000884772
0.000937161
0.000957407
0.000951301
0.000927252
0.000891035
0.000844426
0.000899047
0.000967664
0.000985852
0.000975808
0.000945842
0.000905049
0.000856022
0.000875899
0.000951013
0.000992216
0.000976423
0.000945736
0.000902576
0.000852467
0.000873087
0.000904735
0.000946735
0.000946602
0.000921182
0.000881443
0.000832817
0.000810788
0.000857752
0.000885893
0.000893577
0.000876748
0.00084315
0.000796307
0.000819732
0.00085697
0.000874667
0.000875226
0.000859732
0.000829721
0.00078563
0.000867041
0.000908394
0.00092537
0.000923541
0.000905014
0.000872192
0.000827018
0.000894971
0.000948689
0.000966716
0.000960919
0.000937829
0.000901219
0.000853564
0.000912588
0.000988912
0.000996891
0.000984364
0.00095622
0.000915487
0.000865536
0.000880844
0.000958438
0.000992752
0.000984274
0.000955796
0.000913049
0.000862119
0.000845648
0.000935307
0.000958813
0.000954857
0.00093138
0.000891914
0.00084239
0.000811927
0.000870556
0.000896607
0.000902371
0.000887142
0.0008534
0.000805489
0.000141836
1.67549e-05
0.000402295
0.000366802
0.000319614
0.00025253
0.000151914
1.81984e-05
0.000461989
0.000435605
0.000406313
0.000370875
0.000324228
0.000257862
0.000156997
1.87104e-05
0.000459895
0.000432951
0.000403173
0.000367495
0.000321093
0.000255568
0.000155957
1.83212e-05
0.000450052
0.000423344
0.000393364
0.000357356
0.00031088
0.000245905
0.000148171
1.73692e-05
0.000432429
0.000407055
0.000377194
0.000340887
0.000294214
0.000229795
0.000135149
1.57703e-05
0.000460566
0.000435345
0.000403704
0.000363299
0.000310196
0.000237861
0.000136203
1.54067e-05
0.000482251
0.000455732
0.000424265
0.000384506
0.000331714
0.00025816
0.000151435
1.76363e-05
0.000495896
0.000468443
0.000436756
0.000397381
0.000345145
0.000271481
0.00016205
1.91309e-05
0.000501416
0.000473101
0.000440974
0.000401665
0.000349942
0.000276905
0.000167137
1.96723e-05
0.000498522
0.000469612
0.000437031
0.000397568
0.00034617
0.000274031
0.000165642
1.92911e-05
0.000487144
0.000458327
0.00042553
0.000385807
0.000334452
0.000263055
0.000157021
1.82702e-05
0.000467266
0.000439702
0.000407025
0.000367048
0.000315605
0.00024505
0.000142799
1.6563e-05
0.000494518
0.000467092
0.000432564
0.000388544
0.000330948
0.000252915
0.000143971
1.60994e-05
0.000517618
0.000489021
0.000454725
0.000411345
0.000353989
0.000274563
0.000160066
1.83966e-05
0.000532022
0.000502596
0.000468159
0.000425162
0.000368284
0.00028858
0.000171104
1.99348e-05
0.000537647
0.000507391
0.000472571
0.000429673
0.000373287
0.000294132
0.000176223
2.04942e-05
0.000534091
0.00050322
0.000467995
0.000425006
0.000368979
0.000290715
0.000174254
2.01324e-05
0.000521331
0.00049049
0.000455059
0.000411865
0.000355961
0.000278594
0.000164866
1.9063e-05
0.000499483
0.000469872
0.000434548
0.000391114
0.000335213
0.000258957
0.000149649
1.72691e-05
0.000525598
0.00049613
0.000458935
0.000411594
0.000349866
0.000266607
0.000151024
1.66875e-05
0.000549902
0.00051944
0.000482552
0.000435844
0.000374281
0.000289441
0.000167868
1.90406e-05
0.00056482
0.000533742
0.000496823
0.000450516
0.000389371
0.000304123
0.000179313
2.06199e-05
0.000570431
0.00053865
0.000501438
0.000455262
0.00039458
0.000309793
0.000184433
2.12066e-05
0.000566319
0.000533946
0.000496376
0.000450156
0.000389849
0.000305926
0.00018199
2.08802e-05
0.000552453
0.000520034
0.000482273
0.000435923
0.000375851
0.000292975
0.000172086
1.97739e-05
0.000529054
0.000497755
0.000460063
0.00041351
0.000353568
0.00027205
0.000156101
1.79129e-05
0.000554568
0.000522978
0.000483114
0.000432532
0.000366859
0.000278736
0.000157164
1.71724e-05
0.000580163
0.000547695
0.000508155
0.000458156
0.00039254
0.000302631
0.00017465
1.95752e-05
0.000595618
0.000562768
0.000523292
0.000473701
0.000408429
0.000317946
0.000186441
2.1196e-05
0.000601222
0.000567849
0.000528201
0.000478799
0.00041397
0.000323852
0.000191638
2.18161e-05
0.000596639
0.000562756
0.000522859
0.000473491
0.000409052
0.000319738
0.000188879
2.15334e-05
0.000581816
0.000547887
0.000507878
0.00045847
0.000394354
0.000306191
0.000178608
2.04032e-05
0.00055705
0.000524159
0.000484221
0.000434683
0.000370835
0.000284259
0.000162045
1.84917e-05
0.000581611
0.000547673
0.000505039
0.000451212
0.00038172
0.000289067
0.000162201
1.75669e-05
0.000608813
0.000573949
0.000531551
0.000478191
0.000408602
0.00031393
0.000180248
2.00093e-05
0.000625152
0.000590042
0.00054772
0.000494692
0.000425311
0.00032987
0.000192384
2.16607e-05
0.000631019
0.00059556
0.000553141
0.000500294
0.000431279
0.000336066
0.000197694
2.23114e-05
0.000626177
0.000590321
0.000547734
0.000494956
0.000426303
0.000331791
0.000194663
2.20788e-05
0.000610589
0.000574728
0.00053209
0.000479341
0.00041106
0.000317761
0.000184097
2.0933e-05
0.000584452
0.000549627
0.000507128
0.000454367
0.000386488
0.000294976
0.000167053
1.89823e-05
0.000606251
0.000569804
0.000524373
0.000467416
0.000394377
0.00029767
0.000166282
1.7869e-05
0.00063531
0.000597705
0.000552319
0.00049566
0.000422349
0.000323388
0.000184796
2.03405e-05
0.000652932
0.000615002
0.000569567
0.000513091
0.000439815
0.000339872
0.000197204
2.20157e-05
0.000659439
0.000621177
0.00057561
0.000519236
0.000446198
0.000346296
0.000202515
2.27098e-05
0.000654548
0.000615955
0.000570256
0.00051395
0.000441212
0.0003419
0.000199279
2.25149e-05
0.000638268
0.000599734
0.00055406
0.000497835
0.000425495
0.000327439
0.000188458
2.13573e-05
0.000610594
0.000573286
0.000527913
0.000471794
0.000399959
0.000303854
0.00017097
1.93751e-05
0.00062769
0.000588937
0.000540992
0.000481259
0.000405107
0.000304877
0.000169624
1.81001e-05
0.000658478
0.000618288
0.000570198
0.000510612
0.000434036
0.000331342
0.000188532
2.05904e-05
0.000677407
0.0006367
0.000588403
0.000528857
0.000452158
0.000348286
0.000201151
2.2285e-05
0.000684665
0.000643534
0.000595026
0.000535489
0.000458892
0.000354856
0.000206352
2.30387e-05
0.000679814
0.000638379
0.000589757
0.000530271
0.000453913
0.00035038
0.000203002
2.28627e-05
0.000662866
0.000621604
0.000573093
0.000513731
0.000437785
0.000335544
0.000191968
2.1696e-05
0.000633726
0.000593974
0.000545921
0.000486746
0.00041137
0.000311217
0.000174078
1.96885e-05
0.000646064
0.000605407
0.000555338
0.000493217
0.000414357
0.000311053
0.000172441
1.82775e-05
0.000678206
0.000635945
0.000585613
0.000523537
0.00044413
0.000338175
0.000191689
2.07805e-05
0.000698111
0.000655232
0.000604608
0.00054248
0.000462829
0.000355524
0.000204484
2.24942e-05
0.000705938
0.000662586
0.000611715
0.000549537
0.000469873
0.000362202
0.00020953
2.33128e-05
0.000701116
0.000657497
0.000606539
0.000544405
0.000464934
0.000357699
0.000206135
2.31465e-05
0.000683616
0.000640276
0.000589503
0.000527527
0.00044848
0.000342573
0.000194946
2.19736e-05
0.000653353
0.000611719
0.000561491
0.000499741
0.000421309
0.000317615
0.000176726
1.99476e-05
0.000662199
0.00061991
0.000567958
0.000503691
0.000422394
0.000316356
0.000174817
1.84089e-05
0.000695447
0.000651482
0.000599197
0.000534885
0.000452919
0.000344048
0.000194349
2.09199e-05
0.000716082
0.000671507
0.000618904
0.000554477
0.00047215
0.00036174
0.000207233
2.26605e-05
0.000724315
0.000679302
0.000626459
0.000561945
0.000479504
0.000368543
0.000212168
2.3534e-05
0.000719515
0.000674298
0.000621409
0.000556939
0.000474652
0.000364068
0.000208776
2.33761e-05
0.000701603
0.000656745
0.000604103
0.000539822
0.000457967
0.000348737
0.000197484
2.22008e-05
0.000670505
0.000627447
0.000575392
0.000511365
0.000430173
0.000323272
0.00017901
2.01627e-05
0.00067677
0.000632882
0.000579102
0.000512787
0.000429217
0.000320696
0.000176611
1.85103e-05
0.000711119
0.000665482
0.000611282
0.000544818
0.000460452
0.000348936
0.000196469
2.10143e-05
0.00073247
0.000686258
0.000631712
0.000565049
0.000480174
0.000366883
0.000209288
2.28047e-05
0.000741098
0.000694514
0.000639739
0.000572946
0.00048786
0.000373872
0.000214253
2.37023e-05
0.000736375
0.000689654
0.000634863
0.000568105
0.000483127
0.000369457
0.000210889
2.35524e-05
0.000718184
0.000671876
0.000617372
0.000550816
0.00046627
0.00035397
0.000199527
2.23773e-05
0.000686378
0.000641921
0.000588041
0.000521775
0.000437943
0.000328079
0.000180841
2.03318e-05
0.000689904
0.000644358
0.000588768
0.000520497
0.000434813
0.000324037
0.000177761
1.86088e-05
0.000725456
0.000678007
0.000621863
0.000553315
0.0004667
0.000352767
0.000197883
2.10977e-05
0.000747651
0.000699595
0.000643024
0.000574166
0.000486898
0.000370999
0.000210757
2.29136e-05
0.000756775
0.000708372
0.000651547
0.000582491
0.000494911
0.000378192
0.0002158
2.38216e-05
0.000752192
0.000703698
0.000646868
0.000577823
0.000490299
0.00037384
0.000212469
2.36784e-05
0.000733769
0.000685732
0.000629222
0.000560388
0.00047329
0.000358216
0.000201054
2.25043e-05
0.000701223
0.000655136
0.000599315
0.000530815
0.000444478
0.00033194
0.000182184
2.04538e-05
0.000701327
0.000654191
0.000596934
0.000526903
0.000439346
0.000326616
0.000178533
1.86757e-05
0.000738082
0.000688831
0.000630861
0.000560421
0.000471798
0.000355734
0.000198798
2.11664e-05
0.000761191
0.000711216
0.000652701
0.000581833
0.000492431
0.000374251
0.000211777
2.29869e-05
0.000770884
0.000720523
0.000661691
0.000590547
0.000500738
0.000381632
0.0002169
2.39002e-05
0.000766461
0.000716036
0.000657196
0.000586031
0.000496229
0.000377335
0.000213603
2.37617e-05
0.00074778
0.000697877
0.000639399
0.000568455
0.000479076
0.000361588
0.000202148
2.25891e-05
0.000714444
0.00066666
0.00060896
0.000538393
0.000449817
0.000334959
0.000183125
2.0535e-05
0.000710939
0.000662454
0.000603785
0.000532247
0.000443074
0.000328655
0.000179055
1.87185e-05
0.000748717
0.000697933
0.000638422
0.00056637
0.000476014
0.000358102
0.000199423
2.12108e-05
0.000772626
0.000720998
0.000660837
0.000588264
0.00049703
0.000376877
0.0002125
2.30327e-05
0.000782836
0.000730762
0.000670223
0.000597308
0.000505595
0.000384431
0.0002177
2.39489e-05
0.000778561
0.000726437
0.000665885
0.000592923
0.000501178
0.000380192
0.000214443
2.3814e-05
0.000759615
0.000708098
0.000647952
0.000575223
0.000483904
0.000364349
0.000202969
2.26434e-05
0.000725575
0.000676344
0.000617053
0.000544736
0.000454257
0.000337421
0.000183834
2.05873e-05
0.000719138
0.000669553
0.000609687
0.000536838
0.000446232
0.000330322
0.000179413
1.87436e-05
0.000757729
0.000705725
0.000644931
0.000571488
0.000479602
0.000360051
0.000199863
2.12361e-05
0.000782249
0.000729335
0.000667829
0.000593804
0.000500964
0.000379063
0.000213028
2.30581e-05
0.000792866
0.000739473
0.000677554
0.000603145
0.000509772
0.000386788
0.000218307
2.39764e-05
0.000788717
0.000735294
0.000673363
0.000598891
0.000505459
0.000382625
0.000215101
2.38448e-05
0.000769571
0.000716825
0.000655338
0.000581109
0.00048811
0.000366732
0.000203635
2.26775e-05
0.000734993
0.000684647
0.000624066
0.000550275
0.000458149
0.000339575
0.000184436
2.06216e-05
0.000726457
0.000675871
0.000614899
0.000540832
0.000448907
0.000331653
0.000179628
1.87543e-05
0.000765773
0.000712676
0.000650701
0.000575966
0.000482662
0.000361624
0.000200134
2.12448e-05
0.000790818
0.000736779
0.000674048
0.000598677
0.000504346
0.00038085
0.000213373
2.30657e-05
0.000801778
0.000747261
0.000684096
0.000608303
0.000513388
0.00038874
0.000218725
2.39848e-05
0.000797764
0.000743243
0.000680066
0.000604193
0.000509192
0.000384664
0.000215577
2.38566e-05
0.000778503
0.000724703
0.000661992
0.00058637
0.000491805
0.000368754
0.000204138
2.26939e-05
0.000743507
0.000692176
0.00063041
0.00055525
0.000461596
0.000341427
0.000184908
2.06402e-05
0.000733027
0.000681442
0.000619404
0.000544196
0.000451068
0.000332625
0.000179681
1.87542e-05
0.000773098
0.000718868
0.000655731
0.000579771
0.000485163
0.000362797
0.000200218
2.12409e-05
0.000798722
0.00074348
0.000679513
0.000602845
0.00050713
0.0003822
0.000213507
2.30586e-05
0.000810066
0.000754325
0.00068988
0.00061274
0.000516381
0.000390229
0.000218916
2.39769e-05
0.000806216
0.000750486
0.00068602
0.000608772
0.000512294
0.000386233
0.000215824
2.38507e-05
0.000786875
0.000731902
0.000667922
0.000590926
0.000494885
0.000370318
0.000204419
2.26923e-05
0.000751455
0.000699049
0.000636067
0.000559562
0.000464461
0.000342845
0.000185168
2.06418e-05
0.000515171
0.000487905
0.000451846
0.000408524
0.000354134
0.000279004
0.000165505
2.23874e-05
0.000534635
0.000514188
0.000475778
0.000430816
0.000375895
0.000300661
0.000183723
2.5528e-05
0.000536454
0.000526284
0.000487678
0.000441317
0.000385836
0.000310898
0.000193154
2.72768e-05
0.000541301
0.000524298
0.000485052
0.000439068
0.000384173
0.000310034
0.000193374
2.72192e-05
0.00053495
0.000507402
0.000469198
0.000425145
0.000371721
0.000298778
0.000184738
2.54212e-05
0.000512287
0.000480697
0.000444509
0.000402575
0.000350606
0.000278897
0.000168881
2.23897e-05
0.000478512
0.000449367
0.000415249
0.000374603
0.000323207
0.000252463
0.000147899
1.88086e-05
0.000553131
0.000515056
0.000474177
0.000427225
0.000368897
0.000288778
0.000169591
2.29097e-05
0.000593287
0.000546206
0.000500175
0.000450757
0.000391657
0.000311196
0.000188059
2.60786e-05
0.000611609
0.000563507
0.000513692
0.000462286
0.000402496
0.000322121
0.000197765
2.78462e-05
0.000605939
0.000558935
0.000510917
0.000460448
0.000401381
0.000321845
0.00019842
2.78295e-05
0.000579784
0.000537596
0.000494199
0.000446501
0.000389118
0.00031088
0.000190149
2.60637e-05
0.000544768
0.000508158
0.000468769
0.000423689
0.000367805
0.000290838
0.000174347
2.30207e-05
0.000507208
0.000475459
0.000438802
0.000395066
0.00033963
0.000263666
0.000153028
1.93764e-05
0.000576627
0.000535131
0.000492993
0.000444289
0.000383088
0.000298634
0.000173982
2.34172e-05
0.000624896
0.000567439
0.00051889
0.000468093
0.000406556
0.000321955
0.000193032
2.66442e-05
0.000649827
0.000586499
0.00053284
0.000480098
0.000418028
0.000333559
0.000203174
2.84496e-05
0.000637658
0.000581769
0.000531017
0.000479075
0.000417574
0.000333843
0.000204213
2.84719e-05
0.000606663
0.000560508
0.000515459
0.000465965
0.000405778
0.000323099
0.00019608
2.67169e-05
0.000570217
0.000531922
0.000490916
0.000443611
0.000384466
0.000302781
0.000180087
2.36421e-05
0.000532656
0.000499619
0.000461086
0.000414703
0.000355639
0.000274863
0.000158346
1.99311e-05
0.000581435
0.000549918
0.000510199
0.000461054
0.000397525
0.000309025
0.000178915
2.39492e-05
0.000612192
0.000574512
0.000534169
0.000484998
0.000422055
0.000333757
0.000199
2.7275e-05
0.0006245
0.00058872
0.00054726
0.000497325
0.000434309
0.000346319
0.000209871
2.91467e-05
0.0006371
0.00059192
0.000547801
0.000497321
0.000434444
0.000346985
0.000211127
2.91931e-05
0.000618728
0.000578178
0.000535258
0.000485369
0.000422926
0.000336064
0.000202737
2.74103e-05
0.000591262
0.000554116
0.000512604
0.000463547
0.000401343
0.000315109
0.000186233
2.42746e-05
0.000556774
0.000523236
0.000483122
0.000434268
0.000371732
0.000286297
0.000163914
2.04838e-05
0.000591281
0.00056746
0.000528917
0.000478421
0.000411875
0.000318986
0.000183517
2.44544e-05
0.000600717
0.000588847
0.000553064
0.000503596
0.000438064
0.000345348
0.000204624
2.78739e-05
0.000615059
0.000601155
0.000566668
0.000516853
0.000451464
0.00035907
0.000216274
2.98137e-05
0.0006193
0.000605029
0.000567755
0.000517374
0.000452
0.000360018
0.000217691
2.98748e-05
0.000627137
0.000598274
0.000557042
0.000505853
0.000440309
0.000348678
0.000208946
2.80541e-05
0.000613402
0.000577774
0.000535283
0.000483844
0.000418059
0.000326949
0.000191938
2.48591e-05
0.000582037
0.000547517
0.000505397
0.000453686
0.000387377
0.000297142
0.000169043
2.09932e-05
0.000617602
0.000590765
0.000549329
0.000495462
0.000424875
0.00032729
0.00018694
2.48591e-05
0.000631934
0.000615424
0.000575991
0.000522803
0.000452878
0.00035493
0.000208579
2.83255e-05
0.000641533
0.000629066
0.000590861
0.000537358
0.000467517
0.000369625
0.00022072
3.03038e-05
0.000652766
0.000632645
0.000592178
0.000538251
0.000468466
0.000370971
0.000222374
3.03832e-05
0.00065605
0.000624997
0.000580993
0.000526329
0.000456428
0.000359403
0.000213569
2.85522e-05
0.000641642
0.000603661
0.000558314
0.000503404
0.000433383
0.000337138
0.00019639
2.53318e-05
0.000608862
0.000571922
0.000526968
0.000471874
0.000401494
0.000306442
0.000173122
2.14155e-05
0.000654686
0.000616254
0.000569098
0.000510764
0.000435936
0.000333929
0.000189362
2.51672e-05
0.00068852
0.000648924
0.000599526
0.00054032
0.000465307
0.000362259
0.000211069
2.86416e-05
0.000697885
0.000666703
0.000616415
0.000556294
0.000480976
0.000377571
0.000223384
3.06308e-05
0.000706133
0.00066774
0.000617285
0.000557376
0.000482366
0.000379385
0.000225309
3.07308e-05
0.00069625
0.000653993
0.000604125
0.000544768
0.000470198
0.000367975
0.000216769
2.89175e-05
0.000671562
0.000628754
0.000579556
0.000520851
0.000446633
0.000345548
0.000199724
2.57007e-05
0.000634406
0.000594395
0.000546406
0.000487956
0.000413691
0.000314181
0.00017628
2.17568e-05
0.000682733
0.000636376
0.000584961
0.000523383
0.000445272
0.000339563
0.000191327
2.54164e-05
0.000731213
0.000675642
0.00061773
0.000554084
0.000475388
0.000368352
0.000213108
2.89024e-05
0.0007578
0.000697818
0.000636217
0.000571034
0.000491766
0.000384138
0.000225546
3.08997e-05
0.000747287
0.000694485
0.000636797
0.000572599
0.000493754
0.00038644
0.000227754
3.102e-05
0.000726208
0.000676991
0.000622902
0.000560105
0.000481916
0.000375394
0.000219532
2.92271e-05
0.000695973
0.000649694
0.000597601
0.000535924
0.000458227
0.00035296
0.000202634
2.60164e-05
0.00065603
0.000613739
0.000563346
0.000502106
0.000424493
0.000321055
0.000179056
2.20522e-05
0.000694171
0.000647529
0.000596377
0.000533703
0.00045338
0.000344558
0.000193032
2.5626e-05
0.000748765
0.000683407
0.000627686
0.000564345
0.000484123
0.000374153
0.000215277
2.91545e-05
0.000778305
0.000707704
0.000646782
0.00058193
0.000501231
0.000390641
0.000228121
3.11837e-05
0.000770461
0.000708588
0.000649631
0.000584729
0.000503988
0.000393442
0.000230587
3.13201e-05
0.000745381
0.00069265
0.000637553
0.000573288
0.00049268
0.000382636
0.000222487
2.95307e-05
0.000714379
0.000666651
0.000613129
0.000549456
0.000468975
0.000360051
0.000205542
2.6312e-05
0.000674051
0.000630581
0.000578516
0.000515039
0.000434537
0.000327565
0.000181744
2.23233e-05
0.000692299
0.000655688
0.000606414
0.00054317
0.000460794
0.000348992
0.000194433
2.58015e-05
0.000717861
0.000683743
0.00063608
0.00057419
0.000492688
0.000379827
0.000217399
2.93891e-05
0.000737203
0.000702436
0.000654824
0.000592461
0.000510822
0.000397341
0.000230884
3.14671e-05
0.000751059
0.000710388
0.000659824
0.000596373
0.000514243
0.000400566
0.000233563
3.16135e-05
0.000748465
0.000703913
0.000650868
0.000586032
0.000503239
0.000389754
0.000225417
2.98148e-05
0.000728432
0.000681851
0.000627763
0.0005624
0.000479256
0.000366797
0.00020829
2.65802e-05
0.000690404
0.000646313
0.000592818
0.000527229
0.000443942
0.000333602
0.000184201
2.25649e-05
0.000704656
0.000668351
0.0006181
0.000552897
0.000467824
0.000352907
0.000195522
2.59456e-05
0.000728158
0.000697031
0.000649214
0.000585573
0.000501298
0.000384941
0.000219026
2.95728e-05
0.000747403
0.000716396
0.000669004
0.000605049
0.000520603
0.000403401
0.000233001
3.16843e-05
0.000766876
0.000725821
0.000674704
0.000609473
0.000524471
0.000406997
0.000235888
3.18401e-05
0.00076494
0.000720244
0.000666052
0.000599135
0.00051335
0.000396087
0.000227734
3.00385e-05
0.000745914
0.00069831
0.000642577
0.000574891
0.000488742
0.000372693
0.000210486
2.67972e-05
0.000707292
0.000661809
0.00060645
0.000538488
0.00045233
0.000338741
0.00018614
2.27615e-05
0.000726306
0.000684348
0.000630697
0.000562433
0.000474288
0.000356301
0.00019634
2.60575e-05
0.000758708
0.000719729
0.000665359
0.000597366
0.000509197
0.000389085
0.000219994
2.96914e-05
0.000774649
0.000742051
0.000686958
0.000618141
0.00052944
0.000408094
0.000234114
3.18078e-05
0.000792309
0.000748096
0.0006918
0.000622522
0.000533575
0.000412016
0.000237204
3.1975e-05
0.000787559
0.000739008
0.000681593
0.000611456
0.000522177
0.000401108
0.000229193
3.01862e-05
0.00076467
0.00071473
0.000656556
0.000586138
0.000496877
0.000377403
0.000211978
2.69533e-05
0.000723639
0.000676215
0.000618713
0.000548295
0.000459358
0.000342795
0.000187491
2.29079e-05
0.000748612
0.000699177
0.000641694
0.000570564
0.00047972
0.000359051
0.000196866
2.61361e-05
0.000804127
0.000743093
0.000679591
0.00060704
0.00051543
0.000392159
0.000220468
2.97627e-05
0.000840456
0.000770631
0.000702901
0.000628734
0.000536218
0.000411406
0.000234554
3.18697e-05
0.000828723
0.000769488
0.000706419
0.000633111
0.000540702
0.000415696
0.000237869
3.2051e-05
0.000809081
0.000755551
0.000694728
0.000621621
0.000529303
0.000404982
0.000230106
3.02837e-05
0.000781284
0.000728858
0.000668389
0.000595544
0.000503575
0.000381147
0.000213022
2.70658e-05
0.000737688
0.0006885
0.00062909
0.00055652
0.00046517