/*--------------------------------*- C++ -*----------------------------------*\
| =========                 |                                                 |
| \\      /  F ield         | OpenFOAM: The Open Source CFD Toolbox           |
|  \\    /   O peration     | Version:  plus.master.MPPICInterFoam            |
|   \\  /    A nd           | Web:      www.OpenFOAM.com                      |
|    \\/     M anipulation  |                                                 |
\*---------------------------------------------------------------------------*/
FoamFile
{
    version     2.0;
    format      ascii;
    class       volScalarField;
    location    "12.6";
    object      rho;
}
// * * * * * * * * * * * * * * * * * * * * * * * * * * * * * * * * * * * * * //

dimensions      [1 -3 0 0 0 0 0];

internalField   nonuniform List<scalar> 
11821
(
1000
999.289
1000
909.456
1000
1000
1000
1000
1000
1000
1000
1000
1000
886.03
831.411
838.333
946.339
997.233
1000
1000
466.636
369.55
385.395
664.664
942.211
1000
1000
332.018
320.8
320.257
420.669
840.474
1000
1000
334.51
708.119
471.661
398.812
799.576
997.825
1000
336.255
335.924
335.934
401.913
833.696
1000
1000
583.452
441.183
471.264
687.125
941.346
1000
1000
1000
1000
1000
1000
1000
1000
1000
944.682
934.481
930.999
976.691
999.775
1000
1000
708.243
470.358
522.953
856.086
977.229
999.999
1000
446.751
319.718
319.739
605.924
935.499
1000
1000
408.365
324.115
320.39
559.487
924.686
999.947
1000
532.435
335.63
362.97
655.719
928.739
1000
1000
805.32
721.682
719.929
857.354
970.918
999.996
1000
1000
1000
1000
1000
1000
1000
1000
942.211
948.492
935.709
977.79
1000
1000
1000
751.649
517.835
588.683
863.842
978.457
1000
1000
620.402
319.741
319.67
660.292
938.313
1000
1000
680.85
319.716
319.742
576.127
931.458
1000
1000
779.075
457.878
443.644
756.371
921.588
1000
1000
788.997
773.614
736.819
839.78
968.39
1000
1000
1000
1000
1000
1000
1000
1000
1000
906.058
922.925
907.046
971.171
999.757
1000
1000
636.884
465.29
537.014
796.169
970.471
1000
1000
510.499
449.725
446.532
583.641
910.86
1000
1000
697.781
534.137
441.48
474.443
897.361
1000
1000
706.726
539.325
382.799
661.049
869.553
1000
1000
581.494
559.844
562.814
702.519
946.368
1000
1000
1000
1000
1000
1000
1000
1000
1000
869.596
873.139
873.463
965.264
999.39
1000
1000
433.427
397.989
427.524
733.431
963.303
1000
1000
346.043
640.926
493.934
459.605
882.198
1000
1000
437.001
670.819
661.235
429.944
851.548
1000
1000
350.744
425.483
337.359
438.986
837.286
1000
1000
410.946
373.812
364.591
614.392
927.586
1000
1000
1000
1000
1000
1000
1000
1000
1000
877.254
870.603
878.6
968.659
999.564
1000
1000
424.455
398.041
424.627
750.686
967.084
1000
1000
345.474
503.716
373.745
470.588
888.588
1000
1000
344.923
671.121
669.887
428.831
862.716
1000
1000
341.45
337.522
337.151
427.644
854.538
1000
1000
437.606
372.564
394.507
652.911
933.556
1000
1000
1000
1000
1000
1000
1000
1000
1000
906.189
899.99
902.47
975.768
999.927
1000
1000
519.213
402.109
490.05
811.429
976.004
1000
1000
347.044
340.152
338.51
557.588
913.057
1000
1000
345.836
670.913
411.388
490.45
899.352
1000
1000
351.544
337.184
337.167
541.779
892.516
1000
1000
577.788
474.469
527.6
751.714
946.985
1000
1000
1000
1000
1000
1000
1000
1000
1000
913.195
918.606
909.445
977.842
1000
1000
1000
596.158
429.23
546.919
829.513
978.897
1000
1000
394.349
338.506
337.947
610.583
921.207
1000
1000
470.655
415.873
337.23
505.818
914.04
999.997
1000
525.782
337.23
337.162
622.262
898.88
999.999
1000
646.842
550.715
565.31
758.711
948.314
1000
1000
1000
1000
1000
1000
1000
1000
1000
901.477
912.995
903.963
977.302
1000
1000
1000
565.587
434.592
532.337
815.591
978.191
1000
1000
399.771
339.511
399.169
590.363
917.714
1000
1000
616.189
375.671
339.435
493.695
909.231
1000
1000
630.044
346.669
337.109
590.928
888.837
1000
1000
578.856
505.869
503.219
705.809
941.133
1000
1000
1000
1000
1000
1000
1000
1000
1000
879.776
893.781
892.989
976.059
999.96
1000
1000
464.213
418.36
485.571
794.522
976.487
1000
1000
332.816
439.939
440.13
542.058
910.631
1000
1000
434.39
589.22
580.339
472.885
897.448
1000
1000
501.474
456.812
336.981
507.333
876.469
1000
1000
430.308
397.929
397.924
658.978
932.496
1000
1000
1000
1000
1000
1000
1000
1000
1000
876.523
881.633
889.037
976.107
999.95
1000
1000
426.883
385.881
472.973
792.389
976.366
1000
1000
322.677
498.063
353.123
531.932
909.363
1000
1000
316.045
589.665
589.141
471.524
894.261
1000
1000
313.435
427.068
331.629
485.413
876.825
1000
1000
404.449
391.584
398.567
666.257
932.397
1000
1000
1000
1000
1000
1000
1000
1000
1000
882.863
883.672
891.047
977.294
999.98
1000
1000
451.746
375.935
489.693
804.113
977.879
1000
1000
325.43
380.77
335.836
549.755
913.735
1000
1000
313.474
589.521
373.734
471.502
901.097
1000
1000
310.266
307.193
300.848
509.443
885.713
1000
1000
447.336
391.676
443.338
693.591
936.466
1000
1000
1000
1000
1000
1000
1000
1000
1000
887.612
891.003
895.556
978.687
999.997
1000
1000
481.704
376.695
516.054
821.178
979.293
1000
1000
337.901
333.985
342.997
579.543
919.45
1000
1000
499.873
473.912
299.957
483.316
911.136
1000
1000
397.888
299.957
299.737
543.445
894.25
1000
1000
496.646
390.641
459.419
701.18
940.881
1000
1000
1000
1000
1000
1000
1000
1000
1000
884.932
892.716
898.352
979.272
1000
1000
1000
471.889
386.769
515.763
826.607
979.677
1000
1000
331.603
330.718
377.996
583.187
921.629
1000
1000
595.759
481.064
391.693
498.763
914.153
1000
1000
551.622
299.736
299.373
541.963
897.048
1000
1000
480.066
381.405
436.536
691.709
942.311
1000
1000
1000
1000
1000
1000
1000
1000
1000
879.36
890.737
899.272
979.525
1000
1000
1000
431.347
396.079
508.592
826.795
979.519
1000
1000
303.366
487.356
377.287
577.059
921.77
1000
1000
381.989
556.912
556.581
499.012
913.1
1000
1000
462.086
337.906
299.111
527.777
898.099
1000
1000
413.738
376.859
392.789
684.008
942.396
1000
1000
1000
1000
1000
1000
1000
1000
1000
881.013
891.185
901.683
980.135
1000
1000
1000
424.843
396.729
513.071
831.152
979.854
1000
1000
302.743
481.197
373.753
578.455
922.972
1000
1000
303.468
557.022
557.054
498.94
913.668
1000
1000
305.073
403.372
299.037
530.632
902.571
1000
1000
392.805
378.014
394.607
694.621
944.549
1000
1000
999.75
999.708
1000
1000
1000
999.999
1000
1000
1000
1000
1000
1000
1000
1000
1000
1000
1000
1000
1000
1000
1000
1000
1000
1000
1000
1000
1000
1000
1000
1000
1000
1000
1000
1000
1000
1000
1000
1000
1000
1000
1000
1000
1000
1000
1000
1000
998.91
997.037
1000
1000
1000
1000
1000
999.991
999.858
999.897
1000
1000
1000
1000
1000
1000
1000
1000
1000
1000
1000
1000
1000
1000
1000
1000
1000
1000
1000
1000
1000
1000
1000
1000
1000
1000
1000
1000
1000
1000
1000
1000
1000
1000
1000
1000
1000
1000
1000
1000
1000
1000
1000
1000
1000
1000
999.151
997.914
1000
1000
1000
1000
1000
999.992
999.928
999.952
1000
1000
1000
1000
1000
1000
1000
1000
1000
1000
1000
1000
1000
1000
1000
1000
1000
1000
1000
1000
1000
1000
1000
1000
1000
1000
1000
1000
1000
1000
1000
999.998
1000
1000
1000
1000
1000
1000
1000
999.97
1000
1000
1000
1000
1000
1000
999.231
998.048
1000
1000
1000
1000
1000
999.994
999.958
999.966
1000
1000
1000
1000
1000
1000
1000
1000
1000
1000
1000
1000
1000
1000
1000
1000
1000
1000
1000
1000
1000
1000
1000
1000
1000
1000
1000
1000
1000
1000
1000
999.999
1000
1000
1000
1000
1000
1000
1000
999.88
1000
1000
1000
1000
1000
1000
999.299
997.968
1000
1000
1000
1000
1000
999.995
999.977
999.973
1000
1000
1000
1000
1000
1000
1000
1000
1000
1000
1000
1000
1000
1000
1000
1000
1000
1000
1000
1000
1000
1000
1000
1000
1000
1000
1000
1000
1000
1000
1000
1000
1000
1000
1000
1000
1000
1000
1000
999.822
1000
1000
1000
1000
1000
1000
999.391
997.954
1000
1000
1000
1000
1000
999.996
999.99
999.983
1000
1000
1000
1000
1000
1000
1000
1000
1000
1000
1000
1000
1000
1000
1000
1000
1000
1000
1000
1000
1000
1000
1000
1000
1000
1000
1000
1000
1000
1000
1000
1000
1000
1000
1000
1000
1000
1000
1000
999.828
1000
1000
1000
1000
1000
1000
999.512
998.188
1000
1000
1000
1000
1000
999.996
999.997
999.996
1000
1000
1000
1000
1000
1000
1000
1000
1000
1000
1000
1000
1000
1000
1000
1000
1000
1000
1000
1000
1000
1000
1000
999.999
1000
1000
1000
1000
1000
1000
1000
1000
1000
1000
1000
1000
1000
1000
1000
999.869
1000
1000
1000
1000
1000
1000
999.64
998.671
1000
1000
1000
1000
1000
999.996
999.999
1000
1000
1000
1000
1000
1000
1000
1000
1000
1000
1000
1000
1000
1000
1000
1000
1000
1000
1000
1000
1000
1000
1000
1000
999.998
1000
1000
1000
1000
1000
1000
1000
999.993
1000
1000
1000
1000
1000
1000
999.998
999.947
1000
1000
1000
1000
1000
1000
999.749
998.825
1000
1000
1000
1000
1000
999.997
1000
1000
1000
1000
1000
1000
1000
1000
1000
1000
1000
1000
1000
1000
1000
1000
1000
1000
1000
1000
1000
1000
1000
1000
1000
999.998
1000
1000
1000
1000
1000
1000
1000
999.966
1000
1000
1000
1000
1000
1000
999.993
999.993
1000
1000
1000
1000
1000
1000
999.826
998.919
1000
1000
1000
1000
1000
1000
1000
1000
1000
1000
1000
1000
1000
1000
1000
1000
1000
1000
1000
1000
1000
1000
1000
1000
1000
1000
1000
1000
1000
1000
1000
1000
1000
1000
1000
1000
1000
1000
1000
999.927
1000
1000
1000
1000
1000
1000
999.994
999.906
1000
1000
1000
1000
1000
1000
999.865
998.996
1000
1000
1000
1000
1000
1000
1000
1000
1000
1000
1000
1000
1000
1000
1000
1000
1000
1000
1000
1000
1000
1000
1000
1000
1000
1000
1000
1000
1000
1000
1000
1000
1000
1000
1000
1000
1000
1000
1000
999.914
1000
1000
1000
1000
1000
1000
1000
999.496
1000
1000
1000
1000
1000
1000
999.869
999.069
1000
1000
1000
1000
1000
1000
1000
1000
1000
1000
1000
1000
1000
1000
1000
1000
1000
1000
1000
1000
1000
1000
1000
1000
1000
1000
1000
1000
1000
1000
1000
1000
1000
1000
1000
1000
1000
1000
1000
999.938
1000
1000
1000
1000
1000
1000
1000
999.033
1000
1000
1000
1000
1000
1000
999.863
999.163
1000
1000
1000
1000
1000
1000
1000
1000
1000
1000
1000
1000
1000
1000
1000
1000
1000
1000
1000
1000
1000
1000
1000
1000
1000
1000
1000
1000
1000
1000
1000
1000
1000
1000
1000
1000
1000
1000
1000
999.977
1000
1000
1000
1000
1000
1000
1000
998.951
1000
1000
1000
1000
1000
1000
999.845
999.287
1000
1000
1000
1000
1000
1000
1000
1000
1000
1000
1000
1000
1000
1000
1000
1000
1000
1000
1000
1000
1000
1000
1000
1000
1000
1000
1000
1000
1000
1000
1000
1000
1000
1000
1000
1000
1000
1000
1000
999.995
1000
1000
1000
1000
1000
1000
1000
999.068
1000
1000
1000
1000
1000
1000
999.81
999.418
1000
1000
1000
1000
1000
1000
1000
1000
1000
1000
1000
1000
1000
1000
1000
1000
1000
1000
1000
1000
1000
1000
1000
1000
1000
1000
1000
1000
1000
1000
1000
1000
1000
1000
1000
1000
1000
1000
1000
1000
1000
1000
1000
1000
1000
1000
1000
999.388
1000
1000
1000
1000
1000
1000
999.757
999.531
1000
1000
1000
1000
1000
1000
1000
1000
1000
1000
1000
1000
1000
1000
1000
1000
1000
1000
1000
1000
1000
1000
1000
1000
1000
1000
1000
1000
1000
1000
1000
1000
1000
1000
1000
1000
1000
999.999
1000
1000
1000
1000
1000
1000
1000
999.996
1000
999.714
1000
1000
1000
1000
1000
1000
999.698
999.625
1000
1000
1000
1000
1000
1000
1000
1000
1000
1000
1000
1000
1000
1000
1000
1000
1000
1000
1000
1000
1000
1000
1000
1000
1000
1000
1000
1000
1000
1000
1000
1000
1000
1000
1000
1000
1000
999.999
1000
1000
1000
1000
1000
1000
1000
999.994
999.998
999.855
925.746
999.989
999.994
999.989
999.995
1000
999.999
1000
659.494
972.823
999.999
1000
1000
1000
1000
1000
504.837
908.903
999.992
999.999
999.999
1000
1000
999.994
572.418
946.871
999.999
1000
1000
1000
1000
999.98
835.604
999.991
1000
1000
1000
1000
1000
999.997
988.901
1000
1000
1000
1000
1000
1000
999.999
999.999
999.997
999.999
1000
1000
1000
1000
1000
944.565
999.995
999.998
999.995
999.998
1000
999.999
1000
882.358
980.451
1000
1000
1000
1000
1000
1000
823.071
954.257
999.998
1000
1000
1000
1000
1000
819.718
972.018
1000
1000
1000
1000
1000
1000
917.753
999.997
1000
1000
1000
1000
1000
999.996
993.886
1000
1000
1000
1000
1000
1000
1000
1000
999.997
999.999
1000
1000
1000
1000
1000
925.732
999.882
1000
1000
1000
1000
999.999
1000
851.729
960.351
1000
1000
1000
1000
1000
1000
854.556
927.438
999.99
1000
1000
1000
999.998
1000
826.028
957.658
1000
1000
1000
1000
999.998
999.992
900.39
999.614
1000
1000
1000
1000
999.987
999.994
993.748
1000
1000
1000
1000
1000
1000
1000
1000
999.998
999.999
1000
1000
1000
1000
1000
867.501
999.927
1000
1000
1000
1000
999.999
1000
592.484
913.278
1000
1000
1000
1000
1000
1000
579.33
841.412
1000
1000
1000
1000
999.998
999.999
639.613
908.186
1000
1000
1000
1000
999.95
999.975
809.885
998.355
1000
1000
1000
1000
999.965
999.993
988.642
1000
1000
1000
1000
1000
1000
1000
1000
999.998
1000
1000
1000
1000
1000
1000
832.751
999.998
1000
1000
1000
1000
999.999
1000
432.456
892.788
1000
1000
1000
1000
1000
1000
403.533
792.792
1000.01
1000
1000
1000
999.999
999.996
427.184
871.251
1000
1000
1000
1000
999.931
999.972
740.356
997.039
1000
1000
1000
1000
999.969
999.993
980.973
1000
1000
1000
1000
1000
1000
1000
1000
999.998
1000
1000
1000
1000
1000
1000
843.506
999.997
1000
1000
1000
1000
999.999
1000
483.476
908.313
1000
1000
1000
1000
1000
1000
396.855
817.527
999.996
1000
1000
1000
1000
999.992
444.124
882.007
1000
1000
1000
1000
999.931
999.973
758.662
997.256
1000
1000
1000
1000
999.978
999.994
980.923
1000
1000
1000
1000
1000
1000
1000
1000
999.998
1000
1000
1000
1000
1000
1000
865.533
999.214
1000
1000
1000
999.999
999.999
1000
683.742
928.532
1000
1000
1000
1000
1000
1000
550.577
872.191
999.997
1000
1000
1000
999.997
999.987
586.937
912.704
1000
1000
1000
1000
999.931
999.973
817.169
997.354
1000
1000
1000
999.999
999.979
999.994
983.598
1000
1000
1000
1000
1000
1000
1000
1000
999.999
1000
1000
1000
1000
1000
1000
855.773
997.311
1000
1000
1000
999.999
1000
1000
775.307
910.669
1000.01
1000
1000
1000
1000
1000
744.295
866.612
999.016
1000
1000
1000
999.947
999.987
670.578
910.064
1000
1000
1000
1000
999.931
999.971
822.539
996.014
1000
1000
1000
999.996
999.978
999.995
984.102
1000
1000
1000
1000
999.999
1000
1000
1000
1000
1000
1000
1000
1000
1000
1000
806.88
996.36
1000
1000
1000
999.999
1000
1000
654.699
854.152
1000
1000
1000
1000
1000
1000
678.913
797.497
998.901
1000
1000
1000
999.931
999.987
610.598
873.475
1000
1000
1000
1000
999.931
999.97
781.147
992.97
1000
1000
1000
999.987
999.975
999.995
981.041
999.998
1000
1000
1000
999.999
1000
1000
1000
999.999
1000
1000
1000
1000
1000
1000
774.404
996.825
1000
1000
1000
1000
1000
1000
428.706
831.15
1000
1000
1000
1000
1000
1000
421.662
738.143
999.788
1000
1000
1000
999.968
999.99
453.823
831.925
1000
1000
1000
1000
999.931
999.972
726.575
990.211
1000
1000
1000
999.981
999.976
999.997
975.781
999.987
1000
1000
1000
999.999
1000
1000
1000
999.998
1000
1000
1000
1000
1000
1000
779.676
997.308
1000
1000
1000
999.999
1000
1000
421.027
840.949
999.999
1000
1000
1000
1000
1000
343.526
745.626
999.998
1000
1000
1000
999.998
999.996
420.273
831.515
1000
1000
1000
999.998
999.931
999.978
724.825
989.361
1000
1000
1000
999.983
999.979
999.998
974.577
999.969
1000
1000
1000
999.999
1000
999.999
1000
999.998
1000
1000
1000
1000
1000
999.995
793.427
996.757
1000
1000
1000
999.999
1000
1000
532.976
859.234
999.999
1000
1000
1000
1000
999.999
443.075
786.112
998.667
1000
1000
1000
1000
999.999
472.464
846.195
1000
1000
1000
999.992
999.931
999.986
743.784
989.55
1000
1000
1000
999.99
999.987
999.998
975.58
999.946
1000
1000
1000
1000
1000
999.945
1000
999.998
1000
1000
1000
1000
1000
999.961
789.658
994.492
1000
1000
1000
999.999
1000
1000
664.327
851.192
999.81
1000
1000
1000
1000
999.998
655.522
794.878
996.028
1000
1000
1000
999.996
999.999
527.354
848.692
1000
1000
1000
999.982
999.931
999.994
751.07
989.419
1000
1000
1000
999.996
999.995
999.99
976.676
999.923
1000
1000
1000
1000
1000
999.881
1000
999.999
1000
1000
1000
1000
1000
999.929
762.163
992.141
1000
1000
1000
999.999
1000
1000
622.412
809.706
999.821
1000
1000
1000
999.999
999.997
626.108
757.31
996.374
1000
1000
1000
999.969
999.977
504.873
830.286
1000
1000
1000
999.967
999.931
999.999
735.082
987.696
1000
1000
1000
999.996
999.999
999.929
975.875
999.885
1000
1000
1000
1000
1000
999.879
1000
999.999
1000
1000
1000
1000
1000
999.929
739.701
992.183
1000
1000
999.999
999.998
1000
1000
451.382
785.052
1000.01
1000
1000
1000
999.999
999.997
415.7
703.892
998.136
1000
1000
999.991
999.958
999.958
421.449
798.571
1000
1000
1000
999.959
999.962
1000
708.189
984.944
1000
1000
1000
999.996
1000
999.885
973.546
999.837
1000
1000
1000
1000
1000
999.879
1000
999.999
1000
1000
1000
1000
1000
999.941
743.94
993.183
1000
1000
999.999
999.998
1000
1000
399.348
792.825
999.999
1000
1000
1000
999.999
999.997
329.93
704.271
998.568
1000
1000
999.965
999.958
999.978
392.337
796.709
1000
1000
1000
999.959
999.989
1000
709.793
984.385
1000
1000
1000
999.997
1000
999.891
973.322
999.824
1000
1000
1000
1000
1000
999.879
1000
999.998
999.999
1000
1000
1000
1000
999.966
1000
1000
1000
1000
1000
1000
1000
1000
1000
1000
1000
1000
1000
999.999
999.991
1000
1000
1000
1000
1000
999.998
999.986
999.995
1000
1000
1000
1000
999.943
999.999
999.991
999.999
1000
1000
1000
1000
1000
1000
1000
999.999
1000
1000
1000
1000
1000
1000
1000
999.957
999.773
1000
1000
1000
1000
1000
1000
999.38
997.148
1000
1000
1000
1000
999.999
1000
1000
1000
1000
1000
1000
999.998
999.997
999.999
999.999
1000
1000
1000
1000
999.994
999.993
999.986
999.998
1000
1000
999.998
999.968
999.88
999.999
999.997
999.999
999.996
1000
1000
1000
1000
1000
1000
999.999
1000
1000
1000
1000
1000
1000
1000
999.924
998.78
1000
1000
1000
1000
1000
1000
999.21
997.147
1000
1000
1000
1000
999.999
1000
1000
1000
1000
1000
999.995
999.984
999.989
999.997
999.999
1000
1000
1000
999.922
999.782
999.99
999.986
999.998
1000
1000
999.991
999.552
999.88
999.999
999.998
1000
999.981
1000
1000
1000
1000
1000
999.999
1000
1000
1000
1000
1000
1000
1000
1000
999.886
998.202
1000
1000
1000
1000
1000
1000
999.026
997.146
1000
1000
1000
1000
999.999
1000
1000
1000
1000
1000
999.974
999.942
999.981
999.992
999.998
1000
1000
1000
999.619
999.645
999.99
999.986
999.999
1000
1000
999.975
999.502
999.885
999.996
999.998
1000
999.978
1000
1000
1000
1000
1000
999.999
1000
1000
1000
1000
1000
999.998
1000
1000
999.862
998.006
1000
1000
1000
1000
1000
1000
998.899
997.146
1000
1000
1000
1000
999.999
1000
1000
1000
1000
1000
999.952
999.886
999.978
999.986
999.998
1000
1000
999.997
999.501
999.659
999.99
999.988
999.999
1000
1000
999.959
999.502
999.904
999.994
999.998
1000
999.993
1000
1000
999.999
999.999
1000
999.999
1000
999.981
1000
1000
999.995
999.998
1000
1000
999.849
997.781
1000
1000
1000
1000
1000
1000
998.891
997.182
1000
1000
1000
1000
999.998
999.999
1000
1000
1000
999.999
999.953
999.859
999.979
999.986
999.998
1000
1000
999.981
999.501
999.697
999.99
999.994
1000
1000
1000
999.944
999.501
999.931
999.995
999.999
1000
1000
1000
1000
999.997
999.999
1000
999.999
1000
999.675
1000
1000
999.992
999.998
1000
1000
999.842
997.516
1000
1000
1000
1000
1000
1000
998.866
997.207
1000
1000
1000
999.998
999.997
999.999
1000
1000
1000
1000
999.948
999.835
999.983
999.992
999.999
1000
1000
999.955
999.5
999.749
999.99
999.999
1000
1000
1000
999.885
999.506
999.962
999.997
1000
1000
1000
1000
1000
999.997
1000
1000
1000
1000
999.067
1000
1000
999.992
999.999
1000
1000
999.842
997.959
1000
1000
999.999
1000
1000
1000
998.883
997.314
1000
1000
999.998
999.992
999.995
999.999
1000
1000
1000
1000
999.837
999.804
999.99
999.999
1000
1000
1000
999.914
999.5
999.797
999.99
1000
1000
1000
1000
999.629
999.662
999.985
999.999
1000
1000
1000
1000
999.999
999.998
1000
1000
1000
1000
998.961
1000
999.997
999.992
999.999
1000
1000
999.842
998.945
1000
1000
999.999
1000
1000
1000
998.92
997.408
1000
1000
999.994
999.985
999.995
999.999
1000
1000
1000
1000
999.544
999.798
999.996
1000
1000
1000
1000
999.807
999.5
999.84
999.993
1000
1000
1000
1000
999.547
999.819
999.994
1000
1000
999.999
1000
1000
999.997
999.998
1000
1000
1000
1000
999.254
1000
999.993
999.994
1000
1000
1000
999.829
999.353
1000
1000
1000
1000
1000
1000
998.951
997.366
1000
1000
999.987
999.981
999.996
1000
1000
1000
1000
999.999
999.5
999.811
999.998
1000
1000
1000
1000
999.612
999.5
999.891
999.997
1000
1000
999.997
1000
999.547
999.891
999.997
1000
1000
999.998
1000
1000
999.995
999.999
1000
1000
1000
1000
999.937
1000
999.993
999.998
1000
1000
1000
999.719
999.238
1000
1000
1000
1000
1000
1000
998.962
997.333
1000
1000
999.986
999.981
999.997
1000
1000
1000
1000
999.99
999.5
999.874
999.999
1000
1000
1000
1000
999.543
999.5
999.954
1000
1000
1000
999.99
1000
999.579
999.941
999.999
1000
1000
999.998
999.999
1000
999.997
999.999
1000
1000
1000
999.999
1000
1000
999.993
1000
999.999
1000
1000
999.485
998.466
1000
1000
1000
1000
1000
1000
998.97
997.333
1000
1000
999.985
999.985
999.999
1000
1000
1000
1000
999.912
999.716
999.961
999.999
1000
1000
1000
1000
999.544
999.67
999.994
1000
1000
1000
999.99
1000
999.834
999.979
1000
1000
1000
1000
1000
1000
999.999
1000
1000
999.999
1000
999.994
1000
999.999
999.996
1000
999.998
1000
1000
999.349
997.448
1000
1000
1000
1000
1000
1000
998.961
997.333
1000
1000
999.986
999.994
1000
1000
1000
1000
1000
999.734
999.951
999.998
1000
1000
1000
1000
1000
999.544
999.904
1000
1000
1000
1000
999.994
999.998
999.982
999.997
1000
999.999
1000
1000
999.948
1000
1000
1000
999.972
999.999
1000
999.995
1000
999.999
1000
999.993
999.997
1000
1000
999.346
997.385
1000
1000
1000
1000
1000
1000
998.949
997.333
1000
1000
999.992
999.999
1000
1000
1000
1000
1000
999.75
999.988
1000
1000
1000
1000
1000
1000
999.669
999.988
1000
1000
1000
1000
1000
999.996
999.999
1000
1000
999.996
1000
1000
999.689
1000
1000
999.995
999.958
1000
1000
1000
999.964
1000
1000
999.983
999.997
1000
1000
999.387
998.334
1000
1000
1000
1000
1000
1000
998.908
997.333
1000
999.998
1000
1000
1000
1000
1000
1000
1000
999.944
999.997
1000
1000
1000
1000
1000
1000
999.982
1000
1000
1000
1000
1000
1000
999.998
1000
1000
999.991
999.996
1000
1000
999.615
1000
1000
999.682
999.958
1000
1000
1000
999.909
1000
999.995
999.98
999.998
1000
1000
999.193
999.625
1000
1000
1000
1000
1000
1000
998.748
997.333
1000
999.998
1000
1000
1000
1000
1000
1000
1000
1000
1000
1000
1000
1000
1000
1000
1000
1000
1000
1000
1000
1000
1000
1000
1000
1000
999.986
999.798
999.996
1000
1000
999.615
1000
999.973
999.622
999.961
1000
1000
1000
999.921
1000
999.968
999.98
1000
1000
1000
998.579
999.711
1000
1000
1000
1000
1000
1000
998.571
997.333
1000
1000
1000
1000
1000
1000
999.999
999.992
1000
1000
1000
1000
1000
1000
999.997
999.835
999.917
1000
1000
1000
1000
999.972
999.986
999.846
941.928
1000
1000
1000
1000
1000
999.869
999.99
999.998
999.956
999.952
999.432
999.848
1000
999.728
999.999
1000
1000
1000
1000
1000
1000
999.996
999.994
1000
1000
1000
1000
1000
1000
999.992
999.831
999.637
1000
1000
1000
1000
999.972
999.985
999.831
965.093
1000
1000
1000
1000
999.998
999.866
999.99
859.879
999.992
999.998
999.997
999.97
999.432
999.851
1000
863.099
999.989
999.994
999.981
999.95
999.43
999.749
1000
968.634
999.995
999.996
999.87
999.952
999.929
999.921
999.998
1000
1000
1000
1000
1000
1000
999.997
999.994
1000
1000
1000
1000
1000
1000
999.99
999.831
999.823
1000
1000
1000
1000
999.976
999.986
999.831
977.866
1000
1000
1000
1000
999.99
999.876
999.975
925.88
999.997
1000
1000
999.959
999.434
999.872
1000
932.302
999.996
999.999
1000
999.975
999.433
999.774
1000
974.621
999.998
999.997
1000
1000
999.85
999.919
1000
1000
1000
1000
1000
1000
1000
1000
999.852
1000
1000
1000
1000
1000
1000
999.988
999.89
1000
1000
1000
1000
1000
999.994
999.989
999.846
971.021
1000
1000
1000
1000
999.98
999.893
999.903
897.38
999.95
1000
1000
999.901
999.524
999.914
1000
899.61
999.82
1000
1000
999.953
999.434
999.806
1000
957.881
1000
999.999
1000
1000
999.759
999.922
1000
1000
1000
1000
1000
1000
1000
1000
999.514
1000
1000
1000
1000
1000
1000
999.984
999.979
999.853
1000
1000
1000
999.999
999.999
999.991
999.94
950.356
1000
1000
1000
1000
999.964
999.927
999.892
802.339
999.945
1000
1000
999.771
999.764
999.947
1000
788.056
999.782
1000
1000
999.883
999.435
999.859
1000
919.209
1000
1000
1000
1000
999.773
999.934
1000
1000
1000
1000
1000
1000
1000
1000
999.323
1000
1000
1000
1000
1000
1000
999.985
999.985
998.97
1000
1000
1000
999.999
999.999
999.988
999.98
938.62
1000
1000
1000
1000
999.93
999.965
999.892
753.222
999.998
1000
1000
999.757
999.8
999.954
1000
729.812
999.782
1000
1000
999.784
999.452
999.934
1000
897.01
1000
1000
1000
999.999
999.861
999.961
1000
1000
1000
1000
1000
1000
1000
1000
999.299
1000
1000
1000
1000
1000
1000
999.994
999.904
998.715
1000
1000
1000
999.999
999.998
999.971
999.981
943.29
1000
1000
1000
1000
999.906
999.966
999.892
779.111
999.996
1000
1000
999.786
999.823
999.946
1000
760.844
999.974
1000
1000
999.765
999.807
999.985
1000
904.044
1000
1000
1000
999.991
999.971
999.991
1000
1000
1000
1000
1000
1000
1000
1000
999.299
1000
1000
1000
1000
1000
1000
1000
999.475
998.943
1000
1000
1000
1000
999.996
999.97
999.982
950.118
1000
1000
1000
1000
999.906
999.947
999.892
825.94
999.743
1000
1000
999.943
999.933
999.931
999.992
818.132
999.616
1000
1000
999.855
999.993
999.996
1000
913.579
1000
1000
1000
999.981
999.999
1000
1000
1000
1000
1000
1000
1000
1000
1000
999.438
1000
1000
1000
1000
1000
1000
1000
999.142
998.966
1000
1000
1000
1000
999.997
999.983
999.986
947.573
1000
1000
1000
999.999
999.906
999.948
999.892
817.398
999.003
1000
999.998
999.999
999.943
999.928
999.923
809.091
998.073
1000
1000
999.999
1000
999.996
1000
898.477
1000
1000
1000
999.985
999.999
1000
1000
1000
1000
1000
1000
1000
1000
999.988
999.834
1000
1000
1000
1000
1000
1000
1000
999.106
998.341
1000
1000
1000
999.999
999.999
999.998
999.906
937.356
1000
1000
1000
999.993
999.932
999.978
999.956
764.198
998.515
1000
999.997
999.999
999.926
999.961
999.908
741.151
996.039
1000
1000
1000
1000
999.995
1000
858.671
1000
1000
1000
999.999
1000
1000
1000
1000
1000
1000
1000
1000
1000
999.939
999.86
1000
1000
1000
1000
1000
1000
999.997
999.071
997.354
1000
1000
1000
999.998
1000
1000
999.432
930.357
1000
1000
1000
999.981
999.985
999.995
999.999
727.829
998.298
1000
999.999
999.997
999.924
999.989
999.908
689.894
994.982
1000
1000
1000
999.991
999.987
1000
842.347
1000
1000
1000
1000
1000
1000
1000
1000
1000
1000
1000
1000
1000
999.905
999.339
1000
1000
1000
1000
1000
1000
999.98
999.069
997.038
1000
1000
999.999
999.998
1000
1000
999.071
930.48
1000
1000
1000
999.979
999.996
999.991
1000
733.342
997.744
1000
1000
999.993
999.924
999.992
999.908
696.176
994.707
1000
1000
1000
999.944
999.979
999.997
844.607
1000
1000
1000
1000
1000
999.999
1000
1000
1000
1000
1000
1000
1000
999.904
998.507
1000
1000
1000
1000
1000
1000
999.957
999.188
997.099
1000
1000
999.999
999.998
1000
1000
999.104
932.651
1000
1000
1000
999.979
999.998
999.987
1000
748.39
996.853
1000
1000
999.987
999.957
999.997
999.909
713.845
994.167
1000
1000
999.999
999.932
999.978
999.975
846.934
1000
1000
1000
999.999
1000
999.996
1000
1000
1000
1000
1000
1000
1000
999.908
998.444
1000
1000
1000
1000
1000
1000
999.918
999.723
997.247
1000
1000
999.999
999.999
1000
1000
999.508
933.561
1000
1000
1000
999.994
1000
999.987
1000
747.483
996.589
1000
1000
999.986
999.994
999.999
999.959
709.062
992.507
1000
1000
999.996
999.932
999.98
999.964
838.526
1000
1000
1000
999.999
999.966
999.993
1000
1000
1000
1000
1000
1000
1000
999.928
998.444
1000
1000
1000
1000
999.999
1000
999.882
999.949
997.239
1000
1000
999.999
1000
1000
1000
999.979
932.403
1000
1000
1000
1000
1000
999.987
1000
731.929
996.592
1000
1000
999.987
999.998
1000
999.999
681.163
990.157
1000
1000
999.986
999.932
999.988
999.964
818.188
1000
1000
1000
999.995
999.932
999.991
1000
1000
1000
1000
1000
1000
1000
999.958
998.427
1000
1000
1000
1000
999.999
1000
999.879
999.797
997.166
1000
1000
1000
1000
1000
1000
1000
931.235
1000
1000
1000
1000
1000
999.999
1000
719.567
996.507
1000
1000
999.994
999.999
1000
1000
663.769
989.066
1000
1000
999.969
999.935
999.996
999.981
812.025
1000
1000
1000
999.984
999.932
999.992
1000
1000
1000
1000
1000
1000
999.997
999.976
998.389
1000
1000
1000
1000
999.999
1000
999.883
998.919
997.269
1000
1000
1000
1000
1000
1000
1000
933.415
1000
1000
1000
1000
1000
1000
1000
725.258
996.493
1000
1000
999.999
1000
1000
1000
675.795
989.337
1000
1000
999.961
999.969
999.999
1000
816.169
1000
1000
1000
999.968
999.934
999.995
1000
1000
1000
1000
1000
1000
1000
1000
1000
1000
1000
1000
1000
1000
1000
1000
1000
1000
1000
1000
1000
1000
1000
1000
1000
1000
1000
1000
1000
1000
1000
1000
1000
1000
1000
1000
1000
1000
1000
1000
1000
1000
1000
1000
1000
1000
1000
1000
1000
1000
1000
1000
1000
1000
1000
1000
1000
1000
1000
1000
1000
1000
1000
1000
1000
1000
1000
1000
1000
1000
1000
1000
1000
1000
1000
1000
1000
1000
1000
1000
1000
1000
1000
1000
1000
1000
1000
1000
1000
1000
1000
1000
1000
1000
1000
1000
1000
1000
1000
1000
1000
1000
1000
1000
1000
1000
1000
1000
1000
1000
1000
1000
1000
1000
1000
1000
1000
1000
1000
1000
1000
1000
1000
1000
1000
1000
1000
1000
1000
1000
1000
1000
1000
1000
1000
1000
1000
1000
1000
1000
1000
1000
1000
1000
1000
1000
1000
1000
1000
1000
1000
1000
1000
1000
1000
1000
1000
1000
1000
1000
1000
1000
1000
1000
1000
1000
1000
1000
1000
1000
1000
1000
1000
1000
1000
1000
1000
1000
1000
1000
1000
1000
1000
1000
1000
1000
1000
1000
1000
1000
1000
1000
1000
1000
1000
1000
1000
1000
1000
1000
1000
1000
1000
1000
1000
1000
1000
1000
1000
1000
1000
1000
1000
1000
1000
1000
1000
1000
1000
1000
999.999
999.998
1000
1000
1000
1000
1000
1000
1000
1000
1000
1000
1000
1000
1000
1000
1000
1000
1000
1000
1000
1000
1000
1000
1000
1000
1000
1000
1000
1000
1000
1000
1000
1000
1000
1000
1000
1000
1000
1000
1000
1000
1000
1000
1000
1000
1000
1000
1000
1000
1000
1000
1000
1000
1000
999.999
999.989
999.993
1000
1000
1000
1000
1000
1000
1000
1000
1000
1000
1000
1000
1000
1000
1000
1000
1000
1000
1000
1000
1000
1000
1000
1000
1000
1000
1000
1000
1000
1000
1000
1000
1000
1000
1000
1000
1000
1000
1000
1000
1000
1000
1000
1000
1000
1000
1000
1000
1000
1000
1000
1000
999.999
999.984
999.979
999.991
1000
1000
1000
1000
1000
1000
1000
1000
1000
1000
1000
1000
1000
1000
1000
1000
1000
1000
1000
1000
1000
1000
1000