/*--------------------------------*- C++ -*----------------------------------*\
| =========                 |                                                 |
| \\      /  F ield         | OpenFOAM: The Open Source CFD Toolbox           |
|  \\    /   O peration     | Version:  plus.master.MPPICInterFoam            |
|   \\  /    A nd           | Web:      www.OpenFOAM.com                      |
|    \\/     M anipulation  |                                                 |
\*---------------------------------------------------------------------------*/
FoamFile
{
    version     2.0;
    format      ascii;
    class       surfaceScalarField;
    location    "1.2";
    object      alphaPhi;
}
// * * * * * * * * * * * * * * * * * * * * * * * * * * * * * * * * * * * * * //

dimensions      [0 3 -1 0 0 0 0];

internalField   nonuniform List<scalar> 
34004
(
-9.11788e-11
1.62818e-09
4.55328e-08
-1.60381e-09
-2.42726e-10
1.47639e-09
5.47818e-08
-1.46497e-09
-3.61543e-10
1.37201e-09
6.2899e-08
-1.36515e-09
-4.60992e-10
1.2904e-09
7.09877e-08
-1.29053e-09
-5.43692e-10
1.22261e-09
7.92144e-08
-1.22394e-09
-6.05033e-10
1.16312e-09
8.76558e-08
-1.16315e-09
-6.33916e-10
1.10536e-09
9.63618e-08
-1.1056e-09
1.04726e-09
1.05384e-07
-1.05034e-09
-6.13736e-10
-3.90393e-11
1.53306e-09
4.53413e-08
-1.28927e-10
1.39348e-09
5.45602e-08
-2.07786e-10
1.29484e-09
6.26445e-08
-2.83083e-10
1.2167e-09
7.06962e-08
-3.51694e-10
1.15134e-09
7.88827e-08
-4.06801e-10
1.09374e-09
8.72798e-08
-4.39963e-10
1.03893e-09
9.5936e-08
9.84377e-10
1.04903e-07
-4.38433e-10
2.29467e-11
1.35411e-09
4.51673e-08
-1.35546e-11
1.23158e-09
5.43552e-08
-5.16876e-11
1.1451e-09
6.2408e-08
-9.61154e-11
1.07397e-09
7.04264e-08
-1.43504e-10
1.01393e-09
7.85765e-08
-1.87954e-10
9.61168e-10
8.69336e-08
-2.21985e-10
9.12468e-10
9.55461e-08
8.65815e-10
1.04466e-07
-2.33313e-10
7.35854e-11
1.10179e-09
4.50119e-08
7.64313e-11
1.0053e-09
5.41752e-08
7.1828e-11
9.33518e-10
6.22009e-08
5.32174e-11
8.73597e-10
7.01898e-08
2.29509e-11
8.22888e-10
7.83085e-08
-1.35573e-11
7.80281e-10
8.66306e-08
-4.7553e-11
7.43133e-10
9.52042e-08
7.1047e-10
1.04083e-07
-6.76534e-11
9.91864e-11
8.04218e-10
4.48841e-08
1.26243e-10
7.34861e-10
5.40278e-08
1.38865e-10
6.81316e-10
6.20314e-08
1.30764e-10
6.36032e-10
6.99965e-08
1.03712e-10
5.98761e-10
7.80889e-08
6.51196e-11
5.67963e-10
8.63822e-08
2.33799e-11
5.43399e-10
9.4924e-08
5.24516e-10
1.03769e-07
-9.33034e-12
1.08063e-10
4.85629e-10
4.47913e-08
1.44878e-10
4.42333e-10
5.3921e-08
1.64688e-10
4.07047e-10
6.1909e-08
1.58419e-10
3.78352e-10
6.98573e-08
1.30114e-10
3.5448e-10
7.7931e-08
8.64578e-11
3.35597e-10
8.62033e-08
3.87943e-11
3.2141e-10
9.47216e-08
3.12571e-10
1.03539e-07
1.43679e-12
1.13907e-10
4.47348e-08
1.6139e-10
1.56138e-10
5.38587e-08
1.42448e-10
1.77466e-10
6.18394e-08
1.26214e-10
1.73347e-10
6.97784e-08
1.12771e-10
1.46529e-10
7.78419e-08
1.0214e-10
1.05708e-10
8.61028e-08
9.42211e-11
5.96735e-11
9.46094e-08
8.97802e-11
1.03413e-07
8.92824e-11
2.70609e-11
-7.06067e-11
1.41142e-09
4.55301e-08
-1.38172e-09
-2.04603e-10
1.27772e-09
5.47695e-08
-1.26517e-09
-3.0455e-10
1.1875e-09
6.28752e-08
-1.17988e-09
-3.87784e-10
1.11666e-09
7.0951e-08
-1.11367e-09
-4.56844e-10
1.0572e-09
7.91621e-08
-1.0571e-09
-5.07241e-10
1.00388e-09
8.75815e-08
-1.00582e-09
-5.2983e-10
9.52136e-10
9.62546e-08
-9.54665e-10
9.00229e-10
1.05226e-07
-9.03206e-10
-5.11733e-10
-2.68114e-11
1.32768e-09
4.53636e-08
-1.03267e-10
1.20564e-09
5.45795e-08
-1.6531e-10
1.12064e-09
6.26573e-08
-2.24418e-10
1.05378e-09
7.07011e-08
-2.79533e-10
9.97274e-10
7.88767e-08
-3.24972e-10
9.46131e-10
8.72565e-08
-3.51492e-10
8.96368e-10
9.58858e-08
8.4534e-10
1.0481e-07
-3.48769e-10
3.28962e-11
1.17337e-09
4.52131e-08
4.75349e-12
1.06666e-09
5.44039e-08
-2.09692e-11
9.92172e-10
6.24549e-08
-5.09156e-11
9.31349e-10
7.04697e-08
-8.44625e-11
8.80182e-10
7.86136e-08
-1.16858e-10
8.34517e-10
8.69586e-08
-1.40571e-10
7.91446e-10
9.55498e-08
7.49183e-10
1.04433e-07
-1.48064e-10
7.68364e-11
9.55432e-10
4.50807e-08
8.47156e-11
8.71897e-10
5.42492e-08
8.95807e-11
8.09572e-10
6.22763e-08
8.22453e-11
7.58287e-10
7.0266e-08
6.47693e-11
7.1508e-10
7.83826e-08
4.02007e-11
6.77863e-10
8.6698e-08
1.53628e-11
6.44451e-10
9.52565e-08
6.15368e-10
1.04104e-07
-2.49201e-12
9.82e-11
6.956e-10
4.49772e-08
1.2838e-10
6.36771e-10
5.41258e-08
1.48479e-10
5.90797e-10
6.21332e-08
1.50209e-10
5.51883e-10
7.01026e-08
1.35221e-10
5.19467e-10
7.81968e-08
1.07822e-10
4.92683e-10
8.64872e-08
7.42086e-11
4.71415e-10
9.50177e-08
4.55059e-10
1.03834e-07
4.55487e-11
1.0333e-10
4.21681e-10
4.48972e-08
1.41327e-10
3.84933e-10
5.40337e-08
1.66245e-10
3.55731e-10
6.20276e-08
1.69022e-10
3.30771e-10
6.99827e-08
1.51949e-10
3.0999e-10
7.80608e-08
1.19407e-10
2.93723e-10
8.63335e-08
8.18367e-11
2.81497e-10
9.48428e-08
2.73514e-10
1.03636e-07
5.02027e-11
1.04624e-10
4.48492e-08
1.41686e-10
1.44985e-10
5.398e-08
1.27448e-10
1.71519e-10
6.19674e-08
1.14542e-10
1.75079e-10
6.99144e-08
1.03479e-10
1.57657e-10
7.79837e-08
9.45167e-11
1.2504e-10
8.62461e-08
8.81034e-11
8.83019e-11
9.47443e-08
8.41201e-11
1.03524e-07
8.40457e-11
5.85133e-11
-5.54322e-11
1.22377e-09
4.55086e-08
-1.19324e-09
-1.71755e-10
1.10693e-09
5.47368e-08
-1.09545e-09
-2.52164e-10
1.02924e-09
6.28294e-08
-1.0225e-09
-3.19116e-10
9.6792e-10
7.08925e-08
-9.63228e-10
-3.74973e-10
9.15884e-10
7.90885e-08
-9.12044e-10
-4.16013e-10
8.68258e-10
8.74874e-08
-8.64664e-10
-4.34519e-10
8.21328e-10
9.61303e-08
-8.16837e-10
7.73247e-10
1.05059e-07
-7.67839e-10
-4.2277e-10
-1.98378e-11
1.15192e-09
4.53645e-08
-8.46302e-11
1.04539e-09
5.4574e-08
-1.31804e-10
9.71981e-10
6.26431e-08
-1.75845e-10
9.14589e-10
7.06789e-08
-2.17405e-10
8.65938e-10
7.88445e-08
-2.52185e-10
8.21151e-10
8.72094e-08
-2.72718e-10
7.76649e-10
9.5816e-08
7.3052e-10
1.04706e-07
-2.72851e-10
3.39259e-11
1.01932e-09
4.52342e-08
1.41139e-11
9.25698e-10
5.44228e-08
9.93809e-13
8.60965e-10
6.24697e-08
-1.55951e-11
8.08903e-10
7.04806e-08
-3.54698e-11
7.64877e-10
7.86184e-08
-5.54951e-11
7.25038e-10
8.69529e-08
-7.10843e-11
6.86352e-10
9.55275e-08
6.47328e-10
1.04382e-07
-7.79695e-11
7.65215e-11
8.27769e-10
4.51217e-08
9.00835e-11
7.55707e-10
5.42906e-08
1.04377e-10
7.01924e-10
6.23167e-08
1.09041e-10
6.57961e-10
7.03062e-08
1.04639e-10
6.20702e-10
7.84206e-08
9.40538e-11
5.88122e-10
8.67296e-08
8.0744e-11
5.5869e-10
9.52756e-08
5.31968e-10
1.041e-07
6.5862e-11
9.70144e-11
6.03661e-10
4.50339e-08
1.30569e-10
5.53642e-10
5.41849e-08
1.57744e-10
5.1403e-10
6.21948e-08
1.70575e-10
4.80438e-10
7.01665e-08
1.69119e-10
4.5208e-10
7.8262e-08
1.5652e-10
4.28392e-10
8.65497e-08
1.37521e-10
4.08804e-10
9.50714e-08
3.93541e-10
1.03868e-07
1.15412e-10
9.99121e-11
3.64378e-10
4.49699e-08
1.3993e-10
3.3576e-10
5.41073e-08
1.7022e-10
3.1138e-10
6.21057e-08
1.82873e-10
2.89707e-10
7.0065e-08
1.77599e-10
2.71611e-10
7.81471e-08
1.59319e-10
2.57024e-10
8.64192e-08
1.33252e-10
2.45849e-10
9.49231e-08
2.39053e-10
1.03698e-07
1.07034e-10
9.72131e-11
4.49301e-08
1.2277e-10
1.3833e-10
5.40613e-08
1.13466e-10
1.70003e-10
6.20535e-08
1.03491e-10
1.82689e-10
7.00059e-08
9.41531e-11
1.76472e-10
7.80803e-08
8.63909e-11
1.55815e-10
8.63438e-08
8.09586e-11
1.27708e-10
9.48366e-08
7.81312e-11
1.036e-07
7.85494e-11
9.93195e-11
-4.45282e-11
1.06126e-09
4.5475e-08
-1.03053e-09
-1.40293e-10
9.61273e-10
5.46857e-08
-9.51445e-10
-2.00828e-10
8.94767e-10
6.27655e-08
-8.89867e-10
-2.49311e-10
8.41429e-10
7.08162e-08
-8.37589e-10
-2.87933e-10
7.95455e-10
7.89972e-08
-7.91461e-10
-3.12956e-10
7.52319e-10
8.73761e-08
-7.48004e-10
-3.19667e-10
7.0915e-10
9.59936e-08
-7.04494e-10
6.64594e-10
1.0489e-07
-6.60011e-10
-3.05518e-10
-1.88936e-11
1.00041e-09
4.53535e-08
-6.94592e-11
9.08176e-10
5.45462e-08
-1.00326e-10
8.44978e-10
6.26054e-08
-1.27502e-10
7.95391e-10
7.06325e-08
-1.51578e-10
7.52861e-10
7.87872e-08
-1.70131e-10
7.12932e-10
8.71379e-08
-1.78645e-10
6.72664e-10
9.57254e-08
6.29713e-10
1.0459e-07
-1.76346e-10
2.78814e-11
8.8882e-10
4.52401e-08
1.7349e-11
8.06168e-10
5.44147e-08
1.77702e-11
7.49256e-10
6.24555e-08
1.71034e-11
7.044e-10
7.04608e-08
1.40544e-11
6.66287e-10
7.85919e-08
9.80087e-12
6.31383e-10
8.69169e-08
8.90713e-12
5.96401e-10
9.54767e-08
5.60651e-10
1.04314e-07
5.46151e-12
7.00788e-11
7.23892e-10
4.5142e-08
9.13024e-11
6.5913e-10
5.43007e-08
1.15392e-10
6.12152e-10
6.23249e-08
1.34038e-10
5.73851e-10
7.03114e-08
1.46182e-10
5.41583e-10
7.84221e-08
1.53242e-10
5.12966e-10
8.67246e-08
1.56388e-10
4.86459e-10
9.52603e-08
4.61662e-10
1.04072e-07
1.50309e-10
9.26591e-11
5.28015e-10
4.5066e-08
1.31991e-10
4.83888e-10
5.42099e-08
1.68918e-10
4.493e-10
6.22202e-08
1.9512e-10
4.19876e-10
7.01922e-08
2.10781e-10
3.95112e-10
7.82867e-08
2.17227e-10
3.74168e-10
8.6571e-08
2.16777e-10
3.56516e-10
9.50854e-08
3.42252e-10
1.03872e-07
2.05191e-10
9.89831e-11
3.18439e-10
4.50124e-08
1.43826e-10
2.94381e-10
5.41453e-08
1.83675e-10
2.73324e-10
6.21453e-08
2.09598e-10
2.54319e-10
7.01067e-08
2.21864e-10
2.38407e-10
7.81897e-08
2.22543e-10
2.25522e-10
8.64608e-08
2.162e-10
2.15652e-10
9.49589e-08
2.09176e-10
1.03726e-07
1.99518e-10
9.63514e-11
4.49804e-08
1.06473e-10
1.41923e-10
5.41066e-08
1.00271e-10
1.82414e-10
6.21008e-08
9.23112e-11
2.07127e-10
7.00564e-08
8.45173e-11
2.16945e-10
7.81329e-08
7.78904e-11
2.14591e-10
8.6396e-08
7.32706e-11
2.04105e-10
9.48846e-08
7.10463e-11
1.03641e-07
7.21574e-11
1.83748e-10
-2.62826e-11
9.2184e-10
4.54261e-08
-8.93524e-10
-1.03233e-10
8.36298e-10
5.46204e-08
-8.29073e-10
-1.45921e-10
7.78626e-10
6.26871e-08
-7.75276e-10
-1.76049e-10
7.31849e-10
7.07238e-08
-7.28817e-10
-1.95621e-10
6.90922e-10
7.88886e-08
-6.87311e-10
-2.01775e-10
6.52132e-10
8.72472e-08
-6.47843e-10
-1.91537e-10
6.12853e-10
9.58407e-08
-6.07714e-10
5.71854e-10
1.04714e-07
-5.66153e-10
-1.70534e-10
-9.47352e-12
8.69853e-10
4.53253e-08
-4.67776e-11
7.89716e-10
5.45e-08
-6.35559e-11
7.35652e-10
6.25479e-08
-7.45255e-11
6.92371e-10
7.05645e-08
-8.16321e-11
6.55059e-10
7.87075e-08
-8.21387e-11
6.1945e-10
8.70429e-08
-7.33101e-11
5.82812e-10
9.56123e-08
5.43782e-10
1.04461e-07
-6.27591e-11
3.22593e-11
7.75438e-10
4.5225e-08
2.72328e-11
7.03146e-10
5.43862e-08
3.77198e-11
6.53758e-10
6.2418e-08
4.96657e-11
6.14719e-10
7.04156e-08
6.21858e-11
5.81391e-10
7.85374e-08
7.59145e-11
5.50331e-10
8.68511e-08
9.12997e-11
5.18658e-10
9.53981e-08
4.85588e-10
1.04226e-07
9.83981e-11
6.99711e-11
6.3498e-10
4.51381e-08
9.42722e-11
5.76428e-10
5.42871e-08
1.27075e-10
5.35349e-10
6.23053e-08
1.57258e-10
5.02156e-10
7.02868e-08
1.84393e-10
4.74053e-10
7.83909e-08
2.08694e-10
4.48727e-10
8.66853e-08
2.28888e-10
4.24478e-10
9.52119e-08
4.00976e-10
1.04019e-07
2.32292e-10
9.42654e-11
4.65054e-10
4.507e-08
1.34868e-10
4.24404e-10
5.42091e-08
1.78906e-10
3.93928e-10
6.2216e-08
2.16815e-10
3.68285e-10
7.01849e-08
2.4836e-10
3.46662e-10
7.82751e-08
2.7407e-10
3.28174e-10
8.65535e-08
2.92437e-10
3.12128e-10
9.50616e-08
2.9821e-10
1.03847e-07
2.9155e-10
1.03472e-10
2.81438e-10
4.50233e-08
1.50482e-10
2.59399e-10
5.41542e-08
1.975e-10
2.40898e-10
6.21527e-08
2.35095e-10
2.24331e-10
7.01129e-08
2.63525e-10
2.10491e-10
7.81934e-08
2.84504e-10
1.99013e-10
8.64602e-08
2.97996e-10
1.89903e-10
9.49537e-08
1.83856e-10
1.03721e-07
2.93247e-10
1.04364e-10
4.49966e-08
9.3651e-11
1.53478e-10
5.41219e-08
8.84211e-11
2.02106e-10
6.21151e-08
8.17324e-11
2.39665e-10
7.00706e-08
7.49631e-11
2.66517e-10
7.81458e-08
6.93515e-11
2.84157e-10
8.6406e-08
6.55187e-11
2.9322e-10
9.48905e-08
6.40581e-11
1.03645e-07
6.5848e-11
2.85781e-10
-3.02464e-12
8.04566e-10
4.53603e-08
-7.81851e-10
-6.52046e-11
7.28222e-10
5.45458e-08
-7.2397e-10
-9.63041e-11
6.77751e-10
6.26002e-08
-6.75504e-10
-1.15141e-10
6.36848e-10
7.06229e-08
-6.34482e-10
-1.22381e-10
6.00681e-10
7.87705e-08
-5.97856e-10
-1.16511e-10
5.65991e-10
8.7109e-08
-5.62354e-10
-9.62129e-11
5.30379e-10
9.56803e-08
-5.25739e-10
4.92911e-10
1.04536e-07
-4.87643e-10
-7.12038e-11
1.38606e-11
7.55584e-10
4.52723e-08
-1.55138e-11
6.87567e-10
5.44416e-08
-2.65352e-11
6.40984e-10
6.248e-08
-2.99566e-11
6.02949e-10
7.04848e-08
-2.66528e-11
5.69782e-10
7.86137e-08
-1.563e-11
5.37932e-10
8.69333e-08
3.83594e-12
5.04764e-10
9.54857e-08
4.69647e-10
1.04324e-07
1.90091e-11
4.45755e-11
6.75497e-10
4.5184e-08
4.32513e-11
6.13578e-10
5.4342e-08
5.64742e-11
5.71427e-10
6.23659e-08
7.2951e-11
5.3743e-10
7.03541e-08
9.17532e-11
5.08067e-10
7.84652e-08
1.13497e-10
4.80222e-10
8.67663e-08
1.37001e-10
4.51406e-10
9.53012e-08
4.2109e-10
1.04123e-07
1.49428e-10
7.6126e-11
5.56155e-10
4.5107e-08
9.93438e-11
5.05372e-10
5.42557e-08
1.3289e-10
4.69922e-10
6.22678e-08
1.66524e-10
4.41099e-10
7.02422e-08
1.99283e-10
4.16526e-10
7.83379e-08
2.31171e-10
3.93837e-10
8.66227e-08
2.59395e-10
3.7142e-10
9.51409e-08
3.48884e-10
1.03946e-07
2.70364e-10
9.77222e-11
4.10071e-10
4.50462e-08
1.36741e-10
3.73886e-10
5.41878e-08
1.81792e-10
3.47279e-10
6.21907e-08
2.23585e-10
3.2512e-10
7.01544e-08
2.61936e-10
3.06274e-10
7.82381e-08
2.96683e-10
2.89553e-10
8.65091e-08
3.24941e-10
2.74231e-10
9.50111e-08
2.60725e-10
1.03797e-07
3.31895e-10
1.08466e-10
2.49586e-10
4.5005e-08
1.55233e-10
2.29203e-10
5.41407e-08
2.04626e-10
2.12937e-10
6.21369e-08
2.47844e-10
1.98798e-10
7.00936e-08
2.85047e-10
1.86862e-10
7.81692e-08
3.16633e-10
1.76837e-10
8.64301e-08
3.40733e-10
1.68449e-10
9.49188e-08
1.62501e-10
1.03688e-07
3.44527e-10
1.1316e-10
4.49821e-08
8.19094e-11
1.64238e-10
5.41132e-08
7.72098e-11
2.16701e-10
6.21052e-08
7.13332e-11
2.61638e-10
7.00581e-08
6.57185e-11
2.99212e-10
7.81294e-08
6.11374e-11
3.29846e-10
8.63846e-08
5.82056e-11
3.51643e-10
9.48651e-08
5.7475e-11
1.03622e-07
5.98629e-11
3.52595e-10
1.80517e-11
7.01181e-10
4.52829e-08
-6.86988e-10
-3.77042e-11
6.34252e-10
5.44675e-08
-6.3076e-10
-6.65377e-11
5.89918e-10
6.25128e-08
-5.8774e-10
-8.32851e-11
5.5368e-10
7.05222e-08
-5.51948e-10
-8.88654e-11
5.21591e-10
7.86533e-08
-5.19567e-10
-8.21279e-11
4.90697e-10
8.69728e-08
-4.88003e-10
-6.30164e-11
4.58837e-10
9.55242e-08
-4.55203e-10
4.25545e-10
1.04365e-07
-4.2032e-10
-4.15421e-11
2.65188e-11
6.566e-10
4.52034e-08
1.16153e-12
5.98351e-10
5.43755e-08
-8.48602e-12
5.5801e-10
6.24067e-08
-1.19433e-11
5.24653e-10
7.04012e-08
-9.21333e-12
4.95358e-10
7.85169e-08
1.14978e-12
4.67002e-10
8.6821e-08
1.90649e-11
4.37379e-10
9.53577e-08
4.06115e-10
1.04183e-07
3.48539e-11
5.06149e-11
5.87e-10
4.51269e-08
4.83176e-11
5.35337e-10
5.42878e-08
5.78245e-11
4.99639e-10
6.23064e-08
7.01016e-11
4.70139e-10
7.0286e-08
8.50514e-11
4.44297e-10
7.83863e-08
1.03364e-10
4.19397e-10
8.66751e-08
1.23863e-10
3.93336e-10
9.51981e-08
3.65636e-10
1.04013e-07
1.35786e-10
7.39671e-11
4.85986e-10
4.50597e-08
9.25224e-11
4.43812e-10
5.42114e-08
1.20832e-10
4.13642e-10
6.22192e-08
1.4936e-10
3.88772e-10
7.01869e-08
1.77878e-10
3.67234e-10
7.82738e-08
2.06214e-10
3.4681e-10
8.6549e-08
2.32008e-10
3.25908e-10
9.50587e-08
3.04271e-10
1.03861e-07
2.42719e-10
9.1062e-11
3.61351e-10
4.50068e-08
1.25528e-10
3.304e-10
5.41514e-08
1.66228e-10
3.07632e-10
6.21516e-08
2.04246e-10
2.8875e-10
7.01103e-08
2.40037e-10
2.72399e-10
7.81867e-08
2.72996e-10
2.57307e-10
8.645e-08
3.00158e-10
2.42574e-10
9.4946e-08
2.28541e-10
1.03732e-07
3.07989e-10
1.01808e-10
2.21071e-10
4.49717e-08
1.45614e-10
2.02915e-10
5.41106e-08
1.9286e-10
1.89026e-10
6.21053e-08
2.35337e-10
1.773e-10
7.0058e-08
2.7312e-10
1.67272e-10
7.81277e-08
3.0585e-10
1.58494e-10
8.63823e-08
3.31007e-10
1.50488e-10
9.48663e-08
1.43878e-10
1.03637e-07
3.36163e-10
1.09701e-10
4.49519e-08
7.08489e-11
1.59889e-10
5.40866e-08
6.67028e-11
2.12494e-10
6.20781e-08
6.17115e-11
2.59606e-10
7.00277e-08
5.71552e-11
3.01067e-10
7.8094e-08
5.36275e-11
3.36349e-10
8.63437e-08
5.15764e-11
3.62351e-10
9.48202e-08
5.14122e-11
1.03578e-07
5.39611e-11
3.66615e-10
1.92357e-11
6.09783e-10
4.52056e-08
-5.96261e-10
-3.27328e-11
5.50883e-10
5.43875e-08
-5.48313e-10
-6.11958e-11
5.11837e-10
6.24271e-08
-5.10591e-10
-7.99908e-11
4.80055e-10
7.04254e-08
-4.79071e-10
-8.96141e-11
4.5191e-10
7.85422e-08
-4.50701e-10
-8.85652e-11
4.24789e-10
8.68444e-08
-4.22851e-10
-7.62904e-11
3.96884e-10
9.53767e-08
-3.93619e-10
3.67546e-10
1.04198e-07
-3.62751e-10
-5.77194e-11
2.46093e-11
5.69337e-10
4.5133e-08
-7.14082e-13
5.19366e-10
5.43053e-08
-1.4099e-11
4.84676e-10
6.23329e-08
-2.28501e-11
4.5541e-10
7.0319e-08
-2.64045e-11
4.29693e-10
7.84229e-08
-2.28028e-11
4.04734e-10
8.67124e-08
-1.10812e-11
3.78743e-10
9.52331e-08
3.51555e-10
1.04045e-07
6.77138e-13
4.23262e-11
5.10399e-10
4.50675e-08
3.46549e-11
4.67243e-10
5.42276e-08
3.70575e-11
4.36738e-10
6.22432e-08
4.0522e-11
4.10855e-10
7.02164e-08
4.62602e-11
3.88014e-10
7.83069e-08
5.53929e-11
3.65888e-10
8.65839e-08
6.86475e-11
3.4255e-10
9.50941e-08
3.17669e-10
1.03897e-07
7.8709e-11
5.94387e-11
4.26175e-10
4.50095e-08
6.97815e-11
3.90478e-10
5.41593e-08
8.88215e-11
3.6461e-10
6.2165e-08
1.07248e-10
3.43144e-10
7.0127e-08
1.25361e-10
3.24191e-10
7.82059e-08
1.43779e-10
3.05832e-10
8.64716e-08
1.62168e-10
2.8641e-10
9.49715e-08
2.65794e-10
1.03767e-07
1.71074e-10
7.47545e-11
3.19659e-10
4.49646e-08
1.00079e-10
2.93064e-10
5.41063e-08
1.31814e-10
2.73699e-10
6.21047e-08
1.61525e-10
2.57591e-10
7.00582e-08
1.88489e-10
2.43538e-10
7.81281e-08
2.13289e-10
2.29919e-10
8.63836e-08
2.34102e-10
2.15857e-10
9.48723e-08
2.00992e-10
1.03655e-07
2.41724e-10
8.66926e-11
1.96816e-10
4.49347e-08
1.23159e-10
1.80818e-10
5.40702e-08
1.64262e-10
1.68943e-10
6.20639e-08
2.01445e-10
1.59142e-10
7.00125e-08
2.34486e-10
1.50824e-10
7.80763e-08
2.62964e-10
1.43057e-10
8.63244e-08
2.84965e-10
1.35321e-10
9.48028e-08
1.27785e-10
1.0357e-07
2.90967e-10
9.7608e-11
4.49179e-08
6.07319e-11
1.42894e-10
5.40495e-08
5.73052e-11
1.9217e-10
6.20402e-08
5.32562e-11
2.37135e-10
6.99862e-08
4.96598e-11
2.7773e-10
7.8047e-08
4.69922e-11
3.1286e-10
8.62906e-08
4.56296e-11
3.3936e-10
9.47621e-08
4.58854e-11
1.03518e-07
4.86805e-11
3.45994e-10
1.10356e-11
5.30043e-10
4.51309e-08
-5.10482e-10
-4.26664e-11
4.7703e-10
5.43103e-08
-4.75037e-10
-7.27487e-11
4.42708e-10
6.23447e-08
-4.42696e-10
-9.53805e-11
4.1528e-10
7.03342e-08
-4.15399e-10
-1.10576e-10
3.90866e-10
7.84383e-08
-3.90614e-10
-1.16183e-10
3.67341e-10
8.67241e-08
-3.66105e-10
-1.09555e-10
3.4322e-10
9.52362e-08
-3.40364e-10
3.18013e-10
1.04035e-07
-3.13142e-10
-9.29608e-11
1.64733e-11
4.92782e-10
4.50678e-08
-1.45991e-11
4.48936e-10
5.42374e-08
-3.46158e-11
4.19024e-10
6.22622e-08
-5.03128e-11
3.93496e-10
7.02408e-08
-6.1448e-11
3.70999e-10
7.83341e-08
-6.56594e-11
3.49326e-10
8.66096e-08
-5.98256e-11
3.26919e-10
9.51126e-08
3.03644e-10
1.03903e-07
-4.71512e-11
3.00521e-11
4.44429e-10
4.50095e-08
1.13013e-11
4.06368e-10
5.41682e-08
3.12181e-12
3.79948e-10
6.21811e-08
-4.09015e-12
3.57134e-10
7.01487e-08
-9.84614e-12
3.37133e-10
7.82305e-08
-1.16965e-11
3.17729e-10
8.64958e-08
-6.9942e-12
2.97229e-10
9.49914e-08
2.75946e-10
1.03778e-07
4.94955e-14
4.44022e-11
3.74901e-10
4.49591e-08
3.94445e-11
3.43161e-10
5.41077e-08
4.42945e-11
3.20818e-10
6.21108e-08
4.832e-11
3.02129e-10
7.00676e-08
5.18688e-11
2.85596e-10
7.8139e-08
5.69996e-11
2.69161e-10
8.63947e-08
6.4967e-11
2.51445e-10
9.48829e-08
2.31983e-10
1.03664e-07
7.33178e-11
5.95172e-11
2.84399e-10
4.49206e-08
6.90127e-11
2.6026e-10
5.40607e-08
8.67151e-11
2.43791e-10
6.20563e-08
1.01735e-10
2.30215e-10
7.00056e-08
1.14804e-10
2.18111e-10
7.80686e-08
1.26618e-10
2.05944e-10
8.63157e-08
1.38644e-10
1.9228e-10
9.47942e-08
1.76767e-10
1.03565e-07
1.45845e-10
7.45441e-11
1.75958e-10
4.48942e-08
9.62435e-11
1.61547e-10
5.4029e-08
1.25755e-10
1.51399e-10
6.20198e-08
1.52082e-10
1.4337e-10
6.99642e-08
1.74872e-10
1.36496e-10
7.80219e-08
1.94665e-10
1.29785e-10
8.62622e-08
2.11368e-10
1.22115e-10
9.4732e-08
1.13768e-10
1.03491e-07
2.17412e-10
8.85626e-11
4.48786e-08
5.26622e-11
1.21548e-10
5.40106e-08
4.98043e-11
1.6134e-10
6.19991e-08
4.6335e-11
1.98721e-10
6.99407e-08
4.33084e-11
2.32954e-10
7.79955e-08
4.11801e-11
2.63469e-10
8.62316e-08
4.04393e-11
2.87718e-10
9.4695e-08
4.12672e-11
1.03444e-07
4.40451e-11
2.96468e-10
2.93091e-12
4.61566e-10
4.506e-08
-4.37656e-10
-5.69106e-11
4.12489e-10
5.42405e-08
-4.11661e-10
-9.31901e-11
3.82881e-10
6.22703e-08
-3.84476e-10
-1.23122e-10
3.58991e-10
7.0252e-08
-3.60719e-10
-1.46733e-10
3.37854e-10
7.83446e-08
-3.39106e-10
-1.60923e-10
3.17663e-10
8.6614e-08
-3.17704e-10
-1.61149e-10
2.97141e-10
9.51039e-08
-2.95244e-10
2.75563e-10
1.03876e-07
-2.71363e-10
-1.47963e-10
1.02776e-11
4.27236e-10
4.50058e-08
-3.27076e-11
3.88103e-10
5.41773e-08
-6.08241e-11
3.60606e-10
6.21979e-08
-8.54585e-11
3.38284e-10
7.01703e-08
-1.05705e-10
3.18617e-10
7.82536e-08
-1.18286e-10
3.00019e-10
8.65147e-08
-1.18458e-10
2.81276e-10
9.49977e-08
2.6239e-10
1.03764e-07
-1.0888e-10
2.04207e-11
3.86952e-10
4.49527e-08
-1.18309e-11
3.51956e-10
5.41152e-08
-3.51407e-11
3.28511e-10
6.21265e-08
-5.68933e-11
3.0827e-10
7.00885e-08
-7.65003e-11
2.90639e-10
7.81615e-08
-9.03679e-11
2.7371e-10
8.64138e-08
-9.34105e-11
2.56198e-10
9.48912e-08
2.38018e-10
1.03655e-07
-8.60716e-11
3.26669e-11
3.29571e-10
4.49075e-08
9.86381e-12
3.00179e-10
5.40613e-08
-3.87755e-12
2.80838e-10
6.20628e-08
-1.97777e-11
2.64769e-10
7.00156e-08
-3.55957e-11
2.5018e-10
7.80793e-08
-4.77246e-11
2.35597e-10
8.63235e-08
-5.08909e-11
2.19407e-10
9.47954e-08
2.01302e-10
1.03557e-07
-4.63864e-11
4.77351e-11
2.53388e-10
4.48732e-08
3.69802e-11
2.31036e-10
5.40203e-08
3.48635e-11
2.16795e-10
6.20136e-08
3.01823e-11
2.05242e-10
6.99591e-08
2.31294e-11
1.94943e-10
7.80156e-08
1.74108e-11
1.83966e-10
8.62523e-08
1.64536e-11
1.70843e-10
9.4717e-08
1.55229e-10
1.0347e-07
1.87349e-11
6.48928e-11
1.57296e-10
4.48499e-08
6.92232e-11
1.44313e-10
5.39915e-08
8.07489e-11
1.35765e-10
6.19809e-08
8.92222e-11
1.29192e-10
6.99215e-08
9.50804e-11
1.23544e-10
7.79727e-08
1.00145e-10
1.17619e-10
8.62034e-08
1.06691e-10
1.10107e-10
9.466e-08
1.01078e-10
1.03403e-07
1.11079e-10
8.00378e-11
4.48354e-08
4.52706e-11
9.75961e-11
5.39746e-08
4.33312e-11
1.22041e-10
6.19618e-08
4.05375e-11
1.44365e-10
6.98998e-08
3.79755e-11
1.64675e-10
7.7948e-08
3.64287e-11
1.83822e-10
8.61745e-08
3.5945e-11
2.01338e-10
9.4625e-08
3.70161e-11
1.03361e-07
3.98962e-11
2.084e-10
-5.01876e-12
4.00952e-10
4.49991e-08
-3.7903e-10
-7.29549e-11
3.57262e-10
5.41801e-08
-3.57625e-10
-1.17379e-10
3.30928e-10
6.22057e-08
-3.34111e-10
-1.56434e-10
3.10027e-10
7.01808e-08
-3.13308e-10
-1.89953e-10
2.91754e-10
7.82627e-08
-2.94598e-10
-2.13858e-10
2.74668e-10
8.65156e-08
-2.76236e-10
-2.21989e-10
2.57558e-10
9.49814e-08
-2.57064e-10
2.39533e-10
1.03723e-07
-2.36489e-10
-2.13625e-10
-1.64902e-13
3.69067e-10
4.49516e-08
-5.15134e-11
3.34212e-10
5.4124e-08
-8.89068e-11
3.09776e-10
6.21416e-08
-1.22447e-10
2.89682e-10
7.01083e-08
-1.51439e-10
2.72322e-10
7.81821e-08
-1.71626e-10
2.56482e-10
8.6428e-08
-1.77304e-10
2.41288e-10
9.48887e-08
2.2638e-10
1.03628e-07
-1.7073e-10
4.84249e-12
3.36409e-10
4.49035e-08
-4.10262e-11
3.04488e-10
5.40689e-08
-7.61318e-11
2.82643e-10
6.20783e-08
-1.10555e-10
2.6463e-10
7.00357e-08
-1.4277e-10
2.48913e-10
7.81003e-08
-1.67439e-10
2.342e-10
8.63384e-08
-1.77308e-10
2.1952e-10
9.47943e-08
2.04587e-10
1.03531e-07
-1.7319e-10
1.49299e-11
2.90088e-10
4.48621e-08
-2.49502e-11
2.63008e-10
5.40212e-08
-5.71103e-11
2.44768e-10
6.20228e-08
-9.07392e-11
2.30534e-10
6.99715e-08
-1.24515e-10
2.17812e-10
7.80278e-08
-1.52405e-10
2.04881e-10
8.62588e-08
-1.66009e-10
1.90361e-10
9.47102e-08
1.74155e-10
1.03446e-07
-1.64915e-10
3.05574e-11
2.25463e-10
4.48308e-08
4.28524e-12
2.04237e-10
5.39842e-08
-1.88518e-11
1.92355e-10
6.19795e-08
-4.49259e-11
1.82368e-10
6.99218e-08
-7.23269e-11
1.73375e-10
7.79714e-08
-9.58021e-11
1.63442e-10
8.61957e-08
-1.07459e-10
1.50776e-10
9.46407e-08
1.3521e-10
1.0337e-07
-1.07472e-10
4.91212e-11
1.39754e-10
4.48102e-08
3.6857e-11
1.28137e-10
5.39591e-08
3.07238e-11
1.21264e-10
6.19488e-08
2.05797e-11
1.15872e-10
6.9887e-08
7.66439e-12
1.11177e-10
7.79322e-08
-3.65341e-12
1.05808e-10
8.61513e-08
-8.16534e-12
9.83939e-11
9.45898e-08
8.91993e-11
1.03311e-07
-9.39362e-12
6.44886e-11
4.47975e-08
3.71909e-11
6.66249e-11
5.39433e-08
3.68836e-11
7.46945e-11
6.19311e-08
3.4932e-11
7.97602e-11
6.98669e-08
3.29417e-11
8.31861e-11
7.79088e-08
3.1664e-11
8.74698e-11
8.6124e-08
3.13041e-11
9.47798e-11
9.45569e-08
3.25294e-11
1.0327e-07
3.57045e-11
9.97113e-11
-1.32768e-11
3.46631e-10
4.49507e-08
-3.28943e-10
-8.56469e-11
3.07975e-10
5.41261e-08
-3.0963e-10
-1.3553e-10
2.84794e-10
6.21483e-08
-2.89208e-10
-1.80192e-10
2.66502e-10
7.01171e-08
-2.71185e-10
-2.1916e-10
2.50765e-10
7.81886e-08
-2.55257e-10
-2.47743e-10
2.36496e-10
8.64245e-08
-2.39906e-10
-2.58953e-10
2.22602e-10
9.48649e-08
-2.23977e-10
2.07984e-10
1.03575e-07
-2.06836e-10
-2.51887e-10
-1.17443e-11
3.16358e-10
4.49077e-08
-6.87288e-11
2.86296e-10
5.40755e-08
-1.12007e-10
2.6476e-10
6.20906e-08
-1.50785e-10
2.4668e-10
7.00515e-08
-1.8399e-10
2.31338e-10
7.81154e-08
-2.06736e-10
2.17947e-10
8.63449e-08
-2.12699e-10
2.05942e-10
9.47812e-08
1.94803e-10
1.0349e-07
-2.04234e-10
-1.16421e-11
2.89273e-10
4.48653e-08
-6.6964e-11
2.62216e-10
5.40267e-08
-1.11032e-10
2.42559e-10
6.20345e-08
-1.54005e-10
2.2619e-10
6.99871e-08
-1.93753e-10
2.1214e-10
7.80426e-08
-2.23902e-10
1.99386e-10
8.6265e-08
-2.35698e-10
1.87249e-10
9.46967e-08
1.75488e-10
1.03404e-07
-2.29715e-10
-7.71165e-12
2.53384e-10
4.48289e-08
-5.95038e-11
2.294e-10
5.39844e-08
-1.02971e-10
2.12927e-10
6.1986e-08
-1.4905e-10
2.00377e-10
6.99316e-08
-1.94622e-10
1.89097e-10
7.79801e-08
-2.32047e-10
1.77572e-10
8.61963e-08
-2.50776e-10
1.64595e-10
9.46238e-08
1.49773e-10
1.0333e-07
-2.48957e-10
7.24308e-12
2.00297e-10
4.47999e-08
-3.30914e-11
1.8083e-10
5.39519e-08
-6.86007e-11
1.6946e-10
6.19488e-08
-1.07954e-10
1.61152e-10
6.98889e-08
-1.48698e-10
1.53549e-10
7.79317e-08
-1.83559e-10
1.44578e-10
8.61422e-08
-2.0183e-10
1.32529e-10
9.45637e-08
1.17225e-10
1.03263e-07
-2.02456e-10
2.96891e-11
1.23808e-10
4.47805e-08
6.31612e-12
1.13123e-10
5.39293e-08
-1.45934e-11
1.07781e-10
6.19219e-08
-3.92941e-11
1.03318e-10
6.98583e-08
-6.54158e-11
9.91928e-11
7.7897e-08
-8.7637e-11
9.42454e-11
8.61027e-08
-9.8013e-11
8.68223e-11
9.45189e-08
7.72868e-11
1.03212e-07
-9.79018e-11
4.53877e-11
4.47696e-08
2.99292e-11
3.49635e-11
5.39155e-08
3.07524e-11
3.00168e-11
6.19053e-08
2.9326e-11
2.265e-11
6.9839e-08
2.75926e-11
1.35651e-11
7.78751e-08
2.65756e-11
6.83348e-12
8.60777e-08
2.64883e-11
5.90789e-12
9.44902e-08
2.77503e-11
1.03177e-07
3.10752e-11
6.2598e-12
-1.50757e-11
2.97299e-10
4.49078e-08
-2.83094e-10
-8.92087e-11
2.63506e-10
5.40762e-08
-2.66321e-10
-1.3982e-10
2.43089e-10
6.20944e-08
-2.49026e-10
-1.83486e-10
2.27015e-10
7.00556e-08
-2.33632e-10
-2.20414e-10
2.13426e-10
7.81161e-08
-2.20257e-10
-2.46209e-10
2.01557e-10
8.63349e-08
-2.07797e-10
-2.53269e-10
1.90464e-10
9.47491e-08
-1.95296e-10
1.78973e-10
1.03427e-07
-1.81264e-10
-2.40793e-10
-1.68995e-11
2.6925e-10
4.48673e-08
-7.75375e-11
2.43259e-10
5.40305e-08
-1.23437e-10
2.24418e-10
6.2042e-08
-1.63134e-10
2.08241e-10
6.99958e-08
-1.95852e-10
1.94659e-10
7.80489e-08
-2.16888e-10
1.83386e-10
8.62612e-08
-2.19141e-10
1.74178e-10
9.46714e-08
1.66772e-10
1.03348e-07
-2.045e-10
-2.01575e-11
2.471e-10
4.48311e-08
-8.32439e-11
2.24158e-10
5.39884e-08
-1.33661e-10
2.07141e-10
6.19931e-08
-1.81166e-10
1.92654e-10
6.99393e-08
-2.24059e-10
1.80236e-10
7.79846e-08
-2.55767e-10
1.69234e-10
8.61901e-08
-2.66977e-10
1.5928e-10
9.4596e-08
1.50128e-10
1.03271e-07
-2.55853e-10
-1.83872e-11
2.1943e-10
4.47985e-08
-8.18186e-11
1.99683e-10
5.39519e-08
-1.34347e-10
1.85321e-10
6.19513e-08
-1.8716e-10
1.74289e-10
6.9892e-08
-2.38032e-10
1.64387e-10
7.79316e-08
-2.79343e-10
1.54167e-10
8.61321e-08
-2.99487e-10
1.42414e-10
9.45344e-08
1.29236e-10
1.03207e-07
-2.94558e-10
-7.09601e-12
1.76954e-10
4.47732e-08
-5.9068e-11
1.59852e-10
5.39235e-08
-1.027e-10
1.495e-10
6.19195e-08
-1.48706e-10
1.42604e-10
6.9856e-08
-1.94968e-10
1.36082e-10
7.78913e-08
-2.33959e-10
1.27919e-10
8.60871e-08
-2.54747e-10
1.16476e-10
9.44842e-08
1.01237e-10
1.03151e-07
-2.52873e-10
1.60914e-11
1.10284e-10
4.47549e-08
-1.88708e-11
1.00184e-10
5.3904e-08
-4.7629e-11
9.52172e-11
6.18964e-08
-7.80305e-11
9.14673e-11
6.98296e-08
-1.09039e-10
8.80216e-11
7.78614e-08
-1.3528e-10
8.35245e-11
8.60533e-08
-1.48078e-10
7.63981e-11
9.44458e-08
6.68576e-11
1.03107e-07
-1.47356e-10
3.42243e-11
4.47453e-08
2.43207e-11
1.3128e-11
5.38919e-08
2.51755e-11
5.57466e-13
6.18809e-08
2.38579e-11
-1.34537e-11
6.98122e-08
2.21834e-11
-2.78685e-11
7.7842e-08
2.11474e-11
-3.89271e-11
8.60314e-08
2.11623e-11
-4.1404e-11
9.44208e-08
2.26581e-11
1.03078e-07
2.64771e-11
-3.87189e-11
-1.39216e-11
2.55602e-10
-2.4109e-10
4.48638e-08
-8.84385e-11
2.24443e-10
-2.28696e-10
5.40302e-08
-1.35334e-10
2.06151e-10
-2.13934e-10
6.20403e-08
-1.7307e-10
1.91676e-10
-2.0057e-10
6.99921e-08
-2.02525e-10
1.79537e-10
-1.8952e-10
7.80409e-08
-2.2009e-10
1.69303e-10
-1.79784e-10
8.62426e-08
-2.19536e-10
1.60305e-10
-1.7063e-10
9.46322e-08
1.51276e-10
-1.59868e-10
-2.00921e-10
1.0328e-07
-1.60396e-11
2.27315e-10
4.48275e-08
-8.09607e-11
2.05047e-10
5.3991e-08
-1.27412e-10
1.88432e-10
6.19946e-08
-1.66069e-10
1.73969e-10
6.99396e-08
-1.97231e-10
1.61969e-10
7.79811e-08
-2.16682e-10
1.52492e-10
8.61762e-08
-2.18012e-10
1.4574e-10
9.45611e-08
1.41197e-10
-2.00777e-10
1.03204e-07
-2.39266e-11
2.09089e-10
4.47978e-08
-9.5203e-11
1.90589e-10
5.39558e-08
-1.4965e-10
1.76188e-10
6.19527e-08
-1.99912e-10
1.63861e-10
6.98909e-08
-2.45125e-10
1.53302e-10
7.79255e-08
-2.79501e-10
1.44189e-10
8.61146e-08
-2.93049e-10
1.36233e-10
9.44951e-08
1.2915e-10
-2.80737e-10
1.03135e-07
-2.61483e-11
1.89792e-10
4.47687e-08
-9.89665e-11
1.73243e-10
5.39235e-08
-1.5614e-10
1.61424e-10
6.1916e-08
-2.11353e-10
1.5226e-10
6.98497e-08
-2.63888e-10
1.43968e-10
7.788e-08
-3.06639e-10
1.35114e-10
8.60651e-08
-3.27721e-10
1.24535e-10
9.44425e-08
1.12383e-10
-3.20361e-10
1.0308e-07
-1.52213e-11
1.55593e-10
4.47472e-08
-7.74857e-11
1.41713e-10
5.3899e-08
-1.24864e-10
1.32521e-10
6.18886e-08
-1.71402e-10
1.26758e-10
6.98192e-08
-2.16887e-10
1.21335e-10
7.78462e-08
-2.55066e-10
1.14048e-10
8.60279e-08
-2.74889e-10
1.03179e-10
9.44012e-08