/*--------------------------------*- C++ -*----------------------------------*\
| =========                 |                                                 |
| \\      /  F ield         | OpenFOAM: The Open Source CFD Toolbox           |
|  \\    /   O peration     | Version:  plus.master.MPPICInterFoam            |
|   \\  /    A nd           | Web:      www.OpenFOAM.com                      |
|    \\/     M anipulation  |                                                 |
\*---------------------------------------------------------------------------*/
FoamFile
{
    version     2.0;
    format      ascii;
    class       surfaceScalarField;
    location    "2.6";
    object      alphaPhi;
}
// * * * * * * * * * * * * * * * * * * * * * * * * * * * * * * * * * * * * * //

dimensions      [0 3 -1 0 0 0 0];

internalField   nonuniform List<scalar> 
34004
(
-7.39802e-10
1.48556e-08
-1.03052e-06
-1.69015e-08
-1.93508e-09
1.38312e-08
-1.20841e-06
-1.58439e-08
-3.34567e-09
1.32456e-08
-1.37019e-06
-1.52454e-08
-4.78518e-09
1.28125e-08
-1.53472e-06
-1.48315e-08
-6.06858e-09
1.24553e-08
-1.70447e-06
-1.45065e-08
-7.02543e-09
1.21379e-08
-1.88022e-06
-1.42196e-08
-7.49741e-09
1.18394e-08
-2.06233e-06
-1.3961e-08
1.15359e-08
-2.25109e-06
-1.37045e-08
-7.36749e-09
4.88968e-10
1.11288e-08
-1.0328e-06
2.91728e-10
1.03081e-08
-1.21112e-06
-2.5958e-10
9.78088e-09
-1.37338e-06
-9.83619e-10
9.35915e-09
-1.53846e-06
-1.71031e-09
8.99317e-09
-1.70887e-06
-2.288e-09
8.66689e-09
-1.88536e-06
-2.58816e-09
8.36478e-09
-2.0683e-06
8.07996e-09
-2.25798e-06
-2.53911e-09
9.54386e-10
6.73425e-09
-1.0343e-06
1.11399e-09
6.18959e-09
-1.21287e-06
8.1203e-10
5.80534e-09
-1.37537e-06
2.29216e-10
5.48438e-09
-1.54072e-06
-4.7633e-10
5.20606e-09
-1.71139e-06
-1.13293e-09
4.95467e-09
-1.88815e-06
-1.60756e-09
4.72782e-09
-2.07135e-06
4.51634e-09
-2.26128e-06
-1.80249e-09
1.14936e-09
2.07763e-09
-1.03504e-06
1.47157e-09
1.83447e-09
-1.21375e-06
1.30049e-09
1.61808e-09
-1.37637e-06
8.16665e-10
1.42387e-09
-1.54185e-06
1.88313e-10
1.25716e-09
-1.71266e-06
-4.33869e-10
1.11564e-09
-1.88955e-06
-8.98833e-10
9.9403e-10
-2.07291e-06
8.91706e-10
-2.263e-06
-1.10655e-09
1.01081e-09
-2.36858e-09
-1.03505e-06
1.20826e-09
-2.31251e-09
-1.21373e-06
9.23794e-10
-2.35922e-09
-1.37633e-06
3.38504e-10
-2.42248e-09
-1.54178e-06
-3.79244e-10
-2.47455e-09
-1.71254e-06
-1.0549e-09
-2.51491e-09
-1.88939e-06
-1.54432e-09
-2.54019e-09
-2.07269e-06
-2.55157e-09
-2.26271e-06
-1.73854e-09
6.2126e-10
-6.23732e-09
-1.03436e-06
5.15237e-10
-5.93567e-09
-1.2129e-06
2.44905e-12
-5.85806e-09
-1.37536e-06
-7.44433e-10
-5.83192e-09
-1.54065e-06
-1.53736e-09
-5.81829e-09
-1.71125e-06
-2.21467e-09
-5.79848e-09
-1.88792e-06
-2.63988e-09
-5.76387e-09
-2.07103e-06
-5.70533e-09
-2.26086e-06
-2.72206e-09
-2.15238e-10
-1.03304e-06
-8.95924e-09
-9.99022e-10
-1.21132e-06
-8.50126e-09
-2.10318e-09
-1.37349e-06
-8.31682e-09
-3.33944e-09
-1.53843e-06
-8.21444e-09
-4.51585e-09
-1.70862e-06
-8.14085e-09
-5.44606e-09
-1.88481e-06
-8.07443e-09
-5.9687e-09
-2.06739e-06
-8.00174e-09
-2.25664e-06
-7.91928e-09
-5.95507e-09
-2.86032e-10
1.25012e-08
-1.02864e-06
-1.41074e-08
-9.03254e-10
1.16351e-08
-1.20628e-06
-1.32105e-08
-1.68013e-09
1.11367e-08
-1.36791e-06
-1.26954e-08
-2.50505e-09
1.0766e-08
-1.53238e-06
-1.23273e-08
-3.26312e-09
1.04595e-08
-1.7022e-06
-1.20329e-08
-3.84533e-09
1.01873e-08
-1.87811e-06
-1.17762e-08
-4.15325e-09
9.93049e-09
-2.06047e-06
-1.15374e-08
9.67287e-09
-2.24957e-06
-1.1304e-08
-4.11022e-09
6.9815e-10
9.51473e-09
-1.03055e-06
8.78407e-10
8.81351e-09
-1.20854e-06
7.87414e-10
8.36348e-09
-1.37057e-06
5.39296e-10
8.00411e-09
-1.53551e-06
2.35351e-10
7.69499e-09
-1.70586e-06
-4.05691e-11
7.41926e-09
-1.88237e-06
-2.21218e-10
7.16494e-09
-2.06542e-06
6.92326e-09
-2.25526e-06
-2.59761e-10
1.12285e-09
5.90566e-09
-1.03184e-06
1.63475e-09
5.43103e-09
-1.21006e-06
1.77724e-09
5.09814e-09
-1.3723e-06
1.66244e-09
4.82174e-09
-1.53747e-06
1.39753e-09
4.58179e-09
-1.70807e-06
1.07694e-09
4.36798e-09
-1.88483e-06
7.84737e-10
4.17355e-09
-2.06813e-06
3.99164e-09
-2.25821e-06
5.8036e-10
1.30875e-09
2.04091e-09
-1.03252e-06
1.97252e-09
1.81333e-09
-1.21085e-06
2.23691e-09
1.61679e-09
-1.37321e-06
2.21432e-09
1.44338e-09
-1.5385e-06
2.01016e-09
1.29218e-09
-1.70922e-06
1.72217e-09
1.16384e-09
-1.88612e-06
1.43412e-09
1.05083e-09
-2.06956e-06
9.56425e-10
-2.2598e-06
1.20033e-09
1.21145e-09
-1.68136e-09
-1.03257e-06
1.78663e-09
-1.65804e-09
-1.21089e-06
1.96997e-09
-1.71331e-09
-1.37324e-06
1.87499e-09
-1.77776e-09
-1.53851e-06
1.61037e-09
-1.83407e-09
-1.70921e-06
1.27764e-09
-1.87837e-09
-1.88608e-06
9.60744e-10
-1.90891e-09
-2.06947e-06
-1.92731e-09
-2.25966e-06
7.25697e-10
8.85947e-10
-4.92329e-09
-1.03203e-06
1.20669e-09
-4.69196e-09
-1.21024e-06
1.19745e-09
-4.6401e-09
-1.37248e-06
9.74909e-10
-4.62836e-09
-1.53763e-06
6.4512e-10
-4.62382e-09
-1.70818e-06
3.0606e-10
-4.61339e-09
-1.8849e-06
4.15106e-11
-4.59072e-09
-2.06814e-06
-4.54847e-09
-2.25817e-06
-1.00678e-10
2.36818e-10
-1.03098e-06
-7.25585e-09
3.12e-11
-1.20898e-06
-6.88071e-09
-4.40013e-10
-1.37098e-06
-6.73004e-09
-1.05495e-09
-1.53585e-06
-6.64401e-09
-1.69369e-09
-1.70608e-06
-6.57818e-09
-2.23952e-09
-1.88242e-06
-6.51632e-09
-2.59002e-09
-2.06524e-06
-6.44882e-09
-2.25481e-06
-6.3734e-09
-2.66286e-09
-2.62679e-11
1.05247e-08
-1.02736e-06
-1.18049e-08
-3.00204e-10
9.79047e-09
-1.20482e-06
-1.10403e-08
-6.95097e-10
9.36491e-09
-1.36633e-06
-1.05961e-08
-1.14441e-09
9.04616e-09
-1.53076e-06
-1.02718e-08
-1.57638e-09
8.78156e-09
-1.7006e-06
-1.00079e-08
-1.92223e-09
8.54719e-09
-1.87659e-06
-9.77677e-09
-2.12118e-09
8.32784e-09
-2.05911e-06
-9.56045e-09
8.10828e-09
-2.2484e-06
-9.35002e-09
-2.12305e-09
7.60323e-10
8.12139e-09
-1.02895e-06
1.1231e-09
7.52322e-09
-1.2067e-06
1.27082e-09
7.14041e-09
-1.36855e-06
1.27413e-09
6.83487e-09
-1.53335e-06
1.19244e-09
6.57299e-09
-1.70363e-06
1.08076e-09
6.33898e-09
-1.88012e-06
9.8427e-10
6.12241e-09
-2.06318e-06
5.91729e-09
-2.25307e-06
9.17356e-10
1.13974e-09
5.161e-09
-1.03006e-06
1.80109e-09
4.74784e-09
-1.208e-06
2.16752e-09
4.45983e-09
-1.37004e-06
2.3083e-09
4.22192e-09
-1.53506e-06
2.28667e-09
4.01581e-09
-1.70555e-06
2.16053e-09
3.83274e-09
-1.88226e-06
1.97986e-09
3.66612e-09
-2.06555e-06
3.51016e-09
-2.25567e-06
1.7792e-09
1.31173e-09
1.95571e-09
-1.03067e-06
2.11305e-09
1.7477e-09
-1.20871e-06
2.59151e-09
1.57121e-09
-1.37085e-06
2.81611e-09
1.41807e-09
-1.53597e-06
2.85221e-09
1.28222e-09
-1.70658e-06
2.75498e-09
1.16722e-09
-1.88342e-06
2.57576e-09
1.06455e-09
-2.06684e-06
9.7679e-10
-2.2571e-06
2.34277e-09
1.24387e-09
-1.15228e-09
-1.03074e-06
1.98437e-09
-1.15289e-09
-1.20879e-06
2.40572e-09
-1.21239e-09
-1.37093e-06
2.57967e-09
-1.27667e-09
-1.53605e-06
2.56919e-09
-1.33324e-09
-1.70664e-06
2.4377e-09
-1.37842e-09
-1.88346e-06
2.2357e-09
-1.41151e-09
-2.06686e-06
-1.43338e-09
-2.25709e-06
2.00035e-09
9.80893e-10
-3.87211e-09
-1.03033e-06
1.51479e-09
-3.69802e-09
-1.20829e-06
1.77648e-09
-3.66362e-09
-1.37034e-06
1.83787e-09
-3.66046e-09
-1.53536e-06
1.7649e-09
-3.66182e-09
-1.70584e-06
1.61996e-09
-3.65788e-09
-1.88254e-06
1.45598e-09
-3.644e-09
-2.06581e-06
-3.61523e-09
-2.25591e-06
1.30485e-09
4.80738e-10
-1.02949e-06
-5.87631e-09
5.98588e-10
-1.20728e-06
-5.56933e-09
5.02415e-10
-1.36915e-06
-5.44927e-09
2.6283e-10
-1.53395e-06
-5.37781e-09
-4.65204e-11
-1.70417e-06
-5.32019e-09
-3.52344e-10
-1.88057e-06
-5.26461e-09
-5.89314e-10
-2.06351e-06
-5.2042e-09
-2.25324e-06
-5.13737e-09
-7.06935e-10
1.2731e-10
8.86658e-09
-1.02647e-06
-9.9033e-09
4.64537e-11
8.24717e-09
-1.2038e-06
-9.248e-09
-1.2441e-10
7.88247e-09
-1.36523e-06
-8.86618e-09
-3.47073e-10
7.60743e-09
-1.52962e-06
-8.58251e-09
-5.79564e-10
7.3785e-09
-1.69945e-06
-8.34814e-09
-7.7836e-10
7.17582e-09
-1.87549e-06
-8.14128e-09
-9.065e-10
6.98669e-09
-2.05808e-06
-7.94751e-09
6.79868e-09
-2.24747e-06
-7.75962e-09
-9.32527e-10
7.4455e-10
6.92676e-09
-1.0278e-06
1.17906e-09
6.41727e-09
-1.20537e-06
1.44142e-09
6.09106e-09
-1.36707e-06
1.57581e-09
5.83101e-09
-1.53177e-06
1.61887e-09
5.60806e-09
-1.70196e-06
1.60207e-09
5.40888e-09
-1.87839e-06
1.55078e-09
5.22448e-09
-2.06143e-06
5.04929e-09
-2.25131e-06
1.47187e-09
1.07713e-09
4.49754e-09
-1.02875e-06
1.77425e-09
4.13955e-09
-1.20648e-06
2.23381e-09
3.89059e-09
-1.36835e-06
2.49912e-09
3.68557e-09
-1.53323e-06
2.60765e-09
3.50838e-09
-1.70361e-06
2.5933e-09
3.35109e-09
-1.88025e-06
2.48474e-09
3.20796e-09
-2.06349e-06
3.07379e-09
-2.25358e-06
2.29974e-09
1.23259e-09
1.8429e-09
-1.02928e-06
2.05594e-09
1.65402e-09
-1.20711e-06
2.61617e-09
1.49677e-09
-1.36907e-06
2.95671e-09
1.36064e-09
-1.53404e-06
3.11626e-09
1.24122e-09
-1.70453e-06
3.12776e-09
1.13792e-09
-1.88128e-06
3.0198e-09
1.04763e-09
-2.06463e-06
9.67865e-10
-2.25485e-06
2.80739e-09
1.19047e-09
-7.5176e-10
-1.02938e-06
1.97535e-09
-7.68898e-10
-1.20721e-06
2.49892e-09
-8.2947e-10
-1.36918e-06
2.80603e-09
-8.91616e-10
-1.53416e-06
2.93472e-09
-9.45957e-10
-1.70464e-06
2.92194e-09
-9.90081e-10
-1.88138e-06
2.79863e-09
-1.02369e-09
-2.06472e-06
-1.04764e-09
-2.25492e-06
2.58351e-09
9.81821e-10
-3.03774e-09
-1.02906e-06
1.60206e-09
-2.90768e-09
-1.20683e-06
1.99558e-09
-2.8868e-09
-1.36873e-06
2.20802e-09
-2.88901e-09
-1.53363e-06
2.28033e-09
-2.89365e-09
-1.70402e-06
2.24994e-09
-2.89348e-09
-1.88066e-06
2.14864e-09
-2.88532e-09
-2.06391e-06
-2.86556e-09
-2.254e-06
1.99268e-09
5.91885e-10
-1.0284e-06
-4.75904e-09
8.89654e-10
-1.20603e-06
-4.51523e-09
1.00584e-09
-1.36779e-06
-4.41861e-09
9.8698e-10
-1.53251e-06
-4.35981e-09
8.78802e-10
-1.7027e-06
-4.31027e-09
7.27729e-10
-1.87911e-06
-4.26143e-09
5.74195e-10
-2.06209e-06
-4.20832e-09
-2.2519e-06
-4.15004e-09
4.49569e-10
1.95649e-10
7.47979e-09
-1.02585e-06
-8.32055e-09
2.25779e-10
6.9561e-09
-1.20308e-06
-7.76576e-09
1.86168e-10
6.64392e-09
-1.36445e-06
-7.43846e-09
9.78868e-11
6.40654e-09
-1.5288e-06
-7.19108e-09
-1.24742e-11
6.2079e-09
-1.69862e-06
-6.9843e-09
-1.21287e-10
6.03224e-09
-1.87467e-06
-6.80012e-09
-2.02165e-10
5.86837e-09
-2.05729e-06
-6.62784e-09
5.70656e-09
-2.24675e-06
-6.46095e-09
-2.35379e-10
6.88514e-10
5.90748e-09
-1.02695e-06
1.13063e-09
5.47371e-09
-1.20439e-06
1.43432e-09
5.19537e-09
-1.36598e-06
1.627e-09
4.97357e-09
-1.53058e-06
1.73041e-09
4.78336e-09
-1.70069e-06
1.7631e-09
4.61339e-09
-1.87706e-06
1.73898e-09
4.45609e-09
-2.06005e-06
4.30628e-09
-2.24989e-06
1.65932e-09
9.75746e-10
3.91252e-09
-1.02776e-06
1.6453e-09
3.60261e-09
-1.20534e-06
2.12294e-09
3.38744e-09
-1.36708e-06
2.43552e-09
3.2107e-09
-1.53183e-06
2.60475e-09
3.05822e-09
-1.70211e-06
2.64974e-09
2.92297e-09
-1.87866e-06
2.58637e-09
2.79992e-09
-2.06183e-06
2.68439e-09
-2.25185e-06
2.42244e-09
1.11535e-09
1.71273e-09
-1.02823e-06
1.89759e-09
1.54323e-09
-1.20589e-06
2.46511e-09
1.40361e-09
-1.36771e-06
2.84508e-09
1.28334e-09
-1.53255e-06
3.06006e-09
1.17846e-09
-1.70292e-06
3.12907e-09
1.08709e-09
-1.87956e-06
3.06702e-09
1.0077e-09
-2.06284e-06
9.35303e-10
-2.25298e-06
2.88135e-09
1.09172e-09
-4.53137e-10
-1.02834e-06
1.85327e-09
-4.81395e-10
-1.206e-06
2.39969e-09
-5.40667e-10
-1.36783e-06
2.75899e-09
-5.99222e-10
-1.53269e-06
2.95385e-09
-6.50121e-10
-1.70306e-06
3.00542e-09
-6.91944e-10
-1.8797e-06
2.93241e-09
-7.24788e-10
-2.06298e-06
-7.49538e-10
-2.25311e-06
2.74187e-09
9.30115e-10
-2.37896e-09
-1.0281e-06
1.56248e-09
-2.28272e-09
-1.20572e-06
2.00595e-09
-2.27161e-09
-1.3675e-06
2.2886e-09
-2.27713e-09
-1.53229e-06
2.43543e-09
-2.28342e-09
-1.70259e-06
2.46912e-09
-2.28544e-09
-1.87916e-06
2.40861e-09
-2.28095e-09
-2.06235e-06
-2.26746e-09
-2.2524e-06
2.26117e-09
6.28014e-10
-1.02758e-06
-3.86279e-09
1.01072e-09
-1.20509e-06
-3.66727e-09
1.24092e-09
-1.36675e-06
-3.59094e-09
1.34584e-09
-1.5314e-06
-3.54158e-09
1.35555e-09
-1.70155e-06
-3.49937e-09
1.29823e-09
-1.87793e-06
-3.45693e-09
1.19932e-09
-2.06092e-06
-3.41068e-09
-2.25075e-06
-3.36031e-09
1.07727e-09
2.17478e-10
6.31856e-09
-1.0254e-06
-7.00438e-09
3.01474e-10
5.87637e-09
-1.20256e-06
-6.53621e-09
3.32434e-10
5.60936e-09
-1.36389e-06
-6.25698e-09
3.20182e-10
5.40442e-09
-1.5282e-06
-6.04208e-09
2.79829e-10
5.23197e-09
-1.698e-06
-5.86042e-09
2.28086e-10
5.07893e-09
-1.87405e-06
-5.69793e-09
1.79223e-10
4.93676e-09
-2.05669e-06
-5.54563e-09
4.79715e-09
-2.24617e-06
-5.39834e-09
1.46292e-10
6.10799e-10
5.03933e-09
-1.02632e-06
1.02519e-09
4.67037e-09
-1.20365e-06
1.32892e-09
4.43265e-09
-1.36516e-06
1.53804e-09
4.24303e-09
-1.52968e-06
1.66488e-09
4.0804e-09
-1.69972e-06
1.71974e-09
3.93504e-09
-1.87603e-06
1.71056e-09
3.80055e-09
-2.05896e-06
3.67226e-09
-2.24875e-06
1.636e-09
8.55476e-10
3.39954e-09
-1.02701e-06
1.46442e-09
3.13123e-09
-1.20446e-06
1.91889e-09
2.94515e-09
-1.36609e-06
2.2347e-09
2.79263e-09
-1.53075e-06
2.42389e-09
2.66121e-09
-1.70093e-06
2.49669e-09
2.54467e-09
-1.87739e-06
2.46156e-09
2.43858e-09
-2.06048e-06
2.33879e-09
-2.25044e-06
2.32102e-09
9.798e-10
1.57687e-09
-1.02743e-06
1.68843e-09
1.42433e-09
-1.20494e-06
2.22245e-09
1.30019e-09
-1.36664e-06
2.5975e-09
1.19476e-09
-1.53138e-06
2.82679e-09
1.10248e-09
-1.70164e-06
2.92028e-09
1.02231e-09
-1.87819e-06
2.88565e-09
9.52054e-10
-2.06137e-06
8.87563e-10
-2.25142e-06
2.72503e-09
9.72178e-10
-2.33937e-10
-1.02754e-06
1.67363e-09
-2.69373e-10
-1.20507e-06
2.19777e-09
-3.26024e-10
-1.36678e-06
2.56237e-09
-3.80163e-10
-1.53153e-06
2.77989e-09
-4.26946e-10
-1.7018e-06
2.86246e-09
-4.65753e-10
-1.87835e-06
2.8205e-09
-4.97021e-10
-2.06154e-06
-5.21648e-10
-2.25159e-06
2.65562e-09
8.49815e-10
-1.86106e-09
-1.02736e-06
1.45244e-09
-1.79045e-09
-1.20486e-06
1.89706e-09
-1.78609e-09
-1.36653e-06
2.2011e-09
-1.79348e-09
-1.53123e-06
2.37957e-09
-1.80046e-09
-1.70145e-06
2.44577e-09
-1.80354e-09
-1.87794e-06
2.41075e-09
-1.80131e-09
-2.06106e-06
-1.79214e-09
-2.25105e-06
2.27667e-09
6.16736e-10
-1.02695e-06
-3.14441e-09
1.02715e-09
-1.20436e-06
-2.98639e-09
1.30875e-09
-1.36594e-06
-2.92533e-09
1.47804e-09
-1.53053e-06
-2.88463e-09
1.55337e-09
-1.70062e-06
-2.8486e-09
1.55247e-09
-1.87698e-06
-2.81179e-09
1.4911e-09
-2.05994e-06
-2.77169e-09
-2.24976e-06
-2.72794e-09
1.37969e-09
2.11999e-10
5.34543e-09
-1.02507e-06
-5.90816e-09
3.15827e-10
4.97278e-09
-1.20218e-06
-5.51436e-09
3.80223e-10
4.74454e-09
-1.36347e-06
-5.27631e-09
4.07699e-10
4.56763e-09
-1.52776e-06
-5.09053e-09
4.06652e-10
4.41782e-09
-1.69754e-06
-4.93166e-09
3.86708e-10
4.28456e-09
-1.87358e-06
-4.78885e-09
3.57206e-10
4.16104e-09
-2.05622e-06
-4.65496e-09
4.04053e-09
-2.24571e-06
-4.52564e-09
3.26281e-10
5.24965e-10
4.30054e-09
-1.02584e-06
8.94193e-10
3.98713e-09
-1.20309e-06
1.17567e-09
3.78402e-09
-1.36453e-06
1.37767e-09
3.62161e-09
-1.52899e-06
1.50659e-09
3.48221e-09
-1.69896e-06
1.5679e-09
3.3577e-09
-1.87521e-06
1.56617e-09
3.24263e-09
-2.05809e-06
3.13278e-09
-2.24784e-06
1.49939e-09
7.30809e-10
2.95116e-09
-1.02643e-06
1.26455e-09
2.71876e-09
-1.20378e-06
1.67472e-09
2.55785e-09
-1.36533e-06
1.96945e-09
2.42614e-09
-1.5299e-06
2.15477e-09
2.31279e-09
-1.7e-06
2.23585e-09
2.21228e-09
-1.87638e-06
2.21708e-09
2.12072e-09
-2.0594e-06
2.03455e-09
-2.24928e-06
2.0984e-09
8.40577e-10
1.44053e-09
-1.02679e-06
1.46207e-09
1.30189e-09
-1.2042e-06
1.94156e-09
1.19259e-09
-1.36581e-06
2.28818e-09
1.09951e-09
-1.53045e-06
2.50789e-09
1.01972e-09
-1.70062e-06
2.60647e-09
9.49203e-10
-1.87708e-06
2.58786e-09
8.8673e-10
-2.06017e-06
8.29803e-10
-2.25014e-06
2.45107e-09
8.46213e-10
-7.59601e-11
-1.0269e-06
1.4695e-09
-1.15895e-10
-1.20433e-06
1.94768e-09
-1.69115e-10
-1.36595e-06
2.29023e-09
-2.18527e-10
-1.5306e-06
2.50485e-09
-2.6091e-10
-1.70078e-06
2.59724e-09
-2.96395e-10
-1.87725e-06
2.57297e-09
-3.25662e-10
-2.06036e-06
-3.49576e-10
-2.25033e-06
2.43159e-09
7.56301e-10
-1.45449e-09
-1.02677e-06
1.30652e-09
-1.40352e-09
-1.20417e-06
1.72494e-09
-1.40382e-09
-1.36577e-06
2.02177e-09
-1.41211e-09
-1.53038e-06
2.20576e-09
-1.41916e-09
-1.70052e-06
2.28451e-09
-1.42264e-09
-1.87694e-06
2.26429e-09
-1.42181e-09
-2.06e-06
-1.41568e-09
-2.24992e-06
2.14481e-09
5.77648e-10
-1.02645e-06
-2.56716e-09
9.81114e-10
-1.20378e-06
-2.4391e-09
1.27575e-09
-1.3653e-06
-2.38971e-09
1.47139e-09
-1.52983e-06
-2.3562e-09
1.57905e-09
-1.69988e-06
-2.32541e-09
1.60955e-09
-1.87619e-06
-2.29351e-09
1.5726e-09
-2.05912e-06
-2.25878e-09
-2.24891e-06
-2.22085e-09
1.47349e-09
1.94386e-10
4.52999e-09
-1.02482e-06
-4.99438e-09
2.98248e-10
4.21603e-09
-1.20189e-06
-4.6635e-09
3.73093e-10
4.02083e-09
-1.36315e-06
-4.46058e-09
4.17168e-10
3.86813e-09
-1.52742e-06
-4.30018e-09
4.34641e-10
3.73799e-09
-1.69718e-06
-4.16175e-09
4.31339e-10
3.62198e-09
-1.87321e-06
-4.0367e-09
4.13666e-10
3.51465e-09
-2.05586e-06
-3.91952e-09
3.4106e-09
-2.24535e-06
-3.80656e-09
3.86866e-10
4.43087e-10
3.67226e-09
-1.02546e-06
7.6097e-10
3.40637e-09
-1.20266e-06
1.00925e-09
3.23273e-09
-1.36404e-06
1.19135e-09
3.09339e-09
-1.52845e-06
1.31025e-09
2.97363e-09
-1.69837e-06
1.36885e-09
2.86677e-09
-1.87457e-06
1.36997e-09
2.76827e-09
-2.0574e-06
2.67441e-09
-2.2471e-06
1.31161e-09
6.14342e-10
2.5594e-09
-1.02597e-06
1.06977e-09
2.35871e-09
-1.20324e-06
1.42647e-09
2.21964e-09
-1.36472e-06
1.68758e-09
2.10584e-09
-1.52922e-06
1.85576e-09
2.00791e-09
-1.69925e-06
1.93353e-09
1.92114e-09
-1.87556e-06
1.92348e-09
1.84214e-09
-2.05851e-06
1.76782e-09
-2.24833e-06
1.82461e-09
7.10101e-10
1.30503e-09
-1.02628e-06
1.24125e-09
1.18137e-09
-1.20361e-06
1.65755e-09
1.08496e-09
-1.36514e-06
1.96292e-09
1.00357e-09
-1.5297e-06
2.16026e-09
9.33475e-10
-1.69979e-06
2.25228e-09
8.72008e-10
-1.87617e-06
2.24143e-09
8.1706e-10
-2.05919e-06
7.66822e-10
-2.24908e-06
2.12592e-09
7.23705e-10
3.53131e-11
-1.02639e-06
1.26357e-09
-7.33884e-12
-1.20373e-06
1.68438e-09
-5.66919e-11
-1.36528e-06
1.99098e-09
-1.01332e-10
-1.52985e-06
2.18718e-09
-1.3942e-10
-1.69995e-06
2.27632e-09
-1.71508e-10
-1.87635e-06
2.26146e-09
-1.98522e-10
-2.05938e-06
-2.21349e-10
-2.24928e-06
2.14148e-09
6.60842e-10
-1.13535e-09
-1.0263e-06
1.14816e-09
-1.09979e-09
-1.20362e-06
1.52566e-09
-1.10337e-09
-1.36515e-06
1.79879e-09
-1.11198e-09
-1.52969e-06
1.97254e-09
-1.11876e-09
-1.69977e-06
2.05137e-09
-1.1223e-09
-1.87612e-06
2.0391e-09
-1.12236e-09
-2.05912e-06
-1.11844e-09
-2.24898e-06
1.93457e-09
5.25815e-10
-1.02604e-06
-2.10173e-09
9.02359e-10
-1.20331e-06
-1.99817e-09
1.18673e-09
-1.36478e-06
-1.95818e-09
1.38459e-09
-1.52926e-06
-1.9304e-09
1.50263e-09
-1.69926e-06
-1.90407e-09
1.54756e-09
-1.87553e-06
-1.87638e-09
1.52552e-09
-2.05843e-06
-1.84623e-09
-2.24819e-06
-1.81333e-09
1.43908e-09
1.73933e-10
3.84727e-09
-1.02462e-06
-4.23302e-09
2.66931e-10
3.58189e-09
-1.20167e-06
-3.95389e-09
3.38891e-10
3.41451e-09
-1.36291e-06
-3.78055e-09
3.85352e-10
3.28259e-09
-1.52716e-06
-3.64209e-09
4.08503e-10
3.16956e-09
-1.69691e-06
-3.52174e-09
4.12164e-10
3.06861e-09
-1.87293e-06
-3.41249e-09
4.01279e-10
2.9754e-09
-2.05557e-06
-3.31022e-09
2.8856e-09
-2.24507e-06
-3.21198e-09
3.79289e-10
3.72338e-10
3.13862e-09
-1.02517e-06
6.39229e-10
2.91299e-09
-1.20231e-06
8.50338e-10
2.76432e-09
-1.36366e-06
1.00646e-09
2.64454e-09
-1.52802e-06
1.10904e-09
2.54145e-09
-1.6979e-06
1.15996e-09
2.44957e-09
-1.87406e-06
1.16151e-09
2.3652e-09
-2.05685e-06
2.28513e-09
-2.24652e-06
1.11182e-09
5.13519e-10
2.21777e-09
-1.02559e-06
8.9431e-10
2.04514e-09
-1.20281e-06
1.19568e-09
1.92499e-09
-1.36423e-06
1.41797e-09
1.82659e-09
-1.52868e-06
1.56232e-09
1.7419e-09
-1.69865e-06
1.63034e-09
1.66692e-09
-1.87491e-06
1.62417e-09
1.59878e-09
-2.0578e-06
1.53482e-09
-2.24757e-06
1.54259e-09
5.94603e-10
1.17534e-09
-1.02587e-06
1.03969e-09
1.06541e-09
-1.20313e-06
1.39165e-09
9.8035e-10
-1.3646e-06
1.65102e-09
9.09337e-10
-1.52909e-06
1.81943e-09
8.4797e-10
-1.69912e-06
1.89851e-09
7.94332e-10
-1.87543e-06
1.89043e-09
7.46252e-10
-2.05839e-06
7.01709e-10
-2.24822e-06
1.79389e-09
6.12667e-10
1.09655e-10
-1.02597e-06
1.07044e-09
6.70947e-11
-1.20325e-06
1.4304e-09
2.17318e-11
-1.36473e-06
1.69448e-09
-1.83164e-11
-1.52924e-06
1.86443e-09
-5.23079e-11
-1.69928e-06
1.94275e-09
-8.11141e-11
-1.87561e-06
1.93207e-09
-1.05812e-10
-2.05857e-06
-1.27318e-10
-2.24842e-06
1.83112e-09
5.7042e-10
-8.85327e-10
-1.02591e-06
9.92274e-10
-8.61817e-10
-1.20317e-06
1.32238e-09
-8.67652e-10
-1.36464e-06
1.56316e-09
-8.76212e-10
-1.52913e-06
1.71766e-09
-8.82543e-10
-1.69914e-06
1.78898e-09
-8.85963e-10
-1.87545e-06
1.78021e-09
-8.86579e-10
-2.05839e-06
-8.84289e-10
-2.2482e-06
1.69018e-09
4.70616e-10
-1.0257e-06
-1.7255e-09
8.0971e-10
-1.20293e-06
-1.64221e-09
1.07051e-09
-1.36435e-06
-1.60994e-09
1.25591e-09
-1.52879e-06
-1.58675e-09
1.37035e-09
-1.69875e-06
-1.56413e-09
1.41838e-09
-1.87498e-06
-1.54001e-09
1.40476e-09
-2.05785e-06
-1.51377e-09
-2.24758e-06
-1.48522e-09
1.33052e-09
1.5395e-10
3.27566e-09
-1.02448e-06
-3.5979e-09
2.31615e-10
3.04993e-09
-1.2015e-06
-3.36131e-09
2.94119e-10
2.90581e-09
-1.36272e-06
-3.2125e-09
3.35516e-10
2.79163e-09
-1.52695e-06
-3.09274e-09
3.5712e-10
2.69342e-09
-1.69669e-06
-2.98807e-09
3.6228e-10
2.60562e-09
-1.87271e-06
-2.89302e-09
3.55682e-10
2.52475e-09
-2.05535e-06
-2.80394e-09
2.44728e-09
-2.24485e-06
-2.71866e-09
3.38767e-10
3.13548e-10
2.68583e-09
-1.02493e-06
5.3359e-10
2.49397e-09
-1.20204e-06
7.08226e-10
2.36634e-09
-1.36335e-06
8.37047e-10
2.26313e-09
-1.52767e-06
9.21171e-10
2.17422e-09
-1.69752e-06
9.62541e-10
2.0951e-09
-1.87365e-06
9.63689e-10
2.02281e-09
-2.05642e-06
1.95459e-09
-2.24605e-06
9.22707e-10
4.29177e-10
1.9207e-09
-1.02529e-06
7.42826e-10
1.77258e-09
-1.20246e-06
9.91809e-10
1.66885e-09
-1.36384e-06
1.17514e-09
1.58369e-09
-1.52823e-06
1.29373e-09
1.51038e-09
-1.69816e-06
1.34938e-09
1.44553e-09
-1.87437e-06
1.34459e-09
1.38677e-09
-2.05722e-06
1.33186e-09
-2.24695e-06
1.278e-09
4.96127e-10
1.05192e-09
-1.02553e-06
8.63569e-10
9.55089e-10
-1.20274e-06
1.1547e-09
8.80835e-10
-1.36415e-06
1.36866e-09
8.18673e-10
-1.52859e-06
1.50639e-09
7.65389e-10
-1.69857e-06
1.57006e-09
7.18346e-10
-1.87483e-06
1.56234e-09
6.76174e-10
-2.05773e-06
6.3707e-10
-2.24751e-06
1.48224e-09
5.15449e-10
1.57287e-10
-1.02562e-06
8.97522e-10
1.15569e-10
-1.20285e-06
1.19901e-09
7.44161e-11
-1.36428e-06
1.41961e-09
3.87161e-11
-1.52873e-06
1.56089e-09
8.57529e-12
-1.69872e-06
1.6251e-09
-1.71549e-11
-1.87499e-06
1.61548e-09
-3.95922e-11
-2.05791e-06
-5.96412e-11
-2.2477e-06
1.53116e-09
4.89167e-10
-6.90292e-10
-1.02558e-06
8.47909e-10
-6.75846e-10
-1.2028e-06
1.12988e-09
-6.8308e-10
-1.36421e-06
1.33545e-09
-6.91328e-10
-1.52866e-06
1.46688e-09
-6.97134e-10
-1.69863e-06
1.52704e-09
-7.00326e-10
-1.87488e-06
1.51928e-09
-7.01303e-10
-2.05778e-06
-7.00211e-10
-2.24755e-06
1.44268e-09
4.16635e-10
-1.02543e-06
-1.42149e-09
7.14493e-10
-1.2026e-06
-1.35456e-09
9.45513e-10
-1.36399e-06
-1.32854e-09
1.11084e-09
-1.52839e-06
-1.30903e-09
1.21386e-09
-1.69831e-06
-1.28943e-09
1.25859e-09
-1.87452e-06
-1.26833e-09
1.24923e-09
-2.05736e-06
-1.24537e-09
-2.24706e-06
-1.22052e-09
1.18609e-09
1.36447e-10
2.79604e-09
-1.02436e-06
-3.06666e-09
1.98213e-10
2.60282e-09
-1.20137e-06
-2.86486e-09
2.49686e-10
2.47816e-09
-1.36257e-06
-2.73712e-09
2.83344e-10
2.3791e-09
-1.52679e-06
-2.63309e-09
3.00753e-10
2.29365e-09
-1.69652e-06
-2.54199e-09
3.04972e-10
2.21726e-09
-1.87253e-06
-2.45931e-09
3.02619e-10
2.14717e-09
-2.05518e-06
-2.38196e-09
2.08029e-09
-2.24468e-06
-2.30815e-09
2.89647e-10
2.65206e-10
2.30176e-09
-1.02474e-06
4.44458e-10
2.13808e-09
-1.20182e-06
5.86199e-10
2.02814e-09
-1.3631e-06
6.89597e-10
1.93897e-09
-1.5274e-06
7.56144e-10
1.86213e-09
-1.69722e-06
7.88342e-10
1.79393e-09
-1.87333e-06
7.89452e-10
1.73199e-09
-2.05607e-06
1.67393e-09
-2.24569e-06
7.56861e-10
3.59319e-10
1.66361e-09
-1.02505e-06
6.14997e-10
1.5365e-09
-1.20218e-06
8.1739e-10
1.44682e-09
-1.36351e-06
9.64998e-10
1.37304e-09
-1.52787e-06
1.05922e-09
1.30948e-09
-1.69776e-06
1.10258e-09
1.25336e-09
-1.87394e-06
1.09826e-09
1.2027e-09
-2.05676e-06
1.15558e-09
-2.24645e-06
1.04451e-09
4.13811e-10
9.38222e-10
-1.02525e-06
7.13928e-10
8.53121e-10
-1.20242e-06
9.51098e-10
7.88072e-10
-1.36379e-06
1.1236e-09
7.33761e-10
-1.52819e-06
1.23283e-09
6.87101e-10
-1.69811e-06
1.28157e-09
6.46071e-10
-1.87433e-06
1.27336e-09
6.09132e-10
-2.0572e-06
5.74657e-10
-2.24694e-06
1.20727e-09
4.33383e-10
1.8497e-10
-1.02534e-06
7.4912e-10
1.45187e-10
-1.20252e-06
9.97911e-10
1.08161e-10
-1.3639e-06
1.17834e-09
7.65141e-11
-1.52831e-06
1.2922e-09
4.9679e-11
-1.69826e-06
1.34255e-09
2.65934e-11
-1.87449e-06
1.33287e-09
6.64251e-12
-2.05737e-06
-1.196e-11
-2.24712e-06
1.26256e-09
4.18859e-10
-5.39007e-10
-1.02532e-06
7.2077e-10
-5.30852e-10
-1.20248e-06
9.58169e-10
-5.38732e-10
-1.36386e-06
1.13016e-09
-5.46475e-10
-1.52826e-06
1.23882e-09
-5.51739e-10
-1.69819e-06
1.28731e-09
-5.54686e-10
-1.87441e-06
1.27981e-09
-5.55887e-10
-2.05728e-06
-5.55674e-10
-2.24701e-06
1.21491e-09
3.66943e-10
-1.02519e-06
-1.17652e-09
6.24647e-10
-1.20233e-06
-1.12207e-09
8.25043e-10
-1.36368e-06
-1.10083e-09
9.68198e-10
-1.52805e-06
-1.08425e-09
1.05718e-09
-1.69795e-06
-1.06713e-09
1.09599e-09
-1.87413e-06
-1.04855e-09
1.08885e-09
-2.05695e-06
-1.02836e-09
-2.24663e-06
-1.00659e-09
1.03518e-09
1.23345e-10
2.39251e-09
-1.02428e-06
-2.62059e-09
1.70624e-10
2.22622e-09
-1.20126e-06
-2.44813e-09
2.11705e-10
2.11788e-09
-1.36246e-06
-2.33805e-09
2.37771e-10
2.03166e-09
-1.52667e-06
-2.24762e-09
2.51494e-10
1.95712e-09
-1.6964e-06
-2.16826e-09
2.53817e-10
1.89046e-09
-1.8724e-06
-2.09642e-09
2.59052e-10
1.82985e-09
-2.05506e-06
-2.02911e-09
1.77167e-09
-2.24456e-06
-1.96579e-09
2.44707e-10
2.26313e-10
1.97592e-09
-1.0246e-06
3.70909e-10
1.83575e-09
-1.20165e-06
4.84311e-10
1.74073e-09
-1.3629e-06
5.65619e-10
1.66348e-09
-1.52718e-06
6.17025e-10
1.59696e-09
-1.69698e-06
6.41438e-10
1.53812e-09
-1.87307e-06
6.43435e-10
1.48517e-09
-2.05581e-06
1.43572e-09
-2.24541e-06
6.18293e-10
3.02338e-10
1.44206e-09
-1.02486e-06
5.08914e-10
1.33268e-09
-1.20195e-06
6.71389e-10
1.25497e-09
-1.36325e-06
7.88057e-10
1.19093e-09
-1.52758e-06
8.61047e-10
1.13578e-09
-1.69744e-06
8.9356e-10
1.08716e-09
-1.87359e-06
8.89428e-10
1.04345e-09
-2.05639e-06
1.003e-09
-2.24606e-06
8.4567e-10
3.4673e-10
8.34747e-10
-1.02504e-06
5.89997e-10
7.5994e-10
-1.20216e-06
7.81182e-10
7.0303e-10
-1.36349e-06
9.18107e-10
6.55608e-10
-1.52785e-06
1.00277e-09
6.14876e-10
-1.69775e-06
1.03869e-09
5.78946e-10
-1.87393e-06
1.0301e-09
5.4639e-10
-2.05677e-06
5.16024e-10
-2.24648e-06
9.75371e-10
3.66867e-10
1.9794e-10
-1.02511e-06
6.26166e-10
1.61572e-10
-1.20225e-06
8.29858e-10
1.2836e-10
-1.36359e-06
9.75884e-10
1.00343e-10
-1.52797e-06
1.06628e-09
7.68487e-11
-1.69788e-06
1.10463e-09
5.64774e-11
-1.87408e-06
1.09516e-09
3.79797e-11
-2.05693e-06
2.08438e-11
-2.24665e-06
1.03618e-09
3.6064e-10
-4.22005e-10
-1.0251e-06
6.1395e-10
-4.17882e-10
-1.20223e-06
8.12717e-10
-4.25816e-10
-1.36357e-06
9.55471e-10
-4.32937e-10
-1.52794e-06
1.04465e-09
-4.37643e-10
-1.69784e-06
1.08375e-09
-4.40355e-10
-1.87403e-06
1.07653e-09
-4.41739e-10
-2.05686e-06
-4.42193e-10
-2.24658e-06
1.0212e-09
3.24491e-10
-1.025e-06
-9.79359e-10
5.45942e-10
-1.20211e-06
-9.33968e-10
7.18252e-10
-1.36343e-06
-9.16254e-10
8.40773e-10
-1.52777e-06
-9.01968e-10
9.16672e-10
-1.69764e-06
-8.86947e-10
9.49935e-10
-1.8738e-06
-8.70516e-10
9.44482e-10
-2.0566e-06
-8.52658e-10
-2.24628e-06
-8.33436e-10
8.98311e-10
1.13808e-10
2.05275e-09
-1.02423e-06
-2.24546e-09
1.48565e-10
1.9086e-09
-1.20119e-06
-2.09804e-09
1.8095e-10
1.81394e-09
-1.36237e-06
-2.00266e-09
2.0105e-10
1.73843e-09
-1.52658e-06
-1.92395e-09
2.13422e-10
1.67319e-09
-1.6963e-06
-1.85476e-09
2.1257e-10
1.61453e-09
-1.87231e-06
-1.79257e-09
2.28855e-10
1.56279e-09
-2.05499e-06
-1.7334e-09
1.51087e-09
-2.24446e-06
-1.67997e-09
2.09695e-10
1.94892e-10
1.69963e-09
-1.0245e-06
3.09616e-10
1.57902e-09
-1.20151e-06
3.99065e-10
1.49653e-09
-1.36275e-06
4.61862e-10
1.42939e-09
-1.52701e-06
5.00947e-10
1.37175e-09
-1.6968e-06
5.1866e-10
1.32086e-09
-1.87288e-06
5.21889e-10
1.27621e-09
-2.05561e-06
1.23367e-09
-2.24521e-06
5.02006e-10
2.55786e-10
1.25212e-09
-1.02472e-06
4.20462e-10
1.15745e-09
-1.20177e-06
5.49311e-10
1.08977e-09
-1.36305e-06
6.40132e-10
1.03399e-09
-1.52735e-06
6.95573e-10
9.86012e-10
-1.69719e-06
7.18951e-10
9.43803e-10
-1.87332e-06
7.15149e-10
9.06066e-10
-2.0561e-06
8.71178e-10
-2.24575e-06
6.77677e-10
2.92533e-10
7.42316e-10
-1.02486e-06
4.87967e-10
6.76252e-10
-1.20195e-06
6.4097e-10
6.26172e-10
-1.36325e-06
7.48698e-10
5.84655e-10
-1.52758e-06
8.13534e-10
5.49062e-10
-1.69745e-06
8.39346e-10
5.17625e-10
-1.87361e-06
8.30412e-10
4.88981e-10
-2.05643e-06
4.61987e-10
-2.24612e-06
7.84116e-10
3.13293e-10
2.02811e-10
-1.02493e-06
5.25521e-10
1.68935e-10
-1.20203e-06
6.92007e-10
1.39147e-10
-1.36334e-06
8.10051e-10
1.14382e-10
-1.52769e-06
8.82015e-10
9.37164e-11
-1.69757e-06
9.11707e-10
7.55719e-11
-1.87375e-06
9.03155e-10
5.86904e-11
-2.05657e-06
4.29199e-11
-2.24627e-06
8.52903e-10
3.14204e-10
-3.30839e-10
-1.02493e-06
5.26497e-10
-3.29569e-10
-1.20202e-06
6.93319e-10
-3.37297e-10
-1.36333e-06
8.1249e-10
-3.43791e-10
-1.52767e-06
8.86634e-10
-3.4802e-10
-1.69755e-06
9.19257e-10
-3.50542e-10
-1.87371e-06
9.13415e-10
-3.52054e-10
-2.05653e-06
-3.52979e-10
-2.24623e-06
8.65788e-10
2.89922e-10
-1.02485e-06
-8.20071e-10
4.79823e-10
-1.20192e-06
-7.81267e-10
6.28092e-10
-1.36322e-06
-7.66142e-10
7.3343e-10
-1.52754e-06
-7.53697e-10
7.98993e-10
-1.69739e-06
-7.40477e-10
8.28585e-10
-1.87354e-06
-7.25944e-10
8.25392e-10
-2.05633e-06
-7.10129e-10
-2.24599e-06
-6.93121e-10
7.8529e-10
1.0537e-10
1.7667e-09
-1.93068e-09
-1.0242e-06
1.29186e-10
1.64047e-09
-1.80376e-09
-1.20114e-06
1.55998e-10
1.55699e-09
-1.7214e-09
-1.36232e-06
1.73637e-10
1.48998e-09
-1.65308e-09
-1.52651e-06
1.93536e-10
1.43278e-09
-1.59261e-09
-1.69625e-06
1.83282e-10
1.37832e-09
-1.54088e-09
-1.87223e-06
2.00848e-10
1.33825e-09
-1.48531e-09
-2.05496e-06
1.28933e-09
-1.44228e-09
2.11284e-10
-2.24443e-06
1.66647e-10
1.46598e-09
-1.02442e-06
2.54971e-10
1.3613e-09
-1.20141e-06
3.24242e-10
1.28927e-09
-1.36263e-06
3.71631e-10
1.2306e-09
-1.52688e-06
4.01371e-10
1.18078e-09
-1.69667e-06
4.11893e-10
1.13598e-09
-1.87274e-06
4.17653e-10
1.10042e-09
-2.05548e-06
1.06065e-09
4.04028e-10
-2.24508e-06
2.1541e-10
1.09009e-09