/*--------------------------------*- C++ -*----------------------------------*\
| =========                 |                                                 |
| \\      /  F ield         | OpenFOAM: The Open Source CFD Toolbox           |
|  \\    /   O peration     | Version:  plus.master.MPPICInterFoam            |
|   \\  /    A nd           | Web:      www.OpenFOAM.com                      |
|    \\/     M anipulation  |                                                 |
\*---------------------------------------------------------------------------*/
FoamFile
{
    version     2.0;
    format      ascii;
    class       volScalarField;
    location    "2.6";
    object      k;
}
// * * * * * * * * * * * * * * * * * * * * * * * * * * * * * * * * * * * * * //

dimensions      [0 2 -2 0 0 0 0];

internalField   nonuniform List<scalar> 
11821
(
0.000106006
0.000209433
0.000263334
0.000297794
0.000319476
0.000330854
0.000333003
0.00032614
0.000105961
0.000209338
0.000263258
0.00029774
0.000319443
0.000330842
0.000333009
0.000326158
0.000105957
0.000209294
0.000263219
0.000297714
0.00031943
0.00033084
0.000333016
0.000326174
0.000105956
0.000209281
0.000263207
0.000297703
0.000319422
0.000330834
0.000333012
0.000326171
0.000105959
0.000209299
0.000263222
0.000297714
0.000319428
0.000330835
0.000333009
0.000326164
0.000105971
0.000209348
0.000263264
0.000297744
0.000319446
0.000330844
0.000333011
0.000326161
0.000106007
0.000209425
0.000263325
0.000297786
0.000319469
0.000330849
0.000332999
0.000326137
0.000105942
0.000209387
0.000263295
0.000297765
0.000319459
0.00033085
0.000333011
0.000326157
0.00010592
0.000209309
0.00026323
0.000297718
0.00031943
0.00033084
0.000333017
0.000326176
0.000105917
0.000209271
0.000263196
0.000297692
0.000319413
0.00033083
0.000333014
0.000326177
0.000105917
0.00020926
0.000263185
0.000297683
0.000319407
0.000330827
0.000333014
0.00032618
0.000105919
0.000209273
0.000263196
0.000297692
0.000319413
0.000330831
0.000333015
0.00032618
0.000105925
0.000209311
0.000263229
0.000297716
0.000319428
0.000330837
0.000333013
0.00032617
0.000105943
0.000209375
0.000263283
0.000297755
0.000319451
0.000330845
0.000333009
0.000326156
0.000105903
0.000209359
0.00026327
0.000297746
0.000319446
0.000330845
0.000333013
0.000326165
0.000105894
0.000209297
0.000263217
0.000297705
0.00031942
0.000330833
0.000333014
0.000326176
0.000105892
0.000209265
0.000263188
0.000297683
0.000319405
0.000330825
0.000333013
0.00032618
0.000105892
0.000209254
0.000263177
0.000297674
0.000319399
0.000330821
0.000333011
0.000326181
0.000105893
0.000209263
0.000263186
0.00029768
0.000319403
0.000330823
0.000333011
0.000326179
0.000105898
0.000209294
0.000263212
0.000297701
0.000319417
0.00033083
0.000333013
0.000326175
0.000105907
0.000209343
0.000263255
0.000297734
0.000319438
0.000330839
0.000333011
0.000326164
0.000105883
0.000209341
0.000263255
0.000297734
0.000319439
0.000330841
0.000333014
0.000326168
0.000105878
0.000209294
0.000263214
0.000297701
0.000319416
0.00033083
0.000333013
0.000326177
0.000105877
0.000209267
0.000263189
0.000297682
0.000319403
0.000330822
0.00033301
0.000326179
0.000105876
0.000209257
0.000263179
0.000297673
0.000319396
0.000330818
0.000333009
0.000326179
0.000105877
0.000209264
0.000263185
0.000297678
0.000319399
0.00033082
0.000333009
0.000326178
0.00010588
0.000209288
0.000263206
0.000297694
0.00031941
0.000330826
0.00033301
0.000326175
0.000105886
0.000209327
0.00026324
0.000297721
0.000319429
0.000330835
0.000333011
0.000326169
0.000105871
0.000209333
0.000263248
0.000297727
0.000319433
0.000330838
0.000333013
0.00032617
0.000105868
0.000209297
0.000263215
0.000297701
0.000319415
0.000330829
0.000333011
0.000326175
0.000105867
0.000209275
0.000263195
0.000297685
0.000319404
0.000330822
0.000333009
0.000326178
0.000105866
0.000209265
0.000263186
0.000297678
0.000319398
0.000330818
0.000333008
0.000326178
0.000105867
0.00020927
0.00026319
0.000297681
0.0003194
0.000330819
0.000333008
0.000326177
0.000105869
0.000209289
0.000263206
0.000297694
0.000319409
0.000330824
0.000333009
0.000326175
0.000105873
0.000209319
0.000263233
0.000297715
0.000319424
0.000330832
0.00033301
0.00032617
0.000105863
0.000209331
0.000263245
0.000297725
0.000319431
0.000330837
0.000333012
0.00032617
0.000105861
0.000209302
0.000263219
0.000297704
0.000319416
0.000330828
0.000333011
0.000326174
0.00010586
0.000209284
0.000263203
0.000297691
0.000319407
0.000330823
0.000333009
0.000326176
0.00010586
0.000209276
0.000263195
0.000297685
0.000319403
0.000330821
0.000333008
0.000326177
0.000105861
0.00020928
0.000263198
0.000297687
0.000319404
0.000330821
0.000333008
0.000326176
0.000105862
0.000209294
0.000263211
0.000297697
0.000319411
0.000330825
0.000333009
0.000326174
0.000105865
0.000209318
0.000263232
0.000297713
0.000319422
0.000330831
0.00033301
0.000326171
0.000105858
0.000209333
0.000263246
0.000297725
0.000319431
0.000330837
0.000333013
0.000326171
0.000105856
0.000209309
0.000263225
0.000297708
0.000319419
0.00033083
0.000333011
0.000326173
0.000105856
0.000209295
0.000263212
0.000297698
0.000319412
0.000330825
0.00033301
0.000326175
0.000105857
0.000209288
0.000263206
0.000297693
0.000319408
0.000330824
0.000333009
0.000326176
0.000105857
0.000209291
0.000263208
0.000297695
0.00031941
0.000330824
0.00033301
0.000326176
0.000105858
0.000209302
0.000263218
0.000297702
0.000319415
0.000330827
0.00033301
0.000326175
0.00010586
0.00020932
0.000263234
0.000297715
0.000319423
0.000330832
0.000333011
0.000326172
0.000105855
0.000209337
0.00026325
0.000297728
0.000319434
0.000330839
0.000333014
0.000326171
0.000105854
0.000209318
0.000263233
0.000297715
0.000319424
0.000330832
0.000333012
0.000326173
0.000105854
0.000209306
0.000263222
0.000297706
0.000319417
0.000330829
0.000333011
0.000326174
0.000105855
0.000209301
0.000263218
0.000297702
0.000319415
0.000330827
0.00033301
0.000326175
0.000105855
0.000209303
0.000263219
0.000297703
0.000319416
0.000330828
0.000333011
0.000326175
0.000105856
0.000209311
0.000263226
0.000297709
0.00031942
0.00033083
0.000333012
0.000326174
0.000105857
0.000209325
0.000263238
0.000297719
0.000319426
0.000330834
0.000333012
0.000326173
0.000105854
0.000209342
0.000263256
0.000297733
0.000319437
0.000330841
0.000333015
0.000326172
0.000105853
0.000209328
0.000263242
0.000297722
0.000319429
0.000330836
0.000333013
0.000326173
0.000105854
0.000209318
0.000263234
0.000297715
0.000319424
0.000330833
0.000333012
0.000326173
0.000105855
0.000209314
0.00026323
0.000297712
0.000319422
0.000330832
0.000333012
0.000326173
0.000105855
0.000209315
0.00026323
0.000297712
0.000319422
0.000330832
0.000333012
0.000326174
0.000105855
0.000209321
0.000263235
0.000297716
0.000319425
0.000330834
0.000333013
0.000326173
0.000105855
0.000209331
0.000263245
0.000297724
0.00031943
0.000330836
0.000333013
0.000326172
0.000105854
0.000209349
0.000263262
0.000297738
0.000319441
0.000330844
0.000333017
0.000326172
0.000105854
0.000209337
0.000263251
0.00029773
0.000319435
0.00033084
0.000333015
0.000326173
0.000105854
0.00020933
0.000263244
0.000297724
0.000319431
0.000330837
0.000333014
0.000326172
0.000105855
0.000209326
0.000263241
0.000297721
0.000319429
0.000330836
0.000333013
0.000326172
0.000105855
0.000209327
0.000263241
0.000297721
0.000319429
0.000330836
0.000333013
0.000326172
0.000105855
0.00020933
0.000263245
0.000297724
0.000319431
0.000330837
0.000333014
0.000326172
0.000105855
0.000209338
0.000263252
0.00029773
0.000319435
0.000330839
0.000333014
0.000326172
0.000105854
0.000209355
0.000263268
0.000297744
0.000319445
0.000330846
0.000333018
0.000326172
0.000105854
0.000209345
0.00026326
0.000297737
0.000319441
0.000330844
0.000333017
0.000326173
0.000105855
0.00020934
0.000263255
0.000297733
0.000319438
0.000330842
0.000333016
0.000326173
0.000105856
0.000209338
0.000263252
0.000297731
0.000319436
0.00033084
0.000333015
0.000326172
0.000105856
0.000209337
0.000263252
0.00029773
0.000319435
0.00033084
0.000333015
0.000326172
0.000105855
0.000209339
0.000263253
0.000297731
0.000319436
0.00033084
0.000333015
0.000326172
0.000105855
0.000209345
0.000263259
0.000297736
0.000319439
0.000330842
0.000333016
0.000326172
0.000105855
0.00020936
0.000263274
0.000297749
0.00031945
0.00033085
0.00033302
0.000326173
0.000105855
0.000209353
0.000263267
0.000297744
0.000319446
0.000330848
0.00033302
0.000326174
0.000105856
0.00020935
0.000263264
0.000297741
0.000319444
0.000330846
0.000333019
0.000326174
0.000105857
0.000209348
0.000263262
0.000297739
0.000319442
0.000330845
0.000333018
0.000326173
0.000105857
0.000209347
0.000263261
0.000297738
0.000319442
0.000330844
0.000333017
0.000326173
0.000105856
0.000209348
0.000263262
0.000297739
0.000319442
0.000330844
0.000333018
0.000326173
0.000105855
0.000209352
0.000263265
0.000297741
0.000319444
0.000330846
0.000333018
0.000326173
0.000105855
0.000209365
0.000263278
0.000297753
0.000319453
0.000330853
0.000333024
0.000326177
0.000105856
0.00020936
0.000263274
0.00029775
0.000319451
0.000330852
0.000333023
0.000326177
0.000105857
0.000209357
0.000263271
0.000297747
0.000319449
0.00033085
0.000333022
0.000326176
0.000105858
0.000209356
0.00026327
0.000297746
0.000319448
0.000330849
0.000333021
0.000326175
0.000105857
0.000209355
0.000263269
0.000297745
0.000319447
0.000330849
0.000333021
0.000326175
0.000105856
0.000209354
0.000263268
0.000297745
0.000319447
0.000330849
0.000333021
0.000326176
0.000105855
0.000209357
0.000263271
0.000297747
0.000319448
0.00033085
0.000333022
0.000326176
0.000105855
0.000209368
0.000263282
0.000297756
0.000319457
0.000330857
0.00033303
0.000326184
0.000105856
0.000209364
0.000263279
0.000297754
0.000319455
0.000330855
0.000333027
0.00032618
0.000105857
0.000209363
0.000263277
0.000297752
0.000319454
0.000330854
0.000333025
0.000326178
0.000105858
0.000209362
0.000263276
0.000297752
0.000319453
0.000330854
0.000333025
0.000326178
0.000105857
0.00020936
0.000263274
0.00029775
0.000319452
0.000330853
0.000333025
0.000326179
0.000105856
0.000209359
0.000263273
0.000297749
0.000319452
0.000330853
0.000333025
0.00032618
0.000105855
0.00020936
0.000263274
0.00029775
0.000319452
0.000330853
0.000333026
0.00032618
0.000106088
0.000209606
0.000263484
0.000297903
0.00031954
0.000330875
0.000332987
0.000326094
0.000106117
0.000209636
0.000263507
0.000297918
0.000319546
0.000330873
0.000332975
0.000326073
0.000106079
0.000209596
0.000263468
0.000297881
0.000319523
0.000106173
0.000209683
0.000106074
0.000106013
0.000209539
0.000263427
0.000297861
0.000319516
0.00033087
0.000332999
0.00032612
0.00010603
0.00020956
0.000263446
0.000297875
0.000319523
0.000330869
0.00033299
0.000326101
0.000106007
0.00020954
0.000263427
0.000297854
0.000319503
0.000330855
0.000332984
0.000326105
0.000106062
0.000209595
0.000263473
0.000297896
0.000319534
0.000330869
0.000332978
0.00032608
0.000106001
0.000209535
0.000263428
0.000297865
0.000319519
0.000330872
0.000332999
0.000326118
0.00010602
0.000209556
0.000263443
0.000297875
0.000319525
0.000330873
0.000332996
0.000326111
0.000106016
0.00020956
0.000263441
0.00029787
0.00031952
0.000330869
0.000332993
0.000326111
0.000105962
0.000209491
0.000263385
0.00029783
0.000319497
0.000330863
0.000333003
0.000326132
0.000105972
0.000209504
0.000263398
0.00029784
0.000319503
0.000330865
0.000333
0.000326125
0.000105954
0.000209492
0.00026339
0.000297834
0.000319498
0.000330861
0.000333
0.000326128
0.000105992
0.00020953
0.00026342
0.000297857
0.000319513
0.000330866
0.000332993
0.00032611
0.000105954
0.000209494
0.000263391
0.000297835
0.000319501
0.000330864
0.000333003
0.00032613
0.000105968
0.000209507
0.000263402
0.000297843
0.000319505
0.000330865
0.000333
0.000326123
0.00010597
0.000209512
0.000263404
0.000297844
0.000319506
0.000330866
0.000333001
0.000326126
0.000105929
0.000209459
0.000263358
0.000297809
0.000319483
0.000330857
0.000333005
0.00032614
0.000105934
0.000209467
0.000263365
0.000297815
0.000319487
0.000330858
0.000333002
0.000326134
0.000105922
0.000209459
0.00026336
0.000297812
0.000319486
0.000330859
0.000333005
0.00032614
0.000105947
0.000209485
0.000263381
0.000297828
0.000319495
0.00033086
0.000332998
0.000326124
0.000105923
0.000209464
0.000263364
0.000297814
0.000319487
0.000330859
0.000333004
0.000326137
0.000105934
0.000209474
0.000263372
0.000297821
0.000319491
0.00033086
0.000333002
0.000326133
0.000105938
0.000209481
0.000263377
0.000297824
0.000319492
0.000330861
0.000333003
0.000326133
0.000105907
0.000209438
0.000263339
0.000297795
0.000319474
0.000330854
0.000333006
0.000326146
0.000105909
0.000209443
0.000263344
0.000297799
0.000319476
0.000330854
0.000333004
0.000326141
0.000105901
0.000209438
0.000263341
0.000297796
0.000319476
0.000330855
0.000333007
0.000326145
0.000105918
0.000209456
0.000263356
0.000297808
0.000319482
0.000330856
0.000333002
0.000326134
0.000105904
0.000209444
0.000263346
0.000297801
0.000319478
0.000330855
0.000333005
0.000326142
0.000105911
0.000209453
0.000263353
0.000297806
0.000319481
0.000330856
0.000333004
0.000326139
0.000105917
0.000209459
0.000263359
0.00029781
0.000319484
0.000330857
0.000333004
0.000326139
0.000105893
0.000209422
0.000263326
0.000297784
0.000319468
0.000330851
0.000333007
0.00032615
0.000105893
0.000209426
0.000263329
0.000297787
0.000319469
0.000330851
0.000333006
0.000326147
0.000105888
0.000209423
0.000263328
0.000297786
0.000319469
0.000330852
0.000333007
0.000326149
0.000105899
0.000209437
0.000263339
0.000297795
0.000319474
0.000330853
0.000333004
0.000326142
0.000105891
0.000209431
0.000263335
0.000297792
0.000319473
0.000330853
0.000333007
0.000326146
0.000105897
0.000209438
0.000263341
0.000297797
0.000319476
0.000330855
0.000333006
0.000326144
0.000105902
0.000209444
0.000263346
0.0002978
0.000319478
0.000330856
0.000333006
0.000326144
0.000105883
0.000209412
0.000263317
0.000297778
0.000319464
0.00033085
0.000333009
0.000326153
0.000105882
0.000209414
0.000263319
0.00029778
0.000319465
0.00033085
0.000333008
0.000326151
0.000105879
0.000209414
0.000263319
0.00029778
0.000319465
0.000330851
0.000333009
0.000326153
0.000105887
0.000209424
0.000263328
0.000297787
0.00031947
0.000330852
0.000333007
0.000326147
0.000105883
0.000209422
0.000263327
0.000297787
0.00031947
0.000330853
0.000333009
0.00032615
0.000105888
0.000209428
0.000263332
0.000297791
0.000319473
0.000330855
0.000333009
0.000326149
0.000105892
0.000209433
0.000263336
0.000297793
0.000319475
0.000330856
0.000333009
0.000326149
0.000105877
0.000209406
0.000263312
0.000297775
0.000319463
0.000330851
0.000333011
0.000326156
0.000105875
0.000209407
0.000263313
0.000297776
0.000319463
0.00033085
0.00033301
0.000326155
0.000105874
0.000209408
0.000263314
0.000297776
0.000319464
0.000330851
0.000333011
0.000326156
0.000105879
0.000209415
0.000263321
0.000297782
0.000319467
0.000330852
0.00033301
0.000326152
0.000105877
0.000209416
0.000263322
0.000297783
0.000319468
0.000330854
0.000333012
0.000326154
0.000105881
0.000209421
0.000263326
0.000297786
0.000319471
0.000330855
0.000333012
0.000326154
0.000105883
0.000209424
0.000263329
0.000297788
0.000319472
0.000330856
0.000333012
0.000326154
0.000105873
0.000209403
0.000263309
0.000297774
0.000319463
0.000330852
0.000333013
0.000326159
0.000105871
0.000209404
0.000263311
0.000297774
0.000319463
0.000330852
0.000333013
0.000326158
0.00010587
0.000209405
0.000263312
0.000297775
0.000319464
0.000330852
0.000333013
0.000326158
0.000105874
0.00020941
0.000263317
0.000297779
0.000319466
0.000330853
0.000333012
0.000326156
0.000105873
0.000209411
0.000263318
0.00029778
0.000319468
0.000330854
0.000333014
0.000326157
0.000105875
0.000209414
0.000263321
0.000297783
0.00031947
0.000330856
0.000333014
0.000326157
0.000105877
0.000209416
0.000263322
0.000297784
0.000319471
0.000330856
0.000333014
0.000326157
0.00010587
0.000209401
0.000263309
0.000297774
0.000319464
0.000330853
0.000333015
0.000326161
0.000105869
0.000209402
0.00026331
0.000297775
0.000319464
0.000330853
0.000333014
0.00032616
0.000105868
0.000209403
0.000263311
0.000297775
0.000319465
0.000330854
0.000333015
0.00032616
0.000105871
0.000209407
0.000263314
0.000297778
0.000319466
0.000330854
0.000333014
0.000326159
0.00010587
0.000209408
0.000263315
0.000297779
0.000319467
0.000330855
0.000333015
0.000326159
0.000105871
0.00020941
0.000263317
0.00029778
0.000319468
0.000330856
0.000333015
0.000326159
0.000105872
0.000209411
0.000263318
0.000297781
0.000319469
0.000330856
0.000333015
0.000326159
0.000105868
0.0002094
0.000263308
0.000297774
0.000319464
0.000330854
0.000333016
0.000326162
0.000105867
0.000209402
0.00026331
0.000297775
0.000319465
0.000330855
0.000333016
0.000326161
0.000105867
0.000209403
0.000263311
0.000297776
0.000319466
0.000330855
0.000333016
0.000326162
0.000105869
0.000209406
0.000263313
0.000297778
0.000319467
0.000330855
0.000333016
0.00032616
0.000105868
0.000209406
0.000263314
0.000297778
0.000319467
0.000330855
0.000333016
0.000326161
0.000105869
0.000209407
0.000263314
0.000297779
0.000319467
0.000330856
0.000333016
0.00032616
0.000105869
0.000209407
0.000263314
0.000297779
0.000319467
0.000330856
0.000333016
0.000326161
0.000105866
0.000209399
0.000263308
0.000297774
0.000319465
0.000330856
0.000333018
0.000326164
0.000105866
0.000209401
0.00026331
0.000297776
0.000319466
0.000330856
0.000333018
0.000326163
0.000105866
0.000209403
0.000263311
0.000297777
0.000319467
0.000330856
0.000333018
0.000326163
0.000105867
0.000209405
0.000263313
0.000297778
0.000319468
0.000330856
0.000333017
0.000326162
0.000105867
0.000209405
0.000263313
0.000297778
0.000319467
0.000330856
0.000333017
0.000326162
0.000105867
0.000209405
0.000263313
0.000297778
0.000319467
0.000330856
0.000333017
0.000326162
0.000105867
0.000209404
0.000263312
0.000297777
0.000319467
0.000330856
0.000333017
0.000326162
0.000105864
0.000209398
0.000263308
0.000297775
0.000319467
0.000330858
0.000333021
0.000326168
0.000105865
0.000209401
0.00026331
0.000297776
0.000319467
0.000330858
0.00033302
0.000326167
0.000105865
0.000209402
0.000263311
0.000297777
0.000319468
0.000330858
0.00033302
0.000326166
0.000105866
0.000209404
0.000263313
0.000297778
0.000319469
0.000330858
0.000333019
0.000326165
0.000105866
0.000209404
0.000263313
0.000297778
0.000319468
0.000330858
0.000333019
0.000326165
0.000105865
0.000209403
0.000263312
0.000297777
0.000319468
0.000330857
0.000333019
0.000326165
0.000105864
0.000209402
0.000263311
0.000297777
0.000319467
0.000330857
0.000333019
0.000326165
0.000105862
0.000209396
0.000263307
0.000297775
0.000319468
0.000330861
0.000333025
0.000326173
0.000105863
0.000209399
0.000263309
0.000297777
0.000319469
0.00033086
0.000333024
0.000326171
0.000105863
0.0002094
0.00026331
0.000297777
0.000319469
0.00033086
0.000333023
0.00032617
0.000105865
0.000209403
0.000263312
0.000297778
0.00031947
0.00033086
0.000333022
0.000326169
0.000105865
0.000209402
0.000263312
0.000297778
0.000319469
0.00033086
0.000333022
0.000326168
0.000105863
0.000209401
0.000263311
0.000297777
0.000319469
0.00033086
0.000333022
0.000326169
0.000105862
0.000209399
0.000263309
0.000297776
0.000319468
0.000330859
0.000333022
0.000326169
0.000105901
0.000106355
0.000209374
0.000106223
0.000209688
0.000263466
0.000297884
0.000319365
0.000106202
0.000209705
0.000263562
0.000297963
0.000319562
0.000330856
0.000332957
0.000326055
0.000106044
0.000209515
0.000263405
0.000297848
0.00031951
0.00033087
0.000333005
0.000326134
0.000106014
0.000209582
0.000263463
0.000297882
0.000319524
0.00033087
0.000332993
0.000326112
0.000106065
0.00020963
0.000263534
0.000297947
0.000319566
0.000330883
0.00033298
0.000326075
0.000106066
0.000209451
0.000263395
0.000297873
0.000319532
0.000330875
0.000332989
0.000326099
0.000106259
0.000209723
0.00026347
0.0002979
0.000319534
0.000330857
0.000332948
0.000326028
0.000106091
0.000209637
0.000263511
0.000297932
0.000319538
0.000330828
0.000332961
0.000326087
0.000106075
0.000209582
0.000263461
0.000297893
0.000319541
0.00033088
0.000332995
0.000326105
0.000105975
0.000209454
0.000263351
0.000297805
0.000319483
0.00033086
0.000333009
0.000326147
0.000105974
0.000209516
0.000263407
0.000297846
0.000319506
0.000330866
0.000333002
0.000326129
0.000106042
0.000209587
0.000263463
0.000297885
0.000319527
0.000330869
0.000332986
0.000326097
0.000106025
0.000209564
0.000263444
0.00029787
0.000319518
0.000330867
0.000332994
0.000326114
0.000106094
0.000209646
0.000263512
0.000297923
0.000319551
0.000330876
0.000332976
0.000326071
0.000106003
0.000209535
0.000263423
0.000297863
0.000319521
0.000330875
0.000333005
0.000326129
0.000106003
0.000209509
0.000263395
0.000297837
0.000319501
0.000330862
0.000332996
0.00032612
0.00010593
0.000209416
0.000263318
0.00029778
0.000319467
0.000330854
0.000333012
0.000326157
0.00010594
0.000209484
0.00026338
0.000297825
0.000319493
0.000330861
0.000333003
0.000326135
0.000105985
0.000209532
0.000263417
0.000297852
0.000319508
0.000330863
0.000332993
0.000326113
0.000105966
0.00020951
0.000263399
0.000297838
0.000319499
0.000330862
0.000333
0.000326128
0.000106017
0.000209557
0.000263437
0.000297866
0.000319516
0.000330864
0.000332985
0.000326098
0.000105958
0.000209485
0.000263376
0.000297821
0.000319489
0.000330858
0.000333001
0.000326134
0.000105953
0.000209461
0.000263355
0.000297806
0.000319481
0.000330855
0.000333001
0.000326135
0.000105899
0.00020939
0.000263296
0.000297763
0.000319456
0.000330848
0.000333012
0.000326161
0.000105918
0.000209462
0.00026336
0.00029781
0.000319484
0.000330858
0.000333005
0.000326141
0.00010595
0.000209494
0.000263386
0.000297829
0.000319494
0.000330859
0.000332998
0.000326125
0.000105935
0.000209477
0.000263371
0.000297818
0.000319487
0.000330858
0.000333003
0.000326137
0.000105969
0.000209504
0.000263392
0.000297833
0.000319497
0.000330858
0.000332994
0.000326118
0.000105926
0.000209452
0.000263348
0.0002978
0.000319477
0.000330854
0.000333005
0.000326143
0.000105918
0.000209428
0.000263328
0.000297786
0.000319469
0.000330851
0.000333005
0.000326145
0.000105879
0.000209374
0.000263282
0.000297753
0.000319449
0.000330845
0.000333013
0.000326164
0.000105903
0.000209445
0.000263346
0.0002978
0.000319478
0.000330856
0.000333007
0.000326145
0.000105925
0.000209467
0.000263363
0.000297812
0.000319485
0.000330857
0.000333002
0.000326135
0.000105914
0.000209454
0.000263351
0.000297803
0.000319479
0.000330856
0.000333006
0.000326144
0.000105934
0.000209467
0.000263362
0.000297811
0.000319484
0.000330856
0.000333001
0.000326133
0.000105905
0.000209429
0.000263329
0.000297787
0.00031947
0.000330852
0.000333009
0.000326151
0.000105895
0.000209406
0.00026331
0.000297773
0.000319461
0.000330849
0.000333009
0.000326153
0.000105867
0.000209364
0.000263274
0.000297746
0.000319445
0.000330843
0.000333013
0.000326166
0.000105892
0.000209433
0.000263336
0.000297793
0.000319474
0.000330855
0.000333009
0.00032615
0.000105907
0.000209446
0.000263346
0.0002978
0.000319478
0.000330855
0.000333006
0.000326143
0.000105899
0.000209436
0.000263337
0.000297793
0.000319474
0.000330855
0.000333009
0.000326149
0.000105911
0.000209441
0.00026334
0.000297796
0.000319476
0.000330855
0.000333006
0.000326144
0.00010589
0.000209413
0.000263317
0.000297778
0.000319465
0.000330852
0.000333012
0.000326157
0.00010588
0.000209393
0.000263299
0.000297765
0.000319457
0.000330849
0.000333012
0.00032616
0.00010586
0.00020936
0.000263271
0.000297744
0.000319444
0.000330844
0.000333015
0.000326168
0.000105884
0.000209424
0.000263328
0.000297788
0.000319472
0.000330856
0.000333012
0.000326154
0.000105893
0.000209431
0.000263333
0.000297791
0.000319473
0.000330855
0.000333009
0.000326149
0.000105889
0.000209423
0.000263326
0.000297786
0.00031947
0.000330854
0.000333011
0.000326154
0.000105894
0.000209423
0.000263326
0.000297786
0.00031947
0.000330854
0.00033301
0.000326151
0.000105879
0.000209402
0.000263308
0.000297773
0.000319462
0.000330852
0.000333014
0.000326161
0.000105871
0.000209385
0.000263293
0.000297761
0.000319456
0.00033085
0.000333015
0.000326164
0.000105856
0.000209359
0.00026327
0.000297744
0.000319445
0.000330845
0.000333016
0.00032617
0.000105878
0.000209416
0.000263322
0.000297784
0.00031947
0.000330856
0.000333014
0.000326158
0.000105884
0.00020942
0.000263325
0.000297786
0.000319471
0.000330855
0.000333012
0.000326154
0.000105881
0.000209414
0.000263319
0.000297781
0.000319468
0.000330854
0.000333013
0.000326157
0.000105883
0.000209412
0.000263317
0.000297779
0.000319467
0.000330854
0.000333012
0.000326156
0.000105872
0.000209396
0.000263303
0.000297769
0.000319461
0.000330852
0.000333016
0.000326163
0.000105865
0.00020938
0.00026329
0.00029776
0.000319455
0.00033085
0.000333016
0.000326166
0.000105854
0.00020936
0.000263272
0.000297746
0.000319447
0.000330847
0.000333017
0.00032617
0.000105873
0.000209411
0.000263318
0.000297781
0.000319468
0.000330856
0.000333015
0.00032616
0.000105877
0.000209413
0.000263319
0.000297782
0.000319469
0.000330856
0.000333014
0.000326158
0.000105875
0.000209409
0.000263315
0.000297778
0.000319467
0.000330855
0.000333015
0.000326159
0.000105876
0.000209405
0.000263311
0.000297776
0.000319465
0.000330854
0.000333014
0.000326159
0.000105868
0.000209392
0.0002633
0.000297768
0.00031946
0.000330853
0.000333016
0.000326164
0.000105861
0.000209379
0.000263289
0.000297759
0.000319455
0.000330851
0.000333017
0.000326166
0.000105854
0.000209363
0.000263275
0.000297749
0.000319449
0.000330848
0.000333018
0.00032617
0.00010587
0.000209407
0.000263314
0.000297779
0.000319467
0.000330856
0.000333016
0.000326161
0.000105872
0.000209408
0.000263315
0.000297779
0.000319468
0.000330856
0.000333016
0.00032616
0.000105872
0.000209405
0.000263312
0.000297777
0.000319467
0.000330855
0.000333016
0.000326161
0.000105871
0.000209401
0.000263309
0.000297774
0.000319465
0.000330855
0.000333016
0.000326161
0.000105865
0.00020939
0.000263299
0.000297767
0.000319461
0.000330853
0.000333017
0.000326165
0.000105859
0.000209379
0.00026329
0.00029776
0.000319456
0.000330852
0.000333018
0.000326167
0.000105854
0.000209366
0.000263278
0.000297752
0.000319451
0.000330849
0.000333018
0.00032617
0.000105867
0.000209404
0.000263312
0.000297777
0.000319467
0.000330856
0.000333017
0.000326163
0.000105869
0.000209405
0.000263313
0.000297778
0.000319468
0.000330857
0.000333017
0.000326163
0.000105869
0.000209403
0.000263311
0.000297777
0.000319467
0.000330856
0.000333018
0.000326163
0.000105868
0.000209399
0.000263307
0.000297774
0.000319465
0.000330856
0.000333018
0.000326164
0.000105863
0.00020939
0.000263299
0.000297768
0.000319462
0.000330855
0.000333019
0.000326167
0.000105858
0.00020938
0.000263291
0.000297762
0.000319458
0.000330853
0.00033302
0.000326169
0.000105854
0.00020937
0.000263282
0.000297755
0.000319454
0.000330852
0.00033302
0.000326171
0.000105865
0.000209402
0.000263311
0.000297777
0.000319467
0.000330857
0.00033302
0.000326166
0.000105867
0.000209402
0.000263311
0.000297777
0.000319468
0.000330858
0.00033302
0.000326166
0.000105867
0.000209401
0.00026331
0.000297776
0.000319467
0.000330858
0.00033302
0.000326166
0.000105866
0.000209397
0.000263306
0.000297774
0.000319466
0.000330858
0.000333021
0.000326167
0.000105861
0.000209389
0.0002633
0.000297769
0.000319463
0.000330857
0.000333022
0.00032617
0.000105858
0.000209381
0.000263293
0.000297764
0.00031946
0.000330856
0.000333022
0.000326172
0.000105855
0.000209372
0.000263285
0.000297758
0.000319457
0.000330854
0.000333023
0.000326174
0.000105863
0.000209399
0.000263309
0.000297776
0.000319468
0.000330859
0.000333023
0.00032617
0.000105864
0.000209399
0.000263309
0.000297776
0.000319468
0.000330859
0.000333022
0.00032617
0.000105865
0.000209399
0.000263308
0.000297776
0.000319468
0.00033086
0.000333023
0.00032617
0.000105864
0.000209395
0.000263305
0.000297774
0.000319467
0.000330859
0.000333023
0.000326171
0.00010586
0.000209388
0.000263299
0.000297769
0.000319464
0.000330859
0.000333025
0.000326174
0.000105857
0.000209381
0.000263293
0.000297765
0.000319462
0.000330858
0.000333025
0.000326176
0.000105855
0.000209374
0.000263287
0.00029776
0.000319459
0.000330857
0.000333026
0.000326178
0.00010605
0.000209498
0.000263386
0.000297829
0.000319494
0.000330858
0.000332996
0.000326125
0.000106145
0.000209619
0.000263487
0.000297903
0.000319537
0.000330868
0.000332974
0.000326076
0.000106145
0.00020965
0.000263516
0.000297924
0.000319552
0.000330879
0.000332986
0.000326092
0.000106263
0.00020978
0.000263624
0.000298004
0.000319598
0.000330886
0.00033295
0.000326017
0.000106139
0.000209665
0.000263531
0.000297935
0.000319557
0.000330879
0.00033298
0.00032608
0.000106172
0.000209695
0.000263555
0.000297955
0.000319571
0.000330885
0.000332976
0.000326067
0.00010609
0.000209613
0.000263489
0.000297907
0.000319543
0.000330879
0.000332992
0.000326102
0.000105977
0.000209437
0.000263334
0.000297791
0.000319472
0.000330852
0.000333004
0.000326144
0.000106046
0.000209528
0.00026341
0.000297847
0.000319505
0.000330861
0.000332991
0.000326112
0.000106051
0.000209557
0.000263436
0.000297865
0.000319516
0.000330866
0.000332993
0.000326112
0.00010613
0.000209648
0.000263513
0.000297924
0.000319551
0.000330876
0.000332975
0.00032607
0.000106049
0.000209576
0.000263455
0.00029788
0.000319526
0.000330873
0.000332997
0.000326115
0.000106072
0.000209598
0.000263473
0.000297894
0.000319534
0.000330873
0.000332988
0.000326097
0.000106015
0.000209542
0.000263429
0.000297862
0.000319516
0.00033087
0.000332999
0.00032612
0.000105929
0.000209397
0.0002633
0.000297765
0.000319456
0.000330846
0.000333008
0.000326155
0.000105979
0.000209465
0.000263358
0.000297808
0.000319482
0.000330854
0.000332998
0.000326131
0.000105986
0.000209493
0.000263382
0.000297826
0.000319492
0.000330859
0.000333001
0.000326132
0.00010604
0.000209557
0.000263436
0.000297866
0.000319517
0.000330865
0.000332987
0.000326101
0.000105988
0.000209514
0.000263402
0.000297841
0.000319502
0.000330864
0.000333001
0.000326129
0.000106004
0.000209531
0.000263416
0.000297852
0.000319509
0.000330866
0.000332996
0.000326118
0.000105964
0.000209494