/*--------------------------------*- C++ -*----------------------------------*\
| =========                 |                                                 |
| \\      /  F ield         | OpenFOAM: The Open Source CFD Toolbox           |
|  \\    /   O peration     | Version:  plus.master.MPPICInterFoam            |
|   \\  /    A nd           | Web:      www.OpenFOAM.com                      |
|    \\/     M anipulation  |                                                 |
\*---------------------------------------------------------------------------*/
FoamFile
{
    version     2.0;
    format      ascii;
    class       surfaceScalarField;
    location    "2.6";
    object      phi;
}
// * * * * * * * * * * * * * * * * * * * * * * * * * * * * * * * * * * * * * //

dimensions      [0 3 -1 0 0 0 0];

internalField   nonuniform List<scalar> 
34004
(
-7.63677e-10
1.51374e-08
-1.03897e-06
-1.71953e-08
-1.99834e-09
1.40895e-08
-1.21845e-06
-1.61169e-08
-3.44149e-09
1.34893e-08
-1.38161e-06
-1.55043e-08
-4.90794e-09
1.30443e-08
-1.54752e-06
-1.5079e-08
-6.20943e-09
1.26771e-08
-1.71869e-06
-1.4746e-08
-7.17507e-09
1.23509e-08
-1.89589e-06
-1.44529e-08
-7.64675e-09
1.20442e-08
-2.07951e-06
-1.41878e-08
1.17332e-08
-2.26983e-06
-1.39246e-08
-7.5066e-09
4.78852e-10
1.13679e-08
-1.0413e-06
2.55338e-10
1.05274e-08
-1.22121e-06
-3.18738e-10
9.98647e-09
-1.38485e-06
-1.06238e-09
9.55327e-09
-1.55132e-06
-1.80341e-09
9.17724e-09
-1.72315e-06
-2.38862e-09
8.84184e-09
-1.90111e-06
-2.68867e-09
8.5315e-09
-2.08557e-06
8.23922e-09
-2.27681e-06
-2.63137e-09
9.51962e-10
6.9177e-09
-1.04282e-06
1.0902e-09
6.35741e-09
-1.22299e-06
7.68579e-10
5.96193e-09
-1.38688e-06
1.67697e-10
5.63118e-09
-1.55362e-06
-5.5188e-10
5.34414e-09
-1.72572e-06
-1.21759e-09
5.08514e-09
-1.90395e-06
-1.69469e-09
4.85132e-09
-2.08867e-06
4.63358e-09
-2.28018e-06
-1.88426e-09
1.15244e-09
2.1973e-09
-1.04359e-06
1.45604e-09
1.94345e-09
-1.22389e-06
1.26729e-09
1.71878e-09
-1.38791e-06
7.66733e-10
1.51721e-09
-1.55478e-06
1.24757e-10
1.3438e-09
-1.72702e-06
-5.05958e-10
1.19626e-09
-1.9054e-06
-9.73992e-10
1.06953e-09
-2.09028e-06
9.62711e-10
-2.28194e-06
-1.17801e-09
1.01383e-09
-2.31419e-09
-1.0436e-06
1.19179e-09
-2.26369e-09
-1.22389e-06
8.89173e-10
-2.3148e-09
-1.38788e-06
2.8726e-10
-2.38346e-09
-1.55473e-06
-4.44128e-10
-2.43968e-09
-1.72693e-06
-1.12942e-09
-2.4836e-09
-1.90525e-06
-1.62259e-09
-2.51202e-09
-2.09007e-06
-2.52603e-09
-2.28168e-06
-1.8137e-09
6.22775e-10
-6.2465e-09
-1.04291e-06
4.96269e-10
-5.94516e-09
-1.22306e-06
-3.32968e-11
-5.86956e-09
-1.38692e-06
-7.98993e-10
-5.84491e-09
-1.5536e-06
-1.60624e-09
-5.83375e-09
-1.72563e-06
-2.29223e-09
-5.81607e-09
-1.90378e-06
-2.71981e-09
-5.78323e-09
-2.08842e-06
-5.72597e-09
-2.27984e-06
-2.79711e-09
-2.22957e-10
-1.04159e-06
-9.02162e-09
-1.03344e-09
-1.22147e-06
-8.56038e-09
-2.16195e-09
-1.38503e-06
-8.37461e-09
-3.41952e-09
-1.55137e-06
-8.27212e-09
-4.61278e-09
-1.72299e-06
-8.19904e-09
-5.55335e-09
-1.90066e-06
-8.13335e-09
-6.07872e-09
-2.08476e-06
-8.06134e-09
-2.27559e-06
-7.97931e-09
-6.05936e-09
-2.97966e-10
1.27415e-08
-1.03708e-06
-1.43614e-08
-9.36602e-10
1.18552e-08
-1.2163e-06
-1.34453e-08
-1.73001e-09
1.13441e-08
-1.37931e-06
-1.29172e-08
-2.56852e-09
1.09633e-08
-1.54517e-06
-1.25386e-08
-3.3356e-09
1.06483e-08
-1.7164e-06
-1.22359e-08
-3.92115e-09
1.03687e-08
-1.89377e-06
-1.19726e-08
-4.22643e-09
1.01054e-08
-2.07765e-06
-1.17282e-08
9.84159e-09
-2.26831e-06
-1.14896e-08
-4.17422e-09
6.96148e-10
9.72033e-09
-1.03902e-06
8.67256e-10
9.00239e-09
-1.2186e-06
7.67769e-10
8.54085e-09
-1.38201e-06
5.12336e-10
8.17177e-09
-1.54834e-06
2.032e-10
7.85419e-09
-1.72012e-06
-7.40464e-11
7.57082e-09
-1.89811e-06
-2.5143e-10
7.3096e-09
-2.08267e-06
7.06178e-09
-2.27408e-06
-2.82699e-10
1.12869e-09
6.06695e-09
-1.04034e-06
1.63601e-09
5.57873e-09
-1.22015e-06
1.77341e-09
5.23605e-09
-1.38378e-06
1.65323e-09
4.95113e-09
-1.55035e-06
1.38385e-09
4.70362e-09
-1.72237e-06
1.06106e-09
4.48309e-09
-1.90061e-06
7.69772e-10
4.28261e-09
-2.08543e-06
4.09525e-09
-2.27709e-06
5.69974e-10
1.31996e-09
2.14891e-09
-1.04104e-06
1.98136e-09
1.91183e-09
-1.22096e-06
2.2425e-09
1.70793e-09
-1.38471e-06
2.21569e-09
1.52786e-09
-1.5514e-06
2.00748e-09
1.37072e-09
-1.72355e-06
1.71713e-09
1.23694e-09
-1.90193e-06
1.42944e-09
1.1193e-09
-2.0869e-06
1.02063e-09
-2.27872e-06
1.19927e-09
1.22312e-09
-1.62944e-09
-1.0411e-06
1.79524e-09
-1.61144e-09
-1.22102e-06
1.97482e-09
-1.67109e-09
-1.38476e-06
1.87502e-09
-1.7399e-09
-1.55143e-06
1.60567e-09
-1.80015e-09
-1.72356e-06
1.26976e-09
-1.84789e-09
-1.90191e-06
9.52438e-10
-1.88139e-09
-2.08683e-06
-1.90239e-09
-2.27861e-06
7.20058e-10
8.9586e-10
-4.92652e-09
-1.04056e-06
1.21189e-09
-4.69618e-09
-1.22037e-06
1.19749e-09
-4.64598e-09
-1.384e-06
9.69946e-10
-4.63614e-09
-1.55055e-06
6.35393e-10
-4.63362e-09
-1.72254e-06
2.93727e-10
-4.62511e-09
-1.90074e-06
3.01206e-11
-4.60411e-09
-2.0855e-06
-4.56303e-09
-2.27712e-06
-1.08138e-10
2.40819e-10
-1.0395e-06
-7.30665e-09
2.55432e-11
-1.2191e-06
-6.92839e-09
-4.54942e-10
-1.38249e-06
-6.77658e-09
-1.0787e-09
-1.54876e-06
-6.69044e-09
-1.72475e-09
-1.72042e-06
-6.62489e-09
-2.27472e-09
-1.89824e-06
-6.56345e-09
-2.62554e-09
-2.08259e-06
-6.49632e-09
-2.27374e-06
-6.42108e-09
-2.69424e-09
-2.90535e-11
1.07277e-08
-1.03579e-06
-1.20185e-08
-3.10274e-10
9.97704e-09
-1.21483e-06
-1.12374e-08
-7.11006e-10
9.54098e-09
-1.37773e-06
-1.07824e-08
-1.16504e-09
9.2138e-09
-1.54354e-06
-1.04494e-08
-1.5998e-09
8.94212e-09
-1.7148e-06
-1.01785e-08
-1.94557e-09
8.70169e-09
-1.89226e-06
-9.94153e-09
-2.14089e-09
8.47695e-09
-2.0763e-06
-9.72023e-09
8.25244e-09
-2.26716e-06
-9.50539e-09
-2.13536e-09
7.67291e-10
8.29778e-09
-1.03741e-06
1.13214e-09
7.68528e-09
-1.21675e-06
1.28107e-09
7.2927e-09
-1.37998e-06
1.28522e-09
6.97897e-09
-1.54618e-06
1.20489e-09
6.71001e-09
-1.71788e-06
1.09569e-09
6.46975e-09
-1.89584e-06
1.00343e-09
6.24759e-09
-2.08043e-06
6.03742e-09
-2.27191e-06
9.42355e-10
1.15364e-09
5.3014e-09
-1.03854e-06
1.82139e-09
4.87646e-09
-1.21808e-06
2.19241e-09
4.58007e-09
-1.38151e-06
2.33619e-09
4.33489e-09
-1.54792e-06
2.3168e-09
4.12238e-09
-1.71984e-06
2.19309e-09
3.9336e-09
-1.89803e-06
2.01575e-09
3.76187e-09
-2.08286e-06
3.60132e-09
-2.27456e-06
1.81919e-09
1.33036e-09
2.05194e-09
-1.03917e-06
2.14037e-09
1.83551e-09
-1.2188e-06
2.6253e-09
1.65262e-09
-1.38234e-06
2.85411e-09
1.49361e-09
-1.54886e-06
2.89293e-09
1.35263e-09
-1.7209e-06
2.79813e-09
1.23285e-09
-1.89922e-06
2.62184e-09
1.12611e-09
-2.08418e-06
1.03467e-09
-2.27603e-06
2.39215e-09
1.26336e-09
-1.10369e-09
-1.03925e-06
2.01237e-09
-1.10914e-09
-1.2189e-06
2.44e-09
-1.17259e-09
-1.38243e-06
2.61763e-09
-1.24071e-09
-1.54895e-06
2.60929e-09
-1.30083e-09
-1.72098e-06
2.47943e-09
-1.34919e-09
-1.89928e-06
2.27968e-09
-1.38509e-09
-2.08421e-06
-1.40938e-09
-2.27603e-06
2.04702e-09
9.99061e-10
-3.87101e-09
-1.03884e-06
1.54007e-09
-3.698e-09
-1.2184e-06
1.80707e-09
-3.66508e-09
-1.38185e-06
1.87156e-09
-3.66374e-09
-1.54827e-06
1.8004e-09
-3.6669e-09
-1.72018e-06
1.65715e-09
-3.66483e-09
-1.89836e-06
1.49543e-09
-3.65241e-09
-2.08317e-06
-3.62477e-09
-2.27486e-06
1.34727e-09
4.94079e-10
-1.038e-06
-5.91707e-09
6.14836e-10
-1.21739e-06
-5.6071e-09
5.20694e-10
-1.38065e-06
-5.48633e-09
2.81654e-10
-1.54684e-06
-5.41475e-09
-2.73996e-11
-1.7185e-06
-5.35737e-09
-3.33328e-10
-1.89638e-06
-5.3019e-09
-5.68628e-10
-2.08085e-06
-5.24175e-09
-2.27218e-06
-5.17502e-09
-6.82828e-10
1.31176e-10
9.03838e-09
-1.0349e-06
-1.00822e-08
5.08443e-11
8.40497e-09
-1.21381e-06
-9.41338e-09
-1.19404e-10
8.03153e-09
-1.37663e-06
-9.02244e-09
-3.41445e-10
7.74944e-09
-1.54241e-06
-8.73169e-09
-5.72882e-10
7.51461e-09
-1.71367e-06
-8.49153e-09
-7.69659e-10
7.30688e-09
-1.89118e-06
-8.27982e-09
-8.94223e-10
7.1133e-09
-2.07529e-06
-8.08187e-09
6.92123e-09
-2.26627e-06
-7.89028e-09
-9.15469e-10
7.57182e-10
7.07715e-09
-1.03625e-06
1.19942e-09
6.55543e-09
-1.21541e-06
1.46853e-09
6.22101e-09
-1.37851e-06
1.60848e-09
5.95416e-09
-1.5446e-06
1.65624e-09
5.72536e-09
-1.71622e-06
1.64375e-09
5.52108e-09
-1.89413e-06
1.59677e-09
5.33214e-09
-2.0787e-06
5.15288e-09
-2.27017e-06
1.52108e-09
1.09563e-09
4.6184e-09
-1.03722e-06
1.80477e-09
4.25032e-09
-1.21655e-06
2.27445e-09
3.99432e-09
-1.37982e-06
2.54767e-09
3.78326e-09
-1.54609e-06
2.66225e-09
3.60076e-09
-1.71791e-06
2.65261e-09
3.43877e-09
-1.89603e-06
2.54794e-09
3.29145e-09
-2.08081e-06
3.15352e-09
-2.27249e-06
2.3649e-09
1.25522e-09
1.92722e-09
-1.03777e-06
2.09316e-09
1.73106e-09
-1.21719e-06
2.66551e-09
1.56838e-09
-1.38055e-06
3.01535e-09
1.42734e-09
-1.54693e-06
3.18168e-09
1.30355e-09
-1.71885e-06
3.19816e-09
1.19631e-09
-1.89708e-06
3.09399e-09
1.10248e-09
-2.08198e-06
1.01962e-09
-2.2738e-06
2.88301e-09
1.21425e-09
-7.07281e-10
-1.03788e-06
2.01409e-09
-7.28715e-10
-1.21731e-06
2.54991e-09
-7.92706e-10
-1.38068e-06
2.86602e-09
-8.58154e-10
-1.54705e-06
3.00104e-09
-9.15572e-10
-1.71897e-06
2.99264e-09
-9.6248e-10
-1.8972e-06
2.8725e-09
-9.98574e-10
-2.08209e-06
-1.02468e-09
-2.27389e-06
2.65831e-09
1.00487e-09
-3.0334e-09
-1.03757e-06
1.63905e-09
-2.90447e-09
-1.21694e-06
2.04405e-09
-2.88495e-09
-1.38023e-06
2.26493e-09
-2.88881e-09
-1.54653e-06
2.34316e-09
-2.89513e-09
-1.71836e-06
2.31699e-09
-2.89652e-09
-1.89649e-06
2.21893e-09
-2.88972e-09
-2.08128e-06
-2.87105e-09
-2.27297e-06
2.06414e-09
6.1118e-10
-1.0369e-06
-4.79055e-09
9.19838e-10
-1.21613e-06
-4.54481e-09
1.04482e-09
-1.37928e-06
-4.44743e-09
1.03203e-09
-1.54541e-06
-4.38848e-09
9.27903e-10
-1.71703e-06
-4.33919e-09
7.7993e-10
-1.89493e-06
-4.29055e-09
6.29075e-10
-2.07945e-06
-4.23763e-09
-2.27086e-06
-4.17943e-09
5.05801e-10
2.01294e-10
7.6238e-09
-1.03428e-06
-8.47079e-09
2.36301e-10
7.08853e-09
-1.2131e-06
-7.90466e-09
2.01246e-10
6.76904e-09
-1.37586e-06
-7.56973e-09
1.16738e-10
6.52579e-09
-1.5416e-06
-7.31633e-09
9.25024e-12
6.32222e-09
-1.71285e-06
-7.10464e-09
-9.72776e-11
6.14236e-09
-1.89037e-06
-6.91635e-09
-1.76287e-10
5.9748e-09
-2.07453e-06
-6.74049e-09
5.80963e-09
-2.26557e-06
-6.57042e-09
-2.08948e-10
7.01325e-10
6.03443e-09
-1.03541e-06
1.15457e-09
5.59041e-09
-1.21443e-06
1.46793e-09
5.30527e-09
-1.37742e-06
1.66848e-09
5.07786e-09
-1.54342e-06
1.77787e-09
4.88284e-09
-1.71496e-06
1.81478e-09
4.70871e-09
-1.89281e-06
1.79323e-09
4.54771e-09
-2.07734e-06
4.39459e-09
-2.26878e-06
1.71289e-09
9.93604e-10
4.01529e-09
-1.03624e-06
1.67827e-09
3.6969e-09
-1.21541e-06
2.16871e-09
3.47592e-09
-1.37854e-06
2.49145e-09
3.29422e-09
-1.54469e-06
2.66811e-09
3.13741e-09
-1.71641e-06
2.71794e-09
2.99836e-09
-1.89444e-06
2.65698e-09
2.8719e-09
-2.07916e-06
2.75333e-09
-2.27079e-06
2.49138e-09
1.1369e-09
1.78553e-09
-1.03672e-06
1.93684e-09
1.60983e-09
-1.21597e-06
2.51919e-09
1.46571e-09
-1.37919e-06
2.91074e-09
1.34141e-09
-1.54543e-06
3.13403e-09
1.23294e-09
-1.71724e-06
3.20828e-09
1.13836e-09
-1.89538e-06
3.1487e-09
1.05603e-09
-2.0802e-06
9.81141e-10
-2.27194e-06
2.96084e-09
1.11471e-09
-4.13235e-10
-1.03684e-06
1.89469e-09
-4.45227e-10
-1.2161e-06
2.45636e-09
-5.07391e-10
-1.37933e-06
2.82733e-09
-5.68708e-10
-1.54558e-06
3.03035e-09
-6.22178e-10
-1.7174e-06
3.08687e-09
-6.66331e-10
-1.89554e-06
3.01591e-09
-7.01263e-10
-2.08035e-06
-7.27828e-10
-2.27209e-06
2.82284e-09
9.52853e-10
-2.37244e-09
-1.03661e-06
1.60306e-09
-2.27731e-09
-1.21582e-06
2.06129e-09
-2.26741e-09
-1.379e-06
2.3552e-09
-2.27436e-09
-1.54519e-06
2.50989e-09
-2.28211e-09
-1.71693e-06
2.54838e-09
-2.28547e-09
-1.895e-06
2.49001e-09
-2.28217e-09
-2.07973e-06
-2.26964e-09
-2.27138e-06
2.34021e-09
6.48016e-10
-1.03608e-06
-3.88655e-09
1.04635e-09
-1.21519e-06
-3.68965e-09
1.28928e-09
-1.37825e-06
-3.61272e-09
1.40372e-09
-1.5443e-06
-3.56333e-09
1.41987e-09
-1.71589e-06
-3.52131e-09
1.3664e-09
-1.89376e-06
-3.47909e-09
1.2692e-09
-2.0783e-06
-3.43304e-09
-2.26973e-06
-3.38275e-09
1.14503e-09
2.19306e-10
6.43677e-09
-1.03383e-06
-7.13094e-09
3.1421e-10
5.98555e-09
-1.21258e-06
-6.65232e-09
3.52546e-10
5.71271e-09
-1.37529e-06
-6.36643e-09
3.45481e-10
5.50299e-09
-1.541e-06
-6.14634e-09
3.08153e-10
5.32651e-09
-1.71223e-06
-5.96046e-09
2.57241e-10
5.17001e-09
-1.88975e-06
-5.79445e-09
2.06959e-10
5.02478e-09
-2.07393e-06
-5.63904e-09
4.88243e-09
-2.265e-06
-5.48897e-09
1.69334e-10
6.19757e-10
5.14492e-09
-1.03478e-06
1.04921e-09
4.76756e-09
-1.21369e-06
1.36427e-09
4.52431e-09
-1.37659e-06
1.58187e-09
4.3301e-09
-1.54251e-06
1.71424e-09
4.16354e-09
-1.71398e-06
1.77155e-09
4.01478e-09
-1.89177e-06
1.76161e-09
3.87727e-09
-2.07624e-06
3.74627e-09
-2.26763e-06
1.68173e-09
8.6882e-10
3.48559e-09
-1.03548e-06
1.49626e-09
3.21029e-09
-1.21452e-06
1.96478e-09
3.0195e-09
-1.37755e-06
2.2911e-09
2.86296e-09
-1.5436e-06
2.48714e-09
2.72804e-09
-1.71522e-06
2.56299e-09
2.60843e-09
-1.89317e-06
2.52701e-09
2.4996e-09
-2.07781e-06
2.39737e-09
-2.26936e-06
2.38024e-09
9.96375e-10
1.63868e-09
-1.03591e-06
1.7259e-09
1.48093e-09
-1.21502e-06
2.27587e-09
1.35316e-09
-1.37812e-06
2.66284e-09
1.24445e-09
-1.54425e-06
2.89989e-09
1.1493e-09
-1.71595e-06
2.99689e-09
1.06655e-09
-1.89399e-06
2.96149e-09
9.93938e-10
-2.07872e-06
9.2745e-10
-2.27038e-06
2.79415e-09
9.90217e-10
-1.98851e-10
-1.03603e-06
1.71349e-09
-2.37495e-10
-1.21516e-06
2.25426e-09
-2.96534e-10
-1.37827e-06
2.63112e-09
-3.5293e-10
-1.54441e-06
2.85652e-09
-4.018e-10
-1.71613e-06
2.94255e-09
-4.42489e-10
-1.89417e-06
2.89955e-09
-4.75441e-10
-2.07891e-06
-5.01532e-10
-2.27057e-06
2.72755e-09
8.67914e-10
-1.8532e-09
-1.03586e-06
1.49217e-09
-1.78366e-09
-1.21495e-06
1.95323e-09
-1.78035e-09
-1.37802e-06
2.26939e-09
-1.78895e-09
-1.54412e-06
2.45563e-09
-1.79714e-09
-1.71578e-06
2.52525e-09
-1.80133e-09
-1.89377e-06
2.48928e-09
-1.80009e-09
-2.07844e-06
-1.79172e-09
-2.27003e-06
2.34819e-09
6.32937e-10
-1.03544e-06
-3.16153e-09
1.06343e-09
-1.21445e-06
-3.00253e-09
1.36007e-09
-1.37743e-06
-2.94109e-09
1.54026e-09
-1.54342e-06
-2.90043e-09
1.62238e-09
-1.71496e-06
-2.8646e-09
1.62422e-09
-1.8928e-06
-2.82802e-09
1.56162e-09
-2.07731e-06
-2.78812e-09
-2.26873e-06
-2.74447e-09
1.44339e-09
2.07441e-10
5.43919e-09
-1.03348e-06
-6.01403e-09
3.30336e-10
5.06038e-09
-1.21218e-06
-5.60951e-09
4.0445e-10
4.8278e-09
-1.37485e-06
-5.36551e-09
4.37454e-10
4.6472e-09
-1.54053e-06
-5.17533e-09
4.38357e-10
4.49422e-09
-1.71174e-06
-5.01294e-09
4.16794e-10
4.35822e-09
-1.88925e-06
-4.86719e-09
3.819e-10
4.23226e-09
-2.07343e-06
-4.73071e-09
4.10956e-09
-2.26451e-06
-4.59901e-09
3.4149e-10
5.29058e-10
4.38646e-09
-1.03427e-06
9.18565e-10
4.06636e-09
-1.21311e-06
1.21251e-09
3.8589e-09
-1.37594e-06
1.42256e-09
3.69282e-09
-1.54179e-06
1.55539e-09
3.55026e-09
-1.71319e-06
1.61633e-09
3.42301e-09
-1.89092e-06
1.60971e-09
3.30548e-09
-2.07534e-06
3.19343e-09
-2.26668e-06
1.53336e-09
7.38607e-10
3.02163e-09
-1.03488e-06
1.29549e-09
2.78362e-09
-1.21382e-06
1.72037e-09
2.61899e-09
-1.37675e-06
2.02485e-09
2.48409e-09
-1.54272e-06
2.21519e-09
2.36797e-09
-1.71425e-06
2.29638e-09
2.26502e-09
-1.89212e-06
2.27257e-09
2.17129e-09
-2.07668e-06
2.08317e-09
-2.26816e-06
2.14343e-09
8.51003e-10
1.49178e-09
-1.03525e-06
1.49781e-09
1.34895e-09
-1.21425e-06
1.99373e-09
1.23675e-09
-1.37725e-06
2.35138e-09
1.14112e-09
-1.54329e-06
2.57698e-09
1.05904e-09
-1.7149e-06
2.67611e-09
9.86514e-10
-1.89284e-06
2.65244e-09
9.22229e-10
-2.07748e-06
8.63712e-10
-2.26905e-06
2.50463e-09
8.57858e-10
-4.58249e-11
-1.03537e-06
1.50759e-09
-8.84998e-11
-1.21439e-06
2.00303e-09
-1.43625e-10
-1.3774e-06
2.35717e-09
-1.94817e-10
-1.54345e-06
2.57796e-09
-2.38839e-10
-1.71507e-06
2.67096e-09
-2.75789e-10
-1.89303e-06
2.64144e-09
-3.06365e-10
-2.07768e-06
-3.3142e-10
-2.26926e-06
2.48859e-09
7.68224e-10
-1.446e-09
-1.03525e-06
1.345e-09
-1.39604e-09
-1.21424e-06
1.78077e-09
-1.39723e-09
-1.37723e-06
2.08927e-09
-1.40651e-09
-1.54324e-06
2.27951e-09
-1.41453e-09
-1.71482e-06
2.35893e-09
-1.4189e-09
-1.89273e-06
2.33354e-09
-1.41886e-09
-2.07733e-06
-1.41336e-09
-2.26886e-06
2.2026e-09
5.88315e-10
-1.03492e-06
-2.5786e-09
1.01736e-09
-1.21385e-06
-2.44995e-09
1.32847e-09
-1.37676e-06
-2.40038e-09
1.53502e-09
-1.54269e-06
-2.36698e-09
1.64831e-09
-1.71417e-06
-2.33642e-09
1.67905e-09
-1.89198e-06
-2.30475e-09
1.63679e-09
-2.07645e-06
-2.27021e-09
-2.26784e-06
-2.23238e-09
1.52637e-09
1.84254e-10
4.60111e-09
-1.03319e-06
-5.08065e-09
3.15235e-10
4.28376e-09
-1.21185e-06
-4.73856e-09
4.01468e-10
4.08573e-09
-1.37449e-06
-4.53047e-09
4.50646e-10
3.93041e-09
-1.54014e-06
-4.36657e-09
4.6839e-10
3.79796e-09
-1.71133e-06
-4.22543e-09
4.60761e-10
3.67992e-09
-1.88882e-06
-4.09813e-09
4.34025e-10
3.57076e-09
-2.07299e-06
-3.97896e-09
3.46507e-09
-2.26407e-06
-3.86411e-09
3.94392e-10
4.43633e-10
3.74009e-09
-1.03386e-06
7.86938e-10
3.46907e-09
-1.21263e-06
1.0483e-09
3.29217e-09
-1.3754e-06
1.23739e-09
3.15004e-09
-1.54119e-06
1.35808e-09
3.02785e-09
-1.71254e-06
1.41328e-09
2.91884e-09
-1.89022e-06
1.40567e-09
2.81841e-09
-2.07458e-06
2.72279e-09
-2.26586e-06
1.33488e-09
6.17875e-10
2.61536e-09
-1.03437e-06
1.10119e-09
2.41033e-09
-1.21323e-06
1.4728e-09
2.26848e-09
-1.37609e-06
1.7423e-09
2.15228e-09
-1.54199e-06
1.91312e-09
2.05225e-09
-1.71344e-06
1.98781e-09
1.96362e-09
-1.89124e-06
1.96871e-09
1.88294e-09
-2.07572e-06
1.80711e-09
-2.26713e-06
1.85645e-09
7.15619e-10
1.34626e-09
-1.0347e-06
1.2767e-09
1.21932e-09
-1.21361e-06
1.70947e-09
1.12075e-09
-1.37653e-06
2.02437e-09
1.03746e-09
-1.54248e-06
2.22513e-09
9.65665e-10
-1.714e-06
2.31441e-09
9.02697e-10
-1.89187e-06
2.2944e-09
8.46396e-10
-2.07642e-06
7.94952e-10
-2.26791e-06
2.16489e-09
7.30278e-10
6.02847e-11
-1.03481e-06
1.3013e-09
1.56206e-11
-1.21375e-06
1.73953e-09
-3.52595e-11
-1.37668e-06
2.05633e-09
-8.12272e-11
-1.54265e-06
2.25634e-09
-1.20532e-10
-1.71418e-06
2.34286e-09
-1.53705e-10
-1.89206e-06
2.31869e-09
-1.81688e-10
-2.07663e-06
-2.05361e-10
-2.26812e-06
2.18422e-09
6.67691e-10
-1.12686e-09
-1.03473e-06
1.18672e-09
-1.09218e-09
-1.21364e-06
1.58195e-09
-1.09649e-09
-1.37655e-06
1.86555e-09
-1.10588e-09
-1.54249e-06
2.04332e-09
-1.11341e-09
-1.714e-06
2.11966e-09
-1.11764e-09
-1.89184e-06
2.09814e-09
-1.1183e-09
-2.07637e-06
-1.11487e-09
-2.26783e-06
1.97905e-09
5.32009e-10
-1.03447e-06
-2.10849e-09
9.39662e-10
-1.21333e-06
-2.00465e-09
1.24128e-09
-1.37619e-06
-1.96466e-09
1.44919e-09
-1.54206e-06
-1.93707e-09
1.57091e-09
-1.71349e-06
-1.911e-09
1.61311e-09
-1.89125e-06
-1.88357e-09
1.58173e-09
-2.07568e-06
-1.85363e-09
-2.26704e-06
-1.82087e-09
1.48085e-09
1.60885e-10
3.89845e-09
-1.03295e-06
-4.3002e-09
2.85863e-10
3.63196e-09
-1.21157e-06
-4.01007e-09
3.69544e-10
3.4631e-09
-1.37418e-06
-3.8326e-09
4.19968e-10
3.32958e-09
-1.5398e-06
-3.69164e-09
4.41478e-10
3.21505e-09
-1.71097e-06
-3.56947e-09
4.38416e-10
3.11276e-09
-1.88846e-06
-3.45876e-09
4.15769e-10
3.01831e-09
-2.07262e-06
-3.35515e-09
2.92738e-09
-2.26369e-06
-3.25561e-09
3.7928e-10
3.71238e-10
3.19008e-09
-1.0335e-06
6.66455e-10
2.96074e-09
-1.21223e-06
8.90246e-10
2.80986e-09
-1.37494e-06
1.05177e-09
2.68813e-09
-1.54069e-06
1.15388e-09
2.58331e-09
-1.71199e-06
1.19875e-09
2.48986e-09
-1.88962e-06
1.18868e-09
2.40404e-09
-2.07393e-06
2.32263e-09
-2.26518e-06
1.12514e-09
5.1476e-10
2.26054e-09
-1.03394e-06
9.26138e-10
2.08474e-09
-1.21274e-06
1.24174e-09
1.96271e-09
-1.37554e-06
1.47054e-09
1.86266e-09
-1.54136e-06
1.61507e-09
1.77649e-09
-1.71276e-06
1.67715e-09
1.70019e-09
-1.89049e-06
1.65884e-09
1.63084e-09
-2.07491e-06
1.56578e-09
-2.26626e-06
1.56236e-09
5.97365e-10
1.20732e-09
-1.03422e-06
1.07506e-09
1.095e-09
-1.21307e-06
1.44266e-09
1.00851e-09
-1.37591e-06
1.70958e-09
9.36205e-10
-1.54179e-06
1.87881e-09
8.73696e-10
-1.71324e-06
1.95219e-09
8.19031e-10
-1.89103e-06
1.9318e-09
7.70017e-10
-2.07552e-06
7.24659e-10
-2.26693e-06
1.81976e-09
6.1637e-10
1.29765e-10
-1.03433e-06
1.10818e-09
8.56737e-11
-1.21319e-06
1.4848e-09
3.93439e-11
-1.37605e-06
1.75718e-09
-1.62104e-12
-1.54195e-06
1.92846e-09
-3.64347e-11
-1.71342e-06
2.00129e-09
-6.59756e-11
-1.89122e-06
1.9782e-09
-9.13299e-11
-2.07572e-06
-1.13408e-10
-2.26714e-06
1.86141e-09
5.74579e-10
-8.77251e-10
-1.03428e-06
1.03122e-09
-8.54466e-10
-1.21312e-06
1.37852e-09
-8.60849e-10
-1.37597e-06
1.62804e-09
-8.69999e-10
-1.54184e-06
1.78419e-09
-8.76897e-10
-1.71329e-06
1.85025e-09
-8.8083e-10
-1.89106e-06
1.82915e-09
-8.81899e-10
-2.07553e-06
-8.79984e-10
-2.26693e-06
1.72322e-09
4.74562e-10
-1.03407e-06
-1.72859e-09
8.48187e-10
-1.21288e-06
-1.64526e-09
1.12597e-09
-1.37568e-06
-1.61315e-09
1.31992e-09
-1.54151e-06
-1.59025e-09
1.43584e-09
-1.71289e-06
-1.56794e-09
1.47848e-09
-1.8906e-06
-1.54412e-09
1.45248e-09
-2.07499e-06
-1.51813e-09
-2.26631e-06
-1.48979e-09
1.36236e-09
1.40295e-10
3.3104e-09
-1.03274e-06
-3.64735e-09
2.49989e-10
3.08508e-09
-1.21133e-06
-3.40101e-09
3.22738e-10
2.94055e-09
-1.37392e-06
-3.24927e-09
3.66154e-10
2.82562e-09
-1.53952e-06
-3.12802e-09
3.84038e-10
2.72661e-09
-1.71067e-06
-3.02237e-09
3.80406e-10
2.63806e-09
-1.88814e-06
-2.92654e-09
3.60116e-10
2.55646e-09
-2.07229e-06
-2.83672e-09
2.47831e-09
-2.26337e-06
-2.75067e-09
3.27754e-10
3.1174e-10
2.72316e-09
-1.03321e-06
5.59407e-10
2.52882e-09
-1.21188e-06
7.44821e-10
2.39991e-09
-1.37456e-06
8.76793e-10
2.29551e-09
-1.54026e-06
9.58117e-10
2.20548e-09
-1.71152e-06
9.9118e-10
2.12532e-09
-1.88911e-06
9.78651e-10
2.052e-09
-2.07339e-06
1.98281e-09
-2.2646e-06
9.22987e-10
4.29197e-10
1.95217e-09
-1.03358e-06
7.72631e-10
1.80192e-09
-1.21232e-06
1.03373e-09
1.69709e-09
-1.37506e-06
1.2211e-09
1.61094e-09
-1.54084e-06
1.33731e-09
1.5367e-09
-1.71217e-06
1.38455e-09
1.47101e-09
-1.88985e-06
1.36537e-09
1.41145e-09
-2.07422e-06
1.35579e-09
-2.26552e-06
1.28298e-09
4.97427e-10
1.07609e-09
-1.03382e-06
8.96658e-10
9.77633e-10
-1.2126e-06
1.20121e-09
9.02558e-10
-1.37539e-06
1.42013e-09
8.39655e-10
-1.54121e-06
1.55604e-09
7.85691e-10
-1.7126e-06
1.61148e-09
7.3806e-10
-1.89032e-06
1.58916e-09
6.95341e-10
-2.07474e-06
6.55763e-10
-2.2661e-06
1.49277e-09
5.17768e-10
1.73274e-10
-1.03392e-06
9.33206e-10
1.30504e-10
-1.21272e-06
1.24921e-09
8.87804e-11
-1.37552e-06
1.47561e-09
5.25425e-11
-1.54135e-06
1.61568e-09
2.18817e-11
-1.71276e-06
1.67201e-09
-4.25741e-12
-1.8905e-06
1.64787e-09
-2.70548e-11
-2.07493e-06
-4.74202e-11
-2.2663e-06
1.54719e-09
4.92194e-10
-6.82753e-10
-1.03388e-06
8.85247e-10
-6.68886e-10
-1.21267e-06
1.18245e-09
-6.76519e-10
-1.37546e-06
1.39443e-09
-6.85197e-10
-1.54128e-06
1.52509e-09
-6.91417e-10
-1.71267e-06
1.57771e-09
-6.94981e-10
-1.89039e-06
1.55562e-09
-6.96287e-10
-2.0748e-06
-6.95471e-10
-2.26615e-06
1.4627e-09
4.19804e-10
-1.03373e-06
-1.42192e-09
7.5195e-10
-1.21248e-06
-1.35512e-09
9.98179e-10
-1.37523e-06
-1.32938e-09
1.16988e-09
-1.54101e-06
-1.31024e-09
1.27211e-09
-1.71235e-06
-1.29102e-09
1.30926e-09
-1.89002e-06
-1.27028e-09
1.28553e-09
-2.07438e-06
-1.24764e-09
-2.26567e-06
-1.22306e-09
1.20602e-09
1.22561e-10
2.81808e-09
-1.03257e-06
-3.10138e-09
2.12576e-10
2.62606e-09
-1.21113e-06
-2.89167e-09
2.71309e-10
2.50173e-09
-1.37369e-06
-2.76202e-09
3.04355e-10
2.40251e-09
-1.53928e-06
-2.65727e-09
3.15731e-10
2.31676e-09
-1.71041e-06
-2.56574e-09
3.09096e-10
2.24004e-09
-1.88787e-06
-2.4827e-09
2.91222e-10
2.1696e-09
-2.07202e-06
-2.40494e-09
2.10238e-09
-2.26309e-06
-2.33065e-09
2.61462e-10
2.61996e-10
2.32772e-09
-1.03296e-06
4.65052e-10
2.16255e-09
-1.21159e-06
6.1431e-10
2.05205e-09
-1.37423e-06
7.17971e-10
1.96228e-09
-1.5399e-06
7.79204e-10
1.8848e-09
-1.71113e-06
8.00947e-10
1.81594e-09
-1.88869e-06
7.86598e-10
1.7533e-09
-2.07294e-06
1.69453e-09
-2.26412e-06
7.38233e-10
3.57544e-10
1.68618e-09
-1.03327e-06
6.39029e-10
1.55776e-09
-1.21196e-06
8.50055e-10
1.46758e-09
-1.37466e-06
9.98585e-10
1.3933e-09
-1.54039e-06
1.08769e-09
1.32925e-09
-1.71168e-06
1.12026e-09
1.27263e-09
-1.88931e-06
1.09954e-09
1.22147e-09
-2.07364e-06
1.17387e-09
-2.2649e-06
1.02864e-09
4.13242e-10
9.56392e-10
-1.03348e-06
7.41058e-10
8.70264e-10
-1.21221e-06
9.88031e-10
8.04864e-10
-1.37494e-06
1.16224e-09
7.50229e-10
-1.54071e-06
1.26679e-09
7.03271e-10
-1.71204e-06
1.30483e-09
6.61977e-10
-1.88972e-06
1.27997e-09
6.24792e-10
-2.07409e-06
5.90127e-10
-2.2654e-06
1.19637e-09
4.34016e-10
1.97883e-10
-1.03357e-06
7.79072e-10
1.57408e-10
-1.21231e-06
1.03881e-09
1.2011e-10
-1.37506e-06
1.22186e-09
8.82146e-11
-1.54084e-06
1.33174e-09
6.11773e-11
-1.71219e-06
1.37188e-09
3.79355e-11
-1.88988e-06
1.34589e-09
1.77563e-11
-2.07427e-06
-9.25056e-13
-2.26559e-06
1.25828e-09
4.20501e-10
-5.31906e-10
-1.03355e-06
7.52818e-10
-5.24223e-10
-1.21228e-06
1.00202e-09
-5.32388e-10
-1.37502e-06
1.17737e-09
-5.40431e-10
-1.54079e-06
1.28269e-09
-5.45979e-10
-1.71213e-06
1.32153e-09
-5.4918e-10
-1.88981e-06
1.29798e-09
-5.50605e-10
-2.07418e-06
-5.50578e-10
-2.26548e-06
1.21593e-09
3.69001e-10
-1.03342e-06
-1.17519e-09
6.57272e-10
-1.21213e-06
-1.121e-09
8.69613e-10
-1.37484e-06
-1.10011e-09
1.01624e-09
-1.54058e-06
-1.08395e-09
1.10197e-09
-1.71188e-06
-1.06725e-09
1.13115e-09
-1.88952e-06
-1.04907e-09
1.10798e-09
-2.07385e-06
-1.02924e-09
-2.2651e-06
-1.00778e-09
1.03711e-09
1.07717e-10
2.40512e-09
-1.03243e-06
-2.64467e-09
1.78596e-10
2.24044e-09
-1.21096e-06
-2.4658e-09
2.23613e-10
2.13284e-09
-1.37351e-06
-2.35437e-09
2.4627e-10
2.04677e-09
-1.53907e-06
-2.26351e-09
2.51566e-10
1.97222e-09
-1.71019e-06
-2.18385e-09
2.40905e-10
1.90548e-09
-1.88764e-06
-2.11166e-09
2.28319e-10
1.84477e-09
-2.07179e-06
-2.04385e-09
1.78654e-09
-2.26284e-06
-1.97988e-09
1.95989e-10
2.2002e-10
1.99356e-09
-1.03275e-06
3.83642e-10
1.85258e-09
-1.21135e-06
5.00883e-10
1.75744e-09
-1.37396e-06
5.79412e-10
1.67995e-09
-1.53959e-06
6.23004e-10
1.61308e-09
-1.71079e-06
6.34888e-10
1.5538e-09
-1.88833e-06
6.19614e-10
1.50034e-09
-2.07255e-06
1.45032e-09
-2.26371e-06
5.77176e-10
2.97171e-10
1.4584e-09
-1.03302e-06
5.24451e-10
1.34824e-09
-1.21166e-06
6.91592e-10
1.27038e-09
-1.37432e-06
8.05885e-10
1.20613e-09
-1.54001e-06
8.71018e-10
1.1507e-09
-1.71126e-06
8.90461e-10
1.10176e-09
-1.88886e-06
8.67935e-10
1.05768e-09
-2.07315e-06
1.01683e-09
-2.26437e-06
8.05172e-10
3.42731e-10
8.48953e-10
-1.03319e-06
6.08311e-10
7.73491e-10
-1.21187e-06
8.05095e-10
7.16486e-10
-1.37456e-06
9.40209e-10
6.68969e-10
-1.54028e-06
1.01723e-09
6.28144e-10
-1.71157e-06
1.03995e-09
5.92137e-10
-1.88921e-06
1.01243e-09
5.59511e-10
-2.07354e-06
5.29099e-10
-2.2648e-06
9.3805e-10
3.64229e-10
2.09008e-10
-1.03328e-06
6.47355e-10
1.72126e-10
-1.21196e-06
8.57745e-10
1.38811e-10
-1.37467e-06
1.00285e-09
1.10721e-10
-1.5404e-06
1.08632e-09
8.71825e-11
-1.71171e-06
1.11201e-09
6.68069e-11
-1.88935e-06
1.084e-09
4.83418e-11
-2.0737e-06
3.12356e-11
-2.26498e-06
1.00568e-09
3.59295e-10
-4.15085e-10
-1.03326e-06
6.37557e-10
-4.11382e-10
-1.21195e-06
8.43961e-10
-4.19528e-10
-1.37464e-06
9.86639e-10
-4.26852e-10
-1.54037e-06
1.06965e-09
-4.31736e-10
-1.71167e-06
1.09674e-09
-4.34594e-10
-1.8893e-06
1.07151e-09
-4.36097e-10
-2.07364e-06
-4.36645e-10
-2.26491e-06
9.97174e-10
3.23762e-10
-1.03316e-06
-9.76997e-10
5.70501e-10
-1.21183e-06
-9.31935e-10
7.50754e-10
-1.3745e-06
-9.14585e-10
8.73473e-10
-1.5402e-06
-9.00699e-10
9.4344e-10
-1.71147e-06
-8.86069e-10
9.64859e-10
-1.88908e-06
-8.7e-10
9.41477e-10
-2.07338e-06
-8.52466e-10
-2.26461e-06
-8.33529e-10
8.76286e-10
9.50332e-11
2.05851e-09
-1.03231e-06
-2.2627e-09
1.50692e-10
1.9163e-09
-1.21082e-06
-2.10931e-09
1.84663e-10
1.82259e-09
-1.37335e-06
-2.01256e-09
1.99166e-10
1.74735e-09
-1.53889e-06
-1.93324e-09
2.0107e-10
1.68224e-09
-1.71001e-06
-1.8634e-09
1.85714e-10
1.6237e-09
-1.88744e-06
-1.80039e-09
1.79733e-10
1.57208e-09
-2.0716e-06
-1.7402e-09
1.52066e-09
-2.26261e-06
-1.68527e-09
1.45568e-10
1.84638e-10
1.71193e-09
-1.03259e-06
3.15053e-10
1.59087e-09
-1.21115e-06
4.05555e-10
1.50846e-09
-1.37373e-06
4.63291e-10
1.44121e-09
-1.53934e-06
4.92822e-10
1.38333e-09
-1.71051e-06
4.96725e-10
1.33207e-09
-1.88802e-06
4.81355e-10
1.28697e-09
-2.07223e-06
1.24386e-09
-2.26336e-06
4.43545e-10
2.46474e-10
1.26484e-09
-1.03281e-06
4.28053e-10
1.16961e-09
-1.21141e-06
5.58466e-10
1.10187e-09
-1.37403e-06
6.44382e-10
1.04592e-09
-1.53968e-06
6.89962e-10
9.97683e-10
-1.7109e-06
6.98613e-10
9.55133e-10
-1.88846e-06
6.74859e-10
9.16977e-10
-2.07272e-06
8.8161e-10
-2.26391e-06
6.17137e-10
2.84278e-10
7.54492e-10
-1.03296e-06
4.97813e-10
6.87896e-10
-1.21159e-06
6.52936e-10
6.37756e-10
-1.37423e-06
7.55958e-10
5.96167e-10
-1.53992e-06
8.10773e-10
5.6049e-10
-1.71117e-06
8.21311e-10
5.28969e-10
-1.88876e-06
7.91437e-10
5.00239e-10
-2.07306e-06
4.7317e-10
-2.26428e-06
7.23606e-10
3.06457e-10
2.13147e-10
-1.03303e-06
5.37996e-10
1.788e-10
-1.21167e-06
7.07488e-10
1.48929e-10
-1.37433e-06
8.21511e-10
1.24128e-10
-1.54002e-06
8.83965e-10
1.0346e-10
-1.71129e-06
8.98727e-10
8.53633e-11
-1.8889e-06
8.694e-10
6.85777e-11
-2.0732e-06
5.28905e-11
-2.26445e-06
7.97654e-10
3.08797e-10
-3.23798e-10
-1.03302e-06
5.41458e-10
-3.2294e-10
-1.21166e-06
7.12218e-10
-3.30848e-10
-1.37432e-06
8.2823e-10
-3.37479e-10
-1.54001e-06
8.93649e-10
-3.41803e-10
-1.71126e-06
9.12031e-10
-3.44378e-10
-1.88887e-06
8.86015e-10
-3.4591e-10
-2.07317e-06
-3.46829e-10
-2.2644e-06
8.17266e-10
2.85286e-10
-1.03294e-06
-8.17161e-10
4.9604e-10
-1.21156e-06
-7.78687e-10
6.48717e-10
-1.3742e-06
-7.63869e-10
7.51339e-10
-1.53987e-06
-7.51731e-10
8.08587e-10
-1.71111e-06
-7.3879e-10
8.24295e-10
-1.88869e-06
-7.24498e-10
8.01206e-10
-2.07296e-06
-7.08884e-10
-2.26416e-06
-6.92033e-10
7.40179e-10
8.46514e-11
1.76805e-09
-1.94317e-09
-1.03222e-06
1.29158e-10
1.64402e-09
-1.81001e-09
-1.21071e-06
1.56766e-10
1.56157e-09
-1.72582e-09
-1.37321e-06
1.67661e-10
1.49487e-09
-1.65641e-09
-1.53874e-06
1.75437e-10
1.438e-09
-1.59462e-09
-1.70985e-06
1.52271e-10
1.38403e-09
-1.54124e-09
-1.88724e-06
1.31276e-10
1.34409e-09
-1.48414e-09
-2.07142e-06
1.29786e-09
-1.43708e-09
1.41182e-10
-2.26245e-06
1.54335e-10
1.47573e-09
-1.03245e-06
2.57181e-10
1.37072e-09
-1.21098e-06
3.26448e-10
1.29877e-09
-1.37353e-06
3.68064e-10
1.23999e-09
-1.53911e-06
3.88179e-10
1.18995e-09
-1.71027e-06
3.85788e-10
1.14478e-09
-1.88776e-06
3.73024e-10
1.10867e-09
-2.07195e-06
1.06847e-09
3.45518e-10
-2.26307e-06
2.04113e-10
1.1017e-09
-1.03264e-06