/*--------------------------------*- C++ -*----------------------------------*\
| =========                 |                                                 |
| \\      /  F ield         | OpenFOAM: The Open Source CFD Toolbox           |
|  \\    /   O peration     | Version:  plus.master.MPPICInterFoam            |
|   \\  /    A nd           | Web:      www.OpenFOAM.com                      |
|    \\/     M anipulation  |                                                 |
\*---------------------------------------------------------------------------*/
FoamFile
{
    version     2.0;
    format      ascii;
    class       volVectorField;
    location    "2.6";
    object      U;
}
// * * * * * * * * * * * * * * * * * * * * * * * * * * * * * * * * * * * * * //

dimensions      [0 1 -1 0 0 0 0];

internalField   nonuniform List<vector> 
11821
(
(0.00019369 0.000248997 -0.021689)
(0.000170968 0.00023544 -0.0222359)
(0.000152686 0.000229425 -0.0222993)
(0.000137131 0.000225177 -0.0222999)
(0.000124292 0.000220787 -0.0222856)
(0.000114272 0.000215258 -0.0222674)
(0.000107183 0.000208127 -0.0222484)
(0.000102845 0.000199078 -0.0222299)
(0.000118168 0.000233046 -0.0217418)
(0.000108171 0.000213828 -0.0222906)
(9.81066e-05 0.000203219 -0.0223562)
(8.84146e-05 0.000195626 -0.0223596)
(7.97662e-05 0.000189352 -0.0223487)
(7.28494e-05 0.000183451 -0.0223343)
(6.80184e-05 0.000177305 -0.0223192)
(6.52854e-05 0.000170587 -0.0223047)
(4.79824e-05 0.000171691 -0.0217757)
(4.73138e-05 0.000155557 -0.0223253)
(4.21826e-05 0.000145166 -0.0223912)
(3.53818e-05 0.000136943 -0.0223948)
(2.82636e-05 0.000129902 -0.022384)
(2.20737e-05 0.000123456 -0.0223696)
(1.74475e-05 0.000117286 -0.0223543)
(1.46943e-05 0.000111157 -0.0223394)
(9.88667e-06 8.81218e-05 -0.0217925)
(1.44588e-05 7.92248e-05 -0.0223424)
(1.27063e-05 7.23091e-05 -0.0224084)
(8.49605e-06 6.63849e-05 -0.0224122)
(3.29661e-06 6.12406e-05 -0.0224016)
(-1.3714e-06 5.67291e-05 -0.0223872)
(-4.67442e-06 5.2746e-05 -0.0223721)
(-6.29086e-06 4.91993e-05 -0.0223572)
(9.2037e-06 -4.98029e-07 -0.0217921)
(1.30262e-05 -1.47197e-06 -0.0223417)
(1.10918e-05 -4.40863e-06 -0.0224074)
(6.89554e-06 -7.67367e-06 -0.0224107)
(1.9205e-06 -1.06726e-05 -0.0223996)
(-2.44724e-06 -1.31057e-05 -0.0223847)
(-5.43409e-06 -1.48524e-05 -0.022369)
(-6.65158e-06 -1.58487e-05 -0.0223538)
(4.28461e-05 -7.50794e-05 -0.0217759)
(4.14842e-05 -7.0638e-05 -0.0223248)
(3.71248e-05 -7.12891e-05 -0.0223899)
(3.18327e-05 -7.31823e-05 -0.0223927)
(2.66402e-05 -7.51381e-05 -0.022381)
(2.24389e-05 -7.65199e-05 -0.0223656)
(1.98626e-05 -7.68924e-05 -0.0223495)
(1.90999e-05 -7.61002e-05 -0.0223339)
(9.40297e-05 -0.00011803 -0.0217453)
(8.38858e-05 -0.00011368 -0.0222926)
(7.43154e-05 -0.000114969 -0.0223562)
(6.5334e-05 -0.000117219 -0.0223569)
(5.75381e-05 -0.000118934 -0.0223428)
(5.15222e-05 -0.000119208 -0.0223248)
(4.76345e-05 -0.000117569 -0.0223059)
(4.59808e-05 -0.000113831 -0.0222876)
(0.000164538 0.000207971 -0.0216412)
(0.000147787 0.000194399 -0.0221887)
(0.000134703 0.0001874 -0.0222549)
(0.000123521 0.000182229 -0.0222595)
(0.000114031 0.00017746 -0.0222504)
(0.000106287 0.000172313 -0.0222381)
(0.000100303 0.000166353 -0.0222253)
(9.6002e-05 0.000159337 -0.022213)
(0.000101506 0.000196453 -0.0216855)
(9.57313e-05 0.00017891 -0.0222346)
(8.96955e-05 0.000168675 -0.0223026)
(8.35516e-05 0.000161161 -0.0223095)
(7.76276e-05 0.000155087 -0.0223032)
(7.24204e-05 0.000149679 -0.0222939)
(6.82769e-05 0.000144405 -0.0222842)
(6.52177e-05 0.000138992 -0.0222751)
(4.32368e-05 0.000148016 -0.0217151)
(4.56915e-05 0.00013344 -0.0222649)
(4.41992e-05 0.000123884 -0.0223332)
(4.08836e-05 0.000116313 -0.0223405)
(3.65639e-05 0.000109956 -0.0223344)
(3.21882e-05 0.000104327 -0.0223252)
(2.83299e-05 9.9112e-05 -0.0223156)
(2.52523e-05 9.40905e-05 -0.0223063)
(1.05004e-05 7.95196e-05 -0.0217304)
(1.76364e-05 7.1597e-05 -0.0222805)
(1.91731e-05 6.5484e-05 -0.022349)
(1.81392e-05 6.02658e-05 -0.0223564)
(1.5537e-05 5.57324e-05 -0.0223505)
(1.24805e-05 5.17518e-05 -0.0223415)
(9.66877e-06 4.82207e-05 -0.0223321)
(7.44987e-06 4.50546e-05 -0.022323)
(8.66575e-06 5.92319e-06 -0.0217312)
(1.53751e-05 5.37555e-06 -0.0222811)
(1.6856e-05 3.22793e-06 -0.0223492)
(1.59154e-05 7.61716e-07 -0.0223563)
(1.35149e-05 -1.66506e-06 -0.02235)
(1.07232e-05 -3.80991e-06 -0.0223406)
(8.21128e-06 -5.54652e-06 -0.0223307)
(6.30755e-06 -6.839e-06 -0.0223212)
(3.53126e-05 -5.63957e-05 -0.0217185)
(3.76e-05 -5.1597e-05 -0.0222678)
(3.69319e-05 -5.10852e-05 -0.0223355)
(3.48641e-05 -5.18107e-05 -0.022342)
(3.2069e-05 -5.29409e-05 -0.0223352)
(2.93295e-05 -5.39203e-05 -0.0223252)
(2.7131e-05 -5.44283e-05 -0.0223149)
(2.57593e-05 -5.42842e-05 -0.022305)
(7.75849e-05 -9.30478e-05 -0.0216938)
(7.23552e-05 -8.7403e-05 -0.0222419)
(6.71545e-05 -8.66711e-05 -0.0223084)
(6.19157e-05 -8.71155e-05 -0.0223133)
(5.69209e-05 -8.76378e-05 -0.0223046)
(5.26651e-05 -8.75351e-05 -0.0222925)
(4.94443e-05 -8.64277e-05 -0.02228)
(4.73812e-05 -8.41362e-05 -0.022268)
(0.00013941 0.00017393 -0.0216087)
(0.000126866 0.000161124 -0.0221566)
(0.00011728 0.000154008 -0.0222245)
(0.000109061 0.000148629 -0.0222317)
(0.000101901 0.000143911 -0.0222259)
(9.5816e-05 0.00013924 -0.0222174)
(9.07957e-05 0.000134253 -0.0222085)
(8.67832e-05 0.000128728 -0.0222002)
(8.68001e-05 0.000165755 -0.0216456)
(8.35312e-05 0.000150113 -0.0221949)
(7.99066e-05 0.000140666 -0.0222642)
(7.59473e-05 0.000133614 -0.0222733)
(7.18019e-05 0.000127957 -0.0222697)
(6.78422e-05 0.000123065 -0.0222635)
(6.42855e-05 0.000118532 -0.0222572)
(6.11724e-05 0.000114118 -0.0222513)
(3.82987e-05 0.000127374 -0.0216711)
(4.22143e-05 0.000114445 -0.022221)
(4.27038e-05 0.000105872 -0.0222907)
(4.13982e-05 9.90835e-05 -0.0223002)
(3.88208e-05 9.34475e-05 -0.0222969)
(3.56965e-05 8.85544e-05 -0.022291)
(3.24924e-05 8.41275e-05 -0.0222848)
(2.94477e-05 7.99901e-05 -0.022279)
(1.01973e-05 7.12234e-05 -0.0216849)
(1.82554e-05 6.42157e-05 -0.022235)
(2.14362e-05 5.88398e-05 -0.0223049)
(2.21421e-05 5.42625e-05 -0.0223145)
(2.10643e-05 5.02868e-05 -0.0223115)
(1.90691e-05 4.67901e-05 -0.0223057)
(1.67266e-05 4.36769e-05 -0.0222998)
(1.43364e-05 4.08696e-05 -0.0222941)
(7.59578e-06 1.01559e-05 -0.0216865)
(1.54769e-05 9.77368e-06 -0.0222364)
(1.87088e-05 8.11374e-06 -0.0223061)
(1.95663e-05 6.15473e-06 -0.0223155)
(1.8704e-05 4.13776e-06 -0.0223121)
(1.69631e-05 2.24894e-06 -0.022306)
(1.49035e-05 5.88607e-07 -0.0222997)
(1.2826e-05 -8.08832e-07 -0.0222937)
(2.87419e-05 -4.19278e-05 -0.0216767)
(3.29341e-05 -3.73282e-05 -0.0222262)
(3.42849e-05 -3.62751e-05 -0.0222954)
(3.40857e-05 -3.63708e-05 -0.0223043)
(3.27908e-05 -3.70001e-05 -0.0223004)
(3.10317e-05 -3.77228e-05 -0.0222939)
(2.92226e-05 -3.82784e-05 -0.0222871)
(2.75753e-05 -3.85395e-05 -0.0222807)
(6.36425e-05 -7.33567e-05 -0.021657)
(6.15206e-05 -6.7306e-05 -0.0222056)
(5.90562e-05 -6.55467e-05 -0.0222738)
(5.61474e-05 -6.50217e-05 -0.0222815)
(5.29778e-05 -6.48939e-05 -0.0222761)
(4.9944e-05 -6.46168e-05 -0.0222679)
(4.7292e-05 -6.38873e-05 -0.0222594)
(4.51373e-05 -6.25568e-05 -0.0222514)
(0.000117926 0.00014573 -0.0215864)
(0.000108409 0.000134061 -0.0221345)
(0.00010127 0.00012726 -0.0222035)
(9.50859e-05 0.000122072 -0.0222124)
(8.95668e-05 0.000117637 -0.0222087)
(8.47039e-05 0.000113467 -0.0222025)
(8.04745e-05 0.000109265 -0.0221962)
(7.68303e-05 0.000104847 -0.0221903)
(7.40139e-05 0.000140005 -0.0216172)
(7.22327e-05 0.000126297 -0.0221664)
(7.00524e-05 0.000117791 -0.0222365)
(6.74443e-05 0.000111369 -0.0222469)
(6.44525e-05 0.000106235 -0.0222449)
(6.13516e-05 0.00010188 -0.0222406)
(5.83089e-05 9.797e-05 -0.0222362)
(5.53615e-05 9.43038e-05 -0.0222323)
(3.35294e-05 0.000109476 -0.0216391)
(3.7942e-05 9.81548e-05 -0.0221888)
(3.94207e-05 9.05797e-05 -0.0222593)
(3.9236e-05 8.45803e-05 -0.0222701)
(3.7727e-05 7.96333e-05 -0.0222684)
(3.54545e-05 7.53934e-05 -0.0222645)
(3.27944e-05 7.1625e-05 -0.0222604)
(2.99471e-05 6.81715e-05 -0.0222566)
(9.41773e-06 6.3454e-05 -0.0216513)
(1.74661e-05 5.7274e-05 -0.0222012)
(2.13108e-05 5.25611e-05 -0.022272)
(2.28864e-05 4.85597e-05 -0.0222829)
(2.26754e-05 4.50856e-05 -0.0222814)
(2.13659e-05 4.20269e-05 -0.0222776)
(1.94235e-05 3.92957e-05 -0.0222738)
(1.7105e-05 3.68224e-05 -0.0222702)
(6.39395e-06 1.27865e-05 -0.0216533)
(1.44567e-05 1.24258e-05 -0.0222032)
(1.84487e-05 1.1072e-05 -0.0222738)
(2.02244e-05 9.46053e-06 -0.0222845)
(2.02471e-05 7.75309e-06 -0.0222828)
(1.91891e-05 6.08921e-06 -0.0222787)
(1.75166e-05 4.54515e-06 -0.0222745)
(1.54897e-05 3.14896e-06 -0.0222707)
(2.31948e-05 -3.08412e-05 -0.0216459)
(2.82246e-05 -2.66723e-05 -0.0221954)
(3.06134e-05 -2.54315e-05 -0.0222656)
(3.14482e-05 -2.52086e-05 -0.0222759)
(3.10416e-05 -2.55509e-05 -0.0222738)
(2.99079e-05 -2.61138e-05 -0.0222693)
(2.84007e-05 -2.66907e-05 -0.0222647)
(2.67025e-05 -2.71785e-05 -0.0222606)
(5.20264e-05 -5.78081e-05 -0.0216303)
(5.18389e-05 -5.19335e-05 -0.022179)
(5.10424e-05 -4.97156e-05 -0.0222485)
(4.961e-05 -4.86884e-05 -0.0222578)
(4.76432e-05 -4.82166e-05 -0.0222545)
(4.54621e-05 -4.78715e-05 -0.0222487)
(4.32864e-05 -4.74018e-05 -0.0222428)
(4.12238e-05 -4.66816e-05 -0.0222374)
(9.97266e-05 0.000122351 -0.0215709)
(9.2356e-05 0.000111981 -0.0221191)
(8.69187e-05 0.000105734 -0.0221888)
(8.21731e-05 0.000100921 -0.0221987)
(7.78352e-05 9.68714e-05 -0.0221963)
(7.38952e-05 9.31868e-05 -0.0221916)
(7.03302e-05 8.96243e-05 -0.0221869)
(6.70838e-05 8.604e-05 -0.0221826)
(6.29901e-05 0.000118418 -0.0215967)
(6.20421e-05 0.000106538 -0.0221457)
(6.07239e-05 9.90162e-05 -0.0222163)
(5.89562e-05 9.32835e-05 -0.0222274)
(5.67229e-05 8.87022e-05 -0.0222263)
(5.42355e-05 8.48642e-05 -0.0222231)
(5.16258e-05 8.14874e-05 -0.0222199)
(4.89288e-05 7.84041e-05 -0.0222171)
(2.90982e-05 9.40376e-05 -0.0216154)
(3.34548e-05 8.42137e-05 -0.0221649)
(3.53403e-05 7.75903e-05 -0.0222358)
(3.57386e-05 7.23409e-05 -0.0222473)
(3.4872e-05 6.80304e-05 -0.0222466)
(3.31798e-05 6.43694e-05 -0.0222437)
(3.09643e-05 6.11571e-05 -0.0222408)
(2.83916e-05 5.82566e-05 -0.0222383)
(8.42598e-06 5.62861e-05 -0.0216261)
(1.59535e-05 5.0848e-05 -0.0221759)
(1.9906e-05 4.67247e-05 -0.022247)
(2.18392e-05 4.32335e-05 -0.0222586)
(2.20973e-05 4.02044e-05 -0.0222581)
(2.12319e-05 3.75348e-05 -0.0222554)
(1.96234e-05 3.51448e-05 -0.0222526)
(1.74898e-05 3.29713e-05 -0.0222503)
(5.18837e-06 1.42135e-05 -0.0216285)
(1.28826e-05 1.38093e-05 -0.0221781)
(1.70563e-05 1.26551e-05 -0.0222491)
(1.92225e-05 1.12908e-05 -0.0222606)
(1.97196e-05 9.82154e-06 -0.0222599)
(1.90925e-05 8.34975e-06 -0.022257)
(1.77293e-05 6.93169e-06 -0.0222541)
(1.58512e-05 5.58739e-06 -0.0222515)
(1.85673e-05 -2.24085e-05 -0.0216229)
(2.38064e-05 -1.87628e-05 -0.0221723)
(2.66441e-05 -1.75215e-05 -0.022243)
(2.80013e-05 -1.71596e-05 -0.0222541)
(2.81021e-05 -1.73432e-05 -0.0222531)
(2.73727e-05 -1.78032e-05 -0.0222498)
(2.61152e-05 -1.83735e-05 -0.0222465)
(2.4491e-05 -1.89704e-05 -0.0222437)
(4.2477e-05 -4.56088e-05 -0.0216106)
(4.34014e-05 -4.01656e-05 -0.0221593)
(4.36012e-05 -3.783e-05 -0.0222294)
(4.30744e-05 -3.65796e-05 -0.0222398)
(4.18838e-05 -3.5951e-05 -0.0222378)
(4.02978e-05 -3.55953e-05 -0.0222336)
(3.85111e-05 -3.53007e-05 -0.0222293)
(3.66339e-05 -3.49541e-05 -0.0222254)
(8.43014e-05 0.000102963 -0.0215599)
(7.84914e-05 9.39018e-05 -0.0221081)
(7.4275e-05 8.82908e-05 -0.0221783)
(7.05604e-05 8.39367e-05 -0.0221888)
(6.70992e-05 8.02994e-05 -0.0221872)
(6.3864e-05 7.70693e-05 -0.0221834)
(6.08378e-05 7.40456e-05 -0.0221797)
(5.79832e-05 7.10993e-05 -0.0221765)
(5.34836e-05 0.000100293 -0.0215815)
(5.29969e-05 9.00953e-05 -0.0221303)
(5.21947e-05 8.35258e-05 -0.0222012)
(5.09525e-05 7.84786e-05 -0.0222126)
(4.92303e-05 7.44402e-05 -0.022212)
(4.71913e-05 7.10782e-05 -0.0222094)
(4.49463e-05 6.81649e-05 -0.0222069)
(4.25297e-05 6.55532e-05 -0.0222048)
(2.50362e-05 8.07601e-05 -0.0215975)
(2.90562e-05 7.22881e-05 -0.0221467)
(3.1024e-05 6.65368e-05 -0.0222178)
(3.16871e-05 6.19739e-05 -0.0222296)
(3.11979e-05 5.82351e-05 -0.0222294)
(2.99046e-05 5.5078e-05 -0.0222271)
(2.8052e-05 5.23322e-05 -0.0222249)
(2.57794e-05 4.98777e-05 -0.0222231)
(7.31697e-06 4.97526e-05 -0.0216069)
(1.40873e-05 4.49716e-05 -0.0221564)
(1.78511e-05 4.13686e-05 -0.0222276)
(1.98449e-05 3.83266e-05 -0.0222396)
(2.03246e-05 3.56896e-05 -0.0222395)
(1.97362e-05 3.33638e-05 -0.0222374)
(1.83921e-05 3.12761e-05 -0.0222354)
(1.6477e-05 2.93691e-05 -0.0222337)
(4.05017e-06 1.47718e-05 -0.0216094)
(1.10955e-05 1.4298e-05 -0.0221588)
(1.51286e-05 1.32803e-05 -0.02223)
(1.73745e-05 1.21003e-05 -0.0222419)
(1.8093e-05 1.08226e-05 -0.0222417)
(1.77308e-05 9.51999e-06 -0.0222394)
(1.66103e-05 8.23238e-06 -0.0222372)
(1.49209e-05 6.97296e-06 -0.0222354)
(1.47371e-05 -1.60528e-05 -0.0216053)
(1.98181e-05 -1.29434e-05 -0.0221545)
(2.27628e-05 -1.17929e-05 -0.0222255)
(2.43339e-05 -1.13934e-05 -0.022237)
(2.47042e-05 -1.14954e-05 -0.0222365)
(2.42314e-05 -1.18881e-05 -0.022234)
(2.31734e-05 -1.24394e-05 -0.0222315)
(2.1675e-05 -1.30806e-05 -0.0222294)
(3.46408e-05 -3.60735e-05 -0.0215955)
(3.61593e-05 -3.11731e-05 -0.0221442)
(3.69242e-05 -2.8893e-05 -0.0222148)
(3.69402e-05 -2.75925e-05 -0.0222257)
(3.62481e-05 -2.69135e-05 -0.0222246)
(3.50777e-05 -2.65744e-05 -0.0222212)
(3.36006e-05 -2.63999e-05 -0.0222179)
(3.19179e-05 -2.6291e-05 -0.0222151)
(7.12346e-05 8.68384e-05 -0.0215517)
(6.65988e-05 7.901e-05 -0.0220999)
(6.32793e-05 7.40464e-05 -0.0221703)
(6.03125e-05 7.01787e-05 -0.0221813)
(5.74978e-05 6.69627e-05 -0.0221801)
(5.4808e-05 6.4151e-05 -0.0221769)
(5.22307e-05 6.15793e-05 -0.0221739)
(4.97432e-05 5.91341e-05 -0.0221713)
(4.53151e-05 8.5047e-05 -0.0215698)
(4.50843e-05 7.63588e-05 -0.0221185)
(4.45889e-05 7.06717e-05 -0.0221894)
(4.36744e-05 6.62742e-05 -0.0222011)
(4.23008e-05 6.2748e-05 -0.0222008)
(4.05993e-05 5.98235e-05 -0.0221985)
(3.86629e-05 5.73143e-05 -0.0221963)
(3.65289e-05 5.50934e-05 -0.0221946)
(2.13796e-05 6.9347e-05 -0.0215834)
(2.49472e-05 6.20749e-05 -0.0221325)
(2.6823e-05 5.71077e-05 -0.0222037)
(2.75628e-05 5.31622e-05 -0.0222156)
(2.72821e-05 4.99326e-05 -0.0222156)
(2.62613e-05 4.72154e-05 -0.0222136)
(2.47008e-05 4.48666e-05 -0.0222118)
(2.2721e-05 4.27822e-05 -0.0222103)
(6.19287e-06 4.38385e-05 -0.0215917)
(1.2133e-05 3.96412e-05 -0.0221409)
(1.55624e-05 3.64962e-05 -0.0222123)
(1.74504e-05 3.38489e-05 -0.0222243)
(1.80014e-05 3.15559e-05 -0.0222245)
(1.75801e-05 2.95322e-05 -0.0222227)
(1.64472e-05 2.77117e-05 -0.022221)
(1.47623e-05 2.60419e-05 -0.0222196)
(3.02173e-06 1.47095e-05 -0.0215942)
(9.30467e-06 1.41677e-05 -0.0221434)
(1.30288e-05 1.32496e-05 -0.0222147)
(1.51742e-05 1.22116e-05 -0.0222267)
(1.59566e-05 1.10894e-05 -0.0222268)
(1.57468e-05 9.9339e-06 -0.0222249)
(1.48121e-05 8.77112e-06 -0.0222231)
(1.33189e-05 7.60924e-06 -0.0222216)
(1.1589e-05 -1.12963e-05 -0.0215912)
(1.63216e-05 -8.69626e-06 -0.0221403)
(1.91769e-05 -7.67825e-06 -0.0222114)
(2.07739e-05 -7.29836e-06 -0.0222232)
(2.12617e-05 -7.3657e-06 -0.022223)
(2.09453e-05 -7.71491e-06 -0.0222208)
(2.00457e-05 -8.24137e-06 -0.0222187)
(1.86945e-05 -8.88756e-06 -0.0222171)
(2.82209e-05 -2.86167e-05 -0.0215836)
(3.00192e-05 -2.42901e-05 -0.0221322)
(3.10789e-05 -2.21588e-05 -0.022203)
(3.13978e-05 -2.09054e-05 -0.0222143)
(3.10149e-05 -2.02409e-05 -0.0222136)
(3.01307e-05 -1.99364e-05 -0.0222108)
(2.88964e-05 -1.98464e-05 -0.0222081)
(2.74049e-05 -1.98854e-05 -0.0222059)
(6.02166e-05 7.33789e-05 -0.0215452)
(5.64724e-05 6.66649e-05 -0.0220934)
(5.38172e-05 6.23257e-05 -0.0221639)
(5.13948e-05 5.89416e-05 -0.0221752)
(4.9062e-05 5.6135e-05 -0.0221744)
(4.6798e-05 5.37048e-05 -0.0221716)
(4.45948e-05 5.15167e-05 -0.022169)
(4.24397e-05 4.94732e-05 -0.0221668)
(3.83702e-05 7.2192e-05 -0.0215603)
(3.82721e-05 6.48291e-05 -0.0221089)
(3.79483e-05 5.994e-05 -0.02218)
(3.72304e-05 5.61425e-05 -0.0221917)
(3.60939e-05 5.309e-05 -0.0221916)
(3.46485e-05 5.05627e-05 -0.0221895)
(3.29743e-05 4.84077e-05 -0.0221875)
(3.11115e-05 4.65154e-05 -0.0221861)
(1.81813e-05 5.95218e-05 -0.021572)
(2.12662e-05 5.33102e-05 -0.0221208)
(2.29564e-05 4.90405e-05 -0.0221921)
(2.36595e-05 4.56452e-05 -0.0222041)
(2.34771e-05 4.28659e-05 -0.0222043)
(2.26399e-05 4.05329e-05 -0.0222024)
(2.13152e-05 3.85248e-05 -0.0222007)
(1.96106e-05 3.6751e-05 -0.0221995)
(5.16456e-06 3.85068e-05 -0.0215792)
(1.02801e-05 3.4834e-05 -0.0221282)
(1.33041e-05 3.2095e-05 -0.0221996)
(1.49913e-05 2.97946e-05 -0.0222118)
(1.55193e-05 2.78033e-05 -0.022212)
(1.51909e-05 2.60449e-05 -0.0222103)
(1.42244e-05 2.44604e-05 -0.0222088)
(1.27623e-05 2.30028e-05 -0.0222076)
(2.14492e-06 1.4218e-05 -0.0215817)
(7.64516e-06 1.36251e-05 -0.0221307)
(1.09793e-05 1.2787e-05 -0.022202)
(1.29242e-05 1.18625e-05 -0.0222142)
(1.36723e-05 1.08691e-05 -0.0222144)
(1.35373e-05 9.84143e-06 -0.0222126)
(1.27461e-05 8.79624e-06 -0.0222109)
(1.14481e-05 7.73913e-06 -0.0222097)
(9.0404e-06 -7.75683e-06 -0.0215796)
(1.33348e-05 -5.61834e-06 -0.0221285)
(1.59878e-05 -4.74974e-06 -0.0221996)
(1.74965e-05 -4.42174e-06 -0.0222116)
(1.80044e-05 -4.48447e-06 -0.0222116)
(1.7776e-05 -4.8067e-06 -0.0222096)
(1.7003e-05 -5.30534e-06 -0.0222078)
(1.58084e-05 -5.93111e-06 -0.0222063)
(2.29898e-05 -2.27515e-05 -0.0215735)
(2.48766e-05 -1.89931e-05 -0.0221221)
(2.60568e-05 -1.70646e-05 -0.022193)
(2.65183e-05 -1.59169e-05 -0.0222046)
(2.63132e-05 -1.53088e-05 -0.0222042)
(2.5621e-05 -1.5051e-05 -0.0222018)
(2.45761e-05 -1.50225e-05 -0.0221995)
(2.32667e-05 -1.51479e-05 -0.0221976)
(5.09795e-05 6.21242e-05 -0.0215397)
(4.79046e-05 5.63853e-05 -0.0220879)
(4.57321e-05 5.26313e-05 -0.0221586)
(4.3707e-05 4.971e-05 -0.0221701)
(4.17365e-05 4.72885e-05 -0.0221695)
(3.98078e-05 4.52021e-05 -0.022167)
(3.79185e-05 4.33397e-05 -0.0221647)
(3.60633e-05 4.16191e-05 -0.0221629)
(3.25324e-05 6.13452e-05 -0.0215524)
(3.24812e-05 5.51219e-05 -0.022101)
(3.22337e-05 5.09424e-05 -0.0221721)
(3.16235e-05 4.76882e-05 -0.0221839)
(3.06463e-05 4.50662e-05 -0.0221839)
(2.93978e-05 4.28957e-05 -0.0221819)
(2.79487e-05 4.10499e-05 -0.0221801)
(2.63406e-05 3.94351e-05 -0.0221788)
(1.54572e-05 5.10641e-05 -0.0215623)
(1.80674e-05 4.57818e-05 -0.0221111)
(1.95211e-05 4.21284e-05 -0.0221824)
(2.01208e-05 3.922e-05 -0.0221945)
(1.99656e-05 3.68376e-05 -0.0221947)
(1.92504e-05 3.48397e-05 -0.0221929)
(1.81176e-05 3.31249e-05 -0.0221913)
(1.66647e-05 3.16148e-05 -0.0221902)
(4.2817e-06 3.3715e-05 -0.0215686)
(8.62265e-06 3.05243e-05 -0.0221175)
(1.12157e-05 2.81474e-05 -0.0221889)
(1.2655e-05 2.61522e-05 -0.0222011)
(1.31039e-05 2.4425e-05 -0.0222014)
(1.28186e-05 2.2899e-05 -0.0221998)
(1.19853e-05 2.1523e-05 -0.0221983)
(1.07336e-05 2.02558e-05 -0.0221973)
(1.44984e-06 1.34471e-05 -0.021571)
(6.19308e-06 1.28283e-05 -0.0221199)
(9.09711e-06 1.20567e-05 -0.0221913)
(1.07873e-05 1.12248e-05 -0.0222034)
(1.14436e-05 1.03393e-05 -0.0222037)
(1.13345e-05 9.42319e-06 -0.022202)
(1.06564e-05 8.48764e-06 -0.0222005)
(9.54541e-06 7.53701e-06 -0.0221994)
(7.01248e-06 -5.13483e-06 -0.0215695)
(1.08324e-05 -3.4074e-06 -0.0221183)
(1.32167e-05 -2.69332e-06 -0.0221896)
(1.45704e-05 -2.43414e-06 -0.0222016)
(1.50379e-05 -2.51005e-06 -0.0222017)
(1.48521e-05 -2.8159e-06 -0.0221999)
(1.41828e-05 -3.28468e-06 -0.0221982)
(1.31461e-05 -3.87324e-06 -0.022197)
(1.87524e-05 -1.81195e-05 -0.0215648)
(2.06085e-05 -1.49004e-05 -0.0221133)
(2.17901e-05 -1.32047e-05 -0.0221844)
(2.2288e-05 -1.21963e-05 -0.0221961)
(2.21721e-05 -1.1669e-05 -0.0221959)
(2.16059e-05 -1.14639e-05 -0.0221937)
(2.07113e-05 -1.14796e-05 -0.0221917)
(1.95731e-05 -1.16484e-05 -0.0221901)
(4.3254e-05 5.27133e-05 -0.021535)
(4.06842e-05 4.78123e-05 -0.0220832)
(3.88532e-05 4.45936e-05 -0.0221541)
(3.71192e-05 4.20975e-05 -0.0221657)
(3.54257e-05 4.00265e-05 -0.0221653)
(3.37662e-05 3.8245e-05 -0.022163)
(3.21436e-05 3.66569e-05 -0.022161)
(3.05538e-05 3.51968e-05 -0.0221594)
(2.76413e-05 5.22067e-05 -0.0215456)
(2.7583e-05 4.69452e-05 -0.0220942)
(2.7347e-05 4.33868e-05 -0.0221653)
(2.67883e-05 4.06144e-05 -0.0221773)
(2.59199e-05 3.83758e-05 -0.0221773)
(2.48271e-05 3.65203e-05 -0.0221754)
(2.35738e-05 3.49425e-05 -0.0221738)
(2.2199e-05 3.35624e-05 -0.0221726)
(1.31561e-05 4.38049e-05 -0.021554)
(1.53244e-05 3.93259e-05 -0.0221028)
(1.65202e-05 3.62118e-05 -0.0221741)
(1.69845e-05 3.37294e-05 -0.0221863)
(1.68165e-05 3.16936e-05 -0.0221865)
(1.61843e-05 2.99865e-05 -0.0221848)
(1.5211e-05 2.85234e-05 -0.0221834)
(1.39828e-05 2.72375e-05 -0.0221824)
(3.54691e-06 2.9454e-05 -0.0215595)
(7.18345e-06 2.66953e-05 -0.0221084)
(9.34728e-06 2.46371e-05 -0.0221798)
(1.05248e-05 2.29085e-05 -0.022192)
(1.08683e-05 2.14112e-05 -0.0221924)
(1.05976e-05 2.00881e-05 -0.0221908)
(9.87441e-06 1.8895e-05 -0.0221894)
(8.81418e-06 1.77966e-05 -0.0221885)
(9.1851e-07 1.25155e-05 -0.0215617)
(4.95452e-06 1.18934e-05 -0.0221106)
(7.42299e-06 1.11797e-05 -0.022182)
(8.84153e-06 1.04257e-05 -0.0221942)
(9.37939e-06 9.63189e-06 -0.0221945)
(9.26947e-06 8.81401e-06 -0.0221929)
(8.68316e-06 7.97938e-06 -0.0221915)
(7.74389e-06 7.13162e-06 -0.0221905)
(5.41998e-06 -3.2201e-06 -0.0215608)
(8.76297e-06 -1.84168e-06 -0.0221095)
(1.08429e-05 -1.27696e-06 -0.0221808)
(1.20089e-05 -1.09142e-06 -0.0221929)
(1.24038e-05 -1.18831e-06 -0.0221932)
(1.22345e-05 -1.48285e-06 -0.0221914)
(1.16529e-05 -1.92008e-06 -0.0221899)
(1.07669e-05 -2.46224e-06 -0.0221888)
(1.53303e-05 -1.44684e-05 -0.021557)
(1.70794e-05 -1.17393e-05 -0.0221056)
(1.81835e-05 -1.02866e-05 -0.0221768)
(1.86533e-05 -9.42983e-06 -0.0221886)
(1.85716e-05 -8.99226e-06 -0.0221886)
(1.80887e-05 -8.83945e-06 -0.0221866)
(1.73163e-05 -8.88507e-06 -0.0221848)
(1.63348e-05 -9.06909e-06 -0.0221835)
(3.67944e-05 4.48389e-05 -0.021531)
(3.46115e-05 4.06501e-05 -0.0220792)
(3.30259e-05 3.79128e-05 -0.0221502)
(3.151e-05 3.57912e-05 -0.0221619)
(3.00349e-05 3.40267e-05 -0.0221617)
(2.85939e-05 3.25084e-05 -0.0221596)
(2.72016e-05 3.11478e-05 -0.0221578)
(2.58385e-05 2.99029e-05 -0.0221565)
(2.35331e-05 4.45189e-05 -0.0215399)
(2.34415e-05 4.00611e-05 -0.0220884)
(2.31818e-05 3.70383e-05 -0.0221597)
(2.26447e-05 3.46839e-05 -0.0221717)
(2.18554e-05 3.27785e-05 -0.0221718)
(2.08907e-05 3.11958e-05 -0.02217)
(1.98093e-05 2.98485e-05 -0.0221685)
(1.86414e-05 2.86669e-05 -0.0221675)
(1.1207e-05 3.76072e-05 -0.0215471)
(1.29793e-05 3.38112e-05 -0.0220957)
(1.39219e-05 3.1161e-05 -0.0221671)
(1.42455e-05 2.90458e-05 -0.0221793)
(1.40481e-05 2.73085e-05 -0.0221796)
(1.34763e-05 2.58508e-05 -0.022178)
(1.26374e-05 2.46022e-05 -0.0221766)
(1.16032e-05 2.35066e-05 -0.0221758)
(2.93361e-06 2.57062e-05 -0.0215518)
(5.94665e-06 2.33252e-05 -0.0221005)
(7.70911e-06 2.15437e-05 -0.022172)
(8.63689e-06 2.0046e-05 -0.0221842)
(8.87167e-06 1.87478e-05 -0.0221846)
(8.60365e-06 1.76e-05 -0.0221831)
(7.97295e-06 1.65656e-05 -0.0221819)
(7.079e-06 1.56136e-05 -0.022181)
(5.19746e-07 1.15197e-05 -0.0215538)
(3.91963e-06 1.09094e-05 -0.0221026)
(5.97467e-06 1.02469e-05 -0.022174)
(7.13108e-06 9.56025e-06 -0.0221863)
(7.54655e-06 8.84609e-06 -0.0221866)
(7.42493e-06 8.1149e-06 -0.0221851)
(6.91559e-06 7.37125e-06 -0.0221838)
(6.12547e-06 6.61736e-06 -0.022183)
(4.17462e-06 -1.83589e-06 -0.0215532)
(7.06418e-06 -7.46456e-07 -0.0221019)
(8.83716e-06 -3.17547e-07 -0.0221732)
(9.8115e-06 -2.01322e-07 -0.0221854)
(1.01246e-05 -3.19703e-07 -0.0221857)
(9.95994e-06 -6.04137e-07 -0.0221841)
(9.45382e-06 -1.00947e-06 -0.0221827)
(8.70184e-06 -1.5042e-06 -0.0221818)
(1.25762e-05 -1.16039e-05 -0.0215503)
(1.41704e-05 -9.30016e-06 -0.0220988)
(1.51531e-05 -8.07934e-06 -0.02217)
(1.55623e-05 -7.36883e-06 -0.022182)
(1.54862e-05 -7.01758e-06 -0.0221821)
(1.50618e-05 -6.91093e-06 -0.0221803)
(1.4391e-05 -6.97498e-06 -0.0221787)
(1.35458e-05 -7.1591e-06 -0.0221776)
(3.13958e-05 3.82337e-05 -0.0215278)
(2.95173e-05 3.46516e-05 -0.0220759)
(2.81147e-05 3.23277e-05 -0.0221469)
(2.67698e-05 3.05272e-05 -0.0221587)
(2.5475e-05 2.90198e-05 -0.0221587)
(2.42093e-05 2.77271e-05 -0.0221567)
(2.30267e-05 2.6543e-05 -0.0221551)
(2.1842e-05 2.5485e-05 -0.022154)
(2.00836e-05 3.80493e-05 -0.0215353)
(1.99454e-05 3.42649e-05 -0.0220836)
(1.96511e-05 3.16958e-05 -0.0221549)
(1.9123e-05 2.96971e-05 -0.0221669)
(1.83972e-05 2.80759e-05 -0.0221671)
(1.75403e-05 2.67251e-05 -0.0221654)
(1.66119e-05 2.55775e-05 -0.0221641)
(1.56202e-05 2.45613e-05 -0.0221632)
(9.56257e-06 3.23381e-05 -0.0215413)
(1.09836e-05 2.91178e-05 -0.0220898)
(1.16983e-05 2.68604e-05 -0.0221612)
(1.18927e-05 2.5057e-05 -0.0221734)
(1.16642e-05 2.35735e-05 -0.0221737)
(1.11406e-05 2.23276e-05 -0.0221722)
(1.0415e-05 2.12608e-05 -0.0221709)
(9.54124e-06 2.03261e-05 -0.0221702)
(2.43003e-06 2.24509e-05 -0.0215453)
(4.8992e-06 2.039e-05 -0.0220939)
(6.3086e-06 1.88436e-05 -0.0221653)
(7.01521e-06 1.7543e-05 -0.0221776)
(7.15182e-06 1.64152e-05 -0.022178)
(6.88341e-06 1.54174e-05 -0.0221766)
(6.3304e-06 1.45177e-05 -0.0221754)
(5.57346e-06 1.36891e-05 -0.0221747)
(2.3267e-07 1.05406e-05 -0.0215471)
(3.07394e-06 9.94461e-06 -0.0220957)
(4.76079e-06 9.32675e-06 -0.0221672)
(5.68416e-06 8.6988e-06 -0.0221794)
(5.98996e-06 8.05425e-06 -0.0221799)
(5.85546e-06 7.3991e-06 -0.0221784)
(5.41033e-06 6.73546e-06 -0.0221773)
(4.74245e-06 6.06263e-06 -0.0221765)
(3.21122e-06 -8.35022e-07 -0.0215467)
(5.68662e-06 1.66136e-08 -0.0220953)
(7.17848e-06 3.3036e-07 -0.0221667)
(7.97741e-06 3.87664e-07 -0.0221789)
(8.21502e-06 2.52053e-07 -0.0221793)
(8.05446e-06 -2.06619e-08 -0.0221777)
(7.61376e-06 -3.94887e-07 -0.0221765)
(6.97244e-06 -8.47247e-07 -0.0221757)
(1.03749e-05 -9.35012e-06 -0.0215444)
(1.17887e-05 -7.40629e-06 -0.0220929)
(1.26376e-05 -6.38957e-06 -0.0221641)
(1.29775e-05 -5.80795e-06 -0.0221762)
(1.28963e-05 -5.53114e-06 -0.0221764)
(1.25179e-05 -5.46094e-06 -0.0221748)
(1.19324e-05 -5.53524e-06 -0.0221734)
(1.11993e-05 -5.71436e-06 -0.0221724)
(2.68857e-05 3.26868e-05 -0.0215252)
(2.52467e-05 2.96158e-05 -0.0220731)
(2.39939e-05 2.76311e-05 -0.0221441)
(2.27884e-05 2.60972e-05 -0.022156)
(2.16641e-05 2.47871e-05 -0.022156)
(2.05117e-05 2.37073e-05 -0.0221541)
(1.95555e-05 2.26313e-05 -0.0221529)
(1.8491e-05 2.17455e-05 -0.0221517)
(1.71903e-05 3.26073e-05 -0.0215314)
(1.70013e-05 2.93849e-05 -0.0220796)
(1.66777e-05 2.71935e-05 -0.0221508)
(1.61573e-05 2.54906e-05 -0.0221629)
(1.54909e-05 2.41077e-05 -0.0221631)
(1.4723e-05 2.29476e-05 -0.0221615)
(1.39398e-05 2.19877e-05 -0.0221603)
(1.30857e-05 2.10945e-05 -0.0221595)
(8.18288e-06 2.78798e-05 -0.0215365)
(9.29716e-06 2.51383e-05 -0.0220848)
(9.82126e-06 2.32072e-05 -0.0221561)
(9.90876e-06 2.16644e-05 -0.0221683)
(9.65784e-06 2.03941e-05 -0.0221687)
(9.17718e-06 1.93262e-05 -0.0221672)
(8.5497e-06 1.84142e-05 -0.0221661)
(7.80473e-06 1.76158e-05 -0.0221654)
(2.02219e-06 1.96586e-05 -0.0215399)
(4.02758e-06 1.78583e-05 -0.0220883)
(5.14377e-06 1.65067e-05 -0.0221597)
(5.66861e-06 1.53712e-05 -0.0221719)
(5.72757e-06 1.43869e-05 -0.0221724)
(5.46295e-06 1.35156e-05 -0.022171)
(4.97601e-06 1.27292e-05 -0.0221699)
(4.32866e-06 1.20018e-05 -0.0221693)
(2.95963e-08 9.62532e-06 -0.0215414)
(2.39571e-06 9.04044e-06 -0.0220899)
(3.77649e-06 8.46206e-06 -0.0221613)
(4.50778e-06 7.88592e-06 -0.0221736)
(4.72664e-06 7.30292e-06 -0.0221741)
(4.58722e-06 6.7147e-06 -0.0221727)
(4.19876e-06 6.12029e-06 -0.0221716)
(3.62926e-06 5.51567e-06 -0.022171)
(2.47257e-06 -1.02466e-07 -0.0215412)
(4.58812e-06 5.54209e-07 -0.0220897)
(5.84146e-06 7.75491e-07 -0.022161)
(6.49515e-06 7.87587e-07 -0.0221733)
(6.67418e-06 6.42095e-07 -0.0221737)
(6.52254e-06 3.83571e-07 -0.0221722)
(6.14006e-06 3.87962e-08 -0.0221711)
(5.58884e-06 -3.76929e-07 -0.0221704)
(8.61558e-06 -7.55708e-06 -0.0215394)
(9.85273e-06 -5.91391e-06 -0.0220877)
(1.05796e-05 -5.06568e-06 -0.022159)
(1.08579e-05 -4.58942e-06 -0.0221711)
(1.07735e-05 -4.371e-06 -0.0221714)
(1.0437e-05 -4.32593e-06 -0.0221699)
(9.92549e-06 -4.4034e-06 -0.0221686)
(9.28465e-06 -4.57497e-06 -0.0221678)
(2.31043e-05 2.80388e-05 -0.0215231)
(2.16621e-05 2.53783e-05 -0.0220708)
(2.0554e-05 2.36599e-05 -0.0221417)
(1.94532e-05 2.23533e-05 -0.0221536)
(1.85839e-05 2.11182e-05 -0.0221538)
(1.73651e-05 2.03369e-05 -0.0221517)
(1.67313e-05 1.92511e-05 -0.022151)
(1.57431e-05 1.85211e-05 -0.0221495)
(1.47548e-05 2.80533e-05 -0.0215283)
(1.45246e-05 2.52876e-05 -0.0220762)
(1.41808e-05 2.34045e-05 -0.0221474)
(1.36692e-05 2.19387e-05 -0.0221594)
(1.30753e-05 2.07562e-05 -0.0221597)
(1.23575e-05 1.97209e-05 -0.0221582)
(1.17549e-05 1.899e-05 -0.0221571)
(1.09925e-05 1.81107e-05 -0.0221564)
(7.01921e-06 2.41362e-05 -0.0215325)
(7.88419e-06 2.17796e-05 -0.0220806)
(8.25751e-06 2.01148e-05 -0.0221518)
(8.26784e-06 1.87863e-05 -0.022164)
(8.01151e-06 1.76942e-05 -0.0221644)
(7.57178e-06 1.67751e-05 -0.022163)
(7.03955e-06 1.59995e-05 -0.0221619)
(6.3975e-06 1.5316e-05 -0.0221612)
(1.68075e-06 1.72907e-05 -0.0215354)
(3.31477e-06 1.56919e-05 -0.0220836)
(4.19762e-06 1.44966e-05 -0.0221549)
(4.58568e-06 1.3496e-05 -0.0221671)
(4.59462e-06 1.26305e-05 -0.0221676)
(4.34598e-06 1.18642e-05 -0.0221662)
(3.924e-06 1.11731e-05 -0.0221652)
(3.37076e-06 1.0527e-05 -0.0221646)
(-1.18478e-07 8.80031e-06 -0.0215367)
(1.86508e-06 8.21952e-06 -0.022085)
(3.00061e-06 7.67366e-06 -0.0221563)
(3.58415e-06 7.14244e-06 -0.0221686)
(3.74387e-06 6.61379e-06 -0.022169)
(3.61263e-06 6.08426e-06 -0.0221677)
(3.2792e-06 5.54998e-06 -0.0221667)
(2.79541e-06 5.00457e-06 -0.0221661)
(1.89475e-06 4.4069e-07 -0.0215366)
(3.72054e-06 9.39193e-07 -0.0220848)
(4.78281e-06 1.0879e-06 -0.0221561)
(5.32742e-06 1.06853e-06 -0.0221684)
(5.4696e-06 9.20955e-07 -0.0221688)
(5.33729e-06 6.7982e-07 -0.0221674)
(5.01454e-06 3.65211e-07 -0.0221664)
(4.54606e-06 -1.4932e-08 -0.0221658)
(7.19492e-06 -6.11646e-06 -0.0215351)
(8.28545e-06 -4.71688e-06 -0.0220833)
(8.91201e-06 -4.00379e-06 -0.0221545)
(9.1446e-06 -3.60874e-06 -0.0221667)
(9.06447e-06 -3.43246e-06 -0.022167)
(8.76974e-06 -3.40169e-06 -0.0221656)
(8.32586e-06 -3.47588e-06 -0.0221644)
(7.76763e-06 -3.63552e-06 -0.0221637)
(7.08288e-05 7.13947e-05 -0.0215986)
(7.72223e-05 5.28146e-05 -0.0221408)
(8.53083e-05 3.8676e-05 -0.0222028)
(9.2255e-05 2.79683e-05 -0.0222022)