/*--------------------------------*- C++ -*----------------------------------*\
| =========                 |                                                 |
| \\      /  F ield         | OpenFOAM: The Open Source CFD Toolbox           |
|  \\    /   O peration     | Version:  plus.master.MPPICInterFoam            |
|   \\  /    A nd           | Web:      www.OpenFOAM.com                      |
|    \\/     M anipulation  |                                                 |
\*---------------------------------------------------------------------------*/
FoamFile
{
    version     2.0;
    format      ascii;
    class       scalarField;
    location    "7.4/lagrangian/kinematicCloud";
    object      d;
}
// * * * * * * * * * * * * * * * * * * * * * * * * * * * * * * * * * * * * * //


181
(
0.000540275
0.000621555
0.000607321
0.000608935
0.000525412
0.000543315
0.000608403
0.00055558
0.000543519
0.000569911
0.000544259
0.000546687
0.000533593
0.000537731
0.000552667
0.000467055
0.000530576
0.000587175
0.000575706
0.000587704
0.000560872
0.000588295
0.000574534
0.000471066
0.000547075
0.000578219
0.000510243
0.000578875
0.000546399
0.000564228
0.000592119
0.000467077
0.000527275
0.000530418
0.000595506
0.000488085
0.000590013
0.00054447
0.000569547
0.000555448
0.0005982
0.000570521
0.000608442
0.000524072
0.00059971
0.000537933
0.000514237
0.00056241
0.000543029
0.000516374
0.000520153
0.00052073
0.00053391
0.00057193
0.000583548
0.000567671
0.000543786
0.000493274
0.000477691
0.000543659
0.000634917
0.00055691
0.000540958
0.000532361
0.000548291
0.000560065
0.000525529
0.000581622
0.000511321
0.000564914
0.000568397
0.000552668
0.000570112
0.000502559
0.000520051
0.000554629
0.000488346
0.000570217
0.000600509
0.000561906
0.000548693
0.000589449
0.00051036
0.000577708
0.000523275
0.000588145
0.000441219
0.000510717
0.000567314
0.000571198
0.000544042
0.000540855
0.000546782
0.000506874
0.000575093
0.000495334
0.000503692
0.000577969
0.000518597
0.000496526
0.000580152
0.000543853
0.000564082
0.000527103
0.000552269
0.000574468
0.000527259
0.000546082
0.000567845
0.000531018
0.000563713
0.000585634
0.000589207
0.000577065
0.000569693
0.000541301
0.00052207
0.000580946
0.000531219
0.000579365
0.00059285
0.000591895
0.000629448
0.000590636
0.00059301
0.000567715
0.000576516
0.000573434
0.000562493
0.000569432
0.000572375
0.000525413
0.000574486
0.000567178
0.000558138
0.000595406
0.000549443
0.000545719
0.00056836
0.000602167
0.000518969
0.000535665
0.00052943
0.000558236
0.000537598
0.000555113
0.000523399
0.000529713
0.000561726
0.000530791
0.000523642
0.000622651
0.00050204
0.000643762
0.000529986
0.000533648
0.000574696
0.000574661
0.000597043
0.000546772
0.000508665
0.000488678
0.000505644
0.000504827
0.000563531
0.000543664
0.000513779
0.00052148
0.000564029
0.000568028
0.000528535
0.000497659
0.000489645
0.000513906
0.000512084
0.000529656
0.000546914
0.000489131
0.000574279
0.00050542
0.000479389
)


// ************************************************************************* //
