/*--------------------------------*- C++ -*----------------------------------*\
| =========                 |                                                 |
| \\      /  F ield         | OpenFOAM: The Open Source CFD Toolbox           |
|  \\    /   O peration     | Version:  plus.master.MPPICInterFoam            |
|   \\  /    A nd           | Web:      www.OpenFOAM.com                      |
|    \\/     M anipulation  |                                                 |
\*---------------------------------------------------------------------------*/
FoamFile
{
    version     2.0;
    format      ascii;
    class       Cloud<basicKinematicMPPICParcel>;
    location    "7.4/lagrangian/kinematicCloud";
    object      positions;
}
// * * * * * * * * * * * * * * * * * * * * * * * * * * * * * * * * * * * * * //

181
(
(0.0175325 -0.0497565 0.506769) 2352
(-0.00410769 -0.0512433 0.511587) 2392
(0.0207134 -0.0330257 0.51926) 2406
(0.0323016 -0.0208572 0.503836) 1638
(0.00637806 0.0623256 0.50208) 2674
(-0.00273213 0.0617458 0.504355) 2674
(-0.00803065 -0.059866 0.503735) 2330
(0.0616793 0.0019595 0.503726) 1666
(0.0596825 -0.00610072 0.50776) 1666
(-0.00231454 -0.0626195 0.502148) 2338
(0.0621239 -0.00114504 0.503506) 1666
(0.0588715 -0.00605223 0.510072) 1665
(0.00193559 -0.0635281 0.502526) 2338
(0.0623764 0.00189764 0.503394) 1666
(0.00259526 0.0606894 0.507583) 2674
(0.0634719 -0.00100427 0.506366) 1666
(0.00365207 0.0619241 0.509413) 2674
(0.0122912 0.0596997 0.508334) 2666
(0.0615016 -0.000957431 0.507633) 1666
(0.012836 0.0598404 0.508691) 2666
(-0.00780246 0.058736 0.5142) 2737
(0.00616741 0.0571584 0.517782) 2729
(0.00431182 0.061504 0.511631) 2730
(-0.00569987 -0.0622718 0.51141) 2338
(-0.0597343 -0.00596375 0.517028) 2058
(0.0633527 -0.000958347 0.509746) 1666
(-0.00507038 -0.0632024 0.513348) 2394
(0.0633464 -0.00150123 0.509907) 1666
(-0.00394196 -0.0632801 0.512376) 2394
(-0.00976608 -0.0620773 0.512211) 2386
(0.0619841 -0.00367094 0.514496) 1722
(-0.00257408 -0.0653841 0.514141) 2395
(-0.00146461 0.0623878 0.516901) 2730
(-0.000704087 -0.0636498 0.516367) 2394
(-0.0600782 -0.00939197 0.517616) 2066
(0.00140582 -0.0642755 0.517136) 2394
(0.0605289 -0.00384171 0.51668) 1722
(0.00349662 -0.059862 0.521626) 2450
(0.0580157 -0.0041877 0.524176) 1777
(-0.059065 -0.00743084 0.524873) 2121
(0.0017969 -0.0587091 0.52296) 2449
(0.0589614 -0.00721727 0.525136) 1769
(-0.00105075 0.0598912 0.525333) 2786
(-0.0028983 -0.0611035 0.526261) 2450
(0.0590196 -0.000649753 0.525107) 1777
(-0.00724271 -0.0578399 0.530747) 2441
(-0.00528293 -0.0575473 0.532373) 2505
(-0.00705339 -0.0571592 0.531703) 2497
(-0.0578654 -0.00303496 0.531746) 2169
(-0.0580925 0.00201343 0.532533) 2169
(0.00303624 -0.0586391 0.533334) 2505
(-0.0579871 -0.000194027 0.53462) 2169
(-0.0587026 -0.000167787 0.537132) 2169
(-0.0559869 0.00585103 0.538762) 2169
(0.0538103 -0.0041781 0.54003) 1832
(-0.0569088 0.00507081 0.538191) 2169
(-0.0544926 0.00739124 0.540998) 2161
(0.00141367 0.0569322 0.539133) 2841
(0.0536446 -0.00502086 0.542013) 1888
(-0.0577717 0.00234316 0.538748) 2169
(-0.00534827 0.0492938 0.546597) 2896
(0.00306176 0.0548316 0.540807) 2841
(-0.0574892 0.0023393 0.539318) 2169
(-0.0567586 0.00392214 0.540376) 2169
(-0.0541188 -0.00509275 0.542374) 2225
(0.00500914 -0.055601 0.53993) 2505
(-0.0561567 0.00493479 0.540766) 2169
(-0.0540462 0.0141297 0.540436) 2161
(-0.055686 0.00453694 0.542428) 2225
(-0.0525454 0.00690812 0.545129) 2216
(-0.0550195 -0.00879296 0.541791) 2233
(-0.0550241 -0.00777887 0.542042) 2233
(-0.0530286 0.00809482 0.54493) 2216
(-0.0554239 -0.002758 0.544183) 2225
(-0.055048 -0.0104238 0.543056) 2233
(-0.0540279 -0.00956477 0.544229) 2233
(-0.053267 0.0131143 0.545743) 2217
(-0.0527215 0.00849935 0.545984) 2216
(0.0102848 0.0493432 0.550241) 2888
(-0.053525 -0.00836684 0.545502) 2232
(0.00633864 0.0471483 0.553978) 2943
(-0.0513094 0.00439794 0.550412) 2224
(-0.0514992 0.0135525 0.550325) 2216
(-0.0497602 -0.00483434 0.551778) 2280
(-0.0496536 0.00579784 0.551841) 2272
(-0.0519666 -0.00855433 0.550072) 2232
(-0.0514732 0.00736151 0.551756) 2272
(-0.0513526 0.00828633 0.551284) 2272
(-0.0506501 0.0138375 0.549995) 2216
(-0.0511811 0.00878459 0.550633) 2216
(-0.0508836 -0.0066575 0.551039) 2232
(-0.05074 0.00803732 0.551498) 2272
(-0.0508523 0.013595 0.550218) 2216
(-0.0527047 -0.00271242 0.55111) 2280
(-0.00463775 -0.0498165 0.553213) 2616
(-0.0522523 0.00374986 0.551232) 2280
(-0.0513184 0.0120086 0.551093) 2216
(-0.0501519 0.0114746 0.551013) 2216
(-0.0503914 0.00505768 0.551798) 2280
(-0.0512751 -0.00719639 0.551593) 2288
(-0.049322 0.00984485 0.552383) 2272
(-0.0505469 0.00404986 0.552296) 2280
(-0.0498325 -0.0112079 0.552521) 2288
(-0.051275 0.00299405 0.552223) 2280
(-0.0483129 0.0105709 0.553999) 2272
(-0.0479314 -0.0128191 0.554212) 2288
(-0.047513 0.00408301 0.556997) 2279
(-0.0473647 0.0100855 0.555722) 2271
(-0.0475595 -0.0115349 0.555238) 2288
(-0.0489841 -0.00246479 0.555474) 2280
(-0.045576 0.00814519 0.558923) 2271
(-0.0468783 0.00239076 0.557902) 2279
(-0.0444036 0.00646989 0.560041) 2271
(-0.0444893 0.00920009 0.560043) 2271
(-0.0439944 -0.00363174 0.561195) 7927
(-0.043576 0.00430994 0.560925) 2279
(-0.0428514 0.00312629 0.564373) 7926
(-0.0420653 0.00128542 0.566881) 7926
(-0.0426012 0.00696059 0.563971) 7918
(-0.0381027 0.00706646 0.57254) 7974
(0.00440916 -0.03701 0.572711) 7213
(0.0045852 -0.0369007 0.572988) 7213
(0.0130537 0.0307968 0.5737) 6572
(0.0166025 0.030297 0.573464) 6573
(-0.0375809 0.00713389 0.573151) 7141
(-0.0409611 0.00100701 0.569164) 7926
(-0.0366795 0.00341059 0.573503) 7142
(-0.0376268 -0.00389079 0.572304) 7142
(0.0111838 0.0302688 0.573464) 6572
(0.00295667 -0.037707 0.573429) 7212
(-0.00144277 0.0328397 0.574832) 6588
(-0.0371088 -0.00324172 0.573597) 7142
(-0.0367328 -0.00480219 0.573455) 7143
(0.0051361 -0.0367721 0.57375) 7213
(0.00456671 0.0304691 0.574925) 6580
(-0.0355703 -0.00180096 0.574796) 5469
(0.00164488 -0.033825 0.576252) 6029
(0.00377722 -0.0330086 0.575734) 6036
(-0.0324376 -0.00526265 0.575577) 5476
(-0.0309454 -0.000621745 0.575834) 5468
(-0.030911 -0.005477 0.575748) 5476
(0.00906505 0.0218978 0.571097) 6569
(0.00534888 -0.0286904 0.576828) 6035
(-0.0284754 0.000526764 0.571761) 5467
(0.00881609 0.0205586 0.565349) 6512
(-0.0276984 -0.00694556 0.573716) 5475
(0.00298543 -0.0275014 0.569921) 5970
(0.00135824 -0.0286411 0.574751) 6027
(-0.0267439 -0.000380874 0.568158) 5410
(0.00360326 -0.0273122 0.569141) 5978
(0.00252562 -0.027957 0.5725) 6027
(-0.0262099 -0.00419212 0.564768) 5418
(-0.00358 -0.0279833 0.571613) 6019
(0.0236888 -0.00398856 0.554146) 593
(-0.0257938 -0.000436145 0.56409) 5410
(0.00240591 -0.0260681 0.563893) 5970
(0.00248215 -0.0266487 0.567149) 5970
(-0.0250682 -0.00448444 0.559305) 946
(-0.0251458 -0.0014241 0.558774) 938
(-0.00265985 -0.0256664 0.56075) 1274
(-0.0243876 -0.00130186 0.554868) 937
(0.00185697 -0.0250317 0.55015) 1218
(0.00296339 -0.0243674 0.550193) 1225
(-0.02386 -0.00117546 0.550585) 881
(-0.00143276 -0.0241412 0.55043) 1217
(-0.0236978 -0.00191396 0.545344) 881
(0.00316659 -0.0240973 0.541515) 1225
(-0.00114144 -0.022997 0.541225) 1217
(-0.0234219 -0.00149557 0.537993) 825
(0.00302233 0.0159789 0.534721) 1487
(0.0017981 -0.0231926 0.534779) 1161
(-0.000624273 -0.0223782 0.529899) 1105
(0.000609639 -0.0231052 0.526711) 1105
(-0.000909191 -0.0211688 0.526126) 1104
(0.0014062 -0.0227177 0.52242) 1105
(-0.00299464 -0.0215369 0.524332) 1096
(-0.0233747 -0.00114426 0.520358) 713
(-0.000376269 -0.0222046 0.521301) 1049
(-0.00260241 -0.0217655 0.517329) 1048
(-5.18128e-05 -0.0222034 0.513112) 1049
(0.00218809 -0.0230291 0.506938) 993
)


// ************************************************************************* //
