/*--------------------------------*- C++ -*----------------------------------*\
| =========                 |                                                 |
| \\      /  F ield         | OpenFOAM: The Open Source CFD Toolbox           |
|  \\    /   O peration     | Version:  plus.master.MPPICInterFoam            |
|   \\  /    A nd           | Web:      www.OpenFOAM.com                      |
|    \\/     M anipulation  |                                                 |
\*---------------------------------------------------------------------------*/
FoamFile
{
    version     2.0;
    format      ascii;
    class       vectorField;
    location    "7.4/lagrangian/kinematicCloud";
    object      U;
}
// * * * * * * * * * * * * * * * * * * * * * * * * * * * * * * * * * * * * * //


181
(
(-0.00137963 0.00281663 -0.0294955)
(7.95603e-05 0.00371691 -0.0298107)
(-0.000252102 0.000321823 -0.0199704)
(-6.36816e-07 3.15742e-07 -0.0214994)
(-0.000278231 -0.00134115 -0.0457011)
(-0.000114578 -0.00127455 -0.0463259)
(-3.94165e-05 0.00154515 -0.0454214)
(-0.000210536 -0.000169827 -0.047107)
(0.000140301 -3.58166e-05 -0.045219)
(-0.000181345 0.00095083 -0.0469772)
(-8.43861e-05 -8.91984e-05 -0.0471815)
(0.000392944 -2.66029e-05 -0.0449133)
(-0.000266423 0.000493596 -0.0469379)
(-1.54249e-06 -0.000130627 -0.0472557)
(-0.000237894 -0.000773801 -0.0464168)
(0.00152772 -3.41972e-05 -0.0473133)
(-0.000163289 0.000600408 -0.0485282)
(-0.00025083 -0.000260651 -0.0489203)
(0.000795567 -1.04536e-05 -0.049536)
(-0.00020521 2.9302e-05 -0.0495958)
(-0.00025065 0.000723374 -0.0470826)
(-7.86512e-05 0.00176206 -0.0471937)
(-0.000192139 0.00137765 -0.0511075)
(-0.0003073 -0.00164517 -0.046107)
(-0.00245838 5.17023e-05 -0.0483684)
(0.00295394 9.2341e-05 -0.054065)
(-0.000429415 -0.00318088 -0.0510536)
(0.00302366 6.5734e-05 -0.0541712)
(-0.000320138 -0.00270723 -0.0521089)
(-0.000536094 -0.00221308 -0.0517154)
(0.00449096 4.88593e-05 -0.0559354)
(-0.000128561 -0.00532195 -0.0534858)
(-0.00038326 0.00450304 -0.0546057)
(-0.000125859 -0.00511635 -0.0552055)
(-0.00326837 -0.000129864 -0.0527402)
(0.000218948 -0.00623347 -0.0550636)
(0.00453556 0.000104795 -0.0550846)
(0.000172916 -0.00529077 -0.0535488)
(0.00715016 0.000113633 -0.0559198)
(-0.00719501 -0.000187301 -0.0552464)
(3.82512e-05 -0.00479985 -0.0545858)
(0.00951273 -0.000426848 -0.0601939)
(-0.000741902 0.00947847 -0.0623034)
(-0.000656669 -0.00990828 -0.0605278)
(0.009201 0.000963818 -0.0612483)
(-0.00165777 -0.0102759 -0.0594216)
(-0.00142361 -0.0116461 -0.0598916)
(-0.00177824 -0.0105351 -0.0601048)
(-0.0116368 -8.85524e-05 -0.0604425)
(-0.0127559 0.00104677 -0.0613502)
(0.000565901 -0.0144348 -0.0655256)
(-0.0158477 0.000593878 -0.0647899)
(-0.0218298 0.00053748 -0.0713008)
(-0.020096 0.00332678 -0.0677583)
(0.0212622 -0.000421732 -0.0693785)
(-0.020344 0.00308139 -0.0693496)
(-0.0220244 0.00425519 -0.066845)
(8.1927e-05 0.0236677 -0.0699186)
(0.0250098 -0.000905712 -0.0680429)
(-0.0221378 0.00191929 -0.0716369)
(-0.00345062 0.0289988 -0.0640906)
(0.000665975 0.02455 -0.0699215)
(-0.0228191 0.00186317 -0.0715203)
(-0.0237999 0.00251053 -0.0706653)
(-0.0240663 -0.0010724 -0.0681341)
(0.00166147 -0.0203465 -0.0698608)
(-0.0236612 0.00295525 -0.0693236)
(-0.0223203 0.00689734 -0.0708943)
(-0.0266798 0.00321361 -0.0712453)
(-0.0278075 0.00502913 -0.0695942)
(-0.0248498 -0.0030531 -0.0721911)
(-0.0251129 -0.00256517 -0.0713686)
(-0.0288816 0.00589585 -0.0730795)
(-0.0303606 -0.000201361 -0.0748053)
(-0.0279684 -0.00438186 -0.074276)
(-0.0292199 -0.00452741 -0.0758343)
(-0.033037 0.00888426 -0.0773234)
(-0.0308937 0.00640253 -0.0747852)
(0.00781757 0.0411116 -0.0820212)
(-0.031122 -0.00375172 -0.0766671)
(0.00681 0.0509252 -0.109839)
(-0.0389023 0.00483285 -0.0816681)
(-0.0411173 0.0132099 -0.0847869)
(-0.0407286 -0.00242643 -0.0901106)
(-0.0416966 0.00666596 -0.0956466)
(-0.0395133 -0.0051117 -0.0844325)
(-0.0436028 0.00840277 -0.0843853)
(-0.0426547 0.00916786 -0.0837869)
(-0.0389203 0.0128993 -0.0831748)
(-0.0404798 0.0093164 -0.0830608)
(-0.0395823 -0.00395097 -0.08351)
(-0.0423667 0.00906784 -0.0841003)
(-0.0398636 0.0129912 -0.0835575)
(-0.0430449 -0.000725657 -0.0855274)
(-0.00489406 -0.0463481 -0.111448)
(-0.0427058 0.00454593 -0.084411)
(-0.0427246 0.012338 -0.0854345)
(-0.0407511 0.0115314 -0.0838171)
(-0.041954 0.00578041 -0.0940258)
(-0.0419565 -0.0046974 -0.0860304)
(-0.0438565 0.0109087 -0.0900102)
(-0.0438913 0.00491529 -0.0928736)
(-0.0436328 -0.00868343 -0.0898269)
(-0.0443101 0.00390977 -0.087676)
(-0.0509975 0.0120874 -0.109919)
(-0.0501391 -0.0128783 -0.109523)
(-0.0599929 0.00789554 -0.12155)
(-0.0558838 0.0126674 -0.121387)
(-0.054291 -0.0135456 -0.118977)
(-0.0578169 -0.00242409 -0.119552)
(-0.0669956 0.014344 -0.113888)
(-0.0621539 0.00612232 -0.119054)
(-0.0697199 0.0128175 -0.0926663)
(-0.0713397 0.0178791 -0.109543)
(-0.0700838 -0.0034044 -0.0823316)
(-0.0695825 0.00878812 -0.0722743)
(-0.0714477 0.00510984 -0.117202)
(-0.0852825 0.00326195 -0.134649)
(-0.069038 0.0150216 -0.12069)
(-0.087455 0.0256221 -0.138071)
(0.0100128 -0.0671423 -0.0562925)
(0.0115156 -0.0702664 -0.0602168)
(0.0508599 0.103311 -0.0677277)
(0.0665066 0.110961 -0.0756526)
(-0.107245 0.0302685 -0.109207)
(-0.101585 0.00941303 -0.147241)
(-0.0952187 0.0134247 -0.0747326)
(-0.085935 -0.00399174 -0.0653787)
(0.0385093 0.0873709 -0.0603235)
(0.00668765 -0.0953464 -0.083927)
(2.39876e-05 0.120697 -0.0771374)
(-0.0912974 -0.000944283 -0.0654835)
(-0.0851938 -0.00790479 -0.0668792)
(0.0159944 -0.0801949 -0.0745841)
(0.0221956 0.111825 -0.083416)
(-0.129486 0.00172728 -0.0622985)
(0.0110162 -0.134634 -0.0852268)
(0.0188903 -0.123526 -0.0761041)
(-0.129825 -0.0145057 -0.0256939)
(-0.11988 0.00435239 -0.00587617)
(-0.123615 -0.0151081 0.0132781)
(0.0238977 0.0556294 0.192286)
(0.0289954 -0.111342 0.0609262)
(-0.0772738 0.00651981 0.195863)
(0.00913554 0.0217303 0.241273)
(-0.0874412 -0.015264 0.160221)
(0.00949105 -0.0574666 0.225438)
(0.00951651 -0.0948117 0.145594)
(-0.0444572 0.00286291 0.251081)
(0.00955571 -0.0513797 0.230664)
(0.0112612 -0.0767081 0.193881)
(-0.0247469 -0.000728912 0.273815)
(-0.00611162 -0.0709985 0.210963)
(-0.00796343 0.00303881 0.270591)
(-0.0194568 0.00221615 0.284504)
(0.00212148 -0.0162918 0.285659)
(0.00504208 -0.0360487 0.256992)
(0.00114463 0.00285851 0.309727)
(0.00181742 0.00173951 0.3072)
(0.00137636 -0.00302746 0.309017)
(0.0101093 0.00166288 0.33052)
(-0.000647416 0.0112593 0.334241)
(-0.00172683 0.0114415 0.339995)
(0.0127504 0.00132874 0.342903)
(0.00204476 0.0139701 0.347446)
(0.0111997 0.0014526 0.347387)
(-0.00138857 0.00902417 0.347439)
(0.00122693 0.0100756 0.370601)
(0.00731808 0.000796332 0.351912)
(-0.00200045 -0.0157083 0.36909)
(6.53848e-05 0.00481952 0.363464)
(0.000961058 -0.000334832 0.37827)
(0.00144812 -0.00348917 0.367499)
(0.00104824 -0.0043387 0.392516)
(0.00193468 -0.00725568 0.367469)
(0.000476917 -0.00626107 0.387648)
(-0.00683562 0.000541549 0.350015)
(0.00131904 -0.00830151 0.376433)
(0.000308266 -0.0153289 0.379736)
(0.00194061 -0.0143464 0.369777)
(0.00338565 -0.0144659 0.352343)
)


// ************************************************************************* //
