/*--------------------------------*- C++ -*----------------------------------*\
| =========                 |                                                 |
| \\      /  F ield         | OpenFOAM: The Open Source CFD Toolbox           |
|  \\    /   O peration     | Version:  plus.master.MPPICInterFoam            |
|   \\  /    A nd           | Web:      www.OpenFOAM.com                      |
|    \\/     M anipulation  |                                                 |
\*---------------------------------------------------------------------------*/
FoamFile
{
    version     2.0;
    format      ascii;
    class       volScalarField;
    location    "13.8";
    object      k;
}
// * * * * * * * * * * * * * * * * * * * * * * * * * * * * * * * * * * * * * //

dimensions      [0 2 -2 0 0 0 0];

internalField   nonuniform List<scalar> 
11821
(
0.000904484
0.00312365
0.00867194
0.00949845
0.00492675
0.00163493
0.000443717
0.00261096
0.010369
0.0374193
0.0490076
0.0263521
0.0083564
0.00193138
0.00628437
0.0289189
0.0357544
0.0792842
0.0307108
0.0313597
0.00650607
0.0110979
0.0588323
0.0512205
0.076108
0.0775921
0.0469993
0.0104232
0.00741383
0.0343187
0.0355382
0.0481498
0.0328162
0.0339317
0.0077987
0.00290686
0.0104312
0.0388149
0.0592223
0.0256992
0.0102627
0.00259283
0.000974432
0.00318603
0.00880173
0.0101434
0.00504208
0.00205329
0.000655661
0.0013685
0.0062283
0.0137791
0.0144805
0.00650343
0.00178014
0.000620256
0.00565056
0.0209397
0.0464574
0.0616388
0.0290851
0.00987902
0.00187986
0.0144676
0.0448416
0.0611397
0.211265
0.0513396
0.0284749
0.00661207
0.0226286
0.0785008
0.172528
0.171885
0.243491
0.0494382
0.0108693
0.0168126
0.0511954
0.0609231
0.128894
0.0576833
0.033998
0.00892229
0.00687286
0.0242579
0.0538697
0.0771559
0.0352967
0.013754
0.00319252
0.00174718
0.00745572
0.0175194
0.0201008
0.00962286
0.00289766
0.000735217
0.00298008
0.00934339
0.0178068
0.0187625
0.00834297
0.00257774
0.00150751
0.00957987
0.0271399
0.0500299
0.0650596
0.030537
0.00969132
0.00234117
0.0213286
0.0546886
0.0854953
0.188653
0.0702929
0.0244791
0.00561637
0.0320747
0.0888143
0.167708
0.198769
0.232108
0.0441573
0.0092987
0.0244007
0.0606501
0.084898
0.13019
0.0824678
0.0311232
0.00810342
0.0121849
0.0329011
0.0602908
0.0824722
0.0413528
0.0147991
0.00353195
0.00409156
0.0124338
0.0239389
0.0273323
0.0134353
0.00409338
0.00164493
0.00452273
0.0102357
0.0191488
0.0199013
0.00896026
0.00386421
0.00315629
0.0113962
0.0297206
0.0520532
0.0626561
0.030277
0.00917397
0.003591
0.0251728
0.0610392
0.0994447
0.146782
0.0729546
0.022135
0.00538523
0.0380376
0.0957416
0.145875
0.161711
0.170888
0.0388294
0.00802138
0.0289816
0.0681056
0.103789
0.126412
0.0862013
0.027903
0.00707688
0.0150067
0.0373369
0.0653231
0.0827542
0.0422927
0.0140333
0.00432645
0.00592519
0.0146951
0.0270058
0.0298266
0.0146995
0.00516131
0.00328493
0.00495362
0.00947767
0.0174855
0.018173
0.00825782
0.00434604
0.00382446
0.0110059
0.0285675
0.0493868
0.0557217
0.0275249
0.00820839
0.00413637
0.0255453
0.061933
0.0997978
0.115743
0.0665837
0.0195237
0.0052485
0.0401382
0.0998676
0.128332
0.126617
0.131173
0.0344737
0.00708494
0.0298004
0.0704283
0.105857
0.112905
0.0795309
0.0243657
0.00631914
0.0147177
0.0372372
0.0650408
0.0774472
0.0393848
0.0121927
0.00461184
0.00622059
0.0140342
0.0262244
0.0286488
0.0136357
0.00533559
0.00394259
0.000162964
0.000123867
0.000120409
0.00011472
0.000110764
0.000107391
0.000104403
0.000101728
0.000565803
0.000203466
0.000132213
0.00011508
0.000108224
0.000103841
0.00010026
9.70185e-05
0.00203683
0.000559432
0.000187331
0.000121575
0.000108499
0.000103261
9.94602e-05
9.61584e-05
0.00355993
0.00104104
0.000282334
0.000133222
0.000109315
0.000103504
9.98447e-05
9.65024e-05
0.00255041
0.000687476
0.000214006
0.000127757
0.000112918
0.000107471
0.000103873
0.000100925
0.000845038
0.00029251
0.000153498
0.000124637
0.000116369
0.000111938
0.000108603
0.000105867
0.000271463
0.000162138
0.00013369
0.00012293
0.000118986
0.000116458
0.000114153
0.000111996
0.000483767
0.000442245
0.000403983
0.000371019
0.000343579
0.000320505
0.000300369
0.000281764
0.000576331
0.000454679
0.000411251
0.000376403
0.00034718
0.000322681
0.000301639
0.000282427
0.00106895
0.000473821
0.000406282
0.000372685
0.000345448
0.00032152
0.000300743
0.000281484
0.00161898
0.000498913
0.000404998
0.000371771
0.000345418
0.000321971
0.000301368
0.000282337
0.00145815
0.000490699
0.000402429
0.000370403
0.000344429
0.000321455
0.000301154
0.000282218
0.000703548
0.000441644
0.000397125
0.000368536
0.000344202
0.000322761
0.000303647
0.000285601
0.00046892
0.000415406
0.000386447
0.000361362
0.000339221
0.00031981
0.000302293
0.000285464
0.00135149
0.0012734
0.00117177
0.00105256
0.000923448
0.000791631
0.000664873
0.00055166
0.00140802
0.00129139
0.0011963
0.00108163
0.000951901
0.000815069
0.00068021
0.000557837
0.00160594
0.00128062
0.00119665
0.0010955
0.000970733
0.000832407
0.000692489
0.000563884
0.00180171
0.0012559
0.00118882
0.00109977
0.000979112
0.000840638
0.000698467
0.000566978
0.00188026
0.00128834
0.00119577
0.00109854
0.000975458
0.000837003
0.00069617
0.000566765
0.00148931
0.0012825
0.00119096
0.00108261
0.000955648
0.000819398
0.000684693
0.000563062
0.00132722
0.00124788
0.00115561
0.00104276
0.000917124
0.000787623
0.000663349
0.000553387
0.00296445
0.00276189
0.00250559
0.00224263
0.00201003
0.0018219
0.00166807
0.00151041
0.00303478
0.00286238
0.00261983
0.00234421
0.00208604
0.00187394
0.00170545
0.0015406
0.0030742
0.0028819
0.00268683
0.00242508
0.00215742
0.00192836
0.00174511
0.00156959
0.00309275
0.00285439
0.00270191
0.00245445
0.00218323
0.00194494
0.00175444
0.00157503
0.00321806
0.00289924
0.00270436
0.00244358
0.00217172
0.00193684
0.00174871
0.00156942
0.00309908
0.002892
0.00265776
0.00238498
0.00212283
0.00190286
0.00172472
0.00154955
0.00297774
0.00278895
0.00254432
0.00228481
0.00204938
0.0018543
0.00169098
0.0015223
0.00362327
0.00339452
0.00313647
0.00285994
0.00255435
0.00219852
0.00178443
0.00135131
0.00371437
0.00350076
0.00323671
0.00295086
0.00264666
0.00229728
0.00187996
0.00142817
0.00374076
0.00354784
0.00331801
0.00304052
0.00273745
0.00238583
0.00195834
0.00148837
0.0037276
0.00353686
0.00334169
0.0030711
0.00276526
0.00241255
0.00198181
0.00150387
0.00382237
0.00356255
0.00333219
0.00305061
0.00274062
0.00238499
0.00195495
0.0014823
0.00376824
0.00353788
0.00327737
0.00298719
0.0026732
0.00231304
0.00188664
0.00142832
0.00365797
0.00344095
0.00318906
0.00290948
0.00259438
0.0022255
0.00179797
0.00135279
0.00028762
0.000152089
0.000129375
0.000123485
0.000120656
0.000118523
0.000116318
0.000114492
0.000868934
0.00028139
0.000149038
0.000119763
0.000111591
0.000107732
0.000104465
0.000101369
0.00245373
0.000811499
0.00026231
0.000133585
0.000107626
9.88266e-05
9.26564e-05
8.8275e-05
0.00359895
0.00110301
0.000319833
0.000137204
0.000102736
9.30247e-05
8.64759e-05
8.12197e-05
0.00200857
0.000648287
0.000216445
0.00012457
0.000105409
9.84206e-05
9.30769e-05
8.77281e-05
0.000701025
0.000234805
0.000139421
0.000115638
0.000108687
0.000103937
0.00010027
9.76818e-05
0.000274492
0.000149757
0.000124387
0.000117787
0.000115537
0.000113179
0.00011131
0.000109421
0.000607226
0.000461752
0.00041991
0.000386695
0.000357635
0.000332275
0.000310113
0.00028973
0.00142135
0.000565288
0.000457618
0.000417769
0.000383885
0.000352372
0.000323967
0.00029842
0.00403458
0.000959754
0.000525186
0.000460369
0.00041993
0.000380132
0.000342486
0.000308265
0.00537759
0.00112984
0.000534912
0.000463023
0.000421119
0.000377705
0.000335805
0.000298565
0.00296862
0.000718246
0.00047393
0.000428106
0.00039029
0.000352157
0.000315714
0.000282895
0.00105045
0.000493401
0.000423294
0.000388134
0.000354834
0.000324343
0.000297435
0.000273189
0.00053593
0.000432714
0.000397646
0.000367115
0.000339509
0.000315579
0.000294871
0.000276227
0.00168477
0.00131127
0.00119973
0.00109315
0.000967296
0.000828276
0.000688886
0.000563219
0.00334812
0.0015071
0.00123727
0.00113917
0.00103177
0.000900095
0.000753896
0.000610314
0.00725249
0.00208728
0.0012494
0.00113242
0.00104882
0.000937408
0.000800365
0.000652584
0.00935399
0.00232551
0.00118713
0.00106894
0.00099193
0.000885622
0.00075495
0.000614084
0.00571561
0.00171139
0.00118818
0.00109796
0.00101012
0.000893211
0.000753483
0.000606089
0.00252642
0.00135052
0.00118109
0.00108903
0.000978189
0.000846258
0.000704046
0.000567149
0.00146485
0.00124688
0.00115706
0.00105348
0.000929771
0.000795162
0.000661775
0.000542146
0.00338957
0.00289526
0.00261936
0.00234877
0.00209718
0.00188502
0.00170767
0.00152892
0.00516323
0.00314836
0.00272379
0.00245814
0.00220452
0.00198347
0.00180501
0.00163424
0.00940034
0.00363091
0.00269524
0.00243955
0.00221203
0.00200514
0.00184735
0.00171163
0.0120777
0.00381706
0.00253825
0.00229896
0.00207801
0.00186314
0.00169749
0.00156261
0.00772308
0.00325945
0.00260752
0.00237265
0.00213906
0.00192712
0.00176712
0.0016322
0.00419514
0.00294248
0.00262977
0.0023761
0.00212718
0.00191441
0.00174688
0.00158923
0.00309782
0.00278809
0.00253887
0.00227616
0.00203358
0.00183213
0.00166596
0.00149874
0.0040875
0.00361419
0.00331864
0.00301098
0.00266574
0.00226603
0.00180769
0.00133086
0.00566697
0.00391298
0.0034893
0.00319565
0.00287415
0.00248486
0.00200754
0.00148393
0.00961565
0.0043851
0.00356682
0.00331108
0.00305718
0.0027212
0.00225985
0.00171267
0.0124984
0.0045548
0.00345126
0.00323142
0.00302952
0.00276024
0.00237182
0.00188256
0.00806126
0.00406085
0.00347192
0.00324649
0.00300581
0.00268857
0.00225168
0.00172758
0.00478732
0.00370907
0.00339424
0.00312883
0.00283003
0.00246509
0.00200938
0.00150119
0.00380362
0.00349083
0.00322718
0.00293785
0.00261253
0.00223312
0.00179218
0.0013284
0.000362655
0.000178968
0.000128221
0.000116582
0.000113624
0.000112264
0.00011118
0.000109316
0.00113299
0.000369656
0.000155498
0.000111987
0.000104011
0.000101521
9.91896e-05
9.71205e-05
0.00282381
0.000790543
0.000225331
0.000112295
9.21983e-05
8.4867e-05
7.9253e-05
7.4419e-05
0.00297353
0.00083285
0.000227523
0.000116382
9.69021e-05
8.90499e-05
8.35261e-05
7.86716e-05
0.00136404
0.000382699
0.000155577
0.000114163
0.00010437
9.86149e-05
9.42741e-05
9.03164e-05
0.000380975
0.000151077
0.000123841
0.000114161
0.000108325
0.000104403
0.000101366
9.84235e-05
0.0001493
0.000119206
0.000119176
0.000115184
0.000111409
0.0001083
0.000105503
0.000103111
0.000578581
0.000433771
0.000401459
0.000376343
0.000352562
0.00033064
0.000310071
0.000290321
0.00130561
0.000511324
0.000422362
0.000389943
0.000363052
0.000338998
0.00031777
0.000298135
0.002753
0.000638984
0.000433348
0.000390683
0.000357905
0.000328548
0.000303245
0.000280958
0.00241301
0.000579065
0.000429576
0.000388633
0.000352179
0.000318669
0.000288913
0.000262342
0.00104805
0.000493432
0.000427374
0.000389922
0.000355015
0.000324373
0.000297766
0.000273912
0.000579226
0.000467197
0.000422798
0.000386054
0.000354445
0.000328129
0.000305245
0.00028444
0.000494469
0.000450426
0.000410092
0.000375199
0.000346607
0.000322921
0.000302486
0.000283769
0.00145606
0.00123069
0.00114595
0.00104828
0.00093003
0.000800063
0.000670227
0.000552851
0.00242169
0.00131056
0.00116214
0.00107559
0.000967921
0.000839729
0.000703312
0.000574124
0.00414715
0.00138099
0.00111135
0.00103359
0.000937628
0.000817946
0.000685849
0.000556729
0.00373135
0.00127373
0.00108645
0.00101139
0.00090911
0.000784902
0.000651279
0.000522713
0.00194028
0.00126471
0.00116843
0.00107861
0.000962301
0.00082731
0.000685181
0.000550453
0.00143918
0.00130176
0.00121104
0.00110089
0.000972295
0.000833142
0.000693305
0.000564774
0.00136426
0.00128774
0.00118556
0.00106432
0.000932746
0.00079837
0.000669211
0.00055398
0.00305196
0.00276012
0.002519
0.00226346
0.00202563
0.00182624
0.00165971
0.0014899
0.00381117
0.00286023
0.00258547
0.00233308
0.00208373
0.00186955
0.0016956
0.00152533
0.00524086
0.00284521
0.00250785
0.00227828
0.00203674
0.00182505
0.00165955
0.00150472
0.00488041
0.00269844
0.00244726
0.00223029
0.00198664
0.00177401
0.00161383
0.00147055
0.0033481
0.00276163
0.00255551
0.00230718
0.00204829
0.00182769
0.00165704
0.00149865
0.00302826
0.00283244
0.00259454
0.00232238
0.0020645
0.00185119
0.00168176
0.00151716
0.00296138
0.00276006
0.002502
0.00223762
0.00200404
0.00181516
0.00166079
0.00150299
0.00374939
0.00345531
0.00319882
0.00291435
0.00259028
0.00221031
0.00177104
0.00131453
0.00432017
0.00354968
0.00325633
0.0029754
0.00266303
0.00229666
0.00185985
0.00139056
0.00537446
0.0035466
0.00321588
0.00296282
0.00267763
0.00233589
0.0019112
0.00143904
0.00510369
0.00341932
0.00315777
0.00292302
0.00264916
0.00232126
0.00190927
0.00144543
0.00393519
0.00344163
0.00320999
0.00294933
0.00265944
0.00231959
0.00189959
0.00143298
0.0036966
0.00346835
0.00320977
0.00292801
0.00262525
0.00227509
0.0018551
0.00140003
0.00361013
0.00338076
0.00312018
0.00284254
0.00253742
0.00218342
0.00177172
0.00134003
0.000204071
0.000137677
0.000127037
0.00012238
0.00011905
0.000116291
0.000113818
0.000111749
0.00047644
0.000177191
0.000133896
0.000121947
0.000116195
0.000111503
0.000107157
0.000103061
0.00144851
0.000436089
0.000173755
0.000123494
0.000111218
0.000104455
9.89917e-05
9.40323e-05
0.00320431
0.000948943
0.000277172
0.000134214
0.000106889
9.66342e-05
8.96922e-05
8.40501e-05
0.00302917
0.000933844
0.000287447
0.000135262
0.000103288
9.32963e-05
8.74218e-05
8.32308e-05
0.00117254
0.000403923
0.000175424
0.00012125
0.000109364
0.000104613
0.000101094
9.81588e-05
0.000357002
0.000178561
0.000135945
0.000125581
0.000120441
0.000118252
0.000116062
0.000114317
0.000480297
0.000431049
0.000395962
0.000364744
0.000338591
0.000316891
0.000298314
0.000281307
0.00065653
0.000467373
0.000420627
0.000382938
0.000349249
0.000320664
0.000296623
0.000275568
0.00154486
0.000549417
0.000457996
0.000417545
0.000377651
0.000339699
0.000305641
0.00027546
0.00385701
0.000798815
0.000505632
0.000455128
0.00041248
0.000369104
0.000328539
0.000292315
0.00412253
0.000938691
0.000525036
0.000457942
0.000413504
0.000370823
0.000332172
0.000298254
0.00175913
0.00062061
0.000471828
0.000424955
0.00038747
0.000353918
0.00032505
0.000299887
0.000645911
0.000468206
0.000425676
0.000392692
0.000363973
0.000338162
0.00031514
0.000293634
0.001347
0.00126981
0.00117596
0.00105994
0.000930766
0.000797317
0.000668843
0.000554879
0.00156817
0.00128345
0.00119063
0.0010897
0.000969149
0.000835004
0.000696654
0.000566635
0.00295077
0.00132628
0.00115955
0.00108044
0.000978884
0.000853254
0.000712345
0.000570311
0.00662329
0.00165586
0.00111612
0.00103975
0.000956126
0.000844377
0.000713374
0.000576539
0.00678384
0.00189479
0.00118828
0.00108634
0.00100243
0.000890908
0.000757243
0.0006167
0.00348612
0.00150967
0.00122601
0.00112824
0.00102318
0.000894138
0.000750295
0.000608642
0.00168259
0.00130499
0.00119524
0.00108996
0.000965262
0.000827269
0.000688843
0.000563962
0.00297629
0.00279089
0.00254401
0.00228336
0.00204831
0.00185488
0.00169451
0.00152998
0.00314754
0.0028371
0.0026141
0.00236111
0.00211511
0.00190963
0.00174779
0.00159186
0.00436123
0.002796
0.00253925
0.00232103
0.0020854
0.00188207
0.00173233
0.00160185
0.00823759
0.00300645
0.00241155
0.00221556
0.00199602
0.00179402
0.00164744
0.00153071
0.00826889
0.00330533
0.00257816
0.00234702
0.0021293
0.00193536
0.00178895
0.00165785
0.00499134
0.00307665
0.0026727
0.00241363
0.00216648
0.00195162
0.00177686
0.00160646
0.0033567
0.0028744
0.00260251
0.00233572
0.00208775
0.00187851
0.00170313
0.0015254
0.00365557
0.00343791
0.00318163
0.00290096
0.002588
0.0022228
0.00179755
0.00134987
0.00383682
0.00353921
0.00330288
0.00304016
0.00274434
0.00238823
0.00194846
0.0014626
0.00482392
0.00356244
0.00331224
0.00309926
0.00284762
0.00252738
0.00210048
0.0016007
0.00817305
0.00376943
0.00326469
0.00307896
0.00286611
0.00258656
0.00219606
0.00171766
0.00812306
0.00401313
0.00339887
0.00315684
0.00289766
0.00256094
0.00211083
0.00158743
0.00538577
0.00380441
0.00340649
0.00311579
0.00279575
0.00241084
0.00194388
0.00143775
0.00405045
0.00359058
0.00329881
0.00299493
0.00265326
0.00225672
0.0018015
0.00132856
9.93667e-05
9.45072e-05
9.35553e-05
9.35066e-05
9.84313e-05
0.000103824
0.000109808
0.000263394
0.000263265
0.000262015
0.000263023
0.000262912
0.000267058
0.000268044
0.000459503
0.000457976
0.000458756
0.00045948
0.000461387
0.000464671
0.000465006
0.00128473
0.00129476
0.00130445
0.00130437
0.00130183
0.00129434
0.00128557
0.000859356
0.00087035
0.000879394
0.000876442
0.000872352
0.000864359
0.00084973
0.000112584
9.81122e-05
8.45763e-05
7.7078e-05
8.31724e-05
9.44055e-05
0.000107285
0.00026968
0.000274816
0.00027733
0.000266361
0.000253797
0.000251134
0.000258238
0.000462543
0.000487498
0.000515811
0.000483445
0.00047166
0.000451503
0.000446273
0.00128393
0.00138128
0.00149007
0.00135043
0.00141734
0.00135247
0.00126611
0.000789058
0.000836319
0.00097318
0.00114715
0.00100267
0.000863279
0.000797386
0.000107749
9.61061e-05
7.03201e-05
7.41106e-05
8.66753e-05
9.59273e-05
0.000100828
0.000270175
0.0002787
0.000260171
0.000237788
0.000251261
0.000263898
0.000265398
0.000457846
0.000466786
0.000446725
0.000414191
0.00043808
0.000459211
0.000460313
0.00125373
0.00127512
0.00126179
0.00123992
0.00125386
0.00127337
0.0012776
0.000798068
0.000812657
0.000822987
0.000826655
0.000825642
0.000836697
0.000847721
0.000109668
9.91677e-05
8.94891e-05
7.93538e-05
7.97585e-05
9.56585e-05
0.000112486
0.000264435
0.000255758
0.000248397
0.000260985
0.000268571
0.000277207
0.000272193
0.000463247
0.00045797
0.000445019
0.000451711
0.0004894
0.000487257
0.000463778
0.00129697
0.00135361
0.00138531
0.00133635
0.00143311
0.00135252
0.00128086
0.00083749
0.000856691
0.000926526
0.0010222
0.000892584
0.000815443
0.000791465
9.70554e-05
9.20093e-05
8.46945e-05
7.65848e-05
6.7976e-05
5.94374e-05
5.13681e-05
4.38411e-05
9.25441e-05
8.85877e-05
8.27079e-05
7.49456e-05
6.68392e-05
5.86615e-05
5.08309e-05
4.34723e-05
9.16536e-05
8.78539e-05
8.22048e-05
7.46651e-05
6.6709e-05
5.86231e-05
5.08458e-05
4.35101e-05
9.18084e-05
8.92914e-05
8.37546e-05
7.62827e-05
6.79944e-05
5.92377e-05
5.11048e-05
4.3712e-05
9.63381e-05
9.21977e-05
8.55281e-05
7.72301e-05
6.87332e-05
6.02528e-05
5.22014e-05
4.46604e-05
0.000102053
9.7334e-05
8.95795e-05
8.04175e-05
7.12907e-05
6.23603e-05
5.39501e-05
4.61195e-05
0.00010759
0.000101512
9.31173e-05
8.37766e-05
7.41307e-05
6.47817e-05
5.60114e-05
4.787e-05
0.000244206
0.000212407
0.000178285
0.000147157
0.000120271
9.73314e-05
7.78313e-05
6.16882e-05
0.000244447
0.000213728
0.000179437
0.000148509
0.000121382
9.82219e-05
7.8584e-05
6.24001e-05
0.000243521
0.000213365
0.000179395
0.000148717
0.00012173
9.86453e-05
7.90242e-05
6.28214e-05
0.000245188
0.000214913
0.000181024
0.00014969
0.000121871
9.85319e-05
7.90167e-05
6.29603e-05
0.00024464
0.000214308
0.000180395
0.000149783
0.000122858
9.97489e-05
8.00284e-05
6.36938e-05
0.000248793
0.000217854
0.000183465
0.000152299
0.0001249
0.000101364
8.12719e-05
6.46165e-05
0.000249881
0.000218896
0.000184716
0.000153387
0.000126105
0.000102629
8.25017e-05
6.56898e-05
0.000389108
0.000317243
0.000249892
0.000191786
0.000145807
0.000110649
8.42699e-05
6.51416e-05
0.000387199
0.000316787
0.000250357
0.000192543
0.00014659
0.000111424
8.50912e-05
6.607e-05
0.000387838
0.00031873
0.000251944
0.000193782
0.000147604
0.000112285
8.58593e-05
6.67914e-05
0.000388208
0.000319152
0.000252416
0.000194362
0.000148213
0.000112835
8.63597e-05
6.7278e-05
0.000390695
0.000321871
0.000253716
0.00019492
0.000148555
0.000113153
8.66415e-05
6.74724e-05
0.000395647
0.00032652
0.000256413
0.000196564
0.00014968
0.000113957
8.71851e-05
6.77813e-05
0.000398516
0.000329264
0.000257507
0.000197023
0.000150043
0.000114362
8.75892e-05
6.80817e-05
0.00102122
0.000634898
0.00037512
0.000242164
0.000167013
0.000120272
8.97434e-05
6.97625e-05
0.00102463
0.000637844
0.00037783
0.000244298
0.000168678
0.000121674
9.10649e-05
7.11057e-05
0.00102727
0.000639695
0.000380308
0.000246564
0.000170474
0.000123094
9.22552e-05
7.21682e-05
0.0010258
0.0006384
0.000379703
0.000246526
0.000170743
0.000123521
9.27678e-05
7.27261e-05
0.00102402
0.000635926
0.000378147
0.000245868
0.000170538
0.000123498
9.27721e-05
7.26901e-05
0.00102034
0.000632922
0.000376511
0.000245132
0.000170155
0.000123221
9.24789e-05
7.23326e-05
0.00101691
0.000629928
0.000374152
0.000243433
0.000168923
0.00012229
9.16701e-05
7.14962e-05
0.000815535
0.000649284
0.000409888
0.000263505
0.00017703
0.000124611
9.23159e-05
7.26557e-05
0.000822182
0.000656638
0.000415921
0.000267682
0.00017995
0.000126849
9.42412e-05
7.44606e-05
0.000826999
0.000663354
0.000421779
0.000271769
0.000182673
0.000128779
9.57541e-05
7.57625e-05
0.000823538
0.000660458
0.000420032
0.00027108
0.000182626
0.00012908
9.62378e-05
7.63297e-05
0.00082057
0.000657432
0.000417577
0.000269447
0.000181671
0.000128509
9.58364e-05
7.59799e-05
0.000815653
0.000652348
0.000413565
0.000266769
0.000179867
0.000127175
9.47178e-05
7.49422e-05
0.000804799
0.000641261
0.000404885
0.000260839
0.000175835
0.000124304
9.24721e-05
7.29564e-05
0.000110715
0.000105907
9.7754e-05
8.78719e-05
7.76467e-05
6.7846e-05
5.87022e-05
5.02673e-05
9.55583e-05
9.19477e-05
8.79955e-05
8.21243e-05
7.45196e-05
6.64682e-05
5.8515e-05
5.08566e-05
8.10146e-05
7.53984e-05
7.02294e-05
6.49757e-05
5.96207e-05
5.38857e-05
4.84855e-05
4.30393e-05
7.32995e-05
6.66131e-05
6.05971e-05
5.47803e-05
4.95707e-05
4.46756e-05
3.99983e-05
3.5445e-05
7.93721e-05
7.33951e-05
6.78202e-05
6.22593e-05
5.67918e-05
5.1406e-05
4.62355e-05
4.11087e-05
9.17338e-05
8.74783e-05
8.25595e-05
7.67286e-05
6.96704e-05
6.22602e-05
5.48427e-05
4.75225e-05
0.000104901
0.000100062
9.27193e-05
8.37026e-05
7.41791e-05
6.49556e-05
5.625e-05
4.81696e-05
0.000249419
0.000217061
0.000182006
0.000150554
0.000123844
0.000101402
8.23969e-05
6.64271e-05
0.000253217
0.000222432
0.000189009
0.00015739
0.000130096
0.000107334
8.82803e-05
7.24267e-05
0.000248674
0.000211998
0.000177406
0.000147651
0.000121911
0.000100277
8.11225e-05
6.43415e-05
0.000236573
0.000198711
0.000164099
0.000134805
0.000110756
9.01845e-05
7.29147e-05
5.87418e-05
0.000227171
0.000192215
0.000159768
0.000131818
0.000108147
8.79103e-05
7.04964e-05
5.55938e-05
0.000231225
0.000202184
0.000172288
0.000144051
0.000119606
9.88429e-05
8.09916e-05
6.58602e-05
0.000240067
0.000210277
0.000176997
0.000146728
0.000120789
9.88254e-05
8.01443e-05
6.44785e-05
0.000389026
0.000319615
0.000249459
0.000190523
0.000145102
0.000110816
8.50932e-05
6.61638e-05
0.000399234
0.000320691
0.000258941
0.000204518
0.000160661
0.000126696
0.000100548
8.05662e-05
0.000410279
0.000311169
0.00025021
0.000209098
0.000176506
0.000146692
0.000119336
9.44628e-05
0.000380032
0.000277605
0.000211009
0.000164605
0.000129516
0.000102005
8.03396e-05
6.34574e-05
0.000370072
0.000272103
0.000211975
0.000172143
0.000143158
0.000117768
9.51563e-05
7.52578e-05
0.000369286
0.000294048
0.000241191
0.00019275
0.000152497
0.000120678
9.58047e-05
7.6629e-05
0.000376055
0.000310156
0.000244563
0.000188079
0.000143885
0.000110261
8.49225e-05
6.62389e-05
0.00100691
0.000613237
0.000357456
0.000229295
0.00015771
0.000113528
8.46347e-05
6.54843e-05
0.00109501
0.000684497
0.00040409
0.000260105
0.000181216
0.000133784
0.000103088
8.23317e-05
0.0012272
0.000815258
0.000513364
0.000343688
0.000247496
0.000191414
0.000156667
0.000133398
0.00110214
0.000723506
0.000450084
0.000292549
0.000198397
0.000138634
9.88853e-05
7.19243e-05
0.00116779
0.000775056
0.000487126
0.000324963
0.000230521
0.000173509
0.000136945
0.000111956
0.00108305
0.000687792
0.000408962
0.00026396
0.000184214
0.00013604
0.000104707
8.34527e-05
0.000999745
0.0006143
0.000359815
0.000231501
0.000159833
0.000115611
8.66759e-05
6.74493e-05
0.000738514
0.000576452
0.000359106
0.00023005
0.000154505
0.000108886
8.06524e-05
6.32049e-05
0.00077322
0.0006007
0.000375351
0.000242864
0.000166681
0.000121578
9.39725e-05
7.67478e-05
0.000892662
0.000701467
0.000452766
0.000304915
0.000220489
0.000171567
0.000142523
0.000125067
0.00107583
0.00086496
0.000595184
0.000427243
0.000322915
0.000252482
0.000198594
0.000152066
0.000925053
0.000731322
0.000476304
0.000323064
0.000234024
0.000180734
0.000147164
0.000125205
0.000799261
0.000622596
0.000391112
0.000254488
0.000175707
0.000128822
9.98076e-05
8.14143e-05
0.000747116
0.000584605
0.000365204
0.000234516
0.000158074
0.000111989
8.34787e-05
6.58077e-05
0.000106489
0.000101861
9.39495e-05
8.4176e-05
7.40599e-05
6.43931e-05
5.55311e-05
4.73961e-05
9.57416e-05
9.3976e-05
9.01479e-05
8.32355e-05
7.45371e-05
6.50163e-05
5.62269e-05
4.81792e-05
6.74372e-05
6.32889e-05
5.99548e-05
5.67224e-05
5.43476e-05
5.0827e-05
4.60199e-05
4.03728e-05
7.06561e-05
6.50313e-05
5.93421e-05
5.3087e-05
4.75943e-05
4.24111e-05
3.74145e-05
3.27319e-05
8.39789e-05
8.01725e-05
7.59853e-05
7.02165e-05
6.3402e-05
5.59979e-05
4.85711e-05
4.16985e-05
9.45991e-05
9.30564e-05
8.71166e-05
7.92683e-05
7.03554e-05
6.12499e-05
5.27466e-05
4.51081e-05
9.8514e-05
9.38074e-05
8.68201e-05
7.83174e-05
6.92678e-05
6.03845e-05
5.20804e-05
4.4408e-05
0.000249406
0.00021593
0.000179922
0.000148015
0.000121052
9.85585e-05
7.95993e-05
6.37758e-05
0.000259965
0.000229846
0.00019315
0.000158665
0.000128517
0.000103879
8.35838e-05
6.70713e-05
0.000241497
0.000215515
0.000187191
0.000160478
0.000134207
0.000110795
9.07784e-05
7.379e-05
0.000215237
0.000181822
0.000147669
0.000118437
9.34378e-05
7.3044e-05
5.66118e-05
4.37163e-05
0.000230623
0.000199432
0.000166463
0.000136497
0.00011081
8.95199e-05
7.23021e-05
5.84821e-05
0.000244389
0.000211722
0.000177431
0.000145802
0.000118438
9.53809e-05
7.64074e-05
6.0817e-05
0.000246204
0.00021412
0.000178988
0.000147196
0.00011984
9.66678e-05
7.71879e-05
6.11397e-05
0.000386929
0.000317092
0.000247371
0.000188806
0.000143542
0.000109299
8.36046e-05
6.47902e-05
0.000391259
0.000320317
0.000253995
0.000196136
0.000150166
0.000115034
8.87889e-05
6.98012e-05
0.000370954
0.000300928
0.000248636
0.000198906
0.00015702
0.00012453
0.000100422
8.33718e-05
0.00034041
0.000271745
0.000226289
0.000186563
0.000150951
0.000120808
9.53224e-05
7.30143e-05
0.00036194
0.000289597
0.000233204
0.000182726
0.000141645
0.000110366
8.74263e-05
7.11464e-05
0.000384476
0.00031092
0.000245392
0.00018868
0.000143666
0.000109317
8.36339e-05
6.50327e-05
0.000388834
0.000316102
0.00024858
0.000190501
0.000144637
0.000109644
8.34266e-05
6.44056e-05
0.0009866
0.000604121
0.000354432
0.000228708
0.000157751
0.000113511
8.44178e-05
6.51734e-05
0.00100309
0.000617841
0.000362907
0.000233968
0.000161651
0.000116904
8.77452e-05
6.86525e-05
0.000997358
0.000622044
0.000364979
0.000234613
0.000163287
0.00012048
9.36405e-05
7.68556e-05
0.000987753
0.000625432
0.000374287
0.000244848
0.000175983
0.000137032
0.000114253
0.00010065
0.000990529
0.000616872
0.000361568
0.000231839
0.000160766
0.000118262
9.16577e-05
7.48014e-05
0.00100616
0.000623929
0.000366767
0.000235733
0.000162311
0.000117034
8.76446e-05
6.84345e-05
0.00101466
0.0006296
0.000371044
0.00023906
0.000164642
0.000118425
8.82344e-05
6.84346e-05
0.000751506
0.000591878
0.000371495
0.000238588
0.000160025
0.00011224
8.25868e-05
6.43443e-05
0.000762523
0.000601574
0.000378195
0.000242868
0.000162985
0.000114585
8.47392e-05
6.65288e-05
0.00077058
0.000607899
0.000382074
0.000245317
0.000165263
0.00011753
8.88104e-05
7.18089e-05
0.000773503
0.000610291
0.000383086
0.000246424
0.000167906
0.000122674
9.70187e-05
8.33146e-05
0.00077417
0.000611674
0.000383647
0.000245757
0.000165279
0.000117452
8.87956e-05
7.18603e-05
0.000788023
0.00062485
0.000393226
0.000252211
0.000169181
0.000119058
8.82871e-05
6.95765e-05
0.000803878
0.000638641
0.000402371
0.000258381
0.000173427
0.000121934
9.01739e-05
7.0798e-05
0.000107309
0.000102072
9.45655e-05
8.55272e-05
7.59459e-05
6.65965e-05
5.77989e-05
4.95938e-05
9.60207e-05
9.15637e-05
8.71317e-05
8.06297e-05
7.30013e-05
6.48672e-05
5.69151e-05
4.92743e-05
8.52513e-05
7.81215e-05
7.19913e-05
6.5835e-05
5.97084e-05
5.36107e-05
4.77274e-05
4.20969e-05
7.54619e-05
6.80471e-05
6.14291e-05
5.5289e-05
4.96367e-05
4.44874e-05
3.96662e-05
3.50444e-05
7.68042e-05
7.16226e-05
6.70046e-05
6.2037e-05
5.69284e-05
5.18626e-05
4.67373e-05
4.16114e-05
9.36163e-05
8.97045e-05
8.65198e-05
8.14461e-05
7.42754e-05
6.63004e-05
5.83167e-05
5.06528e-05
0.000110604
0.000105373
9.69939e-05
8.69613e-05
7.67058e-05
6.69933e-05
5.80008e-05
4.96805e-05
0.000247177
0.000218066
0.000184704
0.000153862
0.000126886
0.000103728
8.39338e-05
6.7308e-05
0.000237576
0.000210085
0.000179116
0.00015027
0.000124752
0.000102895
8.42344e-05
6.8413e-05
0.000223847
0.000190105
0.000157626
0.000129677
0.000106001
8.59132e-05
6.84521e-05
5.33733e-05
0.000232108
0.000193774
0.000158503
0.000128862
0.000104257
8.40463e-05
6.75108e-05
5.40325e-05
0.000241881
0.000208656
0.000176482
0.000148317
0.000123991
0.000103164
8.47977e-05
6.78246e-05
0.000256589
0.000227588
0.000193877
0.000160675
0.000132275
0.000108666
8.90658e-05
7.26149e-05
0.000250581
0.000216895
0.000181049
0.000149402
0.000122876
0.000100725
8.20043e-05
6.62222e-05
0.000394993
0.000327261
0.000258169
0.000198728
0.000152184
0.000116805
9.02221e-05
7.06931e-05
0.000381677
0.000310441
0.0002527
0.000200369
0.000157349
0.000123779
9.8189e-05
7.91019e-05
0.000354681
0.000268043
0.000214844
0.000179916
0.000149484
0.000122078
9.82399e-05
7.79778e-05
0.000356393
0.000261232
0.000198997
0.000154926
0.000120912
9.42011e-05
7.3513e-05
5.78857e-05
0.000395096
0.000309758
0.00025707
0.000219658
0.000184831
0.000153391
0.000126582
0.000104497
0.000400837
0.000324877
0.000260635
0.000204397
0.000159261
0.000124341
9.77036e-05
7.77787e-05
0.000390284
0.00032025
0.000249629
0.000190542
0.000145121
0.000110897
8.52333e-05
6.63422e-05
0.00102866
0.000637897
0.000377415
0.000244599
0.00016987
0.000123655
9.34602e-05
7.34608e-05
0.00108232
0.00068446
0.000406932
0.000262973
0.000183842
0.000136341
0.000105841
8.55384e-05
0.00113421
0.000746659
0.00046452
0.000306526
0.000218481
0.000166889
0.000134253
0.000112306
0.00110535
0.000736909
0.000463185