/*--------------------------------*- C++ -*----------------------------------*\
| =========                 |                                                 |
| \\      /  F ield         | OpenFOAM: The Open Source CFD Toolbox           |
|  \\    /   O peration     | Version:  plus.master.MPPICInterFoam            |
|   \\  /    A nd           | Web:      www.OpenFOAM.com                      |
|    \\/     M anipulation  |                                                 |
\*---------------------------------------------------------------------------*/
FoamFile
{
    version     2.0;
    format      ascii;
    class       volScalarField;
    location    "12.2";
    object      p;
}
// * * * * * * * * * * * * * * * * * * * * * * * * * * * * * * * * * * * * * //

dimensions      [1 -1 -2 0 0 0 0];

internalField   nonuniform List<scalar> 
11821
(
5680.84
5689.75
5692.14
5693.49
5692.24
5688.27
5679.4
5690.6
5721.52
5721.79
5723.22
5720.56
5719.8
5687.62
5693.66
5722.23
5724.88
5720.84
5724.2
5720.44
5690.75
5695.6
5723.26
5721.73
5723.13
5721.11
5723.73
5691.84
5694.46
5722.32
5725.19
5722.04
5724.5
5721.54
5690.86
5690.56
5722.45
5722.88
5722.93
5722.31
5720.07
5688.19
5681.21
5689.97
5693.49
5694.73
5693.49
5689.88
5679.29
5530.55
5535.24
5538.07
5538.93
5537.36
5533.9
5529.52
5535.63
5544.01
5549.22
5550.84
5547.47
5541.58
5533.88
5539.88
5551.12
5562.34
5563.75
5558.66
5547.02
5536.93
5540.95
5552.4
5565.21
5570.31
5560.43
5549.02
5538
5539.95
5550.73
5562.69
5565.11
5559.72
5547.56
5537.04
5536.15
5545.98
5550.15
5552.15
5549.05
5541.71
5534.01
5531.09
5536.12
5539.35
5540.28
5538.51
5534.48
5529.69
5367.31
5365.03
5362.84
5361.94
5363.66
5366.43
5369.08
5364.37
5360.37
5356.49
5354.54
5357.36
5363.1
5367.11
5361.21
5356.59
5359.23
5358.06
5355.05
5358.78
5365.49
5359.36
5351.86
5357.5
5360.92
5354.34
5356.49
5364.74
5360.47
5354.44
5357.05
5357.74
5356.51
5358.24
5365.2
5363.13
5358.86
5354.12
5352.09
5355.81
5361.75
5366.46
5366.35
5363.46
5360.92
5359.78
5361.74
5365.21
5368.22
5207.96
5199.38
5191.71
5189.78
5195.91
5204.54
5213
5197.28
5181.75
5168.19
5166.55
5175.54
5192.14
5205.91
5186.34
5168.43
5170.93
5171.66
5168.17
5178.82
5199.98
5182.07
5166
5172.12
5173.83
5167.28
5172.86
5197.28
5186.11
5169.3
5173.38
5173.91
5170.6
5176.01
5198.94
5195.95
5180.07
5169.68
5168.63
5172.38
5188.81
5204.26
5206.59
5196.74
5187.89
5184.84
5191.6
5201.64
5211.17
5067.15
5060.29
5054.67
5054.35
5058.92
5065.27
5071.56
5058.53
5045.62
5035.06
5036.77
5043.97
5055.81
5066.12
5050.45
5036.09
5043.16
5045.43
5038.9
5046.3
5061.6
5046.79
5037.85
5044.12
5045.63
5037.84
5039.57
5059.13
5050.25
5038.19
5044.87
5045.9
5041.58
5043.34
5060.6
5057.78
5044.52
5037.94
5039.18
5039.96
5052.47
5064.5
5066.43
5058.5
5052
5048.85
5054.99
5062.48
5069.83
5672.08
5667.62
5663.93
5660.48
5657.65
5655.3
5653.34
5651.72
5677.47
5671.89
5666.42
5662.03
5658.62
5655.89
5653.67
5651.85
5679.67
5673.61
5667.88
5662.94
5659.15
5656.16
5653.76
5651.8
5680.32
5674.67
5668.44
5663.04
5659.16
5656.11
5653.64
5651.63
5679.7
5673.88
5667.84
5662.8
5659.04
5656.03
5653.62
5651.66
5677.41
5671.65
5666.46
5662
5658.53
5655.75
5653.5
5651.66
5672.09
5668.07
5663.97
5660.36
5657.5
5655.12
5653.13
5651.48
5526.11
5523.65
5521.68
5520.1
5518.85
5517.86
5517.07
5516.45
5528.59
5525.18
5522.62
5520.67
5519.18
5518.02
5517.11
5516.4
5530.42
5526.24
5523.23
5521.01
5519.34
5518.08
5517.1
5516.35
5531.08
5526.62
5523.44
5521.1
5519.37
5518.08
5517.09
5516.33
5530.42
5526.21
5523.17
5520.93
5519.26
5518
5517.03
5516.31
5528.56
5525.07
5522.48
5520.51
5519
5517.85
5516.95
5516.25
5526.05
5523.52
5521.49
5519.87
5518.59
5517.58
5516.77
5516.13
5371.31
5372.72
5373.92
5374.92
5375.75
5376.46
5377.07
5377.63
5369.86
5371.83
5373.35
5374.55
5375.52
5376.33
5377.03
5377.67
5368.79
5371.04
5372.79
5374.16
5375.26
5376.16
5376.93
5377.62
5368.31
5370.68
5372.51
5373.94
5375.1
5376.04
5376.83
5377.54
5368.53
5370.78
5372.54
5373.93
5375.06
5375.98
5376.75
5377.43
5369.26
5371.27
5372.85
5374.11
5375.13
5375.98
5376.7
5377.35
5370.46
5371.92
5373.19
5374.26
5375.16
5375.91
5376.56
5377.16
5219.53
5224
5227.8
5231.04
5233.89
5236.52
5239.06
5241.6
5215.15
5221.29
5226.03
5229.85
5233.09
5236
5238.78
5241.54
5211.68
5219.08
5224.6
5228.92
5232.48
5235.61
5238.56
5241.47
5210.08
5218.06
5223.92
5228.47
5232.18
5235.41
5238.43
5241.4
5211.04
5218.59
5224.19
5228.58
5232.19
5235.37
5238.36
5241.29
5213.96
5220.33
5225.23
5229.18
5232.52
5235.51
5238.36
5241.18
5218.09
5222.68
5226.63
5230
5232.97
5235.7
5238.34
5240.95
5076.51
5079.79
5082.45
5084.53
5086.05
5086.78
5086.63
5087.3
5073.23
5077.85
5081.28
5083.86
5085.72
5086.69
5086.6
5087.2
5070.56
5076.21
5080.32
5083.34
5085.5
5086.63
5086.59
5087.14
5069.21
5075.38
5079.81
5083.06
5085.35
5086.58
5086.57
5087.1
5069.94
5075.72
5079.93
5083.04
5085.28
5086.48
5086.49
5087.05
5072.11
5076.95
5080.59
5083.34
5085.36
5086.46
5086.46
5087.1
5075.05
5078.52
5081.42
5083.72
5085.46
5086.38
5086.38
5087.14
5674.22
5669.2
5664.87
5661.16
5658.09
5655.54
5653.42
5651.66
5679.53
5672.61
5667.25
5662.55
5658.93
5655.98
5653.54
5651.52
5682.51
5674.79
5668.83
5663.47
5659.5
5656.3
5653.71
5651.58
5683.38
5675.54
5669.23
5663.71
5659.66
5656.4
5653.78
5651.67
5682.03
5674.37
5668.57
5663.2
5659.24
5656.05
5653.46
5651.35
5679.5
5672.53
5666.88
5662.16
5658.62
5655.73
5653.36
5651.39
5673.97
5669
5664.7
5661.01
5657.98
5655.47
5653.39
5651.67
5527.17
5524.31
5522.02
5520.19
5518.74
5517.58
5516.66
5515.91
5530.11
5526.08
5523.13
5520.86
5519.12
5517.76
5516.69
5515.84
5532.41
5527.49
5524.03
5521.46
5519.54
5518.06
5516.91
5515.99
5533.07
5527.91
5524.28
5521.62
5519.65
5518.15
5516.98
5516.05
5532.22
5527.26
5523.81
5521.24
5519.32
5517.85
5516.71
5515.8
5529.77
5525.77
5522.89
5520.67
5518.97
5517.64
5516.6
5515.77
5526.82
5524.04
5521.83
5520.05
5518.64
5517.52
5516.64
5515.94
5368.93
5370.63
5372.06
5373.27
5374.28
5375.13
5375.85
5376.49
5366.82
5369.28
5371.16
5372.63
5373.82
5374.8
5375.62
5376.36
5365.37
5368.39
5370.62
5372.32
5373.64
5374.71
5375.6
5376.37
5364.77
5368.01
5370.39
5372.2
5373.59
5374.71
5375.64
5376.44
5365.68
5368.49
5370.62
5372.28
5373.58
5374.63
5375.51
5376.27
5367.48
5369.68
5371.41
5372.79
5373.92
5374.85
5375.63
5376.33
5369.54
5371.09
5372.42
5373.54
5374.47
5375.27
5375.94
5376.55
5214.18
5219.53
5224.02
5227.87
5231.21
5234.21
5237.03
5239.76
5207.89
5215.65
5221.39
5225.97
5229.82
5233.19
5236.31
5239.31
5202.56
5212.58
5219.55
5224.77
5229
5232.67
5236
5239.16
5200.3
5211.35
5218.9
5224.4
5228.79
5232.54
5235.94
5239.12
5202.73
5212.65
5219.57
5224.79
5229.03
5232.67
5235.98
5239.11
5208.6
5216.11
5221.74
5226.24
5230
5233.3
5236.36
5239.31
5215.1
5220.32
5224.68
5228.4
5231.61
5234.51
5237.25
5239.93
5072.22
5076.43
5079.92
5082.76
5084.93
5086.21
5086.56
5087.63
5067.31
5073.41
5077.86
5081.33
5083.98
5085.59
5086.13
5087.32
5063.05
5070.97
5076.31
5080.24
5083.22
5085.08
5085.79
5087.26
5061.36
5070.04
5075.78
5079.85
5082.9
5084.82
5085.57
5087.21
5063.14
5070.97
5076.26
5080.18
5083.11
5084.94
5085.6
5087.07
5067.62
5073.58
5077.95
5081.32
5083.86
5085.43
5085.89
5087.07
5072.73
5076.86
5080.19
5082.85
5084.85
5085.99
5086.24
5087.24
5673.56
5668.79
5664.58
5660.89
5657.87
5655.36
5653.28
5651.53
5678.58
5672.13
5666.91
5662.38
5658.82
5655.94
5653.61
5651.68
5681
5674.43
5668.29
5663.22
5659.37
5656.28
5653.77
5651.72
5682.03
5674.87
5668.5
5663.35
5659.39
5656.23
5653.69
5651.63
5681.06
5673.77
5667.99
5662.91
5659.09
5656.04
5653.59
5651.58
5677.97
5671.45
5666.42
5662.05
5658.61
5655.82
5653.54
5651.65
5672.6
5667.88
5663.99
5660.55
5657.7
5655.35
5653.39
5651.77
5526.7
5523.99
5521.81
5520.07
5518.68
5517.58
5516.71
5516.01
5529.37
5525.62
5522.86
5520.76
5519.14
5517.89
5516.91
5516.14
5531.13
5526.72
5523.54
5521.19
5519.43
5518.1
5517.06
5516.24
5531.64
5527
5523.68
5521.25
5519.44
5518.07
5517
5516.16
5530.76
5526.43
5523.33
5521.02
5519.28
5517.96
5516.94
5516.13
5528.72
5525.22
5522.63
5520.63
5519.09
5517.91
5516.97
5516.24
5526.16
5523.69
5521.7
5520.09
5518.83
5517.82
5517.02
5516.39
5369.65
5371.2
5372.53
5373.66
5374.61
5375.42
5376.12
5376.75
5368.1
5370.3
5372
5373.35
5374.46
5375.38
5376.16
5376.86
5366.89
5369.54
5371.56
5373.13
5374.39
5375.4
5376.26
5377.04
5366.52
5369.38
5371.49
5373.09
5374.36
5375.39
5376.26
5377.03
5367.51
5370.05
5371.97
5373.46
5374.65
5375.63
5376.46
5377.2
5369.22
5371.28
5372.88
5374.13
5375.16
5376
5376.73
5377.39
5371.18
5372.63
5373.84
5374.84
5375.68
5376.38
5377
5377.56
5215.5
5220.58
5224.91
5228.62
5231.85
5234.77
5237.54
5240.25
5210.58
5217.73
5223.12
5227.47
5231.13
5234.36
5237.38
5240.32
5206.53
5215.46
5221.81
5226.66
5230.63
5234.09
5237.29
5240.38
5205.71
5215.14
5221.67
5226.64
5230.68
5234.17
5237.39
5240.5
5208.8
5216.94
5222.9
5227.53
5231.33
5234.64
5237.72
5240.73
5213.81
5220.22
5225.17
5229.14
5232.49
5235.49
5238.32
5241.12
5219.32
5223.84
5227.65
5230.9
5233.76
5236.4
5238.95
5241.48
5072.89
5076.85
5080.16
5082.82
5084.85
5086.01
5086.24
5087.2
5069.26
5074.83
5078.96
5082.15
5084.54
5085.95
5086.24
5087.15
5066.43
5073.3
5078.08
5081.6
5084.23
5085.78
5086.12
5087.03
5066.2
5073.28
5078.09
5081.67
5084.29
5085.81
5086.11
5086.99
5068.54
5074.63
5079.04
5082.32
5084.72
5086.07
5086.24
5087.01
5072.32
5077.16
5080.77
5083.5
5085.49
5086.55
5086.55
5087.23
5076.34
5079.69
5082.36
5084.46
5086.01
5086.75
5086.62
5087.3
5672.75
5668
5664
5660.46
5657.55
5655.14
5653.15
5651.5
5679.06
5672.16
5666.56
5662.08
5658.59
5655.75
5653.4
5651.46
5681.85
5674.17
5668.4
5662.94
5659.1
5655.97
5653.45
5651.38
5682.87
5675.14
5668.93
5663.36
5659.45
5656.26
5653.68
5651.61
5682.19
5674.58
5668.47
5663.42
5659.44
5656.28
5653.72
5651.64
5679.41
5672.79
5667.14
5662.63
5659
5656.05
5653.62
5651.64
5674.08
5669.16
5664.83
5661.15
5658.08
5655.53
5653.41
5651.64
5526.22
5523.63
5521.56
5519.89
5518.56
5517.51
5516.67
5516.02
5529.05
5525.33
5522.6
5520.5
5518.89
5517.63
5516.64
5515.86
5531.43
5526.74
5523.49
5521.04
5519.22
5517.82
5516.72
5515.85
5532.45
5527.47
5524
5521.44
5519.54
5518.1
5516.97
5516.08
5531.98
5527.31
5523.94
5521.46
5519.59
5518.16
5517.03
5516.14
5530.04
5526.12
5523.19
5520.96
5519.24
5517.89
5516.83
5515.99
5527.15
5524.32
5522.03
5520.21
5518.76
5517.61
5516.69
5515.95
5370.27
5371.79
5373.05
5374.1
5374.97
5375.7
5376.33
5376.91
5368.12
5370.27
5371.94
5373.27
5374.36
5375.2
5375.96
5376.64
5366.15
5368.95
5371.06
5372.66
5373.91
5374.94
5375.79
5376.54
5365.1
5368.35
5370.72
5372.5
5373.87
5374.97
5375.88
5376.68
5365.66
5368.68
5370.92
5372.61
5373.93
5374.99
5375.87
5376.64
5367.14
5369.6
5371.44
5372.88
5374.05
5375.01
5375.82
5376.54
5369
5370.68
5372.11
5373.32
5374.34
5375.19
5375.91
5376.55
5217.53
5222.33
5226.33
5229.71
5232.66
5235.37
5237.97
5240.56
5211.34
5218.11
5223.3
5227.49
5230.99
5234.09
5237.01
5239.88
5205.69
5214.6
5220.98
5225.88
5229.9
5233.39
5236.61
5239.69
5202.33
5212.83
5219.98
5225.23
5229.47
5233.12
5236.43
5239.56
5203.87
5213.6
5220.34
5225.41
5229.54
5233.14
5236.44
5239.59
5208.65
5216.24
5221.88
5226.38
5230.17
5233.51
5236.6
5239.59
5214.31
5219.63
5224.11
5227.95
5231.29
5234.29
5237.11
5239.85
5074.76
5078.43
5081.32
5083.61
5085.34
5086.27
5086.33
5087.18
5069.95
5075.2
5079.13
5082.13
5084.4
5085.73
5086.03
5087.06
5065.6
5072.43
5077.26
5080.91
5083.63
5085.25
5085.75
5087.1
5062.78
5071.13
5076.52
5080.4
5083.3
5085.09
5085.71
5087.24
5064.14
5071.72
5076.85
5080.65
5083.53
5085.33
5085.94
5087.32
5067.86
5073.83
5078.17
5081.58
5084.18
5085.78
5086.28
5087.43
5072.29
5076.48
5079.97
5082.8
5084.96
5086.24
5086.58
5087.65
5650.39
5650.46
5650.37
5650.18
5650.21
5650.25
5650.13
5515.99
5515.9
5515.84
5515.84
5515.83
5515.76
5515.63
5378.2
5378.29
5378.27
5378.21
5378.07
5377.99
5377.78
5243.98
5244.03
5244.02
5243.98
5243.85
5243.68
5243.38
5092.75
5092.89
5092.98
5092.99
5092.89
5092.76
5092.6
5650.21
5649.97
5649.99
5650.13
5649.77
5649.87
5650.23
5515.32
5515.22
5515.32
5515.39
5515.15
5515.16
5515.4
5377.13
5377.02
5377.02
5377.12
5376.92
5376.98
5377.15
5242.27
5241.94
5241.86
5241.77
5241.79
5241.96
5242.42
5093.21
5093.33
5093.99
5094.5
5093.92
5093.19
5092.84
5650.09
5650.19
5650.2
5650.12
5650.07
5650.23
5650.44
5515.47
5515.58
5515.65
5515.57
5515.57
5515.72
5515.93
5377.38
5377.51
5377.74
5377.73
5377.88
5378.03
5378.13
5242.74
5242.91
5243.06
5243.22
5243.35
5243.63
5243.87
5092.76
5092.98
5093.1
5093.16
5093.01
5092.97
5092.76
5650.14
5649.97
5649.84
5650.1
5650.09
5650.11
5650.18
5515.52
5515.28
5515.23
5515.45
5515.49
5515.37
5515.37
5377.5
5377.27
5377.22
5377.35
5377.29
5377.2
5377.18
5243
5242.49
5242.35
5242.19
5242.28
5242.21
5242.35
5092.75
5093.13
5093.88
5094.45
5093.96
5093.42
5093.23
5648.45
5646.49
5645.11
5644.12
5643.4
5642.86
5642.44
5642.11
5648.56
5646.59
5645.18
5644.17
5643.43
5642.88
5642.46
5642.13
5648.47
5646.54
5645.15
5644.15
5643.42
5642.87
5642.45
5642.12
5648.35
5646.47
5645.1
5644.13
5643.41
5642.85
5642.43
5642.11
5648.3
5646.4
5645.04
5644.06
5643.35
5642.82
5642.41
5642.09
5648.3
5646.39
5645.02
5644.03
5643.32
5642.79
5642.38
5642.06
5648.14
5646.19
5644.84
5643.89
5643.2
5642.69
5642.3
5641.98
5515.26
5514.38
5513.71
5513.2
5512.81
5512.52
5512.28
5512.09
5515.2
5514.4
5513.74
5513.24
5512.85
5512.55
5512.32
5512.12
5515.18
5514.37
5513.73
5513.23
5512.84
5512.55
5512.32
5512.12
5515.19
5514.37
5513.72
5513.22
5512.83
5512.54
5512.3
5512.11
5515.12
5514.28
5513.63
5513.14
5512.76
5512.48
5512.26
5512.07
5515.04
5514.19
5513.55
5513.06
5512.69
5512.41
5512.2
5512.01
5514.89
5514.03
5513.38
5512.9
5512.55
5512.28
5512.07
5511.9
5379.15
5380.13
5380.83
5381.31
5381.61
5381.79
5381.88
5381.91
5379.19
5380.16
5380.87
5381.35
5381.65
5381.83
5381.92
5381.95
5379.17
5380.15
5380.86
5381.34
5381.65
5381.83
5381.92
5381.95
5379.13
5380.12
5380.83
5381.31
5381.62
5381.8
5381.9
5381.93
5379.06
5380.06
5380.78
5381.26
5381.57
5381.75
5381.85
5381.89
5378.99
5379.98
5380.69
5381.18
5381.49
5381.68
5381.78
5381.82
5378.8
5379.79
5380.51
5381.01
5381.33
5381.53
5381.64
5381.69
5246.94
5248.57
5249.7
5250.47
5250.99
5251.34
5251.59
5251.75
5246.98
5248.61
5249.73
5250.5
5251.02
5251.37
5251.62
5251.78
5246.96
5248.59
5249.72
5250.49
5251.01
5251.37
5251.61
5251.78
5246.92
5248.55
5249.68
5250.45
5250.98
5251.34
5251.59
5251.76
5246.8
5248.45
5249.59
5250.38
5250.91
5251.28
5251.54
5251.71
5246.64
5248.32
5249.48
5250.28
5250.83
5251.2
5251.46
5251.64
5246.38
5248.12
5249.31
5250.13
5250.68
5251.07
5251.33
5251.51
5104.92
5112.68
5116.56
5118.73
5120.02
5120.82
5121.33
5121.65
5104.98
5112.71
5116.59
5118.75
5120.04
5120.84
5121.35
5121.68
5104.99
5112.71
5116.58
5118.74
5120.03
5120.84
5121.35
5121.68
5104.97
5112.68
5116.55
5118.72
5120.01
5120.81
5121.33
5121.66
5104.91
5112.62
5116.5
5118.67
5119.96
5120.76
5121.28
5121.61
5104.85
5112.56
5116.44
5118.6
5119.9
5120.7
5121.22
5121.55
5104.79
5112.49
5116.36
5118.52
5119.81
5120.61
5121.12
5121.45
5648.05
5645.98
5644.52
5643.48
5642.74
5642.21
5641.82
5641.51
5647.87
5645.81
5644.35
5643.29
5642.52
5641.97
5641.57
5641.25
5647.87
5645.78
5644.27
5643.18
5642.39
5641.81
5641.39
5641.07
5648.1
5646.04
5644.54
5643.42
5642.6
5642
5641.55
5641.23
5647.67
5645.61
5644.15
5643.09
5642.33
5641.78
5641.37
5641.07
5647.79
5645.78
5644.33
5643.28
5642.53
5641.99
5641.6
5641.29
5648.14
5646.08
5644.62
5643.58
5642.83
5642.29
5641.9
5641.59
5514.48
5513.54
5512.84
5512.32
5511.95
5511.68
5511.48
5511.32
5514.37
5513.51
5512.8
5512.27
5511.86
5511.56
5511.34
5511.17
5514.43
5513.48
5512.76
5512.21
5511.79
5511.48
5511.24
5511.05
5514.51
5513.57
5512.86
5512.32
5511.89
5511.57
5511.34
5511.16
5514.28
5513.36
5512.67
5512.15
5511.76
5511.45
5511.22
5511.04
5514.33
5513.48
5512.8
5512.28
5511.88
5511.59
5511.37
5511.21
5514.55
5513.63
5512.94
5512.43
5512.07
5511.8
5511.6
5511.44
5378.13
5379.12
5379.84
5380.35
5380.69
5380.9
5381.03
5381.09
5377.99
5378.89
5379.62
5380.14
5380.49
5380.71
5380.85
5380.93
5377.96
5378.9
5379.6
5380.1
5380.44
5380.66
5380.78
5380.85
5378.07
5379.01
5379.71
5380.19
5380.51
5380.71
5380.83
5380.9
5377.85
5378.79
5379.49
5380
5380.34
5380.56
5380.7
5380.78
5377.93
5378.82
5379.56
5380.1
5380.46
5380.7
5380.86
5380.94
5378.15
5379.16
5379.91
5380.44
5380.79
5381.01
5381.14
5381.21
5245.37
5247.27
5248.58
5249.46
5250.06
5250.47
5250.75
5250.94
5245.1
5247.08
5248.4
5249.3
5249.91
5250.32
5250.6
5250.79
5245.18
5247.27
5248.62
5249.51
5250.11
5250.5
5250.74
5250.89
5245.01
5247.17
5248.54
5249.42
5249.99
5250.36
5250.61
5250.78
5245.14
5247.26
5248.6
5249.48
5250.05
5250.43
5250.67
5250.83
5245.15
5247.16
5248.47
5249.36
5249.96
5250.36
5250.64
5250.82
5245.52
5247.41
5248.71
5249.59
5250.19
5250.59
5250.88
5251.07
5105.02
5112.36
5116.06
5118.13
5119.37
5120.14
5120.64
5120.96
5105.08
5112.39
5116.06
5118.1
5119.31
5120.07
5120.55
5120.85
5105.53
5112.68
5116.29
5118.29
5119.47
5120.2
5120.66
5120.96
5105.96
5112.94
5116.47
5118.41
5119.55
5120.24
5120.67
5120.92
5105.51
5112.7
5116.33
5118.32
5119.48
5120.2
5120.65
5120.93
5105.04
5112.41
5116.11
5118.16
5119.37
5120.12
5120.6
5120.91
5104.82
5112.31
5116.08
5118.19
5119.45
5120.23
5120.74
5121.06
5647.99
5645.98
5644.58
5643.6
5642.89
5642.38
5642
5641.7
5648.13
5646.08
5644.67
5643.67
5642.94
5642.37
5641.96
5641.65
5648.16
5646.17
5644.74
5643.7
5642.94
5642.37
5641.94
5641.62
5648.12
5646.17
5644.75
5643.7
5642.94
5642.37
5641.94
5641.62
5648.09
5646.14
5644.73
5643.72
5642.99
5642.43
5642.01
5641.68
5648.35
5646.36
5644.95
5643.96
5643.23
5642.67
5642.26
5641.94
5648.47
5646.5
5645.1
5644.09
5643.36
5642.81
5642.4
5642.07
5514.67
5513.76
5513.08
5512.58
5512.21
5511.95
5511.75
5511.58
5514.85
5513.91
5513.2
5512.67
5512.27
5511.97
5511.75
5511.57
5514.86
5513.99
5513.34
5512.84
5512.44
5512.12
5511.88
5511.69
5514.79
5513.93
5513.26
5512.75
5512.34
5512.03
5511.79
5511.61
5514.84
5514.05
5513.37
5512.85
5512.45
5512.14
5511.9
5511.71
5515
5514.18
5513.52
5513.01
5512.62
5512.32
5512.09
5511.9
5515.19
5514.31
5513.64
5513.13
5512.74
5512.45
5512.22
5512.03
5378.39
5379.4
5380.14
5380.65
5380.99
5381.2
5381.32
5381.37
5378.45
5379.47
5380.22
5380.72
5381.05
5381.25
5381.35
5381.4
5378.75
5379.73
5380.44
5380.91
5381.23
5381.42
5381.52
5381.55
5378.73
5379.7
5380.4
5380.88
5381.18
5381.36
5381.45
5381.49
5378.84
5379.73
5380.45
5380.94
5381.26
5381.44
5381.54
5381.58
5378.97
5379.92
5380.62
5381.11
5381.42
5381.6
5381.7
5381.73
5379.09
5380.06
5380.77
5381.25
5381.55
5381.73
5381.82
5381.85
5245.82
5247.65
5248.91
5249.77
5250.35
5250.75
5251.03
5251.21
5245.98
5247.81
5249.06
5249.91
5250.48
5250.86
5251.12
5251.3
5246.16
5248.02
5249.23
5250.06
5250.62
5251.01
5251.27
5251.44
5246.32
5248.18
5249.41
5250.23
5250.78
5251.15
5251.39
5251.54
5246.4
5248.2
5249.4
5250.2
5250.75
5251.11
5251.36
5251.52
5246.61
5248.35
5249.53
5250.32
5250.85
5251.21
5251.45
5251.61
5246.83
5248.49
5249.63
5250.41
5250.94
5251.29
5251.54
5251.7
5104.78
5112.33
5116.14
5118.27
5119.55
5120.34
5120.85
5121.18
5104.89
5112.44
5116.24
5118.37
5119.64
5120.44
5120.95
5121.28
5104.98
5112.55
5116.35
5118.47
5119.75
5120.55
5121.07
5121.4
5105.03
5112.64
5116.46
5118.6
5119.87
5120.68
5121.19
5121.53
5104.97
5112.6
5116.44
5118.58
5119.86
5120.66
5121.18
5121.5
5104.98
5112.65
5116.5
5118.65
5119.93
5120.72
5121.23
5121.56
5104.92
5112.65
5116.53
5118.69
5119.98
5120.78
5121.29
5121.61
5648.14
5646.17
5644.77
5643.77
5643.05
5642.52
5642.13
5641.83
5647.92
5645.92
5644.51
5643.48
5642.74
5642.19
5641.79
5641.48
5647.79
5645.76
5644.32
5643.29
5642.55
5642
5641.59
5641.28
5648.11
5646.09
5644.62
5643.54
5642.73
5642.15
5641.71
5641.4
5648.03
5645.98
5644.49
5643.4
5642.61
5642.02
5641.59
5641.26
5648.02
5645.95
5644.47
5643.41
5642.65
5642.1
5641.69
5641.38
5648.03
5645.96
5644.5
5643.47
5642.74
5642.22
5641.84
5641.55
5514.73
5513.85
5513.2
5512.71
5512.35
5512.09
5511.89
5511.73
5514.49
5513.66
5513
5512.48
5512.1
5511.81
5511.59
5511.42
5514.4
5513.52
5512.86
5512.34
5511.95
5511.65
5511.43
5511.25
5514.6
5513.69
5512.99
5512.46
5512.05
5511.74
5511.51
5511.34
5514.62
5513.69
5512.97
5512.43
5512.01
5511.69
5511.44
5511.25
5514.53
5513.7
5512.94
5512.39
5511.98
5511.68
5511.45
5511.29
5514.52
5513.58
5512.88
5512.36
5511.99
5511.72
5511.52
5511.36
5378.48
5379.5
5380.25
5380.77
5381.12
5381.34
5381.46
5381.52
5378.22
5379.12
5379.84
5380.37
5380.73
5380.96
5381.11
5381.19
5378.14
5379.07
5379.78
5380.28
5380.61
5380.83
5380.97
5381.04
5378.29
5379.23
5379.91
5380.38
5380.69
5380.88
5381
5381.07
5378.24
5379.2
5379.91
5380.41
5380.73
5380.93
5381.05
5381.1
5378.15
5379.01
5379.76
5380.28
5380.62
5380.84
5380.97
5381.05
5378.18
5379.17
5379.89
5380.4
5380.74
5380.95
5381.08
5381.14
5246.07
5247.87
5249.1
5249.95
5250.52
5250.92
5251.19
5251.37
5245.64
5247.58
5248.85
5249.71
5250.29
5250.68
5250.94
5251.11
5245.64
5247.67
5248.95
5249.8
5250.36
5250.73
5250.97
5251.12
5245.41
5247.52
5248.85
5249.71
5250.27
5250.63
5250.87
5251.02
5245.56
5247.6
5248.9
5249.75
5250.32
5250.69
5250.94
5251.1
5245.34
5247.27
5248.57
5249.46
5250.06
5250.46
5250.74
5250.93
5245.44
5247.33
5248.63
5249.51
5250.11
5250.52
5250.8
5250.98
5104.89
5112.51
5116.33
5118.46
5119.73
5120.52
5121.03
5121.35
5105.12
5112.6
5116.34
5118.42
5119.64
5120.41
5120.89
5121.19
5105.57
5112.84
5116.5
5118.52
5119.71
5120.44
5120.92
5121.21
5106.01
5113.08
5116.65
5118.62
5119.78
5120.49
5120.94
5121.21
5105.56
5112.76
5116.38
5118.38
5119.57
5120.32
5120.8
5121.11
5105.18
5112.49
5116.17
5118.21
5119.44
5120.2
5120.69
5121
5105.05
5112.4
5116.1
5118.16
5119.4
5120.17
5120.67
5120.99
5641.91
5641.77
5641.66
5641.57
5641.5
5641.46
5641.43
5641.43
5641.91
5641.78
5641.67
5641.58
5641.52
5641.48
5641.45
5641.45
5641.91
5641.78
5641.67
5641.58
5641.52
5641.48
5641.45
5641.45
5641.9
5641.76
5641.66
5641.57
5641.51
5641.47
5641.44
5641.44
5641.88
5641.74
5641.63
5641.54
5641.48
5641.43
5641.41
5641.41
5641.85
5641.71
5641.6
5641.51
5641.44
5641.39
5641.37
5641.37
5641.78
5641.64
5641.53
5641.44
5641.36
5641.31
5641.29
5641.29
5511.97
5511.89
5511.82
5511.77
5511.73
5511.7
5511.68
5511.67
5512
5511.92
5511.85
5511.8
5511.76
5511.72
5511.71
5511.7
5512
5511.92
5511.85
5511.8
5511.76
5511.73
5511.71
5511.71
5511.99
5511.91
5511.84
5511.79
5511.75
5511.72
5511.7
5511.69
5511.95
5511.87
5511.8
5511.75
5511.71
5511.68
5511.66
5511.66
5511.89
5511.82
5511.75
5511.7
5511.66
5511.63
5511.61
5511.6
5511.79
5511.71
5511.65
5511.6
5511.56
5511.53
5511.51
5511.51
5381.92
5381.92
5381.91
5381.91
5381.9
5381.9
5381.89
5381.89
5381.95
5381.95
5381.95
5381.94
5381.93
5381.93
5381.92
5381.92
5381.95
5381.95
5381.95
5381.94
5381.94
5381.93
5381.93
5381.92
5381.94
5381.94
5381.94
5381.93
5381.93
5381.92
5381.91
5381.91
5381.89
5381.9
5381.9
5381.89
5381.89
5381.88
5381.88
5381.87
5381.83
5381.84
5381.84
5381.84
5381.83
5381.83
5381.83
5381.82
5381.71
5381.72
5381.73
5381.73
5381.73
5381.73
5381.73
5381.73
5251.84
5251.89
5251.94
5251.97
5251.99
5252
5252.01
5252.01
5251.87
5251.93
5251.97
5252
5252.03
5252.04
5252.05
5252.05
5251.87
5251.93
5251.97
5252.01
5252.03
5252.05
5252.05
5252.06
5251.85
5251.91
5251.96
5251.99
5252.02
5252.03
5252.04
5252.04
5251.8
5251.87
5251.91
5251.95
5251.97
5251.99
5252
5252
5251.74
5251.8
5251.85
5251.89
5251.91
5251.93
5251.94
5251.94
5251.62
5251.68
5251.73
5251.77
5251.8
5251.81
5251.83
5251.83
5121.83
5121.94
5122.02
5122.08
5122.12
5122.15
5122.16
5122.17
5121.86
5121.97
5122.05
5122.11
5122.15
5122.18
5122.2
5122.2
5121.86
5121.97
5122.05
5122.11
5122.15
5122.18
5122.2
5122.2
5121.84
5121.95
5122.03
5122.1
5122.14
5122.17
5122.19
5122.19
5121.79
5121.9
5121.99
5122.05
5122.1
5122.13
5122.14
5122.15
5121.73
5121.84
5121.93
5121.99
5122.03
5122.06
5122.08
5122.08
5121.63
5121.74
5121.82
5121.88
5121.93
5121.96
5121.97
5121.98
5641.33
5641.2
5641.1
5641
5640.92
5640.86
5640.82
5640.81
5641.06
5640.94
5640.84
5640.76
5640.7
5640.66
5640.64
5640.64
5640.88
5640.77
5640.68
5640.62
5640.57
5640.54
5640.53
5640.54
5641.05
5640.95
5640.86
5640.8
5640.76
5640.73
5640.72
5640.73
5640.89
5640.78
5640.69
5640.63
5640.59
5640.56
5640.55
5640.56
5641.1
5640.98
5640.89
5640.81
5640.75
5640.71
5640.69
5640.69
5641.4
5641.28
5641.17
5641.08
5641.01
5640.95
5640.91
5640.91
5511.22
5511.15
5511.1
5511.06
5511.02
5510.99
5510.97
5510.96
5511.06
5511
5510.95
5510.91
5510.87
5510.85
5510.83
5510.83
5510.94
5510.88
5510.83
5510.79
5510.77
5510.75
5510.75
5510.76
5511.07
5511.01
5510.96
5510.93
5510.91
5510.89
5510.89
5510.89
5510.93
5510.87
5510.82
5510.79
5510.77
5510.76
5510.76
5510.77
5511.11
5511.05
5511
5510.96
5510.94
5510.91
5510.9
5510.9
5511.34
5511.27
5511.22
5511.18
5511.15
5511.12
5511.1
5511.09
5381.12
5381.13
5381.14
5381.14
5381.14
5381.14
5381.14
5381.14
5380.96
5380.99
5381
5381.02
5381.02
5381.03
5381.03
5381.03
5380.87
5380.88
5380.88
5380.88
5380.88
5380.88
5380.88
5380.89
5380.93
5380.95
5380.97
5380.98
5381
5381
5381.01
5381.01
5380.81
5380.83
5380.85
5380.85
5380.86
5380.86
5380.87
5380.87
5380.99
5381.01
5381.04
5381.05
5381.07
5381.08
5381.08
5381.09
5381.24
5381.25
5381.27
5381.27
5381.28
5381.28
5381.28
5381.28
5251.05
5251.11
5251.16
5251.19
5251.22
5251.23
5251.24
5251.25
5250.9
5250.97
5251.02
5251.06
5251.09
5251.11
5251.12
5251.13
5250.97
5251.01
5251.04
5251.06
5251.07
5251.08
5251.08
5251.08
5250.87
5250.93
5250.98
5251.02
5251.05
5251.07
5251.09
5251.1
5250.92
5250.97
5251.01
5251.03
5251.05
5251.07
5251.07
5251.07
5250.93
5251
5251.05
5251.09
5251.12
5251.14
5251.16
5251.16
5251.17
5251.24
5251.29
5251.33
5251.36
5251.37
5251.39
5251.39
5121.13
5121.23
5121.3
5121.36
5121.4
5121.43
5121.44
5121.45
5121.01
5121.11
5121.18
5121.23
5121.27
5121.29
5121.31
5121.32
5121.11
5121.2
5121.27
5121.31
5121.33
5121.35
5121.35
5121.35
5121.05
5121.12
5121.18
5121.22
5121.25
5121.28
5121.29
5121.3
5121.08
5121.17
5121.24
5121.29
5121.33
5121.35
5121.36
5121.36
5121.07
5121.16
5121.24
5121.29
5121.33
5121.35
5121.37
5121.38
5121.24
5121.35
5121.43
5121.49
5121.53
5121.56
5121.58
5121.58
5641.51
5641.38
5641.27
5641.18
5641.11
5641.05
5641.02
5641.01
5641.45
5641.33
5641.22
5641.13
5641.07
5641.02
5640.99
5640.99
5641.42
5641.3
5641.21
5641.13
5641.08
5641.05
5641.03
5641.02
5641.44
5641.33
5641.25
5641.19
5641.14
5641.12
5641.1
5641.1
5641.49
5641.37
5641.28
5641.21
5641.17
5641.14
5641.12
5641.12
5641.73
5641.6
5641.49
5641.4
5641.34
5641.29
5641.27
5641.27
5641.87
5641.73
5641.62
5641.53
5641.46
5641.41
5641.38
5641.38
5511.48
5511.41
5511.35
5511.31
5511.27
5511.24
5511.22
5511.21
5511.47
5511.4
5511.35
5511.31
5511.27
5511.25
5511.23
5511.23
5511.56
5511.49
5511.43
5511.38
5511.35
5511.33
5511.32
5511.31
5511.51
5511.45
5511.4
5511.37
5511.35
5511.34
5511.33
5511.33
5511.59
5511.52
5511.47
5511.43
5511.4
5511.38
5511.37
5511.38
5511.78
5511.7
5511.64
5511.6
5511.56
5511.53
5511.51
5511.51
5511.91
5511.83
5511.77
5511.72
5511.68
5511.65
5511.62
5511.62
5381.39
5381.41
5381.41
5381.41
5381.42
5381.42
5381.42
5381.41
5381.42
5381.42
5381.43
5381.42
5381.42
5381.42
5381.42
5381.42
5381.56
5381.56
5381.55
5381.54
5381.53
5381.53
5381.52
5381.51
5381.51
5381.51
5381.52
5381.52
5381.52
5381.52
5381.52
5381.52
5381.59
5381.6
5381.6
5381.6
5381.59
5381.59
5381.58
5381.58
5381.74
5381.74
5381.74
5381.73
5381.73
5381.72
5381.72
5381.72
5381.86
5381.86
5381.86
5381.85
5381.85
5381.85
5381.84
5381.84
5251.31
5251.38
5251.43
5251.46
5251.49
5251.51
5251.52
5251.52
5251.39
5251.45
5251.49
5251.52
5251.53
5251.54
5251.55
5251.55
5251.54
5251.6
5251.64
5251.67
5251.69
5251.7
5251.71
5251.71
5251.61
5251.65
5251.68
5251.7
5251.71
5251.71
5251.71
5251.72
5251.61
5251.66
5251.7
5251.73
5251.75
5251.76
5251.76
5251.76
5251.69
5251.75
5251.79
5251.81
5251.83
5251.85
5251.85
5251.85
5251.78
5251.84
5251.88
5251.91
5251.94
5251.95
5251.96
5251.96
5121.36
5121.47
5121.55
5121.61
5121.65
5121.68
5121.7
5121.7
5121.45
5121.56
5121.64
5121.69
5121.73
5121.76
5121.77
5121.78
5121.59
5121.7
5121.79
5121.85
5121.9
5121.92
5121.94
5121.94
5121.7
5121.81
5121.89
5121.94
5121.96
5121.98
5121.98
5121.98
5121.68
5121.79
5121.87
5121.93
5121.97
5121.99
5122.01
5122.01
5121.73
5121.83
5121.91
5121.97
5122.01
5122.03
5122.05
5122.05
5121.79
5121.89
5121.97
5122.03
5122.07
5122.1
5122.12
5122.12
5641.64
5641.51
5641.4
5641.31
5641.24
5641.19
5641.16
5641.17
5641.29
5641.17
5641.07
5640.99
5640.94
5640.91
5640.89
5640.9
5641.1
5640.99
5640.91
5640.85
5640.81
5640.79
5640.78
5640.79
5641.22
5641.11
5641.03
5640.97
5640.93
5640.9
5640.88
5640.9
5641.07
5640.95
5640.86
5640.79
5640.74
5640.71
5640.69
5640.7
5641.19
5641.07
5640.97
5640.89
5640.82
5640.78
5640.75
5640.75
5641.36
5641.24
5641.13
5641.04
5640.96
5640.9
5640.86
5640.85
5511.62
5511.56
5511.51
5511.46
5511.43
5511.4
5511.38
5511.38
5511.32
5511.26
5511.21
5511.18
5511.14
5511.13
5511.12
5511.13
5511.15
5511.09
5511.04
5511.01
5511
5510.99
5511
5511.01
5511.24
5511.18
5511.14
5511.11
5511.09
5511.07
5511.07
5511.07
5511.14
5511.07
5511.02
5510.98
5510.95
5510.93
5510.92
5510.93
5511.19
5511.13
5511.07
5511.03
5511
5510.98
5510.96
5510.95
5511.26
5511.2
5511.15
5511.1
5511.06
5511.03
5511.01
5511
5381.55
5381.56
5381.57
5381.58
5381.58
5381.59
5381.59
5381.59
5381.23
5381.25
5381.27
5381.29
5381.3
5381.31
5381.31
5381.32
5381.07
5381.09
5381.1
5381.11
5381.11
5381.11
5381.11
5381.12
5381.11
5381.13
5381.15
5381.17
5381.18
5381.19
5381.19
5381.2
5381.12
5381.12
5381.12
5381.12
5381.11
5381.1
5381.1
5381.1
5381.08
5381.1
5381.12
5381.13
5381.14
5381.14
5381.15
5381.15
5381.17
5381.18
5381.19
5381.19
5381.19
5381.19
5381.19
5381.19
5251.48
5251.54
5251.6
5251.63
5251.66
5251.68
5251.69
5251.69
5251.21
5251.27
5251.32
5251.36
5251.38
5251.4
5251.41
5251.42
5251.2
5251.25
5251.28
5251.3
5251.32
5251.32
5251.33
5251.33
5251.1
5251.15
5251.2
5251.23
5251.26
5251.28
5251.3
5251.31
5251.18
5251.23
5251.27
5251.29
5251.31
5251.32
5251.32
5251.32
5251.03
5251.09
5251.14
5251.17
5251.2
5251.21
5251.22
5251.23
5251.09
5251.15
5251.2
5251.24
5251.26
5251.28
5251.29
5251.29
5121.52
5121.63
5121.71
5121.77
5121.81
5121.84
5121.86
5121.86
5121.35
5121.45
5121.51
5121.56
5121.6