/*--------------------------------*- C++ -*----------------------------------*\
| =========                 |                                                 |
| \\      /  F ield         | OpenFOAM: The Open Source CFD Toolbox           |
|  \\    /   O peration     | Version:  plus.master.MPPICInterFoam            |
|   \\  /    A nd           | Web:      www.OpenFOAM.com                      |
|    \\/     M anipulation  |                                                 |
\*---------------------------------------------------------------------------*/
FoamFile
{
    version     2.0;
    format      ascii;
    class       volScalarField;
    location    "12.2";
    object      p_rgh;
}
// * * * * * * * * * * * * * * * * * * * * * * * * * * * * * * * * * * * * * //

dimensions      [1 -1 -2 0 0 0 0];

internalField   nonuniform List<scalar> 
11821
(
5745.58
5754.49
5756.89
5758.24
5756.98
5753.01
5744.15
5755.35
5746.85
5761.95
5766.05
5753.38
5747.12
5752.37
5758.4
5752.01
5729.59
5728.05
5729.02
5759.74
5755.5
5760.35
5765.26
5727.88
5723.2
5728.69
5767.06
5756.59
5759.2
5757.16
5730.24
5726.92
5730.21
5763.91
5755.61
5755.3
5746.77
5759.66
5763.93
5749.33
5750.52
5752.94
5745.95
5754.72
5758.24
5759.48
5758.23
5754.63
5744.04
5724.78
5729.48
5732.3
5733.17
5731.6
5728.14
5723.75
5729.87
5720.7
5733.55
5721.37
5721.46
5728.08
5728.12
5734.12
5688.79
5605.45
5589.54
5635.73
5741.26
5731.17
5735.19
5711.08
5585.58
5572.66
5606.31
5743.26
5732.24
5734.19
5700.22
5598.76
5580.32
5620.12
5741.8
5731.28
5730.39
5700.08
5715.75
5700.75
5699.58
5735.67
5728.25
5725.33
5730.36
5733.59
5734.52
5732.75
5728.42
5723.93
5690.98
5688.76
5686.57
5685.67
5687.39
5690.16
5692.81
5687.97
5684.09
5652.58
5619.78
5674.9
5686.83
5690.84
5684.94
5583.75
5424.07
5393.83
5497.26
5682.51
5689.22
5683.09
5590.4
5384.55
5366.88
5430.55
5680.22
5688.47
5684.2
5590.15
5407.71
5377.63
5452.55
5681.97
5688.93
5686.86
5652.22
5612.9
5567.3
5628.71
5685.48
5690.19
5690.08
5687.19
5684.65
5683.51
5685.47
5688.83
5691.95
5661.12
5652.6
5644.94
5643
5649.13
5657.76
5666.22
5650.45
5634.97
5552.07
5480
5625.09
5645.37
5659.13
5639.56
5462.26
5216.78
5195.33
5355.76
5632.04
5653.2
5633.22
5393.05
5189.49
5180.48
5259.64
5626.01
5650.51
5639.33
5443.27
5202.44
5186.29
5272.64
5624.86
5652.16
5649.18
5609.87
5465.53
5371.94
5562.49
5642.03
5657.49
5659.81
5649.96
5641.11
5633.91
5644.82
5654.86
5664.4
5649.84
5642.94
5637.39
5637.07
5641.64
5647.98
5654.28
5641.23
5628.29
5530.33
5432.76
5625.51
5638.52
5648.83
5633.16
5423.72
5057.7
5053.92
5359.37
5629.02
5644.32
5621.34
5261.88
5048.45
5050.78
5183.72
5621.78
5641.84
5632.8
5368.91
5049.15
5049.81
5202.85
5622.99
5643.32
5640.49
5614.46
5390.81
5261.76
5569.02
5635.18
5647.21
5649.14
5641.22
5634.63
5622.19
5637.71
5645.2
5652.55
5736.83
5732.37
5728.67
5725.22
5722.4
5720.05
5718.09
5716.47
5742.22
5736.64
5731.16
5726.78
5723.37
5720.64
5718.42
5716.6
5744.42
5738.36
5732.62
5727.69
5723.89
5720.91
5718.5
5716.55
5745.06
5739.41
5733.19
5727.79
5723.91
5720.85
5718.39
5716.38
5744.44
5738.62
5732.58
5727.55
5723.78
5720.78
5718.36
5716.4
5742.16
5736.4
5731.21
5726.75
5723.27
5720.5
5718.24
5716.4
5736.84
5732.82
5728.72
5725.11
5722.25
5719.86
5717.88
5716.23
5720.35
5717.89
5715.92
5714.34
5713.09
5712.1
5711.31
5710.69
5722.83
5719.42
5716.86
5714.91
5713.41
5712.26
5711.35
5710.64
5724.66
5720.48
5717.47
5715.24
5713.58
5712.32
5711.34
5710.59
5725.32
5720.85
5717.68
5715.34
5713.61
5712.32
5711.33
5710.57
5724.66
5720.45
5717.41
5715.17
5713.49
5712.23
5711.27
5710.54
5722.8
5719.31
5716.72
5714.75
5713.24
5712.08
5711.19
5710.49
5720.29
5717.76
5715.73
5714.11
5712.83
5711.82
5711.01
5710.37
5695.04
5696.45
5697.65
5698.65
5699.48
5700.19
5700.8
5701.36
5693.59
5695.56
5697.08
5698.28
5699.25
5700.06
5700.76
5701.4
5692.52
5694.77
5696.52
5697.89
5698.99
5699.89
5700.66
5701.35
5692.04
5694.41
5696.24
5697.67
5698.83
5699.77
5700.56
5701.27
5692.26
5694.51
5696.27
5697.66
5698.79
5699.71
5700.48
5701.16
5692.99
5695
5696.58
5697.84
5698.86
5699.71
5700.43
5701.08
5694.19
5695.65
5696.92
5697.99
5698.89
5699.64
5700.29
5700.89
5672.76
5677.22
5681.02
5684.26
5687.11
5689.74
5692.28
5694.82
5668.37
5674.51
5679.25
5683.07
5686.31
5689.22
5692
5694.76
5664.9
5672.3
5677.82
5682.14
5685.7
5688.83
5691.79
5694.69
5663.31
5671.28
5677.15
5681.69
5685.4
5688.63
5691.66
5694.62
5664.26
5671.81
5677.41
5681.8
5685.42
5688.59
5691.58
5694.51
5667.18
5673.56
5678.46
5682.41
5685.74
5688.73
5691.58
5694.4
5671.31
5675.9
5679.85
5683.23
5686.19
5688.92
5691.56
5694.17
5659.22
5662.5
5665.16
5667.24
5668.76
5669.5
5669.35
5670.01
5655.94
5660.56
5664
5666.57
5668.44
5669.41
5669.32
5669.91
5653.27
5658.92
5663.04
5666.06
5668.21
5669.35
5669.3
5669.85
5651.92
5658.09
5662.53
5665.77
5668.07
5669.29
5669.28
5669.82
5652.65
5658.43
5662.64
5665.76
5667.99
5669.19
5669.2
5669.77
5654.83
5659.67
5663.3
5666.06
5668.08
5669.17
5669.18
5669.81
5657.76
5661.23
5664.13
5666.44
5668.17
5669.09
5669.1
5669.85
5738.96
5733.94
5729.61
5725.9
5722.83
5720.29
5718.17
5716.4
5744.27
5737.36
5731.99
5727.29
5723.67
5720.72
5718.28
5716.26
5747.25
5739.54
5733.57
5728.22
5724.25
5721.04
5718.45
5716.33
5748.12
5740.29
5733.98
5728.46
5724.41
5721.15
5718.52
5716.41
5746.78
5739.12
5733.32
5727.94
5723.99
5720.8
5718.21
5716.1
5744.25
5737.27
5731.63
5726.9
5723.36
5720.47
5718.11
5716.14
5738.72
5733.75
5729.44
5725.75
5722.72
5720.21
5718.13
5716.41
5721.41
5718.54
5716.26
5714.43
5712.98
5711.82
5710.9
5710.15
5724.35
5720.32
5717.37
5715.1
5713.36
5712
5710.93
5710.08
5726.64
5721.73
5718.27
5715.7
5713.78
5712.3
5711.15
5710.23
5727.31
5722.14
5718.52
5715.85
5713.89
5712.39
5711.22
5710.29
5726.46
5721.5
5718.05
5715.48
5713.56
5712.09
5710.94
5710.04
5724.01
5720.01
5717.13
5714.91
5713.21
5711.88
5710.83
5710
5721.06
5718.28
5716.07
5714.29
5712.88
5711.76
5710.87
5710.17
5692.66
5694.36
5695.79
5697
5698.01
5698.86
5699.58
5700.22
5690.55
5693.01
5694.89
5696.36
5697.55
5698.53
5699.34
5699.9
5689.1
5692.12
5694.35
5696.05
5697.37
5698.44
5699.33
5700.09
5688.5
5691.74
5694.12
5695.93
5697.32
5698.44
5699.37
5700.17
5689.41
5692.22
5694.35
5696.01
5697.31
5698.36
5699.24
5699.98
5691.21
5693.41
5695.14
5696.52
5697.65
5698.58
5699.36
5699.8
5693.27
5694.82
5696.15
5697.27
5698.2
5699
5699.67
5700.28
5667.4
5672.75
5677.25
5681.09
5684.43
5687.42
5690.24
5692.98
5661.11
5668.87
5674.61
5679.15
5682.76
5686.12
5689.24
5692.24
5655.78
5665.8
5672.77
5677.97
5682
5685.6
5688.94
5692.26
5653.53
5664.57
5672.12
5677.58
5681.97
5685.77
5689.16
5692.34
5655.95
5665.87
5672.8
5677.95
5682
5685.64
5689.15
5692.32
5661.82
5669.33
5674.96
5679.46
5683.22
5686.2
5688.98
5691.94
5668.32
5673.54
5677.91
5681.62
5684.78
5687.61
5690.44
5693.13
5654.93
5659.15
5662.64
5665.48
5667.65
5668.93
5669.27
5670.35
5650.02
5656.13
5660.57
5663.88
5666.36
5668.3
5668.82
5670.02
5645.76
5653.69
5659.02
5662.79
5665.61
5667.65
5668.5
5669.96
5644.08
5652.75
5658.46
5662.51
5665.6
5667.54
5668.28
5669.91
5645.85
5653.68
5658.81
5662.47
5665.81
5667.6
5668.3
5669.76
5650.33
5656.3
5660.67
5664.04
5666.5
5667.83
5668.57
5669.78
5655.45
5659.57
5662.9
5665.54
5667.5
5668.69
5668.95
5669.95
5738.3
5733.53
5729.33
5725.63
5722.61
5720.11
5718.02
5716.27
5743.33
5736.88
5731.66
5727.12
5723.57
5720.69
5718.36
5716.43
5745.74
5739.17
5733.03
5727.97
5724.11
5721.02
5718.51
5716.46
5746.77
5739.61
5733.25
5728.09
5724.13
5720.97
5718.43
5716.37
5745.8
5738.51
5732.73
5727.66
5723.84
5720.78
5718.33
5716.32
5742.71
5736.19
5731.16
5726.79
5723.35
5720.57
5718.29
5716.4
5737.34
5732.62
5728.73
5725.3
5722.45
5720.09
5718.14
5716.52
5720.92
5718.21
5716.05
5714.31
5712.92
5711.8
5710.9
5710.2
5723.57
5719.81
5717.1
5715
5713.38
5712.11
5711.09
5710.32
5725.35
5720.94
5717.78
5715.43
5713.67
5712.33
5711.29
5710.47
5725.87
5721.23
5717.92
5715.49
5713.68
5712.3
5711.24
5710.4
5725
5720.67
5717.57
5715.25
5713.52
5712.2
5711.17
5710.37
5722.96
5719.46
5716.86
5714.86
5713.33
5712.14
5711.21
5710.48
5720.4
5717.93
5715.93
5714.33
5713.06
5712.06
5711.26
5710.63
5693.32
5694.93
5696.26
5697.39
5698.34
5699.15
5699.85
5700.48
5691.73
5693.92
5695.68
5697.03
5698.04
5699.01
5699.89
5700.59
5690.59
5693.24
5694.99
5696.45
5697.71
5698.83
5699.99
5700.77
5690.25
5693.11
5695.21
5696.81
5698.08
5699.12
5699.99
5700.76
5691.24
5693.78
5695.68
5697.15
5698.35
5699.33
5700.16
5700.93
5692.95
5695.01
5696.6
5697.83
5698.85
5699.72
5700.46
5701.12
5694.91
5696.36
5697.57
5698.57
5699.41
5700.11
5700.73
5701.29
5668.67
5673.81
5678.13
5681.84
5685.07
5687.99
5690.76
5693.47
5663.66
5670.88
5676.32
5680.64
5684.29
5687.58
5690.6
5693.54
5659.74
5668.38
5674.46
5679.31
5683.8
5687.3
5690.51
5693.6
5658.93
5668.35
5674.87
5679.85
5683.9
5687.39
5690.61
5693.73
5662.03
5670.13
5676.07
5680.71
5684.55
5687.85
5690.94
5693.95
5667.03
5673.44
5678.36
5682.33
5685.72
5688.71
5691.55
5694.34
5672.54
5677.06
5680.87
5684.12
5686.98
5689.62
5692.17
5694.7
5655.59
5659.57
5662.87
5665.54
5667.56
5668.73
5668.96
5669.92
5651.85
5657.54
5661.67
5664.85
5667.26
5668.66
5668.96
5669.86
5649.14
5655.57
5660.06
5664.19
5666.94
5668.5
5668.83
5669.74
5648.91
5655.95
5660.77
5664.38
5667
5668.53
5668.82
5669.71
5651.24
5657.29
5661.73
5665.03
5667.44
5668.79
5668.95
5669.72
5655.04
5659.86
5663.45
5666.21
5668.2
5669.27
5669.27
5669.95
5659.05
5662.4
5665.08
5667.18
5668.72
5669.47
5669.34
5670.02
5737.5
5732.74
5728.74
5725.21
5722.3
5719.89
5717.89
5716.25
5743.81
5736.91
5731.3
5726.83
5723.34
5720.49
5718.15
5716.2
5746.6
5738.92
5733.14
5727.69
5723.84
5720.72
5718.19
5716.13
5747.62
5739.88
5733.68
5728.11
5724.2
5721
5718.42
5716.35
5746.93
5739.32
5733.22
5728.16
5724.19
5721.03
5718.46
5716.38
5744.16
5737.54
5731.89
5727.37
5723.74
5720.79
5718.37
5716.38
5738.82
5733.91
5729.57
5725.89
5722.83
5720.28
5718.16
5716.39
5720.46
5717.87
5715.79
5714.12
5712.8
5711.74
5710.91
5710.26
5723.29
5719.57
5716.84
5714.73
5713.12
5711.87
5710.88
5710.09
5725.67
5720.97
5717.72
5715.28
5713.46
5712.05
5710.96
5710.09
5726.69
5721.71
5718.24
5715.68
5713.78
5712.34
5711.21
5710.32
5726.22
5721.54
5718.17
5715.7
5713.83
5712.39
5711.27
5710.37
5724.28
5720.36
5717.43
5715.2
5713.48
5712.13
5711.07
5710.18
5721.39
5718.55
5716.27
5714.45
5713
5711.85
5710.93
5710.19
5694
5695.52
5696.78
5697.83
5698.7
5699.43
5700.06
5700.64
5691.85
5694
5695.66
5696.62
5697.56
5698.84
5699.69
5700.37
5689.88
5692.68
5694.74
5696.3
5697.62
5698.67
5699.46
5699.86
5688.83
5692.07
5694.45
5696.23
5697.6
5698.7
5699.58
5700.35
5689.39
5692.39
5694.62
5696.32
5697.66
5698.72
5699.6
5700.37
5690.86
5693.19
5695.02
5696.46
5697.75
5698.74
5699.55
5700.25
5692.72
5694.41
5695.83
5697.05
5698.06
5698.92
5699.64
5700.28
5670.75
5675.51
5679.49
5682.92
5685.88
5688.57
5691.18
5693.78
5664.56
5671.1
5675.77
5679.96
5683.46
5687.05
5690.23
5693.09
5658.92
5667.82
5674.16
5678.8
5682.38
5685.7
5688.92
5692.01
5655.55
5666.05
5673.17
5678.36
5682.64
5686.31
5689.59
5692.72
5657.09
5666.78
5673.54
5678.6
5682.56
5685.98
5689.28
5692.42
5661.8
5669.25
5674.88
5679.56
5683.39
5686.71
5689.79
5692.77
5667.53
5672.85
5677.33
5681.17
5684.51
5687.51
5690.33
5693.07
5657.39
5660.99
5663.96
5666.32
5668.04
5668.98
5669.04
5669.9
5652.59
5657.08
5660.87
5664.11
5667.05
5668.39
5668.74
5669.77
5648.29
5655.06
5659.81
5662.94
5665.5
5667.84
5668.32
5669.75
5645.49
5653.82
5659.15
5663.04
5666
5667.8
5668.36
5669.84
5646.82
5654.39
5659.55
5663.33
5665.86
5667.55
5668.65
5670
5650.44
5656.26
5660.84
5664.29
5666.89
5668.48
5668.99
5670.15
5655
5659.2
5662.68
5665.51
5667.67
5668.95
5669.29
5670.36
5715.14
5715.21
5715.12
5714.93
5714.96
5715
5714.88
5710.23
5710.13
5710.08
5710.07
5710.07
5710
5709.87
5701.93
5702.02
5702
5701.94
5701.8
5701.72
5701.51
5697.2
5697.25
5697.24
5697.2
5697.07
5696.91
5696.6
5675.46
5675.61
5675.7
5675.7
5675.6
5675.48
5675.31
5714.95
5714.72
5714.74
5714.87
5714.52
5714.61
5714.98
5709.56
5709.46
5709.56
5709.63
5709.39
5709.39
5709.64
5700.86
5700.54
5700.74
5700.85
5700.64
5700.29
5700.88
5695.49
5694.87
5694.91
5694.97
5694.88
5694.58
5695.6
5675.93
5676.05
5676.7
5677.14
5676.56
5675.9
5675.56
5714.83
5714.93
5714.94
5714.86
5714.82
5714.97
5715.18
5709.69
5709.77
5709.88
5709.81
5709.8
5709.95
5710.16
5701.11
5701.24
5701.47
5701.46
5701.61
5701.76
5701.86
5695.96
5696.13
5696.28
5696.44
5696.58
5696.85
5697.09
5675.47
5675.69
5675.82
5675.88
5675.72
5675.68
5675.48
5714.89
5714.71
5714.58
5714.84
5714.84
5714.85
5714.93
5709.76
5709.49
5709.47
5709.68
5709.72
5709.52
5709.6
5701.23
5701
5700.32
5701.02
5701
5700.9
5700.91
5696.23
5695.68
5694.68
5695.35
5695.21
5695.38
5695.57
5675.46
5675.84
5676.58
5677.05
5676.67
5676.13
5675.95
5713.2
5711.24
5709.85
5708.86
5708.14
5707.6
5707.19
5706.86
5713.3
5711.33
5709.93
5708.91
5708.18
5707.63
5707.21
5706.87
5713.22
5711.29
5709.9
5708.89
5708.16
5707.62
5707.2
5706.87
5713.1
5711.22
5709.84
5708.87
5708.15
5707.59
5707.18
5706.85
5713.04
5711.15
5709.79
5708.81
5708.1
5707.57
5707.16
5706.83
5713.05
5711.13
5709.76
5708.77
5708.06
5707.53
5707.13
5706.8
5712.88
5710.94
5709.59
5708.63
5707.94
5707.43
5707.04
5706.73
5709.5
5708.62
5707.94
5707.44
5707.05
5706.75
5706.52
5706.33
5709.44
5708.63
5707.98
5707.48
5707.09
5706.79
5706.56
5706.36
5709.41
5708.61
5707.96
5707.46
5707.08
5706.79
5706.55
5706.36
5709.43
5708.61
5707.96
5707.46
5707.07
5706.77
5706.54
5706.35
5709.35
5708.51
5707.86
5707.37
5707
5706.72
5706.49
5706.31
5709.28
5708.43
5707.78
5707.3
5706.93
5706.65
5706.43
5706.25
5709.13
5708.27
5707.62
5707.14
5706.78
5706.52
5706.31
5706.14
5702.88
5703.86
5704.56
5705.04
5705.34
5705.52
5705.61
5705.64
5702.92
5703.89
5704.6
5705.08
5705.38
5705.56
5705.65
5705.68
5702.9
5703.88
5704.59
5705.07
5705.38
5705.56
5705.65
5705.68
5702.86
5703.85
5704.56
5705.04
5705.35
5705.53
5705.63
5705.66
5702.79
5703.79
5704.51
5704.99
5705.3
5705.48
5705.58
5705.62
5702.72
5703.71
5704.42
5704.91
5705.22
5705.41
5705.51
5705.55
5702.53
5703.52
5704.24
5704.74
5705.06
5705.26
5705.37
5705.42
5700.16
5701.8
5702.92
5703.69
5704.21
5704.57
5704.81
5704.97
5700.2
5701.83
5702.95
5703.72
5704.24
5704.6
5704.84
5705
5700.19
5701.82
5702.94
5703.71
5704.23
5704.59
5704.84
5705
5700.14
5701.77
5702.9
5703.68
5704.2
5704.57
5704.82
5704.98
5700.02
5701.67
5702.81
5703.6
5704.13
5704.5
5704.76
5704.93
5699.86
5701.54
5702.7
5703.5
5704.05
5704.42
5704.69
5704.86
5699.6
5701.34
5702.53
5703.35
5703.91
5704.29
5704.56
5704.74
5687.64
5695.39
5699.27
5701.44
5702.73
5703.53
5704.04
5704.37
5687.69
5695.42
5699.3
5701.46
5702.75
5703.55
5704.07
5704.39
5687.71
5695.42
5699.29
5701.46
5702.75
5703.55
5704.06
5704.39
5687.69
5695.39
5699.27
5701.43
5702.72
5703.53
5704.04
5704.38
5687.62
5695.34
5699.21
5701.38
5702.67
5703.48
5704
5704.33
5687.56
5695.27
5699.15
5701.32
5702.61
5703.42
5703.93
5704.27
5687.5
5695.21
5699.08
5701.24
5702.52
5703.32
5703.84
5704.17
5712.8
5710.73
5709.26
5708.23
5707.49
5706.95
5706.56
5706.26
5712.61
5710.56
5709.09
5708.03
5707.26
5706.71
5706.31
5706
5712.62
5710.52
5709.01
5707.92
5707.13
5706.54
5706.12
5705.81
5712.85
5710.79
5709.29
5708.17
5707.35
5706.74
5706.3
5705.98
5712.41
5710.35
5708.89
5707.83
5707.07
5706.52
5706.11
5705.81
5712.54
5710.52
5709.07
5708.02
5707.27
5706.74
5706.35
5706.03
5712.89
5710.83
5709.37
5708.32
5707.58
5707.04
5706.64
5706.34
5708.72
5707.78
5707.08
5706.56
5706.19
5705.92
5705.71
5705.56
5708.61
5707.7
5706.95
5706.42
5706.04
5705.8
5705.58
5705.4
5708.67
5707.72
5706.98
5706.43
5706
5705.66
5705.42
5705.26
5708.75
5707.81
5707.1
5706.55
5706.12
5705.8
5705.56
5705.39
5708.52
5707.6
5706.89
5706.3
5705.89
5705.63
5705.45
5705.28
5708.57
5707.71
5706.91
5706.37
5706.06
5705.83
5705.61
5705.45
5708.79
5707.87
5707.18
5706.67
5706.3
5706.03
5705.83
5705.67
5701.86
5702.85
5703.57
5704.08
5704.42
5704.63
5704.76
5704.82
5701.51
5702.41
5703.25
5703.87
5704.22
5704.44
5704.58
5704.65
5701.68
5702.62
5703.32
5703.77
5703.95
5704.18
5704.48
5704.58
5701.8
5702.73
5703.41
5703.89
5704.2
5704.39
5704.53
5704.62
5701.49
5702.17
5702.84
5703.37
5704.02
5704.29
5704.43
5704.51
5701.24
5702.13
5702.92
5703.72
5704.19
5704.43
5704.57
5704.66
5701.88
5702.89
5703.64
5704.17
5704.52
5704.74
5704.87
5704.94
5698.59
5700.49
5701.8
5702.68
5703.29
5703.7
5703.97
5704.16
5698.22
5700.3
5701.59
5702.48
5703.09
5703.51
5703.8
5703.99
5698
5700.1
5701.44
5702.34
5702.93
5703.47
5703.96
5704.11
5698.2
5700.37
5701.72
5702.59
5703.18
5703.56
5703.81
5704
5697.91
5699.94
5701.29
5702.17
5703.03
5703.65
5703.87
5704.02
5697.79
5699.86
5701.5
5702.56
5703.17
5703.49
5703.71
5704
5698.7
5700.59
5701.91
5702.81
5703.41
5703.81
5704.09
5704.28
5687.73
5695.08
5698.78
5700.85
5702.08
5702.86
5703.35
5703.67
5687.79
5695.07
5698.72
5700.76
5701.98
5702.74
5703.24
5703.56
5688.24
5695.21
5698.5
5700.49
5701.82
5702.86
5703.37
5703.67
5688.54
5695.48
5699.11
5701.07
5702.21
5702.94
5703.38
5703.64
5688.14
5695.39
5699.02
5700.9
5701.92
5702.63
5703.08
5703.38
5687.75
5695.13
5698.82
5700.87
5702.03
5702.67
5703.13
5703.59
5687.53
5695.02
5698.79
5700.9
5702.16
5702.94
5703.45
5703.78
5712.73
5710.73
5709.33
5708.34
5707.64
5707.13
5706.75
5706.45
5712.86
5710.81
5709.41
5708.42
5707.68
5707.12
5706.71
5706.39
5712.91
5710.92
5709.49
5708.44
5707.67
5707.11
5706.69
5706.37
5712.87
5710.92
5709.5
5708.45
5707.68
5707.11
5706.68
5706.37
5712.83
5710.89
5709.47
5708.47
5707.73
5707.18
5706.75
5706.43
5713.09
5711.11
5709.7
5708.71
5707.97
5707.41
5707
5706.68
5713.21
5711.24
5709.85
5708.84
5708.1
5707.56
5707.14
5706.82
5708.91
5708
5707.32
5706.82
5706.45
5706.19
5705.98
5705.82
5709.04
5708.13
5707.44
5706.91
5706.51
5706.21
5705.99
5705.81
5709.1
5708.23
5707.55
5707.05
5706.64
5706.33
5706.12
5705.92
5709.03
5708.16
5707.49
5706.98
5706.58
5706.27
5706.03
5705.85
5709.06
5708.27
5707.6
5707.09
5706.68
5706.37
5706.13
5705.94
5709.23
5708.42
5707.76
5707.25
5706.86
5706.56
5706.32
5706.14
5709.43
5708.55
5707.88
5707.37
5706.98
5706.69
5706.46
5706.27
5702.12
5703.13
5703.87
5704.38
5704.72
5704.93
5705.05
5705.1
5702.18
5703.2
5703.95
5704.45
5704.78
5704.98
5705.08
5705.13
5702.48
5703.46
5704.17
5704.64
5704.96
5705.15
5705.25
5705.28
5702.46
5703.43
5704.13
5704.59
5704.91
5705.09
5705.18
5705.22
5702.57
5703.46
5704.18
5704.67
5704.99
5705.17
5705.27
5705.31
5702.7
5703.65
5704.35
5704.84
5705.15
5705.33
5705.43
5705.46
5702.82
5703.79
5704.5
5704.98
5705.28
5705.46
5705.55
5705.58
5699.04
5700.88
5702.13
5702.99
5703.58
5703.97
5704.25
5704.43
5699.2
5701.04
5702.28
5703.13
5703.7
5704.08
5704.35
5704.52
5699.38
5701.24
5702.45
5703.28
5703.84
5704.23
5704.49
5704.66
5699.55
5701.4
5702.63
5703.42
5703.97
5704.34
5704.58
5704.73
5699.62
5701.42
5702.62
5703.43
5703.97
5704.31
5704.55
5704.74
5699.83
5701.57
5702.75
5703.54
5704.07
5704.43
5704.67
5704.83
5700.05
5701.71
5702.86
5703.63
5704.16
5704.51
5704.76
5704.92
5687.49
5695.05
5698.85
5700.99
5702.26
5703.06
5703.57
5703.9
5687.6
5695.15
5698.95
5701.08
5702.36
5703.15
5703.67
5703.99
5687.69
5695.26
5699.06
5701.19
5702.46
5703.26
5703.78
5704.12
5687.75
5695.35
5699.18
5701.31
5702.59
5703.39
5703.86
5704.18
5687.68
5695.32
5699.15
5701.29
5702.57
5703.37
5703.89
5704.21
5687.7
5695.36
5699.21
5701.36
5702.64
5703.44
5703.95
5704.27
5687.64
5695.37
5699.24
5701.4
5702.69
5703.49
5704
5704.33
5712.89
5710.91
5709.52
5708.51
5707.79
5707.27
5706.88
5706.58
5712.67
5710.67
5709.25
5708.23
5707.49
5706.94
5706.54
5706.23
5712.53
5710.5
5709.07
5708.04
5707.3
5706.75
5706.34
5706.03
5712.86
5710.83
5709.36
5708.28
5707.48
5706.89
5706.46
5706.14
5712.78
5710.73
5709.24
5708.15
5707.35
5706.76
5706.33
5706.01
5712.76
5710.69
5709.21
5708.15
5707.39
5706.84
5706.44
5706.13
5712.77
5710.7
5709.24
5708.22
5707.49
5706.97
5706.59
5706.29
5708.97
5708.09
5707.43
5706.95
5706.59
5706.32
5706.12
5705.96
5708.66
5707.82
5707.22
5706.72
5706.33
5706.05
5705.83
5705.66
5708.62
5707.69
5707.02
5706.54
5706.19
5705.89
5705.66
5705.49
5708.84
5707.92
5707.22
5706.67
5706.28
5705.97
5705.74
5705.57
5708.85
5707.91
5707.19
5706.64
5706.22
5705.9
5705.66
5705.49
5708.69
5707.85
5707.12
5706.62
5706.22
5705.91
5705.69
5705.52
5708.76
5707.82
5707.11
5706.6
5706.22
5705.96
5705.76
5705.6
5702.21
5703.23
5703.98
5704.5
5704.85
5705.06
5705.19
5705.25
5701.95
5702.85
5703.57
5704.09
5704.46
5704.69
5704.83
5704.92
5701.44
5702.8
5703.5
5704
5704.34
5704.56
5704.7
5704.77
5701.97
5702.88
5703.58
5704.11
5704.42
5704.61
5704.73
5704.8
5701.86
5702.8
5703.52
5704.1
5704.46
5704.66
5704.77
5704.83
5701.87
5702.74
5703.49
5704.01
5704.35
5704.56
5704.68
5704.75
5701.91
5702.9
5703.62
5704.13
5704.47
5704.68
5704.81
5704.87
5699.29
5701.09
5702.32
5703.17
5703.74
5704.14
5704.41
5704.59
5698.84
5700.79
5702.06
5702.93
5703.51
5703.89
5704.14
5704.3
5698.5
5700.89
5702.17
5703.02
5703.58
5703.95
5704.19
5704.34
5698.57
5700.67
5702.05
5702.93
5703.49
5703.85
5704.09
5704.24
5698.78
5700.82
5702.11
5702.97
5703.52
5703.86
5704.1
5704.31
5698.53
5700.49
5701.8
5702.68
5703.28
5703.67
5703.92
5704.12
5698.66
5700.56
5701.85
5702.73
5703.33
5703.74
5704.02
5704.21
5687.59
5695.21
5699.04
5701.17
5702.44
5703.23
5703.74
5704.06
5687.82
5695.3
5699.05
5701.13
5702.36
5703.12
5703.57
5703.86
5688.27
5695.54
5699.2
5701.23
5702.42
5703.1
5703.51
5703.88
5688.61
5695.68
5699.26
5701.27
5702.48
5703.17
5703.65
5703.93
5688.27
5695.47
5699.09
5701.04
5702.17
5702.92
5703.4
5703.76
5687.89
5695.21
5698.88
5700.93
5702.14
5702.89
5703.37
5703.7
5687.76
5695.11
5698.81
5700.88
5702.11
5702.89
5703.38
5703.7
5706.65
5706.52
5706.4
5706.32
5706.25
5706.2
5706.18
5706.17
5706.66
5706.53
5706.42
5706.33
5706.27
5706.22
5706.2
5706.2
5706.66
5706.52
5706.41
5706.33
5706.27
5706.22
5706.2
5706.2
5706.64
5706.51
5706.4
5706.32
5706.25
5706.21
5706.19
5706.19
5706.62
5706.49
5706.38
5706.29
5706.22
5706.18
5706.16
5706.16
5706.59
5706.46
5706.34
5706.25
5706.18
5706.14
5706.11
5706.11
5706.52
5706.39
5706.28
5706.18
5706.11
5706.06
5706.03
5706.03
5706.21
5706.13
5706.06
5706.01
5705.97
5705.93
5705.92
5705.91
5706.24
5706.16
5706.09
5706.04
5705.99
5705.96
5705.95
5705.94
5706.24
5706.16
5706.09
5706.04
5706
5705.97
5705.95
5705.94
5706.22
5706.14
5706.08
5706.03
5705.98
5705.95
5705.94
5705.93
5706.19
5706.11
5706.04
5705.99
5705.95
5705.92
5705.9
5705.89
5706.13
5706.05
5705.99
5705.94
5705.89
5705.86
5705.84
5705.84
5706.02
5705.95
5705.89
5705.84
5705.8
5705.77
5705.75
5705.75
5705.65
5705.65
5705.64
5705.64
5705.63
5705.63
5705.62
5705.62
5705.68
5705.68
5705.68
5705.67
5705.66
5705.66
5705.65
5705.65
5705.68
5705.68
5705.68
5705.67
5705.67
5705.66
5705.66
5705.65
5705.67
5705.67
5705.67
5705.66
5705.66
5705.65
5705.64
5705.64
5705.62
5705.63
5705.63
5705.62
5705.62
5705.61
5705.61
5705.6
5705.56
5705.57
5705.57
5705.57
5705.56
5705.56
5705.56
5705.55
5705.44
5705.45
5705.46
5705.46
5705.46
5705.46
5705.46
5705.46
5705.06
5705.11
5705.16
5705.19
5705.21
5705.23
5705.23
5705.24
5705.09
5705.15
5705.19
5705.22
5705.25
5705.26
5705.27
5705.27
5705.09
5705.15
5705.19
5705.23
5705.25
5705.27
5705.28
5705.28
5705.08
5705.14
5705.18
5705.22
5705.24
5705.26
5705.27
5705.27
5705.03
5705.09
5705.13
5705.17
5705.2
5705.21
5705.22
5705.22
5704.96
5705.02
5705.07
5705.11
5705.13
5705.15
5705.16
5705.16
5704.84
5704.9
5704.95
5704.99
5705.02
5705.04
5705.05
5705.05
5704.54
5704.65
5704.73
5704.79
5704.83
5704.86
5704.88
5704.88
5704.57
5704.68
5704.76
5704.82
5704.87
5704.89
5704.91
5704.91
5704.57
5704.68
5704.76
5704.82
5704.87
5704.9
5704.91
5704.92
5704.55
5704.66
5704.75
5704.81
5704.86
5704.89
5704.9
5704.91
5704.51
5704.62
5704.7
5704.77
5704.81
5704.84
5704.86
5704.86
5704.45
5704.56
5704.64
5704.7
5704.75
5704.78
5704.79
5704.8
5704.34
5704.45
5704.53
5704.6
5704.64
5704.67
5704.69
5704.69
5706.07
5705.95
5705.84
5705.75
5705.67
5705.61
5705.57
5705.56
5705.81
5705.69
5705.59
5705.51
5705.45
5705.41
5705.38
5705.39
5705.63
5705.51
5705.43
5705.36
5705.32
5705.29
5705.28
5705.29
5705.8
5705.69
5705.61
5705.55
5705.51
5705.48
5705.46
5705.47
5705.63
5705.52
5705.44
5705.38
5705.33
5705.31
5705.29
5705.3
5705.85
5705.73
5705.63
5705.55
5705.49
5705.46
5705.43
5705.44
5706.15
5706.02
5705.92
5705.83
5705.75
5705.7
5705.66
5705.65
5705.45
5705.39
5705.34
5705.3
5705.26
5705.23
5705.21
5705.2
5705.3
5705.22
5705.16
5705.1
5705.07
5705.08
5705.07
5705.07
5705.18
5705.11
5705.06
5705.02
5705
5704.99
5704.99
5704.99
5705.3
5705.24
5705.2
5705.16
5705.14
5705.13
5705.13
5705.13
5705.17
5705.11
5705.06
5705.02
5705
5705
5704.99
5705
5705.35
5705.29
5705.24
5705.18
5705.14
5705.15
5705.14
5705.14
5705.58
5705.51
5705.46
5705.42
5705.38
5705.36
5705.34
5705.33
5704.84
5704.86
5704.86
5704.87
5704.87
5704.87
5704.87
5704.87
5704.64
5704.65
5704.67
5704.68
5704.69
5704.7
5704.72
5704.73
5704.6
5704.6
5704.6
5704.59
5704.59
5704.6
5704.61
5704.61
5704.66
5704.68
5704.7
5704.71
5704.72
5704.73
5704.74
5704.74
5704.54
5704.56
5704.57
5704.56
5704.56
5704.59
5704.59
5704.6
5704.72
5704.74
5704.75
5704.73
5704.75
5704.75
5704.78
5704.82
5704.97
5704.98
5705
5705
5705.01
5705.01
5705.01
5705.01
5704.27
5704.33
5704.38
5704.41
5704.44
5704.46
5704.47
5704.47
5704.08
5704.1
5704.18
5704.27
5704.3
5704.23
5704.22
5704.22
5704.18
5704.21
5704.21
5704.24
5704.26
5704.24
5704.27
5704.29
5704.09
5704.15
5704.2
5704.24
5704.26
5704.28
5704.31
5704.32
5704.14
5704.19
5704.23
5704.18
5704.11
5704.08
5704.23
5704.28
5704.15
5704.18
5704.23
5704.31
5704.32
5704.3
5704.3
5704.32
5704.39
5704.45
5704.51
5704.55
5704.58
5704.6
5704.61
5704.61
5703.84
5703.94
5704.02
5704.07
5704.11
5704.14
5704.16
5704.16
5703.73
5703.82
5703.88
5703.92
5703.95
5703.94
5703.93
5703.88
5703.83
5703.71
5703.63
5703.68
5703.77
5703.93
5703.79
5703.91
5703.76
5703.83
5703.88
5703.92
5703.96
5703.97
5703.92
5703.88
5703.77
5703.84
5703.92
5703.78
5703.72
5703.73
5703.74
5703.75
5703.69
5703.76
5703.86
5703.99
5704.04
5704.05
5703.99
5703.87
5703.95
5704.05
5704.13
5704.2
5704.24
5704.27
5704.29
5704.3
5706.25
5706.13
5706.02
5705.92
5705.85
5705.8
5705.76
5705.76
5706.2
5706.07
5705.96
5705.88
5705.81
5705.76
5705.74
5705.73
5706.17
5706.04
5705.95
5705.88
5705.83
5705.79
5705.77
5705.77
5706.19
5706.08
5706
5705.93
5705.89
5705.86
5705.84
5705.85
5706.24
5706.12
5706.03
5705.96
5705.91
5705.88
5705.87
5705.87
5706.48
5706.35
5706.24
5706.15
5706.08
5706.04
5706.01
5706.01
5706.61
5706.48
5706.37
5706.28
5706.21
5706.16
5706.13
5706.13
5705.72
5705.65
5705.59
5705.54
5705.5
5705.47
5705.45
5705.44
5705.7
5705.64
5705.57
5705.52
5705.49
5705.46
5705.47
5705.46
5705.8
5705.72
5705.66
5705.61
5705.58
5705.56
5705.55
5705.55
5705.75
5705.68
5705.63
5705.61
5705.59
5705.57
5705.57
5705.57
5705.83
5705.73
5705.66
5705.65
5705.63
5705.62
5705.61
5705.61
5706.02
5705.94
5705.88
5705.81
5705.78
5705.76
5705.75
5705.75
5706.15
5706.07
5706.01
5705.96
5705.91
5705.88
5705.86
5705.86
5705.12
5705.14
5705.14
5705.14
5705.14
5705.14
5705.14
5705.14
5705.15
5705.15
5705.16
5705.14
5705.11
5705.11
5705.11
5705.12
5705.29
5705.29
5705.26
5705.2
5705.21
5705.25
5705.24
5705.24
5705.24
5705.24
5705.23
5705.23
5705.24
5705.25
5705.25
5705.25
5705.31
5705.26
5705.24
5705.24
5705.23
5705.29
5705.31
5705.31
5705.47
5705.47
5705.47
5705.45
5705.42
5705.42
5705.43
5705.44
5705.59
5705.59
5705.59
5705.58
5705.58
5705.58
5705.57
5705.57
5704.54
5704.6
5704.65
5704.69
5704.71
5704.73
5704.74
5704.74
5704.61
5704.67
5704.71
5704.73
5704.75
5704.74
5704.72
5704.69
5704.76
5704.82
5704.83
5704.78
5704.8
5704.81
5704.81
5704.85
5704.81
5704.84
5704.88
5704.91
5704.93
5704.93
5704.94
5704.93
5704.83
5704.88
5704.92
5704.9
5704.85
5704.84
5704.84
5704.84
5704.91
5704.97
5705.01
5705.04
5705.05
5705.04
5705.02
5705.02
5705.01
5705.06
5705.11
5705.14
5705.16
5705.17
5705.18
5705.18
5704.07
5704.18
5704.26
5704.32
5704.36
5704.39
5704.41
5704.42
5704.17
5704.27
5704.35
5704.41
5704.45
5704.47
5704.49
5704.49
5704.3
5704.41
5704.5
5704.57
5704.61
5704.57
5704.53
5704.53
5704.35
5704.46
5704.54
5704.59
5704.63
5704.67
5704.69
5704.69
5704.39
5704.5
5704.58
5704.64
5704.68
5704.67
5704.59
5704.54
5704.44
5704.55
5704.62
5704.68
5704.72
5704.75
5704.75
5704.74
5704.5
5704.61
5704.69
5704.75
5704.79
5704.82
5704.83
5704.83
5706.38
5706.26
5706.15
5706.06
5705.99
5705.94
5705.91
5705.91
5706.04
5705.91
5705.81
5705.74
5705.69
5705.65
5705.64
5705.65
5705.85
5705.74
5705.66
5705.6
5705.56
5705.54
5705.52
5705.54
5705.97
5705.86
5705.78
5705.72
5705.68
5705.65
5705.63
5705.64
5705.81
5705.7
5705.6
5705.54
5705.49
5705.46
5705.44
5705.45
5705.94
5705.82
5705.72
5705.63
5705.57
5705.52
5705.5
5705.5
5706.11
5705.98
5705.88
5705.79
5705.71
5705.65
5705.61
5705.6
5705.86
5705.8
5705.74
5705.7
5705.67
5705.64
5705.62
5705.62
5705.56
5705.5
5705.42
5705.37
5705.38
5705.36
5705.35
5705.36
5705.39
5705.32
5705.27
5705.24
5705.24
5705.23
5705.23
5705.25
5705.48
5705.42
5705.38
5705.35
5705.32
5705.31
5705.31
5705.31
5705.38
5705.31
5705.26
5705.21
5705.18
5705.17
5705.16
5705.16
5705.42
5705.36
5705.31
5705.25
5705.22
5705.19
5705.19
5705.19
5705.5
5705.44
5705.38
5705.34
5705.3
5705.27
5705.25
5705.24
5705.28
5705.29
5705.3
5705.31
5705.31
5705.32
5705.32
5705.32
5704.96
5704.97
5704.94
5704.93
5704.95
5704.96
5705.01
5705.01
5704.8
5704.82
5704.79
5704.76
5704.83
5704.84
5704.84
5704.85
5704.84
5704.86
5704.88
5704.89
5704.91
5704.92
5704.92
5704.91
5704.85
5704.85
5704.85
5704.84
5704.83
5704.82
5704.81
5704.8
5704.8
5704.83
5704.85
5704.84
5704.83
5704.84
5704.84
5704.86
5704.9
5704.91
5704.92
5704.92
5704.92
5704.92
5704.92
5704.92
5704.7
5704.77
5704.82
5704.85
5704.88
5704.9
5704.91
5704.91
5704.43
5704.49
5704.54
5704.57
5704.48
5704.45
5704.46
5704.46
5704.42
5704.47
5704.5
5704.49
5704.42
5704.47
5704.54
5704.54
5704.32
5704.38
5704.42
5704.45
5704.47
5704.5
5704.5
5704.48
5704.41
5704.46
5704.49
5704.47
5704.41
5704.42
5704.47
5704.48
5704.24
5704.31
5704.36
5704.39
5704.41
5704.4
5704.38
5704.38
5704.31
5704.38
5704.42
5704.46
5704.49
5704.5
5704.51
5704.51
5704.23
5704.34
5704.42
5704.48
5704.53
5704.55
5704.57
5704.57