/*--------------------------------*- C++ -*----------------------------------*\
| =========                 |                                                 |
| \\      /  F ield         | OpenFOAM: The Open Source CFD Toolbox           |
|  \\    /   O peration     | Version:  plus.master.MPPICInterFoam            |
|   \\  /    A nd           | Web:      www.OpenFOAM.com                      |
|    \\/     M anipulation  |                                                 |
\*---------------------------------------------------------------------------*/
FoamFile
{
    version     2.0;
    format      ascii;
    class       scalarField;
    location    "5.6/lagrangian/kinematicCloud";
    object      age;
}
// * * * * * * * * * * * * * * * * * * * * * * * * * * * * * * * * * * * * * //


828
(
5.52877
5.24526
5.55663
5.08009
5.47984
5.5318
5.37171
5.34156
5.25611
5.42376
5.09167
5.49302
5.3232
5.59962
5.58975
5.48081
5.59195
5.50798
5.34533
5.55683
5.43995
5.51619
5.34484
5.40619
5.17038
5.44984
5.31785
5.4844
5.4535
5.52757
5.57049
5.51857
5.56485
5.50797
5.28652
5.41826
5.34289
5.32417
5.37186
5.57898
5.51854
5.46732
5.40932
5.54335
5.51206
5.58169
5.29621
5.59808
5.51723
5.37156
5.58492
5.47256
5.5194
5.40848
5.31612
5.14678
5.57332
5.49344
5.51096
5.52029
5.37886
5.46879
5.19228
5.52433
5.49551
5.56504
5.56197
5.44008
5.46659
5.43926
5.55618
5.48837
5.41545
5.26799
5.59013
5.48685
5.33672
5.54367
5.59847
5.30267
5.47281
5.35323
5.54064
5.39766
5.50017
5.42064
5.51604
5.59124
5.59125
5.41034
5.48657
5.39243
5.3339
5.51247
5.51925
5.585
5.58815
5.46876
5.47843
5.25725
5.52474
5.43174
5.35015
5.48104
5.50995
5.53131
5.45908
5.47375
5.48863
5.56383
5.53699
5.47739
5.51824
5.43128
5.50592
5.43043
5.59903
5.29948
5.48833
5.5937
5.59145
5.36165
5.48842
5.5543
5.56651
5.52777
5.32003
5.40026
5.12734
5.51774
5.37445
5.49991
5.59773
5.5903
5.56525
5.59102
5.58526
5.55616
5.53022
5.46374
5.13696
5.57658
5.24295
5.59885
5.57273
5.37152
5.4788
5.52772
5.57045
5.37344
5.43249
5.60102
5.2346
5.51957
5.54378
5.5957
5.44547
5.57571
5.5777
5.51281
5.55002
5.46997
5.42976
5.18519
5.45029
5.37344
5.56991
5.57696
5.55745
5.58772
5.57313
5.57209
5.42051
5.4204
5.59394
5.39814
5.55588
5.54695
5.39101
5.52314
5.44475
5.51871
5.37784
5.45905
5.56975
5.54727
5.39075
5.34413
5.40512
5.5577
5.58206
5.39538
5.40805
5.47083
5.40579
5.53819
5.58483
5.53299
5.21911
5.52738
5.51048
5.4711
5.50223
5.54262
5.54425
5.55301
5.47457
5.47422
5.46756
5.49015
5.43939
5.38251
5.59888
5.44447
5.57075
5.54739
5.59608
5.43918
5.16196
5.11528
5.48157
5.51936
5.39457
5.49168
5.2286
5.5184
5.49374
5.56407
5.58089
5.57665
5.51252
5.52588
5.45048
5.3641
5.37913
5.3495
5.57887
5.47866
5.55801
5.33206
5.59833
5.41039
5.47041
5.51754
5.47899
5.55046
5.30562
5.58357
5.58912
5.27477
5.39135
5.58228
5.38643
5.56268
5.58817
5.57036
5.58552
5.35318
5.13944
5.37957
5.09559
5.57979
5.44208
5.60013
5.56096
5.57171
5.55693
5.51004
5.47884
5.43938
5.51452
5.57757
5.45428
5.55132
5.4098
5.53679
5.40668
5.58075
5.54692
5.56848
5.3687
5.40994
5.32848
5.47969
5.58888
5.19119
5.29849
5.53011
5.25944
5.53711
5.49823
5.57778
5.33366
5.38107
5.42288
5.34423
5.36242
5.59395
5.43697
5.51762
5.56542
5.20214
5.1256
5.40553
5.46949
5.33999
5.43289
5.21306
5.26855
5.49813
5.49212
5.29533
5.39082
5.58162
5.54457
5.48901
5.44919
5.21015
5.46627
5.50781
5.5989
5.58174
5.58113
5.24771
5.46567
4.96
5.52264
5.52845
5.4949
5.23934
5.32404
5.45951
5.15508
5.28883
5.59367
5.35238
5.37865
5.47139
5.45131
5.51994
5.48266
5.48824
5.49926
5.55638
5.5478
5.47851
5.57666
5.09664
5.37206
5.58283
5.44857
5.33482
5.46047
5.35239
5.4409
5.38108
5.36657
5.47591
5.56513
5.21945
5.57061
5.50234
5.4198
5.23197
5.41066
5.51956
5.51807
5.42096
5.57106
5.34497
5.52763
5.54704
5.54871
5.54465
5.38114
5.22857
5.29949
5.53755
5.38288
5.43592
5.53753
5.2703
5.43944
5.56421
5.18118
5.35578
5.38005
5.46995
5.39191
5.55816
5.59937
5.45922
5.21457
5.56672
5.41726
5.59616
5.52017
5.43918
5.36196
5.50795
5.56996
5.41831
5.40982
5.42947
5.54325
5.55861
5.46109
5.27462
5.19287
5.5669
5.22861
5.59236
5.42075
5.29835
5.45939
5.52739
5.29675
5.55242
5.40008
5.30962
5.58495
5.48512
5.25757
5.57456
5.22579
5.33526
5.50999
5.59893
5.56918
5.45952
5.53738
5.55918
5.57968
5.36717
5.45421
5.26057
5.27638
5.52528
5.48623
5.49239
5.32423
5.46112
5.4981
5.57699
5.43313
5.42948
5.36812
5.46907
5.52139
5.3367
5.58029
5.46856
5.53837
5.58491
5.49827
5.50435
5.56656
5.46856
5.53975
5.56169
5.28493
5.56402
5.2585
5.5813
5.32519
5.52302
5.57613
5.41288
5.56389
5.53187
5.44007
5.41122
5.33898
5.52078
5.56518
5.56906
5.5781
5.54776
5.28981
5.34605
5.28578
5.35264
5.51336
5.55626
5.40022
5.13775
5.44897
5.37148
5.4098
5.5484
5.3289
5.1334
5.35521
5.52073
5.58947
5.32188
4.71694
5.581
5.36654
5.54209
5.47207
5.58669
5.4098
5.14341
5.30816
5.58098
5.58996
5.5108
5.56432
5.43701
5.49151
5.21121
5.34436
5.39048
5.40044
5.43971
5.59908
5.4839
5.49746
5.51803
5.24774
5.21112
5.56394
5.57657
5.22512
5.58492
5.22069
5.50965
5.47073
5.59589
5.29898
5.53857
5.16298
5.58107
5.46775
5.43984
5.58607
5.47565
5.01906
5.14252
5.48519
5.32611
5.59374
5.21605
5.13635
5.37269
5.40302
5.26315
5.27629
5.58869
5.2773
5.51064
5.49419
5.38096
5.54992
5.56228
5.33128
5.22419
5.32472
5.50773
5.1757
5.52979
5.52006
5.49987
5.20551
5.37706
5.3172
5.47937
5.26755
5.54388
5.57046
5.53156
5.53795
5.44898
5.31757
5.55621
5.54476
5.38376
5.5764
5.40982
5.53543
5.42743
5.41983
5.47232
5.49102
5.47393
5.5373
5.52768
5.48462
5.52317
5.18935
5.18478
5.33859
5.55505
5.48894
5.0294
5.45283
5.49906
5.38438
5.29533
5.56389
5.46006
5.60021
5.58878
5.5598
5.58971
5.53536
5.60072
5.4184
5.51766
5.56435
5.55323
5.33377
5.23528
5.4686
5.22149
5.52816
5.57822
5.52733
5.58491
5.4531
5.28272
5.46176
5.51013
5.27205
5.35581
5.57287
5.3299
5.59495
5.16411
5.47029
5.25776
5.59378
5.59391
5.40212
5.50037
5.43956
5.2286
5.4714
5.57902
5.391
5.47081
5.4349
5.25268
5.43998
5.45939
5.22894
5.59123
5.40471
5.59127
5.4
5.40025
5.31857
5.31829
5.23741
5.05016
5.5584
5.48449
5.54744
5.54087
5.40669
5.45802
5.5731
5.54767
5.07932
5.57675
5.30007
5.34549
5.29883
5.58089
5.40988
5.4884
5.12863
4.89193
5.53953
5.38522
5.43019
5.54739
5.46861
5.28655
5.39793
5.33333
5.5374
5.55256
5.48165
5.23165
5.59654
5.57776
5.41559
5.41166
5.42932
5.56743
5.59153
5.36506
5.46875
5.56681
5.27516
5.30398
5.55845
5.52251
5.5287
5.51621
5.29649
5.50349
5.48871
5.59851
5.59183
5.58559
5.57146
5.163
5.56391
5.57662
5.5916
5.43666
5.47865
5.52614
5.4199
5.14344
5.57539
5.58849
5.19524
5.58179
5.50838
5.57378
5.47001
5.44299
5.39083
5.47324
5.57045
5.44712
5.41965
5.50775
5.43153
5.59546
5.44318
5.35377
5.55738
5.53416
5.08713
5.47886
5.2339
5.43919
5.53414
5.23891
5.2381
5.4106
5.53765
5.51766
5.47943
5.44514
5.36129
5.58739
5.43818
5.35006
5.48362
5.34293
5.57306
5.35593
5.42476
5.58403
5.32383
5.44401
5.35294
5.43084
5.37189
5.4059
5.54693
5.4947
5.43067
5.27767
5.56931
5.28474
5.40911
5.35173
5.50596
5.37074
5.59383
5.26999
5.59739
5.38138
5.50433
5.2362
5.47844
5.54927
5.44505
5.30075
5.3862
5.59397
5.22333
5.59154
5.37017
5.58097
5.36423
5.45026
5.44684
5.59451
5.56474
5.52758
5.1347
5.56468
5.47034
5.54751
5.58675
5.37143
5.49921
5.43833
5.55032
5.45148
5.4982
5.38348
5.21039
5.21937
5.17184
5.20853
5.54691
5.38206
5.44902
5.59764
5.46597
5.38339
5.0788
5.552
5.39742
5.4416
5.04678
5.55195
5.40587
5.52421
)


// ************************************************************************* //
