/*--------------------------------*- C++ -*----------------------------------*\
| =========                 |                                                 |
| \\      /  F ield         | OpenFOAM: The Open Source CFD Toolbox           |
|  \\    /   O peration     | Version:  plus.master.MPPICInterFoam            |
|   \\  /    A nd           | Web:      www.OpenFOAM.com                      |
|    \\/     M anipulation  |                                                 |
\*---------------------------------------------------------------------------*/
FoamFile
{
    version     2.0;
    format      ascii;
    class       volScalarField;
    location    "2.4";
    object      k;
}
// * * * * * * * * * * * * * * * * * * * * * * * * * * * * * * * * * * * * * //

dimensions      [0 2 -2 0 0 0 0];

internalField   nonuniform List<scalar> 
11821
(
0.00051376
0.000663601
0.00119845
0.00161653
0.00108603
0.00058959
0.000458861
0.000746695
0.00169931
0.00444287
0.00650268
0.00413182
0.00144918
0.000590529
0.00145156
0.0051045
0.00711655
0.0192044
0.00634198
0.0045463
0.00119773
0.00192759
0.00805222
0.0193312
0.0185383
0.0149437
0.00776895
0.00171219
0.00118911
0.00462234
0.00802591
0.0160125
0.00743201
0.00431209
0.00106188
0.000634864
0.00151852
0.00499895
0.0117396
0.00433405
0.00133833
0.000545822
0.00047342
0.000598436
0.00122055
0.00197435
0.00102719
0.000529346
0.000433887
0.00146221
0.00288699
0.00482225
0.00577961
0.00410184
0.00216181
0.00105395
0.00313285
0.00636205
0.0114483
0.015413
0.0104952
0.00513578
0.0022374
0.00562985
0.0127461
0.0220777
0.0402882
0.0208449
0.0112011
0.00425697
0.00709752
0.0202622
0.0392771
0.0387283
0.041077
0.019384
0.00554967
0.00475694
0.0140941
0.0328245
0.0363246
0.0330765
0.0119152
0.00345411
0.00220207
0.0056624
0.015923
0.038642
0.0129384
0.00416325
0.00155758
0.00103116
0.00204469
0.00415226
0.00674446
0.0030986
0.00147136
0.00081237
0.00370309
0.00705806
0.0111113
0.0131478
0.00961278
0.00513187
0.00223551
0.00739213
0.0143339
0.0236994
0.0310328
0.021829
0.0114258
0.00489754
0.0122214
0.0255152
0.0417065
0.0664469
0.041587
0.0216723
0.008638
0.0148607
0.0374868
0.0631637
0.0591525
0.0665541
0.0323877
0.0105196
0.0100967
0.0262068
0.057946
0.057592
0.0579712
0.020795
0.00653189
0.00455917
0.0111949
0.0251054
0.0494925
0.0208414
0.00769599
0.00262498
0.00177847
0.00379623
0.00719561
0.00998421
0.00529818
0.00233186
0.00108029
0.00687213
0.0125425
0.0189216
0.0217916
0.0161853
0.00911584
0.00410799
0.0128007
0.0238747
0.0379481
0.0480526
0.0337975
0.0185993
0.00837888
0.0195591
0.0387887
0.059174
0.0810154
0.0569081
0.031227
0.0133287
0.0225277
0.051376
0.0755802
0.068941
0.0804863
0.0411383
0.0151751
0.0154707
0.034703
0.0647612
0.0681311
0.0596589
0.0264165
0.00992321
0.00749039
0.0161751
0.0289912
0.040472
0.024129
0.0113032
0.00440861
0.00292653
0.00598595
0.00992034
0.0114885
0.00763375
0.00383114
0.00167679
0.00936535
0.0167787
0.0247194
0.0277646
0.0207498
0.0119364
0.00549037
0.0169379
0.0311086
0.0486205
0.0595737
0.041944
0.0234173
0.010787
0.024723
0.0479181
0.0678598
0.0791631
0.0652065
0.0368514
0.0162689
0.0272749
0.0581379
0.0754493
0.0751068
0.0799111
0.0440785
0.0176418
0.0187596
0.0388398
0.0680997
0.0848173
0.0570847
0.0286681
0.0119063
0.00950731
0.0191784
0.0312815
0.0365066
0.0257122
0.0134856
0.00567475
0.00381544
0.00757199
0.0118317
0.0128573
0.00928873
0.0049666
0.00213833
0.00041158
0.000393057
0.000376913
0.000351481
0.000325399
0.000300366
0.000276921
0.000255606
0.000479961
0.000440934
0.000419113
0.000392603
0.000368879
0.000347281
0.00032445
0.000300615
0.000661685
0.000513037
0.000452837
0.000411275
0.000387165
0.00036969
0.000353532
0.000335477
0.000749125
0.000518041
0.000436576
0.000400364
0.000388766
0.000383298
0.000370352
0.000356533
0.000611789
0.000495112
0.000441263
0.000406279
0.000386121
0.000371504
0.000354946
0.000337709
0.000467012
0.000435511
0.000411532
0.000388915
0.000366553
0.000344022
0.000320598
0.000296052
0.000410163
0.000395658
0.000374586
0.000351284
0.000324748
0.000298703
0.000274282
0.000251947
0.000694994
0.000581927
0.000531876
0.000499433
0.000474263
0.000453012
0.000434445
0.000418125
0.000980306
0.000650498
0.000555287
0.000513806
0.000487042
0.000464967
0.000444769
0.000425758
0.00144424
0.000737261
0.00057377
0.000522513
0.000496251
0.000476769
0.000458985
0.000441434
0.00157043
0.000741785
0.000575726
0.000526364
0.000501807
0.00048302
0.000466019
0.00044913
0.00113381
0.000673182
0.000564234
0.000522745
0.000498502
0.000479275
0.000461452
0.000443385
0.000782852
0.000607064
0.000546044
0.000512067
0.000486951
0.000465411
0.000445577
0.000426899
0.000627215
0.000563506
0.000525925
0.00049682
0.000472364
0.000451274
0.00043289
0.000416854
0.00101198
0.000664129
0.000562102
0.000523657
0.00050395
0.000490885
0.000480246
0.000470298
0.00184262
0.000863894
0.000605459
0.00053641
0.000509937
0.000494217
0.000481424
0.000469397
0.0029365
0.00112468
0.000653226
0.000549057
0.000518561
0.000502793
0.000489309
0.000475262
0.00315548
0.00112871
0.000655039
0.00055572
0.000527816
0.000513349
0.000499822
0.00048437
0.00198614
0.0008599
0.000608486
0.000545229
0.000521309
0.000506423
0.000492737
0.000478061
0.00104169
0.000666378
0.000567379
0.000530168
0.000509959
0.000495432
0.000482748
0.000470535
0.000692943
0.000583704
0.000541849
0.000518471
0.00050283
0.00049078
0.000480203
0.000470001
0.00164605
0.000880902
0.000671288
0.000612194
0.000588205
0.000576407
0.000572076
0.000569545
0.00317597
0.0012808
0.000735723
0.000616237
0.000582889
0.000568632
0.000563543
0.000562121
0.00488423
0.00176244
0.000815699
0.000621338
0.000579659
0.000564564
0.000559011
0.000557541
0.00514548
0.00175859
0.000805321
0.000618075
0.000578535
0.00056396
0.000558126
0.000555921
0.00331034
0.00122994
0.000707355
0.000601795
0.00057309
0.000560485
0.000555881
0.000554773
0.00160106
0.000819773
0.000636946
0.000588438
0.000568315
0.000558162
0.000555262
0.00055513
0.000868383
0.000663094
0.000606165
0.000581339
0.00056717
0.000559849
0.000558134
0.000557317
0.00213612
0.00100801
0.000698598
0.00063621
0.000628676
0.000626064
0.000604171
0.00055529
0.00414831
0.00156567
0.000778741
0.000627214
0.000609095
0.000610976
0.000598048
0.000556374
0.00619871
0.00219122
0.000883419
0.000624753
0.00059455
0.000598417
0.000591016
0.000554639
0.00639468
0.00216228
0.000857276
0.00060955
0.000582126
0.000587845
0.000583201
0.00055002
0.00420117
0.00145814
0.000712291
0.000581949
0.000570748
0.000579041
0.000575404
0.000544093
0.00200807
0.000868347
0.000608511
0.000564338
0.000566107
0.000575069
0.000569291
0.000536855
0.000936765
0.000633786
0.000570449
0.000562738
0.000570801
0.000577185
0.000565571
0.00052908
0.00044827
0.000423718
0.000395059
0.000369358
0.000344671
0.000318869
0.000293955
0.000271271
0.000552016
0.000513524
0.000474433
0.000446241
0.000423583
0.000403119
0.000385083
0.000368488
0.000723159
0.000584537
0.000517328
0.000481058
0.000456829
0.000438069
0.000422647
0.00040904
0.000896145
0.000639359
0.000545478
0.000499585
0.000471867
0.000452085
0.000437047
0.000425067
0.000811436
0.000625368
0.000540446
0.00049362
0.000463379
0.000441723
0.000424752
0.000411068
0.000626963
0.000561301
0.000504808
0.000462308
0.000431941
0.000407251
0.0003862
0.000369274
0.000476916
0.000446257
0.00040994
0.000379467
0.000351983
0.000324982
0.000300321
0.000278276
0.000721178
0.000609182
0.000552191
0.00051372
0.000484963
0.000462128
0.000443183
0.000426841
0.00102292
0.0007095
0.000604224
0.000551996
0.00051904
0.000495448
0.000476728
0.000460583
0.00169606
0.00089656
0.000679568
0.00059816
0.000555213
0.000528153
0.000509064
0.000494256
0.00247642
0.0011312
0.000758575
0.000638881
0.000584469
0.000554393
0.000536366
0.000524859
0.0022857
0.00112263
0.000753956
0.000627715
0.000569982
0.000537569
0.000516565
0.000501237
0.00144132
0.000857829
0.000659488
0.000578017
0.000534289
0.000506387
0.000485774
0.000468953
0.000869056
0.000659964
0.000572629
0.000524075
0.000491864
0.00046795
0.000448757
0.000432399
0.000960747
0.000693911
0.000596581
0.000549949
0.000522949
0.000504591
0.000490021
0.000477029
0.00180463
0.000948548
0.000687269
0.00059559
0.000554525
0.000530606
0.000512432
0.000495718
0.00369783
0.00153414
0.000853543
0.00065204
0.000583024
0.000551998
0.000532345
0.00051537
0.00572813
0.0022876
0.00107541
0.000710463
0.000601523
0.000562434
0.000543307
0.00052928
0.00521476
0.00226756
0.00110275
0.000720408
0.0006022
0.000558618
0.000535814
0.000518188
0.00332723
0.00157541
0.000889028
0.000656029
0.000574024
0.000537902
0.000515877
0.000497928
0.00175855
0.000992937
0.000696309
0.000582564
0.000533305
0.000507387
0.000490372
0.000476819
0.0013829
0.000872919
0.000712728
0.000649936
0.000617541
0.000598976
0.000589452
0.000582587
0.00299063
0.00135798
0.000850823
0.000701021
0.000644952
0.000616421
0.000600936
0.00059045
0.00617327
0.00246493
0.0011545
0.000785273
0.000680048
0.000637903
0.000615863
0.000601154
0.00941037
0.00379452
0.0015746
0.000890802
0.000711332
0.000652991
0.000625913
0.000608507
0.00880365
0.00380131
0.00163684
0.000914738
0.000716562
0.000652628
0.000623766
0.000605968
0.00589508
0.00266327
0.00128537
0.00082724
0.000689584
0.000638294
0.000614099
0.000599308
0.00317866
0.00159858
0.000956985
0.000737474
0.000658407
0.00062312
0.000605867
0.000594875
0.00170213
0.000957916
0.000738955
0.000677929
0.000662993
0.000653951
0.000625601
0.000570282
0.003889
0.00164823
0.000924167
0.000734719
0.00068839
0.00067263
0.000643904
0.000586043
0.00787969
0.00314127
0.00134826
0.000846883
0.000731327
0.000699417
0.000665448
0.000602094
0.0118413
0.00484374
0.00191958
0.000998677
0.000781072
0.000724879
0.000680121
0.000607448
0.0114082
0.00496091
0.00204469
0.00105436
0.000807257
0.000742123
0.000693122
0.000617394
0.00792842
0.00355014
0.00160366
0.000960275
0.000791962
0.000738551
0.000688879
0.000612491
0.00435535
0.00210515
0.00116228
0.000858333
0.000768973
0.000728953
0.000678488
0.000602363
0.000458438
0.000435461
0.000405761
0.000377402
0.000352461
0.000327375
0.000303099
0.000280057
0.000534462
0.000498131
0.00046517
0.000437838
0.000415948
0.0003972
0.000378335
0.000359183
0.000699029
0.000570177
0.000510156
0.000476218
0.000454373
0.000436541
0.000420422
0.000405285
0.000784417
0.000580035
0.000510757
0.000479182
0.000460527
0.000446811
0.000435424
0.00042538
0.000648237
0.000537503
0.000483974
0.000455275
0.000438988
0.000426635
0.000415513
0.00040388
0.000498671
0.000465473
0.00043455
0.000413227
0.000396673
0.000383403
0.000371775
0.000358925
0.000424877
0.000408352
0.000388073
0.000363497
0.000340569
0.000318488
0.000297175
0.000276735
0.000850717
0.000654042
0.000570147
0.000522593
0.000490696
0.000467007
0.000448144
0.000432228
0.00130282
0.000807526
0.00064437
0.000573869
0.000533637
0.00050622
0.000485211
0.000467715
0.00192912
0.00099336
0.000719214
0.000624119
0.000576383
0.000545942
0.000524132
0.000507245
0.00209088
0.00100358
0.000721617
0.000634636
0.000593936
0.00056916
0.000552378
0.000540571
0.0015444
0.000839628
0.000658502
0.000594627
0.000560748
0.000537737
0.000519788
0.000504584
0.000990269
0.000686114
0.000592983
0.00055004
0.000523078
0.000502689
0.00048497
0.000468246
0.000704908
0.000594497
0.000543805
0.000511076
0.000486447
0.000466327
0.000449048
0.000433795
0.00171751
0.000971225
0.000686924
0.000578708
0.000531712
0.0005068
0.000490269
0.000476946
0.00305257
0.00142052
0.000823123
0.000630562
0.000562778
0.000531889
0.000512214
0.000495626
0.00467365
0.0019598
0.000959726
0.000669543
0.00058455
0.000552348
0.000534096
0.000518752
0.00517469
0.00201779
0.000942857
0.000662667
0.000588521
0.0005632
0.000550321
0.00053953
0.00371571
0.00148301
0.000795521
0.000622359
0.000571876
0.000550539
0.000535972
0.000521712
0.00200848
0.000958259
0.000662543
0.000578619
0.000547134
0.000529695
0.000515346
0.000500609
0.00105203
0.000689293
0.00057906
0.000537076
0.000515923
0.000502051
0.00049059
0.000479645
0.0031264
0.00156231
0.000939243
0.000730377
0.000655765
0.0006225
0.000606309
0.000595837
0.00559203
0.00243544
0.00116769
0.000782157
0.00067301
0.000632318
0.000613084
0.000600867
0.00833749
0.00340409
0.00139957
0.000820294
0.000683066
0.000640052
0.000620128
0.000606936
0.00914992
0.00350439
0.00135504
0.000794791
0.000676751
0.000641625
0.000625067
0.000612838
0.00663189
0.00251499
0.00107394
0.000730215
0.000653637
0.000626139
0.000611881
0.000601485
0.00363429
0.00148478
0.000828066
0.000672373
0.000627355
0.000606818
0.000596193
0.000588543
0.00173364
0.000926326
0.00069688
0.000629891
0.000602285
0.000588093
0.000581802
0.000577442
0.0042877
0.00205429
0.00113503
0.00084556
0.000762146
0.000724691
0.000675776
0.000600823
0.00762087
0.00327317
0.00144211
0.000891023
0.000761079
0.000721678
0.000678784
0.000607035
0.011072
0.00453406
0.00174217
0.000919328
0.000751377
0.000713155
0.000676005
0.000608107
0.011858
0.00457145
0.00164694
0.000863366
0.000722436
0.00069297
0.00065886
0.000592529
0.0087159
0.00328159
0.00125447
0.000771447
0.000690897
0.000675865
0.000650452
0.000592658
0.00485662
0.00187195
0.000905949
0.000698274
0.000663692
0.000656278
0.000632426
0.000577773
0.0022628
0.00107047
0.000730788
0.000657454
0.000646256
0.000641276
0.000615916
0.000562805
0.000409267
0.000393772
0.000374425
0.000353165
0.0003297
0.000307072
0.000284508
0.000262963
0.000464168
0.000443177
0.000417377
0.000392235
0.000370565
0.000351461
0.000334339
0.000318692
0.00060304
0.000514989
0.000472069
0.000441059
0.000423145
0.000408536
0.000393482
0.000380307
0.000802942
0.000581207
0.000508366
0.000475457
0.000456214
0.000442371
0.000430897
0.000420941
0.000669598
0.00055202
0.000502079
0.00047201
0.000452506
0.000436329
0.000420279
0.000405794
0.00050819
0.000477306
0.000447934
0.000419459
0.000396877
0.000377443
0.000361072
0.000346307
0.000434458
0.00041588
0.000389697
0.000361859
0.000336632
0.000312405
0.000289433
0.000267675
0.000635258
0.000572757
0.000534824
0.000505838
0.000482049
0.000461864
0.000444369
0.000428945
0.000781334
0.000630108
0.00057219
0.000537927
0.00051283
0.000492419
0.000474753
0.00045879
0.00104367
0.000706563
0.000617478
0.000576168
0.000549408
0.000528875
0.00051203
0.000497335
0.00140369
0.000774702
0.000653665
0.000606131
0.000578095
0.000558493
0.000543901
0.000532737
0.0012786
0.000779773
0.000657109
0.000604336
0.000571296
0.000546428
0.000526524
0.000509979
0.000955596
0.000701643
0.000614817
0.000568663
0.000536968
0.000511438
0.00048927
0.000469122
0.000719108
0.000613263
0.000558382
0.000521172
0.00049305
0.000470251
0.000450622
0.000433063
0.00069305
0.00058969
0.000548025
0.00052493
0.000509554
0.000497599
0.000486841
0.00047616
0.000962016
0.000668684
0.000584843
0.000550331
0.000531149
0.000517376
0.000504874
0.000491794
0.00150814
0.000792669
0.000631009
0.000579533
0.000556115
0.0005414
0.000528644
0.000514969
0.00217573
0.000916563
0.000668525
0.00059923
0.000571716
0.000556956
0.000545739
0.000534251
0.00204229
0.000929458
0.000673552
0.000598326
0.000566952
0.000548543
0.000533529
0.000518302
0.00139293
0.000801017
0.000637025
0.000577701
0.000548501
0.000529216
0.000512587
0.000496021
0.000907805
0.000673738
0.000587502
0.000545936
0.000521415
0.000504256
0.000490204
0.000477361
0.000859509
0.000667861
0.00061154
0.000586521
0.000572078
0.00056429
0.000561895
0.000560174
0.00136497
0.00078047
0.000645065
0.000604349
0.000585091
0.000574182
0.000569464
0.000566238
0.00229515
0.0009808
0.000693718
0.000626655
0.000601783
0.000588051
0.000580902
0.000575641
0.00318588
0.00118156
0.000741905
0.000647226
0.000616902
0.000601225
0.00059258
0.000585584
0.00307109
0.00119986
0.000755122
0.000653283
0.000618931
0.000600788
0.000590709
0.000583286
0.00208623
0.00100264
0.000725483
0.00064748
0.000614954
0.000596716
0.000586878
0.000579771
0.00125987
0.000824608
0.000689755
0.000636637
0.000608877
0.00059299
0.00058509
0.000579206
0.000920213
0.000636314
0.000573997
0.000565797
0.000573392
0.00057922
0.000566913
0.000529692
0.00166393
0.00079103
0.000604097
0.000571163
0.000573658
0.000581241
0.000573184
0.000538052
0.00291969
0.00107974
0.0006631
0.000589182
0.000583151
0.000589633
0.000582738
0.000547562
0.00399558
0.00135644
0.00072653
0.000612271
0.000597225
0.000599728
0.000589132
0.000549386
0.00386952
0.00137747
0.000751096
0.000630635
0.000612716
0.000613643
0.000601623
0.000560433
0.0026329
0.00111608
0.000726646
0.00064225
0.000627702
0.000625749
0.00060834
0.000562403
0.00152203
0.000883166
0.00070338
0.000655633
0.000645438
0.000638987
0.000613853
0.000562403
0.000236891
0.000276334
0.000316292
0.000342825
0.000318761
0.000271838
0.00023323
0.000403937
0.000408597
0.000424526
0.000432536
0.000425968
0.000409884
0.00040294
0.000460509
0.000458016
0.000461296
0.000467966
0.000463175
0.000458832
0.000459852
0.000556167
0.000549401
0.000544105
0.000541201
0.000541581
0.000543538
0.000545743
0.000473896
0.000470066
0.000466122
0.0004626
0.000461769
0.000461132
0.000460492
0.00025048
0.00035179
0.00039625
0.000415473
0.000399052
0.00035318
0.00025726
0.000412503
0.000446082
0.000482291
0.000517442
0.000489214
0.000454115
0.000418077
0.000464968
0.000479875
0.000499427
0.000516643
0.000502197
0.000481702
0.000464856
0.000565065
0.000568214
0.000574191
0.000578386
0.000577149
0.000574359
0.00057445
0.000483097
0.000484364
0.000486417
0.000481633
0.000490169
0.000493496
0.000496502
0.000257744
0.000340595
0.000390984
0.000416619
0.000391512
0.000343698
0.000257176
0.0004183
0.000452309
0.000493763
0.000532256
0.000491662
0.000453025
0.0004199
0.000465108
0.000480325
0.000504015
0.000528248
0.000507063
0.000485504
0.000468733
0.000575529
0.000576836
0.000580143
0.00058406
0.000576459
0.000567754
0.00056203
0.000495873
0.000491801
0.000487753
0.000474
0.000481898
0.000478784
0.000477403
0.000244177
0.000304239
0.000368857
0.000413021
0.00039377
0.000329392
0.000248054
0.000415039
0.000444201
0.000484599
0.000524419
0.00049641
0.000451818
0.000417246
0.000465277
0.000478138
0.000500352
0.000521871
0.000502739
0.000479872
0.000465209
0.000547481
0.000550032
0.000555998
0.000562631
0.000561742
0.000560089
0.000562443
0.000460537
0.000459996
0.000461723
0.000457616
0.000467759
0.000472629
0.000479094
0.000218309
0.000202817
0.000194853
0.000190601
0.000188776
0.000187668
0.000185994
0.000182771
0.000246346
0.000213558
0.000196785
0.000190143
0.000186564
0.000184095
0.00018212
0.00017934
0.000290118
0.000253412
0.000223925
0.000204598
0.000193753
0.000187328
0.000182481
0.000178875
0.00032287
0.000292237
0.000264851
0.000244353
0.000229163
0.000214119
0.000197651
0.000183944
0.000293633
0.000258361
0.000229936
0.000209669
0.000195389
0.000187314
0.000182005
0.000178321
0.000243113
0.000212525
0.000197163
0.000190527
0.000186903
0.000184275
0.00018209
0.000179146
0.00021626
0.000202067
0.000194748
0.000190709
0.000188717
0.000187291
0.000185347
0.000181953
0.000387578
0.000367733
0.000353471
0.000344052
0.000336561
0.000329054
0.000319901
0.000307633
0.000389047
0.000363741
0.000346004
0.000335911
0.000330018
0.000324613
0.000317164
0.000306233
0.000404307
0.000374915
0.000350707
0.000333408
0.000324585
0.000319588
0.000313891
0.000304317
0.000412796
0.000383444
0.000356691
0.000336088
0.000322332
0.000312282
0.000304433
0.000296021
0.00040526
0.000375246
0.000350421
0.000332944
0.000323666
0.000318682
0.000313208
0.000303871
0.000390383
0.000365163
0.000347125
0.000336571
0.00033021
0.000324451
0.000316859
0.000305885
0.000386761
0.000367294
0.000353215
0.00034363
0.000335991
0.000328399
0.000319217
0.000306975
0.000449233
0.000433601
0.000417882
0.000403775
0.000391145
0.000378904
0.000365446
0.000348962
0.00044609
0.000430736
0.00041569
0.000402215
0.000390149
0.000378417
0.000365409
0.000349333
0.000446972
0.000429411
0.00041423
0.000401272
0.000389602
0.000378073
0.000365211
0.000349284
0.000450783
0.000429061
0.000411429
0.000398088
0.000387317
0.000376665
0.000364344
0.000348804
0.000447936
0.00042947
0.000414058
0.000401212
0.000389595
0.000378028
0.000365123
0.000349201
0.000446348
0.000430273
0.000414934
0.000401441
0.000389502
0.000377927
0.000365047
0.000349061
0.000447987
0.000431889
0.000416228
0.000402386
0.000390069
0.000378105
0.00036486
0.000348538
0.000528944
0.000486336
0.000450147
0.000426411
0.000409159
0.00039451
0.000379544
0.000361796
0.000523759
0.000483628
0.000449016
0.000426076
0.000409211
0.000394783
0.000379989
0.000362393
0.000518512
0.000480173
0.000447376
0.00042555
0.000409223
0.000394985
0.000380232
0.000362643
0.000514749
0.000476622
0.000444695
0.00042389
0.000408538
0.000394985
0.00038056
0.000363063
0.000516373
0.00047871
0.000446548
0.000425132
0.000409028
0.000394889
0.000380177
0.000362617
0.000519181
0.000480563
0.000447073
0.00042481
0.000408392
0.000394271
0.000379678
0.000362207
0.00052084
0.000481078
0.000446938
0.000424397
0.00040789
0.000393733
0.000379093
0.000361553
0.00048358
0.000507233
0.000468802
0.000436823
0.00041467
0.00039803
0.000382485
0.000364621
0.000479689
0.000504495
0.000467618
0.000436425
0.000414615
0.000398142
0.000382719
0.000364961
0.000475773
0.000501701
0.000466329
0.000435979
0.000414537
0.000398197
0.000382819
0.000365088
0.000472381
0.000498993
0.000464861
0.000435452
0.000414588
0.000398503
0.000383169
0.000365388
0.000472341
0.000498886
0.000464632
0.000435038
0.000414037
0.000397938
0.000382692
0.000365033
0.000472373
0.000498478
0.00046388
0.000434241
0.000413383
0.000397472
0.000382371
0.000364789
0.000472202
0.000498008
0.000463169
0.000433571
0.000412847
0.000397043
0.000381984
0.000364395
0.000229663
0.000210602
0.000200081
0.000193717
0.000189386
0.000186314
0.000183868
0.000180366
0.000324359
0.000288224
0.000259172
0.000234287
0.000214687
0.000200523
0.000192407
0.000186743
0.000379734
0.000355
0.000334718
0.000317217
0.000300187
0.000281067
0.000261554
0.000242529
0.000403671
0.000390112
0.000382694
0.00038166
0.000373896
0.000358735
0.000347936
0.000337376
0.000383308
0.000360935
0.000341886
0.000326572
0.000312356
0.000295442
0.00027589
0.000255907
0.00032671
0.000295237
0.00026838
0.000244358
0.000223177
0.000207058
0.000195176
0.000188235
0.000235097
0.000213995
0.000202337
0.00019613
0.000191816
0.000188187
0.000184993
0.000181235
0.000395732
0.000374243
0.000357854
0.000346298
0.000337273
0.000328333
0.000317955
0.000304649
0.000428557
0.00040435
0.000384169
0.000367199
0.000351951
0.000337721
0.000322857
0.000305434
0.000468731
0.000451647
0.000437009
0.000422681
0.000406719
0.000389504
0.000370836
0.00034815
0.000510353
0.000505583
0.000504725
0.000501202
0.000486427
0.000473415
0.000460777
0.000445381
0.000475695
0.000458694
0.00044377
0.000429573
0.000412812
0.000394046
0.000374378
0.000351168
0.000436142
0.000411909
0.000391305
0.000373098
0.000356512
0.000340948
0.000325224
0.000307233
0.00040136
0.000379623
0.000362588
0.000350264
0.000340125
0.000330275
0.000319274
0.000305566
0.000451892
0.000435066
0.000419008
0.000404702
0.000391735
0.000378957
0.000364819
0.000347661
0.00046322
0.000442006
0.000423322
0.000407233
0.000392743
0.000378557
0.000363095
0.000344725
0.000482703
0.000461129
0.000442064
0.000425711
0.000410919
0.000396161
0.000379729
0.000360271
0.000503576
0.000487275
0.000472227
0.000456945
0.000437431
0.000416787
0.000399398
0.000381481
0.000485417
0.000463501
0.00044386
0.00042682
0.00041131
0.000396079
0.000379799
0.00036081
0.000464926
0.000443467
0.000424442
0.000408036
0.000393367
0.000379091
0.000363609
0.0003452
0.000452247
0.000435677
0.000419498
0.000405058
0.000392013
0.000379204
0.000365031
0.00034781
0.000533864
0.000488466
0.000451299
0.00042725
0.000409792
0.000394816
0.000379383
0.000361128
0.000533321
0.000486637
0.000449425
0.000425472
0.000408074
0.000393092
0.000377601
0.00035931
0.00053599
0.000488335
0.000451354
0.000428212
0.000411992
0.000398283
0.000384046
0.000367164
0.000537309
0.00048667
0.000447014
0.000421432
0.000403373
0.000388758
0.000374926
0.000361649
0.000537581
0.000489015
0.000451456
0.000427946
0.00041152
0.000397821
0.000383762
0.000367085
0.000537176
0.00048872
0.000450479
0.000426057
0.000408476
0.000393426
0.000377908
0.000359599
0.000540304
0.000492047
0.000453098
0.000428184
0.000410317
0.000395135
0.000379585
0.000361253
0.000491694
0.000514214
0.000473635
0.000440164
0.000416977
0.000399495
0.000383192
0.000364676
0.000490842
0.000513125
0.000472613
0.000439311
0.000416279
0.00039887
0.000382557
0.000364008
0.000490833
0.000513369
0.000473542
0.000441054
0.000418931
0.000402439
0.00038705
0.000369498
0.000482948
0.000502762
0.000462142
0.000430067
0.000409245
0.000394569
0.000381352
0.000366765
0.000492457
0.000514593
0.000474167
0.00044132
0.000419038
0.000402514
0.000387149
0.000369631
0.000496854
0.000517833
0.000475404
0.000440897
0.000417201
0.000399439
0.000382938
0.000364285
0.000501616
0.000521977
0.000478233
0.000442759
0.000418432
0.000400308
0.00038364
0.000364914
0.000234291
0.000213024
0.000201168
0.000194339
0.000190789
0.000189193
0.000187502
0.000184004
0.000314644
0.000279882
0.00025202
0.000228521
0.000210759
0.000202201
0.000198551
0.00019385
0.000373745
0.000348409
0.000327253
0.00030613
0.000284566
0.000264663
0.000246806
0.000230938
0.000406697
0.000395209
0.000383261
0.000365431
0.000348505
0.00033386
0.000318768
0.000304672
0.000375735
0.00035168
0.000333037
0.000315153
0.000295494
0.000275142
0.000255818
0.000238073
0.000319785
0.000286994
0.000262447
0.000241828
0.000221428
0.000205259
0.000197312
0.000192681
0.000235784
0.000214952
0.000201812
0.000194183
0.00019023
0.000188334
0.000186674
0.00018353
0.000402038
0.000380708
0.000364001
0.000352171
0.000342742
0.000333265
0.000322236
0.000308319
0.000434161
0.000409568
0.000388845
0.000372292
0.000359201
0.00034655
0.000331687
0.000313324
0.00047888
0.000461186
0.00044531
0.000430028
0.00041589
0.000401239
0.000382422
0.000356454
0.000523752
0.000516893
0.000505751
0.000493248
0.000486755
0.000480333
0.000469486
0.000448413
0.000476868
0.000458399
0.000442283
0.000427658
0.000414141
0.000400732
0.000383379
0.00035834
0.000435363
0.000410951
0.000389707
0.000373121
0.000360128
0.000348338
0.000334106
0.000315618
0.000403355
0.000381318
0.000363475
0.000350891
0.00034131
0.000332442
0.000322313
0.000309242
0.00045264
0.000436336
0.000420461
0.00040626
0.000393287
0.000380432
0.000366219
0.000349009
0.000464478
0.000444073
0.000425826
0.000410256
0.000396146
0.000381894
0.000366089
0.000347497
0.000488287
0.000467569
0.000448884
0.000432921
0.000418525
0.000404145
0.000387676
0.000368459
0.00051544
0.000497572
0.000479866
0.000463394
0.000451924
0.000443034
0.000428895
0.000415584
0.000490924
0.000469345
0.000450143
0.000434014
0.000419768
0.000405774
0.000389507
0.000370128
0.000469062
0.00044724
0.000427913
0.00041174
0.000397435
0.000383243
0.00036735
0.000348473
0.000456325
0.000439086
0.000422248
0.000407369
0.000394083
0.000381216
0.000367163
0.000350144
0.000541309
0.00049295
0.000453917
0.000428931
0.000410974
0.000395722
0.000380156
0.000361852
0.000539746
0.00049084
0.000452195
0.000427653
0.000410062
0.000395047
0.000379739
0.000361971
0.000541259
0.000492624
0.000455427
0.000432791
0.00041741
0.000404945
0.000393134
0.000381073
0.000542588
0.000490771
0.000451334
0.000427873
0.000414188
0.000407181
0.000408694
0.000426152
0.000539128
0.000491985
0.000455717
0.000433623
0.000418507
0.000406065
0.000394028
0.000381519
0.000533732
0.000487731
0.000450772
0.000427014
0.000409803
0.000394998
0.00037977
0.000362
0.000532724
0.000488732
0.000452005
0.000428032
0.000410581
0.000395671
0.000380392
0.000362327
0.000501106
0.000521617
0.000478019
0.000442655
0.000418419
0.000400379
0.000383789
0.000365128
0.000495654
0.000516575
0.000474443
0.000440433
0.000417295
0.000400091
0.000384158
0.000366087
0.000490997
0.000513372
0.000474082
0.000442915
0.000422732
0.000408804
0.000396841
0.000383799
0.000475143
0.000493814
0.00045571
0.000428409
0.000414428
0.000409919
0.000413689
0.000428527
0.000486797
0.000509986
0.000472149
0.00044199
0.000422385
0.000408729
0.000396823
0.0003837
0.000485437
0.000508276
0.000469226
0.000437303
0.000415446
0.000399013
0.000383547
0.000365767
0.000486257
0.000509577
0.000470476
0.000438112
0.000415722
0.000398855
0.00038306
0.000364946
0.000226802
0.000209361
0.000199238
0.000193763
0.000190474
0.000188212
0.000185799
0.000182051
0.000286988
0.000264408
0.000245075
0.000227881
0.000213113
0.000202541
0.00019653
0.000190772
0.00035382
0.000336666
0.000322589
0.000308984
0.000293227
0.000274794
0.000256028
0.000238245
0.000402299
0.00039369
0.000388306
0.000380205
0.000365641
0.000351395
0.000339875
0.000326986
0.000376961
0.000359691
0.000343755
0.000327536
0.000309827
0.000288764
0.000266661
0.000246016
0.000306546
0.000279574
0.000255716
0.000233108
0.000213592
0.000200314
0.000193664
0.000188633
0.000228974
0.000211027
0.000200505
0.000193891
0.000189125
0.000186185
0.000183914
0.000180483
0.000398398
0.000377113
0.000360604
0.000348479
0.000339096
0.000330376
0.000320375
0.00030741
0.000426386
0.000402071
0.000381546
0.000364827
0.000351203
0.000338841
0.000325183
0.000308168
0.000469322
0.000450482
0.000434848
0.000420786
0.000406028
0.000391119
0.000374161
0.000352016
0.000515396
0.000507329
0.000502145
0.000490526
0.000479155
0.000471357
0.000461281
0.000447618
0.000480576
0.000461548
0.000445486
0.00043044
0.00041426
0.000397269
0.000378661
0.000355229
0.000432086
0.000406748
0.00038529
0.000368021
0.000353727
0.000340435
0.000325737
0.00030784
0.000398736
0.000375607
0.000358346
0.000346529
0.000337706
0.000328984
0.000318622
0.000305255
0.000452554
0.00043518
0.000418668
0.000404311
0.000391619
0.000379289
0.000365638
0.000348879
0.000462755
0.000441806
0.000422735
0.000406578
0.000392431
0.000378673
0.000363482
0.000345263
0.000484095
0.000462491
0.000443179
0.000426657
0.000411874
0.000397225
0.000381185
0.000361799
0.000508192
0.000490504
0.0004737
0.000456667
0.000437401
0.000421118
0.000406948
0.000389349
0.000485913
0.000464255
0.000444966
0.000428267
0.000413139
0.000398364
0.000382399