/*--------------------------------*- C++ -*----------------------------------*\
| =========                 |                                                 |
| \\      /  F ield         | OpenFOAM: The Open Source CFD Toolbox           |
|  \\    /   O peration     | Version:  plus.master.MPPICInterFoam            |
|   \\  /    A nd           | Web:      www.OpenFOAM.com                      |
|    \\/     M anipulation  |                                                 |
\*---------------------------------------------------------------------------*/
FoamFile
{
    version     2.0;
    format      ascii;
    class       labelField;
    location    "10.6/lagrangian/kinematicCloud";
    object      origId;
}
// * * * * * * * * * * * * * * * * * * * * * * * * * * * * * * * * * * * * * //


69
(
58219
55631
60917
93497
74336
45051
63319
59340
88415
89139
21930
51939
29798
80407
9797
71936
22252
73203
93737
56760
68238
77269
9440
87889
54654
49145
78676
72739
7540
70851
7853
71261
40653
80488
68745
85394
69102
82311
6151
59293
87816
82578
77412
59847
71268
72631
49188
40125
81642
69472
89852
93238
18361
67905
92109
77840
6909
36368
54328
58781
82394
71663
37152
54779
87117
77792
64704
87793
50354
)


// ************************************************************************* //
