/*--------------------------------*- C++ -*----------------------------------*\
| =========                 |                                                 |
| \\      /  F ield         | OpenFOAM: The Open Source CFD Toolbox           |
|  \\    /   O peration     | Version:  plus.master.MPPICInterFoam            |
|   \\  /    A nd           | Web:      www.OpenFOAM.com                      |
|    \\/     M anipulation  |                                                 |
\*---------------------------------------------------------------------------*/
FoamFile
{
    version     2.0;
    format      ascii;
    class       vectorField;
    location    "10/lagrangian/kinematicCloud";
    object      U;
}
// * * * * * * * * * * * * * * * * * * * * * * * * * * * * * * * * * * * * * //


48
(
(0.000614078 0.000457375 -0.0178675)
(0.00426325 0.00398647 -0.073811)
(0.00381166 0.00646225 -0.0839812)
(0.0057427 0.00706781 -0.0840673)
(0.00629685 0.00699932 -0.085653)
(0.00496341 0.00706497 -0.0860799)
(0.00565108 0.00989601 -0.093015)
(0.00552806 0.0126 -0.097139)
(0.0059565 0.0129025 -0.0971153)
(0.00775375 -0.0217182 -0.0996435)
(0.00609638 0.0149124 -0.0989278)
(0.00689369 0.0148637 -0.0986003)
(0.0068881 0.0163517 -0.101769)
(0.00629382 0.017751 -0.10254)
(0.0076314 0.0166294 -0.101442)
(0.00822749 0.0195603 -0.106133)
(0.00696735 0.019555 -0.108014)
(0.00607717 0.0262184 -0.118037)
(0.00688522 0.0353219 -0.131672)
(0.00325253 0.0374762 -0.128054)
(0.00399172 0.0406538 -0.137374)
(0.00671811 -0.0840843 -0.155077)
(0.00759074 0.0589217 -0.144407)
(0.00582627 0.0727036 -0.134778)
(-0.00391709 0.114018 -0.136139)
(0.00236523 0.111086 -0.123444)
(0.00946995 0.095676 -0.144274)
(-0.00330235 0.129639 -0.040339)
(0.00301568 0.128121 -0.00486288)
(-0.00592316 0.120255 0.0497453)
(0.00831496 0.0948333 0.13159)
(0.00984317 0.101431 0.121774)
(0.00423185 0.0742273 0.2447)
(-0.00423291 0.0742152 0.265907)
(-0.00405547 0.0343909 0.352538)
(-0.00887348 0.0200805 0.375846)
(-0.00623217 0.0253385 0.37896)
(-0.00295541 0.0105995 0.392333)
(0.000668069 0.00553745 0.382809)
(0.00144252 0.00404085 0.387937)
(0.0019502 0.00357603 0.391109)
(0.00203392 0.00331722 0.394974)
(0.00250964 0.00184348 0.397371)
(0.00212798 0.000999922 0.409156)
(0.0019822 0.000929538 0.415786)
(-0.000494598 0.0013289 0.432067)
(-8.27614e-05 0.00162291 0.43137)
(-0.0010522 0.00308924 0.442537)
)


// ************************************************************************* //
