/*--------------------------------*- C++ -*----------------------------------*\
| =========                 |                                                 |
| \\      /  F ield         | OpenFOAM: The Open Source CFD Toolbox           |
|  \\    /   O peration     | Version:  plus.master.MPPICInterFoam            |
|   \\  /    A nd           | Web:      www.OpenFOAM.com                      |
|    \\/     M anipulation  |                                                 |
\*---------------------------------------------------------------------------*/
FoamFile
{
    version     2.0;
    format      ascii;
    class       volScalarField;
    location    "11.6";
    object      epsilon;
}
// * * * * * * * * * * * * * * * * * * * * * * * * * * * * * * * * * * * * * //

dimensions      [0 2 -3 0 0 0 0];

internalField   nonuniform List<scalar> 
11821
(
0.416143
0.568518
0.389311
0.644129
0.471252
0.333298
0.461938
0.514031
0.513813
0.464652
0.391588
0.313814
0.241266
0.652775
0.753172
0.749807
0.650333
0.524789
0.405488
0.303624
0.862836
0.985739
0.994435
0.873688
0.673745
0.499118
0.361909
0.913315
0.897445
1.00307
1.03979
0.805754
0.572468
0.40349
0.877556
0.688856
0.838422
1.05775
0.840968
0.591623
0.413887
0.89159
0.86886
0.925262
0.952527
0.758657
0.547748
0.389399
0.782326
0.894129
0.89199
0.777712
0.615814
0.464164
0.33827
0.457816
0.50328
0.502701
0.459963
0.393783
0.319983
0.248943
0.628176
0.71527
0.710942
0.627244
0.517482
0.407915
0.310009
0.817084
0.986665
0.975887
0.828108
0.650319
0.494278
0.365683
0.939415
0.908648
1.00122
1.01817
0.76452
0.559566
0.404469
0.939387
0.770331
0.923332
1.06758
0.800506
0.578349
0.414745
0.877177
0.924414
0.960795
0.926733
0.728113
0.5408
0.392577
0.739077
0.838081
0.842934
0.747723
0.60512
0.465648
0.344053
0.465878
0.50815
0.50613
0.464509
0.399215
0.325885
0.255258
0.637842
0.708766
0.70331
0.6268
0.521441
0.413084
0.315708
0.802447
0.879646
0.90302
0.807521
0.649199
0.498109
0.370618
0.865192
0.787412
0.916902
0.942328
0.753098
0.561263
0.4087
0.808463
0.749574
0.784445
0.962432
0.789133
0.581017
0.419177
0.835692
0.837568
0.895201
0.902436
0.733557
0.548249
0.398062
0.742189
0.810065
0.828579
0.755768
0.619716
0.474572
0.349762
0.475222
0.51781
0.514837
0.47175
0.405271
0.331598
0.261172
0.656412
0.72147
0.71307
0.636104
0.528582
0.418552
0.321114
0.770994
0.780985
0.849002
0.80225
0.657434
0.504065
0.375609
0.701808
0.765173
0.794044
0.878019
0.759132
0.567983
0.413403
0.703557
0.699916
0.77204
0.839183
0.789686
0.587786
0.423585
0.677764
0.695668
0.743785
0.856198
0.748966
0.557146
0.402686
0.73703
0.73981
0.759778
0.755282
0.631829
0.481168
0.354136
0.479736
0.524115
0.520624
0.476627
0.409552
0.336218
0.266232
0.664471
0.7326
0.720282
0.640337
0.531438
0.421929
0.325565
0.778453
0.83568
0.855774
0.809165
0.659634
0.506616
0.379512
0.73917
0.735757
0.810759
0.8814
0.763174
0.570544
0.416937
0.640127
0.657225
0.765368
0.847564
0.793228
0.589585
0.426541
0.716851
0.653705
0.752124
0.833489
0.750378
0.558201
0.405568
0.745962
0.744658
0.774937
0.757203
0.630261
0.48189
0.357318
0.476448
0.522059
0.518856
0.475587
0.410009
0.338074
0.268846
0.655154
0.729666
0.715451
0.634922
0.528449
0.421765
0.32721
0.801414
0.869466
0.894234
0.807507
0.653111
0.503864
0.379881
0.801041
0.746058
0.910812
0.922163
0.756226
0.565913
0.416361
0.705746
0.693342
0.775163
0.919565
0.789102
0.584206
0.425628
0.757933
0.709946
0.824673
0.868379
0.736815
0.551186
0.404568
0.740631
0.770841
0.801433
0.748017
0.617527
0.477349
0.35752
0.469337
0.513526
0.510904
0.469483
0.406361
0.336374
0.268421
0.639796
0.714534
0.702529
0.624084
0.520767
0.417475
0.325311
0.812808
0.90099
0.921325
0.802991
0.641728
0.496399
0.376179
0.821243
0.858474
0.974469
0.955738
0.743035
0.555749
0.411266
0.761851
0.709385
0.863237
0.978114
0.777356
0.57379
0.42047
0.781812
0.780094
0.893921
0.912413
0.723205
0.541597
0.400147
0.728758
0.81158
0.821656
0.747123
0.60759
0.471035
0.354873
0.463456
0.504849
0.501273
0.461379
0.400495
0.332484
0.266045
0.626398
0.69617
0.682634
0.608331
0.51011
0.410808
0.3213
0.788753
0.89783
0.892368
0.776464
0.624609
0.486274
0.370418
0.830092
0.881724
0.993141
0.92153
0.719462
0.542674
0.40425
0.807434
0.692838
0.880338
0.96872
0.753755
0.560639
0.413516
0.793468
0.780172
0.882118
0.889011
0.704056
0.53086
0.394358
0.70555
0.784335
0.800403
0.729105
0.595754
0.463896
0.350821
0.460189
0.498963
0.494167
0.454506
0.394589
0.327822
0.262767
0.622359
0.682539
0.668454
0.596299
0.500859
0.403954
0.316524
0.778656
0.851537
0.856004
0.754556
0.610999
0.477131
0.364325
0.795506
0.796285
0.923778
0.881506
0.701136
0.531791
0.39736
0.743832
0.740843
0.862278
0.894275
0.732229
0.549658
0.406697
0.756728
0.750691
0.828317
0.857734
0.690534
0.522051
0.388384
0.691524
0.749994
0.769528
0.712865
0.587029
0.457157
0.346071
0.456897
0.495207
0.488958
0.448806
0.389083
0.323039
0.259228
0.617486
0.678298
0.659813
0.587684
0.493229
0.397493
0.311671
0.745649
0.812113
0.828159
0.739578
0.60085
0.46922
0.35849
0.738976
0.797844
0.858786
0.852448
0.689294
0.5231
0.391012
0.650268
0.708779
0.840359
0.868323
0.722657
0.541471
0.400412
0.661148
0.703352
0.807368
0.823887
0.680632
0.514288
0.382603
0.670629
0.710066
0.744194
0.699235
0.578007
0.450426
0.341304
0.453079
0.49111
0.484169
0.443194
0.383227
0.317879
0.255238
0.613063
0.674611
0.654833
0.580865
0.485731
0.390788
0.306462
0.747186
0.81297
0.831034
0.733437
0.592377
0.461456
0.352431
0.752093
0.774858
0.882247
0.851913
0.680871
0.514988
0.384659
0.666247
0.679559
0.774381
0.866874
0.714265
0.53328
0.394114
0.68366
0.679276
0.806529
0.820579
0.672225
0.506636
0.376798
0.666331
0.7094
0.746826
0.694698
0.570578
0.443859
0.336423
0.445852
0.482896
0.475338
0.434275
0.375118
0.311219
0.250232
0.603986
0.665517
0.644508
0.569389
0.474999
0.381988
0.299896
0.741334
0.817883
0.828731
0.721458
0.579547
0.45077
0.344546
0.73778
0.767121
0.90359
0.847117
0.667425
0.503199
0.376016
0.667023
0.673473
0.819964
0.873876
0.701147
0.52131
0.385437
0.662672
0.687292
0.816067
0.817901
0.659548
0.495731
0.368904
0.650727
0.70703
0.743847
0.686489
0.560258
0.434992
0.329949
0.434874
0.469353
0.461184
0.42157
0.364737
0.303289
0.244497
0.588685
0.645383
0.622908
0.550537
0.460106
0.371062
0.292245
0.727994
0.800698
0.805752
0.696537
0.559647
0.436715
0.335079
0.726145
0.769211
0.863252
0.817639
0.642743
0.486671
0.365284
0.682225
0.680399
0.798985
0.825956
0.673528
0.504094
0.374522
0.669088
0.679769
0.792875
0.794124
0.637353
0.48061
0.359041
0.62878
0.68804
0.724116
0.668241
0.544247
0.423146
0.321957
0.422241
0.453724
0.4457
0.408339
0.354313
0.295446
0.238806
0.567649
0.616172
0.595126
0.529152
0.44467
0.360198
0.284716
0.698672
0.758417
0.755496
0.662777
0.53784
0.422499
0.325753
0.702645
0.7274
0.819616
0.769759
0.614527
0.469643
0.354646
0.622321
0.679608
0.790592
0.78651
0.644664
0.486563
0.363687
0.65035
0.659824
0.766324
0.759457
0.612625
0.464851
0.349151
0.60995
0.662221
0.696049
0.642691
0.525696
0.410593
0.313858
0.411104
0.440979
0.43334
0.397398
0.345364
0.288438
0.233507
0.548338
0.593735
0.574732
0.51237
0.431978
0.350862
0.27794
0.669863
0.725374
0.725285
0.638193
0.520567
0.410629
0.317573
0.681187
0.753521
0.811968
0.741144
0.593204
0.455641
0.345441
0.603102
0.658426
0.759299
0.773158
0.622824
0.47202
0.354293
0.595904
0.634987
0.739026
0.731507
0.591401
0.451296
0.340482
0.588279
0.636695
0.669063
0.618219
0.50879
0.39953
0.30665
0.402005
0.431127
0.423563
0.388391
0.337507
0.281889
0.228329
0.533856
0.579441
0.560862
0.500223
0.421868
0.342698
0.271558
0.653485
0.715805
0.709402
0.622251
0.507911
0.400903
0.31018
0.669079
0.724347
0.78786
0.722177
0.577793
0.444616
0.337386
0.58496
0.637136
0.729408
0.749951
0.604686
0.460336
0.346121
0.59053
0.626323
0.720898
0.709088
0.574487
0.440377
0.332889
0.56566
0.617112
0.646226
0.599127
0.495478
0.390483
0.300216
0.0441934
0.0612871
0.129675
0.0943596
0.0698431
0.0536573
0.0454454
0.0603764
0.279965
0.199544
0.14244
0.102245
0.0744924
0.0562039
0.04659
0.0599909
0.287966
0.206183
0.147627
0.106044
0.0771291
0.0579986
0.0479216
0.0618355
0.271784
0.198736
0.14499
0.105788
0.0779694
0.0594337
0.0501429
0.0682646
0.240714
0.18373
0.138446
0.103696
0.0782744
0.0612261
0.0535637
0.0783057
0.176959
0.137545
0.106728
0.0832141
0.0658905
0.0541907
0.0495271
0.0736585
0.218328
0.163259
0.122604
0.0928428
0.0715015
0.0571909
0.0506824
0.0719758
0.258156
0.189374
0.139131
0.102943
0.0773911
0.0603301
0.0518977
0.070685
0.286555
0.208494
0.151602
0.110779
0.0820934
0.0629531
0.0530967
0.0701662
0.294042
0.214776
0.156551
0.114454
0.0847214
0.0648279
0.0545755
0.0722356
0.278721
0.20748
0.153803
0.114061
0.0855247
0.0663698
0.0570814
0.0794428
0.249214
0.192823
0.147166
0.111795
0.0857614
0.06829
0.0609024
0.0906717
0.185368
0.145842
0.114537
0.0903399
0.0723218
0.0601362
0.0556879
0.08453
0.226307
0.171584
0.130644
0.10021
0.0780791
0.0631373
0.0566513
0.0822176
0.265008
0.197264
0.147103
0.110409
0.084094
0.066348
0.0578328
0.0805789
0.292211
0.215798
0.159337
0.118226
0.0888884
0.0690975
0.0591426
0.0800367
0.299523
0.221849
0.16412
0.121862
0.0915979
0.0711535
0.0608957
0.0826631
0.284996
0.214722
0.161325
0.121428
0.0924733
0.0729108
0.0637923
0.0908165
0.256276
0.200158
0.154528
0.119019
0.0927285
0.0750687
0.0681503
0.10352
0.192606
0.153054
0.121376
0.0966065
0.0779993
0.0654139
0.0611983
0.0945269
0.23323
0.178825
0.137667
0.106656
0.0838431
0.06837
0.0619408
0.0915665
0.271247
0.204193
0.154102
0.11696
0.0899768
0.0716508
0.0631042
0.0896423
0.297793
0.222335
0.166219
0.124845
0.0949245
0.074575
0.0645684
0.0892077
0.304963
0.228204
0.170933
0.128556
0.0978251
0.076907
0.0667101
0.092759
0.29085
0.221169
0.168157
0.128212
0.0989105
0.0789998
0.0701099
0.102134
0.262212
0.206505
0.161225
0.125788
0.099342
0.0815174
0.0750853
0.116457
0.199243
0.15949
0.127347
0.102006
0.0828762
0.0699698
0.0659913
0.103349
0.239715
0.185374
0.143823
0.112193
0.0887608
0.0728543
0.0665201
0.0997948
0.277279
0.210617
0.160329
0.122636
0.0950189
0.0762105
0.067679
0.0976704
0.303348
0.228545
0.172476
0.130679
0.100169
0.0793316
0.0693249
0.0974509
0.310254
0.234291
0.177257
0.134585
0.103337
0.0819888
0.0719064
0.102144
0.296357
0.227394
0.174638
0.134476
0.104728
0.0844463
0.0757859
0.112583
0.267719
0.212666
0.167707
0.132195
0.105437
0.087378
0.0813851
0.128494
0.204739
0.164676
0.132089
0.106304
0.0868199
0.0737449
0.0700668
0.110872
0.245134
0.190652
0.148666
0.116538
0.0926835
0.0765325
0.0703929
0.106777
0.282414
0.215856
0.165241
0.127069
0.0990158
0.0799263
0.0715287
0.104422
0.30821
0.233756
0.177483
0.135259
0.104327
0.0832132
0.0733373
0.104393
0.314946
0.239555
0.182421
0.139383
0.107756
0.0861801
0.0763451
0.110255
0.301249
0.232807
0.179999
0.139529
0.109454
0.0889987
0.0806887
0.121681
0.272758
0.21813
0.173211
0.137507
0.110506
0.0923593
0.0868833
0.139014
0.207839
0.167826
0.135169
0.109292
0.089749
0.0767195
0.0734322
0.117046
0.2478
0.193584
0.151619
0.119433
0.0955191
0.079385
0.0735683
0.112525
0.284442
0.218476
0.168053
0.129914
0.101845
0.0827806
0.0746791
0.10999
0.309758
0.236176
0.180249
0.138149
0.107259
0.0862097
0.0766707
0.110392
0.316427
0.242035
0.185315
0.142447
0.110912
0.0894573
0.0800658
0.117207
0.302952
0.235523
0.183139
0.142858
0.112902
0.0926162
0.0848458
0.129516
0.275081
0.221241
0.176685
0.141159
0.1143
0.0963833
0.0915988
0.148099
0.208483
0.169043
0.136771
0.11116
0.0918166
0.0790018
0.0761785
0.12223
0.247556
0.194272
0.152906
0.121106
0.0974466
0.0815281
0.0761253
0.117359
0.283152
0.218564
0.169014
0.131433
0.103713
0.0849064
0.0772171
0.1147
0.307712
0.235865
0.181029
0.139632
0.109192
0.0884718
0.0794323
0.115785
0.314368
0.241752
0.186172
0.144064
0.113035
0.0919686
0.0831622
0.123298
0.301434
0.235608
0.184277
0.144731
0.115298
0.0954451
0.088351
0.136418
0.274556
0.221919
0.178216
0.143345
0.117009
0.0995875
0.0956303
0.156152
0.207599
0.169024
0.137391
0.112236
0.0932201
0.0806949
0.0783498
0.126619
0.245607
0.193611
0.153149
0.121958
0.098697
0.0830785
0.0781084
0.121396
0.280103
0.217236
0.168889
0.132107
0.104894
0.0864412
0.0791988
0.118693
0.303924
0.234115
0.180704
0.140261
0.110436
0.0901535
0.0816792
0.12064
0.310606
0.240029
0.185915
0.144817
0.114457
0.0938763
0.0856979
0.128694
0.298349
0.234292
0.184304
0.145733
0.11698
0.0976506
0.091264
0.142557
0.272429
0.22116
0.178596
0.144629
0.118981
0.102144
0.0990363
0.163379
0.206005
0.168347
0.1374
0.112739
0.0940816
0.0818573
0.0799458
0.130085
0.243005
0.192333
0.152803
0.122246
0.0994082
0.0841072
0.0795391
0.124564
0.276559
0.215377
0.168222
0.132236
0.105545
0.0874655
0.0806544
0.121923
0.299817
0.231928
0.17989
0.140372
0.111159
0.0913282
0.0834119
0.124794
0.30654
0.237898
0.185195
0.145064
0.115353
0.0952567
0.0876845
0.133322
0.294872
0.232546
0.183868
0.146232
0.11813
0.0993063
0.0935903
0.147869
0.269737
0.219872
0.178474
0.145397
0.120409
0.104125
0.101806
0.169687
0.204027
0.167204
0.136907
0.112738
0.0944518
0.0825363
0.0810029
0.132531
0.240157
0.190646
0.15197
0.122025
0.0996266
0.084661
0.0804594
0.12679
0.272967
0.213215
0.167103
0.131864
0.105703
0.088023
0.0816408
0.124461
0.295834
0.229543
0.178668
0.139988
0.111378
0.0920138
0.0846351
0.128091
0.302628
0.235608
0.184089
0.144818
0.11573
0.0961208
0.089124
0.137033
0.291467
0.230617
0.183051
0.146237
0.118744
0.100416
0.0953245
0.152183
0.266978
0.218361
0.177978
0.145683
0.121296
0.105529
0.103921
0.174862
0.201453
0.165479
0.135873
0.112247
0.0943851
0.0828174
0.0816555
0.134231
0.236707
0.188346
0.150561
0.12129
0.0993931
0.0848107
0.0809663
0.128194
0.268808
0.210413
0.165375
0.13095
0.105396
0.0881858
0.0822866
0.126609
0.291352
0.226508
0.176809
0.13903
0.111093
0.0922483
0.0854044
0.130544
0.298236
0.232668
0.182328
0.14397
0.115569
0.0964958
0.0900628
0.139814
0.287565
0.228053
0.18158
0.145624
0.118792
0.100999
0.0965074
0.15546
0.263754
0.216284
0.176869
0.145358
0.121596
0.106363
0.105416
0.178832
0.198092
0.163136
0.134337
0.111343
0.0939793
0.0828285
0.0821279
0.136065
0.232278
0.18532
0.14859
0.120107
0.0988016
0.0846773
0.081266
0.129522
0.263423
0.206757
0.163016
0.129546
0.104694
0.0880184
0.0826252
0.128226
0.28541
0.222491
0.174243
0.13753
0.110369
0.0921068
0.0858031
0.132291
0.292313
0.228682
0.179811
0.142538
0.114931
0.0964561
0.0905859
0.141797
0.282237
0.22447
0.179341
0.144401
0.11833
0.101127
0.0972217
0.157819
0.259363
0.213289
0.175015
0.144409
0.121354
0.106698
0.106374
0.18171
0.19422
0.160392
0.132469
0.110158
0.0933286
0.0826157
0.0823612
0.137399
0.227188
0.181831
0.14626
0.11863
0.0979643
0.0843366
0.0813901
0.130696
0.257183
0.202556
0.160256
0.12782
0.10372
0.0876105
0.0827214
0.129382
0.278403
0.217834
0.171225
0.135672
0.109342
0.091695
0.0859268
0.133516
0.285233
0.223996
0.176802
0.140716
0.113959
0.0961138
0.0907971
0.143183
0.275815
0.220181
0.176587
0.142761
0.117505
0.100918
0.097577
0.159474
0.254035
0.209619
0.172636
0.143019
0.120717
0.106654
0.106915
0.183727
0.190293
0.157539
0.130465
0.108825
0.0925289
0.08225
0.0824134
0.138343
0.222118
0.178275
0.143811
0.117015
0.0969844
0.0838519
0.0813495
0.131519
0.251016
0.198324
0.157394
0.125956
0.102597
0.0870491
0.0826416
0.130166
0.271484
0.213162
0.16811
0.13367
0.108153
0.0911126
0.0858559
0.134341
0.278225
0.219289
0.173686
0.138734
0.112803
0.095577
0.0907864
0.144122
0.269406
0.215837
0.173706
0.140943
0.116473
0.100485
0.0976736
0.1606
0.248641
0.205841
0.170098
0.141428
0.11985
0.106359
0.10715
0.185088
0.186483
0.154687
0.128405
0.107413
0.0916375
0.081782
0.0823327
0.138938
0.217334
0.174791
0.141338
0.115334
0.095922
0.0832733
0.081188
0.132022
0.245336
0.194257
0.154543
0.124037
0.101392
0.0863908
0.0824377
0.130632
0.265204
0.208729
0.165032
0.131614
0.106872
0.0904211
0.0856475
0.134824
0.271884
0.214839
0.170608
0.136686
0.111539
0.0949115
0.0906172
0.144676
0.263576
0.211716
0.170843
0.139038
0.115308
0.0998998
0.0975836
0.161272
0.243664
0.202223
0.167552
0.139732
0.118831
0.105888
0.107166
0.185886
0.182648
0.151786
0.126295
0.105949
0.0906895
0.0812464
0.0821652
0.13935
0.212603
0.171278
0.138821
0.113609
0.0948103
0.0826348
0.0809495
0.132366
0.239851
0.190203
0.151656
0.122074
0.100137
0.0856713
0.0821555
0.130935
0.259264
0.204351
0.161919
0.129504
0.10553
0.0896589
0.0853518
0.135121
0.265927
0.210452
0.167482
0.134564
0.110194
0.0941589
0.0903452
0.145006
0.258059
0.207626
0.167905
0.13703
0.114039
0.0992082
0.097374
0.161674
0.238886
0.198601
0.164911
0.137912
0.117688
0.105297
0.107053
0.186373
0.5915
0.465445
0.360338
0.274615
0.208357
0.162876
0.145019
0.229416
0.738801
0.563083
0.424077
0.314862
0.231749
0.174436
0.14823
0.22196
0.827959
0.625575
0.460966
0.335272
0.241317
0.176879
0.145482
0.208912
0.799686
0.599316
0.440137
0.318522
0.227926
0.165933
0.135176
0.190755
0.66249
0.499307
0.370838
0.270773
0.195748
0.144386
0.119262
0.169997
0.499571
0.381288
0.286889
0.212848
0.157306
0.119491
0.102188
0.151115
0.357332
0.278358
0.213797
0.162547
0.124033
0.0981277
0.0880983
0.137617
0.574971
0.463398
0.364752
0.281016
0.215508
0.170915
0.155061
0.248507
0.701291
0.547618
0.422443
0.318564
0.237554
0.181772
0.157834
0.240353
0.778331
0.598717
0.453299
0.33598
0.245582
0.183421
0.154576
0.226268
0.75177
0.575748
0.433592
0.319403
0.232147
0.17234
0.14393
0.207363
0.635105
0.489736
0.37048
0.274143
0.200997
0.151044
0.127697
0.185691
0.492345
0.382266
0.290935
0.218069
0.163301
0.126229
0.110205
0.165873
0.359713
0.282951
0.219017
0.168148
0.130042
0.104617
0.0956966
0.15165
0.589824
0.48046
0.375979
0.289388
0.223161
0.179044
0.165084
0.269689
0.692532
0.566241
0.435786
0.327666
0.245419
0.189937
0.167724
0.261459
0.739226
0.611073
0.465207
0.344323
0.253104
0.191458
0.164292
0.246822
0.743254
0.587745
0.443638
0.326927
0.239358
0.180149
0.15323
0.226764
0.643986
0.501115
0.3788
0.281002
0.207895
0.158472
0.136397
0.20332
0.503851
0.391044
0.297622
0.224357
0.169886
0.133241
0.118319
0.181973
0.36706
0.28881
0.224567
0.174015
0.136297
0.111257
0.103357
0.166768
0.60262
0.493927
0.385064
0.296718
0.230304
0.18668
0.174337
0.290489
0.67647
0.584762
0.44849
0.336865
0.253467
0.197909
0.176846
0.281862
0.687875
0.628216
0.479881
0.354798
0.261917
0.199806
0.173404
0.266773
0.704913
0.605026
0.456891
0.336802
0.247958
0.188309
0.162003
0.24555
0.652809
0.515803
0.388955
0.289256
0.215589
0.16601
0.144621
0.220451
0.517805
0.40053
0.305054
0.231354
0.176835
0.140235
0.126035
0.197691
0.374739
0.295113
0.230775
0.180419
0.142797
0.117819
0.110655
0.181588
0.605751
0.494597
0.387093
0.300488
0.235542
0.193035
0.182328
0.308269
0.689078
0.589137
0.451742
0.34114
0.258888
0.204183
0.18441
0.298318
0.708115
0.636445
0.485184
0.36029
0.268007
0.206311
0.18081
0.28237
0.722803
0.61196
0.462585
0.342833
0.254345
0.194874
0.169267
0.260449
0.661965
0.521091
0.39424
0.295103
0.221803
0.172391
0.151683
0.234657
0.523184
0.405403
0.310515
0.237317
0.182984
0.146435
0.132882
0.211318
0.379791
0.300473
0.236602
0.186437
0.14876
0.123747
0.11723
0.194717
0.593862
0.482937
0.382647
0.30081
0.238696
0.197927
0.189068
0.322823
0.699583
0.573763
0.443858
0.339562
0.260953
0.208352
0.190479
0.311088
0.724876
0.621973
0.476231
0.358301
0.269811
0.210198
0.186486
0.293947
0.734866
0.600431
0.456855
0.342429
0.256838
0.199002
0.17494
0.271707
0.655327
0.513875
0.39247
0.296796
0.22531
0.176966
0.157491
0.246033
0.517371
0.404004
0.312414
0.240894
0.187365
0.151345
0.138745
0.222769
0.38021
0.303151
0.240486
0.190846
0.153416
0.128682
0.123014
0.206049
0.577774
0.471157
0.37752
0.300046
0.240588
0.201638
0.194772
0.335162
0.693121
0.554667
0.433929
0.336011
0.261236
0.211141
0.195613
0.322304
0.75148
0.602386
0.464384
0.353359
0.269175
0.212408
0.191207
0.304253
0.741304
0.584537
0.447391
0.338655
0.256755
0.201447
0.179686
0.281782
0.644707
0.503625
0.387686
0.295825
0.22675
0.180144
0.162449
0.256263
0.508734
0.400201
0.311981
0.242422
0.190137
0.15512
0.143844
0.233104
0.378041
0.303565
0.24234
0.193566
0.156794
0.132716
0.128161
0.216371
0.565814
0.465211
0.374922
0.299537
0.241778
0.204431
0.199602
0.346353
0.674089
0.543032
0.428282
0.33366
0.261299
0.213341
0.20021
0.333565
0.726236
0.58764
0.456739
0.349746
0.268479
0.21423
0.195625
0.315297
0.720414
0.571703
0.440372
0.335364
0.25634
0.203449
0.18411
0.292514
0.63139
0.495883
0.383756
0.294508
0.22755
0.182728
0.166945
0.266602
0.502228
0.397141
0.311049
0.243082
0.192085
0.158226
0.148405
0.243162
0.37584
0.303094
0.243108
0.195319
0.159403
0.13614
0.132801
0.226287
0.560811
0.464222
0.373169
0.298545
0.242177
0.206415
0.203609
0.356867
0.646184
0.541813
0.426174
0.332049
0.261284
0.215154
0.204208
0.344718
0.698469
0.5861
0.454724
0.347899
0.268367
0.216084
0.199692
0.32672
0.708158
0.568995
0.437356
0.333597
0.256526
0.205509
0.188188
0.303515
0.626841
0.493017
0.381616
0.293838
0.228493
0.185118
0.170974
0.276759
0.50006
0.39552
0.31037
0.243593
0.19376
0.160926
0.152418
0.252767
0.374317
0.302496
0.243525
0.196712
0.161615
0.139097
0.136884
0.235636
0.551374
0.458285
0.369132
0.296356
0.241788
0.20769
0.206797
0.366399
0.625095
0.534283
0.42142
0.329509
0.260771
0.216403
0.207361
0.354475
0.651563
0.577819
0.449877
0.345568
0.26815
0.217577
0.202961
0.336585
0.675932
0.56009
0.4333
0.332078
0.256866
0.207289
0.191505
0.31301
0.615189
0.488581
0.379548
0.293418
0.229407
0.187117
0.174258
0.285546
0.496536
0.393553
0.309657
0.244012
0.195139
0.163124
0.15571
0.261112
0.372577
0.301765
0.243768
0.197803
0.163385
0.141496
0.140262
0.243794
0.542087
0.449302
0.363332
0.2932
0.240705
0.208251
0.20909
0.37431
0.619725
0.523166
0.413978
0.325611
0.259381
0.216811
0.209492
0.362021
0.652515
0.565801
0.441861
0.341695
0.26696
0.21813
0.205103
0.343791
0.674304
0.551675
0.428006
0.329697
0.256399
0.208157
0.193728
0.319983
0.610399
0.483715
0.376747
0.2923
0.229536
0.188251
0.176563
0.292202
0.492489
0.390768
0.308231
0.243708
0.195751
0.16454
0.158149
0.267707
0.370093
0.300311
0.243282
0.198132
0.164411
0.143171
0.142855
0.250367
0.52955
0.439
0.35689
0.289469
0.23892
0.207966
0.210332
0.38005
0.614612
0.509823
0.40564
0.320909
0.257063
0.216212
0.210524
0.367361
0.652587
0.548502
0.432564
0.336789
0.264574
0.217492
0.206091
0.348724
0.660727
0.540832
0.421363
0.325901
0.254522
0.207781
0.19483
0.324794
0.601802
0.476798
0.372202
0.289609
0.228321
0.188285
0.177882
0.297045
0.485647
0.3859
0.305108
0.242022
0.195258
0.165062
0.159764
0.27274
0.365338
0.297098
0.241398
0.197358
0.164551
0.144099
0.144707
0.255484
0.515215
0.429224
0.3503
0.285028
0.236205
0.206704
0.210497
0.383554
0.598981
0.496609
0.397564
0.315505
0.253693
0.214562
0.210515
0.370917
0.641053
0.537991
0.424807
0.331237
0.261021
0.21577
0.206123
0.35235
0.650748
0.531641
0.413942
0.320592
0.251255
0.206331
0.195053
0.328356
0.590879
0.467858
0.365612
0.285233
0.225878
0.187431
0.178459
0.300759
0.475305
0.378527
0.300162
0.239057
0.19386
0.16489
0.160735
0.276724
0.358086
0.29216
0.238307
0.19571
0.164016
0.144446
0.145961
0.259474
0.501709
0.419651
0.342487
0.27933
0.232464
0.204612
0.209849
0.385308
0.577708
0.485942
0.388562
0.308723
0.249214
0.212057
0.209691
0.372925
0.614129
0.52656
0.415566
0.324151
0.256421
0.213312
0.205433
0.354755
0.631107
0.517412
0.403627
0.313625
0.247064
0.204266
0.194676
0.330901
0.572228
0.455116
0.356988
0.279806
0.222842
0.18613
0.17853
0.303502
0.461651
0.369387
0.29429
0.235561
0.192078
0.164345
0.161237
0.279758
0.349705
0.286602
0.234805
0.193723
0.163146
0.144427
0.146755
0.262488
0.484703
0.406559
0.332774
0.272614
0.228161
0.202152
0.208816
0.385924
0.548125
0.46941
0.376499
0.300507
0.244044
0.209121
0.208381
0.373368
0.577985
0.508355
0.402608
0.315548
0.251186
0.210455
0.204206
0.355294
0.608288
0.500009
0.391664
0.306031
0.242625
0.20196
0.193848
0.331845
0.552309
0.441587
0.348144
0.274377
0.219774
0.184658
0.178223
0.30497
0.448513
0.360628
0.288682
0.232176
0.190241
0.163603
0.161376
0.281646
0.342012
0.281395
0.231421
0.19168
0.162099
0.144149
0.147184
0.264504
0.466806
0.391981
0.322696
0.265983
0.224015
0.199772
0.207738
0.385935
0.527545
0.450839
0.363281
0.292106
0.238914
0.206177
0.206908
0.372589
0.559784
0.486194
0.387423
0.306461
0.245842
0.207431
0.202685
0.354093
0.584344
0.481128
0.379674
0.298747
0.238303
0.199555
0.192734
0.331291
0.535736
0.42942
0.340221
0.269387
0.216764
0.183035
0.177626
0.305273
0.437598
0.353105
0.283672
0.228943
0.188306
0.162655
0.16124
0.282553
0.335303
0.276604
0.228104
0.189509
0.160844
0.143645
0.147361
0.265707
0.340086
0.263099
0.199946
0.150325
0.113578
0.0890807
0.0791325
0.121495
0.364955
0.27044
0.198775
0.145217
0.106688
0.0810693
0.0689921
0.0987529
0.363693
0.264283
0.190693
0.137091
0.0992534
0.0742002
0.0615931
0.08358
0.331663
0.240777
0.17351
0.124813
0.0905746
0.0678436
0.0561128
0.0742152
0.28154
0.206288
0.150441
0.109885
0.0811754
0.0619601
0.0520977
0.0692161
0.2273
0.169517
0.126563
0.0949894
0.0722786
0.0569115
0.0493754
0.0677584
0.176817
0.137072
0.106143
0.0825916
0.0652366
0.0534647
0.0485914
0.0713949
0.343017
0.267999
0.205495
0.156245
0.119803
0.0956207
0.0865653
0.135068
0.365542
0.274862
0.204604
0.151585
0.113227
0.0876287
0.0760272
0.110886
0.364193
0.269083
0.197126
0.144046
0.106159
0.0808523
0.0684245
0.0948676
0.33487
0.247055
0.180903
0.132367
0.0977724
0.0745513
0.0628188
0.085028
0.28778
0.214062
0.158588
0.117731
0.0883632
0.0684928
0.0585215
0.0796951
0.235264
0.178002
0.13486
0.10267
0.0791816
0.0631542
0.05557
0.0781268
0.185328
0.14549
0.114067
0.0898246
0.0717604
0.0594813
0.0547952
0.0822144
0.349267
0.273574
0.21123
0.162373
0.126236
0.102271
0.0940296
0.149576
0.371316
0.28072
0.210863
0.158206
0.119886
0.0941987
0.0830223
0.123659
0.369574
0.275229
0.203884
0.151046
0.11298
0.0873423
0.0750759
0.106431
0.340785
0.253811
0.188168
0.139617
0.10459
0.0808759
0.0691582
0.0956888
0.294443
0.221395
0.166114
0.124927
0.0949375
0.0744693
0.0644354
0.0897745
0.242493
0.18558
0.14227
0.10953
0.0853657
0.0687758
0.0612051
0.0878508
0.19277
0.152881
0.121069
0.0962421
0.077568
0.0648638
0.0603881
0.0922223
0.355715
0.279558
0.217544
0.168999
0.132848
0.108781
0.101122
0.163706
0.3785
0.287414
0.217754
0.165149
0.126567
0.100547
0.0896479
0.136047
0.376659
0.282242
0.211073
0.158094
0.11957
0.0934751
0.0813214
0.117608
0.347688
0.260993
0.195427
0.146532
0.110923
0.0866825
0.0749929
0.105898
0.301293
0.228591
0.173192
0.131482
0.100842
0.0798287
0.0697892
0.0991348
0.24943
0.19261
0.148941
0.115612
0.0908071
0.0737447
0.0662574
0.0967706
0.199637
0.159533
0.127253
0.10183
0.0826041
0.0695546
0.0653024
0.101102
0.361142
0.285416
0.223706
0.175173
0.138822
0.114628
0.107527
0.176262
0.384851
0.294022
0.224392
0.171498
0.132502
0.106196
0.0956353
0.147159
0.382975
0.288933
0.217727
0.164334
0.12531
0.09886
0.0869189
0.127613
0.35372
0.267476
0.201803
0.152447
0.116316
0.0917005
0.0801629
0.115072
0.307176
0.234784
0.179147
0.136953
0.105805
0.0844495
0.0745765
0.107542
0.255297
0.198471
0.154432
0.120593
0.0953264
0.0779946
0.0707436
0.104796
0.205377
0.16497
0.13223
0.106338
0.0867361
0.073502
0.0695411
0.108827
0.36239
0.288577
0.227816
0.179665
0.143482
0.119515
0.113202
0.187229
0.386429
0.297421
0.228623
0.176
0.137078
0.110897
0.100935
0.156976
0.384629
0.292343
0.221872
0.168683
0.129682
0.103292
0.0918217
0.136439
0.35575
0.27093
0.205792
0.156546
0.120383
0.095777
0.0846264
0.12317
0.309861
0.238346
0.182972
0.140772
0.109557
0.0882186
0.0787534
0.114957
0.258494
0.202037
0.158028
0.124099
0.0987466
0.0814421
0.074633
0.111955
0.208726
0.168368
0.135544
0.109541
0.0898614
0.0766563
0.0730815
0.115329
0.360433
0.289062
0.229715
0.182449
0.146905
0.12355
0.118282
0.197311
0.383592
0.297558
0.230402
0.178728
0.140425
0.114759
0.105635
0.165985
0.381716
0.292358
0.223523
0.171265
0.132836
0.106878
0.0960985
0.144458
0.353681
0.271241
0.207447
0.158976
0.123282
0.0990208
0.0884453
0.130369
0.309088
0.23917
0.184722
0.143085
0.112236
0.0912087
0.0823236
0.121646
0.258711
0.203248
0.159838
0.126287
0.10119
0.0841325
0.0778739
0.118395
0.209599
0.169813
0.137359
0.111604
0.0921059
0.0790965
0.0759735
0.120831
0.35804
0.288473
0.230495
0.184279
0.149582
0.126987
0.122851
0.206967
0.379953
0.296459
0.23099
0.180493
0.143021
0.118007
0.109793
0.174471
0.37744
0.290924
0.223901
0.172846
0.135207
0.109818
0.0998004
0.151878
0.349943
0.269966
0.207783
0.160384
0.125384
0.101613
0.0916942
0.136895
0.306425
0.238371
0.185175
0.144401
0.114127
0.0935358
0.0852815
0.127677
0.257136
0.202976
0.16048
0.127558
0.102888
0.0861742
0.0804781
0.124016
0.208943
0.170004
0.138169
0.112854
0.0936707
0.0809409
0.0782975
0.125602
0.356154
0.287789
0.230952
0.185736
0.151833
0.129931
0.126841
0.215968
0.377105
0.295403
0.231337
0.181869
0.145142
0.12072
0.113356
0.182229
0.373775
0.289393
0.223922
0.173956
0.137047
0.112196
0.1029
0.158536
0.346207
0.268278
0.207591
0.161229
0.126912
0.103639
0.0943687
0.142622
0.30321
0.236883
0.184977
0.145092
0.115409
0.0952607
0.0876084
0.13283
0.25475
0.201953
0.160447
0.128206
0.103999
0.0876533
0.0824945
0.128696
0.207513
0.169489
0.138341
0.113517
0.094689
0.0822709
0.0801219
0.129816
0.354284
0.28705
0.231233
0.18684
0.153593
0.132288
0.130119
0.223731
0.374777
0.294463
0.231468
0.182822
0.14672
0.122828
0.116234
0.188842
0.370673
0.287938
0.22367
0.174581
0.138308
0.113967
0.105345
0.164136
0.342744
0.266451
0.207006
0.161535
0.127856
0.105082
0.0964381
0.147362
0.299891
0.235061
0.184297
0.145221
0.116112
0.0964172
0.0893471
0.137031
0.252036
0.200489
0.159896
0.128308
0.104577
0.0886267
0.0839938
0.132446
0.205671
0.168492
0.137995
0.113661
0.0952112
0.0831337
0.0814873
0.13338
0.351732
0.285547
0.230693
0.187139
0.154595
0.133926
0.132627
0.229935
0.371889
0.292655
0.230658
0.182901
0.147518
0.124237
0.1184
0.194104
0.367165
0.28565
0.22251
0.174363
0.138827
0.115078
0.107134
0.168556
0.338751
0.263836
0.205593
0.161079
0.128127
0.105924
0.0979131
0.151122
0.295953
0.232521
0.18289
0.144682
0.116223
0.0970388
0.090536
0.14029
0.248724
0.198367
0.158706
0.12783
0.104646
0.0891507