/*--------------------------------*- C++ -*----------------------------------*\
| =========                 |                                                 |
| \\      /  F ield         | OpenFOAM: The Open Source CFD Toolbox           |
|  \\    /   O peration     | Version:  plus.master.MPPICInterFoam            |
|   \\  /    A nd           | Web:      www.OpenFOAM.com                      |
|    \\/     M anipulation  |                                                 |
\*---------------------------------------------------------------------------*/
FoamFile
{
    version     2.0;
    format      ascii;
    class       volScalarField;
    location    "11.6";
    object      k;
}
// * * * * * * * * * * * * * * * * * * * * * * * * * * * * * * * * * * * * * //

dimensions      [0 2 -2 0 0 0 0];

internalField   nonuniform List<scalar> 
11821
(
0.0470616
0.0562655
0.0450433
0.0599501
0.0500991
0.0407831
0.0505969
0.0543684
0.054727
0.0519136
0.0471813
0.0415468
0.0355815
0.0626268
0.0686122
0.0688455
0.0636341
0.0562757
0.0484672
0.0408939
0.074113
0.0800135
0.081006
0.0760506
0.0653179
0.0547501
0.0453173
0.0753637
0.0755376
0.0816362
0.0836893
0.0725332
0.0591927
0.0481624
0.0731879
0.0626684
0.0717612
0.0841473
0.0742333
0.0601526
0.0486833
0.0743578
0.0729604
0.0765093
0.0790785
0.0695873
0.0572179
0.0466949
0.0695809
0.075874
0.0762522
0.0703088
0.0610061
0.0514738
0.0425653
0.0516965
0.0552598
0.0556716
0.0531986
0.0488064
0.0433476
0.0373979
0.0630221
0.0686368
0.0688468
0.0642663
0.0575487
0.0501512
0.0427079
0.0746766
0.0838231
0.0838393
0.0762527
0.0660176
0.0561447
0.0470372
0.0817898
0.0791964
0.0839924
0.086401
0.0726329
0.060257
0.0497579
0.0822238
0.0712168
0.0804694
0.0885124
0.0744513
0.0612048
0.0502597
0.0790645
0.08102
0.0829956
0.0815847
0.0701293
0.058504
0.0483339
0.0696743
0.076089
0.07648
0.0709439
0.0621654
0.0530433
0.0442502
0.053355
0.0568495
0.0572566
0.0548775
0.0505328
0.0450529
0.0390411
0.0648105
0.0696977
0.0699856
0.0657513
0.0592614
0.051893
0.0443914
0.0753373
0.080186
0.0818965
0.0768957
0.067518
0.0578603
0.0487272
0.0804788
0.0743374
0.0829622
0.084462
0.0736995
0.0618782
0.0514287
0.0766795
0.073203
0.0738562
0.0852928
0.0755029
0.0628596
0.0519284
0.0786707
0.0789284
0.0821207
0.0819292
0.0719627
0.0603485
0.0500075
0.0705607
0.0758064
0.0770205
0.0726482
0.0642943
0.0548908
0.0458529
0.0550785
0.0586868
0.0591131
0.0567084
0.0522989
0.0467301
0.0406197
0.0665349
0.0712723
0.0715103
0.0675365
0.0611246
0.0536472
0.0460307
0.0727438
0.0741174
0.0791049
0.0771258
0.0692726
0.0596771
0.0504029
0.0681614
0.0755344
0.0761676
0.0811661
0.0750661
0.063722
0.0531115
0.0698653
0.0714936
0.0763155
0.078351
0.0764514
0.0646691
0.0535812
0.0651249
0.0690019
0.0716751
0.0790035
0.073521
0.0622228
0.0516218
0.0683453
0.0693292
0.0711432
0.0722142
0.0659474
0.0565932
0.0473697
0.0567119
0.0605275
0.0609734
0.0585069
0.0539882
0.0483139
0.0420853
0.0684082
0.073372
0.0734775
0.0694068
0.0628837
0.0552984
0.0475762
0.073998
0.0790304
0.0805315
0.0790449
0.0710648
0.0613939
0.0520099
0.0720291
0.0743153
0.0786117
0.0825
0.0769538
0.0655041
0.0547486
0.0654307
0.069179
0.0770623
0.0806791
0.0782821
0.0664151
0.0551831
0.0691533
0.0668162
0.0739655
0.0783789
0.0751606
0.0638606
0.0531685
0.070274
0.0707172
0.0736547
0.0738276
0.0674184
0.0580937
0.0488352
0.0579393
0.0619493
0.0624472
0.0599506
0.0553701
0.049608
0.043257
0.0697185
0.0751433
0.0751883
0.0709717
0.064337
0.0566593
0.0488211
0.0774845
0.0825512
0.084941
0.0811692
0.0726195
0.0627921
0.0532983
0.077853
0.0754616
0.0862594
0.0870534
0.078692
0.0669287
0.056062
0.072464
0.073582
0.0783968
0.0865817
0.0802257
0.0678253
0.0564895
0.0740239
0.0729811
0.080261
0.0828423
0.0765692
0.0651031
0.0544142
0.0722807
0.0748485
0.0778031
0.0757441
0.0685648
0.0592969
0.050035
0.0587798
0.0628343
0.0633778
0.0608737
0.0562682
0.0504572
0.0440331
0.070762
0.0764009
0.0765642
0.072125
0.0652936
0.0575304
0.0496211
0.0814288
0.0871716
0.0897593
0.0836748
0.0737852
0.0636791
0.0541006
0.0813307
0.0849047
0.092203
0.0924488
0.0801833
0.0678297
0.0568657
0.0775792
0.0757813
0.0850122
0.0930906
0.0819341
0.0687612
0.0573135
0.0783209
0.0795766
0.0871428
0.0890765
0.0780479
0.0660027
0.0552327
0.074931
0.080921
0.0823677
0.0784793
0.0697634
0.0601841
0.0508524
0.059398
0.0633776
0.0638501
0.0613534
0.0567669
0.0509569
0.0445116
0.0712668
0.0768093
0.07681
0.0724274
0.0656887
0.0579821
0.0500818
0.0819291
0.089447
0.0901771
0.0837338
0.074026
0.0640548
0.0545343
0.08501
0.0886792
0.0958839
0.0925522
0.0802655
0.0681427
0.0572865
0.0841043
0.0751362
0.0881934
0.0948769
0.0821146
0.069112
0.0577615
0.0829239
0.0814129
0.0884332
0.089562
0.078327
0.0664313
0.0557208
0.0752919
0.0811228
0.0827633
0.0788512
0.0702385
0.0607026
0.0513753
0.0599827
0.0638645
0.0642538
0.0617165
0.0571082
0.051279
0.0448228
0.0719372
0.0770478
0.0769998
0.0726317
0.0659439
0.0582604
0.0503678
0.0824452
0.0880617
0.0893978
0.0835596
0.0741508
0.0642841
0.0548026
0.0841049
0.0842936
0.0939439
0.0916294
0.0802511
0.0683432
0.0575554
0.0813788
0.0821477
0.090258
0.0921216
0.0819658
0.0693373
0.0580557
0.0816105
0.0818652
0.0867955
0.0890749
0.0785502
0.0667446
0.0560466
0.074634
0.079808
0.081621
0.0786292
0.0705592
0.0610561
0.0517249
0.0604842
0.0643894
0.0646804
0.0620795
0.0574137
0.0515316
0.045055
0.0722207
0.0775274
0.0771925
0.072868
0.0662127
0.0584986
0.0505865
0.080212
0.0862956
0.0880621
0.083273
0.0743026
0.0645067
0.0550222
0.0799255
0.0866554
0.0901651
0.0902685
0.0803012
0.068569
0.0577876
0.0734089
0.0806386
0.0903055
0.0912083
0.0821923
0.0696218
0.0583113
0.0726912
0.0788892
0.0862323
0.0872185
0.0786601
0.0670244
0.0563181
0.0726487
0.07675
0.0800705
0.0782491
0.0707163
0.0613462
0.0520173
0.0610067
0.064926
0.0651705
0.0624554
0.0576673
0.0517089
0.0451965
0.072864
0.0781793
0.0778202
0.0733344
0.0665095
0.0586889
0.050729
0.0813407
0.0869369
0.0892259
0.0838956
0.0746655
0.0647365
0.0551864
0.0821663
0.0856002
0.0925003
0.0911889
0.0807271
0.0688495
0.0579885
0.0766989
0.078881
0.0846437
0.0915878
0.0825923
0.0699186
0.0585363
0.0762057
0.0776657
0.0867595
0.0879758
0.0790993
0.0673412
0.0565604
0.0735765
0.0778438
0.0815116
0.0790627
0.0711542
0.0616617
0.0522681
0.0612563
0.0651648
0.0653483
0.0625355
0.0576743
0.0516854
0.0451757
0.0733044
0.0786931
0.0782166
0.0734985
0.0665248
0.0586443
0.0506816
0.0823534
0.0885477
0.0904019
0.0843002
0.074744
0.0646948
0.0551297
0.0826047
0.0854133
0.0952225
0.0922665
0.0809416
0.0688378
0.0579429
0.0777031
0.0796852
0.0900381
0.0935451
0.082908
0.0699366
0.0585135
0.0761603
0.0796625
0.08885
0.0892542
0.0793857
0.0673951
0.0565719
0.0741177
0.0792397
0.082761
0.0797621
0.0714153
0.0617516
0.0523192
0.0611096
0.0649018
0.0650134
0.0622041
0.0573843
0.0514554
0.0450092
0.0731806
0.0783726
0.0777462
0.0730188
0.0660989
0.0583136
0.0504462
0.0827575
0.0888164
0.090402
0.083814
0.0741958
0.064271
0.0548372
0.0835268
0.0877552
0.0940993
0.0918338
0.0802726
0.0683503
0.0576201
0.0816268
0.0819023
0.0899306
0.0920241
0.0821243
0.0694452
0.0582032
0.0790386
0.0808612
0.088911
0.0892293
0.0788852
0.0670087
0.0563185
0.0739803
0.0792921
0.0827374
0.0796436
0.0711201
0.0614901
0.0521464
0.0607122
0.0643435
0.0644319
0.0617022
0.0569849
0.0511502
0.0447838
0.0724517
0.0772261
0.0766141
0.0721631
0.0654861
0.0578805
0.0501429
0.0817133
0.0872879
0.0882453
0.08243
0.0733173
0.0637016
0.0544629
0.082507
0.0852966
0.0926944
0.0899019
0.0791357
0.0676743
0.0572015
0.0767225
0.0830313
0.0911809
0.090787
0.0810297
0.0687753
0.0577937
0.0784998
0.0804759
0.0883989
0.0880127
0.0779741
0.0664274
0.0559637
0.0732276
0.0782659
0.0817043
0.0786984
0.0704597
0.0610522
0.0518801
0.0603566
0.0639123
0.0639982
0.0612998
0.0566402
0.050863
0.0445497
0.0717484
0.0764204
0.0758638
0.0715239
0.0649939
0.0575046
0.0498529
0.0806734
0.0864551
0.0872594
0.0814863
0.0726442
0.06323
0.0541237
0.0821719
0.0899681
0.0942164
0.0889691
0.0783172
0.0671248
0.0568313
0.0761206
0.0822877
0.0898221
0.0908017
0.0802201
0.06822
0.0574312
0.0739863
0.0791949
0.0872001
0.0869065
0.0771492
0.065919
0.0556456
0.071987
0.0771881
0.080553
0.077674
0.069817
0.0606591
0.051635
0.060105
0.0636279
0.0636994
0.0609945
0.0563334
0.0505663
0.0442817
0.0713177
0.0760184
0.0754696
0.0711604
0.0646467
0.057173
0.0495486
0.0802759
0.0864395
0.0868633
0.0810411
0.0722489
0.0628728
0.0538
0.0820371
0.0882637
0.0929275
0.0884384
0.0778402
0.0667455
0.0565037
0.0755067
0.0810547
0.0879693
0.0900717
0.079611
0.0678286
0.0571177
0.0748551
0.0795159
0.0867545
0.0862012
0.0766051
0.065569
0.0553684
0.0710999
0.0765734
0.0797666
0.0770984
0.0694266
0.0603855
0.0514095
0.0081981
0.00331793
0.0236616
0.0192565
0.0154567
0.0120416
0.00859863
0.00342938
0.0373827
0.0305891
0.024924
0.0201525
0.0160729
0.0124495
0.0088491
0.00346472
0.0378294
0.0310004
0.025275
0.0204287
0.0162742
0.0125882
0.00894114
0.00348577
0.0363423
0.0300899
0.0247401
0.0201209
0.0161008
0.0124993
0.00891335
0.00356731
0.0334977
0.0283562
0.0236688
0.0194564
0.0156943
0.0122619
0.00879319
0.00364161
0.0295909
0.025351
0.0214951
0.0180007
0.0148012
0.0117578
0.00850938
0.00349205
0.0336417
0.0282576
0.0236129
0.0195539
0.0159371
0.0125772
0.00907089
0.00369196
0.0371059
0.0308541
0.0255156
0.0209241
0.0169046
0.0132394
0.00949034
0.00380802
0.0393174
0.0325326
0.0267571
0.0218159
0.0175253
0.0136542
0.00974658
0.00384402
0.0397082
0.0328918
0.0270631
0.0220566
0.0177032
0.0137802
0.00983382
0.00386475
0.0381998
0.0319286
0.0264644
0.0216875
0.0174809
0.0136588
0.00978941
0.00394509
0.0353534
0.0301381
0.025314
0.0209404
0.0170016
0.0133664
0.00963495
0.00401342
0.0313632
0.0270329
0.023052
0.019404
0.0160275
0.0127823
0.00928369
0.00382716
0.0354488
0.0299947
0.0252346
0.0210203
0.0172167
0.0136412
0.00987055
0.00403387
0.0388838
0.0325938
0.0271589
0.0224218
0.0182164
0.0143302
0.0103079
0.00415496
0.0410389
0.0342417
0.0283872
0.0233149
0.0188475
0.0147591
0.0105763
0.0041958
0.0414012
0.0345653
0.0286614
0.0235344
0.0190163
0.0148856
0.0106685
0.00422638
0.0398846
0.0335633
0.0280147
0.0231222
0.0187638
0.0147486
0.0106202
0.00431045
0.0370074
0.0317105
0.0267889
0.0223032
0.0182282
0.0144202
0.0104487
0.00438058
0.0329763
0.0285608
0.0244636
0.0206728
0.0171326
0.0137039
0.0099812
0.00412396
0.0371063
0.0315791
0.0267074
0.022345
0.0183659
0.0145928
0.0105843
0.00433474
0.0405392
0.0341914
0.0286594
0.0237806
0.0193984
0.0153084
0.0110399
0.00446145
0.0426693
0.0358249
0.0298891
0.0246881
0.0200508
0.0157593
0.0113253
0.00451079
0.0430085
0.0361221
0.0301458
0.0249035
0.0202269
0.0158999
0.011433
0.00456326
0.0414696
0.0350844
0.0294646
0.0244676
0.019965
0.0157659
0.0113933
0.00466047
0.0385235
0.0331611
0.0281727
0.0235975
0.0194
0.0154262
0.0112228
0.00473711
0.0344953
0.0299701
0.0257405
0.0218016
0.0181039
0.0145071
0.010585
0.00437754
0.0386926
0.0330585
0.0280485
0.0235255
0.0193743
0.0154194
0.0112
0.00459132
0.0421488
0.0357068
0.0300425
0.025002
0.0204415
0.0161614
0.011672
0.0047247
0.0442724
0.037347
0.0312933
0.0259384
0.021124
0.0166384
0.0119764
0.00478585
0.0445859
0.0376293
0.0315518
0.0261684
0.0213217
0.016803
0.0121062
0.00486777
0.0430176
0.0365672
0.0308569
0.0257326
0.0210704
0.0166839
0.012082
0.00497518
0.0399971
0.03458
0.0295174
0.0248354
0.0204956
0.0163469
0.0119205
0.00506068
0.0358571
0.0312004
0.0268313
0.0227526
0.0189163
0.0151767
0.0110863
0.00458897
0.0401426
0.0343644
0.0291983
0.024519
0.0202152
0.0161069
0.0117109
0.00480473
0.0436546
0.0370681
0.0312413
0.0260348
0.0213124
0.0168699
0.0121953
0.00494205
0.0458038
0.0387428
0.0325284
0.027005
0.0220241
0.017371
0.0125175
0.00501272
0.0461076
0.0390342
0.0328055
0.0272587
0.0222477
0.0175612
0.0126705
0.00512436
0.044515
0.0379566
0.0321082
0.0268314
0.0220119
0.0174603
0.0126632
0.00524219
0.041426
0.0359164
0.0307387
0.0259249
0.0214401
0.0171322
0.0125121
0.00533625
0.0369147
0.0321517
0.0276769
0.0234965
0.0195605
0.0157155
0.0114942
0.00475795
0.0412668
0.0353652
0.0300795
0.025288
0.0208771
0.0166576
0.0121258
0.00497579
0.0448219
0.0381065
0.0321532
0.0268286
0.021994
0.0174354
0.0126198
0.00511627
0.0469982
0.0398101
0.0334677
0.0278241
0.0227289
0.0179573
0.0129587
0.00520312
0.0473098
0.0401183
0.0337661
0.0281011
0.0229769
0.0181717
0.0131333
0.00533799
0.0456946
0.0390362
0.0330762
0.0276884
0.0227592
0.0180895
0.0131427
0.00546536
0.0425671
0.0369754
0.0317005
0.026785
0.0221951
0.0177708
0.0130008
0.0055669
0.0376363
0.0328226
0.0282949
0.0240596
0.0200639
0.016148
0.0118286
0.00489613
0.0420069
0.0360495
0.0307087
0.0258613
0.0213894
0.0170967
0.0124638
0.00511597
0.0455659
0.0387975
0.032791
0.0274127
0.0225179
0.0178853
0.0129659
0.00525986
0.0477478
0.0405112
0.0341188
0.0284242
0.0232711
0.0184261
0.0133217
0.00537005
0.0480759
0.0408367
0.0344364
0.0287225
0.0235421
0.0186634
0.0135165
0.0055201
0.0464675
0.0397672
0.0337624
0.0283281
0.023344
0.018601
0.0135432
0.00565645
0.0433422
0.0377133
0.0323951
0.0274335
0.0227895
0.0182925
0.0134111
0.00576524
0.038118
0.0332943
0.0287503
0.0244909
0.0204608
0.016496
0.0121023
0.0050114
0.0424762
0.0365153
0.0311639
0.0262961
0.021791
0.0174484
0.0127386
0.0052314
0.0460172
0.0392543
0.0332456
0.0278531
0.0229283
0.0182466
0.0132487
0.00537992
0.0481939
0.0409698
0.0345818
0.0288786
0.0236994
0.0188067
0.0136228
0.00551782
0.0485413
0.0413132
0.0349187
0.0291988
0.023994
0.0190673
0.0138372
0.0056785
0.0469612
0.0402667
0.0342661
0.0288262
0.0238183
0.0190265
0.0138822
0.00582323
0.0438561
0.038229
0.0329117
0.0279434
0.0232761
0.0187312
0.0137627
0.00593972
0.0384637
0.0336443
0.0290964
0.0248239
0.0207702
0.0167692
0.0123185
0.00510233
0.0428048
0.0368583
0.0315095
0.0266317
0.0221034
0.0177234
0.0129543
0.00532194
0.0463292
0.0395904
0.0335928
0.0281952
0.0232499
0.0185313
0.0134728
0.00547702
0.0485051
0.0413116
0.0349411
0.0292376
0.0240405
0.0191117
0.013866
0.00564335
0.0488724
0.0416759
0.0353008
0.0295826
0.0243603
0.0193958
0.0140995
0.00581333
0.0473221
0.040656
0.0346737
0.0292355
0.0242097
0.0193783
0.0141633
0.0059664
0.0442369
0.0386335
0.0333335
0.0283679
0.0236842
0.0190998
0.014059
0.0060909
0.0387236
0.0339032
0.0293501
0.0250672
0.0209965
0.0169699
0.0124779
0.00516697
0.0430584
0.0371152
0.0317635
0.0268759
0.0223304
0.0179237
0.0131119
0.00538603
0.0465805
0.03985
0.033852
0.0284466
0.0234852
0.0187402
0.0136379
0.00555358
0.0487666
0.041586
0.0352172
0.0295074
0.0242951
0.0193396
0.0140488
0.00574287
0.0491564
0.0419753
0.0356033
0.0298788
0.02464
0.0196462
0.0143001
0.0059213
0.0476341
0.0409829
0.0350044
0.0295594
0.0245156
0.0196518
0.0143823
0.00608252
0.0445625
0.0389748
0.0336818
0.0287115
0.0240101
0.0193922
0.0142935
0.00621483
0.038877
0.0340564
0.0295036
0.025219
0.0211424
0.0171029
0.0125854
0.00521163
0.0432075
0.0372632
0.0319124
0.027024
0.0224732
0.0180539
0.0132164
0.00542664
0.0467352
0.0399998
0.0340028
0.0285983
0.0236337
0.0188777
0.013751
0.00561806
0.0489419
0.0417523
0.0353833
0.0296743
0.0244587
0.0194914
0.014174
0.00581677
0.0493575
0.0421682
0.0357951
0.0300701
0.0248261
0.0198175
0.0144405
0.00600203
0.0478623
0.0412054
0.0352258
0.0297785
0.0247266
0.0198445
0.0145391
0.0061705
0.0448045
0.0392186
0.0339266
0.0289535
0.024242
0.0196028
0.0144643
0.00630968
0.0388929
0.0340933
0.0295585
0.0252876
0.0212195
0.0171814
0.0126553
0.00525934
0.0431985
0.0372808
0.031953
0.0270823
0.0225429
0.0181268
0.0132806
0.00546408
0.0467106
0.0400054
0.0340362
0.0286539
0.0237041
0.0189536
0.0138197
0.00566616
0.0489211
0.0417624
0.0354235
0.0297387
0.0245389
0.0195768
0.0142506
0.00586902
0.0493588
0.0422001
0.0358564
0.0301546
0.0249247
0.0199188
0.014529
0.00605915
0.0478991
0.0412704
0.0353167
0.029889
0.0248477
0.0199644
0.0146416
0.00623334
0.0448777
0.0393164
0.0340457
0.0290881
0.0243832
0.0197387
0.0145786
0.00637791
0.038797
0.0340391
0.0295379
0.0252936
0.0212449
0.0172186
0.0126949
0.00529367
0.0430547
0.0371948
0.0319108
0.0270735
0.0225583
0.0181572
0.0133156
0.00549703
0.046527
0.0398939
0.0339788
0.0286369
0.0237159
0.0189833
0.0138553
0.00570016
0.0487195
0.0416434
0.0353652
0.029725
0.0245562
0.0196126
0.0142913
0.00590522
0.0491719
0.0420969
0.0358147
0.030157
0.0249568
0.0199671
0.014579
0.00609867
0.0477558
0.0412019
0.0353038
0.0299159
0.0249003
0.020029
0.014703
0.00627697
0.0447903
0.0392879
0.0340629
0.0291386
0.0244544
0.0198175
0.0146498
0.00642523
0.0386475
0.0339349
0.0294715
0.0252588
0.0212353
0.0172268
0.0127127
0.00531786
0.0428548
0.0370574
0.0318216
0.0270226
0.0225375
0.018158
0.0133286
0.00552008
0.0462825
0.0397289
0.0338724
0.0285756
0.0236893
0.0189815
0.0138676
0.00572316
0.0484519
0.0414681
0.0352558
0.0296647
0.0245327
0.0196145
0.0143069
0.00592953
0.0489159
0.0419358
0.0357202
0.030111
0.0249459
0.0199793
0.0146018
0.00612532
0.0475428
0.0410748
0.0352374
0.0298932
0.0249081
0.0200554
0.0147353
0.00630655
0.0446344
0.0391999
0.0340261
0.029139
0.0244801
0.0198569
0.0146901
0.00645707
0.0384724
0.0337994
0.0293731
0.0251941
0.0211993
0.0172132
0.0127141
0.00533301
0.0426397
0.0368923
0.0317007
0.0269414
0.02249
0.0181367
0.0133252
0.00553405
0.0460349
0.0395415
0.0337357
0.0284834
0.0236349
0.0189564
0.0138624
0.00573673
0.0481894
0.0412744
0.035117
0.0295724
0.0244793
0.0195913
0.0143035
0.00594367
0.0486668
0.0417574
0.0355958
0.0300312
0.0249027
0.0199638
0.0146037
0.00614097
0.0473326
0.040929
0.03514
0.0298348
0.0248811
0.0200516
0.0147448
0.00632413
0.0444721
0.0390899
0.0339571
0.0291029
0.0244698
0.0198645
0.0147058
0.00647567
0.0382562
0.0336263
0.0292434
0.0251043
0.0211435
0.0171842
0.0127043
0.00534315
0.042386
0.0366875
0.0315459
0.0268332
0.0224217
0.0180999
0.0133107
0.00554323
0.0457583
0.039315
0.0335629
0.028362
0.023558
0.0189146
0.0138455
0.00574514
0.0479091
0.0410437
0.03494
0.0294479
0.0244009
0.0195494
0.0142872
0.00595191
0.0484033
0.041542
0.035431
0.0299157
0.0248312
0.0199273
0.0145914
0.0061498
0.0471035
0.040744
0.0349997
0.0297378
0.0248232
0.0200247
0.0147387
0.00633409
0.0442837
0.0389398
0.0338446
0.029027
0.0244267
0.0198476
0.0147053
0.00648623
0.05818
0.0497853
0.0420198
0.0348254
0.0282174
0.0221279
0.0160702
0.00746348
0.0673054
0.0564265
0.0468452
0.0383181
0.030666
0.0237699
0.0171131
0.00783911
0.07232
0.0604417
0.0494995
0.0400314
0.0317044
0.0243343
0.0173759
0.00786126
0.0708099
0.0589015
0.0482051
0.0389084
0.0307405
0.0235346
0.0167574
0.0075044
0.06303
0.0526354
0.0434576
0.0352863
0.0280237
0.0215577
0.0153902
0.00684763
0.0529241
0.0446233
0.0371646
0.0304383
0.0244043
0.0189568
0.0136294
0.006062
0.0430825
0.0368034
0.0309893
0.0256556
0.0208087
0.0163475
0.0118467
0.00530347
0.0587879
0.0507672
0.0431801
0.0359687
0.0292699
0.0230615
0.0168283
0.00785574
0.0676425
0.056915
0.047731
0.0393332
0.0316617
0.0246891
0.0178822
0.00824467
0.0726453
0.0605101
0.0501082
0.0408983
0.0326249
0.0252238
0.0181411
0.00826597
0.0707484
0.0590339
0.0488663
0.0397947
0.0316732
0.024437
0.017532
0.00791126
0.0632984
0.0533377
0.0444278
0.036315
0.0290275
0.0224923
0.0161705
0.007246
0.0538621
0.0457861
0.0383524
0.0315658
0.0254516
0.019898
0.0143907
0.00643895
0.0443703
0.038096
0.0322015
0.0267749
0.021833
0.0172525
0.012568
0.00564983
0.0602647
0.052558
0.0446771
0.0372376
0.0303868
0.0240491
0.0176352
0.00828455
0.0678241
0.0586019
0.0493016
0.0406622
0.0328314
0.0257314
0.0187415
0.00870744
0.0713073
0.0617855
0.0515766
0.0421968
0.0337993
0.0262916
0.0190302
0.00874413
0.0713333
0.06049
0.0503085
0.0410741
0.0328458
0.0255075
0.0184183
0.00838413
0.0648269
0.0549363
0.0458463
0.0375718
0.0301812
0.023535
0.0170221
0.00768799
0.0556146
0.0473367
0.0396911
0.0327755
0.026567
0.0208936
0.0151922
0.00684231
0.0458949
0.0394477
0.0334301
0.0279206
0.0228944
0.0181943
0.0133166
0.00601453
0.0610132
0.0540666
0.0460673
0.0384771
0.0315018
0.0250302
0.0184219
0.00870853
0.0651123
0.0599675
0.0508627
0.0420616
0.0340687
0.0268025
0.0195891
0.00916236
0.0662765
0.0628079
0.0532379
0.043709
0.0351311
0.0274356
0.0199265
0.00921854
0.067621
0.061807
0.0519623
0.0425762
0.0341782
0.026651
0.0193081
0.00884985
0.0653324
0.056641
0.0474283
0.0389825
0.0314388
0.0246164
0.0178636
0.00812041
0.0573917
0.0489584
0.0411252
0.0340756
0.0277374
0.0219044
0.0159774
0.00723502
0.0474666
0.0408606
0.0347344
0.0291302
0.0239905
0.0191382
0.0140445
0.00636892
0.0623945
0.0552201
0.0471512
0.039508
0.0324628
0.0258787
0.0190912
0.00907121
0.0672664
0.0614985
0.0521482
0.0432249
0.03512
0.027707
0.0202852
0.00953196
0.0686673
0.0645931
0.054719
0.0450128
0.0362817
0.0284026
0.0206541
0.00959434
0.0698983
0.0635022
0.0534606
0.0439199
0.0353582
0.0276338
0.0200412
0.00922248
0.0671385
0.0582184
0.0488552
0.0402738
0.0325771
0.0255679
0.0185764
0.00847895
0.0590331
0.0504372
0.0424831
0.0353096
0.0288259
0.0228148
0.0166621
0.00757292
0.0489797
0.0422525
0.0360221
0.0302991
0.0250163
0.0199932
0.0146862
0.00667905
0.0635126
0.0558203
0.0478376
0.0402511
0.033199
0.0265432
0.0196176
0.00936148
0.0701721
0.0623332
0.0528495
0.043967
0.0358503
0.0283606
0.0207965
0.0098102
0.0717497
0.0656608
0.0554775
0.0458054
0.0370435
0.0290686
0.0211643
0.00986443
0.0727255
0.064614
0.0543728
0.0448066
0.0361737
0.0283303
0.0205684
0.00949495
0.068695
0.0592593
0.049854
0.041225
0.0334339
0.0262925
0.0191235
0.008757
0.0602002
0.0515443
0.0435593
0.0363053
0.0297055
0.0235517
0.0172169
0.00784863
0.050194
0.0434153
0.0371062
0.0312763
0.025869
0.0207046
0.0152215
0.00693911
0.0644501
0.0562749
0.0483336
0.0407991
0.033753
0.027055
0.0200334
0.00959798
0.0729484
0.0628202
0.053241
0.0444199
0.0363353
0.0288291
0.0211901
0.0100401
0.0771171
0.0665067
0.0558883
0.0462323
0.0374989
0.0295152
0.0215444
0.0100871
0.0764267
0.0654627
0.0548787
0.0453037
0.0366771
0.0288101
0.0209706
0.00972177
0.0702998
0.0599896
0.0504978
0.0418542
0.0340337
0.0268369
0.019563
0.00899346
0.0610858
0.0523488
0.0443421
0.0370437
0.0303794
0.0241407
0.0176792
0.00808676
0.0510908
0.0442907
0.0379322
0.0320351
0.0265512
0.0212938
0.0156793
0.00716693
0.0648439
0.0566876
0.0487822
0.0412496
0.0341944
0.0274698
0.0203831
0.00980496
0.0735672
0.0630699
0.0535521
0.0447821
0.0367259
0.0292276
0.0215477
0.0102622
0.077604
0.0667273
0.0561387
0.0465482
0.037862
0.0299074
0.0219091
0.0103163
0.0769152
0.0657518
0.0551919
0.0456617
0.0370777
0.0292334
0.0213566
0.00995459
0.0708271
0.0604552
0.0509742
0.0423365
0.0345245
0.0273149
0.0199729
0.00922503
0.0617141
0.0529777
0.0449523
0.0376333
0.0309415
0.0246562
0.0181006
0.00831203
0.0517822
0.0449679
0.0385836
0.0326552
0.0271326
0.021815
0.0160966
0.00738016
0.0647633
0.0570921
0.0491533
0.0416088
0.0345567
0.0278254
0.0206936
0.00999756
0.0715461
0.0631739
0.0538479
0.045118
0.0370972
0.0296142
0.0218974
0.0104842
0.0759205
0.0667428
0.0564435
0.0468957
0.0382586
0.0303292
0.0222934
0.0105576
0.0765894
0.066021
0.0555304
0.0460499
0.0375139
0.0296856
0.0217585
0.0101971
0.0712186
0.0609153
0.0514355
0.0428138
0.0350157
0.0277909
0.0203764
0.00945412
0.0623396
0.0535574
0.0455043
0.0381734
0.0314671
0.0251408
0.0184961
0.00852699
0.0523865
0.0455541
0.0391564
0.0332151
0.027665
0.0222944
0.0164811
0.00758021
0.0644011
0.057189
0.049377
0.0418849
0.0348609
0.0281329
0.0209643
0.0101737
0.0696476
0.0630752
0.0540593
0.0454291
0.0374505
0.0299707
0.0222076
0.010683
0.0717188
0.0664777
0.0566736
0.0472639
0.0386743
0.0307405
0.0226428
0.0107731
0.0740941
0.0658399
0.0558394
0.0464857
0.0379789
0.0301277
0.0221233
0.0104127
0.0707629
0.0612247
0.0519041
0.0433146
0.0355058
0.0282364
0.0207342
0.00965631
0.0627667
0.054079
0.0460375
0.038693
0.0319563
0.0255753
0.01884
0.00871561
0.052932
0.0460993
0.0396901
0.0337278
0.0281406
0.0227135
0.0168118
0.00775547
0.0646869
0.0573007
0.0495373
0.0420921
0.0350977
0.0283737
0.0211749
0.0103213
0.0704671
0.0632805
0.054252
0.045677
0.0377262
0.0302411
0.0224356
0.0108385
0.0731646
0.0667792
0.0569174
0.0475706
0.0390045
0.0310497
0.0228923
0.010933
0.0752612
0.0662463
0.056217
0.0468838
0.0383621
0.030466
0.0223872
0.0105734
0.0714461
0.0617161
0.0523704
0.0437542
0.0359038
0.0285789
0.0209995
0.00981068
0.0633227
0.0545818
0.0465067
0.0391252
0.0323461
0.0259125
0.0191022
0.00886487
0.0534365
0.0465682
0.0401304
0.034137
0.028514
0.0230397
0.017068
0.00789646
0.0649693
0.0573336
0.0496118
0.0422069
0.0352369
0.028519
0.0213047
0.0104299
0.0720944
0.0635222
0.0543731
0.0458102
0.0378721
0.0303875
0.0225641
0.0109483
0.075692
0.0669892
0.0570698
0.0477408
0.0391741
0.0312085
0.0230257
0.0110406
0.0759189
0.066567
0.0564686
0.0471124
0.0385674
0.0306486
0.0225357
0.0106823
0.0719901
0.06206
0.052658
0.0440074
0.0361312
0.0287814
0.0211625
0.00992095
0.0636854
0.0548852
0.0467823
0.0393825
0.0325879
0.026132
0.0192797
0.00897707
0.0537172
0.0468345
0.0403914
0.0343936
0.0287611
0.0232653
0.0172503
0.00800477
0.0647838
0.0571931
0.04955
0.042184
0.0352449
0.0285501
0.0213464
0.0104968
0.0723768
0.0633236
0.0542791
0.0457598
0.0378574
0.0304059
0.0226029
0.0110203
0.0763762
0.0671281
0.0570562
0.0477122
0.0391653
0.0312336
0.0230744
0.0111168
0.0764661
0.0667272
0.0564809
0.0471074
0.0385855
0.0306994
0.022603
0.0107601
0.0721995
0.062101
0.0526712
0.0440384
0.0361954
0.0288719
0.0212557
0.0100033
0.0636639
0.0548876
0.046823
0.0394642
0.0327021
0.0262607
0.0193962
0.00906411
0.0537006
0.046874
0.0404796
0.0345186
0.0289075
0.0234142
0.0173777
0.00808801
0.0642026
0.0568877
0.0492913
0.0419924
0.0351204
0.0284814
0.0213181
0.0105303
0.0711126
0.0628027
0.0539236
0.0455072
0.0377001
0.0303262
0.0225766
0.0110616
0.0743373
0.0664017
0.0566807
0.0474585
0.0390213
0.031177
0.0230714
0.0111687
0.075529
0.0661088
0.0561054
0.0468868
0.0384822
0.0306776
0.022625
0.0108165
0.0715156
0.0616824
0.0524236
0.0439207
0.0361711
0.0289043
0.021308
0.0100647
0.0632448
0.0546507
0.0467177
0.0394522
0.0327507
0.0263391
0.0194742
0.00913081
0.0535
0.0467915
0.0404802
0.0345752
0.0289969
0.0235148
0.0174673
0.00815081
0.0633431
0.056287
0.0488478
0.0416822
0.0349172
0.0283583
0.021252
0.0105418
0.0688315
0.0619211
0.0533435
0.0451237
0.0374615
0.0301883
0.0225047
0.0110727
0.0716888
0.0654643
0.0560896
0.0470848
0.0388063
0.0310658
0.0230181
0.0111843
0.0746418
0.0654038
0.0556225
0.0466002
0.0383348
0.0306142
0.022604
0.0108404
0.0707651
0.0611911
0.0521307
0.043774
0.0361181
0.0289015
0.021323
0.0100995
0.0628065
0.0543972
0.0465964
0.0394188
0.0327695
0.026382
0.0195176
0.00917334
0.0533017
0.0466956
0.0404556
0.0345974
0.0290467
0.0235756
0.0175231
0.0081934
0.0626378
0.0556364
0.0483737
0.0413569
0.0347033
0.0282239
0.0211743
0.0105402
0.0680885
0.0611892
0.0527452
0.0447231
0.0372006
0.0300211
0.0224016
0.0110572
0.0711155
0.0645872
0.0554152
0.0466707
0.0385493
0.0308999
0.0229123
0.0111605
0.0736398
0.0646488
0.0551484
0.0463165
0.0381615
0.030505
0.0225338
0.0108296
0.0702493
0.0607975
0.0518878
0.0436304
0.0360345
0.0288536
0.0212942
0.0101066
0.0625015
0.0542066
0.0464881
0.039363
0.0327477
0.0263809
0.0195242
0.00919325
0.0531393
0.0465932
0.0403985
0.0345742
0.029049
0.0235947
0.0175477
0.00821794
0.0418049
0.0355525
0.0297475
0.024466
0.0197278
0.0154202
0.0111124
0.00487964
0.0440515
0.0365912
0.0301036
0.0244377
0.0194928
0.0150923
0.0107796
0.00456212
0.0443137
0.0364425
0.0297154
0.0239525
0.0189987
0.0146349
0.0103901
0.00426046
0.0422924
0.0348042
0.0283914
0.0229112
0.018202
0.0140372
0.00995626
0.00399166
0.0386533
0.0320183
0.0263092
0.0214006
0.0171365
0.0133062
0.00947601
0.00375524
0.0342219
0.0286539
0.0238401
0.0196388
0.0159141
0.0124843
0.00895205
0.00354665
0.0295204
0.0252491
0.0213799
0.0178828
0.0146871
0.0116522
0.00841978
0.00342015
0.0431456
0.0368863
0.0310056
0.0256348
0.0207986
0.0163624
0.0118569
0.00522962
0.0453572
0.0379845
0.0314672
0.0257251
0.0206735
0.0161208
0.0115787
0.00492318
0.0456868
0.0379332
0.0311945
0.0253574
0.0202793
0.0157374
0.0112359
0.0046317
0.0438513
0.0364306
0.029984
0.0244087
0.0195512
0.0151849
0.0108285
0.00436861
0.0403888
0.0337509
0.0279693
0.0229348
0.0184969
0.0144485
0.010335
0.00412505
0.0360308
0.0304086
0.0254896
0.0211402
0.0172307
0.0135813
0.00977232
0.00389954
0.031302
0.026944
0.0229503
0.0192997
0.0159254
0.0126858
0.00919937
0.00375695
0.0446331
0.0382359
0.0322668
0.0268228
0.0218989
0.0173323
0.01262
0.00559417
0.0469109
0.0394412
0.0328479
0.0270298
0.0218667
0.0171541
0.0123772
0.0052917
0.0472858
0.0394763
0.0326756
0.026752
0.0215427
0.0168164
0.0120591
0.00499948
0.045514
0.0380472
0.0315352
0.0258547
0.0208426
0.0162758
0.011655
0.00472651
0.0420913
0.0354012
0.0295361
0.0243729
0.0197632
0.0155048
0.0111251
0.00446618
0.0377254
0.0320363
0.027012
0.0225181
0.0184336
0.01458
0.0105181
0.00421724
0.0329369
0.028493
0.0243827
0.0205887
0.0170485
0.0136214
0.00990533
0.0040568
0.0461576
0.0396401
0.0335919
0.0280664
0.0230241
0.0182924
0.0133538
0.00594457
0.0485771
0.0409797
0.0342916
0.0283661
0.0230588
0.0181575
0.0131344
0.00564237
0.0490093
0.0410938
0.0341921
0.0281416
0.0227664
0.0178378
0.0128251
0.0053461
0.0472498
0.039693
0.033071
0.0272455
0.0220551
0.0172809
0.0124057
0.00505785
0.0437992
0.0370204
0.0310335
0.0257126
0.0209211
0.0164577
0.0118313
0.00477193
0.0393716
0.0335818
0.0284243
0.0237738
0.0195142
0.0154695
0.0111819
0.00449891
0.0344832
0.0299301
0.0256885
0.0217447
0.0180435
0.0144444
0.0105252
0.00431455
0.047694
0.0410737
0.0349146
0.0292599
0.0240646
0.0191556
0.0139998
0.00625073
0.0502657
0.0425427
0.0357166
0.0296316
0.024148
0.0190542
0.0138019
0.00595029
0.0507422
0.0427005
0.0356502
0.0294265
0.0238659
0.01874
0.0134951
0.00564893
0.0489526
0.0412723
0.034497
0.0284966
0.0231227
0.0181552
0.0130533
0.00534876
0.0454237
0.0385194
0.0323787
0.0268906
0.0219255
0.0172809
0.0124432
0.00503971
0.0408909
0.0349704
0.0296649
0.0248576
0.020439
0.0162309
0.0117535
0.0047447
0.0358757
0.0311929
0.0268119
0.0227262
0.0188838
0.0151391
0.0110481
0.00453216
0.0489389
0.0422671
0.0360175
0.0302491
0.0249265
0.0198757
0.0145432
0.00650986
0.0516257
0.0438199
0.0368824
0.0306683
0.0250478
0.0198055
0.014369
0.00621383
0.0521337
0.0439973
0.0368253
0.0304669