/*--------------------------------*- C++ -*----------------------------------*\
| =========                 |                                                 |
| \\      /  F ield         | OpenFOAM: The Open Source CFD Toolbox           |
|  \\    /   O peration     | Version:  plus.master.MPPICInterFoam            |
|   \\  /    A nd           | Web:      www.OpenFOAM.com                      |
|    \\/     M anipulation  |                                                 |
\*---------------------------------------------------------------------------*/
FoamFile
{
    version     2.0;
    format      ascii;
    class       volScalarField;
    location    "3.4";
    object      epsilon;
}
// * * * * * * * * * * * * * * * * * * * * * * * * * * * * * * * * * * * * * //

dimensions      [0 2 -3 0 0 0 0];

internalField   nonuniform List<scalar> 
11821
(
0.000127226
7.00517e-05
6.80705e-05
7.1053e-05
7.39595e-05
7.56677e-05
7.58396e-05
7.43526e-05
0.000127244
7.00805e-05
6.80558e-05
7.10288e-05
7.39396e-05
7.56576e-05
7.58405e-05
7.43633e-05
0.000127289
7.00934e-05
6.8048e-05
7.10167e-05
7.39292e-05
7.56512e-05
7.58385e-05
7.4365e-05
0.000127323
7.01014e-05
6.80446e-05
7.10106e-05
7.39237e-05
7.56476e-05
7.5837e-05
7.43657e-05
0.00012735
7.00984e-05
6.8045e-05
7.10121e-05
7.39251e-05
7.56482e-05
7.58366e-05
7.43641e-05
0.000127364
7.00931e-05
6.80497e-05
7.10192e-05
7.3931e-05
7.56514e-05
7.58368e-05
7.43617e-05
0.000127379
7.00726e-05
6.80578e-05
7.10344e-05
7.39442e-05
7.56585e-05
7.58365e-05
7.43539e-05
0.000127081
7.00263e-05
6.80561e-05
7.10414e-05
7.3951e-05
7.56631e-05
7.58388e-05
7.43549e-05
0.000127109
7.00534e-05
6.80461e-05
7.10226e-05
7.39345e-05
7.56537e-05
7.58383e-05
7.43628e-05
0.000127149
7.00667e-05
6.80402e-05
7.10122e-05
7.39254e-05
7.56481e-05
7.58366e-05
7.43647e-05
0.00012718
7.00745e-05
6.80373e-05
7.10068e-05
7.39205e-05
7.56449e-05
7.58354e-05
7.43655e-05
0.000127204
7.00729e-05
6.80376e-05
7.10078e-05
7.39214e-05
7.56453e-05
7.58351e-05
7.43644e-05
0.000127216
7.00682e-05
6.80412e-05
7.10134e-05
7.39261e-05
7.5648e-05
7.58354e-05
7.43625e-05
0.000127225
7.00513e-05
6.80472e-05
7.10253e-05
7.39367e-05
7.56541e-05
7.58358e-05
7.4357e-05
0.00012699
7.00099e-05
6.8048e-05
7.1035e-05
7.3946e-05
7.56599e-05
7.58379e-05
7.43557e-05
0.00012702
7.00333e-05
6.80405e-05
7.102e-05
7.39325e-05
7.5652e-05
7.58369e-05
7.43618e-05
0.000127056
7.00458e-05
6.80358e-05
7.10112e-05
7.39246e-05
7.5647e-05
7.58354e-05
7.43636e-05
0.000127084
7.0053e-05
6.80335e-05
7.10065e-05
7.39203e-05
7.56442e-05
7.58345e-05
7.43645e-05
0.000127104
7.00524e-05
6.80336e-05
7.1007e-05
7.39208e-05
7.56444e-05
7.58342e-05
7.43638e-05
0.000127115
7.00485e-05
6.80364e-05
7.10114e-05
7.39246e-05
7.56466e-05
7.58345e-05
7.43623e-05
0.000127121
7.00351e-05
6.80409e-05
7.10207e-05
7.39329e-05
7.56515e-05
7.5835e-05
7.43581e-05
0.000126933
6.99989e-05
6.80434e-05
7.10318e-05
7.39434e-05
7.56582e-05
7.58371e-05
7.4356e-05
0.000126962
7.00183e-05
6.80376e-05
7.10197e-05
7.39325e-05
7.56516e-05
7.58361e-05
7.43607e-05
0.000126994
7.00295e-05
6.80338e-05
7.10123e-05
7.39257e-05
7.56474e-05
7.58349e-05
7.43624e-05
0.000127019
7.0036e-05
6.80319e-05
7.10083e-05
7.3922e-05
7.5645e-05
7.58342e-05
7.43634e-05
0.000127037
7.0036e-05
6.80319e-05
7.10083e-05
7.39221e-05
7.5645e-05
7.5834e-05
7.43629e-05
0.000127045
7.00328e-05
6.8034e-05
7.10117e-05
7.39251e-05
7.56467e-05
7.58342e-05
7.43617e-05
0.000127049
7.00224e-05
6.80375e-05
7.10189e-05
7.39316e-05
7.56506e-05
7.58347e-05
7.43585e-05
0.000126898
6.99916e-05
6.80411e-05
7.10306e-05
7.39425e-05
7.56575e-05
7.58368e-05
7.43559e-05
0.000126925
7.00072e-05
6.80365e-05
7.10209e-05
7.39336e-05
7.56521e-05
7.58359e-05
7.43597e-05
0.000126954
7.00169e-05
6.80334e-05
7.10146e-05
7.39279e-05
7.56486e-05
7.58349e-05
7.43613e-05
0.000126976
7.00226e-05
6.80318e-05
7.10111e-05
7.39247e-05
7.56465e-05
7.58343e-05
7.43622e-05
0.000126991
7.0023e-05
6.80317e-05
7.1011e-05
7.39246e-05
7.56464e-05
7.58341e-05
7.43619e-05
0.000126998
7.00204e-05
6.80332e-05
7.10135e-05
7.39268e-05
7.56477e-05
7.58343e-05
7.4361e-05
0.000127
7.00123e-05
6.80359e-05
7.1019e-05
7.39318e-05
7.56506e-05
7.58347e-05
7.43586e-05
0.000126876
6.99867e-05
6.80403e-05
7.10307e-05
7.39426e-05
7.56575e-05
7.58366e-05
7.43557e-05
0.000126902
6.99992e-05
6.80365e-05
7.10227e-05
7.39354e-05
7.56531e-05
7.58358e-05
7.43587e-05
0.000126927
7.00073e-05
6.8034e-05
7.10175e-05
7.39306e-05
7.56501e-05
7.5835e-05
7.43601e-05
0.000126947
7.00121e-05
6.80326e-05
7.10145e-05
7.39278e-05
7.56483e-05
7.58345e-05
7.43608e-05
0.00012696
7.00125e-05
6.80324e-05
7.10141e-05
7.39275e-05
7.5648e-05
7.58344e-05
7.43608e-05
0.000126965
7.00103e-05
6.80334e-05
7.10159e-05
7.3929e-05
7.5649e-05
7.58345e-05
7.43601e-05
0.000126965
7.0004e-05
6.80354e-05
7.10201e-05
7.39328e-05
7.56512e-05
7.58348e-05
7.43583e-05
0.000126864
6.99834e-05
6.80403e-05
7.10313e-05
7.39431e-05
7.56577e-05
7.58365e-05
7.43553e-05
0.000126888
6.99929e-05
6.80371e-05
7.10248e-05
7.39372e-05
7.56541e-05
7.58358e-05
7.43576e-05
0.000126911
6.99995e-05
6.8035e-05
7.10204e-05
7.39332e-05
7.56515e-05
7.58351e-05
7.43588e-05
0.000126928
7.00033e-05
6.80337e-05
7.10178e-05
7.39308e-05
7.565e-05
7.58347e-05
7.43594e-05
0.000126939
7.00036e-05
6.80333e-05
7.10172e-05
7.39303e-05
7.56496e-05
7.58345e-05
7.43595e-05
0.000126942
7.00017e-05
6.80339e-05
7.10184e-05
7.39313e-05
7.56503e-05
7.58346e-05
7.43591e-05
0.000126941
6.99968e-05
6.80353e-05
7.10215e-05
7.39342e-05
7.5652e-05
7.58349e-05
7.43578e-05
0.000126857
6.99808e-05
6.80405e-05
7.1032e-05
7.39438e-05
7.56581e-05
7.58365e-05
7.4355e-05
0.000126879
6.99877e-05
6.80377e-05
7.10268e-05
7.3939e-05
7.56551e-05
7.58359e-05
7.43568e-05
0.000126899
6.99928e-05
6.80359e-05
7.10231e-05
7.39356e-05
7.5653e-05
7.58353e-05
7.43577e-05
0.000126915
6.99957e-05
6.80348e-05
7.10209e-05
7.39336e-05
7.56516e-05
7.58349e-05
7.43583e-05
0.000126924
6.99958e-05
6.80342e-05
7.10202e-05
7.39329e-05
7.56512e-05
7.58348e-05
7.43584e-05
0.000126926
6.9994e-05
6.80344e-05
7.10209e-05
7.39336e-05
7.56517e-05
7.58349e-05
7.43582e-05
0.000126923
6.99903e-05
6.80355e-05
7.10232e-05
7.39357e-05
7.5653e-05
7.58352e-05
7.43574e-05
0.000126854
6.99787e-05
6.80408e-05
7.10329e-05
7.39446e-05
7.56586e-05
7.58367e-05
7.43549e-05
0.000126873
6.99833e-05
6.80384e-05
7.10287e-05
7.39408e-05
7.56563e-05
7.58363e-05
7.43563e-05
0.000126892
6.9987e-05
6.80369e-05
7.10257e-05
7.3938e-05
7.56545e-05
7.58357e-05
7.43571e-05
0.000126906
6.9989e-05
6.80358e-05
7.10238e-05
7.39363e-05
7.56533e-05
7.58354e-05
7.43575e-05
0.000126913
6.99889e-05
6.80352e-05
7.1023e-05
7.39356e-05
7.56529e-05
7.58353e-05
7.43577e-05
0.000126914
6.99873e-05
6.80352e-05
7.10234e-05
7.3936e-05
7.56532e-05
7.58354e-05
7.43577e-05
0.00012691
6.99845e-05
6.8036e-05
7.10251e-05
7.39375e-05
7.56542e-05
7.58356e-05
7.43571e-05
0.000126856
6.99781e-05
6.80417e-05
7.1034e-05
7.39456e-05
7.56593e-05
7.58371e-05
7.4355e-05
0.00012687
6.99799e-05
6.80393e-05
7.10306e-05
7.39426e-05
7.56575e-05
7.58368e-05
7.43562e-05
0.000126888
6.99823e-05
6.8038e-05
7.10282e-05
7.39404e-05
7.56561e-05
7.58364e-05
7.43568e-05
0.000126901
6.99835e-05
6.80371e-05
7.10266e-05
7.39389e-05
7.56551e-05
7.58361e-05
7.43572e-05
0.000126907
6.99832e-05
6.80365e-05
7.10258e-05
7.39382e-05
7.56547e-05
7.5836e-05
7.43574e-05
0.000126907
6.99819e-05
6.80363e-05
7.10259e-05
7.39383e-05
7.56548e-05
7.58361e-05
7.43574e-05
0.000126903
6.99802e-05
6.80369e-05
7.10271e-05
7.39394e-05
7.56554e-05
7.58362e-05
7.4357e-05
0.000126863
6.9979e-05
6.80429e-05
7.10353e-05
7.39467e-05
7.56601e-05
7.58376e-05
7.43554e-05
0.000126874
6.99783e-05
6.80406e-05
7.10325e-05
7.39443e-05
7.56587e-05
7.58374e-05
7.43562e-05
0.00012689
6.99792e-05
6.80393e-05
7.10305e-05
7.39424e-05
7.56574e-05
7.5837e-05
7.43565e-05
0.000126902
6.99797e-05
6.80384e-05
7.10291e-05
7.39411e-05
7.56566e-05
7.58367e-05
7.43568e-05
0.000126908
6.99794e-05
6.80378e-05
7.10283e-05
7.39404e-05
7.56561e-05
7.58365e-05
7.4357e-05
0.000126908
6.99786e-05
6.80376e-05
7.10282e-05
7.39403e-05
7.5656e-05
7.58365e-05
7.43572e-05
0.000126907
6.99783e-05
6.80382e-05
7.10289e-05
7.39409e-05
7.56563e-05
7.58365e-05
7.43568e-05
0.000126872
6.99801e-05
6.8044e-05
7.10364e-05
7.39475e-05
7.56608e-05
7.58381e-05
7.43557e-05
0.000126888
6.99792e-05
6.8042e-05
7.1034e-05
7.39455e-05
7.56594e-05
7.58377e-05
7.43561e-05
0.000126904
6.99794e-05
6.80409e-05
7.10323e-05
7.39439e-05
7.56583e-05
7.58371e-05
7.43562e-05
0.000126916
6.99794e-05
6.804e-05
7.10311e-05
7.39427e-05
7.56574e-05
7.58368e-05
7.43563e-05
0.000126922
6.99789e-05
6.80393e-05
7.10302e-05
7.39419e-05
7.56569e-05
7.58366e-05
7.43566e-05
0.000126921
6.99782e-05
6.80389e-05
7.10298e-05
7.39415e-05
7.56567e-05
7.58366e-05
7.43568e-05
0.000126918
6.99779e-05
6.80393e-05
7.10302e-05
7.39418e-05
7.56568e-05
7.58366e-05
7.43567e-05
0.000126883
6.99809e-05
6.80447e-05
7.10372e-05
7.39483e-05
7.56613e-05
7.58385e-05
7.43561e-05
0.000126903
6.998e-05
6.80431e-05
7.10352e-05
7.39464e-05
7.566e-05
7.58379e-05
7.43561e-05
0.000126921
6.998e-05
6.80422e-05
7.10337e-05
7.39449e-05
7.56588e-05
7.58372e-05
7.43559e-05
0.000126934
6.99797e-05
6.80413e-05
7.10325e-05
7.39438e-05
7.5658e-05
7.58368e-05
7.4356e-05
0.000126939
6.99788e-05
6.80405e-05
7.10316e-05
7.39429e-05
7.56574e-05
7.58366e-05
7.43563e-05
0.000126937
6.99777e-05
6.80398e-05
7.1031e-05
7.39424e-05
7.56571e-05
7.58367e-05
7.43567e-05
0.000126931
6.9977e-05
6.80399e-05
7.10311e-05
7.39425e-05
7.56572e-05
7.58367e-05
7.43568e-05
0.000126896
6.99816e-05
6.80454e-05
7.1038e-05
7.3949e-05
7.56619e-05
7.5839e-05
7.43563e-05
0.000126919
6.99807e-05
6.80442e-05
7.10364e-05
7.39474e-05
7.56606e-05
7.58381e-05
7.43561e-05
0.00012694
6.99806e-05
6.80434e-05
7.10351e-05
7.3946e-05
7.56595e-05
7.58374e-05
7.43558e-05
0.000126955
6.99801e-05
6.80426e-05
7.1034e-05
7.39449e-05
7.56586e-05
7.5837e-05
7.43559e-05
0.000126959
6.99789e-05
6.80416e-05
7.1033e-05
7.3944e-05
7.56581e-05
7.58369e-05
7.43563e-05
0.000126956
6.99774e-05
6.80408e-05
7.10322e-05
7.39434e-05
7.56578e-05
7.58369e-05
7.43567e-05
0.000126946
6.99764e-05
6.80406e-05
7.10321e-05
7.39434e-05
7.56578e-05
7.5837e-05
7.43569e-05
0.000127294
7.00829e-05
6.81028e-05
7.10762e-05
7.39703e-05
7.5666e-05
7.58272e-05
7.43327e-05
0.000127406
7.00992e-05
6.81151e-05
7.10866e-05
7.39772e-05
7.56679e-05
7.58229e-05
7.43223e-05
0.000127303
7.0091e-05
6.81134e-05
7.10897e-05
7.39927e-05
0.000127701
7.01499e-05
0.000127197
0.000127104
7.0047e-05
6.80834e-05
7.10628e-05
7.39622e-05
7.56636e-05
7.58301e-05
7.43395e-05
0.000127167
7.0057e-05
6.80912e-05
7.10692e-05
7.39658e-05
7.56632e-05
7.5825e-05
7.43306e-05
0.000127088
7.00501e-05
6.80877e-05
7.10655e-05
7.39668e-05
7.5669e-05
7.58326e-05
7.43393e-05
0.00012734
7.00868e-05
6.81163e-05
7.10912e-05
7.39809e-05
7.5668e-05
7.58184e-05
7.43145e-05
0.000127041
7.0051e-05
6.80918e-05
7.10699e-05
7.39667e-05
7.5665e-05
7.58289e-05
7.43367e-05
0.000127131
7.00662e-05
6.81018e-05
7.10775e-05
7.39708e-05
7.56646e-05
7.58235e-05
7.4327e-05
0.000127094
7.00702e-05
6.81041e-05
7.1078e-05
7.39708e-05
7.56656e-05
7.58265e-05
7.43321e-05
0.000126984
7.00238e-05
6.80708e-05
7.10541e-05
7.3957e-05
7.56619e-05
7.58316e-05
7.43433e-05
0.000127017
7.00305e-05
6.80765e-05
7.1059e-05
7.396e-05
7.56621e-05
7.58287e-05
7.43379e-05
0.00012696
7.0027e-05
6.80754e-05
7.10572e-05
7.39582e-05
7.56616e-05
7.583e-05
7.43407e-05
0.00012712
7.00498e-05
6.80921e-05
7.10721e-05
7.39683e-05
7.56637e-05
7.5823e-05
7.43262e-05
0.000126935
7.00317e-05
6.80803e-05
7.10614e-05
7.39612e-05
7.56629e-05
7.58301e-05
7.43401e-05
0.000126999
7.00426e-05
6.80879e-05
7.10674e-05
7.39649e-05
7.56635e-05
7.58271e-05
7.43342e-05
0.000126991
7.00482e-05
6.80912e-05
7.1069e-05
7.39654e-05
7.56637e-05
7.58279e-05
7.43357e-05
0.000126908
7.00091e-05
6.80628e-05
7.10487e-05
7.39538e-05
7.5661e-05
7.58328e-05
7.43461e-05
0.000126921
7.00134e-05
6.80667e-05
7.10521e-05
7.39559e-05
7.56612e-05
7.58309e-05
7.43423e-05
0.000126881
7.00121e-05
6.80671e-05
7.10521e-05
7.39558e-05
7.56615e-05
7.58322e-05
7.43448e-05
0.000126982
7.00277e-05
6.80783e-05
7.10615e-05
7.39618e-05
7.56622e-05
7.58267e-05
7.43339e-05
0.000126867
7.0018e-05
6.80722e-05
7.10557e-05
7.39579e-05
7.56621e-05
7.58315e-05
7.43431e-05
0.000126914
7.00269e-05
6.80783e-05
7.10605e-05
7.39607e-05
7.56624e-05
7.5829e-05
7.43383e-05
0.000126924
7.00334e-05
6.80824e-05
7.10629e-05
7.39619e-05
7.56629e-05
7.58294e-05
7.43388e-05
0.00012686
6.99999e-05
6.80578e-05
7.10454e-05
7.3952e-05
7.56606e-05
7.58337e-05
7.43479e-05
0.000126862
7.0003e-05
6.80607e-05
7.10477e-05
7.39534e-05
7.56607e-05
7.58324e-05
7.43453e-05
0.000126832
7.00029e-05
6.80616e-05
7.10482e-05
7.39536e-05
7.5661e-05
7.58331e-05
7.43466e-05
0.000126895
7.00141e-05
6.80696e-05
7.10548e-05
7.39577e-05
7.56615e-05
7.58294e-05
7.43394e-05
0.000126827
7.00097e-05
6.8067e-05
7.10521e-05
7.39558e-05
7.56616e-05
7.58323e-05
7.43448e-05
0.000126861
7.0017e-05
6.80721e-05
7.1056e-05
7.39582e-05
7.5662e-05
7.58307e-05
7.43415e-05
0.00012688
7.00233e-05
6.80761e-05
7.10585e-05
7.39595e-05
7.56624e-05
7.58305e-05
7.43412e-05
0.000126829
6.99943e-05
6.80548e-05
7.10434e-05
7.39509e-05
7.56605e-05
7.58344e-05
7.43492e-05
0.000126824
6.99968e-05
6.80571e-05
7.10451e-05
7.39519e-05
7.56605e-05
7.58335e-05
7.43473e-05
0.000126803
6.99977e-05
6.80583e-05
7.10459e-05
7.39523e-05
7.56608e-05
7.58339e-05
7.4348e-05
0.000126841
7.00058e-05
6.80642e-05
7.10506e-05
7.39552e-05
7.56611e-05
7.58313e-05
7.4343e-05
0.000126802
7.00047e-05
6.80637e-05
7.10497e-05
7.39545e-05
7.56614e-05
7.58331e-05
7.43463e-05
0.000126827
7.00106e-05
6.80678e-05
7.10528e-05
7.39564e-05
7.56618e-05
7.58319e-05
7.43438e-05
0.000126848
7.00163e-05
6.80714e-05
7.10552e-05
7.39577e-05
7.56621e-05
7.58316e-05
7.43431e-05
0.00012681
6.99912e-05
6.80529e-05
7.10421e-05
7.39503e-05
7.56605e-05
7.5835e-05
7.43501e-05
0.000126801
6.99932e-05
6.80548e-05
7.10435e-05
7.39511e-05
7.56605e-05
7.58343e-05
7.43487e-05
0.000126785
6.9995e-05
6.80564e-05
7.10444e-05
7.39515e-05
7.56607e-05
7.58344e-05
7.4349e-05
0.000126806
7.00009e-05
6.80607e-05
7.10479e-05
7.39536e-05
7.5661e-05
7.58327e-05
7.43455e-05
0.000126784
7.00016e-05
6.80613e-05
7.1048e-05
7.39535e-05
7.56613e-05
7.58337e-05
7.43472e-05
0.000126803
7.00064e-05
6.80647e-05
7.10505e-05
7.39551e-05
7.56616e-05
7.58328e-05
7.43455e-05
0.000126824
7.00113e-05
6.80677e-05
7.10526e-05
7.39562e-05
7.56619e-05
7.58324e-05
7.43446e-05
0.000126798
6.99896e-05
6.80517e-05
7.10412e-05
7.39498e-05
7.56605e-05
7.58354e-05
7.43508e-05
0.000126787
6.99921e-05
6.80535e-05
7.10424e-05
7.39505e-05
7.56606e-05
7.58349e-05
7.43497e-05
0.000126775
6.99949e-05
6.80553e-05
7.10435e-05
7.3951e-05
7.56607e-05
7.58348e-05
7.43496e-05
0.000126784
6.99983e-05
6.80585e-05
7.10461e-05
7.39526e-05
7.5661e-05
7.58337e-05
7.43472e-05
0.000126772
7.00001e-05
6.80597e-05
7.10467e-05
7.39528e-05
7.56612e-05
7.58341e-05
7.4348e-05
0.000126785
7.00037e-05
6.80623e-05
7.10486e-05
7.3954e-05
7.56614e-05
7.58334e-05
7.43467e-05
0.000126805
7.00076e-05
6.80648e-05
7.10504e-05
7.3955e-05
7.56616e-05
7.5833e-05
7.43458e-05
0.000126789
6.99892e-05
6.80511e-05
7.10407e-05
7.39496e-05
7.56606e-05
7.58358e-05
7.43514e-05
0.000126779
6.99927e-05
6.80531e-05
7.10418e-05
7.39501e-05
7.56606e-05
7.58353e-05
7.43505e-05
0.00012677
6.99962e-05
6.8055e-05
7.10429e-05
7.39506e-05
7.56607e-05
7.58351e-05
7.43502e-05
0.000126772
6.99987e-05
6.80575e-05
7.10449e-05
7.39519e-05
7.5661e-05
7.58344e-05
7.43485e-05
0.000126767
7.00013e-05
6.8059e-05
7.10457e-05
7.39522e-05
7.5661e-05
7.58344e-05
7.43486e-05
0.000126773
7.00028e-05
6.80607e-05
7.10472e-05
7.39532e-05
7.56613e-05
7.58339e-05
7.43476e-05
0.000126789
7.00054e-05
6.80626e-05
7.10486e-05
7.3954e-05
7.56614e-05
7.58335e-05
7.43468e-05
0.000126782
6.99895e-05
6.80509e-05
7.10404e-05
7.39495e-05
7.56608e-05
7.58363e-05
7.43521e-05
0.000126773
6.99941e-05
6.80531e-05
7.10415e-05
7.395e-05
7.56607e-05
7.58358e-05
7.43512e-05
0.000126767
6.99984e-05
6.80552e-05
7.10426e-05
7.39504e-05
7.56607e-05
7.58354e-05
7.43507e-05
0.000126768
7.00016e-05
6.80574e-05
7.10442e-05
7.39513e-05
7.56608e-05
7.58348e-05
7.43494e-05
0.000126765
7.00043e-05
6.8059e-05
7.1045e-05
7.39517e-05
7.56608e-05
7.58346e-05
7.43492e-05
0.000126769
7.00051e-05
6.80602e-05
7.10461e-05
7.39524e-05
7.56611e-05
7.58343e-05
7.43485e-05
0.000126777
7.00053e-05
6.80612e-05
7.10472e-05
7.39531e-05
7.56613e-05
7.58341e-05
7.43479e-05
0.000126776
6.99904e-05
6.80508e-05
7.10402e-05
7.39495e-05
7.5661e-05
7.58368e-05
7.43528e-05
0.000126769
6.99961e-05
6.80532e-05
7.10413e-05
7.39498e-05
7.56608e-05
7.58362e-05
7.4352e-05
0.000126765
7.00012e-05
6.80555e-05
7.10423e-05
7.39502e-05
7.56607e-05
7.58358e-05
7.43514e-05
0.000126765
7.00053e-05
6.80577e-05
7.10436e-05
7.39509e-05
7.56608e-05
7.58352e-05
7.43503e-05
0.000126765
7.00083e-05
6.80592e-05
7.10445e-05
7.39512e-05
7.56607e-05
7.58349e-05
7.43499e-05
0.000126768
7.00092e-05
6.80602e-05
7.10453e-05
7.39518e-05
7.56609e-05
7.58347e-05
7.43494e-05
0.000126775
7.00087e-05
6.80609e-05
7.10462e-05
7.39524e-05
7.56612e-05
7.58346e-05
7.4349e-05
0.00012677
6.99912e-05
6.80507e-05
7.10399e-05
7.39493e-05
7.56612e-05
7.58373e-05
7.43537e-05
0.000126765
6.99981e-05
6.80533e-05
7.10409e-05
7.39496e-05
7.5661e-05
7.58367e-05
7.43529e-05
0.000126762
7.00044e-05
6.80558e-05
7.1042e-05
7.395e-05
7.56608e-05
7.58363e-05
7.43522e-05
0.000126763
7.00094e-05
6.80581e-05
7.10432e-05
7.39505e-05
7.56608e-05
7.58357e-05
7.43512e-05
0.000126764
7.00128e-05
6.80597e-05
7.1044e-05
7.39508e-05
7.56607e-05
7.58354e-05
7.43507e-05
0.000126767
7.00139e-05
6.80605e-05
7.10447e-05
7.39513e-05
7.56609e-05
7.58353e-05
7.43505e-05
0.000126774
7.00135e-05
6.8061e-05
7.10453e-05
7.39518e-05
7.56611e-05
7.58352e-05
7.43502e-05
0.000126764
6.9992e-05
6.80504e-05
7.10396e-05
7.39493e-05
7.56615e-05
7.5838e-05
7.43548e-05
0.000126759
7.00003e-05
6.80535e-05
7.10407e-05
7.39496e-05
7.56613e-05
7.58375e-05
7.4354e-05
0.000126758
7.00079e-05
6.80563e-05
7.10418e-05
7.39499e-05
7.56612e-05
7.5837e-05
7.43533e-05
0.000126761
7.00141e-05
6.80588e-05
7.1043e-05
7.39504e-05
7.5661e-05
7.58363e-05
7.43523e-05
0.000126763
7.00181e-05
6.80605e-05
7.10437e-05
7.39506e-05
7.56609e-05
7.5836e-05
7.43517e-05
0.000126767
7.00196e-05
6.80613e-05
7.10443e-05
7.3951e-05
7.56611e-05
7.58359e-05
7.43516e-05
0.000126773
7.00192e-05
6.80615e-05
7.10448e-05
7.39514e-05
7.56612e-05
7.58359e-05
7.43514e-05
0.000126757
6.99933e-05
6.80506e-05
7.10396e-05
7.39495e-05
7.56621e-05
7.58389e-05
7.43559e-05
0.000126754
7.00032e-05
6.8054e-05
7.10408e-05
7.39498e-05
7.56619e-05
7.58383e-05
7.43551e-05
0.000126755
7.00123e-05
6.80572e-05
7.1042e-05
7.39501e-05
7.56616e-05
7.58377e-05
7.43543e-05
0.000126759
7.00197e-05
6.806e-05
7.10431e-05
7.39505e-05
7.56614e-05
7.5837e-05
7.43533e-05
0.000126762
7.00246e-05
6.80618e-05
7.10438e-05
7.39506e-05
7.56612e-05
7.58366e-05
7.43527e-05
0.000126766
7.00265e-05
6.80625e-05
7.10442e-05
7.39509e-05
7.56613e-05
7.58366e-05
7.43527e-05
0.000126774
7.00262e-05
6.80627e-05
7.10445e-05
7.39511e-05
7.56614e-05
7.58365e-05
7.43524e-05
0.000127908
0.000128717
7.03706e-05
0.000127855
7.02133e-05
6.81965e-05
7.11492e-05
7.40211e-05
0.000127886
7.01864e-05
6.81716e-05
7.11304e-05
7.40063e-05
7.56797e-05
7.58184e-05
7.43068e-05
0.000127345
7.00865e-05
6.81041e-05
7.10792e-05
7.39758e-05
7.56745e-05
7.5839e-05
7.43476e-05
0.000127163
7.0085e-05
6.81144e-05
7.10858e-05
7.39758e-05
7.56677e-05
7.58264e-05
7.43307e-05
0.000127556
7.01517e-05
6.8154e-05
7.11146e-05
7.39923e-05
7.56694e-05
7.58131e-05
7.43057e-05
0.000127473
7.01483e-05
6.8155e-05
7.11142e-05
7.39923e-05
7.56724e-05
7.58205e-05
7.43178e-05
0.000128058
7.02272e-05
6.82135e-05
7.11668e-05
7.40302e-05
7.56878e-05
7.58104e-05
7.42865e-05
0.000127531
7.01392e-05
6.81474e-05
7.11111e-05
7.39937e-05
7.56768e-05
7.58265e-05
7.43245e-05
0.000127552
7.01217e-05
6.81321e-05
7.11008e-05
7.39866e-05
7.56715e-05
7.58215e-05
7.43186e-05
0.000127155
7.00467e-05
6.80814e-05
7.10627e-05
7.39644e-05
7.56683e-05
7.58375e-05
7.43494e-05
0.00012704
7.006e-05
6.80996e-05
7.10752e-05
7.39692e-05
7.56653e-05
7.58277e-05
7.43346e-05
0.000127323
7.01054e-05
6.81279e-05
7.10965e-05
7.39816e-05
7.56669e-05
7.58182e-05
7.43164e-05
0.000127257
7.00966e-05
6.81231e-05
7.10925e-05
7.39795e-05
7.56678e-05
7.58231e-05
7.43253e-05
0.00012768
7.0152e-05
6.81598e-05
7.11242e-05
7.40014e-05
7.56749e-05
7.58131e-05
7.43009e-05
0.000127316
7.00944e-05
6.81187e-05
7.10897e-05
7.39788e-05
7.56692e-05
7.58263e-05
7.43298e-05
0.000127322
7.0077e-05
6.81052e-05
7.10812e-05
7.39742e-05
7.56671e-05
7.58248e-05
7.43277e-05
0.000127034
7.0021e-05
6.80669e-05
7.10522e-05
7.39573e-05
7.56645e-05
7.58367e-05
7.43508e-05
0.000126963
7.00423e-05
6.80886e-05
7.10674e-05
7.39646e-05
7.56638e-05
7.58289e-05
7.43377e-05
0.000127175
7.00751e-05
6.8109e-05
7.10829e-05
7.39736e-05
7.56649e-05
7.58219e-05
7.43244e-05
0.000127127
7.00687e-05
6.81048e-05
7.10793e-05
7.39715e-05
7.56653e-05
7.58255e-05
7.4331e-05
0.000127415
7.01036e-05
6.81276e-05
7.10991e-05
7.3985e-05
7.56691e-05
7.58178e-05
7.43136e-05
0.000127166
7.00624e-05
6.80988e-05
7.10755e-05
7.39701e-05
7.5666e-05
7.5828e-05
7.4335e-05
0.000127165
7.00466e-05
6.80867e-05
7.10677e-05
7.39659e-05
7.56644e-05
7.58276e-05
7.43346e-05
0.000126959
7.00048e-05
6.80577e-05
7.10457e-05
7.3953e-05
7.56623e-05
7.58363e-05
7.43516e-05
0.000126911
7.00301e-05
6.80807e-05
7.10619e-05
7.39614e-05
7.5663e-05
7.58301e-05
7.43401e-05
0.000127067
7.00534e-05
6.80952e-05
7.10729e-05
7.39679e-05
7.56638e-05
7.5825e-05
7.43305e-05
0.000127035
7.00487e-05
6.80918e-05
7.107e-05
7.39661e-05
7.56639e-05
7.58276e-05
7.43355e-05
0.000127231
7.00698e-05
6.81054e-05
7.10821e-05
7.39743e-05
7.56658e-05
7.5822e-05
7.43235e-05
0.000127065
7.00407e-05
6.80849e-05
7.10656e-05
7.39642e-05
7.56641e-05
7.58297e-05
7.4339e-05
0.000127059
7.00264e-05
6.80743e-05
7.10586e-05
7.39604e-05
7.56629e-05
7.58298e-05
7.43396e-05
0.000126913
6.99949e-05
6.80523e-05
7.10419e-05
7.39506e-05
7.56612e-05
7.58362e-05
7.43522e-05
0.000126875
7.00217e-05
6.8075e-05
7.10578e-05
7.39591e-05
7.56625e-05
7.58311e-05
7.43422e-05
0.00012699
7.00379e-05
6.80851e-05
7.10656e-05
7.39637e-05
7.5663e-05
7.58274e-05
7.43353e-05
0.000126972
7.00346e-05
6.80825e-05
7.10633e-05
7.39623e-05
7.5663e-05
7.58293e-05
7.4339e-05
0.000127105
7.00468e-05
6.80902e-05
7.10704e-05
7.39672e-05
7.5664e-05
7.58254e-05
7.43309e-05
0.000126997
7.0026e-05
6.80754e-05
7.10588e-05
7.39601e-05
7.5663e-05
7.58311e-05
7.4342e-05
0.000126988
7.00132e-05
6.80662e-05
7.10527e-05
7.39568e-05
7.5662e-05
7.58315e-05
7.43432e-05
0.000126885
6.99892e-05
6.80493e-05
7.10399e-05
7.39493e-05
7.56605e-05
7.58361e-05
7.43525e-05
0.000126848
7.00155e-05
6.80705e-05
7.10546e-05
7.39573e-05
7.56621e-05
7.5832e-05
7.43439e-05
0.000126934
7.00269e-05
6.80775e-05
7.106e-05
7.39606e-05
7.56625e-05
7.58293e-05
7.43389e-05
0.000126927
7.00247e-05
6.80756e-05
7.10584e-05
7.39595e-05
7.56624e-05
7.58306e-05
7.43415e-05
0.000127018
7.00312e-05
6.80796e-05
7.10624e-05
7.39623e-05
7.56629e-05
7.5828e-05
7.43362e-05
0.000126949
7.00159e-05
6.80688e-05
7.1054e-05
7.39573e-05
7.56622e-05
7.58321e-05
7.43442e-05
0.000126941
7.00046e-05
6.80607e-05
7.10486e-05
7.39544e-05
7.56614e-05
7.58327e-05
7.43457e-05
0.00012687
6.99859e-05
6.80475e-05
7.10387e-05
7.39485e-05
7.56602e-05
7.58361e-05
7.43525e-05
0.000126827
7.00111e-05
6.8067e-05
7.1052e-05
7.39559e-05
7.56618e-05
7.58326e-05
7.43452e-05
0.000126891
7.00189e-05
6.80718e-05
7.10558e-05
7.39581e-05
7.56621e-05
7.58307e-05
7.43416e-05
0.000126894
7.00175e-05
6.80705e-05
7.10546e-05
7.39574e-05
7.5662e-05
7.58316e-05
7.43434e-05
0.000126957
7.00204e-05
6.80722e-05
7.10567e-05
7.39589e-05
7.56622e-05
7.58299e-05
7.43401e-05
0.000126915
7.00088e-05
6.8064e-05
7.10505e-05
7.39553e-05
7.56617e-05
7.58329e-05
7.43458e-05
0.000126909
6.99988e-05
6.8057e-05
7.10458e-05
7.39527e-05
7.5661e-05
7.58336e-05
7.43474e-05
0.00012686
6.99839e-05
6.80465e-05
7.10381e-05
7.39481e-05
7.566e-05
7.5836e-05
7.43525e-05
0.000126809
7.0008e-05
6.80643e-05
7.10499e-05
7.39547e-05
7.56616e-05
7.58332e-05
7.43463e-05
0.000126859
7.00133e-05
6.80676e-05
7.10526e-05
7.39563e-05
7.56618e-05
7.58319e-05
7.43438e-05
0.000126868
7.00124e-05
6.80666e-05
7.10518e-05
7.39558e-05
7.56617e-05
7.58325e-05
7.43449e-05
0.000126914
7.0013e-05
6.80669e-05
7.10526e-05
7.39565e-05
7.56617e-05
7.58314e-05
7.4343e-05
0.000126891
7.00039e-05
6.80605e-05
7.1048e-05
7.39539e-05
7.56614e-05
7.58336e-05
7.43471e-05
0.000126887
6.9995e-05
6.80545e-05
7.1044e-05
7.39517e-05
7.56609e-05
7.58343e-05
7.43487e-05
0.000126855
6.99828e-05
6.80461e-05
7.10379e-05
7.39481e-05
7.56601e-05
7.58362e-05
7.43527e-05
0.000126794
7.00065e-05
6.80624e-05
7.10483e-05
7.39538e-05
7.56615e-05
7.58339e-05
7.43474e-05
0.000126833
7.00097e-05
6.80645e-05
7.10502e-05
7.3955e-05
7.56617e-05
7.58329e-05
7.43456e-05
0.000126848
7.0009e-05
6.80638e-05
7.10497e-05
7.39547e-05
7.56617e-05
7.58333e-05
7.43464e-05
0.000126883
7.00082e-05
6.80633e-05
7.10499e-05
7.3955e-05
7.56616e-05
7.58327e-05
7.43453e-05
0.000126873
7.00007e-05
6.80582e-05
7.10463e-05
7.3953e-05
7.56614e-05
7.58343e-05
7.43484e-05
0.000126873
6.99927e-05
6.8053e-05
7.10429e-05
7.39512e-05
7.5661e-05
7.5835e-05
7.43499e-05
0.000126854
6.99826e-05
6.80462e-05
7.10381e-05
7.39484e-05
7.56604e-05
7.58365e-05
7.4353e-05
0.000126786
7.00079e-05
6.80614e-05
7.1047e-05
7.39531e-05
7.56615e-05
7.58346e-05
7.43487e-05
0.000126814
7.00081e-05
6.80625e-05
7.10484e-05
7.3954e-05
7.56618e-05
7.5834e-05
7.43474e-05
0.000126831
7.00071e-05
6.80619e-05
7.10482e-05
7.3954e-05
7.56618e-05
7.58342e-05
7.43479e-05
0.00012686
7.00053e-05
6.8061e-05
7.1048e-05
7.3954e-05
7.56618e-05
7.58339e-05
7.43473e-05
0.00012686
6.99988e-05
6.80567e-05
7.10452e-05
7.39525e-05
7.56616e-05
7.58351e-05
7.43496e-05
0.000126865
6.99916e-05
6.80522e-05
7.10423e-05
7.3951e-05
7.56613e-05
7.58357e-05
7.43509e-05
0.000126856
6.99829e-05
6.80466e-05
7.10385e-05
7.39488e-05
7.56609e-05
7.5837e-05
7.43535e-05
0.000126785
7.00122e-05
6.80613e-05
7.10461e-05
7.39524e-05
7.56615e-05
7.58352e-05
7.43499e-05
0.000126803
7.00097e-05
6.80615e-05
7.10471e-05
7.39534e-05
7.56619e-05
7.58351e-05
7.43491e-05
0.00012682
7.00072e-05
6.80608e-05
7.10471e-05
7.39535e-05
7.56621e-05
7.58352e-05
7.43493e-05
0.000126844
7.0004e-05
6.80594e-05
7.10467e-05
7.39535e-05
7.56621e-05
7.58351e-05
7.43491e-05
0.000126851
6.99979e-05
6.80558e-05
7.10445e-05
7.39523e-05
7.5662e-05
7.5836e-05
7.43508e-05
0.000126861
6.99912e-05
6.80517e-05
7.1042e-05
7.3951e-05
7.56617e-05
7.58365e-05
7.4352e-05
0.00012686
6.99834e-05
6.8047e-05
7.10389e-05
7.39493e-05
7.56613e-05
7.58375e-05
7.4354e-05
0.000126785
7.00177e-05
6.80617e-05
7.10454e-05
7.3952e-05
7.56616e-05
7.58359e-05
7.43511e-05
0.000126802
7.00147e-05
6.80616e-05
7.10462e-05
7.39528e-05
7.5662e-05
7.58358e-05
7.43505e-05
0.000126818
7.00106e-05
6.80606e-05
7.10463e-05
7.39531e-05
7.56623e-05
7.58361e-05
7.43507e-05
0.000126835
7.00045e-05
6.80586e-05
7.10458e-05
7.39532e-05
7.56625e-05
7.58362e-05
7.43507e-05
0.000126845
6.99977e-05
6.80551e-05
7.1044e-05
7.39522e-05
7.56624e-05
7.58369e-05
7.4352e-05
0.000126859
6.9991e-05
6.80514e-05
7.10418e-05
7.39511e-05
7.56621e-05
7.58373e-05
7.4353e-05
0.000126865
6.99838e-05
6.80472e-05
7.10393e-05
7.39497e-05
7.56618e-05
7.58381e-05
7.43547e-05
0.000126786
7.00244e-05
6.80626e-05
7.10451e-05
7.39516e-05
7.56616e-05
7.58364e-05
7.43521e-05
0.000126803
7.00208e-05
6.80623e-05
7.10457e-05
7.39524e-05
7.56621e-05
7.58364e-05
7.43516e-05
0.000126819
7.00157e-05
6.80611e-05
7.10459e-05
7.39528e-05
7.56625e-05
7.58367e-05
7.43517e-05
0.000126834
7.00078e-05
6.80586e-05
7.10453e-05
7.39529e-05
7.56628e-05
7.5837e-05
7.43519e-05
0.000126844
6.99989e-05
6.8055e-05
7.10437e-05
7.39523e-05
7.56628e-05
7.58376e-05
7.4353e-05
0.000126859
6.99911e-05
6.80513e-05
7.10419e-05
7.39514e-05
7.56626e-05
7.5838e-05
7.43538e-05
0.000126872
6.99843e-05
6.80476e-05
7.10398e-05
7.39503e-05
7.56625e-05
7.58387e-05
7.43552e-05
0.000127387
7.00661e-05
6.80721e-05
7.10512e-05
7.39562e-05
7.56638e-05
7.58358e-05
7.43493e-05
0.000127697
7.01123e-05
6.81117e-05
7.10838e-05
7.3976e-05
7.56673e-05
7.58225e-05
7.43228e-05
0.000127678
7.01274e-05
6.81245e-05
7.10924e-05
7.3981e-05
7.56704e-05
7.58258e-05
7.43277e-05
0.000128158
7.02002e-05
6.81761e-05
7.11363e-05
7.40106e-05
7.56792e-05
7.58105e-05
7.42919e-05
0.000127589
7.01279e-05
6.81285e-05
7.10949e-05
7.39818e-05
7.567e-05
7.58246e-05
7.43259e-05
0.000127669
7.01362e-05
6.81342e-05
7.11e-05
7.39844e-05
7.5668e-05
7.58167e-05
7.43125e-05
0.00012733
7.00885e-05
6.81057e-05
7.10783e-05
7.3972e-05
7.56675e-05
7.58288e-05
7.43345e-05
0.000127224
7.00423e-05
6.80566e-05
7.10382e-05
7.3947e-05
7.56595e-05
7.58361e-05
7.43533e-05
0.0001274
7.00601e-05
6.80823e-05
7.10624e-05
7.39626e-05
7.56629e-05
7.58269e-05
7.4334e-05
0.000127389
7.00728e-05
6.80932e-05
7.10699e-05
7.39669e-05
7.56652e-05
7.58289e-05
7.43366e-05
0.000127709
7.01221e-05
6.81282e-05
7.10991e-05
7.39859e-05
7.56695e-05
7.58163e-05
7.43097e-05
0.000127328
7.00772e-05
6.80993e-05
7.1074e-05
7.39688e-05
7.56653e-05
7.58275e-05
7.43343e-05
0.00012738
7.00833e-05
6.81042e-05
7.10786e-05
7.39716e-05
7.56647e-05
7.58226e-05
7.43253e-05
0.000127136
7.0051e-05
6.80849e-05
7.10637e-05
7.39628e-05
7.5664e-05
7.58305e-05
7.434e-05
0.000127117
7.0026e-05
6.80479e-05
7.1031e-05
7.39415e-05
7.56563e-05
7.58356e-05
7.43551e-05
0.000127205
7.00266e-05
6.80636e-05
7.10488e-05
7.3954e-05
7.56602e-05
7.58301e-05
7.43417e-05
0.000127201
7.00371e-05
6.80729e-05
7.10554e-05
7.3958e-05
7.56621e-05
7.58311e-05
7.43427e-05
0.000127411
7.00708e-05
6.80971e-05
7.10755e-05
7.39707e-05
7.56645e-05
7.58218e-05
7.43234e-05
0.000127158
7.00438e-05
6.80802e-05
7.10606e-05
7.39607e-05
7.56628e-05
7.58301e-05
7.43405e-05
0.000127188
7.0048e-05
6.80841e-05
7.10643e-05
7.3963e-05
7.56625e-05
7.58264e-05
7.43335e-05
0.000127013
7.00266e-05
6.80716e-05
7.10546e-05
7.39573e-05