/*--------------------------------*- C++ -*----------------------------------*\
| =========                 |                                                 |
| \\      /  F ield         | OpenFOAM: The Open Source CFD Toolbox           |
|  \\    /   O peration     | Version:  plus.master.MPPICInterFoam            |
|   \\  /    A nd           | Web:      www.OpenFOAM.com                      |
|    \\/     M anipulation  |                                                 |
\*---------------------------------------------------------------------------*/
FoamFile
{
    version     2.0;
    format      ascii;
    class       volScalarField;
    location    "3.4";
    object      nut;
}
// * * * * * * * * * * * * * * * * * * * * * * * * * * * * * * * * * * * * * //

dimensions      [0 2 -1 0 0 0 0];

internalField   nonuniform List<scalar> 
11821
(
5.6368e-06
2.97913e-05
4.73973e-05
5.77154e-05
6.36945e-05
6.66748e-05
6.72191e-05
6.54967e-05
5.63708e-06
2.9703e-05
4.73202e-05
5.76616e-05
6.36617e-05
6.66599e-05
6.72194e-05
6.55095e-05
5.63776e-06
2.96604e-05
4.7282e-05
5.76348e-05
6.36449e-05
6.66513e-05
6.72171e-05
6.5512e-05
5.63828e-06
2.96402e-05
4.72645e-05
5.76223e-05
6.36369e-05
6.66469e-05
6.72158e-05
6.55133e-05
5.63868e-06
2.96489e-05
4.72723e-05
5.7628e-05
6.36405e-05
6.66487e-05
6.72159e-05
6.55118e-05
5.63889e-06
2.96747e-05
4.72962e-05
5.76452e-05
6.36514e-05
6.66542e-05
6.7217e-05
6.55094e-05
5.63911e-06
2.97336e-05
4.73482e-05
5.76821e-05
6.36748e-05
6.66658e-05
6.7218e-05
6.55011e-05
5.63465e-06
2.9784e-05
4.73841e-05
5.77034e-05
6.36867e-05
6.66719e-05
6.72207e-05
6.5502e-05
5.63507e-06
2.97113e-05
4.73208e-05
5.76587e-05
6.36585e-05
6.66578e-05
6.72191e-05
6.55111e-05
5.63568e-06
2.96731e-05
4.72868e-05
5.76347e-05
6.36432e-05
6.66498e-05
6.72169e-05
6.55135e-05
5.63615e-06
2.96543e-05
4.72704e-05
5.76231e-05
6.36357e-05
6.66457e-05
6.72156e-05
6.55147e-05
5.63651e-06
2.96598e-05
4.72753e-05
5.76267e-05
6.36381e-05
6.66469e-05
6.72157e-05
6.55137e-05
5.63669e-06
2.96806e-05
4.72946e-05
5.76406e-05
6.3647e-05
6.66516e-05
6.72168e-05
6.55119e-05
5.63682e-06
2.9727e-05
4.73358e-05
5.76702e-05
6.36662e-05
6.66615e-05
6.72185e-05
6.55061e-05
5.6333e-06
2.97821e-05
4.73784e-05
5.76974e-05
6.36823e-05
6.66698e-05
6.72211e-05
6.55046e-05
5.63375e-06
2.97227e-05
4.73265e-05
5.76607e-05
6.36587e-05
6.66576e-05
6.7219e-05
6.55113e-05
5.6343e-06
2.96892e-05
4.72967e-05
5.76395e-05
6.36452e-05
6.66504e-05
6.72169e-05
6.55135e-05
5.63472e-06
2.96722e-05
4.72818e-05
5.7629e-05
6.36384e-05
6.66466e-05
6.72158e-05
6.55147e-05
5.63503e-06
2.9675e-05
4.72845e-05
5.7631e-05
6.36398e-05
6.66474e-05
6.72159e-05
6.5514e-05
5.63519e-06
2.96914e-05
4.72996e-05
5.7642e-05
6.36469e-05
6.66511e-05
6.72168e-05
6.55126e-05
5.63527e-06
2.97278e-05
4.7332e-05
5.76654e-05
6.36621e-05
6.66592e-05
6.72184e-05
6.55084e-05
5.63245e-06
2.97833e-05
4.7377e-05
5.76952e-05
6.36804e-05
6.66688e-05
6.72213e-05
6.55058e-05
5.63289e-06
2.9735e-05
4.73347e-05
5.76651e-05
6.3661e-05
6.66586e-05
6.72192e-05
6.5511e-05
5.63338e-06
2.97061e-05
4.7309e-05
5.76469e-05
6.36493e-05
6.66523e-05
6.72174e-05
6.5513e-05
5.63376e-06
2.96909e-05
4.72956e-05
5.76374e-05
6.36432e-05
6.6649e-05
6.72164e-05
6.55141e-05
5.63402e-06
2.96919e-05
4.72966e-05
5.76382e-05
6.36437e-05
6.66493e-05
6.72164e-05
6.55137e-05
5.63415e-06
2.97045e-05
4.73082e-05
5.76467e-05
6.36493e-05
6.66522e-05
6.72172e-05
6.55126e-05
5.63421e-06
2.97327e-05
4.73334e-05
5.76649e-05
6.36612e-05
6.66586e-05
6.72186e-05
6.55094e-05
5.63193e-06
2.97863e-05
4.73782e-05
5.76953e-05
6.36802e-05
6.66687e-05
6.72215e-05
6.55064e-05
5.63234e-06
2.97473e-05
4.73438e-05
5.76708e-05
6.36644e-05
6.66603e-05
6.72197e-05
6.55105e-05
5.63278e-06
2.97226e-05
4.73218e-05
5.76552e-05
6.36544e-05
6.66549e-05
6.72182e-05
6.55122e-05
5.63311e-06
2.97092e-05
4.731e-05
5.76468e-05
6.36489e-05
6.6652e-05
6.72173e-05
6.55132e-05
5.63334e-06
2.97089e-05
4.73097e-05
5.76467e-05
6.36489e-05
6.6652e-05
6.72173e-05
6.55131e-05
5.63345e-06
2.97184e-05
4.73184e-05
5.76531e-05
6.36531e-05
6.66542e-05
6.72178e-05
6.55122e-05
5.63347e-06
2.974e-05
4.73378e-05
5.76671e-05
6.36623e-05
6.66592e-05
6.7219e-05
6.55098e-05
5.63161e-06
2.97902e-05
4.73807e-05
5.76968e-05
6.3681e-05
6.66692e-05
6.72217e-05
6.55066e-05
5.632e-06
2.97587e-05
4.73528e-05
5.76769e-05
6.36681e-05
6.66623e-05
6.72202e-05
6.55098e-05
5.63239e-06
2.97379e-05
4.73343e-05
5.76636e-05
6.36596e-05
6.66577e-05
6.72189e-05
6.55113e-05
5.63269e-06
2.97263e-05
4.73239e-05
5.76562e-05
6.36548e-05
6.66551e-05
6.72182e-05
6.55122e-05
5.63288e-06
2.9725e-05
4.73227e-05
5.76555e-05
6.36544e-05
6.66549e-05
6.72181e-05
6.55121e-05
5.63296e-06
2.9732e-05
4.73291e-05
5.76601e-05
6.36574e-05
6.66565e-05
6.72185e-05
6.55116e-05
5.63296e-06
2.97483e-05
4.73437e-05
5.76707e-05
6.36644e-05
6.66603e-05
6.72194e-05
6.55098e-05
5.63143e-06
2.97943e-05
4.73838e-05
5.76987e-05
6.36822e-05
6.66698e-05
6.72219e-05
6.55064e-05
5.63179e-06
2.9769e-05
4.73612e-05
5.76826e-05
6.36717e-05
6.66642e-05
6.72206e-05
6.55089e-05
5.63214e-06
2.97517e-05
4.73456e-05
5.76714e-05
6.36645e-05
6.66603e-05
6.72195e-05
6.55102e-05
5.6324e-06
2.97416e-05
4.73366e-05
5.7665e-05
6.36603e-05
6.6658e-05
6.72189e-05
6.5511e-05
5.63257e-06
2.97398e-05
4.73349e-05
5.76637e-05
6.36596e-05
6.66576e-05
6.72187e-05
6.5511e-05
5.63262e-06
2.97447e-05
4.73392e-05
5.76669e-05
6.36617e-05
6.66587e-05
6.72191e-05
6.55107e-05
5.6326e-06
2.97569e-05
4.73502e-05
5.76749e-05
6.3667e-05
6.66616e-05
6.72198e-05
6.55094e-05
5.63132e-06
2.97982e-05
4.73869e-05
5.77008e-05
6.36835e-05
6.66704e-05
6.72221e-05
6.55062e-05
5.63165e-06
2.9778e-05
4.73686e-05
5.76877e-05
6.3675e-05
6.66659e-05
6.7221e-05
6.55082e-05
5.63197e-06
2.97637e-05
4.73557e-05
5.76784e-05
6.36689e-05
6.66626e-05
6.72201e-05
6.55093e-05
5.63221e-06
2.97552e-05
4.73479e-05
5.76728e-05
6.36653e-05
6.66606e-05
6.72195e-05
6.55099e-05
5.63235e-06
2.9753e-05
4.73458e-05
5.76713e-05
6.36644e-05
6.66601e-05
6.72194e-05
6.55101e-05
5.63238e-06
2.97562e-05
4.73486e-05
5.76733e-05
6.36657e-05
6.66609e-05
6.72196e-05
6.55099e-05
5.63234e-06
2.97652e-05
4.73567e-05
5.76792e-05
6.36696e-05
6.66631e-05
6.72202e-05
6.5509e-05
5.63128e-06
2.98018e-05
4.73897e-05
5.77028e-05
6.36848e-05
6.66712e-05
6.72224e-05
6.5506e-05
5.63157e-06
2.97858e-05
4.73751e-05
5.76922e-05
6.36779e-05
6.66675e-05
6.72216e-05
6.55077e-05
5.63186e-06
2.97742e-05
4.73644e-05
5.76845e-05
6.3673e-05
6.66648e-05
6.72208e-05
6.55086e-05
5.63208e-06
2.9767e-05
4.73578e-05
5.76797e-05
6.36699e-05
6.66632e-05
6.72203e-05
6.55092e-05
5.63219e-06
2.97647e-05
4.73555e-05
5.76781e-05
6.36688e-05
6.66626e-05
6.72202e-05
6.55094e-05
5.6322e-06
2.97666e-05
4.73571e-05
5.76792e-05
6.36696e-05
6.66631e-05
6.72204e-05
6.55093e-05
5.63215e-06
2.97731e-05
4.73629e-05
5.76835e-05
6.36724e-05
6.66647e-05
6.72208e-05
6.55087e-05
5.63131e-06
2.98047e-05
4.73923e-05
5.77046e-05
6.3686e-05
6.66718e-05
6.72226e-05
6.55059e-05
5.63154e-06
2.97925e-05
4.73808e-05
5.76963e-05
6.36807e-05
6.66691e-05
6.72221e-05
6.55074e-05
5.63181e-06
2.97833e-05
4.73721e-05
5.769e-05
6.36766e-05
6.6667e-05
6.72216e-05
6.55082e-05
5.63201e-06
2.97774e-05
4.73665e-05
5.76859e-05
6.3674e-05
6.66655e-05
6.72212e-05
6.55087e-05
5.63211e-06
2.9775e-05
4.73641e-05
5.76842e-05
6.36729e-05
6.6665e-05
6.7221e-05
6.55089e-05
5.63211e-06
2.97759e-05
4.73648e-05
5.76846e-05
6.36732e-05
6.66652e-05
6.72211e-05
6.55089e-05
5.63205e-06
2.97802e-05
4.73687e-05
5.76875e-05
6.36751e-05
6.66662e-05
6.72214e-05
6.55085e-05
5.63142e-06
2.9807e-05
4.73945e-05
5.77062e-05
6.36871e-05
6.66724e-05
6.72227e-05
6.55057e-05
5.6316e-06
2.97981e-05
4.73856e-05
5.76997e-05
6.36829e-05
6.66704e-05
6.72226e-05
6.55071e-05
5.63185e-06
2.97909e-05
4.73786e-05
5.76946e-05
6.36796e-05
6.66687e-05
6.72221e-05
6.55077e-05
5.63203e-06
2.97861e-05
4.73738e-05
5.76911e-05
6.36774e-05
6.66674e-05
6.72217e-05
6.55081e-05
5.63213e-06
2.97837e-05
4.73714e-05
5.76893e-05
6.36762e-05
6.66668e-05
6.72216e-05
6.55083e-05
5.63214e-06
2.97836e-05
4.73711e-05
5.76891e-05
6.3676e-05
6.66667e-05
6.72215e-05
6.55084e-05
5.63211e-06
2.9786e-05
4.73734e-05
5.76908e-05
6.36772e-05
6.66672e-05
6.72216e-05
6.55081e-05
5.63157e-06
2.9809e-05
4.73964e-05
5.77076e-05
6.36879e-05
6.66728e-05
6.72227e-05
6.55054e-05
5.63181e-06
2.98019e-05
4.73892e-05
5.77023e-05
6.36845e-05
6.66711e-05
6.72226e-05
6.55066e-05
5.63207e-06
2.97962e-05
4.73834e-05
5.7698e-05
6.36817e-05
6.66696e-05
6.72222e-05
6.5507e-05
5.63225e-06
2.97921e-05
4.73792e-05
5.76948e-05
6.36796e-05
6.66684e-05
6.72217e-05
6.55073e-05
5.63234e-06
2.97896e-05
4.73766e-05
5.76928e-05
6.36783e-05
6.66677e-05
6.72215e-05
6.55075e-05
5.63234e-06
2.97888e-05
4.73756e-05
5.76921e-05
6.36779e-05
6.66674e-05
6.72215e-05
6.55077e-05
5.63229e-06
2.97901e-05
4.73769e-05
5.76931e-05
6.36785e-05
6.66677e-05
6.72215e-05
6.55075e-05
5.63174e-06
2.98108e-05
4.73982e-05
5.77088e-05
6.36886e-05
6.66731e-05
6.72226e-05
6.55051e-05
5.63205e-06
2.98052e-05
4.73922e-05
5.77044e-05
6.36858e-05
6.66717e-05
6.72225e-05
6.55061e-05
5.63234e-06
2.98005e-05
4.73873e-05
5.77007e-05
6.36833e-05
6.66703e-05
6.72221e-05
6.55064e-05
5.63254e-06
2.97968e-05
4.73834e-05
5.76977e-05
6.36813e-05
6.66691e-05
6.72216e-05
6.55066e-05
5.63263e-06
2.97943e-05
4.73806e-05
5.76956e-05
6.36799e-05
6.66683e-05
6.72214e-05
6.55069e-05
5.6326e-06
2.9793e-05
4.73792e-05
5.76945e-05
6.36792e-05
6.6668e-05
6.72213e-05
6.55072e-05
5.6325e-06
2.97935e-05
4.73796e-05
5.76949e-05
6.36795e-05
6.66681e-05
6.72214e-05
6.55072e-05
5.63193e-06
2.98127e-05
4.74e-05
5.77101e-05
6.36894e-05
6.66735e-05
6.72227e-05
6.55047e-05
5.63231e-06
2.98082e-05
4.73951e-05
5.77064e-05
6.3687e-05
6.66723e-05
6.72225e-05
6.55057e-05
5.63264e-06
2.98043e-05
4.73908e-05
5.77031e-05
6.36848e-05
6.6671e-05
6.72221e-05
6.5506e-05
5.63287e-06
2.9801e-05
4.73872e-05
5.77004e-05
6.36829e-05
6.66699e-05
6.72217e-05
6.55061e-05
5.63295e-06
2.97985e-05
4.73844e-05
5.76982e-05
6.36815e-05
6.6669e-05
6.72214e-05
6.55064e-05
5.6329e-06
2.97968e-05
4.73826e-05
5.76968e-05
6.36806e-05
6.66686e-05
6.72214e-05
6.55068e-05
5.63275e-06
2.97966e-05
4.73823e-05
5.76966e-05
6.36805e-05
6.66687e-05
6.72215e-05
6.55069e-05
5.63775e-06
2.98509e-05
4.7453e-05
5.77546e-05
6.37163e-05
6.66806e-05
6.72115e-05
6.54792e-05
5.63943e-06
2.98719e-05
4.74746e-05
5.77707e-05
6.37258e-05
6.66823e-05
6.72054e-05
6.54649e-05
5.63789e-06
2.98671e-05
4.7471e-05
5.77725e-05
6.37329e-05
5.64386e-06
2.99316e-05
5.63632e-06
5.63493e-06
2.98377e-05
4.74345e-05
5.77393e-05
6.37071e-05
6.66782e-05
6.72156e-05
6.54883e-05
5.63587e-06
2.98517e-05
4.74487e-05
5.77495e-05
6.37124e-05
6.66784e-05
6.721e-05
6.54775e-05
5.6347e-06
2.98483e-05
4.74446e-05
5.77461e-05
6.37132e-05
6.6682e-05
6.72163e-05
6.54859e-05
5.63848e-06
2.98908e-05
4.749e-05
5.7781e-05
6.37312e-05
6.6683e-05
6.72002e-05
6.54547e-05
5.63398e-06
2.98525e-05
4.7449e-05
5.77498e-05
6.37129e-05
6.66798e-05
6.72137e-05
6.54842e-05
5.63532e-06
2.98695e-05
4.74656e-05
5.77615e-05
6.37193e-05
6.66805e-05
6.72087e-05
6.54737e-05
5.63474e-06
2.98699e-05
4.74654e-05
5.77608e-05
6.37188e-05
6.66814e-05
6.72119e-05
6.54796e-05
5.63315e-06
2.98293e-05
4.74228e-05
5.77295e-05
6.37012e-05
6.66766e-05
6.72178e-05
6.54936e-05
5.63364e-06
2.98389e-05
4.74326e-05
5.77368e-05
6.37052e-05
6.6677e-05
6.72145e-05
6.54869e-05
5.63279e-06
2.98378e-05
4.7431e-05
5.77347e-05
6.37035e-05
6.66767e-05
6.72159e-05
6.54902e-05
5.63519e-06
2.98652e-05
4.74598e-05
5.7757e-05
6.37167e-05
6.66792e-05
6.72072e-05
6.54712e-05
5.6324e-06
2.98439e-05
4.74369e-05
5.77395e-05
6.37066e-05
6.6678e-05
6.7216e-05
6.54896e-05
5.63335e-06
2.98567e-05
4.74496e-05
5.77488e-05
6.37119e-05
6.66791e-05
6.72128e-05
6.54825e-05
5.63322e-06
2.98604e-05
4.74528e-05
5.77505e-05
6.37126e-05
6.66796e-05
6.7214e-05
6.54847e-05
5.63202e-06
2.9824e-05
4.74154e-05
5.77233e-05
6.36974e-05
6.66756e-05
6.72194e-05
6.54971e-05
5.63222e-06
2.98305e-05
4.74221e-05
5.77284e-05
6.37003e-05
6.6676e-05
6.72172e-05
6.54926e-05
5.6316e-06
2.98308e-05
4.74222e-05
5.77282e-05
6.37001e-05
6.66762e-05
6.72184e-05
6.54951e-05
5.63312e-06
2.98493e-05
4.74414e-05
5.77427e-05
6.37084e-05
6.66775e-05
6.72121e-05
6.54817e-05
5.63139e-06
2.98377e-05
4.74288e-05
5.77328e-05
6.37027e-05
6.6677e-05
6.72178e-05
6.54935e-05
5.63208e-06
2.98476e-05
4.74387e-05
5.77401e-05
6.37068e-05
6.66778e-05
6.72152e-05
6.54878e-05
5.63223e-06
2.98529e-05
4.74437e-05
5.77433e-05
6.37084e-05
6.66785e-05
6.72157e-05
6.54885e-05
5.63131e-06
2.98206e-05
4.74108e-05
5.77195e-05
6.36952e-05
6.66751e-05
6.72204e-05
6.54993e-05
5.63133e-06
2.98253e-05
4.74155e-05
5.77231e-05
6.36972e-05
6.66754e-05
6.7219e-05
6.54963e-05
5.63088e-06
2.98263e-05
4.74164e-05
5.77236e-05
6.36974e-05
6.66757e-05
6.72197e-05
6.54977e-05
5.63182e-06
2.98389e-05
4.74296e-05
5.77335e-05
6.37031e-05
6.66766e-05
6.72155e-05
6.54888e-05
5.63078e-06
2.98334e-05
4.74233e-05
5.77285e-05
6.37002e-05
6.66764e-05
6.72189e-05
6.54957e-05
5.63129e-06
2.98412e-05
4.74313e-05
5.77343e-05
6.37035e-05
6.66772e-05
6.72171e-05
6.54916e-05
5.63157e-06
2.98469e-05
4.74368e-05
5.7738e-05
6.37054e-05
6.66778e-05
6.7217e-05
6.54912e-05
5.63085e-06
2.98183e-05
4.74078e-05
5.77171e-05
6.36938e-05
6.66748e-05
6.72211e-05
6.55008e-05
5.63077e-06
2.98218e-05
4.74113e-05
5.77198e-05
6.36953e-05
6.66751e-05
6.72201e-05
6.54987e-05
5.63044e-06
2.98232e-05
4.74127e-05
5.77207e-05
6.36958e-05
6.66754e-05
6.72205e-05
6.54994e-05
5.63101e-06
2.98321e-05
4.74219e-05
5.77276e-05
6.36998e-05
6.6676e-05
6.72177e-05
6.54933e-05
5.6304e-06
2.98301e-05
4.74195e-05
5.77256e-05
6.36985e-05
6.66761e-05
6.72197e-05
6.54973e-05
5.63078e-06
2.98363e-05
4.74259e-05
5.77302e-05
6.37011e-05
6.66767e-05
6.72184e-05
6.54943e-05
5.6311e-06
2.98417e-05
4.74312e-05
5.77338e-05
6.37031e-05
6.66773e-05
6.7218e-05
6.54934e-05
5.63056e-06
2.98164e-05
4.74057e-05
5.77155e-05
6.36929e-05
6.66747e-05
6.72217e-05
6.55018e-05
5.63041e-06
2.98192e-05
4.74084e-05
5.77175e-05
6.36941e-05
6.66749e-05
6.72209e-05
6.55003e-05
5.63016e-06
2.98207e-05
4.741e-05
5.77186e-05
6.36947e-05
6.66751e-05
6.72211e-05
6.55005e-05
5.63048e-06
2.98272e-05
4.74167e-05
5.77237e-05
6.36976e-05
6.66757e-05
6.72192e-05
6.54963e-05
5.63014e-06
2.98272e-05
4.74165e-05
5.77233e-05
6.36973e-05
6.66759e-05
6.72203e-05
6.54985e-05
5.63042e-06
2.98322e-05
4.74216e-05
5.77271e-05
6.36994e-05
6.66764e-05
6.72193e-05
6.54962e-05
5.63074e-06
2.98371e-05
4.74265e-05
5.77304e-05
6.37012e-05
6.66769e-05
6.72189e-05
6.54952e-05
5.63038e-06
2.98146e-05
4.74038e-05
5.77141e-05
6.36922e-05
6.66746e-05
6.72221e-05
6.55026e-05
5.6302e-06
2.98165e-05
4.74059e-05
5.77158e-05
6.36932e-05
6.66748e-05
6.72215e-05
6.55014e-05
5.63002e-06
2.98178e-05
4.74075e-05
5.77169e-05
6.36938e-05
6.66749e-05
6.72215e-05
6.55013e-05
5.63013e-06
2.98233e-05
4.74128e-05
5.77209e-05
6.3696e-05
6.66755e-05
6.72202e-05
6.54984e-05
5.62995e-06
2.98243e-05
4.74138e-05
5.77214e-05
6.36963e-05
6.66757e-05
6.72207e-05
6.54994e-05
5.63015e-06
2.98286e-05
4.74181e-05
5.77245e-05
6.3698e-05
6.66762e-05
6.722e-05
6.54977e-05
5.63044e-06
2.98329e-05
4.74223e-05
5.77275e-05
6.36996e-05
6.66766e-05
6.72196e-05
6.54967e-05
5.63025e-06
2.98129e-05
4.74022e-05
5.7713e-05
6.36916e-05
6.66745e-05
6.72224e-05
6.55032e-05
5.63008e-06
2.98141e-05
4.74038e-05
5.77143e-05
6.36924e-05
6.66746e-05
6.72219e-05
6.55023e-05
5.62994e-06
2.98152e-05
4.74053e-05
5.77155e-05
6.3693e-05
6.66747e-05
6.72217e-05
6.55019e-05
5.62994e-06
2.98194e-05
4.74094e-05
5.77186e-05
6.36948e-05
6.66753e-05
6.7221e-05
6.54999e-05
5.62986e-06
2.98208e-05
4.74109e-05
5.77196e-05
6.36953e-05
6.66754e-05
6.7221e-05
6.55001e-05
5.62995e-06
2.9825e-05
4.74148e-05
5.77223e-05
6.36968e-05
6.66759e-05
6.72206e-05
6.54989e-05
5.63019e-06
2.98289e-05
4.74186e-05
5.77249e-05
6.36982e-05
6.66763e-05
6.72202e-05
6.5498e-05
5.63014e-06
2.98111e-05
4.74007e-05
5.7712e-05
6.36911e-05
6.66744e-05
6.72227e-05
6.55038e-05
5.63e-06
2.98117e-05
4.74019e-05
5.77131e-05
6.36917e-05
6.66744e-05
6.72222e-05
6.5503e-05
5.62989e-06
2.98125e-05
4.74032e-05
5.77141e-05
6.36922e-05
6.66745e-05
6.72219e-05
6.55024e-05
5.62988e-06
2.98154e-05
4.74063e-05
5.77165e-05
6.36936e-05
6.66749e-05
6.72213e-05
6.55009e-05
5.62984e-06
2.98169e-05
4.74079e-05
5.77177e-05
6.36942e-05
6.6675e-05
6.72212e-05
6.55007e-05
5.62988e-06
2.98205e-05
4.74113e-05
5.772e-05
6.36955e-05
6.66755e-05
6.7221e-05
6.54999e-05
5.63001e-06
2.98246e-05
4.74149e-05
5.77225e-05
6.36969e-05
6.6676e-05
6.72208e-05
6.54991e-05
5.63005e-06
2.98094e-05
4.73993e-05
5.77111e-05
6.36906e-05
6.66743e-05
6.72229e-05
6.55043e-05
5.62993e-06
2.98092e-05
4.74e-05
5.77119e-05
6.36911e-05
6.66743e-05
6.72225e-05
6.55036e-05
5.62985e-06
2.98095e-05
4.7401e-05
5.77128e-05
6.36915e-05
6.66742e-05
6.72221e-05
6.55029e-05
5.62984e-06
2.98115e-05
4.74033e-05
5.77146e-05
6.36925e-05
6.66744e-05
6.72215e-05
6.55017e-05
5.62982e-06
2.98128e-05
4.74049e-05
5.77157e-05
6.3693e-05
6.66745e-05
6.72213e-05
6.55013e-05
5.62986e-06
2.98156e-05
4.74076e-05
5.77176e-05
6.36942e-05
6.6675e-05
6.72212e-05
6.55007e-05
5.62996e-06
2.98193e-05
4.74108e-05
5.77198e-05
6.36954e-05
6.66755e-05
6.72211e-05
6.55002e-05
5.62996e-06
2.98074e-05
4.73976e-05
5.771e-05
6.369e-05
6.66741e-05
6.72231e-05
6.55048e-05
5.62986e-06
2.98066e-05
4.7398e-05
5.77106e-05
6.36904e-05
6.66741e-05
6.72227e-05
6.55042e-05
5.6298e-06
2.98064e-05
4.73987e-05
5.77114e-05
6.36907e-05
6.6674e-05
6.72223e-05
6.55035e-05
5.6298e-06
2.98074e-05
4.74004e-05
5.77128e-05
6.36915e-05
6.66741e-05
6.72218e-05
6.55024e-05
5.62981e-06
2.98084e-05
4.74018e-05
5.77138e-05
6.3692e-05
6.66741e-05
6.72215e-05
6.5502e-05
5.62984e-06
2.98106e-05
4.74039e-05
5.77153e-05
6.36929e-05
6.66745e-05
6.72214e-05
6.55016e-05
5.62994e-06
2.98136e-05
4.74066e-05
5.77172e-05
6.3694e-05
6.6675e-05
6.72214e-05
6.55012e-05
5.62986e-06
2.98053e-05
4.7396e-05
5.7709e-05
6.36895e-05
6.6674e-05
6.72234e-05
6.55055e-05
5.62977e-06
2.98038e-05
4.7396e-05
5.77094e-05
6.36898e-05
6.6674e-05
6.72231e-05
6.5505e-05
5.62974e-06
2.98029e-05
4.73963e-05
5.771e-05
6.369e-05
6.66739e-05
6.72226e-05
6.55042e-05
5.62976e-06
2.98032e-05
4.73975e-05
5.77111e-05
6.36906e-05
6.66739e-05
6.72221e-05
6.55032e-05
5.62978e-06
2.98037e-05
4.73986e-05
5.77119e-05
6.3691e-05
6.66739e-05
6.72218e-05
6.55027e-05
5.62982e-06
2.98053e-05
4.74003e-05
5.77132e-05
6.36917e-05
6.66741e-05
6.72217e-05
6.55024e-05
5.62992e-06
2.98079e-05
4.74026e-05
5.77147e-05
6.36927e-05
6.66746e-05
6.72217e-05
6.55021e-05
5.62975e-06
2.98031e-05
4.73944e-05
5.77082e-05
6.36893e-05
6.66742e-05
6.72239e-05
6.55062e-05
5.62968e-06
2.98009e-05
4.73941e-05
5.77084e-05
6.36894e-05
6.66742e-05
6.72236e-05
6.55057e-05
5.62967e-06
2.97994e-05
4.73941e-05
5.77088e-05
6.36896e-05
6.66739e-05
6.7223e-05
6.55049e-05
5.62971e-06
2.97989e-05
4.73948e-05
5.77096e-05
6.36899e-05
6.66738e-05
6.72224e-05
6.55039e-05
5.62975e-06
2.9799e-05
4.73955e-05
5.77103e-05
6.36902e-05
6.66737e-05
6.7222e-05
6.55033e-05
5.62981e-06
2.98e-05
4.73968e-05
5.77112e-05
6.36908e-05
6.66739e-05
6.7222e-05
6.55031e-05
5.62991e-06
2.98022e-05
4.73988e-05
5.77126e-05
6.36915e-05
6.66742e-05
6.72219e-05
6.55028e-05
5.64665e-06
5.65891e-06
3.0118e-05
5.64615e-06
2.99798e-05
4.75871e-05
5.78534e-05
6.37736e-05
5.64657e-06
2.9955e-05
4.75599e-05
5.78321e-05
6.37602e-05
6.66921e-05
6.71937e-05
6.54375e-05
5.63853e-06
2.98535e-05
4.74551e-05
5.77554e-05
6.37171e-05
6.6683e-05
6.72165e-05
6.5487e-05
5.63579e-06
2.98858e-05
4.74819e-05
5.77727e-05
6.37255e-05
6.66835e-05
6.72105e-05
6.54761e-05
5.64162e-06
2.99463e-05
4.75433e-05
5.78167e-05
6.37493e-05
6.66875e-05
6.71958e-05
6.54455e-05
5.64042e-06
2.99399e-05
4.75394e-05
5.78144e-05
6.37484e-05
6.66889e-05
6.72012e-05
6.54558e-05
5.64919e-06
3.00277e-05
4.76309e-05
5.78838e-05
6.37893e-05
6.66986e-05
6.71783e-05
6.5403e-05
5.64132e-06
2.99336e-05
4.75336e-05
5.78107e-05
6.37476e-05
6.66903e-05
6.72042e-05
6.54599e-05
5.64164e-06
2.99153e-05
4.75138e-05
5.77961e-05
6.37386e-05
6.66857e-05
6.72014e-05
6.54564e-05
5.63571e-06
2.98387e-05
4.74348e-05
5.77384e-05
6.37065e-05
6.6679e-05
6.72184e-05
6.54935e-05
5.63396e-06
2.98728e-05
4.74658e-05
5.77599e-05
6.37179e-05
6.66813e-05
6.7213e-05
6.5482e-05
5.63819e-06
2.99169e-05
4.75108e-05
5.77923e-05
6.37356e-05
6.66844e-05
6.72024e-05
6.54597e-05
5.63722e-06
2.99086e-05
4.7504e-05
5.77877e-05
6.37331e-05
6.66848e-05
6.72065e-05
6.54682e-05
5.64356e-06
2.99663e-05
4.75641e-05
5.78326e-05
6.3759e-05
6.66898e-05
6.71898e-05
6.54313e-05
5.63812e-06
2.99033e-05
4.74986e-05
5.77835e-05
6.37309e-05
6.66846e-05
6.72081e-05
6.54712e-05
5.63822e-06
2.98871e-05
4.74817e-05
5.77715e-05
6.37243e-05
6.66819e-05
6.72072e-05
6.54701e-05
5.63394e-06
2.98292e-05
4.74218e-05
5.77277e-05
6.36997e-05
6.66765e-05
6.72197e-05
6.54975e-05
5.63281e-06
2.98625e-05
4.74537e-05
5.77505e-05
6.37124e-05
6.66797e-05
6.72148e-05
6.54863e-05
5.63598e-06
2.98947e-05
4.74867e-05
5.77743e-05
6.37254e-05
6.66821e-05
6.72071e-05
6.547e-05
5.63528e-06
2.98878e-05
4.74804e-05
5.77698e-05
6.3723e-05
6.66822e-05
6.72104e-05
6.54768e-05
5.63961e-06
2.99254e-05
4.75197e-05
5.77991e-05
6.37397e-05
6.66851e-05
6.71989e-05
6.54518e-05
5.63589e-06
2.98814e-05
4.7474e-05
5.7765e-05
6.37203e-05
6.66816e-05
6.72117e-05
6.54797e-05
5.63589e-06
2.9867e-05
4.74591e-05
5.77543e-05
6.37144e-05
6.66794e-05
6.72115e-05
6.54798e-05
5.63282e-06
2.98233e-05
4.74137e-05
5.7721e-05
6.36956e-05
6.6675e-05
6.72205e-05
6.55001e-05
5.63204e-06
2.98543e-05
4.74445e-05
5.77435e-05
6.37084e-05
6.66787e-05
6.72162e-05
6.54895e-05
5.63438e-06
2.98777e-05
4.74684e-05
5.77608e-05
6.37179e-05
6.66804e-05
6.72106e-05
6.54777e-05
5.63392e-06
2.98724e-05
4.74635e-05
5.77571e-05
6.37158e-05
6.66804e-05
6.72132e-05
6.5483e-05
5.63686e-06
2.98964e-05
4.74885e-05
5.77758e-05
6.37265e-05
6.66821e-05
6.72054e-05
6.54663e-05
5.63439e-06
2.98655e-05
4.74564e-05
5.77518e-05
6.37129e-05
6.66797e-05
6.72145e-05
6.54858e-05
5.63432e-06
2.98528e-05
4.74433e-05
5.77424e-05
6.37076e-05
6.66778e-05
6.72146e-05
6.54867e-05
5.63214e-06
2.98196e-05
4.74089e-05
5.7717e-05
6.36932e-05
6.66743e-05
6.72211e-05
6.55017e-05
5.6315e-06
2.98476e-05
4.74373e-05
5.77382e-05
6.37054e-05
6.6678e-05
6.72174e-05
6.54921e-05
5.63323e-06
2.98644e-05
4.74545e-05
5.77506e-05
6.37122e-05
6.66792e-05
6.72134e-05
6.54836e-05
5.63297e-06
2.98606e-05
4.74508e-05
5.77478e-05
6.37106e-05
6.66791e-05
6.72153e-05
6.54876e-05
5.63498e-06
2.98756e-05
4.74665e-05
5.77594e-05
6.37172e-05
6.66801e-05
6.72101e-05
6.54765e-05
5.63336e-06
2.98538e-05
4.74438e-05
5.77424e-05
6.37076e-05
6.66784e-05
6.72164e-05
6.54902e-05
5.63326e-06
2.98427e-05
4.74323e-05
5.77341e-05
6.37029e-05
6.66767e-05
6.72168e-05
6.54916e-05
5.63173e-06
2.98175e-05
4.7406e-05
5.77147e-05
6.36919e-05
6.66739e-05
6.72215e-05
6.55026e-05
5.63109e-06
2.98419e-05
4.74314e-05
5.77339e-05
6.37031e-05
6.66774e-05
6.72184e-05
6.54941e-05
5.63239e-06
2.98539e-05
4.74437e-05
5.77427e-05
6.37079e-05
6.66783e-05
6.72155e-05
6.5488e-05
5.6323e-06
2.98514e-05
4.74412e-05
5.77407e-05
6.37067e-05
6.66782e-05
6.72168e-05
6.54909e-05
5.63368e-06
2.98605e-05
4.74506e-05
5.77478e-05
6.37107e-05
6.66787e-05
6.72134e-05
6.54837e-05
5.63266e-06
2.9845e-05
4.74344e-05
5.77356e-05
6.37038e-05
6.66774e-05
6.72178e-05
6.54933e-05
5.63255e-06
2.98355e-05
4.74245e-05
5.77283e-05
6.36997e-05
6.6676e-05
6.72184e-05
6.5495e-05
5.6315e-06
2.98163e-05
4.74043e-05
5.77134e-05
6.36911e-05
6.66737e-05
6.72218e-05
6.55031e-05
5.63077e-06
2.98369e-05
4.74264e-05
5.77303e-05
6.37011e-05
6.6677e-05
6.72192e-05
6.54958e-05
5.63175e-06
2.98455e-05
4.74351e-05
5.77366e-05
6.37045e-05
6.66776e-05
6.72171e-05
6.54914e-05
5.6318e-06
2.98439e-05
4.74335e-05
5.77353e-05
6.37037e-05
6.66775e-05
6.7218e-05
6.54933e-05
5.63276e-06
2.98493e-05
4.74391e-05
5.77393e-05
6.3706e-05
6.66777e-05
6.72158e-05
6.54888e-05
5.63215e-06
2.98383e-05
4.74274e-05
5.77305e-05
6.3701e-05
6.66767e-05
6.72189e-05
6.54956e-05
5.63207e-06
2.98303e-05
4.74189e-05
5.77242e-05
6.36974e-05
6.66755e-05
6.72195e-05
6.54974e-05
5.63136e-06
2.98155e-05
4.74033e-05
5.77126e-05
6.36907e-05
6.66736e-05
6.72219e-05
6.55034e-05
5.63049e-06
2.98323e-05
4.7422e-05
5.77273e-05
6.36995e-05
6.66766e-05
6.72199e-05
6.54972e-05
5.63125e-06
2.98386e-05
4.74284e-05
5.77318e-05
6.37019e-05
6.6677e-05
6.72183e-05
6.5494e-05
5.63141e-06
2.98378e-05
4.74275e-05
5.7731e-05
6.37014e-05
6.66769e-05
6.72189e-05
6.54953e-05
5.63211e-06
2.98409e-05
4.74305e-05
5.77332e-05
6.37026e-05
6.6677e-05
6.72175e-05
6.54926e-05
5.63178e-06
2.9833e-05
4.7422e-05
5.77267e-05
6.36989e-05
6.66762e-05
6.72197e-05
6.54974e-05
5.63175e-06
2.98264e-05
4.74149e-05
5.77214e-05
6.36959e-05
6.66753e-05
6.72204e-05
6.54992e-05
5.63129e-06
2.98151e-05
4.74029e-05
5.77123e-05
6.36906e-05
6.66737e-05
6.72222e-05
6.55037e-05
5.63027e-06
2.9828e-05
4.74181e-05
5.77246e-05
6.36981e-05
6.66763e-05
6.72205e-05
6.54985e-05
5.63086e-06
2.98329e-05
4.74229e-05
5.7728e-05
6.36999e-05
6.66767e-05
6.72194e-05
6.54962e-05
5.63109e-06
2.98328e-05
4.74226e-05
5.77276e-05
6.36996e-05
6.66766e-05
6.72197e-05
6.5497e-05
5.63164e-06
2.98346e-05
4.74242e-05
5.77287e-05
6.37002e-05
6.66766e-05
6.72189e-05
6.54954e-05
5.63151e-06
2.9829e-05
4.7418e-05
5.77239e-05
6.36974e-05
6.6676e-05
6.72205e-05
6.54989e-05
5.63154e-06
2.98237e-05
4.74122e-05
5.77195e-05
6.36949e-05
6.66752e-05
6.72211e-05
6.55005e-05
5.63127e-06
2.98151e-05
4.74029e-05
5.77124e-05
6.36908e-05
6.6674e-05
6.72225e-05
6.5504e-05
5.63014e-06
2.9823e-05
4.7414e-05
5.77219e-05
6.36967e-05
6.6676e-05
6.72211e-05
6.54997e-05
5.63056e-06
2.98277e-05
4.74182e-05
5.77248e-05
6.36983e-05
6.66765e-05
6.72204e-05
6.54981e-05
5.63084e-06
2.98284e-05
4.74186e-05
5.77249e-05
6.36983e-05
6.66765e-05
6.72206e-05
6.54985e-05
5.6313e-06
2.98297e-05
4.74195e-05
5.77254e-05
6.36985e-05
6.66764e-05
6.72201e-05
6.54976e-05
5.63131e-06
2.98258e-05
4.7415e-05
5.77219e-05
6.36965e-05
6.6676e-05
6.72213e-05
6.55002e-05
5.63141e-06
2.98219e-05
4.74104e-05
5.77183e-05
6.36944e-05
6.66753e-05
6.72218e-05
6.55016e-05
5.6313e-06
2.98154e-05
4.74031e-05
5.77127e-05
6.36911e-05
6.66743e-05
6.72227e-05
6.55042e-05
5.63011e-06
2.98172e-05
4.74096e-05
5.77192e-05
6.36952e-05
6.66755e-05
6.72214e-05
6.55008e-05
5.63039e-06
2.98222e-05
4.74136e-05
5.77219e-05
6.36968e-05
6.66762e-05
6.72213e-05
6.54998e-05
5.63067e-06
2.98241e-05
4.74149e-05
5.77225e-05
6.36971e-05
6.66764e-05
6.72214e-05
6.54999e-05
5.63105e-06
2.98257e-05
4.74158e-05
5.7723e-05
6.36974e-05
6.66764e-05
6.72212e-05
6.54995e-05
5.63118e-06
2.98234e-05
4.74128e-05
5.77204e-05
6.36958e-05
6.66761e-05
6.7222e-05
6.55014e-05
5.63135e-06
2.98205e-05
4.74091e-05
5.77174e-05
6.3694e-05
6.66755e-05
6.72224e-05
6.55026e-05
5.63136e-06
2.98157e-05
4.74035e-05
5.7713e-05
6.36913e-05
6.66745e-05
6.7223e-05
6.55045e-05
5.6301e-06
2.98114e-05
4.74054e-05
5.77166e-05
6.36938e-05
6.66751e-05
6.72217e-05
6.55017e-05
5.63036e-06
2.9816e-05
4.74091e-05
5.77191e-05
6.36953e-05
6.66758e-05
6.72217e-05
6.5501e-05
5.63061e-06
2.98191e-05
4.74111e-05
5.77202e-05
6.3696e-05
6.66762e-05
6.72219e-05
6.55011e-05
5.6309e-06
2.98219e-05
4.74127e-05
5.7721e-05
6.36964e-05
6.66765e-05
6.72221e-05
6.5501e-05
5.63109e-06
2.98212e-05
4.7411e-05
5.77193e-05
6.36954e-05
6.66762e-05
6.72226e-05
6.55024e-05
5.63132e-06
2.98195e-05
4.74083e-05
5.77169e-05
6.36939e-05
6.66757e-05
6.72229e-05
6.55034e-05
5.63145e-06
2.98161e-05
4.7404e-05
5.77134e-05
6.36916e-05
6.66748e-05
6.72232e-05
6.55047e-05
5.6301e-06
2.98056e-05
4.74015e-05
5.77143e-05
6.36925e-05
6.66746e-05
6.72219e-05
6.55024e-05
5.63036e-06
2.98102e-05
4.7405e-05
5.77166e-05
6.36939e-05
6.66753e-05
6.7222e-05
6.55018e-05
5.63063e-06
2.98141e-05
4.74076e-05
5.77181e-05
6.36949e-05
6.66759e-05
6.72222e-05
6.55018e-05
5.63087e-06
2.98178e-05
4.74097e-05
5.77192e-05
6.36956e-05
6.66764e-05
6.72226e-05
6.5502e-05
5.63106e-06
2.98191e-05
4.74094e-05
5.77184e-05
6.36951e-05
6.66764e-05
6.72231e-05
6.55031e-05
5.63132e-06
2.98189e-05
4.74079e-05
5.77168e-05
6.3694e-05
6.6676e-05
6.72234e-05
6.55039e-05
5.63155e-06
2.98168e-05
4.74048e-05
5.7714e-05
6.36922e-05
6.66752e-05
6.72235e-05
6.55048e-05
5.63922e-06
2.97869e-05
4.73976e-05
5.7716e-05
6.36945e-05
6.66738e-05
6.72173e-05
6.54947e-05
5.64382e-06
2.98654e-05
4.74713e-05
5.77687e-05
6.37241e-05
6.66808e-05
6.72035e-05
6.54633e-05
5.64353e-06
2.98802e-05
4.74873e-05
5.77805e-05
6.3731e-05
6.66843e-05
6.72058e-05
6.54666e-05
5.65069e-06
2.99591e-05
4.75698e-05
5.78426e-05
6.3767e-05
6.66915e-05
6.71826e-05
6.54151e-05
5.64219e-06
2.9884e-05
4.74907e-05
5.7783e-05
6.37326e-05
6.66852e-05
6.72063e-05
6.54669e-05
5.64336e-06
2.98975e-05
4.75025e-05
5.77911e-05
6.37367e-05
6.66845e-05
6.71998e-05
6.54542e-05
5.6383e-06
2.98527e-05
4.74557e-05
5.77569e-05
6.3718e-05
6.66817e-05
6.72125e-05
6.54803e-05
5.6368e-06
2.97711e-05
4.73759e-05
5.76987e-05
6.36837e-05
6.66698e-05
6.72194e-05
6.55016e-05
5.63942e-06
2.98378e-05
4.74374e-05
5.77418e-05
6.37081e-05
6.66766e-05
6.72103e-05
6.54791e-05
5.63925e-06
2.98516e-05
4.74519e-05
5.77523e-05
6.37142e-05
6.66796e-05
6.72119e-05
6.54811e-05
5.64402e-06
2.99061e-05
4.75087e-05
5.7795e-05
6.37388e-05
6.66842e-05
6.71956e-05
6.54453e-05
5.63831e-06
2.98586e-05
4.74585e-05
5.77571e-05
6.37171e-05
6.66807e-05
6.72118e-05
6.54801e-05
5.63908e-06
2.9869e-05
4.7468e-05
5.7764e-05
6.37209e-05
6.66808e-05
6.72072e-05
6.54707e-05
5.63542e-06
2.98387e-05
4.74361e-05
5.77405e-05
6.37078e-05
6.66786e-05
6.72158e-05
6.54886e-05
5.63521e-06
2.97643e-05
4.73652e-05
5.76891e-05
6.3677e-05
6.66667e-05
6.72198e-05
6.5505e-05
5.63652e-06
2.98196e-05
4.74151e-05
5.77241e-05
6.36976e-05
6.66738e-05
6.72147e-05
6.54896e-05
5.63646e-06
2.98329e-05
4.74288e-05
5.77339e-05
6.37033e-05
6.66765e-05
6.72158e-05
6.54903e-05
5.63959e-06
2.98711e-05
4.74685e-05
5.77637e-05
6.37205e-05
6.66797e-05
6.72046e-05
6.54657e-05
5.63579e-06
2.9842e-05
4.74376e-05
5.77404e-05
6.37071e-05
6.6678e-05
6.72155e-05
6.54888e-05
5.63622e-06
2.98497e-05
4.74448e-05
5.77458e-05
6.37102e-05
6.66781e-05
6.7212e-05
6.54814e-05
5.6336e-06
2.98298e-05