/*--------------------------------*- C++ -*----------------------------------*\
| =========                 |                                                 |
| \\      /  F ield         | OpenFOAM: The Open Source CFD Toolbox           |
|  \\    /   O peration     | Version:  plus.master.MPPICInterFoam            |
|   \\  /    A nd           | Web:      www.OpenFOAM.com                      |
|    \\/     M anipulation  |                                                 |
\*---------------------------------------------------------------------------*/
FoamFile
{
    version     2.0;
    format      ascii;
    class       volScalarField;
    location    "8.8";
    object      epsilon;
}
// * * * * * * * * * * * * * * * * * * * * * * * * * * * * * * * * * * * * * //

dimensions      [0 2 -3 0 0 0 0];

internalField   nonuniform List<scalar> 
11821
(
4.93131e-05
1.57136e-05
1.08119e-05
9.68603e-06
9.40045e-06
9.32523e-06
9.26334e-06
9.1567e-06
4.96244e-05
1.58191e-05
1.08751e-05
9.74308e-06
9.46049e-06
9.39019e-06
9.33193e-06
9.22556e-06
4.9812e-05
1.58796e-05
1.09196e-05
9.78855e-06
9.51073e-06
9.44539e-06
9.3905e-06
9.28458e-06
4.9845e-05
1.59009e-05
1.09449e-05
9.81807e-06
9.54407e-06
9.48167e-06
9.42842e-06
9.32227e-06
4.96974e-05
1.58595e-05
1.09394e-05
9.82373e-06
9.55322e-06
9.49122e-06
9.43709e-06
9.32961e-06
4.93671e-05
1.57534e-05
1.08995e-05
9.80246e-06
9.53568e-06
9.47214e-06
9.41523e-06
9.30591e-06
4.88847e-05
1.55476e-05
1.08137e-05
9.75255e-06
9.49409e-06
9.42932e-06
9.36904e-06
9.25836e-06
4.93409e-05
1.58337e-05
1.09878e-05
9.91164e-06
9.67008e-06
9.62965e-06
9.58816e-06
9.48162e-06
4.96907e-05
1.59444e-05
1.10677e-05
9.99406e-06
9.76216e-06
9.73177e-06
9.69739e-06
9.59245e-06
4.99179e-05
1.60105e-05
1.11263e-05
1.00609e-05
9.8395e-06
9.81869e-06
9.79098e-06
9.68806e-06
4.99816e-05
1.60325e-05
1.11584e-05
1.01023e-05
9.88872e-06
9.87406e-06
9.85043e-06
9.74867e-06
4.9853e-05
1.5989e-05
1.11516e-05
1.01077e-05
9.8984e-06
9.88491e-06
9.86117e-06
9.7588e-06
4.95309e-05
1.58822e-05
1.11043e-05
1.00747e-05
9.86618e-06
9.84916e-06
9.82162e-06
9.71741e-06
4.90505e-05
1.5686e-05
1.10101e-05
1.00054e-05
9.79763e-06
9.77413e-06
9.74006e-06
9.6336e-06
4.95152e-05
1.60229e-05
1.1255e-05
1.02524e-05
1.00768e-05
1.00898e-05
1.00819e-05
9.98063e-06
4.99235e-05
1.615e-05
1.13634e-05
1.03737e-05
1.02163e-05
1.02462e-05
1.02504e-05
1.01531e-05
5.02077e-05
1.62318e-05
1.1447e-05
1.0474e-05
1.03345e-05
1.03801e-05
1.03957e-05
1.03029e-05
5.03155e-05
1.6263e-05
1.14943e-05
1.05361e-05
1.04091e-05
1.0465e-05
1.0488e-05
1.03984e-05
5.0212e-05
1.62232e-05
1.14904e-05
1.05448e-05
1.04226e-05
1.04806e-05
1.05043e-05
1.04151e-05
4.98957e-05
1.61158e-05
1.14343e-05
1.04974e-05
1.03722e-05
1.04239e-05
1.04423e-05
1.03509e-05
4.94084e-05
1.5924e-05
1.1327e-05
1.04012e-05
1.02674e-05
1.03063e-05
1.03141e-05
1.02187e-05
4.98675e-05
1.63167e-05
1.16545e-05
1.07559e-05
1.06752e-05
1.07666e-05
1.08109e-05
1.07239e-05
5.03588e-05
1.64754e-05
1.18078e-05
1.09341e-05
1.08823e-05
1.09996e-05
1.10626e-05
1.09831e-05
5.07223e-05
1.6587e-05
1.19314e-05
1.10844e-05
1.10594e-05
1.12005e-05
1.12811e-05
1.121e-05
5.08901e-05
1.66388e-05
1.20052e-05
1.11786e-05
1.11718e-05
1.13284e-05
1.14209e-05
1.13559e-05
5.08183e-05
1.66087e-05
1.2009e-05
1.1195e-05
1.11934e-05
1.13531e-05
1.14477e-05
1.13841e-05
5.05025e-05
1.6499e-05
1.19419e-05
1.11293e-05
1.11197e-05
1.12701e-05
1.13576e-05
1.12912e-05
4.99938e-05
1.63116e-05
1.18114e-05
1.09936e-05
1.09656e-05
1.1096e-05
1.11679e-05
1.1095e-05
5.04501e-05
1.67628e-05
1.22406e-05
1.14837e-05
1.15346e-05
1.17369e-05
1.18584e-05
1.17995e-05
5.10561e-05
1.69741e-05
1.24608e-05
1.17426e-05
1.18348e-05
1.2074e-05
1.22227e-05
1.21761e-05
5.15286e-05
1.71357e-05
1.26449e-05
1.19641e-05
1.20935e-05
1.23665e-05
1.25411e-05
1.25079e-05
5.1778e-05
1.72243e-05
1.27612e-05
1.21049e-05
1.22588e-05
1.25543e-05
1.27465e-05
1.27232e-05
5.17458e-05
1.72137e-05
1.27801e-05
1.2133e-05
1.22933e-05
1.25938e-05
1.27901e-05
1.27695e-05
5.14221e-05
1.71055e-05
1.26955e-05
1.20422e-05
1.219e-05
1.24782e-05
1.26654e-05
1.26413e-05
5.08681e-05
1.69056e-05
1.25221e-05
1.1851e-05
1.19707e-05
1.22308e-05
1.23965e-05
1.23627e-05
5.13416e-05
1.74251e-05
1.3083e-05
1.2513e-05
1.27399e-05
1.30937e-05
1.33248e-05
1.33132e-05
5.21057e-05
1.77181e-05
1.34002e-05
1.28811e-05
1.31631e-05
1.35671e-05
1.38356e-05
1.38421e-05
5.27284e-05
1.79621e-05
1.36726e-05
1.3198e-05
1.35299e-05
1.39802e-05
1.42845e-05
1.43106e-05
5.30892e-05
1.81222e-05
1.38459e-05
1.34008e-05
1.37659e-05
1.42474e-05
1.45764e-05
1.46169e-05
5.31059e-05
1.8146e-05
1.38811e-05
1.34454e-05
1.38193e-05
1.43088e-05
1.46444e-05
1.46893e-05
5.27584e-05
1.80205e-05
1.37693e-05
1.33222e-05
1.36799e-05
1.4154e-05
1.44786e-05
1.45195e-05
5.21236e-05
1.77675e-05
1.35333e-05
1.30577e-05
1.33768e-05
1.38141e-05
1.41109e-05
1.41388e-05
5.26574e-05
1.83886e-05
1.42715e-05
1.39348e-05
1.43903e-05
1.49456e-05
1.53263e-05
1.53873e-05
5.36399e-05
1.88145e-05
1.47176e-05
1.44429e-05
1.49698e-05
1.55903e-05
1.60196e-05
1.61048e-05
5.44686e-05
1.91915e-05
1.51013e-05
1.4882e-05
1.5474e-05
1.61551e-05
1.66313e-05
1.67426e-05
5.49716e-05
1.94294e-05
1.53465e-05
1.51646e-05
1.58004e-05
1.65227e-05
1.70313e-05
1.71621e-05
5.50423e-05
1.94751e-05
1.54015e-05
1.52315e-05
1.58799e-05
1.66139e-05
1.71323e-05
1.72697e-05
5.46511e-05
1.93163e-05
1.52539e-05
1.5069e-05
1.56976e-05
1.64138e-05
1.692e-05
1.70532e-05
5.38942e-05
1.89859e-05
1.49354e-05
1.47118e-05
1.52914e-05
1.59619e-05
1.64342e-05
1.65513e-05
5.4562e-05
1.97804e-05
1.59023e-05
1.58514e-05
1.6598e-05
1.74136e-05
1.79914e-05
1.81559e-05
5.58373e-05
2.03862e-05
1.65084e-05
1.65324e-05
1.73676e-05
1.82637e-05
1.89009e-05
1.90951e-05
5.69292e-05
2.09048e-05
1.703e-05
1.71223e-05
1.80388e-05
1.90102e-05
1.97052e-05
1.99322e-05
5.76128e-05
2.1233e-05
1.73644e-05
1.75036e-05
1.84754e-05
1.94983e-05
2.02338e-05
2.0485e-05
5.77486e-05
2.13046e-05
1.74447e-05
1.75995e-05
1.85886e-05
1.96277e-05
2.03765e-05
2.06368e-05
5.72915e-05
2.11023e-05
1.72537e-05
1.73912e-05
1.83581e-05
1.93779e-05
2.01143e-05
2.03712e-05
5.63626e-05
2.06703e-05
1.68324e-05
1.69223e-05
1.78305e-05
1.87966e-05
1.9494e-05
1.97327e-05
5.72657e-05
2.17196e-05
1.80818e-05
1.8376e-05
1.94841e-05
2.06265e-05
2.14558e-05
2.1761e-05
5.89125e-05
2.25256e-05
1.88798e-05
1.92614e-05
2.04738e-05
2.17099e-05
2.26073e-05
2.29459e-05
6.03437e-05
2.32176e-05
1.95679e-05
2.00297e-05
2.13383e-05
2.26627e-05
2.36271e-05
2.40036e-05
6.12576e-05
2.36584e-05
2.00102e-05
2.05275e-05
2.19023e-05
2.32879e-05
2.42997e-05
2.47045e-05
6.14734e-05
2.37633e-05
2.01225e-05
2.06594e-05
2.20566e-05
2.34633e-05
2.44923e-05
2.4909e-05
6.09246e-05
2.35075e-05
1.98812e-05
2.04003e-05
2.17746e-05
2.31622e-05
2.41802e-05
2.45956e-05
5.97632e-05
2.29478e-05
1.93377e-05
1.98031e-05
2.11112e-05
2.24395e-05
2.34156e-05
2.38123e-05
6.10211e-05
2.43168e-05
2.09261e-05
2.16282e-05
2.31735e-05
2.47153e-05
2.58569e-05
2.63467e-05
6.31395e-05
2.53641e-05
2.19471e-05
2.27437e-05
2.44043e-05
2.60484e-05
2.72624e-05
2.77863e-05
6.50045e-05
2.62679e-05
2.28292e-05
2.37129e-05
2.54804e-05
2.72216e-05
2.85082e-05
2.90724e-05
6.62076e-05
2.68449e-05
2.33962e-05
2.43411e-05
2.61836e-05
2.79937e-05
2.93328e-05
2.99282e-05
6.65212e-05
2.69907e-05
2.35465e-05
2.4515e-05
2.63852e-05
2.82215e-05
2.95819e-05
3.01921e-05
6.58504e-05
2.66718e-05
2.32501e-05
2.4203e-05
2.6052e-05
2.78718e-05
2.92246e-05
2.98373e-05
6.43853e-05
2.59588e-05
2.25682e-05
2.34662e-05
2.52455e-05
2.70039e-05
2.83149e-05
2.89107e-05
6.61485e-05
2.77183e-05
2.45587e-05
2.57292e-05
2.77904e-05
2.98097e-05
3.13315e-05
3.20583e-05
6.88561e-05
2.90486e-05
2.58272e-05
2.70898e-05
2.92691e-05
3.13917e-05
3.2984e-05
3.37408e-05
7.12748e-05
3.02026e-05
2.69258e-05
2.82735e-05
3.05627e-05
3.27846e-05
3.44498e-05
3.52463e-05
7.28376e-05
3.09367e-05
2.7629e-05
2.90394e-05
3.14091e-05
3.37046e-05
3.54248e-05
3.62535e-05
7.32696e-05
3.11303e-05
2.78222e-05
2.92597e-05
3.16625e-05
3.39895e-05
3.57354e-05
3.65821e-05
7.24397e-05
3.07401e-05
2.74683e-05
2.88959e-05
3.12826e-05
3.35986e-05
3.53429e-05
3.61979e-05
7.05842e-05
2.98515e-05
2.66384e-05
2.80165e-05
3.03353e-05
3.25924e-05
3.42987e-05
3.51409e-05
7.30523e-05
3.20835e-05
2.91053e-05
3.07988e-05
3.3457e-05
3.60383e-05
3.80189e-05
3.90487e-05
7.65002e-05
3.3732e-05
3.06346e-05
3.24048e-05
3.51725e-05
3.78486e-05
3.98889e-05
4.09395e-05
7.96548e-05
3.51704e-05
3.1964e-05
3.38054e-05
3.66751e-05
3.94435e-05
4.15505e-05
4.26338e-05
8.16681e-05
3.60748e-05
3.28072e-05
3.47078e-05
3.76599e-05
4.05036e-05
4.26653e-05
4.37792e-05
8.22423e-05
3.63199e-05
3.3045e-05
3.49762e-05
3.79675e-05
4.08484e-05
4.30405e-05
4.41761e-05
8.12036e-05
3.58537e-05
3.26349e-05
3.45661e-05
3.75501e-05
4.04291e-05
4.26287e-05
4.37806e-05
7.88467e-05
3.47768e-05
3.16564e-05
3.35508e-05
3.64749e-05
3.93027e-05
4.14721e-05
4.26187e-05
8.23003e-05
3.75767e-05
3.46922e-05
3.69583e-05
4.02991e-05
4.354e-05
4.6073e-05
4.74851e-05
8.6623e-05
3.95624e-05
3.64809e-05
3.87937e-05
4.22222e-05
4.5536e-05
4.81111e-05
4.95305e-05
9.05154e-05
4.1305e-05
3.80463e-05
4.04022e-05
4.39103e-05
4.72981e-05
4.99242e-05
5.13662e-05
9.2894e-05
4.23739e-05
3.90219e-05
4.14301e-05
4.50208e-05
4.84831e-05
5.11592e-05
5.26244e-05
9.35795e-05
4.26671e-05
3.9302e-05
4.17455e-05
4.53833e-05
4.88899e-05
5.16017e-05
5.30922e-05
9.23698e-05
4.21278e-05
3.8841e-05
4.12987e-05
4.49424e-05
4.84602e-05
5.11917e-05
5.27096e-05
8.9595e-05
4.08691e-05
3.77238e-05
4.0164e-05
4.37626e-05
4.72427e-05
4.99566e-05
5.14798e-05
9.41083e-05
4.43438e-05
4.14486e-05
4.43396e-05
4.84639e-05
5.24786e-05
5.56763e-05
5.75693e-05
9.91192e-05
4.6652e-05
4.34794e-05
4.63733e-05
5.05464e-05
5.46034e-05
5.78181e-05
5.96996e-05
0.000103694
4.87029e-05
4.52788e-05
4.81715e-05
5.23817e-05
5.64798e-05
5.97257e-05
6.16158e-05
0.000106329
4.99108e-05
4.63662e-05
4.93048e-05
5.36004e-05
5.77685e-05
6.10527e-05
6.29547e-05
0.000107085
5.02407e-05
4.66804e-05
4.96627e-05
5.40175e-05
5.82395e-05
6.15644e-05
6.34938e-05
0.000105732
4.96361e-05
4.61775e-05
4.91926e-05
5.35718e-05
5.78224e-05
6.11831e-05
6.31543e-05
0.000102639
4.82176e-05
4.49421e-05
4.7965e-05
5.23205e-05
5.65528e-05
5.99133e-05
6.19045e-05
4.54206e-05
1.46531e-05
1.03045e-05
9.31396e-06
9.05492e-06
8.97348e-06
8.90288e-06
8.80158e-06
4.53304e-05
1.4568e-05
1.02617e-05
9.28958e-06
9.03916e-06
8.9626e-06
8.89719e-06
8.80493e-06
4.54191e-05
1.45682e-05
1.0276e-05
9.31976e-06
9.08448e-06
4.56168e-05
1.44599e-05
4.56899e-05
4.54553e-05
1.47096e-05
1.03821e-05
9.41184e-06
9.17076e-06
9.10312e-06
9.03954e-06
8.9355e-06
4.5347e-05
1.4632e-05
1.03407e-05
9.38549e-06
9.15129e-06
9.08745e-06
9.02791e-06
8.93109e-06
4.53933e-05
1.46298e-05
1.03448e-05
9.3973e-06
9.17091e-06
9.11508e-06
9.06328e-06
8.97192e-06
4.55028e-05
1.45337e-05
1.03058e-05
9.39319e-06
9.19036e-06
9.15528e-06
9.1295e-06
9.08106e-06
4.55867e-05
1.46323e-05
1.03371e-05
9.39126e-06
9.16764e-06
9.11483e-06
9.06627e-06
8.9794e-06
4.57358e-05
1.4677e-05
1.03543e-05
9.39536e-06
9.16208e-06
9.10029e-06
9.0425e-06
8.94635e-06
4.59671e-05
1.47809e-05
1.04038e-05
9.42345e-06
9.18071e-06
9.1143e-06
9.05249e-06
8.94916e-06
4.5577e-05
1.48068e-05
1.05088e-05
9.57011e-06
9.35821e-06
9.31402e-06
9.26407e-06
9.15906e-06
4.54597e-05
1.47354e-05
1.04682e-05
9.5418e-06
9.33566e-06
9.29505e-06
9.24907e-06
9.15067e-06
4.54704e-05
1.47293e-05
1.04655e-05
9.54332e-06
9.34204e-06
9.30674e-06
9.26582e-06
9.17054e-06
4.55321e-05
1.46509e-05
1.04279e-05
9.52897e-06
9.34121e-06
9.31603e-06
9.28772e-06
9.21553e-06
4.56102e-05
1.47275e-05
1.04557e-05
9.53421e-06
9.33417e-06
9.30023e-06
9.26095e-06
9.16817e-06
4.57483e-05
1.47622e-05
1.04698e-05
9.53977e-06
9.33373e-06
9.29423e-06
9.2493e-06
9.15124e-06
4.59635e-05
1.48578e-05
1.05158e-05
9.56742e-06
9.35387e-06
9.31105e-06
9.26327e-06
9.15965e-06
4.57924e-05
1.49611e-05
1.07064e-05
9.81579e-06
9.64961e-06
9.64359e-06
9.61807e-06
9.51645e-06
4.56687e-05
1.48933e-05
1.06648e-05
9.78438e-06
9.62353e-06
9.6216e-06
9.60092e-06
9.50643e-06
4.56495e-05
1.4882e-05
1.06566e-05
9.7794e-06
9.6227e-06
9.62588e-06
9.61045e-06
9.51957e-06
4.56817e-05
1.48194e-05
1.06229e-05
9.76093e-06
9.61165e-06
9.61898e-06
9.60873e-06
9.52994e-06
4.57432e-05
1.48755e-05
1.06436e-05
9.76597e-06
9.60904e-06
9.61195e-06
9.59647e-06
9.50635e-06
4.58648e-05
1.49022e-05
1.06541e-05
9.76995e-06
9.60811e-06
9.60613e-06
9.58556e-06
9.49089e-06
4.60611e-05
1.49963e-05
1.06973e-05
9.7968e-06
9.62864e-06
9.6239e-06
9.60085e-06
9.50138e-06
4.61216e-05
1.51973e-05
1.10059e-05
1.01869e-05
1.00902e-05
1.01441e-05
1.01599e-05
1.00703e-05
4.59893e-05
1.51292e-05
1.09606e-05
1.01506e-05
1.00597e-05
1.01192e-05
1.01419e-05
1.00612e-05
4.59445e-05
1.51113e-05
1.09471e-05
1.01406e-05
1.00547e-05
1.01208e-05
1.01507e-05
1.00759e-05
4.59559e-05
1.50611e-05
1.0917e-05
1.01202e-05
1.00378e-05
1.01045e-05
1.01353e-05
1.00661e-05
4.59957e-05
1.50992e-05
1.09296e-05
1.01212e-05
1.00334e-05
1.00972e-05
1.01251e-05
1.00492e-05
4.60987e-05
1.51199e-05
1.09366e-05
1.0122e-05
1.00286e-05
1.00864e-05
1.01078e-05
1.00261e-05
4.62761e-05
1.52124e-05
1.09773e-05
1.01482e-05
1.00491e-05
1.0104e-05
1.01225e-05
1.00358e-05
4.66004e-05
1.55507e-05
1.14501e-05
1.07348e-05
1.0741e-05
1.08859e-05
1.0968e-05
1.09051e-05
4.64547e-05
1.54779e-05
1.13979e-05
1.06914e-05
1.07051e-05
1.08586e-05
1.09515e-05
1.0901e-05
4.63869e-05
1.54521e-05
1.13783e-05
1.06768e-05
1.06974e-05
1.08602e-05
1.09637e-05
1.0923e-05
4.6381e-05
1.54102e-05
1.13504e-05
1.06547e-05
1.06765e-05
1.08379e-05
1.09398e-05
1.09008e-05
4.63986e-05
1.54333e-05
1.13548e-05
1.06498e-05
1.06663e-05
1.08246e-05
1.09235e-05
1.08795e-05
4.64827e-05
1.54493e-05
1.13585e-05
1.06463e-05
1.06553e-05
1.08049e-05
1.08945e-05
1.08417e-05
4.66412e-05
1.55343e-05
1.1397e-05
1.06722e-05
1.06756e-05
1.08214e-05
1.09066e-05
1.08477e-05
4.72865e-05
1.60707e-05
1.2096e-05
1.15273e-05
1.16817e-05
1.19604e-05
1.21444e-05
1.21311e-05
4.71201e-05
1.59876e-05
1.20329e-05
1.14743e-05
1.16395e-05
1.1932e-05
1.21328e-05
1.2138e-05
4.703e-05
1.59525e-05
1.20064e-05
1.1455e-05
1.16304e-05
1.19363e-05
1.21528e-05
1.21731e-05
4.70076e-05
1.59151e-05
1.19791e-05
1.14311e-05
1.16062e-05
1.19098e-05
1.21236e-05
1.21432e-05
4.70048e-05
1.59261e-05
1.19758e-05
1.14189e-05
1.15875e-05
1.18861e-05
1.20952e-05
1.21092e-05
4.70715e-05
1.59388e-05
1.19764e-05
1.14105e-05
1.15685e-05
1.18544e-05
1.20497e-05
1.20507e-05
4.72126e-05
1.60107e-05
1.20137e-05
1.14372e-05
1.15889e-05
1.18691e-05
1.20575e-05
1.20498e-05
4.82677e-05
1.68245e-05
1.30185e-05
1.26519e-05
1.30141e-05
1.34837e-05
1.38179e-05
1.38872e-05
4.80704e-05
1.67247e-05
1.29399e-05
1.25866e-05
1.29652e-05
1.34563e-05
1.38163e-05
1.3913e-05
4.79562e-05
1.66783e-05
1.29053e-05
1.25627e-05
1.29561e-05
1.34668e-05
1.38494e-05
1.39683e-05
4.79174e-05
1.66424e-05
1.28771e-05
1.25366e-05
1.29295e-05
1.3438e-05
1.38179e-05
1.39355e-05
4.78975e-05
1.6644e-05
1.2867e-05
1.25168e-05
1.29009e-05
1.34012e-05
1.37733e-05
1.38828e-05
4.795e-05
1.66549e-05
1.28653e-05
1.25033e-05
1.28726e-05
1.33551e-05
1.37076e-05
1.37983e-05
4.80787e-05
1.67147e-05
1.29042e-05
1.25329e-05
1.28943e-05
1.33678e-05
1.37097e-05
1.37879e-05
4.9674e-05
1.79019e-05
1.43138e-05
1.42192e-05
1.48654e-05
1.55994e-05
1.61467e-05
1.63433e-05
4.94312e-05
1.77773e-05
1.42142e-05
1.41385e-05
1.48095e-05
1.55762e-05
1.61617e-05
1.63979e-05
4.92883e-05
1.7717e-05
1.41701e-05
1.41101e-05
1.48028e-05
1.55973e-05
1.62147e-05
1.64825e-05
4.9233e-05
1.76804e-05
1.41404e-05
1.40826e-05
1.47756e-05
1.55694e-05
1.61856e-05
1.64527e-05
4.92011e-05
1.76757e-05
1.41252e-05
1.40562e-05
1.47375e-05
1.55193e-05
1.61236e-05
1.63791e-05
4.92458e-05
1.76875e-05
1.41233e-05
1.40389e-05
1.47004e-05
1.54582e-05
1.60361e-05
1.62657e-05
4.93742e-05
1.77495e-05
1.41689e-05
1.40749e-05
1.47258e-05
1.54704e-05
1.60323e-05
1.62439e-05
5.16916e-05
1.94198e-05
1.61026e-05
1.63649e-05
1.73898e-05
1.84801e-05
1.93194e-05
1.97007e-05
5.13824e-05
1.92604e-05
1.59755e-05
1.62653e-05
1.73269e-05
1.84645e-05
1.93581e-05
1.97946e-05
5.12023e-05
1.91828e-05
1.59206e-05
1.62333e-05
1.73258e-05
1.85023e-05
1.94398e-05
1.99195e-05
5.11313e-05
1.91446e-05
1.58902e-05
1.62067e-05
1.73022e-05
1.84813e-05
1.94209e-05
1.99025e-05
5.10955e-05
1.91377e-05
1.58732e-05
1.61771e-05
1.7258e-05
1.84215e-05
1.93452e-05
1.98111e-05
5.11438e-05
1.91552e-05
1.58751e-05
1.61599e-05
1.72156e-05
1.83484e-05
1.92381e-05
1.96704e-05
5.12892e-05
1.92307e-05
1.59347e-05
1.62081e-05
1.72495e-05
1.83636e-05
1.92308e-05
1.96381e-05
5.45786e-05
2.1527e-05
1.85329e-05
1.92521e-05
2.07693e-05
2.23264e-05
2.35532e-05
2.41903e-05
5.4173e-05
2.13203e-05
1.83703e-05
1.91293e-05
2.06987e-05
2.23214e-05
2.3622e-05
2.4333e-05
5.39431e-05
2.12213e-05
1.83033e-05
1.9095e-05
2.07074e-05
2.23831e-05
2.37423e-05
2.45101e-05
5.38593e-05
2.11823e-05
1.82751e-05
1.90745e-05
2.06949e-05
2.23788e-05
2.37459e-05
2.45204e-05
5.3833e-05
2.11798e-05
1.82628e-05
1.90488e-05
2.0653e-05
2.23191e-05
2.36673e-05
2.44228e-05
5.39035e-05
2.1211e-05
1.8276e-05
1.90395e-05
2.06136e-05
2.22427e-05
2.35496e-05
2.42633e-05
5.40905e-05
2.13119e-05
1.83592e-05
1.91087e-05
2.0664e-05
2.22682e-05
2.35449e-05
2.42253e-05
5.86807e-05
2.4409e-05
2.17811e-05
2.307e-05
2.52111e-05
2.73641e-05
2.90905e-05
3.00685e-05
5.81369e-05
2.41392e-05
2.15735e-05
2.29183e-05
2.51305e-05
2.73704e-05
2.91929e-05
3.0266e-05
5.78396e-05
2.40138e-05
2.14932e-05
2.28838e-05
2.5154e-05
2.74635e-05
2.93611e-05
3.05062e-05
5.77504e-05
2.39781e-05
2.14734e-05
2.28782e-05
2.51642e-05
2.74904e-05
2.94045e-05
3.05637e-05
5.77557e-05
2.39903e-05
2.14762e-05
2.28685e-05
2.51393e-05
2.74481e-05
2.93427e-05
3.04808e-05
5.78779e-05
2.40478e-05
2.15128e-05
2.28804e-05
2.51178e-05
2.73848e-05
2.92319e-05
3.03206e-05
5.81431e-05
2.41901e-05
2.16329e-05
2.29831e-05
2.51969e-05
2.74321e-05
2.92408e-05
3.02872e-05
6.44527e-05
2.82911e-05
2.60523e-05
2.80326e-05
3.09453e-05
3.38403e-05
3.61947e-05
3.76144e-05
6.37126e-05
2.79391e-05
2.57881e-05
2.78442e-05
3.08492e-05
3.38544e-05
3.63289e-05
3.78661e-05
6.33253e-05
2.77821e-05
2.5694e-05
2.78116e-05
3.08917e-05
3.39843e-05
3.65515e-05
3.81771e-05
6.32461e-05
2.77581e-05
2.56931e-05
2.78339e-05
3.09401e-05
3.40607e-05
3.66556e-05
3.83043e-05
6.33173e-05
2.78005e-05
2.57259e-05
2.78578e-05
3.09536e-05
3.40611e-05
3.6639e-05
3.82667e-05
6.3535e-05
2.79022e-05
2.58031e-05
2.79102e-05
3.0972e-05
3.40355e-05
3.65616e-05
3.81337e-05
6.39324e-05
2.81077e-05
2.59779e-05
2.80633e-05
3.10963e-05
3.41212e-05
3.66006e-05
3.81209e-05
7.25007e-05
3.34421e-05
3.15799e-05
3.43774e-05
3.82229e-05
4.20229e-05
4.51522e-05
4.71329e-05
7.14831e-05
3.2985e-05
3.12455e-05
3.41412e-05
3.81013e-05
4.20352e-05
4.53084e-05
4.74287e-05
7.09765e-05
3.2792e-05
3.11379e-05
3.41126e-05
3.81647e-05
4.22032e-05
4.55867e-05
4.78115e-05
7.09365e-05
3.27946e-05
3.11714e-05
3.41796e-05
3.8269e-05
4.23477e-05
4.57709e-05
4.80287e-05
7.11242e-05
3.28881e-05
3.12532e-05
3.42583e-05
3.83467e-05
4.24213e-05
4.58331e-05
4.80718e-05
7.14969e-05
3.3057e-05
3.13921e-05
3.43753e-05
3.84331e-05
4.24649e-05
4.58232e-05
4.80019e-05
7.21055e-05
3.33538e-05
3.16434e-05
3.4599e-05
3.86223e-05
4.26089e-05
4.59125e-05
4.80305e-05
4.7201e-05
4.76115e-05
1.51829e-05
4.80571e-05
1.5335e-05
1.06053e-05
9.51323e-06
9.2266e-06
4.84972e-05
1.54427e-05
1.06642e-05
9.56403e-06
9.27841e-06
9.1967e-06
9.12979e-06
9.02439e-06
4.89259e-05
1.55981e-05
1.07456e-05
9.62771e-06
9.33992e-06
9.26038e-06
9.19541e-06
9.08895e-06
4.62892e-05
1.49238e-05
1.04665e-05
9.45811e-06
9.20436e-06
9.13299e-06
9.06814e-06
8.9618e-06
4.66723e-05
1.50641e-05
1.05301e-05
9.49744e-06
9.2358e-06
9.16255e-06
9.09769e-06
8.99106e-06
4.70868e-05
1.51881e-05
1.05934e-05
9.54493e-06
9.28022e-06
9.20777e-06
9.14391e-06
9.03641e-06
4.75211e-05
1.52695e-05
1.06417e-05
9.59271e-06
9.33287e-06
9.26599e-06
9.20624e-06
9.10026e-06
4.79868e-05
1.54254e-05
1.07287e-05
9.66607e-06
9.40703e-06
9.34445e-06
9.28785e-06
9.18092e-06
4.84542e-05
1.55492e-05
1.08066e-05
9.74025e-06
9.48645e-06
9.4304e-06
9.3782e-06
9.27135e-06
4.89144e-05
1.57083e-05
1.0903e-05
9.82718e-06
9.57732e-06
9.52787e-06
9.4803e-06
9.37307e-06
4.62733e-05
1.49982e-05
1.05799e-05
9.60621e-06
9.38365e-06
9.3374e-06
9.28757e-06
9.1814e-06
4.66488e-05
1.51429e-05
1.06525e-05
9.65748e-06
9.42938e-06
9.38298e-06
9.33411e-06
9.22762e-06
4.70689e-05
1.52788e-05
1.07303e-05
9.72287e-06
9.49473e-06
9.45165e-06
9.40548e-06
9.29858e-06
4.75267e-05
1.53919e-05
1.08059e-05
9.79807e-06
9.57706e-06
9.54191e-06
9.50131e-06
9.39564e-06
4.80195e-05
1.55587e-05
1.09133e-05
9.89899e-06
9.68441e-06
9.65803e-06
9.62364e-06
9.51821e-06
4.85258e-05
1.57051e-05
1.10186e-05
1.00067e-05
9.80336e-06
9.78841e-06
9.76161e-06
9.65712e-06
4.90351e-05
1.58785e-05
1.11407e-05
1.01289e-05
9.93706e-06
9.9346e-06
9.91626e-06
9.81268e-06
4.63557e-05
1.51295e-05
1.07633e-05
9.84083e-06
9.66598e-06
9.65933e-06
9.63504e-06
9.53312e-06
4.67252e-05
1.52781e-05
1.08464e-05
9.90692e-06
9.72977e-06
9.72544e-06
9.70362e-06
9.60165e-06
4.71556e-05
1.54282e-05
1.09436e-05
9.9964e-06
9.82351e-06
9.82609e-06
9.80944e-06
9.70795e-06
4.7642e-05
1.5573e-05
1.10511e-05
1.01071e-05
9.94591e-06
9.96053e-06
9.95222e-06
9.85256e-06
4.81751e-05
1.57612e-05
1.11896e-05
1.02477e-05
1.01004e-05
1.013e-05
1.01321e-05
1.00345e-05
4.87367e-05
1.59402e-05
1.1334e-05
1.04029e-05
1.02747e-05
1.03223e-05
1.03366e-05
1.02417e-05
4.93132e-05
1.61397e-05
1.14953e-05
1.05757e-05
1.04687e-05
1.05364e-05
1.05643e-05
1.04724e-05
4.65555e-05
1.53394e-05
1.10462e-05
1.01993e-05
1.00962e-05
1.01507e-05
1.01686e-05
1.00793e-05
4.69226e-05
1.54943e-05
1.11435e-05
1.02847e-05
1.01834e-05
1.02435e-05
1.02659e-05
1.01771e-05
4.7371e-05
1.56639e-05
1.12669e-05
1.04066e-05
1.03153e-05
1.0387e-05
1.04179e-05
1.03309e-05
4.78975e-05
1.58451e-05
1.14148e-05
1.05642e-05
1.04913e-05
1.0581e-05
1.06242e-05
1.05406e-05
4.84887e-05
1.60676e-05
1.15982e-05
1.07602e-05
1.07107e-05
1.08231e-05
1.08825e-05
1.08035e-05
4.91271e-05
1.62921e-05
1.1797e-05
1.09803e-05
1.09599e-05
1.10989e-05
1.11765e-05
1.11029e-05
4.97908e-05
1.65339e-05
1.20157e-05
1.12243e-05
1.12366e-05
1.1405e-05
1.15027e-05
1.14351e-05
4.69082e-05
1.56604e-05
1.14707e-05
1.07332e-05
1.07356e-05
1.08823e-05
1.09672e-05
1.09051e-05
4.72798e-05
1.58266e-05
1.15873e-05
1.08439e-05
1.08531e-05
1.10092e-05
1.11011e-05
1.10403e-05
4.77576e-05
1.60237e-05
1.17462e-05
1.10089e-05
1.1035e-05
1.12086e-05
1.1313e-05
1.12558e-05
4.83414e-05
1.6251e-05
1.1947e-05
1.12282e-05
1.12815e-05
1.14805e-05
1.16025e-05
1.1551e-05
4.90144e-05
1.65242e-05
1.2193e-05
1.1499e-05
1.15869e-05
1.1818e-05
1.1963e-05
1.19195e-05
4.97548e-05
1.68105e-05
1.24652e-05
1.18057e-05
1.19349e-05
1.22027e-05
1.23732e-05
1.2339e-05
5.05369e-05
1.71184e-05
1.27657e-05
1.21462e-05
1.23211e-05
1.26291e-05
1.28274e-05
1.28027e-05
4.74723e-05
1.61399e-05
1.20948e-05
1.15123e-05
1.16656e-05
1.19476e-05
1.21354e-05
1.21236e-05
4.78576e-05
1.63245e-05
1.22377e-05
1.16558e-05
1.18219e-05
1.21173e-05
1.23145e-05
1.23048e-05
4.8381e-05
1.65604e-05
1.24438e-05
1.18768e-05
1.20678e-05
1.2387e-05
1.2601e-05
1.25969e-05
4.90461e-05
1.68486e-05
1.27139e-05
1.21759e-05
1.24042e-05
1.27572e-05
1.29949e-05
1.29991e-05
4.9832e-05
1.71919e-05
1.30429e-05
1.25434e-05
1.28188e-05
1.32146e-05
1.3483e-05
1.34994e-05
5.07064e-05
1.75636e-05
1.34141e-05
1.29633e-05
1.32929e-05
1.37368e-05
1.40392e-05
1.4069e-05
5.16537e-05
1.79682e-05
1.38263e-05
1.34297e-05
1.38184e-05
1.43143e-05
1.46527e-05
1.46957e-05
4.83382e-05
1.68456e-05
1.29999e-05
1.26276e-05
1.29924e-05
1.34679e-05
1.38082e-05
1.38803e-05
4.87499e-05
1.70574e-05
1.31755e-05
1.28135e-05
1.31965e-05
1.36891e-05
1.40407e-05
1.41155e-05
4.93404e-05
1.73466e-05
1.34424e-05
1.31049e-05
1.35209e-05
1.40435e-05
1.4416e-05
1.44979e-05
5.01196e-05
1.77144e-05
1.3801e-05
1.35032e-05
1.39671e-05
1.45324e-05
1.49342e-05
1.50269e-05
5.10534e-05
1.81527e-05
1.42387e-05
1.39921e-05
1.45159e-05
1.51351e-05
1.55755e-05
1.56842e-05
5.21128e-05
1.86417e-05
1.47399e-05
1.4553e-05
1.51443e-05
1.58233e-05
1.6306e-05
1.64322e-05
5.32855e-05
1.91843e-05
1.5298e-05
1.51754e-05
1.58397e-05
1.65824e-05
1.71087e-05
1.72512e-05
4.96433e-05
1.78822e-05
1.42869e-05
1.41956e-05
1.48507e-05
1.55964e-05
1.61546e-05
1.63571e-05
5.00975e-05
1.81242e-05
1.45081e-05
1.44339e-05
1.51116e-05
1.58769e-05
1.64473e-05
1.66518e-05
5.0783e-05
1.84821e-05
1.48517e-05
1.48103e-05
1.55278e-05
1.63281e-05
1.6922e-05
1.71339e-05
5.17148e-05
1.89518e-05
1.53189e-05
1.53266e-05
1.61017e-05
1.69523e-05
1.75801e-05
1.78045e-05
5.28464e-05
1.95197e-05
1.58922e-05
1.59616e-05
1.68083e-05
1.77224e-05
1.8395e-05
1.86375e-05
5.41575e-05
2.01739e-05
1.65514e-05
1.66902e-05
1.76167e-05
1.8601e-05
1.93225e-05
1.95856e-05
5.56352e-05
2.09136e-05
1.72855e-05
1.74979e-05
1.85096e-05
1.95674e-05
2.03382e-05
2.06191e-05
5.15905e-05
1.93902e-05
1.60845e-05
1.6362e-05
1.7407e-05
1.852e-05
1.93797e-05
1.97733e-05
5.21097e-05
1.96752e-05
1.63629e-05
1.6662e-05
1.7732e-05
1.88651e-05
1.97356e-05
2.01282e-05
5.29239e-05
2.01168e-05
1.67982e-05
1.71351e-05
1.82491e-05
1.94195e-05
2.03135e-05
2.07117e-05
5.4053e-05
2.07172e-05
1.73934e-05
1.77857e-05
1.89638e-05
2.01884e-05
2.11181e-05
2.15282e-05
5.54509e-05
2.1457e-05
1.81264e-05
1.85868e-05
1.98448e-05
2.11392e-05
2.21157e-05
2.25443e-05
5.70878e-05
2.23131e-05
1.89699e-05
1.95052e-05
2.08515e-05
2.22226e-05
2.32515e-05
2.37006e-05
5.89475e-05
2.32724e-05
1.99081e-05
2.05221e-05
2.19616e-05
2.34118e-05
2.44921e-05
2.4958e-05
5.44509e-05
2.15146e-05
1.85511e-05
1.93039e-05
2.08604e-05
2.24591e-05
2.37225e-05
2.43825e-05
5.50699e-05
2.18693e-05
1.88981e-05
1.96727e-05
2.12534e-05
2.28691e-05
2.41383e-05
2.47915e-05
5.60531e-05
2.24191e-05
1.94365e-05
2.02489e-05
2.18735e-05
2.35243e-05
2.48124e-05
2.54655e-05
5.74314e-05
2.31727e-05
2.01747e-05
2.10424e-05
2.2731e-05
2.44351e-05
2.5756e-05
2.64168e-05
5.91592e-05
2.41052e-05
2.10847e-05
2.20203e-05
2.37906e-05
2.55634e-05
2.69293e-05
2.76059e-05
6.11938e-05
2.51848e-05
2.21312e-05
2.31406e-05
2.50007e-05
2.68503e-05
2.82659e-05
2.89613e-05
6.35239e-05
2.63957e-05
2.32948e-05
2.43802e-05
2.63341e-05
2.8262e-05
2.97253e-05
3.04333e-05
5.85961e-05
2.44509e-05
2.1878e-05
2.32281e-05
2.54381e-05
2.76611e-05
2.94481e-05
3.0465e-05
5.93499e-05
2.48904e-05
2.23017e-05
2.36692e-05
2.58975e-05
2.81295e-05
2.99125e-05
3.09127e-05
6.05388e-05
2.55628e-05
2.29481e-05
2.43469e-05
2.66122e-05
2.88702e-05
3.06613e-05
3.16509e-05
6.22177e-05
2.64866e-05
2.38343e-05
2.52783e-05
2.76003e-05
2.99029e-05
3.1717e-05
3.27055e-05
6.43395e-05
2.76317e-05
2.49276e-05
2.6429e-05
2.88235e-05
3.11869e-05
3.30377e-05
3.40357e-05
6.68494e-05
2.89583e-05
2.61846e-05
2.77473e-05
3.0223e-05
3.26543e-05
3.45478e-05
3.55594e-05
6.97479e-05
3.04493e-05
2.75835e-05
2.92076e-05
3.17678e-05
3.42673e-05
3.61999e-05
3.72181e-05
6.45223e-05
2.84436e-05
2.62878e-05
2.83665e-05
3.13878e-05
3.43906e-05
3.6837e-05
3.83163e-05
6.54481e-05
2.89797e-05
2.67922e-05
2.88776e-05
3.19053e-05
3.49028e-05
3.73298e-05
3.87778e-05
6.68753e-05
2.97808e-05
2.75429e-05
2.96444e-05
3.26932e-05
3.5699e-05
3.8116e-05
3.95373e-05
6.88997e-05
3.08805e-05
2.85667e-05
3.06936e-05
3.37812e-05
3.68134e-05
3.92361e-05
4.06426e-05
7.14788e-05
3.22457e-05
2.9833e-05
3.19919e-05
3.51334e-05
3.8209e-05
4.06536e-05
4.20597e-05
7.45417e-05
3.38287e-05
3.12904e-05
3.34842e-05
3.66867e-05
3.98139e-05
4.22882e-05
4.37005e-05
7.81404e-05
3.56133e-05
3.2917e-05
3.51441e-05
3.84091e-05
4.15877e-05
4.40878e-05
4.54986e-05
7.28918e-05
3.37835e-05
3.20296e-05
3.49681e-05
3.89686e-05
4.292e-05
4.61763e-05
4.82394e-05
7.40339e-05
3.44251e-05
3.26141e-05
3.55413e-05
3.95288e-05
4.34538e-05
4.66695e-05
4.86816e-05
7.57285e-05
3.53507e-05
3.34538e-05
3.63719e-05
4.03551e-05
4.42619e-05
4.7442e-05
4.94055e-05
7.81532e-05
3.66122e-05
3.45889e-05
3.75009e-05
4.14941e-05
4.54e-05
4.85615e-05
5.0492e-05
8.12704e-05
3.81837e-05
3.59948e-05
3.89031e-05
4.29202e-05
4.68435e-05
5.00067e-05
5.19244e-05
8.49697e-05
4.0007e-05
3.76196e-05
4.05242e-05
4.45732e-05
4.85242e-05
5.17e-05
5.36151e-05
8.92545e-05
4.20694e-05
3.94453e-05
4.23409e-05
4.6423e-05
5.04019e-05
5.35868e-05
5.54918e-05
4.83235e-05
1.53466e-05
1.0723e-05
9.69023e-06
9.43708e-06
9.37068e-06
9.3085e-06
9.19949e-06
4.77625e-05
1.51573e-05
1.06214e-05
9.61257e-06
9.36384e-06
9.2956e-06
9.23269e-06
9.13039e-06
4.72149e-05
1.50062e-05
1.05387e-05
9.55019e-06
9.311e-06
9.25041e-06
9.19691e-06
9.10761e-06
4.67547e-05
1.47969e-05
1.04331e-05
9.48205e-06
9.26108e-06
9.21486e-06
9.18284e-06
9.13483e-06
4.62003e-05
1.47919e-05
1.03935e-05
9.40304e-06
9.14982e-06
9.07353e-06
9.00661e-06
8.90831e-06
4.58362e-05
1.47029e-05
1.03316e-05
9.34033e-06
9.08136e-06
8.9993e-06
8.92867e-06
8.83049e-06
4.55603e-05
1.46952e-05
1.03242e-05
9.3259e-06
9.06273e-06
8.97835e-06
8.90515e-06
8.80125e-06
4.84821e-05
1.54971e-05
1.09084e-05
9.91786e-06
9.70603e-06
9.67417e-06
9.63354e-06
9.52638e-06
4.78997e-05
1.53025e-05
1.07882e-05
9.81047e-06
9.59369e-06
9.552e-06
9.50417e-06
9.39911e-06
4.73145e-05
1.51414e-05
1.06832e-05
9.71366e-06
9.49479e-06
9.44988e-06
9.40185e-06
9.30204e-06
4.68126e-05
1.49295e-05
1.05557e-05
9.60851e-06
9.39391e-06
9.34919e-06
9.30686e-06
9.22871e-06
4.62739e-05
1.48907e-05
1.05018e-05
9.52708e-06
9.28968e-06
9.22532e-06
9.1625e-06
9.0563e-06
4.59009e-05
1.47861e-05
1.04308e-05
9.4589e-06
9.21814e-06
9.14991e-06
9.08529e-06
8.98165e-06
4.56118e-05
1.47571e-05
1.04077e-05
9.43069e-06
9.18621e-06
9.11596e-06
9.04977e-06
8.94285e-06
4.88173e-05
1.57383e-05
1.12012e-05
1.02753e-05
1.01273e-05
1.01498e-05
1.01451e-05
1.00458e-05
4.81973e-05
1.55259e-05
1.10501e-05
1.0125e-05
9.96138e-06
9.96465e-06
9.94516e-06
9.8428e-06
4.75624e-05
1.53415e-05
1.09116e-05
9.98337e-06
9.8065e-06
9.79633e-06
9.76819e-06
9.66541e-06
4.70108e-05
1.51179e-05
1.07563e-05
9.83698e-06
9.65194e-06
9.63009e-06
9.59588e-06
9.50217e-06
4.64578e-05
1.50375e-05
1.06735e-05
9.73164e-06
9.52632e-06
9.48777e-06
9.43891e-06
9.32889e-06
4.6057e-05
1.49132e-05
1.05843e-05
9.64436e-06
9.43396e-06
9.38975e-06
9.33786e-06
9.23029e-06