/*--------------------------------*- C++ -*----------------------------------*\
| =========                 |                                                 |
| \\      /  F ield         | OpenFOAM: The Open Source CFD Toolbox           |
|  \\    /   O peration     | Version:  plus.master.MPPICInterFoam            |
|   \\  /    A nd           | Web:      www.OpenFOAM.com                      |
|    \\/     M anipulation  |                                                 |
\*---------------------------------------------------------------------------*/
FoamFile
{
    version     2.0;
    format      ascii;
    class       volScalarField;
    location    "2.2";
    object      nut;
}
// * * * * * * * * * * * * * * * * * * * * * * * * * * * * * * * * * * * * * //

dimensions      [0 2 -1 0 0 0 0];

internalField   nonuniform List<scalar> 
11821
(
9.37939e-05
0.000100145
6.68817e-05
9.9547e-05
6.88466e-05
4.09164e-05
6.14448e-05
7.80587e-05
8.43316e-05
7.03201e-05
5.67165e-05
4.01154e-05
2.41506e-05
8.06374e-05
9.9515e-05
0.000108988
9.01931e-05
7.44164e-05
5.72527e-05
3.49528e-05
9.76711e-05
0.000114699
0.00011802
0.000106627
8.98867e-05
7.13352e-05
4.46227e-05
9.78671e-05
0.000124965
0.000128924
0.000106693
8.92069e-05
7.04158e-05
4.38343e-05
8.18271e-05
0.000101645
0.000105319
9.02128e-05
7.51198e-05
5.69937e-05
3.48811e-05
6.46785e-05
8.26051e-05
8.63427e-05
7.29942e-05
5.73692e-05
4.03369e-05
2.47783e-05
4.25916e-05
5.87385e-05
6.39694e-05
5.24767e-05
3.84789e-05
2.57719e-05
1.74058e-05
2.04037e-05
2.68136e-05
2.99837e-05
2.52406e-05
2.00432e-05
1.54351e-05
1.33995e-05
2.84119e-05
3.72964e-05
4.16831e-05
3.45385e-05
2.70165e-05
1.97446e-05
1.46343e-05
3.66942e-05
4.57685e-05
4.8113e-05
4.25834e-05
3.35317e-05
2.40292e-05
1.63782e-05
3.70284e-05
4.9357e-05
5.17214e-05
4.24504e-05
3.3211e-05
2.38874e-05
1.65105e-05
2.95786e-05
3.90182e-05
4.16555e-05
3.46819e-05
2.74626e-05
2.01881e-05
1.52889e-05
2.17512e-05
2.87767e-05
3.11768e-05
2.63651e-05
2.09286e-05
1.64331e-05
1.47261e-05
1.50966e-05
1.91705e-05
2.10117e-05
1.84781e-05
1.58159e-05
1.4563e-05
1.65916e-05
1.09454e-05
1.13952e-05
1.20566e-05
1.22105e-05
1.28923e-05
1.51218e-05
2.07274e-05
1.16592e-05
1.32212e-05
1.43605e-05
1.34989e-05
1.29172e-05
1.34577e-05
1.68372e-05
1.30661e-05
1.54401e-05
1.64367e-05
1.5154e-05
1.3566e-05
1.29306e-05
1.47947e-05
1.33887e-05
1.62173e-05
1.71428e-05
1.53815e-05
1.38904e-05
1.34399e-05
1.5593e-05
1.24889e-05
1.42008e-05
1.5053e-05
1.42501e-05
1.38e-05
1.45622e-05
1.83466e-05
1.2059e-05
1.26207e-05
1.32447e-05
1.34831e-05
1.43926e-05
1.70611e-05
2.33136e-05
1.34211e-05
1.25069e-05
1.27788e-05
1.4227e-05
1.70474e-05
2.23257e-05
3.11433e-05
1.93353e-05
1.61774e-05
1.57817e-05
1.91033e-05
2.4522e-05
3.22709e-05
4.11503e-05
1.55036e-05
1.33128e-05
1.32649e-05
1.55669e-05
1.96432e-05
2.6287e-05
3.57941e-05
1.34484e-05
1.22804e-05
1.27498e-05
1.38855e-05
1.68297e-05
2.23861e-05
3.15909e-05
1.40273e-05
1.25372e-05
1.28315e-05
1.44999e-05
1.77984e-05
2.36574e-05
3.30418e-05
1.67801e-05
1.44717e-05
1.45529e-05
1.71303e-05
2.151e-05
2.85217e-05
3.82356e-05
2.14117e-05
1.80422e-05
1.79056e-05
2.15465e-05
2.74434e-05
3.55626e-05
4.45902e-05
2.87443e-05
2.45054e-05
2.41147e-05
2.8792e-05
3.57087e-05
4.35106e-05
4.98612e-05
4.1806e-05
3.83389e-05
3.78702e-05
4.26813e-05
4.83218e-05
5.28797e-05
5.48347e-05
3.69346e-05
3.25105e-05
3.20024e-05
3.69817e-05
4.36765e-05
5.02277e-05
5.46075e-05
3.27477e-05
2.87754e-05
2.92087e-05
3.29087e-05
3.96381e-05
4.73489e-05
5.35391e-05
3.37156e-05
2.90611e-05
2.92405e-05
3.40467e-05
4.10606e-05
4.86439e-05
5.45411e-05
3.88938e-05
3.44184e-05
3.43232e-05
3.95182e-05
4.61517e-05
5.24948e-05
5.66233e-05
4.47819e-05
4.12513e-05
4.12044e-05
4.60318e-05
5.15851e-05
5.5952e-05
5.78507e-05
4.94312e-05
4.7858e-05
4.81781e-05
5.18417e-05
5.54518e-05
5.74988e-05
5.72573e-05
5.51877e-05
5.60894e-05
5.70089e-05
5.88944e-05
6.00646e-05
5.98837e-05
5.80855e-05
5.5523e-05
5.53155e-05
5.59747e-05
5.84648e-05
6.05491e-05
6.12586e-05
6.0231e-05
5.48189e-05
5.40959e-05
5.50487e-05
5.74792e-05
6.02061e-05
6.16926e-05
6.12899e-05
5.55119e-05
5.45256e-05
5.5381e-05
5.82656e-05
6.09956e-05
6.23733e-05
6.18926e-05
5.72221e-05
5.70248e-05
5.7867e-05
6.0341e-05
6.23058e-05
6.29292e-05
6.18861e-05
5.79777e-05
5.87696e-05
5.97916e-05
6.16005e-05
6.27012e-05
6.25122e-05
6.08493e-05
5.7036e-05
5.88062e-05
6.00797e-05
6.12904e-05
6.16386e-05
6.07751e-05
5.85192e-05
5.80751e-05
6.04505e-05
6.1893e-05
6.26211e-05
6.23966e-05
6.10861e-05
5.85625e-05
6.03417e-05
6.23616e-05
6.36986e-05
6.45296e-05
6.44862e-05
6.33822e-05
6.11377e-05
6.14914e-05
6.33306e-05
6.46641e-05
6.55115e-05
6.56144e-05
6.46859e-05
6.2606e-05
6.20222e-05
6.38094e-05
6.51169e-05
6.60246e-05
6.61306e-05
6.51991e-05
6.31274e-05
6.19055e-05
6.38728e-05
6.51916e-05
6.60043e-05
6.59563e-05
6.48845e-05
6.27077e-05
6.07667e-05
6.29741e-05
6.436e-05
6.50539e-05
6.48379e-05
6.35977e-05
6.12651e-05
5.83838e-05
6.0904e-05
6.23931e-05
6.30065e-05
6.26504e-05
6.12453e-05
5.86634e-05
5.85115e-05
6.11195e-05
6.26448e-05
6.31894e-05
6.27482e-05
6.12711e-05
5.86432e-05
6.1098e-05
6.35131e-05
6.4972e-05
6.55182e-05
6.51168e-05
6.37231e-05
6.12898e-05
6.25827e-05
6.49164e-05
6.63328e-05
6.68658e-05
6.64902e-05
6.5154e-05
6.28046e-05
6.30942e-05
6.54036e-05
6.68026e-05
6.73366e-05
6.69651e-05
6.56408e-05
6.33111e-05
6.26548e-05
6.50036e-05
6.64129e-05
6.6937e-05
6.65424e-05
6.5191e-05
6.28325e-05
6.11928e-05
6.36318e-05
6.50824e-05
6.56018e-05
6.51761e-05
6.37712e-05
6.13353e-05
5.85797e-05
6.12177e-05
6.27424e-05
6.32707e-05
6.28116e-05
6.13279e-05
5.87002e-05
5.85952e-05
6.12503e-05
6.27749e-05
6.32882e-05
6.28132e-05
6.13142e-05
5.86753e-05
6.12448e-05
6.37186e-05
6.51808e-05
6.56846e-05
6.52338e-05
6.38021e-05
6.13418e-05
6.27677e-05
6.51751e-05
6.65999e-05
6.70905e-05
6.66489e-05
6.52523e-05
6.28566e-05
6.3271e-05
6.5659e-05
6.70735e-05
6.75611e-05
6.71226e-05
6.57363e-05
6.33588e-05
6.27817e-05
6.51909e-05
6.66194e-05
6.71099e-05
6.66652e-05
6.52657e-05
6.2869e-05
6.12699e-05
6.37476e-05
6.52158e-05
6.57164e-05
6.52579e-05
6.38201e-05
6.13574e-05
5.86194e-05
6.12813e-05
6.28183e-05
6.33358e-05
6.28565e-05
6.13521e-05
5.87073e-05
5.86208e-05
6.1283e-05
6.28057e-05
6.331e-05
6.2822e-05
6.13134e-05
5.86667e-05
6.1281e-05
6.37592e-05
6.52182e-05
6.57073e-05
6.52407e-05
6.3799e-05
6.13321e-05
6.27997e-05
6.52141e-05
6.664e-05
6.71198e-05
6.66642e-05
6.52558e-05
6.28503e-05
6.32976e-05
6.5696e-05
6.71123e-05
6.75892e-05
6.71367e-05
6.57379e-05
6.335e-05
6.28024e-05
6.52203e-05
6.66487e-05
6.71292e-05
6.66721e-05
6.52613e-05
6.28551e-05
6.1286e-05
6.37682e-05
6.52334e-05
6.57247e-05
6.52555e-05
6.38084e-05
6.13377e-05
5.86293e-05
6.1293e-05
6.2824e-05
6.33328e-05
6.28448e-05
6.13331e-05
5.86808e-05
5.86228e-05
6.12872e-05
6.28117e-05
6.3313e-05
6.28178e-05
6.13008e-05
5.86438e-05
6.1285e-05
6.37644e-05
6.52221e-05
6.57026e-05
6.52246e-05
6.37735e-05
6.13003e-05
6.28015e-05
6.52151e-05
6.66377e-05
6.71088e-05
6.66442e-05
6.52302e-05
6.28226e-05
6.32986e-05
6.56945e-05
6.71054e-05
6.7573e-05
6.71126e-05
6.571e-05
6.33213e-05
6.28032e-05
6.52174e-05
6.66382e-05
6.71093e-05
6.66456e-05
6.52323e-05
6.28257e-05
6.12873e-05
6.37654e-05
6.52212e-05
6.57036e-05
6.52291e-05
6.37804e-05
6.13088e-05
5.86301e-05
6.129e-05
6.28107e-05
6.3312e-05
6.28199e-05
6.13064e-05
5.86511e-05
5.86255e-05
6.12941e-05
6.28133e-05
6.3311e-05
6.28134e-05
6.12945e-05
5.86338e-05
6.1292e-05
6.37704e-05
6.52213e-05
6.56981e-05
6.52176e-05
6.3764e-05
6.12886e-05
6.28081e-05
6.52192e-05
6.66353e-05
6.71026e-05
6.66353e-05
6.52198e-05
6.28117e-05
6.33047e-05
6.56963e-05
6.71018e-05
6.75662e-05
6.71035e-05
6.56998e-05
6.33108e-05
6.28077e-05
6.52173e-05
6.66344e-05
6.71029e-05
6.66372e-05
6.52228e-05
6.28155e-05
6.12903e-05
6.37654e-05
6.52189e-05
6.56989e-05
6.52224e-05
6.37721e-05
6.12989e-05
5.86323e-05
6.12916e-05
6.28107e-05
6.33093e-05
6.28143e-05
6.12983e-05
5.86398e-05
5.86389e-05
6.13054e-05
6.28195e-05
6.33151e-05
6.28183e-05
6.13015e-05
5.86431e-05
6.13045e-05
6.37799e-05
6.52273e-05
6.57046e-05
6.52264e-05
6.37751e-05
6.1301e-05
6.28206e-05
6.52298e-05
6.66442e-05
6.71121e-05
6.66458e-05
6.52308e-05
6.28227e-05
6.33167e-05
6.57073e-05
6.71128e-05
6.75779e-05
6.71155e-05
6.57114e-05
6.33216e-05
6.28193e-05
6.52292e-05
6.66473e-05
6.71163e-05
6.66501e-05
6.52346e-05
6.28261e-05
6.13024e-05
6.37787e-05
6.52334e-05
6.57133e-05
6.52355e-05
6.37836e-05
6.13089e-05
5.86453e-05
6.13065e-05
6.28263e-05
6.3324e-05
6.28271e-05
6.13092e-05
5.86494e-05
5.8656e-05
6.13212e-05
6.28374e-05
6.33356e-05
6.28416e-05
6.13273e-05
5.86719e-05
6.13214e-05
6.38006e-05
6.52519e-05
6.57325e-05
6.52568e-05
6.38071e-05
6.13338e-05
6.28386e-05
6.52529e-05
6.66694e-05
6.7139e-05
6.66736e-05
6.52586e-05
6.285e-05
6.33364e-05
6.57331e-05
6.71391e-05
6.7605e-05
6.71426e-05
6.57381e-05
6.33474e-05
6.28415e-05
6.52571e-05
6.66741e-05
6.71429e-05
6.66764e-05
6.52604e-05
6.28513e-05
6.13269e-05
6.38075e-05
6.52595e-05
6.57386e-05
6.52606e-05
6.38087e-05
6.13345e-05
5.86714e-05
6.13346e-05
6.28509e-05
6.33479e-05
6.28514e-05
6.13346e-05
5.86769e-05
5.86708e-05
6.13372e-05
6.28577e-05
6.33597e-05
6.28685e-05
6.1356e-05
5.87027e-05
6.13374e-05
6.38226e-05
6.52786e-05
6.57625e-05
6.52888e-05
6.384e-05
6.1367e-05
6.28564e-05
6.52766e-05
6.66945e-05
6.71654e-05
6.67009e-05
6.52862e-05
6.28775e-05
6.33568e-05
6.5759e-05
6.7164e-05
6.76302e-05
6.71685e-05
6.57644e-05
6.33736e-05
6.28643e-05
6.5284e-05
6.66982e-05
6.71671e-05
6.67015e-05
6.52864e-05
6.28778e-05
6.13512e-05
6.3834e-05
6.52824e-05
6.57618e-05
6.52853e-05
6.38349e-05
6.13623e-05
5.86963e-05
6.13597e-05
6.28726e-05
6.33703e-05
6.28762e-05
6.13621e-05
5.87076e-05
5.86926e-05
6.13583e-05
6.28775e-05
6.33784e-05
6.28866e-05
6.13744e-05
5.87221e-05
6.1358e-05
6.38417e-05
6.52954e-05
6.57778e-05
6.53039e-05
6.38556e-05
6.13841e-05
6.28755e-05
6.52931e-05
6.67087e-05
6.71785e-05
6.67144e-05
6.53008e-05
6.28936e-05
6.33749e-05
6.5774e-05
6.71769e-05
6.76426e-05
6.71816e-05
6.57788e-05
6.33898e-05
6.2882e-05
6.52986e-05
6.67112e-05
6.71801e-05
6.67154e-05
6.53019e-05
6.28949e-05
6.13691e-05
6.38491e-05
6.52965e-05
6.57762e-05
6.53008e-05
6.3852e-05
6.13811e-05
5.87151e-05
6.13763e-05
6.28887e-05
6.33869e-05
6.28941e-05
6.13813e-05
5.87285e-05
2.13517e-05
3.67856e-06
1.99523e-05
1.56739e-05
2.13871e-05
3.01382e-05
2.28325e-05
3.89455e-06
6.87067e-05
3.61999e-05
1.97507e-05
1.62931e-05
2.28939e-05
3.17958e-05
2.36838e-05
3.96593e-06
5.49342e-05
2.90738e-05
1.77469e-05
1.78706e-05
2.69939e-05
3.44912e-05
2.34919e-05
3.85706e-06
3.75317e-05
2.13327e-05
1.6623e-05
2.16544e-05
3.2686e-05
3.63102e-05
2.18054e-05
3.58804e-06
2.35244e-05
1.68951e-05
1.86568e-05
2.76891e-05
3.74275e-05
3.58704e-05
1.91012e-05
3.23668e-06
1.63338e-05
1.4246e-05
1.73222e-05
2.53841e-05
3.29497e-05
3.02785e-05
1.52485e-05
3.28136e-06
2.09266e-05
1.49544e-05
1.58397e-05
2.34096e-05
3.28322e-05
3.23688e-05
1.75767e-05
3.58071e-06
2.55602e-05
1.60924e-05
1.48951e-05
2.13357e-05
3.17999e-05
3.35771e-05
1.93135e-05
3.77751e-06
2.51823e-05
1.62044e-05
1.56098e-05
2.28354e-05
3.35742e-05
3.47461e-05
1.9984e-05
3.8368e-06
2.09515e-05
1.55469e-05
1.77517e-05
2.72275e-05
3.71207e-05
3.54272e-05
1.94458e-05
3.74598e-06
1.67946e-05
1.60641e-05
2.21951e-05
3.33481e-05
4.0148e-05
3.45384e-05
1.76446e-05
3.52048e-06
1.52171e-05
1.95329e-05
2.8975e-05
3.88396e-05
4.08971e-05
3.19743e-05
1.49936e-05
3.20111e-06
1.48526e-05
2.04482e-05
2.89523e-05
3.61162e-05
3.6113e-05
2.73356e-05
1.25459e-05
3.4119e-06
1.37766e-05
1.77037e-05
2.63069e-05
3.56467e-05
3.79168e-05
3.01468e-05
1.4777e-05
3.67854e-06
1.35538e-05
1.58381e-05
2.3777e-05
3.43685e-05
3.87074e-05
3.19933e-05
1.63836e-05
3.8491e-06
1.4003e-05
1.67491e-05
2.53183e-05
3.60961e-05
3.9961e-05
3.28441e-05
1.69699e-05
3.90042e-06
1.48994e-05
1.98699e-05
2.99843e-05
3.97097e-05
4.1064e-05
3.25196e-05
1.64531e-05
3.82495e-06
1.73228e-05
2.53979e-05
3.61568e-05
4.28467e-05
4.08011e-05
3.07575e-05
1.48798e-05
3.6336e-06
2.25748e-05
3.26938e-05
4.13582e-05
4.37527e-05
3.87598e-05
2.76613e-05
1.25026e-05
3.35284e-06
2.7993e-05
3.62098e-05
4.14432e-05
4.11363e-05
3.53514e-05
2.4877e-05
1.11758e-05
3.53443e-06
2.36034e-05
3.32501e-05
4.11596e-05
4.28994e-05
3.80577e-05
2.78395e-05
1.32953e-05
3.78071e-06
2.05231e-05
3.03306e-05
4.00542e-05
4.36549e-05
3.97283e-05
2.97574e-05
1.47667e-05
3.93768e-06
2.17344e-05
3.19099e-05
4.15746e-05
4.47851e-05
4.05656e-05
3.04754e-05
1.53001e-05
3.98615e-06
2.6098e-05
3.66882e-05
4.46336e-05
4.5727e-05
4.03748e-05
2.99282e-05
1.48301e-05
3.91846e-06
3.26605e-05
4.22505e-05
4.69645e-05
4.54045e-05
3.88576e-05
2.80841e-05
1.3412e-05
3.74442e-06
3.98273e-05
4.60838e-05
4.71392e-05
4.34201e-05
3.59816e-05
2.4998e-05
1.12292e-05
3.48617e-06
4.609e-05
4.79634e-05
4.63321e-05
4.16158e-05
3.41629e-05
2.36026e-05
1.05592e-05
3.61534e-06
4.39681e-05
4.8504e-05
4.83491e-05
4.42682e-05
3.70868e-05
2.65641e-05
1.26087e-05
3.85333e-06
4.1442e-05
4.80977e-05
4.93463e-05
4.58806e-05
3.89181e-05
2.84365e-05
1.40013e-05
4.00462e-06
4.28569e-05
4.92811e-05
5.02624e-05
4.66406e-05
3.96153e-05
2.9106e-05
1.45036e-05
4.05286e-06
4.67747e-05
5.12038e-05
5.07045e-05
4.63864e-05
3.91094e-05
2.85299e-05
1.40517e-05
3.9901e-06
5.0431e-05
5.21211e-05
4.99472e-05
4.48963e-05
3.73523e-05
2.67151e-05
1.26997e-05
3.8253e-06
5.19138e-05
5.11553e-05
4.77327e-05
4.21337e-05
3.43442e-05
2.36903e-05
1.06171e-05
3.5785e-06
5.36562e-05
5.11021e-05
4.69596e-05
4.12131e-05
3.35144e-05
2.30494e-05
1.02896e-05
3.66265e-06
5.5235e-05
5.34468e-05
4.9642e-05
4.40579e-05
3.64714e-05
2.59917e-05
1.23019e-05
3.89766e-06
5.57268e-05
5.47432e-05
5.12726e-05
4.58159e-05
3.82909e-05
2.78168e-05
1.36488e-05
4.0478e-06
5.65521e-05
5.5466e-05
5.19342e-05
4.64548e-05
3.89299e-05
2.84537e-05
1.41301e-05
4.09697e-06
5.72591e-05
5.54093e-05
5.15317e-05
4.59261e-05
3.83586e-05
2.78718e-05
1.36838e-05
4.03732e-06
5.68739e-05
5.41956e-05
4.99589e-05
4.42115e-05
3.65767e-05
2.60811e-05
1.23603e-05
3.87737e-06
5.48986e-05
5.16941e-05
4.72077e-05
4.13195e-05
3.35755e-05
2.31002e-05
1.03269e-05
3.63579e-06
5.50057e-05
5.1451e-05
4.68364e-05
4.09291e-05
3.32147e-05
2.28024e-05
1.01599e-05
3.68971e-06
5.76102e-05
5.41792e-05
4.96499e-05
4.38173e-05
3.61841e-05
2.57405e-05
1.21559e-05
3.92343e-06
5.90772e-05
5.58321e-05
5.13797e-05
4.55844e-05
3.79835e-05
2.75369e-05
1.34772e-05
4.07394e-06
5.96787e-05
5.64347e-05
5.198e-05
4.61866e-05
3.85944e-05
2.8151e-05
1.39436e-05
4.12444e-06
5.93419e-05
5.59384e-05
5.14158e-05
4.56001e-05
3.80015e-05
2.75622e-05
1.34978e-05
4.06709e-06
5.78965e-05
5.42997e-05
4.96964e-05
4.38444e-05
3.62161e-05
2.57817e-05
1.21887e-05
3.91024e-06
5.51782e-05
5.15136e-05
4.68492e-05
4.09323e-05
3.3225e-05
2.28227e-05
1.01795e-05
3.67144e-06
5.51353e-05
5.14072e-05
4.67086e-05
4.07719e-05
3.30569e-05
2.26663e-05
1.00813e-05
3.7062e-06
5.79153e-05
5.4202e-05
4.95499e-05
4.36767e-05
3.60398e-05
2.56123e-05
1.20745e-05
3.93977e-06
5.95347e-05
5.59015e-05
5.12895e-05
4.54436e-05
3.7835e-05
2.74005e-05
1.33849e-05
4.09057e-06
6.00934e-05
5.6484e-05
5.18842e-05
4.60446e-05
3.84422e-05
2.80066e-05
1.38432e-05
4.14174e-06
5.95864e-05
5.59293e-05
5.13064e-05
4.5456e-05
3.78468e-05
2.74141e-05
1.33959e-05
4.08569e-06
5.7989e-05
5.42447e-05
4.95771e-05
4.36974e-05
3.6059e-05
2.56338e-05
1.20915e-05
3.931e-06
5.51825e-05
5.14303e-05
4.67172e-05
4.07741e-05
3.30588e-05
2.26725e-05
1.00895e-05
3.69457e-06
5.51545e-05
5.13777e-05
4.66434e-05
4.06861e-05
3.2961e-05
2.2574e-05
1.00226e-05
3.71702e-06
5.79631e-05
5.41834e-05
4.94936e-05
4.36016e-05
3.59569e-05
2.55326e-05
1.20194e-05
3.95037e-06
5.95906e-05
5.58814e-05
5.12306e-05
4.5367e-05
3.77519e-05
2.73198e-05
1.3326e-05
4.10159e-06
6.01409e-05
5.64612e-05
5.18259e-05
4.59698e-05
3.83604e-05
2.79253e-05
1.3782e-05
4.15346e-06
5.9615e-05
5.59038e-05
5.12516e-05
4.53859e-05
3.77682e-05
2.73335e-05
1.33345e-05
4.09822e-06
5.80069e-05
5.4222e-05
4.95274e-05
4.36306e-05
3.59808e-05
2.55522e-05
1.20313e-05
3.94459e-06
5.51997e-05
5.14115e-05
4.66663e-05
4.0699e-05
3.29674e-05
2.25787e-05
1.0027e-05
3.70977e-06
5.51722e-05
5.13698e-05
4.66079e-05
4.0631e-05
3.28942e-05
2.25064e-05
9.97831e-06
3.72418e-06
5.79879e-05
5.41771e-05
4.94645e-05
4.35582e-05
3.59052e-05
2.54794e-05
1.19803e-05
3.95708e-06
5.96091e-05
5.58724e-05
5.12019e-05
4.53253e-05
3.77022e-05
2.72678e-05
1.3286e-05
4.10858e-06
6.01555e-05
5.64499e-05
5.17954e-05
4.59268e-05
3.831e-05
2.78728e-05
1.3741e-05
4.16121e-06
5.96236e-05
5.58883e-05
5.12182e-05
4.53414e-05
3.77176e-05
2.72813e-05
1.3294e-05
4.10683e-06
5.80072e-05
5.42008e-05
4.94905e-05
4.35843e-05
3.59293e-05
2.54994e-05
1.19916e-05
3.95388e-06
5.51908e-05
5.13855e-05
4.66246e-05
4.06464e-05
3.29067e-05
2.25157e-05
9.9835e-06
3.71996e-06
5.51453e-05
5.13391e-05
4.65729e-05
4.05901e-05
3.28482e-05
2.24605e-05
9.94856e-06
3.72852e-06
5.79679e-05
5.41541e-05
4.94383e-05
4.35285e-05
3.58724e-05
2.54457e-05
1.19555e-05
3.96127e-06
5.95929e-05
5.58524e-05
5.11784e-05
4.52983e-05
3.7672e-05
2.72359e-05
1.32608e-05
4.11285e-06
6.01368e-05
5.64276e-05
5.17699e-05
4.5898e-05
3.82781e-05
2.78392e-05
1.37143e-05
4.16583e-06
5.95994e-05
5.58613e-05
5.11888e-05
4.53093e-05
3.76828e-05
2.72455e-05
1.32665e-05
4.11207e-06
5.79757e-05
5.41676e-05
4.94561e-05
4.3548e-05
3.58913e-05
2.54617e-05
1.19643e-05
3.95967e-06
5.51497e-05
5.13452e-05
4.65842e-05
4.06042e-05
3.2862e-05
2.24713e-05
9.95391e-06
3.72634e-06
5.51038e-05
5.13034e-05
4.65454e-05
4.05651e-05
3.28221e-05
2.24342e-05
9.93145e-06
3.73099e-06
5.79323e-05
5.41278e-05
4.94187e-05
4.35109e-05
3.58542e-05
2.54268e-05
1.19413e-05
3.96378e-06
5.95635e-05
5.58294e-05
5.11596e-05
4.52809e-05
3.76542e-05
2.72174e-05
1.32462e-05
4.11546e-06
6.01069e-05
5.6403e-05
5.17489e-05
4.58784e-05
3.82582e-05
2.78187e-05
1.36982e-05
4.16853e-06
5.95675e-05
5.58345e-05
5.11654e-05
4.5287e-05
3.766e-05
2.72224e-05
1.3249e-05
4.11496e-06
5.79412e-05
5.41378e-05
4.94299e-05
4.35225e-05
3.58652e-05
2.5436e-05
1.19463e-05
3.96278e-06
5.51091e-05
5.13103e-05
4.65534e-05
4.05739e-05
3.28307e-05
2.24409e-05
9.93463e-06
3.72976e-06
5.50885e-05
5.12903e-05
4.65355e-05
4.05561e-05
3.28117e-05
2.24223e-05
9.92347e-06
3.73273e-06
5.79201e-05
5.41192e-05
4.94133e-05
4.35063e-05
3.58481e-05
2.54188e-05
1.19347e-05
3.96549e-06
5.95527e-05
5.58216e-05
5.11539e-05
4.52754e-05
3.76475e-05
2.7209e-05
1.32391e-05
4.11725e-06
6.00962e-05
5.63944e-05
5.17417e-05
4.58711e-05
3.82499e-05
2.7809e-05
1.36902e-05
4.17033e-06
5.95562e-05
5.58247e-05
5.11566e-05
4.5278e-05
3.76499e-05
2.7211e-05
1.32401e-05
4.11673e-06
5.79287e-05
5.41263e-05
4.94193e-05
4.35115e-05
3.58529e-05
2.54229e-05
1.19369e-05
3.96456e-06
5.50931e-05
5.12958e-05
4.65399e-05
4.05598e-05
3.28149e-05
2.24248e-05
9.92446e-06
3.73166e-06
5.51002e-05
5.12998e-05
4.65419e-05
4.05595e-05
3.28114e-05
2.24187e-05
9.92039e-06
3.73421e-06
5.79332e-05
5.41303e-05
4.94221e-05
4.35124e-05
3.58508e-05
2.54175e-05
1.19322e-05
3.96682e-06
5.95638e-05
5.58312e-05
5.11616e-05
4.52807e-05
3.76496e-05
2.72076e-05
1.32364e-05
4.11854e-06
6.01067e-05
5.64033e-05
5.17486e-05
4.58757e-05
3.82514e-05
2.7807e-05
1.36873e-05
4.17163e-06
5.95665e-05
5.58332e-05
5.11631e-05
4.5282e-05
3.76508e-05
2.72087e-05
1.32371e-05
4.11805e-06
5.79393e-05
5.41348e-05
4.94255e-05
4.35152e-05
3.58534e-05
2.54202e-05
1.1934e-05
3.96594e-06
5.51044e-05
5.13045e-05
4.65456e-05
4.05623e-05
3.28137e-05
2.24204e-05
9.92117e-06
3.73316e-06
5.51337e-05
5.13265e-05
4.656e-05
4.05705e-05
3.28163e-05
2.24185e-05
9.91931e-06
3.73514e-06
5.79655e-05
5.41556e-05
4.94401e-05
4.35244e-05
3.58573e-05
2.54192e-05
1.19316e-05
3.96756e-06
5.95904e-05
5.58524e-05
5.11773e-05
4.52915e-05
3.76557e-05
2.72092e-05
1.32356e-05
4.11923e-06
6.01316e-05
5.64236e-05
5.1764e-05
4.58865e-05
3.82578e-05
2.7809e-05
1.36867e-05
4.17239e-06
5.9592e-05
5.58544e-05
5.11794e-05
4.52937e-05
3.7658e-05
2.72113e-05
1.32371e-05
4.11894e-06
5.79675e-05
5.41585e-05
4.94436e-05
4.35283e-05
3.58615e-05
2.54234e-05
1.19344e-05
3.96698e-06
5.5138e-05
5.13314e-05
4.65653e-05
4.05757e-05
3.28212e-05
2.24226e-05
9.92128e-06
3.73434e-06
5.51682e-05
5.13545e-05
4.65797e-05
4.05837e-05
3.28246e-05
2.24228e-05
9.92134e-06
3.73532e-06
5.79979e-05
5.41809e-05
4.94585e-05
4.35375e-05
3.58663e-05
2.54246e-05
1.19341e-05
3.96764e-06
5.96172e-05
5.58741e-05
5.11938e-05
4.53037e-05
3.76644e-05
2.72146e-05
1.32383e-05
4.11935e-06
6.01573e-05
5.6445e-05
5.17808e-05
4.58993e-05
3.82672e-05
2.78152e-05
1.36898e-05
4.17263e-06
5.9619e-05
5.58774e-05
5.11977e-05
4.5308e-05
3.76686e-05
2.72185e-05
1.32406e-05
4.11933e-06
5.7998e-05
5.41849e-05
4.94645e-05
4.35445e-05
3.58736e-05
2.54313e-05
1.19382e-05
3.96749e-06
5.51744e-05
5.13615e-05
4.65882e-05
4.05927e-05
3.2833e-05
2.24296e-05
9.92451e-06
3.73491e-06
5.5187e-05
5.13736e-05
4.65987e-05
4.06018e-05
3.28415e-05
2.24375e-05
9.9297e-06
3.73529e-06
5.80161e-05
5.42001e-05
4.94775e-05
4.35557e-05
3.58834e-05
2.54396e-05
1.19433e-05
3.96759e-06
5.96347e-05
5.58924e-05
5.12118e-05
4.53211e-05
3.76808e-05
2.72293e-05
1.32476e-05
4.11936e-06
6.01749e-05
5.64633e-05
5.1799e-05
4.59169e-05
3.82838e-05
2.783e-05
1.36995e-05
4.17273e-06
5.96376e-05
5.58966e-05
5.12167e-05
4.53263e-05
3.76858e-05
2.72336e-05
1.32504e-05
4.1195e-06
5.80179e-05
5.42054e-05
4.94846e-05
4.35637e-05
3.58914e-05
2.54469e-05
1.19479e-05
3.96769e-06
5.51963e-05
5.13835e-05
4.66096e-05
4.06127e-05
3.28514e-05
2.24452e-05
9.93329e-06
3.73507e-06
2.61425e-05
1.59949e-05
1.19664e-05
1.38757e-05
2.08714e-05
2.48061e-05
1.46138e-05
3.34418e-06
4.39467e-05
2.5705e-05
1.46411e-05
1.11994e-05
1.41566e-05
2.03886e-05
1.61078e-05
3.71851e-06
6.35352e-05
4.18798e-05
2.27472e-05
1.27534e-05
1.06075e-05
1.42966e-05
1.5194e-05
4.00582e-06
7.81972e-05
5.62426e-05
3.14879e-05
1.5947e-05
1.00344e-05
1.08822e-05
1.31195e-05
4.12679e-06
7.8971e-05
5.79803e-05
3.3064e-05
1.65693e-05
9.8438e-06
9.97753e-06
1.21226e-05
4.0499e-06
6.22003e-05
4.22115e-05
2.31374e-05
1.24968e-05
9.65709e-06
1.25404e-05
1.33795e-05
3.78403e-06
4.3598e-05
2.72233e-05
1.54987e-05
1.03143e-05
1.09974e-05
1.56276e-05
1.29093e-05
3.43277e-06
1.20875e-05
1.22761e-05
1.61612e-05
2.37342e-05
2.93573e-05
2.54162e-05
1.22126e-05
3.47271e-06
1.53021e-05
1.17077e-05
1.17548e-05
1.62576e-05
2.3597e-05
2.52903e-05
1.43034e-05
3.78279e-06
2.09889e-05
1.41835e-05
1.0747e-05
1.14385e-05
1.64237e-05
2.15869e-05
1.51324e-05
4.00467e-06
2.64291e-05
1.73587e-05
1.144e-05
9.74802e-06
1.23228e-05
1.75817e-05
1.46831e-05
4.09438e-06
2.66301e-05
1.76455e-05
1.14485e-05
9.31919e-06
1.13123e-05
1.62275e-05
1.39417e-05
4.03727e-06
2.01796e-05
1.37836e-05
1.01836e-05
1.03752e-05
1.46222e-05
1.94245e-05
1.34376e-05
3.84441e-06
1.46931e-05
1.12798e-05
1.03015e-05
1.28983e-05
1.86617e-05
2.0862e-05
1.16428e-05
3.56115e-06
1.63512e-05
2.24914e-05
3.02536e-05
3.50487e-05
3.29984e-05
2.40831e-05
1.08766e-05
3.59513e-06
1.26758e-05
1.58422e-05
2.23189e-05
2.9886e-05
3.24764e-05
2.63051e-05
1.29354e-05
3.86986e-06
1.14734e-05
1.20878e-05
1.55718e-05
2.22553e-05
2.82903e-05
2.63154e-05
1.41656e-05
4.06085e-06
1.13541e-05
1.062e-05
1.22113e-05
1.70872e-05
2.37144e-05
2.48185e-05
1.44134e-05
4.13603e-06
1.10891e-05
1.02432e-05
1.14912e-05
1.58637e-05
2.22597e-05
2.37713e-05
1.38634e-05
4.08702e-06
1.07736e-05
1.12803e-05
1.42998e-05
2.03631e-05
2.61079e-05
2.42456e-05
1.26612e-05
3.92217e-06
1.14764e-05
1.37619e-05
1.8596e-05
2.50906e-05
2.80472e-05
2.267e-05
1.0614e-05
3.67004e-06
3.46409e-05
4.01798e-05
4.22643e-05
3.98e-05
3.33241e-05
2.31233e-05
1.03177e-05
3.66666e-06
2.69509e-05
3.39406e-05
3.9443e-05
4.02057e-05
3.55288e-05
2.59259e-05
1.2317e-05
3.92471e-06
2.05035e-05
2.63082e-05
3.32465e-05
3.74884e-05
3.56628e-05
2.7327e-05
1.35874e-05
4.09895e-06
1.65914e-05
2.10451e-05
2.76819e-05
3.37043e-05
3.4345e-05
2.74372e-05
1.39824e-05
4.16595e-06
1.58176e-05
1.99637e-05
2.62928e-05
3.23534e-05
3.33417e-05
2.67102e-05
1.34956e-05
4.11792e-06
1.91735e-05
2.46202e-05
3.12309e-05
3.53915e-05
3.36431e-05
2.54005e-05
1.21946e-05
3.96294e-06
2.41039e-05
3.0022e-05
3.51634e-05
3.62899e-05
3.20039e-05
2.26756e-05
1.0164e-05
3.72324e-06
5.00251e-05
4.90963e-05
4.59197e-05
4.06091e-05
3.30803e-05
2.27086e-05
1.01067e-05
3.70073e-06
4.79235e-05
4.9128e-05
4.74877e-05
4.30316e-05
3.59128e-05
2.56142e-05
1.20848e-05
3.94914e-06
4.33435e-05
4.65015e-05
4.69102e-05
4.3835e-05
3.73809e-05
2.72996e-05
1.33572e-05
4.11368e-06
3.86887e-05
4.29599e-05
4.50152e-05
4.3312e-05
3.75963e-05
2.77921e-05
1.37807e-05
4.1754e-06
3.75843e-05
4.18279e-05
4.40124e-05
4.24943e-05
3.69033e-05
2.71587e-05
1.33156e-05
4.12648e-06
4.14587e-05
4.45426e-05
4.49731e-05
4.1939e-05
3.55026e-05
2.54549e-05
1.2018e-05
3.97471e-06
4.45292e-05
4.56306e-05
4.41451e-05
3.9823e-05
3.27312e-05
2.25199e-05
1.00134e-05
3.73936e-06
5.42827e-05
5.09946e-05
4.65065e-05
4.06366e-05
3.29374e-05
2.256e-05
1.00285e-05
3.71556e-06
5.61219e-05
5.33018e-05
4.91275e-05
4.34565e-05
3.58889e-05
2.5488e-05
1.20034e-05
3.95794e-06
5.62795e-05
5.41564e-05
5.04526e-05
4.50435e-05
3.76047e-05
2.72313e-05
1.32808e-05
4.11741e-06
5.5331e-05
5.38167e-05
5.05789e-05
4.54425e-05
3.81288e-05
2.77957e-05
1.37157e-05
4.1758e-06
5.46225e-05
5.31178e-05
4.99165e-05
4.48112e-05
3.7512e-05
2.7188e-05
1.32593e-05
4.12534e-06
5.45669e-05
5.23865e-05
4.86689e-05
4.32496e-05
3.57904e-05
2.54289e-05
1.19678e-05
3.97402e-06
5.31562e-05
5.0337e-05
4.61639e-05
4.04603e-05
3.28234e-05
2.24684e-05
9.97496e-06
3.74001e-06
5.49659e-05
5.12659e-05
4.65622e-05
4.0603e-05
3.28786e-05
2.25037e-05
9.99274e-06
3.72173e-06
5.76298e-05
5.39895e-05
4.93655e-05
4.34976e-05
3.58601e-05
2.54448e-05
1.19725e-05
3.96046e-06
5.90262e-05
5.55466e-05
5.10209e-05
4.52136e-05
3.76212e-05
2.72062e-05
1.32566e-05
4.11709e-06
5.93276e-05
5.59722e-05
5.15296e-05
4.57684e-05
3.81992e-05
2.77879e-05
1.36984e-05
4.17355e-06
5.87561e-05
5.53807e-05
5.09334e-05
4.51709e-05
3.75982e-05
2.71889e-05
1.32467e-05
4.1219e-06
5.73631e-05
5.3824e-05
4.92727e-05
4.34464e-05
3.5829e-05
2.54221e-05
1.1955e-05
3.97034e-06
5.47506e-05
5.11264e-05
4.64743e-05
4.05462e-05
3.28294e-05
2.24574e-05
9.96446e-06
3.73669e-06
5.50669e-05
5.12929e-05
4.65486e-05
4.05761e-05
3.28476e-05
2.24733e-05
9.96909e-06
3.72581e-06
5.78611e-05
5.40838e-05
4.93903e-05
4.34938e-05
3.58459e-05
2.543e-05
1.19576e-05
3.96202e-06
5.94508e-05
5.57512e-05
5.11028e-05
4.52385e-05
3.76236e-05
2.71994e-05
1.32471e-05
4.1167e-06
5.99562e-05
5.62984e-05
5.16739e-05
4.58216e-05
3.82147e-05
2.779e-05
1.36919e-05
4.17196e-06
5.94074e-05
5.57241e-05
5.10878e-05
4.52288e-05
3.76158e-05
2.71931e-05
1.32422e-05
4.11969e-06
5.77995e-05
5.40417e-05
4.93632e-05
4.34755e-05
3.58337e-05
2.54182e-05
1.19482e-05
3.96799e-06
5.49815e-05
5.12351e-05
4.65083e-05
4.05459e-05
3.28204e-05
2.24478e-05
9.95427e-06
3.73462e-06
5.5087e-05
5.1289e-05
4.6534e-05
4.05588e-05
3.28274e-05
2.24509e-05
9.95007e-06
3.7294e-06
5.79045e-05
5.4098e-05
4.9392e-05
4.34907e-05
3.58413e-05
2.54233e-05
1.19475e-05
3.96393e-06
5.95269e-05
5.57886e-05
5.11209e-05
4.52475e-05
3.76274e-05
2.71988e-05
1.32416e-05
4.11725e-06
6.00668e-05
5.63585e-05
5.17061e-05
4.58393e-05
3.82247e-05
2.77933e-05
1.36883e-05
4.17163e-06
5.95283e-05
5.57914e-05
5.11237e-05
4.5248e-05
3.76261e-05
2.71965e-05
1.32389e-05
4.11898e-06
5.79017e-05
5.40971e-05
4.93912e-05
4.34884e-05
3.58378e-05
2.54172e-05
1.19425e-05
3.96733e-06
5.50664e-05
5.12746e-05
4.65217e-05
4.05467e-05
3.28136e-05
2.24368e-05
9.94213e-06
3.73443e-06
5.50871e-05
5.12858e-05
4.65285e-05
4.05512e-05
3.28143e-05
2.24333e-05
9.93499e-06
3.73185e-06
5.79125e-05
5.41044e-05
4.93953e-05
4.34906e-05
3.58382e-05
2.54169e-05
1.19386e-05
3.96539e-06
5.95399e-05
5.57983e-05
5.11269e-05
4.52502e-05
3.76273e-05
2.7196e-05
1.32358e-05
4.11796e-06
6.00811e-05
5.63683e-05
5.1712e-05
4.58426e-05
3.82259e-05
2.77922e-05
1.36841e-05
4.17185e-06
5.95409e-05
5.57999e-05
5.11288e-05
4.52514e-05
3.76277e-05
2.71957e-05
1.3235e-05
4.11903e-06
5.79154e-05
5.41065e-05
4.9397e-05
4.34916e-05
3.58383e-05
2.54149e-05
1.19367e-05
3.96748e-06
5.50858e-05
5.12847e-05
4.65262e-05
4.05479e-05
3.28087e-05
2.24263e-05
9.93098e-06
3.7349e-06
5.50868e-05
5.12876e-05
4.65293e-05
4.05492e-05
3.28076e-05
2.24225e-05
9.92523e-06
3.73331e-06
5.79153e-05
5.41108e-05
4.94006e-05
4.34929e-05
3.58369e-05
2.5412e-05
1.19323e-05
3.9664e-06
5.95399e-05
5.58035e-05
5.11316e-05
4.52525e-05
3.76267e-05
2.7193e-05
1.3231e-05
4.11864e-06
6.00779e-05
5.63703e-05
5.17141e-05
4.58433e-05
3.8225e-05
2.77895e-05
1.36802e-05
4.17236e-06
5.95353e-05
5.57985e-05
5.11282e-05
4.52505e-05
3.7626e-05
2.71928e-05
1.32311e-05
4.1195e-06
5.79098e-05
5.41032e-05
4.93949e-05
4.34895e-05
3.58351e-05
2.54105e-05
1.19317e-05
3.96796e-06
5.50835e-05
5.12811e-05
4.6523e-05
4.05442e-05
3.28026e-05
2.24176e-05
9.92282e-06
3.73545e-06
5.50911e-05
5.12912e-05
4.65322e-05
4.05506e-05
3.28057e-05
2.24171e-05
9.92031e-06
3.73428e-06
5.79198e-05
5.41165e-05
4.9407e-05
4.34982e-05
3.58396e-05
2.5411e-05
1.19295e-05
3.96722e-06
5.95434e-05
5.58108e-05
5.11401e-05
4.52598e-05
3.76313e-05
2.71941e-05
1.32295e-05
4.11938e-06
6.00827e-05
5.63794e-05
5.17237e-05
4.58513e-05
3.823e-05
2.77911e-05
1.3679e-05
4.17304e-06
5.95422e-05
5.58082e-05
5.11374e-05
4.52576e-05
3.763e-05
2.71935e-05
1.32294e-05
4.12009e-06
5.79185e-05
5.41117e-05
4.94018e-05
4.34938e-05
3.58362e-05
2.54086e-05
1.19285e-05
3.96847e-06
5.50953e-05
5.12868e-05
4.65257e-05
4.05443e-05
3.27997e-05
2.24119e-05
9.9177e-06
3.73594e-06
5.51062e-05
5.13022e-05
4.65404e-05
4.05559e-05
3.28073e-05
2.24151e-05
9.91811e-06
3.73491e-06
5.79344e-05
5.41276e-05
4.94168e-05
4.35061e-05
3.58445e-05
2.54122e-05
1.19286e-05
3.96776e-06
5.95565e-05
5.58226e-05
5.11514e-05
4.52696e-05
3.76384e-05
2.71973e-05
1.32296e-05
4.11987e-06
6.00964e-05
5.6393e-05
5.17369e-05
4.58627e-05
3.82382e-05
2.7795e-05
1.36793e-05
4.17344e-06
5.95572e-05
5.58234e-05
5.11515e-05
4.52691e-05
3.76376e-05
2.71964e-05
1.3229e-05
4.12035e-06
5.7934e-05
5.41272e-05
4.94151e-05
4.35034e-05
3.58412e-05
2.54089e-05
1.19266e-05
3.96863e-06
5.51098e-05
5.12997e-05
4.65355e-05
4.05498e-05
3.28006e-05