/*--------------------------------*- C++ -*----------------------------------*\
| =========                 |                                                 |
| \\      /  F ield         | OpenFOAM: The Open Source CFD Toolbox           |
|  \\    /   O peration     | Version:  plus.master.MPPICInterFoam            |
|   \\  /    A nd           | Web:      www.OpenFOAM.com                      |
|    \\/     M anipulation  |                                                 |
\*---------------------------------------------------------------------------*/
FoamFile
{
    version     2.0;
    format      ascii;
    class       surfaceScalarField;
    location    "2.2";
    object      phi;
}
// * * * * * * * * * * * * * * * * * * * * * * * * * * * * * * * * * * * * * //

dimensions      [0 3 -1 0 0 0 0];

internalField   nonuniform List<scalar> 
34018
(
1.17747e-06
2.28562e-06
3.40075e-06
2.482e-06
1.79933e-06
3.01761e-06
1.89595e-06
1.71525e-06
3.12373e-06
1.51278e-06
2.76311e-06
2.9556e-06
2.37295e-06
1.881e-06
2.71546e-06
1.07444e-06
2.67695e-06
2.31118e-06
-1.29717e-06
-2.30355e-06
3.36433e-06
2.41277e-06
3.38326e-06
-7.3189e-08
-2.37923e-06
4.1679e-06
3.68182e-06
1.23684e-06
-2.54212e-06
4.50443e-06
3.85113e-06
2.46343e-06
-2.28481e-06
3.91454e-06
3.60767e-06
3.36193e-06
-2.00656e-06
3.02512e-06
3.02431e-06
3.71803e-06
-1.56747e-06
2.19499e-06
2.23546e-06
-1.18561e-06
1.57722e-06
3.42349e-06
1.71209e-06
-1.54695e-06
-1.02052e-06
4.5104e-06
2.88058e-06
-1.71074e-07
-8.42005e-07
5.66157e-06
1.14957e-06
-1.02837e-06
6.09949e-06
2.50653e-06
-8.85994e-07
5.19668e-06
3.76649e-06
-7.24402e-07
3.95628e-06
4.20464e-06
-5.99646e-07
2.74876e-06
-4.54487e-07
1.89034e-06
3.95959e-06
-1.86929e-06
4.40251e-07
5.39699e-06
3.24838e-06
-2.66814e-07
6.329e-07
6.91847e-06
1.27421e-06
5.15774e-07
7.39738e-06
2.69618e-06
4.04006e-07
6.09497e-06
3.92171e-06
4.27521e-07
4.62657e-06
4.4487e-06
4.12468e-07
3.18199e-06
3.68794e-07
2.14328e-06
4.26822e-06
-1.80055e-06
1.83561e-06
5.25557e-06
3.14899e-06
-3.38756e-07
1.92589e-06
6.54602e-06
1.12719e-06
1.82183e-06
6.87677e-06
2.53552e-06
1.54361e-06
5.80156e-06
3.79728e-06
1.42663e-06
4.42116e-06
4.33099e-06
1.34084e-06
3.05909e-06
1.15099e-06
2.06952e-06
4.16996e-06
-1.58753e-06
3.10839e-06
4.36862e-06
2.91767e-06
-2.2788e-07
3.17244e-06
5.38316e-06
1.07355e-06
3.05658e-06
5.66154e-06
2.28838e-06
2.70213e-06
4.85373e-06
3.51038e-06
2.49528e-06
3.70122e-06
3.98086e-06
2.17191e-06
2.60019e-06
1.80349e-06
1.80363e-06
3.81536e-06
-1.2182e-06
4.01182e-06
3.17742e-06
2.20578e-06
-3.52029e-08
4.22383e-06
3.92292e-06
1.11143e-06
4.20953e-06
4.18136e-06
2.16836e-06
3.86616e-06
3.58799e-06
3.04275e-06
3.37142e-06
2.79863e-06
3.409e-06
2.77176e-06
2.0582e-06
2.21945e-06
1.48431e-06
3.22324e-06
-8.61487e-07
2.17052e-06
1.67499e-06
4.0147e-06
1.04298e-07
2.6146e-06
4.29999e-06
1.08293e-06
2.77771e-06
4.38692e-06
1.89711e-06
2.42e-06
4.10419e-06
2.49801e-06
1.97535e-06
3.55675e-06
2.75038e-06
1.54016e-06
2.85847e-06
1.18301e-06
2.59247e-06
2.26672e-06
-1.04342e-06
-1.93511e-06
2.36705e-06
1.66647e-06
2.31787e-06
1.74577e-08
-2.23105e-06
2.69276e-06
2.65429e-06
1.22293e-06
-2.36861e-06
2.83084e-06
2.84736e-06
2.08322e-06
-2.072e-06
2.55692e-06
2.57031e-06
2.4986e-06
-1.65068e-06
2.19596e-06
2.06344e-06
2.53293e-06
-1.21971e-06
1.84695e-06
1.52684e-06
-8.81261e-07
1.55858e-06
2.24418e-06
1.18438e-06
-1.35504e-06
-9.5625e-07
2.8144e-06
2.07664e-06
-8.05466e-08
-1.13688e-06
3.27624e-06
1.3932e-06
-1.25021e-06
3.48847e-06
2.45758e-06
-1.03079e-06
3.08134e-06
2.96747e-06
-7.83095e-07
2.57958e-06
2.97522e-06
-5.65874e-07
2.09093e-06
-3.66668e-07
1.69582e-06
2.65829e-06
-1.68991e-06
4.07028e-07
3.1946e-06
2.53543e-06
-1.67069e-07
5.28125e-07
3.72503e-06
1.58538e-06
5.28269e-07
3.87912e-06
2.72532e-06
4.32292e-07
3.49529e-06
3.27449e-06
3.97875e-07
2.88931e-06
3.26046e-06
3.40001e-07
2.28655e-06
3.06991e-07
1.79943e-06
2.92441e-06
-1.61424e-06
1.65922e-06
3.13095e-06
2.48712e-06
-1.65526e-07
1.89082e-06
3.72735e-06
1.45179e-06
1.89387e-06
3.90147e-06
2.60659e-06
1.67585e-06
3.39557e-06
3.17162e-06
1.44476e-06
2.80796e-06
3.17863e-06
1.16078e-06
2.23106e-06
9.16744e-07
1.76638e-06
2.87123e-06
-1.31782e-06
2.49767e-06
2.74154e-06
2.11114e-06
-5.23967e-08
2.81393e-06
3.18409e-06
1.3206e-06
2.85539e-06
3.3282e-06
2.32644e-06
2.56627e-06
2.95999e-06
2.83219e-06
2.1667e-06
2.48129e-06
2.85186e-06
1.72521e-06
2.01894e-06
1.33182e-06
1.64729e-06
2.58926e-06
-9.3922e-07
2.81482e-06
2.27548e-06
1.52355e-06
4.59642e-08
3.15825e-06
2.58771e-06
1.15838e-06
3.2301e-06
2.69271e-06
1.93988e-06
2.94043e-06
2.43003e-06
2.34054e-06
2.47513e-06
2.09227e-06
2.38222e-06
1.97503e-06
1.76526e-06
1.53114e-06
1.4968e-06
2.16612e-06
-6.37945e-07
1.85679e-06
1.17101e-06
2.59543e-06
1.27105e-07
2.04002e-06
2.9717e-06
9.53177e-07
2.09927e-06
3.07913e-06
1.53563e-06
1.9399e-06
2.8378e-06
1.84473e-06
1.73245e-06
2.40484e-06
1.91049e-06
1.52708e-06
1.91889e-06
1.35413e-06
1.75426e-06
1.52037e-06
-4.17647e-07
-8.55125e-07
1.87763e-06
7.29948e-07
1.03613e-06
8.64281e-08
-9.5337e-07
1.98695e-06
1.15458e-06
6.65147e-07
-9.99995e-07
2.0285e-06
1.22335e-06
1.06741e-06
-9.05417e-07
1.93066e-06
1.12686e-06
1.28295e-06
-7.49571e-07
1.79289e-06
9.37405e-07
1.32256e-06
-5.77175e-07
1.65068e-06
7.3187e-07
-4.18842e-07
1.52937e-06
1.19831e-06
5.71142e-07
-5.0668e-07
-4.09093e-07
2.0401e-06
8.33183e-07
6.54013e-08
-4.60457e-07
2.2037e-06
7.52034e-07
-4.68899e-07
2.26997e-06
1.2347e-06
-4.3197e-07
2.12615e-06
1.48673e-06
-3.51008e-07
1.9332e-06
1.5184e-06
-2.50525e-07
1.74006e-06
-1.54108e-07
1.58097e-06
1.37397e-06
-5.95705e-07
2.26519e-07
2.17519e-06
9.79106e-07
5.80755e-08
2.34653e-07
2.37257e-06
8.04765e-07
2.40113e-07
2.4273e-06
1.35204e-06
2.38877e-07
2.27894e-06
1.62713e-06
2.23595e-07
2.04169e-06
1.65399e-06
2.05545e-07
1.8045e-06
1.86251e-07
1.61437e-06
1.49757e-06
-6.05419e-07
8.2327e-07
2.15053e-06
9.88992e-07
6.00386e-08
9.29496e-07
2.36756e-06
8.16825e-07
9.57404e-07
2.42935e-06
1.33364e-06
8.69851e-07
2.24506e-06
1.60195e-06
7.52761e-07
2.01257e-06
1.62905e-06
6.25616e-07
1.78499e-06
4.98581e-07
1.60231e-06
1.48196e-06
-5.08836e-07
1.21354e-06
2.00397e-06
8.56662e-07
7.62622e-08
1.36509e-06
2.16587e-06
7.45524e-07
1.40328e-06
2.21531e-06
1.21151e-06
1.29004e-06
2.07672e-06
1.45027e-06
1.1085e-06
1.89109e-06
1.48115e-06
9.08978e-07
1.70727e-06
7.16118e-07
1.55485e-06
1.35771e-06
-3.75737e-07
1.37873e-06
1.82602e-06
6.60469e-07
1.04005e-07
1.54064e-06
1.93358e-06
6.48968e-07
1.58621e-06
1.96431e-06
1.03377e-06
1.46508e-06
1.87057e-06
1.23527e-06
1.26256e-06
1.73967e-06
1.27007e-06
1.03638e-06
1.60644e-06
8.28367e-07
1.49148e-06
1.1671e-06
-2.6259e-07
1.66007e-06
5.37774e-07
1.2987e-06
1.28833e-07
1.72112e-06
1.46607e-06
5.48638e-07
1.73567e-06
1.52838e-06
8.47083e-07
1.67922e-06
1.42779e-06
1.00954e-06
1.59547e-06
1.23843e-06
1.05314e-06
1.50664e-06
1.01696e-06
1.42506e-06
9.83237e-07
8.33168e-07
-1.14087e-07
-3.26707e-07
1.65551e-06
2.55221e-07
4.09071e-07
9.95003e-08
-3.65245e-07
1.68773e-06
4.44136e-07
3.42156e-07
-3.77472e-07
1.69434e-06
4.65471e-07
5.21765e-07
-3.4238e-07
1.66136e-06
4.30585e-07
6.21983e-07
-2.79333e-07
1.61038e-06
3.60626e-07
6.44053e-07
-2.08728e-07
1.55455e-06
2.80557e-07
-1.44667e-07
1.50293e-06
5.95657e-07
2.1813e-07
-1.46243e-07
-1.41468e-07
1.70905e-06
2.84969e-07
9.497e-08
-1.63701e-07
1.75729e-06
3.81894e-07
-1.65891e-07
1.77003e-06
5.89392e-07
-1.47519e-07
1.7235e-06
6.98311e-07
-1.10102e-07
1.65499e-06
7.13808e-07
-6.73687e-08
1.58394e-06
-2.71134e-08
1.52146e-06
6.58286e-07
-1.74092e-07
1.26884e-07
1.74785e-06
3.30358e-07
9.50608e-08
1.31468e-07
1.80872e-06
4.04354e-07
1.32303e-07
1.82088e-06
6.34023e-07
1.34854e-07
1.76845e-06
7.50754e-07
1.30333e-07
1.68554e-06
7.62838e-07
1.23216e-07
1.60216e-06
1.16427e-07
1.53131e-06
7.03598e-07
-1.78153e-07
3.84382e-07
1.73837e-06
3.33424e-07
9.49468e-08
4.26526e-07
1.80133e-06
4.10027e-07
4.34518e-07
1.81378e-06
6.29929e-07
4.03916e-07
1.7564e-06
7.42478e-07
3.55485e-07
1.67573e-06
7.55452e-07
3.0144e-07
1.59474e-06
2.50738e-07
1.52533e-06
7.00138e-07
-1.42391e-07
5.55447e-07
1.68931e-06
2.87461e-07
1.01534e-07
6.13177e-07
1.73633e-06
3.80561e-07
6.26543e-07
1.7455e-06
5.79693e-07
5.82288e-07
1.70041e-06
6.83983e-07
5.09213e-07
1.63501e-06
7.01165e-07
4.27016e-07
1.56676e-06
3.48998e-07
1.50572e-06
6.53989e-07
-9.35893e-08
6.28316e-07
1.62574e-06
2.19944e-07
1.10436e-07
6.86059e-07
1.65588e-06
3.3935e-07
7.01825e-07
1.66047e-06
5.07484e-07
6.57035e-07
1.62873e-06
5.99278e-07
5.78526e-07
1.58059e-06
6.19684e-07
4.87982e-07
1.52729e-06
4.04322e-07
1.47733e-06
5.80467e-07
-4.97537e-08
1.56413e-06
1.69945e-07
6.01874e-07
1.19146e-07
1.58101e-06
6.55253e-07
2.97969e-07
1.58137e-06
6.77941e-07
4.32497e-07
1.55956e-06
6.43878e-07
5.09985e-07
1.52512e-06
5.72888e-07
5.34777e-07
1.48519e-06
4.86035e-07
1.44608e-06
5.07553e-07
4.12103e-07
6.04318e-09
-1.01607e-07
1.55619e-06
5.33086e-08
1.41009e-07
9.00436e-08
-1.11926e-07
1.56328e-06
1.46367e-07
1.83006e-07
-1.1259e-07
1.5624e-06
1.49853e-07
2.56226e-07
-9.7926e-08
1.54976e-06
1.36273e-07
2.99643e-07
-7.37813e-08
1.52947e-06
1.10676e-07
3.13708e-07
-4.69604e-08
1.50552e-06
8.02124e-08
-2.40061e-08
1.48267e-06
3.0031e-07
5.53135e-08
-3.11454e-09
-2.59916e-08
1.57163e-06
5.9005e-08
9.04824e-08
-3.22386e-08
1.58192e-06
1.97625e-07
-3.10232e-08
1.58176e-06
2.7941e-07
-2.20926e-08
1.5663e-06
3.24959e-07
-7.81965e-09
1.54222e-06
3.36553e-07
7.70443e-09
1.51474e-06
2.12992e-08
1.48848e-06
3.20603e-07
-1.04943e-08
7.8031e-08
1.58142e-06
7.12876e-08
9.18063e-08
8.06851e-08
1.59421e-06
2.07192e-07
8.25151e-08
1.59389e-06
2.94986e-07
8.31636e-08
1.57665e-06
3.41551e-07
8.12526e-08
1.5495e-06
3.51529e-07
7.88595e-08
1.51944e-06
7.67061e-08
1.49097e-06
3.34868e-07
-8.91085e-09
1.77308e-07
1.57726e-06
7.10555e-08
9.33516e-08
1.9042e-07
1.59003e-06
2.08314e-07
1.93096e-07
1.58966e-06
2.9324e-07
1.82996e-07
1.57191e-06
3.38787e-07
1.65532e-07
1.54522e-06
3.49002e-07
1.46408e-07
1.51564e-06
1.29046e-07
1.48741e-06
3.33016e-07
4.16042e-09
2.46386e-07
1.56084e-06
5.50708e-08
9.59069e-08
2.63597e-07
1.57044e-06
1.98381e-07
2.66855e-07
1.56958e-06
2.75605e-07
2.51589e-07
1.55432e-06
3.18873e-07
2.25633e-07
1.53093e-06
3.30244e-07
1.96105e-07
1.50424e-06
1.68381e-07
1.47827e-06
3.15792e-07
2.17879e-08
2.79851e-07
1.53775e-06
3.10071e-08
9.89718e-08
2.96208e-07
1.54393e-06
1.84114e-07
2.99466e-07
1.54244e-06
2.50274e-07
2.83749e-07
1.53006e-06
2.89252e-07
2.55663e-07
1.5106e-06
3.00935e-07
2.21841e-07
1.48761e-06
1.90116e-07
1.46511e-06
2.87709e-07
3.64297e-08
1.51403e-06
1.31972e-08
2.779e-07
1.00978e-07
1.51725e-06
2.92393e-07
1.69645e-07
1.51491e-06
2.97118e-07
2.2414e-07
1.50463e-06
2.84275e-07
2.57531e-07
1.4886e-06
2.57598e-07
2.69332e-07
1.46951e-06
2.22559e-07
1.45117e-06
2.59209e-07
1.90343e-07
4.31036e-08
-1.45673e-08
1.51098e-06
-1.88906e-08
3.48513e-08
7.30994e-08
-1.98328e-08
1.51134e-06
4.1625e-08
1.05181e-07
-2.07089e-08
1.5096e-06
4.28392e-08
1.31785e-07
-1.54544e-08
1.50373e-06
3.67167e-08
1.49278e-07
-5.33519e-09
1.4945e-06
2.41287e-08
1.57213e-07
7.6172e-09
1.48332e-06
6.64689e-09
1.90525e-08
1.4728e-06
1.57914e-07
-1.16863e-08
3.79776e-08
1.44303e-08
1.51505e-06
-1.03511e-08
7.33438e-08
1.26265e-08
1.51626e-06
1.10279e-07
1.25624e-08
1.51453e-06
1.39986e-07
1.53567e-08
1.50807e-06
1.58951e-07
2.04897e-08
1.49797e-06
1.67244e-07
2.67058e-08
1.48575e-06
3.19374e-08
1.47372e-06
1.66117e-07
3.43972e-08
5.01706e-08
1.51741e-06
-5.46358e-09
7.31117e-08
5.14997e-08
1.5189e-06
1.13012e-07
5.20941e-08
1.51686e-06
1.44821e-07
5.21755e-08
1.50991e-06
1.64779e-07
5.19116e-08
1.49924e-06
1.73221e-07
5.17138e-08
1.48656e-06
5.13775e-08
1.47384e-06
1.71497e-07
3.52172e-08
8.44754e-08
1.51516e-06
-6.35578e-09
7.36274e-08
8.8729e-08
1.51659e-06
1.1311e-07
9.00369e-08
1.5144e-06
1.4446e-07
8.74748e-08
1.50736e-06
1.64383e-07
8.23943e-08
1.4968e-06
1.72951e-07
7.63487e-08
1.48427e-06
7.05378e-08
1.47157e-06
1.7106e-07
4.09198e-08
1.10257e-07
1.50851e-06
-1.33388e-08
7.52853e-08
1.16577e-07
1.50941e-06
1.10705e-07
1.18516e-07
1.50721e-06
1.39388e-07
1.14407e-07
1.50065e-06
1.58086e-07
1.05919e-07
1.49077e-06
1.66178e-07
9.51018e-08
1.47889e-06
8.45007e-08
1.46683e-06
1.63784e-07
5.00484e-08
1.25168e-07
1.49895e-06
-2.59119e-08
7.76942e-08
1.33275e-07
1.49915e-06
1.06962e-07
1.35513e-07
1.49702e-06
1.31264e-07
1.30482e-07
1.49112e-06
1.47401e-07
1.19522e-07
1.48213e-06
1.54184e-07
1.04643e-07
1.47115e-06
9.00169e-08
1.46024e-06
1.51016e-07
5.846e-08
1.48933e-06
-4.07511e-08
1.31046e-07
7.91373e-08
1.48843e-06
1.39794e-07
1.02271e-07
1.48612e-06
1.41648e-07
1.21961e-07
1.4807e-06
1.35693e-07
1.34964e-07
1.47263e-06
1.22646e-07
1.40133e-07
1.46292e-06
1.03936e-07
1.45383e-06
1.3736e-07
8.48219e-08
4.6594e-08
1.33532e-08
1.48875e-06
-3.66355e-08
-9.72924e-10
5.60568e-08
6.30382e-09
1.48723e-06
9.5324e-09
6.51966e-08
2.55898e-09
1.48526e-06
1.33345e-08
7.23647e-08
3.99853e-09
1.48184e-06
1.07542e-08
7.73951e-08
1.00312e-08
1.47713e-06
1.42422e-09
8.05023e-08
1.92713e-08
1.47155e-06
-1.27416e-08
2.76069e-08
1.4664e-06
8.50267e-08
-2.90995e-08
3.95949e-08
2.31152e-08
1.48916e-06
-2.23982e-08
5.43561e-08
2.03576e-08
1.48824e-06
6.68074e-08
1.80611e-08
1.48632e-06
7.64176e-08
1.82966e-08
1.48276e-06
8.30328e-08
2.08859e-08
1.47776e-06
8.73295e-08
2.5061e-08
1.47177e-06
2.85185e-08
1.46585e-06
9.00163e-08
3.43756e-08
3.32959e-08
1.48926e-06
-1.59464e-08
5.19476e-08
3.34943e-08
1.48848e-06
6.69664e-08
3.31068e-08
1.48645e-06
7.86399e-08
3.29682e-08
1.48276e-06
8.67056e-08
3.32362e-08
1.47765e-06
9.16637e-08
3.38489e-08
1.47158e-06
3.41931e-08
1.46539e-06
9.34792e-08
3.38657e-08
4.31537e-08
1.4878e-06
-1.59381e-08
5.15291e-08
4.56413e-08
1.48702e-06
6.6823e-08
4.7021e-08
1.48493e-06
7.88381e-08
4.66603e-08
1.48124e-06
8.72412e-08
4.49636e-08
1.47616e-06
9.23411e-08
4.24694e-08
1.47013e-06
3.9903e-08
1.46388e-06
9.4002e-08
3.78833e-08
5.10706e-08
1.48471e-06
-2.17448e-08
5.32098e-08
5.5832e-08
1.48376e-06
6.65331e-08
5.87217e-08
1.48168e-06
7.71491e-08
5.80897e-08
1.47811e-06
8.463e-08
5.44269e-08
1.47319e-06
8.90302e-08
4.8808e-08
1.46729e-06
4.32541e-08
1.46119e-06
9.01433e-08
4.58856e-08
5.69848e-08
1.48044e-06
-3.33323e-08
5.64457e-08
6.44145e-08
1.47914e-06
6.59886e-08
6.8126e-08
1.47712e-06
7.36891e-08
6.67001e-08
1.47374e-06
7.91339e-08
6.07932e-08
1.46904e-06
8.21497e-08
5.1675e-08
1.46336e-06
4.2674e-08
1.45763e-06
8.24634e-08
5.46313e-08
1.47634e-06
-4.96766e-08
6.43341e-08
5.91517e-08
1.47428e-06
7.25301e-08
6.43861e-08
1.47215e-06
7.5451e-08
6.90632e-08
1.46889e-06
7.22464e-08
7.22469e-08
1.46451e-06
6.37121e-08
7.37237e-08
1.4593e-06
5.09066e-08
1.45441e-06
7.38404e-08
3.7632e-08
3.6563e-08
1.68861e-08
1.47486e-06
-3.12515e-08
-8.1836e-09
3.89836e-08
1.01828e-08
1.47316e-06
1.05998e-09
4.04787e-08
5.93777e-09
1.4714e-06
5.64341e-09
4.1019e-08
5.92404e-09
1.46917e-06
4.67109e-09
4.12236e-08
9.90468e-09
1.46652e-06
-1.70598e-09
4.24488e-08
1.68878e-08
1.46361e-06
-1.28563e-08
2.3069e-08
1.46089e-06
4.66824e-08
-2.47313e-08
2.97301e-08
2.00642e-08
1.47424e-06
-1.83591e-08
3.66001e-08
1.70309e-08
1.47289e-06
4.0948e-08
1.44301e-08
1.47118e-06
4.35214e-08
1.41833e-08
1.46888e-06
4.5296e-08
1.60943e-08
1.46611e-06
4.75135e-08
1.93997e-08
1.46304e-06
2.1931e-08
1.46006e-06
5.04574e-08
2.45007e-08
2.20022e-08
1.47362e-06
-1.1486e-08
3.39027e-08
2.17284e-08
1.47238e-06
4.06356e-08
2.11842e-08
1.47066e-06
4.51358e-08
2.11535e-08
1.46833e-06
4.82173e-08
2.15767e-08
1.46554e-06
5.08466e-08
2.22048e-08
1.46248e-06
2.23687e-08
1.45947e-06
5.28775e-08
2.36126e-08
2.33742e-08
1.47254e-06
-1.08704e-08
3.3353e-08
2.51974e-08
1.47129e-06
4.06013e-08
2.65051e-08
1.46956e-06
4.55052e-08
2.66954e-08
1.46723e-06
4.88017e-08
2.5866e-08
1.46445e-06
5.13637e-08
2.42769e-08
1.46142e-06
2.24285e-08
1.45843e-06
5.31868e-08
2.66548e-08
2.4654e-08
1.47097e-06
-1.5816e-08
3.4892e-08
2.83857e-08
1.46965e-06
4.08357e-08
3.12684e-08
1.46791e-06
4.46792e-08
3.14947e-08
1.46561e-06
4.71335e-08
2.93118e-08
1.46287e-06
4.89981e-08
2.55225e-08
1.45988e-06
2.17325e-08
1.45693e-06
5.04391e-08
3.29904e-08
2.688e-08
1.46904e-06
-2.53774e-08
3.79845e-08
3.25779e-08
1.46755e-06
4.10806e-08
3.64235e-08
1.46582e-06
4.26242e-08
3.61872e-08
1.46359e-06
4.34162e-08
3.24313e-08
1.46093e-06
4.41642e-08
2.62127e-08
1.45799e-06
2.01725e-08
1.45511e-06
4.50852e-08
4.03537e-08
1.46724e-06
-3.85293e-08
3.28913e-08
4.08905e-08
1.46537e-06
3.89285e-08
4.05277e-08
1.46359e-06
4.24646e-08
3.97022e-08
1.46144e-06
4.0936e-08
3.87774e-08
1.45893e-06
3.52689e-08
3.84844e-08
1.45614e-06
2.6484e-08
1.4535e-06
3.93877e-08
1.77054e-08
2.31147e-08
1.13394e-08
1.46666e-06
-2.03901e-08
-5.99739e-09
2.40519e-08
6.50405e-09
1.4657e-06
5.54055e-10
2.39482e-08
3.35912e-09
1.46468e-06
3.79086e-09
2.34076e-08
3.03912e-09
1.46344e-06
3.48323e-09
2.31517e-08
5.43017e-09
1.46204e-06
-2.22013e-10
2.42997e-08
1.00297e-08
1.46049e-06
-7.15421e-09
1.43454e-08
1.45883e-06
2.76026e-08
-1.43433e-08
1.80729e-08
1.32463e-08
1.46624e-06
-1.14386e-08
2.20907e-08
1.09101e-08
1.46531e-06
2.3994e-08
9.12953e-09
1.46423e-06
2.50041e-08
9.04963e-09
1.46292e-06
2.60243e-08
1.04954e-08
1.46147e-06
2.80335e-08
1.29146e-08
1.45993e-06
1.48244e-08
1.45835e-06
3.11529e-08
1.4322e-08
1.35517e-08
1.46575e-06
-6.3401e-09
2.02617e-08
1.32496e-08
1.46479e-06
2.38815e-08
1.29405e-08
1.46366e-06
2.62668e-08
1.30331e-08
1.4623e-06
2.82258e-08
1.34452e-08
1.46082e-06
3.05098e-08
1.39551e-08
1.45932e-06
1.40506e-08
1.45786e-06
3.29585e-08
1.36407e-08
1.33884e-08
1.46507e-06
-5.69995e-09
1.99478e-08
1.46694e-08
1.46407e-06
2.3978e-08
1.56528e-08
1.4629e-06
2.6646e-08
1.59036e-08
1.4615e-06
2.8714e-08
1.5442e-08
1.46003e-06
3.08635e-08
1.43733e-08
1.45856e-06
1.29421e-08
1.45717e-06
3.30201e-08
1.56908e-08
1.35826e-08
1.46425e-06
-8.99949e-09
2.1069e-08
1.61722e-08
1.46322e-06
2.42605e-08
1.82735e-08
1.46203e-06
2.61864e-08
1.86052e-08
1.46064e-06
2.75913e-08
1.72635e-08
1.45918e-06
2.91273e-08
1.4708e-08
1.45773e-06
1.19121e-08
1.45635e-06
3.0876e-08
1.98762e-08
1.49944e-08
1.46327e-06
-1.51491e-08
2.32629e-08
1.87178e-08
1.46226e-06
2.45911e-08
2.16293e-08
1.4611e-06
2.49138e-08
2.18257e-08
1.45975e-06
2.50596e-08
1.95735e-08
1.45833e-06
2.56633e-08
1.55077e-08
1.45686e-06
1.13276e-08
1.45541e-06
2.6891e-08
2.48803e-08
1.46223e-06
-2.31507e-08
1.88898e-08
2.55011e-08
1.46123e-06
2.30725e-08
2.45071e-08
1.46013e-06
2.61504e-08
2.30922e-08
1.45887e-06
2.57741e-08
2.18769e-08
1.45749e-06
2.24544e-08
2.1637e-08
1.45599e-06
1.68467e-08
1.45443e-06
2.27928e-08
1.11668e-08
1.32478e-08
5.70331e-09
1.46281e-06
-1.17038e-08
-3.31113e-09
1.44802e-08
2.61305e-09
1.46263e-06
1.39044e-09
1.45952e-08
6.38649e-10
1.46227e-06
3.5159e-09
1.45679e-08
3.04017e-10
1.46168e-06
3.64966e-09
1.48791e-08
1.57392e-09
1.46089e-06
1.86598e-09
1.60159e-08
4.17117e-09
1.45985e-06
-1.68006e-09
6.91668e-09
1.45846e-06
1.80112e-08
-5.48087e-09
1.0045e-08
7.42785e-09
1.46301e-06
-6.45205e-09
1.31069e-08
5.84511e-09
1.46265e-06
1.44543e-08
4.74616e-09
1.46214e-06
1.55067e-08
4.63602e-09
1.46148e-06
1.6751e-08
5.4581e-09
1.4607e-06
1.85908e-08
6.93274e-09
1.45978e-06
8.28819e-09
1.45864e-06
2.10474e-08
7.77701e-09
8.03869e-09
1.46297e-06
-3.48471e-09
1.20041e-08
7.7412e-09
1.46248e-06
1.43542e-08
7.51258e-09
1.46187e-06
1.62581e-08
7.53141e-09
1.46114e-06
1.81428e-08
7.78149e-09
1.46036e-06
2.02996e-08
8.14629e-09
1.4595e-06
8.32067e-09
1.45854e-06
2.2541e-08
7.30238e-09
8.54434e-09
1.46268e-06
-2.87654e-09
1.17768e-08
9.30426e-09
1.46213e-06
1.43802e-08
9.84217e-09
1.46146e-06
1.64985e-08
9.98404e-09
1.46071e-06
1.85064e-08
9.73302e-09
1.45992e-06
2.06404e-08
9.11404e-09
1.4591e-06
8.20916e-09
1.45823e-06
2.27083e-08
8.43957e-09
9.30928e-09
1.46217e-06
-4.41355e-09
1.23773e-08
1.09478e-08
1.46164e-06
1.45366e-08
1.21877e-08
1.46098e-06
1.62473e-08
1.2442e-08
1.46023e-06
1.78531e-08
1.1697e-08
1.45945e-06
1.9574e-08
1.01293e-08
1.45861e-06
8.20501e-09
1.45773e-06
2.13272e-08
1.08611e-08
1.06269e-08
1.46138e-06
-7.57962e-09
1.36277e-08
1.30079e-08
1.46099e-06
1.47711e-08
1.4837e-08
1.46041e-06
1.55233e-08
1.51347e-08
1.45971e-06
1.62746e-08
1.39297e-08
1.45892e-06
1.72626e-08
1.14442e-08
1.45803e-06
8.49058e-09
1.457e-06
1.8578e-08
1.39682e-08
1.46028e-06
-1.20097e-08
1.29629e-08
1.50478e-08
1.46015e-06
1.59097e-08
1.4865e-08
1.45974e-06
1.79863e-08
1.44836e-08
1.45912e-06
1.81133e-08
1.41941e-08
1.45832e-06
1.64336e-08
1.43437e-08
1.4573e-06
1.31501e-08
1.45601e-06
1.53118e-08
9.20599e-09
7.82977e-09
3.17452e-09
1.46101e-06
-6.60548e-09
-2.23932e-09
9.34479e-09
1.5682e-09
1.46129e-06
6.68988e-10
9.77902e-09
5.2628e-10
1.46119e-06
2.03429e-09
1.00713e-08
3.19581e-10
1.46079e-06
2.22692e-09
1.04241e-08
8.9762e-10
1.46009e-06
1.44397e-09
1.09532e-08
2.12005e-09
1.45907e-06
-1.53144e-10
3.53029e-09
1.45763e-06
1.15459e-08
-1.919e-09
6.24967e-09
4.57942e-09
1.46164e-06
-3.87763e-09
8.5815e-09
3.72478e-09
1.46155e-06
9.68343e-09
3.06481e-09
1.46123e-06
1.05692e-08
2.87211e-09
1.46075e-06
1.14051e-08
3.15073e-09
1.46012e-06
1.23184e-08
3.80055e-09
1.45931e-06
4.52934e-09
1.45826e-06
1.32843e-08
5.14493e-09
5.25059e-09
1.46187e-06
-2.53798e-09
7.94534e-09
5.0566e-09
1.46157e-06
9.52975e-09
4.85555e-09
1.46114e-06
1.08662e-08
4.78139e-09
1.46062e-06
1.20889e-08
4.85341e-09
1.46003e-06
1.3269e-08
5.02821e-09
1.45934e-06
5.17947e-09
1.45853e-06
1.43065e-08
4.87965e-09
5.87879e-09
1.46175e-06
-2.19192e-09
7.74827e-09
6.26357e-09
1.46139e-06
9.46531e-09
6.49238e-09
1.46092e-06
1.09446e-08
6.53776e-09
1.46039e-06
1.22821e-08
6.40883e-09
1.45981e-06
1.35347e-08
6.11273e-09
1.45917e-06
5.68804e-09
1.45845e-06
1.45667e-08
5.38241e-09
6.54181e-09
1.46129e-06
-2.78376e-09
7.98236e-09
7.44425e-09
1.461e-06
9.51121e-09
8.08705e-09
1.46058e-06
1.08102e-08
8.25345e-09
1.46007e-06
1.19645e-08
7.91041e-09
1.45948e-06
1.30292e-08
7.11453e-09
1.45881e-06
6.07819e-09
1.45805e-06
1.39314e-08
6.55419e-09
7.30232e-09
1.46045e-06
-4.20537e-09
8.58569e-09
8.68458e-09
1.46039e-06
9.63902e-09
9.69526e-09
1.46009e-06
1.0451e-08
9.93498e-09
1.45964e-06
1.11356e-08
9.3903e-09
1.45903e-06
1.17636e-08
8.09962e-09
1.45826e-06
6.37603e-09
1.45729e-06
1.24205e-08
8.23007e-09
1.4592e-06
-6.51478e-09
8.40845e-09
9.33652e-09
1.45952e-06
1.02512e-08
9.72494e-09
1.45947e-06
1.13802e-08
9.92902e-09
1.45911e-06
1.1555e-08
9.99915e-09
1.45845e-06
1.08154e-08
1.00279e-08
1.45748e-06
9.15454e-09
1.45616e-06
1.03293e-08
6.73761e-09
4.76883e-09
2.49785e-09
1.46025e-06
-4.0555e-09
-2.08706e-09
5.82729e-09
2.04815e-09
1.4607e-06
-7.73752e-10
6.11722e-09
1.68746e-09
1.46066e-06
-2.81067e-10
6.21678e-09
1.62207e-09
1.46031e-06
-2.86694e-10
6.1871e-09
1.84285e-09
1.45965e-06
-6.86013e-10
6.0921e-09
2.26753e-09
1.45868e-06
-1.3515e-09
2.75207e-09
1.45734e-06
6.02549e-09
-2.13131e-09
4.26759e-09
3.45343e-09
1.46094e-06
-2.69337e-09
5.57697e-09
3.26804e-09
1.4609e-06
6.14039e-09
2.96887e-09
1.46058e-06
6.46283e-09
2.79975e-09
1.46014e-06
6.58664e-09
2.87033e-09
1.45958e-06
6.60423e-09
3.10737e-09
1.45889e-06
3.37958e-09
1.45804e-06
6.59388e-09
3.92509e-09
3.59372e-09
1.46119e-06
-2.27002e-09
5.36877e-09
3.59989e-09
1.46087e-06
6.14046e-09
3.5245e-09
1.46044e-06
6.61181e-09
3.47753e-09
1.45995e-06
6.89077e-09
3.50847e-09
1.45944e-06
7.05851e-09
3.59725e-09
1.45891e-06
3.69106e-09
1.45836e-06
7.13895e-09
3.89969e-09
3.59296e-09
1.46108e-06
-2.3454e-09
5.29042e-09
3.80101e-09
1.46068e-06
6.10364e-09
3.9427e-09
1.46021e-06
6.65554e-09
3.99307e-09
1.45972e-06
7.00417e-09
3.97705e-09
1.45923e-06
7.24366e-09
3.90865e-09
1.45876e-06
3.80616e-09
1.45831e-06
7.37314e-09
4.09719e-09
3.57641e-09
1.46065e-06
-2.73225e-09
5.39981e-09
3.96698e-09
1.46035e-06
6.13893e-09
4.31358e-09
1.45993e-06
6.62827e-09
4.44515e-09
1.45947e-06
6.92014e-09
4.36634e-09
1.45897e-06
7.10374e-09
4.10984e-09
1.45846e-06
3.7794e-09
1.45792e-06
7.18116e-09
4.50098e-09
3.63912e-09
1.45988e-06
-3.37415e-09
5.67079e-09
4.20176e-09
1.45986e-06
6.22137e-09
4.72644e-09
1.4596e-06
6.5143e-09
4.8974e-09
1.45919e-06
6.62368e-09
4.73539e-09
1.45866e-06
6.62733e-09
4.27372e-09
1.45801e-06
3.68071e-09
1.45719e-06
6.56035e-09
5.13142e-09
1.45873e-06
-4.17306e-09
3.78678e-09
5.98725e-09
1.45918e-06
4.70558e-09
6.25867e-09
1.45922e-06
5.25848e-09
6.31655e-09
1.45891e-06
5.36599e-09
6.21389e-09
1.4583e-06
5.06865e-09
6.01078e-09
1.45737e-06
4.40727e-09
1.4561e-06
5.77822e-09
3.54978e-09
2.43838e-09
1.86682e-09
1.46006e-06
-2.44674e-09
-1.4045e-09
2.7657e-09
1.80782e-09
1.46057e-06
-1.31765e-09
2.73342e-09
1.80776e-09
1.46071e-06
-1.39718e-09
2.60821e-09
1.86707e-09
1.46052e-06
-1.57979e-09
2.39669e-09
1.90232e-09
1.46007e-06
-1.73481e-09
2.1577e-09
1.96796e-09
1.45933e-06
-1.93509e-09
2.04262e-09
1.45827e-06
2.11228e-09
-2.27972e-09
2.36596e-09
2.24454e-09
1.46068e-06
-1.72874e-09
2.7785e-09
2.16703e-09
1.46068e-06
2.80796e-09
2.23019e-09
1.4605e-06
2.72303e-09
2.26415e-09
1.4602e-06
2.52703e-09
2.32633e-09
1.45984e-06
2.29493e-09
2.43322e-09
1.45942e-06
2.52837e-09
1.45888e-06
2.15821e-09
2.41485e-09
1.95535e-09
1.46092e-06
-1.67757e-09
2.7737e-09
1.98781e-09
1.4606e-06
2.88883e-09
2.08578e-09
1.46024e-06
2.84926e-09
2.14147e-09
1.45988e-06
2.70659e-09
2.21061e-09
1.45957e-06
2.54684e-09
2.29282e-09
1.45932e-06
2.36527e-09
1.4591e-06
2.46672e-09
2.48311e-09
1.56341e-09
1.46086e-06
-1.91799e-09
2.81694e-09
1.68354e-09
1.46043e-06
2.95138e-09
1.8187e-09
1.46001e-06
2.93151e-09
1.90764e-09
1.45964e-06
2.81393e-09
1.96994e-09
1.45935e-06
2.69875e-09
2.01762e-09
1.45914e-06
2.05648e-09
1.45902e-06
2.65644e-09
2.54403e-09
1.23571e-09
1.46055e-06
-2.21349e-09
2.9157e-09
1.36218e-09
1.46021e-06
3.02239e-09
1.54945e-09
1.45984e-06
2.98254e-09
1.66206e-09
1.45949e-06
2.85376e-09
1.71034e-09
1.45918e-06
2.72486e-09
1.71334e-09
1.45892e-06
1.72414e-09
1.4587e-06
2.62992e-09
2.55415e-09
1.02052e-09
1.45996e-06
-2.39299e-09
3.02802e-09
1.10899e-09
1.45994e-06
3.08511e-09
1.38067e-09
1.45973e-06
2.9963e-09
1.50445e-09
1.45943e-06
2.82655e-09
1.51813e-09
1.45906e-06
2.63763e-09
1.47076e-09
1.45863e-06
1.49263e-09
1.45809e-06
2.41105e-09
2.60333e-09
1.45903e-06
-2.28822e-09
7.34633e-10
3.09715e-09
1.45954e-06
1.07593e-09
3.09388e-09
1.45964e-06
1.39545e-09
2.97384e-09
1.45944e-06
1.47979e-09
2.80995e-09
1.45897e-06
1.40014e-09
2.6125e-09
1.45823e-06
1.28656e-09
1.45716e-06
2.38762e-09
1.29062e-09
5.48266e-10
7.10863e-10
1.45981e-06
-6.203e-10
-2.94253e-10
3.48525e-10
8.15383e-10
1.46047e-06
-8.83913e-10
3.37851e-10
9.14253e-10
1.46077e-06
-1.10259e-09
3.51918e-10
9.28809e-10
1.4608e-06
-1.17076e-09
3.34414e-10
8.39473e-10
1.46058e-06
-1.06546e-09
2.94588e-10
7.09642e-10
1.46008e-06
-8.94983e-10
5.83256e-10
1.45926e-06
4.61073e-10
-9.3812e-10
6.37275e-10
5.92355e-10
1.46047e-06
-6.90518e-10
4.38513e-10
6.83202e-10
1.46059e-06
4.21554e-10
8.1741e-10
1.46055e-06
4.04558e-10
9.02566e-10
1.46046e-06
3.61086e-10
9.33935e-10
1.46034e-06
2.90303e-10
9.3939e-10
1.46018e-06
9.32871e-10
1.4599e-06
2.44039e-10
7.60759e-10
4.70796e-10
1.46077e-06
-8.21602e-10
5.8509e-10
5.43165e-10
1.46055e-06
5.3925e-10
6.41918e-10
1.46032e-06
4.95908e-10
7.14591e-10
1.46017e-06
4.51035e-10
7.64216e-10
1.46009e-06
4.05787e-10
8.08177e-10
1.46008e-06
8.37611e-10
1.46011e-06
4.15101e-10
8.21765e-10
3.47896e-10
1.46081e-06
-9.33119e-10
6.78792e-10
3.97608e-10
1.46047e-06
6.1761e-10
4.68304e-10
1.46018e-06
5.63751e-10
5.30776e-10
1.46e-06
5.19163e-10
5.85093e-10
1.45992e-06
4.98909e-10
6.39411e-10
1.45996e-06
6.94835e-10
1.46009e-06
5.35498e-10
7.76726e-10
2.45849e-10
1.46062e-06
-9.06981e-10
7.10822e-10
2.45013e-10
1.46037e-06
6.62644e-10
3.02703e-10
1.46013e-06
6.12762e-10
3.58569e-10
1.45995e-06
5.74708e-10
4.17216e-10
1.45986e-06
5.65249e-10
4.7883e-10
1.45984e-06
5.85376e-10
1.45986e-06
5.72862e-10
6.19074e-10
1.6219e-10
1.46017e-06
-7.3681e-10
6.87749e-10
6.17161e-11
1.46024e-06
6.73941e-10
1.54918e-10
1.46016e-06
6.44105e-10
2.27828e-10
1.46004e-06
6.05852e-10
2.98514e-10
1.45989e-06
5.98843e-10
3.50914e-10
1.4597e-06
5.26937e-10
1.45939e-06
5.75416e-10
4.45523e-10
1.45938e-06
-3.71904e-10
-4.84335e-11
6.28607e-10
1.46e-06
-1.07256e-10
6.48227e-10
1.46024e-06
6.34597e-11
6.50222e-10
1.46022e-06
1.5388e-10
6.81319e-10
1.45997e-06
1.88803e-10
7.55017e-10
1.45945e-06
2.03586e-10
1.4586e-06
7.9854e-10
4.74116e-10
-4.72068e-10
-2.75738e-10
1.4592e-06
7.39809e-10
5.45989e-10
-6.2717e-10
-1.54833e-10
1.45989e-06
-1.34775e-10
-4.36901e-10
-1.09945e-10
1.4603e-06
-1.66991e-10
-2.24285e-10
-1.66492e-10
1.46046e-06
-4.68072e-11
-4.24432e-11
-3.23834e-10
1.46037e-06
2.09564e-10
1.19871e-10
-5.13203e-10
1.46002e-06
4.50959e-10
-8.14306e-10
1.45936e-06
4.10718e-10
6.08164e-10
-3.26315e-10
-4.53763e-10
1.45986e-06
5.53143e-11
-5.82013e-10
-4.23024e-10
1.46001e-06
-4.25874e-10
-3.39486e-10
1.46009e-06
-2.07724e-10
-3.21075e-10
1.46012e-06
-1.03144e-11
-3.55778e-10
1.46014e-06
7.82779e-11
-3.89181e-10
1.46011e-06
-5.27578e-10
1.45997e-06
-4.35861e-12
-2.41398e-10
-2.44465e-10
1.46024e-06
-4.11992e-11
-4.97925e-10
-2.54254e-10
1.46006e-06
-3.95889e-10
-2.27004e-10
1.45994e-06
-2.3332e-10
-2.13437e-10
1.45992e-06
-7.11159e-11
-2.16368e-10
1.45998e-06
5.71835e-11
-2.26323e-10
1.46013e-06
-2.60313e-10
1.46032e-06
4.37486e-11
-2.62272e-10
4.89334e-12
1.46036e-06
4.22789e-11
-4.70985e-10
-2.69759e-11
1.46006e-06
-3.80997e-10
-5.3172e-11
1.45988e-06
-2.22045e-10
-4.67173e-11
1.45983e-06
-4.7291e-11
-2.79091e-11
1.45991e-06
7.34345e-11
-2.80519e-12
1.4601e-06
2.51095e-11
1.4604e-06
9.12925e-11
-4.02241e-10
2.06427e-10
1.46024e-06
2.99815e-10
-5.14514e-10
1.49292e-10
1.46004e-06
-3.91465e-10
1.01837e-10
1.45992e-06
-2.10916e-10
1.02998e-10
1.45988e-06
-1.50706e-11
1.41646e-10
1.45994e-06
1.37086e-10
2.00874e-10
1.46007e-06
2.80573e-10
1.46027e-06
2.00367e-10
-6.69388e-10
3.129e-10
1.45986e-06
6.80945e-10
-6.25664e-10
1.41497e-10
1.45998e-06
-4.29143e-10
1.47214e-10
1.46004e-06
-2.01079e-10
1.77437e-10
1.46005e-06
3.20149e-11
2.43329e-10
1.46006e-06
2.24359e-10
3.50302e-10
1.46002e-06
4.94216e-10
1.45988e-06
3.27614e-10
-8.23897e-10
1.45915e-06
8.72518e-10
3.33168e-10
-7.3667e-10
1.45983e-06
-7.63446e-12
-4.6895e-10
1.46022e-06
3.44281e-11
-1.78011e-10
1.46035e-06
1.1145e-10
1.06986e-10