/*--------------------------------*- C++ -*----------------------------------*\
| =========                 |                                                 |
| \\      /  F ield         | OpenFOAM: The Open Source CFD Toolbox           |
|  \\    /   O peration     | Version:  plus.master                           |
|   \\  /    A nd           | Web:      www.OpenFOAM.com                      |
|    \\/     M anipulation  |                                                 |
\*---------------------------------------------------------------------------*/
FoamFile
{
    version     2.0;
    format      ascii;
    class       surfaceScalarField;
    location    "3.4";
    object      alphaPhi;
}
// * * * * * * * * * * * * * * * * * * * * * * * * * * * * * * * * * * * * * //

dimensions      [0 3 -1 0 0 0 0];

internalField   nonuniform List<scalar> 
138768
(
1.50242e-06
1.47859e-06
1.29559e-07
-1.555e-06
-1.55557e-06
7.46333e-07
2.08496e-06
1.75803e-07
-1.50437e-06
2.46572e-07
2.3306e-06
3.23694e-07
-2.15431e-06
-2.84635e-07
2.47473e-06
4.74398e-07
-2.41769e-06
-8.03218e-07
2.43771e-06
2.901e-07
-2.20833e-06
-1.66084e-06
2.09388e-06
1.53332e-07
-1.39047e-06
1.63677e-06
1.19506e-07
-1.79569e-06
-1.61939e-06
1.92613e-06
6.25822e-07
1.71693e-07
-1.24474e-06
1.29499e-06
1.33611e-06
1.27053e-06
8.33018e-07
1.17046e-06
1.55392e-06
-7.78437e-07
1.98208e-06
1.83183e-06
-1.40408e-06
1.26769e-06
1.59266e-06
-2.17775e-06
1.50157e-06
1.24789e-06
1.18695e-06
1.46061e-07
-1.87485e-06
2.06956e-06
1.24288e-07
3.20193e-07
-1.88798e-06
9.49321e-07
7.31524e-07
1.59602e-06
2.80547e-07
2.04126e-07
1.57311e-06
-2.49279e-07
3.29838e-07
2.20238e-06
-9.50223e-07
2.58411e-07
1.66171e-06
-2.21781e-06
9.75377e-07
1.75747e-06
5.02419e-07
2.87284e-07
-1.82118e-06
1.91235e-06
-3.01116e-07
4.44851e-07
-1.93156e-06
1.67506e-06
-8.21158e-07
1.7448e-06
8.09712e-08
-1.6575e-07
1.94042e-06
-5.18286e-08
-1.61443e-08
4.7893e-07
-1.24049e-06
-2.34717e-07
1.56809e-06
-2.09188e-06
-9.75793e-07
2.59551e-06
-5.57304e-07
5.76195e-07
-1.6064e-06
2.06506e-06
-7.91666e-07
3.12203e-07
-1.88648e-06
7.94162e-07
-1.45573e-06
1.7201e-06
2.11119e-07
-1.0944e-06
1.4661e-06
-1.6944e-07
-9.53863e-07
1.27439e-06
-8.816e-07
-1.16367e-06
1.55646e-06
-2.14578e-06
-1.62132e-06
1.82777e-06
-1.33849e-06
2.70556e-07
-1.63481e-06
1.85419e-06
-1.67632e-06
1.65149e-07
-1.13419e-06
1.24598e-06
-2.24805e-06
1.24613e-06
6.06638e-07
-2.09691e-06
1.61505e-06
-8.2315e-07
-1.83602e-06
2.30134e-06
-1.51535e-06
-2.2402e-06
1.60263e-06
-2.23037e-06
-2.2369e-06
1.18585e-06
-1.72211e-06
1.35668e-07
-1.98224e-06
1.42879e-06
1.26203e-07
-1.53617e-06
-1.69461e-06
1.00185e-06
1.67736e-07
-1.98729e-06
2.30338e-07
2.93496e-07
-1.61935e-06
-5.75752e-07
4.22583e-07
-1.45231e-06
-1.34359e-06
2.39276e-07
-1.71143e-06
-1.75756e-06
1.40896e-07
-1.96262e-06
1.1467e-07
-1.83416e-06
-1.7611e-06
1.0977e-06
1.0608e-06
5.81909e-07
-1.31658e-06
-1.29423e-06
7.16318e-07
1.24868e-06
7.28906e-07
-1.42024e-06
1.18252e-07
1.30819e-06
1.10085e-06
-1.48715e-06
-6.0336e-07
1.26024e-06
1.4079e-06
-1.472e-06
-1.05462e-06
1.11952e-06
9.91872e-07
-1.36989e-06
-1.33825e-06
1.04027e-06
6.57773e-07
-1.26095e-06
8.30644e-07
5.62464e-07
-1.48703e-06
-1.12471e-06
1.22634e-06
6.59044e-07
7.27917e-07
-1.38065e-06
1.14837e-06
1.09271e-06
1.52725e-06
5.10734e-07
9.8135e-07
2.51858e-06
-7.33847e-07
9.31729e-07
3.40508e-06
-1.36855e-06
7.40836e-07
2.6063e-06
-1.46081e-06
9.31093e-07
1.45411e-06
4.23934e-07
6.43558e-07
-1.55143e-06
1.2435e-06
6.31787e-08
1.04857e-06
-1.37588e-06
1.25928e-06
2.94632e-07
2.37852e-06
4.10376e-07
1.80965e-07
3.41858e-06
-1.45175e-07
1.17728e-07
2.92528e-06
-9.39256e-07
1.63703e-08
2.95557e-06
-1.19012e-06
8.31219e-08
2.85661e-06
-5.64893e-08
9.61449e-07
-1.38374e-06
1.11477e-06
-5.57126e-07
1.26652e-06
-1.31599e-06
1.34733e-06
-1.04226e-06
2.84938e-06
4.64346e-07
-2.96615e-07
3.64081e-06
2.42895e-07
1.52239e-07
6.70239e-07
4.40217e-07
-4.93154e-08
1.31452e-06
-2.04335e-07
-6.54667e-07
4.09766e-06
-4.33943e-07
1.57526e-06
-8.25827e-07
8.75252e-07
-9.49589e-07
1.02199e-06
-1.19243e-06
6.17243e-07
-1.38067e-06
2.30855e-06
3.84858e-08
-9.03985e-07
2.75522e-06
6.23497e-08
2.48985e-07
1.26336e-06
-3.31082e-07
-6.45974e-07
2.65993e-06
-7.44103e-07
-1.11132e-06
2.73239e-06
-6.65789e-07
9.17889e-07
-1.15948e-06
8.36899e-07
-1.20078e-06
7.25913e-07
-1.14633e-06
5.99029e-07
-1.31619e-06
1.44202e-06
-7.38186e-08
-9.62863e-07
2.34712e-06
-3.21953e-07
-2.61701e-08
3.341e-06
-9.59136e-07
-7.44436e-07
2.33842e-06
-1.12998e-06
-1.07355e-06
1.32625e-06
-9.55208e-07
6.44312e-07
-1.34909e-06
7.63013e-07
5.97544e-07
-1.09746e-06
-1.33753e-06
2.63005e-07
7.24401e-07
-1.37266e-06
-2.52802e-07
9.80592e-07
-1.13403e-06
-3.53992e-07
1.17552e-06
-6.77803e-07
-6.77055e-07
8.74065e-07
-1.05605e-06
-1.04995e-06
6.58646e-07
-1.21828e-06
5.76969e-07
-1.29494e-06
-1.1724e-06
1.13766e-06
1.23424e-06
1.30931e-06
-1.54718e-06
-1.5521e-06
5.67531e-07
1.38122e-06
1.54018e-06
-1.62245e-06
-1.69147e-07
1.32469e-06
2.09273e-06
-1.57993e-06
-7.54786e-07
7.84779e-07
2.50317e-06
-1.29389e-06
-1.12148e-06
7.00523e-07
1.94172e-06
-1.28423e-06
-1.37232e-06
7.24924e-07
1.44391e-06
-1.26021e-06
7.39502e-07
1.29546e-06
-1.62192e-06
-1.22292e-06
1.25904e-06
7.77563e-07
1.53597e-06
-1.61049e-06
8.59067e-07
9.40496e-07
2.36785e-06
6.15917e-08
8.30862e-07
3.80985e-06
-8.57212e-07
-4.11684e-08
4.82066e-06
-1.29766e-06
-1.42369e-07
3.91232e-06
-1.40249e-06
5.01821e-08
2.23371e-06
1.30173e-07
1.42846e-06
-1.5781e-06
1.34945e-06
1.2948e-07
1.96464e-06
-1.61748e-06
1.10767e-06
9.96147e-08
3.46116e-06
3.17716e-07
4.51653e-08
4.69016e-06
-8.32812e-08
-1.08261e-07
2.82367e-06
-4.54691e-07
-1.75664e-07
3.54722e-06
-9.17314e-07
-5.31095e-07
3.96908e-06
-3.43302e-07
1.8279e-06
-1.31031e-06
1.36383e-06
-6.10845e-07
2.21234e-06
-1.56933e-06
1.45681e-06
-1.09752e-06
3.95353e-06
4.71933e-07
-8.48665e-07
5.12524e-06
2.17217e-07
-2.00858e-09
7.9858e-07
5.97942e-07
-4.60225e-08
8.06669e-07
5.97453e-07
-2.58332e-07
4.50658e-06
-9.51382e-08
2.47009e-06
-5.4556e-07
1.02376e-06
-1.03927e-06
1.90227e-06
-1.47561e-06
4.02097e-07
-1.39082e-06
3.22348e-06
6.34615e-09
-1.22992e-06
4.32922e-06
6.72491e-08
2.19822e-07
1.38732e-06
3.94986e-08
-2.4651e-07
3.811e-06
-6.56921e-07
-4.75967e-07
3.65707e-06
-3.84084e-07
1.75795e-06
-1.20803e-06
9.29284e-07
-1.33849e-06
1.52433e-06
-1.42848e-06
2.90912e-07
-1.4505e-06
2.14005e-06
-5.5223e-07
-1.23717e-06
3.19758e-06
-4.25478e-07
-1.82248e-07
3.9989e-06
-8.67373e-07
-6.4558e-07
3.17941e-06
-1.15639e-06
-8.47697e-07
1.987e-06
-8.79573e-07
1.43213e-06
-1.44875e-06
9.00423e-07
1.33849e-06
-1.38369e-06
-1.59623e-06
2.50279e-07
1.51613e-06
-1.59214e-06
-4.22246e-07
1.82123e-06
-1.40529e-06
-4.73802e-07
1.99814e-06
-9.53308e-07
-7.9382e-07
1.70831e-06
-1.15981e-06
-1.15551e-06
1.44479e-06
-1.27218e-06
1.32506e-06
-1.48408e-06
-1.29914e-06
1.35051e-06
1.58657e-06
2.62342e-06
-2.09295e-06
-2.15826e-06
5.06125e-07
1.54099e-06
2.89723e-06
-2.05392e-06
-3.28093e-07
1.25207e-06
3.4873e-06
-1.81259e-06
-7.14313e-07
3.32246e-07
3.90965e-06
-1.35262e-06
-1.09635e-06
5.15198e-07
3.3188e-06
-1.51041e-06
-1.58975e-06
8.74257e-07
2.7905e-06
-1.72758e-06
1.13201e-06
2.60426e-06
-2.1603e-06
-1.87041e-06
1.28434e-06
9.7625e-07
2.8896e-06
-2.02793e-06
5.4016e-07
8.99464e-07
3.7532e-06
-3.19717e-07
5.60165e-07
5.32378e-06
-8.62331e-07
-5.13339e-07
5.6756e-06
-1.15441e-06
-4.78074e-07
5.2936e-06
-1.46831e-06
-9.18437e-08
3.51352e-06
3.40869e-07
2.76948e-06
-2.0184e-06
1.27198e-06
2.75211e-07
3.34558e-06
-1.95206e-06
6.7743e-07
6.01733e-08
4.8948e-06
2.67149e-08
-1.60523e-07
5.49704e-06
-1.199e-07
-1.82511e-07
2.2007e-06
-4.21617e-07
-1.36614e-07
4.05234e-06
-9.28225e-07
-5.69149e-07
5.04337e-06
-1.82989e-07
3.1161e-06
-1.6927e-06
1.28705e-06
-4.69823e-07
3.58541e-06
-1.91525e-06
8.39797e-07
-8.70874e-07
5.33159e-06
3.68342e-07
-1.02241e-06
5.6083e-06
1.24063e-07
-1.25588e-07
9.7709e-07
2.42167e-07
-2.27896e-07
7.69296e-07
3.35151e-07
4.04738e-09
5.11236e-06
1.12293e-07
3.53416e-06
-1.02427e-06
1.22905e-06
-1.07131e-06
3.25142e-06
-1.97682e-06
3.56143e-07
-1.2955e-06
4.52075e-06
-1.39428e-07
-1.32772e-06
6.16169e-06
-4.42702e-08
-1.77752e-07
2.74681e-06
-2.64956e-07
-1.97778e-07
5.61208e-06
-1.01045e-06
-2.52505e-07
4.65908e-06
-4.31026e-07
3.04957e-06
-1.75886e-06
1.32658e-06
-1.66207e-06
2.85482e-06
-2.06643e-06
4.38344e-07
-1.68809e-06
3.42063e-06
-5.11814e-07
-1.56299e-06
4.38283e-06
-8.08036e-07
-8.56473e-07
4.97368e-06
-1.17781e-06
-9.50676e-07
4.302e-06
-1.57252e-06
-1.08915e-06
3.21822e-06
-1.24829e-06
2.75885e-06
-2.08214e-06
1.41151e-06
2.64164e-06
-2.12343e-06
-2.2535e-06
5.88567e-07
2.83845e-06
-2.18776e-06
-2.48795e-07
3.1271e-06
-2.03168e-06
-6.61932e-07
3.2675e-06
-1.71283e-06
-1.13411e-06
3.0194e-06
-1.78973e-06
-1.64683e-06
2.76558e-06
-1.89739e-06
2.62296e-06
-2.20143e-06
-1.99175e-06
1.54566e-06
1.8321e-06
-2.4247e-06
-2.53593e-06
4.20627e-06
5.9882e-07
1.70193e-06
-2.37799e-06
4.51979e-06
-2.83599e-07
1.34618e-06
-2.09064e-06
5.11393e-06
-6.41309e-07
3.6483e-07
-1.61412e-06
5.51642e-06
-1.137e-06
8.0929e-07
-1.89834e-06
4.90317e-06
-1.81287e-06
1.30455e-06
-2.20349e-06
4.36495e-06
1.56612e-06
-2.54722e-06
-2.37764e-06
4.14985e-06
1.37837e-06
1.15002e-06
-2.32218e-06
4.51516e-06
4.52489e-07
9.74407e-07
5.40609e-06
-4.02345e-07
5.50841e-07
6.94156e-06
-8.46327e-07
-4.5211e-07
6.48474e-06
-1.19176e-06
-2.68994e-07
6.78897e-06
-1.71138e-06
3.1783e-07
5.01941e-06
7.38857e-07
-2.44675e-06
4.33174e-06
1.28589e-06
4.24295e-07
-2.20782e-06
4.99294e-06
4.19601e-07
1.64499e-07
6.5706e-06
-1.26416e-07
-1.94669e-07
6.04541e-06
-1.47917e-07
-1.98295e-07
1.74703e-06
-7.18088e-07
-1.22097e-07
5.44182e-06
-1.33937e-06
-3.14958e-07
6.29669e-06
1.03557e-07
-2.22648e-06
4.63823e-06
1.31621e-06
-3.35072e-07
-2.19135e-06
5.21962e-06
4.01022e-07
-6.22541e-07
6.91752e-06
4.05201e-08
-1.07507e-06
5.85821e-06
5.11519e-08
-3.03036e-07
1.05866e-06
1.37166e-07
-2.23457e-07
8.20238e-07
-4.74203e-07
8.56045e-08
6.77762e-06
3.60182e-08
-1.77659e-06
4.90386e-06
1.52061e-06
-1.10242e-06
-2.36827e-06
4.86616e-06
6.2282e-07
-1.26672e-06
6.06217e-06
-1.85233e-07
-1.5034e-06
7.54046e-06
-4.37926e-07
-9.6883e-07
6.19278e-06
-9.78023e-07
-5.10132e-07
7.55838e-06
-1.60262e-06
-4.8354e-07
5.85265e-06
-7.0259e-07
-2.37902e-06
4.56426e-06
1.69697e-06
-1.87995e-06
-2.51429e-06
4.44946e-06
7.49149e-07
-1.89138e-06
4.99269e-06
-3.24e-07
-1.88778e-06
5.84004e-06
-1.07821e-06
-1.54646e-06
6.30518e-06
-1.53014e-06
-1.41754e-06
5.66111e-06
-2.00614e-06
-1.49935e-06
4.70972e-06
-1.63275e-06
-2.619e-06
4.30157e-06
1.78981e-06
-2.58761e-06
-2.64726e-06
4.20643e-06
9.14847e-07
-2.59711e-06
4.41864e-06
-3.16065e-08
-2.50869e-06
4.69413e-06
-7.80667e-07
-2.33273e-06
4.80251e-06
-1.40011e-06
-2.34215e-06
4.56314e-06
-2.02492e-06
-2.41785e-06
4.30859e-06
-2.69595e-06
-2.49127e-06
4.15227e-06
-1.99039e-06
5.02753e-08
7.81605e-08
6.48957e-08
-2.09236e-06
-7.68914e-08
1.01303e-07
7.60408e-08
-2.2523e-06
-5.67381e-08
1.17857e-07
1.00473e-07
-2.4465e-06
-5.1044e-08
1.28448e-07
1.16968e-07
-2.6574e-06
-5.37725e-08
1.34192e-07
1.30622e-07
-2.86807e-06
-6.29511e-08
1.33649e-07
1.40089e-07
-3.06934e-06
-6.98361e-08
1.27133e-07
1.44075e-07
-7.81513e-08
1.14629e-07
1.44875e-07
-3.24993e-06
-1.95289e-06
4.42455e-08
8.48501e-08
-2.05748e-06
-8.18337e-08
1.10562e-07
-2.20254e-06
-4.06133e-08
1.29118e-07
-2.37734e-06
-1.62482e-08
1.40659e-07
-2.57186e-06
-6.22625e-09
1.46633e-07
-2.77527e-06
-5.38796e-09
1.45971e-07
-2.9728e-06
-1.00393e-08
1.37841e-07
-1.80296e-08
1.24126e-07
-3.15695e-06
-1.84148e-06
-2.3863e-08
8.75993e-08
-1.9475e-06
-8.81805e-08
1.13606e-07
-2.08591e-06
-3.84757e-08
1.37279e-07
-2.22485e-06
-2.60865e-08
1.48887e-07
-2.36483e-06
-1.99531e-08
1.52612e-07
-2.50112e-06
-1.51414e-08
1.4603e-07
-2.63229e-06
-1.25071e-08
1.35315e-07
-1.05306e-08
1.21363e-07
-2.76114e-06
-1.6685e-06
-5.29486e-08
9.22579e-08
-1.85476e-06
-1.42732e-08
1.111e-07
-1.97502e-06
-5.18743e-08
1.33189e-07
-2.08513e-06
-6.04999e-08
1.44023e-07
-2.19394e-06
-5.7062e-08
1.47377e-07
-2.29676e-06
-5.22226e-08
1.39527e-07
-2.388e-06
-4.85138e-08
1.2555e-07
-3.89809e-08
1.10364e-07
-2.4689e-06
-1.6863e-06
-8.81535e-08
8.68051e-08
-1.86732e-06
5.0722e-08
1.15573e-07
-2.03932e-06
-1.59049e-08
1.37425e-07
-2.2124e-06
-3.72903e-08
1.49806e-07
-2.37751e-06
-4.74418e-08
1.53691e-07
-2.52944e-06
-4.54453e-08
1.47021e-07
-2.67325e-06
-3.91871e-08
1.34853e-07
-2.66288e-08
1.22019e-07
-2.80854e-06
-2.07832e-06
-7.5569e-08
8.29449e-08
-2.176e-06
4.00949e-08
1.0844e-07
-2.34076e-06
1.98803e-08
1.29928e-07
-2.52801e-06
5.78628e-09
1.44274e-07
-2.72835e-06
2.58434e-09
1.50456e-07
-2.92928e-06
6.12728e-09
1.495e-07
-3.12229e-06
1.23802e-08
1.4153e-07
2.05164e-08
1.2763e-07
-3.29781e-06
-2.03049e-06
7.66976e-08
4.65729e-08
-2.16016e-06
9.9395e-08
7.11222e-08
-2.33496e-06
1.17713e-07
7.48459e-08
-2.53051e-06
1.29184e-07
7.2854e-08
-2.73961e-06
1.35926e-07
7.52449e-08
-2.94661e-06
1.36457e-07
7.67392e-08
-3.13976e-06
1.29913e-07
7.63897e-08
1.17979e-07
7.54606e-08
-3.31258e-06
-1.81971e-06
-8.76616e-08
3.3296e-07
1.65717e-07
-2.17158e-06
-7.79756e-08
3.76784e-07
1.54409e-07
-2.53442e-06
-6.65074e-08
4.00235e-07
1.4705e-07
-2.89168e-06
-5.92633e-08
4.01992e-07
1.43041e-07
-3.22542e-06
-5.58658e-08
3.82652e-07
1.41211e-07
-3.52173e-06
-5.51381e-08
3.44723e-07
1.40422e-07
-3.77119e-06
-5.58864e-08
2.92534e-07
1.39997e-07
-5.7604e-08
2.3128e-07
1.39692e-07
-3.96988e-06
-1.84934e-06
-1.32174e-07
4.27361e-07
-2.19708e-06
-8.99737e-08
4.70433e-07
-2.5673e-06
-6.21061e-08
4.94996e-07
-2.93582e-06
-4.43641e-08
4.94371e-07
-3.27947e-06
-3.36894e-08
4.68177e-07
-3.57989e-06
-2.77345e-08
4.19059e-07
-3.82509e-06
-2.53328e-08
3.52546e-07
-2.51671e-08
2.75979e-07
-4.00932e-06
-1.71364e-06
-2.07057e-07
4.92472e-07
-2.0853e-06
-1.29672e-07
5.25021e-07
-2.47414e-06
-8.80622e-08
5.5218e-07
-2.8565e-06
-6.41476e-08
5.51093e-07
-3.20871e-06
-4.91573e-08
5.20367e-07
-3.51478e-06
-3.92679e-08
4.63619e-07
-3.76041e-06
-3.26153e-08
3.88293e-07
-2.81247e-08
3.02161e-07
-3.93819e-06
-1.3984e-06
-7.66274e-08
5.34611e-07
-1.88306e-06
-6.93582e-08
5.35609e-07
-2.33547e-06
-6.72305e-08
5.64871e-07
-2.75728e-06
-6.34999e-08
5.65281e-07
-3.13408e-06
-5.81581e-08
5.3323e-07
-3.45391e-06
-5.2668e-08
4.72928e-07
-3.70688e-06
-4.72268e-08
3.93154e-07
-4.18069e-08
3.0202e-07
-3.88479e-06
-1.58555e-06
-6.48752e-08
5.0125e-07
-2.00518e-06
-6.74023e-08
5.33346e-07
-2.4241e-06
-6.99324e-08
5.5911e-07
-2.82671e-06
-6.81781e-08
5.57262e-07
-3.19285e-06
-6.41728e-08
5.25871e-07
-3.50819e-06
-5.87926e-08
4.68525e-07
-3.76088e-06
-5.24863e-08
3.92926e-07
-4.5514e-08
3.06532e-07
-3.94164e-06
-1.70856e-06
-5.79439e-08
4.35594e-07
-2.10144e-06
-4.52442e-08
4.79225e-07
-2.50468e-06
-4.09061e-08
5.0422e-07
-2.89538e-06
-3.68603e-08
5.03729e-07
-3.2547e-06
-3.19523e-08
4.77623e-07
-3.56626e-06
-2.62514e-08
4.28584e-07
-3.81923e-06
-2.01697e-08
3.62246e-07
-1.40797e-08
2.85555e-07
-4.00853e-06
-1.67331e-06
3.40544e-07
5.66406e-08
-2.0634e-06
3.84866e-07
5.957e-08
-2.45657e-06
4.09197e-07
6.08265e-08
-2.8379e-06
4.11992e-07
6.1728e-08
-3.19066e-06
3.93716e-07
6.30699e-08
-3.50179e-06
3.56643e-07
6.4721e-08
-3.76377e-06
3.05287e-07
6.64806e-08
2.44837e-07
6.83644e-08
-3.97302e-06
-2.13067e-06
-9.18139e-08
7.56783e-07
1.76699e-07
-2.69791e-06
-5.49441e-08
8.43075e-07
1.55888e-07
-3.2977e-06
-3.17443e-08
8.9023e-07
1.41485e-07
-3.90564e-06
-1.88413e-08
8.96562e-07
1.32171e-07
-4.49892e-06
-1.24664e-08
8.6241e-07
1.2596e-07
-5.05449e-06
-1.01258e-08
7.88739e-07
1.21666e-07
-5.5473e-06
-1.01053e-08
6.76835e-07
1.18597e-07
-1.13699e-08
5.31477e-07
1.16357e-07
-5.9525e-06
-2.09552e-06
-1.39671e-07
9.92607e-07
-2.68634e-06
-6.4532e-08
1.07082e-06
-3.31035e-06
-2.49541e-08
1.11217e-06
-3.93849e-06
-3.48755e-09
1.10711e-06
-4.54686e-06
9.61394e-09
1.05443e-06
-5.10817e-06
1.54665e-08
9.54759e-07
-5.59268e-06
1.7491e-08
8.09451e-07
1.70978e-08
6.25176e-07
-5.97035e-06
-1.91461e-06
-2.10421e-07
1.16751e-06
-2.56095e-06
-1.15191e-07
1.22201e-06
-3.22821e-06
-6.63103e-08
1.26077e-06
-3.89157e-06
-3.99123e-08
1.25086e-06
-4.5246e-06
-2.46696e-08
1.18766e-06
-5.10147e-06
-1.54604e-08
1.07141e-06
-5.58947e-06
-9.80001e-09
9.03574e-07
-6.34432e-09
6.92099e-07
-5.95598e-06
-1.48731e-06
2.72035e-09
1.26321e-06
-2.31127e-06
-3.18459e-08
1.27619e-06
-3.07667e-06
-4.88326e-08
1.31279e-06
-3.79726e-06
-5.63266e-08
1.30227e-06
-4.4669e-06
-5.76773e-08
1.23586e-06
-5.06719e-06
-5.60313e-08
1.11378e-06
-5.56875e-06
-5.28381e-08
9.37737e-07
-4.87515e-08
7.16275e-07
-5.94061e-06
-1.86907e-06
-9.99412e-09
1.175e-06
-2.53419e-06
-6.52503e-08
1.23185e-06
-3.21001e-06
-8.32318e-08
1.2693e-06
-3.87886e-06
-8.89742e-08
1.25873e-06
-4.51708e-06
-8.901e-08
1.1954e-06
-5.0981e-06
-8.57577e-08
1.07926e-06
-5.58908e-06
-8.05477e-08
9.11598e-07
-7.41583e-08
7.00325e-07
-5.95748e-06
-1.99735e-06
-3.42313e-08
1.0084e-06
-2.61906e-06
-5.03463e-08
1.08602e-06
-3.26492e-06
-5.95501e-08
1.12637e-06
-3.90907e-06
-6.23481e-08
1.12123e-06
-4.52838e-06
-6.11093e-08
1.069e-06
-5.09802e-06
-5.75497e-08
9.69988e-07
-5.58891e-06
-5.27976e-08
8.2537e-07
-4.75841e-08
6.41718e-07
-5.97165e-06
-2.02952e-06
7.71273e-07
8.04426e-08
-2.6243e-06
8.57933e-07
7.13233e-08
-3.24541e-06
9.05917e-07
6.47923e-08
-3.86982e-06
9.13573e-07
6.04569e-08
-4.476e-06
8.80961e-07
5.77875e-08
-5.04208e-06
8.0886e-07
5.62897e-08
-5.54364e-06
6.98458e-07
5.55849e-08
5.54512e-07
5.54228e-08
-5.95631e-06
-3.0842e-06
2.27575e-08
1.5355e-06
1.22288e-07
-4.13568e-06
6.49546e-08
1.72776e-06
1.01775e-07
-5.26439e-06
9.17489e-08
1.84027e-06
8.68129e-08
-6.40247e-06
1.04896e-07
1.85421e-06
7.54455e-08
-7.46541e-06
1.08872e-07
1.74988e-06
6.65516e-08
-8.35463e-06
1.06562e-07
1.51184e-06
5.95222e-08
-8.96326e-06
9.97322e-08
1.13165e-06
5.40368e-08
8.99825e-08
6.01313e-07
4.99717e-08
-9.17308e-06
-2.97585e-06
-2.19018e-08
1.99456e-06
-4.07355e-06
5.86281e-08
2.17474e-06
-5.24683e-06
9.71906e-08
2.27991e-06
-6.43038e-06
1.16076e-07
2.2794e-06
-7.53649e-06
1.23448e-07
2.1459e-06
-8.4551e-06
1.22685e-07
1.85719e-06
-9.06029e-06
1.155e-07
1.39883e-06
1.03062e-07
7.55273e-07
-9.20351e-06
-2.76563e-06
-9.78977e-08
2.3163e-06
-3.93726e-06
-1.95064e-08
2.47165e-06
-5.16474e-06
1.15567e-08
2.57379e-06
-6.39307e-06
2.62526e-08
2.56892e-06
-7.53809e-06
3.4682e-08
2.42136e-06
-8.48442e-06
3.78086e-08
2.10255e-06
-9.09479e-06
3.68995e-08
1.59248e-06
3.28734e-08
8.68852e-07
-9.20142e-06
-2.39741e-06
7.72354e-08
2.46108e-06
-3.71387e-06
-1.18219e-08
2.58484e-06
-5.02943e-06
-4.25841e-08
2.68242e-06
-6.31582e-06
-6.06097e-08
2.67544e-06
-7.49962e-06
-6.88326e-08
2.52309e-06
-8.47133e-06
-7.07041e-08
2.19393e-06
-9.09417e-06
-6.81721e-08
1.66558e-06
-6.23206e-08
9.12962e-07
-9.19574e-06
-2.81001e-06
-1.67461e-08
2.32e-06
-3.97228e-06
-9.67913e-08
2.47897e-06
-5.19192e-06
-1.34299e-07
2.58054e-06
-6.41705e-06
-1.52087e-07
2.57522e-06
-7.56022e-06
-1.58093e-07
2.42771e-06
-8.50532e-06
-1.55785e-07
2.10934e-06
-9.11491e-06
-1.46999e-07
1.59994e-06
-1.32995e-07
8.76814e-07
-9.22079e-06
-3.02953e-06
-6.57092e-08
2.00461e-06
-4.12051e-06
-1.05917e-07
2.18603e-06
-5.28943e-06
-1.30103e-07
2.291e-06
-6.46995e-06
-1.41169e-07
2.29076e-06
-7.57395e-06
-1.43228e-07
2.15804e-06
-8.4913e-06
-1.39057e-07
1.87052e-06
-9.09611e-06
-1.30485e-07
1.41359e-06
-1.19208e-07
7.71117e-07
-9.23933e-06
-3.13034e-06
1.5466e-06
8.77454e-08
-4.1853e-06
1.73953e-06
6.73286e-08
-5.31511e-06
1.85278e-06
5.27224e-08
-6.45305e-06
1.86798e-06
4.22886e-08
-7.51549e-06
1.76538e-06
3.47119e-08
-8.40457e-06
1.52958e-06
2.92347e-08
-9.014e-06
1.152e-06
2.53627e-08
6.23829e-07
2.27896e-08
-9.22533e-06
-3.67264e-06
1.41649e-07
6.52389e-08
2.4538e-06
-4.99736e-06
1.82226e-07
4.56435e-08
2.8245e-06
-6.51142e-06
2.10156e-07
2.98273e-08
3.11422e-06
-8.19407e-06
2.28529e-07
1.61281e-08
3.29215e-06
-1.00243e-05
2.42618e-07
4.6542e-09
3.33279e-06
-1.19764e-05
2.53282e-07
-5.71166e-09
3.21635e-06
-1.40201e-05
2.54104e-07
-1.3281e-08
2.93452e-06
2.40694e-07
-1.81456e-08
-1.6167e-05
2.52565e-06
-3.61177e-06
1.31827e-07
3.16908e-06
-4.9593e-06
1.80879e-07
3.52347e-06
-6.48808e-06
2.14134e-07
3.80459e-06
-8.1859e-06
2.34963e-07
3.97069e-06
-1.00301e-05
2.48708e-07
3.98394e-06
-1.19882e-05
2.56496e-07
3.81202e-06
-1.40295e-05
2.55375e-07
3.43877e-06
2.40927e-07
-1.61906e-05
2.91612e-06
-3.46895e-06
2.8102e-08
3.66225e-06
-4.86081e-06
5.78183e-08
3.98635e-06
-6.41518e-06
8.15937e-08
4.26056e-06
-8.13087e-06
9.4941e-08
4.4245e-06
-9.99073e-06
1.02226e-07
4.42758e-06
-1.19626e-05
1.05523e-07
4.22529e-06
-1.4012e-05
1.04439e-07
3.79269e-06
9.74018e-08
-1.61901e-05
3.19043e-06
-3.22066e-06
6.97919e-08
3.86317e-06
-4.7221e-06
-1.58382e-08
4.1597e-06
-6.33565e-06
-4.93774e-08
4.42681e-06
-8.08293e-06
-7.13364e-08
4.58886e-06
-9.96207e-06
-8.43726e-08
4.58869e-06
-1.19471e-05
-9.19667e-08
4.37631e-06
-1.40051e-05
-9.50774e-08
3.92302e-06
-9.2729e-08
-1.61952e-05
3.29309e-06
-3.56485e-06
-8.13513e-08
3.6567e-06
-4.93921e-06
-1.514e-07
3.98868e-06
-6.48028e-06
-1.92866e-07
4.2649e-06
-8.18724e-06
-2.18701e-07
4.42937e-06
-1.00412e-05
-2.35681e-07
4.4328e-06
-1.2009e-05
-2.45889e-07
4.231e-06
-1.40561e-05
-2.4738e-07
3.79927e-06
-2.36295e-07
-1.6235e-05
3.19919e-06
-3.74628e-06
-1.20866e-07
3.17115e-06
-5.07485e-06
-1.67277e-07
3.53034e-06
-6.59161e-06
-1.98131e-07
3.8129e-06
-8.28151e-06
-2.17904e-07
3.97977e-06
-1.01208e-05
-2.32402e-07
3.99398e-06
-1.20764e-05
-2.43149e-07
3.82323e-06
-1.41171e-05
-2.44712e-07
3.4516e-06
-2.33208e-07
-1.62812e-05
2.93204e-06
-3.81368e-06
8.31801e-08
2.46012e-06
-5.13361e-06
5.92421e-08
2.83279e-06
-6.64406e-06
4.15007e-08
3.12349e-06
-8.32479e-06
2.80764e-08
3.30264e-06
-1.01546e-05
1.76574e-08
3.34505e-06
-1.21087e-05
9.51419e-09
3.23097e-06
-1.41569e-05
3.2205e-09
2.9522e-06
-1.85379e-09
-1.63117e-05
2.54725e-06
-1.70294e-06
1.40756e-07
7.98349e-08
-5.38299e-08
-1.81753e-06
3.64265e-08
1.02029e-07
-2.46286e-08
-1.99487e-06
5.46308e-08
1.21242e-07
1.69289e-09
-2.18317e-06
3.50126e-08
1.34411e-07
2.02206e-08
-2.36607e-06
3.39643e-09
1.40533e-07
3.96729e-08
-2.53641e-06
-2.64542e-08
1.39798e-07
5.62013e-08
-2.69875e-06
-3.01906e-08
1.3315e-07
5.89496e-08
-1.55468e-08
1.21253e-07
4.94426e-08
-2.85329e-06
-1.01834e-06
-5.31198e-08
7.84841e-08
-1.08535e-06
3.87917e-09
9.97862e-08
-1.14414e-06
-5.78758e-11
1.13671e-07
-1.21221e-06
-1.98731e-08
1.22526e-07
-1.28187e-06
-4.85841e-08
1.21925e-07
-1.35577e-06
-6.47032e-08
1.13448e-07
-1.46212e-06
-2.23788e-08
1.00188e-07
3.46605e-08
8.84775e-08
-1.60339e-06
-2.03566e-06
4.9145e-09
9.14551e-08
-2.17259e-06
5.52144e-08
8.5836e-08
-2.32062e-06
5.16299e-08
9.65425e-08
-2.47856e-06
3.75479e-08
1.00701e-07
-2.63422e-06
1.24519e-08
9.4819e-08
-2.79052e-06
1.18197e-08
7.991e-08
-2.9218e-06
5.02977e-08
5.87225e-08
8.52503e-08
3.4051e-08
-3.00628e-06
-2.18064e-06
1.25018e-07
1.29547e-07
-2.29872e-06
6.42964e-08
1.12985e-07
-2.45575e-06
7.79962e-08
1.34529e-07
-2.64814e-06
8.61407e-08
1.48057e-07
-2.84789e-06
6.46361e-08
1.52145e-07
-3.01872e-06
4.36827e-08
1.4384e-07
-3.10766e-06
2.04787e-08
1.23879e-07
-7.59113e-11
9.74419e-08
-3.11445e-06
-2.04089e-06
1.86413e-07
9.21488e-08
-2.17377e-06
1.09432e-07
8.86522e-08
-2.33395e-06
1.40807e-07
9.82123e-08
-2.53437e-06
1.85657e-07
1.00968e-07
-2.70117e-06
1.37392e-07
9.39674e-08
-2.83728e-06
1.01832e-07
7.83355e-08
-2.94585e-06
7.31912e-08
5.60316e-08
2.76217e-08
2.94695e-08
-3.0029e-06
-1.15235e-06
1.36134e-08
8.02559e-08
-1.22584e-06
8.23381e-08
1.00945e-07
-1.23888e-06
4.22016e-08
1.12407e-07
-1.25275e-06
8.16162e-08
1.17736e-07
-1.29251e-06
5.78088e-08
1.19683e-07
-1.35063e-06
4.95925e-08
1.11019e-07
-1.43202e-06
5.68361e-08
9.73831e-08
5.44527e-08
8.38948e-08
-1.54072e-06
-1.66458e-06
7.9451e-08
4.42161e-08
-1.7398e-06
1.01722e-07
5.60455e-08
-1.88958e-06
1.18792e-07
7.34008e-08
-2.03011e-06
1.28944e-07
9.33736e-08
-2.20273e-06
1.33826e-07
9.67314e-08
-2.38722e-06
1.31792e-07
1.02422e-07
-2.5636e-06
1.22988e-07
1.099e-07
1.0951e-07
1.10869e-07
-2.72897e-06
-1.50252e-06
2.45246e-07
3.41677e-07
-1.01874e-07
-1.90875e-06
2.02225e-07
3.83282e-07
-7.71395e-08
-2.31117e-06
1.76287e-07
4.06197e-07
-5.87616e-08
-2.69662e-06
1.58398e-07
4.07058e-07
-4.55139e-08
-3.0525e-06
1.4628e-07
3.86158e-07
-3.59237e-08
-3.36827e-06
1.38491e-07
3.46199e-07
-2.90199e-08
-3.63633e-06
1.33833e-07
2.91684e-07
-2.42598e-08
1.30652e-07
2.2782e-07
-2.0954e-08
-3.85253e-06
-1.52983e-06
2.62073e-07
4.45351e-07
-1.91064e-06
2.12315e-07
4.70623e-07
-2.29241e-06
1.84726e-07
4.8711e-07
-2.66158e-06
1.70231e-07
4.79955e-07
-3.00362e-06
1.63254e-07
4.47017e-07
-3.30485e-06
1.61567e-07
3.91694e-07
-3.55429e-06
1.63359e-07
3.20206e-07
1.66131e-07
2.3859e-07
-3.73973e-06
-1.59312e-06
2.0409e-07
5.5029e-07
-1.97637e-06
1.47313e-07
5.34197e-07
-2.354e-06
1.1709e-07
5.41917e-07
-2.71563e-06
1.01618e-07
5.31041e-07
-3.04348e-06
9.36077e-08
4.92398e-07
-3.32008e-06
9.09178e-08
4.27237e-07
-3.53179e-06
9.19965e-08
3.41868e-07
9.48037e-08
2.44077e-07
-3.67041e-06
-1.68244e-06
7.33145e-08
6.27228e-07
-2.03831e-06
4.70948e-08
5.70935e-07
-2.39639e-06
3.60792e-08
5.74612e-07
-2.73794e-06
2.49786e-08
5.66768e-07
-3.03547e-06
1.23113e-08
5.31708e-07
-3.26782e-06
-6.49142e-10
4.68649e-07
-3.42549e-06
-9.08756e-09
3.83242e-07
-1.76227e-08
2.83663e-07
-3.49918e-06
-1.70526e-06
-4.90301e-08
5.44149e-07
-2.05302e-06
-4.50316e-08
5.28768e-07
-2.40896e-06
-4.64708e-08
5.3685e-07
-2.75501e-06
-5.34199e-08
5.25513e-07
-3.07024e-06
-6.46275e-08
4.86216e-07
-3.33706e-06
-7.57487e-08
4.2034e-07
-3.53853e-06
-8.58018e-08
3.34298e-07
-9.48073e-08
2.35875e-07
-3.66769e-06
-1.70078e-06
-8.49096e-08
4.36446e-07
-2.03707e-06
-6.87914e-08
4.61062e-07
-2.38504e-06
-6.23353e-08
4.76337e-07
-2.73017e-06
-5.87834e-08
4.68318e-07
-3.05132e-06
-5.83447e-08
4.34612e-07
-3.33511e-06
-5.90119e-08
3.78156e-07
-3.56887e-06
-5.98078e-08
3.05234e-07
-6.07408e-08
2.22071e-07
-3.74106e-06
-1.67264e-06
3.32551e-07
1.82681e-08
-2.03658e-06
3.72933e-07
2.40476e-08
-2.40441e-06
3.94147e-07
3.02264e-08
-2.7632e-06
3.93278e-07
3.57505e-08
-3.09803e-06
3.70618e-07
3.97676e-08
-3.39688e-06
3.28841e-07
4.28412e-08
-3.65148e-06
2.72691e-07
4.51505e-08
2.07381e-07
4.66232e-08
-3.85669e-06
-1.97501e-06
2.57828e-07
7.67352e-07
-9.22157e-08
-2.59378e-06
2.23644e-07
8.50148e-07
-7.17787e-08
-3.22885e-06
2.0224e-07
8.96647e-07
-5.76793e-08
-3.86293e-06
1.86202e-07
9.02401e-07
-4.75132e-08
-4.47708e-06
1.73292e-07
8.66898e-07
-3.99123e-08
-5.0504e-06
1.62549e-07
7.90993e-07
-3.40431e-08
-5.55885e-06
1.53325e-07
6.76097e-07
-2.93063e-08
1.45181e-07
5.27122e-07
-2.5282e-08
-5.97806e-06
-2.03103e-06
2.9057e-07
1.01508e-06
-2.64826e-06
2.3768e-07
1.07375e-06
-3.2781e-06
2.1094e-07
1.10818e-06
-3.90649e-06
1.94768e-07
1.09972e-06
-4.51295e-06
1.83139e-07
1.0436e-06
-5.07223e-06
1.73987e-07
9.39526e-07
-5.55381e-06
1.66322e-07
7.88777e-07
1.59464e-07
5.97947e-07
-5.92746e-06
-2.06177e-06
2.02076e-07
1.22489e-06
-2.66413e-06
1.46558e-07
1.22762e-06
-3.28346e-06
1.22999e-07
1.24915e-06
-3.90225e-06
1.1061e-07
1.23394e-06
-4.49666e-06
1.02462e-07
1.16745e-06
-5.03899e-06
9.67464e-08
1.04679e-06
-5.49634e-06
9.26996e-08
8.72821e-07
8.97827e-08
6.53512e-07
-5.83612e-06
-2.09501e-06
1.64984e-08
1.33862e-06
-2.67012e-06
5.56826e-09
1.28698e-06
-3.2722e-06
-4.85732e-10
1.30014e-06
-3.87351e-06
-6.0661e-09
1.2847e-06
-4.44537e-06
-1.15272e-08
1.21752e-06
-4.95774e-06
-1.5996e-08
1.09373e-06
-5.37596e-06
-1.9651e-08
9.13793e-07
-2.28423e-08
6.86111e-07
-5.6658e-06
-2.15099e-06
-1.22647e-07
1.21677e-06
-2.72687e-06
-1.06132e-07
1.21629e-06
-3.32879e-06
-1.01001e-07
1.23924e-06
-3.93429e-06
-9.99718e-08
1.22486e-06
-4.51843e-06
-9.96606e-08
1.15844e-06
-5.05261e-06
-9.90324e-08
1.03753e-06
-5.50328e-06
-9.79581e-08
8.63253e-07
-9.65133e-08
6.43679e-07
-5.83743e-06
-2.16003e-06
-1.3586e-07
9.99137e-07
-2.74221e-06
-1.19811e-07
1.05684e-06
-3.34736e-06
-1.11544e-07
1.09199e-06
-3.95712e-06
-1.05345e-07
1.0834e-06
-4.54875e-06
-1.00015e-07
1.02655e-06
-5.09594e-06
-9.52531e-08
9.21533e-07
-5.56761e-06
-9.09339e-08
7.69852e-07
-8.70253e-08
5.78196e-07
-5.93323e-06
-2.10164e-06
7.50971e-07
5.00546e-11
-2.69004e-06
8.33091e-07
8.35453e-09
-3.30083e-06
8.78535e-07
1.47954e-08
-3.9154e-06
8.82634e-07
1.98111e-08
-4.51366e-06
8.45225e-07
2.36027e-08
-5.07392e-06
7.67407e-07
2.64271e-08
-5.57146e-06
6.50722e-07
2.8549e-08
5.00108e-07
3.01886e-08
-5.98141e-06
-3.10176e-06
2.55698e-07
1.54617e-06
-5.63406e-08
-4.1855e-06
2.44477e-07
1.73527e-06
-4.59893e-08
-5.33509e-06
2.38193e-07
1.84716e-06
-3.92732e-08
-6.48782e-06
2.28647e-07
1.86072e-06
-3.43642e-08
-7.56133e-06
2.15846e-07
1.75506e-06
-3.05879e-08
-8.45773e-06
2.00666e-07
1.5142e-06
-2.75352e-08
-9.07021e-06
1.83835e-07
1.12962e-06
-2.49265e-08
1.6637e-07
5.93746e-07
-2.25829e-08
-9.28066e-06
-3.07352e-06
2.60703e-07
2.01685e-06
-4.178e-06
2.41757e-07
2.18077e-06
-5.34894e-06
2.36538e-07
2.28059e-06
-6.52875e-06
2.30183e-07
2.27787e-06
-7.63071e-06
2.19792e-07
2.14151e-06
-8.54339e-06
2.05608e-07
1.8472e-06
-9.13864e-06
1.88083e-07
1.37973e-06
1.67764e-07
7.24639e-07
-9.26677e-06
-2.98614e-06
1.22216e-07
2.37244e-06
-4.10652e-06
1.07282e-07
2.48227e-06
-5.29713e-06
1.06161e-07
2.56998e-06
-6.49934e-06
1.05115e-07
2.56108e-06
-7.62478e-06
1.0161e-07
2.41094e-06
-8.55531e-06
9.59834e-08
2.08686e-06
-9.15035e-06
8.85711e-08
1.5673e-06
7.96587e-08
8.31308e-07
-9.24011e-06
-2.90683e-06
-8.33531e-08
2.53553e-06
-4.03636e-06
-6.95977e-08
2.59319e-06
-5.23547e-06
-6.6459e-08
2.67174e-06
-6.44146e-06
-6.59082e-08
2.66156e-06
-7.56667e-06
-6.37437e-08
2.50795e-06
-8.49131e-06
-5.9564e-08
2.17382e-06
-9.07007e-06
-5.37079e-08
1.63475e-06
-4.65533e-08
8.67496e-07
-9.12532e-06
-2.96509e-06
-2.26676e-07
2.37286e-06
-4.08899e-06
-2.0294e-07
2.47333e-06
-5.28028e-06
-1.97687e-07
2.56161e-06
-6.48239e-06
-1.92812e-07
2.5537e-06
-7.60789e-06
-1.83896e-07
2.40393e-06
-8.53861e-06
-1.71117e-07
2.0797e-06
-9.13376e-06
-1.5503e-07
1.55965e-06
-1.36213e-07
8.23282e-07
-9.22376e-06
-3.04217e-06
-2.19446e-07
2.00591e-06
-4.14776e-06
-2.07316e-07
2.16658e-06
-5.31803e-06
-2.02539e-07
2.26696e-06
-6.49762e-06
-1.94426e-07
2.26446e-06
-7.59975e-06
-1.82961e-07
2.12764e-06