/*--------------------------------*- C++ -*----------------------------------*\
| =========                 |                                                 |
| \\      /  F ield         | OpenFOAM: The Open Source CFD Toolbox           |
|  \\    /   O peration     | Version:  plus.master                           |
|   \\  /    A nd           | Web:      www.OpenFOAM.com                      |
|    \\/     M anipulation  |                                                 |
\*---------------------------------------------------------------------------*/
FoamFile
{
    version     2.0;
    format      ascii;
    class       volScalarField;
    location    "3.4";
    object      nut;
}
// * * * * * * * * * * * * * * * * * * * * * * * * * * * * * * * * * * * * * //

dimensions      [0 2 -1 0 0 0 0];

internalField   nonuniform List<scalar> 
47285
(
2.05701e-05
2.26043e-05
3.62267e-05
4.64637e-05
3.46788e-05
2.17854e-05
1.97479e-05
2.34017e-05
1.19804e-05
3.06998e-05
3.85306e-05
2.8515e-05
1.04835e-05
2.14283e-05
3.85272e-05
3.40699e-05
3.09431e-05
5.9744e-05
2.90801e-05
3.07362e-05
3.71537e-05
5.18019e-05
4.75956e-05
5.89967e-05
5.67126e-05
5.86118e-05
5.42047e-05
5.85779e-05
3.88389e-05
3.54586e-05
3.58104e-05
6.06786e-05
3.12558e-05
3.18615e-05
3.80602e-05
2.34693e-05
1.20946e-05
3.70227e-05
5.84128e-05
3.04176e-05
1.02481e-05
2.15284e-05
2.04515e-05
2.29763e-05
4.04359e-05
5.82357e-05
3.57289e-05
2.13175e-05
1.95341e-05
3.99846e-05
2.20232e-05
2.47567e-05
3.07614e-05
2.12278e-05
2.18223e-05
4.2585e-05
2.29229e-05
2.84004e-05
5.49043e-05
7.68035e-05
5.60353e-05
2.39921e-05
1.99607e-05
2.5921e-05
5.24649e-05
7.01121e-05
0.00011245
8.46385e-05
6.40065e-05
2.02139e-05
2.98571e-05
6.27994e-05
0.000125585
0.000123651
0.000112242
0.000121153
3.77553e-05
2.60415e-05
5.56802e-05
8.15768e-05
0.000111971
9.40374e-05
6.7714e-05
1.97614e-05
2.36469e-05
2.74001e-05
5.79985e-05
0.000112399
5.83198e-05
2.2236e-05
2.08474e-05
4.00989e-05
2.28534e-05
2.29821e-05
2.79945e-05
1.93007e-05
2.28771e-05
4.43301e-05
6.16509e-05
3.94275e-05
5.05171e-05
6.10522e-05
4.28827e-05
3.53359e-05
7.00765e-05
4.07837e-05
5.76028e-05
9.721e-05
0.000132355
0.000103067
4.8911e-05
3.33138e-05
4.82985e-05
8.67915e-05
0.000137669
0.000164985
0.000155895
0.000110691
3.58328e-05
5.21534e-05
9.47909e-05
0.000195802
0.000173927
0.00016515
0.000175687
5.99227e-05
4.64353e-05
7.9852e-05
0.000137766
0.000157951
0.000173147
0.000102148
3.2684e-05
4.29209e-05
4.84748e-05
7.72661e-05
0.000129876
8.00644e-05
3.77013e-05
3.76505e-05
6.60548e-05
4.19783e-05
3.88935e-05
3.96883e-05
3.24511e-05
4.10465e-05
7.70427e-05
9.92859e-05
6.7338e-05
7.73958e-05
8.79408e-05
6.69975e-05
6.34656e-05
0.000113949
6.89414e-05
9.06177e-05
0.000139634
0.000179744
0.000141108
7.32426e-05
6.27161e-05
7.4776e-05
0.0001254
0.00018861
0.000206187
0.000202514
0.000134662
5.24053e-05
7.80491e-05
0.000131221
0.000226671
0.00020696
0.000211313
0.00019244
6.59059e-05
7.15131e-05
0.000109241
0.000169038
0.000196878
0.000206544
0.000116519
4.94964e-05
7.34489e-05
7.43858e-05
9.81456e-05
0.000122409
9.42269e-05
5.66933e-05
7.28144e-05
0.000108585
7.35823e-05
6.15785e-05
5.58541e-05
5.40259e-05
7.68319e-05
0.000125579
0.000110042
7.96863e-05
8.95708e-05
9.82595e-05
7.64244e-05
7.71656e-05
0.000126231
8.14882e-05
0.000108775
0.000163509
0.000202083
0.000153779
8.05981e-05
7.79501e-05
8.96732e-05
0.000151327
0.000221975
0.000227167
0.000222061
0.000131356
5.97479e-05
9.47781e-05
0.000158818
0.000245432
0.000234989
0.000207173
0.000178157
6.39216e-05
8.61867e-05
0.000130142
0.000188175
0.000235702
0.000209544
0.000112248
5.98772e-05
8.70948e-05
9.03464e-05
0.000113622
0.000122614
0.000100396
6.74167e-05
9.09817e-05
0.000119131
8.75923e-05
7.53186e-05
6.75484e-05
6.75428e-05
9.36886e-05
0.000136109
1.96994e-05
1.97441e-05
1.94476e-05
1.91941e-05
1.89223e-05
1.86293e-05
1.83768e-05
1.81508e-05
1.99523e-05
1.99773e-05
1.97593e-05
1.94578e-05
1.9191e-05
1.89594e-05
1.86647e-05
1.84137e-05
2.41005e-05
2.1175e-05
2.04036e-05
1.9881e-05
1.94956e-05
1.91896e-05
1.89063e-05
1.86829e-05
3.23321e-05
2.29165e-05
2.0622e-05
2.00634e-05
1.97994e-05
1.95409e-05
1.92871e-05
1.90699e-05
2.46533e-05
2.13203e-05
2.03913e-05
1.99268e-05
1.95261e-05
1.92305e-05
1.89554e-05
1.87274e-05
1.98761e-05
1.9896e-05
1.97837e-05
1.94665e-05
1.91691e-05
1.88827e-05
1.86184e-05
1.83593e-05
1.95219e-05
1.95976e-05
1.93162e-05
1.90685e-05
1.88593e-05
1.8575e-05
1.83156e-05
1.80866e-05
6.55815e-05
7.33281e-05
7.56309e-05
7.59949e-05
7.55983e-05
7.49862e-05
7.4366e-05
7.37686e-05
4.43315e-05
6.43028e-05
7.19044e-05
7.42762e-05
7.45144e-05
7.39849e-05
7.32553e-05
7.24924e-05
1.9814e-05
4.84938e-05
6.6291e-05
7.27244e-05
7.44823e-05
7.44489e-05
7.3696e-05
7.27095e-05
1.19083e-05
3.48114e-05
6.18723e-05
7.19942e-05
7.49282e-05
7.53196e-05
7.46818e-05
7.36493e-05
2.1578e-05
4.9977e-05
6.67957e-05
7.2977e-05
7.46716e-05
7.46021e-05
7.38128e-05
7.27744e-05
4.78789e-05
6.55521e-05
7.23588e-05
7.45344e-05
7.47188e-05
7.41671e-05
7.34145e-05
7.26298e-05
6.66956e-05
7.36892e-05
7.59092e-05
7.62277e-05
7.5776e-05
7.51082e-05
7.44342e-05
7.37653e-05
0.000109824
0.000125011
0.000130432
0.000131417
0.000129704
0.00012613
0.000121271
0.000115734
7.58937e-05
0.000110397
0.000124261
0.000128753
0.00012854
0.000125553
0.000120781
0.000115049
3.75296e-05
8.6038e-05
0.00011509
0.000125604
0.000127758
0.000125686
0.000121132
0.000115259
2.35476e-05
6.60527e-05
0.0001082
0.000123787
0.000127606
0.000126128
0.000121727
0.000115782
4.18732e-05
8.89417e-05
0.000115599
0.000125681
0.000127868
0.000125863
0.000121341
0.000115469
8.24952e-05
0.000111684
0.000124228
0.000128704
0.000128648
0.000125768
0.000121043
0.000115312
0.000110624
0.000124278
0.000129901
0.000131184
0.000129659
0.000126182
0.000121363
0.000115829
0.000158951
0.000174557
0.000177638
0.000175032
0.000169809
0.000163802
0.000157948
0.00015199
0.000122083
0.000160603
0.000173288
0.000174276
0.000170144
0.000164202
0.000158143
0.000152031
7.59275e-05
0.000137025
0.000165337
0.000172229
0.000170129
0.000164704
0.000158632
0.000152415
5.255e-05
0.000118703
0.000159528
0.000170848
0.000170136
0.000165079
0.00015902
0.000152723
8.25689e-05
0.00014029
0.000165792
0.00017214
0.000170093
0.000164791
0.000158811
0.000152652
0.000130786
0.000162227
0.000172972
0.000173853
0.000169969
0.00016426
0.000158367
0.000152367
0.000160519
0.000173503
0.000176479
0.000174244
0.000169391
0.000163673
0.000158035
0.00015224
0.000156492
0.000157569
0.000146523
0.000130986
0.00011441
9.79833e-05
8.17551e-05
6.65731e-05
0.000132371
0.000154717
0.000150851
0.000136635
0.000119356
0.000101813
8.44875e-05
6.82048e-05
9.40157e-05
0.000141481
0.000150362
0.000139778
0.000122845
0.000104686
8.6543e-05
6.94035e-05
7.20866e-05
0.000130426
0.00014852
0.00014062
0.000124158
0.000105824
8.73544e-05
6.98696e-05
0.00010165
0.00014376
0.000150241
0.000139383
0.000122586
0.000104573
8.65382e-05
6.94788e-05
0.000139195
0.000154995
0.00014984
0.000135781
0.000118836
0.000101567
8.44535e-05
6.83327e-05
0.00015658
0.000155651
0.000144752
0.000129721
0.000113612
9.75622e-05
8.16474e-05
6.67213e-05
2.04749e-05
2.04484e-05
2.01816e-05
1.97886e-05
1.94231e-05
1.90756e-05
1.87515e-05
1.84434e-05
2.20825e-05
2.19383e-05
2.16332e-05
2.1362e-05
2.09612e-05
2.05359e-05
2.02772e-05
1.99622e-05
2.62861e-05
2.3195e-05
2.2557e-05
2.23269e-05
2.21357e-05
2.19426e-05
2.17568e-05
2.15877e-05
3.03691e-05
2.42401e-05
2.29874e-05
2.27011e-05
2.2543e-05
2.23984e-05
2.22696e-05
2.21709e-05
2.64597e-05
2.3465e-05
2.28154e-05
2.25909e-05
2.23988e-05
2.22257e-05
2.20799e-05
2.19589e-05
2.26411e-05
2.2442e-05
2.19755e-05
2.17288e-05
2.13695e-05
2.09258e-05
2.06635e-05
2.03674e-05
2.08516e-05
2.09154e-05
2.05385e-05
2.01975e-05
1.98375e-05
1.94405e-05
1.90903e-05
1.87643e-05
6.51413e-05
7.6198e-05
7.95919e-05
8.01975e-05
7.97316e-05
7.89158e-05
7.80272e-05
7.71217e-05
4.39387e-05
6.70828e-05
7.88032e-05
8.35241e-05
8.49555e-05
8.48688e-05
8.4062e-05
8.28258e-05
2.62568e-05
5.13145e-05
7.33012e-05
8.41282e-05
8.83663e-05
8.94731e-05
8.91153e-05
8.80026e-05
2.0543e-05
4.08968e-05
6.74255e-05
8.17903e-05
8.75764e-05
8.94029e-05
8.95778e-05
8.90459e-05
2.5731e-05
5.16199e-05
7.40029e-05
8.48286e-05
8.90323e-05
9.0149e-05
8.98186e-05
8.87108e-05
4.40899e-05
6.81716e-05
7.99166e-05
8.45844e-05
8.60042e-05
8.60052e-05
8.53166e-05
8.41905e-05
6.66844e-05
7.75604e-05
8.07318e-05
8.13386e-05
8.09446e-05
8.0216e-05
7.93976e-05
7.85334e-05
0.000101631
0.000122681
0.000131455
0.000133901
0.000132617
0.000128945
0.000123727
0.000117708
6.91474e-05
0.00010417
0.000124692
0.000133384
0.000135087
0.000132619
0.000127573
0.000121127
4.52524e-05
7.8792e-05
0.000112335
0.000129981
0.000136209
0.000135857
0.000131657
0.000125322
3.76938e-05
6.40291e-05
0.000103625
0.00012682
0.000135848
0.000136947
0.000133677
0.000128064
4.32506e-05
7.79932e-05
0.000113095
0.000130925
0.000136946
0.000136403
0.000132082
0.000125669
6.61752e-05
0.000104781
0.000126355
0.000134812
0.000136134
0.000133389
0.000128163
0.000121592
0.000102919
0.00012535
0.000133523
0.000135353
0.000133659
0.000129721
0.000124317
0.000118155
0.000148072
0.000168917
0.000175709
0.000175009
0.000170513
0.000164595
0.000158532
0.00015224
0.000111074
0.000150196
0.000169519
0.000174801
0.000172517
0.000166935
0.000160504
0.000153723
7.80387e-05
0.000122747
0.000157579
0.000171831
0.000173376
0.00016894
0.000162457
0.000155201
6.50859e-05
0.000105824
0.000149433
0.000169465
0.000173533
0.000170116
0.000164111
0.000157216
7.3784e-05
0.000120174
0.000157678
0.000172508
0.000173888
0.000169191
0.000162497
0.000155087
0.000104352
0.000149245
0.000170773
0.000176073
0.000173322
0.000167296
0.000160525
0.000153498
0.000147157
0.000171138
0.000177884
0.000176537
0.000171419
0.000165007
0.000158565
0.000151979
0.000147761
0.000153933
0.000145673
0.000131147
0.000114683
9.80465e-05
8.15719e-05
6.62222e-05
0.000120498
0.000146864
0.000149243
0.00013779
0.000120935
0.000102834
8.47147e-05
6.77371e-05
9.02828e-05
0.000127794
0.000145916
0.000141047
0.000125402
0.000106445
8.69118e-05
6.85271e-05
7.71458e-05
0.000113921
0.000141935
0.000141836
0.000127401
0.000108251
8.80094e-05
6.87565e-05
8.52187e-05
0.000125442
0.000146327
0.000141817
0.000125923
0.000106706
8.69827e-05
6.8473e-05
0.000114011
0.000146762
0.000150888
0.000139173
0.00012178
0.000103242
8.48026e-05
6.76035e-05
0.000147848
0.00015665
0.000148091
0.000132824
0.000115699
9.85474e-05
8.1674e-05
6.60262e-05
2.0621e-05
2.07386e-05
2.04322e-05
2.00812e-05
1.97164e-05
1.93413e-05
1.90008e-05
1.86887e-05
2.1464e-05
2.14489e-05
2.09271e-05
2.05645e-05
2.03298e-05
2.01386e-05
1.99577e-05
1.9819e-05
2.50888e-05
2.26083e-05
2.2043e-05
2.18219e-05
2.16406e-05
2.14597e-05
2.12776e-05
2.11038e-05
2.81796e-05
2.3574e-05
2.27993e-05
2.26294e-05
2.25049e-05
2.23674e-05
2.22213e-05
2.20744e-05
2.45678e-05
2.24542e-05
2.20075e-05
2.18032e-05
2.16213e-05
2.14279e-05
2.1249e-05
2.1081e-05
2.11771e-05
2.13625e-05
2.10069e-05
2.06942e-05
2.03647e-05
2.00503e-05
1.98255e-05
1.96904e-05
2.02074e-05
2.02861e-05
2.00004e-05
1.97188e-05
1.94077e-05
1.9096e-05
1.8825e-05
1.85738e-05
6.65813e-05
7.69752e-05
7.99973e-05
8.05378e-05
8.01311e-05
7.94305e-05
7.86888e-05
7.794e-05
4.41272e-05
6.80482e-05
7.89381e-05
8.31234e-05
8.44172e-05
8.44352e-05
8.39145e-05
8.30748e-05
2.41147e-05
5.25184e-05
7.50809e-05
8.52239e-05
8.91759e-05
9.04887e-05
9.06158e-05
9.00887e-05
1.78297e-05
4.36877e-05
7.20788e-05
8.52882e-05
9.0482e-05
9.24087e-05
9.2941e-05
9.27546e-05
2.66472e-05
5.71737e-05
7.70628e-05
8.5555e-05
8.89055e-05
9.0048e-05
9.01419e-05
8.96166e-05
4.99067e-05
7.09128e-05
7.93668e-05
8.26317e-05
8.36641e-05
8.36693e-05
8.31875e-05
8.23935e-05
6.7894e-05
7.56231e-05
7.80311e-05
7.85537e-05
7.82868e-05
7.77391e-05
7.71162e-05
7.64612e-05
0.000103794
0.000125604
0.000133516
0.000135364
0.000133766
0.000129945
0.000124657
0.000118599
6.61427e-05
0.000106751
0.000127845
0.000135941
0.000137241
0.00013468
0.000129713
0.000123378
3.90325e-05
7.8467e-05
0.00011706
0.000135023
0.000140842
0.000140514
0.000136722
0.000130939
3.22346e-05
6.44433e-05
0.000110673
0.000133875
0.000142028
0.000142978
0.000140138
0.000135205
4.12204e-05
8.73245e-05
0.000121968
0.000136724
0.000141242
0.000140487
0.000136587
0.0001308
7.82427e-05
0.000115799
0.000131257
0.000136802
0.000137243
0.0001345
0.000129589
0.000123374
0.000112302
0.000127644
0.000133054
0.000134165
0.000132529
0.000128925
0.000123927
0.000118159
0.000148386
0.000172015
0.000178552
0.000177213
0.000172164
0.000165824
0.000159436
0.000152875
0.000104685
0.000152289
0.00017386
0.000178951
0.000176138
0.000170177
0.000163533
0.000156638
6.84408e-05
0.000121422
0.000163355
0.00017875
0.000180044
0.00017551
0.000169252
0.000162447
5.66999e-05
0.000105014
0.000156999
0.000178144
0.000181804
0.000178407
0.000173005
0.0001672
7.18171e-05
0.000131317
0.00016875
0.000180853
0.000180806
0.000175862
0.000169554
0.000162823
0.000120616
0.000163714
0.000178688
0.000180684
0.000176769
0.000170554
0.000163966
0.000157223
0.000160803
0.000176944
0.000179993
0.000177357
0.000172022
0.000165814
0.000159699
0.000153446
0.00014886
0.000157334
0.00014867
0.000133399
0.000116242
9.89971e-05
8.19782e-05
6.6163e-05
0.000115119
0.000149952
0.00015393
0.00014188
0.00012416
0.000105237
8.62861e-05
6.84646e-05
8.07219e-05
0.000128628
0.000152371
0.000147531
0.000130889
0.000110891
9.02351e-05
7.06567e-05
6.76442e-05
0.000115511
0.000149976
0.000149636
0.000134187
0.000114388
9.36537e-05
7.37903e-05
8.51904e-05
0.000137189
0.000155798
0.000148417
0.000131075
0.000110999
9.0405e-05
7.08844e-05
0.000130968
0.000158356
0.000156308
0.000142205
0.000124091
0.000105257
8.6467e-05
6.8766e-05
0.000158397
0.000159791
0.000148578
0.000132771
0.0001158
9.88997e-05
8.21872e-05
6.65847e-05
1.97654e-05
1.98489e-05
1.96441e-05
1.94355e-05
1.92382e-05
1.8959e-05
1.86914e-05
1.84124e-05
2.06597e-05
2.07207e-05
2.04657e-05
2.0236e-05
1.99828e-05
1.97628e-05
1.95808e-05
1.94013e-05
2.47722e-05
2.27819e-05
2.20281e-05
2.17332e-05
2.16264e-05
2.14746e-05
2.1236e-05
2.10683e-05
3.24764e-05
2.48975e-05
2.29769e-05
2.25144e-05
2.22509e-05
2.2106e-05
2.20049e-05
2.19296e-05
2.66242e-05
2.35584e-05
2.25928e-05
2.22891e-05
2.20978e-05
2.18825e-05
2.16568e-05
2.13991e-05
2.14226e-05
2.12276e-05
2.08899e-05
2.05585e-05
2.0344e-05
2.00932e-05
1.98185e-05
1.9669e-05
2.03346e-05
2.03951e-05
2.00824e-05
1.97161e-05
1.93547e-05
1.89984e-05
1.86894e-05
1.83979e-05
6.7231e-05
7.51419e-05
7.78026e-05
7.84162e-05
7.81523e-05
7.75798e-05
7.69121e-05
7.61849e-05
4.97929e-05
6.9127e-05
7.75934e-05
8.10112e-05
8.21222e-05
8.21915e-05
8.1732e-05
8.09776e-05
2.76831e-05
5.56245e-05
7.35874e-05
8.18357e-05
8.53275e-05
8.66204e-05
8.68848e-05
8.65258e-05
1.77228e-05
4.40432e-05
6.89878e-05
8.11968e-05
8.65688e-05
8.88419e-05
8.96426e-05
8.96197e-05
2.46302e-05
5.08803e-05
7.14775e-05
8.13192e-05
8.54669e-05
8.70445e-05
8.74262e-05
8.71095e-05
4.27652e-05
6.53073e-05
7.6543e-05
8.10562e-05
8.25265e-05
8.26673e-05
8.22199e-05
8.14575e-05
6.42412e-05
7.51946e-05
7.86489e-05
7.93238e-05
7.89379e-05
7.82152e-05
7.74223e-05
7.66084e-05
0.000110812
0.000125583
0.000131733
0.000133305
0.00013191
0.000128427
0.000123483
0.000117732
8.35448e-05
0.000113999
0.000128589
0.000134456
0.000135223
0.000132671
0.000127845
0.000121662
5.13399e-05
9.35332e-05
0.000120698
0.000133349
0.00013761
0.00013686
0.000132861
0.000126856
3.6952e-05
7.7904e-05
0.00011337
0.000131214
0.000138111
0.000138791
0.000135688
0.000130332
4.65705e-05
8.52885e-05
0.000116224
0.000131529
0.000136981
0.000136711
0.000132897
0.000126959
7.0794e-05
0.000105072
0.000124617
0.000132966
0.000134739
0.00013254
0.000127808
0.000121617
0.00010137
0.000121923
0.000130858
0.000133476
0.000132354
0.000128835
0.00012375
0.000117832
0.000160757
0.000174488
0.000177819
0.0001757
0.000170806
0.000164937
0.000159079
0.000153025
0.00013159
0.000163468
0.00017569
0.000177497
0.000173936
0.000168091
0.000161777
0.000155205
9.26303e-05
0.000142777
0.000168524
0.000176891
0.000176087
0.000171048
0.000164629
0.000157607
7.25712e-05
0.000126647
0.000161626
0.000175099
0.000176674
0.000172721
0.000166886
0.000160348
8.50606e-05
0.000133613
0.000163687
0.000174834
0.000175291
0.000170747
0.000164498
0.000157525
0.000115394
0.000152857
0.000170756
0.000175469
0.000173124
0.000167703
0.000161485
0.000154882
0.000148215
0.000168573
0.000175509
0.000174958
0.000170595
0.000164792
0.00015882
0.000152591
0.000157181
0.000156741
0.000145941
0.000130777
0.000114403
9.80337e-05
8.18053e-05
6.6626e-05
0.000139577
0.00015634
0.000152306
0.000138545
0.000121219
0.000103185
8.5167e-05
6.82057e-05
0.000107002
0.00014462
0.000152798
0.000143297
0.000126353
0.000107185
8.76046e-05
6.91102e-05
8.74824e-05
0.000132612
0.000150001
0.000144467
0.000128594
0.000109262
8.90087e-05
6.96438e-05
9.8683e-05
0.00013713
0.000149788
0.000142436
0.000126195
0.000107191
8.76208e-05
6.90995e-05
0.000124647
0.000148777
0.000149854
0.000138053
0.000121236
0.000103219
8.51018e-05
6.80363e-05
0.000147787
0.000153642
0.00014553
0.000131121
0.000114735
9.81408e-05
8.1675e-05
6.63087e-05
1.79048e-05
1.81894e-05
1.85181e-05
1.89145e-05
1.85734e-05
1.81104e-05
1.78383e-05
7.31537e-05
7.1735e-05
7.16729e-05
7.24805e-05
7.16984e-05
7.18487e-05
7.30705e-05
0.000110273
0.000109486
0.000109539
0.000109935
0.000109732
0.000109721
0.000110352
0.000144427
0.000144265
0.000144477
0.000144673
0.000144752
0.000144684
0.000144813
5.35547e-05
5.38146e-05
5.39837e-05
5.40554e-05
5.4089e-05
5.40101e-05
5.38335e-05
1.81242e-05
1.96484e-05
2.14594e-05
2.21312e-05
2.18784e-05
2.0006e-05
1.84622e-05
7.61559e-05
8.1438e-05
8.64775e-05
8.81633e-05
8.71435e-05
8.28336e-05
7.75779e-05
0.0001117
0.000114624
0.000118651
0.000122024
0.000118942
0.000114989
0.000112029
0.000144264
0.000145146
0.000145957
0.000148286
0.000145736
0.000144739
0.000143763
5.31711e-05
5.30067e-05
5.25341e-05
5.19908e-05
5.24383e-05
5.27892e-05
5.28403e-05
1.84054e-05
1.96277e-05
2.09508e-05
2.19339e-05
2.09184e-05
1.95267e-05
1.82971e-05
7.71419e-05
8.20096e-05
8.91119e-05
9.21074e-05
8.8644e-05
8.13426e-05
7.57075e-05
0.000112541
0.000116923
0.000124775
0.000129875
0.000124665
0.00011704
0.000112364
0.000144631
0.000147934
0.000153778
0.000159803
0.000154269
0.000148711
0.000145533
5.2846e-05
5.30989e-05
5.36452e-05
5.60873e-05
5.38632e-05
5.34079e-05
5.3322e-05
1.80997e-05
1.92388e-05
2.0925e-05
2.18874e-05
2.12172e-05
1.95502e-05
1.80825e-05
7.53504e-05
7.99586e-05
8.57069e-05
8.90534e-05
8.63044e-05
8.04115e-05
7.57306e-05
0.000111942
0.00011535
0.000120454
0.000124492
0.000120576
0.000115262
0.000111887
0.000145302
0.000146825
0.000148597
0.000151796
0.000148512
0.000146403
0.000144644
5.3607e-05
5.33646e-05
5.28974e-05
5.26012e-05
5.28719e-05
5.3163e-05
5.32214e-05
1.7675e-05
1.74895e-05
1.75062e-05
1.75532e-05
1.74707e-05
1.72818e-05
1.69985e-05
1.6614e-05
1.79717e-05
1.75216e-05
1.72593e-05
1.72677e-05
1.71889e-05
1.70189e-05
1.67613e-05
1.64061e-05
1.8297e-05
1.783e-05
1.73616e-05
1.71373e-05
1.69828e-05
1.68137e-05
1.65846e-05
1.62702e-05
1.87019e-05
1.8314e-05
1.79177e-05
1.75588e-05
1.71096e-05
1.66578e-05
1.62946e-05
1.59628e-05
1.83382e-05
1.78541e-05
1.74024e-05
1.71058e-05
1.69351e-05
1.67717e-05
1.65504e-05
1.6241e-05
1.78677e-05
1.74252e-05
1.72266e-05
1.72305e-05
1.71437e-05
1.69678e-05
1.67066e-05
1.63494e-05
1.76186e-05
1.74395e-05
1.743e-05
1.74677e-05
1.7378e-05
1.71846e-05
1.68988e-05
1.65132e-05
7.21737e-05
7.10335e-05
6.92184e-05
6.6602e-05
6.35674e-05
6.02304e-05
5.65706e-05
5.24349e-05
7.06526e-05
6.95e-05
6.79735e-05
6.55166e-05
6.26562e-05
5.94967e-05
5.60043e-05
5.2027e-05
7.02897e-05
6.87167e-05
6.70479e-05
6.4643e-05
6.18647e-05
5.88329e-05
5.54935e-05
5.16708e-05
7.08599e-05
6.87656e-05
6.65215e-05
6.3817e-05
6.09065e-05
5.79193e-05
5.47219e-05
5.10918e-05
7.02547e-05
6.86575e-05
6.6872e-05
6.45209e-05
6.17466e-05
5.87193e-05
5.53884e-05
5.15786e-05
7.07052e-05
6.94667e-05
6.77582e-05
6.52433e-05
6.23618e-05
5.92064e-05
5.57309e-05
5.17776e-05
7.19798e-05
7.06652e-05
6.87663e-05
6.60835e-05
6.30328e-05
5.97105e-05
5.60801e-05
5.19836e-05
0.000103626
9.71602e-05
9.23644e-05
8.76735e-05
8.2019e-05
7.58315e-05
6.953e-05
6.30916e-05
0.00010308
9.69678e-05
9.2066e-05
8.73476e-05
8.17323e-05
7.56193e-05
6.93957e-05
6.30298e-05
0.000103152
9.70766e-05
9.20073e-05
8.72071e-05
8.15854e-05
7.55119e-05
6.93402e-05
6.30206e-05
0.000103439
9.71805e-05
9.18927e-05
8.69739e-05
8.12991e-05
7.52385e-05
6.91272e-05
6.28865e-05
0.000103317
9.72423e-05
9.20521e-05
8.71896e-05
8.15357e-05
7.54503e-05
6.92783e-05
6.29657e-05
0.00010327
9.71642e-05
9.20344e-05
8.71997e-05
8.15323e-05
7.54064e-05
6.91907e-05
6.28436e-05
0.000103685
9.73142e-05
9.22038e-05
8.73582e-05
8.16429e-05
7.54493e-05
6.91684e-05
6.27649e-05
0.000132191
0.000116102
0.00010422
9.6422e-05
8.91459e-05
8.15346e-05
7.40186e-05
6.66715e-05
0.000132294
0.000116393
0.000104484
9.66023e-05
8.9273e-05
8.16446e-05
7.41255e-05
6.67795e-05
0.000132611
0.000116762
0.000104776
9.67953e-05
8.94002e-05
8.17399e-05
7.42053e-05
6.68485e-05
0.000132792
0.000116898
0.000104857
9.6818e-05
8.93769e-05
8.16995e-05
7.41725e-05
6.68309e-05
0.000132929
0.000117044
0.00010495
9.68745e-05
8.94213e-05
8.17292e-05
7.41804e-05
6.68205e-05
0.000132818
0.000116864
0.000104748
9.66878e-05
8.92486e-05
8.15616e-05
7.40179e-05
6.66684e-05
0.000132787
0.000116688
0.000104547
9.65028e-05
8.9072e-05
8.1381e-05
7.38335e-05
6.64846e-05
8.03475e-05
9.69677e-05
9.741e-05
9.42106e-05
8.8655e-05
8.17494e-05
7.46043e-05
6.7537e-05
8.09069e-05
9.75651e-05
9.79444e-05
9.46536e-05
8.90227e-05
8.20528e-05
7.48439e-05
6.77207e-05
8.12142e-05
9.79052e-05
9.82265e-05
9.4857e-05
8.91627e-05
8.21472e-05
7.49037e-05
6.77547e-05
8.14061e-05
9.81334e-05
9.84254e-05
9.50015e-05
8.92535e-05
8.22e-05
7.49323e-05
6.77658e-05
8.15061e-05
9.81721e-05
9.84152e-05
9.49756e-05
8.92275e-05
8.21736e-05
7.49054e-05
6.7743e-05
8.1472e-05
9.80798e-05
9.82992e-05
9.48639e-05
8.91211e-05
8.20717e-05
7.48118e-05
6.7661e-05
8.12159e-05
9.77648e-05
9.79733e-05
9.45532e-05
8.88233e-05
8.17909e-05
7.456e-05
6.74434e-05
1.78602e-05
1.76569e-05
1.76513e-05
1.76724e-05
1.75692e-05
1.73605e-05
1.70519e-05
1.66322e-05
1.95028e-05
1.91603e-05
1.8858e-05
1.85611e-05
1.82091e-05
1.78497e-05
1.74423e-05
1.6983e-05
2.13675e-05
2.11927e-05
2.08993e-05
2.05099e-05
2.00944e-05
1.96895e-05
1.92029e-05
1.86842e-05
2.21163e-05
2.22405e-05
2.22531e-05
2.21713e-05
2.19979e-05
2.1593e-05
2.10223e-05
2.03725e-05
2.18348e-05
2.1632e-05
2.13107e-05
2.09094e-05
2.04369e-05
1.99534e-05
1.94364e-05
1.88999e-05
1.97496e-05
1.9438e-05
1.91664e-05
1.88175e-05
1.84281e-05
1.80149e-05
1.75663e-05
1.70766e-05
1.81944e-05
1.79138e-05
1.79104e-05
1.78827e-05
1.77454e-05
1.75099e-05
1.71789e-05
1.67409e-05
7.47399e-05
7.2957e-05
7.05761e-05
6.74482e-05
6.39229e-05
6.01228e-05
5.60425e-05
5.15257e-05
7.93672e-05
7.65758e-05
7.34552e-05
6.98041e-05
6.58339e-05
6.15283e-05
5.68697e-05
5.16725e-05
8.40662e-05
8.05733e-05
7.70455e-05
7.33317e-05
6.9337e-05
6.50308e-05
6.03387e-05
5.51253e-05
8.66433e-05
8.39982e-05
8.11529e-05
7.80926e-05
7.47196e-05
7.10909e-05
6.66114e-05
6.16459e-05
8.46254e-05
8.10496e-05
7.74449e-05
7.3653e-05
6.96068e-05
6.5327e-05
6.05881e-05
5.53014e-05
8.0731e-05
7.77074e-05
7.43211e-05
7.05755e-05
6.64983e-05
6.21357e-05
5.74196e-05
5.21764e-05
7.61313e-05
7.42525e-05
7.15766e-05
6.83229e-05
6.46896e-05
6.07872e-05
5.66088e-05
5.19981e-05
0.000104388
9.70305e-05
9.20018e-05
8.70607e-05
8.11501e-05
7.47403e-05
6.8269e-05
6.1708e-05
0.000106928
9.88385e-05
9.34161e-05
8.81392e-05
8.18926e-05
7.51116e-05
6.82241e-05
6.11941e-05
0.000110695
0.000101771
9.54272e-05
8.92348e-05
8.21683e-05
7.46966e-05
6.71757e-05
5.94414e-05
0.000114746
0.000106763
0.000100915
9.50977e-05
8.84878e-05
8.17393e-05
7.55321e-05
6.96901e-05
0.000110914
0.000101847
9.55064e-05
8.93021e-05
8.22268e-05
7.47679e-05
6.72976e-05
5.96652e-05
0.000107172
9.88448e-05
9.35326e-05
8.83301e-05
8.21355e-05
7.53941e-05
6.85393e-05
6.15379e-05
0.000104568
9.69124e-05
9.2108e-05
8.72895e-05
8.14279e-05
7.50212e-05
6.85313e-05
6.19406e-05
0.000131523
0.000115088
0.000103169
9.53549e-05
8.80117e-05
8.03608e-05
7.2854e-05
6.55447e-05
0.000132128
0.000115466
0.000103416
9.54407e-05
8.78686e-05
7.9956e-05
7.21871e-05
6.4612e-05
0.000132441
0.000115094
0.000102506
9.3883e-05
8.55017e-05
7.68358e-05
6.84387e-05
6.02577e-05
0.000135129
0.000118274
0.000105772
9.66751e-05
8.74412e-05
7.80474e-05
6.97262e-05
6.33906e-05
0.000132119
0.00011478
0.000102302
9.37809e-05
8.54747e-05
7.68811e-05
6.85776e-05
6.05364e-05
0.000131525
0.000114881
0.000103044
9.5273e-05
8.7841e-05
8.00214e-05
7.23176e-05
6.47918e-05
0.000130719
0.000114262
0.000102618
9.50783e-05
8.79136e-05
8.03648e-05
7.29135e-05
6.56297e-05
7.96548e-05
9.64307e-05
9.68842e-05
9.35936e-05
8.79322e-05
8.09911e-05
7.38732e-05
6.68533e-05
7.89763e-05
9.58721e-05
9.63277e-05
9.29168e-05
8.70701e-05
7.99597e-05
7.27107e-05
6.55549e-05
7.80322e-05
9.51045e-05
9.54601e-05
9.16377e-05
8.51903e-05
7.75209e-05
6.97584e-05
6.20047e-05
7.65701e-05
9.3682e-05
9.34017e-05
8.80542e-05
7.91308e-05
6.87227e-05
5.90762e-05
5.21933e-05
7.77753e-05
9.48933e-05
9.53375e-05
9.15903e-05
8.52045e-05
7.75944e-05
6.9905e-05
6.22478e-05
7.83776e-05
9.53466e-05
9.59781e-05
9.27236e-05
8.69978e-05
7.99785e-05
7.27968e-05
6.56891e-05
7.86945e-05
9.55567e-05
9.62568e-05
9.31896e-05
8.76988e-05
8.08842e-05
7.38594e-05
6.69008e-05
1.81622e-05
1.79061e-05
1.79365e-05
1.79798e-05
1.78886e-05
1.76831e-05
1.73731e-05
1.69479e-05
1.9474e-05
1.91904e-05
1.898e-05
1.87511e-05
1.84274e-05
1.80811e-05
1.77001e-05
1.72274e-05
2.08247e-05
2.06744e-05
2.04721e-05
2.01841e-05
1.97742e-05
1.93065e-05
1.87366e-05
1.81368e-05
2.18e-05
2.16273e-05
2.15516e-05
2.13426e-05
2.07502e-05
2.0011e-05
1.94712e-05
1.90277e-05
2.07762e-05
2.06388e-05
2.04637e-05
2.01505e-05
1.97164e-05
1.92216e-05
1.86502e-05
1.80729e-05
1.93636e-05
1.91477e-05
1.89173e-05
1.86305e-05
1.83186e-05
1.79658e-05
1.75864e-05
1.71414e-05
1.80432e-05
1.7807e-05
1.78016e-05
1.78313e-05
1.77269e-05
1.75225e-05
1.72259e-05
1.68245e-05
7.59298e-05
7.44643e-05
7.21657e-05
6.90162e-05
6.53704e-05
6.1421e-05
5.72026e-05
5.25636e-05
8.03153e-05
7.78865e-05
7.49896e-05
7.14343e-05
6.73998e-05
6.29863e-05
5.82149e-05
5.29116e-05
8.72613e-05
8.4104e-05
8.05688e-05
7.66491e-05
7.23141e-05
6.75714e-05
6.23737e-05
5.64594e-05
9.07144e-05
8.82368e-05
8.50558e-05
8.13296e-05
7.70315e-05
7.18131e-05
6.5679e-05
5.90369e-05
8.67937e-05
8.36367e-05
8.00543e-05
7.61399e-05
7.18138e-05
6.71053e-05
6.19735e-05
5.61607e-05
7.96434e-05
7.72533e-05
7.44023e-05
7.09893e-05
6.70596e-05
6.2787e-05
5.81799e-05
5.30464e-05
7.45565e-05
7.31542e-05
7.10374e-05
6.8083e-05
6.46736e-05
6.09669e-05
5.6978e-05
5.25524e-05
0.000105136
9.75129e-05
9.27689e-05
8.79404e-05
8.20156e-05
7.55287e-05
6.89722e-05
6.23356e-05
0.000109151
0.000100808
9.54746e-05
9.01829e-05
8.37629e-05
7.67197e-05
6.95829e-05
6.23518e-05
0.000117145
0.000108652
0.00010206
9.56475e-05
8.8287e-05
8.04417e-05
7.25167e-05
6.43341e-05
0.000123192
0.00011625
0.000110089
0.000104261
9.78445e-05
9.09421e-05
8.32626e-05
7.53665e-05
0.000117081
0.000108693
0.000102091
9.5713e-05
8.84009e-05
8.05936e-05
7.27011e-05
6.45645e-05
0.000109392
0.00010125
9.57697e-05
9.04184e-05
8.39985e-05
7.6977e-05
6.98618e-05
6.2647e-05
0.000105258
9.80675e-05
9.31148e-05
8.82128e-05
8.2301e-05
7.5861e-05
6.93547e-05
6.27638e-05
0.000131487
0.000114879
0.000103124
9.55126e-05
8.82846e-05
8.06839e-05
7.32066e-05
6.59176e-05
0.000134527
0.000117424
0.000105091
9.69507e-05
8.91836e-05
8.10383e-05
7.30994e-05
6.54454e-05
0.000140629
0.000123229
0.000110052
0.000100622
9.14437e-05
8.23328e-05
7.39847e-05
6.59907e-05
0.000148343
0.000132881
0.000120511
0.000111176
0.000102586
9.49171e-05
8.80488e-05
8.0739e-05
0.000141251
0.000123896
0.000110643
0.000101148
9.19405e-05
8.27706e-05
7.43176e-05
6.62238e-05
0.000135531
0.000118411
0.00010584
9.74834e-05
8.95761e-05
8.13154e-05
7.32667e-05
6.55141e-05
0.000132806
0.000116264
0.000104223
9.63468e-05
8.89681e-05
8.12688e-05
7.37153e-05
6.63674e-05
7.8657e-05
9.56371e-05
9.64215e-05
9.34076e-05
8.79436e-05
8.11541e-05
7.41583e-05
6.72211e-05
7.86357e-05
9.60289e-05
9.68482e-05
9.3597e-05
8.77123e-05
8.05136e-05
7.32478e-05
6.61834e-05
8.0841e-05
9.98906e-05
0.000100869
9.6628e-05
8.94243e-05
8.1763e-05
7.51574e-05
6.90322e-05
8.57754e-05
0.000107162
0.00010847
0.00010358
9.68197e-05
9.16503e-05
8.79371e-05
8.16863e-05
8.12705e-05
0.000100264
0.000101182
9.68959e-05
8.96213e-05
8.18088e-05
7.50078e-05
6.87229e-05
7.93205e-05
9.65779e-05
9.72351e-05
9.38627e-05
8.78791e-05
8.05695e-05
7.31878e-05
6.60296e-05
7.97644e-05
9.65692e-05
9.71605e-05
9.40301e-05
8.84887e-05
8.16126e-05
7.45249e-05
6.75097e-05
1.78652e-05
1.77153e-05
1.77204e-05
1.77185e-05
1.75933e-05
1.73693e-05
1.70563e-05
1.66414e-05
1.91211e-05
1.89334e-05
1.87365e-05
1.85478e-05
1.82653e-05
1.79289e-05
1.75348e-05
1.70747e-05
2.07745e-05
2.06167e-05
2.04689e-05
2.0225e-05
1.99103e-05
1.95334e-05
1.90679e-05
1.85739e-05
2.18738e-05
2.19573e-05
2.19643e-05
2.18224e-05
2.15587e-05
2.11047e-05
2.05587e-05
1.99076e-05
2.11091e-05
2.09659e-05
2.07931e-05
2.04982e-05
2.01267e-05
1.96889e-05
1.91777e-05
1.86657e-05
1.93766e-05
1.90656e-05
1.88292e-05
1.85514e-05
1.82227e-05
1.78601e-05
1.74695e-05
1.70181e-05
1.78178e-05
1.76057e-05
1.75815e-05
1.76276e-05
1.7546e-05
1.73513e-05
1.70522e-05
1.66386e-05
7.40589e-05
7.23528e-05
7.00082e-05
6.6968e-05
6.35781e-05
5.99359e-05
5.60151e-05
5.165e-05
7.83058e-05
7.58696e-05
7.29521e-05
6.94597e-05
6.56122e-05
6.14408e-05
5.69257e-05
5.18519e-05
8.40622e-05
8.11769e-05
7.77504e-05
7.40268e-05
6.9983e-05
6.56571e-05
6.09984e-05
5.57493e-05
8.77331e-05
8.52775e-05
8.23664e-05
7.91652e-05
7.55498e-05
7.1516e-05
6.67175e-05
6.16874e-05
8.46299e-05
8.16485e-05
7.81336e-05
7.43326e-05
7.02292e-05
6.58528e-05
6.11444e-05
5.58592e-05
7.87195e-05
7.63349e-05
7.33809e-05
6.98957e-05
6.60116e-05
6.18029e-05
5.72348e-05
5.21209e-05
7.44227e-05
7.28269e-05