/*--------------------------------*- C++ -*----------------------------------*\
| =========                 |                                                 |
| \\      /  F ield         | OpenFOAM: The Open Source CFD Toolbox           |
|  \\    /   O peration     | Version:  plus.master                           |
|   \\  /    A nd           | Web:      www.OpenFOAM.com                      |
|    \\/     M anipulation  |                                                 |
\*---------------------------------------------------------------------------*/
FoamFile
{
    version     2.0;
    format      ascii;
    class       volVectorField;
    location    "3.4";
    object      U;
}
// * * * * * * * * * * * * * * * * * * * * * * * * * * * * * * * * * * * * * //

dimensions      [0 1 -1 0 0 0 0];

internalField   nonuniform List<vector> 
47285
(
(0.039529 0.0396059 -0.00171053)
(0.0236014 0.0456657 -0.000523812)
(0.0107087 0.0416013 0.00306003)
(-0.000189198 0.043667 0.00709168)
(-0.0112696 0.0428481 0.00207642)
(-0.0256243 0.0441128 -0.00172303)
(-0.0431045 0.0407908 -0.0026977)
(0.0412213 0.0221943 -0.000690068)
(0.0536333 0.056849 0.055755)
(0.0509897 0.072916 0.0698075)
(0.00107161 0.076668 0.0778495)
(-0.0499712 0.075771 0.0674214)
(-0.0565921 0.0588808 0.0511542)
(-0.0483009 0.0307743 -0.00228643)
(0.0349375 0.00698237 0.00357228)
(0.0692154 0.0522944 0.0793266)
(0.151126 0.135723 0.326511)
(0.0122514 0.154526 0.366979)
(-0.137722 0.145755 0.333193)
(-0.0710053 0.0623252 0.0748188)
(-0.0413244 0.0194242 0.00285409)
(0.0319009 -0.00184872 0.00855124)
(0.0630265 -0.00225102 0.0870314)
(0.151148 0.00773191 0.402592)
(0.0491028 0.127239 1.4119)
(-0.128255 0.00782806 0.519985)
(-0.0691624 -1.06577e-05 0.107644)
(-0.0363521 -0.000499388 0.0109325)
(0.0348527 -0.010584 0.00300397)
(0.0679908 -0.0557399 0.080883)
(0.135611 -0.129288 0.376203)
(0.0134161 -0.121 0.583198)
(-0.124552 -0.139322 0.365058)
(-0.0691209 -0.063757 0.0739596)
(-0.0400472 -0.0213538 0.00220464)
(0.0384083 -0.0258677 -0.00168455)
(0.0524991 -0.0608848 0.0522113)
(0.0496153 -0.0681259 0.0751156)
(-0.00469647 -0.0621976 0.0999457)
(-0.0550705 -0.0706345 0.0682047)
(-0.0591303 -0.060764 0.0448167)
(-0.0477555 -0.0330681 -0.0034664)
(0.0362158 -0.0423984 -0.0025378)
(0.0261287 -0.0472042 -0.00194714)
(0.0142768 -0.0392551 0.00329689)
(-0.00405041 -0.0331722 0.00874141)
(-0.0205667 -0.0423525 0.000873267)
(-0.033351 -0.0471991 -0.00332074)
(-0.0431621 -0.041384 -0.00356621)
(0.0260035 0.0251397 0.0235799)
(0.0201346 0.0267515 0.0300265)
(0.0106896 0.0254747 0.048326)
(-0.00570548 0.0236898 0.0655253)
(-0.0182096 0.0223788 0.0436992)
(-0.0255079 0.0232816 0.0273115)
(-0.0298716 0.0215112 0.0226678)
(0.0263276 0.0186935 0.0297322)
(0.0271773 0.027098 0.108794)
(0.024035 0.0243825 0.156939)
(-0.0021379 0.0222033 0.197369)
(-0.0279583 0.0193872 0.160415)
(-0.0314591 0.0232317 0.105739)
(-0.0303732 0.0145752 0.0266048)
(0.0235155 0.00914033 0.0479449)
(0.0234432 0.0215374 0.158068)
(0.056568 0.0371615 0.464447)
(0.0202153 0.0435161 0.676221)
(-0.0392116 0.0310043 0.561389)
(-0.0226276 0.0148194 0.180548)
(-0.0224519 0.00314603 0.0435304)
(0.0213276 -0.00622473 0.0617)
(0.0167372 -0.0097576 0.184278)
(0.0712815 -0.00619303 0.618072)
(0.117303 0.0605586 1.84721)
(0.0287796 -0.00603915 1.11595)
(-0.00679876 -0.00828509 0.332362)
(-0.00184772 -0.00593663 0.0795865)
(0.0177363 -0.0171616 0.0474859)
(0.0141734 -0.0316823 0.160938)
(0.0320907 -0.0414037 0.564844)
(0.0250444 0.0145745 1.1575)
(-0.0165408 -0.0392343 0.661436)
(-0.011606 -0.0238815 0.183864)
(-0.0153091 -0.0109967 0.0421839)
(0.0198049 -0.0229279 0.0298029)
(0.0174503 -0.0301455 0.108447)
(0.00592601 -0.0180789 0.163619)
(-0.00433427 -0.000666166 0.250264)
(-0.0140979 -0.00974205 0.16389)
(-0.0232978 -0.0237459 0.102141)
(-0.0245213 -0.0180805 0.0262994)
(0.0203358 -0.0268164 0.0240074)
(0.0120216 -0.0264129 0.0303545)
(-0.000744081 -0.0177171 0.0455034)
(-0.00710816 -0.00119327 0.0613804)
(-0.00964631 -0.0160775 0.0392224)
(-0.0185367 -0.0230137 0.0271226)
(-0.0248019 -0.0230401 0.0228739)
(0.0289186 0.0293723 0.0632337)
(0.0192935 0.0313628 0.0779754)
(0.00450801 0.0294945 0.114483)
(-0.0106794 0.020314 0.142763)
(-0.0198872 0.0203297 0.105067)
(-0.0263695 0.0218073 0.0718332)
(-0.0314343 0.0213906 0.062201)
(0.0304633 0.0216058 0.0777279)
(0.0230008 0.0252056 0.137098)
(0.0127513 0.0228025 0.231649)
(-0.00861297 0.00909982 0.317598)
(-0.0259967 0.00517864 0.244073)
(-0.0277287 0.0102678 0.132918)
(-0.0312147 0.0108177 0.0710506)
(0.0301815 0.0107546 0.106552)
(0.0228137 0.0152323 0.213064)
(0.0319441 0.0197644 0.505646)
(0.0121167 -0.00242969 0.901842)
(-0.0195758 -0.00721 0.709649)
(-0.0118147 -0.00812612 0.268569)
(-0.0222122 -0.00643137 0.103601)
(0.0295825 -0.0062133 0.124356)
(0.0232463 -0.0128494 0.252036)
(0.0482856 -0.0201129 0.660569)
(0.0932427 -0.0150455 1.81561)
(0.0596028 -0.0280525 1.4039)
(0.013926 -0.0123888 0.456966)
(0.00658029 -0.0053853 0.163313)
(0.0256 -0.0186524 0.103388)
(0.012376 -0.0298396 0.202429)
(0.00974306 -0.0419311 0.548394)
(0.00734845 0.00473027 1.24723)
(0.00373024 -0.0178336 0.728717)
(-0.00304321 -0.00508354 0.248604)
(-0.0184896 -0.000788714 0.0975232)
(0.0249675 -0.0252392 0.0775603)
(0.0138262 -0.0295186 0.126113)
(-0.0050184 -0.0208057 0.207491)
(-0.0106416 0.0075869 0.291554)
(-0.0115611 -0.00101001 0.209405)
(-0.0205064 -0.0136867 0.117831)
(-0.0268599 -0.0146851 0.0712232)
(0.0243756 -0.0306943 0.0652727)
(0.0129711 -0.031296 0.0772758)
(-0.00358621 -0.0267689 0.0998838)
(-0.0107066 -0.0112014 0.115315)
(-0.0117752 -0.019403 0.0915845)
(-0.0202436 -0.0228208 0.0721078)
(-0.0273749 -0.0233275 0.0641357)
(0.0365316 0.0388769 0.136144)
(0.0203998 0.0370703 0.156923)
(0.000325796 0.0305589 0.201843)
(-0.0123588 0.0156544 0.234251)
(-0.0180951 0.020165 0.191046)
(-0.0279519 0.0277087 0.149448)
(-0.03894 0.0313162 0.134826)
(0.0349189 0.0267578 0.156022)
(0.0193106 0.0255887 0.219723)
(0.00255639 0.0202181 0.335375)
(-0.0140135 -0.00173212 0.452918)
(-0.0232749 -0.00140716 0.348902)
(-0.0251275 0.0082424 0.209745)
(-0.0362103 0.0158718 0.147931)
(0.0324883 0.0134231 0.189589)
(0.0191568 0.0123152 0.302988)
(0.0132821 0.00937294 0.587918)
(-0.0054683 -0.0288511 1.06524)
(-0.0191352 -0.0213421 0.776872)
(-0.00869099 -0.0143274 0.340946)
(-0.0262897 -0.00472502 0.178883)
(0.0318237 -0.00288438 0.2075)
(0.0200845 -0.0109857 0.338656)
(0.0231864 -0.0264423 0.713531)
(0.0497058 -0.0618073 1.76631)
(0.0374301 -0.0325728 1.35661)
(0.0149214 -0.00940346 0.490044)
(-0.00187505 -0.00115154 0.221084)
(0.0325582 -0.0168854 0.18335)
(0.0148707 -0.0252904 0.280349)
(0.000512554 -0.038132 0.533322)
(-0.00896795 -0.0217777 1.01069)
(-0.00217286 -0.00927256 0.674096)
(-0.0086699 0.00457492 0.311848)
(-0.0276159 0.00226915 0.173186)
(0.0352533 -0.0286915 0.153699)
(0.0186753 -0.0301109 0.197487)
(-0.00281202 -0.0250592 0.275403)
(-0.0153282 0.00100197 0.329101)
(-0.0192039 -0.00431384 0.274869)
(-0.0270784 -0.0134199 0.186304)
(-0.0372351 -0.0184382 0.147097)
(0.0367326 -0.0406632 0.137708)
(0.0211813 -0.0397556 0.152766)
(0.00206615 -0.0361015 0.175934)
(-0.0112029 -0.0260161 0.188467)
(-0.0177166 -0.0284039 0.168202)
(-0.0284928 -0.031611 0.147578)
(-0.0393364 -0.0337741 0.136522)
(0.0416839 0.0450752 0.261815)
(0.0231097 0.0419047 0.281692)
(0.000930804 0.0342769 0.322863)
(-0.0112251 0.0187602 0.352598)
(-0.0170695 0.0273193 0.310392)
(-0.0307237 0.0365962 0.273306)
(-0.0451054 0.0405786 0.25941)
(0.0388621 0.0308611 0.28114)
(0.0192361 0.0275677 0.341766)
(-0.00116631 0.0210481 0.458723)
(-0.0156678 -0.00254206 0.584176)
(-0.0218813 0.0040052 0.453705)
(-0.0278824 0.0164543 0.32148)
(-0.0431357 0.0241467 0.271473)
(0.0352959 0.0163533 0.312848)
(0.0179286 0.0129799 0.423923)
(0.00255838 0.00592988 0.709873)
(-0.0142718 -0.0348966 1.22108)
(-0.0221118 -0.0170239 0.830335)
(-0.0151654 -0.00739658 0.425242)
(-0.0366029 0.0037037 0.294127)
(0.0350226 0.000632319 0.328976)
(0.0191775 -0.00664592 0.453379)
(0.00664618 -0.0242023 0.802109)
(0.0182826 -0.066694 1.75061)
(0.0140457 -0.0231538 1.35348)
(0.00280564 -0.00371946 0.515363)
(-0.0208681 0.0020428 0.318141)
(0.0397491 -0.015376 0.305193)
(0.0219442 -0.0212905 0.392475)
(0.00224964 -0.0343803 0.577433)
(-0.0135413 -0.0341108 0.834706)
(-0.016335 -0.00937226 0.655502)
(-0.0228556 0.00288464 0.394293)
(-0.0407334 -0.00242769 0.289014)
(0.0435681 -0.0313018 0.277739)
(0.0258985 -0.0320263 0.315364)
(0.00378985 -0.0317318 0.380135)
(-0.0165428 -0.0168262 0.419557)
(-0.0266855 -0.0157083 0.373202)
(-0.0354633 -0.0206278 0.299735)
(-0.0472452 -0.0249952 0.270042)
(0.0452427 -0.0469613 0.262496)
(0.0284413 -0.0462384 0.276274)
(0.0086763 -0.0445546 0.295374)
(-0.0102102 -0.0393104 0.304317)
(-0.0224325 -0.0390782 0.287749)
(-0.0353778 -0.0410618 0.270502)
(-0.0483306 -0.0426578 0.260202)
(-0.0369408 0.0271074 -0.00115327)
(-0.0361715 0.0227068 -0.000258951)
(-0.0326382 0.0203832 0.000341248)
(-0.0309397 0.0190146 0.000709573)
(-0.0302507 0.0180959 0.000945074)
(-0.0295581 0.0173092 0.00103722)
(-0.0288173 0.0166255 0.000968901)
(-0.0280144 0.0159348 0.00070379)
(-0.0367115 0.0172841 -0.00205395)
(-0.0395139 0.0134991 -0.00106809)
(-0.0354451 0.0132744 -0.000442696)
(-0.0345336 0.0135477 -0.000114366)
(-0.0326197 0.0129108 0.000255097)
(-0.0326819 0.0126917 0.000417521)
(-0.031883 0.0121033 0.000449387)
(-0.0311661 0.0112729 0.000380281)
(-0.0366235 0.00718918 -0.00215018)
(-0.0367912 0.00448393 -0.0012985)
(-0.0359836 0.00590996 -0.0007355)
(-0.0326507 0.00580591 -0.00036826)
(-0.0321009 0.006106 -0.000173737)
(-0.0300748 0.00575503 -0.000136973)
(-0.0306074 0.00587065 -0.000143345)
(-0.0287486 0.00532852 -3.50129e-05)
(-0.0302553 -0.00165291 -0.00164945)
(-0.036881 -0.00196691 -0.00186153)
(-0.0334393 -0.00169974 -0.00124533)
(-0.0295876 -0.00148404 -0.000736292)
(-0.0304947 -0.00130655 -0.000497867)
(-0.0281661 -0.00115666 -0.000430779)
(-0.0286784 -0.0010285 -0.000500171)
(-0.0264877 -0.000822316 -0.00035456)
(-0.0312061 -0.00778891 -0.00215613)
(-0.0375988 -0.00619115 -0.00146263)
(-0.0336901 -0.00742787 -0.000804365)
(-0.0325536 -0.00783176 -0.00041741)
(-0.0319722 -0.0079424 -0.000189589)
(-0.0301571 -0.007487 -0.000150676)
(-0.0307544 -0.00751087 -0.000210002)
(-0.0291067 -0.00681797 -5.0167e-05)
(-0.0412415 -0.020018 -0.00289498)
(-0.0388924 -0.0143651 -0.00142485)
(-0.0378748 -0.0154899 -0.00064759)
(-0.0353679 -0.0153321 -6.29242e-05)
(-0.0341837 -0.0151321 0.000282194)
(-0.033081 -0.0144619 0.000473575)
(-0.0321946 -0.0137903 0.000513203)
(-0.0315588 -0.0130172 0.000400676)
(-0.0380145 -0.0290643 -0.00175341)
(-0.0360594 -0.0240947 -0.000698364)
(-0.0334119 -0.0228099 6.77956e-05)
(-0.0307549 -0.0213295 0.000581035)
(-0.0299486 -0.0207402 0.000905938)
(-0.0290796 -0.0200024 0.00105142)
(-0.0278707 -0.0190308 0.000955741)
(-0.0269267 -0.0182824 0.000681427)
(-0.0313056 0.0191471 0.02293)
(-0.0316476 0.0196998 0.0232841)
(-0.032162 0.0203341 0.022756)
(-0.0326512 0.020825 0.0215978)
(-0.0329357 0.0210689 0.0199341)
(-0.0329359 0.0210473 0.017919)
(-0.032637 0.0207761 0.0156853)
(-0.0320416 0.0202657 0.0133119)
(-0.0325758 0.0111549 0.0218966)
(-0.033488 0.0119076 0.022763)
(-0.0344778 0.0128185 0.0227343)
(-0.0354732 0.0135842 0.0218647)
(-0.0361533 0.0140604 0.0204646)
(-0.0364311 0.0142453 0.0185038)
(-0.0362491 0.0141501 0.0161836)
(-0.0356333 0.0138111 0.0137037)
(-0.0310407 0.000336439 0.0207782)
(-0.0324514 0.0027777 0.021853)
(-0.0341495 0.00429336 0.0222181)
(-0.0357279 0.00530867 0.0215031)
(-0.0368906 0.00598029 0.0200367)
(-0.0374561 0.00636774 0.0180304)
(-0.0374695 0.00653292 0.0157236)
(-0.0368953 0.0065041 0.0133675)
(-0.0257793 -0.0037902 0.0210191)
(-0.0288686 -0.00262709 0.0208513)
(-0.031878 -0.00207888 0.0213602)
(-0.0343831 -0.001731 0.0207821)
(-0.0361921 -0.00146844 0.0193372)
(-0.0371306 -0.00126555 0.0172666)
(-0.0373722 -0.00110321 0.0148522)
(-0.0369055 -0.000966945 0.0124374)
(-0.0279252 -0.00606519 0.0211408)
(-0.0304472 -0.00720201 0.0222972)
(-0.0327322 -0.00797432 0.0225357)
(-0.0347361 -0.00845957 0.0217778)
(-0.0361411 -0.00871531 0.0202441)
(-0.0368672 -0.00878118 0.0181841)
(-0.0369864 -0.00869181 0.0158061)
(-0.0364793 -0.00845027 0.0134495)
(-0.0292231 -0.0147759 0.0221335)
(-0.0309531 -0.0150483 0.023018)
(-0.0325974 -0.0156537 0.0230716)
(-0.0339657 -0.0161442 0.0222748)
(-0.0349011 -0.0164096 0.0207763)
(-0.0353237 -0.0164152 0.0187834)
(-0.0352448 -0.01618 0.0164611)
(-0.0346926 -0.0157269 0.0139402)
(-0.0278272 -0.0212006 0.0231656)
(-0.0288514 -0.0217462 0.0234932)
(-0.0298721 -0.0223857 0.02302)
(-0.030663 -0.0228563 0.0219223)
(-0.0311537 -0.0230785 0.0203022)
(-0.0312875 -0.0230198 0.0182988)
(-0.0310789 -0.0226987 0.0160675)
(-0.0305573 -0.0221369 0.0137091)
(-0.0353965 0.0219088 0.058182)
(-0.0379061 0.0248492 0.0540421)
(-0.0403385 0.0273388 0.0486454)
(-0.0424405 0.0292929 0.0421302)
(-0.0441053 0.0307397 0.0348097)
(-0.0452895 0.0317151 0.0270396)
(-0.0459402 0.0322252 0.0192323)
(-0.0459559 0.0322192 0.0118863)
(-0.0352171 0.0120585 0.0615205)
(-0.0392709 0.015056 0.0572179)
(-0.0429316 0.0174654 0.0521177)
(-0.046134 0.0193279 0.0456842)
(-0.0486894 0.0206768 0.0381435)
(-0.0505378 0.0215765 0.0298777)
(-0.0516077 0.0220527 0.021384)
(-0.0517769 0.0220876 0.0132906)
(-0.0322068 -0.000563829 0.0652177)
(-0.0379478 0.00401709 0.0590147)
(-0.0429486 0.00665145 0.0540582)
(-0.0473128 0.00842766 0.0477938)
(-0.0507594 0.00963869 0.0401996)
(-0.0532298 0.0104319 0.0316771)
(-0.0546903 0.0108848 0.0227826)
(-0.0550256 0.0110234 0.0142273)
(-0.0230902 -0.00232473 0.0699275)
(-0.0333357 -0.0017885 0.0595494)
(-0.0404054 -0.00153962 0.0545263)
(-0.0461494 -0.00134083 0.0484014)
(-0.0505129 -0.00116917 0.0408342)
(-0.0535587 -0.00102462 0.0322346)
(-0.0553722 -0.000900453 0.0231991)
(-0.0559041 -0.000788669 0.0144801)
(-0.0303597 -0.00396248 0.0658254)
(-0.0368784 -0.0075719 0.0597404)
(-0.042169 -0.00963342 0.0546142)
(-0.046674 -0.0109683 0.0482525)
(-0.0502163 -0.0118339 0.0406078)
(-0.0527673 -0.0123617 0.0320545)
(-0.0542892 -0.0126055 0.0231369)
(-0.0546687 -0.0125728 0.0145631)
(-0.0326058 -0.0155604 0.0628612)
(-0.037229 -0.0179506 0.0583722)
(-0.0413392 -0.0199729 0.0530961)
(-0.0448372 -0.021555 0.046569)
(-0.0475868 -0.0226995 0.0389719)
(-0.0495661 -0.0234368 0.0306701)
(-0.0507316 -0.0237782 0.022147)
(-0.0509736 -0.0236966 0.0140212)
(-0.0326369 -0.0240231 0.0597746)
(-0.0356743 -0.0268424 0.0554286)
(-0.0384625 -0.0292241 0.0499208)
(-0.0407955 -0.0310835 0.0433551)
(-0.0426194 -0.0324491 0.0360064)
(-0.0439147 -0.0333554 0.0282143)
(-0.0446441 -0.0338075 0.020385)
(-0.0447151 -0.0337534 0.0130134)
(-0.0487288 0.0349246 0.126799)
(-0.0553341 0.0413631 0.119341)
(-0.0615701 0.0469169 0.110749)
(-0.0668608 0.051357 0.101107)
(-0.0708008 0.0545305 0.0906267)
(-0.0729847 0.0562194 0.0794026)
(-0.0729328 0.0561104 0.0672618)
(-0.0701589 0.0538696 0.0536787)
(-0.0472304 0.0204039 0.13354)
(-0.0568738 0.0260027 0.125177)
(-0.0655849 0.0307366 0.116443)
(-0.0731842 0.0345399 0.106569)
(-0.0790955 0.0373204 0.0956365)
(-0.0827723 0.0389169 0.083762)
(-0.0835312 0.0390671 0.0707747)
(-0.0806745 0.0374813 0.0560453)
(-0.0432728 0.00451597 0.140162)
(-0.055836 0.0101731 0.129191)
(-0.0667038 0.013918 0.120189)
(-0.0761994 0.0166386 0.110222)
(-0.0836539 0.0185322 0.0990538)
(-0.0884744 0.019634 0.0867855)
(-0.0898696 0.0198549 0.0732494)
(-0.0869936 0.0190587 0.0577487)
(-0.0351509 -0.000307653 0.145697)
(-0.0520128 -0.000464967 0.13113)
(-0.0649068 -0.000528797 0.121721)
(-0.0759231 -0.000527888 0.111664)
(-0.0844698 -0.000508993 0.100384)
(-0.0899986 -0.000485073 0.0879553)
(-0.0917883 -0.000457639 0.0742097)
(-0.0889999 -0.000425869 0.0584264)
(-0.0438879 -0.00579726 0.140501)
(-0.0562177 -0.0113688 0.129841)
(-0.0669571 -0.0150772 0.120738)
(-0.0763269 -0.0177313 0.110696)
(-0.0837126 -0.0195586 0.0994964)
(-0.0884944 -0.0206028 0.0872208)
(-0.0898646 -0.0207731 0.0736885)
(-0.0869727 -0.0199316 0.0581971)
(-0.0478187 -0.0222401 0.134739)
(-0.0572438 -0.0275996 0.126341)
(-0.0658031 -0.032158 0.117457)
(-0.0732674 -0.0358306 0.107507)
(-0.0790877 -0.038511 0.0965535)
(-0.0827054 -0.0400255 0.0846836)
(-0.0834277 -0.0401063 0.071713)
(-0.0805539 -0.0384632 0.057007)
(-0.0490895 -0.0369794 0.128449)
(-0.0555523 -0.0431579 0.12082)
(-0.0616541 -0.0484882 0.112128)
(-0.0668368 -0.052754 0.102464)
(-0.070698 -0.0557878 0.0920019)
(-0.0728261 -0.0573635 0.0808134)
(-0.0727386 -0.0571668 0.0687157)
(-0.06995 -0.0548675 0.0551792)
(-0.0571734 0.0447387 0.249445)
(-0.0653279 0.0524376 0.238201)
(-0.0738924 0.0598205 0.22212)
(-0.0823019 0.066773 0.199443)
(-0.0904165 0.0733783 0.168692)
(-0.0988509 0.0802255 0.128974)
(-0.108576 0.0880356 0.0804737)
(-0.116849 0.0943975 0.0252676)
(-0.0567677 0.0282994 0.257306)
(-0.0682157 0.0344002 0.246378)
(-0.0793906 0.0401863 0.231852)
(-0.0903578 0.0455856 0.21092)
(-0.100893 0.050602 0.181377)
(-0.111756 0.0556048 0.141639)
(-0.124367 0.0612161 0.0913345)
(-0.135491 0.065859 0.032306)
(-0.0545269 0.0108916 0.263945)
(-0.0685685 0.0158784 0.251511)
(-0.0818053 0.0197208 0.237684)
(-0.0946872 0.0229826 0.217968)
(-0.106945 0.0258446 0.189452)
(-0.119453 0.0285643 0.149955)
(-0.133936 0.0315227 0.0986198)
(-0.146906 0.0339424 0.0370824)
(-0.049304 0.00116866 0.268584)
(-0.0663344 0.000687918 0.253983)
(-0.0813631 0.000455026 0.240042)
(-0.09556 0.000325292 0.220625)
(-0.108751 0.000245129 0.192433)
(-0.121993 0.000184976 0.153025)
(-0.137202 0.000124313 0.101342)
(-0.150841 5.40263e-05 0.0389325)
(-0.0564237 -0.00971218 0.263876)
(-0.06989 -0.0151838 0.251857)
(-0.0828573 -0.0192839 0.238035)
(-0.0955054 -0.0226728 0.218284)
(-0.107605 -0.025607 0.189752)
(-0.120014 -0.0283823 0.15026)
(-0.134431 -0.0314078 0.0989474)
(-0.147338 -0.0339179 0.0374411)
(-0.0593425 -0.0286273 0.257902)
(-0.0701639 -0.0347328 0.247118)
(-0.0809339 -0.0404683 0.232534)
(-0.0916226 -0.0458163 0.211554)
(-0.10198 -0.0507932 0.182001)
(-0.112734 -0.0557764 0.142286)
(-0.125272 -0.0614031 0.0920304)
(-0.136304 -0.0660879 0.033061)
(-0.0596905 -0.0462166 0.250474)
(-0.0674103 -0.0536541 0.239173)
(-0.0756622 -0.0608025 0.22301)
(-0.0838731 -0.067564 0.200296)
(-0.0918714 -0.0740172 0.169564)
(-0.100252 -0.080764 0.129921)
(-0.109952 -0.0885359 0.0815489)
(-0.11815 -0.0948792 0.0264857)
(0.031564 -0.0282166 -0.00114909)
(0.0293535 -0.0225608 2.09353e-06)
(0.0273555 -0.0211404 0.000843197)
(0.0261987 -0.0194298 0.00143629)
(0.0256008 -0.0177721 0.00176077)
(0.0253323 -0.016136 0.00186478)
(0.0244855 -0.0148936 0.00181374)
(0.0236425 -0.0148688 0.00160897)
(0.0182675 -0.0082807 -0.0021989)
(0.0228696 -0.00939725 -0.00159123)
(0.0183543 -0.00801195 -0.00099912)
(0.0176378 -0.00732392 -0.000700522)
(0.0172462 -0.00639522 -0.00062546)
(0.0171927 -0.00539176 -0.000589066)
(0.0151271 -0.00494664 -0.000478031)
(0.0177427 -0.00710869 -0.000436363)
(0.0375667 -0.00633827 -0.00627984)
(0.0349856 -0.00838249 -0.00680219)
(0.0329508 -0.00757955 -0.00615352)
(0.0316652 -0.00671943 -0.00573793)
(0.0308302 -0.00580458 -0.0056509)
(0.0300614 -0.00579203 -0.00575347)
(0.0289485 -0.00744297 -0.00588909)
(0.0275784 -0.00924372 -0.00595753)
(0.0398327 -0.0013145 -0.00399663)
(0.0376291 -0.00112788 -0.00470222)
(0.0352814 -0.00114339 -0.00324978)
(0.0342459 -0.00105622 -0.00230666)
(0.0337853 -0.000798203 -0.0018065)
(0.0332753 -0.000652752 -0.00174962)
(0.0322684 -0.000663849 -0.00204382)
(0.0306768 -0.000758231 -0.00248713)
(0.0374555 0.00204276 -0.00567138)
(0.0356387 0.00449926 -0.00636108)
(0.0337228 0.00302493 -0.0058812)
(0.0329313 0.00201013 -0.00558068)
(0.0320888 0.00309657 -0.00558144)
(0.0310427 0.00403441 -0.0057489)
(0.0297726 0.00512482 -0.00598051)
(0.0282738 0.00634995 -0.00620669)
(0.019675 0.00552713 -0.00178595)
(0.0264645 0.00785042 -0.00149491)
(0.0210274 0.0061878 -0.00106937)
(0.0183556 0.00364187 -0.000774497)
(0.0180358 0.00470057 -0.000546921)
(0.0172489 0.005127 -0.000465717)
(0.0152402 0.00454041 -0.00039141)
(0.0164839 0.00575186 -0.000367687)
(0.0311808 0.0212839 -0.000584463)
(0.0306873 0.0186553 0.000300281)
(0.0277598 0.0175627 0.000957881)
(0.02609 0.0149549 0.00129624)
(0.025316 0.0149466 0.00153473)
(0.0246876 0.0142954 0.00159032)
(0.0243091 0.0131642 0.00145317)
(0.0239612 0.0127728 0.00120161)
(0.0239133 -0.0243231 0.0234696)
(0.0252214 -0.024337 0.0236599)
(0.0264823 -0.0245569 0.0230851)
(0.0274661 -0.0247387 0.0218465)
(0.0280745 -0.0247917 0.0200804)
(0.0282865 -0.0246821 0.0179431)
(0.0281145 -0.0244014 0.0156064)
(0.0275901 -0.0239374 0.0131402)
(0.0252159 -0.0186835 0.0220697)
(0.0271526 -0.0181328 0.0220121)
(0.0286993 -0.0180624 0.0214681)
(0.0300133 -0.0182125 0.0202198)
(0.0308914 -0.0183816 0.0182928)
(0.0312805 -0.0184796 0.0159893)
(0.0311724 -0.0184546 0.0135947)
(0.0306125 -0.0182555 0.0111489)
(0.0274165 -0.0118327 0.0244758)
(0.0295732 -0.0108132 0.0218283)
(0.0314749 -0.0103801 0.0210847)
(0.0330423 -0.0103105 0.0198344)
(0.0340811 -0.0103964 0.0179223)
(0.0344921 -0.0105497 0.0155072)
(0.0342655 -0.0107078 0.0127935)
(0.0334342 -0.0107957 0.00994191)
(0.0296521 -0.00372933 0.0281642)
(0.0314331 -0.00259941 0.0234271)
(0.0330973 -0.00207369 0.0227581)
(0.0344958 -0.0017566 0.0217133)
(0.0353389 -0.0015311 0.0200815)
(0.0354699 -0.00137501 0.0178714)
(0.0348918 -0.00126711 0.0152114)
(0.0336626 -0.00119401 0.0123155)
(0.0300116 0.0057643 0.0241708)
(0.0315387 0.00625372 0.0217819)
(0.0328946 0.00662047 0.0210017)
(0.0341485 0.00712406 0.0196786)
(0.034959 0.00767916 0.0177264)
(0.0352008 0.00815995 0.0152961)
(0.0348445 0.00852949 0.0125664)
(0.0339027 0.008772 0.00968874)
(0.0291652 0.0148327 0.021894)
(0.0302239 0.0148689 0.0216616)
(0.0310825 0.0151947 0.0209138)
(0.0319195 0.0156536 0.0196151)
(0.0324578 0.0161114 0.0177669)
(0.0325872 0.0164098 0.0154439)
(0.0322881 0.0164942 0.0129835)
(0.0315793 0.0163705 0.0104615)
(0.0278998 0.0221357 0.0230828)
(0.028406 0.0222494 0.0231811)
(0.0290516 0.0225413 0.0224914)
(0.0296163 0.0227908 0.0211853)
(0.029935 0.0229357 0.0193492)
(0.0299476 0.0228909 0.0171475)
(0.0296563 0.0226457 0.0147413)
(0.0290548 0.0222078 0.0122416)
(0.0307801 -0.0297162 0.0594927)
(0.0338583 -0.0313426 0.0547921)
(0.0366878 -0.0329463 0.0492233)
(0.0390676 -0.0343089 0.0425828)
(0.0409207 -0.0353572 0.0351107)
(0.0422242 -0.0360645 0.0271655)
(0.042943 -0.0363946 0.0191758)
(0.0429897 -0.0362682 0.0116519)
(0.0324849 -0.0226542 0.0636232)
(0.0369518 -0.023169 0.0574392)
(0.0406644 -0.0240192 0.0517351)
(0.0438432 -0.0249064 0.0450551)
(0.0463786 -0.0256475 0.0373229)
(0.0482011 -0.0261519 0.0288659)
(0.0492376 -0.0263557 0.0201779)
(0.0493693 -0.0261855 0.011886)
(0.0341004 -0.0136893 0.0698819)
(0.0390789 -0.013125 0.0595044)
(0.0432605 -0.0132109 0.0532114)
(0.0468809 -0.0135391 0.0465646)
(0.0498134 -0.0138897 0.0387948)
(0.0519171 -0.0141643 0.0300805)
(0.0530874 -0.0143102 0.0209392)
(0.0531948 -0.0142838 0.0120964)
(0.0355092 -0.00312107 0.0753282)
(0.04027 -0.00218755 0.060823)
(0.0443068 -0.00176143 0.0540204)
(0.0478665 -0.001497 0.0474877)
(0.0507569 -0.00131066 0.0398743)
(0.0527688 -0.00117706 0.0312278)
(0.053772 -0.00107933 0.0220498)
(0.0536337 -0.00100412 0.0130961)
(0.0364576 0.00877854 0.0691565)
(0.0407686 0.00944131 0.0587367)
(0.0444768 0.0101584 0.0526105)
(0.0478285 0.0109167 0.0460412)
(0.0505741 0.0115838 0.0382966)
(0.0525413 0.0120918 0.0295903)
(0.053609 0.0124137 0.0204562)
(0.0536379 0.0125275 0.0116228)
(0.0358353 0.0195811 0.0621859)
(0.0394268 0.0205053 0.0561618)
(0.0425924 0.0216402 0.0506203)
(0.0454208 0.0227496 0.0440171)
(0.0477096 0.0236616 0.0363217)
(0.0493512 0.0242954 0.0278858)
(0.0502521 0.0246006 0.0192191)
(0.0502813 0.0245182 0.0109545)
(0.0340081 0.0279933 0.0576581)
(0.0364201 0.0296575 0.0531693)
(0.0388114 0.0313073 0.0477026)
(0.0408878 0.0327199 0.0410961)
(0.0425205 0.0338201 0.0336381)
(0.0436603 0.0345803 0.025707)
(0.044253 0.0349631 0.0177373)
(0.0441992 0.0348908 0.0102422)
(0.0478878 -0.0420506 0.128121)
(0.0545211 -0.0470517 0.120082)
(0.0607611 -0.0516453 0.111317)
(0.0660875 -0.0554189 0.10158)
(0.0700637 -0.0580987 0.0909869)
(0.0722694 -0.0594085 0.0796165)
(0.0722172 -0.0590007 0.0672998)
(0.069408 -0.0565162 0.0535084)
(0.0481665 -0.0288839 0.135676)
(0.0576701 -0.0323151 0.125565)
(0.0660196 -0.0356947 0.116296)
(0.0733586 -0.0386206 0.106234)
(0.0791249 -0.0407817 0.0951488)
(0.0827027 -0.0419051 0.0830728)
(0.0833647 -0.0416712 0.069824)
(0.0803735 -0.0397527 0.0547646)
(0.047461 -0.0148733 0.144605)
(0.0587967 -0.0165602 0.129841)
(0.0686425 -0.0183622 0.119678)
(0.0773747 -0.0199806 0.109445)
(0.0844116 -0.0212037 0.098186)
(0.0889775 -0.0218621 0.0857903)
(0.0901751 -0.0217725 0.072053)
(0.0870985 -0.0207532 0.056267)
(0.0464336 -0.000704922 0.150977)
(0.0587023 -0.00060283 0.131747)
(0.0690892 -0.000605967 0.120894)
(0.078272 -0.000589498 0.110636)
(0.0857128 -0.000568305 0.0993963)
(0.0905558 -0.000548467 0.0869549)
(0.0918358 -0.000527682 0.0730971)
(0.0885854 -0.000502984 0.0571021)
(0.047352 0.0134496 0.14459)
(0.0588259 0.015288 0.129099)
(0.0686508 0.0171435 0.119028)
(0.0773858 0.018833 0.108896)
(0.0844418 0.0201231 0.097686)
(0.0890247 0.0208379 0.0853099)
(0.0902346 0.0207992 0.0715792)
(0.0871634 0.0198284 0.0557941)
(0.0480658 0.027433 0.134484)
(0.0576511 0.0309235 0.12422)
(0.0660202 0.0343836 0.115109)
(0.0734094 0.0373981 0.105144)
(0.0792246 0.0396324 0.0940936)
(0.0828411 0.0408156 0.0820187)
(0.0835304 0.0406327 0.0687551)
(0.0805493 0.0387557 0.0536724)
(0.0477771 0.0404056 0.126262)
(0.0544629 0.0455293 0.118385)
(0.0607764 0.0502622 0.109746)
(0.0661759 0.0541567 0.100046)
(0.0702065 0.0569389 0.0894414)
(0.0724492 0.0583381 0.0780374)
(0.072417 0.0580068 0.0656764)
(0.069606 0.0555803 0.0518336)
(0.0579059 -0.0492447 0.251208)
(0.0659861 -0.0559044 0.239327)
(0.0745041 -0.0625281 0.222971)
(0.0829606 -0.0688925 0.200122)
(0.0911662 -0.0750277 0.16917)
(0.0997195 -0.0815185 0.129157)
(0.109584 -0.0891037 0.0802723)
(0.117995 -0.0953561 0.0246201)
(0.0580815 -0.0326875 0.260137)
(0.069372 -0.037549 0.247561)
(0.0802421 -0.0424464 0.2324)
(0.0910275 -0.0471807 0.211189)
(0.101484 -0.0516684 0.181395)
(0.112321 -0.0562538 0.141238)
(0.124962 -0.0615735 0.0902691)
(0.136223 -0.0660739 0.0303794)
(0.0565808 -0.0154259 0.269355)
(0.0702276 -0.0183695 0.253226)
(0.0829502 -0.0211382 0.238126)
(0.0954444 -0.023736 0.217965)
(0.107546 -0.0261301 0.189201)
(0.120021 -0.0285028 0.149312)
(0.134584 -0.0312317 0.0972971)
(0.147811 -0.0335588 0.0348474)
(0.0540031 0.00145356 0.275714)
(0.0693435 0.000848182 0.255672)
(0.0829815 0.000532125 0.240123)
(0.0961811 0.000381963 0.220253)
(0.108924 0.000292252 0.191826)
(0.121997 0.000221202 0.151968)
(0.137227 0.000148106 0.0994283)
(0.151156 6.46964e-05 0.0358261)
(0.0543871 0.0169929 0.269769)
(0.0688472 0.0192692 0.252731)
(0.0818795 0.0217035 0.237646)
(0.094583 0.0241492 0.217581)
(0.106836 0.026457 0.188878)
(0.119411 0.0287606 0.149011)
(0.134041 0.0314083 0.0969839)
(0.147335 0.0336296 0.0345051)
(0.0553401 0.0326502 0.25954)
(0.0673465 0.0373844 0.246604)
(0.0785975 0.0422704 0.231543)
(0.0896571 0.0470275 0.210445)
(0.100299 0.051534 0.180711)
(0.111252 0.0561192 0.140557)
(0.123972 0.0614056 0.0895449)
(0.135334 0.0658523 0.0295899)
(0.0552282 0.0479145 0.249925)
(0.0637606 0.0547895 0.238118)
(0.0725909 0.061629 0.221907)
(0.0812548 0.0681702 0.199147)
(0.0895825 0.0744439 0.168212)
(0.0981955 0.0810242 0.12815)
(0.108091 0.0886446 0.0791498)
(0.116585 0.0949218 0.0233581)
(0.0277369 0.0321064 -0.000367756)
(0.0247963 0.0312359 0.000548599)
(0.0246832 0.0272117 0.00113625)
(0.0245021 0.0249008 0.00156728)
(0.0240214 0.0234503 0.00189219)
(0.0233786 0.0222552 0.00204999)
(0.0223264 0.0208588 0.00201495)
(0.0215265 0.0201427 0.00190393)
(0.0136969 0.0258986 -0.00108316)
(0.0166716 0.0340507 -0.000382237)
(0.0161114 0.0282861 1.74771e-05)
(0.0162952 0.0277171 0.000255343)
(0.0149413 0.0254271 0.000240933)
(0.0147042 0.0257194 0.000173313)
(0.0135721 0.0239062 3.33847e-05)
(0.0132478 0.0234919 -7.92653e-05)
(0.0102063 0.0412857 -0.00346739)
(0.0113992 0.0380403 -0.0032224)
(0.0107365 0.0334556 -0.00250153)
(0.0104894 0.0305803 -0.00215864)
(0.0103995 0.0283394 -0.00218325)
(0.0101507 0.026602 -0.00242176)
(0.010182 0.0249199 -0.00274403)
(0.0102992 0.0234673 -0.0030694)
(0.00049439 0.047855 -0.00242374)
(0.000262909 0.0420928 -0.00297338)
(-0.000175202 0.0369481 -0.00222218)
(-0.000315777 0.0331913 -0.00168943)
(-0.000392481 0.0302029 -0.00153993)
(-0.000507559 0.0276293 -0.00165699)
(-0.000569396 0.0252295 -0.00191605)
(-0.000535653 0.0228864 -0.00222187)
(-0.0114363 0.0425633 -0.00389415)
(-0.0132223 0.0377454 -0.00345649)
(-0.0133822 0.0334545 -0.00258285)
(-0.0126291 0.0303835 -0.00216751)
(-0.0119195 0.0280982 -0.00214852)
(-0.0116174 0.026116 -0.00236185)
(-0.0116915 0.024269 -0.00269095)
(-0.0117399 0.0227438 -0.00305386)
(-0.0135368 0.0237419 -0.00121871)
(-0.0157457 0.031278 -0.000340945)
(-0.0158765 0.0268531 4.46633e-05)
(-0.0162652 0.0262534 0.000242211)
(-0.0157678 0.0249586 0.000267626)
(-0.015546 0.0245117 0.000190418)
(-0.0144254 0.0227912 6.08337e-05)
(-0.0139046 0.0222234 -8.80214e-05)
(-0.0301816 0.0329198 -0.000854758)
(-0.0268522 0.0326694 9.5293e-05)
(-0.0262547 0.0276419 0.000706878)
(-0.0262962 0.0255918 0.00111636)
(-0.0259456 0.0237557 0.00135779)
(-0.0255126 0.0222317 0.0014209)
(-0.0247998 0.0208485 0.00137692)
(-0.0239619 0.019758 0.00120045)
(0.0235566 0.0273354 0.0236435)
(0.0238959 0.027633 0.0237977)
(0.0244989 0.0280367 0.0231)
(0.025033 0.0283383 0.0217928)
(0.0253544 0.0283946 0.0199809)
(0.0254235 0.0281641 0.0178117)
(0.0252446 0.0276432 0.0154326)
(0.0248313 0.0268464 0.0129547)
(0.0165505 0.0297204 0.0233485)
(0.0165998 0.0304602 0.0233722)
(0.0169827 0.0309446 0.0226321)
(0.0175107 0.0314423 0.0212592)
(0.017948 0.0316267 0.0192607)
(0.0182408 0.0314486 0.0168373)
(0.0183497 0.0308403 0.0141975)
(0.0182862 0.0298452 0.0115317)
(0.00710882 0.0319591 0.0249284)
(0.0076228 0.0322301 0.0233001)
(0.00801764 0.0327148 0.0226836)