/*--------------------------------*- C++ -*----------------------------------*\
| =========                 |                                                 |
| \\      /  F ield         | OpenFOAM: The Open Source CFD Toolbox           |
|  \\    /   O peration     | Version:  plus.master.MPPICInterFoam            |
|   \\  /    A nd           | Web:      www.OpenFOAM.com                      |
|    \\/     M anipulation  |                                                 |
\*---------------------------------------------------------------------------*/
FoamFile
{
    version     2.0;
    format      ascii;
    class       volVectorField;
    location    "3.6";
    object      U;
}
// * * * * * * * * * * * * * * * * * * * * * * * * * * * * * * * * * * * * * //

dimensions      [0 1 -1 0 0 0 0];

internalField   nonuniform List<vector> 
11822
(
(-0.00234205 0.00605876 0.460725)
(-0.00766861 0.00887658 0.491753)
(-0.0135761 0.00748152 0.500539)
(-0.0169084 0.00248952 0.481136)
(-0.0177467 -0.000473185 0.437679)
(-0.0164183 -0.00356566 0.381076)
(-0.0137886 -0.00553886 0.32233)
(0.00168421 0.00424644 0.511219)
(-0.00559921 0.00591081 0.549976)
(-0.0140956 0.00117047 0.570107)
(-0.0191356 -0.00206755 0.552432)
(-0.0211021 -0.0023735 0.489399)
(-0.0189457 -0.00455672 0.418012)
(-0.0154555 -0.0061101 0.34802)
(0.00342936 -0.00144516 0.54231)
(-0.00915221 -0.00228686 0.581776)
(-0.0173444 -0.00421391 0.651782)
(-0.0196963 -0.00632419 0.656727)
(-0.0218375 -0.00596134 0.526497)
(-0.0202306 -0.00650933 0.442552)
(-0.0163358 -0.00691774 0.364386)
(0.00354401 -0.00747852 0.548523)
(-0.00855438 -0.00914292 0.588571)
(-0.0169773 -0.00998872 0.672879)
(-0.0223969 -0.0104373 0.675395)
(-0.0235601 -0.0095653 0.529381)
(-0.0209826 -0.00869831 0.445551)
(-0.0166584 -0.0079888 0.366477)
(0.00281025 -0.0130439 0.525816)
(-0.00491479 -0.0159547 0.565635)
(-0.0143455 -0.0139547 0.582513)
(-0.0202763 -0.013672 0.567364)
(-0.0218492 -0.0130617 0.500043)
(-0.0194584 -0.0107469 0.426006)
(-0.0157783 -0.00885147 0.354186)
(-0.00124384 -0.0160191 0.482657)
(-0.00650078 -0.0205886 0.511535)
(-0.0129388 -0.0208157 0.518119)
(-0.0168613 -0.0167658 0.496726)
(-0.0182149 -0.014573 0.451236)
(-0.0167493 -0.0114296 0.392047)
(-0.0139597 -0.00890645 0.33173)
(-0.00454405 -0.0150151 0.431212)
(-0.0082004 -0.0181191 0.451737)
(-0.0121586 -0.0184651 0.454338)
(-0.014556 -0.0159307 0.435402)
(-0.0150455 -0.0133953 0.39876)
(-0.0138205 -0.0107392 0.35211)
(-0.0115515 -0.00833811 0.301652)
(0.00213781 0.0103805 0.464559)
(-0.00313133 0.0160437 0.501332)
(-0.0114746 0.0180145 0.512109)
(-0.0180246 0.0119409 0.487498)
(-0.0197302 0.00591013 0.434672)
(-0.0173961 0.000290438 0.372846)
(-0.0139049 -0.00282467 0.312775)
(0.0101412 0.0104412 0.529083)
(0.0034086 0.0176229 0.596213)
(-0.0122198 0.0177767 0.634871)
(-0.0245069 0.0106777 0.587127)
(-0.026784 0.00569969 0.496947)
(-0.0222226 -0.000220008 0.411795)
(-0.016691 -0.0035248 0.337974)
(0.0173425 0.00206442 0.577628)
(0.00411467 0.00394119 0.684534)
(-0.0161717 -0.00106627 0.681844)
(-0.0305505 -0.000727335 0.69122)
(-0.0313937 -0.000776149 0.543833)
(-0.0257849 -0.00349887 0.438169)
(-0.0186833 -0.00498165 0.354192)
(0.0177195 -0.0103984 0.583956)
(0.0022447 -0.015623 0.690767)
(-0.015322 -0.0185311 0.740477)
(-0.0308613 -0.0180893 0.721449)
(-0.0332484 -0.0113898 0.543523)
(-0.0273549 -0.00879657 0.440764)
(-0.0194249 -0.00736312 0.356075)
(0.0123435 -0.0193064 0.546737)
(0.00440793 -0.0278645 0.621322)
(-0.0124914 -0.0292473 0.675716)
(-0.0241856 -0.0240202 0.59705)
(-0.028716 -0.0193673 0.507477)
(-0.0240153 -0.0129781 0.419623)
(-0.0179771 -0.00931381 0.343517)
(0.00457987 -0.0213951 0.488308)
(-0.000595908 -0.0293177 0.526076)
(-0.0105418 -0.0323315 0.535647)
(-0.0193104 -0.026803 0.507046)
(-0.0221923 -0.0201973 0.449001)
(-0.0196895 -0.0137731 0.383443)
(-0.0158013 -0.00988757 0.320946)
(-0.0013674 -0.0187248 0.42926)
(-0.00506112 -0.0238239 0.45116)
(-0.0106424 -0.0256354 0.45343)
(-0.0152071 -0.0222431 0.431462)
(-0.0166006 -0.0171596 0.391024)
(-0.0152732 -0.0124525 0.341836)
(-0.0129367 -0.00929129 0.290022)
(-0.00153468 0.0045354 0.461699)
(-0.00396495 0.00686042 0.500799)
(-0.0091725 0.00827728 0.514483)
(-0.0133506 0.00502304 0.484302)
(-0.0132694 0.000913215 0.425522)
(-0.0110054 -0.00258059 0.362898)
(-0.00842366 -0.00399288 0.304181)
(0.00370746 0.00633722 0.535534)
(0.00192217 0.0113611 0.636143)
(-0.00930413 0.0188285 0.699189)
(-0.0193564 0.00922929 0.624776)
(-0.0176811 0.00244993 0.494908)
(-0.0133834 -0.00217298 0.400802)
(-0.00975108 -0.00408182 0.327647)
(0.00876478 0.00215672 0.607377)
(0.0083326 0.00454754 0.795582)
(-0.0114415 0.00227818 0.890206)
(-0.0238504 0.00172822 0.775604)
(-0.0206413 -0.000200893 0.561718)
(-0.0150081 -0.00314783 0.428042)
(-0.0106237 -0.00425207 0.343065)
(0.0122498 -0.00784461 0.614761)
(0.012573 -0.0135958 0.805558)
(-0.00987435 -0.0194787 0.78298)
(-0.0287117 -0.0146051 0.802782)
(-0.0235929 -0.00821472 0.567815)
(-0.0165126 -0.00601525 0.431235)
(-0.0114243 -0.00506719 0.344896)
(0.00637728 -0.0148331 0.559566)
(0.00461239 -0.0229666 0.67539)
(-0.00800127 -0.0307455 0.718884)
(-0.0191712 -0.020316 0.652301)
(-0.0195294 -0.0134284 0.511127)
(-0.0150475 -0.00829076 0.409481)
(-0.0111255 -0.00575208 0.332571)
(0.00083814 -0.0152694 0.487289)
(-0.00142205 -0.020444 0.534424)
(-0.00851996 -0.0238691 0.549688)
(-0.0152472 -0.0188603 0.514097)
(-0.0161524 -0.0130432 0.441934)
(-0.0135981 -0.00826145 0.373071)
(-0.0108671 -0.00571042 0.310469)
(-0.00356267 -0.013398 0.424845)
(-0.00553217 -0.0163682 0.446006)
(-0.00913346 -0.017508 0.447566)
(-0.012193 -0.0145159 0.424063)
(-0.0125706 -0.0108844 0.382064)
(-0.0113171 -0.00727027 0.332486)
(-0.00954753 -0.00522662 0.27995)
(-0.00796656 -0.00430978 0.460215)
(-0.0076645 -0.00702513 0.49605)
(-0.00703173 -0.00784374 0.507549)
(-0.00562687 -0.00852343 0.476032)
(-0.00358243 -0.00770225 0.418163)
(-0.00259733 -0.00700475 0.357844)
(-0.0016786 -0.00561331 0.300935)
(-0.00834642 -0.00220991 0.532289)
(-0.00680401 -0.00266931 0.634692)
(-0.0073776 0.00161196 0.698051)
(-0.00643213 -0.00385761 0.617779)
(-0.00246772 -0.0062191 0.483196)
(-0.00112153 -0.00615022 0.393105)
(-0.000985958 -0.00516643 0.322985)
(-0.00809899 -0.000542201 0.606728)
(-0.00359469 0.00200822 0.821276)
(-0.00383606 0.00973485 0.951306)
(-0.00321484 0.000252936 0.79426)
(-0.0011987 -0.00314225 0.550991)
(0.000703547 -0.00407864 0.419655)
(-8.97044e-05 -0.00379113 0.337798)
(-0.00564848 -0.00220592 0.61684)
(0.0031792 -0.00291987 0.840216)
(-0.00341982 -0.00466154 0.966795)
(-0.00902591 -0.00166465 0.812867)
(-0.0029212 -0.00152227 0.56212)
(-0.00016472 -0.00218998 0.423603)
(-0.000658541 -0.00228581 0.339809)
(-0.00626093 -0.0040711 0.558454)
(-0.00246493 -0.00681823 0.686273)
(-0.00536671 -0.0134751 0.746585)
(-0.00782951 -0.00414952 0.655876)
(-0.00385837 -0.00133584 0.503178)
(-0.00213796 -0.00113303 0.402842)
(-0.00230182 -0.00128566 0.327981)
(-0.00655516 -0.00424121 0.48615)
(-0.00580849 -0.00412794 0.532004)
(-0.00684481 -0.00531519 0.548032)
(-0.00787953 -0.0020767 0.508946)
(-0.00624548 -0.00110133 0.435526)
(-0.00508032 -0.000748014 0.367842)
(-0.0044714 -0.000859678 0.305823)
(-0.00725562 -0.00464311 0.425034)
(-0.00753699 -0.00419621 0.444238)
(-0.00798804 -0.00406685 0.444454)
(-0.00782799 -0.0019898 0.420224)
(-0.00669757 -0.00142677 0.37814)
(-0.00599382 -0.000810566 0.328684)
(-0.00519657 -0.000727409 0.275157)
(-0.00922747 -0.00661589 0.459906)
(-0.00778815 -0.0102826 0.490584)
(-0.00410851 -0.0120205 0.497354)
(-3.29019e-05 -0.0111086 0.467016)
(0.00250914 -0.00852843 0.413958)
(0.00333825 -0.00658662 0.355434)
(0.00427462 -0.00441731 0.298718)
(-0.0114314 -0.00443733 0.525452)
(-0.00903544 -0.0073025 0.598743)
(-0.00378096 -0.00659176 0.639883)
(0.00201395 -0.00797322 0.576361)
(0.00488505 -0.00711794 0.471169)
(0.00505469 -0.00535905 0.38987)
(0.00473606 -0.00346146 0.320778)
(-0.0136968 -0.000929104 0.590986)
(-0.00820367 -0.000444738 0.779132)
(0.00132781 -0.000255357 0.90837)
(0.00879502 -0.000896553 0.753977)
(0.00823977 -0.00263642 0.527736)
(0.00759615 -0.002422 0.416283)
(0.00564378 -0.00155749 0.335984)
(-0.0119067 0.00178464 0.603256)
(-0.00261741 0.00332186 0.812667)
(0.00725392 -0.00115854 0.962648)
(0.010024 0.00618599 0.789338)
(0.00735236 0.00296388 0.541668)
(0.00703879 0.001162 0.42136)
(0.0049699 0.000748015 0.338703)
(-0.00948292 0.00222975 0.554033)
(-0.00469253 0.00347954 0.654141)
(-0.00115834 -0.000256109 0.719273)
(0.000949499 0.00598411 0.632726)
(0.00337778 0.00517442 0.494348)
(0.00343409 0.00325401 0.402143)
(0.00252064 0.00227502 0.327654)
(-0.00751874 0.00152166 0.488016)
(-0.00591375 0.00364079 0.528559)
(-0.00400199 0.00424026 0.541381)
(-0.0025861 0.00612461 0.503139)
(-0.00104981 0.00458514 0.434856)
(-0.000488376 0.00339439 0.367665)
(-7.18292e-05 0.00275633 0.304259)
(-0.00696743 0.000675919 0.428339)
(-0.00666194 0.00166495 0.446852)
(-0.00574749 0.00253701 0.446433)
(-0.00407289 0.00381307 0.421568)
(-0.00241173 0.00319071 0.378754)
(-0.00181129 0.00295614 0.327686)
(-0.00103214 0.00280302 0.272229)
(-0.00572907 -0.00286727 0.453205)
(-0.00331133 -0.00253096 0.481787)
(0.000479809 -0.00274486 0.486544)
(0.00427818 -0.00210591 0.457365)
(0.00719861 -0.00169859 0.406129)
(0.00977859 -0.00189933 0.348969)
(0.0122438 -0.00108784 0.294256)
(-0.00477712 0.00144601 0.517729)
(-0.00209797 0.00122891 0.581347)
(0.00160525 0.00128033 0.614375)
(0.00461937 0.00154403 0.559555)
(0.00645678 0.00149673 0.464046)
(0.00847364 0.000864525 0.384381)
(0.0108235 0.00125061 0.316318)
(-0.00553393 0.00428389 0.57879)
(-0.000221791 0.00591921 0.730237)
(0.00884676 0.00513311 0.872531)
(0.0114407 0.00698227 0.720187)
(0.00915453 0.00468312 0.521097)
(0.00858202 0.0033819 0.412587)
(0.0100388 0.00334522 0.332405)
(-0.00380715 0.00452624 0.590913)
(0.00535205 0.00656301 0.762884)
(0.0180278 0.00235344 0.946006)
(0.0148696 0.0100092 0.786108)
(0.00859747 0.00694551 0.538479)
(0.00731745 0.00547455 0.419917)
(0.00859324 0.00513605 0.336279)
(-0.000964791 0.00268312 0.550145)
(0.00281831 0.00403113 0.644229)
(0.0056355 0.00233001 0.703317)
(0.00470751 0.00697344 0.630791)
(0.00400289 0.00620424 0.495342)
(0.00437197 0.00606848 0.401954)
(0.00635903 0.00616578 0.325889)
(-0.00054708 0.00135589 0.48824)
(0.00108066 0.00127106 0.527574)
(0.00176209 0.00242591 0.540408)
(0.00122866 0.00403163 0.505033)
(0.00124973 0.00410594 0.43727)
(0.00267038 0.00556355 0.367314)
(0.00485377 0.00652225 0.302258)
(-0.00206859 0.00267726 0.427296)
(-0.00109136 0.000932695 0.447183)
(-0.000392236 0.00151607 0.447623)
(0.000680154 0.00301418 0.422965)
(0.00187494 0.00400567 0.379122)
(0.0029411 0.00572078 0.326461)
(0.00451794 0.00678645 0.271229)
(-0.0113291 -0.00632324 0.27534)
(-0.00990117 -0.006811 0.243494)
(-0.00854012 -0.00685042 0.214858)
(-0.00737148 -0.0065404 0.189599)
(-0.00627301 -0.00596015 0.167276)
(-0.00515487 -0.00513096 0.147014)
(-0.00387399 -0.00396002 0.12684)
(-0.00193962 -0.0019829 0.0997109)
(-0.0121851 -0.0063799 0.290987)
(-0.00981866 -0.00696589 0.249068)
(-0.00795044 -0.00703717 0.213393)
(-0.00643168 -0.00672146 0.182891)
(-0.00513656 -0.00608156 0.156558)
(-0.00394711 -0.00517423 0.133226)
(-0.00277012 -0.00394851 0.110713)
(-0.00131617 -0.00196047 0.0818493)
(-0.0126185 -0.00686977 0.300742)
(-0.0097778 -0.00708598 0.252632)
(-0.00753899 -0.0068977 0.21202)
(-0.00573637 -0.00640883 0.177698)
(-0.00425578 -0.00564459 0.148409)
(-0.00298934 -0.00463235 0.122796)
(-0.00186319 -0.00330522 0.0985265)
(-0.000720205 -0.00119305 0.0682871)
(-0.0127124 -0.00752907 0.301466)
(-0.00963195 -0.0071996 0.251278)
(-0.0072016 -0.00671987 0.208854)
(-0.00526721 -0.00603701 0.172964)
(-0.00370983 -0.00515681 0.142356)
(-0.00243646 -0.00408441 0.115648)
(-0.0014036 -0.00275417 0.09048)
(-0.000569641 -0.000767442 0.0595236)
(-0.0121448 -0.00798933 0.293007)
(-0.00913428 -0.00721221 0.244572)
(-0.00671984 -0.00641871 0.203495)
(-0.00482182 -0.00552279 0.168466)
(-0.0033208 -0.00452692 0.138355)
(-0.00212285 -0.00343134 0.111885)
(-0.00120452 -0.00217607 0.0867784)
(-0.000602863 -0.000454739 0.0558263)
(-0.0108331 -0.00790423 0.277552)
(-0.00807782 -0.00688997 0.23379)
(-0.00599416 -0.00581417 0.196747)
(-0.00436997 -0.0047476 0.164694)
(-0.00307865 -0.00368285 0.13673)
(-0.0020309 -0.00264078 0.111769)
(-0.00121842 -0.00157827 0.0877)
(-0.000699135 -0.000327581 0.0575428)
(-0.00902841 -0.00700904 0.255409)
(-0.00713685 -0.00588446 0.22071)
(-0.00562546 -0.00469977 0.189891)
(-0.00439179 -0.00359712 0.162395)
(-0.00334108 -0.00256142 0.137839)
(-0.00241668 -0.00162733 0.115422)
(-0.00161981 -0.000800114 0.0932422)
(-0.00094694 -7.25289e-05 0.064608)
(-0.0111183 -0.00385737 0.266687)
(-0.00942413 -0.00453986 0.236088)
(-0.00778647 -0.00450968 0.208731)
(-0.00640191 -0.00409847 0.184494)
(-0.00504062 -0.00341615 0.162917)
(-0.00363911 -0.00251339 0.143177)
(-0.00208579 -0.00131571 0.123358)
(4.35113e-06 0.000581665 0.0964998)
(-0.0125314 -0.004066 0.281307)
(-0.00975804 -0.00497059 0.240722)
(-0.00767755 -0.0048821 0.206474)
(-0.00596614 -0.00436577 0.177132)
(-0.00446108 -0.00353562 0.151679)
(-0.00304963 -0.00248464 0.128994)
(-0.00166239 -0.00118753 0.106975)
(-7.48698e-05 0.000702568 0.0785878)
(-0.0134989 -0.00501342 0.290321)
(-0.0101168 -0.00527784 0.243428)
(-0.00764564 -0.00486319 0.204307)
(-0.00568248 -0.00413753 0.171245)
(-0.00405162 -0.00316088 0.14295)
(-0.00263482 -0.00198604 0.118104)
(-0.00136424 -0.000574929 0.0944597)
(-0.000131575 0.00141918 0.0649017)
(-0.0138437 -0.00640674 0.290671)
(-0.0102394 -0.00571882 0.2416)
(-0.00762133 -0.00492827 0.200593)
(-0.00557796 -0.00397851 0.165961)
(-0.00393276 -0.00287963 0.136384)
(-0.00257372 -0.00164706 0.110513)
(-0.00144741 -0.000240175 0.0860756)
(-0.00052706 0.00161248 0.055988)
(-0.0132218 -0.00751887 0.281959)
(-0.00987483 -0.0060659 0.234621)
(-0.00739152 -0.00492164 0.194866)
(-0.00546233 -0.00376429 0.161015)
(-0.00392531 -0.0025764 0.131894)
(-0.00267859 -0.00135018 0.106263)
(-0.0016888 -4.07638e-05 0.0819384)
(-0.000983603 0.00153787 0.0519723)
(-0.0118843 -0.00785383 0.265961)
(-0.00901494 -0.00601422 0.223692)
(-0.00693875 -0.00465103 0.187849)
(-0.00531556 -0.00339229 0.156846)
(-0.00399029 -0.00219967 0.129772)
(-0.00288187 -0.00107471 0.105595)
(-0.00198203 2.06732e-05 0.0822922)
(-0.00132601 0.00116414 0.0531485)
(-0.0103099 -0.00728016 0.243994)
(-0.0083731 -0.00550683 0.210629)
(-0.00676254 -0.00408077 0.180813)
(-0.00545304 -0.00285265 0.154198)
(-0.00430608 -0.00173549 0.130402)
(-0.00327415 -0.000744668 0.108666)
(-0.00236014 0.000112373 0.0871729)
(-0.00153455 0.000793684 0.0595162)
(-0.00670193 -0.00395151 0.259686)
(-0.00559962 -0.00382147 0.230285)
(-0.0044223 -0.00313412 0.203835)
(-0.00332127 -0.0022018 0.180215)
(-0.00215884 -0.00110591 0.159051)
(-0.000920258 0.000132826 0.139585)
(0.000486178 0.0015718 0.119962)
(0.00234195 0.00349302 0.093321)
(-0.00731562 -0.00404298 0.27304)
(-0.00576691 -0.00408947 0.234009)
(-0.0044856 -0.00333678 0.200913)
(-0.00330895 -0.0022928 0.17238)
(-0.00217288 -0.00105686 0.147505)
(-0.00103793 0.00030405 0.125233)
(0.000135082 0.00181864 0.103534)
(0.00145111 0.00372842 0.0754627)
(-0.00765984 -0.00406743 0.281184)
(-0.00582239 -0.00379838 0.235973)
(-0.00444275 -0.00296254 0.198132)
(-0.00325987 -0.0018713 0.16601)
(-0.00220822 -0.000597501 0.138415)
(-0.0012431 0.000804007 0.114096)
(-0.000324929 0.00234747 0.0908826)
(0.000573629 0.00424414 0.0617703)
(-0.00810724 -0.00427923 0.281191)
(-0.00613382 -0.00353116 0.233724)
(-0.00470067 -0.00261418 0.19398)
(-0.00353912 -0.00152658 0.160312)
(-0.00257364 -0.000308447 0.131482)
(-0.00175029 0.00100343 0.106211)
(-0.00103407 0.00242072 0.0822888)
(-0.000450218 0.00407912 0.0527624)
(-0.0083487 -0.00448107 0.272307)
(-0.00648893 -0.00335188 0.226523)
(-0.00509399 -0.00235362 0.187923)
(-0.00398547 -0.00128701 0.154974)
(-0.0030907 -0.000171296 0.126581)
(-0.00235599 0.000976811 0.101565)
(-0.00175308 0.00217173 0.0777957)
(-0.00133691 0.00347626 0.0484859)
(-0.00835736 -0.00456646 0.256142)
(-0.00668413 -0.00323583 0.215438)
(-0.00541165 -0.00220183 0.180614)
(-0.00441091 -0.00118433 0.150409)
(-0.00358412 -0.000209374 0.123996)
(-0.00288295 0.000724575 0.100392)
(-0.00229185 0.00162866 0.0776375)
(-0.00185834 0.00248208 0.0492144)
(-0.00773423 -0.00418652 0.23456)
(-0.00657293 -0.00296224 0.202449)
(-0.00555893 -0.00199559 0.173435)
(-0.00470753 -0.00110615 0.147456)
(-0.00392913 -0.000304121 0.124197)
(-0.00320865 0.000406628 0.102947)
(-0.00253563 0.00100973 0.0819593)
(-0.00189144 0.00139405 0.0550543)
(-0.00118164 -0.00411676 0.257324)
(-0.000710745 -0.00293023 0.22847)
(-6.5331e-05 -0.00155275 0.202401)
(0.000695563 -9.0305e-05 0.17912)
(0.00155239 0.00138464 0.158271)
(0.00252369 0.00288853 0.139068)
(0.00363522 0.00452236 0.119686)
(0.00508991 0.00639557 0.0933563)
(-0.00093837 -0.00405173 0.269953)
(-0.000760501 -0.00287865 0.23171)
(-0.000336273 -0.00145773 0.199162)
(0.000239063 8.25344e-05 0.171131)
(0.00091177 0.00167965 0.146725)
(0.00164129 0.00330705 0.124861)
(0.00241288 0.0050101 0.10353)
(0.0033581 0.00684568 0.0759774)
(-0.000485984 -0.00298124 0.277672)
(-0.000543212 -0.0019791 0.233342)
(-0.00037871 -0.00072934 0.196142)
(-8.35663e-05 0.000684707 0.164623)
(0.000276721 0.00219088 0.137614)
(0.000675168 0.00374841 0.113829)
(0.00108001 0.00536931 0.091127)
(0.00161434 0.00707925 0.0627534)
(-0.00100818 -0.00171277 0.277571)
(-0.00109279 -0.000958985 0.2309)
(-0.0010162 1.08604e-05 0.191794)
(-0.000865212 0.00114843 0.158771)
(-0.000692279 0.00239231 0.130601)
(-0.000506903 0.00369334 0.105961)
(-0.000344563 0.00503642 0.0826902)
(-7.30902e-05 0.00640801 0.0541441)
(-0.0024016 -0.000851257 0.268489)
(-0.00230538 -0.000271956 0.223479)
(-0.00211998 0.000463913 0.185502)
(-0.00193788 0.00131782 0.153219)
(-0.00177933 0.00225101 0.125525)
(-0.00164169 0.0032211 0.101203)
(-0.00155697 0.0041982 0.0781897)
(-0.00137019 0.00516099 0.0500769)
(-0.0039039 -0.000687349 0.252074)
(-0.00355462 -0.000145792 0.212156)
(-0.0032127 0.000455606 0.177959)
(-0.00292608 0.00111136 0.148402)
(-0.0026813 0.00177667 0.122671)
(-0.00245783 0.00243343 0.0997695)
(-0.00228039 0.00304175 0.0778201)
(-0.0019989 0.00358036 0.0507017)
(-0.00447525 -0.000618128 0.230646)
(-0.00417304 -0.00012762 0.199156)
(-0.00382163 0.000339355 0.170676)
(-0.0034797 0.00080968 0.145262)
(-0.00312737 0.0012422 0.122609)
(-0.00276413 0.00162788 0.102011)
(-0.00239957 0.00191546 0.0818143)
(-0.00190006 0.00204751 0.0561897)
(0.00488659 -0.00251452 0.254868)
(0.00538369 -0.00113794 0.225861)
(0.0059032 0.000362687 0.199683)
(0.00646295 0.00197743 0.176265)
(0.00694282 0.00370508 0.155103)
(0.00739208 0.0055327 0.135271)
(0.00804452 0.00734894 0.114725)
(0.00836938 0.00962551 0.085962)
(0.00466972 -0.00197471 0.267589)
(0.00490784 -0.000530672 0.229124)
(0.00527549 0.000990268 0.196487)
(0.00564564 0.00263642 0.168392)
(0.0059019 0.00438161 0.143733)
(0.00604565 0.00619918 0.121228)
(0.00634911 0.00797891 0.0985512)
(0.00594244 0.0100978 0.0679335)
(0.00483127 -0.000373959 0.275565)
(0.0046962 0.000839985 0.230914)
(0.00476871 0.00217058 0.193596)
(0.00484237 0.00363734 0.16202)
(0.00478441 0.0051942 0.134767)
(0.00458902 0.00680595 0.110293)
(0.00456204 0.00840347 0.0860445)
(0.0036028 0.0101725 0.0539714)
(0.00396803 0.00143042 0.275734)
(0.0036845 0.00224546 0.228587)
(0.00360811 0.00324634 0.189294)
(0.00350217 0.00436957 0.156165)
(0.0032475 0.00556388 0.127698)
(0.00284612 0.00680105 0.102264)
(0.00262363 0.00807233 0.0772193)
(0.00138009 0.00929252 0.0444025)
(0.00209172 0.00259826 0.266563)
(0.00198826 0.00313233 0.221025)
(0.0019764 0.00383525 0.182803)
(0.00185949 0.00461037 0.150338)
(0.00156095 0.00539935 0.122249)
(0.00110931 0.00620076 0.0970041)
(0.000833464 0.00707978 0.0720311)
(-0.000422864 0.00767318 0.0392852)
(0.000275724 0.00284907 0.249621)
(0.000371081 0.00327401 0.209289)
(0.000444936 0.00379556 0.174842)
(0.000371085 0.00430793 0.145035)
(0.000109649 0.00473925 0.118807)
(-0.000287331 0.00512222 0.0948755)
(-0.000514129 0.00559126 0.0708855)
(-0.00154684 0.00554594 0.0391504)
(-0.00050542 0.00285268 0.227618)
(-0.000443927 0.00315268 0.19583)
(-0.000370123 0.00343318 0.167098)
(-0.000381281 0.00361586 0.141383)
(-0.000515283 0.00364103 0.118195)
(-0.000735968 0.00354896 0.096589)
(-0.000805517 0.00350643 0.0745078)
(-0.00135432 0.00280385 0.0448589)
(0.0141811 -0.000407598 0.253072)
(0.015472 -0.000453468 0.226129)
(0.0164785 -0.000185205 0.202683)
(0.0171354 0.000412596 0.182836)
(0.0173095 0.0013486 0.166271)
(0.0168825 0.00270321 0.152691)
(0.0156691 0.00453773 0.142085)
(0.013294 0.00661888 0.134568)
(0.012753 0.00188514 0.264921)
(0.0144162 0.00221479 0.22854)
(0.0157112 0.00274914 0.19877)
(0.0165807 0.00348402 0.174421)
(0.016866 0.0044471 0.154628)
(0.0163531 0.0056884 0.13882)
(0.0147865 0.00722228 0.12693)
(0.0119475 0.00865275 0.120026)
(0.0115676 0.0039727 0.273081)
(0.0130207 0.00447261 0.230293)
(0.0142244 0.00512223 0.195779)
(0.0150737 0.00585287 0.167967)
(0.0153421 0.00666364 0.1457)
(0.0147168 0.00757018 0.128205)
(0.0128922 0.00854469 0.115376)
(0.0098335 0.00913858 0.108904)
(0.00992738 0.00565969 0.273959)
(0.0111259 0.00617586 0.228519)
(0.0121516 0.0067751 0.19197)
(0.0128728 0.00739021 0.1626)
(0.0130619 0.00798592 0.139163)
(0.0123767 0.00853079 0.120847)
(0.0104958 0.00895279 0.107568)
(0.0076237 0.00890979 0.101415)
(0.00792436 0.0065606 0.265552)
(0.00898861 0.00712043 0.221755)
(0.00985995 0.00767604 0.186311)
(0.0104315 0.00819797 0.157631)
(0.0105199 0.00861845 0.134611)
(0.0098189 0.00887272 0.116534)
(0.00803668 0.00885975 0.103404)
(0.00556342 0.0084715 0.0975029)
(0.00645607 0.00684301 0.249369)
(0.00729344 0.0075156 0.211079)
(0.00793141 0.00814749 0.179549)
(0.00825788 0.00870194 0.153629)
(0.00812926 0.00907075 0.132535)
(0.00730782 0.0091796 0.115727)
(0.00555979 0.00893894 0.103294)
(0.00328746 0.00851204 0.0973641)
(0.00568526 0.00734916 0.228567)
(0.00616878 0.00815801 0.198964)
(0.00657923 0.00887682 0.173286)
(0.00670222 0.00943179 0.1516)
(0.00640428 0.00969831 0.133687)
(0.00548652 0.00957723 0.119303)
(0.00374836 0.0089941 0.108661)
(0.00133094 0.00824095 0.103401)
(-0.00435734 -0.0129537 0.399722)
(-0.00510815 -0.0114864 0.370144)
(-0.00561075 -0.0103694 0.343622)
(-0.00593763 -0.00960613 0.320267)
(-0.00600982 -0.00913389 0.29922)
(-0.00622741 -0.00910488 0.277669)
(-0.00644721 -0.00891572 0.254714)
(-0.00624785 -0.00810244 0.219704)
(-0.00113609 -0.0132276 0.440122)
(-0.00235276 -0.0111799 0.401595)
(-0.00328437 -0.00978487 0.367758)
(-0.00392056 -0.00897868 0.338718)
(-0.00425208 -0.00862005 0.313183)
(-0.00440944 -0.00855239 0.289714)
(-0.00439382 -0.00855658 0.265313)
(-0.00408617 -0.00804505 0.228702)
(0.00272138 -0.0108014 0.475458)
(0.00134155 -0.009034 0.429128)
(2.47051e-05 -0.0079252 0.388607)
(-0.000992173 -0.00741159 0.353977)
(-0.00166352 -0.00729707 0.324585)
(-0.00204182 -0.00745811 0.298389)
(-0.00214352 -0.00773942 0.272081)
(-0.00203597 -0.00775371 0.233579)
(0.00469338 -0.00604947 0.494634)
(0.00357164 -0.00507937 0.444149)
(0.00224483 -0.00447513 0.399238)
(0.00117633 -0.00432118 0.361449)
(0.000449914 -0.00456317 0.329743)
(3.71462e-06 -0.00503951 0.301982)
(-0.000159031 -0.00565389 0.274596)
(-0.000163799 -0.00624397 0.235139)
(0.00434807 -0.000719631 0.488965)
(0.00322675 -0.000573254 0.439213)
(0.00207827 -0.00064405 0.394804)
(0.00118317 -0.000882172 0.357615)
(0.00064707 -0.00144736 0.32654)
(0.000465915 -0.00213576 0.299365)
(0.000553294 -0.0029317 0.272466)
(0.000784295 -0.00387753 0.233575)
(0.00172084 0.00356439 0.460638)
(0.000633238 0.0027719 0.41605)
(-0.000141132 0.00203232 0.377211)
(-0.000466982 0.00142181 0.344509)
(-0.000488819 0.000770192 0.316577)
(-0.000257867 0.000163301 0.291691)
(0.000120462 -0.000489902 0.266556)
(0.000615535 -0.0013501 0.229508)
(-0.00162071 0.00458006 0.42007)
(-0.00205524 0.00361795 0.384911)
(-0.00222053 0.00295574 0.353714)
(-0.00215369 0.00241448 0.326641)
(-0.00193128 0.00201519 0.302798)
(-0.00160238 0.00170051 0.280943)
(-0.00118217 0.00136666 0.258165)
(-0.000619068 0.000750361 0.223464)
(-0.00181786 -0.0155029 0.396878)
(-0.00319842 -0.0131159 0.367656)
(-0.00419567 -0.0115332 0.342252)
(-0.00475539 -0.010345 0.319776)
(-0.00510477 -0.00951417 0.299234)
(-0.0056134 -0.00913213 0.277688)
(-0.00592223 -0.0085686 0.254748)
(-0.00562056 -0.00731744 0.219735)
(0.00277628 -0.016279 0.440047)
(0.000251617 -0.0128164 0.400119)
(-0.00148982 -0.0109486 0.366756)
(-0.002635 -0.0098128 0.338434)
(-0.00330225 -0.00916995 0.313564)
(-0.00372094 -0.00879776 0.290541)
(-0.0039027 -0.00845184 0.266403)
(-0.00371381 -0.00748418 0.229869)
(0.00904383 -0.0138589 0.480682)
(0.00531866 -0.0106517 0.429816)
(0.00258478 -0.00901926 0.388381)
(0.000687018 -0.0082037 0.354152)
(-0.000546993 -0.0078363 0.32533)
(-0.00130178 -0.00774615 0.299669)
(-0.00171297 -0.00773733 0.27374)
(-0.0018622 -0.00733645 0.235405)
(0.0134892 -0.00727423 0.504514)
(0.00884035 -0.00572554 0.446368)
(0.0054103 -0.00493959 0.399616)
(0.00314365 -0.004769 0.362039)
(0.00168414 -0.0049839 0.330779)
(0.000758358 -0.00538896 0.303632)
(0.000231232 -0.00587482 0.276689)
(-0.000101005 -0.00620823 0.237455)
(0.0125318 0.000988036 0.498546)
(0.00812196 0.000113644 0.441168)
(0.00502032 -0.000399489 0.395104)
(0.00305295 -0.000966841 0.358282)
(0.00192208 -0.00175604 0.327824)
(0.00133607 -0.00255969 0.301343)
(0.00107103 -0.00338048 0.274843)
(0.000940178 -0.00422466 0.236054)
(0.00712621 0.00650436 0.465037)
(0.0039509 0.00381463 0.416709)
(0.00212234 0.00236925 0.377715)
(0.0011891 0.00137098 0.345617)
(0.000822106 0.000450174 0.318388)
(0.000748899 -0.000343091 0.294023)
(0.00083246 -0.00110521 0.269171)
(0.000989305 -0.00196941 0.232049)
(0.00167052 0.00678179 0.420556)
(0.000357056 0.00453958 0.384263)
(-0.000342824 0.00325975 0.354023)
(-0.00059437 0.00233696 0.327972)
(-0.000600446 0.00161957 0.304931)
(-0.000443514 0.00106302 0.28359)
(-0.000174886 0.00053338 0.261042)
(0.000196808 -0.000236274 0.226159)
(-0.00379008 -0.0113872 0.393891)
(-0.00461732 -0.00995163 0.365804)
(-0.00517332 -0.0090201 0.341334)
(-0.00524245 -0.0082046 0.319379)
(-0.00527373 -0.00764026 0.298565)
(-0.00533507 -0.00718113 0.277405)
(-0.00511261 -0.00653263 0.254672)
(-0.00417397 -0.0051366 0.219749)
(-0.000747698 -0.0114834 0.437197)
(-0.00238174 -0.00927267 0.398146)
(-0.00332541 -0.00836646 0.366037)
(-0.00382747 -0.00778865 0.338568)
(-0.00399108 -0.00740389 0.314162)
(-0.00393241 -0.00711707 0.291439)
(-0.00368387 -0.00672337 0.267527)
(-0.00301926 -0.00559347 0.230902)
(0.00332801 -0.00986919 0.479633)
(0.000824919 -0.00764643 0.427632)
(-0.000770631 -0.0068105 0.387481)
(-0.00168635 -0.00647503 0.354493)
(-0.00212098 -0.00637752 0.326403)
(-0.00218986 -0.00639264 0.301164)
(-0.00207373 -0.00634465 0.275456)
(-0.00174462 -0.00577888 0.237004)
(0.00628164 -0.00517246 0.50585)
(0.00300811 -0.00426098 0.444256)
(0.000947877 -0.00400348 0.398569)
(-0.00016338 -0.00419132 0.362333)
(-0.000635167 -0.00451402 0.332143)
(-0.00070369 -0.00489836 0.305503)
(-0.000610026 -0.00526379 0.27885)
(-0.000427154 -0.0053661 0.239673)
(0.00463478 0.000367848 0.499398)
(0.00204718 -0.000720635 0.439755)
(0.000601407 -0.0012542 0.394835)
(-7.23661e-05 -0.00190414 0.359319)
(-0.000154777 -0.00252006 0.329752)
(3.25756e-05 -0.00309746 0.303523)
(0.000310145 -0.00365617 0.277243)
(0.000593195 -0.00413709 0.238428)
(0.00145208 0.00305413 0.463368)
(-0.000154232 0.000961254 0.415401)
(-0.000711399 0.000148416 0.377908)
(-0.000683194 -0.000519976 0.346882)
(-0.000365925 -0.00107773 0.320366)
(5.85296e-05 -0.00154432 0.296368)
(0.000502662 -0.00199252 0.271645)
(0.000914951 -0.00247672 0.234347)
(-0.00158542 0.00254565 0.418139)
(-0.00195665 0.00118932 0.383927)
(-0.00189434 0.00056679 0.35485)
(-0.0015468 4.14226e-05 0.32974)
(-0.00104767 -0.000335251 0.307289)
(-0.000495961 -0.000625667 0.286231)
(8.23402e-05 -0.000928693 0.263707)
(0.000728669 -0.00141948 0.228503)
(-0.00689963 -0.00460657 0.395485)
(-0.0067397 -0.00463035 0.368084)
(-0.00642673 -0.00450447 0.343685)
(-0.00581687 -0.00421688 0.321502)
(-0.00514779 -0.00396289 0.300011)
(-0.00439409 -0.00360464 0.279153)
(-0.00334996 -0.00300249 0.2564)
(-0.00162312 -0.0015742 0.221173)
(-0.00657613 -0.00380434 0.438385)
(-0.00640545 -0.00388767 0.400687)
(-0.00610085 -0.00403919 0.368987)
(-0.00563175 -0.00407759 0.341572)
(-0.00497384 -0.00401504 0.317107)
(-0.00415004 -0.00385875 0.294354)
(-0.00314792 -0.0034522 0.270429)
(-0.00172098 -0.00225144 0.233233)
(-0.00683036 -0.00277205 0.480238)
(-0.00642447 -0.00280706 0.430413)
(-0.00587353 -0.00314183 0.390748)
(-0.00526259 -0.00343535 0.357875)
(-0.00449805 -0.00366849 0.329961)
(-0.00360439 -0.00381127 0.304723)
(-0.00262134 -0.00374577 0.278886)
(-0.00147491 -0.00308115 0.239816)
(-0.00739829 -0.0017223 0.506306)
(-0.00692453 -0.00191939 0.447127)
(-0.0060462 -0.00238516 0.401998)
(-0.00512894 -0.00287663 0.36626)
(-0.00407885 -0.00327961 0.336104)
(-0.00299179 -0.00360889 0.309617)
(-0.00191461 -0.00382655 0.282871)
(-0.000847914 -0.00370538 0.243309)
(-0.00851436 -0.00155121 0.499366)
(-0.00739776 -0.00199442 0.441646)
(-0.00601043 -0.00233195 0.397993)
(-0.00477826 -0.00275066 0.363505)
(-0.00352139 -0.00302625 0.333881)
(-0.00228499 -0.00324763 0.307855)
(-0.00111572 -0.00342937 0.281513)
(-3.37453e-05 -0.00348153 0.242416)
(-0.00765281 -0.00236991 0.463509)
(-0.0064089 -0.00254309 0.417872)
(-0.00513557 -0.00253753 0.381181)
(-0.00389231 -0.00268824 0.350895)
(-0.00271612 -0.00274463 0.324562)
(-0.00158968 -0.00275946 0.300571)
(-0.000500029 -0.00275619 0.275767)
(0.00051576 -0.00272968 0.238152)
(-0.00678513 -0.00315387 0.419519)
(-0.00569027 -0.00300813 0.386885)
(-0.00460407 -0.00289712 0.358772)
(-0.00348461 -0.0029018 0.333912)
(-0.00233153 -0.00281915 0.311627)
(-0.0012003 -0.00269431 0.290554)
(-7.47572e-05 -0.00259344 0.267857)
(0.00109837 -0.00262671 0.232202)
(-0.00679246 0.000800833 0.398318)