/*--------------------------------*- C++ -*----------------------------------*\
| =========                 |                                                 |
| \\      /  F ield         | OpenFOAM: The Open Source CFD Toolbox           |
|  \\    /   O peration     | Version:  plus.master.MPPICInterFoam            |
|   \\  /    A nd           | Web:      www.OpenFOAM.com                      |
|    \\/     M anipulation  |                                                 |
\*---------------------------------------------------------------------------*/
FoamFile
{
    version     2.0;
    format      ascii;
    class       volScalarField;
    location    "7.6";
    object      epsilon;
}
// * * * * * * * * * * * * * * * * * * * * * * * * * * * * * * * * * * * * * //

dimensions      [0 2 -3 0 0 0 0];

internalField   nonuniform List<scalar> 
11821
(
0.000408776
0.00216711
0.0155429
0.0220649
0.00603313
0.000737179
0.000203512
0.00171658
0.0478814
0.335477
0.603011
0.193842
0.0262893
0.000825848
0.0112368
0.281339
0.410339
1.40962
0.280526
0.210771
0.0076074
0.0250691
0.585243
2.16344
1.52882
1.40336
0.423212
0.0162239
0.0121443
0.298106
0.422056
1.37175
0.289656
0.217371
0.00794318
0.00188194
0.0512131
0.352695
0.652552
0.200734
0.0276572
0.000891425
0.00046279
0.00248233
0.0170285
0.0245253
0.0065418
0.000805897
0.000213738
0.00338651
0.025505
0.131909
0.201686
0.0504916
0.00706502
0.00130605
0.0238173
0.203619
1.06315
2.22879
0.521318
0.0679896
0.00653077
0.121371
1.00371
1.94827
7.20089
1.75538
0.406033
0.0356005
0.266824
2.35642
8.64387
7.65492
12.1163
1.05853
0.0767302
0.131767
1.06525
1.98651
6.75912
1.83425
0.438028
0.0395752
0.0270972
0.226243
1.14921
2.44644
0.58112
0.0773678
0.00758358
0.00386789
0.0295514
0.147927
0.233275
0.0595348
0.00841422
0.00145308
0.0109608
0.0573135
0.227318
0.398065
0.0924
0.0155621
0.00452286
0.0602844
0.372615
1.45308
2.94406
0.718461
0.100482
0.0130241
0.280609
1.60588
3.27214
7.07622
3.57989
0.45917
0.0466316
0.688571
4.03822
8.27273
10.2039
16.0604
1.19944
0.0952235
0.302067
1.68264
3.19951
6.40477
3.78771
0.505623
0.0527771
0.069979
0.412794
1.58618
3.24564
0.826091
0.121987
0.0155984
0.0129632
0.0691272
0.264776
0.469033
0.118732
0.0199821
0.00514462
0.0210162
0.0698733
0.237385
0.385223
0.106671
0.0260075
0.0120372
0.0757618
0.40858
1.3721
2.35927
0.666018
0.112391
0.022166
0.321181
1.7119
4.13458
4.76192
3.27077
0.43932
0.0557489
0.853867
4.70784
6.52583
8.30656
9.98684
0.99533
0.102115
0.347123
1.79735
4.04915
4.2399
3.62187
0.481991
0.0615071
0.0872801
0.458656
1.51574
2.73156
0.777181
0.135952
0.0252075
0.0238197
0.0843067
0.280706
0.465715
0.136959
0.0317188
0.0131279
0.023625
0.0611175
0.183388
0.281091
0.0961969
0.0290919
0.0159881
0.065381
0.327588
1.08125
1.63037
0.531348
0.102699
0.0253858
0.24955
1.40559
4.15592
3.36057
2.32138
0.370639
0.055351
0.652599
4.21268
4.57291
5.63075
6.33874
0.787263
0.0966686
0.270865
1.49118
4.1402
3.10554
2.61743
0.406766
0.0602213
0.0749728
0.374931
1.21403
1.93095
0.625721
0.123014
0.0280973
0.0260287
0.0733008
0.222932
0.352046
0.122971
0.0343784
0.0170545
0.00014171
0.000135764
0.000133366
0.000128335
0.000124045
0.000120258
0.000116951
0.000114064
0.000245976
0.000161013
0.000134927
0.000125943
0.00012016
0.000115204
0.000111094
0.000108125
0.00113613
0.000264305
0.000150282
0.000129241
0.000121383
0.000115446
0.000111317
0.000107943
0.00247313
0.000421624
0.000161983
0.000124732
0.000115319
0.000109122
0.000102774
0.000100834
0.00118064
0.000270312
0.000149936
0.000127594
0.000119394
0.000113181
0.000108777
0.000105552
0.000259637
0.000158917
0.000138059
0.000125034
0.000118716
0.000113574
0.000108993
0.000106443
0.000150961
0.000141459
0.000135973
0.00013
0.000125965
0.000121967
0.000118443
0.00011539
0.000587459
0.000439087
0.000370478
0.000321655
0.00028355
0.000252917
0.000227739
0.000206509
0.00110123
0.000527751
0.000396449
0.000332837
0.000288923
0.000255096
0.000227921
0.000205283
0.00299154
0.000731867
0.000434997
0.000343818
0.000292843
0.000255509
0.000226268
0.000201979
0.00514259
0.000897033
0.000459698
0.000350611
0.000296037
0.000257145
0.000226256
0.000201244
0.00329308
0.000761014
0.000440493
0.000345806
0.000294217
0.000256637
0.000227113
0.000202567
0.00121946
0.00054915
0.000404282
0.000338046
0.000293316
0.000258911
0.000231064
0.000207926
0.00062395
0.000455381
0.000383416
0.000334039
0.000295668
0.000264774
0.000239238
0.000217406
0.00268047
0.0022066
0.00191049
0.00163613
0.00136606
0.00110688
0.000871117
0.000671753
0.00383359
0.00247755
0.00201966
0.00170537
0.00141787
0.00114326
0.000890983
0.000675966
0.00697416
0.00296516
0.00214496
0.00176319
0.00145857
0.00117319
0.00090894
0.000681684
0.0101913
0.00332017
0.00221678
0.00179203
0.00147855
0.00118831
0.000918245
0.000684853
0.00759796
0.00306764
0.00217917
0.00178337
0.00147358
0.00118433
0.000916348
0.000685869
0.0041962
0.00257957
0.00207324
0.00174515
0.00144964
0.00116791
0.000909103
0.000688739
0.00284746
0.00230436
0.00199004
0.00170525
0.00142492
0.0011554
0.000910471
0.000704135
0.00882791
0.00760962
0.00660356
0.00567547
0.00487753
0.00424064
0.00373245
0.00323452
0.0106927
0.00828301
0.00700053
0.00594459
0.00504525
0.00433199
0.00378113
0.00326358
0.0146761
0.00909064
0.00731465
0.00614149
0.00517633
0.00441201
0.00383116
0.00330139
0.0186394
0.00966021
0.00748707
0.00624466
0.00524913
0.0044601
0.0038624
0.00332361
0.0154242
0.00927151
0.00740245
0.00620573
0.00522942
0.00445711
0.00386982
0.00333318
0.0112519
0.0085049
0.00714799
0.00606583
0.00515096
0.00442601
0.00386495
0.00333434
0.00921571
0.00789029
0.00684819
0.00589896
0.00508438
0.00443192
0.00390539
0.00337908
0.0128599
0.0117945
0.0110299
0.0102807
0.00939956
0.00816244
0.00637417
0.00431798
0.014528
0.0121873
0.0110669
0.0101932
0.00932041
0.00819773
0.00654149
0.00450645
0.0183248
0.0128751
0.0112216
0.0102438
0.00938708
0.0083389
0.00674937
0.0047001
0.0223129
0.0134663
0.0113726
0.0103242
0.00946411
0.00843296
0.00685399
0.00478381
0.0189982
0.0130337
0.0112919
0.0102939
0.00942799
0.00836856
0.00676141
0.00469172
0.0150292
0.0123607
0.0111637
0.0102614
0.0093676
0.00822003
0.0065319
0.00446629
0.0132224
0.0120357
0.0112171
0.0104207
0.00948662
0.00818796
0.00633443
0.00422531
0.000205241
0.00017618
0.000171769
0.000168293
0.000165228
0.000162739
0.000160272
0.000158479
0.000420516
0.000194131
0.000161445
0.000152366
0.0001451
0.000140803
0.000138336
0.000132977
0.00207859
0.00042878
0.00018534
0.000147725
0.000136653
0.000128042
0.000123231
0.00011759
0.00430493
0.000744758
0.000217672
0.000145496
0.000128384
0.000117151
0.000108123
0.000101508
0.0019668
0.000417551
0.000187635
0.000151444
0.000138872
0.000128886
0.000119831
0.000117194
0.000395921
0.000190648
0.000160757
0.000148864
0.000144554
0.000142961
0.000139196
0.000135569
0.000191534
0.000166971
0.000163504
0.00016231
0.000159501
0.000156284
0.000153724
0.000151488
0.000942598
0.000624496
0.000524076
0.000450893
0.000392046
0.000344694
0.000306716
0.000275825
0.00303876
0.000946271
0.000643635
0.000526609
0.000448896
0.000387741
0.000336871
0.000294624
0.0132429
0.0019676
0.000859848
0.000630249
0.000522349
0.00044403
0.000380033
0.000325338
0.0267709
0.00296582
0.000960889
0.000646028
0.000523166
0.000441472
0.000376738
0.000322715
0.0119839
0.00182874
0.000821715
0.000606029
0.000503356
0.000429857
0.000370135
0.000320008
0.00271133
0.00088859
0.00061553
0.000504743
0.000430911
0.000372192
0.000324796
0.000285632
0.000880017
0.000596551
0.000498478
0.000424937
0.000365967
0.000318998
0.000281863
0.000252146
0.00416826
0.00300091
0.00259446
0.00224602
0.00188862
0.00152976
0.00119473
0.000911101
0.0104151
0.00398355
0.00291269
0.0024631
0.00209618
0.00172852
0.00136298
0.00102759
0.0349978
0.00648253
0.00329788
0.00257536
0.00218249
0.00183036
0.00147612
0.0011329
0.073865
0.00913225
0.00347464
0.00251999
0.00209695
0.00174796
0.00140506
0.00107403
0.0316753
0.00608299
0.00321462
0.00253889
0.00215581
0.00180491
0.00144955
0.00110664
0.00914678
0.00374476
0.00281207
0.00238789
0.00202611
0.00166162
0.00130278
0.000978603
0.00383129
0.00286171
0.00248885
0.00215207
0.00180424
0.00145598
0.00113195
0.000858144
0.0119513
0.00964247
0.0083274
0.00716715
0.00614865
0.00531069
0.00462309
0.00394438
0.0203375
0.0113923
0.00908491
0.00770935
0.00658943
0.00569103
0.00500236
0.00438149
0.0490536
0.0148306
0.00964176
0.0078303
0.00660498
0.00566488
0.00498962
0.00444684
0.0962314
0.0184906
0.00990971
0.00771427
0.00641112
0.00543194
0.00473139
0.00417864
0.0452514
0.0143443
0.00958327
0.00785534
0.00665844
0.00573122
0.00505589
0.00449754
0.0186206
0.0109977
0.00890975
0.00758154
0.00647397
0.00557575
0.00487622
0.00423301
0.0113108
0.00929872
0.00804938
0.0069149
0.00591672
0.00510055
0.00443851
0.00379355
0.0161316
0.0141966
0.0131863
0.0122499
0.0111404
0.00958351
0.0073403
0.00474961
0.0231721
0.0157663
0.0139483
0.0130388
0.0122174
0.0110292
0.00898667
0.00622415
0.0461529
0.0188692
0.0145543
0.0134149
0.0128588
0.0121259
0.0105065
0.00793938
0.0814613
0.0220677
0.0147853
0.013281
0.0127426
0.0121881
0.0108373
0.00851712
0.0429312
0.0184035
0.0144745
0.013378
0.0127746
0.0119532
0.0102367
0.0075809
0.0216572
0.0153742
0.0137227
0.0127934
0.011901
0.0106414
0.00858313
0.00587649
0.0155634
0.0138925
0.0129475
0.0120388
0.010952
0.00942084
0.00721386
0.00467554
0.000196991
0.000157134
0.000149382
0.000146069
0.000141309
0.000137037
0.000133656
0.000130936
0.000558563
0.000211177
0.000141821
0.000125047
0.000115562
0.000110315
0.000107045
0.000102038
0.0025776
0.000483723
0.000171707
0.000122915
0.000108891
9.87613e-05
8.88061e-05
8.05945e-05
0.00345555
0.000551145
0.000172019
0.000118255
0.000101448
9.18535e-05
8.40205e-05
7.71617e-05
0.00103388
0.000249583
0.000139538
0.000118056
0.000108671
0.000102596
9.60418e-05
8.77034e-05
0.000223061
0.000146294
0.00013007
0.000121194
0.000114485
0.00010889
0.000103977
9.91315e-05
0.000139841
0.00013249
0.000131446
0.000128827
0.000126226
0.000122883
0.000119447
0.000115713
0.000961788
0.000610737
0.000505002
0.000426134
0.000361887
0.0003101
0.000268823
0.000235874
0.00355339
0.00109436
0.000695828
0.000539086
0.000435851
0.000356506
0.000293008
0.000243422
0.013046
0.0020283
0.000895121
0.000639745
0.00051115
0.000417897
0.000343863
0.000284432
0.0154715
0.00197228
0.000834811
0.000600397
0.000486032
0.0004032
0.000336615
0.000282007
0.00442076
0.00107053
0.00065001
0.000509109
0.000419068
0.000347555
0.000288379
0.000239943
0.00119141
0.000628546
0.000486862
0.000402647
0.000338338
0.000286498
0.00024477
0.000210778
0.00060995
0.000471479
0.000395987
0.00033784
0.000291716
0.000255368
0.00022673
0.000203767
0.00380239
0.00280802
0.00243792
0.00211164
0.00177478
0.00143421
0.00111199
0.000833428
0.00918382
0.00370133
0.00271813
0.00228742
0.00193553
0.00158515
0.00123649
0.000914688
0.0263783
0.00545119
0.00292115
0.0022882
0.00192472
0.00159795
0.00126973
0.000951765
0.033865
0.00558634
0.00281677
0.00217692
0.0018142
0.00149234
0.00117653
0.000877105
0.0110899
0.00366896
0.00253079
0.00210279
0.00178028
0.00146526
0.00114852
0.000848688
0.00416725
0.00268274
0.00223521
0.00192222
0.00162259
0.00132032
0.00102606
0.000761091
0.00272203
0.00228664
0.00199931
0.00172125
0.00144043
0.00116569
0.00091203
0.000695404
0.011064
0.00904014
0.00779893
0.00669266
0.00572795
0.00494796
0.0043277
0.00373731
0.0175531
0.0103524
0.0083009
0.00701249
0.00595108
0.00510249
0.0044598
0.00389142
0.0358776
0.0124873
0.00849328
0.00689925
0.00574524
0.00483561
0.0041656
0.00361832
0.0461884
0.0130254
0.00832922
0.00666885
0.00549823
0.00456795
0.00387574
0.00331012
0.0207391
0.0103079
0.00790835
0.00658378
0.00549373
0.00460087
0.00392441
0.00335951
0.011403
0.00867268
0.00736607
0.00628114
0.00532549
0.0045491
0.00395388
0.00342538
0.00891268
0.0077489
0.00674313
0.00580149
0.00498466
0.00432941
0.00380887
0.0033088
0.0152986
0.0136005
0.0126554
0.0117842
0.0107657
0.009329
0.00722091
0.00475217
0.0207414
0.0147243
0.0131124
0.0122678
0.0114944
0.0103641
0.00842517
0.00583536
0.0355978
0.016579
0.0131439
0.0120557
0.0114138
0.0105984
0.00900168
0.00663162
0.0451833
0.0171727
0.0127059
0.0113731
0.0106479
0.00990812
0.00856978
0.00656352
0.0244676
0.0145502
0.0123034
0.0113422
0.010663
0.0098467
0.00838008
0.00625503
0.0155266
0.0128964
0.0118378
0.0111009
0.0103943
0.00942652
0.00779563
0.00559509
0.0130118
0.0120007
0.011247
0.0105254
0.0096974
0.0085235
0.00676364
0.0046595
0.000149523
0.000142345
0.000138688
0.000135682
0.0001325
0.000129333
0.000126004
0.000122035
0.000250865
0.000160961
0.000142398
0.000133934
0.000126645
0.000121314
0.000117252
0.000112341
0.00123325
0.000303294
0.000162931
0.000138199
0.0001278
0.000119213
0.000111376
0.00010405
0.00409421
0.000693338
0.000213414
0.000144253
0.00012623
0.000115801
0.000106828
9.82083e-05
0.00305236
0.000599793
0.000212665
0.00014994
0.00013239
0.00012211
0.000113744
0.000106322
0.000681466
0.00026756
0.000175924
0.000154884
0.000145411
0.00013745
0.000132252
0.000128575
0.000228807
0.000183156
0.000170421
0.000165508
0.000161816
0.000158541
0.000156064
0.000154553
0.000645209
0.000495523
0.000420297
0.000363233
0.000317985
0.000281907
0.000252961
0.000229019
0.00134448
0.000675188
0.000524472
0.000441075
0.000378555
0.000328226
0.000286525
0.000251729
0.00536617
0.00121069
0.000713378
0.000563159
0.000473176
0.000402755
0.000343779
0.000293749
0.0192087
0.00238351
0.000953399
0.000681407
0.000557275
0.000468393
0.000396133
0.000335748
0.0154845
0.00236788
0.00100227
0.000713975
0.000579974
0.000485437
0.000410043
0.000347362
0.00405344
0.00119149
0.000750895
0.000592432
0.000494059
0.000418607
0.000358007
0.000308187
0.00102489
0.000644662
0.000543088
0.000468581
0.000407356
0.000357077
0.000316065
0.000282184
0.00292249
0.0024314
0.00213741
0.00185232
0.00155956
0.00126901
0.000998582
0.000767191
0.004876
0.00294567
0.00244582
0.00212568
0.00182052
0.00150576
0.00119211
0.000904285
0.0145646
0.00430352
0.00283681
0.00236208
0.00203502
0.00171581
0.00138474
0.00105936
0.0449882
0.00705592
0.00325633
0.00247547
0.00208577
0.0017511
0.00141626
0.00108745
0.033276
0.0066114
0.00334348
0.00259458
0.00220289
0.00185823
0.00150779
0.00116138
0.0109943
0.0041488
0.00297938
0.00250992
0.00214076
0.00177228
0.00140219
0.00105865
0.00419996
0.00299997
0.00260012
0.00225917
0.00190637
0.00154853
0.00121106
0.000922444
0.00945856
0.00821259
0.00719851
0.00624877
0.00541919
0.00474668
0.00419986
0.00365034
0.0127839
0.00941453
0.0080338
0.00695875
0.0060262
0.00527397
0.00469821
0.00416376
0.0257773
0.0116636
0.00874691
0.00736382
0.00630675
0.00547509
0.00487523
0.0043815
0.0601041
0.0155359
0.00935443
0.00746005
0.00625851
0.00534599
0.00469427
0.0041749
0.0442998
0.0144445
0.00948491
0.00773407
0.00657724
0.00570804
0.00509781
0.00460498
0.0203703
0.0113723
0.00902101
0.00766374
0.0065776
0.00571357
0.00505365
0.0044481
0.0119348
0.00958994
0.00827763
0.00712735
0.00611938
0.00529254
0.00461674
0.00395015
0.0136086
0.0125222
0.011754
0.0109911
0.0100795
0.00877297
0.00684407
0.00457938
0.0170556
0.0138729
0.0128212
0.0121686
0.011504
0.0104611
0.00860344
0.00606172
0.0295524
0.0163171
0.0137279
0.0129482
0.01254
0.0119025
0.0103688
0.00787386
0.057877
0.02004
0.0143365
0.0130449
0.0126048
0.0121339
0.0108586
0.00859316
0.0432586
0.018693
0.014489
0.0133904
0.0128623
0.0121055
0.0103897
0.00767406
0.0232926
0.0157551
0.0138776
0.0129476
0.0120882
0.0108318
0.00871866
0.00592641
0.0161128
0.0141263
0.0130981
0.012148
0.011025
0.00945601
0.00720912
0.00463733
0.000111481
0.000105345
0.000103545
0.00010036
0.000101217
0.000104929
0.000112842
0.000187826
0.000185451
0.000180972
0.000179289
0.00018129
0.000187497
0.000197877
0.000518448
0.000511383
0.000507639
0.000506185
0.000509661
0.000520432
0.00054632
0.00256509
0.0025392
0.00254138
0.00254706
0.00256201
0.00258639
0.00266069
0.00227593
0.00223582
0.0022366
0.00223454
0.00221649
0.00218785
0.00217248
0.000157222
0.000130128
0.000108008
9.56701e-05
0.000112903
0.000133275
0.000149567
0.000250033
0.000259286
0.000280108
0.000278372
0.000276896
0.000253199
0.000227762
0.000698004
0.000756051
0.000838488
0.000791598
0.000815846
0.0007207
0.000652433
0.00304755
0.0035149
0.00369465
0.00342782
0.00370849
0.00334173
0.002947
0.0022389
0.00301784
0.00439929
0.00501636
0.00400388
0.00277086
0.00221396
0.000128458
9.86886e-05
7.52872e-05
7.11334e-05
8.10174e-05
9.67118e-05
0.000112308
0.000209119
0.000205376
0.000237372
0.000238483
0.000201682
0.000183666
0.000184613
0.000618167
0.000652061
0.000680092
0.000626887
0.000598839
0.00054899
0.000527984
0.00296064
0.00311703
0.00290042
0.00258352
0.00264263
0.00272461
0.00264471
0.00230375
0.0028154
0.00344592
0.00370725
0.00336992
0.00291467
0.00247876
0.000117886
0.000109409
9.79218e-05
9.0443e-05
9.92692e-05
0.000124388
0.000153516
0.00020823
0.000222448
0.000252064
0.000286879
0.000296517
0.000267521
0.000253467
0.000588379
0.000670186
0.000777947
0.000801999
0.000859014
0.000777956
0.000703114
0.00289187
0.00337257
0.00365513
0.00343847
0.00386318
0.00357016
0.00306371
0.00232397
0.00305226
0.00436469
0.00509939
0.00400924
0.00275957
0.00217146
0.000109424
0.000105441
9.67037e-05
8.67941e-05
7.59302e-05
6.5063e-05
5.46848e-05
4.48697e-05
0.00010294
9.91733e-05
9.112e-05
8.10994e-05
7.06681e-05
6.03126e-05
5.04545e-05
4.11779e-05
0.000100105
9.53645e-05
8.79234e-05
7.74742e-05
6.71065e-05
5.72282e-05
4.78558e-05
3.90336e-05
9.74152e-05
9.27504e-05
8.7548e-05
7.84968e-05
6.73548e-05
5.63375e-05
4.67249e-05
3.80773e-05
9.7849e-05
9.40655e-05
8.74371e-05
7.71299e-05
6.66786e-05
5.68563e-05
4.757e-05
3.88488e-05
0.000102711
9.88364e-05
9.06998e-05
8.04624e-05
6.99683e-05
5.96882e-05
4.99701e-05
4.08649e-05
0.000110799
0.000106602
9.79655e-05
8.72799e-05
7.58398e-05
6.46884e-05
5.42583e-05
4.45575e-05
0.000170597
0.000144038
0.000114982
9.01342e-05
7.13826e-05
5.74738e-05
4.69479e-05
3.8959e-05
0.00016816
0.000141708
0.000112781
8.83368e-05
6.97243e-05
5.589e-05
4.54354e-05
3.75141e-05
0.000163357
0.000137867
0.000109628
8.60884e-05
6.8085e-05
5.46173e-05
4.43989e-05
3.66183e-05
0.000161523
0.000136741
0.000109196
8.55529e-05
6.72651e-05
5.37987e-05
4.37304e-05
3.6102e-05
0.000163501
0.000137735
0.000109086
8.53858e-05
6.74326e-05
5.40729e-05
4.3995e-05
3.63383e-05
0.000169735
0.000142287
0.000112281
8.72923e-05
6.85219e-05
5.47771e-05
4.45325e-05
3.68353e-05
0.000179494
0.000149663
0.000116841
8.97763e-05
6.9949e-05
5.57287e-05
4.53175e-05
3.76137e-05
0.000406126
0.000303385
0.000201314
0.000131374
8.89217e-05
6.32428e-05
4.7276e-05
3.72982e-05
0.000398991
0.000296706
0.000197276
0.0001292
8.77446e-05
6.25832e-05
4.68957e-05
3.70678e-05
0.000393923
0.000291558
0.000195011
0.000128311
8.73589e-05
6.23723e-05
4.67306e-05
3.68912e-05
0.000391315
0.000288729
0.000193815
0.000127907
8.7169e-05
6.22368e-05
4.66462e-05
3.68507e-05
0.00039486
0.000292461
0.000194889
0.000127746
8.67514e-05
6.18835e-05
4.63945e-05
3.66823e-05
0.000405628
0.000301339
0.000197907
0.00012814
8.63213e-05
6.13158e-05
4.59333e-05
3.63931e-05
0.000431672
0.000318656
0.000205121
0.00013043
8.66329e-05
6.09398e-05
4.54173e-05
3.59566e-05
0.00183255
0.000872077
0.00036969
0.000177115
9.81382e-05
6.14208e-05
4.24686e-05
3.2207e-05
0.00179722
0.000850844
0.000360941
0.000173923
9.70753e-05
6.12041e-05
4.26296e-05
3.25699e-05
0.00179168
0.000849224
0.000360774
0.00017406
9.72997e-05
6.14242e-05
4.28106e-05
3.27054e-05
0.00179158
0.000849041
0.000360721
0.000174008
9.72968e-05
6.14794e-05
4.29204e-05
3.28586e-05
0.00180196
0.00085075
0.000360139
0.000173196
9.66033e-05
6.09432e-05
4.25117e-05
3.25366e-05
0.00182129
0.000854211
0.000359229
0.000171703
9.52281e-05
5.98464e-05
4.17062e-05
3.19761e-05
0.00187763
0.000876882
0.000365956
0.000172996
9.47796e-05
5.89273e-05
4.0754e-05
3.11151e-05
0.00162873
0.000962781
0.000412895
0.000184761
9.34158e-05
5.39694e-05
3.54322e-05
2.63204e-05
0.00157595
0.000940541
0.000407131
0.000183293
9.31037e-05
5.40196e-05
3.56473e-05
2.66709e-05
0.00155734
0.000933142
0.000406095
0.000183405
9.33365e-05
5.42186e-05
3.58084e-05
2.68163e-05
0.00154744
0.000927884
0.000404657
0.000183021
9.3284e-05
5.4298e-05
3.59517e-05
2.70009e-05
0.00154153
0.000923673
0.000401951
0.000181372
9.22607e-05
5.36387e-05
3.55046e-05
2.66653e-05
0.00153856
0.000918932
0.000397335
0.000178335
9.03859e-05
5.24844e-05
3.47891e-05
2.62091e-05
0.00155581
0.000924759
0.000396115
0.000176348
8.87936e-05
5.13433e-05
3.39693e-05
2.555e-05
0.000154223
0.000144388
0.000129817
0.000112784
9.62264e-05
8.11358e-05
6.77315e-05
5.58552e-05
0.000128574
0.000122335
0.00011575
0.000104055
9.03271e-05
7.65673e-05
6.36047e-05
5.22077e-05
0.00010078
9.19339e-05
8.32886e-05
7.42198e-05
6.52904e-05
5.7194e-05
4.93074e-05
4.15143e-05
9.01114e-05
8.07671e-05
7.15244e-05
6.2524e-05
5.3855e-05
4.64453e-05
4.02177e-05
3.35678e-05
0.000105707
9.72202e-05
8.84008e-05
7.88774e-05
6.94445e-05
6.10279e-05
5.27591e-05
4.43313e-05
0.000132542
0.000128477
0.000121086
0.000108327
9.41555e-05
8.02427e-05
6.68221e-05
5.46477e-05
0.000146764
0.000137686
0.000124681
0.000109254
9.38883e-05
7.95625e-05
6.656e-05
5.48933e-05
0.000224463
0.000180771
0.000134506
9.85432e-05
7.38498e-05
5.73743e-05
4.62086e-05
3.84551e-05
0.000227622
0.000187884
0.00014688
0.000111324
8.40522e-05
6.41719e-05
5.01701e-05
4.064e-05
0.000239232
0.00018978
0.000148303
0.000115732
9.08703e-05
7.18378e-05
5.67686e-05
4.50096e-05
0.000238097
0.000189741
0.000149836
0.0001185
9.39991e-05
7.53887e-05
6.03675e-05
4.8595e-05
0.0002384
0.000190907
0.000149895
0.000117277
9.20778e-05
7.27861e-05
5.74196e-05
4.54187e-05
0.000224566
0.000187348
0.000145862
0.000110709
8.39879e-05
6.44922e-05
5.0468e-05
4.07039e-05
0.000205322
0.000168274
0.000127659
9.52116e-05
7.2255e-05
5.64837e-05
4.55174e-05
3.78046e-05
0.000553466
0.0003773
0.000225091
0.000133978
8.45926e-05
5.7641e-05
4.2355e-05
3.34167e-05
0.000558334
0.000392604
0.00026209
0.000170358
0.000113746
7.96645e-05
5.89008e-05
4.61842e-05
0.000604463
0.000388173
0.000259369
0.000180685
0.000129816
9.59625e-05
7.28767e-05
5.67455e-05
0.000566857
0.000361131
0.000241728
0.000170925
0.000125457
9.46754e-05
7.30343e-05
5.74502e-05
0.000590879
0.00038766
0.000265751
0.000190287
0.000137965
0.000100692
7.52736e-05
5.79874e-05
0.000536771
0.000386403
0.000252432
0.000161643
0.000107254
7.49636e-05
5.53063e-05
4.32044e-05
0.000510609
0.000356466
0.000217806
0.000132041
8.42392e-05
5.75169e-05
4.2096e-05
3.30363e-05
0.00208584
0.000950342
0.000383507
0.000172926
9.10984e-05
5.54033e-05
3.80813e-05
2.90745e-05
0.00254289
0.00126068
0.000553454
0.000268739
0.000151209
9.636e-05
6.73816e-05
5.09533e-05
0.00283064
0.00156413
0.000771354
0.000399352
0.000225199
0.000141309
9.81892e-05
7.35578e-05
0.00258071
0.00140048
0.000680653
0.000347098
0.00019638
0.000124484
8.71231e-05
6.57079e-05
0.00281122
0.00153894
0.000756902
0.000394821
0.000227548
0.000143367
9.83649e-05
7.32784e-05
0.00237732
0.00114279
0.000488877
0.000233604
0.000129842
8.24205e-05
5.79618e-05
4.4214e-05
0.00203604
0.000932136
0.000377937
0.000171674
9.05816e-05
5.48262e-05
3.73776e-05
2.83444e-05
0.00158397
0.000924169
0.000389455
0.000171295
8.60667e-05
5.03667e-05
3.39962e-05
2.59472e-05
0.00201426
0.00122232
0.000574136
0.000286949
0.000162075
0.000102069
6.99493e-05
5.19696e-05
0.00274594
0.00178751
0.000974705
0.000559798
0.000333203
0.00019619
0.00012502
9.13087e-05
0.00311696
0.00205442
0.00113869
0.000642111
0.000372435
0.000219475
0.000135765
9.21181e-05
0.00252504
0.00160496
0.000837147
0.000470047
0.000291457
0.000185676
0.000119815
8.67938e-05
0.0018796
0.0011239
0.000507781
0.000242794
0.000132449
8.26361e-05
5.75413e-05
4.34293e-05
0.00157951
0.000918844
0.000384199
0.000167693
8.34415e-05
4.83476e-05
3.23637e-05
2.46035e-05
0.000126292
0.000121331
0.000112133
9.98618e-05
8.68192e-05
7.438e-05
6.27871e-05
5.20075e-05
9.61094e-05
9.05674e-05
8.62277e-05
8.20224e-05
7.46516e-05
6.58724e-05
5.69532e-05
4.8051e-05
7.14849e-05
6.55048e-05
6.05629e-05
5.56966e-05
5.03796e-05
4.47912e-05
3.93313e-05
3.39833e-05
6.66838e-05
5.9843e-05
5.33192e-05
4.72886e-05
4.17707e-05
3.64148e-05
3.15177e-05
2.69721e-05
7.71344e-05
7.06006e-05
6.54538e-05
6.00394e-05
5.4019e-05
4.7503e-05
4.14076e-05
3.5518e-05
9.52688e-05
8.99123e-05
8.59597e-05
8.0838e-05
7.326e-05
6.42913e-05
5.52404e-05
4.63853e-05
0.000108411
0.00010304
9.73074e-05
8.8678e-05
7.8446e-05
6.79207e-05
5.76434e-05
4.77702e-05
0.000185995
0.00015465
0.000120172
9.14575e-05
7.05603e-05
5.58712e-05
4.53872e-05
3.77834e-05
0.000174751
0.000142218
0.00011698
9.53379e-05
7.72699e-05
6.30249e-05
5.20416e-05
4.34931e-05
0.000197908
0.000154047
0.000120386
9.58787e-05
7.75237e-05
6.33064e-05
5.19485e-05
4.24857e-05
0.000201162
0.000157479
0.000122525
9.54948e-05
7.46046e-05
5.87628e-05
4.65942e-05
3.73355e-05
0.000169927
0.000133328
0.000104821
8.38297e-05
6.78655e-05
5.58072e-05
4.6148e-05
3.80232e-05
0.00016093
0.00013445
0.000110509
9.02559e-05
7.32576e-05
5.99834e-05
4.96559e-05
4.15455e-05
0.000167326
0.000143852
0.000116603
9.22039e-05
7.31059e-05
5.88103e-05
4.80727e-05
3.9985e-05
0.00046171
0.000335755
0.000216501
0.000136318
8.91369e-05
6.16811e-05
4.52655e-05
3.53307e-05
0.000462611
0.000307841
0.000224948
0.000157235
0.000110327
7.98305e-05
5.99749e-05
4.70151e-05
0.000475641
0.000297771
0.000201288
0.000148517
0.000117574
9.51606e-05
7.66745e-05
6.15347e-05
0.00043902
0.000273185
0.000180596
0.000127202
9.33767e-05
7.03277e-05
5.37691e-05
4.16838e-05
0.000416779
0.000257027
0.000170965
0.000124185
9.73342e-05
7.73175e-05
6.17011e-05
4.98128e-05
0.000398594
0.000268718
0.000197771
0.000141168
0.000101236
7.45008e-05
5.65675e-05
4.45506e-05
0.00040632
0.00029951
0.000204458
0.000135834
9.25739e-05
6.58813e-05
4.91177e-05
3.85762e-05
0.00209835
0.000986064
0.000407493
0.000187579
0.000100108
6.09441e-05
4.14122e-05
3.10687e-05
0.00227642
0.00116342
0.000513637
0.0002452
0.000134328
8.35248e-05
5.75789e-05
4.34054e-05
0.00215029
0.00117222
0.000582318
0.000305675
0.000176419
0.000112664
7.92927e-05
6.12678e-05
0.00185144
0.000967115
0.000475503
0.000258487
0.000160253
0.000109975
7.98819e-05
5.93665e-05
0.00192934
0.00103395
0.000508023
0.000266096
0.000154342
0.000100591
7.23801e-05
5.65085e-05
0.00199512
0.00103119
0.000463678
0.000226559
0.000127021
8.04956e-05
5.61029e-05
4.23413e-05
0.0019084
0.000930511
0.00039973
0.000191196
0.000105486
6.57729e-05
4.52793e-05
3.41053e-05
0.00164201
0.000953324
0.000402237
0.000177776
8.92873e-05
5.16533e-05
3.41465e-05
2.55113e-05
0.00189406
0.00110241
0.0004818
0.000220957
0.000114778
6.83676e-05
4.61619e-05
3.48949e-05
0.00217376
0.00126612
0.000582971
0.000280772
0.000152817
9.56563e-05
6.8062e-05
5.45158e-05
0.00225218
0.00129415
0.000620902
0.00033031
0.000208724
0.000154031
0.000125555
0.000109218
0.00212703
0.00122562
0.000560017
0.000272641
0.000151554
9.69578e-05
6.9998e-05
5.59879e-05
0.00195974
0.00113859
0.000498242
0.000229798
0.000120083
7.15924e-05
4.80778e-05
3.59501e-05
0.00175505
0.00102495
0.00043922
0.000197087
0.000100049
5.80264e-05
3.81289e-05
2.81905e-05
0.000114461
0.000111054
0.00010379
9.29545e-05
8.07768e-05
6.8784e-05
5.76416e-05
4.74341e-05
0.000107454
0.000101409
9.61801e-05
8.85307e-05
7.83545e-05
6.71625e-05
5.61177e-05
4.57668e-05
9.32317e-05
8.52651e-05
7.77656e-05
7.01063e-05
6.21434e-05
5.41319e-05
4.6233e-05
3.86464e-05
8.41129e-05
7.44941e-05
6.58191e-05
5.78791e-05
5.05019e-05
4.36956e-05
3.71982e-05
3.13048e-05
9.38454e-05
8.56284e-05
7.8177e-05
7.06551e-05
6.28608e-05
5.51244e-05
4.75072e-05
3.99136e-05
0.000120562
0.000113834
0.000108871
0.000100295
8.87148e-05
7.61061e-05
6.37094e-05
5.19626e-05
0.000151109
0.000142179
0.000128165
0.000111572
9.51818e-05
8.02343e-05
6.69364e-05
5.50789e-05
0.000188918
0.00015933
0.000124403
9.45381e-05
7.23242e-05
5.65075e-05
4.52339e-05
3.71877e-05
0.000196216
0.000162656
0.000130048
0.000100687
7.71444e-05
5.92935e-05
4.59812e-05
3.61589e-05
0.000214739
0.000169775
0.000132397
0.000102963
8.02136e-05
6.26237e-05
4.89797e-05
3.83426e-05
0.000242626
0.00019128
0.000149478
0.000117183
9.22365e-05
7.29275e-05
5.79303e-05
4.60616e-05
0.000250904
0.000198237
0.000154948
0.00012088
9.46627e-05
7.42914e-05
5.83498e-05
4.58005e-05
0.000232033
0.000190022
0.000150743
0.000116018
8.88671e-05
6.87308e-05
5.38989e-05
4.29113e-05
0.000226023
0.000181452
0.000134918
9.87648e-05
7.39612e-05
5.73914e-05
4.6092e-05
3.82078e-05
0.000458676
0.000341111
0.000219561
0.000137767
8.96231e-05
6.16007e-05
4.49391e-05
3.49774e-05
0.000501252
0.000357042
0.000248144
0.00016555
0.000111651
7.77335e-05
5.60527e-05
4.20485e-05
0.0005592
0.000358902
0.000240786
0.00016872
0.000121406
8.85218e-05
6.52335e-05
4.89054e-05
0.000572921
0.000362494
0.000240689
0.000168605
0.000122565
9.13529e-05
6.95271e-05
5.39758e-05
0.000618367
0.000401922
0.000275745
0.000198882
0.000147417
0.000110212
8.24477e-05
6.19782e-05
0.00057318
0.000407406
0.00027675
0.000183121
0.000124574
8.89086e-05
6.66306e-05
5.21562e-05
0.000552273
0.000378806
0.000227654
0.000136183
8.61564e-05
5.8649e-05
4.297e-05
3.38065e-05
0.00205378
0.000967094
0.000402095
0.000186732
0.000100283
6.11264e-05
4.15096e-05
3.11772e-05
0.00247506
0.00125943
0.0005637
0.000276455
0.000155675
9.87174e-05
6.81793e-05
5.0026e-05
0.00281436
0.00157811
0.000800948
0.000434321
0.000256491
0.000159548
0.000102409
6.97561e-05
0.00259491
0.00141558
0.000694132
0.000356021
0.000200351
0.000124858
8.51014e-05
6.2272e-05
0.00297885
0.00167273
0.000855113
0.000472431
0.000291581
0.000193593
0.000130629
8.96124e-05
0.00257567
0.0012714
0.000556127
0.000270085
0.000153217
0.00010042
7.35571e-05
5.77636e-05
0.00210484
0.000960341
0.000388505
0.000176034
9.29796e-05
5.65541e-05
3.88238e-05
2.96448e-05
0.00165861
0.000980702
0.000422083
0.000189455
9.637e-05
5.62715e-05
3.74013e-05
2.80127e-05
0.00206815
0.00125934
0.000592358
0.000297671
0.000170775
0.000110669
7.8014e-05
5.75604e-05
0.0027538
0.00178392
0.000965594
0.000565442
0.000368093
0.000250863
0.000161579
9.97395e-05
0.00315138