/*--------------------------------*- C++ -*----------------------------------*\
| =========                 |                                                 |
| \\      /  F ield         | OpenFOAM: The Open Source CFD Toolbox           |
|  \\    /   O peration     | Version:  plus.master.MPPICInterFoam            |
|   \\  /    A nd           | Web:      www.OpenFOAM.com                      |
|    \\/     M anipulation  |                                                 |
\*---------------------------------------------------------------------------*/
FoamFile
{
    version     2.0;
    format      ascii;
    class       volScalarField;
    location    "7.6";
    object      p_rgh;
}
// * * * * * * * * * * * * * * * * * * * * * * * * * * * * * * * * * * * * * //

dimensions      [1 -1 -2 0 0 0 0];

internalField   nonuniform List<scalar> 
11821
(
5696.49
5697.25
5695.61
5694.54
5695.85
5697.17
5696.11
5697.39
5673.23
5675.93
5672.9
5669.82
5674.44
5696.41
5695.81
5671.85
5637.78
5633.07
5637.88
5678.28
5694.99
5694.6
5674.75
5633.88
5629.79
5633.71
5675.62
5694.58
5695.79
5672.6
5637.67
5632.95
5637.76
5678.24
5695.32
5697.29
5673
5674.74
5672.07
5668.9
5674.22
5696.79
5696.11
5696.45
5694.75
5693.69
5695.13
5696.83
5695.8
5685.94
5682.74
5680.32
5679.65
5681.25
5684.39
5687.69
5682.07
5650.03
5651.77
5642.48
5642.92
5670.32
5685.16
5678.76
5620.15
5506.93
5501.98
5519.64
5676.78
5683.44
5677.61
5631.65
5505.01
5498.47
5514.38
5676.73
5683.1
5678.75
5622.97
5505.97
5501.29
5518.59
5676.54
5683.34
5681.94
5647.28
5646.76
5637.78
5637.52
5670.75
5685
5685.76
5682.45
5679.99
5679.28
5680.88
5684.14
5687.51
5687.22
5684.88
5683.42
5682.77
5683.88
5686.12
5688.42
5684.18
5678.68
5640.55
5610.22
5670
5682.64
5686.63
5681.37
5608.87
5384.89
5374.3
5450.08
5679.46
5685.47
5680.02
5577
5374.43
5373.04
5426.93
5677.75
5684.79
5681.29
5607.12
5381.66
5372.09
5443.26
5679.28
5685.39
5684.01
5677.73
5631.18
5599.72
5665.64
5682.32
5686.47
5687.06
5684.6
5682.97
5682.3
5683.5
5685.87
5688.28
5692.62
5692.51
5692.29
5692.28
5691.81
5691.69
5691.57
5692.5
5691.22
5649.71
5598.51
5689.91
5691.16
5691.71
5692.15
5628.82
5288.95
5263.29
5485
5690.74
5691.88
5691.6
5508.71
5259.48
5260.54
5443.96
5688.9
5691.44
5692.09
5619.79
5282.03
5260.89
5463.97
5690.54
5691.87
5692.49
5691.05
5637.16
5580.1
5688.89
5691.06
5691.76
5692.71
5692.53
5692.19
5692.06
5691.71
5691.73
5691.7
5681.3
5682
5682.3
5682.42
5681.64
5681.02
5680.04
5681.95
5681.53
5656.99
5595.57
5680.99
5681.53
5681.02
5681.82
5652.34
5211.46
5142.1
5549.89
5682
5681.93
5680.65
5471.42
5126.45
5128.23
5518.45
5681.97
5682.14
5681.93
5642.01
5195.25
5133.19
5522.01
5682.02
5681.98
5682.06
5681.57
5645.04
5570.4
5680.97
5681.57
5681.14
5681.48
5682.14
5682.42
5682.38
5681.65
5681.13
5680.18
5695.94
5696.13
5696.18
5696.28
5696.42
5696.61
5696.82
5697.05
5695.75
5696.29
5696.06
5696.12
5696.28
5696.5
5696.75
5697.03
5694.59
5696.03
5695.89
5695.93
5696.12
5696.37
5696.68
5697.02
5694.61
5695.93
5695.85
5695.91
5696.12
5696.37
5696.55
5696.87
5694.64
5695.81
5695.86
5695.91
5696.11
5696.35
5696.66
5696.99
5695.43
5695.93
5696.03
5696.05
5696.23
5696.45
5696.69
5696.97
5695.8
5696.13
5696.19
5696.25
5696.41
5696.59
5696.8
5697.02
5690.1
5691.63
5692.86
5693.85
5694.67
5695.36
5695.95
5696.47
5688.56
5690.7
5692.27
5693.49
5694.46
5695.26
5695.93
5696.52
5687.58
5690.09
5691.87
5693.24
5694.32
5695.19
5695.91
5696.53
5687.29
5689.9
5691.75
5693.16
5694.27
5695.17
5695.91
5696.54
5687.52
5690.03
5691.83
5693.2
5694.28
5695.16
5695.88
5696.5
5688.45
5690.61
5692.2
5693.43
5694.41
5695.22
5695.89
5696.48
5689.97
5691.53
5692.77
5693.78
5694.61
5695.31
5695.89
5696.41
5690.08
5691.21
5692.19
5693.01
5693.69
5694.28
5694.81
5695.32
5689.05
5690.58
5691.78
5692.76
5693.55
5694.22
5694.81
5695.37
5688.45
5690.2
5691.52
5692.58
5693.44
5694.15
5694.78
5695.37
5688.09
5690.02
5691.41
5692.51
5693.4
5694.13
5694.77
5695.37
5688.4
5690.17
5691.5
5692.56
5693.43
5694.15
5694.78
5695.37
5688.96
5690.52
5691.74
5692.72
5693.53
5694.21
5694.8
5695.37
5689.99
5691.14
5692.14
5692.99
5693.69
5694.3
5694.84
5695.37
5691.4
5691.42
5691.66
5692.06
5692.65
5693.49
5694.66
5696.14
5691.62
5691.55
5691.67
5691.98
5692.52
5693.36
5694.58
5696.16
5691.9
5691.71
5691.71
5691.96
5692.46
5693.28
5694.51
5696.15
5691.88
5691.77
5691.76
5691.99
5692.49
5693.3
5694.53
5696.18
5691.97
5691.78
5691.79
5692.04
5692.54
5693.36
5694.58
5696.2
5691.72
5691.66
5691.78
5692.11
5692.65
5693.48
5694.69
5696.26
5691.54
5691.57
5691.83
5692.25
5692.85
5693.7
5694.86
5696.32
5678.99
5678.05
5677.22
5676.41
5675.5
5674.1
5672.01
5671.14
5679.97
5678.89
5677.86
5676.89
5675.87
5674.37
5672.06
5670.89
5680.75
5679.46
5678.29
5677.22
5676.12
5674.54
5672.07
5670.71
5681.07
5679.74
5678.52
5677.43
5676.3
5674.68
5672.16
5670.73
5680.83
5679.54
5678.37
5677.3
5676.19
5674.6
5672.13
5670.76
5680.08
5678.98
5677.95
5676.97
5675.94
5674.44
5672.11
5670.9
5679.11
5678.18
5677.35
5676.52
5675.6
5674.19
5672.07
5671.13
5696.13
5696.06
5696.01
5696.05
5696.17
5696.35
5696.56
5696.78
5696.31
5696.01
5695.84
5695.84
5695.93
5696.11
5696.34
5696.54
5695.81
5695.93
5695.65
5695.69
5695.84
5696.04
5696.33
5696.64
5695.39
5695.8
5695.58
5695.73
5695.99
5696.27
5696.55
5696.86
5695.78
5695.89
5695.64
5695.71
5695.89
5696.07
5696.25
5696.54
5696.29
5696.04
5695.86
5695.78
5695.88
5696.11
5696.34
5696.55
5696.27
5696.1
5696.02
5696.08
5696.21
5696.39
5696.6
5696.83
5688.58
5690.4
5691.84
5692.99
5693.92
5694.7
5695.35
5695.92
5686.31
5689
5690.94
5692.4
5693.55
5694.46
5695.21
5695.84
5684.6
5688
5690.35
5692.07
5693.38
5694.39
5695.18
5695.84
5683.94
5687.65
5690.18
5692.03
5693.42
5694.48
5695.33
5696.03
5684.61
5688
5690.34
5692.05
5693.33
5694.34
5695.14
5695.8
5686.4
5689.06
5690.98
5692.43
5693.57
5694.48
5695.23
5695.86
5688.7
5690.5
5691.92
5693.05
5693.97
5694.73
5695.37
5695.93
5689
5690.38
5691.54
5692.51
5693.31
5693.97
5694.53
5695.05
5687.34
5689.35
5690.84
5692.01
5692.96
5693.72
5694.36
5694.94
5686.02
5688.69
5690.47
5691.8
5692.82
5693.62
5694.31
5694.91
5685.47
5688.5
5690.42
5691.78
5692.85
5693.76
5694.48
5695.12
5686.05
5688.68
5690.44
5691.73
5692.75
5693.61
5694.31
5694.92
5687.42
5689.4
5690.87
5692.04
5692.98
5693.75
5694.4
5694.99
5689.1
5690.45
5691.59
5692.55
5693.33
5693.99
5694.55
5695.08
5692.24
5692.2
5692.41
5692.8
5693.36
5694.15
5695.24
5696.61
5692.48
5692.26
5692.22
5692.46
5692.92
5693.67
5694.76
5696.21
5692.79
5692.62
5692.36
5692.4
5692.73
5693.4
5694.54
5695.96
5693.18
5693.1
5692.64
5692.53
5692.85
5693.51
5694.57
5695.99
5692.75
5692.54
5692.25
5692.33
5692.72
5693.43
5694.52
5695.99
5692.43
5692.2
5692.18
5692.44
5692.94
5693.71
5694.83
5696.31
5692.13
5692.07
5692.28
5692.66
5693.22
5694.03
5695.13
5696.52
5680.3
5679.55
5678.86
5678.16
5677.33
5676.01
5673.99
5673.09
5681.04
5680.03
5679.12
5678.29
5677.4
5676.03
5673.91
5672.92
5681.57
5680.49
5679.32
5678.32
5677.35
5676.02
5673.87
5673.09
5681.56
5680.76
5679.47
5678.45
5677.46
5676.04
5673.86
5673.17
5681.46
5680.36
5679.23
5678.32
5677.39
5676
5673.82
5672.95
5680.93
5679.96
5679.09
5678.31
5677.45
5676.11
5673.99
5672.99
5680.13
5679.39
5678.72
5678.04
5677.24
5675.94
5673.96
5673.12
5696.3
5696.18
5696.12
5696.18
5696.29
5696.46
5696.66
5696.88
5696.26
5696.2
5696.07
5696.09
5696.15
5696.33
5696.58
5696.8
5695.68
5696.19
5695.96
5696.1
5696.36
5696.63
5696.87
5697.1
5695.49
5696.09
5695.92
5696.07
5696.28
5696.57
5696.88
5697.19
5696
5696.29
5695.96
5695.97
5696.12
5696.38
5696.66
5696.88
5696.62
5696.48
5696.22
5696.19
5696.29
5696.46
5696.65
5696.85
5696.25
5696.16
5696.15
5696.25
5696.43
5696.66
5696.91
5697.18
5688.89
5690.69
5692.09
5693.22
5694.13
5694.88
5695.52
5696.07
5687.01
5689.65
5691.52
5692.93
5694
5694.85
5695.55
5696.14
5685.78
5689
5691.21
5692.83
5694.06
5695.03
5695.8
5696.42
5685.5
5688.85
5691.14
5692.82
5694.08
5695.06
5695.83
5696.46
5686.34
5689.3
5691.37
5692.89
5694.04
5694.95
5695.69
5696.3
5688.03
5690.34
5692.01
5693.28
5694.27
5695.08
5695.74
5696.31
5690.02
5691.59
5692.82
5693.82
5694.63
5695.32
5695.9
5696.41
5689.28
5690.63
5691.76
5692.7
5693.47
5694.11
5694.67
5695.18
5688.07
5689.99
5691.38
5692.48
5693.36
5694.08
5694.69
5695.25
5687.37
5689.73
5691.32
5692.52
5693.47
5694.24
5694.89
5695.48
5687.12
5689.6
5691.24
5692.46
5693.41
5694.19
5694.85
5695.44
5687.55
5689.71
5691.23
5692.39
5693.31
5694.05
5694.68
5695.25
5688.64
5690.3
5691.57
5692.58
5693.39
5694.07
5694.65
5695.19
5690.02
5691.2
5692.19
5693
5693.68
5694.26
5694.78
5695.28
5692.15
5692.12
5692.31
5692.67
5693.22
5694
5695.09
5696.46
5692.38
5692.19
5692.15
5692.37
5692.83
5693.58
5694.68
5696.13
5692.74
5692.58
5692.33
5692.38
5692.76
5693.48
5694.59
5696.09
5692.82
5692.63
5692.29
5692.26
5692.58
5693.26
5694.35
5695.82
5692.03
5691.85
5691.73
5691.88
5692.3
5693.04
5694.17
5695.67
5691.49
5691.41
5691.49
5691.77
5692.26
5693.04
5694.17
5695.66
5691.4
5691.5
5691.73
5692.11
5692.67
5693.47
5694.59
5696.04
5680.15
5679.41
5678.7
5677.98
5677.15
5675.82
5673.82
5673.02
5680.87
5679.86
5678.91
5677.95
5677.01
5675.72
5673.69
5672.82
5681.58
5680.37
5679.11
5678.09
5677.11
5675.63
5672.92
5672.16
5681.85
5680.55
5679.13
5677.99
5676.7
5674.93
5673.2
5672.65
5680.75
5679.58
5678.45
5677.5
5676
5673.94
5671.7
5671.02
5679.84
5678.91
5677.99
5677.08
5675.33
5673.64
5671.46
5670.66
5679.16
5678.4
5677.55
5676.6
5675.64
5674.29
5672.19
5671.43
5696.13
5696.18
5696.15
5696.23
5696.39
5696.61
5696.86
5697.11
5696.41
5696.36
5696.11
5696.11
5696.21
5696.39
5696.61
5696.82
5695.91
5696.46
5695.91
5695.97
5696.14
5696.35
5696.58
5696.79
5694.92
5696.04
5695.73
5695.91
5696.17
5696.49
5696.82
5697.13
5695.26
5696.1
5695.74
5695.88
5696.11
5696.38
5696.66
5696.93
5695.74
5696.08
5695.93
5696.01
5696.16
5696.34
5696.55
5696.8
5696.11
5696.18
5696.1
5696.13
5696.24
5696.4
5696.6
5696.81
5689.87
5691.46
5692.71
5693.72
5694.55
5695.24
5695.82
5696.34
5687.83
5690.17
5691.86
5693.15
5694.17
5694.98
5695.65
5696.22
5686.07
5689.1
5691.2
5692.75
5693.93
5694.85
5695.58
5696.19
5685.19
5688.61
5690.93
5692.63
5693.91
5694.91
5695.7
5696.35
5685.49
5688.76
5691
5692.64
5693.89
5694.86
5695.63
5696.26
5686.75
5689.43
5691.33
5692.76
5693.86
5694.73
5695.45
5696.05
5688.73
5690.54
5691.96
5693.09
5694.02
5694.79
5695.43
5695.99
5689.9
5691.11
5692.12
5692.97
5693.67
5694.27
5694.8
5695.32
5688.47
5690.17
5691.47
5692.52
5693.35
5694.05
5694.64
5695.2
5687.3
5689.54
5691.11
5692.3
5693.23
5693.98
5694.61
5695.17
5686.81
5689.41
5691.12
5692.37
5693.35
5694.15
5694.82
5695.42
5687.08
5689.52
5691.16
5692.37
5693.33
5694.11
5694.76
5695.33
5687.87
5689.81
5691.23
5692.35
5693.26
5694
5694.62
5695.19
5689.13
5690.5
5691.65
5692.61
5693.4
5694.06
5694.63
5695.15
5691.54
5691.65
5691.92
5692.31
5692.89
5693.71
5694.84
5696.26
5691.61
5691.56
5691.65
5691.95
5692.47
5693.26
5694.41
5695.94
5692.08
5691.96
5691.85
5692
5692.43
5693.18
5694.32
5695.83
5692.82
5692.74
5692.42
5692.37
5692.7
5693.4
5694.51
5695.99
5692.74
5692.63
5692.4
5692.44
5692.82
5693.55
5694.68
5696.2
5692.47
5692.28
5692.25
5692.48
5692.97
5693.74
5694.87
5696.35
5692.25
5692.22
5692.43
5692.81
5693.38
5694.18
5695.29
5696.67
5679.25
5678.47
5677.64
5676.8
5675.86
5674.45
5672.36
5671.47
5679.94
5678.96
5678.01
5677.11
5676.16
5674.77
5672.61
5671.65
5680.82
5679.62
5678.43
5677.42
5676.43
5674.99
5672.8
5671.99
5681.87
5680.61
5679.13
5677.91
5676.83
5675.35
5673.14
5672.46
5681.68
5680.44
5679.13
5678.07
5677.07
5675.64
5673.46
5672.62
5681.01
5679.96
5678.99
5678.14
5677.25
5675.89
5673.77
5672.78
5680.27
5679.51
5678.81
5678.09
5677.27
5675.95
5673.94
5673.04
5697.29
5697.34
5697.33
5697.24
5697.29
5697.28
5697.26
5696.94
5697.02
5697.05
5697.06
5697.02
5696.98
5696.87
5695.86
5695.95
5695.96
5695.97
5695.96
5695.94
5695.93
5697.66
5697.75
5697.79
5697.82
5697.82
5697.81
5697.77
5676.04
5675.95
5675.91
5675.95
5675.91
5675.87
5675.86
5697.01
5696.77
5696.86
5697.16
5696.8
5696.79
5697.06
5696.4
5696.36
5696.35
5696.55
5696.33
5696.38
5696.41
5695.6
5695.46
5695.44
5695.69
5695.47
5695.53
5695.63
5697.94
5697.63
5697.37
5697.36
5697.42
5697.75
5697.89
5677.59
5677.91
5678.91
5679.4
5678.6
5677.93
5677.72
5697.1
5697.04
5697.31
5697.46
5697.07
5697.08
5697.44
5696.55
5696.61
5696.89
5696.93
5696.77
5696.78
5696.87
5695.69
5695.77
5696
5695.97
5695.77
5695.72
5695.81
5697.84
5697.57
5697.53
5697.19
5697.13
5697.18
5697.54
5677.75
5678.08
5678.3
5679.29
5677.36
5677.05
5676.49
5697.35
5697.07
5697
5697.4
5697.17
5697.04
5697.03
5696.8
5696.69
5696.65
5696.84
5696.73
5696.54
5696.46
5695.87
5695.73
5695.69
5695.95
5695.85
5695.73
5695.69
5697.68
5697.47
5697.32
5697.41
5697.67
5697.8
5698
5676.22
5676.85
5677.92
5678.86
5678.38
5677.74
5677.56
5697.72
5698.21
5698.67
5699.09
5699.45
5699.73
5699.94
5700.08
5697.82
5698.33
5698.78
5699.18
5699.51
5699.77
5699.97
5700.1
5697.77
5698.33
5698.8
5699.18
5699.51
5699.77
5699.96
5700.09
5697.67
5698.23
5698.77
5699.2
5699.51
5699.75
5699.94
5700.07
5697.72
5698.27
5698.74
5699.13
5699.46
5699.72
5699.91
5700.05
5697.75
5698.26
5698.71
5699.1
5699.42
5699.68
5699.88
5700.01
5697.64
5698.12
5698.58
5698.98
5699.32
5699.59
5699.79
5699.93
5697.62
5698.27
5698.76
5699.14
5699.45
5699.69
5699.88
5700.02
5697.7
5698.35
5698.84
5699.22
5699.52
5699.76
5699.94
5700.06
5697.74
5698.39
5698.87
5699.24
5699.54
5699.77
5699.95
5700.07
5697.75
5698.41
5698.9
5699.27
5699.55
5699.77
5699.94
5700.06
5697.71
5698.35
5698.83
5699.2
5699.49
5699.72
5699.9
5700.03
5697.65
5698.29
5698.77
5699.14
5699.44
5699.67
5699.85
5699.97
5697.55
5698.18
5698.66
5699.03
5699.32
5699.56
5699.74
5699.87
5696.75
5697.76
5698.52
5699.07
5699.47
5699.75
5699.94
5700.07
5696.84
5697.85
5698.61
5699.16
5699.55
5699.82
5700.01
5700.13
5696.84
5697.87
5698.63
5699.18
5699.56
5699.83
5700.02
5700.13
5696.83
5697.86
5698.62
5699.17
5699.56
5699.83
5700.01
5700.13
5696.83
5697.85
5698.6
5699.15
5699.53
5699.79
5699.97
5700.09
5696.85
5697.84
5698.57
5699.1
5699.47
5699.74
5699.92
5700.03
5696.86
5697.79
5698.49
5699
5699.36
5699.62
5699.8
5699.92
5699.26
5699.5
5699.65
5699.78
5699.89
5699.99
5700.08
5700.14
5699.36
5699.57
5699.71
5699.84
5699.95
5700.05
5700.14
5700.2
5699.42
5699.61
5699.73
5699.85
5699.96
5700.06
5700.14
5700.21
5699.44
5699.62
5699.74
5699.86
5699.96
5700.06
5700.14
5700.21
5699.42
5699.59
5699.7
5699.82
5699.92
5700.02
5700.1
5700.17
5699.36
5699.52
5699.64
5699.75
5699.86
5699.95
5700.04
5700.1
5699.23
5699.42
5699.53
5699.64
5699.74
5699.83
5699.92
5699.98
5687.34
5693.88
5696.85
5698.37
5699.19
5699.66
5699.94
5700.1
5687.22
5693.83
5696.84
5698.38
5699.22
5699.7
5699.98
5700.14
5687.15
5693.8
5696.82
5698.37
5699.22
5699.7
5699.98
5700.14
5687.14
5693.79
5696.82
5698.37
5699.22
5699.7
5699.98
5700.14
5687.12
5693.77
5696.8
5698.34
5699.19
5699.66
5699.94
5700.1
5687.12
5693.76
5696.78
5698.32
5699.15
5699.62
5699.9
5700.06
5687.17
5693.77
5696.75
5698.27
5699.08
5699.53
5699.8
5699.95
5697.37
5697.87
5698.33
5698.74
5699.07
5699.34
5699.56
5699.71
5697.18
5697.69
5698.16
5698.54
5698.86
5699.12
5699.3
5699.44
5697.2
5697.64
5698.03
5698.36
5698.64
5698.89
5699.06
5699.19
5697.59
5698.06
5698.43
5698.73
5698.95
5699.14
5699.31
5699.44
5697.15
5697.59
5697.99
5698.32
5698.61
5698.86
5699.05
5699.18
5697.2
5697.73
5698.21
5698.6
5698.93
5699.2
5699.39
5699.52
5697.41
5697.89
5698.37
5698.78
5699.13
5699.4
5699.62
5699.77
5697.08
5697.73
5698.21
5698.6
5698.9
5699.15
5699.35
5699.5
5697.09
5697.72
5698.19
5698.54
5698.81
5699.02
5699.19
5699.32
5697.02
5697.65
5698.1
5698.44
5698.7
5698.88
5699.03
5699.13
5697.22
5697.85
5698.3
5698.65
5698.91
5699.1
5699.26
5699.38
5697.02
5697.66
5698.11
5698.45
5698.7
5698.88
5699.02
5699.12
5697.09
5697.76
5698.25
5698.62
5698.9
5699.12
5699.28
5699.41
5697.11
5697.77
5698.27
5698.66
5698.97
5699.23
5699.42
5699.57
5696.51
5697.41
5698.09
5698.58
5698.93
5699.18
5699.37
5699.5
5696.25
5697.19
5697.88
5698.39
5698.75
5698.9
5698.95
5699.27
5696.26
5697.08
5697.69
5698.15
5698.48
5698.74
5698.9
5699.03
5696.5
5697.34
5697.98
5698.47
5698.84
5699.09
5699.27
5699.4
5696.27
5697.09
5697.71
5698.19
5698.5
5698.72
5698.9
5699.01
5696.35
5697.3
5697.99
5698.49
5698.85
5699.11
5699.24
5699.34
5696.54
5697.46
5698.15
5698.65
5699.01
5699.27
5699.46
5699.59
5699.16
5699.2
5699.23
5699.28
5699.35
5699.43
5699.51
5699.58
5699.03
5699.13
5699.17
5699.2
5699.08
5698.85
5698.9
5699.27
5698.91
5699.14
5699.11
5698.98
5699.04
5699.16
5699.18
5699.21
5698.84
5699.19
5699.3
5699.35
5699.39
5699.43
5699.47
5699.51
5698.92
5699.16
5699.2
5699.13
5698.96
5698.95
5699.09
5699.18
5699.15
5699.22
5699.25
5699.29
5699.33
5699.31
5699.22
5699.29
5699.19
5699.28
5699.33
5699.4
5699.47
5699.55
5699.62
5699.69
5688.22
5694.24
5696.91
5698.23
5698.92
5699.3
5699.52
5699.65
5688.42
5694.35
5696.93
5697.93
5698.33
5698.53
5698.73
5699.16
5689.15
5694.85
5697.25
5695.91
5695.59
5696.45
5699.2
5699.28
5689.63
5695.1
5697.32
5698.4
5698.94
5699.14
5699.39
5699.51
5688.95
5694.69
5697.18
5698.34
5697.35
5695.9
5696.82
5699.31
5688.45
5694.35
5696.95
5698.22
5698.74
5698.93
5698.99
5699.21
5688.35
5694.33
5696.99
5698.31
5699.01
5699.39
5699.61
5699.74
5697.43
5697.91
5698.38
5698.79
5699.14
5699.44
5699.67
5699.84
5697.43
5697.93
5698.42
5698.81
5699.09
5699.33
5699.53
5699.68
5697.64
5698.07
5698.48
5698.82
5699.1
5699.31
5699.46
5699.57
5697.87
5698.32
5698.69
5698.99
5699.23
5699.41
5699.55
5699.67
5697.4
5697.85
5698.3
5698.68
5698.99
5699.23
5699.4
5699.53
5697.48
5698.02
5698.54
5698.92
5699.23
5699.47
5699.67
5699.82
5697.8
5698.27
5698.71
5699.09
5699.41
5699.67
5699.88
5700.02
5697.22
5697.87
5698.36
5698.74
5699.06
5699.32
5699.52
5699.67
5697.28
5697.96
5698.42
5698.78
5699.05
5699.27
5699.45
5699.59
5697.51
5698.11
5698.56
5698.89
5699.15
5699.34
5699.47
5699.56
5697.54
5698.13
5698.57
5698.9
5699.15
5699.35
5699.49
5699.6
5697.4
5698.02
5698.48
5698.83
5699.11
5699.29
5699.43
5699.52
5697.45
5698.14
5698.59
5698.94
5699.22
5699.44
5699.61
5699.75
5697.55
5698.2
5698.68
5699.06
5699.36
5699.61
5699.8
5699.93
5696.54
5697.5
5698.22
5698.75
5699.13
5699.4
5699.59
5699.73
5696.56
5697.43
5698.12
5698.64
5699.02
5699.3
5699.49
5699.61
5696.79
5697.62
5698.28
5698.79
5699.19
5699.46
5699.63
5699.72
5696.75
5697.57
5698.2
5698.67
5699
5699.24
5699.42
5699.54
5696.55
5697.39
5698.07
5698.61
5698.99
5699.28
5699.48
5699.61
5696.51
5697.36
5698.14
5698.72
5699.13
5699.43
5699.64
5699.77
5696.64
5697.62
5698.39
5698.96
5699.37
5699.65
5699.86
5699.99
5699.23
5699.35
5699.44
5699.53
5699.61
5699.7
5699.77
5699.84
5699.04
5699.27
5699.39
5699.51
5699.62
5699.69
5699.75
5699.79
5699.14
5699.63
5699.82
5699.94
5699.98
5700
5700.03
5700.06
5698.69
5699.24
5699.5
5699.67
5699.81
5699.87
5699.91
5699.91
5698.78
5699.34
5699.59
5699.7
5699.78
5699.84
5699.89
5699.92
5698.82
5699.31
5699.47
5699.6
5699.73
5699.82
5699.89
5699.93
5699.13
5699.42
5699.59
5699.73
5699.84
5699.94
5700.03
5700.09
5688.39
5694.36
5697.02
5698.36
5699.08
5699.49
5699.73
5699.86
5688.55
5694.4
5697.02
5698.37
5699.13
5699.54
5699.77
5699.9
5688.53
5694.63
5696.75
5698.17
5699.24
5699.66
5699.92
5700.08
5689.24
5694.79
5697.2
5698.54
5699.31
5699.76
5700
5700.1
5688.41
5694.34
5696.77
5698.28
5699.1
5699.57
5699.85
5700
5688.15
5694.11
5696.87
5698.3
5699.09
5699.55
5699.83
5699.98
5687.63
5694
5696.89
5698.36
5699.17
5699.63
5699.91
5700.06
5697.71
5698.16
5698.57
5698.93
5699.23
5699.47
5699.66
5699.79
5697.47
5697.93
5698.35
5698.7
5698.98
5699.2
5699.36
5699.47
5697.34
5697.76
5698.15
5698.49
5698.78
5699
5699.16
5699.28
5697.78
5698.2
5698.55
5698.84
5699.07
5699.26
5699.41
5699.53
5697.52
5697.93
5698.29
5698.6
5698.85
5699.05
5699.2
5699.3
5697.41
5697.87
5698.3
5698.66
5698.96
5699.19
5699.36
5699.48
5697.38
5697.86
5698.32
5698.72
5699.06
5699.34
5699.56
5699.72
5697.45
5698.08
5698.54
5698.89
5699.17
5699.39
5699.57
5699.7
5697.35
5697.96
5698.4
5698.72
5698.97
5699.15
5699.3
5699.41
5697.28
5697.86
5698.28
5698.59
5698.82
5698.99
5699.12
5699.22
5697.47
5698.06
5698.49
5698.8
5699.04
5699.22
5699.36
5699.48
5697.36
5697.94
5698.35
5698.65
5698.86
5699.03
5699.15
5699.25
5697.22
5697.85
5698.3
5698.65
5698.91
5699.12
5699.27
5699.39
5697.13
5697.77
5698.25
5698.63
5698.93
5699.17
5699.37
5699.51
5696.77
5697.66
5698.34
5698.83
5699.18
5699.43
5699.6
5699.72
5696.53
5697.41
5698.07
5698.55
5698.9
5699.13
5699.3
5699.25
5696.46
5697.26
5697.86
5698.31
5698.63
5698.85
5699.02
5699.11
5696.73
5697.54
5698.17
5698.63
5698.95
5699.18
5699.35
5699.47
5696.62
5697.42
5698.03
5698.47
5698.77
5698.97
5699.08
5699.12
5696.52
5697.43
5698.09
5698.57
5698.92
5699.16
5699.33
5699.3
5696.6
5697.49
5698.16
5698.64
5698.99
5699.23
5699.41
5699.54
5699.11
5699.31
5699.42
5699.51
5699.59
5699.66
5699.73
5699.79
5698.98
5699.2
5699.29
5699.35
5699.4
5699.44
5699.38
5698.75
5698.96
5699.26
5699.34
5699.35
5699.3
5699.25
5699.27
5699.23
5698.94
5699.34
5699.47
5699.51
5699.52
5699.53
5699.56
5699.59
5699.24
5699.5
5699.55
5699.53
5699.48
5699.41
5699.36
5699.37
5699.19
5699.3
5699.33
5699.38
5699.42
5699.47
5699.49
5699.22
5699.23
5699.27
5699.3
5699.35
5699.42
5699.49
5699.56
5699.63
5687.4
5693.87
5696.77
5698.23
5699
5699.42
5699.66
5699.79
5687.84
5694.1
5696.87
5698.23
5698.92
5699.27
5698.88
5698.35
5688.57
5694.56
5697.19
5698.41
5698.93
5698.33
5698.1
5699.16
5689.28
5694.86
5697.34
5698.5
5699.16
5699.32
5699.32
5699.46
5688.85
5694.72
5697.3
5698.53
5699.13
5699.2
5697.36
5696.99
5688.35
5694.35
5697
5698.3
5698.97
5699.31
5699.34
5699.16
5688.22
5694.27
5696.95
5698.28
5698.98
5699.35
5699.57
5699.7
5700.15
5700.19
5700.22
5700.23
5700.23
5700.23
5700.23
5700.23
5700.17
5700.21
5700.23
5700.24
5700.25
5700.25
5700.25
5700.25
5700.16
5700.2
5700.22
5700.23
5700.24
5700.24
5700.24
5700.25
5700.14
5700.18
5700.2
5700.22
5700.22
5700.23
5700.23
5700.23
5700.11
5700.15
5700.18
5700.19
5700.2
5700.2
5700.2
5700.21
5700.08
5700.12
5700.14
5700.15
5700.16
5700.16
5700.16
5700.17
5700
5700.04
5700.07
5700.08
5700.08
5700.09
5700.09
5700.09
5700.09
5700.14
5700.17
5700.2
5700.21
5700.22
5700.22
5700.22
5700.13
5700.18
5700.21
5700.23
5700.24
5700.25
5700.25
5700.25
5700.14
5700.18
5700.21
5700.23
5700.24
5700.25
5700.25
5700.25
5700.13
5700.17
5700.2
5700.22
5700.23
5700.24
5700.24
5700.24
5700.09
5700.14
5700.17
5700.19
5700.2
5700.21
5700.21
5700.21
5700.04
5700.09
5700.12
5700.14
5700.16
5700.16
5700.17
5700.17
5699.94
5699.99
5700.02
5700.05
5700.07
5700.08
5700.08
5700.08
5700.13
5700.18
5700.21
5700.24
5700.25
5700.26
5700.27
5700.27
5700.19
5700.23
5700.26
5700.29
5700.3
5700.31
5700.31
5700.31
5700.2
5700.24
5700.27
5700.29
5700.3
5700.31
5700.31
5700.31
5700.19
5700.23
5700.26
5700.28
5700.3
5700.3
5700.31
5700.31
5700.16
5700.2
5700.23
5700.25
5700.26
5700.27
5700.27
5700.27
5700.1
5700.14
5700.17
5700.2
5700.21
5700.22
5700.22
5700.22
5699.99
5700.03
5700.07
5700.09
5700.11
5700.12
5700.13
5700.13
5700.19
5700.22
5700.24
5700.26
5700.27
5700.28
5700.28
5700.28
5700.24
5700.27
5700.3
5700.31
5700.33
5700.33
5700.34
5700.33
5700.25
5700.28
5700.3
5700.32
5700.33
5700.34
5700.34
5700.34
5700.25
5700.28
5700.3
5700.32
5700.33
5700.34
5700.34
5700.34
5700.21
5700.24
5700.26
5700.28
5700.29
5700.3
5700.3
5700.3
5700.15
5700.18
5700.21
5700.23
5700.24
5700.25
5700.25
5700.25
5700.03
5700.07
5700.09
5700.11
5700.13
5700.14
5700.14
5700.14
5700.17
5700.22
5700.26
5700.28
5700.3
5700.31
5700.31
5700.31
5700.22
5700.27
5700.3
5700.33
5700.35
5700.36
5700.36
5700.36
5700.22
5700.27
5700.31
5700.33
5700.35
5700.36
5700.36
5700.36
5700.22
5700.27
5700.31
5700.33
5700.35
5700.36
5700.36
5700.36
5700.18
5700.23
5700.27
5700.3
5700.31
5700.32
5700.33
5700.33
5700.14
5700.19
5700.22
5700.25
5700.27
5700.28
5700.28
5700.28
5700.03
5700.07
5700.11
5700.14
5700.16
5700.17
5700.18
5700.18
5699.8
5699.85
5699.88
5699.89
5699.89
5699.88
5699.87
5699.87
5699.52
5699.57
5699.6
5699.62
5699.63
5699.64
5699.64
5699.63
5699.26
5699.31
5699.34
5699.37
5699.4
5699.42
5699.43
5699.44
5699.52
5699.57
5699.62
5699.66
5699.68
5699.7
5699.7
5699.72
5699.26
5699.31
5699.35
5699.38
5699.41
5699.43
5699.45
5699.45
5699.6
5699.65
5699.68
5699.7
5699.7
5699.71
5699.71
5699.7
5699.86
5699.91
5699.94
5699.95
5699.95
5699.94
5699.94
5699.93
5699.59
5699.64
5699.69
5699.72
5699.74
5699.76
5699.76
5699.76
5699.42
5699.48
5699.52
5699.56
5699.58
5699.6
5699.56
5699.53
5699.2
5699.24
5699.28
5699.31
5699.33
5699.36
5699.36
5699.29
5699.46
5699.51
5699.55
5699.58
5699.61
5699.63
5699.64
5699.63
5699.19
5699.23
5699.27
5699.3
5699.33
5699.36
5699.36
5699.3
5699.49
5699.55
5699.59
5699.62
5699.65
5699.66
5699.64
5699.61
5699.66
5699.72
5699.76
5699.79
5699.82
5699.83
5699.84
5699.84
5699.58
5699.64
5699.68
5699.71
5699.74
5699.75
5699.76
5699.76
5699.46
5699.52
5699.56
5699.6
5699.63
5699.66
5699.68
5699.68
5699.15
5699.2
5699.24
5699.26
5699.29
5699.31
5699.28
5699.16
5699.46
5699.5
5699.55
5699.59
5699.61
5699.64
5699.64
5699.57
5699.08
5699.14
5699.2
5699.26
5699.29
5699.31
5699.3
5699.17
5699.52
5699.58
5699.63
5699.66
5699.69
5699.71
5699.73
5699.74
5699.67
5699.72
5699.76
5699.79
5699.81
5699.83
5699.84
5699.84
5699.63
5699.67
5699.71
5699.73
5699.75
5699.77
5699.77
5699.77
5699.54
5699.57
5699.6
5699.63
5699.65
5699.67
5699.68
5699.68
5699.31
5699.34
5699.36
5699.38
5699.38
5699.39
5699.34
5699.17
5699.53
5699.54
5699.57
5699.61
5699.63
5699.64
5699.64
5699.54
5699.24
5699.29
5699.33
5699.36
5699.38
5699.39
5699.37
5699.29
5699.58
5699.62
5699.65
5699.67
5699.69
5699.71
5699.72
5699.73
5699.73
5699.77
5699.8
5699.82
5699.84
5699.85
5699.85
5699.85
5699.72
5699.77
5699.8
5699.83
5699.85
5699.86
5699.86
5699.87
5699.58
5699.61
5699.65
5699.69
5699.71
5699.69
5699.68
5699.72
5699.36
5699.44
5699.44
5699.49
5699.59
5699.59
5699.58
5699.54
5699.55
5699.55
5699.59
5699.62
5699.67
5699.68
5699.68
5699.64
5698.78
5698.7
5698.78
5699.53
5699.56
5699.56
5699.56
5699.56
5699.61
5699.65
5699.69
5699.72
5699.73
5699.73
5699.74
5699.75
5699.81
5699.85
5699.89
5699.91
5699.93
5699.94
5699.95
5699.95
5699.93
5699.98
5700.01
5700.03
5700.03
5700.03
5700.02
5700.02
5699.77
5699.82
5699.86
5699.89
5699.9
5699.91
5699.91
5699.92
5699.62
5699.66
5699.68
5699.7
5699.72
5699.73
5699.75
5699.77
5699.74
5699.79
5699.84
5699.87
5699.89
5699.91
5699.93
5699.95
5699.6
5699.64
5699.68
5699.71
5699.73
5699.75
5699.76
5699.79
5699.9
5699.95
5699.99
5700.01
5700.03
5700.03
5700.04
5700.04
5700.1
5700.15
5700.17
5700.19
5700.19
5700.19
5700.19
5700.19
5699.76
5699.82
5699.86
5699.89
5699.91
5699.93
5699.93
5699.93
5699.67
5699.71
5699.74
5699.81
5699.83
5699.85
5699.86
5699.86
5699.6
5699.63
5699.64
5699.67
5699.68
5699.7
5699.71
5699.72
5699.67
5699.71
5699.74
5699.76
5699.79
5699.82
5699.83
5699.86
5699.56
5699.59
5699.61
5699.63
5699.65
5699.68
5699.69
5699.71
5699.82
5699.86
5699.91
5699.95
5699.98
5699.99
5700
5700.01
5700.01
5700.06
5700.1
5700.13
5700.15
5700.16
5700.16
5700.16
5699.8
5699.86
5699.89
5699.92
5699.95
5699.96
5699.97
5699.97
5699.68
5699.68
5699.64
5699.77
5699.82
5699.83
5699.85
5699.85
5699.71
5699.66
5699.63
5699.56
5699.45
5699.61
5699.73
5699.74
5699.61
5699.65
5699.68
5699.69
5699.72
5699.74
5699.78
5699.8
5699.66
5699.63
5699.58
5699.5
5699.41
5699.48
5699.69
5699.7
5699.84
5699.86
5699.86
5699.94
5699.97
5699.99
5700
5700
5700.06
5700.11
5700.15
5700.17
5700.19
5700.2
5700.21
5700.21
5699.89
5699.92
5699.95
5699.97
5699.98
5699.99
5700
5700
5699.78
5699.77
5699.79
5699.78
5699.82
5699.83
5699.84
5699.84
5699.7
5699.56
5699.58
5699.59
5699.59
5699.59
5699.58
5699.57
5699.9
5699.89
5699.87
5699.8
5699.69
5699.83
5699.83
5699.83
5699.92
5699.58
5699.5
5699.52
5699.52
5699.53
5699.64
5699.76
5699.96
5699.96
5699.95
5699.95
5699.99
5700.02
5700.02
5700.02
5700.14
5700.17
5700.2
5700.22
5700.23
5700.24
5700.24
5700.24
5699.94
5699.98
5700.01
5700.04
5700.05
5700.06
5700.07
5700.07
5699.96
5699.99
5700.01
5700.02
5700.02
5700.02
5700.02
5700.02
5700.18
5700.16
5700.14
5700.26
5700.35
5700.27
5700.1
5700
5700.07
5700.04
5700.01
5700
5699.77
5699.49
5699.46
5699.25
5700.07
5700.13
5700.09
5699.87
5699.85
5700.14
5700.05
5699.93
5700.05
5700.09
5700.11
5700.11
5700.11
5700.14
5700.14
5700.14
5700.14
5700.19
5700.23
5700.25
5700.27
5700.28
5700.29
5700.28
5699.87
5699.91
5699.94
5699.95
5699.96
5699.96
5699.97
5699.97
5699.55
5699.6
5699.63
5699.66
5699.68
5699.69
5699.7
5699.71
5699.35
5699.4
5699.44
5699.47
5699.5
5699.52
5699.53
5699.55
5699.6
5699.66
5699.7
5699.73
5699.76
5699.78
5699.79
5699.81
5699.37
5699.41
5699.44
5699.47
5699.49
5699.51
5699.52
5699.53
5699.56
5699.6
5699.64
5699.67
5699.68
5699.69
5699.69
5699.69
5699.8
5699.85
5699.88
5699.89
5699.89
5699.89
5699.88
5699.88
5699.78
5699.83
5699.87
5699.9
5699.92
5699.93
5699.94
5699.94
5699.47
5699.53
5699.6
5699.63
5699.66
5699.68
5699.69
5699.69
5699.29
5699.33
5699.37
5699.4
5699.43
5699.46
5699.45
5699.45
5699.55
5699.6
5699.64
5699.67
5699.7
5699.72
5699.73
5699.71
5699.31
5699.34
5699.38
5699.42
5699.44
5699.46
5699.46
5699.43
5699.39
5699.43
5699.58
5699.62
5699.64
5699.66
5699.66
5699.66
5699.6
5699.66
5699.7
5699.74
5699.76
5699.77
5699.78
5699.78
5699.8
5699.85
5699.89
5699.92
5699.94
5699.95
5699.96
5699.97
5699.09
5699.55
5699.62
5699.66
5699.69
5699.71
5699.73
5699.74
5699.02
5699.19
5699.31
5699.34
5699.36
5699.38
5699.34
5699.32
5699.55
5699.59
5699.63
5699.67
5699.7
5699.71
5699.72
5699.67
5699.11
5699.24
5699.33
5699.39
5699.41
5699.43
5699.43
5699.4
5699.25
5699.37
5699.64
5699.67
5699.7
5699.72
5699.72
5699.72
5699.62
5699.67
5699.71
5699.74
5699.76
5699.78
5699.79
5699.79
5699.84
5699.88
5699.91
5699.94
5699.96
5699.97
5699.98
5699.98
5698.94
5699.55
5699.66
5699.69
5699.71
5699.71
5699.71
5699.72
5699.04
5699.17
5699.37
5699.38
5699.4
5699.4
5699.37
5699.33
5699.63
5699.63
5699.63
5699.69
5699.7
5699.71
5699.71
5699.66
5699.38
5699.38
5699.41
5699.47
5699.5
5699.5
5699.5
5699.5
5699.22
5699.46
5699.69
5699.71
5699.73
5699.73
5699.71
5699.71
5699.68
5699.71
5699.74
5699.77
5699.78
5699.8
5699.8
5699.8
5699.87
5699.92
5699.96
5699.99
5700.01
5700.03
5700.03
5700.04
5698.7
5699.55