/*--------------------------------*- C++ -*----------------------------------*\
| =========                 |                                                 |
| \\      /  F ield         | OpenFOAM: The Open Source CFD Toolbox           |
|  \\    /   O peration     | Version:  plus.master.MPPICInterFoam            |
|   \\  /    A nd           | Web:      www.OpenFOAM.com                      |
|    \\/     M anipulation  |                                                 |
\*---------------------------------------------------------------------------*/
FoamFile
{
    version     2.0;
    format      ascii;
    class       vectorField;
    location    "4.6/lagrangian/kinematicCloud";
    object      UCorrect;
}
// * * * * * * * * * * * * * * * * * * * * * * * * * * * * * * * * * * * * * //


38
(
(6.47144e-20 -2.4276e-19 2.19144e-19)
(3.81988e-19 6.91151e-20 4.28015e-22)
(9.90417e-19 4.43029e-19 3.87651e-19)
(-4.82097e-21 -1.45679e-19 -7.70349e-19)
(-1.00564e-18 -9.65324e-20 4.83427e-35)
(-5.89482e-20 -4.89715e-19 -4.38287e-19)
(-1.07981e-19 1.51208e-18 2.0763e-22)
(5.05435e-19 -5.62318e-20 3.06405e-37)
(3.78014e-19 3.03185e-18 -2.19144e-19)
(-5.72923e-19 3.95241e-19 4.18472e-20)
(2.82572e-19 1.44606e-18 -4.1526e-22)
(-3.26703e-18 -7.14252e-19 2.83294e-37)
(-4.82097e-21 9.66203e-19 4.9851e-35)
(6.8053e-19 -4.60342e-19 2.12613e-19)
(-9.65476e-19 7.12805e-19 -5.78778e-35)
(-4.44498e-19 4.83002e-19 1.21941e-18)
(3.20749e-17 -4.39774e-18 1.58397e-16)
(5.50065e-19 2.50038e-19 2.12613e-19)
(-1.02689e-15 -5.27436e-16 6.72687e-15)
(2.48844e-19 -2.04035e-18 -2.19144e-19)
(9.931e-12 -1.34875e-12 4.60604e-13)
(2.45412e-10 -3.30492e-10 2.7653e-07)
(1.4011e-19 5.27951e-20 -2.12613e-19)
(-5.33987e-10 -2.51763e-10 4.59259e-07)
(5.04774e-19 2.9563e-20 4.83524e-38)
(-2.81497e-16 1.34134e-16 -4.60202e-18)
(-1.849e-05 6.32157e-10 5.31067e-07)
(5.04286e-19 3.46539e-20 -1.16094e-34)
(-1.849e-05 6.32157e-10 1.75218e-07)
(4.43321e-05 -0.000679077 -0.000173845)
(-3.59549e-19 -2.99341e-19 1.97229e-18)
(6.21031e-16 -9.99617e-17 -2.07309e-18)
(-9.23804e-18 1.22043e-19 2.12613e-19)
(2.73488e-05 0.000502173 -0.000173845)
(6.27528e-19 1.99315e-18 2.19144e-19)
(-1.03807e-18 9.97899e-20 -3.23049e-37)
(3.61093e-15 -1.22723e-15 -3.20649e-12)
(-2.18177e-14 5.17944e-14 -1.90312e-10)
)


// ************************************************************************* //
