/*--------------------------------*- C++ -*----------------------------------*\
| =========                 |                                                 |
| \\      /  F ield         | OpenFOAM: The Open Source CFD Toolbox           |
|  \\    /   O peration     | Version:  plus.master.MPPICInterFoam            |
|   \\  /    A nd           | Web:      www.OpenFOAM.com                      |
|    \\/     M anipulation  |                                                 |
\*---------------------------------------------------------------------------*/
FoamFile
{
    version     2.0;
    format      ascii;
    class       volScalarField;
    location    "5.4";
    object      epsilon;
}
// * * * * * * * * * * * * * * * * * * * * * * * * * * * * * * * * * * * * * //

dimensions      [0 2 -3 0 0 0 0];

internalField   nonuniform List<scalar> 
11821
(
0.000226888
0.000724767
0.00536842
0.0121224
0.00413521
0.0005378
0.000177208
0.000687652
0.0202465
0.155561
0.308675
0.133865
0.0180414
0.000585538
0.00495283
0.151019
0.226796
1.04633
0.206679
0.151558
0.00520841
0.0100443
0.279799
1.22141
1.01228
0.922815
0.314685
0.0115326
0.00383104
0.135421
0.224585
0.951496
0.187433
0.128057
0.00378986
0.000551977
0.0188831
0.165297
0.326275
0.12605
0.0142761
0.000410575
0.000213593
0.000710607
0.00594467
0.0123032
0.00371552
0.000427238
0.000159296
0.00222836
0.0130519
0.065856
0.143008
0.0546051
0.00931226
0.0016023
0.0130893
0.101006
0.434419
1.04455
0.391796
0.0749102
0.00859237
0.0678958
0.452203
1.19748
6.07556
1.1656
0.360817
0.0434346
0.142584
1.11009
5.57729
4.23369
5.84774
1.00316
0.0894084
0.0536023
0.411075
1.1834
5.57657
1.16277
0.298723
0.0304547
0.0096083
0.0817238
0.398246
1.07491
0.314775
0.0501919
0.00545985
0.00185254
0.00986643
0.0510929
0.105668
0.0344504
0.00583572
0.00127916
0.00836404
0.0411403
0.16559
0.323428
0.125128
0.0249563
0.0057597
0.0407687
0.259212
0.90296
2.05465
0.708839
0.144778
0.0205968
0.172331
0.969467
2.80935
8.40252
2.51973
0.511869
0.0690869
0.342069
2.30816
7.92437
6.12115
9.55871
1.21079
0.120737
0.126723
0.799815
2.7793
8.98714
2.27286
0.383503
0.0472849
0.0252168
0.164007
0.619073
1.50327
0.428986
0.0772274
0.0125115
0.00636765
0.0233601
0.0867376
0.162502
0.0570405
0.013473
0.00460447
0.0188978
0.0676511
0.248096
0.455743
0.180895
0.0421808
0.0141477
0.0650789
0.386601
1.26022
2.52031
0.899433
0.194556
0.0339104
0.242302
1.3354
3.60646
6.98128
3.0417
0.578304
0.0876156
0.456581
2.85799
6.80389
6.41141
8.79784
1.07521
0.132331
0.168864
0.994948
3.37819
8.20039
2.29644
0.409359
0.0619491
0.0397483
0.209544
0.694229
1.33642
0.459161
0.097999
0.0228088
0.0149258
0.0363279
0.107248
0.178199
0.0745276
0.0243298
0.012107
0.022583
0.0691818
0.259809
0.485061
0.191698
0.0475116
0.018493
0.0642389
0.390175
1.35943
2.60504
0.956152
0.204284
0.0385425
0.228635
1.36927
3.57552
5.07661
3.07094
0.594089
0.0920591
0.446891
2.89025
5.22174
5.70743
6.70561
0.956031
0.131376
0.156923
0.977519
3.25736
6.15123
1.98734
0.396114
0.0662406
0.0407272
0.196457
0.664299
1.08233
0.434614
0.101787
0.0274155
0.0185349
0.0382476
0.104483
0.165542
0.0777372
0.0290547
0.0162078
0.000138642
0.000134095
0.000131287
0.000127184
0.000122584
0.000118742
0.000115865
0.000113227
0.000206786
0.000148574
0.000135515
0.000128149
0.000122062
0.000116752
0.000112609
0.000109168
0.000828976
0.000227158
0.000143314
0.000128072
0.000120929
0.00011593
0.000111784
0.000107405
0.0017066
0.000325918
0.00015245
0.000126784
0.000118085
0.000112241
0.000107507
0.000102436
0.000614378
0.000198454
0.000140829
0.000128343
0.000121051
0.000115509
0.000110857
0.000106054
0.000163534
0.00014008
0.000135781
0.00012779
0.000121203
0.000115478
0.000110571
0.000106166
0.000133467
0.0001348
0.000132818
0.000126943
0.000121622
0.000116991
0.000112991
0.000109997
0.000664413
0.00047535
0.000396981
0.00034203
0.000298691
0.000263749
0.000235448
0.000212149
0.00138024
0.000589023
0.000426072
0.00035266
0.000303165
0.000265054
0.00023469
0.00020989
0.0039486
0.000855177
0.00047915
0.000372571
0.000314247
0.000271652
0.00023769
0.000210148
0.00626433
0.00102452
0.000508755
0.000383981
0.000321531
0.00027689
0.000241529
0.000212546
0.00286832
0.000770788
0.000474289
0.00037556
0.000317858
0.000274514
0.000239846
0.000211541
0.00103622
0.000558575
0.000432478
0.000363412
0.00031309
0.000273187
0.000240841
0.000214216
0.000616359
0.000483824
0.000413107
0.000358748
0.000314334
0.000277766
0.000247646
0.00022258
0.00286123
0.00224023
0.00193791
0.00167996
0.00142516
0.00117383
0.000937988
0.000732609
0.0047721
0.00262442
0.00205964
0.00174409
0.00147155
0.00120784
0.000958184
0.000738503
0.00960101
0.00331743
0.00222715
0.00181772
0.00152282
0.00124699
0.000983797
0.000749478
0.0130472
0.00369926
0.00231555
0.00185806
0.00155116
0.00126873
0.00099868
0.000757033
0.00753664
0.00311704
0.00222489
0.00184065
0.00154692
0.0012677
0.000999937
0.000760662
0.00394899
0.00256826
0.00210809
0.00180545
0.00152814
0.00125495
0.000994105
0.000763043
0.00277766
0.00231069
0.00203093
0.0017706
0.00150564
0.00124124
0.00099153
0.000772871
0.0089076
0.00745223
0.00648908
0.00563668
0.00489914
0.0043043
0.00382527
0.00334822
0.0120298
0.00830299
0.00688781
0.0058908
0.00506069
0.00439757
0.00388162
0.00339023
0.0185172
0.00946604
0.00724882
0.00608345
0.00518549
0.00447664
0.00393564
0.00343669
0.0224363
0.0100245
0.00741115
0.00617324
0.00524822
0.00452031
0.00396784
0.00346506
0.0158046
0.00914064
0.0072292
0.00610998
0.00521952
0.00451295
0.00397472
0.00347939
0.0108125
0.00819962
0.0069496
0.00597573
0.00514675
0.00448317
0.00396881
0.00348022
0.00880153
0.00759088
0.0066637
0.00581343
0.00507237
0.0044745
0.00399354
0.00351244
0.013037
0.011795
0.0112013
0.0106626
0.00992019
0.00870924
0.00689773
0.00483081
0.0161001
0.012311
0.0111224
0.010417
0.00969457
0.00862334
0.00696302
0.00494756
0.0227227
0.0133567
0.0112467
0.0103632
0.00965758
0.0086873
0.00712253
0.00512129
0.0267228
0.0139289
0.011347
0.0103766
0.00967098
0.00873496
0.00720472
0.00520782
0.0200185
0.0129805
0.0111585
0.0103135
0.00961789
0.00866054
0.00711431
0.00513319
0.0147725
0.0120526
0.0109928
0.0102888
0.00956429
0.00851009
0.00688852
0.00492504
0.0127397
0.0116594
0.0110204
0.0104142
0.00962316
0.00840716
0.00664825
0.00467791
0.000168945
0.000166012
0.00016108
0.000155477
0.000150525
0.00014679
0.000143184
0.000140353
0.000209299
0.000167206
0.000157337
0.00015053
0.00014644
0.000143836
0.000138603
0.000137048
0.00061861
0.000224876
0.000171139
0.000160533
0.000152805
0.000143939
0.000138087
0.00013356
0.00142259
0.000326279
0.000186843
0.000163866
0.000155805
0.000147952
0.000141457
0.000135595
0.000822983
0.000268059
0.000183644
0.000164145
0.000159259
0.000152465
0.000144495
0.000139506
0.000241977
0.000181038
0.000166508
0.000158663
0.000155192
0.000153936
0.000149875
0.000144533
0.000173524
0.000171986
0.00016781
0.000162547
0.000158658
0.000155391
0.00015169
0.00014931
0.000778685
0.00060156
0.000513916
0.000444836
0.000387732
0.000340514
0.000302022
0.000270592
0.00155295
0.000766609
0.000592432
0.00050074
0.000432277
0.000375348
0.000327817
0.000289169
0.00509283
0.0011727
0.000700415
0.000563946
0.000485323
0.000424927
0.00037403
0.000330515
0.0123528
0.00168717
0.000767757
0.000585522
0.000502225
0.000443013
0.000394016
0.000351893
0.00679453
0.00133379
0.000728668
0.000577766
0.000498618
0.000438365
0.000387954
0.000344435
0.00197104
0.000829456
0.000612543
0.000512918
0.000442621
0.000385422
0.000338014
0.000298898
0.000831146
0.000611363
0.000518247
0.000446853
0.000388237
0.000339908
0.000300695
0.00026887
0.0033018
0.00272722
0.00241267
0.00211251
0.00179902
0.00148001
0.00117495
0.000906538
0.00550922
0.00319155
0.00261674
0.00226746
0.00194105
0.00160739
0.00127793
0.000978193
0.0150368
0.00434319
0.00286356
0.0023846
0.00204758
0.00171841
0.00138476
0.00106817
0.0360162
0.00606255
0.00305554
0.00240179
0.00204524
0.00172291
0.00140059
0.00109229
0.0202974
0.00483933
0.00291083
0.0023746
0.00203142
0.00170521
0.00137607
0.00106423
0.00709825
0.00336503
0.00262006
0.00224522
0.00191781
0.0015885
0.00126467
0.000970326
0.00346646
0.00270302
0.00237154
0.00207234
0.00176398
0.00145205
0.00115516
0.000895478
0.00987581
0.00848182
0.00745999
0.00650515
0.00565685
0.00496106
0.00439528
0.00383359
0.0134684
0.00945619
0.00797234
0.00686984
0.00592054
0.00514911
0.00454811
0.00398435
0.0271011
0.0114057
0.00843362
0.00707045
0.00603801
0.00522139
0.00460934
0.00406953
0.0561486
0.0142847
0.00882793
0.00713059
0.00603484
0.00520306
0.00459759
0.00408733
0.0350271
0.0122927
0.0085522
0.00707679
0.00602409
0.00520293
0.00458917
0.00404793
0.016223
0.00984891
0.00803507
0.00686919
0.00589925
0.00511488
0.00450224
0.00392701
0.0102949
0.00850896
0.0074254
0.00644599
0.00557762
0.00486317
0.00428141
0.0037091
0.0137781
0.0125822
0.011869
0.0111694
0.0102563
0.00887574
0.00690624
0.00472073
0.0170511
0.0133215
0.0121071
0.0113242
0.0105088
0.00931039
0.00745137
0.00518747
0.0293815
0.0151026
0.0124511
0.0114495
0.0106745
0.00960199
0.00783185
0.00554345
0.0563155
0.0178946
0.0128873
0.0116028
0.010864
0.00992732
0.00830265
0.00609098
0.036382
0.0159606
0.0126416
0.0115492
0.0107573
0.00967236
0.00788329
0.00557175
0.0196523
0.0138509
0.0123679
0.0115492
0.0107194
0.00948989
0.00757599
0.00524409
0.0144064
0.0129196
0.0122238
0.0115754
0.0106957
0.0092992
0.00724405
0.00492306
0.000171852
0.00016851
0.000164526
0.000159112
0.000154333
0.000150112
0.000145096
0.000140939
0.000247646
0.000175665
0.000159003
0.000148731
0.000140688
0.000135828
0.000130937
0.00012498
0.000931676
0.000281815
0.000181506
0.000161767
0.000146566
0.00013053
0.000120669
0.000112841
0.00187705
0.000390896
0.000183019
0.000146579
0.000135343
0.000126189
0.000117883
0.000110217
0.000697327
0.00022179
0.000153847
0.00014081
0.000131172
0.000119804
0.000111141
0.000104226
0.000191515
0.000144824
0.000135239
0.000129011
0.000122034
0.000117614
0.000115132
0.000110804
0.000138417
0.000136609
0.000135583
0.000132529
0.00012869
0.000125177
0.000121901
0.000117846
0.000857595
0.000638978
0.000539163
0.000459879
0.000393716
0.00033897
0.000294598
0.000258904
0.00204917
0.000928422
0.000697
0.000577382
0.000486079
0.000409149
0.000343636
0.000289093
0.00742357
0.00163286
0.000915284
0.000712834
0.000595048
0.000504504
0.000427007
0.00036009
0.0147608
0.00217013
0.000965087
0.000719991
0.00060397
0.000518006
0.000445367
0.00038259
0.00575329
0.00133554
0.000787745
0.000623333
0.000523214
0.000443187
0.000374855
0.000316256
0.00151684
0.000744119
0.000574471
0.000479958
0.000406295
0.000344774
0.00029236
0.000248942
0.000686558
0.000519995
0.000438074
0.000374275
0.000322181
0.000279863
0.000245887
0.000218439
0.00345627
0.00271222
0.00239008
0.00209586
0.00178949
0.00147518
0.00117053
0.000898397
0.00721157
0.00342735
0.00268087
0.00230595
0.00197824
0.00164594
0.00131089
0.000993913
0.0214698
0.00518121
0.00306214
0.00247946
0.00212098
0.00178706
0.00144673
0.00111356
0.0398665
0.00676651
0.00320409
0.00245914
0.0020825
0.00175763
0.00143342
0.00111592
0.0164365
0.00445027
0.00278976
0.00228733
0.00195792
0.00164466
0.00132492
0.00101343
0.00533941
0.0029057
0.00234209
0.00202093
0.00173026
0.00143472
0.00113947
0.000863973
0.00288285
0.00231618
0.00203098
0.00177318
0.00151073
0.00124573
0.000991796
0.000766616
0.0102702
0.00850484
0.00742812
0.00644204
0.00556066
0.00483375
0.00424737
0.00368668
0.0166525
0.00986787
0.00800637
0.00679832
0.00575576
0.00488671
0.00420569
0.00361238
0.0387077
0.0129016
0.00871641
0.00714487
0.0059879
0.00500608
0.0042068
0.00350544
0.0659177
0.0156991
0.00905904
0.00720706
0.0060332
0.00506012
0.00426485
0.00356249
0.0308497
0.0116776
0.00823798
0.00680589
0.00571181
0.00478062
0.00402482
0.00335848
0.0134028
0.00884235
0.00731879
0.00622734
0.00527012
0.00447394
0.00385288
0.00330975
0.00898655
0.00759143
0.00663461
0.00575875
0.00498779
0.00436109
0.00385871
0.0033715
0.014484
0.0130399
0.0124227
0.0118789
0.011125
0.00985951
0.00788319
0.00552581
0.0206362
0.0141545
0.0127177
0.0121339
0.0116746
0.010831
0.00917231
0.00686615
0.0433494
0.0171815
0.0130358
0.0118807
0.0112619
0.0105212
0.00915295
0.0072161
0.0720966
0.0202354
0.0132716
0.0116945
0.0110294
0.0104047
0.00927261
0.00760072
0.0362192
0.0160322
0.0125267
0.0114677
0.0108681
0.0101386
0.00881187
0.00694884
0.0178323
0.0131316
0.0119335
0.0113919
0.0109328
0.0101189
0.00859559
0.00650859
0.013216
0.0120586
0.0115283
0.0110574
0.0103938
0.00926403
0.00748805
0.00535887
0.00014094
0.000142058
0.000140501
0.000135389
0.000130692
0.000126612
0.000122727
0.000118367
0.000191196
0.000157897
0.000146984
0.000138768
0.000131992
0.000127789
0.000124058
0.000119322
0.000683858
0.000243714
0.000169298
0.000153579
0.000144285
0.000135992
0.000128432
0.000121632
0.00191004
0.000406526
0.000201934
0.000169249
0.000156342
0.000145509
0.000135136
0.000126218
0.00108981
0.000325567
0.000198834
0.000172497
0.000158449
0.000147389
0.000138023
0.000129267
0.000274429
0.00019457
0.000167377
0.000156958
0.000147446
0.000141961
0.00013853
0.000132945
0.000172651
0.000168293
0.000161763
0.000155181
0.000149674
0.000145211
0.000141201
0.000138094
0.000666683
0.000527376
0.000451641
0.000391865
0.000342402
0.000301612
0.000268063
0.000240293
0.00124938
0.000714843
0.000567506
0.000481796
0.000415478
0.000360109
0.00031318
0.000273865
0.00371359
0.00112612
0.000734226
0.000597334
0.000510864
0.000441153
0.000381625
0.000330207
0.00873596
0.00164138
0.000870694
0.000675602
0.000573994
0.000497683
0.000433961
0.000378828
0.0055412
0.00139773
0.000829938
0.000658272
0.000559399
0.000482677
0.000417632
0.000361682
0.00175227
0.000865336
0.000659135
0.000551271
0.000470448
0.000404232
0.000348397
0.000302119
0.000804382
0.000618776
0.000529226
0.000458185
0.000398502
0.000348683
0.000307627
0.00027392
0.00288703
0.00242465
0.00215002
0.0018901
0.00161846
0.0013403
0.001072
0.000833549
0.0043872
0.00292008
0.00245279
0.0021479
0.00185679
0.0015523
0.00124364
0.000955216
0.00929417
0.0038575
0.00280614
0.00238917
0.00207677
0.00176263
0.00143282
0.00110728
0.0181107
0.0049215
0.00305868
0.00250588
0.00216441
0.00184612
0.00151759
0.00119056
0.0124208
0.00435609
0.00298974
0.00251024
0.00217503
0.00184627
0.00150317
0.00116369
0.00562626
0.00330687
0.00270105
0.00234936
0.00202536
0.00168914
0.00134895
0.00103132
0.00334179
0.00274645
0.00243449
0.00214056
0.00183033
0.00151022
0.00120004
0.000923929
0.00900688
0.00783465
0.00692073
0.00607016
0.00531751
0.00470201
0.004201
0.00369616
0.0116018
0.00888633
0.00763173
0.00664991
0.00579282
0.00509282
0.00454904
0.00403552
0.0184857
0.0104049
0.00822546
0.00700498
0.00601907
0.0052147
0.00460642
0.00408583
0.028942
0.0118925
0.00858805
0.00715234
0.00609098
0.00523791
0.00459613
0.00406047
0.0220292
0.0110751
0.00851163
0.00719745
0.00616062
0.00531851
0.00468202
0.00414098
0.0133869
0.00956867
0.0080996
0.00701979
0.00608539
0.00532157
0.00472923
0.00417923
0.00994363
0.00853482
0.00751661
0.0065692
0.00572401
0.0050279
0.00446076
0.00389803
0.0130107
0.0119814
0.0113647
0.0107653
0.00996254
0.00871611
0.00690135
0.0048441
0.0157839
0.0130034
0.0120254
0.0114461
0.0108287
0.00979119
0.00801529
0.00573198
0.0229948
0.0145849
0.012568
0.0118194
0.0113339
0.0105608
0.00899441
0.00675645
0.0327578
0.0160618
0.0128978
0.0119606
0.0115437
0.0110157
0.00977018
0.0078033
0.0257469
0.0151537
0.0128574
0.0120327
0.0114844
0.010676
0.00910322
0.00684618
0.0172177
0.0136425
0.0125183
0.0118703
0.0111929
0.0100864
0.00821463
0.00581764
0.0139095
0.0127091
0.0120136
0.011338
0.0104449
0.00907505
0.00709638
0.00487502
0.000110323
0.000106198
0.00010326
9.7563e-05
0.000101825
0.00010303
0.000107205
0.000192542
0.000189361
0.000187606
0.000188593
0.00018825
0.000192066
0.000201169
0.000570528
0.000565571
0.000564675
0.000566101
0.000571315
0.000580237
0.00059933
0.00269404
0.00269024
0.00270905
0.00272761
0.00275339
0.00277928
0.00284409
0.00272971
0.00267651
0.00269417
0.00271667
0.00271953
0.00270568
0.00269351
0.000137698
0.000137458
0.000129882
0.000130172
0.000135264
0.000141197
0.000147369
0.000244361
0.00025698
0.000293732
0.000315669
0.000306992
0.000266766
0.000242569
0.000693982
0.000736866
0.000804711
0.000833288
0.00080437
0.000733068
0.000691646
0.00307069
0.00318459
0.00328716
0.00335201
0.0032642
0.00311873
0.00294697
0.00257778
0.00268264
0.00282484
0.00327022
0.00282546
0.00267072
0.00262997
0.00013739
0.000119153
0.000106167
0.000103349
9.82372e-05
0.000105885
0.000113702
0.000229913
0.000244987
0.000304866
0.000330937
0.000267989
0.000213814
0.000195897
0.000679376
0.000726972
0.000826293
0.00084189
0.000746185
0.000633675
0.000585892
0.00295706
0.00288808
0.00267663
0.00271706
0.0025595
0.00263538
0.00272121
0.0030433
0.00393809
0.00450493
0.00501135
0.00433006
0.00382048
0.00306749
0.000113966
0.00011512
0.000115831
0.000118711
0.000121839
0.000128355
0.000135305
0.000216673
0.000240756
0.000286897
0.000332417
0.000314524
0.000263983
0.000245703
0.000642076
0.000716424
0.000825701
0.000904561
0.000868582
0.00076895
0.000702733
0.00299242
0.00327931
0.00336323
0.00333818
0.00340359
0.00338898
0.0031318
0.00275258
0.0030738
0.00380906
0.00488985
0.00385554
0.00305782
0.00266916
0.000107658
0.000105174
0.000100974
9.40234e-05
8.51853e-05
7.56524e-05
6.60585e-05
5.65188e-05
0.000104287
0.000100185
9.48683e-05
8.80734e-05
7.96891e-05
7.06466e-05
6.15373e-05
5.25205e-05
0.000101093
9.79517e-05
9.29371e-05
8.47719e-05
7.6101e-05
6.74338e-05
5.87435e-05
5.01721e-05
9.56907e-05
9.50631e-05
9.17587e-05
8.54187e-05
7.60595e-05
6.62436e-05
5.73284e-05
4.89616e-05
9.91258e-05
9.55581e-05
9.12278e-05
8.30873e-05
7.45579e-05
6.61496e-05
5.76853e-05
4.93202e-05
0.000101052
9.60924e-05
9.14318e-05
8.49344e-05
7.68866e-05
6.81709e-05
5.93858e-05
5.0724e-05
0.000104248
0.000101405
9.76991e-05
9.07074e-05
8.18327e-05
7.236e-05
6.29585e-05
5.37706e-05
0.000174606
0.00015136
0.000125297
0.000102042
8.40487e-05
7.05039e-05
6.00441e-05
5.1782e-05
0.000171713
0.000148112
0.000123057
0.000100199
8.22721e-05
6.86335e-05
5.80724e-05
4.97669e-05
0.000169197
0.000144604
0.000119908
9.79185e-05
8.04995e-05
6.71552e-05
5.67964e-05
4.86275e-05
0.000169358
0.00014393
0.000119758
9.76156e-05
7.98828e-05
6.64153e-05
5.60782e-05
4.79797e-05
0.000169053
0.000144032
0.00011891
9.70176e-05
7.95873e-05
6.62735e-05
5.59844e-05
4.79e-05
0.000172739
0.000147393
0.000121595
9.85314e-05
8.04825e-05
6.68461e-05
5.63876e-05
4.82315e-05
0.000181101
0.000154756
0.000126276
0.000101481
8.24593e-05
6.8325e-05
5.76173e-05
4.9329e-05
0.00044673
0.000337626
0.000232125
0.000158261
0.000112638
8.45961e-05
6.66796e-05
5.48555e-05
0.000441293
0.000331092
0.000229118
0.000157114
0.00011202
8.39785e-05
6.59362e-05
5.40118e-05
0.000436941
0.000324295
0.000226322
0.000156137
0.00011156
8.36151e-05
6.55606e-05
5.36026e-05
0.000435508
0.000320563
0.000225107
0.000155949
0.00011147
8.34343e-05
6.53308e-05
5.33637e-05
0.000439562
0.000322882
0.000225886
0.00015587
0.000111164
8.31356e-05
6.50712e-05
5.31416e-05
0.000447508
0.000329349
0.000228401
0.000156425
0.000111013
8.27922e-05
6.47365e-05
5.28834e-05
0.000464592
0.000344162
0.000235903
0.000159655
0.000112338
8.3353e-05
6.50282e-05
5.31066e-05
0.00194031
0.000958175
0.00043164
0.000219698
0.000130064
8.726e-05
6.43288e-05
5.1075e-05
0.00192873
0.00095271
0.000429912
0.000219575
0.0001304
8.75668e-05
6.4488e-05
5.11313e-05
0.00194193
0.000963264
0.000434481
0.000221233
0.000131031
8.77983e-05
6.45356e-05
5.1084e-05
0.00195655
0.00097272
0.000438151
0.000222404
0.000131409
8.7934e-05
6.46018e-05
5.11356e-05
0.00197958
0.000983231
0.000441046
0.000222759
0.00013113
8.75647e-05
6.42655e-05
5.08455e-05
0.00200193
0.000989817
0.00044153
0.000221887
0.000130147
8.67441e-05
6.36436e-05
5.03952e-05
0.0020542
0.00101043
0.00044787
0.000223523
0.000130222
8.6332e-05
6.31324e-05
4.99121e-05
0.00183626
0.00109046
0.000490655
0.000232609
0.000126583
7.95515e-05
5.65199e-05
4.43126e-05
0.00176362
0.001059
0.000482839
0.000231471
0.000126912
7.99893e-05
5.68152e-05
4.45396e-05
0.00175551
0.00105761
0.000484528
0.000232721
0.00012751
8.02017e-05
5.68532e-05
4.45251e-05
0.00176238
0.0010614
0.000486772
0.000233876
0.000128138
8.05943e-05
5.71346e-05
4.47555e-05
0.00177061
0.00106491
0.000487108
0.000233407
0.000127592
8.0134e-05
5.6774e-05
4.44682e-05
0.00177485
0.00106442
0.000484614
0.000231437
0.000126319
7.93509e-05
5.62934e-05
4.41671e-05
0.00178816
0.00106858
0.000482975
0.000229132
0.000124389
7.78719e-05
5.51774e-05
4.32959e-05
0.000135968
0.0001346
0.000127246
0.000115441
0.000102132
8.90439e-05
7.66952e-05
6.50893e-05
0.000135664
0.000133297
0.000127565
0.000116563
0.000102983
8.9486e-05
7.63128e-05
6.42656e-05
0.0001267
0.000121504
0.000117391
0.00010971
9.90059e-05
8.77145e-05
7.56038e-05
6.30068e-05
0.000125342
0.000116315
0.000106863
9.66192e-05
8.55539e-05
7.54306e-05
6.52866e-05
5.57955e-05
0.00013109
0.000124676
0.00011918
0.000112285
0.00010153
8.9918e-05
7.80897e-05
6.52455e-05
0.000140545
0.000140085
0.000133142
0.000121286
0.000107587
9.36126e-05
7.97044e-05
6.68306e-05
0.000145682
0.000141705
0.000133054
0.000120464
0.000106667
9.30899e-05
8.01514e-05
6.78819e-05
0.00022007
0.000185075
0.000146293
0.00011378
8.98997e-05
7.29777e-05
6.08122e-05
5.18413e-05
0.000228926
0.000193897
0.000156243
0.000122774
9.70073e-05
7.76996e-05
6.34811e-05
5.29821e-05
0.000260152
0.000218415
0.000180885
0.000147691
0.000120891
9.98049e-05
8.27921e-05
6.89087e-05
0.000281796
0.000238796
0.000199503
0.000165242
0.000135979
0.000111801
9.19809e-05
7.5964e-05
0.00027248
0.000229444
0.000190458
0.000155585
0.000127188
0.00010511
8.70695e-05
7.22665e-05
0.000238593
0.000201882
0.000162837
0.000128263
0.000101404
8.1282e-05
6.62888e-05
5.52015e-05
0.000218746
0.000184405
0.000146371
0.000114779
9.15618e-05
7.49486e-05
6.28025e-05
5.37151e-05
0.000529575
0.000389261
0.000254878
0.000165034
0.000112205
8.13484e-05
6.26752e-05
5.09846e-05
0.000556022
0.000404535
0.000272808
0.000181588
0.000125734
9.20506e-05
7.11581e-05
5.78962e-05
0.000603342
0.000428075
0.00031063
0.000225335
0.000169456
0.000133992
0.000110691
9.46839e-05
0.000630932
0.000448052
0.000337298
0.000261128
0.000203019
0.000158298
0.000124298
0.000100099
0.000605658
0.000433111
0.000314624
0.000228086
0.000171242
0.00013495
0.000110924
9.42722e-05
0.000555972
0.000408784
0.000275073
0.000183351
0.000127496
9.37066e-05
7.25923e-05
5.90726e-05
0.000537137
0.000388264
0.000252564
0.000164035
0.000112363
8.21275e-05
6.36701e-05
5.19835e-05
0.00218064
0.00104078
0.00044813
0.000217591
0.000123903
8.09441e-05
5.8846e-05
4.65674e-05
0.00228166
0.00111671
0.000493182
0.000245241
0.000143056
9.56049e-05
7.08376e-05
5.69736e-05
0.00239923
0.00123016
0.000573275
0.000306871
0.000199223
0.000150453
0.000125261
0.000111327
0.00251562
0.00138459
0.000719651
0.00042969
0.000302498
0.000234015
0.000181164
0.000136374
0.00237691
0.00121661
0.000568151
0.000304763
0.000197501
0.00014829
0.000122324
0.000107241
0.00222195
0.00108514
0.000482932
0.000242799
0.000142756
9.57281e-05
7.09279e-05
5.69079e-05
0.00207762
0.000997383
0.000436168
0.000215149
0.00012396
8.15908e-05
5.95614e-05
4.71837e-05
0.001708
0.00100983
0.000450473
0.000211298
0.000114095
7.16767e-05
5.13529e-05
4.08564e-05
0.00175118
0.00104615
0.000478988
0.000232233
0.000130233
8.49383e-05
6.28982e-05
5.1517e-05
0.00179964
0.00108319
0.000517702
0.000273119
0.00017433
0.000133152
0.000116122
0.000111158
0.0020684
0.00133018
0.000730864
0.000468195
0.000367995
0.000330763
0.000301802
0.000243691
0.00179761
0.00108118
0.000515518
0.000270424
0.000171255
0.000130091
0.000112936
0.000106237
0.00174563
0.00104302
0.000476758
0.000230833
0.00012915
8.39086e-05
6.18171e-05
5.03662e-05
0.00175608
0.00103237
0.00045855
0.000214817
0.000116082
7.30096e-05
5.22779e-05
4.14448e-05
0.000133369
0.000128776
0.000123325
0.000113482
0.000101774
8.99067e-05
7.8337e-05
6.70357e-05
0.000115228
0.000109389
0.000101134
9.4001e-05
8.60913e-05
7.72312e-05
6.83963e-05
5.95961e-05
0.000100575
9.22605e-05
8.43889e-05
7.737e-05
6.99554e-05
6.24582e-05
5.52687e-05
4.84398e-05
9.75477e-05
8.83929e-05
8.02773e-05
7.25004e-05
6.449e-05
5.68896e-05
4.97642e-05
4.37967e-05
9.33407e-05
8.62774e-05
7.98645e-05
7.3337e-05
6.68671e-05
6.00658e-05
5.33183e-05
4.6864e-05
0.000102278
9.75929e-05
9.17171e-05
8.49138e-05
7.92984e-05
7.2071e-05
6.43409e-05
5.64864e-05
0.00010987
0.00010387
0.000101368
9.59249e-05
8.79105e-05
7.89472e-05
6.96945e-05
6.02731e-05
0.00020376
0.000173072
0.000139528
0.000110608
8.88894e-05
7.33256e-05
6.19995e-05
5.34734e-05
0.000206589
0.000162691
0.00012943
0.000104595
8.61977e-05
7.27147e-05
6.28178e-05
5.52267e-05
0.000254137
0.000197621
0.000155538
0.000124299
0.000100776
8.22723e-05
6.75918e-05
5.58669e-05
0.00028233
0.000227073
0.000183022
0.000147982
0.0001204
9.83439e-05
8.0462e-05
6.59541e-05
0.000224209
0.000174657
0.000137349
0.000109763
8.89107e-05
7.28949e-05
6.04021e-05
5.04836e-05
0.000183256
0.000147751
0.000118693
9.72615e-05
8.07802e-05
6.86014e-05
5.96e-05
5.2714e-05
0.000175478
0.000150806
0.000125667
0.000102671
8.44903e-05
7.08732e-05
6.05926e-05
5.26241e-05
0.000509139
0.000368255
0.000247159
0.000164423
0.000114342
8.43804e-05
6.58111e-05
5.38825e-05
0.000515465
0.000331312
0.000230457
0.000170252
0.000129227
0.000101678
8.28979e-05
6.96207e-05
0.000587809
0.000372242
0.000248784
0.000176666
0.000131234
0.00010062
7.92121e-05
6.39271e-05
0.000611232
0.00040131
0.000277727
0.000203234
0.000154694
0.000120796
9.5907e-05
7.71091e-05
0.000528724
0.000332808
0.000221392
0.00015698
0.000116806
9.03237e-05
7.20936e-05
5.90002e-05
0.000453929
0.000294715
0.000205007
0.000153106
0.00011733
9.31281e-05
7.66061e-05
6.4948e-05
0.000446708
0.000327853
0.000228777
0.000157729
0.000112855
8.50833e-05
6.73692e-05
5.57087e-05
0.00212135
0.001048
0.000469
0.000233966
0.000135574
8.95202e-05
6.53261e-05
5.1503e-05
0.00212786
0.00115426
0.0005737
0.000307192
0.000187884
0.00012936
9.67638e-05
7.64828e-05
0.00185944
0.000956358
0.000478618
0.000270237
0.00017735
0.000131184
0.000105251
8.96841e-05
0.00188291
0.00099037
0.000515758
0.000301598
0.000200099
0.00014553
0.00011199
8.91657e-05
0.00177753
0.00090923
0.00045076
0.000252804
0.000165888
0.000123582
0.000100106
8.5324e-05
0.0019335
0.00103507
0.00050893
0.000271211
0.000166302
0.000115462
8.75013e-05
7.0255e-05
0.00197437
0.000994227
0.000452247
0.00022937
0.00013521
9.07487e-05
6.7138e-05
5.34851e-05
0.00203297
0.00119201
0.000536907
0.000253818
0.00013725
8.58257e-05
6.06728e-05
4.71396e-05
0.00252923
0.00151299
0.0007206
0.000357488
0.000200586
0.000129386
9.32156e-05
7.21831e-05
0.00273687
0.00157432
0.00074959
0.000385134
0.000237602
0.000176289
0.000145214
0.000123703
0.00296335
0.00171569
0.000850509
0.000453681
0.000278329
0.000191898
0.000141913
0.000109226
0.00267562
0.00153025
0.000716037
0.000362559
0.000221522
0.000162842
0.000132928
0.000113292
0.00250676
0.00149689
0.000698718
0.000337694
0.000186296
0.000120066
8.72877e-05
6.8474e-05
0.0020753
0.00121946
0.000547743
0.000258144
0.000139592
8.76327e-05
6.23051e-05
4.87018e-05
0.000110681
0.000108144
0.000105722
9.86034e-05
8.90134e-05
7.8679e-05
6.85022e-05
5.86035e-05
0.000112179
0.000108132
0.000104399
9.8695e-05
8.98474e-05
7.96067e-05
6.91075e-05
5.90319e-05
0.000110598
0.000101307
9.32681e-05
8.58334e-05
7.82027e-05
7.03438e-05
6.26527e-05
5.43361e-05
0.000112714
0.000102418
9.25565e-05
8.36196e-05
7.51387e-05
6.66018e-05
5.80963e-05
5.05453e-05
0.000115637
0.000105619
9.69575e-05
8.8677e-05
8.03451e-05
7.20526e-05
6.38063e-05
5.48212e-05
0.000124787
0.000119089
0.000115391
0.000107647
9.68662e-05
8.50377e-05
7.3368e-05
6.23663e-05
0.000133066
0.00013258
0.00012589
0.000114568
0.000101501
8.85744e-05
7.63714e-05
6.48716e-05
0.000194632
0.000166429
0.000135071
0.000107375
8.60906e-05
7.04961e-05
5.8979e-05
5.02917e-05
0.000211121
0.000174641
0.000142239
0.000113269
9.03287e-05
7.31107e-05
6.03638e-05
5.07599e-05
0.000247033
0.000199667
0.000160279
0.00012915
0.000105192
8.69686e-05
7.25806e-05
6.06808e-05
0.000288512
0.00023552
0.000191042
0.000155492
0.000127347
0.000105094
8.70612e-05
7.2024e-05
0.000270581
0.000218357
0.00017503
0.000140861
0.000114637
9.43686e-05
7.8193e-05
6.46179e-05
0.000229772
0.000189509
0.000152507
0.000120274
9.5189e-05
7.67216e-05
6.32444e-05
5.32709e-05
0.000219612
0.000184352
0.000145681
0.000113159
8.92861e-05
7.24546e-05
6.04154e-05
5.15477e-05
0.000493361
0.000364675
0.000247719
0.000165436
0.000114771
8.41134e-05
6.50097e-05
5.27413e-05
0.000534468
0.000379667
0.000264655
0.000180875
0.00012706
9.35176e-05
7.22885e-05
5.86028e-05
0.000599016
0.000390969
0.000269458
0.000199381
0.000154183
0.000122787
0.000100132
8.41152e-05
0.000665667
0.000439832
0.000304363
0.000222716
0.000169972
0.000133746
0.000107586
8.8271e-05
0.000627989
0.000407705
0.000279323
0.00020484
0.000158071
0.000125791
0.000101997
8.46248e-05
0.00056808
0.000401079
0.000275714
0.000186495
0.00013028
9.5728e-05
7.40624e-05
6.01848e-05
0.000530511
0.000389983
0.000256163
0.000165986
0.000112778
8.16888e-05
6.288e-05
5.10963e-05
0.00215889
0.00106002
0.000466938
0.000230186
0.000132356
8.68476e-05
6.30986e-05
4.96915e-05
0.00239602
0.00121519
0.000546311
0.000270663
0.000156097
0.000102868
7.51654e-05
5.96638e-05
0.00254514
0.00139859
0.00069943
0.000377903
0.000232701
0.000161272
0.000122575
0.000101732
0.00252325
0.00141043
0.000722848
0.000392993
0.00023827
0.000161546
0.000120072
9.63368e-05
0.0025711
0.00141157
0.000708258
0.000386033
0.000239232
0.000165215
0.000123529
9.96873e-05
0.00246697
0.00124298
0.000556978
0.000274818
0.000157554
0.000103589
7.56442e-05
5.99672e-05
0.00223265
0.00107108
0.000462251
0.000224024
0.000127168
8.28022e-05
5.99979e-05
4.73289e-05
0.00182092
0.00108112
0.000486599
0.000230123
0.000124832
7.83817e-05
5.58604e-05
4.40815e-05
0.00198692
0.0011837
0.000545628
0.000265144
0.000147513
9.45748e-05
6.8611e-05
5.51029e-05
0.00234999
0.00144895
0.000727466
0.00038842
0.000234665
0.000160003