/*--------------------------------*- C++ -*----------------------------------*\
| =========                 |                                                 |
| \\      /  F ield         | OpenFOAM: The Open Source CFD Toolbox           |
|  \\    /   O peration     | Version:  plus.master.MPPICInterFoam            |
|   \\  /    A nd           | Web:      www.OpenFOAM.com                      |
|    \\/     M anipulation  |                                                 |
\*---------------------------------------------------------------------------*/
FoamFile
{
    version     2.0;
    format      ascii;
    class       volScalarField;
    location    "8.6";
    object      nut;
}
// * * * * * * * * * * * * * * * * * * * * * * * * * * * * * * * * * * * * * //

dimensions      [0 2 -1 0 0 0 0];

internalField   nonuniform List<scalar> 
11821
(
0.000449447
0.000466393
0.000438488
0.000463887
0.000443894
0.00041803
0.000471514
0.000487406
0.000492648
0.000490143
0.000479956
0.000462553
0.000437671
0.000495299
0.000501681
0.000504368
0.000511735
0.000507957
0.000490037
0.000463514
0.000495564
0.000487764
0.000482609
0.000500308
0.00052396
0.000508589
0.000479684
0.000500859
0.000526133
0.000524956
0.000498191
0.000528021
0.000516984
0.000486674
0.000494007
0.000486111
0.000487108
0.000503213
0.000529289
0.000514541
0.000484329
0.000502761
0.000505116
0.000506217
0.000518582
0.000518973
0.000500862
0.000472429
0.000486752
0.000503707
0.000509291
0.000507182
0.000496457
0.00047722
0.000450386
0.000502215
0.000521235
0.000528226
0.000525565
0.000514494
0.000495983
0.000469449
0.000530683
0.000545654
0.000551784
0.000552949
0.00054431
0.000525131
0.000496906
0.000542502
0.000541261
0.000541408
0.000554475
0.000564109
0.000544871
0.000514091
0.000545471
0.000540748
0.000545654
0.000555766
0.000572829
0.000553598
0.000521341
0.000544233
0.000545891
0.000546766
0.000559945
0.000570772
0.000550696
0.000518546
0.00053998
0.000553182
0.000557314
0.000562604
0.000555228
0.000535484
0.000505479
0.000516338
0.000536927
0.000544733
0.000541995
0.000529955
0.00050993
0.000481748
0.000529799
0.000551845
0.00056058
0.000557801
0.000546245
0.00052693
0.000498969
0.000561236
0.00058363
0.000592433
0.00059027
0.000577646
0.000557433
0.000527799
0.000580318
0.000579217
0.000585353
0.000605061
0.000600771
0.000578538
0.000545967
0.000580202
0.000547347
0.000544555
0.00059955
0.000612824
0.000588145
0.000553594
0.000586576
0.000589753
0.000591372
0.000605661
0.000608465
0.000584257
0.000550314
0.000572138
0.000592787
0.000601745
0.00060252
0.000589087
0.000567473
0.000536154
0.000543388
0.000567173
0.000577099
0.000573985
0.000561122
0.000540361
0.000510947
0.00055492
0.000578845
0.000589418
0.000587359
0.000575905
0.000555779
0.00052632
0.00058683
0.00060934
0.000618592
0.000619448
0.000608809
0.000587534
0.000556471
0.000607626
0.000600697
0.000616019
0.000636434
0.00063207
0.000609508
0.00057554
0.00060855
0.00059763
0.000602096
0.000629198
0.000642705
0.000619499
0.000583504
0.000610125
0.000619151
0.000626475
0.000641252
0.000638158
0.000614949
0.000579792
0.00059574
0.00061631
0.000626889
0.000629848
0.000619352
0.000597148
0.000564645
0.000567359
0.000593158
0.00060447
0.00060226
0.000589895
0.000568693
0.000538028
0.000578672
0.000604214
0.000616558
0.000615412
0.000603924
0.000582582
0.000551301
0.000610977
0.000634167
0.000646466
0.000647506
0.00063865
0.000615876
0.000582907
0.000630601
0.00064562
0.00063814
0.000666234
0.000661451
0.000638619
0.000602944
0.000637077
0.000615044
0.000643019
0.000667033
0.000672518
0.000648756
0.000611243
0.000632435
0.000632168
0.00065266
0.000671039
0.000667229
0.000643944
0.000607186
0.000617542
0.000637746
0.000649249
0.000655648
0.000649068
0.000625286
0.000591029
0.000589973
0.000617523
0.000630733
0.000629335
0.000617301
0.000595198
0.000562879
0.000600899
0.000629198
0.000643071
0.000642709
0.000629184
0.000605809
0.000572784
0.000638255
0.000669678
0.000686194
0.000684493
0.000668899
0.000641217
0.000605635
0.000661799
0.000693707
0.00070633
0.000706483
0.000695708
0.000665584
0.000626603
0.000669937
0.000678958
0.000665875
0.000718583
0.000707628
0.000676021
0.000635221
0.000664661
0.0006644
0.000668751
0.000706948
0.00070225
0.000671047
0.00063089
0.000646246
0.000674185
0.000687164
0.000692384
0.000678702
0.000650433
0.000613721
0.000611827
0.000640649
0.000655571
0.000655713
0.00064231
0.000618295
0.000584254
0.000616365
0.000645576
0.000660289
0.000659517
0.000646195
0.000623232
0.000590358
0.000657642
0.000688657
0.000706897
0.000705886
0.000686711
0.000658499
0.000623161
0.000680547
0.000702284
0.000732875
0.000728489
0.000718177
0.000682989
0.000644167
0.000692211
0.000722812
0.000719366
0.000728345
0.000727421
0.000693204
0.000652807
0.000686046
0.000710313
0.000704681
0.000726096
0.000721807
0.000687274
0.00064824
0.000665967
0.000696304
0.00071311
0.000713775
0.000696946
0.000667289
0.000631013
0.000628127
0.000659395
0.00067523
0.000673678
0.000659303
0.000635389
0.000601498
0.000622123
0.000646181
0.000659443
0.000663376
0.000656547
0.000637879
0.000606938
0.000644213
0.000665733
0.000677221
0.000683714
0.000681653
0.000669136
0.000638566
0.000660104
0.00067887
0.000683607
0.0006975
0.000695612
0.000689259
0.000658593
0.000665595
0.000680471
0.000707028
0.000706602
0.00070403
0.000697956
0.000666926
0.000666837
0.000694263
0.000728299
0.000709102
0.00070228
0.000693956
0.000662632
0.000652958
0.0006788
0.000694786
0.000694494
0.000688943
0.000677282
0.000646064
0.000631539
0.000655512
0.000669305
0.000673529
0.000667638
0.00064922
0.000617496
0.000637423
0.000661079
0.000675114
0.000679746
0.000674266
0.000656332
0.000625488
0.000656943
0.000674414
0.000686606
0.000697488
0.000697896
0.000686895
0.00065718
0.000672445
0.000686641
0.000698912
0.000715663
0.00071082
0.000705926
0.000677021
0.000672637
0.000688766
0.0007154
0.000720212
0.000716141
0.000714171
0.000685168
0.000675111
0.000690841
0.000704572
0.000719686
0.000715481
0.000709969
0.000680827
0.000663789
0.00068725
0.000700697
0.000703579
0.000704816
0.000694585
0.000664353
0.000645703
0.000668986
0.00068328
0.000689377
0.000684736
0.00066717
0.000635568
0.000662187
0.000690023
0.000706043
0.000710122
0.000700447
0.000678474
0.000644609
0.000685911
0.000702803
0.000719708
0.000733002
0.000734529
0.000712832
0.000678289
0.000688645
0.000709466
0.000729999
0.00074097
0.000749605
0.000735303
0.00069932
0.000692783
0.000711253
0.000722248
0.000742895
0.000754175
0.000744113
0.000707647
0.000690579
0.000713801
0.000731396
0.00074527
0.000751472
0.000739585
0.000703043
0.000687766
0.000703881
0.000721518
0.000736333
0.000741795
0.000720888
0.000685376
0.000669277
0.000696061
0.0007128
0.000719559
0.000711497
0.000689313
0.000654446
0.000686708
0.000721034
0.00073741
0.000737024
0.000722108
0.000696084
0.000659553
0.000736813
0.00076712
0.000783616
0.000786654
0.00076733
0.000734265
0.000694962
0.000752309
0.000761307
0.000774649
0.000800684
0.000798192
0.000760162
0.000717298
0.000748319
0.000761326
0.000775776
0.000802877
0.000808625
0.000770566
0.000726106
0.000754022
0.000761144
0.000778294
0.000802959
0.000802589
0.000764488
0.000720917
0.000741427
0.000768802
0.000785777
0.000793574
0.000777269
0.000742529
0.000701847
0.000696347
0.000731652
0.000749337
0.000750231
0.000734555
0.000707001
0.000668997
0.000696757
0.000733782
0.000750469
0.000749924
0.000732901
0.00070614
0.000669825
0.000751791
0.000791153
0.000808819
0.000804657
0.000781115
0.000745179
0.000705175
0.000784615
0.00080883
0.000817502
0.000827108
0.00081525
0.000772892
0.000727614
0.000784271
0.00077867
0.000801861
0.000826482
0.000823173
0.000783574
0.000736486
0.000773203
0.000803078
0.000816429
0.000829373
0.000819309
0.000777376
0.000731052
0.000758689
0.000791944
0.000806095
0.000814162
0.000792268
0.000753497
0.000711654
0.000707395
0.000744966
0.000762594
0.000764336
0.000745762
0.000716633
0.000678567
0.000682713
0.00071092
0.000727976
0.000731384
0.000727827
0.000710726
0.000678862
0.000692571
0.000718899
0.000731755
0.000741711
0.000750554
0.000742163
0.000711866
0.000706364
0.000744012
0.000770595
0.000759024
0.000762374
0.000761676
0.000732287
0.000736131
0.00076518
0.000764791
0.000773071
0.000777414
0.0007704
0.000740443
0.000732562
0.000751674
0.000761303
0.00076519
0.000770055
0.000765137
0.000735282
0.000703202
0.000736892
0.000756315
0.000753609
0.000756285
0.000748554
0.00071743
0.00069406
0.000726718
0.000743359
0.000742301
0.00073738
0.00071942
0.000686462
0.000687248
0.000711649
0.000728336
0.000738938
0.000738061
0.000723156
0.000692356
0.000712847
0.000730083
0.00075048
0.00076566
0.000761993
0.000753265
0.000725017
0.000714369
0.000733833
0.000750427
0.000774874
0.00078256
0.000771407
0.0007451
0.000713765
0.000748169
0.000770765
0.000778786
0.000785672
0.000778591
0.000752894
0.000716771
0.0007407
0.000763052
0.000778498
0.00078373
0.000774315
0.000747747
0.000717723
0.000736522
0.000754847
0.000768895
0.000767228
0.000758612
0.000729892
0.000694805
0.000719265
0.000736456
0.000746893
0.000745297
0.000730482
0.000699036
0.000702041
0.000729685
0.000748439
0.000756873
0.000756205
0.000740818
0.000708333
0.000719722
0.000747122
0.000758999
0.000773986
0.000778258
0.00077194
0.00074234
0.00074104
0.000763214
0.000781201
0.00079754
0.000788942
0.000790283
0.000763002
0.00074463
0.000775956
0.000792465
0.000803676
0.000796668
0.000797702
0.000770902
0.000743894
0.000769023
0.000787499
0.000803135
0.000792526
0.000793486
0.000765597
0.00072628
0.00075976
0.000773323
0.000781766
0.000784048
0.000777393
0.000747075
0.0007083
0.000735923
0.000754935
0.000763791
0.000762884
0.000747859
0.000714672
0.000731472
0.000767338
0.000789324
0.000795877
0.000786021
0.000761276
0.00072323
0.000755148
0.000780992
0.000809823
0.000824957
0.000826987
0.000799781
0.000760487
0.000755588
0.000783865
0.000810428
0.000828469
0.000848034
0.000824593
0.000783317
0.000760213
0.000790681
0.00081697
0.000833988
0.000853125
0.000833742
0.000791808
0.0007574
0.00078344
0.000810667
0.000830571
0.000852269
0.000827966
0.000785882
0.000757354
0.000779867
0.000807461
0.000827572
0.000833794
0.00080563
0.000765155
0.000737068
0.000772806
0.000795656
0.000803526
0.000794145
0.000768523
0.000729388
0.00012683
1.50999e-05
0.000356101
0.000321303
0.00027868
0.000221366
0.000135599
1.63948e-05
0.000420261
0.000392329
0.000361888
0.000326907
0.000284017
0.000226217
0.000139268
1.69508e-05
0.000418219
0.000390592
0.000360411
0.000325549
0.000282605
0.000224597
0.000137568
1.66769e-05
0.000407973
0.000381477
0.000351989
0.000317466
0.000274598
0.000216641
0.000130701
1.56472e-05
0.000389931
0.000365663
0.000337138
0.000303033
0.000260322
0.000202732
0.000119182
1.40653e-05
0.000408432
0.000381746
0.00035064
0.00031393
0.000268615
0.000208313
0.000121709
1.40552e-05
0.000432038
0.000403359
0.000371328
0.000334022
0.00028806
0.000226427
0.000135836
1.59314e-05
0.000447413
0.000417843
0.00038518
0.000347376
0.000300901
0.00023835
0.000145142
1.72812e-05
0.000454074
0.000424214
0.000391324
0.000353295
0.000306519
0.000243444
0.00014899
1.78554e-05
0.000451607
0.000422065
0.000389428
0.000351523
0.000304693
0.000241433
0.000147003
1.75609e-05
0.00044031
0.000411834
0.000379906
0.00034237
0.000295649
0.000232516
0.00013944
1.64705e-05
0.00042057
0.000394347
0.000363428
0.000326359
0.000279859
0.000217257
0.000127008
1.47923e-05
0.000438142
0.000409395
0.000375868
0.000336219
0.000287153
0.000221891
0.000128806
1.47451e-05
0.000463355
0.000432476
0.000397928
0.000357635
0.000307892
0.000241193
0.000143735
1.66996e-05
0.000479743
0.00044794
0.000412679
0.00037183
0.000321534
0.000253839
0.000153535
1.80972e-05
0.000486689
0.000454621
0.000419119
0.000378009
0.000327372
0.000259103
0.000157454
1.86884e-05
0.000483801
0.00045206
0.00041683
0.000375845
0.000325147
0.000256699
0.000155161
1.83795e-05
0.000471394
0.000440755
0.000406288
0.000365709
0.000315142
0.000246901
0.000146991
1.72384e-05
0.000449966
0.000421695
0.00038832
0.000348257
0.000297962
0.000230409
0.000133776
1.54748e-05
0.000465746
0.000435079
0.000399263
0.000356788
0.000304071
0.000234008
0.000134881
1.5387e-05
0.000492372
0.000459441
0.000422524
0.000379376
0.00032596
0.000254335
0.000150421
1.74161e-05
0.000509689
0.000475772
0.000438063
0.000394309
0.000340308
0.000267613
0.000160614
1.88563e-05
0.000516965
0.000482763
0.000444775
0.000400724
0.000346353
0.000273045
0.000164622
1.94595e-05
0.000513686
0.000479851
0.000442156
0.000398229
0.000343787
0.000270322
0.000162127
1.91257e-05
0.000500279
0.000467598
0.000430721
0.000387224
0.000332928
0.00025976
0.00015349
1.79287e-05
0.000477337
0.000447125
0.000411405
0.000368452
0.000314471
0.000242159
0.000139612
1.60838e-05
0.000491207
0.000458687
0.000420679
0.000375481
0.000319242
0.000244626
0.000140013
1.59554e-05
0.000519166
0.000484231
0.000445038
0.000399144
0.000342182
0.000265868
0.000156047
1.80479e-05
0.00053736
0.000501351
0.000461282
0.000414741
0.000357171
0.000279709
0.000166564
1.95254e-05
0.000544961
0.000508631
0.000468235
0.00042136
0.000363398
0.000285293
0.000170658
2.01354e-05
0.000541328
0.000505406
0.000465321
0.000418563
0.00036052
0.000282285
0.000167995
1.97781e-05
0.000526982
0.000492287
0.000453078
0.000406762
0.000348875
0.000271032
0.000158962
1.85315e-05
0.000502603
0.000470502
0.000432518
0.000386769
0.000329232
0.000252411
0.000144502
1.66154e-05
0.000514262
0.000479969
0.000439907
0.000392162
0.000332641
0.000253835
0.000144298
1.64519e-05
0.000543496
0.000506569
0.000465237
0.000416795
0.000356547
0.000275915
0.000160772
1.85978e-05
0.000562553
0.000524393
0.00048209
0.000432976
0.000372111
0.000290262
0.000171566
2.01065e-05
0.000570477
0.000531929
0.000489241
0.000439761
0.00037849
0.000295977
0.000175733
2.0721e-05
0.000566531
0.000528432
0.000486064
0.000436683
0.000375317
0.000292702
0.000172918
2.03414e-05
0.000551279
0.000514534
0.0004731
0.000424158
0.000362944
0.000280809
0.000163531
1.90502e-05
0.000525523
0.000491566
0.000451426
0.000403043
0.00034219
0.000261228
0.000148539
1.70711e-05
0.000534294
0.000498666
0.000456974
0.000407086
0.000344691
0.000262124
0.000148091
1.68996e-05
0.000564397
0.00052599
0.000483058
0.00043256
0.00036948
0.000284991
0.000165001
1.90923e-05
0.000584056
0.000544265
0.000500343
0.000449215
0.000385555
0.000299805
0.000176056
2.06287e-05
0.000592208
0.000551951
0.00050761
0.000456114
0.000392054
0.000305633
0.000180288
2.12463e-05
0.000588031
0.000548249
0.000504208
0.000452776
0.0003886
0.000302103
0.000177328
2.08452e-05
0.000572102
0.000533794
0.000490673
0.000439614
0.000375555
0.000289614
0.000167609
1.95118e-05
0.000545359
0.00050996
0.000468089
0.000417497
0.000353768
0.000269134
0.000152122
1.74748e-05
0.000551726
0.000515515
0.000472714
0.000421043
0.000356038
0.000269951
0.000151687
1.73227e-05
0.000581937
0.000543197
0.000499404
0.000447297
0.000381667
0.00029356
0.000169005
1.95593e-05
0.0006016
0.000561595
0.000516968
0.000464366
0.000398224
0.000308819
0.000180312
2.11215e-05
0.000609749
0.000569287
0.000524274
0.000471343
0.000404828
0.000314752
0.000184607
2.1742e-05
0.000605468
0.000565452
0.000520675
0.00046775
0.000401099
0.000310982
0.000181515
2.13203e-05
0.000589409
0.000550711
0.000506678
0.00045399
0.000387408
0.000297933
0.000171488
1.99461e-05
0.000562404
0.000526345
0.000483309
0.00043092
0.000364637
0.000276628
0.000155561
1.78546e-05
0.000568781
0.000532076
0.000488055
0.00043439
0.000366563
0.000276907
0.000154728
1.77076e-05
0.000598912
0.000560218
0.000515498
0.000461525
0.000393065
0.000301214
0.000172394
1.99818e-05
0.000618269
0.000578724
0.000533413
0.000479079
0.000410137
0.000316899
0.00018391
2.15657e-05
0.000626255
0.000586374
0.000540761
0.000486148
0.000416855
0.000322934
0.000188258
2.21874e-05
0.000621986
0.000582399
0.000536926
0.000482269
0.000412837
0.000318933
0.000185054
2.17465e-05
0.000606021
0.000567349
0.000522373
0.000467829
0.000398466
0.000305346
0.000174767
2.03348e-05
0.000578909
0.000542337
0.000498066
0.000443702
0.000374686
0.00028327
0.000158476
1.81938e-05
0.00058656
0.000548501
0.000502564
0.000446357
0.000375359
0.000282117
0.000156621
1.80189e-05
0.000617434
0.000577611
0.000531034
0.000474502
0.000402769
0.000307096
0.000174596
2.03207e-05
0.000637034
0.000596604
0.000549528
0.000492649
0.00042038
0.000323167
0.000186254
2.1918e-05
0.000644998
0.000604337
0.000556999
0.000499849
0.000427217
0.000329283
0.000190623
2.25374e-05
0.000640575
0.000600099
0.000552845
0.000495632
0.000422886
0.000325051
0.000187325
2.20786e-05
0.000624219
0.00058438
0.000537511
0.000480394
0.000407792
0.000310943
0.000176833
2.06349e-05
0.000596195
0.000558213
0.000511975
0.000455065
0.00038295
0.000288107
0.000160228
1.84494e-05
0.000603309
0.000563185
0.000514981
0.000456152
0.000382145
0.000285733
0.000157627
1.82583e-05
0.000635711
0.000593498
0.000544493
0.000485252
0.000410405
0.000311343
0.000175872
2.05829e-05
0.000656248
0.00061324
0.00056362
0.000503957
0.000428488
0.000327732
0.000187619
2.21891e-05
0.00066445
0.000621168
0.000571236
0.000511268
0.000435408
0.000333894
0.000191986
2.28038e-05
0.000659678
0.000616572
0.000566724
0.000506702
0.000430761
0.00032943
0.000188592
2.23276e-05
0.000642271
0.000599925
0.00055054
0.000490676
0.000414981
0.000314831
0.000177916
2.08548e-05
0.000612525
0.000572336
0.000523734
0.000464172
0.000389103
0.000291231
0.000160992
1.86273e-05
0.000616538
0.000574961
0.000525139
0.000464396
0.000388136
0.000289233
0.000158789
1.84767e-05
0.000649931
0.000606007
0.000555343
0.000494209
0.0004171
0.000315412
0.000177295
2.08316e-05
0.000671157
0.000626197
0.000574847
0.00051328
0.000435529
0.000332075
0.000189154
2.24491e-05
0.00067957
0.000634214
0.000582504
0.000520621
0.000442479
0.000338262
0.000193521
2.30597e-05
0.000674417
0.000629299
0.000577681
0.000515749
0.000437551
0.000333575
0.000190019
2.25653e-05
0.000656138
0.000611967
0.000560863
0.000499102
0.00042119
0.000318516
0.000179132
2.10621e-05
0.000625172
0.000583404
0.000533127
0.000471658
0.000394405
0.000294172
0.000161847
1.87926e-05
0.000627001
0.000585154
0.000534677
0.000472824
0.000394958
0.000293916
0.000160844
1.87326e-05
0.00066032
0.000616332
0.000565233
0.000503154
0.000424496
0.000320598
0.000179616
2.1121e-05
0.000681445
0.000636492
0.00058484
0.000522443
0.000443208
0.000337539
0.00019164
2.27546e-05
0.000689772
0.000644401
0.000592427
0.000529761
0.000450171
0.00034376
0.000196035
2.3364e-05
0.000684441
0.000639294
0.000587378
0.00052464
0.000444999
0.000338868
0.000192418
2.28514e-05
0.000665987
0.000621711
0.000570182
0.000507518
0.000428141
0.000323377
0.000181289
2.13158e-05
0.000634849
0.000592777
0.000541854
0.000479329
0.000400568
0.000298348
0.00016363
1.90051e-05
0.000637746
0.000596169
0.000545186
0.000482168
0.000402565
0.000299228
0.000163304
1.90019e-05
0.000670351
0.000627411
0.00057618
0.000513076
0.000432668
0.000326353
0.000182296
2.14201e-05
0.00069072
0.000647409
0.000595934
0.00053266
0.000451713
0.000343591
0.0001945
2.307e-05
0.000698669
0.000655145
0.000603468
0.00053999
0.000458722
0.00034987
0.000198941
2.36794e-05
0.000693362
0.000649898
0.000598196
0.000534621
0.000453322
0.000344801
0.000195226
2.31511e-05
0.000675329
0.000632176
0.000580585
0.000516986
0.000435967
0.000328912
0.000183872
2.15864e-05
0.000644663
0.000602931
0.000551585
0.000488009
0.000407648
0.000303299
0.000165907
1.92409e-05
0.000651075
0.000608568
0.000556091
0.00049111
0.000409201
0.00030337
0.00016501
1.92149e-05
0.00068414
0.000640604
0.000587954
0.000522816
0.000439939
0.000330899
0.000184152
2.16539e-05
0.000704556
0.000660962
0.000608204
0.000542884
0.000459389
0.000348413
0.000196475
2.33127e-05
0.000712372
0.000668702
0.0006158
0.000550313
0.000466496
0.000354766
0.000200955
2.39208e-05
0.000706908
0.000663192
0.000610234
0.000544672
0.000460877
0.000349555
0.000197181
2.33809e-05
0.00068857
0.000644889
0.000591947
0.000526395
0.000442999
0.00033332
0.000185676
2.17955e-05
0.00065726
0.000614672
0.000561907
0.000496465
0.000413918
0.000307212
0.000167507
1.94243e-05
0.000664874
0.000620205
0.000565359
0.000497851
0.000413383
0.000305223
0.000165345
1.93349e-05
0.000699496
0.000653609
0.000598368
0.000530488
0.00044481
0.000333161
0.000184596
2.17852e-05
0.000720725
0.000674772
0.000619308
0.000551118
0.000464674
0.000350899
0.000196959
2.34439e-05
0.000728736
0.000682722
0.000627101
0.000558705
0.000471894
0.000357314
0.000201449
2.40474e-05
0.000722969
0.000676867
0.000621211
0.000552788
0.000466071
0.000351993
0.000197653
2.35e-05
0.000703694
0.00065762
0.000602088
0.000533825
0.000447688
0.000335475
0.000186081
2.19026e-05
0.000670677
0.0006259
0.000570776
0.000502856
0.000417829
0.000308905
0.000167767
1.95128e-05
0.000676271
0.000629093
0.000571897
0.000502109
0.000415466
0.000305494
0.000164832
1.93893e-05
0.000712901
0.000663844
0.000605935
0.000535588
0.000447562
0.000333862
0.000184204
2.18479e-05
0.000735429
0.00068587
0.000627485
0.000556694
0.000467768
0.00035178
0.000196577
2.3503e-05
0.000743829
0.00069408
0.000635463
0.000564398
0.000475068
0.000358236
0.000201061
2.41003e-05
0.000737584
0.000687852
0.000629273
0.000558243
0.000469077
0.000352832
0.00019726
2.35466e-05
0.000716908
0.000667612
0.0006094
0.000538698
0.000450272
0.000336085
0.000185654
2.1941e-05
0.000681765
0.000634424
0.000576956
0.000506807
0.000419689
0.000309045
0.000167184
1.95341e-05
0.000458363
0.000432198
0.000400411
0.000362096
0.000313367
0.000245813
0.00014494
1.84774e-05
0.000483307
0.000456224
0.000423102
0.00038405
0.000335297
0.000267582
0.000162819
2.1293e-05
0.000495649
0.000471472
0.000437099
0.000396875
0.000347734
0.000280141
0.00017374
2.32228e-05
0.000496852
0.000474748
0.000440186
0.000399595
0.00035035
0.000282988
0.000176587
2.37685e-05
0.000490577
0.000465565
0.000431748
0.000392085
0.000343468
0.000276578
0.000171519
2.28528e-05
0.000472838
0.000445704
0.000413258
0.000375008
0.000327222
0.000261018
0.000158909
2.06791e-05
0.000444133
0.000418292
0.000387177
0.000349788
0.000302464
0.000237223
0.000140041
1.77496e-05
0.000485081
0.000456805
0.000422717
0.000381565
0.000329202
0.000256964
0.000150367
1.90309e-05
0.000512707
0.000482535
0.000446862
0.00040494
0.00035252
0.000279922
0.000168902
2.19235e-05
0.000529595
0.000499789
0.000462215
0.000418973
0.000366121
0.000293496
0.000180411
2.39133e-05
0.000533121
0.000504266
0.000466011
0.000422268
0.000369281
0.000296846
0.000183598
2.44953e-05
0.000524146
0.000494248
0.000457203
0.00041443
0.000362052
0.000290131
0.000178371
2.35717e-05
0.000502785
0.000472728
0.000437605
0.000396364
0.000344869
0.000273786
0.000165342
2.13564e-05
0.00047193
0.000443806
0.000410205
0.000369874
0.000318885
0.000248939
0.000145875
1.8353e-05
0.000509801
0.000479649
0.000443438
0.000399617
0.000343782
0.000267077
0.000155154
1.95374e-05
0.000539179
0.000506513
0.000468682
0.000424175
0.000368311
0.000291071
0.000174232
2.24958e-05
0.000558937
0.000525024
0.000484985
0.000439165
0.000382892
0.000305506
0.000186219
2.45344e-05
0.000563661
0.000530155
0.000489286
0.000442936
0.00038652
0.000309281
0.000189675
2.51462e-05
0.000553035
0.000519722
0.000480246
0.000434844
0.000379009
0.000302324
0.000184333
2.42181e-05
0.00052942
0.000497223
0.000459918
0.000416021
0.000361046
0.000285306
0.00017095
2.19692e-05
0.000497357
0.000467346
0.000431539
0.000388473
0.000333982
0.000259524
0.000150977
1.8903e-05
0.000532526
0.000500857
0.000462674
0.000416249
0.000357
0.000275978
0.000159167
1.99883e-05
0.000562386
0.00052844
0.000488862
0.00044191
0.000382658
0.000300893
0.000178676
2.30016e-05
0.000582389
0.000547459
0.000505808
0.000457694
0.000398093
0.000316053
0.000191012
2.50791e-05
0.000587879
0.000552955
0.000510457
0.000461839
0.000402109
0.000320171
0.00019466
2.57132e-05
0.000576987
0.000542499
0.000501325
0.000453561
0.000394363
0.000313016
0.000189236
2.47817e-05
0.000553462
0.000519751
0.000480551
0.000434107
0.000375698
0.000295405
0.00017558
2.25056e-05
0.000520877
0.000489193
0.000451293
0.000405552
0.000347611
0.000268781
0.000155203
1.93881e-05
0.000553893
0.000520575
0.000480289
0.000431164
0.000368495
0.000283318
0.000162157
2.03517e-05
0.000584374
0.000549042
0.000507543
0.000457954
0.000395218
0.000309026
0.000181955
2.34041e-05
0.000604662
0.000568398
0.000525088
0.00047449
0.000411409
0.000324757
0.000194483
2.5507e-05
0.000610255
0.000573996
0.000529966
0.000478939
0.000415755
0.000329158
0.000198262
2.61582e-05
0.000599654
0.000563736
0.000520803
0.000470485
0.000407804
0.000321863
0.00019282
2.52275e-05
0.000576393
0.000540909
0.000499565
0.000450394
0.000388494
0.000303778
0.000179023
2.29356e-05
0.000542959
0.000509407
0.000469279
0.000420801
0.000359443
0.000276431
0.000158379
1.97833e-05
0.000573352
0.000538051
0.000495685
0.000444099
0.000378384
0.00028953
0.000164553
2.06452e-05
0.000606004
0.000567724
0.000523942
0.000471829
0.000405989
0.00031591
0.000184584
2.37288e-05
0.00062736
0.000587441
0.000542022
0.000488954
0.000422761
0.000332091
0.000197261
2.58533e-05
0.0006343
0.000593316
0.000547137
0.000493662
0.000427382
0.000336737
0.00020116
2.65221e-05
0.000622694
0.000583015
0.000537851
0.000485051
0.000419295
0.00032937
0.00019574
2.55953e-05
0.000598079
0.000559725
0.000516089
0.00046444
0.000399502
0.000310931
0.00018185
2.3292e-05
0.000562651
0.000527071
0.000484891
0.000434023
0.00036968
0.000282988
0.000160992
2.0113e-05
0.00058833
0.000552309
0.000508854
0.000455653
0.000387623
0.000295716
0.00016721
2.09429e-05
0.000622247
0.000582198
0.000537414
0.000483913
0.000415943
0.00032279
0.000187615
2.40727e-05
0.000646284
0.00060221
0.000555607
0.000501324
0.000433194
0.000339516
0.000200633
2.62388e-05
0.000652789
0.000608241
0.000560795
0.000506169
0.00043803
0.000344412
0.00020471
2.69328e-05
0.00064142
0.000597813
0.000551515
0.000497539
0.000429874
0.000336943
0.000199221
2.60003e-05
0.000613955
0.000574213
0.000529703
0.000476754
0.000409732
0.000318079
0.000185054
2.36672e-05
0.000577557
0.0005415
0.000498358
0.000445953
0.000379324
0.000289534
0.00016386
2.04485e-05
0.000598101
0.000564354
0.000521019
0.00046672
0.000396598
0.000301819
0.000169968
2.12465e-05
0.000623974
0.000592005
0.000549151
0.000495403
0.000425719
0.000329696
0.000190847
2.44341e-05
0.000637294
0.000608928
0.000566535
0.000512936
0.000443558
0.00034714
0.000204369
2.66588e-05
0.000641964
0.000613747
0.000571436
0.000517828
0.000448623
0.000352331
0.000208664
2.73818e-05
0.000633344
0.000605035
0.000562704
0.000509329
0.000440365
0.000344651
0.000202993
2.64332e-05
0.000616936
0.000584608
0.000541872
0.000488596
0.00041979
0.000325186
0.000188378
2.40544e-05
0.000588407
0.000554248
0.000511107
0.000457535
0.00038874
0.000295964
0.000166777
2.07872e-05
0.000612577
0.000578307
0.000533654
0.00047719
0.000404236
0.000306311
0.000171629
2.14639e-05
0.000637178
0.000606069
0.00056253
0.000506954
0.0004344
0.000334891
0.000192758
2.46867e-05
0.000648451
0.000622598
0.000580188
0.000525183
0.000453043
0.000352945
0.000206545
2.69445e-05
0.000650776
0.000626857
0.000585082
0.000530298
0.000458415
0.000358392
0.000210955
2.7685e-05
0.000645093
0.000619075
0.00057656
0.000521711
0.00044994
0.000350509
0.000205175
2.67293e-05
0.000631113
0.00059916
0.000555631
0.00050045
0.000428715
0.000330551
0.00019035
2.4331e-05
0.000603665
0.000568824
0.000524294
0.000468507
0.000396818
0.000300772
0.000168572
2.10394e-05
0.000631823
0.000593624
0.000545649
0.000485803
0.000409414
0.000308301
0.000171613
2.15334e-05
0.000661232
0.000624238
0.000576626
0.000517079
0.000440502
0.000337193
0.00019258
2.47475e-05
0.000673408
0.000642767
0.00059573
0.00053639
0.00045976
0.000355325
0.00020608
2.69839e-05
0.000674929
0.000647681
0.000601094
0.000541915
0.000465422
0.000360846
0.000210406
2.77212e-05
0.000671384
0.000639365
0.000592215
0.000533025
0.000456788
0.000353021
0.00020478
2.67859e-05
0.000656052
0.000617773
0.000570034
0.000510869
0.000435132
0.000333128
0.000190308
2.44249e-05
0.000623416
0.000584573
0.000536735
0.000477611
0.000402489
0.000303153
0.000168737
2.11513e-05
0.000649786
0.000606361
0.000554815
0.000491952
0.00041273
0.000309061
0.000170935
2.15169e-05
0.000689377
0.000640829
0.000587659
0.000524216
0.00044431
0.000338024
0.000191638
2.47069e-05
0.000716194
0.000663562
0.000608435
0.000544153
0.000463657
0.000355871
0.000204654
2.69017e-05
0.000722406
0.000670363
0.000614532
0.000549989
0.000469404
0.000361333
0.000208812
2.76283e-05
0.000712893
0.000660025
0.000604976
0.000540959
0.000460935
0.00035383
0.000203516
2.67305e-05
0.000683052
0.000634263
0.000581239
0.000518349
0.000439373
0.000334365
0.000189595
2.44274e-05
0.000640818
0.000597353
0.000546252
0.000484292
0.000406389
0.000304406
0.000168312
2.11862e-05
0.000658552
0.000613885
0.000561267
0.000497183
0.000416448
0.000311006
0.000171271
2.15598e-05
0.000700526
0.000648389
0.000593982
0.000529527
0.000448305
0.000340272
0.000192078
2.47577e-05
0.000732836
0.000673019
0.00061464
0.000549274
0.000467681
0.000358261
0.000205134
2.69611e-05
0.000744307
0.0006813
0.000620866
0.000555111
0.000473476
0.000363867
0.000209332
2.76996e-05
0.000729508
0.000669264
0.000611249
0.000546303
0.000465238
0.000356488
0.000204158
2.68177e-05
0.000693203
0.000641571
0.000587741
0.000524059
0.000443838
0.000337045
0.000190275
2.45218e-05
0.000649209
0.000605035
0.000553164
0.000490145
0.000410744
0.000306879
0.000168915
2.12813e-05
0.0006559
0.00061696
0.000566475
0.000502865
0.000421485
0.000314561
0.00017274
2.16923e-05
0.000681137
0.00064564
0.000597201
0.00053482
0.000453756
0.000344561
0.000194062
2.49343e-05
0.000688421
0.000661519
0.000614915
0.000553905
0.000473473
0.000363391
0.000207854
2.72093e-05
0.00068905
0.000666373
0.000620062
0.000559542
0.000479464
0.000369324
0.000212364
2.79848e-05
0.000683793
0.000657839
0.000611758
0.000551184
0.000471262
0.000361789
0.00020696
2.70859e-05
0.000673447
0.00063915
0.000591461
0.000529887
0.000449769
0.000341677
0.000192418
2.47341e-05
0.000646925
0.000608826
0.000559181
0.000496584
0.000416423
0.000310873