/*--------------------------------*- C++ -*----------------------------------*\
| =========                 |                                                 |
| \\      /  F ield         | OpenFOAM: The Open Source CFD Toolbox           |
|  \\    /   O peration     | Version:  plus.master.MPPICInterFoam            |
|   \\  /    A nd           | Web:      www.OpenFOAM.com                      |
|    \\/     M anipulation  |                                                 |
\*---------------------------------------------------------------------------*/
FoamFile
{
    version     2.0;
    format      ascii;
    class       volScalarField;
    location    "6.6";
    object      p;
}
// * * * * * * * * * * * * * * * * * * * * * * * * * * * * * * * * * * * * * //

dimensions      [1 -1 -2 0 0 0 0];

internalField   nonuniform List<scalar> 
11821
(
3939.75
3939.75
3939.75
3939.75
3939.76
3939.76
3939.76
3939.76
3939.75
3939.75
3939.75
3939.76
3939.76
3939.76
3939.76
3939.76
3939.76
3939.76
3939.76
3939.76
3939.76
3939.76
3939.76
3939.77
3939.76
3939.76
3939.76
3939.77
3939.77
3939.77
3939.77
3939.77
3939.77
3939.77
3939.77
3939.78
3939.78
3939.78
3939.78
3939.78
3939.78
3939.79
3939.79
3939.79
3939.79
3939.79
3939.79
3939.79
3939.8
3939.8
3939.8
3939.8
3939.81
3939.81
3939.81
3939.81
3842.66
3842.66
3842.66
3842.66
3842.66
3842.66
3842.66
3842.66
3842.66
3842.66
3842.66
3842.66
3842.66
3842.66
3842.66
3842.66
3842.66
3842.66
3842.66
3842.66
3842.66
3842.67
3842.67
3842.67
3842.67
3842.67
3842.67
3842.67
3842.67
3842.67
3842.67
3842.67
3842.68
3842.68
3842.68
3842.68
3842.68
3842.68
3842.68
3842.68
3842.69
3842.69
3842.69
3842.69
3842.69
3842.69
3842.69
3842.69
3842.7
3842.71
3842.71
3842.71
3842.71
3842.71
3842.71
3842.71
3745.56
3745.56
3745.56
3745.56
3745.56
3745.56
3745.56
3745.56
3745.56
3745.56
3745.56
3745.56
3745.56
3745.56
3745.56
3745.56
3745.57
3745.57
3745.57
3745.57
3745.57
3745.57
3745.57
3745.57
3745.57
3745.57
3745.57
3745.57
3745.57
3745.57
3745.57
3745.57
3745.58
3745.58
3745.58
3745.58
3745.58
3745.58
3745.58
3745.58
3745.59
3745.59
3745.59
3745.59
3745.59
3745.59
3745.59
3745.59
3745.6
3745.6
3745.61
3745.61
3745.61
3745.61
3745.61
3745.61
3648.46
3648.46
3648.46
3648.46
3648.46
3648.46
3648.46
3648.46
3648.46
3648.46
3648.46
3648.46
3648.46
3648.46
3648.46
3648.46
3648.47
3648.47
3648.47
3648.47
3648.46
3648.46
3648.46
3648.46
3648.47
3648.47
3648.47
3648.47
3648.47
3648.47
3648.47
3648.47
3648.48
3648.48
3648.48
3648.48
3648.48
3648.48
3648.48
3648.48
3648.49
3648.49
3648.49
3648.49
3648.49
3648.49
3648.49
3648.49
3648.5
3648.5
3648.5
3648.5
3648.5
3648.5
3648.5
3648.5
3551.36
3551.36
3551.36
3551.36
3551.36
3551.36
3551.35
3551.35
3551.36
3551.36
3551.36
3551.36
3551.36
3551.36
3551.36
3551.36
3551.36
3551.36
3551.36
3551.36
3551.36
3551.36
3551.36
3551.36
3551.37
3551.37
3551.37
3551.37
3551.37
3551.37
3551.37
3551.37
3551.38
3551.38
3551.38
3551.38
3551.37
3551.37
3551.37
3551.37
3551.38
3551.38
3551.38
3551.38
3551.38
3551.38
3551.38
3551.38
3551.39
3551.39
3551.39
3551.39
3551.39
3551.39
3551.4
3551.4
3454.25
3454.25
3454.25
3454.25
3454.25
3454.25
3454.25
3454.25
3454.26
3454.26
3454.26
3454.26
3454.26
3454.25
3454.25
3454.25
3454.26
3454.26
3454.26
3454.26
3454.26
3454.26
3454.26
3454.26
3454.27
3454.27
3454.27
3454.26
3454.26
3454.26
3454.26
3454.26
3454.27
3454.27
3454.27
3454.27
3454.27
3454.27
3454.27
3454.27
3454.28
3454.28
3454.28
3454.28
3454.28
3454.28
3454.28
3454.28
3454.29
3454.29
3454.29
3454.29
3454.29
3454.29
3454.29
3454.29
3357.15
3357.15
3357.15
3357.15
3357.15
3357.15
3357.15
3357.15
3357.15
3357.15
3357.15
3357.15
3357.15
3357.15
3357.15
3357.15
3357.16
3357.16
3357.16
3357.16
3357.16
3357.16
3357.16
3357.15
3357.16
3357.16
3357.16
3357.16
3357.16
3357.16
3357.16
3357.16
3357.17
3357.17
3357.17
3357.17
3357.17
3357.17
3357.17
3357.17
3357.18
3357.18
3357.18
3357.18
3357.17
3357.17
3357.17
3357.17
3357.18
3357.18
3357.18
3357.18
3357.18
3357.18
3357.18
3357.18
3260.05
3260.05
3260.05
3260.05
3260.05
3260.05
3260.05
3260.05
3260.05
3260.05
3260.05
3260.05
3260.05
3260.05
3260.05
3260.05
3260.06
3260.06
3260.06
3260.06
3260.05
3260.05
3260.05
3260.05
3260.06
3260.06
3260.06
3260.06
3260.06
3260.06
3260.06
3260.06
3260.07
3260.07
3260.07
3260.07
3260.06
3260.06
3260.06
3260.06
3260.07
3260.07
3260.07
3260.07
3260.07
3260.07
3260.07
3260.07
3260.08
3260.08
3260.08
3260.08
3260.08
3260.08
3260.08
3260.08
3162.95
3162.95
3162.95
3162.95
3162.94
3162.94
3162.94
3162.94
3162.95
3162.95
3162.95
3162.95
3162.95
3162.95
3162.95
3162.94
3162.95
3162.95
3162.95
3162.95
3162.95
3162.95
3162.95
3162.95
3162.96
3162.96
3162.96
3162.96
3162.96
3162.95
3162.95
3162.95
3162.96
3162.96
3162.96
3162.96
3162.96
3162.96
3162.96
3162.96
3162.97
3162.97
3162.97
3162.97
3162.97
3162.96
3162.96
3162.96
3162.97
3162.97
3162.97
3162.97
3162.97
3162.97
3162.97
3162.97
3065.84
3065.84
3065.84
3065.84
3065.84
3065.84
3065.84
3065.84
3065.84
3065.84
3065.84
3065.84
3065.84
3065.84
3065.84
3065.84
3065.85
3065.85
3065.85
3065.85
3065.84
3065.84
3065.84
3065.84
3065.85
3065.85
3065.85
3065.85
3065.85
3065.85
3065.85
3065.85
3065.86
3065.86
3065.86
3065.85
3065.85
3065.85
3065.85
3065.85
3065.86
3065.86
3065.86
3065.86
3065.86
3065.86
3065.86
3065.85
3065.86
3065.86
3065.86
3065.86
3065.86
3065.86
3065.86
3065.86
2968.73
2968.73
2968.73
2968.73
2968.73
2968.73
2968.72
2968.72
2968.74
2968.74
2968.73
2968.73
2968.73
2968.73
2968.73
2968.73
2968.74
2968.74
2968.74
2968.74
2968.73
2968.73
2968.73
2968.73
2968.74
2968.74
2968.74
2968.74
2968.74
2968.74
2968.74
2968.73
2968.75
2968.75
2968.75
2968.74
2968.74
2968.74
2968.74
2968.74
2968.75
2968.75
2968.75
2968.75
2968.75
2968.74
2968.74
2968.74
2968.75
2968.75
2968.75
2968.75
2968.75
2968.75
2968.75
2968.75
2871.62
2871.62
2871.62
2871.61
2871.61
2871.61
2871.61
2871.61
2871.62
2871.62
2871.62
2871.62
2871.61
2871.61
2871.61
2871.61
2871.63
2871.62
2871.62
2871.62
2871.62
2871.62
2871.61
2871.61
2871.63
2871.63
2871.63
2871.62
2871.62
2871.62
2871.62
2871.62
2871.63
2871.63
2871.63
2871.63
2871.63
2871.62
2871.62
2871.62
2871.64
2871.64
2871.63
2871.63
2871.63
2871.63
2871.63
2871.63
2871.64
2871.64
2871.64
2871.63
2871.63
2871.63
2871.63
2871.63
2774.5
2774.5
2774.49
2774.49
2774.49
2774.49
2774.48
2774.48
2774.5
2774.5
2774.5
2774.5
2774.49
2774.49
2774.49
2774.49
2774.51
2774.5
2774.5
2774.5
2774.5
2774.5
2774.49
2774.49
2774.51
2774.51
2774.51
2774.5
2774.5
2774.5
2774.5
2774.5
2774.51
2774.51
2774.51
2774.51
2774.51
2774.5
2774.5
2774.5
2774.52
2774.52
2774.51
2774.51
2774.51
2774.51
2774.51
2774.5
2774.52
2774.52
2774.52
2774.51
2774.51
2774.51
2774.51
2774.51
2677.37
2677.37
2677.37
2677.37
2677.37
2677.36
2677.36
2677.36
2677.38
2677.38
2677.38
2677.37
2677.37
2677.37
2677.37
2677.37
2677.38
2677.38
2677.38
2677.38
2677.38
2677.37
2677.37
2677.37
2677.39
2677.39
2677.38
2677.38
2677.38
2677.38
2677.38
2677.38
2677.39
2677.39
2677.39
2677.39
2677.38
2677.38
2677.38
2677.38
2677.4
2677.39
2677.39
2677.39
2677.39
2677.39
2677.38
2677.38
2677.4
2677.39
2677.39
2677.39
2677.39
2677.39
2677.39
2677.38
3939.85
3939.85
3939.85
3939.86
3939.86
3939.86
3939.86
3939.86
3939.87
3939.87
3939.87
3939.87
3939.87
3939.88
3939.88
3939.89
3939.85
3939.85
3939.85
3939.85
3939.86
3939.89
3939.89
3939.84
3842.75
3842.75
3842.75
3842.76
3842.76
3842.76
3842.76
3842.76
3842.76
3842.76
3842.76
3842.77
3842.77
3842.77
3842.78
3842.78
3842.75
3842.75
3842.75
3842.75
3842.75
3842.75
3842.75
3842.76
3842.77
3842.77
3842.78
3842.79
3842.8
3842.81
3842.83
3842.84
3842.74
3842.74
3842.74
3842.74
3842.74
3842.74
3842.74
3842.74
3842.73
3842.73
3842.73
3842.73
3842.74
3842.74
3842.74
3842.75
3842.71
3842.71
3842.71
3842.71
3842.71
3842.71
3842.71
3842.71
3745.65
3745.65
3745.65
3745.65
3745.65
3745.65
3745.65
3745.65
3745.65
3745.65
3745.65
3745.66
3745.66
3745.66
3745.66
3745.67
3745.64
3745.64
3745.64
3745.64
3745.64
3745.64
3745.64
3745.65
3745.66
3745.66
3745.66
3745.67
3745.67
3745.68
3745.69
3745.7
3745.63
3745.63
3745.63
3745.63
3745.63
3745.63
3745.63
3745.63
3745.62
3745.62
3745.62
3745.63
3745.63
3745.63
3745.63
3745.63
3745.6
3745.6
3745.6
3745.6
3745.6
3745.6
3745.6
3745.6
3648.54
3648.54
3648.54
3648.54
3648.54
3648.54
3648.54
3648.54
3648.54
3648.54
3648.54
3648.54
3648.55
3648.55
3648.55
3648.55
3648.53
3648.53
3648.53
3648.53
3648.53
3648.53
3648.53
3648.53
3648.54
3648.54
3648.54
3648.55
3648.55
3648.56
3648.57
3648.57
3648.52
3648.52
3648.52
3648.52
3648.52
3648.52
3648.52
3648.52
3648.51
3648.51
3648.51
3648.52
3648.52
3648.52
3648.52
3648.52
3648.5
3648.5
3648.5
3648.5
3648.5
3648.5
3648.5
3648.49
3551.43
3551.43
3551.43
3551.43
3551.43
3551.43
3551.43
3551.43
3551.43
3551.43
3551.43
3551.43
3551.43
3551.43
3551.43
3551.44
3551.42
3551.42
3551.42
3551.42
3551.42
3551.42
3551.42
3551.42
3551.42
3551.42
3551.43
3551.43
3551.43
3551.44
3551.44
3551.45
3551.41
3551.41
3551.41
3551.41
3551.41
3551.41
3551.41
3551.41
3551.4
3551.4
3551.4
3551.4
3551.4
3551.41
3551.41
3551.41
3551.39
3551.39
3551.39
3551.39
3551.39
3551.39
3551.39
3551.39
3454.32
3454.32
3454.32
3454.32
3454.32
3454.32
3454.32
3454.32
3454.32
3454.32
3454.32
3454.32
3454.32
3454.32
3454.32
3454.32
3454.31
3454.31
3454.31
3454.31
3454.31
3454.31
3454.31
3454.31
3454.31
3454.31
3454.31
3454.31
3454.32
3454.32
3454.32
3454.33
3454.3
3454.3
3454.3
3454.3
3454.3
3454.3
3454.3
3454.3
3454.29
3454.29
3454.29
3454.29
3454.29
3454.29
3454.3
3454.3
3454.28
3454.28
3454.28
3454.28
3454.28
3454.28
3454.28
3454.28
3357.2
3357.2
3357.2
3357.2
3357.2
3357.2
3357.2
3357.2
3357.2
3357.2
3357.2
3357.21
3357.21
3357.21
3357.21
3357.21
3357.2
3357.2
3357.2
3357.2
3357.2
3357.2
3357.2
3357.2
3357.2
3357.2
3357.2
3357.2
3357.2
3357.2
3357.21
3357.21
3357.19
3357.19
3357.19
3357.19
3357.19
3357.19
3357.19
3357.19
3357.18
3357.18
3357.18
3357.18
3357.18
3357.18
3357.18
3357.19
3357.17
3357.17
3357.17
3357.17
3357.17
3357.17
3357.17
3357.17
3260.09
3260.09
3260.09
3260.09
3260.09
3260.09
3260.09
3260.09
3260.09
3260.09
3260.09
3260.09
3260.09
3260.09
3260.09
3260.09
3260.09
3260.09
3260.09
3260.09
3260.09
3260.09
3260.09
3260.09
3260.09
3260.09
3260.09
3260.09
3260.09
3260.09
3260.09
3260.09
3260.08
3260.08
3260.08
3260.08
3260.08
3260.08
3260.08
3260.08
3260.07
3260.07
3260.07
3260.07
3260.07
3260.07
3260.07
3260.07
3260.07
3260.07
3260.07
3260.07
3260.07
3260.06
3260.06
3260.06
3162.98
3162.98
3162.98
3162.98
3162.98
3162.98
3162.98
3162.98
3162.98
3162.98
3162.98
3162.98
3162.98
3162.98
3162.98
3162.98
3162.98
3162.98
3162.98
3162.98
3162.98
3162.97
3162.97
3162.97
3162.97
3162.97
3162.98
3162.98
3162.98
3162.98
3162.98
3162.98
3162.97
3162.97
3162.97
3162.97
3162.97
3162.97
3162.97
3162.97
3162.96
3162.96
3162.96
3162.96
3162.96
3162.96
3162.96
3162.96
3162.96
3162.96
3162.96
3162.96
3162.96
3162.96
3162.95
3162.95
3065.87
3065.87
3065.87
3065.87
3065.87
3065.87
3065.87
3065.87
3065.87
3065.87
3065.87
3065.87
3065.87
3065.87
3065.87
3065.86
3065.86
3065.86
3065.86
3065.86
3065.86
3065.86
3065.86
3065.86
3065.86
3065.86
3065.86
3065.86
3065.86
3065.86
3065.86
3065.86
3065.86
3065.86
3065.86
3065.85
3065.85
3065.85
3065.85
3065.85
3065.85
3065.85
3065.85
3065.85
3065.85
3065.85
3065.85
3065.85
3065.85
3065.85
3065.85
3065.85
3065.84
3065.84
3065.84
3065.84
2968.75
2968.75
2968.75
2968.75
2968.75
2968.75
2968.75
2968.75
2968.75
2968.75
2968.75
2968.75
2968.75
2968.75
2968.75
2968.74
2968.75
2968.75
2968.75
2968.74
2968.74
2968.74
2968.74
2968.74
2968.74
2968.74
2968.74
2968.74
2968.74
2968.74
2968.74
2968.74
2968.74
2968.74
2968.74
2968.74
2968.74
2968.73
2968.73
2968.73
2968.74
2968.74
2968.73
2968.73
2968.73
2968.73
2968.73
2968.73
2968.73
2968.73
2968.73
2968.73
2968.73
2968.73
2968.72
2968.72
2871.63
2871.63
2871.63
2871.63
2871.63
2871.63
2871.62
2871.62
2871.63
2871.63
2871.63
2871.63
2871.62
2871.62
2871.62
2871.62
2871.62
2871.62
2871.62
2871.62
2871.62
2871.62
2871.62
2871.61
2871.62
2871.62
2871.62
2871.62
2871.62
2871.61
2871.61
2871.61
2871.62
2871.62
2871.62
2871.61
2871.61
2871.61
2871.61
2871.61
2871.61
2871.61
2871.61
2871.61
2871.61
2871.61
2871.61
2871.6
2871.61
2871.61
2871.61
2871.61
2871.61
2871.6
2871.6
2871.6
2774.5
2774.5
2774.5
2774.5
2774.5
2774.5
2774.5
2774.49
2774.5
2774.5
2774.5
2774.5
2774.5
2774.49
2774.49
2774.49
2774.5
2774.5
2774.49
2774.49
2774.49
2774.49
2774.49
2774.49
2774.49
2774.49
2774.49
2774.49
2774.49
2774.49
2774.48
2774.48
2774.49
2774.49
2774.49
2774.49
2774.48
2774.48
2774.48
2774.48
2774.49
2774.49
2774.48
2774.48
2774.48
2774.48
2774.48
2774.47
2774.48
2774.48
2774.48
2774.48
2774.48
2774.48
2774.47
2774.47
2677.38
2677.37
2677.37
2677.37
2677.37
2677.37
2677.37
2677.37
2677.37
2677.37
2677.37
2677.37
2677.37
2677.36
2677.36
2677.36
2677.37
2677.37
2677.36
2677.36
2677.36
2677.36
2677.36
2677.36
2677.36
2677.36
2677.36
2677.36
2677.36
2677.36
2677.35
2677.35
2677.36
2677.36
2677.36
2677.35
2677.35
2677.35
2677.35
2677.35
2677.36
2677.36
2677.35
2677.35
2677.35
2677.35
2677.35
2677.35
2677.35
2677.35
2677.35
2677.35
2677.35
2677.35
2677.34
2677.34
3939.85
3939.81
3939.83
3939.76
3939.77
3939.78
3939.78
3939.79
3939.75
3939.76
3939.76
3939.76
3939.77
3939.77
3939.77
3939.77
3939.75
3939.75
3939.75
3939.76
3939.76
3939.76
3939.76
3939.76
3842.7
3842.69
3842.69
3842.69
3842.69
3842.69
3842.69
3842.69
3842.7
3842.69
3842.68
3842.68
3842.68
3842.68
3842.68
3842.68
3842.69
3842.7
3842.69
3842.68
3842.68
3842.67
3842.67
3842.67
3842.67
3842.68
3842.69
3842.69
3842.69
3842.68
3842.68
3842.68
3842.66
3842.66
3842.67
3842.67
3842.67
3842.67
3842.67
3842.67
3842.66
3842.66
3842.66
3842.66
3842.66
3842.67
3842.67
3842.67
3842.66
3842.66
3842.66
3842.66
3842.66
3842.66
3842.66
3842.66
3745.59
3745.59
3745.59
3745.59
3745.59
3745.59
3745.59
3745.59
3745.58
3745.58
3745.58
3745.58
3745.58
3745.58
3745.58
3745.58
3745.57
3745.57
3745.57
3745.57
3745.57
3745.57
3745.57
3745.57
3745.57
3745.57
3745.57
3745.57
3745.57
3745.57
3745.57
3745.57
3745.56
3745.56
3745.56
3745.56
3745.56
3745.56
3745.56
3745.56
3745.56
3745.56
3745.56
3745.56
3745.56
3745.56
3745.56
3745.56
3745.56
3745.56
3745.56
3745.56
3745.56
3745.56
3745.56
3745.56
3648.49
3648.49
3648.49
3648.49
3648.49
3648.49
3648.49
3648.48
3648.48
3648.48
3648.48
3648.48
3648.48
3648.48
3648.48
3648.48
3648.47
3648.47
3648.47
3648.47
3648.47
3648.47
3648.47
3648.47
3648.47
3648.47
3648.47
3648.47
3648.47
3648.47
3648.47
3648.47
3648.46
3648.46
3648.46
3648.46
3648.46
3648.46
3648.46
3648.46
3648.46
3648.46
3648.46
3648.46
3648.46
3648.46
3648.46
3648.46
3648.46
3648.46
3648.46
3648.46
3648.46
3648.46
3648.46
3648.46
3551.38
3551.38
3551.38
3551.38
3551.38
3551.38
3551.38
3551.38
3551.37
3551.37
3551.37
3551.37
3551.37
3551.37
3551.37
3551.37
3551.37
3551.37
3551.37
3551.37
3551.37
3551.36
3551.36
3551.36
3551.36
3551.36
3551.36
3551.36
3551.36
3551.36
3551.36
3551.36
3551.36
3551.36
3551.36
3551.36
3551.36
3551.36
3551.36
3551.36
3551.36
3551.36
3551.36
3551.36
3551.36
3551.36
3551.36
3551.36
3551.36
3551.36
3551.36
3551.36
3551.35
3551.35
3551.35
3551.35
3454.27
3454.27
3454.27
3454.27
3454.27
3454.27
3454.27
3454.27
3454.27
3454.27
3454.27
3454.27
3454.27
3454.27
3454.26
3454.26
3454.26
3454.26
3454.26
3454.26
3454.26
3454.26
3454.26
3454.26
3454.26
3454.26
3454.26
3454.26
3454.26
3454.26
3454.26
3454.26
3454.25
3454.26
3454.25
3454.25
3454.25
3454.25
3454.25
3454.25
3454.25
3454.25
3454.25
3454.25
3454.25
3454.25
3454.25
3454.25
3454.25
3454.25
3454.25
3454.25
3454.25
3454.25
3454.25
3454.25
3357.17
3357.17
3357.17
3357.17
3357.17
3357.17
3357.17
3357.16
3357.16
3357.16
3357.16
3357.16
3357.16
3357.16
3357.16
3357.16
3357.16
3357.16
3357.16
3357.16
3357.16
3357.15
3357.15
3357.15
3357.15
3357.15
3357.15
3357.15
3357.15
3357.15
3357.15
3357.15
3357.15
3357.15
3357.15
3357.15
3357.15
3357.15
3357.15
3357.15
3357.15
3357.15
3357.15
3357.15
3357.15
3357.15
3357.15
3357.15
3357.15
3357.15
3357.15
3357.15
3357.15
3357.15
3357.15
3357.15
3260.06
3260.06
3260.06
3260.06
3260.06
3260.06
3260.06
3260.06
3260.06
3260.06
3260.06
3260.06
3260.05
3260.05
3260.05
3260.05
3260.05
3260.05
3260.05
3260.05
3260.05
3260.05
3260.05
3260.05
3260.05
3260.05
3260.05
3260.05
3260.05
3260.05
3260.05
3260.05
3260.05
3260.05
3260.05
3260.05
3260.05
3260.05
3260.05
3260.04
3260.05
3260.05
3260.05
3260.05
3260.05
3260.05
3260.04
3260.04
3260.05
3260.05
3260.05
3260.05
3260.05
3260.05
3260.04
3260.04
3162.95
3162.95
3162.95
3162.95
3162.95
3162.95
3162.95
3162.95
3162.95
3162.95
3162.95
3162.95
3162.95
3162.95
3162.95
3162.95
3162.95
3162.95
3162.95
3162.95
3162.94
3162.94
3162.94
3162.94
3162.95
3162.95
3162.95
3162.94
3162.94
3162.94
3162.94
3162.94
3162.94
3162.94
3162.94
3162.94
3162.94
3162.94
3162.94
3162.94
3162.94
3162.94
3162.94
3162.94
3162.94
3162.94
3162.94
3162.94
3162.95
3162.95
3162.95
3162.94
3162.94
3162.94
3162.94
3162.94
3065.84
3065.84
3065.84
3065.84
3065.84
3065.84
3065.84
3065.84
3065.84
3065.84
3065.84
3065.84
3065.84
3065.84
3065.84
3065.83
3065.84
3065.84
3065.84
3065.84
3065.84
3065.83
3065.83
3065.83
3065.84
3065.84
3065.84
3065.84
3065.83
3065.83
3065.83
3065.83
3065.84
3065.84
3065.84
3065.84
3065.83
3065.83
3065.83
3065.83
3065.84
3065.84
3065.84
3065.84
3065.84
3065.83
3065.83
3065.83
3065.84
3065.84
3065.84
3065.84
3065.84
3065.84
3065.83
3065.83
2968.73
2968.73
2968.73
2968.73
2968.73
2968.72
2968.72
2968.72
2968.73
2968.73
2968.73
2968.72
2968.72
2968.72
2968.72
2968.72
2968.73
2968.73
2968.72
2968.72
2968.72
2968.72
2968.72
2968.72
2968.73
2968.73
2968.72
2968.72
2968.72
2968.72
2968.72
2968.72
2968.73
2968.73
2968.72
2968.72
2968.72
2968.72
2968.72
2968.72
2968.73
2968.73
2968.73
2968.72
2968.72
2968.72
2968.72
2968.72
2968.73
2968.73
2968.73
2968.73
2968.73
2968.72
2968.72
2968.72
2871.61
2871.61
2871.61
2871.61
2871.6
2871.6
2871.6
2871.6
2871.61
2871.61
2871.61
2871.6
2871.6
2871.6
2871.6
2871.6
2871.61
2871.61
2871.6
2871.6
2871.6
2871.6
2871.6
2871.59
2871.61
2871.61
2871.61
2871.6
2871.6
2871.6
2871.6
2871.59
2871.61
2871.61
2871.61
2871.6
2871.6
2871.6
2871.6
2871.6
2871.61
2871.61
2871.61
2871.61
2871.6
2871.6
2871.6
2871.6
2871.61
2871.61
2871.61
2871.61
2871.61
2871.61
2871.6
2871.6
2774.48
2774.48
2774.48
2774.48
2774.48
2774.47
2774.47
2774.47
2774.48
2774.48
2774.48
2774.48
2774.48
2774.47
2774.47
2774.47
2774.48
2774.48
2774.48
2774.48
2774.47
2774.47
2774.47
2774.47
2774.48
2774.48
2774.48
2774.48
2774.48
2774.47
2774.47
2774.47
2774.49
2774.48
2774.48
2774.48
2774.48
2774.48
2774.47
2774.47
2774.49
2774.49
2774.49
2774.48
2774.48
2774.48
2774.48
2774.47
2774.49
2774.49
2774.49
2774.49
2774.48
2774.48
2774.48
2774.48
2677.35
2677.35
2677.35
2677.35
2677.35
2677.35
2677.34
2677.34
2677.35
2677.35
2677.35
2677.35
2677.35
2677.34
2677.34
2677.34
2677.35
2677.35
2677.35
2677.35
2677.35
2677.35
2677.34
2677.34
2677.36
2677.35
2677.35
2677.35
2677.35
2677.35
2677.34
2677.34
2677.36
2677.36
2677.36
2677.35
2677.35
2677.35
2677.35
2677.35
2677.36
2677.36
2677.36
2677.36
2677.36
2677.35
2677.35
2677.35
2677.37
2677.37
2677.36
2677.36
2677.36
2677.36
2677.36
2677.35
3939.82
3939.82
3939.82
3939.82
3939.82
3939.83
3939.83
3939.83
3939.84
3939.85
3939.85
3939.85
3939.86
3939.87
3939.87
3939.88
3939.85
3939.85
3939.85
3939.86
3939.86
3939.87
3939.87
3939.88
3939.89
3939.89
3939.9
3939.91
3939.93
3939.95
3939.98
3940
3939.86
3939.86
3939.86
3939.86
3939.86
3939.87
3939.87
3939.88
3939.88
3939.87
3939.88
3939.88
3939.89
3939.89
3939.9
3939.9
3939.85
3939.86
3939.86
3939.86
3939.86
3939.86
3939.86
3939.86
3842.72
3842.72
3842.72
3842.72
3842.72
3842.72
3842.73
3842.73
3842.74
3842.74
3842.75
3842.75
3842.75
3842.76
3842.76
3842.77
3842.75
3842.75
3842.75
3842.75
3842.75
3842.76
3842.76
3842.76
3842.78
3842.78
3842.79
3842.8
3842.81
3842.82
3842.84
3842.85
3842.76
3842.76
3842.76
3842.76
3842.76
3842.76
3842.76
3842.77
3842.77
3842.77
3842.77
3842.77
3842.78
3842.78
3842.79
3842.79
3842.76
3842.76
3842.76
3842.76
3842.76
3842.76
3842.76
3842.76
3745.62
3745.62
3745.62
3745.62
3745.62
3745.62
3745.62
3745.62
3745.63
3745.64
3745.64
3745.64
3745.64
3745.65
3745.65
3745.65
3745.64
3745.64
3745.64
3745.64
3745.65
3745.65
3745.65
3745.65
3745.66
3745.66
3745.67
3745.68
3745.68
3745.69
3745.71
3745.72
3745.65
3745.65
3745.65
3745.65
3745.65
3745.65
3745.65
3745.65
3745.66
3745.66
3745.66
3745.66
3745.67
3745.67
3745.67
3745.68
3745.65
3745.65
3745.65
3745.65
3745.65
3745.65
3745.65
3745.65
3648.51
3648.51
3648.51
3648.51
3648.51
3648.51
3648.51
3648.51
3648.53
3648.53
3648.53
3648.53
3648.53
3648.53
3648.54
3648.54
3648.53
3648.53
3648.53
3648.53
3648.54
3648.54
3648.54
3648.54
3648.55
3648.55
3648.55
3648.56
3648.56
3648.57
3648.58
3648.58
3648.54
3648.54
3648.54
3648.54
3648.54
3648.54
3648.54
3648.54
3648.55
3648.55
3648.55
3648.55
3648.55
3648.55
3648.56
3648.56
3648.54
3648.54
3648.54
3648.54
3648.54
3648.54
3648.54
3648.54
3551.4
3551.4
3551.4
3551.4
3551.4
3551.41
3551.41
3551.41
3551.42
3551.42
3551.42
3551.42
3551.42
3551.42
3551.42
3551.43
3551.42
3551.42
3551.42
3551.42
3551.42
3551.42
3551.43
3551.43
3551.43
3551.43
3551.44
3551.44
3551.44
3551.45
3551.45
3551.46
3551.43
3551.43
3551.43
3551.43
3551.43
3551.43
3551.43
3551.43
3551.43
3551.43
3551.43
3551.44
3551.44
3551.44
3551.44
3551.44
3551.43
3551.43
3551.43
3551.43
3551.43
3551.43
3551.43
3551.43
3454.3
3454.3
3454.3
3454.3
3454.3
3454.3
3454.3
3454.3
3454.31
3454.31
3454.31
3454.31
3454.31
3454.31
3454.31
3454.31
3454.31
3454.31
3454.31
3454.31
3454.31
3454.31
3454.31
3454.31
3454.32
3454.32
3454.32
3454.33
3454.33
3454.33
3454.33
3454.34
3454.32
3454.32
3454.32
3454.32
3454.32
3454.32
3454.32
3454.32
3454.32
3454.32
3454.32
3454.32
3454.32
3454.33
3454.33
3454.33
3454.32
3454.32
3454.32
3454.32
3454.32
3454.32
3454.32
3454.32
3357.19
3357.19
3357.19
3357.19
3357.19
3357.19
3357.19
3357.19
3357.2
3357.2
3357.2
3357.2
3357.2
3357.2
3357.2
3357.2
3357.2
3357.2
3357.2
3357.2
3357.2
3357.2
3357.2
3357.2
3357.21
3357.21
3357.21
3357.21
3357.21
3357.22
3357.22
3357.22
3357.21
3357.21
3357.21
3357.21
3357.21
3357.21
3357.21
3357.21
3357.21
3357.21
3357.21
3357.21
3357.21
3357.21
3357.21
3357.21
3357.21
3357.21
3357.21
3357.21
3357.21
3357.21
3357.21
3357.21
3260.08
3260.08
3260.08
3260.08
3260.08
3260.08
3260.08
3260.08
3260.09
3260.09
3260.09
3260.09
3260.09
3260.09
3260.09
3260.09
3260.09
3260.09
3260.09
3260.09
3260.09
3260.09
3260.09
3260.09
3260.1
3260.1
3260.1
3260.1
3260.1
3260.1
3260.1
3260.11
3260.1
3260.1
3260.1
3260.1
3260.1
3260.1
3260.1
3260.1
3260.1
3260.1
3260.1
3260.1
3260.1
3260.1
3260.1
3260.1
3260.1
3260.1
3260.1
3260.1
3260.1
3260.1
3260.1
3260.1
3162.98
3162.98
3162.98
3162.98
3162.98
3162.98
3162.97
3162.97
3162.98
3162.98
3162.98
3162.98
3162.98
3162.98
3162.98
3162.98
3162.98
3162.98
3162.98
3162.98
3162.98
3162.98
3162.98
3162.98
3162.99
3162.99
3162.99
3162.99
3162.99
3162.99
3162.99
3162.99
3162.99
3162.99
3162.99
3162.99
3162.99
3162.99
3162.99
3162.98
3162.99
3162.99
3162.99
3162.99
3162.99
3162.99
3162.99
3162.99
3162.99
3162.99
3162.99
3162.99
3162.98
3162.98
3162.98
3162.98
3065.87
3065.87
3065.87
3065.87
3065.87
3065.87
3065.86
3065.86
3065.87
3065.87
3065.87
3065.87
3065.87
3065.87
3065.87
3065.87
3065.87
3065.87
3065.87
3065.87
3065.87
3065.87
3065.87
3065.87
3065.88
3065.88
3065.88
3065.88
3065.88
3065.88
3065.88
3065.88
3065.88
3065.88
3065.87
3065.87
3065.87
3065.87
3065.87
3065.87
3065.88
3065.88
3065.87
3065.87
3065.87
3065.87
3065.87
3065.87
3065.87
3065.87
3065.87
3065.87
3065.87
3065.87
3065.87
3065.87
2968.76
2968.76
2968.76
2968.75
2968.75
2968.75
2968.75
2968.75
2968.76
2968.76
2968.76
2968.76
2968.76
2968.76
2968.75
2968.75
2968.76
2968.76
2968.76
2968.76
2968.76
2968.76
2968.75
2968.75
2968.76
2968.76
2968.76
2968.76
2968.76
2968.76
2968.76
2968.76
2968.76
2968.76
2968.76
2968.76
2968.76
2968.76
2968.75
2968.75
2968.76
2968.76
2968.76
2968.76
2968.76
2968.75
2968.75
2968.75
2968.76
2968.76
2968.76
2968.75
2968.75
2968.75
2968.75
2968.75
2871.64
2871.64
2871.64
2871.64
2871.64
2871.63
2871.63
2871.63
2871.64
2871.64
2871.64
2871.64
2871.64
2871.64
2871.63
2871.63
2871.64
2871.64
2871.64
2871.64
2871.64
2871.64
2871.63
2871.63
2871.64
2871.64
2871.64
2871.64
2871.64
2871.64
2871.64
2871.63
2871.64
2871.64
2871.64
2871.64
2871.64
2871.63
2871.63
2871.63
2871.64
2871.64
2871.64
2871.63
2871.63
2871.63
2871.63
2871.63
2871.64
2871.63
2871.63
2871.63
2871.63
2871.63
2871.63
2871.63
2774.52
2774.52
2774.52
2774.52
2774.51
2774.51
2774.51
2774.51
2774.52
2774.52
2774.52
2774.52
2774.51
2774.51
2774.51
2774.51
2774.52
2774.52
2774.52
2774.52
2774.51
2774.51
2774.51
2774.51
2774.52
2774.52
2774.52
2774.51
2774.51
2774.51
2774.51
2774.51
2774.51
2774.51
2774.51
2774.51
2774.51
2774.51
2774.51
2774.51
2774.51
2774.51
2774.51
2774.51
2774.51
2774.51
2774.5
2774.5
2774.51
2774.51
2774.51
2774.5
2774.5
2774.5
2774.5
2774.5
2677.4
2677.4
2677.39
2677.39
2677.39
2677.39
2677.39
2677.39
2677.4
2677.4
2677.39
2677.39
2677.39
2677.39
2677.39
2677.39
2677.39
2677.39
2677.39
2677.39
2677.39
2677.39
2677.39
2677.38
2677.39
2677.39
2677.39
2677.39
2677.39
2677.39
2677.38
2677.38
2677.39
2677.39
2677.39
2677.38
2677.38
2677.38
2677.38
2677.38
2677.38
2677.38
2677.38
2677.38
2677.38
2677.38
2677.38
2677.38
2677.38
2677.38
2677.38
2677.38
2677.37
2677.37
2677.37
2677.37
3788.62
3773.05
3759.94
3755.81
3766.23
3782.17
3797.51
3772.62
3757.31
3755.2
3752.78
3750.62
3763.56
3785.42
3759.09
3754.87
3757.11
3753.96
3746.53
3748.88
3774.72
3750.88
3750.24
3754.67
3750.53
3739.17
3743.47
3769.79
3763.19
3753.86
3752.59
3748.18
3745.56
3751.98
3777.91
3778.41
3760.85
3753.49
3750.6
3752.55
3769.36
3789.47
3794.42
3781.33
3769.52
3766.3
3775.26
3788.64
3801.89
3743.13
3743.08
3744.22
3743.35
3742.85
3741.92
3742.94
3743.12
3748.06
3752.03
3752.32
3749.97
3742.89
3741.78
3744.43
3753.27
3753.15
3752.05
3754.53
3745.29
3740.95
3742.8
3753.61
3749.23
3752.23
3750.93
3742.01
3739.08
3743.11
3751.54
3753.64
3752.07
3751.6
3743.27
3740.47
3741.89
3743.94
3746.56
3745.36
3744.16
3740.64
3741.2
3742.71
3741.76
3741.17
3740.15
3740.78
3741.23
3742.67
3689.24
3696.28
3703.03
3706.03
3699.59
3692.35
3685.46
3696.88
3710.84
3730.99
3738.86
3720.41
3702.2
3691.34
3704.58
3731.75
3748.89
3753.01
3748.07
3715.44
3696.3
3709.63
3743.95
3752.34
3751.18
3755.69
3723.01
3698.47
3701.73
3724.34
3749.86
3756.53
3739.34
3710.35
3694.43
3693.71
3704.59
3718.76
3723.62
3711.04
3697.98
3688.65
3685.94
3692.15
3697.11
3698.36
3694.58
3688.61
3682.47
3603.74
3610.45
3615.06
3617.06
3613.42
3608.02
3600.93
3610.77
3618.75
3628.34
3635.9
3623.6
3615.28
3607.18
3615.84
3630.22
3667.16
3685.57
3641.43
3621.64
3611.44
3619.21
3644.3
3708.68
3706.32
3661.98
3626.58
3613.37
3613.84
3625.28
3648.11
3657.84
3632.62
3618.1
3609.01
3607.73
3615.28
3621.47
3623.93
3618.11
3611.77
3603.93
3599.8
3606.28
3610.48
3611.54
3608.63
3603.66
3597.24
3496.52
3501.44
3505.36
3507.69
3505.22
3501.15
3496.01
3500.52
3505.51
3508.59
3512.44
3507.58
3505.98
3500.26
3502.95
3506.41
3508.42
3517.81
3508.93
3508.27
3503.26
3503.99
3507.4
3516.73
3549.4
3515.1
3511.41
3504.74
3501.76
3505.59
3508.14
3513.98
3509.62
3508.34
3502.47
3498.56
3503.5
3507.23
3509.98
3507.85
3504.2
3498.65
3494.16
3498.37
3501.76
3503.44
3501.75
3498.37
3493.97
3371.1
3367.95
3363.61
3362.05
3363.27
3367.57
3370.89
3369.13
3361.87
3350.81
3344.99
3354.33
3360.64
3368.72
3367.94
3356.21
3336.7
3335.05
3340.34
3354.79
3367.21
3368.5
3356.77
3332.88
3336.36
3342.4
3355.37
3368.26
3369.54
3361.17
3346.26
3340.59
3351.63
3361.5
3369.88
3371.69
3368.14
3362.91
3361.15
3363.9
3368.72
3372.25
3373.36
3372.33
3371.51
3371.62
3371.83
3372.82
3373.89
3250.19
3241.58
3236.11
3235.13
3237.7
3243.79
3251.99
3242.58
3233.2
3229.45
3236.26
3237.06
3237.28
3245.62
3237.17
3227.48
3229.95
3227.71
3232.78
3236.26
3241.16
3236.59
3224.74
3229.02
3227.76
3230.22
3236.24
3240.22
3240.09
3230.75
3228.74
3231.49
3237.92
3235.56
3243.68
3247.35
3237.67
3232.28
3232.33
3235.21
3240.81
3249.88
3254.89
3248.56
3243.43
3241.57
3244.41
3250.21
3256.64
3163.41
3159.54
3159.11
3159.84
3160.74
3161.73
3165.51
3159.14
3158.51
3162.67
3163.86
3164.79
3161.69
3162.11
3155.58
3157.95
3160.94
3162.97
3162.79
3162.79
3159.57
3153.48
3156.57
3162.19
3160.52
3159.77
3162.36
3158.36
3155.93
3156.2
3158.88
3159.05
3159.41
3159.21
3159.26
3159.89
3155.68
3156.02
3157.85
3157.46
3157.99
3162.24
3164.87
3160.51
3157.15
3155.77
3158.04
3161.94
3166.54
3097.42
3100.25
3104.57
3105.57
3103.85
3099.82
3097.59
3099.62
3107.43
3116.05
3115.59
3114.23
3105.77
3099.19
3101.55
3113.12
3116.79
3113.41
3115.95
3109.65
3100.16
3101.42
3113.06
3114.42
3110.59
3113.89
3109.18
3099.68
3099.77
3109.23
3115.25
3113.71
3113.3
3106.68
3098.81
3096.97
3101.17
3107.04
3108.29
3106.07
3100.24
3096.84
3095.35
3096.66
3098.26
3098.42
3097.98
3096.48
3095.52
3020.53
3025.24
3030.39
3033.33
3029.66
3024.9
3020.57
3024.71
3033.4
3047.55
3055.5
3045.17
3032.13
3024.52
3028.43
3044.41
3069.33
3070.46
3063.6
3041.03
3027.65
3029.62
3048.2
3068.59
3073.06
3067.82
3043.81
3028.41
3026.51
3038.94
3058.7
3067.24
3056.51
3036.88
3026.02
3022.16
3028.53
3037.17
3041.75
3035.95
3027.87
3021.93
3017.84
3021.76
3025.2
3026.68
3024.66
3021.37
3017.61
2923.77
2926.63
2929.07
2930.09
2928.84
2926.75
2923.93
2926.11
2928.34
2930.39
2933.87
2930.68
2929.11
2926.62
2927.83
2930.5
2938.82
2954.63
2938
2931.68
2928.7
2928.62
2933.34
2947.07
2969.45
2941.67
2931.88
2929.3
2927.05
2929.29
2933.49
2940.37
2931.82
2929.91
2927.51
2924.87
2927.8
2930.52
2932.02
2930.03
2927.83
2924.97
2922.02
2924.77
2926.91
2927.81
2926.74
2924.62
2921.85
2816.05
2816.4
2815.77
2815.01
2815
2815.43
2815.25
2816.55
2815.31
2810.69
2807.59
2809.21
2813.53
2815.43
2816.89
2814.34
2808.76
2805.18
2800.82
2810.19
2815.17
2816.55
2811.47
2805.67
2803.83
2801.02
2810.65
2815.17
2815.79
2812.42
2804.02
2799.73
2804.38
2811.64
2815.14
2815.66
2815.02
2812.57
2811.09
2812.41
2814.53
2815.23
2815.11
2815.6
2815.61
2815.58
2815.38
2815.24
2814.74
2705.44
2703.26
2701.26
2700.66
2702.25
2704.06
2705.99
2703.41
2699.32
2700.88
2708.01
2698.93
2701.33
2704.38
2701.54
2695.63