/*--------------------------------*- C++ -*----------------------------------*\
| =========                 |                                                 |
| \\      /  F ield         | OpenFOAM: The Open Source CFD Toolbox           |
|  \\    /   O peration     | Version:  plus.master                           |
|   \\  /    A nd           | Web:      www.OpenFOAM.com                      |
|    \\/     M anipulation  |                                                 |
\*---------------------------------------------------------------------------*/
FoamFile
{
    version     2.0;
    format      ascii;
    class       volScalarField;
    location    "10.8";
    object      k;
}
// * * * * * * * * * * * * * * * * * * * * * * * * * * * * * * * * * * * * * //

dimensions      [0 2 -2 0 0 0 0];

internalField   nonuniform List<scalar> 
47285
(
0.000577012
0.00198087
0.00621696
0.0066127
0.00273635
0.000740283
0.000248741
0.00158778
0.00679222
0.0300673
0.0431905
0.0172788
0.00430423
0.000897722
0.00426425
0.0220306
0.0280698
0.0450667
0.0196561
0.0208721
0.00374098
0.00837887
0.0504128
0.0464393
0.0601497
0.0606179
0.0339788
0.00651603
0.00539283
0.0275056
0.0279047
0.0394975
0.0227828
0.023998
0.00484257
0.00181733
0.00701554
0.0308181
0.0505621
0.0168501
0.00630092
0.00142889
0.000641827
0.00206568
0.00636818
0.00734822
0.00303641
0.0011623
0.00039217
0.00112576
0.00476592
0.01089
0.0117774
0.00419157
0.00113182
0.000626915
0.00416243
0.0167662
0.040865
0.0564503
0.0208988
0.00561054
0.0011094
0.0116119
0.0391163
0.052583
0.14606
0.0454214
0.0190113
0.00347997
0.0193165
0.0726172
0.154091
0.157393
0.236457
0.0384482
0.00650476
0.0138065
0.0454258
0.0545564
0.0950459
0.0547645
0.0257083
0.0054747
0.00510743
0.0192104
0.0470834
0.0749289
0.0276631
0.00935222
0.00203541
0.00141717
0.00573
0.0143261
0.0171867
0.00728581
0.0020391
0.000691192
0.00267049
0.00768969
0.0147638
0.0158308
0.00614634
0.00216688
0.00163621
0.00778976
0.0228822
0.043629
0.0579201
0.0243488
0.0064885
0.0019904
0.0180818
0.0480772
0.0766067
0.150022
0.0653779
0.0181511
0.00364093
0.0283865
0.0827259
0.14199
0.182522
0.221651
0.0357023
0.00625429
0.0211136
0.0541846
0.0789846
0.0927315
0.0813569
0.0248188
0.00558385
0.0100864
0.0278744
0.0528711
0.0783067
0.0347933
0.0112234
0.00275978
0.00359061
0.0104233
0.0204412
0.0239788
0.0110359
0.00331621
0.00168037
0.00455838
0.0089811
0.0163237
0.016579
0.00747892
0.00387649
0.00345414
0.00987955
0.0258056
0.0453344
0.0543987
0.0253067
0.007427
0.00368687
0.0218203
0.0540231
0.0913254
0.127212
0.0655738
0.0181388
0.00468785
0.0337668
0.0872486
0.12553
0.147167
0.15731
0.0321243
0.00642786
0.025854
0.0613006
0.0955639
0.103209
0.0807186
0.0235649
0.00590169
0.0133969
0.0330792
0.0577902
0.0731716
0.036517
0.0116261
0.00414226
0.00584174
0.013221
0.0238433
0.0261427
0.012596
0.00485244
0.00350375
0.00520134
0.00876696
0.0152802
0.015278
0.00743111
0.00454128
0.00414254
0.0100051
0.0251185
0.0428552
0.0465012
0.0233055
0.00736667
0.00437299
0.0223787
0.0542208
0.0897037
0.0991601
0.0567614
0.0167435
0.00511293
0.0349688
0.0873365
0.109115
0.104828
0.10953
0.0284435
0.00635892
0.0271399
0.0634092
0.0958025
0.0956409
0.0710421
0.0214549
0.00590315
0.0138806
0.0341521
0.0582433
0.0667346
0.0344145
0.0108825
0.0047094
0.00649994
0.0134286
0.0240572
0.0251042
0.0123322
0.00539845
0.00425014
0.000159564
0.000152583
0.00015074
0.000145319
0.000141325
0.000137791
0.000134635
0.000132036
0.000298699
0.000179755
0.000151888
0.000142049
0.000136314
0.000131623
0.000127673
0.000124475
0.00105795
0.000314861
0.000173213
0.000145334
0.000136921
0.000131355
0.000126455
0.000122147
0.00202071
0.000559678
0.000208387
0.000147631
0.000135186
0.000129001
0.000125817
0.000123542
0.00140605
0.000399799
0.000186505
0.000149307
0.000140194
0.000134887
0.000130662
0.000127063
0.00050191
0.000230573
0.000169177
0.00015158
0.00014404
0.000139361
0.000136079
0.000133401
0.000214808
0.000167529
0.000158344
0.000151994
0.00014801
0.000145152
0.000142832
0.000140387
0.000549737
0.000512311
0.000474934
0.000441649
0.000412864
0.000387723
0.000365137
0.000343921
0.000591182
0.000527076
0.000486132
0.000449817
0.000418176
0.000390773
0.000366595
0.000344071
0.000739845
0.000527959
0.000481686
0.000446453
0.000415368
0.00038807
0.000363862
0.00034132
0.000968918
0.000530539
0.000478454
0.000445562
0.000415515
0.000388167
0.000363865
0.000340875
0.000937651
0.000528273
0.000476007
0.000444263
0.00041563
0.00038975
0.000366357
0.000344136
0.000637958
0.000508453
0.000471271
0.000441202
0.000414613
0.000390885
0.000369358
0.000348588
0.000528926
0.000490314
0.000459952
0.000431971
0.000407087
0.000385157
0.000365223
0.000345945
0.00152952
0.0014526
0.00134568
0.00121689
0.00107516
0.000929079
0.000787683
0.000660515
0.00155257
0.00146954
0.00137013
0.00124439
0.001101
0.000949459
0.000799831
0.000663318
0.00160092
0.00144896
0.00136529
0.0012515
0.00111278
0.000960657
0.000806906
0.000664641
0.00167616
0.00142063
0.00135435
0.00125182
0.00111743
0.000965548
0.000810044
0.000665548
0.00172816
0.00143264
0.00134921
0.00124168
0.00110659
0.00095622
0.000803807
0.000663343
0.00155278
0.00142311
0.00133138
0.00121481
0.00107791
0.000931438
0.000786988
0.000656567
0.0014666
0.00139424
0.00129661
0.00117529
0.00103971
0.00089982
0.000765603
0.000646822
0.00327326
0.0030592
0.0027856
0.00250036
0.00224281
0.00202959
0.00185204
0.00167039
0.00333206
0.00315216
0.00288576
0.00258304
0.00229726
0.00205886
0.00186671
0.00167911
0.00331681
0.00315772
0.00293308
0.00263913
0.00234194
0.00208718
0.001883
0.00168876
0.00330138
0.00312901
0.00294399
0.00266491
0.00236586
0.00210294
0.00189068
0.00169041
0.00337135
0.00314592
0.00293277
0.00264636
0.00234959
0.00209121
0.00188123
0.0016801
0.00331835
0.00313083
0.0028799
0.00258494
0.0022995
0.00205652
0.00185614
0.00165782
0.00323139
0.00303549
0.00277516
0.00249605
0.00223874
0.00202145
0.00183647
0.00164506
0.00391898
0.00365676
0.00335532
0.00303193
0.00268655
0.00230129
0.00185827
0.00139015
0.00401476
0.0037639
0.00345009
0.00311112
0.00276056
0.00237844
0.00193495
0.00145241
0.00402312
0.00380313
0.0035184
0.00318307
0.00283014
0.00244606
0.00199566
0.00149715
0.00400098
0.00379434
0.00354342
0.00321761
0.00286348
0.00247578
0.00201985
0.00151288
0.00405217
0.0038007
0.00352659
0.00319474
0.00283886
0.00244971
0.00199459
0.00149212
0.00402546
0.00377763
0.00347739
0.00314056
0.00278349
0.00239109
0.00193725
0.00144512
0.00394155
0.0037034
0.00341963
0.00310336
0.00275451
0.00235661
0.00189456
0.00140398
0.000243602
0.000175135
0.000165801
0.000161453
0.000158235
0.0001554
0.000153216
0.000151183
0.000570539
0.000228907
0.000166821
0.000150042
0.000142545
0.000137356
0.00013435
0.000131096
0.00175584
0.000559834
0.000225862
0.000152907
0.000134997
0.000126469
0.00012164
0.000116147
0.002572
0.000797713
0.000264831
0.000153185
0.000129031
0.000120051
0.00011312
0.000106825
0.0012914
0.000418183
0.000195822
0.000148528
0.000136401
0.000129338
0.000123104
0.000117642
0.000447562
0.00020208
0.000161705
0.000147523
0.000140943
0.000135711
0.000132026
0.000129334
0.000227147
0.000167088
0.000157358
0.000151232
0.000148042
0.000148492
0.000148536
0.000145989
0.000691143
0.000584693
0.000538467
0.000496887
0.000458596
0.000424593
0.000394589
0.000367461
0.0011914
0.000660519
0.000580099
0.000535126
0.000492236
0.000451582
0.000414294
0.000380272
0.00308405
0.000886936
0.000628248
0.000575085
0.000530661
0.000483959
0.000438403
0.000395159
0.00405907
0.000950614
0.000614886
0.00056132
0.000517871
0.00047105
0.000425143
0.000383045
0.00216596
0.000715476
0.000577916
0.000536885
0.00049581
0.00045263
0.000410451
0.000371821
0.000912622
0.000581801
0.000527987
0.000491238
0.000454167
0.000418828
0.000386649
0.000357531
0.00060741
0.000536119
0.00050006
0.000465164
0.000432369
0.000402861
0.000376957
0.000353658
0.00185827
0.00158819
0.00148335
0.00136672
0.00122158
0.00105633
0.000886649
0.000730516
0.00300507
0.00171055
0.00151108
0.00141466
0.00129743
0.00114933
0.000980395
0.000808738
0.00603148
0.00202913
0.00148147
0.00139119
0.00130469
0.00118353
0.00103203
0.000863958
0.00772896
0.00212235
0.00141913
0.00133467
0.00125127
0.00113085
0.000981361
0.000817101
0.00464199
0.00178233
0.00145449
0.00137544
0.00127952
0.0011484
0.000989578
0.000818249
0.00235238
0.00157511
0.00144652
0.0013521
0.00122887
0.00107791
0.000911879
0.000748294
0.00164214
0.0014927
0.00140774
0.00129652
0.00115683
0.00100011
0.000841547
0.000696969
0.00381585
0.00340215
0.00312012
0.00282068
0.00252812
0.00227085
0.00204951
0.00182602
0.00516308
0.0036045
0.00323741
0.00296552
0.00268835
0.00243721
0.00222988
0.00203154
0.00847782
0.00386828
0.00317748
0.00293959
0.00269355
0.00245577
0.00226711
0.00210673
0.0104337
0.003909
0.00305237
0.00283943
0.00259738
0.00234512
0.00213624
0.00195759
0.00687222
0.00361773
0.00314833
0.00291503
0.00265424
0.00240306
0.00220173
0.00202853
0.00431638
0.00342342
0.00314399
0.00287506
0.00259502
0.00234447
0.00213988
0.00194646
0.00351188
0.00325734
0.00300251
0.00271574
0.00243809
0.00219728
0.001992
0.00178444
0.00462202
0.00416958
0.0038344
0.00346946
0.00306326
0.00260227
0.00206943
0.00150039
0.00596429
0.00448265
0.00407521
0.00375509
0.00339686
0.00296482
0.00242094
0.00179167
0.00915981
0.00482526
0.00415572
0.00390182
0.00363394
0.00328488
0.00278875
0.0021567
0.0111432
0.00486187
0.00404727
0.00382262
0.0035879
0.0032915
0.00287183
0.00232086
0.00757538
0.00455588
0.00408468
0.00384379
0.00357323
0.00322902
0.0027518
0.00214878
0.00510037
0.00426399
0.00395466
0.00365688
0.00331848
0.00291353
0.00240162
0.00180416
0.00428835
0.00399026
0.00369097
0.00335081
0.00297365
0.0025455
0.00204451
0.00150224
0.000279086
0.000177057
0.000154723
0.000150225
0.000148436
0.000146199
0.000143186
0.00014125
0.000746884
0.000279181
0.000159593
0.000134292
0.000128925
0.000126264
0.000124014
0.000121943
0.0019175
0.000540794
0.000198548
0.000132677
0.000115606
0.000106881
9.99268e-05
9.34099e-05
0.00196015
0.000537259
0.000197168
0.000136176
0.000120171
0.000111155
0.000103619
9.75164e-05
0.000753855
0.000247943
0.000158172
0.00013806
0.000129554
0.000122901
0.000118029
0.000113174
0.000234428
0.000157407
0.000151237
0.000142718
0.000136442
0.00013058
0.000127284
0.000125173
0.000153533
0.000148024
0.000149309
0.000145561
0.00014241
0.000139965
0.000137482
0.000134653
0.000630293
0.000536199
0.000504073
0.000474268
0.000445446
0.000418057
0.000392334
0.000367369
0.00110396
0.000592597
0.000525076
0.000488647
0.00045528
0.000424
0.000396503
0.000370724
0.00205997
0.000661601
0.000529581
0.000485029
0.000443622
0.000404222
0.000368906
0.000337172
0.00174822
0.000618168
0.000525695
0.000482156
0.000437472
0.000393627
0.000353806
0.000317912
0.000833936
0.000569115
0.000518418
0.000474418
0.000430335
0.000389128
0.000352379
0.000319171
0.000611864
0.000544983
0.000499581
0.000457694
0.000420613
0.000388581
0.000361158
0.000335951
0.000561534
0.000520391
0.000479421
0.000442919
0.000412079
0.000386066
0.000363568
0.00034301
0.0016163
0.00146229
0.001382
0.00127759
0.00114552
0.000996322
0.000844203
0.000704159
0.00226427
0.00149309
0.00137798
0.00129449
0.00118251
0.001043
0.000888258
0.000735965
0.00347868
0.00148045
0.00129065
0.00121812
0.00111972
0.00099285
0.000848205
0.000701167
0.00312123
0.00138893
0.00125372
0.00117619
0.00106622
0.00093137
0.000783887
0.000637253
0.00182137
0.00142467
0.00134112
0.0012428
0.00111485
0.000967046
0.000811927
0.000663091
0.00157097
0.00148183
0.00139233
0.00127668
0.001139
0.000987134
0.000831376
0.000684904
0.00154202
0.0014714
0.00136618
0.00123694
0.00109321
0.000944051
0.000799075
0.000668437
0.00343568
0.00318749
0.00293838
0.00266129
0.00239379
0.00216118
0.00196121
0.00175615
0.00394868
0.00323339
0.00297917
0.00272139
0.0024561
0.00221989
0.00202227
0.00182576
0.00492157
0.00312134
0.00283916
0.00261288
0.00236564
0.00214571
0.0019749
0.00181577
0.0045472
0.00294898
0.00273307
0.00251314
0.00226142
0.00204199
0.00188215
0.00174539
0.00346484
0.0030518
0.00285124
0.00259428
0.00232402
0.00209665
0.0019267
0.00177277
0.00332092
0.00315276
0.00291245
0.00263039
0.00235721
0.00212605
0.0019391
0.00175619
0.00327649
0.00307396
0.00280413
0.00252198
0.00226643
0.00205411
0.00187682
0.00169505
0.00418684
0.00389526
0.00360014
0.00326521
0.00289149
0.00246597
0.00197273
0.00144781
0.00461784
0.00397265
0.00366561
0.00334714
0.00299012
0.00257869
0.00208764
0.00154575
0.0053601
0.00391101
0.00359737
0.00332332
0.00300982
0.00263836
0.00217137
0.00163116
0.0050392
0.00375027
0.00349911
0.0032456
0.00295061
0.00260583
0.00216776
0.00165149
0.00418293
0.00377944
0.00353493
0.00324871
0.00293179
0.00256943
0.00211721
0.00159477
0.00402872
0.00380053
0.00351645
0.00319884
0.00285794
0.00247285
0.00201287
0.00150331
0.00391858
0.00366335
0.00336298
0.00304133
0.00269809
0.00231493
0.00187222
0.00140041
0.000186147
0.000159068
0.000153574
0.000148772
0.000145216
0.00014207
0.000139593
0.000137537
0.000313951
0.000176867
0.000160654
0.000149832
0.000142762
0.000136467
0.000130628
0.000125999
0.000858151
0.000290633
0.000177899
0.000150579
0.000139835
0.00013159
0.000124787
0.000117935
0.00213689
0.000645841
0.000240134
0.000157812
0.000136258
0.000125537
0.000117215
0.000110252
0.00213234
0.000653123
0.000246278
0.000157567
0.000135151
0.000125582
0.000118517
0.000112577
0.000809201
0.000325876
0.000187671
0.000153924
0.000143347
0.000138076
0.000134371
0.000130208
0.000289848
0.000193711
0.00017097
0.000161453
0.000157517
0.000154722
0.000152629
0.000150703
0.000553445
0.000513228
0.000475954
0.000440276
0.000408783
0.000381749
0.000358553
0.000337841
0.000671217
0.000560354
0.000517805
0.000475964
0.000435752
0.000399406
0.000367108
0.000338265
0.00122262
0.000636497
0.000577212
0.000534869
0.000488349
0.000441701
0.000397581
0.000357031
0.00299775
0.000811667
0.000640285
0.000593945
0.000545243
0.000492385
0.000440999
0.000393653
0.00320083
0.000930036
0.000674276
0.000617845
0.000565861
0.000510055
0.000456344
0.000407404
0.00151013
0.000742654
0.000632488
0.000579672
0.000529214
0.000480553
0.000435785
0.000395602
0.000736314
0.00060525
0.000557615
0.000515607
0.000475735
0.000439431
0.000406631
0.000376536
0.00149786
0.00143503
0.00134073
0.00121853
0.0010786
0.000931135
0.000786882
0.000657033
0.00165721
0.00147473
0.00139234
0.00128857
0.00115895
0.00101054
0.000853108
0.000700056
0.00262777
0.00152484
0.00140827
0.00133287
0.00122656
0.0010904
0.00093236
0.000765397
0.00570885
0.00176122
0.00139874
0.0013344
0.00124569
0.00112054
0.000968912
0.000804226
0.00576382
0.00196304
0.00147993
0.00139996
0.00131368
0.00119099
0.00103764
0.000867426
0.00321377
0.00176065
0.00154366
0.00144674
0.00132933
0.00117931
0.00100651
0.000829211
0.001875
0.00159835
0.00149618
0.00138173
0.00123724
0.00107094
0.000898602
0.000738664
0.00327433
0.00310243
0.002849
0.00257221
0.0023153
0.00209844
0.00191612
0.00173033
0.00343571
0.00321036
0.00299895
0.00273738
0.00247092
0.00224093
0.00205774
0.00188405
0.00435233
0.00321993
0.00301452
0.00279517
0.00253214
0.00228537
0.00209087
0.00192285
0.00748266
0.00338627
0.00295501
0.00277396
0.0025336
0.00228631
0.00208424
0.00191018
0.00771234
0.00368463
0.00311139
0.00288978
0.00264777
0.00241384
0.00222912
0.00207161
0.00510692
0.00358169
0.00322208
0.00295377
0.00267943
0.00243112
0.00222658
0.00203025
0.00380031
0.00339394
0.00311442
0.0028165
0.00252483
0.00226824
0.00204764
0.00182515
0.00402023
0.00380189
0.00352535
0.00321983
0.0028841
0.00249609
0.00203207
0.00152117
0.00425204
0.00401675
0.00379329
0.00352811
0.0032276
0.0028659
0.00239729
0.00183862
0.00510854
0.00412299
0.00391188
0.00370499
0.00345493
0.00314165
0.00270433
0.00214458
0.00790524
0.00432649
0.00391295
0.00372712
0.00350178
0.00321866
0.00281817
0.00229145
0.00814888
0.00460994
0.00407569
0.00384469
0.00358783
0.00325077
0.00276819
0.00214944
0.00582182
0.00443982
0.00405155
0.00373995
0.00338818
0.00296101
0.00242025
0.00179407
0.00460466
0.00416167
0.00382891
0.00346607
0.0030617
0.00260235
0.00207106
0.00150359
0.000129578
0.000121895
0.000118883
0.000121107
0.000124481
0.000131013
0.000137768
0.000322786
0.000321693
0.000318717
0.000318302
0.000321607
0.000327158
0.000325994
0.000556091
0.000551129
0.000547337
0.000546535
0.000548227
0.000550712
0.000551132
0.00141642
0.00140728
0.00140195
0.00139547
0.00138674
0.0013751
0.0013814
0.000884247
0.000883554
0.000880439
0.000876962
0.000872427
0.000867237
0.000874694
0.00014909
0.000127459
0.000109648
0.000101864
0.00011287
0.000126824
0.000142583
0.000341579
0.000349761
0.000357141
0.000346158
0.000336881
0.000330558
0.000331583
0.000603112
0.000656421
0.000702497
0.000661962
0.000657867
0.000606574
0.000579342
0.00152669
0.00173908
0.00186076
0.00169514
0.0017735
0.00166524
0.00150279
0.000885117
0.00103429
0.00130291
0.00151081
0.00132662
0.00107339
0.000909155
0.000140242
0.000119044
8.81398e-05
9.25861e-05
0.000107798
0.000122941
0.00013176
0.000342198
0.000346456
0.000308282
0.00028595
0.000289553
0.000312545
0.000322825
0.000588799
0.000605152
0.000570871
0.000508627
0.000535576
0.000561982
0.000561186
0.00147582
0.00153711
0.00155529
0.00151499
0.00152104
0.00148488
0.00143936
0.000881388
0.000907245
0.00094826
0.000973402
0.000933119
0.000898503
0.000886626
0.000134776
0.000122796
0.000111725
0.000103955
0.000107385
0.000126095
0.000148763
0.000318123
0.000311735
0.000321149
0.000352602
0.000365008
0.000359984
0.000347651
0.000551093
0.000567181
0.000610382
0.0006491
0.000703755
0.000670261
0.000606947
0.00147141
0.00162339
0.00167158
0.00164967
0.00182744
0.00173794
0.00152721
0.000951494
0.00113743
0.00136282
0.00150918
0.00130793
0.00104044
0.000888921
0.000126965
0.000119947
0.000110176
9.9922e-05
8.91954e-05
7.85801e-05
6.83912e-05
5.86597e-05
0.000119378
0.000114094
0.000106211
9.62634e-05
8.61966e-05
7.61072e-05
6.63217e-05
5.68988e-05
0.000116205
0.000111415
0.000104404
9.48153e-05
8.50266e-05
7.51825e-05
6.55788e-05
5.62783e-05
0.000119125
0.000113684
0.000106232
9.73496e-05
8.69947e-05
7.59751e-05
6.58958e-05
5.65066e-05
0.00012229
0.000117219
0.000109036
9.86747e-05
8.8311e-05
7.79585e-05
6.79392e-05
5.82973e-05
0.000128937
0.000123523
0.00011465
0.000103471
9.24426e-05
8.16326e-05
7.1177e-05
6.11376e-05
0.000135075
0.000128
0.000118488
0.000107699
9.63974e-05
8.52626e-05
7.45163e-05
6.42139e-05
0.000300418
0.000263383
0.000224079
0.000188128
0.000156823
0.000129585
0.000105756
8.52314e-05
0.000299297
0.000263243
0.000223569
0.000187969
0.000156557
0.000129202
0.000105307
8.47893e-05
0.000296857
0.000261856
0.000222519
0.000187313
0.00015615
0.000128954
0.000105145
8.46635e-05
0.000296887
0.000262396
0.000224096
0.000188315
0.00015627
0.000128899
0.000105211
8.48838e-05
0.000299866
0.000264414
0.000225096
0.000189857
0.000158604
0.000131264
0.000107259
8.65342e-05
0.000305662
0.000269667
0.000229752
0.000193832
0.000162032
0.000134217
0.000109811
8.87327e-05
0.000304915
0.000269398
0.000230293
0.000194402
0.000162958
0.000135505
0.000111398
9.04944e-05
0.00047327
0.000388352
0.000306688
0.000238095
0.000184336
0.000142788
0.000110762
8.65338e-05
0.000468186
0.000384112
0.0003046
0.00023721
0.000183954
0.0001426
0.000110657
8.64983e-05
0.00046454
0.000381862
0.000303504
0.000236747
0.000183772
0.000142526
0.000110618
8.64638e-05
0.000463968
0.000381807
0.000303367
0.000236795
0.00018396
0.000142744
0.000110873
8.67715e-05
0.000467551
0.000385734
0.000305356
0.000237861
0.000184796
0.000143596
0.000111721
8.75498e-05
0.000473735
0.000391186
0.000308204
0.000239544
0.000186076
0.000144778
0.000112902
8.87281e-05
0.000477759
0.000394002
0.000309132
0.000239667
0.00018606
0.000144939
0.000113363
8.94677e-05
0.00112087
0.000698064
0.000419799
0.000277404
0.00019602
0.000144075
0.000108822
8.46344e-05
0.00110942
0.000692023
0.000417254
0.000276395
0.000195701
0.000144082
0.000109015
8.49663e-05
0.00110108
0.000687186
0.000415262
0.000275641
0.000195441
0.000144018
0.000109032
8.50192e-05
0.00109311
0.000682069
0.000413143
0.000274931
0.000195263
0.00014406
0.000109199
8.52715e-05
0.0010854
0.000677096
0.000411311
0.000274555
0.000195375
0.000144323
0.000109488
8.55344e-05
0.00107704
0.000672378
0.00040969
0.000274197
0.000195453
0.000144614
0.000109913
8.60427e-05
0.0010861
0.00067837
0.000412329
0.000275034
0.00019563
0.000144678
0.000110068
8.63015e-05
0.000835627
0.000666933
0.000426826
0.000279048
0.000190843
0.000136117
0.000101234
7.91382e-05
0.000831175
0.000664817
0.00042664
0.000279334
0.000191247
0.000136555
0.000101719
7.97066e-05
0.000825032
0.000661037
0.000424981
0.000278525
0.000190835
0.000136357
0.000101656
7.97295e-05
0.000820314
0.00065819
0.000423748
0.000278002
0.00019064
0.000136333
0.000101741
7.98886e-05
0.000816803
0.000655791
0.000422285
0.000277205
0.000190191
0.000136053
0.000101532
7.96908e-05
0.000813744
0.000652687
0.000419742
0.000275643
0.000189331
0.000135646
0.00010139
7.96604e-05
0.0008209
0.000653964
0.00041794
0.000273915
0.000188364
0.000135421
0.000101626
7.99978e-05
0.000146821
0.000140192
0.000129691
0.000117197
0.000104417
9.20496e-05
8.0438e-05
6.95763e-05
0.000124136
0.000118318
0.000113552
0.000106921
9.81139e-05
8.82163e-05
7.77144e-05
6.73521e-05
0.000104933
9.76869e-05
9.14505e-05
8.50804e-05
7.844e-05
7.16368e-05
6.49272e-05
5.77321e-05
9.76783e-05
8.97926e-05
8.24332e-05
7.50149e-05
6.79204e-05
6.12377e-05
5.51921e-05
4.92321e-05
0.000107845
9.97891e-05
9.30811e-05
8.58241e-05
7.85263e-05
7.14308e-05
6.44363e-05
5.70361e-05
0.000123849
0.000118083
0.000112877
0.000104824
9.51909e-05
8.50029e-05
7.44946e-05
6.39582e-05
0.000139702
0.000133478
0.000124034
0.000112478
0.000100367
8.8485e-05
7.70837e-05
6.63981e-05
0.000315555
0.000275826
0.000233396
0.000195264
0.000162868
0.000135596
0.000112365
9.24763e-05
0.000320956
0.00028359
0.000244661
0.000206962
0.000173234
0.000143833
0.000118596
9.71558e-05
0.000320316
0.000274718
0.000232734
0.000196074
0.000164096
0.000136528
0.000111655
8.98329e-05
0.000309895
0.000263892
0.00022255
0.000187111
0.000157134
0.000131215
0.000108167
8.84128e-05
0.000303496
0.000260309
0.000219569
0.000184314
0.000153806
0.000126997
0.000102802
8.17531e-05
0.000304635
0.000269236
0.000230365
0.000193963
0.000161561
0.00013305
0.000107852
8.65802e-05
0.0003087
0.00027193
0.000231155
0.000193805
0.000161481
0.000133819
0.000110054
8.97584e-05
0.000506278
0.000409489
0.000316293
0.000241836
0.000186114
0.000144652
0.000113587
9.03053e-05
0.00053711
0.000429218
0.000348071
0.000277592
0.000220762
0.000176649
0.000142597
0.000116053
0.000563975
0.000426822
0.000337123
0.000273561
0.0002235
0.000181553
0.000145102
0.000114394
0.000528468
0.000393307
0.000303414
0.000240352
0.000192481
0.000154492
0.000123766
9.89294e-05
0.000524811
0.000391751
0.000304813
0.000243857
0.000196817
0.000157363
0.000122789
9.44331e-05
0.000498114
0.000397625
0.000321819
0.00025564
0.000201912
0.000159779
0.000126961
0.000101359
0.000488857
0.000401251
0.000313931
0.000241765
0.000186439
0.000144523
0.000112726
8.88196e-05
0.00118626
0.000724965
0.000428939
0.000279268
0.000195745
0.000143903
0.000109524
8.60977e-05
0.00139013
0.00088842
0.000539127
0.0003549
0.000253222
0.000191354
0.000150617
0.000121989
0.00155701
0.00107095
0.000703317
0.000487663
0.000360135
0.000278382
0.000220161
0.000173617
0.00138269
0.000915181
0.000575725
0.000377478
0.00026029
0.000187403
0.0001398
0.000107432
0.0014706
0.000995092
0.000640148
0.000434133
0.000311969
0.000233141
0.000176985
0.000132474
0.00133576
0.000857875
0.000521846
0.000343369
0.000243955
0.000183102
0.000142994
0.000114528
0.00117951
0.000727853
0.000433499
0.00028337
0.000198829
0.000145876
0.000110473
8.62436e-05
0.000818795
0.000640442
0.000403939
0.000263345
0.000181184
0.000131086
9.93991e-05
7.90113e-05
0.000947461
0.000744557
0.000479115
0.000320589
0.000228871
0.000173454
0.000137963
0.000113597
0.00119907
0.000968955
0.00065861
0.000465882
0.000352363
0.000282996
0.000236455
0.000200367
0.0014276
0.0011729
0.000826572
0.000592998
0.000434198
0.000317085
0.000225645
0.000156823
0.00122992
0.000999884
0.000682454
0.000482686
0.000362242
0.000285368
0.000229623
0.000181729
0.000988756
0.000781318
0.000505374
0.000338956
0.000242099
0.000183261
0.000145139
0.000117941
0.000844039
0.000663473
0.000420395
0.000274586
0.000189142
0.000136863
0.000103587
8.1943e-05
0.000139274
0.000133844
0.000123825
0.000111706
9.92091e-05
8.72019e-05
7.59287e-05
6.53461e-05
0.000117362
0.000114842
0.000112555
0.000105878
9.59717e-05
8.48833e-05
7.44451e-05
6.45013e-05
8.46876e-05
8.03846e-05
7.65984e-05
7.16272e-05
6.64235e-05
6.05757e-05
5.46807e-05
4.86792e-05
8.8716e-05
8.09508e-05
7.37882e-05
6.64764e-05
6.04063e-05
5.44986e-05
4.869e-05
4.31404e-05
0.000103365
9.53151e-05
8.7525e-05
8.0903e-05
7.49099e-05
6.75759e-05
5.96994e-05
5.20968e-05
0.000121381
0.000116016
0.00010876
0.000100973
9.04277e-05
7.95628e-05
6.93276e-05
5.98656e-05
0.00012868
0.00012217
0.000113452
0.000102775
9.15501e-05
8.0558e-05
7.01008e-05
6.01911e-05
0.00031635
0.000276015
0.000232989
0.000194483
0.000161789
0.000134223
0.00011065
9.04332e-05
0.000323491
0.000290216
0.00024897
0.000208987
0.000173516
0.000144138
0.0001192
9.78309e-05
0.000281384
0.000246237
0.000211258
0.000181557
0.000155182
0.000131826
0.000109859
8.92122e-05
0.000256065
0.000214842
0.000176383
0.000144779
0.000117927
9.57977e-05
7.77212e-05
6.30893e-05
0.000262436
0.000225454
0.000191441
0.000163198
0.000136995
0.000113438
9.3087e-05
7.56336e-05
0.000290214
0.000255268
0.000218637
0.000182847
0.000152235
0.000125834
0.000103407
8.4184e-05
0.000301481
0.000265565
0.000225732
0.000189094
0.000157111
0.000129498
0.000105686
8.5335e-05
0.000498674
0.000407632
0.000317999
0.000244748
0.000188846
0.000146575
0.000114485
9.02895e-05
0.000507369
0.000417276
0.00033541
0.000264648
0.000207923
0.000163653
0.000129358
0.000102895
0.000473589
0.00038474
0.000325921
0.000274476
0.000227326
0.000186829
0.00015388
0.000127567
0.000412623
0.000318935
0.000255203
0.000206394
0.000165418
0.000130733
0.000101629
7.78237e-05
0.000442903
0.0003547
0.000296427
0.000243096
0.000194258
0.000154
0.000122463
9.83092e-05
0.0004714
0.000383546
0.000306365
0.000239472
0.000185733
0.000144113
0.00011233
8.84756e-05
0.000476577
0.000390901
0.0003085
0.000239025
0.000184652
0.000142868
0.000110879
8.67876e-05
0.00115513
0.000711626
0.000425358
0.000279702
0.000197063
0.000144811
0.000109618
8.54959e-05
0.00121214
0.000757519
0.000455709
0.000300504
0.000213171
0.000158336
0.000121377
9.57438e-05
0.00124991
0.000805536
0.000494005
0.000328101
0.000236688
0.000181176
0.000144508
0.000118886
0.00124159
0.000823632
0.000527394
0.000367158
0.000276356
0.000219164
0.000178567
0.000146185
0.00122817
0.000796145
0.000485464
0.00031789
0.000224649
0.000168008
0.000131037
0.00010576
0.00117756
0.000738474
0.000441278
0.000287615
0.000201371
0.000147706
0.000112083
8.791e-05
0.00113964
0.000709162
0.000424699
0.000279117
0.000196437
0.000144086
0.0001088
8.46782e-05
0.000824243
0.00065272
0.000415447
0.000271461
0.000186065
0.000133262
9.95672e-05
7.80053e-05
0.00084571
0.000670539
0.000427926
0.000280133
0.000192766
0.00013903
0.000104877
8.30004e-05
0.000880795
0.000698834
0.000447927
0.000295238
0.000206017
0.000152109
0.000118504
9.7143e-05
0.000903866
0.000719708
0.000465414
0.000312391
0.000225826
0.000176941
0.000149812
0.000136071
0.000867291
0.000685462
0.000435374
0.000284128
0.000196577
0.000144539
0.000112789
9.32219e-05
0.000840548
0.000666491
0.000423735
0.000275778
0.0001886
0.000135352
0.000101853
8.07041e-05
0.00083665
0.000666159
0.00042519
0.000277504
0.000189668
0.000135364
0.000100824
7.89267e-05
0.000131434
0.000125841
0.000117699
0.000107534
9.64856e-05
8.54243e-05
7.48014e-05
6.46849e-05
0.000119274
0.000111861
0.000104887
9.76016e-05
8.87974e-05
7.90969e-05
6.93674e-05
6.01705e-05
0.000106536
9.79437e-05
9.07337e-05
8.3745e-05
7.65202e-05
6.91348e-05
6.17021e-05
5.43842e-05
9.84065e-05
8.92018e-05
8.11482e-05
7.38896e-05
6.69339e-05
6.03078e-05
5.38032e-05
4.80503e-05
0.00010306
9.63757e-05
9.02432e-05
8.4195e-05
7.76462e-05
7.09133e-05
6.39753e-05
5.69101e-05
0.00012253
0.000116247
0.000110349
0.000104284
9.56838e-05
8.58395e-05
7.57172e-05
6.60328e-05
0.000146572
0.00013977
0.000128922
0.000116125
0.000103169
9.08807e-05
7.946e-05
6.87997e-05
0.000297922
0.00026501
0.000227007
0.000191251
0.000159653
0.000132294
0.000108691
8.85365e-05
0.00028634
0.000251033
0.000214591
0.000179845
0.000148442
0.000121281
9.87636e-05
8.06266e-05
0.000286959
0.000242534
0.000202173
0.000167448
0.000137791
0.000112272
9.05344e-05
7.24169e-05
0.000312647
0.000263068
0.00021927
0.000181823
0.000150341
0.000123798
0.000101351
8.2295e-05
0.000324753
0.000276555
0.000233083
0.000195096
0.000162666
0.000134539
0.00011003
8.87868e-05
0.000326429
0.000283986
0.000243179
0.00020394
0.000169455
0.000140404
0.00011664
9.72514e-05
0.000318819
0.000276186
0.000231945
0.000192921
0.000160472
0.000133584
0.000110903
9.15123e-05
0.000470129
0.000390744
0.000310739
0.000242096
0.000188107
0.000146549
0.000114697
9.06605e-05
0.000465603
0.000367552
0.000302868
0.000244041
0.000194076
0.000154195
0.000122855
9.82542e-05
0.000483692
0.000355117
0.000270767
0.000212039
0.000167441
0.000131831
0.000102977
7.98604e-05
0.000516442
0.000381722
0.00029193
0.000229179
0.000182019
0.000145061
0.000115574
9.20181e-05
0.000563111
0.000424396
0.000333307
0.000268704
0.00021808
0.000176259
0.000141424
0.000112772
0.000544133
0.000429547
0.000348534
0.000277581
0.000220231
0.000176053
0.000142281
0.000115728
0.000506065
0.00040826
0.000315209
0.000240883
0.000185368
0.000144179
0.000113344
9.01839e-05
0.00117015
0.000737016
0.000446255
0.000295034
0.000209084
0.000154844
0.000118139
9.26403e-05
0.00131781
0.000865782
0.000534935
0.000354829
0.000254058
0.000192033
0.000149698
0.00011816
0.00137748
0.000929598
0.000596464
0.000400828
0.000284058
0.00020862
0.000155718
0.000116388
0.00134225
0.000887321
0.000557959
0.000365483
0.000251363
0.000180145