/*--------------------------------*- C++ -*----------------------------------*\
| =========                 |                                                 |
| \\      /  F ield         | OpenFOAM: The Open Source CFD Toolbox           |
|  \\    /   O peration     | Version:  plus.master                           |
|   \\  /    A nd           | Web:      www.OpenFOAM.com                      |
|    \\/     M anipulation  |                                                 |
\*---------------------------------------------------------------------------*/
FoamFile
{
    version     2.0;
    format      ascii;
    class       volScalarField;
    location    "10.8";
    object      p;
}
// * * * * * * * * * * * * * * * * * * * * * * * * * * * * * * * * * * * * * //

dimensions      [1 -1 -2 0 0 0 0];

internalField   nonuniform List<scalar> 
47285
(
5603.83
5595.22
5589.02
5587.04
5588.99
5595.94
5603.23
5595.72
5596.2
5583.21
5580.06
5583.97
5596.02
5594.62
5588.53
5584.56
5582.32
5579.27
5582.42
5582.77
5588.98
5587.66
5580.07
5579.56
5577.64
5579.2
5581.61
5588.28
5589.36
5583.71
5582.35
5579.61
5582.65
5583.72
5589.54
5596.94
5596.56
5583.38
5580.24
5585.81
5595.45
5594.65
5604.71
5596.21
5588.55
5586.78
5588.33
5595.48
5602.82
5499.37
5496.5
5495.57
5495.52
5495.96
5497.51
5500.04
5496.17
5494.41
5495.08
5497.05
5494.08
5494.73
5497.94
5494.04
5496.92
5507.1
5508.05
5506.09
5493.52
5497.44
5493.82
5497.19
5507.95
5508.87
5505.78
5492.7
5496.99
5494.1
5495.83
5506.79
5507.35
5505.34
5493.46
5496.99
5495.39
5496.29
5495.1
5496.37
5495
5492.94
5497.48
5498.75
5495.43
5493.98
5493.14
5493.7
5496.37
5499.53
5390.02
5392.33
5394.26
5394.75
5393.01
5390.53
5388.04
5392.35
5395.86
5401.66
5405.29
5398.44
5393.91
5390.49
5394.74
5403.21
5418.35
5421.43
5411.54
5397.79
5393.06
5396.22
5408.01
5421.54
5424.56
5415.04
5398.41
5394.08
5395.46
5404.57
5419.52
5422.87
5415.33
5398.81
5393.63
5392.8
5397.54
5403.97
5409.5
5400.73
5394.76
5391.42
5390.51
5392.87
5395.13
5396.26
5393.99
5391.37
5388.64
5267.36
5271.25
5273.75
5274.65
5271.42
5267.41
5263.2
5271.69
5276.41
5281.5
5285.53
5277.72
5272.38
5266.93
5275.16
5283.03
5298.81
5305.43
5288.1
5277.12
5270.22
5277.32
5290.32
5307.01
5311.89
5293.74
5278.62
5271.55
5275.96
5284.89
5301.58
5309.06
5292.77
5278.37
5271.17
5272.73
5277.77
5284.12
5290.08
5280.43
5274.05
5268.26
5268.68
5272.54
5275.3
5276.43
5273.25
5269.02
5264.42
5119.47
5123.11
5125.35
5125.91
5123.34
5119.69
5115.62
5123.6
5127.8
5131.5
5133.83
5129.05
5124.37
5119.27
5126.72
5132.83
5145.01
5152.11
5135.99
5128.57
5122.44
5128.46
5137.92
5157.35
5162.37
5140.98
5130.63
5123.91
5127.54
5134.37
5148.88
5156.84
5138.62
5129.47
5123.16
5125.01
5129.27
5133.89
5137.5
5129.9
5125.33
5120.18
5121.22
5124.74
5126.83
5127.06
5124.33
5120.67
5116.46
5609.9
5615.2
5619.44
5622.78
5625.54
5627.82
5629.72
5631.34
5604.92
5612.67
5617.68
5621.66
5624.89
5627.5
5629.64
5631.42
5600.32
5610.13
5616.54
5620.87
5624.43
5627.29
5629.58
5631.46
5599.56
5609.85
5616.27
5620.65
5624.24
5627.09
5629.43
5631.35
5600.91
5610.19
5616.27
5620.77
5624.34
5627.2
5629.5
5631.38
5604.23
5612.23
5617.69
5621.65
5624.85
5627.46
5629.62
5631.42
5609.24
5614.7
5619.2
5622.63
5625.44
5627.77
5629.72
5631.38
5501.95
5503.21
5504.25
5505.12
5505.89
5506.56
5507.16
5507.7
5500.88
5502.63
5503.89
5504.9
5505.75
5506.49
5507.15
5507.74
5500.55
5502.44
5503.79
5504.82
5505.69
5506.46
5507.14
5507.77
5500.37
5502.38
5503.76
5504.81
5505.7
5506.47
5507.17
5507.81
5500.41
5502.37
5503.75
5504.81
5505.7
5506.48
5507.17
5507.79
5500.68
5502.52
5503.84
5504.88
5505.75
5506.51
5507.18
5507.78
5501.65
5503.02
5504.12
5505.04
5505.84
5506.53
5507.14
5507.66
5385.94
5384.58
5383.57
5382.79
5382.19
5381.74
5381.43
5381.26
5387.64
5385.65
5384.23
5383.19
5382.43
5381.88
5381.51
5381.32
5389.29
5386.69
5384.86
5383.57
5382.66
5382.01
5381.58
5381.36
5390.06
5387.23
5385.19
5383.78
5382.79
5382.09
5381.63
5381.38
5389.72
5387
5385.05
5383.71
5382.75
5382.08
5381.63
5381.38
5388.22
5386.04
5384.49
5383.39
5382.59
5382
5381.61
5381.4
5386.36
5384.89
5383.79
5382.97
5382.34
5381.87
5381.54
5381.37
5259.74
5257.36
5255.54
5254.2
5253.34
5253
5253.2
5253.92
5262.27
5258.96
5256.49
5254.7
5253.53
5252.98
5253.09
5253.82
5264.53
5260.41
5257.38
5255.21
5253.79
5253.07
5253.09
5253.8
5265.64
5261.19
5257.88
5255.55
5254.01
5253.21
5253.18
5253.87
5265.25
5260.93
5257.74
5255.49
5254.01
5253.25
5253.24
5253.93
5263.2
5259.64
5256.99
5255.08
5253.83
5253.22
5253.29
5253.98
5260.47
5257.88
5255.94
5254.5
5253.57
5253.16
5253.31
5253.99
5112.22
5109.47
5107.01
5104.8
5102.72
5100.35
5097.44
5095.98
5114.81
5111.25
5108.22
5105.61
5103.28
5100.73
5097.57
5095.81
5116.99
5112.76
5109.28
5106.37
5103.82
5101.1
5097.75
5095.77
5118.08
5113.54
5109.84
5106.8
5104.15
5101.36
5097.92
5095.85
5117.52
5113.15
5109.58
5106.62
5104.04
5101.31
5097.94
5095.93
5115.48
5111.77
5108.66
5106.02
5103.67
5101.12
5097.96
5096.15
5112.7
5109.82
5107.33
5105.13
5103.09
5100.77
5097.89
5096.42
5611.55
5616.41
5620.48
5623.75
5626.44
5628.66
5630.53
5632.12
5606.26
5613
5618.47
5622.45
5625.64
5628.2
5630.32
5632.07
5601.85
5610.4
5616.97
5621.61
5625.25
5628.12
5630.46
5632.32
5600.27
5609.06
5616.3
5621.15
5624.99
5628.03
5630.45
5632.39
5600.48
5609.66
5617.21
5621.28
5624.96
5627.85
5630.13
5631.97
5605.38
5612.67
5618.18
5622.1
5625.35
5627.93
5630.02
5631.77
5610.82
5615.85
5620.03
5623.28
5625.99
5628.33
5630.31
5631.93
5501.26
5502.83
5504.1
5505.15
5506.04
5506.79
5507.45
5508
5499.62
5501.92
5503.53
5504.77
5505.76
5506.59
5507.3
5507.92
5499.18
5501.72
5503.47
5504.75
5505.79
5506.65
5507.4
5508.04
5499.07
5501.58
5503.38
5504.7
5505.76
5506.65
5507.42
5508.08
5499.07
5501.61
5503.3
5504.56
5505.57
5506.43
5507.16
5507.8
5499.97
5502.04
5503.53
5504.69
5505.64
5506.45
5507.16
5507.78
5501.54
5502.94
5504.09
5505.06
5505.9
5506.63
5507.27
5507.84
5388.23
5386.63
5385.38
5384.45
5383.73
5383.17
5382.76
5382.5
5389.97
5387.84
5386.15
5384.9
5383.97
5383.28
5382.79
5382.47
5391.73
5389.18
5387.12
5385.54
5384.39
5383.56
5382.97
5382.58
5392.1
5389.48
5387.32
5385.66
5384.44
5383.57
5382.96
5382.58
5391.19
5388.68
5386.66
5385.12
5384.01
5383.2
5382.62
5382.25
5389.54
5387.39
5385.72
5384.49
5383.58
5382.91
5382.42
5382.11
5387.72
5386.13
5384.9
5383.97
5383.26
5382.71
5382.31
5382.05
5264.3
5261.24
5258.87
5257.13
5255.95
5255.32
5255.25
5255.7
5267.52
5263.41
5260.11
5257.71
5256.1
5255.18
5254.96
5255.39
5270.13
5265.45
5261.48
5258.49
5256.47
5255.32
5254.97
5255.32
5271.32
5266.18
5261.93
5258.69
5256.5
5255.24
5254.82
5255.1
5269.4
5264.7
5260.8
5257.91
5255.97
5254.86
5254.53
5254.9
5266.48
5262.45
5259.29
5257
5255.45
5254.59
5254.4
5254.86
5263.15
5260.25
5258.01
5256.36
5255.24
5254.66
5254.64
5255.16
5116.97
5113.84
5111.13
5108.77
5106.59
5104.13
5101.17
5099.66
5120
5115.89
5112.35
5109.46
5106.96
5104.3
5101.11
5099.42
5122.19
5117.6
5113.41
5109.97
5107.15
5104.29
5100.94
5099.34
5122.86
5118.11
5113.68
5110.01
5107.02
5104.05
5100.63
5099.15
5121.36
5116.77
5112.65
5109.3
5106.53
5103.69
5100.35
5098.76
5118.67
5114.69
5111.29
5108.47
5106
5103.36
5100.19
5098.53
5115.55
5112.57
5109.92
5107.56
5105.37
5102.9
5099.94
5098.44
5610.79
5615.84
5619.91
5623.26
5626.04
5628.31
5630.16
5631.73
5605.14
5612.48
5617.94
5622.04
5625.31
5627.91
5630.04
5631.81
5601.63
5610.55
5616.69
5621.35
5624.98
5627.87
5630.16
5631.99
5600.29
5609.54
5616.09
5620.89
5624.63
5627.59
5629.95
5631.84
5601.37
5609.76
5616.23
5620.85
5624.5
5627.37
5629.69
5631.55
5605.21
5612.07
5617.72
5621.75
5624.97
5627.51
5629.6
5631.33
5610.16
5615.18
5619.46
5622.8
5625.57
5627.88
5629.82
5631.45
5501.6
5502.99
5504.11
5505.07
5505.9
5506.62
5507.25
5507.8
5500.36
5502.36
5503.74
5504.81
5505.71
5506.48
5507.15
5507.76
5499.95
5502.13
5503.57
5504.67
5505.6
5506.4
5507.11
5507.74
5500
5502.07
5503.48
5504.56
5505.47
5506.27
5506.98
5507.61
5500.03
5502.05
5503.43
5504.49
5505.38
5506.16
5506.85
5507.47
5500.65
5502.4
5503.66
5504.67
5505.53
5506.28
5506.95
5507.56
5501.93
5503.17
5504.19
5505.06
5505.82
5506.49
5507.1
5507.64
5387.66
5386.05
5384.81
5383.88
5383.18
5382.64
5382.26
5382.02
5389.5
5387.29
5385.57
5384.31
5383.39
5382.71
5382.23
5381.94
5390.92
5388.29
5386.19
5384.65
5383.56
5382.78
5382.26
5381.96
5391.55
5388.45
5386.15
5384.51
5383.36
5382.55
5382.01
5381.69
5389.77
5387.22
5385.32
5383.95
5382.96
5382.26
5381.81
5381.56
5387.8
5385.83
5384.4
5383.35
5382.56
5381.98
5381.59
5381.37
5386.04
5384.69
5383.67
5382.88
5382.27
5381.81
5381.49
5381.32
5262.92
5259.97
5257.76
5256.14
5255.07
5254.53
5254.56
5255.12
5265.92
5261.92
5258.83
5256.63
5255.16
5254.39
5254.31
5254.87
5267.87
5263.26
5259.53
5256.85
5255.11
5254.18
5254.03
5254.59
5268.13
5263.27
5259.38
5256.61
5254.8
5253.84
5253.68
5254.23
5265.77
5261.46
5258.16
5255.8
5254.27
5253.49
5253.42
5254.06
5262.76
5259.4
5256.87
5255.03
5253.81
5253.22
5253.28
5253.97
5259.9
5257.56
5255.73
5254.37
5253.5
5253.13
5253.31
5254
5115.19
5112.12
5109.47
5107.15
5105.01
5102.59
5099.65
5098.15
5118.01
5113.97
5110.6
5107.82
5105.39
5102.78
5099.59
5097.83
5119.8
5115.16
5111.19
5108.01
5105.34
5102.56
5099.2
5097.35
5120.07
5115.2
5111.06
5107.76
5105.02
5102.21
5098.81
5097.02
5117.94
5113.61
5109.98
5106.99
5104.44
5101.69
5098.37
5096.56
5115.23
5111.73
5108.71
5106.12
5103.8
5101.27
5098.15
5096.46
5112.41
5109.71
5107.25
5105.03
5102.96
5100.58
5097.65
5096.2
5609.83
5615.03
5619.42
5622.8
5625.59
5627.91
5629.85
5631.5
5604.76
5612.18
5618.21
5622.13
5625.36
5627.94
5630.01
5631.72
5600.83
5609.33
5616.54
5621.21
5624.92
5627.82
5630.13
5631.96
5599.97
5608.61
5616.08
5621.23
5625.02
5628.04
5630.44
5632.38
5602
5610.78
5616.88
5621.6
5625.28
5628.2
5630.52
5632.37
5606.04
5613.18
5618.46
5622.56
5625.79
5628.4
5630.53
5632.25
5611.53
5616.6
5620.64
5623.85
5626.5
5628.71
5630.56
5632.13
5501.6
5502.96
5504.06
5504.97
5505.75
5506.43
5507.04
5507.58
5500.11
5502.06
5503.46
5504.54
5505.44
5506.21
5506.88
5507.47
5499.23
5501.58
5503.22
5504.43
5505.4
5506.23
5506.94
5507.57
5499.14
5501.62
5503.36
5504.62
5505.63
5506.49
5507.24
5507.9
5499.18
5501.77
5503.52
5504.79
5505.81
5506.67
5507.4
5508.04
5499.79
5502.11
5503.7
5504.89
5505.85
5506.65
5507.33
5507.93
5501.31
5502.88
5504.13
5505.17
5506.04
5506.79
5507.45
5508
5386.49
5385.06
5383.97
5383.12
5382.46
5381.95
5381.6
5381.39
5388.43
5386.33
5384.78
5383.65
5382.81
5382.18
5381.74
5381.47
5390.4
5387.84
5385.87
5384.42
5383.37
5382.61
5382.08
5381.76
5391.76
5389.02
5386.83
5385.19
5384.01
5383.18
5382.61
5382.27
5391.45
5388.96
5386.93
5385.36
5384.21
5383.39
5382.81
5382.44
5390.08
5387.92
5386.17
5384.88
5383.94
5383.24
5382.74
5382.42
5388.22
5386.6
5385.35
5384.41
5383.69
5383.14
5382.74
5382.48
5260.75
5258.23
5256.25
5254.76
5253.76
5253.28
5253.36
5253.97
5263.94
5260.22
5257.41
5255.37
5253.99
5253.26
5253.2
5253.76
5267.38
5262.76
5259.12
5256.5
5254.75
5253.79
5253.59
5254.06
5270.11
5264.9
5260.73
5257.65
5255.61
5254.47
5254.15
5254.51
5269.47
5264.79
5260.85
5257.89
5255.93
5254.84
5254.54
5254.94
5267.25
5263.13
5259.82
5257.43
5255.84
5254.95
5254.75
5255.19
5264.19
5261.13
5258.76
5257.03
5255.85
5255.22
5255.15
5255.61
5113.07
5110.36
5107.85
5105.57
5103.46
5101.09
5098.22
5096.82
5115.9
5112.25
5109.12
5106.5
5104.17
5101.65
5098.58
5097.07
5118.96
5114.51
5110.71
5107.63
5105.03
5102.31
5099.07
5097.62
5121.28
5116.52
5112.21
5108.7
5105.85
5102.99
5099.65
5098.29
5121.26
5116.65
5112.5
5109.13
5106.38
5103.58
5100.3
5098.79
5119.53
5115.4
5111.87
5109
5106.53
5103.9
5100.73
5099.09
5116.82
5113.69
5110.98
5108.62
5106.44
5103.99
5101.03
5099.54
5632.75
5632.84
5632.89
5632.82
5632.85
5632.87
5632.76
5508.16
5508.26
5508.3
5508.35
5508.3
5508.26
5508.13
5381.25
5381.32
5381.35
5381.36
5381.35
5381.37
5381.36
5254.85
5254.8
5254.79
5254.84
5254.89
5254.91
5254.86
5100.7
5100.74
5100.83
5100.93
5100.94
5101
5101.09
5633.43
5633.42
5633.66
5633.82
5633.34
5633.14
5633.27
5508.48
5508.44
5508.56
5508.61
5508.32
5508.3
5508.32
5382.39
5382.33
5382.4
5382.41
5382.08
5381.98
5381.95
5256.35
5256.08
5255.96
5255.64
5255.55
5255.59
5255.9
5104.19
5104.38
5105.12
5105.56
5104.61
5103.62
5103.05
5633.05
5633.17
5633.35
5633.26
5632.91
5632.71
5632.84
5508.28
5508.28
5508.26
5508.12
5507.99
5508.1
5508.12
5381.94
5381.84
5381.87
5381.61
5381.51
5381.33
5381.31
5255.89
5255.69
5255.44
5255.09
5254.97
5254.92
5254.92
5102.76
5102.71
5102.62
5102.59
5101.9
5101.41
5100.92
5632.87
5633.06
5633.3
5633.8
5633.74
5633.58
5633.43
5508.07
5507.98
5508.08
5508.42
5508.54
5508.43
5508.48
5381.33
5381.38
5381.62
5382.12
5382.26
5382.28
5382.36
5254.82
5254.58
5254.77
5255.11
5255.59
5255.87
5256.26
5101.58
5102.43
5103.75
5104.89
5104.7
5104.12
5104.09
5634.75
5636.67
5638.09
5639.15
5639.92
5640.47
5640.86
5641.11
5634.83
5636.76
5638.17
5639.2
5639.95
5640.49
5640.86
5641.11
5634.82
5636.77
5638.19
5639.21
5639.96
5640.49
5640.86
5641.1
5634.8
5636.73
5638.17
5639.23
5639.99
5640.5
5640.87
5641.12
5634.82
5636.77
5638.19
5639.22
5639.98
5640.52
5640.9
5641.14
5634.85
5636.8
5638.22
5639.25
5640.01
5640.55
5640.93
5641.18
5634.72
5636.66
5638.11
5639.18
5639.96
5640.52
5640.92
5641.18
5508.87
5509.62
5510.23
5510.71
5511.1
5511.4
5511.62
5511.77
5508.93
5509.69
5510.29
5510.76
5511.14
5511.43
5511.64
5511.79
5509.01
5509.73
5510.32
5510.78
5511.15
5511.44
5511.65
5511.8
5509.05
5509.78
5510.36
5510.82
5511.18
5511.46
5511.67
5511.81
5508.98
5509.72
5510.31
5510.78
5511.16
5511.45
5511.67
5511.81
5508.95
5509.69
5510.29
5510.76
5511.15
5511.44
5511.67
5511.82
5508.84
5509.59
5510.2
5510.69
5511.08
5511.39
5511.62
5511.79
5381.36
5381.69
5381.99
5382.22
5382.39
5382.51
5382.59
5382.64
5381.43
5381.74
5382.03
5382.25
5382.42
5382.54
5382.61
5382.66
5381.46
5381.76
5382.04
5382.26
5382.42
5382.54
5382.62
5382.66
5381.46
5381.76
5382.04
5382.27
5382.43
5382.55
5382.63
5382.67
5381.43
5381.76
5382.04
5382.27
5382.43
5382.55
5382.63
5382.67
5381.48
5381.77
5382.04
5382.26
5382.42
5382.54
5382.62
5382.67
5381.48
5381.73
5381.98
5382.2
5382.36
5382.48
5382.57
5382.62
5255.61
5254.92
5254.37
5253.99
5253.74
5253.59
5253.5
5253.43
5255.57
5254.9
5254.36
5253.99
5253.74
5253.59
5253.51
5253.45
5255.55
5254.88
5254.35
5253.97
5253.73
5253.59
5253.5
5253.44
5255.59
5254.9
5254.35
5253.98
5253.74
5253.59
5253.51
5253.45
5255.65
5254.9
5254.34
5253.97
5253.73
5253.58
5253.5
5253.45
5255.61
5254.88
5254.33
5253.95
5253.72
5253.57
5253.49
5253.44
5255.51
5254.82
5254.28
5253.91
5253.67
5253.53
5253.45
5253.4
5111.91
5118.44
5121.31
5122.7
5123.38
5123.72
5123.88
5123.94
5111.88
5118.41
5121.29
5122.68
5123.37
5123.72
5123.88
5123.95
5111.89
5118.4
5121.28
5122.67
5123.37
5123.71
5123.88
5123.94
5111.94
5118.43
5121.29
5122.68
5123.37
5123.72
5123.88
5123.95
5111.98
5118.45
5121.31
5122.69
5123.38
5123.72
5123.88
5123.95
5112.07
5118.52
5121.36
5122.73
5123.4
5123.73
5123.89
5123.95
5112.23
5118.63
5121.43
5122.77
5123.42
5123.73
5123.88
5123.93
5635.3
5637.18
5638.56
5639.57
5640.3
5640.84
5641.23
5641.49
5635.24
5637.05
5638.41
5639.4
5640.12
5640.64
5640.99
5641.23
5635.42
5637.16
5638.42
5639.34
5640
5640.48
5640.82
5641.05
5635.67
5637.44
5638.69
5639.57
5640.19
5640.64
5640.98
5641.21
5635.1
5636.86
5638.16
5639.11
5639.8
5640.32
5640.68
5640.93
5634.98
5636.84
5638.24
5639.24
5639.96
5640.49
5640.85
5641.08
5635.17
5637.05
5638.43
5639.43
5640.16
5640.69
5641.07
5641.33
5509.2
5509.94
5510.51
5510.97
5511.33
5511.61
5511.83
5511.99
5509.18
5509.95
5510.51
5510.94
5511.27
5511.52
5511.71
5511.85
5509.25
5509.97
5510.51
5510.91
5511.21
5511.43
5511.6
5511.72
5509.31
5510.03
5510.58
5510.99
5511.3
5511.53
5511.71
5511.85
5509.03
5509.76
5510.31
5510.73
5511.04
5511.28
5511.46
5511.59
5509.05
5509.8
5510.36
5510.79
5511.12
5511.38
5511.57
5511.71
5509.03
5509.78
5510.36
5510.83
5511.2
5511.48
5511.7
5511.86
5382.33
5382.4
5382.51
5382.61
5382.69
5382.75
5382.8
5382.82
5382.23
5382.27
5382.37
5382.46
5382.54
5382.61
5382.67
5382.71
5382.26
5382.26
5382.34
5382.41
5382.47
5382.5
5382.54
5382.57
5382.29
5382.29
5382.37
5382.46
5382.53
5382.59
5382.63
5382.67
5381.96
5381.97
5382.06
5382.14
5382.21
5382.29
5382.33
5382.38
5381.89
5381.97
5382.11
5382.24
5382.34
5382.43
5382.49
5382.55
5381.92
5382.09
5382.26
5382.41
5382.53
5382.61
5382.67
5382.7
5256.67
5255.72
5254.98
5254.46
5254.11
5253.88
5253.74
5253.64
5256.47
5255.62
5254.9
5254.38
5254.02
5253.78
5253.63
5253.53
5256.53
5255.85
5255.19
5254.66
5254.26
5253.97
5253.75
5253.59
5256.06
5255.47
5254.89
5254.42
5254.06
5253.8
5253.62
5253.51
5256.16
5255.52
5254.91
5254.41
5254.04
5253.75
5253.57
5253.43
5256.09
5255.34
5254.69
5254.2
5253.86
5253.63
5253.48
5253.4
5256.37
5255.48
5254.79
5254.3
5253.97
5253.75
5253.62
5253.53
5114.5
5120.11
5122.46
5123.51
5123.98
5124.17
5124.23
5124.22
5114.63
5120.17
5122.48
5123.5
5123.94
5124.11
5124.15
5124.13
5115.13
5120.47
5122.69
5123.67
5124.1
5124.27
5124.31
5124.28
5115.58
5120.74
5122.87
5123.78
5124.14
5124.25
5124.23
5124.16
5114.78
5120.22
5122.5
5123.51
5123.95
5124.12
5124.17
5124.13
5114.08
5119.8
5122.21
5123.29
5123.78
5123.97
5124.03
5124.02
5113.66
5119.57
5122.09
5123.24
5123.78
5124.01
5124.09
5124.1
5634.97
5636.88
5638.3
5639.34
5640.11
5640.67
5641.07
5641.34
5635.07
5636.95
5638.33
5639.33
5640.03
5640.53
5640.9
5641.15
5635.15
5636.96
5638.28
5639.23
5639.92
5640.42
5640.77
5641.01
5635.11
5636.93
5638.24
5639.17
5639.86
5640.35
5640.69
5640.94
5634.71
5636.54
5637.89
5638.92
5639.68
5640.2
5640.57
5640.83
5634.65
5636.56
5638
5639.1
5639.85
5640.38
5640.76
5641.02
5634.8
5636.72
5638.14
5639.18
5639.93
5640.47
5640.86
5641.12
5509
5509.77
5510.36
5510.84
5511.22
5511.52
5511.75
5511.91
5509.04
5509.8
5510.36
5510.8
5511.14
5511.41
5511.62
5511.77
5508.97
5509.73
5510.33
5510.8
5511.15
5511.43
5511.63
5511.76
5508.83
5509.57
5510.16
5510.61
5510.96
5511.23
5511.44
5511.6
5508.71
5509.49
5510.11
5510.56
5510.92
5511.19
5511.4
5511.55
5508.86
5509.57
5510.16
5510.63
5511
5511.29
5511.51
5511.67
5508.83
5509.59
5510.2
5510.69
5511.07
5511.37
5511.6
5511.75
5381.93
5382.12
5382.31
5382.47
5382.59
5382.68
5382.74
5382.78
5381.81
5382.01
5382.21
5382.38
5382.5
5382.58
5382.63
5382.66
5381.89
5382.07
5382.3
5382.49
5382.61
5382.69
5382.74
5382.76
5381.63
5381.8
5382.01
5382.18
5382.31
5382.4
5382.47
5382.51
5381.54
5381.7
5381.94
5382.13
5382.27
5382.37
5382.44
5382.48
5381.4
5381.65
5381.92
5382.14
5382.31
5382.42
5382.5
5382.55
5381.4
5381.71
5382
5382.22
5382.38
5382.5
5382.58
5382.63
5256.38
5255.5
5254.81
5254.33
5254.01
5253.81
5253.68
5253.59
5256.26
5255.45
5254.79
5254.32
5254
5253.79
5253.65
5253.55
5256.11
5255.48
5254.86
5254.4
5254.08
5253.88
5253.74
5253.65
5255.88
5255.37
5254.86
5254.45
5254.13
5253.9
5253.72
5253.58
5255.74
5255.19
5254.61
5254.17
5253.86
5253.65
5253.52
5253.42
5255.66
5255.02
5254.46
5254.06
5253.78
5253.6
5253.49
5253.41
5255.66
5254.97
5254.41
5254.02
5253.76
5253.6
5253.5
5253.43
5113.45
5119.45
5122.02
5123.21
5123.77
5124.02
5124.12
5124.14
5113.36
5119.39
5121.97
5123.18
5123.75
5124.01
5124.11
5124.13
5113.28
5119.33
5121.93
5123.16
5123.75
5124.02
5124.14
5124.18
5113.25
5119.31
5121.94
5123.18
5123.78
5124.05
5124.17
5124.2
5112.77
5118.98
5121.68
5122.95
5123.56
5123.86
5123.99
5124.03
5112.4
5118.74
5121.52
5122.84
5123.48
5123.79
5123.93
5123.97
5112.08
5118.55
5121.39
5122.75
5123.42
5123.75
5123.9
5123.95
5634.84
5636.75
5638.14
5639.16
5639.9
5640.44
5640.84
5641.11
5634.89
5636.7
5638.05
5639.01
5639.72
5640.22
5640.58
5640.84
5635.06
5636.79
5638.09
5639.03
5639.72
5640.21
5640.56
5640.81
5635.62
5637.36
5638.59
5639.47
5640.09
5640.55
5640.88
5641.12
5635.52
5637.25
5638.49
5639.38
5640.02
5640.48
5640.8
5641.02
5635.39
5637.17
5638.47
5639.42
5640.11
5640.61
5640.96
5641.21
5635.3
5637.16
5638.52
5639.53
5640.26
5640.81
5641.2
5641.48
5508.75
5509.51
5510.11
5510.59
5510.97
5511.28
5511.52
5511.69
5508.7
5509.47
5510.04
5510.49
5510.84
5511.11
5511.33
5511.49
5508.78
5509.52
5510.09
5510.52
5510.86
5511.12
5511.31
5511.46
5509.12
5509.86
5510.42
5510.84
5511.17
5511.42
5511.61
5511.76
5509.23
5509.94
5510.47
5510.87
5511.17
5511.39
5511.57
5511.69
5509.14
5509.91
5510.47
5510.9
5511.22
5511.48
5511.68
5511.83
5509.19
5509.92
5510.49
5510.94
5511.31
5511.59
5511.81
5511.98
5381.35
5381.6
5381.86
5382.07
5382.24
5382.36
5382.45
5382.52
5381.35
5381.44
5381.68
5381.87
5382.02
5382.15
5382.24
5382.31
5381.56
5381.63
5381.77
5381.91
5382.03
5382.13
5382.2
5382.25
5382.04
5382.08
5382.19
5382.3
5382.39
5382.46
5382.52
5382.55
5382.14
5382.16
5382.25
5382.35
5382.42
5382.48
5382.52
5382.56
5382.18
5382.22
5382.32
5382.42
5382.5
5382.57
5382.63
5382.67
5382.31
5382.37
5382.48
5382.59
5382.67
5382.74
5382.79
5382.82
5255.5
5254.81
5254.26
5253.88
5253.63
5253.48
5253.39
5253.34
5255.29
5254.8
5254.24
5253.83
5253.55
5253.37
5253.26
5253.17
5255.45
5255.02
5254.53
5254.12
5253.8
5253.57
5253.41
5253.3
5255.62
5255.13
5254.63
5254.21
5253.89
5253.65
5253.5
5253.39
5256.19
5255.62
5255.03
5254.55
5254.18
5253.92
5253.75
5253.62
5256.29
5255.48
5254.78
5254.28
5253.94
5253.72
5253.58
5253.48
5256.59
5255.66
5254.94
5254.43
5254.09
5253.86
5253.72
5253.63
5112.61
5118.86
5121.57
5122.85
5123.46
5123.75
5123.88
5123.92
5113.25
5119.23
5121.79
5122.97
5123.52
5123.76
5123.85
5123.85
5114.26
5119.84
5122.21
5123.29
5123.77
5123.97
5124.04
5124.03
5115.1
5120.39
5122.6
5123.57
5123.97
5124.11
5124.12
5124.06
5114.89
5120.28
5122.54
5123.55
5124.01
5124.2
5124.26
5124.25
5114.45
5120.04
5122.38
5123.42
5123.89
5124.08
5124.13
5124.11
5114.43
5120.06
5122.42
5123.48
5123.96
5124.15
5124.22
5124.21
5641.24
5641.31
5641.36
5641.39
5641.41
5641.42
5641.44
5641.45
5641.23
5641.3
5641.35
5641.38
5641.4
5641.42
5641.43
5641.45
5641.23
5641.3
5641.34
5641.38
5641.4
5641.42
5641.43
5641.45
5641.24
5641.31
5641.36
5641.39
5641.41
5641.43
5641.45
5641.46
5641.26
5641.33
5641.38
5641.41
5641.43
5641.45
5641.46
5641.48
5641.3
5641.37
5641.41
5641.44
5641.46
5641.48
5641.49
5641.5
5641.31
5641.38
5641.42
5641.45
5641.47
5641.48
5641.49
5641.51
5511.85
5511.9
5511.94
5511.96
5511.98
5511.99
5512
5512
5511.87
5511.91
5511.95
5511.97
5511.99
5512
5512
5512.01
5511.87
5511.92
5511.95
5511.97
5511.99
5512
5512
5512.01
5511.89
5511.93
5511.96
5511.99
5512
5512.01
5512.02
5512.02
5511.89
5511.94
5511.98
5512
5512.01
5512.02
5512.03
5512.04
5511.9
5511.95
5511.99
5512.01
5512.03
5512.04
5512.04
5512.05
5511.88
5511.93
5511.97
5512
5512.02
5512.03
5512.03
5512.04
5382.66
5382.68
5382.69
5382.7
5382.71
5382.71
5382.71
5382.71
5382.68
5382.69
5382.71
5382.71
5382.72
5382.72
5382.72
5382.72
5382.68
5382.7
5382.71
5382.72
5382.72
5382.72
5382.73
5382.72
5382.69
5382.71
5382.72
5382.73
5382.74
5382.74
5382.74
5382.74
5382.7
5382.71
5382.73
5382.74
5382.74
5382.75
5382.75
5382.75
5382.7
5382.72
5382.73
5382.74
5382.75
5382.76
5382.76
5382.76
5382.66
5382.68
5382.7
5382.72
5382.73
5382.74
5382.75
5382.75
5253.4
5253.39
5253.38
5253.38
5253.37
5253.37
5253.37
5253.36
5253.42
5253.41
5253.4
5253.39
5253.39
5253.39
5253.38
5253.38
5253.42
5253.41
5253.4
5253.4
5253.39
5253.39
5253.39
5253.38
5253.43
5253.42
5253.41
5253.41
5253.41
5253.4
5253.4
5253.4
5253.42
5253.42
5253.41
5253.41
5253.41
5253.4
5253.4
5253.4
5253.42
5253.41
5253.41
5253.41
5253.41
5253.41
5253.4
5253.4
5253.38
5253.37
5253.37
5253.37
5253.37
5253.37
5253.37
5253.36
5123.96
5123.97
5123.97
5123.98
5123.98
5123.97
5123.97
5123.97
5123.97
5123.98
5123.99
5123.99
5123.99
5123.99
5123.99
5123.98
5123.97
5123.98
5123.99
5123.99
5123.99
5123.99
5123.99
5123.98
5123.97
5123.99
5124
5124
5124
5124
5124
5123.99
5123.97
5123.98
5123.99
5124
5124
5124
5124
5123.99
5123.97
5123.99
5123.99
5124
5124
5124
5124
5123.99
5123.95
5123.96
5123.96
5123.96
5123.96
5123.96
5123.96
5123.96
5641.63
5641.71
5641.76
5641.79
5641.8
5641.8
5641.79
5641.8
5641.37
5641.45
5641.51
5641.55
5641.58
5641.6
5641.61
5641.63
5641.18
5641.26
5641.33
5641.38
5641.42
5641.45
5641.47
5641.51
5641.36
5641.45
5641.52
5641.57
5641.62
5641.65
5641.67
5641.71
5641.08
5641.17
5641.24
5641.29
5641.34
5641.37
5641.4
5641.43
5641.23
5641.31
5641.38
5641.42
5641.45
5641.47
5641.48
5641.51
5641.46
5641.54
5641.59
5641.62
5641.64
5641.64
5641.64
5641.65
5512.07
5512.13
5512.17
5512.2
5512.22
5512.23
5512.24
5512.24
5511.94
5511.99
5512.04
5512.07
5512.09
5512.1
5512.11
5512.12
5511.8
5511.85
5511.88
5511.92
5511.94
5511.97
5511.98
5512.01
5511.94
5512
5512.04
5512.08
5512.11
5512.13
5512.15
5512.17
5511.68
5511.74
5511.78
5511.82
5511.85
5511.88
5511.9
5511.92
5511.81
5511.87
5511.92
5511.95
5511.98
5511.99
5512
5512.02
5511.95
5512.01
5512.05
5512.09
5512.11
5512.12
5512.12
5512.13
5382.84
5382.85
5382.87
5382.87
5382.88
5382.89
5382.89
5382.89
5382.73
5382.75
5382.76
5382.78
5382.79
5382.8
5382.81
5382.81
5382.58
5382.59
5382.59
5382.59
5382.6
5382.6
5382.6
5382.6
5382.69
5382.71
5382.72
5382.73
5382.75
5382.76
5382.76
5382.77
5382.42
5382.44
5382.46
5382.47
5382.48
5382.49
5382.49
5382.5
5382.58
5382.6
5382.63
5382.65
5382.66
5382.68
5382.69
5382.7
5382.73
5382.75
5382.76
5382.77
5382.78
5382.79
5382.8
5382.8
5253.59
5253.56
5253.55
5253.53
5253.52
5253.51
5253.51
5253.51
5253.47
5253.45
5253.43
5253.42
5253.41
5253.41
5253.4
5253.4
5253.5
5253.45
5253.41
5253.38
5253.35
5253.33
5253.32
5253.32
5253.45
5253.41
5253.39
5253.38
5253.37
5253.36
5253.36
5253.36
5253.34
5253.3
5253.27
5253.25
5253.24
5253.22
5253.22
5253.21
5253.34
5253.31
5253.3
5253.29
5253.28
5253.28
5253.29
5253.28
5253.49
5253.47
5253.45
5253.44
5253.44
5253.43
5253.43
5253.43
5124.2
5124.18
5124.17
5124.16
5124.15
5124.14
5124.13
5124.13
5124.09
5124.06
5124.04
5124.02
5124.01
5124
5124
5124
5124.23
5124.19
5124.15
5124.12
5124.09
5124.07
5124.06
5124.05
5124.09
5124.05
5124.02
5123.99
5123.97
5123.96
5123.95
5123.95
5124.07
5124.04
5124.01
5123.99
5123.98
5123.97
5123.96
5123.95
5123.99
5123.96
5123.94
5123.93
5123.91
5123.91
5123.9
5123.9
5124.09
5124.08
5124.08
5124.07
5124.06
5124.06
5124.05
5124.05
5641.48
5641.56
5641.61
5641.64
5641.65
5641.66
5641.66
5641.67
5641.29
5641.37
5641.43
5641.46
5641.48
5641.5
5641.5
5641.52
5641.14
5641.22
5641.29
5641.33
5641.37
5641.4
5641.41
5641.43
5641.08
5641.17
5641.24
5641.3
5641.34
5641.37
5641.39
5641.42
5640.98
5641.07
5641.13
5641.19
5641.23
5641.26
5641.28
5641.31
5641.16
5641.24
5641.29
5641.33
5641.35
5641.37
5641.38
5641.39
5641.25
5641.32
5641.37
5641.4
5641.42
5641.43
5641.44
5641.45
5512.01
5512.06
5512.1
5512.13
5512.15
5512.16
5512.16
5512.16
5511.86
5511.92
5511.96
5512
5512.02
5512.04
5512.04
5512.05
5511.84
5511.89
5511.93
5511.96
5511.98
5511.99
5512
5512.01
5511.69
5511.75
5511.8
5511.84
5511.87
5511.9
5511.92
5511.94
5511.64
5511.7
5511.74
5511.77
5511.8
5511.82
5511.84
5511.85
5511.76
5511.81
5511.85
5511.89
5511.91
5511.92
5511.93
5511.94
5511.84
5511.89
5511.93
5511.96
5511.98
5511.99
5511.99
5512
5382.8
5382.82
5382.83
5382.84
5382.84
5382.85
5382.85
5382.85
5382.68
5382.69
5382.7
5382.7
5382.71
5382.71
5382.72
5382.72
5382.76
5382.76
5382.76
5382.75
5382.74
5382.73
5382.73
5382.73
5382.53
5382.54
5382.55
5382.56
5382.57
5382.58
5382.59
5382.59
5382.5
5382.52
5382.53
5382.54
5382.55
5382.56
5382.56
5382.55
5382.57
5382.59
5382.6
5382.61
5382.62
5382.62
5382.62
5382.63
5382.65
5382.67
5382.68
5382.69
5382.7
5382.7
5382.71
5382.71
5253.55
5253.53
5253.51
5253.5
5253.49
5253.48
5253.48
5253.48
5253.5
5253.47
5253.44
5253.42
5253.41
5253.39
5253.38
5253.38
5253.59
5253.56
5253.53
5253.51
5253.5
5253.48
5253.47
5253.46
5253.5
5253.46
5253.42
5253.39
5253.36
5253.34
5253.33
5253.32
5253.37
5253.35
5253.33
5253.31
5253.3
5253.29
5253.28
5253.28
5253.37
5253.35
5253.33
5253.32
5253.31
5253.3
5253.3
5253.29
5253.4
5253.39
5253.38
5253.37
5253.36
5253.36
5253.36
5253.35
5124.13
5124.12
5124.12
5124.11
5124.1
5124.1
5124.09
5124.09
5124.12
5124.11
5124.1
5124.09
5124.08
5124.07
5124.06
5124.06
5124.18
5124.18
5124.18
5124.17
5124.17
5124.16
5124.16
5124.15
5124.19
5124.18
5124.16
5124.14
5124.11
5124.09
5124.07
5124.06
5124.03
5124.03
5124.03
5124.02
5124.01
5124
5123.99
5123.99
5123.98
5123.98
5123.98
5123.97
5123.97
5123.96
5123.96
5123.95
5123.97
5123.98
5123.98
5123.98
5123.98
5123.97
5123.97
5123.97
5641.25
5641.33
5641.38
5641.41
5641.43
5641.44
5641.45
5641.47
5640.99
5641.08
5641.15
5641.2
5641.23
5641.26
5641.28
5641.31
5640.96
5641.05
5641.12
5641.18
5641.22
5641.26
5641.29
5641.32
5641.26
5641.35
5641.42
5641.48
5641.53
5641.56
5641.58
5641.61
5641.15
5641.23
5641.29
5641.34
5641.38
5641.41
5641.43
5641.46
5641.36
5641.44
5641.5
5641.54
5641.56
5641.58
5641.59
5641.61
5641.62
5641.71
5641.76
5641.78
5641.79
5641.8
5641.79
5641.8
5511.79
5511.85
5511.9
5511.94
5511.96
5511.98
5511.98
5512
5511.59
5511.66
5511.71
5511.75
5511.78
5511.8
5511.82
5511.84
5511.55
5511.61
5511.66
5511.7
5511.74
5511.77
5511.8
5511.83
5511.85
5511.91
5511.95
5511.99
5512.02
5512.05
5512.07
5512.09
5511.77
5511.82
5511.86
5511.89
5511.92
5511.94
5511.96
5511.98
5511.92
5511.98
5512.03
5512.06
5512.08
5512.1
5512.1
5512.11
5512.07
5512.13
5512.17
5512.2
5512.22
5512.23
5512.24
5512.24
5382.56
5382.59
5382.62
5382.64
5382.66
5382.67
5382.68
5382.69
5382.35
5382.39
5382.42
5382.45
5382.47
5382.49
5382.5
5382.51
5382.28
5382.3
5382.32
5382.34
5382.35
5382.37
5382.37
5382.39
5382.58
5382.6
5382.62
5382.64
5382.65
5382.66
5382.67
5382.67
5382.58
5382.59
5382.6
5382.61
5382.61
5382.61
5382.61
5382.61
5382.7
5382.72
5382.74
5382.75
5382.77
5382.78
5382.79
5382.79
5382.84
5382.86
5382.87
5382.88
5382.89
5382.89
5382.9
5382.9
5253.32
5253.31
5253.31
5253.31
5253.31
5253.32
5253.32
5253.31
5253.12
5253.11
5253.1
5253.1
5253.1
5253.11
5253.11
5253.11
5253.23
5253.2
5253.18
5253.16
5253.14
5253.13
5253.12
5253.12
5253.34
5253.31
5253.29
5253.28
5253.27
5253.27
5253.27
5253.27
5253.55
5253.51
5253.47
5253.45
5253.42
5253.4
5253.39
5253.38
5253.43
5253.4
5253.38
5253.37
5253.37
5253.37
5253.37
5253.37
5253.59
5253.57
5253.55
5253.54
5253.53
5253.52
5253.52
5253.51
5123.93
5123.93
5123.94
5123.94
5123.94
5123.94
5123.93
5123.93
5123.82
5123.8
5123.79
5123.78
5123.77
5123.76
5123.76