/*--------------------------------*- C++ -*----------------------------------*\
| =========                 |                                                 |
| \\      /  F ield         | OpenFOAM: The Open Source CFD Toolbox           |
|  \\    /   O peration     | Version:  plus.master.MPPICInterFoam            |
|   \\  /    A nd           | Web:      www.OpenFOAM.com                      |
|    \\/     M anipulation  |                                                 |
\*---------------------------------------------------------------------------*/
FoamFile
{
    version     2.0;
    format      ascii;
    class       surfaceScalarField;
    location    "7.6";
    object      alphaPhi;
}
// * * * * * * * * * * * * * * * * * * * * * * * * * * * * * * * * * * * * * //

dimensions      [0 3 -1 0 0 0 0];

internalField   nonuniform List<scalar> 
34004
(
1.5827e-08
1.72225e-08
-1.74905e-06
-4.54721e-08
2.73123e-08
1.36071e-08
-2.19958e-06
-3.91566e-08
3.51561e-08
1.21461e-08
-2.5542e-06
-3.57223e-08
4.01256e-08
1.15527e-08
-2.89275e-06
-3.37588e-08
4.26426e-08
1.13089e-08
-3.23172e-06
-3.2397e-08
4.30384e-08
1.12381e-08
-3.57514e-06
-3.13718e-08
4.15741e-08
1.12763e-08
-3.92347e-06
-3.05887e-08
1.14111e-08
-4.27477e-06
-3.00384e-08
3.84317e-08
1.86065e-08
-1.53893e-08
-1.75823e-06
3.21708e-08
-1.57283e-08
-2.21048e-06
4.15073e-08
-1.48603e-08
-2.56702e-06
4.75483e-08
-1.38843e-08
-2.90752e-06
5.07784e-08
-1.28529e-08
-3.24855e-06
5.15473e-08
-1.18121e-08
-3.59419e-06
5.01209e-08
-1.07882e-08
-3.94487e-06
-9.78235e-09
-4.29868e-06
4.66572e-08
1.99508e-08
-5.04763e-08
-1.76289e-06
3.44446e-08
-4.72215e-08
-2.21605e-06
4.43442e-08
-4.38055e-08
-2.57361e-06
5.06916e-08
-4.11462e-08
-2.91514e-06
5.40235e-08
-3.87646e-08
-3.25725e-06
5.47282e-08
-3.65637e-08
-3.60402e-06
5.31015e-08
-3.4529e-08
-3.95588e-06
-3.26609e-08
-4.31088e-06
4.93305e-08
2.06792e-08
-8.69782e-08
-1.76247e-06
3.56409e-08
-7.98397e-08
-2.21553e-06
4.59272e-08
-7.3894e-08
-2.57322e-06
5.26221e-08
-6.96121e-08
-2.91492e-06
5.62672e-08
-6.5946e-08
-3.25728e-06
5.72395e-08
-6.26375e-08
-3.60437e-06
5.58134e-08
-5.96204e-08
-3.95661e-06
-5.68795e-08
-4.31202e-06
5.21358e-08
1.94528e-08
-1.22369e-07
-1.75588e-06
3.34633e-08
-1.11496e-07
-2.20781e-06
4.31195e-08
-1.0339e-07
-2.56448e-06
4.94865e-08
-9.78583e-08
-2.90519e-06
5.30647e-08
-9.3279e-08
-3.24659e-06
5.41983e-08
-8.92368e-08
-3.59276e-06
5.31124e-08
-8.5597e-08
-3.94408e-06
-8.23327e-08
-4.29857e-06
4.99105e-08
1.65165e-08
-1.54147e-07
-1.74291e-06
2.81451e-08
-1.3984e-07
-2.19262e-06
3.62607e-08
-1.30309e-07
-2.547e-06
4.18503e-08
-1.24199e-07
-2.88542e-06
4.53185e-08
-1.19324e-07
-3.22454e-06
4.69218e-08
-1.15108e-07
-3.5684e-06
4.67736e-08
-1.1132e-07
-3.91741e-06
-1.07867e-07
-4.26957e-06
4.4817e-08
8.40255e-09
-1.72314e-06
-1.76134e-07
1.35479e-08
-2.16967e-06
-1.59651e-07
1.68573e-08
-2.51995e-06
-1.50017e-07
1.89818e-08
-2.85412e-06
-1.44329e-07
2.03084e-08
-3.18877e-06
-1.40208e-07
2.11099e-08
-3.52786e-06
-1.36939e-07
2.14616e-08
-3.8718e-06
-1.34143e-07
-4.21861e-06
-1.31689e-07
2.12882e-08
1.51759e-08
8.8296e-09
-1.73928e-06
-3.37847e-08
2.64334e-08
5.63923e-09
-2.1884e-06
-2.81086e-08
3.43522e-08
4.45416e-09
-2.54149e-06
-2.51156e-08
3.95879e-08
4.00088e-09
-2.87862e-06
-2.34039e-08
4.24881e-08
3.86792e-09
-3.21627e-06
-2.22461e-08
4.33135e-08
3.9122e-09
-3.5585e-06
-2.14155e-08
4.22662e-08
4.07904e-09
-3.90571e-06
-2.08313e-08
4.35758e-09
-4.25589e-06
-2.04809e-08
3.94722e-08
1.73829e-08
-1.9356e-08
-1.74746e-06
3.02601e-08
-1.95368e-08
-2.19822e-06
3.93508e-08
-1.86456e-08
-2.55305e-06
4.5447e-08
-1.77027e-08
-2.89195e-06
4.8945e-08
-1.67125e-08
-3.23151e-06
5.01182e-08
-1.57014e-08
-3.57578e-06
4.91657e-08
-1.4689e-08
-3.92519e-06
-1.36749e-08
-4.2777e-06
4.61851e-08
1.82957e-08
-4.91203e-08
-1.75144e-06
3.17814e-08
-4.6012e-08
-2.2031e-06
4.12272e-08
-4.28994e-08
-2.55884e-06
4.75065e-08
-4.04923e-08
-2.89867e-06
5.10574e-08
-3.83407e-08
-3.23921e-06
5.21846e-08
-3.63441e-08
-3.58454e-06
5.11123e-08
-3.44835e-08
-3.93505e-06
-3.27561e-08
-4.28869e-06
4.79647e-08
1.85956e-08
-7.94771e-08
-1.75073e-06
3.22377e-08
-7.28666e-08
-2.20235e-06
4.18333e-08
-6.75821e-08
-2.55817e-06
4.82871e-08
-6.37931e-08
-2.89811e-06
5.204e-08
-6.05672e-08
-3.23884e-06
5.33869e-08
-5.76621e-08
-3.58443e-06
5.25325e-08
-5.50116e-08
-3.93526e-06
-5.25964e-08
-4.28925e-06
4.95621e-08
1.71236e-08
-1.08125e-07
-1.74438e-06
2.96381e-08
-9.82174e-08
-2.19502e-06
3.8442e-08
-9.10846e-08
-2.54982e-06
4.44089e-08
-8.62235e-08
-2.88876e-06
4.79483e-08
-8.22274e-08
-3.22851e-06
4.9332e-08
-7.87187e-08
-3.57312e-06
4.87317e-08
-7.55727e-08
-3.92296e-06
-7.27603e-08
-4.27592e-06
4.62086e-08
1.42814e-08
-1.33019e-07
-1.73232e-06
2.45318e-08
-1.20161e-07
-2.18097e-06
3.18287e-08
-1.11788e-07
-2.53363e-06
3.69714e-08
-1.06401e-07
-2.87042e-06
4.02899e-08
-1.02132e-07
-3.20799e-06
4.19856e-08
-9.84692e-08
-3.55039e-06
4.21431e-08
-9.5211e-08
-3.89797e-06
-9.22732e-08
-4.24865e-06
4.06947e-08
7.21827e-09
-1.71432e-06
-1.49079e-07
1.18899e-08
-2.1601e-06
-1.34441e-07
1.4962e-08
-2.50905e-06
-1.25797e-07
1.69925e-08
-2.84197e-06
-1.20622e-07
1.82749e-08
-3.17541e-06
-1.16809e-07
1.90393e-08
-3.51336e-06
-1.13773e-07
1.93671e-08
-3.85617e-06
-1.11204e-07
-4.20178e-06
-1.08997e-07
1.92244e-08
1.42919e-08
1.58068e-09
-1.73165e-06
-2.35151e-08
2.49473e-08
-1.34716e-09
-2.17946e-06
-1.82891e-08
3.25001e-08
-2.34146e-09
-2.53111e-06
-1.56287e-08
3.75638e-08
-2.71657e-09
-2.8669e-06
-1.41033e-08
4.04636e-08
-2.79408e-09
-3.20332e-06
-1.30958e-08
4.14428e-08
-2.68758e-09
-3.54442e-06
-1.24138e-08
4.06897e-08
-2.44352e-09
-3.89056e-06
-1.19872e-08
-2.07079e-09
-4.23968e-06
-1.18035e-08
3.83089e-08
1.59257e-08
-2.25351e-08
-1.73929e-06
2.77212e-08
-2.26822e-08
-2.18872e-06
3.60987e-08
-2.18394e-08
-2.54197e-06
4.17706e-08
-2.0976e-08
-2.8794e-06
4.51071e-08
-2.00645e-08
-3.21761e-06
4.63688e-08
-1.91158e-08
-3.56066e-06
4.57449e-08
-1.81429e-08
-3.90891e-06
-1.71428e-08
-4.26025e-06
4.33176e-08
1.6413e-08
-4.74319e-08
-1.74298e-06
2.84894e-08
-4.45696e-08
-2.19333e-06
3.69798e-08
-4.17844e-08
-2.54742e-06
4.26684e-08
-3.96423e-08
-2.88572e-06
4.59635e-08
-3.77273e-08
-3.22488e-06
4.71555e-08
-3.59389e-08
-3.56895e-06
4.64592e-08
-3.42549e-08
-3.91828e-06
-3.26693e-08
-4.27072e-06
4.39814e-08
1.63365e-08
-7.22353e-08
-1.74229e-06
2.82791e-08
-6.62117e-08
-2.19269e-06
3.66839e-08
-6.1548e-08
-2.54685e-06
4.23624e-08
-5.82173e-08
-2.88525e-06
4.57286e-08
-5.53929e-08
-3.22458e-06
4.70689e-08
-5.28518e-08
-3.5689e-06
4.65858e-08
-5.05299e-08
-3.91854e-06
-4.84055e-08
-4.27133e-06
4.4356e-08
1.47311e-08
-9.49661e-08
-1.7364e-06
2.54425e-08
-8.60121e-08
-2.18596e-06
3.29515e-08
-7.97496e-08
-2.53916e-06
3.8034e-08
-7.54856e-08
-2.87661e-06
4.10811e-08
-7.19994e-08
-3.21499e-06
4.23647e-08
-6.89522e-08
-3.55834e-06
4.20668e-08
-6.62311e-08
-3.907e-06
-6.38068e-08
-4.25875e-06
4.02528e-08
1.20669e-08
-1.14031e-07
-1.72534e-06
2.06861e-08
-1.02511e-07
-2.17312e-06
2.67758e-08
-9.51539e-08
-2.52435e-06
3.10417e-08
-9.04024e-08
-2.8598e-06
3.38081e-08
-8.66547e-08
-3.19614e-06
3.52899e-08
-8.3463e-08
-3.5374e-06
3.5601e-08
-8.06519e-08
-3.8839e-06
-7.81477e-08
-4.23346e-06
3.47052e-08
6.03705e-09
-1.70904e-06
-1.2537e-07
9.94966e-09
-2.15421e-06
-1.12351e-07
1.24278e-08
-2.5021e-06
-1.04619e-07
1.39972e-08
-2.83405e-06
-9.99237e-08
1.49358e-08
-3.16662e-06
-9.6423e-08
1.54877e-08
-3.50378e-06
-9.36295e-08
1.57786e-08
-3.84587e-06
-9.12868e-08
-4.1907e-06
-8.93145e-08
1.58271e-08
1.32819e-08
-4.88246e-09
-1.72585e-06
-1.42083e-08
2.30333e-08
-7.63187e-09
-2.17232e-06
-9.30033e-09
2.98629e-08
-8.53616e-09
-2.52254e-06
-6.89554e-09
3.43824e-08
-8.88082e-09
-2.85706e-06
-5.51298e-09
3.6946e-08
-8.93395e-09
-3.19236e-06
-4.62422e-09
3.78335e-08
-8.78744e-09
-3.53249e-06
-4.06559e-09
3.7269e-08
-8.47938e-09
-3.87778e-06
-3.77608e-09
-8.01682e-09
-4.22607e-06
-3.74311e-09
3.53749e-08
1.43473e-08
-2.52759e-08
-1.73328e-06
2.47775e-08
-2.54727e-08
-2.18135e-06
3.20488e-08
-2.47282e-08
-2.53308e-06
3.68786e-08
-2.39715e-08
-2.86918e-06
3.96716e-08
-2.31578e-08
-3.20622e-06
4.07349e-08
-2.22861e-08
-3.54826e-06
4.03046e-08
-2.13637e-08
-3.89563e-06
-2.03846e-08
-4.24611e-06
3.84912e-08
1.44287e-08
-4.57177e-08
-1.73699e-06
2.47986e-08
-4.316e-08
-2.18605e-06
3.19182e-08
-4.07039e-08
-2.5386e-06
3.65641e-08
-3.88231e-08
-2.87556e-06
3.9183e-08
-3.71371e-08
-3.21355e-06
4.01183e-08
-3.55476e-08
-3.55666e-06
3.96387e-08
-3.40302e-08
-3.90518e-06
-3.25759e-08
-4.25682e-06
3.78857e-08
1.40202e-08
-6.54854e-08
-1.73657e-06
2.39809e-08
-6.00642e-08
-2.18579e-06
3.07814e-08
-5.59701e-08
-2.53842e-06
3.52241e-08
-5.30559e-08
-2.8755e-06
3.77675e-08
-5.05905e-08
-3.2137e-06
3.87602e-08
-4.83713e-08
-3.5571e-06
3.84699e-08
-4.63374e-08
-3.90598e-06
-4.44662e-08
-4.25803e-06
3.70192e-08
1.23592e-08
-8.29798e-08
-1.73129e-06
2.10345e-08
-7.49305e-08
-2.17981e-06
2.6874e-08
-6.94391e-08
-2.53157e-06
3.06453e-08
-6.57009e-08
-2.86777e-06
3.27923e-08
-6.26566e-08
-3.20511e-06
3.36571e-08
-6.00055e-08
-3.54761e-06
3.3498e-08
-5.76468e-08
-3.89557e-06
-5.55529e-08
-4.24665e-06
3.24374e-08
9.92604e-09
-9.704e-08
-1.72123e-06
1.67137e-08
-8.67263e-08
-2.16816e-06
2.12603e-08
-8.02597e-08
-2.51811e-06
2.42635e-08
-7.60612e-08
-2.85248e-06
2.61108e-08
-7.2763e-08
-3.18792e-06
2.70966e-08
-6.99722e-08
-3.52845e-06
2.74241e-08
-6.75396e-08
-3.87437e-06
-6.54022e-08
-4.22336e-06
2.71338e-08
4.88161e-09
-1.70645e-06
-1.04534e-07
7.78169e-09
-2.15097e-06
-9.29012e-08
9.33358e-09
-2.49794e-06
-8.60083e-08
1.00857e-08
-2.82915e-06
-8.1752e-08
1.03764e-08
-3.16115e-06
-7.85583e-08
1.05198e-08
-3.49793e-06
-7.60048e-08
1.07336e-08
-3.83977e-06
-7.38858e-08
-4.18439e-06
-7.21372e-08
1.11166e-08
1.21666e-08
-1.0954e-08
-1.72158e-06
-5.4999e-09
2.07326e-08
-1.36286e-08
-2.16647e-06
-8.28914e-10
2.64639e-08
-1.44704e-08
-2.51521e-06
1.36367e-09
3.00379e-08
-1.4805e-08
-2.84851e-06
2.63934e-09
3.18987e-08
-1.48514e-08
-3.18285e-06
3.43706e-09
3.24205e-08
-1.46801e-08
-3.52227e-06
3.89489e-09
3.19183e-08
-1.43209e-08
-3.86706e-06
4.06418e-09
-1.37774e-08
-4.21495e-06
3.95338e-09
3.05797e-08
1.26788e-08
-2.78878e-08
-1.72905e-06
2.14387e-08
-2.8193e-08
-2.17559e-06
2.71987e-08
-2.75639e-08
-2.52579e-06
3.07482e-08
-2.69204e-08
-2.86065e-06
3.25912e-08
-2.62065e-08
-3.19674e-06
3.31468e-08
-2.54115e-08
-3.53812e-06
3.27629e-08
-2.45366e-08
-3.88507e-06
-2.35726e-08
-4.23523e-06
3.16345e-08
1.23624e-08
-4.42135e-08
-1.73305e-06
2.07077e-08
-4.19855e-08
-2.18064e-06
2.6014e-08
-3.98426e-08
-2.53167e-06
2.91352e-08
-3.8207e-08
-2.86743e-06
3.06273e-08
-3.67322e-08
-3.20456e-06
3.09585e-08
-3.53233e-08
-3.54712e-06
3.05227e-08
-3.39541e-08
-3.89537e-06
-3.26126e-08
-4.24686e-06
2.95578e-08
1.16513e-08
-5.93685e-08
-1.73309e-06
1.93191e-08
-5.45353e-08
-2.18095e-06
2.40658e-08
-5.09543e-08
-2.53209e-06
2.67758e-08
-4.84113e-08
-2.86804e-06
2.80264e-08
-4.62607e-08
-3.20546e-06
2.83046e-08
-4.43198e-08
-3.54843e-06
2.80184e-08
-4.25323e-08
-3.89716e-06
-4.08758e-08
-4.2492e-06
2.74029e-08
9.9832e-09
-7.21572e-08
-1.72851e-06
1.6339e-08
-6.49463e-08
-2.1758e-06
2.00813e-08
-6.01334e-08
-2.52617e-06
2.20633e-08
-5.68545e-08
-2.86135e-06
2.28568e-08
-5.41899e-08
-3.19801e-06
2.29497e-08
-5.18755e-08
-3.54019e-06
2.27505e-08
-4.9823e-08
-3.88812e-06
-4.80083e-08
-4.23931e-06
2.25035e-08
7.81518e-09
-8.18314e-08
-1.7194e-06
1.251e-08
-7.25926e-08
-2.16524e-06
1.51134e-08
-6.69044e-08
-2.51398e-06
1.64086e-08
-6.31873e-08
-2.84748e-06
1.69172e-08
-6.0274e-08
-3.18238e-06
1.70856e-08
-5.78239e-08
-3.52271e-06
1.72754e-08
-5.57112e-08
-3.86872e-06
-5.38844e-08
-4.21792e-06
1.76637e-08
3.69448e-09
-1.70592e-06
-8.608e-08
5.26659e-09
-2.14954e-06
-7.56376e-08
5.48395e-09
-2.49558e-06
-6.95103e-08
4.98581e-09
-2.82622e-06
-6.56517e-08
4.24654e-09
-3.15797e-06
-6.27505e-08
3.71609e-09
-3.49483e-06
-6.04291e-08
3.7637e-09
-3.83705e-06
-5.85265e-08
-4.18218e-06
-5.6992e-08
4.6147e-09
1.09179e-08
-1.69106e-08
-1.71849e-06
2.88408e-09
1.79335e-08
-1.95298e-08
-2.16139e-06
7.38673e-09
2.20912e-08
-2.0326e-08
-2.50849e-06
9.41303e-09
2.42255e-08
-2.0657e-08
-2.84061e-06
1.05883e-08
2.49331e-08
-2.06986e-08
-3.17419e-06
1.12946e-08
2.47493e-08
-2.05011e-08
-3.51327e-06
1.16473e-08
2.41499e-08
-2.00857e-08
-3.85811e-06
1.16895e-08
-1.94524e-08
-4.20627e-06
1.14263e-08
2.34532e-08
1.08697e-08
-3.06099e-08
-1.72625e-06
1.75717e-08
-3.10367e-08
-2.17083e-06
2.13115e-08
-3.05202e-08
-2.51937e-06
2.30397e-08
-2.99826e-08
-2.85309e-06
2.34323e-08
-2.93591e-08
-3.18852e-06
2.30948e-08
-2.86286e-08
-3.5297e-06
2.25634e-08
-2.77865e-08
-3.87689e-06
-2.68204e-08
-4.22754e-06
2.21904e-08
1.01471e-08
-4.30894e-08
-1.73075e-06
1.60414e-08
-4.1184e-08
-2.17643e-06
1.89754e-08
-3.93256e-08
-2.52583e-06
1.99775e-08
-3.791e-08
-2.86054e-06
1.97908e-08
-3.66209e-08
-3.19715e-06
1.90893e-08
-3.53664e-08
-3.53973e-06
1.84764e-08
-3.41188e-08
-3.88847e-06
-3.28638e-08
-4.24076e-06
1.83679e-08
9.14575e-09
-5.3959e-08
-1.73139e-06
1.40828e-08
-4.96775e-08
-2.17743e-06
1.61961e-08
-4.65506e-08
-2.52702e-06
1.65533e-08
-4.43317e-08
-2.86201e-06
1.5933e-08
-4.24505e-08
-3.19906e-06
1.50451e-08
-4.07436e-08
-3.5422e-06
1.45261e-08
-3.91596e-08
-3.89165e-06
-3.76776e-08
-4.24472e-06
1.48106e-08
7.49545e-09
-6.24331e-08
-1.72756e-06
1.1103e-08
-5.59879e-08
-2.17314e-06
1.21743e-08
-5.17691e-08
-2.52206e-06
1.17521e-08
-4.88878e-08
-2.85641e-06
1.062e-08
-4.65458e-08
-3.19282e-06
9.49676e-09
-4.45135e-08
-3.53534e-06
9.02769e-09
-4.27158e-08
-3.88414e-06
-4.11333e-08
-4.23654e-06
9.66441e-09
5.6167e-09
-6.81632e-08
-1.71931e-06
7.80768e-09
-5.98828e-08
-2.16358e-06
7.91357e-09
-5.48739e-08
-2.51102e-06
6.91285e-09
-5.15764e-08
-2.84383e-06
5.54115e-09
-4.89909e-08
-3.17861e-06
4.47818e-09
-4.68288e-08
-3.51938e-06
4.32522e-09
-4.49856e-08
-3.86634e-06
-4.34222e-08
-4.21683e-06
5.4731e-09
2.36426e-09
-1.70692e-06
-6.956e-08
2.14454e-09
-2.1491e-06
-6.0149e-08
4.62909e-10
-2.4941e-06
-5.47136e-08
-1.87e-09
-2.82428e-06
-5.12213e-08
-4.15039e-09
-3.15613e-06
-4.85899e-08
-5.72453e-09
-3.49364e-06
-4.64878e-08
-5.99999e-09
-3.83701e-06
-4.47895e-08
-4.18364e-06
-4.34585e-08
-4.55734e-09
9.42142e-09
-2.29359e-08
-1.71618e-06
1.11906e-08
1.43878e-08
-2.54897e-08
-2.1564e-06
1.54922e-08
1.63626e-08
-2.6236e-08
-2.50161e-06
1.73412e-08
1.64229e-08
-2.65537e-08
-2.83257e-06
1.84099e-08
1.53916e-08
-2.65771e-08
-3.16564e-06
1.90173e-08
1.40465e-08
-2.63345e-08
-3.50488e-06
1.92482e-08
1.31102e-08
-2.58388e-08
-3.85052e-06
1.91376e-08
-2.5087e-08
-4.19994e-06
1.869e-08
1.31192e-08
8.812e-09
-3.36098e-08
-1.72441e-06
1.29054e-08
-3.41343e-08
-2.16632e-06
1.39483e-08
-3.37098e-08
-2.51298e-06
1.31513e-08
-3.32574e-08
-2.84563e-06
1.14462e-08
-3.27018e-08
-3.18073e-06
9.70982e-09
-3.20094e-08
-3.52234e-06
8.75725e-09
-3.11701e-08
-3.87065e-06
-3.01688e-08
-4.22294e-06
9.19339e-09
7.64794e-09
-4.24585e-08
-1.72957e-06
1.04822e-08
-4.08379e-08
-2.1726e-06
1.03006e-08
-3.92236e-08
-2.52018e-06
8.40947e-09
-3.79942e-08
-2.85395e-06
5.83438e-09
-3.68563e-08
-3.19046e-06
3.54556e-09
-3.572e-08
-3.53377e-06
2.45289e-09
-3.45568e-08
-3.88403e-06
-3.33515e-08
-4.23843e-06
3.25087e-09
6.34695e-09
-4.92823e-08
-1.73094e-06
7.91419e-09
-4.54981e-08
-2.17438e-06
6.60862e-09
-4.27659e-08
-2.52221e-06
3.80299e-09
-4.08223e-08
-2.85642e-06
5.71112e-10
-3.91623e-08
-3.19356e-06
-2.05903e-09
-3.76424e-08
-3.5377e-06
-3.12553e-09
-3.62154e-08
-3.88897e-06
-3.48637e-08
-4.24449e-06
-1.89612e-09
4.7209e-09
-5.37094e-08
-1.72788e-06
4.92822e-09
-4.79597e-08
-2.17093e-06
2.53234e-09
-4.42608e-08
-2.51821e-06
-1.10957e-09
-4.17193e-08
-2.85191e-06
-4.90611e-09
-3.96472e-08
-3.18858e-06
-7.81934e-09
-3.78456e-08
-3.53227e-06
-8.86702e-09
-3.6254e-08
-3.8831e-06
-3.48596e-08
-4.23817e-06
-7.28951e-09
3.15176e-09
-5.57925e-08
-1.72041e-06
2.18988e-09
-4.83746e-08
-2.16225e-06
-9.7506e-10
-4.39684e-08
-2.50819e-06
-5.05548e-09
-4.10354e-08
-2.84048e-06
-9.01865e-09
-3.8729e-08
-3.1756e-06
-1.18602e-08
-3.68077e-08
-3.51762e-06
-1.2642e-08
-3.51897e-08
-3.86666e-06
-3.38498e-08
-4.21987e-06
-1.06613e-08
7.3164e-10
-1.70889e-06
-5.45759e-08
-1.94514e-09
-2.14874e-06
-4.6101e-08
-6.31602e-09
-2.49246e-06
-4.12772e-08
-1.12438e-08
-2.8223e-06
-3.81279e-08
-1.57582e-08
-3.15465e-06
-3.57391e-08
-1.88936e-08
-3.49352e-06
-3.38401e-08
-1.97435e-08
-3.83906e-06
-3.23332e-08
-4.18848e-06
-3.11968e-08
-1.76054e-08
7.5571e-09
-2.91604e-08
-1.71409e-06
1.94996e-08
9.78274e-09
-3.15948e-08
-2.15065e-06
2.35737e-08
8.76214e-09
-3.22641e-08
-2.4936e-06
2.52354e-08
5.91405e-09
-3.25401e-08
-2.8234e-06
2.61772e-08
2.38037e-09
-3.25087e-08
-3.15629e-06
2.66515e-08
-7.29334e-10
-3.21758e-08
-3.49635e-06
2.67152e-08
-2.34946e-09
-3.15458e-08
-3.8438e-06
2.63962e-08
-3.06164e-08
-4.1958e-06
2.57027e-08
-1.62453e-09
6.33509e-09
-3.69958e-08
-1.72294e-06
7.05742e-09
-3.755e-08
-2.16113e-06
4.50544e-09
-3.71816e-08
-2.50555e-06
2.72905e-10
-3.67728e-08
-2.83721e-06
-4.35933e-09
-3.62448e-08
-3.1724e-06
-8.14952e-09
-3.55427e-08
-3.51522e-06
-9.90168e-09
-3.46512e-08
-3.86584e-06
-3.35562e-08
-4.2213e-06
-8.65409e-09
4.66955e-09
-4.23814e-08
-1.72888e-06
3.58291e-09
-4.09738e-08
-2.16814e-06
-7.19564e-10
-3.95487e-08
-2.51355e-06
-6.47204e-09
-3.84654e-08
-2.84655e-06
-1.23231e-08
-3.74302e-08
-3.18347e-06
-1.69027e-08
-3.636e-08
-3.52841e-06
-1.88851e-08
-3.52253e-08
-3.88152e-06
-3.40132e-08
-4.23972e-06
-1.71831e-08
3.04186e-09
-4.53232e-08
-1.73107e-06
2.94945e-10
-4.19642e-08
-2.17069e-06
-5.45494e-09
-3.95722e-08
-2.51647e-06
-1.24425e-08
-3.78507e-08
-2.85009e-06
-1.92114e-08
-3.63592e-08
-3.1879e-06
-2.43193e-08
-3.49703e-08
-3.53402e-06
-2.63618e-08
-3.36451e-08
-3.88855e-06
-3.23722e-08
-4.24835e-06
-2.41833e-08
1.44354e-09
-4.58751e-08
-1.7288e-06
-2.71002e-09
-4.0757e-08
-2.16802e-06
-9.62288e-09
-3.75194e-08
-2.51339e-06
-1.75094e-08
-3.52648e-08
-2.84665e-06
-2.4905e-08
-3.34077e-08
-3.18418e-06
-3.03415e-08
-3.1786e-08
-3.53006e-06
-3.23897e-08
-3.03527e-08
-3.88439e-06
-2.9104e-08
-4.24402e-06
-2.9866e-08
2.02635e-10
-4.45009e-08
-1.72201e-06
-4.83968e-09
-3.78933e-08
-2.16011e-06
-1.2313e-08
-3.40202e-08
-2.50425e-06
-2.04907e-08
-3.14032e-08
-2.8362e-06
-2.79517e-08
-2.93317e-08
-3.17226e-06
-3.32784e-08
-2.76116e-08
-3.51651e-06
-3.50896e-08
-2.61834e-08
-3.86907e-06
-2.50366e-08
-4.22682e-06
-3.22562e-08
-1.45199e-09
-1.71116e-06
-4.08059e-08
-7.49935e-09
-2.14739e-06
-3.32342e-08
-1.55814e-08
-2.48949e-06
-2.89492e-08
-2.41013e-08
-2.81911e-06
-2.61141e-08
-3.1729e-08
-3.15245e-06
-2.39468e-08
-3.71073e-08
-3.49356e-06
-2.22368e-08
-3.89083e-08
-3.84258e-06
-2.09137e-08
-4.19647e-06
-1.99698e-08
-3.60324e-08
5.12848e-09
-3.56442e-08
-1.71148e-06
2.78883e-08
3.68812e-09
-3.78459e-08
-2.14305e-06
3.16391e-08
-1.39106e-09
-3.83748e-08
-2.48325e-06
3.30697e-08
-8.17582e-09
-3.85578e-08
-2.81192e-06
3.38274e-08
-1.5156e-08
-3.8399e-08
-3.14505e-06
3.40997e-08
-2.07955e-08
-3.78861e-08
-3.48678e-06
3.39081e-08
-2.35805e-08
-3.70187e-08
-3.83731e-06
3.32764e-08
-3.5802e-08
-4.19363e-06
3.2224e-08
-2.22197e-08
3.22301e-09
-4.08009e-08
-1.72104e-06
-5.02313e-10
-4.12608e-08
-2.15403e-06
-7.7632e-09
-4.08981e-08
-2.49581e-06
-1.65325e-08
-4.04786e-08
-2.82656e-06
-2.51012e-08
-3.98997e-08
-3.16237e-06
-3.17627e-08
-3.90991e-08
-3.50739e-06
-3.48318e-08
-3.80568e-08
-3.86177e-06
-3.67662e-08
-4.22235e-06
-3.287e-08
1.00504e-09
-4.28614e-08
-1.72785e-06
-5.16148e-09
-4.15518e-08
-2.16172e-06
-1.47766e-08
-4.02728e-08
-2.50459e-06
-2.56131e-08
-3.92597e-08
-2.83697e-06
-3.58305e-08
-3.82553e-08
-3.17494e-06
-4.35758e-08
-3.71698e-08
-3.52264e-06
-4.70014e-08
-3.59761e-08
-3.88022e-06
-3.46698e-08
-4.24435e-06
-4.45122e-08
-1.04442e-09
-4.20349e-08
-1.73087e-06
-9.26756e-09
-3.90389e-08
-2.16502e-06
-2.076e-08
-3.69097e-08
-2.50838e-06
-3.3175e-08
-3.53474e-08
-2.84162e-06
-4.45992e-08
-3.39585e-08
-3.18081e-06
-5.30806e-08
-3.26315e-08
-3.53012e-06
-5.66658e-08
-3.13373e-08
-3.88965e-06
-3.00755e-08
-4.256e-06
-5.36661e-08
-2.68698e-09
-3.88262e-08
-1.72934e-06
-1.23981e-08
-3.43105e-08
-2.16308e-06
-2.5113e-08
-3.14567e-08
-2.50616e-06
-3.84899e-08
-2.94347e-08
-2.83923e-06
-5.05991e-08
-2.77417e-08
-3.17833e-06
-5.94556e-08
-2.62501e-08
-3.52763e-06
-6.30708e-08
-2.49292e-08
-3.88723e-06
-2.37866e-08
-4.2537e-06
-5.97211e-08
-3.61173e-09
-3.4123e-08
-1.72313e-06
-1.393e-08
-2.83095e-08
-2.15583e-06
-2.69503e-08
-2.4905e-08
-2.49782e-06
-4.04269e-08
-2.25649e-08
-2.82963e-06
-5.24765e-08
-2.06961e-08
-3.16729e-06
-6.1163e-08
-1.91519e-08
-3.51496e-06
-6.455e-08
-1.78945e-08
-3.87276e-06
-1.69275e-08
-4.2373e-06
-6.09709e-08
-4.51309e-09
-1.71275e-06
-2.80471e-08
-1.51209e-08
-2.14379e-06
-2.13442e-08
-2.81163e-08
-2.48387e-06
-1.75647e-08
-4.14178e-08
-2.81339e-06
-1.50213e-08
-5.32356e-08
-3.1483e-06
-1.30681e-08
-6.17146e-08
-3.49272e-06
-1.15504e-08
-6.49948e-08
-3.84681e-06
-1.04233e-08
-4.20728e-06
-9.69027e-09
-6.1464e-08
1.9482e-09
-4.23507e-08
-1.7074e-06
3.63125e-08
-4.37541e-09
-4.41156e-08
-2.13222e-06
3.95727e-08
-1.47393e-08
-4.44455e-08
-2.46917e-06
4.06918e-08
-2.67149e-08
-4.44148e-08
-2.79674e-06
4.11705e-08
-3.82792e-08
-4.39946e-08
-3.13064e-06
4.1106e-08
-4.7389e-08
-4.31412e-08
-3.47506e-06
4.04962e-08
-5.19847e-08
-4.18541e-08
-3.83027e-06
3.93654e-08
-4.01612e-08
-4.19302e-06
3.77594e-08
-5.02377e-08
-7.96069e-10
-4.49769e-08
-1.71764e-06
-1.01775e-08
-4.52023e-08
-2.1436e-06
-2.35292e-08
-4.4722e-08
-2.48222e-06
-3.81464e-08
-4.41857e-08
-2.81221e-06
-5.18369e-08
-4.3432e-08
-3.14928e-06
-6.23524e-08
-4.23844e-08
-3.49767e-06
-6.74216e-08
-4.10258e-08
-3.85757e-06
-3.93704e-08
-4.22557e-06
-6.50325e-08
-3.77028e-09
-4.38232e-08
-1.72526e-06
-1.63632e-08
-4.25232e-08
-2.15184e-06
-3.26918e-08
-4.12657e-08
-2.49176e-06
-4.99334e-08
-4.02289e-08
-2.82372e-06
-6.57388e-08
-3.91428e-08
-3.16346e-06
-7.76711e-08
-3.79154e-08
-3.51522e-06
-8.32601e-08
-3.65267e-08
-3.87917e-06
-3.49907e-08
-4.25173e-06
-8.03079e-08
-6.31789e-09
-3.93564e-08
-1.72905e-06
-2.14751e-08
-3.66414e-08
-2.15578e-06
-4.00936e-08
-3.46873e-08
-2.49638e-06
-5.92938e-08
-3.32029e-08
-2.82948e-06
-7.66211e-08
-3.18309e-08
-3.17084e-06
-8.95149e-08
-3.04752e-08
-3.5247e-06
-9.53774e-08
-2.91193e-08
-3.89123e-06
-2.77797e-08
-4.26673e-06
-9.18995e-08
-8.07771e-09
-3.24958e-08
-1.72815e-06
-2.47817e-08
-2.85358e-08
-2.15452e-06
-4.46928e-08
-2.60035e-08
-2.49497e-06
-6.49297e-08
-2.4159e-08
-2.82807e-06
-8.30056e-08
-2.25802e-08
-3.16954e-06
-9.63187e-08
-2.1173e-08
-3.52365e-06
-1.02231e-07
-1.99241e-08
-3.89055e-06
-1.88542e-08
-4.26651e-06
-9.83981e-08
-8.67217e-09
-2.45756e-08
-1.7224e-06
-2.56502e-08
-1.95345e-08
-2.1479e-06
-4.56114e-08
-1.65644e-08
-2.48733e-06
-6.5748e-08
-1.44779e-08
-2.81921e-06
-8.36224e-08
-1.28006e-08
-3.15924e-06
-9.66877e-08
-1.14322e-08
-3.51167e-06
-1.02364e-07
-1.03558e-08
-3.87669e-06
-9.58507e-09
-4.25062e-06
-9.83638e-08
-8.78085e-09
-1.71239e-06
-1.61738e-08
-2.53096e-08
-2.13648e-06
-1.03455e-08
-4.46197e-08
-2.47409e-06
-7.06964e-09
-6.4056e-08
-2.80364e-06
-4.82984e-09
-8.12903e-08
-3.14078e-06
-3.1236e-09
-9.38782e-08
-3.48975e-06
-1.8509e-09
-9.93351e-08
-3.85076e-06
-9.88462e-10
-4.22026e-06
-5.39454e-10
-9.5447e-08
-2.38288e-09
-4.9087e-08
-1.70057e-06
4.46249e-08
-1.49279e-08
-5.02374e-08
-2.11663e-06
4.71523e-08
-3.19949e-08
-5.01672e-08
-2.44977e-06
4.7804e-08
-5.05014e-08
-4.97442e-08
-2.77634e-06
4.78222e-08
-6.79051e-08
-4.88368e-08
-3.11163e-06
4.71955e-08
-8.15701e-08
-4.73762e-08
-3.45995e-06
4.58954e-08
-8.88074e-08
-4.53745e-08
-3.82166e-06
4.39606e-08
-4.29058e-08
-4.19327e-06
4.1488e-08
-8.71759e-08
-6.06252e-09
-4.93831e-08
-1.71131e-06
-2.2618e-08
-4.91567e-08
-2.12817e-06
-4.34367e-08
-4.84012e-08
-2.4632e-06
-6.52693e-08
-4.75714e-08
-2.79258e-06
-8.53585e-08
-4.64361e-08
-3.13163e-06
-1.00829e-07
-4.49027e-08
-3.48471e-06
-1.08757e-07
-4.29671e-08
-3.85209e-06
-4.06844e-08
-4.23009e-06
-1.06503e-07
-9.97951e-09
-4.51825e-08
-1.71951e-06
-3.04853e-08
-4.36982e-08
-2.13683e-06
-5.49606e-08
-4.23252e-08
-2.47339e-06
-8.00125e-08
-4.11188e-08
-2.80515e-06
-1.02698e-07
-3.97833e-08
-3.14746e-06
-1.19928e-07
-3.82253e-08
-3.5047e-06
-1.28559e-07
-3.64398e-08
-3.8771e-06
-3.44748e-08
-4.26078e-06
-1.25759e-07
-1.31613e-08
-3.72201e-08
-1.72387e-06
-3.67054e-08
-3.46529e-08
-2.14131e-06
-6.39152e-08
-3.2773e-08
-2.47875e-06
-9.13105e-08
-3.12651e-08
-2.81198e-06
-1.15826e-07
-2.98003e-08
-3.15634e-06
-1.34233e-07
-2.82991e-08
-3.51626e-06
-1.43253e-07
-2.67623e-08
-3.89193e-06
-2.52308e-08
-4.27933e-06
-1.39941e-07
-1.50497e-08
-2.68386e-08
-1.7235e-06
-4.02246e-08
-2.33734e-08
-2.14066e-06
-6.8812e-08
-2.11085e-08
-2.47808e-06
-9.73173e-08
-1.93936e-08
-2.81147e-06
-1.22636e-07
-1.78879e-08
-3.15617e-06
-1.41495e-07
-1.65306e-08
-3.5166e-06
-1.50576e-07
-1.53274e-08
-3.89294e-06
-1.43115e-08
-4.28114e-06
-1.46904e-07
-1.52611e-08
-1.58264e-08
-1.71817e-06
-4.03853e-08
-1.15669e-08
-2.13461e-06
-6.87631e-08
-9.01988e-09
-2.47107e-06
-9.69636e-08
-7.18906e-09
-2.80325e-06
-1.21935e-07
-5.72318e-09
-3.14646e-06
-1.40461e-07
-4.56867e-09
-3.50515e-06
-1.49284e-07
-3.72708e-09
-3.87951e-06
-3.21604e-09
-4.26555e-06
-1.45486e-07
-1.45183e-08
-1.70854e-06
-5.18115e-09
-3.84596e-08
-2.12383e-06
-3.17772e-10
-6.55601e-08
-2.45849e-06
2.44547e-09
-9.25354e-08
-2.78824e-06
4.35451e-09
-1.16461e-07
-3.12838e-06
5.76662e-09
-1.34246e-07
-3.4833e-06
6.73119e-09
-1.42743e-07
-3.85328e-06
7.25428e-09
-4.23448e-06
7.3316e-09
-1.39112e-07
-8.11437e-09
-5.56102e-08
-1.68936e-06
5.25071e-08
-2.83819e-08
-5.58007e-08
-2.0946e-06
5.4008e-08
-5.35559e-08
-5.50798e-08
-2.42348e-06
5.39297e-08
-7.99827e-08
-5.39737e-08
-2.74916e-06
5.31915e-08
-1.04525e-07
-5.22288e-08
-3.08653e-06
5.16422e-08
-1.23902e-07
-4.97577e-08
-3.44009e-06
4.92315e-08
-1.34766e-07
-4.6607e-08
-3.81026e-06
4.60355e-08
-4.29333e-08
-4.19333e-06
4.22408e-08
-1.34058e-07
-1.29319e-08
-5.37881e-08
-1.70022e-06
-3.8057e-08
-5.27856e-08
-2.10609e-06
-6.77435e-08
-5.15243e-08
-2.4371e-06
-9.81401e-08
-5.01383e-08
-2.76605e-06
-1.25875e-07
-4.83108e-08
-3.10785e-06
-1.47415e-07
-4.59396e-08
-3.46702e-06
-1.59185e-07
-4.30528e-08
-3.84391e-06
-3.97772e-08
-4.23453e-06
-1.57943e-07
-1.78606e-08
-4.67552e-08
-1.7087e-06
-4.77018e-08
-4.48222e-08
-2.11498e-06
-8.17061e-08
-4.31475e-08
-2.44779e-06
-1.15871e-07
-4.15647e-08
-2.77959e-06
-1.46625e-07
-3.9742e-08
-3.1253e-06
-1.70216e-07
-3.75899e-08
-3.48949e-06
-1.82862e-07
-3.51329e-08
-3.87241e-06
-3.24742e-08
-4.26984e-06
-1.81151e-07
-2.17071e-08
-3.5512e-08
-1.71343e-06
-5.50805e-08
-3.29321e-08
-2.11986e-06
-9.22372e-08
-3.10032e-08
-2.45377e-06
-1.29083e-07
-2.93459e-08
-2.78738e-06
-1.6192e-07
-2.76522e-08
-3.13562e-06
-1.86855e-07
-2.58624e-08
-3.50308e-06
-1.99984e-07
-2.40019e-08
-3.88996e-06
-2.21451e-08
-4.29188e-06
-1.97805e-07
-2.37336e-08
-2.18168e-08
-1.71349e-06
-5.88343e-08
-1.88006e-08
-2.11972e-06
-9.74447e-08
-1.67564e-08
-2.45375e-06
-1.35455e-07
-1.51368e-08
-2.7877e-06
-1.69125e-07
-1.36817e-08
-3.1365e-06
-1.94521e-07
-1.23654e-08
-3.50473e-06
-2.07708e-07
-1.12098e-08
-3.89258e-06
-1.02573e-08
-4.29561e-06
-2.05168e-07
-2.35318e-08
-7.90675e-09
-1.70857e-06
-5.82675e-08
-4.4789e-09
-2.11423e-06
-9.64167e-08
-2.38096e-09
-2.44733e-06
-1.33931e-07
-8.49662e-10
-2.78005e-06
-1.67126e-07
3.31032e-10
-3.12731e-06
-1.92112e-07
1.1457e-09
-3.4937e-06
-2.05015e-07
1.6133e-09
-3.87946e-06
1.72352e-09
-4.28022e-06
-2.02367e-07
-2.18915e-08
-1.69942e-06
4.84059e-09
-5.47444e-08
-2.10412e-06
8.63696e-09
-9.1037e-08
-2.43539e-06
1.07895e-08
-1.26854e-07
-2.76555e-06
1.22434e-08
-1.58642e-07
-3.10948e-06
1.31897e-08
-1.82672e-07
-3.47179e-06
1.36272e-08
-1.95159e-07
-3.85278e-06
1.356e-08
-4.24827e-06
1.30137e-08
-1.92698e-07
-1.55106e-08
-6.15003e-08
-1.67191e-06
5.95492e-08
-4.48532e-08
-6.02631e-08
-2.06459e-06
5.95619e-08
-7.945e-08
-5.85346e-08
-2.38876e-06
5.83873e-08
-1.15046e-07
-5.63252e-08
-2.71373e-06
5.64566e-08
-1.47886e-07
-5.32489e-08
-3.05394e-06
5.34651e-08
-1.74048e-07
-4.92199e-08
-3.4141e-06
4.9361e-08
-1.8958e-07
-4.43553e-08
-3.7947e-06
4.42955e-08
-3.89401e-08
-4.19173e-06
3.85954e-08
-1.90871e-07
-2.14666e-08
-5.78149e-08
-1.68246e-06
-5.64668e-08
-5.56245e-08
-2.07576e-06
-9.62171e-08
-5.35362e-08
-2.40237e-06
-1.36276e-07
-5.12267e-08
-2.73112e-06
-1.72658e-07
-4.8283e-08
-3.07646e-06
-2.01215e-07
-4.46109e-08
-3.4431e-06
-2.17813e-07
-4.03017e-08
-3.8314e-06
-3.55907e-08
-4.23701e-06
-2.18716e-07
-2.74176e-08
-4.82557e-08
-1.69086e-06
-6.78331e-08
-4.55613e-08
-2.08466e-06
-1.12441e-07
-4.33358e-08
-2.41341e-06
-1.56666e-07
-4.11026e-08
-2.74552e-06
-1.96331e-07
-3.84846e-08
-3.09547e-06
-2.27098e-07
-3.54101e-08
-3.46796e-06
-2.44677e-07
-3.19544e-08
-3.86321e-06
-2.82996e-08
-4.27662e-06
-2.45223e-07
-3.1926e-08
-3.40853e-08
-1.69569e-06
-7.63085e-08
-3.13123e-08
-2.08976e-06
-1.24389e-07
-2.91886e-08
-2.41986e-06
-1.71516e-07
-2.72337e-08
-2.75415e-06
-2.13395e-07
-2.51557e-08
-3.1071e-06
-2.45573e-07
-2.29214e-08
-3.48343e-06
-2.63678e-07
-2.05898e-08
-3.88326e-06
-1.82769e-08
-4.30179e-06
-2.6382e-07
-3.40939e-08
-1.74287e-08
-1.69607e-06
-8.02822e-08
-1.4834e-08
-2.09004e-06
-1.29859e-07
-1.29835e-08
-2.4204e-06
-1.78164e-07
-1.14507e-08
-2.7552e-06
-2.20865e-07
-1.00557e-08
-3.10893e-06
-2.5348e-07
-8.80518e-09
-3.48626e-06
-2.71624e-07
-7.73718e-09
-3.88732e-06
-6.89663e-09
-4.30724e-06
-2.7141e-07
-3.34701e-08
-9.3707e-10
-1.69161e-06
-7.90054e-08
1.53733e-09
-2.08509e-06
-1.27906e-07
3.09758e-09
-2.41454e-06
-1.75558e-07
4.19675e-09
-2.74807e-06
-2.17683e-07
4.91838e-09
-3.10019e-06
-2.49846e-07
5.2317e-09
-3.47561e-06
-2.67702e-07
5.12688e-09
-3.8745e-06
4.63201e-09
-4.29209e-06
-2.67398e-07
-3.09277e-08
-1.68311e-06
1.36614e-08
-7.39446e-08
-2.07576e-06
1.61649e-08
-1.2051e-07
-2.40331e-06
1.75554e-08
-1.66122e-07
-2.73411e-06
1.83442e-08
-2.06625e-07
-3.08264e-06
1.85547e-08
-2.37701e-07
-3.45366e-06
1.81481e-08
-2.55083e-07
-3.84745e-06
1.71466e-08
-4.25945e-06
1.56386e-08
-2.5495e-07
-2.45557e-08
-6.61683e-08
6.51571e-08
-1.64636e-06
-6.41184e-08
-6.29472e-08
6.30917e-08
-2.0252e-06
-1.09113e-07
-5.9734e-08
6.03224e-08