/*--------------------------------*- C++ -*----------------------------------*\
| =========                 |                                                 |
| \\      /  F ield         | OpenFOAM: The Open Source CFD Toolbox           |
|  \\    /   O peration     | Version:  plus.master.MPPICInterFoam            |
|   \\  /    A nd           | Web:      www.OpenFOAM.com                      |
|    \\/     M anipulation  |                                                 |
\*---------------------------------------------------------------------------*/
FoamFile
{
    version     2.0;
    format      ascii;
    class       volScalarField;
    location    "7.6";
    object      epsilon;
}
// * * * * * * * * * * * * * * * * * * * * * * * * * * * * * * * * * * * * * //

dimensions      [0 2 -3 0 0 0 0];

internalField   nonuniform List<scalar> 
11821
(
5.35476e-05
1.86863e-05
1.37586e-05
1.26735e-05
1.2423e-05
1.23518e-05
1.22564e-05
1.20824e-05
5.37583e-05
1.87701e-05
1.37881e-05
1.26838e-05
1.24257e-05
1.23519e-05
1.22563e-05
1.20832e-05
5.38901e-05
1.8818e-05
1.3806e-05
1.26909e-05
1.24283e-05
1.23527e-05
1.22566e-05
1.20836e-05
5.39217e-05
1.88432e-05
1.38195e-05
1.26991e-05
1.24338e-05
1.23566e-05
1.22594e-05
1.20858e-05
5.38459e-05
1.88214e-05
1.38197e-05
1.2706e-05
1.24424e-05
1.23647e-05
1.22661e-05
1.20908e-05
5.36575e-05
1.87512e-05
1.38031e-05
1.27086e-05
1.24517e-05
1.23753e-05
1.22755e-05
1.20981e-05
5.33709e-05
1.85784e-05
1.37493e-05
1.26997e-05
1.24603e-05
1.23895e-05
1.22898e-05
1.211e-05
5.34075e-05
1.86671e-05
1.37593e-05
1.2681e-05
1.24334e-05
1.23633e-05
1.22675e-05
1.20918e-05
5.36114e-05
1.87432e-05
1.37874e-05
1.26924e-05
1.24381e-05
1.23655e-05
1.22693e-05
1.20939e-05
5.37365e-05
1.87851e-05
1.3804e-05
1.26999e-05
1.24419e-05
1.23677e-05
1.22709e-05
1.20955e-05
5.37636e-05
1.88029e-05
1.38144e-05
1.27069e-05
1.24469e-05
1.23714e-05
1.22736e-05
1.20975e-05
5.3684e-05
1.87753e-05
1.38107e-05
1.27108e-05
1.24529e-05
1.23773e-05
1.22784e-05
1.2101e-05
5.34934e-05
1.87052e-05
1.37921e-05
1.27101e-05
1.24585e-05
1.23841e-05
1.22843e-05
1.21052e-05
5.32054e-05
1.85481e-05
1.37415e-05
1.26984e-05
1.24616e-05
1.23918e-05
1.22921e-05
1.21113e-05
5.33256e-05
1.86607e-05
1.37724e-05
1.27026e-05
1.24595e-05
1.23916e-05
1.2296e-05
1.2118e-05
5.35338e-05
1.8731e-05
1.38001e-05
1.2716e-05
1.24675e-05
1.23977e-05
1.23016e-05
1.21237e-05
5.3662e-05
1.87685e-05
1.38162e-05
1.27251e-05
1.24738e-05
1.24027e-05
1.23061e-05
1.2128e-05
5.36931e-05
1.87814e-05
1.38249e-05
1.2732e-05
1.24795e-05
1.24076e-05
1.23103e-05
1.21315e-05
5.36165e-05
1.87515e-05
1.38193e-05
1.27342e-05
1.2484e-05
1.24121e-05
1.23139e-05
1.21341e-05
5.34294e-05
1.86836e-05
1.37997e-05
1.2731e-05
1.24863e-05
1.24155e-05
1.23166e-05
1.21355e-05
5.31451e-05
1.85422e-05
1.37526e-05
1.27171e-05
1.24846e-05
1.24173e-05
1.23183e-05
1.21359e-05
5.3304e-05
1.86729e-05
1.38041e-05
1.27457e-05
1.25104e-05
1.24476e-05
1.23538e-05
1.21737e-05
5.35259e-05
1.87394e-05
1.38331e-05
1.27634e-05
1.25244e-05
1.24605e-05
1.23668e-05
1.21866e-05
5.36667e-05
1.87752e-05
1.38508e-05
1.27761e-05
1.25355e-05
1.24713e-05
1.23776e-05
1.21972e-05
5.3709e-05
1.87858e-05
1.38595e-05
1.27845e-05
1.25437e-05
1.24792e-05
1.23853e-05
1.22046e-05
5.36404e-05
1.87558e-05
1.38532e-05
1.27859e-05
1.25475e-05
1.24833e-05
1.23887e-05
1.22071e-05
5.3459e-05
1.86912e-05
1.38331e-05
1.27803e-05
1.25464e-05
1.24828e-05
1.23874e-05
1.22048e-05
5.31787e-05
1.85641e-05
1.37885e-05
1.27635e-05
1.2539e-05
1.24777e-05
1.23817e-05
1.2198e-05
5.33502e-05
1.87112e-05
1.38643e-05
1.28232e-05
1.2602e-05
1.25498e-05
1.2462e-05
1.22808e-05
5.35947e-05
1.87774e-05
1.3898e-05
1.2849e-05
1.26265e-05
1.25751e-05
1.24886e-05
1.23078e-05
5.37576e-05
1.88144e-05
1.39199e-05
1.28685e-05
1.26464e-05
1.25963e-05
1.25111e-05
1.23307e-05
5.38178e-05
1.88253e-05
1.39309e-05
1.28809e-05
1.26599e-05
1.26108e-05
1.25262e-05
1.2346e-05
5.37611e-05
1.87973e-05
1.39252e-05
1.28827e-05
1.26641e-05
1.26154e-05
1.25305e-05
1.23497e-05
5.35855e-05
1.87361e-05
1.39042e-05
1.28739e-05
1.26585e-05
1.26097e-05
1.25235e-05
1.23417e-05
5.33065e-05
1.86208e-05
1.38604e-05
1.28521e-05
1.26429e-05
1.25943e-05
1.25065e-05
1.23235e-05
5.34771e-05
1.87871e-05
1.3969e-05
1.29559e-05
1.27599e-05
1.27289e-05
1.26551e-05
1.24763e-05
5.37552e-05
1.88578e-05
1.40124e-05
1.2996e-05
1.28025e-05
1.27757e-05
1.27058e-05
1.25289e-05
5.39502e-05
1.89002e-05
1.40431e-05
1.30278e-05
1.28381e-05
1.28154e-05
1.27493e-05
1.25743e-05
5.40357e-05
1.89147e-05
1.40597e-05
1.30479e-05
1.28614e-05
1.28417e-05
1.2778e-05
1.26044e-05
5.39942e-05
1.88904e-05
1.4056e-05
1.30514e-05
1.28673e-05
1.28485e-05
1.2785e-05
1.26113e-05
5.38229e-05
1.88322e-05
1.40332e-05
1.30379e-05
1.28551e-05
1.28348e-05
1.27692e-05
1.25942e-05
5.35404e-05
1.87254e-05
1.39869e-05
1.30072e-05
1.28264e-05
1.28032e-05
1.2734e-05
1.2557e-05
5.37053e-05
1.89184e-05
1.41431e-05
1.31761e-05
1.30245e-05
1.30327e-05
1.29877e-05
1.28193e-05
5.40314e-05
1.90005e-05
1.42042e-05
1.32405e-05
1.30975e-05
1.31157e-05
1.30793e-05
1.29159e-05
5.42709e-05
1.90544e-05
1.42509e-05
1.32935e-05
1.31595e-05
1.3187e-05
1.31589e-05
1.30005e-05
5.43906e-05
1.90774e-05
1.42782e-05
1.33273e-05
1.31999e-05
1.32338e-05
1.32115e-05
1.30567e-05
5.4368e-05
1.90591e-05
1.42785e-05
1.33344e-05
1.32096e-05
1.32451e-05
1.32237e-05
1.30699e-05
5.41985e-05
1.90027e-05
1.42522e-05
1.33134e-05
1.31872e-05
1.3219e-05
1.31941e-05
1.30382e-05
5.39053e-05
1.89003e-05
1.41987e-05
1.32677e-05
1.31374e-05
1.31616e-05
1.31295e-05
1.29696e-05
5.40685e-05
1.91329e-05
1.44245e-05
1.35331e-05
1.34566e-05
1.35337e-05
1.35424e-05
1.33999e-05
5.44604e-05
1.92369e-05
1.45159e-05
1.36372e-05
1.3579e-05
1.36753e-05
1.37009e-05
1.3569e-05
5.47614e-05
1.93122e-05
1.45902e-05
1.37252e-05
1.36842e-05
1.37984e-05
1.38399e-05
1.37186e-05
5.49275e-05
1.93513e-05
1.46362e-05
1.37823e-05
1.37531e-05
1.38794e-05
1.3932e-05
1.38186e-05
5.49288e-05
1.93428e-05
1.46437e-05
1.37957e-05
1.37697e-05
1.38989e-05
1.39542e-05
1.38429e-05
5.47569e-05
1.92862e-05
1.46112e-05
1.37629e-05
1.37314e-05
1.38538e-05
1.39032e-05
1.37886e-05
5.44434e-05
1.91862e-05
1.45424e-05
1.36911e-05
1.36476e-05
1.37556e-05
1.37922e-05
1.36698e-05
5.46165e-05
1.94732e-05
1.487e-05
1.40987e-05
1.41446e-05
1.43366e-05
1.4439e-05
1.43493e-05
5.50996e-05
1.96158e-05
1.50111e-05
1.42661e-05
1.43445e-05
1.45705e-05
1.47029e-05
1.46329e-05
5.54868e-05
1.9729e-05
1.51316e-05
1.44099e-05
1.4518e-05
1.47753e-05
1.4936e-05
1.48857e-05
5.57173e-05
1.97981e-05
1.52097e-05
1.45037e-05
1.46319e-05
1.49107e-05
1.50912e-05
1.50554e-05
5.57501e-05
1.98103e-05
1.52275e-05
1.45265e-05
1.46599e-05
1.49442e-05
1.513e-05
1.50986e-05
5.55687e-05
1.97539e-05
1.51812e-05
1.44742e-05
1.45973e-05
1.48707e-05
1.50472e-05
1.50103e-05
5.52123e-05
1.96367e-05
1.5081e-05
1.43603e-05
1.44608e-05
1.47097e-05
1.48648e-05
1.48143e-05
5.54264e-05
2.00044e-05
1.55628e-05
1.49755e-05
1.52124e-05
1.55882e-05
1.5845e-05
1.58509e-05
5.60385e-05
2.02137e-05
1.57839e-05
1.52386e-05
1.55296e-05
1.59616e-05
1.62679e-05
1.63074e-05
5.65489e-05
2.04013e-05
1.59733e-05
1.54662e-05
1.58067e-05
1.62905e-05
1.66436e-05
1.67163e-05
5.6866e-05
2.05222e-05
1.60962e-05
1.5615e-05
1.59892e-05
1.65088e-05
1.68946e-05
1.69915e-05
5.69292e-05
2.05483e-05
1.61258e-05
1.56519e-05
1.60352e-05
1.65646e-05
1.696e-05
1.70647e-05
5.67208e-05
2.04738e-05
1.60562e-05
1.55703e-05
1.59371e-05
1.64497e-05
1.68313e-05
1.69277e-05
5.6293e-05
2.03157e-05
1.59057e-05
1.53924e-05
1.57217e-05
1.61955e-05
1.65433e-05
1.66177e-05
5.66188e-05
2.08334e-05
1.66177e-05
1.63e-05
1.68271e-05
1.74855e-05
1.79837e-05
1.81481e-05
5.74139e-05
2.11589e-05
1.69524e-05
1.6703e-05
1.73156e-05
1.80614e-05
1.86362e-05
1.88532e-05
5.8082e-05
2.14348e-05
1.72403e-05
1.70533e-05
1.77443e-05
1.8571e-05
1.92181e-05
1.9487e-05
5.85056e-05
2.16113e-05
1.74272e-05
1.7283e-05
1.80275e-05
1.89099e-05
1.96077e-05
1.99141e-05
5.86028e-05
2.16517e-05
1.7473e-05
1.73411e-05
1.81008e-05
1.89996e-05
1.97129e-05
2.00317e-05
5.83492e-05
2.15476e-05
1.73689e-05
1.72173e-05
1.79524e-05
1.88271e-05
1.9521e-05
1.98285e-05
5.78156e-05
2.13265e-05
1.71435e-05
1.69459e-05
1.76232e-05
1.84396e-05
1.90836e-05
1.93585e-05
5.83669e-05
2.21e-05
1.81796e-05
1.82537e-05
1.92072e-05
2.02824e-05
2.11399e-05
2.15492e-05
5.94014e-05
2.25651e-05
1.86747e-05
1.88545e-05
1.9936e-05
2.11398e-05
2.21084e-05
2.25941e-05
6.0284e-05
2.29617e-05
1.91024e-05
1.9379e-05
2.05778e-05
2.19005e-05
2.2974e-05
2.35346e-05
6.08526e-05
2.32168e-05
1.93808e-05
1.97233e-05
2.10022e-05
2.24069e-05
2.35537e-05
2.41682e-05
6.09927e-05
2.32772e-05
1.94502e-05
1.98124e-05
2.11151e-05
2.25449e-05
2.37152e-05
2.43482e-05
6.0669e-05
2.31294e-05
1.9297e-05
1.96303e-05
2.08987e-05
2.22961e-05
2.34412e-05
2.40603e-05
5.99797e-05
2.28155e-05
1.89646e-05
1.92279e-05
2.04126e-05
2.17276e-05
2.28037e-05
2.33781e-05
6.09111e-05
2.39547e-05
2.04412e-05
2.10686e-05
2.26266e-05
2.42926e-05
2.56603e-05
2.64258e-05
6.2281e-05
2.46154e-05
2.11582e-05
2.19393e-05
2.36784e-05
2.55223e-05
2.70411e-05
2.79088e-05
6.34659e-05
2.51828e-05
2.17797e-05
2.27009e-05
2.46056e-05
2.66143e-05
2.82755e-05
2.92437e-05
6.42376e-05
2.55492e-05
2.21847e-05
2.32011e-05
2.52186e-05
2.73404e-05
2.91007e-05
3.01408e-05
6.44347e-05
2.56377e-05
2.22875e-05
2.33333e-05
2.5386e-05
2.75441e-05
2.93377e-05
3.04034e-05
6.40046e-05
2.54278e-05
2.20675e-05
2.30743e-05
2.50824e-05
2.72002e-05
2.89641e-05
3.00151e-05
6.30894e-05
2.49828e-05
2.15887e-05
2.2497e-05
2.43907e-05
2.63988e-05
2.80733e-05
2.90681e-05
6.46259e-05
2.66268e-05
2.36485e-05
2.50299e-05
2.74137e-05
2.98838e-05
3.19452e-05
3.32022e-05
6.64733e-05
2.7558e-05
2.46619e-05
2.62523e-05
2.8877e-05
3.15784e-05
3.38309e-05
3.52139e-05
6.80896e-05
2.83615e-05
2.55416e-05
2.73218e-05
3.01664e-05
3.30815e-05
3.55143e-05
3.70219e-05
6.91491e-05
2.88809e-05
2.61142e-05
2.80229e-05
3.10171e-05
3.40785e-05
3.66364e-05
3.82328e-05
6.9425e-05
2.90086e-05
2.62623e-05
2.82126e-05
3.12556e-05
3.43664e-05
3.69685e-05
3.85982e-05
6.8836e-05
2.87136e-05
2.59562e-05
2.78583e-05
3.0848e-05
3.39131e-05
3.64842e-05
3.81018e-05
6.75969e-05
2.80889e-05
2.52849e-05
2.70577e-05
2.99006e-05
3.28291e-05
3.52929e-05
3.6846e-05
5.09987e-05
1.79812e-05
1.35129e-05
1.2575e-05
1.23801e-05
1.23287e-05
1.22378e-05
1.20627e-05
5.10396e-05
1.79216e-05
1.34862e-05
1.25661e-05
1.23798e-05
1.23325e-05
1.22448e-05
1.20762e-05
5.1138e-05
1.79178e-05
1.35195e-05
1.26321e-05
1.24755e-05
5.17393e-05
1.78823e-05
5.13295e-05
5.08458e-05
1.79623e-05
1.35052e-05
1.25693e-05
1.23749e-05
1.23236e-05
1.22327e-05
1.20574e-05
5.0832e-05
1.79062e-05
1.34783e-05
1.25563e-05
1.2368e-05
1.2319e-05
1.223e-05
1.20594e-05
5.08747e-05
1.78977e-05
1.34901e-05
1.25846e-05
1.24106e-05
1.23741e-05
1.2295e-05
1.21316e-05
5.12346e-05
1.78412e-05
1.34829e-05
1.26173e-05
1.24722e-05
1.24608e-05
1.24126e-05
1.22974e-05
5.10233e-05
1.79052e-05
1.34871e-05
1.25815e-05
1.24085e-05
1.23738e-05
1.22974e-05
1.21371e-05
5.10585e-05
1.79347e-05
1.34908e-05
1.25681e-05
1.23816e-05
1.23347e-05
1.22471e-05
1.20765e-05
5.11198e-05
1.8009e-05
1.35235e-05
1.25816e-05
1.23869e-05
1.23372e-05
1.22478e-05
1.20723e-05
5.07706e-05
1.7957e-05
1.35078e-05
1.25746e-05
1.23817e-05
1.23313e-05
1.22405e-05
1.20642e-05
5.0719e-05
1.79045e-05
1.34819e-05
1.25606e-05
1.23728e-05
1.23243e-05
1.2235e-05
1.20624e-05
5.07273e-05
1.7895e-05
1.34842e-05
1.25716e-05
1.23909e-05
1.23485e-05
1.2264e-05
1.20939e-05
5.09443e-05
1.78384e-05
1.34639e-05
1.25783e-05
1.24153e-05
1.23864e-05
1.23176e-05
1.21739e-05
5.08347e-05
1.78977e-05
1.34804e-05
1.25684e-05
1.23893e-05
1.23486e-05
1.22659e-05
1.20977e-05
5.0904e-05
1.79233e-05
1.34874e-05
1.25659e-05
1.23802e-05
1.23339e-05
1.22462e-05
1.20739e-05
5.0992e-05
1.79901e-05
1.35179e-05
1.25806e-05
1.23884e-05
1.23401e-05
1.22513e-05
1.20752e-05
5.07497e-05
1.7964e-05
1.35213e-05
1.25921e-05
1.24021e-05
1.23535e-05
1.22632e-05
1.20854e-05
5.06701e-05
1.79146e-05
1.34964e-05
1.25777e-05
1.23923e-05
1.23457e-05
1.22568e-05
1.20821e-05
5.06541e-05
1.79038e-05
1.34939e-05
1.25802e-05
1.23988e-05
1.23555e-05
1.22692e-05
1.20953e-05
5.07832e-05
1.78538e-05
1.34708e-05
1.2576e-05
1.24059e-05
1.23704e-05
1.22927e-05
1.21342e-05
5.07259e-05
1.79016e-05
1.34882e-05
1.25758e-05
1.23961e-05
1.23546e-05
1.22698e-05
1.20973e-05
5.08078e-05
1.79228e-05
1.34951e-05
1.2577e-05
1.23939e-05
1.23497e-05
1.22627e-05
1.20887e-05
5.09096e-05
1.79836e-05
1.35233e-05
1.25914e-05
1.24027e-05
1.23568e-05
1.22689e-05
1.20919e-05
5.07711e-05
1.79857e-05
1.35502e-05
1.26273e-05
1.24425e-05
1.23977e-05
1.2309e-05
1.21295e-05
5.06725e-05
1.79387e-05
1.35258e-05
1.26123e-05
1.24319e-05
1.23892e-05
1.23022e-05
1.21254e-05
5.06364e-05
1.79255e-05
1.35201e-05
1.26103e-05
1.24326e-05
1.23923e-05
1.2307e-05
1.21305e-05
5.07084e-05
1.78831e-05
1.34979e-05
1.26015e-05
1.24314e-05
1.23959e-05
1.23156e-05
1.21485e-05
5.06765e-05
1.79186e-05
1.35121e-05
1.26039e-05
1.2428e-05
1.23894e-05
1.23055e-05
1.21302e-05
5.07586e-05
1.79359e-05
1.35179e-05
1.26058e-05
1.24278e-05
1.23877e-05
1.23027e-05
1.21268e-05
5.08682e-05
1.79943e-05
1.35449e-05
1.26197e-05
1.24365e-05
1.23946e-05
1.23085e-05
1.21303e-05
5.08348e-05
1.80286e-05
1.36031e-05
1.26907e-05
1.25155e-05
1.24785e-05
1.23941e-05
1.22132e-05
5.07235e-05
1.79826e-05
1.35783e-05
1.26745e-05
1.25036e-05
1.2469e-05
1.23866e-05
1.22085e-05
5.06695e-05
1.79663e-05
1.35699e-05
1.26695e-05
1.25011e-05
1.24688e-05
1.23883e-05
1.22108e-05
5.07021e-05
1.793e-05
1.35493e-05
1.26587e-05
1.24956e-05
1.24663e-05
1.23887e-05
1.22172e-05
5.06798e-05
1.79544e-05
1.35591e-05
1.26606e-05
1.24939e-05
1.2463e-05
1.23836e-05
1.2207e-05
5.07553e-05
1.79687e-05
1.35635e-05
1.26617e-05
1.24932e-05
1.2461e-05
1.23806e-05
1.22034e-05
5.08721e-05
1.80313e-05
1.35911e-05
1.26755e-05
1.25014e-05
1.24671e-05
1.23854e-05
1.22061e-05
5.0951e-05
1.8103e-05
1.36934e-05
1.27993e-05
1.26419e-05
1.26202e-05
1.2546e-05
1.23661e-05
5.08291e-05
1.80566e-05
1.36671e-05
1.2781e-05
1.26278e-05
1.26091e-05
1.25377e-05
1.23612e-05
5.07595e-05
1.80365e-05
1.36559e-05
1.27735e-05
1.26232e-05
1.26073e-05
1.25384e-05
1.23634e-05
5.07628e-05
1.80043e-05
1.36365e-05
1.27614e-05
1.26149e-05
1.26009e-05
1.25337e-05
1.23624e-05
5.07411e-05
1.80192e-05
1.36416e-05
1.27611e-05
1.2612e-05
1.2597e-05
1.25285e-05
1.23538e-05
5.08059e-05
1.80313e-05
1.36445e-05
1.27605e-05
1.26093e-05
1.25923e-05
1.2522e-05
1.23461e-05
5.09292e-05
1.81018e-05
1.36735e-05
1.2774e-05
1.26166e-05
1.2597e-05
1.25249e-05
1.23466e-05
5.1137e-05
1.82246e-05
1.38416e-05
1.29792e-05
1.28539e-05
1.28617e-05
1.28093e-05
1.26367e-05
5.10046e-05
1.81758e-05
1.38122e-05
1.29575e-05
1.28368e-05
1.28485e-05
1.28001e-05
1.26322e-05
5.09215e-05
1.81515e-05
1.37978e-05
1.29474e-05
1.28305e-05
1.2846e-05
1.28015e-05
1.26367e-05
5.09014e-05
1.81214e-05
1.37787e-05
1.29338e-05
1.28195e-05
1.2836e-05
1.27923e-05
1.26296e-05
5.08749e-05
1.81282e-05
1.37791e-05
1.293e-05
1.28133e-05
1.28283e-05
1.2783e-05
1.26172e-05
5.09267e-05
1.81386e-05
1.37801e-05
1.29267e-05
1.28066e-05
1.28182e-05
1.27693e-05
1.26007e-05
5.10513e-05
1.82143e-05
1.38091e-05
1.29392e-05
1.28124e-05
1.28205e-05
1.27688e-05
1.25969e-05
5.14191e-05
1.84164e-05
1.4078e-05
1.32696e-05
1.3201e-05
1.32624e-05
1.32528e-05
1.31008e-05
5.12746e-05
1.83631e-05
1.40435e-05
1.32428e-05
1.31796e-05
1.32466e-05
1.32434e-05
1.30988e-05
5.11796e-05
1.83338e-05
1.40253e-05
1.32298e-05
1.31715e-05
1.32441e-05
1.32469e-05
1.31079e-05
5.11395e-05
1.83041e-05
1.40053e-05
1.3214e-05
1.31573e-05
1.32301e-05
1.32327e-05
1.30944e-05
5.11049e-05
1.83037e-05
1.40006e-05
1.32052e-05
1.31452e-05
1.32149e-05
1.32143e-05
1.30719e-05
5.11427e-05
1.83126e-05
1.39989e-05
1.31975e-05
1.3132e-05
1.31956e-05
1.31884e-05
1.30402e-05
5.12617e-05
1.8388e-05
1.40258e-05
1.3208e-05
1.31352e-05
1.31939e-05
1.31819e-05
1.30287e-05
5.18344e-05
1.8712e-05
1.44467e-05
1.37282e-05
1.37557e-05
1.39106e-05
1.39793e-05
1.3873e-05
5.16753e-05
1.86511e-05
1.44045e-05
1.3694e-05
1.37286e-05
1.38921e-05
1.39716e-05
1.38774e-05
5.15686e-05
1.86159e-05
1.43815e-05
1.36774e-05
1.37188e-05
1.38906e-05
1.39795e-05
1.38949e-05
5.15108e-05
1.8585e-05
1.43593e-05
1.36582e-05
1.37001e-05
1.3871e-05
1.39586e-05
1.38733e-05
5.14663e-05
1.85778e-05
1.43487e-05
1.36425e-05
1.36789e-05
1.38436e-05
1.39245e-05
1.38323e-05
5.14896e-05
1.85843e-05
1.4343e-05
1.36284e-05
1.36556e-05
1.38098e-05
1.38791e-05
1.37763e-05
5.15966e-05
1.86527e-05
1.43654e-05
1.3636e-05
1.3655e-05
1.38017e-05
1.38629e-05
1.37517e-05
5.24377e-05
1.91599e-05
1.50114e-05
1.44378e-05
1.46226e-05
1.49333e-05
1.51376e-05
1.512e-05
5.22593e-05
1.90873e-05
1.49577e-05
1.43932e-05
1.45883e-05
1.4913e-05
1.51352e-05
1.51378e-05
5.21399e-05
1.90448e-05
1.49285e-05
1.43723e-05
1.4577e-05
1.49141e-05
1.51513e-05
1.51696e-05
5.2066e-05
1.90114e-05
1.49029e-05
1.43481e-05
1.4552e-05
1.48869e-05
1.51212e-05
1.51372e-05
5.20113e-05
1.89975e-05
1.48853e-05
1.43231e-05
1.45174e-05
1.4841e-05
1.50628e-05
1.50666e-05
5.20187e-05
1.8998e-05
1.48737e-05
1.42996e-05
1.44795e-05
1.47857e-05
1.49882e-05
1.49738e-05
5.21107e-05
1.90536e-05
1.48916e-05
1.43043e-05
1.44735e-05
1.47679e-05
1.4957e-05
1.49288e-05
5.3311e-05
1.98304e-05
1.58624e-05
1.55151e-05
1.59487e-05
1.65094e-05
1.69364e-05
1.70754e-05
5.31054e-05
1.97403e-05
1.5792e-05
1.54565e-05
1.59058e-05
1.64892e-05
1.69457e-05
1.71181e-05
5.29701e-05
1.96881e-05
1.57549e-05
1.54302e-05
1.58937e-05
1.64961e-05
1.6976e-05
1.71736e-05
5.28816e-05
1.96509e-05
1.57242e-05
1.53994e-05
1.58604e-05
1.64588e-05
1.6934e-05
1.71274e-05
5.28179e-05
1.96312e-05
1.56987e-05
1.53621e-05
1.58072e-05
1.63865e-05
1.68406e-05
1.70136e-05
5.28118e-05
1.96254e-05
1.568e-05
1.53263e-05
1.5749e-05
1.63008e-05
1.67244e-05
1.6868e-05
5.28902e-05
1.96642e-05
1.56959e-05
1.53284e-05
1.57362e-05
1.62698e-05
1.66721e-05
1.67936e-05
5.45801e-05
2.08244e-05
1.71258e-05
1.71222e-05
1.79368e-05
1.88835e-05
1.966e-05
2.00566e-05
5.43333e-05
2.07082e-05
1.70318e-05
1.70447e-05
1.78841e-05
1.88675e-05
1.96916e-05
2.01416e-05
5.41759e-05
2.06428e-05
1.6984e-05
1.7012e-05
1.78726e-05
1.88853e-05
1.97456e-05
2.02349e-05
5.40743e-05
2.06009e-05
1.69471e-05
1.6973e-05
1.78293e-05
1.88361e-05
1.969e-05
2.01736e-05
5.40059e-05
2.05767e-05
1.6913e-05
1.69207e-05
1.77523e-05
1.87292e-05
1.95501e-05
2.00019e-05
5.39936e-05
2.05683e-05
1.68872e-05
1.68698e-05
1.7668e-05
1.86036e-05
1.93785e-05
1.97856e-05
5.40716e-05
2.0604e-05
1.6905e-05
1.6871e-05
1.76477e-05
1.85559e-05
1.92985e-05
1.96718e-05
5.64389e-05
2.22855e-05
1.8976e-05
1.94794e-05
2.08603e-05
2.23833e-05
2.36856e-05
2.44811e-05
5.61279e-05
2.21308e-05
1.88488e-05
1.93769e-05
2.07971e-05
2.23781e-05
2.37547e-05
2.46324e-05
5.59375e-05
2.2047e-05
1.8787e-05
1.93369e-05
2.07892e-05
2.24146e-05
2.38462e-05
2.47834e-05
5.58243e-05
2.19998e-05
1.87431e-05
1.92893e-05
2.07357e-05
2.23543e-05
2.37789e-05
2.47103e-05
5.57594e-05
2.19741e-05
1.87012e-05
1.92205e-05
2.0631e-05
2.22062e-05
2.35833e-05
2.44691e-05
5.57527e-05
2.19673e-05
1.86698e-05
1.91535e-05
2.05163e-05
2.20326e-05
2.33444e-05
2.41663e-05
5.58495e-05
2.20138e-05
1.86959e-05
1.91577e-05
2.04903e-05
2.19671e-05
2.3232e-05
2.40047e-05
5.20299e-05
5.23217e-05
1.8252e-05
5.26482e-05
1.83934e-05
1.36524e-05
1.26312e-05
1.24065e-05
5.29656e-05
1.84656e-05
1.36781e-05
1.26423e-05
1.24111e-05
1.23467e-05
1.2252e-05
1.20761e-05
5.32758e-05
1.86009e-05
1.37289e-05
1.26632e-05
1.24203e-05
1.23518e-05
1.22566e-05
1.20817e-05
5.13123e-05
1.80995e-05
1.35571e-05
1.2594e-05
1.23901e-05
1.23358e-05
1.22437e-05
1.20662e-05
5.15955e-05
1.8187e-05
1.35856e-05
1.26027e-05
1.23911e-05
1.23339e-05
1.22412e-05
1.20642e-05
5.18975e-05
1.82706e-05
1.36153e-05
1.26154e-05
1.23971e-05
1.23371e-05
1.2243e-05
1.20652e-05
5.2205e-05
1.8276e-05
1.36121e-05
1.26148e-05
1.23986e-05
1.23399e-05
1.2247e-05
1.2071e-05
5.25292e-05
1.8399e-05
1.36592e-05
1.2637e-05
1.24115e-05
1.23497e-05
1.22554e-05
1.20784e-05
5.28456e-05
1.84709e-05
1.36859e-05
1.26498e-05
1.24187e-05
1.23546e-05
1.22601e-05
1.20835e-05
5.3144e-05
1.85886e-05
1.37308e-05
1.26695e-05
1.24286e-05
1.23609e-05
1.22656e-05
1.20893e-05
5.12e-05
1.80758e-05
1.35506e-05
1.25942e-05
1.23939e-05
1.23418e-05
1.22509e-05
1.20735e-05
5.1488e-05
1.81715e-05
1.35845e-05
1.26076e-05
1.23993e-05
1.23443e-05
1.22526e-05
1.20754e-05
5.17939e-05
1.82596e-05
1.36173e-05
1.26229e-05
1.24079e-05
1.23501e-05
1.2257e-05
1.2079e-05
5.21132e-05
1.8294e-05
1.36279e-05
1.26296e-05
1.24138e-05
1.23561e-05
1.22635e-05
1.20863e-05
5.24394e-05
1.84059e-05
1.36724e-05
1.26523e-05
1.24283e-05
1.23674e-05
1.22737e-05
1.20957e-05
5.27597e-05
1.84797e-05
1.37013e-05
1.26678e-05
1.24387e-05
1.23759e-05
1.22815e-05
1.21035e-05
5.30594e-05
1.85861e-05
1.37435e-05
1.26884e-05
1.24511e-05
1.23852e-05
1.22901e-05
1.2112e-05
5.11261e-05
1.8069e-05
1.35566e-05
1.26064e-05
1.24101e-05
1.23608e-05
1.22712e-05
1.20932e-05
5.14123e-05
1.81676e-05
1.3594e-05
1.26235e-05
1.24195e-05
1.23673e-05
1.22769e-05
1.20988e-05
5.17208e-05
1.82585e-05
1.363e-05
1.26423e-05
1.24318e-05
1.23769e-05
1.22852e-05
1.21062e-05
5.2049e-05
1.83142e-05
1.3652e-05
1.26564e-05
1.24436e-05
1.23882e-05
1.22965e-05
1.21178e-05
5.23827e-05
1.84205e-05
1.36967e-05
1.26819e-05
1.2462e-05
1.24041e-05
1.23115e-05
1.21319e-05
5.2714e-05
1.84985e-05
1.37299e-05
1.27023e-05
1.24779e-05
1.24185e-05
1.23255e-05
1.21456e-05
5.3025e-05
1.8599e-05
1.37725e-05
1.27266e-05
1.24956e-05
1.2434e-05
1.23405e-05
1.21604e-05
5.10881e-05
1.80809e-05
1.35794e-05
1.26363e-05
1.24459e-05
1.24009e-05
1.23135e-05
1.21344e-05
5.13701e-05
1.81801e-05
1.36195e-05
1.26572e-05
1.24596e-05
1.2412e-05
1.23238e-05
1.21444e-05
5.16819e-05
1.82734e-05
1.36595e-05
1.26809e-05
1.24774e-05
1.24277e-05
1.23386e-05
1.21583e-05
5.202e-05
1.83452e-05
1.36919e-05
1.27035e-05
1.24972e-05
1.24471e-05
1.23581e-05
1.21777e-05
5.23676e-05
1.84509e-05
1.37402e-05
1.2735e-05
1.25234e-05
1.24718e-05
1.23825e-05
1.22015e-05
5.27166e-05
1.85353e-05
1.37803e-05
1.27636e-05
1.25488e-05
1.24968e-05
1.24078e-05
1.22265e-05
5.30483e-05
1.86347e-05
1.38269e-05
1.27954e-05
1.25763e-05
1.25237e-05
1.24351e-05
1.22536e-05
5.10896e-05
1.81164e-05
1.36263e-05
1.26939e-05
1.25132e-05
1.24762e-05
1.23932e-05
1.22131e-05
5.13679e-05
1.82151e-05
1.36695e-05
1.27194e-05
1.25326e-05
1.24936e-05
1.24102e-05
1.22297e-05
5.16855e-05
1.83119e-05
1.37151e-05
1.27503e-05
1.2559e-05
1.2519e-05
1.24356e-05
1.22545e-05
5.20372e-05
1.83976e-05
1.37587e-05
1.2784e-05
1.25909e-05
1.25516e-05
1.24691e-05
1.22881e-05
5.24052e-05
1.8507e-05
1.38146e-05
1.28264e-05
1.26303e-05
1.25917e-05
1.25104e-05
1.23293e-05
5.27798e-05
1.86008e-05
1.38654e-05
1.28682e-05
1.26716e-05
1.26348e-05
1.25554e-05
1.23747e-05
5.31424e-05
1.87041e-05
1.3921e-05
1.29134e-05
1.27159e-05
1.26814e-05
1.26044e-05
1.24243e-05
5.11402e-05
1.81832e-05
1.37093e-05
1.27948e-05
1.26316e-05
1.26097e-05
1.25365e-05
1.23571e-05
5.1417e-05
1.82821e-05
1.37568e-05
1.28269e-05
1.26593e-05
1.26366e-05
1.25638e-05
1.23844e-05
5.17442e-05
1.83843e-05
1.3811e-05
1.28689e-05
1.26991e-05
1.26776e-05
1.26064e-05
1.24271e-05
5.21154e-05
1.84841e-05
1.38685e-05
1.29187e-05
1.27497e-05
1.27315e-05
1.26633e-05
1.24849e-05
5.2512e-05
1.86023e-05
1.39377e-05
1.29788e-05
1.28112e-05
1.27973e-05
1.27332e-05
1.25562e-05
5.29218e-05
1.871e-05
1.40052e-05
1.30418e-05
1.28781e-05
1.28703e-05
1.28114e-05
1.26365e-05
5.33265e-05
1.88229e-05
1.40768e-05
1.31091e-05
1.29502e-05
1.29495e-05
1.28968e-05
1.27246e-05
5.12559e-05
1.82935e-05
1.38468e-05
1.29636e-05
1.2832e-05
1.28383e-05
1.27855e-05
1.26123e-05
5.15346e-05
1.83947e-05
1.39012e-05
1.30057e-05
1.28721e-05
1.28798e-05
1.2829e-05
1.26563e-05
5.18773e-05
1.85059e-05
1.39683e-05
1.30647e-05
1.29329e-05
1.29453e-05
1.28989e-05
1.27281e-05
5.2276e-05
1.86227e-05
1.40455e-05
1.31387e-05
1.30126e-05
1.30331e-05
1.29935e-05
1.28258e-05
5.27116e-05
1.87562e-05
1.41362e-05
1.32273e-05
1.31093e-05
1.31403e-05
1.311e-05
1.29465e-05
5.31691e-05
1.88842e-05
1.42295e-05
1.33233e-05
1.32168e-05
1.3261e-05
1.32418e-05
1.30841e-05
5.36277e-05
1.90153e-05
1.4328e-05
1.34266e-05
1.33334e-05
1.33928e-05
1.33863e-05
1.32352e-05
5.14613e-05
1.84672e-05
1.4067e-05
1.32379e-05
1.31616e-05
1.32191e-05
1.32062e-05
1.3051e-05
5.17468e-05
1.85741e-05
1.41324e-05
1.32951e-05
1.32205e-05
1.32827e-05
1.32742e-05
1.3121e-05
5.21123e-05
1.86994e-05
1.42193e-05
1.33801e-05
1.33133e-05
1.33859e-05
1.33866e-05
1.32381e-05
5.25499e-05
1.88394e-05
1.43254e-05
1.34906e-05
1.34376e-05
1.3526e-05
1.35401e-05
1.33987e-05
5.30384e-05
1.89973e-05
1.44497e-05
1.36232e-05
1.35888e-05
1.36977e-05
1.37292e-05
1.35975e-05
5.35582e-05
1.91556e-05
1.45828e-05
1.37705e-05
1.37593e-05
1.38926e-05
1.39449e-05
1.38251e-05
5.40899e-05
1.93185e-05
1.47248e-05
1.39302e-05
1.39453e-05
1.41059e-05
1.41812e-05
1.40748e-05
5.17933e-05
1.87343e-05
1.44127e-05
1.3674e-05
1.36912e-05
1.38375e-05
1.38977e-05
1.37838e-05
5.20916e-05
1.8852e-05
1.44949e-05
1.37537e-05
1.37779e-05
1.39338e-05
1.40023e-05
1.38926e-05
5.24907e-05
1.89994e-05
1.46118e-05
1.38774e-05
1.39185e-05
1.40933e-05
1.41781e-05
1.40778e-05
5.29828e-05
1.91725e-05
1.47605e-05
1.40423e-05
1.41095e-05
1.43118e-05
1.44201e-05
1.43336e-05
5.35414e-05
1.93687e-05
1.49366e-05
1.42419e-05
1.4343e-05
1.45805e-05
1.47188e-05
1.46505e-05
5.41469e-05
1.95739e-05
1.51308e-05
1.44669e-05
1.46083e-05
1.48869e-05
1.50604e-05
1.50139e-05
5.478e-05
1.97892e-05
1.53406e-05
1.47124e-05
1.48985e-05
1.52224e-05
1.54344e-05
1.54114e-05
5.2308e-05
1.91414e-05
1.49472e-05
1.43545e-05
1.45239e-05
1.48187e-05
1.50065e-05
1.49742e-05
5.26273e-05
1.92768e-05
1.50545e-05
1.44669e-05
1.46509e-05
1.49618e-05
1.51631e-05
1.51384e-05
5.3075e-05
1.94577e-05
1.52155e-05
1.4647e-05
1.48604e-05
1.52021e-05
1.54299e-05
1.54215e-05
5.3642e-05
1.96791e-05
1.54272e-05
1.48917e-05
1.51486e-05
1.55347e-05
1.58004e-05
1.58155e-05
5.42987e-05
1.99358e-05
1.56815e-05
1.519e-05
1.55022e-05
1.59444e-05
1.6258e-05
1.63034e-05
5.50252e-05
2.02131e-05
1.59682e-05
1.55289e-05
1.59053e-05
1.64123e-05
1.67814e-05
1.68626e-05
5.58012e-05
2.05123e-05
1.62819e-05
1.58997e-05
1.63467e-05
1.69243e-05
1.73531e-05
1.74719e-05
5.30926e-05
1.97591e-05
1.57654e-05
1.5397e-05
1.5807e-05
1.63414e-05
1.67414e-05
1.68565e-05
5.34444e-05
1.99216e-05
1.59084e-05
1.55562e-05
1.59903e-05
1.65491e-05
1.69692e-05
1.7096e-05
5.39607e-05
2.01518e-05
1.61329e-05
1.58162e-05
1.62964e-05
1.6902e-05
1.73617e-05
1.75137e-05
5.46345e-05
2.04464e-05
1.64368e-05
1.61743e-05
1.67215e-05
1.7394e-05
1.79107e-05
1.80988e-05
5.54328e-05
2.07964e-05
1.68063e-05
1.66129e-05
1.72443e-05
1.80009e-05
1.8589e-05
1.88235e-05
5.63327e-05
2.11896e-05
1.72255e-05
1.71125e-05
1.78407e-05
1.86936e-05
1.93638e-05
1.96521e-05
5.73149e-05
2.1629e-05
1.76848e-05
1.76596e-05
1.84934e-05
1.94501e-05
2.02069e-05
2.05501e-05
5.42872e-05
2.07071e-05
1.69971e-05
1.69663e-05
1.77471e-05
1.86559e-05
1.9394e-05
1.9757e-05
5.46867e-05
2.0904e-05
1.71923e-05
1.71899e-05
1.80061e-05
1.89494e-05
1.9715e-05
2.00936e-05
5.53007e-05
2.1207e-05
1.75066e-05
1.75597e-05
1.8443e-05
1.94522e-05
2.0273e-05
2.06864e-05
5.61316e-05
2.16147e-05
1.79388e-05
1.80733e-05
1.90537e-05
2.01581e-05
2.10585e-05
2.15228e-05
5.71363e-05
2.21106e-05
1.84673e-05
1.87044e-05
1.98059e-05
2.10291e-05
2.20294e-05
2.25585e-05
5.82826e-05
2.2674e-05
1.90688e-05
1.94233e-05
2.0663e-05
2.20213e-05
2.3135e-05
2.37386e-05
5.95417e-05
2.3291e-05
1.9728e-05
2.02108e-05
2.15997e-05
2.31015e-05
2.43329e-05
2.501e-05
5.61022e-05
2.21463e-05
1.88223e-05
1.92907e-05
2.06286e-05
2.21047e-05
2.3361e-05
2.4117e-05
5.65782e-05
2.24029e-05
1.90898e-05
1.96002e-05
2.09864e-05
2.25072e-05
2.37975e-05
2.45711e-05
5.73364e-05
2.28114e-05
1.95258e-05
2.0115e-05
2.15924e-05
2.32003e-05
2.45611e-05
2.53776e-05
5.83894e-05
2.33732e-05
2.01308e-05
2.08344e-05
2.24439e-05
2.41786e-05
2.5643e-05
2.65243e-05
5.96787e-05
2.4059e-05
2.08729e-05
2.17195e-05
2.34936e-05
2.53862e-05
2.69805e-05
2.79448e-05
6.11611e-05
2.48397e-05
2.17175e-05
2.27265e-05
2.46866e-05
2.67572e-05
2.84978e-05
2.95566e-05
6.28081e-05
2.56977e-05
2.26436e-05
2.38279e-05
2.59868e-05
2.82438e-05
3.0133e-05
3.12816e-05
5.30478e-05
1.83852e-05
1.36863e-05
1.26854e-05
1.24659e-05
1.24033e-05
1.23066e-05
1.21277e-05
5.28756e-05
1.82683e-05
1.36404e-05
1.26724e-05
1.24682e-05
1.24123e-05
1.23197e-05
1.21478e-05
5.26422e-05
1.81921e-05
1.36245e-05
1.26903e-05
1.25126e-05
1.24806e-05
1.24103e-05
1.22587e-05
5.26278e-05
1.80622e-05
1.36019e-05
1.27276e-05
1.25915e-05
1.25953e-05
1.25658e-05
1.24744e-05
5.18073e-05
1.80669e-05
1.35625e-05
1.26328e-05
1.24493e-05
1.24084e-05
1.23275e-05
1.21636e-05
5.15022e-05
1.80064e-05
1.35125e-05
1.25726e-05
1.23752e-05
1.23203e-05
1.2228e-05
1.20573e-05
5.11159e-05
1.80144e-05
1.35246e-05
1.25779e-05
1.23781e-05
1.23235e-05
1.22302e-05
1.20532e-05
5.28673e-05
1.83776e-05
1.3685e-05
1.26829e-05
1.24623e-05
1.23988e-05
1.23012e-05
1.21208e-05
5.26458e-05
1.82657e-05
1.36389e-05
1.26644e-05
1.24553e-05
1.23959e-05
1.23003e-05
1.21248e-05
5.23491e-05
1.81909e-05
1.36144e-05
1.26619e-05
1.24675e-05
1.24203e-05
1.23357e-05
1.21697e-05
5.2228e-05
1.80599e-05
1.35678e-05
1.26565e-05
1.24862e-05
1.24567e-05
1.23919e-05
1.22585e-05
5.15845e-05
1.8064e-05
1.35522e-05
1.26086e-05
1.24128e-05
1.23613e-05
1.22712e-05
1.20989e-05
5.13208e-05
1.80024e-05
1.35145e-05
1.25733e-05
1.23752e-05
1.23199e-05
1.22269e-05
1.20542e-05
5.09679e-05
1.7998e-05
1.35187e-05
1.2574e-05
1.2375e-05
1.23208e-05
1.22277e-05
1.20506e-05
5.28023e-05
1.83923e-05
1.37016e-05
1.27001e-05
1.24804e-05
1.24178e-05
1.23201e-05
1.21379e-05
5.2545e-05
1.82848e-05
1.36559e-05
1.26781e-05
1.24675e-05
1.24075e-05
1.23108e-05
1.21321e-05
5.22099e-05
1.82103e-05
1.36269e-05
1.26653e-05
1.24638e-05
1.24104e-05
1.23193e-05
1.21453e-05
5.20206e-05
1.80859e-05
1.35729e-05
1.26419e-05
1.24557e-05
1.24118e-05
1.2331e-05
1.21759e-05
5.14776e-05
1.80763e-05
1.35609e-05
1.2612e-05
1.24121e-05
1.23571e-05
1.22633e-05
1.20862e-05
5.12295e-05
1.80111e-05
1.35265e-05
1.25857e-05
1.23883e-05
1.23339e-05
1.22407e-05
1.20659e-05
5.09008e-05
1.79948e-05
1.3523e-05