/*--------------------------------*- C++ -*----------------------------------*\
| =========                 |                                                 |
| \\      /  F ield         | OpenFOAM: The Open Source CFD Toolbox           |
|  \\    /   O peration     | Version:  plus.master.MPPICInterFoam            |
|   \\  /    A nd           | Web:      www.OpenFOAM.com                      |
|    \\/     M anipulation  |                                                 |
\*---------------------------------------------------------------------------*/
FoamFile
{
    version     2.0;
    format      ascii;
    class       volScalarField;
    location    "7.6";
    object      nut;
}
// * * * * * * * * * * * * * * * * * * * * * * * * * * * * * * * * * * * * * //

dimensions      [0 2 -1 0 0 0 0];

internalField   nonuniform List<scalar> 
11821
(
4.22898e-06
1.46516e-05
2.76032e-05
3.67367e-05
4.23074e-05
4.51607e-05
4.58015e-05
4.44073e-05
4.23454e-06
1.45338e-05
2.74589e-05
3.66236e-05
4.22293e-05
4.51111e-05
4.57743e-05
4.43988e-05
4.238e-06
1.44771e-05
2.73891e-05
3.65687e-05
4.21906e-05
4.50844e-05
4.57559e-05
4.43861e-05
4.23881e-06
1.44666e-05
2.73787e-05
3.65623e-05
4.21863e-05
4.50806e-05
4.57519e-05
4.43823e-05
4.2368e-06
1.4539e-05
2.74712e-05
3.66379e-05
4.22395e-05
4.51137e-05
4.57681e-05
4.43844e-05
4.23181e-06
1.46892e-05
2.76626e-05
3.67923e-05
4.23474e-05
4.51816e-05
4.58043e-05
4.4396e-05
4.22421e-06
1.49916e-05
2.80348e-05
3.70856e-05
4.25493e-05
4.53056e-05
4.5864e-05
4.44005e-05
4.2253e-06
1.47136e-05
2.76744e-05
3.67823e-05
4.23183e-05
4.51366e-05
4.57469e-05
4.43306e-05
4.23069e-06
1.46239e-05
2.7566e-05
3.66971e-05
4.22569e-05
4.5093e-05
4.57163e-05
4.4311e-05
4.23398e-06
1.45863e-05
2.75203e-05
3.66606e-05
4.22286e-05
4.50693e-05
4.56947e-05
4.42906e-05
4.23469e-06
1.45877e-05
2.75236e-05
3.66635e-05
4.22285e-05
4.5065e-05
4.56861e-05
4.42787e-05
4.23257e-06
1.46584e-05
2.76115e-05
3.67334e-05
4.22762e-05
4.5093e-05
4.56976e-05
4.42767e-05
4.22752e-06
1.47898e-05
2.77754e-05
3.68638e-05
4.23666e-05
4.51501e-05
4.57285e-05
4.4287e-05
4.21987e-06
1.5042e-05
2.80805e-05
3.71021e-05
4.25308e-05
4.52526e-05
4.57807e-05
4.42957e-05
4.22315e-06
1.47808e-05
2.7752e-05
3.68273e-05
4.23166e-05
4.50863e-05
4.56529e-05
4.42048e-05
4.22867e-06
1.47177e-05
2.76775e-05
3.67676e-05
4.22688e-05
4.50446e-05
4.5614e-05
4.4169e-05
4.23206e-06
1.46985e-05
2.76546e-05
3.67475e-05
4.22481e-05
4.50198e-05
4.55836e-05
4.41339e-05
4.23287e-06
1.47109e-05
2.76708e-05
3.67589e-05
4.2251e-05
4.50132e-05
4.55682e-05
4.41116e-05
4.23084e-06
1.47791e-05
2.77538e-05
3.68232e-05
4.22933e-05
4.5036e-05
4.55747e-05
4.41046e-05
4.22588e-06
1.48931e-05
2.78931e-05
3.6933e-05
4.23699e-05
4.50859e-05
4.5604e-05
4.41177e-05
4.21832e-06
1.51005e-05
2.814e-05
3.7125e-05
4.25041e-05
4.51737e-05
4.56548e-05
4.41361e-05
4.22261e-06
1.48549e-05
2.78361e-05
3.6866e-05
4.22892e-05
4.49883e-05
4.54911e-05
4.39974e-05
4.2285e-06
1.48177e-05
2.77935e-05
3.68284e-05
4.225e-05
4.49416e-05
4.54352e-05
4.39353e-05
4.23223e-06
1.48161e-05
2.77921e-05
3.68223e-05
4.22328e-05
4.491e-05
4.5389e-05
4.38777e-05
4.23335e-06
1.48388e-05
2.78201e-05
3.68404e-05
4.2236e-05
4.48971e-05
4.53615e-05
4.38389e-05
4.23153e-06
1.49042e-05
2.78979e-05
3.68992e-05
4.22726e-05
4.49142e-05
4.53622e-05
4.38261e-05
4.22672e-06
1.50016e-05
2.80148e-05
3.6991e-05
4.23382e-05
4.49599e-05
4.53931e-05
4.38451e-05
4.21928e-06
1.51689e-05
2.82109e-05
3.71441e-05
4.24497e-05
4.50406e-05
4.54504e-05
4.38813e-05
4.22388e-06
1.49414e-05
2.79296e-05
3.68919e-05
4.22175e-05
4.4812e-05
4.52202e-05
4.366e-05
4.23037e-06
1.49294e-05
2.79169e-05
3.68722e-05
4.21797e-05
4.47503e-05
4.51351e-05
4.35582e-05
4.23469e-06
1.49454e-05
2.79357e-05
3.68766e-05
4.21601e-05
4.47032e-05
4.5062e-05
4.34654e-05
4.23628e-06
1.49783e-05
2.79745e-05
3.68991e-05
4.21593e-05
4.46781e-05
4.5015e-05
4.34019e-05
4.23479e-06
1.50407e-05
2.8047e-05
3.69517e-05
4.21891e-05
4.46877e-05
4.50076e-05
4.33808e-05
4.23014e-06
1.51221e-05
2.8143e-05
3.70278e-05
4.22465e-05
4.47324e-05
4.50438e-05
4.34099e-05
4.22274e-06
1.52531e-05
2.82941e-05
3.71484e-05
4.23425e-05
4.48138e-05
4.51163e-05
4.34731e-05
4.2273e-06
1.5049e-05
2.80378e-05
3.68969e-05
4.2077e-05
4.45167e-05
4.47864e-05
4.31305e-05
4.23468e-06
1.50627e-05
2.80532e-05
3.68896e-05
4.20309e-05
4.44267e-05
4.46558e-05
4.29711e-05
4.23984e-06
1.50971e-05
2.80913e-05
3.69002e-05
4.20006e-05
4.43522e-05
4.45413e-05
4.28275e-05
4.2421e-06
1.51405e-05
2.81396e-05
3.69235e-05
4.19897e-05
4.43065e-05
4.44648e-05
4.27284e-05
4.24102e-06
1.51999e-05
2.82065e-05
3.69686e-05
4.20107e-05
4.43057e-05
4.44459e-05
4.26957e-05
4.2365e-06
1.52657e-05
2.82825e-05
3.7031e-05
4.20626e-05
4.43528e-05
4.44913e-05
4.27389e-05
4.22902e-06
1.53629e-05
2.8393e-05
3.71251e-05
4.21504e-05
4.44436e-05
4.45885e-05
4.28394e-05
4.23342e-06
1.51911e-05
2.81689e-05
3.68721e-05
4.18391e-05
4.40566e-05
4.41306e-05
4.23421e-05
4.24204e-06
1.52318e-05
2.82109e-05
3.68705e-05
4.17733e-05
4.39228e-05
4.39368e-05
4.21071e-05
4.24837e-06
1.52866e-05
2.82672e-05
3.68816e-05
4.17221e-05
4.38072e-05
4.37653e-05
4.18968e-05
4.25153e-06
1.53413e-05
2.83236e-05
3.69011e-05
4.16935e-05
4.37312e-05
4.36485e-05
4.17517e-05
4.25094e-06
1.53978e-05
2.83841e-05
3.69367e-05
4.1703e-05
4.37162e-05
4.36137e-05
4.17032e-05
4.24649e-06
1.54479e-05
2.844e-05
3.69872e-05
4.17512e-05
4.37683e-05
4.36711e-05
4.17635e-05
4.23876e-06
1.55128e-05
2.85126e-05
3.7058e-05
4.18376e-05
4.38784e-05
4.38039e-05
4.19104e-05
4.2431e-06
1.53862e-05
2.83354e-05
3.68113e-05
4.14799e-05
4.33951e-05
4.321e-05
4.12511e-05
4.25342e-06
1.54573e-05
2.84034e-05
3.68087e-05
4.13839e-05
4.3205e-05
4.2941e-05
4.09311e-05
4.26133e-06
1.55352e-05
2.84759e-05
3.68148e-05
4.13017e-05
4.30374e-05
4.27029e-05
4.06473e-05
4.26569e-06
1.56024e-05
2.85397e-05
3.68244e-05
4.12479e-05
4.29237e-05
4.254e-05
4.04522e-05
4.26574e-06
1.56561e-05
2.85909e-05
3.68468e-05
4.1242e-05
4.28924e-05
4.24881e-05
4.03865e-05
4.26125e-06
1.56901e-05
2.86238e-05
3.68836e-05
4.12893e-05
4.29524e-05
4.25591e-05
4.04635e-05
4.25303e-06
1.57153e-05
2.86549e-05
3.69398e-05
4.13851e-05
4.30907e-05
4.27332e-05
4.0659e-05
4.25761e-06
1.56602e-05
2.85572e-05
3.67216e-05
4.0999e-05
4.25355e-05
4.20395e-05
3.98856e-05
4.27026e-06
1.57661e-05
2.8652e-05
3.67121e-05
4.08679e-05
4.22908e-05
4.17052e-05
3.94973e-05
4.28036e-06
1.58709e-05
2.87356e-05
3.67049e-05
4.07534e-05
4.20766e-05
4.14129e-05
3.9158e-05
4.28636e-06
1.59503e-05
2.87959e-05
3.67025e-05
4.06765e-05
4.19309e-05
4.12137e-05
3.89271e-05
4.28722e-06
1.59923e-05
2.88337e-05
3.67141e-05
4.06581e-05
4.18856e-05
4.11476e-05
3.88483e-05
4.28252e-06
1.60004e-05
2.88477e-05
3.67423e-05
4.07053e-05
4.19509e-05
4.12263e-05
3.89331e-05
4.27325e-06
1.59887e-05
2.88494e-05
3.67897e-05
4.08113e-05
4.21125e-05
4.14301e-05
3.91595e-05
4.27888e-06
1.60474e-05
2.88639e-05
3.66306e-05
4.04513e-05
4.15707e-05
4.07517e-05
3.84081e-05
4.29476e-06
1.61916e-05
2.8974e-05
3.66218e-05
4.03047e-05
4.13035e-05
4.0398e-05
3.80091e-05
4.30792e-06
1.63093e-05
2.90717e-05
3.66148e-05
4.01774e-05
4.10727e-05
4.00943e-05
3.76681e-05
4.31606e-06
1.63909e-05
2.91402e-05
3.66105e-05
4.00906e-05
4.0916e-05
3.98894e-05
3.74393e-05
4.31768e-06
1.64292e-05
2.91737e-05
3.66156e-05
4.00639e-05
4.08628e-05
3.98177e-05
3.73585e-05
4.31234e-06
1.64204e-05
2.91711e-05
3.66333e-05
4.01047e-05
4.0922e-05
3.98879e-05
3.74318e-05
4.30135e-06
1.63779e-05
2.91435e-05
3.66663e-05
4.02071e-05
4.10824e-05
4.00861e-05
3.76456e-05
4.30983e-06
1.65741e-05
2.92951e-05
3.66363e-05
3.99892e-05
4.07151e-05
3.96221e-05
3.71386e-05
4.33014e-06
1.67423e-05
2.94448e-05
3.66576e-05
3.98723e-05
4.04915e-05
3.93348e-05
3.68282e-05
4.34708e-06
1.6892e-05
2.95769e-05
3.6677e-05
3.97734e-05
4.03039e-05
3.90966e-05
3.65738e-05
4.35776e-06
1.69959e-05
2.96666e-05
3.66885e-05
3.97049e-05
4.01774e-05
3.89384e-05
3.64073e-05
4.3602e-06
1.7037e-05
2.9701e-05
3.66924e-05
3.96783e-05
4.01284e-05
3.88772e-05
3.63428e-05
4.35382e-06
1.70107e-05
2.96786e-05
3.66917e-05
3.96985e-05
4.01615e-05
3.89144e-05
3.63779e-05
4.34035e-06
1.69326e-05
2.96129e-05
3.66921e-05
3.97658e-05
4.02748e-05
3.90493e-05
3.65143e-05
4.3544e-06
1.72738e-05
2.99624e-05
3.69069e-05
3.98597e-05
4.02969e-05
3.90444e-05
3.65085e-05
4.38028e-06
1.74998e-05
3.0182e-05
3.70064e-05
3.98455e-05
4.02136e-05
3.89372e-05
3.6408e-05
4.40214e-06
1.76999e-05
3.03741e-05
3.70942e-05
3.98388e-05
4.01533e-05
3.88624e-05
3.63436e-05
4.41611e-06
1.78356e-05
3.05011e-05
3.71496e-05
3.98318e-05
4.01131e-05
3.88159e-05
3.63072e-05
4.41954e-06
1.78827e-05
3.05414e-05
3.7161e-05
3.98183e-05
4.00858e-05
3.87853e-05
3.62807e-05
4.41161e-06
1.78356e-05
3.0492e-05
3.71283e-05
3.97981e-05
4.00682e-05
3.87631e-05
3.62515e-05
4.39463e-06
1.77133e-05
3.03714e-05
3.7065e-05
3.97828e-05
4.0074e-05
3.87665e-05
3.6241e-05
4.41768e-06
1.82391e-05
3.10075e-05
3.76711e-05
4.03814e-05
4.07045e-05
3.94459e-05
3.69523e-05
4.45095e-06
1.85427e-05
3.13352e-05
3.79136e-05
4.05601e-05
4.08689e-05
3.96323e-05
3.71717e-05
4.47935e-06
1.88082e-05
3.16193e-05
3.81255e-05
4.07226e-05
4.1026e-05
3.9815e-05
3.73873e-05
4.49766e-06
1.8985e-05
3.18048e-05
3.82618e-05
4.08278e-05
4.11308e-05
3.99403e-05
3.75379e-05
4.50232e-06
1.9041e-05
3.18576e-05
3.82922e-05
4.08434e-05
4.11441e-05
3.99606e-05
3.75688e-05
4.49215e-06
1.89688e-05
3.17714e-05
3.8211e-05
4.07616e-05
4.10534e-05
3.98577e-05
3.74572e-05
4.47037e-06
1.87926e-05
3.15729e-05
3.80441e-05
4.06105e-05
4.08919e-05
3.96706e-05
3.72461e-05
4.50694e-06
1.95503e-05
3.25975e-05
3.91908e-05
4.18848e-05
4.22987e-05
4.11818e-05
3.87955e-05
4.54998e-06
1.99495e-05
3.3077e-05
3.96471e-05
4.23443e-05
4.28022e-05
4.17462e-05
3.9406e-05
4.58699e-06
2.0295e-05
3.349e-05
4.00425e-05
4.27483e-05
4.32508e-05
4.22531e-05
3.99572e-05
4.61095e-06
2.0522e-05
3.37583e-05
4.02985e-05
4.30119e-05
4.35469e-05
4.25913e-05
4.03279e-05
4.61716e-06
2.059e-05
3.38315e-05
4.03606e-05
4.30723e-05
4.36172e-05
4.26772e-05
4.04287e-05
4.60391e-06
2.0489e-05
3.36984e-05
4.02157e-05
4.29126e-05
4.34393e-05
4.2484e-05
4.02292e-05
4.57579e-06
2.02491e-05
3.33965e-05
3.99053e-05
4.25798e-05
4.30668e-05
4.20705e-05
3.97912e-05
4.16032e-06
1.56303e-05
2.87456e-05
3.75898e-05
4.28411e-05
4.5434e-05
4.58776e-05
4.43381e-05
4.16139e-06
1.58745e-05
2.90502e-05
3.78307e-05
4.29872e-05
4.54827e-05
4.58326e-05
4.42074e-05
4.16407e-06
1.59854e-05
2.92557e-05
3.8057e-05
4.32068e-05
4.18021e-06
1.66555e-05
4.16932e-06
4.1562e-06
1.55947e-05
2.86851e-05
3.75272e-05
4.27855e-05
4.53867e-05
4.58377e-05
4.43049e-05
4.15579e-06
1.5778e-05
2.89075e-05
3.76972e-05
4.28818e-05
4.54087e-05
4.57894e-05
4.41935e-05
4.15696e-06
1.58162e-05
2.89966e-05
3.77993e-05
4.29813e-05
4.55012e-05
4.58733e-05
4.42694e-05
4.16667e-06
1.62651e-05
2.95571e-05
3.82609e-05
4.3288e-05
4.56348e-05
4.58211e-05
4.40225e-05
4.16104e-06
1.58383e-05
2.9019e-05
3.78135e-05
4.29876e-05
4.55024e-05
4.5873e-05
4.42687e-05
4.16204e-06
1.57126e-05
2.88427e-05
3.76571e-05
4.28699e-05
4.54221e-05
4.58226e-05
4.42401e-05
4.16378e-06
1.54614e-05
2.85318e-05
3.74155e-05
4.27293e-05
4.53835e-05
4.58794e-05
4.43806e-05
4.15419e-06
1.55626e-05
2.86351e-05
3.74748e-05
4.27349e-05
4.53372e-05
4.57884e-05
4.42568e-05
4.15276e-06
1.56991e-05
2.87978e-05
3.75961e-05
4.28002e-05
4.53471e-05
4.57464e-05
4.4169e-05
4.15299e-06
1.57022e-05
2.88266e-05
3.76343e-05
4.28397e-05
4.53863e-05
4.57862e-05
4.42108e-05
4.15886e-06
1.60023e-05
2.91988e-05
3.79359e-05
4.30333e-05
4.54601e-05
4.57317e-05
4.40243e-05
4.15594e-06
1.57038e-05
2.88273e-05
3.76339e-05
4.28402e-05
4.53895e-05
4.57928e-05
4.42205e-05
4.15786e-06
1.56236e-05
2.87181e-05
3.75423e-05
4.27781e-05
4.53543e-05
4.57775e-05
4.4217e-05
4.16031e-06
1.5425e-05
2.84757e-05
3.73571e-05
4.26737e-05
4.53305e-05
4.58282e-05
4.43323e-05
4.15366e-06
1.55353e-05
2.85926e-05
3.74246e-05
4.26767e-05
4.52684e-05
4.57087e-05
4.4171e-05
4.15147e-06
1.56352e-05
2.87097e-05
3.75097e-05
4.272e-05
4.5271e-05
4.56736e-05
4.41028e-05
4.15103e-06
1.56235e-05
2.87099e-05
3.75165e-05
4.27303e-05
4.52849e-05
4.56926e-05
4.41285e-05
4.15453e-06
1.58221e-05
2.89551e-05
3.77129e-05
4.2853e-05
4.53263e-05
4.56476e-05
4.39955e-05
4.15301e-06
1.56094e-05
2.86934e-05
3.75043e-05
4.27256e-05
4.52891e-05
4.57053e-05
4.41481e-05
4.15527e-06
1.55536e-05
2.86203e-05
3.7447e-05
4.2692e-05
4.52765e-05
4.57075e-05
4.41577e-05
4.15808e-06
1.53931e-05
2.84267e-05
3.73012e-05
4.26118e-05
4.52606e-05
4.57501e-05
4.42502e-05
4.15429e-06
1.55159e-05
2.85583e-05
3.73716e-05
4.25981e-05
4.51598e-05
4.55715e-05
4.40156e-05
4.15158e-06
1.55874e-05
2.86404e-05
3.74289e-05
4.26246e-05
4.51568e-05
4.55413e-05
4.39618e-05
4.1506e-06
1.55711e-05
2.86283e-05
3.7421e-05
4.26206e-05
4.51577e-05
4.55488e-05
4.39775e-05
4.15254e-06
1.57002e-05
2.87872e-05
3.75473e-05
4.26984e-05
4.51825e-05
4.55175e-05
4.38892e-05
4.15171e-06
1.55456e-05
2.85993e-05
3.74009e-05
4.26141e-05
4.5166e-05
4.5571e-05
4.40104e-05
4.15396e-06
1.5502e-05
2.85449e-05
3.73618e-05
4.25963e-05
4.51671e-05
4.55854e-05
4.40314e-05
4.15698e-06
1.53671e-05
2.83848e-05
3.72438e-05
4.25334e-05
4.51568e-05
4.56217e-05
4.41069e-05
4.15608e-06
1.55097e-05
2.8535e-05
3.731e-05
4.24832e-05
4.49842e-05
4.53393e-05
4.3746e-05
4.15304e-06
1.55599e-05
2.85905e-05
3.7346e-05
4.24961e-05
4.49754e-05
4.53107e-05
4.37006e-05
4.15156e-06
1.55435e-05
2.85741e-05
3.73317e-05
4.24851e-05
4.4969e-05
4.53104e-05
4.37075e-05
4.15244e-06
1.5625e-05
2.86743e-05
3.74113e-05
4.25346e-05
4.49864e-05
4.52938e-05
4.36564e-05
4.15185e-06
1.55097e-05
2.85366e-05
3.73079e-05
4.24812e-05
4.49865e-05
4.53478e-05
4.37603e-05
4.15392e-06
1.5471e-05
2.84912e-05
3.72792e-05
4.24744e-05
4.49996e-05
4.53756e-05
4.37964e-05
4.15713e-06
1.53496e-05
2.8352e-05
3.71807e-05
4.2425e-05
4.49953e-05
4.54104e-05
4.3863e-05
4.15932e-06
1.55248e-05
2.85274e-05
3.72334e-05
4.23105e-05
4.4705e-05
4.49621e-05
4.33029e-05
4.15599e-06
1.55592e-05
2.85631e-05
3.72527e-05
4.23116e-05
4.46892e-05
4.49309e-05
4.32587e-05
4.15409e-06
1.55444e-05
2.85458e-05
3.72358e-05
4.22967e-05
4.46776e-05
4.49235e-05
4.32561e-05
4.15418e-06
1.55933e-05
2.86063e-05
3.72848e-05
4.23298e-05
4.46941e-05
4.49225e-05
4.32371e-05
4.15359e-06
1.55045e-05
2.85034e-05
3.72129e-05
4.23015e-05
4.47117e-05
4.49847e-05
4.33384e-05
4.15537e-06
1.54665e-05
2.84623e-05
3.71918e-05
4.23055e-05
4.47392e-05
4.50309e-05
4.33965e-05
4.15874e-06
1.53506e-05
2.83359e-05
3.71085e-05
4.22693e-05
4.47445e-05
4.50709e-05
4.34634e-05
4.16448e-06
1.55726e-05
2.85428e-05
3.7134e-05
4.20543e-05
4.42787e-05
4.43813e-05
4.26173e-05
4.16087e-06
1.55951e-05
2.85631e-05
3.71395e-05
4.2044e-05
4.42536e-05
4.43421e-05
4.25662e-05
4.15861e-06
1.55821e-05
2.85461e-05
3.71213e-05
4.20262e-05
4.42368e-05
4.43265e-05
4.25519e-05
4.15806e-06
1.56088e-05
2.85802e-05
3.71515e-05
4.20516e-05
4.42578e-05
4.43429e-05
4.25625e-05
4.15734e-06
1.55379e-05
2.85025e-05
3.71051e-05
4.2047e-05
4.42967e-05
4.44226e-05
4.26757e-05
4.15875e-06
1.54982e-05
2.84641e-05
3.7092e-05
4.20646e-05
4.43436e-05
4.44941e-05
4.27641e-05
4.16215e-06
1.53864e-05
2.83501e-05
3.70248e-05
4.20445e-05
4.43634e-05
4.45465e-05
4.28407e-05
4.17226e-06
1.56682e-05
2.85914e-05
3.70057e-05
4.16899e-05
4.36647e-05
4.35444e-05
4.16294e-05
4.16834e-06
1.56813e-05
2.85989e-05
3.69985e-05
4.16673e-05
4.36265e-05
4.34908e-05
4.15624e-05
4.16576e-06
1.56696e-05
2.85823e-05
3.69792e-05
4.16462e-05
4.36035e-05
4.34652e-05
4.1534e-05
4.16466e-06
1.56812e-05
2.85997e-05
3.69995e-05
4.16709e-05
4.36339e-05
4.35007e-05
4.15727e-05
4.16372e-06
1.56229e-05
2.85417e-05
3.69758e-05
4.16912e-05
4.3699e-05
4.36068e-05
4.17103e-05
4.16475e-06
1.55807e-05
2.85068e-05
3.69733e-05
4.17265e-05
4.37708e-05
4.37101e-05
4.1836e-05
4.16798e-06
1.54755e-05
2.84092e-05
3.69263e-05
4.17262e-05
4.38092e-05
4.37803e-05
4.19294e-05
4.18365e-06
1.5832e-05
2.86898e-05
3.68507e-05
4.12078e-05
4.28479e-05
4.24371e-05
4.03288e-05
4.17935e-06
1.58365e-05
2.86853e-05
3.68305e-05
4.11703e-05
4.27918e-05
4.23622e-05
4.02376e-05
4.17647e-06
1.58252e-05
2.86683e-05
3.68093e-05
4.11449e-05
4.27612e-05
4.2325e-05
4.01934e-05
4.1749e-06
1.58269e-05
2.8676e-05
3.68263e-05
4.11745e-05
4.28043e-05
4.23804e-05
4.02578e-05
4.1737e-06
1.57786e-05
2.86352e-05
3.68248e-05
4.12211e-05
4.28991e-05
4.25177e-05
4.04259e-05
4.17432e-06
1.57356e-05
2.86066e-05
3.68358e-05
4.12773e-05
4.29989e-05
4.26549e-05
4.05895e-05
4.1772e-06
1.56418e-05
2.85332e-05
3.68122e-05
4.12975e-05
4.30569e-05
4.27443e-05
4.07016e-05
4.20007e-06
1.60906e-05
2.88655e-05
3.66929e-05
4.06371e-05
4.18745e-05
4.11312e-05
3.8812e-05
4.19529e-06
1.60861e-05
2.88481e-05
3.66573e-05
4.0581e-05
4.17958e-05
4.103e-05
3.86925e-05
4.19208e-06
1.60741e-05
2.88296e-05
3.66331e-05
4.05501e-05
4.17566e-05
4.09811e-05
3.86339e-05
4.1901e-06
1.60693e-05
2.88327e-05
3.66516e-05
4.05876e-05
4.1813e-05
4.10537e-05
3.87177e-05
4.18862e-06
1.60299e-05
2.88079e-05
3.66714e-05
4.06597e-05
4.19354e-05
4.12181e-05
3.89099e-05
4.18882e-06
1.59919e-05
2.87886e-05
3.66977e-05
4.07367e-05
4.20601e-05
4.13819e-05
3.90996e-05
4.19128e-06
1.59173e-05
2.87426e-05
3.66949e-05
4.0775e-05
4.21345e-05
4.14859e-05
3.92239e-05
4.22362e-06
1.64795e-05
2.91649e-05
3.65953e-05
4.00756e-05
4.08928e-05
3.98318e-05
3.73321e-05
4.21815e-06
1.64644e-05
2.91321e-05
3.65409e-05
3.99969e-05
4.07886e-05
3.97044e-05
3.71886e-05
4.21456e-06
1.64503e-05
2.91106e-05
3.65122e-05
3.99596e-05
4.07413e-05
3.96469e-05
3.71223e-05
4.21221e-06
1.64416e-05
2.91126e-05
3.65347e-05
4.00049e-05
4.08075e-05
3.9729e-05
3.72135e-05
4.21052e-06
1.64101e-05
2.91021e-05
3.65727e-05
4.00963e-05
4.09466e-05
3.99036e-05
3.74075e-05
4.21035e-06
1.63792e-05
2.9093e-05
3.66122e-05
4.01876e-05
4.10829e-05
4.00728e-05
3.75943e-05
4.21243e-06
1.63338e-05
2.90683e-05
3.66257e-05
4.02383e-05
4.11651e-05
4.01787e-05
3.77141e-05
4.25739e-06
1.70459e-05
2.96634e-05
3.668e-05
3.97145e-05
4.01753e-05
3.88884e-05
3.62945e-05
4.25092e-06
1.70177e-05
2.96116e-05
3.66026e-05
3.96104e-05
4.00471e-05
3.8743e-05
3.61428e-05
4.24679e-06
1.69999e-05
2.95853e-05
3.65681e-05
3.9567e-05
3.99952e-05
3.86846e-05
3.60811e-05
4.24413e-06
1.69891e-05
2.95879e-05
3.6594e-05
3.96162e-05
4.00628e-05
3.87635e-05
3.61635e-05
4.24235e-06
1.69641e-05
2.95887e-05
3.66437e-05
3.97139e-05
4.01974e-05
3.89191e-05
3.63232e-05
4.24203e-06
1.69385e-05
2.95876e-05
3.66897e-05
3.98051e-05
4.03214e-05
3.90599e-05
3.64653e-05
4.24409e-06
1.69134e-05
2.95789e-05
3.67136e-05
3.98591e-05
4.03973e-05
3.91477e-05
3.65553e-05
4.30592e-06
1.7852e-05
3.04747e-05
3.71388e-05
3.98397e-05
4.00975e-05
3.87439e-05
3.61764e-05
4.29792e-06
1.78072e-05
3.03992e-05
3.70346e-05
3.97107e-05
3.9953e-05
3.85972e-05
3.60411e-05
4.29302e-06
1.7784e-05
3.03665e-05
3.69937e-05
3.96631e-05
3.99028e-05
3.85494e-05
3.60003e-05
4.29013e-06
1.77722e-05
3.03699e-05
3.702e-05
3.97089e-05
3.99605e-05
3.86106e-05
3.60576e-05
4.28848e-06
1.77526e-05
3.03776e-05
3.70706e-05
3.97942e-05
4.00634e-05
3.87128e-05
3.61446e-05
4.28833e-06
1.77316e-05
3.03805e-05
3.71123e-05
3.98649e-05
4.01449e-05
3.87869e-05
3.61985e-05
4.29085e-06
1.77185e-05
3.03833e-05
3.71403e-05
3.99111e-05
4.01976e-05
3.88345e-05
3.6233e-05
4.18812e-06
4.19634e-06
1.51983e-05
4.20515e-06
1.50413e-05
2.8074e-05
3.70994e-05
4.25516e-05
4.21358e-06
1.49562e-05
2.79712e-05
3.70215e-05
4.24993e-05
4.52759e-05
4.58548e-05
4.44089e-05
4.2218e-06
1.47744e-05
2.7755e-05
3.68561e-05
4.23891e-05
4.52121e-05
4.58304e-05
4.44197e-05
4.16905e-06
1.53057e-05
2.83498e-05
3.72791e-05
4.26452e-05
4.53434e-05
4.58733e-05
4.44007e-05
4.17671e-06
1.51953e-05
2.82242e-05
3.71876e-05
4.25869e-05
4.53094e-05
4.5856e-05
4.43942e-05
4.18494e-06
1.51141e-05
2.81377e-05
3.71281e-05
4.25497e-05
4.52872e-05
4.58439e-05
4.43906e-05
4.19327e-06
1.51428e-05
2.81772e-05
3.71631e-05
4.25754e-05
4.52984e-05
4.58351e-05
4.43554e-05
4.20194e-06
1.50177e-05
2.80375e-05
3.70611e-05
4.25101e-05
4.52635e-05
4.58259e-05
4.43729e-05
4.21037e-06
1.49481e-05
2.79554e-05
3.69999e-05
4.2469e-05
4.52356e-05
4.58062e-05
4.43565e-05
4.21832e-06
1.48071e-05
2.77889e-05
3.68725e-05
4.23824e-05
4.51814e-05
4.57782e-05
4.43522e-05
4.16601e-06
1.52965e-05
2.8327e-05
3.72474e-05
4.2607e-05
4.52991e-05
4.58236e-05
4.43482e-05
4.17385e-06
1.5188e-05
2.82065e-05
3.71613e-05
4.25529e-05
4.52678e-05
4.58079e-05
4.43432e-05
4.18215e-06
1.51096e-05
2.81237e-05
3.71046e-05
4.2517e-05
4.52448e-05
4.57928e-05
4.43344e-05
4.19076e-06
1.511e-05
2.81306e-05
3.7115e-05
4.25248e-05
4.52438e-05
4.57776e-05
4.43004e-05
4.19952e-06
1.50104e-05
2.8021e-05
3.70355e-05
4.24713e-05
4.5209e-05
4.5758e-05
4.4297e-05
4.20809e-06
1.49545e-05
2.79569e-05
3.69876e-05
4.24364e-05
4.51799e-05
4.57296e-05
4.42666e-05
4.21609e-06
1.48481e-05
2.7833e-05
3.68921e-05
4.23674e-05
4.51296e-05
4.56931e-05
4.42434e-05
4.16401e-06
1.52816e-05
2.82995e-05
3.7209e-05
4.25562e-05
4.52339e-05
4.5745e-05
4.42615e-05
4.1718e-06
1.51801e-05
2.81882e-05
3.71303e-05
4.25062e-05
4.52037e-05
4.57277e-05
4.42534e-05
4.18017e-06
1.51082e-05
2.81129e-05
3.70785e-05
4.24716e-05
4.51778e-05
4.57057e-05
4.42342e-05
4.18903e-06
1.50939e-05
2.81033e-05
3.70756e-05
4.24675e-05
4.51652e-05
4.56799e-05
4.41928e-05
4.19801e-06
1.50162e-05
2.80196e-05
3.70143e-05
4.24216e-05
4.51268e-05
4.56457e-05
4.41648e-05
4.20689e-06
1.49743e-05
2.79733e-05
3.69782e-05
4.23891e-05
4.50904e-05
4.56015e-05
4.41127e-05
4.2152e-06
1.48982e-05
2.78865e-05
3.69092e-05
4.23318e-05
4.50369e-05
4.55484e-05
4.40618e-05
4.163e-06
1.52673e-05
2.82727e-05
3.71641e-05
4.24855e-05
4.51331e-05
4.56157e-05
4.41139e-05
4.17068e-06
1.51756e-05
2.81733e-05
3.70937e-05
4.24391e-05
4.51015e-05
4.55928e-05
4.40972e-05
4.17914e-06
1.5113e-05
2.81082e-05
3.70478e-05
4.24044e-05
4.50693e-05
4.55586e-05
4.40613e-05
4.18828e-06
1.50937e-05
2.8093e-05
3.70382e-05
4.23901e-05
4.50422e-05
4.55149e-05
4.40012e-05
4.19764e-06
1.50365e-05
2.80329e-05
3.69916e-05
4.23466e-05
4.49932e-05
4.54581e-05
4.39404e-05
4.20699e-06
1.50095e-05
2.80048e-05
3.69655e-05
4.23118e-05
4.49418e-05
4.53877e-05
4.38544e-05
4.21585e-06
1.49611e-05
2.79512e-05
3.69177e-05
4.22588e-05
4.48756e-05
4.53068e-05
4.3764e-05
4.16307e-06
1.52612e-05
2.82538e-05
3.71118e-05
4.23838e-05
4.49741e-05
4.54031e-05
4.38655e-05
4.17065e-06
1.51816e-05
2.81679e-05
3.705e-05
4.23392e-05
4.49378e-05
4.53697e-05
4.3834e-05
4.17927e-06
1.513e-05
2.81147e-05
3.70098e-05
4.23017e-05
4.48939e-05
4.53158e-05
4.37723e-05
4.18878e-06
1.51131e-05
2.81016e-05
3.6997e-05
4.22759e-05
4.48464e-05
4.52441e-05
4.36801e-05
4.19868e-06
1.5076e-05
2.80639e-05
3.69614e-05
4.22279e-05
4.4777e-05
4.51525e-05
4.35735e-05
4.20872e-06
1.50655e-05
2.80544e-05
3.69424e-05
4.21839e-05
4.46997e-05
4.5042e-05
4.34377e-05
4.2184e-06
1.50442e-05
2.80318e-05
3.69103e-05
4.21262e-05
4.46084e-05
4.49183e-05
4.32917e-05
4.1645e-06
1.52743e-05
2.82519e-05
3.70503e-05
4.22341e-05
4.47251e-05
4.50617e-05
4.34611e-05
4.17203e-06
1.52077e-05
2.81803e-05
3.69962e-05
4.2189e-05
4.468e-05
4.50123e-05
4.34081e-05
4.18091e-06
1.51688e-05
2.81403e-05
3.69605e-05
4.21445e-05
4.46173e-05
4.49293e-05
4.33099e-05
4.19093e-06
1.516e-05
2.81345e-05
3.69454e-05
4.21031e-05
4.45406e-05
4.4817e-05
4.31702e-05
4.2016e-06
1.51439e-05
2.81188e-05
3.69167e-05
4.20422e-05
4.44386e-05
4.46757e-05
4.30018e-05
4.21257e-06
1.51525e-05
2.81288e-05
3.6901e-05
4.19801e-05
4.43222e-05
4.45086e-05
4.2798e-05
4.22336e-06
1.51595e-05
2.81358e-05
3.68788e-05
4.19072e-05
4.41916e-05
4.43255e-05
4.2579e-05
4.16772e-06
1.53208e-05
2.82789e-05
3.6976e-05
4.20146e-05
4.43455e-05
4.45354e-05
4.28337e-05
4.17529e-06
1.52676e-05
2.82215e-05
3.69284e-05
4.19661e-05
4.42874e-05
4.44647e-05
4.27533e-05
4.18457e-06
1.52431e-05
2.81956e-05
3.68953e-05
4.19097e-05
4.41985e-05
4.43434e-05
4.26084e-05
4.19532e-06
1.52475e-05
2.82013e-05
3.68775e-05
4.18472e-05
4.40831e-05
4.41781e-05
4.24072e-05
4.20702e-06
1.5255e-05
2.82082e-05
3.68516e-05
4.17648e-05
4.39365e-05
4.39735e-05
4.21633e-05
4.21924e-06
1.52865e-05
2.82393e-05
3.68354e-05
4.16758e-05
4.37687e-05
4.37359e-05
4.18776e-05
4.23143e-06
1.53242e-05
2.82752e-05
3.6817e-05
4.15774e-05
4.35861e-05
4.34806e-05
4.15743e-05
4.1734e-06
1.54193e-05
2.83495e-05
3.68861e-05
4.17016e-05
4.37935e-05
4.37684e-05
4.19191e-05
4.18113e-06
1.53798e-05
2.83063e-05
3.68437e-05
4.16479e-05
4.37203e-05
4.36743e-05
4.18093e-05
4.19101e-06
1.53719e-05
2.82959e-05
3.68122e-05
4.1576e-05
4.36006e-05
4.35102e-05
4.16141e-05
4.20278e-06
1.53947e-05
2.83172e-05
3.67914e-05
4.14888e-05
4.34411e-05
4.32868e-05
4.13472e-05
4.21585e-06
1.54298e-05
2.83486e-05
3.67657e-05
4.13795e-05
4.32441e-05
4.30149e-05
4.10269e-05
4.22968e-06
1.54899e-05
2.84036e-05
3.67471e-05
4.12587e-05
4.30206e-05
4.2705e-05
4.06617e-05
4.24375e-06
1.55624e-05
2.84691e-05
3.67288e-05
4.11305e-05
4.27834e-05
4.238e-05
4.02828e-05
4.18252e-06
1.55939e-05
2.8484e-05
3.67829e-05
4.12808e-05
4.30445e-05
4.2733e-05
4.06907e-05
4.19057e-06
1.55689e-05
2.84557e-05
3.67463e-05
4.12235e-05
4.29593e-05
4.26206e-05
4.0559e-05
4.20131e-06
1.55808e-05
2.84635e-05
3.67178e-05
4.11382e-05
4.28134e-05
4.24223e-05
4.03262e-05
4.21449e-06
1.56284e-05
2.85058e-05
3.66969e-05
4.10299e-05
4.26168e-05
4.21533e-05
4.00119e-05
4.22936e-06
1.56967e-05
2.85654e-05
3.66738e-05
4.08975e-05
4.23794e-05
4.18328e-05
3.96418e-05
4.24538e-06
1.57928e-05
2.86494e-05
3.66567e-05
4.07516e-05
4.21157e-05
4.14779e-05
3.92334e-05
4.26201e-06
1.59063e-05
2.87488e-05
3.66404e-05
4.06022e-05
4.18465e-05
4.11192e-05
3.88253e-05
4.19657e-06
1.58764e-05
2.87117e-05
3.66804e-05
4.07668e-05
4.21277e-05
4.14792e-05
3.92176e-05
4.20514e-06
1.58675e-05
2.87009e-05
3.66573e-05
4.07138e-05
4.20418e-05
4.13655e-05
3.90863e-05
4.2171e-06
1.59037e-05
2.87321e-05
3.66393e-05
4.06282e-05
4.18911e-05
4.11639e-05
3.88548e-05
4.23218e-06
1.59838e-05
2.88035e-05
3.66279e-05
4.05163e-05
4.16879e-05
4.08929e-05
3.85467e-05
4.24953e-06
1.60929e-05
2.88994e-05
3.66169e-05
4.03843e-05
4.145e-05
4.05796e-05
3.81948e-05
4.26857e-06
1.62351e-05
2.90167e-05
3.66128e-05
4.02456e-05
4.11971e-05
4.02479e-05
3.78245e-05
4.28875e-06
1.6397e-05
2.91467e-05
3.6619e-05
4.01147e-05
4.09543e-05
3.99325e-05
3.74778e-05
4.21781e-06
1.63079e-05
2.90596e-05
3.66263e-05
4.02423e-05
4.11701e-05
4.01844e-05
3.77207e-05
4.22716e-06
1.63185e-05
2.90793e-05
3.66248e-05
4.02095e-05
4.11087e-05
4.01029e-05
3.76292e-05
4.24083e-06
1.63851e-05
2.91439e-05
3.66341e-05
4.01527e-05
4.09966e-05
3.99548e-05
3.74654e-05
4.25855e-06
1.65065e-05
2.92521e-05
3.66562e-05
4.00794e-05
4.08474e-05
3.97591e-05
3.72521e-05
4.27939e-06
1.6665e-05
2.93901e-05
3.66894e-05
4.00005e-05
4.06833e-05
3.95464e-05
3.70242e-05
4.30266e-06
1.68533e-05
2.95566e-05
3.67401e-05
3.99312e-05
4.05265e-05
3.93429e-05
3.6809e-05
4.32778e-06
1.70528e-05
2.97471e-05
3.68139e-05
3.9887e-05
4.04022e-05
3.91819e-05
3.66451e-05
4.24975e-06
1.6915e-05
2.95917e-05
3.67337e-05
3.98828e-05
4.04233e-05
3.91754e-05
3.65837e-05
4.26021e-06
1.69595e-05
2.96461e-05
3.67702e-05
3.98976e-05
4.04235e-05
3.91706e-05
3.65801e-05
4.27623e-06
1.70643e-05
2.97581e-05
3.68367e-05
3.99168e-05
4.04133e-05
3.91509e-05
3.65645e-05
4.29773e-06
1.72288e-05
2.99272e-05
3.69354e-05
3.99469e-05
4.04028e-05
3.91292e-05
3.65507e-05
4.32347e-06
1.7434e-05
3.01406e-05
3.70654e-05
3.99985e-05
4.04119e-05
3.9131e-05
3.65658e-05
4.35249e-06
1.76729e-05
3.03939e-05
3.72309e-05
4.00847e-05
4.04591e-05
3.91766e-05
3.66292e-05
4.38394e-06
1.79409e-05
3.06842e-05
3.7436e-05
4.02175e-05
4.05638e-05
3.92904e-05
3.67681e-05
4.29736e-06
1.77404e-05
3.04208e-05
3.71874e-05
3.99643e-05
4.02547e-05
3.8893e-05
3.62894e-05
4.30957e-06
1.78186e-05
3.05222e-05
3.7286e-05
4.0061e-05
4.03574e-05
3.90076e-05
3.64147e-05
4.3289e-06
1.79692e-05
3.07049e-05
3.74513e-05
4.02143e-05
4.05179e-05
3.91887e-05
3.66169e-05
4.35548e-06
1.81919e-05
3.09681e-05
3.7683e-05
4.04249e-05
4.07363e-05
3.94349e-05
3.68917e-05
4.38762e-06
1.84707e-05
3.12975e-05
3.79761e-05
4.06963e-05
4.10208e-05
3.97552e-05
3.72469e-05
4.42402e-06
1.87938e-05
3.16835e-05
3.83286e-05
4.1032e-05
4.13772e-05
4.0154e-05
3.76836e-05
4.4638e-06
1.91543e-05
3.21198e-05
3.8739e-05
4.1436e-05
4.18127e-05
4.06401e-05
3.82106e-05
4.2156e-06
1.53379e-05
2.8448e-05
3.74051e-05
4.27615e-05
4.54278e-05
4.59152e-05
4.43957e-05
4.21092e-06
1.5712e-05
2.8918e-05
3.77794e-05
4.29959e-05
4.55241e-05
4.58852e-05
4.42557e-05
4.20463e-06
1.59303e-05
2.92122e-05
3.80396e-05
4.31973e-05
4.56703e-05
4.59851e-05
4.43172e-05
4.2041e-06
1.64232e-05
2.98378e-05
3.85612e-05
4.35517e-05
4.58331e-05
4.59347e-05
4.40371e-05
4.18221e-06
1.58367e-05
2.90728e-05
3.79038e-05
4.30848e-05
4.55878e-05
4.59357e-05
4.4303e-05
4.17396e-06
1.58252e-05
2.89942e-05
3.77854e-05
4.29499e-05
4.5449e-05
4.58006e-05
4.41762e-05
4.16352e-06
1.5575e-05
2.8684e-05
3.75442e-05
4.28123e-05
4.54191e-05
4.58737e-05
4.43431e-05
4.21085e-06
1.5316e-05
2.84045e-05
3.73511e-05
4.26978e-05
4.53529e-05
4.58297e-05
4.43044e-05
4.20487e-06
1.56091e-05
2.87664e-05
3.76351e-05
4.28736e-05
4.54244e-05
4.58073e-05
4.4201e-05
4.19688e-06
1.57498e-05
2.89494e-05
3.77904e-05
4.29885e-05
4.55049e-05
4.58628e-05
4.42394e-05
4.19353e-06
1.60999e-05
2.93837e-05
3.81399e-05
4.32117e-05
4.55891e-05
4.57977e-05
4.40187e-05
4.17627e-06
1.57092e-05
2.88748e-05
3.77089e-05
4.29177e-05
4.54541e-05
4.58371e-05
4.42409e-05
4.16911e-06
1.57347e-05
2.88663e-05
3.76719e-05
4.28664e-05
4.53964e-05
4.57762e-05
4.41777e-05
4.15954e-06
1.55528e-05
2.86391e-05
3.74945e-05
4.27658e-05
4.53772e-05
4.58359e-05
4.4309e-05
4.20917e-06
1.53148e-05
2.83908e-05
3.73176e-05
4.26371e-05
4.52612e-05
4.57092e-05
4.41647e-05
4.20224e-06
1.55432e-05
2.86681e-05
3.75343e-05
4.27744e-05
4.53246e-05
4.57073e-05
4.41066e-05
4.19322e-06
1.56353e-05
2.87838e-05
3.76306e-05
4.28473e-05
4.53814e-05
4.57561e-05
4.4153e-05
4.18805e-06
1.58868e-05
2.90896e-05
3.78712e-05
4.29969e-05
4.54346e-05
4.57085e-05
4.40021e-05
4.17344e-06
1.56239e-05
2.87466e-05
3.75842e-05
4.28097e-05
4.53638e-05
4.57639e-05
4.41862e-05
4.16668e-06
1.56626e-05
2.87676e-05
3.75833e-05
4.27968e-05
4.5345e-05
4.57408e-05
4.4158e-05
4.15775e-06