/*--------------------------------*- C++ -*----------------------------------*\
| =========                 |                                                 |
| \\      /  F ield         | OpenFOAM: The Open Source CFD Toolbox           |
|  \\    /   O peration     | Version:  plus.master.MPPICInterFoam            |
|   \\  /    A nd           | Web:      www.OpenFOAM.com                      |
|    \\/     M anipulation  |                                                 |
\*---------------------------------------------------------------------------*/
FoamFile
{
    version     2.0;
    format      ascii;
    class       volScalarField;
    location    "7.6";
    object      p_rgh;
}
// * * * * * * * * * * * * * * * * * * * * * * * * * * * * * * * * * * * * * //

dimensions      [1 -1 -2 0 0 0 0];

internalField   nonuniform List<scalar> 
11821
(
5701
5701
5701
5701
5701
5701
5701
5701
5701
5701
5701
5701
5701
5701
5701
5701
5701.01
5701.01
5701.01
5701.01
5701
5701
5701
5701
5701.01
5701.01
5701.01
5701.01
5701.01
5701.01
5701.01
5701.01
5701.02
5701.02
5701.02
5701.02
5701.02
5701.02
5701.02
5701.02
5701.04
5701.04
5701.04
5701.04
5701.04
5701.04
5701.04
5701.03
5701.06
5701.06
5701.06
5701.06
5701.06
5701.06
5701.06
5701.06
5701.08
5701.08
5701.08
5701.08
5701.08
5701.08
5701.08
5701.08
5701.08
5701.08
5701.08
5701.08
5701.08
5701.08
5701.08
5701.08
5701.08
5701.08
5701.08
5701.08
5701.08
5701.08
5701.08
5701.08
5701.09
5701.09
5701.09
5701.09
5701.09
5701.09
5701.08
5701.08
5701.1
5701.1
5701.1
5701.1
5701.1
5701.1
5701.09
5701.09
5701.11
5701.11
5701.11
5701.11
5701.11
5701.11
5701.11
5701.11
5701.13
5701.13
5701.13
5701.13
5701.13
5701.13
5701.13
5701.13
5701.16
5701.16
5701.16
5701.16
5701.16
5701.15
5701.15
5701.15
5701.16
5701.16
5701.16
5701.16
5701.15
5701.15
5701.15
5701.15
5701.16
5701.16
5701.16
5701.16
5701.16
5701.16
5701.16
5701.15
5701.16
5701.17
5701.16
5701.16
5701.16
5701.16
5701.16
5701.16
5701.17
5701.17
5701.17
5701.17
5701.17
5701.17
5701.17
5701.17
5701.18
5701.19
5701.19
5701.18
5701.18
5701.18
5701.18
5701.18
5701.2
5701.2
5701.2
5701.2
5701.2
5701.2
5701.2
5701.2
5701.24
5701.24
5701.23
5701.23
5701.23
5701.23
5701.23
5701.23
5701.24
5701.24
5701.23
5701.23
5701.23
5701.23
5701.23
5701.23
5701.24
5701.24
5701.24
5701.24
5701.24
5701.23
5701.23
5701.23
5701.24
5701.24
5701.24
5701.24
5701.24
5701.24
5701.24
5701.24
5701.25
5701.25
5701.25
5701.25
5701.25
5701.25
5701.25
5701.25
5701.26
5701.26
5701.26
5701.26
5701.26
5701.26
5701.26
5701.26
5701.27
5701.27
5701.27
5701.27
5701.27
5701.27
5701.27
5701.27
5701.32
5701.32
5701.32
5701.31
5701.31
5701.31
5701.31
5701.31
5701.32
5701.32
5701.31
5701.31
5701.31
5701.31
5701.31
5701.31
5701.32
5701.32
5701.32
5701.32
5701.32
5701.31
5701.31
5701.31
5701.32
5701.32
5701.32
5701.32
5701.32
5701.32
5701.32
5701.32
5701.33
5701.33
5701.33
5701.33
5701.33
5701.33
5701.32
5701.32
5701.34
5701.34
5701.34
5701.34
5701.34
5701.34
5701.33
5701.33
5701.35
5701.35
5701.35
5701.35
5701.35
5701.35
5701.35
5701.35
5701.4
5701.4
5701.4
5701.4
5701.39
5701.39
5701.39
5701.39
5701.4
5701.4
5701.4
5701.4
5701.39
5701.39
5701.39
5701.39
5701.4
5701.4
5701.4
5701.4
5701.4
5701.39
5701.39
5701.39
5701.4
5701.4
5701.4
5701.4
5701.4
5701.4
5701.4
5701.4
5701.41
5701.41
5701.41
5701.41
5701.41
5701.4
5701.4
5701.4
5701.42
5701.42
5701.42
5701.41
5701.41
5701.41
5701.41
5701.41
5701.43
5701.43
5701.43
5701.42
5701.42
5701.42
5701.42
5701.42
5701.48
5701.48
5701.48
5701.48
5701.48
5701.48
5701.48
5701.47
5701.48
5701.48
5701.48
5701.48
5701.48
5701.47
5701.47
5701.47
5701.48
5701.48
5701.48
5701.48
5701.48
5701.48
5701.47
5701.47
5701.48
5701.48
5701.48
5701.48
5701.48
5701.48
5701.48
5701.48
5701.49
5701.49
5701.49
5701.49
5701.49
5701.48
5701.48
5701.48
5701.5
5701.49
5701.49
5701.49
5701.49
5701.49
5701.49
5701.49
5701.5
5701.5
5701.5
5701.5
5701.5
5701.5
5701.5
5701.5
5701.56
5701.56
5701.56
5701.56
5701.56
5701.56
5701.56
5701.56
5701.56
5701.56
5701.56
5701.56
5701.56
5701.56
5701.56
5701.56
5701.56
5701.56
5701.56
5701.56
5701.56
5701.56
5701.56
5701.56
5701.57
5701.56
5701.56
5701.56
5701.56
5701.56
5701.56
5701.56
5701.57
5701.57
5701.57
5701.57
5701.57
5701.56
5701.56
5701.56
5701.58
5701.58
5701.57
5701.57
5701.57
5701.57
5701.57
5701.57
5701.58
5701.58
5701.58
5701.58
5701.58
5701.58
5701.58
5701.58
5701.65
5701.65
5701.65
5701.64
5701.64
5701.64
5701.64
5701.64
5701.65
5701.65
5701.64
5701.64
5701.64
5701.64
5701.64
5701.64
5701.65
5701.65
5701.64
5701.64
5701.64
5701.64
5701.64
5701.64
5701.65
5701.65
5701.65
5701.64
5701.64
5701.64
5701.64
5701.64
5701.65
5701.65
5701.65
5701.65
5701.65
5701.65
5701.64
5701.64
5701.66
5701.66
5701.65
5701.65
5701.65
5701.65
5701.65
5701.65
5701.66
5701.66
5701.66
5701.66
5701.66
5701.66
5701.66
5701.66
5701.73
5701.73
5701.73
5701.73
5701.73
5701.73
5701.72
5701.72
5701.73
5701.73
5701.73
5701.73
5701.73
5701.72
5701.72
5701.72
5701.73
5701.73
5701.73
5701.73
5701.73
5701.72
5701.72
5701.72
5701.73
5701.73
5701.73
5701.73
5701.73
5701.72
5701.72
5701.72
5701.74
5701.73
5701.73
5701.73
5701.73
5701.73
5701.73
5701.72
5701.74
5701.74
5701.74
5701.73
5701.73
5701.73
5701.73
5701.73
5701.74
5701.74
5701.74
5701.74
5701.74
5701.74
5701.74
5701.73
5701.82
5701.82
5701.82
5701.81
5701.81
5701.81
5701.81
5701.81
5701.82
5701.81
5701.81
5701.81
5701.81
5701.81
5701.81
5701.8
5701.82
5701.81
5701.81
5701.81
5701.81
5701.81
5701.81
5701.8
5701.82
5701.82
5701.81
5701.81
5701.81
5701.81
5701.81
5701.8
5701.82
5701.82
5701.82
5701.81
5701.81
5701.81
5701.81
5701.81
5701.82
5701.82
5701.82
5701.82
5701.81
5701.81
5701.81
5701.81
5701.83
5701.82
5701.82
5701.82
5701.82
5701.82
5701.82
5701.81
5701.91
5701.9
5701.9
5701.9
5701.9
5701.9
5701.89
5701.89
5701.9
5701.9
5701.9
5701.9
5701.89
5701.89
5701.89
5701.89
5701.9
5701.9
5701.9
5701.9
5701.89
5701.89
5701.89
5701.89
5701.9
5701.9
5701.9
5701.9
5701.89
5701.89
5701.89
5701.89
5701.9
5701.9
5701.9
5701.9
5701.89
5701.89
5701.89
5701.89
5701.91
5701.9
5701.9
5701.9
5701.9
5701.89
5701.89
5701.89
5701.91
5701.91
5701.9
5701.9
5701.9
5701.9
5701.9
5701.89
5701.99
5701.99
5701.99
5701.99
5701.98
5701.98
5701.98
5701.98
5701.99
5701.99
5701.99
5701.98
5701.98
5701.98
5701.98
5701.97
5701.99
5701.99
5701.98
5701.98
5701.98
5701.98
5701.97
5701.97
5701.99
5701.99
5701.98
5701.98
5701.98
5701.97
5701.97
5701.97
5701.99
5701.99
5701.98
5701.98
5701.98
5701.98
5701.97
5701.97
5701.99
5701.99
5701.98
5701.98
5701.98
5701.98
5701.97
5701.97
5701.99
5701.99
5701.99
5701.98
5701.98
5701.98
5701.98
5701.98
5702.08
5702.08
5702.08
5702.07
5702.07
5702.07
5702.07
5702.06
5702.08
5702.08
5702.07
5702.07
5702.07
5702.06
5702.06
5702.06
5702.08
5702.07
5702.07
5702.07
5702.06
5702.06
5702.06
5702.05
5702.08
5702.07
5702.07
5702.06
5702.06
5702.06
5702.06
5702.05
5702.08
5702.07
5702.07
5702.06
5702.06
5702.06
5702.06
5702.05
5702.08
5702.07
5702.07
5702.07
5702.06
5702.06
5702.06
5702.05
5702.08
5702.07
5702.07
5702.07
5702.07
5702.06
5702.06
5702.06
5701.14
5701.14
5701.14
5701.14
5701.14
5701.14
5701.14
5701.14
5701.15
5701.15
5701.15
5701.15
5701.15
5701.15
5701.16
5701.16
5701.14
5701.14
5701.14
5701.14
5701.14
5701.15
5701.15
5701.12
5701.2
5701.2
5701.2
5701.2
5701.2
5701.2
5701.2
5701.2
5701.21
5701.21
5701.21
5701.21
5701.21
5701.22
5701.22
5701.22
5701.2
5701.2
5701.2
5701.2
5701.2
5701.2
5701.2
5701.2
5701.21
5701.21
5701.21
5701.22
5701.23
5701.24
5701.25
5701.26
5701.18
5701.18
5701.18
5701.19
5701.19
5701.19
5701.19
5701.19
5701.17
5701.17
5701.18
5701.18
5701.18
5701.18
5701.18
5701.19
5701.15
5701.15
5701.15
5701.15
5701.15
5701.15
5701.15
5701.15
5701.27
5701.27
5701.27
5701.27
5701.27
5701.27
5701.27
5701.27
5701.27
5701.27
5701.27
5701.28
5701.28
5701.28
5701.28
5701.28
5701.26
5701.26
5701.26
5701.27
5701.27
5701.27
5701.27
5701.27
5701.27
5701.27
5701.27
5701.28
5701.28
5701.29
5701.3
5701.31
5701.25
5701.25
5701.25
5701.25
5701.25
5701.26
5701.26
5701.26
5701.24
5701.24
5701.24
5701.25
5701.25
5701.25
5701.25
5701.25
5701.22
5701.22
5701.22
5701.22
5701.22
5701.22
5701.22
5701.22
5701.34
5701.34
5701.34
5701.34
5701.34
5701.34
5701.34
5701.34
5701.34
5701.34
5701.34
5701.34
5701.34
5701.34
5701.35
5701.35
5701.33
5701.33
5701.33
5701.33
5701.33
5701.33
5701.34
5701.34
5701.34
5701.34
5701.34
5701.34
5701.35
5701.35
5701.36
5701.36
5701.32
5701.32
5701.32
5701.32
5701.32
5701.32
5701.33
5701.33
5701.31
5701.31
5701.31
5701.32
5701.32
5701.32
5701.32
5701.32
5701.3
5701.3
5701.3
5701.3
5701.3
5701.3
5701.3
5701.3
5701.41
5701.41
5701.41
5701.41
5701.41
5701.41
5701.41
5701.41
5701.41
5701.41
5701.41
5701.41
5701.41
5701.41
5701.41
5701.42
5701.4
5701.4
5701.4
5701.4
5701.4
5701.41
5701.41
5701.41
5701.4
5701.4
5701.41
5701.41
5701.41
5701.42
5701.42
5701.42
5701.39
5701.39
5701.39
5701.39
5701.39
5701.4
5701.4
5701.4
5701.39
5701.39
5701.39
5701.39
5701.39
5701.39
5701.39
5701.39
5701.37
5701.37
5701.37
5701.37
5701.37
5701.37
5701.37
5701.37
5701.48
5701.48
5701.48
5701.48
5701.48
5701.48
5701.48
5701.48
5701.48
5701.48
5701.48
5701.48
5701.48
5701.48
5701.48
5701.49
5701.48
5701.48
5701.48
5701.48
5701.48
5701.48
5701.48
5701.48
5701.48
5701.48
5701.48
5701.48
5701.48
5701.48
5701.49
5701.49
5701.47
5701.47
5701.47
5701.47
5701.47
5701.47
5701.47
5701.47
5701.46
5701.46
5701.46
5701.46
5701.46
5701.46
5701.47
5701.47
5701.45
5701.45
5701.45
5701.45
5701.45
5701.45
5701.45
5701.45
5701.55
5701.55
5701.55
5701.55
5701.55
5701.55
5701.55
5701.55
5701.55
5701.55
5701.55
5701.55
5701.56
5701.56
5701.56
5701.56
5701.55
5701.55
5701.55
5701.55
5701.55
5701.55
5701.55
5701.55
5701.55
5701.55
5701.55
5701.55
5701.55
5701.56
5701.56
5701.56
5701.54
5701.54
5701.54
5701.54
5701.54
5701.55
5701.55
5701.55
5701.54
5701.54
5701.54
5701.54
5701.54
5701.54
5701.54
5701.54
5701.53
5701.53
5701.53
5701.53
5701.53
5701.53
5701.53
5701.53
5701.63
5701.63
5701.63
5701.63
5701.63
5701.63
5701.63
5701.63
5701.63
5701.63
5701.63
5701.63
5701.63
5701.63
5701.63
5701.63
5701.63
5701.63
5701.63
5701.63
5701.63
5701.63
5701.63
5701.63
5701.63
5701.63
5701.63
5701.63
5701.63
5701.63
5701.63
5701.63
5701.62
5701.62
5701.62
5701.62
5701.62
5701.62
5701.62
5701.62
5701.62
5701.62
5701.62
5701.62
5701.62
5701.62
5701.62
5701.62
5701.61
5701.61
5701.61
5701.61
5701.61
5701.61
5701.61
5701.61
5701.7
5701.7
5701.7
5701.7
5701.7
5701.7
5701.7
5701.7
5701.71
5701.71
5701.71
5701.71
5701.71
5701.71
5701.71
5701.71
5701.71
5701.71
5701.71
5701.71
5701.71
5701.71
5701.71
5701.71
5701.71
5701.71
5701.71
5701.71
5701.71
5701.71
5701.71
5701.71
5701.7
5701.7
5701.7
5701.7
5701.7
5701.7
5701.7
5701.7
5701.7
5701.7
5701.7
5701.7
5701.7
5701.7
5701.7
5701.7
5701.69
5701.69
5701.69
5701.69
5701.69
5701.69
5701.69
5701.69
5701.78
5701.78
5701.78
5701.78
5701.78
5701.78
5701.78
5701.78
5701.79
5701.79
5701.79
5701.79
5701.79
5701.79
5701.79
5701.79
5701.79
5701.79
5701.79
5701.79
5701.79
5701.79
5701.79
5701.79
5701.79
5701.79
5701.79
5701.79
5701.79
5701.79
5701.79
5701.79
5701.78
5701.78
5701.78
5701.78
5701.78
5701.78
5701.78
5701.78
5701.78
5701.78
5701.78
5701.78
5701.78
5701.78
5701.78
5701.78
5701.77
5701.77
5701.77
5701.77
5701.77
5701.77
5701.77
5701.77
5701.86
5701.86
5701.86
5701.86
5701.86
5701.86
5701.86
5701.86
5701.87
5701.87
5701.87
5701.87
5701.87
5701.87
5701.87
5701.86
5701.87
5701.87
5701.87
5701.87
5701.87
5701.87
5701.87
5701.87
5701.87
5701.87
5701.87
5701.87
5701.87
5701.87
5701.87
5701.87
5701.87
5701.87
5701.86
5701.86
5701.86
5701.86
5701.86
5701.86
5701.86
5701.86
5701.86
5701.86
5701.86
5701.86
5701.86
5701.86
5701.86
5701.86
5701.86
5701.86
5701.86
5701.86
5701.86
5701.86
5701.95
5701.95
5701.94
5701.94
5701.94
5701.94
5701.94
5701.94
5701.95
5701.95
5701.95
5701.95
5701.95
5701.95
5701.95
5701.95
5701.95
5701.95
5701.95
5701.95
5701.95
5701.95
5701.95
5701.95
5701.95
5701.95
5701.95
5701.95
5701.95
5701.95
5701.95
5701.95
5701.95
5701.95
5701.95
5701.95
5701.95
5701.95
5701.95
5701.95
5701.95
5701.95
5701.95
5701.95
5701.95
5701.95
5701.95
5701.95
5701.94
5701.94
5701.94
5701.94
5701.94
5701.94
5701.94
5701.94
5702.03
5702.03
5702.03
5702.03
5702.03
5702.02
5702.02
5702.02
5702.03
5702.03
5702.03
5702.03
5702.03
5702.03
5702.03
5702.03
5702.04
5702.03
5702.03
5702.03
5702.03
5702.03
5702.03
5702.03
5702.04
5702.04
5702.04
5702.03
5702.03
5702.03
5702.03
5702.03
5702.04
5702.04
5702.03
5702.03
5702.03
5702.03
5702.03
5702.03
5702.04
5702.03
5702.03
5702.03
5702.03
5702.03
5702.03
5702.03
5702.03
5702.03
5702.03
5702.03
5702.03
5702.03
5702.03
5702.03
5702.12
5702.11
5702.11
5702.11
5702.11
5702.11
5702.11
5702.11
5702.12
5702.12
5702.12
5702.12
5702.11
5702.11
5702.11
5702.11
5702.12
5702.12
5702.12
5702.12
5702.12
5702.12
5702.12
5702.11
5702.12
5702.12
5702.12
5702.12
5702.12
5702.12
5702.12
5702.12
5702.13
5702.12
5702.12
5702.12
5702.12
5702.12
5702.12
5702.12
5702.12
5702.12
5702.12
5702.12
5702.12
5702.12
5702.12
5702.12
5702.12
5702.12
5702.12
5702.12
5702.12
5702.12
5702.11
5702.11
5701.02
5701.02
5701.02
5701.02
5701.01
5701.01
5701.01
5701.01
5701.01
5701.01
5701.01
5701.01
5701.01
5701.01
5701.01
5701.01
5701
5701
5701
5701
5701
5701
5701
5701
5701.14
5701.14
5701.14
5701.14
5701.14
5701.14
5701.14
5701.14
5701.12
5701.12
5701.12
5701.12
5701.12
5701.12
5701.12
5701.12
5701.11
5701.11
5701.11
5701.11
5701.11
5701.11
5701.11
5701.11
5701.1
5701.1
5701.1
5701.1
5701.1
5701.1
5701.1
5701.1
5701.09
5701.09
5701.09
5701.09
5701.09
5701.09
5701.09
5701.09
5701.09
5701.09
5701.09
5701.09
5701.09
5701.09
5701.09
5701.09
5701.08
5701.08
5701.08
5701.08
5701.08
5701.08
5701.08
5701.08
5701.21
5701.21
5701.21
5701.21
5701.21
5701.21
5701.21
5701.21
5701.2
5701.2
5701.2
5701.2
5701.2
5701.2
5701.2
5701.2
5701.19
5701.19
5701.19
5701.19
5701.19
5701.19
5701.18
5701.18
5701.18
5701.18
5701.18
5701.18
5701.18
5701.18
5701.18
5701.18
5701.17
5701.17
5701.17
5701.17
5701.17
5701.17
5701.17
5701.17
5701.16
5701.16
5701.16
5701.16
5701.16
5701.16
5701.16
5701.16
5701.16
5701.16
5701.16
5701.16
5701.16
5701.16
5701.16
5701.16
5701.29
5701.29
5701.29
5701.29
5701.29
5701.29
5701.29
5701.29
5701.27
5701.27
5701.27
5701.27
5701.27
5701.27
5701.27
5701.27
5701.26
5701.26
5701.26
5701.26
5701.26
5701.26
5701.26
5701.26
5701.25
5701.25
5701.25
5701.25
5701.25
5701.25
5701.25
5701.25
5701.25
5701.25
5701.25
5701.25
5701.25
5701.25
5701.25
5701.24
5701.24
5701.24
5701.24
5701.24
5701.24
5701.24
5701.24
5701.24
5701.24
5701.24
5701.24
5701.24
5701.24
5701.24
5701.23
5701.23
5701.36
5701.36
5701.36
5701.36
5701.36
5701.36
5701.36
5701.36
5701.35
5701.35
5701.35
5701.35
5701.35
5701.35
5701.35
5701.35
5701.34
5701.34
5701.34
5701.34
5701.34
5701.34
5701.34
5701.34
5701.33
5701.33
5701.33
5701.33
5701.33
5701.33
5701.33
5701.33
5701.33
5701.33
5701.33
5701.33
5701.33
5701.33
5701.33
5701.32
5701.32
5701.32
5701.32
5701.32
5701.32
5701.32
5701.32
5701.32
5701.32
5701.32
5701.32
5701.32
5701.32
5701.32
5701.31
5701.31
5701.44
5701.44
5701.44
5701.44
5701.44
5701.44
5701.44
5701.44
5701.43
5701.43
5701.43
5701.43
5701.43
5701.43
5701.43
5701.43
5701.42
5701.42
5701.42
5701.42
5701.42
5701.42
5701.42
5701.42
5701.41
5701.42
5701.42
5701.42
5701.41
5701.41
5701.41
5701.41
5701.41
5701.41
5701.41
5701.41
5701.41
5701.41
5701.41
5701.41
5701.4
5701.4
5701.4
5701.4
5701.4
5701.4
5701.4
5701.4
5701.4
5701.4
5701.4
5701.4
5701.4
5701.4
5701.4
5701.4
5701.52
5701.52
5701.52
5701.52
5701.52
5701.52
5701.52
5701.52
5701.51
5701.51
5701.51
5701.51
5701.51
5701.51
5701.51
5701.51
5701.5
5701.5
5701.5
5701.5
5701.5
5701.5
5701.5
5701.5
5701.5
5701.5
5701.5
5701.5
5701.5
5701.5
5701.5
5701.5
5701.49
5701.49
5701.49
5701.49
5701.49
5701.49
5701.49
5701.49
5701.49
5701.49
5701.49
5701.48
5701.48
5701.48
5701.48
5701.48
5701.48
5701.48
5701.48
5701.48
5701.48
5701.48
5701.48
5701.48
5701.6
5701.6
5701.6
5701.6
5701.6
5701.6
5701.6
5701.6
5701.59
5701.59
5701.59
5701.59
5701.59
5701.59
5701.59
5701.59
5701.59
5701.59
5701.59
5701.59
5701.59
5701.59
5701.59
5701.59
5701.58
5701.58
5701.58
5701.58
5701.58
5701.58
5701.58
5701.58
5701.57
5701.57
5701.57
5701.57
5701.57
5701.57
5701.57
5701.57
5701.57
5701.57
5701.57
5701.57
5701.57
5701.57
5701.57
5701.57
5701.57
5701.57
5701.56
5701.56
5701.56
5701.56
5701.56
5701.56
5701.68
5701.68
5701.68
5701.68
5701.68
5701.68
5701.68
5701.68
5701.68
5701.68
5701.68
5701.68
5701.68
5701.68
5701.68
5701.68
5701.67
5701.67
5701.67
5701.67
5701.67
5701.67
5701.67
5701.67
5701.66
5701.66
5701.66
5701.66
5701.66
5701.66
5701.66
5701.66
5701.66
5701.66
5701.66
5701.66
5701.66
5701.66
5701.66
5701.65
5701.65
5701.65
5701.65
5701.65
5701.65
5701.65
5701.65
5701.65
5701.65
5701.65
5701.65
5701.65
5701.65
5701.65
5701.64
5701.64
5701.77
5701.77
5701.77
5701.77
5701.77
5701.77
5701.77
5701.77
5701.76
5701.76
5701.76
5701.76
5701.76
5701.76
5701.76
5701.76
5701.76
5701.76
5701.76
5701.75
5701.75
5701.75
5701.75
5701.75
5701.75
5701.75
5701.75
5701.75
5701.75
5701.75
5701.75
5701.75
5701.74
5701.74
5701.74
5701.74
5701.74
5701.74
5701.74
5701.74
5701.74
5701.74
5701.74
5701.74
5701.74
5701.73
5701.73
5701.73
5701.73
5701.73
5701.73
5701.73
5701.73
5701.73
5701.73
5701.73
5701.85
5701.85
5701.85
5701.85
5701.85
5701.85
5701.85
5701.85
5701.85
5701.85
5701.85
5701.85
5701.85
5701.85
5701.84
5701.84
5701.84
5701.84
5701.84
5701.84
5701.84
5701.84
5701.84
5701.84
5701.84
5701.84
5701.83
5701.83
5701.83
5701.83
5701.83
5701.83
5701.83
5701.83
5701.83
5701.83
5701.83
5701.83
5701.82
5701.82
5701.83
5701.82
5701.82
5701.82
5701.82
5701.82
5701.82
5701.82
5701.82
5701.82
5701.82
5701.82
5701.82
5701.81
5701.81
5701.81
5701.94
5701.94
5701.94
5701.94
5701.94
5701.94
5701.94
5701.94
5701.93
5701.93
5701.93
5701.93
5701.93
5701.93
5701.93
5701.93
5701.93
5701.93
5701.93
5701.93
5701.93
5701.93
5701.92
5701.92
5701.92
5701.92
5701.92
5701.92
5701.92
5701.92
5701.92
5701.92
5701.92
5701.92
5701.92
5701.91
5701.91
5701.91
5701.91
5701.91
5701.91
5701.91
5701.91
5701.91
5701.91
5701.91
5701.9
5701.9
5701.91
5701.91
5701.91
5701.9
5701.9
5701.9
5701.9
5701.9
5702.03
5702.03
5702.03
5702.03
5702.02
5702.02
5702.02
5702.02
5702.02
5702.02
5702.02
5702.02
5702.02
5702.02
5702.02
5702.02
5702.02
5702.02
5702.02
5702.01
5702.01
5702.01
5702.01
5702.01
5702.01
5702.01
5702.01
5702.01
5702.01
5702.01
5702
5702
5702.01
5702.01
5702
5702
5702
5702
5702
5702
5702
5702
5702
5702
5701.99
5701.99
5701.99
5701.99
5702
5701.99
5701.99
5701.99
5701.99
5701.99
5701.98
5701.98
5702.12
5702.12
5702.12
5702.11
5702.11
5702.11
5702.11
5702.11
5702.11
5702.11
5702.11
5702.11
5702.11
5702.11
5702.11
5702.1
5702.11
5702.11
5702.11
5702.1
5702.1
5702.1
5702.1
5702.1
5702.1
5702.1
5702.1
5702.1
5702.1
5702.09
5702.09
5702.09
5702.1
5702.09
5702.09
5702.09
5702.09
5702.09
5702.09
5702.08
5702.09
5702.09
5702.09
5702.08
5702.08
5702.08
5702.08
5702.08
5702.09
5702.08
5702.08
5702.08
5702.08
5702.07
5702.07
5702.07
5701.08
5701.08
5701.08
5701.08
5701.08
5701.08
5701.08
5701.08
5701.1
5701.11
5701.11
5701.11
5701.11
5701.12
5701.12
5701.12
5701.12
5701.12
5701.12
5701.12
5701.13
5701.13
5701.13
5701.13
5701.15
5701.15
5701.16
5701.16
5701.17
5701.19
5701.2
5701.21
5701.14
5701.14
5701.14
5701.14
5701.14
5701.14
5701.14
5701.14
5701.15
5701.15
5701.15
5701.15
5701.15
5701.16
5701.16
5701.16
5701.14
5701.14
5701.14
5701.14
5701.14
5701.14
5701.14
5701.14
5701.14
5701.15
5701.15
5701.15
5701.15
5701.15
5701.15
5701.15
5701.17
5701.17
5701.17
5701.17
5701.18
5701.18
5701.18
5701.18
5701.18
5701.18
5701.18
5701.18
5701.19
5701.19
5701.19
5701.19
5701.21
5701.21
5701.21
5701.22
5701.22
5701.23
5701.24
5701.25
5701.2
5701.2
5701.2
5701.2
5701.2
5701.2
5701.2
5701.2
5701.21
5701.21
5701.21
5701.21
5701.21
5701.21
5701.22
5701.22
5701.2
5701.2
5701.2
5701.2
5701.2
5701.2
5701.2
5701.2
5701.22
5701.22
5701.22
5701.22
5701.22
5701.22
5701.22
5701.22
5701.23
5701.24
5701.24
5701.24
5701.24
5701.24
5701.24
5701.25
5701.25
5701.25
5701.25
5701.25
5701.25
5701.25
5701.25
5701.25
5701.27
5701.27
5701.27
5701.27
5701.28
5701.28
5701.29
5701.3
5701.26
5701.26
5701.26
5701.26
5701.26
5701.26
5701.27
5701.27
5701.27
5701.27
5701.27
5701.27
5701.27
5701.28
5701.28
5701.28
5701.27
5701.27
5701.27
5701.27
5701.27
5701.27
5701.27
5701.27
5701.29
5701.29
5701.29
5701.29
5701.29
5701.29
5701.29
5701.29
5701.3
5701.3
5701.3
5701.31
5701.31
5701.31
5701.31
5701.31
5701.31
5701.31
5701.31
5701.32
5701.32
5701.32
5701.32
5701.32
5701.33
5701.33
5701.33
5701.33
5701.34
5701.34
5701.35
5701.35
5701.33
5701.33
5701.33
5701.33
5701.33
5701.33
5701.33
5701.33
5701.34
5701.34
5701.34
5701.34
5701.34
5701.34
5701.34
5701.34
5701.33
5701.33
5701.33
5701.34
5701.34
5701.34
5701.34
5701.34
5701.36
5701.36
5701.36
5701.36
5701.36
5701.36
5701.36
5701.36
5701.37
5701.37
5701.38
5701.38
5701.38
5701.38
5701.38
5701.38
5701.38
5701.38
5701.38
5701.38
5701.39
5701.39
5701.39
5701.39
5701.4
5701.4
5701.4
5701.4
5701.4
5701.41
5701.41
5701.41
5701.4
5701.4
5701.4
5701.4
5701.4
5701.4
5701.4
5701.4
5701.4
5701.4
5701.4
5701.41
5701.41
5701.41
5701.41
5701.41
5701.4
5701.4
5701.4
5701.4
5701.4
5701.41
5701.41
5701.41
5701.44
5701.44
5701.44
5701.44
5701.43
5701.43
5701.43
5701.43
5701.45
5701.45
5701.45
5701.45
5701.45
5701.45
5701.45
5701.45
5701.46
5701.46
5701.46
5701.46
5701.46
5701.46
5701.46
5701.46
5701.47
5701.47
5701.47
5701.47
5701.47
5701.47
5701.48
5701.48
5701.47
5701.47
5701.47
5701.47
5701.47
5701.47
5701.47
5701.47
5701.47
5701.47
5701.48
5701.48
5701.48
5701.48
5701.48
5701.48
5701.48
5701.48
5701.48
5701.48
5701.48
5701.48
5701.48
5701.48
5701.51
5701.51
5701.51
5701.51
5701.51
5701.51
5701.51
5701.51
5701.52
5701.52
5701.52
5701.52
5701.52
5701.52
5701.52
5701.52
5701.53
5701.53
5701.53
5701.53
5701.53
5701.53
5701.53
5701.53
5701.54
5701.54
5701.54
5701.54
5701.54
5701.54
5701.54
5701.55
5701.54
5701.54
5701.54
5701.54
5701.54
5701.54
5701.54
5701.54
5701.55
5701.55
5701.55
5701.55
5701.55
5701.55
5701.55
5701.55
5701.55
5701.55
5701.55
5701.55
5701.55
5701.55
5701.55
5701.55
5701.59
5701.59
5701.59
5701.59
5701.59
5701.59
5701.59
5701.59
5701.6
5701.6
5701.6
5701.6
5701.6
5701.6
5701.6
5701.6
5701.61
5701.61
5701.6
5701.6
5701.6
5701.6
5701.6
5701.6
5701.61
5701.61
5701.61
5701.61
5701.61
5701.62
5701.62
5701.62
5701.62
5701.62
5701.62
5701.62
5701.62
5701.62
5701.62
5701.62
5701.62
5701.62
5701.62
5701.62
5701.62
5701.62
5701.62
5701.62
5701.62
5701.62
5701.62
5701.62
5701.63
5701.63
5701.63
5701.63
5701.67
5701.67
5701.67
5701.67
5701.67
5701.66
5701.66
5701.66
5701.68
5701.68
5701.68
5701.67
5701.67
5701.67
5701.67
5701.67
5701.68
5701.68
5701.68
5701.68
5701.68
5701.68
5701.68
5701.68
5701.69
5701.69
5701.69
5701.69
5701.69
5701.69
5701.69
5701.69
5701.69
5701.69
5701.69
5701.69
5701.69
5701.69
5701.69
5701.69
5701.7
5701.7
5701.7
5701.7
5701.7
5701.7
5701.7
5701.7
5701.7
5701.7
5701.7
5701.7
5701.7
5701.7
5701.7
5701.7
5701.75
5701.75
5701.75
5701.75
5701.74
5701.74
5701.74
5701.74
5701.76
5701.75
5701.75
5701.75
5701.75
5701.75
5701.75
5701.75
5701.76
5701.76
5701.76
5701.76
5701.76
5701.76
5701.76
5701.76
5701.77
5701.77
5701.77
5701.77
5701.77
5701.77
5701.77
5701.77
5701.77
5701.77
5701.77
5701.77
5701.77
5701.77
5701.77
5701.77
5701.78
5701.78
5701.78
5701.78
5701.78
5701.78
5701.78
5701.78
5701.78
5701.78
5701.78
5701.78
5701.78
5701.78
5701.78
5701.78
5701.83
5701.83
5701.83
5701.83
5701.82
5701.82
5701.82
5701.82
5701.84
5701.83
5701.83
5701.83
5701.83
5701.83
5701.83
5701.83
5701.84
5701.84
5701.84
5701.84
5701.84
5701.84
5701.83
5701.83
5701.85
5701.85
5701.85
5701.84
5701.84
5701.84
5701.84
5701.84
5701.85
5701.85
5701.85
5701.85
5701.85
5701.85
5701.85
5701.85
5701.86
5701.86
5701.86
5701.85
5701.85
5701.85
5701.85
5701.85
5701.86
5701.86
5701.86
5701.86
5701.86
5701.86
5701.86
5701.86
5701.91
5701.91
5701.91
5701.91
5701.91
5701.9
5701.9
5701.9
5701.92
5701.92
5701.91
5701.91
5701.91
5701.91
5701.91
5701.91
5701.92
5701.92
5701.92
5701.92
5701.92
5701.92
5701.91
5701.91
5701.93
5701.93
5701.93
5701.92
5701.92
5701.92
5701.92
5701.92
5701.93
5701.93
5701.93
5701.93
5701.93
5701.93
5701.93
5701.93
5701.94
5701.94
5701.94
5701.93
5701.93
5701.93
5701.93
5701.93
5701.94
5701.94
5701.94
5701.94
5701.94
5701.94
5701.94
5701.94
5702
5701.99
5701.99
5701.99
5701.99
5701.98
5701.98
5701.98
5702
5702
5702
5701.99
5701.99
5701.99
5701.99
5701.99
5702.01
5702
5702
5702
5702
5702
5701.99
5701.99
5702.01
5702.01
5702.01
5702
5702
5702
5702
5702
5702.02
5702.01
5702.01
5702.01
5702.01
5702.01
5702.01
5702
5702.02
5702.02
5702.02
5702.02
5702.02
5702.01
5702.01
5702.01
5702.03
5702.02
5702.02
5702.02
5702.02
5702.02
5702.02
5702.02
5702.08
5702.08
5702.07
5702.07
5702.07
5702.07
5702.06
5702.06
5702.09
5702.08
5702.08
5702.08
5702.07
5702.07
5702.07
5702.07
5702.09
5702.09
5702.08
5702.08
5702.08
5702.08
5702.07
5702.07
5702.09
5702.09
5702.09
5702.09
5702.08
5702.08
5702.08
5702.08
5702.1
5702.1
5702.09
5702.09
5702.09
5702.09
5702.09
5702.09
5702.11
5702.1
5702.1
5702.1
5702.1
5702.1
5702.09
5702.09
5702.11
5702.11
5702.11
5702.11
5702.1
5702.1
5702.1
5702.1
5653.13
5657.48
5660.37
5662.52
5660.88
5657.81
5653.06
5657.55
5662.28
5664.63
5665.72
5665.07
5662.76
5657.75
5660.71
5664.97
5632.1
5076.34
5634.46
5665.46
5661.14
5662.45
5667.75
5345.54
4000.57
5197.58
5668.13
5663.3
5661.22
5665.44
5615.05
4862.77
5612.81
5666.16
5661.47
5658.22
5663.03
5665.38
5660.31
5665.59
5663.73
5658.36
5653.9
5658.47
5661.5
5663.7
5661.58
5658.49
5653.78
5649.46
5655.42
5660
5659.82
5658.15
5653.28
5647.68
5655.1
5663.43
5669.49
5670.41
5666.09
5659.81
5652.48
5659.23
5668.23
5670.19
5552.74
5669.4
5663.77
5656.01
5661.1
5669.45
5578.88
4143.86
5535.38
5667.25
5658.12
5659.28
5668.28
5670.73
5471.66
5668.65
5664.15
5656.13
5655.03
5659.1
5667.93
5669.33
5665.46
5659.65
5652.51
5649.5
5655.26
5659.51
5656.48
5657.89
5653.24
5647.76
5630.44
5636.39
5641.02
5615.76
5639.59
5634.3
5629.31
5635.85
5598.88
5598.59
5644.76
5611.95
5641.14
5633.52
5640.79
5650.3
5647.61
5623.69
5645.34
5635.12
5637.34
5643.53
5657.45
5652.92
5179.23
5595.85
5649.66
5639
5640.89
5638.29
5618.89
5612.5
5623.71
5636.12
5636.88
5635.83
5593.21
5560.68
5636.33
5604.52
5640.3
5633.19
5630.53
5636.42
5641.25
5614.48
5638.9
5633.92
5629.2
5577.95
5567.44
5487.92
5400.44
5550.14
5577.4
5585.94
5565.13
5223.89
4753.59
4934.16
5235.41
5544.98
5579.45
5466.18
5151.07
4981.2
5188.01
4815.63
5408.04
5574.29
5427.61
5474.39
5515.09
4892.07
5155.44
5392.17
5572.73
5473.62
5111.81
4662.96
5040.09
4828.49
5412.47
5574.79
5567.67
5262
4901.4
5019.13
5234.42
5553.42
5580.21
5578.78
5570.41
5517.29
5432.91
5561.91
5578.67
5586.84
5548.67
5462.83
5060.13
4883.83
5379.59
5544.4
5561.71
5448.34
4516.21
3922.45
3928.7
4410.09
5366.88
5549.26
4961.03
4000.77
3868.77
3896.71
3802.97
4790.73
5536.08
4789.3
4173.53
4873.12
3936.72
3954.7
4628.39
5509.32
5011.71
4007.53
3790.88
3807.7
3846.38
4829.98
5538.07
5483.31
4658.33
3974.2
4013.91
4485.32
5408.88
5550.57
5550.85
5505.22
5193.29
5022.77
5431.4
5546.77
5563.34
5588.87
5500.25
5058.71
4862.46
5411.43
5586.87
5592.03
5469.49
4467.09
3799.35
3763.46
4290.5
5396.75
5587.69
4825.56
3785.21
3753.02
3734.48
3761.65
4689.77
5581.15
4493.41
3787.48
3753.68
3738.22
3756.44
4376.73
5540.68
4914.98
3780.26
3767.31
3746.03
3770.22
4760.14
5583.61
5514.62
4647.46
3894.13
3789.33
4427.05
5447.96
5588.2
5590.22
5551.37
5222.82
5048.47
5476
5587.69
5592.62
5641.68
5622
5478.89
5390.4
5593.96
5640.93
5635.92
5599.97
5138.93
4464.21
4275.08
5006.27
5583.12
5640.75
5297.98
4200.91
3756.74
3756.34
4113.71
5262.98
5644.69
4981.72
3878.9
3752.66
3752.85
3847.61
4972.61
5641.63
5351.39
4296.58
3785.19
3755.91
4196.51
5314.67
5644.11
5616.38
5261.22
4656.87
4454.29
5135.05
5601.45
5639.83
5640.86
5636.8
5547.98
5481.39
5616.23
5640.05
5634.98
5657.91
5661.06
5660.26
5656.72
5659.51
5657.32
5651.82
5659.91
5639.11
5514.43
5436.17
5628.65
5660.3
5657.09
5645.83
5349.41
4663.57
4532.65
5309.86
5650.31
5660.82
5596.4
4920.85
4075.11
4010.78
4944.99
5614.52
5662.47
5649.48
5419.8
4811.21
4676.75
5377.96
5653.28
5660.18
5659.54
5649.86
5572.31
5517.25
5643.47
5660.14
5656.05
5656.78
5660.17
5661.33
5659.21
5659.38
5656.12
5650.68
5652.15
5654.19
5655.15
5654.99
5653.62
5651.33
5647.88
5654.62
5655.13
5654.57
5653.89
5654.56
5653.98
5650.84
5655.34
5650.99
5587.53
5569.1
5652.2
5655.15
5652.85
5656.6
5628.85
5350.75
5340.24
5640.49
5655.85
5653.82
5655.58
5652.91
5625.26
5610.04
5652.6
5654.96
5652.54
5654.2
5655.41
5654.44
5653.99
5654.43
5653.5
5650.27
5651.46
5653.56
5654.45
5654.29
5652.88
5650.55
5647.15
5638.68
5637
5629.64
5625.69
5640.63
5638.44
5635.77
5631.71
5621.14
5636.76
5636.11
5601.49
5638.82
5637.97
5622.67
5631.53
5631.57
5632.52
5629.46
5625.23
5639.76
5636.39
5635.39
5619.54
5621.2
5626.33
5633.18
5640.59
5621.85
5629.4
5627.68
5629.06
5628.68
5627.42
5639.51
5633.32
5619.56
5638.11
5638.33
5605.85
5639.88
5637.67
5637.91
5640.02
5635.42
5634.61
5640.11
5637.98
5635.45
5605.64
5531.68
5474.84
5452.33
5569.64
5606.88
5611.16
5476.35
5130.13
4906.74
4980.05
5157.78
5549.97
5608.18
5234.57
4886.22
5254.94
5165.07
4832.73
5354.8
5606.01
4856.8
5229.27
5547.13
5313.32
4782.35
5293.34
5605.55
5273.23
4865.31
4879.99
4768.44
4893.09
5382.13
5606.62
5526.97
5148.86
5239.19
5238.22
5204.1
5574.53
5609.06
5607.17
5589.55
5524.64
5526.05
5602.82
5608.32
5612.03
5577.8
5236.42
4959.47
4962.55
5373.61
5590.3
5598.13
5047.86
4024.94
3725.42
3796.85
4212.84
5310.96
5592.29
4254.06
3715.54
4066.91
3783.85
3706.87
4618.99
5574.69
3900.89
3983.53
5533.3
4238.89
3705.76
4351.56
5522.78
4363.41
3711.25
3719.23
3705.63
3730.58
4713.12
5583.95
5238.62
4182.44
4020.65
4041.56
4410.61
5416.88
5593.45
5591.16
5428.65
5199.87
5221.16
5502.64
5592.37
5599.42
5587.7
5178.38
4790.21
4856.02
5347.7
5609.18
5614.58
4948.63
3764.8
3677.18
3672.23
4041.89
5268.2
5612.67
4017.4
3675
3658.37
3654.96
3666.15
4461.98
5588.09
3781.26
3681.25
4240.3
3658.75
3669.62
4161.01
5515.49
4149.08
3677.65
3671.75
3670.23
3676.25
4578.13
5602.97
5177.47
4031.39
3681.15
3680.5
4309.66
5397.08
5613.02
5612.41
5405.09
5119.89
5166.74
5497.48
5613.09
5615.08
5629.66