/*--------------------------------*- C++ -*----------------------------------*\
| =========                 |                                                 |
| \\      /  F ield         | OpenFOAM: The Open Source CFD Toolbox           |
|  \\    /   O peration     | Version:  plus.master.MPPICInterFoam            |
|   \\  /    A nd           | Web:      www.OpenFOAM.com                      |
|    \\/     M anipulation  |                                                 |
\*---------------------------------------------------------------------------*/
FoamFile
{
    version     2.0;
    format      ascii;
    class       scalarField;
    location    "7.8/lagrangian/kinematicCloud";
    object      age;
}
// * * * * * * * * * * * * * * * * * * * * * * * * * * * * * * * * * * * * * //


2979
(
7.75663
7.67984
7.7318
7.57171
7.54156
7.45611
7.62376
7.69302
7.5232
7.79962
7.78975
7.68081
7.79195
7.70798
7.54533
7.75683
7.63995
7.71619
7.54484
7.60619
7.37038
7.64984
7.51785
7.6844
7.6535
7.72757
7.77049
7.71857
7.76485
7.48652
7.61826
7.54289
7.52417
7.57186
7.77898
7.71854
7.66732
7.60932
7.74335
7.71206
7.78169
7.49621
7.79808
7.71723
7.57156
7.78492
7.67256
7.7194
7.60848
7.51612
7.34678
7.77332
7.69344
7.71096
7.72029
7.57886
7.66879
7.39228
7.72433
7.69551
7.76504
7.76197
7.64008
7.66659
7.63926
7.75618
7.68837
7.61545
7.46799
7.79013
7.68685
7.53672
7.74367
7.79847
7.50267
7.67281
7.55323
7.74064
7.59766
7.70017
7.62064
7.71604
7.79124
7.79125
7.61034
7.68657
7.59243
7.5339
7.71247
7.71925
7.785
7.78815
7.66876
7.67843
7.45725
7.72474
7.63174
7.55015
7.68104
7.70995
7.73131
7.65908
7.67375
7.68863
7.76383
7.73699
7.67739
7.71824
7.63128
7.70592
7.63043
7.79903
7.49948
7.68833
7.7937
7.79145
7.56165
7.68842
7.7543
7.76651
7.72777
7.52003
7.60026
7.71774
7.57445
7.69991
7.79773
7.7903
7.76525
7.79102
7.78526
7.75616
7.73022
7.66374
7.33696
7.79885
7.77273
7.57152
7.6788
7.72772
7.77045
7.57344
7.63249
7.4346
7.71957
7.74378
7.7957
7.64547
7.77571
7.7777
7.71281
7.75002
7.66997
7.62976
7.38519
7.65029
7.57344
7.76991
7.75745
7.78772
7.77313
7.77209
7.62051
7.6204
7.79394
7.59814
7.75588
7.74695
7.59101
7.72314
7.64475
7.71871
7.57784
7.65905
7.76975
7.74727
7.59075
7.54413
7.60512
7.7577
7.78206
7.59538
7.60805
7.67083
7.60579
7.73819
7.78483
7.73299
7.41911
7.72738
7.71048
7.6711
7.70223
7.74262
7.74425
7.75301
7.67457
7.67422
7.66756
7.69015
7.63939
7.58251
7.79888
7.64447
7.77075
7.74739
7.79608
7.63918
7.36196
7.31528
7.68157
7.71936
7.59457
7.69168
7.4286
7.7184
7.69374
7.76407
7.78089
7.77665
7.71252
7.72588
7.65048
7.5641
7.57913
7.5495
7.77887
7.67866
7.75801
7.53206
7.79833
7.61039
7.67041
7.71754
7.67899
7.75046
7.50562
7.78357
7.78912
7.47477
7.59135
7.78228
7.58643
7.76268
7.78817
7.77036
7.78552
7.55318
7.33944
7.57957
7.29559
7.77979
7.64208
7.80013
7.76096
7.77171
7.75693
7.71004
7.67884
7.63938
7.71452
7.77757
7.65428
7.75132
7.6098
7.73679
7.60668
7.78075
7.74692
7.76848
7.5687
7.60994
7.52848
7.67969
7.78888
7.39119
7.49849
7.73011
7.45944
7.73711
7.69823
7.77778
7.53366
7.58107
7.62288
7.54423
7.56242
7.63697
7.71762
7.76542
7.40214
7.3256
7.60553
7.66949
7.53999
7.63289
7.41306
7.46855
7.69813
7.69212
7.49533
7.59082
7.78162
7.74457
7.68901
7.64919
7.41015
7.66627
7.70781
7.7989
7.78174
7.78113
7.44771
7.72264
7.72845
7.6949
7.43934
7.52404
7.65951
7.35508
7.48883
7.79367
7.55238
7.57865
7.67139
7.65131
7.71994
7.68266
7.68824
7.69926
7.75638
7.7478
7.67851
7.77666
7.29664
7.57206
7.78283
7.64857
7.53482
7.66047
7.55239
7.6409
7.58108
7.56657
7.67591
7.76513
7.41945
7.77061
7.70234
7.6198
7.43197
7.61066
7.71956
7.71807
7.62096
7.77106
7.54497
7.72763
7.74704
7.74871
7.74465
7.58114
7.42857
7.49949
7.73755
7.58288
7.63592
7.73753
7.4703
7.63944
7.76421
7.38118
7.55578
7.58005
7.66995
7.59191
7.75816
7.79937
7.65922
7.41457
7.76672
7.61726
7.79616
7.72017
7.63918
7.56196
7.70795
7.76996
7.61831
7.60982
7.62947
7.74325
7.75861
7.66109
7.47462
7.39287
7.7669
7.42861
7.79236
7.62075
7.49835
7.65939
7.72739
7.49675
7.75242
7.60008
7.50962
7.78495
7.68512
7.45757
7.77456
7.42579
7.53526
7.70999
7.79893
7.76918
7.65952
7.73738
7.75918
7.77968
7.56717
7.65421
7.46057
7.47638
7.72528
7.68623
7.69239
7.52423
7.66112
7.6981
7.77699
7.63313
7.62948
7.56812
7.66907
7.72139
7.5367
7.78029
7.66856
7.73837
7.78491
7.69827
7.70435
7.76656
7.66856
7.73975
7.76169
7.48493
7.76402
7.4585
7.7813
7.52519
7.72302
7.77613
7.61288
7.76389
7.73187
7.64007
7.61122
7.53898
7.72078
7.76518
7.76906
7.7781
7.74776
7.48981
7.54605
7.48578
7.55264
7.71336
7.75626
7.60022
7.33775
7.64897
7.57148
7.6098
7.7484
7.5289
7.3334
7.55521
7.72073
7.78947
7.52188
7.781
7.56654
7.74209
7.67207
7.78669
7.6098
7.34341
7.50816
7.78098
7.78996
7.7108
7.76432
7.63701
7.69151
7.41121
7.54436
7.59048
7.60044
7.63971
7.79908
7.6839
7.69746
7.71803
7.44774
7.41112
7.76394
7.77657
7.42512
7.78492
7.42069
7.70965
7.67073
7.79589
7.49898
7.73857
7.36298
7.78107
7.66775
7.63984
7.78607
7.67565
7.21906
7.34252
7.68519
7.52611
7.79374
7.41605
7.33635
7.57269
7.60302
7.46315
7.47629
7.78869
7.4773
7.71064
7.69419
7.58096
7.74992
7.76228
7.53128
7.52472
7.70773
7.3757
7.72979
7.72006
7.69987
7.40551
7.57706
7.5172
7.67937
7.46755
7.74388
7.77046
7.73156
7.73795
7.64898
7.51757
7.75621
7.74476
7.58376
7.7764
7.60982
7.73543
7.62743
7.61983
7.67232
7.69102
7.67393
7.7373
7.72768
7.68462
7.72317
7.38935
7.38478
7.53859
7.75505
7.68894
7.2294
7.65283
7.69906
7.58438
7.76389
7.66006
7.80021
7.78878
7.7598
7.78971
7.73536
7.80072
7.6184
7.71766
7.76435
7.75323
7.53377
7.43528
7.6686
7.42149
7.72816
7.72733
7.78491
7.6531
7.48272
7.66176
7.71013
7.47205
7.55581
7.77287
7.5299
7.79495
7.36411
7.67029
7.45776
7.79378
7.79391
7.60212
7.70037
7.63956
7.4286
7.6714
7.77902
7.591
7.67081
7.6349
7.45268
7.63998
7.65939
7.42894
7.79123
7.60471
7.79127
7.6
7.60025
7.51857
7.51829
7.43741
7.25016
7.7584
7.68449
7.74744
7.74087
7.60669
7.65802
7.7731
7.74767
7.27932
7.77675
7.50007
7.54549
7.49883
7.78089
7.60988
7.6884
7.73953
7.58522
7.63019
7.74739
7.66861
7.48655
7.59793
7.53333
7.7374
7.75256
7.68165
7.43165
7.79654
7.77776
7.61559
7.61166
7.62932
7.76743
7.56506
7.66875
7.76681
7.47516
7.50398
7.75845
7.72251
7.7287
7.71621
7.49649
7.70349
7.68871
7.79851
7.79183
7.78559
7.77146
7.363
7.76391
7.77662
7.7916
7.63666
7.67865
7.72614
7.6199
7.34344
7.77539
7.78849
7.39524
7.78179
7.70838
7.77378
7.67001
7.64299
7.59083
7.67324
7.77045
7.64712
7.61965
7.70775
7.63153
7.79546
7.64318
7.55377
7.75738
7.73416
7.28713
7.67886
7.63919
7.73414
7.43891
7.4381
7.6106
7.73765
7.71766
7.67943
7.64514
7.56129
7.78739
7.63818
7.55006
7.68362
7.54293
7.77306
7.55593
7.62476
7.78403
7.52383
7.64401
7.55294
7.63084
7.57189
7.6059
7.74693
7.6947
7.63067
7.47767
7.76931
7.48474
7.60911
7.55173
7.70596
7.57074
7.79383
7.46999
7.79739
7.58138
7.70433
7.4362
7.67844
7.74927
7.64505
7.50075
7.5862
7.79397
7.42333
7.79154
7.57017
7.78097
7.56423
7.65026
7.64684
7.79451
7.76474
7.72758
7.3347
7.76468
7.67034
7.74751
7.78675
7.57143
7.69921
7.63833
7.75032
7.65148
7.6982
7.58348
7.41039
7.41937
7.37184
7.40853
7.74691
7.58206
7.64902
7.79764
7.66597
7.58339
7.2788
7.752
7.59742
7.6416
7.24678
7.75195
7.60587
7.72421
7.57789
7.37846
7.78668
7.61259
7.65206
7.70987
7.67273
7.28202
7.76034
7.6005
7.52422
7.58046
7.59077
7.7709
7.74022
7.65174
7.68794
7.64992
7.54188
7.61758
7.68734
7.73722
7.31429
7.40123
7.76944
7.60043
7.78301
7.74988
7.72398
7.79461
7.62949
7.744
7.78834
7.70921
7.64168
7.34989
7.60007
7.73725
7.74045
7.7844
7.79027
7.30493
7.78984
7.67162
7.52649
7.53996
7.724
7.64986
7.498
7.72737
7.74068
7.68819
7.64644
7.79741
7.70112
7.74048
7.66421
7.61554
7.69914
7.59086
7.79427
7.58147
7.71416
7.50941
7.41522
7.50484
7.55568
7.66516
7.79144
7.78128
7.29904
7.31463
7.67066
7.61419
7.77614
7.54492
7.75096
7.7347
7.76394
7.636
7.6874
7.75734
7.75603
7.61393
7.63967
7.76606
7.6784
7.49817
7.7814
7.75624
7.78257
7.78837
7.74624
7.71159
7.77062
7.59072
7.73851
7.61066
7.70946
7.73721
7.71582
7.70386
7.61355
7.75913
7.66697
7.76538
7.65956
7.55323
7.67685
7.70111
7.66771
7.52404
7.62016
7.74561
7.74778
7.43881
7.7522
7.45717
7.58484
7.68041
7.58404
7.79955
7.71298
7.67911
7.75239
7.6826
7.77065
7.60061
7.78092
7.78554
7.62227
7.73948
7.42924
7.74035
7.76447
7.69736
7.64306
7.77232
7.6991
7.79125
7.72134
7.55342
7.79166
7.5868
7.66071
7.65278
7.65876
7.65876
7.7008
7.71753
7.64967
7.68008
7.72736
7.70115
7.70773
7.30601
7.66001
7.77644
7.69278
7.79133
7.58561
7.67044
7.52382
7.76605
7.75333
7.5596
7.597
7.48461
7.70153
7.75441
7.63972
7.49059
7.67196
7.75933
7.73179
7.78545
7.66525
7.6688
7.78451
7.68668
7.54205
7.77139
7.58129
7.38096
7.74715
7.78224
7.79135
7.27848
7.44789
7.65632
7.48713
7.51817
7.79848
7.75759
7.75669
7.70779
7.54292
7.69544
7.64957
7.7769
7.66484
7.59352
7.42435
7.79047
7.66719
7.74308
7.62067
7.79051
7.6342
7.64898
7.66155
7.69395
7.72402
7.79124
7.75668
7.56236
7.59568
7.6
7.77724
7.72309
7.77055
7.76442
7.68644
7.76325
7.69804
7.76644
7.61968
7.69803
7.73109
7.62498
7.45255
7.53082
7.62225
7.76366
7.66058
7.2842
7.6518
7.77634
7.62079
7.48095
7.54118
7.3537
7.62556
7.61962
7.6654
7.62975
7.60052
7.53221
7.73074
7.79142
7.6889
7.57145
7.56194
7.72297
7.58157
7.64033
7.67784
7.6053
7.64034
7.33334
7.73878
7.2796
7.69063
7.77621
7.7771
7.54287
7.72778
7.69817
7.68243
7.69175
7.65018
7.57133
7.35364
7.35249
7.69423
7.63935
7.40178
7.34441
7.79739
7.36223
7.58048
7.44418
7.73409
7.71782
7.50525
7.46816
7.6155
7.7793
7.69595
7.77308
7.56198
7.66201
7.62242
7.61751
7.80017
7.66875
7.61961
7.72262
7.75063
7.69796
7.67715
7.78243
7.79031
7.65944
7.74392
7.79894
7.73779
7.62149
7.70839
7.60355
7.70806
7.78336
7.71813
7.68815
7.48013
7.61769
7.57496
7.69362
7.71768
7.75417
7.55547
7.55615
7.67918
7.80019
7.76392
7.66909
7.70659
7.77622
7.76564
7.77027
7.75755
7.73719
7.77065
7.78044
7.57143
7.69194
7.66866
7.74707
7.75113
7.74139
7.71997
7.74767
7.67348
7.30032
7.71662
7.68974
7.51493
7.64897
7.36558
7.69972
7.59794
7.77281
7.76015
7.56618
7.51735
7.3728
7.45094
7.33416
7.71908
7.76162
7.36084
7.62217
7.70254
7.65241
7.61235
7.77132
7.65538
7.79377
7.7917
7.64296
7.56239
7.70534
7.748
7.4983
7.27685
7.75611
7.59102
7.43813
7.62322
7.61047
7.78834
7.55338
7.66001
7.76697
7.59667
7.66249
7.4762
7.41924
7.7481
7.77204
7.68356
7.79592
7.58823
7.65839
7.7779
7.73246
7.73827
7.79423
7.57389
7.57376
7.62939
7.58858
7.58149
7.45075
7.5056
7.74256
7.70177
7.7501
7.72967
7.75624
7.69132
7.69912
7.79081
7.65947
7.77714
7.67698
7.53529
7.71623
7.57658
7.64899
7.78264
7.80002
7.59422
7.79245
7.62671
7.64397
7.33712
7.78506
7.62077
7.67857
7.74694
7.77028
7.64933
7.78496
7.66808
7.49105
7.75247
7.67492
7.74899
7.72734
7.69251
7.29134
7.49782
7.6585
7.79995
7.76395
7.7842
7.61978
7.30386
7.55281
7.7741
7.73808
7.74691
7.42045
7.77677
7.50833
7.53386
7.8
7.72829
7.65767
7.7653
7.68717
7.72395
7.64898
7.64563
7.75079
7.64029
7.69254
7.50178
7.44783
7.79124
7.77651
7.71955
7.7711
7.7819
7.74808
7.41927
7.70778
7.66865
7.56399
7.75804
7.54286
7.42902
7.73406
7.79428
7.5696
7.7641
7.598
7.75617
7.42657
7.77674
7.70845
7.68957
7.24869
7.73977
7.58104
7.64131
7.70463
7.74883
7.64016
7.68867
7.78629
7.75678
7.67971
7.56336
7.75768
7.65528
7.78528
7.73767
7.52006
7.65435
7.36544
7.40367
7.48867
7.38331
7.68053
7.56902
7.65541
7.80001
7.72951
7.73009
7.58185
7.8
7.62011
7.67315
7.73716
7.76658
7.61959
7.68582
7.76648
7.76406
7.50509
7.47783
7.70917
7.72531
7.66963
7.58347
7.7372
7.75713
7.58362
7.79137
7.7639
7.51711
7.79456
7.53334
7.79197
7.56209
7.74698
7.79387
7.60765
7.75213
7.77647
7.68169
7.75992
7.59367
7.71484
7.76905
7.48509
7.79368
7.7894
7.72736
7.64799
7.75786
7.5911
7.69401
7.39953
7.58802
7.76099
7.57146
7.79431
7.79923
7.57214
7.78118
7.38201
7.40144
7.59223
7.4584
7.77191
7.43425
7.56316
7.59873
7.79571
7.66865
7.62529
7.79271
7.70818
7.47694
7.58753
7.60149
7.72648
7.56268
7.29848
7.67045
7.67277
7.67428
7.4673
7.60276
7.62943
7.78256
7.74539
7.74135
7.74947
7.29185
7.77621
7.76418
7.67855
7.72041
7.76463
7.61313
7.79583
7.7639
7.54914
7.73151
7.6614
7.40025
7.57273
7.71647
7.79415
7.66099
7.66082
7.70078
7.65891
7.52605
7.67237
7.7574
7.62014
7.72732
7.4477
7.64972
7.30697
7.74402
7.6784
7.67443
7.78092
7.43823
7.55239
7.79895
7.54296
7.67932
7.53374
7.63941
7.59049
7.69883
7.67331
7.48187
7.75361
7.51532
7.74697
7.79569
7.67843
7.70806
7.67002
7.55938
7.71494
7.5812
7.46673
7.75711
7.67887
7.7561
7.54596
7.79389
7.49016
7.79882
7.61087
7.7639
7.77742
7.75623
7.76047
7.73018
7.57268
7.70183
7.6
7.79235
7.41117
7.74338
7.39049
7.51938
7.79626
7.5352
7.68064
7.55953
7.47464
7.74006
7.64691
7.54014
7.63165
7.62835
7.59684
7.79132
7.75625
7.52385
7.75757
7.72757
7.52698
7.43904
7.70886
7.72673
7.38975
7.71042
7.78896
7.78856
7.77632
7.73402
7.71177
7.48828
7.63807
7.71065
7.35837
7.73752
7.65429
7.52355
7.79157
7.4579
7.74212
7.59176
7.51088
7.4774
7.73571
7.64113
7.77751
7.79571
7.70642
7.74599
7.59048
7.44766
7.72739
7.74054
7.75612
7.79064
7.62994
7.35688
7.56341
7.51395
7.29621
7.48585
7.41444
7.60301
7.58284
7.77192
7.65277
7.7178
7.8
7.65123
7.78835
7.7937
7.50933
7.56634
7.43927
7.60535
7.79653
7.51773
7.393
7.53167
7.4552
7.67429
7.79811
7.71192
7.4413
7.65251
7.73718
7.75868
7.57146
7.68815
7.66969
7.73979
7.69933
7.71893
7.6415
7.76391
7.58186
7.6793
7.55409
7.52726
7.75702
7.57814
7.70655
7.68843
7.71752
7.44069
7.76979
7.6684
7.7967
7.343
7.68883
7.47619
7.46157
7.46125
7.38534
7.65562
7.78628
7.77525
7.62636
7.70019
7.65779
7.69417
7.75996
7.44071
7.76285
7.79378
7.45829
7.71262
7.68854
7.4291
7.59052
7.47846
7.66912
7.5732
7.65222
7.77856
7.70409
7.72149
7.6133
7.56209
7.69778
7.45825
7.6003
7.63843
7.67578
7.73213
7.68086
7.74804
7.7646
7.45476
7.39048
7.66533
7.67251
7.70141
7.47794
7.78504
7.60005
7.73412
7.72007
7.74696
7.6736
7.67946
7.73576
7.76273
7.5256
7.74732
7.63922
7.6596
7.76067
7.78091
7.702
7.59151
7.62066
7.79191
7.77282
7.51296
7.78836
7.79945
7.72085
7.76218
7.7982
7.76569
7.7705
7.6314
7.49868
7.77127
7.64999
7.77078
7.78604
7.60055
7.53612
7.50025
7.79164
7.77626
7.39438
7.67367
7.78893
7.64932
7.37304
7.78137
7.75818
7.7072
7.72835
7.62012
7.77105
7.64815
7.79739
7.78161
7.79227
7.41027
7.77091
7.56575
7.68896
7.7562
7.75959
7.6476
7.72759
7.61232
7.72657
7.77973
7.76788
7.68065
7.75191
7.50285
7.63402
7.71453
7.79129
7.47777
7.77829
7.47014
7.80089
7.70816
7.77623
7.6237
7.77667
7.76385
7.6592
7.70369
7.48869
7.53333
7.77649
7.70276
7.75609
7.65827
7.43923
7.41376
7.70816
7.63927
7.67958
7.70894
7.79131
7.59488
7.56191
7.54478
7.74747
7.7401
7.76189
7.75145
7.52944
7.56043
7.76401
7.63932
7.76615
7.78265
7.69845
7.69409
7.77647
7.79129
7.61255
7.53386
7.64729
7.63942
7.70548
7.75815
7.58097
7.39048
7.61113
7.65166
7.75676
7.6364
7.76499
7.57143
7.79058
7.55271
7.79896
7.6498
7.62114
7.57051
7.66568
7.62965
7.63049
7.47736
7.43844
7.77077
7.50736
7.37154
7.7644
7.50396
7.78002
7.5449
7.74792
7.68616
7.46105
7.66877
7.64618
7.75699
7.65762
7.53446
7.7471
7.76731
7.65145
7.79743
7.70773
7.75622
7.60863
7.73747
7.75975
7.77087
7.55239
7.54019
7.75578
7.59053
7.6037
7.63256
7.76005
7.71755
7.69263
7.69794
7.79946
7.68142
7.33888
7.79435
7.68257
7.60004
7.64903
7.74762
7.7561
7.56863
7.60663
7.58127
7.70799
7.75654
7.34526
7.74692
7.62571
7.74559
7.74081
7.71012
7.70776
7.73868
7.63829
7.24173
7.7276
7.62193
7.50555
7.79369
7.3775
7.77071
7.63876
7.52382
7.77169
7.57931
7.43324
7.66963
7.56345
7.79167
7.70419
7.69958
7.75911
7.74667
7.59574
7.57839
7.71684
7.77082
7.60416
7.65999
7.41141
7.58297
7.68099
7.72746
7.72599
7.66445
7.60286
7.68209
7.58952
7.7767
7.78841
7.7561
7.69799
7.77076
7.75453
7.72881
7.649
7.64794
7.71006
7.78095
7.55391
7.72245
7.73144
7.7337
7.66383
7.5365
7.65218
7.63949
7.67915
7.65897
7.28717
7.24222
7.68138
7.58054
7.61714
7.34221
7.55222
7.78435
7.65591
7.75855
7.74799
7.48925
7.77045
7.70816
7.6705
7.557
7.75715
7.72904
7.76464
7.50296
7.543
7.76998
7.73966
7.69442
7.60237
7.77229
7.70269
7.74072
7.52788
7.72813
7.68942
7.77417
7.73296
7.76953
7.76716
7.5729
7.72724
7.61966
7.79025
7.55768
7.58263
7.62281
7.61033
7.60092
7.62975
7.72744
7.74177
7.64035
7.75969
7.77794
7.76865
7.76077
7.77054
7.56899
7.60197
7.78877
7.71778
7.78943
7.68858
7.58489
7.60002
7.71752
7.63922
7.70888
7.50299
7.7244
7.66261
7.7646
7.61813
7.24821
7.46965
7.52176
7.40026
7.79063
7.77278
7.75829
7.64723
7.53635
7.64937
7.46667
7.69297
7.70821
7.71944
7.71331
7.67807
7.63143
7.72789
7.5732
7.7471
7.67208
7.76884
7.72994
7.73738
7.68139
7.76758
7.64902
7.66226
7.75819
7.48971
7.79928
7.58314
7.79217
7.33431
7.77034
7.70997
7.38191
7.78211
7.50483
7.70132
7.72418
7.75067
7.51986
7.67823
7.66858
7.76416
7.73455
7.78953
7.72582
7.60803
7.53091
7.63452
7.7855
7.52237
7.71885
7.75787
7.49534
7.45836
7.72004
7.34398
7.4213
7.57985
7.75066
7.77174
7.78106
7.6863
7.62941
7.72796
7.26077
7.72008
7.75925
7.591
7.66929
7.69108
7.76967
7.75839
7.74691
7.43812
7.76315
7.79178
7.73783
7.73046
7.74199
7.64784
7.46915
7.4803
7.75322
7.8007
7.73133
7.75176
7.74721
7.76903
7.79881
7.49686
7.67841
7.48683
7.6675
7.54288
7.77451
7.5435
7.74721
7.29674
7.65051
7.77631
7.57317
7.77628
7.71797
7.52558
7.64779
7.77686
7.59838
7.70745
7.77092
7.71092
7.50556
7.796
7.42675
7.4865
7.7977
7.53868
7.62055
7.57216
7.68895
7.75929
7.60979
7.53781
7.72371
7.67974
7.71627
7.45552
7.68319
7.67838
7.61408
7.51474
7.64903
7.43776
7.73693
7.54768
7.79798
7.53689
7.76251
7.7572
7.77068
7.60096
7.59334
7.80001
7.75685
7.57197
7.47619
7.71952
7.65282
7.73902
7.68847
7.54752
7.40016
7.79134
7.64991
7.42111
7.69848
7.78445
7.66519
7.55275
7.57519
7.65099
7.58155
7.60842
7.55247
7.76013
7.60046
7.51429
7.75429
7.6802
7.77546
7.34426
7.69808
7.76498
7.64178
7.5708
7.63002
7.51456
7.63892
7.35705
7.68111
7.78379
7.75645
7.70845
7.38293
7.51815
7.64928
7.78272
7.73183
7.56474
7.49273
7.5947
7.79739
7.71447
7.62939
7.71465
7.55266
7.41564
7.75469
7.66129
7.44931
7.77419
7.46809
7.7652
7.6022
7.49641
7.65886
7.66004
7.76622
7.79343
7.24835
7.31453
7.57764
7.67886
7.62081
7.43533
7.64879
7.21913
7.65153
7.78906
7.70258
7.63963
7.79782
7.7778
7.32458
7.54684
7.53131
7.78866
7.69711
7.66113
7.63917
7.59252
7.44788
7.56344
7.68874
7.79134
7.74901
7.67847
7.64019
7.68648
7.73773
7.66192
7.72024
7.41923
7.77416
7.56126
7.66057
7.66146
7.50526
7.38143
7.7084
7.71518
7.76184
7.62221
7.68839
7.7974
7.72261
7.75589
7.7004
7.70077
7.73274
7.49393
7.59127
7.71666
7.56613
7.76652
7.45937
7.78843
7.78991
7.51918
7.58261
7.73639
7.79365
7.78151
7.48685
7.73111
7.73755
7.31515
7.63934
7.62274
7.7672
7.7806
7.55255
7.70156
7.48576
7.60019
7.77234
7.79744
7.76241
7.71615
7.66004
7.74702
7.44917
7.75724
7.35978
7.7204
7.55403
7.61086
7.70833
7.36233
7.78134
7.37266
7.57179
7.70587
7.7325
7.73003
7.66858
7.7941
7.78222
7.52994
7.72549
7.75153
7.75264
7.76729
7.70774
7.51443
7.42907
7.6828
7.45328
7.80031
7.62133
7.74827
7.68652
7.61058
7.78285
7.79204
7.62943
7.79156
7.68861
7.72941
7.63918
7.77135
7.54811
7.78438
7.31626
7.67503
7.49861
7.63387
7.76411
7.79743
7.43199
7.69082
7.73007
7.76445
7.65399
7.71964
7.4748
7.78541
7.79308
7.70182
7.78703
7.7168
7.50575
7.62938
7.59185
7.73713
7.75045
7.61967
7.78187
7.42788
7.76665
7.64091
7.23858
7.78741
7.48581
7.79194
7.72631
7.71472
7.5741
7.75617
7.78258
7.73322
7.69054
7.60799
7.61073
7.65357
7.76495
7.63026
7.53446
7.67327
7.79749
7.49583
7.41441
7.71543
7.76753
7.78447
7.5925
7.61949
7.61046
7.70674
7.38825
7.25771
7.68548
7.67008
7.49535
7.66926
7.46761
7.32433
7.65877
7.78502
7.76519
7.76834
7.79631
7.40028
7.60372
7.74001
7.51449
7.7762
7.67908
7.38299
7.70822
7.77611
7.49404
7.75622
7.5152
7.51531
7.6588
7.53501
7.73319
7.74773
7.60622
7.65333
7.6742
7.72734
7.68815
7.79409
7.71032
7.75641
7.71181
7.61052
7.45891
7.60121
7.65232
7.75364
7.7376
7.74932
7.5833
7.57166
7.76399
7.70812
7.56271
7.76391
7.78097
7.69406
7.78177
7.79599
7.56354
7.62202
7.66648
7.54419
7.79492
7.45828
7.62525
7.58128
7.38095
7.47047
7.76721
7.52868
7.66869
7.62093
7.66233
7.5489
7.52569
7.71787
7.68238
7.75363
7.73101
7.7437
7.62949
7.70222
7.56192
7.73872
7.61945
7.53632
7.6006
7.35483
7.75437
7.7995
7.77831
7.40232
7.60645
7.68965
7.69839
7.69292
7.50487
7.64088
7.73917
7.46122
7.48771
7.57253
7.51522
7.67505
7.70408
7.79209
7.74643
7.55445
7.47113
7.76924
7.79746
7.66275
7.76791
7.65185
7.74881
7.60915
7.71937
7.78963
7.5426
7.60053
7.72379
7.50732
7.48596
7.78123
7.71981
7.7241
7.76496
7.74768
7.74486
7.6392
7.64435
7.7457
7.69792
7.79159
7.75439
7.71753
7.71301
7.79291
7.54969
7.49528
7.32515
7.54287
7.34166
7.63504
7.53391
7.68914
7.77647
7.6683
7.76554
7.7909
7.78303
7.73711
7.75619
7.62942
7.45636
7.66087
7.66773
7.73277
7.56799
7.68878
7.48574
7.77177
7.66072
7.58805
7.5221
7.63302
7.54071
7.58278
7.75717
7.67838
7.46833
7.76396
7.79739
7.6232
7.64387
7.32276
7.65118
7.7181
7.72235
7.67137
7.67854
7.38222
7.77152
7.74944
7.42874
7.57143
7.61375
7.71773
7.78549
7.73713
7.70776
7.71664
7.76477
7.47893
7.50768
7.67844
7.755
7.65878
7.53434
7.75778
7.7914
7.50476
7.64916
7.52345
7.74867
7.70543
7.78491
7.65106
7.49535
7.8001
7.48624
7.66024
7.76869
7.70818
7.37899
7.54955
7.7622
7.3921
7.75494
7.5716
7.7749
7.3082
7.68011
7.60006
7.72893
7.63001
7.74055
7.64014
7.62598
7.633
7.7971
7.76233
7.64583
7.74462
7.76887
7.64294
7.54016
7.62581
7.69539
7.59308
7.7825
7.79665
7.64036
7.75156
7.77781
7.7278
7.77056
7.70855
7.5318
7.7575
7.3735
7.57588
7.29968
7.27548
7.67836
7.78098
7.73071
7.73328
7.69047
7.76507
7.68707
7.66254
7.4191
7.72397
7.63261
7.50502
7.24001
7.69287
7.6407
7.76392
7.69294
7.63919
7.67925
7.74437
7.74126
7.58129
7.70091
7.77613
7.62049
7.79828
7.51518
7.4131
7.43361
7.37911
7.65041
7.33417
7.44752
7.75597
7.49608
7.76888
7.50747
7.57393
7.45715
7.76511
7.67056
7.74279
7.72965
7.79406
7.76692
7.57076
7.41913
7.72735
7.54991
7.79369
7.50498
7.71783
7.67713
7.79884
7.78153
7.63032
7.79547
7.77758
7.41717
7.74554
7.51431
7.49249
7.71805
7.65376
7.52761
7.37354
7.51018
7.54681
7.63522
7.40117
7.669
7.73712
7.4193
7.70833
7.80009
7.48824
7.75896
7.68553
7.78154
7.6893
7.78806
7.59423
7.55425
7.70693
7.73754
7.60231
7.66209
7.70998
7.74731
7.62127
7.6895
7.70794
7.70345
7.62805
7.70865
7.77148
7.68823
7.77643
7.56566
7.72045
7.60615
7.74703
7.68425
7.46703
7.60008
7.75092
7.63019
7.66121
7.77834
7.71857
7.4371
7.7442
7.76167
7.69817
7.77096
7.76578
7.64853
7.69081
7.23184
7.62592
7.77056
7.71527
7.42973
7.65599
7.74409
7.71088
7.5544
7.79166
7.42862
7.79365
7.63419
7.77614
7.55446
7.77617
7.3678
7.45376
7.68814
7.73713
7.70801
7.78129
7.72735
7.78839
7.64899
7.66728
7.54292
7.77745
7.65637
7.38541
7.79367
7.52936
7.52799
7.79208
7.78659
7.70812
7.77739
7.77105
7.73541
7.79988
7.65878
7.4762
7.48572
7.65927
7.72999
7.594
7.67963
7.64849
7.62156
7.63958
7.64361
7.60872
7.58352
7.75804
7.5829
7.37709
7.62305
7.55498
7.6665
7.37202
7.42928
7.61341
7.79921
7.64523
7.64929
7.79935
7.3716
7.77045
7.78554
7.59557
7.76437
7.46674
7.62952
7.65879
7.43407
7.67268
7.55325
7.77688
7.69948
7.59052
7.78959
7.77697
7.61154
7.73759
7.71754
7.75756
7.73104
7.58354
7.77906
7.6686
7.70938
7.60154
7.73742
7.4023
7.64017
7.46293
7.5823
7.44941
7.7662
7.52512
7.31456
7.52427
7.54573
7.6205
7.59331
7.79526
7.72862
7.65876
7.77853
7.58231
7.581
7.30602
7.56386
7.50042
7.60752
7.42952
7.30417
7.69829
7.71983
7.7885
7.59912
7.6978
7.79125
7.54828
7.79594
7.53752
7.54332
7.52165
7.7962
7.46349
7.78762
7.76422
7.74007
7.52397
7.5895
7.23277
7.71067
7.46554
7.69805
7.68496
7.68939
7.36838
7.74026
7.75642
7.7088
7.61237
7.60984
7.63934
7.77663
7.76459
7.63521
7.79131
7.74863
7.68847
7.53398
7.6694
7.64345
7.44966
7.6301
7.56215
7.77627
7.75062
7.79155
7.78153
7.76217
7.6766
7.70777
7.72706
7.60749
7.58208
7.80016
7.70085
7.68366
7.63171
7.73042
7.76708
7.4517
7.76413
7.76831
7.64595
7.69653
7.52403
7.74276
7.65971
7.79365
7.67175
7.75762
7.31864
7.04071
7.3675
7.34054
7.67836
7.08096
7.49208
7.3977
7.58785
7.22637
7.69816
7.61105
7.72877
7.7473
7.79745
7.73054
7.44526
7.29167
7.70797
7.32734
7.28009
7.0816
7.16
7.09193
7.44295
6.91694
7.77696
7.79395
7.80102
7.04
7.77658
7.47413
7.51009
7.03956
7.42419
7.49533
7.79153
7.77822
7.66567
7.7884
7.32643
7.4727
7.60475
7.32863
7.68994
7.7254
7.78149
7.3108
7.5086
7.50392
7.4339
7.73711
7.11428
7.48304
7.74879
7.13702
7.06077
6.97235
7.79948
6.91234
7.35423
7.52815
7.27623
7.36882
7.49959
6.89367
7.7089
7.41203
7.68466
6.94162
7.64903
7.4765
7.00454
7.50571
7.04769
)


// ************************************************************************* //
