/*--------------------------------*- C++ -*----------------------------------*\
| =========                 |                                                 |
| \\      /  F ield         | OpenFOAM: The Open Source CFD Toolbox           |
|  \\    /   O peration     | Version:  plus.master.MPPICInterFoam            |
|   \\  /    A nd           | Web:      www.OpenFOAM.com                      |
|    \\/     M anipulation  |                                                 |
\*---------------------------------------------------------------------------*/
FoamFile
{
    version     2.0;
    format      ascii;
    class       vectorField;
    location    "5.4/lagrangian/kinematicCloud";
    object      UCorrect;
}
// * * * * * * * * * * * * * * * * * * * * * * * * * * * * * * * * * * * * * //


239
(
(8.93171e-19 -4.35655e-19 -8.26985e-19)
(9.1174e-19 9.57155e-20 1.99848e-19)
(-1.23003e-20 -1.76015e-18 -1.94351e-19)
(5.70661e-21 8.97473e-19 4.25227e-19)
(-5.70661e-21 -2.63727e-18 -4.25227e-19)
(-1.14442e-18 2.42497e-19 -1.22885e-18)
(-6.12543e-11 0.00119332 0.000404796)
(-0.000307509 -0.000189647 -0.000316635)
(-6.12543e-11 4.59684e-05 0.000246879)
(-8.93765e-05 -0.00013986 -0.000192461)
(-1.60975e-06 -2.02449e-06 -1.41368e-09)
(-1.60975e-06 -2.02449e-06 -1.3868e-09)
(4.71071e-07 -8.33166e-07 -0.00177944)
(-8.24073e-06 -2.82158e-06 -0.00130453)
(-5.27465e-06 -4.49776e-06 -2.2496e-09)
(-6.12543e-11 4.59684e-05 5.80873e-05)
(-2.8966e-06 -1.17552e-06 -0.000823482)
(-5.02949e-06 -2.87644e-06 -0.000823482)
(4.71071e-07 -8.33166e-07 -0.00172388)
(-6.98615e-07 5.77314e-07 -0.00109495)
(-6.98615e-07 5.77314e-07 -0.00114328)
(-3.20414e-06 -4.02379e-06 -8.66771e-10)
(-4.76119e-06 -2.66248e-06 -0.000823482)
(-1.41753e-06 -3.95918e-06 -0.000664273)
(-9.15798e-06 -3.03093e-06 -0.00130453)
(-1.93132e-06 -4.60344e-06 -0.000664273)
(-2.61834e-06 -2.37942e-06 -3.52991e-09)
(-5.28874e-06 -4.50899e-06 -2.2496e-09)
(-3.89101e-06 -1.96854e-06 -0.000823482)
(-2.83227e-05 -0.000125924 -0.000192461)
(-1.76447e-06 -4.39422e-06 -0.000664273)
(-1.37202e-05 -4.07224e-06 -0.00130453)
(2.32863e-06 7.38357e-07 -0.000664273)
(-1.98237e-06 -4.66747e-06 -0.000664273)
(-4.88316e-06 -4.18555e-06 -2.2496e-09)
(-2.14271e-06 -4.86853e-06 -0.000664273)
(-5.49661e-06 -3.24896e-06 -0.000823482)
(-2.90479e-06 -3.64842e-06 -8.66771e-10)
(3.80403e-12 -1.4631e-09 -6.45546e-07)
(2.03348e-06 3.68257e-07 -0.000664273)
(-8.61346e-08 -3.51669e-08 -0.000823482)
(-1.73766e-06 -4.36061e-06 -0.000664273)
(-4.29569e-06 -2.29126e-06 -0.000823482)
(-1.1894e-05 -3.65542e-06 -0.00130453)
(-1.86722e-07 6.542e-08 -0.000823482)
(-2.72848e-06 -3.42733e-06 -8.66771e-10)
(-3.28454e-06 -4.12461e-06 -8.66771e-10)
(-4.50879e-06 -3.887e-06 -2.2496e-09)
(-2.17825e-07 -2.45479e-06 -0.000664273)
(-1.74647e-06 -4.37165e-06 -0.000664273)
(3.32176e-07 3.99564e-07 -0.00130453)
(-6.21863e-05 -0.000133654 -0.000192461)
(-5.74501e-06 -3.44705e-06 -0.000823482)
(-0.000193387 -0.000163599 -0.000192461)
(-3.21365e-07 2.17116e-06 -0.000685288)
(-1.01343e-06 -3.45245e-06 -0.000664273)
(-6.98615e-07 5.77314e-07 -0.000940206)
(-1.39131e-05 -4.11626e-06 -0.00130453)
(1.15337e-06 -1.09108e-06 -0.000664273)
(7.02698e-06 6.63177e-07 -0.00130453)
(-1.21923e-05 -3.72349e-06 -0.00130453)
(1.99348e-07 1.57844e-06 -0.00130453)
(-1.20754e-06 1.38726e-06 -0.000823482)
(-3.23333e-07 2.15369e-06 -0.000685288)
(-3.07125e-06 -3.85715e-06 -8.66771e-10)
(-2.52715e-07 2.78044e-06 -0.000685288)
(-2.14562e-06 -4.87217e-06 -0.000664273)
(-2.7539e-07 2.5792e-06 -0.000685288)
(-3.03625e-06 -3.81326e-06 -8.66771e-10)
(-1.32751e-05 -3.97064e-06 -0.00130453)
(-3.23887e-07 2.14877e-06 -0.000685288)
(-1.18438e-06 1.3504e-06 -0.000823482)
(1.57917e-07 1.94616e-06 -0.00130453)
(-2.94111e-06 2.8999e-06 -0.000685288)
(4.98048e-06 -0.000118323 -0.000192461)
(-4.78577e-07 -2.78177e-06 -0.000664273)
(2.71653e-07 9.36722e-07 -0.00130453)
(1.60489e-05 2.72237e-06 -0.00130453)
(-2.7915e-06 -3.50635e-06 -8.66771e-10)
(-5.72421e-06 -0.000120766 -0.000192461)
(-0.000316295 -0.000111662 -0.000192461)
(-5.49396e-06 -2.3067e-07 -5.69308e-06)
(-6.20234e-06 2.49422e-06 -0.00015946)
(-1.16088e-05 -3.59033e-06 -0.00130453)
(-0.000108553 -0.000144236 -0.000192461)
(-0.000106449 -0.000143756 -0.000192461)
(4.96865e-06 3.96239e-06 -3.75991e-06)
(-3.30167e-07 2.09304e-06 -0.000685288)
(-6.21009e-06 2.47207e-06 -0.000126576)
(2.20112e-06 2.8999e-06 -0.000685288)
(-3.08022e-07 2.28958e-06 -0.000685288)
(-5.08394e-06 -2.91987e-06 -0.000823482)
(5.45095e-06 -4.0691e-07 -4.42693e-06)
(-6.21009e-06 2.47207e-06 -0.000121578)
(1.19711e-06 -1.11856e-06 -0.000664273)
(-4.50056e-06 2.8999e-06 -0.000685288)
(-3.38143e-05 -1.8198e-05 -0.000102484)
(-3.50655e-07 1.9112e-06 -0.000685288)
(1.13421e-05 1.64808e-06 -0.00130453)
(-0.000542212 -0.000243216 -0.000192461)
(-3.51968e-05 -1.88638e-05 -0.000102484)
(-6.85927e-05 -3.49464e-05 -0.000102484)
(1.58649e-05 3.62104e-06 -5.86432e-06)
(-3.57203e-07 1.85309e-06 -0.000685288)
(-0.000158594 -7.82886e-05 -7.23109e-05)
(-0.000158594 -7.82886e-05 -7.13391e-05)
(-6.20077e-06 2.4987e-06 -0.00015946)
(-5.06758e-05 -0.000131026 -0.000192461)
(0.000772399 3.4881e-06 -0.000454772)
(-6.21009e-06 2.47207e-06 -0.000107884)
(-6.48058e-05 -3.31227e-05 -0.000102484)
(-5.9789e-06 -2.30533e-06 -0.00130453)
(-3.5214e-06 2.8999e-06 -0.000685288)
(6.31704e-06 5.01138e-07 -0.00130453)
(-0.000161343 -7.04322e-05 -0.000102484)
(-8.19083e-06 -2.81019e-06 -0.00130453)
(-5.43266e-06 2.8999e-06 -0.000685288)
(-8.89129e-05 -0.000139754 -0.000192461)
(0.000197757 -4.51427e-05 -0.000454772)
(0.000752649 -0.000171793 -0.000366178)
(0.000782049 8.91343e-05 -0.000454772)
(-6.21009e-06 2.47207e-06 -9.52314e-05)
(3.46967e-06 3.90141e-06 -0.000823482)
(1.23913e-06 -3.02816e-06 -0.00130453)
(3.24258e-07 -1.29521e-06 -2.50747e-05)
(-4.7679e-06 -2.3067e-07 -5.69308e-06)
(-5.1512e-05 -2.67208e-05 -0.000102484)
(-5.76856e-06 -3.46583e-06 -0.000823482)
(-4.35387e-06 -3.76346e-06 -2.2496e-09)
(4.71071e-07 -8.33166e-07 -0.00067218)
(-8.92361e-06 -2.97744e-06 -0.00130453)
(0.0013226 -0.00030188 -0.000454772)
(0.00117226 -0.000267566 -0.000454772)
(3.68942e-12 -3.72731e-05 9.70162e-13)
(-6.21009e-06 2.47207e-06 -8.43479e-05)
(-0.000174777 -0.000159352 -0.000192461)
(-5.22187e-06 -4.45566e-06 -2.2496e-09)
(0.000348038 -7.94434e-05 -0.000454772)
(0.000285335 -6.51319e-05 -0.000454772)
(-2.83278e-08 3.55987e-06 -6.58742e-06)
(1.13591e-06 5.01978e-06 -4.06606e-06)
(4.92969e-06 5.06574e-06 -0.000823482)
(5.2913e-06 2.8999e-06 -0.000685288)
(-0.000162382 -6.74637e-05 -0.000102484)
(-6.98615e-07 5.77314e-07 -0.000421845)
(0.000313517 -7.15641e-05 -0.000454772)
(9.30639e-11 1.63257e-06 9.8176e-12)
(3.68942e-12 -3.36298e-05 9.70162e-13)
(-1.33736e-06 1.59387e-06 -0.000823482)
(-1.73263e-05 -1.02578e-05 -0.000102484)
(-1.21379e-05 -3.71109e-06 -0.00130453)
(-1.29934e-05 -3.90634e-06 -0.00130453)
(4.71071e-07 -8.33166e-07 -0.000659816)
(0.000752649 -0.000171793 -0.000261789)
(3.24258e-07 -1.29521e-06 -2.8401e-05)
(0.000204704 -4.67282e-05 -0.000454772)
(-5.26385e-18 1.49477e-17 -4.14155e-19)
(-8.5693e-07 -9.88696e-07 -5.54748e-06)
(-0.000158594 -7.82886e-05 -4.51991e-05)
(9.43138e-08 2.51065e-06 -0.00130453)
(4.71071e-07 -8.33166e-07 -0.000542848)
(4.71071e-07 -8.33166e-07 -0.000604741)
(-0.00037107 8.5749e-05 -0.00015946)
(0.000752649 -0.000171793 -0.000279431)
(0.000752649 -0.000171793 -0.00026397)
(7.2332e-08 1.68405e-07 -6.29255e-06)
(4.71071e-07 -8.33166e-07 -0.000529857)
(9.64395e-07 -9.72337e-07 -0.000274349)
(-0.000307509 -0.000189647 -9.09652e-05)
(0.000175109 -3.99734e-05 -0.000454772)
(0.000161886 -3.69553e-05 -0.000454772)
(0.00136545 -0.000311661 -0.000454772)
(1.21026e-08 8.21961e-09 4.48609e-08)
(-6.21009e-06 2.47207e-06 -6.21461e-05)
(-6.21009e-06 2.47207e-06 -5.53671e-05)
(-1.29237e-05 -3.89043e-06 -0.00130453)
(4.71071e-07 -8.33166e-07 -0.00051395)
(-5.23764e-06 -2.3067e-07 -5.69308e-06)
(3.24258e-07 -1.29521e-06 -2.9613e-05)
(0.000796931 0.000221217 -0.000454772)
(-3.00486e-06 -5.35365e-07 -1.86069e-05)
(0.000536101 -0.000121307 -0.00015946)
(-6.18757e-06 2.53644e-06 -0.00015946)
(-6.21009e-06 2.47207e-06 -5.59333e-05)
(-2.11555e-06 -4.83447e-06 -0.000664273)
(-2.39256e-07 2.8999e-06 -0.000235341)
(-4.50005e-06 2.8999e-06 -0.000685288)
(-3.30032e-06 -4.67928e-07 -1.86069e-05)
(-1.31142e-05 -3.93392e-06 -0.00130453)
(-6.98615e-07 5.77314e-07 -0.000232332)
(-0.000307509 -0.000189647 -7.2251e-05)
(3.24258e-07 -1.29521e-06 -3.10397e-05)
(-2.21605e-06 -7.15405e-07 -1.86069e-05)
(-3.52143e-06 -4.55854e-06 -2.26544e-05)
(2.78955e-07 1.34296e-07 -4.39844e-06)
(7.2332e-08 1.68405e-07 -6.8102e-06)
(4.71071e-07 -8.33166e-07 -0.000385228)
(4.88348e-06 -0.000118345 -0.000192461)
(4.71071e-07 -8.33166e-07 -0.000361541)
(4.71071e-07 -8.33166e-07 -0.000321482)
(3.24258e-07 -1.29521e-06 -3.09519e-05)
(2.89167e-06 -4.0691e-07 -7.9803e-06)
(-4.75394e-06 -2.3067e-07 -5.69308e-06)
(-6.98615e-07 5.77314e-07 -0.000226499)
(-4.70397e-06 2.8999e-06 -0.000685288)
(0.000752649 -0.000171793 -0.000138737)
(9.64395e-07 -9.72337e-07 -0.000132162)
(2.89167e-06 -4.0691e-07 -8.06183e-06)
(-2.9202e-06 -5.54688e-07 -1.86069e-05)
(0.000752649 -0.000171793 -0.000125173)
(-3.56186e-07 1.86211e-06 -0.000685288)
(3.03957e-06 2.424e-06 -6.91372e-06)
(3.03957e-06 2.424e-06 -7.19771e-06)
(5.57337e-06 -4.0691e-07 -4.42693e-06)
(2.78955e-07 1.34296e-07 -4.65069e-06)
(-0.000158594 -7.82886e-05 -1.96701e-05)
(9.64395e-07 -9.72337e-07 -7.92337e-05)
(1.55826e-05 2.61593e-06 -0.00130453)
(-2.39256e-07 2.8999e-06 -9.26e-05)
(-0.000158594 -7.82886e-05 -1.57405e-05)
(-6.98615e-07 5.77314e-07 -8.99259e-05)
(-0.000307509 -0.000189647 -2.2101e-05)
(4.71071e-07 -8.33166e-07 -0.00012609)
(9.64395e-07 -9.72337e-07 -6.40743e-05)
(9.64395e-07 -9.72337e-07 -6.10835e-05)
(3.24258e-07 -1.29521e-06 -3.5466e-05)
(3.24258e-07 -1.29521e-06 -3.50471e-05)
(0.000752649 -0.000171793 -4.7046e-05)
(4.91887e-05 -1.12329e-05 -0.000454772)
(0.000752649 -0.000171793 -6.08745e-05)
(-3.52143e-06 -4.55854e-06 -2.57806e-05)
(1.59861e-05 2.70803e-06 -0.00130453)
(-0.000307509 -0.000189647 -1.27129e-05)
(9.64395e-07 -9.72337e-07 -3.11201e-05)
(3.24258e-07 -1.29521e-06 -3.63434e-05)
(-3.52143e-06 -4.55854e-06 -2.61195e-05)
(8.60867e-06 1.96486e-06 -1.15871e-05)
(4.71071e-07 -8.33166e-07 -3.69258e-05)
(-2.39256e-07 2.8999e-06 -3.03793e-05)
)


// ************************************************************************* //
