/*--------------------------------*- C++ -*----------------------------------*\
| =========                 |                                                 |
| \\      /  F ield         | OpenFOAM: The Open Source CFD Toolbox           |
|  \\    /   O peration     | Version:  plus.master.MPPICInterFoam            |
|   \\  /    A nd           | Web:      www.OpenFOAM.com                      |
|    \\/     M anipulation  |                                                 |
\*---------------------------------------------------------------------------*/
FoamFile
{
    version     2.0;
    format      ascii;
    class       volScalarField;
    location    "3.4";
    object      alpha.water;
}
// * * * * * * * * * * * * * * * * * * * * * * * * * * * * * * * * * * * * * //

dimensions      [0 0 0 0 0 0 0];

internalField   nonuniform List<scalar> 
11822
(
0.999985
0.997869
0.990826
0.999874
0.99952
0.996141
0.984943
0.852354
0.560972
0.495121
0.675194
0.965609
0.999996
0.998286
0.37642
0.13922
0.136612
0.180503
0.80782
0.999964
0.999977
0.212172
0.13641
0.136543
0.136633
0.692046
0.999241
0.993277
0.353876
0.13969
0.136636
0.216514
0.826343
0.991565
0.969377
0.830705
0.523799
0.446659
0.730695
0.961651
0.947434
0.982217
0.999072
0.983311
0.965348
0.980067
0.937207
0.942427
0.998096
0.99999
0.999959
0.999741
0.999664
0.99916
0.989306
0.985465
0.929843
0.77537
0.733612
0.876057
0.993662
0.999419
0.992592
0.589915
0.199948
0.174908
0.461049
0.958145
0.999951
0.999829
0.359794
0.136543
0.136635
0.299447
0.917816
0.999898
0.99562
0.563809
0.163112
0.144208
0.5195
0.968476
0.983068
0.99366
0.944758
0.799978
0.743034
0.933558
0.968613
0.943405
0.996434
0.999955
0.999518
0.99599
0.980854
0.93378
0.944699
0.99962
0.999998
0.999992
0.999989
0.99992
0.998873
0.985369
0.99064
0.984813
0.955874
0.937854
0.96745
0.999759
0.99842
0.991283
0.855479
0.49491
0.408649
0.833862
0.99874
0.999971
0.999446
0.684403
0.15473
0.136635
0.725145
0.99705
0.99997
0.999671
0.82693
0.428512
0.344558
0.844377
0.998605
0.980924
0.999895
0.996333
0.978139
0.965422
0.991003
0.956767
0.943309
0.999869
0.999929
0.999899
0.995678
0.964444
0.933743
0.95227
0.999981
1
1
0.999997
0.999924
0.997641
0.981639
0.989774
0.988641
0.982253
0.972401
0.979894
0.999967
0.998654
0.995239
0.920497
0.746342
0.62952
0.917471
0.999986
0.999982
0.999297
0.841083
0.340303
0.147246
0.918806
0.999963
0.999994
0.999964
0.92401
0.771247
0.694723
0.914711
0.999478
0.982521
0.999999
0.999903
0.999677
0.999254
0.992967
0.941711
0.942463
1
0.999897
0.999864
0.989929
0.944183
0.933743
0.962275
0.999999
0.999999
1
0.999999
0.999991
0.99481
0.976685
0.985958
0.982182
0.981823
0.978237
0.983336
0.999982
0.9997
0.999398
0.919442
0.790232
0.671188
0.913627
0.999994
0.999995
0.999438
0.87649
0.513851
0.215782
0.920173
0.999995
0.999997
0.999939
0.958628
0.880726
0.851758
0.926037
0.999824
0.988067
1
0.999921
0.999908
0.999871
0.993556
0.946789
0.947606
1
0.999902
0.999812
0.987512
0.947723
0.933793
0.974551
1
1
1
1
0.999999
0.99495
0.980695
0.988427
0.972701
0.979322
0.983694
0.985733
0.999971
0.999703
0.999965
0.915989
0.770743
0.664164
0.896616
0.999996
0.999997
0.999868
0.907793
0.542181
0.25526
0.886716
0.999997
0.999997
0.999975
0.978057
0.884707
0.867638
0.932119
0.999895
0.996309
1
0.999919
0.999918
0.999908
0.996928
0.972757
0.981123
1
0.999915
0.999905
0.992106
0.973672
0.952412
0.990412
1
0.999562
0.999998
0.999984
1
1
1
1
1
0.999359
0.999997
0.999998
1
1
1
1
1
0.99933
0.999984
0.999999
1
1
1
1
1
0.999413
0.999999
0.999984
1
1
1
1
1
0.997743
1
0.999988
1
1
1
1
1
0.99999
1
0.999999
1
1
1
1
1
1
1
1
1
1
1
1
1
0.999819
0.999999
0.999999
1
1
1
1
1
0.999763
0.999998
0.999996
1
1
1
1
1
0.998515
0.999983
1
1
1
1
1
1
0.999788
0.999879
0.999972
1
1
1
1
1
0.999802
0.999931
0.999946
1
1
1
1
1
1
1
0.999997
1
1
1
1
1
1
1
1
1
1
1
1
1
0.999714
0.998615
0.999999
1
1
1
1
1
0.999934
0.999959
0.999996
1
1
1
1
1
0.998515
0.999997
1
1
1
1
1
1
0.999686
0.999094
0.999926
1
1
1
1
1
0.999927
0.999665
0.999911
1
1
1
1
1
1
1
0.999996
1
1
1
1
1
0.999999
1
1
1
1
1
1
1
0.997691
0.996033
1
1
1
1
1
1
0.999883
0.999737
1
0.999999
1
1
1
1
0.998515
0.999999
1
1
1
1
1
1
0.999222
0.999068
0.999764
1
1
1
1
1
0.999857
0.999425
0.999892
1
1
1
1
1
1
1
0.999997
1
1
1
1
1
0.999999
1
1
1
1
1
1
1
0.992929
0.995959
1
1
1
1
1
1
0.999905
0.99914
0.999983
0.999997
1
1
1
1
0.998765
0.999802
0.999747
1
1
1
1
1
0.999113
0.999068
0.99944
1
1
1
1
1
0.999818
0.999431
0.999865
1
1
1
1
1
1
1
1
1
1
1
1
1
0.999999
1
1
1
1
1
1
1
0.994036
0.997292
0.999952
1
1
1
1
1
0.999987
0.999281
0.999932
0.999997
1
1
1
1
0.999874
0.999781
0.999597
0.99996
1
1
1
1
0.999598
0.999278
0.999526
0.99998
1
1
1
1
0.999888
0.99972
0.999893
0.999996
1
1
1
1
1
1
1
1
1
1
1
1
1
1
1
1
1
1
1
1
0.999978
0.999997
0.999991
0.922667
0.920909
0.996574
1
1
0.999961
0.99999
0.999988
0.997268
0.985937
0.960266
0.997873
1
0.93506
0.999984
0.999991
0.999978
0.999984
0.97731
0.994963
0.999988
0.821327
0.999956
0.999978
0.999972
0.999987
0.999998
0.984165
0.999425
0.940795
0.999989
1
0.999951
0.999989
1
0.985226
0.99933
0.99997
1
1
0.999972
0.999985
1
0.996578
0.99964
0.999999
0.999999
0.999918
0.999993
1
1
0.997533
0.999835
0.999941
0.999985
0.995707
0.907772
0.908377
0.998073
1
1
0.999628
0.999985
0.999991
0.988455
0.919744
0.959825
0.999418
1
0.982237
0.999991
0.999995
0.999995
0.982497
0.947686
0.996789
1
0.921406
0.999974
0.999996
0.999998
0.999693
0.951788
0.984695
0.999936
0.980129
0.999993
0.999999
0.999999
0.999999
0.984106
0.973201
0.999403
0.999411
0.999999
1
1
1
1
0.980418
0.999655
0.999988
0.999999
0.999918
0.999999
1
1
0.993924
0.999861
0.999933
0.99939
0.975551
0.907772
0.93134
0.999869
1
1
0.999806
0.999989
0.999995
0.939832
0.915512
0.973642
0.999984
1
0.999631
0.999995
0.999997
0.999377
0.92197
0.947551
0.999488
1
0.995295
0.999996
0.999999
0.999999
0.959971
0.931783
0.990467
1
0.999281
0.999999
1
1
0.997845
0.931382
0.973187
0.999913
0.999554
1
1
1
1
0.958899
0.980272
0.999922
0.999987
0.999999
0.999918
1
1
0.999954
0.994466
0.999962
0.999881
0.989387
0.881432
0.935509
0.978038
1
1
1
0.999901
0.999212
0.98784
0.915719
0.916743
0.996089
1
1
0.999968
0.999983
0.997989
0.963058
0.919153
0.973513
1
1
0.99999
0.999998
1
0.992418
0.923082
0.937478
0.998273
1
0.999997
1
1
0.998329
0.9571
0.930098
0.982046
1
0.999908
1
1
1
0.998597
0.930098
0.986414
0.999999
0.999982
1
0.999973
0.999999
1
0.954323
0.997712
1
0.982724
0.892553
0.889
0.987633
0.996988
1
1
1
0.999949
0.984498
0.921794
0.915754
0.955303
1
1
1
0.999981
0.999995
0.976012
0.915715
0.958734
0.997276
1
1
0.999995
0.999999
0.998617
0.963573
0.919291
0.97251
1
1
0.999999
1
1
0.984874
0.916289
0.933775
0.995569
1
1
1
1
0.991762
0.934214
0.934293
0.996565
1
0.999972
1
0.999957
0.998264
0.999997
0.955207
0.99996
1
0.953535
0.840419
0.948985
0.997364
0.999936
1
1
1
0.999794
0.966808
0.912453
0.934757
0.995815
1
1
1
0.999991
0.999002
0.95978
0.924961
0.995811
0.999998
1
1
0.999999
0.999998
0.99439
0.957747
0.962134
0.99718
1
1
1
0.999999
0.999999
0.974578
0.913629
0.965405
0.999816
1
1
1
0.999999
0.961066
0.89952
0.959773
0.99987
1
0.999978
1
0.998194
0.978016
0.93617
0.986909
1
1
1
1
1
0.997314
0.995392
0.999372
0.999863
0.999988
1
0.999999
1
0.983282
0.8791
0.97754
1
1
0.999999
0.999999
0.999566
0.883257
0.8791
0.975256
1
1
0.99993
0.999755
0.896027
0.878949
0.968323
1
1
1
0.996972
0.924266
0.890405
0.986589
1
1
0.999999
1
0.971196
0.96699
0.997866
1
1
1
1
1
0.99771
0.999998
0.999998
1
1
1
1
1
1
1
1
0.996903
0.998285
0.999999
0.999561
0.999986
1
1
1
0.930716
0.897881
0.981821
1
1
0.999996
0.999998
0.9867
0.878972
0.879136
0.985933
1
1
0.999416
0.986444
0.878956
0.87896
0.982729
0.999987
1
1
0.986451
0.896606
0.900873
0.996039
1
1
0.999998
1
0.974392
0.968469
0.999138
1
1
1
1
1
0.999605
0.998612
0.999991
1
1
1
1
1
1
1
1
0.997848
0.999897
0.999125
0.999423
0.999996
1
1
0.9998
0.898089
0.924709
0.984005
1
1
0.999997
0.998791
0.947266
0.879092
0.912154
0.993424
1
1
0.995508
0.941808
0.879166
0.888493
0.996025
0.999701
1
1
0.958312
0.893462
0.943635
0.998998
1
1
0.999998
1
0.970561
0.976771
0.999926
1
1
1
1
1
0.997029
0.998814
1
1
1
1
1
1
1
1
1
0.999146
0.988033
0.954716
0.999645
1
1
1
0.998082
0.914782
0.894848
0.980064
1
1
0.999999
0.993729
0.905374
0.879248
0.956792
0.992473
1
1
0.987464
0.88172
0.879385
0.944649
0.999889
0.999199
1
1
0.936929
0.89288
0.985915
0.99995
1
1
0.999999
1
0.950038
0.993583
1
1
1
1
1
1
0.977178
1
1
1
1
1
1
1
0.999998
1
1
0.998445
0.908022
0.937827
0.99996
1
1
1
0.999301
0.944158
0.868264
0.970503
1
1
1
0.992296
0.907078
0.879244
0.97208
0.991609
1
1
0.983339
0.880519
0.879855
0.991443
1
0.999304
1
1
0.939608
0.927356
0.995691
1
1
1
1
1
0.94811
0.999997
1
1
1
1
1
1
0.958807
1
1
1
1
1
1
1
0.999999
1
0.999038
0.983967
0.868263
0.948438
1
1
1
1
0.999525
0.937905
0.868264
0.967573
1
1
1
0.994984
0.940338
0.899952
0.939986
0.993753
1
1
0.986897
0.927235
0.942208
0.99241
0.996308
0.999546
1
1
0.977161
0.986147
0.998316
1
1
0.999985
1
1
0.973694
0.999999
1
1
1
1
1
1
0.977296
0.999999
0.999999
1
1
1
1
1
0.999787
0.999995
1
1
1
1
1
1
0.98596
0.999996
1
1
1
1
1
1
0.930972
0.993166
1
1
1
1
1
1
0.930821
0.918712
0.996015
1
1
1
1
1
0.98837
0.905999
0.972637
0.999995
1
1
1
1
0.999983
0.963662
0.848848
0.991047
1
1
1
1
0.999996
0.995659
0.901152
0.958564
0.999988
0.999976
1
1
0.999817
0.999999
1
1
1
1
1
1
0.998598
1
1
1
1
1
1
1
0.942545
0.999223
1
1
1
1
1
1
0.917676
0.968507
0.999898
1
1
1
1
1
0.958327
0.906079
0.996012
1
1
1
1
1
0.997207
0.913035
0.848021
0.998081
1
1
1
1
0.999982
0.972105
0.82446
0.967245
0.999993
0.999969
1
1
0.999985
1
1
1
1
1
1
1
0.999993
1
1
1
1
1
1
1
0.973804
0.999992
1
1
1
1
1
1
0.917345
0.998046
0.999999
1
1
1
1
1
0.912886
0.921809
0.999787
1
1
1
1
1
0.981162
0.82041
0.874275
0.999899
1
0.999999
1
1
0.997205
0.899643
0.824131
0.973717
0.999671
0.999989
1
1
0.999858
1
1
1
1
1
1
1
1
1
1
1
1
1
1
1
0.996963
1
1
0.999999
1
1
1
1
0.932942
0.999999
1
1
1
1
1
1
0.889035
0.928319
0.999974
1
1
1
1
1
0.952174
0.813847
0.895488
1
1
1
1
1
0.975271
0.819275
0.823863
0.98761
0.99995
1
1
1
0.999777
1
1
1
1
1
1
1
1
1
1
1
1
1
1
1
0.999939
1
1
0.999996
1
1
1
1
0.959811
0.999948
1
0.999937
1
1
1
1
0.888253
0.905417
0.998272
1
1
1
1
1
0.910152
0.813738
0.888932
1
1
1
1
1
0.930447
0.813834
0.815675
0.993528
1
1
1
1
0.999837
1
1
1
1
1
1
1
1
1
1
1
1
1
1
1
1
1
1
0.999986
0.999997
1
1
1
0.981403
0.997926
1
0.999762
0.999987
1
1
1
0.887771
0.859585
0.990905
1
1
1
1
1
0.906275
0.813739
0.89101
0.999936
1
1
1
1
0.930782
0.813725
0.813821
0.990667
1
1
1
1
1
1
1
1
1
1
1
1
1
1
1
1
1
1
1
1
1
1
1
1
1
1
1
1
1
1
1
1
1
1
1
1
1
1
1
1
1
1
1
1
1
1
1
1
1
1
1
1
1
1
1
1
1
1
1
1
1
1
1
1
1
1
1
1
1
1
1
1
1
1
1
1
1
1
1
1
1
1
1
1
1
1
1
1
1
1
1
1
1
1
1
1
1
1
1
1
1
1
1
1
1
1
1
1
1
1
1
1
1
1
1
1
1
1
1
1
1
1
1
1
1
1
1
1
1
1
1
1
1
1
1
1
1
1
1
1
1
1
1
1
1
1
1
1
1
1
1
1
1
1
1
1
1
1
1
1
1
1
1
1
1
1
1
1
1
1
1
1
1
1
1
1
1
1
1
1
1
1
1
1
1
1
1
1
1
1
1
1
1
1
1
1
1
1
1
1
1
1
1
1
1
1
1
1
1
1
1
1
1
1
1
1
1
1
1
1
1
1
1
1
1
1
1
1
1
1
1
1
1
1
1
1
1
1
1
1
1
1
1
1
1
1
1
1
1
1
1
1
1
1
1
1
1
1
1
1
1
1
1
1
1
1
1
1
1
1
1
1
1
1
1
1
1
1
1
1
1
1
1
1
1
1
1
1
1
1
1
1
1
1
1
1
1
1
1
1
1
1
1
1
1
1
1
1
1
1
1
1
1
1
1
1
1
1
1
1
1
1
1
1
1
1
1
1
1
1
1
1
1
1
1
1
1
1
1
1
1
1
1
1
1
1
1
1
1
1
1
1
1
1
1
1
1
1
1
1
1
1
1
1
1
1
1
1
1
1
1
1
1
1
1
1
1
1
1
1
1
1
1
1
1
1
1
1
1
1
1
1
1
1
1
1
1
1
1
1
1
1
1
1
1
1
1
1
1
1
1
1
1
1
1
1
1
1
1
1
1
1
1
1
1
1
1
1
1
1
1
1
1
1
1
1
1
1
1
1
1
1
1
1
1
1
1
1
1
1
1
1
1
1
1
1
1
1
1
1
1
1
1
1
1
1
1
1
1
1
1
1
1
1
1
1
1
1
1
1
1
1
1
1
1
1
1
1
1
1
1
1
1
1
1
1
1
1
1
1
1
1
1
1
1
1
1
1
1
1
1
1
1
1
1
1
1
1
1
1
1
1
1
1
1
1
1
1
1
1
1
1
1
1
1
1
1
1
1
1
1
1
1
1
1
1
1
1
1
1
1
1
1
1
1
1
1
1
1
1
1
1
1
1
1
1
1
1
1
1
1
1
1
1
1
1
1
1
1
1
1
1
1
1
1
1
1
1
1
1
1
1
1
1
1
1
1
1
1
1
1
1
1
1
1
1
1
1
1
1
1
1
1
1
1
1
1
1
1
1
1
1
1
1
1
1
1
1
1
1
1
1
1
1
1
1
1
1
1
1
1
1
1
1
1
1
1
1
1
1
1
1
1
1
1
1
1
1
1
1
1
1
1
1
1
1
1
1
1
1
1
1
1
1
1
1
1
1
1
1
1
1
1
1
1
1
1
1
1
1
1
1
1
1
1
1
1
1
1
1
1
1
1
1
1
1
1
1
1
1
1
1
1
1
1
1
1
1
1
1
1
1
1
1
1
1
1
1
1
1
1
1
1
1
1
1
1
1
1
1
1
1
1
1
1
1
1
1
1
1
1
1
1
1
1
1
1
1
1
1
1
1
1
1
1
1
1
1
1
1
1
1
1
1
1
1
1
1
1
1
1
1
1
1
1
1
1
1
1
1
1
1
1
1
1
1
1
1
1
1
1
1
1
1
1
1
1
1
1
1
1
1
1
1
1
1
1
1
1
1
1
1
1
1
1
1
1
1
1
1
1
1
1
1
1
1
1
1
1
1
1
1
1
1
1
1
1
1
1
1
1
1
1
1
1
1
1
1
1
1
1
1
1
1
1
1
1
1
1
1
1
1
1
1
1
1
1
1
1
1
1
1
1
1
1
1
1
1
1
1
1
1
1
1
1
1
1
1
1
1
1
1
1
1
1
1
1
1
1
1
1
1
1
1
1
1
1
1
1
1
1
1
1
1
1
1
1
1
1
1
1
1
1
1
1
1
1
1
1
1
1
1
1
1
1
1
1
1
1
1
1
1
1
1
1
1
1
1
1
1
1
1
1
1
1
1
1
1
1
1
1
1
1
1
1
1
1
1
1
1
1
1
1
1
1
1
1
1
1
1
1
1
1
1
1
1
1
1
1
1
1
1
1
1
1
1
1
1
1
1
1
1
1
1
1
1
1
1
1
1
1
1
1
1
1
1
1
1
1
1
1
1
1
1
1
1
1
1
1
1
1
1
1
1
1
1
1
1
1
1
1
1
1
1
1
1
1
1
1
1
1
1
1
1
1
1
1
1
1
1
1
1
1
1
1
1
1
1
1
1
1
1
1
1
1
1
1
1
1
1
1
1
1
1
1
1
1
1
1
1
1
1
1
1
1
1
1
1
1
1
1
1
1
1
1
1
1
1
1
1
1
1
1
1
1
1
1
1
1
1
1
1
1
1
1
1
1
1
1
1
1
1
1
1
1
1
1
1
1
1
1
1
1
1
1
1
1
1
1
1
1
1
1
1
1
1
1
1
1
1
1
1
1
1
1
1
1
1
1
1
1
1
1
1
1
1
1
1
1
1
1
1
1
1
1
1
1
1
1
1
1
1
1
1
1
1
1
1
1
1
1
1
1
1
1
1
1
1
1
1
1
1
1
1
1
1
1
1
1
1
1
1
1
1
1
1
1
1
1
1
1
1
1
1
1
1
1
1
1
1
1
1
1
1
1
1
1
1
1
1
1
1
1
1
1
1
1
1
1
1
1
1
1
1
1
1
1
1
1
1
1
1
1
1
1
1
1
1
1
1
1
1
1
1
1
1
1
1
1
1
1
1
1
1
1
1
1
1
1
1
1
1
1
1
1
1
1
1
1
1
1
1
1
1
1
1
1
1
1
1
1
1
1
1
1
1
1
1
1
1
1
1
1
1
1
1
1
1
1
1
1
1
1
1
1
1
1
1
1
1
1
1
1
1
1
1
1
1
1
1
1
1
1
1
1
1
1
1
1
1
1
1
1
1
1
1
1
1
1
1
1
1
1
1
1
1
1
1
1
1
1
1
1
1
1
1
1
1
1
1
1
1
1
1
1
1
1
1
1
1
1
1
1
1
1
1
1
1
1
1
1
1
1
1
1
1
1
1
1
1
1
1
1
1
1
1
1
1
1
1
1
1
1
1
1
1
1
1
1
1
1
1
1
1
1
1
1
1
1
1
1
1
1
1
1
1
1
1
1
1
1
1
1
1
1
1
1
1
1
1
1
1
1
1
1
1
1
1
1
1
1
1
1
1
1
1
1
1
1
1
1
1
1
1
1
1
1
1
1
1
1
1
1
1
1
1
1
1
1
1
1
1
1
1
1
1
1
1
1
1
1
1
1
1
1
1
1
1
1
1
1
1
1
1
1
1
1
1
1
1
1
1
1
1
1
1
1
1
1
1
1
1
1
1
1
1
1
1
1
1
1
1
1
1
1
1
1
1
1
1
1
1
1
1
1
1
1
1
1
1
1
1
1
1
1
1
1
1
1
1
1
1
1
1
1
1
1
1
1
1
1
1
1
1
1
1
1
1
1
1
1
1
1
1
1
1
1
1
1
1
1
1
1
1
1
1
1
1
1
1
1
1
1
1
1
1
1
1
1
1
1
1
1
1
1
1
1
1
1
1
1
1
1
1
1
1
1
1
1
1
1
1
1
1
1
1
1
1
1
1
1
1
1
1
1
1
1
1
1
1
1
1
1
1
1
1
1
1
1
1
1
1
1
1
1
1
1
1
1
1
1
1
1
1
1
1
1
1
1
1
1
1
1
1
1
1
1
1
1
1
1
1
1
1
1
1
1
1
1
1
1
1
1
1
1
1
1
1
1
1
1
1
1
1
1
1
1
1
1
1
1
1
1
1
1
1
1
1
1
1
1
1
1
1
1
1
1
1
1
1
1
1
1
1
1
1
1
1
1
1
1
1
1
1
1
1
1
1
1
1
1
1
1
1
1
1
1
1
1
1
1
1
1
1
1
1
1
1
1
1
1
1
1
1
1
1
1
1
1
1
1
1
1
1
1
1
1
1
1
1
1
1
1
1
1
1
1
1
1
1
1
1
1
1
1
1
1
1
1
1
1
1
1
1
1
1
1
1
1
1
1
1
1
1
1
1
1
1
1
1
1
1
1
1
1
1
1
1
1
1
1
1
1
1
1
1
1
1
1
1
1
1
1
1
1
1
1
1
1
1
1
1
1
1
1
1
1
1
1
1
1
1
1
1
1
1
1
1
1
1
1
1
1
1
1
1
1
1
1
1
1
1
1
1
1
1
1
1
1
1
1
1
1
1
1
1
1
1
1
1
1
1
1
1
1
1
1
1
1
1
1
1
1
1
1
1
1
1
1
1
1
1
1
1
1
1
1
1
1
1
1
1
1
1
1
1
1
1
1
1
1
1
1
1
1
1
1
1
1
1
1
1
1
1
1
1
1
1
1
1
1
1
1
1
1
1
1
1
1
1
1
1
1
1
1
1
1
1
1
1
1
1
1
1
1
1
1
1
1
1
1
1
1
1
1
1
1
1
1
1
1
1
1
1
1
1
1
1
1
1
1
1
1
1
1
1
1
1
1
1
1
1
1
1
1
1
1
1
1
1
1
1
1
1
1
1
1
1
1
1
1
1
1
1
1
1
1
1
1
1
1
1
1
1
1
1
1
1
1
1
1
1
1
1
1
1
1
1
1
1
1
1
1
1
1
1
1
1
1
1
1
1
1
1
1
1
1
1
1
1
1
1
1
1
1
1
1
1
1
1
1
1
1
1
1
1
1
1
1
1
1
1
1
1
1
1
1
1
1
1
1
1
1
1
1
1
1
1
1
1
1
1
1
1
1
1
1
1
1
1
1
1
1
1
1
1
1
1
1
1
1
1
1
1
1
1
1
1
1
1
1
1
1
1
1
1
1
1
1
1
1
1
1
1
1
1
1
1
1
1
1
1
1
1
1
1
1
1
1
1
1
1
1
1
1
1
1
1
1
1
1
1
1
1
1
1
1
1
1
1
1
1
1
1
1
1
1
1
1
1
1
1
1
1
1
1
1
1
1
1
1
1
1
1
1
1
1
1
1
1
1
1
1
1
1
1
1
1
1
1
1
1
1
1
1
1
1
1
1
1
1
1
1
1
1
1
1
1
1
1
1
1
1
1
1
1
1
1
1
1
1
1
1
1
1
1
1
1
1
1
1
1
1
1
1
1
1
1
1
1
1
1
1
1
1
1
1
1
1
1
1
1
1
1
1
1
1
1
1
1
1
1
1
1
1
1
1
1
1
1
1
1
1
1
1
1
1
1
1
1
1
1
1
1
1
1
1
1
1
1
1
1
1
1
1
1
1
1
1
1
1
1
1
1
1
1
1
1
1
1
1
1
1
1
1
1
1
1
1
1
1
1
1
1
1
1
1
1
1
1
1
1
1
1
1
1
1
1
1
1
1
1
1
1
1
1
1
1
1
1
1
1
1
1
1
1
1
1
1
1
1
1
1
1
1
1
1
1
1
1
1
1
1
1
1
1
1
1
1
1
1
1
1
1
1
1
1
1
1
1
1
1
1
1
1
1
1
1
1
1
1
1
1
1
1
1
1
1
1
1
1
1
1
1
1
1
1
1
1
1
1
1
1
1
1
1
1
1
1
1
1
1
1
1
1
1
1
1
1
1
1
1
1
1
1
1
1
1
1
1
1
1
1
1
1
1
1
1
1
1
1
1
1
1
1
1
1
1
1
1
1
1
1
1
1
1
1
1
1
1
1
1
1
1
1
1
1
1
1
1
1
1
1
1
1
1
1
1
1
1
1
1
1
1
1
1
1
1
1
1
1
1
1
1
1
1
1
1
1
1
1
1
1
1
1
1
1
1
1
1
1
1
1
1
1
1
1
1
1
1
1
1
1
1
1
1
1
1
1
1
1
1
1
1
1
1
1
1
1
1
1
1
1
1
1
1
1
1
1
1
1
1
0.998327
0.996477
0.997937
0.978058
0.960514
0.970569
0.982434
0.999911
0.999913
0.999968
0.911567
0.690596
0.605967
0.805
0.999694
0.999996
0.999998
0.913201
0.523841
0.236826
0.733699
0.990069
0.999998
0.999999
0.984252
0.857852
0.818524
0.905941
0.999906
1
1
0.999926
0.999919
0.999918
0.999897
0.998935
0.999995
0.999999
0.999919
0.99983
0.99873
0.998367
0.997032
0.999483
1
1
1
1
0.99998
0.99996
0.999423
0.99998
0.985913
0.877
0.798276
0.860863
0.999918
0.999984
0.999986
0.864283
0.520208
0.407045
0.501734
0.875882
0.999994
0.999995
0.83555
0.410958
0.16686
0.373145
0.787678
0.999988
0.999998
0.970257
0.710008
0.530065
0.633898
0.935795
0.999982
1
0.999978
0.985285
0.945452
0.968589
0.999939
0.999992
0.999995
0.999835
0.999804
0.999717
0.999737
0.99994
0.999938
0.982107
0.999998
0.905516
0.787751
0.823592
0.964687
0.99977
0.999916
0.826703
0.479448
0.2696
0.302392
0.560969
0.938403
0.99998
0.523919
0.262965
0.159675
0.142488
0.284863
0.676508
0.999966
0.418474
0.199827
0.0705456
0.0789619
0.187224
0.596001
0.999929
0.639965
0.302553
0.135193
0.13842
0.312121
0.75149
0.999985
0.959556
0.705301
0.455342
0.474802
0.708429
0.981491
0.999992
0.99979
0.999719
0.933867
0.95602
0.999746
0.999878
0.999072
0.714361
0.478708
0.357082
0.382127
0.478094
0.522484
0.517267
0.276858
0.118673
0.0731961
0.0600044
0.10614
0.349043
0.623925
0.131608
0.0835827
0.0581504
0.0430111
0.0546906
0.256412
0.622406
0.110746
0.0794414
0.0338852
0.0368143
0.0603176
0.262952
0.627706
0.139403
0.0693022
0.0432611
0.0433863
0.056404
0.309175
0.655851
0.384302
0.192677
0.106192
0.0886699
0.162776
0.442752
0.627163
0.77326
0.613193
0.513052
0.521824
0.552687
0.473772
0.417907
0.0511797
0.0522365
0.0495359
0.0343211
0.00436731
-9.81302e-07
-9.8486e-09
0.0432742
0.0541088
0.0682423
0.0491809
0.0178244
0.000232984
-8.7781e-08
0.0470633
0.0341556
0.0383706
0.0454202
0.0322527
0.00672507
-1.44088e-06
0.0605909
0.0336007
0.0179445
0.0482686
0.041476
0.0114116
-2.65817e-06
0.0457705
0.0487293
0.0545487
0.0502703
0.0290519
0.00293
-4.38605e-07
0.0367277
0.0400784
0.0514259
0.037572
0.00834187
-2.31152e-06
-4.02965e-08
0.0150042
0.0263487
0.0284333
0.012319
-5.01575e-06
-1.93193e-07
-3.9042e-09
-3.72555e-11
-6.82497e-11
4.60133e-18
-8.76957e-11
-7.19684e-12
-4.15559e-11
-4.20048e-11
-1.14593e-11
4.32083e-18
1.8082e-16
1.91923e-18
-2.45487e-11
6.73752e-21
-1.9324e-11
3.02289e-18
4.5576e-16
9.35079e-15
-1.82567e-15
1.08741e-18
3.95251e-14
2.17723e-12
2.33079e-15
-2.27432e-13
4.64291e-05
-1.43252e-13
1.79163e-15
2.59868e-13
7.45362e-12
3.65161e-14
2.87384e-16
-9.36098e-13
2.19345e-15
3.30093e-14
6.73517e-13
1.35464e-12
4.47285e-13
4.73527e-14
2.79313e-15
2.13949e-14
4.95e-13
1.74072e-12
1.10812e-12
1.09369e-12
7.1967e-13
-2.97384e-12
9.58898e-13
1.7652e-12
1.19734e-12
1.10654e-12
-2.82311e-11
-6.26715e-11
-1.11772e-10
-7.67206e-11
-6.1904e-12
2.72322e-12
8.27235e-12
-9.89209e-12
-1.79934e-11
-3.79697e-11
-3.725e-11
-9.0085e-12
1.13412e-12
3.52312e-12
-8.41901e-13
-2.52873e-12
-5.91009e-12
-8.14797e-12
-2.75621e-12
1.05045e-12
4.35256e-12
7.51655e-17
-3.99079e-13
-1.43791e-14
7.39374e-19
7.21229e-17
5.77753e-13
1.36198e-11
2.30725e-14
2.55626e-17
3.08906e-19
1.81195e-15
2.35789e-14
1.68394e-12
3.84639e-12
8.22319e-13
3.35e-14
1.81366e-15
1.11021e-14
9.5194e-13
2.37471e-12
3.91808e-12
1.9671e-12
1.99957e-12
1.46639e-14
1.87973e-12
2.33122e-12
3.52433e-12
4.80137e-12
4.67666e-13
1.37431e-13
4.39019e-14
9.8811e-14
2.93302e-13
4.88769e-13
8.00657e-13
2.63039e-13
6.62433e-14
1.60433e-14
5.92473e-14
1.78928e-13
3.20602e-13
5.56768e-13
1.79499e-13
4.46412e-14
1.29607e-14
7.00395e-14
1.61972e-13
2.46542e-13
4.24851e-13
1.57084e-13
4.43536e-14
1.58346e-14
4.45936e-14
8.81681e-14
1.83703e-13
3.82406e-13
1.8093e-13
7.05992e-14
3.69666e-14
4.94124e-14
1.02623e-13
2.23601e-13
4.49915e-13
2.62759e-13
1.44688e-13
1.05172e-13
1.21825e-13
1.90981e-13
3.3786e-13
6.02354e-13
4.67143e-13
3.1409e-13
2.55486e-13
2.77532e-13
3.76002e-13
5.65704e-13
8.90153e-13
4.97042e-14
2.43818e-14
1.65072e-14
1.68668e-14
2.32293e-14
3.98186e-14
8.33976e-14
2.11062e-14
7.20812e-15
3.82276e-15
4.30152e-15
7.71634e-15
1.81736e-14
4.75504e-14
1.14812e-14
2.4975e-15
6.18293e-16
9.46616e-16
3.20666e-15
1.11577e-14
3.43244e-14
9.13309e-15
1.7097e-15
2.38318e-16
4.90025e-16
2.42215e-15
9.68784e-15
3.1131e-14
1.14127e-14
2.9305e-15
1.10984e-15
1.47385e-15
3.9399e-15
1.23132e-14
3.62687e-14
1.94327e-14
7.95414e-15
5.11422e-15
5.7339e-15
9.65483e-15
2.09431e-14
5.13539e-14
4.42142e-14
2.48046e-14
1.888e-14
1.97756e-14
2.7223e-14
4.53115e-14
8.83921e-14
3.41351e-17
1.28615e-17
7.65574e-18
6.8709e-18
8.88744e-18
1.73156e-17
5.55878e-17
9.95876e-18
2.06075e-18
8.783e-19
7.8054e-19
1.32575e-18
4.75749e-18
2.42488e-17
4.74633e-18
5.14175e-19
7.00299e-20
6.34318e-20
3.19847e-19
2.4273e-18
1.56991e-17
3.5945e-18
3.27578e-19
1.71861e-20
1.81241e-20
2.19569e-19
2.01667e-18
1.36929e-17
4.35888e-18
5.17859e-19
1.07997e-19
1.04212e-19
3.7265e-19
2.51723e-18
1.59707e-17
8.4619e-18
2.0585e-18
1.05231e-18
1.0074e-18
1.6489e-18
5.23942e-18
2.49158e-17
2.84438e-17
1.19796e-17
7.89857e-18
7.59421e-18
1.01871e-17
1.96236e-17
5.78741e-17
0.999511
0.999998
1
1
1
1
1
1
0.999992
0.999998
1
1
1
1
1
1
0.999994
0.999993
0.999999
1
1
1
1
1
0.999999
0.999995
1
1
1
1
1
1
1
1
1
1
1
1
1
1
1
1
1
1
1
1
1
1
1
1
1
1
1
1
1
1
0.990033
0.794003
0.789599
0.9154
0.996801
0.991978
0.997718
0.999996
0.96787
0.926203
0.944648
0.987658
0.999579
1
1
0.996835
0.988825
0.984711
0.989112
0.998891
1
1
0.999121
0.994327
0.994116
0.993384
0.993806
0.999176
1
0.999968
0.998427
0.992002
0.987795
0.981592
0.985988
0.997659
1
1
0.998782
0.992497
0.954455
0.94683
0.968228
0.992108
0.997122
1
0.999991
0.995603
0.78648
0.808346
0.922046
0.991033
0.98145
0.988124
0.999377
0.999591
0.964282
0.573505
0.13822
0.0951265
0.0921732
0.239863
0.572847
0.724953
0.958207
0.530574
0.214143
0.366028
0.605851
0.664953
0.627019
0.53963
0.935366
0.539463
0.565771
0.754096
0.738493
0.650267
0.554011
0.473191
0.952565
0.588038
0.575488
0.73678
0.718775
0.623347
0.53089
0.446494
0.946089
0.508469
0.418359
0.631897
0.694991
0.640374
0.551352
0.456994
0.925212
0.465387
0.118871
0.211238
0.480142
0.656639
0.631108
0.524339
0.835758
0.352447
0.07476
0.0732501
0.0919949
0.350676
0.698448
0.682392
0.505984
0.533501
0.436942
0.145962
-0.00155891
-0.000125667
-2.76157e-06
-1.31355e-07
0.667977
0.542842
0.185647
-0.000820998
-2.71027e-05
-7.65607e-07
-2.2845e-08
-7.69365e-10
0.644591
0.459743
0.0618769
-0.00013252
-3.85883e-06
-8.67154e-08
-1.8123e-09
-4.93382e-11
0.63274
0.430331
0.0433123
-9.35227e-05
-2.35692e-06
-4.47445e-08
-6.94753e-10
4.35269e-10
0.648425
0.451651
0.0506805
-0.000152769
-5.42793e-06
-8.34031e-08
-1.43428e-09
3.35992e-10
0.62613
0.52752
0.169383
-0.00104849
-3.03464e-05
-2.23118e-06
-3.42663e-08
-4.38051e-10
0.236596
0.323887
0.319472
0.280724
0.0460118
-0.000252263
-9.75646e-06
-4.19867e-07
-7.34047e-10
-2.9894e-11
-1.85955e-12
-2.8663e-10
1.12324e-11
-3.28255e-09
-4.11041e-08
-5.40545e-08
-7.46781e-09
-2.11673e-10
-3.97496e-11
5.38929e-12
4.43279e-11
-2.12045e-08
-5.95791e-08
-7.72695e-08
-6.0397e-08
-1.73436e-09
-3.54438e-11
-2.81004e-07
-3.19928e-09
-1.97629e-11
-1.11554e-09
-4.02807e-09
-8.38915e-08
-2.85225e-09
-1.68151e-07
-2.15215e-07
-3.63917e-09
-2.24646e-10
-1.70817e-11
-1.14412e-11
-1.36355e-08
-6.4284e-10
-1.53668e-11
-1.46018e-07
-1.55991e-09
-7.8977e-12
2.26058e-10
1.62553e-10
-1.15496e-09
-4.93603e-11
-3.97441e-11
8.50314e-12
3.88585e-11
8.93301e-12
2.14616e-10
1.76007e-10
-5.65845e-10
-3.84134e-11
-1.80676e-12
-8.59641e-11
1.02986e-12
6.25291e-11
1.49108e-10
2.81742e-10
-3.62696e-11
-3.29147e-11
-2.81805e-11
-4.12664e-12
1.21119e-13
5.36419e-12
4.16323e-12
4.94819e-11
-2.11234e-11
-1.67866e-11
-9.16839e-12
2.54269e-16
8.49556e-14
1.313e-12
3.74042e-12
1.20158e-09
-1.31556e-12
7.17205e-16
1.03831e-16
6.81152e-14
6.31279e-13
1.46076e-12
3.15321e-12
4.75929e-09
5.86827e-15
6.34281e-13
7.52877e-13
8.09681e-13
1.29687e-12
1.50879e-12
-1.03492e-11
2.95211e-08
1.15779e-12
1.20796e-12
1.35555e-12
1.42712e-12
2.31195e-12
3.66981e-12
8.33148e-12
1.80605e-08
1.10649e-12
1.15766e-12
1.20871e-12
2.05351e-12
2.22408e-12
4.31399e-12
1.0422e-11
6.27101e-09
1.14406e-12
1.20791e-12
2.0526e-12
2.21946e-12
2.3103e-12
2.82551e-12
1.23903e-11
4.64228e-09
1.65239e-11
2.44951e-11
3.59557e-11
5.30643e-11
7.86415e-11
1.15673e-10
1.65182e-10
2.23742e-10
5.55995e-12
7.40199e-12
9.41439e-12
1.24547e-11
1.90861e-11
3.65323e-11
7.65146e-11
3.22118e-10
9.7705e-12
1.47697e-11
1.96078e-11
2.28635e-11
2.27528e-11
1.83648e-11
1.19944e-11
8.56625e-12
3.88297e-11
7.45323e-11
1.21901e-10
1.70012e-10
1.99118e-10
1.24858e-10
4.16755e-11
5.59463e-12
6.21201e-12
7.86786e-12
9.10811e-12
9.78991e-12
9.75891e-12
9.10476e-12
7.58684e-12
5.75326e-12
5.44214e-12
6.51487e-12
7.3528e-12
7.94177e-12
8.25507e-12
8.25266e-12
7.82971e-12
6.53739e-12
6.00971e-12
6.84925e-12
7.50402e-12
7.95029e-12
8.16883e-12
8.15263e-12
7.89773e-12
7.2765e-12
1.33005e-12
1.85438e-12
2.44492e-12
3.04517e-12
3.57452e-12
3.94979e-12
4.13685e-12
4.22546e-12
9.70082e-13
1.4651e-12
2.07929e-12
2.77287e-12
3.46567e-12
4.04455e-12
4.39274e-12
4.41567e-12
7.86888e-13
1.24127e-12
1.8367e-12
2.55605e-12
3.34311e-12
4.10103e-12
4.72628e-12
5.21502e-12
7.07952e-13
1.08826e-12
1.557e-12
2.0984e-12
2.68023e-12
3.67507e-12
4.76925e-12
5.57029e-12
8.14176e-13
1.26511e-12
1.85613e-12
2.58765e-12
3.44009e-12
4.36647e-12
5.30109e-12
6.20753e-12
1.00921e-12
1.50267e-12
2.12578e-12
2.88037e-12
3.76088e-12
4.75181e-12
5.83171e-12
6.99473e-12
1.39682e-12
1.95439e-12
2.61659e-12
3.37922e-12
4.23621e-12
5.17522e-12
6.17976e-12
7.24178e-12
1.99355e-13
3.62874e-13
6.16396e-13
9.88373e-13
1.50511e-12
2.18515e-12
3.04304e-12
4.10524e-12
1.19223e-13
2.37828e-13
4.3868e-13
7.51503e-13
1.19688e-12
1.77719e-12
2.4769e-12
3.28411e-12
9.10151e-14
1.90631e-13
3.68223e-13
6.56769e-13
1.08045e-12
1.64408e-12
2.33642e-12
3.16042e-12
8.328e-14
1.75743e-13
3.41602e-13
6.1045e-13
1.00174e-12
1.51541e-12
2.14046e-12
2.89486e-12
9.39738e-14
1.94078e-13
3.7215e-13
6.62815e-13
1.09454e-12
1.67688e-12
2.39721e-12
3.24232e-12
1.24142e-13
2.4244e-13
4.41737e-13
7.54683e-13
1.20954e-12
1.8213e-12
2.59207e-12
3.53249e-12
1.94718e-13
3.53007e-13
6.00526e-13
9.69581e-13
1.4949e-12
2.21038e-12
3.14976e-12
4.35705e-12
2.49502e-16
7.86344e-16
2.29647e-15
6.28787e-15
1.62765e-14
4.00281e-14
9.36609e-14
2.08597e-13
1.20724e-16
4.32437e-16
1.42327e-15
4.35944e-15
1.24995e-14
3.36303e-14
8.50732e-14
2.02554e-13
8.24659e-17
3.15083e-16
1.10397e-15
3.58517e-15
1.08472e-14
3.06562e-14
8.1042e-14
2.00607e-13
7.25958e-17
2.82596e-16
1.00882e-15
3.33378e-15
1.02474e-14
2.93819e-14
7.87048e-14
1.9714e-13
8.33005e-17
3.15307e-16
1.09545e-15
3.53177e-15
1.06214e-14
2.98801e-14
7.8751e-14
1.94627e-13
1.21524e-16
4.28966e-16
1.39189e-15
4.2085e-15
1.19361e-14
3.18599e-14
8.01953e-14
1.90624e-13
2.39737e-16
7.56155e-16
2.19832e-15
5.97498e-15
1.53434e-14
3.7466e-14
8.72375e-14
1.93912e-13
0.961061
0.923187
0.992814
0.999991
1
1
1
1
0.999614
0.97886
0.945126
0.989012
0.999998
1
1
1
0.999999
0.998403
0.975873
0.984738
0.999977
1
1
1
1
0.999956
0.996739
0.988931
0.998312
0.999994
1
1
1
1
0.999931
0.986063
0.977926
0.995527
0.999998
1
1
1
0.999956
0.977632
0.927196
0.983234
0.999993
1
1
1
0.999119
0.965981
0.884792
0.982839
0.999996
1
0.993246
0.995961
0.925918
0.967667
0.99999
1
1
1
0.999998
0.995427
0.977528
0.991575
0.999991
0.999999
1
1
1
0.999756
0.996178
0.990906
0.999993
1
1
1
1
1
0.997585
0.994843
0.999988
0.999999
1
1
1
1
0.999298
0.998926
0.999845
0.999989
0.999999
1
1
1
0.999998
0.999926
0.978625
0.980695
0.998842
1
0.999184
0.999998
0.999998
0.99997
0.865491
0.910715
0.996867
0.999992
0.999663
0.999458
0.992088
0.851527
0.562267
0.34082
0.337131
0.495116
0.999978
0.999709
0.999713
0.878192
0.503561
0.488869
0.780428
0.924492
0.981033
0.999854
0.999861
0.999041
0.604277
0.59625
0.876963
0.904648
0.906543
0.999997
0.999964
0.999861
0.736069
0.672664
0.878547
0.892769
0.951849
1
0.999998
0.98954
0.708545
0.775835
0.945992
0.928511
1
1
0.999998
0.930772
0.592973
0.750035
0.98539
0.974357
0.999998
0.999998
0.985388
0.794049
0.550115
0.731379
0.958332
0.999276
0.821819
0.788334
0.622899
0.291573
0.279757
0.366624
0.327883
0.0884955
0.615149
0.74859
0.736956
0.68724
0.529901
0.192445
0.023338
0.0523014
0.44939
0.772342
0.814153
0.744902
0.60226
0.426036
0.228992
0.0198695
0.378371
0.736793
0.837426
0.768938
0.654321
0.496364
0.237763
-0.000887875
0.434971
0.781112
0.820054
0.716341
0.574571
0.444638
0.277206
0.0625352
0.65941
0.828205
0.752557
0.427417
0.149303
0.30394
0.573528
0.373137
0.89398
0.877961
0.722835
0.265981
0.00124694
-4.68749e-06
0.0830628
0.527515
-1.49327e-05
-4.02319e-07
-3.0754e-08
-6.07959e-10
-2.61956e-09
-3.16931e-11
5.90239e-13
2.0021e-12
0.0299778
0.00401084
-6.43463e-07
-2.5168e-08
-2.03748e-09
-1.889e-10
2.03662e-13
3.03997e-12
0.0417082
0.0216966
-7.28131e-06
-1.85149e-07
-5.58906e-09
-1.82592e-10
-8.78838e-12
2.52199e-12
0.053614
0.0374021
-2.25916e-05
-3.9648e-07
-1.08672e-08
-1.42808e-10
-4.33546e-11
6.98549e-12
0.0469956
0.0338969
-3.13647e-05
-4.34979e-07
-1.06295e-08
-3.21908e-10
-1.71445e-12
1.48068e-11
0.043113
0.0182884
-1.15431e-05
-8.64276e-07
-6.46847e-09
-1.90893e-09
-1.5218e-12
3.93642e-11
0.010977
-2.26956e-06
-2.37104e-08
-3.28535e-08
-4.23306e-06
-1.5812e-09
5.65742e-13
2.63672e-11
2.23782e-12
1.27866e-12
1.33108e-12
1.53534e-12
1.80497e-12
2.24728e-12
2.63516e-12
3.14278e-12
8.68409e-13
9.14499e-13
1.45868e-12
1.39417e-12
1.60304e-12
1.97119e-12
2.5377e-12
3.06559e-12
6.48606e-13
6.48392e-13
5.02374e-12
1.64607e-12
1.97717e-12
2.53199e-12
3.05967e-12
4.33947e-12
5.88946e-14
1.91142e-13
6.72152e-12
2.77829e-12
3.59038e-12
4.49632e-12
5.92705e-12
5.81905e-12
6.33709e-20
2.76276e-21
5.57122e-12
4.32436e-12
5.48325e-12
7.73915e-12
7.95241e-12
6.89388e-12
-9.26495e-12
-2.76303e-14
6.71602e-12
6.32675e-12
5.86712e-12
7.01879e-12
9.60531e-12
1.32332e-11
-7.99529e-12
2.00422e-12
4.02289e-15
8.40999e-13
2.47726e-11
1.35176e-11
1.1068e-11
1.33165e-11
3.14668e-12
5.35304e-12
7.4366e-12
9.04966e-12
9.84981e-12
9.81845e-12
9.56793e-12
9.37859e-12
1.72561e-12
3.58442e-12
6.08276e-12
8.85134e-12
1.15896e-11
1.37295e-11