/*--------------------------------*- C++ -*----------------------------------*\
| =========                 |                                                 |
| \\      /  F ield         | OpenFOAM: The Open Source CFD Toolbox           |
|  \\    /   O peration     | Version:  plus.master.MPPICInterFoam            |
|   \\  /    A nd           | Web:      www.OpenFOAM.com                      |
|    \\/     M anipulation  |                                                 |
\*---------------------------------------------------------------------------*/
FoamFile
{
    version     2.0;
    format      ascii;
    class       volScalarField;
    location    "3.4";
    object      nut;
}
// * * * * * * * * * * * * * * * * * * * * * * * * * * * * * * * * * * * * * //

dimensions      [0 2 -1 0 0 0 0];

internalField   nonuniform List<scalar> 
11822
(
0.000571877
0.000601784
0.000619294
0.000626491
0.000625324
0.00061495
0.00059122
0.000600608
0.000631526
0.000649038
0.000654111
0.000655804
0.000641675
0.00061735
0.000606884
0.000631482
0.000675754
0.000663227
0.000681755
0.000661014
0.00063309
0.000608334
0.000645259
0.000699661
0.000695959
0.000697989
0.000670327
0.000639421
0.000610475
0.000674185
0.000702919
0.000680293
0.000690913
0.000668373
0.000637411
0.000610502
0.00064401
0.000665747
0.00067704
0.000673455
0.00065426
0.000625578
0.000588674
0.000622349
0.000643001
0.000649853
0.000645958
0.00063005
0.000600972
0.00057971
0.000609097
0.000628366
0.000638351
0.000637292
0.000624716
0.000598771
0.000613499
0.000650024
0.000671684
0.000678593
0.000670677
0.000653014
0.000626242
0.000629177
0.00063041
0.000661025
0.000698008
0.000698302
0.000672508
0.000643072
0.000631624
0.000670619
0.000711195
0.000708261
0.000712079
0.00068094
0.000649719
0.000634441
0.000644608
0.000690508
0.000713893
0.000706596
0.000678376
0.000647014
0.000624125
0.000667394
0.000691661
0.000697087
0.000684755
0.000663269
0.000632973
0.000594224
0.000628621
0.000651587
0.000660661
0.000655076
0.000636642
0.000606165
0.000584122
0.000614645
0.000635145
0.000645667
0.000644263
0.000630902
0.000604806
0.000620435
0.000658492
0.000681765
0.000687451
0.000677242
0.000659394
0.000632359
0.0006493
0.000678142
0.000704467
0.000728235
0.0007039
0.000678967
0.000649324
0.000660034
0.000650539
0.000720282
0.00074528
0.000715716
0.000687218
0.000656052
0.000650112
0.00067298
0.000699988
0.000730709
0.000708664
0.00068329
0.000652304
0.000626279
0.000665228
0.000691037
0.00069758
0.000687744
0.000667174
0.00063718
0.000595775
0.000629652
0.00065299
0.00066349
0.000658227
0.000640104
0.000609955
0.00058562
0.000616853
0.00063813
0.000649186
0.000649035
0.000636812
0.000611975
0.000618992
0.000654729
0.000677598
0.000685299
0.000679654
0.00066442
0.000639083
0.000644924
0.00068991
0.000716067
0.000718336
0.000702718
0.000682756
0.000655438
0.000655919
0.000686796
0.000713839
0.000734525
0.00071271
0.000690338
0.000661658
0.000648088
0.000695393
0.000721149
0.000721481
0.000706847
0.000686258
0.000657548
0.000624442
0.00066159
0.00068599
0.000694
0.000687553
0.000670411
0.000642484
0.000596787
0.000630736
0.000653678
0.000663509
0.000660387
0.000644475
0.00061575
0.000589196
0.000621248
0.000643704
0.000656353
0.000657699
0.000646917
0.000623533
0.000621581
0.000656251
0.00067959
0.000689932
0.000687083
0.000674052
0.000650608
0.000644828
0.000685944
0.000711005
0.000717653
0.000708186
0.000691459
0.000666426
0.000653837
0.000703722
0.000722164
0.000729248
0.000716785
0.0006984
0.00067231
0.000646596
0.00069185
0.000718864
0.000720623
0.000711582
0.000694353
0.000668182
0.000626791
0.000662602
0.000687134
0.000697312
0.000693853
0.000679143
0.0006534
0.000602439
0.000635612
0.000658778
0.000669871
0.000668516
0.000654101
0.000627286
0.000599389
0.000633025
0.000656768
0.00067044
0.000672324
0.000662598
0.000641675
0.000632288
0.000670649
0.000694795
0.000705464
0.000701896
0.000689643
0.000668456
0.000657686
0.00070192
0.000728783
0.000736313
0.000723279
0.000706969
0.000684235
0.00066467
0.000709489
0.000736985
0.000746955
0.000731268
0.000713638
0.000690052
0.000655121
0.000696283
0.000722749
0.000732206
0.000724763
0.000709435
0.00068605
0.000636793
0.000671157
0.000695713
0.00070849
0.000706946
0.000694465
0.000671809
0.000615147
0.00064718
0.000670114
0.000682227
0.000680947
0.00067
0.000646735
0.000557562
0.000521647
0.00047633
0.000419676
0.000348345
0.000257066
0.000139388
1.59333e-05
0.000583879
0.00054724
0.000501844
0.000445114
0.00037305
0.000279217
0.000154781
1.76751e-05
0.000599452
0.000562799
0.000517401
0.000460751
0.000388488
0.000293369
0.00016484
1.87829e-05
0.000605326
0.000568585
0.000523058
0.000466381
0.000394115
0.000298669
0.000168685
1.90856e-05
0.000602096
0.000564718
0.000518793
0.000461957
0.000389818
0.000294865
0.000165975
1.85361e-05
0.00058893
0.000550791
0.000504517
0.000447596
0.000375847
0.000282293
0.000157057
1.72292e-05
0.000563542
0.000526239
0.000480135
0.000423385
0.000352399
0.000261298
0.000142415
1.53583e-05
0.00056382
0.000526861
0.000480611
0.000423011
0.000350684
0.000258426
0.000139945
1.60595e-05
0.000590945
0.000552979
0.000506541
0.000448872
0.000375835
0.00028099
0.000155608
1.78284e-05
0.000607279
0.00056894
0.000522354
0.000464723
0.000391484
0.00029532
0.00016575
1.89473e-05
0.000613463
0.000574781
0.000527944
0.000470263
0.00039702
0.000300527
0.000169492
1.92444e-05
0.000609546
0.000570313
0.000523195
0.000465435
0.000392372
0.000296412
0.00016654
1.86758e-05
0.000594649
0.000555256
0.000508109
0.00045041
0.000377809
0.000283322
0.000157292
1.73383e-05
0.000567777
0.000529655
0.00048286
0.000425381
0.000353588
0.000261671
0.000142259
1.54209e-05
0.000569848
0.000532677
0.00048592
0.000427617
0.000354357
0.000260937
0.000141114
1.6236e-05
0.000597049
0.000558967
0.000512231
0.000453977
0.000380049
0.000283984
0.000157044
1.8025e-05
0.00061336
0.000574915
0.000528132
0.000469999
0.000395899
0.00029849
0.000167259
1.91521e-05
0.000619388
0.000580531
0.000533543
0.000475417
0.000401348
0.000303605
0.000170906
1.94456e-05
0.000614843
0.000575631
0.000528425
0.000470251
0.000396372
0.000299178
0.000167734
1.886e-05
0.000599317
0.000560062
0.000512826
0.000454681
0.000381247
0.000285576
0.000158146
1.74918e-05
0.000572046
0.000533936
0.000486897
0.000428865
0.000356201
0.000263174
0.000142661
1.55339e-05
0.000577534
0.000540264
0.000493236
0.000434364
0.000360193
0.000265409
0.000143557
1.64634e-05
0.000604769
0.000566989
0.000520094
0.000461271
0.000386368
0.000288802
0.000159585
1.82724e-05
0.00062079
0.000582921
0.000536142
0.000477488
0.000402377
0.000303361
0.000169693
1.94056e-05
0.000626473
0.000588328
0.000541431
0.00048282
0.000407724
0.000308301
0.000173086
1.96945e-05
0.000621667
0.000583143
0.00053602
0.000477355
0.000402422
0.000303513
0.000169592
1.90937e-05
0.000606045
0.000567306
0.000520011
0.000461289
0.00038676
0.000289412
0.000159708
1.77021e-05
0.000578715
0.000540767
0.000493456
0.000434723
0.000360938
0.000266361
0.000143941
1.5714e-05
0.000589902
0.000553061
0.000506244
0.000447216
0.000372176
0.000275287
0.000149555
1.68343e-05
0.00061742
0.000580383
0.000533975
0.000475263
0.00039974
0.000300222
0.000167048
1.87397e-05
0.000633365
0.000596633
0.000550633
0.00049233
0.000416809
0.000315974
0.000178377
1.99696e-05
0.000638967
0.000602161
0.000556243
0.000498165
0.000422785
0.000321579
0.000182337
2.03427e-05
0.000634173
0.000597018
0.000550931
0.000492837
0.000417596
0.000316843
0.000178881
1.97589e-05
0.000618716
0.000581194
0.000534794
0.000476467
0.000401412
0.000302078
0.000168503
1.83048e-05
0.000591673
0.000554574
0.000507791
0.000449037
0.000374305
0.000277478
0.000151298
1.62034e-05
0.000611477
0.000577623
0.000534203
0.000478245
0.000404069
0.000302703
0.000163399
1.91828e-05
0.000638687
0.000605421
0.000563421
0.000508845
0.000435041
0.000331209
0.000182833
2.17999e-05
0.000654819
0.000622459
0.00058157
0.000528056
0.000454663
0.000349389
0.000195308
2.36247e-05
0.000660596
0.000628559
0.000588153
0.000535182
0.000462036
0.000356172
0.000199844
2.43001e-05
0.000656075
0.000623745
0.000583213
0.000530182
0.000456937
0.000351165
0.000196046
2.36721e-05
0.000641203
0.000608272
0.000567064
0.000513249
0.000439483
0.000334556
0.00018422
2.18491e-05
0.000615461
0.000582353
0.000539877
0.000484424
0.000409685
0.000306538
0.00016484
1.91399e-05
0.000551603
0.000518266
0.000476993
0.000422765
0.000350715
0.00025828
0.000140893
1.82335e-05
0.000574642
0.000538338
0.000497214
0.000446393
0.000379394
0.000284224
0.000156706
2.08535e-05
0.000589507
0.000551847
0.000509977
0.000460264
0.000394265
0.000301379
0.000168645
2.27506e-05
0.000593385
0.000556169
0.000513833
0.00046465
0.000399853
0.000307732
0.000173595
2.35103e-05
0.000585832
0.000548824
0.00050789
0.000458846
0.000393433
0.000300588
0.000169002
2.28755e-05
0.000566321
0.000531526
0.00049188
0.000442204
0.000375707
0.000283332
0.000156254
2.10376e-05
0.000538061
0.000506037
0.000466423
0.000415316
0.00034766
0.000256905
0.000137701
1.83892e-05
0.000555829
0.000520591
0.000477065
0.000420789
0.0003468
0.000254609
0.00013927
1.82111e-05
0.000581192
0.000542537
0.000499256
0.000446081
0.000373816
0.000278476
0.000154342
2.0831e-05
0.000599098
0.000557333
0.0005133
0.000461161
0.000393507
0.000296904
0.000165698
2.2747e-05
0.000605277
0.00056233
0.000517992
0.000466179
0.00039872
0.000303612
0.000170158
2.35207e-05
0.000595638
0.000555253
0.000512025
0.000460301
0.000392822
0.000299859
0.000167025
2.29526e-05
0.000574255
0.000537309
0.00049536
0.000443551
0.000375508
0.000282635
0.000155421
2.117e-05
0.000544557
0.000510629
0.000469044
0.000416231
0.000347288
0.000255868
0.000137048
1.85386e-05
0.000557287
0.000521237
0.000476424
0.000418662
0.000343758
0.000252431
0.000137883
1.81829e-05
0.00058297
0.000543529
0.000498999
0.000443695
0.000369672
0.000274234
0.000152664
2.07895e-05
0.000601525
0.000558886
0.000513311
0.000459081
0.000387426
0.000290965
0.000163791
2.27322e-05
0.000609776
0.000564523
0.000518476
0.000464903
0.000395807
0.00029829
0.00016749
2.35153e-05
0.000599951
0.000557546
0.000512461
0.000459049
0.000390236
0.000294131
0.000163807
2.29555e-05
0.000578055
0.000539342
0.000495783
0.000442674
0.000373804
0.000280105
0.00015314
2.1238e-05
0.000547667
0.000512304
0.000469486
0.00041578
0.000346144
0.000254466
0.000135894
1.86254e-05
0.000558569
0.000522208
0.000475858
0.000416708
0.000345125
0.000254058
0.000138213
1.82513e-05
0.000583358
0.000544702
0.000500467
0.000443027
0.000369307
0.000274686
0.000153202
2.0863e-05
0.000600435
0.000559059
0.000513898
0.000459828
0.000386333
0.000289859
0.000163805
2.27648e-05
0.000606442
0.00056383
0.000518047
0.000464185
0.000392276
0.000295317
0.000166806
2.35458e-05
0.000598502
0.000557128
0.000511903
0.00045813
0.000387786
0.000291555
0.000162821
2.30003e-05
0.00057839
0.000539688
0.000495819
0.000442186
0.000372518
0.000277331
0.00015145
2.12937e-05
0.000549019
0.000513379
0.000470158
0.000415796
0.000345388
0.000251875
0.000133506
1.87036e-05
0.000565723
0.000529629
0.000482361
0.000424799
0.000353072
0.000260036
0.000140968
1.84049e-05
0.000587762
0.000550558
0.000505448
0.000448374
0.000374906
0.00028018
0.000156015
2.10015e-05
0.000602206
0.000562576
0.000518213
0.000461434
0.00038955
0.000293943
0.000165737
2.28638e-05
0.000606869
0.000565774
0.000520933
0.000466477
0.000394559
0.000297169
0.000168228
2.36476e-05
0.000599715
0.000559038
0.000514436
0.000461078
0.000390246
0.000291749
0.000163556
2.31334e-05
0.000580837
0.000542399
0.00049888
0.00044544
0.000373892
0.000276696
0.000151817
2.14361e-05
0.000552429
0.000516977
0.000473724
0.000419019
0.000348013
0.000252577
0.000133918
1.88446e-05
0.000579018
0.000542935
0.000498241
0.00044289
0.000371405
0.000276797
0.000150759
1.928e-05
0.000599355
0.000563698
0.000521583
0.000464686
0.000393407
0.000297743
0.000166336
2.18995e-05
0.000611746
0.000573857
0.000530791
0.000476509
0.000405757
0.000309725
0.000175567
2.36888e-05
0.000615555
0.00057537
0.000532125
0.000478943
0.0004083
0.000312334
0.000177616
2.44411e-05
0.000608549
0.000568209
0.000525061
0.000472644
0.000401658
0.000304194
0.000171286
2.39224e-05
0.000589928
0.000552109
0.00050991
0.000457474
0.000386422
0.000286952
0.000158161
2.21574e-05
0.000562509
0.000527786
0.000485318
0.00043083
0.000357958
0.000260376
0.000139618
1.94535e-05
0.000535907
0.000503888
0.000464312
0.00041305
0.000344714
0.000253897
0.000135943
1.81924e-05
0.000559994
0.000526033
0.000487616
0.000438286
0.000367161
0.00027125
0.00014962
2.03089e-05
0.000576973
0.000542959
0.000505148
0.000454052
0.00038264
0.000286617
0.000161774
2.19054e-05
0.000588883
0.000556223
0.00051648
0.000463971
0.000392963
0.000299249
0.00016999
2.23196e-05
0.000591993
0.000559335
0.000516769
0.000463165
0.000393093
0.00029815
0.000167963
2.12298e-05
0.000581726
0.000547346
0.000504058
0.000448889
0.000377206
0.000282603
0.000156553
1.90022e-05
0.000556917
0.000521838
0.000477058
0.000420572
0.000349028
0.000257305
0.000139291
1.6259e-05
0.000543098
0.000509003
0.000467361
0.000414186
0.000344566
0.000253167
0.000135473
1.8373e-05
0.000569211
0.000533615
0.000492505
0.00043996
0.000366094
0.000271319
0.000149733
2.05305e-05
0.000587978
0.000552589
0.000512371
0.000458228
0.000384487
0.000288687
0.000163203
2.21571e-05
0.000600708
0.000566522
0.000523814
0.000469214
0.00039659
0.0003018
0.000171229
2.24873e-05
0.00060282
0.000566718
0.000522974
0.000467862
0.00039599
0.000299418
0.000168259
2.13081e-05
0.000590367
0.00055415
0.000509083
0.000452171
0.000378843
0.000282832
0.0001561
1.9069e-05
0.000563451
0.000527069
0.000480933
0.0004231
0.000350267
0.000257508
0.000139037
1.63525e-05
0.00054704
0.000511568
0.000468675
0.000414522
0.000344438
0.000252978
0.000134949
1.85091e-05
0.000575139
0.000538051
0.000495369
0.000440033
0.000366972
0.000271919
0.000149791
2.06999e-05
0.000595396
0.000558725
0.000516252
0.000460377
0.000386012
0.000290599
0.000163836
2.22678e-05
0.00060809
0.000572539
0.000528515
0.000471406
0.000399117
0.000303071
0.000171318
2.25253e-05
0.000609088
0.000572694
0.000528065
0.000471644
0.000398095
0.000299865
0.000167727
2.13505e-05
0.00059635
0.000559357
0.000513527
0.000455506
0.0003809
0.000283607
0.000156017
1.92001e-05
0.000569198
0.000532221
0.000485389
0.000426693
0.000352851
0.00025898
0.000139521
1.64996e-05
0.000549286
0.000513605
0.000470506
0.000416376
0.000346317
0.000252384
0.000133999
1.86376e-05
0.000578647
0.00054129
0.000498068
0.000442756
0.000369269
0.000272413
0.000149983
2.08629e-05
0.000599904
0.000562886
0.000518912
0.000463426
0.000390192
0.000293312
0.000164467
2.23631e-05
0.000612724
0.000575488
0.000532351
0.000475921
0.000403029
0.000304829
0.000171411
2.25991e-05
0.000613898
0.000578075
0.000533719
0.000476606
0.000401551
0.000301658
0.000168176
2.14911e-05
0.000601917
0.000565389
0.000519505
0.000460779
0.000385117
0.000286519
0.000157496
1.93888e-05
0.000576254
0.000538999
0.000491879
0.000432533
0.000357754
0.000262615
0.000141474
1.67007e-05
0.000553532
0.000517979
0.000474767
0.000420296
0.000348041
0.00025191
0.000134674
1.881e-05
0.000583974
0.000546833
0.000503547
0.000448554
0.000373165
0.00027464
0.000151179
2.10592e-05
0.000606652
0.000570012
0.000525989
0.000469263
0.000394412
0.000296728
0.000165901
2.2533e-05
0.000620985
0.000584581
0.000540247
0.000484428
0.000409936
0.000309353
0.000173451
2.27804e-05
0.000623086
0.000586758
0.000542712
0.000485252
0.000409145
0.000307486
0.000171419
2.17305e-05
0.000612336
0.000575774
0.000529853
0.000470784
0.00039431
0.000294036
0.000161974
1.9687e-05
0.0005874
0.000550349
0.000503431
0.000443842
0.000368176
0.000271052
0.000146371
1.70141e-05
0.000564704
0.000529953
0.000487641
0.000433504
0.000358317
0.000258752
0.000138654
1.94648e-05
0.000596128
0.000560021
0.000518107
0.000463772
0.000387894
0.000284884
0.000156899
2.18379e-05
0.000620149
0.000584812
0.00054279
0.000486798
0.000412412
0.00031015
0.000173838
2.35145e-05
0.000635694
0.000600196
0.000558045
0.000503962
0.000429885
0.000327558
0.00018421
2.40724e-05
0.000639217
0.000605501
0.000562213
0.000506264
0.000431713
0.000329372
0.000184557
2.33451e-05
0.000629528
0.000594789
0.000551112
0.000494796
0.000420493
0.000319029
0.000176404
2.15436e-05
0.000607485
0.000572798
0.00052867
0.000472025
0.000397869
0.000297786
0.000160618
1.89813e-05
0.000565538
0.000528626
0.000482617
0.000425796
0.000354593
0.000263078
0.00014347
1.55702e-05
0.000595783
0.000558796
0.000513036
0.000456136
0.000383962
0.000289306
0.000161568
1.8072e-05
0.000613027
0.000577211
0.000532329
0.000475709
0.00040301
0.000306425
0.000173664
2.00553e-05
0.000616319
0.000581359
0.000537905
0.000482229
0.00040962
0.000312402
0.000178016
2.11565e-05
0.000607887
0.000573326
0.000529591
0.000474736
0.000402648
0.00030608
0.000173577
2.11301e-05
0.000586919
0.000554008
0.000509653
0.000453196
0.000382178
0.000287839
0.000160813
1.99447e-05
0.000556523
0.000524033
0.000481266
0.000423854
0.000352908
0.000261704
0.000142714
1.79859e-05
0.00056945
0.000531651
0.000484919
0.000427355
0.000355333
0.000263029
0.000143026
1.56082e-05
0.000600766
0.000562237
0.000515367
0.00045752
0.00038438
0.000288808
0.000160683
1.80716e-05
0.000619113
0.000581402
0.000534918
0.000476961
0.000403083
0.000305474
0.000172367
2.00087e-05
0.000624603
0.000587071
0.000541453
0.000483787
0.000409699
0.000311347
0.000176611
2.10926e-05
0.000615945
0.000578844
0.000533741
0.000476486
0.000402867
0.000305285
0.000172499
2.10964e-05
0.000593603
0.000558828
0.000512139
0.000454088
0.000382195
0.000287274
0.000160267
1.99835e-05
0.000561004
0.000526388
0.000479292
0.000421562
0.000350637
0.000259462
0.000141375
1.79798e-05
0.000573288
0.000535484
0.000488504
0.000430374
0.000357482
0.000264106
0.000143144
1.57068e-05
0.000604065
0.000565574
0.000518567
0.000460264
0.000386299
0.000289623
0.000160527
1.81648e-05
0.000622462
0.000584426
0.000537658
0.000479264
0.000404618
0.00030593
0.000171912
2.00846e-05
0.000627577
0.000590463
0.000544031
0.000485789
0.000410982
0.000311649
0.000176083
2.116e-05
0.000617457
0.00058114
0.000535708
0.000478191
0.000404023
0.000305661
0.000172179
2.11703e-05
0.000595517
0.000557361
0.00051158
0.000454777
0.000382744
0.000287395
0.000160069
2.00633e-05
0.000562633
0.000526818
0.000478915
0.000420305
0.000349192
0.000257894
0.000140151
1.80008e-05
0.000579615
0.000541981
0.000494746
0.000435941
0.000361969
0.000267126
0.000144405
1.58822e-05
0.000609416
0.000571498
0.000524572
0.000465826
0.0003909
0.000292775
0.00016188
1.83555e-05
0.000626689
0.000589497
0.000543105
0.000484553
0.000409123
0.000309058
0.000173283
2.02856e-05
0.00063016
0.000594128
0.000548717
0.000490673
0.000415323
0.000314751
0.000177497
2.13689e-05
0.000619651
0.000584476
0.000539789
0.000482621
0.000408114
0.000308712
0.000173672
2.13801e-05
0.000597961
0.000562027
0.000516121
0.000458787
0.000386423
0.000290269
0.000161628
2.02562e-05
0.000564922
0.000527308
0.000480075
0.00042271
0.000352181
0.000260353
0.000141545
1.81335e-05
0.000591966
0.000555063
0.000508241
0.000449322
0.000374362
0.000277284
0.00015089
1.63273e-05
0.000620174
0.000583236
0.00053695
0.000478334
0.000402709
0.000302609
0.000168153
1.8805e-05
0.000635742
0.000599863
0.00055431
0.000496036
0.000420052
0.00031818
0.000178981
2.07127e-05
0.000638666
0.000603751
0.000559034
0.000501256
0.00042538
0.000323082
0.000182542
2.17637e-05
0.000628161
0.000593739
0.00054934
0.000492337
0.000417317
0.000316269
0.000178117
2.17366e-05
0.000604352
0.000570396
0.000525362
0.000467997
0.000395118
0.000297379
0.000165743
2.05669e-05
0.000571975
0.000536486
0.000489002
0.000431818
0.000360843
0.000267378
0.000145562
1.83774e-05
0.000614162
0.00058083
0.000538013
0.000482345
0.000407637
0.000304872
0.000163901
1.9007e-05
0.000638367
0.000604586
0.000562266
0.000507561
0.000433816
0.000329823
0.000181742
2.1502e-05
0.000651067
0.000618058
0.000576047
0.000521541
0.000448034
0.000343727
0.000192404
2.32285e-05
0.000652786
0.000620084
0.000578132
0.000523479
0.000449909
0.000346053
0.000195109
2.39333e-05
0.000640675
0.000607102
0.000565835
0.000511242
0.000437998
0.000335683
0.000188972
2.34586e-05
0.000618556
0.000585007
0.000539382
0.000484652
0.000412854
0.000313732
0.000174698
2.18969e-05
0.000587185
0.000553304
0.000506253
0.000449696
0.000378637
0.000283111
0.00015409
1.9425e-05
6.64179e-06
4.29511e-05
6.06037e-05
6.48649e-05
6.18856e-05
5.56434e-05
4.96309e-05
4.5502e-05
6.64521e-06
4.29239e-05
6.06759e-05
6.51924e-05
6.26043e-05
5.67747e-05
5.10565e-05
4.70793e-05
6.64607e-06
4.28946e-05
6.0734e-05
6.54877e-05
6.3265e-05
5.78103e-05
5.23422e-05
4.84808e-05
6.64536e-06
4.2859e-05
6.07391e-05
6.56307e-05
6.36249e-05
5.83892e-05
5.30588e-05
4.92479e-05
6.64372e-06
4.28312e-05
6.07087e-05
6.56289e-05
6.36645e-05
5.84526e-05
5.31125e-05
4.92738e-05
6.64069e-06
4.28095e-05
6.06606e-05
6.55442e-05
6.3515e-05
5.81935e-05
5.27155e-05
4.87562e-05
6.63707e-06
4.27963e-05
6.06123e-05
6.54308e-05
6.33008e-05
5.78485e-05
5.22363e-05
4.81684e-05
7.16468e-06
4.71285e-05
6.1704e-05
6.08086e-05
5.38908e-05
4.80579e-05
4.61511e-05
4.65297e-05
7.16016e-06
4.7121e-05
6.19789e-05
6.14644e-05
5.48e-05
4.89797e-05
4.68837e-05
4.70438e-05
7.15461e-06
4.7125e-05
6.22605e-05
6.21247e-05
5.57114e-05
4.98474e-05
4.75051e-05
4.74528e-05
7.14874e-06
4.71033e-05
6.24036e-05
6.25125e-05
5.62806e-05
5.03881e-05
4.78774e-05
4.76895e-05
7.14298e-06
4.7067e-05
6.24075e-05
6.25864e-05
5.63989e-05
5.04585e-05
4.78553e-05
4.75999e-05
7.13736e-06
4.70232e-05
6.23289e-05
6.24896e-05
5.6277e-05
5.02449e-05
4.75377e-05
4.72076e-05
7.13327e-06
4.69798e-05
6.21996e-05
6.2297e-05
5.60669e-05
5.00283e-05
4.73353e-05
4.70309e-05
7.95599e-06
4.81473e-05
5.72387e-05
5.31973e-05
4.91806e-05
5.27083e-05
6.04188e-05
6.67966e-05
7.92635e-06
4.84568e-05
5.79542e-05
5.36762e-05
4.90424e-05
5.1852e-05
5.87312e-05
6.44184e-05
7.89679e-06
4.87741e-05
5.87222e-05
5.42394e-05
4.88919e-05
5.08027e-05
5.67863e-05
6.18667e-05
7.86882e-06
4.89512e-05
5.92264e-05
5.46813e-05
4.8914e-05
5.018e-05
5.55806e-05
6.03311e-05
7.84893e-06
4.89877e-05
5.93933e-05
5.48594e-05
4.89568e-05
4.99489e-05
5.51643e-05
5.98534e-05
7.83958e-06
4.89237e-05
5.93517e-05
5.49428e-05
4.90814e-05
4.99621e-05
5.51982e-05
5.99882e-05
7.84095e-06
4.87532e-05
5.90943e-05
5.49018e-05
4.93133e-05
5.03557e-05
5.58511e-05
6.09361e-05
9.14537e-06
4.05941e-05
4.75921e-05
5.44211e-05
6.95751e-05
9.08839e-05
0.000108574
0.00011799
9.06389e-06
4.07003e-05
4.68556e-05
5.20254e-05
6.60638e-05
8.60441e-05
0.000102393
0.000110731
9.00003e-06
4.11996e-05
4.66056e-05
4.98662e-05
6.22612e-05
8.06763e-05
9.5648e-05
0.000103028
8.9539e-06
4.17822e-05
4.68468e-05
4.87238e-05
5.96594e-05
7.69755e-05
9.11839e-05
9.81572e-05
8.92216e-06
4.21179e-05
4.7151e-05
4.84021e-05
5.85605e-05
7.55203e-05
8.97056e-05
9.68126e-05
8.90503e-06
4.21501e-05
4.7411e-05
4.86669e-05
5.84615e-05
7.54986e-05
9.01728e-05
9.78361e-05
8.90329e-06
4.1727e-05
4.73488e-05
4.92769e-05
5.92524e-05
7.66572e-05
9.20533e-05
0.000100504
1.28588e-05
4.89767e-05
8.01771e-05
0.000117678
0.000156197
0.00018453
0.000201251
0.000205756
1.25717e-05
4.48438e-05
7.43305e-05
0.000112022
0.000149156
0.000176076
0.000191219
0.000194145
1.23516e-05
4.12592e-05
6.88151e-05
0.00010624
0.000141629
0.00016683
0.000180262
0.00018164
1.21145e-05
3.86904e-05
6.4191e-05
0.000100384
0.00013478
0.000159349
0.000172245
0.000173168
1.18975e-05
3.73159e-05
6.12569e-05
9.58994e-05
0.000130322
0.000155445
0.000169002
0.000170528
1.17628e-05
3.71565e-05
6.02586e-05
9.3188e-05
0.000128156
0.000154473
0.000169408
0.00017224
1.17533e-05
3.79207e-05
6.09819e-05
9.2712e-05
0.000128118
0.000155561
0.000171909
0.000176202
3.15552e-05
0.000132957
0.000206748
0.000259364
0.000294092
0.000314996
0.000322882
0.000317998
3.25956e-05
0.000136788
0.000209564
0.000259349
0.000291541
0.000309765
0.0003147
0.000306683
3.49389e-05
0.000141183
0.000213125
0.000259315
0.000288228
0.000303275
0.000305029
0.0002939
3.60787e-05
0.000139653
0.000209842
0.000254185
0.000281829
0.000295827
0.000296557
0.000284385
3.54756e-05
0.000133915
0.000201726
0.000245943
0.000274386
0.000289616
0.000291644
0.0002806
3.37795e-05
0.000127568
0.000193416
0.000238532
0.000268674
0.000286137
0.00029061
0.000281909
3.20891e-05
0.00012253
0.000186923
0.000233185
0.000265082
0.000284747
0.000291672
0.000285427
6.59865e-06
4.32463e-05
6.14953e-05
6.64926e-05
6.41375e-05
5.77408e-05
5.04541e-05
4.47235e-05
6.60459e-06
4.33762e-05
6.15258e-05
6.62166e-05
6.33692e-05
5.6451e-05
4.89085e-05
4.3249e-05
6.60925e-06
4.34765e-05
6.14974e-05
6.58858e-05
6.26252e-05
5.53821e-05
4.78372e-05
4.24086e-05
6.60887e-06
4.35223e-05
6.1443e-05
6.56578e-05
6.22118e-05
5.49178e-05
4.75654e-05
4.24189e-05
6.60252e-06
4.35393e-05
6.14723e-05
6.57502e-05
6.2459e-05
5.54282e-05
4.83754e-05
4.34406e-05
6.59622e-06
4.35543e-05
6.15853e-05
6.60499e-05
6.30178e-05
5.6215e-05
4.92149e-05
4.41823e-05
6.59039e-06
4.35533e-05
6.17468e-05
6.65214e-05
6.39053e-05
5.74267e-05
5.04124e-05
4.51029e-05
7.1599e-06
4.82041e-05
6.41923e-05
6.45256e-05
5.76454e-05
4.92931e-05
4.37474e-05
4.16248e-05
7.18613e-06
4.8324e-05
6.3919e-05
6.35742e-05
5.59363e-05
4.73254e-05
4.22021e-05
4.06441e-05
7.21028e-06
4.83598e-05
6.35132e-05
6.26234e-05
5.45499e-05
4.61692e-05
4.18465e-05
4.10143e-05
7.22443e-06
4.83202e-05
6.31346e-05
6.1992e-05
5.38757e-05
4.60339e-05
4.25674e-05
4.23904e-05
7.22769e-06
4.83783e-05
6.32149e-05
6.22957e-05
5.45576e-05
4.72542e-05
4.43e-05
4.44873e-05
7.2268e-06
4.85557e-05
6.36697e-05
6.31152e-05
5.5675e-05
4.83506e-05
4.51141e-05
4.50516e-05
7.22197e-06
4.87738e-05
6.43538e-05
6.4344e-05
5.73002e-05
4.97061e-05
4.56638e-05
4.48673e-05
8.03275e-06
5.10182e-05
6.24868e-05
5.84263e-05
5.04608e-05
4.63084e-05
4.86222e-05
5.30566e-05
8.07592e-06
5.0562e-05
6.09823e-05
5.61587e-05
4.82758e-05
4.53503e-05
4.91922e-05
5.4463e-05
8.11523e-06
4.98763e-05
5.92664e-05
5.42245e-05
4.72555e-05
4.6264e-05
5.18791e-05
5.80583e-05
8.14447e-06
4.91333e-05
5.77582e-05
5.30467e-05
4.74369e-05
4.83853e-05
5.54686e-05
6.23631e-05
8.16825e-06
4.9155e-05
5.78574e-05
5.37492e-05
4.90741e-05
5.08889e-05
5.86169e-05
6.59508e-05
8.19028e-06
4.98918e-05
5.91849e-05
5.5258e-05
5.03099e-05
5.13657e-05
5.8507e-05
6.56333e-05
8.20695e-06
5.09959e-05
6.13005e-05
5.74935e-05
5.16361e-05
5.08712e-05
5.64685e-05
6.27995e-05
9.10337e-06
4.75081e-05
5.3473e-05
5.12276e-05
5.27886e-05
6.49681e-05
8.11038e-05
9.19684e-05
9.20015e-06
4.55877e-05
5.06601e-05
4.99729e-05
5.46901e-05
7.0456e-05
8.80074e-05
9.88284e-05
9.32345e-06
4.35993e-05
4.88944e-05
5.12278e-05
6.00108e-05
7.9191e-05
9.77038e-05
0.000108324
9.45308e-06
4.22686e-05
4.86545e-05
5.41583e-05
6.64032e-05
8.77376e-05
0.00010662
0.00011698
9.54286e-06
4.28231e-05
5.01113e-05
5.70364e-05
7.05834e-05
9.22498e-05
0.00011121
0.000121691
9.56804e-06
4.43599e-05
5.14456e-05
5.73636e-05
6.96935e-05
9.01292e-05
0.0001088
0.000119429
9.55712e-06
4.65675e-05
5.31001e-05
5.65465e-05
6.595e-05
8.39544e-05
0.000101906
0.000112541
1.13108e-05
4.25556e-05
6.05896e-05
8.18966e-05
0.00011213
0.000144161
0.000165601
0.000173634
1.1883e-05
4.62653e-05
6.81196e-05
9.38902e-05
0.000128166
0.000160555
0.000180528
0.00018695
1.26142e-05
5.1571e-05
7.83689e-05
0.000109206
0.000147261
0.000178553
0.000196932
0.000201842
1.32781e-05
5.67354e-05
8.76959e-05
0.000122245
0.000162325
0.000192368
0.000209446
0.000213263
1.35613e-05
5.97415e-05
9.23679e-05
0.000128033
0.000168099
0.000197662
0.000214125
0.000217598
1.34446e-05
5.95698e-05
9.11022e-05
0.000125384
0.000163762
0.000193681
0.000210061
0.000213518
1.30855e-05
5.71242e-05
8.60242e-05
0.00011761
0.000153696
0.000183759
0.000200433
0.000204059
2.46554e-05
0.00010823
0.000171262
0.000224211
0.000262266
0.000285505
0.000295613
0.000292163
2.47294e-05
0.000113648
0.000180446
0.000235864
0.000275291
0.000299463
0.000309964
0.000306349
2.49074e-05
0.000119402
0.000190136
0.00024775
0.000288142
0.000312961
0.000323823
0.000320289
2.51715e-05
0.000125061
0.000198807
0.000257821
0.000298468
0.000323152
0.000333724
0.000329888
2.53078e-05
0.000129496
0.000204384
0.000263727
0.000303931
0.00032774
0.000337356
0.000332763
2.49262e-05
0.000128634
0.000203211
0.000262509
0.00030278
0.000325925
0.000334508
0.00032887
2.46776e-05
0.00012393
0.000199051
0.000258323
0.00029844
0.000320647
0.000327947
0.000321023
6.58978e-06
4.35077e-05
6.17182e-05
6.65508e-05
6.40272e-05
5.76393e-05
5.06498e-05
4.52964e-05
6.59532e-06
4.34022e-05
6.14358e-05
6.5988e-05
6.31111e-05
5.64547e-05
4.94703e-05
4.43302e-05
6.60657e-06
4.3319e-05
6.12111e-05
6.55981e-05
6.25967e-05
5.59814e-05
4.92869e-05
4.45091e-05
6.6203e-06
4.32712e-05
6.10973e-05
6.54212e-05
6.24088e-05
5.59197e-05
4.9504e-05
4.50075e-05
6.63146e-06
4.32272e-05
6.10263e-05
6.53367e-05
6.23439e-05
5.59672e-05
4.97523e-05
4.54457e-05
6.63779e-06
4.31423e-05
6.0859e-05
6.50715e-05
6.19701e-05
5.55643e-05
4.94317e-05
4.52491e-05
6.63881e-06
4.30119e-05
6.0622e-05
6.47211e-05
6.1485e-05
5.4972e-05
4.8783e-05
4.4586e-05
7.21678e-06
4.87258e-05
6.43803e-05
6.44767e-05
5.75555e-05
4.99418e-05
4.57161e-05
4.47156e-05
7.2108e-06
4.8358e-05
6.35788e-05
6.31677e-05
5.59102e-05
4.84491e-05
4.47554e-05
4.42063e-05
7.20933e-06
4.8006e-05
6.28865e-05
6.21819e-05
5.49855e-05
4.81102e-05
4.52413e-05
4.52483e-05
7.20941e-06
4.7807e-05
6.25589e-05
6.16927e-05
5.46069e-05
4.82108e-05
4.58978e-05
4.62162e-05
7.20475e-06
4.76856e-05
6.24254e-05
6.14766e-05
5.44598e-05
4.83808e-05
4.63971e-05
4.68641e-05
7.19297e-06
4.74906e-05
6.20958e-05
6.09953e-05
5.39425e-05
4.80814e-05
4.63407e-05
4.6926e-05
7.17441e-06
4.72163e-05
6.16404e-05
6.04335e-05
5.32975e-05
4.74231e-05
4.56504e-05
4.61966e-05
8.19678e-06
5.1082e-05
6.15904e-05
5.78406e-05
5.17918e-05
5.05567e-05
5.56535e-05
6.16796e-05
8.15893e-06
4.997e-05
5.96148e-05
5.56558e-05
5.01117e-05
5.00767e-05
5.6087e-05
6.2454e-05
8.12606e-06
4.88417e-05
5.78254e-05
5.4131e-05
4.96784e-05
5.13865e-05
5.85197e-05
6.52447e-05
8.10331e-06
4.83632e-05
5.70972e-05
5.35041e-05
4.97165e-05
5.2638e-05
6.03839e-05