/*--------------------------------*- C++ -*----------------------------------*\
| =========                 |                                                 |
| \\      /  F ield         | OpenFOAM: The Open Source CFD Toolbox           |
|  \\    /   O peration     | Version:  plus.master.MPPICInterFoam            |
|   \\  /    A nd           | Web:      www.OpenFOAM.com                      |
|    \\/     M anipulation  |                                                 |
\*---------------------------------------------------------------------------*/
FoamFile
{
    version     2.0;
    format      ascii;
    class       volScalarField;
    location    "3.4";
    object      p;
}
// * * * * * * * * * * * * * * * * * * * * * * * * * * * * * * * * * * * * * //

dimensions      [1 -1 -2 0 0 0 0];

internalField   nonuniform List<scalar> 
11822
(
744.211
744.723
744.523
743.539
742.288
741.825
742.369
747.038
750.768
751.181
748.615
743.24
742.208
742.049
753.121
756.28
756.736
756.207
746.696
743.124
742.207
755.171
756.914
756.414
756.863
747.952
743.562
742.183
752.584
755.9
756.86
755.638
746.598
743.434
742.536
746.379
750.31
751.589
748.053
743.532
742.617
742.171
743.264
743.756
743.916
743.513
742.627
742.417
742.132
660.275
661.541
660.985
658.111
655.932
654.652
653.993
664.673
671.02
671.501
664.698
658.363
656.099
654.502
674.441
684.469
684.585
677.036
662.754
657.631
655.128
678.304
684.923
685.806
680.532
664.869
658.378
655.345
673.256
682.687
683.796
675.578
662.707
657.749
655.22
663.239
669.332
670.494
663.606
658.849
656.78
654.424
659.774
661.481
661.425
658.493
657.091
655.373
653.769
566.637
566.956
566.194
564.324
562.958
562.069
561.186
567.695
571.118
571.216
566.11
564.238
563.085
561.773
572.577
585.37
587.055
572.886
566.064
564.046
562.072
577.883
597.718
597.115
578.339
567.772
564.655
562.343
572.557
586.527
588.417
572.504
566.811
564.233
562.117
567.092
570.744
571.327
567.33
564.975
563.986
561.442
566.201
566.576
566.467
564.6
564.142
562.474
560.786
471.277
471.094
470.463
469.364
468.28
467.333
466.29
470.952
471.421
471.132
469.397
468.753
467.768
466.516
471.711
476.028
477.156
470.391
469.142
468.127
466.628
474.358
489.982
497.86
471.616
469.744
468.383
466.678
471.353
475.868
476.767
470.126
469.382
468.001
466.399
470.09
470.594
470.599
469.543
469.038
468.162
465.907
470.23
470.017
469.276
468.269
468.366
466.71
465.377
376.595
376.451
375.806
374.527
372.955
371.603
369.887
376.929
376.948
376.457
374.649
373.245
371.652
369.953
377.522
379.008
380.308
375.402
373.347
371.698
369.959
378.205
385.46
399.235
374.952
373.357
371.591
369.796
376.026
376.808
376.213
374.142
372.796
371.094
369.356
375.578
375.347
374.88
373.504
372.522
371.251
368.735
374.723
374.49
373.155
372.167
371.901
369.553
368.017
283.838
283.883
283.014
281.114
278.523
276.245
273.446
285.317
285.381
284.529
281.7
278.917
276.191
273.633
286.563
288.23
288.526
282.727
279.106
276.216
273.76
286.853
292.69
304.543
281.96
278.788
275.881
273.514
284.176
285.038
283.274
280.499
277.693
275.093
272.827
282.43
282.392
281.319
279
276.763
274.257
271.817
280.669
280.428
278.937
277.13
275.947
272.765
270.706
741.931
741.912
741.899
741.907
741.954
742.024
742.09
742.125
741.921
741.859
741.873
741.922
741.983
742.051
742.109
742.141
741.765
741.717
741.763
741.839
741.926
742.011
742.084
742.128
741.71
741.681
741.741
741.829
741.921
742.009
742.084
742.131
741.783
741.724
741.767
741.846
741.932
742.012
742.081
742.123
741.871
741.811
741.828
741.879
741.944
742.011
742.07
742.104
742.052
742.042
742
741.964
741.968
741.999
742.041
742.068
652.899
652.105
651.43
650.871
650.497
650.272
650.146
650.08
653.09
652.04
651.254
650.702
650.328
650.089
649.947
649.877
653.134
651.954
651.143
650.574
650.183
649.933
649.79
649.725
653.177
651.974
651.135
650.544
650.136
649.873
649.726
649.662
653.17
651.973
651.129
650.54
650.136
649.876
649.73
649.665
652.991
651.918
651.12
650.555
650.173
649.931
649.795
649.724
652.859
652.059
651.307
650.703
650.289
650.036
649.898
649.835
560.18
559.292
558.484
557.825
557.358
557.047
556.843
556.698
560.33
559.166
558.241
557.55
557.054
556.714
556.491
556.341
560.269
559.023
558.059
557.337
556.81
556.447
556.217
556.075
560.273
559
557.987
557.236
556.684
556.303
556.068
555.932
560.215
558.93
557.93
557.178
556.63
556.255
556.027
555.899
560.031
558.843
557.891
557.173
556.657
556.309
556.097
555.972
559.877
558.93
558.041
557.32
556.806
556.469
556.267
556.147
465.371
464.623
463.843
463.247
462.779
462.411
462.107
461.869
465.427
464.42
463.576
462.911
462.398
461.997
461.67
461.422
465.27
464.206
463.329
462.631
462.09
461.67
461.337
461.097
465.144
464.074
463.162
462.448
461.892
461.464
461.131
460.901
464.998
463.933
463.035
462.328
461.783
461.368
461.048
460.829
464.812
463.814
462.962
462.289
461.778
461.392
461.091
460.879
464.673
463.858
463.074
462.424
461.929
461.558
461.27
461.064
368.692
367.753
366.903
366.237
365.704
365.311
365.058
364.857
368.662
367.534
366.579
365.81
365.205
364.768
364.509
364.294
368.507
367.316
366.304
365.476
364.819
364.347
364.083
363.911
368.268
367.073
366.028
365.175
364.502
364.022
363.762
363.614
367.908
366.737
365.72
364.894
364.249
363.797
363.562
363.435
367.476
366.381
365.439
364.679
364.097
363.701
363.503
363.389
367.083
366.178
365.358
364.683
364.169
363.831
363.664
363.532
271.718
270.604
269.829
269.335
269.001
268.718
268.44
268.217
271.934
270.623
269.653
269.008
268.589
268.292
268.075
267.959
272.008
270.625
269.569
268.834
268.354
268.04
267.882
267.892
271.744
270.356
269.277
268.536
268.065
267.787
267.706
267.822
271.122
269.8
268.806
268.15
267.763
267.563
267.55
267.721
270.236
269.072
268.239
267.731
267.472
267.373
267.416
267.589
269.468
268.577
267.979
267.65
267.506
267.458
267.488
267.59
742.269
741.976
741.929
742.744
743.005
741.454
741.697
741.883
742.833
741.773
741.372
741.204
741.3
742.427
741.919
742.248
744.801
742.438
741.618
741.4
741.477
742.193
742.354
742.799
746.209
742.789
741.724
741.509
741.64
741.955
742.904
743.18
745.189
742.734
741.922
741.766
741.905
742.238
743.055
743.381
743.381
742.365
742.077
742.048
742.2
742.509
742.972
743.415
742.918
742.8
742.729
742.632
742.661
742.841
743.207
743.515
657.7
656.596
655.655
655.459
655.016
652.749
652.58
652.57
658.451
656.334
654.738
653.438
654.592
653.263
653.071
653.101
661.742
657.576
655.49
654.143
653.408
654.339
653.327
653.547
664.373
658.426
655.901
654.461
653.602
654.319
653.783
654.151
662.443
658.018
655.868
654.567
653.81
653.613
654.196
654.269
659.202
656.956
655.483
654.461
653.828
653.589
654.254
654.261
658.083
657.002
655.874
654.877
654.211
653.926
654.054
654.179
565.416
564.856
563.768
564.012
562.576
561.273
560.91
560.76
565.323
564.372
563.291
562.623
563.294
561.611
561.323
561.237
566.29
564.649
563.441
562.403
563.398
562.49
562.096
562.024
567.973
565.194
563.868
562.938
562.521
563.455
562.201
562.401
566.614
564.947
563.777
562.833
562.16
563.528
562.457
562.793
565.678
564.719
563.693
562.856
562.288
562.777
562.405
562.638
565.813
565.185
564.225
563.278
562.579
562.206
562.306
562.374
469.838
469.396
470.997
468.908
468.107
467.355
466.917
466.673
469.764
469.244
468.596
469.462
469.234
468.02
467.611
467.384
470.156
469.82
469.23
468.906
470.314
468.769
468.393
468.203
471.196
470.4
469.731
469.128
470.317
469.715
469.117
468.933
470.701
470.426
469.915
469.453
469.357
470.339
468.934
469.065
470.844
470.562
469.96
469.39
468.958
470.622
468.9
469
471.299
471.058
470.409
469.709
469.178
469.784
468.554
468.531
374.379
374.821
374.469
372.46
371.846
371.273
370.893
370.659
375.07
374.674
374.221
374.466
373.205
372.481
372.055
371.788
376.01
375.688
374.735
376.083
374.448
373.812
373.267
372.935
377.005
376.474
375.912
375.462
376.36
374.724
374.125
373.786
376.867
376.473
375.882
375.166
376.469
375.379
374.614
374.256
376.697
376.307
375.648
374.951
375.256
375.299
374.143
373.981
376.651
376.265
375.575
374.876
374.452
375.028
373.466
373.358
280.39
282.315
278.096
277.034
276.106
275.234
274.425
273.778
281.577
280.983
281.119
279.718
278.202
277.051
276.029
275.232
283.779
282.939
282.148
282.499
279.856
278.644
277.454
276.51
285.356
284.353
283.262
282.678
281.47
279.912
278.527
277.507
285.348
284.523
283.637
282.661
283.2
280.667
279.157
278.192
284.568
283.872
283.002
282.058
283.305
280.269
279.023
278.221
283.641
282.907
281.992
280.922
280.844
279.22
278.326
277.707
743.293
742.986
742.733
742.643
742.645
742.767
743.07
743.344
743.04
742.408
742.235
742.206
745.453
742.646
742.81
743.037
742.705
742.351
742.552
743.388
744.209
741.971
742.246
742.548
742.156
741.987
742.727
743.68
741.765
741.87
742.155
742.443
741.682
742.294
743.626
741.533
741.651
741.838
742.08
742.304
741.987
742.025
741.617
741.641
741.757
741.908
742.074
742.21
742.195
742.248
742.167
742.076
742.047
742.081
742.151
742.222
658.208
656.633
655.339
654.39
653.747
653.506
653.544
653.677
657.885
655.629
654.311
654.061
655.079
652.919
652.899
653.008
656.788
654.706
653.492
654.785
654.531
652.385
652.272
652.392
655.147
653.576
654.265
654.005
651.956
651.636
651.627
651.761
653.873
654.712
653.713
651.964
651.443
651.197
651.155
651.22
653.586
652.925
651.932
651.36
650.983
650.785
650.718
650.714
653.33
652.733
651.99
651.325
650.87
650.604
650.473
650.427
565.91
564.669
563.515
562.555
561.881
561.591
561.616
561.683
565.109
563.455
562.402
563.151
562.177
560.994
560.928
560.954
563.854
562.315
561.306
562.98
561.554
560.609
560.362
560.349
562.349
561.373
562.514
561.548
560.293
559.746
559.533
559.508
561.784
563.007
560.752
559.883
559.263
558.887
558.703
558.621
561.245
560.433
559.518
558.871
558.401
558.096
557.914
557.817
560.657
560.019
559.185
558.461
557.938
557.591
557.376
557.26
471.2
470.426
469.584
468.785
468.044
468.657
467.635
467.638
470.573
469.762
469.157
469.085
469.437
467.132
467.024
466.939
469.639
468.887
468.71
469.49
467.095
466.544
466.331
466.195
468.443
468.993
469.07
466.949
466.153
465.71
465.443
465.277
468.15
468.801
466.16
465.581
465.082
464.71
464.434
464.243
467.429
466.046
465.199
464.584
464.122
463.762
463.473
463.269
466.263
465.326
464.595
463.955
463.447
463.05
462.738
462.528
376.224
375.49
374.694
373.821
374.737
373.765
372.908
372.778
376.053
375.487
374.928
374.185
376.112
372.422
372.133
371.931
375.262
374.68
374.646
375.04
372.044
371.572
371.236
370.993
373.888
375.453
374.607
371.746
371.008
370.458
370.086
369.821
373.307
372.765
370.894
370.079
369.455
368.977
368.638
368.39
371.842
370.25
369.23
368.483
367.905
367.465
367.163
366.955
370.517
368.704
367.91
367.203
366.634
366.212
365.942
365.767
283.003
282.202
281.382
280.377
282.839
279.052
277.998
277.42
283.189
282.522
281.734
280.718
282.205
277.989
277.036
276.365
282.334
281.592
280.944
280.877
278.283
277.004
276.014
275.245
280.452
281.156
279.344
277.463
276.44
275.464
274.534
273.784
278.22
277.075
275.863
274.935
274.158
273.414
272.636
272.005
275.62
274.197
273.167
272.416
271.83
271.293
270.746
270.304
273.243
271.676
270.919
270.378
269.98
269.628
269.273
268.998
741.881
741.904
741.858
741.812
741.811
741.85
741.902
741.938
741.84
741.664
741.573
741.566
741.609
741.682
741.764
741.824
742.073
741.57
741.373
741.357
741.42
741.515
741.619
741.701
742.007
742.095
741.304
741.194
741.253
741.367
741.493
741.588
742.506
742.886
741.166
741.11
741.154
741.272
741.406
741.502
742.919
741.395
746.031
740.898
741.051
741.208
741.365
741.46
742.418
741.635
743.038
741.483
741.274
741.377
741.522
741.63
652.883
652.133
651.383
650.757
650.329
650.074
649.942
649.887
653.714
652.515
651.566
650.892
650.441
650.165
650.022
649.966
654.772
653.079
651.933
651.174
650.67
650.355
650.195
650.138
656.465
653.691
652.341
651.474
650.933
650.596
650.425
650.371
656.396
655.547
652.426
651.715
651.224
650.928
650.778
650.725
657.835
654.918
656.549
652.086
651.634
651.374
651.245
651.192
657.59
655.5
659.433
653.318
652.626
652.215
652.007
651.921
560.028
559.131
558.24
557.504
556.984
556.649
556.452
556.339
560.84
559.634
558.61
557.834
557.285
556.922
556.702
556.576
561.684
560.255
559.163
558.348
557.752
557.344
557.097
556.957
563.833
560.866
559.782
558.94
558.314
557.877
557.609
557.453
564.045
562.142
560.64
559.697
559.018
558.569
558.301
558.123
563.365
566.288
562.693
560.636
559.847
559.389
559.113
558.896
565.098
564.039
566.624
560.96
560.545
560.17
559.899
559.696
464.901
464.091
463.307
462.656
462.165
461.801
461.521
461.325
465.573
464.591
463.725
463.046
462.539
462.16
461.868
461.661
466.335
465.254
464.354
463.648
463.106
462.696
462.385
462.167
467.185
465.941
465.059
464.352
463.789
463.358
463.036
462.811
469.303
466.775
465.863
465.16
464.583
464.145
463.826
463.6
467.821
471.47
467.359
466.1
465.512
465.068
464.736
464.494
469.538
470.824
470.831
466.792
466.354
465.961
465.627
465.358
367.411
366.512
365.724
365.073
364.579
364.248
364.079
363.966
368.407
367.412
366.551
365.861
365.34
364.981
364.78
364.641
369.626
368.526
367.631
366.907
366.344
365.939
365.693
365.517
370.662
369.617
368.745
368.008
367.41
366.965
366.678
366.471
372.953
371.05
369.812
369.076
368.435
367.952
367.64
367.421
372.381
375.185
371.496
370.163
369.463
368.94
368.604
368.377
373.174
375.231
374.389
371.099
370.456
369.944
369.589
369.336
269.812
268.888
268.31
267.986
267.847
267.774
267.753
267.791
271.491
270.381
269.569
269.051
268.748
268.545
268.381
268.274
273.563
272.261
271.279
270.58
270.097
269.71
269.352
269.081
275.365
274.068
272.979
272.135
271.494
270.953
270.426
270.016
278.179
277.323
274.51
273.475
272.657
272.005
271.388
270.878
277.995
280.434
276.157
274.634
273.624
272.856
272.191
271.675
278.649
280.39
279.248
275.579
274.681
273.857
273.119
272.558
740.02
739.97
739.983
740.048
740.154
740.292
740.45
740.615
739.751
739.699
739.712
739.778
739.888
740.031
740.196
740.368
739.531
739.477
739.489
739.556
739.668
739.816
739.987
740.164
739.373
739.317
739.327
739.394
739.505
739.653
739.825
740.004
739.288
739.23
739.237
739.3
739.407
739.55
739.718
739.894
739.28
739.22
739.223
739.279
739.379
739.515
739.676
739.845
739.353
739.291
739.289
739.338
739.43
739.554
739.702
739.858
642.165
642.089
642.105
642.24
642.425
642.652
642.911
643.185
641.825
641.752
641.782
641.913
642.106
642.346
642.619
642.91
641.55
641.478
641.512
641.646
641.846
642.096
642.382
642.685
641.358
641.284
641.319
641.453
641.653
641.906
642.196
642.503
641.26
641.183
641.214
641.344
641.536
641.781
642.066
642.369
641.263
641.18
641.202
641.318
641.5
641.734
642.006
642.295
641.371
641.284
641.298
641.403
641.571
641.789
642.044
642.317
544.001
543.917
543.99
544.142
544.387
544.71
545.118
545.588
543.549
543.466
543.539
543.716
543.988
544.34
544.78
545.281
543.189
543.108
543.187
543.38
543.672
544.048
544.513
545.038
542.947
542.866
542.949
543.153
543.443
543.825
544.299
544.834
542.838
542.754
542.835
543.047
543.312
543.679
544.144
544.673
542.869
542.776
542.837
543.008
543.274
543.626
544.071
544.579
543.044
542.946
542.992
543.139
543.379
543.702
544.115
544.591
445.228
445.148
445.248
445.464
445.818
446.373
447.121
447.961
444.592
444.524
444.652
444.913
445.31
445.922
446.727
447.62
444.075
444.025
444.182
444.48
444.917
445.575
446.424
447.358
443.747
443.701
443.866
444.168
444.629
445.305
446.172
447.125
443.635
443.58
443.727
444
444.461
445.127
445.983
446.928
443.745
443.674
443.8
444.056
444.457
445.074
445.89
446.802
444.063
443.974
444.068
444.277
444.622
445.18
445.94
446.801
345.862
345.888
346.051
346.394
347.143
348.266
349.534
350.823
345.006
345.046
345.228
345.647
346.527
347.735
349.084
350.451
344.309
344.37
344.583
345.091
346.085
347.354
348.756
350.175
343.924
343.983
344.193
344.722
345.749
347.036
348.459
349.907
343.855
343.895
344.079
344.553
345.538
346.802
348.215
349.659
344.082
344.093
344.235
344.609
345.491
346.697
348.067
349.477
344.594
344.59
344.689
344.953
345.695
346.802
348.095
349.44
244.605
245.326
246.463
247.78
249.288
250.972
252.738
254.441
243.039
243.995
245.442
246.948
248.565
250.356
252.232
254.045
241.409
242.848
244.678
246.415
248.126
249.964
251.888
253.764
240.64
242.323
244.247
246.016
247.738
249.591
251.543
253.461
240.696
242.307
244.108
245.787
247.46
249.289
251.234
253.152
241.441
242.723
244.255
245.763
247.34
249.112
251.017
252.904
242.648
243.641
244.904
246.166
247.553
249.182
250.997
252.813
741.245
741.19
741.183
741.212
741.267
741.345
741.441
741.543
741.444
741.389
741.382
741.41
741.464
741.54
741.634
741.735
741.609
741.553
741.546
741.574
741.627
741.702
741.794
741.895
741.736
741.68
741.674
741.702
741.755
741.83
741.922
742.021
741.821
741.767
741.762
741.793
741.848
741.923
742.014
742.113
741.858
741.805
741.803
741.837
741.895
741.972
742.065
742.163
741.841
741.79
741.791
741.829
741.892
741.975
742.073
742.174
643.786
643.692
643.677
643.721
643.809
643.929
644.078
644.242
644.021
643.925
643.905
643.944
644.028
644.143
644.286
644.447
644.217
644.117
644.094
644.128
644.209
644.32
644.458
644.615
644.368
644.267
644.241
644.271
644.35
644.46
644.595
644.75
644.47
644.368
644.345
644.382
644.458
644.566
644.7
644.853
644.513
644.412
644.392
644.433
644.516
644.629
644.765
644.916
644.49
644.391
644.374
644.416
644.518
644.644
644.79
644.946
546.192
546.052
546.017
546.054
546.141
546.283
546.492
546.761
546.462
546.318
546.276
546.302
546.377
546.505
546.703
546.969
546.685
546.537
546.49
546.51
546.574
546.688
546.879
547.142
546.86
546.711
546.662
546.678
546.728
546.84
547.028
547.289
546.981
546.831
546.783
546.798
546.857
546.971
547.157
547.414
547.035
546.883
546.839
546.863
546.933
547.057
547.246
547.498
547.01
546.859
546.826
546.873
546.955
547.097
547.298
547.552
448.29
448.117
448.068
448.061
448.102
448.273
448.639
449.156
448.603
448.422
448.354
448.321
448.338
448.491
448.856
449.376
448.856
448.67
448.587
448.536
448.536
448.683
449.054
449.577
449.06
448.873
448.785
448.733
448.734
448.873
449.246
449.765
449.206
449.018
448.934
448.891
448.906
449.055
449.424
449.928
449.266
449.072
448.994
448.965
448.999
449.164
449.532
450.024
449.226
449.027
448.966
448.964
449.022
449.216
449.589
450.078
350.063
349.973
349.912
349.83
349.832
350.253
351.015
351.908
350.401
350.282
350.19
350.087
350.077
350.523
351.293
352.185
350.657
350.524
350.425
350.329
350.311
350.804
351.581
352.47
350.871
350.736
350.653
350.597
350.532
351.075
351.857
352.731
351.027
350.886
350.816
350.782
350.789
351.332
352.095
352.939
351.082
350.913
350.831
350.8
350.887
351.403
352.173
353.009
351.023
350.823
350.745
350.738
350.854
351.412
352.191
353.027
251.104
250.992
251.33
251.772
252.352
253.156
254.223
255.388
251.552
251.392
251.674
252.089
252.67
253.494
254.577
255.741
251.809
251.639
251.95
252.42
253.036
253.883
254.973
256.129
252.021
251.844
252.213
252.748
253.4
254.262
255.342
256.47
252.167
251.918
252.346
252.962
253.682
254.564
255.626
256.71
252.202
251.826
252.249
252.85
253.629
254.566
255.655
256.735
252.059
251.626
252.009
252.627
253.497
254.503
255.622
256.704
741.765
741.716
741.72
741.763
741.832
741.92
742.023
742.129
741.629
741.582
741.589
741.635
741.709
741.803
741.912
742.025
741.439
741.393
741.402
741.452
741.531
741.632
741.75
741.873
741.203
741.157
741.168
741.221
741.306
741.416
741.544
741.677
740.929
740.883
740.895
740.952
741.043
741.161
741.299
741.442
740.63
740.584
740.597
740.657
740.754
740.879
741.025
741.176
740.32
740.274
740.288
740.351
740.452
740.584
740.735
740.892
644.394
644.3
644.291
644.345
644.453
644.588
644.743
644.908
644.222
644.133
644.129
644.191
644.306
644.449
644.614
644.789
643.981
643.895
643.897
643.966
644.089
644.243
644.421
644.613
643.68
643.596
643.604
643.682
643.815
643.983
644.179
644.39
643.329
643.248
643.262
643.351
643.496
643.68
643.893
644.124
642.946
642.869
642.891
642.99
643.148
643.347
643.576
643.822
642.551
642.477
642.504
642.615
642.785
642.998
643.241
643.5
546.886
546.741
546.717
546.776
546.879
547.039
547.256
547.523
546.659
546.524
546.511
546.581
546.7
546.869
547.102
547.389
546.342
546.217
546.213
546.293
546.426
546.614
546.874
547.193
545.951
545.832
545.839
545.934
546.086
546.3
546.593
546.947
545.499
545.387
545.406
545.519
545.695
545.938
546.263
546.651
545.005
544.901
544.934
545.067
545.269
545.541
545.896
546.313
544.494
544.4
544.447
544.599
544.826
545.124
545.506
545.948
449.053
448.859
448.816
448.843
448.933
449.152
449.548
450.056
448.753
448.576
448.546
448.586
448.695
448.949
449.385
449.929
448.339
448.181
448.16
448.215
448.361
448.653
449.144
449.738
447.83
447.686
447.678
447.749
447.932
448.283
448.835
449.485
447.24
447.11
447.122
447.221
447.444
447.854
448.464
449.168
446.591
446.477
446.514
446.65
446.917
447.38
448.04
448.793
445.907
445.813
445.881
446.058
446.371
446.88
447.583
448.378
350.771
350.566
350.513
350.56
350.75
351.316
352.143
353.009
350.369
350.213
350.196
350.279
350.513
351.151
352.017
352.918
349.837
349.734
349.745
349.851
350.131
350.885
351.815
352.773
349.197
349.126
349.163
349.29
349.67
350.513
351.515
352.538
348.449
348.399
348.47
348.647
349.119
350.041
351.117
352.208
347.618
347.601
347.702
347.925
348.496
349.485
350.626
351.785
346.742
346.752
346.888
347.175
347.827
348.879
350.081
351.304
251.553
251.074
251.511
252.245
253.273
254.394
255.577
256.693
250.997
250.687
251.203
251.998
253.065
254.243
255.487
256.654
250.345
250.241
250.807
251.659
252.75
254
255.327
256.569
249.595
249.667
250.267
251.185
252.323
253.639
255.04
256.358
248.6
248.828
249.496
250.497
251.725
253.126
254.611
256.012
247.348
247.768
248.593
249.685
250.985
252.473
254.046
255.543
246.013
246.56
247.517
248.716
250.127
251.718
253.388
254.992
739.498
739.436
739.431
739.475
739.559
739.676
739.815
739.962
739.703
739.641
739.635
739.675
739.753
739.862
739.994
740.135
739.947
739.886
739.879
739.916
739.988
740.09
740.213
740.344
740.213
740.154
740.146
740.18
740.248
740.343
740.459
740.582
740.487
740.429
740.42
740.452
740.515
740.604
740.712
740.828
740.757
740.702
740.695
740.725
740.784
740.867
740.969
741.078
741.012
740.958
740.952
740.981
741.038
741.119
741.217
741.322
641.577
641.488
641.496
641.59
641.744
641.944
642.181
642.435
641.858
641.768
641.771
641.856
641.997
642.183
642.403
642.641
642.185
642.094
642.092
642.168
642.297
642.469
642.674
642.897
642.529
642.437
642.429
642.499
642.616
642.774
642.963
643.17
642.872
642.777
642.755
642.826
642.935
643.08
643.254
643.446
643.204
643.113
643.103
643.155
643.253
643.386
643.548
643.726
643.509
643.419
643.408
643.457
643.55
643.676
643.831
644
543.347
543.244
543.278
543.405
543.618
543.91
544.29
544.734
543.744
543.635
543.655
543.762
543.95
544.214
544.567
544.985
544.189
544.072
544.079
544.167
544.33
544.567
544.891
545.281
544.646
544.523
544.519
544.588
544.727
544.938
545.232
545.591
545.088
544.963
544.957
545.004
545.12
545.304
545.568
545.897
545.497
545.365
545.341
545.393
545.5
545.669
545.908
546.209
545.867
545.734
545.705
545.75
545.849
546.006
546.229
546.511
444.539
444.438
444.505
444.671
444.964
445.462
446.164
446.971
445.125
445.007
445.041
445.16
445.401
445.849
446.505
447.269
445.753
445.617
445.62
445.695
445.89
446.283
446.888
447.606
446.373
446.222
446.201
446.239
446.394
446.728
447.276
447.945
446.949
446.788
446.754
446.769
446.886
447.161
447.648
448.265
447.463
447.299
447.262
447.277
447.367
447.592
448.023
448.591
447.908
447.74
447.701
447.712
447.777
447.975
448.366
448.9
345.263
345.273
345.365
345.551
346.183
347.189
348.385
349.644
346.094
346.103
346.146
346.225
346.758
347.683
348.807
349.992
346.969
346.952
346.94
346.936
347.358
348.2
349.249
350.368
347.801
347.756
347.712
347.663
347.943
348.698
349.668
350.72
348.533
348.461
348.417
348.364
348.443
349.134
350.035
351.028
349.14
349.064
349.02
348.957
349.007
349.562
350.386
351.327
349.626
349.543
349.499
349.44
349.477
349.938
350.715
351.623
243.878
244.688
245.887
247.057
248.285
249.744
251.394
253.062
245.297
246.052
247.114
248.063
249.089
250.396
251.915
253.458
246.78
247.342
248.195
248.986
249.87
251.042
252.441
253.875
248.15
248.48
249.103
249.779
250.557
251.61
252.899
254.238
249.305
249.385
249.799
250.388
251.091
252.054
253.254
254.519
250.069
250.033
250.385
250.904
251.558
252.44
253.567
254.779
250.536
250.39
250.745
251.263
251.927
252.786
253.875
255.057
837.592
837.465
837.471
740.746
740.842
740.927
740.998
741.054
741.091
741.108
741.111
740.505
740.605
740.693
740.768
740.826
740.865
740.883
740.885
740.306
740.408
740.499
740.576
740.635
740.674
740.693
740.696
740.147
740.25
740.341
740.418
740.476
740.515
740.533
740.536
740.034
740.135
740.224
740.298
740.355
740.391
740.408
740.409
739.982
740.081
740.17
740.246
740.305
740.346
740.366
740.368
739.981
740.071
740.15
740.215
740.265
740.297
740.315
740.316
643.409
643.576
643.726
643.855
643.957
644.028
644.064
644.074
643.145
643.32
643.476
643.609
643.714
643.787
643.824
643.834
642.929
643.11
643.27
643.407
643.514
643.587
643.625
643.636
642.751
642.934
643.096
643.233
643.34
643.413
643.451
643.462
642.614
642.795
642.956
643.092
643.197
643.269
643.306
643.317
642.53
642.703
642.858
642.989
643.091
643.162
643.2
643.215
642.541
642.707
642.856
642.983
643.081
643.148
643.182
643.19
545.979
546.272
546.537
546.763
546.945
547.074
547.146
547.177
545.695
546.003
546.278
546.512
546.698
546.83
546.904
546.935
545.469
545.787
546.07
546.309
546.498
546.631
546.706
546.737
545.272
545.594
545.88
546.121
546.31
546.444
546.518
546.55
545.107
545.427
545.712
545.951
546.139
546.272
546.346
546.377
544.998
545.309
545.585
545.818
546.003
546.133
546.205
546.236
544.987
545.282
545.548
545.773
545.951
546.078
546.148
546.178
448.63
449.12
449.557
449.93
450.23
450.451
450.587
450.665
448.328
448.842
449.298
449.682
449.989
450.213
450.351
450.428
448.096
448.628
449.097
449.489
449.799
450.024
450.163
450.239
447.877
448.418
448.892
449.286
449.597
449.822
449.961
450.036
447.676
448.214
448.686
449.079
449.388
449.612
449.751
449.825
447.525
448.049
448.51
448.895
449.199
449.42
449.556
449.63
447.488
447.987
448.429
448.801
449.096
449.31
449.443
449.516
351.815
352.53
353.165
353.711
354.159
354.509
354.768
354.987
351.5
352.252
352.916
353.479
353.935
354.284
354.536
354.74
351.269
352.053
352.737
353.311
353.768
354.112
354.357
354.547
351.025
351.824
352.519
353.096
353.551
353.893
354.132
354.316
350.775
351.572
352.265
352.841
353.294
353.633
353.871
354.054
350.564
351.342
352.019
352.584
353.031
353.367
353.604
353.789
350.478
351.22
351.869
352.416
352.852
353.182
353.419
353.609
255.758
256.707
257.532
258.25
258.861
259.387
259.88
260.374
255.447
256.45
257.318
258.064
258.684
259.195
259.654
260.097
255.236
256.29
257.194
257.954
258.568
259.059
259.484
259.879
254.971
256.053
256.974
257.739
258.346
258.826
259.232
259.603
254.665
255.747
256.666
257.428
258.031
258.505
258.907
259.275
254.377
255.427
256.321
257.07
257.668
258.14
258.548
258.93
254.22
255.218
256.069
256.789
257.375
257.846
258.266
258.672
741.628
741.692
741.748
741.796
741.833
741.856
741.864
741.861
741.82
741.883
741.94
741.988
742.026
742.049
742.057
742.054
741.979
742.042
742.099
742.148
742.186
742.209
742.217
742.214
742.104
742.167
742.224
742.272
742.31
742.333
742.341
742.338
742.195
742.256
742.312
742.359
742.395
742.417
742.424
742.42
742.244
742.304
742.358
742.404
742.439
742.46
742.466
742.462
742.255
742.315
742.369
742.414
742.448
742.468
742.474
742.471
644.383
644.494
644.598
644.689
644.762
644.812
644.835
644.838
644.588
644.698
644.802
644.894
644.968
645.019
645.042
645.045
644.754
644.865
644.969
645.062
645.137
645.188
645.212
645.215
644.888
644.999
645.103
645.195
645.27
645.322
645.345
645.348
644.989
645.098
645.201
645.291
645.365
645.415
645.437
645.439
645.049
645.155
645.255
645.344
645.415
645.463
645.484
645.486
645.079
645.184
645.281
645.367
645.436
645.482
645.502
645.502
547.013
547.216
547.407
547.577
547.715
547.814
547.867
547.886
547.221
547.426
547.62
547.791
547.932
548.033
548.087
548.106
547.393
547.597
547.791
547.965
548.107
548.21
548.264
548.284
547.538
547.74
547.933
548.106
548.248
548.35
548.404
548.424
547.656
547.853
548.043
548.211
548.351
548.45
548.501
548.519
547.734
547.926
548.109
548.273
548.408
548.503
548.552
548.568
547.786
547.975
548.154
548.313
548.442
548.534
548.579
548.593
449.618
449.979
450.317
450.615
450.858
451.038
451.147
451.205
449.841
450.204
450.545
450.846
451.093
451.276
451.387
451.447
450.038
450.397
450.734
451.034
451.283
451.468
451.58
451.642
450.215
450.565
450.895
451.19
451.436
451.62
451.731
451.794
450.362
450.699
451.019
451.305
451.544
451.722
451.83
451.891
450.446
450.774
451.084
451.362
451.594
451.766
451.869
451.925
450.498
450.823
451.129
451.401
451.627
451.793
451.89
451.94
352.634
353.178
353.687
354.146
354.533
354.837
355.054
355.242
352.908
353.45
353.96
354.42
354.809
355.117
355.338
355.532
353.179
353.706
354.199
354.646
355.031
355.338
355.564
355.767
353.416
353.919
354.39
354.822
355.197
355.501
355.73
355.94
353.593
354.072
354.521
354.935
355.296
355.59
355.816
356.025
353.646
354.112
354.551
354.955
355.308
355.594
355.808
356.007
353.661
354.126
354.563
354.965
355.311
355.588
355.787
355.968
256.33
257.031
257.69
258.32
258.886
259.374
259.828
260.285
256.674
257.37
258.031
258.664
259.226
259.712
260.171
260.638
257.037
257.703
258.329
258.933
259.481
259.964
260.429
260.914
257.338
257.963
258.549
259.122
259.654
260.128
260.595
261.095
257.529
258.116
258.669
259.217
259.724
260.182
260.642
261.141
257.531
258.101
258.644
259.182
259.679
260.125
260.564
261.036
257.492
258.061
258.608
259.146
259.637
260.071
260.484
260.914
742.214
742.276
742.331
742.378
742.413
742.435
742.442
742.438
742.116
742.183
742.243
742.293
742.331
742.355
742.364
742.361
741.972
742.045
742.11
742.165
742.208
742.234
742.245
742.243
741.785
741.864
741.935
741.995
742.041
742.07
742.082
742.081
741.557
741.642
741.717
741.781
741.83
741.861
741.874