/*--------------------------------*- C++ -*----------------------------------*\
| =========                 |                                                 |
| \\      /  F ield         | OpenFOAM: The Open Source CFD Toolbox           |
|  \\    /   O peration     | Version:  plus.master.MPPICInterFoam            |
|   \\  /    A nd           | Web:      www.OpenFOAM.com                      |
|    \\/     M anipulation  |                                                 |
\*---------------------------------------------------------------------------*/
FoamFile
{
    version     2.0;
    format      ascii;
    class       volScalarField;
    location    "3.4";
    object      p_rgh;
}
// * * * * * * * * * * * * * * * * * * * * * * * * * * * * * * * * * * * * * //

dimensions      [1 -1 -2 0 0 0 0];

internalField   nonuniform List<scalar> 
11822
(
5713.39
5703.4
5668.24
5712.17
5709.16
5691.92
5636.88
4983.33
3540.56
3214.07
4105.44
5541.77
5711.44
5702.8
2626.75
1452.38
1439.89
1657.24
4761.91
5712.2
5711.35
1813.42
1439.06
1439.22
1440.12
4188.44
5709.05
5678.06
2514.29
1454.33
1440.13
1835.45
4853.77
5670.82
5559.77
4875.21
3355.57
2973.9
4380.4
5522.41
5450.92
5623.15
5707.91
5630.16
5541.15
5613.81
5400.16
5425.86
5701.93
5726.6
5727.71
5726.05
5722.78
5718.05
5666.9
5646.8
5375.96
4600.47
4389.6
5103.76
5692.66
5719.53
5683.38
3665.25
1701.53
1574.92
3015.61
5517.29
5723.76
5720.64
2504.4
1381.08
1382.42
2201.19
5315.28
5724.24
5699.55
3531.93
1513.31
1418.74
3309.99
5569.53
5638.42
5689.51
5450.02
4723.33
4436.28
5393.7
5566.37
5436.71
5702.75
5725.92
5725.41
5707.5
5627.96
5388.31
5441.85
5718.22
5730.12
5730.41
5729.63
5727.41
5720.64
5650.09
5676.4
5652.85
5507
5414.14
5561.7
5726.49
5718.43
5680.3
4990.58
3143.44
2700.17
4879.38
5723.06
5727.39
5722.71
4113.42
1401.03
1307.09
4324.04
5716.05
5727.99
5724.14
4843.3
2802.1
2370.93
4933.24
5723.11
5629.33
5725.07
5711.67
5621.47
5556.45
5684.41
5505.46
5435.05
5724.26
5729.33
5729.55
5707.67
5544.68
5385.86
5479.76
5724.18
5731.89
5731.7
5731.06
5729.58
5716.5
5631.45
5673.16
5671.87
5638.77
5586.7
5624.35
5729.19
5721.3
5702.11
5314.51
4403.58
3790.77
5297.28
5729.68
5728.64
5723.55
4899.81
2283.65
1276.95
5305.52
5730.16
5728.96
5727.1
5332.61
4534.3
4133.04
5282.52
5727.25
5636.76
5727.01
5730.19
5729.51
5727.29
5693.19
5423.32
5426.4
5726.52
5730.3
5729.91
5676.96
5435.54
5380.77
5529.06
5725.99
5734.32
5734.18
5733.53
5732.21
5702.91
5604.54
5652.46
5639.29
5637.39
5617.71
5643.19
5730.88
5727.78
5724.46
5304.08
4613.98
3978.12
5270.83
5731.04
5729.4
5724.68
5074.86
3141.14
1559.54
5305.42
5731.06
5729.31
5727.2
5512.32
5096.14
4940.5
5335.99
5729.58
5664.96
5727.09
5732.89
5732.59
5731.92
5696.74
5445.45
5448.55
5726.47
5731.93
5731.22
5664.05
5450.09
5375.27
5591.07
5725.75
5738.69
5738.73
5737.86
5735.96
5705.85
5625.89
5665.23
5591.4
5627.55
5650.52
5658.8
5733.61
5729.42
5728.29
5283.6
4493.77
3913.28
5174.2
5733.93
5731.05
5727.89
5239.23
3252.7
1701.01
5119.48
5733.62
5730.72
5728.23
5619.45
5111.61
5016.83
5365.44
5731.97
5709.83
5727.68
5736.84
5736.8
5735.67
5717.11
5583.16
5626.24
5726.67
5735.06
5734.76
5690.77
5588.51
5471.47
5675.37
5725.56
5709.01
5711.16
5711.08
5711.16
5711.21
5711.28
5711.35
5711.38
5708
5711.1
5711.12
5711.18
5711.24
5711.31
5711.36
5711.4
5707.69
5710.89
5711.01
5711.09
5711.18
5711.27
5711.34
5711.38
5708.05
5710.93
5710.92
5711.08
5711.18
5711.26
5711.34
5711.39
5699.84
5710.98
5710.96
5711.1
5711.19
5711.27
5711.34
5711.38
5711.08
5711.07
5711.08
5711.13
5711.2
5711.27
5711.33
5711.36
5711.31
5711.3
5711.26
5711.22
5711.22
5711.25
5711.3
5711.32
5718.36
5718.47
5717.8
5717.25
5716.87
5716.65
5716.52
5716.45
5718.26
5718.4
5717.61
5717.08
5716.7
5716.46
5716.32
5716.25
5711.99
5718.24
5717.52
5716.95
5716.56
5716.31
5716.16
5716.1
5718.48
5717.74
5717.37
5716.92
5716.51
5716.25
5716.1
5716.04
5718.54
5718
5717.23
5716.91
5716.51
5716.25
5716.1
5716.04
5719.37
5718.29
5717.48
5716.93
5716.55
5716.31
5716.17
5716.1
5719.23
5718.43
5717.68
5717.08
5716.66
5716.41
5716.27
5716.21
5722.2
5715.64
5721.97
5721.32
5720.85
5720.54
5720.34
5720.19
5723.49
5722.45
5721.72
5721.04
5720.55
5720.21
5719.98
5719.83
5716.1
5722.5
5721.55
5720.83
5720.3
5719.94
5719.71
5719.57
5722.15
5717.82
5721.1
5720.73
5720.18
5719.8
5719.56
5719.43
5723.33
5720.7
5720.96
5720.67
5720.12
5719.75
5719.52
5719.39
5723.52
5722.34
5721.36
5720.67
5720.15
5719.8
5719.59
5719.47
5723.37
5722.42
5721.53
5720.81
5720.3
5719.96
5719.76
5719.64
5713.85
5704.39
5724.46
5723.86
5723.39
5723.02
5722.72
5722.48
5725.42
5723.65
5724.19
5723.52
5723.01
5722.61
5722.28
5722.03
5718.08
5724.81
5723.94
5723.24
5722.7
5722.28
5721.95
5721.71
5721.67
5719.79
5722.53
5723.06
5722.5
5722.08
5721.74
5721.51
5724.86
5721.52
5723.08
5722.94
5722.4
5721.98
5721.66
5721.44
5725.42
5724.42
5723.56
5722.9
5722.39
5722
5721.7
5721.49
5725.28
5724.47
5723.69
5723.04
5722.54
5722.17
5721.88
5721.68
5688.57
5703.86
5724.63
5723.97
5723.44
5723.04
5722.79
5722.59
5725.88
5720.66
5724.22
5723.53
5722.94
5722.5
5722.24
5722.03
5719.63
5723.99
5722.68
5723.21
5722.55
5722.08
5721.81
5721.64
5721.25
5719.82
5720.76
5722.91
5722.23
5721.75
5721.49
5721.35
5724.66
5721.42
5722.73
5722.63
5721.98
5721.53
5721.29
5721.17
5725.21
5724.11
5723.17
5722.41
5721.83
5721.43
5721.23
5721.12
5724.81
5723.91
5723.09
5722.41
5721.9
5721.56
5721.4
5721.26
5694.07
5710.7
5724.42
5724.19
5723.85
5723.57
5723.29
5723.07
5726.71
5721.56
5724.14
5723.84
5723.44
5723.14
5722.93
5722.81
5726.17
5724.28
5722.22
5723.47
5723.2
5722.89
5722.73
5722.74
5724.4
5721.27
5721.55
5723.28
5722.92
5722.64
5722.56
5722.67
5725.36
5723.12
5723.07
5722.98
5722.61
5722.41
5722.4
5722.57
5725.09
5723.92
5723.09
5722.58
5722.32
5722.22
5722.27
5722.44
5724.32
5723.43
5722.83
5722.5
5722.36
5722.31
5722.34
5722.44
5711.41
5711.22
5711.14
5328.1
5319.63
5693.7
5710.95
5711.14
5711.89
5710.98
5710.57
5696.9
5640.74
5514.43
5700.61
5711.5
5391.68
5711.61
5710.83
5710.55
5710.65
5598.81
5686.6
5712
4828.48
5711.83
5710.87
5710.62
5710.83
5711.2
5633.55
5709.58
5420.54
5711.93
5711.18
5710.78
5711.1
5711.49
5638.97
5709.31
5712.49
5711.62
5711.33
5711.17
5711.38
5711.76
5695.24
5710.88
5712.17
5712.05
5711.58
5711.85
5711.91
5712.1
5700.22
5711.95
5723.78
5722.89
5700.3
5255.04
5257.66
5709.37
5718.95
5718.94
5722.94
5722.63
5721.07
5661.38
5314.77
5516.3
5716.5
5719.48
5638.21
5723.91
5721.84
5720.49
5631.2
5455.93
5703.45
5719.92
5332.96
5724.67
5722.26
5720.82
5718.42
5476.68
5642.69
5720.2
5628.25
5724.36
5722.24
5720.94
5720.18
5639.54
5584.93
5717.62
5722.6
5723.33
5721.86
5720.83
5720.2
5719.96
5621.52
5718.89
5724.4
5723.37
5721.83
5721.25
5720.58
5720.3
5689.68
5719.85
5728.56
5725.2
5601.15
5251.76
5371.9
5724.09
5724.4
5724.25
5727.82
5727.81
5726.76
5415.75
5290.97
5589.14
5724.73
5724.73
5727.88
5728.12
5726.92
5722.68
5324.39
5455.43
5722.95
5725.52
5707.19
5728.66
5727.36
5726.43
5519.53
5375.06
5676.52
5725.89
5726.4
5728.44
5727.27
5726.32
5714.54
5373.07
5587.64
5725.84
5726.87
5728.21
5727.18
5726.35
5725.78
5514.26
5624.14
5725.73
5729.24
5728.68
5727.3
5726.77
5726.07
5725.46
5697.25
5725.67
5729.82
5674.23
5108.49
5390.6
5613.3
5727.97
5727.53
5727.29
5729.86
5725.71
5665.3
5287.15
5292.3
5708.08
5728.22
5728
5730.6
5730.34
5719.27
5535.37
5306.05
5590.18
5729.01
5728.82
5731.76
5731
5730.34
5689.9
5326.7
5401.75
5720.66
5729.55
5731.3
5731.04
5730.53
5721.28
5504.51
5363.59
5635.19
5729.68
5730.97
5731.17
5730.57
5730
5722.2
5363.87
5658.11
5729.61
5731.82
5731.67
5730.88
5730.32
5729.79
5490.35
5717.14
5729.14
5639.64
5157.46
5138.09
5664
5713.45
5729
5728.62
5728.39
5732.53
5649.43
5313.36
5281.28
5491.7
5730.21
5729.79
5729.52
5733.64
5733.39
5604.08
5282.69
5511.31
5716.96
5731
5730.67
5734.71
5734.2
5726.24
5538.22
5302.11
5585.32
5731.86
5731.52
5734.59
5734.2
5733.61
5651.94
5286.15
5378.65
5708.63
5731.99
5734.43
5734.04
5733.38
5688.59
5380.88
5381.34
5713.49
5731.71
5734.23
5734
5733.07
5723.32
5732.17
5493.01
5730.98
5731.09
5482.03
4867.54
5454.94
5717.52
5730.61
5730.08
5729.28
5728.63
5735.31
5554.96
5258.89
5379.03
5710.24
5731.9
5730.88
5730.08
5738.58
5732.35
5517.82
5328.43
5711.88
5733.48
5732.3
5731.36
5740.2
5739.19
5707.54
5507.28
5529.97
5719.4
5733.38
5732.36
5740.2
5739.37
5738.48
5598.98
5267.38
5547
5733.01
5733.04
5739.42
5738.72
5737.85
5524.74
5190.6
5515.91
5733.17
5733.07
5738.37
5737.76
5727
5615.97
5387.86
5662.73
5733.18
5732.56
5712.55
5712.24
5711.99
5698.56
5689.03
5708.91
5711.65
5712.54
5712.29
5711.66
5711.49
5628.47
5114.53
5600.4
5712.07
5712.29
5711.95
5711.6
5709.65
5133.1
5113.28
5588.39
5711.5
5711.8
5711.07
5710.03
5195.83
5112
5553.77
5711.13
5711.41
5711.7
5695.9
5335.58
5168.82
5644.22
5710.91
5711.09
5711.33
5711.56
5568.25
5547.41
5700.28
5710.9
5711.01
5711.16
5711.33
5711.47
5700.08
5711.49
5711.41
5711.33
5711.3
5711.34
5711.41
5711.48
5724.58
5723.01
5721.71
5705.09
5711.44
5719.88
5717.7
5719.98
5724.26
5722
5720.68
5369.77
5204.6
5627.29
5719.27
5719.38
5723.14
5721.07
5652.55
5108.6
5109.17
5647.56
5718.65
5718.77
5718.57
5651.34
5108
5107.76
5630.92
5717.94
5718
5718.14
5651.67
5197.78
5218.37
5698.29
5717.82
5717.57
5717.52
5717.59
5590.35
5559.71
5713.94
5717.73
5717.36
5717.16
5717.09
5717.09
5717.7
5712.08
5718.32
5717.7
5717.24
5716.98
5716.85
5716.8
5729.4
5728.16
5727.01
5714.95
5724.84
5720.57
5722.13
5725.16
5728.6
5726.95
5724.86
5200.95
5337.29
5641.98
5724.42
5724.45
5727.33
5719.57
5452.78
5102.79
5271.91
5690.18
5723.86
5723.84
5702.67
5424.69
5102.71
5149.85
5703.28
5721.7
5723.03
5723
5510.24
5176.94
5433.5
5718.21
5722.76
5722.38
5722.19
5722.11
5572.88
5604.11
5722.63
5722.36
5721.89
5721.59
5721.41
5721.31
5708.83
5717.39
5722.68
5721.95
5721.43
5721.08
5720.87
5720.75
5731.81
5731.04
5730.2
5724.91
5665.77
5491.28
5726.38
5728.25
5731.18
5730.37
5719.69
5281.85
5177.44
5622.97
5727.64
5727.55
5730.25
5696.54
5232.03
5095.51
5500.64
5687.6
5726.94
5726.81
5663.17
5108
5095.81
5436.67
5726.18
5722.11
5726.06
5725.89
5397.3
5166.46
5652.75
5725.93
5725.69
5725.32
5725.04
5724.86
5465.47
5692.93
5725.81
5725.2
5724.73
5724.37
5724.08
5723.88
5606.94
5725.94
5725.21
5724.57
5724.06
5723.66
5723.35
5723.14
5733.95
5733.22
5732.42
5723.23
5240.17
5398.72
5730.42
5730.51
5733.78
5733.22
5728.92
5433.03
5028.75
5572.27
5729.86
5729.66
5732.99
5691.18
5235.03
5086.44
5580.34
5684.39
5728.97
5728.72
5642.44
5093.68
5089.28
5683.68
5728.74
5724.47
5727.82
5727.55
5407.8
5341.68
5705.56
5727.81
5727.19
5726.71
5726.37
5726.12
5451.84
5727.96
5726.96
5726.21
5725.64
5725.2
5724.89
5724.69
5507.77
5726.43
5725.64
5724.93
5724.37
5723.94
5723.67
5723.5
5737.85
5737.05
5730.99
5647.86
5019.8
5452.92
5732.85
5732.27
5738.04
5737.37
5734
5397.19
5019.17
5556.13
5731.89
5731.22
5737.18
5709.11
5410.67
5190.53
5406.09
5697.81
5730.87
5730.1
5663.9
5339.48
5419.26
5690.95
5711.17
5727.84
5729.38
5728.63
5608.61
5656.43
5721.54
5729.79
5729.01
5728.19
5727.49
5726.86
5587.12
5729.04
5728.02
5727.27
5726.68
5726.14
5725.6
5725.15
5604.37
5726.52
5725.76
5725.23
5724.83
5724.48
5724.12
5723.85
5710.08
5711.13
5711.11
5711.07
5711.07
5711.11
5711.16
5711.19
5641.4
5710.9
5710.83
5710.82
5710.86
5710.94
5711.02
5711.08
5368.65
5676.9
5710.63
5710.61
5710.68
5710.77
5710.87
5710.96
5367.84
5307.82
5690.78
5710.45
5710.51
5710.62
5710.75
5710.84
5654.02
5245.49
5574.58
5710.34
5710.41
5710.53
5710.66
5710.76
5712.09
5530.26
4964.92
5665.71
5710.31
5710.46
5710.62
5710.72
5711.65
5689.34
5221.58
5505.04
5710.47
5710.51
5710.78
5710.89
5718.33
5718.5
5717.76
5717.13
5716.7
5716.45
5716.32
5716.26
5712.99
5718.89
5717.94
5717.27
5716.82
5716.54
5716.4
5716.34
5430.35
5715.52
5718.31
5717.55
5717.04
5716.73
5716.57
5716.51
5306.17
5560.67
5718.2
5717.85
5717.31
5716.97
5716.8
5716.75
5511.85
5246.56
5698.62
5718.09
5717.6
5717.3
5717.15
5717.1
5710.07
5281.14
4953.71
5708.75
5718.01
5717.75
5717.62
5717.57
5723.88
5580.69
4837.35
5553.91
5718.97
5718.43
5718.38
5718.3
5723.44
5722.62
5721.73
5721
5720.48
5720.14
5719.95
5719.83
5724.3
5723.13
5722.1
5721.33
5720.78
5720.42
5720.2
5720.07
5590.05
5723.71
5722.66
5721.84
5721.24
5720.84
5720.59
5720.45
5300.96
5714.28
5723.27
5722.43
5721.81
5721.37
5721.1
5720.95
5278.18
5322.3
5723.03
5723.19
5722.51
5722.06
5721.79
5721.62
5629.69
4803.4
5077.66
5723.61
5723.34
5722.88
5722.61
5722.39
5714.18
5209.86
4822.93
5588.88
5722.34
5723.61
5723.39
5723.19
5724.77
5724.7
5723.92
5723.27
5722.78
5722.41
5722.13
5721.94
5726.19
5725.2
5724.34
5723.66
5723.15
5722.77
5722.48
5722.27
5710.99
5725.87
5724.97
5724.25
5723.72
5723.31
5723
5722.78
5375.38
5726.55
5725.67
5724.96
5724.4
5723.97
5723.65
5723.42
5146.76
5350.68
5726.34
5725.77
5725.2
5724.76
5724.44
5724.21
5477.09
4753.78
5178.73
5726.71
5726.12
5725.68
5725.35
5725.11
5600.19
4781.66
4805.78
5662.29
5726.7
5726.57
5726.24
5725.97
5723.95
5724.24
5723.46
5722.8
5722.31
5721.98
5721.81
5721.7
5726.14
5725.14
5724.28
5723.59
5723.07
5722.71
5722.51
5722.37
5727.03
5726.26
5725.36
5724.62
5724.07
5723.67
5723.42
5723.25
5513.29
5727.07
5726.48
5725.4
5725.14
5724.7
5724.41
5724.2
5132.57
5222.54
5718.3
5726.81
5726.17
5725.68
5725.37
5725.15
5249.21
4735.97
5134.75
5727.89
5727.19
5726.67
5726.34
5726.11
5358.63
4736.53
4745.54
5694.19
5728.19
5727.68
5727.32
5727.07
5723.77
5723.74
5723.16
5722.84
5722.7
5722.62
5722.6
5722.64
5726.34
5725.23
5724.42
5723.9
5723.6
5723.4
5723.23
5723.12
5728.41
5727.11
5726.13
5725.35
5724.93
5724.56
5724.2
5723.93
5628.87
5717.62
5727.83
5725.69
5726.27
5725.8
5725.28
5724.87
5121.45
4967
5679.8
5728.33
5727.51
5726.86
5726.24
5725.73
5222.1
4720.28
5137.08
5729.13
5728.47
5727.71
5727.04
5726.53
5356.3
4720.15
4719.54
5679.57
5729.53
5728.71
5727.97
5727.41
5709.28
5709.23
5709.24
5709.3
5709.41
5709.55
5709.71
5709.87
5709.01
5708.95
5708.97
5709.03
5709.14
5709.29
5709.45
5709.62
5708.79
5708.73
5708.74
5708.81
5708.92
5709.07
5709.24
5709.42
5708.63
5708.57
5708.58
5708.65
5708.76
5708.91
5709.08
5709.26
5708.54
5708.49
5708.49
5708.56
5708.66
5708.81
5708.97
5709.15
5708.54
5708.48
5708.48
5708.53
5708.63
5708.77
5708.93
5709.1
5708.61
5708.55
5708.54
5708.59
5708.69
5708.81
5708.96
5709.11
5708.54
5708.46
5708.48
5708.61
5708.8
5709.03
5709.29
5709.56
5708.2
5708.13
5708.16
5708.29
5708.48
5708.72
5708.99
5709.28
5707.92
5707.85
5707.89
5708.02
5708.22
5708.47
5708.76
5709.06
5707.73
5707.66
5707.69
5707.83
5708.03
5708.28
5708.57
5708.88
5707.63
5707.56
5707.59
5707.72
5707.91
5708.16
5708.44
5708.74
5707.64
5707.55
5707.58
5707.69
5707.87
5708.11
5708.38
5708.67
5707.75
5707.66
5707.67
5707.78
5707.95
5708.16
5708.42
5708.69
5707.49
5707.41
5707.48
5707.64
5707.88
5708.2
5708.61
5709.08
5707.04
5706.96
5707.03
5707.21
5707.48
5707.83
5708.27
5708.77
5706.68
5706.6
5706.68
5706.87
5707.17
5707.54
5708.01
5708.53
5706.44
5706.36
5706.44
5706.65
5706.94
5707.32
5707.79
5708.33
5706.33
5706.25
5706.33
5706.54
5706.81
5707.17
5707.64
5708.17
5706.36
5706.27
5706.33
5706.5
5706.77
5707.12
5707.56
5708.07
5706.54
5706.44
5706.49
5706.63
5706.87
5707.2
5707.61
5708.08
5705.84
5705.76
5705.86
5706.08
5706.43
5706.99
5707.73
5708.57
5705.2
5705.14
5705.26
5705.53
5705.92
5706.53
5707.34
5708.23
5704.69
5704.64
5704.79
5705.09
5705.53
5706.19
5707.04
5707.97
5704.36
5704.31
5704.48
5704.78
5705.24
5705.92
5706.78
5707.74
5704.25
5704.19
5704.34
5704.61
5705.07
5705.74
5706.6
5707.54
5704.36
5704.29
5704.41
5704.67
5705.07
5705.69
5706.5
5707.41
5704.68
5704.59
5704.68
5704.89
5705.23
5705.79
5706.55
5707.41
5703.59
5703.62
5703.78
5704.13
5704.87
5706
5707.27
5708.55
5702.74
5702.78
5702.96
5703.38
5704.26
5705.47
5706.82
5708.18
5702.04
5702.1
5702.31
5702.82
5703.82
5705.09
5706.49
5707.91
5701.66
5701.71
5701.92
5702.45
5703.48
5704.77
5706.19
5707.64
5701.59
5701.63
5701.81
5702.28
5703.27
5704.53
5705.95
5707.39
5701.81
5701.82
5701.97
5702.34
5703.22
5704.43
5705.8
5707.21
5702.33
5702.32
5702.42
5702.68
5703.43
5704.53
5705.83
5707.17
5699.46
5700.18
5701.31
5702.63
5704.14
5705.82
5707.59
5709.29
5697.89
5698.85
5700.29
5701.8
5703.42
5705.21
5707.08
5708.9
5696.26
5697.7
5699.53
5701.27
5702.98
5704.81
5706.74
5708.61
5695.49
5697.17
5699.1
5700.87
5702.59
5704.44
5706.39
5708.31
5695.55
5697.16
5698.96
5700.64
5702.31
5704.14
5706.08
5708
5696.29
5697.57
5699.11
5700.61
5702.19
5703.96
5705.87
5707.75
5697.5
5698.49
5699.75
5701.02
5702.4
5704.03
5705.85
5707.66
5710.5
5710.45
5710.44
5710.47
5710.52
5710.6
5710.7
5710.8
5710.7
5710.64
5710.64
5710.67
5710.72
5710.8
5710.89
5710.99
5710.86
5710.81
5710.8
5710.83
5710.88
5710.96
5711.05
5711.15
5710.99
5710.94
5710.93
5710.96
5711.01
5711.09
5711.18
5711.28
5711.08
5711.02
5711.02
5711.05
5711.1
5711.18
5711.27
5711.37
5711.11
5711.06
5711.06
5711.09
5711.15
5711.23
5711.32
5711.42
5711.1
5711.05
5711.05
5711.08
5711.15
5711.23
5711.33
5711.43
5710.16
5710.07
5710.05
5710.1
5710.18
5710.3
5710.45
5710.62
5710.4
5710.3
5710.28
5710.32
5710.4
5710.52
5710.66
5710.82
5710.59
5710.49
5710.47
5710.5
5710.58
5710.69
5710.83
5710.99
5710.74
5710.64
5710.62
5710.65
5710.72
5710.83
5710.97
5711.12
5710.84
5710.74
5710.72
5710.76
5710.83
5710.94
5711.07
5711.23
5710.89
5710.79
5710.77
5710.81
5710.89
5711
5711.14
5711.29
5710.86
5710.77
5710.75
5710.79
5710.89
5711.02
5711.16
5711.32
5709.69
5709.55
5709.51
5709.55
5709.63
5709.78
5709.99
5710.25
5709.96
5709.81
5709.77
5709.8
5709.87
5710
5710.2
5710.46
5710.18
5710.03
5709.98
5710
5710.07
5710.18
5710.37
5710.64
5710.35
5710.2
5710.16
5710.17
5710.22
5710.33
5710.52
5710.78
5710.47
5710.32
5710.28
5710.29
5710.35
5710.46
5710.65
5710.91
5710.53
5710.38
5710.33
5710.36
5710.43
5710.55
5710.74
5710.99
5710.5
5710.35
5710.32
5710.37
5710.45
5710.59
5710.79
5711.05
5708.9
5708.73
5708.68
5708.67
5708.71
5708.89
5709.25
5709.77
5709.22
5709.03
5708.97
5708.93
5708.95
5709.1
5709.47
5709.99
5709.47
5709.28
5709.2
5709.15
5709.15
5709.3
5709.67
5710.19
5709.67
5709.49
5709.4
5709.35
5709.35
5709.49
5709.86
5710.38
5709.82
5709.63
5709.55
5709.5
5709.52
5709.67
5710.04
5710.54
5709.88
5709.68
5709.61
5709.58
5709.61
5709.78
5710.14
5710.64
5709.84
5709.64
5709.58
5709.58
5709.63
5709.83
5710.2
5710.69
5707.79
5707.7
5707.64
5707.56
5707.56
5707.98
5708.75
5709.64
5708.13
5708.01
5707.92
5707.82
5707.81
5708.25
5709.02
5709.92
5708.39
5708.26
5708.16
5708.06
5708.04
5708.54
5709.31
5710.2
5708.6
5708.47
5708.38
5708.33
5708.26
5708.81
5709.59
5710.46
5708.76
5708.62
5708.55
5708.51
5708.52
5709.06
5709.83
5710.67
5708.81
5708.64
5708.56
5708.53
5708.62
5709.13
5709.9
5710.74
5708.75
5708.55
5708.48
5708.47
5708.59
5709.14
5709.92
5710.76
5705.95
5705.84
5706.18
5706.62
5707.2
5708.01
5709.07
5710.24
5706.4
5706.24
5706.52
5706.94
5707.52
5708.34
5709.43
5710.59
5706.66
5706.49
5706.8
5707.27
5707.89
5708.73
5709.82
5710.98
5706.87
5706.69
5707.06
5707.6
5708.25
5709.11
5710.19
5711.32
5707.02
5706.77
5707.2
5707.81
5708.53
5709.41
5710.48
5711.56
5707.05
5706.68
5707.1
5707.7
5708.48
5709.42
5710.51
5711.59
5706.91
5706.48
5706.86
5707.48
5708.35
5709.35
5710.47
5711.55
5711.02
5710.97
5710.98
5711.02
5711.09
5711.18
5711.28
5711.38
5710.88
5710.84
5710.84
5710.89
5710.96
5711.06
5711.17
5711.28
5710.69
5710.65
5710.66
5710.71
5710.79
5710.89
5711.01
5711.13
5710.46
5710.41
5710.42
5710.48
5710.56
5710.67
5710.8
5710.93
5710.18
5710.14
5710.15
5710.21
5710.3
5710.42
5710.55
5710.7
5709.89
5709.84
5709.85
5709.91
5710.01
5710.13
5710.28
5710.43
5709.58
5709.53
5709.54
5709.61
5709.71
5709.84
5709.99
5710.15
5710.77
5710.67
5710.67
5710.72
5710.83
5710.96
5711.12
5711.28
5710.6
5710.51
5710.5
5710.57
5710.68
5710.82
5710.99
5711.16
5710.36
5710.27
5710.27
5710.34
5710.46
5710.62
5710.8
5710.99
5710.05
5709.97
5709.98
5710.06
5710.19
5710.36
5710.55
5710.76
5709.7
5709.62
5709.64
5709.73
5709.87
5710.05
5710.27
5710.5
5709.32
5709.24
5709.27
5709.36
5709.52
5709.72
5709.95
5710.2
5708.93
5708.85
5708.88
5708.99
5709.16
5709.37
5709.62
5709.87
5710.38
5710.23
5710.21
5710.27
5710.37
5710.53
5710.75
5711.02
5710.15
5710.02
5710
5710.07
5710.19
5710.36
5710.6
5710.88
5709.84
5709.71
5709.71
5709.79
5709.92
5710.11
5710.37
5710.69
5709.44
5709.33
5709.33
5709.43
5709.58
5709.79
5710.09
5710.44
5708.99
5708.88
5708.9
5709.01
5709.19
5709.43
5709.76
5710.14
5708.5
5708.39
5708.43
5708.56
5708.76
5709.03
5709.39
5709.81
5707.99
5707.89
5707.94
5708.09
5708.32
5708.62
5709
5709.44
5709.67
5709.47
5709.43
5709.46
5709.55
5709.76
5710.16
5710.67
5709.37
5709.19
5709.16
5709.2
5709.31
5709.56
5710
5710.54
5708.95
5708.79
5708.77
5708.83
5708.97
5709.27
5709.76
5710.35
5708.44
5708.3
5708.29
5708.36
5708.54
5708.9
5709.45
5710.1
5707.85
5707.72
5707.73
5707.83
5708.06
5708.47
5709.08
5709.78
5707.2
5707.09
5707.13
5707.26
5707.53
5707.99
5708.65
5709.41
5706.52
5706.43
5706.49
5706.67
5706.98
5707.49
5708.2
5708.99
5708.5
5708.3
5708.24
5708.29
5708.48
5709.05
5709.87
5710.74
5708.1
5707.94
5707.93
5708.01
5708.24
5708.88
5709.75
5710.65
5707.57
5707.47
5707.48
5707.58
5707.86
5708.62
5709.55
5710.5
5706.93
5706.86
5706.89
5707.02
5707.4
5708.24
5709.25
5710.27
5706.18
5706.13
5706.2
5706.38
5706.85
5707.77
5708.85
5709.94
5705.35
5705.33
5705.43
5705.66
5706.23
5707.22
5708.36
5709.52
5704.47
5704.48
5704.62
5704.91
5705.56
5706.61
5707.81
5709.04
5706.4
5705.92
5706.36
5707.1
5708.12
5709.24
5710.43
5711.54
5705.85
5705.54
5706.05
5706.85
5707.92
5709.09
5710.34
5711.5
5705.2
5705.09
5705.66
5706.51
5707.6
5708.85
5710.18
5711.42
5704.45
5704.52
5705.12
5706.04
5707.17
5708.49
5709.89
5711.21
5703.45
5703.68
5704.35
5705.35
5706.58
5707.98
5709.46
5710.86
5702.2
5702.62
5703.44
5704.54
5705.84
5707.32
5708.9
5710.39
5700.86
5701.41
5702.37
5703.57
5704.98
5706.57
5708.24
5709.84
5708.75
5708.69
5708.69
5708.73
5708.81
5708.93
5709.07
5709.22
5708.96
5708.9
5708.89
5708.93
5709.01
5709.12
5709.25
5709.39
5709.2
5709.14
5709.13
5709.17
5709.24
5709.35
5709.47
5709.6
5709.47
5709.41
5709.4
5709.44
5709.5
5709.6
5709.71
5709.84
5709.74
5709.68
5709.68
5709.71
5709.77
5709.86
5709.97
5710.08
5710.01
5709.96
5709.95
5709.98
5710.04
5710.12
5710.22
5710.33
5710.27
5710.21
5710.21
5710.24
5710.29
5710.37
5710.47
5710.58
5707.95
5707.86
5707.87
5707.96
5708.12
5708.32
5708.56
5708.81
5708.23
5708.14
5708.15
5708.23
5708.37
5708.56
5708.78
5709.02
5708.56
5708.47
5708.47
5708.54
5708.67
5708.84
5709.05
5709.27
5708.9
5708.81
5708.8
5708.87
5708.99
5709.15
5709.34
5709.54
5709.25
5709.15
5709.13
5709.2
5709.31
5709.45
5709.63
5709.82
5709.58
5709.49
5709.48
5709.53
5709.63
5709.76
5709.92
5710.1
5709.88
5709.79
5709.78
5709.83
5709.92
5710.05
5710.21
5710.37
5706.84
5706.74
5706.77
5706.9
5707.11
5707.4
5707.78
5708.23
5707.24
5707.13
5707.15
5707.26
5707.44
5707.71
5708.06
5708.48
5707.68
5707.57
5707.57
5707.66
5707.82
5708.06
5708.38
5708.77
5708.14
5708.02
5708.01
5708.08
5708.22
5708.43
5708.73
5709.08
5708.58
5708.46
5708.45
5708.5
5708.61
5708.8
5709.06
5709.39
5708.99
5708.86
5708.83
5708.89
5708.99
5709.16
5709.4
5709.7
5709.36
5709.23
5709.2
5709.24
5709.34
5709.5
5709.72
5710
5705.15
5705.05
5705.12
5705.28
5705.58
5706.07
5706.78
5707.58
5705.74
5705.62
5705.65
5705.77
5706.01
5706.46
5707.12
5707.88
5706.37
5706.23
5706.23
5706.31
5706.5
5706.9
5707.5
5708.22
5706.99
5706.83
5706.81
5706.85
5707.01
5707.34
5707.89
5708.56
5707.56
5707.4
5707.37
5707.38
5707.5
5707.77
5708.26
5708.88
5708.08
5707.91
5707.87
5707.89
5707.98
5708.2
5708.64
5709.2
5708.52
5708.35
5708.31
5708.32
5708.39
5708.59
5708.98
5709.51
5702.99
5703
5703.1
5703.28
5703.91
5704.92
5706.12
5707.38
5703.83
5703.83
5703.88
5703.96
5704.49
5705.41
5706.54
5707.72
5704.7
5704.68
5704.67
5704.67
5705.09
5705.93
5706.98
5708.1
5705.53
5705.49
5705.44
5705.39
5705.67
5706.43
5707.4
5708.45
5706.26
5706.19
5706.15
5706.1
5706.17
5706.87
5707.77
5708.76
5706.87
5706.8
5706.75
5706.69
5706.74
5707.29
5708.12
5709.06
5707.36
5707.27
5707.23
5707.17
5707.21
5707.67
5708.45
5709.35
5698.73
5699.54
5700.74
5701.91
5703.14
5704.59
5706.24
5707.91
5700.15
5700.9
5701.96
5702.91
5703.94
5705.25
5706.77
5708.31
5701.63
5702.19
5703.05
5703.84
5704.72
5705.89
5707.29
5708.73
5703
5703.33
5703.95
5704.63
5705.41
5706.46
5707.75
5709.09
5704.16
5704.24
5704.65
5705.24
5705.94
5706.9
5708.1
5709.37
5704.92
5704.88
5705.24
5705.75
5706.41
5707.29
5708.42
5709.63
5705.39
5705.24
5705.6
5706.11
5706.78
5707.64
5708.72
5709.91
5709.73
5709.6
5709.61
5710
5710.1
5710.18
5710.25
5710.31
5710.35
5710.36
5710.37
5709.76
5709.86
5709.95
5710.02
5710.08
5710.12
5710.14
5710.14
5709.56
5709.66
5709.75
5709.83
5709.89
5709.93
5709.95
5709.95
5709.4
5709.51
5709.6
5709.67
5709.73
5709.77
5709.79
5709.79
5709.29
5709.39
5709.48
5709.55
5709.61
5709.65
5709.66
5709.66
5709.24
5709.34
5709.43
5709.5
5709.56
5709.6
5709.62
5709.62
5709.24
5709.33
5709.41
5709.47
5709.52
5709.55
5709.57
5709.57
5709.78
5709.95
5710.1
5710.23
5710.33
5710.4
5710.44
5710.45
5709.52
5709.69
5709.85
5709.98
5710.09
5710.16
5710.2
5710.21
5709.3
5709.48
5709.64
5709.78
5709.89
5709.96
5710
5710.01
5709.13
5709.31
5709.47
5709.61
5709.71
5709.79
5709.83
5709.84
5708.99
5709.17
5709.33
5709.47
5709.57
5709.64
5709.68
5709.69
5708.9
5709.08
5709.23
5709.36
5709.47
5709.54
5709.57
5709.59
5708.92
5709.08
5709.23
5709.36
5709.46
5709.52
5709.56
5709.56
5709.47
5709.77
5710.03
5710.26
5710.44
5710.57
5710.64
5710.67
5709.19
5709.5
5709.77
5710.01
5710.19
5710.32
5710.4
5710.43
5708.96
5709.28
5709.56
5709.8
5709.99
5710.12
5710.2
5710.23
5708.77
5709.09
5709.37
5709.61
5709.8
5709.94
5710.01
5710.04
5708.6
5708.92
5709.21
5709.44
5709.63
5709.77
5709.84
5709.87
5708.49
5708.8
5709.08
5709.31
5709.5
5709.63
5709.7
5709.73
5708.48
5708.78
5709.04
5709.27
5709.44
5709.57
5709.64
5709.67
5709.24
5709.73
5710.17
5710.54
5710.84
5711.06
5711.2
5711.28
5708.94
5709.45
5709.91
5710.29
5710.6
5710.83
5710.96
5711.04
5708.71
5709.24
5709.71
5710.1
5710.41
5710.64
5710.78
5710.85
5708.49
5709.03
5709.5
5709.9
5710.21
5710.43
5710.57
5710.65
5708.29
5708.83
5709.3
5709.69
5710
5710.22
5710.36
5710.44
5708.14
5708.66
5709.12
5709.51
5709.81
5710.03
5710.17
5710.24
5708.1
5708.6
5709.04
5709.41
5709.71
5709.92
5710.06
5710.13
5709.55
5710.26
5710.9
5711.44
5711.89
5712.24
5712.5
5712.72
5709.23
5709.98
5710.65
5711.21
5711.67
5712.02
5712.27
5712.47
5709
5709.78
5710.47
5711.04
5711.5
5711.84
5712.09
5712.28
5708.76
5709.56
5710.25
5710.83
5711.28
5711.62
5711.86
5712.05
5708.51
5709.3
5710
5710.57
5711.03
5711.36
5711.6
5711.79
5708.3
5709.07
5709.75
5710.32
5710.76
5711.1
5711.34
5711.52
5708.21
5708.95
5709.6
5710.15
5710.58
5710.91
5711.15
5711.34
5710.61
5711.56
5712.38
5713.1
5713.71
5714.24
5714.73
5715.22
5710.3
5711.3
5712.17
5712.91
5713.53
5714.05
5714.5
5714.95
5710.09
5711.14
5712.04
5712.8
5713.42
5713.91
5714.33
5714.73
5709.82
5710.9
5711.82
5712.59
5713.2
5713.68
5714.08
5714.45
5709.52
5710.6
5711.52
5712.28
5712.88
5713.36
5713.76
5714.13
5709.23
5710.28
5711.17
5711.92
5712.52
5712.99
5713.4
5713.78
5709.07
5710.07
5710.92
5711.64
5712.22
5712.7
5713.12
5713.52
5710.88
5710.95
5711
5711.05
5711.09
5711.11
5711.12
5711.12
5711.08
5711.14
5711.2
5711.24
5711.28
5711.3
5711.31
5711.31
5711.23
5711.3
5711.35
5711.4
5711.44
5711.46
5711.47
5711.47
5711.36
5711.42
5711.48
5711.53
5711.57
5711.59
5711.6
5711.59
5711.45
5711.51
5711.57
5711.61
5711.65
5711.67
5711.68
5711.68
5711.5
5711.56
5711.61
5711.66
5711.69
5711.72
5711.72
5711.72
5711.51
5711.57
5711.62
5711.67
5711.7
5711.72
5711.73
5711.73
5710.76
5710.87
5710.97
5711.06
5711.14
5711.19
5711.21
5711.21
5710.96
5711.07
5711.18
5711.27
5711.34
5711.39
5711.42
5711.42
5711.13
5711.24
5711.34
5711.44
5711.51
5711.56
5711.59
5711.59
5711.26
5711.37
5711.48
5711.57
5711.64
5711.7
5711.72
5711.72
5711.36
5711.47
5711.58
5711.67
5711.74
5711.79
5711.81
5711.81
5711.42
5711.53
5711.63
5711.72
5711.79
5711.84
5711.86
5711.86
5711.45
5711.56
5711.66
5711.74
5711.81
5711.86
5711.88
5711.88
5710.51
5710.71
5710.9
5711.07
5711.21
5711.31
5711.36
5711.38
5710.71
5710.92
5711.11
5711.28
5711.43
5711.53
5711.58
5711.6
5710.89
5711.09
5711.28
5711.46
5711.6
5711.7
5711.76
5711.78
5711.03
5711.23
5711.43
5711.6
5711.74
5711.84
5711.9
5711.92
5711.15
5711.35
5711.54
5711.7
5711.84
5711.94
5711.99
5712.01
5711.23
5711.42
5711.6
5711.77
5711.9
5712
5712.05
5712.06
5711.28
5711.47
5711.65
5711.81
5711.94
5712.03
5712.07
5712.09
5710.23
5710.59
5710.93
5711.23
5711.47
5711.65
5711.76
5711.82
5710.45
5710.82
5711.16
5711.46
5711.71
5711.89
5712
5712.06
5710.65
5711.01
5711.35
5711.65
5711.9
5712.08
5712.19
5712.25
5710.83
5711.18
5711.51
5711.8
5712.05
5712.23
5712.34
5712.41
5710.97
5711.31
5711.63
5711.92
5712.16
5712.33
5712.44
5712.5
5711.06
5711.39
5711.7
5711.97
5712.21
5712.38
5712.48
5712.54
5711.11
5711.44
5711.74
5712.01
5712.24
5712.41
5712.5
5712.55
5710.37
5710.91
5711.42
5711.88
5712.26
5712.57
5712.79
5712.97
5710.64
5711.18
5711.69
5712.15
5712.54
5712.85
5713.07
5713.26
5710.91
5711.44
5711.93
5712.38
5712.76
5713.07
5713.3
5713.5
5711.15
5711.65
5712.12
5712.55
5712.93
5713.23
5713.46
5713.67
5711.32
5711.8
5712.25
5712.67
5713.03
5713.32
5713.55
5713.76
5711.38
5711.84
5712.28
5712.69
5713.04
5713.33
5713.54
5713.74
5711.39
5711.86
5712.29
5712.7
5713.04
5713.32
5713.52
5713.7
5711.18
5711.88
5712.54
5713.17
5713.74
5714.22
5714.68
5715.14
5711.52
5712.22
5712.88
5713.51
5714.08
5714.56
5715.02
5715.49
5711.89
5712.55
5713.18
5713.78
5714.33
5714.81
5715.28
5715.76
5712.19
5712.81
5713.4
5713.97
5714.5
5714.98
5715.45
5715.95
5712.38
5712.97
5713.52
5714.07
5714.57
5715.03
5715.49
5715.99
5712.38
5712.95
5713.49
5714.03
5714.53
5714.97
5715.41
5715.89
5712.34
5712.91
5713.46
5714
5714.49
5714.92
5715.33
5715.76
5711.47
5711.53
5711.59
5711.63
5711.67
5711.69
5711.7
5711.69
5711.37
5711.44
5711.5
5711.55
5711.59
5711.61
5711.62
5711.62
5711.23
5711.3
5711.37
5711.42
5711.46
5711.49
5711.5
5711.5
5711.04
5711.12
5711.19
5711.25
5711.3
5711.33
5711.34
5711.34
5710.81
5710.9
5710.97
5711.04
5711.09
5711.12
5711.13
5711.13
5710.55
5710.64
5710.72
5710.79
5710.84
5710.87
5710.89
5710.89
5710.27