/*--------------------------------*- C++ -*----------------------------------*\
| =========                 |                                                 |
| \\      /  F ield         | OpenFOAM: The Open Source CFD Toolbox           |
|  \\    /   O peration     | Version:  plus.master.MPPICInterFoam            |
|   \\  /    A nd           | Web:      www.OpenFOAM.com                      |
|    \\/     M anipulation  |                                                 |
\*---------------------------------------------------------------------------*/
FoamFile
{
    version     2.0;
    format      ascii;
    class       volScalarField;
    location    "2.6";
    object      p;
}
// * * * * * * * * * * * * * * * * * * * * * * * * * * * * * * * * * * * * * //

dimensions      [1 -1 -2 0 0 0 0];

internalField   nonuniform List<scalar> 
11822
(
684.123
680.152
677.27
678.747
686.296
695.022
697.532
677.03
676.912
676.35
674.803
682.034
693.95
695.785
670.589
680.041
677.388
674.106
683.478
693.302
696.22
672.523
676.038
670.221
674.794
681.502
694.278
697.324
681.485
675.638
674.096
675.569
687.46
696.257
699.254
687.104
686.138
683.783
687.17
694.254
698.827
701.107
700.876
696.258
695.509
696.532
699.04
702.024
702.265
626.039
622.358
621.548
621.766
625.382
627.041
626.465
619.052
617.728
616.952
615.96
619.578
623.247
624.377
615.792
614.582
613.739
614.304
616.365
621.607
623.585
616.423
615.17
614.304
614.217
618.623
623.241
624.31
617.803
615.687
616.402
619.42
623.467
626.557
625.966
623.726
620.843
621.143
624.141
627.536
630.008
627.403
627.886
624.615
625.391
626.931
629.345
630.195
627.839
591.315
590.169
588.871
587.357
578.369
567.962
561.155
592.109
591.368
590.823
589.824
582.215
570.146
561.491
591.429
590.725
590.513
589.76
582.796
570.597
561.161
590.169
590.428
590.456
588.463
580.685
569.101
560.49
586.906
588.042
587.33
585.578
576.59
566.596
559.4
577.842
578.708
578.004
575.659
570.474
563.201
557.9
567.758
567.795
567.274
565.502
562.546
558.965
556.222
502.892
508.148
506.877
499.519
489.779
482.855
478.363
512.628
523.772
522.372
509.605
495.099
485.168
479.392
516.056
530.422
528.968
513.192
497.169
485.896
479.491
512.25
523.968
519.858
508.382
494.409
484.585
478.592
501.942
507.959
505.777
498.375
488.943
481.87
476.917
490.703
493.158
492.039
488.122
483.06
478.568
474.825
483.499
484.222
483.324
481.108
478.194
475.307
472.667
390.727
390.971
390.386
389.112
387.335
385.303
383.085
391.45
391.719
391.261
390.106
388.459
386.311
383.695
391.542
391.707
391.366
390.453
388.861
386.649
383.775
390.84
391.289
391.232
390.168
388.44
386.138
383.22
389.488
390.114
390.011
388.991
387.231
384.969
382.215
387.833
388.43
388.145
387.062
385.381
383.28
380.912
385.933
386.236
385.717
384.591
383.023
381.277
379.467
291.336
291.754
291.647
290.965
289.7
288.109
286.486
292.03
292.576
292.508
291.943
290.695
288.957
287.036
292.332
292.813
292.781
292.335
291.099
289.276
287.17
292.081
292.671
292.724
292.143
290.823
288.98
286.87
291.248
291.948
291.949
291.272
289.966
288.219
286.245
289.915
290.557
290.478
289.794
288.594
287.059
285.343
288.332
288.756
288.562
287.908
286.879
285.626
284.255
699.109
701.216
703.81
706.241
708.189
709.546
710.412
710.914
698.343
701.09
703.91
706.491
708.601
710.043
710.938
711.434
698.08
700.952
704.076
706.897
709.146
710.669
711.604
712.112
698.794
701.424
704.571
707.402
709.639
711.163
712.099
712.601
700.157
702.356
705.221
707.869
709.937
711.319
712.167
712.638
701.306
703.293
705.881
708.207
709.988
711.189
711.949
712.374
701.624
703.769
706.353
708.543
710.1
711.132
711.795
712.154
627.004
627.902
629.168
630.352
631.192
631.714
632.048
632.263
625.358
627.024
628.671
630.022
630.993
631.608
632.007
632.276
624.37
626.461
628.491
630.038
631.104
631.766
632.186
632.467
624.708
626.712
628.717
630.245
631.277
631.902
632.292
632.549
625.923
627.464
629.104
630.42
631.321
631.857
632.199
632.427
627.141
628.289
629.515
630.478
631.139
631.585
631.918
632.143
627.592
628.652
629.819
630.64
631.131
631.473
631.751
631.942
558.526
556.747
555.386
554.384
553.617
553.093
552.818
552.749
558.165
556.069
554.535
553.485
552.741
552.252
552.014
551.984
557.424
555.543
554.118
553.102
552.361
551.86
551.604
551.565
556.849
555.039
553.665
552.687
551.972
551.48
551.23
551.183
556.187
554.418
553.093
552.171
551.5
551.048
550.834
550.802
555.442
553.814
552.589
551.7
551.063
550.681
550.53
550.528
554.439
553.311
552.394
551.614
551.028
550.691
550.557
550.539
475.369
473.129
471.171
469.642
468.52
467.792
467.395
467.249
475.456
472.41
470.131
468.506
467.366
466.644
466.259
466.13
475.064
471.95
469.607
467.914
466.711
465.933
465.509
465.364
474.215
471.215
468.952
467.297
466.118
465.349
464.93
464.778
472.988
470.22
468.132
466.61
465.532
464.841
464.478
464.353
471.693
469.278
467.42
466.07
465.12
464.533
464.236
464.143
470.395
468.675
467.169
465.977
465.132
464.62
464.354
464.251
381.381
379.911
378.519
377.369
376.512
375.95
375.624
375.484
381.282
379.279
377.673
376.445
375.555
374.976
374.641
374.5
380.974
378.87
377.185
375.886
374.931
374.296
373.923
373.766
380.385
378.32
376.657
375.362
374.405
373.758
373.375
373.208
379.601
377.65
376.079
374.86
373.958
373.355
373.004
372.857
378.749
377.012
375.583
374.483
373.673
373.141
372.838
372.716
377.891
376.585
375.373
374.384
373.657
373.187
372.918
372.796
285.232
284.104
282.978
281.963
281.109
280.455
280.02
279.868
285.335
283.909
282.628
281.508
280.565
279.828
279.324
279.138
285.233
283.703
282.346
281.159
280.147
279.34
278.78
278.567
284.901
283.36
281.993
280.791
279.76
278.93
278.353
278.129
284.386
282.9
281.581
280.422
279.427
278.631
278.084
277.879
283.733
282.382
281.161
280.091
279.18
278.466
277.99
277.829
283.001
281.911
280.843
279.88
279.07
278.459
278.066
277.942
704.669
706.32
707.57
709.33
710.892
711.898
712.533
712.902
695.696
701.89
705.142
706.322
708.382
710.078
711.246
711.903
684.58
696.939
698.745
700.725
703.955
706.713
708.739
709.871
681.381
692.398
695.294
697.764
701.73
705.126
707.6
708.976
681.882
691.537
695.015
697.439
701.781
705.529
708.15
709.592
685.641
696.16
698.095
700.475
704.366
708.034
710.395
711.65
695.343
703.949
706.806
706.983
708.513
711.814
713.954
714.932
629.471
630.565
631.352
632.486
633.383
634.052
634.509
634.786
627.389
630.468
630.247
631.371
632.811
633.953
634.707
635.165
623.287
626.009
627.121
628.776
631.263
633.298
634.573
635.253
618.898
622.165
624.41
626.908
630.184
632.907
634.687
635.596
618.294
622.637
625.787
628.415
631.826
634.471
636.145
637.016
623.339
628.914
632.006
633.805
636.407
638.22
639.208
639.694
635.041
639.277
639.444
639.079
640.744
641.815
642.154
642.329
564.222
561.296
559.505
558.272
557.445
556.919
556.632
556.563
572.736
566.548
562.57
560.569
559.417
558.689
558.304
558.243
581.515
572.782
566.166
563.191
561.688
560.784
560.27
560.132
586.012
576.769
568.9
565.288
563.578
562.602
562.046
561.861
587.756
579.136
570.969
567.078
565.264
564.249
563.656
563.443
587.587
579.454
572.404
568.922
566.962
565.679
564.928
564.661
583.889
576.499
571.733
569.448
567.749
566.378
565.562
565.27
480.501
477.822
475.714
474.112
472.911
472.045
471.516
471.309
485.844
481.767
478.779
476.604
475.009
473.899
473.242
473.01
492.975
486.687
482.605
479.76
477.637
476.16
475.293
474.968
499.723
491.081
485.866
482.456
479.943
478.185
477.127
476.692
502.761
493.293
487.516
483.793
481.174
479.382
478.306
477.862
500.629
492.42
487.332
483.843
481.326
479.644
478.681
478.31
493.986
488.824
485.519
482.922
480.822
479.376
478.54
478.203
384.385
383.026
381.871
380.859
380.019
379.394
378.997
378.824
386.504
384.975
383.543
382.326
381.336
380.601
380.128
379.931
388.421
387.054
385.536
384.102
382.885
381.976
381.397
381.164
389.841
388.677
387.141
385.593
384.239
383.214
382.561
382.279
390.541
389.365
387.807
386.273
384.935
383.926
383.285
383.014
390.501
389.089
387.572
386.113
384.902
384.029
383.487
383.273
389.512
388.262
387.003
385.73
384.671
383.903
383.416
383.2
287.227
286.239
285.243
284.288
283.444
282.767
282.296
282.115
288.759
287.577
286.395
285.3
284.331
283.526
282.944
282.707
290.119
288.846
287.542
286.314
285.208
284.274
283.592
283.305
291.051
289.745
288.393
287.099
285.918
284.915
284.179
283.849
291.352
290.045
288.703
287.42
286.259
285.277
284.556
284.234
290.977
289.708
288.453
287.281
286.233
285.356
284.717
284.445
290.107
289.072
287.996
286.961
286.031
285.26
284.71
284.48
697.048
703.977
707.347
707.51
708.366
711.407
713.571
714.616
687.711
698.677
698.328
701.698
705.573
709.104
711.324
712.461
685.031
697.393
693.827
698.756
703.304
706.94
709.296
710.548
688.909
696.851
695.588
699.475
703.453
706.661
708.826
710.002
694.584
698.902
699.089
701.913
705.021
707.552
709.257
710.226
699.154
701.059
701.901
704.385
706.71
708.516
709.73
710.46
699.15
701.009
703.341
705.69
707.592
708.999
709.941
710.508
635.182
639.313
639.804
638.976
640.302
641.378
641.779
641.991
627.122
630.424
632.869
634.784
637.102
638.579
639.363
639.776
624.858
626.763
628.102
630.763
633.644
635.664
636.861
637.47
626.324
627.375
627.368
629.682
632.292
634.181
635.308
635.907
628.379
628.729
628.273
630.07
632.036
633.441
634.275
634.754
628.927
628.141
628.646
630.182
631.563
632.529
633.136
633.517
626.723
627.402
628.769
630.056
631.073
631.783
632.254
632.553
582.992
575.819
570.995
568.642
567.093
565.839
565.071
564.787
583.936
575.596
569.808
567.064
565.376
564.256
563.596
563.375
582.254
572.768
567.17
564.818
563.352
562.354
561.75
561.556
578.197
568.999
564.414
562.5
561.262
560.384
559.831
559.653
570.948
564.315
561.18
559.634
558.627
557.934
557.539
557.465
563.497
559.924
557.927
556.82
556.114
555.642
555.398
555.384
558.609
556.825
555.725
554.943
554.367
553.98
553.803
553.795
493.248
488.3
484.992
482.382
480.299
478.868
478.042
477.706
496.385
489.477
485.025
481.813
479.542
478.033
477.163
476.842
494.794
487.952
483.764
480.613
478.326
476.767
475.839
475.489
489.966
484.639
481.141
478.412
476.409
475.035
474.218
473.898
484.158
480.518
477.637
475.467
473.862
472.761
472.127
471.911
479.582
476.606
474.308
472.671
471.487
470.689
470.239
470.089
475.729
473.633
472.052
470.742
469.724
469.045
468.676
468.546
389.453
388.184
386.812
385.445
384.323
383.522
383.018
382.793
389.747
388.234
386.556
385.04
383.829
382.97
382.436
382.216
389.042
387.62
385.881
384.318
383.046
382.113
381.527
381.279
387.684
386.225
384.527
383.043
381.846
380.976
380.44
380.205
385.81
384.259
382.706
381.402
380.346
379.579
379.107
378.909
383.713
382.194
380.856
379.746
378.87
378.253
377.877
377.718
381.656
380.485
379.408
378.413
377.616
377.068
376.74
376.596
290.071
288.996
287.841
286.742
285.773
284.982
284.422
284.186
290.518
289.143
287.8
286.579
285.516
284.642
284.015
283.754
290.362
288.909
287.509
286.227
285.087
284.139
283.456
283.166
289.602
288.196
286.843
285.585
284.454
283.516
282.843
282.555
288.364
287.097
285.857
284.696
283.645
282.77
282.14
281.876
286.923
285.831
284.727
283.683
282.753
281.994
281.46
281.252
285.484
284.58
283.628
282.701
281.882
281.234
280.793
280.634
701.489
703.735
706.325
708.52
710.129
711.2
711.881
712.258
701.655
703.178
705.792
708.232
710.119
711.375
712.164
712.623
700.174
701.843
704.905
707.75
710.014
711.563
712.509
713.03
697.747
700.556
704.108
707.316
709.879
711.713
712.874
713.493
696.638
700.691
704.25
707.368
709.858
711.653
712.784
713.391
699.328
702.945
705.833
708.562
710.642
712.138
713.072
713.523
704.143
706.099
707.207
709.247
710.997
712.147
712.858
713.27
627.582
628.59
629.787
630.685
631.271
631.651
631.922
632.098
628
628.543
629.72
630.781
631.571
632.079
632.425
632.648
627.597
628.14
629.647
630.991
631.992
632.614
633.005
633.269
626.45
627.535
629.594
631.26
632.452
633.169
633.593
633.884
626.165
627.554
629.778
631.524
632.827
633.645
634.107
634.376
626.934
628.487
630.428
631.92
633.07
633.843
634.303
634.585
629.362
630.294
631.545
632.704
633.521
634.06
634.419
634.665
554.529
553.369
552.498
551.787
551.261
550.95
550.815
550.781
556.104
554.462
553.278
552.427
551.839
551.485
551.326
551.307
557.894
555.923
554.556
553.583
552.872
552.373
552.097
552.046
559.699
557.428
555.873
554.778
553.978
553.391
553.052
552.969
561.169
558.685
556.984
555.791
554.927
554.294
553.938
553.866
562.389
559.759
557.853
556.561
555.694
555.102
554.78
554.721
562.967
560.658
558.94
557.644
556.658
555.982
555.624
555.55
470.515
468.847
467.401
466.232
465.402
464.896
464.624
464.509
472.405
470.126
468.289
466.917
465.976
465.397
465.08
464.964
474.468
471.798
469.699
468.135
467.009
466.261
465.834
465.678
476.692
473.612
471.232
469.505
468.239
467.374
466.88
466.699
478.5
475.155
472.562
470.731
469.385
468.453
467.924
467.744
479.709
476.307
473.688
471.813
470.467
469.569
469.066
468.893
479.64
477.121
474.89
473.06
471.665
470.734
470.218
470.041
377.998
376.741
375.564
374.583
373.864
373.402
373.131
373.002
379.299
377.637
376.21
375.099
374.306
373.792
373.486
373.355
380.637
378.756
377.194
375.971
375.066
374.449
374.078
373.922
381.981
379.942
378.305
377.029
376.059
375.379
374.969
374.795
383.104
380.984
379.296
378.005
377.019
376.323
375.904
375.727
383.91
381.813
380.171
378.914
377.971
377.322
376.932
376.762
384.081
382.539
381.11
379.9
378.964
378.324
377.935
377.757
283.092
282.041
280.996
280.041
279.239
278.635
278.243
278.113
284.148
282.845
281.63
280.556
279.653
278.953
278.48
278.314
285.144
283.692
282.367
281.195
280.193
279.395
278.843
278.635
286.019
284.484
283.11
281.899
280.849
279.996
279.398
279.164
286.667
285.111
283.732
282.525
281.482
280.634
280.04
279.809
287.036
285.537
284.212
283.061
282.084
281.309
280.775
280.574
286.988
285.777
284.607
283.563
282.684
281.999
281.528
281.348
747.198
747.2
747.219
747.255
747.301
747.354
747.409
747.463
747.194
747.195
747.214
747.249
747.295
747.348
747.403
747.456
747.19
747.191
747.209
747.244
747.29
747.342
747.397
747.45
747.187
747.188
747.207
747.243
747.289
747.342
747.397
747.45
747.188
747.19
747.21
747.246
747.294
747.348
747.403
747.456
747.19
747.194
747.214
747.252
747.3
747.355
747.411
747.464
747.193
747.197
747.218
747.256
747.306
747.362
747.421
747.479
650.177
650.182
650.217
650.278
650.355
650.443
650.533
650.618
650.173
650.178
650.212
650.272
650.349
650.435
650.524
650.609
650.169
650.174
650.208
650.268
650.344
650.43
650.518
650.603
650.168
650.173
650.208
650.268
650.345
650.431
650.52
650.604
650.171
650.177
650.212
650.274
650.352
650.439
650.528
650.613
650.175
650.182
650.218
650.28
650.359
650.447
650.537
650.623
650.178
650.184
650.22
650.283
650.361
650.449
650.538
650.622
553.168
553.143
553.158
553.224
553.34
553.484
553.634
553.774
553.165
553.14
553.155
553.22
553.335
553.478
553.627
553.765
553.163
553.139
553.153
553.218
553.332
553.474
553.621
553.758
553.163
553.139
553.154
553.219
553.333
553.476
553.623
553.76
553.165
553.141
553.157
553.222
553.338
553.482
553.631
553.769
553.167
553.143
553.159
553.225
553.342
553.488
553.639
553.778
553.167
553.143
553.158
553.225
553.343
553.489
553.641
553.781
455.489
455.435
455.548
455.822
456.14
456.444
456.712
456.94
455.489
455.437
455.55
455.823
456.139
456.441
456.707
456.933
455.492
455.439
455.552
455.823
456.138
456.438
456.702
456.927
455.492
455.439
455.551
455.823
456.137
456.437
456.702
456.927
455.489
455.435
455.547
455.82
456.136
456.439
456.706
456.933
455.484
455.431
455.543
455.817
456.136
456.441
456.71
456.94
455.48
455.426
455.539
455.814
456.134
456.44
456.71
456.94
358.261
358.3
358.482
358.698
359.025
359.428
359.824
360.162
358.261
358.303
358.485
358.701
359.026
359.427
359.819
360.155
358.263
358.304
358.486
358.701
359.024
359.424
359.814
360.149
358.259
358.3
358.481
358.696
359.02
359.42
359.811
360.147
358.249
358.289
358.471
358.687
359.013
359.416
359.811
360.15
358.239
358.279
358.463
358.68
359.008
359.414
359.812
360.154
358.233
358.273
358.457
358.677
359.007
359.413
359.812
360.154
258.509
258.581
259.047
259.878
261.024
262.1
262.944
263.5
258.52
258.589
259.055
259.887
261.03
262.1
262.937
263.497
258.527
258.595
259.06
259.889
261.029
262.096
262.929
263.489
258.526
258.593
259.058
259.885
261.024
262.09
262.923
263.484
258.514
258.578
259.042
259.87
261.012
262.082
262.92
263.484
258.503
258.565
259.028
259.858
261.003
262.078
262.92
263.488
258.497
258.561
259.026
259.853
260.999
262.077
262.924
263.486
747.202
747.205
747.225
747.261
747.309
747.363
747.419
747.474
747.205
747.207
747.227
747.263
747.311
747.365
747.422
747.476
747.206
747.208
747.228
747.264
747.312
747.366
747.423
747.477
747.207
747.209
747.228
747.265
747.312
747.366
747.423
747.477
747.208
747.21
747.229
747.265
747.313
747.367
747.423
747.477
747.208
747.21
747.23
747.266
747.314
747.368
747.424
747.478
747.208
747.21
747.23
747.266
747.314
747.368
747.424
747.478
650.182
650.187
650.223
650.284
650.363
650.452
650.543
650.63
650.183
650.187
650.223
650.284
650.363
650.451
650.543
650.63
650.181
650.186
650.221
650.283
650.362
650.45
650.542
650.629
650.181
650.185
650.221
650.283
650.362
650.451
650.542
650.629
650.181
650.185
650.221
650.284
650.363
650.452
650.543
650.63
650.181
650.186
650.222
650.285
650.364
650.453
650.544
650.631
650.181
650.186
650.222
650.285
650.364
650.453
650.545
650.632
553.171
553.146
553.161
553.228
553.345
553.491
553.643
553.785
553.171
553.145
553.161
553.228
553.345
553.491
553.643
553.784
553.169
553.144
553.161
553.228
553.345
553.491
553.642
553.783
553.169
553.145
553.162
553.23
553.347
553.493
553.644
553.784
553.17
553.146
553.164
553.232
553.349
553.495
553.646
553.786
553.171
553.148
553.165
553.234
553.351
553.497
553.648
553.788
553.171
553.147
553.165
553.233
553.351
553.497
553.648
553.788
455.491
455.437
455.551
455.826
456.145
456.45
456.72
456.95
455.492
455.44
455.555
455.831
456.15
456.454
456.722
456.95
455.494
455.444
455.559
455.835
456.154
456.457
456.724
456.951
455.496
455.446
455.563
455.839
456.157
456.46
456.726
456.953
455.497
455.448
455.565
455.842
456.161
456.464
456.73
456.957
455.498
455.449
455.566
455.844
456.164
456.467
456.733
456.96
455.498
455.448
455.565
455.843
456.162
456.465
456.732
456.96
358.276
358.315
358.497
358.712
359.036
359.438
359.833
360.171
358.282
358.325
358.508
358.722
359.045
359.445
359.837
360.174
358.287
358.331
358.514
358.729
359.052
359.451
359.841
360.176
358.288
358.332
358.517
358.734
359.057
359.456
359.845
360.18
358.288
358.332
358.519
358.736
359.061
359.46
359.85
360.184
358.289
358.334
358.52
358.737
359.062
359.463
359.854
360.188
358.29
358.334
358.518
358.735
359.06
359.461
359.853
360.188
258.494
258.585
259.061
259.896
261.042
262.116
262.957
263.515
258.486
258.584
259.067
259.911
261.057
262.127
262.962
263.521
258.468
258.578
259.068
259.919
261.066
262.134
262.966
263.524
258.449
258.567
259.066
259.922
261.072
262.14
262.97
263.527
258.433
258.554
259.057
259.918
261.072
262.143
262.975
263.532
258.43
258.549
259.052
259.914
261.07
262.145
262.98
263.538
258.435
258.553
259.053
259.91
261.065
262.142
262.981
263.536
747.208
747.209
747.229
747.265
747.313
747.367
747.424
747.478
747.206
747.208
747.227
747.264
747.312
747.366
747.423
747.477
747.205
747.206
747.226
747.262
747.31
747.365
747.422
747.476
747.204
747.206
747.225
747.262
747.309
747.364
747.42
747.475
747.203
747.205
747.225
747.261
747.309
747.363
747.419
747.474
747.203
747.205
747.224
747.26
747.308
747.362
747.418
747.472
747.202
747.203
747.223
747.258
747.305
747.359
747.414
747.468
650.18
650.184
650.221
650.283
650.362
650.451
650.543
650.631
650.178
650.183
650.218
650.281
650.36
650.449
650.542
650.63
650.177
650.181
650.217
650.28
650.359
650.448
650.541
650.629
650.177
650.182
650.218
650.281
650.36
650.449
650.541
650.629
650.178
650.184
650.22
650.282
650.362
650.451
650.542
650.63
650.18
650.186
650.222
650.284
650.362
650.451
650.542
650.629
650.179
650.185
650.22
650.282
650.36
650.448
650.539
650.625
553.169
553.145
553.162
553.23
553.348
553.494
553.645
553.786
553.167
553.142
553.159
553.227
553.344
553.491
553.642
553.784
553.165
553.14
553.157
553.224
553.342
553.489
553.641
553.782
553.165
553.14
553.157
553.225
553.343
553.489
553.642
553.783
553.166
553.141
553.158
553.226
553.344
553.491
553.644
553.785
553.167
553.143
553.159
553.227
553.346
553.492
553.644
553.785
553.166
553.142
553.158
553.226
553.344
553.49
553.642
553.782
455.497
455.447
455.563
455.84
456.158
456.462
456.729
456.957
455.496
455.445
455.561
455.837
456.154
456.457
456.724
456.953
455.493
455.443
455.557
455.833
456.15
456.453
456.721
456.949
455.492
455.44
455.555
455.83
456.148
456.451
456.72
456.949
455.489
455.437
455.552
455.828
456.147
456.451
456.721
456.95
455.486
455.434
455.549
455.826
456.146
456.452
456.722
456.951
455.483
455.432
455.547
455.823
456.143
456.449
456.719
456.948
358.291
358.335
358.519
358.734
359.058
359.457
359.849
360.184
358.292
358.336
358.519
358.733
359.054
359.453
359.843
360.179
358.289
358.333
358.515
358.727
359.049
359.447
359.837
360.174
358.284
358.327
358.508
358.721
359.043
359.442
359.834
360.171
358.276
358.317
358.5
358.713
359.037
359.439
359.833
360.171
358.268
358.308
358.492
358.706
359.032
359.436
359.832
360.172
358.258
358.3
358.483
358.7
359.027
359.432
359.83
360.169
258.445
258.563
259.06
259.912
261.065
262.14
262.978
263.532
258.459
258.574
259.068
259.919
261.068
262.137
262.971
263.528
258.471
258.582
259.072
259.919
261.064
262.131
262.962
263.52
258.483
258.586
259.072
259.916
261.059
262.125
262.956
263.515
258.488
258.583
259.062
259.904
261.049
262.118
262.952
263.513
258.493
258.577
259.051
259.891
261.038
262.112
262.951
263.513
258.497
258.576
259.046
259.88
261.028
262.106
262.95
263.508
747.194
747.197
747.218
747.256
747.305
747.361
747.419
747.477
747.192
747.194
747.214
747.251
747.299
747.352
747.406
747.456
747.189
747.191
747.21
747.247
747.295
747.35
747.406
747.461
747.187
747.189
747.208
747.244
747.292
747.345
747.401
747.455
747.189
747.191
747.21
747.246
747.293
747.347
747.402
747.456
747.193
747.195
747.215
747.251
747.299
747.352
747.408
747.462
747.199
747.201
747.221
747.257
747.305
747.359
747.415
747.469
650.177
650.183
650.218
650.28
650.358
650.446
650.535
650.62
650.173
650.178
650.213
650.274
650.352
650.441
650.532
650.62
650.169
650.173
650.208
650.268
650.346
650.433
650.523
650.61
650.167
650.172
650.206
650.267
650.345
650.432
650.522
650.608
650.169
650.175
650.21
650.271
650.349
650.436
650.527
650.613
650.174
650.18
650.216
650.277
650.356
650.444
650.534
650.621
650.179
650.184
650.22
650.282
650.361
650.449
650.541
650.628
553.165
553.14
553.155
553.222
553.339
553.485
553.636
553.776
553.162
553.136
553.151
553.217
553.333
553.477
553.627
553.767
553.159
553.134
553.149
553.214
553.33
553.474
553.623
553.762
553.159
553.134
553.149
553.215
553.33
553.474
553.624
553.762
553.161
553.137
553.152
553.219
553.335
553.48
553.63
553.769
553.165
553.14
553.156
553.223
553.34
553.486
553.638
553.778
553.166
553.142
553.158
553.225
553.344
553.491
553.643
553.784
455.479
455.426
455.539
455.814
456.133
456.438
456.707
456.936
455.482
455.43
455.543
455.817
456.134
456.436
456.703
456.93
455.485
455.433
455.546
455.819
456.134
456.435
456.7
456.927
455.488
455.435
455.548
455.82
456.135
456.436
456.702
456.928
455.487
455.434
455.547
455.82
456.137
456.44
456.708
456.935
455.485
455.432
455.546
455.821
456.141
456.446
456.715
456.944
455.482
455.431
455.546
455.822
456.143
456.449
456.72
456.95
358.238
358.28
358.464
358.683
359.012
359.416
359.812
360.152
358.25
358.293
358.477
358.693
359.019
359.42
359.812
360.149
358.259
358.302
358.484
358.699
359.022
359.421
359.812
360.147
358.263
358.304
358.486
358.701
359.024
359.423
359.814
360.149
358.262
358.302
358.484
358.699
359.024
359.425
359.819
360.156
358.261
358.301
358.483
358.699
359.025
359.429
359.826
360.165
358.262
358.304
358.487
358.702
359.029
359.434
359.831
360.171
258.502
258.569
259.036
259.863
261.008
262.083
262.927
263.487
258.514
258.583
259.049
259.88
261.022
262.092
262.927
263.489
258.518
258.592
259.06
259.89
261.03
262.096
262.928
263.487
258.515
258.591
259.062
259.894
261.033
262.098
262.93
263.49
258.504
258.581
259.053
259.887
261.03
262.1
262.935
263.497
258.496
258.576
259.048
259.884
261.03
262.104
262.943
263.507
258.494
258.578
259.051
259.885
261.032
262.108
262.951
263.513
844.397
844.451
844.541
747.503
747.53
747.553
747.573
747.587
747.597
747.601
747.602
747.495
747.523
747.547
747.566
747.581
747.591
747.597
747.598
747.489
747.516
747.54
747.56
747.575
747.585
747.59
747.591
747.489
747.516
747.539
747.559
747.574
747.584
747.589
747.589
747.495
747.522
747.544
747.562
747.576
747.585
747.589
747.59
747.503
747.528
747.55
747.566
747.579
747.586
747.59
747.591
747.524
747.557
747.587
747.614
747.634
747.645
747.633
747.636
650.68
650.722
650.758
650.786
650.808
650.822
650.829
650.831
650.671
650.713
650.749
650.778
650.8
650.816
650.824
650.826
650.664
650.706
650.742
650.771
650.793
650.808
650.816
650.819
650.665
650.706
650.742
650.77
650.792
650.806
650.814
650.816
650.673
650.714
650.748
650.776
650.796
650.809
650.816
650.818
650.684
650.725
650.759
650.785
650.805
650.817
650.823
650.824
650.682
650.722
650.755
650.781
650.801
650.815
650.823
650.829
553.872
553.937
553.992
554.035
554.068
554.09
554.102
554.105
553.861
553.927
553.982
554.026
554.059
554.082
554.094
554.098
553.854
553.919
553.974
554.018
554.051
554.074
554.086
554.09
553.856
553.921
553.974
554.017
554.049
554.071
554.083
554.087
553.865
553.929
553.982
554.024
554.055
554.076
554.087
554.09
553.875
553.939
553.991
554.032
554.063
554.083
554.094
554.097
553.879
553.944
553.997
554.038
554.068
554.088
554.099
554.102
457.093
457.193
457.276
457.341
457.389
457.423
457.441
457.447
457.084
457.184
457.267
457.332
457.382
457.416
457.434
457.44
457.077
457.177
457.259
457.324
457.374
457.407
457.426
457.432
457.078
457.177
457.258
457.323
457.371
457.404
457.422
457.428
457.085
457.184
457.265
457.329
457.376
457.409
457.426
457.432
457.093
457.193
457.274
457.337
457.385
457.416
457.434
457.439
457.094
457.195
457.277
457.342
457.39
457.422
457.44
457.446
360.384
360.528
360.645
360.736
360.805
360.853
360.881
360.893
360.376
360.519
360.636
360.727
360.796
360.843
360.871
360.884
360.369
360.512
360.627
360.718
360.787
360.834
360.862
360.874
360.367
360.51
360.625
360.716
360.783
360.83
360.858
360.87
360.371
360.515
360.63
360.721
360.788
360.834
360.862
360.874
360.377
360.522
360.638
360.729
360.796
360.843
360.87
360.882
360.378
360.524
360.641
360.733
360.802
360.849
360.877
360.889
263.813
264.004
264.154
264.271
264.359
264.422
264.463
264.49
263.807
263.996
264.146
264.262
264.35
264.413
264.455
264.481
263.798
263.986
264.135
264.251
264.339
264.402
264.443
264.47
263.793
263.982
264.131
264.247
264.334
264.396
264.438
264.464
263.795
263.985
264.135
264.251
264.338
264.401
264.442
264.468
263.801
263.992
264.143
264.26
264.347
264.41
264.452
264.478
263.802
263.995
264.147
264.265
264.354
264.417
264.459
264.486
747.513
747.54
747.563
747.581
747.594
747.603
747.607
747.607
747.516
747.543
747.565
747.583
747.597
747.606
747.61
747.611
747.516
747.543
747.566
747.585
747.599
747.608
747.613
747.614
747.516
747.543
747.566
747.585
747.599
747.609
747.613
747.614
747.516
747.543
747.566
747.585
747.599
747.608
747.613
747.614
747.517
747.544
747.566
747.585
747.599
747.608
747.613
747.613
747.517
747.544
747.567
747.585
747.599
747.608
747.613
747.614
650.693
650.735
650.77
650.798
650.819
650.833
650.84
650.842
650.693
650.735
650.771
650.8
650.822
650.836
650.844
650.846
650.692
650.735
650.771
650.801
650.823
650.839
650.847
650.849
650.692
650.735
650.771
650.801
650.824
650.839
650.848
650.85
650.693
650.735
650.772
650.801
650.824
650.839
650.848
650.85
650.694
650.736
650.772
650.802
650.824
650.84
650.848
650.85
650.694
650.737
650.773
650.802
650.825
650.84
650.848
650.851
553.884
553.95
554.005
554.049
554.081
554.104
554.116
554.119
553.882
553.949
554.004
554.049
554.083
554.106
554.119
554.123
553.881
553.948
554.004
554.049
554.084
554.108
554.121
554.125
553.882
553.949
554.005
554.05
554.085
554.109
554.122
554.126
553.884
553.951
554.006
554.051
554.086
554.11
554.123
554.126
553.886
553.952
554.008
554.053
554.087
554.111
554.124
554.128
553.887
553.953
554.009
554.054
554.088
554.112
554.125
554.129
457.103
457.205
457.288
457.354
457.403
457.437
457.456
457.462
457.103
457.205
457.288
457.355
457.406
457.44
457.46
457.466
457.103
457.205
457.289
457.356
457.407
457.442
457.461
457.467
457.105
457.206
457.29
457.357
457.407
457.443
457.462
457.468
457.108
457.209
457.292
457.359
457.409
457.444
457.464
457.47
457.111
457.212
457.295
457.362
457.412
457.447
457.466
457.472
457.112
457.213
457.296
457.363
457.413
457.448
457.468
457.474
360.394
360.539
360.656
360.749
360.818
360.867
360.895
360.907
360.395
360.539
360.656
360.749
360.818
360.867
360.896
360.908
360.396
360.539
360.656
360.749
360.819
360.867
360.896
360.908
360.399
360.542
360.658
360.75
360.82
360.868
360.896
360.909
360.403
360.546
360.662
360.753
360.823
360.871
360.899
360.911
360.407
360.55
360.666
360.758
360.827
360.875
360.903
360.915
360.408
360.551
360.668
360.76
360.829
360.877
360.906
360.918
263.826
264.016
264.167
264.284
264.372
264.436
264.478
264.504
263.83
264.018
264.167
264.284
264.372
264.436
264.478
264.504
263.83
264.017
264.166
264.282
264.37
264.433
264.475
264.502
263.832
264.019
264.167
264.283
264.37
264.433
264.475
264.501
263.838
264.024
264.172
264.288
264.375
264.437
264.479
264.505
263.844
264.031
264.178
264.294
264.381
264.444
264.486
264.512
263.845
264.032
264.181
264.297
264.385
264.448
264.49
264.516
747.517
747.544
747.567
747.585
747.599
747.609
747.613
747.614
747.517
747.544
747.567
747.586
747.6
747.609
747.613
747.614
747.516
747.543
747.567
747.585
747.599
747.609
747.613
747.614
747.515
747.542
747.565
747.584
747.598
747.607
747.612
747.612
747.513
747.541
747.563