/*--------------------------------*- C++ -*----------------------------------*\
| =========                 |                                                 |
| \\      /  F ield         | OpenFOAM: The Open Source CFD Toolbox           |
|  \\    /   O peration     | Version:  plus.master.MPPICInterFoam            |
|   \\  /    A nd           | Web:      www.OpenFOAM.com                      |
|    \\/     M anipulation  |                                                 |
\*---------------------------------------------------------------------------*/
FoamFile
{
    version     2.0;
    format      ascii;
    class       volScalarField;
    location    "6";
    object      k;
}
// * * * * * * * * * * * * * * * * * * * * * * * * * * * * * * * * * * * * * //

dimensions      [0 2 -2 0 0 0 0];

internalField   nonuniform List<scalar> 
11821
(
5.69597e-05
7.46582e-05
9.0104e-05
0.000100481
0.000107102
0.000110499
0.000110884
0.000108314
5.7089e-05
7.43926e-05
8.98524e-05
0.000100279
0.000106953
0.000110406
0.000110844
0.000108324
5.71894e-05
7.42416e-05
8.97033e-05
0.000100158
0.000106864
0.000110346
0.000110813
0.000108317
5.72481e-05
7.41731e-05
8.96352e-05
0.000100102
0.000106821
0.000110318
0.000110798
0.000108313
5.72674e-05
7.423e-05
8.96875e-05
0.000100145
0.000106854
0.000110339
0.000110807
0.000108311
5.7246e-05
7.4374e-05
8.98279e-05
0.000100261
0.00010694
0.000110395
0.000110835
0.000108314
5.71966e-05
7.46943e-05
9.01315e-05
0.000100511
0.000107129
0.000110518
0.00011089
0.000108304
5.69025e-05
7.47039e-05
9.0132e-05
0.000100489
0.000107091
0.000110471
0.000110842
0.000108258
5.70122e-05
7.44923e-05
8.99318e-05
0.000100328
0.000106974
0.0001104
0.000110814
0.000108273
5.70967e-05
7.43694e-05
8.98106e-05
0.00010023
0.000106901
0.000110352
0.000110791
0.00010827
5.71439e-05
7.43121e-05
8.9754e-05
0.000100183
0.000106866
0.000110329
0.000110779
0.000108269
5.71543e-05
7.43563e-05
8.97944e-05
0.000100216
0.00010689
0.000110344
0.000110785
0.000108266
5.71259e-05
7.44704e-05
8.99055e-05
0.000100307
0.000106958
0.000110387
0.000110805
0.000108266
5.70685e-05
7.47221e-05
9.01436e-05
0.000100502
0.000107103
0.000110479
0.000110842
0.000108251
5.68618e-05
7.47559e-05
9.01715e-05
0.000100511
0.000107096
0.00011046
0.000110816
0.000108219
5.69588e-05
7.45915e-05
9.0015e-05
0.000100385
0.000107005
0.000110404
0.000110795
0.000108233
5.70326e-05
7.4495e-05
8.99192e-05
0.000100307
0.000106946
0.000110367
0.000110777
0.000108232
5.70723e-05
7.44497e-05
8.9874e-05
0.000100269
0.000106918
0.000110347
0.000110767
0.000108231
5.70771e-05
7.44849e-05
8.99059e-05
0.000100295
0.000106936
0.000110358
0.000110771
0.000108227
5.70449e-05
7.45749e-05
8.99938e-05
0.000100367
0.000106989
0.000110392
0.000110786
0.000108227
5.6984e-05
7.47706e-05
9.01791e-05
0.000100518
0.000107101
0.000110461
0.000110811
0.00010821
5.68339e-05
7.48107e-05
9.02168e-05
0.000100541
0.00010711
0.000110459
0.000110799
0.00010819
5.69236e-05
7.46876e-05
9.0098e-05
0.000100445
0.00010704
0.000110415
0.000110783
0.0001082
5.6991e-05
7.46157e-05
9.00251e-05
0.000100384
0.000106994
0.000110385
0.000110768
0.000108199
5.70263e-05
7.45824e-05
8.99911e-05
0.000100356
0.000106972
0.00011037
0.00011076
0.000108198
5.7028e-05
7.46112e-05
9.0017e-05
0.000100376
0.000106986
0.000110378
0.000110762
0.000108194
5.69944e-05
7.46818e-05
9.00861e-05
0.000100432
0.000107027
0.000110404
0.000110773
0.000108192
5.69323e-05
7.48317e-05
9.02289e-05
0.000100549
0.000107114
0.000110457
0.000110792
0.000108178
5.6817e-05
7.48669e-05
9.02652e-05
0.000100576
0.00010713
0.000110463
0.000110789
0.000108166
5.69037e-05
7.47802e-05
9.01791e-05
0.000100505
0.000107077
0.000110429
0.000110775
0.000108173
5.69681e-05
7.47308e-05
9.0127e-05
0.000100461
0.000107043
0.000110406
0.000110763
0.00010817
5.70016e-05
7.47093e-05
9.01037e-05
0.00010044
0.000107026
0.000110394
0.000110755
0.000108167
5.70021e-05
7.47338e-05
9.01255e-05
0.000100457
0.000107037
0.0001104
0.000110756
0.000108163
5.69682e-05
7.47885e-05
9.01795e-05
0.000100501
0.00010707
0.00011042
0.000110765
0.000108162
5.6906e-05
7.49007e-05
9.02875e-05
0.00010059
0.000107135
0.00011046
0.000110779
0.000108151
5.68108e-05
7.49248e-05
9.03166e-05
0.000100614
0.000107153
0.00011047
0.000110781
0.000108146
5.68977e-05
7.48703e-05
9.02594e-05
0.000100565
0.000107115
0.000110445
0.00011077
0.000108147
5.6962e-05
7.48418e-05
9.02261e-05
0.000100536
0.000107091
0.000110427
0.000110758
0.000108142
5.69957e-05
7.48316e-05
9.0213e-05
0.000100523
0.00010708
0.000110418
0.000110751
0.000108138
5.69963e-05
7.48534e-05
9.0232e-05
0.000100537
0.000107089
0.000110422
0.000110751
0.000108134
5.6963e-05
7.48949e-05
9.02735e-05
0.000100571
0.000107114
0.000110438
0.000110758
0.000108133
5.69007e-05
7.49759e-05
9.03531e-05
0.000100637
0.000107164
0.000110469
0.00011077
0.000108125
5.68159e-05
7.49867e-05
9.03732e-05
0.000100658
0.000107181
0.000110482
0.000110777
0.000108126
5.69059e-05
7.49613e-05
9.03417e-05
0.000100629
0.000107157
0.000110464
0.000110766
0.000108123
5.69725e-05
7.49522e-05
9.0326e-05
0.000100613
0.000107142
0.00011045
0.000110755
0.000108115
5.70081e-05
7.49531e-05
9.03225e-05
0.000100607
0.000107135
0.000110443
0.000110748
0.000108109
5.701e-05
7.49734e-05
9.03401e-05
0.00010062
0.000107144
0.000110447
0.000110747
0.000108104
5.69773e-05
7.50037e-05
9.03711e-05
0.000100646
0.000107163
0.000110459
0.000110752
0.000108103
5.69145e-05
7.50585e-05
9.04269e-05
0.000100693
0.000107199
0.000110482
0.000110762
0.0001081
5.6834e-05
7.50571e-05
9.04399e-05
0.000100711
0.000107217
0.000110498
0.000110773
0.000108106
5.693e-05
7.50587e-05
9.04323e-05
0.0001007
0.000107205
0.000110486
0.000110763
0.000108097
5.70013e-05
7.50685e-05
9.04332e-05
0.000100697
0.000107198
0.000110477
0.000110752
0.000108086
5.70406e-05
7.50802e-05
9.04393e-05
0.000100699
0.000107196
0.000110472
0.000110745
0.000108077
5.70445e-05
7.51001e-05
9.04563e-05
0.000100711
0.000107204
0.000110475
0.000110743
0.000108071
5.70124e-05
7.51209e-05
9.04784e-05
0.00010073
0.000107218
0.000110484
0.000110748
0.000108072
5.69482e-05
7.5153e-05
9.05138e-05
0.000100761
0.000107242
0.000110501
0.000110756
0.000108072
5.68687e-05
7.51439e-05
9.05251e-05
0.000100781
0.000107266
0.000110522
0.000110773
0.000108082
5.69738e-05
7.51719e-05
9.05407e-05
0.000100788
0.000107266
0.000110516
0.000110762
0.000108068
5.70523e-05
7.52004e-05
9.05582e-05
0.000100798
0.000107267
0.000110511
0.000110751
0.000108053
5.7097e-05
7.52234e-05
9.0574e-05
0.000100807
0.00010727
0.000110508
0.000110743
0.000108041
5.71037e-05
7.5244e-05
9.05914e-05
0.000100819
0.000107277
0.00011051
0.00011074
0.000108035
5.70719e-05
7.52562e-05
9.06055e-05
0.000100831
0.000107286
0.000110516
0.000110744
0.000108036
5.7005e-05
7.52681e-05
9.06228e-05
0.000100848
0.000107301
0.000110528
0.000110752
0.00010804
5.69256e-05
7.52595e-05
9.06425e-05
0.000100881
0.000107338
0.000110561
0.000110777
0.000108054
5.70432e-05
7.53145e-05
9.06817e-05
0.000100906
0.000107349
0.00011056
0.000110765
0.000108034
5.71319e-05
7.53629e-05
9.07166e-05
0.000100928
0.000107359
0.000110558
0.000110753
0.000108014
5.71839e-05
7.5398e-05
9.07431e-05
0.000100945
0.000107367
0.000110557
0.000110745
0.000108
5.71944e-05
7.54206e-05
9.07618e-05
0.000100959
0.000107374
0.000110559
0.000110741
0.000107992
5.71623e-05
7.54249e-05
9.07685e-05
0.000100965
0.000107379
0.000110563
0.000110744
0.000107994
5.70912e-05
7.54178e-05
9.07688e-05
0.000100968
0.000107384
0.000110569
0.000110752
0.000108002
5.70126e-05
7.54236e-05
9.08137e-05
0.00010103
0.000107449
0.000110626
0.000110793
0.000108023
5.71469e-05
7.55079e-05
9.08786e-05
0.000101075
0.000107473
0.000110631
0.000110781
0.000107998
5.72497e-05
7.55789e-05
9.09332e-05
0.000101112
0.000107492
0.000110633
0.000110768
0.000107973
5.73119e-05
7.56281e-05
9.09723e-05
0.000101138
0.000107505
0.000110634
0.000110759
0.000107956
5.73273e-05
7.56544e-05
9.09934e-05
0.000101152
0.000107513
0.000110635
0.000110754
0.000107946
5.72942e-05
7.56512e-05
9.09927e-05
0.000101153
0.000107514
0.000110636
0.000110756
0.000107949
5.72169e-05
7.5625e-05
9.09759e-05
0.000101143
0.000107509
0.000110637
0.000110762
0.00010796
5.71423e-05
7.56675e-05
9.10732e-05
0.000101261
0.000107627
0.000110739
0.000110836
0.000107999
5.7299e-05
7.57863e-05
9.11686e-05
0.000101329
0.000107667
0.000110752
0.000110826
0.000107971
5.74213e-05
7.58849e-05
9.12467e-05
0.000101385
0.000107698
0.00011076
0.000110814
0.000107943
5.74975e-05
7.59512e-05
9.13015e-05
0.000101422
0.000107718
0.000110764
0.000110805
0.000107923
5.75196e-05
7.59835e-05
9.13265e-05
0.000101438
0.000107726
0.000110764
0.000110798
0.000107912
5.74847e-05
7.5973e-05
9.13177e-05
0.000101431
0.000107722
0.000110762
0.000110798
0.000107913
5.73984e-05
7.59259e-05
9.12809e-05
0.000101406
0.000107707
0.000110758
0.000110803
0.000107926
5.7334e-05
7.60397e-05
9.14743e-05
0.000101626
0.00010792
0.000110941
0.000110942
0.000108012
5.75214e-05
7.62017e-05
9.16086e-05
0.000101723
0.000107981
0.000110969
0.000110941
0.000107987
5.76708e-05
7.63367e-05
9.17163e-05
0.000101802
0.00010803
0.000110989
0.000110936
0.000107962
5.77671e-05
7.64252e-05
9.17881e-05
0.000101853
0.00010806
0.000111
0.000110931
0.000107943
5.77983e-05
7.64619e-05
9.18174e-05
0.000101873
0.000108071
0.000111002
0.000110924
0.00010793
5.77593e-05
7.644e-05
9.17991e-05
0.000101858
0.00010806
0.000110994
0.00011092
0.000107929
5.76568e-05
7.63671e-05
9.17398e-05
0.000101814
0.000108031
0.000110981
0.00011092
0.00010794
5.7617e-05
7.66126e-05
9.20942e-05
0.000102202
0.000108407
0.000111316
0.000111195
0.00010814
5.78476e-05
7.68263e-05
9.22754e-05
0.000102342
0.000108505
0.000111375
0.00011122
0.000108137
5.80327e-05
7.70014e-05
9.24232e-05
0.000102455
0.000108583
0.00011142
0.000111236
0.00010813
5.81513e-05
7.71178e-05
9.25208e-05
0.000102528
0.000108632
0.000111446
0.000111243
0.000108121
5.81907e-05
7.71628e-05
9.25573e-05
0.000102554
0.000108646
0.000111449
0.000111237
0.000108109
5.81438e-05
7.71279e-05
9.25266e-05
0.000102528
0.000108624
0.000111432
0.000111224
0.000108099
5.80198e-05
7.7024e-05
9.24385e-05
0.000102459
0.000108575
0.000111401
0.000111208
0.000108097
5.65212e-05
7.532e-05
9.0719e-05
0.000100947
0.000107399
0.000110629
0.000110864
0.000108171
5.67054e-05
7.57547e-05
9.10797e-05
0.000101214
0.000107563
0.000110684
0.000110815
0.000108039
5.67525e-05
7.59692e-05
9.13863e-05
0.000101594
0.000108018
5.74988e-05
7.73519e-05
5.66467e-05
5.63615e-05
7.52167e-05
9.06152e-05
0.000100849
0.000107313
0.000110558
0.000110807
0.000108126
5.64724e-05
7.5525e-05
9.08658e-05
0.000101027
0.000107411
0.000110571
0.000110738
0.000107993
5.64664e-05
7.56091e-05
9.10041e-05
0.0001012
0.000107615
0.000110806
0.000111006
0.000108288
5.69499e-05
7.65135e-05
9.17917e-05
0.00010187
0.00010816
0.000111208
0.000111258
0.000108424
5.64004e-05
7.5562e-05
9.09587e-05
0.000101153
0.000107565
0.000110757
0.000110958
0.000108242
5.63661e-05
7.55189e-05
9.08535e-05
0.000101007
0.000107386
0.000110542
0.000110708
0.000107961
5.61713e-05
7.51267e-05
9.05442e-05
0.000100789
0.000107266
0.000110525
0.000110788
0.000108115
5.62588e-05
7.51433e-05
9.05458e-05
0.000100789
0.000107264
0.00011052
0.00011078
0.000108106
5.63191e-05
7.53597e-05
9.07199e-05
0.00010091
0.000107326
0.00011052
0.000110719
0.000107998
5.62862e-05
7.53765e-05
9.07729e-05
0.000100982
0.000107413
0.000110623
0.00011084
0.000108135
5.66e-05
7.59765e-05
9.12753e-05
0.000101386
0.000107711
0.000110798
0.000110887
0.00010808
5.624e-05
7.53485e-05
9.0747e-05
0.000100954
0.000107385
0.000110594
0.000110811
0.000108106
5.62442e-05
7.53619e-05
9.07192e-05
0.000100904
0.000107316
0.000110506
0.000110702
0.000107978
5.61216e-05
7.50795e-05
9.04994e-05
0.000100752
0.000107237
0.000110503
0.000110772
0.000108103
5.61919e-05
7.50853e-05
9.04938e-05
0.000100747
0.000107233
0.0001105
0.000110768
0.0001081
5.62165e-05
7.52335e-05
9.06123e-05
0.000100828
0.000107273
0.000110494
0.000110719
0.000108017
5.617e-05
7.5216e-05
9.06218e-05
0.000100851
0.000107306
0.000110538
0.000110776
0.000108086
5.63729e-05
7.56174e-05
9.0948e-05
0.000101102
0.000107475
0.000110615
0.000110755
0.000107987
5.61339e-05
7.51953e-05
9.06037e-05
0.000100832
0.000107287
0.00011052
0.000110758
0.000108068
5.61565e-05
7.52309e-05
9.06098e-05
0.000100823
0.000107265
0.000110485
0.000110707
0.000108003
5.60828e-05
7.50286e-05
9.04537e-05
0.000100716
0.000107212
0.000110487
0.000110763
0.000108099
5.61465e-05
7.50343e-05
9.04502e-05
0.000100714
0.000107211
0.000110487
0.000110763
0.0001081
5.61451e-05
7.51312e-05
9.05271e-05
0.000100765
0.000107234
0.00011048
0.000110725
0.000108039
5.60921e-05
7.50963e-05
9.05139e-05
0.000100764
0.000107241
0.000110496
0.000110753
0.000108076
5.62203e-05
7.53655e-05
9.07275e-05
0.000100922
0.000107341
0.000110528
0.000110715
0.000107981
5.60598e-05
7.50769e-05
9.04975e-05
0.000100748
0.000107227
0.000110483
0.000110741
0.000108065
5.60893e-05
7.51171e-05
9.05159e-05
0.000100755
0.000107225
0.00011047
0.000110716
0.000108028
5.60488e-05
7.49732e-05
9.04055e-05
0.00010068
0.000107188
0.000110474
0.000110758
0.0001081
5.61136e-05
7.49863e-05
9.04108e-05
0.000100686
0.000107193
0.000110479
0.000110761
0.000108103
5.60921e-05
7.5044e-05
9.0456e-05
0.000100715
0.000107204
0.00011047
0.000110732
0.000108058
5.6036e-05
7.5e-05
9.04304e-05
0.0001007
0.000107199
0.000110473
0.000110746
0.000108081
5.61127e-05
7.51793e-05
9.05697e-05
0.0001008
0.000107257
0.000110484
0.000110708
0.000108003
5.60034e-05
7.4978e-05
9.04119e-05
0.000100684
0.000107185
0.000110461
0.000110736
0.000108074
5.60335e-05
7.50148e-05
9.04323e-05
0.000100695
0.000107189
0.000110458
0.000110723
0.00010805
5.6016e-05
7.49135e-05
9.0355e-05
0.000100644
0.000107165
0.000110462
0.000110755
0.000108103
5.60878e-05
7.49404e-05
9.03753e-05
0.000100662
0.00010718
0.000110473
0.000110761
0.000108106
5.60493e-05
7.49673e-05
9.03956e-05
0.000100673
0.000107181
0.000110462
0.000110738
0.000108074
5.59926e-05
7.49193e-05
9.03632e-05
0.000100651
0.000107168
0.000110459
0.000110745
0.000108089
5.60321e-05
7.50343e-05
9.04509e-05
0.000100713
0.000107202
0.00011046
0.000110713
0.00010803
5.59566e-05
7.4891e-05
9.03395e-05
0.000100631
0.000107152
0.000110447
0.000110737
0.000108084
5.59839e-05
7.4921e-05
9.03572e-05
0.000100643
0.000107158
0.000110447
0.000110729
0.000108069
5.59828e-05
7.48509e-05
9.03039e-05
0.000100608
0.000107142
0.000110451
0.000110753
0.000108108
5.60669e-05
7.48989e-05
9.03462e-05
0.000100645
0.000107172
0.000110471
0.000110763
0.000108109
5.60132e-05
7.49007e-05
9.03463e-05
0.000100642
0.000107164
0.000110458
0.000110744
0.000108086
5.5957e-05
7.48506e-05
9.03097e-05
0.000100615
0.000107147
0.000110451
0.000110746
0.000108097
5.59688e-05
7.4919e-05
9.03605e-05
0.00010065
0.000107164
0.000110447
0.000110721
0.000108053
5.59153e-05
7.48138e-05
9.02787e-05
0.00010059
0.000107128
0.000110438
0.000110739
0.000108094
5.59382e-05
7.4836e-05
9.02918e-05
0.000100599
0.000107133
0.000110438
0.000110734
0.000108083
5.59497e-05
7.47887e-05
9.02559e-05
0.000100575
0.000107123
0.000110442
0.000110752
0.000108112
5.60515e-05
7.48668e-05
9.03294e-05
0.000100639
0.000107173
0.000110475
0.000110766
0.00010811
5.59839e-05
7.48475e-05
9.03125e-05
0.000100624
0.000107159
0.00011046
0.00011075
0.000108094
5.59275e-05
7.47958e-05
9.02728e-05
0.000100594
0.000107138
0.000110449
0.000110749
0.000108101
5.59186e-05
7.48294e-05
9.0296e-05
0.000100609
0.000107143
0.000110443
0.00011073
0.00010807
5.58792e-05
7.47487e-05
9.02326e-05
0.000100562
0.000107114
0.000110434
0.000110742
0.0001081
5.58971e-05
7.47628e-05
9.02401e-05
0.000100567
0.000107118
0.000110435
0.000110739
0.000108094
5.59196e-05
7.47326e-05
9.02169e-05
0.000100552
0.000107111
0.000110437
0.000110751
0.000108114
5.6044e-05
7.48524e-05
9.03343e-05
0.000100654
0.00010719
0.000110488
0.000110772
0.000108107
5.59651e-05
7.48154e-05
9.0303e-05
0.000100629
0.00010717
0.000110472
0.000110758
0.000108095
5.59061e-05
7.47614e-05
9.02598e-05
0.000100595
0.000107146
0.000110458
0.000110754
0.0001081
5.58815e-05
7.47683e-05
9.0262e-05
0.000100595
0.000107142
0.000110449
0.000110739
0.000108079
5.58512e-05
7.47025e-05
9.02089e-05
0.000100555
0.000107117
0.00011044
0.000110746
0.000108101
5.5864e-05
7.47083e-05
9.02104e-05
0.000100556
0.000107117
0.00011044
0.000110746
0.000108099
5.58983e-05
7.46911e-05
9.01955e-05
0.000100545
0.000107112
0.000110441
0.000110754
0.000108114
5.60505e-05
7.487e-05
9.03768e-05
0.000100705
0.000107235
0.00011052
0.000110785
0.000108098
5.59622e-05
7.48177e-05
9.03327e-05
0.00010067
0.000107209
0.0001105
0.000110771
0.00010809
5.5899e-05
7.47602e-05
9.02852e-05
0.000100632
0.000107182
0.000110484
0.000110765
0.000108092
5.58612e-05
7.47456e-05
9.02705e-05
0.000100619
0.000107171
0.000110474
0.000110754
0.00010808
5.58377e-05
7.46882e-05
9.02221e-05
0.000100582
0.000107146
0.000110462
0.000110757
0.000108096
5.58453e-05
7.46855e-05
9.0217e-05
0.000100578
0.000107144
0.000110463
0.000110759
0.000108098
5.5887e-05
7.46768e-05
9.02075e-05
0.000100571
0.00010714
0.000110463
0.000110765
0.000108111
5.60816e-05
7.49426e-05
9.04819e-05
0.000100814
0.000107329
0.000110584
0.000110811
0.000108086
5.59838e-05
7.48763e-05
9.04264e-05
0.00010077
0.000107296
0.000110561
0.000110797
0.000108079
5.59164e-05
7.48146e-05
9.03736e-05
0.000100728
0.000107265
0.000110541
0.000110788
0.000108079
5.58661e-05
7.4782e-05
9.03448e-05
0.000100705
0.000107248
0.00011053
0.000110781
0.000108075
5.5846e-05
7.47278e-05
9.02966e-05
0.000100667
0.000107222
0.000110517
0.000110782
0.000108089
5.58502e-05
7.47162e-05
9.02841e-05
0.000100657
0.000107217
0.000110516
0.000110785
0.000108095
5.58912e-05
7.47124e-05
9.02788e-05
0.000100653
0.000107216
0.000110519
0.000110792
0.000108107
5.61447e-05
7.51064e-05
9.06912e-05
0.000101022
0.000107504
0.000110706
0.000110871
0.000108079
5.604e-05
7.50279e-05
9.0624e-05
0.000100968
0.000107463
0.000110678
0.000110853
0.00010807
5.59651e-05
7.49604e-05
9.05654e-05
0.000100921
0.000107429
0.000110656
0.000110843
0.00010807
5.59087e-05
7.4912e-05
9.05229e-05
0.000100888
0.000107406
0.000110643
0.000110838
0.000108072
5.58823e-05
7.48555e-05
9.04724e-05
0.000100848
0.00010738
0.000110631
0.000110842
0.000108089
5.58826e-05
7.48342e-05
9.04516e-05
0.000100832
0.000107371
0.000110629
0.000110846
0.000108099
5.59216e-05
7.48327e-05
9.04486e-05
0.000100831
0.000107372
0.000110634
0.000110854
0.000108112
5.62567e-05
7.5415e-05
9.10653e-05
0.000101387
0.000107814
0.000110932
0.000110999
0.000108105
5.61441e-05
7.53247e-05
9.0986e-05
0.000101322
0.000107763
0.000110896
0.000110975
0.000108092
5.60615e-05
7.52503e-05
9.09202e-05
0.000101269
0.000107725
0.000110872
0.000110964
0.000108091
5.59984e-05
7.51874e-05
9.0865e-05
0.000101226
0.000107696
0.000110857
0.000110962
0.0001081
5.59637e-05
7.51236e-05
9.08079e-05
0.000101182
0.000107669
0.000110848
0.00011097
0.000108123
5.59585e-05
7.50907e-05
9.07776e-05
0.000101159
0.000107656
0.000110845
0.000110976
0.000108137
5.59953e-05
7.5089e-05
9.07747e-05
0.000101158
0.000107658
0.000110851
0.000110986
0.000108151
5.63058e-05
5.66112e-05
7.57512e-05
5.65661e-05
7.54439e-05
9.08385e-05
0.000101058
0.000107493
5.66634e-05
7.52878e-05
9.06901e-05
0.000100941
0.000107418
0.000110667
0.000110911
0.00010821
5.68024e-05
7.49371e-05
9.03692e-05
0.000100693
0.000107253
0.000110591
0.000110923
0.000108307
5.61522e-05
7.50906e-05
9.05113e-05
0.000100763
0.000107245
0.000110509
0.000110774
0.000108101
5.62459e-05
7.51889e-05
9.05812e-05
0.000100807
0.000107266
0.000110505
0.000110747
0.00010805
5.63091e-05
7.52232e-05
9.0628e-05
0.000100857
0.000107312
0.000110546
0.000110783
0.000108085
5.65536e-05
7.55087e-05
9.08516e-05
0.000101029
0.000107432
0.00011061
0.000110785
0.000108028
5.65423e-05
7.52944e-05
9.06864e-05
0.00010092
0.00010738
0.000110615
0.000110854
0.000108154
5.66456e-05
7.51906e-05
9.05848e-05
0.000100843
0.000107333
0.000110597
0.000110854
0.000108166
5.6768e-05
7.49198e-05
9.03379e-05
0.000100652
0.000107207
0.00011054
0.000110867
0.000108246
5.61338e-05
7.50643e-05
9.04834e-05
0.000100739
0.000107227
0.000110496
0.000110764
0.000108092
5.6232e-05
7.51336e-05
9.05332e-05
0.000100772
0.000107244
0.000110495
0.000110747
0.000108059
5.63003e-05
7.51578e-05
9.05618e-05
0.000100801
0.00010727
0.000110518
0.000110767
0.000108079
5.65026e-05
7.53427e-05
9.07053e-05
0.00010091
0.000107344
0.000110552
0.000110757
0.000108028
5.65195e-05
7.51956e-05
9.05905e-05
0.000100836
0.000107313
0.000110567
0.000110819
0.000108131
5.6629e-05
7.51259e-05
9.05182e-05
0.000100782
0.000107281
0.000110556
0.000110823
0.000108143
5.6742e-05
7.49203e-05
9.033e-05
0.000100638
0.000107186
0.000110513
0.000110834
0.000108207
5.61159e-05
7.50276e-05
9.04495e-05
0.000100713
0.000107209
0.000110485
0.000110759
0.000108091
5.62105e-05
7.50777e-05
9.04861e-05
0.000100739
0.000107225
0.000110488
0.00011075
0.00010807
5.62852e-05
7.50982e-05
9.0507e-05
0.000100759
0.000107242
0.000110503
0.000110763
0.000108083
5.6458e-05
7.52244e-05
9.06032e-05
0.000100832
0.000107291
0.000110524
0.000110753
0.000108044
5.65005e-05
7.51279e-05
9.05259e-05
0.000100782
0.000107271
0.000110537
0.0001108
0.000108121
5.66137e-05
7.50824e-05
9.04756e-05
0.000100745
0.000107251
0.000110532
0.000110806
0.000108133
5.67227e-05
7.49313e-05
9.03354e-05
0.000100637
0.000107178
0.000110499
0.000110813
0.00010818
5.60948e-05
7.49817e-05
9.04095e-05
0.000100684
0.000107191
0.000110475
0.000110757
0.000108095
5.61853e-05
7.50212e-05
9.0439e-05
0.000100706
0.000107205
0.000110481
0.000110754
0.000108083
5.62665e-05
7.50436e-05
9.04591e-05
0.000100724
0.00010722
0.000110493
0.000110763
0.000108091
5.64188e-05
7.51359e-05
9.05286e-05
0.000100777
0.000107256
0.000110509
0.000110757
0.000108063
5.64848e-05
7.50784e-05
9.04802e-05
0.000100746
0.000107245
0.00011052
0.000110791
0.000108119
5.66012e-05
7.5054e-05
9.04489e-05
0.000100722
0.000107232
0.000110518
0.000110796
0.000108128
5.671e-05
7.49496e-05
9.03494e-05
0.000100644
0.00010718
0.000110493
0.0001108
0.000108161
5.60697e-05
7.49288e-05
9.0365e-05
0.000100652
0.000107171
0.000110466
0.000110756
0.0001081
5.61574e-05
7.49643e-05
9.03922e-05
0.000100673
0.000107186
0.000110474
0.000110757
0.000108094
5.62458e-05
7.49926e-05
9.04154e-05
0.000100692
0.000107201
0.000110485
0.000110765
0.0001081
5.63845e-05
7.50672e-05
9.04721e-05
0.000100736
0.000107232
0.000110501
0.000110763
0.000108081
5.64719e-05
7.50419e-05
9.0448e-05
0.000100721
0.000107228
0.00011051
0.000110787
0.000108119
5.65925e-05
7.50379e-05
9.04349e-05
0.000100711
0.000107223
0.00011051
0.00011079
0.000108124
5.67039e-05
7.49739e-05
9.03707e-05
0.00010066
0.000107187
0.000110492
0.000110792
0.000108145
5.60411e-05
7.48717e-05
9.03188e-05
0.000100619
0.000107151
0.000110457
0.000110755
0.000108106
5.61285e-05
7.49082e-05
9.03474e-05
0.000100642
0.000107168
0.000110468
0.000110759
0.000108103
5.62254e-05
7.49451e-05
9.03765e-05
0.000100665
0.000107185
0.000110479
0.000110766
0.000108107
5.63561e-05
7.50139e-05
9.04301e-05
0.000100707
0.000107216
0.000110496
0.000110769
0.000108095
5.64628e-05
7.50168e-05
9.04279e-05
0.000100707
0.000107219
0.000110505
0.000110785
0.000108119
5.65888e-05
7.50335e-05
9.04332e-05
0.000100711
0.000107222
0.000110508
0.000110787
0.000108119
5.67055e-05
7.50053e-05
9.04001e-05
0.000100682
0.000107202
0.000110497
0.000110786
0.00010813
5.60115e-05
7.48145e-05
9.02751e-05
0.00010059
0.000107135
0.00011045
0.000110755
0.000108111
5.61017e-05
7.48563e-05
9.03078e-05
0.000100616
0.000107154
0.000110462
0.000110761
0.000108111
5.62072e-05
7.49034e-05
9.03451e-05
0.000100645
0.000107175
0.000110476
0.000110768
0.000108113
5.63367e-05
7.49759e-05
9.04023e-05
0.00010069
0.000107208
0.000110496
0.000110774
0.000108104
5.64593e-05
7.50043e-05
9.04217e-05
0.000100706
0.00010722
0.000110506
0.000110785
0.000108117
5.65925e-05
7.50427e-05
9.04463e-05
0.000100723
0.000107232
0.000110513
0.000110786
0.000108113
5.67172e-05
7.50473e-05
9.04417e-05
0.000100717
0.000107225
0.000110507
0.000110783
0.000108115
5.59852e-05
7.47637e-05
9.02401e-05
0.00010057
0.000107124
0.000110446
0.000110756
0.000108114
5.60806e-05
7.48121e-05
9.02784e-05
0.0001006
0.000107147
0.000110461
0.000110763
0.000108115
5.61938e-05
7.48719e-05
9.03267e-05
0.000100638
0.000107174
0.000110479
0.000110771
0.000108115
5.63276e-05
7.49542e-05
9.03928e-05
0.00010069
0.000107212
0.000110501
0.000110779
0.000108108
5.64637e-05
7.50087e-05
9.04345e-05
0.000100722
0.000107234
0.000110516
0.000110787
0.000108112
5.66067e-05
7.50704e-05
9.04797e-05
0.000100754
0.000107255
0.000110526
0.000110787
0.000108103
5.67425e-05
7.51065e-05
9.05025e-05
0.000100769
0.000107262
0.000110526
0.000110783
0.000108097
5.59668e-05
7.47263e-05
9.02226e-05
0.000100566
0.000107128
0.000110452
0.00011076
0.000108115
5.60668e-05
7.47837e-05
9.02691e-05
0.000100603
0.000107155
0.00011047
0.000110769
0.000108115
5.61882e-05
7.48589e-05
9.03309e-05
0.000100652
0.00010719
0.000110492
0.000110778
0.000108114
5.63301e-05
7.49561e-05
9.04105e-05
0.000100714
0.000107235
0.000110518
0.000110787
0.000108106
5.64801e-05
7.50383e-05
9.04762e-05
0.000100764
0.000107269
0.000110538
0.000110794
0.000108104
5.66359e-05
7.51256e-05
9.05439e-05
0.000100814
0.000107301
0.000110553
0.000110793
0.00010809
5.67863e-05
7.51935e-05
9.05945e-05
0.000100849
0.000107321
0.000110559
0.000110788
0.000108075
5.59582e-05
7.47166e-05
9.02392e-05
0.000100596
0.000107159
0.000110476
0.000110772
0.000108112
5.60638e-05
7.47852e-05
9.0296e-05
0.000100641
0.000107192
0.000110498
0.000110782
0.000108112
5.61948e-05
7.48784e-05
9.03739e-05
0.000100703
0.000107237
0.000110525
0.000110793
0.000108109
5.63485e-05
7.49954e-05
9.04714e-05
0.000100779
0.000107291
0.000110557
0.000110804
0.0001081
5.65145e-05
7.51078e-05
9.05637e-05
0.000100849
0.000107339
0.000110583
0.000110811
0.000108092
5.6687e-05
7.52241e-05
9.06573e-05
0.000100919
0.000107384
0.000110605
0.00011081
0.000108072
5.68556e-05
7.53258e-05
9.07375e-05
0.000100977
0.000107419
0.000110618
0.000110804
0.000108051
5.59655e-05
7.47573e-05
9.03156e-05
0.000100683
0.000107238
0.000110534
0.000110801
0.000108109
5.60781e-05
7.48394e-05
9.03849e-05
0.000100738
0.000107279
0.00011056
0.000110813
0.000108108
5.62213e-05
7.49538e-05
9.04823e-05
0.000100816
0.000107335
0.000110594
0.000110827
0.000108104
5.63906e-05
7.5096e-05
9.06028e-05
0.00010091
0.000107402
0.000110634
0.00011084
0.000108095
5.6576e-05
7.5242e-05
9.07253e-05
0.000101005
0.000107466
0.00011067
0.00011085
0.000108082
5.67698e-05
7.53927e-05
9.08497e-05
0.000101098
0.000107528
0.000110699
0.000110851
0.000108058
5.69615e-05
7.55324e-05
9.09641e-05
0.000101182
0.00010758
0.000110722
0.000110846
0.000108031
5.59997e-05
7.48833e-05
9.04912e-05
0.000100865
0.000107398
0.000110652
0.000110865
0.000108115
5.61215e-05
7.49813e-05
9.05756e-05
0.000100933
0.000107448
0.000110684
0.00011088
0.000108115
5.62798e-05
7.51212e-05
9.06968e-05
0.00010103
0.000107519
0.000110729
0.000110899
0.000108112
5.64691e-05
7.5295e-05
9.08469e-05
0.000101149
0.000107604
0.00011078
0.00011092
0.000108104
5.66788e-05
7.54807e-05
9.10058e-05
0.000101273
0.00010769
0.00011083
0.000110936
0.000108093
5.69003e-05
7.56733e-05
9.11685e-05
0.000101398
0.000107774
0.000110873
0.000110944
0.000108069
5.71215e-05
7.58586e-05
9.13245e-05
0.000101514
0.00010785
0.00011091
0.000110945
0.000108042
5.60781e-05
7.51463e-05
9.08241e-05
0.000101199
0.00010769
0.000110873
0.000111
0.000108156
5.62111e-05
7.52632e-05
9.09268e-05
0.000101283
0.000107753
0.000110915
0.000111021
0.000108159
5.63887e-05
7.54345e-05
9.10781e-05
0.000101406
0.000107844
0.000110976
0.000111053
0.000108165
5.66036e-05
7.56485e-05
9.12671e-05
0.000101558
0.000107957
0.000111048
0.000111089
0.00010817
5.68445e-05
7.58829e-05
9.1472e-05
0.000101721
0.000108075
0.000111122
0.000111124
0.000108171
5.71017e-05
7.61286e-05
9.16843e-05
0.000101888
0.00010819
0.00011119
0.00011115
0.000108162
5.73622e-05
7.63714e-05
9.18942e-05
0.000102047
0.0001083
0.000111254
0.000111172
0.00010815
5.7144e-05
7.50469e-05
9.04655e-05
0.000100782
0.000107326
0.000110642
0.000110948
0.000108307
5.73113e-05
7.57218e-05
9.10229e-05
0.000101189
0.000107576
0.000110731
0.000110885
0.000108122
5.73258e-05
7.60109e-05
9.13274e-05
0.000101485
0.000107871
0.000111038
0.000111217
0.000108489
5.77741e-05
7.70259e-05
9.22745e-05
0.000102335
0.000108601
0.000111618
0.000111644
0.000108812
5.69839e-05
7.58118e-05
9.11931e-05
0.000101381
0.000107781
0.000110952
0.000111127
0.000108388
5.69012e-05
7.57665e-05
9.10514e-05
0.000101164
0.000107495
0.0001106
0.000110718
0.000107935
5.65527e-05
7.52749e-05
9.06864e-05
0.000100924
0.000107384
0.000110618
0.000110856
0.000108163
5.69983e-05
7.49897e-05
9.03986e-05
0.000100708
0.000107253
0.000110573
0.000110884
0.000108248
5.70821e-05
7.54964e-05
9.08187e-05
0.000101014
0.000107436
0.000110628
0.000110819
0.000108087
5.70383e-05
7.56688e-05
9.09975e-05
0.000101175
0.000107582
0.000110768
0.000110964
0.000108242
5.73126e-05
7.63415e-05
9.15955e-05
0.000101677
0.000107967
0.000111011
0.000111055
0.000108216
5.67488e-05
7.55438e-05
9.091e-05
0.000101098
0.000107506
0.00011069
0.000110882
0.000108156
5.6686e-05
7.55505e-05
9.0862e-05
0.000101011
0.000107385
0.000110535
0.000110694
0.000107944
5.64044e-05
7.51909e-05
9.05952e-05
0.000100835
0.000107303
0.000110551
0.000110802
0.00010812
5.69047e-05
7.49724e-05
9.03736e-05
0.000100675
0.000107215
0.000110532
0.000110842
0.000108206
5.69313e-05
7.53496e-05
9.06889e-05
0.000100905
0.000107353
0.000110573
0.00011079
0.000108079
5.68561e-05
7.54542e-05
9.0798e-05
0.000100998
0.000107429
0.000110639
0.000110856
0.000108148
5.70148e-05
7.59042e-05
9.11839e-05
0.000101304
0.000107639
0.000110736
0.000110832
0.000108028
5.65994e-05
7.53738e-05
9.07412e-05
0.000100943
0.000107371
0.000110577
0.00011079
0.000108081
5.65418e-05
7.53958e-05
9.07321e-05
0.000100913
0.000107322
0.000110508
0.000110701
0.000107975
5.6311e-05
7.5133e-05
9.05362e-05
0.000100781
0.000107258
0.000110516
0.000110776