/*--------------------------------*- C++ -*----------------------------------*\
| =========                 |                                                 |
| \\      /  F ield         | OpenFOAM: The Open Source CFD Toolbox           |
|  \\    /   O peration     | Version:  plus.master.MPPICInterFoam            |
|   \\  /    A nd           | Web:      www.OpenFOAM.com                      |
|    \\/     M anipulation  |                                                 |
\*---------------------------------------------------------------------------*/
FoamFile
{
    version     2.0;
    format      ascii;
    class       volScalarField;
    location    "6";
    object      nut;
}
// * * * * * * * * * * * * * * * * * * * * * * * * * * * * * * * * * * * * * //

dimensions      [0 2 -1 0 0 0 0];

internalField   nonuniform List<scalar> 
11821
(
4.50494e-06
1.88654e-05
3.35536e-05
4.31772e-05
4.89085e-05
5.18016e-05
5.24064e-05
5.0908e-05
4.51006e-06
1.86669e-05
3.33372e-05
4.30138e-05
4.88003e-05
5.174e-05
5.23829e-05
5.09162e-05
4.51402e-06
1.85615e-05
3.32196e-05
4.29236e-05
4.87399e-05
5.17043e-05
5.23665e-05
5.09143e-05
4.51634e-06
1.85116e-05
3.31663e-05
4.28833e-05
4.87127e-05
5.16878e-05
5.23587e-05
5.09136e-05
4.51709e-06
1.85516e-05
3.32138e-05
4.29206e-05
4.87378e-05
5.1702e-05
5.23635e-05
5.09102e-05
4.51623e-06
1.8654e-05
3.33353e-05
4.30156e-05
4.88015e-05
5.17387e-05
5.23785e-05
5.09084e-05
4.51427e-06
1.89078e-05
3.36189e-05
4.32323e-05
4.89463e-05
5.18212e-05
5.24081e-05
5.08918e-05
4.50267e-06
1.89339e-05
3.3626e-05
4.32269e-05
4.89354e-05
5.18096e-05
5.23993e-05
5.08887e-05
4.50702e-06
1.87663e-05
3.34442e-05
4.30905e-05
4.88458e-05
5.17594e-05
5.23816e-05
5.08982e-05
4.51036e-06
1.86739e-05
3.33416e-05
4.30125e-05
4.8794e-05
5.17293e-05
5.23685e-05
5.08982e-05
4.51222e-06
1.86285e-05
3.32929e-05
4.29759e-05
4.87694e-05
5.17147e-05
5.2362e-05
5.08984e-05
4.51262e-06
1.86609e-05
3.33303e-05
4.30047e-05
4.87886e-05
5.17254e-05
5.23654e-05
5.08953e-05
4.51148e-06
1.8746e-05
3.34292e-05
4.3081e-05
4.88392e-05
5.1754e-05
5.23765e-05
5.08927e-05
4.50919e-06
1.89547e-05
3.36588e-05
4.32546e-05
4.89543e-05
5.18187e-05
5.23983e-05
5.08771e-05
4.50105e-06
1.89927e-05
3.36892e-05
4.3272e-05
4.89615e-05
5.18195e-05
5.23958e-05
5.08741e-05
4.5049e-06
1.88544e-05
3.35403e-05
4.3161e-05
4.8889e-05
5.17792e-05
5.23821e-05
5.08829e-05
4.50782e-06
1.87762e-05
3.34542e-05
4.3096e-05
4.88461e-05
5.17545e-05
5.23717e-05
5.08836e-05
4.50938e-06
1.87372e-05
3.34125e-05
4.30648e-05
4.88252e-05
5.17421e-05
5.23663e-05
5.0884e-05
4.50956e-06
1.8764e-05
3.34425e-05
4.30876e-05
4.88401e-05
5.17502e-05
5.23685e-05
5.08809e-05
4.50828e-06
1.88347e-05
3.35229e-05
4.31488e-05
4.88804e-05
5.17728e-05
5.23769e-05
5.08784e-05
4.50585e-06
1.90045e-05
3.3707e-05
4.32867e-05
4.8971e-05
5.18231e-05
5.2393e-05
5.08643e-05
4.49994e-06
1.90437e-05
3.37448e-05
4.33128e-05
4.89861e-05
5.18299e-05
5.23942e-05
5.08624e-05
4.5035e-06
1.8932e-05
3.36258e-05
4.32248e-05
4.89288e-05
5.17982e-05
5.23835e-05
5.08695e-05
4.50617e-06
1.8868e-05
3.3556e-05
4.31726e-05
4.88946e-05
5.17784e-05
5.23751e-05
5.08699e-05
4.50756e-06
1.88361e-05
3.35222e-05
4.31475e-05
4.88778e-05
5.17684e-05
5.23706e-05
5.08701e-05
4.50762e-06
1.88587e-05
3.35468e-05
4.31659e-05
4.88897e-05
5.17747e-05
5.23719e-05
5.08671e-05
4.50628e-06
1.89173e-05
3.3612e-05
4.32149e-05
4.89217e-05
5.17923e-05
5.23783e-05
5.08647e-05
4.5038e-06
1.90539e-05
3.37581e-05
4.33233e-05
4.89924e-05
5.18313e-05
5.23904e-05
5.0853e-05
4.49927e-06
1.90885e-05
3.37942e-05
4.33497e-05
4.90089e-05
5.184e-05
5.23933e-05
5.08521e-05
4.50271e-06
1.90003e-05
3.37016e-05
4.32821e-05
4.89652e-05
5.18156e-05
5.23847e-05
5.08569e-05
4.50526e-06
1.89496e-05
3.36473e-05
4.32421e-05
4.8939e-05
5.18003e-05
5.23778e-05
5.08565e-05
4.50658e-06
1.89248e-05
3.36214e-05
4.32231e-05
4.89263e-05
5.17926e-05
5.2374e-05
5.0856e-05
4.5066e-06
1.89441e-05
3.36421e-05
4.32383e-05
4.89361e-05
5.17975e-05
5.23748e-05
5.0853e-05
4.50524e-06
1.89925e-05
3.36947e-05
4.32774e-05
4.89613e-05
5.18114e-05
5.23796e-05
5.08509e-05
4.50276e-06
1.91013e-05
3.38093e-05
4.33615e-05
4.90158e-05
5.18413e-05
5.23889e-05
5.08418e-05
4.49902e-06
1.91282e-05
3.38387e-05
4.33836e-05
4.90302e-05
5.18494e-05
5.23921e-05
5.08418e-05
4.50247e-06
1.90606e-05
3.37693e-05
4.33339e-05
4.89982e-05
5.18313e-05
5.2385e-05
5.0844e-05
4.50502e-06
1.9022e-05
3.37291e-05
4.3305e-05
4.89794e-05
5.18199e-05
5.23792e-05
5.08423e-05
4.50635e-06
1.9004e-05
3.37109e-05
4.3292e-05
4.89707e-05
5.18142e-05
5.23758e-05
5.08409e-05
4.50637e-06
1.90208e-05
3.37286e-05
4.33049e-05
4.89789e-05
5.18182e-05
5.23761e-05
5.08379e-05
4.50504e-06
1.90604e-05
3.37707e-05
4.33357e-05
4.89986e-05
5.1829e-05
5.23798e-05
5.08361e-05
4.50256e-06
1.91459e-05
3.38592e-05
4.33998e-05
4.90399e-05
5.18517e-05
5.2387e-05
5.08295e-05
4.49923e-06
1.91642e-05
3.388e-05
4.34158e-05
4.90506e-05
5.18579e-05
5.23897e-05
5.08299e-05
4.5028e-06
1.91143e-05
3.38308e-05
4.33818e-05
4.90289e-05
5.18451e-05
5.23835e-05
5.08292e-05
4.50544e-06
1.90867e-05
3.38034e-05
4.3363e-05
4.90168e-05
5.18372e-05
5.23783e-05
5.08258e-05
4.50685e-06
1.9075e-05
3.37923e-05
4.33556e-05
4.90117e-05
5.18333e-05
5.23751e-05
5.08231e-05
4.50692e-06
1.90898e-05
3.38078e-05
4.33669e-05
4.90188e-05
5.18366e-05
5.2375e-05
5.08199e-05
4.50562e-06
1.91219e-05
3.38411e-05
4.33908e-05
4.90339e-05
5.18448e-05
5.23779e-05
5.08186e-05
4.50311e-06
1.91879e-05
3.39079e-05
4.34384e-05
4.90643e-05
5.18617e-05
5.23836e-05
5.08145e-05
4.49995e-06
1.91979e-05
3.39203e-05
4.34482e-05
4.9071e-05
5.18653e-05
5.23844e-05
5.08135e-05
4.50377e-06
1.91636e-05
3.38888e-05
4.34281e-05
4.90583e-05
5.18569e-05
5.23786e-05
5.08095e-05
4.5066e-06
1.91459e-05
3.38731e-05
4.34185e-05
4.90522e-05
5.18518e-05
5.23734e-05
5.08038e-05
4.50815e-06
1.91399e-05
3.38686e-05
4.34162e-05
4.90504e-05
5.18495e-05
5.23702e-05
5.07996e-05
4.5083e-06
1.91533e-05
3.38827e-05
4.34265e-05
4.90567e-05
5.18522e-05
5.23695e-05
5.0796e-05
4.50702e-06
1.91788e-05
3.39083e-05
4.34445e-05
4.9068e-05
5.18583e-05
5.23718e-05
5.07952e-05
4.50446e-06
1.92285e-05
3.3957e-05
4.34783e-05
4.90894e-05
5.18705e-05
5.23767e-05
5.07937e-05
4.50135e-06
1.92317e-05
3.39627e-05
4.34832e-05
4.90922e-05
5.18703e-05
5.23731e-05
5.07877e-05
4.50552e-06
1.92113e-05
3.39472e-05
4.34756e-05
4.90876e-05
5.18653e-05
5.23666e-05
5.07794e-05
4.50864e-06
1.92027e-05
3.39423e-05
4.34745e-05
4.90867e-05
5.18625e-05
5.23608e-05
5.07706e-05
4.51041e-06
1.9202e-05
3.3944e-05
4.34771e-05
4.9088e-05
5.18613e-05
5.23569e-05
5.07641e-05
4.51067e-06
1.92143e-05
3.39571e-05
4.34867e-05
4.90938e-05
5.18634e-05
5.23556e-05
5.07598e-05
4.5094e-06
1.9234e-05
3.3976e-05
4.34996e-05
4.91017e-05
5.18678e-05
5.23575e-05
5.07598e-05
4.50674e-06
1.92699e-05
3.40094e-05
4.35217e-05
4.91156e-05
5.18763e-05
5.23622e-05
5.07612e-05
4.50362e-06
1.92691e-05
3.40118e-05
4.3524e-05
4.91146e-05
5.18696e-05
5.23486e-05
5.0742e-05
4.5083e-06
1.92615e-05
3.40112e-05
4.35278e-05
4.91168e-05
5.18668e-05
5.23399e-05
5.07278e-05
4.51182e-06
1.92615e-05
3.40165e-05
4.35348e-05
4.91206e-05
5.18652e-05
5.23321e-05
5.07142e-05
4.51388e-06
1.92656e-05
3.40242e-05
4.35419e-05
4.91245e-05
5.18644e-05
5.23266e-05
5.07043e-05
4.5143e-06
1.92774e-05
3.40366e-05
4.35511e-05
4.91297e-05
5.18657e-05
5.23243e-05
5.06988e-05
4.51301e-06
1.92919e-05
3.40496e-05
4.35594e-05
4.91347e-05
5.18688e-05
5.23261e-05
5.06998e-05
4.51019e-06
1.93157e-05
3.40696e-05
4.35714e-05
4.91423e-05
5.18747e-05
5.23315e-05
5.0705e-05
4.50711e-06
1.93157e-05
3.40744e-05
4.35741e-05
4.91363e-05
5.18551e-05
5.22964e-05
5.06567e-05
4.51245e-06
1.93202e-05
3.40878e-05
4.35884e-05
4.91439e-05
5.18524e-05
5.22826e-05
5.06329e-05
4.51653e-06
1.93286e-05
3.4103e-05
4.3603e-05
4.91515e-05
5.18501e-05
5.22702e-05
5.06113e-05
4.51899e-06
1.93374e-05
3.41167e-05
4.36143e-05
4.9157e-05
5.18484e-05
5.22612e-05
5.05959e-05
4.5196e-06
1.9349e-05
3.41287e-05
4.36231e-05
4.91615e-05
5.18485e-05
5.2257e-05
5.05879e-05
4.51828e-06
1.93587e-05
3.4136e-05
4.36271e-05
4.91641e-05
5.18506e-05
5.22594e-05
5.05907e-05
4.51521e-06
1.93714e-05
3.4144e-05
4.36304e-05
4.91666e-05
5.18552e-05
5.22671e-05
5.06017e-05
4.5123e-06
1.93799e-05
3.41591e-05
4.36362e-05
4.91506e-05
5.1809e-05
5.21876e-05
5.04932e-05
4.51852e-06
1.93964e-05
3.41863e-05
4.36598e-05
4.91612e-05
5.18022e-05
5.21629e-05
5.0453e-05
4.52338e-06
1.94134e-05
3.4211e-05
4.36814e-05
4.91704e-05
5.17956e-05
5.21407e-05
5.04173e-05
4.5264e-06
1.94263e-05
3.42308e-05
4.36963e-05
4.91761e-05
5.17903e-05
5.21245e-05
5.03916e-05
4.52727e-06
1.94382e-05
3.42426e-05
4.37042e-05
4.91792e-05
5.1788e-05
5.21168e-05
5.03792e-05
4.52588e-06
1.94438e-05
3.42442e-05
4.37044e-05
4.91798e-05
5.17901e-05
5.21208e-05
5.03849e-05
4.52245e-06
1.94457e-05
3.424e-05
4.36994e-05
4.91795e-05
5.17971e-05
5.21354e-05
5.04064e-05
4.51997e-06
1.9474e-05
3.42766e-05
4.37099e-05
4.91403e-05
5.16951e-05
5.19671e-05
5.01815e-05
4.5274e-06
1.95024e-05
3.43174e-05
4.37402e-05
4.91489e-05
5.16763e-05
5.19208e-05
5.01115e-05
4.53331e-06
1.95291e-05
3.43504e-05
4.37657e-05
4.91555e-05
5.16594e-05
5.18802e-05
5.00503e-05
4.53713e-06
1.95449e-05
3.43732e-05
4.37828e-05
4.91592e-05
5.16465e-05
5.18506e-05
5.00063e-05
4.53836e-06
1.95539e-05
3.43844e-05
4.37907e-05
4.91608e-05
5.16407e-05
5.18373e-05
4.99864e-05
4.53681e-06
1.95538e-05
3.43818e-05
4.37884e-05
4.91614e-05
5.16451e-05
5.18456e-05
4.9998e-05
4.53275e-06
1.95473e-05
3.43687e-05
4.37786e-05
4.91622e-05
5.16597e-05
5.18742e-05
5.00383e-05
4.53126e-06
1.96145e-05
3.44345e-05
4.37829e-05
4.90697e-05
5.14498e-05
5.15429e-05
4.96048e-05
4.54038e-06
1.9651e-05
3.4485e-05
4.38175e-05
4.90691e-05
5.14063e-05
5.1457e-05
4.94828e-05
4.54769e-06
1.96823e-05
3.45282e-05
4.38461e-05
4.90673e-05
5.13677e-05
5.13816e-05
4.93762e-05
4.55237e-06
1.97043e-05
3.45576e-05
4.38647e-05
4.90643e-05
5.13388e-05
5.13267e-05
4.92992e-05
4.55393e-06
1.97146e-05
3.45701e-05
4.38721e-05
4.90626e-05
5.13262e-05
5.13031e-05
4.92658e-05
4.55207e-06
1.97109e-05
3.45638e-05
4.38686e-05
4.90652e-05
5.13362e-05
5.13202e-05
4.92884e-05
4.54717e-06
1.96962e-05
3.45424e-05
4.38567e-05
4.9073e-05
5.13676e-05
5.13747e-05
4.93619e-05
4.48737e-06
1.94968e-05
3.42395e-05
4.36772e-05
4.92125e-05
5.19413e-05
5.24164e-05
5.08195e-05
4.49466e-06
1.97336e-05
3.45168e-05
4.38906e-05
4.93387e-05
5.19786e-05
5.23691e-05
5.06966e-05
4.49655e-06
1.98401e-05
3.46846e-05
4.40657e-05
4.9505e-05
4.52604e-06
2.05225e-05
4.4924e-06
4.48102e-06
1.94708e-05
3.41922e-05
4.36305e-05
4.91757e-05
5.19166e-05
5.24027e-05
5.08142e-05
4.48541e-06
1.96464e-05
3.4394e-05
4.37823e-05
4.92614e-05
5.19353e-05
5.23577e-05
5.07127e-05
4.48519e-06
1.96939e-05
3.44728e-05
4.3864e-05
4.93373e-05
5.20054e-05
5.24251e-05
5.07809e-05
4.50435e-06
2.01585e-05
3.5016e-05
4.42996e-05
4.96218e-05
5.21239e-05
5.23664e-05
5.05416e-05
4.4826e-06
1.96857e-05
3.44586e-05
4.38483e-05
4.93223e-05
5.19923e-05
5.24145e-05
5.07729e-05
4.48121e-06
1.96591e-05
3.43971e-05
4.37788e-05
4.9255e-05
5.19278e-05
5.23498e-05
5.07043e-05
4.47349e-06
1.94483e-05
3.41545e-05
4.35963e-05
4.91524e-05
5.19056e-05
5.24031e-05
5.08231e-05
4.47693e-06
1.94505e-05
3.41582e-05
4.35985e-05
4.91522e-05
5.19024e-05
5.23965e-05
5.08136e-05
4.47931e-06
1.95804e-05
3.43049e-05
4.37071e-05
4.92116e-05
5.19126e-05
5.236e-05
5.07358e-05
4.47801e-06
1.95968e-05
3.4337e-05
4.37412e-05
4.92435e-05
5.19433e-05
5.23924e-05
5.07731e-05
4.49048e-06
1.9915e-05
3.4704e-05
4.40288e-05
4.94222e-05
5.20034e-05
5.23278e-05
5.05844e-05
4.4762e-06
1.9594e-05
3.43307e-05
4.37331e-05
4.92353e-05
5.19356e-05
5.23858e-05
5.07679e-05
4.47636e-06
1.95946e-05
3.43136e-05
4.37098e-05
4.92106e-05
5.19093e-05
5.2355e-05
5.07292e-05
4.4715e-06
1.94372e-05
3.41355e-05
4.35776e-05
4.91381e-05
5.18963e-05
5.2398e-05
5.0821e-05
4.47426e-06
1.94327e-05
3.4131e-05
4.35742e-05
4.91353e-05
5.18933e-05
5.23938e-05
5.08152e-05
4.47523e-06
1.95282e-05
3.4237e-05
4.36513e-05
4.91765e-05
5.18989e-05
5.23659e-05
5.07577e-05
4.47338e-06
1.95289e-05
3.42447e-05
4.36612e-05
4.9187e-05
5.19114e-05
5.23827e-05
5.07813e-05
4.48146e-06
1.9748e-05
3.44946e-05
4.38536e-05
4.93022e-05
5.19433e-05
5.2328e-05
5.06417e-05
4.47196e-06
1.95281e-05
3.42416e-05
4.36563e-05
4.91817e-05
5.19064e-05
5.23784e-05
5.07782e-05
4.47286e-06
1.95402e-05
3.42451e-05
4.36543e-05
4.91761e-05
5.18965e-05
5.23619e-05
5.07522e-05
4.46994e-06
1.94229e-05
3.41143e-05
4.35583e-05
4.91243e-05
5.18884e-05
5.2395e-05
5.08213e-05
4.47246e-06
1.94155e-05
3.41068e-05
4.35535e-05
4.91215e-05
5.18865e-05
5.23926e-05
5.08178e-05
4.47239e-06
1.94852e-05
3.41823e-05
4.36072e-05
4.91492e-05
5.1889e-05
5.23715e-05
5.0776e-05
4.47028e-06
1.94782e-05
3.41776e-05
4.36045e-05
4.91491e-05
5.18928e-05
5.23809e-05
5.07927e-05
4.47538e-06
1.963e-05
3.43487e-05
4.37343e-05
4.92245e-05
5.19103e-05
5.23388e-05
5.06928e-05
4.46901e-06
1.94779e-05
3.4175e-05
4.36003e-05
4.91445e-05
5.18886e-05
5.23778e-05
5.07908e-05
4.47018e-06
1.94933e-05
3.41867e-05
4.36071e-05
4.9147e-05
5.18858e-05
5.23678e-05
5.07718e-05
4.46858e-06
1.94058e-05
3.40906e-05
4.35374e-05
4.91098e-05
5.18806e-05
5.23927e-05
5.0823e-05
4.47115e-06
1.9398e-05
3.40835e-05
4.35342e-05
4.9109e-05
5.18805e-05
5.23917e-05
5.08205e-05
4.47028e-06
1.94484e-05
3.41363e-05
4.35701e-05
4.91265e-05
5.18807e-05
5.23758e-05
5.07906e-05
4.46805e-06
1.94376e-05
3.41249e-05
4.3561e-05
4.91208e-05
5.18798e-05
5.23812e-05
5.0803e-05
4.4711e-06
1.95437e-05
3.42428e-05
4.36487e-05
4.91704e-05
5.18894e-05
5.235e-05
5.07328e-05
4.46675e-06
1.9437e-05
3.41216e-05
4.35558e-05
4.91156e-05
5.18757e-05
5.23785e-05
5.08021e-05
4.46795e-06
1.94517e-05
3.41351e-05
4.35653e-05
4.91208e-05
5.18757e-05
5.2372e-05
5.07876e-05
4.46727e-06
1.93863e-05
3.40644e-05
4.35147e-05
4.90941e-05
5.18723e-05
5.23904e-05
5.08252e-05
4.47012e-06
1.93799e-05
3.40607e-05
4.35157e-05
4.90972e-05
5.18747e-05
5.23905e-05
5.08224e-05
4.46858e-06
1.94158e-05
3.40961e-05
4.35381e-05
4.91067e-05
5.18728e-05
5.23783e-05
5.08012e-05
4.46632e-06
1.94038e-05
3.40815e-05
4.35253e-05
4.90979e-05
5.18694e-05
5.23812e-05
5.08109e-05
4.46789e-06
1.94775e-05
3.41621e-05
4.35841e-05
4.91302e-05
5.18744e-05
5.23586e-05
5.07621e-05
4.46488e-06
1.94017e-05
3.4076e-05
4.35181e-05
4.90913e-05
5.18645e-05
5.23786e-05
5.08106e-05
4.46597e-06
1.9414e-05
3.40883e-05
4.35272e-05
4.90967e-05
5.18656e-05
5.23741e-05
5.07997e-05
4.46594e-06
1.93646e-05
3.40359e-05
4.34903e-05
4.90775e-05
5.18633e-05
5.23876e-05
5.08271e-05
4.46929e-06
1.93618e-05
3.40388e-05
4.34986e-05
4.90864e-05
5.1869e-05
5.23882e-05
5.08221e-05
4.46714e-06
1.93866e-05
3.40607e-05
4.35103e-05
4.90895e-05
5.18652e-05
5.23784e-05
5.08073e-05
4.4649e-06
1.93746e-05
3.40448e-05
4.34955e-05
4.90787e-05
5.186e-05
5.23795e-05
5.08149e-05
4.46537e-06
1.94251e-05
3.40986e-05
4.35337e-05
4.90988e-05
5.1862e-05
5.23633e-05
5.07814e-05
4.46324e-06
1.937e-05
3.40358e-05
4.34852e-05
4.90698e-05
5.1854e-05
5.23767e-05
5.08152e-05
4.46415e-06
1.93794e-05
3.40456e-05
4.34926e-05
4.90744e-05
5.18552e-05
5.23739e-05
5.08076e-05
4.46462e-06
1.93412e-05
3.40061e-05
4.34653e-05
4.90603e-05
5.18533e-05
5.23834e-05
5.08271e-05
4.46869e-06
1.93449e-05
3.40196e-05
4.34844e-05
4.90773e-05
5.18628e-05
5.23829e-05
5.08168e-05
4.46599e-06
1.93607e-05
3.40307e-05
4.34874e-05
4.90751e-05
5.18573e-05
5.23749e-05
5.08067e-05
4.46373e-06
1.93493e-05
3.40142e-05
4.34714e-05
4.90629e-05
5.18506e-05
5.23744e-05
5.08123e-05
4.46337e-06
1.93831e-05
3.40486e-05
4.34944e-05
4.90741e-05
5.18504e-05
5.23628e-05
5.079e-05
4.4618e-06
1.93414e-05
3.40007e-05
4.34569e-05
4.90511e-05
5.18431e-05
5.23714e-05
5.08137e-05
4.46252e-06
1.93479e-05
3.40073e-05
4.3462e-05
4.90544e-05
5.18443e-05
5.23701e-05
5.08092e-05
4.46343e-06
1.93164e-05
3.3976e-05
4.34409e-05
4.90433e-05
5.18421e-05
5.23761e-05
5.08228e-05
4.46841e-06
1.93306e-05
3.40057e-05
4.34755e-05
4.90707e-05
5.18548e-05
5.23711e-05
5.08007e-05
4.46525e-06
1.93397e-05
3.40083e-05
4.34714e-05
4.90641e-05
5.18477e-05
5.23641e-05
5.07939e-05
4.4629e-06
1.93287e-05
3.39912e-05
4.34541e-05
4.90504e-05
5.18395e-05
5.2362e-05
5.07977e-05
4.46191e-06
1.93504e-05
3.40113e-05
4.34659e-05
4.9055e-05
5.18378e-05
5.2354e-05
5.07838e-05
4.4607e-06
1.93164e-05
3.39721e-05
4.34348e-05
4.90353e-05
5.18304e-05
5.23592e-05
5.08008e-05
4.46122e-06
1.93199e-05
3.39752e-05
4.34371e-05
4.90371e-05
5.18318e-05
5.23596e-05
5.07998e-05
4.46259e-06
1.92902e-05
3.39475e-05
4.34191e-05
4.90274e-05
5.18291e-05
5.23634e-05
5.08098e-05
4.46869e-06
1.93216e-05
3.40016e-05
4.34753e-05
4.90672e-05
5.18419e-05
5.23454e-05
5.07627e-05
4.46516e-06
1.93258e-05
3.39975e-05
4.34654e-05
4.90567e-05
5.18331e-05
5.23387e-05
5.0758e-05
4.46264e-06
1.93145e-05
3.39795e-05
4.34466e-05
4.90414e-05
5.18231e-05
5.23347e-05
5.07597e-05
4.46113e-06
1.9328e-05
3.39891e-05
4.345e-05
4.90411e-05
5.18205e-05
5.23298e-05
5.07526e-05
4.46019e-06
1.92968e-05
3.39537e-05
4.34218e-05
4.90228e-05
5.18129e-05
5.23331e-05
5.07662e-05
4.46049e-06
1.92972e-05
3.3953e-05
4.34212e-05
4.90234e-05
5.18148e-05
5.23362e-05
5.07696e-05
4.46217e-06
1.92689e-05
3.39283e-05
4.3406e-05
4.90155e-05
5.1813e-05
5.23398e-05
5.07787e-05
4.46998e-06
1.93228e-05
3.40147e-05
4.34886e-05
4.90663e-05
5.18163e-05
5.22909e-05
5.06817e-05
4.46607e-06
1.93238e-05
3.40057e-05
4.34741e-05
4.90522e-05
5.18053e-05
5.22832e-05
5.06771e-05
4.46337e-06
1.93116e-05
3.3986e-05
4.34534e-05
4.9035e-05
5.17935e-05
5.22771e-05
5.06763e-05
4.46137e-06
1.93197e-05
3.3988e-05
4.34503e-05
4.9031e-05
5.17903e-05
5.22751e-05
5.06751e-05
4.46056e-06
1.92888e-05
3.39539e-05
4.34234e-05
4.90139e-05
5.17839e-05
5.22795e-05
5.06896e-05
4.46073e-06
1.92844e-05
3.39482e-05
4.34196e-05
4.90133e-05
5.17872e-05
5.22864e-05
5.06994e-05
4.46237e-06
1.92613e-05
3.39285e-05
4.34083e-05
4.90088e-05
5.17884e-05
5.22929e-05
5.07112e-05
4.47256e-06
1.93492e-05
3.40599e-05
4.35226e-05
4.90639e-05
5.17617e-05
5.21783e-05
5.05173e-05
4.46838e-06
1.93459e-05
3.40454e-05
4.35031e-05
4.90457e-05
5.1747e-05
5.21673e-05
5.05096e-05
4.46539e-06
1.93346e-05
3.40256e-05
4.34812e-05
4.90267e-05
5.17331e-05
5.21585e-05
5.05051e-05
4.46313e-06
1.93342e-05
3.40185e-05
4.34717e-05
4.90193e-05
5.17297e-05
5.21594e-05
5.05098e-05
4.46207e-06
1.93073e-05
3.39875e-05
4.34473e-05
4.90054e-05
5.1728e-05
5.217e-05
5.05316e-05
4.46208e-06
1.92978e-05
3.3977e-05
4.34408e-05
4.90054e-05
5.17354e-05
5.21849e-05
5.05529e-05
4.46365e-06
1.92784e-05
3.3961e-05
4.34331e-05
4.90048e-05
5.17416e-05
5.21977e-05
5.05721e-05
4.47712e-06
1.9417e-05
3.4153e-05
4.3581e-05
4.90457e-05
5.16428e-05
5.19518e-05
5.0196e-05
4.47263e-06
1.94108e-05
3.41343e-05
4.35569e-05
4.90222e-05
5.16223e-05
5.1934e-05
5.01801e-05
4.46933e-06
1.94003e-05
3.4114e-05
4.35333e-05
4.9001e-05
5.1605e-05
5.192e-05
5.01685e-05
4.46681e-06
1.93932e-05
3.40998e-05
4.35189e-05
4.89917e-05
5.16032e-05
5.19262e-05
5.01816e-05
4.46542e-06
1.93676e-05
3.407e-05
4.3497e-05
4.89838e-05
5.16115e-05
5.19506e-05
5.02204e-05
4.46521e-06
1.9353e-05
3.4055e-05
4.34895e-05
4.89876e-05
5.16285e-05
5.19812e-05
5.0263e-05
4.46668e-06
1.93353e-05
3.40411e-05
4.34851e-05
4.89927e-05
5.16432e-05
5.20059e-05
5.02972e-05
4.47885e-06
4.49094e-06
1.96582e-05
4.48923e-06
1.94743e-05
3.42107e-05
4.36673e-05
4.92178e-05
4.49312e-06
1.93765e-05
3.40988e-05
4.35805e-05
4.91655e-05
5.19334e-05
5.24341e-05
5.08474e-05
4.49869e-06
1.90782e-05
3.37848e-05
4.33499e-05
4.90202e-05
5.18627e-05
5.24281e-05
5.09001e-05
4.47273e-06
1.9412e-05
3.41121e-05
4.35652e-05
4.9134e-05
5.18972e-05
5.24013e-05
5.08258e-05
4.47646e-06
1.94445e-05
3.41496e-05
4.3595e-05
4.91516e-05
5.19009e-05
5.23901e-05
5.07981e-05
4.47899e-06
1.94398e-05
3.4156e-05
4.36076e-05
4.91644e-05
5.19123e-05
5.24012e-05
5.08121e-05
4.48868e-06
1.95563e-05
3.4294e-05
4.37174e-05
4.92335e-05
5.19368e-05
5.23784e-05
5.07394e-05
4.48829e-06
1.94232e-05
3.41494e-05
4.36135e-05
4.91777e-05
5.19281e-05
5.24183e-05
5.08275e-05
4.49243e-06
1.93479e-05
3.4064e-05
4.35488e-05
4.91395e-05
5.19132e-05
5.24183e-05
5.08353e-05
4.49733e-06
1.91073e-05
3.3814e-05
4.33666e-05
4.90251e-05
5.18579e-05
5.2415e-05
5.08794e-05
4.47199e-06
1.94135e-05
3.41088e-05
4.35594e-05
4.91286e-05
5.1893e-05
5.23978e-05
5.08216e-05
4.4759e-06
1.94278e-05
3.41295e-05
4.35779e-05
4.91399e-05
5.1895e-05
5.23893e-05
5.08015e-05
4.47864e-06
1.94182e-05
3.41278e-05
4.35826e-05
4.91464e-05
5.19015e-05
5.23965e-05
5.08113e-05
4.48667e-06
1.94868e-05
3.42136e-05
4.36527e-05
4.91905e-05
5.19153e-05
5.23768e-05
5.0756e-05
4.48739e-06
1.93885e-05
3.41077e-05
4.35767e-05
4.91509e-05
5.1912e-05
5.24095e-05
5.08241e-05
4.49178e-06
1.9325e-05
3.40384e-05
4.35267e-05
4.9122e-05
5.19004e-05
5.24098e-05
5.08304e-05
4.49629e-06
1.91329e-05
3.38405e-05
4.33838e-05
4.9033e-05
5.18577e-05
5.24078e-05
5.08658e-05
4.47127e-06
1.94063e-05
3.40975e-05
4.35482e-05
4.91199e-05
5.18876e-05
5.23955e-05
5.08209e-05
4.47504e-06
1.94103e-05
3.41079e-05
4.35598e-05
4.91281e-05
5.18898e-05
5.23901e-05
5.08072e-05
4.47804e-06
1.93987e-05
3.4103e-05
4.35613e-05
4.9132e-05
5.18943e-05
5.23953e-05
5.08143e-05
4.4849e-06
1.94377e-05
3.41557e-05
4.36063e-05
4.91611e-05
5.19032e-05
5.2381e-05
5.07749e-05
4.48665e-06
1.93624e-05
3.40761e-05
4.35502e-05
4.91321e-05
5.19008e-05
5.24047e-05
5.08241e-05
4.49117e-06
1.93073e-05
3.40193e-05
4.35111e-05
4.91105e-05
5.18927e-05
5.24056e-05
5.08294e-05
4.49552e-06
1.91557e-05
3.38645e-05
4.34004e-05
4.90418e-05
5.18597e-05
5.24036e-05
5.0856e-05
4.47042e-06
1.9394e-05
3.40804e-05
4.35327e-05
4.91088e-05
5.18814e-05
5.23935e-05
5.08223e-05
4.47403e-06
1.93922e-05
3.40851e-05
4.35405e-05
4.91156e-05
5.18844e-05
5.2391e-05
5.08135e-05
4.47729e-06
1.93806e-05
3.408e-05
4.35415e-05
4.91189e-05
5.18882e-05
5.23952e-05
5.08187e-05
4.48335e-06
1.94016e-05
3.41124e-05
4.35717e-05
4.91396e-05
5.18953e-05
5.23859e-05
5.07913e-05
4.48603e-06
1.93409e-05
3.40513e-05
4.35303e-05
4.91186e-05
5.18935e-05
5.24024e-05
5.08258e-05
4.49067e-06
1.92942e-05
3.40054e-05
4.35002e-05
4.91026e-05
5.18876e-05
5.24029e-05
5.08291e-05
4.49501e-06
1.91764e-05
3.38867e-05
4.34164e-05
4.9051e-05
5.18626e-05
5.24008e-05
5.0848e-05
4.46942e-06
1.93778e-05
3.40588e-05
4.35137e-05
4.90957e-05
5.18744e-05
5.23916e-05
5.08244e-05
4.47293e-06
1.93734e-05
3.40609e-05
4.35201e-05
4.91021e-05
5.18782e-05
5.23914e-05
5.08193e-05
4.47647e-06
1.93627e-05
3.40569e-05
4.35221e-05
4.91061e-05
5.18821e-05
5.23948e-05
5.08227e-05
4.48199e-06
1.93739e-05
3.40787e-05
4.35447e-05
4.91229e-05
5.18893e-05
5.23898e-05
5.08042e-05
4.48551e-06
1.93237e-05
3.40316e-05
4.35147e-05
4.91083e-05
5.18879e-05
5.24007e-05
5.0827e-05
4.49033e-06
1.92854e-05
3.39963e-05
4.34933e-05
4.90977e-05
5.18842e-05
5.24008e-05
5.08282e-05
4.49477e-06
1.91956e-05
3.39077e-05
4.34322e-05
4.90605e-05
5.18659e-05
5.23984e-05
5.08404e-05
4.46828e-06
1.93586e-05
3.40337e-05
4.34922e-05
4.90809e-05
5.18664e-05
5.23892e-05
5.08265e-05
4.47177e-06
1.93535e-05
3.40355e-05
4.34988e-05
4.90878e-05
5.1871e-05
5.23904e-05
5.08235e-05
4.47566e-06
1.93434e-05
3.40333e-05
4.35028e-05
4.90933e-05
5.18756e-05
5.23934e-05
5.08253e-05
4.48087e-06
1.93512e-05
3.40512e-05
4.35228e-05
4.91093e-05
5.18839e-05
5.2392e-05
5.08129e-05
4.48516e-06
1.93097e-05
3.40161e-05
4.3503e-05
4.91006e-05
5.18834e-05
5.23985e-05
5.08265e-05
4.49018e-06
1.92803e-05
3.39917e-05
4.34904e-05
4.90955e-05
5.18819e-05
5.2398e-05
5.08253e-05
4.49483e-06
1.92138e-05
3.39286e-05
4.34485e-05
4.90706e-05
5.18693e-05
5.23953e-05
5.08315e-05
4.4671e-06
1.93369e-05
3.40062e-05
4.34692e-05
4.90652e-05
5.18573e-05
5.23853e-05
5.08267e-05
4.47072e-06
1.93319e-05
3.40087e-05
4.34766e-05
4.90727e-05
5.18625e-05
5.23872e-05
5.08248e-05
4.47494e-06
1.93232e-05
3.40098e-05
4.34841e-05
4.90809e-05
5.18685e-05
5.23902e-05
5.08251e-05
4.48012e-06
1.93304e-05
3.40273e-05
4.35045e-05
4.90977e-05
5.18782e-05
5.2391e-05
5.08162e-05
4.48502e-06
1.92989e-05
3.4005e-05
4.34953e-05
4.90955e-05
5.18794e-05
5.23946e-05
5.08224e-05
4.49033e-06
1.92789e-05
3.3992e-05
4.34919e-05
4.90962e-05
5.18803e-05
5.23935e-05
5.08182e-05
4.49531e-06
1.92321e-05
3.39508e-05
4.34668e-05
4.9082e-05
5.18725e-05
5.23901e-05
5.08187e-05
4.46606e-06
1.93129e-05
3.39775e-05
4.3446e-05
4.90489e-05
5.18465e-05
5.23784e-05
5.08226e-05
4.46989e-06
1.93076e-05
3.39815e-05
4.34554e-05
4.90582e-05
5.18528e-05
5.23807e-05
5.08208e-05
4.47442e-06
1.93032e-05
3.39881e-05
4.34679e-05
4.90698e-05
5.18605e-05
5.23835e-05
5.08192e-05
4.47977e-06
1.93116e-05
3.40083e-05
4.34911e-05
4.90887e-05
5.18715e-05
5.23853e-05
5.08112e-05
4.48521e-06
1.9292e-05
3.4e-05
4.34931e-05
4.90936e-05
5.18753e-05
5.23869e-05
5.08112e-05
4.49091e-06
1.92817e-05
3.39988e-05
4.34992e-05
4.91001e-05
5.18782e-05
5.23845e-05
5.08031e-05
4.49632e-06
1.9252e-05
3.3977e-05
4.34891e-05
4.90952e-05
5.18742e-05
5.23797e-05
5.07975e-05
4.46534e-06
1.92872e-05
3.39505e-05
4.34259e-05
4.90343e-05
5.18342e-05
5.2366e-05
5.08095e-05
4.46935e-06
1.92849e-05
3.39584e-05
4.34387e-05
4.90459e-05
5.18416e-05
5.23682e-05
5.08067e-05
4.47421e-06
1.92861e-05
3.3972e-05
4.34571e-05
4.90614e-05
5.18508e-05
5.23703e-05
5.08024e-05
4.47988e-06
1.92979e-05
3.39975e-05
4.34851e-05
4.90833e-05
5.18629e-05
5.23714e-05
5.07925e-05
4.48588e-06
1.92911e-05
3.40038e-05
4.34986e-05
4.90952e-05
5.18688e-05
5.23705e-05
5.07858e-05
4.49209e-06
1.92907e-05
3.40149e-05
4.35144e-05
4.91073e-05
5.18731e-05
5.23656e-05
5.07719e-05
4.49808e-06
1.92765e-05
3.40109e-05
4.3518e-05
4.91105e-05
5.18715e-05
5.23579e-05
5.07585e-05
4.46502e-06
1.92672e-05
3.39331e-05
4.34145e-05
4.90236e-05
5.18187e-05
5.23425e-05
5.07783e-05
4.46925e-06
1.9269e-05
3.3946e-05
4.34314e-05
4.90376e-05
5.18267e-05
5.23436e-05
5.07729e-05
4.4745e-06
1.92767e-05
3.39677e-05
4.34563e-05
4.90569e-05
5.18366e-05
5.23435e-05
5.07636e-05
4.48064e-06
1.92938e-05
3.40005e-05
4.34902e-05
4.9082e-05
5.18486e-05
5.23415e-05
5.07485e-05
4.48727e-06
1.93e-05
3.40218e-05
4.35152e-05
4.91e-05
5.18552e-05
5.2336e-05
5.07324e-05
4.49415e-06
1.93099e-05
3.40456e-05
4.35406e-05
4.91169e-05
5.18589e-05
5.23254e-05
5.07087e-05
4.50086e-06
1.93105e-05
3.40585e-05
4.35567e-05
4.91266e-05
5.18573e-05
5.23116e-05
5.06838e-05
4.46535e-06
1.92608e-05
3.39352e-05
4.34185e-05
4.90181e-05
5.17947e-05
5.22957e-05
5.07105e-05
4.46986e-06
1.92673e-05
3.39537e-05
4.34396e-05
4.90339e-05
5.18019e-05
5.22937e-05
5.06999e-05
4.4756e-06
1.92823e-05
3.39841e-05
4.3471e-05
4.9056e-05
5.18104e-05
5.2288e-05
5.06815e-05
4.48236e-06
1.93066e-05
3.40259e-05
4.35114e-05
4.90832e-05
5.18196e-05
5.22785e-05
5.06551e-05
4.48976e-06
1.93253e-05
3.40619e-05
4.35468e-05
4.91052e-05
5.18232e-05
5.22634e-05
5.06237e-05
4.49749e-06
1.93467e-05
3.40991e-05
4.35815e-05
4.91247e-05
5.18222e-05
5.22412e-05
5.05827e-05
4.50511e-06
1.93616e-05
3.41283e-05
4.36086e-05
4.9138e-05
5.1816e-05
5.22149e-05
5.05387e-05
4.46678e-06
1.92789e-05
3.39694e-05
4.34448e-05
4.90151e-05
5.17482e-05
5.22003e-05
5.0571e-05
4.47165e-06
1.92905e-05
3.39935e-05
4.34694e-05
4.90312e-05
5.17521e-05
5.21913e-05
5.05503e-05
4.47799e-06
1.93132e-05
3.40328e-05
4.35064e-05
4.90535e-05
5.17548e-05
5.21739e-05
5.05152e-05
4.48555e-06
1.93464e-05
3.40849e-05
4.35527e-05
4.90798e-05
5.17555e-05
5.21487e-05
5.04673e-05
4.49392e-06
1.9378e-05
3.41351e-05
4.35964e-05
4.91014e-05
5.17491e-05
5.21143e-05
5.04089e-05
4.50274e-06
1.94122e-05
3.41861e-05
4.36385e-05
4.91185e-05
5.17351e-05
5.20692e-05
5.03369e-05
4.51153e-06
1.94418e-05
3.42314e-05
4.3674e-05
4.91301e-05
5.17156e-05
5.20184e-05
5.02594e-05
4.46999e-06
1.93368e-05
3.40509e-05
4.34979e-05
4.90034e-05
5.16498e-05
5.20081e-05
5.02956e-05
4.47532e-06
1.93534e-05
3.40803e-05
4.35246e-05
4.90168e-05
5.16455e-05
5.19856e-05
5.02569e-05
4.48241e-06
1.93847e-05
3.41283e-05
4.35649e-05
4.90343e-05
5.16343e-05
5.19455e-05
5.01917e-05
4.49099e-06
1.94283e-05
3.41911e-05
4.36145e-05
4.90533e-05
5.16161e-05
5.18902e-05
5.01049e-05
4.50059e-06
1.94736e-05
3.42546e-05
4.36622e-05
4.90661e-05
5.15865e-05
5.18192e-05
4.99993e-05
4.51082e-06
1.95219e-05
3.43186e-05
4.37076e-05
4.90712e-05
5.15448e-05
5.17315e-05
4.98729e-05
4.52116e-06
1.95669e-05
3.43792e-05
4.37455e-05
4.90703e-05
5.14969e-05
5.16368e-05
4.97382e-05
4.51217e-06
1.91803e-05
3.39267e-05
4.34663e-05
4.90974e-05
5.19017e-05
5.24324e-05
5.08726e-05
4.51874e-06
1.95824e-05
3.43774e-05
4.38041e-05
4.92982e-05
5.19711e-05
5.23823e-05
5.07201e-05
4.51931e-06
1.9738e-05
3.45813e-05
4.39831e-05
4.94366e-05
5.20731e-05
5.24576e-05
5.07784e-05
4.53689e-06
2.02722e-05
3.52193e-05
4.45067e-05
4.97895e-05
5.22319e-05
5.24038e-05
5.0504e-05
4.50574e-06
1.96878e-05
3.45153e-05
4.39275e-05
4.93979e-05
5.2051e-05
5.24498e-05
5.0783e-05
4.50244e-06
1.96971e-05
3.44783e-05
4.38589e-05
4.93108e-05
5.19516e-05
5.23414e-05
5.06679e-05
4.48862e-06
1.94579e-05
3.42014e-05
4.36512e-05
4.91977e-05
5.1935e-05
5.24165e-05
5.08239e-05
4.5064e-06
1.91691e-05
3.38983e-05
4.34353e-05
4.9071e-05
5.18812e-05
5.24173e-05
5.08621e-05
4.50968e-06
1.94936e-05
3.42569e-05
4.37013e-05
4.92276e-05
5.19346e-05
5.23779e-05
5.07434e-05
4.50794e-06
1.95953e-05
3.43857e-05
4.38089e-05
4.93047e-05
5.19858e-05
5.24117e-05
5.07685e-05
4.51872e-06
1.99704e-05
3.4825e-05
4.41582e-05
4.95255e-05
5.20636e-05
5.23363e-05
5.05389e-05
4.49643e-06
1.95795e-05
3.43559e-05
4.3778e-05
4.92785e-05
5.19666e-05
5.24005e-05
5.07656e-05
4.49391e-06
1.96119e-05
3.43637e-05
4.37627e-05
4.92478e-05
5.19235e-05
5.23454e-05
5.06988e-05
4.48272e-06
1.94404e-05
3.41634e-05
4.36117e-05
4.91656e-05
5.19128e-05
5.24036e-05
5.08181e-05
4.50269e-06
1.91735e-05
3.38937e-05
4.34264e-05
4.90609e-05
5.18711e-05
5.24078e-05
5.08533e-05
4.50372e-06
1.94326e-05
3.41761e-05
4.36341e-05
4.91832e-05
5.19141e-05
5.23796e-05
5.0764e-05
4.50072e-06
1.95025e-05
3.42611e-05
4.37018e-05
4.92285e-05
5.19416e-05
5.23965e-05
5.07773e-05
4.50696e-06
1.97677e-05
3.45663e-05
4.39384e-05
4.93709e-05
5.1981e-05
5.23276e-05
5.06019e-05
4.4905e-06
1.95085e-05
3.42547e-05
4.36878e-05
4.92126e-05
5.19272e-05
5.2386e-05
5.07724e-05
4.48819e-06
1.95475e-05
3.42799e-05
4.36949e-05
4.9206e-05
5.19088e-05
5.23553e-05
5.07286e-05
4.47901e-06
1.94271e-05