/*--------------------------------*- C++ -*----------------------------------*\
| =========                 |                                                 |
| \\      /  F ield         | OpenFOAM: The Open Source CFD Toolbox           |
|  \\    /   O peration     | Version:  plus.master                           |
|   \\  /    A nd           | Web:      www.OpenFOAM.com                      |
|    \\/     M anipulation  |                                                 |
\*---------------------------------------------------------------------------*/
FoamFile
{
    version     2.0;
    format      ascii;
    class       scalarField;
    location    "2.6/lagrangian/kinematicCloud";
    object      age;
}
// * * * * * * * * * * * * * * * * * * * * * * * * * * * * * * * * * * * * * //


96597
(
2.60119
2.60117
2.60115
2.60113
2.60111
2.60109
2.60107
2.60106
2.60104
2.60102
2.601
2.60098
2.60096
2.60095
2.60093
2.60091
2.60088
2.60086
2.60084
2.60083
2.60081
2.60079
2.60078
2.60076
2.60075
2.60073
2.60072
2.6007
2.60068
2.60067
2.60065
2.60064
2.60063
2.60061
2.6006
2.60058
2.60057
2.60056
2.60054
2.60053
2.60052
2.6005
2.60049
2.60048
2.60047
2.60045
2.60044
2.60043
2.60042
2.60041
2.60039
2.60038
2.60037
2.60036
2.60035
2.60034
2.60033
2.60032
2.60031
2.6003
2.60029
2.60028
2.60027
2.60026
2.60025
2.60024
2.60023
2.60022
2.60022
2.6002
2.60018
2.60017
2.60017
2.60016
2.60015
2.60015
2.60014
2.60013
2.60013
2.60012
2.60011
2.60011
2.6001
2.6001
2.60009
2.60008
2.60008
2.60007
2.60007
2.60006
2.60006
2.60006
2.60005
2.60005
2.60004
2.60004
2.60004
2.60003
2.60003
2.60003
2.60002
2.60002
2.60002
2.60002
2.60001
2.60001
2.60001
2.60001
2.60001
2.60001
2.6
2.6
2.6
2.6
2.6
2.60023
2.60021
2.60019
2.60015
2.60011
2.60009
2.60008
2.60006
2.60004
2.60002
2.6
2.59998
2.59997
2.59995
2.59993
2.59991
2.59989
2.59988
2.59986
2.59984
2.59983
2.59981
2.59979
2.59978
2.59976
2.59974
2.59973
2.59971
2.5997
2.59968
2.59967
2.59965
2.59963
2.5996
2.59959
2.59958
2.59956
2.59955
2.59953
2.59952
2.5995
2.59949
2.59948
2.59946
2.59945
2.59944
2.59942
2.59941
2.5994
2.59938
2.59936
2.59935
2.59934
2.59932
2.59931
2.5993
2.59929
2.59928
2.59927
2.59925
2.59924
2.59923
2.59922
2.59921
2.5992
2.59919
2.59918
2.59917
2.59916
2.59915
2.59914
2.59913
2.59912
2.59911
2.5991
2.59909
2.59909
2.59908
2.59907
2.59906
2.59905
2.59904
2.59904
2.59902
2.59901
2.599
2.599
2.59899
2.59898
2.59898
2.59897
2.59896
2.59896
2.59895
2.59894
2.59894
2.59893
2.59892
2.59892
2.59891
2.5989
2.5989
2.59889
2.59889
2.59889
2.59888
2.59887
2.59887
2.59886
2.59886
2.59886
2.59885
2.59885
2.59884
2.59884
2.59884
2.59883
2.59883
2.59883
2.59883
2.59883
2.59882
2.59882
2.59882
2.59882
2.59882
2.59882
2.59881
2.59881
2.59881
2.59881
2.59881
2.59881
2.59881
2.59881
2.59909
2.59907
2.59905
2.59903
2.59901
2.59899
2.59897
2.59895
2.59894
2.59892
2.5989
2.59888
2.59886
2.59884
2.59882
2.59881
2.59879
2.59877
2.59875
2.59873
2.59872
2.5987
2.59868
2.59866
2.59865
2.59863
2.59861
2.5986
2.59858
2.59856
2.59855
2.59853
2.5985
2.59848
2.59845
2.59843
2.59842
2.5984
2.59839
2.59837
2.59836
2.59834
2.59831
2.5983
2.59828
2.59827
2.59826
2.59824
2.59823
2.59821
2.59819
2.59817
2.59816
2.59815
2.59813
2.59812
2.59811
2.59809
2.59807
2.59806
2.59804
2.59803
2.59802
2.59801
2.59799
2.59798
2.59797
2.59796
2.59795
2.59794
2.59793
2.59791
2.5979
2.59789
2.59788
2.59787
2.59786
2.59785
2.59784
2.59783
2.59782
2.59781
2.5978
2.59779
2.59778
2.59777
2.59776
2.59775
2.59774
2.59773
2.59772
2.59771
2.5977
2.59769
2.59768
2.59767
2.59767
2.59766
2.59765
2.59764
2.59764
2.59763
2.59762
2.59761
2.59761
2.5976
2.59759
2.59759
2.59758
2.59757
2.59757
2.59756
2.59755
2.59755
2.59754
2.59753
2.59753
2.59752
2.59752
2.59751
2.59751
2.5975
2.5975
2.59749
2.59749
2.59748
2.59748
2.59747
2.59747
2.59746
2.59746
2.59746
2.59745
2.59745
2.59745
2.59744
2.59744
2.59744
2.59743
2.59743
2.59743
2.59742
2.59742
2.59742
2.59742
2.59741
2.59741
2.59741
2.59741
2.5974
2.5974
2.5974
2.5974
2.5974
2.5974
2.5974
2.59739
2.59739
2.59739
2.59739
2.59739
2.59739
2.59739
2.59739
2.59739
2.59773
2.59771
2.59769
2.59767
2.59765
2.59763
2.59761
2.59759
2.59757
2.59755
2.59753
2.59751
2.59749
2.59747
2.59746
2.59744
2.59742
2.5974
2.59738
2.59736
2.59735
2.59733
2.59731
2.59729
2.59727
2.59726
2.59724
2.59722
2.59721
2.59719
2.59717
2.59715
2.59714
2.59712
2.5971
2.59709
2.59707
2.59705
2.59704
2.59702
2.59701
2.59699
2.59697
2.59696
2.59694
2.59693
2.59691
2.5969
2.59688
2.59686
2.59685
2.59683
2.59682
2.5968
2.59679
2.59678
2.59676
2.59675
2.59673
2.59672
2.5967
2.59669
2.59668
2.59666
2.59665
2.59663
2.59662
2.59661
2.59659
2.59658
2.59657
2.59655
2.59654
2.59653
2.59652
2.5965
2.59649
2.59648
2.59647
2.59645
2.59644
2.59643
2.59642
2.5964
2.59639
2.59638
2.59637
2.59636
2.59635
2.59634
2.59632
2.59631
2.5963
2.59629
2.59628
2.59627
2.59626
2.59625
2.59624
2.59623
2.59622
2.59621
2.59619
2.59618
2.59617
2.59615
2.59614
2.59613
2.59612
2.59611
2.5961
2.59609
2.59608
2.59608
2.59607
2.59606
2.59605
2.59604
2.59603
2.59603
2.59602
2.59601
2.596
2.59599
2.59599
2.59598
2.59597
2.59596
2.59596
2.59595
2.59594
2.59593
2.59593
2.59592
2.59591
2.59591
2.5959
2.59589
2.59589
2.59588
2.59588
2.59587
2.59586
2.59586
2.59585
2.59585
2.59584
2.59584
2.59583
2.59582
2.59582
2.59581
2.59581
2.5958
2.5958
2.59579
2.59579
2.59578
2.59578
2.59577
2.59577
2.59577
2.59576
2.59576
2.59575
2.59575
2.59575
2.59574
2.59574
2.59574
2.59573
2.59573
2.59573
2.59573
2.59572
2.59572
2.59572
2.59572
2.59571
2.59571
2.59571
2.59571
2.5957
2.5957
2.5957
2.5957
2.5957
2.59569
2.59569
2.59569
2.59569
2.59569
2.59569
2.59569
2.59569
2.59569
2.59569
2.59569
2.59569
2.59607
2.59605
2.59603
2.59601
2.59599
2.59597
2.59595
2.59593
2.59591
2.59589
2.59587
2.59586
2.59584
2.59582
2.5958
2.59578
2.59576
2.59574
2.59572
2.59571
2.59569
2.59567
2.59565
2.59563
2.59562
2.5956
2.59558
2.59556
2.59554
2.59553
2.59551
2.59549
2.59547
2.59544
2.59542
2.59541
2.59539
2.59537
2.59536
2.59534
2.59532
2.59531
2.59529
2.59527
2.59526
2.59524
2.59522
2.59521
2.59519
2.59518
2.59516
2.59514
2.59513
2.59511
2.5951
2.59508
2.59507
2.59505
2.59504
2.59502
2.59501
2.59499
2.59498
2.59496
2.59495
2.59493
2.59492
2.5949
2.59489
2.59488
2.59486
2.59485
2.59483
2.59482
2.59481
2.59479
2.59478
2.59477
2.59475
2.59474
2.59473
2.59471
2.5947
2.59469
2.59467
2.59466
2.59465
2.59463
2.59462
2.59461
2.5946
2.59458
2.59457
2.59455
2.59454
2.59452
2.59451
2.5945
2.59449
2.59448
2.59446
2.59445
2.59444
2.59443
2.59442
2.59441
2.5944
2.59439
2.59437
2.59436
2.59435
2.59434
2.59433
2.59432
2.59431
2.5943
2.59429
2.59428
2.59427
2.59426
2.59425
2.59424
2.59422
2.59421
2.5942
2.59419
2.59418
2.59417
2.59416
2.59415
2.59414
2.59413
2.59412
2.59411
2.5941
2.59409
2.59408
2.59408
2.59407
2.59406
2.59405
2.59404
2.59404
2.59403
2.59402
2.59401
2.594
2.594
2.59399
2.59398
2.59397
2.59397
2.59396
2.59395
2.59395
2.59393
2.59393
2.59392
2.59391
2.59391
2.5939
2.59389
2.59389
2.59388
2.59387
2.59387
2.59386
2.59386
2.59385
2.59384
2.59384
2.59383
2.59383
2.59382
2.59382
2.59381
2.59381
2.5938
2.5938
2.59379
2.59379
2.59378
2.59378
2.59377
2.59377
2.59376
2.59376
2.59376
2.59375
2.59375
2.59374
2.59374
2.59373
2.59373
2.59373
2.59372
2.59372
2.59371
2.59371
2.59371
2.59371
2.5937
2.5937
2.5937
2.59369
2.59369
2.59369
2.59369
2.59368
2.59368
2.59368
2.59368
2.59368
2.59367
2.59367
2.59367
2.59367
2.59366
2.59366
2.59366
2.59366
2.59366
2.59366
2.59366
2.59366
2.59365
2.59365
2.59365
2.59365
2.59365
2.59365
2.59365
2.59365
2.59365
2.59365
2.59365
2.59413
2.59411
2.59409
2.59407
2.59405
2.59403
2.59401
2.59399
2.59397
2.59395
2.59393
2.59391
2.59389
2.59387
2.59385
2.59383
2.59382
2.5938
2.59378
2.59376
2.59374
2.59372
2.59368
2.59367
2.59365
2.59363
2.59361
2.59359
2.59358
2.59356
2.59354
2.59352
2.5935
2.59349
2.59347
2.59345
2.59343
2.59342
2.5934
2.59338
2.59336
2.59335
2.59333
2.59331
2.5933
2.59328
2.59326
2.59325
2.59323
2.59321
2.5932
2.59318
2.59316
2.59315
2.59313
2.59312
2.5931
2.59308
2.59307
2.59305
2.59304
2.59302
2.593
2.59299
2.59297
2.59296
2.59294
2.59293
2.59291
2.5929
2.59288
2.59287
2.59285
2.59284
2.59282
2.59281
2.59279
2.59278
2.59276
2.59275
2.59273
2.59272
2.59271
2.59269
2.59268
2.59266
2.59265
2.59263
2.59262
2.59261
2.59259
2.59258
2.59257
2.59255
2.59254
2.59253
2.59251
2.5925
2.59249
2.59247
2.59246
2.59245
2.59243
2.59242
2.59241
2.5924
2.59238
2.59237
2.59236
2.59235
2.59233
2.59232
2.59231
2.5923
2.59228
2.59227
2.59226
2.59225
2.59224
2.59222
2.59221
2.5922
2.59219
2.59218
2.59217
2.59216
2.59214
2.59213
2.59212
2.59211
2.5921
2.59209
2.59208
2.59207
2.59206
2.59205
2.59204
2.59202
2.59201
2.592
2.59199
2.59198
2.59196
2.59194
2.59193
2.59192
2.59191
2.5919
2.59189
2.59188
2.59188
2.59187
2.59186
2.59185
2.59184
2.59183
2.59182
2.59181
2.5918
2.59179
2.59178
2.59177
2.59176
2.59175
2.59174
2.59173
2.59172
2.59172
2.59171
2.59169
2.59168
2.59168
2.59167
2.59165
2.59165
2.59164
2.59163
2.59162
2.59162
2.59161
2.59159
2.59159
2.59158
2.59157
2.59157
2.59156
2.59155
2.59155
2.59154
2.59153
2.59153
2.59152
2.59151
2.59151
2.5915
2.5915
2.59149
2.59148
2.59148
2.59147
2.59147
2.59146
2.59145
2.59145
2.59144
2.59144
2.59143
2.59143
2.59142
2.59142
2.59141
2.59141
2.5914
2.5914
2.59139
2.59139
2.59138
2.59138
2.59137
2.59137
2.59136
2.59136
2.59135
2.59135
2.59134
2.59134
2.59134
2.59133
2.59133
2.59133
2.59132
2.59132
2.59131
2.59131
2.59131
2.5913
2.5913
2.5913
2.5913
2.59129
2.59129
2.59129
2.59128
2.59128
2.59128
2.59128
2.59127
2.59127
2.59127
2.59126
2.59126
2.59126
2.59126
2.59126
2.59125
2.59125
2.59125
2.59125
2.59124
2.59124
2.59124
2.59124
2.59124
2.59124
2.59124
2.59124
2.59123
2.59123
2.59123
2.59123
2.59123
2.59123
2.59123
2.59123
2.59123
2.59123
2.59123
2.59123
2.59123
2.59176
2.59174
2.59172
2.5917
2.59168
2.59166
2.59164
2.59162
2.5916
2.59158
2.59156
2.59154
2.59152
2.5915
2.59148
2.59146
2.59144
2.59142
2.5914
2.59139
2.59137
2.59135
2.59133
2.59131
2.59129
2.59127
2.59125
2.59122
2.5912
2.59118
2.59116
2.59114
2.59113
2.59111
2.59109
2.59107
2.59105
2.59104
2.591
2.59098
2.59097
2.59095
2.59093
2.59091
2.5909
2.59088
2.59086
2.59084
2.59083
2.59081
2.59079
2.59078
2.59076
2.59074
2.59073
2.59071
2.59069
2.59068
2.59066
2.59064
2.59061
2.59059
2.59056
2.59055
2.59053
2.5905
2.59048
2.59047
2.59045
2.59043
2.59042
2.5904
2.59039
2.59037
2.59036
2.59034
2.59033
2.59031
2.59028
2.59027
2.59025
2.59024
2.59022
2.59021
2.59019
2.59018
2.59016
2.59015
2.59012
2.5901
2.59009
2.59007
2.59006
2.59005
2.59003
2.59002
2.59
2.58999
2.58998
2.58996
2.58995
2.58993
2.58992
2.58991
2.58989
2.58988
2.58987
2.58985
2.58984
2.58983
2.58981
2.5898
2.58979
2.58977
2.58976
2.58974
2.58972
2.58971
2.5897
2.58968
2.58967
2.58966
2.58965
2.58963
2.58962
2.58961
2.5896
2.58957
2.58956
2.58955
2.58954
2.58953
2.58951
2.5895
2.58949
2.58948
2.58947
2.58946
2.58944
2.58943
2.58942
2.58941
2.5894
2.58939
2.58938
2.58937
2.58936
2.58934
2.58933
2.58932
2.58931
2.5893
2.58929
2.58928
2.58927
2.58926
2.58925
2.58924
2.58923
2.58922
2.58921
2.5892
2.58919
2.58918
2.58917
2.58916
2.58915
2.58914
2.58913
2.58912
2.58911
2.5891
2.58909
2.58908
2.58907
2.58906
2.58905
2.58904
2.58903
2.58903
2.58902
2.58901
2.589
2.58899
2.58898
2.58897
2.58896
2.58896
2.58895
2.58894
2.58893
2.58892
2.58891
2.58891
2.5889
2.58889
2.58887
2.58886
2.58886
2.58885
2.58884
2.58883
2.58883
2.58882
2.58881
2.5888
2.5888
2.58879
2.58877
2.58877
2.58876
2.58875
2.58875
2.58874
2.58873
2.58873
2.58872
2.58871
2.58871
2.5887
2.58869
2.58869
2.58868
2.58867
2.58867
2.58866
2.58865
2.58865
2.58864
2.58864
2.58863
2.58862
2.58862
2.58861
2.58861
2.5886
2.5886
2.58859
2.58858
2.58858
2.58857
2.58857
2.58856
2.58855
2.58855
2.58854
2.58854
2.58853
2.58853
2.58852
2.58852
2.58851
2.58851
2.5885
2.5885
2.5885
2.58849
2.58849
2.58848
2.58848
2.58847
2.58847
2.58847
2.58846
2.58846
2.58846
2.58845
2.58845
2.58844
2.58844
2.58844
2.58843
2.58843
2.58843
2.58842
2.58842
2.58842
2.58841
2.58841
2.58841
2.5884
2.5884
2.5884
2.5884
2.58839
2.58839
2.58839
2.58839
2.58838
2.58838
2.58838
2.58838
2.58837
2.58837
2.58837
2.58837
2.58837
2.58836
2.58836
2.58836
2.58836
2.58836
2.58835
2.58835
2.58835
2.58835
2.58835
2.58835
2.58835
2.58834
2.58834
2.58834
2.58834
2.58834
2.58834
2.58834
2.58834
2.58834
2.58834
2.58833
2.58833
2.58833
2.58833
2.58833
2.58833
2.58833
2.58833
2.58833
2.58833
2.58833
2.58891
2.58889
2.58887
2.58885
2.58883
2.58881
2.58879
2.58877
2.58875
2.58873
2.58871
2.58869
2.58867
2.58865
2.58863
2.58861
2.58859
2.58857
2.58856
2.58854
2.58852
2.5885
2.58848
2.58846
2.58844
2.58842
2.58841
2.58839
2.58837
2.58835
2.58833
2.58831
2.58829
2.58828
2.58826
2.58824
2.58822
2.5882
2.58818
2.58813
2.58811
2.5881
2.58808
2.58806
2.58804
2.58802
2.58801
2.58799
2.58797
2.58795
2.58794
2.58792
2.5879
2.58788
2.58787
2.58785
2.58783
2.58782
2.5878
2.58778
2.58777
2.58775
2.58773
2.5877
2.58768
2.58767
2.58765
2.58763
2.58762
2.5876
2.58758
2.58757
2.58755
2.58753
2.58752
2.5875
2.58749
2.58747
2.58745
2.58744
2.58742
2.58741
2.58739
2.58738
2.58736
2.58734
2.58733
2.58731
2.5873
2.58728
2.58727
2.58725
2.58724
2.58722
2.58721
2.58719
2.58718
2.58716
2.58715
2.58713
2.58712
2.5871
2.58709
2.58707
2.58706
2.58704
2.58703
2.58701
2.587
2.58698
2.58697
2.58696
2.58694
2.58693
2.58691
2.5869
2.58689
2.58687
2.58686
2.58684
2.58683
2.58682
2.5868
2.58679
2.58677
2.58676
2.58675
2.58673
2.58672
2.58671
2.58667
2.58665
2.58664
2.58663
2.58661
2.5866
2.58659
2.58658
2.58656
2.58655
2.58654
2.58652
2.58651
2.5865
2.58649
2.58647
2.58646
2.58645
2.58644
2.58642
2.58641
2.5864
2.58639
2.58638
2.58636
2.58635
2.58634
2.58633
2.58632
2.5863
2.58629
2.58628
2.58627
2.58626
2.58625
2.58623
2.58622
2.58621
2.5862
2.58619
2.58618
2.58617
2.58616
2.58614
2.58613
2.58612
2.58611
2.5861
2.58609
2.58608
2.58606
2.58605
2.58603
2.58601
2.586
2.58599
2.58598
2.58597
2.58596
2.58595
2.58594
2.58593
2.58592
2.58591
2.5859
2.58589
2.58588
2.58587
2.58586
2.58585
2.58584
2.58583
2.58582
2.58581
2.58581
2.5858
2.58579
2.58578
2.58577
2.58576
2.58575
2.58574
2.58573
2.58572
2.58571
2.5857
2.5857
2.58569
2.58568
2.58567
2.58566
2.58565
2.58564
2.58563
2.58563
2.58562
2.58561
2.5856
2.58559
2.58558
2.58558
2.58557
2.58556
2.58555
2.58554
2.58554
2.58553
2.58551
2.5855
2.5855
2.58549
2.58548
2.58547
2.58547
2.58546
2.58545
2.58544
2.58544
2.58543
2.58542
2.58542
2.58541
2.5854
2.58539
2.58539
2.58538
2.58537
2.58537
2.58536
2.58535
2.58535
2.58534
2.58533
2.58533
2.58532
2.58531
2.58531
2.5853
2.5853
2.58529
2.58528
2.58528
2.58527
2.58527
2.58525
2.58525
2.58524
2.58524
2.58523
2.58522
2.58522
2.58521
2.58521
2.5852
2.5852
2.58519
2.58519
2.58518
2.58518
2.58517
2.58517
2.58516
2.58516
2.58515
2.58515
2.58514
2.58514
2.58513
2.58513
2.58512
2.58512
2.58511
2.58511
2.5851
2.5851
2.5851
2.58509
2.58509
2.58508
2.58508
2.58507
2.58507
2.58507
2.58506
2.58505
2.58505
2.58505
2.58504
2.58504
2.58504
2.58503
2.58503
2.58503
2.58502
2.58502
2.58502
2.58501
2.58501
2.58501
2.585
2.585
2.58499
2.58499
2.58499
2.58499
2.58498
2.58498
2.58498
2.58497
2.58497
2.58497
2.58497
2.58496
2.58496
2.58496
2.58496
2.58496
2.58495
2.58495
2.58495
2.58495
2.58495
2.58494
2.58494
2.58494
2.58494
2.58494
2.58493
2.58493
2.58493
2.58493
2.58493
2.58493
2.58493
2.58492
2.58492
2.58492
2.58492
2.58492
2.58492
2.58492
2.58492
2.58491
2.58491
2.58491
2.58491
2.58491
2.58491
2.58491
2.58491
2.58491
2.58491
2.58491
2.58491
2.58491
2.58491
2.58491
2.58491
2.58565
2.58563
2.58561
2.58557
2.58555
2.58553
2.58551
2.58547
2.58545
2.58543
2.58541
2.58539
2.58537
2.58535
2.58533
2.58531
2.58529
2.58528
2.58526
2.58524
2.58522
2.5852
2.58518
2.58516
2.58514
2.58512
2.5851
2.58509
2.58507
2.58505
2.58503
2.58501
2.58499
2.58497
2.58495
2.58494
2.58492
2.5849
2.58488
2.58486
2.58484
2.58481
2.58479
2.58477
2.58475
2.58474
2.58472
2.5847
2.58468
2.58466
2.58465
2.58463
2.58461
2.58459
2.58458
2.58456
2.58454
2.58452
2.58451
2.58449
2.58447
2.58445
2.58444
2.58442
2.5844
2.58438
2.58437
2.58435
2.58433
2.58432
2.5843
2.58428
2.58427
2.58425
2.58423
2.58422
2.5842
2.58418
2.58417
2.58415
2.58413
2.58412
2.5841
2.58408
2.58407
2.58405
2.58402
2.584
2.58399
2.58397
2.58395
2.58394
2.58392
2.58391
2.58389
2.58387
2.58386
2.58384
2.58383
2.58381
2.58379
2.58378
2.58376
2.58375
2.58373
2.58372
2.5837
2.58369
2.58367
2.58366
2.58364
2.58363
2.58361
2.5836
2.58358
2.58357
2.58355
2.58354
2.58352
2.58351
2.58349
2.58348
2.58346
2.58345
2.58343
2.58342
2.5834
2.58339
2.58337
2.58336
2.58334
2.58333
2.58332
2.5833
2.58329
2.58327
2.58326
2.58325
2.58323
2.58322
2.5832
2.58319
2.58318
2.58316
2.58315
2.58313
2.58312
2.58311
2.58309
2.58308
2.58307
2.58305
2.58304
2.58303
2.58301
2.583
2.58299
2.58297
2.58296
2.58295
2.58293
2.58292
2.58291
2.58289
2.58288
2.58287
2.58285
2.58284
2.58282
2.5828
2.58279
2.58278
2.58277
2.58275
2.58274
2.58273
2.58272
2.5827
2.58269
2.58268
2.58267
2.58265
2.58264
2.58263
2.58262
2.58261
2.58259
2.58258
2.58257
2.58256
2.58255
2.58253
2.58252
2.58251
2.5825
2.58249
2.58248
2.58246
2.58245
2.58244
2.58243
2.58242
2.58241
2.5824
2.58239
2.58237
2.58236
2.58235
2.58234
2.58233
2.58232
2.58231
2.5823
2.58229
2.58228
2.58226
2.58225
2.58224
2.58223
2.58222
2.58221
2.5822
2.58219
2.58218
2.58217
2.58216
2.58215
2.58214
2.58213
2.58212
2.58211
2.5821
2.58209
2.58208
2.58207
2.58205
2.58204
2.58203
2.58202
2.58201
2.582
2.58199
2.58198
2.58197
2.58196
2.58195
2.58194
2.58193
2.58192
2.58191
2.5819
2.58189
2.58188
2.58187
2.58186
2.58185
2.58184
2.58183
2.58182
2.58181
2.58181
2.5818
2.58179
2.58178
2.58177
2.58176
2.58175
2.58174
2.58174
2.58173
2.58172
2.58171
2.5817
2.58169
2.58169
2.58168
2.58167
2.58166
2.58165
2.58165
2.58164
2.58163
2.58162
2.58161
2.58161
2.5816
2.58159
2.58158
2.58158
2.58157
2.58156
2.58155
2.58155
2.58154
2.58153
2.58152
2.58152
2.58151
2.5815
2.58149
2.58149
2.58148
2.58147
2.58147
2.58146
2.58145
2.58145
2.58144
2.58143
2.58143
2.58142
2.58141
2.58141
2.58139
2.58139
2.58138
2.58137
2.58137
2.58136
2.58135
2.58135
2.58134
2.58134
2.58133
2.58132
2.58132
2.58131
2.58131
2.58129
2.58129
2.58128
2.58128
2.58127
2.58126
2.58126
2.58125
2.58125
2.58124
2.58124
2.58123
2.58123
2.58122
2.58122
2.58121
2.58121
2.5812
2.5812
2.58119
2.58118
2.58118
2.58118
2.58117
2.58117
2.58116
2.58116
2.58115
2.58115
2.58114
2.58114
2.58113
2.58113
2.58112
2.58112
2.58111
2.58111
2.58111
2.5811
2.5811
2.58109
2.58109
2.58109
2.58108
2.58108
2.58107
2.58107
2.58107
2.58106
2.58106
2.58105
2.58105
2.58105
2.58104
2.58104
2.58104
2.58103
2.58103
2.58103
2.58102
2.58102
2.58102
2.58101
2.58101
2.58101
2.581
2.581
2.58099
2.58099
2.58099
2.58098
2.58098
2.58098
2.58098
2.58097
2.58097
2.58097
2.58097
2.58096
2.58096
2.58096
2.58096
2.58095
2.58095
2.58095
2.58095
2.58094
2.58094
2.58094
2.58094
2.58094
2.58093
2.58093
2.58093
2.58093
2.58093
2.58092
2.58092
2.58092
2.58092
2.58092
2.58092
2.58091
2.58091
2.58091
2.58091
2.58091
2.58091
2.58091
2.58091
2.5809
2.5809
2.5809
2.5809
2.5809
2.5809
2.5809
2.5809
2.5809
2.5809
2.58089
2.58089
2.58089
2.58089
2.58089
2.58089
2.58089
2.58089
2.58089
2.58089
2.58089
2.58089
2.58089
2.58089
2.58089
2.58089
2.58089
2.58089
2.58181
2.58179
2.58177
2.58175
2.58173
2.58171
2.58167
2.58165
2.58163
2.58161
2.58159
2.58157
2.58155
2.58153
2.58151
2.58149
2.58147
2.58146
2.58144
2.58142
2.5814
2.58138
2.58136
2.58134
2.58132
2.5813
2.58128
2.58126
2.58124
2.58123
2.58121
2.58119
2.58117
2.58115
2.58113
2.58111
2.58109
2.58108
2.58106
2.58104
2.58102
2.581
2.58098
2.58096
2.58095
2.58093
2.58091
2.58089
2.58087
2.58085
2.58084
2.58082
2.5808
2.58078
2.58076
2.58075
2.58073
2.58071
2.58069
2.58067
2.58066
2.58064
2.58062
2.5806
2.58058
2.58057
2.58055
2.58053
2.58051
2.5805
2.58048
2.58046
2.58044
2.58043
2.58041
2.58039
2.58038
2.58036
2.58034
2.58032
2.58031
2.58029
2.58027
2.58026
2.58024
2.58022
2.5802
2.58019
2.58017
2.58015
2.58014
2.58012
2.5801
2.58009
2.58007
2.58005
2.58004
2.58002
2.58
2.57999
2.57997
2.57995
2.57994
2.57992
2.57991
2.57989
2.57987
2.57986
2.57984
2.57982
2.57981
2.57978
2.57976
2.57974
2.57973
2.57971
2.5797
2.57967
2.57965
2.57963
2.57962
2.5796
2.57959
2.57957
2.57956
2.57954
2.57952
2.57951
2.57949
2.57948
2.57946
2.57945
2.57943
2.57942
2.5794
2.57939
2.57937
2.57936
2.57934
2.57933
2.57931
2.5793
2.57928
2.57927
2.57925
2.57924
2.57922
2.57921
2.57919
2.57918
2.57916
2.57915
2.57914
2.57912
2.57911
2.57909
2.57908
2.57906
2.57905
2.57903
2.57902
2.57901
2.57899
2.57896
2.57895
2.57894
2.57892
2.57891
2.57889
2.57888
2.57885
2.57884
2.57882
2.57881
2.5788
2.57878
2.57877
2.57876
2.57874
2.57873
2.57871
2.5787
2.57869
2.57867
2.57866
2.57865
2.57863
2.57862
2.57861
2.5786
2.57858
2.57857
2.57854
2.57853
2.57852
2.5785
2.57849
2.57848
2.57847
2.57845
2.57844
2.57843
2.57841
2.5784
2.57839
2.57838
2.57836
2.57835
2.57834
2.57833
2.57831
2.5783
2.57829
2.57828
2.57826
2.57825
2.57824
2.57823
2.57822
2.5782
2.57819
2.57818
2.57817
2.57816
2.57814
2.57813
2.57812
2.57811
2.57808
2.57807
2.57806
2.57805
2.57804
2.57803
2.57802
2.578
2.57799
2.57798
2.57797
2.57796
2.57795
2.57794
2.57792
2.57791
2.5779
2.57789
2.57788
2.57787
2.57786
2.57785
2.57784
2.57782
2.57781
2.5778
2.57779
2.57777
2.57775
2.57774
2.57773
2.57772
2.57771
2.5777
2.57769
2.57768
2.57766
2.57765
2.57764
2.57763
2.57762
2.57761
2.5776
2.57759
2.57758
2.57757
2.57756
2.57755
2.57754
2.57753
2.57752
2.57751
2.5775
2.57749
2.57748
2.57747
2.57746
2.57745
2.57744
2.57744
2.57743
2.57742
2.57741
2.5774
2.57739
2.57738
2.57737
2.57736
2.57735
2.57734
2.57733
2.57732
2.57731
2.5773
2.5773
2.57729
2.57728
2.57727
2.57726
2.57725
2.57724
2.57723
2.57722
2.57722
2.57721
2.5772
2.57719
2.57718
2.57717
2.57716
2.57715
2.57715
2.57713
2.57712
2.57711
2.5771
2.57709
2.57708
2.57707
2.57706
2.57706
2.57705
2.57704
2.57703
2.57702
2.57702
2.57701
2.577
2.57699
2.57698
2.57698
2.57697
2.57696
2.57695
2.57695
2.57694
2.57693
2.57692
2.57692
2.57691
2.5769
2.57689
2.57689
2.57688
2.57687
2.57686
2.57686
2.57685
2.57684
2.57684
2.57683
2.57682
2.57682
2.57681
2.5768
2.57679
2.57679
2.57678
2.57677
2.57676
2.57675
2.57675
2.57674
2.57673
2.57673
2.57672
2.57671
2.57671
2.5767
2.5767
2.57669
2.57668
2.57668
2.57667
2.57666
2.57665
2.57665
2.57664
2.57663
2.57663
2.57662
2.57662
2.57661
2.57661
2.5766
2.57659
2.57659
2.57658
2.57658
2.57657
2.57657
2.57656
2.57655
2.57655
2.57654
2.57654
2.57653
2.57653
2.57652
2.57652
2.57651
2.57651
2.5765
2.5765
2.57649
2.57649
2.57648
2.57648
2.57647
2.57646
2.57646
2.57645
2.57645
2.57644
2.57644
2.57643
2.57643
2.57642
2.57642
2.57641
2.57641
2.57641
2.5764
2.5764
2.57639
2.57639
2.57638
2.57638
2.57638
2.57637
2.57637
2.57636
2.57636
2.57636
2.57635
2.57635
2.57634
2.57634
2.57634
2.57633
2.57633
2.57632
2.57632
2.57632
2.57631
2.57631
2.57631
2.5763
2.5763
2.5763
2.57629
2.57629
2.57629
2.57628
2.57628
2.57628
2.57627
2.57627
2.57627
2.57626
2.57626
2.57626
2.57625
2.57625
2.57625
2.57625
2.57624
2.57624
2.57624
2.57623
2.57623
2.57623
2.57622
2.57622
2.57622
2.57622
2.57621
2.57621
2.57621
2.57621
2.5762
2.5762
2.5762
2.5762
2.57619
2.57619
2.57619
2.57619
2.57619
2.57618
2.57618
2.57618
2.57618
2.57618
2.57617
2.57617
2.57617
2.57617
2.57617
2.57617
2.57616
2.57616
2.57616
2.57616
2.57616
2.57616
2.57616
2.57615
2.57615
2.57615
2.57615
2.57615
2.57615
2.57615
2.57615
2.57614
2.57614
2.57614
2.57614
2.57614
2.57614
2.57614
2.57614
2.57614
2.57613
2.57613
2.57613
2.57613
2.57613
2.57613
2.57613
2.57613
2.57613
2.57613
2.57613
2.57613
2.57613
2.57613
2.57613
2.57613
2.57613
2.57613
2.57613
2.57613
2.57613
2.577
2.57698
2.57696
2.57694
2.57692
2.5769
2.57688
2.57686
2.57684
2.57682
2.5768
2.57678
2.57676
2.57674
2.57672
2.5767
2.57668
2.57667
2.57663
2.57661
2.57659
2.57655
2.57653
2.57651
2.57649
2.57645
2.57643
2.57641
2.5764
2.57638
2.57636
2.57634
2.57632
2.5763
2.57628
2.57626
2.57624
2.57623
2.57621
2.57619
2.57617
2.57615
2.57613
2.57611
2.57609
2.57608
2.57606
2.57604
2.57602
2.576
2.57598
2.57596
2.57595
2.57593
2.57591
2.57589
2.57587
2.57586
2.57584
2.57582
2.5758
2.57578
2.57576
2.57575
2.57573
2.57569
2.57568
2.57566
2.57564
2.57562
2.5756
2.57559
2.57557
2.57555
2.57553
2.57552
2.5755
2.57548
2.57546
2.57545
2.57543
2.57541
2.57539
2.57538
2.57536
2.57534
2.57532
2.57531
2.57529
2.57527
2.57525
2.57524
2.57522
2.5752
2.57519
2.57517
2.57515
2.57514
2.57512
2.5751
2.57508
2.57507
2.57505
2.57503
2.57502
2.575
2.57498
2.57497
2.57495
2.57493
2.57492
2.5749
2.57488
2.57487
2.57485
2.57484
2.57482
2.5748
2.57479
2.57477
2.57475
2.57474
2.57472
2.57471
2.57469
2.57467
2.57466
2.57464
2.57463
2.57461
2.57459
2.57458
2.57455
2.57453
2.57451
2.5745
2.57448
2.57447
2.57445
2.57444
2.57442
2.5744
2.57439
2.57437
2.57436
2.57434
2.57433
2.57431
2.5743
2.57428
2.57427
2.57425
2.57424
2.57422
2.5742
2.57419
2.57417
2.57416
2.57414
2.57413
2.57411
2.57408
2.57407
2.57405
2.57404
2.57403
2.57401
2.574
2.57398
2.57397
2.57395
2.57394
2.57392
2.57391
2.57389
2.57388
2.57386
2.57385
2.57384
2.57382
2.57381
2.57379
2.57378
2.57376
2.57375
2.57374
2.57372
2.57371
2.57369
2.57368
2.57366
2.57365
2.57364
2.57362
2.57361
2.5736
2.57358
2.57357
2.57355
2.57354
2.57353
2.57351
2.5735
2.57349
2.57347
2.57346
2.57344
2.57343
2.57342
2.5734
2.57339
2.57338
2.57336
2.57335
2.57334
2.57331
2.5733
2.57328
2.57327
2.57326
2.57324
2.57323
2.57322
2.57321
2.57319
2.57318
2.57317
2.57315
2.57314
2.57312
2.5731
2.57309
2.57308
2.57306
2.57305
2.57304
2.57303
2.57301
2.573
2.57299
2.57298
2.57296
2.57295
2.57294
2.57293
2.57292
2.5729
2.57289
2.57288
2.57287
2.57285
2.57284
2.57283
2.57282
2.57279
2.57278
2.57277
2.57276
2.57275
2.57272
2.57271
2.5727
2.57269
2.57268
2.57266
2.57265
2.57264
2.57263
2.57262
2.57261
2.57259
2.57258
2.57257
2.57256
2.57255
2.57254
2.57253
2.57252
2.5725
2.57249
2.57248
2.57247
2.57246
2.57245
2.57244
2.57243
2.57242
2.5724
2.57239
2.57238
2.57237
2.57236
2.57235
2.57234
2.57233
2.57232
2.57231
2.5723
2.57229
2.57228
2.57226
2.57225
2.57224
2.57223
2.57222
2.57221
2.5722
2.57219
2.57218
2.57217
2.57216
2.57215
2.57214
2.57213
2.57212
2.57211
2.5721
2.57208
2.57207
2.57206
2.57205
2.57204
2.57203
2.57202
2.57201
2.572
2.57199
2.57198
2.57197
2.57196
2.57195
2.57194
2.57193
2.5719
2.5719
2.57189
2.57188
2.57187
2.57186
2.57185
2.57184
2.57183
2.57182
2.57181
2.5718
2.57179
2.57178
2.57178
2.57177
2.57176
2.57175
2.57174
2.57173
2.57172
2.5717
2.5717
2.57169
2.57168
2.57167
2.57166
2.57165
2.57164
2.57164
2.57163
2.57162
2.57161
2.5716
2.57159
2.57158
2.57158
2.57157
2.57156
2.57155
2.57154
2.57154
2.57153
2.57152
2.57151
2.5715
2.57149
2.57149
2.57148
2.57147
2.57146
2.57145
2.57145
2.57144
2.57143
2.57142
2.57142
2.57141
2.5714
2.57139
2.57139
2.57138
2.57137
2.57136
2.57136
2.57135
2.57134
2.57133
2.57133
2.57132
2.57131
2.5713
2.5713
2.57129
2.57128
2.57128
2.57127
2.57126
2.57125
2.57125
2.57124
2.57123
2.57123
2.57122
2.57121
2.57121
2.5712
2.57119
2.57119
2.57118
2.57117
2.57117
2.57116
2.57115
2.57115
2.57114
2.57113
2.57113
2.57112
2.57111
2.57111
2.57109
2.57109
2.57108
2.57108
2.57107
2.57106
2.57106
2.57105
2.57104
2.57104
2.57103
2.57103
2.57102
2.57101
2.57101
2.571
2.571
2.57099
2.57099
2.57098
2.57097
2.57097
2.57096
2.57096
2.57095
2.57095
2.57094
2.57094
2.57093
2.57092
2.57092
2.57091
2.5709
2.5709
2.57089
2.57089
2.57088
2.57088
2.57087
2.57087
2.57086
2.57086
2.57085
2.57085
2.57084
2.57084
2.57083
2.57083
2.57082
2.57082
2.57081
2.57081
2.5708
2.5708
2.57079
2.57079
2.57078
2.57078
2.57078
2.57077
2.57077
2.57076
2.57076
2.57075
2.57075
2.57074
2.57074
2.57073
2.57073
2.57072
2.57072
2.57072
2.57071
2.57071
2.5707
2.5707
2.5707
2.57069
2.57069
2.57068
2.57068
2.57068
2.57067
2.57067
2.57067
2.57066
2.57066
2.57065
2.57065
2.57065
2.57064
2.57064
2.57064
2.57063
2.57063
2.57063
2.57062
2.57062
2.57061
2.57061
2.57061
2.5706
2.5706
2.5706
2.5706
2.57059
2.57059
2.57059
2.57058
2.57058
2.57058
2.57058
2.57057
2.57057
2.57057
2.57056
2.57056
2.57056
2.57056
2.57055
2.57055
2.57055
2.57055
2.57054
2.57054
2.57054
2.57054
2.57053
2.57053
2.57053
2.57053
2.57052
2.57052
2.57052
2.57052
2.57052
2.57051
2.57051
2.57051
2.57051
2.57051
2.5705
2.5705
2.5705
2.5705
2.5705
2.5705
2.57049
2.57049
2.57049
2.57049
2.57049
2.57048
2.57048
2.57048
2.57048
2.57048
2.57048
2.57048
2.57047
2.57047
2.57047
2.57047
2.57047
2.57047
2.57047
2.57047
2.57046
2.57046
2.57046
2.57046
2.57046
2.57046
2.57046
2.57046
2.57046
2.57046
2.57046
2.57045
2.57045
2.57045
2.57045
2.57045
2.57045
2.57045
2.57045
2.57045
2.57045
2.57045
2.57045
2.57045
2.57045
2.57045
2.57045
2.57045
2.57045
2.57045
2.57045
2.57045
2.57045
2.57045
2.57169
2.57167
2.57165
2.57163
2.57161
2.57159
2.57157
2.57155
2.57154
2.57152
2.5715
2.57148
2.57146
2.57144
2.57142
2.5714
2.57138
2.57136
2.57134
2.57132
2.5713
2.57128
2.57126
2.57124
2.57122
2.5712
2.57118
2.57116
2.57114
2.57112
2.57111
2.57109
2.57107
2.57105
2.57103
2.57101
2.57099
2.57097
2.57095
2.57093
2.57091
2.5709
2.57088
2.57086
2.57084
2.57082
2.5708
2.57076
2.57074
2.57073
2.57071
2.57069
2.57067
2.57065
2.57063
2.57061
2.5706
2.57058
2.57056
2.57054
2.57052
2.5705
2.57048
2.57047
2.57045
2.57043
2.57041
2.57039
2.57037
2.57034
2.57032
2.5703
2.57028
2.57027
2.57025
2.57023
2.57021
2.57019
2.57018
2.57016
2.57014
2.57012
2.5701
2.57009
2.57007
2.57005
2.57003
2.57002
2.57
2.56998
2.56996
2.56994
2.56993
2.56991
2.56989
2.56987
2.56986
2.56984
2.56982
2.5698
2.56979
2.56977
2.56973
2.56972
2.5697
2.56968
2.56967
2.56965
2.56963
2.56961
2.5696
2.56958
2.56956
2.56955
2.56953
2.56951
2.56949
2.56948
2.56946
2.56944
2.56943
2.56941
2.56939
2.56938
2.56936
2.56934
2.56933
2.56929
2.56928
2.56926
2.56924
2.56923
2.56921
2.56919
2.56918
2.56916
2.56914
2.56913
2.56911
2.5691
2.56908
2.56905
2.56903
2.56901
2.569
2.56898
2.56897
2.56895
2.56893
2.56892
2.5689
2.56888
2.56887
2.56885
2.56884
2.56882
2.56881
2.56879
2.56877
2.56876
2.56874
2.56873
2.56871
2.56869
2.56868
2.56866
2.56865
2.56863
2.56862
2.5686
2.56859
2.56857
2.56855
2.56854
2.56852
2.56851
2.56849
2.56846
2.56845
2.56843
2.56842
2.5684
2.56839
2.56837
2.56836
2.56834
2.56833
2.5683
2.56828
2.56827
2.56825
2.56824
2.56822
2.56821
2.56819
2.56818
2.56816
2.56815
2.56813