/*--------------------------------*- C++ -*----------------------------------*\
| =========                 |                                                 |
| \\      /  F ield         | OpenFOAM: The Open Source CFD Toolbox           |
|  \\    /   O peration     | Version:  plus.master.MPPICInterFoam            |
|   \\  /    A nd           | Web:      www.OpenFOAM.com                      |
|    \\/     M anipulation  |                                                 |
\*---------------------------------------------------------------------------*/
FoamFile
{
    version     2.0;
    format      ascii;
    class       Cloud<basicKinematicMPPICParcel>;
    location    "10/lagrangian/kinematicCloud";
    object      positions;
}
// * * * * * * * * * * * * * * * * * * * * * * * * * * * * * * * * * * * * * //

2175
(
(0.0606306 -0.008199 0.262694) 468
(0.0614076 -0.00830451 0.263417) 468
(0.0585435 -0.00858632 0.263291) 467
(0.0585761 -0.00829297 0.26342) 467
(0.0621581 -0.00749535 0.265961) 524
(0.0635007 -0.011207 0.266835) 524
(0.0597864 -0.00934796 0.265602) 524
(0.0606402 -0.00895311 0.268411) 524
(-0.0593664 0.00227353 0.282298) 1339
(0.0616486 -0.0116 0.269167) 524
(0.059875 -0.0109189 0.268726) 524
(0.0557782 -0.0105598 0.268666) 523
(0.0605098 -0.0128055 0.27044) 524
(-0.0585035 0.00198995 0.284265) 1395
(-0.061856 -0.00305604 0.284266) 1396
(0.0632735 -0.0118714 0.268517) 524
(0.0631036 -0.0113686 0.270471) 524
(0.0644681 -0.00967387 0.274222) 580
(0.0606234 -0.0123393 0.270019) 524
(0.0614944 -0.0127653 0.273455) 524
(0.0570393 -0.0115401 0.274718) 579
(-0.05968 0.00264207 0.28566) 1396
(0.0580024 -0.0105141 0.275763) 579
(0.0587591 -0.0144408 0.270837) 524
(-0.0565734 0.00221209 0.2853) 1395
(0.0640974 -0.0104526 0.272002) 524
(0.0605883 -0.0135176 0.270968) 524
(0.0560632 -0.0107761 0.273177) 523
(0.0601165 -0.0139133 0.270717) 524
(0.0581263 -0.009388 0.275819) 579
(0.056222 -0.00102957 0.271804) 531
(-0.054847 -0.000465092 0.286014) 1395
(-0.0540524 0.00133355 0.28622) 1394
(-0.054351 0.00294275 0.285893) 1395
(-0.0560215 0.00354888 0.286161) 1395
(-0.0615263 -0.00161025 0.287352) 1396
(0.058371 -0.0152221 0.271978) 524
(0.0572152 -0.0146485 0.274659) 579
(0.0571905 -0.00100827 0.27341) 531
(0.0622929 0.00020554 0.273133) 532
(0.0576682 -0.0167982 0.274657) 580
(0.0531327 -0.000834444 0.272466) 530
(-0.0553348 0.00282558 0.288691) 1395
(0.0520916 -0.0140947 0.272576) 522
(-0.058106 0.00229639 0.286313) 1395
(0.0508361 -0.0117225 0.275899) 578
(-0.0636736 -0.00206138 0.289436) 1396
(0.0542365 -0.0124867 0.277148) 579
(-0.0587124 -0.00182945 0.287156) 1395
(-0.0579486 0.00268587 0.286618) 1395
(0.0547819 -0.0124206 0.277544) 579
(0.0625656 -0.000616514 0.274308) 588
(-0.0595063 0.00257228 0.287629) 1395
(0.056884 -0.0139493 0.27578) 579
(0.0540934 -0.0111975 0.277934) 579
(0.0572976 -0.000986896 0.275194) 587
(0.0519238 -0.0181777 0.273839) 515
(-0.0610383 0.0009879 0.288601) 1396
(0.0563865 -0.00101033 0.275121) 587
(-0.0596871 -0.00292 0.288287) 1396
(-0.0383373 -0.0386376 0.292147) 2123
(0.0602896 -0.0164544 0.276677) 580
(0.0597127 0.00217132 0.274282) 588
(-0.0406458 -0.0318504 0.290012) 1418
(0.0524545 -0.0117819 0.278489) 578
(0.0544887 -0.0147434 0.274531) 579
(0.0571559 -0.0156681 0.276884) 579
(0.0598244 0.000450798 0.274781) 588
(-0.0393022 -0.0356494 0.291467) 1418
(-0.0566655 -0.00960986 0.292966) 1403
(-0.0551786 0.00378231 0.289836) 1395
(0.0634161 0.00194629 0.275533) 588
(0.0549146 0.00149456 0.274196) 587
(-0.0397136 -0.0324709 0.291174) 1418
(0.0528975 -0.0121067 0.279567) 579
(-0.0417866 -0.0324708 0.291716) 1418
(-0.0556153 -0.0093117 0.293123) 1403
(0.0586801 -0.0166422 0.277501) 580
(0.0598525 0.000370419 0.275544) 588
(-0.0523611 -0.0137224 0.292916) 1403
(0.0580744 -0.00718915 0.280073) 579
(0.0520092 -0.0141461 0.275772) 578
(0.0637801 -0.0126048 0.275548) 580
(-0.0586788 0.0120947 0.289646) 1388
(-0.028904 -0.0452181 0.292632) 2122
(-0.0508906 0.0291673 0.289473) 1379
(-0.0568299 0.0149217 0.289231) 1387
(0.0527095 -0.0138575 0.276208) 579
(0.0523851 -0.0117937 0.280295) 578
(0.0511727 -0.0135644 0.278918) 578
(-0.039533 -0.0340458 0.292759) 1418
(0.0534555 -0.0155838 0.278653) 579
(0.0593556 -0.0164885 0.278282) 580
(-0.0543619 0.00324408 0.290451) 1395
(-0.0514579 -0.0126006 0.292204) 1402
(-0.0581218 0.0158763 0.290503) 1388
(0.0559524 -0.0195466 0.278755) 579
(-0.0561231 0.0152694 0.291608) 1387
(-0.0534592 0.0135083 0.290134) 1387
(0.058803 -0.0171513 0.278704) 580
(-0.019501 -0.0550616 0.290833) 2131
(-0.0290417 -0.0448389 0.294296) 2178
(-0.0274641 -0.0450526 0.293802) 2186
(-0.0533074 0.0146037 0.29037) 1387
(-0.0316407 -0.044368 0.294112) 2179
(-0.0274329 -0.0434944 0.293879) 2178
(-0.0287642 -0.0433905 0.294407) 2178
(-0.0249804 -0.045451 0.294158) 2186
(-0.0508199 -0.0151029 0.293853) 1458
(-0.0482592 0.0305695 0.291849) 1371
(-0.0307079 -0.0424955 0.29416) 2178
(0.0562077 -0.01574 0.280024) 579
(0.059221 -0.0189092 0.279296) 580
(-0.0599571 0.000886303 0.291618) 1396
(0.0548185 -0.0162486 0.280532) 579
(0.0604267 -0.0139353 0.278172) 580
(-0.0386891 -0.0326667 0.29457) 1474
(-0.0492062 -0.0145514 0.295297) 1458
(-0.0564473 -0.00255998 0.291487) 1395
(-0.056309 0.0123293 0.291396) 1387
(-0.0383604 -0.0321671 0.294371) 1474
(0.0574317 -0.0157736 0.280377) 579
(-0.0488872 0.0278989 0.293193) 1379
(0.055278 -0.0163429 0.280856) 579
(-0.0601652 -0.00266545 0.292291) 1396
(0.0629914 0.00315963 0.279473) 588
(-0.0282595 -0.0472947 0.29728) 2187
(-0.0314948 -0.0432303 0.295623) 2178
(0.0528106 -0.014527 0.284072) 635
(-0.0500629 -0.0131286 0.294894) 1458
(0.0536762 -0.0174657 0.281455) 579
(-0.0522477 0.012727 0.292884) 1386
(0.0604398 -0.00965888 0.279482) 580
(0.052201 -0.0170651 0.282012) 579
(0.0569302 0.00317262 0.279249) 587
(-0.0556325 -0.00123895 0.292738) 1395
(-0.0553178 0.0117542 0.292457) 1387
(-0.0576167 0.0122002 0.292788) 1387
(-0.0528821 -0.0112962 0.29581) 1458
(0.0499914 -0.0157584 0.283902) 634
(0.0545335 -0.0160899 0.281877) 579
(-0.0537494 0.0110793 0.293974) 1443
(0.059502 0.00214587 0.279285) 587
(-0.00654814 -0.0592134 0.291217) 2147
(-0.050181 -0.0156386 0.295495) 1458
(-0.0597778 -0.00526723 0.295094) 1452
(0.0595112 -0.000233135 0.279572) 587
(-0.00511771 -0.057059 0.294161) 2203
(-0.00614588 -0.0574986 0.29055) 2147
(-0.0511878 -0.0104462 0.296603) 1458
(0.0532344 -0.00161164 0.280867) 586
(0.0532665 -0.01054 0.28021) 579
(-0.0273258 -0.0443628 0.296968) 2186
(-0.0262539 -0.043516 0.2961) 2186
(-0.028621 -0.0469488 0.298646) 2187
(-0.062954 -0.00264402 0.294787) 1452
(-0.0475687 -0.0137511 0.297242) 1458
(0.0488612 -0.0139903 0.285016) 634
(0.051609 -0.015663 0.283144) 578
(-0.00492683 -0.0545625 0.294576) 2203
(0.0595536 0.000157881 0.280163) 588
(0.0587738 -0.0158156 0.286298) 636
(-0.0551428 0.00181672 0.295855) 1451
(-0.0475025 0.0286068 0.294922) 1435
(-0.0496817 0.0279579 0.294216) 1435
(-0.0472111 -0.0154446 0.297528) 1458
(-0.039658 -0.0320724 0.296512) 1474
(-0.0557812 0.00140919 0.294083) 1451
(-0.0482729 -0.0114347 0.298204) 1458
(-0.0468054 -0.014271 0.297849) 1458
(0.0545774 -0.00178654 0.282404) 587
(-0.046668 0.0286481 0.294798) 1435
(-0.0244013 -0.0466292 0.297934) 2186
(0.0498496 -0.0170049 0.284162) 634
(-0.0471681 0.0285146 0.295603) 1435
(0.0577433 -0.000752233 0.281241) 587
(-0.0511134 0.0259464 0.29446) 1435
(0.0586089 -0.00885157 0.28104) 579
(-0.0610841 0.011185 0.295379) 1444
(0.0531741 -0.018607 0.283756) 571
(0.0542657 -0.0154348 0.283829) 635
(0.0556844 -0.0120534 0.283248) 579
(-0.0481701 -0.0176982 0.298417) 1466
(0.0511643 -0.0146594 0.28579) 634
(0.0535306 -0.0165572 0.283812) 635
(-0.0349937 -0.0334739 0.297684) 1473
(-0.0541425 0.0114775 0.295111) 1443
(0.0494102 -0.015077 0.285442) 634
(-0.0607247 0.00404645 0.296186) 1452
(-0.0408041 -0.0417564 0.296259) 2179
(-0.0461351 -0.0136635 0.299892) 1457
(-0.0510953 0.00064482 0.297444) 1450
(0.0533126 -0.0154889 0.284374) 635
(-0.0555147 5.66153e-05 0.297416) 1451
(-0.0598161 -0.00551193 0.297667) 1452
(0.0597862 -0.00197984 0.28362) 588
(-0.054069 -0.0120301 0.299226) 1459
(-0.0559253 -0.0109246 0.299947) 1459
(0.0509613 -0.015949 0.284908) 634
(0.0532817 -0.0129738 0.283475) 579
(-0.0480401 0.0279278 0.29745) 1435
(-0.0560956 0.00389543 0.296928) 1451
(-0.056213 0.0108177 0.295897) 1443
(0.046889 -0.0115817 0.285994) 633
(-0.049655 0.0238167 0.296804) 1435
(-0.0558096 0.00277095 0.2964) 1451
(-0.0288668 -0.0425448 0.299827) 2178
(-0.0404893 -0.0332382 0.300314) 1474
(-0.0399754 -0.0315333 0.29983) 1474
(-0.0474322 -0.00899142 0.300359) 1457
(-0.0485633 -0.0142756 0.298641) 1458
(0.0496736 -0.0174656 0.285574) 626
(0.05625 -0.0019832 0.284585) 643
(-0.0603784 0.00203523 0.296902) 1452
(-0.0506597 -0.000570253 0.298825) 1450
(0.0511587 -0.014929 0.286129) 634
(0.0532663 -0.0141148 0.285143) 635
(-0.0550528 0.00285149 0.297975) 1451
(-0.0497692 -0.0111544 0.298756) 1458
(0.0600382 -0.00953578 0.285865) 636
(-0.0587695 0.00494739 0.298279) 1451
(-0.0560817 0.0194293 0.297609) 1443
(-0.0192487 -0.0536045 0.296354) 2187
(-0.0478087 -0.0159781 0.299061) 1458
(-0.0522637 0.014853 0.296604) 1443
(0.00911249 -0.0555957 0.297645) 2211
(-0.0568142 0.0119003 0.296765) 1443
(-0.0277157 -0.0403602 0.299606) 2178
(-0.0278721 -0.04093 0.29939) 2178
(-0.0499038 0.00536826 0.29893) 1450
(0.0490237 -0.0159728 0.288387) 634
(-0.00520168 -0.0520853 0.297809) 2202
(-0.0556379 0.013636 0.297042) 1443
(-0.0288316 -0.0429449 0.301007) 2178
(-0.0462631 -0.0168001 0.300718) 1466
(0.0521123 -0.0137109 0.286235) 634
(0.050114 -0.011238 0.283785) 578
(-0.0423291 -0.0370485 0.298803) 1475
(-0.00210741 -0.0581056 0.298616) 2203
(-0.0501904 -0.0111169 0.29961) 1458
(0.0524995 -0.0158477 0.286376) 635
(-0.00492955 -0.0518668 0.298007) 2202
(0.0538467 -0.0131925 0.286051) 635
(-0.0529747 0.0174052 0.299554) 1443
(-0.0495853 -0.0266973 0.298843) 1467
(-0.0419643 -0.0359142 0.297284) 1475
(-0.0535258 0.00271048 0.300677) 1450
(-0.0508033 -0.0117044 0.299955) 1458
(0.0494521 -0.0159426 0.288891) 634
(0.0521518 -0.00221119 0.284534) 642
(-0.0293336 -0.0439222 0.302114) 2178
(0.0556726 -0.0104059 0.286215) 635
(-0.00546808 -0.0520346 0.298625) 2202
(-0.0401804 -0.0378099 0.297976) 1475
(-0.0517759 0.00586636 0.301231) 1442
(0.0489713 -0.0161891 0.287877) 634
(-0.0409116 -0.0379648 0.299852) 1475
(0.0202474 -0.0542382 0.299456) 2219
(-0.0402131 -0.0327732 0.300953) 1474
(0.0532647 -0.012804 0.286589) 635
(-0.0415226 -0.0362145 0.299258) 1475
(-0.0555598 -0.0136187 0.299586) 1459
(-0.0473478 -0.0234445 0.297919) 1466
(0.0554409 -0.00152926 0.285152) 643
(-0.0522905 0.00547161 0.301309) 1450
(0.04785 -0.0149301 0.288182) 634
(-0.00506848 -0.0530902 0.299118) 2202
(-0.0495042 -0.0245978 0.298998) 1467
(-0.0525282 0.00427951 0.301884) 1450
(-0.0474605 -0.0125898 0.301245) 1458
(0.0543814 -0.0103558 0.286694) 635
(-0.00271501 -0.0521022 0.299137) 2202
(-0.00508982 -0.0509735 0.299473) 2202
(-0.00409816 -0.0526527 0.299231) 2202
(-0.0588786 0.000650887 0.298709) 1451
(0.0543621 -0.0104786 0.287493) 635
(-0.0558636 0.00404278 0.300848) 1451
(0.0551535 -0.00253264 0.286751) 643
(-0.0593826 -0.00155206 0.299103) 1451
(-0.0536992 -0.0102786 0.304297) 1515
(-0.0528795 0.00104661 0.301752) 1450
(0.0481788 -0.0143004 0.290748) 634
(0.0527108 -0.0123711 0.288149) 635
(-0.0466854 0.0297035 0.30109) 1427
(-0.0396571 -0.0289084 0.302181) 1474
(-0.0534154 0.003023 0.302247) 1450
(0.0531959 -0.0103575 0.288058) 635
(0.0215385 -0.0476195 0.298729) 2218
(-0.055472 0.0122762 0.299688) 1443
(0.0512787 -0.0135588 0.288119) 634
(0.0535368 -0.0098486 0.288238) 635
(-0.0550299 0.00362351 0.301482) 1451
(-0.0520267 0.0126347 0.300003) 1442
(-0.0155536 -0.0536229 0.300336) 2195
(-0.0518112 0.000854019 0.302084) 1450
(0.0525161 -0.0122321 0.28877) 634
(0.0521303 -0.0129152 0.288777) 634
(0.0518769 -0.0133077 0.288813) 634
(-0.0544284 0.0167574 0.299751) 1443
(-0.0508763 -0.0143336 0.304845) 1514
(-0.0519348 0.000202971 0.302266) 1450
(-0.0524014 -0.0147337 0.302956) 1459
(-0.0556786 -0.00161929 0.302512) 1451
(-0.0309567 0.0453606 0.302478) 3011
(-0.0394756 -0.0363849 0.303728) 1530
(-0.0547713 0.00320089 0.302046) 1451
(-0.0156886 -0.0534533 0.301025) 2195
(-0.0181085 -0.0545297 0.299944) 2195
(-0.0397048 -0.0345894 0.303411) 1474
(-0.0559454 -0.0101971 0.301934) 1459
(-0.0389828 -0.0299072 0.303832) 1530
(0.0509889 -0.0134851 0.289817) 634
(-0.015469 -0.049894 0.301464) 2194
(0.0220527 -0.0512376 0.301673) 2219
(0.0577401 -0.00609138 0.28825) 643
(-0.0632639 -0.00212088 0.300745) 1452
(0.0510937 -0.0128758 0.291439) 634
(0.0514697 -0.0140829 0.289422) 634
(0.0552786 -0.00707643 0.289147) 635
(-0.0551249 0.00377127 0.302495) 1451
(-0.0459359 -0.0272733 0.300466) 1466
(0.0520195 -0.0116544 0.290853) 634
(0.0522066 -0.0115656 0.290101) 634
(-0.046744 -0.00880238 0.304512) 1513
(0.051535 -0.0124576 0.290208) 634
(0.0507206 -0.0133266 0.290159) 634
(-0.0384937 -0.0371005 0.301319) 1474
(0.0216919 -0.050706 0.301954) 2219
(0.0596709 -0.00210871 0.289685) 644
(0.0578793 -0.0132502 0.289343) 635
(-0.0507644 0.00649525 0.304065) 1498
(0.0517408 -0.0190029 0.29008) 627
(-0.0529463 0.0127646 0.302458) 1443
(-0.0152335 -0.0532423 0.301546) 2195
(-0.00387836 -0.0546384 0.302313) 2203
(-0.0207152 -0.0530034 0.300852) 2187
(-0.0553139 -0.00089658 0.304161) 1507
(0.0500384 -0.0138741 0.290524) 634
(-0.0190727 -0.0506311 0.302639) 2186
(-0.0592914 0.00541236 0.303119) 1451
(-0.0358212 -0.0310176 0.303995) 1529
(-0.0461987 -0.00914653 0.305314) 1513
(-0.038526 0.0367704 0.303272) 1426
(-0.0389047 -0.0370188 0.30266) 1474
(-0.052946 -0.0129281 0.301655) 1459
(0.0198496 -0.0549918 0.30282) 2219
(-0.0498913 -0.0103283 0.303755) 1514
(0.0504746 -0.013536 0.290976) 634
(0.0507133 -0.0131122 0.290746) 634
(-0.0160424 -0.0502863 0.302649) 2194
(-0.0148924 -0.0547358 0.304111) 2251
(-0.0529226 -0.0145985 0.305034) 1515
(0.0465945 -0.00849744 0.29206) 633
(0.0505315 -0.0141066 0.291085) 634
(-0.0175367 -0.0495822 0.303173) 2186
(0.053619 -0.0022274 0.289426) 642
(-0.0533277 0.0123134 0.301892) 1443
(-0.0579955 0.0105336 0.302374) 1443
(-0.0564527 0.00486182 0.302385) 1451
(-0.0226675 -0.0529423 0.301874) 2187
(-0.0572305 -0.0168623 0.302534) 1460
(-0.0548121 -0.00903095 0.305554) 1515
(0.0573023 -0.00991567 0.292248) 635
(-0.0585931 -0.0103787 0.304309) 1515
(-0.0147626 -0.0529958 0.30231) 2195
(0.0201448 -0.0518664 0.302679) 2219
(-0.0237163 -0.0552515 0.302313) 2188
(-0.0535113 -0.0129342 0.305518) 1515
(-0.00356568 -0.0519783 0.304944) 2258
(-0.017407 -0.0501505 0.304198) 2250
(-0.0404568 0.0376321 0.304653) 1483
(-0.0190804 -0.0502619 0.303724) 2242
(0.0546597 -0.006141 0.290438) 643
(-0.0370373 -0.036847 0.302242) 1474
(0.0135487 -0.0553975 0.303463) 2211
(-0.02507 -0.0420795 0.304988) 2242
(0.049763 -0.0151524 0.292103) 634
(-0.0534705 0.00246495 0.302576) 1450
(-0.0211776 -0.0518575 0.303872) 2243
(-0.0508833 0.0230133 0.303433) 1435
(-0.0582076 0.0103711 0.303191) 1443
(-0.0418552 -0.0367373 0.301958) 1475
(-0.0439955 0.0398504 0.301851) 1427
(-0.0523108 -0.0148766 0.303413) 1459
(-0.0481911 0.00413636 0.30528) 1505
(-0.0481528 -0.013129 0.30501) 1514
(-0.0405208 0.038523 0.305781) 1483
(-0.0253617 -0.0413448 0.305505) 2241
(-0.0551406 -0.0108544 0.304679) 1515
(-0.0221363 -0.052062 0.304202) 2243
(-0.0552973 -0.0155956 0.306385) 1515
(-0.0175591 -0.0507119 0.305203) 2250
(-0.0532228 0.0106504 0.304318) 1499
(0.0541855 0.00792854 0.29176) 651
(-0.0531228 -0.00193048 0.302766) 1450
(-0.0470648 -0.0137862 0.306316) 1514
(-0.0376261 -0.0316911 0.305483) 1530
(0.049493 -0.0150442 0.292083) 634
(-0.0404087 0.040889 0.305933) 3067
(0.0232877 -0.0496524 0.303982) 2275
(-0.0568264 0.0103108 0.303237) 1443
(-0.0242897 -0.0432808 0.307194) 2242
(0.0206165 -0.0474421 0.303018) 2218
(-0.0577533 0.0165622 0.301765) 1444
(-0.0550286 -0.00239757 0.305935) 1507
(-0.0196472 -0.052657 0.306689) 2243
(-0.0582134 -0.00502556 0.306312) 1507
(-0.0171272 -0.0510193 0.305655) 2250
(-0.0426356 -0.0350447 0.305018) 1531
(-0.0212232 -0.0515957 0.305448) 2243
(-0.054614 0.0043484 0.304154) 1507
(-0.0464317 -0.0149816 0.308108) 1513
(-0.0544131 0.00343871 0.305414) 1507
(0.0583279 -0.00618002 0.293078) 643
(0.0228847 -0.0499632 0.305011) 2275
(-0.0381069 -0.0423083 0.30358) 2179
(0.0494486 -0.0133562 0.293324) 634
(0.0502488 -0.0129678 0.292377) 634
(-0.0198961 -0.0499481 0.30538) 2242
(-0.021513 -0.0511928 0.305113) 2243
(0.0553755 -0.00578843 0.291863) 643
(-0.0594179 0.00451696 0.304517) 1507
(-0.0579039 -0.00331476 0.304033) 1507
(0.00783214 -0.0583724 0.303315) 2211
(-0.037923 -0.0334747 0.306652) 1530
(0.0502235 -0.0140972 0.293744) 690
(-0.015211 -0.0486267 0.30504) 2250
(-0.0145549 -0.0527503 0.304425) 2251
(-0.0371341 -0.0382348 0.303906) 2234
(-0.047578 0.0263358 0.305838) 1491
(-0.0518346 0.0121371 0.30443) 1498
(-0.0452717 -0.0341093 0.304614) 1531
(-0.0584342 0.00990001 0.305071) 1499
(-0.0492822 0.00492906 0.307721) 1506
(-0.04701 -0.0171262 0.307654) 1522
(-0.047109 -0.0120595 0.306946) 1513
(-0.0522757 -0.0167315 0.307636) 1515
(0.0500715 -0.0151652 0.293794) 690
(-0.0398367 0.0346806 0.307235) 1482
(-0.0154068 -0.0484279 0.305857) 2250
(-0.0522433 -0.0172188 0.305058) 1515
(-0.0580889 -0.00336557 0.304971) 1507
(-0.0596146 -0.00473841 0.305228) 1508
(0.0547466 -0.0204148 0.292791) 627
(-0.0530017 -0.0080813 0.307344) 1514
(0.0566097 0.0101665 0.295254) 707
(-0.0306572 -0.0432262 0.305632) 2234
(-0.039846 0.0367154 0.306438) 1482
(0.00710906 -0.0509097 0.304797) 2266
(0.010564 -0.0506722 0.306697) 2266
(-0.0427499 -0.0418661 0.305772) 1532
(-0.0395108 -0.0357907 0.306599) 1530
(-0.0525003 0.00297449 0.305201) 1506
(-0.0151056 -0.0482913 0.30603) 2250
(-0.0543507 0.019317 0.306137) 1491
(0.0543114 -0.00210865 0.293283) 643
(-0.0109768 -0.0587239 0.305981) 2252
(-0.00717472 -0.0570464 0.304891) 2251
(-0.0317861 -0.0504841 0.303818) 2235
(-0.051139 -0.0101745 0.307186) 1514
(-0.0379161 0.0371089 0.308024) 1482
(-0.0186392 -0.0517315 0.308044) 2243
(-0.00229687 -0.0521132 0.307404) 2258
(-0.0157007 -0.0471645 0.306423) 2250
(-0.0171519 -0.0477122 0.306797) 2242
(-0.0588711 0.00553037 0.306065) 1507
(-0.0466854 -0.0283146 0.306114) 1523
(-0.00311895 -0.0555928 0.30624) 2259
(-0.0601546 0.00983436 0.306624) 1500
(-0.0570489 0.0109047 0.305681) 1499
(-0.0615227 0.0102881 0.306476) 1500
(-0.0474468 -0.0117239 0.309775) 1514
(-0.049483 0.00278327 0.308769) 1506
(-0.0490821 0.00636006 0.308433) 1498
(-0.0507189 -0.011583 0.307521) 1514
(-0.0377745 0.0371597 0.308203) 1482
(0.0128804 -0.0505776 0.307572) 2266
(-0.0322482 -0.0455186 0.307617) 2235
(-0.0308304 0.0430971 0.307243) 3066
(-0.0543208 0.00316383 0.306683) 1507
(0.00860686 -0.0496021 0.305795) 2266
(-0.0496405 0.00493401 0.309117) 1506
(-0.0494513 -0.00946056 0.307341) 1514
(0.0504481 -0.013178 0.296438) 690
(-0.0558362 -0.00397214 0.307106) 1507
(-0.0156063 -0.046674 0.306669) 2250
(0.0409472 -0.035247 0.306323) 730
(-0.0503136 0.012088 0.305659) 1498
(0.00911699 -0.0470882 0.305827) 2265
(-0.0431369 -0.0361368 0.305245) 1531
(-0.0515319 -0.0137439 0.308354) 1514
(-0.0473137 0.00190091 0.308173) 1505
(-0.0514458 -0.00221221 0.3081) 1506
(-0.0170592 -0.0473788 0.307364) 2242
(-0.0154543 -0.0465719 0.307241) 2250
(-0.0157525 -0.0469673 0.307088) 2250
(0.0570903 -0.014663 0.295903) 691
(-0.0594124 0.00564031 0.307594) 1507
(-0.020021 -0.0491443 0.307061) 2242
(-0.0283596 -0.0467272 0.306591) 2243
(-0.0516365 0.00286917 0.305575) 1506
(-0.0402042 -0.0348605 0.305335) 1530
(-0.00249369 -0.0574456 0.30574) 2259
(-0.0487557 0.00176024 0.308063) 1506
(0.0482948 -0.0169001 0.295442) 682
(0.0132617 -0.0498261 0.308177) 2266
(-0.0376201 -0.0384044 0.30729) 2234
(-0.0554989 -0.0103036 0.307671) 1515
(-0.0175599 -0.0466823 0.307355) 2242
(-0.0387624 -0.0418208 0.306936) 2235
(-0.0502439 -0.0217548 0.307151) 1523
(-0.0556123 -0.0100947 0.307027) 1515
(0.05662 -0.00274693 0.294875) 699
(-0.0412937 -0.0393268 0.305891) 1531
(-0.054057 -0.0155541 0.305202) 1515
(-0.0411853 -0.0300539 0.310118) 1530
(0.0485948 -0.0124327 0.295953) 690
(-0.0538232 0.00342446 0.307724) 1506
(-0.0078827 -0.0528485 0.308161) 2250
(-0.0140742 -0.0450683 0.306959) 2249
(0.0475789 -0.0305618 0.306205) 731
(-0.0383828 -0.0286314 0.308967) 1529
(-0.0471118 0.0153518 0.309266) 1498
(-0.0463006 -0.0135272 0.308778) 1513
(0.0489412 -0.0139972 0.296183) 690
(0.0147792 -0.0548443 0.309501) 2267
(0.0150759 -0.0532157 0.308746) 2267
(-0.0468885 0.0293721 0.308229) 1491
(-0.0144966 -0.0442143 0.307604) 2249
(-0.0196491 -0.0486981 0.307432) 2242
(-0.0204221 -0.0491062 0.307463) 2242
(-0.022764 -0.0510834 0.306925) 2243
(-0.050965 0.0246518 0.306904) 1491
(-0.0592147 -0.00545501 0.306862) 1507
(-0.0487212 0.00164234 0.30966) 1505
(-0.0460405 -0.00967438 0.309783) 1513
(-0.0289666 -0.0403266 0.309229) 2234
(0.0145775 -0.0546306 0.309618) 2267
(-0.0145439 -0.0461851 0.307486) 2249
(0.0592293 0.00170365 0.2962) 699
(0.0132978 -0.0569719 0.307223) 2267
(-0.0445396 -0.0385733 0.306566) 1531
(-0.0473398 0.0114179 0.30958) 1497
(0.0472454 -0.0165254 0.296227) 690
(-0.0277279 -0.0478587 0.308343) 2243
(-0.0532642 -0.00916108 0.307334) 1514
(-0.0418445 0.037169 0.308377) 1483
(-0.0133517 -0.0531886 0.307739) 2251
(0.0110673 -0.0543611 0.306707) 2267
(-0.0291209 -0.0421279 0.311205) 2234
(-0.0479331 -0.0107699 0.309092) 1514
(-0.00126601 -0.0533105 0.309428) 2258
(-0.0188838 -0.0492456 0.308154) 2242
(-0.0135598 -0.0526388 0.307955) 2251
(0.0108089 -0.0545976 0.306924) 2267
(0.0551071 -0.0201818 0.29573) 683
(-0.0360714 -0.0336986 0.310867) 1530
(-0.0184603 -0.0537696 0.310558) 2251
(-0.0379131 0.0359279 0.309863) 1482
(0.014161 -0.0539401 0.309909) 2267
(-0.0278479 0.0430978 0.308866) 3066
(-0.049323 -0.0222426 0.308054) 1522
(-0.0208412 -0.0490523 0.307943) 2242
(-0.00328728 -0.0567726 0.308555) 2259
(0.00446344 -0.0576984 0.306875) 2259
(-0.0093192 -0.0556374 0.306824) 2251
(-0.0464639 -0.015439 0.310014) 1513
(-0.0501825 -0.0123921 0.309233) 1514
(-0.0145268 -0.0436693 0.30858) 2249
(0.0536089 0.00898955 0.296362) 707
(-0.0411033 -0.033388 0.307831) 1530
(-0.0541921 -0.00368052 0.307661) 1507
(-0.0559853 -0.00957661 0.308331) 1515
(-0.0500524 -0.0241697 0.308575) 1523
(-0.0403414 -0.0427885 0.307679) 2235
(-0.0543133 -0.0150743 0.306441) 1515
(-0.0478003 0.015867 0.310814) 1498
(0.00938861 -0.0516952 0.309498) 2266
(-0.00206068 -0.0495958 0.30952) 2258
(-0.0550459 -0.0114256 0.309758) 1515
(-0.0395411 0.0329312 0.309713) 1482
(-0.0145068 -0.0431404 0.308855) 2249
(0.0419041 -0.0344408 0.308318) 731
(-0.0135972 -0.0539009 0.309343) 2251
(-0.0177632 -0.0473514 0.307858) 2242
(0.0563937 -0.00993337 0.296582) 691
(0.0549095 0.00902279 0.297543) 707
(-0.050684 -0.0146444 0.30844) 1514
(-0.0145917 -0.0470065 0.308627) 2250
(-0.0151098 -0.0440051 0.308571) 2249
(-0.016 -0.0452003 0.308616) 2241
(-0.0297371 -0.0423843 0.308218) 2234
(-0.0305885 -0.0461355 0.308261) 2235
(-0.0133218 -0.0543342 0.309253) 2251
(-0.0153075 -0.0550811 0.308264) 2251
(-0.0311293 -0.0449659 0.308639) 2235
(0.00342305 -0.0583711 0.307518) 2259
(-0.0492662 -0.0130964 0.309736) 1514
(0.0496649 -0.0107648 0.298063) 690
(-0.0552705 -0.0102746 0.311058) 1515
(-0.0532322 0.000224863 0.309733) 1506
(-0.0531151 0.00058804 0.309497) 1506
(0.0572252 0.00922326 0.298971) 707
(-0.038441 -0.0429835 0.308901) 2235
(-0.0517697 -0.013112 0.308177) 1514
(-0.0434567 -0.0201175 0.310173) 1521
(-0.0468053 -0.0143098 0.310586) 1514
(-0.0463892 -0.0226821 0.3081) 1522
(-0.0133946 -0.0513947 0.308352) 2250
(-0.0581414 0.0117284 0.309073) 1499
(0.0501884 -0.013175 0.299253) 690
(0.0020306 -0.056612 0.310758) 2259
(-0.0187024 -0.0471154 0.309204) 2242
(-0.055068 -0.0162065 0.308068) 1515
(-0.0579745 -0.0136322 0.308419) 1516
(0.0465508 -0.0108092 0.300666) 689
(-0.0498483 0.0162039 0.312014) 1498
(-0.0517684 -0.0113657 0.310853) 1514
(0.0485572 -0.0117119 0.298544) 690
(-0.0288926 0.0446148 0.311873) 3066
(0.0114563 0.053893 0.299853) 2979
(0.00817569 -0.0553669 0.311409) 2267
(-0.0441326 -0.0348806 0.30896) 1531
(-0.0561051 -0.0101271 0.309747) 1515
(-0.050563 0.00488745 0.312556) 1506
(0.0529825 -0.00590661 0.29845) 698
(0.0113569 -0.0500926 0.310924) 2266
(-0.0338705 -0.0452616 0.311184) 2235
(-0.0594623 -0.0063533 0.310913) 1507
(-0.0458091 -0.0242804 0.309447) 1522
(-0.014146 -0.043323 0.30954) 2249
(-0.0524943 -0.0035804 0.308479) 1506
(-0.0132274 -0.052487 0.309424) 2251
(-0.0548345 -0.00420915 0.308713) 1507
(-0.0566437 -0.00160329 0.308939) 1507
(-0.0247431 -0.0527006 0.309433) 2243
(-0.058386 -0.00534635 0.309107) 1507
(0.0411152 -0.0389891 0.309091) 731
(-0.0508153 0.0025588 0.310746) 1506
(0.0119095 -0.0520799 0.311299) 2266
(-0.0138102 -0.0441086 0.309843) 2249
(-0.0129084 -0.0540803 0.311264) 2251
(-0.0497064 -0.0219777 0.309847) 1523
(-0.0036227 -0.050024 0.309911) 2258
(0.0116393 -0.0584003 0.308387) 2268
(0.0465848 -0.0142919 0.298766) 689
(0.0146393 -0.052754 0.311509) 2267
(-0.0431648 -0.0349806 0.310289) 1531
(0.0409526 -0.0337458 0.309602) 730
(0.0235273 -0.0485256 0.309777) 2274
(0.0552315 -0.0129554 0.298309) 691
(-0.0474244 0.0108109 0.311716) 1497
(-0.00286895 0.0552506 0.300358) 2987
(-0.00210734 -0.0595258 0.309566) 2260
(-0.0426447 -0.0200309 0.311442) 1521
(-0.0374094 -0.0345357 0.311816) 1530
(-0.00302719 -0.0502623 0.311693) 2258
(0.0551582 0.0100802 0.29971) 707
(-0.0148671 -0.0436923 0.310478) 2249
(-0.0179593 -0.0459579 0.310414) 2242
(-0.0533973 -0.022959 0.311942) 1523
(-0.0352578 -0.0465806 0.310585) 2235
(0.0117885 -0.0543338 0.309472) 2267
(0.000572216 0.0559596 0.301038) 2987
(-0.0506351 0.0124461 0.310702) 1498
(0.0566793 0.00817497 0.300313) 707
(0.00573748 -0.0594977 0.309062) 2259
(-0.0463774 0.0120016 0.312589) 1497
(0.0464894 -0.0110826 0.299213) 689
(0.0121264 -0.0478584 0.311785) 2266
(0.000870635 0.0531733 0.299887) 2986
(-0.0512373 -0.00282639 0.309165) 1506
(-0.0398034 0.0393424 0.310855) 1483
(-0.0520924 -0.0178975 0.310198) 1515
(-0.044307 -0.038174 0.309372) 1531
(-0.0308172 0.0476285 0.31) 3067
(-0.053087 0.00121545 0.311458) 1506
(-0.0151383 -0.0436798 0.311084) 2249
(-0.0482619 -0.022823 0.311049) 1522
(-0.0558267 0.00430272 0.31091) 1507
(-0.0576151 0.00803325 0.310523) 1499
(0.0399349 -0.0393131 0.309752) 731
(-0.0456401 0.0129888 0.312763) 1497
(0.0118901 0.0530336 0.301467) 2979
(-0.0480118 0.0244043 0.311693) 1490
(-0.00504908 -0.0499336 0.31192) 2258
(-0.0270371 -0.0488183 0.311642) 2243
(-0.0206841 -0.0519566 0.311569) 2243
(-0.0494564 -0.0146126 0.310394) 1514
(-0.0291106 -0.0520562 0.312546) 2244
(-0.0469623 -0.0318703 0.311426) 1531
(-0.0568572 0.005218 0.310858) 1507
(-0.0509015 0.0118639 0.310151) 1498
(-0.0421928 0.0381787 0.31145) 1483
(-0.023406 -0.0506732 0.310392) 2243
(-0.0580286 0.0105918 0.310565) 1499
(-0.0423009 0.0409473 0.310298) 1483
(-0.0467351 0.0135555 0.313286) 1497
(-0.0253739 -0.0430055 0.312694) 2242
(-0.0246811 -0.0428813 0.31336) 2242
(-0.0532621 0.00207713 0.312362) 1506
(-0.0512388 -0.00181925 0.310515) 1506
(-0.0182039 -0.0492015 0.311466) 2242
(-0.0150378 -0.0514559 0.311336) 2250
(0.0491712 0.0206232 0.299035) 714
(-0.041935 0.0368135 0.311147) 1483
(-0.00246535 -0.0546809 0.31098) 2259
(0.00860312 -0.056137 0.30963) 2267
(-0.0404252 0.0338715 0.312978) 1482
(-0.0536354 -0.00916476 0.310971) 1515
(0.0553416 -0.0136983 0.300099) 691
(-0.0508425 0.0217143 0.310548) 1491
(-0.0455441 -0.0353479 0.310546) 1531
(-0.0279288 0.0438184 0.31318) 3066
(0.0526357 0.00766561 0.299417) 706
(-0.0129404 -0.0551317 0.312622) 2251
(-0.0554516 -0.00134222 0.31064) 1507
(-0.0595037 -0.00330112 0.311143) 1507
(0.0533819 -0.0241248 0.299679) 683
(0.00716173 -0.0566625 0.309623) 2267
(-0.0382541 0.0350477 0.313408) 1482
(-0.00626846 -0.0513231 0.31153) 2250
(-0.0443168 0.0349651 0.311645) 1483
(-0.00519705 -0.0554918 0.310102) 2259
(-0.0221448 -0.0550185 0.310675) 2243
(-0.036463 -0.0320101 0.31409) 10851
(-0.0450797 -0.00928939 0.313857) 10835
(0.0123789 -0.0474316 0.312773) 2266
(-0.05001 -0.0142671 0.311549) 1514
(0.04653 -0.0148881 0.300314) 689
(-0.0185269 -0.0496281 0.312337) 2242
(-0.0159307 -0.0537496 0.312588) 2251
(-0.0543787 0.0105788 0.311191) 1499
(-0.032477 0.0432989 0.314145) 11189
(0.014028 -0.0530426 0.313597) 11005
(-0.0471182 0.0308524 0.313304) 1483
(0.0507736 -0.0091757 0.299658) 690
(-0.0362319 -0.037574 0.31182) 2234
(0.0458929 0.0264301 0.300064) 714
(-0.00200159 -0.0496691 0.311734) 2258
(-0.0500802 0.0145863 0.311187) 1498
(-0.0388749 -0.0336602 0.310537) 1530
(-0.0471691 0.0147812 0.314574) 10820
(-0.0457222 0.0119937 0.313573) 10819
(-0.0293429 -0.0407305 0.313634) 10972
(0.0463849 -0.00867269 0.301091) 689
(0.0141594 -0.0500913 0.31272) 2266
(0.0517409 -0.00317574 0.29987) 698
(-0.0475331 -0.0226227 0.312147) 1522
(-0.044343 0.0250664 0.31134) 1490
(-0.0592569 0.00510769 0.312135) 1507
(0.0536308 -0.0228348 0.300344) 683
(-0.0572365 0.0165891 0.310722) 1499
(-0.0351649 -0.0303468 0.313298) 1529
(0.0483972 -0.0111352 0.301351) 690
(0.0111194 0.0504269 0.301363) 2978
(-0.0308196 0.043174 0.312819) 3066
(-0.0361529 0.0343382 0.313178) 1482
(-0.0192187 -0.0522122 0.313426) 2243
(-0.0385002 -0.040282 0.31263) 2235
(-5.50946e-05 -0.0490933 0.312911) 2258
(-0.0289288 0.0434631 0.312874) 3066
(-0.0569232 0.00521688 0.312454) 1507
(-0.0355243 0.0462038 0.311879) 3067
(-0.0515499 -0.0092294 0.313744) 10836
(-0.0431595 -0.0355988 0.313549) 10853
(-0.0548592 0.0202792 0.313019) 1491
(0.0216508 -0.0499491 0.312363) 2275
(-0.0592985 -0.000494742 0.31145) 1507
(-0.0338475 -0.0335962 0.313856) 10851
(-0.026854 -0.0412392 0.314249) 10972
(-0.0370962 -0.0326597 0.313958) 10852
(0.0129742 -0.0474536 0.314208) 11004
(0.00883095 0.0532438 0.303054) 2978
(-0.00392521 -0.0486614 0.313732) 10995
(-0.0390682 -0.0353042 0.313452) 1530
(-0.0535046 0.00406401 0.31322) 1506
(-1.67037e-05 0.054871 0.302465) 2987
(8.30143e-05 -0.0502655 0.313516) 10996
(-0.0133787 -0.0444555 0.312884) 2249
(0.0487557 -0.00998697 0.29966) 690
(-0.0552823 0.0143856 0.311259) 1499
(-0.0457363 -0.00939895 0.31541) 10835
(-0.0271451 -0.0391605 0.315089) 10971