/*--------------------------------*- C++ -*----------------------------------*\
| =========                 |                                                 |
| \\      /  F ield         | OpenFOAM: The Open Source CFD Toolbox           |
|  \\    /   O peration     | Version:  plus.master.MPPICInterFoam            |
|   \\  /    A nd           | Web:      www.OpenFOAM.com                      |
|    \\/     M anipulation  |                                                 |
\*---------------------------------------------------------------------------*/
FoamFile
{
    version     2.0;
    format      ascii;
    class       volScalarField;
    location    "10.2";
    object      k;
}
// * * * * * * * * * * * * * * * * * * * * * * * * * * * * * * * * * * * * * //

dimensions      [0 2 -2 0 0 0 0];

internalField   nonuniform List<scalar> 
11821
(
0.000464811
0.00165479
0.00514075
0.00557535
0.00218066
0.000558995
0.00021225
0.00127484
0.00694879
0.0217039
0.0255234
0.0127036
0.00381283
0.000670794
0.00357556
0.0181412
0.0258441
0.0541119
0.019504
0.0144401
0.00283236
0.00695993
0.0294725
0.058752
0.0529768
0.0517808
0.0240734
0.00548058
0.00442794
0.0202591
0.0261678
0.0533247
0.022346
0.0177649
0.00399909
0.00145744
0.00736102
0.0216368
0.0285746
0.0143063
0.00570249
0.0011944
0.000502717
0.00170939
0.00522129
0.00626197
0.00259132
0.00093227
0.000325178
0.00100983
0.00381913
0.00985549
0.0100048
0.00340262
0.00101388
0.000646213
0.00323004
0.0138157
0.0319384
0.0406299
0.016738
0.00449502
0.000989278
0.00875723
0.0302912
0.0486284
0.0861127
0.035117
0.0145038
0.00289084
0.0153106
0.0499684
0.0922815
0.0835709
0.0917522
0.0283903
0.00577309
0.0109225
0.0343979
0.0531687
0.0858476
0.0430882
0.0209691
0.00507953
0.00403468
0.0158849
0.0365377
0.0522515
0.0238383
0.00813605
0.00174415
0.00124393
0.00459595
0.0125575
0.014723
0.00595937
0.00171328
0.00067896
0.00255307
0.00705758
0.015257
0.0166304
0.00606123
0.00215223
0.00169248
0.00708263
0.0222097
0.0455758
0.0592975
0.0252946
0.00619421
0.00199394
0.0168657
0.0473627
0.0722271
0.113324
0.0599009
0.0182551
0.00352346
0.0276072
0.0781571
0.12224
0.110146
0.136416
0.0353653
0.00629779
0.0202545
0.0534627
0.0791218
0.112798
0.0671329
0.0261021
0.00573434
0.00928841
0.0275775
0.0548556
0.0796898
0.0373623
0.0114344
0.0027196
0.00336431
0.00978419
0.0212379
0.0257003
0.0114011
0.00333434
0.00170171
0.00458592
0.00909513
0.0182232
0.0199515
0.00798226
0.00400976
0.00357974
0.0100483
0.0291916
0.0585273
0.0739899
0.0321219
0.00793849
0.00382628
0.0242914
0.0672805
0.0966246
0.126826
0.0854768
0.0219523
0.00493052
0.040514
0.117391
0.149765
0.139524
0.169867
0.0399569
0.00687537
0.0294627
0.0787192
0.109705
0.130842
0.0963931
0.0296956
0.00641695
0.0138655
0.0389006
0.0764573
0.107501
0.0485438
0.0133773
0.00430384
0.0058825
0.0139024
0.0281576
0.0333939
0.0149037
0.00512065
0.00357931
0.00534793
0.00917985
0.0177543
0.0190081
0.00806711
0.00473718
0.00431134
0.0106033
0.0315103
0.067121
0.0781516
0.0326569
0.00807375
0.00456225
0.0274184
0.0843035
0.108844
0.120991
0.100948
0.0221542
0.00544311
0.0490273
0.160356
0.164497
0.171563
0.19943
0.0404789
0.00686954
0.0344525
0.103568
0.124958
0.132217
0.127343
0.0300587
0.0064761
0.0152681
0.0455799
0.0950417
0.123089
0.0529591
0.0129949
0.00493579
0.00676956
0.0149028
0.0308265
0.0355278
0.0151003
0.00574723
0.00438762
0.000158392
0.0001568
0.00015633
0.00015197
0.000147758
0.000144139
0.000141188
0.0001388
0.000245838
0.00017632
0.000155986
0.000148172
0.000142634
0.000137814
0.000133775
0.00013033
0.000766232
0.000261473
0.00017353
0.000151393
0.000143414
0.000137546
0.000132375
0.000127868
0.00161158
0.000465576
0.000201509
0.000152044
0.000140696
0.000134185
0.000131473
0.000129814
0.00114885
0.000347761
0.000185312
0.000154635
0.000146107
0.00014063
0.000135941
0.000132044
0.000410159
0.000216572
0.000170147
0.000155377
0.000148335
0.00014382
0.000140592
0.000138017
0.00019991
0.000169843
0.000162744
0.000156017
0.000151807
0.00014899
0.000146753
0.000144593
0.000579232
0.000540006
0.000501409
0.00046675
0.000436512
0.000409896
0.000385877
0.000363361
0.000609068
0.000551148
0.000511365
0.000473884
0.000440757
0.000411904
0.000386269
0.0003625
0.000709515
0.000547438
0.000504205
0.000469091
0.000436762
0.000408153
0.000382595
0.000358895
0.00088332
0.00054515
0.000498935
0.000467308
0.000436285
0.000407834
0.000382417
0.000358179
0.000880492
0.000542306
0.000495413
0.000464452
0.000435261
0.000408609
0.000384271
0.000361227
0.000632722
0.00052405
0.000489785
0.000460022
0.000432788
0.000408261
0.000385914
0.000364594
0.000545841
0.000508724
0.000478622
0.000450274
0.000424457
0.000401516
0.000380638
0.000360736
0.00159366
0.00151049
0.00140061
0.00126906
0.00112413
0.000974162
0.000828419
0.000697016
0.00161294
0.00152686
0.00142425
0.00129552
0.00114887
0.000993495
0.000839567
0.000698894
0.00164866
0.00150574
0.00141732
0.0013001
0.00115833
0.00100286
0.00084529
0.00069924
0.00170634
0.00147326
0.00140157
0.00129617
0.00115952
0.00100513
0.00084655
0.000698863
0.0017547
0.00147384
0.0013893
0.00128055
0.0011443
0.000992379
0.000837773
0.000694931
0.00158063
0.00145344
0.00136288
0.00124659
0.00110953
0.00096242
0.00081675
0.000684953
0.00149335
0.00141775
0.00132126
0.00120089
0.00106562
0.000925373
0.000790193
0.000670289
0.00340387
0.00317482
0.00289145
0.00259632
0.00232955
0.00210971
0.00192733
0.00173925
0.00346481
0.00327055
0.00299441
0.00268106
0.00238485
0.00213844
0.0019407
0.00174653
0.00345331
0.00327619
0.0030398
0.00273513
0.00242751
0.00216444
0.00195457
0.00175396
0.00343126
0.00324273
0.00304512
0.00275621
0.00244783
0.00217715
0.00195924
0.00175247
0.00349178
0.00324467
0.00302421
0.00273065
0.00242583
0.00216043
0.00194528
0.00173784
0.00340869
0.00321162
0.00295802
0.00265699
0.00236431
0.0021156
0.00191123
0.00170725
0.00330163
0.00309712
0.00283306
0.00254864
0.00228552
0.00206402
0.00187617
0.00168036
0.0040861
0.00380574
0.00349678
0.00317688
0.00282855
0.00240697
0.00189818
0.0013958
0.00418632
0.00391779
0.00359056
0.00324816
0.00289676
0.00248908
0.00198446
0.00145895
0.00419947
0.00395811
0.0036577
0.00331537
0.00296173
0.00255833
0.00205109
0.00150494
0.00417063
0.00394479
0.00367968
0.00334717
0.00299298
0.00258833
0.0020772
0.00152075
0.00421617
0.00394086
0.00365661
0.00332184
0.00296794
0.00256104
0.00204926
0.00149823
0.00416566
0.00390662
0.00360171
0.00326833
0.00291561
0.00250073
0.00198581
0.0014489
0.00406871
0.00382362
0.00354354
0.0032414
0.00289919
0.00247076
0.0019427
0.00141439
0.000226631
0.000180613
0.000172568
0.000168592
0.000165523
0.000163025
0.000160985
0.000159364
0.000452876
0.000212561
0.000169022
0.000155336
0.000147557
0.000143608
0.000140973
0.000136241
0.00140023
0.000461255
0.00020965
0.000155259
0.000140048
0.000132161
0.00012727
0.0001212
0.00213693
0.000617878
0.000229901
0.00015316
0.000133829
0.000124576
0.000117627
0.000111574
0.00103161
0.000348916
0.000189782
0.000151554
0.000140713
0.000133755
0.000127566
0.000123148
0.000362758
0.000191366
0.00016493
0.000152619
0.000146903
0.000140622
0.000137419
0.000135345
0.000211011
0.00016743
0.000161462
0.000157553
0.0001552
0.000153442
0.000151824
0.000150088
0.000705639
0.000614036
0.000566178
0.00052215
0.000481578
0.000445387
0.000413439
0.000384882
0.00107102
0.000681298
0.000610404
0.000563989
0.000518429
0.000475072
0.000434425
0.000397793
0.00252051
0.000847446
0.000656429
0.000606988
0.000560805
0.000511259
0.000462714
0.000416714
0.00318795
0.000868515
0.00063796
0.000590929
0.000545824
0.00049726
0.000449579
0.000405508
0.00178467
0.000711032
0.000603121
0.000563788
0.000521015
0.000475974
0.000431944
0.000391218
0.000852197
0.000601962
0.000551827
0.000514083
0.000475441
0.000438476
0.000404916
0.000373858
0.000620953
0.000557659
0.000520783
0.000484836
0.000450983
0.000420494
0.000393649
0.000369578
0.00187219
0.00163788
0.00153847
0.00142226
0.00127571
0.00110725
0.000932762
0.000771049
0.00283049
0.00174093
0.00156839
0.00147298
0.00135364
0.00120247
0.00102947
0.000852952
0.00553776
0.00198189
0.00153808
0.00145465
0.00136578
0.00124134
0.0010861
0.000913765
0.00694425
0.00202158
0.0014786
0.00140279
0.00131627
0.00119173
0.00103768
0.000868606
0.00427344
0.0017824
0.00151022
0.00143387
0.00133572
0.00120148
0.00103876
0.000863045
0.00227274
0.00160828
0.00149228
0.00139842
0.00127398
0.00112067
0.000951003
0.000783066
0.00166313
0.00152812
0.0014464
0.00133663
0.00119741
0.00103972
0.00087855
0.000730413
0.00391849
0.00351745
0.00323782
0.00293159
0.00262831
0.00236096
0.00213115
0.00189781
0.00519243
0.00370964
0.00335953
0.00308315
0.00279561
0.00253438
0.00232009
0.00211639
0.00859584
0.00394181
0.00330311
0.00306366
0.00280384
0.00254867
0.00234355
0.00216823
0.0108283
0.00397205
0.00319223
0.00297877
0.00272323
0.00245279
0.002225
0.00202741
0.00692612
0.00371068
0.00327025
0.00303139
0.00275576
0.0024866
0.00226797
0.00207906
0.00436247
0.00351762
0.00324536
0.00296923
0.0026775
0.00241561
0.00220215
0.00200124
0.00360031
0.00334687
0.00309139
0.00279889
0.00251368
0.0022667
0.00205667
0.00184252
0.00481676
0.00435721
0.004024
0.00366725
0.00325857
0.00275223
0.00213228
0.00151004
0.00617752
0.00466862
0.00426849
0.00395978
0.00361269
0.00315698
0.00253461
0.00183988
0.00973207
0.005004
0.00434006
0.00409403
0.00383725
0.00347412
0.0029111
0.00222153
0.012257
0.00504677
0.00423249
0.00400403
0.00376383
0.00343958
0.00294793
0.00234353
0.00792126
0.00472305
0.00425714
0.00401859
0.0037523
0.00338925
0.00284671
0.0021934
0.00524845
0.00442148
0.00411774
0.00382816
0.00349844
0.00307166
0.00249131
0.00184278
0.00444721
0.00414434
0.00384752
0.00351839
0.00314366
0.00267829
0.00210229
0.00151713
0.000249831
0.000172697
0.000157047
0.000152528
0.000151363
0.000150397
0.000149431
0.000148311
0.000607667
0.000254172
0.000159901
0.000137551
0.000131126
0.000127941
0.000124455
0.000121677
0.00155113
0.000454226
0.000188638
0.000136799
0.00012116
0.000112314
0.000104532
9.78718e-05
0.00161632
0.000445187
0.000188794
0.000141799
0.000127067
0.000118102
0.000110185
0.000103917
0.000582464
0.000222463
0.000161428
0.000144868
0.000136486
0.000129769
0.000125107
0.000119935
0.000208932
0.000162689
0.000157132
0.000149593
0.000142922
0.00013718
0.000133964
0.000131247
0.000156755
0.000154134
0.000155872
0.000151952
0.000149238
0.000147179
0.000144455
0.000141694
0.000635633
0.000557382
0.000524693
0.000493394
0.000462739
0.000433813
0.000407016
0.000381705
0.001011
0.000607565
0.000547353
0.000509768
0.000473835
0.000440114
0.000409987
0.000383007
0.00179699
0.000659886
0.00055233
0.00050806
0.000465009
0.000423855
0.000387081
0.000354324
0.00153275
0.000629075
0.000552412
0.000509075
0.000463522
0.000418658
0.000377892
0.000341017
0.00079959
0.000596339
0.000548543
0.000504833
0.000460945
0.000420011
0.000383099
0.000348963
0.000636242
0.000575041
0.000528685
0.000485912
0.00044765
0.000414349
0.000385251
0.000358268
0.000592572
0.000549709
0.000506985
0.000469044
0.000436746
0.000409153
0.000385233
0.000363413
0.00163265
0.00149455
0.00141729
0.00131394
0.0011822
0.00103234
0.000878467
0.000736081
0.00219569
0.0015235
0.00141598
0.00133058
0.00121608
0.00107445
0.000918201
0.000764938
0.00330974
0.0015093
0.00133924
0.00126444
0.00116355
0.0010343
0.000886426
0.000735049
0.00308024
0.00144654
0.00131811
0.00123663
0.00112276
0.000983247
0.000830056
0.000677611
0.00185247
0.00149587
0.0014135
0.00131512
0.00118631
0.00103413
0.000869577
0.000708318
0.00163431
0.0015464
0.00145453
0.00133515
0.00119275
0.00103529
0.000873525
0.000721545
0.00160977
0.00153148
0.0014224
0.00128989
0.00114259
0.000989277
0.00083976
0.000704743
0.00351405
0.00326801
0.00301937
0.00273807
0.00246522
0.00222907
0.00202687
0.00181725
0.00400408
0.00331905
0.00306532
0.00280114
0.00252887
0.00228853
0.00208976
0.00189083
0.00496887
0.00321719
0.00293684
0.00270251
0.00244645
0.0022195
0.00204343
0.00187823
0.00473678
0.00308224
0.00285457
0.00262263
0.00235919
0.00212983
0.00196248
0.00181797
0.00360684
0.00318973
0.00298097
0.00271336
0.0024301
0.00218674
0.00200026
0.00182903
0.00345747
0.00327715
0.00302674
0.00273145
0.00244448
0.00220218
0.00200743
0.00181667
0.0034106
0.00318991
0.00290898
0.00261616
0.00235098
0.00213187
0.00194977
0.00176178
0.0043336
0.00403585
0.00374239
0.00341792
0.00304619
0.00258332
0.00201571
0.00144957
0.00475757
0.00411245
0.00380249
0.00348823
0.00313651
0.00270059
0.00214161
0.00155028
0.00552346
0.00405713
0.00373751
0.00346221
0.0031516
0.00276027
0.00223016
0.00163772
0.00530726
0.00392254
0.00365513
0.00339381
0.0030964
0.00272856
0.00222603
0.00165611
0.00437299
0.00395118
0.00369346
0.00339904
0.00307727
0.00268724
0.00217007
0.00159793
0.00420561
0.00396036
0.00366249
0.00334033
0.00299808
0.00258687
0.00206438
0.00151135
0.004087
0.0038117
0.0035036
0.00318561
0.00283955
0.00242028
0.0019122
0.0014066
0.000178996
0.00016165
0.000157512
0.0001525
0.000148965
0.000145655
0.000143413
0.000141224
0.000272256
0.000176244
0.000165804
0.000153334
0.000146055
0.000139436
0.000133485
0.000128537
0.000728164
0.000272899
0.00018078
0.000153874
0.000143483
0.000135292
0.000128048
0.000121068
0.00187113
0.000556186
0.000226748
0.000159231
0.000139544
0.000129384
0.000121229
0.000114098
0.00173504
0.000562028
0.000236083
0.000162101
0.0001411
0.000131575
0.000124172
0.000117965
0.000640394
0.000288984
0.000187565
0.000160753
0.000151186
0.000145932
0.000141329
0.00013668
0.00026055
0.000195328
0.000178176
0.000170408
0.000166701
0.000163967
0.000161805
0.000159816
0.000574165
0.000533776
0.000495579
0.000458365
0.000425038
0.000396295
0.000371657
0.000349893
0.000682871
0.000585291
0.000541129
0.000497673
0.000455119
0.000416558
0.000382113
0.000351343
0.00116475
0.000662449
0.000604899
0.000562146
0.000513478
0.00046437
0.000417798
0.000375001
0.00275351
0.000818786
0.000668234
0.000624344
0.000574694
0.000519914
0.000466172
0.000416483
0.00286643
0.00091693
0.000706014
0.000652537
0.000599482
0.000541432
0.000484951
0.000432951
0.00135856
0.000761956
0.000667503
0.000614009
0.000561052
0.000509368
0.000461077
0.000417964
0.000741544
0.000635452
0.000587713
0.000543367
0.000501158
0.000462569
0.000427751
0.000396115
0.00152778
0.00145992
0.00136565
0.0012439
0.0011039
0.00095546
0.000809315
0.00067722
0.00169227
0.00150658
0.00142488
0.0013209
0.00119056
0.00104072
0.000880862
0.000724647
0.00272672
0.00157363
0.001455
0.00137893
0.00127165
0.00113429
0.000974565
0.00080538
0.00598814
0.00182239
0.00145775
0.00139425
0.00130497
0.0011784
0.00102435
0.000856342
0.00573194
0.00197922
0.00153933
0.00146452
0.00137901
0.00125607
0.00110111
0.000927392
0.00308827
0.00180074
0.00160856
0.0015143
0.00139665
0.00124488
0.00106827
0.00088535
0.00189086
0.00165032
0.00155517
0.0014419
0.00129652
0.00112719
0.000949793
0.000783656
0.00335091
0.0031653
0.00290519
0.00262036
0.00235562
0.0021336
0.00194805
0.00175864
0.00352413
0.00328025
0.00306553
0.00279393
0.00251352
0.00227054
0.00207823
0.00189901
0.00462187
0.00332614
0.00311269
0.00288746
0.00260971
0.00234193
0.0021247
0.00193388
0.00856567
0.0035656
0.00308671
0.00290379
0.00265448
0.00239018
0.00216787
0.00197264
0.00819363
0.00381596
0.00324228
0.00301886
0.00276588
0.002515
0.00231259
0.00213837
0.00521392
0.00370459
0.00335533
0.00308294
0.00279843
0.00253939
0.00232687
0.00212447
0.00390812
0.0035127
0.00323681
0.00293233
0.00262951
0.00236202
0.00213198
0.00189857
0.0041583
0.00393237
0.00366165
0.00337443
0.00305024
0.00263683
0.00211047
0.00156251
0.00439638
0.0041491
0.00393108
0.00367998
0.00339747
0.00302703
0.00250641
0.00190893
0.0054402
0.00427904
0.00406065
0.00385756
0.00361479
0.0032893
0.00279938
0.0022032
0.009143
0.00456035
0.00409168
0.00390432
0.00367722
0.00336994
0.00290305
0.00232754
0.00887793
0.00482603
0.00427073
0.00405072
0.00380943
0.00346221
0.00291504
0.00223707
0.00609144
0.00464493
0.0042603
0.00396192
0.0036227
0.0031717
0.00255077
0.00185524
0.00480537
0.00435387
0.00402395
0.00366966
0.00326262
0.00275744
0.00213841
0.00151615
0.000136472
0.000127908
0.000124701
0.000126935
0.000129752
0.000136111
0.000142338
0.000341078
0.00033894
0.000335204
0.00033459
0.000337904
0.000342765
0.000340421
0.000588872
0.000583005
0.000578556
0.000577004
0.000577914
0.000578349
0.000574074
0.00147677
0.00146615
0.00145889
0.00144917
0.00143623
0.00141678
0.00141142
0.000926226
0.000925411
0.000922401
0.000918281
0.000912094
0.000904997
0.000918159
0.000157661
0.000132527
0.000114153
0.000106507
0.000117783
0.000131706
0.000147785
0.000358311
0.000364947
0.000375949
0.000366495
0.00035417
0.000345487
0.000346746
0.000638896
0.000695485
0.000747925
0.000708722
0.000698378
0.000637111
0.000609675
0.00158655
0.00182089
0.0019145
0.00175186
0.00181629
0.00171651
0.00155219
0.000928016
0.00111112
0.00141071
0.00159544
0.00142175
0.00114935
0.000960939
0.000146278
0.000120953
9.31683e-05
9.82974e-05
0.000113994
0.000129277
0.000138934
0.000356781
0.0003578
0.000324186
0.00030759
0.000317684
0.000333059
0.000342037
0.000618803
0.000633509
0.000600415
0.000544321
0.000569657
0.000594255
0.0005936
0.00152919
0.00159656
0.00161226
0.0015803
0.00156354
0.00153655
0.00149795
0.000921819
0.000950688
0.000992608
0.00101737
0.000976559
0.000944919
0.000930022
0.000138132
0.000125236
0.000114389
0.000107544
0.000112737
0.000132835
0.000157647
0.000329582
0.000323387
0.000336888
0.000373068
0.000387333
0.000379556
0.000366377
0.000569208
0.000588356
0.000647932
0.000697444
0.000758947
0.000719796
0.000646345
0.00149736
0.00164026
0.00166772
0.00169636
0.00188494
0.00182932
0.00158753
0.00102376
0.00124358
0.00147701
0.00160338
0.00142949
0.00112205
0.000932529
0.000133913
0.000126613
0.000116414
0.000105781
9.46465e-05
8.36053e-05
7.29634e-05
6.27414e-05
0.000125748
0.000120293
0.000111949
0.000101584
9.11234e-05
8.06269e-05
7.04067e-05
6.05115e-05
0.000122231
0.000117147
0.000109777
9.98078e-05
8.96129e-05
7.93934e-05
6.93857e-05
5.96378e-05
0.000124659
0.00011903
0.000111525
0.00010248
9.16088e-05
8.01185e-05
6.96179e-05
5.97813e-05
0.000127967
0.000122749
0.000114361
0.000103657
9.29029e-05
8.21849e-05
7.17604e-05
6.1664e-05
0.000134432
0.00012895
0.000119901
0.000108521
9.72395e-05
8.61006e-05
7.5244e-05
6.47356e-05
0.00013977
0.00013294
0.000123609
0.000112863
0.000101465
9.01056e-05
7.90162e-05
6.82599e-05
0.000317582
0.000278633
0.000237637
0.000200173
0.000167561
0.000139159
0.000114239
9.26425e-05
0.00031562
0.000277754
0.000236562
0.000199573
0.000166915
0.00013842
0.000113436
9.18388e-05
0.000312555
0.00027608
0.000235345
0.000198766
0.000166406
0.000138078
0.000113178
9.16122e-05
0.000312524
0.000276609
0.00023705
0.00019983
0.000166599
0.000138088
0.000113297
9.18703e-05
0.000315455
0.00027881
0.000238214
0.000201669
0.000169248
0.000140761
0.000115622
9.3761e-05
0.000320636
0.000283785
0.000242916
0.000205928
0.000173032
0.000144097
0.00011854
9.62876e-05
0.000318822
0.000282783
0.000243072
0.000206461
0.000174183
0.000145764
0.000120553
9.84574e-05
0.00050283
0.000414031
0.000327259
0.000254713
0.000197981
0.000154129
0.000120245
9.44491e-05
0.000496548
0.000409199
0.000324778
0.000253583
0.000197461
0.000153861
0.000120067
9.43178e-05
0.000492557
0.00040676
0.000323642
0.000253155
0.000197334
0.000153831
0.00012005
9.42797e-05
0.000491851
0.0004066
0.000323497
0.000253265
0.000197597
0.000154117
0.00012036
9.46297e-05
0.000496498
0.000410512
0.000325486
0.000254432
0.000198608
0.000155173
0.000121406
9.55847e-05
0.000502865
0.00041517
0.000327739
0.000255805
0.000199778
0.000156372
0.000122682
9.68994e-05
0.000502505
0.000415069
0.000326994
0.000255001
0.000199277
0.000156307
0.00012305
9.7609e-05
0.0011731
0.000735332
0.000445582
0.000296088
0.000210315
0.000155361
0.000117874
9.19574e-05
0.00116075
0.00072843
0.000442509
0.000294795
0.000209861
0.000155323
0.000118061
9.22882e-05
0.0011511
0.000723019
0.000440375
0.000294069
0.000209672
0.000155325
0.000118123
9.23587e-05
0.00114027
0.000716628
0.000437883
0.000293323
0.000209552
0.000155434
0.000118345
9.26545e-05
0.00112832
0.00071001
0.00043546
0.000292731
0.000209628
0.000155749
0.000118722
9.30135e-05
0.00111262
0.000701934
0.000432321
0.000291598
0.000209282
0.000155821
0.000119073
9.35521e-05
0.00111329
0.000703272
0.000432311
0.000290669
0.000208183
0.000154984
0.000118645
9.34614e-05
0.00087087
0.00069943
0.000451068
0.000296585
0.000203886
0.000146101
0.000109066
8.5416e-05
0.00086567
0.00069674
0.000450604
0.000296759
0.000204261
0.00014655
0.000109574
8.60025e-05
0.000859154
0.000692749
0.000448899
0.000295966
0.000203882
0.000146382
0.000109528
8.60294e-05
0.000853562
0.000689396
0.000447458
0.000295373
0.000203675
0.000146371
0.000109637
8.62166e-05
0.000848453
0.000685853
0.000445295
0.000294183
0.000203025
0.000146004
0.000109412
8.60408e-05
0.00084353
0.000680806
0.000441284
0.000291659
0.000201589
0.000145296
0.000109166
8.60358e-05
0.000855314
0.000683583
0.00043919
0.000289077
0.000199742
0.000144372
0.000108949
8.613e-05
0.000155367
0.000148166
0.000137307
0.000124395
0.000111142
9.82584e-05
8.6087e-05
7.46291e-05
0.000129439
0.000123297
0.000118448
0.000111979
0.000103318
9.34631e-05
8.29221e-05
7.23419e-05
0.000109219
0.000101655
9.5258e-05
8.88532e-05
8.21584e-05
7.53378e-05
6.85148e-05
6.11179e-05
0.000102063
9.40251e-05
8.64817e-05
7.89062e-05
7.1598e-05
6.47764e-05
5.86272e-05
5.23313e-05
0.000111959
0.000104013
9.72832e-05
9.00208e-05
8.26969e-05
7.56434e-05
6.86042e-05
6.10936e-05
0.000128545
0.000122782
0.000117898
0.000110101
0.000100642
9.06019e-05
8.01569e-05
6.95586e-05
0.000144902
0.000139138
0.000129994
0.000118395
0.000106116
9.39807e-05
8.22519e-05
7.11469e-05
0.000331387
0.000290536
0.000246884
0.000207462
0.000173791
0.000145293
0.000120881
9.98569e-05
0.000334297
0.000295115
0.000255663
0.000217883
0.000183918
0.000154084
0.000127954
0.000104921
0.000336867
0.000288364
0.000244701
0.000207028
0.00017448
0.00014633
0.000120697
9.78262e-05
0.000328622
0.000280487
0.000237582
0.000200923
0.000169813
0.000142936
0.000118547
9.7331e-05
0.000319302
0.000273974
0.000232093
0.000196187
0.000165419
0.000138482
0.000113846
9.17232e-05
0.000318312
0.00028157
0.000242006
0.000205281
0.000172831
0.000144291
0.000118774
9.62912e-05
0.000323268
0.000285695
0.00024388
0.00020551
0.000172216
0.000143607
0.000118853
9.74769e-05
0.000540941
0.000435833
0.000336254
0.000257334
0.000198448
0.00015468
0.000121886
9.72862e-05
0.000570374
0.000455793
0.000371066
0.000297358
0.000237154
0.000189719
0.000152574
0.000123579
0.000603557
0.000456719
0.000359462
0.000291316
0.000238869
0.000195699
0.000158444
0.000125686
0.000569568
0.0004262
0.000329927
0.00026238
0.00021123
0.000170583
0.000137412
0.000110275
0.000560027
0.000418789
0.000325838
0.000261683
0.000213969
0.00017558
0.00014162
0.000111211
0.000524262
0.000418895
0.000339881
0.000271484
0.000215623
0.000171361
0.00013639
0.000108938
0.000518585
0.000425181
0.000333241
0.000257594
0.000199595
0.000155559
0.000122007
9.65908e-05
0.00123455
0.000760775
0.000453174
0.000295927
0.000207956
0.000153345
0.000117151
9.25034e-05
0.00146534
0.000948293
0.000581693
0.000384256
0.000273965
0.000206192
0.000161325
0.000130468
0.00160492
0.00111711
0.000745577
0.000522469
0.000388581
0.000302121
0.000240034
0.000189809
0.00142841
0.000950933
0.000604778
0.000401204
0.000280007
0.00020384
0.000153534
0.000118883
0.00150827
0.00103077
0.000672973
0.000461874
0.000335715
0.000254457
0.000197626
0.000153476
0.0013828
0.000896432
0.000550714
0.000363639
0.000257824
0.000192171
0.000148709
0.000119049
0.00122124
0.000760922
0.000457392
0.000300654
0.000211846
0.000156015
0.000118606
9.29585e-05
0.000850071
0.000666581
0.000422428
0.000276461
0.000191052
0.000138981
0.000106078
8.48945e-05
0.00101079
0.0007976
0.00051705
0.000346965
0.000247533
0.000186978
0.000148286
0.000122459
0.00129446
0.00104902
0.000719855
0.000509526
0.00038276
0.000304344
0.000253257
0.000216399
0.00150289
0.00123057
0.000863451
0.000614025
0.000445091
0.00032196
0.000228224
0.000160823
0.00131486
0.00106977
0.000731673
0.000512946
0.000378248
0.000292317
0.000234509
0.00019207
0.00105413
0.000835962
0.000542534
0.000362227
0.000255813
0.000190638
0.000148974
0.000121313
0.000885766
0.000698999
0.000445232
0.000291449
0.000200947
0.00014548
0.000110236
8.74218e-05
0.000144376
0.000139251
0.000129541
0.000117424
0.000104719
9.24327e-05
8.07761e-05
6.9741e-05
0.000120049
0.000116587
0.000115159
0.000109603
0.000100302
8.93173e-05
7.87669e-05
6.84124e-05
8.98607e-05
8.50364e-05
8.08616e-05
7.58829e-05
7.05784e-05
6.45079e-05
5.83948e-05
5.21294e-05
9.38796e-05
8.62834e-05
7.90181e-05
7.15483e-05
6.48577e-05
5.82188e-05
5.19255e-05
4.6004e-05
0.00010971
0.000101985
9.43485e-05
8.67717e-05
7.88079e-05
7.05202e-05
6.23634e-05
5.45997e-05
0.000128122
0.000122528
0.000115464
0.000106743
9.56237e-05
8.42667e-05
7.35977e-05
6.37547e-05
0.000135753
0.000129104
0.000119993
0.000108871
9.71897e-05
8.5752e-05
7.48555e-05
6.44781e-05
0.000331068
0.000290391
0.000246181
0.000206269
0.000172264
0.000143499
0.000118839
9.7607e-05
0.000334005
0.000302589
0.000262236
0.000221957
0.000185028
0.000154027
0.000127573
0.000105059
0.000296325
0.000259887
0.000223411
0.000191675
0.000163793
0.000139618
0.000117023
9.52985e-05
0.00027637
0.000232723
0.000191307
0.000156491
0.000127469
0.000104277
8.52823e-05
6.96803e-05
0.000288321
0.000246502
0.000205619
0.000170835
0.00014161
0.00011702
9.60716e-05
7.82283e-05
0.000308785
0.000271612
0.000231753
0.000194123
0.000161773
0.00013409
0.000110765
9.07473e-05
0.00031943
0.000281351
0.000239415
0.000200944
0.000167439
0.000138624
0.000113812
9.25256e-05
0.000529065
0.000432646
0.000338061
0.000260854
0.000201943
0.000157412
0.000123598
9.80199e-05
0.000534718
0.000443475
0.000357954
0.000283323
0.000223157
0.000176175
0.000139905
0.000111975
0.000499065
0.000405142
0.000343412
0.000290152
0.000242208
0.000200662
0.00016609
0.000137819
0.000444358
0.000345757
0.000277676
0.000224958
0.000180666
0.000142981
0.000111122
8.5166e-05
0.000467876
0.000369176
0.000305832
0.000251009
0.000203914
0.000164975
0.000133133
0.000107418
0.000499458
0.000407847
0.000325913
0.000255746
0.000199558
0.00015583
0.000122171
9.66191e-05
0.000505418
0.000415911
0.000328544
0.000255263
0.000198033
0.000154035
0.000120274
9.46944e-05
0.00120037
0.000746109
0.000449506
0.000297073
0.000210309
0.000155348
0.00011825
9.271e-05
0.00126569
0.00079744
0.000483917
0.000321001
0.000228933
0.00017103
0.000131995
0.000104868
0.00129843
0.000840875
0.000519149
0.000348018
0.000253427
0.000195672
0.000157432
0.000130726
0.001297
0.000863961
0.00055549
0.000388212
0.000294238
0.000235343
0.000192338
0.000155276
0.00125844
0.00081522
0.000501851
0.000336677
0.000245624
0.000189182
0.000150048
0.00012091
0.0012224
0.000771389
0.000466289
0.000307888
0.000218378
0.000161884
0.000123612
9.70599e-05
0.00119064
0.000746023
0.000450673
0.000298269
0.000211263
0.000155846
0.000118226
9.22853e-05
0.000856334
0.000681832
0.000436937
0.000286956
0.000197684
0.000142342
0.000106939
8.41843e-05
0.000880663
0.000702832
0.000452218
0.000297981
0.000206444
0.000149994
0.000114019
9.08732e-05
0.000919369
0.000735386
0.000476339
0.000316875
0.000223137
0.000166327
0.000130932
0.000108617
0.000942359
0.000757098
0.000495785
0.00033804
0.000249893
0.000201292
0.000175024
0.000161238
0.000906909
0.000725164
0.000468076
0.000310796
0.000219047
0.000163581
0.000128705
0.000106461
0.000879969
0.00070361
0.000452124
0.00029692
0.000204766
0.000147955
0.000111788
8.86549e-05
0.000873375
0.000700158
0.000450597
0.000295914
0.00020337
0.000145845
0.000109029
8.54937e-05
0.000134885
0.000129533
0.000121938
0.000112198
0.000101396
9.03558e-05
7.94768e-05
6.88964e-05
0.000122277
0.000114908
0.000107917
0.000101091
9.30481e-05
8.39895e-05
7.45036e-05
6.48491e-05
0.000108977
0.000100528
9.33227e-05
8.65444e-05
7.96821e-05
7.25555e-05
6.52306e-05
5.77926e-05
0.00010178
9.24146e-05
8.42735e-05
7.69817e-05
7.00206e-05
6.34162e-05
5.673e-05
5.07299e-05
0.000108323
0.000101174
9.46928e-05
8.85453e-05
8.20346e-05
7.5264e-05
6.81561e-05
6.07847e-05
0.00012922
0.000122504
0.000116381
0.000110584
0.000102313
9.26442e-05
8.23695e-05
7.19602e-05
0.00015534
0.000148446
0.000137242
0.000124001
0.000110514
9.76287e-05
8.55545e-05
7.41878e-05
0.000309204
0.000276404
0.000238443
0.000202572
0.000170582
0.000142447
0.000117668
9.60806e-05
0.000296837
0.000260607
0.000224554
0.000191105
0.000160755
0.000133659
0.000109455
8.80498e-05
0.000300981
0.000254786
0.000213947
0.000179236
0.000149555
0.000123757
0.000101043
8.09351e-05
0.000331274
0.000279874
0.000235086
0.000196427
0.000163742
0.000135846
0.000111841
9.09571e-05
0.000344246
0.000292776
0.000247492
0.000208596
0.000175615
0.000146793
0.000121124
9.81147e-05
0.000343916
0.000299222
0.000258006
0.000218838
0.00018417
0.000154173
0.000128133
0.000105217
0.000336603
0.000292402
0.000246703
0.000206164
0.000172245
0.000143927
0.00011985
9.9133e-05
0.000486592
0.000406327
0.000325338
0.000255547
0.00020015
0.000157076
0.000123668
9.80097e-05
0.000482742
0.000379569
0.000313921
0.000256103
0.000205946
0.000164538
0.000131
0.000104202
0.000516885
0.000381658
0.000291624
0.000229044
0.000182204
0.000145203
0.000115024
9.02417e-05
0.000559092
0.00041633
0.000319982
0.000252376
0.000201602
0.000161658
0.000129422
0.000103235
0.000611083
0.000461191
0.000361474
0.000291973
0.000239087
0.000195749
0.00015859
0.000126418
0.000585762
0.00046215
0.000376742
0.000301781
0.000239998
0.000191195
0.000153008
0.000123294
0.000543425
0.000436105
0.000336059
0.000256892
0.000197945
0.000154247
0.00012157
9.70763e-05
0.00119751
0.000763262
0.00046772
0.000311245
0.000221375
0.000164433
0.000125931
9.91065e-05
0.00133984
0.00089258
0.000559643
0.000373361
0.00026692
0.000200614
0.000156065
0.000124445
0.00136485
0.000922866
0.000601591
0.000411296
0.000296164
0.000221553
0.000169095
0.000129453
0.00137651
0.000916797
0.000586253
0.000391043
0.000273689
0.000199043
0.000149101
0.000114427