/*--------------------------------*- C++ -*----------------------------------*\
| =========                 |                                                 |
| \\      /  F ield         | OpenFOAM: The Open Source CFD Toolbox           |
|  \\    /   O peration     | Version:  plus.master.MPPICInterFoam            |
|   \\  /    A nd           | Web:      www.OpenFOAM.com                      |
|    \\/     M anipulation  |                                                 |
\*---------------------------------------------------------------------------*/
FoamFile
{
    version     2.0;
    format      ascii;
    class       surfaceScalarField;
    location    "13.2";
    object      phi;
}
// * * * * * * * * * * * * * * * * * * * * * * * * * * * * * * * * * * * * * //

dimensions      [0 3 -1 0 0 0 0];

internalField   nonuniform List<scalar> 
34004
(
-7.13633e-09
1.70879e-08
-1.56918e-06
-3.45492e-08
-2.29376e-08
2.2457e-08
-2.0033e-06
-3.94427e-08
-4.44133e-08
2.47037e-08
-2.35747e-06
-4.17565e-08
-6.47499e-08
2.64741e-08
-2.69276e-06
-4.39385e-08
-8.35011e-08
2.7917e-08
-3.04021e-06
-4.56165e-08
-1.00285e-07
2.90846e-08
-3.4027e-06
-4.68955e-08
-1.14564e-07
3.00016e-08
-3.77933e-06
-4.78339e-08
3.07252e-08
-4.16552e-06
-4.84924e-08
-1.25336e-07
-7.72101e-09
-2.04327e-09
-1.59098e-06
-2.49222e-08
2.35053e-09
-2.0276e-06
-4.69012e-08
4.35374e-09
-2.37983e-06
-6.68849e-08
5.92766e-09
-2.71736e-06
-8.51862e-08
7.14538e-09
-3.06604e-06
-1.01389e-07
8.1842e-09
-3.42967e-06
-1.14883e-07
9.03047e-09
-3.80745e-06
9.72529e-09
-4.19504e-06
-1.2474e-07
-5.2099e-09
-2.44577e-08
-1.62594e-06
-2.50857e-08
-2.13834e-08
-2.07113e-06
-4.91891e-08
-1.92508e-08
-2.41523e-06
-7.1626e-08
-1.76975e-08
-2.7479e-06
-9.07301e-08
-1.63478e-08
-3.09365e-06
-1.07042e-07
-1.52776e-08
-3.45582e-06
-1.2011e-07
-1.44677e-08
-3.83328e-06
-1.38737e-08
-4.22142e-06
-1.29163e-07
-1.04832e-08
-4.19659e-08
-1.60082e-06
-2.79181e-08
-4.05449e-08
-2.03449e-06
-4.8816e-08
-3.93822e-08
-2.39382e-06
-6.80297e-08
-3.8547e-08
-2.7394e-06
-8.58539e-08
-3.79881e-08
-3.09231e-06
-1.01862e-07
-3.75959e-08
-3.45802e-06
-1.15334e-07
-3.73403e-08
-3.83892e-06
-3.72241e-08
-4.23058e-06
-1.25003e-07
-1.09777e-08
-5.86484e-08
-1.58624e-06
-2.80715e-08
-5.83421e-08
-2.01331e-06
-4.79491e-08
-5.81879e-08
-2.3691e-06
-6.72974e-08
-5.83636e-08
-2.71592e-06
-8.53522e-08
-5.8594e-08
-3.07346e-06
-1.01529e-07
-5.88507e-08
-3.44515e-06
-1.15037e-07
-5.91209e-08
-3.83061e-06
-5.94326e-08
-4.22579e-06
-1.2487e-07
-1.1098e-08
-7.45555e-08
-1.57451e-06
-2.83274e-08
-7.49907e-08
-1.99757e-06
-4.8467e-08
-7.56279e-08
-2.34994e-06
-6.80075e-08
-7.64974e-08
-2.69768e-06
-8.63102e-08
-7.73872e-08
-3.05612e-06
-1.02761e-07
-7.8191e-08
-3.42908e-06
-1.16571e-07
-7.88898e-08
-3.81577e-06
-7.94987e-08
-4.21197e-06
-1.26714e-07
-1.34558e-08
-1.56214e-06
-8.66561e-08
-3.26366e-08
-1.98187e-06
-8.75701e-08
-5.40138e-08
-2.33178e-06
-8.87623e-08
-7.51334e-08
-2.6784e-06
-9.02964e-08
-9.50432e-08
-3.03603e-06
-9.17959e-08
-1.12944e-07
-3.40801e-06
-9.31315e-08
-1.27879e-07
-3.79339e-06
-9.42572e-08
-4.1878e-06
-9.51854e-08
-1.38658e-07
-6.48302e-09
1.87159e-08
-1.5469e-06
-3.44942e-08
-2.21569e-08
2.20499e-08
-1.97234e-06
-3.73428e-08
-4.2183e-08
2.33501e-08
-2.3214e-06
-3.89626e-08
-6.03391e-08
2.44035e-08
-2.65856e-06
-4.04348e-08
-7.70095e-08
2.51125e-08
-3.00732e-06
-4.13169e-08
-9.19698e-08
2.55089e-08
-3.37149e-06
-4.17298e-08
-1.0479e-07
2.56304e-08
-3.75034e-06
-4.1755e-08
2.55587e-08
-4.13964e-06
-4.14916e-08
-1.14657e-07
-6.66882e-09
4.96561e-10
-1.56609e-06
-2.28027e-08
3.35601e-09
-1.99277e-06
-4.25734e-08
4.46151e-09
-2.34097e-06
-6.03759e-08
5.30842e-09
-2.68045e-06
-7.66438e-08
5.93621e-09
-3.03059e-06
-9.1111e-08
6.36358e-09
-3.39605e-06
-1.03298e-07
6.58009e-09
-3.77621e-06
6.63983e-09
-4.16699e-06
-1.12433e-07
-5.04262e-09
-2.2231e-08
-1.59774e-06
-2.38614e-08
-1.97343e-08
-2.02854e-06
-4.4771e-08
-1.78954e-08
-2.37182e-06
-6.35652e-08
-1.6673e-08
-2.7071e-06
-8.02055e-08
-1.57972e-08
-3.05526e-06
-9.46859e-08
-1.51134e-08
-3.41984e-06
-1.06567e-07
-1.47143e-08
-3.80008e-06
-1.4534e-08
-4.19166e-06
-1.15125e-07
-8.981e-09
-3.91985e-08
-1.57487e-06
-2.44619e-08
-3.7958e-08
-2.00077e-06
-4.25706e-08
-3.68782e-08
-2.35645e-06
-5.95876e-08
-3.61624e-08
-2.70349e-06
-7.43109e-08
-3.56808e-08
-3.05805e-06
-8.88792e-08
-3.54614e-08
-3.42308e-06
-1.0113e-07
-3.53417e-08
-3.80603e-06
-3.53493e-08
-4.20065e-06
-1.10239e-07
-9.29489e-09
-5.52664e-08
-1.56087e-06
-2.41383e-08
-5.48504e-08
-1.98155e-06
-4.12357e-08
-5.46027e-08
-2.33402e-06
-5.80415e-08
-5.4591e-08
-2.68067e-06
-7.38431e-08
-5.46702e-08
-3.03866e-06
-8.82167e-08
-5.47447e-08
-3.41149e-06
-1.00471e-07
-5.483e-08
-3.79888e-06
-5.49611e-08
-4.19693e-06
-1.09732e-07
-9.37823e-09
-7.06405e-08
-1.54974e-06
-2.4325e-08
-7.05821e-08
-1.96687e-06
-4.14853e-08
-7.08327e-08
-2.31654e-06
-5.85609e-08
-7.13296e-08
-2.66386e-06
-7.47229e-08
-7.1796e-08
-3.02283e-06
-8.94201e-08
-7.21461e-08
-3.39699e-06
-1.0199e-07
-7.23802e-08
-3.78566e-06
-7.25382e-08
-4.18485e-06
-1.11558e-07
-1.15743e-08
-1.53873e-06
-8.24534e-08
-2.8363e-08
-1.95313e-06
-8.252e-08
-4.69432e-08
-2.30088e-06
-8.31423e-08
-6.5495e-08
-2.6471e-06
-8.40749e-08
-8.31278e-08
-3.00529e-06
-8.49127e-08
-9.91366e-08
-3.37861e-06
-8.5542e-08
-1.12725e-07
-3.76625e-06
-8.5946e-08
-4.16404e-06
-8.61709e-08
-1.22876e-07
-6.73357e-09
1.96482e-08
-1.52605e-06
-3.37726e-08
-2.17129e-08
2.10394e-08
-1.94374e-06
-3.46703e-08
-4.00352e-08
2.14124e-08
-2.28871e-06
-3.56441e-08
-5.65412e-08
2.16845e-08
-2.62759e-06
-3.61516e-08
-7.15872e-08
2.16442e-08
-2.97774e-06
-3.61848e-08
-8.5006e-08
2.12803e-08
-3.34361e-06
-3.57487e-08
-9.64579e-08
2.06372e-08
-3.72464e-06
-3.49085e-08
1.98039e-08
-4.11686e-06
-3.37812e-08
-1.05291e-07
-6.5162e-09
2.65527e-09
-1.54259e-06
-2.13232e-08
3.97143e-09
-1.9609e-06
-3.87342e-08
4.23644e-09
-2.30639e-06
-5.49037e-08
4.36501e-09
-2.64697e-06
-6.95851e-08
4.40011e-09
-2.99867e-06
-8.26151e-08
4.22559e-09
-3.36597e-06
-9.36157e-08
3.84813e-09
-3.74842e-06
3.32107e-09
-4.14218e-06
-1.01948e-07
-5.03915e-09
-1.99528e-08
-1.57009e-06
-2.24709e-08
-1.79977e-08
-1.98879e-06
-4.07225e-08
-1.65331e-08
-2.33227e-06
-5.69187e-08
-1.57578e-08
-2.67097e-06
-7.15322e-08
-1.51761e-08
-3.02108e-06
-8.44603e-08
-1.49181e-08
-3.38778e-06
-9.52203e-08
-1.48986e-08
-3.77059e-06
-1.50777e-08
-4.16533e-06
-1.03162e-07
-7.68932e-09
-3.65802e-08
-1.55055e-06
-2.12537e-08
-3.53724e-08
-1.96983e-06
-3.77238e-08
-3.4362e-08
-2.3218e-06
-5.16532e-08
-3.36648e-08
-2.67203e-06
-6.58373e-08
-3.33544e-08
-3.02527e-06
-7.87811e-08
-3.31432e-08
-3.39191e-06
-8.97358e-08
-3.30435e-08
-3.77694e-06
-3.30817e-08
-4.17433e-06
-9.80636e-08
-7.96627e-09
-5.20298e-08
-1.53744e-06
-2.07741e-08
-5.1317e-08
-1.95279e-06
-3.59784e-08
-5.08978e-08
-2.30227e-06
-5.05449e-08
-5.06237e-08
-2.64913e-06
-6.45062e-08
-5.04292e-08
-3.00762e-06
-7.73055e-08
-5.02204e-08
-3.38163e-06
-8.83595e-08
-5.0022e-08
-3.77086e-06
-4.98823e-08
-4.17159e-06
-9.69248e-08
-8.06966e-09
-6.68172e-08
-1.52688e-06
-2.1067e-08
-6.60324e-08
-1.93916e-06
-3.58954e-08
-6.57795e-08
-2.28683e-06
-5.084e-08
-6.57901e-08
-2.63375e-06
-6.51432e-08
-6.57395e-08
-2.99324e-06
-7.82637e-08
-6.55503e-08
-3.36856e-06
-8.96246e-08
-6.52402e-08
-3.75911e-06
-6.48701e-08
-4.16105e-06
-9.84786e-08
-1.01604e-08
-1.5171e-06
-7.82823e-08
-2.49474e-08
-1.92712e-06
-7.72695e-08
-4.12033e-08
-2.27324e-06
-7.71843e-08
-5.75196e-08
-2.61918e-06
-7.74192e-08
-7.31201e-08
-2.97794e-06
-7.75203e-08
-8.73727e-08
-3.35257e-06
-7.73852e-08
-9.95975e-08
-3.7423e-06
-7.70184e-08
-4.14314e-06
-7.64918e-08
-1.08927e-07
-7.29581e-09
1.96929e-08
-1.50622e-06
-3.22298e-08
-2.15403e-08
1.94233e-08
-1.91738e-06
-3.15219e-08
-3.76943e-08
1.89886e-08
-2.25998e-06
-3.15605e-08
-5.28266e-08
1.8482e-08
-2.59973e-06
-3.12098e-08
-6.64636e-08
1.77304e-08
-2.95142e-06
-3.04297e-08
-7.85108e-08
1.66779e-08
-3.31907e-06
-2.91945e-08
-8.86977e-08
1.53576e-08
-3.70227e-06
-2.75619e-08
1.3856e-08
-4.09728e-06
-2.56514e-08
-9.6499e-08
-6.55356e-09
3.94913e-09
-1.52029e-06
-1.99768e-08
3.93634e-09
-1.93199e-06
-3.53103e-08
3.60887e-09
-2.27568e-06
-4.99384e-08
3.1656e-09
-2.61704e-06
-6.32561e-08
2.68341e-09
-2.97033e-06
-7.50193e-08
1.97235e-09
-3.33953e-06
-8.49185e-08
1.07833e-09
-3.72428e-06
4.40141e-11
-4.1209e-06
-9.24261e-08
-5.19933e-09
-1.74983e-08
-1.54345e-06
-2.0028e-08
-1.60118e-08
-1.95401e-06
-3.63459e-08
-1.50729e-08
-2.29716e-06
-5.04006e-08
-1.45845e-08
-2.63951e-06
-6.3827e-08
-1.44066e-08
-2.99058e-06
-7.55033e-08
-1.45578e-08
-3.3596e-06
-8.52457e-08
-1.48479e-08
-3.74495e-06
-1.53006e-08
-4.14273e-06
-9.25403e-08
-6.47118e-09
-3.38766e-08
-1.5277e-06
-1.80968e-08
-3.26305e-08
-1.94158e-06
-3.23679e-08
-3.17719e-08
-2.29084e-06
-4.54523e-08
-3.11716e-08
-2.64202e-06
-5.9225e-08
-3.0847e-08
-2.99481e-06
-7.04104e-08
-3.04918e-08
-3.36481e-06
-8.01127e-08
-3.03119e-08
-3.75181e-06
-3.02965e-08
-4.15187e-06
-8.76078e-08
-6.94277e-09
-4.86643e-08
-1.51571e-06
-1.81363e-08
-4.75086e-08
-1.92672e-06
-3.11774e-08
-4.67899e-08
-2.27422e-06
-4.41343e-08
-4.62667e-08
-2.62109e-06
-5.6584e-08
-4.57389e-08
-2.9803e-06
-6.79887e-08
-4.5184e-08
-3.35555e-06
-7.79085e-08
-4.46361e-08
-3.74665e-06
-4.41613e-08
-4.14994e-06
-8.57302e-08
-7.02236e-09
-6.27834e-08
-1.50574e-06
-1.83198e-08
-6.11281e-08
-1.91426e-06
-3.11921e-08
-6.02929e-08
-2.26047e-06
-4.42958e-08
-5.97517e-08
-2.60719e-06
-5.6929e-08
-5.91293e-08
-2.96724e-06
-6.85864e-08
-5.83556e-08
-3.34377e-06
-7.87637e-08
-5.7461e-08
-3.73615e-06
-5.65239e-08
-4.14066e-06
-8.68319e-08
-9.04731e-09
-1.49705e-06
-7.38003e-08
-2.2068e-08
-1.90367e-06
-7.15891e-08
-3.63087e-08
-2.24861e-06
-7.07105e-08
-5.0628e-08
-2.59446e-06
-7.01958e-08
-6.43564e-08
-2.95385e-06
-6.95312e-08
-7.69393e-08
-3.32977e-06
-6.86171e-08
-8.78002e-08
-3.72148e-06
-6.74734e-08
-4.12512e-06
-6.61896e-08
-9.62121e-08
-7.78427e-09
1.89126e-08
-1.48741e-06
-2.99335e-08
-2.09775e-08
1.72992e-08
-1.89356e-06
-2.79359e-08
-3.53306e-08
1.61375e-08
-2.2348e-06
-2.69711e-08
-4.89785e-08
1.4986e-08
-2.57524e-06
-2.58462e-08
-6.12777e-08
1.36178e-08
-2.92842e-06
-2.43423e-08
-7.20408e-08
1.19874e-08
-3.29791e-06
-2.24142e-08
-8.10356e-08
1.01153e-08
-3.68331e-06
-2.01147e-08
8.07598e-09
-4.08103e-06
-1.7556e-08
-8.78451e-08
-6.54341e-09
4.56951e-09
-1.4994e-06
-1.85948e-08
3.5529e-09
-1.9062e-06
-3.21606e-08
2.75638e-09
-2.24875e-06
-4.53207e-08
1.92361e-09
-2.59084e-06
-5.73372e-08
9.44741e-10
-2.94567e-06
-6.7901e-08
-1.98734e-10
-3.31682e-06
-7.67604e-08
-1.45897e-09
-3.70389e-06
-2.85569e-09
-4.1033e-06
-8.34774e-08
-5.08915e-09
-1.52105e-08
-1.51858e-06
-1.74747e-08
-1.41917e-08
-1.9239e-06
-3.17255e-08
-1.37084e-08
-2.26647e-06
-4.48696e-08
-1.34502e-08
-2.61084e-06
-5.69494e-08
-1.36173e-08
-2.96397e-06
-6.74621e-08
-1.39386e-08
-3.33538e-06
-7.62278e-08
-1.44008e-08
-3.72328e-06
-1.50154e-08
-4.12399e-06
-8.28492e-08
-5.4114e-09
-3.1008e-08
-1.5065e-06
-1.54886e-08
-2.96534e-08
-1.91606e-06
-2.74611e-08
-2.88363e-08
-2.26376e-06
-4.08992e-08
-2.83562e-08
-2.61359e-06
-5.25308e-08
-2.77836e-08
-2.96903e-06
-6.28479e-08
-2.73379e-08
-3.34113e-06
-7.15196e-08
-2.70326e-08
-3.73054e-06
-2.68929e-08
-4.1333e-06
-7.82506e-08
-6.0007e-09
-4.50085e-08
-1.49571e-06
-1.57255e-08
-4.33172e-08
-1.90336e-06
-2.701e-08
-4.22545e-08
-2.24954e-06
-3.85572e-08
-4.14049e-08
-2.59652e-06
-4.96125e-08
-4.05165e-08
-2.95654e-06
-5.9748e-08
-3.95757e-08
-3.33321e-06
-6.86014e-08
-3.86445e-08
-3.72621e-06
-3.77983e-08
-4.13198e-06
-7.56805e-08
-6.0886e-09
-5.83213e-08
-1.48635e-06
-1.58968e-08
-5.57389e-08
-1.89206e-06
-2.70941e-08
-5.42817e-08
-2.23728e-06
-3.85578e-08
-5.31576e-08
-2.58401e-06
-4.96529e-08
-5.19467e-08
-2.94475e-06
-5.99198e-08
-5.05803e-08
-3.32253e-06
-6.89404e-08
-4.90985e-08
-3.7167e-06
-4.75919e-08
-4.12363e-06
-7.62028e-08
-8.05697e-09
-1.47855e-06
-6.87821e-08
-1.94752e-08
-1.88268e-06
-6.53591e-08
-3.19192e-08
-2.22683e-06
-6.36563e-08
-4.44132e-08
-2.57278e-06
-6.23861e-08
-5.63819e-08
-2.9329e-06
-6.09705e-08
-6.73594e-08
-3.31011e-06
-5.93054e-08
-7.68767e-08
-3.70368e-06
-5.74204e-08
-4.10987e-06
-5.54158e-08
-8.43476e-08
-7.9885e-09
1.74132e-08
-1.46992e-06
-2.69048e-08
-2.00472e-08
1.47673e-08
-1.87248e-06
-2.38119e-08
-3.28242e-08
1.30234e-08
-2.21301e-06
-2.20634e-08
-4.49897e-08
1.13741e-08
-2.55419e-06
-2.02877e-08
-5.59521e-08
9.54556e-09
-2.90884e-06
-1.81932e-08
-6.54646e-08
7.48955e-09
-3.28019e-06
-1.5722e-08
-7.33228e-08
5.2217e-09
-3.66778e-06
-1.29176e-08
2.80358e-09
-4.0681e-06
-9.87826e-09
-7.92073e-08
-6.3818e-09
4.65607e-09
-1.48027e-06
-1.71743e-08
2.92485e-09
-1.8836e-06
-2.91796e-08
1.76976e-09
-2.22553e-06
-4.0918e-08
6.61168e-10
-2.56842e-06
-5.16544e-08
-6.29268e-10
-2.92479e-06
-6.10779e-08
-2.01315e-09
-3.29792e-06
-6.89354e-08
-3.5352e-09
-3.6873e-06
-5.17182e-09
-4.08939e-06
-7.48928e-08
-4.7708e-09
-1.30851e-08
-1.49608e-06
-1.52641e-08
-1.24359e-08
-1.89808e-06
-2.72019e-08
-1.22347e-08
-2.24056e-06
-3.99428e-08
-1.22983e-08
-2.58485e-06
-5.05754e-08
-1.24842e-08
-2.94151e-06
-5.99665e-08
-1.28726e-08
-3.31516e-06
-6.78143e-08
-1.34005e-08
-3.7056e-06
-1.40704e-08
-4.10914e-06
-7.3796e-08
-4.48064e-09
-2.79265e-08
-1.48719e-06
-1.32095e-08
-2.63914e-08
-1.89342e-06
-2.39916e-08
-2.55244e-08
-2.23974e-06
-3.57883e-08
-2.49024e-08
-2.58885e-06
-4.65786e-08
-2.4233e-08
-2.94642e-06
-5.57934e-08
-2.3623e-08
-3.32119e-06
-6.35285e-08
-2.31353e-08
-3.71309e-06
-2.28136e-08
-4.11854e-06
-6.95683e-08
-5.0892e-09
-4.09505e-08
-1.47762e-06
-1.35222e-08
-3.86589e-08
-1.88271e-06
-2.3352e-08
-3.721e-08
-2.22807e-06
-3.354e-08
-3.60034e-08
-2.57527e-06
-4.32889e-08
-3.4725e-08
-2.93634e-06
-5.22199e-08
-3.33923e-08
-3.31454e-06
-6.00474e-08
-3.20684e-08
-3.70947e-06
-3.08387e-08
-4.11761e-06
-6.64038e-08
-5.18367e-09
-5.33007e-08
-1.46884e-06
-1.36798e-08
-4.97937e-08
-1.87249e-06
-2.33886e-08
-4.77155e-08
-2.21712e-06
-3.33462e-08
-4.60148e-08
-2.56408e-06
-4.29741e-08
-4.42336e-08
-2.92565e-06
-5.18926e-08
-4.23015e-08
-3.30473e-06
-5.97799e-08
-4.02633e-08
-3.70065e-06
-3.82172e-08
-4.1098e-06
-6.62499e-08
-7.04567e-09
-1.46173e-06
-6.31087e-08
-1.69891e-08
-1.86405e-06
-5.8534e-08
-2.77803e-08
-2.20777e-06
-5.60394e-08
-3.85646e-08
-2.554e-06
-5.40467e-08
-4.88446e-08
-2.91495e-06
-5.19446e-08
-5.82629e-08
-3.29343e-06
-4.95964e-08
-6.64693e-08
-3.68872e-06
-4.70444e-08
-4.09716e-06
-4.43921e-08
-7.30257e-08
-7.88931e-09
1.5371e-08
-1.45413e-06
-2.32912e-08
-1.88182e-08
1.20086e-08
-1.85423e-06
-1.93831e-08
-3.01492e-08
9.84902e-09
-2.19454e-06
-1.70372e-08
-4.08789e-08
7.86692e-09
-2.5366e-06
-1.47682e-08
-5.04947e-08
5.74709e-09
-2.89274e-06
-1.22516e-08
-5.87598e-08
3.4366e-09
-3.26597e-06
-9.41525e-09
-6.55177e-08
9.43402e-10
-3.6557e-06
-6.28839e-09
-1.68518e-09
-4.05845e-06
-2.95139e-09
-7.05525e-08
-6.10447e-09
4.37956e-09
-1.46321e-06
-1.57515e-08
2.20627e-09
-1.86419e-06
-2.6339e-08
8.24749e-10
-2.20594e-06
-3.67022e-08
-4.50335e-10
-2.54976e-06
-4.61652e-08
-1.84325e-09
-2.90776e-06
-5.44269e-08
-3.35181e-09
-3.28289e-06
-6.12946e-08
-4.97425e-09
-3.67453e-06
-6.7029e-09
-4.07915e-06
-6.65314e-08
-4.44527e-09
-1.10428e-08
-1.47624e-06
-1.34852e-08
-1.06227e-08
-1.87624e-06
-2.39541e-08
-1.05471e-08
-2.21875e-06
-3.48237e-08
-1.06127e-08
-2.56384e-06
-4.44522e-08
-1.08905e-08
-2.92285e-06
-5.27798e-08
-1.12608e-08
-3.29894e-06
-5.97378e-08
-1.17465e-08
-3.69188e-06
-1.23696e-08
-4.09811e-06
-6.51104e-08
-3.74798e-09
-2.45533e-08
-1.46996e-06
-1.13284e-08
-2.27636e-08
-1.87375e-06
-2.066e-08
-2.17534e-08
-2.21923e-06
-3.14613e-08
-2.09915e-08
-2.56744e-06
-4.07884e-08
-2.01052e-08
-2.92801e-06
-4.89259e-08
-1.92956e-08
-3.30504e-06
-5.57668e-08
-1.8593e-08
-3.69942e-06
-1.80516e-08
-4.10745e-06
-6.11819e-08
-4.28002e-09
-3.63928e-08
-1.46154e-06
-1.15558e-08
-3.34789e-08
-1.86478e-06
-2.00564e-08
-3.16275e-08
-2.20974e-06
-2.8901e-08
-3.00407e-08
-2.55742e-06
-3.73339e-08
-2.83868e-08
-2.91965e-06
-4.50556e-08
-2.66757e-08
-3.29946e-06
-5.18679e-08
-2.49729e-08
-3.6963e-06
-2.33702e-08
-4.10665e-06
-5.75283e-08
-4.33771e-09
-4.76422e-08
-1.4533e-06
-1.16189e-08
-4.32741e-08
-1.85547e-06
-1.99252e-08
-4.062e-08
-2.19986e-06
-2.84091e-08
-3.83853e-08
-2.54729e-06
-3.65799e-08
-3.60859e-08
-2.90981e-06
-4.41515e-08
-3.36455e-08
-3.29022e-06
-5.09151e-08
-3.11102e-08
-3.68776e-06
-2.85805e-08
-4.0989e-06
-5.6623e-08
-6.00943e-09
-1.44667e-06
-5.67327e-08
-1.45291e-08
-1.84771e-06
-5.11414e-08
-2.37174e-08
-2.19129e-06
-4.79484e-08
-3.28214e-08
-2.53799e-06
-4.53199e-08
-4.1431e-08
-2.89982e-06
-4.26243e-08
-4.93067e-08
-3.27952e-06
-3.9697e-08
-5.62327e-08
-3.67633e-06
-3.6583e-08
-4.08667e-06
-3.33838e-08
-6.19296e-08
-7.60581e-09
1.29651e-08
-1.44025e-06
-1.92496e-08
-1.74119e-08
9.21204e-09
-1.83884e-06
-1.48461e-08
-2.73681e-08
6.82609e-09
-2.17936e-06
-1.20842e-08
-3.66748e-08
4.67811e-09
-2.52249e-06
-9.51055e-09
-4.49152e-08
2.43891e-09
-2.88021e-06
-6.76132e-09
-5.1912e-08
4.36994e-11
-3.25529e-06
-3.74703e-09
-5.75882e-08
-2.5164e-09
-3.64704e-06
-4.7977e-10
-5.20357e-09
-4.05197e-06
2.97831e-09
-6.18443e-08
-5.80084e-09
3.91828e-09
-1.44839e-06
-1.4391e-08
1.57488e-09
-1.848e-06
-2.36418e-08
1.12678e-10
-2.19001e-06
-3.26226e-08
-1.17771e-09
-2.53495e-06
-4.07613e-08
-2.5603e-09
-2.89463e-06
-4.78154e-08
-4.04167e-09
-3.27176e-06
-5.36777e-08
-5.6288e-09
-3.66556e-06
-7.32387e-09
-4.07248e-06
-5.82228e-08
-4.19001e-09
-8.97457e-09
-1.45918e-06
-1.20484e-08
-8.62848e-09
-1.85821e-06
-2.10944e-08
-8.55947e-09
-2.20105e-06
-3.02205e-08
-8.58038e-09
-2.54732e-06
-3.85421e-08
-8.76824e-09
-2.90833e-06
-4.57228e-08
-9.02296e-09
-3.28678e-06
-5.17457e-08
-9.37977e-09
-3.6821e-06
-9.87406e-09
-4.09079e-06
-5.65105e-08
-3.25596e-09
-2.07905e-08
-1.45491e-06
-9.86082e-09
-1.86936e-08
-1.85711e-06
-1.7956e-08
-1.74693e-08
-2.20225e-06
-2.69909e-08
-1.6473e-08
-2.55053e-06
-3.49946e-08
-1.53996e-08
-2.91339e-06
-4.201e-08
-1.4374e-08
-3.29268e-06
-4.79216e-08
-1.34374e-08
-3.68945e-06
-1.26542e-08
-4.09986e-06
-5.27358e-08
-3.59909e-09
-3.12497e-08
-1.44751e-06
-9.78784e-09
-2.77528e-08
-1.84956e-06
-1.69752e-08
-2.55169e-08
-2.19454e-06
-2.43951e-08
-2.35679e-08
-2.54292e-06
-3.14416e-08
-2.1572e-08
-2.90645e-06
-3.78955e-08
-1.95161e-08
-3.28788e-06
-4.3667e-08
-1.74679e-08
-3.68651e-06
-1.55214e-08
-4.0988e-06
-4.86524e-08
-3.56217e-09
-4.13026e-08
-1.43971e-06
-9.64191e-09
-3.6216e-08
-1.84096e-06
-1.65261e-08
-3.30767e-08
-2.18545e-06
-2.34844e-08
-3.0387e-08
-2.53354e-06
-3.014e-08
-2.76499e-08
-2.8971e-06
-3.63192e-08
-2.47835e-08
-3.27878e-06
-4.19474e-08
-2.18315e-08
-3.67779e-06
-1.88923e-08
-4.09056e-06
-4.693e-08
-4.96546e-09
-1.43337e-06
-4.96633e-08
-1.20256e-08
-1.83361e-06
-4.32869e-08
-1.95599e-08
-2.1773e-06
-3.95471e-08
-2.69211e-08
-2.52462e-06
-3.64138e-08
-3.38169e-08
-2.88735e-06
-3.32392e-08
-4.0128e-08
-3.26814e-06
-2.9863e-08
-4.5792e-08
-3.66619e-06
-2.63111e-08
-4.07798e-06
-2.26816e-08
-5.07001e-08
-7.21915e-09
1.03992e-08
-1.42852e-06
-1.49311e-08
-1.59108e-08
6.5768e-09
-1.82643e-06
-1.03442e-08
-2.45012e-08
4.16247e-09
-2.16755e-06
-7.42508e-09
-3.23493e-08
2.01077e-09
-2.51194e-06
-4.74742e-09
-3.9154e-08
-1.95455e-10
-2.87129e-06
-1.94499e-09
-4.48326e-08
-2.5348e-09
-3.24818e-06
1.07689e-09
-4.94249e-08
-5.02242e-09
-3.64176e-06
4.32818e-09
-7.63971e-09
-4.04855e-06
7.75773e-09
-5.29599e-08
-5.50891e-09
3.4804e-09
-1.43599e-06
-1.30975e-08
1.2165e-09
-1.83509e-06
-2.10367e-08
-1.66516e-10
-2.17777e-06
-2.85701e-08
-1.37442e-09
-2.52406e-06
-3.52821e-08
-2.63359e-09
-2.8855e-06
-4.10415e-08
-3.97327e-09
-3.26457e-06
-4.58462e-08
-5.42063e-09
-3.66036e-06
-6.98661e-09
-4.06927e-06
-4.9706e-08
-4.01328e-09
-6.7262e-09
-1.44498e-06
-1.0831e-08
-6.30534e-09
-1.8439e-06
-1.84315e-08
-6.1339e-09
-2.18751e-06
-2.5916e-08
-6.04318e-09
-2.53519e-06
-3.26449e-08
-6.0272e-09
-2.89823e-06
-3.85164e-08
-6.11505e-09
-3.27878e-06
-4.3515e-08
-6.29076e-09
-3.67624e-06
-6.60171e-09
-4.08703e-06
-4.76568e-08
-2.93064e-09
-1.65547e-08
-1.44217e-06
-8.61651e-09
-1.4142e-08
-1.8436e-06
-1.53996e-08
-1.26843e-08
-2.18893e-06
-2.24308e-08
-1.14311e-08
-2.53812e-06
-2.91256e-08
-1.01763e-08
-2.90245e-06
-3.47451e-08
-8.91692e-09
-3.28427e-06
-3.96322e-08
-7.7411e-09
-3.68312e-06
-6.71373e-09
-4.09553e-06
-4.38455e-08
-2.99688e-09
-2.54855e-08
-1.4356e-06
-8.09027e-09
-2.15068e-08
-1.83712e-06
-1.38927e-08
-1.89452e-08
-2.18248e-06
-1.97525e-08
-1.66853e-08
-2.53182e-06
-2.52732e-08
-1.43931e-08
-2.89672e-06
-3.03409e-08
-1.20462e-08
-3.27969e-06
-3.50101e-08
-9.70247e-09
-3.67988e-06
-7.45528e-09
-4.09374e-06
-3.93344e-08
-2.79852e-09
-3.43117e-08
-1.4281e-06
-7.60968e-09
-2.87181e-08
-1.82895e-06
-1.29637e-08
-2.52234e-08
-2.17382e-06
-1.82678e-08
-2.21887e-08
-2.52274e-06
-2.32812e-08
-1.91161e-08
-2.88737e-06
-2.7976e-08
-1.59242e-08
-3.27022e-06
-3.24352e-08
-1.26495e-08
-3.67038e-06
-9.38448e-09
-4.08433e-06
-3.67351e-08
-3.86019e-09
-1.42183e-06
-4.20012e-08
-9.34406e-09
-1.82169e-06
-3.51509e-08
-1.50857e-08
-2.16573e-06
-3.10581e-08
-2.05725e-08
-2.51375e-06
-2.75763e-08
-2.56429e-08
-2.87733e-06
-2.4071e-08
-3.03267e-08
-3.25899e-06
-2.0385e-08
-3.47319e-08
-3.65791e-06
-1.65283e-08
-4.07057e-06
-1.25882e-08
-3.89337e-08
-6.76128e-09
7.91237e-09
-1.4191e-06
-1.05897e-08
-1.43087e-08
4.31297e-09
-1.81708e-06
-6.14455e-09
-2.14786e-08
2.04838e-09
-2.15916e-06
-3.29083e-09
-2.778e-08
3.07787e-11
-2.50501e-06
-6.85652e-10
-3.30496e-08
-2.01734e-09
-2.86604e-06
2.01827e-09
-3.73338e-08
-4.18941e-09
-3.24462e-06
4.91749e-09
-4.08081e-08
-6.50864e-09
-3.6398e-06
8.02773e-09
-8.9698e-09
-4.04803e-06
1.13215e-08
-4.36589e-08
-5.22543e-09
3.28525e-09
-1.42616e-06
-1.18058e-08
1.30948e-09
-1.82554e-06
-1.83719e-08
1.19682e-10
-2.1693e-06
-2.43512e-08
-9.0418e-10
-2.51716e-06
-2.94899e-08
-1.95713e-09
-2.88044e-06
-3.38164e-08
-3.08682e-09
-3.26135e-06
-3.74793e-08
-4.32877e-09
-3.65887e-06
-5.70516e-09
-4.06935e-06
-4.06505e-08
-3.85964e-09
-4.13212e-09
-1.43372e-06
-9.65503e-09
-3.531e-09
-1.83329e-06
-1.57754e-08
-3.19268e-09
-2.1781e-06
-2.15017e-08
-2.91505e-09
-2.52747e-06
-2.65076e-08
-2.69798e-09
-2.89249e-06
-3.0841e-08
-2.55974e-09
-3.27498e-06
-3.46854e-08
-2.51959e-09
-3.6742e-06
-2.62021e-09
-4.08662e-06
-3.81706e-08
-2.66056e-09
-1.17816e-08
-1.43188e-06
-7.35131e-09
-9.09582e-09
-1.83337e-06
-1.26199e-08
-7.42399e-09
-2.17945e-06
-1.78276e-08
-5.94444e-09
-2.52989e-06
-2.261e-08
-4.47468e-09
-2.8959e-06
-2.67614e-08
-3.01495e-09
-3.27966e-06
-3.05079e-08
-1.61998e-09
-3.68026e-06
-3.6178e-10
-4.09419e-06
-3.40994e-08
-2.38763e-09
-1.91128e-08
-1.42589e-06
-6.27877e-09
-1.48117e-08
-1.82751e-06
-1.05263e-08
-1.20217e-08
-2.17364e-06
-1.46352e-08
-9.52454e-09
-2.52413e-06
-1.84185e-08
-7.00767e-09
-2.8904e-06
-2.19386e-08
-4.43531e-09
-3.27474e-06
-2.54219e-08
-1.85777e-09
-3.67614e-06
6.33957e-10
-4.09103e-06
-2.90997e-08
-1.95051e-09
-2.67678e-08
-1.4185e-06
-5.32852e-09
-2.09343e-08
-1.81944e-06
-8.95325e-09
-1.72459e-08
-2.16497e-06
-1.23959e-08
-1.39942e-08
-2.51482e-06
-1.55802e-08
-1.07124e-08
-2.88047e-06
-1.86573e-08
-7.30612e-09
-3.26426e-06
-2.18986e-08
-3.80896e-09
-3.66517e-06
-3.01881e-10
-4.07969e-06
-2.55735e-08
-2.59864e-09
-1.41207e-06
-3.39312e-08
-6.29497e-09
-1.81195e-06
-2.69731e-08
-1.00226e-08
-2.1565e-06
-2.27464e-08
-1.34297e-08
-2.50522e-06
-1.91094e-08
-1.65098e-08
-2.86953e-06
-1.54198e-08
-1.94665e-08
-3.25176e-06
-1.15721e-08
-2.26041e-08
-3.65102e-06
-7.54478e-09
-4.06385e-06
-3.40746e-09
-2.61974e-08
-6.23247e-09
5.73332e-09
-1.41216e-06
-6.45464e-09
-1.25467e-08
2.60326e-09
-1.81091e-06
-2.46019e-09
-1.81624e-08
6.32893e-10
-2.15429e-06
1.19502e-10
-2.27764e-08
-1.12765e-09
-2.50177e-06
2.51592e-09
-2.63612e-08
-2.9368e-09
-2.8645e-06
5.00313e-09
-2.91274e-08
-4.87088e-09
-3.24464e-06
7.68036e-09
-3.14278e-08
-6.96417e-09
-3.64107e-06
1.05742e-08
-9.222e-09
-4.05023e-06
1.36697e-08
-3.36294e-08
-4.91126e-09
3.53364e-09
-1.41906e-06
-1.03878e-08
1.99501e-09
-1.81946e-06
-1.54402e-08
1.08937e-09
-2.16471e-06
-1.9682e-08
3.1544e-10
-2.51436e-06
-2.30543e-08
-4.94111e-10
-2.8795e-06
-2.57774e-08
-1.37028e-09
-3.26211e-06
-2.81936e-08
-2.3772e-09
-3.66101e-06
-3.53921e-09
-4.07252e-06
-3.06701e-08
-3.64589e-09
-1.05736e-09
-1.4255e-06
-8.30398e-09
-2.26095e-10
-1.82642e-06
-1.27905e-08
3.0101e-10
-2.17283e-06
-1.66584e-08
7.89365e-10
-2.52408e-06
-1.96298e-08
1.23207e-09
-2.89143e-06
-2.22992e-08
1.58727e-09
-3.27525e-06
-2.48492e-08
1.84747e-09
-3.67585e-06
1.96021e-09
-4.0893e-06
-2.76383e-08
-2.31694e-09
-6.44344e-09
-1.42418e-06
-5.81228e-09
-3.57869e-09
-1.82652e-06
-9.35365e-09
-1.75477e-09
-2.17385e-06
-1.2541e-08
-8.80107e-11
-2.52583e-06
-1.52502e-08
1.56092e-09
-2.8935e-06
-1.76541e-08
3.19205e-09
-3.27884e-06
-2.01112e-08
4.77361e-09
-3.6807e-06
6.23424e-09
-4.09547e-06
-2.30557e-08
-1.65055e-09
-1.21999e-08
-1.41848e-06
-4.11804e-09
-7.78086e-09
-1.82084e-06
-6.5401e-09
-4.89766e-09
-2.16807e-06
-8.63371e-09
-2.25957e-09
-2.51985e-06
-1.04213e-08
3.93504e-10
-2.88742e-06
-1.21967e-08
3.11493e-09
-3.27286e-06
-1.43959e-08
5.85924e-09
-3.67499e-06
8.5466e-09
-4.09023e-06
-1.74603e-08
-8.91696e-10
-1.88378e-08
-1.41096e-06
-2.55782e-09
-1.30724e-08
-1.81247e-06
-4.15177e-09
-9.3788e-09
-2.15888e-06
-5.45644e-09
-6.0611e-09
-2.50969e-06
-6.57047e-09
-2.6979e-09
-2.87624e-06
-7.86695e-09
8.07294e-10
-3.26061e-06
-9.83789e-09
4.42851e-09
-3.66172e-06
8.09532e-09
-4.07606e-06
-1.29596e-08
-1.05678e-09
-1.40412e-06
-2.57167e-08
-2.64476e-09
-1.80436e-06
-1.9054e-08
-4.04088e-09
-2.14952e-06
-1.49323e-08
-5.10308e-09
-2.49889e-06
-1.13073e-08
-5.96912e-09
-2.86368e-06
-7.64837e-09
-7.07065e-09
-3.24605e-06
-3.76402e-09
-8.93261e-09
-3.64501e-06
3.20615e-10
-4.05716e-06
4.56201e-09
-1.2045e-08
-5.58748e-09
4.07529e-09
-1.40787e-06
-2.77551e-09
-1.05074e-08
1.60221e-09
-1.80804e-06
5.03521e-10
-1.4379e-08
2.25011e-11
-2.15308e-06
2.68734e-09
-1.70825e-08
-1.39673e-09
-2.50235e-06
4.73983e-09
-1.87718e-08
-2.90623e-09
-2.86677e-06
6.92395e-09
-1.98569e-08
-4.56722e-09
-3.24825e-06
9.32102e-09
-2.09059e-08
-6.41224e-09
-3.64551e-06
1.196e-08
-8.45539e-09
-4.05497e-06
1.48366e-08
-2.24947e-08
-4.49503e-09
4.39329e-09
-1.41486e-06
-8.6754e-09
3.37403e-09
-1.817e-06
-1.19776e-08
2.79715e-09
-2.16414e-06
-1.42235e-08
2.31413e-09
-2.51578e-06
-1.55837e-08
1.7777e-09
-2.88277e-06
-1.64954e-08
1.15349e-09
-3.26686e-06
-1.75427e-08
3.7703e-10
-3.6667e-06
-5.76158e-10
-4.07856e-06
-1.93268e-08
-3.25972e-09
2.59157e-09
-1.42043e-06
-6.53302e-09
3.6505e-09
-1.82339e-06
-9.1071e-09
4.36097e-09
-2.17179e-06
-1.08345e-08
5.04553e-09
-2.52504e-06
-1.16862e-08
5.68619e-09
-2.89444e-06
-1.24448e-08
6.24518e-09
-3.27953e-06
-1.35344e-08
6.70525e-09
-3.68103e-06
7.01493e-09
-4.09476e-06
-1.56e-08
-1.77153e-09
-5.53405e-10
-1.41926e-06
-3.76738e-09
2.3446e-09
-1.82319e-06
-5.26212e-09
4.23633e-09
-2.1722e-06
-6.13496e-09
6.01158e-09
-2.52588e-06
-6.53295e-09
7.7738e-09
-2.89515e-06
-6.92529e-09
9.5406e-09
-3.28169e-06
-7.94433e-09
1.12702e-08
-3.68419e-06
1.28993e-08
-4.09899e-06
-1.02443e-08
-6.57606e-10
-4.85307e-09
-1.41351e-06
-1.31487e-09
-5.90878e-10
-1.81721e-06
-1.58201e-09
2.24773e-09
-2.16578e-06
-1.3086e-09
4.90624e-09
-2.51898e-06
-8.01745e-10
7.59817e-09
-2.88771e-06
-6.04907e-10
1.03829e-08
-3.27384e-06
-1.4139e-09
1.32246e-08
-3.67607e-06
1.60532e-08
-4.09081e-06
-3.91245e-09
5.22716e-10
-1.07429e-08
-1.40558e-06
1.01845e-09
-5.40326e-09
-1.80811e-06
1.74945e-09
-1.89344e-09
-2.15543e-06
2.98127e-09
1.32192e-09
-2.50729e-06
4.22468e-09
4.63575e-09
-2.87447e-06
4.89868e-09
8.1259e-09
-3.25897e-06
4.26288e-09
1.17867e-08
-3.65959e-06
1.55566e-08
-4.07283e-06
1.60323e-09
9.30682e-10
-1.39806e-06
-1.77214e-08
1.87844e-09
-1.79894e-06
-1.17224e-08
3.15972e-09
-2.14465e-06
-8.007e-09
4.81591e-09
-2.49462e-06
-4.56079e-09
6.42116e-09
-2.85953e-06
-1.07102e-09
7.31653e-09
-3.24147e-06
2.70593e-09
6.74107e-09
-3.63934e-06
6.75391e-09
-4.0498e-06
1.10333e-08
3.97351e-09
-4.76031e-09
3.12577e-09
-1.40644e-06
2.29222e-10
-8.0595e-09
1.42549e-09
-1.80869e-06
2.63055e-09
-9.90181e-09
3.1775e-10
-2.15573e-06
4.26593e-09
-1.0387e-08
-7.32144e-10
-2.50695e-06
5.8999e-09
-9.89744e-09
-1.91685e-09
-2.87299e-06
7.72785e-09
-9.08478e-09
-3.292e-09
-3.25551e-06
9.81644e-09
-8.77415e-09
-4.89321e-09
-3.65306e-06
1.21958e-08
-6.739e-09
-4.06203e-06
1.48699e-08
-9.78283e-09
-3.88798e-09
5.99117e-09
-1.41378e-06
-6.48833e-09
5.50364e-09
-1.81838e-06
-7.69155e-09
5.26131e-09
-2.16779e-06
-7.59561e-09
5.07323e-09
-2.52159e-06
-6.61831e-09
4.81781e-09
-2.8904e-06
-5.45858e-09
4.40825e-09
-3.27565e-06
-4.99968e-09
3.84321e-09
-3.67582e-06
3.07676e-09
-4.08719e-06
-6.11105e-09
-2.60804e-09
6.89091e-09
-1.41867e-06
-4.15827e-09
8.09224e-09
-1.82434e-06
-4.43528e-09
8.92945e-09
-2.1751e-06
-3.541e-09
9.77742e-09
-2.53056e-06
-2.19277e-09
1.05509e-08
-2.90126e-06
-6.55719e-10
1.1292e-08
-3.28788e-06
-1.42122e-10
1.19179e-08
-3.68955e-06
1.23903e-08
-4.10263e-06
-1.50684e-09
-8.91684e-10
5.86017e-09
-1.41729e-06
-9.19452e-10
8.55809e-09
-1.82355e-06
-4.51833e-11
1.04475e-08
-2.17452e-06
1.82873e-09
1.2213e-08
-2.53012e-06
4.07104e-09
1.40253e-08
-2.90079e-06
5.94903e-09
1.58602e-08
-3.28807e-06
6.51451e-09
1.76864e-08
-3.69045e-06
1.94457e-08
-4.10429e-06
4.83336e-09
7.72446e-10
2.76995e-09
-1.41116e-06
2.34884e-09
6.54481e-09
-1.8167e-06
4.70943e-09
9.21465e-09
-2.16684e-06
7.76842e-09
1.17277e-08
-2.52149e-06
1.09351e-08
1.43578e-08
-2.89114e-06
1.33617e-08
1.71254e-08
-3.27747e-06
1.40584e-08
2.00052e-08
-3.67902e-06
2.29361e-08
-4.09223e-06
1.20659e-08
2.50829e-09
-2.76075e-09
-1.40252e-06
5.48586e-09
1.77855e-09
-1.80626e-06
9.19342e-09
4.88047e-09
-2.15474e-06
1.33108e-08
7.83489e-09
-2.50746e-06
1.726e-08
1.09696e-08
-2.87497e-06
2.01354e-08
1.43576e-08
-3.25902e-06
2.09157e-08
1.79959e-08
-3.65829e-06
2.18351e-08
-4.06937e-06
1.86258e-08
3.50879e-09
-1.39399e-06
-1.02982e-08
7.40273e-09
-1.79554e-06
-5.45528e-09
1.19282e-08
-2.14192e-06
-2.31253e-09
1.6687e-08
-2.49217e-06
6.89339e-10
2.10551e-08
-2.85681e-06
3.93861e-09
2.413e-08
-3.23763e-06
7.50176e-09
2.48744e-08
-3.63348e-06
1.14483e-08
-4.04109e-06