/*--------------------------------*- C++ -*----------------------------------*\
| =========                 |                                                 |
| \\      /  F ield         | OpenFOAM: The Open Source CFD Toolbox           |
|  \\    /   O peration     | Version:  plus.master.MPPICInterFoam            |
|   \\  /    A nd           | Web:      www.OpenFOAM.com                      |
|    \\/     M anipulation  |                                                 |
\*---------------------------------------------------------------------------*/
FoamFile
{
    version     2.0;
    format      ascii;
    class       volScalarField;
    location    "8.8";
    object      p;
}
// * * * * * * * * * * * * * * * * * * * * * * * * * * * * * * * * * * * * * //

dimensions      [1 -1 -2 0 0 0 0];

internalField   nonuniform List<scalar> 
11821
(
2331.22
2330.81
2331.18
2330.37
2331.17
2331.06
2223.03
2221.17
2221.23
2222.63
2224.86
2227.11
2228.97
2219.94
2217.13
2217.38
2219.36
2221.51
2225.02
2227.74
2218.5
2218.95
2219.54
2218.02
2219.77
2223.22
2226.78
2221.8
2219.28
2218.29
2221.74
2218.36
2222.36
2226.37
2220.53
2215.18
2214.44
2219.64
2218.36
2222.63
2226.58
2219.1
2222.22
2222.08
2217.89
2220.64
2224.34
2227.43
2222
2218.97
2219.11
2221.11
2223.54
2226.47
2228.57
2135.26
2134.36
2134.49
2135.08
2135.34
2136.06
2137.03
2137.69
2139.19
2139.49
2137.7
2135.47
2135.23
2136.23
2137.41
2137.45
2137.6
2137.72
2136.76
2134.57
2135.58
2136.15
2130.29
2133.68
2136.39
2135.57
2133.45
2135.03
2134.5
2127.77
2128.46
2134.27
2134.47
2133.36
2135.01
2135.65
2134.26
2134.91
2136.45
2134.39
2134.16
2135.52
2133.45
2131.59
2132.16
2133.83
2133.82
2134.93
2136.24
2054.2
2054.62
2054.55
2053.9
2052.39
2051.36
2050.72
2059.9
2062.48
2062.27
2059.91
2054.98
2052.21
2051.08
2064.21
2063.93
2064.33
2064.13
2058.55
2053.21
2051.4
2063.67
2058.68
2058.81
2063.58
2059.1
2053.3
2051.39
2064.37
2064.46
2064.36
2064.73
2059.38
2053.41
2051.41
2063.21
2064.49
2064.37
2063.86
2057.16
2052.8
2051.23
2056.48
2057.91
2058.03
2056.61
2053.41
2051.69
2050.84
1969.29
1970.18
1969.96
1968.53
1966.42
1964.55
1962.89
1975.56
1978.43
1978.1
1974.64
1969.4
1966.22
1964
1985.04
1988.09
1987.21
1983.61
1973.59
1967.94
1964.97
1988.58
1988.22
1987.01
1986.38
1975.55
1968.7
1965.38
1986.52
1986.79
1984.83
1984.5
1974.77
1968.45
1965.27
1979.6
1984.2
1983.76
1978.91
1971.51
1967.14
1964.59
1971.64
1973.94
1973.79
1971.18
1967.78
1965.44
1963.55
1873.6
1874.43
1874.26
1873.24
1871.95
1870.65
1869.38
1874.55
1875.97
1875.89
1874.32
1872.86
1871.68
1870.21
1877.54
1884.24
1883.74
1877.74
1874.22
1872.69
1870.95
1882.05
1891.91
1890.54
1880.5
1875.36
1873.33
1871.38
1879.44
1890.32
1890.99
1880.05
1875.35
1873.29
1871.34
1875.99
1879.86
1880.71
1876.33
1874.07
1872.52
1870.84
1874.37
1875.83
1875.84
1874.33
1872.82
1871.5
1870.07
1771.49
1771.47
1771.71
1771.88
1772.29
1772.43
1772.31
1768.98
1767.5
1768.58
1770.01
1771.38
1772.34
1772.42
1764.62
1765.87
1767.76
1767.21
1770.58
1772.34
1772.57
1764.68
1775.77
1778.96
1768.95
1770.6
1772.66
1772.79
1766.97
1775.86
1779.28
1770.5
1771.36
1772.93
1772.91
1769.49
1771.65
1772.56
1770.69
1772.24
1773
1772.88
1772.07
1771.96
1772.34
1772.53
1772.88
1773.03
1772.77
1674.62
1673.63
1673.81
1674.51
1675.32
1675.93
1676.38
1673.87
1671.91
1672.78
1673.68
1674.24
1675.35
1676.07
1672.37
1673.6
1674.53
1672.75
1673.62
1674.87
1675.83
1673.22
1672.18
1674.35
1675.5
1671.99
1674.41
1675.67
1674.95
1673.22
1672.42
1674.95
1672.3
1674.54
1675.71
1674.1
1677.04
1677.01
1673.19
1673.87
1675.12
1675.94
1674.43
1672.12
1672.32
1673.82
1674.75
1675.68
1676.23
1585.53
1585.26
1585.18
1584.96
1584.23
1583.89
1583.74
1589.4
1589.89
1589.65
1587.96
1585.03
1584.03
1583.73
1592.83
1594.63
1593.48
1591.41
1586.57
1584.24
1583.7
1594.09
1592.79
1590.55
1591.95
1584.54
1583.41
1583.41
1590.66
1586.13
1585.65
1589.6
1585.09
1583.6
1583.39
1588.99
1590.67
1590.56
1587.96
1584.73
1583.6
1583.37
1585.05
1583.42
1584.17
1584.42
1583.51
1583.35
1583.33
1493.11
1492.64
1492.88
1492.79
1492.18
1491.84
1491.58
1496.49
1496.08
1496.93
1495.5
1492.9
1492.08
1491.72
1501.35
1500.66
1499.44
1499.25
1494.2
1492.39
1491.83
1502.62
1493.62
1495.24
1500.29
1492.99
1492.08
1491.72
1500.33
1496.77
1499.01
1499.2
1494.4
1492.43
1491.78
1498.15
1499.56
1499.8
1497.14
1493.54
1492.17
1491.66
1493.7
1493.64
1494.05
1493.38
1492.17
1491.75
1491.46
1399.32
1399.09
1399.22
1399.17
1399
1398.9
1398.72
1400.83
1400.7
1400.95
1400.24
1399.1
1399.07
1398.88
1404
1404.54
1404.67
1402.9
1399.74
1399.46
1399.1
1404.94
1398.57
1402.49
1403.95
1399.93
1399.51
1399.17
1405.31
1406.51
1406.3
1404.41
1400.51
1399.69
1399.23
1403.17
1405.5
1405.56
1402.45
1400.16
1399.51
1399.1
1400.27
1400.63
1400.88
1400.25
1399.45
1399.19
1398.89
1302.73
1302.57
1302.66
1302.86
1303.59
1304.24
1304.6
1301.08
1299.97
1300.09
1301.14
1302.28
1303.78
1304.35
1299.24
1304.86
1304.37
1300.4
1301.59
1303.59
1304.24
1300.29
1310.54
1309.28
1301.58
1301.19
1303.55
1304.25
1301.11
1307.64
1307.19
1301.31
1301.82
1303.69
1304.4
1301.89
1303.84
1303.98
1301.47
1302.68
1303.99
1304.56
1302.66
1302.44
1302.63
1302.8
1303.61
1304.39
1304.76
1210.08
1209.74
1209.84
1209.97
1210.69
1211.45
1212.06
1209.77
1208.65
1209.23
1209.91
1209.85
1210.88
1211.69
1208.51
1209.76
1210.42
1209.15
1210.08
1210.62
1211.5
1208.03
1211.89
1212.12
1209.5
1210.18
1210.56
1211.46
1209.07
1212.33
1212.53
1209.57
1210.4
1210.72
1211.56
1210.01
1210.66
1210.93
1210.3
1210.32
1211.01
1211.77
1210.22
1210.19
1210.38
1210.23
1210.67
1211.52
1212.16
1123.87
1123.79
1123.78
1123.15
1122.56
1122.47
1122.61
1127.24
1128.05
1128.32
1126.52
1123.61
1122.55
1122.48
1128.39
1128.2
1127.97
1127.56
1125.34
1122.75
1122.43
1129.01
1127.72
1127.81
1127.85
1125.37
1122.7
1122.38
1127.64
1127.76
1127.95
1127.54
1125.54
1122.81
1122.45
1127.23
1127.47
1127.6
1127.4
1124.21
1122.66
1122.53
1124.25
1124.79
1125.03
1123.91
1122.7
1122.53
1122.67
1038.17
1038.54
1038.43
1037.25
1035.76
1034.98
1034.53
1043.72
1045.43
1045.43
1042.63
1038.02
1035.72
1034.84
1047.08
1047.35
1047.11
1046.18
1041.1
1036.67
1035.16
1048.23
1045.96
1043.68
1046.05
1041.87
1037.02
1035.29
1047.94
1047.95
1047.74
1047.16
1042.16
1037.14
1035.37
1045.92
1047.73
1047.71
1045.31
1039.71
1036.38
1035.18
1039.96
1041.38
1041.48
1039.38
1036.74
1035.51
1034.88
949.53
950.393
950.16
948.732
947.031
945.901
945.005
955.295
957.596
957.215
953.984
949.368
946.979
945.652
961.961
963.703
962.962
960.427
952.664
948.255
946.265
963.279
961.109
963.31
962.499
954.209
948.945
946.591
963.734
964.975
964.529
962.248
953.888
948.793
946.557
958.386
962.201
961.845
957.166
951.067
947.725
946.108
951.254
953.028
952.856
950.604
948.07
946.554
945.482
854.781
855.52
855.569
854.753
853.762
852.936
852.126
857.098
858.666
858.646
857.149
854.919
853.727
852.724
861.959
865.356
865.634
861.513
856.63
854.583
853.238
864.313
870.697
872.018
863.999
857.357
855.027
853.489
862.418
864.387
864.899
861.979
856.963
854.737
853.363
857.924
860.676
860.51
858.061
855.477
854.028
852.948
855.03
855.94
855.959
855.16
854.117
853.223
852.369
2329.72
2329.63
2330.34
2330.15
2329.98
2329.85
2329.72
2329.62
2331.01
2330.76
2330.49
2330.25
2330.06
2329.91
2329.78
2329.68
2331.14
2330.88
2330.6
2330.34
2330.14
2329.98
2329.85
2329.75
2331.07
2330.87
2330.65
2330.44
2330.26
2330.11
2329.98
2329.88
2330.76
2330.58
2330.46
2330.36
2330.27
2330.19
2330.09
2330.01
2230.33
2231.3
2232.13
2232.79
2233.28
2233.62
2233.81
2233.9
2229.68
2231.02
2232.02
2232.75
2233.26
2233.62
2233.82
2233.9
2229.13
2230.66
2231.77
2232.59
2233.18
2233.58
2233.82
2233.91
2228.89
2230.5
2231.67
2232.53
2233.15
2233.57
2233.82
2233.93
2229.01
2230.57
2231.72
2232.56
2233.17
2233.59
2233.83
2233.94
2229.47
2230.85
2231.9
2232.67
2233.23
2233.61
2233.84
2233.94
2229.98
2231
2231.91
2232.64
2233.19
2233.57
2233.79
2233.89
2137.74
2138.43
2139.07
2139.6
2140.03
2140.35
2140.56
2140.7
2137.27
2138.17
2138.91
2139.51
2139.97
2140.32
2140.56
2140.68
2136.81
2137.83
2138.67
2139.35
2139.88
2140.27
2140.53
2140.68
2136.47
2137.6
2138.52
2139.25
2139.81
2140.24
2140.52
2140.67
2136.47
2137.59
2138.51
2139.24
2139.81
2140.22
2140.51
2140.67
2136.78
2137.8
2138.65
2139.32
2139.84
2140.23
2140.51
2140.66
2137.13
2137.94
2138.7
2139.33
2139.82
2140.2
2140.47
2140.61
2050.06
2049.78
2049.61
2049.5
2049.45
2049.45
2049.47
2049.53
2050.31
2049.88
2049.61
2049.46
2049.39
2049.38
2049.41
2049.44
2050.46
2049.95
2049.63
2049.45
2049.37
2049.35
2049.38
2049.42
2050.49
2049.97
2049.65
2049.46
2049.38
2049.35
2049.38
2049.42
2050.49
2049.98
2049.66
2049.48
2049.4
2049.38
2049.41
2049.46
2050.41
2049.95
2049.68
2049.53
2049.46
2049.45
2049.49
2049.54
2050.1
2049.83
2049.67
2049.57
2049.53
2049.54
2049.59
2049.65
1961.41
1960.48
1959.72
1959.15
1958.74
1958.48
1958.34
1958.3
1962.15
1960.85
1959.89
1959.19
1958.71
1958.4
1958.24
1958.17
1962.74
1961.22
1960.1
1959.3
1958.75
1958.39
1958.2
1958.13
1963.06
1961.45
1960.26
1959.4
1958.81
1958.42
1958.22
1958.15
1963.01
1961.45
1960.29
1959.45
1958.86
1958.49
1958.29
1958.23
1962.64
1961.26
1960.23
1959.47
1958.95
1958.61
1958.43
1958.38
1961.94
1960.94
1960.14
1959.51
1959.07
1958.78
1958.64
1958.6
1868.29
1867.5
1866.88
1866.38
1866.02
1865.77
1865.62
1865.57
1868.88
1867.87
1867.07
1866.46
1866.02
1865.72
1865.54
1865.46
1869.36
1868.18
1867.26
1866.55
1866.04
1865.7
1865.5
1865.43
1869.66
1868.39
1867.4
1866.64
1866.1
1865.73
1865.52
1865.44
1869.67
1868.42
1867.44
1866.7
1866.16
1865.8
1865.59
1865.51
1869.4
1868.29
1867.41
1866.74
1866.25
1865.92
1865.73
1865.66
1868.85
1868.01
1867.31
1866.76
1866.35
1866.08
1865.92
1865.86
1772.13
1771.98
1771.86
1771.77
1771.7
1771.65
1771.63
1771.62
1772.32
1772.16
1771.99
1771.83
1771.71
1771.63
1771.58
1771.58
1772.45
1772.25
1772.04
1771.84
1771.7
1771.6
1771.55
1771.55
1772.59
1772.34
1772.09
1771.88
1771.72
1771.61
1771.56
1771.56
1772.67
1772.4
1772.14
1771.92
1771.76
1771.65
1771.6
1771.6
1772.66
1772.4
1772.16
1771.97
1771.83
1771.73
1771.68
1771.67
1772.49
1772.25
1772.09
1771.96
1771.87
1771.81
1771.77
1771.77
1676.68
1676.89
1677.09
1677.26
1677.39
1677.5
1677.61
1677.66
1676.58
1676.9
1677.12
1677.28
1677.4
1677.49
1677.57
1677.63
1676.46
1676.82
1677.06
1677.22
1677.35
1677.45
1677.53
1677.61
1676.37
1676.76
1677.01
1677.19
1677.32
1677.43
1677.52
1677.6
1676.39
1676.76
1677.01
1677.19
1677.33
1677.43
1677.53
1677.61
1676.5
1676.82
1677.05
1677.23
1677.36
1677.47
1677.55
1677.62
1676.55
1676.76
1676.99
1677.19
1677.35
1677.47
1677.56
1677.62
1583.67
1583.74
1583.84
1583.95
1584.06
1584.16
1584.31
1584.36
1583.7
1583.76
1583.85
1583.95
1584.05
1584.15
1584.24
1584.33
1583.65
1583.7
1583.78
1583.89
1583.99
1584.1
1584.21
1584.3
1583.5
1583.59
1583.71
1583.83
1583.95
1584.07
1584.19
1584.29
1583.46
1583.56
1583.69
1583.82
1583.94
1584.06
1584.18
1584.29
1583.44
1583.55
1583.69
1583.83
1583.96
1584.07
1584.19
1584.28
1583.33
1583.45
1583.61
1583.77
1583.92
1584.05
1584.17
1584.25
1491.33
1491.26
1491.24
1491.26
1491.3
1491.36
1491.48
1491.53
1491.46
1491.34
1491.29
1491.28
1491.3
1491.35
1491.43
1491.5
1491.53
1491.37
1491.29
1491.26
1491.28
1491.33
1491.4
1491.5
1491.49
1491.35
1491.27
1491.25
1491.27
1491.32
1491.4
1491.49
1491.5
1491.34
1491.27
1491.25
1491.26
1491.32
1491.4
1491.49
1491.42
1491.29
1491.25
1491.25
1491.27
1491.33
1491.41
1491.49
1491.19
1491.13
1491.14
1491.18
1491.23
1491.31
1491.39
1491.46
1398.53
1398.48
1398.48
1398.52
1398.57
1398.66
1398.76
1398.83
1398.7
1398.62
1398.58
1398.58
1398.61
1398.66
1398.75
1398.84
1398.84
1398.7
1398.62
1398.59
1398.6
1398.65
1398.74
1398.84
1398.91
1398.74
1398.64
1398.6
1398.61
1398.65
1398.74
1398.84
1398.93
1398.75
1398.65
1398.61
1398.61
1398.65
1398.74
1398.84
1398.85
1398.71
1398.63
1398.6
1398.62
1398.66
1398.74
1398.83
1398.62
1398.53
1398.51
1398.53
1398.57
1398.64
1398.72
1398.8
1304.86
1305.12
1305.38
1305.62
1305.82
1306.02
1306.18
1306.31
1304.81
1305.18
1305.46
1305.69
1305.88
1306.05
1306.21
1306.35
1304.78
1305.15
1305.43
1305.66
1305.86
1306.04
1306.21
1306.37
1304.8
1305.15
1305.43
1305.65
1305.85
1306.03
1306.21
1306.37
1304.87
1305.19
1305.45
1305.66
1305.85
1306.02
1306.2
1306.35
1304.96
1305.24
1305.48
1305.68
1305.86
1306.02
1306.18
1306.32
1304.98
1305.19
1305.41
1305.63
1305.82
1305.99
1306.14
1306.27
1212.46
1212.88
1213.27
1213.61
1213.9
1214.16
1214.4
1214.58
1212.31
1212.85
1213.29
1213.64
1213.93
1214.18
1214.42
1214.6
1212.19
1212.76
1213.21
1213.58
1213.89
1214.16
1214.41
1214.61
1212.16
1212.72
1213.18
1213.55
1213.86
1214.14
1214.4
1214.61
1212.23
1212.76
1213.2
1213.56
1213.86
1214.14
1214.39
1214.6
1212.38
1212.86
1213.26
1213.6
1213.89
1214.15
1214.38
1214.57
1212.56
1212.93
1213.29
1213.61
1213.88
1214.13
1214.35
1214.52
1122.61
1122.78
1122.94
1123.1
1123.26
1123.44
1123.64
1123.83
1122.53
1122.7
1122.88
1123.05
1123.22
1123.4
1123.6
1123.78
1122.46
1122.63
1122.81
1122.99
1123.17
1123.37
1123.58
1123.77
1122.43
1122.6
1122.79
1122.98
1123.16
1123.36
1123.58
1123.78
1122.48
1122.63
1122.81
1122.99
1123.17
1123.37
1123.59
1123.78
1122.58
1122.72
1122.89
1123.06
1123.23
1123.41
1123.62
1123.79
1122.7
1122.85
1123
1123.14
1123.29
1123.46
1123.65
1123.8
1033.98
1033.69
1033.45
1033.26
1033.16
1033.15
1033.22
1033.35
1034.11
1033.66
1033.36
1033.17
1033.07
1033.06
1033.13
1033.23
1034.24
1033.72
1033.38
1033.16
1033.05
1033.02
1033.1
1033.21
1034.35
1033.81
1033.44
1033.2
1033.07
1033.04
1033.11
1033.22
1034.41
1033.85
1033.48
1033.25
1033.11
1033.08
1033.15
1033.25
1034.38
1033.88
1033.53
1033.31
1033.19
1033.16
1033.22
1033.31
1034.28
1033.96
1033.68
1033.45
1033.32
1033.28
1033.33
1033.4
944.134
943.51
942.967
942.532
942.232
942.059
941.995
942.029
944.446
943.579
942.933
942.465
942.144
941.954
941.887
941.897
944.762
943.769
943.042
942.514
942.148
941.929
941.851
941.86
944.989
943.93
943.153
942.591
942.196
941.957
941.865
941.868
945.001
943.958
943.189
942.63
942.238
942
941.905
941.906
944.827
943.888
943.182
942.663
942.3
942.078
941.988
941.985
944.517
943.842
943.254
942.774
942.428
942.215
942.125
942.113
851.394
850.797
850.284
849.87
849.562
849.35
849.224
849.185
851.757
850.988
850.37
849.889
849.529
849.282
849.145
849.094
852.049
851.181
850.49
849.95
849.548
849.273
849.121
849.066
852.22
851.301
850.568
849.994
849.568
849.277
849.114
849.057
852.177
851.283
850.566
850.009
849.591
849.304
849.144
849.085
851.969
851.149
850.499
849.993
849.613
849.35
849.199
849.139
851.613
850.981
850.443
850.007
849.675
849.44
849.297
849.231
2225.29
2227.56
2229.24
2230.55
2231.54
2232.27
2232.77
2233.11
2222.11
2225.26
2227.73
2229.54
2230.84
2231.78
2232.43
2232.87
2220.27
2222.89
2226.27
2228.53
2230.16
2231.31
2232.11
2232.64
2220.11
2222.44
2225.86
2228.25
2229.95
2231.17
2232.01
2232.57
2220.77
2223.65
2226.65
2228.8
2230.35
2231.47
2232.24
2232.75
2222.52
2225.77
2228.1
2229.81
2231.06
2231.96
2232.58
2232.99
2226.14
2228.22
2229.71
2230.88
2231.78
2232.45
2232.93
2233.24
2133.72
2135.12
2136.42
2137.53
2138.42
2139.14
2139.74
2140.17
2134.29
2134.49
2135.75
2136.99
2138.04
2138.91
2139.63
2140.17
2134.93
2133.5
2134.91
2136.35
2137.59
2138.63
2139.49
2140.14
2136.04
2133.72
2134.97
2136.35
2137.59
2138.65
2139.53
2140.19
2136.97
2135.13
2135.96
2137.06
2138.11
2139.01
2139.79
2140.37
2135.74
2135.9
2136.83
2137.8
2138.66
2139.4
2140.03
2140.49
2135.7
2136.56
2137.49
2138.35
2139.08
2139.7
2140.21
2140.58
2052.58
2051.65
2051.27
2051.02
2050.91
2050.96
2051.17
2051.43
2056.61
2053.22
2052.02
2051.49
2051.25
2051.24
2051.46
2051.77
2059.56
2054.25
2052.46
2051.76
2051.48
2051.44
2051.68
2052.04
2059.95
2054.35
2052.52
2051.83
2051.55
2051.52
2051.76
2052.12
2058.74
2054.09
2052.54
2051.87
2051.57
2051.52
2051.72
2052.04
2054.82
2052.67
2051.84
2051.42
2051.24
2051.25
2051.46
2051.73
2052.1
2051.45
2051.15
2050.98
2050.92
2050.99
2051.19
2051.41
1967.46
1965.76
1964.45
1963.38
1962.6
1962.13
1961.97
1962.01
1971.79
1967.96
1965.9
1964.4
1963.32
1962.67
1962.44
1962.48
1976.4
1970.16
1967.27
1965.4
1964.05
1963.21
1962.86
1962.89
1977.73
1970.71
1967.63
1965.66
1964.24
1963.33
1962.95
1962.95
1975.02
1969.56
1966.95
1965.13
1963.82
1963.01
1962.67
1962.67
1969.87
1967.02
1965.21
1963.85
1962.88
1962.31
1962.09
1962.11
1966.57
1965.02
1963.77
1962.8
1962.1
1961.69
1961.55
1961.58
1872.81
1872.03
1871.09
1870.25
1869.6
1869.17
1868.97
1868.94
1873.74
1872.83
1871.77
1870.79
1870.02
1869.5
1869.25
1869.22
1874.99
1873.88
1872.69
1871.51
1870.54
1869.87
1869.53
1869.46
1875.54
1874.2
1872.95
1871.68
1870.64
1869.92
1869.54
1869.46
1874.38
1873.45
1872.3
1871.15
1870.23
1869.59
1869.27
1869.21
1873.11
1872.26
1871.2
1870.27
1869.55
1869.06
1868.83
1868.8
1872.36
1871.42
1870.45
1869.64
1869.02
1868.63
1868.44
1868.42
1773.21
1773.67
1773.59
1773.5
1773.41
1773.35
1773.35
1773.39
1771.69
1772.92
1773.22
1773.31
1773.31
1773.3
1773.33
1773.41
1770.57
1772.43
1773.05
1773.22
1773.25
1773.24
1773.28
1773.39
1769.55
1771.78
1772.7
1773
1773.09
1773.13
1773.18
1773.3
1769.55
1771.57
1772.45
1772.78
1772.93
1772.99
1773.07
1773.2
1770.8
1772.19
1772.64
1772.83
1772.9
1772.94
1773
1773.11
1772.65
1773.04
1773.09
1773.02
1772.95
1772.92
1772.95
1773.03
1675.42
1676.35
1676.85
1677.23
1677.54
1677.77
1677.96
1678.11
1674.36
1675.43
1676.31
1676.9
1677.3
1677.6
1677.86
1678.07
1673.5
1674.24
1675.62
1676.45
1676.99
1677.38
1677.71
1677.98
1673.21
1673.69
1675.27
1676.22
1676.85
1677.29
1677.64
1677.93
1673.76
1674.34
1675.61
1676.43
1676.98
1677.39
1677.72
1677.99
1674.13
1675.37
1676.27
1676.87
1677.28
1677.59
1677.86
1678.08
1675.68
1676.51
1676.97
1677.3
1677.56
1677.78
1677.98
1678.15
1583.91
1583.83
1583.86
1583.95
1584.07
1584.22
1584.38
1584.54
1585.75
1584.34
1584.06
1584.03
1584.1
1584.23
1584.43
1584.63
1587.4
1584.54
1584.12
1584.03
1584.07
1584.21
1584.44
1584.69
1588.36
1584.95
1584.3
1584.11
1584.13
1584.26
1584.49
1584.75
1588.93
1585.55
1584.7
1584.41
1584.35
1584.44
1584.63
1584.86
1585.96
1584.79
1584.47
1584.38
1584.4
1584.5
1584.68
1584.87
1584.68
1584.44
1584.33
1584.35
1584.42
1584.54
1584.7
1584.86
1492.04
1491.84
1491.7
1491.61
1491.59
1491.63
1491.73
1491.85
1494.1
1492.57
1492.11
1491.88
1491.77
1491.76
1491.86
1492.01
1496.37
1493.26
1492.51
1492.14
1491.94
1491.89
1491.99
1492.16
1496.05
1493.16
1492.49
1492.17
1491.99
1491.95
1492.05
1492.23
1496.25
1493.44
1492.7
1492.31
1492.1
1492.03
1492.12
1492.28
1493.44
1492.47
1492.17
1491.99
1491.91
1491.92
1492.03
1492.17
1492.24
1491.98
1491.82
1491.76
1491.77
1491.83
1491.95
1492.08
1399.13
1399.13
1399.01
1398.92
1398.88
1398.89
1398.95
1399.04
1400.17
1399.5
1399.28
1399.1
1398.99
1398.96
1399.02
1399.14
1401.43
1399.87
1399.57
1399.32
1399.14
1399.07
1399.11
1399.24
1401.15
1399.68
1399.52
1399.33
1399.17
1399.1
1399.14
1399.27
1400.75
1399.66
1399.49
1399.3
1399.15
1399.09
1399.14
1399.26
1399.21
1399.11
1399.07
1398.99
1398.95
1398.97
1399.05
1399.17
1399.05
1399.02
1398.9
1398.85
1398.86
1398.91
1399
1399.12
1303.47
1304.44
1304.88
1305.2
1305.46
1305.67
1305.85
1306
1302.37
1303.73
1304.5
1304.96
1305.28
1305.53
1305.75
1305.96
1301.65
1303.25
1304.23
1304.78
1305.14
1305.42
1305.68
1305.92
1300.94
1302.85
1304.13
1304.73
1305.1
1305.38
1305.64
1305.9
1301.22
1303.05
1304.2
1304.77
1305.15
1305.43
1305.69
1305.93
1302.02
1303.62
1304.44
1304.93
1305.27
1305.54
1305.77
1305.98
1303.79
1304.57
1304.95
1305.24
1305.49
1305.7
1305.9
1306.08
1210.82
1211.82
1212.42
1212.88
1213.27
1213.6
1213.89
1214.12
1210.06
1211.02
1211.87
1212.48
1212.96
1213.37
1213.73
1214.05
1210.23
1210.34
1211.37
1212.08
1212.63
1213.12
1213.56
1213.95
1210.46
1210.01
1211.13
1211.9
1212.5
1213.02
1213.49
1213.9
1210.09
1210.17
1211.3
1212.07
1212.65
1213.15
1213.6
1213.98
1209.76
1210.91
1211.85
1212.5
1213
1213.42
1213.79
1214.1
1211
1211.94
1212.53
1212.98
1213.35
1213.68
1213.98
1214.24
1122.86
1122.93
1123.04
1123.19
1123.37
1123.58
1123.83
1124.07
1124.53
1123.24
1123.04
1123.1
1123.26
1123.51
1123.83
1124.15
1126.76
1123.57
1123.08
1123
1123.14
1123.42
1123.81
1124.22
1127.68
1123.65
1123.03
1122.92
1123.07
1123.37
1123.79
1124.22
1126.9
1123.58
1123.11
1123.06
1123.2
1123.47
1123.85
1124.23
1124.31
1123.23
1123.12
1123.19
1123.35
1123.58
1123.9
1124.21
1122.97
1123.01
1123.13
1123.28
1123.45
1123.66
1123.92
1124.17
1036.64
1035.69
1035.16
1034.78
1034.53
1034.46
1034.53
1034.67
1040.28
1037.12
1035.85
1035.18
1034.81
1034.69
1034.79
1034.98
1043.78
1038.39
1036.46
1035.53
1035.07
1034.91
1035.03
1035.28
1043.64
1038.21
1036.35
1035.47
1035.04
1034.91
1035.06
1035.33
1042.68
1037.81
1036.17
1035.37
1034.97
1034.84
1034.96
1035.2
1038.76
1036.38
1035.45
1034.93
1034.66
1034.59
1034.71
1034.9
1035.92
1035.23
1034.84
1034.56
1034.39
1034.35
1034.46
1034.63
947.845
946.532
945.618
944.892
944.361
944.044
943.92
943.922
951.551
948.281
946.67
945.599
944.874
944.454
944.302
944.316
955.84
950.147
947.715
946.332
945.437
944.904
944.704
944.723
956.423
950.395
947.838
946.445
945.539
944.998
944.792
944.813
954.361
949.441
947.337
946.091
945.27
944.785
944.601
944.618
949.887
947.426
946.13
945.237
944.633
944.283
944.161
944.185
947.139
946.069
945.276
944.632
944.163
943.881
943.788
943.816
853.645
852.962
852.332
851.755
851.294
850.963
850.762
850.65
854.858
853.724
852.911
852.212
851.662
851.276
851.032
850.9
856.563
854.591
853.592
852.787
852.137
851.668
851.382
851.241
857.633
855.069
853.882
852.996
852.288
851.776
851.468
851.322
856.486
854.562
853.551
852.736
852.085
851.617
851.331
851.173
854.539
853.53
852.753
852.094
851.58
851.214
850.995
850.875
853.629
852.928
852.268
851.689
851.228
850.903
850.713
850.634
2226.25
2228.22
2229.78
2230.99
2231.92
2232.59
2233.05
2233.33
2225.21
2227.87
2229.76
2231.11
2232.08
2232.77
2233.24
2233.56
2225.23
2227.93
2229.86
2231.24
2232.22
2232.91
2233.37
2233.7
2226.18
2228.57
2230.32
2231.59
2232.5
2233.14
2233.55
2233.82
2227.63
2229.55
2230.99
2232.05
2232.82
2233.37
2233.7
2233.92
2229.09
2230.57
2231.69
2232.51
2233.13
2233.56
2233.88
2233.97
2230.42
2231.42
2232.21
2232.85
2233.33
2233.68
2233.88
2233.95
2135.74
2136.65
2137.58
2138.43
2139.15
2139.75
2140.23
2140.56
2135.27
2136.45
2137.54
2138.47
2139.22
2139.83
2140.31
2140.63
2135.29
2136.47
2137.58
2138.52
2139.28
2139.89
2140.36
2140.68
2135.8
2136.87
2137.9
2138.77
2139.47
2140.03
2140.44
2140.71
2136.34
2137.38
2138.31
2139.09
2139.7
2140.18
2140.54
2140.75
2136.99
2137.93
2138.73
2139.37
2139.89
2140.31
2140.61
2140.75
2137.8
2138.52
2139.12
2139.65
2140.07
2140.4
2140.62
2140.76
2052.04
2051.36
2050.97
2050.75
2050.66
2050.72
2050.88
2051.07
2052.37
2051.49
2050.97
2050.67
2050.52
2050.53
2050.64
2050.8
2052.32
2051.38
2050.82
2050.49
2050.32
2050.28
2050.39
2050.52
2051.99
2051.14
2050.61
2050.29
2050.12
2050.08
2050.13
2050.24
2051.24
2050.65
2050.25
2050.02
2049.89
2049.86
2049.95
2050
2050.6
2050.2
2049.92
2049.76
2049.7
2049.7
2049.73
2049.78
2050.2
2049.97
2049.77
2049.65
2049.59
2049.57
2049.61
2049.7
1966.16
1964.52
1963.23
1962.25
1961.56
1961.16
1961
1961.01
1966.85
1964.81
1963.22
1962.04
1961.24
1960.74
1960.53
1960.5
1966.63
1964.52
1962.88
1961.66
1960.81
1960.27
1960.07
1959.99
1965.71
1963.76
1962.23
1961.1
1960.31
1959.8
1959.55
1959.49
1964.25
1962.64
1961.37
1960.42
1959.79
1959.31
1959.12
1959.07
1962.82
1961.54
1960.53
1959.79
1959.3
1958.95
1958.78
1958.75
1961.67
1960.76
1959.99
1959.39
1958.97
1958.69
1958.54
1958.55
1871.86
1870.74
1869.82
1869.07
1868.51
1868.14
1867.97
1867.93
1872.48
1871.02
1869.83
1868.91
1868.23
1867.77
1867.55
1867.49
1872.29
1870.77
1869.54
1868.57
1867.84
1867.35
1867.15
1867.04
1871.48
1870.12
1868.97
1868.07
1867.39
1866.92
1866.67
1866.6
1870.48
1869.29
1868.29
1867.51
1866.96
1866.52
1866.33
1866.23
1869.44
1868.44
1867.62
1866.99
1866.54
1866.22
1866.02
1865.99
1868.55
1867.81
1867.14
1866.61
1866.22
1865.97
1865.81
1865.81
1772.38
1772.62
1772.72
1772.72
1772.71
1772.7
1772.74
1772.8
1772.42
1772.64
1772.7
1772.66
1772.58
1772.52
1772.56
1772.59
1772.43
1772.6
1772.6
1772.5
1772.39
1772.31
1772.34
1772.36
1772.43
1772.51
1772.45
1772.33
1772.21
1772.12
1772.13
1772.14
1772.49
1772.44
1772.33
1772.2
1772.08
1772
1771.97
1772
1772.4
1772.3
1772.17
1772.08
1771.94
1771.89
1771.84
1771.88
1772.31
1772.19
1772.05
1771.92
1771.83
1771.77
1771.74
1771.77
1675.74
1676.37
1676.86
1677.22
1677.5
1677.73
1677.92
1678.07
1675.34
1676.24
1676.82
1677.2
1677.46
1677.66
1677.88
1678
1675.35
1676.24
1676.8
1677.16
1677.41
1677.6
1677.77
1677.91
1675.69
1676.4
1676.87
1677.18
1677.4
1677.57
1677.72
1677.83
1676.12
1676.64
1677.01
1677.27
1677.45
1677.59
1677.71
1677.85
1676.46
1676.84
1677.11
1677.35
1677.47
1677.59
1677.68
1677.81
1676.76
1677.01
1677.19
1677.33
1677.46
1677.55
1677.74
1677.76
1584.54
1584.29
1584.23
1584.26
1584.34
1584.47
1584.62
1584.77
1584.54
1584.32
1584.25
1584.25
1584.3
1584.4
1584.54
1584.69
1584.46
1584.23
1584.16
1584.17
1584.23
1584.33
1584.47
1584.63
1584.31
1584.13
1584.09
1584.12
1584.19
1584.29
1584.41
1584.56
1584.01
1583.97
1584
1584.1
1584.16
1584.27
1584.39
1584.5
1583.81
1583.86
1583.93
1584.06
1584.13
1584.22
1584.41
1584.47
1583.76
1583.83
1583.92
1584.02
1584.12
1584.22
1584.42
1584.42
1492.19
1491.87
1491.72
1491.66
1491.67
1491.73
1491.84
1491.96
1492.22
1491.98
1491.8
1491.7
1491.65
1491.68
1491.77
1491.91
1492.29
1491.99
1491.78
1491.65
1491.6
1491.61
1491.69
1491.83
1492.21
1491.9
1491.7
1491.58
1491.54
1491.55
1491.63
1491.75
1491.87
1491.67
1491.54
1491.51
1491.46
1491.49
1491.56
1491.66
1491.59
1491.47
1491.4
1491.38
1491.39
1491.43
1491.6
1491.63
1491.43
1491.36
1491.32
1491.32
1491.36
1491.44
1491.54
1491.57
1398.98
1398.82
1398.75
1398.74
1398.76
1398.82
1398.92
1399.03
1399.09
1398.99
1398.88
1398.81
1398.79
1398.81
1398.89
1399.02
1399.15
1399
1398.87
1398.78
1398.75
1398.76
1398.84
1398.97
1399.09
1398.93
1398.8
1398.73
1398.71
1398.73
1398.8
1398.93
1398.91
1398.79
1398.7
1398.69
1398.65
1398.68
1398.76
1398.87
1398.76
1398.66
1398.61
1398.59
1398.61
1398.7
1398.81
1398.88
1398.63
1398.56
1398.54
1398.55
1398.59
1398.71
1398.79
1398.86
1303.86
1304.41
1304.86
1305.2
1305.48
1305.71
1305.92
1306.09
1303.74
1304.43
1304.91
1305.26
1305.53
1305.75
1305.95
1306.16
1303.85
1304.48
1304.93
1305.26
1305.52
1305.74
1305.95
1306.17
1304.02
1304.6
1305
1305.31
1305.56
1305.78
1305.98
1306.17
1304.36
1304.8
1305.14
1305.42
1305.63
1305.89
1306.02
1306.21
1304.67
1305.01
1305.29
1305.52
1305.72
1306.01
1306.13
1306.3
1304.91
1305.16
1305.39
1305.61
1305.8
1306.04
1306.19
1306.33
1211.22
1211.94
1212.52
1212.99
1213.39
1213.73
1214.04
1214.28
1210.89
1211.74
1212.41
1212.94
1213.37
1213.74
1214.06
1214.35
1210.88
1211.71
1212.39
1212.92
1213.36
1213.73
1214.07
1214.39
1211.13
1211.9
1212.52
1213.02
1213.43
1213.79
1214.11
1214.37
1211.57
1212.23
1212.77
1213.21
1213.58
1213.97
1214.19
1214.44
1212.03
1212.59
1213.05
1213.43
1213.75
1214.15
1214.31
1214.53
1212.44
1212.87
1213.25
1213.59
1213.89
1214.18
1214.39
1214.56
1123.13
1123.07
1123.12
1123.23
1123.39
1123.61
1123.88
1124.12
1122.96
1122.83
1122.91
1123.06
1123.26
1123.5
1123.79
1124.05
1122.84
1122.71
1122.81
1122.97
1123.18
1123.44
1123.72
1124.01
1122.63
1122.63
1122.77
1122.95
1123.16
1123.4
1123.66
1123.93
1122.46
1122.61
1122.79
1122.98
1123.18
1123.41
1123.65
1123.87
1122.46
1122.67
1122.86
1123.04
1123.22
1123.53
1123.65
1123.83
1122.57
1122.77
1122.96
1123.13
1123.33
1123.52
1123.69
1123.84
1036.12
1035.33
1034.77
1034.4
1034.2
1034.17
1034.27
1034.42
1036.24
1035.19
1034.56
1034.18
1033.98
1033.95
1034.06
1034.23
1036.07
1035.04
1034.42
1034.04
1033.84
1033.79
1033.89
1034.06
1035.5
1034.7
1034.19
1033.87
1033.68
1033.63
1033.71
1033.89
1034.77
1034.26
1033.89
1033.64
1033.5
1033.47
1033.55
1033.7
1034.28
1033.92
1033.63
1033.43
1033.34
1033.37
1033.45
1033.52
1033.97
1033.75
1033.53
1033.36
1033.32
1033.28
1033.39
1033.43
947.198
945.999
945.06
944.355
943.872
943.6
943.51
943.532
947.583
946.036
944.925
944.143
943.628
943.335
943.245
943.274
947.386
945.862
944.762
943.979
943.444
943.12
943.073
943.052
946.619
945.356
944.399
943.699
943.206
942.904
942.779
942.823
945.632
944.676
943.899
943.304
942.886
942.631
942.532
942.561
944.835
944.072
943.427
942.936
942.627
942.417
942.307
942.302
944.218
943.659
943.141
942.705
942.475
942.21
942.153
942.149
853.618
852.755
852.025
851.434
850.985
850.676
850.501
850.435
854.054
852.925
852.032
851.353
850.847
850.493
850.358
850.255
854.015
852.867
851.963
851.26
850.72
850.334
850.186
850.054
853.496
852.517
851.697
851.039
850.531
850.168
849.952
849.849
852.811
852.003
851.28
850.688
850.271
849.931
849.752
849.641
852.146
851.454
850.839
850.343
850.001
849.696
849.521
849.456
851.546
850.998
850.493
850.066
849.743
849.503
849.361
849.312
2331.22
2331.05
2330.87
2330.7
2330.55
2330.43
2330.33
2330.26
2331.39
2331.29
2331.1
2330.91
2330.75
2330.61
2330.51
2330.44
2331.41
2331.52
2331.38
2331.17
2330.98
2330.82
2330.71
2330.65
2331.06
2331.57
2331.56
2331.38
2331.18
2331.02
2330.9
2330.84
2331.67
2331.57
2331.38
2331.21
2331.09
2331.04
2331.25
2331.2
2230.11
2231.18
2232.02
2232.7
2233.21
2233.58
2233.81
2233.92
2228.57
2230.11
2231.31
2232.23
2232.9
2233.38
2233.69
2233.85
2226.81
2228.92
2230.48
2231.66
2232.51
2233.11
2233.5
2233.79
2224.82
2227.66
2229.64
2231.06
2232.09
2232.81
2233.29
2233.6
2223.43
2226.77
2229.07
2230.67
2231.78
2232.56
2233.09
2233.43
2223.54
2226.8
2228.99
2230.55
2231.67
2232.44
2232.95
2233.28
2225.39
2227.67
2229.33
2230.63
2231.63
2232.35
2232.86
2233.18
2137.11
2137.98
2138.71
2139.32
2139.81
2140.19
2140.47
2140.65
2135.96
2137.1
2138.08
2138.87
2139.5
2139.99
2140.36
2140.59
2134.9
2136.21
2137.4
2138.38
2139.16
2139.76
2140.21
2140.51
2134.06
2135.39
2136.75
2137.87
2138.77
2139.48
2140.02
2140.38
2132.64
2134.49
2136.1
2137.41
2138.43
2139.22
2139.83
2140.24
2132.53
2134.5
2136.09
2137.37
2138.36
2139.14
2139.75
2140.16
2133.91
2135.29
2136.49
2137.56
2138.44
2139.16
2139.73
2140.13
2050.21
2050.01
2049.85
2049.74
2049.69
2049.7
2049.76
2049.84
2050.68
2050.26
2049.99
2049.84
2049.78
2049.81
2049.9
2050
2051.59
2050.82
2050.37
2050.11
2049.99
2049.99
2050.09
2050.21