/*--------------------------------*- C++ -*----------------------------------*\
| =========                 |                                                 |
| \\      /  F ield         | OpenFOAM: The Open Source CFD Toolbox           |
|  \\    /   O peration     | Version:  plus.master.MPPICInterFoam            |
|   \\  /    A nd           | Web:      www.OpenFOAM.com                      |
|    \\/     M anipulation  |                                                 |
\*---------------------------------------------------------------------------*/
FoamFile
{
    version     2.0;
    format      ascii;
    class       volVectorField;
    location    "8.8";
    object      U;
}
// * * * * * * * * * * * * * * * * * * * * * * * * * * * * * * * * * * * * * //

dimensions      [0 1 -1 0 0 0 0];

internalField   nonuniform List<vector> 
11821
(
(-0.0232773 -0.00169637 0.486141)
(-0.0276732 -0.00680297 0.56986)
(-0.0198985 -0.0040046 0.456888)
(-0.0240417 -0.0147898 0.601858)
(-0.0204607 -0.00849003 0.505455)
(-0.0147801 -0.0057019 0.40951)
(-0.00142164 0.0113772 0.605777)
(-0.00657571 0.0178807 0.658539)
(-0.0128622 0.0174312 0.660144)
(-0.0156619 0.0119972 0.60768)
(-0.0145287 0.00757587 0.528848)
(-0.0115508 0.00403292 0.443306)
(-0.00842331 0.00233558 0.360295)
(0.00125462 0.0146787 0.779515)
(-0.00720917 0.021522 0.881692)
(-0.0176404 0.0192781 0.886446)
(-0.02265 0.0138732 0.785368)
(-0.020979 0.00983324 0.63979)
(-0.0160451 0.0050106 0.515401)
(-0.0111583 0.00222773 0.412063)
(-0.00215815 0.00639095 0.952036)
(-0.0136734 0.00683107 1.0311)
(-0.0158954 0.00316112 1.03193)
(-0.0206105 0.00358313 0.963439)
(-0.0253393 0.00861943 0.75936)
(-0.0199113 0.0045805 0.577593)
(-0.0135251 0.00192455 0.453179)
(-0.00272697 0.00140479 1.00184)
(-0.0159877 7.37822e-05 0.999458)
(-0.0161582 -0.00107571 1.02088)
(-0.0209723 0.000860163 1.00979)
(-0.0301186 0.00373458 0.826526)
(-0.0234534 0.00209999 0.611891)
(-0.0152552 0.000779967 0.474626)
(0.00567785 -0.00295713 0.98917)
(-0.0102812 -0.00683572 0.983707)
(-0.019359 -0.00486253 0.989124)
(-0.029135 -0.00101859 0.988438)
(-0.0314138 -0.00401055 0.804974)
(-0.0229378 -0.00196465 0.603188)
(-0.01469 -0.00110267 0.470332)
(0.000825374 -0.0136905 0.874423)
(-0.00928127 -0.0248044 0.965939)
(-0.0157889 -0.0223211 0.969983)
(-0.0215828 -0.0116295 0.894918)
(-0.0244119 -0.00966075 0.71196)
(-0.0181993 -0.00439113 0.55675)
(-0.0116644 -0.0023923 0.441801)
(0.00253311 -0.0146395 0.68774)
(-0.00471594 -0.0234895 0.766197)
(-0.015103 -0.0229928 0.774486)
(-0.0199033 -0.0145211 0.702466)
(-0.0178481 -0.00867617 0.593731)
(-0.0130843 -0.00426568 0.490547)
(-0.00825277 -0.00284397 0.396255)
(-0.0115899 -0.0127095 0.595241)
(-0.00937091 -0.0112537 0.644433)
(-0.00774879 -0.0115723 0.64519)
(-0.00380534 -0.0133826 0.593844)
(0.000597074 -0.0109979 0.517149)
(0.00256491 -0.00799805 0.435762)
(0.00308796 -0.00537684 0.356824)
(-0.0149785 -0.00737011 0.763521)
(-0.0119281 0.00113874 0.874494)
(-0.0104224 0.000100859 0.875824)
(-0.00438681 -0.00874431 0.766588)
(0.00186526 -0.00866548 0.621592)
(0.00434285 -0.00652366 0.502971)
(0.00428723 -0.00476791 0.405385)
(-0.0137422 0.000149025 0.945938)
(-0.0128979 0.011813 1.04296)
(-0.013328 0.00864384 1.03522)
(-0.0079359 -0.00232093 0.940727)
(0.000486439 -0.00261844 0.737262)
(0.00552652 -0.00279598 0.561298)
(0.00536894 -0.00269398 0.443632)
(-0.00402912 0.00238811 1.01675)
(-0.0111784 0.000254195 1.02389)
(-0.0160688 -0.00104498 0.998358)
(-0.0192464 0.00192243 1.00411)
(-0.00867569 0.00219404 0.803108)
(0.00347783 0.000453883 0.593157)
(0.00498362 -0.000456413 0.463287)
(-0.000665298 -0.00117805 0.993541)
(-0.00629631 -0.0145201 1.11114)
(-0.02047 -0.0127351 1.09455)
(-0.0227273 -0.000176104 0.995211)
(-0.00694171 0.00251892 0.782722)
(0.00378242 0.00228849 0.58466)
(0.00525299 0.00130148 0.459019)
(-0.0102062 0.000746327 0.867198)
(-0.00892869 -0.0145286 0.977594)
(-0.0145326 -0.0143862 0.978245)
(-0.0102573 0.00186133 0.882727)
(-0.000103877 0.00574194 0.689214)
(0.00474273 0.00490995 0.540582)
(0.00552153 0.00318471 0.432221)
(-0.00860828 0.00781021 0.672229)
(-0.00722 0.00168241 0.75113)
(-0.0103392 0.00108999 0.756423)
(-0.00667885 0.00984959 0.682314)
(0.000131803 0.0096022 0.576204)
(0.00357422 0.007228 0.478228)
(0.00503045 0.00438047 0.389516)
(-0.0172899 -0.0260821 0.586009)
(-0.010619 -0.029179 0.624882)
(-0.00357137 -0.0291043 0.62302)
(0.00386172 -0.0267184 0.578906)
(0.00870701 -0.0198588 0.511616)
(0.009363 -0.0135666 0.436422)
(0.0084868 -0.00894981 0.360631)
(-0.0235505 -0.0239591 0.715344)
(-0.0133981 -0.0214797 0.801587)
(-0.00367478 -0.0207808 0.799361)
(0.00729891 -0.0245199 0.709549)
(0.0143029 -0.0190667 0.59771)
(0.0142288 -0.012852 0.497467)
(0.0114478 -0.00844553 0.406737)
(-0.0248982 -0.0120338 0.906513)
(-0.0120002 -0.000921193 1.02662)
(-0.00737587 -0.00040427 1.02026)
(0.00595461 -0.0123784 0.894087)
(0.0181884 -0.0114879 0.683783)
(0.0191816 -0.00819987 0.547984)
(0.014702 -0.00575595 0.442161)
(-0.0151622 -0.00110838 1.01984)
(-0.00602456 -0.00104891 1.1413)
(-0.0128582 -0.0017203 1.11675)
(-0.0056821 -0.00186041 0.995845)
(0.0148701 -0.00187787 0.735296)
(0.0202524 -0.00172152 0.574793)
(0.0160518 -0.00173474 0.460083)
(-0.0200289 0.00512375 0.978792)
(-0.00857683 -0.00531969 1.08656)
(-0.0111044 -0.00591327 1.0801)
(2.52578e-05 0.00451492 0.958843)
(0.0172307 0.00675408 0.72014)
(0.0204736 0.00462154 0.567709)
(0.0161684 0.00241164 0.456024)
(-0.0236575 0.0172781 0.807936)
(-0.0120099 0.011554 0.94884)
(-0.00654934 0.0108594 0.947803)
(0.00606607 0.0179275 0.806701)
(0.0172345 0.0155431 0.647567)
(0.0178654 0.0102926 0.529808)
(0.014493 0.00593463 0.431039)
(-0.0181962 0.0238984 0.648786)
(-0.0103338 0.0255998 0.710508)
(-0.00335599 0.0252465 0.711454)
(0.00539964 0.0259679 0.646747)
(0.0119786 0.0196372 0.560772)
(0.0129866 0.012995 0.474344)
(0.0119137 0.00768091 0.390805)
(-0.0146509 -0.0206962 0.586432)
(-0.00953113 -0.0246085 0.617741)
(-0.00299232 -0.0242981 0.613935)
(0.00276431 -0.0202732 0.574454)
(0.00565711 -0.0142601 0.512482)
(0.00598043 -0.00971933 0.440184)
(0.00567284 -0.00637072 0.365515)
(-0.020603 -0.0228357 0.685175)
(-0.012289 -0.0252571 0.734627)
(-0.00234445 -0.0246135 0.732443)
(0.00621818 -0.0220875 0.672255)
(0.00986719 -0.0151687 0.587775)
(0.00897034 -0.00992234 0.498153)
(0.00730069 -0.00646674 0.410451)
(-0.0251986 -0.0161234 0.788403)
(-0.0129262 -0.0142083 0.931743)
(-0.00164771 -0.0133231 0.928149)
(0.00929999 -0.0145779 0.780859)
(0.0158059 -0.0109509 0.652539)
(0.0133611 -0.00733024 0.54401)
(0.00969114 -0.0049826 0.444201)
(-0.0231451 -0.00362396 0.888494)
(-0.00773486 -0.000817352 1.06839)
(-0.00500646 -6.86945e-05 1.06131)
(0.00696399 -0.00263671 0.865812)
(0.0173442 -0.00277307 0.688717)
(0.0156622 -0.00229193 0.567482)
(0.0112061 -0.00205927 0.460982)
(-0.024278 0.00914138 0.849536)
(-0.0089678 0.0058046 1.03871)
(-0.00362473 0.00503422 1.02617)
(0.00783642 0.00846838 0.840106)
(0.0173649 0.00596856 0.678116)
(0.0155283 0.00330535 0.561254)
(0.0113584 0.00126559 0.456966)
(-0.0231283 0.0181775 0.740529)
(-0.0124125 0.0183725 0.834954)
(-0.00117273 0.0170416 0.838095)
(0.00849208 0.0174548 0.729404)
(0.0141086 0.012507 0.626941)
(0.0126254 0.00749732 0.527306)
(0.0100759 0.00381077 0.43305)
(-0.0169428 0.02005 0.637605)
(-0.0100874 0.02401 0.678295)
(-0.00174408 0.0236861 0.675892)
(0.005488 0.020614 0.62832)
(0.0089981 0.0141285 0.556024)
(0.00920099 0.00884947 0.475531)
(0.00869907 0.00475715 0.39401)
(-0.00702599 -0.00383926 0.589341)
(-0.00695031 -0.00478578 0.617876)
(-0.00505349 -0.00479725 0.612141)
(-0.00334948 -0.0032241 0.573126)
(-0.00238839 -0.00243266 0.512093)
(-0.0013024 -0.00209921 0.440335)
(-0.000111216 -0.00143394 0.366303)
(-0.0103155 -0.00554046 0.686815)
(-0.0101938 -0.00918532 0.730274)
(-0.00662032 -0.00926432 0.725123)
(-0.00432315 -0.00554469 0.6677)
(-0.00388532 -0.00317474 0.586049)
(-0.00253769 -0.00260147 0.497481)
(-0.000992449 -0.00200565 0.41054)
(-0.0160266 -0.00798765 0.776031)
(-0.0140688 -0.0122601 0.862577)
(-0.0059885 -0.0116555 0.868051)
(-0.00211629 -0.00648932 0.762206)
(-0.00220638 -0.00403938 0.64754)
(-0.00233894 -0.00287865 0.541684)
(-0.000997248 -0.00220296 0.443367)
(-0.0209613 -0.00419905 0.829501)
(-0.0193155 -0.00754183 1.06119)
(-0.00409882 -0.00707439 1.03273)
(0.00171881 -0.00353002 0.831765)
(-1.86605e-05 -0.0025598 0.680521)
(-0.0012078 -0.00195298 0.563761)
(-0.000442957 -0.00175083 0.459372)
(-0.020179 0.002341 0.810826)
(-0.0187031 0.00532549 0.989195)
(-0.00387867 0.00498467 1.03184)
(0.00242743 0.00201658 0.808893)
(0.00023008 0.00043859 0.670324)
(-0.000672547 -0.000265911 0.557379)
(0.000109201 -0.000910096 0.455198)
(-0.0130923 0.0036061 0.73799)
(-0.0117659 0.00871512 0.807944)
(-0.00550956 0.00891334 0.809024)
(-0.00162291 0.00422687 0.720436)
(-0.00147121 0.0018659 0.622219)
(-0.000773386 0.000725202 0.524726)
(0.000578245 -0.000389471 0.431749)
(-0.00850054 0.00212078 0.638512)
(-0.00793751 0.00400813 0.674645)
(-0.00477266 0.00465368 0.670317)
(-0.0023199 0.0026102 0.624074)
(-0.00135007 0.00138521 0.553562)
(8.88605e-05 0.000694104 0.474013)
(0.00167803 -0.000545352 0.393224)
(-0.00103425 0.00462052 0.589741)
(-0.00386254 0.00756567 0.619152)
(-0.00572529 0.00739151 0.612201)
(-0.00657531 0.00633826 0.570418)
(-0.00622064 0.00389619 0.507489)
(-0.00445447 0.00192576 0.435509)
(-0.00250827 0.0010833 0.362727)
(-0.00145324 0.00587279 0.713141)
(-0.00683642 0.0055741 0.750745)
(-0.00964436 0.00471459 0.743102)
(-0.0113877 0.006265 0.679647)
(-0.0111398 0.00409697 0.584817)
(-0.00786617 0.00169021 0.492434)
(-0.0045913 0.000532759 0.405872)
(-0.00597215 -0.000685165 0.820807)
(-0.0123341 -0.00763485 0.892108)
(-0.0110559 -0.00833313 0.888882)
(-0.0113595 -0.000594642 0.773316)
(-0.0139485 0.00112623 0.652179)
(-0.010372 0.000276184 0.53676)
(-0.00601775 -0.000312261 0.43788)
(-0.0153375 -0.0047022 0.878798)
(-0.0198876 -0.0102587 0.951553)
(-0.0081445 -0.0125551 0.970806)
(-0.00562401 -0.00476345 0.840314)
(-0.0130585 -0.00190599 0.683463)
(-0.0109262 -0.00129272 0.558497)
(-0.006397 -0.00127765 0.453377)
(-0.0134544 -0.00394623 0.869276)
(-0.0180378 -0.00126856 0.92875)
(-0.00738971 -0.00170786 0.907243)
(-0.00460153 -0.00392457 0.816997)
(-0.0121642 -0.00358805 0.671776)
(-0.00993041 -0.00245135 0.551823)
(-0.00564753 -0.00212354 0.449064)
(-0.00489321 -0.00639345 0.762118)
(-0.00984199 -0.00244015 0.83407)
(-0.00830663 -0.000693557 0.823594)
(-0.00868738 -0.00578612 0.728059)
(-0.0107271 -0.00529522 0.621927)
(-0.00765701 -0.0034045 0.518878)
(-0.0039914 -0.00279192 0.425891)
(-0.00108371 -0.0078241 0.641774)
(-0.00452962 -0.00996631 0.678333)
(-0.00644339 -0.00911865 0.672241)
(-0.00745519 -0.0086352 0.623827)
(-0.00701498 -0.00597988 0.548743)
(-0.00439961 -0.00385937 0.467804)
(-0.0016057 -0.0033903 0.387997)
(-0.000479177 -0.000805672 0.58413)
(-0.00168733 0.00347808 0.615629)
(-0.00349604 0.00379731 0.608259)
(-0.0037873 0.00231989 0.563892)
(-0.00280499 0.00130065 0.500303)
(-0.00139004 0.000391122 0.429487)
(-0.000144204 5.72874e-05 0.358913)
(-0.000248907 0.00132619 0.721296)
(-0.0030514 0.0065585 0.788824)
(-0.00731599 0.00606347 0.775867)
(-0.00795364 0.00412272 0.687128)
(-0.00616664 0.00241868 0.579993)
(-0.00362142 0.000765415 0.485127)
(-0.00149817 -7.41761e-05 0.400414)
(-0.00479991 -0.00196188 0.875041)
(-0.00877361 0.000637584 0.953518)
(-0.00794224 -0.000464927 0.936428)
(-0.00789174 -0.000553071 0.826621)
(-0.00909862 0.00235589 0.655075)
(-0.00557674 0.000758305 0.52885)
(-0.00259023 -0.00020797 0.431176)
(-0.00467762 -0.00311014 0.938354)
(-0.0116164 -0.00302074 0.969255)
(-0.0100595 -0.00234623 0.957982)
(-0.011518 -0.00201986 0.882993)
(-0.0130537 0.000229073 0.692484)
(-0.00788158 -0.000325812 0.550311)
(-0.00360233 -0.00088299 0.445952)
(-0.00200368 -0.00199484 0.901855)
(-0.00708372 -0.00380054 0.927253)
(-0.0087572 -0.00310867 0.914841)
(-0.0121759 -0.00247692 0.857487)
(-0.0119222 -0.00332335 0.678388)
(-0.00700469 -0.00213507 0.543492)
(-0.00295084 -0.0018964 0.441576)
(-0.00250108 -0.00388956 0.793581)
(-0.00491844 -0.0106278 0.865238)
(-0.00627608 -0.0108756 0.854036)
(-0.00768352 -0.00620087 0.755588)
(-0.00746689 -0.00499954 0.619806)
(-0.0042068 -0.00295624 0.510513)
(-0.00126927 -0.00241472 0.41893)
(0.00162775 -0.00412127 0.640373)
(-0.000658872 -0.0107361 0.685518)
(-0.00494945 -0.0107557 0.680334)
(-0.00612462 -0.00671027 0.621588)
(-0.00429284 -0.00434239 0.540984)
(-0.00168643 -0.00280835 0.459762)
(0.000592683 -0.00267286 0.382083)
(-0.00247401 -0.00855972 0.578062)
(-0.00112391 -0.00625272 0.607915)
(-0.000815409 -0.00558145 0.600395)
(0.000555775 -0.00559922 0.55717)
(0.00215598 -0.0038489 0.495078)
(0.00274191 -0.00279607 0.426447)
(0.00296955 -0.00200741 0.358054)
(-0.00389503 -0.00713233 0.710848)
(-0.0017103 -0.000467584 0.776124)
(-0.00226648 -0.000150942 0.764708)
(-0.000256265 -0.00414089 0.676499)
(0.00203479 -0.00283106 0.571924)
(0.00271589 -0.00230742 0.48002)
(0.00292452 -0.0019608 0.398067)
(-0.00759843 -0.00447215 0.874327)
(-0.00410594 0.00368906 0.944723)
(-0.00238242 0.00491813 0.926802)
(0.000290132 -0.00154658 0.813879)
(0.00199383 0.000144743 0.64476)
(0.00287948 -0.000826935 0.522256)
(0.00302278 -0.00139545 0.427615)
(-0.00236289 0.00188427 0.936434)
(-0.00408514 0.00469103 0.969166)
(-0.00555046 0.00490647 0.949241)
(-0.00818877 0.00228185 0.86511)
(-0.00420449 0.000663382 0.682388)
(0.000714229 -0.000581803 0.542655)
(0.00234736 -0.00126034 0.441568)
(0.00139473 0.00286478 0.906356)
(-0.000219328 0.000539658 0.958525)
(-0.00597041 -4.5464e-05 0.964241)
(-0.00601458 0.00110095 0.851048)
(-0.000561422 -0.00125222 0.669348)
(0.00219286 -0.00117966 0.536149)
(0.00321006 -0.00141472 0.437209)
(-0.0030729 0.00168273 0.784204)
(-0.000871581 -0.00656709 0.87159)
(-0.00289178 -0.00570575 0.858036)
(-0.00131928 -0.00022525 0.747153)
(0.00220518 -0.000257862 0.610752)
(0.00346829 -0.000375242 0.503812)
(0.00406356 -0.000989166 0.415086)
(-0.000417001 0.00377039 0.631809)
(0.000242454 -0.00130257 0.677462)
(-0.00167882 -0.00077979 0.671561)
(-0.000313124 0.00202347 0.612366)
(0.00234683 0.00125396 0.533047)
(0.00377069 0.000456599 0.454197)
(0.00461646 -0.000688753 0.379157)
(-0.00247314 -0.0095518 0.573924)
(-0.000789966 -0.00832103 0.601922)
(9.48989e-05 -0.00796258 0.59441)
(0.0017845 -0.0069546 0.553062)
(0.00309582 -0.00472355 0.493123)
(0.00338156 -0.00352811 0.426244)
(0.00352073 -0.00265639 0.359215)
(-0.00336546 -0.00927134 0.689226)
(-0.000824215 -0.00307777 0.74531)
(-0.000650705 -0.00421112 0.733505)
(0.00188356 -0.00653627 0.659271)
(0.00379848 -0.0043663 0.566318)
(0.00385582 -0.00347603 0.478246)
(0.00378531 -0.00283126 0.398314)
(-0.00329058 -0.00491102 0.839198)
(0.00160941 0.005945 0.927444)
(-0.000553914 0.00398807 0.915427)
(0.00107872 -0.00219204 0.788757)
(0.00533307 -0.00205721 0.632729)
(0.00494818 -0.00243965 0.518976)
(0.00448735 -0.00244519 0.427058)
(0.00530814 0.000716176 0.927975)
(0.00331024 0.00260973 0.933149)
(-0.00399982 0.00295128 0.974338)
(-0.00478371 0.000555803 0.8695)
(0.00242228 -0.00122061 0.669219)
(0.00459887 -0.00174579 0.538877)
(0.00474998 -0.00201998 0.440548)
(-0.00101011 0.00250195 0.894841)
(0.00187278 -0.00375784 1.01028)
(-0.00240136 -0.00251771 0.984961)
(0.000607894 0.000654738 0.845363)
(0.00621994 -0.000865251 0.657945)
(0.00617194 -0.00106142 0.532218)
(0.00566136 -0.00148371 0.436015)
(-0.00412119 0.00425814 0.758337)
(-7.63228e-05 -0.00127255 0.861835)
(0.000317773 -4.85873e-05 0.847343)
(0.00325612 0.00300793 0.724079)
(0.00647455 0.00160901 0.601732)
(0.00630932 0.000501142 0.500299)
(0.00597036 -0.000592361 0.414041)
(-0.00228171 0.00640988 0.621696)
(-9.86453e-05 0.00517835 0.665699)
(0.000884949 0.00522564 0.659016)
(0.00314753 0.00526404 0.602807)
(0.00518554 0.00297083 0.52799)
(0.00578405 0.00138499 0.451816)
(0.00605322 -0.000117484 0.37863)
(-0.00059724 -0.00458442 0.571873)
(-0.000267111 -0.00384181 0.599878)
(-8.88849e-05 -0.0032378 0.592481)
(0.00036466 -0.00210047 0.55118)
(0.000757432 -0.001528 0.491992)
(0.00133591 -0.00186399 0.425791)
(0.0020895 -0.00181404 0.359597)
(-0.0011534 -0.00588734 0.683044)
(-0.000541597 -0.00359831 0.733424)
(-0.000687757 -0.00379038 0.72404)
(-0.000203858 -0.00326887 0.653938)
(-5.48426e-05 -0.00175712 0.563899)
(0.000607848 -0.00219986 0.477215)
(0.00174245 -0.00224274 0.398102)
(-0.00166375 -0.00502216 0.795919)
(0.00075557 0.000396992 0.91746)
(-0.00087527 -0.00122373 0.900261)
(-3.98805e-05 -0.00266817 0.763823)
(0.0016351 -0.00204591 0.627973)
(0.00107586 -0.00237734 0.517088)
(0.00210329 -0.00243618 0.42634)
(0.00145416 -0.00323008 0.864194)
(0.00291518 -0.00318783 1.0694)
(-0.00357399 -0.00293583 1.00185)
(-0.00206463 -0.00255496 0.835706)
(0.00244196 -0.00233178 0.662205)
(0.00174163 -0.00231537 0.536516)
(0.00266658 -0.00238537 0.439472)
(-0.00220362 -0.00110051 0.846499)
(0.00119566 -0.00650396 0.989752)
(-0.00025715 -0.00454563 0.97114)
(0.00147075 -0.00165244 0.808606)
(0.00406147 -0.0020449 0.650192)
(0.00281352 -0.00187051 0.529358)
(0.00344918 -0.00204838 0.434634)
(-0.00308763 0.00129023 0.739045)
(-0.000382573 -0.00111719 0.828593)
(0.0013366 -0.000467575 0.818122)
(0.00304196 0.000631424 0.709886)
(0.00349602 -0.000909311 0.596853)
(0.00326854 -0.00105068 0.497581)
(0.00398315 -0.00151861 0.412625)
(-0.000951244 0.00216982 0.61552)
(0.000204623 0.00240438 0.656804)
(0.00101542 0.00214499 0.65056)
(0.00211604 0.00100016 0.597092)
(0.00297183 -0.00024544 0.524443)
(0.00375044 -0.000539045 0.449567)
(0.0046122 -0.00124841 0.377486)
(0.00156537 0.00049394 0.570293)
(0.000527645 0.00216251 0.600213)
(-0.000434933 0.0027202 0.593208)
(-0.00110412 0.00261121 0.549756)
(-0.000948291 0.00088266 0.488731)
(0.000341191 -0.000886518 0.422497)
(0.00170124 -0.00151078 0.35762)
(0.00197898 0.000338833 0.690634)
(-0.000315465 -0.000974638 0.736372)
(-0.0020316 -0.000645468 0.728846)
(-0.00373459 0.00198364 0.662126)
(-0.00392106 0.0012092 0.563978)
(-0.00155076 -0.000988472 0.47379)
(0.000876368 -0.00180747 0.395224)
(-0.00237041 -0.0029757 0.796426)
(-0.00390302 -0.00610654 0.903355)
(-0.000911597 -0.0054796 0.892302)
(-0.00165989 -0.00115626 0.766489)
(-0.00375472 -0.000370904 0.634068)
(-0.00226633 -0.00165583 0.51401)
(0.000680673 -0.00216842 0.422908)
(-0.00665262 -0.00463509 0.854208)
(-0.00864119 -0.00559733 1.03061)
(-5.74481e-06 -0.00447983 1.01899)
(8.64763e-05 -0.00288693 0.832328)
(-0.00245097 -0.00239653 0.667712)
(-0.00202952 -0.00234101 0.533574)
(0.000984811 -0.00243377 0.435682)
(-0.00409661 -0.00444396 0.840293)
(-0.00474867 -0.00170675 0.978055)
(0.00136638 -0.000930474 0.962259)
(0.00117184 -0.0033244 0.806311)
(-0.0016996 -0.00380398 0.655469)
(-0.00103326 -0.00269289 0.52562)
(0.00173082 -0.00245034 0.430554)
(-0.000616847 -0.00453525 0.735828)
(-0.00116283 -0.00345805 0.821048)
(0.000500551 -0.00330976 0.81299)
(0.000251866 -0.00440163 0.709771)
(-0.00145486 -0.00425158 0.596328)
(0.000336918 -0.00259309 0.492751)
(0.00266907 -0.00221727 0.408504)
(0.00161699 -0.00355279 0.61054)
(0.000916544 -0.00369915 0.653389)
(0.000243686 -0.00405498 0.648411)
(-0.000149089 -0.0048791 0.594543)
(0.000344784 -0.0034749 0.519532)
(0.00215948 -0.00207173 0.444414)
(0.00385011 -0.00194697 0.373773)
(0.000496001 -0.004647 0.563863)
(0.00100584 -0.00273677 0.59714)
(0.0011102 -0.00247084 0.589662)
(0.00175901 -0.00297274 0.543198)
(0.00288867 -0.00366429 0.481642)
(0.00418925 -0.00407925 0.41751)
(0.00498302 -0.00376624 0.355378)
(0.000450441 -0.00301421 0.706956)
(-0.000160984 -0.00354347 0.77593)
(-0.000876833 -0.00320164 0.768245)
(-0.000575725 -0.00152169 0.673743)
(0.00136174 -0.00260355 0.558667)
(0.00374776 -0.00358208 0.466908)
(0.00516824 -0.00360457 0.391325)
(-0.00399184 -0.00412042 0.855131)
(-0.0044441 -0.00697534 0.929238)
(-0.000554302 -0.00701343 0.915418)
(0.00130405 -0.00312309 0.803692)
(0.00114173 -0.0024028 0.636853)
(0.00389099 -0.00306459 0.506254)
(0.00560228 -0.00317547 0.417812)
(-0.00854199 -0.00420201 0.922753)
(-0.00756072 -0.00433631 0.975714)
(0.000692355 -0.00392356 0.953004)
(0.00319972 -0.00323628 0.859894)
(0.0014676 -0.00257216 0.677926)
(0.00399754 -0.00247497 0.525843)
(0.00598429 -0.00253831 0.429953)
(-0.00644226 -0.00255475 0.882276)
(-0.00568883 0.000304387 0.97172)
(0.00143237 0.00106117 0.956621)
(0.00368833 -0.00212511 0.838799)
(0.00231617 -0.00232124 0.660901)
(0.00483187 -0.00166599 0.51739)
(0.00655551 -0.00172444 0.424681)
(-0.00251016 -0.00145163 0.755668)
(-0.00171851 -0.000760282 0.839726)
(0.00107966 -0.000800061 0.831521)
(0.00257478 -0.00208421 0.733675)
(0.00289468 -0.00142716 0.591799)
(0.00543983 -0.000567571 0.484221)
(0.00691248 -0.000815935 0.403036)
(0.000449638 0.000704759 0.603122)
(0.00120555 0.000120669 0.652365)
(0.00172767 -0.000172869 0.64776)
(0.00271583 -0.000511737 0.58775)
(0.00427055 0.000320061 0.509959)
(0.00610538 0.000632351 0.436796)
(0.00719662 -3.03738e-05 0.369379)
(-0.00361172 -0.0156552 0.554151)
(0.000413389 -0.0160971 0.585019)
(0.00418025 -0.0160701 0.57801)
(0.00761948 -0.0146238 0.534156)
(0.00966367 -0.0116925 0.476174)
(0.0100173 -0.00907774 0.415658)
(0.00939492 -0.00691762 0.356499)
(-0.00639059 -0.0135277 0.687647)
(-0.00101338 -0.0122116 0.759158)
(0.00425993 -0.0120547 0.747808)
(0.00933833 -0.0120435 0.65678)
(0.0121141 -0.0102956 0.548205)
(0.0124918 -0.00818426 0.462157)
(0.0113688 -0.00634981 0.390702)
(-0.00874132 -0.00957566 0.827853)
(-0.00223181 -0.00670987 0.909904)
(0.0043104 -0.00718813 0.894609)
(0.0107627 -0.00793517 0.784044)
(0.0138243 -0.00689522 0.62231)
(0.0148545 -0.00587065 0.499219)
(0.0132393 -0.00489761 0.415756)
(-0.00688081 -0.00262066 0.892709)
(-0.00182187 -0.00198367 0.954892)
(0.00363273 -0.00201992 0.938009)
(0.008527 -0.00307515 0.840436)
(0.0127937 -0.00304847 0.660214)
(0.0155207 -0.00292413 0.517387)
(0.0141458 -0.00285096 0.427025)
(-0.00863977 0.00370738 0.859485)
(-0.00252099 0.00287493 0.945118)
(0.00388518 0.00337134 0.929736)
(0.0104275 0.00159911 0.817044)
(0.0143573 0.000962481 0.643523)
(0.0160537 0.000286719 0.508904)
(0.0144481 -0.000575177 0.421617)
(-0.0073836 0.00774411 0.734453)
(-0.00126119 0.00738303 0.817373)
(0.00409423 0.00736764 0.808788)
(0.00996096 0.00652386 0.710718)
(0.0139919 0.00527722 0.576874)
(0.0148353 0.00341312 0.476897)
(0.0135921 0.00153919 0.400589)
(-0.00388886 0.011223 0.588513)
(0.000712356 0.0119418 0.635058)
(0.00504067 0.0119097 0.630763)
(0.00930707 0.01094 0.573019)
(0.0120764 0.00816968 0.500093)
(0.0127414 0.00546885 0.431825)
(0.0121285 0.00299213 0.368272)
(-0.00579336 -0.0207932 0.545633)
(-8.84661e-05 -0.0234877 0.571382)
(0.00554195 -0.0235054 0.564156)
(0.0102312 -0.0203097 0.5269)
(0.0122514 -0.0149448 0.475059)
(0.0116734 -0.010741 0.418407)
(0.0102489 -0.00773261 0.361343)
(-0.00936452 -0.0194497 0.658127)
(-0.00107639 -0.0189331 0.717901)
(0.0070458 -0.0197531 0.703298)
(0.014048 -0.0190118 0.628477)
(0.0168244 -0.0143685 0.538999)
(0.0155956 -0.0102604 0.461884)
(0.0129856 -0.00732016 0.394317)
(-0.0123275 -0.0141288 0.798108)
(-0.000906918 -0.01046 0.869874)
(0.00800665 -0.0106578 0.862057)
(0.0169209 -0.0128453 0.754738)
(0.0208895 -0.0102782 0.600553)
(0.0196828 -0.00761613 0.495816)
(0.0157662 -0.00573219 0.418111)
(-0.00869152 -0.00571766 0.857164)
(0.00186565 -0.0056334 0.916865)
(0.00779829 -0.00480399 0.883695)
(0.0153685 -0.00568688 0.811054)
(0.021447 -0.00438123 0.633171)
(0.0214876 -0.00351756 0.5119)
(0.0172615 -0.00313636 0.428532)
(-0.0144615 0.0042645 0.834207)
(-0.00161348 0.000968618 0.915722)
(0.00858158 0.00104754 0.902086)
(0.0190137 0.00264611 0.789856)
(0.0230692 0.0025813 0.617288)
(0.02172 0.00119876 0.503472)
(0.0173807 -0.000157271 0.422958)
(-0.0122887 0.0134163 0.700255)
(-0.00196921 0.0144383 0.788422)
(0.00853827 0.0144261 0.777946)
(0.0169604 0.0129624 0.673782)
(0.020511 0.00908255 0.56021)
(0.0189724 0.00529814 0.473661)
(0.0157067 0.00238618 0.402534)
(-0.00720456 0.0174132 0.571598)
(-0.000119977 0.0205104 0.609747)
(0.00738568 0.0205036 0.603308)
(0.0134135 0.0175891 0.554901)
(0.0159152 0.0119524 0.493565)
(0.0151506 0.00732409 0.431591)
(0.0133656 0.00388259 0.371236)
(-0.00436009 -0.0159675 0.542985)
(-0.000103313 -0.0191082 0.564942)
(0.00443689 -0.0187085 0.558889)
(0.00765576 -0.0150137 0.526362)
(0.00844472 -0.0102281 0.478335)
(0.00748928 -0.00706922 0.423495)
(0.00633439 -0.0050038 0.366918)
(-0.00678507 -0.0163326 0.6281)
(-0.000331593 -0.018618 0.669973)
(0.00625744 -0.0189929 0.661121)
(0.0108608 -0.0158567 0.607559)
(0.0119096 -0.0106341 0.536018)
(0.0102461 -0.00731448 0.46566)
(0.00811044 -0.00512928 0.399614)
(-0.0102469 -0.0124419 0.733697)
(0.000398907 -0.0135167 0.826672)
(0.00861369 -0.0149032 0.798713)
(0.01428 -0.0125132 0.699183)
(0.0163974 -0.00851168 0.586161)
(0.0137635 -0.00599343 0.497683)
(0.0102417 -0.00443259 0.422861)
(-0.0100386 -0.00647939 0.790287)
(0.00173244 -0.00959243 0.886812)
(0.00925558 -0.00997082 0.90377)
(0.015273 -0.00630156 0.760369)
(0.0184263 -0.00393495 0.610526)
(0.015745 -0.00310891 0.512247)
(0.0115457 -0.00283121 0.432732)
(-0.0123939 0.00261277 0.745667)
(-0.000786735 -0.00179598 0.82902)
(0.00877008 -0.000926443 0.817976)
(0.0165238 0.0026111 0.715175)
(0.0185197 0.00173397 0.596279)
(0.0154327 0.000310568 0.503665)
(0.0115182 -0.000909977 0.426889)
(-0.00964822 0.0110365 0.649325)
(-0.00140087 0.0126154 0.706515)
(0.00795282 0.012616 0.696893)
(0.0141806 0.0106857 0.629509)
(0.0152516 0.00605789 0.550561)
(0.012962 0.00284104 0.475293)
(0.010276 0.000548754 0.406564)
(-0.00555246 0.0132625 0.560063)
(-4.30116e-05 0.0166323 0.58605)
(0.00609643 0.0163069 0.580488)
(0.0103776 0.012658 0.54497)
(0.0114007 0.00739405 0.493002)
(0.0102506 0.00375843 0.434635)
(0.00888384 0.00125128 0.375334)
(-0.000130128 -0.00505139 0.54442)
(0.000794704 -0.00592073 0.565908)
(0.00189357 -0.0051777 0.560544)
(0.00215209 -0.00302479 0.529557)
(0.00146267 -0.00134232 0.482255)
(0.000667144 -0.000766349 0.427312)
(0.000316455 -0.000578293 0.3703)
(-0.000403503 -0.00587352 0.624731)
(0.00116211 -0.00782894 0.664456)
(0.00260978 -0.00708955 0.659054)
(0.00255222 -0.00403457 0.609336)
(0.00168482 -0.00199758 0.539454)
(0.000869962 -0.001548 0.469878)
(0.000300548 -0.00133593 0.403338)
(-0.0024345 -0.00487907 0.706516)
(0.00206691 -0.00584904 0.77766)
(0.00490564 -0.00864578 0.779673)
(0.00450282 -0.00471948 0.690889)
(0.00358472 -0.00252719 0.588785)
(0.00199387 -0.00210382 0.501622)
(0.000868732 -0.00193484 0.426609)
(-0.00396217 -0.00278117 0.756557)
(0.000828484 -0.00438205 0.862614)
(0.00517037 -0.00553782 0.846254)
(0.00531477 -0.0027573 0.72773)
(0.00506069 -0.00203662 0.610959)
(0.00276514 -0.0020703 0.515611)
(0.00137859 -0.00222979 0.436219)
(-0.0022387 -6.77986e-06 0.717357)
(0.00121389 -0.000808709 0.781443)
(0.00408945 -0.000256727 0.773364)
(0.00518651 -0.000113426 0.700121)
(0.00402412 -0.00145691 0.597496)
(0.00250346 -0.00196636 0.506571)
(0.00149713 -0.00243523 0.429913)
(-0.00113431 0.00181122 0.639372)
(0.000963138 0.00295923 0.684647)
(0.00331673 0.00253692 0.678863)
(0.0039852 0.000655905 0.627636)
(0.00292186 -0.00161019 0.552233)
(0.00209554 -0.00223288 0.478091)
(0.0015715 -0.00276256 0.409074)
(-0.0002018 0.00204273 0.558598)
(0.00122287 0.00295775 0.582377)
(0.00264007 0.00218491 0.578045)
(0.00321238 0.000211608 0.545399)
(0.00281395 -0.00172308 0.494898)
(0.00222191 -0.0025547 0.436733)
(0.00203998 -0.0031039 0.377188)
(-0.00181617 0.00153525 0.0698734)
(-0.000263641 0.00153337 0.034938)
(-0.00935917 0.000350632 0.23017)
(-0.00728301 2.38883e-05 0.177958)
(-0.0055147 -0.000204348 0.134605)
(-0.003978 -0.000385481 0.0981175)
(-0.00259453 -0.000527151 0.0655742)
(-0.00111833 -0.000626386 0.0284228)
(-0.0170559 0.000144485 0.385413)
(-0.0125692 -0.000563512 0.30558)
(-0.00947352 -0.00119043 0.239146)
(-0.00713707 -0.00165562 0.184211)
(-0.00532345 -0.0020734 0.138829)
(-0.00375823 -0.0024518 0.100887)
(-0.00237672 -0.0028037 0.0673276)
(-0.000913528 -0.00307361 0.029317)
(-0.016189 -0.00186295 0.38379)
(-0.0116591 -0.00212975 0.306655)
(-0.00846492 -0.00256116 0.242208)
(-0.0061139 -0.00309719 0.188681)
(-0.00424238 -0.0036419 0.144297)
(-0.0026317 -0.00416348 0.107076)
(-0.00120528 -0.00465663 0.0740222)
(0.000282959 -0.0050229 0.0362886)
(-0.013697 -0.00348079 0.364803)
(-0.00964043 -0.00317622 0.296785)
(-0.00672807 -0.00343109 0.239365)
(-0.00448751 -0.00393939 0.191021)
(-0.00261707 -0.00453653 0.150411)
(-0.000955199 -0.00512443 0.115916)
(0.000548864 -0.00567344 0.0848006)
(0.00207764 -0.00604632 0.0484613)
(-0.0102845 -0.00460425 0.333164)
(-0.00717779 -0.0041896 0.280102)
(-0.00467562 -0.00435916 0.233007)
(-0.00260282 -0.00475452 0.192215)
(-0.000742261 -0.00522379 0.157177)
(0.00097288 -0.0056974 0.126763)
(0.00257913 -0.00615877 0.0985815)
(0.00421312 -0.0064648 0.0644451)
(-0.00622348 0.00151543 0.293267)
(-0.00467311 0.00128146 0.245174)
(-0.00334947 0.00148682 0.202521)
(-0.00220299 0.0018554 0.165349)
(-0.00112354 0.0022529 0.13317)
(-6.67601e-05 0.00261906 0.104979)
(0.000963063 0.00292635 0.0786397)
(0.00202943 0.00317749 0.0469668)
(-0.00776721 0.00102784 0.329109)
(-0.00579803 0.000403099 0.266849)
(-0.00444172 0.000363112 0.21417)
(-0.00337318 0.000560719 0.169444)
(-0.00243968 0.000824614 0.13143)
(-0.00155186 0.00106714 0.0986769)
(-0.000695699 0.00126671 0.0686991)
(0.000212883 0.00141164 0.0333217)
(-0.00900863 0.000624035 0.357654)
(-0.00652082 -0.000174804 0.285801)
(-0.00494711 -0.000501298 0.225649)
(-0.00382639 -0.000640216 0.175273)
(-0.00295567 -0.000704233 0.132984)
(-0.00218416 -0.000755947 0.0970141)
(-0.0014584 -0.000811228 0.0645921)
(-0.00064106 -0.00083551 0.0270841)
(-0.0097311 -0.000206851 0.373212)
(-0.00672345 -0.000906049 0.297242)
(-0.00483407 -0.00145333 0.233923)
(-0.00360151 -0.00191717 0.181079)
(-0.00268142 -0.00232745 0.136949)
(-0.00190272 -0.00270698 0.0996471)
(-0.00119787 -0.00306422 0.0662789)
(-0.000406304 -0.0033346 0.0279483)
(-0.00907753 -0.00135388 0.371511)
(-0.00594576 -0.00166167 0.298159)