/*--------------------------------*- C++ -*----------------------------------*\
| =========                 |                                                 |
| \\      /  F ield         | OpenFOAM: The Open Source CFD Toolbox           |
|  \\    /   O peration     | Version:  plus.master                           |
|   \\  /    A nd           | Web:      www.OpenFOAM.com                      |
|    \\/     M anipulation  |                                                 |
\*---------------------------------------------------------------------------*/
FoamFile
{
    version     2.0;
    format      ascii;
    class       surfaceScalarField;
    location    "6";
    object      phi;
}
// * * * * * * * * * * * * * * * * * * * * * * * * * * * * * * * * * * * * * //

dimensions      [0 3 -1 0 0 0 0];

internalField   nonuniform List<scalar> 
138768
(
2.2345e-06
2.11635e-06
1.40711e-07
-2.47768e-06
-2.28434e-06
1.66942e-06
2.83855e-06
2.90561e-07
-2.71269e-06
3.52339e-07
3.47341e-06
6.27377e-07
-3.05637e-06
-1.16294e-06
3.46372e-06
8.17046e-07
-3.08723e-06
-2.33984e-06
3.25259e-06
5.2233e-07
-2.87453e-06
-2.78111e-06
2.59627e-06
2.3113e-07
-2.53638e-06
1.98752e-06
1.2049e-07
-3.04903e-06
-2.10234e-06
2.91589e-06
1.56698e-06
2.63054e-07
-2.81777e-06
4.35382e-06
4.18191e-06
1.79037e-06
1.28784e-06
8.2287e-06
2.88224e-06
-2.40264e-06
8.53294e-06
3.19247e-06
-5.07506e-06
7.92309e-06
2.57311e-06
-3.23435e-06
3.85695e-06
1.47008e-06
1.49228e-06
1.86864e-07
-3.25842e-06
3.52628e-06
3.50604e-07
5.60792e-07
-3.17603e-06
8.24446e-06
1.36368e-06
2.67136e-06
4.33978e-06
4.91082e-06
1.17934e-05
-6.09916e-06
9.11571e-06
1.44254e-05
-8.54974e-06
4.55105e-06
1.03916e-05
-3.49552e-06
1.24875e-06
2.1251e-06
3.40943e-07
3.97143e-07
-3.18512e-06
3.50352e-06
-9.27718e-07
7.6731e-07
-3.22735e-06
8.13118e-06
-2.04066e-06
3.34785e-06
6.8578e-06
-5.39187e-06
1.61457e-05
-1.04064e-05
-8.49508e-06
3.94443e-05
-8.3862e-06
-4.98648e-06
1.20847e-05
-3.27124e-06
-1.76119e-06
2.46624e-06
-7.82241e-07
5.2857e-07
-3.08293e-06
3.48659e-06
-1.97644e-06
4.87595e-07
-3.12161e-06
8.12674e-06
-4.69478e-06
2.58542e-06
4.05958e-06
-8.46568e-06
1.17103e-05
-6.15749e-06
-8.39475e-06
1.46864e-05
-8.49289e-06
-8.09937e-06
1.00191e-05
-3.46079e-06
-4.23713e-06
2.0148e-06
-1.80997e-06
3.42585e-07
-3.16144e-06
2.79621e-06
-2.37435e-06
2.2545e-07
-2.73679e-06
4.05783e-06
-2.99677e-06
1.61167e-06
1.02725e-06
-3.38718e-06
2.52276e-06
-2.38787e-06
-3.22399e-06
2.81523e-06
-4.92212e-06
-3.21245e-06
2.21821e-06
-3.17349e-06
-2.75187e-06
1.33741e-06
-2.16598e-06
1.6296e-07
-3.17728e-06
2.17196e-06
1.24077e-07
-2.29682e-06
-2.55112e-06
1.51288e-06
2.30766e-07
-2.89017e-06
1.5317e-07
5.05822e-07
-2.96808e-06
-1.16107e-06
6.37431e-07
-2.93764e-06
-2.33208e-06
3.98619e-07
-2.84945e-06
-2.75611e-06
1.86319e-07
-2.75723e-06
1.13685e-07
-2.98958e-06
-2.39107e-06
1.60594e-06
1.09114e-06
5.88036e-07
-1.79115e-06
-1.35332e-06
1.0576e-06
1.58055e-06
8.46462e-07
-1.58812e-06
2.53632e-07
1.40722e-06
1.49932e-06
-1.47622e-06
-7.73807e-07
1.31387e-06
1.95146e-06
-1.42119e-06
-1.56429e-06
1.45212e-06
1.34125e-06
-1.48069e-06
-2.09092e-06
1.42914e-06
7.74213e-07
-1.44574e-06
9.6969e-07
5.62897e-07
-2.31241e-06
-1.19069e-06
1.95825e-06
5.27832e-07
7.89036e-07
-1.92094e-06
1.98532e-06
1.25441e-06
2.08929e-06
6.40377e-07
1.7164e-06
3.91779e-06
-1.01598e-06
1.1993e-06
4.96329e-06
-2.21708e-06
1.78788e-06
3.43843e-06
-2.31437e-06
1.23411e-06
1.76224e-06
5.70212e-07
7.14177e-07
-2.44216e-06
1.47125e-06
-5.26749e-08
1.27782e-06
-1.60867e-06
1.6597e-06
1.61778e-07
3.57532e-06
1.07451e-06
7.25674e-07
1.3369e-05
-2.15804e-06
-1.60785e-07
1.90186e-05
-2.12612e-06
1.26362e-06
1.08828e-05
-2.07367e-06
3.62661e-07
2.9434e-06
6.08491e-08
1.11527e-06
-2.28253e-06
8.80283e-07
-5.28302e-07
1.65097e-06
-1.28906e-06
3.23624e-07
-7.8815e-07
4.85431e-06
-2.39188e-06
-1.94678e-06
2.15339e-05
-3.33744e-06
-1.24751e-06
4.14752e-05
-2.03658e-06
-2.25807e-06
1.43074e-05
-1.93546e-06
-9.10335e-07
3.63814e-06
-5.16616e-07
1.35378e-06
-2.18394e-06
1.35441e-06
-9.82165e-07
1.14031e-06
-1.55336e-06
1.55951e-06
-1.7291e-06
3.32121e-06
6.18431e-07
-1.81033e-06
1.25133e-05
-1.87711e-06
-1.35741e-06
1.7287e-05
-2.03088e-06
-1.96094e-06
9.87591e-06
-1.99465e-06
-1.60952e-06
2.67797e-06
-9.30835e-07
1.01015e-06
-2.24802e-06
1.67432e-06
-1.41611e-06
7.24883e-07
-1.7399e-06
1.48395e-06
-1.75322e-06
1.82615e-06
3.35734e-07
-1.44772e-06
3.30882e-06
-9.25491e-07
-1.26721e-06
3.98639e-06
-1.96452e-06
-1.54032e-06
2.83678e-06
-2.14855e-06
-1.63006e-06
1.54193e-06
-1.26503e-06
6.62488e-07
-2.31397e-06
1.32337e-06
5.68524e-07
-1.58541e-06
-1.59855e-06
7.51639e-07
7.73618e-07
-1.72444e-06
5.3048e-08
1.26369e-06
-1.50752e-06
-6.82254e-07
1.52431e-06
-1.41928e-06
-1.3622e-06
1.10726e-06
-1.56906e-06
-1.88813e-06
7.07599e-07
-1.6255e-06
5.54822e-07
-2.14789e-06
-1.44661e-06
1.1292e-06
5.5844e-07
1.45544e-06
-1.53893e-06
-1.01607e-06
6.65664e-07
3.82923e-07
1.75949e-06
-8.32211e-07
2.37303e-07
-1.07339e-07
2.52778e-06
-4.92768e-07
-3.6082e-07
-4.2905e-07
3.21019e-06
-2.31707e-07
-1.00312e-06
2.32172e-07
2.4055e-06
-6.54231e-07
-1.63434e-06
6.11995e-07
1.69118e-06
-8.97705e-07
6.29465e-07
1.40429e-06
-2.10198e-06
-1.00338e-06
9.5515e-07
5.88919e-08
1.67324e-06
-1.33963e-06
6.77128e-07
-1.12207e-08
2.76128e-06
4.06e-07
-6.76898e-07
4.7583e-06
-1.22628e-07
-1.38255e-06
6.44572e-06
-8.98398e-07
-3.43832e-08
4.48092e-06
-1.51731e-06
3.74142e-07
2.61917e-06
2.60321e-07
1.60151e-06
-2.03507e-06
2.02049e-07
-1.83973e-07
2.13495e-06
-8.16817e-07
-9.0845e-08
-4.08552e-07
4.26564e-06
1.17303e-06
-7.62499e-07
1.21907e-05
-2.36144e-07
-2.09899e-06
2.11454e-05
-2.13599e-07
2.68835e-07
1.05561e-05
-1.01431e-06
8.23055e-08
4.03554e-06
1.66205e-08
2.07833e-06
-1.73373e-06
-4.25802e-07
-1.65063e-07
2.49708e-06
-4.38601e-07
-1.30918e-06
-1.36341e-07
5.46586e-06
-4.2378e-07
-5.40491e-07
2.04269e-05
-8.10143e-07
-1.75108e-06
4.15191e-05
-4.96037e-08
-1.31416e-06
1.51338e-05
-8.58853e-07
-4.77827e-07
5.00744e-06
-2.80136e-07
2.38571e-06
-1.59417e-06
2.9841e-07
-4.29682e-07
2.00422e-06
-8.97696e-07
2.89959e-09
-4.20751e-07
3.90114e-06
8.93258e-07
3.19864e-07
1.07613e-05
-1.68703e-07
3.32351e-07
1.62624e-05
-3.61848e-07
-4.16031e-07
9.17118e-06
-1.14083e-06
-7.01877e-07
3.68127e-06
-5.75877e-07
1.96371e-06
-1.79839e-06
9.04423e-07
-9.21927e-07
1.61e-06
-1.29741e-06
6.09573e-07
-7.52909e-07
2.45357e-06
3.703e-07
-2.00313e-07
4.06891e-06
-2.37812e-07
-1.5958e-07
5.08686e-06
-9.90871e-07
-6.05982e-07
3.78012e-06
-1.5325e-06
-9.47988e-07
2.32987e-06
-9.7903e-07
1.54176e-06
-2.00862e-06
1.01668e-06
1.42848e-06
-1.45103e-06
-1.34771e-06
5.15443e-07
1.66914e-06
-1.14685e-06
1.48688e-07
2.1966e-06
-7.66492e-07
-3.69044e-07
2.56711e-06
-6.84589e-07
-9.71208e-07
2.07863e-06
-9.75109e-07
-1.56484e-06
1.60055e-06
-1.24753e-06
1.386e-06
-2.01279e-06
-1.36242e-06
1.29645e-06
8.25675e-07
3.01933e-06
-2.12414e-06
-1.56185e-06
5.10236e-07
2.21516e-07
3.3127e-06
-9.87993e-07
6.07495e-09
-6.68579e-07
3.9809e-06
-2.80303e-07
-1.48622e-07
-1.70583e-06
4.69799e-06
3.7295e-07
-8.57569e-07
-4.84771e-07
3.94183e-06
-3.42729e-07
-1.72193e-06
2.47822e-07
3.27501e-06
-9.67145e-07
7.52571e-07
2.9692e-06
-2.54725e-06
-1.49225e-06
8.45214e-07
1.9344e-07
3.21993e-06
-1.75915e-06
1.33737e-07
-3.55069e-07
4.04946e-06
-8.43955e-09
-1.58104e-06
5.813e-06
4.55661e-07
-3.29883e-06
7.57543e-06
-2.62667e-07
-1.09554e-06
5.81041e-06
-1.28096e-06
-2.06678e-07
4.09215e-06
2.00641e-07
3.18035e-06
-2.30727e-06
-7.42797e-09
-8.54415e-08
3.56638e-06
-1.14533e-06
-9.13113e-07
-4.20658e-07
5.23718e-06
5.55457e-07
-1.05061e-06
1.01918e-05
1.24722e-06
-3.47352e-06
2.06299e-05
8.63685e-07
-2.55113e-07
1.00997e-05
-5.2715e-07
-1.98565e-07
5.41775e-06
-3.49001e-08
3.62862e-06
-1.84189e-06
-5.88424e-07
-6.26406e-08
3.81026e-06
-7.45683e-07
-1.78563e-06
2.15333e-07
6.02774e-06
1.37602e-06
4.17429e-07
1.57984e-05
1.63932e-06
-6.66712e-07
3.84541e-05
1.65865e-06
4.89426e-09
1.48654e-05
-1.86317e-08
9.18205e-08
6.39426e-06
-8.31371e-08
3.95146e-06
-1.53623e-06
3.09021e-07
-5.35172e-07
3.48266e-06
-1.31472e-06
-4.54219e-07
-5.2631e-08
4.93273e-06
6.75907e-07
1.07239e-06
8.97599e-06
6.31146e-07
1.63037e-06
1.4003e-05
3.54406e-07
6.22958e-07
8.82991e-06
-8.29132e-07
-1.51844e-07
5.10881e-06
-5.13796e-07
3.53263e-06
-1.96701e-06
9.9441e-07
-1.25549e-06
3.17363e-06
-1.83792e-06
3.24647e-07
-7.36736e-07
3.80808e-06
1.57538e-07
1.12333e-07
5.19681e-06
4.35306e-08
5.47712e-07
6.28399e-06
-6.04154e-07
-1.19485e-07
5.1707e-06
-1.48405e-06
-7.70842e-07
3.82914e-06
-1.21961e-06
3.12815e-06
-2.36456e-06
1.36641e-06
2.98929e-06
-2.16246e-06
-2.02037e-06
6.01121e-07
3.23101e-06
-1.53289e-06
9.48644e-08
3.69708e-06
-8.81754e-07
-3.24399e-07
4.08562e-06
-5.51285e-07
-1.00016e-06
3.64451e-06
-1.00941e-06
-1.78118e-06
3.18525e-06
-1.57478e-06
2.94401e-06
-2.53603e-06
-2.02284e-06
1.55408e-06
1.50181e-06
-2.51006e-06
-2.40752e-06
4.88112e-06
5.74672e-07
8.63349e-07
-1.74724e-06
5.1765e-06
-1.64568e-07
-1.53159e-07
-8.97564e-07
5.77087e-06
-2.27324e-07
-1.61718e-06
-3.77021e-08
6.41564e-06
-9.77504e-07
-2.60237e-07
-8.3464e-07
5.78693e-06
-1.86907e-06
6.0818e-07
-1.61845e-06
5.17701e-06
1.28835e-06
-2.73557e-06
-2.3075e-06
4.85475e-06
1.23926e-06
7.53157e-07
-2.33712e-06
5.06694e-06
2.26699e-07
1.84798e-07
5.74067e-06
-3.58974e-07
-9.99722e-07
7.24533e-06
4.09794e-07
-3.54511e-06
8.73513e-06
-3.87638e-07
-1.04299e-06
7.39095e-06
-1.51404e-06
-8.14672e-08
5.90747e-06
5.08174e-07
-2.63493e-06
5.08171e-06
7.06092e-07
1.99846e-07
-1.93371e-06
5.3472e-06
-5.29629e-07
-8.92036e-09
6.66674e-06
-7.39623e-07
-6.20179e-07
1.00228e-05
1.69271e-06
-3.29853e-06
1.79518e-05
6.78257e-07
-5.34234e-07
1.0608e-05
-8.36655e-07
-2.34585e-07
7.08452e-06
4.67216e-08
-2.25981e-06
5.51299e-06
4.28035e-07
-2.11518e-07
-1.72228e-06
5.51951e-06
-7.60507e-07
2.60389e-08
7.18149e-06
1.17612e-06
7.31395e-07
1.25118e-05
3.02126e-06
1.40093e-06
3.19061e-05
1.89477e-06
8.04642e-07
1.46763e-05
-1.49124e-07
2.87003e-07
7.91671e-06
-6.77193e-08
-1.92321e-06
5.83978e-06
1.02822e-06
-9.36364e-07
-2.10445e-06
5.28404e-06
3.88168e-08
-4.87325e-07
6.43587e-06
8.67987e-08
4.70346e-07
9.18952e-06
7.01164e-07
1.74087e-06
1.30296e-05
9.58103e-08
6.03488e-07
9.6363e-06
-1.15122e-06
-1.99132e-07
6.8423e-06
-7.14732e-07
-2.39985e-06
5.42846e-06
1.48957e-06
-1.77515e-06
-2.49429e-06
5.01696e-06
5.6502e-07
-1.30547e-06
5.55126e-06
-1.47782e-08
-4.83631e-07
6.73219e-06
-6.07172e-08
3.557e-07
7.71526e-06
-7.88681e-07
-3.64277e-07
6.86682e-06
-1.76462e-06
-1.07559e-06
5.68173e-06
-1.62102e-06
-2.75128e-06
5.02098e-06
1.7622e-06
-2.70117e-06
-2.68061e-06
4.83357e-06
8.20249e-07
-2.21609e-06
5.08346e-06
2.97994e-08
-1.52439e-06
5.52871e-06
-4.41295e-07
-1.0033e-06
5.9159e-06
-1.1911e-06
-1.49592e-06
5.52598e-06
-2.0199e-06
-2.13562e-06
5.07366e-06
-2.86343e-06
-2.64148e-06
4.80784e-06
-3.4478e-06
-3.11342e-07
7.23073e-08
5.09916e-07
-3.64173e-06
-5.12131e-07
9.14417e-08
5.37394e-07
-3.86058e-06
-4.30328e-07
1.04599e-07
5.14531e-07
-4.04625e-06
-3.82099e-07
1.10336e-07
5.00475e-07
-4.24036e-06
-3.53737e-07
1.08093e-07
4.93297e-07
-4.45591e-06
-3.34004e-07
9.7796e-08
4.91921e-07
-4.66101e-06
-3.19849e-07
7.9962e-08
4.89905e-07
-3.10021e-07
5.63262e-08
4.86206e-07
-4.8315e-06
-3.78392e-06
-1.37809e-07
7.73701e-08
-3.91951e-06
-4.08463e-07
1.0034e-07
-4.09016e-06
-3.01807e-07
1.1694e-07
-4.27061e-06
-2.51478e-07
1.25606e-07
-4.45102e-06
-2.23135e-07
1.23259e-07
-4.64899e-06
-2.12025e-07
1.12384e-07
-4.82996e-06
-2.0594e-07
9.31516e-08
-1.97835e-07
6.81271e-08
-4.95423e-06
-3.67891e-06
-1.11729e-07
9.216e-08
-3.83522e-06
-1.88857e-07
9.51722e-08
-4.02073e-06
-1.51016e-07
1.1788e-07
-4.2101e-06
-1.21425e-07
1.34635e-07
-4.42214e-06
-1.05541e-07
1.3542e-07
-4.62998e-06
-8.62714e-08
1.25697e-07
-4.78992e-06
-7.70735e-08
1.06745e-07
-7.12575e-08
8.05888e-08
-4.90443e-06
-3.60123e-06
-7.2503e-08
1.11305e-07
-3.73937e-06
4.67725e-08
9.31032e-08
-3.89529e-06
-1.93473e-08
1.17951e-07
-4.08982e-06
-2.65368e-08
1.39e-07
-4.24816e-06
-2.37368e-08
1.41127e-07
-4.43738e-06
-1.93578e-08
1.31927e-07
-4.59842e-06
-1.18057e-08
1.13363e-07
-1.34056e-09
8.7981e-08
-4.67097e-06
-3.65228e-06
-4.20823e-08
8.49895e-08
-3.83229e-06
2.32098e-07
9.65466e-08
-4.00794e-06
1.43605e-07
1.19757e-07
-4.20677e-06
1.09548e-07
1.40123e-07
-4.40167e-06
9.65198e-08
1.41328e-07
-4.59997e-06
9.63732e-08
1.31818e-07
-4.75997e-06
1.00995e-07
1.13019e-07
1.04013e-07
8.65029e-08
-4.85963e-06
-3.69775e-06
1.0801e-07
7.57069e-08
-3.93351e-06
2.93976e-07
1.00707e-07
-4.0578e-06
2.72065e-07
1.19075e-07
-4.24258e-06
2.33968e-07
1.27822e-07
-4.42296e-06
2.17421e-07
1.25947e-07
-4.62222e-06
2.09913e-07
1.14922e-07
-4.79512e-06
2.07452e-07
9.61343e-08
2.05989e-07
7.1259e-08
-4.90009e-06
-3.40741e-06
7.17028e-08
3.14809e-07
-3.60318e-06
9.08598e-08
3.72326e-07
-3.77786e-06
1.03365e-07
3.84339e-07
-3.9738e-06
1.0769e-07
3.75716e-07
-4.18723e-06
1.03706e-07
3.74936e-07
-4.38709e-06
9.18579e-08
3.74002e-07
-4.59146e-06
7.3205e-08
3.72395e-07
4.94512e-08
3.70768e-07
-4.76535e-06
-2.72728e-06
-3.52027e-07
3.19582e-07
5.16859e-07
-3.14473e-06
-3.6239e-07
3.58238e-07
5.09009e-07
-3.56814e-06
-3.4917e-07
3.74015e-07
4.97539e-07
-3.97975e-06
-3.34839e-07
3.6441e-07
4.86895e-07
-4.36235e-06
-3.21189e-07
3.31024e-07
4.76253e-07
-4.70265e-06
-3.07967e-07
2.77675e-07
4.64741e-07
-4.99218e-06
-2.94879e-07
2.09737e-07
4.51918e-07
-2.81759e-07
1.3409e-07
4.3781e-07
-5.22758e-06
-2.8513e-06
-2.73901e-07
4.01569e-07
-3.29118e-06
-2.60065e-07
4.30209e-07
-3.73983e-06
-2.36582e-07
4.45463e-07
-4.17033e-06
-2.17792e-07
4.32093e-07
-4.5618e-06
-2.02119e-07
3.90148e-07
-4.89711e-06
-1.88886e-07
3.2442e-07
-5.16684e-06
-1.7745e-07
2.42189e-07
-1.67035e-07
1.5225e-07
-5.36779e-06
-2.78282e-06
-1.80626e-07
4.87341e-07
-3.27013e-06
-1.65188e-07
4.78129e-07
-3.75022e-06
-1.46279e-07
4.97237e-07
-4.20181e-06
-1.30393e-07
4.88377e-07
-4.60623e-06
-1.17088e-07
4.45448e-07
-4.94593e-06
-1.05578e-07
3.73806e-07
-5.20947e-06
-9.57096e-08
2.82416e-07
-8.72541e-08
1.8206e-07
-5.39467e-06
-2.71597e-06
-9.52212e-08
5.44279e-07
-3.2234e-06
-7.00229e-08
4.96915e-07
-3.71695e-06
-6.11583e-08
5.17105e-07
-4.17712e-06
-5.36087e-08
5.11768e-07
-4.58703e-06
-4.58264e-08
4.7023e-07
-4.92789e-06
-3.82009e-08
3.97398e-07
-5.19019e-06
-3.09063e-08
3.03652e-07
-2.40551e-08
2.00378e-07
-5.37068e-06
-2.74548e-06
-2.08967e-09
4.79796e-07
-3.23553e-06
2.13342e-08
4.85291e-07
-3.7185e-06
2.49474e-08
5.0631e-07
-4.16849e-06
2.77915e-08
4.98008e-07
-4.5692e-06
3.10919e-08
4.55638e-07
-4.90291e-06
3.49405e-08
3.84435e-07
-5.15963e-06
3.90735e-08
2.93509e-07
4.30419e-08
1.9357e-07
-5.3378e-06
-2.75665e-06
1.08457e-07
4.03716e-07
-3.21837e-06
1.38163e-07
4.36892e-07
-3.67791e-06
1.43544e-07
4.5235e-07
-4.11185e-06
1.43856e-07
4.3856e-07
-4.50121e-06
1.43732e-07
3.96757e-07
-4.83099e-06
1.43459e-07
3.31598e-07
-5.09277e-06
1.43011e-07
2.50191e-07
1.42251e-07
1.61011e-07
-5.28405e-06
-2.60947e-06
3.18359e-07
3.19813e-07
-3.06094e-06
3.54849e-07
3.20693e-07
-3.50573e-06
3.67456e-07
3.18835e-07
-3.92863e-06
3.54874e-07
3.15029e-07
-4.31494e-06
3.19365e-07
3.10467e-07
-4.65227e-06
2.64817e-07
3.04985e-07
-4.93303e-06
1.96598e-07
2.9852e-07
1.21245e-07
2.91285e-07
-5.15503e-06
-2.73186e-06
-3.29673e-07
7.97509e-07
4.81659e-07
-3.41705e-06
-2.92166e-07
8.79601e-07
4.56264e-07
-4.13722e-06
-2.5502e-07
9.17136e-07
4.32235e-07
-4.8644e-06
-2.25219e-07
9.07062e-07
4.09839e-07
-5.57125e-06
-2.01201e-07
8.50489e-07
3.8864e-07
-6.22956e-06
-1.81491e-07
7.49019e-07
3.68496e-07
-6.80824e-06
-1.65264e-07
6.04234e-07
3.49438e-07
-1.51849e-07
4.21904e-07
3.31447e-07
-7.27568e-06
-2.74856e-06
-2.4606e-07
1.03143e-06
-3.50094e-06
-2.00021e-07
1.0905e-06
-4.26945e-06
-1.59809e-07
1.11869e-06
-5.0294e-06
-1.28679e-07
1.09544e-06
-5.75425e-06
-1.04756e-07
1.01851e-06
-6.41448e-06
-8.60821e-08
8.89231e-07
-6.97531e-06
-7.1633e-08
7.09382e-07
-6.08561e-08
4.86373e-07
-7.40048e-06
-2.58431e-06
-1.40358e-07
1.23225e-06
-3.41957e-06
-1.27392e-07
1.24078e-06
-4.24206e-06
-1.06949e-07
1.26686e-06
-5.03798e-06
-8.80442e-08
1.24361e-06
-5.78551e-06
-7.19476e-08
1.1601e-06
-6.45634e-06
-5.8233e-08
1.01674e-06
-7.01444e-06
-4.67621e-08
8.15613e-07
-3.74631e-08
5.6533e-07
-7.42116e-06
-2.47568e-06
-4.88396e-08
1.33417e-06
-3.34565e-06
-5.79542e-08
1.29746e-06
-4.19407e-06
-6.44805e-08
1.32312e-06
-5.00733e-06
-6.60493e-08
1.30301e-06
-5.76622e-06
-6.28372e-08
1.21995e-06
-6.44375e-06
-5.70913e-08
1.07377e-06
-7.0033e-06
-5.03288e-08
8.66774e-07
-4.33258e-08
6.07951e-07
-7.40502e-06
-2.60653e-06
1.52826e-08
1.2239e-06
-3.41545e-06
-1.40948e-08
1.25025e-06
-4.22387e-06
-2.99949e-08
1.28013e-06
-5.0114e-06
-3.97566e-08
1.25912e-06
-5.75325e-06
-4.34939e-08
1.17805e-06
-6.42013e-06
-4.31897e-08
1.03738e-06
-6.97541e-06
-4.03837e-08
8.38874e-07
-3.59984e-08
5.9072e-07
-7.37985e-06
-2.71696e-06
9.4056e-08
1.03303e-06
-3.46755e-06
7.25479e-08
1.1009e-06
-4.23067e-06
5.27862e-08
1.1327e-06
-4.98423e-06
3.95422e-08
1.1129e-06
-5.70255e-06
3.15098e-08
1.04011e-06
-6.35682e-06
2.71997e-08
9.155e-07
-6.91296e-06
2.55631e-08
7.40404e-07
2.5781e-08
5.21613e-07
-7.33533e-06
-2.67292e-06
7.94169e-07
2.78508e-07
-3.37935e-06
8.76021e-07
2.57924e-07
-4.11215e-06
9.12837e-07
2.40234e-07
-4.84483e-06
9.03065e-07
2.24157e-07
-5.55162e-06
8.48021e-07
2.09727e-07
-6.20577e-06
7.49172e-07
1.97011e-07
-6.77751e-06
6.07827e-07
1.86055e-07
4.29242e-07
1.7682e-07
-7.23659e-06
-3.64871e-06
-2.51897e-07
1.725e-06
4.26128e-07
-4.90985e-06
-1.49547e-07
1.92761e-06
3.6315e-07
-6.26471e-06
-7.33138e-08
2.03506e-06
3.10502e-07
-7.62662e-06
-2.09523e-08
2.02513e-06
2.64917e-07
-8.89122e-06
1.33548e-08
1.87589e-06
2.25904e-07
-9.93953e-06
3.48898e-08
1.57037e-06
1.92076e-07
-1.06473e-05
4.90449e-08
1.10114e-06
1.61787e-07
5.80495e-08
4.70414e-07
1.33093e-07
-1.0887e-05
-3.56416e-06
-1.89769e-07
2.22632e-06
-4.93109e-06
-9.43767e-08
2.40236e-06
-6.36038e-06
-2.13302e-08
2.49593e-06
-7.77797e-06
2.68736e-08
2.46516e-06
-9.08354e-06
5.88925e-08
2.27853e-06
-1.01496e-05
7.83581e-08
1.91182e-06
-1.08298e-05
8.73866e-08
1.35121e-06
8.81526e-08
5.91131e-07
-1.09647e-05
-3.26938e-06
-1.29016e-07
2.5991e-06
-4.75839e-06
-9.38418e-08
2.72927e-06
-6.27166e-06
-6.03068e-08
2.81912e-06
-7.75364e-06
-3.38693e-08
2.78629e-06
-9.10712e-06
-1.3878e-08
2.5863e-06
-1.02008e-05
1.39477e-09
2.18732e-06
-1.08771e-05
1.0029e-08
1.56931e-06
1.5186e-08
7.18813e-07
-1.09577e-05
-3.06335e-06
-2.83522e-08
2.76077e-06
-4.6296e-06
-8.06576e-08
2.85064e-06
-6.19201e-06
-1.13928e-07
2.93935e-06
-7.70391e-06
-1.2862e-07
2.90968e-06
-9.07714e-06
-1.29605e-07
2.70889e-06
-1.0181e-05
-1.22621e-07
2.30169e-06
-1.08589e-05
-1.10724e-07
1.66535e-06
-9.54911e-08
7.82991e-07
-1.09232e-05
-3.3289e-06
-3.38018e-08
2.59142e-06
-4.77547e-06
-1.20724e-07
2.73684e-06
-6.26516e-06
-1.76405e-07
2.83219e-06
-7.73309e-06
-2.05254e-07
2.80355e-06
-9.07723e-06
-2.15243e-07
2.60772e-06
-1.0163e-05
-2.12425e-07
2.21291e-06
-1.08334e-05
-2.00133e-07
1.59867e-06
-1.80488e-07
7.50239e-07
-1.09079e-05
-3.57948e-06
-1.30074e-08
2.22692e-06
-4.92395e-06
-8.75112e-08
2.41233e-06
-6.33807e-06
-1.41283e-07
2.51177e-06
-7.74514e-06
-1.72162e-07
2.48703e-06
-9.04035e-06
-1.86937e-07
2.30712e-06
-1.00943e-05
-1.90532e-07
1.94766e-06
-1.07622e-05
-1.86153e-07
1.39427e-06
-1.76187e-07
6.39164e-07
-1.0884e-05
-3.66667e-06
1.72008e-06
1.92041e-07
-4.93999e-06
1.924e-06
1.38095e-07
-6.29614e-06
2.03266e-06
9.51362e-08
-7.64951e-06
2.02484e-06
5.95783e-08
-8.89791e-06
1.87873e-06
3.08368e-08
-9.92515e-06
1.57752e-06
8.35789e-09
-1.06075e-05
1.11374e-06
-9.78694e-09
4.8814e-07
-2.37814e-08
-1.08188e-05
-4.01629e-06
4.82134e-08
1.13887e-07
2.84377e-06
-5.54646e-06
2.0901e-07
-9.07926e-09
3.25799e-06
-7.2934e-06
3.45066e-07
-1.35838e-07
3.57282e-06
-9.23024e-06
4.53153e-07
-2.44252e-07
3.7531e-06
-1.13257e-05
5.36542e-07
-3.36486e-07
3.77127e-06
-1.35489e-05
5.93011e-07
-4.07001e-07
3.60757e-06
-1.58678e-05
6.12315e-07
-4.49889e-07
3.25759e-06
5.87308e-07
-4.59898e-07
-1.83057e-05
2.78081e-06
-4.04671e-06
2.34711e-08
3.66275e-06
-5.64231e-06
1.66427e-07
4.04042e-06
-7.41625e-06
2.82084e-07
4.33271e-06
-9.35667e-06
3.70566e-07
4.48815e-06
-1.1441e-05
4.34789e-07
4.46468e-06
-1.36389e-05
4.73948e-07
4.22887e-06
-1.59273e-05
4.83479e-07
3.76851e-06
4.58212e-07
-1.83668e-05
3.15987e-06
-3.85305e-06
-3.20266e-08
4.24765e-06
-5.56082e-06
3.23266e-08
4.57093e-06
-7.3963e-06
8.79409e-08
4.84868e-06
-9.37373e-06
1.36435e-07
4.99785e-06
-1.14842e-05
1.72803e-07
4.95879e-06
-1.37021e-05
1.95744e-07
4.68342e-06
-1.60034e-05
2.0324e-07
4.151e-06
1.93555e-07
-1.84689e-05
3.44905e-06
-3.66219e-06
-2.54742e-08
4.49311e-06
-5.46509e-06
-8.37716e-08
4.76965e-06
-7.35745e-06
-1.17861e-07
5.03772e-06
-9.36702e-06
-1.30192e-07
5.18597e-06
-1.14992e-05
-1.30389e-07
5.14428e-06
-1.37334e-05
-1.25502e-07
4.85723e-06
-1.60469e-05
-1.17987e-07
4.30014e-06
-1.07075e-07
-1.85286e-05
3.56545e-06
-3.94081e-06
-1.25732e-07
4.23266e-06
-5.62034e-06
-2.36006e-07
4.56852e-06
-7.45024e-06
-3.07509e-07
4.85167e-06
-9.43209e-06
-3.49369e-07
5.00451e-06
-1.15513e-05
-3.71849e-07
4.9683e-06
-1.37791e-05
-3.79917e-07
4.69512e-06
-1.60905e-05
-3.72581e-07
4.16477e-06
-3.46045e-07
-1.85663e-05
3.46514e-06
-4.14975e-06
-1.50267e-07
3.64959e-06
-5.74124e-06
-2.66964e-07
4.03488e-06
-7.52195e-06
-3.46568e-07
4.3316e-06
-9.47581e-06
-3.98867e-07
4.49053e-06
-1.15778e-05
-4.32973e-07
4.47033e-06
-1.37959e-05
-4.51795e-07
4.23774e-06
-1.61064e-05
-4.49103e-07
3.78134e-06
-4.20672e-07
-1.85697e-05
3.17728e-06
-4.17009e-06
4.94128e-08
2.82727e-06
-5.71728e-06
-3.52084e-08
3.23966e-06
-7.47754e-06
-1.05397e-07
3.55182e-06
-9.42038e-06
-1.60883e-07
3.72983e-06
-1.1519e-05
-2.0255e-07
3.74693e-06
-1.37464e-05
-2.30658e-07
3.58388e-06
-1.60748e-05
-2.44251e-07
3.23727e-06
-2.42929e-07
-1.85304e-05
2.76609e-06
-2.6632e-06
3.93562e-07
7.18797e-08
-1.70742e-07
-2.96096e-06
3.01703e-07
8.50485e-08
-1.59256e-07
-3.23423e-06
2.81155e-07
9.13429e-08
-9.26875e-08
-3.48591e-06
2.77241e-07
8.96071e-08
-6.22653e-08
-3.76791e-06
2.78064e-07
7.89177e-08
-4.33007e-08
-4.02074e-06
2.6138e-07
6.07688e-08
-2.40908e-08
-4.23925e-06
2.4252e-07
3.63125e-08
-6.59859e-09
2.38183e-07
7.4721e-09
5.55495e-09
-4.42693e-06
-2.95843e-06
3.88102e-07
9.58352e-08
-3.11257e-06
2.82848e-07
1.08081e-07
-3.25995e-06
3.19306e-07
1.20559e-07
-3.3588e-06
3.14217e-07
1.23004e-07
-3.60934e-06
2.89728e-07
1.13932e-07
-3.90603e-06
2.98635e-07
9.86512e-08
-4.02479e-06
3.2441e-07
7.93616e-08
3.3217e-07
5.54236e-08
-4.1519e-06
-3.22209e-06
2.45654e-07
1.3917e-07
-3.13931e-06
1.7392e-07
1.38275e-07
-3.19559e-06
2.01912e-07
1.59778e-07
-3.2746e-06
2.08472e-07
1.76417e-07
-3.29884e-06
2.20638e-07
1.82835e-07
-3.38347e-06
2.37506e-07
1.76099e-07
-3.49048e-06
2.44921e-07
1.59666e-07
2.44023e-07
1.37315e-07
-3.54691e-06
-3.36588e-06
9.83102e-08
1.92117e-07
-3.27028e-06
6.92187e-08
1.73826e-07
-3.28381e-06
3.81978e-08
2.08287e-07
-3.3024e-06
2.04647e-08
2.41243e-07
-3.27569e-06
-1.48535e-08
2.64413e-07
-3.23806e-06
-5.28807e-08
2.74739e-07
-3.18875e-06
-7.86334e-08
2.73657e-07
-9.70435e-08
2.64985e-07
-3.11469e-06
-3.34003e-06
-7.9613e-08
1.56814e-07
-3.22165e-06
-4.38995e-09
1.53903e-07
-3.18903e-06
-7.94845e-08
1.78858e-07
-3.21657e-06
-1.07808e-07
1.97682e-07
-3.24616e-06
-1.31425e-07
2.0553e-07
-3.29452e-06
-1.61633e-07
2.00918e-07
-3.38292e-06
-1.97878e-07
1.85227e-07
-2.19969e-07
1.62446e-07
-3.44278e-06
-3.0561e-06
-9.78302e-08
1.04699e-07
-3.10464e-06
-1.78694e-08
1.1721e-07
-3.2069e-06
-8.0666e-08
1.28442e-07
-3.35727e-06
-1.05113e-07
1.30378e-07
-3.61537e-06
-1.13293e-07
1.22525e-07
-3.89305e-06
-1.16744e-07
1.07751e-07
-4.02005e-06
-1.15815e-07
8.74611e-08
-1.24909e-07
6.07908e-08
-4.14757e-06
-2.85626e-06
7.70387e-08
9.6371e-08
-3.06617e-06
9.05939e-08
1.07808e-07
-3.309e-06
9.71364e-08
1.07149e-07
-3.59452e-06
9.41517e-08
1.15355e-07
-3.88775e-06
8.2635e-08
1.27363e-07
-4.14879e-06
6.3185e-08
1.3669e-07
-4.39303e-06
3.71718e-08
1.42395e-07
6.61958e-09
1.43226e-07
-4.60184e-06
-2.03263e-06
2.10671e-07
3.22821e-07
-1.57158e-08
-2.48723e-06
1.91918e-07
3.53873e-07
-9.05774e-09
-2.94675e-06
1.86569e-07
3.59793e-07
6.43909e-10
-3.39054e-06
1.83295e-07
3.38609e-07
8.63595e-09
-3.80159e-06
1.80306e-07
2.92526e-07
1.49822e-08
-4.1653e-06
1.77223e-07
2.25965e-07
1.98089e-08
-4.47154e-06
1.73891e-07
1.44885e-07
2.30246e-08
1.70828e-07
5.60091e-08
2.46216e-08
-4.71569e-06
-2.07927e-06
2.0854e-07
4.33816e-07
-2.47754e-06
2.28326e-07
4.64032e-07
-2.89568e-06
2.41465e-07
4.77331e-07
-3.30471e-06
2.49365e-07
4.60292e-07
-3.68193e-06
2.54822e-07
4.12578e-07
-4.01334e-06
2.59789e-07
3.39943e-07
-4.27974e-06
2.6463e-07
2.49483e-07
2.6835e-07
1.49095e-07
-4.4745e-06
-1.92708e-06
1.64089e-07
5.49395e-07
-2.29941e-06
1.70114e-07
5.63743e-07
-2.6715e-06
1.74269e-07
5.95697e-07
-3.02697e-06
1.73807e-07
6.01151e-07
-3.33852e-06
1.71976e-07
5.73589e-07
-3.58987e-06
1.6998e-07
5.16054e-07
-3.77045e-06
1.67605e-07
4.36691e-07
1.65277e-07
3.4577e-07
-3.87689e-06
-1.78588e-06
2.036e-07
6.35891e-07
-2.18965e-06
1.25056e-07
6.18054e-07
-2.55707e-06
8.15639e-08
6.63557e-07
-2.88447e-06
5.02781e-08
6.87657e-07
-3.15139e-06
2.19843e-08
6.80408e-07
-3.34493e-06
-4.61212e-09
6.43344e-07
-3.46151e-06
-2.45018e-08
5.82766e-07
-4.28014e-08
5.08624e-07
-3.49719e-06
-1.96419e-06
1.27372e-07
5.74419e-07
-2.32052e-06
5.09254e-08
5.76704e-07
-2.67401e-06
-3.94964e-10
6.09143e-07
-3.01315e-06
-3.49177e-08
6.16278e-07
-3.31474e-06
-6.49207e-08
5.903e-07
-3.56108e-06
-9.22348e-08
5.34222e-07
-3.73895e-06
-1.16705e-07
4.55171e-07
-1.38272e-07
3.64061e-07
-3.84651e-06
-2.20134e-06
6.11932e-08
4.45085e-07
-2.56072e-06
4.84983e-08
4.72407e-07
-2.9522e-06
2.83906e-08
4.86082e-07
-3.34502e-06
1.23191e-08
4.69821e-07
-3.71458e-06
-7.43123e-10
4.22674e-07
-4.04426e-06
-1.21244e-08
3.49228e-07
-4.31378e-06
-2.22084e-08
2.56485e-07
-3.17943e-08
1.5359e-07
-4.51683e-06
-2.17989e-06
3.30762e-07
1.92364e-07
-2.59381e-06
3.63482e-07
1.84883e-07
-3.02423e-06
3.71032e-07
1.80494e-07
-3.45095e-06
3.50959e-07
1.78691e-07
-3.85458e-06
3.05258e-07
1.772e-07
-4.21823e-06
2.3814e-07
1.74651e-07
-4.53028e-06
1.5564e-07
1.70422e-07
6.52759e-08
1.64338e-07
-4.78523e-06
-2.10872e-06
1.34276e-07
8.14345e-07
3.18852e-08
-2.82591e-06
1.57071e-07
8.90241e-07
2.41147e-08
-3.57536e-06
1.69996e-07
9.19027e-07
2.04601e-08
-4.32664e-06
1.728e-07
8.99087e-07
1.80808e-08
-5.05131e-06
1.69379e-07
8.31751e-07
1.60964e-08
-5.72099e-06
1.62602e-07
7.1898e-07
1.40964e-08
-6.30535e-06
1.54369e-07
5.62926e-07
1.19538e-08
1.4606e-07
3.70059e-07
9.73585e-09
-6.77524e-06
-1.96059e-06
1.42292e-07
1.08894e-06
-2.68625e-06
1.90301e-07
1.15646e-06
-3.43662e-06
2.12152e-07
1.18548e-06
-4.18385e-06
2.18496e-07
1.1617e-06
-4.90037e-06
2.15359e-07
1.08304e-06
-5.55517e-06
2.06926e-07
9.50451e-07
-6.11251e-06
1.95814e-07
7.65436e-07
1.83752e-07
5.3521e-07
-6.5363e-06
-1.61172e-06
8.7965e-08
1.31802e-06
-2.34737e-06
1.18425e-07
1.37127e-06
-3.08835e-06
1.31421e-07
1.41746e-06
-3.81466e-06
1.32299e-07
1.41354e-06
-4.50262e-06
1.25971e-07
1.35078e-06
-5.12367e-06
1.16168e-07
1.22781e-06
-5.64132e-06
1.05344e-07
1.04483e-06
9.50625e-08
8.09099e-07
-6.01596e-06
-1.28413e-06
1.31312e-07
1.43868e-06
-2.07912e-06
6.62852e-08
1.46531e-06
-2.83546e-06
2.71624e-08
1.52415e-06
-3.55191e-06
-1.95414e-09
1.53787e-06
-4.21781e-06
-2.11386e-08
1.49312e-06
-4.80778e-06
-3.79776e-08
1.38732e-06
-5.28828e-06
-5.10046e-08
1.21967e-06
-6.06777e-08
9.97301e-07
-5.62115e-06
-1.54987e-06
1.01363e-07
1.33724e-06
-2.2968e-06
1.17628e-08
1.37852e-06
-3.04637e-06
-3.61682e-08
1.42211e-06
-3.78033e-06
-6.81242e-08
1.41625e-06
-4.47327e-06
-8.92912e-08
1.3511e-06
-5.09949e-06
-1.02632e-07
1.22503e-06
-5.6233e-06
-1.10389e-07
1.03843e-06
-1.14234e-07
7.98974e-07
-6.00454e-06
-1.9817e-06
9.05272e-08
1.09797e-06
-2.69931e-06
4.14142e-08
1.1602e-06
-3.44257e-06
6.56325e-09
1.18674e-06
-4.18649e-06
-1.39097e-08
1.15953e-06
-4.9025e-06
-2.68518e-08
1.07618e-06
-5.55865e-06
-3.51023e-08
9.37838e-07
-6.11856e-06
-4.04494e-08
7.46515e-07
-4.42625e-08
5.10203e-07
-6.54505e-06
-2.15526e-06
8.23375e-07
2.14144e-07
-2.84512e-06
9.00258e-07
1.94555e-07
-3.57792e-06
9.2955e-07
1.80919e-07
-4.31994e-06
9.08857e-07
1.70211e-07
-5.04139e-06
8.39474e-07
1.60346e-07
-5.71235e-06
7.23546e-07
1.50452e-07
-6.30095e-06
5.63557e-07
1.40278e-07
3.66513e-07
1.29844e-07
-6.77625e-06
-3.30766e-06
1.74078e-07
1.74517e-06
4.05023e-08
-4.59955e-06
2.15944e-07
1.94617e-06
2.06147e-08
-5.96885e-06
2.31344e-07
2.0504e-06
6.90445e-09
-7.32837e-06
2.27123e-07
2.03693e-06
-5.29957e-09
-8.57489e-06
2.11001e-07
1.88336e-06
-1.5985e-08
-9.59072e-06
1.88015e-07
1.57207e-06
-2.51911e-08
-1.02507e-05
1.61333e-07
1.09492e-06
-3.33767e-08
1.33448e-07
4.53794e-07
-4.07654e-08
-1.04271e-05
-3.04407e-06
1.87699e-07
2.28169e-06
-4.38142e-06
2.37877e-07
2.47203e-06
-5.79169e-06
2.53998e-07
2.57297e-06
-7.19611e-06
2.44296e-07
2.54881e-06
-8.48825e-06
2.18721e-07
2.36743e-06
-9.53619e-06
1.84005e-07
2.00246e-06
-1.01911e-05
1.44173e-07
1.43758e-06
1.01815e-07
6.64083e-07
-1.02884e-05
-2.55711e-06
7.40427e-08
2.67453e-06
-3.91781e-06
1.14184e-07
2.85574e-06
-5.34567e-06
1.27948e-07
2.97133e-06
-6.77184e-06
1.21841e-07
2.96212e-06
-8.09238e-06
1.05213e-07
2.78476e-06
-9.16902e-06
8.41102e-08
2.40436e-06
-9.83909e-06
6.17063e-08
1.7974e-06
3.95764e-08
9.43815e-07
-9.9116e-06
-2.1311e-06
5.00552e-08
2.84795e-06
-3.55777e-06
-2.63532e-09
3.01036e-06
-5.01373e-06
-2.67974e-08
3.13501e-06
-6.45008e-06
-4.43436e-08
3.14042e-06
-7.77581e-06
-5.3234e-08
2.97725e-06
-8.85632e-06
-5.49276e-08
2.60688e-06
-9.52579e-06
-5.12821e-08
2.00218e-06
-4.38729e-08
1.13601e-06
-9.58101e-06
-2.43894e-06
-5.884e-09
2.68661e-06
-3.84168e-06
-7.82445e-08
2.85677e-06
-5.29282e-06
-1.20495e-07
2.96709e-06
-6.73745e-06
-1.36336e-07
2.95281e-06
-8.07549e-06
-1.3432e-07
2.7701e-06
-9.16912e-06
-1.20623e-07
2.38431e-06
-9.85484e-06
-9.93398e-08
1.77224e-06
-7.32517e-08
9.15077e-07
-9.94151e-06
-2.97602e-06
2.09081e-08
2.28817e-06
-4.32526e-06
-4.05448e-08
2.47167e-06
-5.74788e-06
-7.78048e-08
2.56692e-06
-7.16671e-06
-9.39695e-08
2.53612e-06
-8.47525e-06