/*--------------------------------*- C++ -*----------------------------------*\
| =========                 |                                                 |
| \\      /  F ield         | OpenFOAM: The Open Source CFD Toolbox           |
|  \\    /   O peration     | Version:  plus.master                           |
|   \\  /    A nd           | Web:      www.OpenFOAM.com                      |
|    \\/     M anipulation  |                                                 |
\*---------------------------------------------------------------------------*/
FoamFile
{
    version     2.0;
    format      ascii;
    class       volVectorField;
    location    "6";
    object      U;
}
// * * * * * * * * * * * * * * * * * * * * * * * * * * * * * * * * * * * * * //

dimensions      [0 1 -1 0 0 0 0];

internalField   nonuniform List<vector> 
47285
(
(0.0531031 0.0494328 -0.00369264)
(0.041859 0.0572964 0.00193675)
(0.0240656 0.0638406 0.0156567)
(-0.00977303 0.0636267 0.0235325)
(-0.0384196 0.0602435 0.0116592)
(-0.0544375 0.0530081 -0.000396148)
(-0.0642037 0.0452964 -0.00441139)
(0.0597809 0.0392138 0.000705768)
(0.081725 0.0794691 0.0595357)
(0.0701282 0.102895 0.109777)
(-0.0148065 0.10064 0.129001)
(-0.088161 0.0981751 0.100034)
(-0.090127 0.0724867 0.0487377)
(-0.0693822 0.0370108 -0.00237701)
(0.065625 0.0219468 0.0130095)
(0.104062 0.0671222 0.100843)
(0.171472 0.173002 0.414517)
(-0.0246125 0.197832 0.57459)
(-0.189162 0.166494 0.386038)
(-0.102298 0.062209 0.0833021)
(-0.0711934 0.0210261 0.00731486)
(0.0632468 -0.00723336 0.0210337)
(0.100349 -0.00942907 0.127247)
(0.183023 -0.00804491 0.60151)
(-0.05503 0.00795702 1.74626)
(-0.207658 -0.00702556 0.512851)
(-0.0930926 -0.00724478 0.104171)
(-0.0661444 -0.00564679 0.0141868)
(0.0630627 -0.0318236 0.0104556)
(0.102122 -0.0787757 0.0967344)
(0.164296 -0.179734 0.406005)
(-0.0295453 -0.193831 0.571026)
(-0.184717 -0.172093 0.372907)
(-0.100533 -0.070809 0.0793423)
(-0.0688702 -0.0284877 0.00534978)
(0.0562917 -0.0460531 -0.000883296)
(0.0777331 -0.0847887 0.052405)
(0.0635225 -0.101426 0.0976532)
(-0.0186744 -0.0941872 0.11838)
(-0.0851291 -0.0966439 0.0879757)
(-0.0879217 -0.0767084 0.0442046)
(-0.0658449 -0.0421181 -0.0033786)
(0.0490459 -0.0549066 -0.00466431)
(0.0392219 -0.0636078 -0.00118)
(0.0195118 -0.0671946 0.0109991)
(-0.0127199 -0.0626762 0.0178712)
(-0.0374693 -0.0639811 0.00706764)
(-0.0540168 -0.0583488 -0.00257312)
(-0.063991 -0.0509764 -0.00494993)
(0.0358181 0.0262491 0.0229538)
(0.0281649 0.0305624 0.0391708)
(0.0157767 0.0222392 0.0771681)
(-0.0055814 0.0201393 0.0984204)
(-0.0258521 0.0243509 0.065721)
(-0.0388172 0.0279722 0.0331172)
(-0.0461335 0.0229862 0.021238)
(0.0373855 0.0170903 0.0363205)
(0.042914 0.0313483 0.152213)
(0.0347652 0.0277443 0.266289)
(-0.00484748 0.0248909 0.308329)
(-0.0399451 0.0276969 0.230389)
(-0.0476541 0.0284327 0.123953)
(-0.0473396 0.015869 0.0288561)
(0.0243691 0.00454254 0.0699217)
(0.0271402 0.0172207 0.250165)
(0.0561211 0.053118 0.935179)
(-0.0174094 0.0422287 1.22248)
(-0.0684822 0.0564758 0.779313)
(-0.0332625 0.0219989 0.193731)
(-0.0400777 0.00774332 0.0523823)
(0.012594 -0.00660724 0.0932358)
(0.0168336 -0.00887041 0.331227)
(0.0191195 -0.0161031 1.43216)
(-0.0956692 -0.0217501 2.82329)
(-0.0799089 -0.0123759 0.955914)
(-0.0282921 -0.00658813 0.227575)
(-0.0374571 -0.00500366 0.0659492)
(0.0231507 -0.0155186 0.061287)
(0.0241173 -0.0295348 0.239433)
(0.050615 -0.064071 0.918925)
(-0.0203269 -0.058734 1.20266)
(-0.0642234 -0.0678954 0.737267)
(-0.0308563 -0.0312251 0.180805)
(-0.0395569 -0.0157302 0.0458275)
(0.0330981 -0.0251874 0.0322932)
(0.0338948 -0.0370666 0.137551)
(0.0247345 -0.0250416 0.231902)
(-0.00731607 -0.019659 0.263316)
(-0.0349156 -0.0261463 0.196191)
(-0.0433741 -0.0340193 0.111767)
(-0.0445755 -0.0228205 0.0261966)
(0.0308438 -0.0317208 0.0217637)
(0.0217497 -0.0336007 0.0341787)
(0.0097566 -0.0247353 0.0652089)
(-0.00694179 -0.0221446 0.0789365)
(-0.0221785 -0.0278786 0.0528887)
(-0.034443 -0.0319907 0.0291231)
(-0.0423773 -0.0285522 0.021122)
(0.0279944 0.0167658 0.0691701)
(0.0186243 0.0122077 0.0928996)
(0.00915768 0.00125117 0.151453)
(-0.000518049 -0.00568259 0.196136)
(-0.0137131 0.00769181 0.138168)
(-0.028073 0.015263 0.0863355)
(-0.0392396 0.0172096 0.0656054)
(0.0233094 0.00598477 0.0871906)
(0.0147554 0.0026831 0.183525)
(0.0128463 -0.00965314 0.334314)
(0.00450422 -0.0138349 0.446043)
(-0.0101022 -0.00235934 0.300871)
(-0.0237521 0.00832844 0.160785)
(-0.0369645 0.00860057 0.0804002)
(0.00900287 -0.00342013 0.126695)
(-0.00566182 -0.0053703 0.302638)
(0.016295 -0.0101921 1.05278)
(0.0106268 -0.0294842 1.57934)
(-0.00868633 0.0109069 0.846029)
(-0.00634112 0.00649508 0.264246)
(-0.0271723 0.00255638 0.115798)
(-0.00395673 -0.00325726 0.159431)
(-0.0166714 -0.00551725 0.406263)
(-0.0124704 -0.0198741 1.73424)
(-0.0198402 -0.0547575 3.2368)
(-0.00890463 -0.0131625 1.16465)
(-0.0035505 -0.00411837 0.332066)
(-0.0231383 -0.00244625 0.137467)
(0.012082 -0.00399884 0.114656)
(-0.00435978 -0.003048 0.276444)
(0.0147173 -0.00303084 0.945246)
(0.00871349 -0.0119767 1.35312)
(-0.00973128 -0.0216379 0.743867)
(-0.00856634 -0.0132711 0.238215)
(-0.0298981 -0.00819987 0.106688)
(0.0226911 -0.0141734 0.0812559)
(0.0135403 -0.0110594 0.158248)
(0.0118535 0.00613516 0.281179)
(0.0026141 0.00773022 0.347721)
(-0.0134672 -0.00175172 0.247541)
(-0.0254871 -0.0156372 0.139418)
(-0.0370021 -0.0160128 0.0752375)
(0.0259285 -0.0237652 0.0668341)
(0.0157309 -0.0195117 0.0855296)
(0.00705578 -0.00951369 0.126642)
(-0.0017889 -0.00767537 0.150993)
(-0.013943 -0.0166641 0.114656)
(-0.0268845 -0.0226852 0.0793251)
(-0.0375217 -0.0245791 0.0639525)
(0.0355443 0.0245261 0.155247)
(0.018868 0.0122138 0.179248)
(0.00183363 -0.00616537 0.236106)
(-0.00094825 -0.0252695 0.293621)
(-0.00751749 -0.0038489 0.231187)
(-0.0273122 0.0118328 0.175839)
(-0.0444451 0.0230981 0.151517)
(0.0273106 0.0102519 0.171899)
(0.00745753 -0.00321163 0.244089)
(-0.00338289 -0.0231408 0.387873)
(0.00570895 -0.0391684 0.523321)
(0.0064293 -0.0183959 0.380288)
(-0.0145875 -0.0020387 0.242819)
(-0.0377107 0.00903467 0.168458)
(0.0117236 -0.00136582 0.2024)
(-0.01416 -0.0111457 0.345511)
(-0.0107406 -0.0324681 0.791107)
(0.0283807 -0.081981 1.64866)
(0.0218192 -0.0162695 0.750495)
(0.00507393 -0.00573471 0.348049)
(-0.0232664 -0.000459881 0.204922)
(0.000450872 -0.000755209 0.224449)
(-0.0268983 -0.0011836 0.418537)
(-0.0169332 -0.00684797 1.36617)
(0.0429794 -0.0534637 3.19131)
(0.0387997 -0.00231051 1.12663)
(0.0135525 -0.000351132 0.425481)
(-0.0132981 -0.000546235 0.229638)
(0.0167696 -0.00357533 0.194494)
(-0.00793828 0.00588372 0.318485)
(-0.00110923 0.0202327 0.686495)
(0.0193549 0.0244588 1.10501)
(0.0112303 0.00835208 0.6462)
(-0.00197801 0.00226401 0.32147)
(-0.0282767 -0.00365192 0.196602)
(0.0295621 -0.0187144 0.167722)
(0.0115251 -0.00708576 0.222311)
(0.00336046 0.014106 0.337311)
(0.00414774 0.0229617 0.420754)
(-0.00344841 0.00915865 0.328048)
(-0.0208092 -0.00763267 0.220487)
(-0.0402177 -0.017743 0.163946)
(0.0365652 -0.033668 0.153056)
(0.0204862 -0.023433 0.172387)
(0.00610668 -0.00772109 0.211071)
(-0.00215579 0.00215789 0.242283)
(-0.0128695 -0.0110537 0.205464)
(-0.029242 -0.0241909 0.16845)
(-0.0447677 -0.0335691 0.149751)
(0.0422038 0.0398315 0.302993)
(0.0228509 0.0264958 0.323075)
(0.000571176 0.00619742 0.365711)
(-0.004349 -0.020259 0.414594)
(-0.00969999 0.0039172 0.365201)
(-0.0302946 0.0223837 0.321715)
(-0.0477076 0.0367856 0.300141)
(0.0376836 0.0232359 0.315966)
(0.0140747 0.00964841 0.366052)
(-0.00788402 -0.0135794 0.483815)
(0.00149671 -0.0401913 0.607414)
(0.00680112 -0.0152017 0.490645)
(-0.0193429 0.00319889 0.374468)
(-0.0436963 0.018037 0.314863)
(0.0276404 0.00923001 0.3367)
(-0.00253329 -9.36463e-05 0.43975)
(-0.0130642 -0.0217959 0.730351)
(0.010561 -0.0856722 1.42027)
(0.0249122 -0.0210031 0.759262)
(-0.00138094 -0.00688201 0.464437)
(-0.0316395 0.00311078 0.344762)
(0.0223519 0.000416495 0.350036)
(-0.0115084 0.00125432 0.483317)
(-0.00301511 0.00426413 0.974948)
(0.0578806 -0.0160943 2.56943)
(0.0510496 0.00657019 1.0896)
(0.0116218 0.00152985 0.531294)
(-0.0195336 0.000339676 0.367828)
(0.0327102 -0.0112661 0.331974)
(0.00718018 -0.00251776 0.421294)
(-0.00056216 0.0154072 0.656879)
(0.00918638 0.035283 0.97978)
(0.0109175 0.0162921 0.677498)
(-0.00977642 0.00544255 0.445172)
(-0.0365986 -0.00543309 0.338715)
(0.0415988 -0.0283917 0.312874)
(0.0203937 -0.0182489 0.351606)
(0.00237549 0.00164403 0.442027)
(-5.57873e-05 0.0204986 0.519597)
(-0.00584168 0.00493621 0.447754)
(-0.0262642 -0.011861 0.357647)
(-0.0471055 -0.0242749 0.311202)
(0.046214 -0.0456502 0.300252)
(0.0273099 -0.0361571 0.317118)
(0.00750758 -0.0201618 0.348028)
(-0.00502504 -0.00487299 0.375013)
(-0.0161577 -0.0184403 0.34634)
(-0.0337732 -0.0331955 0.315142)
(-0.0504485 -0.0439188 0.29761)
(-0.0614891 0.0282887 -0.00347409)
(-0.0582348 0.0218147 -0.00227587)
(-0.0538352 0.0214014 -0.00148687)
(-0.0512442 0.0209541 -0.00105679)
(-0.048892 0.0202906 -0.000944791)
(-0.046805 0.0196069 -0.00113392)
(-0.0452143 0.0189572 -0.00157252)
(-0.0438958 0.0184312 -0.00216113)
(-0.0612923 0.0188788 -0.00423221)
(-0.0654985 0.0125439 -0.00296528)
(-0.059636 0.012925 -0.00191519)
(-0.0556169 0.0127776 -0.00121028)
(-0.053095 0.0124457 -0.000937012)
(-0.0509945 0.0118758 -0.000940774)
(-0.0487533 0.0112568 -0.00120665)
(-0.0472106 0.0108199 -0.00160209)
(-0.0543016 0.00778518 -0.00304154)
(-0.066227 0.00520473 -0.00371672)
(-0.0581982 0.00574749 -0.0026064)
(-0.0553094 0.00612027 -0.00158974)
(-0.0528991 0.00628617 -0.00111749)
(-0.0500211 0.00613506 -0.000931098)
(-0.0486407 0.00584826 -0.000977258)
(-0.0468694 0.00562087 -0.00119938)
(-0.0542587 -0.00222792 -0.00237932)
(-0.0634623 -0.0017925 -0.0039516)
(-0.0579192 -0.00230461 -0.00288276)
(-0.0527837 -0.00196854 -0.00167208)
(-0.0509489 -0.00173684 -0.00115742)
(-0.0493096 -0.00144953 -0.000906038)
(-0.0458112 -0.00119176 -0.000895747)
(-0.0448826 -0.000970693 -0.00100122)
(-0.0573173 -0.0122711 -0.00388941)
(-0.0626457 -0.008216 -0.0037872)
(-0.0582079 -0.00961587 -0.00268652)
(-0.0548169 -0.00954722 -0.00146516)
(-0.0519501 -0.00921904 -0.00100175)
(-0.049891 -0.00885407 -0.000822752)
(-0.047467 -0.00819374 -0.00089818)
(-0.0459654 -0.00773229 -0.00117066)
(-0.0648042 -0.0261917 -0.00502936)
(-0.0593485 -0.0165056 -0.0030808)
(-0.059049 -0.0178039 -0.00197155)
(-0.054249 -0.0170897 -0.00125125)
(-0.0512499 -0.0162706 -0.000993365)
(-0.0492299 -0.0154778 -0.0010449)
(-0.0469066 -0.014392 -0.00132855)
(-0.0454672 -0.0136707 -0.00175263)
(-0.059174 -0.0355271 -0.00359336)
(-0.0560008 -0.0274429 -0.00235594)
(-0.0518461 -0.0252614 -0.001588)
(-0.0488426 -0.0243343 -0.00125668)
(-0.0461017 -0.0230458 -0.00130316)
(-0.0444533 -0.0222437 -0.001638)
(-0.0429112 -0.0214093 -0.00216658)
(-0.0411351 -0.0204441 -0.00279662)
(-0.0480911 0.0195837 0.0207848)
(-0.0483113 0.0196749 0.0212213)
(-0.0486379 0.0202687 0.0206288)
(-0.0488847 0.0207845 0.0192071)
(-0.0488515 0.021081 0.0171785)
(-0.0484877 0.0211412 0.0147499)
(-0.0477953 0.0209761 0.0120607)
(-0.0467787 0.0205922 0.00924011)
(-0.0506951 0.0121836 0.0186923)
(-0.0512637 0.0124251 0.0199065)
(-0.0518026 0.0131382 0.0199853)
(-0.0522999 0.013778 0.0190145)
(-0.0524051 0.0141831 0.0171771)
(-0.0520157 0.0143286 0.0148336)
(-0.051143 0.0142436 0.0121633)
(-0.0498222 0.0139559 0.00933168)
(-0.0493244 0.00354297 0.0185012)
(-0.0511347 0.00437716 0.0182721)
(-0.0521947 0.00515993 0.0193852)
(-0.0531557 0.00577948 0.0192172)
(-0.0535872 0.00622222 0.0176904)
(-0.0533634 0.00647266 0.0154355)
(-0.0525317 0.00654861 0.0127369)
(-0.0511342 0.00647919 0.0098032)
(-0.0478816 -0.00334384 0.02047)
(-0.0502472 -0.00287793 0.0177235)
(-0.0516078 -0.00258561 0.0192361)
(-0.0527428 -0.00232372 0.0194251)
(-0.0533638 -0.00207775 0.0180497)
(-0.0532618 -0.00184554 0.0158309)
(-0.0524682 -0.00163213 0.0131491)
(-0.0510957 -0.00143827 0.0102175)
(-0.048529 -0.0103223 0.0181028)
(-0.0499631 -0.0102109 0.0187066)
(-0.0510952 -0.0103858 0.019879)
(-0.0520321 -0.0104931 0.0198338)
(-0.0524293 -0.0104708 0.0183036)
(-0.0521837 -0.0103 0.0160327)
(-0.0513219 -0.00999187 0.013329)
(-0.0499201 -0.0095746 0.0103841)
(-0.0482495 -0.0188336 0.019257)
(-0.0488163 -0.0183176 0.0203763)
(-0.0495167 -0.0185116 0.0205299)
(-0.0499886 -0.0186751 0.0194949)
(-0.0500567 -0.018634 0.017662)
(-0.0496462 -0.018359 0.0153203)
(-0.04877 -0.017872 0.0126771)
(-0.0474676 -0.0172053 0.00986744)
(-0.0448637 -0.0255007 0.0210465)
(-0.0451871 -0.0252501 0.0213728)
(-0.0455744 -0.0254501 0.0206386)
(-0.0457625 -0.025601 0.0190881)
(-0.0456466 -0.0255377 0.016995)
(-0.0452064 -0.0252427 0.0145484)
(-0.0444464 -0.0247216 0.0118791)
(-0.0433741 -0.0239781 0.0091068)
(-0.0461025 0.0196218 0.0582584)
(-0.0498735 0.0236825 0.0531906)
(-0.0531638 0.0272433 0.0468606)
(-0.0558467 0.0301211 0.0392539)
(-0.0578366 0.0323337 0.0308125)
(-0.0591335 0.0339264 0.0220116)
(-0.0597008 0.0348946 0.0133465)
(-0.0594265 0.035167 0.00537256)
(-0.0461681 0.0111149 0.0607357)
(-0.0519446 0.014781 0.0543193)
(-0.0565051 0.017851 0.0482283)
(-0.0602796 0.0203523 0.0408213)
(-0.0631024 0.0222587 0.0322755)
(-0.0649616 0.0236074 0.0231115)
(-0.0658252 0.0244097 0.0139301)
(-0.0655563 0.0246203 0.0054231)
(-0.0424362 0.00288458 0.0665565)
(-0.0508194 0.00559394 0.0559299)
(-0.0568175 0.00761804 0.0499127)
(-0.0616967 0.00924365 0.0429264)
(-0.0654047 0.010514 0.0345152)
(-0.0678862 0.0114427 0.0251838)
(-0.0691317 0.0120382 0.0156355)
(-0.0690078 0.0122794 0.00668706)
(-0.0399322 -0.00198864 0.0711941)
(-0.0495676 -0.0021469 0.0567709)
(-0.0561856 -0.00208174 0.050671)
(-0.0615196 -0.00191974 0.0439069)
(-0.0656356 -0.00170606 0.0356093)
(-0.0684294 -0.00147265 0.0262576)
(-0.0698874 -0.00124155 0.0166037)
(-0.0698763 -0.00102509 0.00751241)
(-0.0430114 -0.00819076 0.0655474)
(-0.0504104 -0.0105027 0.0564055)
(-0.0560731 -0.0121175 0.0505134)
(-0.0607899 -0.0133007 0.0434974)
(-0.0644225 -0.0140969 0.0350475)
(-0.0668953 -0.014559 0.0256869)
(-0.0681725 -0.0147227 0.0161139)
(-0.0681002 -0.0145821 0.0071407)
(-0.0451113 -0.0175806 0.0604987)
(-0.0503865 -0.0204888 0.0546871)
(-0.0547269 -0.0229245 0.0486059)
(-0.0583358 -0.0248305 0.0411346)
(-0.0610741 -0.0261851 0.0325462)
(-0.0629245 -0.0270365 0.0233593)
(-0.0638349 -0.0274027 0.0141657)
(-0.0636513 -0.0272427 0.00565398)
(-0.0440627 -0.0264198 0.0574501)
(-0.0475032 -0.029947 0.0521971)
(-0.050573 -0.0329769 0.0455797)
(-0.0530519 -0.0353495 0.0377599)
(-0.0548874 -0.0370861 0.0292033)
(-0.0560827 -0.0382277 0.0203729)
(-0.0566007 -0.038771 0.0117471)
(-0.0563249 -0.0386448 0.00387058)
(-0.058395 0.0320284 0.139201)
(-0.0672006 0.0420648 0.129877)
(-0.0750881 0.0504655 0.119344)
(-0.0815133 0.057047 0.107572)
(-0.0860955 0.0617396 0.0948072)
(-0.0884268 0.064404 0.081124)
(-0.0879841 0.0647774 0.0662335)
(-0.0842531 0.062567 0.0494143)
(-0.0564539 0.0173786 0.145401)
(-0.0696479 0.0258598 0.134319)
(-0.0805963 0.0327834 0.123811)
(-0.0897306 0.038242 0.112128)
(-0.0965067 0.0422166 0.0992028)
(-0.1004 0.044607 0.0851033)
(-0.100707 0.0451537 0.0695273)
(-0.0967041 0.0435827 0.0515891)
(-0.0502374 0.00510251 0.153933)
(-0.0676177 0.0106927 0.138663)
(-0.0813457 0.0149165 0.128004)
(-0.0928444 0.0182913 0.116628)
(-0.101569 0.0207919 0.10384)
(-0.106868 0.0223325 0.0896539)
(-0.107931 0.02278 0.0737579)
(-0.103906 0.0220014 0.0551643)
(-0.0454348 -0.00132726 0.159496)
(-0.0655568 -0.00198359 0.140676)
(-0.0806257 -0.00215298 0.129866)
(-0.0931249 -0.00209794 0.118736)
(-0.102666 -0.00191601 0.106135)
(-0.108541 -0.0016654 0.0920266)
(-0.10993 -0.00138009 0.0761028)
(-0.105939 -0.00109283 0.0573478)
(-0.0515694 -0.00989119 0.153215)
(-0.0676394 -0.0156107 0.139388)
(-0.0808109 -0.0196177 0.129086)
(-0.0920203 -0.0225496 0.117929)
(-0.10061 -0.024509 0.105355)
(-0.105868 -0.0255046 0.0913796)
(-0.106945 -0.0254424 0.0756748)
(-0.102959 -0.0241816 0.0572372)
(-0.0564652 -0.024555 0.145612)
(-0.0685855 -0.032195 0.135495)
(-0.0790038 -0.0384041 0.125424)
(-0.0878284 -0.0432085 0.114137)
(-0.0944615 -0.0465475 0.101631)
(-0.0983184 -0.0483068 0.0879529)
(-0.0986605 -0.0482431 0.0727652)
(-0.0947465 -0.0460741 0.0551495)
(-0.0576841 -0.0406581 0.138985)
(-0.0658307 -0.0496143 0.130049)
(-0.0732338 -0.0570136 0.119868)
(-0.0792717 -0.0627205 0.108513)
(-0.0835433 -0.0666652 0.096203)
(-0.085632 -0.0686765 0.0829714)
(-0.0850218 -0.0684479 0.0684907)
(-0.0812129 -0.0656392 0.0519936)
(-0.0624088 0.0472141 0.285293)
(-0.07157 0.0602454 0.270736)
(-0.0806479 0.0720765 0.250437)
(-0.089072 0.0826026 0.222376)
(-0.0969705 0.0919575 0.18497)
(-0.10536 0.100858 0.137291)
(-0.115656 0.110206 0.0797787)
(-0.124867 0.117215 0.0155741)
(-0.0634881 0.0275974 0.293236)
(-0.0776089 0.0382966 0.278257)
(-0.0904102 0.0477513 0.259449)
(-0.102344 0.0560493 0.233147)
(-0.113411 0.0632214 0.196896)
(-0.124824 0.0697412 0.149027)
(-0.138585 0.0764108 0.0893582)
(-0.151181 0.0814889 0.0207624)
(-0.0595165 0.0107894 0.301788)
(-0.0782202 0.0178016 0.284063)
(-0.0943137 0.0234775 0.266065)
(-0.109171 0.0283653 0.241279)
(-0.122791 0.0325003 0.206238)
(-0.13649 0.0361151 0.158595)
(-0.152633 0.0396699 0.0976701)
(-0.167425 0.0423154 0.0261402)
(-0.055127 -0.000436205 0.307275)
(-0.0770622 -0.000678667 0.286713)
(-0.0949241 -0.000417801 0.268785)
(-0.111188 3.40166e-05 0.244608)
(-0.125963 0.00051946 0.210109)
(-0.140616 0.000916321 0.16264)
(-0.157661 0.00114699 0.101326)
(-0.173214 0.00118605 0.0287602)
(-0.0612808 -0.0130968 0.300986)
(-0.0791368 -0.0195606 0.28431)
(-0.0950122 -0.0243687 0.266627)
(-0.10993 -0.0282483 0.242012)
(-0.12374 -0.0314364 0.20709)
(-0.137659 -0.0343271 0.159532)
(-0.153978 -0.0374726 0.0986774)
(-0.168831 -0.0400429 0.0271864)
(-0.0650969 -0.0317941 0.292754)
(-0.0788164 -0.040983 0.278477)
(-0.0916861 -0.0489131 0.259979)
(-0.103993 -0.0557716 0.233897)
(-0.115596 -0.0617176 0.197828)
(-0.127566 -0.0673437 0.150126)
(-0.141772 -0.0735354 0.0906426)
(-0.154576 -0.0785664 0.0222349)
(-0.0647277 -0.0517615 0.284081)
(-0.0738852 -0.0628969 0.269607)
(-0.0833191 -0.0728913 0.249261)
(-0.0923632 -0.0817545 0.22115)
(-0.100994 -0.0897119 0.183731)
(-0.110107 -0.0975887 0.136117)
(-0.121005 -0.106373 0.0787972)
(-0.130558 -0.113324 0.0148945)
(0.0456187 -0.0454918 -0.00392021)
(0.0406247 -0.0400961 -0.00297121)
(0.0374139 -0.0363704 -0.00248016)
(0.0357118 -0.035266 -0.00237957)
(0.0335754 -0.0342821 -0.00264237)
(0.031973 -0.0331181 -0.00314639)
(0.030694 -0.0318111 -0.00381579)
(0.0293011 -0.0307199 -0.00458178)
(0.0527776 -0.0335938 -0.0044231)
(0.0470348 -0.0281247 -0.00343877)
(0.0424555 -0.0263053 -0.00246317)
(0.0398586 -0.0249193 -0.00199924)
(0.0395284 -0.0241737 -0.00191442)
(0.0347503 -0.02083 -0.00188025)
(0.0361001 -0.0212947 -0.00186213)
(0.0341266 -0.0206092 -0.00186124)
(0.0569848 -0.0189373 -0.00260659)
(0.0535388 -0.0168634 -0.00291971)
(0.0460833 -0.017082 -0.00164521)
(0.0398913 -0.0160406 -0.000782222)
(0.0381252 -0.016648 -0.000263293)
(0.0349062 -0.0180415 -0.000313337)
(0.0327839 -0.0186241 -0.000709071)
(0.0302952 -0.0184919 -0.00119153)
(0.0588723 -0.00429093 0.000327991)
(0.0578003 -0.00294493 -0.000565448)
(0.0486894 -0.00324472 0.00140677)
(0.0435242 -0.00357367 0.00303326)
(0.0401452 -0.00323977 0.00409284)
(0.036645 -0.00284367 0.00444658)
(0.0333532 -0.00253914 0.00429768)
(0.0305156 -0.0022362 0.00400103)
(0.0562843 0.0109756 -0.00172967)
(0.0564069 0.0105023 -0.00195054)
(0.047816 0.0107624 -0.000340094)
(0.0414429 0.0107869 0.00066854)
(0.0378328 0.0116039 0.00113796)
(0.0350243 0.0130683 0.00110241)
(0.0327851 0.0139394 0.000666316)
(0.030215 0.0142485 5.86477e-05)
(0.0521042 0.0248308 -0.0037607)
(0.0499684 0.0215091 -0.00287226)
(0.0448826 0.0215238 -0.00201027)
(0.0405419 0.020304 -0.00163225)
(0.0400042 0.0202719 -0.00152512)
(0.0361496 0.0185634 -0.00148983)
(0.0367224 0.0191114 -0.00148515)
(0.0351116 0.0188908 -0.00157962)
(0.0485882 0.0371715 -0.00347283)
(0.0449122 0.0327159 -0.00260318)
(0.0414922 0.0316511 -0.00214042)
(0.039228 0.0307924 -0.00212605)
(0.0373328 0.029832 -0.00241771)
(0.036306 0.02922 -0.00296473)
(0.0348598 0.0283563 -0.00368145)
(0.0335485 0.0277904 -0.00453424)
(0.0332341 -0.0292274 0.0209168)
(0.0337749 -0.0293693 0.0205009)
(0.034532 -0.0297821 0.0192153)
(0.0351338 -0.0301169 0.017194)
(0.0354067 -0.0302164 0.0146347)
(0.0353253 -0.030041 0.0117765)
(0.0348821 -0.0295921 0.00873444)
(0.0340657 -0.0288841 0.00558588)
(0.0358181 -0.0216145 0.0218301)
(0.0359577 -0.0218282 0.0215524)
(0.0366411 -0.0223917 0.0210251)
(0.0373666 -0.0229157 0.0194999)
(0.0377708 -0.0232521 0.0171184)
(0.0376871 -0.0233581 0.0143579)
(0.0371702 -0.023282 0.0114418)
(0.0361152 -0.0229593 0.00835466)
(0.0344846 -0.010735 0.0252593)
(0.0350536 -0.012029 0.0236817)
(0.0359065 -0.0128267 0.0240881)
(0.0367441 -0.0133697 0.0237645)
(0.0371837 -0.0137903 0.0224767)
(0.0369565 -0.0140796 0.0204628)
(0.0361426 -0.0142219 0.0180586)
(0.0347798 -0.014227 0.0154552)
(0.0322771 -0.00444157 0.030381)
(0.0340537 -0.0036878 0.0259373)
(0.0353999 -0.0033241 0.0269347)
(0.0364303 -0.00302496 0.0273409)
(0.0368252 -0.00271406 0.0268762)
(0.0364399 -0.0024054 0.0257102)
(0.0353701 -0.00210141 0.0240291)
(0.0337267 -0.00182164 0.0219976)
(0.0354521 0.00170976 0.0275301)
(0.0362569 0.00461655 0.0250175)
(0.0368556 0.00637307 0.0253264)
(0.0375161 0.00771279 0.0249414)
(0.0377588 0.00884534 0.0236588)
(0.0374849 0.00978446 0.0216949)
(0.0365984 0.0104845 0.0192615)
(0.035185 0.0109937 0.0166067)
(0.0389892 0.0139535 0.0228193)
(0.0387997 0.0151721 0.0223525)
(0.0391339 0.0164226 0.0216542)
(0.0396567 0.017481 0.0200762)
(0.0399689 0.0183104 0.0177402)
(0.039848 0.0188832 0.0149458)
(0.0392945 0.0192226 0.011881)
(0.0382297 0.0192914 0.00859728)
(0.0371013 0.0234572 0.0215339)
(0.0373085 0.0239873 0.0210715)
(0.0378234 0.0248328 0.0197089)
(0.0383217 0.0255389 0.017536)
(0.0385818 0.0259876 0.0148479)
(0.0385199 0.0261611 0.0118428)
(0.0380934 0.0260596 0.00865647)
(0.0372909 0.0257011 0.00539244)
(0.032806 -0.0266963 0.0595838)
(0.0372216 -0.0308051 0.0534278)
(0.0410828 -0.0341314 0.0459871)
(0.0442699 -0.0366738 0.03733)
(0.0467151 -0.0385188 0.0279002)
(0.0484096 -0.0397406 0.0181938)
(0.049316 -0.040361 0.00874237)
(0.0493415 -0.0403384 0.000150428)
(0.0306607 -0.017438 0.0656407)
(0.0369632 -0.0211834 0.059089)
(0.0421848 -0.0240133 0.0524102)
(0.0466017 -0.0261088 0.0443715)
(0.0500888 -0.0275485 0.0351475)
(0.0526209 -0.0284216 0.0252324)
(0.0541349 -0.0287741 0.0152355)
(0.0544834 -0.0285948 0.0058952)
(0.0246883 -0.00704244 0.0736824)
(0.0329849 -0.010488 0.0651843)
(0.0394867 -0.0125046 0.0595663)
(0.0449159 -0.0138429 0.0528684)
(0.0491767 -0.0147055 0.0447178)
(0.0522481 -0.0151931 0.0354871)
(0.0541082 -0.0153694 0.0258071)
(0.054614 -0.0152542 0.0165101)
(0.0183022 -0.00232141 0.0803097)
(0.02907 -0.00222057 0.0687289)
(0.0367314 -0.00202058 0.063708)
(0.0427954 -0.00172502 0.0579723)
(0.0474176 -0.00136044 0.050749)
(0.0506527 -0.000989517 0.0423159)
(0.0525446 -0.000646381 0.0332569)
(0.053008 -0.000349128 0.0243894)
(0.0235904 0.00089477 0.0759575)
(0.0326197 0.00532916 0.0662365)
(0.0393572 0.00814575 0.060463)
(0.0449376 0.0102414 0.0537471)
(0.0492799 0.0118152 0.0455858)
(0.0523768 0.0129474 0.0363126)
(0.0542386 0.0136839 0.0265608)
(0.0547389 0.0140355 0.0171739)
(0.0316949 0.0106792 0.0670803)
(0.0382276 0.015418 0.0600332)
(0.0435171 0.0189904 0.0533137)
(0.047975 0.0217347 0.0452468)
(0.051467 0.0237424 0.0359529)
(0.0539746 0.0251142 0.0259215)
(0.0554414 0.025902 0.0157746)
(0.0557253 0.0260989 0.00626783)
(0.0346206 0.0205876 0.0611005)
(0.0390842 0.0253721 0.0550264)
(0.0430046 0.0292826 0.0477052)
(0.0462677 0.0323277 0.0391105)
(0.0487746 0.0346243 0.0296753)
(0.0505112 0.0362575 0.019898)
(0.0514375 0.0372483 0.010319)
(0.0514603 0.0375539 0.00155253)
(0.0503454 -0.0406272 0.141773)
(0.0596862 -0.0491884 0.131787)
(0.0680336 -0.0561482 0.12064)
(0.0748697 -0.0614696 0.108405)
(0.0797933 -0.0650841 0.0952767)
(0.082382 -0.0667964 0.081281)
(0.0821193 -0.0662771 0.0660746)
(0.0785123 -0.0631939 0.048852)
(0.0458358 -0.0251773 0.150967)
(0.0592331 -0.0321 0.140319)
(0.0707478 -0.0374734 0.12951)
(0.0805735 -0.0414272 0.117542)
(0.0881625 -0.0439658 0.104412)
(0.0928982 -0.0449915 0.0901625)
(0.0939907 -0.0442644 0.0744578)
(0.0906647 -0.0415099 0.0563572)
(0.0374307 -0.0103109 0.160773)
(0.0536891 -0.0151914 0.148659)
(0.0675549 -0.0184339 0.138658)
(0.0795381 -0.0206231 0.127743)
(0.0889868 -0.0219165 0.115521)
(0.0951776 -0.0223392 0.101997)
(0.0971733 -0.0218 0.0868503)
(0.0940221 -0.0201589 0.0690745)
(0.0291172 -0.00130893 0.167265)
(0.048357 -0.00145224 0.152939)
(0.0637897 -0.00124437 0.143253)
(0.0768751 -0.00092004 0.133025)
(0.0871113 -0.000573648 0.121529)
(0.0938442 -0.000257768 0.108736)
(0.0961565 5.04974e-06 0.0943301)
(0.0930759 0.000209647 0.0773071)
(0.0351082 0.00601635 0.162158)
(0.0525196 0.0115285 0.148873)
(0.0669708 0.0154413 0.138458)
(0.0792963 0.018322 0.127214)
(0.0889628 0.0202659 0.114664)
(0.0953013 0.0212596 0.100818)
(0.0973964 0.0212022 0.0853774)
(0.0942916 0.0199587 0.06736)
(0.0449561 0.0187065 0.151636)
(0.0590673 0.0267475 0.14018)
(0.0710308 0.0330311 0.128851)
(0.0811609 0.0377778 0.116355)
(0.0889396 0.0410242 0.10268)
(0.0937747 0.0426904 0.0879032)
(0.0948868 0.0425499 0.0717243)
(0.0915131 0.0403434 0.0532348)
(0.0499741 0.0335824 0.142564)
(0.0597957 0.0431811 0.132263)
(0.0685285 0.0510164 0.120757)
(0.075678 0.0570949 0.108076)
(0.0808622 0.0613949 0.0944626)
(0.0836486 0.0637474 0.0799939)
(0.0834975 0.0638421 0.0643757)
(0.0798964 0.0613726 0.0468471)
(0.0617772 -0.0519853 0.286919)
(0.0720105 -0.0616002 0.272071)
(0.0822772 -0.0702217 0.251407)
(0.0919998 -0.077955 0.223035)
(0.101124 -0.0850237 0.185304)
(0.110527 -0.092243 0.137197)
(0.12153 -0.100612 0.0791087)
(0.131051 -0.107425 0.0141216)
(0.0598586 -0.0331679 0.29707)
(0.0746424 -0.0400815 0.283121)
(0.0885217 -0.0459346 0.264664)
(0.1018 -0.0509268 0.238602)
(0.1143 -0.0552789 0.202428)
(0.126985 -0.0596239 0.154301)
(0.141669 -0.0648956 0.0938802)
(0.154751 -0.0694485 0.0239273)
(0.0537568 -0.015143 0.306196)
(0.07135 -0.0188643 0.292057)
(0.0879017 -0.0216423 0.275385)
(0.103867 -0.0237805 0.251483)
(0.119024 -0.0254989 0.216986)
(0.134404 -0.0272273 0.169355)
(0.152064 -0.0295797 0.107746)
(0.167934 -0.0318413 0.0347539)
(0.0480338 0.000178279 0.311827)
(0.0675342 0.00045275 0.296451)
(0.0853853 0.000927609 0.280437)
(0.102489 0.00140756 0.257689)
(0.118722 0.00176575 0.224393)
(0.135202 0.00192587 0.177703)
(0.15408 0.00186776 0.116512)
(0.171018 0.00165086 0.0432305)
(0.0512507 0.0142795 0.307106)
(0.0695969 0.0190317 0.292174)
(0.0864717 0.0229415 0.275141)
(0.102532 0.0261462 0.250967)
(0.117633 0.0287097 0.216259)
(0.132865 0.0309587 0.168486)
(0.150346 0.0334554 0.106778)
(0.166109 0.0354689 0.0337067)
(0.0572226 0.030419 0.297931)
(0.0723464 0.0389909 0.283414)
(0.0862137 0.0464694 0.264614)
(0.0992061 0.0529451 0.238265)
(0.111256 0.058528 0.20185)
(0.123444 0.063741 0.153516)
(0.137707 0.0694408 0.0928878)
(0.150572 0.0739655 0.022719)
(0.058086 0.0487922 0.288671)
(0.0681894 0.0602283 0.27387)
(0.0781062 0.0706365 0.253313)
(0.087267 0.0800091 0.225013)
(0.0957267 0.088468 0.187273)
(0.104467 0.096717 0.139023)
(0.114927 0.105659 0.0806074)
(0.12417 0.112546 0.0151468)
(0.0412896 0.0446622 -0.0030393)
(0.0374566 0.0400743 -0.002014)
(0.0364917 0.0367253 -0.00132531)
(0.036074 0.0338783 -0.00102995)
(0.0358268 0.0313246 -0.00105061)
(0.0359202 0.029468 -0.00129571)
(0.0356748 0.0276261 -0.00177904)
(0.0350576 0.0258878 -0.00243038)
(0.0274853 0.0502213 -0.00305469)
(0.0239432 0.0456211 -0.002355)
(0.0228434 0.0388412 -0.00142994)
(0.0224843 0.0360697 -0.000692025)
(0.0215206 0.0330428 -0.000429266)
(0.0209653 0.0315356 -0.000386387)
(0.0204979 0.030246 -0.00042563)
(0.020087 0.0290105 -0.000480571)
(0.00953826 0.0541814 -0.000767207)
(0.00876308 0.0523246 -0.00147219)
(0.0104257 0.0418669 6.90536e-05)
(0.0115931 0.0353912 0.00185536)
(0.0134468 0.0313766 0.00360402)
(0.0151128 0.0281303 0.00456683)
(0.0159197 0.0250653 0.00432668)
(0.0168052 0.0236637 0.00388208)
(-0.00846039 0.0525694 0.00144966)
(-0.00905142 0.0562715 0.00116586)
(-0.00896756 0.0433964 0.00372567)
(-0.00896546 0.0385103 0.00610693)
(-0.00817027 0.0342143 0.00748031)
(-0.00753724 0.0305597 0.00809648)
(-0.00663352 0.0273518 0.00819662)
(-0.00572753 0.0245295 0.00793577)
(-0.0234224 0.0496319 -0.00161089)
(-0.0216353 0.0490086 -0.0018783)
(-0.0214625 0.0388756 -0.000592357)
(-0.0213952 0.033105 0.000755797)
(-0.0233082 0.0308474 0.00208128)
(-0.0241695 0.0274277 0.00269407)
(-0.0254488 0.0250076 0.0028085)
(-0.0256229 0.0236804 0.00263189)
(-0.0415856 0.0467921 -0.003184)
(-0.0375337 0.041639 -0.00211731)
(-0.0368324 0.0359939 -0.00106977)
(-0.0347437 0.0322525 -0.000320265)
(-0.0326699 0.030049 1.21876e-05)
(-0.031544 0.0295796 0.000127648)
(-0.028462 0.0270533 7.25474e-06)
(-0.0281117 0.0272971 2.44215e-05)
(-0.0537832 0.0407877 -0.00305034)
(-0.0493343 0.0353258 -0.00181489)
(-0.0471366 0.0316194 -0.000916255)
(-0.0462643 0.0290684 -0.000241337)
(-0.0457271 0.0265383 0.000153084)
(-0.0457152 0.0242822 0.000313329)
(-0.0454001 0.0216737 0.00021938)
(-0.0448688 0.0197448 -0.000119531)
(0.0318741 0.028109 0.0232972)
(0.0319764 0.0283642 0.0233007)
(0.0326742 0.028902 0.0224363)
(0.033432 0.0293711 0.0207242)
(0.0339921 0.0296152 0.0184353)
(0.034245 0.0296033 0.0157754)
(0.0341479 0.0293226 0.0128655)
(0.0337124 0.0287888 0.00983718)
(0.0221083 0.0317579 0.0266035)
(0.0217451 0.0304907 0.0267626)
(0.0221571 0.0302374 0.027035)
(0.0228552 0.0304642 0.0265197)
(0.0235587 0.0306554 0.0250932)
(0.0241581 0.0306688 0.0230554)
(0.0245878 0.0303948 0.0206218)
(0.0248215 0.0297831 0.0179858)
(0.00785711 0.0317572 0.0338933)
(0.00813249 0.0301212 0.0306052)
(0.00885342 0.029485 0.0318151)
(0.00975634 0.0295011 0.0324792)
(0.0107695 0.0294683 0.0319937)
(0.0117023 0.0291147 0.0305578)
(0.0124412 0.028413 0.0286624)