/*--------------------------------*- C++ -*----------------------------------*\
| =========                 |                                                 |
| \\      /  F ield         | OpenFOAM: The Open Source CFD Toolbox           |
|  \\    /   O peration     | Version:  plus.master                           |
|   \\  /    A nd           | Web:      www.OpenFOAM.com                      |
|    \\/     M anipulation  |                                                 |
\*---------------------------------------------------------------------------*/
FoamFile
{
    version     2.0;
    format      ascii;
    class       volScalarField;
    location    "8.4";
    object      nut;
}
// * * * * * * * * * * * * * * * * * * * * * * * * * * * * * * * * * * * * * //

dimensions      [0 2 -1 0 0 0 0];

internalField   nonuniform List<scalar> 
47285
(
3.04972e-05
5.50219e-05
0.000102724
0.000107721
7.01807e-05
3.50074e-05
2.22988e-05
4.86671e-05
4.75279e-05
0.000130717
0.00013446
8.70066e-05
3.06847e-05
3.73409e-05
8.79544e-05
0.000113559
0.000117019
0.000123301
8.24862e-05
9.79704e-05
7.85642e-05
0.000117147
0.000147013
0.000135104
0.000113358
0.000127095
0.000121046
0.000102664
9.48833e-05
0.000123311
0.000120878
0.000128715
9.19875e-05
0.000106462
8.49924e-05
5.21751e-05
5.00248e-05
0.000133547
0.000149552
9.13416e-05
3.62314e-05
4.2288e-05
3.21326e-05
5.72567e-05
0.000105312
0.000117004
7.53535e-05
3.8877e-05
2.41426e-05
2.34368e-05
3.47446e-05
6.3098e-05
5.5932e-05
3.12978e-05
1.98691e-05
3.80113e-05
3.11332e-05
8.1592e-05
0.000142246
0.000144188
8.95962e-05
3.83249e-05
1.96621e-05
5.91413e-05
0.000139817
0.00013805
0.000206501
0.000107947
7.98303e-05
2.73156e-05
7.71731e-05
0.000169092
0.000242462
0.000231639
0.000218812
0.000100199
3.41425e-05
6.70124e-05
0.000151913
0.00014943
0.000202955
0.000124345
9.57415e-05
3.46479e-05
3.54931e-05
8.9572e-05
0.000158062
0.000174406
0.000108342
5.00696e-05
2.02396e-05
2.49639e-05
3.87083e-05
7.34661e-05
7.12827e-05
4.13024e-05
2.06787e-05
2.93539e-05
4.38496e-05
5.15284e-05
7.92548e-05
7.36792e-05
4.31284e-05
3.75715e-05
7.36437e-05
5.1234e-05
0.000107716
0.000159569
0.000164905
0.000103047
4.50949e-05
3.94433e-05
8.56292e-05
0.000169668
0.000201304
0.00022489
0.000160284
7.71041e-05
3.15856e-05
0.000107289
0.000205666
0.000252493
0.00024385
0.000253883
9.67937e-05
3.41837e-05
9.49765e-05
0.00018158
0.000215555
0.000222327
0.000178765
9.36087e-05
3.76387e-05
6.01309e-05
0.00012273
0.000181288
0.000197818
0.000129852
6.08763e-05
3.50912e-05
4.59849e-05
6.24108e-05
9.72536e-05
9.65566e-05
6.04602e-05
3.6377e-05
5.89381e-05
8.24912e-05
6.8337e-05
9.00595e-05
8.54347e-05
5.74871e-05
7.27948e-05
0.000121253
7.10856e-05
0.000124562
0.000177507
0.00018223
0.000114614
5.78553e-05
7.87992e-05
0.000105188
0.000196557
0.000244448
0.000235683
0.000186522
8.32795e-05
4.98284e-05
0.000132027
0.00024464
0.000267295
0.000249452
0.000257225
9.98783e-05
4.29319e-05
0.000115841
0.000210312
0.000260638
0.000242566
0.000206399
9.65268e-05
5.06387e-05
8.0636e-05
0.000143371
0.000203458
0.000216316
0.000142744
7.10045e-05
6.79734e-05
8.17749e-05
8.14402e-05
0.000112875
0.000112102
7.49209e-05
6.48119e-05
0.000106984
0.000100757
7.54453e-05
8.91085e-05
8.51469e-05
6.43784e-05
9.09727e-05
0.000132875
7.83929e-05
0.000125329
0.000177877
0.000179104
0.000114002
6.46498e-05
9.71276e-05
0.000108708
0.000204682
0.000257981
0.000234739
0.000187339
8.44675e-05
6.19271e-05
0.000138371
0.000262599
0.000280784
0.000245468
0.000244184
0.000101398
5.00312e-05
0.000120322
0.000221192
0.000274714
0.000249788
0.00020873
9.55041e-05
5.99045e-05
8.68606e-05
0.000147345
0.000208628
0.000216175
0.000141532
7.4024e-05
8.57068e-05
9.82522e-05
8.71957e-05
0.000114116
0.000113196
7.89657e-05
8.09158e-05
0.000122615
1.9469e-05
1.92261e-05
1.92095e-05
1.89362e-05
1.86948e-05
1.85221e-05
1.83627e-05
1.8205e-05
2.39707e-05
2.05003e-05
1.92824e-05
1.87921e-05
1.84601e-05
1.81967e-05
1.7957e-05
1.77632e-05
4.13574e-05
2.44696e-05
1.99456e-05
1.88986e-05
1.84983e-05
1.82056e-05
1.79357e-05
1.76883e-05
5.55489e-05
2.96877e-05
2.06377e-05
1.86809e-05
1.82161e-05
1.79857e-05
1.76707e-05
1.73533e-05
4.52963e-05
2.59325e-05
2.00975e-05
1.88477e-05
1.84385e-05
1.81632e-05
1.78945e-05
1.76587e-05
2.67978e-05
2.10695e-05
1.94191e-05
1.87199e-05
1.84083e-05
1.81802e-05
1.79326e-05
1.77987e-05
2.05612e-05
1.95131e-05
1.91157e-05
1.89459e-05
1.8752e-05
1.85988e-05
1.84397e-05
1.82912e-05
6.40443e-05
7.25855e-05
7.47488e-05
7.52644e-05
7.52022e-05
7.48422e-05
7.41881e-05
7.31713e-05
4.077e-05
6.40027e-05
7.21174e-05
7.44695e-05
7.49693e-05
7.48171e-05
7.42805e-05
7.33507e-05
2.08721e-05
4.76959e-05
6.6092e-05
7.21723e-05
7.38232e-05
7.4044e-05
7.36859e-05
7.28738e-05
1.49527e-05
3.7381e-05
6.16905e-05
7.06052e-05
7.31702e-05
7.36876e-05
7.34243e-05
7.26141e-05
1.80314e-05
4.13749e-05
6.31267e-05
7.08642e-05
7.30819e-05
7.3506e-05
7.32188e-05
7.24151e-05
2.89537e-05
5.51357e-05
6.79539e-05
7.21621e-05
7.33135e-05
7.33858e-05
7.29292e-05
7.2017e-05
5.21398e-05
6.6699e-05
7.14031e-05
7.28629e-05
7.31121e-05
7.28158e-05
7.21314e-05
7.10363e-05
0.000103468
0.000111963
0.000112783
0.000110305
0.000105928
0.000100369
9.41992e-05
8.80199e-05
7.96786e-05
0.000103788
0.000110612
0.000110337
0.00010676
0.000101398
9.51209e-05
8.87017e-05
4.85513e-05
8.76005e-05
0.00010491
0.000108532
0.00010639
0.000101543
9.53702e-05
8.88636e-05
3.3322e-05
7.55918e-05
0.000100277
0.000106781
0.000105673
0.000101202
9.51379e-05
8.86209e-05
4.11453e-05
8.03155e-05
0.000101307
0.00010645
0.000104861
0.000100229
9.41566e-05
8.77089e-05
6.41701e-05
9.44151e-05
0.000105212
0.000106431
0.000103384
9.82202e-05
9.20407e-05
8.56853e-05
9.12266e-05
0.000104452
0.000107096
0.000105223
0.000100959
9.53391e-05
8.90779e-05
8.28235e-05
0.000144342
0.000147517
0.000143374
0.000136411
0.000128779
0.000121617
0.000115179
0.000108627
0.000126453
0.000143498
0.000143964
0.000138151
0.000130385
0.000122733
0.000115905
0.000109146
9.53964e-05
0.000132355
0.000141421
0.000138403
0.000131301
0.000123589
0.000116583
0.000109711
7.44034e-05
0.000122735
0.000138474
0.00013774
0.000131317
0.000123711
0.000116639
0.000109679
8.61663e-05
0.00012688
0.00013884
0.000136946
0.00013026
0.000122688
0.000115691
0.000108748
0.00011453
0.000137243
0.00014027
0.000135471
0.000128127
0.000120646
0.000113839
0.000106973
0.000136079
0.000142305
0.00013932
0.000132834
0.000125419
0.000118331
0.00011183
0.000105063
0.000143556
0.000137339
0.000125233
0.000111539
9.78621e-05
8.44652e-05
7.12443e-05
5.88917e-05
0.000135092
0.000139631
0.000129948
0.000115924
0.000101295
8.70247e-05
7.30203e-05
5.98768e-05
0.00011146
0.000134907
0.000131561
0.000118797
0.000103894
8.90299e-05
7.43714e-05
6.05559e-05
9.25145e-05
0.000128822
0.000130856
0.000119511
0.00010476
8.97064e-05
7.47814e-05
6.06936e-05
0.000103724
0.000131332
0.000130106
0.000118087
0.000103439
8.86517e-05
7.40105e-05
6.02079e-05
0.000126811
0.0001359
0.000128058
0.000114794
0.000100511
8.63898e-05
7.24446e-05
5.93381e-05
0.000138816
0.000134858
0.00012386
0.000110848
9.76115e-05
8.44475e-05
7.12982e-05
5.89232e-05
2.28021e-05
2.09397e-05
2.06246e-05
2.04639e-05
2.03209e-05
2.01799e-05
2.00566e-05
1.99395e-05
3.09823e-05
2.24235e-05
2.0313e-05
1.97296e-05
1.94008e-05
1.90049e-05
1.87898e-05
1.86462e-05
5.32872e-05
3.07667e-05
2.18917e-05
1.96517e-05
1.8983e-05
1.85095e-05
1.81756e-05
1.77588e-05
6.54221e-05
3.60554e-05
2.3169e-05
1.96607e-05
1.86644e-05
1.80306e-05
1.75157e-05
1.71116e-05
4.93916e-05
2.87187e-05
2.13528e-05
1.96849e-05
1.90526e-05
1.85152e-05
1.80454e-05
1.78867e-05
2.88021e-05
2.15025e-05
2.00048e-05
1.95631e-05
1.9301e-05
1.90524e-05
1.87185e-05
1.85469e-05
2.20737e-05
2.03949e-05
2.00128e-05
1.98499e-05
1.9727e-05
1.95807e-05
1.94568e-05
1.93504e-05
5.02823e-05
6.73477e-05
7.13681e-05
7.23441e-05
7.21472e-05
7.13613e-05
7.01654e-05
6.85716e-05
2.66132e-05
4.91888e-05
6.44862e-05
7.00302e-05
7.15421e-05
7.14798e-05
7.07923e-05
6.96941e-05
2.63742e-05
2.97146e-05
5.22565e-05
6.46299e-05
6.86775e-05
6.92622e-05
6.84876e-05
6.70972e-05
2.80126e-05
2.37425e-05
4.64624e-05
6.11168e-05
6.58787e-05
6.6554e-05
6.57169e-05
6.42494e-05
2.34396e-05
3.20156e-05
5.48254e-05
6.58801e-05
6.93824e-05
7.00058e-05
6.9525e-05
6.85437e-05
2.67736e-05
5.08593e-05
6.48821e-05
6.97756e-05
7.11762e-05
7.1223e-05
7.07012e-05
6.98494e-05
4.83742e-05
6.39117e-05
6.87409e-05
7.03622e-05
7.06106e-05
7.02077e-05
6.9394e-05
6.81935e-05
7.78794e-05
0.000101793
0.000107559
0.000107014
0.000103125
9.71676e-05
9.00607e-05
8.26732e-05
4.64361e-05
7.77745e-05
9.94248e-05
0.000106272
0.000106097
0.000102415
9.68116e-05
9.0356e-05
4.20502e-05
4.95088e-05
8.30679e-05
0.00010043
0.000105205
0.000104174
0.000100256
9.48987e-05
4.27264e-05
3.8167e-05
7.40949e-05
9.62948e-05
0.000103042
0.00010277
9.91732e-05
9.39523e-05
3.86545e-05
5.40313e-05
8.73848e-05
0.000102395
0.000105954
0.000104304
9.99781e-05
9.43078e-05
4.77608e-05
8.23613e-05
0.000101098
0.000106228
0.000105196
0.000100956
9.49054e-05
8.80987e-05
7.97657e-05
0.000100827
0.000106072
0.000105641
0.00010199
9.63105e-05
8.95054e-05
8.24352e-05
0.000123548
0.000143488
0.00014497
0.000139952
0.000132489
0.000124603
0.000117035
0.000109191
8.24662e-05
0.000122906
0.000141165
0.000143245
0.000138742
0.00013226
0.000125886
0.000119801
6.28797e-05
8.81507e-05
0.000126595
0.00014062
0.000141053
0.000136474
0.000130865
0.000125237
5.93557e-05
6.9829e-05
0.000116379
0.000137067
0.000139903
0.000135981
0.00013036
0.00012449
6.12615e-05
9.44297e-05
0.000130135
0.000141105
0.000139977
0.000134596
0.000128437
0.00012236
8.70099e-05
0.000127444
0.000141464
0.000141295
0.00013564
0.00012847
0.00012156
0.000114834
0.000126189
0.000142288
0.000142454
0.000137052
0.000129583
0.000121882
0.000114607
0.00010713
0.000134933
0.000141201
0.000132254
0.00011902
0.000104798
9.04453e-05
7.59748e-05
6.2122e-05
0.000100148
0.000133895
0.000138388
0.000129009
0.000115522
0.00010123
8.63271e-05
7.12751e-05
7.32446e-05
0.000106811
0.000134489
0.00013396
0.000122517
0.000108338
9.32207e-05
7.78842e-05
6.60314e-05
8.79556e-05
0.000128184
0.000133932
0.000123917
0.000109861
9.47247e-05
7.94895e-05
7.28095e-05
0.000111904
0.000135802
0.000133235
0.000121316
0.000107242
9.21087e-05
7.68629e-05
0.000105457
0.000136075
0.000136977
0.000126486
0.000112911
9.87315e-05
8.40505e-05
6.94021e-05
0.000136233
0.000139244
0.000129591
0.000116435
0.000102545
8.86299e-05
7.46675e-05
6.13107e-05
2.32448e-05
2.03433e-05
1.95505e-05
1.93399e-05
1.92151e-05
1.9072e-05
1.89481e-05
1.88352e-05
3.48579e-05
2.34834e-05
1.93316e-05
1.82241e-05
1.77564e-05
1.74305e-05
1.72561e-05
1.7101e-05
5.63109e-05
3.10564e-05
2.08067e-05
1.81363e-05
1.72686e-05
1.66693e-05
1.61054e-05
1.56129e-05
5.84627e-05
3.10725e-05
2.0703e-05
1.82217e-05
1.73197e-05
1.67315e-05
1.62182e-05
1.57474e-05
3.83479e-05
2.34269e-05
1.93365e-05
1.83363e-05
1.78157e-05
1.74437e-05
1.71004e-05
1.67131e-05
2.30473e-05
1.98816e-05
1.89816e-05
1.85612e-05
1.81915e-05
1.78486e-05
1.76671e-05
1.7565e-05
1.95515e-05
1.90734e-05
1.89844e-05
1.89021e-05
1.87788e-05
1.86554e-05
1.85111e-05
1.83349e-05
4.00857e-05
6.06752e-05
6.74514e-05
6.98723e-05
7.05644e-05
7.04677e-05
6.98719e-05
6.88129e-05
2.20498e-05
3.99772e-05
5.73227e-05
6.4558e-05
6.69228e-05
6.74857e-05
6.73947e-05
6.69281e-05
2.25265e-05
2.73955e-05
4.8934e-05
5.9338e-05
6.20066e-05
6.18617e-05
6.08825e-05
5.97066e-05
1.84695e-05
2.81362e-05
5.18176e-05
6.1747e-05
6.38395e-05
6.31936e-05
6.16406e-05
5.97527e-05
2.1004e-05
4.56546e-05
6.27765e-05
6.8162e-05
6.90593e-05
6.84493e-05
6.73181e-05
6.59362e-05
4.38109e-05
6.48322e-05
7.0829e-05
7.2258e-05
7.22502e-05
7.17708e-05
7.11132e-05
7.0166e-05
6.59761e-05
7.25324e-05
7.39947e-05
7.41708e-05
7.39193e-05
7.34931e-05
7.29104e-05
7.20809e-05
7.46643e-05
9.88551e-05
0.000105343
0.000105551
0.000102435
9.72758e-05
9.09553e-05
8.42916e-05
4.11925e-05
7.32377e-05
9.5471e-05
0.000102853
0.000103126
9.98555e-05
9.46074e-05
8.8465e-05
3.34223e-05
4.93098e-05
8.22205e-05
9.66062e-05
9.96771e-05
9.7739e-05
9.33009e-05
8.76569e-05
2.83446e-05
4.79507e-05
8.32647e-05
9.7543e-05
0.000100027
9.74213e-05
9.22921e-05
8.59188e-05
3.82405e-05
7.65165e-05
9.91336e-05
0.000105735
0.000105347
0.000101561
9.58292e-05
8.91403e-05
7.70633e-05
0.000102822
0.000109979
0.000110361
0.000107402
0.000102416
9.61725e-05
8.94403e-05
0.00010393
0.000112059
0.000112889
0.000110568
0.000106306
0.000100775
9.4544e-05
8.82306e-05
0.000124167
0.000141163
0.000141805
0.000136751
0.000129671
0.00012238
0.000115505
0.000108386
8.23409e-05
0.000122775
0.000138384
0.000139351
0.000134606
0.000128274
0.000122066
0.000115724
5.55698e-05
9.39645e-05
0.000127544
0.00013693
0.000135447
0.000130589
0.000125533
0.000120575
4.82003e-05
8.88798e-05
0.000126295
0.000137087
0.000135891
0.000130937
0.000125824
0.000121136
7.36899e-05
0.000120433
0.000139919
0.00014238
0.000138103
0.000131922
0.000126042
0.000120436
0.000121965
0.000143816
0.000146775
0.000142618
0.000135813
0.000128656
0.000122145
0.000115727
0.000145007
0.000148761
0.000144903
0.000138147
0.000130605
0.000123452
0.000117001
0.000110459
0.000134282
0.000137627
0.000128181
0.000115027
0.000101022
8.69094e-05
7.27594e-05
5.93853e-05
0.000102877
0.000132145
0.000133038
0.000122292
0.000108108
9.30286e-05
7.74926e-05
6.24446e-05
7.09414e-05
0.000113415
0.000131326
0.000126061
0.000113186
9.83312e-05
8.2481e-05
6.65419e-05
6.24258e-05
0.000108251
0.000131105
0.000127357
0.00011461
9.98189e-05
8.42693e-05
6.8702e-05
9.27983e-05
0.000130809
0.000136569
0.000127025
0.000112755
9.74526e-05
8.16408e-05
6.60508e-05
0.000133181
0.000142524
0.000134768
0.000121384
0.000106658
9.18391e-05
7.68983e-05
6.25311e-05
0.000144471
0.000138486
0.000126373
0.000112678
9.89773e-05
8.55058e-05
7.21305e-05
5.95131e-05
2.01805e-05
1.93962e-05
1.91571e-05
1.90214e-05
1.89203e-05
1.87814e-05
1.86596e-05
1.846e-05
2.50161e-05
2.05697e-05
1.94973e-05
1.90502e-05
1.86997e-05
1.83312e-05
1.81031e-05
1.79385e-05
4.35163e-05
2.60407e-05
2.05575e-05
1.92846e-05
1.87544e-05
1.83212e-05
1.78652e-05
1.74298e-05
6.50942e-05
3.53254e-05
2.29609e-05
1.96568e-05
1.86722e-05
1.81164e-05
1.76137e-05
1.71072e-05
6.01073e-05
3.43465e-05
2.319e-05
1.99617e-05
1.89517e-05
1.84113e-05
1.7948e-05
1.75315e-05
3.68826e-05
2.55827e-05
2.12694e-05
2.0074e-05
1.96745e-05
1.94114e-05
1.90921e-05
1.87861e-05
2.40863e-05
2.15039e-05
2.0772e-05
2.05631e-05
2.04203e-05
2.02965e-05
2.0198e-05
2.01178e-05
5.87105e-05
6.85155e-05
7.14093e-05
7.21936e-05
7.20765e-05
7.15743e-05
7.08298e-05
6.98069e-05
3.61039e-05
6.03726e-05
6.87551e-05
7.11738e-05
7.14689e-05
7.09952e-05
7.02e-05
6.90951e-05
2.02152e-05
3.99966e-05
6.03956e-05
6.81577e-05
7.01101e-05
6.98817e-05
6.88231e-05
6.74045e-05
2.38242e-05
2.52752e-05
4.99762e-05
6.35707e-05
6.7683e-05
6.79194e-05
6.66873e-05
6.48968e-05
2.78002e-05
2.75299e-05
4.98712e-05
6.34262e-05
6.81282e-05
6.89476e-05
6.82814e-05
6.70129e-05
2.50332e-05
4.31495e-05
6.167e-05
6.98166e-05
7.25795e-05
7.30901e-05
7.27105e-05
7.19029e-05
4.659e-05
6.79478e-05
7.24092e-05
7.34608e-05
7.3369e-05
7.2643e-05
7.14227e-05
6.97052e-05
9.4074e-05
0.000105683
0.00010764
0.000105726
0.000101483
9.57821e-05
8.93068e-05
8.27361e-05
6.28858e-05
9.4622e-05
0.000105135
0.000106924
0.000104605
9.99341e-05
9.38404e-05
8.71377e-05
3.51276e-05
6.46462e-05
9.32359e-05
0.000103923
0.000105637
0.000103103
9.8243e-05
9.21456e-05
3.76222e-05
4.04604e-05
7.70692e-05
9.76604e-05
0.000103753
0.000103168
9.93111e-05
9.37934e-05
4.23397e-05
4.60109e-05
8.00455e-05
9.95724e-05
0.000105618
0.000105198
0.000101522
9.61615e-05
4.48698e-05
7.44191e-05
9.87256e-05
0.000107533
0.000108471
0.00010543
0.000100167
9.38393e-05
7.76948e-05
0.000103227
0.000108793
0.000108228
0.000104388
9.844e-05
9.12664e-05
8.37433e-05
0.000137208
0.000144075
0.000141388
0.000135184
0.000127882
0.000120786
0.000114249
0.000107485
0.000107821
0.000137003
0.000143623
0.000141318
0.000135559
0.000129084
0.000123147
0.000117381
6.43298e-05
0.000107762
0.000135117
0.000142175
0.000140098
0.00013484
0.000129257
0.000123851
5.5e-05
7.66589e-05
0.000120304
0.000138366
0.000140704
0.000136998
0.000131888
0.000126635
6.24216e-05
8.73478e-05
0.000126248
0.000141304
0.000142584
0.000138754
0.000133918
0.00012909
8.21094e-05
0.000122482
0.000142302
0.000145521
0.000141766
0.000135798
0.000129706
0.000123477
0.000123926
0.000144402
0.000146035
0.000141111
0.000133699
0.000125791
0.000118116
0.000110079
0.000140973
0.000137697
0.000126934
0.000114234
0.000101345
8.8434e-05
7.52899e-05
6.2549e-05
0.000123803
0.000140779
0.000136767
0.000125651
0.000112683
9.93722e-05
8.55162e-05
7.15278e-05
8.20243e-05
0.0001236
0.000137942
0.000132674
0.000120733
0.000107294
9.31716e-05
7.87705e-05
6.53486e-05
9.78756e-05
0.000131208
0.000134027
0.000123912
0.000110461
9.5969e-05
8.11879e-05
7.45753e-05
0.000108868
0.000134902
0.000134309
0.000123382
0.000109644
9.46064e-05
7.90517e-05
0.000100736
0.000133996
0.000139001
0.00012987
0.00011628
0.000101377
8.56553e-05
6.98877e-05
0.000134844
0.000141495
0.000132635
0.000119254
0.000104697
8.99165e-05
7.51045e-05
6.11503e-05
1.80666e-05
1.76323e-05
1.74475e-05
1.72553e-05
1.74431e-05
1.77393e-05
1.81717e-05
7.17219e-05
7.19653e-05
7.15684e-05
7.12846e-05
7.10742e-05
7.06043e-05
6.94885e-05
8.2435e-05
8.30004e-05
8.30948e-05
8.28321e-05
8.19665e-05
7.99839e-05
7.71625e-05
0.000100193
0.000100318
0.000100607
0.000100423
9.95364e-05
9.79528e-05
9.63105e-05
4.80941e-05
4.81313e-05
4.81375e-05
4.80668e-05
4.79104e-05
4.77894e-05
4.82291e-05
1.98344e-05
1.83859e-05
1.72235e-05
1.67634e-05
1.76218e-05
1.84393e-05
1.9223e-05
6.65871e-05
6.84075e-05
6.55856e-05
6.25802e-05
6.72063e-05
6.86782e-05
6.65945e-05
7.58146e-05
8.42397e-05
8.95308e-05
8.86925e-05
8.8714e-05
8.1709e-05
7.58999e-05
9.93897e-05
0.000112156
0.000118113
0.000117037
0.00011488
0.000106445
9.77704e-05
5.02113e-05
5.66632e-05
6.20741e-05
6.35922e-05
6.13331e-05
5.54647e-05
4.96876e-05
1.8738e-05
1.69783e-05
1.52772e-05
1.5345e-05
1.63187e-05
1.73978e-05
1.81584e-05
6.72747e-05
6.62097e-05
5.84862e-05
5.77472e-05
6.44237e-05
6.89779e-05
7.09086e-05
7.80447e-05
8.26121e-05
8.22066e-05
7.97129e-05
8.28326e-05
8.32247e-05
8.24711e-05
9.92744e-05
0.000107161
0.000113431
0.000114677
0.000112761
0.000107206
0.00010201
4.79689e-05
4.91407e-05
5.14613e-05
5.32789e-05
5.12875e-05
4.95179e-05
4.83836e-05
1.82337e-05
1.77056e-05
1.70242e-05
1.66375e-05
1.71271e-05
1.85154e-05
2.00516e-05
6.84492e-05
6.77569e-05
6.58301e-05
6.29932e-05
6.55841e-05
7.08234e-05
6.74706e-05
7.6717e-05
8.0857e-05
8.61325e-05
8.81881e-05
9.06255e-05
8.76648e-05
7.66873e-05
9.87247e-05
0.000109725
0.000116838
0.000119654
0.000122653
0.000115137
0.000100001
5.11339e-05
5.7807e-05
6.37374e-05
6.5499e-05
6.30169e-05
5.52574e-05
4.94103e-05
1.79506e-05
1.76406e-05
1.70418e-05
1.63599e-05
1.55788e-05
1.47366e-05
1.38529e-05
1.29207e-05
1.74996e-05
1.72135e-05
1.66832e-05
1.598e-05
1.52111e-05
1.43806e-05
1.35056e-05
1.258e-05
1.72473e-05
1.69498e-05
1.64627e-05
1.57489e-05
1.49784e-05
1.41639e-05
1.33041e-05
1.23909e-05
1.72208e-05
1.69105e-05
1.65022e-05
1.58728e-05
1.50481e-05
1.41357e-05
1.32402e-05
1.23265e-05
1.72699e-05
1.70252e-05
1.65561e-05
1.58411e-05
1.50513e-05
1.42283e-05
1.33644e-05
1.24503e-05
1.76272e-05
1.73588e-05
1.68235e-05
1.61099e-05
1.5328e-05
1.44967e-05
1.36232e-05
1.27007e-05
1.80617e-05
1.7743e-05
1.71895e-05
1.64933e-05
1.57014e-05
1.48608e-05
1.39855e-05
1.30673e-05
6.95195e-05
6.60086e-05
6.30499e-05
5.98602e-05
5.57215e-05
5.04295e-05
4.41327e-05
3.71345e-05
6.99023e-05
6.64061e-05
6.31096e-05
5.96197e-05
5.52033e-05
4.97158e-05
4.33272e-05
3.63533e-05
6.96067e-05
6.62051e-05
6.27446e-05
5.91324e-05
5.46645e-05
4.91803e-05
4.28422e-05
3.59528e-05
6.92844e-05
6.59982e-05
6.2669e-05
5.89918e-05
5.44176e-05
4.89144e-05
4.26129e-05
3.57834e-05
6.90731e-05
6.5718e-05
6.25089e-05
5.91012e-05
5.47828e-05
4.93727e-05
4.30608e-05
3.61658e-05
6.85381e-05
6.53595e-05
6.26138e-05
5.9568e-05
5.54379e-05
5.00895e-05
4.37395e-05
3.67397e-05
6.72e-05
6.41996e-05
6.19304e-05
5.93472e-05
5.56209e-05
5.05743e-05
4.44105e-05
3.74757e-05
7.67952e-05
7.1135e-05
6.98469e-05
6.80743e-05
6.42597e-05
5.82951e-05
5.06697e-05
4.20642e-05
7.7504e-05
7.18507e-05
7.03514e-05
6.82584e-05
6.40549e-05
5.77109e-05
4.97915e-05
4.10422e-05
7.76854e-05
7.20584e-05
7.04031e-05
6.8122e-05
6.37396e-05
5.72679e-05
4.92906e-05
4.05527e-05
7.74626e-05
7.18839e-05
7.02735e-05
6.79755e-05
6.35426e-05
5.70217e-05
4.90231e-05
4.03008e-05
7.66187e-05
7.12846e-05
6.99838e-05
6.79422e-05
6.37246e-05
5.73455e-05
4.94072e-05
4.06774e-05
7.45717e-05
7.01344e-05
6.93443e-05
6.77444e-05
6.38908e-05
5.77434e-05
4.99022e-05
4.11649e-05
7.15881e-05
6.79438e-05
6.75181e-05
6.64042e-05
6.31332e-05
5.75496e-05
5.01717e-05
4.17471e-05
8.92679e-05
7.65757e-05
6.99402e-05
6.77095e-05
6.5073e-05
6.02256e-05
5.32455e-05
4.48932e-05
8.94508e-05
7.70481e-05
7.05884e-05
6.83049e-05
6.53827e-05
6.01062e-05
5.26806e-05
4.39926e-05
8.97244e-05
7.73876e-05
7.08957e-05
6.84675e-05
6.53364e-05
5.98513e-05
5.22722e-05
4.35128e-05
8.95404e-05
7.73099e-05
7.08993e-05
6.84635e-05
6.52628e-05
5.96892e-05
5.20398e-05
4.32514e-05
8.8734e-05
7.67351e-05
7.05992e-05
6.83926e-05
6.53795e-05
5.99474e-05
5.2384e-05
4.36273e-05
8.72645e-05
7.56211e-05
6.98691e-05
6.80012e-05
6.53071e-05
6.01339e-05
5.2738e-05
4.40616e-05
8.55677e-05
7.39063e-05
6.80534e-05
6.61835e-05
6.37811e-05
5.91384e-05
5.2373e-05
4.42833e-05
5.81669e-05
6.39848e-05
6.3781e-05
6.39688e-05
6.2914e-05
5.94375e-05
5.3634e-05
4.62971e-05
5.87391e-05
6.49033e-05
6.47679e-05
6.48361e-05
6.35147e-05
5.96562e-05
5.34337e-05
4.57415e-05
5.89713e-05
6.52986e-05
6.51441e-05
6.50853e-05
6.35838e-05
5.95343e-05
5.31545e-05
4.53668e-05
5.89288e-05
6.53743e-05
6.52619e-05
6.51827e-05
6.36189e-05
5.9484e-05
5.30272e-05
4.51934e-05
5.84807e-05
6.49851e-05
6.50115e-05
6.50876e-05
6.36711e-05
5.96553e-05
5.3285e-05
4.55081e-05
5.77383e-05
6.42467e-05
6.4416e-05
6.47179e-05
6.3545e-05
5.97377e-05
5.35278e-05
4.58681e-05
5.70674e-05
6.31241e-05
6.27618e-05
6.26985e-05
6.14721e-05
5.79758e-05
5.2379e-05
4.54646e-05
1.97092e-05
1.92794e-05
1.86017e-05
1.77519e-05
1.68356e-05
1.58942e-05
1.49451e-05
1.39832e-05
1.81081e-05
1.75743e-05
1.70449e-05
1.652e-05
1.58963e-05
1.51807e-05
1.43805e-05
1.353e-05
1.68172e-05
1.61781e-05
1.55978e-05
1.50111e-05
1.44052e-05
1.38105e-05
1.31838e-05
1.24831e-05
1.64001e-05
1.57465e-05
1.50744e-05
1.4385e-05
1.36747e-05
1.30051e-05
1.23969e-05
1.16806e-05
1.7141e-05
1.6568e-05
1.59986e-05
1.53725e-05
1.47257e-05
1.41099e-05
1.34599e-05
1.27314e-05
1.82428e-05
1.78211e-05
1.7417e-05
1.68033e-05
1.60835e-05
1.53155e-05
1.44792e-05
1.35937e-05
1.90826e-05
1.8689e-05
1.80894e-05
1.73168e-05
1.64652e-05
1.55769e-05
1.46652e-05
1.37343e-05
6.39629e-05
6.16323e-05
6.04833e-05
5.90882e-05
5.63827e-05
5.20636e-05
4.6313e-05
3.94805e-05
6.65063e-05
6.419e-05
6.15016e-05
5.80923e-05
5.39782e-05
4.90423e-05
4.33242e-05
3.69346e-05
6.3386e-05
6.042e-05
5.72293e-05
5.37878e-05
5.0021e-05
4.57848e-05
4.0951e-05
3.56103e-05
6.02057e-05
5.692e-05
5.35306e-05
5.00608e-05
4.64496e-05
4.26376e-05
3.80826e-05
3.33337e-05
6.52523e-05
6.2512e-05
5.94926e-05
5.6167e-05
5.2334e-05
4.78805e-05
4.27302e-05
3.69589e-05
6.6883e-05
6.4423e-05
6.14087e-05
5.82115e-05
5.43785e-05
4.9583e-05
4.38259e-05
3.73398e-05
6.42839e-05
6.1756e-05
6.02803e-05
5.8661e-05
5.58607e-05
5.15575e-05
4.58873e-05
3.91581e-05
6.90515e-05
6.51212e-05
6.45588e-05
6.39357e-05
6.16033e-05
5.71096e-05
5.07655e-05
4.31858e-05
7.79879e-05
7.28359e-05
6.90996e-05
6.61269e-05
6.20379e-05
5.6476e-05
4.97547e-05
4.22692e-05
8.35348e-05
7.75947e-05
7.31242e-05
6.8709e-05
6.36398e-05
5.77803e-05
5.12435e-05
4.41522e-05
8.27835e-05
7.66867e-05
7.18569e-05
6.69418e-05
6.15157e-05
5.56045e-05
4.93129e-05
4.28102e-05
8.26197e-05
7.67116e-05
7.25543e-05
6.84616e-05
6.35309e-05
5.76303e-05
5.0935e-05
4.36567e-05
7.52874e-05
6.95636e-05
6.65811e-05
6.44653e-05
6.10397e-05
5.5809e-05
4.91576e-05
4.16314e-05
6.94044e-05
6.51459e-05
6.47642e-05
6.42905e-05
6.20163e-05
5.74967e-05
5.1065e-05
4.33555e-05
8.73971e-05
7.42541e-05
6.6879e-05
6.39246e-05
6.13388e-05
5.72634e-05
5.1516e-05
4.46342e-05
0.00010169
8.80342e-05
7.80313e-05
7.16505e-05
6.60553e-05
5.9865e-05
5.29335e-05
4.55524e-05
0.00010832
9.45685e-05
8.42591e-05
7.7382e-05
7.13327e-05
6.48115e-05
5.76247e-05
4.98502e-05
0.000106995
9.29862e-05
8.24995e-05
7.53016e-05
6.88102e-05
6.18914e-05
5.45638e-05
4.70944e-05
0.000104946
9.12523e-05
8.09712e-05
7.41235e-05
6.80659e-05
6.14047e-05
5.4116e-05
4.65056e-05
9.54136e-05
8.17246e-05
7.24083e-05
6.72885e-05
6.27315e-05
5.71229e-05
5.05261e-05
4.33818e-05
8.61511e-05
7.32114e-05
6.6323e-05
6.40408e-05
6.19095e-05
5.79488e-05
5.20474e-05
4.4871e-05
5.7912e-05
6.29854e-05
6.14181e-05
6.04086e-05
5.88095e-05
5.5571e-05
5.07392e-05
4.49212e-05
7.09861e-05
7.7508e-05
7.37505e-05
6.92946e-05
6.43472e-05
5.86242e-05
5.22766e-05
4.5717e-05
8.60583e-05
9.45509e-05
8.90708e-05
8.17063e-05
7.41314e-05
6.65751e-05
5.89954e-05
5.13952e-05
9.05033e-05
9.882e-05
9.20934e-05
8.37398e-05
7.55814e-05
6.72488e-05
5.85634e-05
4.98251e-05
8.36309e-05
9.17498e-05
8.58849e-05
7.80821e-05
7.02529e-05
6.26455e-05
5.51941e-05
4.78434e-05
6.87448e-05
7.51466e-05
7.11478e-05
6.64196e-05
6.13226e-05
5.56633e-05
4.9538e-05
4.32453e-05
5.78009e-05
6.30826e-05
6.16406e-05
6.08347e-05
5.94415e-05
5.62274e-05
5.11827e-05
4.50231e-05
1.86481e-05
1.83445e-05
1.78031e-05
1.70684e-05
1.6235e-05
1.53653e-05
1.44698e-05
1.35414e-05
1.69084e-05
1.66825e-05
1.6536e-05
1.62677e-05
1.56756e-05
1.49323e-05
1.41218e-05
1.32447e-05
1.50438e-05
1.46644e-05
1.43352e-05
1.39572e-05
1.34967e-05
1.29635e-05
1.23894e-05
1.17639e-05
1.50263e-05
1.44816e-05
1.392e-05
1.33334e-05
1.27811e-05
1.22037e-05
1.16068e-05
1.09839e-05
1.6033e-05
1.55757e-05
1.51634e-05
1.46907e-05
1.41767e-05
1.36069e-05
1.2927e-05
1.21606e-05
1.72491e-05
1.69566e-05
1.67708e-05
1.63187e-05
1.56469e-05
1.48486e-05
1.40016e-05
1.31074e-05
1.7957e-05
1.7662e-05
1.72083e-05
1.65665e-05
1.58024e-05
1.49741e-05
1.41004e-05
1.31786e-05
6.49154e-05
6.20048e-05
6.00456e-05
5.80204e-05
5.50162e-05
5.07108e-05
4.51848e-05
3.86671e-05
6.49894e-05
6.33644e-05
6.08581e-05
5.75166e-05
5.35734e-05
4.88656e-05
4.33961e-05
3.7231e-05
5.68129e-05
5.48395e-05
5.25016e-05
4.9843e-05
4.68292e-05
4.33799e-05
3.92393e-05
3.42181e-05
5.51376e-05
5.13314e-05
4.71354e-05
4.27591e-05
3.82364e-05
3.37759e-05
2.94844e-05
2.54619e-05
6.23455e-05
5.93765e-05
5.59352e-05
5.223e-05
4.79766e-05
4.29654e-05
3.7511e-05
3.17267e-05
6.72051e-05
6.4457e-05
6.07798e-05
5.68506e-05
5.23884e-05
4.72428e-05
4.14502e-05
3.51094e-05
6.90573e-05
6.57891e-05
6.25986e-05
5.92462e-05
5.50736e-05
4.98707e-05
4.37411e-05
3.69097e-05
7.1684e-05
6.66265e-05
6.58113e-05
6.48696e-05
6.21981e-05
5.74931e-05
5.10858e-05
4.35062e-05
7.67344e-05
7.10545e-05
6.84315e-05
6.60098e-05
6.206e-05
5.65349e-05
4.99013e-05
4.26311e-05
7.6804e-05
7.25616e-05
6.9288e-05
6.50367e-05
5.99768e-05
5.3821e-05
4.6967e-05
3.99655e-05
7.3354e-05
6.69341e-05
6.15835e-05
5.59711e-05
4.99508e-05
4.37707e-05
3.76653e-05
3.18291e-05
7.66423e-05
7.09789e-05
6.62775e-05
6.10239e-05
5.5263e-05
4.87037e-05
4.17282e-05
3.47384e-05
7.71027e-05
7.09847e-05
6.75751e-05
6.45002e-05
5.9983e-05
5.40344e-05
4.71293e-05
3.97221e-05
7.6628e-05
7.06216e-05
6.88565e-05
6.6818e-05
6.29656e-05
5.72085e-05
4.99762e-05
4.18266e-05
8.76345e-05
7.42505e-05
6.72209e-05
6.50309e-05
6.2962e-05
5.90124e-05
5.30935e-05
4.58195e-05
9.54966e-05
8.07757e-05
7.13957e-05
6.68878e-05
6.29726e-05
5.77422e-05
5.11964e-05
4.39221e-05
0.000103263
8.85273e-05
7.71868e-05
6.95635e-05
6.28563e-05
5.55321e-05
4.76941e-05
3.9914e-05
0.00010552
9.18215e-05
8.04864e-05
7.19695e-05
6.42486e-05
5.67076e-05
4.94143e-05
4.22995e-05
0.000102242
8.69676e-05
7.5013e-05
6.67872e-05
5.96406e-05
5.22809e-05
4.4871e-05
3.78016e-05
9.56711e-05
8.07422e-05
7.07727e-05
6.55112e-05
6.0892e-05
5.52196e-05
4.85582e-05
4.14174e-05
9.07651e-05
7.71497e-05
6.94412e-05
6.64028e-05
6.34119e-05
5.86452e-05
5.21026e-05
4.43793e-05
5.58025e-05
6.11295e-05
6.10097e-05
6.16196e-05
6.11917e-05
5.84476e-05
5.34593e-05
4.6981e-05
5.81867e-05
6.31755e-05
6.22859e-05
6.18916e-05
6.04198e-05
5.68523e-05
5.14254e-05
4.48793e-05
6.29373e-05
6.77641e-05
6.54536e-05
6.31078e-05
5.95718e-05
5.42707e-05
4.78046e-05
4.09869e-05
6.81813e-05
7.22241e-05
6.83133e-05
6.35499e-05
5.78541e-05
5.18335e-05
4.64063e-05
4.1968e-05
6.28981e-05
6.71619e-05
6.39953e-05
6.06842e-05
5.63183e-05
5.06834e-05
4.44978e-05
3.84619e-05
5.93683e-05
6.39884e-05
6.22324e-05
6.08441e-05
5.84877e-05
5.43666e-05
4.87838e-05
4.24093e-05
5.7984e-05
6.32615e-05
6.25998e-05
6.24416e-05
6.12308e-05
5.78773e-05
5.24778e-05
4.57079e-05
1.80325e-05
1.77573e-05
1.72804e-05
1.65991e-05
1.58027e-05
1.49568e-05
1.40914e-05
1.32001e-05
1.74796e-05
1.69984e-05
1.64818e-05
1.5904e-05
1.51957e-05
1.44057e-05
1.35941e-05
1.27796e-05
1.66834e-05
1.61148e-05
1.55407e-05
1.49484e-05
1.43026e-05
1.36157e-05
1.28949e-05
1.21493e-05
1.62046e-05
1.54953e-05
1.48219e-05
1.41596e-05
1.34861e-05
1.28107e-05
1.21045e-05
1.14068e-05
1.67819e-05
1.62404e-05
1.56985e-05
1.51261e-05
1.44936e-05
1.38236e-05
1.3113e-05
1.23629e-05
1.82745e-05
1.78431e-05
1.73929e-05
1.68345e-05
1.60704e-05
1.51956e-05
1.42911e-05
1.34102e-05
1.99282e-05
1.94747e-05
1.87459e-05
1.78416e-05
1.68743e-05
1.59001e-05
1.49331e-05
1.39593e-05
6.63917e-05
6.30787e-05
6.02527e-05
5.73248e-05
5.35082e-05
4.85851e-05
4.26917e-05
3.6087e-05
6.5752e-05
6.28073e-05
5.92035e-05
5.48757e-05
5.00388e-05
4.48274e-05
3.93255e-05
3.34751e-05
6.35243e-05
6.0123e-05
5.63057e-05
5.208e-05
4.74794e-05
4.25625e-05
3.74013e-05
3.1988e-05
6.0366e-05
5.68101e-05
5.30472e-05
4.904e-05
4.47543e-05
4.03025e-05
3.57079e-05
3.09564e-05
6.35131e-05
6.07586e-05
5.76248e-05
5.39633e-05
4.98366e-05
4.52118e-05
4.01697e-05
3.48158e-05
6.90688e-05
6.65867e-05
6.32619e-05
5.92427e-05
5.46829e-05
4.95177e-05
4.38865e-05
3.7849e-05
6.46416e-05
6.21494e-05