/*--------------------------------*- C++ -*----------------------------------*\
| =========                 |                                                 |
| \\      /  F ield         | OpenFOAM: The Open Source CFD Toolbox           |
|  \\    /   O peration     | Version:  plus.master                           |
|   \\  /    A nd           | Web:      www.OpenFOAM.com                      |
|    \\/     M anipulation  |                                                 |
\*---------------------------------------------------------------------------*/
FoamFile
{
    version     2.0;
    format      ascii;
    class       volScalarField;
    location    "8.4";
    object      p_rgh;
}
// * * * * * * * * * * * * * * * * * * * * * * * * * * * * * * * * * * * * * //

dimensions      [1 -1 -2 0 0 0 0];

internalField   nonuniform List<scalar> 
47285
(
5683.88
5678.59
5674.86
5673.85
5674.1
5677.57
5682.56
5678.81
5639.24
5639.97
5638.23
5632.15
5640.9
5676.99
5674.82
5632.31
5608.81
5606.47
5608.64
5642.34
5674.11
5674.41
5639.54
5606.65
5604.48
5606.88
5642.28
5674.31
5675.01
5635.17
5608.64
5606.26
5608.6
5643.19
5674.07
5678.83
5639.37
5636.88
5636.31
5629.16
5640.14
5677.06
5683.97
5678.33
5674.3
5672.83
5673.14
5677.29
5682.44
5699.92
5699.13
5699.16
5699.18
5699.27
5699.4
5700.09
5698.92
5671.77
5686.88
5675.56
5672.88
5688.86
5699.78
5698.79
5646.74
5535.3
5532.65
5551.9
5698.58
5700.24
5698.81
5676.26
5536.76
5526.05
5540.54
5697.04
5700.32
5699.17
5657.85
5533.46
5529.17
5545.74
5698.51
5700.18
5699.05
5657.12
5673.84
5662.03
5654.16
5690.21
5699.78
5700.03
5699.18
5699.21
5699.03
5698.96
5699.33
5700.12
5710.05
5711.91
5713.33
5713.99
5712.66
5710.64
5708.62
5711.87
5714.47
5710.68
5682.93
5715.96
5713.1
5710.46
5713.54
5679.14
5473.68
5436.53
5561.88
5715.27
5712.11
5714.33
5674.2
5436.76
5420
5490.05
5715.94
5712.74
5713.83
5682.36
5464.17
5426.48
5531.36
5715.77
5712.42
5712.2
5712.98
5697.11
5660.99
5703.11
5713.57
5710.89
5710.44
5712.3
5713.73
5714.34
5713.11
5711.11
5709.05
5710.08
5712.76
5714.24
5714.61
5712.81
5710.15
5707.27
5712.95
5716.07
5711.52
5673.33
5717.15
5713.6
5709.93
5715.12
5680.63
5412.24
5334.42
5606.69
5716.61
5712.2
5716.62
5645.74
5320.48
5295.71
5500.75
5717.4
5713.07
5715.35
5677.21
5392.76
5313.51
5555.75
5717.31
5712.71
5713.35
5716.45
5693.3
5642.48
5717.4
5714.2
5710.58
5710.67
5713.35
5715.04
5715.82
5713.55
5710.87
5707.89
5689.85
5692.7
5694.31
5694.48
5692.32
5689.48
5686.45
5693.01
5696.39
5699.11
5657.04
5696.44
5692.91
5689.15
5695.26
5670.07
5344.12
5238.73
5626.33
5695.91
5691.49
5696.68
5583.26
5186.64
5156.45
5550.33
5696.9
5692.45
5695.49
5660.18
5307.89
5197.91
5572.02
5696.46
5691.93
5693.5
5696.74
5676.61
5617.5
5697.1
5693.53
5689.73
5690.57
5693.34
5695
5695.34
5692.99
5690.09
5686.97
5687.06
5690.43
5693.02
5695.02
5696.61
5697.93
5699.01
5699.91
5683.93
5689.1
5692.04
5694.4
5696.27
5697.77
5698.97
5699.96
5681.62
5687.92
5691.43
5694
5696.04
5697.67
5698.97
5700.04
5681.77
5687.94
5691.4
5693.94
5695.98
5697.69
5698.97
5699.93
5681.63
5687.86
5691.39
5693.98
5696.01
5697.65
5698.95
5700
5683.57
5688.76
5691.97
5694.31
5696.21
5697.73
5698.93
5699.93
5687.02
5690.44
5692.97
5695
5696.63
5697.95
5699.03
5699.93
5700.49
5700.77
5701.1
5701.44
5701.8
5702.15
5702.5
5702.85
5700.5
5700.8
5701.09
5701.43
5701.79
5702.16
5702.53
5702.9
5700.86
5701.04
5701.22
5701.48
5701.81
5702.17
5702.54
5702.92
5701.04
5701.21
5701.31
5701.53
5701.84
5702.19
5702.56
5702.94
5700.9
5701.1
5701.25
5701.5
5701.82
5702.17
5702.54
5702.92
5700.56
5700.86
5701.14
5701.46
5701.81
5702.17
5702.53
5702.9
5700.55
5700.84
5701.15
5701.49
5701.83
5702.18
5702.52
5702.86
5706.96
5705.88
5705.09
5704.5
5704.07
5703.77
5703.61
5703.58
5708.25
5706.7
5705.61
5704.82
5704.26
5703.88
5703.67
5703.62
5709.45
5707.48
5706.06
5705.08
5704.4
5703.96
5703.71
5703.65
5709.99
5707.86
5706.3
5705.23
5704.5
5704.02
5703.74
5703.67
5709.7
5707.66
5706.18
5705.17
5704.47
5704.01
5703.75
5703.69
5708.57
5706.93
5705.76
5704.93
5704.35
5703.96
5703.73
5703.68
5707.27
5706.13
5705.29
5704.66
5704.21
5703.89
5703.71
5703.66
5704.91
5703.31
5702.2
5701.51
5701.25
5701.45
5702.16
5703.37
5706.72
5704.44
5702.83
5701.79
5701.29
5701.36
5702.04
5703.3
5708.29
5705.43
5703.4
5702.09
5701.39
5701.34
5701.97
5703.25
5709.05
5705.95
5703.73
5702.3
5701.52
5701.41
5702
5703.27
5708.7
5705.74
5703.64
5702.28
5701.55
5701.46
5702.05
5703.29
5707.21
5704.83
5703.15
5702.06
5701.5
5701.52
5702.15
5703.36
5705.32
5703.64
5702.47
5701.74
5701.43
5701.59
5702.26
5703.41
5684
5682.01
5680.31
5678.84
5677.46
5675.74
5673.43
5672.62
5685.93
5683.34
5681.19
5679.39
5677.82
5675.97
5673.43
5672.35
5687.5
5684.4
5681.9
5679.88
5678.15
5676.17
5673.47
5672.21
5688.26
5684.96
5682.32
5680.21
5678.41
5676.38
5673.61
5672.27
5687.85
5684.68
5682.14
5680.09
5678.34
5676.35
5673.64
5672.35
5686.37
5683.69
5681.47
5679.66
5678.08
5676.23
5673.7
5672.57
5684.31
5682.22
5680.49
5679.01
5677.66
5675.98
5673.71
5672.87
5688.63
5691.59
5693.92
5695.81
5697.35
5698.61
5699.66
5700.54
5685.72
5689.95
5692.89
5695.19
5697
5698.38
5699.52
5700.5
5683.67
5688.99
5692.27
5694.87
5696.88
5698.45
5699.74
5700.75
5683.16
5688.65
5692.06
5694.81
5696.94
5698.57
5699.86
5700.92
5683.62
5688.8
5692.07
5694.72
5696.73
5698.24
5699.4
5700.44
5685.55
5689.7
5692.69
5695
5696.83
5698.27
5699.38
5700.31
5688.48
5691.46
5693.8
5695.7
5697.25
5698.51
5699.57
5700.46
5700.69
5701.1
5701.5
5701.89
5702.25
5702.6
5702.93
5703.24
5700.35
5700.95
5701.4
5701.81
5702.19
5702.54
5702.87
5703.18
5700.59
5701.16
5701.57
5701.96
5702.34
5702.71
5703.05
5703.39
5700.51
5701.17
5701.61
5702.03
5702.44
5702.83
5703.2
5703.53
5700.36
5700.96
5701.39
5701.79
5702.17
5702.54
5702.88
5703.2
5700.23
5700.81
5701.26
5701.67
5702.06
5702.43
5702.78
5703.11
5700.55
5700.96
5701.35
5701.74
5702.11
5702.46
5702.79
5703.12
5708.62
5707.37
5706.43
5705.74
5705.23
5704.85
5704.59
5704.45
5710.02
5708.32
5707.01
5706.06
5705.38
5704.89
5704.56
5704.39
5711.31
5709.33
5707.74
5706.58
5705.76
5705.18
5704.8
5704.6
5711.85
5709.74
5708.04
5706.79
5705.91
5705.31
5704.92
5704.72
5711.06
5709.07
5707.49
5706.33
5705.51
5704.94
5704.56
5704.37
5709.72
5708.03
5706.75
5705.84
5705.18
5704.71
5704.4
5704.25
5708.26
5707.03
5706.13
5705.45
5704.95
5704.58
5704.34
5704.24
5707.66
5705.7
5704.3
5703.39
5702.9
5702.87
5703.35
5704.3
5709.81
5707.05
5704.96
5703.56
5702.76
5701.7
5701.32
5702.29
5711.62
5708.5
5705.9
5704.03
5702.95
5702.57
5702.91
5703.78
5712.51
5709.26
5706.44
5704.41
5703.22
5702.77
5703.01
5703.81
5711.35
5708.2
5705.62
5703.83
5702.78
5702.4
5702.69
5703.55
5709.41
5706.69
5704.68
5703.34
5702.58
5702.39
5702.78
5703.76
5707.13
5705.26
5703.93
5703.06
5702.61
5702.62
5703.14
5704.15
5687.48
5685.29
5683.32
5681.7
5680.47
5678.69
5676.33
5675.53
5689.65
5686.63
5684.16
5682.1
5678.73
5676.57
5674.13
5673.35
5691.45
5687.95
5684.85
5682.43
5680.63
5678.7
5676.16
5675.48
5692.38
5688.68
5685.3
5682.74
5680.8
5678.73
5676.1
5675.62
5691.17
5687.62
5684.59
5680.71
5677.11
5678.31
5675.75
5675.17
5689.16
5686.17
5683.52
5681.53
5680.09
5678.16
5675.74
5674.89
5686.88
5684.78
5682.99
5681.43
5679.97
5678.2
5675.88
5675.03
5688.4
5691.45
5693.79
5695.69
5697.23
5698.48
5699.51
5700.37
5685.14
5689.64
5692.71
5695.07
5696.89
5698.3
5699.46
5700.4
5683.15
5688.75
5692.05
5694.72
5696.8
5698.41
5699.66
5700.64
5682.66
5688.3
5691.71
5694.45
5696.54
5698.19
5699.5
5700.55
5682.86
5688.36
5691.67
5694.29
5696.3
5697.88
5699.15
5700.15
5684.99
5689.45
5692.32
5694.63
5696.43
5697.83
5698.99
5699.98
5687.6
5690.64
5693.05
5695.05
5696.68
5698.03
5699.16
5700.1
5700.58
5700.99
5701.38
5701.76
5702.12
5702.47
5702.8
5703.12
5700.37
5700.94
5701.35
5701.74
5702.11
5702.46
5702.8
5703.12
5700.52
5701.05
5701.41
5701.77
5702.15
5702.53
5702.9
5703.24
5700.62
5701.03
5701.33
5701.68
5702.04
5702.41
5702.78
5703.12
5700.42
5700.8
5701.11
5701.45
5701.81
5702.17
5702.53
5702.88
5700.26
5700.66
5701.01
5701.38
5701.74
5702.1
5702.46
5702.81
5700.48
5700.78
5701.11
5701.45
5701.8
5702.15
5702.49
5702.83
5708.24
5707.03
5706.1
5705.42
5704.92
5704.56
5704.32
5704.23
5709.7
5708
5706.7
5705.76
5705.09
5704.62
5704.32
5704.18
5710.78
5708.79
5707.2
5706.05
5705.26
5704.73
5704.4
5704.27
5711.1
5708.86
5707.13
5705.9
5705.05
5704.49
5704.14
5703.99
5709.99
5707.99
5706.49
5705.43
5704.69
5704.19
5703.88
5703.76
5708.46
5706.89
5705.75
5704.93
5704.34
5703.94
5703.7
5703.62
5707.05
5705.99
5705.19
5704.59
5704.14
5703.83
5703.65
5703.62
5707.03
5705.15
5703.81
5702.94
5702.52
5702.58
5703.16
5704.22
5709.1
5706.39
5704.38
5703.1
5702.41
5702.3
5702.82
5703.94
5710.49
5707.41
5704.92
5703.26
5702.35
5702.14
5702.63
5703.77
5710.58
5707.33
5704.7
5702.94
5701.98
5701.73
5702.21
5703.34
5708.98
5706.02
5703.8
5702.35
5701.57
5701.44
5701.99
5703.18
5706.85
5704.56
5702.93
5701.86
5701.32
5701.34
5701.97
5703.19
5705
5703.5
5702.39
5701.66
5701.36
5701.53
5702.2
5703.38
5686.64
5684.47
5682.66
5681.11
5679.7
5677.98
5675.7
5674.91
5688.7
5685.7
5683.29
5681.4
5679.8
5677.96
5675.5
5674.54
5690.04
5686.49
5683.54
5681.29
5679.52
5677.55
5674.96
5674.06
5690.09
5686.4
5683.33
5680.96
5678.79
5676.7
5674.11
5673.7
5688.26
5685
5682.33
5680.29
5678.49
5676.24
5673.67
5673.02
5686.13
5683.6
5681.49
5679.71
5678.15
5676.39
5673.97
5673.08
5684.2
5682.32
5680.61
5679.11
5677.72
5675.99
5673.68
5672.92
5687.61
5690.71
5693.13
5695.11
5696.73
5698.07
5699.2
5700.13
5685.01
5689.51
5692.43
5694.75
5696.57
5697.98
5699.14
5700.12
5682.87
5688.75
5691.91
5694.54
5696.57
5698.14
5699.36
5700.33
5682.12
5688.38
5691.83
5694.61
5696.74
5698.43
5699.76
5700.83
5682.94
5688.8
5692.16
5694.81
5696.86
5698.45
5699.72
5700.72
5685.07
5689.8
5692.86
5695.18
5697.03
5698.52
5699.68
5700.61
5688.57
5691.64
5693.96
5695.84
5697.37
5698.62
5699.65
5700.51
5700.56
5700.86
5701.18
5701.52
5701.85
5702.18
5702.5
5702.82
5700.35
5700.77
5701.13
5701.48
5701.83
5702.17
5702.49
5702.81
5700.53
5700.97
5701.3
5701.64
5701.99
5702.33
5702.67
5702.98
5700.82
5701.26
5701.58
5701.92
5702.28
5702.64
5702.99
5703.33
5700.73
5701.29
5701.66
5702.02
5702.38
5702.73
5703.06
5703.37
5700.52
5701.12
5701.54
5701.91
5702.26
5702.6
5702.92
5703.23
5700.73
5701.14
5701.53
5701.9
5702.27
5702.61
5702.95
5703.26
5707.41
5706.29
5705.44
5704.8
5704.31
5703.97
5703.76
5703.69
5708.95
5707.32
5706.11
5705.23
5704.59
5704.14
5703.86
5703.73
5710.61
5708.58
5707.01
5705.87
5705.07
5704.51
5704.15
5703.97
5712.01
5709.61
5707.81
5706.52
5705.62
5705.02
5704.65
5704.48
5711.36
5709.4
5707.78
5706.56
5705.69
5705.09
5704.69
5704.48
5710.17
5708.45
5707.1
5706.13
5705.44
5704.94
5704.62
5704.46
5708.63
5707.37
5706.43
5705.74
5705.22
5704.84
5704.59
5704.46
5705.44
5703.85
5702.67
5701.88
5701.5
5701.59
5702.18
5703.26
5707.49
5705.06
5703.28
5702.09
5701.43
5701.33
5701.83
5702.89
5709.79
5706.76
5704.39
5702.78
5701.86
5701.59
5701.97
5702.94
5711.54
5708.27
5705.55
5703.64
5702.54
5702.17
5702.52
5703.48
5711.27
5708.16
5705.54
5703.72
5702.68
5702.33
5702.67
5703.63
5709.74
5706.96
5704.85
5703.47
5702.7
5702.52
5702.96
5703.98
5707.6
5705.64
5704.25
5703.34
5702.88
5702.89
5703.41
5704.41
5684.6
5682.7
5680.95
5679.4
5677.97
5676.24
5673.96
5673.19
5686.56
5683.91
5681.7
5679.88
5678.32
5676.49
5673.94
5673.17
5688.92
5685.59
5682.81
5680.69
5678.95
5677.05
5674.42
5672.8
5690.87
5687.19
5683.99
5681.54
5679.65
5677.66
5675.14
5674.51
5690.71
5687.19
5684.17
5681.87
5680.06
5678.12
5675.63
5674.95
5689.34
5686.3
5683.85
5681.94
5680.33
5678.48
5676.04
5674.78
5687.35
5685.17
5683.38
5681.86
5680.48
5678.79
5676.53
5675.73
5700.68
5700.77
5700.84
5700.73
5700.79
5700.76
5700.67
5703.2
5703.26
5703.28
5703.31
5703.29
5703.24
5703.19
5703.7
5703.76
5703.79
5703.8
5703.82
5703.8
5703.76
5704.74
5704.73
5704.71
5704.72
5704.7
5704.71
5704.68
5678.2
5678.18
5678.2
5678.27
5678.25
5678.27
5678.32
5701.27
5701.25
5701.47
5701.72
5701.2
5701.08
5701.19
5703.52
5703.46
5703.66
5703.82
5703.48
5703.41
5703.43
5704.46
5704.38
5704.56
5704.7
5704.34
5704.25
5704.27
5705.37
5703.42
5704.8
5704.81
5704.26
5704.72
5705.29
5681.01
5680.27
5681.99
5683.51
5682.47
5680.86
5680.4
5701.08
5701.14
5701.37
5701.34
5700.88
5700.76
5700.87
5703.42
5703.41
5703.54
5703.42
5703.19
5703.15
5703.18
5704.27
5704.21
5704.3
5704.02
5703.81
5703.71
5703.73
5705.41
5705.24
5705.07
5704.61
5704.52
5704.59
5704.73
5680.33
5680.37
5680.57
5680.83
5679.88
5679.13
5678.55
5700.87
5700.88
5701.04
5701.61
5701.46
5701.34
5701.23
5703.13
5703.1
5703.26
5703.62
5703.64
5703.5
5703.53
5703.76
5703.76
5703.96
5704.48
5704.44
5704.45
5704.47
5704.49
5704.11
5704.03
5704.54
5704.68
5705.16
5705.5
5678.74
5679.63
5680.02
5681.54
5681.08
5680.28
5681.03
5701.83
5702.95
5703.81
5704.48
5704.98
5705.35
5705.61
5705.78
5701.9
5703.04
5703.89
5704.53
5705.01
5705.36
5705.61
5705.77
5701.91
5703.06
5703.91
5704.53
5705.01
5705.35
5705.6
5705.76
5701.84
5702.98
5703.88
5704.55
5705.01
5705.34
5705.59
5705.75
5701.85
5703.01
5703.87
5704.5
5704.98
5705.33
5705.59
5705.75
5701.9
5703.02
5703.86
5704.5
5704.97
5705.33
5705.58
5705.75
5701.78
5702.89
5703.75
5704.4
5704.9
5705.27
5705.53
5705.71
5703.7
5704.21
5704.62
5704.96
5705.24
5705.47
5705.65
5705.77
5703.78
5704.28
5704.68
5705.01
5705.28
5705.51
5705.68
5705.79
5703.8
5704.3
5704.7
5705.02
5705.29
5705.51
5705.68
5705.79
5703.83
5704.33
5704.73
5705.05
5705.3
5705.51
5705.68
5705.79
5703.81
5704.28
5704.67
5705
5705.27
5705.49
5705.66
5705.77
5703.72
5704.22
5704.62
5704.95
5705.22
5705.45
5705.63
5705.75
5703.65
5704.13
5704.52
5704.85
5705.13
5705.36
5705.55
5705.68
5703.99
5704.48
5704.9
5705.23
5705.47
5705.65
5705.78
5705.87
5704.06
5704.53
5704.95
5705.28
5705.52
5705.69
5705.82
5705.9
5704.09
5704.55
5704.96
5705.28
5705.52
5705.7
5705.82
5705.9
5704.09
5704.55
5704.96
5705.28
5705.52
5705.69
5705.82
5705.9
5704.12
5704.56
5704.96
5705.27
5705.5
5705.67
5705.8
5705.88
5704.09
5704.54
5704.92
5705.23
5705.46
5705.63
5705.76
5705.84
5704.05
5704.47
5704.84
5705.13
5705.35
5705.53
5705.66
5705.76
5706.1
5705.98
5705.85
5705.8
5705.8
5705.83
5705.88
5705.92
5706.09
5705.98
5705.85
5705.8
5705.81
5705.85
5705.9
5705.94
5706.07
5705.96
5705.83
5705.79
5705.8
5705.84
5705.89
5705.94
5706.05
5705.93
5705.81
5705.77
5705.79
5705.83
5705.89
5705.93
5706
5705.87
5705.75
5705.72
5705.74
5705.79
5705.85
5705.9
5705.97
5705.81
5705.68
5705.65
5705.67
5705.73
5705.8
5705.86
5705.87
5705.69
5705.56
5705.53
5705.56
5705.62
5705.69
5705.76
5690.84
5698.45
5701.97
5703.78
5704.75
5705.3
5705.61
5705.79
5690.76
5698.4
5701.94
5703.76
5704.75
5705.3
5705.62
5705.8
5690.72
5698.37
5701.92
5703.75
5704.74
5705.29
5705.61
5705.8
5690.74
5698.37
5701.92
5703.74
5704.73
5705.29
5705.61
5705.79
5690.74
5698.37
5701.9
5703.72
5704.71
5705.26
5705.58
5705.77
5690.79
5698.39
5701.91
5703.71
5704.69
5705.24
5705.55
5705.74
5690.91
5698.45
5701.92
5703.69
5704.64
5705.16
5705.47
5705.65
5702.3
5703.37
5704.16
5704.77
5705.23
5705.58
5705.84
5706.02
5702.25
5703.25
5704.01
5704.6
5705.04
5705.37
5705.59
5705.75
5702.4
5703.34
5704.03
5704.54
5704.92
5705.21
5705.41
5705.54
5702.74
5703.71
5704.39
5704.86
5705.19
5705.43
5705.63
5705.75
5702.14
5703.1
5703.82
5704.36
5704.77
5705.1
5705.33
5705.48
5702.1
5703.12
5703.94
5704.53
5704.99
5705.33
5705.57
5705.72
5702.23
5703.3
5704.11
5704.71
5705.17
5705.51
5705.76
5705.94
5703.93
5704.36
5704.71
5705.02
5705.27
5705.49
5705.66
5705.8
5703.87
5704.31
5704.66
5704.93
5705.21
5705.41
5705.56
5705.67
5704.04
5704.44
5704.76
5705
5705.19
5705.34
5705.45
5705.53
5704.2
5704.61
5704.94
5705.19
5705.38
5705.51
5705.63
5705.72
5703.88
5704.3
5704.63
5704.89
5705.09
5705.25
5705.37
5705.45
5703.85
5704.32
5704.67
5704.95
5705.19
5705.38
5705.53
5705.65
5703.86
5704.31
5704.68
5704.99
5705.25
5705.46
5705.64
5705.77
5704.59
5704.85
5705.1
5705.31
5705.48
5705.61
5705.73
5705.81
5704.41
5704.1
5704.37
5704.96
5705.35
5705.5
5705.61
5705.7
5704.62
5704.69
5704.8
5704.98
5705.24
5705.38
5705.46
5705.53
5704.82
5705
5705.2
5705.36
5705.49
5705.59
5705.67
5705.73
5704.42
5704.59
5704.74
5704.89
5705.04
5705.19
5705.33
5705.43
5704.35
5704.53
5704.54
5704.71
5705.28
5705.45
5705.58
5705.67
5704.43
5704.74
5705.03
5705.27
5705.46
5705.61
5705.72
5705.8
5706.27
5705.98
5705.81
5705.71
5705.69
5705.72
5705.77
5705.82
5704.57
5704.75
5705.53
5705.7
5705.63
5705.62
5705.65
5705.7
5705.82
5705.86
5705.78
5705.7
5705.68
5705.73
5705.75
5705.74
5705.85
5705.91
5705.83
5705.77
5705.73
5705.71
5705.7
5705.7
5705.12
5705.4
5705.61
5705.56
5705.57
5705.59
5705.58
5705.57
5705.31
5705.07
5704.88
5704.81
5705.54
5705.57
5705.61
5705.66
5706.3
5706.03
5705.83
5705.74
5705.72
5705.74
5705.78
5705.83
5692.86
5699.63
5702.66
5704.16
5704.95
5705.37
5705.62
5705.76
5693.21
5699.63
5702.45
5703.7
5704.31
5704.95
5705.44
5705.59
5692.43
5698.42
5701.06
5703.13
5704.4
5704.96
5705.59
5705.76
5694.66
5700.38
5702.87
5704.32
5704.98
5705.3
5705.4
5705.51
5693.92
5699.72
5701.9
5703.19
5704.05
5704.47
5704.84
5705.39
5691.96
5698.36
5701.36
5702.99
5704.47
5704.99
5705.35
5705.52
5692.34
5699.25
5702.4
5704.01
5704.86
5705.33
5705.59
5705.75
5702.1
5703.18
5704
5704.62
5705.11
5705.47
5705.75
5705.93
5702.19
5703.22
5704.03
5704.61
5705.01
5705.32
5705.55
5705.71
5702.34
5703.32
5704.05
5704.58
5704.96
5705.24
5705.43
5705.56
5702.36
5703.36
5704.08
5704.6
5704.97
5705.23
5705.42
5705.56
5701.86
5702.86
5703.64
5704.24
5704.69
5705
5705.22
5705.37
5701.79
5702.88
5703.78
5704.42
5704.87
5705.19
5705.44
5705.61
5701.92
5703.04
5703.89
5704.51
5704.98
5705.33
5705.59
5705.76
5703.85
5704.31
5704.69
5705.01
5705.27
5705.5
5705.67
5705.8
5703.85
5704.32
5704.7
5704.99
5705.21
5705.4
5705.55
5705.62
5703.95
5704.39
5704.75
5705.03
5705.25
5705.41
5705.53
5705.59
5703.83
5704.27
5704.63
5704.91
5705.13
5705.3
5705.43
5705.54
5703.63
5704.1
5704.48
5704.78
5705.01
5705.19
5705.31
5705.38
5703.64
5704.17
5704.55
5704.86
5705.11
5705.31
5705.47
5705.57
5703.7
5704.19
5704.59
5704.93
5705.2
5705.43
5705.6
5705.73
5704.45
5704.79
5705.1
5705.35
5705.55
5705.69
5705.8
5705.88
5704.37
5704.68
5704.99
5705.24
5705.43
5705.58
5705.68
5705.66
5704.47
5704.8
5705.12
5705.4
5705.59
5705.72
5705.79
5705.69
5704.2
5704.51
5704.83
5705.09
5705.29
5705.44
5705.53
5705.6
5704.02
5704.37
5704.73
5705.02
5705.24
5705.4
5705.51
5705.47
5703.95
5704.34
5704.74
5705.06
5705.31
5705.48
5705.61
5705.65
5704
5704.45
5704.87
5705.2
5705.44
5705.62
5705.75
5705.84
5706.49
5706.21
5705.99
5705.88
5705.84
5705.85
5705.89
5705.92
5706.43
5706.28
5706.07
5705.94
5705.88
5705.86
5705.84
5705.86
5706.42
5706.44
5706.31
5706.16
5706.07
5706.04
5705.99
5705.78
5706.01
5706.23
5706.21
5706.13
5706.05
5705.99
5705.94
5705.89
5705.96
5706.09
5706.01
5705.91
5705.86
5705.84
5705.84
5705.78
5705.97
5705.99
5705.88
5705.81
5705.78
5705.78
5705.8
5705.81
5706.07
5705.99
5705.87
5705.81
5705.8
5705.83
5705.87
5705.9
5692.34
5699.33
5702.5
5704.1
5704.95
5705.42
5705.68
5705.83
5692.32
5699.33
5702.52
5704.13
5704.99
5705.46
5705.72
5705.85
5692.43
5699.39
5702.57
5704.18
5705.05
5705.54
5705.83
5705.99
5692.62
5699.37
5702.58
5704.24
5705.11
5705.59
5705.85
5705.96
5691.94
5699.01
5702.31
5703.99
5704.89
5705.4
5705.69
5705.85
5691.46
5698.79
5702.16
5703.88
5704.81
5705.33
5705.61
5705.77
5691.08
5698.58
5702.05
5703.82
5704.78
5705.32
5705.62
5705.79
5701.9
5702.99
5703.79
5704.39
5704.84
5705.18
5705.44
5705.62
5701.9
5702.91
5703.66
5704.22
5704.64
5704.95
5705.18
5705.36
5702
5702.94
5703.66
5704.21
5704.62
5704.91
5705.13
5705.28
5702.6
5703.53
5704.2
5704.68
5705.03
5705.28
5705.46
5705.61
5702.42
5703.35
5704.02
5704.51
5704.88
5705.14
5705.33
5705.45
5702.33
5703.31
5704.04
5704.58
5704.99
5705.28
5705.5
5705.66
5702.26
5703.32
5704.11
5704.71
5705.17
5705.53
5705.79
5705.98
5703.61
5704.06
5704.43
5704.74
5705.01
5705.23
5705.41
5705.55
5703.52
5703.96
5704.32
5704.6
5704.83
5705.02
5705.19
5705.34
5703.64
5704.05
5704.38
5704.65
5704.85
5705.02
5705.15
5705.26
5704.01
5704.43
5704.76
5705.01
5705.21
5705.37
5705.5
5705.6
5704.01
5704.4
5704.69
5704.93
5705.11
5705.24
5705.34
5705.42
5703.9
5704.34
5704.68
5704.94
5705.14
5705.24
5705.34
5705.59
5703.92
5704.34
5704.69
5704.99
5705.24
5705.46
5705.64
5705.77
5703.96
5704.33
5704.66
5704.94
5705.16
5705.34
5705.48
5705.59
5703.91
5704.16
5704.43
5704.57
5704.4
5704.51
5705.21
5705.34
5704.07
5704.28
5704.51
5704.71
5704.79
5704.78
5704.92
5705.21
5704.59
5704.8
5705.01
5705.2
5705.34
5705.45
5705.51
5705.59
5704.5
5704.65
5704.84
5705.01
5705.15
5705.17
5705.13
5705.36
5704.55
5704.76
5704.99
5705.02
5705.03
5705.17
5705.33
5705.68
5704.62
5704.87
5705.1
5705.3
5705.47
5705.6
5705.71
5705.8
5705.67
5705.5
5705.36
5705.32
5705.34
5705.43
5705.52
5705.59
5705.36
5705.39
5704.81
5703.94
5703.94
5703.98
5705.02
5705.36
5705.21
5705.37
5705.35
5705.29
5705.1
5704.84
5704.98
5705.34
5705.64
5705.77
5705.73
5705.66
5705.62
5705.62
5705.6
5705.57
5705.77
5705.8
5705.73
5705.7
5705.67
5705.61
5705.49
5705.53
5706.2
5705.98
5705.51
5705.22
5705.18
5705.19
5705.37
5705.69
5706.4
5706.07
5705.83
5705.71
5705.68
5705.71
5705.75
5705.8
5691.19
5698.53
5701.87
5703.53
5704.43
5704.98
5705.31
5705.5
5691.83
5698.5
5700.77
5702.06
5702.84
5703.23
5704.07
5705.26
5691.88
5698.42
5701.31
5702.71
5704.44
5704.88
5705.06
5705.29
5692.74
5700.35
5703.11
5704.32
5704.88
5705.23
5705.44
5705.53
5691.88
5698.09
5700.93
5702.3
5702.97
5704.6
5705.53
5705.58
5692.54
5699.42
5702.4
5703.79
5704.39
5704.71
5705.27
5705.53
5692.87
5699.65
5702.69
5704.19
5704.97
5705.38
5705.61
5705.76
5705.86
5705.91
5705.94
5705.96
5705.96
5705.96
5705.97
5705.97
5705.86
5705.9
5705.93
5705.95
5705.95
5705.96
5705.96
5705.97
5705.84
5705.89
5705.92
5705.93
5705.94
5705.95
5705.95
5705.96
5705.84
5705.88
5705.91
5705.93
5705.94
5705.94
5705.95
5705.95
5705.83
5705.88
5705.91
5705.93
5705.93
5705.94
5705.94
5705.95
5705.83
5705.88
5705.91
5705.92
5705.93
5705.93
5705.94
5705.94
5705.8
5705.85
5705.88
5705.9
5705.9
5705.91
5705.91
5705.91
5705.84
5705.88
5705.92
5705.94
5705.95
5705.96
5705.96
5705.96
5705.86
5705.9
5705.93
5705.95
5705.96
5705.97
5705.97
5705.97
5705.86
5705.9
5705.93
5705.95
5705.96
5705.96
5705.97
5705.97
5705.85
5705.89
5705.92
5705.94
5705.96
5705.96
5705.96
5705.96
5705.84
5705.88
5705.91
5705.93
5705.95
5705.95
5705.95
5705.95
5705.82
5705.86
5705.89
5705.91
5705.93
5705.94
5705.94
5705.94
5705.76
5705.81
5705.84
5705.87
5705.88
5705.89
5705.89
5705.9
5705.92
5705.95
5705.98
5706
5706.01
5706.02
5706.02
5706.02
5705.95
5705.98
5706.01
5706.02
5706.03
5706.04
5706.04
5706.04
5705.95
5705.98
5706
5706.02
5706.03
5706.04
5706.04
5706.04
5705.95
5705.98
5706
5706.02
5706.03
5706.03
5706.04
5706.03
5705.93
5705.96
5705.98
5706
5706.01
5706.02
5706.02
5706.02
5705.89
5705.93
5705.96
5705.98
5705.99
5706
5706
5706
5705.81
5705.85
5705.89
5705.91
5705.93
5705.94
5705.94
5705.94
5705.95
5705.97
5705.99
5706.01
5706.02
5706.02
5706.02
5706.02
5705.98
5706
5706.02
5706.04
5706.05
5706.05
5706.05
5706.05
5705.97
5706
5706.02
5706.03
5706.04
5706.05
5706.05
5706.05
5705.97
5705.99
5706.02
5706.03
5706.04
5706.05
5706.05
5706.05
5705.94
5705.97
5705.99
5706.01
5706.02
5706.03
5706.03
5706.03
5705.9
5705.93
5705.96
5705.98
5705.99
5706
5706
5706
5705.81
5705.84
5705.87
5705.9
5705.91
5705.92
5705.93
5705.93
5705.87
5705.92
5705.96
5705.99
5706.01
5706.02
5706.02
5706.02
5705.89
5705.94
5705.98
5706.01
5706.03
5706.04
5706.05
5706.04
5705.88
5705.94
5705.98
5706.01
5706.03
5706.04
5706.04
5706.04
5705.88
5705.94
5705.98
5706.01
5706.03
5706.04
5706.04
5706.04
5705.86
5705.91
5705.95
5705.98
5706
5706.01
5706.02
5706.02
5705.83
5705.88
5705.92
5705.95
5705.98
5705.99
5705.99
5705.99
5705.74
5705.79
5705.84
5705.87
5705.89
5705.91
5705.92
5705.92
5706.12
5706.17
5706.2
5706.21
5706.21
5706.2
5706.18
5706.19
5705.84
5705.89
5705.92
5705.94
5705.95
5705.96
5705.96
5705.96
5705.62
5705.66
5705.7
5705.73
5705.75
5705.77
5705.79
5705.8
5705.84
5705.89
5705.94
5705.97
5706
5706.02
5706.02
5706.04
5705.56
5705.61
5705.65
5705.68
5705.71
5705.73
5705.75
5705.76
5705.81
5705.86
5705.89
5705.91
5705.92
5705.92
5705.93
5705.93
5706.03
5706.08
5706.11
5706.12
5706.12
5706.12
5706.11
5706.11
5705.88
5705.93
5705.97
5706
5706.02
5706.03
5706.04
5706.03
5705.74
5705.78
5705.82
5705.85
5705.87
5705.88
5705.85
5705.83
5705.57
5705.6
5705.63
5705.65
5705.67
5705.69
5705.69
5705.64
5705.78
5705.82
5705.85
5705.87
5705.89
5705.91
5705.93
5705.92
5705.51
5705.54
5705.57
5705.59
5705.62
5705.64
5705.64
5705.61
5705.72
5705.76
5705.79
5705.82
5705.84
5705.86
5705.83
5705.82
5705.84
5705.89
5705.93
5705.96
5705.98
5705.99
5705.99
5705.99
5705.87
5705.91
5705.94
5705.96
5705.98
5705.99
5706
5706
5705.75
5705.8
5705.83
5705.86
5705.89
5705.9
5705.92
5705.92
5705.56
5705.58
5705.59
5705.61
5705.62
5705.63
5705.59
5705.5
5705.77
5705.79
5705.82
5705.84
5705.86
5705.87
5705.87
5705.8
5705.48
5705.51
5705.53
5705.55
5705.56
5705.58
5705.53
5705.47
5705.72
5705.76
5705.8
5705.82
5705.85
5705.87
5705.88
5705.89
5705.86
5705.89
5705.92
5705.95
5705.96
5705.97
5705.98
5705.98
5705.85
5705.88
5705.9
5705.92
5705.93
5705.94
5705.95
5705.95
5705.73
5705.77
5705.79
5705.8
5705.75
5705.73
5705.82
5705.85
5705.73
5705.72
5705.71
5705.71
5705.7
5705.69
5705.55
5705.49
5705.73
5705.75
5705.77
5705.78
5705.79
5705.8
5705.79
5705.64
5705.6
5705.62
5705.62
5705.62
5705.62
5705.62
5705.55
5705.46
5705.7
5705.72
5705.75
5705.75
5705.73
5705.75
5705.8
5705.81
5705.86
5705.88
5705.91
5705.92
5705.93
5705.94
5705.95
5705.95
5705.83
5705.87
5705.9
5705.92
5705.94
5705.95
5705.95
5705.96
5705.66
5705.71
5705.75
5705.73
5705.62
5705.63
5705.7
5705.76
5705.81
5705.79
5705.74
5705.79
5705.82
5705.83
5705.72
5705.63
5705.65
5705.68
5705.71
5705.73
5705.75
5705.76
5705.74
5705.58
5705.62
5705.66
5705.68
5705.63
5705.6
5705.62
5705.65
5705.63
5705.6
5705.66
5705.7
5705.68
5705.56
5705.54
5705.71
5705.73
5705.82
5705.87
5705.9
5705.92
5705.94
5705.95
5705.96
5705.96
5706.03
5706.09
5706.12
5706.13
5706.13
5706.13
5706.12
5706.12
5705.8
5705.87
5705.91
5705.94
5705.95
5705.96
5705.96
5705.96
5705.62
5705.66
5705.69
5705.72
5705.74
5705.76
5705.77
5705.79
5705.65
5705.71
5705.75
5705.79
5705.81
5705.84
5705.86
5705.88
5705.45
5705.51
5705.56
5705.59
5705.62
5705.65
5705.67
5705.69
5705.71
5705.77
5705.8
5705.83
5705.84
5705.85
5705.86
5705.87
5705.85
5705.9
5705.94
5705.95
5705.96
5705.96
5705.96
5705.97
5705.88
5705.93
5705.97
5706
5706.02
5706.03
5706.03
5706.03
5705.66
5705.77
5705.83
5705.86
5705.88
5705.9
5705.91
5705.91
5705.62
5705.65
5705.68
5705.71
5705.72
5705.74
5705.75
5705.76
5705.6
5705.64
5705.68
5705.7
5705.73
5705.76
5705.77
5705.79
5705.41
5705.45
5705.5
5705.54
5705.57
5705.59
5705.61
5705.63
5705.62
5705.71
5705.75
5705.78
5705.8
5705.82
5705.83
5705.83
5705.8
5705.85
5705.88
5705.91
5705.93
5705.94
5705.94
5705.94
5705.93
5705.97
5706
5706.02
5706.04
5706.05
5706.05
5706.05
5705.66
5705.81
5705.83
5705.83
5705.85
5705.87
5705.88
5705.89
5705.55
5705.56
5705.57
5705.57
5705.64
5705.83
5705.84
5705.84
5705.62
5705.62
5705.6
5705.63
5705.69
5705.73
5705.75
5705.76
5705.29
5705.31
5705.34
5705.35
5705.5
5705.67
5705.69
5705.68
5705.63
5705.72
5705.76
5705.78
5705.81
5705.82
5705.83
5705.84
5705.89
5705.92
5705.95
5705.97
5705.98
5705.99
5705.99
5705.99
5705.95
5705.98
5706
5706.01
5706.02
5706.03
5706.03
5706.03
5705.88
5705.86
5705.84
5705.84
5705.85
5705.85
5705.84
5705.85
5705.71
5705.81
5705.77
5705.69
5705.69
5705.68
5705.67
5705.66
5705.85
5705.83
5705.78
5705.7
5705.78
5705.78
5705.78
5705.78
5705.43
5705.41
5705.42
5705.42
5705.47
5705.65
5705.69
5705.7
5705.8
5705.77
5705.76
5705.82
5705.84
5705.85
5705.85
5705.85
5705.93
5705.96
5705.98
5705.99
5706
5706.01
5706.01
5706.01
5705.91
5705.95
5705.98
5706.01
5706.02
5706.03
5706.04
5706.04
5705.91
5705.94
5705.96
5705.97
5705.98
5705.97
5705.95
5705.94
5706.08
5706.13
5706.17
5706.19
5706.19
5706.07
5705.92
5705.79
5705.69
5705.47
5705.81
5705.72
5705.63
5705.83
5705.88
5705.85
5705.92
5705.86
5705.7
5705.85
5705.99
5705.93
5705.74
5705.7
5705.84
5705.88
5705.89
5705.9
5705.93
5705.93
5705.92
5705.91
5705.87
5705.92
5705.96
5705.99
5706
5706.01
5706.02
5706.02
5705.71
5705.77
5705.8
5705.82
5705.83
5705.84
5705.84
5705.85
5705.45
5705.51
5705.56
5705.59
5705.61
5705.63
5705.64
5705.66
5705.36
5705.42
5705.46
5705.5
5705.53
5705.56
5705.57
5705.59
5705.69
5705.75
5705.8
5705.83
5705.86
5705.88
5705.88
5705.9
5705.53
5705.57
5705.61
5705.64
5705.66
5705.68
5705.69
5705.7
5705.76
5705.82
5705.86
5705.88
5705.9
5705.91
5705.91
5705.91
5706.08
5706.13
5706.17
5706.18
5706.17
5706.16
5706.15
5706.15
5705.64
5705.69
5705.73
5705.76
5705.79
5705.8
5705.81
5705.81
5705.42
5705.48
5705.52
5705.56
5705.58
5705.6
5705.61
5705.62
5705.32
5705.36
5705.4
5705.43
5705.46
5705.48
5705.49
5705.49
5705.66
5705.7
5705.73
5705.76
5705.78
5705.8
5705.81
5705.79
5705.49
5705.53
5705.56
5705.59
5705.6
5705.62
5705.62
5705.61
5705.69
5705.74
5705.78
5705.81
5705.83
5705.84
5705.84
5705.83
5705.86
5705.91
5705.95
5705.98
5706
5706.01
5706.02
5706.01
5705.66
5705.71
5705.75
5705.78
5705.8
5705.82
5705.83
5705.83
5705.42
5705.48
5705.53
5705.56
5705.59
5705.61
5705.63
5705.64
5705.26
5705.3
5705.33
5705.35
5705.37
5705.38
5705.35
5705.34
5705.66
5705.68
5705.71
5705.73
5705.75
5705.76
5705.76
5705.7
5705.5
5705.52
5705.54
5705.56
5705.57
5705.58
5705.56
5705.52
5705.73
5705.77
5705.8
5705.83
5705.85
5705.85
5705.85
5705.87
5705.85
5705.89
5705.93
5705.95
5705.97
5705.98
5705.99
5705.99
5705.66
5705.7
5705.74
5705.77
5705.79
5705.8
5705.81
5705.81
5705.42
5705.46
5705.5
5705.53
5705.52
5705.47
5705.51
5705.58
5705.37
5705.39
5705.4
5705.41
5705.42
5705.4
5705.35
5705.33
5705.63
5705.67
5705.68
5705.69
5705.7
5705.7
5705.69
5705.61
5705.68
5705.69
5705.69
5705.68
5705.68
5705.67
5705.66
5705.66
5705.72
5705.75
5705.77
5705.79
5705.75
5705.71
5705.78
5705.79
5705.85
5705.87
5705.9
5705.92
5705.93
5705.94
5705.95
5705.95
5705.62
5705.68
5705.73
5705.76
5705.79
5705.81
5705.82
5705.82
5705.32
5705.38
5705.46
5705.48
5705.41