/*--------------------------------*- C++ -*----------------------------------*\
| =========                 |                                                 |
| \\      /  F ield         | OpenFOAM: The Open Source CFD Toolbox           |
|  \\    /   O peration     | Version:  plus.master                           |
|   \\  /    A nd           | Web:      www.OpenFOAM.com                      |
|    \\/     M anipulation  |                                                 |
\*---------------------------------------------------------------------------*/
FoamFile
{
    version     2.0;
    format      ascii;
    class       surfaceScalarField;
    location    "8.4";
    object      phi;
}
// * * * * * * * * * * * * * * * * * * * * * * * * * * * * * * * * * * * * * //

dimensions      [0 3 -1 0 0 0 0];

internalField   nonuniform List<scalar> 
138768
(
1.50179e-06
2.54657e-06
1.42963e-07
-1.8793e-06
-2.60268e-06
5.95698e-07
3.1552e-06
3.49981e-07
-2.80087e-06
-7.00521e-07
3.04331e-06
6.77577e-07
-2.78467e-06
-1.71402e-06
2.53231e-06
6.90986e-07
-2.53949e-06
-2.61488e-06
2.73742e-06
3.44215e-07
-2.49823e-06
-3.00027e-06
2.35623e-06
1.30749e-07
-2.3822e-06
1.89028e-06
7.83676e-08
-3.07537e-06
-2.13916e-06
2.35594e-06
2.11575e-06
3.06135e-07
-2.34132e-06
3.29819e-06
5.42465e-06
2.0052e-06
-4.81386e-08
8.91866e-06
2.68777e-06
-3.04519e-06
7.6497e-06
3.09642e-06
-5.84609e-06
8.31065e-06
2.44434e-06
-3.24754e-06
3.58801e-06
1.38647e-06
1.24648e-06
1.00115e-07
-3.12975e-06
2.84716e-06
8.87202e-07
6.52842e-07
-2.57222e-06
8.24658e-06
2.05582e-06
3.18622e-06
4.41241e-06
5.59679e-06
1.23726e-05
-6.81297e-06
9.72587e-06
1.43643e-05
-8.94755e-06
5.43593e-06
1.02243e-05
-3.10274e-06
1.13114e-06
1.828e-06
4.79329e-07
2.34341e-07
-2.97933e-06
2.70501e-06
-3.65069e-07
9.19945e-07
-2.68386e-06
7.8329e-06
-1.23762e-06
3.38227e-06
9.62298e-06
-4.82918e-06
1.38508e-05
-1.02156e-05
-8.46409e-06
4.32414e-05
-6.98914e-06
-4.48854e-06
1.19125e-05
-2.40031e-06
-5.84728e-07
2.34385e-06
-6.71028e-08
3.93842e-07
-2.62189e-06
2.99401e-06
-1.66883e-06
7.12925e-07
-2.7146e-06
8.57275e-06
-4.70187e-06
3.10221e-06
4.91124e-06
-8.71639e-06
1.27636e-05
-6.7323e-06
-7.84759e-06
1.62383e-05
-8.69591e-06
-7.64266e-06
1.03336e-05
-3.02488e-06
-2.98994e-06
1.95067e-06
-8.70198e-07
2.98037e-07
-2.91752e-06
2.62742e-06
-2.27767e-06
3.41271e-07
-2.51811e-06
3.92507e-06
-2.92059e-06
2.13787e-06
3.56741e-07
-2.94255e-06
3.01044e-06
-3.30588e-06
-2.52656e-06
3.5581e-06
-6.14286e-06
-2.51381e-06
2.92457e-06
-3.34411e-06
-2.09308e-06
1.52131e-06
-1.49495e-06
1.27873e-07
-3.18128e-06
1.81193e-06
1.42743e-07
-2.06211e-06
-2.40372e-06
9.26305e-07
3.62188e-07
-2.65339e-06
-4.97359e-07
7.66881e-07
-2.65434e-06
-1.78249e-06
8.55772e-07
-2.45177e-06
-2.89013e-06
4.5431e-07
-2.23116e-06
-3.18999e-06
1.54718e-07
-2.20237e-06
7.50449e-08
-3.26083e-06
-1.85239e-06
2.79163e-07
1.43882e-06
7.61211e-07
-7.79432e-07
-1.55686e-06
-4.21743e-07
1.18279e-06
1.21537e-06
-1.34728e-06
-1.01493e-06
2.64384e-07
1.82215e-06
-8.15824e-07
-1.44176e-06
-2.21022e-07
1.86279e-06
-5.2396e-07
-1.64164e-06
3.91378e-08
1.20658e-06
-7.01652e-07
-1.86764e-06
4.85286e-07
7.85784e-07
-9.14372e-07
5.8316e-07
6.46431e-07
-2.04859e-06
-9.70317e-07
3.17783e-07
1.13303e-06
1.1282e-06
-8.34078e-07
-3.42268e-07
1.26422e-06
2.58383e-06
-9.63438e-07
-2.88542e-07
3.86178e-06
-1.34305e-06
-1.24691e-06
4.50181e-06
-1.65929e-06
-2.18904e-07
3.0185e-06
-1.64054e-06
2.94907e-07
1.55813e-06
2.30537e-07
7.34305e-07
-1.92222e-06
-7.8654e-08
6.76073e-07
1.81013e-06
-6.21678e-07
-7.18598e-07
8.08737e-07
4.28157e-06
-2.6169e-07
7.26182e-07
1.09006e-05
-1.41936e-06
-7.53497e-07
1.50279e-05
-1.61438e-07
8.3675e-07
7.90999e-06
-8.35515e-07
3.71359e-07
2.42592e-06
1.93576e-07
9.54931e-07
-1.51913e-06
2.81146e-08
-1.65897e-07
2.31284e-06
-5.79071e-07
-5.37361e-07
-3.77831e-07
5.13417e-06
-8.57133e-07
-5.09398e-07
1.54057e-05
-9.55877e-07
1.73183e-06
4.08524e-05
1.60636e-07
-2.7161e-07
1.1895e-05
-3.71604e-07
1.01835e-07
3.14571e-06
2.91625e-07
1.18333e-06
-1.25914e-06
-6.34892e-09
-7.02743e-07
1.93086e-06
-6.74779e-07
-7.92367e-07
-8.50938e-07
4.3612e-06
-2.44237e-07
3.47506e-07
1.13579e-05
-8.74569e-07
1.58749e-06
1.70194e-05
3.88054e-08
4.23031e-07
8.72477e-06
-7.38987e-07
1.58069e-07
2.67211e-06
2.55317e-07
1.06922e-06
-1.47392e-06
5.6042e-07
-1.13262e-06
1.21386e-06
-1.00321e-06
5.41518e-08
-9.84542e-07
2.77746e-06
-7.52623e-07
-1.13136e-07
4.27638e-06
-1.21565e-06
4.53824e-07
5.15427e-06
-1.67946e-06
2.45291e-07
3.56597e-06
-1.6882e-06
-8.99165e-08
1.77798e-06
-1.24346e-07
7.8135e-07
-1.96203e-06
5.70793e-07
7.64815e-07
-9.93933e-07
-1.33156e-06
-1.08816e-07
1.27319e-06
-1.21581e-06
-8.27081e-07
2.02723e-06
-6.55272e-07
-1.43465e-06
2.19406e-06
-2.76923e-07
-1.77504e-06
1.44877e-06
-4.08855e-07
-2.00203e-06
8.45376e-07
-5.5361e-07
6.432e-07
-2.15089e-06
-5.4366e-07
1.82189e-07
1.29722e-06
1.68194e-06
-7.93775e-07
-1.60642e-06
-4.93589e-07
8.71855e-07
2.19482e-06
-1.17562e-06
-9.70875e-07
-8.2458e-08
2.94068e-06
-5.58899e-07
-1.08204e-06
-7.91157e-07
3.02863e-06
-2.63575e-07
-1.38757e-06
1.94866e-08
2.23326e-06
-7.40706e-07
-1.77402e-06
5.57965e-07
1.73903e-06
-1.12492e-06
8.5564e-07
1.54841e-06
-2.16006e-06
-1.37173e-06
-5.63165e-08
9.52776e-07
2.15076e-06
-6.21895e-07
-7.29828e-07
5.69283e-07
3.55979e-06
-1.19873e-06
-8.11779e-07
5.05981e-06
-8.25199e-07
-2.3537e-06
5.69061e-06
-1.19284e-06
-4.81385e-07
3.88695e-06
-1.59937e-06
2.20005e-07
2.30273e-06
4.01228e-07
1.66649e-06
-2.07742e-06
-4.08197e-07
4.98521e-07
3.02854e-06
-3.56011e-07
-1.23649e-06
2.2856e-07
5.45046e-06
-1.24228e-06
-3.18024e-07
1.04124e-05
-3.50555e-07
-2.53493e-06
1.43166e-05
-1.38179e-07
2.20609e-08
7.19356e-06
-1.03085e-06
2.51915e-07
3.28762e-06
2.23105e-07
1.87987e-06
-1.77743e-06
-7.65519e-07
-3.15926e-08
3.7245e-06
-1.16133e-07
-2.28759e-06
4.73966e-08
6.83718e-06
-4.01447e-06
3.58792e-07
1.64551e-05
-1.26412e-06
3.02982e-06
3.25328e-05
7.59838e-08
1.61634e-07
1.03878e-05
-7.19915e-07
1.6375e-07
4.02957e-06
1.88136e-07
2.09013e-06
-1.59187e-06
-3.66041e-07
-5.34437e-07
3.18705e-06
-3.87403e-07
-1.31141e-06
-2.78007e-07
5.63165e-06
-1.42632e-06
8.95656e-07
1.09357e-05
-8.70935e-08
2.64501e-06
1.60932e-05
9.53393e-08
7.9914e-07
7.90304e-06
-8.75462e-07
2.51784e-07
3.55469e-06
9.58355e-08
1.97936e-06
-1.69345e-06
1.61226e-07
-9.85403e-07
2.27923e-06
-7.75796e-07
-4.86376e-07
-6.33231e-07
3.77941e-06
-1.05861e-06
2.36536e-07
5.50443e-06
-7.19035e-07
1.09803e-06
6.36089e-06
-1.14384e-06
3.73963e-07
4.4158e-06
-1.62946e-06
-5.59664e-08
2.5712e-06
-3.29966e-07
1.70574e-06
-2.12813e-06
4.49423e-07
1.70428e-06
-1.02387e-06
-1.35033e-06
-2.43005e-07
2.32298e-06
-9.90267e-07
-8.52649e-07
3.23059e-06
-3.57689e-07
-1.10329e-06
3.44532e-06
9.73006e-08
-1.49583e-06
2.53995e-06
-3.24826e-07
-1.8993e-06
1.821e-06
-6.28218e-07
1.55119e-06
-2.28619e-06
-8.51146e-07
8.77062e-07
1.87511e-06
3.26795e-06
-1.76627e-06
-2.57197e-06
1.01877e-08
1.32287e-06
3.70496e-06
-1.96643e-06
-6.36129e-07
3.97904e-07
4.40471e-06
-1.21588e-06
-9.13702e-07
-2.28772e-07
4.50389e-06
-9.69141e-07
-1.56347e-06
7.9847e-07
3.777e-06
-1.69265e-06
-2.3406e-06
1.47955e-06
3.33871e-06
-2.30248e-06
1.87562e-06
3.1344e-06
-3.0892e-06
-2.71328e-06
4.41158e-07
1.21984e-06
3.71177e-06
-1.3472e-06
-4.16043e-07
7.80313e-07
4.95914e-06
-1.04957e-06
-3.32984e-07
6.42383e-06
-8.24657e-07
-1.63032e-06
6.8667e-06
-1.51313e-06
1.89542e-07
5.18396e-06
-2.28083e-06
7.98858e-07
3.75079e-06
1.09677e-06
3.26506e-06
-3.10097e-06
-1.21439e-08
5.28809e-07
4.60368e-06
-8.72153e-07
-8.68849e-07
1.91642e-07
6.89549e-06
-1.41023e-06
-5.06008e-07
1.11264e-05
-4.40507e-07
-2.01047e-06
1.37257e-05
-1.04374e-06
2.52766e-07
7.73242e-06
-2.00354e-06
4.30592e-07
4.61584e-06
4.83291e-07
3.44252e-06
-2.95279e-06
-6.1702e-07
-2.88892e-08
5.36539e-06
-4.66413e-07
-2.22725e-06
1.17923e-07
8.52066e-06
-4.45909e-06
6.5604e-07
1.75237e-05
-1.71785e-06
2.50368e-06
2.52722e-05
-1.0659e-06
6.68654e-08
9.90874e-06
-1.90132e-06
9.61362e-09
5.28568e-06
-5.43427e-08
3.60273e-06
-2.87655e-06
1.73705e-08
-7.63446e-07
4.7757e-06
-8.71706e-07
-9.24756e-07
-4.46105e-07
7.13709e-06
-1.6356e-06
4.96503e-07
1.18044e-05
-3.52225e-07
1.9513e-06
1.53697e-05
-8.59311e-07
1.67946e-07
8.30794e-06
-1.90989e-06
-2.33822e-07
4.84843e-06
-5.63054e-07
3.50769e-06
-2.92978e-06
6.37192e-07
-1.50727e-06
3.84081e-06
-1.45513e-06
-2.24957e-07
-1.03021e-06
5.22489e-06
-9.61821e-07
-1.75711e-07
6.91157e-06
-7.9356e-07
5.82222e-07
7.56088e-06
-1.58112e-06
-2.9424e-07
5.66531e-06
-2.35961e-06
-8.57734e-07
3.97335e-06
-1.30949e-06
3.29683e-06
-3.20446e-06
1.11906e-06
3.29595e-06
-1.98503e-06
-2.23308e-06
1.96115e-07
3.85074e-06
-1.63507e-06
-5.921e-07
4.72278e-06
-8.8015e-07
-9.96043e-07
4.92932e-06
-4.9805e-07
-1.72526e-06
4.06331e-06
-1.08863e-06
-2.50874e-06
3.41772e-06
-1.67118e-06
3.14344e-06
-3.26217e-06
-2.14849e-06
1.66808e-06
2.37273e-06
-2.75138e-06
-3.24228e-06
5.22074e-06
6.31511e-07
1.9388e-06
-2.80758e-06
5.61024e-06
-2.39353e-07
1.19423e-06
-2.14603e-06
6.22723e-06
-8.41286e-07
7.42242e-07
-1.95227e-06
6.31566e-06
-1.73755e-06
1.75328e-06
-2.71785e-06
5.63763e-06
-2.68235e-06
2.38514e-06
-3.3265e-06
5.22464e-06
2.67132e-06
-3.55767e-06
-3.6775e-06
5.01575e-06
1.18078e-06
1.53417e-06
-2.27386e-06
5.64333e-06
1.03193e-07
1.21839e-06
6.75698e-06
-7.08752e-07
3.34863e-07
8.09489e-06
-1.05586e-06
-3.96522e-07
8.3521e-06
-1.92154e-06
9.61852e-07
6.84057e-06
-2.84852e-06
1.49925e-06
5.56334e-06
1.69746e-06
-3.75116e-06
5.14144e-06
7.02969e-07
6.20342e-07
-1.70047e-06
6.51493e-06
-2.44371e-07
3.87958e-07
8.67302e-06
-1.20411e-06
-1.09118e-07
1.25296e-05
-1.0478e-06
-7.73081e-07
1.39447e-05
-1.95631e-06
5.98612e-07
9.00309e-06
-2.89179e-06
7.25672e-07
6.32467e-06
7.42822e-07
-3.80323e-06
5.30844e-06
1.91948e-08
-1.19191e-07
-1.19601e-06
7.28158e-06
-1.44007e-06
-2.5519e-08
1.0393e-05
-3.53929e-06
3.87366e-07
1.9125e-05
-2.29326e-06
1.44061e-06
2.1809e-05
-2.30888e-06
-1.37571e-07
1.06583e-05
-3.02296e-06
-2.0526e-07
6.93053e-06
-2.72923e-07
-3.8576e-06
5.45293e-06
7.19523e-07
-1.09212e-06
-1.66868e-06
6.69762e-06
-2.90313e-07
-8.32652e-07
8.95356e-06
-1.34447e-06
-9.39905e-08
1.3338e-05
-1.01785e-06
8.27888e-07
1.56536e-05
-1.9042e-06
-4.67109e-07
9.52336e-06
-2.89407e-06
-9.05634e-07
6.53847e-06
-1.20225e-06
-3.8265e-06
5.36926e-06
1.33309e-06
-2.02955e-06
-2.33479e-06
5.77981e-06
2.63507e-07
-1.59735e-06
7.05888e-06
-6.78026e-07
-8.74138e-07
8.63264e-06
-1.09351e-06
-2.60113e-07
9.06376e-06
-2.0353e-06
-1.16141e-06
7.30121e-06
-2.95318e-06
-1.77364e-06
5.75904e-06
-2.19376e-06
-3.84739e-06
5.18244e-06
1.85214e-06
-2.88812e-06
-2.95909e-06
5.26138e-06
7.76303e-07
-2.43657e-06
5.76581e-06
-2.28928e-07
-1.7085e-06
6.56225e-06
-9.26947e-07
-1.36657e-06
6.73367e-06
-1.8709e-06
-2.06021e-06
5.90592e-06
-2.8036e-06
-2.73447e-06
5.31118e-06
-3.63418e-06
-3.25943e-06
5.03962e-06
-3.56447e-06
-3.59649e-07
5.73397e-08
5.34704e-07
-3.7565e-06
-5.96759e-07
7.9095e-08
5.72899e-07
-3.88546e-06
-4.12043e-07
9.39235e-08
5.32985e-07
-4.08192e-06
-3.32684e-07
9.9177e-08
4.93222e-07
-4.32111e-06
-2.87641e-07
9.5301e-08
4.6973e-07
-4.55505e-06
-2.53247e-07
8.24208e-08
4.56474e-07
-4.77391e-06
-2.24124e-07
6.19334e-08
4.41583e-07
-2.02831e-07
3.55469e-08
4.28106e-07
-4.97853e-06
-3.68083e-06
-1.10503e-07
5.5193e-08
-3.79984e-06
-3.38402e-07
9.10732e-08
-4.00369e-06
-2.31287e-07
1.13393e-07
-4.22824e-06
-1.59841e-07
1.23361e-07
-4.45752e-06
-1.26298e-07
1.22114e-07
-4.6613e-06
-1.0364e-07
1.10169e-07
-4.8529e-06
-8.2689e-08
8.87364e-08
-6.85066e-08
6.0393e-08
-5.03422e-06
-3.56175e-06
4.28607e-08
5.24271e-08
-3.78702e-06
-3.04221e-08
8.10891e-08
-4.00149e-06
1.10952e-08
1.16876e-07
-4.25516e-06
3.03476e-08
1.40659e-07
-4.49742e-06
4.05869e-08
1.44265e-07
-4.70408e-06
4.32148e-08
1.34136e-07
-4.88075e-06
5.38153e-08
1.13553e-07
6.37341e-08
8.2563e-08
-5.01303e-06
-3.26776e-06
3.07293e-07
6.87687e-08
-3.53326e-06
3.54478e-07
8.37804e-08
-3.7795e-06
2.6864e-07
1.17556e-07
-4.10475e-06
2.32407e-07
1.43947e-07
-4.42325e-06
2.12507e-07
1.48989e-07
-4.63639e-06
2.04564e-07
1.39465e-07
-4.79209e-06
1.88025e-07
1.15477e-07
1.65206e-07
8.17799e-08
-5.02337e-06
-3.47199e-06
4.26912e-07
5.27923e-08
-3.69094e-06
6.43199e-07
7.66965e-08
-3.90955e-06
5.02651e-07
1.08511e-07
-4.16662e-06
4.33858e-07
1.34646e-07
-4.41488e-06
3.87991e-07
1.37837e-07
-4.61211e-06
3.54828e-07
1.26381e-07
-4.78246e-06
3.27372e-07
1.03834e-07
3.05482e-07
7.10836e-08
-4.91384e-06
-3.73147e-06
5.89324e-07
5.03432e-08
-3.87612e-06
7.97951e-07
8.31577e-08
-3.97707e-06
6.65583e-07
1.07482e-07
-4.18459e-06
5.67911e-07
1.18123e-07
-4.39332e-06
5.18066e-07
1.16748e-07
-4.5523e-06
4.80368e-07
1.03741e-07
-4.74039e-06
4.45532e-07
8.06344e-08
4.24408e-07
5.10315e-08
-4.92603e-06
-3.61154e-06
5.35787e-08
7.09495e-07
-3.66592e-06
7.74451e-08
7.4909e-07
-3.81013e-06
9.16177e-08
7.04316e-07
-3.95488e-06
9.77911e-08
6.68993e-07
-4.14164e-06
9.38131e-08
6.54913e-07
-4.3254e-06
7.99474e-08
6.48927e-07
-4.50572e-06
5.75087e-08
6.39136e-07
2.88391e-08
6.30404e-07
-4.68105e-06
-2.52929e-06
-3.1576e-07
3.6288e-07
4.88832e-07
-3.03911e-06
-2.65622e-07
3.94337e-07
4.54406e-07
-3.54822e-06
-2.22553e-07
3.99126e-07
4.20716e-07
-4.03202e-06
-1.91254e-07
3.78346e-07
3.90913e-07
-4.47342e-06
-1.67429e-07
3.35125e-07
3.64683e-07
-4.86034e-06
-1.48257e-07
2.73668e-07
3.40528e-07
-5.18518e-06
-1.3234e-07
1.99428e-07
3.17605e-07
-1.18923e-07
1.17903e-07
2.95537e-07
-5.44515e-06
-2.48783e-06
-1.77892e-07
4.76406e-07
-3.05639e-06
-1.15715e-07
5.02985e-07
-3.60557e-06
-7.16898e-08
5.04916e-07
-4.11416e-06
-4.35133e-08
4.78066e-07
-4.56375e-06
-2.53407e-08
4.24496e-07
-4.94178e-06
-1.3349e-08
3.49227e-07
-5.24186e-06
-5.28583e-09
2.59136e-07
-4.25894e-11
1.61163e-07
-5.46321e-06
-2.24267e-06
3.46107e-08
5.56917e-07
-2.91913e-06
5.8705e-08
5.74395e-07
-3.53876e-06
7.52365e-08
5.79677e-07
-4.0888e-06
8.41305e-08
5.52873e-07
-4.5615e-06
8.79098e-08
4.94296e-07
-4.94632e-06
8.83428e-08
4.09737e-07
-5.23837e-06
8.71395e-08
3.07625e-07
8.47257e-08
1.96599e-07
-5.44053e-06
-2.07817e-06
3.15933e-07
5.97337e-07
-2.81188e-06
2.70733e-07
5.97017e-07
-3.47069e-06
2.403e-07
6.01603e-07
-4.04664e-06
2.19486e-07
5.74617e-07
-4.53748e-06
2.03123e-07
5.1345e-07
-4.93245e-06
1.89739e-07
4.23837e-07
-5.22934e-06
1.78033e-07
3.15044e-07
1.67712e-07
1.9682e-07
-5.43115e-06
-2.20722e-06
5.37483e-07
5.57954e-07
-2.88104e-06
4.4979e-07
5.63417e-07
-3.49934e-06
3.90394e-07
5.67252e-07
-4.0456e-06
3.50825e-07
5.3982e-07
-4.51462e-06
3.21028e-07
4.79913e-07
-4.8963e-06
2.97436e-07
3.93424e-07
-5.18647e-06
2.78035e-07
2.892e-07
2.61779e-07
1.76029e-07
-5.38817e-06
-2.48594e-06
6.39019e-07
4.68182e-07
-3.02419e-06
5.73709e-07
4.89949e-07
-3.54787e-06
5.24478e-07
4.90813e-07
-4.0335e-06
4.86521e-07
4.62379e-07
-4.46393e-06
4.56415e-07
4.06518e-07
-4.82555e-06
4.30795e-07
3.28168e-07
-5.1119e-06
4.07991e-07
2.34749e-07
3.8732e-07
1.33476e-07
-5.32154e-06
-2.55517e-06
3.56733e-07
7.36644e-07
-3.00027e-06
3.8737e-07
7.04697e-07
-3.45324e-06
3.91587e-07
6.71784e-07
-3.88715e-06
3.6938e-07
6.43642e-07
-4.28374e-06
3.23369e-07
6.18889e-07
-4.6303e-06
2.58198e-07
5.95812e-07
-4.91975e-06
1.79775e-07
5.73286e-07
9.3828e-08
5.50912e-07
-5.14903e-06
-2.86541e-06
-1.41844e-07
8.78786e-07
3.31077e-07
-3.63806e-06
-7.0329e-08
9.58873e-07
2.78386e-07
-4.43976e-06
-2.25808e-08
9.90318e-07
2.33051e-07
-5.23968e-06
9.76698e-09
9.74277e-07
1.94176e-07
-6.00912e-06
3.07799e-08
9.12368e-07
1.6136e-07
-6.72051e-06
4.55012e-08
8.05721e-07
1.33805e-07
-7.34226e-06
5.50291e-08
6.55107e-07
1.11029e-07
6.06603e-08
4.6526e-07
9.24855e-08
-7.84276e-06
-2.87138e-06
-2.68578e-08
1.15505e-06
-3.69292e-06
3.34582e-08
1.22053e-06
-4.52383e-06
7.40488e-08
1.23911e-06
-5.34019e-06
9.93451e-08
1.20478e-06
-6.11628e-06
1.13577e-07
1.11774e-06
-6.82076e-06
1.20353e-07
9.788e-07
-7.417e-06
1.21927e-07
7.88431e-07
1.19677e-07
5.52493e-07
-7.86737e-06
-2.68318e-06
8.63521e-08
1.34949e-06
-3.58998e-06
1.15691e-07
1.39892e-06
-4.48058e-06
1.31797e-07
1.41246e-06
-5.33646e-06
1.38385e-07
1.36964e-06
-6.13519e-06
1.38721e-07
1.26782e-06
-6.84785e-06
1.3527e-07
1.10741e-06
-7.43665e-06
1.29437e-07
8.88861e-07
1.21991e-07
6.18973e-07
-7.86137e-06
-2.57157e-06
2.38033e-07
1.42526e-06
-3.52527e-06
2.08418e-07
1.45789e-06
-4.44436e-06
1.83642e-07
1.46873e-06
-5.317e-06
1.62738e-07
1.42282e-06
-6.12459e-06
1.44522e-07
1.31515e-06
-6.84021e-06
1.28647e-07
1.14601e-06
-7.42684e-06
1.14961e-07
9.16092e-07
1.03419e-07
6.32853e-07
-7.84433e-06
-2.64978e-06
4.01481e-07
1.35072e-06
-3.5752e-06
3.1027e-07
1.38695e-06
-4.47019e-06
2.49605e-07
1.3962e-06
-5.32411e-06
2.06309e-07
1.3501e-06
-6.11771e-06
1.73561e-07
1.2444e-06
-6.82363e-06
1.48319e-07
1.07962e-06
-7.4051e-06
1.28976e-07
8.56628e-07
1.14558e-07
5.82786e-07
-7.823e-06
-2.89743e-06
4.93116e-07
1.14579e-06
-3.705e-06
4.06856e-07
1.20082e-06
-4.52407e-06
3.46718e-07
1.21268e-06
-5.32802e-06
3.01174e-07
1.17136e-06
-6.08978e-06
2.65524e-07
1.07625e-06
-6.77885e-06
2.37196e-07
9.28344e-07
-7.35865e-06
2.14717e-07
7.28827e-07
1.9701e-07
4.84615e-07
-7.79221e-06
-2.93658e-06
8.69579e-07
6.3057e-07
-3.66622e-06
9.42949e-07
5.80812e-07
-4.43065e-06
9.66669e-07
5.36021e-07
-5.19736e-06
9.40831e-07
4.96366e-07
-5.93701e-06
8.67197e-07
4.61307e-07
-6.61944e-06
7.475e-07
4.3032e-07
-7.21137e-06
5.83455e-07
4.03e-07
3.8119e-07
3.78964e-07
-7.68063e-06
-4.31326e-06
1.53578e-07
1.83237e-06
1.16556e-07
-5.67408e-06
2.33298e-07
2.0434e-06
4.2783e-08
-7.10636e-06
2.84897e-07
2.15048e-06
-1.29088e-08
-8.52228e-06
3.16218e-07
2.1344e-06
-6.05205e-08
-9.82031e-06
3.31278e-07
1.9753e-06
-9.62296e-08
-1.08846e-05
3.34154e-07
1.65934e-06
-1.23487e-07
-1.15923e-05
3.27897e-07
1.17913e-06
-1.44263e-07
3.15104e-07
5.27028e-07
-1.5992e-07
-1.18092e-05
-4.38511e-06
2.225e-07
2.36988e-06
-5.78249e-06
2.84483e-07
2.56647e-06
-7.24446e-06
3.25641e-07
2.66019e-06
-8.68985e-06
3.45787e-07
2.62051e-06
-1.00103e-05
3.50016e-07
2.41939e-06
-1.10756e-05
3.42079e-07
2.03613e-06
-1.17414e-05
3.24668e-07
1.45745e-06
2.99673e-07
6.66618e-07
-1.18401e-05
-4.30566e-06
1.96136e-07
2.72858e-06
-5.75599e-06
2.1939e-07
2.9142e-06
-7.25718e-06
2.33136e-07
3.00603e-06
-8.73555e-06
2.35032e-07
2.95865e-06
-1.00822e-05
2.28546e-07
2.73582e-06
-1.11592e-05
2.16223e-07
2.31028e-06
-1.18091e-05
1.99671e-07
1.66363e-06
1.79912e-07
7.72311e-07
-1.18427e-05
-4.26396e-06
1.47867e-07
2.86073e-06
-5.74101e-06
1.202e-07
3.03393e-06
-7.25728e-06
9.33787e-08
3.12457e-06
-8.74469e-06
7.02768e-08
3.07485e-06
-1.00971e-05
5.17001e-08
2.8443e-06
-1.11757e-05
3.79533e-08
2.40285e-06
-1.18191e-05
2.8913e-08
1.73014e-06
2.40652e-08
8.00708e-07
-1.18311e-05
-4.31522e-06
1.52702e-07
2.73109e-06
-5.77961e-06
6.54564e-08
2.90594e-06
-7.28072e-06
-2.07403e-09
2.99261e-06
-8.75415e-06
-4.66547e-08
2.94036e-06
-1.00933e-05
-7.68293e-08
2.712e-06
-1.11623e-05
-9.36135e-08
2.28017e-06
-1.18044e-05
-9.92074e-08
1.62684e-06
-9.55286e-08
7.30377e-07
-1.18324e-05
-4.48225e-06
2.12729e-07
2.36338e-06
-5.86769e-06
1.01995e-07
2.54953e-06
-7.31235e-06
2.04882e-08
2.63463e-06
-8.74085e-06
-3.20544e-08
2.58515e-06
-1.00464e-05
-6.76491e-08
2.37253e-06
-1.10974e-05
-9.05923e-08
1.97637e-06
-1.17483e-05
-1.03691e-07
1.38423e-06
-1.09654e-07
5.83227e-07
-1.18327e-05
-4.44558e-06
1.82345e-06
4.42082e-07
-5.77577e-06
2.02613e-06
3.48855e-07
-7.18464e-06
2.12361e-06
2.72345e-07
-8.58017e-06
2.09567e-06
2.08578e-07
-9.85801e-06
1.92211e-06
1.55254e-07
-1.09004e-05
1.58911e-06
1.10254e-07
-1.15827e-05
1.09017e-06
7.18717e-08
4.22973e-07
3.87341e-08
-1.17728e-05
-4.99679e-06
4.19618e-07
-1.1603e-07
2.96778e-06
-6.66024e-06
5.0508e-07
-2.03521e-07
3.40524e-06
-8.53533e-06
5.61032e-07
-2.66859e-07
3.73143e-06
-1.05958e-05
5.93652e-07
-3.12261e-07
3.91356e-06
-1.28173e-05
6.08742e-07
-3.40254e-07
3.92841e-06
-1.51765e-05
6.08397e-07
-3.51186e-07
3.76139e-06
-1.76481e-05
5.86944e-07
-3.4717e-07
3.41101e-06
5.41005e-07
-3.30568e-07
-2.02657e-05
2.93429e-06
-5.20725e-06
4.41121e-07
3.8044e-06
-6.85275e-06
4.89579e-07
4.2275e-06
-8.69586e-06
5.2307e-07
4.54133e-06
-1.0722e-05
5.37747e-07
4.70262e-06
-1.29067e-05
5.3772e-07
4.67523e-06
-1.52194e-05
5.25373e-07
4.43194e-06
-1.76396e-05
4.99282e-07
3.96533e-06
4.55786e-07
-2.02383e-05
3.35061e-06
-5.27557e-06
2.85767e-07
4.35622e-06
-6.92113e-06
2.83443e-07
4.76588e-06
-8.74864e-06
2.77884e-07
5.07874e-06
-1.07541e-05
2.64453e-07
5.23747e-06
-1.29191e-05
2.46193e-07
5.19231e-06
-1.52128e-05
2.25846e-07
4.9036e-06
-1.76119e-05
2.04468e-07
4.35759e-06
1.80945e-07
-2.02071e-05
3.64246e-06
-5.31867e-06
4.66241e-08
4.56083e-06
-6.95401e-06
-4.82805e-09
4.95747e-06
-8.76353e-06
-5.65673e-08
5.26849e-06
-1.07484e-05
-1.0287e-07
5.42701e-06
-1.28942e-05
-1.40082e-07
5.37646e-06
-1.51719e-05
-1.65153e-07
5.07165e-06
-1.75577e-05
-1.75559e-07
4.49601e-06
-1.69496e-07
-2.01491e-05
3.74266e-06
-5.29495e-06
-1.21318e-07
4.36734e-06
-6.92663e-06
-2.34313e-07
4.76706e-06
-8.73125e-06
-3.33631e-07
5.0743e-06
-1.07102e-05
-4.12416e-07
5.22891e-06
-1.28487e-05
-4.69433e-07
5.17989e-06
-1.51186e-05
-5.02217e-07
4.88725e-06
-1.7498e-05
-5.06264e-07
4.33706e-06
-4.77386e-07
-2.00769e-05
3.61718e-06
-5.26115e-06
-1.52842e-07
3.80859e-06
-6.86257e-06
-3.04901e-07
4.22148e-06
-8.65757e-06
-4.31649e-07
4.52766e-06
-1.06343e-05
-5.32594e-07
4.68214e-06
-1.27706e-05
-6.08496e-07
4.64796e-06
-1.50377e-05
-6.56471e-07
4.39785e-06
-1.74172e-05
-6.66788e-07
3.9243e-06
-6.34101e-07
-1.99791e-05
3.3019e-06
-5.00599e-06
7.53962e-08
2.967e-06
-6.60495e-06
-7.83769e-08
3.39855e-06
-8.41846e-06
-2.13636e-07
3.71917e-06
-1.04216e-05
-3.29133e-07
3.89539e-06
-1.25885e-05
-4.22611e-07
3.90323e-06
-1.48953e-05
-4.88345e-07
3.72788e-06
-1.73169e-05
-5.2282e-07
3.36789e-06
-5.24287e-07
-1.98838e-05
2.8801e-06
-2.34346e-06
3.44426e-07
7.9149e-08
-2.1317e-07
-2.51825e-06
2.73432e-07
9.68031e-08
-2.10742e-07
-2.77333e-06
3.16169e-07
1.07956e-07
-1.51238e-07
-3.06746e-06
3.32207e-07
1.0778e-07
-1.19254e-07
-3.37309e-06
3.49427e-07
9.66399e-08
-1.01974e-07
-3.68002e-06
3.65375e-07
7.52883e-08
-9.0508e-08
-3.9612e-06
3.68433e-07
4.58328e-08
-7.97943e-08
3.72164e-07
1.15538e-08
-7.06623e-08
-4.21857e-06
-2.60083e-06
2.24003e-07
1.20767e-07
-2.54124e-06
1.3206e-07
1.40161e-07
-2.63436e-06
2.43345e-07
1.6911e-07
-2.77775e-06
2.69571e-07
1.87979e-07
-2.89062e-06
2.89319e-07
1.953e-07
-3.08121e-06
2.95894e-07
1.92389e-07
-3.28601e-06
3.12904e-07
1.79684e-07
3.48395e-07
1.62171e-07
-3.42021e-06
-2.79233e-06
-6.94224e-08
2.05592e-07
-2.58523e-06
-8.42978e-08
1.85778e-07
-2.50112e-06
-3.83468e-08
2.26595e-07
-2.47337e-06
-2.78936e-08
2.68902e-07
-2.46919e-06
-9.93187e-10
3.00531e-07
-2.53588e-06
2.36236e-08
3.19669e-07
-2.57396e-06
5.04054e-08
3.32374e-07
6.51595e-08
3.35132e-07
-2.5492e-06
-2.86084e-06
-3.02741e-07
2.65428e-07
-2.69164e-06
-2.62623e-07
2.1189e-07
-2.64471e-06
-3.17352e-07
2.61667e-07
-2.59792e-06
-3.46271e-07
3.23279e-07
-2.54622e-06
-3.70613e-07
3.73715e-07
-2.52162e-06
-3.80587e-07
4.07247e-07
-2.51073e-06
-3.89673e-07
4.24967e-07
-4.25669e-07
4.33809e-07
-2.4717e-06
-2.63239e-06
-5.42298e-07
1.78771e-07
-2.49325e-06
-4.2123e-07
1.695e-07
-2.48905e-06
-5.18454e-07
2.06946e-07
-2.49527e-06
-5.34369e-07
2.45255e-07
-2.51928e-06
-5.62229e-07
2.71782e-07
-2.56909e-06
-5.89592e-07
2.79179e-07
-2.73523e-06
-5.93037e-07
2.72775e-07
-5.88764e-07
2.61399e-07
-2.83687e-06
-2.4841e-06
-5.91815e-07
1.11816e-07
-2.54504e-06
-5.11548e-07
1.31361e-07
-2.69282e-06
-5.24889e-07
1.5524e-07
-2.88364e-06
-5.30175e-07
1.71985e-07
-3.09167e-06
-5.37017e-07
1.74565e-07
-3.26675e-06
-5.48827e-07
1.66023e-07
-3.5072e-06
-5.58456e-07
1.46573e-07
-5.50096e-07
1.22424e-07
-3.7384e-06
-2.25269e-06
8.18897e-08
-3.80458e-07
-2.4898e-06
1.03066e-07
-3.49925e-07
-2.8112e-06
1.16478e-07
-2.98126e-07
-3.16456e-06
1.18227e-07
-2.70195e-07
-3.50848e-06
1.08986e-07
-2.5377e-07
-3.85498e-06
9.03501e-08
-2.44091e-07
-4.18649e-06
6.34568e-08
-2.37969e-07
3.04527e-08
-2.31649e-07
-4.46549e-06
-1.43722e-06
2.84079e-07
4.00898e-07
-1.64938e-07
-1.9276e-06
2.98784e-07
4.29341e-07
-1.44914e-07
-2.43649e-06
3.05342e-07
4.33216e-07
-1.25509e-07
-2.9377e-06
3.11158e-07
4.06207e-07
-1.11781e-07
-3.41096e-06
3.17655e-07
3.51059e-07
-1.01373e-07
-3.84082e-06
3.23396e-07
2.73161e-07
-9.30095e-08
-4.21671e-06
3.2728e-07
1.7956e-07
-8.58511e-08
3.28819e-07
7.7511e-08
-7.94151e-08
-4.53218e-06
-1.39184e-06
1.83868e-07
6.03116e-07
-1.78018e-06
2.09661e-07
6.11591e-07
-2.18481e-06
2.37795e-07
6.35866e-07
-2.58703e-06
2.57643e-07
6.36153e-07
-2.96654e-06
2.78222e-07
6.0706e-07
-3.30667e-06
2.98447e-07
5.51229e-07
-3.60184e-06
3.16515e-07
4.75415e-07
3.32907e-07
3.88478e-07
-3.84131e-06
-1.13817e-06
-5.22716e-08
8.83527e-07
-1.49333e-06
-4.97823e-08
7.90141e-07
-1.83091e-06
-3.78633e-08
8.29531e-07
-2.15177e-06
-3.00462e-08
8.66092e-07
-2.44228e-06
-1.83876e-08
8.75159e-07
-2.68677e-06
-2.46106e-09
8.54686e-07
-2.87177e-06
9.79997e-09
8.09359e-07
2.16614e-08
7.47565e-07
-2.97734e-06
-1.06772e-06
-3.56597e-07
1.02979e-06
-1.4259e-06
-3.43709e-07
8.54843e-07
-1.75636e-06
-3.52495e-07
8.96408e-07
-2.05833e-06
-3.6112e-07
9.47433e-07
-2.31098e-06
-3.70422e-07
9.72709e-07
-2.49799e-06
-3.77544e-07
9.68278e-07
-2.61962e-06
-3.82912e-07
9.38472e-07
-3.87611e-07
8.91689e-07
-2.66909e-06
-1.10792e-06
-5.31277e-07
8.20581e-07
-1.50256e-06
-5.42066e-07
7.53303e-07
-1.88495e-06
-5.62731e-07
7.88586e-07
-2.24767e-06
-5.76997e-07
8.12514e-07
-2.56947e-06
-5.90271e-07
8.0604e-07
-2.83983e-06
-6.01876e-07
7.69567e-07
-3.05219e-06
-6.10116e-07
7.09936e-07
-6.14926e-07
6.36599e-07
-3.21108e-06
-1.28927e-06
-5.49963e-07
5.81113e-07
-1.74704e-06
-5.5486e-07
5.95767e-07
-2.22052e-06
-5.53985e-07
6.12759e-07
-2.68291e-06
-5.5205e-07
6.01376e-07
-3.11587e-06
-5.50492e-07
5.59145e-07
-3.50094e-06
-5.4851e-07
4.90216e-07
-3.82671e-06
-5.45333e-07
4.02377e-07
-5.40381e-07
3.05477e-07
-4.09118e-06
-1.28197e-06
4.10225e-07
-3.80124e-07
-1.82614e-06
4.42778e-07
-3.55296e-07
-2.3841e-06
4.48169e-07
-3.32511e-07
-2.93019e-06
4.22888e-07
-3.15335e-07
-3.44352e-06
3.70097e-07
-3.01934e-07
-3.90836e-06
2.95231e-07
-2.91061e-07
-4.31521e-06
2.05491e-07
-2.81961e-07
1.08175e-07
-2.74031e-07
-4.65975e-06
-1.71381e-06
3.10973e-07
9.27569e-07
-1.47849e-07
-2.49592e-06
3.46153e-07
9.98251e-07
-1.33175e-07
-3.31909e-06
3.57151e-07
1.02167e-06
-1.22501e-07
-4.14849e-06
3.59786e-07
9.90115e-07
-1.1432e-07
-4.95328e-06
3.57401e-07
9.05676e-07
-1.07261e-07
-5.70179e-06
3.50922e-07
7.71299e-07
-1.00593e-07
-6.35942e-06
3.41022e-07
5.89984e-07
-9.38397e-08
3.28497e-07
3.69649e-07
-8.67918e-08
-6.89324e-06
-1.4336e-06
2.4071e-07
1.33134e-06
-2.12901e-06
2.78336e-07
1.37468e-06
-2.85635e-06
2.97281e-07
1.42303e-06
-3.59614e-06
3.0956e-07
1.42616e-06
-4.32543e-06
3.18308e-07
1.37543e-06
-5.01647e-06
3.23021e-07
1.27014e-06
-5.63224e-06
3.24549e-07
1.10763e-06
3.23866e-07
8.91125e-07
-6.13026e-06
-9.9553e-07
-4.84613e-08
1.78058e-06
-1.60526e-06
-2.73686e-08
1.70549e-06
-2.23769e-06
-1.57797e-08
1.77497e-06
-2.87911e-06
-7.40386e-09
1.82444e-06
-3.50718e-06
1.36683e-09
1.82015e-06
-4.09126e-06
7.82106e-09
1.75394e-06
-4.59375e-06
1.47958e-08
1.62157e-06
2.13663e-08
1.42811e-06
-4.97181e-06
-7.74871e-07
-3.75031e-07
2.01491e-06
-1.383e-06
-3.91775e-07
1.82731e-06
-2.00165e-06
-3.98069e-07
1.89728e-06
-2.62523e-06
-4.0089e-07
1.96443e-06
-3.23074e-06
-3.98902e-07
1.97845e-06
-3.79083e-06
-3.91445e-07
1.92758e-06
-4.26427e-06
-3.79506e-07
1.80617e-06
-3.64836e-07
1.61834e-06
-4.60473e-06
-1.00619e-06
-6.06014e-07
1.70157e-06
-1.6646e-06
-6.37806e-07
1.65773e-06
-2.3423e-06
-6.55888e-07
1.72403e-06
-3.02651e-06
-6.65424e-07
1.7612e-06
-3.69473e-06
-6.6659e-07
1.7419e-06
-4.31768e-06
-6.59846e-07
1.66088e-06
-4.85602e-06
-6.4665e-07
1.5154e-06
-6.28671e-07
1.31136e-06
-5.26695e-06
-1.34838e-06
-5.95521e-07
1.29695e-06
-2.10941e-06
-6.30197e-07
1.34918e-06
-2.89909e-06
-6.4172e-07
1.38815e-06
-3.69626e-06
-6.42788e-07
1.37583e-06
-4.47388e-06
-6.37086e-07
1.30722e-06
-5.20008e-06
-6.26121e-07
1.18268e-06
-5.83644e-06
-6.10813e-07
1.00291e-06
-5.91967e-07
7.7429e-07
-6.34192e-06
-1.52523e-06
9.33766e-07
-3.87768e-07
-2.34669e-06
1.01068e-06
-3.76688e-07
-3.21092e-06
1.03712e-06
-3.66508e-07
-4.08142e-06
1.00905e-06
-3.58488e-07
-4.9262e-06
9.29052e-07
-3.51293e-07
-5.71314e-06
8.00043e-07
-3.43996e-07
-6.4072e-06
6.24752e-07
-3.36e-07
4.10361e-07
-3.26939e-07
-6.97436e-06
-3.23016e-06
3.88135e-07
1.88849e-06
-1.04175e-07
-4.64087e-06
4.11383e-07
2.08982e-06
-9.24916e-08
-6.1302e-06
4.041e-07
2.19011e-06
-8.33016e-08
-7.60506e-06
3.76654e-07
2.16367e-06
-7.53648e-08
-8.95863e-06
3.37098e-07
1.98982e-06
-6.76638e-08
-1.00719e-05
2.90562e-07
1.65376e-06
-5.96885e-08
-1.08144e-05
2.39701e-07
1.14407e-06
-5.12321e-08
1.87427e-07
4.55905e-07
-4.19155e-08
-1.10461e-05
-2.64712e-06
3.46938e-07
2.56441e-06
-3.98095e-06
3.67973e-07
2.75169e-06
-5.40156e-06
3.63417e-07
2.8843e-06
-6.8402e-06
3.46438e-07
2.89506e-06
-8.19458e-06
3.20226e-07
2.74673e-06
-9.32938e-06
2.8762e-07
2.40792e-06
-1.0088e-05
2.52147e-07
1.85389e-06
2.14037e-07
1.05355e-06
-1.0277e-05
-1.9042e-06
-1.68261e-08
3.1765e-06
-3.11225e-06
5.90713e-09
3.27542e-06
-4.43092e-06
1.38601e-08
3.44314e-06
-5.7918e-06
2.01648e-08
3.51157e-06
-7.09058e-06
2.5703e-08
3.41347e-06
-8.18659e-06
3.02137e-08
3.10738e-06
-8.90812e-06
3.31518e-08
2.56213e-06
3.43269e-08
1.72542e-06
-9.02567e-06
-1.51247e-06
-4.34419e-07
3.47823e-06
-2.71532e-06
-4.38523e-07
3.47444e-06
-4.03032e-06
-4.23255e-07
3.6493e-06
-5.39061e-06
-4.00537e-07
3.74535e-06
-6.69461e-06
-3.69534e-07
3.67766e-06
-7.8e-06
-3.34943e-07
3.39814e-06
-8.52968e-06
-2.99731e-07
2.86877e-06
-2.66457e-07
2.02374e-06
-8.63426e-06
-1.97495e-06
-7.35625e-07
3.10524e-06
-3.23959e-06
-7.4935e-07
3.23308e-06
-4.6052e-06
-7.36302e-07
3.40259e-06
-6.01069e-06
-7.03211e-07
3.46932e-06
-7.3514e-06
-6.53077e-07
3.36614e-06
-8.47543e-06
-5.9205e-07
3.04205e-06
-9.21709e-06
-5.26409e-07
2.48377e-06
-4.59556e-07
1.63655e-06
-9.34912e-06
-2.61722e-06
-6.99118e-07
2.53011e-06
-4.01996e-06
-7.23033e-07
2.72549e-06
-5.5053e-06
-7.13747e-07
2.85081e-06
-7.00032e-06
-6.80316e-07
2.84791e-06
-8.3956e-06
-6.31687e-07