/*--------------------------------*- C++ -*----------------------------------*\
| =========                 |                                                 |
| \\      /  F ield         | OpenFOAM: The Open Source CFD Toolbox           |
|  \\    /   O peration     | Version:  plus.master                           |
|   \\  /    A nd           | Web:      www.OpenFOAM.com                      |
|    \\/     M anipulation  |                                                 |
\*---------------------------------------------------------------------------*/
FoamFile
{
    version     2.0;
    format      ascii;
    class       surfaceScalarField;
    location    "8";
    object      alphaPhi;
}
// * * * * * * * * * * * * * * * * * * * * * * * * * * * * * * * * * * * * * //

dimensions      [0 3 -1 0 0 0 0];

internalField   nonuniform List<scalar> 
138768
(
9.37853e-07
1.7588e-06
3.76557e-07
-1.279e-06
-1.7933e-06
6.78228e-07
1.27261e-06
6.43818e-07
-1.65717e-06
-4.7924e-07
1.71914e-06
1.05038e-06
-1.61413e-06
-1.73847e-06
1.69231e-06
1.1004e-06
-1.53102e-06
-2.36887e-06
1.20098e-06
7.20329e-07
-1.29032e-06
-2.31472e-06
6.96389e-07
4.37378e-07
-1.18798e-06
1.17856e-06
3.04432e-07
-2.34787e-06
-1.44907e-06
6.80497e-07
1.83179e-06
6.12129e-07
-1.36485e-06
5.96082e-07
1.01869e-06
1.79656e-06
-6.46475e-09
7.16873e-07
2.77268e-06
-1.40155e-06
1.05046e-06
3.09453e-06
-1.30521e-06
2.71007e-07
2.24532e-06
-1.54492e-06
7.84488e-07
1.46684e-06
1.1157e-06
3.92688e-07
-1.87543e-06
1.38847e-06
8.92002e-07
1.01603e-06
-1.46523e-06
3.01138e-07
9.41227e-07
2.62465e-06
1.14793e-07
1.41857e-07
1.35396e-06
-2.01967e-07
1.12754e-07
1.47576e-06
-1.05286e-06
1.87332e-07
1.48771e-06
-1.81275e-06
7.0206e-07
1.84021e-06
4.61108e-07
5.76383e-07
-1.73445e-06
1.83727e-06
-5.59907e-07
1.31928e-06
-1.70455e-06
1.19627e-06
-7.24947e-07
3.33572e-06
1.4372e-07
-1.38535e-07
1.61992e-06
-1.12433e-07
-8.64485e-08
4.55395e-07
-1.26435e-06
-1.73748e-07
1.75762e-06
-1.58562e-06
-4.39847e-07
2.29027e-06
-2.16984e-07
7.36524e-07
-1.64395e-06
1.504e-06
-1.58889e-06
1.06593e-06
-1.54085e-06
4.00257e-07
-9.24295e-07
2.71634e-06
1.21264e-07
-5.74714e-07
1.34167e-06
-1.9142e-07
-9.58987e-07
1.30817e-06
-1.1121e-06
-2.06486e-07
1.5097e-06
-1.81399e-06
-6.70589e-07
1.9132e-06
-8.69341e-07
6.19706e-07
-1.78128e-06
8.22656e-07
-1.61339e-06
6.39222e-07
-1.43685e-06
6.69436e-07
-1.14636e-06
1.83717e-06
1.16739e-07
-1.63187e-06
2.84117e-06
-1.32856e-06
-1.67791e-06
3.21596e-06
-1.32558e-06
-1.11017e-06
2.33004e-06
-1.58349e-06
-5.50647e-07
1.51221e-06
-8.83406e-07
4.09521e-07
-1.97885e-06
1.14658e-06
3.71035e-07
-1.44226e-06
-1.68874e-06
8.29444e-07
6.51002e-07
-1.4797e-06
-3.85403e-07
1.10202e-06
-1.51954e-06
-1.81208e-06
1.19391e-06
-1.44508e-06
-2.5672e-06
7.73327e-07
-1.12752e-06
-2.38218e-06
4.45559e-07
-1.18154e-06
2.94467e-07
-2.37854e-06
-1.18207e-06
1.07065e-06
2.01052e-06
8.24606e-07
-1.47881e-06
-2.0504e-06
3.14925e-07
2.26059e-06
1.26869e-06
-2.12964e-06
-7.24968e-07
1.97532e-06
2.00655e-06
-1.89153e-06
-1.67701e-06
1.60869e-06
2.12631e-06
-1.68251e-06
-2.21395e-06
1.53268e-06
1.37752e-06
-1.65289e-06
-2.45259e-06
1.31603e-06
8.99324e-07
-1.53932e-06
1.04055e-06
7.30291e-07
-2.54371e-06
-1.37519e-06
1.49967e-06
1.67099e-06
1.20874e-06
-1.75665e-06
7.55654e-07
2.03748e-06
2.63533e-06
-5.47093e-07
1.42088e-06
4.26483e-06
-1.82371e-06
7.38928e-07
4.75971e-06
-2.6434e-06
1.04571e-06
3.19497e-06
-2.5959e-06
1.03782e-06
1.68413e-06
6.09749e-07
8.37732e-07
-2.61008e-06
1.72391e-06
8.11705e-07
1.99331e-06
-1.84182e-06
7.14408e-07
9.60208e-07
4.10785e-06
2.89027e-08
1.32908e-07
2.61082e-06
-2.24843e-07
1.22203e-08
1.94057e-06
-1.97767e-06
1.98084e-07
3.65687e-06
-2.27707e-06
5.23947e-07
2.65345e-06
2.53088e-07
1.08638e-06
-2.43037e-06
1.83309e-06
-4.6784e-07
2.61373e-06
-1.84798e-06
8.17333e-07
-6.77692e-07
5.33379e-06
-1.24467e-08
-1.1796e-07
2.24161e-06
-2.13685e-07
1.26909e-08
6.45244e-07
-1.55909e-06
-1.55708e-07
3.13912e-06
-1.89444e-06
-2.0118e-07
3.35075e-06
4.08521e-08
1.30192e-06
-2.24752e-06
1.76497e-06
-1.39542e-06
2.09631e-06
-1.86772e-06
7.54419e-07
-1.77993e-06
4.18488e-06
2.36061e-08
-1.22567e-06
2.4786e-06
-1.52188e-07
-5.9099e-07
1.70549e-06
-1.88504e-06
-8.33069e-07
3.51255e-06
-2.23943e-06
-7.52397e-07
2.81882e-06
-3.20369e-07
1.15414e-06
-2.41261e-06
1.65283e-06
-1.8341e-06
1.27368e-06
-1.84853e-06
9.19192e-07
-2.1312e-06
2.86703e-06
-4.02658e-07
-1.90321e-06
4.39465e-06
-1.72155e-06
-1.55358e-06
4.93828e-06
-2.70588e-06
-1.42355e-06
3.57795e-06
-2.66538e-06
-1.09669e-06
1.8073e-06
-7.81629e-07
8.57512e-07
-2.65209e-06
1.24012e-06
8.18682e-07
-1.59273e-06
-1.92896e-06
5.02134e-07
1.31495e-06
-2.05713e-06
-6.04915e-07
2.14639e-06
-1.84045e-06
-1.69496e-06
2.34737e-06
-1.61699e-06
-2.32325e-06
1.52472e-06
-1.54663e-06
-2.53744e-06
9.25318e-07
-1.36221e-06
7.16878e-07
-2.60054e-06
-1.14086e-06
1.22881e-06
2.08768e-06
1.55604e-06
-1.74116e-06
-2.30675e-06
3.77553e-07
2.32872e-06
2.0395e-06
-2.24833e-06
-6.1565e-07
2.04318e-06
2.90927e-06
-1.95274e-06
-1.45358e-06
1.5869e-06
3.13698e-06
-1.75969e-06
-2.12186e-06
1.83856e-06
2.18608e-06
-1.97893e-06
-2.58382e-06
1.70518e-06
1.64929e-06
-1.99328e-06
1.50288e-06
1.46459e-06
-2.87622e-06
-1.94487e-06
1.54312e-06
1.65422e-06
1.99987e-06
-1.90083e-06
7.70807e-07
2.16859e-06
3.56766e-06
-6.12928e-07
1.46613e-06
5.52782e-06
-1.87986e-06
6.1538e-07
5.82825e-06
-2.66595e-06
1.63963e-06
4.17414e-06
-2.88734e-06
1.36184e-06
2.24872e-06
9.3694e-07
1.5702e-06
-3.05403e-06
1.83499e-06
7.41179e-07
3.01817e-06
-1.94684e-06
7.75861e-07
8.14991e-07
5.42615e-06
-1.21647e-07
6.83691e-08
3.30294e-06
-3.55339e-07
-4.38976e-08
1.94085e-06
-2.93793e-06
2.81983e-07
5.00683e-06
-2.86666e-06
5.8959e-07
3.35429e-06
3.81722e-07
1.79209e-06
-3.01721e-06
1.64524e-06
-4.17975e-07
3.92271e-06
-1.79519e-06
3.55266e-07
-5.72921e-07
6.62923e-06
-1.99703e-07
-6.19409e-08
2.26456e-06
-4.80121e-07
5.68265e-08
8.15137e-07
-2.89239e-06
-2.08027e-07
4.57449e-06
-2.77098e-06
-2.85748e-07
4.10457e-06
-1.07951e-07
1.99262e-06
-2.972e-06
1.83898e-06
-1.37941e-06
3.15917e-06
-1.94046e-06
7.40868e-07
-1.91578e-06
5.5624e-06
-1.07297e-07
-1.27938e-06
3.0502e-06
-2.37039e-07
-4.95182e-07
1.63903e-06
-2.82179e-06
-1.28476e-06
4.64941e-06
-2.7871e-06
-1.04739e-06
3.54567e-06
-6.28291e-07
1.85526e-06
-2.96794e-06
1.68505e-06
-1.90901e-06
2.09644e-06
-1.9782e-06
9.44934e-07
-2.19389e-06
3.76258e-06
-4.85058e-07
-2.00336e-06
5.69894e-06
-1.74539e-06
-1.50982e-06
5.91113e-06
-2.72111e-06
-1.68823e-06
4.54305e-06
-2.93901e-06
-1.45247e-06
2.42995e-06
-1.21548e-06
1.58922e-06
-3.0836e-06
1.39555e-06
1.5589e-06
-1.86911e-06
-2.17577e-06
5.61956e-07
2.12557e-06
-2.17112e-06
-5.14981e-07
3.12339e-06
-1.90346e-06
-1.46323e-06
3.44231e-06
-1.65659e-06
-2.20508e-06
2.39808e-06
-1.8198e-06
-2.66202e-06
1.68876e-06
-1.75898e-06
1.45255e-06
-2.94381e-06
-1.66938e-06
1.60484e-06
2.22746e-06
3.03953e-06
-2.42033e-06
-2.89548e-06
6.24326e-07
2.08364e-06
3.43744e-06
-2.50119e-06
-3.40913e-07
1.6084e-06
4.20646e-06
-1.94043e-06
-1.07153e-06
1.1386e-06
4.46541e-06
-1.73646e-06
-1.97335e-06
1.82659e-06
3.59567e-06
-2.33443e-06
-2.83396e-06
2.11672e-06
3.13569e-06
-2.7426e-06
2.21621e-06
2.94955e-06
-3.53878e-06
-2.99642e-06
1.54412e-06
1.4859e-06
3.42345e-06
-2.22628e-06
6.75912e-07
1.70543e-06
4.81395e-06
-5.41227e-07
1.05489e-06
6.5734e-06
-1.58758e-06
3.04642e-07
6.48038e-06
-2.35924e-06
1.45413e-06
5.31804e-06
-3.05374e-06
1.4995e-06
3.56043e-06
1.39043e-06
3.05537e-06
-3.71326e-06
1.37938e-06
5.94117e-07
4.39772e-06
-1.86722e-06
4.82689e-07
4.95062e-07
6.61224e-06
-1.92198e-07
2.10662e-08
2.53135e-06
-3.88285e-07
-4.568e-08
1.45704e-06
-2.70228e-06
3.69626e-07
6.0475e-06
-3.10975e-06
7.06633e-07
4.55462e-06
5.67491e-07
3.2276e-06
-3.72234e-06
8.59148e-07
-2.67113e-07
5.36676e-06
-1.44206e-06
-5.59178e-08
-2.83478e-07
6.49013e-06
-3.20407e-07
-1.37565e-08
1.55839e-06
-6.7952e-07
5.48582e-08
1.07539e-06
-3.2516e-06
-2.80302e-07
6.12092e-06
-3.27061e-06
-4.11844e-07
5.24199e-06
-3.31524e-07
3.38284e-06
-3.76182e-06
1.36884e-06
-1.21077e-06
4.54909e-06
-1.81521e-06
4.24072e-07
-1.47835e-06
6.69296e-06
-1.81482e-07
-8.88316e-07
2.23867e-06
-2.34349e-07
-2.14679e-07
1.2096e-06
-2.69938e-06
-1.17318e-06
5.43932e-06
-3.07129e-06
-1.21777e-06
4.72344e-06
-1.11454e-06
3.27212e-06
-3.70518e-06
1.64233e-06
-2.02993e-06
3.51624e-06
-2.24301e-06
8.21017e-07
-1.94602e-06
5.05142e-06
-4.46209e-07
-1.57595e-06
6.71553e-06
-1.57941e-06
-1.04921e-06
6.41267e-06
-2.42097e-06
-1.60445e-06
5.71981e-06
-3.09762e-06
-1.83078e-06
3.71953e-06
-1.93496e-06
3.07275e-06
-3.76077e-06
1.7464e-06
3.04712e-06
-2.53357e-06
-2.73112e-06
7.72549e-07
3.52598e-06
-2.37274e-06
-2.74807e-07
4.44231e-06
-1.8476e-06
-1.10818e-06
4.79412e-06
-1.56773e-06
-2.04524e-06
3.79885e-06
-2.0682e-06
-2.91344e-06
3.17652e-06
-2.45036e-06
2.94511e-06
-3.62514e-06
-2.71588e-06
1.94956e-06
2.34968e-06
-2.93114e-06
-3.22831e-06
4.89974e-06
9.17337e-07
2.04713e-06
-2.82305e-06
5.24545e-06
-6.235e-09
1.38709e-06
-2.17511e-06
5.918e-06
-8.11127e-07
1.0673e-06
-1.98583e-06
6.18888e-06
-1.80548e-06
1.94798e-06
-2.73735e-06
5.37944e-06
-2.76878e-06
2.44866e-06
-3.30514e-06
4.95557e-06
2.66054e-06
-3.60004e-06
-3.64372e-06
4.76399e-06
1.69665e-06
1.45803e-06
-2.62172e-06
5.24002e-06
7.28488e-07
1.40475e-06
6.4245e-06
-3.30706e-07
6.95829e-07
8.06348e-06
-1.36112e-06
2.64103e-07
7.71529e-06
-2.14907e-06
1.2315e-06
6.82265e-06
-3.03506e-06
1.5969e-06
5.29844e-06
1.67774e-06
-3.86339e-06
4.86652e-06
1.20624e-06
5.76949e-07
-2.05747e-06
6.13002e-06
3.26075e-07
4.42899e-07
8.22577e-06
-1.44524e-07
1.30467e-09
2.07198e-06
-6.54158e-07
-1.75815e-08
1.52012e-06
-2.36547e-06
4.33487e-07
8.03188e-06
-3.13566e-06
7.53058e-07
6.1687e-06
6.90238e-07
-3.94723e-06
5.02669e-06
6.90934e-07
-2.39014e-07
-1.57203e-06
7.06387e-06
-1.74973e-08
-1.88218e-07
7.28596e-06
-2.74147e-07
1.67268e-08
9.85659e-07
-7.42988e-07
3.05399e-08
1.40852e-06
-2.97327e-06
-3.02656e-07
8.5815e-06
-3.35448e-06
-4.25483e-07
6.80174e-06
-4.19647e-07
-4.02847e-06
5.16674e-06
1.15493e-06
-1.1643e-06
-1.96928e-06
6.28878e-06
2.64499e-07
-1.14598e-06
8.20582e-06
-1.40034e-07
-4.91875e-07
1.53895e-06
-4.16739e-07
-1.51832e-07
1.23788e-06
-2.41317e-06
-9.87035e-07
7.25205e-06
-3.14754e-06
-1.29566e-06
6.32806e-06
-1.40044e-06
-3.96085e-06
5.06625e-06
1.75292e-06
-2.12062e-06
-2.60888e-06
5.32859e-06
8.27002e-07
-1.85402e-06
6.68575e-06
-2.55454e-07
-1.23485e-06
8.14978e-06
-1.38927e-06
-8.75076e-07
7.48813e-06
-2.21318e-06
-1.65435e-06
7.2111e-06
-3.08966e-06
-2.13415e-06
5.43453e-06
-2.38504e-06
-3.91939e-06
4.88706e-06
2.06812e-06
-3.02155e-06
-3.0307e-06
4.91059e-06
1.0425e-06
-2.63182e-06
5.32947e-06
6.26605e-08
-1.97784e-06
6.16514e-06
-8.31137e-07
-1.71011e-06
6.523e-06
-1.85917e-06
-2.3907e-06
5.56326e-06
-2.83601e-06
-2.9784e-06
4.99757e-06
-3.65998e-06
-3.38129e-06
4.76521e-06
-2.65076e-06
-3.6475e-07
1.57988e-07
5.09645e-07
-2.82309e-06
-5.12513e-07
1.69458e-07
5.16083e-07
-3.1103e-06
-3.71608e-07
1.75222e-07
4.835e-07
-3.42019e-06
-3.13674e-07
1.70782e-07
4.53144e-07
-3.73779e-06
-2.78941e-07
1.57109e-07
4.39392e-07
-4.05643e-06
-2.53659e-07
1.35398e-07
4.36163e-07
-4.36386e-06
-2.33738e-07
1.07119e-07
4.32397e-07
-2.16045e-07
7.37095e-08
4.29041e-07
-4.65236e-06
-2.3756e-06
-6.2548e-08
1.97924e-07
-2.82992e-06
-2.8031e-07
2.21542e-07
-3.21602e-06
-2.07368e-07
2.21675e-07
-3.5828e-06
-1.59327e-07
2.12195e-07
-3.92324e-06
-1.33015e-07
1.94395e-07
-4.22814e-06
-1.14822e-07
1.68453e-07
-4.49588e-06
-1.02067e-07
1.36023e-07
-9.27596e-08
9.86132e-08
-4.71763e-06
-2.06909e-06
4.73369e-08
2.24258e-07
-2.56898e-06
-1.40529e-08
2.33713e-07
-3.00683e-06
-8.96033e-09
2.40395e-07
-3.40633e-06
2.96651e-09
2.38042e-07
-3.76986e-06
1.13809e-08
2.19286e-07
-4.09565e-06
1.70698e-08
1.93106e-07
-4.38388e-06
2.68799e-08
1.59318e-07
3.18582e-08
1.19588e-07
-4.62804e-06
-1.98071e-06
1.3394e-07
2.50288e-07
-2.45391e-06
2.14873e-07
2.44996e-07
-2.88e-06
1.67889e-07
2.48601e-07
-3.28231e-06
1.55532e-07
2.48427e-07
-3.64397e-06
1.45191e-07
2.28562e-07
-3.96513e-06
1.40362e-07
1.99749e-07
-4.22814e-06
1.26792e-07
1.62254e-07
1.16453e-07
1.21307e-07
-4.43488e-06
-2.10322e-06
2.28871e-07
2.26431e-07
-2.53206e-06
4.17083e-07
2.2773e-07
-2.94985e-06
3.52904e-07
2.33549e-07
-3.34389e-06
3.13999e-07
2.34999e-07
-3.70108e-06
2.84289e-07
2.16368e-07
-4.0158e-06
2.6529e-07
1.88846e-07
-4.29583e-06
2.54493e-07
1.5432e-07
2.42083e-07
1.12981e-07
-4.53353e-06
-2.43011e-06
4.83264e-07
1.97831e-07
-2.80791e-06
5.85424e-07
2.1083e-07
-3.17674e-06
5.05702e-07
2.17474e-07
-3.51325e-06
4.40729e-07
2.08208e-07
-3.82936e-06
4.08638e-07
1.90245e-07
-4.11583e-06
3.86668e-07
1.63738e-07
-4.35994e-06
3.68154e-07
1.30355e-07
3.52155e-07
9.15315e-08
-4.56011e-06
-2.60673e-06
1.51601e-07
5.60214e-07
-2.78228e-06
1.66932e-07
5.90979e-07
-3.02421e-06
1.71988e-07
5.76827e-07
-3.29772e-06
1.66712e-07
5.50489e-07
-3.58866e-06
1.52112e-07
5.46425e-07
-3.87809e-06
1.29472e-07
5.49202e-07
-4.1596e-06
9.96589e-08
5.49949e-07
6.4213e-08
5.55095e-07
-4.42817e-06
-2.99823e-06
-3.19948e-07
4.01241e-07
5.31314e-07
-3.46401e-06
-2.90965e-07
4.3102e-07
4.95259e-07
-3.92705e-06
-2.56453e-07
4.33142e-07
4.61644e-07
-4.36861e-06
-2.29005e-07
4.08869e-07
4.32499e-07
-4.77287e-06
-2.06523e-07
3.61515e-07
4.06541e-07
-5.12793e-06
-1.87378e-07
2.95573e-07
3.82332e-07
-5.42589e-06
-1.70556e-07
2.16713e-07
3.59014e-07
-1.55457e-07
1.30547e-07
3.36271e-07
-5.66353e-06
-3.09345e-06
-1.68446e-07
5.29797e-07
-3.58029e-06
-1.3132e-07
5.48889e-07
-4.05824e-06
-1.00627e-07
5.43769e-07
-4.50649e-06
-7.85057e-08
5.10022e-07
-4.90615e-06
-6.22213e-08
4.49687e-07
-5.24286e-06
-5.01372e-08
3.67966e-07
-5.50841e-06
-4.0856e-08
2.71912e-07
-3.36853e-08
1.68521e-07
-5.70005e-06
-3.00039e-06
2.24585e-09
6.23611e-07
-3.54569e-06
1.89378e-08
6.28712e-07
-4.06036e-06
3.09527e-08
6.23558e-07
-4.52688e-06
3.85989e-08
5.87524e-07
-4.93399e-06
4.35604e-08
5.20716e-07
-5.26631e-06
4.65e-08
4.28846e-07
-5.51631e-06
4.81429e-08
3.20365e-07
4.86564e-08
2.03675e-07
-5.6827e-06
-2.8909e-06
2.26698e-07
6.69263e-07
-3.47479e-06
1.91686e-07
6.56173e-07
-4.01359e-06
1.68686e-07
6.49801e-07
-4.49422e-06
1.54523e-07
6.13126e-07
-4.90977e-06
1.44307e-07
5.43359e-07
-5.24617e-06
1.36375e-07
4.4633e-07
-5.49704e-06
1.29707e-07
3.31651e-07
1.24153e-07
2.08416e-07
-5.65962e-06
-2.97334e-06
3.92443e-07
6.21488e-07
-3.51005e-06
3.3664e-07
6.19515e-07
-4.01823e-06
2.96202e-07
6.14361e-07
-4.47642e-06
2.69233e-07
5.78538e-07
-4.8755e-06
2.48686e-07
5.11165e-07
-5.20124e-06
2.3277e-07
4.18167e-07
-5.44553e-06
2.20029e-07
3.08345e-07
2.09517e-07
1.90168e-07
-5.60803e-06
-3.0881e-06
5.05724e-07
5.20608e-07
-3.54643e-06
4.68786e-07
5.3715e-07
-3.99801e-06
4.33683e-07
5.31697e-07
-4.42198e-06
4.04553e-07
4.97026e-07
-4.79961e-06
3.8124e-07
4.35364e-07
-5.11624e-06
3.61434e-07
3.51741e-07
-5.36334e-06
3.4392e-07
2.53581e-07
3.2798e-07
1.478e-07
-5.53802e-06
-3.00335e-06
3.91691e-07
6.68526e-07
-3.42157e-06
4.19872e-07
6.34118e-07
-3.83911e-06
4.20562e-07
6.02482e-07
-4.23756e-06
3.94218e-07
5.75605e-07
-4.6008e-06
3.44213e-07
5.52383e-07
-4.91607e-06
2.75202e-07
5.31012e-07
-5.1761e-06
1.932e-07
5.10482e-07
1.03526e-07
4.90369e-07
-5.37776e-06
-3.57099e-06
-1.34472e-07
8.33849e-07
3.96569e-07
-4.28949e-06
-1.02716e-07
9.11556e-07
3.40638e-07
-5.02596e-06
-6.57271e-08
9.41497e-07
2.93704e-07
-5.75926e-06
-3.53203e-08
9.24211e-07
2.53206e-07
-6.46534e-06
-1.21445e-08
8.61343e-07
2.18377e-07
-7.11786e-06
4.89954e-09
7.54419e-07
1.8877e-07
-7.68665e-06
1.66373e-08
6.04907e-07
1.63946e-07
2.47808e-08
4.18466e-07
1.43245e-07
-8.1426e-06
-3.73675e-06
-9.50019e-09
1.08749e-06
-4.46255e-06
1.98123e-08
1.15227e-06
-5.2017e-06
4.60788e-08
1.17114e-06
-5.92979e-06
6.53388e-08
1.13747e-06
-6.622e-06
7.84601e-08
1.05127e-06
-7.24949e-06
8.66468e-08
9.1369e-07
-7.77796e-06
9.09553e-08
7.26064e-07
9.19776e-08
4.95465e-07
-8.17211e-06
-3.73514e-06
6.52904e-08
1.26664e-06
-4.48329e-06
7.94291e-08
1.31714e-06
-5.23637e-06
8.91873e-08
1.3335e-06
-5.97286e-06
9.54934e-08
1.29386e-06
-6.66745e-06
9.85441e-08
1.19526e-06
-7.28939e-06
9.90392e-08
1.03845e-06
-7.80029e-06
9.7457e-08
8.24818e-07
9.40801e-08
5.62418e-07
-8.1611e-06
-3.70989e-06
1.35177e-07
1.3372e-06
-4.46955e-06
1.22337e-07
1.37285e-06
-5.22918e-06
1.10445e-07
1.38819e-06
-5.96768e-06
9.98294e-08
1.34726e-06
-6.66111e-06
9.06843e-08
1.24464e-06
-7.27939e-06
8.27663e-08
1.08088e-06
-7.78372e-06
7.59084e-08
8.57532e-07
6.99961e-08
5.83228e-07
-8.13445e-06
-3.70732e-06
2.29963e-07
1.2661e-06
-4.46204e-06
1.87919e-07
1.30869e-06
-5.21391e-06
1.53552e-07
1.32313e-06
-5.94507e-06
1.27266e-07
1.28229e-06
-6.63262e-06
1.07331e-07
1.18211e-06
-7.24728e-06
9.23441e-08
1.02329e-06
-7.75165e-06
8.12816e-08
8.07395e-07
7.34219e-08
5.42748e-07
-8.10761e-06
-3.74243e-06
3.30954e-07
1.0784e-06
-4.45027e-06
2.95544e-07
1.13736e-06
-5.1731e-06
2.55057e-07
1.15298e-06
-5.886e-06
2.21338e-07
1.11588e-06
-6.56375e-06
1.9482e-07
1.02561e-06
-7.17741e-06
1.74369e-07
8.83376e-07
-7.69222e-06
1.58873e-07
6.90813e-07
1.47308e-07
4.5552e-07
-8.0738e-06
-3.60073e-06
8.21565e-07
5.57991e-07
-4.28546e-06
8.94197e-07
5.0594e-07
-4.99091e-06
9.18655e-07
4.62412e-07
-5.69524e-06
8.94696e-07
4.25227e-07
-6.37339e-06
8.24039e-07
3.9316e-07
-6.99783e-06
7.08543e-07
3.65486e-07
-7.53769e-06
5.50228e-07
3.41726e-07
3.55699e-07
3.21486e-07
-7.96402e-06
-4.75929e-06
1.34314e-07
1.73148e-06
1.88497e-07
-6.07746e-06
1.84199e-07
1.93664e-06
1.08802e-07
-7.45542e-06
2.32835e-07
2.03947e-06
4.70728e-08
-8.81389e-06
2.66575e-07
2.01756e-06
-1.51517e-09
-1.00439e-05
2.86761e-07
1.84932e-06
-4.48172e-08
-1.10307e-05
2.94941e-07
1.52354e-06
-7.72858e-08
-1.16607e-05
2.93734e-07
1.04429e-06
-1.03105e-07
2.85885e-07
4.21845e-07
-1.23916e-07
-1.1826e-05
-4.9292e-06
2.10435e-07
2.22724e-06
-6.26209e-06
2.47311e-07
2.42207e-06
-7.65605e-06
2.81967e-07
2.51596e-06
-9.03005e-06
3.03012e-07
2.47499e-06
-1.02714e-05
3.11031e-07
2.26825e-06
-1.12471e-05
3.07687e-07
1.87663e-06
-1.18213e-05
2.94774e-07
1.29923e-06
2.7405e-07
5.41884e-07
-1.18559e-05
-4.96032e-06
1.58235e-07
2.55672e-06
-6.30889e-06
1.68772e-07
2.74417e-06
-7.71568e-06
1.8148e-07
2.84071e-06
-9.10372e-06
1.8782e-07
2.79706e-06
-1.03581e-05
1.87574e-07
2.57313e-06
-1.13357e-05
1.81635e-07
2.14211e-06
-1.18851e-05
1.70988e-07
1.49803e-06
1.56556e-07
6.42689e-07
-1.18478e-05
-4.98113e-06
3.65755e-08
2.6781e-06
-6.32522e-06
2.94404e-08
2.85619e-06
-7.72821e-06
1.82562e-08
2.95439e-06
-9.11328e-06
8.71115e-09
2.91141e-06
-1.03657e-05
2.03752e-09
2.68261e-06
-1.13398e-05
-1.27055e-09
2.23783e-06
-1.1879e-05
-1.27517e-09
1.56896e-06
1.78175e-09
6.76625e-07
-1.18176e-05
-4.9529e-06
-8.35869e-09
2.55878e-06
-6.306e-06
-4.88059e-08
2.74003e-06
-7.70953e-06
-8.92613e-08
2.83414e-06
-9.08988e-06
-1.17003e-07
2.78835e-06
-1.03352e-05
-1.32193e-07
2.56165e-06
-1.13037e-05
-1.36317e-07
2.12692e-06
-1.1845e-05
-1.3095e-07
1.47836e-06
-1.17683e-07
6.19213e-07
-1.1802e-05
-4.96885e-06
5.60787e-08
2.22197e-06
-6.28746e-06
-3.95576e-09
2.41108e-06
-7.66611e-06
-5.82167e-08
2.50052e-06
-9.0239e-06
-9.77232e-08
2.45436e-06
-1.02492e-05
-1.22361e-07
2.24103e-06
-1.12085e-05
-1.35045e-07
1.84134e-06
-1.1765e-05
-1.38635e-07
1.25496e-06
-1.35853e-07
4.90731e-07
-1.1782e-05
-4.82257e-06
1.72113e-06
3.53867e-07
-6.12171e-06
1.92013e-06
2.69183e-07
-7.48016e-06
2.01615e-06
2.02698e-07
-8.8161e-06
1.98584e-06
1.47054e-07
-1.00225e-05
1.80712e-06
1.00981e-07
-1.09809e-05
1.4688e-06
6.30841e-08
-1.1577e-05
9.75741e-07
3.18508e-08
3.42939e-07
6.22362e-09
-1.17063e-05
-5.00443e-06
4.00357e-07
-8.97913e-08
2.82528e-06
-6.60319e-06
4.80978e-07
-1.95136e-07
3.24948e-06
-8.40389e-06
5.52536e-07
-2.76371e-07
3.56398e-06
-1.03816e-05
6.0283e-07
-3.39516e-07
3.73188e-06
-1.25089e-05
6.33016e-07
-3.83162e-07
3.72677e-06
-1.47585e-05
6.43091e-07
-4.06567e-07
3.53659e-06
-1.71019e-05
6.26385e-07
-4.10325e-07
3.17168e-06
5.79247e-07
-3.95149e-07
-1.95707e-05
2.70648e-06
-5.25231e-06
4.0616e-07
3.61038e-06
-6.83258e-06
4.59433e-07
4.02385e-06
-8.60092e-06
5.0665e-07
4.33015e-06
-1.05412e-05
5.36536e-07
4.48154e-06
-1.26271e-05
5.49589e-07
4.43747e-06
-1.48252e-05
5.46152e-07
4.17163e-06
-1.71127e-05
5.23777e-07
3.68931e-06
4.78926e-07
-1.95586e-05
3.08809e-06
-5.34931e-06
2.37286e-07
4.12765e-06
-6.92295e-06
2.47053e-07
4.53017e-06
-8.67257e-06
2.57818e-07
4.83911e-06
-1.05919e-05
2.60835e-07
4.99209e-06
-1.26594e-05
2.56389e-07
4.93379e-06
-1.48406e-05
2.45513e-07
4.62391e-06
-1.71087e-05
2.28537e-07
4.06134e-06
2.04754e-07
-1.95524e-05
3.36054e-06
-5.40671e-06
-2.5603e-08
4.31924e-06
-6.96499e-06
-4.88617e-08
4.71035e-06
-8.6957e-06
-7.66903e-08
5.01956e-06
-1.05962e-05
-1.01959e-07
5.17465e-06
-1.26478e-05
-1.22512e-07
5.11312e-06
-1.48165e-05
-1.36283e-07
4.78828e-06
-1.70743e-05
-1.40798e-07
4.19606e-06
-1.33575e-07
-1.95167e-05
3.45729e-06
-5.35878e-06
-2.02609e-07
4.13373e-06
-6.92333e-06
-2.74474e-07
4.53013e-06
-8.65807e-06
-3.43869e-07
4.83598e-06
-1.05601e-05
-3.98383e-07
4.98674e-06
-1.26103e-05
-4.36643e-07
4.92601e-06
-1.47761e-05
-4.56572e-07
4.61296e-06
-1.70317e-05
-4.53438e-07
4.04647e-06
-4.22544e-07
-1.94646e-05
3.3411e-06
-5.28506e-06
-2.24345e-07
3.60929e-06
-6.83768e-06
-3.26838e-07
4.01596e-06
-8.57493e-06
-4.23375e-07
4.31719e-06
-1.0483e-05
-4.99937e-07
4.46387e-06
-1.2537e-05
-5.5618e-07
4.41454e-06
-1.47053e-05
-5.89725e-07
4.14267e-06
-1.69662e-05
-5.91388e-07
3.65372e-06
-5.55828e-07
-1.93877e-05
3.04544e-06
-5.02561e-06
4.51277e-08
2.81715e-06
-6.5821e-06
-8.54763e-08
3.23514e-06
-8.33834e-06
-1.94681e-07
3.54362e-06
-1.02706e-05
-2.86949e-07
3.70502e-06
-1.23519e-05
-3.60356e-07
3.69253e-06
-1.45564e-05
-4.10527e-07
3.49396e-06
-1.68574e-05
-4.34578e-07
3.11984e-06
-4.30983e-07
-1.92846e-05
2.64524e-06
-1.71737e-06
2.94813e-07
1.82586e-07
-2.02274e-07
-1.97875e-06
2.73619e-07
1.86739e-07
-1.98647e-07
-2.3358e-06
3.13177e-07
1.85857e-07
-1.41865e-07
-2.71717e-06
3.22084e-07
1.72882e-07
-1.12786e-07
-3.10568e-06
3.3439e-07
1.4981e-07
-9.63181e-08
-3.48059e-06
3.41515e-07
1.18028e-07
-8.44368e-08
-3.82217e-06
3.37545e-07
7.91237e-08
-7.42912e-08
3.43129e-07
3.23249e-08
-6.65365e-08
-4.13103e-06
-1.71152e-06
2.90744e-07
2.78328e-07
-1.91052e-06
1.98733e-07
2.73937e-07
-2.15267e-06
2.80206e-07
2.7571e-07
-2.3853e-06
2.88075e-07
2.67362e-07
-2.59799e-06
2.94319e-07
2.52252e-07
-2.78703e-06
3.01157e-07
2.28741e-07
-2.95084e-06
3.0438e-07
1.97729e-07
3.37876e-07
1.66706e-07
-3.11222e-06
-1.69172e-06
5.62794e-08
3.85925e-07
-1.8537e-06
7.83864e-09
3.52825e-07
-1.97326e-06
4.3192e-08
3.55773e-07
-2.09028e-06
4.30898e-08
3.62153e-07
-2.21283e-06
5.5139e-08
3.62323e-07
-2.35035e-06
7.97507e-08
3.58922e-07
-2.49002e-06
9.72572e-08
3.46857e-07
1.11641e-07
3.41635e-07
-2.60538e-06
-1.88288e-06
-2.27206e-07
4.61714e-07
-2.07684e-06
-1.96866e-07
3.99437e-07
-2.20525e-06
-2.36478e-07
4.08337e-07
-2.33935e-06
-2.55101e-07
4.31711e-07
-2.45356e-06
-2.83414e-07
4.52853e-07
-2.53297e-06
-3.05916e-07
4.65192e-07
-2.5761e-06
-3.22681e-07
4.63174e-07
-3.4598e-07
4.55887e-07
-2.57424e-06
-1.61492e-06
-4.45532e-07
3.6837e-07
-1.81762e-06
-3.33612e-07
3.40199e-07
-1.98802e-06
-4.07831e-07
3.421e-07
-2.17438e-06
-4.15969e-07
3.47411e-07
-2.3705e-06
-4.36801e-07
3.49116e-07
-2.53553e-06
-4.77986e-07
3.3707e-07
-2.66936e-06
-5.0205e-07
3.13602e-07
-4.92804e-07
2.78305e-07
-2.80079e-06
-1.6807e-06
-4.02972e-07
2.74077e-07
-1.91063e-06
-3.71033e-07
2.66176e-07
-2.18403e-06
-3.98371e-07
2.63543e-07
-2.43985e-06
-4.14895e-07
2.54923e-07
-2.69499e-06
-4.14002e-07
2.31997e-07
-2.95254e-06
-4.2699e-07
2.06673e-07
-3.18715e-06
-4.4081e-07
1.74222e-07
-4.50671e-07
1.37709e-07
-3.36717e-06
-1.61048e-06
1.82076e-07
-2.54128e-07
-1.94943e-06
1.93109e-07
-2.25213e-07
-2.34966e-06
1.92968e-07
-1.91212e-07
-2.77059e-06
1.81145e-07
-1.73643e-07
-3.17969e-06
1.5963e-07
-1.63363e-07
-3.5799e-06
1.30011e-07
-1.58274e-07
-3.95724e-06
9.30831e-08
-1.55385e-07
5.01649e-08
-1.54349e-07
-4.30366e-06
-2.03537e-06
3.60634e-07
4.26704e-07
-1.62156e-07
-2.49401e-06
3.36477e-07
4.50104e-07
-1.41116e-07
-2.95777e-06
3.24144e-07
4.46728e-07
-1.21316e-07
-3.40936e-06
3.19063e-07
4.12421e-07
-1.0699e-07
-3.83204e-06
3.18326e-07
3.50487e-07
-9.62607e-08
-4.21163e-06
3.19077e-07
2.66555e-07
-8.79355e-08
-4.53875e-06
3.19731e-07
1.67835e-07
-8.12576e-08
3.19575e-07
5.91815e-08
-7.57578e-08
-4.80939e-06
-2.16327e-06
3.16802e-07
6.37021e-07
-2.4849e-06
2.94419e-07
6.37653e-07
-2.82761e-06
2.96202e-07
6.46497e-07
-3.1718e-06
3.01066e-07
6.29631e-07
-3.49657e-06
3.12347e-07
5.83117e-07
-3.78507e-06
3.25965e-07
5.10387e-07
-4.02626e-06
3.3977e-07
4.18961e-07
3.52841e-07
3.17935e-07
-4.2107e-06
-2.1305e-06
4.53302e-08
9.20246e-07
-2.33698e-06
3.46483e-08
8.19175e-07
-2.56258e-06
3.48483e-08
8.42803e-07
-2.79488e-06
3.55196e-08
8.60004e-07
-3.01125e-06
4.00728e-08
8.51064e-07
-3.18858e-06
4.72934e-08
8.15043e-07
-3.31361e-06
5.51134e-08
7.56654e-07
6.26917e-08
6.84743e-07
-3.36648e-06
-2.13443e-06
-3.03717e-07
1.09734e-06
-2.31803e-06
-2.77168e-07
8.94958e-07
-2.51616e-06
-2.78561e-07
9.20042e-07
-2.71669e-06
-2.83814e-07
9.51448e-07
-2.88819e-06
-2.93794e-07
9.58259e-07
-3.00876e-06
-3.04404e-07
9.37543e-07
-3.06987e-06
-3.1453e-07
8.94016e-07
-3.2421e-07
8.36464e-07
-3.0635e-06
-2.12918e-06
-5.26299e-07
8.78272e-07
-2.37133e-06
-4.90284e-07
7.95501e-07
-2.63355e-06
-4.87537e-07
8.13374e-07
-2.89702e-06
-4.91223e-07
8.18209e-07
-3.13437e-06
-5.01128e-07
7.93851e-07
-3.32857e-06
-5.14111e-07
7.41059e-07
-3.46967e-06
-5.26468e-07
6.66713e-07
-5.3684e-07
5.80681e-07
-3.55934e-06
-2.12313e-06
-5.09908e-07
6.24393e-07
-2.49876e-06
-4.76665e-07
6.28271e-07
-2.89297e-06
-4.603e-07
6.3058e-07
-3.28134e-06
-4.51934e-07
6.04052e-07
-3.64932e-06
-4.48372e-07
5.47273e-07
-3.97445e-06
-4.46863e-07
4.64588e-07
-4.24412e-06
-4.46129e-07
3.63609e-07
-4.4507e-07
2.53928e-07
-4.45206e-06
-1.96625e-06
4.36967e-07
-2.77226e-07
-2.46158e-06
4.63636e-07
-2.51875e-07
-2.96001e-06
4.61819e-07
-2.30672e-07
-3.44468e-06
4.29186e-07
-2.15341e-07
-3.89825e-06
3.69231e-07
-2.04239e-07
-4.30627e-06
2.87632e-07
-1.96407e-07
-4.65992e-06
1.91704e-07
-1.91047e-07
8.75783e-08
-1.87452e-07
-4.95491e-06
-2.56513e-06
4.07788e-07
8.5659e-07
-1.41741e-07
-3.28942e-06
3.78146e-07
9.24436e-07
-1.28185e-07
-4.0379e-06
3.69766e-07
9.44225e-07
-1.1897e-07
-4.78813e-06
3.64853e-07
9.10213e-07
-1.12519e-07
-5.51424e-06
3.59422e-07
8.24528e-07
-1.07373e-07
-6.18743e-06
3.52166e-07
6.90365e-07
-1.02787e-07
-6.77588e-06
3.43028e-07
5.11505e-07
-9.82629e-08
3.32529e-07
2.97143e-07
-9.34502e-08
-7.25294e-06
-2.51663e-06
3.69044e-07
1.21402e-06
-3.11324e-06
3.51441e-07
1.26101e-06
-3.74496e-06
3.45231e-07
1.30277e-06
-4.39122e-06
3.45247e-07
1.29551e-06
-5.02843e-06
3.47435e-07
1.23231e-06
-5.62713e-06
3.48421e-07
1.11284e-06
-6.15075e-06
3.47555e-07
9.38055e-07
3.44855e-07
7.15146e-07
-6.56029e-06
-2.32818e-06
5.32199e-08
1.62365e-06
-2.76316e-06
4.70549e-08
1.55843e-06
-3.24618e-06
4.1845e-08
1.62915e-06
-3.75376e-06
3.91027e-08
1.6737e-06
-4.25847e-06
3.79017e-08
1.66527e-06
-4.73065e-06
3.73041e-08
1.59832e-06
-5.13296e-06
3.67468e-08
1.46983e-06
3.63457e-08
1.28522e-06
-5.42493e-06
-2.19595e-06
-3.26237e-07
1.87755e-06
-2.60218e-06
-3.25387e-07
1.6735e-06
-3.05808e-06
-3.27853e-07
1.74556e-06
-3.54267e-06
-3.32309e-07
1.80729e-06
-4.02606e-06
-3.35805e-07
1.81529e-06
-4.47603e-06
-3.35878e-07
1.76066e-06
-4.85221e-06
-3.32175e-07
1.6391e-06
-3.25423e-07
1.45613e-06
-5.11011e-06
-2.36651e-06
-5.952e-07
1.56683e-06
-2.84301e-06
-5.74837e-07
1.52141e-06
-3.36758e-06
-5.71643e-07
1.58167e-06
-3.9148e-06
-5.73945e-07
1.60704e-06
-4.45679e-06
-5.75714e-07
1.57575e-06
-4.96211e-06
-5.7379e-07
1.48433e-06
-5.39197e-06
-5.67629e-07
1.33206e-06
-5.57552e-07
1.12631e-06
-5.70545e-06
-2.49361e-06
-5.69982e-07
1.19191e-06
-3.142e-06
-5.40256e-07
1.24196e-06
-3.82196e-06
-5.34351e-07
1.27328e-06
-4.51231e-06
-5.31044e-07
1.25146e-06
-5.18693e-06
-5.26468e-07
1.17263e-06
-5.81459e-06
-5.19514e-07
1.03796e-06
-6.35784e-06
-5.09994e-07
8.49225e-07
-4.98264e-07
6.14089e-07
-6.7773e-06
-2.46605e-06
8.65418e-07
-2.73628e-07
-3.21625e-06
9.37907e-07
-2.64361e-07
-3.99155e-06
9.60368e-07
-2.57617e-07
-4.7691e-06
9.29435e-07
-2.53789e-07
-5.52236e-06
8.47662e-07
-2.51599e-07
-6.22232e-06
7.18221e-07
-2.5011e-07
-6.83668e-06
5.44576e-07
-2.48502e-07
3.35127e-07
-2.46203e-07
-7.3363e-06
-3.77807e-06
4.29468e-07
1.75961e-06
-8.81335e-08
-5.13529e-06
4.11949e-07
1.9541e-06
-8.45165e-08
-6.55676e-06
3.99439e-07
2.04771e-06
-8.16509e-08
-7.95432e-06
3.73169e-07
2.01348e-06
-7.90076e-08
-9.21901e-06
3.36092e-07
1.82887e-06
-7.58263e-08
-1.02303e-05
2.918e-07
1.48153e-06
-7.17584e-08
-1.08684e-05
2.43055e-07
9.73038e-07
-6.6554e-08
1.91515e-07
3.20565e-07
-6.00478e-08
-1.10234e-05
-3.35809e-06
3.93559e-07
2.36476e-06
-4.62733e-06
3.89097e-07
2.55301e-06
-5.97976e-06
3.77917e-07
2.67662e-06
-7.34098e-06
3.56951e-07
2.67289e-06
-8.60115e-06
3.26531e-07
2.50194e-06
-9.62339e-06
2.89756e-07
2.13701e-06
-1.02621e-05
2.49158e-07
1.57055e-06
2.06045e-07
8.02503e-07
-1.03639e-05
-2.74835e-06
4.0782e-08
2.90942e-06
-3.86759e-06
4.22023e-08
3.02441e-06
-5.0903e-06
3.92206e-08
3.19042e-06
-6.34375e-06
3.33294e-08
3.25066e-06
-7.51939e-06
2.53401e-08
3.14203e-06
-8.47475e-06
1.68406e-08
2.82653e-06
-9.05311e-06
8.68873e-09
2.28863e-06
1.07069e-09
1.49626e-06
-9.05918e-06
-2.39123e-06
-3.40259e-07
3.20767e-06
-3.52276e-06
-3.566e-07
3.20367e-06
-4.75388e-06
-3.58427e-07
3.37417e-06
-6.01766e-06
-3.51017e-07
3.45533e-06
-7.21047e-06
-3.33351e-07
3.36669e-06
-8.1869e-06
-3.08834e-07
3.06268e-06
-8.77884e-06
-2.80525e-07
2.5202e-06
-2.50775e-07
1.70603e-06
-8.77677e-06
-2.86592e-06
-6.29795e-07
2.85492e-06
-4.04778e-06
-6.34049e-07
2.98065e-06
-5.32883e-06
-6.26845e-07
3.13109e-06
-6.63657e-06
-6.02231e-07
3.16591e-06
-7.8587e-06
-5.61688e-07
3.02617e-06
-8.84885e-06
-5.10318e-07
2.67594e-06
-9.44554e-06
-4.52571e-07
2.10078e-06
-3.91211e-07
1.28405e-06
-9.46285e-06
-3.40329e-06
-5.99826e-07
2.33889e-06
-4.73059e-06
-5.91127e-07
2.52622e-06
-6.13639e-06
-5.85149e-07
2.63732e-06
-7.54139e-06
-5.62815e-07
2.61696e-06
-8.83163e-06