/*--------------------------------*- C++ -*----------------------------------*\
| =========                 |                                                 |
| \\      /  F ield         | OpenFOAM: The Open Source CFD Toolbox           |
|  \\    /   O peration     | Version:  plus.master                           |
|   \\  /    A nd           | Web:      www.OpenFOAM.com                      |
|    \\/     M anipulation  |                                                 |
\*---------------------------------------------------------------------------*/
FoamFile
{
    version     2.0;
    format      ascii;
    class       volScalarField;
    location    "8";
    object      p_rgh;
}
// * * * * * * * * * * * * * * * * * * * * * * * * * * * * * * * * * * * * * //

dimensions      [1 -1 -2 0 0 0 0];

internalField   nonuniform List<scalar> 
47285
(
5718.44
5721.32
5721.72
5722.15
5721.75
5720.78
5717.92
5721.28
5698.31
5707.3
5711.21
5700.7
5700.44
5720.46
5722.12
5701.96
5676.1
5675.3
5676.59
5710.52
5721.13
5722.56
5712.63
5676.01
5671.5
5675.53
5714.45
5721.83
5722.19
5703.72
5676.19
5674.87
5676.77
5711.3
5721.33
5721.43
5698.44
5705.92
5710.39
5699.67
5700.49
5720.86
5718.56
5720.96
5721.59
5721.89
5721.57
5720.74
5717.64
5714.76
5717.49
5719.27
5719.8
5718.84
5716.77
5714.25
5717.39
5705.04
5720.38
5712.56
5707.13
5716
5716.82
5719.58
5693.14
5593.57
5572.58
5612.82
5725.11
5718.71
5720.23
5707.66
5574.83
5557.58
5588.15
5726.75
5719.51
5719.69
5697.15
5590.35
5569.09
5608.58
5725.27
5718.75
5717.52
5697.71
5713.94
5705.38
5698.98
5717.4
5716.89
5714.87
5717.65
5719.61
5720.16
5719.08
5716.9
5714.32
5702.75
5703.66
5704.27
5704.51
5704.17
5703.63
5702.91
5703.35
5704.56
5691.9
5669.48
5705.81
5705.02
5703.93
5703.69
5658.8
5471.06
5430.68
5549.57
5706.26
5704.87
5703.85
5653.04
5432.76
5407.44
5490.84
5706.99
5705.35
5703.78
5656.97
5464.23
5424.21
5534.07
5706.47
5704.95
5703.4
5703.33
5680.88
5655.03
5695.75
5705.08
5704
5702.82
5703.72
5704.4
5704.66
5704.23
5703.69
5702.97
5684.71
5683.12
5681.43
5681.19
5682.25
5683.88
5685.48
5682.52
5678.97
5641.19
5585.75
5677.74
5681.51
5684.39
5679.85
5604.97
5308.81
5263.76
5475.98
5678.79
5683.53
5678.85
5514.76
5265.45
5246.97
5408.08
5677.65
5683.25
5679.71
5594.79
5299.61
5257.45
5441.15
5678.76
5683.64
5682.38
5678.58
5620.95
5556.99
5677.51
5681.5
5684.51
5684.68
5682.91
5681.07
5680.92
5682.07
5683.89
5685.58
5657.85
5655.11
5652.51
5652.1
5653.76
5656.29
5658.87
5654.63
5648.97
5607.84
5534.69
5646.98
5652.32
5656.76
5651.2
5576.26
5139.19
5109.3
5459.66
5648.19
5655.06
5650.07
5417.85
5093.96
5093.32
5392.19
5645.85
5654.22
5650.85
5555
5123.86
5101.25
5397.62
5647.73
5654.96
5654.26
5648.14
5577.48
5491.59
5646.17
5651.87
5656.61
5657.61
5654.56
5651.65
5651.33
5653.15
5655.92
5658.68
5715.8
5714.53
5713.13
5711.87
5710.8
5709.89
5709.12
5708.47
5717.53
5716.13
5714.05
5712.46
5711.18
5710.12
5709.24
5708.54
5718.23
5717.09
5714.72
5712.85
5711.4
5710.24
5709.31
5708.58
5718.79
5717.4
5715
5713.04
5711.53
5710.33
5709.3
5708.48
5718.26
5716.96
5714.72
5712.84
5711.38
5710.22
5709.28
5708.53
5717.45
5715.98
5714.06
5712.42
5711.14
5710.08
5709.18
5708.46
5715.77
5714.55
5713.13
5711.85
5710.78
5709.87
5709.09
5708.43
5712.22
5710.76
5709.58
5708.63
5707.88
5707.28
5706.8
5706.43
5713.76
5711.74
5710.2
5709.03
5708.14
5707.44
5706.9
5706.5
5714.97
5712.51
5710.67
5709.32
5708.3
5707.54
5706.95
5706.51
5715.54
5712.87
5710.89
5709.45
5708.38
5707.58
5706.97
5706.51
5715.02
5712.54
5710.68
5709.31
5708.29
5707.51
5706.92
5706.47
5713.81
5711.76
5710.21
5709.02
5708.11
5707.4
5706.85
5706.44
5712.26
5710.79
5709.59
5708.62
5707.85
5707.24
5706.75
5706.36
5702.35
5701.9
5701.6
5701.4
5701.28
5701.24
5701.26
5701.38
5702.97
5702.32
5701.87
5701.57
5701.39
5701.31
5701.33
5701.45
5703.56
5702.66
5702.04
5701.66
5701.43
5701.32
5701.33
5701.47
5703.87
5702.84
5702.14
5701.71
5701.46
5701.34
5701.34
5701.47
5703.62
5702.69
5702.06
5701.66
5701.43
5701.32
5701.32
5701.44
5703
5702.32
5701.86
5701.56
5701.38
5701.3
5701.3
5701.41
5702.38
5701.92
5701.61
5701.4
5701.28
5701.23
5701.25
5701.36
5686.82
5687.76
5688.79
5689.88
5691.09
5692.5
5694.17
5696.12
5686.17
5687.36
5688.47
5689.59
5690.82
5692.27
5694.03
5696.12
5685.75
5687.05
5688.2
5689.35
5690.6
5692.08
5693.9
5696.06
5685.65
5687.01
5688.17
5689.33
5690.59
5692.08
5693.9
5696.07
5685.87
5687.16
5688.29
5689.44
5690.69
5692.16
5693.96
5696.11
5686.28
5687.47
5688.57
5689.68
5690.9
5692.35
5694.1
5696.17
5686.9
5687.84
5688.88
5689.98
5691.19
5692.6
5694.27
5696.2
5661.01
5662.34
5663.51
5664.5
5665.23
5665.36
5664.72
5665.31
5659.84
5661.73
5663.17
5664.3
5665.14
5665.34
5664.62
5665.06
5658.87
5661.14
5662.81
5664.09
5665.03
5665.28
5664.52
5664.87
5658.49
5660.94
5662.73
5664.09
5665.07
5665.34
5664.57
5664.88
5658.87
5661.15
5662.84
5664.14
5665.09
5665.34
5664.59
5664.93
5659.76
5661.67
5663.13
5664.29
5665.15
5665.38
5664.68
5665.09
5660.86
5662.2
5663.39
5664.41
5665.18
5665.36
5664.75
5665.31
5716.6
5714.95
5713.44
5712.11
5710.96
5710
5709.18
5708.49
5718.47
5716.3
5714.31
5712.68
5711.31
5710.14
5709.19
5708.39
5719.55
5717.36
5714.94
5713.11
5711.61
5710.36
5709.36
5708.53
5719.84
5717.61
5715.14
5713.31
5711.83
5710.59
5709.56
5708.72
5719.47
5717.21
5714.83
5713.03
5711.53
5710.26
5709.17
5708.34
5718.26
5716.15
5714.2
5712.55
5711.19
5710.08
5709.13
5708.33
5716.49
5714.88
5713.36
5712.04
5710.92
5709.96
5709.16
5708.48
5712.73
5711.13
5709.83
5708.77
5707.92
5707.23
5706.69
5706.26
5714.35
5712.17
5710.49
5709.19
5708.16
5707.35
5706.71
5706.2
5715.67
5713.07
5711.1
5709.61
5708.46
5707.55
5706.84
5706.29
5716.07
5713.37
5711.32
5709.8
5708.65
5707.76
5707.05
5706.48
5715.57
5712.94
5710.97
5709.49
5708.36
5707.47
5706.76
5706.2
5714.25
5712.07
5710.4
5709.1
5708.09
5707.29
5706.66
5706.17
5712.63
5711.04
5709.75
5708.7
5707.85
5707.17
5706.63
5706.2
5702.19
5701.74
5701.44
5701.24
5701.12
5701.07
5701.08
5701.16
5702.56
5701.96
5701.51
5701.22
5701.04
5700.95
5700.94
5701.02
5702.93
5702.26
5701.72
5701.35
5701.11
5700.99
5700.98
5701.04
5703
5702.35
5701.81
5701.44
5701.22
5701.11
5701.12
5701.21
5702.82
5702.12
5701.58
5701.22
5700.99
5700.87
5700.84
5700.91
5702.49
5701.87
5701.43
5701.15
5700.98
5700.91
5700.92
5701.02
5702.11
5701.65
5701.35
5701.15
5701.04
5700.99
5701
5701.09
5685.92
5687.04
5688.2
5689.41
5690.69
5692.12
5693.78
5695.67
5684.67
5686.13
5687.37
5688.6
5689.91
5691.38
5693.12
5695.15
5683.59
5685.61
5686.95
5688.2
5689.53
5691.01
5692.76
5694.8
5683.21
5685.53
5686.96
5688.2
5689.53
5691.06
5692.87
5694.93
5683.57
5685.5
5686.84
5688.1
5689.43
5690.94
5692.71
5694.77
5684.69
5686.11
5687.35
5688.61
5689.94
5691.42
5693.18
5695.22
5685.9
5686.99
5688.16
5689.36
5690.65
5692.09
5693.77
5695.69
5659.89
5661.67
5663.22
5664.54
5665.56
5665.95
5665.59
5666.36
5657.89
5660.26
5662.08
5663.23
5664.27
5664.92
5664.94
5665.63
5656.36
5659.3
5661.33
5662.99
5664.34
5664.95
5662.34
5662.51
5655.97
5659.15
5661.15
5662.8
5664.18
5664.84
5664.63
5666.05
5656.47
5659.33
5661.33
5662.98
5664.32
5664.97
5664.74
5665.93
5658.08
5660.39
5662.21
5663.72
5664.9
5665.41
5665.06
5665.88
5660.05
5661.8
5663.33
5664.62
5665.61
5665.98
5665.58
5666.35
5716.45
5714.9
5713.4
5712.08
5710.95
5709.98
5709.17
5708.48
5718.18
5716.26
5714.32
5712.71
5711.34
5710.21
5709.3
5708.49
5719.17
5717.29
5714.92
5713.18
5711.77
5710.61
5709.61
5708.76
5719.67
5717.55
5715.07
5713.26
5711.77
5710.56
5709.58
5708.77
5719.19
5717.15
5714.74
5712.94
5711.46
5710.27
5709.31
5708.46
5718.28
5716.27
5714.18
5712.56
5711.22
5710.11
5709.18
5708.41
5716.16
5714.58
5713.11
5711.86
5710.82
5709.94
5709.21
5708.61
5712.66
5711.11
5709.82
5708.78
5707.94
5707.26
5706.71
5706.29
5714.32
5712.22
5710.58
5709.31
5708.3
5707.51
5706.87
5706.37
5715.47
5713
5711.11
5709.7
5708.62
5707.78
5707.13
5706.61
5715.79
5713.18
5711.21
5709.75
5708.63
5707.77
5707.1
5706.57
5715.15
5712.69
5710.83
5709.43
5708.36
5707.52
5706.87
5706.37
5713.83
5711.82
5710.26
5709.06
5708.12
5707.38
5706.79
5706.33
5712.28
5710.82
5709.63
5708.66
5707.89
5707.27
5706.78
5706.4
5702.2
5701.76
5701.45
5701.25
5701.13
5701.08
5701.1
5701.19
5702.79
5702.2
5701.75
5701.44
5701.25
5701.15
5701.14
5701.23
5703.28
5702.57
5702.01
5701.63
5701.41
5701.31
5701.31
5701.41
5703.42
5702.63
5702.01
5701.59
5701.33
5701.21
5701.21
5701.3
5703.14
5702.37
5701.8
5701.43
5701.2
5701.08
5701.08
5701.17
5702.69
5702.08
5701.64
5701.35
5701.17
5701.08
5701.08
5701.18
5702.32
5701.91
5701.6
5701.38
5701.24
5701.19
5701.2
5701.31
5686.04
5687.12
5688.25
5689.46
5690.74
5692.19
5693.88
5695.82
5685.2
5686.56
5687.72
5688.91
5690.21
5691.72
5693.48
5695.55
5684.62
5686.32
5687.51
5688.68
5689.99
5691.52
5693.35
5695.51
5684.5
5686.24
5687.39
5688.52
5689.8
5691.3
5693.13
5695.27
5684.76
5686.22
5687.39
5688.56
5689.84
5691.34
5693.15
5695.3
5685.48
5686.74
5687.87
5689.01
5690.24
5691.62
5693.36
5695.51
5686.71
5687.76
5688.79
5689.85
5691.02
5692.41
5694.05
5695.97
5660.09
5661.81
5663.32
5664.58
5665.56
5665.92
5665.52
5666.3
5658.5
5660.69
5662.42
5663.94
5665.09
5665.58
5665.19
5666.01
5657.36
5659.97
5661.83
5663.37
5664.59
5665.12
5664.67
5665.48
5657.17
5659.87
5661.67
5663.17
5664.09
5664.14
5663.74
5664.93
5657.71
5660.11
5661.88
5663.31
5663.91
5664.15
5663.68
5664.67
5659.1
5661.14
5662.7
5663.93
5664.36
5664.47
5664.46
5665.48
5661.01
5662.49
5663.66
5664.57
5665.27
5665.44
5664.84
5665.51
5716.13
5714.68
5713.17
5711.88
5710.8
5709.91
5709.17
5708.53
5718.25
5716.23
5714.17
5712.56
5711.21
5710.09
5709.17
5708.4
5719.51
5717.51
5714.86
5713.05
5711.57
5710.35
5709.32
5708.45
5719.45
5717.75
5715.13
5713.29
5711.81
5710.61
5709.63
5708.81
5719.12
5717.41
5714.95
5713.16
5711.7
5710.5
5709.51
5708.67
5718.11
5716.44
5714.41
5712.76
5711.42
5710.3
5709.35
5708.55
5716.52
5715.01
5713.47
5712.13
5710.99
5710.02
5709.2
5708.5
5712.33
5710.85
5709.64
5708.65
5707.86
5707.22
5706.72
5706.32
5713.94
5711.89
5710.31
5709.08
5708.12
5707.35
5706.74
5706.26
5715.31
5712.82
5710.93
5709.51
5708.41
5707.55
5706.87
5706.33
5715.98
5713.32
5711.31
5709.82
5708.68
5707.8
5707.12
5706.58
5715.65
5713.13
5711.2
5709.76
5708.65
5707.78
5707.09
5706.54
5714.45
5712.31
5710.64
5709.34
5708.32
5707.51
5706.87
5706.36
5712.76
5711.17
5709.87
5708.81
5707.97
5707.28
5706.74
5706.31
5702.37
5701.94
5701.62
5701.4
5701.25
5701.19
5701.19
5701.28
5702.77
5702.15
5701.7
5701.39
5701.2
5701.09
5701.08
5701.17
5703.22
5702.47
5701.91
5701.51
5701.26
5701.12
5701.09
5701.15
5703.53
5702.77
5702.17
5701.75
5701.5
5701.37
5701.36
5701.44
5703.4
5702.69
5702.13
5701.73
5701.47
5701.34
5701.3
5701.36
5702.89
5702.28
5701.81
5701.5
5701.3
5701.21
5701.2
5701.29
5702.27
5701.81
5701.51
5701.31
5701.2
5701.15
5701.16
5701.24
5686.75
5687.79
5688.83
5689.9
5691.08
5692.45
5694.09
5695.99
5685.52
5686.77
5687.89
5689.01
5690.24
5691.66
5693.38
5695.43
5684.74
5686.27
5687.43
5688.58
5689.84
5691.31
5693.09
5695.17
5684.41
5686.31
5687.51
5688.63
5689.89
5691.38
5693.18
5695.29
5684.49
5686.3
5687.51
5688.66
5689.94
5691.45
5693.26
5695.39
5685.12
5686.52
5687.69
5688.9
5690.21
5691.71
5693.48
5695.56
5686.02
5687.11
5688.28
5689.49
5690.79
5692.24
5693.93
5695.84
5660.8
5662.32
5663.52
5664.51
5665.24
5665.41
5664.83
5665.46
5658.75
5660.81
5662.38
5663.65
5664.64
5665.01
5664.55
5665.31
5657.31
5659.78
5661.55
5663
5664.19
5664.73
5664.39
5665.51
5656.64
5659.54
5661.39
5662.89
5664.15
5664.75
5664.48
5665.78
5656.84
5659.65
5661.55
5663.12
5664.4
5665.03
5664.77
5665.89
5658.13
5660.45
5662.25
5663.77
5664.97
5665.52
5665.19
5665.99
5659.9
5661.66
5663.22
5664.55
5665.59
5666.02
5665.67
5666.42
5707.95
5708.01
5708.03
5707.93
5707.96
5707.93
5707.88
5706.18
5706.23
5706.25
5706.24
5706.2
5706.16
5706.09
5701.61
5701.7
5701.74
5701.73
5701.7
5701.66
5701.59
5698.07
5698.15
5698.13
5698.15
5698.16
5698.15
5698.08
5671.66
5671.67
5671.66
5671.71
5671.66
5671.6
5671.53
5707.9
5707.76
5707.86
5708.11
5707.71
5707.7
5707.91
5705.92
5705.83
5705.9
5706.09
5705.81
5705.81
5705.88
5701.35
5701.2
5701.21
5701.4
5701.08
5701.22
5701.29
5697.48
5697.09
5696.61
5696.76
5696.71
5697.18
5697.55
5672.56
5672.38
5670.65
5674.48
5673.72
5672.64
5672.58
5707.88
5707.87
5708.11
5708.16
5707.81
5707.82
5708.09
5705.95
5706
5706.23
5706.19
5706.01
5706.01
5706.13
5701.39
5701.42
5701.61
5701.5
5701.37
5701.4
5701.54
5697.7
5697.57
5697.55
5697.23
5697.35
5697.55
5697.91
5672.6
5672.81
5672.93
5673.15
5672.4
5672.45
5671.94
5707.99
5707.81
5707.79
5708.19
5708.02
5707.92
5707.9
5706.02
5705.92
5705.95
5706.2
5706.15
5705.99
5705.97
5701.49
5701.36
5701.31
5701.63
5701.52
5701.47
5701.44
5697.85
5697.42
5697.15
5697.22
5697.38
5697.52
5697.66
5671.74
5672.22
5673.35
5674.11
5673.54
5672.69
5672.59
5707.2
5706.41
5705.86
5705.48
5705.2
5704.99
5704.83
5704.69
5707.28
5706.51
5705.95
5705.55
5705.26
5705.04
5704.86
5704.71
5707.27
5706.53
5705.97
5705.56
5705.26
5705.04
5704.86
5704.7
5707.17
5706.43
5705.94
5705.56
5705.26
5705.01
5704.84
5704.69
5707.2
5706.45
5705.9
5705.49
5705.2
5704.98
5704.81
5704.66
5707.18
5706.42
5705.86
5705.45
5705.16
5704.94
5704.77
5704.62
5707.08
5706.28
5705.73
5705.33
5705.05
5704.84
5704.67
5704.53
5705.82
5705.36
5705.02
5704.78
5704.61
5704.49
5704.4
5704.32
5705.89
5705.44
5705.1
5704.85
5704.68
5704.55
5704.46
5704.37
5705.92
5705.47
5705.13
5704.88
5704.7
5704.57
5704.47
5704.38
5705.91
5705.48
5705.14
5704.89
5704.7
5704.56
5704.46
5704.37
5705.85
5705.41
5705.07
5704.82
5704.64
5704.52
5704.42
5704.33
5705.8
5705.34
5704.99
5704.75
5704.57
5704.45
5704.35
5704.27
5705.69
5705.21
5704.86
5704.62
5704.44
5704.32
5704.23
5704.16
5702.04
5702.6
5703.04
5703.36
5703.58
5703.72
5703.8
5703.85
5702.13
5702.7
5703.14
5703.45
5703.66
5703.79
5703.87
5703.91
5702.19
5702.73
5703.16
5703.47
5703.67
5703.81
5703.88
5703.92
5702.18
5702.72
5703.15
5703.46
5703.67
5703.8
5703.88
5703.91
5702.12
5702.69
5703.12
5703.42
5703.63
5703.76
5703.84
5703.87
5702.09
5702.64
5703.06
5703.36
5703.56
5703.69
5703.76
5703.8
5702.03
5702.55
5702.95
5703.23
5703.42
5703.54
5703.63
5703.67
5700.3
5701.21
5701.85
5702.34
5702.71
5702.99
5703.18
5703.32
5700.38
5701.28
5701.91
5702.4
5702.77
5703.04
5703.24
5703.38
5700.33
5701.27
5701.91
5702.41
5702.78
5703.05
5703.25
5703.39
5700.34
5701.26
5701.9
5702.4
5702.77
5703.05
5703.25
5703.38
5700.36
5701.23
5701.86
5702.35
5702.72
5703
5703.2
5703.34
5700.32
5701.16
5701.78
5702.26
5702.63
5702.91
5703.12
5703.26
5700.18
5701.03
5701.64
5702.12
5702.49
5702.76
5702.97
5703.12
5685.23
5693.7
5697.79
5700
5701.27
5702.03
5702.51
5702.8
5685.18
5693.69
5697.8
5700.02
5701.3
5702.07
5702.55
5702.85
5685.13
5693.66
5697.79
5700.02
5701.31
5702.08
5702.56
5702.86
5685.13
5693.66
5697.79
5700.02
5701.3
5702.08
5702.56
5702.85
5685.11
5693.63
5697.76
5699.98
5701.26
5702.03
5702.51
5702.81
5685.1
5693.61
5697.72
5699.94
5701.21
5701.98
5702.45
5702.75
5685.1
5693.58
5697.67
5699.86
5701.11
5701.86
5702.33
5702.62
5707.03
5706.18
5705.57
5705.13
5704.82
5704.6
5704.43
5704.3
5706.89
5706.03
5705.4
5704.94
5704.6
5704.36
5704.17
5704.02
5706.96
5706.04
5705.35
5704.84
5704.46
5704.19
5703.98
5703.8
5707.28
5706.39
5705.69
5705.14
5704.71
5704.4
5704.18
5704
5706.81
5705.91
5705.24
5704.75
5704.38
5704.13
5703.94
5703.77
5706.85
5706.01
5705.41
5704.96
5704.64
5704.4
5704.22
5704.06
5707.02
5706.17
5705.58
5705.16
5704.85
5704.63
5704.46
5704.33
5705.41
5704.87
5704.48
5704.2
5704.01
5703.89
5703.81
5703.75
5705.33
5704.83
5704.42
5704.12
5703.88
5703.72
5703.64
5703.58
5705.38
5704.83
5704.41
5704.09
5703.85
5703.66
5703.53
5703.42
5705.56
5705
5704.59
5704.28
5704.04
5703.85
5703.72
5703.62
5705.29
5704.74
5704.33
5704.03
5703.8
5703.62
5703.49
5703.39
5705.33
5704.84
5704.46
5704.17
5703.96
5703.81
5703.7
5703.62
5705.41
5704.89
5704.52
5704.25
5704.07
5703.95
5703.87
5703.8
5701.74
5702.14
5702.47
5702.73
5702.91
5703.03
5703.13
5703.19
5701.54
5701.88
5702.21
5702.28
5702.19
5702.57
5702.97
5703.04
5701.53
5701.87
5702.17
5702.39
5702.51
5702.6
5702.73
5702.82
5701.74
5702.13
5702.46
5702.7
5702.85
5702.96
5703.02
5703.05
5701.42
5701.76
5702.05
5702.29
5702.46
5702.58
5702.66
5702.72
5701.58
5701.97
5702.31
5702.57
5702.68
5702.74
5702.93
5703.08
5701.7
5702.16
5702.52
5702.79
5702.98
5703.11
5703.2
5703.26
5699.48
5700.37
5701.01
5701.53
5701.92
5702.23
5702.46
5702.63
5699.24
5700.11
5700.11
5700.58
5700.97
5701.65
5702.34
5702.5
5698.79
5700.03
5700.87
5701.42
5701.76
5701.99
5702.21
5702.41
5698.93
5700.26
5701.03
5701.55
5701.92
5702.19
5702.38
5702.5
5699.04
5700
5700.47
5700.96
5701.5
5701.87
5702.14
5702.33
5699.29
5700.22
5700.86
5701.27
5701.34
5701.51
5702.29
5702.52
5699.62
5700.51
5701.16
5701.66
5702.05
5702.34
5702.56
5702.72
5685.64
5693.66
5697.51
5699.56
5700.73
5701.45
5701.92
5702.21
5685.38
5693.27
5696.86
5698.43
5699.54
5700.82
5701.61
5702.04
5683.35
5690.96
5695.89
5698.89
5700.41
5701.11
5701.38
5701.81
5687.08
5694.41
5698.02
5699.83
5700.75
5701.43
5701.81
5701.99
5686.23
5691.55
5694.56
5696.43
5697.43
5700.02
5701.61
5701.51
5685.47
5693.31
5697.08
5698.93
5699.84
5700.49
5701.54
5702.04
5685.66
5693.69
5697.55
5699.63
5700.82
5701.54
5701.99
5702.29
5707
5706.15
5705.56
5705.15
5704.87
5704.66
5704.52
5704.39
5707.04
5706.2
5705.62
5705.18
5704.83
5704.57
5704.39
5704.25
5707.23
5706.34
5705.69
5705.21
5704.84
5704.56
5704.34
5704.15
5707.35
5706.49
5705.84
5705.33
5704.94
5704.63
5704.4
5704.23
5706.95
5706.1
5705.51
5705.08
5704.76
5704.5
5704.29
5704.13
5707.02
5706.26
5705.73
5705.3
5704.98
5704.73
5704.56
5704.42
5707.28
5706.47
5705.89
5705.46
5705.15
5704.93
5704.76
5704.62
5705.48
5704.97
5704.6
5704.34
5704.16
5704.05
5703.97
5703.91
5705.52
5705.04
5704.68
5704.39
5704.18
5704.02
5703.92
5703.84
5705.72
5705.19
5704.8
5704.51
5704.28
5704.11
5703.96
5703.83
5705.69
5705.17
5704.78
5704.48
5704.26
5704.08
5703.95
5703.85
5705.54
5705.05
5704.69
5704.42
5704.21
5704.04
5703.9
5703.79
5705.59
5705.17
5704.82
5704.56
5704.36
5704.22
5704.11
5704.03
5705.77
5705.29
5704.94
5704.69
5704.52
5704.4
5704.31
5704.23
5701.76
5702.25
5702.64
5702.93
5703.13
5703.26
5703.35
5703.41
5701.8
5702.21
5702.59
5702.87
5703.07
5703.21
5703.29
5703.33
5701.99
5702.44
5702.83
5703.11
5703.29
5703.4
5703.45
5703.42
5701.88
5702.31
5702.65
5702.91
5703.09
5703.2
5703.27
5703.3
5701.76
5702.22
5702.61
5702.9
5703.11
5703.25
5703.34
5703.37
5701.8
5702.24
5702.69
5703.02
5703.25
5703.4
5703.5
5703.54
5701.93
5702.48
5702.92
5703.25
5703.47
5703.62
5703.71
5703.76
5699.83
5700.72
5701.36
5701.86
5702.24
5702.52
5702.73
5702.89
5699.81
5700.82
5701.47
5701.96
5702.32
5702.58
5702.76
5702.85
5700.01
5701.17
5701.83
5702.29
5702.61
5702.84
5703.01
5702.9
5699.56
5700.92
5701.76
5702.28
5702.62
5702.83
5702.97
5703.04
5699.81
5701.01
5701.72
5702.2
5702.54
5702.78
5702.95
5703.05
5699.88
5700.99
5701.67
5702.17
5702.54
5702.79
5702.98
5703.1
5700.13
5701.12
5701.78
5702.28
5702.65
5702.92
5703.12
5703.25
5685.73
5693.78
5697.66
5699.75
5700.95
5701.68
5702.14
5702.43
5685.84
5693.86
5697.74
5699.84
5701.05
5701.78
5702.23
5702.51
5685.97
5693.97
5697.87
5699.98
5701.19
5701.93
5702.4
5702.71
5686.08
5694.15
5697.84
5700.05
5701.31
5702.06
5702.51
5702.75
5685.54
5693.87
5697.75
5699.94
5701.17
5701.92
5702.39
5702.68
5685.63
5693.76
5697.78
5699.94
5701.17
5701.93
5702.39
5702.67
5685.4
5693.75
5697.79
5699.97
5701.23
5701.99
5702.46
5702.76
5707.15
5706.32
5705.71
5705.26
5704.93
5704.69
5704.52
5704.38
5706.98
5706.13
5705.51
5705.03
5704.68
5704.4
5704.2
5704.05
5706.92
5706.02
5705.37
5704.89
5704.54
5704.26
5704.05
5703.88
5707.35
5706.44
5705.75
5705.22
5704.81
5704.5
5704.27
5704.1
5707.15
5706.23
5705.53
5705.01
5704.62
5704.32
5704.08
5703.9
5707.06
5706.18
5705.53
5705.05
5704.69
5704.42
5704.21
5704.05
5707.02
5706.16
5705.55
5705.12
5704.81
5704.6
5704.44
5704.31
5705.6
5705.1
5704.73
5704.46
5704.27
5704.13
5704.04
5703.97
5705.45
5704.96
5704.57
5704.26
5704.03
5703.86
5703.73
5703.65
5705.43
5704.89
5704.48
5704.16
5703.92
5703.74
5703.61
5703.5
5705.68
5705.14
5704.72
5704.4
5704.16
5703.97
5703.84
5703.74
5705.61
5705.04
5704.6
5704.25
5703.99
5703.79
5703.64
5703.52
5705.49
5704.98
5704.56
5704.25
5704.01
5703.84
5703.69
5703.52
5705.46
5704.91
5704.51
5704.23
5704.04
5703.91
5703.83
5703.77
5701.87
5702.36
5702.74
5703
5703.19
5703.31
5703.39
5703.45
5701.73
5702.09
5702.43
5702.68
5702.85
5702.87
5702.69
5702.89
5701.65
5702
5702.29
5702.5
5702.65
5702.76
5702.74
5702.68
5701.97
5702.34
5702.64
5702.86
5703
5703.09
5703.16
5703.18
5701.84
5702.19
5702.46
5702.65
5702.77
5702.85
5702.83
5702.73
5701.82
5702.18
5702.51
5702.74
5702.9
5702.94
5702.81
5702.88
5701.83
5702.24
5702.56
5702.8
5702.97
5703.08
5703.17
5703.22
5699.96
5700.83
5701.44
5701.9
5702.26
5702.53
5702.74
5702.9
5699.62
5700.6
5701.2
5701.65
5701.96
5701.55
5701.3
5702.1
5699.51
5700.63
5701.2
5701.57
5701.88
5702.1
5702.09
5702.07
5699.47
5700.66
5701.36
5701.83
5702.14
5702.37
5702.55
5702.67
5699.74
5700.79
5701.37
5701.71
5701.94
5702.18
5702.38
5702.44
5699.63
5700.55
5701.16
5701.63
5701.96
5701.95
5702.08
5702.26
5699.65
5700.5
5701.13
5701.62
5702
5702.29
5702.51
5702.67
5685.22
5693.59
5697.61
5699.75
5700.96
5701.67
5702.13
5702.43
5685.54
5693.72
5697.64
5699.69
5700.45
5700.06
5700.41
5701.12
5686.32
5694.17
5697.94
5699.02
5699.1
5700.44
5701.66
5701.9
5686.97
5694.59
5698.18
5699.71
5700.63
5701.58
5701.95
5702.24
5686.37
5694.22
5698.01
5699.63
5698.68
5699.27
5699.81
5702.18
5685.77
5693.79
5697.63
5699.65
5700.66
5701.14
5701.4
5701.81
5685.7
5693.74
5697.6
5699.66
5700.83
5701.54
5701.98
5702.26
5704.59
5704.52
5704.46
5704.41
5704.36
5704.33
5704.31
5704.3
5704.61
5704.54
5704.48
5704.42
5704.38
5704.35
5704.33
5704.32
5704.6
5704.53
5704.47
5704.42
5704.38
5704.35
5704.33
5704.32
5704.59
5704.52
5704.46
5704.41
5704.37
5704.34
5704.32
5704.31
5704.56
5704.49
5704.43
5704.38
5704.34
5704.31
5704.29
5704.28
5704.52
5704.45
5704.39
5704.34
5704.3
5704.26
5704.25
5704.24
5704.44
5704.37
5704.31
5704.26
5704.22
5704.18
5704.16
5704.16
5704.27
5704.24
5704.21
5704.18
5704.16
5704.14
5704.13
5704.12
5704.32
5704.28
5704.25
5704.22
5704.2
5704.18
5704.16
5704.16
5704.32
5704.28
5704.25
5704.23
5704.2
5704.18
5704.17
5704.16
5704.31
5704.28
5704.24
5704.22
5704.19
5704.17
5704.16
5704.15
5704.28
5704.24
5704.21
5704.18
5704.16
5704.14
5704.13
5704.12
5704.22
5704.19
5704.16
5704.13
5704.11
5704.09
5704.08
5704.07
5704.11
5704.08
5704.05
5704.03
5704.01
5704
5703.98
5703.98
5703.86
5703.87
5703.88
5703.89
5703.89
5703.88
5703.88
5703.88
5703.92
5703.93
5703.94
5703.94
5703.94
5703.93
5703.93
5703.92
5703.93
5703.94
5703.95
5703.95
5703.94
5703.94
5703.94
5703.93
5703.93
5703.94
5703.94
5703.94
5703.94
5703.93
5703.93
5703.93
5703.89
5703.9
5703.9
5703.9
5703.9
5703.9
5703.9
5703.89
5703.82
5703.83
5703.84
5703.85
5703.85
5703.84
5703.84
5703.84
5703.7
5703.71
5703.73
5703.73
5703.74
5703.74
5703.74
5703.73
5703.4
5703.45
5703.48
5703.51
5703.53
5703.54
5703.55
5703.55
5703.46
5703.51
5703.54
5703.57
5703.59
5703.6
5703.6
5703.6
5703.47
5703.51
5703.55
5703.58
5703.6
5703.61
5703.61
5703.61
5703.46
5703.51
5703.55
5703.58
5703.6
5703.61
5703.61
5703.61
5703.42
5703.47
5703.51
5703.54
5703.56
5703.57
5703.57
5703.57
5703.35
5703.4
5703.44
5703.47
5703.5
5703.51
5703.51
5703.51
5703.21
5703.27
5703.32
5703.35
5703.37
5703.39
5703.4
5703.4
5702.96
5703.05
5703.12
5703.17
5703.21
5703.23
5703.25
5703.25
5703.01
5703.1
5703.17
5703.22
5703.26
5703.28
5703.3
5703.3
5703.01
5703.11
5703.18
5703.23
5703.27
5703.29
5703.31
5703.31
5703.01
5703.11
5703.18
5703.23
5703.27
5703.29
5703.31
5703.31
5702.97
5703.07
5703.14
5703.19
5703.23
5703.25
5703.27
5703.27
5702.91
5703.01
5703.08
5703.14
5703.17
5703.2
5703.21
5703.22
5702.78
5702.88
5702.96
5703.01
5703.05
5703.08
5703.09
5703.1
5704.22
5704.16
5704.1
5704.05
5704
5703.95
5703.92
5703.91
5703.93
5703.87
5703.81
5703.77
5703.73
5703.7
5703.68
5703.67
5703.7
5703.63
5703.58
5703.54
5703.51
5703.5
5703.49
5703.49
5703.9
5703.84
5703.8
5703.77
5703.75
5703.73
5703.71
5703.72
5703.67
5703.61
5703.57
5703.53
5703.51
5703.5
5703.49
5703.49
5703.97
5703.91
5703.85
5703.8
5703.76
5703.73
5703.72
5703.7
5704.24
5704.18
5704.12
5704.07
5704.02
5703.98
5703.95
5703.93
5703.71
5703.69
5703.68
5703.66
5703.65
5703.63
5703.62
5703.62
5703.54
5703.52
5703.5
5703.48
5703.47
5703.46
5703.41
5703.38
5703.36
5703.32
5703.29
5703.27
5703.25
5703.25
5703.24
5703.17
5703.56
5703.53
5703.5
5703.48
5703.47
5703.46
5703.46
5703.44
5703.33
5703.29
5703.26
5703.25
5703.24
5703.24
5703.22
5703.17
5703.58
5703.56
5703.54
5703.52
5703.51
5703.5
5703.46
5703.43
5703.76
5703.74
5703.72
5703.71
5703.69
5703.68
5703.67
5703.66
5703.22
5703.25
5703.27
5703.28
5703.29
5703.3
5703.3
5703.3
5703.09
5703.11
5703.14
5703.16
5703.18
5703.19
5703.2
5703.2
5702.85
5702.86
5702.86
5702.87
5702.88
5702.88
5702.84
5702.74
5703.07
5703.09
5703.11
5703.12
5703.13
5703.14
5703.14
5703.05
5702.76
5702.81
5702.84
5702.85
5702.86
5702.87
5702.83
5702.74
5703.12
5703.15
5703.17
5703.19
5703.2
5703.22
5703.23
5703.23
5703.29
5703.32
5703.33
5703.35
5703.35
5703.36
5703.36
5703.36
5702.73
5702.79
5702.85
5702.88
5702.91
5702.93
5702.94
5702.94
5702.6
5702.66
5702.72
5702.76
5702.78
5702.8
5702.81
5702.83
5702.49
5702.54
5702.57
5702.59
5702.6
5702.61
5702.51
5702.4
5702.56
5702.62
5702.68
5702.71
5702.74
5702.76
5702.76
5702.63
5702.41
5702.47
5702.52
5702.55
5702.57
5702.58
5702.55
5702.45
5702.62
5702.68
5702.73
5702.77
5702.8
5702.83
5702.84
5702.85
5702.82
5702.88
5702.93
5702.96
5702.99
5703
5703.01
5703.02
5702.37
5702.47
5702.55
5702.6
5702.64
5702.67
5702.68
5702.69
5702.2
5702.3
5702.39
5702.44
5702.43
5702.39
5702.44
5702.51
5702.21
5702.29
5702.35
5702.4
5702.45
5702.47
5702.42
5702.34
5702.06
5702.22
5702.34
5702.39
5702.43
5702.46
5702.46
5702.36
5701.63
5701.82
5702.3
5702.35
5702.36
5702.38
5702.38
5702.38
5702.2
5702.3
5702.39
5702.44
5702.42
5702.42
5702.5
5702.53
5702.45
5702.55
5702.62
5702.67
5702.71
5702.74
5702.76
5702.76
5704.31
5704.25
5704.19
5704.14
5704.09
5704.05
5704.02
5704.01
5704.16
5704.1
5704.06
5704.01
5703.98
5703.95
5703.93
5703.92
5704.03
5703.96
5703.9
5703.85
5703.82
5703.8
5703.79
5703.8
5704.13
5704.07
5704.03
5704
5703.97
5703.96
5703.95
5703.96
5704.02
5703.96
5703.91
5703.88
5703.85
5703.84
5703.84
5703.85
5704.33
5704.27
5704.22
5704.18
5704.14
5704.11
5704.09
5704.09
5704.53
5704.47
5704.41
5704.36
5704.31
5704.28
5704.26
5704.25
5703.87
5703.84
5703.82
5703.81
5703.79
5703.78
5703.76
5703.76
5703.76
5703.69
5703.74
5703.74
5703.72
5703.71
5703.71
5703.7
5703.74
5703.68
5703.65
5703.62
5703.6
5703.6
5703.59
5703.59
5703.79
5703.75
5703.72
5703.7
5703.69
5703.69
5703.7
5703.71
5703.71
5703.65
5703.62
5703.61
5703.6
5703.6
5703.6
5703.61
5703.97
5703.93
5703.94
5703.92
5703.91
5703.9
5703.89
5703.89
5704.18
5704.15
5704.13
5704.11
5704.09
5704.07
5704.06
5704.05
5703.44
5703.45
5703.47
5703.48
5703.49
5703.49
5703.49
5703.49
5703.28
5703.2
5703.33
5703.38
5703.38
5703.38
5703.39
5703.39
5703.3
5703.26
5703.18
5703.09
5703.1
5703.32
5703.35
5703.35
5703.31
5703.31
5703.29
5703.28
5703.32
5703.33
5703.37
5703.37
5703.32
5703.12
5703.07
5703.07
5703.07
5703.23
5703.35
5703.34
5703.53
5703.49
5703.55
5703.57
5703.58
5703.59
5703.59
5703.6
5703.78
5703.79
5703.8
5703.81
5703.81
5703.81
5703.81
5703.81
5702.97
5703.03
5703.08
5703.11
5703.13
5703.15
5703.16
5703.16
5702.91
5702.98
5702.99
5702.99
5703.02
5703.03
5703.03
5703.04
5702.76
5702.81
5702.84
5702.85
5702.86
5702.86
5702.85
5702.85
5703.06
5703.07
5703.06
5703
5703
5703.06
5703.06
5703.06
5702.81
5702.73
5702.76
5702.78
5702.79
5702.81
5702.98
5703.04
5703.14
5703.17
5703.17
5703.19
5703.25
5703.27
5703.28
5703.28
5703.33
5703.38
5703.42
5703.45
5703.47
5703.48
5703.49
5703.49
5702.59
5702.68
5702.76
5702.81
5702.85
5702.87
5702.89
5702.89
5702.65
5702.73
5702.79
5702.83
5702.86
5702.87
5702.87
5702.87
5702.86
5702.96
5703.06
5703.11
5703.14
5703.02
5702.87
5702.78
5702.75
5702.66
5702.72
5702.77
5702.54
5702.6
5702.66
5702.54
5702.84
5702.93
5702.77
5702.62
5702.98
5703.03
5702.87
5702.73
5702.82
5702.9
5702.96
5702.98
5703.02
5703.05
5703.06
5703.06
5702.91
5703.01
5703.08
5703.13
5703.16
5703.19
5703.2
5703.21
5704.29
5704.23
5704.17
5704.12
5704.08
5704.05
5704.03
5704.03
5703.96
5703.9
5703.86
5703.82
5703.79
5703.77
5703.76
5703.76
5703.79
5703.73
5703.68
5703.65
5703.63
5703.62
5703.61
5703.62
5704.01
5703.95
5703.91
5703.88
5703.86
5703.84
5703.82
5703.82
5703.79
5703.73
5703.68
5703.64
5703.61
5703.6
5703.59
5703.59
5703.96
5703.91
5703.86
5703.82
5703.79
5703.76
5703.74
5703.73
5704.22
5704.16
5704.11
5704.05
5704
5703.96
5703.93
5703.92
5703.93
5703.9
5703.88
5703.87
5703.85
5703.84
5703.83
5703.82
5703.63
5703.62
5703.6
5703.59
5703.58
5703.58
5703.57
5703.57
5703.45
5703.42
5703.39
5703.38
5703.37
5703.37
5703.35
5703.35
5703.69
5703.65
5703.63
5703.61
5703.6
5703.59
5703.59
5703.56
5703.45
5703.42
5703.4
5703.39
5703.37
5703.37
5703.35
5703.32
5703.55
5703.59
5703.57
5703.56
5703.55
5703.54
5703.52
5703.51
5703.73
5703.71
5703.69
5703.68
5703.66
5703.65
5703.64
5703.63
5703.48
5703.51
5703.53
5703.54
5703.55
5703.55
5703.56
5703.56
5703.17
5703.21
5703.24
5703.26
5703.27
5703.28
5703.3
5703.3
5702.89
5702.94
5702.95
5702.96
5702.97
5702.98
5702.94
5702.92
5703.19
5703.23
5703.24
5703.25
5703.26
5703.27
5703.26
5703.2
5702.89
5702.99
5703
5703.01
5703.02
5703.02
5703.01
5702.97
5703.1
5703.21
5703.23
5703.25
5703.26
5703.26
5703.26
5703.26
5703.26
5703.28
5703.3
5703.31
5703.32
5703.33
5703.33
5703.33
5703
5703.06
5703.12
5703.15
5703.18
5703.2
5703.21
5703.22
5702.69
5702.76
5702.82
5702.87
5702.89
5702.89
5702.91
5702.93
5702.46
5702.55
5702.59
5702.62
5702.64
5702.65
5702.6
5702.57
5702.7
5702.75
5702.82
5702.86
5702.88
5702.89
5702.89
5702.81
5702.48
5702.63
5702.71
5702.74
5702.75
5702.75
5702.75
5702.75
5702.69
5702.78
5702.82
5702.86
5702.88
5702.87
5702.86
5702.87
5702.77
5702.83
5702.88
5702.92
5702.95
5702.97
5702.98
5702.98
5702.59
5702.7
5702.79
5702.85
5702.89