/*--------------------------------*- C++ -*----------------------------------*\
| =========                 |                                                 |
| \\      /  F ield         | OpenFOAM: The Open Source CFD Toolbox           |
|  \\    /   O peration     | Version:  plus.master.MPPICInterFoam            |
|   \\  /    A nd           | Web:      www.OpenFOAM.com                      |
|    \\/     M anipulation  |                                                 |
\*---------------------------------------------------------------------------*/
FoamFile
{
    version     2.0;
    format      ascii;
    class       labelField;
    location    "10.2/lagrangian/kinematicCloud";
    object      origId;
}
// * * * * * * * * * * * * * * * * * * * * * * * * * * * * * * * * * * * * * //


718
(
8524
173
17440
4293
16067
13522
24218
16456
21727
13452
17032
32436
25751
42998
6720
26228
4974
10633
1147
1059
14672
15477
15826
32443
5435
16837
13552
4767
13974
6507
18700
1240
17359
1153
4192
18299
2724
26639
36387
14545
6455
19126
11438
44178
10773
6935
23343
35650
3126
2172
11942
7731
13805
22373
7176
4374
29009
615
10000
4155
7611
771
13082
37034
12923
31735
19681
18099
1424
6339
21883
15281
21846
7435
13427
316
1513
3416
5338
16
24742
26243
1130
27400
43713
27296
407
46900
20163
22687
8086
18547
24382
12641
20436
5278
7461
13693
5001
30575
11816
22463
3786
22250
9876
1233
1006
47322
7410
8872
8001
4508
26627
21043
15785
22623
16562
12630
9388
15012
18680
15587
1355
48309
13039
16751
12257
24132
10595
6184
35811
7539
7736
14079
35461
18613
17383
408
7732
33411
5703
18936
38136
2107
7491
10262
31330
3806
12883
9993
15044
20188
12150
777
5141
9579
34833
15515
5806
2186
560
24371
14240
26315
34914
42854
3886
27894
14518
9048
10543
24729
6875
27090
45239
40488
30379
16658
31950
23490
29230
13332
25274
33639
3835
15557
8448
29987
32234
2421
4106
1068
5436
9209
950
26635
11858
14143
2072
7261
14172
7521
24005
3321
22040
17449
4997
4321
15623
13605
13013
23793
1923
7226
10158
9277
4133
29953
15064
27314
4919
1189
15950
28593
10334
86
32163
3783
25872
4564
41518
3075
49911
7854
17797
6691
468
6414
21412
2114
498
5617
2650
8034
3674
23163
50785
13123
7675
11693
12225
14501
38985
8437
30324
56723
11490
16680
11485
6428
2943
18728
310
29236
39423
36201
29972
23326
6526
7774
8194
25851
851
30336
242
670
2672
39153
6363
15403
27974
43368
40624
13921
7246
38899
4799
2215
21312
10252
20489
14538
9742
6092
18115
9911
3355
12076
24168
20192
34106
20869
5665
17764
14620
8912
11039
16110
15259
9656
25273
12160
7225
14196
2685
15237
858
27848
27944
1655
10015
2692
3648
7361
139
15072
32362
14886
7740
21331
12795
16112
18586
16868
16408
20046
22368
22432
18443
25221
14239
37841
19410
187
16297
15910
175
43690
3603
1755
4202
34208
17931
15060
13494
10802
21842
1306
2741
19591
7056
9191
4945
7648
22366
2551
14065
20575
40490
16755
22504
35783
3971
28222
18727
683
7894
15103
22503
22794
50137
20111
37801
11006
8756
21003
25952
566
26992
536
34466
4449
6733
28453
21960
57470
9675
11086
12345
11821
43984
6716
5139
9888
19503
19935
2979
17291
5881
11990
27374
13843
16420
35755
17780
24612
2869
2216
4566
13242
10145
8265
20113
22534
76
10656
12428
17569
7700
3896
35572
4257
3808
16253
11264
28431
6528
14805
873
13570
4938
48887
44039
46798
13125
31607
41081
22052
11044
19655
7875
6096
403
7690
36322
51635
10058
47999
52731
64989
71568
36468
89174
2962
890
9
2800
33448
29768
38354
31339
1078
2615
14287
1466
48080
33533
20285
47902
11751
8353
2407
49725
29876
30523
37388
7272
69353
32531
5862
74730
165
89523
27932
53282
43958
30789
91401
9872
12363
16008
33167
76130
27737
3506
15802
3992
16523
14349
64465
359
88832
2603
91283
2913
3645
66314
54231
88500
39158
32561
14074
51783
76063
49822
37893
83080
1188
30933
51251
76759
2765
36385
76956
35511
56392
77181
3432
55581
72678
24468
40678
1921
31164
26984
75144
5529
67956
83419
2041
79693
60138
49643
9665
68449
22084
47229
80081
76519
42429
45916
56602
42944
85733
84800
64016
75303
79866
3798
71603
53125
10170
43376
86998
3945
932
74585
66542
90189
67421
31849
86696
51638
799
44402
49552
91226
83995
47765
77894
44248
80514
56287
55896
65725
37721
92908
83050
87926
90561
61079
78494
39331
23604
83880
89470
20231
50085
73194
76590
78790
91400
66281
56953
13352
64823
41621
26588
73594
76497
81348
1427
59632
30088
85803
92804
77017
25927
88043
64174
18282
89159
41348
89349
80961
28182
42945
92146
22630
73127
73247
63753
88541
47406
30220
14308
83484
89043
21507
56537
89844
85098
91516
13502
73286
83777
21657
80155
3465
56216
80897
77686
36192
83004
76804
21478
94196
40068
4736
5439
130
70144
72607
82606
77006
77029
67169
76741
83522
45302
86604
80333
39518
66663
18117
87562
53482
30179
73575
72697
81642
89852
2587
723
69472
18361
55936
49188
93238
6909
82394
67905
40125
54328
71663
92109
18645
36368
77840
58781
37152
87117
54779
32761
87793
77792
50354
64704
)


// ************************************************************************* //
