/*--------------------------------*- C++ -*----------------------------------*\
| =========                 |                                                 |
| \\      /  F ield         | OpenFOAM: The Open Source CFD Toolbox           |
|  \\    /   O peration     | Version:  plus.master.MPPICInterFoam            |
|   \\  /    A nd           | Web:      www.OpenFOAM.com                      |
|    \\/     M anipulation  |                                                 |
\*---------------------------------------------------------------------------*/
FoamFile
{
    version     2.0;
    format      ascii;
    class       vectorField;
    location    "10.2/lagrangian/kinematicCloud";
    object      UCorrect;
}
// * * * * * * * * * * * * * * * * * * * * * * * * * * * * * * * * * * * * * //


718
(
(4.35743e-13 9.6867e-13 4.96447e-09)
(-2.54929e-15 2.81711e-15 1.3493e-15)
(-1.79133e-06 -4.0886e-07 0.000338317)
(-6.82573e-13 2.08699e-12 1.77616e-09)
(-1.01256e-12 -2.31111e-13 -2.14817e-07)
(-2.40657e-15 2.93093e-15 4.07721e-15)
(-1.31535e-06 -3.00219e-07 0.000540461)
(-6.17777e-13 -1.35933e-12 -7.25741e-07)
(-1.10628e-12 6.00667e-13 -7.25741e-07)
(9.70484e-07 4.25196e-06 -2.42622e-07)
(1.09631e-06 4.20794e-06 1.99242e-11)
(-7.02366e-19 2.15909e-18 6.16585e-15)
(1.0221e-13 8.3663e-13 1.68774e-12)
(1.18592e-12 -7.5896e-13 5.22619e-12)
(-3.2581e-18 3.76497e-18 3.48853e-15)
(3.65182e-07 -5.43489e-07 2.4161e-06)
(9.0679e-13 -1.87246e-12 -1.68348e-12)
(2.84891e-10 -1.22779e-09 2.48519e-06)
(-3.19807e-12 1.61719e-11 1.34881e-07)
(-8.66881e-08 3.37357e-08 6.54455e-13)
(3.18194e-13 -4.00278e-12 -7.76467e-12)
(3.94784e-13 -1.05446e-12 -1.68348e-12)
(7.46993e-07 -2.15491e-06 4.56769e-18)
(-1.31535e-06 -3.00219e-07 9.05419e-05)
(4.06943e-08 -8.45055e-08 -9.19033e-08)
(8.1299e-07 4.26971e-06 1.99242e-11)
(3.65182e-07 -5.43489e-07 1.88034e-06)
(2.16684e-12 -1.54122e-12 2.68865e-12)
(3.18194e-13 -4.00278e-12 -7.74287e-12)
(-3.72472e-07 2.96536e-07 3.57897e-07)
(2.56746e-13 7.82556e-13 3.01699e-12)
(4.69384e-08 -8.05821e-08 -5.25394e-07)
(-1.24983e-13 2.78618e-12 4.96447e-09)
(3.18194e-13 -4.00278e-12 -8.71403e-12)
(3.47985e-07 -9.82134e-07 3.43435e-19)
(9.04764e-14 8.40736e-13 1.68774e-12)
(6.38093e-20 5.91201e-19 2.36878e-18)
(3.65182e-07 -5.43489e-07 1.88803e-06)
(9.05783e-13 -6.57718e-12 -1.74766e-12)
(7.02229e-14 3.03096e-12 4.96447e-09)
(-2.19194e-12 -2.43959e-12 5.68461e-15)
(-9.21757e-14 -1.12601e-13 -1.46234e-16)
(8.72769e-14 8.41856e-13 1.68774e-12)
(-4.28231e-13 4.78829e-13 9.8853e-14)
(-1.29293e-08 5.67734e-08 4.98857e-12)
(1.74102e-18 -4.73037e-18 -2.17202e-16)
(-1.46678e-06 2.08688e-06 6.69362e-07)
(3.65182e-07 -5.43489e-07 2.10802e-06)
(-9.8591e-07 -3.50843e-07 1.46268e-13)
(-2.50603e-08 -4.0835e-09 1.20156e-06)
(-2.0105e-07 4.58881e-08 2.16623e-07)
(-1.22906e-08 5.39753e-08 4.98857e-12)
(-2.41738e-15 2.92231e-15 4.07721e-15)
(-1.77894e-12 -4.06032e-13 -7.25741e-07)
(2.98003e-13 -6.44786e-13 -7.63392e-13)
(1.71955e-06 7.53385e-06 1.99242e-11)
(1.70099e-06 7.45254e-06 1.99242e-11)
(7.56006e-14 -1.17565e-13 1.57916e-12)
(2.84891e-10 -1.22779e-09 2.3451e-06)
(-2.75821e-06 -5.94794e-07 6.69362e-07)
(4.44864e-14 -7.27599e-14 1.57916e-12)
(-1.22298e-08 5.3709e-08 4.98857e-12)
(-2.93555e-14 2.9061e-12 4.96447e-09)
(1.28409e-13 8.27463e-13 1.68774e-12)
(2.67919e-13 -6.59274e-13 -1.4905e-12)
(-1.21779e-06 2.60392e-06 6.69362e-07)
(4.62915e-08 -8.09886e-08 -5.25394e-07)
(-2.01177e-06 -4.59172e-07 0.000338317)
(-1.3235e-08 5.8113e-08 4.98857e-12)
(-3.13575e-18 3.68809e-18 3.48853e-15)
(4.61709e-14 -7.19487e-14 1.57916e-12)
(-1.09068e-06 2.48928e-07 3.30127e-05)
(3.62667e-13 8.05481e-12 1.34881e-07)
(3.4068e-13 7.09846e-13 -3.28854e-13)
(-1.25604e-08 5.51572e-08 4.98857e-12)
(1.93926e-06 6.35301e-06 3.1953e-06)
(-2.07797e-06 8.17743e-07 5.08816e-07)
(-2.50167e-12 -2.63421e-12 5.68461e-15)
(-3.15756e-12 1.63494e-11 1.34881e-07)
(2.21245e-06 -2.49719e-08 -1.19938e-06)
(1.93075e-07 3.33962e-05 3.30127e-05)
(-1.94954e-06 4.44957e-07 3.30127e-05)
(3.8176e-14 -7.57988e-14 1.57916e-12)
(3.89655e-06 -3.16579e-07 -1.19938e-06)
(1.34775e-18 6.61212e-18 9.95283e-14)
(3.30767e-07 -7.16556e-07 2.7876e-10)
(-5.25527e-10 5.10316e-10 7.75335e-07)
(-4.13789e-07 -2.93365e-07 5.37193e-13)
(-3.8901e-07 2.75798e-07 3.58197e-08)
(-1.31535e-06 -3.00219e-07 2.56015e-05)
(2.22188e-08 -9.73466e-08 1.3932e-06)
(-6.4908e-13 -2.13006e-12 5.68461e-15)
(3.04964e-07 2.9123e-06 1.16339e-13)
(3.65182e-07 -5.43489e-07 2.30728e-06)
(6.20601e-07 3.71906e-05 3.30127e-05)
(-4.95921e-08 7.89606e-07 4.49241e-10)
(-2.28308e-06 -5.21098e-07 0.000338317)
(5.71346e-13 8.48561e-14 1.53292e-07)
(3.54642e-13 7.09846e-13 -3.28854e-13)
(-5.87654e-13 -2.20709e-12 5.68461e-15)
(-1.12783e-08 7.89606e-07 2.78624e-10)
(-7.48107e-18 9.70146e-18 1.98031e-13)
(5.1064e-08 1.02761e-06 2.25362e-12)
(1.01128e-19 5.78143e-19 2.36878e-18)
(3.78703e-13 7.09846e-13 -3.28854e-13)
(-2.07797e-06 8.17743e-07 5.20346e-07)
(-3.35559e-13 3.21634e-12 6.17696e-12)
(1.84858e-12 -3.84128e-07 1.84732e-13)
(3.93068e-14 -7.52542e-14 1.57916e-12)
(-3.24902e-13 2.30309e-13 1.19908e-12)
(1.84858e-12 -3.84128e-07 -1.19733e-13)
(-8.89485e-08 3.90746e-07 4.30581e-14)
(7.54013e-08 -1.56575e-07 -5.25394e-07)
(1.29595e-06 7.17263e-07 1.59936e-08)
(2.4408e-19 5.07401e-19 -4.42016e-22)
(-2.41831e-06 -5.51963e-07 0.000338317)
(2.22188e-08 -9.73466e-08 -1.58741e-06)
(-2.07797e-06 8.17743e-07 3.60055e-07)
(2.55341e-08 -9.61865e-08 -3.76673e-07)
(-2.30173e-08 -3.81534e-07 -5.46138e-13)
(-3.07382e-12 1.67163e-11 1.34881e-07)
(-3.55939e-07 -1.81472e-06 1.46268e-13)
(4.06943e-08 -8.45055e-08 -8.88103e-07)
(1.84858e-12 -3.84128e-07 -1.00037e-12)
(-1.10923e-08 7.89606e-07 2.78624e-10)
(-3.48028e-06 7.94338e-07 6.25693e-05)
(-2.21543e-07 2.9217e-06 1.16339e-13)
(-1.12813e-09 -2.46958e-10 7.75335e-07)
(2.21245e-06 -1.26826e-07 -2.5288e-06)
(-3.8901e-07 2.75798e-07 5.81917e-07)
(2.21245e-06 -8.24996e-08 -1.19938e-06)
(-1.38794e-06 3.14803e-07 2.31132e-06)
(8.27297e-07 4.2681e-06 1.99242e-11)
(1.46658e-07 -9.21323e-09 -1.16731e-11)
(1.46658e-07 -9.21323e-09 -1.18732e-11)
(-8.637e-09 -6.83509e-08 5.42602e-11)
(8.13595e-07 -3.55163e-06 4.56769e-18)
(-2.89481e-08 -1.27069e-07 5.42602e-11)
(1.42627e-08 5.91363e-09 2.55528e-12)
(1.10895e-06 -2.18391e-08 5.44333e-13)
(3.63092e-08 -8.60399e-08 -5.25394e-07)
(-5.43035e-08 2.38956e-07 -3.28721e-13)
(2.84891e-10 -1.22779e-09 2.14726e-07)
(-5.27876e-14 5.36316e-14 -6.76869e-16)
(4.67366e-07 2.2905e-07 1.0996e-06)
(2.62068e-12 2.5031e-13 1.1998e-07)
(3.65182e-07 -5.43489e-07 3.44965e-06)
(1.42328e-06 -3.9591e-06 1.10497e-12)
(-1.7304e-06 1.63249e-05 3.30127e-05)
(-2.95924e-10 1.29845e-09 1.82796e-06)
(-9.00372e-07 -2.49542e-07 1.10497e-12)
(7.72585e-07 6.67912e-09 5.44333e-13)
(-1.30223e-07 1.70108e-08 3.57897e-07)
(2.22188e-08 -9.73466e-08 -1.4775e-06)
(1.40744e-06 2.28793e-07 1.7121e-07)
(-1.18467e-07 -1.23152e-07 -2.13638e-06)
(-1.04349e-06 -3.8702e-07 7.52063e-07)
(-1.61835e-06 8.06696e-07 1.46268e-13)
(3.38431e-19 8.77646e-19 2.36878e-18)
(3.65182e-07 -5.43489e-07 1.7936e-06)
(1.30498e-06 6.77737e-07 1.59936e-08)
(-1.49865e-06 1.08695e-07 3.1953e-06)
(7.06081e-07 1.41723e-08 5.44333e-13)
(-4.13789e-07 -2.93365e-07 5.67326e-13)
(-6.52034e-07 -1.62644e-07 1.10497e-12)
(-4.02814e-07 -3.07127e-07 6.54455e-13)
(-2.08343e-10 -4.2246e-10 1.11068e-07)
(1.42627e-08 5.91363e-09 1.26973e-13)
(-2.70198e-07 -2.90345e-08 1.10497e-12)
(8.55706e-12 2.25582e-12 3.01576e-08)
(-7.86002e-07 -1.63213e-06 4.9654e-08)
(-5.01804e-07 -8.34412e-08 2.31132e-06)
(-2.95924e-10 1.29845e-09 2.2491e-06)
(5.1821e-13 -2.27042e-12 7.75716e-12)
(-1.44021e-07 1.51168e-08 1.10497e-12)
(-3.74723e-07 2.93713e-07 3.57897e-07)
(8.21833e-12 4.04155e-10 8.3571e-07)
(5.56177e-11 -3.06598e-12 1.22779e-07)
(9.42704e-05 -1.01918e-06 0.000108994)
(-4.74618e-11 -8.8386e-11 4.93932e-07)
(-1.53421e-12 -3.08655e-12 -4.27627e-16)
(2.84891e-10 -1.22779e-09 5.03918e-08)
(-2.26448e-14 7.25716e-14 -1.89096e-14)
(4.67366e-07 2.2905e-07 2.22236e-06)
(1.48755e-06 -1.22186e-07 1.59936e-08)
(9.22203e-07 -4.02748e-06 4.56769e-18)
(-8.67503e-14 -1.86092e-09 2.53168e-06)
(8.55706e-12 2.25582e-12 3.41563e-08)
(2.22188e-08 -9.73466e-08 8.24096e-07)
(-1.64425e-06 8.60473e-07 1.46268e-13)
(-2.95924e-10 1.29845e-09 6.23224e-08)
(3.28068e-16 6.90722e-16 7.72665e-13)
(4.8226e-11 6.51587e-10 8.3571e-07)
(2.0347e-11 4.04155e-10 1.33239e-06)
(-4.13789e-07 -2.93365e-07 7.43297e-13)
(-2.14747e-09 -3.10958e-10 1.67693e-06)
(-4.01127e-07 8.3294e-07 8.2283e-08)
(2.0347e-11 4.04155e-10 2.54408e-07)
(2.21245e-06 -8.05429e-10 -1.19938e-06)
(4.5562e-19 -2.68467e-18 -3.05276e-17)
(-1.18467e-07 3.07559e-06 4.18847e-12)
(5.93299e-13 -1.23556e-12 1.68839e-12)
(2.0347e-11 4.04155e-10 1.62981e-06)
(-1.53729e-08 -6.7592e-08 8.08451e-11)
(-1.18467e-07 -1.23152e-07 1.61871e-06)
(-4.26266e-07 -7.52157e-07 4.9654e-08)
(-2.21415e-13 -1.34427e-13 7.82354e-13)
(1.41724e-06 3.36075e-07 1.10497e-12)
(-3.04309e-05 1.63218e-05 -1.48656e-12)
(9.42704e-05 -2.97574e-06 0.000108994)
(-1.18467e-07 4.57006e-06 4.18847e-12)
(-2.20467e-10 4.55211e-10 1.03018e-06)
(-1.18467e-07 -1.23152e-07 -2.21976e-06)
(-1.18467e-07 -4.90714e-06 4.18847e-12)
(1.4329e-06 1.17276e-07 1.59936e-08)
(5.10234e-12 1.05199e-12 1.1998e-07)
(9.42255e-13 -4.12829e-12 4.42508e-12)
(2.99207e-08 2.14562e-06 1.10497e-12)
(-2.95924e-10 1.29845e-09 2.23814e-06)
(-1.04349e-06 -3.8702e-07 9.05359e-07)
(-2.07797e-06 8.17743e-07 9.44516e-07)
(-1.70509e-12 -2.14638e-13 2.36083e-12)
(1.35755e-14 -3.4501e-14 -1.20464e-13)
(-2.55566e-10 1.303e-09 1.14978e-06)
(-2.24098e-12 -8.86615e-13 1.19303e-12)
(9.17676e-12 4.84831e-13 2.02302e-08)
(-4.34674e-07 -7.46874e-07 4.9654e-08)
(-1.68309e-07 3.01412e-06 1.10497e-12)
(-1.04349e-06 -3.8702e-07 -7.47465e-07)
(-1.18467e-07 -4.9972e-06 4.18847e-12)
(-3.8901e-07 2.75798e-07 1.69176e-08)
(5.61953e-07 3.04117e-08 5.44333e-13)
(-2.53833e-10 4.34246e-10 5.2566e-07)
(1.39185e-08 6.62825e-09 1.21017e-12)
(-2.14651e-09 -3.1948e-10 1.67693e-06)
(-2.14624e-09 -3.21943e-10 1.67693e-06)
(-4.0831e-13 4.94715e-13 7.676e-13)
(1.13294e-15 -4.63949e-18 2.48003e-12)
(-2.95924e-10 1.29845e-09 2.2203e-06)
(1.0314e-13 2.96963e-14 2.20977e-12)
(-5.92702e-13 -3.67722e-13 4.081e-13)
(1.11529e-10 -1.59735e-10 -2.89345e-16)
(9.12467e-12 6.33684e-13 2.02302e-08)
(1.00682e-12 -6.14614e-13 1.04566e-13)
(-9.38806e-11 1.92353e-10 5.2566e-07)
(3.65182e-07 -5.43489e-07 4.38204e-06)
(4.9571e-11 6.63525e-10 8.3571e-07)
(1.12518e-12 -2.61868e-16 1.19451e-12)
(-3.75905e-05 4.769e-05 -4.67329e-08)
(7.4261e-13 -2.1919e-12 4.42508e-12)
(-1.4701e-12 2.11682e-12 5.85275e-16)
(-1.41738e-06 -8.3534e-06 3.1953e-06)
(9.94557e-09 -4.35739e-08 4.51352e-12)
(9.42704e-05 -1.10215e-06 0.000108994)
(-3.99565e-14 1.75125e-13 5.13022e-14)
(-1.44981e-06 -8.4955e-06 3.1953e-06)
(8.13271e-14 -5.50184e-14 1.57916e-12)
(1.12518e-12 -2.38076e-15 1.19451e-12)
(1.42627e-08 5.91363e-09 -7.36927e-14)
(-1.18467e-07 -4.84191e-06 4.18847e-12)
(-1.75083e-06 -7.67088e-06 6.32362e-07)
(3.65182e-07 -5.43489e-07 2.42405e-06)
(-7.70105e-07 -1.59912e-06 4.9654e-08)
(3.36538e-14 -5.27959e-15 1.05551e-14)
(-9.8852e-07 -3.52483e-07 1.46268e-13)
(1.10895e-06 -3.12205e-08 1.78039e-12)
(-2.77236e-05 4.46039e-06 -1.48656e-12)
(-4.28881e-07 -7.50514e-07 4.9654e-08)
(-3.77106e-07 -7.83047e-07 7.25447e-08)
(5.67286e-09 -2.74934e-08 4.51352e-12)
(-9.27534e-14 -2.37009e-13 4.57753e-12)
(-3.99565e-14 1.75125e-13 6.86933e-14)
(1.57905e-11 5.73924e-12 2.02302e-08)
(-2.79182e-07 3.49989e-06 1.10497e-12)
(-9.97358e-07 -2.4125e-08 4.18847e-12)
(-8.60712e-08 3.43526e-08 6.54455e-13)
(1.12518e-12 -2.18595e-15 1.19451e-12)
(1.50452e-12 5.59597e-14 1.53292e-07)
(6.41425e-13 8.48561e-14 1.53292e-07)
(9.42704e-05 -1.4582e-06 0.000108994)
(-6.0463e-06 5.12441e-05 -1.48656e-12)
(8.55706e-12 2.25582e-12 5.00212e-09)
(-2.14716e-09 -3.13746e-10 1.67693e-06)
(-1.18467e-07 -1.23152e-07 -8.25297e-07)
(1.40744e-06 2.28793e-07 -1.85966e-07)
(-4.05648e-09 -9.26542e-10 1.67693e-06)
(-2.857e-12 2.37979e-12 2.4961e-12)
(-1.84672e-06 1.28091e-06 1.46268e-13)
(-1.54982e-12 2.72839e-13 8.40248e-12)
(-2.09174e-13 -1.49776e-13 4.081e-13)
(4.12891e-05 -1.07969e-05 0.000108994)
(1.72532e-15 -2.16541e-15 3.4433e-19)
(-1.43329e-06 8.58222e-08 3.1953e-06)
(-1.90797e-06 -8.35937e-06 6.32362e-07)
(2.53789e-16 7.16713e-16 4.12683e-13)
(-3.23445e-07 -7.38243e-08 1.10254e-12)
(-2.79232e-06 -6.65611e-07 6.69362e-07)
(2.59483e-12 4.79673e-13 3.60259e-08)
(-2.79435e-08 -1.22667e-07 5.42602e-11)
(-4.0445e-13 -2.54249e-12 -8e-16)
(3.65182e-07 -5.43489e-07 4.27642e-06)
(5.60378e-11 7.20919e-10 8.3571e-07)
(-1.61138e-12 8.6292e-13 1.13442e-13)
(1.16994e-10 -1.55377e-10 6.25551e-19)
(1.42627e-08 5.91363e-09 2.32947e-13)
(-2.39992e-33 4.23792e-18 8.82745e-18)
(1.09572e-07 4.5339e-08 7.3228e-12)
(-1.18467e-07 -1.23152e-07 1.19645e-06)
(-3.13524e-13 2.44578e-13 6.6541e-13)
(-4.48186e-19 5.92449e-12 6.17696e-12)
(-6.01952e-07 -1.37392e-07 2.19482e-12)
(-2.39992e-33 2.28705e-18 1.56995e-17)
(-1.53375e-12 3.43235e-13 4.57753e-12)
(-3.75829e-12 -8.58116e-13 3.78813e-12)
(-3.31971e-07 3.73117e-06 1.10497e-12)
(-4.6146e-13 -1.05325e-13 4.37768e-13)
(-8.94612e-16 2.20436e-13 1.7881e-10)
(7.03604e-11 -6.76579e-11 1.22779e-07)
(-1.12548e-19 3.08074e-21 -7.70416e-39)
(-2.92722e-10 -1.4171e-10 7.14821e-16)
(4.5562e-19 -2.68467e-18 -9.02131e-17)
(9.27727e-08 -3.04101e-08 5.20123e-13)
(-6.70392e-05 3.73854e-05 -1.48656e-12)
(-2.92722e-10 -1.4171e-10 -5.39836e-16)
(3.81225e-16 6.57321e-16 4.12683e-13)
(1.01926e-07 -4.4586e-07 1.76358e-10)
(5.56944e-13 1.77642e-12 2.65101e-14)
(-4.48186e-19 5.86458e-12 6.17696e-12)
(-3.89066e-19 1.49856e-20 1.6098e-20)
(-3.2262e-06 7.1319e-07 3.1953e-06)
(2.0674e-16 -1.881e-16 7.31427e-19)
(-1.2256e-19 -3.14575e-18 -2.17202e-16)
(-3.75905e-05 4.769e-05 -9.35604e-08)
(-1.15813e-06 -7.21758e-06 3.1953e-06)
(1.12518e-12 -3.72699e-15 4.93487e-13)
(-1.5411e-12 3.1104e-13 4.57753e-12)
(1.46617e-18 -4.29294e-18 -2.17202e-16)
(-3.50733e-21 1.53666e-20 -1.0709e-39)
(9.23966e-12 -1.69398e-11 1.71322e-07)
(-7.07386e-22 -8.99232e-22 6.94764e-20)
(-1.25239e-06 -2.8585e-07 -4.19453e-12)
(1.29046e-08 -5.65384e-08 4.51352e-12)
(2.09149e-08 -1.00722e-08 6.22216e-10)
(-1.18467e-07 -3.29222e-06 4.18847e-12)
(2.28215e-16 -2.17089e-16 2.63168e-21)
(-1.25239e-06 -2.8585e-07 -3.87376e-12)
(2.36161e-18 1.47569e-17 7.61587e-18)
(-2.14336e-09 -3.47502e-10 1.67693e-06)
(1.46353e-06 -1.69417e-08 1.59936e-08)
(-6.65371e-16 8.85171e-17 1.53189e-12)
(-1.45629e-15 2.20436e-13 1.7881e-10)
(-4.03356e-22 -8.98384e-22 2.63168e-22)
(-2.00795e-13 -1.60283e-13 4.081e-13)
(-2.07797e-06 8.17743e-07 8.83756e-07)
(1.97911e-11 -6.8584e-12 4.92126e-14)
(-1.99171e-16 -9.66995e-17 7.51376e-16)
(5.86035e-14 -1.26061e-13 1.78898e-10)
(-1.94723e-06 8.28996e-08 4.18847e-12)
(-3.99553e-16 -1.93199e-16 4.2918e-16)
(9.42704e-05 -1.85859e-06 0.000108994)
(-2.59746e-13 1.95897e-13 1.82427e-07)
(9.30495e-20 -8.16079e-20 -3.53174e-19)
(3.28068e-16 6.90722e-16 2.34904e-13)
(-3.41337e-22 -3.71063e-22 2.63168e-22)
(-2.22144e-13 -3.79168e-14 4.37768e-13)
(6.98102e-11 6.93705e-14 4.15431e-11)
(1.6337e-16 -1.32179e-16 7.31427e-19)
(9.42704e-05 -7.31026e-07 0.000108994)
(3.23645e-19 -1.69959e-18 6.82326e-19)
(-2.93832e-08 -4.57058e-09 1.20156e-06)
(-3.21484e-10 3.24068e-11 3.27589e-18)
(-5.31938e-18 -2.75158e-17 1.46375e-16)
(-7.01529e-22 -8.73571e-22 6.94764e-20)
(1.97806e-19 5.23592e-19 -2.63168e-22)
(6.1051e-20 -2.94626e-19 1.53124e-24)
(-2.92722e-10 -1.4171e-10 -6.72773e-16)
(2.37983e-08 -7.99189e-09 1.30891e-13)
(6.1051e-20 -2.94626e-19 8.64903e-23)
(-6.60855e-22 3.20176e-22 2.63168e-22)
(1.75341e-13 -3.64531e-13 1.74819e-16)
(9.42704e-05 -4.82729e-06 1.30657e-05)
(-3.22163e-10 2.63728e-11 3.27589e-18)
(-2.46033e-10 -3.98778e-10 4.93932e-07)
(-2.31715e-13 -5.28873e-14 2.61094e-08)
(-5.40164e-22 2.01965e-22 -2.99188e-38)
(-2.04273e-16 -8.2117e-17 4.2918e-16)
(-9.14338e-07 3.82396e-06 5.33386e-08)
(-1.67458e-12 3.02038e-13 1.13442e-13)
(7.40253e-11 4.4363e-14 9.78126e-14)
(-2.04105e-16 -8.2599e-17 4.2918e-16)
(1.10895e-06 -1.6544e-07 5.44333e-13)
(2.40859e-19 7.11417e-20 2.61376e-20)
(2.48814e-08 -3.337e-09 1.30891e-13)
(2.29428e-20 4.65884e-20 2.69484e-19)
(5.18009e-08 -1.18406e-08 1.30891e-13)
(-1.26778e-06 -1.49283e-07 -3.49369e-13)
(-4.39973e-13 -1.00421e-13 4.37768e-13)
(-8.67503e-14 -1.86092e-09 7.69256e-07)
(1.09364e-10 -7.32248e-11 1.22779e-07)
(-1.02335e-16 2.4945e-17 1.27894e-13)
(8.6595e-17 2.17392e-17 8.88342e-19)
(-2.78258e-09 -5.49635e-06 3.22359e-09)
(1.33408e-10 4.4363e-14 8.99842e-14)
(6.98528e-13 1.6547e-12 -3.01279e-15)
(8.50589e-17 -1.06499e-16 1.46375e-16)
(-3.59126e-17 1.62183e-16 1.71823e-13)
(-1.11403e-17 6.19601e-17 4.1409e-14)
(2.37395e-08 -8.1598e-09 1.30891e-13)
(4.30225e-19 8.93935e-19 -2.63168e-22)
(-6.85813e-11 -9.11825e-11 1.34164e-07)
(3.11807e-08 6.59826e-07 -1.30988e-10)
(1.11088e-19 -5.42622e-20 2.35603e-19)
(6.66935e-20 -4.50086e-19 6.2582e-20)
(-4.92946e-05 9.89694e-05 -1.48656e-12)
(-6.0608e-20 2.93195e-15 8.07457e-14)
(-6.0608e-20 2.93195e-15 3.7595e-14)
(-5.59135e-22 2.44973e-21 -7.70416e-39)
(-4.66918e-16 -1.51979e-18 4.27496e-16)
(-2.44776e-22 -1.08441e-21 -2.3501e-20)
(-4.65183e-13 -1.06175e-13 4.37768e-13)
(2.40859e-19 7.11417e-20 3.32008e-20)
(5.56505e-19 6.98621e-19 2.63168e-22)
(-9.47707e-22 2.47884e-22 -4.57917e-22)
(-8.513e-22 3.72979e-21 -7.70416e-39)
(-9.50358e-22 2.36272e-22 -2.99188e-38)
(-2.47261e-19 -2.89336e-20 -4.95715e-20)
(6.85955e-12 -4.42343e-11 1.34164e-07)
(1.23148e-19 -3.99165e-19 1.14626e-18)
(-1.18941e-07 -5.2112e-07 6.32362e-07)
(1.07027e-20 -5.15216e-19 2.63168e-22)
(5.84789e-19 6.38327e-19 -4.63376e-22)
(-2.44776e-22 -1.84236e-21 -2.69484e-19)
(1.23148e-19 2.34797e-18 1.14626e-18)
(1.21706e-19 2.53853e-19 -3.13486e-20)
(8.93084e-19 1.27851e-18 2.63168e-22)
(-1.44926e-17 8.37584e-17 1.26805e-16)
(-1.7922e-16 -4.50194e-17 1.27894e-13)
(3.87554e-11 6.93705e-14 1.36703e-11)
(1.21706e-19 2.53853e-19 -3.47089e-20)
(-1.59277e-13 -9.37841e-12 1.4342e-14)
(5.83136e-17 1.00376e-16 2.20991e-16)
(-1.59277e-13 -1.80537e-11 9.38324e-14)
(-2.47261e-19 -1.80732e-20 -2.35603e-19)
(1.61094e-12 6.7332e-11 4.91954e-08)
(9.16348e-19 1.32682e-18 2.63168e-22)
(1.61094e-12 6.51239e-11 4.91954e-08)
(-1.30686e-14 -4.11581e-16 1.92053e-12)
(3.75977e-19 -2.57908e-19 3.80535e-20)
(-1.25772e-19 -5.48843e-19 1.71032e-20)
(6.32088e-19 -2.29051e-19 2.69484e-19)
(-4.56794e-15 7.82764e-15 2.46738e-12)
(3.66592e-19 8.34786e-20 1.34742e-19)
(3.81681e-19 3.03814e-19 3.12584e-19)
(3.75977e-19 -2.57908e-19 3.63245e-19)
(-3.01079e-17 1.53786e-14 8.05819e-14)
(-3.01079e-17 1.53786e-14 4.49531e-14)
(-1.1984e-19 1.29892e-17 1.85301e-19)
(-3.01079e-17 1.53786e-14 2.26792e-13)
(-3.01079e-17 2.98999e-14 1.36497e-13)
(-1.2319e-18 -1.07318e-17 2.5494e-19)
(-3.64236e-16 -3.08136e-16 1.99999e-13)
(1.41301e-15 1.5216e-14 1.36497e-13)
(-3.64236e-16 -3.08136e-16 5.25505e-14)
(1.13674e-18 3.49564e-18 4.78482e-16)
(1.11606e-18 1.18682e-19 1.24748e-19)
(-1.04539e-15 1.58226e-16 -9.61057e-17)
(1.10587e-17 9.28403e-17 4.78482e-16)
(2.39292e-15 -1.31283e-12 1.22069e-17)
(-1.30528e-18 -2.02558e-17 2.5494e-19)
(1.44917e-21 5.41726e-30 3.27056e-22)
(1.26004e-20 -2.72269e-29 4.65723e-19)
(-1.76169e-15 -1.36421e-14 2.6999e-14)
(5.01703e-20 -2.72269e-29 4.65723e-19)
(-3.01079e-17 1.53786e-14 7.31259e-14)
(4.47439e-21 -1.18335e-19 -9.14633e-20)
(7.81671e-20 9.79612e-20 2.69484e-19)
(3.29685e-20 -2.72269e-29 4.65723e-19)
(-1.1984e-19 1.29892e-17 1.28555e-19)
(8.95315e-19 6.19485e-19 0)
(2.12666e-17 9.16901e-17 3.7401e-16)
(1.58287e-17 6.78654e-17 4.78482e-16)
(1.07265e-20 5.41726e-30 5.73046e-22)
(1.07265e-20 5.41726e-30 5.71219e-22)
(-1.1984e-19 1.29892e-17 4.88936e-20)
(-7.58975e-21 1.84127e-20 1.04195e-19)
(8.94903e-19 6.15829e-19 0)
(1.20077e-15 1.52399e-14 1.36497e-13)
(-1.30528e-18 -1.07235e-17 1.88586e-20)
(-2.27352e-20 -6.34005e-19 2.32335e-17)
(2.31802e-22 -1.84433e-19 -6.27978e-22)
(1.69548e-19 -3.85087e-20 -7.4364e-38)
(2.69963e-20 1.44399e-19 3.27056e-22)
(-9.82685e-30 -1.67989e-21 -7.4364e-38)
(-5.97287e-20 1.38466e-19 3.03296e-17)
(-9.82685e-30 -1.94052e-20 3.70117e-22)
(1.07265e-20 5.41726e-30 1.58376e-23)
(9.82685e-30 4.5366e-21 1.00439e-18)
(-9.82685e-30 -5.67871e-21 -7.4364e-38)
(-9.50356e-17 -1.00299e-16 9.32219e-16)
(9.16368e-20 -6.71183e-20 -2.35603e-19)
(1.79387e-13 1.59621e-14 -4.64654e-13)
(-6.59358e-20 -6.97345e-19 1.86071e-19)
(4.33899e-30 -2.04716e-19 -5.52943e-19)
(9.82685e-30 5.86027e-22 1.00439e-18)
(-6.01547e-19 -3.95554e-15 1.39155e-18)
(-5.6937e-22 -1.18335e-19 -1.67453e-19)
(2.02213e-19 -1.34117e-20 -1.67453e-19)
(-4.11414e-19 -1.20309e-19 -2.47497e-20)
(1.6934e-17 -4.07125e-17 -1.30522e-13)
(2.31802e-22 -1.84433e-19 -5.68426e-22)
(-4.60787e-20 -3.64392e-19 -3.99895e-34)
(-5.05045e-20 -3.99253e-19 -1.86071e-19)
(4.61848e-13 -4.53592e-13 -4.64654e-13)
(2.31802e-22 -1.84433e-19 -1.68885e-22)
(-1.45893e-10 -2.35652e-13 -3.3464e-07)
(-7.24277e-20 -5.66554e-19 -3.27056e-22)
(-2.77127e-10 -2.35652e-13 -1.79212e-07)
(-1.45893e-10 -2.35652e-13 -3.04532e-07)
(-2.19457e-10 -2.35652e-13 -1.79212e-07)
(-1.44371e-10 1.32791e-11 -1.79212e-07)
(-2.16594e-10 -2.35652e-13 -1.79212e-07)
(-3.47703e-22 7.40598e-19 2.79223e-19)
(-1.44093e-10 1.57406e-11 -1.79212e-07)
(5.72007e-10 -1.69868e-11 -4.07197e-07)
(-1.44665e-10 1.06624e-11 -1.79212e-07)
(-3.47703e-22 9.91167e-19 1.67126e-19)
(2.31802e-22 -1.84433e-19 -3.35753e-23)
(-6.84764e-19 -1.20309e-19 -1.86616e-19)
(-1.45893e-10 -2.35652e-13 -3.4937e-07)
(2.35123e-14 -1.49993e-13 -6.75066e-14)
(1.72374e-14 -9.43018e-14 -1.28078e-13)
(2.96398e-14 -1.29882e-13 -9.41524e-14)
(-2.83653e-08 -3.16234e-07 -2.57068e-16)
(1.43531e-06 -3.27171e-07 -6.83167e-10)
(1.72374e-14 -9.43018e-14 -1.30672e-13)
(-4.7308e-07 -2.90568e-07 -2.57068e-16)
(-6.78337e-07 1.55145e-07 -1.43988e-12)
(7.19743e-19 -2.57649e-19 -1.67453e-19)
(6.02963e-07 -2.18575e-10 2.44763e-19)
(2.30195e-08 -1.25957e-07 -1.31406e-13)
(1.42287e-06 -3.24331e-07 -6.83167e-10)
(3.57433e-05 0.000145975 -5.01308e-16)
(2.35442e-14 -1.50277e-13 -6.75066e-14)
(-5.62933e-13 1.18195e-13 -1.98218e-12)
(1.62047e-19 1.78182e-19 -3.34578e-19)
(3.90982e-10 9.41116e-11 -4.07197e-07)
(3.6837e-10 2.9492e-11 -7.4554e-07)
(1.24316e-06 -2.83314e-07 -6.83167e-10)
(-6.78337e-07 1.55145e-07 -1.33212e-12)
(3.97958e-05 0.00014505 -7.35118e-07)
(-5.77812e-07 -1.61315e-10 -2.44895e-10)
(-2.54735e-08 -2.90568e-07 -3.29425e-07)
(3.97958e-05 0.00014505 -6.00468e-07)
(-6.29405e-07 -2.90568e-07 -2.57068e-16)
(2.30195e-08 -1.25957e-07 -7.06003e-14)
(3.46551e-05 0.000146223 -5.01308e-16)
(-2.78343e-08 -3.11521e-07 -2.57068e-16)
(3.75824e-05 0.000125406 -5.01308e-16)
(3.68853e-08 -2.49019e-07 3.29021e-22)
(4.3008e-20 -5.28565e-20 -1.86071e-19)
(3.5654e-08 -2.38091e-07 3.29021e-22)
(-2.85943e-08 -3.18266e-07 -2.57068e-16)
(3.54413e-05 0.000146044 -5.01308e-16)
(-1.18682e-19 -1.07172e-18 -3.27056e-22)
(2.72902e-08 -1.24982e-07 3.28966e-22)
(-5.87872e-13 -1.19709e-14 1.96831e-12)
(6.30739e-07 -2.18575e-10 2.44763e-19)
(2.48614e-05 1.25032e-05 -5.01308e-16)
(3.70171e-05 0.000145684 -5.01308e-16)
(2.71107e-08 -1.25023e-07 3.28968e-22)
(-2.54735e-08 -2.90568e-07 1.88047e-07)
(-3.5167e-19 -1.00741e-18 3.27056e-22)
(3.97958e-05 0.00014505 6.39959e-07)
(1.05572e-12 -4.39498e-13 1.14131e-12)
(4.70855e-20 3.93156e-19 1.34742e-19)
(5.70702e-07 -2.18575e-10 2.44763e-19)
(-2.44984e-14 -2.76861e-13 1.79131e-07)
(1.07229e-12 -4.4328e-13 1.14131e-12)
(5.57139e-13 -3.25699e-13 2.27081e-12)
(-2.54735e-08 -2.90568e-07 2.59109e-07)
(-2.54735e-08 -2.90568e-07 2.68007e-07)
(5.57139e-13 -3.25699e-13 1.93603e-12)
(3.89472e-13 -2.20871e-16 4.64215e-13)
(2.73834e-11 1.07513e-10 4.07197e-07)
(3.97958e-05 0.00014505 7.09041e-07)
(-2.42475e-14 -2.74634e-13 1.79131e-07)
(3.97958e-05 0.00014505 6.53155e-07)
(-1.09486e-19 4.99342e-20 -3.71779e-19)
(-1.10859e-19 4.70842e-20 -5.0876e-20)
(3.32403e-20 -3.67287e-19 3.27056e-22)
(5.81151e-13 -1.12585e-13 1.14131e-12)
(1.28466e-20 -5.62845e-20 1.67453e-19)
(-1.98907e-14 -2.35966e-13 3.50285e-07)
(-2.31802e-22 1.47856e-18 -3.34905e-19)
(-2.18981e-14 -2.1815e-13 1.79131e-07)
(1.77432e-19 6.74941e-19 5.4513e-22)
(1.74732e-19 6.74636e-19 5.4513e-22)
(4.1966e-13 -2.20871e-16 4.64215e-13)
(1.15901e-22 -6.68898e-19 3.27056e-22)
(-5.51903e-07 -1.61315e-10 -2.44895e-10)
(2.72816e-20 1.19529e-19 1.67453e-19)
(2.73569e-14 -1.84476e-13 6.75205e-14)
(4.70094e-13 -2.20871e-16 4.64215e-13)
(1.01894e-12 -4.31102e-13 1.14131e-12)
(2.51285e-13 2.30711e-14 4.64215e-13)
(2.6298e-14 -1.75078e-13 6.75205e-14)
(-3.06224e-07 -1.61315e-10 -1.11956e-10)
(7.19466e-20 -3.62185e-19 1.67453e-19)
(1.72171e-14 -9.4483e-14 1.13699e-13)
(-1.98907e-14 -2.35966e-13 3.12733e-07)
(-3.06224e-07 -1.61315e-10 -2.24556e-11)
(2.28989e-20 -3.68453e-19 3.27056e-22)
(2.54565e-31 3.39503e-19 -5.3653e-22)
(-2.2948e-13 -1.74276e-16 7.21068e-13)
(2.75821e-14 -1.86476e-13 6.75205e-14)
(-2.86739e-08 -2.62163e-07 -2.57068e-16)
(-2.2948e-13 -1.74276e-16 6.2912e-13)
(1.58066e-19 -6.9253e-19 1.67453e-19)
(6.95107e-19 -3.46975e-20 -1.85708e-19)
(-2.95799e-20 -3.67674e-19 3.27056e-22)
(3.35968e-19 1.50026e-19 5.4513e-22)
(-9.17823e-20 -3.9719e-19 -1.81645e-35)
(3.67707e-20 -3.6689e-19 3.27056e-22)
(-3.11413e-21 1.88976e-20 1.90697e-34)
(4.26205e-20 -3.65489e-19 1.67453e-19)
(1.5612e-19 -6.84007e-19 1.67453e-19)
(1.44057e-30 3.09958e-20 3.031e-19)
(4.49244e-20 -3.6523e-19 1.67453e-19)
(4.48314e-20 -3.6524e-19 1.67453e-19)
(1.50122e-19 -6.57726e-19 1.67453e-19)
(-6.53955e-19 -1.30999e-19 -7.02759e-35)
(1.44057e-30 9.89042e-20 3.031e-19)
(-2.60863e-13 -2.35966e-13 1.79131e-07)
(1.81798e-19 5.21124e-19 1.67453e-19)
(-1.98907e-14 -2.35966e-13 1.22026e-07)
(5.05645e-20 2.21538e-19 1.67453e-19)
(-7.53669e-30 -9.69698e-22 3.27056e-22)
(-7.53669e-30 -1.07265e-20 1.04459e-21)
(-1.55713e-19 -2.82711e-20 3.27056e-22)
(-7.53669e-30 -5.39855e-21 3.27056e-22)
(-2.71425e-15 -5.91995e-14 2.21645e-13)
(2.75784e-20 -1.99745e-19 5.4513e-22)
(2.34979e-22 -7.20493e-22 3.72142e-19)
(5.17791e-23 -3.64494e-22 3.72142e-19)
(-7.53669e-30 -4.58765e-21 3.27056e-22)
(2.67222e-20 -1.99842e-19 5.4513e-22)
(-2.50043e-19 1.6273e-18 -7.57676e-35)
(2.34979e-22 -7.06824e-22 3.72142e-19)
(2.34979e-22 -6.90804e-22 3.72142e-19)
(-2.7099e-17 -2.63871e-17 6.51067e-19)
(2.34979e-22 -3.85135e-22 9.71249e-21)
(1.33527e-19 -2.69799e-19 -8.14307e-35)
(-7.53669e-30 -3.27314e-21 3.27056e-22)
(1.17077e-19 -5.42523e-21 2.35433e-34)
(-5.15882e-22 -8.11717e-22 -3.27056e-22)
(-5.10165e-22 -8.11073e-22 -3.27056e-22)
(1.17077e-19 -5.42523e-21 2.39716e-34)
(-7.53669e-30 -1.07265e-20 -5.35128e-22)
(-5.26016e-22 -8.12859e-22 -3.27056e-22)
(-2.25955e-20 2.01131e-19 -7.57676e-35)
(1.33527e-19 -2.69799e-19 -8.64084e-35)
(-2.60692e-17 -3.55268e-17 6.51067e-19)
(-7.6873e-18 -6.59548e-18 1.22646e-19)
(3.81829e-21 2.04107e-19 -7.57676e-35)
(1.46064e-19 7.67405e-19 2.6652e-34)
(-2.88093e-18 -4.92532e-17 1.8444e-19)
(1.20309e-19 6.83939e-21 -1.86071e-19)
(7.53666e-30 7.50948e-19 3.1377e-19)
(-1.77017e-19 -7.77123e-19 -3.42727e-34)
(1.22056e-19 7.31938e-19 2.68436e-19)
(1.24478e-19 -2.88589e-19 -1.38729e-34)
(5.80021e-19 1.52879e-19 1.86071e-19)
(-1.20309e-19 -7.46561e-19 -8.46153e-35)
(5.69754e-19 2.43997e-19 1.86071e-19)
(1.09913e-18 2.03669e-29 1.86071e-19)
(-1.7434e-19 -7.63835e-19 -1.86071e-19)
(1.95133e-19 3.28794e-19 5.96685e-19)
(-2.82795e-19 -1.64262e-19 -1.67453e-19)
(1.61433e-19 4.57741e-20 1.32512e-35)
(-1.84784e-19 -1.14714e-29 1.75027e-19)
(4.76355e-30 6.42674e-19 1.90724e-19)
(-4.05339e-19 2.72267e-29 -6.97587e-22)
(-4.29734e-20 -2.63053e-20 3.12584e-19)
(-1.0105e-20 -2.3064e-21 -5.33995e-20)
(4.60994e-20 2.72268e-29 -3.6342e-22)
(3.54351e-23 3.24028e-23 0)
(8.50999e-21 -1.67519e-19 -1.67453e-19)
(-6.4224e-19 1.46587e-19 2.57218e-34)
(2.00805e-19 1.83103e-20 -3.51379e-35)
(-1.1442e-19 4.7344e-20 -2.50766e-20)
(-2.0501e-19 1.16353e-18 -1.80032e-37)
(3.50738e-19 -1.2858e-19 4.49508e-19)
(4.13771e-19 -1.72116e-19 9.30355e-20)
(3.90828e-19 -3.33901e-19 4.75323e-35)
(-9.86964e-16 8.49263e-16 2.93666e-11)
(-4.25758e-19 7.22959e-20 -3.23977e-22)
(1.16029e-19 -3.23075e-20 8.64613e-35)
(4.44369e-19 -4.21802e-21 1.13265e-19)
(-7.44577e-06 6.02777e-06 8.53446e-05)
(-2.86561e-05 0.000123244 4.34064e-05)
(-4.71461e-19 1.07025e-19 5.80565e-23)
(-7.44577e-06 6.02777e-06 6.71513e-05)
(-8.89501e-19 -1.22909e-18 -1.71799e-19)
(-9.49835e-07 4.47364e-06 -9.15999e-07)
(5.35251e-19 9.69639e-19 1.18237e-34)
(-2.48251e-07 6.06175e-08 -1.38239e-06)
(2.82363e-19 -4.28768e-19 -1.04195e-19)
(-1.148e-07 -2.64692e-08 -1.17147e-09)
(-1.63099e-07 -4.10945e-08 -2.32897e-07)
(4.23777e-13 -1.54241e-12 -5.61261e-12)
(-8.25867e-19 7.8637e-20 -2.69517e-19)
(-4.41655e-20 9.76103e-22 -1.89655e-34)
(-1.64647e-18 1.94217e-21 7.72552e-21)
(-3.69379e-14 -1.24938e-13 6.59667e-11)
(-9.15868e-19 8.26728e-19 -3.02638e-22)
(8.6471e-21 5.11428e-20 1.43465e-21)
(-6.23975e-19 8.30898e-19 9.97287e-20)
(-5.7864e-21 -8.0473e-19 1.84409e-19)
)


// ************************************************************************* //
