/*--------------------------------*- C++ -*----------------------------------*\
| =========                 |                                                 |
| \\      /  F ield         | OpenFOAM: The Open Source CFD Toolbox           |
|  \\    /   O peration     | Version:  plus.master.MPPICInterFoam            |
|   \\  /    A nd           | Web:      www.OpenFOAM.com                      |
|    \\/     M anipulation  |                                                 |
\*---------------------------------------------------------------------------*/
FoamFile
{
    version     2.0;
    format      ascii;
    class       volScalarField;
    location    "5.8";
    object      alpha.water;
}
// * * * * * * * * * * * * * * * * * * * * * * * * * * * * * * * * * * * * * //

dimensions      [0 0 0 0 0 0 0];

internalField   nonuniform List<scalar> 
11822
(
1
0.990738
0.99999
0.994495
1
1
1
1
0.995812
0.978331
0.998287
0.936219
0.984524
1
1
1
0.998355
0.985575
0.989781
0.940928
1
1
1
0.998593
0.987965
0.989183
0.93604
1
1
0.99824
0.987236
0.998726
0.894416
0.980125
1
1
0.997342
0.999999
0.998913
1
0.999472
1
0.999958
1
1
1
1
1
0.999983
1
0.991438
1
1
1
0.999371
1
1
0.992211
0.778973
0.934099
0.854568
0.976599
1
1
0.957762
0.997944
0.939189
0.770332
0.922642
1
1
0.964014
0.998167
0.941241
0.802913
0.904516
1
1
0.994979
0.785495
0.971362
0.738282
0.97528
1
1
0.98756
1
1
1
0.99689
1
0.999997
1
1
1
1.00001
1
0.999983
0.999974
0.992442
0.997748
1
0.988944
0.996414
1
1
0.962359
0.63638
0.531766
0.759659
0.949351
1
1
0.873867
0.81396
0.832095
0.328147
0.876717
1
1
0.867283
0.880078
0.856664
0.265584
0.853594
1
1
0.962927
0.590738
0.620658
0.642194
0.942516
1
1
0.973524
0.991414
0.999858
0.989538
0.989635
1
1
1
1
1
1.00001
1
0.999986
0.999788
0.990869
0.964139
0.955483
0.945133
0.988909
1
1
0.867262
0.536946
0.201261
0.59132
0.868539
1
0.996478
0.727636
0.216983
0.663786
0.121499
0.725427
0.999565
0.995485
0.733861
0.286206
0.797091
0.0909965
0.688679
0.99377
0.99682
0.858235
0.474998
0.157128
0.478757
0.836282
1
0.999509
0.952288
0.932206
0.941252
0.923139
0.971146
1
1
1
1
1
1
1
0.999992
0.999596
0.97994
0.880372
0.81778
0.852795
0.971243
1
0.997321
0.703442
0.354884
0.158889
0.347875
0.691993
0.999156
0.955003
0.486802
0.0842975
0.393191
0.0823239
0.451333
0.954142
0.949638
0.511639
0.085015
0.677702
0.0814457
0.401034
0.921855
0.977382
0.671293
0.299997
0.0826393
0.234842
0.597902
0.986995
0.997994
0.91456
0.777562
0.718032
0.738399
0.923043
1
1
1
1
1
1
1
0.999999
0.999806
0.971143
0.803742
0.678074
0.760989
0.957297
1
0.990796
0.597134
0.177569
0.115075
0.143487
0.523092
0.987526
0.909438
0.290993
0.0816017
0.10387
0.0804339
0.197549
0.857967
0.897866
0.302231
0.0813654
0.209112
0.0802359
0.137136
0.784465
0.963861
0.504111
0.125668
0.0804069
0.0883856
0.334274
0.940373
0.998437
0.890729
0.594425
0.419847
0.492756
0.857711
1.00003
1
1.00001
0.999585
0.98085
0.99298
1.00001
1
1
1
1
1
1
1
1
1
1
1
1
1
1
1
1
1
1
1
1
1
1
1
1
1
1
1
1
1
1
1
1
1
1
1
1
1
1
1
1
1
1
1
1
1
1
1
1
1
1
1
1
1
1
1
1
1
1
1
1
1
1
1
1
1
1
1
1
1
1
1
1
1
1
1
1
1
1
1
1
1
1
1
1
1
1
1
1
1
1
1
1
1
1
1
1
1
1
1
1
1
1
1
1
1
1
1
1
1
1
1
1
1
1
1
1
1
1
1
1
1
1
1
1
1
1
1
1
1
1
1
1
1
1
1
1
1
1
1
1
1
1
1
1
1
1
1
1
1
1
1
1
1
1
1
1
1
1
1
1
1
1
1
1
1
1
1
1
1
1
1
1
1
1
1
1
1
1
1
1
1
1
1
1
1
1
1
1
1
1
1
1
1
1
1
1
1
1
1
1
1
1
1
1
1
1
1
1
1
1
1
1
1
1
1
1
1
1
1
1
1
1
1
1
1
1
1
1
1
1
1
1
1
1
1
1
1
1
1
1
1
1
1
1
1
1
1
1
1
1
1
1
1
1
1
1
1
1
1
1
1
1
1
1
1
1
1
1
1
1
1
1
1
1
1
1
1
1
1
1
1
1
1
1
1
1
1
1
1
1
1
1
1
1
1
1
1
1.00001
1
1
1
1
1
1
1
1.00002
1
1
1
1
1
1
1
1
1
1
1
1
1
1
1
1
1
1
1
1
1
1
1
1
1
1
1
1
1
1
1
1
1
1
1
1
1
1
1
1
1
1
1
1
1
1
1
1
1
1
1
1
1
1
1
1
1
1
1
1
1
1
1
1
1
1
1
1
1
1
1
1
1
1
1
1
1
1
1
1
1
1
1
1
1
1
1
1
1
1
1
1
1
1
1
1
1
1
1
1
1
1
1
1
1
1
1
1
1
1
1
1
1
1
1
1
1
1
1
1
1
1
1
1
1
1
1
1
1
1
1
1
1
1
1
1
1
1
1
1
1
1
1
1
1
1
1
1
1
1
1
1
1
1
1
1
1
1
1
1
1
1
1
1
1
1
1
1
1
1
1
1
1
1
1
1
1
1
1
1
1
1
1
1
1
1
1
1
1
1
1
1
1
1
1
1
1
1
1
1
1
1
1
1
1
1
1
1
1
1
1
1
1
1
1
1
1
1
1
1
1
1
1
1
1
1
1
1
1
1
1
1
1
1
1
1
1
1
1
1
1
1
1
1
1
1
1
1
1
1
1
1
1
1
1
1
1
1
1
1
1
1
1
1
1
1
1
1
1
1
1
1
1
1
1
1
1
1
1
1
1
1
1
1
1
1
1
1
1
1
1
1
1
1
1
1
1
1
1
1
1
1
1
1
1
1
1
1
1
1
1
1
1
1
1
1
1
1
1
1
1
1
1
1
1
1
1
1
1
1
1
1
1
1
1
1
1
1
1
1
1
1
1
1
1
1
1
1
1
1
1
1
1
1
1
1
1
1
1
1
1
1
1
1
1
1
1
1
1
1
1
1
1
1
1
1
1
1
1
1
1
1
1
1
1
1
1
1
1
1
1
1
1
1
0.999999
0.999998
1
1
1
1
1
1
1
1
1
1
1
1
1
1
1
1
1
1
1
0.999998
1
1
1
1
1
1
1
1
1
1
1
1
1
1
1
1
1
1
1
1
1
1
1
1
1
1
1
1
1
1
1
1.00001
1
1
1
1
1
1
1
1
1
1
1
1
1
1
1
1
1
1
1
1
1
1
1
0.999997
1
1
1
1
1
1
1
1
1
1
1
1
1
1
1
1
1
1
1
1
1
1
1
1
1
1
1
1
1
1
1
1.00001
1
1
1
1
1
1
1
1
1
1
1
1
1
1
1
1
1
1
1
1
1
1
1
0.999998
1
1
1
1
1
1
1
1
1
1
1
1
1
1
1
1
1
1
1
1
1
1
1
1
1
1
1
1
1
1
1
1.00001
1
1
1
1
1
1
1
1
1
1
1
1
1
1
1
1
1
1
1
1
1
1
1
1
1
1
1
1
1
1
1
1
1
1
1
1
1
1
1
1
1
1
1
1
1
1
1
1
1
1
1
1
1
1
1
1.00001
1
1
1
1
1
1
1
1
1
1
1
1
1
1
1
1
1
1
1
1
1
1
1
1
1
1
1
1
1
1
1
1
1
1
1
1
1
1
1
1
1
1
1
1
1
1
1
1.00001
1
1
1
1
1
1
1
1.00003
1
1
1
1
1
1
1
1.00002
1
1
1
1
1
1
1
1
1
1
1
1
1
1
1
1
1
1
1
1
1
1
1
1
1
1
1
1
1
1
1
1
1
1
1
1
1
1
1
1
1
1
1
1
1
1
1
1
1
1
1
1
1
1
1
1
1
1
1
1
1
1
1
1
1
1
1
1
1
1
1
1
1
1
1
1
1
1
1
1
1
1
1
1
1
1
1
1
1
1
1
1
1
1
1
1
1
1
1
1
1
1
1
1
1
1
1
1
1
1
1
1
1
1
1
1
1
1
1
1
1
1
1
1
1
1
1
1
1
1
1
1
1
1
1
1
1
1
1
1
1
1
1
1
1
1
1
1
1
1
1
1
1
1
1
1
1
1
1
1
1
1
1
1
1
1
1
1
1
1
1
1
1
1
1
1
1
1
1
1
1
1
1
1
1
1
1
1
1
1
1
1
1
1
1
1
1
1
1
1
1
1
1
1
1
1
1
1
1
1
1
1
1
1
1
1
1
1
1
1
1
1
1
1
1
1
1
1
1
1
1
1
1
1
1
1
1
1
1
1
1
1
1
1
1
1
1
1
1
1
1
1
1
1
1
1
1
1
1
1
1
1
1
1
1
1
1
1
1
1
1
1
1
1
1
1
1
1
1
1
1
1
1
1
1
1
1
1
1
1
1
1
1
1
1
1
1
1
1
1
1
1
1
1
1
1
1
1
1
1
1
1
1
1
1
1
1
1
1
1
1
1
1
1
1
1
1
1
1
1
1
1
1
1
1
1
1
1
1
1
1
1
1
1
1
1
1
1
1
1
1
1
1
1
1
1
1
1
1
1
1
1
1
1
1
1
1
1
1
1
1
1
1
1
1
1
1
1
1
1
1
1
1
1
1
1
1
1
1
1
1
1
1
1
1
1
1
1
1
1
1
1
1
1
1
1
1
1
1
1
1
1
1
1
1
1
1
1
1
1
1
1
1
1
1
1
1
1
1
1
1
1
1
1
1
1
1
1
1
1
1
1
1
1
1
1
1
1
1
1
1
1
1
1
1
1
1
1
1
1
1
1
1
1
1
1
1
1
1
1
1
1
1
1
1
1
1
1
1
1
1
1
1
1
1
1
1
1
1
1
1
1
1
1
1
1
1
1
1
1
1
1
1
1
1
1
1
1
1
1
1
1
1
1
1
1
1
1
1
1
1
1
1
1
1
1
1
1
1
1
1
1
1
1
1
1
1
1
1
1
1
1
1
1
1
1
1
1
1
1
1
1
1
1
1
1
1
1
1
1
1
1
1
1
1
1
1
1
1
1
1
1
1
1
1
1
1
1
1
1
1
1
1
1
1
1
1
1
1
1
1
1
1
1
1
1
1
1
1
1
1
1
1
1
1
1
1
1
1
1
1
1
1
1
1
1
1
1
1
1
1
1
1
1
1
1
1
1
1
1
1
1
1
1
1
1
1
1
1
1
1
1
1
1
0.999999
0.999999
0.999999
1
1
1
1
1
0.999999
0.999999
0.999999
1
1
1
1
1
0.999999
0.999999
0.999999
1
1
1
1
1
0.999999
0.999999
0.999999
1
1
1
1
1
0.999999
0.999999
0.999999
1
1
1
1
1
0.999999
0.999999
0.999999
1
1
1
1
1
0.999999
0.999999
0.999999
1
1
1
1
1
1
1
1
1
1
1
1
1
1
1
1
1
1
1
1
1
1
1
1
1
1
1
1
1
1
1
1
1
1
1
1
1
1
1
1
1
1
1
1
1
1
1
1
1
1
1
1
1
1
1
1
1
1
1
1
1
1
1
1
1
1
1
1
1
1
1
1
1
1
1
1
1
1
1
1
1
1
1
1
1
1
1
1
1
1
1
1
1
1
1
1
1
1
1
1
1
1
1
1
1
1
1
1
1
1
1
1
1
1
1
1
1
1
1
1
1
1
1
1
1
1
1
1
1
1
1
1
1
1
1
1
1
1
1
1
1
1
1
1
1
1
1
1
1
1
1
1
1
1
1
1
1
1
1
1
1
1
1
1
1
1
1
1
1
1
1
1
1
1
1
1
1
1
1
1
1
1
1
1
1
1
1
1
1
1
1
1
1
1
1
1
1
1
1
1
1
1
1
1
1
1
1
1
1
1
1
1
1
1
1
1
1
1
1
1
1
1
1
1
1
1
1
1
1
1
1
1
1
1
1
1
1
1
1
1
1
1
1
1
1
1
1
1
1
1
1
1
1
1
1
1
1
1
1
1
1
1
1
1
1
1
1
1
1
1
1
1
1
1
1
1
1
1
1
1
1
1
1
1
1
0.999999
0.999999
0.999999
1
1
1
1
1
0.999999
0.999999
0.999999
1
1
1
1
1
0.999999
0.999999
0.999999
1
1
1
1
1
0.999999
0.999999
0.999999
1
1
1
1
1
0.999999
0.999999
0.999999
1
1
1
1
1
0.999999
0.999999
0.999999
1
1
1
1
1
0.999999
0.999999
0.999999
1
1
1
1
1
1
1
1
1
1
1
1
1
1
1
1
1
1
1
1
1
1
1
1
1
1
1
1
1
1
1
1
1
1
1
1
1
1
1
1
1
1
1
1
1
1
1
1
1
1
1
1
1
1
1
1
1
1
1
1
1
1
1
1
1
1
1
1
1
1
1
1
1
1
1
1
1
1
1
1
1
1
1
1
1
1
1
1
1
1
1
1
1
1
1
1
1
1
1
1
1
1
1
1
1
1
1
1
1
1
1
1
1
1
1
1
1
1
1
1
1
1
1
1
1
1
1
1
1
1
1
1
1
1
1
1
1
1
1
1
1
1
1
1
1
1
1
1
1
1
1
1
1
1
1
1
1
1
1
1
1
1
1
1
1
1
1
1
1
1
1
1
1
1
1
1
1
1
1
1
1
1
1
1
1
1
1
1
1
1
1
1
1
1
1
1
1
1
1
1
1
1
1
1
1
1
1
1
1
1
1
1
1
1
1
1
1
1
1
1
1
1
1
1
1
1
1
1
1
1
1
1
1
1
1
1
1
1
1
1
1
1
1
1
1
1
1
1
1
1
1
1
1
1
1
1
1
1
1
1
1
1
1
1
1
1
1
1
1
1
1
1
1
1
1
1
1
1
1
1
1
1
1
1
1
0.999999
0.999999
0.999999
1
1
1
1
1
0.999999
0.999999
0.999999
1
1
1
1
1
0.999999
0.999999
0.999999
1
1
1
1
1
0.999999
0.999999
0.999999
1
1
1
1
1
0.999999
0.999999
0.999999
1
1
1
1
1
0.999999
0.999999
0.999999
1
1
1
1
1
0.999999
0.999999
0.999999
1
1
1
1
1
1
1
1
1
1
1
1
1
1
1
1
1
1
1
1
1
1
1
1
1
1
1
1
1
1
1
1
1
1
1
1
1
1
1
1
1
1
1
1
1
1
1
1
1
1
1
1
1
1
1
1
1
1
1
1
1
1
1
1
1
1
1
1
1
1
1
1
1
1
1
1
1
1
1
1
1
1
1
1
1
1
1
1
1
1
1
1
1
1
1
1
1
1
1
1
1
1
1
1
1
1
1
1
1
1
1
1
1
1
1
1
1
1
1
1
1
1
1
1
1
1
1
1
1
1
1
1
1
1
1
1
1
1
1
1
1
1
1
1
1
1
1
1
1
1
1
1
1
1
1
1
1
1
1
1
1
1
1
1
1
1
1
1
1
1
1
1
1
1
1
1
1
1
1
1
1
1
1
1
1
1
1
1
1
1
1
1
1
1
1
1
1
1
1
1
1
1
1
1
1
1
1
1
1
1
1
1
1
1
1
1
1
1
1
1
1
1
1
1
1
1
1
1
1
1
1
1
1
1
1
1
1
1
1
1
1
1
1
1
1
1
1
1
1
1
1
1
1
1
1
1
1
1
1
1
1
1
1
1
1
1
1
1
1
1
1
1
1
1
1
1
1
1
1
1
1
1
1
1
1
0.999999
0.999999
0.999999
1
1
1
1
1
0.999999
0.999999
0.999999
1
1
1
1
1
0.999999
0.999999
0.999999
1
1
1
1
1
0.999999
0.999999
0.999999
1
1
1
1
1
0.999999
0.999999
0.999999
1
1
1
1
1
0.999999
0.999999
0.999999
1
1
1
1
1
0.999999
0.999999
0.999999
1
1
1
1
1
1
1
1
1
1
1
1
1
1
1
1
1
1
1
1
1
1
1
1
1
1
1
1
1
1
1
1
1
1
1
1
1
1
1
1
1
1
1
1
1
1
1
1
1
1
1
1
1
1
1
1
1
1
1
1
1
1
1
1
1
1
1
1
1
1
1
1
1
1
1
1
1
1
1
1
1
1
1
1
1
1
1
1
1
1
1
1
1
1
1
1
1
1
1
1
1
1
1
1
1
1
1
1
1
1
1
1
1
1
1
1
1
1
1
1
1
1
1
1
1
1
1
1
1
1
1
1
1
1
1
1
1
1
1
1
1
1
1
1
1
1
1
1
1
1
1
1
1
1
1
1
1
1
1
1
1
1
1
1
1
1
1
1
1
1
1
1
1
1
1
1
1
1
1
1
1
1
1
1
1
1
1
1
1
1
1
1
1
1
1
1
1
1
1
1
1
1
1
1
1
1
1
1
1
1
1
1
1
1
1
1
1
1
1
1
1
1
1
1
1
1
1
1
1
1
1
1
1
1
1
1
1
1
1
1
1
1
1
1
1
1
1
1
1
1
1
1
1
1
1
1
1
1
1
1
1
1
1
1
1
1
1
1
1
1
1
1
1
1
1
1
1
1
1
1
1
1
1
0.999999
0.999999
0.999561
0.991666
0.995476
0.992647
0.989898
0.999309
0.999999
1
0.991456
0.987778
0.996074
0.989483
0.989311
0.99966
0.999999
0.999171
0.980728
0.989976
0.992702
0.98351
0.989196
0.999948
1
0.992178
0.981223
0.995381
0.991011
0.98231
0.99096
0.999998
1
0.994243
0.978689
0.993352
0.991445
0.981112
0.989413
0.999984
0.999999
1
0.982604
0.986303
0.994789
0.983135
0.986737
0.999789
0.999999
1
0.993728
0.990926
0.997092
0.990664
0.988332
0.999552
1
1
1
1
1
1
1
1
1
1
1
1
1
1
1
1
1
1
1
1
1
1
1
1
1
1
1
1
1
1
1
1
1
1
1
1
1
1
1
1
1
1
1
1
1
1
1
1
1
1
1
1
1
1
1
1
1
1
1
1
1
1
1
1
1
1
1
1
1
1
1
1
1
1
1
1
1
1
1
1
1
1
1
1
1
1
1
1
1
1
1
1
1
1
1
1
1
1
1
1
1
1
1
1
1
1
1
1
1
1
1
1
1
1
1
1
1
1
1
1
1
1
1
1
1
1
1
1
1
1
1
1
1
1
1
1
1
1
1
1
1
1
1
1
1
1
1
1
1
1
1
1
1
1
1
1
1
1
1
1
1
1
1
1
1
1
1
1
1
1
1
1
1
1
1
1
1
1
1
1
1
1
1
1
1
1
1
1
1
1
1
1
1
1
1
1
1
1
1
1
1
1
1
1
1
1
1
1
1
1
1
1
1
1
1
1
1
1
1
1
1
1
1
1
1
1
1
1
1
1
1
1
1
1
1
1
1
1
1
1
1
1
1
1
1
1
1
1
1
1
1
1
1
1
1
1
1
1
1
1
1
1
1
1
1
1
1
1
1
1
1
1
1
1
1
1
1
1
1
1
0.999999
0.999999
0.999999
0.999999
0.997332
0.996083
0.991988
0.995534
0.999999
0.999999
0.999999
0.999999
0.996578
0.996755
0.992798
0.994821
0.999999
0.999999
0.999999
0.999999
0.996807
0.997771
0.992217
0.993358
0.999999
0.999999
0.999999
0.999999
0.996981
0.998523
0.991773
0.992394
0.999999
0.999999
0.999999
0.999999
0.997018
0.998678
0.991913
0.992368
0.999999
0.999999
0.999999
0.999999
0.996786
0.998487
0.992409
0.992973
0.999999
0.999999
0.999999
0.999999
0.996222
0.997912
0.99298
0.99394
1
1
1
1
1
1
1
1
1
1
1
1
1
1
1
1
1
1
1
1
1
1
1
1
1
1
1
1
1
1
1
1
1
1
1
1
1
1
1
1
1
1
1
1
1
1
1
1
1
1
1
1
1
1
1
1
1
1
1
1
1
1
1
1
1
1
1
1
1
1
1
1
1
1
1
1
1
1
1
1
1
1
1
1
1
1
1
1
1
1
1
1
1
1
1
1
1
1
1
1
1
1
1
1
1
1
1
1
1
1
1
1
1
1
1
1
1
1
1
1
1
1
1
1
1
1
1
1
1
1
1
1
1
1
1
1
1
1
1
1
1
1
1
1
1
1
1
1
1
1
1
1
1
1
1
1
1
1
1
1
1
1
1
1
1
1
1
1
1
1
1
1
1
1
1
1
1
1
1
1
1
1
1
1
1
1
1
1
1
1
1
1
1
1
1
1
1
1
1
1
1
1
1
1
1
1
1
1
1
1
1
1
1
1
1
1
1
1
1
1
1
1
1
1
1
1
1
1
1
1
1
1
1
1
1
1
1
1
1
1
1
1
1
1
1
1
1
1
1
1
1
1
1
1
1
1
1
1
1
1
1
1
1
1
1
1
1
1
1
1
1
1
1
1
1
1
1
1
1
1
0.999999
0.999999
0.999999
0.999999
0.994992
0.997057
0.993176
0.99492
0.999999
0.999999
0.999999
0.99926
0.993167
0.996104
0.993037
0.995703
0.999999
0.999999
0.999999
0.996399
0.993716
0.994865
0.993186
0.997411
0.999999
0.999999
0.999999
0.995485
0.995322
0.993888
0.99272
0.99822
0.999999
0.999999
0.999931
0.99623
0.99638
0.991958
0.992246
0.999004
0.999999
0.999999
0.997291
0.996222
0.996537
0.990071
0.991287
0.999502
0.999999
0.999999
0.998412
0.99318
0.996514
0.992088
0.990963
0.999355
1
1
1
1
1
1
1
1
1
1
1
1
1
1
1
1
1
1
1
1
1
1
1
1
1
1
1
1
1
1
1
1
1
1
1
1
1
1
1
1
1
1
1
1
1
1
1
1
1
1
1
1
1
1
1
1
1
1
1
1
1
1
1
1
1
1
1
1
1
1
1
1
1
1
1
1
1
1
1
1
1
1
1
1
1
1
1
1
1
1
1
1
1
1
1
1
1
1
1
1
1
1
1
1
1
1
1
1
1
1
1
1
1
1
1
1
1
1
1
1
1
1
1
1
1
1
1
1
1
1
1
1
1
1
1
1
1
1
1
1
1
1
1
1
1
1
1
1
1
1
1
1
1
1
1
1
1
1
1
1
1
1
1
1
1
1
1
1
1
1
1
1
1
1
1
1
1
1
1
1
1
1
1
1
1
1
1
1
1
1
1
1
1
1
1
1
1
1
1
1
1
1
1
1
1
1
1
1
1
1
1
1
1
1
1
1
1
1
1
1
1
1
1
1
1
1
1
1
1
1
1
1
1
1
1
1
1
1
1
1
1
1
1
1
1
1
1
1
1
1
1
1
1
1
1
1
1
1
1
1
1
1
1
1
1
1
1
1
1
1
1
1
1
1
1
1
1
1
1
1
1
1
1
0.999999
1
0.986342
0.987284
0.996341
0.985757
0.986101
0.999556
0.999999
1
0.985535
0.991256
0.995408
0.983797
0.986083
0.999681
0.999999
1
0.989139
0.992189
0.996681
0.987134
0.986788
0.999433
0.999999
1
0.992458
0.993576
0.997581
0.989725
0.987478
0.999193
0.999999
0.999999
0.997709
0.996649
0.997977
0.992675
0.988859
0.998961
0.999999
0.999999
0.998972
0.999325
0.998886
0.99425
0.989493
0.998043
0.999999
0.999999
0.999999
0.999693
0.998065
0.995341
0.989597
0.996219
0.999995
0.981946
0.808927
0.653694
0.751754
0.967786
0.99999
0.995701
0.631372
0.149303
0.0849948
0.097319
0.517759
0.98559
0.91902
0.277259
0.0808491
0.0776243
0.079926
0.128835
0.814971
0.907434
0.276234
0.0792444
0.0773579
0.0785775
0.080091
0.71938
0.978309
0.503426
0.0804157
0.0785377
0.0800286
0.269054
0.919006
0.999985
0.918535
0.566877
0.334161
0.418106
0.85027
0.999968
1
0.999989
0.998545
0.963311
0.984167
0.999978
0.999999
0.999996
0.999895
0.935639
0.799386
0.885008
0.999503
0.999992
0.999927
0.869219
0.31478
0.12713
0.196338
0.742198
0.999836
0.985981
0.488832
0.0805315
0.0798036
0.0796582
0.223681
0.90812
0.981323
0.475644
0.0805555
0.0774648
0.0795167
0.135176
0.834137
0.999878
0.751143
0.162472
0.0801005
0.0797041
0.445944
0.978457
0.999993
0.999087
0.772401
0.467173
0.578432
0.955379
0.999968
1
0.999993
0.999911
0.990105
0.998543
0.999975
0.999999
0.580384
0.927068
0.940064
0.909944
0.915186
0.927258
0.580527
0.926654
0.915364
0.627871
0.238578
0.418948
0.846961
0.930383
0.981305
0.758237
0.111074
0.0793343
0.0793368
0.437314
0.919497
0.978995
0.744361
0.0934383
0.0796159
0.079186
0.253396
0.897938
0.965604
0.875495
0.308376
0.0801339
0.113056
0.621263
0.947251
0.744576
0.842557
0.868312
0.688645
0.751236
0.912804
0.762756
0.546285
0.712902
0.948149
0.984356
0.973943
0.843346
0.557672
0.267252
0.398296
0.616196
0.571613
0.666141
0.440601
0.337746
0.423564
0.662833
0.475011
0.16582
0.296714
0.60234
0.432313
0.650967
0.681923
0.0982122
0.0789725
0.0790056
0.324989
0.596607
0.604528
0.559382
0.0783592
0.0787212
0.0788389
0.1949
0.480669
0.435765
0.565834
0.216485
0.0885211
0.133102
0.453497
0.445902
0.244007
0.345132
0.549096
0.544189
0.610133
0.463914
0.29872
0.255899
0.265165
0.360186
0.459055
0.438053
0.295863
0.252715
0.360131
0.297814
0.249526
0.246667
0.280788
0.307811
0.35649
0.342205
0.390278
0.322693
0.264217
0.300622
0.301655
0.329672
0.338267
0.413546
0.350215
0.318834
0.309643
0.328573
0.312837
0.336095
0.408273
0.329718
0.290766
0.304121
0.293467
0.279291
0.272336
0.365612
0.364242
0.33177
0.348237
0.33206
0.308446
0.244855
0.375307
0.386463
0.384237
0.38048
0.375997
0.370608
0.362183
0.370504
0.366929
0.350027
0.332311
0.295711
0.36075
1.54737e-10
7.73775e-11
1.9635e-11
1.03801e-11
1.66046e-11
3.27457e-11
3.92754e-11
1.20422e-10
2.82862e-11
1.13653e-11
3.52236e-12
1.00073e-11
1.71905e-11
3.35065e-11
3.12295e-11
1.28464e-11
3.75443e-12
-7.44148e-10
3.6999e-12
1.23831e-11
1.66622e-11
1.67666e-11
3.85117e-12
-5.09101e-10
0.0023458
-4.26682e-10
3.70068e-12
3.06251e-11
4.14205e-11
1.74799e-11
2.65003e-12
-8.80986e-10
3.90299e-12
1.63158e-11
4.90085e-11
2.57554e-10
2.93563e-10
1.51337e-11
3.57091e-12
1.64848e-11
4.50558e-11
1.61951e-10
5.98699e-10
1.64466e-10
3.52032e-11
2.58722e-11
4.22799e-11
1.55055e-10
1.82392e-10
8.2371e-10
2.65612e-10
1.61968e-11
1.0192e-11
1.47312e-11
4.44451e-11
9.84559e-11
2.64685e-10
2.01599e-11
1.02198e-11
7.4338e-12
9.49715e-12
1.49522e-11
3.92722e-11
2.40777e-11
1.05351e-11
7.43394e-12
6.72594e-12
7.43397e-12
9.49337e-12
1.47029e-11
1.67038e-11
8.47734e-12
6.72842e-12
6.72558e-12
6.72684e-12
8.21155e-12
1.12355e-11
2.61812e-11
1.41381e-11
8.47677e-12
6.73108e-12
8.21183e-12
1.29607e-11
3.41664e-11
3.3037e-09
1.66569e-10
1.53612e-11
9.39492e-12
1.48588e-11
3.29211e-11
5.65518e-10
1.20037e-08
2.29099e-09
2.57504e-11
1.68274e-11
3.302e-11
3.41686e-10
2.61026e-10
3.02706e-09
1.1665e-09
1.65695e-10
8.33053e-11
1.12084e-10
1.92013e-10
3.07005e-10
1.1091e-09
3.26957e-10
1.14169e-10
4.85051e-11
7.27389e-11
1.23886e-10
1.70502e-10
3.34827e-10
1.70398e-10
5.0973e-11
1.85955e-11
3.766e-11
7.31048e-11
1.15101e-10
2.29857e-10
1.22368e-10
3.25883e-11
8.89681e-12
2.9237e-11
5.19132e-11
4.14259e-10
3.34297e-10
2.49805e-10
1.03295e-10
4.49618e-11
9.88673e-11
2.80003e-10
7.05239e-10
1.56635e-08
5.4392e-09
1.40951e-10
1.49829e-10
2.55009e-10
5.83619e-10
1.44437e-09
2.73346e-08
1.13996e-08
2.65794e-10
3.95075e-10
5.16375e-10
9.26066e-10
3.93684e-10
9.67974e-11
1.41645e-10
6.61809e-11
4.591e-11
5.74114e-11
8.2542e-11
1.13666e-10
5.07764e-11
4.48686e-11
2.68688e-11
2.18808e-11
3.28549e-11
5.36971e-11
7.94573e-11
5.57819e-11
2.19236e-11
1.01737e-11
7.82782e-12
1.59321e-11
3.25569e-11
5.77252e-11
5.08287e-11
1.58361e-11
5.42084e-12
3.13252e-12
9.3218e-12
2.12625e-11
3.14501e-11
4.83137e-11
2.02503e-11
1.34292e-11
1.00345e-11
1.28592e-11
2.45299e-11
3.99433e-11
9.04177e-12
3.86655e-11
5.35477e-11
3.90686e-11
1.87733e-11
2.71871e-11
4.0232e-11
8.96775e-09
1.3288e-09
1.31959e-10
1.2367e-10
4.0366e-11
4.68435e-11
1.08171e-10
1.03817e-11
9.85766e-12
1.74821e-11
1.84136e-11
2.45173e-11
3.98952e-11
6.47356e-11
1.34815e-11
9.50564e-12
8.15927e-12
7.76148e-12
1.23574e-11
2.27046e-11
3.8321e-11
1.26697e-11
7.0857e-12
3.49647e-12
2.4655e-12
5.36377e-12
1.23363e-11
2.47252e-11
1.17374e-11
5.35364e-12
1.87016e-12
8.3206e-13
3.22893e-12
9.55689e-12
2.17117e-11
1.24751e-11
5.21199e-12
2.60402e-12
1.77018e-12
5.11793e-12
1.29018e-11
2.67188e-11
1.82808e-12
2.23668e-12
3.64764e-12
3.29468e-12
8.25645e-12
1.76813e-11
3.43877e-11
6.24102e-15
4.84432e-13
6.38472e-12
5.85591e-12
1.66708e-11
2.88788e-11
5.40958e-11
1
1
1
1
1
1
1
1
0.999995
1
1
1
1
1
1
1
0.999962
0.999999
1
1
1
1
1
1
0.999951
0.999999
1
1
1
1
1
1
0.999985
1
1
1
1
1
1
1
0.999999
1
1
1
1
1
1
1
1
1
1
1
1
1
1
1
1
1
1
1
1
1
1
1
0.999994
1
1
1
1
1
1
1
0.999941
0.999998
1
1
1
1
1
1
0.999905
0.999997
1
1
1
1
1
1
0.999982
0.999999
1
1
1
1
1
1
0.999999
1
1
1
1
1
1
1
1
1
1
1
1
1
1
1.00001
0.568478
0.778788
0.99805
1
1
0.999984
0.999548
0.990481
0.724551
0.773916
0.970708
1.00001
1
1
0.999931
0.984452
0.877421
0.818279
0.940223
1.00001
1
1
1
0.985373
0.907658
0.831587
0.940918
1.00001
1
1
1
0.984938
0.806816
0.814571
0.971108
1.00001
1
1
0.999892
0.982301
0.681428
0.828708
0.997192
1
1
1
0.99943
0.975521
0.674178
0.932856
1.00001
1
1
0.999512
0.997717
0.976313
0.337401
0.337209
0.568214
0.884985
0.828536
0.666329
0.581476
0.440535
0.337789
0.337178
0.599579
0.876968
0.813654
0.695231
0.622675
0.414255
0.345861
0.338993
0.6856
0.909529
0.839706
0.729649
0.653481
0.425643
0.324918
0.385508
0.817249
0.933334
0.855783
0.741589
0.659672
0.421391
0.279442
0.308256
0.684078
0.893319
0.816969
0.702313
0.621743
0.394432
0.25675
0.325904
0.705551
0.848744
0.757342
0.644809
0.567122
0.336817
0.25271
0.475504
0.867565
0.85941
0.717631
0.576571
0.513299
0.326712
0.362389
0.36311
0.110748
-0.000111094
-3.19575e-06
-6.69288e-08
-1.92857e-09
1.47025e-09
0.360911
0.357051
0.104738
-9.1868e-05
-1.95123e-06
-3.84047e-08
1.01777e-09
6.38294e-09
0.368433
0.372123
0.176144
-0.000150498
-3.04897e-06
-5.49281e-08
1.21647e-09
3.81623e-09
0.368867
0.400654
0.250747
0.00558748
-6.0868e-06
-1.06963e-07
-2.44588e-09
7.51686e-10
0.363769
0.359147
0.151205
-0.000116286
-2.27605e-06
-4.01061e-08
6.21884e-10
3.711e-09
0.361837
0.285057
0.0367503
-2.49112e-05
-4.83904e-07
-9.12702e-09
-8.09324e-11
9.47241e-10
0.330668
0.20049
-0.000232338
-7.33817e-06
-1.54758e-07
-2.92534e-09
1.17603e-10
6.07392e-10
3.89547e-11
3.79881e-11
3.77659e-11
2.15828e-10
1.22405e-10
1.3218e-10
6.84971e-11
1.59894e-10
3.84377e-11
3.83589e-11
3.83589e-11
1.32433e-10
1.26795e-10
6.40693e-11
1.53654e-10
2.73545e-09
3.13192e-11
3.84377e-11
3.83589e-11
2.56648e-10
9.5871e-11
7.8079e-11
1.61351e-10
1.47829e-09
1.54476e-10
5.87081e-11
3.89286e-11
1.53116e-10
1.04515e-12
2.35862e-10
3.46082e-10
4.46017e-10
1.09338e-10
6.93466e-11
5.97417e-11
4.3693e-10
2.42e-10
1.90104e-10
2.65042e-10
1.88245e-09
1.43384e-10
1.05219e-10
7.99852e-11
4.76748e-10
2.43981e-10
2.88283e-10
2.4158e-10
3.39287e-10
1.65674e-10
1.43384e-10
5.43162e-10
2.31002e-10
2.16067e-10
2.78133e-10
2.79456e-10
3.66296e-10
1.20208e-10
1.37508e-10
2.13862e-10
4.06416e-10
4.82643e-10
1.5131e-10
1.80334e-10
1.08285e-07
5.91773e-11
6.88977e-11
8.84771e-11
2.26295e-10
1.57656e-10
9.68019e-11
9.92363e-08
2.55011e-07
3.43093e-11
6.43454e-11
7.61373e-11
4.93603e-10
1.19628e-09
1.50945e-10
1.26441e-07
2.56581e-07
1.43988e-09
5.18139e-09
7.43523e-09
1.31429e-08
1.2977e-08
3.54814e-09
4.60078e-10
5.04954e-08
2.54639e-10
2.64818e-10
3.90864e-10
8.26938e-10
2.18456e-09
2.83881e-10
7.64589e-08
2.57346e-07
1.27551e-09
1.15506e-09
9.9257e-10
1.36352e-09
1.1388e-09
2.93411e-10
3.3876e-10
5.41664e-08
7.37655e-10
8.04924e-10
9.89952e-10
1.39501e-09
1.44861e-09
3.01732e-10
3.13088e-09
3.28356e-08
3.51957e-10
2.88814e-10
2.7631e-10
2.89665e-10
2.28471e-10
1.83347e-10
4.40233e-09
1.26785e-07
1.59986e-10
1.83613e-10
2.07905e-10
2.37998e-10
1.94963e-10
2.23886e-10
1.31019e-08
3.18273e-08
1.67081e-10
2.16868e-10
2.24173e-10
2.10271e-10
2.11052e-10
2.15769e-10
5.48059e-10
3.33696e-08
8.60818e-09
1.18665e-08
1.03622e-08
1.05392e-10
1.86354e-10
2.14954e-10
2.54153e-09
1.10949e-08
5.97566e-10
1.3077e-10
1.6049e-10
1.92652e-10
1.981e-10
2.10623e-10
1.4833e-09
2.49157e-08
1.67743e-09
8.96488e-10
2.06749e-10
2.4386e-10
2.13366e-10
2.41278e-10
5.99133e-09
2.96612e-08
1.28362e-09
1.19944e-09
6.26892e-10
3.25759e-10
2.4759e-10
2.74718e-10
2.06052e-08
5.9504e-08
1.37061e-10
1.83058e-10
2.13827e-10
2.296e-10
2.29527e-10
2.15887e-10
1.95687e-10
1.91494e-10
1.06592e-10
1.38356e-10
1.68734e-10
1.9313e-10
2.06378e-10
2.03856e-10
1.94788e-10
1.92286e-10
9.20859e-11
1.29041e-10
1.66525e-10
1.97718e-10
2.14454e-10
2.10741e-10
1.96853e-10
1.94949e-10
3.24272e-11
4.96138e-11
5.00334e-11
8.23066e-11
1.9751e-10
2.39351e-10
2.26991e-10
1.96962e-10
7.04654e-11
1.28259e-10
1.84865e-10
2.25329e-10
2.43875e-10
2.33561e-10
2.00239e-10
1.97952e-10
7.33633e-11
1.20654e-10
2.13957e-10
2.82324e-10
3.04338e-10
2.81352e-10
2.25986e-10
1.99852e-10
7.48547e-11
1.2512e-10
2.01868e-10
2.84284e-10
3.1697e-10
2.8132e-10
2.06827e-10
2.0321e-10
9.67676e-11
1.35246e-10
1.80615e-10
2.309e-10
2.83276e-10
3.34527e-10
3.81777e-10
4.23448e-10
5.85158e-11
8.81388e-11
1.27082e-10
1.76137e-10
2.35195e-10
3.03455e-10
3.80694e-10
4.6947e-10
4.53375e-11
7.37313e-11
1.12622e-10
1.63092e-10
2.25539e-10
3.00768e-10
3.91795e-10
4.92033e-10
4.24858e-11
6.95107e-11
1.07079e-10
1.57038e-10
2.204e-10
2.96424e-10
3.83573e-10
4.89022e-10
4.90437e-11
7.73598e-11
1.16315e-10
1.67505e-10
2.31805e-10
3.09941e-10
4.04002e-10
5.19435e-10
5.99553e-11
9.45458e-11
1.41892e-10
2.01663e-10
2.70604e-10
3.42876e-10
4.11328e-10
4.68789e-10
5.48944e-11
8.91857e-11
1.44215e-10
2.20122e-10
3.07922e-10
3.93526e-10
4.67088e-10
5.26445e-10
1
1
1
1
1
1
1
1
1
1
1
1
1
1
1
1
0.999996
1
1
1
1
1
1
1
0.999984
1
1
1
1
1
1
1
0.999983
1
1
1
1
1
1
1
0.999998
1
1
1
1
1
1
1
1
1
1
1
1
1
1
1
1
1
1
1
1
1
1
1.00001
1
1
1
1
1
1
1
1.00001
0.999996
1
1
1
1
1
1
1.00001
0.999984
0.999999
1
1
1
1
1
1
0.999985
0.999999
1
1
1
1
1
1
0.999997
1
1
1
1
1
1
1
1
1
1
1
1
1
1
1
0.738224
0.982035
1
1
0.999873
0.999595
0.99751
0.965943
0.783821
0.960026
1.00001
1
1
0.999901
0.998202
0.965745
0.913084
0.942029
0.9981
1
1
1
0.999515
0.975224
0.972046
0.936209
0.982033
1
1
1
0.999756
0.98015
0.894398
0.824585
0.94318
1.00001
1
1
0.999658
0.980974
0.713114
0.771718
0.969807
1
1
0.999912
0.999148
0.979274
0.560715
0.770228
0.996801
1
1
0.999127
0.997624
0.982141
0.307852
0.729599
0.901133
0.829934
0.645606
0.563099
0.506783
0.25481
0.227152
0.476196
0.855348
0.842569
0.714756
0.611721
0.532003
0.273228
0.253638
0.448323
0.860207
0.88089
0.780575
0.658831
0.574214
0.34386
0.334232
0.468575
0.864039
0.896728
0.803467
0.679755
0.599489
0.380844
0.246501
0.307229
0.727541
0.871153
0.787793
0.666026
0.588059
0.381445
0.250471
0.265943
0.660824
0.837855
0.750847
0.620013
0.549288
0.358274
0.262648
0.265421
0.691802
0.868233
0.75848
0.572167
0.50332
0.356966
0.312232
0.130717
-0.0001192
-2.9764e-06
-4.98098e-08
-9.07346e-10
1.51315e-10
-6.25568e-12
0.191588
0.0995026
-7.02661e-05
-1.46381e-06
-2.62377e-08
-3.76364e-10
1.48525e-10
5.29936e-10
0.181943
0.128293
0.035899
-1.49488e-05
-2.65089e-07
-4.67051e-09
3.42672e-11
1.02891e-09
0.22861
0.156418
0.0552894
-2.99697e-05
-5.35092e-07
-9.23144e-09
4.41135e-11
1.93778e-09
0.232606
0.137261
0.0235486
-1.05246e-05
-2.01046e-07
-3.4885e-09
4.08795e-10
2.28653e-09
0.262171
0.118224
-8.53968e-05
-2.21897e-06
-4.40619e-08
-6.99372e-10
3.23834e-10
2.31405e-09
0.361356
0.249926
0.0033327
-9.21292e-06
-2.22864e-07
-4.06746e-09
3.35923e-10
2.58088e-09
3.68369e-10
2.2374e-10
3.23812e-09
1.80818e-11
2.38462e-10
2.38686e-10
2.53582e-10
1.95104e-10
1.92305e-10
1.35881e-10
1.65085e-09
1.0566e-10
1.89118e-10
1.9561e-10
2.25761e-10
2.77087e-10
6.94613e-11
1.02076e-10
1.17743e-10
2.40034e-10
1.69276e-10
2.00319e-10
2.04274e-10
2.6785e-10
3.5704e-11
6.70912e-11
1.02076e-10
2.28605e-10
1.75628e-10
1.94561e-10
1.99482e-10
3.81174e-10
9.8105e-11
1.19012e-10
1.34679e-10
2.05431e-10
1.77494e-10
1.89931e-10
2.02008e-10
6.12029e-10
1.69359e-10
1.51615e-10
1.29834e-09
1.52032e-10
1.86108e-10
2.04232e-10
2.43886e-10
4.87085e-10
1.54737e-10
1.26094e-10
1.42493e-10
2.26936e-10
2.17952e-10
2.56439e-10
2.76991e-10
6.13267e-10
2.2159e-08
1.58874e-08
1.61708e-08
9.35889e-09
4.98555e-10
2.6675e-10
8.3876e-10
5.85249e-08
5.69547e-09
4.0985e-09
3.30785e-09
4.11553e-09
1.36566e-09
2.50799e-10
2.65449e-10
2.79164e-08
6.48815e-11
1.31945e-10
2.20345e-10
3.79872e-10
1.06273e-09
2.29897e-10
1.99808e-10
6.18804e-08
3.18993e-11
6.23906e-11
1.51719e-10
2.87738e-10
9.88558e-10
2.13754e-10
5.18093e-09
1.2874e-07
1.87565e-10
4.70742e-10
6.84181e-10
7.94044e-10
1.01687e-09
2.21856e-10
1.66096e-08
1.64679e-07
7.1142e-10
1.37316e-09
2.55356e-09
2.30794e-09
1.24825e-09
2.54199e-10
6.72174e-09
1.39163e-07
1.8462e-09
2.44392e-09
2.70663e-09
2.40115e-09
8.83105e-10
2.97221e-10
1.34975e-08
1.51774e-07
2.73365e-08
2.86559e-09
1.19777e-10
1.53509e-10
1.90796e-10
2.79029e-10
1.63631e-08
1.08225e-07
8.84338e-09
2.29737e-09
4.05075e-10
2.11184e-10
2.20045e-10
2.55676e-10
6.98921e-09
4.87046e-08
3.92975e-10
3.93076e-10
4.94206e-10
4.07272e-10
2.95576e-10
2.65795e-10
1.67199e-09
4.25203e-08
3.48608e-10
4.4877e-10
5.04435e-10
4.5868e-10
3.15369e-10
2.51374e-10
9.5074e-09
8.88952e-08
8.37891e-10
1.38513e-09
1.48957e-09
7.13799e-10
2.98622e-10
2.56156e-10
2.42908e-08
1.64e-07
2.06992e-09
3.56066e-09
3.55767e-09
1.80032e-09
5.75686e-10
3.50767e-10
1.21142e-08
1.48012e-07
4.01465e-09
4.01352e-09
2.46974e-09
8.38058e-10
5.14462e-10
3.81565e-10
4.25287e-08
1.81094e-07
9.23099e-09
6.84195e-09
1.01301e-10
5.11668e-10
1.39824e-09
1.41789e-09
5.17308e-10
2.78539e-10
1.10271e-09
2.80669e-09
1.91251e-09
4.32022e-10
5.90062e-10
6.71843e-10
4.08756e-10
2.7541e-10
1.28973e-10
2.74405e-10
4.47599e-10
3.96096e-10
3.45521e-10
2.98368e-10
2.75865e-10
2.73454e-10
1.52525e-10
3.04105e-10
4.18954e-10
4.12563e-10
3.35399e-10
2.75189e-10
2.72237e-10
2.72292e-10
1.56578e-10
7.0496e-10
1.16214e-09
9.66307e-10
2.92558e-10
2.81026e-10
2.72609e-10
2.73194e-10
1.44562e-10
1.81602e-09
3.55233e-09
3.49856e-09
1.56613e-09
3.97153e-10
3.72449e-10
2.76378e-10
1.34995e-09
3.57517e-09
3.57e-09
2.93106e-09
5.34768e-10
4.40036e-10
3.48778e-10
2.93251e-10
1.11044e-13
4.9634e-12
9.05484e-11
3.45329e-10
2.73485e-09
5.03437e-09
4.18165e-09
9.79973e-10
7.90134e-13
4.73612e-12
4.76667e-11
2.35467e-10
1.17603e-09
1.72244e-09
1.6692e-09
8.96689e-10
2.92902e-11
5.11441e-11
8.55816e-11
1.41689e-10
2.24526e-10
3.19446e-10
3.93009e-10
4.35506e-10
2.06726e-11
3.27739e-11
6.07203e-11
1.19308e-10
2.10079e-10
3.14897e-10
3.92547e-10
4.3094e-10
1.49826e-11
8.92207e-12
2.25782e-11
8.32095e-11
2.5236e-10
4.0792e-10
4.93922e-10
5.10043e-10
1.37954e-11
6.1992e-12
3.88017e-11
2.08735e-10
1.25726e-09
1.95827e-09
1.74519e-09
8.85145e-10
7.67538e-12
2.33437e-11
1.80084e-10
1.10529e-09
1.97855e-09
1.9822e-09
1.397e-09
5.28425e-10
1
1
1
1
1
1
1
1
0.999995
1
1
1
1
1
1
1
0.999962
0.999999
1
1
1
1
1
1
0.999945
0.999998
1
1
1
1
1
1
0.999953
0.999999
1
1
1
1
1
1
0.999991
1
1
1
1
1
1
1
1
1
1
1
1
1
1
1
1
1
1
1
1
1
1
1
0.999996
1
1
1
1
1
1
1
0.999954
0.999998
1
1
1
1
1
1
0.999877
0.999996
1
1
1
1
1
1
0.999923
0.999997
1
1
1
1
1
1
0.999992
1
1
1
1
1
1
1
1
1
1
1
1
1
1
1
0.544718
0.736243
0.989459
1
1
0.999932
0.999494
0.98292
0.679532
0.686707
0.900888
1.00001
1
1
0.999957
0.978807
0.893144
0.724827
0.842052
0.997609
1.00001
1
1
0.985678
0.971432
0.784309
0.84306
0.99448
1.00001
1
1
0.98751
0.90529
0.749225
0.86203
0.998446
1
1
1
0.986577
0.698048
0.717888
0.931512
1.00001
1
1
1
0.984295
0.559012
0.759597
0.995538
1
1
1
0.99962
0.990814
0.267291
0.269881
0.701505
0.900674
0.795674
0.642009
0.570629
0.379602
0.269046
0.278596
0.573537
0.886088
0.829621
0.722246
0.635818
0.369064
0.30625
0.281706
0.58257
0.897947
0.851454
0.754975
0.678914
0.429592
0.368255
0.330056
0.666532
0.919453
0.866537
0.772358
0.700525
0.447839
0.378289
0.335524
0.53712
0.884328
0.852142
0.760716
0.685857
0.440665
0.337643
0.337186
0.517277
0.864624
0.830319
0.724522
0.645496
0.417832
0.337368
0.337287
0.556125
0.889227
0.836808
0.675888
0.590774
0.44742
0.363102
0.364871
0.139371
-0.000155985
-3.84589e-06
-7.68664e-08
-2.03966e-09
1.74432e-09
0.365282
0.367274
0.258217
0.00385079
-7.28518e-06
-1.48788e-07
-3.96343e-09