/*--------------------------------*- C++ -*----------------------------------*\
| =========                 |                                                 |
| \\      /  F ield         | OpenFOAM: The Open Source CFD Toolbox           |
|  \\    /   O peration     | Version:  plus.master.MPPICInterFoam            |
|   \\  /    A nd           | Web:      www.OpenFOAM.com                      |
|    \\/     M anipulation  |                                                 |
\*---------------------------------------------------------------------------*/
FoamFile
{
    version     2.0;
    format      ascii;
    class       volScalarField;
    location    "5.8";
    object      epsilon;
}
// * * * * * * * * * * * * * * * * * * * * * * * * * * * * * * * * * * * * * //

dimensions      [0 2 -3 0 0 0 0];

internalField   nonuniform List<scalar> 
11822
(
0.276108
0.324154
0.360502
0.377591
0.367741
0.335831
0.28823
0.314871
0.372134
0.424597
0.441992
0.429586
0.387242
0.330437
0.337733
0.401901
0.447759
0.47319
0.476517
0.420388
0.355724
0.339925
0.404695
0.451377
0.478045
0.479322
0.424883
0.358607
0.321106
0.380039
0.436409
0.453668
0.442559
0.396819
0.337618
0.286327
0.336024
0.374616
0.392924
0.382203
0.348459
0.299073
0.241742
0.282203
0.312235
0.325945
0.317813
0.290873
0.250479
0.314987
0.384109
0.437703
0.467419
0.450903
0.399179
0.328763
0.371304
0.458734
0.527395
0.582581
0.547748
0.480237
0.389897
0.406701
0.510069
0.595773
0.605207
0.608831
0.536543
0.429121
0.40967
0.513962
0.594143
0.611447
0.627081
0.545362
0.433433
0.37953
0.469179
0.543409
0.604578
0.5626
0.493763
0.399354
0.328005
0.399598
0.457714
0.490408
0.470438
0.41593
0.342432
0.26729
0.32147
0.364237
0.385046
0.371532
0.33164
0.276663
0.356391
0.457777
0.546043
0.595703
0.56488
0.477273
0.372902
0.439644
0.582691
0.689847
0.708295
0.731152
0.612875
0.462863
0.498806
0.677421
0.812815
0.760919
0.732744
0.723742
0.528027
0.503378
0.681221
0.825121
0.772666
0.706322
0.743911
0.535709
0.452817
0.598307
0.707819
0.771285
0.755543
0.636022
0.477061
0.374809
0.481285
0.578089
0.638167
0.59995
0.503033
0.392098
0.292783
0.365207
0.427626
0.460319
0.437535
0.377808
0.303667
0.388799
0.526518
0.664316
0.74453
0.688807
0.553438
0.410399
0.502812
0.716628
0.916124
0.843319
0.963985
0.762139
0.535617
0.598973
0.906828
0.842331
0.959771
0.913828
0.966894
0.641657
0.608429
0.917385
0.876708
0.981149
0.925622
0.983481
0.653418
0.525143
0.747093
0.942202
0.85143
0.986967
0.796854
0.558663
0.415495
0.563876
0.71976
0.83184
0.749719
0.593973
0.438505
0.312315
0.403633
0.489773
0.537724
0.503355
0.420215
0.325951
0.402465
0.564674
0.752686
0.873084
0.790516
0.601895
0.430097
0.538288
0.804532
1.09628
1.14079
1.17156
0.877774
0.586365
0.667934
1.0823
1.14733
1.20128
1.25764
1.19167
0.739618
0.684895
1.11191
1.16861
1.35537
1.26529
1.21106
0.759473
0.571797
0.862696
1.15047
1.14839
1.15791
0.937959
0.622542
0.438636
0.620267
0.838791
1.01048
0.895105
0.663536
0.468884
0.322763
0.427163
0.535202
0.601585
0.554998
0.448186
0.33939
0.39442
0.550606
0.744509
0.893858
0.791398
0.591609
0.424529
0.528092
0.791512
1.1077
1.42336
1.19281
0.872104
0.580921
0.666814
1.12725
1.66968
1.30351
1.82523
1.2188
0.747272
0.693817
1.19795
1.73459
1.10526
1.77472
1.23142
0.773032
0.571733
0.880655
1.22311
1.63934
1.37831
0.931405
0.621768
0.437256
0.618707
0.853287
1.0616
0.91263
0.661492
0.469261
0.323298
0.428027
0.541007
0.614548
0.562494
0.45068
0.341982
0.234213
0.194503
0.159678
0.131286
0.110197
0.0975921
0.0993655
0.174007
0.268762
0.21876
0.175529
0.14058
0.114591
0.0982864
0.0965552
0.162646
0.290622
0.23511
0.186337
0.14683
0.117465
0.0987013
0.0947253
0.154924
0.293101
0.236425
0.186607
0.146356
0.116512
0.0973837
0.0928547
0.150354
0.274754
0.221415
0.175396
0.138577
0.111406
0.0941466
0.090796
0.148676
0.241988
0.195765
0.157032
0.126417
0.103955
0.0900521
0.0891976
0.150516
0.202616
0.167353
0.137632
0.114035
0.0967982
0.086754
0.0891532
0.156364
0.256303
0.206715
0.165985
0.134486
0.111975
0.0988805
0.100794
0.176904
0.301931
0.236619
0.184426
0.144868
0.116805
0.0997417
0.0980297
0.165543
0.332521
0.25763
0.197396
0.152024
0.12005
0.100326
0.096305
0.158
0.33587
0.259297
0.197803
0.15163
0.119175
0.0990918
0.0945211
0.153586
0.309566
0.239942
0.184579
0.143086
0.113858
0.0958493
0.0925146
0.152001
0.265842
0.208489
0.163603
0.129944
0.106129
0.0917335
0.0909751
0.153974
0.21695
0.175406
0.142186
0.11682
0.0987728
0.0884447
0.0910369
0.160105
0.27771
0.217331
0.170992
0.13689
0.113282
0.0997883
0.10176
0.179373
0.337483
0.253578
0.192063
0.148332
0.11856
0.100862
0.0991066
0.168117
0.381089
0.280566
0.207521
0.156487
0.122238
0.101671
0.0975389
0.160852
0.386023
0.282929
0.208264
0.156303
0.121527
0.100575
0.0958741
0.156621
0.348189
0.258388
0.193031
0.147128
0.116084
0.0973578
0.093921
0.155085
0.290388
0.220531
0.169561
0.133165
0.108144
0.0932187
0.0924079
0.157078
0.230703
0.182796
0.146361
0.119432
0.10061
0.0899067
0.0925205
0.16336
0.293813
0.224467
0.174193
0.1385
0.114241
0.100441
0.102374
0.182228
0.368133
0.266365
0.197394
0.150802
0.119924
0.101741
0.0998633
0.171045
0.427898
0.299677
0.215209
0.159887
0.124037
0.1028
0.0984748
0.164041
0.435008
0.303071
0.216465
0.160018
0.123547
0.101867
0.0969357
0.159966
0.383568
0.273479
0.199648
0.15045
0.118056
0.0986729
0.0950081
0.158414
0.310947
0.229979
0.174317
0.135941
0.10996
0.0944781
0.0934603
0.160342
0.241576
0.188652
0.149883
0.121776
0.102254
0.0910904
0.0935568
0.166723
0.302349
0.228606
0.176676
0.140309
0.11566
0.101616
0.103707
0.18755
0.386572
0.273944
0.201212
0.153237
0.121682
0.103104
0.101315
0.176706
0.460447
0.311983
0.220772
0.163079
0.126194
0.104399
0.100095
0.170068
0.470468
0.316512
0.222619
0.163566
0.125935
0.103614
0.0986591
0.166136
0.407183
0.28354
0.204963
0.153842
0.120429
0.100425
0.0967328
0.164452
0.324087
0.236866
0.178696
0.139013
0.112183
0.0961442
0.0951225
0.16607
0.24935
0.193778
0.153584
0.124515
0.10429
0.0926676
0.0951926
0.172191
0.3026
0.229997
0.178724
0.142625
0.118193
0.104885
0.110768
0.233182
0.387309
0.275914
0.203776
0.155936
0.12443
0.10637
0.1079
0.219697
0.464533
0.315555
0.224247
0.166371
0.1293
0.107831
0.106573
0.211864
0.476444
0.321267
0.226854
0.16735
0.129343
0.107219
0.105208
0.207646
0.410935
0.288018
0.209282
0.157704
0.123888
0.10409
0.103431
0.206365
0.328239
0.241362
0.182888
0.14271
0.115532
0.0998345
0.102142
0.209338
0.254023
0.198156
0.157472
0.127941
0.107528
0.0965084
0.102918
0.218276
0.196237
0.163123
0.135145
0.112797
0.0963594
0.0867594
0.0893393
0.156322
0.232209
0.189045
0.152956
0.124312
0.103133
0.089951
0.0894094
0.150609
0.261645
0.212079
0.169546
0.135446
0.11009
0.0938659
0.0909839
0.148788
0.27794
0.225361
0.179515
0.142445
0.114764
0.0968898
0.0929387
0.15028
0.275814
0.224164
0.179191
0.142767
0.115533
0.0980247
0.0946235
0.154432
0.256179
0.209488
0.169381
0.136958
0.112735
0.0974865
0.0962111
0.161548
0.224741
0.187519
0.15496
0.128382
0.10857
0.0967347
0.0987804
0.172262
0.210454
0.171189
0.139647
0.115375
0.09795
0.087899
0.0904743
0.158747
0.255598
0.201769
0.15956
0.127706
0.104949
0.0910544
0.090367
0.152634
0.295339
0.230415
0.178791
0.139893
0.112225
0.0949883
0.0918454
0.150606
0.318816
0.247779
0.190724
0.147682
0.117135
0.0980209
0.0937247
0.151945
0.315973
0.24622
0.190232
0.147912
0.117822
0.0990722
0.0953166
0.155896
0.288238
0.227056
0.178255
0.141148
0.114631
0.0983761
0.0968321
0.162868
0.246269
0.199596
0.161227
0.131441
0.110025
0.0974965
0.0994342
0.173726
0.223354
0.177992
0.143264
0.117363
0.099076
0.088555
0.0909903
0.160333
0.278639
0.21296
0.164865
0.130247
0.106184
0.0916516
0.0907414
0.153948
0.331574
0.247584
0.186434
0.143195
0.113625
0.0955519
0.0921277
0.151814
0.36545
0.269684
0.200208
0.151559
0.118635
0.0985312
0.0939117
0.153024
0.361232
0.267438
0.199373
0.15157
0.119157
0.0994498
0.0953764
0.156727
0.321372
0.242719
0.185084
0.143896
0.115601
0.0985883
0.0967917
0.163473
0.266235
0.209391
0.165633
0.133242
0.110645
0.0976004
0.0993988
0.174428
0.23256
0.182647
0.145731
0.118705
0.0997488
0.0887792
0.0909797
0.161872
0.296135
0.220576
0.168266
0.13183
0.106878
0.0918267
0.0906507
0.155287
0.361679
0.259861
0.191289
0.145134
0.114351
0.0956832
0.091989
0.153145
0.407174
0.286056
0.206284
0.153749
0.119337
0.0985842
0.0936944
0.154292
0.400599
0.282784
0.204949
0.153459
0.119665
0.0993592
0.0950333
0.157776
0.347014
0.25286
0.188779
0.145095
0.115819
0.0983519
0.0963385
0.164295
0.279656
0.214927
0.167678
0.13386
0.110656
0.0972943
0.0989346
0.175364
0.238247
0.186089
0.147977
0.120181
0.100705
0.089428
0.0917332
0.165738
0.305625
0.225066
0.170779
0.133356
0.107808
0.0924141
0.0913451
0.159362
0.378476
0.266404
0.194273
0.146725
0.115259
0.096238
0.0926688
0.157461
0.432066
0.29472
0.209678
0.155335
0.120175
0.0990767
0.0943255
0.158678
0.422639
0.290344
0.207835
0.154774
0.120339
0.0997402
0.0955615
0.161963
0.359014
0.257141
0.190545
0.145979
0.116306
0.098633
0.096768
0.168122
0.284987
0.217097
0.168754
0.134511
0.111073
0.097574
0.0993691
0.178989
0.240834
0.188682
0.150419
0.122508
0.103186
0.0928428
0.0993631
0.211862
0.307238
0.227315
0.173142
0.135659
0.1102
0.095569
0.0982632
0.202886
0.37971
0.268253
0.19642
0.148946
0.117598
0.0992741
0.0992338
0.199738
0.434069
0.296329
0.211534
0.157382
0.122422
0.102035
0.100745
0.200635
0.422114
0.290863
0.209144
0.15653
0.122426
0.102609
0.101954
0.20426
0.356434
0.256847
0.191463
0.147503
0.11826
0.101461
0.103312
0.211582
0.283263
0.217039
0.16968
0.135985
0.113018
0.100511
0.106397
0.22489
0.226709
0.189129
0.156295
0.129464
0.109441
0.0974593
0.0994557
0.173143
0.266906
0.218982
0.177138
0.142911
0.117158
0.100835
0.0990987
0.165834
0.298036
0.243807
0.195144
0.154826
0.124282
0.104448
0.0999765
0.162305
0.312488
0.255366
0.203548
0.160377
0.127606
0.106191
0.1006
0.16158
0.303832
0.248211
0.198189
0.156742
0.125378
0.105028
0.100315
0.163032
0.275663
0.225524
0.181634
0.145736
0.118788
0.10172
0.0996546
0.167154
0.235436
0.195622
0.160741
0.132271
0.111082
0.0983783
0.100096
0.174822
0.248664
0.201431
0.162668
0.132564
0.110908
0.0982276
0.100119
0.174614
0.301968
0.238376
0.186894
0.147424
0.11913
0.101736
0.0997513
0.167198
0.345581
0.270589
0.20858
0.160915
0.126843
0.10555
0.100721
0.163839
0.367004
0.285963
0.218818
0.167237
0.130464
0.10743
0.101461
0.163334
0.353198
0.275624
0.2118
0.162864
0.127976
0.106227
0.101237
0.164902
0.312084
0.245412
0.191517
0.150291
0.120867
0.102845
0.10068
0.169203
0.257984
0.208075
0.167137
0.135456
0.11278
0.099543
0.101358
0.17739
0.269062
0.211403
0.167136
0.134385
0.111537
0.0983434
0.100102
0.175356
0.33869
0.25582
0.194389
0.150333
0.120105
0.101951
0.0997683
0.167962
0.400742
0.297
0.219858
0.16523
0.128304
0.105952
0.100866
0.164908
0.432397
0.317231
0.232118
0.172317
0.13222
0.107992
0.101762
0.164725
0.410336
0.302881
0.223417
0.167354
0.129597
0.106831
0.101654
0.166449
0.350798
0.2638
0.199467
0.15352
0.122184
0.10348
0.101241
0.17091
0.279716
0.218787
0.172113
0.137764
0.113957
0.100307
0.10216
0.179563
0.282815
0.21704
0.16921
0.135015
0.111567
0.0980634
0.0996665
0.176337
0.367464
0.26715
0.198364
0.151541
0.120314
0.10176
0.0994182
0.169023
0.45017
0.316647
0.226769
0.167395
0.128848
0.10593
0.100669
0.166322
0.494071
0.34191
0.240847
0.175117
0.133034
0.108148
0.101747
0.166513
0.46248
0.323746
0.230844
0.169824
0.13041
0.107091
0.101787
0.168437
0.38276
0.276609
0.20423
0.155305
0.122929
0.103838
0.101515
0.173069
0.295845
0.225829
0.175179
0.139221
0.114764
0.100815
0.102622
0.18215
0.288238
0.219247
0.170317
0.135709
0.112023
0.0983785
0.100133
0.180057
0.380546
0.27152
0.200021
0.152401
0.120857
0.102147
0.0999685
0.173189
0.478958
0.325918
0.229862
0.168722
0.129602
0.106474
0.101386
0.171019
0.535743
0.355259
0.2452
0.176903
0.134027
0.108866
0.102629
0.171608
0.495192
0.334354
0.234541
0.171542
0.131498
0.107935
0.102803
0.17367
0.399401
0.282586
0.206841
0.156877
0.124082
0.104779
0.102623
0.178259
0.304054
0.229734
0.177487
0.14087
0.116048
0.101883
0.103859
0.187341
0.286393
0.219219
0.171294
0.137223
0.113998
0.101319
0.107129
0.225993
0.375881
0.270293
0.200608
0.153854
0.122843
0.104986
0.106428
0.216756
0.474491
0.324403
0.230305
0.17021
0.131687
0.109345
0.107632
0.213398
0.537317
0.355386
0.246189
0.178655
0.136287
0.111839
0.108865
0.213686
0.49315
0.333908
0.235575
0.173419
0.133848
0.11098
0.109137
0.216101
0.396763
0.282579
0.208253
0.158947
0.126516
0.10791
0.109216
0.221874
0.303977
0.230955
0.179414
0.143125
0.118564
0.105168
0.110993
0.233418
0.200879
0.165958
0.136469
0.113061
0.0959788
0.0860378
0.0884386
0.15526
0.23239
0.187395
0.15027
0.121222
0.100033
0.0869874
0.0864139
0.145988
0.254813
0.20391
0.161347
0.128024
0.103715
0.0883973
0.0858271
0.140861
0.261955
0.209353
0.165119
0.130398
0.105039
0.0889519
0.0856962
0.139171
0.250964
0.201302
0.15976
0.127164
0.103307
0.08823
0.0857471
0.14065
0.226604
0.183526
0.147949
0.120001
0.0994989
0.0868198
0.0863845
0.145812
0.195234
0.16218
0.13423
0.111927
0.0955461
0.0859912
0.088559
0.155298
0.214939
0.1739
0.140995
0.115854
0.097969
0.0877383
0.0903254
0.159016
0.25425
0.199086
0.156458
0.124697
0.102265
0.0887172
0.0881925
0.149459
0.284109
0.219388
0.169238
0.132187
0.106182
0.090159
0.0875327
0.144164
0.294393
0.226439
0.173714
0.134836
0.107583
0.0906909
0.0873215
0.142319
0.279643
0.21657
0.167579
0.131262
0.105666
0.0898359
0.0872382
0.143561
0.24797
0.195094
0.154091
0.123369
0.101521
0.088239
0.087736
0.148488
0.209155
0.170124
0.138708
0.114539
0.0972102
0.0872304
0.0898187
0.157909
0.228408
0.181187
0.145133
0.118454
0.0997991
0.0891875
0.091789
0.162249
0.276469
0.210106
0.162104
0.127885
0.104299
0.090188
0.0895545
0.152429
0.315642
0.234482
0.176506
0.135968
0.1084
0.0916442
0.0888214
0.146994
0.330129
0.243291
0.181635
0.13881
0.109817
0.0921123
0.0885009
0.144966
0.310134
0.231184
0.174583
0.134835
0.107669
0.0910783
0.088239
0.145888
0.269107
0.205556
0.159349
0.126179
0.103137
0.0892377
0.088533
0.150455
0.221863
0.176895
0.142368
0.116609
0.0984394
0.0880015
0.0904621
0.159664
0.239054
0.186961
0.148607
0.120765
0.101415
0.0903448
0.0928028
0.1656
0.294932
0.218836
0.166694
0.130634
0.106078
0.0913692
0.0904904
0.155482
0.343479
0.246766
0.182359
0.139149
0.110305
0.0928267
0.0896911
0.149891
0.362188
0.257066
0.187959
0.142092
0.111683
0.093206
0.0892515
0.147649
0.33636
0.242715
0.179999
0.137673
0.109261
0.0919572
0.0887869
0.148223
0.285792
0.213298
0.163226
0.128298
0.104318
0.0898344
0.0888398
0.152393
0.231052
0.181612
0.144932
0.118064
0.0992277
0.0883367
0.0905677
0.161359
0.246726
0.191995
0.152224
0.123456
0.103417
0.0918974
0.0944263
0.171042
0.307212
0.225544
0.171006
0.133638
0.108197
0.0929218
0.0920487
0.160954
0.362768
0.255712
0.187428
0.142413
0.112496
0.0943665
0.091202
0.15537
0.384975
0.266983
0.193241
0.145331
0.113786
0.0946423
0.0906544
0.152956
0.353869
0.250843
0.184513
0.140483
0.111075
0.093181
0.0900044
0.153156
0.296191
0.218776
0.166563
0.130475
0.105736
0.0907902
0.0898376
0.156846
0.236898
0.185181
0.147294
0.119668
0.100291
0.0890712
0.0913922
0.165255
0.251415
0.196318
0.156069
0.126849
0.106663
0.0958057
0.102306
0.217432
0.312313
0.230343
0.175253
0.137291
0.111554
0.0967692
0.0994729
0.204961
0.369224
0.261021
0.191921
0.146214
0.115929
0.0982231
0.0984748
0.198343
0.392328
0.272412
0.197666
0.149048
0.117154
0.0984591
0.0978845
0.195662
0.359166
0.255281
0.188346
0.1438
0.114177
0.0968433
0.0971999
0.196052
0.299628
0.222202
0.169721
0.133312
0.108528
0.094305
0.097141
0.200753
0.239676
0.187915
0.14986
0.122087
0.102855
0.0925749
0.0991258
0.211424
0.00259722
0.00161254
0.00195361
0.00256868
0.00335662
0.00408582
0.00458367
0.00479442
0.00262579
0.00164016
0.00198653
0.00260668
0.00339206
0.00411085
0.00459414
0.00479036
0.00264441
0.00166103
0.00201148
0.00263437
0.00341344
0.00411707
0.00458505
0.00476962
0.00265809
0.00167311
0.00202286
0.00264217
0.00341524
0.00411514
0.00457858
0.0047589
0.00267535
0.00168444
0.0020356
0.00265704
0.00343263
0.00413478
0.00459961
0.00477925
0.00268724
0.00169207
0.00204703
0.00267537
0.00346087
0.00417259
0.00464491
0.00482862
0.00268477
0.00168851
0.00204533
0.00267751
0.00347107
0.00419244
0.00467404
0.00486497
0.00388066
0.00254683
0.00323213
0.00440539
0.00576649
0.00678477
0.00725761
0.00724221
0.00392737
0.00258759
0.00327584
0.00444756
0.0057923
0.0067895
0.00724197
0.00720993
0.00395336
0.00261241
0.00329743
0.00445731
0.00577869
0.00675331
0.00719029
0.00714779
0.00398063
0.00263026
0.00331018
0.00445902
0.0057672
0.00673221
0.00716239
0.00711603
0.00401495
0.00265272
0.00333572
0.00448942
0.00580114
0.00676802
0.00719827
0.00715004
0.00404285
0.00267366
0.00336706
0.00453846
0.00586858
0.00684892
0.00728591
0.00723963
0.00404765
0.0026762
0.00337646
0.00456088
0.0059098
0.00690656
0.00735511
0.00731532
0.00625701
0.00453406
0.0061653
0.00876363
0.010932
0.0119383
0.0119632
0.0112983
0.00632894
0.00458197
0.00619648
0.00876436
0.0109015
0.011886
0.0118944
0.0112162
0.0063581
0.00459219
0.0061754
0.00869573
0.0108041
0.0117737
0.0117742
0.0110914
0.00639892
0.0046064
0.00616663
0.00865288
0.0107449
0.0117086
0.0117082
0.0110269
0.00646208
0.00464906
0.00621396
0.00870359
0.0107971
0.0117624
0.0117626
0.0110802
0.00652315
0.00470527
0.00629925
0.0088261
0.0109386
0.0119138
0.0119173
0.0112328
0.00654504
0.00473105
0.00635238
0.008919
0.0110613
0.0120525
0.0120625
0.0113783
0.0111263
0.00964417
0.0143419
0.0192688
0.0214448
0.0214429
0.0200264
0.0178222
0.0111804
0.00963528
0.0142562
0.0191268
0.0212871
0.0212851
0.0198696
0.0176638
0.0111588
0.00954517
0.0140538
0.0188944
0.0210604
0.0210725
0.0196677
0.0174691
0.0111788
0.00949499
0.0139119
0.018732
0.0209071
0.0209381
0.0195512
0.0173683
0.0112773
0.00955609
0.0139605
0.0187649
0.0209432
0.0209883
0.0196149
0.0174405
0.0114104
0.00969838
0.0141617
0.0189734
0.0211592
0.0212133
0.0198453
0.0176677
0.0114948
0.00981236
0.0143564
0.0192195
0.0214278
0.0214873
0.0201138
0.0179234
0.0226251
0.0274388
0.0378001
0.0417018
0.0411596
0.0377717
0.032877
0.0274947
0.0224274
0.0271613
0.037435
0.0413068
0.0407897
0.0374526
0.0326
0.027239
0.0221141
0.0267162
0.0369479
0.0408529
0.0404051
0.0371374
0.0323276
0.0269917
0.0219326
0.0263648
0.0365481
0.0404878
0.0401112
0.0369162
0.032161
0.0268697
0.0220139
0.0263205
0.036433
0.0403761
0.0400405
0.0369035
0.0322019
0.0269471
0.0223109
0.0265174
0.036578
0.0405271
0.0402224
0.0371291
0.0324693
0.0272292
0.0226253
0.0268308
0.0369355
0.0409255
0.0406427
0.0375532
0.0328841
0.0276229
0.0833489
0.0844092
0.0850878
0.0811936
0.0733339
0.0628709
0.0513227
0.0402059
0.0825744
0.0842109
0.0848136
0.0807337
0.0727912
0.0623779
0.0509237
0.0398465
0.0816109
0.0837603
0.0842984
0.0801428
0.0722492
0.0619585
0.0505928
0.0395543
0.0806512
0.0830409
0.0836143
0.0795284
0.0717629
0.0616209
0.0503664
0.0394155
0.079999
0.0822825
0.0829651
0.0790531
0.0714501
0.0614545
0.0503336
0.0394759
0.0797891
0.0816019
0.0824369
0.0787762
0.0713711
0.061521
0.0505435
0.0397722
0.0802073
0.0815826
0.0824905
0.0790243
0.0717702
0.0619902
0.0510449
0.0402868
0.00237965
0.00144867
0.00177225
0.00235648
0.0031225
0.00388405
0.00444953
0.00473438
0.00230608
0.00140503
0.00172398
0.00229819
0.00305104
0.00381147
0.00438773
0.00468923
0.00226588
0.00137993
0.00169556
0.0022638
0.00300832
0.00376869
0.00435128
0.00466439
0.00226651
0.0013764
0.0016896
0.00225629
0.00299865
0.00375543
0.00434007
0.00465968
0.00229108
0.00138492
0.00169464
0.00225919
0.00299884
0.00375575
0.00434449
0.00466992
0.00232537
0.00139858
0.00170423
0.0022662
0.00300637
0.00376495
0.00435614
0.00468406
0.00236281
0.00141779
0.00172274
0.00228606
0.00302756
0.00378502
0.0043725
0.00469734
0.00357754
0.00229769
0.00293809
0.00403442
0.00544986
0.00658479
0.00719824
0.00729493
0.00345922
0.00221942
0.00284456
0.00391581
0.00530702
0.0064493
0.00708814
0.00721422
0.00338043
0.00216557
0.0027787
0.0038334
0.00521066
0.0063596
0.00701566
0.00716301
0.0033527
0.00214249
0.00274761
0.0037939
0.00516313
0.00631305
0.00697921
0.00714042
0.00336452
0.00214156
0.00274011
0.00378157
0.00514939
0.00630274
0.00697534
0.00714476
0.00340019
0.00215499
0.00274877
0.00378799
0.00515632
0.00631049
0.00698521
0.0071575
0.00344513
0.00217979
0.00277235
0.00381136
0.00517678
0.00632315
0.00699151
0.00716115
0.00578345
0.00414561
0.00573199
0.00830319
0.0107011
0.011928
0.0121311
0.0115999
0.00557471
0.00399071
0.00552755
0.00801895
0.0104305
0.0116936
0.0119431
0.0114609
0.00540908
0.00387026
0.00537523
0.00782284
0.0102529
0.0115452
0.0118266
0.0113758
0.00531204
0.0037988
0.0052869
0.0077182
0.0101561
0.0114653
0.011766
0.0113346
0.00529052
0.00377528
0.00525708
0.00769264
0.0101344
0.0114502
0.0117577
0.0113355
0.00532385
0.00378591
0.00526442
0.00770569
0.0101401
0.0114518
0.0117605
0.011343
0.00537438
0.00381174
0.00528211
0.00771487
0.0101171
0.0114144
0.0117221
0.0113116
0.0104945
0.00910325
0.0136011
0.0190766
0.0216398
0.0219171
0.0206887
0.018603
0.0101186
0.00877536
0.013097
0.0185871
0.0211959
0.021539
0.0203874
0.0183791
0.00979616
0.00853679
0.0127892
0.0183273
0.0209809
0.0213636
0.0202477
0.0182722
0.00957808
0.00839773
0.0126515
0.0182297
0.0209083
0.0213027
0.0201968
0.0182327
0.00950575
0.00835751
0.0126508
0.0182536
0.0209318
0.0213175
0.0202053
0.018242
0.00953521
0.00836187
0.0126685
0.0182465
0.0209078
0.0212877
0.02018
0.0182295
0.00956101
0.00833867
0.0126053
0.0180996
0.0207287
0.0211099
0.0200251
0.0181102
0.0220814
0.0266427
0.0377069
0.0421104
0.0419988
0.038974
0.0343172
0.0290393
0.021343
0.0258735
0.0369569
0.0414228
0.0413813
0.0384395
0.0338859
0.0287173
0.0208364
0.0255529
0.0367148
0.0412415
0.0412332
0.0383126
0.0337793
0.0286294
0.0205756
0.0255119
0.0368119
0.0413711
0.0413394
0.0383765
0.0338082
0.0286367
0.0205612
0.0256332
0.0370518
0.0415953
0.0415081
0.0384831
0.0338683
0.0286729
0.020592
0.0255985
0.0369843
0.0415014
0.0414011
0.0383773
0.0337756
0.0286082
0.0204295
0.0252997
0.0365899
0.0410946
0.041003
0.0380002
0.0334403
0.0283419
0.0819934
0.0843089
0.085516
0.0820242
0.0745661
0.064596
0.0535356
0.0426599
0.0805286
0.0836209
0.0849888
0.081463
0.0739651
0.0639995
0.053015
0.0422651
0.0802422
0.0840053
0.0853713
0.0816773
0.0740358
0.0639914
0.0529866
0.0422388
0.0807972
0.0849174
0.0861781
0.082295
0.0744644
0.0642594
0.0531438
0.0423296
0.0815084
0.0855694
0.0867184
0.082755
0.0748231
0.0645017
0.0532826
0.0424063
0.0812866
0.0850224
0.0862673
0.0824419
0.0745944
0.0643155
0.0531172
0.0422755
0.0803757
0.0839062
0.0853411
0.0817435
0.0740584
0.0638473
0.0526651
0.0418808
0.00240637
0.00144202
0.00174821
0.00231489
0.00306074
0.00381285
0.00439091
0.00470498
0.00245011
0.00146786
0.00177585
0.00234615
0.00309786
0.00384167
0.00440155
0.00469788
0.00248426
0.00148975
0.00179768
0.0023665
0.00311686
0.00385012
0.00439483
0.00467229
0.00251037
0.0015105
0.00182038
0.0023915
0.00314377
0.00386877
0.00439982
0.00466082
0.00252668
0.00152996
0.00184448
0.00242233
0.00318031
0.00390642
0.00442879
0.0046766
0.00254483
0.00155367
0.00187628
0.00246612
0.00323683
0.00396679
0.00448331
0.00471928
0.00256753
0.00158171
0.00191411
0.00251768
0.00329957
0.00403154
0.00454004
0.00476398
0.00350625
0.00221603
0.00281072
0.00385351
0.00521855
0.00634945
0.00700075
0.00715611
0.00357396
0.00225783
0.00285631
0.00390774
0.00526309
0.00637128
0.00699715
0.00712882
0.00363206
0.00229551
0.00289619
0.00395357
0.00529203
0.00637437
0.00697049
0.00707521
0.00368171
0.00233549
0.00294459
0.00401488
0.00534325
0.00640351
0.00697173
0.00705004
0.00372558
0.00237971
0.00300414
0.00409702
0.00543285
0.00648197
0.00702491
0.00707714
0.00377326
0.00243359
0.00308146
0.00420773
0.00556091
0.00660396
0.00712211
0.00714833
0.00382483
0.00249166
0.00316192
0.00431735
0.00567979
0.00671255
0.00720721
0.00721145
0.005455
0.00385819
0.00532618
0.00776168
0.0101255
0.011396
0.0116864
0.0112651
0.00555089
0.00391427
0.00537846
0.00781039
0.0101347
0.0113711
0.0116329
0.0111871
0.00564752
0.00397299
0.00543323
0.00785711
0.0101443
0.0113394
0.011562
0.0110821
0.0057518
0.0040528
0.00552624
0.00796036
0.0102149
0.0113673
0.0115473
0.0110299
0.00587586
0.0041655
0.00568009
0.00816357
0.0103999
0.0115086
0.0116396
0.0110761
0.00601608
0.00430581
0.00588076
0.00843591
0.0106603
0.0117275
0.0118082
0.0111954
0.00614666
0.00443547
0.00605143
0.00864346
0.0108408
0.0118739
0.011922
0.0112786
0.00962744
0.00834828
0.0126006
0.018013
0.0206018
0.020968
0.0198818
0.0179733
0.00971549
0.00837445
0.0126146
0.0179512
0.0204959
0.0208341
0.019727
0.0178006
0.00983704
0.00843291
0.012672
0.0179475
0.0204448
0.0207369
0.0195857
0.0176181
0.0100305
0.00858235
0.0128707
0.0180837
0.0205193
0.0207495
0.0195384
0.017519
0.0103323
0.00887902
0.0133294
0.0184965
0.0208516
0.0209884
0.0196865
0.0175877
0.0106882
0.00925781
0.013907
0.0190218
0.0212968
0.0213423
0.0199499
0.0177691
0.0109615
0.00951506
0.0142248
0.0192383
0.0214514
0.0214606
0.0200464
0.0178461
0.0203194
0.0251332
0.0363551
0.0408035
0.0406871
0.0376863
0.033142
0.0280707
0.020241
0.0251379
0.0362502
0.0406106
0.0404436
0.037419
0.0328592
0.0277728
0.0202735
0.0251905
0.0362155
0.0405218
0.0403193
0.0372536
0.0326433
0.0275008
0.0205728
0.0255212
0.0364737
0.0407067
0.040421
0.037264
0.0325618
0.0273382
0.0212946
0.0264286
0.0373278
0.0414354
0.0409884
0.0376546
0.0327867
0.0274249
0.0221778
0.0274224
0.0382075
0.0421963
0.0416123
0.0381326
0.0331277
0.0276487
0.0225719
0.0275717
0.0381173
0.0420574
0.0414817
0.0380292
0.0330667
0.0276297
0.0801065
0.083751
0.0851301
0.0814455
0.0736886
0.0634496
0.0522587
0.0414928
0.0804979
0.0845533
0.0856428
0.0815514
0.0735108
0.0631449
0.0518967
0.0410924
0.0808936
0.0851622
0.0859483
0.0815648
0.0733794
0.0629495
0.051635
0.0407461
0.0819066
0.0858173
0.0863892
0.0818521
0.0735516
0.0629992
0.0515438
0.0405168
0.0844045
0.0870319
0.0873916
0.0827797
0.0743413
0.0635653
0.0518575
0.0405989
0.086312
0.0874693
0.0877854
0.0833362
0.0749437
0.0640686
0.0521993
0.0407856
0.0847176
0.0856235
0.0862068
0.0821877
0.0741615
0.063514
0.0517997
0.0405348
0.00267169
0.00167195
0.00202405
0.00264946
0.00343881
0.00416093
0.00464691
0.00484279
0.00265255
0.00164697
0.00198943
0.00259985
0.00337542
0.00409045
0.00457704
0.00477673
0.00263293
0.00162132
0.00195451
0.00255103
0.00331445
0.00402414
0.00451339
0.00471903
0.00261519
0.00159887
0.00192608
0.00251457
0.00327282
0.00398253
0.00447743
0.00469149
0.00259028
0.0015757
0.00190067
0.00248717
0.00324858
0.00396714
0.00447435
0.00470098
0.0025411
0.00154306
0.00186832
0.00245572
0.00322409
0.00395895
0.00448561
0.0047299
0.00246593
0.00149891
0.00182513
0.00241494
0.00318764
0.00394067
0.00448956
0.00475484
0.00403246
0.00265234
0.00334436
0.0045195
0.0058705
0.00687501
0.00733367
0.00730081
0.0040016
0.00260832
0.00327875
0.00442267
0.00575813
0.00676292
0.00723444
0.00721322
0.00396539
0.00256155
0.00321144
0.00432627
0.00564875
0.00665768
0.00714626
0.00713988
0.00392918
0.00252153
0.00315953
0.00425894
0.00558056
0.00659956
0.00710619
0.00711558
0.00388553
0.0024856
0.00312241
0.00422286
0.00556116
0.00660079
0.0071286
0.00715523
0.00381186
0.0024396
0.0030816
0.00419069
0.00555987
0.00663289
0.00718766
0.00723437
0.00370484
0.00237719
0.00302494
0.00414056
0.00554842
0.00665966
0.00724391
0.00731252
0.00651918
0.00469492
0.00631106
0.00888092
0.0110469
0.0120522
0.0120693
0.0113889
0.00644397
0.00459897
0.0061679
0.00868203
0.0108576
0.0118853
0.0119278
0.0112713
0.00635407
0.00449667
0.00602072
0.00848229
0.0106701
0.0117291
0.011804
0.011176
0.00627029
0.00441809
0.0059219
0.00836342
0.0105694
0.0116602
0.0117642
0.0111604
0.00619649
0.00436916
0.00588384
0.00834431
0.0105867
0.0117067
0.0118349
0.0112499
0.00610209
0.00432724
0.00587852
0.008393
0.0106917
0.0118421
0.0119899
0.0114173
0.0059717
0.00426885
0.00586641
0.00845365
0.010819
0.0120058
0.0121703
0.0116042
0.011472
0.00978952
0.0143619
0.0192985
0.0215333
0.0215929
0.0202068
0.0180009
0.0112884
0.00955232
0.0139825
0.0189645
0.0212506
0.021362
0.0200226
0.0178563
0.011071
0.00929366
0.0135629
0.0185981
0.0209551
0.0211374
0.0198591
0.0177409
0.0109032
0.00913351
0.0133276
0.0184226
0.0208381
0.0210715
0.019835
0.0177484
0.0108181
0.00910529
0.0133343
0.0184974
0.020949
0.0212045
0.0199843
0.0179105
0.0107827
0.00918225
0.0135552
0.0188232
0.0212987
0.0215442
0.0203056
0.0182156
0.0107383
0.00927486
0.0138261
0.0192341
0.0217499
0.021985
0.0207136
0.0185866
0.0227127
0.0270826
0.0373424
0.0413593
0.0410459
0.0378994
0.0331638
0.027838
0.0222449
0.0266088
0.0369702
0.0410224
0.0407496
0.0376589
0.0329784
0.027699
0.021678
0.0258661
0.0362725
0.0404435
0.0403207
0.0373698
0.0327966
0.0275895
0.0213704
0.0254936
0.0359708
0.0402323
0.0402035
0.0373345
0.0328209
0.0276507
0.0214292
0.0256497
0.0362462
0.0405349
0.0404969
0.037612
0.0330881
0.0279122
0.0218362
0.0262951
0.0370922
0.0413862
0.041261
0.0382652
0.0336447
0.0283992
0.0223334
0.0269548
0.0379223
0.0422652
0.0421133
0.0390502
0.034343
0.0290088
0.0815572
0.0828707
0.0836544
0.0800441
0.0726322
0.062698
0.0516103
0.0407093
0.0824176
0.0839323
0.0844494
0.0804234
0.072708
0.0626538
0.0515463
0.0406526
0.0817156
0.0836575
0.0840398
0.0798761
0.0722231
0.062348
0.0514073
0.0406187
0.0812877
0.0835482
0.0839074
0.0797195
0.0721301
0.0623656
0.0515213
0.0407858
0.0816469
0.0839743
0.0844357
0.0802906
0.072658
0.0628254
0.0519349
0.0411749
0.0823308
0.0846975
0.0854222
0.0814658
0.0737868
0.0637797
0.052718
0.0418355
0.0828274
0.0848732
0.0858772
0.082239
0.0747079
0.0647085
0.0535963
0.0426369
0.0062292
0.00349559
0.00626929
0.00475654
0.00465085
0.00449729
0.00432776
0.00418636
0.00416222
0.00457367
0.00832881
0.00474227
0.00462994
0.00447107
0.00429739
0.00415266
0.00412525
0.00453106
0.00825647
0.00471492
0.00459906
0.00443805
0.00426322
0.00411769
0.00408881
0.00448937
0.00817974
0.00470193
0.004585
0.00442349
0.0042485
0.00410291
0.00407368
0.00447256
0.00815089
0.0047206
0.00460201
0.00443864
0.00426177
0.00411448
0.00408405
0.00448308
0.00817019