/*--------------------------------*- C++ -*----------------------------------*\
| =========                 |                                                 |
| \\      /  F ield         | OpenFOAM: The Open Source CFD Toolbox           |
|  \\    /   O peration     | Version:  plus.master.MPPICInterFoam            |
|   \\  /    A nd           | Web:      www.OpenFOAM.com                      |
|    \\/     M anipulation  |                                                 |
\*---------------------------------------------------------------------------*/
FoamFile
{
    version     2.0;
    format      ascii;
    class       volScalarField;
    location    "5.8";
    object      p_rgh;
}
// * * * * * * * * * * * * * * * * * * * * * * * * * * * * * * * * * * * * * //

dimensions      [1 -1 -2 0 0 0 0];

internalField   nonuniform List<scalar> 
11822
(
5731.77
5687.22
5733.84
5707.22
5734.16
5733.17
5731.83
5732.6
5713.19
5627.37
5727.84
5419.89
5657.66
5732.92
5733.01
5734.41
5727.3
5663.61
5685.4
5442.83
5733.6
5732.95
5734.23
5727.79
5675.09
5682.9
5418.85
5733.72
5732.48
5724.99
5671.1
5729.46
5213.1
5636.01
5733.2
5731.64
5719.58
5733.63
5728.86
5734.02
5730.73
5732.18
5730.39
5731.58
5732.32
5732.68
5732.53
5731.9
5730.87
5730.68
5689.27
5733.57
5734.03
5733.64
5729.05
5730.16
5732.01
5694.26
4619.53
5398.86
4998.28
5615.21
5731.75
5732.85
5520.91
5725.15
5421.98
4569.8
5342.81
5732.79
5732.94
5552.38
5726.63
5432.51
4732.34
5251.41
5733.09
5732.38
5708.44
4651.72
5588.4
4412.61
5609.27
5732.63
5731.21
5669.95
5733.68
5734.27
5734.18
5717.37
5731.43
5729.64
5731.04
5732
5732.42
5732.13
5731.22
5729.82
5724.98
5687.16
5714.24
5724.86
5668.67
5707.16
5724.32
5725.92
5530.71
3848.99
3309.26
4482.76
5463.92
5725.3
5726.44
5072.33
4750.01
4846.34
2260.81
5087.21
5725.62
5726.69
5038.82
5092.37
4971.76
1942.03
4967.24
5725.89
5726.55
5533.56
3613.36
3761.28
3877.27
5428.94
5726.36
5726
5589.93
5681
5723.12
5671.74
5673.04
5726.03
5724.92
5725.74
5726.03
5726.01
5726.23
5725.93
5725.03
5715.48
5667.22
5524.33
5476.34
5424.63
5656.51
5715.67
5715.69
5013.46
3274.68
1521.57
3560.13
5020.26
5715.05
5695.97
4275.22
1590.57
3934.16
1093.75
4264.41
5711.61
5690.77
4307.62
1951.6
4637.47
938.904
4068.17
5680.63
5699.08
4965.07
2947.47
1285.71
2965.78
4848.31
5714.89
5714.53
5463.82
5354.42
5397.45
5306.12
5562.08
5716.55
5717.81
5716.98
5715.89
5715.12
5715.89
5716.78
5717.48
5707.03
5597.31
5059.56
4719.93
4910.69
5548.87
5707.2
5691.51
4111.84
2241.72
1196.32
2201.47
4047.35
5698.83
5462.11
2947.95
792.904
2431.18
778.541
2753.87
5453.95
5432.91
3078.94
795.619
3951.39
773.304
2483.23
5280.08
5584.17
3937.6
1944.15
785.026
1593.49
3540.45
5632.18
5698.16
5245.65
4505.57
4180.06
4293.6
5287.95
5706.72
5712.05
5709.04
5705.74
5703.37
5704.73
5707.57
5710.71
5717.56
5558.07
4643.31
3956.23
4409.77
5481.58
5717.35
5665.8
3517.72
1230.99
889.178
1044.85
3113.44
5646.72
5220.34
1848.28
707.173
825.024
699.192
1338.6
4938.5
5156.76
1908.24
705.231
1394.62
697.808
1008.51
4536.67
5518.95
3010.53
947.296
699.847
743.868
2084.17
5388.78
5710.09
5119.53
3502.14
2548.19
2947.65
4937.73
5717.08
5721.4
5718.98
5714.4
5610.19
5677.61
5717.8
5720.24
5730.81
5730.06
5729.5
5729.03
5728.59
5728.17
5727.81
5727.54
5731.8
5730.91
5730.1
5729.39
5728.77
5728.25
5727.83
5727.55
5732.42
5731.38
5730.43
5729.59
5728.87
5728.28
5727.81
5727.5
5732.49
5731.41
5730.44
5729.58
5728.85
5728.23
5727.75
5727.43
5732.03
5731.02
5730.12
5729.33
5728.64
5728.07
5727.62
5727.33
5731.18
5730.32
5729.57
5728.91
5728.32
5727.83
5727.44
5727.19
5730.22
5729.52
5728.94
5728.45
5728
5727.6
5727.27
5727.05
5728.79
5728.2
5727.91
5727.69
5727.39
5727.02
5726.63
5726.34
5730.54
5729.8
5729.09
5728.4
5727.78
5727.23
5726.75
5726.41
5731.65
5730.59
5729.62
5728.74
5727.99
5727.35
5726.82
5726.46
5731.88
5730.7
5729.67
5728.77
5728
5727.35
5726.82
5726.47
5731.37
5730.27
5729.36
5728.56
5727.85
5727.25
5726.76
5726.42
5730.26
5729.42
5728.75
5728.14
5727.57
5727.06
5726.64
5726.34
5729.06
5728.4
5727.99
5727.63
5727.25
5726.86
5726.5
5726.25
5723.39
5723.47
5723.9
5724.26
5724.37
5724.25
5724
5723.77
5725.29
5725.46
5725.42
5725.21
5724.92
5724.58
5724.22
5723.94
5726.39
5726.3
5725.99
5725.59
5725.18
5724.77
5724.38
5724.09
5726.69
5726.46
5726.09
5725.67
5725.25
5724.85
5724.46
5724.17
5726.54
5726.23
5725.93
5725.58
5725.21
5724.85
5724.49
5724.21
5725.73
5725.58
5725.49
5725.32
5725.06
5724.77
5724.45
5724.21
5724.76
5724.61
5724.74
5724.85
5724.81
5724.64
5724.4
5724.2
5716.34
5717.58
5719.06
5720.27
5721
5721.32
5721.35
5721.26
5717.34
5719.07
5720.32
5721.08
5721.49
5721.64
5721.6
5721.48
5717.84
5719.59
5720.68
5721.33
5721.7
5721.83
5721.79
5721.68
5717.89
5719.65
5720.75
5721.43
5721.82
5721.97
5721.94
5721.83
5718.26
5719.79
5720.87
5721.58
5721.97
5722.14
5722.11
5722
5718.49
5719.84
5720.96
5721.71
5722.12
5722.28
5722.25
5722.16
5718.57
5719.52
5720.64
5721.55
5722.11
5722.34
5722.35
5722.28
5710.41
5713.14
5715.67
5717.63
5718.95
5719.8
5720.42
5720.74
5709.38
5713.38
5716.25
5718.14
5719.35
5720.11
5720.7
5721
5708.39
5713.1
5716.17
5718.17
5719.48
5720.31
5720.94
5721.25
5708.14
5713.09
5716.25
5718.31
5719.65
5720.53
5721.16
5721.48
5709.68
5713.9
5716.81
5718.76
5720.02
5720.85
5721.46
5721.78
5711.7
5715.03
5717.58
5719.33
5720.46
5721.19
5721.77
5722.07
5713.54
5715.83
5717.9
5719.55
5720.67
5721.4
5721.98
5722.28
5719.77
5722.09
5724.11
5725.65
5726.7
5727.36
5727.77
5728
5718.62
5721.57
5723.89
5725.5
5726.56
5727.24
5727.66
5727.89
5717.81
5721.11
5723.61
5725.35
5726.52
5727.25
5727.7
5727.96
5717.48
5721.09
5723.68
5725.49
5726.7
5727.45
5727.91
5728.19
5718.77
5721.98
5724.4
5726.1
5727.23
5727.94
5728.38
5728.66
5720.5
5723.25
5725.4
5726.91
5727.91
5728.55
5728.97
5729.23
5722.54
5724.62
5726.39
5727.72
5728.63
5729.22
5729.62
5729.87
5729.91
5729.24
5728.68
5728.21
5727.79
5727.4
5727.07
5726.83
5730.75
5729.95
5729.23
5728.6
5728.06
5727.6
5727.21
5726.95
5731.48
5730.58
5729.74
5728.99
5728.35
5727.81
5727.36
5727.07
5731.89
5730.95
5730.06
5729.26
5728.56
5727.97
5727.5
5727.18
5731.94
5731
5730.12
5729.33
5728.65
5728.06
5727.6
5727.28
5731.57
5730.7
5729.91
5729.21
5728.6
5728.07
5727.64
5727.34
5730.85
5730.1
5729.49
5728.97
5728.49
5728.05
5727.66
5727.38
5728.77
5728.17
5727.78
5727.51
5727.22
5726.87
5726.51
5726.25
5730.11
5729.27
5728.63
5728.07
5727.57
5727.1
5726.67
5726.36
5731.22
5730.16
5729.27
5728.52
5727.86
5727.29
5726.8
5726.46
5731.76
5730.59
5729.59
5728.75
5728.03
5727.41
5726.89
5726.53
5731.61
5730.49
5729.57
5728.76
5728.05
5727.44
5726.92
5726.57
5730.77
5729.86
5729.13
5728.47
5727.87
5727.33
5726.86
5726.52
5729.46
5728.71
5728.27
5727.94
5727.56
5727.14
5726.73
5726.42
5724.54
5724.42
5724.63
5724.92
5725.02
5724.92
5724.71
5724.51
5725.89
5725.79
5725.71
5725.59
5725.42
5725.18
5724.88
5724.63
5726.87
5726.59
5726.29
5725.96
5725.63
5725.3
5724.95
5724.68
5727.2
5726.85
5726.46
5726.07
5725.7
5725.33
5724.94
5724.66
5726.86
5726.59
5726.3
5725.96
5725.62
5725.25
5724.87
5724.59
5725.94
5725.81
5725.75
5725.58
5725.33
5725.02
5724.69
5724.43
5724.49
5724.32
5724.53
5724.77
5724.8
5724.66
5724.41
5724.18
5718.79
5719.74
5720.88
5721.96
5722.66
5722.98
5723.02
5722.95
5719.19
5720.56
5721.67
5722.43
5722.9
5723.12
5723.11
5723
5719.24
5720.79
5721.81
5722.49
5722.89
5723.07
5723.04
5722.93
5718.84
5720.61
5721.67
5722.34
5722.75
5722.92
5722.88
5722.77
5718.59
5720.31
5721.45
5722.15
5722.57
5722.73
5722.69
5722.58
5718.29
5719.86
5721.09
5721.86
5722.3
5722.47
5722.45
5722.35
5717.61
5718.65
5719.94
5721.04
5721.72
5722.04
5722.07
5721.99
5714.52
5716.65
5718.71
5720.39
5721.53
5722.29
5722.85
5723.13
5713.47
5716.58
5718.93
5720.56
5721.63
5722.34
5722.88
5723.15
5712.17
5715.93
5718.5
5720.25
5721.39
5722.13
5722.7
5723
5710.8
5715.17
5717.97
5719.82
5721.04
5721.82
5722.41
5722.72
5710.8
5714.97
5717.74
5719.54
5720.73
5721.51
5722.11
5722.43
5711.55
5715.11
5717.67
5719.35
5720.45
5721.17
5721.79
5722.08
5712.35
5714.74
5716.98
5718.73
5719.91
5720.69
5721.29
5721.6
5723.52
5725.58
5727.37
5728.74
5729.66
5730.26
5730.67
5730.96
5722.07
5724.76
5726.81
5728.25
5729.21
5729.83
5730.26
5730.56
5720.69
5723.75
5726.03
5727.61
5728.67
5729.35
5729.82
5730.14
5719.41
5722.84
5725.28
5726.98
5728.14
5728.87
5729.36
5729.7
5719.39
5722.64
5725.02
5726.68
5727.82
5728.54
5729.02
5729.34
5720.11
5722.93
5725.12
5726.65
5727.69
5728.35
5728.79
5729.06
5721.34
5723.51
5725.35
5726.74
5727.68
5728.28
5728.67
5728.91
5731.04
5730.24
5729.59
5729.07
5728.6
5728.17
5727.78
5727.5
5731.98
5731.04
5730.24
5729.55
5728.94
5728.41
5727.97
5727.64
5732.75
5731.71
5730.78
5729.97
5729.25
5728.63
5728.12
5727.75
5733.18
5732.05
5731.06
5730.17
5729.39
5728.74
5728.2
5727.83
5732.9
5731.85
5730.9
5730.05
5729.31
5728.68
5728.17
5727.82
5732.08
5731.18
5730.36
5729.65
5729.03
5728.49
5728.04
5727.73
5730.93
5730.23
5729.63
5729.14
5728.68
5728.25
5727.88
5727.62
5729.74
5728.82
5728.24
5727.87
5727.51
5727.13
5726.73
5726.42
5731.11
5729.98
5729.17
5728.52
5727.93
5727.41
5726.93
5726.56
5732.19
5730.88
5729.87
5729.03
5728.29
5727.64
5727.07
5726.67
5732.72
5731.31
5730.18
5729.24
5728.44
5727.74
5727.14
5726.71
5732.29
5731.02
5729.97
5729.08
5728.31
5727.65
5727.08
5726.67
5730.94
5730
5729.24
5728.56
5727.96
5727.41
5726.91
5726.56
5729.04
5728.36
5727.99
5727.73
5727.43
5727.06
5726.68
5726.39
5724.79
5724.36
5724.36
5724.56
5724.63
5724.53
5724.28
5724.04
5725.94
5725.57
5725.42
5725.26
5725.04
5724.77
5724.43
5724.13
5726.56
5726.29
5726.01
5725.66
5725.29
5724.89
5724.47
5724.14
5726.72
5726.53
5726.19
5725.77
5725.35
5724.92
5724.47
5724.12
5726.65
5726.4
5726.02
5725.63
5725.23
5724.81
5724.38
5724.05
5725.58
5725.44
5725.34
5725.16
5724.91
5724.6
5724.24
5723.95
5723.71
5723.57
5723.87
5724.2
5724.32
5724.23
5723.99
5723.77
5717.8
5718.59
5719.67
5720.74
5721.44
5721.78
5721.8
5721.69
5717.75
5719.15
5720.29
5721.1
5721.59
5721.8
5721.76
5721.62
5717.25
5719.15
5720.34
5721.07
5721.5
5721.68
5721.62
5721.48
5716.88
5719.03
5720.24
5720.97
5721.39
5721.58
5721.53
5721.39
5717.38
5719.12
5720.22
5720.94
5721.37
5721.52
5721.46
5721.33
5717.23
5718.71
5719.91
5720.77
5721.26
5721.45
5721.42
5721.29
5716.51
5717.55
5718.95
5720.13
5720.87
5721.22
5721.26
5721.18
5712.27
5714.56
5716.65
5718.35
5719.54
5720.33
5720.86
5721.16
5710.23
5713.78
5716.38
5718.21
5719.37
5720.13
5720.68
5721
5708
5712.64
5715.66
5717.66
5718.98
5719.83
5720.49
5720.79
5706.23
5711.78
5715.13
5717.3
5718.71
5719.63
5720.35
5720.66
5707.31
5712.14
5715.31
5717.42
5718.78
5719.62
5720.29
5720.6
5708.85
5712.82
5715.67
5717.62
5718.88
5719.68
5720.31
5720.61
5710.38
5713.04
5715.52
5717.45
5718.76
5719.61
5720.25
5720.6
5721.07
5723.17
5724.94
5726.3
5727.23
5727.82
5728.19
5728.41
5718.98
5721.72
5723.89
5725.44
5726.46
5727.09
5727.49
5727.72
5717.46
5720.64
5723.01
5724.72
5725.87
5726.58
5727
5727.23
5716.28
5719.84
5722.45
5724.29
5725.52
5726.28
5726.73
5726.97
5717.06
5720.32
5722.77
5724.52
5725.67
5726.37
5726.78
5727
5718.19
5721.11
5723.37
5724.97
5726.02
5726.67
5727.07
5727.28
5719.59
5721.93
5723.96
5725.49
5726.51
5727.15
5727.55
5727.76
5730.06
5729.35
5728.79
5728.31
5727.88
5727.5
5727.18
5726.95
5730.85
5729.98
5729.22
5728.57
5728.01
5727.55
5727.18
5726.93
5731.38
5730.4
5729.52
5728.76
5728.11
5727.58
5727.16
5726.88
5731.55
5730.55
5729.64
5728.84
5728.15
5727.58
5727.13
5726.83
5731.28
5730.33
5729.47
5728.71
5728.06
5727.52
5727.08
5726.79
5730.68
5729.84
5729.1
5728.45
5727.9
5727.42
5727.04
5726.77
5729.81
5729.13
5728.59
5728.13
5727.71
5727.32
5726.99
5726.76
5728.91
5728.29
5727.9
5727.57
5727.22
5726.84
5726.48
5726.22
5730.08
5729.29
5728.62
5728.02
5727.48
5726.99
5726.57
5726.28
5730.94
5729.94
5729.07
5728.3
5727.65
5727.08
5726.61
5726.29
5731.27
5730.19
5729.22
5728.41
5727.72
5727.12
5726.62
5726.29
5730.94
5729.96
5729.07
5728.31
5727.66
5727.09
5726.6
5726.27
5730
5729.24
5728.59
5728
5727.47
5726.98
5726.55
5726.25
5728.67
5728.09
5727.77
5727.5
5727.18
5726.81
5726.46
5726.2
5724.63
5724.57
5724.74
5724.89
5724.87
5724.71
5724.47
5724.26
5725.74
5725.7
5725.63
5725.46
5725.23
5724.95
5724.66
5724.41
5726.52
5726.34
5726.06
5725.75
5725.43
5725.09
5724.75
5724.5
5726.68
5726.53
5726.2
5725.85
5725.52
5725.16
5724.8
5724.54
5726.48
5726.37
5726.12
5725.82
5725.51
5725.17
5724.82
5724.55
5725.71
5725.78
5725.74
5725.59
5725.37
5725.09
5724.78
5724.54
5724.39
5724.43
5724.74
5724.99
5725.03
5724.9
5724.67
5724.48
5718.48
5719.55
5720.72
5721.67
5722.25
5722.5
5722.51
5722.42
5718.8
5720.3
5721.42
5722.15
5722.57
5722.74
5722.72
5722.63
5719.02
5720.56
5721.61
5722.29
5722.69
5722.85
5722.82
5722.73
5718.93
5720.61
5721.67
5722.37
5722.78
5722.95
5722.93
5722.83
5719.1
5720.71
5721.78
5722.48
5722.88
5723.03
5723
5722.9
5719.03
5720.59
5721.75
5722.49
5722.91
5723.08
5723.05
5722.96
5718.59
5719.74
5721.03
5722.06
5722.69
5722.96
5722.99
5722.92
5713.6
5715.94
5718.07
5719.73
5720.86
5721.6
5722.15
5722.42
5712.58
5715.93
5718.37
5720.02
5721.1
5721.81
5722.36
5722.64
5711.79
5715.63
5718.25
5720.01
5721.15
5721.91
5722.48
5722.78
5711.44
5715.56
5718.27
5720.07
5721.24
5722.02
5722.62
5722.92
5712.4
5716.09
5718.64
5720.35
5721.46
5722.19
5722.75
5723.03
5713.5
5716.67
5719.02
5720.61
5721.65
5722.33
5722.85
5723.11
5714.45
5716.71
5718.82
5720.46
5721.56
5722.29
5722.82
5723.09
5722.7
5724.78
5726.55
5727.87
5728.78
5729.37
5729.77
5730.03
5721.4
5724.08
5726.13
5727.55
5728.49
5729.1
5729.52
5729.8
5720.65
5723.63
5725.83
5727.34
5728.33
5728.97
5729.4
5729.69
5720.31
5723.5
5725.77
5727.32
5728.35
5729
5729.45
5729.74
5721.2
5724.07
5726.23
5727.7
5728.68
5729.29
5729.71
5729.99
5722.29
5724.84
5726.82
5728.19
5729.1
5729.68
5730.09
5730.37
5723.68
5725.75
5727.46
5728.76
5729.64
5730.21
5730.62
5730.9
5701.64
5701.52
5701.47
5701.49
5701.55
5701.65
5701.78
5701.92
5701.72
5701.61
5701.56
5701.59
5701.66
5701.76
5701.89
5702.04
5701.81
5701.7
5701.66
5701.68
5701.76
5701.87
5702
5702.15
5701.89
5701.79
5701.75
5701.79
5701.87
5701.98
5702.12
5702.27
5701.97
5701.86
5701.83
5701.87
5701.95
5702.07
5702.21
5702.36
5702.03
5701.92
5701.89
5701.94
5702.02
5702.15
5702.3
5702.46
5702.08
5701.98
5701.94
5701.99
5702.08
5702.2
5702.35
5702.52
5700.89
5700.78
5700.77
5700.88
5701.04
5701.24
5701.47
5701.72
5700.99
5700.89
5700.89
5701
5701.16
5701.37
5701.61
5701.86
5701.09
5700.99
5701
5701.11
5701.28
5701.5
5701.74
5702
5701.19
5701.1
5701.11
5701.23
5701.4
5701.62
5701.87
5702.13
5701.28
5701.18
5701.2
5701.32
5701.5
5701.72
5701.97
5702.24
5701.34
5701.25
5701.26
5701.38
5701.57
5701.8
5702.05
5702.32
5701.39
5701.29
5701.3
5701.43
5701.62
5701.85
5702.12
5702.39
5699.8
5699.76
5699.88
5700.13
5700.45
5700.83
5701.23
5701.62
5699.93
5699.9
5700.02
5700.28
5700.61
5700.99
5701.39
5701.79
5700.06
5700.02
5700.15
5700.42
5700.76
5701.15
5701.55
5701.96
5700.17
5700.14
5700.27
5700.55
5700.89
5701.28
5701.7
5702.1
5700.26
5700.23
5700.36
5700.64
5700.99
5701.39
5701.8
5702.22
5700.33
5700.29
5700.42
5700.7
5701.05
5701.46
5701.89
5702.31
5700.36
5700.32
5700.45
5700.73
5701.09
5701.51
5701.94
5702.37
5698.01
5698.16
5698.54
5699.16
5699.86
5700.53
5701.14
5701.67
5698.16
5698.32
5698.71
5699.34
5700.05
5700.74
5701.34
5701.88
5698.31
5698.48
5698.87
5699.51
5700.23
5700.92
5701.54
5702.08
5698.45
5698.61
5699.01
5699.65
5700.37
5701.07
5701.69
5702.24
5698.55
5698.71
5699.1
5699.74
5700.47
5701.17
5701.8
5702.37
5698.6
5698.76
5699.15
5699.8
5700.53
5701.25
5701.89
5702.46
5698.62
5698.77
5699.16
5699.81
5700.56
5701.29
5701.94
5702.53
5696.13
5696.87
5697.69
5698.78
5699.84
5700.71
5701.38
5701.94
5696.3
5697.05
5697.9
5699
5700.08
5700.96
5701.64
5702.2
5696.49
5697.23
5698.09
5699.19
5700.28
5701.18
5701.87
5702.44
5696.66
5697.4
5698.24
5699.35
5700.44
5701.35
5702.05
5702.63
5696.79
5697.51
5698.35
5699.45
5700.55
5701.46
5702.18
5702.76
5696.86
5697.58
5698.4
5699.51
5700.61
5701.54
5702.26
5702.86
5696.88
5697.59
5698.4
5699.5
5700.62
5701.56
5702.31
5702.93
5689.59
5691.43
5695.66
5698.49
5700.15
5701.1
5701.7
5702.33
5689.74
5691.59
5695.89
5698.77
5700.45
5701.44
5702.05
5702.66
5689.94
5691.82
5696.16
5699.04
5700.73
5701.74
5702.36
5703.02
5690.17
5692.06
5696.39
5699.27
5700.95
5701.97
5702.6
5703.32
5690.36
5692.23
5696.52
5699.38
5701.07
5702.1
5702.74
5703.46
5690.51
5692.34
5696.56
5699.41
5701.12
5702.16
5702.82
5703.49
5690.57
5692.39
5696.56
5699.39
5701.1
5702.15
5702.84
5703.55
5702.2
5702.07
5702.02
5702.04
5702.11
5702.23
5702.39
5702.56
5702.16
5702.03
5701.98
5702
5702.07
5702.18
5702.33
5702.49
5702.1
5701.97
5701.91
5701.93
5701.99
5702.1
5702.24
5702.41
5702.01
5701.88
5701.82
5701.83
5701.89
5701.99
5702.14
5702.3
5701.92
5701.78
5701.72
5701.73
5701.78
5701.88
5702.02
5702.18
5701.82
5701.68
5701.62
5701.62
5701.67
5701.77
5701.9
5702.06
5701.72
5701.58
5701.51
5701.51
5701.56
5701.66
5701.79
5701.94
5701.48
5701.36
5701.35
5701.45
5701.63
5701.85
5702.13
5702.41
5701.44
5701.32
5701.31
5701.42
5701.59
5701.8
5702.07
5702.35
5701.38
5701.27
5701.26
5701.35
5701.51
5701.72
5701.98
5702.26
5701.3
5701.18
5701.17
5701.25
5701.41
5701.61
5701.86
5702.14
5701.19
5701.08
5701.06
5701.14
5701.28
5701.48
5701.73
5702
5701.08
5700.96
5700.93
5701.01
5701.15
5701.35
5701.59
5701.86
5700.96
5700.83
5700.81
5700.88
5701.02
5701.22
5701.46
5701.73
5700.44
5700.39
5700.5
5700.76
5701.11
5701.52
5701.97
5702.41
5700.43
5700.38
5700.49
5700.75
5701.08
5701.48
5701.92
5702.35
5700.38
5700.34
5700.45
5700.7
5701.01
5701.41
5701.83
5702.26
5700.3
5700.26
5700.36
5700.6
5700.9
5701.29
5701.71
5702.14
5700.18
5700.13
5700.23
5700.46
5700.76
5701.14
5701.56
5701.99
5700.04
5699.98
5700.08
5700.31
5700.6
5700.98
5701.39
5701.82
5699.89
5699.83
5699.92
5700.15
5700.45
5700.83
5701.23
5701.65
5698.73
5698.87
5699.22
5699.84
5700.6
5701.34
5702.01
5702.63
5698.77
5698.92
5699.26
5699.87
5700.6
5701.33
5701.98
5702.58
5698.76
5698.91
5699.25
5699.84
5700.56
5701.26
5701.91
5702.49
5698.69
5698.84
5699.17
5699.75
5700.45
5701.15
5701.79
5702.37
5698.55
5698.7
5699.02
5699.6
5700.3
5700.98
5701.62
5702.2
5698.36
5698.5
5698.83
5699.4
5700.1
5700.78
5701.41
5701.99
5698.17
5698.31
5698.63
5699.2
5699.9
5700.59
5701.21
5701.79
5697.03
5697.78
5698.57
5699.64
5700.75
5701.69
5702.46
5703.12
5697.15
5697.92
5698.7
5699.75
5700.82
5701.74
5702.48
5703.1
5697.19
5697.98
5698.76
5699.79
5700.82
5701.71
5702.42
5703.03
5697.13
5697.93
5698.71
5699.72
5700.73
5701.6
5702.3
5702.89
5696.96
5697.76
5698.54
5699.54
5700.54
5701.4
5702.1
5702.69
5696.71
5697.5
5698.27
5699.27
5700.29
5701.15
5701.84
5702.44
5696.45
5697.22
5697.98
5698.99
5700.02
5700.89
5701.59
5702.19
5690.66
5692.55
5696.75
5699.57
5701.25
5702.3
5703.04
5703.79
5690.88
5692.77
5696.98
5699.78
5701.41
5702.41
5703.1
5703.8
5690.97
5692.89
5697.12
5699.9
5701.47
5702.41
5703.08
5703.73
5690.9
5692.85
5697.1
5699.86
5701.39
5702.29
5702.94
5703.59
5690.67
5692.62
5696.88
5699.63
5701.14
5702.03
5702.67
5703.33
5690.38
5692.27
5696.49
5699.25
5700.79
5701.69
5702.32
5703
5690.06
5691.9
5696.07
5698.82
5700.4
5701.34
5701.98
5702.67
5701.64
5701.49
5701.42
5701.42
5701.46
5701.56
5701.69
5701.84
5701.57
5701.42
5701.35
5701.34
5701.39
5701.48
5701.61
5701.76
5701.53
5701.38
5701.31
5701.3
5701.35
5701.44
5701.57
5701.72
5701.51
5701.36
5701.29
5701.29
5701.34
5701.43
5701.56
5701.7
5701.51
5701.37
5701.3
5701.31
5701.36
5701.45
5701.57
5701.71
5701.53
5701.4
5701.34
5701.35
5701.4
5701.49
5701.61
5701.75
5701.57
5701.45
5701.39
5701.41
5701.47
5701.56
5701.68
5701.82
5700.86
5700.72
5700.69
5700.77
5700.91
5701.11
5701.35
5701.61
5700.78
5700.64
5700.61
5700.69
5700.83
5701.02
5701.26
5701.52
5700.73
5700.6
5700.57
5700.64
5700.79
5700.98
5701.21
5701.47
5700.71
5700.58
5700.55
5700.63
5700.77
5700.96
5701.2
5701.45
5700.72
5700.59
5700.57
5700.65
5700.8
5700.99
5701.22
5701.47
5700.75
5700.63
5700.61
5700.7
5700.85
5701.05
5701.27
5701.52
5700.81
5700.69
5700.68
5700.78
5700.93
5701.13
5701.35
5701.6
5699.76
5699.7
5699.79
5700.02
5700.32
5700.69
5701.09
5701.51
5699.67
5699.6
5699.69
5699.92
5700.22
5700.59
5700.99
5701.41
5699.61
5699.55
5699.64
5699.87
5700.17
5700.54
5700.94
5701.35
5699.59
5699.53
5699.62
5699.85
5700.16
5700.53
5700.93
5701.33
5699.6
5699.54
5699.64
5699.88
5700.18
5700.56
5700.95
5701.34
5699.63
5699.58
5699.68
5699.93
5700.24
5700.61
5701
5701.39
5699.71
5699.65
5699.76
5700.01
5700.32
5700.7
5701.09
5701.48
5698
5698.14
5698.46
5699.03
5699.73
5700.42
5701.04
5701.61
5697.88
5698.02
5698.35
5698.93
5699.63
5700.31
5700.93
5701.49
5697.81
5697.95
5698.3
5698.89
5699.58
5700.26
5700.87
5701.42
5697.78
5697.93
5698.29
5698.88
5699.57
5700.24
5700.85
5701.39
5697.77
5697.93
5698.29
5698.89
5699.58
5700.24
5700.85
5701.39
5697.8
5697.96
5698.32
5698.92
5699.62
5700.29
5700.89
5701.42
5697.88
5698.03
5698.4
5699.01
5699.71
5700.38
5700.98
5701.51
5696.21
5696.97
5697.73
5698.75
5699.79
5700.66
5701.36
5701.96
5696.03
5696.82
5697.6
5698.64
5699.68
5700.56
5701.25
5701.83
5695.93
5696.72
5697.54
5698.59
5699.62
5700.49
5701.17
5701.74
5695.89
5696.68
5697.5
5698.56
5699.59
5700.46
5701.13
5701.69
5695.85
5696.62
5697.46
5698.53
5699.57
5700.43
5701.1
5701.65
5695.87
5696.62
5697.46
5698.54
5699.58
5700.44
5701.1
5701.66
5695.97
5696.71
5697.54
5698.61
5699.66
5700.53
5701.19
5701.75
5689.68
5691.51
5695.7
5698.49
5700.1
5701.07
5701.7
5702.38
5689.37
5691.24
5695.56
5698.39
5700.01
5700.97
5701.59
5702.23
5689.24
5691.18
5695.56
5698.4
5699.99
5700.93
5701.53
5702.13
5689.15
5691.11
5695.54
5698.38
5699.97
5700.89
5701.48
5702.05
5689.07
5691.02
5695.43
5698.3
5699.9
5700.82
5701.4
5701.95
5689.1
5691.01
5695.35
5698.22
5699.86
5700.78
5701.36
5701.93
5689.37
5691.22
5695.46
5698.28
5699.92
5700.86
5701.45
5702.06
5702.13
5702.02
5701.99
5702.03
5702.12
5702.25
5702.41
5702.58
5702.18
5702.07
5702.03
5702.07
5702.16
5702.3
5702.46
5702.63
5702.22
5702.1
5702.06
5702.1
5702.19
5702.33
5702.49
5702.67
5702.25
5702.12
5702.08
5702.12
5702.21
5702.34
5702.5
5702.68
5702.26
5702.13
5702.08
5702.12
5702.21
5702.34
5702.51
5702.69
5702.25
5702.12
5702.07
5702.1
5702.19
5702.32
5702.48
5702.65
5702.23
5702.1
5702.05
5702.08
5702.16
5702.28
5702.44
5702.62
5701.43
5701.33
5701.34
5701.46
5701.66
5701.89
5702.17
5702.45
5701.47
5701.36
5701.37
5701.5
5701.7
5701.94
5702.22
5702.51
5701.51
5701.39
5701.4
5701.53
5701.73
5701.97
5702.25
5702.55
5701.53
5701.41
5701.41
5701.53
5701.73
5701.97
5702.27
5702.56
5701.53
5701.41
5701.41
5701.53
5701.72
5701.97
5702.26
5702.56
5701.52
5701.4
5701.39
5701.51
5701.7
5701.95
5702.23
5702.53
5701.5
5701.38
5701.37
5701.48
5701.67
5701.9
5702.18
5702.47
5700.39
5700.34
5700.47
5700.76
5701.13
5701.55
5702
5702.44
5700.42
5700.37
5700.51
5700.8
5701.17
5701.61
5702.06
5702.5
5700.45
5700.4
5700.53
5700.82
5701.2
5701.64
5702.1
5702.56
5700.47
5700.42
5700.54
5700.83
5701.21
5701.65
5702.12
5702.58
5700.47
5700.41
5700.54
5700.82
5701.2
5701.65
5702.11
5702.58
5700.46
5700.4
5700.52
5700.8
5701.17
5701.61
5702.08
5702.54
5700.45
5700.39
5700.5
5700.77
5701.13
5701.56
5702.02
5702.47
5698.62
5698.77
5699.16
5699.82
5700.58
5701.32
5701.99
5702.59
5698.64
5698.8
5699.19
5699.86
5700.63
5701.39
5702.08
5702.69
5698.67
5698.83
5699.22
5699.89
5700.67
5701.44
5702.14
5702.77
5698.69
5698.84
5699.24
5699.9
5700.69
5701.47
5702.18
5702.8
5698.68
5698.84
5699.23
5699.89
5700.68
5701.46
5702.17
5702.8
5698.68
5698.82
5699.2
5699.85
5700.64
5701.41
5702.12
5702.76
5698.68
5698.82
5699.18
5699.82
5700.59
5701.36
5702.05
5702.68
5696.82
5697.53
5698.35
5699.47
5700.61
5701.58
5702.35
5703
5696.8
5697.53
5698.38
5699.53
5700.69
5701.68
5702.48
5703.13
5696.82
5697.59
5698.44
5699.58
5700.75
5701.77
5702.58
5703.25
5696.85
5697.63
5698.48
5699.62
5700.79
5701.81
5702.64
5703.31
5696.85
5697.61
5698.46
5699.6
5700.77
5701.8
5702.63
5703.31
5696.85
5697.61
5698.44
5699.57
5700.73
5701.74
5702.56
5703.25
5696.9
5697.65
5698.45
5699.56
5700.69
5701.67
5702.48
5703.15
5690.37
5692.22
5696.42
5699.28
5701.03
5702.14
5702.88
5703.6
5690.15
5692.08
5696.41
5699.35
5701.14
5702.29
5703.06
5703.8
5690.12
5692.16
5696.56
5699.49
5701.27
5702.44
5703.24
5703.97
5690.16
5692.27
5696.68
5699.59
5701.35
5702.53
5703.33
5704.04
5690.13
5692.22
5696.62
5699.53
5701.3
5702.48
5703.3
5704.01
5690.19
5692.15
5696.49
5699.41
5701.19
5702.36
5703.17
5703.93
5690.41
5692.3
5696.53
5699.39
5701.13
5702.24
5703.03
5703.81
5703.07
5702.99
5703.02
5702.04
5702.13
5702.21
5702.29
5702.36
5702.43
5702.48
5702.53
5702.17
5702.26
5702.35
5702.43
5702.5
5702.56
5702.62
5702.67
5702.28
5702.37
5702.46
5702.54
5702.61
5702.67
5702.72
5702.78
5702.4
5702.49
5702.58
5702.66
5702.73
5702.8
5702.85
5702.9
5702.49
5702.59
5702.68
5702.76
5702.83
5702.9
5702.95
5703
5702.6
5702.71
5702.81
5702.9
5702.98
5703.06
5703.12
5703.18
5702.65
5702.75
5702.84
5702.93
5703
5703.07
5703.12
5703.18
5701.92
5702.06
5702.2
5702.33
5702.45
5702.57
5702.69
5702.81
5702.06
5702.2
5702.34
5702.47
5702.59
5702.71
5702.83
5702.95
5702.2
5702.35
5702.49
5702.61
5702.73
5702.85
5702.96
5703.08
5702.33
5702.48
5702.61
5702.74
5702.86
5702.97
5703.09
5703.2
5702.45
5702.6
5702.74
5702.86
5702.98
5703.1
5703.21
5703.33
5702.53
5702.69
5702.83
5702.96
5703.09
5703.21
5703.33
5703.45
5702.61
5702.77
5702.92
5703.06
5703.18
5703.31
5703.43
5703.55
5701.92
5702.12
5702.31
5702.49
5702.67
5702.87
5703.08
5703.32
5702.09
5702.3
5702.48
5702.66
5702.84
5703.03
5703.24
5703.47
5702.25
5702.46
5702.65
5702.82
5703
5703.19
5703.39
5703.61
5702.4
5702.61
5702.8
5702.97
5703.14
5703.33
5703.53
5703.74
5702.52
5702.74
5702.93
5703.1
5703.28
5703.46
5703.67
5703.88
5702.62
5702.84
5703.04
5703.22
5703.4
5703.59
5703.8
5704.02
5702.7
5702.92
5703.13
5703.32
5703.5
5703.7
5703.92
5704.14
5702.06
5702.32
5702.55
5702.75
5702.97
5703.25
5703.59
5703.96
5702.27
5702.52
5702.74
5702.94
5703.16
5703.44
5703.77
5704.12
5702.47
5702.72
5702.93
5703.13
5703.35
5703.62
5703.94
5704.27
5702.63
5702.88
5703.1
5703.3
5703.52
5703.78
5704.09
5704.42
5702.76
5703.02
5703.24
5703.44
5703.66
5703.93
5704.24
5704.57
5702.87
5703.13
5703.36
5703.57
5703.8
5704.07
5704.4
5704.75
5702.95
5703.23
5703.46
5703.68
5703.91
5704.2
5704.54
5704.9
5702.35
5702.59
5702.76
5702.91
5703.13
5703.47
5703.94
5704.48
5702.6
5702.83
5702.98
5703.13
5703.36
5703.71
5704.17
5704.68
5702.83
5703.04
5703.18
5703.35
5703.58
5703.92
5704.37
5704.88
5703
5703.21
5703.37
5703.55
5703.78
5704.1
5704.56
5705.05
5703.14
5703.36
5703.51
5703.7
5703.93
5704.25
5704.71
5705.22
5703.28
5703.51
5703.66
5703.83
5704.07
5704.41
5704.88
5705.41
5703.37
5703.63
5703.8
5703.96
5704.2
5704.56
5705.04
5705.58
5702.81
5703.08
5700.64
5657.43
5678.47
5663.57
5649.21
5701.11
5703.24
5703.48
5656.72
5636.61
5682.24
5646.72
5646.38
5703.39
5703.59
5699.18
5598.52
5649.16
5664.37
5614.52
5646.11
5705.32
5703.83
5661.2
5601.43
5678.99
5655.34
5608.18
5655.96
5705.81
5704
5672.64
5587.81
5668.1
5657.93
5601.82
5647.69
5705.93
5704.11
5704.29
5609.29
5629.57
5676.26
5612.99
5633.2
5705.01
5704.14
5704.37
5670.01
5654.62
5688.58
5653.99
5641.96
5703.8
5702.7
5702.8
5702.9
5703
5703.08
5703.14
5703.19
5703.25
5702.63
5702.74
5702.84
5702.93
5703.01
5703.07
5703.12
5703.18
5702.54
5702.65
5702.74
5702.83
5702.91
5702.98
5703.03
5703.08
5702.43
5702.54
5702.64
5702.73
5702.8
5702.87
5702.91
5702.97
5702.31
5702.41
5702.51
5702.6
5702.68
5702.75
5702.79
5702.84
5702.18
5702.29
5702.38
5702.47
5702.55
5702.62
5702.66
5702.72
5702.07
5702.17
5702.26
5702.35
5702.43
5702.5
5702.54
5702.6
5702.64
5702.81
5702.97
5703.12
5703.26
5703.39
5703.52
5703.65
5702.57
5702.74
5702.9
5703.05
5703.18
5703.31
5703.44
5703.57
5702.48
5702.65
5702.81
5702.95
5703.09
5703.22
5703.34
5703.46
5702.36
5702.53
5702.69
5702.83
5702.97
5703.09
5703.21
5703.34
5702.22
5702.39
5702.55
5702.69
5702.83
5702.96
5703.08
5703.21
5702.08
5702.24
5702.4
5702.54
5702.68
5702.81
5702.94
5703.07
5701.94
5702.1
5702.25
5702.4
5702.53
5702.66
5702.79
5702.92
5702.76
5703
5703.23
5703.44
5703.65
5703.87
5704.11
5704.36
5702.69
5702.93
5703.15
5703.36
5703.57
5703.78
5704.02
5704.28
5702.59
5702.83
5703.05
5703.26
5703.46
5703.68
5703.92
5704.17
5702.47
5702.71
5702.93
5703.13
5703.33
5703.55
5703.79
5704.04
5702.32
5702.55
5702.77
5702.98
5703.18
5703.4
5703.64
5703.89
5702.15
5702.38
5702.6
5702.81
5703.01
5703.23
5703.47
5703.73
5701.98
5702.21
5702.43
5702.63
5702.84
5703.06
5703.3
5703.56
5703.08
5703.38
5703.65
5703.89
5704.15
5704.46
5704.86
5705.29
5703.02
5703.31
5703.57
5703.82
5704.07
5704.38
5704.77
5705.2
5702.92
5703.22
5703.48
5703.72
5703.97
5704.27
5704.66
5705.09
5702.8
5703.09
5703.34
5703.58
5703.83
5704.13
5704.52
5704.96
5702.62
5702.92
5703.17
5703.41
5703.66
5703.97
5704.36
5704.8
5702.42
5702.71
5702.97
5703.21
5703.46
5703.77
5704.17
5704.61
5702.22
5702.51
5702.77
5703.01
5703.26
5703.57
5703.96
5704.41
5703.59
5703.89
5704.1
5704.29
5704.52
5704.88
5705.41
5706.04
5703.55
5703.84
5704.04
5704.22
5704.44
5704.79
5705.31
5705.93
5703.46
5703.75
5703.95
5704.13
5704.34
5704.67
5705.19
5705.81
5703.33
5703.61
5703.81
5703.99
5704.2
5704.53
5705.03
5705.65
5703.14
5703.42
5703.62
5703.8
5704.02
5704.34
5704.85
5705.47
5702.89
5703.17
5703.38
5703.57
5703.78
5704.12
5704.63
5705.25
5702.64
5702.93
5703.14
5703.32
5703.55
5703.89
5704.4
5705.02
5704.3
5704.51
5704.57
5704.55
5690.04
5683.65
5662.08
5682.15
5704.25
5704.44
5704.54
5704.51
5685.84
5687.2
5666.34
5678.1
5704.15
5704.35
5704.47
5704.41
5686.98
5692.64
5663.04
5669.99
5703.99
5704.2
5704.34
5704.28
5687.79
5696.61
5660.45
5664.55
5703.75
5703.98
5704.13
5704.07
5687.78
5697.25
5661.02
5664.21
5703.45
5703.69
5703.84
5703.79
5686.24
5695.94
5663.46
5667.24
5703.14
5703.38
5703.54
5703.51
5682.88
5692.53
5666.31
5672.25
5701.96
5702.06
5702.16
5702.24
5702.32
5702.38
5702.43
5702.48
5701.89
5701.98
5702.07
5702.16
5702.23
5702.29
5702.34
5702.39
5701.84
5701.93
5702.02
5702.1
5702.17
5702.23
5702.28
5702.33
5701.82
5701.91
5702
5702.08
5702.15
5702.21
5702.25
5702.3
5701.83
5701.92
5702.01
5702.09
5702.16
5702.22
5702.27
5702.32
5701.87
5701.96