/*--------------------------------*- C++ -*----------------------------------*\
| =========                 |                                                 |
| \\      /  F ield         | OpenFOAM: The Open Source CFD Toolbox           |
|  \\    /   O peration     | Version:  plus.master.MPPICInterFoam            |
|   \\  /    A nd           | Web:      www.OpenFOAM.com                      |
|    \\/     M anipulation  |                                                 |
\*---------------------------------------------------------------------------*/
FoamFile
{
    version     2.0;
    format      ascii;
    class       volScalarField;
    location    "12.2";
    object      k;
}
// * * * * * * * * * * * * * * * * * * * * * * * * * * * * * * * * * * * * * //

dimensions      [0 2 -2 0 0 0 0];

internalField   nonuniform List<scalar> 
11821
(
0.0482169
0.0568263
0.0462904
0.0607439
0.051204
0.0421851
0.0520675
0.0555558
0.055892
0.0533057
0.0486689
0.0429084
0.036723
0.06395
0.0691991
0.069536
0.0649051
0.0578911
0.0500594
0.0422442
0.0749773
0.0782494
0.0803031
0.076711
0.0667559
0.0563614
0.046782
0.079647
0.0756438
0.0767515
0.0830459
0.0733946
0.0606169
0.0496422
0.0793175
0.0742789
0.0734253
0.0838041
0.075358
0.0616719
0.0502193
0.0787182
0.0796265
0.081006
0.0813288
0.071285
0.0590345
0.0482839
0.0700682
0.0756207
0.0764798
0.0717172
0.063207
0.0533878
0.0440723
0.0539304
0.0575403
0.0579254
0.0553664
0.0506907
0.0448758
0.0386274
0.0657276
0.070194
0.0707312
0.0668312
0.0600347
0.0521152
0.0442023
0.0712742
0.0725204
0.0755146
0.0761116
0.068709
0.0585143
0.0487786
0.0675443
0.0743835
0.076674
0.0774236
0.0746771
0.0628244
0.0516462
0.0658926
0.06938
0.0732106
0.07567
0.0758166
0.0638346
0.0521793
0.0656095
0.0658356
0.069457
0.0769239
0.0729339
0.0612825
0.0501912
0.0680809
0.0690585
0.070036
0.0714004
0.0651606
0.055389
0.0458549
0.0555715
0.0594527
0.059907
0.0572973
0.0525698
0.0467211
0.0404105
0.0676408
0.0726156
0.0729723
0.0688037
0.0619152
0.0539722
0.0460344
0.0729696
0.0774647
0.0793158
0.0784303
0.0705604
0.0603967
0.0506402
0.0714078
0.072255
0.0753619
0.0810748
0.0766716
0.0647708
0.0535128
0.0654365
0.067616
0.0741381
0.0777654
0.0776666
0.0656991
0.053986
0.07039
0.0670935
0.0722072
0.0764166
0.074553
0.0630282
0.0519381
0.0704609
0.0703867
0.0726453
0.0730772
0.0666401
0.0570098
0.0475299
0.0567372
0.0608632
0.0614021
0.0588269
0.0541288
0.0482799
0.0419033
0.0689104
0.0746136
0.0748093
0.0704047
0.0634571
0.0555371
0.0475689
0.07699
0.0818208
0.0843218
0.0810101
0.0721653
0.0619234
0.0521734
0.07718
0.0729565
0.0821172
0.086574
0.0785246
0.0662461
0.055027
0.0728908
0.0754498
0.0761741
0.0859247
0.0799079
0.067123
0.0554662
0.0748222
0.0740555
0.0798357
0.0820404
0.0760939
0.0642664
0.0533536
0.0727705
0.0751035
0.0773798
0.0752423
0.0677483
0.0582895
0.0489307
0.0575946
0.061775
0.0623869
0.0598579
0.0552138
0.0493987
0.042994
0.0699321
0.0760824
0.0763441
0.0716574
0.0645435
0.0566265
0.0486561
0.081218
0.0872348
0.090112
0.0840966
0.0735044
0.0629712
0.0532201
0.0817969
0.083791
0.0922757
0.0933234
0.0803152
0.0672692
0.0560428
0.0785507
0.068778
0.0833839
0.0934834
0.0820066
0.0681713
0.0564888
0.0797523
0.0801955
0.0860364
0.0888851
0.0776072
0.0652553
0.0543743
0.0751848
0.0817742
0.0825755
0.0779411
0.0689983
0.0593331
0.049978
0.0583005
0.0623546
0.0629092
0.0604612
0.0559243
0.050171
0.0437813
0.0703787
0.0762494
0.0763659
0.0718647
0.0650244
0.0572895
0.0493993
0.0814394
0.0891719
0.0902606
0.0837696
0.0736477
0.0634778
0.0539006
0.0854494
0.0873927
0.0930591
0.0929408
0.0801791
0.0676551
0.0566803
0.0850659
0.077266
0.0884512
0.0945178
0.0820287
0.0686107
0.0571497
0.0832481
0.0831631
0.0881419
0.0891734
0.0779335
0.0658372
0.055092
0.0755508
0.0817755
0.0830904
0.0785132
0.0696659
0.0600674
0.0507468
0.0590164
0.0629252
0.0634173
0.0610072
0.0565259
0.0507959
0.0444028
0.0709329
0.0761679
0.0762362
0.0719917
0.0654209
0.0578254
0.0499846
0.0811441
0.0862253
0.0881282
0.0828759
0.0736751
0.0638809
0.0544414
0.0823329
0.0822009
0.0919462
0.0903535
0.0797781
0.067935
0.0571887
0.0817575
0.079528
0.0849942
0.0902837
0.0814459
0.0688902
0.0576678
0.081255
0.0808652
0.0850146
0.0879611
0.0779605
0.0662921
0.0556532
0.0738755
0.0794638
0.0806052
0.0778499
0.0700343
0.0606258
0.0513389
0.0597493
0.0636447
0.0640748
0.0616495
0.0571413
0.0513634
0.0449366
0.0713204
0.0764924
0.0764418
0.0723973
0.0659483
0.0583617
0.0505075
0.0788614
0.0846957
0.0868372
0.0826399
0.0739962
0.0643742
0.0549633
0.0784336
0.0852536
0.0888285
0.0890705
0.0797991
0.0683805
0.0577143
0.0716536
0.0798605
0.086775
0.0891257
0.0813283
0.0693368
0.0582045
0.071942
0.0765688
0.0842636
0.0855374
0.0780457
0.0667743
0.0562058
0.0722904
0.0749158
0.0788713
0.0776193
0.0703532
0.061154
0.0519056
0.0605061
0.0644404
0.0648279
0.0623078
0.0576818
0.0518129
0.0453268
0.0722089
0.0774815
0.0773148
0.0731308
0.0665375
0.0588371
0.0509086
0.0803199
0.0860682
0.0880867
0.0834601
0.0746391
0.0648927
0.0553897
0.0806609
0.0834988
0.090273
0.0903576
0.0805618
0.0689604
0.058178
0.0749797
0.0782028
0.0883502
0.0910114
0.0822909
0.0699615
0.0586925
0.075785
0.0774816
0.0859131
0.0869163
0.0787686
0.0673584
0.0566925
0.0731909
0.0767751
0.0803658
0.0784249
0.0709801
0.0617071
0.0523843
0.0610171
0.0649739
0.0653168
0.0626837
0.0579491
0.0520148
0.045507
0.0729301
0.0783521
0.07815
0.0737097
0.0668753
0.0590425
0.0510685
0.0824962
0.0884355
0.0905038
0.0846595
0.0751635
0.0651432
0.0555506
0.0830024
0.0849837
0.0942796
0.0927452
0.0813355
0.0692821
0.0583608
0.0775657
0.0821603
0.0872682
0.0932295
0.0831495
0.070326
0.0588998
0.0770761
0.0805996
0.0884593
0.0894913
0.0795678
0.0677219
0.0569164
0.0752551
0.0803089
0.0828341
0.0797741
0.0716042
0.0620487
0.0526227
0.0612025
0.0650748
0.0653247
0.0626414
0.0579
0.0519878
0.0455202
0.0732202
0.078535
0.0781304
0.0735755
0.066727
0.0589297
0.0510172
0.0831519
0.0893034
0.0907745
0.0845442
0.0749391
0.0649558
0.0554469
0.0839803
0.0882226
0.0952483
0.0928191
0.0810753
0.0690537
0.058233
0.0816811
0.0761167
0.08999
0.0942197
0.0830109
0.0701261
0.0587867
0.0799639
0.0818541
0.0896074
0.0900468
0.0795561
0.0676067
0.05685
0.0751382
0.0806348
0.0835168
0.0801773
0.0716868
0.062023
0.0526174
0.0611338
0.0648691
0.0650651
0.0624062
0.0577163
0.0518649
0.0454539
0.0729275
0.0778999
0.0774569
0.0730413
0.0663517
0.0586898
0.0508795
0.0823621
0.0882917
0.0893883
0.0835394
0.0743212
0.0645884
0.0552438
0.0831482
0.086529
0.0957022
0.0912114
0.0802235
0.0685922
0.0579913
0.0810317
0.084819
0.0923488
0.0921117
0.0820653
0.0696565
0.0585519
0.0800185
0.0817817
0.0890405
0.0888462
0.0788644
0.0672285
0.0566624
0.0745315
0.0795615
0.0821841
0.0794271
0.071238
0.0617669
0.0525013
0.0610863
0.0647484
0.064897
0.0622298
0.0575555
0.0517289
0.0453469
0.0726325
0.0774591
0.07699
0.0726546
0.0660629
0.0584797
0.0507239
0.0815752
0.0874516
0.0883607
0.0827992
0.0738592
0.0643014
0.0550499
0.082636
0.0901575
0.0939352
0.0901331
0.0796051
0.0682487
0.0577794
0.0757045
0.0838379
0.0912664
0.0911635
0.0813385
0.0693023
0.0583504
0.0755565
0.0802584
0.0883083
0.0877705
0.0782321
0.0669171
0.0564931
0.0729524
0.0781122
0.0813682
0.0786754
0.0708045
0.061544
0.0523839
0.061088
0.0647327
0.0648318
0.0621061
0.0573856
0.0515392
0.0451707
0.0725696
0.0774756
0.0769358
0.0725261
0.0658794
0.0582616
0.0505089
0.081571
0.0878322
0.0884692
0.0826944
0.0736855
0.0640779
0.0548169
0.0827225
0.0882889
0.0923728
0.0902815
0.0794868
0.0680411
0.0575487
0.0772981
0.081887
0.0921511
0.0918869
0.0813672
0.0691345
0.0581398
0.0752611
0.0801793
0.0884453
0.08807
0.078135
0.0667565
0.0563095
0.0724217
0.0780302
0.0812299
0.0786105
0.0706849
0.0614078
0.052236
0.0609963
0.0646002
0.0646366
0.0618348
0.0570626
0.0512181
0.0449022
0.0725544
0.0774756
0.0768925
0.0723288
0.0655549
0.057888
0.0501723
0.0818909
0.0879814
0.0888445
0.0827466
0.0734353
0.0636955
0.0544403
0.0821625
0.0858682
0.0935974
0.0906994
0.0793519
0.0676814
0.0571617
0.076644
0.0820957
0.0892727
0.0923339
0.0812827
0.0688122
0.0577696
0.0755634
0.0806651
0.0886106
0.0883752
0.0780855
0.0664721
0.0559764
0.0732949
0.0794257
0.0824694
0.0788556
0.0706209
0.0611635
0.0519551
0.0607074
0.0641869
0.064112
0.0612621
0.0565298
0.050787
0.044593
0.0724378
0.0771896
0.0763703
0.0716324
0.0648583
0.057307
0.0497503
0.0818799
0.0876629
0.0886278
0.0820575
0.0726263
0.0629925
0.053923
0.0818829
0.0865571
0.0936122
0.0900495
0.078508
0.0669136
0.0565891
0.0809409
0.0791903
0.0892475
0.0915843
0.0805391
0.0680585
0.0571963
0.0776646
0.0803151
0.0881463
0.088091
0.0774635
0.0658149
0.055458
0.0731708
0.0792023
0.0824446
0.0786353
0.0701108
0.0606185
0.0515242
0.00843906
0.00342387
0.0245322
0.0199529
0.0160024
0.0124543
0.00888399
0.00355305
0.0386031
0.0316795
0.0258371
0.0208998
0.0166679
0.0129039
0.00916453
0.00360078
0.03905
0.0320961
0.0262042
0.0212
0.0168972
0.0130692
0.0092764
0.0036104
0.0375642
0.031176
0.0256636
0.0208952
0.0167361
0.0129977
0.00926594
0.0036957
0.0347414
0.0294447
0.0245893
0.0202289
0.0163355
0.0127761
0.00916527
0.00377964
0.0305307
0.0261461
0.0221591
0.0185433
0.0152325
0.0120877
0.0087412
0.00359028
0.0347353
0.0291754
0.0243804
0.0201813
0.0164344
0.0129562
0.00933751
0.00380427
0.0383057
0.0318662
0.0263717
0.0216327
0.0174717
0.0136746
0.00979795
0.00393701
0.0405638
0.0335943
0.027668
0.0225832
0.0181478
0.0141358
0.010088
0.00398778
0.0409749
0.0339684
0.0279975
0.0228579
0.018364
0.0142969
0.0102003
0.00400457
0.039451
0.0329902
0.0273955
0.0225006
0.018165
0.0142029
0.0101797
0.00409558
0.0365341
0.0311585
0.0262209
0.0217468
0.017697
0.0139364
0.0100545
0.0041798
0.0324
0.0279069
0.0237751
0.019988
0.0164872
0.0131331
0.00953259
0.00392468
0.0366677
0.0310116
0.0260719
0.0216908
0.0177384
0.014035
0.0101476
0.00414308
0.0402545
0.033734
0.0281042
0.0231827
0.0188092
0.0147769
0.0106215
0.00427952
0.0424951
0.0354567
0.0294097
0.0241503
0.0195048
0.0152557
0.0109233
0.00433676
0.0428663
0.0357984
0.0297194
0.0244185
0.0197231
0.0154236
0.0110436
0.00437441
0.0413005
0.0347733
0.0290773
0.0240323
0.0195069
0.0153217
0.0110214
0.0044732
0.0382896
0.0328512
0.0278225
0.0232171
0.0189977
0.0150299
0.0108835
0.00455828
0.0341095
0.0294878
0.0252062
0.0212569
0.0175857
0.0140485
0.0102257
0.00421841
0.0384558
0.0326712
0.0275703
0.023012
0.0188742
0.0149738
0.0108516
0.00443987
0.0420787
0.0354391
0.0296463
0.0245405
0.0199729
0.0157351
0.011336
0.00457982
0.0443228
0.0371779
0.030973
0.0255296
0.0206878
0.0162293
0.0116482
0.00464253
0.0446653
0.0375079
0.0312814
0.0258012
0.0209132
0.0164069
0.0117793
0.00470308
0.043065
0.036451
0.0306137
0.0253984
0.0206885
0.0163034
0.0117602
0.00480717
0.0399816
0.0344575
0.0293024
0.0245433
0.0201541
0.0159966
0.011615
0.00489435
0.0355115
0.0307841
0.0263839
0.0223093
0.0185057
0.0148218
0.0108135
0.00446827
0.0399122
0.0340161
0.0287887
0.0240969
0.0198186
0.0157637
0.0114486
0.00469136
0.0435528
0.0368078
0.0308877
0.025646
0.0209351
0.0165385
0.011941
0.00483282
0.045796
0.0385552
0.0322261
0.0266477
0.0216631
0.0170457
0.0122635
0.00490075
0.0461257
0.0388822
0.0325363
0.0269249
0.0218979
0.0172361
0.0124089
0.004988
0.0444951
0.0378052
0.0318557
0.0265154
0.0216729
0.0171374
0.0123975
0.00509915
0.0413778
0.0357783
0.0305168
0.0256398
0.0211241
0.0168216
0.0122489
0.00518974
0.0365668
0.0317861
0.0273176
0.0231632
0.019267
0.0154713
0.0113121
0.00467971
0.0409748
0.0350306
0.0297378
0.0249668
0.0205943
0.0164243
0.0119539
0.0049045
0.044594
0.0378147
0.0318384
0.0265238
0.0217216
0.0172094
0.0124536
0.00504874
0.0468185
0.039554
0.0331767
0.0275323
0.0224612
0.0177303
0.0127882
0.00512504
0.047151
0.0398831
0.0334909
0.0278176
0.0227092
0.0179375
0.0129511
0.00523883
0.0455249
0.0388077
0.0328112
0.0274113
0.0224917
0.01785
0.012952
0.00535824
0.0424114
0.0367754
0.0314627
0.0265262
0.0219364
0.0175321
0.0128057
0.00545525
0.0373717
0.0325728
0.0280698
0.0238652
0.0199018
0.0160182
0.011735
0.00485978
0.0417612
0.0358127
0.0304946
0.0256774
0.0212382
0.0169781
0.0123806
0.00508567
0.0453438
0.038579
0.0325913
0.0272398
0.0223748
0.0177727
0.0128873
0.00523304
0.0475429
0.0403066
0.0339294
0.0282569
0.0231282
0.0183091
0.0132357
0.00532501
0.0478854
0.0406424
0.0342531
0.0285564
0.0233948
0.0185371
0.0134185
0.00546054
0.0462874
0.0395819
0.0335847
0.0281628
0.0231927
0.0184668
0.0134354
0.00558875
0.0431868
0.037551
0.0322324
0.0272751
0.0226388
0.0181545
0.0132971
0.00569413
0.0380288
0.0332197
0.0286905
0.0244451
0.0204266
0.0164713
0.0120867
0.0050087
0.0424008
0.0364575
0.0311202
0.0262641
0.0217687
0.0174344
0.0127326
0.00523458
0.045957
0.0392154
0.0332191
0.0278339
0.0229144
0.0182376
0.0132459
0.00538518
0.0481402
0.0409423
0.0345661
0.0288652
0.0236849
0.0187915
0.0136102
0.00550232
0.0484914
0.041291
0.0349069
0.0291853
0.0239736
0.0190412
0.0138117
0.00565191
0.0469221
0.0402498
0.0342562
0.0288111
0.0237921
0.0189907
0.0138452
0.0057881
0.0438357
0.0382202
0.0329053
0.0279287
0.0232474
0.0186898
0.0137178
0.00590118
0.0385719
0.0337416
0.0291846
0.024904
0.0208419
0.0168309
0.0123669
0.00512556
0.0429451
0.0369833
0.0316182
0.0267262
0.0221859
0.0177943
0.0130115
0.00535026
0.0465025
0.0397463
0.0337236
0.0283028
0.0233387
0.0186045
0.0135303
0.00550469
0.0486954
0.0414874
0.0350855
0.02935
0.0241258
0.0191753
0.0139109
0.00565229
0.0490645
0.0418572
0.0354486
0.0296925
0.0244362
0.0194447
0.0141285
0.00581104
0.0475148
0.0408357
0.0348195
0.0293403
0.0242757
0.019413
0.0141769
0.00595373
0.0444262
0.0388073
0.0334762
0.0284696
0.0237441
0.0191245
0.0140596
0.00607207
0.0389563
0.0341117
0.0295395
0.0252396
0.0211512
0.0171029
0.0125807
0.00521187
0.0433296
0.0373494
0.0319688
0.0270585
0.0224928
0.0180643
0.0132232
0.00543551
0.0468934
0.040113
0.0340737
0.0286362
0.0236488
0.018879
0.0137463
0.00559728
0.0491051
0.041867
0.0354465
0.0296946
0.0244488
0.0194641
0.0141421
0.00577376
0.0494961
0.0422583
0.0358297
0.0300561
0.0247773
0.0197503
0.0143735
0.00593953
0.0479636
0.0412586
0.0352228
0.0297246
0.0246354
0.0197349
0.0144348
0.00608773
0.0448774
0.0392423
0.0338943
0.0288686
0.024117
0.0194576
0.0143262
0.00620967
0.0391637
0.0343317
0.0297669
0.0254671
0.0213697
0.0173006
0.0127392
0.00527897
0.0435112
0.0375484
0.0321816
0.0272768
0.0227058
0.0182586
0.0133788
0.00549646
0.0470576
0.0402953
0.0342752
0.0288495
0.023862
0.019077
0.013908
0.00568115
0.0492713
0.0420487
0.0356495
0.029913
0.0246704
0.0196728
0.0143149
0.00587018
0.0496804
0.0424559
0.0360476
0.0302892
0.0250137
0.0199732
0.0145581
0.00604173
0.0481739
0.0414809
0.0354621
0.0299764
0.0248887
0.0199725
0.014631
0.00619495
0.0451104
0.0394874
0.0341523
0.0291355
0.0243826
0.0197054
0.0145307
0.00631986
0.0392397
0.0344404
0.0298981
0.0256114
0.0215175
0.0174411
0.0128574
0.00534802
0.0435407
0.0376266
0.0322935
0.0274091
0.022846
0.0183937
0.0134915
0.00555293
0.0470449
0.0403451
0.0343704
0.0289737
0.0240002
0.0192142
0.0140258
0.00575183
0.0492394
0.0420875
0.035741
0.0300394
0.0248146
0.0198178
0.0144401
0.00594569
0.04966
0.042506
0.036151
0.0304284
0.0251712
0.0201308
0.0146934
0.00612187
0.048189
0.0415579
0.0355873
0.0301343
0.0250626
0.020144
0.014777
0.0062795
0.0451669
0.039593
0.034298
0.0293092
0.0245693
0.0198874
0.0146847
0.00640722
0.0392389
0.0344746
0.0299589
0.0256914
0.0216087
0.0175344
0.0129404
0.00540156
0.0434938
0.0376309
0.0323344
0.0274759
0.0229288
0.0184816
0.0135709
0.00560634
0.0469553
0.0403223
0.0343948
0.0290314
0.0240791
0.0193018
0.0141066
0.00580666
0.0491274
0.0420536
0.0357616
0.0300982
0.0248977
0.019911
0.0145263
0.00600344
0.0495574
0.0424832
0.0361837
0.0304996
0.0252663
0.0202348
0.0147881
0.00618324
0.048122
0.0415629
0.0356431
0.0302249
0.0251737
0.0202609
0.014881
0.00634439
0.0451445
0.0396279
0.034376
0.0294171
0.0246939
0.0200144
0.0147955
0.00647431
0.0391807
0.0344484
0.0299622
0.0257193
0.0216546
0.0175899
0.0129949
0.00544144
0.0433984
0.0375761
0.0323162
0.0274886
0.0229646
0.0185308
0.0136213
0.00564615
0.0468303
0.0402448
0.0343599
0.0290332
0.0241092
0.0193492
0.0141572
0.00584721
0.0489912
0.0419693
0.0357229
0.0300991
0.0249296
0.0199622
0.0145812
0.00604628
0.0494339
0.0424116
0.0361566
0.030511
0.0253078
0.0202945
0.0148501
0.00622916
0.0480295
0.0415185
0.0356387
0.0302545
0.0252293
0.0203315
0.0149509
0.00639322
0.045088
0.0396122
0.0343947
0.0294643
0.0247622
0.0200935
0.0148704
0.00652452
0.0390557
0.0343644
0.029917
0.0257069
0.0216667
0.0176175
0.0130279
0.00547062
0.0432318
0.0374574
0.0322452
0.0274584
0.0229653
0.0185512
0.0136495
0.00567461
0.0466352
0.0400991
0.0342677
0.0289892
0.0241024
0.0193666
0.014185
0.00587625
0.0487882
0.0418136
0.0356223
0.0300503
0.0249221
0.0199819
0.0146125
0.00607741
0.0492446
0.0422659
0.0360635
0.0304687
0.0253068
0.0203212
0.014888
0.0062634
0.0478709
0.0413992
0.0355657
0.0302268
0.0252396
0.0203674
0.0149962
0.00643045
0.0449644
0.0395237
0.0343449
0.0294527
0.0247833
0.0201365
0.0149205
0.00656328
0.0388717
0.0342408
0.0298438
0.025672
0.0216588
0.0176267
0.0130452
0.00549161
0.042986
0.0372897
0.0321426
0.0274051
0.022946
0.0185531
0.0136619
0.00569472
0.0463413
0.039892
0.0341382
0.0289198
0.024075
0.0193653
0.0141968
0.00589688
0.0484712
0.041585
0.0354778
0.0299732
0.0248927
0.0199823
0.0146275
0.00610007
0.0489349
0.0420399
0.0359204
0.0303943
0.0252824
0.0203282
0.0149097
0.00628933
0.0475945
0.0411971
0.0354383
0.0301637
0.0252249
0.0203838
0.0150262
0.00646004
0.0447351
0.0393555
0.034239
0.0294032
0.0247781
0.0201607
0.0149571
0.00659586
0.0386795
0.0341173
0.0297691
0.0256308
0.0216396
0.0176215
0.0130485
0.00550676
0.0427186
0.037121
0.0320417
0.0273483
0.022917
0.0185413
0.0136605
0.00570885
0.0460036
0.0396785
0.0340116
0.0288497
0.0240399
0.0193511
0.0141948
0.00591107
0.0480885
0.0413416
0.0353349
0.0298967
0.0248573
0.0199708
0.0146289
0.00611578
0.0485473
0.041792
0.0357763
0.0303208
0.0252532
0.0203244
0.0149181
0.00630814
0.0472425
0.0409691
0.0353066
0.0301007
0.0252063
0.0203906
0.0150438
0.00648287
0.044441
0.0391595
0.0341255
0.0293526
0.0247704
0.020178
0.0149844
0.00662325
0.0592594
0.0512606
0.0431903
0.0356884
0.0288842
0.0226931
0.0165435
0.00768541
0.0671721
0.0575726
0.0479617
0.039161
0.0313193
0.0243384
0.0176059
0.00807978
0.071142
0.0608758
0.0503477
0.0407508
0.0322962
0.0248818
0.0178699
0.00810539
0.0707172
0.05955
0.0490415
0.0396062
0.0313344
0.0240937
0.0172585
0.00774499
0.0638816
0.0537692
0.0444431
0.0360472
0.0286591
0.0221346
0.0158873
0.00707113
0.054326
0.0458667
0.0380952
0.0311464
0.0249966
0.0194778
0.0140578
0.00624643
0.0443266
0.0377896
0.0317363
0.026256
0.0213239
0.0167933
0.0122
0.00545555
0.0603526
0.0530249
0.0447992
0.0371331
0.0301894
0.0238368
0.0174521
0.0081649
0.0649828
0.0593197
0.0497712
0.0407686
0.0327424
0.025565
0.0185682
0.00858557
0.0664919
0.0625619
0.0523083
0.0424671
0.0338003
0.0261688
0.0188702
0.00862381
0.066958
0.061235
0.0509281
0.0412915
0.0328255
0.0253692
0.0182436
0.00824914
0.0645588
0.0557206
0.0462027
0.0376086
0.0300516
0.0233286
0.0168089
0.00753852
0.0562693
0.0476185
0.0396411
0.0325567
0.0262727
0.0205769
0.0149082
0.0066702
0.0459983
0.0392838
0.0331234
0.02755
0.0224977
0.0178034
0.0129812
0.00583475
0.0619258
0.0543021
0.0460308
0.0383327
0.0313157
0.0248269
0.0182261
0.00857172
0.0672734
0.0609345
0.0511616
0.0420722
0.0339444
0.0266048
0.0193674
0.0089991
0.0684235
0.0642709
0.0538336
0.0438821
0.0350858
0.0272608
0.0196953
0.00904097
0.0696204
0.0630217
0.0525146
0.0427503
0.0341314
0.0264661
0.0190666
0.00866032
0.0664655
0.0573475
0.0476952
0.038996
0.031295
0.0243761
0.0175981
0.00793154
0.0579253
0.0491192
0.0410589
0.0338767
0.027452
0.0215711
0.0156596
0.00704017
0.0475363
0.040725
0.0344817
0.0287975
0.0236044
0.018735
0.013686
0.00617414
0.0631186
0.0549852
0.0468622
0.0392467
0.0322175
0.0256335
0.0188606
0.008909
0.0705325
0.0617488
0.0519409
0.0429514
0.0348275
0.0273997
0.019992
0.00932855
0.0722931
0.0653475
0.0546396
0.0447894
0.0359868
0.0280621
0.0203191
0.00936309
0.0729806
0.0641259
0.0534556
0.0437299
0.0350669
0.027284
0.0196995
0.00898368
0.0681164
0.0583094
0.0487127
0.0400255
0.0322539
0.0252052
0.0182371
0.00825503
0.0590299
0.0502256
0.0421972
0.0349646
0.0284327
0.022406
0.016298
0.00735792
0.0487675
0.041952
0.0356565
0.029876
0.0245596
0.0195427
0.014302
0.00647334
0.064021
0.0555831
0.0475613
0.0400081
0.0329694
0.0263171
0.0194132
0.00921188
0.0730214
0.0622901
0.0524827
0.0435996
0.0355098
0.0280467
0.0205316
0.00963045
0.0777422
0.0661231
0.0551559
0.0453828
0.0366261
0.0286842
0.0208485
0.00965855
0.0764532
0.0648445
0.0540202
0.0443608
0.0357301
0.0279234
0.0202409
0.00928255
0.0696029
0.0590147
0.0494248
0.040774
0.0329933
0.0258889
0.0187988
0.00855563
0.0599179
0.0510951
0.0430892
0.0358338
0.0292419
0.0231248
0.0168713
0.00765357
0.0497455
0.0429411
0.036614
0.0307724
0.0253775
0.0202585
0.0148654
0.00675346
0.0645734
0.0562691
0.0483023
0.0407267
0.0336479
0.0269364
0.0199269
0.00950394
0.0736862
0.0626826
0.0530708
0.0442404
0.036153
0.0286643
0.0210652
0.00994315
0.0782501
0.066461
0.0556377
0.045956
0.0372341
0.0292946
0.0213911
0.00997743
0.0769627
0.0652584
0.0545328
0.0449438
0.0363508
0.0285474
0.0207916
0.00960142
0.0701322
0.0596013
0.0500791
0.0414499
0.0336751
0.026543
0.019354
0.00886402
0.0606314
0.0518774
0.0438755
0.0366041
0.0299806
0.023802
0.0174251
0.00794696
0.0505827
0.0437871
0.0374417
0.0315706
0.0261304
0.0209345
0.0154072
0.00702786
0.0643983
0.0569468
0.0489596
0.0413501
0.034244
0.0274914
0.020393
0.00977675
0.0709172
0.0629776
0.05369
0.0448774
0.036786
0.029269
0.0215814
0.0102483
0.0754989
0.0663987
0.0562397
0.0466005
0.0378935
0.0299366
0.0219432
0.0103002
0.0756882
0.0655207
0.0551129
0.0455912
0.0370256
0.0292032
0.021349
0.00992095
0.0702216
0.0602042
0.0507599
0.0421542
0.0343774
0.0272015
0.0198976
0.00916447
0.0613606
0.0526529
0.044643
0.0373565
0.0307043
0.0244587
0.017954
0.00822718
0.0513753
0.0445844
0.03823
0.0323401
0.0268556
0.0215796
0.0159187
0.00728785
0.0644122
0.0572973
0.0494013
0.0418259
0.0347283
0.0279524
0.0207798
0.010008
0.0693273
0.0632285
0.0541625
0.0454148
0.0373376
0.0297898
0.0220115
0.0105004
0.0706659
0.0665106
0.0567214
0.0471971
0.0385123
0.0305152
0.0224132
0.0105671
0.0732048
0.0655947
0.055652
0.0462449
0.0376865
0.029807
0.0218305
0.010188
0.0700603
0.0607388
0.0514484
0.0428648
0.035056
0.0278034
0.0203694
0.00941898
0.0619989
0.0534015
0.045403
0.0380904
0.0313837
0.025052
0.018416
0.00846945
0.0521639
0.0453724
0.0389978
0.0330675
0.0275197
0.0221554
0.0163661
0.00751523
0.0647613
0.0574615
0.0496603
0.0421556
0.0350918
0.0283083
0.0210799
0.0101941
0.0701912
0.0635146
0.0544449
0.0457809
0.0377367
0.030171
0.0223235
0.0106889
0.0724028
0.0668832
0.0570372
0.0476182
0.0389646
0.0309341
0.0227455
0.0107594
0.0743639
0.0661203
0.056149
0.0467796
0.0382035
0.0302616
0.0221814
0.0103845
0.0709118
0.061374
0.0520751
0.0434674
0.0356047
0.0282741
0.0207299
0.00961541
0.0627646
0.0541072
0.0460749
0.0387121
0.0319418
0.0255305
0.0187845
0.00866548
0.0529062
0.0460727
0.0396545
0.0336728
0.0280653
0.0226262
0.0167311
0.00770387
0.0655677
0.0576906
0.0498835
0.0424137
0.0353691
0.0285781
0.021309
0.0103468
0.0731313
0.0640314
0.0547073
0.0460408
0.0380069
0.0304323
0.0225456
0.01084
0.0763743
0.0674201
0.0573342
0.047909
0.0392531
0.0312042
0.0229709
0.0109091
0.0765204
0.0667534
0.0565668
0.0471489
0.0385396
0.0305617
0.0224252
0.0105385
0.0718691
0.0619349
0.0525447
0.0438864
0.0359816
0.0286069
0.0209965
0.00977395
0.0633753
0.0546369
0.0465589
0.0391568
0.0323486
0.0258911
0.0190716
0.00882747
0.0534371
0.0465703
0.0401257
0.0341182
0.0284795
0.0229948
0.0170245
0.00786172
0.0656709
0.0577972
0.0500518
0.0425926
0.0355511
0.0287553
0.0214632
0.0104643
0.0734903
0.0641374
0.0548327
0.0461867
0.0381637
0.0305983
0.0227021
0.0109678
0.0775167
0.0679295
0.0575269
0.0480699
0.0394124
0.0313748
0.0231365
0.0110429
0.0771589
0.0671971
0.0568071
0.0473437
0.0387281
0.0307581
0.0226088
0.0106751
0.0724292
0.0622648
0.0528062
0.0441235
0.036219
0.028844
0.0212049
0.00991227
0.0637061
0.0549325
0.0468412
0.0394401
0.032635
0.0261657
0.0193023
0.00896654
0.053715
0.0468616
0.0404313
0.034434
0.0287937
0.0232872
0.0172638
0.00799605
0.0651411
0.0577571
0.0500449
0.0426085
0.0355938
0.0288196
0.0215327
0.0105396
0.0726167
0.0636637
0.0547297
0.0461598
0.0381932
0.030671
0.0227919
0.0110629
0.0768852
0.0672624
0.0574534
0.0480629
0.0394632
0.0314759
0.0232553
0.0111543
0.0766153
0.0668394
0.0567191
0.0473525
0.0388115
0.0308906
0.0227483
0.010789
0.0720243
0.0621747
0.0528203
0.0442161
0.0363692
0.0290212
0.0213682
0.0100265
0.0636353
0.0549794
0.0469661
0.0396209
0.0328476
0.0263815
0.0194861
0.00908135
0.0537905
0.0470158
0.0406374
0.0346704
0.0290395
0.02352
0.0174551
0.00810646
0.0644282
0.0573868
0.0497935
0.042453
0.0355148
0.0287946
0.0215373
0.0105798
0.0694347
0.0630355
0.054381
0.0459706
0.0381144
0.0306617
0.022814
0.0111144
0.0717364
0.0665706
0.0571199
0.0479091
0.0394291
0.0315094
0.0233091
0.0112192
0.0752127
0.0663505
0.0564748
0.0472749
0.0388385
0.0309678
0.022829
0.0108607
0.0716029
0.0619527
0.0527562
0.0442598
0.0364739
0.0291459
0.0214767
0.0101048
0.0635137
0.0549782
0.0470517
0.0397595
0.0330098
0.0265416
0.0196177
0.00916602
0.053849
0.0471362
0.040797
0.0348503
0.0292239
0.0236928
0.0175959
0.00819063
0.0639912
0.0569207
0.0494631
0.0422479
0.0354006
0.0287413
0.0215199
0.0106057
0.069083
0.0626326
0.0539921
0.0457387
0.0379928
0.0306047
0.022789
0.0111331
0.0719772
0.0660792
0.056709
0.0477011
0.0393403
0.0314757
0.0232938
0.0112378
0.0747671
0.0659538
0.0562364
0.0471821
0.0388215
0.0309795
0.0228427
0.0108904
0.071443
0.0618063
0.0527106
0.0442822
0.036526
0.0292042
0.0215243
0.0101494
0.0634766
0.0549978
0.0471174
0.0398477
0.0331061
0.0266352
0.0196949
0.00922351
0.0538993
0.0472123
0.0408909
0.0349554
0.0293352
0.0238025
0.0176896
0.00825242
0.0641423
0.0566939
0.0492756
0.0421178
0.0353192
0.0286983
0.021505
0.0106336
0.0710621
0.0625923
0.0538249
0.0455977
0.0378882
0.0305341
0.0227483
0.011148
0.0747224
0.0662396
0.0565655
0.0475679
0.0392318
0.0313933
0.0232387
0.0112433
0.0755814
0.0659655
0.0561541
0.0471012
0.0387506
0.0309274
0.0228128
0.0109082
0.0714809
0.0617781
0.052674
0.0442465
0.0364989
0.0291943
0.0215299
0.0101834
0.0634749
0.0549884
0.0471059
0.0398429
0.0331181
0.0266663
0.0197351
0.00926906
0.053862
0.0471831
0.0408793
0.0349691
0.0293763
0.0238643
0.0177563
0.00830485
0.0643475
0.0566895
0.049213
0.0420338
0.0352402
0.0286412
0.0214764
0.0106616
0.0716863
0.0629746
0.0538073
0.0455021
0.0377786
0.0304499
0.0227051
0.0111787
0.0761486
0.0668372
0.056604
0.0474614
0.0390951
0.031288
0.0231868
0.0112749
0.0759686
0.0663264
0.0561368
0.0469849
0.0386247
0.0308446
0.0227843
0.0109486
0.0716714
0.0617738
0.0525664
0.044117
0.0364014
0.0291505
0.0215321
0.0102312
0.0633821
0.0548549
0.0469661
0.0397388
0.03307
0.0266702
0.0197711
0.00932134
0.053665
0.0470198
0.0407699
0.0349223
0.0293855
0.0239129
0.0178215
0.00836119
0.0429562
0.0364415
0.030428
0.0250161
0.0201954
0.0158174
0.0114191
0.00500823
0.045161
0.0374914
0.0308148
0.0250172
0.0199689
0.0154714
0.0110535
0.00467206
0.045435
0.0373734
0.0304657
0.0245625
0.0194863
0.0150065
0.0106477
0.00435878
0.0434839
0.0357739
0.029174
0.023543
0.018699
0.0144099
0.010212
0.00408665
0.0398367
0.0329742
0.0270861
0.0220279
0.0176297
0.0136774
0.00973323
0.0038475
0.0352956
0.0295381
0.0245696
0.020233
0.0163841
0.012843
0.00920563
0.00364498
0.0304552
0.0260409
0.0220411
0.0184235
0.0151177
0.0119839
0.00865596
0.00352057
0.0445892
0.0379411
0.0318506
0.0263566
0.0214115
0.0168557
0.012214
0.00538657
0.0469535
0.0391431
0.0323755
0.0264735
0.0212765
0.0165783
0.0118924
0.00505852
0.0473179
0.0391426
0.0321415
0.0261164
0.0208699
0.0161708
0.0115261
0.0047522
0.0454251
0.0376296
0.0309321
0.0251594
0.0201251
0.0156027
0.0111093
0.00447578
0.0418017
0.0348673
0.0288679
0.0236474
0.0190445
0.014855
0.0106178
0.00422234
0.0372518
0.0314077
0.0263052
0.0217906
0.0177358
0.0139626
0.0100422
0.00400071
0.032341
0.027817
0.0236722
0.0198827
0.0163846
0.0130369
0.00944906
0.00385562
0.0461822
0.0394582
0.033273
0.0276533
0.0225528
0.0178112
0.0129348
0.00572787
0.0487247
0.0408137
0.0339282
0.027875
0.0225
0.017598
0.0126594
0.00541099
0.0491786
0.0409059
0.0337786
0.0275898
0.0221527
0.0172382
0.0123278
0.00511165
0.0473102
0.0394285
0.0326007
0.0266571
0.0214259
0.016684
0.0119205
0.00483393
0.0436773
0.0366522
0.0305117
0.0251133
0.0203146
0.0159087
0.011407
0.00456865
0.0390842
0.0331269
0.0278701
0.0231804
0.0189365
0.0149562
0.0107846
0.00432059
0.0340717
0.0294203
0.0251264
0.0211733
0.0175016
0.0139657
0.0101491
0.00414943
0.0474776
0.0407406
0.0344883
0.0287655
0.0235378
0.0186461
0.0135736
0.00603323
0.0501551
0.0422099
0.0352413
0.029071
0.0235584
0.0184959
0.0133458
0.00572906
0.0506825
0.04237
0.0351525
0.0288403
0.0232592
0.0181761
0.0130427
0.00543541
0.0488495
0.0409184
0.0339923
0.027919
0.0225402
0.0176262
0.012637
0.00515429
0.0452274
0.0381303
0.0318771
0.0263445
0.0213956
0.0168174
0.0120945
0.00487836
0.0405984
0.0345452
0.0291683
0.0243446
0.0199551
0.0158103
0.01143
0.00460528
0.0354968
0.0307433
0.0263313
0.0222517
0.0184452
0.0147592
0.0107528
0.00440503
0.0484542
0.0417419
0.035467
0.0296889
0.0243869
0.0193926
0.0141624
0.00632099
0.0511635
0.0432612
0.0362797
0.0300611
0.0244729
0.0192992
0.0139756
0.00602674
0.0517252
0.0434572
0.0362307
0.0298699
0.0242081
0.0190058
0.0136889
0.00573401
0.0499329
0.042031
0.0350841
0.0289536
0.0234866
0.0184475
0.013273
0.0054446
0.0463509
0.0392502
0.0329539
0.0273508
0.0223055
0.0175986
0.0126933
0.00515292
0.0417247
0.0356372
0.0302001
0.0252976
0.0208099
0.0165419
0.0119922
0.00485846
0.0365795
0.0317749
0.0272953
0.0231354
0.0192342
0.0154334
0.0112716
0.00462608
0.0492824
0.0425885
0.0363104
0.0305153
0.0251714
0.0200971
0.0147257
0.00660071
0.0519565
0.0441255
0.0371696
0.0309418
0.025308
0.020044
0.0145648
0.00631002
0.052493
0.0443258
0.0371376
0.0307686
0.0250562