/*--------------------------------*- C++ -*----------------------------------*\
| =========                 |                                                 |
| \\      /  F ield         | OpenFOAM: The Open Source CFD Toolbox           |
|  \\    /   O peration     | Version:  plus.master.MPPICInterFoam            |
|   \\  /    A nd           | Web:      www.OpenFOAM.com                      |
|    \\/     M anipulation  |                                                 |
\*---------------------------------------------------------------------------*/
FoamFile
{
    version     2.0;
    format      ascii;
    class       volScalarField;
    location    "12.2";
    object      p;
}
// * * * * * * * * * * * * * * * * * * * * * * * * * * * * * * * * * * * * * //

dimensions      [1 -1 -2 0 0 0 0];

internalField   nonuniform List<scalar> 
11821
(
2352.23
2354.82
2351.7
2355.56
2353.08
2350.53
2251.35
2251.87
2251.96
2251.66
2251.38
2250.94
2250.38
2249.41
2249.92
2250.38
2250.77
2251.33
2251.25
2250.73
2244.88
2249.77
2248.84
2247.72
2250.44
2251.3
2250.96
2240.78
2261.19
2258.07
2245.42
2249.17
2251.25
2251.1
2236.23
2256.2
2256.33
2243.15
2247.91
2250.89
2250.95
2230.19
2236.59
2240.65
2240.93
2247.32
2250.29
2250.58
2240.12
2236.68
2238.56
2243.88
2248.14
2250.01
2250.23
2150.08
2149.4
2149.95
2150.71
2151.6
2152.39
2153
2147.16
2144.38
2146.5
2148.31
2150.06
2151.51
2152.48
2144.4
2148.5
2146.55
2145.78
2148.3
2150.55
2151.95
2144.72
2141.61
2141.84
2144.89
2146.33
2149.61
2151.49
2138.09
2140.3
2144.13
2146.06
2143.7
2148.83
2151.16
2142.06
2140.2
2143.19
2141.68
2145.63
2149.07
2151.22
2146.17
2143.82
2145.34
2145.46
2147.41
2150.03
2151.64
2060.83
2059.9
2060.24
2060.43
2060.46
2060.6
2060.82
2062.37
2059.9
2061.33
2061.21
2060.55
2060.53
2060.69
2067.21
2067.38
2066.94
2064.79
2061.74
2060.8
2060.69
2069.67
2063.05
2064.88
2067.12
2062.71
2060.93
2060.68
2073.44
2073.66
2068.32
2070.64
2061.04
2060.46
2060.59
2074.13
2073.84
2071.83
2069.57
2063.91
2061.41
2060.98
2071.84
2073.12
2072.61
2068.08
2063.31
2061.62
2061.25
1973.16
1972.79
1972.75
1972.41
1971.86
1971.39
1971.01
1975.56
1975.09
1975.27
1974.14
1972.71
1971.95
1971.38
1981.96
1981.45
1982.08
1978.58
1974.42
1972.71
1971.81
1982.1
1979.23
1982.08
1981.64
1975.99
1973.31
1972.14
1982.54
1973.76
1975.16
1982.59
1975.77
1973.32
1972.26
1984.58
1982.97
1984.41
1984.32
1977.11
1973.84
1972.56
1983.44
1985.09
1984.04
1980.65
1975.6
1973.49
1972.53
1884.07
1884.04
1883.77
1883.13
1882.3
1881.49
1880.78
1886.27
1886.43
1886.15
1884.73
1883.4
1882.33
1881.39
1892.11
1893.71
1892.54
1888.14
1884.83
1883.23
1881.99
1896.41
1895.46
1895.25
1892.03
1886.21
1883.86
1882.43
1896.35
1886.32
1894.28
1892.3
1886.09
1883.91
1882.57
1897.42
1895.78
1895.75
1892.14
1885.95
1883.87
1882.62
1891.37
1891.69
1891.47
1888.17
1884.76
1883.36
1882.37
1791.18
1791.45
1791.26
1790.69
1790.04
1789.38
1788.78
1791.87
1792.67
1792.61
1791.68
1790.85
1790.03
1789.26
1794.47
1797.95
1796.47
1793.18
1791.72
1790.69
1789.72
1799.05
1805
1802.49
1795.43
1792.52
1791.23
1790.07
1801.86
1809.96
1804.85
1795.82
1792.4
1791.29
1790.17
1796.04
1802.97
1801.23
1793.82
1791.86
1791.01
1790.08
1791.56
1792.37
1792.76
1791.71
1790.96
1790.46
1789.78
1695.38
1695.62
1695.79
1695.78
1695.73
1695.65
1695.51
1694.18
1694.73
1695.46
1695.65
1695.76
1695.74
1695.61
1693.54
1696.14
1696.77
1695.73
1695.83
1695.86
1695.72
1692.89
1700.23
1697.67
1696.29
1695.82
1695.98
1695.82
1688.16
1697.66
1698.74
1695.83
1695.17
1695.85
1695.79
1687.18
1693.73
1698.85
1693.45
1694.81
1695.59
1695.69
1692.09
1691.01
1693.59
1694.05
1694.74
1695.45
1695.6
1602.34
1602.13
1602.27
1602.41
1602.59
1602.74
1602.83
1601.86
1601.24
1601.81
1602.02
1602.32
1602.61
1602.78
1602.76
1603.22
1603.14
1602.21
1602.22
1602.55
1602.75
1604.91
1601.03
1604.21
1602.4
1602.21
1602.57
1602.75
1602.56
1601.99
1603.86
1603.17
1601.76
1602.5
1602.74
1603.55
1603.71
1605.78
1602.63
1602.15
1602.56
1602.78
1605.64
1605.28
1605.56
1603.22
1602.44
1602.67
1602.85
1512.55
1512.28
1512.09
1511.88
1511.72
1511.57
1511.44
1513.89
1513.15
1512.95
1512.32
1511.94
1511.74
1511.56
1518.34
1518.2
1516.8
1514.08
1512.49
1512
1511.71
1520.64
1515.89
1519.32
1515.85
1513.13
1512.27
1511.84
1523.22
1517.64
1516.12
1516.67
1513.18
1512.36
1511.89
1522.73
1521.64
1520.63
1516.98
1513.46
1512.41
1511.95
1521.26
1521.83
1519.65
1515.62
1513.06
1512.26
1511.92
1421.72
1421.57
1421.37
1421.08
1420.77
1420.47
1420.23
1422.94
1422.58
1422.41
1421.68
1421.17
1420.78
1420.44
1427.29
1427.59
1426.24
1423.49
1421.83
1421.15
1420.66
1429.31
1428.49
1427.76
1425.79
1422.52
1421.45
1420.83
1430.61
1423.25
1427.19
1425.43
1422.26
1421.45
1420.87
1431.03
1429.81
1428.35
1426.45
1422.7
1421.53
1420.93
1428.07
1427.78
1427.32
1424.42
1422.1
1421.28
1420.84
1329.44
1329.47
1329.42
1329.18
1328.96
1328.76
1328.58
1329.69
1329.84
1330.06
1329.52
1329.21
1328.97
1328.73
1332.42
1334.03
1332.92
1330.64
1329.64
1329.22
1328.88
1335.18
1335.84
1335.78
1332.03
1330.13
1329.47
1329.01
1334.81
1336.58
1337.39
1332.44
1329.94
1329.47
1329.04
1334.02
1336.29
1336.05
1332.26
1329.98
1329.44
1329.06
1331.39
1332.12
1332.66
1330.71
1329.49
1329.18
1328.96
1237
1237.1
1237.05
1236.87
1236.72
1236.6
1236.51
1237.07
1237.43
1237.61
1237.16
1236.9
1236.73
1236.58
1239.65
1241.56
1240.37
1238.22
1237.31
1236.94
1236.68
1242.75
1246.27
1242.09
1239.65
1237.83
1237.18
1236.79
1238.05
1245.12
1243.58
1240.28
1237.52
1237.16
1236.8
1236.71
1243.34
1244.22
1239.24
1237.42
1237.03
1236.78
1238.34
1240
1240.79
1238.14
1237
1236.82
1236.7
1144.34
1144.18
1144.17
1144.18
1144.17
1144.15
1144.12
1144.59
1144.08
1144.4
1144.28
1144.22
1144.2
1144.16
1147.27
1148.04
1146.87
1145.38
1144.49
1144.33
1144.22
1150.05
1147.08
1146.6
1146.49
1144.86
1144.49
1144.3
1148.06
1145.49
1146.6
1147.04
1144.65
1144.48
1144.32
1147.16
1149.61
1150.54
1146.93
1144.79
1144.47
1144.33
1149.07
1149.74
1149.58
1146.22
1144.64
1144.38
1144.31
1052.48
1052.28
1052.24
1052.16
1052.08
1051.95
1051.81
1053.25
1052.73
1052.84
1052.42
1052.25
1052.13
1051.95
1056.79
1056.63
1055.66
1053.84
1052.68
1052.36
1052.12
1059.22
1053.76
1056.94
1055.4
1053.34
1052.62
1052.25
1060.58
1054.19
1054.8
1055.9
1053.32
1052.67
1052.3
1060.4
1060.09
1059.09
1056.07
1053.47
1052.66
1052.3
1059.96
1059.3
1058.26
1054.92
1052.97
1052.44
1052.21
960.159
960.086
960.022
959.849
959.676
959.478
959.298
961.007
960.743
960.765
960.174
959.928
959.696
959.47
964.5
964.52
963.721
961.571
960.36
959.962
959.65
966.897
966.443
965.708
963.189
961.008
960.228
959.786
968.334
961.852
965.39
962.596
960.834
960.201
959.793
968.539
967.737
966.043
963.519
961.046
960.191
959.773
965.764
964.735
964.342
962.078
960.408
959.893
959.627
865.961
866.062
866.2
866.212
866.259
866.293
866.317
865.528
865.749
866.309
866.1
866.193
866.272
866.312
867.068
868.144
867.963
866.661
866.255
866.292
866.326
868.994
869.458
869.347
867.392
866.426
866.358
866.339
868.805
869.632
871.609
866.923
866.102
866.304
866.31
868.057
870.303
869.915
867.164
866.274
866.295
866.294
865.955
866.276
866.827
866.342
865.947
866.136
866.219
2342.6
2342.42
2345.26
2344.23
2343.48
2342.96
2342.61
2342.43
2349.2
2347.19
2345.66
2344.51
2343.68
2343.11
2342.74
2342.56
2349.43
2347.44
2345.9
2344.74
2343.9
2343.33
2342.98
2342.81
2349.16
2347.4
2346.02
2344.97
2344.2
2343.68
2343.37
2343.24
2348.36
2347.06
2345.97
2345.11
2344.47
2344.04
2343.79
2343.69
2249.9
2249.53
2249.23
2248.99
2248.81
2248.67
2248.55
2248.51
2250.19
2249.72
2249.33
2249.03
2248.81
2248.64
2248.5
2248.42
2250.4
2249.89
2249.45
2249.11
2248.85
2248.66
2248.52
2248.44
2250.54
2250.02
2249.56
2249.2
2248.92
2248.73
2248.6
2248.54
2250.49
2250.03
2249.62
2249.28
2249.02
2248.84
2248.74
2248.69
2250.25
2249.93
2249.62
2249.36
2249.15
2249.02
2248.94
2248.93
2249.81
2249.61
2249.46
2249.33
2249.23
2249.16
2249.15
2249.17
2153.4
2153.71
2153.99
2154.21
2154.37
2154.49
2154.55
2154.6
2153.13
2153.57
2153.89
2154.14
2154.32
2154.45
2154.52
2154.55
2152.82
2153.37
2153.76
2154.05
2154.27
2154.42
2154.51
2154.57
2152.56
2153.2
2153.66
2153.99
2154.24
2154.42
2154.54
2154.62
2152.37
2153.09
2153.6
2153.97
2154.24
2154.44
2154.59
2154.71
2152.35
2153.08
2153.61
2154
2154.29
2154.51
2154.68
2154.8
2152.36
2152.96
2153.5
2153.92
2154.25
2154.52
2154.73
2154.87
2060.92
2061.12
2061.33
2061.52
2061.69
2061.82
2061.91
2061.99
2060.86
2061.08
2061.29
2061.49
2061.67
2061.81
2061.92
2061.99
2060.82
2061.04
2061.26
2061.46
2061.65
2061.81
2061.95
2062.04
2060.82
2061.03
2061.25
2061.47
2061.67
2061.85
2061.99
2062.11
2060.82
2061.05
2061.29
2061.51
2061.72
2061.9
2062.07
2062.21
2061.06
2061.23
2061.44
2061.65
2061.84
2062.03
2062.2
2062.34
2061.14
2061.28
2061.49
2061.7
2061.91
2062.13
2062.33
2062.48
1970.65
1970.49
1970.4
1970.34
1970.33
1970.35
1970.38
1970.42
1970.91
1970.66
1970.5
1970.41
1970.37
1970.38
1970.41
1970.45
1971.2
1970.85
1970.63
1970.5
1970.44
1970.44
1970.47
1970.52
1971.44
1971.04
1970.77
1970.61
1970.54
1970.53
1970.57
1970.64
1971.6
1971.19
1970.92
1970.75
1970.68
1970.67
1970.72
1970.8
1971.86
1971.42
1971.14
1970.98
1970.9
1970.89
1970.95
1971.03
1971.81
1971.48
1971.25
1971.13
1971.08
1971.11
1971.2
1971.31
1880.18
1879.81
1879.51
1879.29
1879.15
1879.06
1879.03
1879.06
1880.61
1880.07
1879.67
1879.39
1879.2
1879.09
1879.04
1879.05
1881.02
1880.35
1879.86
1879.51
1879.28
1879.15
1879.11
1879.12
1881.34
1880.6
1880.06
1879.67
1879.42
1879.28
1879.23
1879.26
1881.51
1880.78
1880.24
1879.85
1879.59
1879.45
1879.41
1879.45
1881.64
1880.95
1880.44
1880.08
1879.84
1879.71
1879.69
1879.73
1881.41
1880.89
1880.5
1880.22
1880.04
1879.97
1879.98
1880.04
1788.3
1787.97
1787.71
1787.52
1787.39
1787.31
1787.27
1787.3
1788.64
1788.18
1787.83
1787.58
1787.41
1787.3
1787.26
1787.27
1788.94
1788.39
1787.97
1787.67
1787.47
1787.34
1787.3
1787.32
1789.19
1788.58
1788.13
1787.8
1787.57
1787.44
1787.4
1787.42
1789.3
1788.71
1788.26
1787.93
1787.71
1787.6
1787.57
1787.6
1789.3
1788.78
1788.39
1788.1
1787.91
1787.81
1787.79
1787.84
1788.97
1788.6
1788.33
1788.16
1788.04
1788
1788.02
1788.08
1695.37
1695.28
1695.22
1695.18
1695.15
1695.16
1695.18
1695.23
1695.47
1695.35
1695.25
1695.19
1695.15
1695.15
1695.17
1695.22
1695.54
1695.4
1695.29
1695.22
1695.18
1695.17
1695.2
1695.26
1695.62
1695.47
1695.36
1695.28
1695.24
1695.24
1695.28
1695.35
1695.64
1695.51
1695.41
1695.35
1695.32
1695.33
1695.38
1695.46
1695.59
1695.52
1695.48
1695.45
1695.44
1695.46
1695.52
1695.6
1695.33
1695.31
1695.37
1695.42
1695.48
1695.55
1695.64
1695.74
1602.85
1602.89
1602.95
1603
1603.06
1603.12
1603.19
1603.26
1602.85
1602.91
1602.96
1603.01
1603.06
1603.13
1603.2
1603.28
1602.85
1602.91
1602.97
1603.02
1603.08
1603.15
1603.24
1603.33
1602.87
1602.94
1603
1603.06
1603.13
1603.21
1603.3
1603.4
1602.88
1602.96
1603.04
1603.11
1603.19
1603.27
1603.37
1603.47
1602.91
1603.01
1603.11
1603.19
1603.27
1603.36
1603.47
1603.56
1602.77
1602.87
1603.02
1603.16
1603.28
1603.41
1603.54
1603.65
1511.31
1511.29
1511.31
1511.34
1511.38
1511.44
1511.51
1511.59
1511.42
1511.37
1511.36
1511.37
1511.4
1511.46
1511.53
1511.61
1511.53
1511.44
1511.4
1511.4
1511.43
1511.49
1511.57
1511.66
1511.62
1511.51
1511.46
1511.45
1511.48
1511.54
1511.62
1511.72
1511.68
1511.57
1511.52
1511.52
1511.54
1511.6
1511.69
1511.79
1511.74
1511.64
1511.6
1511.6
1511.63
1511.69
1511.78
1511.87
1511.61
1511.55
1511.56
1511.6
1511.67
1511.76
1511.87
1511.97
1420.01
1419.92
1419.87
1419.85
1419.85
1419.88
1419.93
1420
1420.17
1420.02
1419.93
1419.88
1419.86
1419.88
1419.93
1420
1420.32
1420.11
1419.98
1419.91
1419.88
1419.9
1419.96
1420.03
1420.44
1420.2
1420.05
1419.96
1419.93
1419.94
1420
1420.08
1420.49
1420.26
1420.11
1420.02
1419.99
1420.01
1420.07
1420.15
1420.56
1420.34
1420.2
1420.12
1420.09
1420.11
1420.17
1420.25
1420.4
1420.24
1420.17
1420.14
1420.15
1420.2
1420.28
1420.36
1328.41
1328.31
1328.23
1328.17
1328.15
1328.16
1328.19
1328.26
1328.51
1328.36
1328.25
1328.17
1328.13
1328.13
1328.17
1328.23
1328.59
1328.4
1328.27
1328.18
1328.13
1328.13
1328.17
1328.24
1328.68
1328.46
1328.31
1328.21
1328.16
1328.16
1328.21
1328.28
1328.72
1328.51
1328.36
1328.26
1328.22
1328.22
1328.28
1328.35
1328.77
1328.57
1328.44
1328.36
1328.32
1328.33
1328.38
1328.45
1328.59
1328.47
1328.41
1328.38
1328.38
1328.41
1328.48
1328.55
1236.4
1236.32
1236.25
1236.2
1236.17
1236.18
1236.22
1236.28
1236.44
1236.32
1236.24
1236.17
1236.14
1236.15
1236.19
1236.24
1236.47
1236.33
1236.23
1236.16
1236.12
1236.13
1236.17
1236.24
1236.53
1236.36
1236.25
1236.18
1236.14
1236.15
1236.2
1236.27
1236.56
1236.4
1236.29
1236.23
1236.2
1236.21
1236.26
1236.34
1236.58
1236.44
1236.36
1236.31
1236.29
1236.31
1236.36
1236.43
1236.44
1236.37
1236.34
1236.33
1236.34
1236.38
1236.45
1236.52
1144.03
1143.99
1143.96
1143.95
1143.95
1143.98
1144.02
1144.07
1144.07
1144.01
1143.96
1143.94
1143.93
1143.95
1144
1144.06
1144.11
1144.03
1143.97
1143.94
1143.93
1143.94
1144
1144.06
1144.16
1144.07
1144.01
1143.97
1143.95
1143.97
1144.02
1144.1
1144.19
1144.1
1144.04
1144.01
1144
1144.02
1144.08
1144.15
1144.22
1144.15
1144.1
1144.08
1144.08
1144.11
1144.16
1144.23
1144.14
1144.1
1144.09
1144.1
1144.13
1144.18
1144.24
1144.3
1051.65
1051.59
1051.57
1051.57
1051.58
1051.62
1051.67
1051.71
1051.78
1051.69
1051.63
1051.61
1051.6
1051.63
1051.67
1051.73
1051.91
1051.78
1051.69
1051.64
1051.63
1051.65
1051.69
1051.75
1052.01
1051.85
1051.75
1051.69
1051.67
1051.68
1051.72
1051.79
1052.05
1051.89
1051.79
1051.73
1051.71
1051.72
1051.76
1051.82
1052.06
1051.92
1051.84
1051.79
1051.77
1051.78
1051.82
1051.87
1051.95
1051.85
1051.81
1051.78
1051.79
1051.82
1051.87
1051.92
959.137
959.077
959.058
959.057
959.07
959.098
959.145
959.19
959.28
959.182
959.127
959.099
959.095
959.116
959.16
959.215
959.416
959.273
959.183
959.135
959.12
959.136
959.181
959.24
959.513
959.34
959.231
959.17
959.146
959.156
959.199
959.259
959.525
959.359
959.251
959.189
959.162
959.17
959.211
959.266
959.502
959.354
959.262
959.208
959.187
959.195
959.231
959.281
959.314
959.219
959.177
959.164
959.173
959.201
959.246
959.293
866.312
866.333
866.357
866.38
866.41
866.452
866.51
866.562
866.315
866.335
866.354
866.375
866.405
866.451
866.513
866.576
866.325
866.328
866.34
866.362
866.397
866.449
866.516
866.586
866.329
866.323
866.333
866.357
866.392
866.444
866.515
866.591
866.307
866.308
866.323
866.349
866.386
866.44
866.511
866.585
866.271
866.288
866.314
866.348
866.391
866.445
866.512
866.579
866.101
866.141
866.205
866.27
866.335
866.402
866.476
866.537
2245.18
2248.53
2249.85
2250.55
2250.98
2251.26
2251.48
2251.67
2239.96
2246.72
2249.15
2250.28
2250.87
2251.2
2251.45
2251.69
2239.52
2247.72
2249.79
2250.66
2251.05
2251.27
2251.46
2251.69
2243.12
2249.2
2250.52
2251.07
2251.26
2251.35
2251.48
2251.67
2247.51
2250.28
2251.03
2251.23
2251.28
2251.29
2251.37
2251.52
2250.41
2251.31
2251.37
2251.29
2251.19
2251.14
2251.17
2251.27
2251.61
2251.69
2251.46
2251.22
2251.05
2250.95
2250.94
2250.99
2147.33
2149.36
2151.25
2152.72
2153.83
2154.65
2155.27
2155.7
2146.6
2147.84
2150.25
2152.08
2153.38
2154.32
2155.04
2155.58
2146.83
2147.13
2149.68
2151.64
2153.02
2154.05
2154.84
2155.44
2146.31
2148.03
2150.29
2151.98
2153.23
2154.17
2154.91
2155.47
2147.31
2149.44
2151.38
2152.74
2153.75
2154.51
2155.11
2155.57
2149.33
2151.3
2152.58
2153.53
2154.26
2154.82
2155.26
2155.6
2151.64
2152.76
2153.51
2154.13
2154.63
2155.02
2155.33
2155.58
2066.25
2063.64
2063.04
2063.01
2063.18
2063.48
2063.88
2064.27
2071.02
2065.21
2063.47
2063.01
2063.04
2063.31
2063.77
2064.26
2071.88
2065.43
2063.18
2062.56
2062.61
2062.95
2063.48
2064.04
2068.42
2063.7
2062.31
2062.08
2062.31
2062.72
2063.26
2063.81
2064.84
2062.31
2061.85
2061.95
2062.26
2062.66
2063.13
2063.6
2061.53
2061.29
2061.5
2061.84
2062.2
2062.58
2062.97
2063.33
2060.99
2061.24
2061.56
2061.9
2062.22
2062.53
2062.84
2063.12
1976.93
1974.37
1973.79
1973.5
1973.37
1973.44
1973.72
1974.06
1981.99
1976.31
1974.49
1973.83
1973.55
1973.57
1973.87
1974.29
1980.84
1975.54
1974.03
1973.56
1973.38
1973.43
1973.75
1974.22
1980.68
1975.38
1973.86
1973.37
1973.17
1973.2
1973.49
1973.92
1977.23
1974.19
1973.31
1972.93
1972.78
1972.82
1973.07
1973.44
1973.54
1972.7
1972.42
1972.29
1972.25
1972.33
1972.56
1972.85
1972.41
1972.2
1972.07
1971.97
1971.94
1972
1972.17
1972.39
1886.13
1884.28
1883.73
1883.19
1882.81
1882.7
1882.83
1883.08
1890.37
1885.97
1884.58
1883.79
1883.24
1883
1883.09
1883.37
1891.61
1886.39
1884.77
1883.99
1883.4
1883.1
1883.14
1883.42
1890.96
1886.24
1884.7
1883.84
1883.21
1882.88
1882.9
1883.15
1887.28
1884.77
1883.83
1883.12
1882.61
1882.35
1882.38
1882.6
1884.24
1883.37
1882.75
1882.23
1881.88
1881.72
1881.78
1881.96
1883.15
1882.65
1882.15
1881.72
1881.41
1881.28
1881.31
1881.44
1789.88
1790.19
1790.29
1790.12
1790.02
1790.06
1790.22
1790.45
1790.22
1790.62
1790.83
1790.53
1790.26
1790.19
1790.31
1790.56
1792.46
1791.3
1791.29
1790.85
1790.44
1790.25
1790.32
1790.56
1792.62
1791.45
1791.23
1790.74
1790.31
1790.1
1790.14
1790.37
1791.57
1790.96
1790.67
1790.24
1789.91
1789.75
1789.8
1790
1790.73
1790.46
1790.08
1789.71
1789.46
1789.36
1789.41
1789.57
1790.54
1790.22
1789.81
1789.45
1789.19
1789.08
1789.1
1789.21
1692.88
1694.09
1695.06
1695.69
1696.15
1696.5
1696.84
1697.14
1691.3
1693.36
1694.58
1695.34
1695.86
1696.26
1696.65
1697.02
1689.66
1692.93
1694.39
1695.16
1695.65
1696.05
1696.45
1696.85
1691.86
1693.61
1694.76
1695.33
1695.7
1696.01
1696.37
1696.74
1693.38
1694.28
1695.08
1695.48
1695.76
1696.01
1696.29
1696.6
1694.38
1695.12
1695.46
1695.65
1695.82
1695.99
1696.2
1696.43
1695.49
1695.8
1695.86
1695.87
1695.9
1695.99
1696.12
1696.28
1603.57
1602.71
1603.14
1603.55
1603.9
1604.21
1604.54
1604.84
1605.48
1603.17
1602.96
1603.29
1603.64
1603.98
1604.39
1604.78
1604.92
1602.93
1602.67
1602.94
1603.31
1603.69
1604.13
1604.58
1604.01
1602.55
1602.59
1602.9
1603.24
1603.6
1604.01
1604.44
1602.49
1602.12
1602.59
1602.95
1603.27
1603.58
1603.93
1604.28
1601.97
1602.42
1602.78
1603.07
1603.32
1603.57
1603.84
1604.11
1602.56
1602.91
1603.09
1603.25
1603.41
1603.58
1603.78
1603.97
1516.35
1513.7
1513.26
1513.05
1512.96
1513.01
1513.19
1513.43
1521.19
1515.71
1513.96
1513.33
1513.06
1513.04
1513.26
1513.58
1522.46
1516.25
1514.02
1513.25
1512.94
1512.92
1513.15
1513.51
1519.65
1515.06
1513.51
1512.95
1512.73
1512.74
1512.97
1513.32
1515.66
1513.38
1512.82
1512.56
1512.47
1512.53
1512.73
1513.02
1512.88
1512.44
1512.29
1512.22
1512.22
1512.31
1512.49
1512.71
1512.22
1512.12
1512.07
1512.05
1512.08
1512.16
1512.31
1512.48
1423.54
1421.54
1421.42
1421.27
1421.19
1421.24
1421.41
1421.64
1427.52
1423.5
1422.18
1421.7
1421.45
1421.41
1421.59
1421.88
1427.45
1423.35
1422.07
1421.71
1421.49
1421.45
1421.62
1421.93
1427.17
1423.34
1422.18
1421.71
1421.44
1421.37
1421.52
1421.81
1424.18
1422.09
1421.63
1421.34
1421.17
1421.14
1421.28
1421.52
1421.75
1421.34
1421.14
1420.98
1420.89
1420.9
1421.03
1421.21
1421.24
1421.09
1420.94
1420.81
1420.74
1420.76
1420.85
1420.99
1328.61
1328.15
1328.56
1328.69
1328.79
1328.96
1329.19
1329.43
1329.91
1329.06
1328.99
1328.97
1328.95
1329.06
1329.29
1329.59
1330.72
1329.12
1329.01
1329.07
1329.04
1329.1
1329.31
1329.62
1331.25
1329.29
1329.21
1329.14
1329.07
1329.1
1329.28
1329.56
1329.85
1328.87
1329
1328.97
1328.94
1328.98
1329.14
1329.38
1328.84
1328.89
1328.92
1328.87
1328.85
1328.89
1329.02
1329.19
1329.11
1329.12
1329.02
1328.92
1328.86
1328.87
1328.95
1329.07
1236.64
1236.29
1236.51
1236.63
1236.75
1236.91
1237.12
1237.35
1235.75
1236.73
1236.44
1236.5
1236.6
1236.77
1237.03
1237.33
1235.75
1236.52
1236.3
1236.35
1236.43
1236.59
1236.86
1237.19
1238.35
1236.89
1236.58
1236.53
1236.51
1236.61
1236.84
1237.14
1237.34
1236.31
1236.42
1236.45
1236.48
1236.58
1236.78
1237.02
1236.33
1236.42
1236.49
1236.5
1236.52
1236.6
1236.74
1236.91
1236.77
1236.81
1236.73
1236.66
1236.63
1236.65
1236.73
1236.85
1146.52
1144.85
1144.74
1144.74
1144.77
1144.86
1145.02
1145.2
1147.93
1145.86
1144.68
1144.54
1144.56
1144.67
1144.91
1145.2
1147.84
1145.64
1144.47
1144.29
1144.3
1144.44
1144.71
1145.05
1147.87
1145.34
1144.43
1144.28
1144.28
1144.4
1144.64
1144.95
1145.62
1144.21
1144.16
1144.17
1144.23
1144.35
1144.55
1144.79
1144.05
1144.03
1144.11
1144.17
1144.23
1144.33
1144.48
1144.65
1144.21
1144.29
1144.29
1144.28
1144.29
1144.35
1144.44
1144.56
1055.93
1053.16
1052.79
1052.63
1052.52
1052.5
1052.59
1052.72
1060.45
1055.47
1053.48
1052.89
1052.62
1052.56
1052.68
1052.91
1061.23
1055.75
1053.46
1052.82
1052.55
1052.51
1052.66
1052.93
1058.4
1054.39
1052.98
1052.59
1052.43
1052.42
1052.57
1052.82
1054.82
1052.81
1052.47
1052.32
1052.25
1052.27
1052.4
1052.59
1052.51
1052.22
1052.18
1052.12
1052.1
1052.14
1052.24
1052.38
1052.2
1052.16
1052.11
1052.06
1052.04
1052.07
1052.14
1052.23
961.693
959.535
959.466
959.397
959.355
959.38
959.469
959.592
965.577
961.766
960.332
959.921
959.695
959.63
959.724
959.91
966.638
962.344
960.574
960.167
959.919
959.824
959.903
960.099
964.971
961.672
960.522
960.136
959.905
959.818
959.89
960.071
962.251
960.339
960.054
959.852
959.72
959.682
959.747
959.883
960.117
959.818
959.719
959.615
959.551
959.55
959.609
959.715
959.797
959.677
959.588
959.506
959.464
959.467
959.514
959.593
863.757
863.795
864.685
865.14
865.484
865.778
866.03
866.231
864.409
864.382
865.036
865.431
865.657
865.881
866.13
866.378
864.517
864.503
865.128
865.655
865.878
866.06
866.274
866.518
865.645
864.756
865.412
865.79
865.978
866.141
866.336
866.566
865.438
864.884
865.548
865.858
866.044
866.201
866.368
866.55
865.093
865.513
865.846
866.032
866.172
866.301
866.428
866.565
865.863
866.018
866.128
866.214
866.301
866.389
866.479
866.578
2251.09
2250.95
2250.83
2250.67
2250.53
2250.44
2250.41
2250.43
2251.66
2251.35
2251
2250.66
2250.37
2250.17
2250.06
2250.04
2251.7
2251.27
2250.81
2250.4
2250.06
2249.82
2249.68
2249.65
2251.39
2250.94
2250.47
2250.05
2249.73
2249.49
2249.33
2249.27
2251
2250.54
2250.1
2249.72
2249.41
2249.18
2249.03
2248.95
2250.52
2250.08
2249.69
2249.36
2249.1
2248.91
2248.77
2248.69
2250.1
2249.76
2249.42
2249.14
2248.93
2248.77
2248.64
2248.61
2151.46
2152.48
2153.35
2154
2154.48
2154.84
2155.12
2155.32
2151.48
2152.74
2153.6
2154.16
2154.55
2154.84
2155.06
2155.22
2151.79
2152.89
2153.64
2154.14
2154.49
2154.74
2154.93
2155.07
2152.2
2153.11
2153.73
2154.16
2154.46
2154.68
2154.82
2154.95
2152.68
2153.38
2153.86
2154.21
2154.46
2154.62
2154.73
2154.8
2153.1
2153.6
2153.97
2154.24
2154.43
2154.56
2154.64
2154.69
2153.51
2153.85
2154.11
2154.31
2154.46
2154.56
2154.62
2154.67
2060.66
2060.94
2061.28
2061.63
2061.96
2062.27
2062.55
2062.76
2060.37
2060.82
2061.23
2061.58
2061.88
2062.15
2062.39
2062.58
2060.43
2060.78
2061.14
2061.47
2061.75
2062
2062.22
2062.39
2060.56
2060.85
2061.16
2061.45
2061.71
2061.93
2062.11
2062.25
2060.66
2060.93
2061.21
2061.47
2061.69
2061.88
2062.03
2062.14
2060.76
2061.02
2061.28
2061.5
2061.7
2061.86
2061.97
2062.09
2060.97
2061.18
2061.38
2061.57
2061.73
2061.86
2061.95
2062.04
1972.2
1971.8
1971.56
1971.45
1971.44
1971.52
1971.68
1971.83
1972.03
1971.59
1971.34
1971.22
1971.18
1971.22
1971.33
1971.46
1971.85
1971.38
1971.1
1970.96
1970.9
1970.92
1971.01
1971.12
1971.61
1971.17
1970.9
1970.76
1970.7
1970.71
1970.78
1970.86
1971.25
1970.9
1970.7
1970.58
1970.53
1970.54
1970.59
1970.65
1970.89
1970.66
1970.52
1970.45
1970.42
1970.44
1970.47
1970.55
1970.67
1970.54
1970.44
1970.39
1970.37
1970.39
1970.42
1970.48
1882.73
1881.98
1881.43
1881.03
1880.79
1880.69
1880.72
1880.8
1882.76
1881.85
1881.2
1880.75
1880.45
1880.3
1880.28
1880.33
1882.43
1881.52
1880.85
1880.38
1880.08
1879.91
1879.87
1879.91
1881.94
1881.1
1880.49
1880.05
1879.77
1879.61
1879.56
1879.58
1881.31
1880.62
1880.12
1879.74
1879.5
1879.36
1879.3
1879.33
1880.7
1880.18
1879.78
1879.49
1879.3
1879.2
1879.15
1879.2
1880.24
1879.89
1879.58
1879.35
1879.19
1879.11
1879.07
1879.11
1789.95
1789.49
1789.14
1788.87
1788.69
1788.61
1788.62
1788.69
1790.32
1789.64
1789.13
1788.75
1788.48
1788.33
1788.29
1788.33
1790.17
1789.42
1788.87
1788.45
1788.17
1788.01
1787.95
1787.98
1789.76
1789.08
1788.56
1788.18
1787.91
1787.76
1787.7
1787.71
1789.27
1788.69
1788.25
1787.91
1787.69
1787.55
1787.5
1787.53
1788.78
1788.33
1787.97
1787.71
1787.53
1787.42
1787.38
1787.43
1788.39
1788.08
1787.8
1787.59
1787.44
1787.35
1787.31
1787.35
1695.14
1695.26
1695.41
1695.54
1695.63
1695.73
1695.84
1695.95
1695.63
1695.64
1695.65
1695.63
1695.62
1695.63
1695.69
1695.77
1695.73
1695.66
1695.58
1695.51
1695.47
1695.47
1695.51
1695.58
1695.69
1695.59
1695.52
1695.42
1695.36
1695.35
1695.38
1695.44
1695.62
1695.53
1695.4
1695.33
1695.28
1695.26
1695.28
1695.36
1695.52
1695.41
1695.31
1695.25
1695.21
1695.2
1695.22
1695.28
1695.45
1695.37
1695.29
1695.23
1695.19
1695.19
1695.2
1695.27
1602.34
1602.54
1602.8
1603.03
1603.22
1603.4
1603.57
1603.71
1602.52
1602.77
1602.97
1603.11
1603.23
1603.35
1603.47
1603.59
1602.59
1602.79
1602.94
1603.05
1603.15
1603.25
1603.36
1603.47
1602.67
1602.83
1602.97
1603.03
1603.11
1603.19
1603.28
1603.38
1602.76
1602.9
1602.96
1603.02
1603.09
1603.16
1603.24
1603.34
1602.82
1602.89
1602.96
1603.02
1603.07
1603.13
1603.2
1603.28
1602.89
1602.95
1602.99
1603.04
1603.09
1603.14
1603.21
1603.3
1511.91
1511.74
1511.7
1511.73
1511.8
1511.91
1512.05
1512.17
1511.94
1511.79
1511.72
1511.71
1511.74
1511.8
1511.91
1512.01
1511.8
1511.66
1511.6
1511.58
1511.61
1511.66
1511.76
1511.86
1511.69
1511.57
1511.53
1511.5
1511.52
1511.58
1511.66
1511.75
1511.55
1511.49
1511.44
1511.44
1511.47
1511.53
1511.6
1511.68
1511.42
1511.38
1511.38
1511.39
1511.43
1511.48
1511.54
1511.62
1511.35
1511.33
1511.35
1511.37
1511.42
1511.47
1511.54
1511.63
1420.98
1420.69
1420.54
1420.46
1420.45
1420.5
1420.59
1420.69
1421.05
1420.72
1420.52
1420.4
1420.35
1420.36
1420.42
1420.51
1420.88
1420.55
1420.37
1420.24
1420.19
1420.19
1420.25
1420.33
1420.67
1420.4
1420.22
1420.11
1420.07
1420.08
1420.13
1420.2
1420.43
1420.23
1420.08
1420.01
1419.98
1419.99
1420.04
1420.1
1420.2
1420.06
1419.98
1419.93
1419.91
1419.93
1419.97
1420.05
1420.05
1419.97
1419.91
1419.88
1419.88
1419.91
1419.96
1420.04
1328.95
1328.78
1328.7
1328.65
1328.64
1328.67
1328.75
1328.84
1329.14
1328.91
1328.74
1328.63
1328.57
1328.57
1328.61
1328.69
1329.05
1328.79
1328.63
1328.49
1328.43
1328.42
1328.46
1328.53
1328.88
1328.66
1328.49
1328.38
1328.32
1328.31
1328.35
1328.42
1328.7
1328.51
1328.37
1328.28
1328.24
1328.23
1328.26
1328.32
1328.55
1328.41
1328.3
1328.23
1328.19
1328.19
1328.23
1328.31
1328.46
1328.36
1328.28
1328.21
1328.18
1328.18
1328.22
1328.3
1236.6
1236.52
1236.49
1236.47
1236.48
1236.52
1236.59
1236.68
1236.83
1236.66
1236.56
1236.49
1236.45
1236.45
1236.5
1236.57
1236.78
1236.59
1236.49
1236.38
1236.34
1236.34
1236.39
1236.45
1236.66
1236.52
1236.39
1236.31
1236.27
1236.26
1236.3
1236.37
1236.55
1236.42
1236.32
1236.25
1236.21
1236.21
1236.25
1236.31
1236.48
1236.38
1236.29
1236.23
1236.2
1236.21
1236.25
1236.33
1236.45
1236.37
1236.29
1236.23
1236.2
1236.21
1236.24
1236.32
1144.14
1144.09
1144.09
1144.12
1144.16
1144.23
1144.31
1144.4
1144.18
1144.14
1144.14
1144.12
1144.13
1144.17
1144.23
1144.3
1144.15
1144.11
1144.09
1144.06
1144.06
1144.09
1144.14
1144.21
1144.14
1144.11
1144.05
1144.03
1144.02
1144.04
1144.09
1144.16
1144.12
1144.07
1144.03
1144
1143.99
1144.01
1144.05
1144.11
1144.09
1144.05
1144.01
1143.99
1143.99
1144.01
1144.06
1144.12
1144.07
1144.03
1144
1143.98
1143.98
1144
1144.05
1144.12
1052.11
1051.94
1051.87
1051.84
1051.86
1051.91
1051.98
1052.05
1052.1
1051.95
1051.89
1051.83
1051.82
1051.84
1051.9
1051.96
1052.04
1051.92
1051.82
1051.77
1051.75
1051.76
1051.81
1051.87
1051.99
1051.88
1051.77
1051.72
1051.7
1051.72
1051.76
1051.82
1051.91
1051.8
1051.72
1051.67
1051.66
1051.68
1051.72
1051.77
1051.79
1051.71
1051.66
1051.64
1051.64
1051.66
1051.73
1051.76
1051.67
1051.62
1051.59
1051.59
1051.61
1051.64
1051.69
1051.76
959.64
959.446
959.347
959.306
959.307
959.34
959.391
959.443
959.767
959.547
959.416
959.328
959.294
959.299
959.332
959.377
959.707
959.513
959.348
959.262
959.224
959.227
959.26
959.308
959.59
959.407
959.273
959.205
959.179
959.184
959.217
959.266
959.445
959.292
959.199
959.149
959.132
959.141
959.186
959.23
959.287
959.185
959.131
959.105
959.104
959.122
959.186
959.213
959.153
959.092
959.067
959.066
959.08
959.11
959.155
959.226
865.788
865.89
866.034
866.168
866.278
866.373
866.459
866.528
866.136
866.206
866.26
866.307
866.356
866.413
866.478
866.543
866.251
866.295
866.284
866.313
866.354
866.407
866.47
866.536
866.261
866.275
866.288
866.316
866.355
866.405
866.467
866.533
866.27
866.281
866.298
866.325
866.361
866.408
866.477
866.536
866.284
866.293
866.318
866.347
866.383
866.43
866.488
866.547
866.321
866.337
866.353
866.375
866.408
866.455
866.514
866.594
2349.11
2347.9
2346.78
2345.86
2345.17
2344.71
2344.47
2344.4
2351.1
2349.45
2348.01
2346.84
2345.97
2345.4
2345.1
2345.01
2353.42
2351.45
2349.67
2348.18
2347.07
2346.32
2345.93
2345.81
2355.55
2353.44
2351.34
2349.58
2348.23
2347.32
2346.83
2346.68
2352.49
2350.64
2349.2
2348.2
2347.69
2347.55
2348.41
2348.35
2250.28
2250.16
2249.95
2249.76
2249.63
2249.55
2249.54
2249.6
2250.21
2250.23
2250.12
2249.98
2249.86
2249.8
2249.81
2249.89
2249.73
2250.2
2250.29
2250.23
2250.16
2250.12
2250.15
2250.25
2248.32
2249.72
2250.22
2250.36
2250.38
2250.4
2250.47
2250.6
2246.49
2249.17
2250.11
2250.51
2250.64
2250.73
2250.83
2250.99
2245.17
2248.52
2249.76
2250.41
2250.73
2250.95
2251.2
2251.39
2245.7
2248.27
2249.53
2250.28
2250.76
2251.08
2251.31
2251.5
2152.49
2153.18
2153.69
2154.11
2154.45
2154.7
2154.91
2155.11
2151.26
2152.32
2153.14
2153.77
2154.25
2154.63
2154.93
2155.2
2149.63
2151.25
2152.46
2153.36
2154.03
2154.55
2154.95
2155.28
2147.5
2149.91
2151.62
2152.84
2153.73
2154.41
2154.94
2155.35
2146.48
2148.99
2151.1
2152.55
2153.6
2154.37
2154.98
2155.43
2145.95
2148.81
2151.1
2152.64
2153.73
2154.52
2155.12
2155.57
2146.99
2149.27
2151.21
2152.68
2153.79
2154.62
2155.23
2155.64
2061.33
2061.56
2061.77
2061.98
2062.17
2062.36
2062.57
2062.77
2061.36
2061.46
2061.68
2061.91
2062.17
2062.42
2062.7
2062.97
2061.97
2061.7
2061.79
2062
2062.26
2062.55
2062.89