/*--------------------------------*- C++ -*----------------------------------*\
| =========                 |                                                 |
| \\      /  F ield         | OpenFOAM: The Open Source CFD Toolbox           |
|  \\    /   O peration     | Version:  plus.master                           |
|   \\  /    A nd           | Web:      www.OpenFOAM.com                      |
|    \\/     M anipulation  |                                                 |
\*---------------------------------------------------------------------------*/
FoamFile
{
    version     2.0;
    format      ascii;
    class       scalarField;
    location    "2.4/lagrangian/kinematicCloud";
    object      age;
}
// * * * * * * * * * * * * * * * * * * * * * * * * * * * * * * * * * * * * * //


96597
(
2.40119
2.40117
2.40115
2.40113
2.40111
2.40109
2.40107
2.40106
2.40104
2.40102
2.401
2.40098
2.40096
2.40095
2.40093
2.40091
2.40089
2.40088
2.40086
2.40084
2.40083
2.40081
2.40079
2.40078
2.40076
2.40075
2.40073
2.40072
2.4007
2.40068
2.40067
2.40065
2.40064
2.40063
2.40061
2.4006
2.40058
2.40057
2.40056
2.40054
2.40053
2.40052
2.4005
2.40049
2.40048
2.40047
2.40045
2.40044
2.40043
2.40042
2.40041
2.40039
2.40038
2.40037
2.40036
2.40035
2.40034
2.40033
2.40032
2.40031
2.4003
2.40029
2.40028
2.40027
2.40026
2.40025
2.40024
2.40023
2.40022
2.40022
2.40021
2.4002
2.40019
2.40018
2.40017
2.40017
2.40016
2.40015
2.40015
2.40014
2.40013
2.40013
2.40012
2.40011
2.40011
2.4001
2.4001
2.40009
2.40008
2.40008
2.40007
2.40007
2.40006
2.40006
2.40006
2.40005
2.40005
2.40004
2.40004
2.40004
2.40003
2.40003
2.40003
2.40002
2.40002
2.40002
2.40002
2.40001
2.40001
2.40001
2.40001
2.40001
2.40001
2.4
2.4
2.4
2.4
2.4
2.4
2.4
2.40023
2.40021
2.40019
2.40017
2.40015
2.40013
2.40011
2.40009
2.40008
2.40006
2.40004
2.40002
2.4
2.39998
2.39997
2.39995
2.39993
2.39991
2.39989
2.39988
2.39986
2.39984
2.39983
2.39981
2.39979
2.39978
2.39976
2.39974
2.39973
2.39971
2.3997
2.39968
2.39967
2.39965
2.39963
2.39962
2.3996
2.39959
2.39958
2.39956
2.39955
2.39953
2.39952
2.3995
2.39949
2.39948
2.39946
2.39945
2.39944
2.39942
2.39941
2.3994
2.39938
2.39936
2.39935
2.39934
2.39932
2.39931
2.3993
2.39929
2.39928
2.39927
2.39925
2.39924
2.39923
2.39922
2.39921
2.3992
2.39919
2.39918
2.39917
2.39916
2.39915
2.39914
2.39913
2.39912
2.39911
2.3991
2.39909
2.39909
2.39908
2.39907
2.39906
2.39905
2.39904
2.39904
2.39903
2.39902
2.39901
2.399
2.399
2.39899
2.39898
2.39898
2.39897
2.39896
2.39896
2.39895
2.39894
2.39894
2.39893
2.39893
2.39892
2.39892
2.39891
2.3989
2.3989
2.39889
2.39889
2.39889
2.39888
2.39888
2.39887
2.39887
2.39886
2.39886
2.39886
2.39885
2.39885
2.39885
2.39884
2.39884
2.39884
2.39883
2.39883
2.39883
2.39883
2.39883
2.39882
2.39882
2.39882
2.39882
2.39882
2.39882
2.39881
2.39881
2.39881
2.39881
2.39881
2.39881
2.39881
2.39881
2.39909
2.39907
2.39905
2.39903
2.39901
2.39899
2.39897
2.39895
2.39894
2.39892
2.3989
2.39888
2.39886
2.39884
2.39882
2.39881
2.39879
2.39877
2.39875
2.39873
2.39872
2.3987
2.39868
2.39866
2.39865
2.39863
2.39861
2.3986
2.39858
2.39856
2.39855
2.39853
2.39851
2.3985
2.39848
2.39847
2.39845
2.39843
2.39842
2.3984
2.39839
2.39837
2.39836
2.39834
2.39833
2.39831
2.3983
2.39828
2.39827
2.39826
2.39824
2.39823
2.39821
2.3982
2.39819
2.39817
2.39816
2.39815
2.39813
2.39812
2.39811
2.39809
2.39808
2.39807
2.39806
2.39804
2.39803
2.39802
2.39801
2.39799
2.39798
2.39797
2.39796
2.39795
2.39794
2.39793
2.39791
2.3979
2.39789
2.39788
2.39787
2.39786
2.39785
2.39784
2.39783
2.39782
2.39781
2.3978
2.39779
2.39778
2.39777
2.39776
2.39775
2.39774
2.39773
2.39773
2.39772
2.39771
2.3977
2.39769
2.39768
2.39767
2.39767
2.39766
2.39765
2.39764
2.39764
2.39763
2.39762
2.39761
2.39761
2.3976
2.39759
2.39759
2.39758
2.39757
2.39757
2.39756
2.39755
2.39755
2.39754
2.39753
2.39753
2.39752
2.39752
2.39751
2.39751
2.3975
2.3975
2.39749
2.39749
2.39748
2.39748
2.39747
2.39747
2.39746
2.39746
2.39746
2.39745
2.39745
2.39745
2.39744
2.39744
2.39744
2.39743
2.39743
2.39743
2.39742
2.39742
2.39742
2.39742
2.39741
2.39741
2.39741
2.39741
2.3974
2.3974
2.3974
2.3974
2.3974
2.3974
2.3974
2.39739
2.39739
2.39739
2.39739
2.39739
2.39739
2.39739
2.39739
2.39739
2.39773
2.39771
2.39769
2.39767
2.39765
2.39763
2.39761
2.39759
2.39757
2.39755
2.39753
2.39751
2.39749
2.39747
2.39746
2.39744
2.39742
2.3974
2.39738
2.39736
2.39735
2.39733
2.39731
2.39729
2.39727
2.39726
2.39724
2.39722
2.39721
2.39719
2.39717
2.39715
2.39714
2.39712
2.3971
2.39709
2.39707
2.39705
2.39704
2.39702
2.39701
2.39699
2.39697
2.39696
2.39694
2.39693
2.39691
2.3969
2.39688
2.39686
2.39685
2.39683
2.39682
2.3968
2.39679
2.39678
2.39676
2.39675
2.39673
2.39672
2.3967
2.39669
2.39668
2.39666
2.39665
2.39663
2.39662
2.39661
2.39659
2.39658
2.39657
2.39655
2.39654
2.39653
2.39652
2.3965
2.39649
2.39648
2.39647
2.39645
2.39644
2.39643
2.39642
2.3964
2.39639
2.39638
2.39637
2.39636
2.39635
2.39634
2.39632
2.39631
2.3963
2.39629
2.39628
2.39627
2.39626
2.39625
2.39624
2.39623
2.39622
2.39621
2.3962
2.39619
2.39618
2.39617
2.39616
2.39615
2.39614
2.39613
2.39612
2.39611
2.3961
2.39609
2.39608
2.39608
2.39607
2.39606
2.39605
2.39604
2.39603
2.39603
2.39602
2.39601
2.396
2.39599
2.39599
2.39598
2.39597
2.39596
2.39596
2.39595
2.39594
2.39593
2.39593
2.39592
2.39591
2.39591
2.3959
2.39589
2.39589
2.39588
2.39588
2.39587
2.39586
2.39586
2.39585
2.39585
2.39584
2.39584
2.39583
2.39583
2.39582
2.39582
2.39581
2.39581
2.3958
2.3958
2.39579
2.39579
2.39578
2.39578
2.39577
2.39577
2.39577
2.39576
2.39576
2.39575
2.39575
2.39575
2.39574
2.39574
2.39574
2.39573
2.39573
2.39573
2.39573
2.39572
2.39572
2.39572
2.39572
2.39571
2.39571
2.39571
2.39571
2.39571
2.3957
2.3957
2.3957
2.3957
2.3957
2.3957
2.39569
2.39569
2.39569
2.39569
2.39569
2.39569
2.39569
2.39569
2.39569
2.39569
2.39569
2.39569
2.39607
2.39605
2.39603
2.39601
2.39599
2.39597
2.39595
2.39593
2.39591
2.39589
2.39587
2.39586
2.39584
2.39582
2.3958
2.39578
2.39576
2.39574
2.39572
2.39571
2.39569
2.39567
2.39565
2.39563
2.39562
2.3956
2.39558
2.39556
2.39554
2.39553
2.39551
2.39549
2.39547
2.39546
2.39544
2.39542
2.39541
2.39539
2.39537
2.39536
2.39534
2.39532
2.39531
2.39529
2.39527
2.39526
2.39524
2.39522
2.39521
2.39519
2.39518
2.39516
2.39514
2.39513
2.39511
2.3951
2.39508
2.39507
2.39505
2.39504
2.39502
2.39501
2.39499
2.39498
2.39496
2.39495
2.39493
2.39492
2.3949
2.39489
2.39488
2.39486
2.39485
2.39483
2.39482
2.39481
2.39479
2.39478
2.39477
2.39475
2.39474
2.39473
2.39471
2.3947
2.39469
2.39467
2.39466
2.39465
2.39463
2.39462
2.39461
2.3946
2.39458
2.39457
2.39456
2.39455
2.39454
2.39452
2.39451
2.3945
2.39449
2.39448
2.39446
2.39445
2.39444
2.39443
2.39442
2.39441
2.3944
2.39439
2.39437
2.39436
2.39435
2.39434
2.39433
2.39432
2.39431
2.3943
2.39429
2.39428
2.39427
2.39426
2.39425
2.39424
2.39423
2.39422
2.39421
2.3942
2.39419
2.39418
2.39417
2.39416
2.39415
2.39415
2.39414
2.39413
2.39412
2.39411
2.3941
2.39409
2.39408
2.39408
2.39407
2.39406
2.39405
2.39404
2.39404
2.39403
2.39402
2.39401
2.394
2.394
2.39399
2.39398
2.39397
2.39397
2.39396
2.39395
2.39395
2.39394
2.39393
2.39393
2.39392
2.39391
2.39391
2.3939
2.39389
2.39389
2.39388
2.39387
2.39387
2.39386
2.39386
2.39385
2.39384
2.39384
2.39383
2.39383
2.39382
2.39382
2.39381
2.39381
2.3938
2.3938
2.39379
2.39379
2.39378
2.39378
2.39377
2.39377
2.39376
2.39376
2.39376
2.39375
2.39375
2.39374
2.39374
2.39374
2.39373
2.39373
2.39373
2.39372
2.39372
2.39371
2.39371
2.39371
2.39371
2.3937
2.3937
2.3937
2.39369
2.39369
2.39369
2.39369
2.39368
2.39368
2.39368
2.39368
2.39368
2.39367
2.39367
2.39367
2.39367
2.39367
2.39366
2.39366
2.39366
2.39366
2.39366
2.39366
2.39366
2.39366
2.39365
2.39365
2.39365
2.39365
2.39365
2.39365
2.39365
2.39365
2.39365
2.39365
2.39365
2.39413
2.39411
2.39409
2.39407
2.39405
2.39403
2.39401
2.39399
2.39397
2.39395
2.39393
2.39391
2.39389
2.39387
2.39385
2.39383
2.39382
2.3938
2.39378
2.39376
2.39374
2.39372
2.3937
2.39368
2.39367
2.39365
2.39363
2.39361
2.39359
2.39358
2.39356
2.39354
2.39352
2.3935
2.39349
2.39347
2.39345
2.39343
2.39342
2.3934
2.39338
2.39336
2.39335
2.39333
2.39331
2.3933
2.39328
2.39326
2.39325
2.39323
2.39321
2.3932
2.39318
2.39316
2.39315
2.39313
2.39312
2.3931
2.39308
2.39307
2.39305
2.39304
2.39302
2.393
2.39299
2.39297
2.39296
2.39294
2.39293
2.39291
2.3929
2.39288
2.39287
2.39285
2.39284
2.39282
2.39281
2.39279
2.39278
2.39276
2.39275
2.39273
2.39272
2.39271
2.39269
2.39268
2.39266
2.39265
2.39263
2.39262
2.39261
2.39259
2.39258
2.39257
2.39255
2.39254
2.39253
2.39251
2.3925
2.39249
2.39247
2.39246
2.39245
2.39243
2.39242
2.39241
2.3924
2.39238
2.39237
2.39236
2.39235
2.39233
2.39232
2.39231
2.3923
2.39228
2.39227
2.39226
2.39225
2.39224
2.39222
2.39221
2.3922
2.39219
2.39218
2.39217
2.39216
2.39214
2.39213
2.39212
2.39211
2.3921
2.39209
2.39208
2.39207
2.39206
2.39205
2.39204
2.39202
2.39201
2.392
2.39199
2.39198
2.39197
2.39196
2.39195
2.39194
2.39193
2.39192
2.39191
2.3919
2.39189
2.39188
2.39188
2.39187
2.39186
2.39185
2.39184
2.39183
2.39182
2.39181
2.3918
2.39179
2.39178
2.39178
2.39177
2.39176
2.39175
2.39174
2.39173
2.39172
2.39172
2.39171
2.3917
2.39169
2.39168
2.39168
2.39167
2.39166
2.39165
2.39165
2.39164
2.39163
2.39162
2.39162
2.39161
2.3916
2.39159
2.39159
2.39158
2.39157
2.39157
2.39156
2.39155
2.39155
2.39154
2.39153
2.39153
2.39152
2.39151
2.39151
2.3915
2.3915
2.39149
2.39148
2.39148
2.39147
2.39147
2.39146
2.39145
2.39145
2.39144
2.39144
2.39143
2.39143
2.39142
2.39142
2.39141
2.39141
2.3914
2.3914
2.39139
2.39139
2.39138
2.39138
2.39137
2.39137
2.39137
2.39136
2.39136
2.39135
2.39135
2.39134
2.39134
2.39134
2.39133
2.39133
2.39133
2.39132
2.39132
2.39131
2.39131
2.39131
2.3913
2.3913
2.3913
2.3913
2.39129
2.39129
2.39129
2.39128
2.39128
2.39128
2.39128
2.39127
2.39127
2.39127
2.39127
2.39126
2.39126
2.39126
2.39126
2.39126
2.39125
2.39125
2.39125
2.39125
2.39125
2.39124
2.39124
2.39124
2.39124
2.39124
2.39124
2.39124
2.39124
2.39123
2.39123
2.39123
2.39123
2.39123
2.39123
2.39123
2.39123
2.39123
2.39123
2.39123
2.39123
2.39123
2.39176
2.39174
2.39172
2.3917
2.39168
2.39166
2.39164
2.39162
2.3916
2.39158
2.39156
2.39154
2.39152
2.3915
2.39148
2.39146
2.39144
2.39142
2.3914
2.39139
2.39137
2.39135
2.39133
2.39131
2.39129
2.39127
2.39125
2.39124
2.39122
2.3912
2.39118
2.39116
2.39114
2.39113
2.39111
2.39109
2.39107
2.39105
2.39104
2.391
2.39098
2.39097
2.39095
2.39093
2.39091
2.3909
2.39088
2.39086
2.39084
2.39083
2.39081
2.39079
2.39078
2.39076
2.39074
2.39073
2.39071
2.39069
2.39068
2.39066
2.39064
2.39063
2.39061
2.39059
2.39058
2.39056
2.39055
2.39053
2.39051
2.3905
2.39048
2.39047
2.39045
2.39043
2.39042
2.3904
2.39039
2.39037
2.39036
2.39034
2.39033
2.39031
2.3903
2.39028
2.39027
2.39025
2.39024
2.39022
2.39021
2.39019
2.39018
2.39016
2.39015
2.39013
2.39012
2.3901
2.39009
2.39007
2.39006
2.39005
2.39003
2.39002
2.39
2.38999
2.38998
2.38996
2.38995
2.38993
2.38992
2.38991
2.38989
2.38988
2.38987
2.38985
2.38984
2.38983
2.38981
2.3898
2.38979
2.38977
2.38976
2.38974
2.38972
2.38971
2.3897
2.38968
2.38967
2.38966
2.38965
2.38963
2.38962
2.38961
2.3896
2.38959
2.38957
2.38956
2.38955
2.38954
2.38953
2.38951
2.3895
2.38949
2.38948
2.38947
2.38946
2.38944
2.38943
2.38942
2.38941
2.3894
2.38939
2.38938
2.38937
2.38936
2.38934
2.38933
2.38932
2.38931
2.3893
2.38929
2.38928
2.38927
2.38926
2.38925
2.38924
2.38923
2.38922
2.38921
2.3892
2.38919
2.38918
2.38917
2.38916
2.38915
2.38914
2.38913
2.38912
2.38911
2.3891
2.38909
2.38908
2.38907
2.38906
2.38905
2.38904
2.38903
2.38903
2.38902
2.38901
2.389
2.38899
2.38898
2.38897
2.38896
2.38896
2.38895
2.38894
2.38893
2.38892
2.38891
2.38891
2.3889
2.38889
2.38888
2.38887
2.38886
2.38886
2.38885
2.38884
2.38883
2.38883
2.38882
2.38881
2.3888
2.3888
2.38879
2.38878
2.38877
2.38877
2.38876
2.38875
2.38875
2.38874
2.38873
2.38873
2.38872
2.38871
2.38871
2.3887
2.38869
2.38869
2.38868
2.38867
2.38867
2.38866
2.38865
2.38865
2.38864
2.38864
2.38863
2.38862
2.38862
2.38861
2.38861
2.3886
2.3886
2.38859
2.38858
2.38858
2.38857
2.38857
2.38856
2.38856
2.38855
2.38855
2.38854
2.38854
2.38853
2.38853
2.38852
2.38852
2.38851
2.38851
2.3885
2.3885
2.3885
2.38849
2.38849
2.38848
2.38848
2.38847
2.38847
2.38847
2.38846
2.38846
2.38846
2.38845
2.38845
2.38844
2.38844
2.38844
2.38843
2.38843
2.38843
2.38842
2.38842
2.38842
2.38841
2.38841
2.38841
2.3884
2.3884
2.3884
2.3884
2.38839
2.38839
2.38839
2.38839
2.38838
2.38838
2.38838
2.38838
2.38837
2.38837
2.38837
2.38837
2.38837
2.38836
2.38836
2.38836
2.38836
2.38836
2.38835
2.38835
2.38835
2.38835
2.38835
2.38835
2.38835
2.38834
2.38834
2.38834
2.38834
2.38834
2.38834
2.38834
2.38834
2.38834
2.38834
2.38833
2.38833
2.38833
2.38833
2.38833
2.38833
2.38833
2.38833
2.38833
2.38833
2.38833
2.38893
2.38891
2.38889
2.38887
2.38885
2.38883
2.38881
2.38879
2.38877
2.38875
2.38873
2.38871
2.38869
2.38867
2.38865
2.38863
2.38861
2.38859
2.38857
2.38856
2.38854
2.38852
2.3885
2.38848
2.38846
2.38844
2.38842
2.38841
2.38839
2.38837
2.38835
2.38833
2.38831
2.38829
2.38828
2.38826
2.38824
2.38822
2.3882
2.38818
2.38817
2.38813
2.38811
2.3881
2.38808
2.38806
2.38804
2.38802
2.38801
2.38799
2.38797
2.38795
2.38794
2.38792
2.3879
2.38788
2.38787
2.38785
2.38783
2.38782
2.3878
2.38778
2.38777
2.38775
2.38773
2.38772
2.3877
2.38768
2.38767
2.38765
2.38763
2.38762
2.3876
2.38758
2.38757
2.38755
2.38753
2.38752
2.3875
2.38749
2.38747
2.38745
2.38744
2.38742
2.38741
2.38739
2.38738
2.38736
2.38734
2.38733
2.38731
2.3873
2.38728
2.38727
2.38725
2.38724
2.38722
2.38721
2.38719
2.38718
2.38716
2.38715
2.38713
2.38712
2.3871
2.38709
2.38707
2.38706
2.38704
2.38703
2.38701
2.387
2.38698
2.38697
2.38696
2.38694
2.38693
2.38691
2.3869
2.38689
2.38687
2.38686
2.38684
2.38683
2.38682
2.3868
2.38679
2.38677
2.38676
2.38675
2.38673
2.38672
2.38671
2.38669
2.38668
2.38667
2.38665
2.38664
2.38663
2.38661
2.3866
2.38659
2.38658
2.38656
2.38655
2.38654
2.38652
2.38651
2.3865
2.38649
2.38647
2.38646
2.38645
2.38644
2.38642
2.38641
2.3864
2.38639
2.38638
2.38636
2.38635
2.38634
2.38633
2.38632
2.3863
2.38629
2.38628
2.38627
2.38626
2.38625
2.38623
2.38622
2.38621
2.3862
2.38619
2.38618
2.38617
2.38616
2.38614
2.38613
2.38612
2.38611
2.3861
2.38609
2.38608
2.38607
2.38606
2.38605
2.38604
2.38603
2.38601
2.386
2.38599
2.38598
2.38597
2.38596
2.38595
2.38594
2.38593
2.38592
2.38591
2.3859
2.38589
2.38588
2.38587
2.38586
2.38585
2.38584
2.38583
2.38582
2.38581
2.38581
2.3858
2.38579
2.38578
2.38577
2.38576
2.38575
2.38574
2.38573
2.38572
2.38571
2.3857
2.3857
2.38569
2.38568
2.38567
2.38566
2.38565
2.38564
2.38563
2.38563
2.38562
2.38561
2.3856
2.38559
2.38558
2.38558
2.38557
2.38556
2.38555
2.38554
2.38554
2.38553
2.38551
2.3855
2.3855
2.38549
2.38548
2.38547
2.38547
2.38546
2.38545
2.38544
2.38544
2.38543
2.38542
2.38542
2.38541
2.3854
2.38539
2.38539
2.38538
2.38537
2.38537
2.38536
2.38535
2.38535
2.38534
2.38533
2.38533
2.38532
2.38531
2.38531
2.3853
2.3853
2.38529
2.38528
2.38528
2.38527
2.38527
2.38526
2.38525
2.38525
2.38524
2.38524
2.38523
2.38522
2.38522
2.38521
2.38521
2.3852
2.3852
2.38519
2.38519
2.38518
2.38518
2.38517
2.38517
2.38516
2.38516
2.38515
2.38515
2.38514
2.38514
2.38513
2.38513
2.38512
2.38512
2.38511
2.38511
2.3851
2.3851
2.3851
2.38509
2.38509
2.38508
2.38508
2.38507
2.38507
2.38507
2.38506
2.38506
2.38505
2.38505
2.38505
2.38504
2.38504
2.38504
2.38503
2.38503
2.38503
2.38502
2.38502
2.38502
2.38501
2.38501
2.38501
2.385
2.385
2.38499
2.38499
2.38499
2.38499
2.38498
2.38498
2.38498
2.38497
2.38497
2.38497
2.38497
2.38496
2.38496
2.38496
2.38496
2.38496
2.38495
2.38495
2.38495
2.38495
2.38495
2.38494
2.38494
2.38494
2.38494
2.38494
2.38493
2.38493
2.38493
2.38493
2.38493
2.38493
2.38493
2.38492
2.38492
2.38492
2.38492
2.38492
2.38492
2.38492
2.38492
2.38492
2.38491
2.38491
2.38491
2.38491
2.38491
2.38491
2.38491
2.38491
2.38491
2.38491
2.38491
2.38491
2.38491
2.38491
2.38491
2.38491
2.38491
2.38565
2.38563
2.38561
2.38559
2.38557
2.38555
2.38553
2.38551
2.38549
2.38547
2.38545
2.38543
2.38541
2.38539
2.38537
2.38535
2.38533
2.38531
2.38529
2.38528
2.38526
2.38524
2.38522
2.3852
2.38518
2.38516
2.38514
2.38512
2.3851
2.38509
2.38507
2.38505
2.38503
2.38501
2.38499
2.38497
2.38495
2.38494
2.38492
2.3849
2.38488
2.38486
2.38484
2.38483
2.38481
2.38479
2.38477
2.38475
2.38474
2.38472
2.3847
2.38468
2.38466
2.38465
2.38463
2.38461
2.38459
2.38458
2.38456
2.38454
2.38452
2.38451
2.38449
2.38447
2.38445
2.38444
2.38442
2.3844
2.38438
2.38437
2.38435
2.38433
2.38432
2.3843
2.38428
2.38427
2.38425
2.38423
2.38422
2.3842
2.38418
2.38417
2.38415
2.38413
2.38412
2.3841
2.38408
2.38407
2.38405
2.38403
2.38402
2.384
2.38399
2.38397
2.38395
2.38394
2.38392
2.38391
2.38389
2.38387
2.38386
2.38384
2.38383
2.38381
2.38379
2.38378
2.38376
2.38375
2.38373
2.38372
2.3837
2.38369
2.38367
2.38366
2.38364
2.38363
2.38361
2.3836
2.38358
2.38357
2.38355
2.38354
2.38352
2.38351
2.38349
2.38348
2.38346
2.38345
2.38343
2.38342
2.3834
2.38339
2.38337
2.38336
2.38334
2.38333
2.38332
2.3833
2.38329
2.38327
2.38326
2.38325
2.38323
2.38322
2.3832
2.38319
2.38318
2.38316
2.38315
2.38313
2.38312
2.38311
2.38309
2.38308
2.38307
2.38305
2.38304
2.38303
2.38301
2.383
2.38299
2.38297
2.38296
2.38295
2.38293
2.38292
2.38291
2.38289
2.38288
2.38287
2.38285
2.38284
2.38283
2.38282
2.3828
2.38279
2.38278
2.38277
2.38275
2.38274
2.38273
2.38272
2.3827
2.38269
2.38268
2.38267
2.38265
2.38264
2.38263
2.38262
2.38261
2.38259
2.38258
2.38257
2.38256
2.38255
2.38253
2.38252
2.38251
2.3825
2.38249
2.38248
2.38246
2.38245
2.38244
2.38243
2.38242
2.38241
2.3824
2.38239
2.38237
2.38236
2.38235
2.38234
2.38233
2.38232
2.38231
2.3823
2.38229
2.38228
2.38226
2.38225
2.38224
2.38223
2.38222
2.38221
2.3822
2.38219
2.38218
2.38217
2.38216
2.38215
2.38214
2.38213
2.38212
2.38211
2.3821
2.38209
2.38208
2.38207
2.38206
2.38205
2.38204
2.38203
2.38202
2.38201
2.382
2.38199
2.38198
2.38197
2.38196
2.38195
2.38194
2.38193
2.38192
2.38191
2.3819
2.3819
2.38189
2.38188
2.38187
2.38186
2.38185
2.38184
2.38183
2.38182
2.38181
2.38181
2.3818
2.38179
2.38178
2.38177
2.38176
2.38175
2.38174
2.38174
2.38173
2.38172
2.38171
2.3817
2.38169
2.38169
2.38168
2.38167
2.38166
2.38165
2.38165
2.38164
2.38163
2.38162
2.38161
2.38161
2.3816
2.38159
2.38158
2.38158
2.38157
2.38156
2.38155
2.38155
2.38154
2.38153
2.38152
2.38152
2.38151
2.3815
2.38149
2.38149
2.38148
2.38147
2.38147
2.38146
2.38145
2.38145
2.38144
2.38143
2.38143
2.38142
2.38141
2.38141
2.3814
2.38139
2.38139
2.38138
2.38137
2.38137
2.38136
2.38135
2.38135
2.38134
2.38134
2.38133
2.38132
2.38132
2.38131
2.38131
2.3813
2.38129
2.38129
2.38128
2.38128
2.38127
2.38126
2.38126
2.38125
2.38125
2.38124
2.38124
2.38123
2.38123
2.38122
2.38122
2.38121
2.38121
2.3812
2.3812
2.38119
2.38118
2.38118
2.38118
2.38117
2.38117
2.38116
2.38116
2.38115
2.38115
2.38114
2.38114
2.38113
2.38113
2.38112
2.38112
2.38111
2.38111
2.38111
2.3811
2.3811
2.38109
2.38109
2.38109
2.38108
2.38108
2.38107
2.38107
2.38107
2.38106
2.38106
2.38105
2.38105
2.38105
2.38104
2.38104
2.38104
2.38103
2.38103
2.38103
2.38102
2.38102
2.38102
2.38101
2.38101
2.38101
2.381
2.381
2.381
2.38099
2.38099
2.38099
2.38098
2.38098
2.38098
2.38098
2.38097
2.38097
2.38097
2.38097
2.38096
2.38096
2.38096
2.38096
2.38095
2.38095
2.38095
2.38095
2.38094
2.38094
2.38094
2.38094
2.38094
2.38093
2.38093
2.38093
2.38093
2.38093
2.38092
2.38092
2.38092
2.38092
2.38092
2.38092
2.38091
2.38091
2.38091
2.38091
2.38091
2.38091
2.38091
2.38091
2.3809
2.3809
2.3809
2.3809
2.3809
2.3809
2.3809
2.3809
2.3809
2.3809
2.38089
2.38089
2.38089
2.38089
2.38089
2.38089
2.38089
2.38089
2.38089
2.38089
2.38089
2.38089
2.38089
2.38089
2.38089
2.38089
2.38089
2.38089
2.38181
2.38179
2.38177
2.38175
2.38173
2.38171
2.38169
2.38167
2.38165
2.38163
2.38161
2.38159
2.38157
2.38155
2.38153
2.38151
2.38149
2.38147
2.38146
2.38144
2.38142
2.3814
2.38138
2.38136
2.38134
2.38132
2.3813
2.38128
2.38126
2.38124
2.38123
2.38121
2.38119
2.38117
2.38115
2.38113
2.38111
2.38109
2.38108
2.38106
2.38104
2.38102
2.381
2.38098
2.38096
2.38095
2.38093
2.38091
2.38089
2.38087
2.38085
2.38084
2.38082
2.3808
2.38078
2.38076
2.38075
2.38073
2.38071
2.38069
2.38067
2.38066
2.38064
2.38062
2.3806
2.38058
2.38057
2.38055
2.38053
2.38051
2.3805
2.38048
2.38046
2.38044
2.38043
2.38041
2.38039
2.38038
2.38036
2.38034
2.38032
2.38031
2.38029
2.38027
2.38026
2.38024
2.38022
2.3802
2.38019
2.38017
2.38015
2.38014
2.38012
2.3801
2.38009
2.38007
2.38005
2.38004
2.38002
2.38
2.37999
2.37997
2.37995
2.37994
2.37992
2.37991
2.37989
2.37987
2.37986
2.37984
2.37982
2.37981
2.37979
2.37978
2.37976
2.37974
2.37973
2.37971
2.3797
2.37968
2.37967
2.37965
2.37963
2.37962
2.3796
2.37959
2.37957
2.37956
2.37954
2.37952
2.37951
2.37949
2.37948
2.37946
2.37945
2.37943
2.37942
2.3794
2.37939
2.37937
2.37936
2.37934
2.37933
2.37931
2.3793
2.37928
2.37927
2.37925
2.37924
2.37922
2.37921
2.37919
2.37918
2.37916
2.37915
2.37914
2.37912
2.37911
2.37909
2.37908
2.37906
2.37905
2.37903
2.37902
2.37901
2.37899
2.37898
2.37896
2.37895
2.37894
2.37892
2.37891
2.37889
2.37888
2.37887
2.37885
2.37884
2.37882
2.37881
2.3788
2.37878
2.37877
2.37876
2.37874
2.37873
2.37871
2.3787
2.37869
2.37867
2.37866
2.37865
2.37863
2.37862
2.37861
2.3786
2.37858
2.37857
2.37856
2.37854
2.37853
2.37852
2.3785
2.37849
2.37848
2.37847
2.37845
2.37844
2.37843
2.37841
2.3784
2.37839
2.37838
2.37836
2.37835
2.37834
2.37833
2.37831
2.3783
2.37829
2.37828
2.37826
2.37825
2.37824
2.37823
2.37822
2.3782
2.37819
2.37818
2.37817
2.37816
2.37814
2.37813
2.37812
2.37811
2.3781
2.37808
2.37807
2.37806
2.37805
2.37804
2.37803
2.37802
2.378
2.37799
2.37798
2.37797
2.37796
2.37795
2.37794
2.37792
2.37791
2.3779
2.37789
2.37788
2.37787
2.37786
2.37785
2.37784
2.37782
2.37781
2.3778
2.37779
2.37778
2.37777
2.37776
2.37775
2.37774
2.37773
2.37772
2.37771
2.3777
2.37769
2.37768
2.37766
2.37765
2.37764
2.37763
2.37762
2.37761
2.3776
2.37759
2.37758
2.37757
2.37756
2.37755
2.37754
2.37753
2.37752
2.37751
2.3775
2.37749
2.37748
2.37747
2.37746
2.37745
2.37744
2.37744
2.37743
2.37742
2.37741
2.3774
2.37739
2.37738
2.37737
2.37736
2.37735
2.37734
2.37733
2.37732
2.37731
2.3773
2.3773
2.37729
2.37728
2.37727
2.37726
2.37725
2.37724
2.37723
2.37722
2.37722
2.37721
2.3772
2.37719
2.37718
2.37717
2.37716
2.37715
2.37715
2.37714
2.37713
2.37712
2.37711
2.3771
2.3771
2.37709
2.37708
2.37707
2.37706
2.37706
2.37705
2.37704
2.37703
2.37702
2.37702
2.37701
2.377
2.37699
2.37698
2.37698
2.37697
2.37696
2.37695
2.37695
2.37694
2.37693
2.37692
2.37692
2.37691
2.3769
2.37689
2.37689
2.37688
2.37687
2.37686
2.37686
2.37685
2.37684
2.37684
2.37683
2.37682
2.37682
2.37681
2.3768
2.37679
2.37679
2.37678
2.37677
2.37677
2.37676
2.37675
2.37675
2.37674
2.37673
2.37673
2.37672
2.37671
2.37671
2.3767
2.3767
2.37669
2.37668
2.37668
2.37667
2.37666
2.37666
2.37665
2.37665
2.37664
2.37663
2.37663
2.37662
2.37662
2.37661
2.37661
2.3766
2.37659
2.37659
2.37658
2.37658
2.37657
2.37657
2.37656
2.37655
2.37655
2.37654
2.37654
2.37653
2.37653
2.37652
2.37652
2.37651
2.37651
2.3765
2.3765
2.37649
2.37649
2.37648
2.37648
2.37647
2.37647
2.37646
2.37646
2.37645
2.37645
2.37644
2.37644
2.37643
2.37643
2.37642
2.37642
2.37641
2.37641
2.37641
2.3764
2.3764
2.37639
2.37639
2.37638
2.37638
2.37638
2.37637
2.37637
2.37636
2.37636
2.37636
2.37635
2.37635
2.37634
2.37634
2.37634
2.37633
2.37633
2.37632
2.37632
2.37632
2.37631
2.37631
2.37631
2.3763
2.3763
2.3763
2.37629
2.37629
2.37629
2.37628
2.37628
2.37628
2.37627
2.37627
2.37627
2.37626
2.37626
2.37626
2.37625
2.37625
2.37625
2.37625
2.37624
2.37624
2.37624
2.37623
2.37623
2.37623
2.37623
2.37622
2.37622
2.37622
2.37622
2.37621
2.37621
2.37621
2.37621
2.3762
2.3762
2.3762
2.3762
2.37619
2.37619
2.37619
2.37619
2.37619
2.37618
2.37618
2.37618
2.37618
2.37618
2.37617
2.37617
2.37617
2.37617
2.37617
2.37617
2.37616
2.37616
2.37616
2.37616
2.37616
2.37616
2.37616
2.37615
2.37615
2.37615
2.37615
2.37615
2.37615
2.37615
2.37615
2.37614
2.37614
2.37614
2.37614
2.37614
2.37614
2.37614
2.37614
2.37614
2.37614
2.37613
2.37613
2.37613
2.37613
2.37613
2.37613
2.37613
2.37613
2.37613
2.37613
2.37613
2.37613
2.37613
2.37613
2.37613
2.37613
2.37613
2.37613
2.37613
2.37613
2.37613
2.377
2.37698
2.37696
2.37694
2.37692
2.3769
2.37688
2.37686
2.37684
2.37682
2.3768
2.37678
2.37676
2.37674
2.37672
2.3767
2.37668
2.37667
2.37665
2.37663
2.37661
2.37659
2.37657
2.37655
2.37653
2.37651
2.37649
2.37647
2.37645
2.37643
2.37641
2.3764
2.37638
2.37636
2.37634
2.37632
2.3763
2.37628
2.37626
2.37624
2.37623
2.37621
2.37619
2.37617
2.37615
2.37613
2.37611
2.37609
2.37608
2.37606
2.37604
2.37602
2.376
2.37598
2.37596
2.37595
2.37593
2.37591
2.37589
2.37587
2.37586
2.37584
2.37582
2.3758
2.37578
2.37576
2.37575
2.37573
2.37571
2.37569
2.37568
2.37566
2.37564
2.37562
2.3756
2.37559
2.37557
2.37555
2.37553
2.37552
2.3755
2.37548
2.37546
2.37545
2.37543
2.37541
2.37539
2.37538
2.37536
2.37534
2.37532
2.37531
2.37529
2.37527
2.37525
2.37524
2.37522
2.3752
2.37519
2.37517
2.37515
2.37514
2.37512
2.3751
2.37508
2.37507
2.37505
2.37503
2.37502
2.375
2.37498
2.37497
2.37495
2.37493
2.37492
2.3749
2.37488
2.37487
2.37485
2.37484
2.37482
2.3748
2.37479
2.37477
2.37475
2.37474
2.37472
2.37471
2.37469
2.37467
2.37466
2.37464
2.37463
2.37461
2.37459
2.37458
2.37456
2.37455
2.37453
2.37451
2.3745
2.37448
2.37447
2.37445
2.37444
2.37442
2.3744
2.37439
2.37437
2.37436
2.37434
2.37433
2.37431
2.3743
2.37428
2.37427
2.37425
2.37424
2.37422
2.3742
2.37419
2.37417
2.37416
2.37414
2.37413
2.37411
2.3741
2.37408
2.37407
2.37405
2.37404
2.37403
2.37401
2.374
2.37398
2.37397
2.37395
2.37394
2.37392
2.37391
2.37389
2.37388
2.37386
2.37385
2.37384
2.37382
2.37381
2.37379
2.37378
2.37376
2.37375
2.37374
2.37372
2.37371
2.37369
2.37368
2.37366
2.37365
2.37364
2.37362
2.37361
2.3736
2.37358
2.37357
2.37355
2.37354
2.37353
2.37351
2.3735
2.37349
2.37347
2.37346
2.37344
2.37343
2.37342
2.3734
2.37339
2.37338
2.37336
2.37335
2.37334
2.37332
2.37331
2.3733
2.37328
2.37327
2.37326
2.37324
2.37323
2.37322
2.37321
2.37319
2.37318
2.37317
2.37315
2.37314
2.37313
2.37312
2.3731
2.37309
2.37308
2.37306
2.37305
2.37304
2.37303
2.37301
2.373
2.37299
2.37298
2.37296
2.37295
2.37294
2.37293
2.37292
2.3729
2.37289
2.37288
2.37287
2.37285
2.37284
2.37283
2.37282
2.37281
2.37279
2.37278
2.37277
2.37276
2.37275
2.37273
2.37272
2.37271
2.3727
2.37269
2.37268
2.37266
2.37265
2.37264
2.37263
2.37262
2.37261
2.37259
2.37258
2.37257
2.37256
2.37255
2.37254
2.37253
2.37252
2.3725
2.37249
2.37248
2.37247
2.37246
2.37245
2.37244
2.37243
2.37242
2.3724
2.37239
2.37238
2.37237
2.37236
2.37235
2.37234
2.37233
2.37232
2.37231
2.3723
2.37229
2.37228
2.37226
2.37225
2.37224
2.37223
2.37222
2.37221
2.3722
2.37219
2.37218
2.37217
2.37216
2.37215
2.37214
2.37213
2.37212
2.37211
2.3721
2.37209
2.37208
2.37207
2.37206
2.37205
2.37204
2.37203
2.37202
2.37201
2.372
2.37199
2.37198
2.37197
2.37196
2.37195
2.37194
2.37193
2.37192
2.37191
2.3719
2.3719
2.37189
2.37188
2.37187
2.37186
2.37185
2.37184
2.37183
2.37182
2.37181
2.3718
2.37179
2.37178
2.37178
2.37177
2.37176
2.37175
2.37174
2.37173
2.37172
2.37171
2.3717
2.3717
2.37169
2.37168
2.37167
2.37166
2.37165
2.37164
2.37164
2.37163
2.37162
2.37161
2.3716
2.37159
2.37158
2.37158
2.37157
2.37156
2.37155
2.37154
2.37154
2.37153
2.37152
2.37151
2.3715
2.37149
2.37149
2.37148
2.37147
2.37146
2.37145
2.37145
2.37144
2.37143
2.37142
2.37142
2.37141
2.3714
2.37139
2.37139
2.37138
2.37137
2.37136
2.37136
2.37135
2.37134
2.37133
2.37133
2.37132
2.37131
2.3713
2.3713
2.37129
2.37128
2.37128
2.37127
2.37126
2.37125
2.37125
2.37124
2.37123
2.37123
2.37122
2.37121
2.37121
2.3712
2.37119
2.37119
2.37118
2.37117
2.37117
2.37116
2.37115
2.37115
2.37114
2.37113
2.37113
2.37112
2.37111
2.37111
2.3711
2.37109
2.37109
2.37108
2.37108
2.37107
2.37106
2.37106
2.37105
2.37104
2.37104
2.37103
2.37103
2.37102
2.37101
2.37101
2.371
2.371
2.37099
2.37099
2.37098
2.37097
2.37097
2.37096
2.37096
2.37095
2.37095
2.37094
2.37094
2.37093
2.37092
2.37092
2.37091
2.37091
2.3709
2.3709
2.37089
2.37089
2.37088
2.37088
2.37087
2.37087
2.37086
2.37086
2.37085
2.37085
2.37084
2.37084
2.37083
2.37083
2.37082
2.37082
2.37081
2.37081
2.3708
2.3708
2.37079
2.37079
2.37078
2.37078
2.37078
2.37077
2.37077
2.37076
2.37076
2.37075
2.37075
2.37075
2.37074
2.37074
2.37073
2.37073
2.37072
2.37072
2.37072
2.37071
2.37071
2.3707
2.3707
2.3707
2.37069
2.37069
2.37068
2.37068
2.37068
2.37067
2.37067
2.37067
2.37066
2.37066
2.37065
2.37065
2.37065
2.37064
2.37064
2.37064
2.37063
2.37063
2.37063
2.37062
2.37062
2.37062
2.37061
2.37061
2.37061
2.3706
2.3706
2.3706
2.3706
2.37059
2.37059
2.37059
2.37058
2.37058
2.37058
2.37058
2.37057
2.37057
2.37057
2.37056
2.37056
2.37056
2.37056
2.37055
2.37055
2.37055
2.37055
2.37054
2.37054
2.37054
2.37054
2.37053
2.37053
2.37053
2.37053
2.37052
2.37052
2.37052
2.37052
2.37052
2.37051
2.37051
2.37051
2.37051
2.37051
2.3705
2.3705
2.3705
2.3705
2.3705
2.3705
2.37049
2.37049
2.37049
2.37049
2.37049
2.37049
2.37048
2.37048
2.37048
2.37048
2.37048
2.37048
2.37048
2.37047
2.37047
2.37047
2.37047
2.37047
2.37047
2.37047
2.37047
2.37046
2.37046
2.37046
2.37046
2.37046
2.37046
2.37046
2.37046
2.37046
2.37046
2.37046
2.37045
2.37045
2.37045
2.37045
2.37045
2.37045
2.37045
2.37045
2.37045
2.37045
2.37045
2.37045
2.37045
2.37045
2.37045
2.37045
2.37045
2.37045
2.37045
2.37045
2.37045
2.37045
2.37045
2.37045
2.37169
2.37167
2.37165
2.37163
2.37161
2.37159
2.37157
2.37155
2.37154
2.37152
2.3715
2.37148
2.37146
2.37144
2.37142
2.3714
2.37138
2.37136
2.37134
2.37132
2.3713
2.37128
2.37126
2.37124
2.37122
2.3712
2.37118
2.37116
2.37114
2.37112
2.37111
2.37109
2.37107
2.37105
2.37103
2.37101
2.37099
2.37097
2.37095
2.37093
2.37091
2.3709
2.37088
2.37086
2.37084
2.37082
2.3708
2.37078
2.37076
2.37074
2.37073
2.37071
2.37069
2.37067
2.37065
2.37063
2.37061
2.3706
2.37058
2.37056
2.37054
2.37052
2.3705
2.37048
2.37047
2.37045
2.37043
2.37041
2.37039
2.37037
2.37036
2.37034
2.37032
2.3703
2.37028
2.37027
2.37025
2.37023
2.37021
2.37019
2.37018
2.37016
2.37014
2.37012
2.3701
2.37009
2.37007
2.37005
2.37003
2.37002
2.37
2.36998
2.36996