/*--------------------------------*- C++ -*----------------------------------*\
| =========                 |                                                 |
| \\      /  F ield         | OpenFOAM: The Open Source CFD Toolbox           |
|  \\    /   O peration     | Version:  plus.master                           |
|   \\  /    A nd           | Web:      www.OpenFOAM.com                      |
|    \\/     M anipulation  |                                                 |
\*---------------------------------------------------------------------------*/
FoamFile
{
    version     2.0;
    format      ascii;
    class       volScalarField;
    location    "10.6";
    object      k;
}
// * * * * * * * * * * * * * * * * * * * * * * * * * * * * * * * * * * * * * //

dimensions      [0 2 -2 0 0 0 0];

internalField   nonuniform List<scalar> 
47285
(
0.000559554
0.00201917
0.00601258
0.00611937
0.0026531
0.000728844
0.000239226
0.00161646
0.00754705
0.0294343
0.0329434
0.0170411
0.00468024
0.000871967
0.00424578
0.023099
0.0286056
0.06754
0.0197704
0.0201296
0.0035214
0.00769715
0.0383142
0.0678322
0.0596742
0.0694653
0.029373
0.00616821
0.00524186
0.0277105
0.0300026
0.0639221
0.0213601
0.0229737
0.00461704
0.00181648
0.00787176
0.030094
0.0374634
0.0175277
0.00651901
0.00142341
0.000608449
0.00206605
0.00614171
0.00667335
0.00305955
0.0011804
0.000379116
0.00105984
0.00432812
0.0100903
0.0101627
0.00371152
0.00107939
0.000630128
0.00365398
0.0149988
0.0338321
0.0435679
0.017944
0.00511036
0.00105739
0.0096862
0.0328325
0.0484864
0.129015
0.0374316
0.0159563
0.00318513
0.0159886
0.0550722
0.138321
0.115916
0.140985
0.0301191
0.00604525
0.0116532
0.0373266
0.0506018
0.119419
0.0452514
0.0216517
0.00517556
0.00451493
0.016934
0.0388711
0.0546148
0.0240965
0.00857318
0.00189926
0.00131529
0.00508249
0.0127452
0.0143687
0.00624985
0.00183967
0.000678038
0.00255465
0.00714054
0.0143012
0.0147082
0.00587098
0.00213166
0.00164811
0.00706536
0.0211973
0.0401004
0.0505791
0.0224291
0.00611632
0.00196886
0.0160947
0.0434089
0.0737266
0.126014
0.0556574
0.0167081
0.00349684
0.0250427
0.0697702
0.132345
0.126897
0.142887
0.0309463
0.00602524
0.0189951
0.0483751
0.0789483
0.117444
0.0661066
0.0227744
0.00544247
0.0092211
0.025628
0.0482811
0.065448
0.0320227
0.0105864
0.00266856
0.00337139
0.00960909
0.0192963
0.0216844
0.0101948
0.00317782
0.0016748
0.00448786
0.00873261
0.0164035
0.0169105
0.00746226
0.00389273
0.00348239
0.00953592
0.0252774
0.0452711
0.0530428
0.0254998
0.00738936
0.00371249
0.0212149
0.0524507
0.0863672
0.114397
0.061942
0.0180657
0.00469183
0.0329582
0.0837044
0.122421
0.12263
0.128405
0.0311678
0.00639373
0.0253201
0.0597223
0.092603
0.111364
0.0739403
0.0233421
0.00591283
0.0129264
0.0326545
0.0575242
0.0722592
0.0365336
0.0116211
0.00414549
0.00569134
0.0128829
0.0239968
0.0262196
0.0126804
0.00484272
0.00351097
0.00518113
0.00871702
0.0157471
0.0160688
0.00754433
0.00458189
0.00417979
0.00992524
0.0259912
0.0458905
0.0505597
0.0249757
0.00748856
0.00441778
0.0229767
0.0576741
0.0908707
0.101631
0.0616159
0.0176468
0.00518072
0.0372111
0.0952543
0.114814
0.111624
0.11517
0.0301167
0.00641783
0.0281354
0.0677924
0.0975017
0.102958
0.0761863
0.0226013
0.0059966
0.0138522
0.0357817
0.0627171
0.0736632
0.0372743
0.0112037
0.00474889
0.00644712
0.0134804
0.0252264
0.026976
0.0127893
0.0054416
0.00427392
0.000160478
0.00015491
0.000152116
0.000147571
0.000143528
0.000139863
0.000136962
0.000134408
0.000285577
0.000178506
0.000152795
0.000143854
0.000138363
0.000133637
0.000129658
0.000126448
0.000969252
0.000296982
0.000173436
0.000147491
0.000139093
0.000133345
0.000128375
0.000124076
0.00192226
0.000540207
0.000208229
0.000149249
0.000136877
0.000130461
0.000127539
0.000125717
0.00133403
0.000383686
0.000186444
0.000151006
0.000142113
0.000136795
0.000132398
0.000128708
0.000480498
0.000227274
0.000169992
0.000153271
0.00014569
0.000140955
0.000137698
0.000135025
0.000210072
0.000167855
0.000160092
0.00015344
0.000149405
0.000146646
0.000144304
0.00014187
0.000557023
0.000520501
0.00048391
0.000450639
0.000421503
0.000395862
0.000372733
0.000350988
0.000594186
0.000532709
0.000494097
0.000458355
0.000426412
0.000398573
0.000373874
0.000350857
0.000726088
0.000532442
0.000487851
0.000454007
0.000423
0.000395377
0.000370724
0.000347719
0.000939246
0.000534983
0.000484471
0.000453145
0.000423272
0.00039559
0.000370865
0.000347366
0.000914476
0.000531745
0.000481663
0.000451203
0.000422922
0.000396951
0.000373195
0.000350618
0.000633759
0.000512353
0.000476985
0.000447839
0.00042161
0.000397774
0.000375961
0.000354937
0.00053235
0.000495473
0.000466129
0.00043877
0.000413921
0.000391751
0.000371508
0.000351979
0.00154641
0.00146903
0.00136283
0.00123411
0.0010918
0.000944587
0.00080179
0.000673251
0.00156577
0.00148395
0.00138569
0.00126044
0.00111673
0.000964247
0.000813339
0.000675566
0.00160755
0.00146281
0.00137944
0.0012662
0.00112745
0.000974677
0.000819869
0.000676521
0.00167337
0.00143281
0.00136665
0.00126488
0.00113081
0.000978601
0.000822308
0.000676965
0.00172422
0.00144183
0.00135978
0.00125329
0.00111876
0.000968319
0.000815363
0.000674285
0.00155446
0.00142975
0.00134005
0.00122475
0.00108854
0.000942147
0.000797362
0.000666586
0.00147195
0.00139978
0.00130401
0.00118406
0.00104913
0.00090926
0.000774699
0.000655569
0.00330416
0.0030852
0.00281091
0.00252548
0.00226807
0.0020554
0.00187783
0.00169444
0.0033639
0.0031784
0.00291059
0.00260719
0.00232115
0.00208312
0.00189113
0.00170206
0.00334812
0.00318401
0.00295654
0.00266166
0.00236427
0.00210998
0.00190621
0.00171079
0.00332691
0.00315423
0.00296576
0.00268579
0.00238685
0.00212458
0.00191282
0.00171144
0.00339402
0.00316627
0.00295151
0.00266509
0.00236885
0.00211135
0.00190195
0.00169968
0.00333571
0.00314545
0.00289496
0.00260055
0.00231586
0.00207405
0.00187436
0.00167485
0.00324198
0.00304341
0.0027848
0.00250732
0.00225135
0.00203547
0.00185114
0.00165861
0.00395835
0.00369144
0.0033918
0.00306947
0.00271537
0.0023089
0.0018484
0.0013873
0.00405555
0.00379787
0.00348385
0.00314621
0.00279075
0.00239101
0.001928
0.00144814
0.00406553
0.0038368
0.00354998
0.00321578
0.00286
0.00246101
0.00199076
0.0014923
0.0040384
0.0038271
0.0035738
0.00324917
0.00289295
0.00249136
0.00201553
0.00150766
0.00408857
0.0038299
0.00355511
0.00322543
0.00286743
0.0024637
0.00198869
0.00148622
0.00405564
0.00380351
0.00350529
0.00317158
0.00281089
0.00240139
0.00192793
0.00143853
0.00396651
0.00372708
0.00344864
0.00313645
0.00278108
0.00236274
0.00188296
0.00139949
0.000238209
0.00017675
0.000167743
0.000163568
0.000160676
0.000158304
0.000156176
0.000154097
0.000539838
0.000223877
0.000167352
0.000151411
0.00014369
0.000139396
0.000136994
0.000133079
0.00165103
0.000526148
0.000219747
0.000153676
0.000136514
0.000128122
0.00012342
0.000117857
0.00247291
0.000722188
0.000247822
0.000152152
0.00013038
0.000121497
0.00011466
0.000108412
0.00123119
0.000396698
0.000193186
0.000149167
0.00013781
0.000131287
0.000124883
0.000119487
0.000431506
0.000199687
0.000163154
0.000150211
0.000144361
0.000138147
0.000133699
0.000131069
0.000224117
0.00016694
0.00015828
0.000154261
0.000151688
0.000150023
0.000148665
0.000147139
0.000689998
0.000593399
0.000547996
0.000506113
0.000467106
0.000432315
0.000401568
0.00037391
0.00111821
0.000663271
0.000588955
0.000544636
0.000501238
0.000459941
0.000421455
0.00038658
0.00274089
0.000856913
0.000634249
0.00058405
0.000539874
0.000492711
0.000446486
0.000402457
0.00353446
0.000898058
0.00061848
0.000569339
0.000526087
0.000479167
0.00043287
0.000390214
0.00194143
0.000707071
0.00058342
0.000544753
0.000503751
0.000460398
0.000417801
0.000378604
0.000875902
0.000585706
0.000534972
0.000499171
0.000462268
0.000426635
0.000394176
0.000364284
0.000607357
0.000541115
0.000506734
0.000472797
0.00044038
0.000410731
0.000384466
0.000360718
0.00183904
0.00159863
0.00149963
0.00138474
0.00123976
0.00107357
0.000902233
0.000744276
0.0028382
0.00170429
0.00152618
0.00143262
0.00131559
0.00116685
0.000996825
0.000823888
0.00553626
0.00196436
0.00149321
0.00140971
0.00132367
0.00120206
0.00104969
0.000880591
0.00692195
0.00201979
0.00143116
0.00135438
0.00127093
0.00114976
0.000999201
0.000833749
0.00428224
0.00175438
0.00146763
0.00139249
0.00129692
0.00116545
0.00100583
0.000833465
0.00226651
0.00157548
0.00145754
0.00136561
0.00124331
0.00109246
0.000925805
0.000761196
0.00163498
0.00149858
0.00141826
0.0013099
0.00117176
0.00101524
0.000855759
0.000709778
0.00380748
0.0034157
0.00314076
0.00284425
0.00255325
0.00229706
0.00207574
0.00185007
0.0050445
0.00360594
0.00325829
0.00298968
0.00271401
0.00246466
0.002259
0.00206096
0.00816356
0.00383262
0.00319931
0.00296554
0.00271915
0.00248133
0.00229244
0.00213069
0.0100398
0.00385054
0.00308025
0.00287094
0.00262752
0.00237455
0.00216458
0.00198309
0.00664234
0.0036085
0.00317131
0.00293981
0.00267873
0.00242762
0.00222599
0.00205131
0.00426207
0.00343059
0.00316074
0.00289404
0.00261552
0.00236677
0.00216353
0.00196996
0.00351471
0.00326692
0.00301697
0.0027336
0.0024585
0.00221976
0.00201532
0.00180627
0.00463769
0.00419979
0.00387461
0.0035143
0.0030991
0.00261242
0.00205703
0.00149517
0.00592311
0.00450308
0.00411274
0.00380092
0.00344126
0.00299
0.00242234
0.00179567
0.00908634
0.00482799
0.00418894
0.00394261
0.00367516
0.00331079
0.00279314
0.00216587
0.0111494
0.00485829
0.00408242
0.00386096
0.00362211
0.003308
0.00286604
0.00232119
0.00751084
0.00457005
0.00411734
0.00388195
0.00361059
0.00325023
0.00275162
0.00215367
0.0050879
0.00428618
0.00398766
0.00369654
0.0033561
0.00293279
0.00239942
0.00180658
0.0043109
0.00401776
0.00372605
0.00339039
0.00300541
0.00255426
0.00203363
0.00149951
0.000274423
0.000175156
0.000153907
0.000149487
0.000148931
0.000148885
0.000147179
0.000144171
0.000721114
0.000274479
0.000159828
0.000134615
0.000127918
0.0001249
0.000123697
0.000121605
0.00184119
0.000518208
0.000195995
0.000134129
0.000117453
0.000108572
0.000101393
9.50476e-05
0.00187958
0.000512936
0.000195253
0.000138416
0.000122741
0.00011371
0.00010602
9.96341e-05
0.000711202
0.000240754
0.000159483
0.000140372
0.000131872
0.000125225
0.000120383
0.000115306
0.000228199
0.000159317
0.00015305
0.000145029
0.000138578
0.000132712
0.00012933
0.000126785
0.000154756
0.000150331
0.000151349
0.00014762
0.000144788
0.000142464
0.000139841
0.000137032
0.000627684
0.000541217
0.000510152
0.000480996
0.000452284
0.000424818
0.000398926
0.000373945
0.0010576
0.000594222
0.000529631
0.000493158
0.000459274
0.000427806
0.000400404
0.000374512
0.00194574
0.000657941
0.000534953
0.00049118
0.000449785
0.000410255
0.000374932
0.000343138
0.00164505
0.000619993
0.000533059
0.000490422
0.000446043
0.00040215
0.000362184
0.000326006
0.000814894
0.000576538
0.000527712
0.000484885
0.000441326
0.000400263
0.000363157
0.000329069
0.000617344
0.000553395
0.000508984
0.000467376
0.000429849
0.000397076
0.000368751
0.000342781
0.000568727
0.000528985
0.000488639
0.000452134
0.000420928
0.000394334
0.000371286
0.00035022
0.00160773
0.00146738
0.00139168
0.00129011
0.00115966
0.0010108
0.00085801
0.000716903
0.00219563
0.00149394
0.00138601
0.0013039
0.00119272
0.00105399
0.000900035
0.000748123
0.00334535
0.00148036
0.00130372
0.00123209
0.00113407
0.00100712
0.000861557
0.000712888
0.00302755
0.00140224
0.00127347
0.00119588
0.00108559
0.00094983
0.000800754
0.000652309
0.00181385
0.00144558
0.00136463
0.00126786
0.00114059
0.000991082
0.000831182
0.000676345
0.0015867
0.00150011
0.0014109
0.00129417
0.00115459
0.00100071
0.000843572
0.000696649
0.00156065
0.00148879
0.00138365
0.00125412
0.00110966
0.000959392
0.000813141
0.000681256
0.00343529
0.00319425
0.00295056
0.00267737
0.00241294
0.00218297
0.00198434
0.00177817
0.0039193
0.00324171
0.00299274
0.00273688
0.0024738
0.00224063
0.00204567
0.00184939
0.00486383
0.00313583
0.00285932
0.00263272
0.00238597
0.0021671
0.00199649
0.00183595
0.00454447
0.00298161
0.00276444
0.00254205
0.00228943
0.00206964
0.00190863
0.00176875
0.00349378
0.0030886
0.00288624
0.002628
0.00235645
0.00212488
0.00194881
0.00178778
0.00335552
0.0031823
0.00293953
0.00265497
0.00237983
0.00214806
0.00196139
0.00177774
0.00330976
0.00310075
0.00282945
0.00254668
0.00229113
0.00207943
0.00190232
0.00171907
0.00420479
0.00391831
0.00363106
0.00330093
0.00291978
0.0024716
0.00195903
0.00144229
0.00462069
0.00399425
0.00369363
0.00338017
0.00302023
0.00259065
0.00207858
0.00154047
0.00536365
0.00393716
0.00362685
0.00335576
0.00303996
0.00265238
0.00216442
0.00162617
0.00508423
0.00379011
0.00353637
0.00328324
0.00298486
0.00262278
0.00216211
0.00164639
0.00422784
0.00382112
0.00357525
0.0032895
0.00296761
0.00258545
0.00211095
0.00159047
0.00407181
0.00383694
0.0035522
0.00323516
0.002889
0.00248627
0.00200727
0.00150176
0.0039599
0.00369885
0.00339978
0.00307888
0.00272683
0.00232262
0.00186279
0.00139845
0.000184251
0.000159906
0.000155043
0.000150085
0.000146589
0.00014328
0.000140927
0.000138973
0.000305739
0.00017683
0.000162224
0.000151012
0.000143884
0.0001375
0.00013182
0.000127051
0.00083112
0.00028421
0.000178015
0.000151356
0.000140999
0.000132779
0.000125856
0.00011904
0.00206564
0.000623988
0.000237725
0.00015872
0.000137203
0.000126818
0.000118533
0.000111531
0.00203435
0.000625547
0.000242747
0.000159207
0.000137164
0.000127558
0.000120382
0.000114416
0.000763595
0.00031317
0.000187842
0.000156736
0.000146169
0.000140611
0.00013657
0.000132258
0.000282176
0.000194659
0.000173809
0.000164389
0.000160247
0.000157168
0.000155096
0.000153406
0.000556795
0.000518161
0.000482144
0.000446929
0.000415272
0.000387818
0.000364235
0.000343151
0.000669386
0.000566288
0.000524444
0.000483302
0.000442861
0.000406075
0.000373163
0.000343664
0.00116343
0.000640638
0.000583746
0.000543078
0.000496723
0.000449671
0.00040498
0.00036374
0.00274732
0.000805895
0.000646937
0.000602247
0.000554572
0.000501625
0.000449746
0.000401729
0.00298834
0.000914911
0.000682531
0.000628418
0.000576965
0.000520953
0.00046633
0.000416357
0.00141762
0.000743889
0.000642963
0.000591026
0.000540177
0.000490785
0.000444904
0.000403809
0.000730966
0.000614247
0.000567936
0.000525862
0.000485399
0.000448292
0.000414737
0.000384
0.00150376
0.00144089
0.0013484
0.00122761
0.00108835
0.000940819
0.000796001
0.000665433
0.00165605
0.0014814
0.00140155
0.00129929
0.00117052
0.00102223
0.000864309
0.000710421
0.00257349
0.00153291
0.00142174
0.00134779
0.0012424
0.00110667
0.000948535
0.000781049
0.00539696
0.00175403
0.00141588
0.00135377
0.00126584
0.00114083
0.000988722
0.000823128
0.00551944
0.00193736
0.00149692
0.00142173
0.00133667
0.00121411
0.00106006
0.00088856
0.00306482
0.0017589
0.00156251
0.00146886
0.00135211
0.00120167
0.00102761
0.000848568
0.0018551
0.00160945
0.00151367
0.00140122
0.00125703
0.00108979
0.000915677
0.000753673
0.00328946
0.00311288
0.00286009
0.00258421
0.00232836
0.00211286
0.00193128
0.00174468
0.00345
0.00322313
0.00301279
0.00275171
0.00248549
0.00225601
0.00207336
0.00189965
0.00436447
0.00324347
0.003039
0.00281961
0.00255601
0.0023078
0.00211082
0.00193888
0.00752911
0.00341573
0.00299078
0.00280982
0.00256916
0.00232088
0.00211657
0.00193843
0.0076304
0.00369213
0.00314398
0.00292461
0.00268258
0.00244806
0.00226206
0.00210217
0.00503195
0.00359511
0.00325069
0.00298511
0.00271178
0.00246448
0.00226074
0.00206404
0.00379477
0.00340919
0.00313698
0.00284195
0.00255155
0.00229566
0.00207467
0.00184961
0.00405222
0.00383139
0.00356007
0.00325875
0.00291702
0.00250938
0.00202843
0.00152521
0.00428173
0.00404427
0.00382668
0.00356861
0.00326813
0.00289165
0.00240542
0.00185244
0.005161
0.0041579
0.00394791
0.00374574
0.00349581
0.00316869
0.00271336
0.00216054
0.00809533
0.0043749
0.00395629
0.0037719
0.00354384
0.00324398
0.00282213
0.00230078
0.00821037
0.00464456
0.00412057
0.00389655
0.00364057
0.003288
0.00278278
0.00216609
0.00581582
0.00447209
0.0040975
0.00379372
0.00343991
0.00299256
0.00242659
0.00180066
0.00462286
0.00419339
0.00387069
0.00351233
0.00309867
0.00261333
0.0020591
0.00149828
0.000131829
0.000123899
0.000120868
0.000123148
0.000126295
0.000132774
0.000139332
0.000329349
0.000327945
0.000324612
0.000324289
0.000327668
0.000333159
0.000331718
0.000567526
0.000562082
0.000558049
0.00055698
0.000558515
0.000560535
0.000559765
0.0014374
0.00142725
0.00142114
0.00141366
0.00140352
0.00138941
0.00139287
0.000896167
0.000895162
0.000891988
0.000888248
0.000883007
0.00087671
0.000884777
0.000151905
0.000129262
0.000111202
0.000103385
0.000114443
0.000128237
0.000144327
0.0003476
0.000355199
0.000363519
0.000352693
0.000342928
0.000336675
0.000337935
0.00061542
0.000669937
0.000717669
0.000677128
0.000671678
0.000618115
0.000590856
0.00154688
0.00176762
0.00188369
0.00171756
0.00179518
0.00168758
0.0015214
0.000894914
0.00105317
0.00133051
0.00153482
0.00135077
0.00109185
0.000921831
0.000141964
0.000120214
9.00763e-05
9.42647e-05
0.00010979
0.000124954
0.000134195
0.000348776
0.000350536
0.000313929
0.000293467
0.000298481
0.000318776
0.000329505
0.000600535
0.000616808
0.000580923
0.000521885
0.000544453
0.000573053
0.00057271
0.00149479
0.00155835
0.00157359
0.00153445
0.00153129
0.001504
0.00146054
0.000891806
0.000919267
0.000961794
0.00098873
0.000949037
0.000913741
0.000899654
0.000136061
0.000123654
0.00011269
0.000105148
0.000109269
0.000128311
0.000151441
0.000323127
0.00031664
0.000327081
0.000359919
0.000372874
0.000367154
0.000354592
0.000558722
0.000576318
0.000624929
0.000666486
0.000723091
0.000687344
0.000620189
0.00148438
0.00163896
0.00168446
0.00167361
0.00185626
0.00177035
0.00154742
0.000968922
0.00116556
0.00139758
0.00153982
0.00133899
0.00105928
0.000898143
0.000129187
0.000122151
0.00011224
0.000101859
9.09919e-05
8.02292e-05
6.98852e-05
5.99876e-05
0.000121448
0.000116136
0.0001081
9.80245e-05
8.78231e-05
7.7595e-05
6.76616e-05
5.80793e-05
0.000118288
0.0001133
0.000106179
9.64739e-05
8.65511e-05
7.6578e-05
6.68356e-05
5.7383e-05
0.000121044
0.000115456
0.000107983
9.90676e-05
8.85422e-05
7.73602e-05
6.71348e-05
5.7592e-05
0.000124233
0.0001191
0.000110834
0.000100362
8.98673e-05
7.93854e-05
6.92236e-05
5.94236e-05
0.000130733
0.000125368
0.000116459
0.000105207
9.40864e-05
8.31562e-05
7.25573e-05
6.23532e-05
0.000136689
0.000129723
0.000120283
0.000109503
9.81547e-05
8.69261e-05
7.60473e-05
6.55794e-05
0.000306443
0.000268587
0.000228621
0.000192114
0.000160353
0.000132716
0.000108514
8.76237e-05
0.000305062
0.000268248
0.000227972
0.000191844
0.000159983
0.000132227
0.000107955
8.70686e-05
0.00030231
0.000266778
0.000226878
0.000191152
0.000159553
0.000131956
0.000107769
8.69156e-05
0.000302452
0.000267393
0.000228558
0.000192203
0.000159716
0.000131936
0.000107861
8.71543e-05
0.00030548
0.000269476
0.00022961
0.000193854
0.000162161
0.000134409
0.000110008
8.88906e-05
0.000311256
0.000274739
0.000234323
0.000197949
0.000165718
0.000137492
0.00011268
9.11977e-05
0.000310244
0.000274336
0.000234842
0.000198579
0.00016676
0.00013891
0.000114385
9.30629e-05
0.000483619
0.000397241
0.000313709
0.000243697
0.000188888
0.000146535
0.000113866
8.90978e-05
0.000478036
0.000392711
0.000311451
0.000242718
0.000188458
0.000146322
0.000113737
8.90314e-05
0.000474228
0.000390375
0.000310327
0.000242261
0.000188292
0.000146261
0.000113705
8.89971e-05
0.000473595
0.000390283
0.000310198
0.000242339
0.000188511
0.000146506
0.000113982
8.93214e-05
0.000477436
0.000394212
0.000312176
0.000243421
0.000189389
0.000147415
0.00011489
9.01568e-05
0.000483935
0.00039943
0.000314839
0.000245002
0.000190623
0.000148586
0.000116087
9.13707e-05
0.000486844
0.00040149
0.000315333
0.000244877
0.000190463
0.000148657
0.000116479
9.20558e-05
0.00113896
0.000711015
0.000428765
0.000283839
0.000200862
0.000147835
0.000111793
8.7009e-05
0.00112677
0.000704417
0.000425886
0.000282653
0.000200461
0.000147814
0.000111982
8.73411e-05
0.00111789
0.000699332
0.000423809
0.000281886
0.000200214
0.000147767
0.000112013
8.74004e-05
0.00110906
0.0006938
0.00042155
0.000281148
0.000200046
0.000147829
0.000112198
8.76679e-05
0.00110004
0.000688275
0.000419496
0.000280665
0.000200112
0.000148084
0.000112503
8.79573e-05
0.00108926
0.000682409
0.000417309
0.000279996
0.000200013
0.000148272
0.000112881
8.84611e-05
0.00109628
0.000687161
0.000419139
0.000280238
0.000199738
0.000148012
0.000112816
8.85762e-05
0.000848159
0.000678246
0.000435036
0.000284939
0.000195197
0.000139423
0.000103801
8.1173e-05
0.000843228
0.00067576
0.000434661
0.000285146
0.00019558
0.000139867
0.000104299
8.1752e-05
0.000836894
0.000671849
0.000432955
0.00028433
0.000195177
0.000139681
0.000104244
8.17782e-05
0.000831863
0.000668802
0.000431632
0.000283774
0.000194975
0.000139662
0.000104338
8.19477e-05
0.000827705
0.000665918
0.000429866
0.000282801
0.00019443
0.000139336
0.000104116
8.1754e-05
0.000823613
0.000661853
0.000426645
0.000280806
0.00019331
0.000138786
0.000103914
8.17178e-05
0.000831135
0.000662759
0.000424265
0.000278543
0.000191916
0.000138259
0.00010397
8.19665e-05
0.00014953
0.000142771
0.000132173
0.00011955
0.000106618
9.40832e-05
8.22903e-05
7.12332e-05
0.000125906
0.000119989
0.000115253
0.000108734
9.99845e-05
9.01016e-05
7.95693e-05
6.90798e-05
0.000106365
9.90281e-05
9.27648e-05
8.64015e-05
7.97495e-05
7.29375e-05
6.61814e-05
5.89168e-05
9.9111e-05
9.11812e-05
8.37703e-05
7.63115e-05
6.9156e-05
6.2428e-05
5.63423e-05
5.02833e-05
0.000109148
0.000101177
9.44857e-05
8.72493e-05
7.99617e-05
7.28923e-05
6.58936e-05
5.84533e-05
0.00012517
0.000119648
0.000114603
0.000106694
9.71635e-05
8.70483e-05
7.65558e-05
6.59468e-05
0.000140994
0.000135393
0.000126092
0.000114519
0.000102343
9.03603e-05
7.88317e-05
6.79865e-05
0.000321079
0.000280824
0.000237892
0.000199272
0.000166417
0.000138721
0.000115091
9.48313e-05
0.000325727
0.00028785
0.000248747
0.000210956
0.000177071
0.000147425
0.000121727
9.95433e-05
0.000325943
0.00027939
0.000236865
0.000199891
0.000167727
0.000139944
0.00011476
9.24949e-05
0.000315997
0.000269358
0.000227473
0.00019165
0.000161296
0.000135056
0.000111548
9.12915e-05
0.000309002
0.000265102
0.000224039
0.000188588
0.000158004
0.000131145
0.000106734
8.5123e-05
0.000310179
0.000274147
0.000235009
0.000198392
0.000165874
0.000137235
0.000111747
8.9706e-05
0.000314643
0.000277098
0.00023575
0.00019794
0.000165219
0.000137181
0.000113024
9.23034e-05
0.000518113
0.000418336
0.000322941
0.000246934
0.000190114
0.000147862
0.000116223
9.25269e-05
0.000548943
0.000438878
0.000356269
0.00028443
0.000226273
0.000180917
0.000145761
0.000118468
0.000577404
0.000437142
0.000345114
0.0002802
0.000229455
0.00018711
0.000150051
0.000118207
0.00054205
0.000404272
0.000312257
0.000247692
0.000198686
0.000159757
0.000128162
0.000102529
0.000537039
0.000401384
0.000312669
0.000250947
0.000204056
0.000164961
0.000130043
9.99037e-05
0.000508312
0.000406274
0.000328978
0.000261641
0.000206913
0.000163853
0.000130139
0.000103832
0.000499825
0.00040991
0.000320794
0.000247297
0.000190967
0.000148262
0.000115812
9.1345e-05
0.00120275
0.000736965
0.000436921
0.000284657
0.000199628
0.000146874
0.000111925
8.81396e-05
0.00141625
0.000908618
0.000553154
0.000364401
0.000259818
0.000195996
0.000153993
0.000124854
0.00157884
0.00109058
0.000720081
0.0005012
0.000371081
0.000287256
0.000227234
0.00017878
0.00140227
0.0009305
0.000587567
0.000386582
0.00026732
0.000192856
0.000144126
0.000110994
0.00149103
0.00101283
0.000654821
0.000445958
0.000321753
0.000241683
0.000184962
0.000139866
0.00135579
0.000873017
0.000532386
0.000350408
0.000248582
0.000186002
0.000144793
0.000116195
0.00119522
0.000739767
0.000441853
0.000289263
0.000203174
0.000149201
0.0001131
8.83933e-05
0.000828637
0.000648525
0.000409509
0.000267318
0.000184215
0.000133554
0.000101528
8.09174e-05
0.000966397
0.000760118
0.000490031
0.000328198
0.000234333
0.000177546
0.000141305
0.000116693
0.00122737
0.00099271
0.000676286
0.000478389
0.000361117
0.000289479
0.000242158
0.000206011
0.00145356
0.0011935
0.000840591
0.000602026
0.000439746
0.000320107
0.000227348
0.000158538
0.00125489
0.00102005
0.000695996
0.000490607
0.000366066
0.0002871
0.000231829
0.000186185
0.00100765
0.000796591
0.000515478
0.000345186
0.00024568
0.000185121
0.000146245
0.000119407
0.000856905
0.000674262
0.000427816
0.000279672
0.00019275
0.00013953
0.000105679
8.37025e-05
0.000140923
0.000135828
0.000125861
0.000113701
0.000101096
8.89646e-05
7.7545e-05
6.6797e-05
0.00012013
0.000115922
0.000113874
0.00010748
9.76498e-05
8.64569e-05
7.5905e-05
6.57879e-05
8.6697e-05
8.1961e-05
7.78781e-05
7.29837e-05
6.78406e-05
6.1915e-05
5.5923e-05
4.98173e-05
9.01607e-05
8.25937e-05
7.56011e-05
6.81035e-05
6.16818e-05
5.55931e-05
4.96701e-05
4.40291e-05
0.00010553
9.75429e-05
8.94585e-05
8.21779e-05
7.54371e-05
6.81722e-05
6.03939e-05
5.28255e-05
0.000123965
0.000117919
0.000110514
0.000102704
9.20185e-05
8.10269e-05
7.06828e-05
6.111e-05
0.000130951
0.000124359
0.000115576
0.000104758
9.33873e-05
8.225e-05
7.16479e-05
6.15818e-05
0.000322439
0.000281467
0.000237685
0.000198528
0.000165305
0.000137303
0.000113348
9.27807e-05
0.000326748
0.000295254
0.00025369
0.000213324
0.000177225
0.000147318
0.000121939
0.000100237
0.00028678
0.000251214
0.000215477
0.000184875
0.000158062
0.000134583
0.000112325
9.11298e-05
0.000262963
0.000220718
0.000180851
0.000147957
0.00012074
9.8468e-05
8.01232e-05
6.51846e-05
0.000270105
0.000230279
0.000192801
0.000162787
0.000137488
0.000114479
9.41571e-05
7.65907e-05
0.0002957
0.000260075
0.000222673
0.000186168
0.000155088
0.00012844
0.000105811
8.6338e-05
0.000307594
0.000270814
0.000230199
0.000192954
0.000160493
0.000132501
0.000108357
8.76804e-05
0.000510072
0.000416502
0.00032486
0.000250151
0.000193201
0.000150158
0.000117481
9.28093e-05
0.000518089
0.000426681
0.000342954
0.000270754
0.000212922
0.000167811
0.000132889
0.000105926
0.000482352
0.000391923
0.000332147
0.000280286
0.000232941
0.000191833
0.000158059
0.000130881
0.000424193
0.000328166
0.000262508
0.000212205
0.000170055
0.000134189
0.000104187
7.98619e-05
0.000448747
0.000356696
0.000297302
0.000246308
0.000199547
0.000159339
0.000126838
0.000101492
0.000481355
0.000392055
0.000313156
0.000245149
0.000190535
0.000148122
0.00011562
9.11308e-05
0.000486897
0.00039968
0.000315425
0.000244599
0.000189223
0.000146648
0.000114012
8.93806e-05
0.00117103
0.000723535
0.000433644
0.000285602
0.000201504
0.000148301
0.000112446
8.78389e-05
0.00123076
0.000771071
0.000465292
0.000307504
0.000218537
0.000162631
0.00012495
9.87993e-05
0.00126583
0.0008178
0.00050337
0.000335776
0.000243037
0.000186469
0.0001491
0.00012304
0.00125686
0.000834016
0.000535423
0.000374135
0.000282771
0.000224965
0.000183216
0.000148891
0.00123524
0.000801728
0.000493814
0.00032844
0.000234806
0.000176282
0.000137323
0.000110362
0.00119435
0.000751361
0.000451492
0.000295841
0.000207867
0.000152698
0.000115885
9.08212e-05
0.0011581
0.000722644
0.000434223
0.000286033
0.000201638
0.000148083
0.000111919
8.71451e-05
0.00083528
0.000662536
0.000422496
0.000276533
0.000189872
0.000136234
0.00010197
8.00078e-05
0.000858343
0.000681988
0.000436307
0.000286238
0.000197405
0.000142709
0.000107915
8.5604e-05
0.000896094
0.000713069
0.000458656
0.000303192
0.000212098
0.000157012
0.000122746
0.000101094
0.000921251
0.000736673
0.000478804
0.000323181
0.000235448
0.000186201
0.000158768
0.000144347
0.000885732
0.000703991
0.00045038
0.000295555
0.000205031
0.000150864
0.000117785
9.73494e-05
0.000856504
0.000681229
0.000434667
0.000283614
0.000194246
0.000139501
0.000105015
8.32124e-05
0.000850339
0.000678542
0.000434149
0.000283874
0.00019431
0.000138841
0.000103499
8.10406e-05
0.000132715
0.000127247
0.000119316
0.000109285
9.8282e-05
8.71751e-05
7.64039e-05
6.60953e-05
0.000120356
0.00011305
0.000106197
9.9115e-05
9.05672e-05
8.10321e-05
7.12448e-05
6.16728e-05
0.000107448
9.88653e-05
9.17161e-05
8.48587e-05
7.77617e-05
7.04484e-05
6.30253e-05
5.55976e-05
9.9556e-05
9.0321e-05
8.22404e-05
7.49702e-05
6.8028e-05
6.14053e-05
5.48414e-05
4.90001e-05
0.000104911
9.80584e-05
9.1844e-05
8.57904e-05
7.92679e-05
7.25128e-05
6.54965e-05
5.82844e-05
0.000124783
0.000118443
0.000112565
0.000106633
9.81432e-05
8.83216e-05
7.80485e-05
6.79279e-05
0.000149339
0.00014256
0.000131637
0.00011871
0.000105579
9.30889e-05
8.14445e-05
7.05468e-05
0.000302698
0.000269665
0.000231464
0.000195473
0.000163556
0.000135757
0.000111625
9.09143e-05
0.000290784
0.000255252
0.000218981
0.000184634
0.000153383
0.000125746
0.000101925
8.2279e-05
0.00029224
0.00024724
0.000206693
0.000171907
0.000142168
0.00011643
9.40553e-05
7.494e-05
0.000319341
0.000269128
0.000224797
0.000186821
0.000154883
0.000127843
0.00010481
8.50737e-05
0.000331622
0.000282376
0.000238289
0.000200069
0.000167389
0.000138904
0.000113819
9.17748e-05
0.000332803
0.000289641
0.00024864
0.000209345
0.000174668
0.000144993
0.00011995
9.90665e-05
0.000325093
0.000281749
0.000236881
0.000197258
0.000164263
0.000136857
0.000113695
9.38778e-05
0.00047728
0.000397246
0.000316499
0.000247119
0.000192408
0.00015018
0.000117675
9.29776e-05
0.000473377
0.000373645
0.000308456
0.000249298
0.000198636
0.000157726
0.000125367
9.99048e-05
0.000496518
0.000365086
0.000278441
0.000218289
0.000172869
0.000136685
0.000107149
8.32034e-05
0.0005318
0.000393948
0.000301662
0.000237116
0.000188625
0.000150553
0.000120046
9.55566e-05
0.000580126
0.000437754
0.000344005
0.000277952
0.000226485
0.000183677
0.00014736
0.000116984
0.000558757
0.000441233
0.000358336
0.000285674
0.00022652
0.000180467
0.000145072
0.000117793
0.000518625
0.00041745
0.000322028
0.000246039
0.000189334
0.000147292
0.000115879
9.23356e-05
0.00118257
0.000747517
0.000454132
0.000300693
0.000213245
0.000158052
0.000120732
9.47336e-05
0.00133321
0.000879638
0.000545489
0.000361943
0.0002586
0.000194923
0.00015212
0.000120685
0.00138802
0.000940025
0.00060661
0.000409366
0.000291355
0.000215104
0.000161374
0.000121065
0.00136223
0.000903422
0.000571003
0.000375733
0.000259353
0.000186318
0.000138337
0.000105692
0.00155305
0.00107388