/*--------------------------------*- C++ -*----------------------------------*\
| =========                 |                                                 |
| \\      /  F ield         | OpenFOAM: The Open Source CFD Toolbox           |
|  \\    /   O peration     | Version:  plus.master                           |
|   \\  /    A nd           | Web:      www.OpenFOAM.com                      |
|    \\/     M anipulation  |                                                 |
\*---------------------------------------------------------------------------*/
FoamFile
{
    version     2.0;
    format      ascii;
    class       volScalarField;
    location    "10.6";
    object      p_rgh;
}
// * * * * * * * * * * * * * * * * * * * * * * * * * * * * * * * * * * * * * //

dimensions      [1 -1 -2 0 0 0 0];

internalField   nonuniform List<scalar> 
47285
(
5681.53
5674.33
5672.69
5672.21
5672.06
5674.82
5680.85
5673.36
5627.99
5632.83
5630.94
5623.73
5631.24
5673.73
5671.88
5621.12
5606.59
5604.51
5606.58
5633.87
5672.33
5672.28
5630.55
5604.5
5602.96
5604.86
5635.82
5672.79
5672.57
5625.9
5606.49
5604.22
5605.87
5635.65
5671.76
5675.49
5628.51
5628.49
5627.95
5617.42
5630.12
5673.06
5682.26
5675.02
5672.09
5671.1
5670.01
5672.28
5679.95
5707.03
5707.46
5708.5
5709.14
5708.44
5707.13
5706.55
5706.93
5675.04
5696.45
5685.34
5685.23
5694.23
5707.45
5708.67
5644.73
5551.24
5549.45
5575.45
5707.68
5708.96
5709.36
5679.37
5549.63
5541.79
5561.66
5708.91
5709.63
5709.42
5665.12
5548.31
5545.61
5565.59
5709.75
5709.21
5707.83
5654.38
5678.98
5668.29
5654.81
5700.55
5707.93
5707.41
5707.9
5709.18
5709.45
5708.62
5707.15
5707.01
5718.55
5721.82
5724.05
5724.78
5722.31
5719.11
5715.82
5722.04
5726.87
5725.05
5705.09
5728.1
5723.28
5718.79
5725.33
5681.17
5503.76
5468.15
5616.27
5727.17
5721.3
5726.97
5686.19
5457.43
5438.28
5538.44
5728
5722.17
5725.89
5690.22
5487.78
5449.95
5565.05
5727.49
5721.73
5722.79
5713.77
5703.2
5672.57
5708.59
5724.51
5719.68
5719.38
5722.68
5725.02
5726.12
5723.82
5720.08
5716.67
5716.93
5720.78
5723.07
5723.58
5720.97
5717.23
5713.21
5721.07
5726.04
5726.03
5699.63
5727.29
5722.13
5716.84
5724.25
5683.07
5457.72
5384.17
5651.17
5726.53
5719.98
5725.71
5661.34
5344.66
5310.36
5553.55
5728.43
5721.4
5724.85
5679.15
5415.86
5340.43
5579.45
5727.78
5720.85
5721.92
5724.73
5691.14
5650.04
5717.79
5723.22
5717.89
5718.04
5721.71
5724.03
5724.38
5721.91
5718.24
5714.08
5693.24
5697.66
5700.62
5701.09
5698.03
5693.71
5689.21
5698.26
5704.31
5709.39
5687.89
5705.47
5699.23
5693.2
5702.37
5673.57
5416.9
5322.56
5659
5704.38
5696.78
5704.77
5611.78
5216.91
5175.03
5584.48
5706.97
5698.54
5703.46
5657.77
5324.86
5231.12
5591.39
5706.04
5697.79
5699.84
5706.11
5668.21
5620.14
5706.13
5700.99
5694.45
5695.07
5699.6
5702.79
5703.36
5699.83
5695.12
5690.25
5686.47
5690.7
5693.85
5696.27
5698.16
5699.65
5700.84
5701.81
5682.89
5689.12
5692.83
5695.68
5697.87
5699.57
5700.89
5701.95
5680.35
5687.52
5692.43
5695.39
5697.75
5699.56
5700.96
5702.06
5680.35
5687.88
5692.66
5695.46
5697.76
5699.48
5700.88
5702.01
5680.53
5687.61
5692.2
5695.31
5697.69
5699.51
5700.9
5701.99
5681.92
5688.6
5692.8
5695.66
5697.84
5699.55
5700.9
5701.97
5685.46
5689.97
5693.55
5696.06
5698.03
5699.58
5700.83
5701.83
5705.9
5705.48
5705.26
5705.18
5705.2
5705.29
5705.43
5705.6
5706.71
5705.98
5705.55
5705.34
5705.29
5705.34
5705.46
5705.63
5707.76
5706.71
5705.97
5705.57
5705.41
5705.4
5705.5
5705.66
5708.23
5707.05
5706.17
5705.69
5705.49
5705.46
5705.54
5705.69
5707.94
5706.85
5706.07
5705.64
5705.47
5705.46
5705.54
5705.69
5707.09
5706.29
5705.77
5705.5
5705.41
5705.44
5705.55
5705.71
5706.26
5705.77
5705.48
5705.36
5705.35
5705.41
5705.53
5705.69
5713.13
5711.33
5709.93
5708.83
5707.97
5707.32
5706.87
5706.59
5715.22
5712.66
5710.76
5709.34
5708.26
5707.48
5706.94
5706.63
5716.91
5713.79
5711.47
5709.77
5708.52
5707.62
5707
5706.64
5717.69
5714.35
5711.83
5710
5708.67
5707.71
5707.06
5706.68
5717.33
5714.1
5711.68
5709.92
5708.63
5707.7
5707.06
5706.69
5715.79
5713.09
5711.07
5709.57
5708.45
5707.62
5707.04
5706.69
5713.71
5711.76
5710.25
5709.07
5708.16
5707.47
5706.97
5706.66
5709.97
5707.69
5706
5704.81
5704.14
5704.02
5704.48
5705.51
5712.39
5709.21
5706.87
5705.23
5704.26
5703.95
5704.34
5705.4
5714.51
5710.57
5707.69
5705.69
5704.46
5703.99
5704.3
5705.36
5715.6
5711.31
5708.16
5706
5704.66
5704.11
5704.37
5705.41
5715.15
5711.02
5708.01
5705.94
5704.67
5704.16
5704.44
5705.47
5713.14
5709.77
5707.29
5705.56
5704.52
5704.16
5704.52
5705.55
5710.47
5708.03
5706.26
5705.01
5704.29
5704.13
5704.56
5705.56
5685.76
5683.04
5680.78
5678.92
5677.32
5675.55
5673.34
5672.73
5688.41
5684.78
5681.87
5679.57
5677.7
5675.77
5673.35
5672.51
5690.7
5686.29
5682.86
5680.22
5678.12
5676.03
5673.44
5672.42
5691.89
5687.09
5683.42
5680.62
5678.42
5676.25
5673.58
5672.48
5691.35
5686.74
5683.2
5680.48
5678.35
5676.23
5673.62
5672.56
5689.23
5685.37
5682.33
5679.97
5678.07
5676.13
5673.7
5672.8
5686.31
5683.39
5681.05
5679.17
5677.59
5675.86
5673.69
5673.08
5688.05
5691.91
5694.98
5697.3
5699.12
5700.58
5701.75
5702.69
5684.13
5689.74
5693.97
5696.71
5698.79
5700.42
5701.73
5702.76
5682.22
5688.67
5693.36
5696.46
5698.78
5700.54
5701.95
5703.02
5682.12
5688.35
5692.94
5696.22
5698.66
5700.53
5701.98
5703.1
5681.52
5687.96
5693.03
5696
5698.42
5700.24
5701.62
5702.69
5683.22
5689.39
5693.93
5696.53
5698.64
5700.23
5701.48
5702.52
5687.35
5691.42
5694.71
5697.01
5698.81
5700.27
5701.5
5702.5
5706.97
5706.59
5706.36
5706.25
5706.22
5706.25
5706.32
5706.42
5707.6
5707.06
5706.66
5706.43
5706.31
5706.28
5706.31
5706.38
5708.91
5707.92
5707.24
5706.82
5706.61
5706.52
5706.53
5706.59
5709.42
5708.17
5707.37
5706.9
5706.66
5706.57
5706.58
5706.64
5708.66
5707.63
5706.93
5706.51
5706.3
5706.22
5706.23
5706.29
5707.34
5706.75
5706.34
5706.12
5706.03
5706.02
5706.07
5706.16
5706.61
5706.17
5705.93
5705.85
5705.86
5705.9
5706
5706.12
5716.28
5714.04
5712.27
5710.89
5709.82
5708.99
5708.37
5707.93
5718.73
5715.7
5713.33
5711.54
5710.19
5709.16
5708.42
5707.92
5720.89
5717.3
5714.46
5712.29
5710.68
5709.49
5708.64
5708.07
5721.65
5717.75
5714.73
5712.44
5710.74
5709.51
5708.64
5708.07
5720.39
5716.79
5713.98
5711.85
5710.27
5709.11
5708.27
5707.71
5718.1
5715.11
5712.81
5711.07
5709.73
5708.75
5708.03
5707.56
5715.5
5713.32
5711.66
5710.34
5709.3
5708.5
5707.91
5707.52
5713.99
5711.14
5708.97
5707.44
5706.49
5706.12
5706.37
5707.19
5716.95
5713.08
5710.03
5707.87
5706.5
5705.85
5705.96
5706.76
5719.25
5714.9
5711.24
5708.52
5706.78
5705.92
5705.91
5706.65
5719.9
5715.42
5711.58
5708.66
5706.77
5705.81
5705.74
5706.42
5718.63
5714.23
5710.62
5707.97
5706.28
5705.48
5705.5
5706.25
5716.07
5712.25
5709.32
5707.24
5705.91
5705.32
5705.46
5706.28
5712.99
5710.29
5708.24
5706.77
5705.87
5705.54
5705.81
5706.67
5690.43
5687.13
5684.46
5682.34
5680.57
5678.69
5676.44
5675.84
5693.75
5689.18
5685.55
5682.82
5680.69
5678.61
5676.18
5675.49
5696.36
5690.97
5686.52
5683.17
5680.69
5678.4
5675.84
5675.31
5697.2
5691.51
5686.75
5683.15
5680.5
5678.11
5675.46
5675.06
5695.47
5690.12
5685.73
5682.55
5680.16
5677.89
5675.32
5674.76
5692.39
5688.03
5684.59
5681.95
5679.87
5677.82
5675.39
5674.71
5689.08
5685.99
5683.41
5681.31
5679.54
5677.66
5675.4
5674.79
5687.33
5691.34
5694.45
5696.81
5698.66
5700.16
5701.35
5702.3
5683.42
5689.25
5693.33
5696.22
5698.41
5700.12
5701.46
5702.44
5682.07
5688.46
5692.78
5695.96
5698.33
5700.15
5701.54
5702.6
5681.72
5688.12
5692.6
5695.76
5698.13
5699.96
5701.37
5702.47
5681.62
5687.92
5692.52
5695.59
5697.92
5699.7
5701.1
5702.18
5683.17
5688.83
5693.24
5695.98
5698.09
5699.69
5700.96
5701.97
5686.7
5690.7
5693.97
5696.34
5698.23
5699.75
5700.98
5701.98
5706.49
5706.08
5705.84
5705.74
5705.76
5705.84
5705.93
5706.05
5707.12
5706.58
5706.16
5705.88
5705.74
5705.74
5705.8
5705.93
5707.88
5707.03
5706.4
5706.04
5705.88
5705.86
5705.92
5706.03
5708.27
5707.12
5706.36
5705.93
5705.74
5705.7
5705.75
5705.85
5707.55
5706.59
5705.96
5705.61
5705.46
5705.44
5705.5
5705.62
5706.55
5705.92
5705.54
5705.34
5705.29
5705.32
5705.42
5705.56
5705.91
5705.5
5705.28
5705.2
5705.21
5705.29
5705.41
5705.58
5715.31
5713.13
5711.47
5710.2
5709.18
5708.4
5707.83
5707.45
5717.7
5714.65
5712.34
5710.65
5709.44
5708.48
5707.77
5707.32
5719.25
5715.79
5713.08
5711.06
5709.59
5708.54
5707.81
5707.35
5719.48
5715.8
5712.96
5710.87
5709.34
5708.24
5707.49
5707.04
5717.85
5714.58
5712.1
5710.27
5708.93
5707.95
5707.27
5706.61
5715.55
5712.97
5711.03
5709.56
5708.45
5707.58
5706.81
5706.46
5713.28
5711.48
5710.06
5708.94
5708.07
5707.41
5706.94
5706.66
5712.69
5710.01
5708.01
5706.58
5705.73
5705.45
5705.77
5706.67
5715.57
5711.75
5708.98
5706.99
5705.76
5705.25
5705.48
5706.4
5717.46
5713.09
5709.59
5707.15
5705.65
5704.99
5705.15
5706.04
5717.58
5713.04
5709.41
5706.86
5705.31
5704.64
5704.79
5705.73
5715.56
5711.46
5708.34
5706.16
5704.82
5704.27
5704.5
5705.45
5712.78
5709.58
5707.19
5705.51
5704.5
5704.08
5704.4
5705.5
5710.12
5707.89
5706.19
5704.98
5704.29
5704.15
5704.59
5705.59
5688.67
5685.54
5682.99
5680.95
5679.25
5677.41
5675.18
5674.56
5691.63
5687.4
5684.07
5681.52
5679.51
5677.5
5675.05
5674.22
5693.77
5688.66
5684.63
5681.64
5679.37
5677.19
5674.59
5673.72
5694
5688.7
5684.47
5681.38
5679.07
5676.85
5674.23
5673.42
5691.77
5687.07
5683.41
5680.65
5678.55
5676.44
5673.88
5673.04
5688.85
5685.2
5682.28
5680.01
5678.15
5676.22
5673.85
5673.08
5685.95
5683.28
5681.01
5679.14
5677.53
5675.75
5673.53
5672.92
5686.04
5690.3
5693.77
5696.23
5698.18
5699.72
5700.97
5702
5682.12
5688.61
5693.55
5696.21
5698.35
5700
5701.26
5702.27
5680.3
5687.26
5692.86
5695.92
5698.31
5700.11
5701.49
5702.55
5680.98
5687.34
5692.7
5696.12
5698.52
5700.39
5701.84
5702.98
5682.1
5688.55
5692.98
5696.24
5698.64
5700.48
5701.89
5702.97
5684.02
5689.71
5693.72
5696.64
5698.81
5700.5
5701.81
5702.83
5687.98
5692.01
5695.04
5697.33
5699.14
5700.58
5701.74
5702.68
5706.35
5705.87
5705.59
5705.45
5705.41
5705.45
5705.55
5705.68
5707.17
5706.43
5705.96
5705.7
5705.59
5705.58
5705.63
5705.73
5708.52
5707.3
5706.56
5706.14
5705.93
5705.86
5705.88
5705.96
5709.07
5707.85
5707.05
5706.58
5706.35
5706.27
5706.29
5706.37
5708.73
5707.78
5707.11
5706.71
5706.51
5706.44
5706.45
5706.51
5707.68
5707.15
5706.74
5706.47
5706.33
5706.29
5706.31
5706.37
5706.97
5706.59
5706.35
5706.23
5706.2
5706.23
5706.3
5706.4
5713.95
5712.02
5710.49
5709.28
5708.33
5707.61
5707.08
5706.75
5716.48
5713.71
5711.61
5710.03
5708.82
5707.92
5707.28
5706.87
5719.09
5715.62
5712.96
5710.97
5709.5
5708.43
5707.67
5707.17
5720.99
5717.02
5714.05
5711.83
5710.21
5709.04
5708.23
5707.7
5720.36
5716.9
5714.14
5712.01
5710.42
5709.26
5708.43
5707.87
5718.66
5715.64
5713.26
5711.46
5710.11
5709.1
5708.36
5707.87
5716.22
5713.98
5712.21
5710.84
5709.77
5708.95
5708.33
5707.9
5710.67
5708.33
5706.52
5705.22
5704.43
5704.19
5704.55
5705.49
5713.5
5710.05
5707.46
5705.64
5704.49
5704.03
5704.26
5705.17
5716.46
5712.27
5708.96
5706.61
5705.13
5704.45
5704.58
5705.43
5718.48
5714.06
5710.37
5707.64
5705.9
5705.07
5705.09
5705.86
5718.5
5714.2
5710.6
5707.95
5706.26
5705.46
5705.51
5706.29
5716.65
5712.8
5709.75
5707.61
5706.26
5705.65
5705.78
5706.59
5713.87
5711.02
5708.86
5707.34
5706.4
5706.04
5706.29
5707.11
5686.68
5683.9
5681.5
5679.53
5677.87
5676.08
5673.91
5673.38
5689.67
5685.73
5682.58
5680.14
5678.25
5676.32
5673.99
5673.45
5693.08
5688.04
5684.01
5681.05
5678.84
5676.71
5674.24
5673.82
5695.62
5690.02
5685.48
5682.04
5679.54
5677.24
5674.64
5674.34
5695.51
5690.12
5685.73
5682.46
5680.05
5677.84
5675.33
5674.86
5693.32
5688.76
5685.15
5682.44
5680.35
5678.3
5675.89
5675.23
5690.3
5686.99
5684.33
5682.21
5680.45
5678.58
5676.34
5675.75
5702.62
5702.77
5702.87
5702.84
5702.81
5702.8
5702.64
5705.8
5705.84
5705.86
5705.89
5705.89
5705.9
5705.86
5706.52
5706.55
5706.55
5706.58
5706.58
5706.58
5706.55
5706.76
5706.72
5706.7
5706.75
5706.78
5706.83
5706.78
5678.48
5678.53
5678.61
5678.7
5678.71
5678.75
5678.8
5703.45
5703.53
5703.76
5703.92
5703.45
5703.29
5703.27
5706.53
5706.47
5706.66
5706.73
5706.38
5706.27
5706.26
5707.68
5707.66
5707.76
5707.78
5707.43
5707.32
5707.31
5708.23
5707.82
5707.67
5707.34
5707.27
5707.37
5707.78
5681.52
5681.7
5682.43
5682.85
5681.93
5681.03
5680.5
5703.05
5703.18
5703.36
5703.26
5702.94
5702.77
5702.78
5706.19
5706.13
5706.15
5705.98
5705.75
5705.71
5705.76
5707.26
5707.14
5707.04
5706.88
5706.02
5706.44
5706.57
5707.8
5707.59
5707.22
5706.96
5706.72
5706.8
5706.83
5680.27
5680.24
5680.2
5680.18
5679.54
5679.13
5678.68
5702.8
5703.04
5703.29
5703.79
5703.73
5703.59
5703.43
5705.84
5705.85
5706.06
5706.47
5706.58
5706.45
5706.51
5706.6
5706.68
5706.93
5707.45
5707.58
5707.6
5707.64
5706.68
5706.34
5706.5
5706.83
5707.32
5707.65
5708.16
5679.21
5679.99
5681.23
5682.3
5682.08
5681.5
5681.44
5703.79
5704.88
5705.68
5706.27
5706.69
5706.97
5707.17
5707.27
5703.84
5704.96
5705.75
5706.31
5706.71
5706.98
5707.16
5707.26
5703.91
5705
5705.77
5706.32
5706.71
5706.98
5707.16
5707.26
5703.92
5704.97
5705.76
5706.34
5706.74
5706.99
5707.17
5707.27
5703.88
5704.99
5705.77
5706.33
5706.74
5707.02
5707.2
5707.3
5703.92
5705.02
5705.81
5706.37
5706.77
5707.05
5707.24
5707.34
5703.78
5704.89
5705.71
5706.3
5706.73
5707.03
5707.24
5707.35
5706.07
5706.36
5706.6
5706.8
5706.96
5707.09
5707.19
5707.25
5706.16
5706.43
5706.66
5706.85
5707
5707.12
5707.21
5707.26
5706.18
5706.45
5706.67
5706.86
5707.01
5707.12
5707.21
5707.26
5706.18
5706.48
5706.71
5706.89
5707.03
5707.14
5707.23
5707.28
5706.17
5706.44
5706.67
5706.86
5707.02
5707.14
5707.23
5707.29
5706.16
5706.43
5706.66
5706.85
5707.01
5707.14
5707.24
5707.3
5706.11
5706.36
5706.59
5706.79
5706.96
5707.1
5707.2
5707.27
5706.51
5706.67
5706.85
5707.01
5707.13
5707.22
5707.28
5707.31
5706.55
5706.7
5706.89
5707.04
5707.16
5707.24
5707.3
5707.32
5706.54
5706.7
5706.89
5707.04
5707.16
5707.24
5707.3
5707.32
5706.58
5706.71
5706.89
5707.05
5707.16
5707.25
5707.31
5707.33
5706.56
5706.71
5706.89
5707.05
5707.16
5707.25
5707.31
5707.34
5706.54
5706.7
5706.89
5707.04
5707.16
5707.24
5707.31
5707.34
5706.5
5706.65
5706.83
5706.98
5707.1
5707.19
5707.26
5707.3
5707.98
5707.73
5707.49
5707.35
5707.28
5707.26
5707.27
5707.27
5707.94
5707.71
5707.48
5707.34
5707.28
5707.26
5707.27
5707.28
5707.92
5707.69
5707.46
5707.33
5707.27
5707.25
5707.26
5707.28
5707.95
5707.7
5707.46
5707.32
5707.27
5707.26
5707.27
5707.28
5707.98
5707.69
5707.44
5707.3
5707.25
5707.24
5707.26
5707.28
5708.01
5707.69
5707.43
5707.3
5707.24
5707.23
5707.25
5707.28
5707.96
5707.64
5707.39
5707.25
5707.2
5707.19
5707.21
5707.23
5691.34
5699.24
5702.97
5704.9
5705.95
5706.52
5706.85
5707.03
5691.31
5699.21
5702.95
5704.88
5705.93
5706.52
5706.85
5707.03
5691.32
5699.21
5702.94
5704.87
5705.92
5706.51
5706.84
5707.02
5691.36
5699.23
5702.95
5704.88
5705.93
5706.51
5706.84
5707.03
5691.39
5699.25
5702.96
5704.88
5705.93
5706.51
5706.84
5707.03
5691.48
5699.31
5703
5704.91
5705.94
5706.52
5706.85
5707.03
5691.61
5699.4
5703.06
5704.95
5705.96
5706.52
5706.83
5707.01
5704.52
5705.55
5706.27
5706.8
5707.17
5707.44
5707.62
5707.74
5704.53
5705.48
5706.17
5706.66
5707.01
5707.25
5707.4
5707.48
5704.7
5705.58
5706.19
5706.61
5706.9
5707.1
5707.24
5707.31
5704.94
5705.85
5706.45
5706.84
5707.09
5707.27
5707.4
5707.48
5704.39
5705.28
5705.93
5706.39
5706.71
5706.95
5707.11
5707.2
5704.3
5705.27
5706
5706.51
5706.86
5707.11
5707.26
5707.35
5704.35
5705.39
5706.13
5706.65
5707.02
5707.28
5707.46
5707.57
5706.69
5706.86
5707.02
5707.16
5707.28
5707.38
5707.47
5707.53
5706.64
5706.85
5707.03
5707.15
5707.24
5707.31
5707.36
5707.34
5706.79
5706.93
5707.05
5707.13
5707.2
5707.24
5707.27
5707.28
5706.85
5707
5707.13
5707.22
5707.28
5707.34
5707.38
5707.42
5706.53
5706.7
5706.84
5706.94
5707.03
5707.09
5707.13
5707.16
5706.46
5706.7
5706.87
5707
5707.1
5707.18
5707.23
5707.23
5706.46
5706.67
5706.86
5707.02
5707.15
5707.26
5707.35
5707.41
5707.41
5707.38
5707.4
5707.45
5707.48
5707.51
5707.53
5707.54
5707.41
5707.27
5707.28
5707.31
5707.34
5707.38
5707.38
5707.3
5707.48
5707.34
5707.31
5707.32
5707.32
5707.32
5707.31
5707.3
5707.51
5707.36
5707.33
5707.34
5707.36
5707.37
5707.39
5707.4
5707.18
5707.05
5707.04
5707.06
5707.07
5707.09
5707.11
5707.07
5707.11
5707.01
5707.04
5707.1
5707.16
5707.21
5707.25
5707.06
5707.1
5707.11
5707.19
5707.27
5707.33
5707.37
5707.41
5707.43
5709.12
5708.55
5708.1
5707.82
5707.65
5707.56
5707.52
5707.5
5708.79
5708.42
5708.01
5707.73
5707.55
5707.46
5707.4
5707.26
5708.76
5708.62
5708.3
5708
5707.78
5707.61
5707.35
5707.19
5708.29
5708.19
5707.96
5707.75
5707.59
5707.47
5707.4
5707.35
5708.4
5708.29
5708.01
5707.75
5707.56
5707.41
5707.17
5706.75
5708.42
5708.15
5707.8
5707.56
5707.41
5707.32
5707.27
5706.95
5708.77
5708.3
5707.92
5707.67
5707.52
5707.45
5707.41
5707.4
5693.63
5700.74
5704.01
5705.65
5706.5
5706.95
5707.18
5707.31
5693.75
5700.78
5704.01
5705.62
5706.45
5706.88
5707.07
5707.15
5694.31
5701.06
5704.2
5705.77
5706.59
5706.99
5706.72
5706.66
5694.7
5701.34
5704.39
5705.88
5706.6
5706.97
5707.18
5707.23
5693.94
5700.82
5704.01
5705.61
5706.44
5706.84
5706.37
5706.21
5693.26
5700.43
5703.76
5705.43
5706.3
5706.75
5706.96
5706.89
5692.88
5700.25
5703.67
5705.4
5706.31
5706.8
5707.06
5707.2
5704.14
5705.21
5705.99
5706.55
5706.95
5707.24
5707.45
5707.57
5704.18
5705.17
5705.96
5706.5
5706.85
5707.08
5707.25
5707.36
5704.34
5705.28
5705.94
5706.4
5706.74
5706.97
5707.12
5707.22
5704.27
5705.24
5705.91
5706.35
5706.68
5706.9
5707.05
5707.15
5703.91
5704.87
5705.54
5706.07
5706.47
5706.73
5706.91
5707.02
5703.91
5704.86
5705.63
5706.25
5706.63
5706.9
5707.08
5707.2
5703.91
5704.98
5705.76
5706.32
5706.71
5706.99
5707.18
5707.29
5706.41
5706.64
5706.84
5707.01
5707.16
5707.28
5707.38
5707.45
5706.35
5706.62
5706.81
5706.95
5707.04
5707.13
5707.21
5707.26
5706.34
5706.58
5706.75
5706.87
5707
5707.16
5707.22
5707.26
5706.17
5706.4
5706.53
5706.64
5706.85
5706.98
5707.06
5707.12
5705.97
5706.19
5706.19
5706.37
5706.75
5706.92
5707
5707.05
5705.99
5706.27
5706.52
5706.72
5706.87
5706.99
5707.09
5707.16
5706.04
5706.33
5706.57
5706.78
5706.95
5707.08
5707.18
5707.24
5707.09
5707.14
5707.23
5707.32
5707.39
5707.44
5707.48
5707.5
5707.01
5707.02
5707.1
5707.19
5707.26
5707.3
5707.32
5707.32
5706.84
5706.89
5707.01
5707.14
5707.25
5707.2
5707.22
5707.22
5706.78
5706.82
5706.92
5706.99
5706.99
5707.04
5707.17
5707.21
5705.97
5706.04
5706.18
5706.54
5707.04
5707.12
5707.15
5707.16
5706.53
5706.57
5706.73
5706.92
5707.06
5707.14
5707.2
5707.22
5706.54
5706.69
5706.87
5707.02
5707.14
5707.22
5707.28
5707.3
5708.82
5708.34
5707.95
5707.71
5707.57
5707.5
5707.47
5707.46
5708.65
5708.28
5707.93
5707.7
5707.56
5707.48
5707.44
5707.4
5708.46
5708.29
5708.01
5707.78
5707.64
5707.57
5707.53
5707.36
5708.17
5707.91
5707.69
5707.5
5707.37
5707.27
5707.38
5707.43
5707.99
5707.84
5707.57
5707.44
5707.41
5707.34
5707.27
5707.22
5708.02
5707.82
5707.57
5707.4
5707.32
5707.28
5707.26
5707.25
5708.03
5707.78
5707.54
5707.38
5707.31
5707.28
5707.28
5707.28
5692.71
5700.16
5703.63
5705.39
5706.32
5706.82
5707.1
5707.24
5692.63
5700.1
5703.59
5705.36
5706.3
5706.81
5707.09
5707.23
5692.56
5700.04
5703.54
5705.34
5706.3
5706.83
5707.13
5707.29
5692.44
5699.8
5703.46
5705.36
5706.33
5706.87
5707.11
5707.19
5692.09
5699.73
5703.31
5705.15
5706.13
5706.67
5706.93
5707.05
5691.78
5699.52
5703.16
5705.04
5706.04
5706.59
5706.9
5707.06
5691.49
5699.35
5703.05
5704.95
5705.98
5706.55
5706.87
5707.05
5703.89
5704.99
5705.77
5706.31
5706.7
5706.97
5707.17
5707.29
5704.05
5705.02
5705.7
5706.2
5706.54
5706.77
5706.93
5707.04
5704.23
5705.12
5705.77
5706.23
5706.56
5706.78
5706.93
5707.03
5704.8
5705.69
5706.28
5706.68
5706.95
5707.13
5707.26
5707.35
5704.71
5705.59
5706.2
5706.61
5706.88
5707.07
5707.19
5707.26
5704.6
5705.53
5706.19
5706.65
5706.98
5707.2
5707.35
5707.45
5704.49
5705.51
5706.23
5706.75
5707.12
5707.4
5707.6
5707.72
5706.1
5706.33
5706.54
5706.72
5706.87
5706.99
5707.1
5707.18
5706.04
5706.29
5706.51
5706.66
5706.77
5706.85
5706.86
5706.88
5706.22
5706.41
5706.57
5706.7
5706.8
5706.88
5706.93
5706.95
5706.61
5706.79
5706.93
5707.04
5707.13
5707.19
5707.25
5707.3
5706.71
5706.85
5706.97
5707.07
5707.13
5707.18
5707.21
5707.23
5706.59
5706.79
5706.96
5707.08
5707.18
5707.25
5707.28
5707.26
5706.66
5706.84
5706.99
5707.13
5707.26
5707.36
5707.45
5707.52
5706.5
5706.59
5706.74
5706.88
5706.99
5707.06
5707.13
5707.19
5706.54
5706.52
5706.61
5706.71
5706.81
5706.83
5706.64
5706.68
5706.74
5706.67
5706.72
5706.78
5706.85
5706.89
5706.86
5706.75
5707.23
5707.13
5707.13
5707.17
5707.2
5707.23
5707.25
5707.27
5707.32
5707.2
5707.21
5707.23
5707.25
5707.26
5707.26
5707.23
5707.35
5707.22
5707.23
5707.26
5707.29
5707.31
5707.17
5707.2
5707.37
5707.34
5707.38
5707.42
5707.46
5707.49
5707.52
5707.53
5707.83
5707.59
5707.36
5707.22
5707.16
5707.13
5707.12
5707.13
5707.58
5707.52
5707.31
5707.15
5707.07
5707.01
5706.68
5706.56
5707.7
5707.81
5707.65
5707.47
5707.32
5707.22
5707.15
5706.98
5707.86
5707.87
5707.71
5707.54
5707.4
5707.31
5707.25
5707.22
5708.44
5708.42
5708.16
5707.9
5707.7
5707.46
5707.15
5707.04
5708.64
5708.32
5707.91
5707.64
5707.48
5707.35
5707.12
5707.09
5709.07
5708.51
5708.07
5707.79
5707.63
5707.54
5707.5
5707.49
5691.94
5699.59
5703.17
5705.01
5705.99
5706.52
5706.82
5706.97
5692.51
5699.9
5703.35
5705.1
5706.02
5706.52
5706.6
5706.34
5693.49
5700.46
5703.73
5705.38
5706.26
5706.69
5706.52
5706.46
5694.29
5701.02
5704.14
5705.67
5706.44
5706.84
5707.02
5707.07
5694.09
5700.88
5704.05
5705.65
5706.34
5706.3
5706.55
5706.68
5693.6
5700.66
5703.91
5705.54
5706.36
5706.77
5707
5707.13
5693.58
5700.69
5703.97
5705.62
5706.48
5706.93
5707.17
5707.3
5707.32
5707.34
5707.34
5707.35
5707.34
5707.34
5707.34
5707.35
5707.3
5707.32
5707.33
5707.33
5707.33
5707.34
5707.34
5707.35
5707.3
5707.32
5707.33
5707.33
5707.33
5707.34
5707.34
5707.35
5707.31
5707.33
5707.34
5707.35
5707.35
5707.35
5707.35
5707.36
5707.34
5707.36
5707.37
5707.37
5707.37
5707.37
5707.37
5707.38
5707.38
5707.4
5707.4
5707.4
5707.4
5707.39
5707.4
5707.41
5707.4
5707.42
5707.42
5707.42
5707.41
5707.41
5707.41
5707.42
5707.28
5707.29
5707.3
5707.31
5707.31
5707.31
5707.3
5707.31
5707.28
5707.3
5707.31
5707.31
5707.31
5707.31
5707.31
5707.31
5707.29
5707.3
5707.31
5707.31
5707.31
5707.31
5707.31
5707.31
5707.3
5707.31
5707.32
5707.33
5707.33
5707.32
5707.32
5707.33
5707.31
5707.33
5707.34
5707.34
5707.34
5707.34
5707.33
5707.34
5707.33
5707.34
5707.35
5707.36
5707.35
5707.35
5707.35
5707.35
5707.31
5707.33
5707.34
5707.35
5707.35
5707.35
5707.35
5707.35
5707.32
5707.33
5707.34
5707.35
5707.35
5707.35
5707.36
5707.35
5707.34
5707.35
5707.35
5707.36
5707.36
5707.36
5707.36
5707.36
5707.34
5707.35
5707.36
5707.36
5707.36
5707.37
5707.36
5707.36
5707.35
5707.36
5707.37
5707.37
5707.38
5707.38
5707.38
5707.37
5707.35
5707.37
5707.38
5707.38
5707.39
5707.39
5707.39
5707.38
5707.36
5707.37
5707.38
5707.39
5707.4
5707.4
5707.4
5707.4
5707.32
5707.34
5707.36
5707.37
5707.38
5707.39
5707.39
5707.39
5707.28
5707.29
5707.3
5707.31
5707.32
5707.32
5707.32
5707.32
5707.29
5707.31
5707.32
5707.33
5707.33
5707.34
5707.34
5707.33
5707.29
5707.3
5707.32
5707.33
5707.33
5707.34
5707.34
5707.34
5707.3
5707.31
5707.33
5707.34
5707.35
5707.35
5707.35
5707.35
5707.3
5707.31
5707.33
5707.34
5707.35
5707.35
5707.35
5707.35
5707.29
5707.31
5707.33
5707.34
5707.35
5707.35
5707.36
5707.35
5707.25
5707.27
5707.29
5707.3
5707.31
5707.32
5707.32
5707.32
5707.12
5707.17
5707.2
5707.23
5707.24
5707.26
5707.26
5707.26
5707.12
5707.17
5707.21
5707.24
5707.26
5707.27
5707.27
5707.27
5707.11
5707.17
5707.21
5707.24
5707.25
5707.27
5707.27
5707.27
5707.12
5707.18
5707.22
5707.25
5707.26
5707.28
5707.28
5707.28
5707.12
5707.17
5707.21
5707.24
5707.26
5707.27
5707.28
5707.28
5707.12
5707.18
5707.22
5707.24
5707.26
5707.28
5707.28
5707.28
5707.09
5707.14
5707.18
5707.21
5707.23
5707.24
5707.25
5707.25
5707.8
5707.82
5707.83
5707.82
5707.81
5707.8
5707.78
5707.78
5707.53
5707.55
5707.58
5707.59
5707.59
5707.6
5707.6
5707.62
5707.35
5707.38
5707.4
5707.42
5707.44
5707.46
5707.47
5707.5
5707.53
5707.57
5707.6
5707.62
5707.65
5707.66
5707.67
5707.7
5707.25
5707.29
5707.31
5707.34
5707.36
5707.37
5707.39
5707.41
5707.39
5707.43
5707.45
5707.46
5707.46
5707.47
5707.47
5707.49
5707.62
5707.65
5707.65
5707.65
5707.64
5707.63
5707.62
5707.62
5707.56
5707.59
5707.6
5707.61
5707.62
5707.62
5707.62
5707.61
5707.35
5707.37
5707.45
5707.48
5707.49
5707.49
5707.48
5707.49
5707.28
5707.28
5707.3
5707.33
5707.35
5707.36
5707.37
5707.38
5707.45
5707.47
5707.48
5707.5
5707.52
5707.53
5707.54
5707.55
5707.14
5707.17
5707.22
5707.23
5707.25
5707.26
5707.27
5707.29
5707.15
5707.3
5707.35
5707.36
5707.37
5707.38
5707.38
5707.39
5707.44
5707.46
5707.48
5707.49
5707.49
5707.5
5707.49
5707.49
5707.55
5707.56
5707.57
5707.58
5707.58
5707.59
5707.59
5707.59
5707.31
5707.33
5707.37
5707.49
5707.49
5707.48
5707.47
5707.5
5707.25
5707.19
5707.25
5707.3
5707.3
5707.3
5707.28
5707.26
5707.41
5707.42
5707.43
5707.45
5707.46
5707.47
5707.47
5707.44
5706.91
5707.09
5707.17
5707.18
5707.18
5707.19
5707.16
5707.15
5707.01
5707.12
5707.34
5707.35
5707.36
5707.36
5707.38
5707.39
5707.44
5707.45
5707.46
5707.47
5707.48
5707.48
5707.49
5707.49
5707.49
5707.49
5707.49
5707.5
5707.5
5707.5
5707.5
5707.5
5707.19
5707.19
5707.3
5707.38
5707.35
5707.3
5707.28
5707.28
5707.3
5707.33
5707.34
5707.34
5707.32
5707.26
5707.2
5707.11
5707.33
5707.34
5707.35
5707.35
5707.35
5707.36
5707.35
5707.3
5707
5707.22
5707.21
5707.21
5707.2
5707.15
5707.08
5707.07
5706.84
5706.88
5707.26
5707.26
5707.24
5707.2
5707.17
5707.23
5707.4
5707.4
5707.41
5707.41
5707.42
5707.42
5707.42
5707.42
5707.36
5707.39
5707.41
5707.42
5707.43
5707.44
5707.44
5707.44
5707.13
5707.17
5707.25
5707.22
5707.18
5707.2
5707.2
5707.17
5706.68
5706.7
5707.33
5707.22
5707.21
5707.26
5707.1
5707.08
5707.23
5707.25
5707.26
5707.26
5707.25
5707.24
5707.24
5707.22
5706.23
5706.31
5707.16
5707.16
5706.97
5706.98
5706.98
5707
5706.65
5706.98
5707.11
5707.12
5707.14
5707.14
5707.12
5707.06
5707.26
5707.3
5707.32
5707.34
5707.36
5707.36
5707.37
5707.37
5707.62
5707.65
5707.66
5707.66
5707.65
5707.64
5707.63
5707.63
5707.42
5707.45
5707.47
5707.47
5707.47
5707.47
5707.46
5707.47
5707.26
5707.29
5707.31
5707.33
5707.34
5707.36
5707.36
5707.38
5707.2
5707.24
5707.27
5707.29
5707.31
5707.33
5707.34
5707.36
5707.08
5707.12
5707.15
5707.17
5707.19
5707.2
5707.22
5707.23
5707.26
5707.28
5707.3
5707.3
5707.3
5707.3
5707.3
5707.31
5707.34
5707.36
5707.37
5707.36
5707.36
5707.35
5707.35
5707.36
5707.48
5707.5
5707.52
5707.52
5707.53
5707.53
5707.53
5707.52
5707.31
5707.35
5707.37
5707.37
5707.38
5707.39
5707.4
5707.4
5707.29
5707.31
5707.33
5707.33
5707.34
5707.35
5707.35
5707.35
5707.15
5707.18
5707.2
5707.22
5707.23
5707.25
5707.26
5707.27
5707.08
5707.11
5707.12
5707.13
5707.14
5707.16
5707.17
5707.18
5707.19
5707.21
5707.23
5707.23
5707.23
5707.24
5707.25
5707.26
5707.27
5707.29
5707.3
5707.3
5707.31
5707.31
5707.3
5707.31
5707.51
5707.52
5707.53
5707.53
5707.54
5707.54
5707.54
5707.54
5707.34
5707.37
5707.38
5707.38
5707.36
5707.35
5707.35
5707.38
5707.22
5707.24
5707.43
5707.43
5707.4
5707.4
5707.4
5707.4
5707.22
5707.22
5707.23
5707.23
5707.23
5707.24
5707.26
5707.26
5707.17
5707.2
5707.2
5707.15
5707.12
5707.15
5707.2
5707.21
5707.24
5707.25
5707.26
5707.26
5707.24
5707.22
5707.26
5707.26
5707.32
5707.33
5707.34
5707.35
5707.35
5707.35
5707.35
5707.35
5707.46
5707.46
5707.47
5707.47
5707.47
5707.47
5707.47
5707.47
5707.37
5707.39
5707.39
5707.38
5707.37
5707.34
5707.3
5707.28
5707.32
5707.5
5707.49
5707.47
5707.32
5707.25
5707.24
5707.28
5707.38
5707.36
5707.35
5707.33
5707.32
5707.3
5707.29
5707.28
5707.23
5707.26
5707.26
5707.23
5707.13
5707.08
5707.07
5707.07
5707.24
5707.26
5707.26
5707.26
5707.26
5707.24
5707.2
5707.22
5707.29
5707.3
5707.3
5707.31
5707.31
5707.32
5707.32
5707.31
5707.3
5707.34
5707.37
5707.39
5707.4
5707.41
5707.41
5707.41
5707.29
5707.33
5707.35
5707.37
5707.37
5707.37
5707.37
5707.35
5707.36
5707.4
5707.42
5707.45
5707.46
5707.38
5707.26
5707.25
5707.25
5707.28
5707.29
5707.38
5707.36
5707.38
5707.37
5707.36
5707.19
5707.23
5707.25
5707.28
5707.29
5707.22
5707.1
5707.06
5707.14
5707.18
5707.21
5707.23
5707.24
5707.25
5707.23
5707.21
5707.13
5707.18
5707.21
5707.24
5707.25
5707.26
5707.26
5707.26
5707.35
5707.38
5707.39
5707.39
5707.39
5707.38
5707.38
5707.4
5707.11
5707.14
5707.17
5707.19
5707.2
5707.21
5707.23
5707.25
5707.09
5707.12
5707.16
5707.18
5707.2
5707.23
5707.24
5707.27
5707.41
5707.44
5707.48
5707.5
5707.52
5707.54
5707.54
5707.57
5707.3
5707.32
5707.34
5707.36
5707.37
5707.39
5707.4
5707.42
5707.5
5707.53
5707.56
5707.56
5707.56
5707.56
5707.57
5707.58
5707.78
5707.81
5707.82
5707.82
5707.8
5707.79
5707.77
5707.77
5707.23
5707.26
5707.28
5707.29
5707.3
5707.31
5707.31
5707.32
5707.04
5707.07
5707.1
5707.12
5707.14
5707.15
5707.16
5707.18
5707
5707.04
5707.06
5707.08
5707.1
5707.13
5707.14
5707.17
5707.33
5707.35
5707.37
5707.39
5707.4
5707.41
5707.43
5707.43
5707.23
5707.24
5707.27
5707.29
5707.3
5707.31
5707.31
5707.31
5707.35
5707.42
5707.45
5707.46
5707.46
5707.46
5707.46
5707.46
5707.56
5707.58
5707.6
5707.61
5707.61
5707.61
5707.61
5707.61
5707.23
5707.26
5707.28
5707.3
5707.31
5707.33
5707.33
5707.34
5706.89
5707.06
5707.09
5707.11
5707.11
5707.09
5707.13
5707.17
5706.91
5706.98
5706.99
5707.01
5707.02
5707.02
5707.03
5707.04
5707.28
5707.29
5707.31
5707.32
5707.33
5707.34
5707.34
5707.32
5707.2
5707.26
5707.29
5707.29
5707.29
5707.28
5707.25
5707.24
5707.35
5707.42
5707.44
5707.45
5707.45
5707.45
5707.44
5707.45
5707.55
5707.56
5707.57
5707.58
5707.58
5707.59
5707.59
5707.59
5707.18
5707.21
5707.23
5707.25
5707.26
5707.26
5707.27
5707.27
5706.59
5706.97
5707.02
5707.02
5706.97
5706.92
5706.93
5706.94
5706.82
5707.03
5707.08
5707.08
5707.08
5707.04
5707
5707
5707.21
5707.22
5707.23
5707.23
5707.24
5707.24
5707.24
5707.22
5707.3
5707.35
5707.38
5707.38
5707.37
5707.35
5707.32
5707.31
5707.32
5707.32
5707.32
5707.32
5707.32
5707.31
5707.3
5707.3
5707.49
5707.5
5707.5
5707.5
5707.51
5707.51
5707.51
5707.5
5707.04
5707.12
5707.15
5707.18
5707.2
5707.2