/*--------------------------------*- C++ -*----------------------------------*\
| =========                 |                                                 |
| \\      /  F ield         | OpenFOAM: The Open Source CFD Toolbox           |
|  \\    /   O peration     | Version:  plus.master.MPPICInterFoam            |
|   \\  /    A nd           | Web:      www.OpenFOAM.com                      |
|    \\/     M anipulation  |                                                 |
\*---------------------------------------------------------------------------*/
FoamFile
{
    version     2.0;
    format      ascii;
    class       volScalarField;
    location    "13";
    object      epsilon;
}
// * * * * * * * * * * * * * * * * * * * * * * * * * * * * * * * * * * * * * //

dimensions      [0 2 -3 0 0 0 0];

internalField   nonuniform List<scalar> 
11821
(
0.437013
0.579662
0.412086
0.65428
0.493982
0.358463
0.494905
0.543076
0.542372
0.495593
0.421484
0.338957
0.260847
0.689332
0.776233
0.774906
0.685177
0.56203
0.437629
0.328175
0.882189
0.946183
0.982308
0.90022
0.712936
0.535497
0.39029
0.943241
0.874808
0.923749
1.03301
0.837864
0.609049
0.433751
0.920025
0.839028
0.84725
1.04519
0.882054
0.631992
0.445872
0.923107
0.929183
0.966906
0.999347
0.808618
0.59323
0.422117
0.820468
0.892041
0.914881
0.832525
0.675735
0.508527
0.368251
0.506092
0.554358
0.552854
0.505497
0.430496
0.34783
0.270007
0.70961
0.77869
0.778091
0.695751
0.572538
0.446563
0.33701
0.826098
0.842615
0.886991
0.878932
0.723174
0.545371
0.398865
0.771677
0.826906
0.868845
0.915494
0.840887
0.6199
0.442118
0.740222
0.744758
0.80556
0.892607
0.871245
0.642961
0.45391
0.756943
0.740307
0.793088
0.914843
0.827683
0.607317
0.430436
0.807447
0.811393
0.825578
0.829977
0.692166
0.519184
0.376055
0.510695
0.561576
0.559755
0.511503
0.436527
0.354768
0.277693
0.717983
0.796514
0.788202
0.70053
0.576139
0.451733
0.343981
0.846814
0.899399
0.929958
0.888818
0.724758
0.549043
0.405088
0.809121
0.782279
0.841249
0.954837
0.843675
0.623107
0.447705
0.702466
0.697639
0.786988
0.893161
0.871632
0.64444
0.458657
0.806703
0.713586
0.798862
0.895868
0.825519
0.608327
0.435268
0.82064
0.824211
0.841778
0.828472
0.688322
0.520651
0.381474
0.506188
0.558879
0.557464
0.510408
0.437826
0.35827
0.282376
0.706662
0.795856
0.784367
0.694099
0.572945
0.452685
0.347489
0.878082
0.953909
0.983875
0.894556
0.717127
0.546559
0.406954
0.878859
0.787006
0.945056
1.01877
0.836054
0.617572
0.448228
0.783742
0.763074
0.82988
1.00821
0.86981
0.637484
0.458667
0.848552
0.785281
0.890194
0.949206
0.809481
0.599424
0.435239
0.816472
0.853903
0.878432
0.818482
0.672186
0.515922
0.383211
0.498565
0.549841
0.548914
0.503756
0.434309
0.357622
0.28348
0.690131
0.782449
0.772323
0.6826
0.564748
0.448884
0.3468
0.890642
1.00248
1.02779
0.895354
0.706094
0.538986
0.404009
0.915881
0.930487
1.06909
1.07133
0.825602
0.607279
0.443739
0.856038
0.724348
0.915259
1.08353
0.862957
0.627374
0.454257
0.878511
0.87206
0.964033
1.00159
0.794444
0.589734
0.431755
0.800044
0.898106
0.904432
0.81547
0.661658
0.510513
0.381974
0.492147
0.539366
0.537168
0.494227
0.428087
0.354258
0.282241
0.674472
0.758851
0.746659
0.662
0.551689
0.441695
0.343432
0.861879
0.989075
0.994742
0.860757
0.683857
0.527132
0.398342
0.922059
0.954185
1.05581
1.035
0.796349
0.591874
0.436519
0.903972
0.775328
0.962195
1.07014
0.836444
0.612721
0.447328
0.875027
0.865243
0.961611
0.977298
0.774713
0.578795
0.426473
0.776055
0.870313
0.884623
0.801282
0.65193
0.504369
0.378835
0.487115
0.530261
0.526778
0.485394
0.42166
0.350036
0.279966
0.665256
0.733918
0.720147
0.642651
0.539319
0.434086
0.339113
0.831655
0.90306
0.916844
0.817717
0.662324
0.515498
0.39206
0.842746
0.845949
0.979672
0.945105
0.763749
0.576729
0.428843
0.814081
0.778636
0.873223
0.957294
0.799879
0.597301
0.439595
0.814657
0.803947
0.876348
0.92437
0.754134
0.567728
0.42015
0.746533
0.795903
0.827536
0.776076
0.640602
0.496871
0.374363
0.482406
0.523738
0.519343
0.478565
0.415955
0.345729
0.277287
0.654372
0.717994
0.702784
0.628834
0.529236
0.427027
0.33476
0.790975
0.856457
0.876994
0.792218
0.646472
0.505625
0.38628
0.782624
0.848407
0.916378
0.904778
0.7418
0.564644
0.422212
0.685326
0.757189
0.861732
0.908477
0.775674
0.584642
0.432858
0.710155
0.743483
0.842754
0.873498
0.735077
0.556827
0.414262
0.724346
0.761823
0.795
0.756224
0.627054
0.488593
0.369901
0.476687
0.517569
0.512498
0.471653
0.409558
0.340512
0.273514
0.644954
0.709918
0.692321
0.618506
0.520063
0.419739
0.329459
0.788953
0.863502
0.872213
0.778986
0.634581
0.496523
0.379767
0.793189
0.808942
0.904931
0.899456
0.729001
0.554671
0.415138
0.700578
0.721112
0.872887
0.910941
0.7643
0.574696
0.425812
0.731887
0.719324
0.848501
0.868023
0.721383
0.547018
0.407734
0.714123
0.755308
0.790593
0.742166
0.614928
0.48041
0.364602
0.468569
0.508457
0.502961
0.462098
0.400928
0.333492
0.268387
0.633609
0.699379
0.681724
0.606738
0.508686
0.410256
0.322453
0.791087
0.871443
0.881498
0.77128
0.621919
0.485114
0.371222
0.79878
0.814067
0.948684
0.909613
0.717256
0.542393
0.405779
0.714343
0.7433
0.834944
0.931058
0.753674
0.562564
0.4165
0.720228
0.740787
0.865654
0.879539
0.710056
0.535658
0.399209
0.70909
0.76818
0.799652
0.73663
0.604558
0.470984
0.357636
0.458379
0.495632
0.4892
0.449327
0.39033
0.325363
0.262601
0.619035
0.680419
0.660834
0.58754
0.493276
0.39881
0.314493
0.775822
0.857475
0.858099
0.745595
0.60135
0.470291
0.361236
0.785062
0.839418
0.936977
0.882705
0.692648
0.525118
0.394462
0.740278
0.679863
0.853441
0.917919
0.729876
0.545189
0.405118
0.732846
0.740568
0.859302
0.862205
0.690257
0.520543
0.389006
0.684175
0.752051
0.787084
0.722409
0.590255
0.459266
0.349427
0.447559
0.481711
0.474839
0.436618
0.380017
0.31752
0.256935
0.601381
0.65428
0.635022
0.566769
0.477798
0.38778
0.306851
0.747034
0.81249
0.809228
0.711841
0.579156
0.455711
0.351681
0.75664
0.804762
0.905413
0.829254
0.663409
0.507569
0.38354
0.703811
0.745826
0.858174
0.853268
0.697953
0.526964
0.394014
0.710391
0.709081
0.823347
0.821602
0.664786
0.504593
0.378975
0.66406
0.717288
0.749695
0.69825
0.572147
0.446815
0.341266
0.438304
0.470763
0.463534
0.426272
0.371233
0.310467
0.251551
0.585861
0.635528
0.616263
0.550919
0.46541
0.378432
0.299915
0.722795
0.785772
0.778957
0.687764
0.562218
0.443952
0.343363
0.737563
0.814484
0.868792
0.7962
0.641819
0.493786
0.374276
0.646913
0.720195
0.830089
0.820473
0.673652
0.512448
0.384588
0.64776
0.692997
0.794383
0.789605
0.643063
0.491228
0.370238
0.640637
0.689999
0.723551
0.674695
0.555702
0.435917
0.333905
0.430289
0.461995
0.454545
0.417476
0.363166
0.303554
0.246089
0.573578
0.623921
0.605037
0.539958
0.455433
0.369854
0.293055
0.708741
0.779939
0.771639
0.676318
0.550965
0.434114
0.335427
0.725949
0.759957
0.844502
0.791367
0.630916
0.483433
0.365774
0.648577
0.690152
0.83911
0.820688
0.663939
0.502315
0.376117
0.63863
0.678517
0.790653
0.782213
0.631239
0.481244
0.362243
0.622554
0.681395
0.710207
0.661235
0.544433
0.426997
0.326918
0.422544
0.453414
0.445234
0.407942
0.354313
0.296088
0.240412
0.563995
0.615001
0.595181
0.529002
0.444684
0.360428
0.285726
0.698669
0.773658
0.765405
0.666337
0.539489
0.423319
0.326786
0.706719
0.753351
0.839902
0.786576
0.62014
0.472133
0.356418
0.632347
0.684984
0.778819
0.823371
0.654287
0.49136
0.366759
0.627154
0.669398
0.784677
0.777634
0.621827
0.470995
0.353505
0.615623
0.682315
0.715028
0.653546
0.535362
0.417963
0.319342
0.413889
0.442711
0.433464
0.396432
0.344426
0.28853
0.235125
0.554923
0.603144
0.580502
0.513448
0.431001
0.349972
0.278501
0.688651
0.759357
0.752586
0.64878
0.522558
0.410159
0.317748
0.689025
0.758126
0.840701
0.770038
0.601897
0.457288
0.346155
0.661505
0.637448
0.800986
0.808469
0.638038
0.476507
0.356256
0.632834
0.662871
0.774162
0.766703
0.607195
0.457601
0.343797
0.600687
0.670636
0.707901
0.643884
0.523059
0.406733
0.311125
0.0484429
0.0678926
0.141468
0.103408
0.0767412
0.0590476
0.0501489
0.0673033
0.299481
0.215693
0.15517
0.112089
0.0820373
0.0620873
0.0516598
0.0672162
0.307959
0.222794
0.160783
0.116316
0.0850779
0.0642184
0.0532109
0.0687226
0.291979
0.21538
0.158229
0.116249
0.0862074
0.0660049
0.0558567
0.0759913
0.261047
0.200383
0.151742
0.114327
0.0868474
0.0683103
0.0600047
0.0875525
0.191758
0.149382
0.116107
0.0905819
0.0717001
0.058941
0.0539603
0.0810703
0.236392
0.177331
0.133577
0.101304
0.0780147
0.0623599
0.0553125
0.079374
0.278984
0.205466
0.151647
0.11258
0.084758
0.0660897
0.0569179
0.0783435
0.309059
0.22589
0.165228
0.121357
0.0902127
0.0692785
0.0585412
0.07823
0.317353
0.232738
0.170737
0.125624
0.0934006
0.0716301
0.0603871
0.0803333
0.301761
0.225318
0.168082
0.125532
0.0946351
0.073665
0.06347
0.0887797
0.270626
0.209961
0.161226
0.123392
0.095297
0.0762222
0.068161
0.101977
0.201571
0.158721
0.124657
0.0982279
0.0785225
0.0652124
0.0603915
0.0924007
0.246274
0.187018
0.142512
0.109236
0.0849714
0.068598
0.06151
0.0899837
0.288532
0.215171
0.160788
0.120738
0.0918757
0.0723922
0.0630661
0.0885775
0.318166
0.235451
0.174444
0.129706
0.0975451
0.0757772
0.0648443
0.0885767
0.326187
0.242155
0.180008
0.134146
0.100976
0.0784236
0.0670805
0.0916412
0.310826
0.23482
0.177432
0.134203
0.102449
0.0807894
0.0706405
0.101216
0.279514
0.219204
0.170392
0.132065
0.103278
0.083676
0.0759064
0.116011
0.209794
0.166489
0.131762
0.104637
0.0843335
0.0706651
0.0661175
0.102624
0.254509
0.195019
0.149851
0.115798
0.0908277
0.0739746
0.0670093
0.0995396
0.296457
0.223182
0.168256
0.127437
0.0978315
0.0778095
0.0685094
0.0977984
0.325735
0.24341
0.182013
0.136555
0.103665
0.0813501
0.0704219
0.097838
0.333524
0.250145
0.187697
0.141177
0.107327
0.0842886
0.0730617
0.101939
0.318424
0.242943
0.185265
0.141428
0.109061
0.087001
0.0771073
0.112576
0.287312
0.227315
0.178266
0.13944
0.110152
0.090274
0.0829778
0.128905
0.215154
0.171863
0.136936
0.109536
0.0889775
0.0751972
0.0710442
0.111495
0.25938
0.200203
0.154963
0.120669
0.0954206
0.078393
0.0717078
0.107818
0.300517
0.227986
0.173211
0.132263
0.102429
0.0822265
0.0731532
0.105772
0.329142
0.247928
0.186876
0.141407
0.108356
0.0859004
0.0752052
0.105906
0.336816
0.254687
0.19265
0.146179
0.112235
0.0891328
0.0782712
0.11116
0.322011
0.247738
0.190438
0.14666
0.114251
0.0922079
0.0828184
0.122858
0.291709
0.23253
0.183724
0.144932
0.115644
0.0958884
0.0893146
0.140668
0.217662
0.174986
0.140376
0.113108
0.0925913
0.0788965
0.0752235
0.119195
0.260849
0.202766
0.158115
0.124085
0.098917
0.0819466
0.0756522
0.115
0.300673
0.229825
0.175999
0.135527
0.105872
0.0857548
0.0770431
0.112709
0.328386
0.249267
0.189434
0.144619
0.111861
0.089552
0.0792455
0.113043
0.336084
0.256045
0.195267
0.14952
0.11595
0.0930788
0.0827483
0.119491
0.321984
0.249526
0.193346
0.150261
0.118262
0.0965226
0.087793
0.132225
0.292855
0.234937
0.186986
0.148808
0.119963
0.100619
0.0949232
0.151524
0.21838
0.176642
0.14262
0.115688
0.0953604
0.0818495
0.0786764
0.125797
0.260297
0.203735
0.159997
0.126462
0.101536
0.0847348
0.078864
0.121113
0.298715
0.230008
0.177482
0.137725
0.10842
0.0885097
0.0802086
0.11864
0.325476
0.248925
0.190684
0.146769
0.114473
0.0924356
0.0825919
0.119396
0.33323
0.255725
0.196591
0.151816
0.118779
0.0962522
0.0865129
0.126927
0.320053
0.249706
0.194994
0.152846
0.121404
0.10006
0.0920256
0.140633
0.292064
0.235689
0.188963
0.151674
0.123429
0.104575
0.0997614
0.161389
0.218194
0.177399
0.143994
0.117447
0.0973707
0.0840931
0.0813961
0.131188
0.258935
0.20385
0.16101
0.128
0.103381
0.0868122
0.0813598
0.126045
0.296174
0.229466
0.178148
0.139091
0.110188
0.090554
0.082674
0.123459
0.322159
0.247993
0.191188
0.148116
0.116313
0.0946188
0.0852942
0.124993
0.32993
0.254859
0.197215
0.153333
0.120833
0.0986971
0.0895666
0.133322
0.31757
0.249311
0.195962
0.154671
0.123768
0.102842
0.0954928
0.147871
0.290499
0.23576
0.19026
0.15381
0.12613
0.107751
0.103761
0.1699
0.217225
0.177284
0.144504
0.118406
0.0986592
0.0856706
0.0834164
0.13527
0.256947
0.20312
0.161137
0.128707
0.104486
0.0882278
0.0831906
0.129763
0.293266
0.228159
0.177927
0.139604
0.111199
0.0919341
0.0844942
0.127152
0.318743
0.246406
0.190832
0.148601
0.117378
0.0961341
0.0873896
0.129711
0.326575
0.253384
0.196992
0.153971
0.122079
0.100427
0.0919359
0.138589
0.314831
0.248259
0.196075
0.155601
0.12529
0.104861
0.0982133
0.153835
0.28853
0.2352
0.190755
0.155075
0.127976
0.110117
0.106928
0.176876
0.215115
0.176157
0.144143
0.118623
0.0993114
0.0866774
0.0848475
0.138209
0.253747
0.201272
0.160307
0.12862
0.104929
0.089069
0.0844537
0.132428
0.28912
0.225654
0.176678
0.139274
0.111522
0.0927359
0.0857756
0.129969
0.314121
0.243567
0.189382
0.148187
0.117717
0.0970448
0.0889282
0.133519
0.322022
0.250619
0.195623
0.153659
0.122548
0.101503
0.0936896
0.14281
0.31083
0.245916
0.19502
0.155539
0.125988
0.106177
0.100262
0.158636
0.285379
0.233439
0.190117
0.155334
0.128955
0.111725
0.109353
0.182473
0.21195
0.17419
0.143095
0.118266
0.0994687
0.0872359
0.0858171
0.140298
0.249263
0.19846
0.158729
0.127928
0.104867
0.0894671
0.0852801
0.134328
0.283454
0.222045
0.174605
0.138303
0.111326
0.093106
0.0866969
0.132504
0.307771
0.239487
0.187026
0.147079
0.117492
0.0974719
0.0899995
0.136531
0.31569
0.246545
0.193287
0.152601
0.122409
0.10205
0.0949235
0.146148
0.30515
0.242274
0.192967
0.154689
0.126033
0.106917
0.101736
0.162462
0.280753
0.230447
0.188471
0.154767
0.129236
0.112708
0.111142
0.18695
0.208277
0.171774
0.141641
0.117542
0.0993043
0.0875343
0.0866448
0.142819
0.244195
0.195186
0.156739
0.126862
0.10447
0.0895733
0.0858586
0.136061
0.277055
0.217932
0.172107
0.136945
0.110779
0.0931649
0.0873378
0.134701
0.300503
0.234833
0.184212
0.145558
0.116885
0.097539
0.0906996
0.138886
0.308366
0.241846
0.190458
0.1511
0.121854
0.102198
0.0957372
0.148739
0.298553
0.237995
0.190396
0.153369
0.12563
0.107215
0.102729
0.165428
0.275319
0.226816
0.18628
0.1537
0.129034
0.113203
0.112381
0.190423
0.204526
0.169177
0.139958
0.116578
0.0989038
0.0876039
0.087228
0.144868
0.239184
0.1918
0.154549
0.125567
0.103851
0.0894851
0.0862931
0.137847
0.27084
0.213784
0.169438
0.13536
0.109995
0.0929915
0.0877337
0.136454
0.293477
0.230187
0.181242
0.1438
0.116017
0.0973425
0.0911144
0.140705
0.301251
0.237147
0.187462
0.14934
0.121007
0.102047
0.0962272
0.150712
0.292088
0.233672
0.18763
0.151763
0.1249
0.107171
0.103342
0.167659
0.269896
0.223069
0.18386
0.152323
0.128476
0.113312
0.11317
0.192997
0.200766
0.166472
0.138129
0.115453
0.0983383
0.0874986
0.087601
0.146467
0.234333
0.18836
0.15223
0.124124
0.10308
0.08924
0.0865468
0.139267
0.265019
0.209666
0.166661
0.133624
0.109051
0.0926513
0.0879346
0.137808
0.287034
0.22564
0.17817
0.141877
0.114969
0.09696
0.0913165
0.142093
0.294744
0.23255
0.184345
0.147384
0.119949
0.101683
0.0964804
0.152207
0.286074
0.229386
0.184702
0.14992
0.123918
0.106877
0.103683
0.169336
0.264705
0.21928
0.181241
0.150676
0.127625
0.113125
0.113632
0.194912
0.196883
0.163671
0.13622
0.114247
0.0976747
0.087268
0.087804
0.147701
0.229361
0.184811
0.149831
0.12261
0.102225
0.0888828
0.086646
0.140365
0.259126
0.205425
0.16379
0.131813
0.108022
0.092199
0.0879815
0.138851
0.28059
0.220951
0.174973
0.139855
0.113822
0.096457
0.0913579
0.143164
0.288257
0.227777
0.181055
0.145289
0.118766
0.101183
0.0965628
0.153375
0.280015
0.224883
0.181552
0.14789
0.122774
0.106423
0.103843
0.170662
0.259386
0.215246
0.178364
0.148795
0.126567
0.112741
0.113883
0.196462
0.192994
0.160939
0.134378
0.113069
0.0969837
0.0869531
0.0878624
0.148659
0.224271
0.181314
0.147523
0.121153
0.101364
0.0884559
0.0866133
0.14122
0.252959
0.201175
0.161004
0.130073
0.107003
0.0916858
0.0879006
0.139663
0.273732
0.216168
0.171827
0.137897
0.112688
0.0958953
0.0912692
0.144003
0.281279
0.222835
0.177766
0.143234
0.117585
0.100618
0.0965083
0.154315
0.273481
0.220164
0.178347
0.14586
0.121611
0.105895
0.103861
0.171766
0.253665
0.21098
0.175377
0.146859
0.125451
0.112259
0.113978
0.197816
0.189567
0.158577
0.132777
0.112003
0.0963035
0.0865706
0.0877845
0.149398
0.219657
0.178274
0.145534
0.11986
0.100543
0.0879772
0.086454
0.141858
0.247157
0.197414
0.158599
0.128548
0.106053
0.0911348
0.0876966
0.140254
0.267059
0.211845
0.169088
0.136189
0.111645
0.0953026
0.0910521
0.144609
0.274349
0.218288
0.174872
0.141438
0.116507
0.100025
0.0963169
0.155008
0.266977
0.215776
0.175494
0.144076
0.120551
0.105336
0.10373
0.172593
0.248008
0.206972
0.172676
0.145137
0.124431
0.111746
0.113915
0.198857
0.637179
0.509848
0.391727
0.296165
0.224149
0.176147
0.158672
0.253249
0.756132
0.60798
0.457978
0.337434
0.247575
0.187295
0.161159
0.244525
0.807079
0.657311
0.49027
0.355357
0.255541
0.188627
0.157359
0.229443
0.812266
0.630715
0.465874
0.336117
0.240681
0.176663
0.145922
0.20884
0.694014
0.531593
0.394115
0.286534
0.207419
0.154209
0.128885
0.185562
0.534431
0.408088
0.305099
0.225613
0.167151
0.127812
0.110203
0.164055
0.382398
0.296388
0.22667
0.17236
0.132036
0.105016
0.0947834
0.148837
0.650885
0.525561
0.403422
0.306127
0.233704
0.185827
0.169661
0.276422
0.738417
0.62893
0.473538
0.349391
0.25807
0.197287
0.17192
0.266873
0.765273
0.681388
0.509044
0.368849
0.266811
0.198909
0.167963
0.250871
0.764658
0.651305
0.482336
0.34876
0.251595
0.186634
0.156053
0.228832
0.704377
0.549268
0.406941
0.297139
0.217084
0.163269
0.138236
0.203738
0.550807
0.419679
0.314465
0.234371
0.175604
0.135969
0.118825
0.180696
0.39173
0.304175
0.234299
0.180039
0.13959
0.112434
0.102807
0.164397
0.654651
0.526307
0.406692
0.311798
0.240936
0.193993
0.179294
0.296155
0.753767
0.632994
0.477389
0.355215
0.265327
0.205297
0.181079
0.285123
0.777084
0.688147
0.5145
0.375669
0.274596
0.207043
0.176872
0.268067
0.789804
0.658613
0.488946
0.356309
0.259631
0.194697
0.164693
0.245192
0.714358
0.554835
0.413148
0.304383
0.224709
0.170908
0.146452
0.219204
0.556355
0.425018
0.320961
0.241578
0.182927
0.143229
0.126656
0.19549
0.397339
0.310426
0.241157
0.187054
0.146504
0.119265
0.110274
0.178635
0.641168
0.514197
0.403502
0.314
0.246006
0.200677
0.18783
0.313283
0.769188
0.615334
0.469714
0.355046
0.269125
0.211194
0.188927
0.300468
0.802355
0.67119
0.505092
0.37476
0.277942
0.212554
0.18428
0.282162
0.808696
0.645209
0.483087
0.356913
0.263502
0.200285
0.171953
0.258849
0.707692
0.546106
0.411571
0.30702
0.229393
0.176713
0.153603
0.232643
0.549202
0.423644
0.323654
0.246199
0.188395
0.149237
0.133706
0.208807
0.397928
0.313823
0.245956
0.192435
0.152148
0.125215
0.117177
0.191751
0.624774
0.504189
0.400872
0.315708
0.250094
0.206385
0.19566
0.329619
0.758657
0.597046
0.46165
0.353788
0.27159
0.216001
0.196187
0.315656
0.831327
0.65083
0.494543
0.37176
0.279331
0.216722
0.191091
0.296264
0.811287
0.627931
0.47442
0.354702
0.265162
0.204478
0.17859
0.272482
0.6946
0.535557
0.407562
0.3073
0.232228
0.181339
0.160167
0.24593
0.540365
0.420428
0.324227
0.248913
0.192401
0.15429
0.140233
0.221831
0.396262
0.31505
0.2488
0.196244
0.156673
0.130451
0.123677
0.204579
0.615516
0.502592
0.40202
0.318096
0.253639
0.211275
0.202729
0.34566
0.739261
0.587832
0.459917
0.354646
0.274233
0.220417
0.203026
0.331662
0.803474
0.637616
0.490273
0.371196
0.281182
0.220756
0.197701
0.311724
0.789554
0.617349
0.47015
0.353922
0.266933
0.208441
0.18497
0.287184
0.681144
0.529324
0.405479
0.307779
0.234749
0.185554
0.166346
0.259696
0.534222
0.418475
0.324585
0.250947
0.195779
0.15883
0.146328
0.234922
0.394608
0.315448
0.250655
0.199249
0.160612
0.135224
0.12978
0.217321
0.60868
0.504578
0.402751
0.31923
0.255947
0.215066
0.208673
0.360304
0.696909
0.589774
0.461108
0.355691
0.276451
0.224187
0.208939
0.346705
0.755321
0.63542
0.491426
0.372047
0.283369
0.22459
0.203619
0.32666
0.761343
0.61379
0.468985
0.35421
0.269063
0.212259
0.190711
0.301304
0.670375
0.526454
0.404476
0.308619
0.237262
0.189456
0.171869
0.272691
0.530726
0.417166
0.324909
0.252761
0.198878
0.162942
0.151791
0.247209
0.393045
0.315587
0.252222
0.201996
0.164211
0.139539
0.13528
0.229276
0.599257
0.498152
0.398807
0.317694
0.256611
0.21763
0.213353
0.372371
0.673638
0.581978
0.456612
0.353934
0.277083
0.226745
0.213493
0.358584
0.696526
0.627843
0.48657
0.37045
0.284297
0.22737
0.208209
0.338338
0.724311
0.603171
0.464447
0.353229
0.27044
0.215239
0.195277
0.312549
0.656234
0.520276
0.402197
0.308843
0.239211
0.192619
0.176383
0.283346
0.524999
0.414705
0.324694
0.254179
0.201431
0.166365
0.156381
0.257632
0.391167
0.315499
0.253524
0.204287
0.167215
0.143175
0.139973
0.239616
0.58494
0.484821
0.391052
0.314151
0.256041
0.219201
0.216992
0.382219
0.665069
0.565638
0.446091
0.349095
0.275923
0.227988
0.216809
0.367501
0.695134
0.609267
0.474619
0.365246
0.283133
0.228625
0.211428
0.346712
0.715254
0.588804
0.456166
0.349931
0.270149
0.216844
0.198575
0.320824
0.645424
0.511777
0.397959
0.307576
0.239864
0.194639
0.179824
0.291634
0.517985
0.410718
0.323225
0.254438
0.202914
0.168832
0.160057
0.266141
0.388144
0.314291
0.253704
0.205512
0.169263
0.145966
0.143841
0.248254
0.572363
0.472568
0.383884
0.310695
0.255105
0.220092
0.219736
0.390575
0.67105
0.549667
0.435947
0.343955
0.274051
0.228354
0.219228
0.37509
0.711073
0.589711
0.462968
0.359443
0.280896
0.228773
0.213691
0.353714
0.711425
0.575351
0.447641
0.345521
0.268522
0.21726
0.200918
0.327736
0.635909
0.503061
0.392634
0.304929
0.239213
0.195589
0.182405
0.298658
0.509764
0.405387
0.320304
0.253353
0.203268
0.17039
0.162959
0.273409
0.383297
0.311443
0.252471
0.20557
0.170363
0.147974
0.146986
0.255624
0.55948
0.464397
0.379034
0.307824
0.253815
0.220202
0.221437
0.397055
0.652846
0.537076
0.428956
0.339828
0.271954
0.228034
0.220806
0.381764
0.695275
0.579045
0.455495
0.354774
0.278405
0.22827
0.215257
0.360373
0.698246
0.566195
0.440779
0.341049
0.266217
0.216936
0.20257
0.334173
0.625084
0.494861
0.386958
0.301467
0.23774
0.195828
0.184324
0.304991
0.500534
0.399113
0.316346
0.251339
0.202861
0.171299
0.165224
0.279782
0.377062
0.307446
0.250296
0.204862
0.170813
0.149382
0.149496
0.26196
0.546275
0.458406
0.373795
0.3039
0.25141
0.21928
0.222038
0.401069
0.628757
0.528045
0.422987
0.335111
0.268999
0.226864
0.221431
0.386636
0.67656
0.568878
0.449819
0.349915
0.275368
0.227173
0.216061
0.365846
0.679093
0.555452
0.433213
0.335843
0.263373
0.216116
0.203555
0.339473
0.609669
0.485076
0.380196
0.297371
0.23584
0.195632
0.185636
0.310184
0.489511
0.391738
0.311755
0.248916
0.202082
0.171772
0.166896
0.28501
0.370124
0.303029
0.247798
0.203814
0.170866
0.150317
0.151404
0.267135
0.531606
0.447361
0.365366
0.298063
0.247844
0.217573
0.221907
0.403237
0.593192
0.515259
0.412898
0.328226
0.2649
0.224943
0.221251
0.389217
0.621746
0.555718
0.439465
0.34302
0.27144
0.225473
0.216067
0.368848
0.657838
0.541261
0.423377
0.329758
0.260147
0.214904
0.20387
0.342693
0.593595
0.473806
0.372909
0.293126
0.233783
0.195106
0.186351
0.313656
0.478765
0.384542
0.307298
0.246475
0.201097
0.17187
0.167997
0.28879
0.36385
0.298901
0.245307
0.202567
0.170582
0.150826
0.152763
0.271048
0.515231
0.432856
0.355386
0.291685
0.244078
0.215704
0.221548
0.404896
0.576814
0.497882
0.399966
0.320358
0.260451
0.222749
0.220673
0.390345
0.609457
0.535468
0.425032
0.334795
0.267031
0.223368
0.21551
0.369734
0.635794
0.523706
0.412298
0.32343
0.25674
0.21334
0.20365
0.344086
0.578389
0.462582
0.365876
0.288982
0.231535
0.194196
0.18656
0.315684
0.46913
0.377968
0.30307
0.243914
0.199778
0.171547
0.168627
0.291392
0.358032
0.294816
0.242589
0.200954
0.169891
0.150939
0.15372
0.274011
0.503873
0.421747
0.347874
0.286782
0.240997
0.213979
0.221056
0.406836
0.580762
0.483449
0.390337
0.314315
0.256733
0.220651
0.219941
0.391587
0.620714
0.519923
0.414561
0.328392
0.2631
0.221129
0.214681
0.370421
0.627267
0.512119
0.404335
0.318216
0.253393
0.211454
0.203103
0.345295
0.567388
0.454295
0.360064
0.284979
0.228952
0.192858
0.186433
0.317501
0.461461
0.372174
0.298802
0.240952
0.19799
0.170825
0.168967
0.293729
0.352295
0.290402
0.239397
0.198889
0.168831
0.150769
0.154467
0.276772
0.498376
0.417253
0.344163
0.28355
0.238361
0.212058
0.220051
0.408603
0.572227
0.479704
0.386357
0.310744
0.253703
0.218444
0.218833
0.393485
0.615712
0.517279
0.410872
0.324589
0.259753
0.21876
0.213625
0.372451
0.62013
0.509466
0.400275
0.314167
0.250066
0.209288
0.202311
0.347592
0.561331
0.449134
0.355202
0.280895
0.226046
0.191224
0.186102
0.320002
0.454653
0.366412
0.294107
0.237558
0.195907
0.169908
0.169172
0.296445
0.345955
0.285452
0.235858
0.196641
0.167671
0.150509
0.155105
0.279737
0.363174
0.279794
0.212054
0.159576
0.121051
0.0953545
0.0850131
0.131259
0.387872
0.28744
0.211308
0.154773
0.114113
0.0869402
0.0740863
0.106617
0.386695
0.281563
0.2036
0.146882
0.106677
0.0798482
0.0662725
0.0903431
0.35488
0.258054
0.186463
0.134595
0.0979102
0.0733697
0.0606456
0.0804292
0.30307
0.222408
0.162679
0.119183
0.0882
0.0673398
0.0566025
0.075206
0.245558
0.183584
0.137479
0.103428
0.078798
0.0621153
0.0540434
0.074682
0.191676
0.148971
0.11559
0.0900301
0.0711269
0.0583155
0.0531398
0.0790024
0.371259
0.287318
0.219842
0.167526
0.128767
0.102768
0.0928661
0.146177
0.396809
0.295748
0.21975
0.163113
0.121989
0.0942871
0.081576
0.119937
0.395748
0.290443
0.212571
0.155548
0.114676
0.087175
0.0735611
0.102682
0.364206
0.267534
0.19589
0.143464
0.10592
0.0806051
0.0677326
0.0920616
0.312763
0.232331
0.172273
0.127958
0.0959875
0.0743193
0.0634179
0.086307
0.255635
0.193563
0.146788
0.11175
0.0861434
0.0687065
0.0605394
0.0855813
0.201648
0.158442
0.124251
0.09778
0.0780383
0.0646494
0.0596055
0.0902609
0.377527
0.294247
0.227165
0.174809
0.135773
0.109582
0.100232
0.160018
0.404206
0.303606
0.227687
0.170719
0.129104
0.101042
0.0886426
0.132476
0.403386
0.298688
0.22082
0.163334
0.121849
0.0938758
0.0804096
0.114332
0.371961
0.275968
0.204238
0.15124
0.113006
0.0871504
0.0743352
0.103091
0.32091
0.2409
0.180513
0.135491
0.102786
0.0805604
0.0697021
0.0968839
0.264163
0.202005
0.154625
0.118831
0.0924964
0.074532
0.0664274
0.0956152
0.210043
0.166381
0.131527
0.104345
0.0839808
0.0702042
0.0653976
0.100443
0.379024
0.298147
0.232237
0.180351
0.141512
0.115574
0.10711
0.172965
0.406106
0.307841
0.233014
0.176434
0.13493
0.106986
0.0952255
0.144271
0.405577
0.303193
0.226345
0.169172
0.127706
0.09973
0.0867172
0.12524
0.374927
0.280888
0.209935
0.157086
0.118754
0.0927932
0.0803167
0.113315
0.325163
0.246354
0.186299
0.141211
0.108281
0.0858748
0.0753069
0.106577
0.26938
0.207691
0.1603
0.124267
0.097635
0.0794702
0.0716503
0.104792
0.215596
0.171969
0.136913
0.10944
0.0888006
0.0748923
0.0704686
0.109503
0.377434
0.29944
0.235194
0.184326
0.146197
0.120904
0.113606
0.185656
0.403499
0.308797
0.235975
0.180533
0.139703
0.11225
0.101364
0.155697
0.402927
0.304178
0.229399
0.173339
0.132449
0.104824
0.09248
0.135632
0.373396
0.282454
0.213228
0.161266
0.123344
0.0976042
0.0856635
0.122875
0.325469
0.24877
0.189855
0.145326
0.11262
0.090334
0.0802372
0.115505
0.271214
0.21075
0.163994
0.128239
0.101683
0.083572
0.0761862
0.113129
0.218333
0.175331
0.140581
0.113221
0.0925969
0.0787479
0.0747886
0.11743
0.375513
0.299794
0.237198
0.18756
0.150322
0.125767
0.119677
0.198144
0.399872
0.30864
0.23798
0.183885
0.143866
0.116976
0.106999
0.166712
0.398548
0.303779
0.231348
0.176626
0.136459
0.109273
0.0976451
0.145434
0.36996
0.282462
0.215265
0.164429
0.127086
0.101683
0.0903459
0.131706
0.323701
0.249493
0.19206
0.148355
0.11606
0.0940278
0.0844778
0.123622
0.270974
0.212149
0.166372
0.131148
0.104853
0.0869329
0.0800641
0.120706
0.219283
0.17722
0.143048
0.116005
0.09555
0.081863
0.0783845
0.124248
0.373871
0.300121
0.239058
0.190525
0.154049
0.130119
0.125111
0.209731
0.396901
0.308684
0.239855
0.18687
0.147516
0.121111
0.111973
0.176816
0.394854
0.303466
0.232978
0.179364
0.139817
0.113046
0.102112
0.154281
0.366725
0.282178
0.216696
0.16686
0.13007
0.105032
0.0943088
0.139548
0.321495
0.249517
0.193457
0.150549
0.118701
0.0969806
0.0880005
0.130757
0.269894
0.212655
0.167859
0.133203
0.10724
0.0895915
0.0832764
0.12729
0.219317
0.1782
0.144634
0.117962
0.0977446
0.0842786
0.081272
0.129903
0.372389
0.300329
0.240531
0.192911
0.157095
0.133748
0.129733
0.219723
0.394821
0.308705
0.241223
0.189127
0.150383
0.124481
0.116163
0.185525
0.392042
0.302997
0.233948
0.181263
0.14233
0.116032
0.105812
0.161844
0.363825
0.281403
0.21731
0.168385
0.132192
0.107602
0.0975276
0.146187
0.318994
0.24879
0.193942
0.151831
0.120507
0.0991917
0.0908125
0.136769
0.268175
0.212303
0.168428
0.134389
0.108854
0.0915722
0.0858444
0.132777
0.218555
0.178288
0.145341
0.119108
0.099215
0.0860412
0.0835081
0.134463
0.36951
0.299186
0.240741
0.194159
0.159152
0.136523
0.133537
0.228086
0.391446
0.307216
0.241167
0.190153
0.152226
0.126999
0.119568
0.19281
0.388063
0.301021
0.233497
0.18195
0.143848
0.118196
0.108762
0.168119
0.359656
0.279181
0.216598
0.168787
0.133391
0.109406
0.100041
0.151636
0.315187
0.246751
0.193247
0.152115
0.121488
0.100707
0.0929682
0.141611
0.265223
0.21077
0.167962
0.134704
0.109745
0.0929373
0.0878327
0.137294
0.216613
0.177328
0.145147
0.119496
0.100048
0.0872647
0.0852821
0.138586
0.36447
0.296249
0.239491
0.19424
0.160276
0.138523
0.136614
0.235178
0.385449
0.303666
0.239547
0.189995
0.153149
0.128762
0.12227
0.198912
0.381509
0.29704
0.231558
0.181524
0.144502
0.119647
0.111046
0.173304
0.353191
0.275227
0.214601
0.168214
0.133817
0.11056
0.101941
0.156086
0.309564
0.24333
0.191499
0.151573
0.121799
0.101652
0.094583
0.145513
0.260847
0.208145
0.166636
0.13432
0.110047
0.0937818
0.0893067
0.140992
0.213571
0.175494
0.144238
0.119284
0.100367
0.0880327
0.0866206
0.142075
0.35798
0.292189
0.237354
0.193595
0.160767
0.139923
0.139042
0.241164
0.37748
0.298854
0.237031
0.189127
0.153454
0.129942
0.124356
0.203986
0.372896
0.291849
0.228788
0.180436
0.144571
0.120551
0.112765
0.177564
0.345133
0.270314
0.211909
0.167059
0.133718
0.111223
0.103341
0.159716
0.302866
0.239187
0.189173
0.150522
0.121644
0.102166
0.0957685
0.148691
0.255751
0.204957
0.164814
0.133481
0.109922
0.0942159
0.0903477
0.144023
0.209989
0.173184
0.142892
0.118668
0.100313
0.0884479
0.0875893
0.144888
0.351233
0.287917
0.234968
0.192623