/*--------------------------------*- C++ -*----------------------------------*\
| =========                 |                                                 |
| \\      /  F ield         | OpenFOAM: The Open Source CFD Toolbox           |
|  \\    /   O peration     | Version:  plus.master.MPPICInterFoam            |
|   \\  /    A nd           | Web:      www.OpenFOAM.com                      |
|    \\/     M anipulation  |                                                 |
\*---------------------------------------------------------------------------*/
FoamFile
{
    version     2.0;
    format      ascii;
    class       volScalarField;
    location    "13";
    object      k;
}
// * * * * * * * * * * * * * * * * * * * * * * * * * * * * * * * * * * * * * //

dimensions      [0 2 -2 0 0 0 0];

internalField   nonuniform List<scalar> 
11821
(
0.0493188
0.0582127
0.0473955
0.0624064
0.0525126
0.0432594
0.0531305
0.0566975
0.0570594
0.054455
0.0497742
0.0439564
0.0376898
0.0652877
0.0706511
0.0709792
0.0662653
0.059141
0.051212
0.0432974
0.0767303
0.0800997
0.0822524
0.0784582
0.0682073
0.0576302
0.0479107
0.0812659
0.0766677
0.0787512
0.085221
0.0751138
0.0620188
0.0508355
0.0801224
0.0757892
0.074632
0.0855605
0.0773236
0.0631688
0.0514543
0.0802661
0.0806693
0.0821409
0.0836018
0.0731638
0.0605389
0.0495281
0.0720795
0.0771219
0.0784814
0.0739473
0.0649741
0.0548283
0.0452846
0.055055
0.0587354
0.0591632
0.056609
0.0519096
0.0460397
0.0396978
0.0671007
0.071662
0.0722484
0.0682432
0.0613828
0.0533935
0.0453803
0.072855
0.0748886
0.0777829
0.077924
0.070203
0.0598963
0.0500394
0.0697379
0.076669
0.0787609
0.079463
0.0763883
0.0643149
0.0529732
0.0683858
0.0712657
0.075303
0.077812
0.0776316
0.0654132
0.0535507
0.0668926
0.0683219
0.071544
0.0785841
0.0748341
0.0628969
0.0515763
0.0697425
0.0705102
0.0718428
0.073404
0.0669624
0.0569563
0.0472047
0.0568197
0.0607804
0.0612641
0.0586649
0.0539094
0.0479808
0.0415482
0.0691637
0.0743388
0.0746021
0.0703684
0.063417
0.0553816
0.0473073
0.0752236
0.0797249
0.0816701
0.0802821
0.0722129
0.0619264
0.0520193
0.0736981
0.0746513
0.0777631
0.0833785
0.0784844
0.0663999
0.0549671
0.0670511
0.0692325
0.0753766
0.0800269
0.0795635
0.0674132
0.0554885
0.0721375
0.0682731
0.0741771
0.0787501
0.0765609
0.0647854
0.0534547
0.0722825
0.0729684
0.0748151
0.0751552
0.0685722
0.0587197
0.0489996
0.0581242
0.0623393
0.0629057
0.0603215
0.0555574
0.0495899
0.0430648
0.070644
0.0764887
0.0766726
0.0721986
0.0651267
0.0570433
0.0488893
0.0792941
0.084309
0.0868547
0.0832914
0.0740764
0.063607
0.0536303
0.0795229
0.0750215
0.084695
0.0893002
0.080659
0.0680664
0.0565819
0.0748415
0.076254
0.0795559
0.0886252
0.0822078
0.0690393
0.0570806
0.0769631
0.0753523
0.081574
0.0846919
0.078413
0.0662069
0.0549741
0.0749577
0.0775328
0.0799743
0.077673
0.0699144
0.0601424
0.0504834
0.0590695
0.0633655
0.0639934
0.0614188
0.056673
0.0507159
0.0441485
0.0717903
0.0780914
0.078337
0.0735673
0.0662903
0.0581675
0.0499823
0.0835246
0.0900159
0.0926674
0.0863521
0.0755475
0.0647308
0.0547028
0.0843349
0.0861527
0.0946562
0.0958112
0.0826083
0.0692135
0.0576489
0.0806491
0.0729106
0.0850632
0.095979
0.0844782
0.070238
0.0581683
0.0820202
0.0826892
0.0883782
0.0915744
0.0800841
0.0673244
0.0560527
0.0776105
0.0840298
0.0851639
0.0804782
0.0712854
0.0612741
0.0515724
0.0597963
0.063972
0.06454
0.0620244
0.0573666
0.0514645
0.0449095
0.0723293
0.0783806
0.0784968
0.0738245
0.0667729
0.0588133
0.0507023
0.0839451
0.0916335
0.09297
0.0862398
0.0757456
0.0652401
0.0553677
0.0880049
0.0901213
0.0956742
0.0959305
0.0826489
0.0696356
0.0582847
0.0874883
0.0788211
0.0908541
0.0974108
0.0847352
0.0707357
0.0588382
0.0857421
0.0843293
0.0905908
0.0921332
0.0805844
0.0679568
0.0567778
0.0780868
0.0846212
0.0858977
0.0813106
0.0720831
0.0620436
0.0523413
0.0604217
0.0644529
0.0649622
0.0624976
0.0579083
0.0520387
0.0454933
0.0727422
0.0781522
0.0781839
0.0738315
0.0670905
0.0592872
0.0512406
0.0831702
0.0883862
0.0903144
0.0850445
0.0756504
0.0655716
0.055858
0.0843587
0.0848699
0.094452
0.0925389
0.0820458
0.0698361
0.0587414
0.0837013
0.0817882
0.0872688
0.0926987
0.0839167
0.0709351
0.059305
0.0830834
0.0828014
0.0870492
0.0903632
0.0804619
0.0683448
0.0572969
0.0759577
0.0800362
0.0826776
0.0802955
0.0723294
0.0625466
0.0529076
0.0610567
0.0650512
0.0655176
0.0630482
0.0584398
0.0525382
0.0459748
0.0730048
0.0782815
0.0782744
0.0741098
0.0674947
0.0597313
0.0517051
0.0809825
0.0868953
0.0890943
0.0847491
0.0758302
0.0659505
0.0563136
0.0806883
0.0880819
0.0923328
0.091511
0.0819564
0.0701593
0.0592003
0.0736545
0.0820617
0.0891911
0.0915691
0.0837382
0.071252
0.0597761
0.0740848
0.0795633
0.0863692
0.0881265
0.0804437
0.0687159
0.0577946
0.074274
0.0781644
0.081285
0.0800822
0.0725489
0.0629907
0.0534319
0.0616588
0.0656839
0.0661014
0.0635575
0.0588588
0.0528897
0.0462848
0.0736385
0.0790438
0.0788755
0.0746334
0.0679287
0.0600918
0.0520151
0.0822771
0.0884038
0.0900199
0.0852448
0.0762724
0.066333
0.0566396
0.0828478
0.0858109
0.092086
0.0924348
0.0824648
0.0705874
0.0595588
0.0769706
0.0802913
0.0916803
0.0930975
0.0844099
0.0717235
0.0601616
0.0776852
0.078755
0.0881684
0.0893236
0.080941
0.0691609
0.0581886
0.0750704
0.0790854
0.0826185
0.0806753
0.0730092
0.0634325
0.0538334
0.0620195
0.0660439
0.0664201
0.0637782
0.0589949
0.0529851
0.0463792
0.0741798
0.0796955
0.0795134
0.0750275
0.0681072
0.0601696
0.0520754
0.0842702
0.0904224
0.0923528
0.0863191
0.0766239
0.0664407
0.0566915
0.0849619
0.0870169
0.0963359
0.0948277
0.0830698
0.0707575
0.0596282
0.0794293
0.0839757
0.0883939
0.0956463
0.0851104
0.0719395
0.0602596
0.078517
0.0821115
0.0905407
0.0919083
0.081604
0.0693919
0.0583139
0.0770767
0.0821895
0.0853019
0.0819931
0.073518
0.0636671
0.0539903
0.0620718
0.065984
0.066271
0.0635988
0.0588362
0.0528718
0.0463234
0.074267
0.0796156
0.0792481
0.0746913
0.0678095
0.0599486
0.0519435
0.0847248
0.0910714
0.0923605
0.0858986
0.076202
0.0661231
0.0564972
0.0859026
0.0904699
0.0968652
0.0946064
0.0825752
0.0703845
0.0594047
0.0836479
0.0783178
0.0913299
0.0962853
0.0847415
0.0716018
0.0600561
0.0821306
0.0833889
0.0915533
0.0922335
0.0814095
0.0691597
0.0581688
0.0770359
0.0826003
0.0858471
0.0822604
0.0734875
0.0635541
0.0539225
0.0619332
0.0656968
0.065933
0.0632919
0.0585892
0.0526936
0.0462094
0.0738725
0.0788363
0.0784534
0.0740637
0.0673598
0.0596466
0.0517535
0.0838148
0.089636
0.0906655
0.0847422
0.0754862
0.0656858
0.0562379
0.0851063
0.0897124
0.0975869
0.092657
0.0815851
0.0698418
0.0591039
0.0824114
0.0870984
0.0944727
0.0938398
0.0836518
0.0710521
0.0597657
0.0818392
0.0825966
0.0908043
0.0907842
0.0806051
0.0687175
0.0579352
0.0763014
0.0809613
0.0840095
0.0813944
0.072971
0.0632566
0.053771
0.0618522
0.0655387
0.0657194
0.0630737
0.0583881
0.0525192
0.046068
0.0735691
0.0784211
0.0779624
0.0736429
0.0670372
0.0594014
0.0515633
0.0831462
0.0892429
0.0897248
0.0839829
0.0749915
0.0653659
0.0560109
0.0847421
0.0927894
0.0966217
0.0915291
0.0809089
0.0694601
0.0588588
0.077823
0.0857921
0.0938281
0.0928404
0.0828618
0.0706573
0.0595326
0.0768147
0.0824911
0.0900186
0.0896922
0.0799256
0.0683758
0.057739
0.0744999
0.0797804
0.0831705
0.080611
0.0725165
0.0630152
0.0536304
0.0618137
0.0654644
0.0656007
0.0629047
0.0581804
0.0522978
0.0458668
0.0734447
0.0783372
0.0778631
0.0734834
0.0668239
0.0591537
0.0513211
0.0830292
0.0894466
0.0899389
0.0839333
0.074821
0.0651239
0.0557527
0.0845978
0.0884785
0.0952563
0.0919871
0.0808714
0.0692592
0.0586097
0.0794105
0.0839917
0.0960731
0.0939443
0.0830066
0.0705175
0.0593111
0.0770289
0.0821757
0.0908102
0.0902634
0.0799098
0.0682325
0.0575427
0.0741036
0.0801348
0.0831945
0.0806601
0.0724334
0.0628798
0.0534646
0.0617144
0.0653256
0.0653796
0.0625982
0.0578302
0.0519579
0.0455867
0.0734433
0.0783857
0.0777968
0.0732451
0.0664668
0.0587559
0.0509677
0.0833229
0.0897505
0.0901952
0.0839202
0.0745474
0.06472
0.0553574
0.0842229
0.0886161
0.0950005
0.0923248
0.0807401
0.0688914
0.0582069
0.0786369
0.0846838
0.0902673
0.0945016
0.0829579
0.070202
0.0589287
0.0772988
0.0821948
0.0907665
0.0906947
0.0799226
0.0679603
0.0571974
0.0751985
0.0815574
0.0848384
0.0809572
0.0723995
0.0626342
0.0531669
0.061426
0.0649108
0.0648611
0.0620332
0.057308
0.0515431
0.0452964
0.0733339
0.0781038
0.0772687
0.0725394
0.0657673
0.0581831
0.050561
0.0834739
0.0894992
0.0900592
0.0832636
0.0737362
0.0640195
0.0548509
0.0842362
0.0899505
0.0961228
0.0918775
0.0799426
0.0681321
0.0576414
0.0832369
0.0805229
0.0934613
0.0941439
0.0823543
0.0694736
0.0583615
0.0797164
0.0825642
0.0908753
0.0907234
0.0793957
0.0673172
0.0566803
0.0751378
0.0815433
0.0850281
0.0808742
0.071924
0.0620882
0.0527323
0.00872215
0.00355127
0.0252102
0.0205535
0.0165127
0.0128691
0.00918996
0.00368612
0.0395119
0.0324856
0.0265584
0.0215297
0.0172025
0.0133385
0.0094849
0.00373617
0.0399956
0.0329344
0.0269446
0.0218436
0.0174427
0.0135125
0.00960304
0.00373812
0.0385182
0.0320244
0.0264127
0.0215456
0.017287
0.0134459
0.00959775
0.00382835
0.0356854
0.0302929
0.0253413
0.0208831
0.0168912
0.0132298
0.00950268
0.0039189
0.0313845
0.0269134
0.0228353
0.0191277
0.015725
0.012487
0.00903694
0.00372351
0.0356695
0.03001
0.0251133
0.0208113
0.0169619
0.0133811
0.00964925
0.00394172
0.0393068
0.0327588
0.0271547
0.0223065
0.0180358
0.014128
0.0101295
0.00407931
0.0416147
0.0345289
0.0284889
0.0232896
0.01874
0.0146125
0.010437
0.00413407
0.042057
0.034929
0.0288401
0.023583
0.0189726
0.0147879
0.0105601
0.00414757
0.0405405
0.0339589
0.0282457
0.0232334
0.0187815
0.0147019
0.0105475
0.00424592
0.0376062
0.0321204
0.0270693
0.0224801
0.0183193
0.0144431
0.0104302
0.00433731
0.0333354
0.0287374
0.0245006
0.0206101
0.0170084
0.013554
0.00984298
0.00406359
0.0377039
0.0319241
0.0268628
0.0223639
0.0182981
0.0144831
0.0104744
0.00428625
0.0413707
0.0347173
0.028955
0.0239057
0.0194089
0.0152555
0.0109692
0.00442765
0.0436694
0.0364919
0.0303055
0.0249129
0.0201381
0.0157617
0.0112913
0.00449121
0.0440747
0.0368623
0.0306437
0.0252059
0.0203787
0.0159489
0.0114267
0.00452894
0.0425139
0.0358466
0.0300115
0.0248311
0.020175
0.0158599
0.0114163
0.00463556
0.039478
0.0339122
0.0287529
0.0240183
0.0196728
0.0155777
0.0112885
0.00472893
0.0350913
0.0303516
0.025955
0.0218952
0.018118
0.0144761
0.0105383
0.00435824
0.0395551
0.0336267
0.0283907
0.0237055
0.0194481
0.0154317
0.0111846
0.00458485
0.0432755
0.0364771
0.0305346
0.0252894
0.0205907
0.016226
0.011691
0.00473053
0.0455903
0.038278
0.0319149
0.0263242
0.0213438
0.016751
0.0120261
0.00480071
0.045973
0.0386447
0.032257
0.0266266
0.0215973
0.0169535
0.012177
0.00486392
0.0443775
0.0375972
0.0316026
0.02624
0.0213906
0.0168684
0.0121744
0.00497812
0.0412605
0.0355887
0.0302886
0.0253902
0.0208668
0.0165749
0.0120429
0.00507539
0.0365051
0.0316533
0.0271346
0.0229475
0.0190366
0.015247
0.0111229
0.00460561
0.0410346
0.0349835
0.0296155
0.0247937
0.0203941
0.016222
0.0117811
0.00483539
0.0447881
0.0378664
0.0317883
0.0264025
0.0215577
0.0170321
0.0122973
0.00498396
0.0471161
0.0396856
0.0331876
0.0274563
0.0223292
0.0175743
0.0126457
0.00506059
0.047495
0.0400569
0.0335383
0.0277711
0.0225985
0.0177951
0.0128148
0.00515254
0.0458681
0.0389923
0.0328757
0.027383
0.0223971
0.0177203
0.0128248
0.00527639
0.0427097
0.03695
0.0315367
0.0265162
0.0218629
0.0174225
0.0126944
0.00537917
0.0375515
0.0326449
0.0280583
0.0237924
0.0197898
0.0158895
0.0116161
0.00481388
0.0420945
0.0359917
0.0305582
0.0256577
0.021164
0.0168767
0.0122812
0.00504636
0.0458362
0.0388738
0.0327381
0.0272788
0.0223413
0.0176991
0.0128061
0.00519807
0.0481582
0.0406936
0.0341444
0.0283451
0.0231294
0.0182591
0.0131694
0.00528385
0.0485481
0.0410738
0.0345056
0.0286742
0.0234175
0.0185013
0.0133594
0.00540518
0.0469264
0.0400141
0.0338484
0.0282946
0.0232289
0.0184427
0.0133859
0.0055394
0.0437684
0.0379672
0.0325016
0.0274213
0.0226923
0.0181479
0.0132628
0.00565024
0.0383369
0.033414
0.028794
0.0244785
0.0204096
0.0164232
0.0120293
0.00498907
0.0428617
0.0367593
0.0313019
0.0263554
0.0217945
0.0174177
0.0126975
0.00522266
0.0465694
0.0396279
0.0334824
0.0279849
0.0229831
0.018251
0.0132303
0.00537782
0.0488724
0.0414419
0.0348941
0.0290645
0.0237891
0.0188298
0.0136097
0.0054791
0.0492773
0.041834
0.0352704
0.0294131
0.0241004
0.0190965
0.0138224
0.005626
0.0476879
0.0407935
0.0346288
0.0290511
0.0239323
0.0190595
0.0138681
0.0057705
0.0445483
0.0387508
0.0332808
0.0281792
0.0234022
0.0187755
0.0137575
0.00589137
0.0389661
0.0340337
0.0293875
0.0250317
0.0209095
0.0168547
0.0123645
0.00513071
0.0434748
0.0373789
0.031902
0.0269167
0.0223012
0.0178533
0.0130335
0.00536361
0.0471589
0.0402427
0.0340874
0.0285554
0.0235002
0.0186961
0.0135733
0.00552253
0.0494501
0.0420609
0.0355122
0.0296529
0.024326
0.0192942
0.0139696
0.00564912
0.0498687
0.0424715
0.0359111
0.0300269
0.0246635
0.019586
0.014204
0.00581342
0.0483136
0.0414552
0.0352927
0.0296896
0.0245204
0.0195723
0.0142687
0.00596691
0.0451879
0.039415
0.0339497
0.0288277
0.0240044
0.0193038
0.0141719
0.00609691
0.0394613
0.0345108
0.02984
0.0254531
0.0212921
0.017187
0.0126238
0.00523714
0.0439684
0.037859
0.0323583
0.0273414
0.0226861
0.0181866
0.0132922
0.0054691
0.0476516
0.0407266
0.0345494
0.028987
0.0238929
0.019037
0.0138382
0.00563265
0.0499536
0.0425611
0.0359918
0.0301027
0.0247369
0.0196531
0.0142516
0.00579087
0.0503941
0.0429979
0.0364176
0.030503
0.0250992
0.0199672
0.014504
0.00596605
0.0488655
0.0420071
0.0358262
0.0301923
0.0249808
0.0199751
0.0145855
0.00612687
0.0457458
0.0399756
0.0344969
0.0293471
0.0244817
0.0197217
0.0145004
0.00626347
0.0397787
0.0348232
0.0301454
0.0257469
0.0215669
0.0174313
0.012817
0.00531288
0.0442785
0.0381625
0.0326562
0.0276298
0.0229572
0.0184281
0.0134829
0.00554387
0.0479623
0.0410274
0.0348452
0.0292758
0.0241671
0.0192834
0.0140339
0.00571572
0.0502822
0.0428753
0.0362994
0.0304038
0.0250248
0.0199145
0.0144628
0.00590375
0.0507485
0.0433373
0.0367488
0.0308262
0.0254077
0.0202471
0.0147301
0.00608665
0.0492445
0.0423748
0.0361848
0.0305403
0.0253112
0.0202737
0.0148262
0.00625378
0.0461374
0.0403627
0.0348761
0.0297141
0.0248283
0.0200335
0.014751
0.00639502
0.0399169
0.0349856
0.0303251
0.0259356
0.0217544
0.0176046
0.012957
0.00536604
0.0443819
0.0382981
0.0328173
0.0278063
0.0231368
0.0185966
0.01362
0.0055965
0.0480423
0.0411428
0.034993
0.029446
0.0243459
0.0194549
0.0141765
0.00578964
0.0503624
0.0429896
0.0364489
0.0305795
0.0252125
0.0200968
0.0146166
0.00599194
0.0508506
0.0434708
0.036916
0.0310189
0.0256119
0.0204447
0.0148961
0.00618078
0.0493806
0.0425395
0.0363784
0.0307555
0.0255349
0.0204879
0.0150051
0.00635351
0.0463075
0.0405576
0.0350937
0.0299479
0.0250669
0.0202598
0.0149394
0.00649869
0.0399369
0.0350472
0.0304177
0.0260489
0.0218778
0.0177266
0.0130622
0.00542996
0.0443484
0.0383244
0.0328865
0.027904
0.0232496
0.0187106
0.0137179
0.00564431
0.0479616
0.0411377
0.0350432
0.0295337
0.0244553
0.0195702
0.0142791
0.00585318
0.05026
0.0429725
0.0364947
0.0306685
0.0253268
0.0202189
0.0147257
0.00606033
0.0507632
0.0434676
0.0369757
0.031122
0.0257399
0.0205789
0.0150145
0.00625328
0.0493363
0.0425687
0.036464
0.0308799
0.0256808
0.0206367
0.0151341
0.00643028
0.0463157
0.0406226
0.0352044
0.0300914
0.0252279
0.0204204
0.015077
0.00657861
0.0398957
0.0350467
0.0304502
0.0261065
0.021952
0.0178077
0.0131374
0.00548154
0.0442566
0.0382898
0.032895
0.0279446
0.0233123
0.0187842
0.0137881
0.00569344
0.0478242
0.0410737
0.0350327
0.0295629
0.024512
0.0196416
0.0143493
0.00590363
0.0500996
0.0428969
0.0364793
0.030697
0.0253857
0.0202939
0.0147996
0.00611292
0.0506148
0.043405
0.0369731
0.0311624
0.0258093
0.0206627
0.015095
0.00630827
0.0492299
0.0425377
0.0364866
0.0309406
0.025766
0.0207321
0.0152218
0.00648777
0.0462596
0.0406254
0.0352519
0.0301712
0.0253274
0.0205258
0.0151707
0.00663769
0.0398094
0.0349972
0.0304349
0.0261205
0.0219882
0.0178573
0.0131889
0.00552167
0.0441298
0.0382079
0.0328546
0.0279404
0.0233363
0.0188261
0.0138347
0.00573235
0.047667
0.0409669
0.034973
0.0295452
0.0245279
0.0196796
0.0143945
0.00594245
0.0499313
0.0427825
0.036414
0.0306759
0.0254005
0.0203327
0.0148467
0.00615285
0.0504607
0.0433037
0.0369184
0.0311495
0.0258308
0.0207072
0.0151466
0.00634967
0.0491091
0.0424644
0.0364541
0.0309443
0.0257992
0.0207844
0.0152782
0.00653067
0.0461759
0.0405817
0.035243
0.0301923
0.025372
0.0205843
0.0152295
0.00668119
0.0396662
0.0348999
0.0303807
0.0261027
0.021998
0.0178848
0.013223
0.00555242
0.0439406
0.0380719
0.0327714
0.0279027
0.0233334
0.0188456
0.0138637
0.0057622
0.0474479
0.040801
0.0348655
0.0294906
0.0245148
0.019694
0.0144216
0.00597211
0.0497044
0.0426045
0.036295
0.0306132
0.0253833
0.0203464
0.014875
0.00618336
0.0502494
0.0431348
0.0368041
0.0310897
0.0258165
0.0207245
0.0151786
0.0063816
0.0489276
0.0423206
0.0363577
0.0308961
0.0257926
0.0208073
0.0153143
0.00656402
0.0460275
0.0404676
0.0351684
0.030158
0.0253729
0.0206102
0.0152659
0.00671557
0.0394771
0.0347754
0.0303091
0.0260715
0.0219951
0.0178993
0.0132449
0.00557626
0.0436856
0.0379
0.0326686
0.0278519
0.0233182
0.0188524
0.0138807
0.00578542
0.0471414
0.0405866
0.0347331
0.0294215
0.0244895
0.0196959
0.0144368
0.00599522
0.0493729
0.0423652
0.0361439
0.0305328
0.0253531
0.0203477
0.0148915
0.00620723
0.0499238
0.0428949
0.0366505
0.0310082
0.0257877
0.0207291
0.015199
0.00640713
0.0486338
0.0421018
0.0362162
0.0308218
0.0257693
0.0208172
0.0153398
0.00659155
0.0457783
0.0402802
0.0350452
0.0300931
0.0253541
0.0206224
0.0152924
0.00674524
0.0393032
0.0346681
0.0302491
0.0260433
0.0219872
0.0179035
0.0132555
0.00559519
0.0434357
0.0377479
0.0325825
0.0278081
0.0233003
0.0188496
0.0138862
0.00580332
0.0468184
0.0403879
0.03462
0.0293631
0.0244641
0.0196896
0.0144408
0.00601262
0.0490007
0.042133
0.0360112
0.030465
0.0253247
0.0203416
0.0148968
0.00622511
0.0495419
0.042653
0.0365121
0.0309393
0.0257618
0.0207275
0.0152088
0.00642669
0.0482829
0.041875
0.0360855
0.0307589
0.02575
0.0208227
0.0153562
0.00661299
0.0454811
0.0400808
0.0349276
0.0300374
0.0253405
0.0206333
0.0153131
0.00676905
0.0610118
0.0528282
0.0445317
0.0368238
0.0298267
0.0234479
0.0170996
0.00794358
0.0688242
0.0591936
0.0493283
0.0403044
0.0322577
0.02508
0.0181475
0.00832752
0.0722762
0.0624139
0.0516256
0.0418177
0.0331702
0.02557
0.0183701
0.0083301
0.0724585
0.0609715
0.0501934
0.0405596
0.0321108
0.0247051
0.0177014
0.00793857
0.0653218
0.0549628
0.0454316
0.0368697
0.0293341
0.0226692
0.0162749
0.00723632
0.0554831
0.0468495
0.038935
0.0318583
0.0255857
0.019946
0.0143966
0.00638843
0.0452582
0.0386061
0.0324496
0.0268675
0.0218342
0.0172014
0.0124968
0.0055782
0.0620188
0.054613
0.0461909
0.0383155
0.0311661
0.0246138
0.0180214
0.00842807
0.0664767
0.0609178
0.0511886
0.0419658
0.0337208
0.0263337
0.0191258
0.00883873
0.0684221
0.0640116
0.0536532
0.0436035
0.0347252
0.0268892
0.0193885
0.00885361
0.0684875
0.0626371
0.0521455
0.0423119
0.0336538
0.0260146
0.018706
0.00844883
0.0660053
0.0569422
0.0472568
0.0384949
0.0307761
0.0238964
0.0172168
0.00770998
0.0574731
0.0486722
0.0405536
0.0333278
0.0269058
0.0210757
0.0152669
0.00681883
0.047008
0.0401778
0.033902
0.028212
0.023046
0.01824
0.0132969
0.00596418
0.0636933
0.0559449
0.0474637
0.0395439
0.032311
0.0256153
0.0188019
0.00883652
0.0689769
0.0626269
0.052636
0.0433071
0.0349454
0.0273866
0.0199319
0.00925372
0.0704445
0.0659013
0.0552626
0.0450667
0.0360375
0.0279972
0.0202222
0.00927291
0.0714604
0.0645351
0.0538031
0.0438185
0.0349898
0.0271305
0.0195407
0.00886411
0.0680435
0.0586633
0.0488207
0.039933
0.0320522
0.0249651
0.0180197
0.0081078
0.05925
0.0502639
0.0420379
0.0346932
0.0281154
0.0220913
0.0160332
0.00719431
0.0486434
0.0416931
0.0353128
0.0294967
0.0241802
0.0191923
0.0140167
0.0063095
0.0650648
0.0567026
0.0483382
0.0404815
0.0332265
0.0264326
0.0194452
0.00917827
0.0726366
0.0635787
0.0534822
0.0442191
0.0358446
0.0281914
0.020564
0.0095872
0.0742863
0.0671601
0.0561408
0.0460111
0.0369569
0.0288102
0.0208552
0.00960044
0.0750166
0.0657831
0.0548252
0.0448414
0.0359494
0.027965
0.0201868
0.00919472
0.0699303
0.0597628
0.0499167
0.041005
0.0330366
0.025812
0.0186726
0.00843859
0.0605009
0.0514665
0.043232
0.0358141
0.0291183
0.0229438
0.016686
0.00751927
0.0499668
0.0429787
0.0365242
0.0306007
0.0251558
0.0200179
0.0146476
0.00661591
0.0661313
0.057381
0.0490783
0.0412653
0.0339934
0.0271291
0.0200099
0.00948985
0.07536
0.0642754
0.054092
0.0448986
0.036544
0.0288521
0.0211161
0.0098984
0.0800068
0.068076
0.0567393
0.0466451
0.0376189
0.0294495
0.0213996
0.00990648
0.0786178
0.0666339
0.0554712
0.0455169
0.0366408
0.0286257
0.0207453
0.00950425
0.0714706
0.06057
0.0506892
0.0417877
0.0337969
0.0265142
0.0192501
0.00874894
0.0614842
0.0523975
0.0441586
0.0367051
0.0299447
0.0236785
0.0172732
0.0078235
0.0509982
0.043999
0.037502
0.0315141
0.0259901
0.0207497
0.0152249
0.00690391
0.0667531
0.0581046
0.049837
0.0419915
0.0346775
0.0277544
0.0205299
0.00978885
0.0761342
0.0647045
0.0547061
0.0455507
0.0371948
0.0294779
0.0216581
0.0102194
0.0806701
0.0685238
0.057273
0.0472443
0.0382431
0.0300734
0.0219536
0.0102347
0.0793116
0.0671944
0.0560462
0.04613
0.0372791
0.0292632
0.0213066
0.00983101
0.0721545
0.0612297
0.0513769
0.0424815
0.0344938
0.0271801
0.0198139
0.00906387
0.0622527
0.0532014
0.0449533
0.0374816
0.0306911
0.024364
0.0178343
0.00812262
0.051844
0.0448458
0.0383321
0.0323181
0.0267512
0.0214343
0.0157742
0.00718357
0.0663132
0.0587041
0.05045
0.0425875
0.0352558
0.0282977
0.0209888
0.0100621
0.0728655
0.0648823
0.0552725
0.0461582
0.0378114
0.030073
0.0221686
0.0105258
0.0775522
0.0683119
0.0578353
0.0478673
0.0388917
0.0307095
0.0225015
0.0105585
0.077748
0.0673192
0.0565752
0.0467545
0.0379422
0.0299118
0.0218583
0.0101502
0.0720392
0.0617502
0.0520167
0.0431657
0.0351848
0.0278314
0.0203517
0.00936358
0.0628861
0.0539219
0.0456902
0.0382169
0.0314056
0.0250147
0.0183586
0.00840306
0.0525832
0.0456122
0.0391034
0.0330786
0.0274703
0.0220748
0.0162824
0.00744424
0.0662295
0.0589498
0.0508115
0.0430052
0.0356998
0.0287311
0.0213573
0.0102883
0.0711103
0.0649807
0.0556485
0.0466316
0.0383209
0.0305654
0.0225796
0.0107723
0.072689
0.0683307
0.0582188
0.0483969
0.0394667
0.0312583
0.0229507
0.0108185
0.0753316
0.0672936
0.0570154
0.047341
0.0385596
0.030486
0.0223189
0.0104098
0.071827
0.0621685
0.0526202
0.0438202
0.0358263
0.0284075
0.0208052
0.00961189
0.0634177
0.0545843
0.0463909
0.0389113
0.0320572
0.0255876
0.0188061
0.00864123
0.0532974
0.0463475
0.0398335
0.0337769
0.0281123
0.0226338
0.0167179
0.00766871
0.0664687
0.0589809
0.0509726
0.0432686
0.0360189
0.0290577
0.0216391
0.0104697
0.0719254
0.0651337
0.0558078
0.046917
0.0386674
0.0309118
0.0228691
0.0109537
0.074282
0.0684616
0.058371
0.0487173
0.0398556
0.0316358
0.0232562
0.0110018
0.0761976
0.0675741
0.0573624
0.047781
0.0390153
0.0309
0.0226439
0.0105977
0.072405
0.0626322
0.0531336
0.0443467
0.0363235
0.0288435
0.0211435
0.00980168
0.0640057
0.0551696
0.046979
0.0394748
0.0325749
0.0260387
0.019157
0.00883236
0.053929
0.0469654
0.0404286
0.0343372
0.0286253
0.0230815
0.017068
0.00785311
0.0671772
0.0591133
0.0511289
0.043482
0.0362668
0.0293089
0.0218577
0.0106213
0.074937
0.0655388
0.0559822
0.0471144
0.0388957
0.0311465
0.023076
0.0111017
0.0782179
0.0688888
0.058551
0.0489243
0.040088
0.0318706
0.0234614
0.0111463
0.0781306
0.0680338
0.0576507
0.0480613
0.0392935
0.0311646
0.0228679
0.0107469
0.0732522
0.0630596
0.0534973
0.0446906
0.0366507
0.0291456
0.021393
0.00995642
0.0644675
0.0555828
0.0473775
0.0398601
0.0329424
0.0263746
0.0194303
0.00899109
0.0543435
0.0473741
0.0408345
0.0347359
0.029007
0.0234282
0.0173478
0.00800689
0.0673504
0.0592195
0.0512826
0.0436466
0.0364382
0.0294789
0.0220082
0.0107398
0.0754126
0.0656471
0.056079
0.0472328
0.0390326
0.0313007
0.0232275
0.0112306
0.0790528
0.0693249
0.0586882
0.0490425
0.0402185
0.032025
0.0236202
0.0112806
0.0786922
0.0684073
0.0578215
0.0482026
0.0394476
0.0313418
0.0230429
0.0108826
0.0736556
0.0632923
0.053684
0.044876
0.0368561
0.0293646
0.0215927
0.0100935
0.0646677
0.0557855
0.0475948
0.0401002
0.0332014
0.0266331
0.0196527
0.00912832
0.0545256
0.0475943
0.0410886
0.0350152
0.0292956
0.0237033
0.0175763
0.00813743
0.0666767
0.0591603
0.0512655
0.0436553
0.0364752
0.0295388
0.0220747
0.0108145
0.0741093
0.0650958
0.0559551
0.0471948
0.0390564
0.0313715
0.0233177
0.0113275
0.0783143
0.068647
0.058596
0.0490235
0.0402651
0.0321269
0.0237425
0.0113951
0.0779212
0.0680116
0.0577023
0.048194
0.0395227
0.0314718
0.0231831
0.0109976
0.0732148
0.0631535
0.0536653
0.0449486
0.0369954
0.0295368
0.0217543
0.010208
0.064532
0.0557857
0.0476881
0.0402602
0.033401
0.0268411
0.0198323
0.00924175
0.0545482
0.0477073
0.0412636
0.035228
0.029524
0.0239234
0.017759
0.00824421
0.0659096
0.0587593
0.0509998
0.0434914
0.0363907
0.0295104
0.0220773
0.0108536
0.0708403
0.0644278
0.0555898
0.0470031
0.0389801
0.0313659
0.0233434
0.0113812
0.073417
0.0679394
0.0582641
0.0488788
0.0402414
0.0321699
0.023804
0.0114632
0.0769179
0.0675572
0.0574739
0.0481279
0.0395595
0.0315571
0.0232697
0.0110716
0.0728063
0.0629298
0.0536016
0.0449946
0.0371033
0.0296646
0.0218652
0.010287
0.0643957
0.0557709
0.0477639
0.0403923
0.0335591
0.0269986
0.0199623
0.00932503
0.0545805
0.0478056
0.0414053
0.0353937
0.029697
0.0240874
0.0178935
0.00832529
0.0655061
0.0582828
0.0506637
0.0432843
0.0362769
0.029459
0.022062
0.0108802
0.070601
0.0640357
0.0552019
0.0467799
0.0388684
0.0313174
0.0233248
0.0114028
0.0736254
0.0674243
0.0578499
0.0486831
0.0401666
0.0321471
0.023796
0.0114837
0.0762036
0.0671157
0.057243
0.0480519
0.0395567
0.0315789
0.0232898
0.0111033
0.0725618
0.0627649
0.0535592
0.0450244
0.0371618
0.0297277
0.0219162
0.0103321
0.0643276
0.055779
0.0478242
0.0404777
0.0336539
0.0270917
0.0200397
0.00938103
0.0546076
0.047865
0.0414864
0.0354892
0.0298014
0.0241923
0.0179844
0.00838525
0.065774
0.0581018
0.0505007
0.0431705
0.0362077
0.0294255
0.0220542
0.0109115
0.0730207
0.0641327
0.0550951
0.0466699
0.0387828
0.0312599
0.023293
0.0114221
0.076943
0.0677922
0.0577923
0.0485885
0.0400779
0.0320762
0.0237481
0.0114923
0.0772665
0.0672581
0.0572209
0.0480018
0.0395023
0.0315365
0.023266
0.0111239
0.0726578
0.06277
0.0535425
0.0450003
0.0371424
0.0297241
0.0219272
0.0103673
0.0643346
0.0557723
0.0478131
0.0404738
0.0336681
0.0271262
0.0200844
0.00942765
0.0545646
0.0478298
0.0414709
0.0355018
0.0298432
0.0242558
0.0180532
0.0084385
0.0660999
0.0581747
0.0504882
0.0431196
0.0361504
0.0293819
0.0220332
0.0109431
0.0736981
0.0646228
0.0551407
0.0466111
0.0386943
0.0311874
0.0232555
0.0114549
0.0782346
0.0685032
0.0578976
0.0485199
0.0399614
0.0319822
0.0237025
0.0115261
0.0777353
0.0677022
0.0572511
0.0479099
0.0393897
0.0314612
0.0232415
0.011166
0.0728687
0.0627936
0.0534545
0.0448847
0.0370559
0.0296888
0.0219358
0.0104164
0.0642439
0.0556452
0.047683
0.0403811
0.0336307
0.027139
0.0201269
0.00948179
0.0543722
0.0476765
0.0413751
0.0354679
0.0298627
0.0243117
0.0181226
0.00849599
0.0438868
0.0372665
0.03115
0.0256334
0.0207132
0.0162326
0.011721
0.00513035
0.0461391
0.0383549
0.0315704
0.0256657
0.0205112
0.0159081
0.0113713
0.00479598
0.04644
0.0382618
0.0312467
0.0252349
0.0200503
0.0154606
0.0109778
0.00448391
0.0444913
0.0366716
0.0299658
0.0242268
0.019274
0.014873
0.010549
0.00421127
0.0408209
0.0338565
0.0278651
0.022702
0.0181979
0.014136
0.0100672
0.00397032
0.0362301
0.0303763
0.0253106
0.0208761
0.016929
0.0132878
0.00953614
0.00378504
0.0313154
0.0268153
0.0227263
0.0190182
0.0156217
0.0123953
0.00896237
0.00365995
0.0455984
0.0388427
0.0326361
0.0270244
0.0219655
0.0172977
0.0125342
0.0055156
0.0480165
0.0400863
0.033198
0.0271736
0.021858
0.0170432
0.0122296
0.00519027
0.0484153
0.0401153
0.0329904
0.02684
0.0214718
0.0166525
0.0118756
0.00488553
0.0465331
0.0386125
0.0317894
0.0258915
0.0207352
0.0160918
0.0114643
0.0046084
0.0428883
0.0358308
0.0297077
0.0243659
0.0196453
0.0153378
0.0109682
0.00435199
0.0382796
0.0323183
0.0271
0.0224736
0.0183115
0.0144318
0.0103923
0.00414554
0.0332809
0.0286535
0.024405
0.0205139
0.0169168
0.0134697
0.00976988
0.00400065
0.0472815
0.0404217
0.0341022
0.028353
0.0231308
0.0182723
0.0132697
0.00586325
0.0498841
0.0418262
0.034797
0.0286078
0.0231063
0.0180827
0.0130118
0.00554957
0.05037
0.041947
0.0346725
0.0283446
0.0227781
0.0177386
0.0126909
0.00525121
0.048509
0.0404735
0.033498
0.0274163
0.0220564
0.0171887
0.0122865
0.0049716
0.0448425
0.0376669
0.0313847
0.0258552
0.0209328
0.0164049
0.0117676
0.00470137
0.040173
0.0340773
0.028692
0.0238831
0.019527
0.0154367
0.011143
0.00446353
0.0350569
0.0302889
0.025882
0.021821
0.0180457
0.0144071
0.0104751
0.0042962
0.0486497
0.0417505
0.0353479
0.0294865
0.0241342
0.0191241
0.0139227
0.00617582
0.0513946
0.0432675
0.036137
0.0298234
0.0241822
0.0189966
0.0137113
0.00587438
0.0519507
0.0434526
0.0360701
0.0296121
0.0238991
0.018689
0.0134158
0.00558
0.05011
0.0419948
0.034907
0.0286906
0.0231803
0.0181383
0.0130082
0.00529493
0.046434
0.0391649
0.0327602
0.0270932
0.0220196
0.0173192
0.0124607
0.00500988
0.0417113
0.0355068
0.0299958
0.0250505
0.0205474
0.016292
0.0117893
0.0047446
0.0364943
0.0316176
0.0270896
0.0229004
0.0189891
0.0151993
0.0110768
0.00455021
0.0496682
0.042776
0.036341
0.0304247
0.0249987
0.0198856
0.0145244
0.00647067
0.0524513
0.0443424
0.0371908
0.0308276
0.0251103
0.019812
0.0143509
0.00617763
0.0530371
0.0445586
0.0371598
0.0306517
0.0248567
0.0195254
0.014067
0.00588211
0.0512189
0.0431163
0.0360035
0.0297286
0.0241289
0.0189605
0.0136441
0.00558671
0.0475666
0.0402843
0.0338343
0.0280966
0.0229273
0.0180999
0.0130621
0.00528434
0.0428367
0.0365927
0.0310205
0.0259962
0.0213949
0.0170159
0.0123443
0.00499198
0.0375688
0.0326398
0.0280444
0.023775
0.0197689
0.015864
0.0115868
0.00476601
0.0504909
0.0436174
0.0371852
0.0312556
0.0257892
0.0205961
0.0150928
0.00675426
0.053241
0.0452055
0.0380832
0.0317128
0.0259491
0.020559
0.0149415
0.00646307
0.0537985
0.0454239
0.0380664
0.0315504
0.0257031
0.0202732
0.0146531