/*--------------------------------*- C++ -*----------------------------------*\
| =========                 |                                                 |
| \\      /  F ield         | OpenFOAM: The Open Source CFD Toolbox           |
|  \\    /   O peration     | Version:  plus.master.MPPICInterFoam            |
|   \\  /    A nd           | Web:      www.OpenFOAM.com                      |
|    \\/     M anipulation  |                                                 |
\*---------------------------------------------------------------------------*/
FoamFile
{
    version     2.0;
    format      ascii;
    class       volScalarField;
    location    "13";
    object      p;
}
// * * * * * * * * * * * * * * * * * * * * * * * * * * * * * * * * * * * * * //

dimensions      [1 -1 -2 0 0 0 0];

internalField   nonuniform List<scalar> 
11821
(
2356.55
2358.98
2355.95
2359.41
2357.22
2354.79
2255.45
2255.9
2255.95
2255.63
2255.33
2254.86
2254.29
2253.72
2254.19
2254.59
2254.93
2255.39
2255.23
2254.67
2249.67
2254.25
2253.29
2252.27
2254.73
2255.4
2254.97
2246.75
2265.49
2262.24
2250.37
2253.78
2255.51
2255.18
2243.35
2262.15
2261.44
2248.72
2252.7
2255.23
2255.05
2236.26
2243.04
2247.06
2246.16
2251.96
2254.56
2254.67
2245.07
2241.92
2244.15
2248.64
2252.58
2254.21
2254.31
2154.25
2153.59
2154.12
2154.74
2155.46
2156.11
2156.61
2151.78
2149.06
2151.24
2152.69
2154.13
2155.37
2156.19
2149.77
2153.24
2151.19
2150.56
2152.65
2154.57
2155.76
2150.84
2147.38
2147.02
2149.97
2150.95
2153.76
2155.38
2143.9
2145.96
2149.3
2151.83
2148.42
2153.04
2155.07
2148.03
2144.97
2149.43
2147.48
2150.44
2153.31
2155.13
2151.6
2150.18
2151.07
2150.49
2151.98
2154.15
2155.51
2063.91
2063.08
2063.47
2063.65
2063.63
2063.69
2063.8
2065.36
2063.04
2064.55
2064.52
2063.82
2063.71
2063.77
2070.06
2069.91
2070.23
2068.22
2065.08
2064.07
2063.84
2072.01
2065.08
2068.46
2070.67
2066.15
2064.25
2063.88
2075.26
2074.66
2071.87
2074.47
2064.57
2063.77
2063.77
2076.78
2075.34
2074.29
2073.12
2067.34
2064.7
2064.13
2075
2076.27
2075.9
2071.52
2066.69
2064.86
2064.35
1975.42
1975.14
1975.08
1974.72
1974.1
1973.54
1973.06
1977.95
1977.61
1977.68
1976.57
1975.03
1974.18
1973.49
1984.52
1984.48
1984.75
1981.04
1976.79
1974.99
1973.97
1985.38
1983.21
1985.63
1984.25
1978.52
1975.68
1974.34
1986.74
1979.8
1979.53
1985.47
1978.22
1975.67
1974.46
1988.29
1987.52
1988.11
1986.96
1979.54
1976.16
1974.73
1986.55
1987.81
1986.97
1983.34
1978.05
1975.75
1974.64
1884.63
1884.6
1884.35
1883.79
1883.04
1882.27
1881.59
1886.69
1886.72
1886.46
1885.27
1884.06
1883.06
1882.15
1892.23
1893.59
1892.33
1888.42
1885.39
1883.88
1882.71
1896.6
1895.91
1894.85
1891.84
1886.6
1884.47
1883.13
1896.59
1886.31
1893.88
1891.86
1886.51
1884.52
1883.26
1897.47
1896.14
1895.75
1892.06
1886.48
1884.53
1883.33
1891.6
1891.96
1891.48
1888.42
1885.3
1884.01
1883.08
1790.19
1790.41
1790.31
1789.9
1789.46
1789
1788.58
1790.34
1790.94
1791.09
1790.49
1789.98
1789.45
1788.91
1792.02
1795.11
1793.98
1791.45
1790.55
1789.91
1789.23
1795.53
1800.88
1799.57
1793.12
1791.06
1790.29
1789.49
1797.35
1803.14
1800.48
1793.13
1790.75
1790.27
1789.56
1791.81
1798.29
1797.57
1791.32
1790.33
1790.06
1789.51
1788.71
1789.24
1789.93
1789.75
1789.71
1789.67
1789.31
1694.45
1694.7
1694.83
1694.83
1694.85
1694.87
1694.86
1693.24
1693.79
1694.44
1694.56
1694.74
1694.86
1694.87
1692.65
1695.33
1695.81
1694.57
1694.68
1694.89
1694.9
1692.29
1699.22
1696.74
1695.15
1694.62
1694.95
1694.95
1687.75
1696.72
1697.47
1694.66
1693.99
1694.82
1694.93
1687.87
1693.37
1698.71
1692.45
1693.78
1694.63
1694.87
1691.78
1691.39
1692.96
1693.28
1693.83
1694.58
1694.84
1601.51
1601.3
1601.44
1601.56
1601.71
1601.87
1601.98
1601.21
1600.47
1601.17
1601.32
1601.49
1601.76
1601.92
1602.71
1603.15
1603.03
1601.94
1601.58
1601.75
1601.91
1604.99
1600.63
1602.7
1602.49
1601.69
1601.78
1601.91
1602.7
1602.1
1603.82
1603.36
1601.16
1601.7
1601.89
1604.21
1602.45
1606.42
1603.05
1601.8
1601.8
1601.94
1605.73
1604.97
1605.93
1603.33
1601.95
1601.9
1602.01
1511.19
1510.89
1510.73
1510.58
1510.47
1510.35
1510.26
1512.43
1511.64
1511.48
1510.96
1510.64
1510.5
1510.37
1516.87
1516.45
1515.32
1512.74
1511.13
1510.73
1510.51
1519.05
1513.71
1517.76
1514.4
1511.74
1510.95
1510.62
1521.43
1514.7
1514.27
1515.35
1511.67
1510.99
1510.64
1520.3
1519.27
1518.94
1515.55
1512.05
1511.05
1510.68
1519.46
1519.4
1518.14
1514.22
1511.66
1510.93
1510.66
1420.13
1419.97
1419.78
1419.52
1419.24
1418.96
1418.72
1421.32
1420.98
1420.78
1420.11
1419.64
1419.26
1418.93
1425.65
1425.87
1424.63
1421.93
1420.26
1419.62
1419.15
1427.81
1427.25
1426.1
1424.28
1420.97
1419.92
1419.33
1428.67
1420.92
1424.88
1424.03
1420.72
1419.91
1419.36
1429.54
1428.59
1426.81
1424.94
1421.14
1419.99
1419.41
1426.65
1426.45
1425.79
1422.96
1420.55
1419.74
1419.32
1327.85
1327.9
1327.83
1327.54
1327.26
1327.01
1326.8
1328.21
1328.43
1328.62
1327.98
1327.57
1327.25
1326.96
1331.06
1332.8
1331.75
1329.24
1328.07
1327.55
1327.15
1334.31
1335.83
1335.71
1330.96
1328.71
1327.88
1327.33
1333.32
1335.61
1337.42
1331.3
1328.57
1327.9
1327.39
1332.43
1335.23
1335.18
1331.01
1328.51
1327.85
1327.41
1329.86
1330.86
1331.01
1329.29
1327.95
1327.57
1327.31
1235.27
1235.33
1235.26
1235.04
1234.84
1234.7
1234.6
1235.37
1235.6
1235.78
1235.3
1235.02
1234.83
1234.68
1237.84
1239.73
1238.51
1236.36
1235.43
1235.06
1234.81
1242.06
1243.72
1241.01
1237.92
1236.07
1235.36
1234.97
1236.98
1243.63
1242.11
1238.63
1235.79
1235.4
1235.04
1235.45
1242.46
1243.06
1237.71
1235.76
1235.34
1235.07
1236.95
1238.72
1239.35
1236.7
1235.41
1235.17
1235.03
1142.69
1142.49
1142.46
1142.46
1142.44
1142.43
1142.41
1142.86
1142.29
1142.57
1142.52
1142.46
1142.47
1142.46
1145.45
1146.07
1144.99
1143.59
1142.74
1142.61
1142.54
1148.64
1144.24
1144.08
1144.75
1143.09
1142.77
1142.64
1147.32
1144.08
1145.47
1145.77
1142.93
1142.81
1142.7
1145.89
1147.55
1150.11
1145.74
1143.3
1142.9
1142.76
1148.15
1148.75
1148.84
1145.16
1143.26
1142.89
1142.79
1051.15
1050.93
1050.86
1050.83
1050.77
1050.67
1050.56
1051.88
1051.26
1051.3
1051.06
1050.93
1050.84
1050.7
1055.5
1054.9
1054.13
1052.45
1051.33
1051.06
1050.85
1057.27
1054.35
1054.29
1054.02
1052.01
1051.29
1050.96
1059.05
1052.83
1053.15
1054.77
1051.96
1051.31
1050.98
1058.69
1057.36
1057.93
1054.48
1052
1051.25
1050.95
1058.67
1057.73
1057.04
1053.51
1051.55
1051.06
1050.85
958.914
958.842
958.867
958.786
958.687
958.545
958.386
959.551
959.264
959.471
959.042
958.898
958.735
958.537
962.703
962.331
962.044
960.259
959.214
958.93
958.669
965.073
965.163
964.174
961.841
959.863
959.129
958.761
965.807
958.829
963.02
960.973
959.621
959.007
958.715
966.624
965.913
964.228
961.935
959.713
958.956
958.66
964.151
962.99
962.835
960.722
959.123
958.71
958.511
865.088
865.172
865.33
865.416
865.527
865.596
865.639
864.54
864.73
865.288
865.211
865.417
865.539
865.608
865.891
866.933
866.862
865.659
865.369
865.509
865.576
867.991
869.019
869.088
866.462
865.535
865.531
865.559
867.133
868.916
870.278
865.629
865.128
865.427
865.505
867.118
868.753
868.662
865.847
865.254
865.398
865.475
865.061
865.106
865.513
865.295
864.99
865.264
865.403
2347.07
2346.9
2349.41
2348.53
2347.87
2347.4
2347.08
2346.92
2353.44
2351.42
2349.98
2348.9
2348.12
2347.59
2347.25
2347.09
2353.76
2351.79
2350.29
2349.18
2348.38
2347.85
2347.52
2347.37
2353.47
2351.76
2350.42
2349.41
2348.67
2348.18
2347.88
2347.75
2352.68
2351.42
2350.37
2349.55
2348.94
2348.54
2348.3
2348.21
2253.8
2253.44
2253.16
2252.94
2252.76
2252.62
2252.51
2252.47
2254.11
2253.64
2253.25
2252.96
2252.74
2252.58
2252.45
2252.38
2254.34
2253.8
2253.37
2253.03
2252.78
2252.6
2252.47
2252.4
2254.53
2253.97
2253.5
2253.13
2252.87
2252.68
2252.56
2252.51
2254.49
2253.99
2253.56
2253.22
2252.97
2252.8
2252.7
2252.67
2254.26
2253.91
2253.58
2253.31
2253.11
2252.99
2252.92
2252.91
2253.82
2253.59
2253.42
2253.29
2253.19
2253.13
2253.12
2253.15
2156.96
2157.24
2157.49
2157.68
2157.81
2157.9
2157.94
2157.98
2156.75
2157.12
2157.4
2157.6
2157.74
2157.84
2157.9
2157.93
2156.5
2156.95
2157.27
2157.5
2157.68
2157.8
2157.89
2157.94
2156.28
2156.8
2157.17
2157.44
2157.65
2157.8
2157.9
2157.99
2156.1
2156.69
2157.12
2157.42
2157.65
2157.82
2157.96
2158.07
2156.09
2156.69
2157.14
2157.47
2157.72
2157.91
2158.07
2158.2
2156.08
2156.58
2157.05
2157.42
2157.71
2157.96
2158.16
2158.3
2063.86
2064.01
2064.17
2064.32
2064.45
2064.57
2064.65
2064.72
2063.86
2064.01
2064.16
2064.3
2064.43
2064.54
2064.63
2064.7
2063.87
2063.99
2064.13
2064.27
2064.4
2064.52
2064.63
2064.72
2063.88
2063.97
2064.11
2064.26
2064.4
2064.53
2064.66
2064.77
2063.87
2063.99
2064.14
2064.29
2064.44
2064.59
2064.74
2064.87
2064.08
2064.15
2064.29
2064.44
2064.59
2064.74
2064.9
2065.04
2064.13
2064.2
2064.35
2064.51
2064.69
2064.87
2065.06
2065.21
1972.65
1972.45
1972.32
1972.26
1972.24
1972.26
1972.3
1972.35
1972.96
1972.65
1972.45
1972.33
1972.28
1972.28
1972.3
1972.34
1973.28
1972.86
1972.59
1972.42
1972.33
1972.31
1972.34
1972.39
1973.53
1973.05
1972.73
1972.53
1972.42
1972.39
1972.42
1972.49
1973.68
1973.19
1972.86
1972.66
1972.55
1972.52
1972.57
1972.65
1973.91
1973.4
1973.08
1972.87
1972.77
1972.75
1972.8
1972.88
1973.82
1973.43
1973.17
1973.02
1972.95
1972.97
1973.05
1973.15
1881.02
1880.67
1880.4
1880.21
1880.1
1880.05
1880.04
1880.08
1881.41
1880.91
1880.55
1880.31
1880.15
1880.07
1880.05
1880.07
1881.8
1881.19
1880.74
1880.44
1880.24
1880.14
1880.12
1880.15
1882.11
1881.43
1880.94
1880.59
1880.37
1880.26
1880.24
1880.29
1882.28
1881.61
1881.11
1880.76
1880.53
1880.42
1880.41
1880.46
1882.4
1881.76
1881.29
1880.96
1880.75
1880.65
1880.64
1880.69
1882.15
1881.67
1881.31
1881.06
1880.91
1880.86
1880.89
1880.96
1788.21
1787.97
1787.79
1787.65
1787.56
1787.52
1787.51
1787.55
1788.44
1788.11
1787.86
1787.69
1787.58
1787.53
1787.52
1787.55
1788.66
1788.27
1787.98
1787.77
1787.65
1787.59
1787.59
1787.63
1788.87
1788.44
1788.12
1787.9
1787.76
1787.69
1787.7
1787.75
1788.97
1788.56
1788.24
1788.02
1787.88
1787.82
1787.83
1787.89
1788.99
1788.63
1788.36
1788.15
1788.03
1787.98
1788
1788.07
1788.68
1788.42
1788.26
1788.16
1788.11
1788.11
1788.17
1788.25
1694.81
1694.8
1694.79
1694.79
1694.8
1694.82
1694.87
1694.93
1694.83
1694.8
1694.78
1694.78
1694.79
1694.82
1694.87
1694.94
1694.85
1694.82
1694.8
1694.8
1694.82
1694.86
1694.92
1695.01
1694.91
1694.87
1694.86
1694.86
1694.88
1694.92
1695
1695.09
1694.92
1694.91
1694.9
1694.91
1694.94
1695
1695.08
1695.18
1694.9
1694.93
1694.95
1694.99
1695.03
1695.09
1695.19
1695.29
1694.67
1694.72
1694.83
1694.94
1695.04
1695.15
1695.28
1695.39
1602.02
1602.1
1602.18
1602.25
1602.32
1602.4
1602.48
1602.57
1602.02
1602.1
1602.18
1602.25
1602.32
1602.4
1602.49
1602.58
1602.01
1602.1
1602.17
1602.25
1602.33
1602.42
1602.52
1602.63
1602.02
1602.11
1602.19
1602.28
1602.36
1602.46
1602.57
1602.68
1602.02
1602.11
1602.21
1602.31
1602.4
1602.51
1602.63
1602.75
1602.05
1602.16
1602.27
1602.38
1602.48
1602.59
1602.72
1602.84
1601.93
1602.03
1602.19
1602.34
1602.49
1602.65
1602.8
1602.93
1510.15
1510.15
1510.17
1510.22
1510.28
1510.36
1510.44
1510.54
1510.26
1510.24
1510.24
1510.26
1510.3
1510.37
1510.45
1510.54
1510.37
1510.3
1510.27
1510.28
1510.31
1510.38
1510.47
1510.57
1510.44
1510.35
1510.31
1510.31
1510.35
1510.41
1510.51
1510.62
1510.46
1510.37
1510.34
1510.35
1510.39
1510.47
1510.58
1510.69
1510.52
1510.43
1510.41
1510.44
1510.49
1510.57
1510.68
1510.78
1510.36
1510.33
1510.37
1510.44
1510.53
1510.64
1510.77
1510.89
1418.5
1418.42
1418.38
1418.37
1418.4
1418.45
1418.52
1418.6
1418.67
1418.53
1418.45
1418.42
1418.42
1418.45
1418.51
1418.59
1418.82
1418.63
1418.51
1418.45
1418.43
1418.46
1418.53
1418.62
1418.94
1418.72
1418.57
1418.5
1418.47
1418.5
1418.58
1418.68
1418.99
1418.77
1418.63
1418.56
1418.54
1418.58
1418.66
1418.75
1419.06
1418.84
1418.72
1418.66
1418.65
1418.68
1418.76
1418.85
1418.88
1418.74
1418.68
1418.67
1418.7
1418.76
1418.86
1418.95
1326.62
1326.53
1326.47
1326.44
1326.44
1326.47
1326.52
1326.59
1326.73
1326.59
1326.5
1326.46
1326.44
1326.46
1326.52
1326.59
1326.84
1326.66
1326.55
1326.48
1326.46
1326.48
1326.54
1326.63
1326.97
1326.75
1326.62
1326.54
1326.51
1326.53
1326.6
1326.69
1327.04
1326.83
1326.69
1326.61
1326.58
1326.61
1326.68
1326.76
1327.1
1326.9
1326.78
1326.71
1326.69
1326.71
1326.77
1326.85
1326.92
1326.8
1326.74
1326.72
1326.73
1326.78
1326.86
1326.94
1234.5
1234.45
1234.42
1234.4
1234.4
1234.43
1234.48
1234.55
1234.55
1234.47
1234.42
1234.4
1234.4
1234.43
1234.49
1234.56
1234.62
1234.51
1234.45
1234.42
1234.42
1234.45
1234.52
1234.61
1234.73
1234.59
1234.52
1234.48
1234.47
1234.51
1234.57
1234.66
1234.81
1234.67
1234.59
1234.55
1234.54
1234.57
1234.64
1234.72
1234.87
1234.75
1234.68
1234.64
1234.63
1234.65
1234.72
1234.8
1234.76
1234.68
1234.66
1234.65
1234.67
1234.72
1234.79
1234.87
1142.36
1142.35
1142.35
1142.36
1142.38
1142.42
1142.47
1142.54
1142.41
1142.38
1142.37
1142.37
1142.39
1142.43
1142.49
1142.56
1142.46
1142.42
1142.4
1142.39
1142.41
1142.45
1142.52
1142.6
1142.54
1142.48
1142.45
1142.44
1142.45
1142.49
1142.55
1142.63
1142.6
1142.53
1142.5
1142.49
1142.5
1142.53
1142.6
1142.67
1142.67
1142.6
1142.57
1142.56
1142.57
1142.6
1142.66
1142.74
1142.61
1142.57
1142.56
1142.57
1142.6
1142.66
1142.73
1142.79
1050.42
1050.37
1050.35
1050.35
1050.37
1050.41
1050.47
1050.53
1050.56
1050.47
1050.42
1050.39
1050.4
1050.42
1050.48
1050.54
1050.67
1050.55
1050.47
1050.42
1050.41
1050.44
1050.49
1050.55
1050.74
1050.6
1050.5
1050.45
1050.44
1050.45
1050.5
1050.56
1050.75
1050.61
1050.52
1050.47
1050.46
1050.48
1050.53
1050.59
1050.74
1050.62
1050.54
1050.51
1050.5
1050.53
1050.58
1050.63
1050.6
1050.52
1050.49
1050.49
1050.52
1050.56
1050.61
1050.67
958.234
958.173
958.149
958.155
958.183
958.228
958.283
958.341
958.362
958.267
958.211
958.188
958.193
958.223
958.271
958.326
958.466
958.333
958.246
958.201
958.189
958.209
958.257
958.318
958.528
958.371
958.27
958.213
958.196
958.214
958.263
958.328
958.503
958.361
958.268
958.218
958.206
958.228
958.277
958.336
958.45
958.328
958.26
958.23
958.23
958.254
958.295
958.345
958.238
958.167
958.157
958.173
958.205
958.247
958.296
958.36
865.637
865.667
865.702
865.743
865.793
865.854
865.92
865.982
865.624
865.655
865.688
865.726
865.773
865.831
865.898
865.963
865.606
865.633
865.664
865.7
865.744
865.802
865.875
865.95
865.593
865.619
865.649
865.685
865.731
865.792
865.869
865.947
865.557
865.59
865.627
865.67
865.723
865.79
865.865
865.937
865.508
865.556
865.608
865.664
865.724
865.788
865.855
865.919
865.329
865.396
865.492
865.584
865.668
865.746
865.82
865.902
2249.95
2253.04
2254.24
2254.94
2255.34
2255.6
2255.82
2256.03
2245.44
2251.52
2253.73
2254.67
2255.19
2255.49
2255.74
2255.99
2246.09
2253
2254.4
2255.11
2255.42
2255.59
2255.77
2256
2248.57
2253.64
2255.03
2255.42
2255.53
2255.59
2255.7
2255.91
2252.12
2254.6
2255.28
2255.43
2255.47
2255.47
2255.54
2255.69
2254.65
2255.47
2255.5
2255.41
2255.31
2255.26
2255.29
2255.39
2255.68
2255.75
2255.53
2255.29
2255.12
2255.02
2255
2255.06
2152.16
2153.71
2155.35
2156.67
2157.67
2158.44
2159.03
2159.47
2151.95
2152.5
2154.5
2156.11
2157.27
2158.13
2158.82
2159.36
2152.61
2152
2154.02
2155.71
2156.94
2157.86
2158.6
2159.19
2151.65
2152.78
2154.6
2156.02
2157.11
2157.95
2158.63
2159.18
2152.1
2153.83
2155.45
2156.63
2157.54
2158.22
2158.77
2159.22
2153.66
2155.36
2156.46
2157.29
2157.95
2158.46
2158.88
2159.21
2155.62
2156.61
2157.27
2157.82
2158.27
2158.63
2158.92
2159.15
2069.35
2066.67
2066.08
2066.01
2066.14
2066.41
2066.79
2067.18
2073.86
2068.12
2066.41
2065.97
2065.99
2066.25
2066.69
2067.18
2074
2068.09
2066.04
2065.51
2065.58
2065.89
2066.39
2066.95
2071.1
2066.56
2065.28
2065.08
2065.29
2065.65
2066.16
2066.7
2067.73
2065.29
2064.84
2064.92
2065.21
2065.55
2066
2066.46
2064.52
2064.29
2064.47
2064.77
2065.09
2065.44
2065.81
2066.16
2064.01
2064.21
2064.49
2064.79
2065.08
2065.36
2065.65
2065.92
1979.77
1976.86
1976.07
1975.63
1975.4
1975.41
1975.64
1975.97
1985.17
1979.03
1976.9
1976.04
1975.64
1975.57
1975.82
1976.21
1983.96
1978.37
1976.5
1975.81
1975.49
1975.44
1975.71
1976.14
1983.59
1978.01
1976.23
1975.57
1975.26
1975.19
1975.43
1975.84
1979.67
1976.51
1975.51
1975.03
1974.82
1974.78
1974.99
1975.33
1975.86
1974.92
1974.54
1974.31
1974.21
1974.25
1974.45
1974.72
1974.6
1974.27
1974.06
1973.91
1973.84
1973.88
1974.03
1974.24
1886.56
1884.73
1884.26
1883.77
1883.44
1883.35
1883.49
1883.74
1890.58
1886.37
1885.1
1884.37
1883.86
1883.65
1883.75
1884.04
1891.86
1886.78
1885.29
1884.57
1884.03
1883.75
1883.81
1884.1
1891.18
1886.67
1885.25
1884.46
1883.88
1883.57
1883.61
1883.87
1887.63
1885.28
1884.42
1883.77
1883.32
1883.08
1883.13
1883.35
1884.78
1883.99
1883.41
1882.93
1882.61
1882.48
1882.55
1882.73
1883.77
1883.29
1882.82
1882.43
1882.16
1882.04
1882.09
1882.23
1787.83
1788.7
1789.23
1789.36
1789.46
1789.62
1789.86
1790.13
1787.35
1788.76
1789.56
1789.64
1789.62
1789.69
1789.91
1790.21
1789.49
1789.34
1789.95
1789.91
1789.77
1789.75
1789.91
1790.2
1790.12
1789.73
1790.06
1789.91
1789.72
1789.66
1789.8
1790.07
1789.81
1789.7
1789.78
1789.61
1789.46
1789.43
1789.54
1789.77
1789.58
1789.63
1789.47
1789.27
1789.16
1789.14
1789.24
1789.42
1789.8
1789.66
1789.4
1789.16
1789
1788.94
1789
1789.14
1692.4
1693.33
1694.26
1694.89
1695.38
1695.77
1696.13
1696.45
1691.23
1692.81
1693.79
1694.52
1695.05
1695.48
1695.9
1696.29
1689.15
1692.19
1693.47
1694.26
1694.78
1695.22
1695.66
1696.09
1691.23
1692.77
1693.84
1694.43
1694.84
1695.2
1695.6
1696
1692.54
1693.35
1694.18
1694.62
1694.95
1695.25
1695.57
1695.91
1693.46
1694.24
1694.63
1694.88
1695.1
1695.31
1695.56
1695.81
1694.63
1694.98
1695.11
1695.18
1695.27
1695.4
1695.56
1695.74
1603.33
1601.99
1602.29
1602.63
1602.93
1603.23
1603.57
1603.89
1605.6
1602.79
1602.2
1602.38
1602.67
1602.99
1603.4
1603.82
1604.88
1602.62
1601.94
1602.05
1602.34
1602.7
1603.14
1603.61
1603.93
1602.1
1601.83
1601.99
1602.27
1602.6
1603.02
1603.47
1602.12
1601.41
1601.71
1602
1602.29
1602.6
1602.96
1603.33
1601.2
1601.52
1601.85
1602.12
1602.37
1602.63
1602.92
1603.21
1601.67
1601.98
1602.17
1602.34
1602.52
1602.7
1602.91
1603.13
1514.62
1511.93
1511.63
1511.52
1511.5
1511.61
1511.84
1512.1
1519.29
1514
1512.33
1511.82
1511.63
1511.67
1511.93
1512.28
1520.69
1514.64
1512.45
1511.79
1511.55
1511.58
1511.85
1512.24
1518.05
1513.53
1512.04
1511.56
1511.39
1511.43
1511.7
1512.08
1514.17
1511.91
1511.42
1511.21
1511.15
1511.24
1511.48
1511.79
1511.44
1511.05
1510.94
1510.9
1510.93
1511.04
1511.25
1511.5
1510.85
1510.8
1510.78
1510.78
1510.83
1510.93
1511.09
1511.28
1421.97
1419.83
1419.72
1419.61
1419.56
1419.64
1419.84
1420.08
1426.03
1421.96
1420.56
1420.1
1419.88
1419.87
1420.07
1420.39
1426.05
1421.86
1420.51
1420.16
1419.96
1419.94
1420.14
1420.47
1425.56
1421.74
1420.61
1420.17
1419.93
1419.88
1420.06
1420.37
1422.52
1420.47
1420.05
1419.8
1419.66
1419.66
1419.82
1420.08
1420.14
1419.76
1419.58
1419.44
1419.37
1419.4
1419.54
1419.74
1419.63
1419.5
1419.36
1419.24
1419.19
1419.22
1419.33
1419.49
1326.98
1326.51
1326.9
1327.04
1327.15
1327.32
1327.57
1327.83
1328.26
1327.51
1327.37
1327.34
1327.33
1327.45
1327.71
1328.02
1328.97
1327.55
1327.41
1327.46
1327.44
1327.52
1327.75
1328.07
1329.99
1327.85
1327.66
1327.57
1327.5
1327.53
1327.73
1328.03
1328.34
1327.32
1327.41
1327.37
1327.35
1327.4
1327.57
1327.81
1327.29
1327.29
1327.28
1327.23
1327.21
1327.26
1327.39
1327.58
1327.46
1327.45
1327.33
1327.22
1327.16
1327.18
1327.27
1327.41
1235.33
1234.88
1235.04
1235.12
1235.23
1235.39
1235.61
1235.84
1234.43
1235.4
1234.97
1234.99
1235.07
1235.24
1235.5
1235.82
1234.78
1235.14
1234.81
1234.83
1234.9
1235.06
1235.33
1235.67
1237.23
1235.44
1235.06
1234.99
1234.97
1235.06
1235.3
1235.61
1235.69
1234.71
1234.83
1234.85
1234.89
1235
1235.2
1235.45
1234.69
1234.78
1234.84
1234.85
1234.88
1234.97
1235.12
1235.31
1235.06
1235.1
1235.03
1234.97
1234.95
1234.99
1235.09
1235.22
1145.66
1143.7
1143.48
1143.42
1143.43
1143.51
1143.66
1143.85
1147.1
1144.72
1143.4
1143.21
1143.2
1143.3
1143.53
1143.83
1147.1
1144.57
1143.21
1142.96
1142.93
1143.05
1143.31
1143.64
1146.54
1143.88
1143
1142.86
1142.85
1142.97
1143.21
1143.53
1143.95
1142.67
1142.67
1142.7
1142.77
1142.89
1143.1
1143.35
1142.46
1142.51
1142.61
1142.68
1142.75
1142.86
1143.02
1143.2
1142.63
1142.73
1142.76
1142.78
1142.81
1142.88
1142.99
1143.11
1054.6
1051.76
1051.42
1051.31
1051.24
1051.25
1051.34
1051.48
1059.07
1053.99
1052.07
1051.56
1051.34
1051.3
1051.44
1051.66
1059.74
1054.28
1052.08
1051.51
1051.28
1051.24
1051.41
1051.67
1056.91
1052.99
1051.66
1051.32
1051.16
1051.16
1051.31
1051.56
1053.44
1051.5
1051.19
1051.05
1050.99
1051.02
1051.16
1051.35
1051.22
1050.97
1050.93
1050.88
1050.87
1050.91
1051.02
1051.16
1050.93
1050.9
1050.86
1050.83
1050.82
1050.85
1050.93
1051.03
960.138
958.047
958.128
958.182
958.221
958.296
958.413
958.546
963.761
960.17
958.965
958.693
958.548
958.534
958.656
958.851
964.462
960.646
959.138
958.904
958.756
958.722
958.829
959.032
963.078
960.12
959.19
958.935
958.779
958.739
958.83
959.015
960.666
958.955
958.821
958.712
958.639
958.635
958.716
958.856
958.812
958.638
958.609
958.553
958.522
958.539
958.608
958.71
958.655
958.596
958.539
958.488
958.466
958.483
958.537
958.613
862.796
862.888
863.853
864.337
864.684
864.985
865.239
865.44
863.189
863.399
864.194
864.658
864.92
865.164
865.418
865.667
862.979
863.515
864.221
864.807
865.082
865.296
865.527
865.774
864.539
863.868
864.586
865.012
865.239
865.426
865.631
865.857
864.407
863.977
864.716
865.075
865.301
865.481
865.658
865.836
864.208
864.714
865.087
865.3
865.456
865.591
865.719
865.845
865.061
865.285
865.412
865.511
865.602
865.69
865.778
865.871
2255.13
2254.99
2254.87
2254.71
2254.57
2254.47
2254.44
2254.46
2255.67
2255.34
2254.99
2254.65
2254.37
2254.17
2254.07
2254.05
2255.65
2255.22
2254.75
2254.33
2254
2253.78
2253.65
2253.61
2255.3
2254.85
2254.39
2253.98
2253.67
2253.44
2253.3
2253.25
2254.89
2254.42
2253.99
2253.63
2253.35
2253.15
2253.01
2252.94
2254.41
2253.97
2253.6
2253.3
2253.07
2252.89
2252.76
2252.69
2253.99
2253.67
2253.35
2253.09
2252.89
2252.73
2252.61
2252.58
2155.39
2156.29
2157.06
2157.64
2158.08
2158.41
2158.66
2158.84
2155.42
2156.52
2157.25
2157.74
2158.07
2158.32
2158.52
2158.68
2155.67
2156.62
2157.24
2157.66
2157.96
2158.18
2158.36
2158.49
2155.99
2156.75
2157.28
2157.65
2157.91
2158.11
2158.24
2158.37
2156.36
2156.95
2157.38
2157.68
2157.91
2158.06
2158.17
2158.23
2156.7
2157.13
2157.47
2157.71
2157.89
2158.01
2158.07
2158.12
2157.06
2157.37
2157.59
2157.77
2157.89
2157.98
2158.03
2158.08
2063.69
2063.89
2064.18
2064.49
2064.78
2065.06
2065.32
2065.53
2063.45
2063.81
2064.13
2064.42
2064.68
2064.91
2065.13
2065.31
2063.54
2063.78
2064.04
2064.3
2064.53
2064.75
2064.94
2065.11
2063.66
2063.83
2064.05
2064.28
2064.48
2064.67
2064.83
2064.97
2063.7
2063.87
2064.08
2064.28
2064.46
2064.62
2064.76
2064.86
2063.74
2063.92
2064.11
2064.3
2064.46
2064.6
2064.7
2064.81
2063.89
2064.05
2064.21
2064.36
2064.5
2064.61
2064.7
2064.78
1974.32
1973.83
1973.52
1973.37
1973.33
1973.4
1973.54
1973.69
1974.2
1973.67
1973.34
1973.17
1973.09
1973.11
1973.2
1973.32
1974.04
1973.47
1973.12
1972.92
1972.83
1972.82
1972.89
1972.99
1973.8
1973.26
1972.93
1972.73
1972.63
1972.61
1972.66
1972.73
1973.39
1972.96
1972.69
1972.52
1972.45
1972.44
1972.48
1972.54
1972.97
1972.66
1972.47
1972.36
1972.32
1972.33
1972.37
1972.44
1972.67
1972.48
1972.36
1972.3
1972.28
1972.3
1972.33
1972.4
1883.34
1882.64
1882.13
1881.78
1881.58
1881.51
1881.55
1881.64
1883.39
1882.55
1881.96
1881.56
1881.31
1881.18
1881.17
1881.24
1883.11
1882.28
1881.68
1881.26
1880.98
1880.84
1880.82
1880.86
1882.69
1881.92
1881.36
1880.96
1880.7
1880.56
1880.53
1880.56
1882.13
1881.48
1881.01
1880.67
1880.45
1880.33
1880.3
1880.32
1881.54
1881.05
1880.68
1880.41
1880.25
1880.17
1880.14
1880.18
1881.08
1880.74
1880.46
1880.27
1880.15
1880.09
1880.08
1880.12
1789.36
1789.05
1788.84
1788.68
1788.58
1788.57
1788.62
1788.71
1789.7
1789.23
1788.89
1788.63
1788.45
1788.37
1788.37
1788.43
1789.59
1789.08
1788.69
1788.4
1788.21
1788.12
1788.11
1788.16
1789.29
1788.83
1788.47
1788.2
1788.02
1787.92
1787.9
1787.94
1788.93
1788.54
1788.23
1788
1787.84
1787.75
1787.73
1787.77
1788.58
1788.26
1788.01
1787.82
1787.69
1787.63
1787.61
1787.66
1788.29
1788.07
1787.87
1787.72
1787.61
1787.56
1787.55
1787.6
1694.4
1694.58
1694.79
1694.96
1695.09
1695.22
1695.37
1695.5
1694.82
1694.94
1695.03
1695.07
1695.11
1695.17
1695.27
1695.38
1694.92
1694.95
1694.97
1694.98
1695
1695.05
1695.14
1695.24
1694.89
1694.92
1694.93
1694.93
1694.95
1694.99
1695.06
1695.14
1694.87
1694.89
1694.89
1694.89
1694.9
1694.93
1694.98
1695.06
1694.87
1694.86
1694.86
1694.85
1694.86
1694.89
1694.93
1695.02
1694.88
1694.88
1694.86
1694.84
1694.84
1694.86
1694.9
1694.98
1601.5
1601.71
1601.96
1602.18
1602.38
1602.57
1602.75
1602.91
1601.65
1601.9
1602.1
1602.25
1602.39
1602.53
1602.68
1602.82
1601.71
1601.91
1602.07
1602.2
1602.32
1602.44
1602.58
1602.72
1601.79
1601.95
1602.08
1602.2
1602.31
1602.42
1602.54
1602.66
1601.87
1602
1602.11
1602.21
1602.31
1602.41
1602.51
1602.62
1601.95
1602.05
1602.15
1602.24
1602.33
1602.42
1602.51
1602.62
1602.05
1602.14
1602.21
1602.27
1602.34
1602.42
1602.51
1602.61
1510.62
1510.47
1510.44
1510.48
1510.57
1510.69
1510.85
1510.99
1510.62
1510.49
1510.44
1510.45
1510.5
1510.58
1510.71
1510.84
1510.49
1510.37
1510.33
1510.34
1510.38
1510.46
1510.57
1510.69
1510.41
1510.31
1510.27
1510.27
1510.32
1510.39
1510.5
1510.61
1510.32
1510.23
1510.21
1510.23
1510.28
1510.36
1510.46
1510.56
1510.21
1510.17
1510.18
1510.22
1510.28
1510.36
1510.45
1510.54
1510.16
1510.15
1510.17
1510.23
1510.29
1510.37
1510.46
1510.56
1419.4
1419.09
1418.94
1418.87
1418.88
1418.94
1419.05
1419.17
1419.44
1419.13
1418.93
1418.82
1418.78
1418.81
1418.9
1419
1419.28
1418.97
1418.78
1418.68
1418.64
1418.67
1418.74
1418.84
1419.11
1418.83
1418.67
1418.57
1418.54
1418.56
1418.63
1418.72
1418.89
1418.68
1418.55
1418.48
1418.46
1418.49
1418.56
1418.65
1418.68
1418.53
1418.45
1418.41
1418.42
1418.46
1418.52
1418.6
1418.52
1418.43
1418.39
1418.39
1418.41
1418.46
1418.53
1418.63
1327.28
1327.07
1326.98
1326.92
1326.91
1326.96
1327.05
1327.15
1327.48
1327.21
1327.02
1326.91
1326.86
1326.87
1326.93
1327.02
1327.37
1327.08
1326.9
1326.79
1326.73
1326.74
1326.8
1326.88
1327.18
1326.94
1326.78
1326.69
1326.64
1326.64
1326.69
1326.77
1326.97
1326.79
1326.66
1326.59
1326.55
1326.56
1326.61
1326.68
1326.79
1326.66
1326.56
1326.51
1326.48
1326.5
1326.55
1326.62
1326.65
1326.58
1326.51
1326.48
1326.47
1326.49
1326.54
1326.64
1234.86
1234.78
1234.76
1234.76
1234.78
1234.84
1234.94
1235.03
1235.07
1234.91
1234.82
1234.77
1234.75
1234.78
1234.85
1234.94
1234.99
1234.82
1234.73
1234.67
1234.65
1234.68
1234.74
1234.83
1234.83
1234.71
1234.64
1234.6
1234.58
1234.6
1234.66
1234.74
1234.68
1234.61
1234.56
1234.52
1234.51
1234.53
1234.59
1234.66
1234.59
1234.54
1234.49
1234.46
1234.45
1234.47
1234.52
1234.59
1234.54
1234.51
1234.47
1234.44
1234.43
1234.45
1234.51
1234.6
1142.52
1142.51
1142.55
1142.61
1142.67
1142.76
1142.86
1142.95
1142.55
1142.55
1142.57
1142.6
1142.63
1142.69
1142.77
1142.85
1142.48
1142.49
1142.5
1142.52
1142.55
1142.6
1142.68
1142.76
1142.45
1142.45
1142.45
1142.47
1142.49
1142.54
1142.61
1142.69
1142.42
1142.42
1142.42
1142.43
1142.45
1142.49
1142.56
1142.62
1142.39
1142.39
1142.39
1142.4
1142.42
1142.45
1142.51
1142.6
1142.38
1142.38
1142.38
1142.38
1142.4
1142.44
1142.5
1142.59
1050.82
1050.67
1050.62
1050.62
1050.65
1050.71
1050.79
1050.86
1050.8
1050.69
1050.62
1050.6
1050.61
1050.64
1050.7
1050.76
1050.72
1050.62
1050.55
1050.53
1050.52
1050.55
1050.6
1050.67
1050.69
1050.58
1050.52
1050.48
1050.47
1050.5
1050.55
1050.61
1050.63
1050.52
1050.46
1050.43
1050.43
1050.46
1050.51
1050.57
1050.53
1050.45
1050.41
1050.4
1050.42
1050.45
1050.5
1050.59
1050.44
1050.38
1050.36
1050.37
1050.39
1050.44
1050.49
1050.57
958.499
958.357
958.306
958.3
958.325
958.372
958.431
958.484
958.63
958.483
958.393
958.346
958.334
958.35
958.389
958.436
958.624
958.464
958.356
958.31
958.282
958.295
958.333
958.383
958.586
958.423
958.33
958.268
958.25
958.265
958.303
958.354
958.503
958.354
958.27
958.23
958.225
958.247
958.29
958.343
958.38
958.272
958.221
958.208
958.224
958.26
958.31
958.389
958.261
958.181
958.158
958.171
958.206
958.252
958.303
958.379
865.011
865.157
865.333
865.474
865.586
865.684
865.769
865.836
865.331
865.45
865.546
865.618
865.682
865.745
865.812
865.876
865.45
865.524
865.584
865.65
865.698
865.758
865.826
865.894
865.527
865.577
865.632
865.673
865.724
865.783
865.849
865.916
865.591
865.62
865.654
865.696
865.745
865.802
865.868
865.933
865.627
865.65
865.686
865.728
865.778
865.838
865.904
865.969
865.662
865.682
865.712
865.751
865.8
865.858
865.92
866.006
2353.42
2352.25
2351.17
2350.28
2349.62
2349.18
2348.95
2348.88
2355.32
2353.77
2352.4
2351.29
2350.45
2349.89
2349.6
2349.52
2357.51
2355.72
2354.04
2352.66
2351.58
2350.86
2350.48
2350.37
2359.41
2357.61
2355.65
2354.02
2352.76
2351.88
2351.42
2351.3
2356.9
2355.1
2353.76
2352.84
2352.36
2352.24
2353.14
2353.04
2254.31
2254.16
2253.93
2253.74
2253.61
2253.54
2253.53
2253.58
2254.31
2254.28
2254.14
2253.99
2253.87
2253.81
2253.82
2253.9
2253.91
2254.31
2254.38
2254.33
2254.22
2254.17
2254.2
2254.3
2252.59
2253.89
2254.34
2254.5
2254.51
2254.51
2254.58
2254.72
2251.16
2253.54
2254.3
2254.65
2254.8
2254.87
2254.98
2255.15
2250.03
2253.04
2254.19
2254.77
2255.05
2255.23
2255.41
2255.58
2250.4
2252.72
2253.9
2254.6
2255.04
2255.34
2255.57
2255.77
2156.24
2156.83
2157.27
2157.63
2157.92
2158.16
2158.37
2158.55
2155.18
2156.09
2156.8
2157.36
2157.78
2158.13
2158.42
2158.67
2153.8
2155.19
2156.24
2157.05
2157.62
2158.09
2158.48
2158.8
2152.01
2154.02
2155.52
2156.62
2157.41
2158.01
2158.52
2158.92
2151.19
2153.22
2155.08
2156.38
2157.32
2158.03
2158.6
2159.05
2150.78
2153.1
2155.12
2156.5
2157.48
2158.21
2158.8
2159.24
2151.67
2153.54
2155.26
2156.58
2157.59
2158.35
2158.94
2159.36
2064.35
2064.52
2064.67
2064.82
2064.96
2065.12
2065.32
2065.52
2064.48
2064.5
2064.63
2064.81
2064.99
2065.21
2065.48
2065.73
2065.21
2064.82
2064.82
2064.94
2065.13
2065.38
2065.69
2066.01
2067.13