/*--------------------------------*- C++ -*----------------------------------*\
| =========                 |                                                 |
| \\      /  F ield         | OpenFOAM: The Open Source CFD Toolbox           |
|  \\    /   O peration     | Version:  plus.master.MPPICInterFoam            |
|   \\  /    A nd           | Web:      www.OpenFOAM.com                      |
|    \\/     M anipulation  |                                                 |
\*---------------------------------------------------------------------------*/
FoamFile
{
    version     2.0;
    format      ascii;
    class       volScalarField;
    location    "13";
    object      p_rgh;
}
// * * * * * * * * * * * * * * * * * * * * * * * * * * * * * * * * * * * * * //

dimensions      [1 -1 -2 0 0 0 0];

internalField   nonuniform List<scalar> 
11821
(
5674.78
5677.21
5674.18
5611.66
5675.45
5673.02
5670.8
5671.26
5671.3
5670.99
5670.68
5670.21
5669.64
5451.06
5470.71
5419.92
5572.7
5670.06
5670.58
5670.02
4810.15
4027.96
4118.68
5080.08
5565.84
5670.75
5670.32
4509.44
3786.35
3677.06
4336.3
5388.99
5670.86
5670.53
4857.96
3975.18
3625.01
4150.2
5354.28
5670.58
5670.4
4936.94
4326.93
3948.5
4796.8
5300.32
5669.91
5670.02
4686.45
4706.38
4558.05
4958.71
5543.97
5669.56
5669.66
5666.72
5666.06
5666.59
5667.21
5667.93
5668.58
5669.09
5236.03
5194.7
5172.81
5505.9
5662.02
5667.84
5668.66
3915.69
3511.66
3631.31
4561.07
5488.55
5667.04
5668.24
3376.77
4510.93
4083.95
3685.79
5141.51
5666.23
5667.85
3959.76
4553.3
4544.3
3507.78
4998.44
5665.51
5667.54
3490.4
3612.06
3349.02
3896.96
4965.61
5665.78
5667.6
3775.47
3582.13
3524.88
4284.23
5405.55
5666.62
5667.98
5673.51
5672.67
5673.06
5673.24
5673.22
5673.27
5673.39
5202.27
5092.35
5120.74
5511.31
5668.22
5673.3
5673.36
3512.76
3457.83
3460.63
4479.34
5492.01
5673.66
5673.43
3285.23
4071.1
3561.03
3506.4
5108.7
5673.84
5673.47
3298.12
4549.23
4545.11
3371.9
4948.96
5673.36
5673.36
3283.57
3270.81
3271.05
3342.8
4963.72
5674.29
5673.72
3649.86
3291.46
3335.35
4223.88
5399.47
5674.45
5673.94
5682.13
5681.83
5681.79
5681.43
5680.8
5680.25
5679.77
5325.13
5229.42
5256.27
5572.32
5679.66
5680.88
5680.2
3746.11
3407.82
3549.35
4772.45
5563.14
5681.7
5680.68
3225.43
3215.71
3184.94
3721.66
5262.88
5682.39
5681.05
3224.46
4520.69
3969.23
3567.74
5153.54
5682.39
5681.17
3215.91
3213.22
3215.68
3607.02
5189.75
5682.86
5681.43
4025.01
3554.48
3709.06
4597.22
5482.06
5682.46
5681.35
5688.46
5688.41
5688.18
5687.62
5686.87
5686.1
5685.42
5449.04
5428.78
5401.88
5617.89
5687.83
5686.88
5685.98
4294.03
3536.13
3915.05
5103.86
5619.72
5687.7
5686.54
3322.21
3120.55
3122.9
4175.03
5418.6
5688.3
5686.96
3348.26
3599.07
3125.09
3815.5
5375.1
5688.33
5687.09
3688.66
3154.24
3163.3
4288.28
5360.3
5688.32
5687.16
4589.85
4216.78
4269.33
4942.4
5540.5
5687.84
5686.91
5691.14
5691.35
5691.25
5690.85
5690.4
5689.95
5689.53
5433.1
5442.3
5394.8
5620.85
5690.93
5690.4
5689.86
4297.93
3598.29
3969.24
5078.77
5622.99
5690.85
5690.17
3553.63
3057.3
3064.35
4181.58
5416.77
5691.23
5690.44
4066.72
3059.24
3059.23
3737.71
5373.86
5691.22
5690.51
4432.85
3163.61
3051.34
4337.44
5333.25
5691
5690.46
4446.88
4204.87
4151.69
4807.35
5523.99
5690.62
5690.25
5692.51
5692.76
5692.9
5692.89
5692.91
5692.93
5692.93
5335.46
5370.57
5335.43
5613.69
5692.81
5692.92
5692.93
3907.22
3483.05
3764.94
4948.25
5613.74
5692.95
5692.96
3329.97
3147.61
3494.85
3951.62
5367.84
5693.01
5693.02
3948.2
3578.59
3383.13
3585.43
5299
5692.89
5692.99
4238.46
3333.54
2968.22
3952.88
5232.96
5692.7
5692.93
3710.53
3564.87
3526.99
4422.86
5464.19
5692.64
5692.9
5696.7
5696.48
5696.62
5696.75
5696.9
5697.05
5697.16
5268.46
5280.44
5293.04
5612.49
5696.6
5696.94
5697.11
3441.58
3288.46
3560.25
4888.28
5610.57
5696.94
5697.09
2907.75
3736.6
3281.08
3787.62
5334.39
5696.97
5697.1
2963.59
4050.35
4027.85
3533.35
5244.27
5696.89
5697.07
2945.47
3148.63
2904.54
3537.31
5192.14
5696.98
5697.12
3230.24
3130.94
3132.93
4308.75
5438.12
5697.09
5697.19
5703.49
5703.19
5703.03
5702.89
5702.77
5702.66
5702.56
5286.77
5279.01
5300.62
5622.12
5702.89
5702.81
5702.68
3441.42
3191.35
3567.23
4929.91
5621.23
5703.03
5702.81
2851.46
3272.96
2854.55
3822.66
5347.71
5703.26
5702.92
2856.27
4021.01
3915.07
3504.62
5268.69
5703.29
5702.95
2861.27
2850.92
2847.27
3560.9
5225.2
5703.36
5702.99
3328.07
3075.29
3235.43
4413.8
5453.62
5703.23
5702.96
5709.55
5709.4
5709.21
5708.95
5708.66
5708.38
5708.14
5311.85
5298.41
5316.3
5632.06
5709.06
5708.69
5708.35
3605.55
3137.92
3687.87
5006.27
5634.41
5709.04
5708.58
2790.92
2790.53
2791.92
3959.37
5372.62
5709.34
5708.75
2904.47
3947.26
2818.84
3499.82
5299.79
5709.34
5708.79
2851.22
2787.69
2785.95
3722.6
5265.8
5709.41
5708.83
3689.83
3225.1
3445.8
4507.46
5467.59
5709.16
5708.74
5714.39
5714.44
5714.37
5714.08
5713.8
5713.55
5713.35
5296
5291.77
5312.75
5637.74
5714.11
5713.79
5713.51
3576.3
3109.62
3709.66
5002.46
5640.42
5714.09
5713.69
2728.46
2730.22
2759.68
3975.92
5370.48
5714.42
5713.87
3457.52
2817.25
2727.34
3448.99
5301.2
5714.44
5713.93
3405.89
2725.16
2724
3685.72
5257.22
5714.39
5713.95
3678.14
3186.42
3344.19
4428.13
5459.12
5714.11
5713.85
5718.93
5718.99
5718.92
5718.7
5718.5
5718.36
5718.26
5252.68
5270.7
5303.81
5643.48
5718.68
5718.49
5718.34
3398.96
3114.66
3669.19
4974.37
5645.45
5718.72
5718.47
2667.04
2819.12
3170.78
3942.63
5365.7
5719.03
5718.63
3229.98
3536.38
3288.06
3421.68
5300.26
5719.06
5718.7
3572.05
2662.38
2660.8
3593.42
5235.66
5719
5718.73
3303.26
2968.88
3010.47
4298.03
5443.77
5718.83
5718.69
5723.47
5723.27
5723.24
5723.24
5723.22
5723.21
5723.19
5234.04
5256.98
5298.13
5652.77
5723.24
5723.25
5723.24
3303.3
3141.94
3649.78
4958.2
5655.31
5723.39
5723.32
2620.18
3308.72
3214.51
3934.28
5367.98
5723.55
5723.42
2629.35
3593.46
3605.48
3505.85
5316.16
5723.59
5723.47
2900.69
2767.1
2597.54
3578.9
5236.21
5723.68
5723.54
2931.79
2793.89
2885.96
4286.07
5449.36
5723.67
5723.57
5729.05
5728.83
5728.76
5728.73
5728.67
5728.57
5728.45
5240.57
5257.2
5300.88
5666.51
5728.83
5728.74
5728.6
3373.16
3130.22
3666.8
4963.22
5672.86
5728.95
5728.75
2592.6
2757.38
2775.27
3943.56
5389.05
5729.19
5728.86
2578.92
3569.81
3591.67
3598.05
5360.99
5729.21
5728.88
2587.04
2639.42
2535.63
3681.88
5270.17
5729.15
5728.85
2998.95
2858.67
3035.88
4359.2
5480.75
5728.95
5728.75
5733.93
5733.86
5733.88
5733.8
5733.7
5733.56
5733.4
5240.78
5251.19
5308.79
5676.41
5733.92
5733.75
5733.55
3447.38
3050.41
3624.97
4965.45
5685.81
5733.95
5733.69
2492.63
2455.68
2457.16
3887.34
5414.26
5734.15
5733.78
2727.31
3377.75
2501.62
3522.91
5374.81
5734.02
5733.73
2581.09
2458.28
2464.54
3688.72
5304.27
5733.96
5733.68
3352.33
3059.26
3300.61
4348.68
5515.08
5733.73
5733.53
5737.22
5737.31
5737.47
5737.55
5737.66
5737.73
5737.78
5198.49
5197.9
5301.72
5678.23
5737.55
5737.68
5737.74
3275.78
2855.56
3465.68
4926.99
5687.68
5737.65
5737.71
2382.79
2386.39
2389.92
3677.45
5416.13
5737.67
5737.7
3610.07
2409.54
2391.53
3271.9
5339.1
5737.56
5737.64
2995.32
2389.9
2388.48
3490.98
5296.39
5737.53
5737.61
3352.21
2956.3
3176.54
4181.64
5516.74
5737.4
5737.54
5663.93
5664.45
5667.64
5666.76
5666.1
5665.63
5665.32
5665.15
5671.68
5669.65
5668.21
5667.13
5666.35
5665.82
5665.49
5665.32
5671.99
5670.02
5668.53
5667.41
5666.61
5666.08
5665.75
5665.6
5671.7
5670
5668.66
5667.64
5666.91
5666.41
5666.12
5665.99
5670.91
5669.65
5668.6
5667.78
5667.18
5666.77
5666.54
5666.44
5669.16
5668.8
5668.51
5668.29
5668.11
5667.98
5663.49
5658.46
5669.46
5668.99
5668.61
5668.31
5668.09
5667.81
5667.09
5667.42
5669.69
5669.15
5668.72
5668.38
5668.13
5667.95
5667.82
5667.75
5669.88
5669.32
5668.85
5668.48
5668.22
5668.04
5667.92
5667.86
5669.84
5669.35
5668.92
5668.57
5668.32
5668.15
5668.06
5668.02
5669.61
5669.26
5668.93
5668.66
5668.47
5668.34
5668.27
5668.26
5669.17
5668.94
5668.78
5668.64
5668.54
5668.48
5668.47
5668.5
5669.43
5669.71
5669.96
5670.15
5670.28
5670.37
5667.11
5663.24
5669.22
5669.6
5669.87
5670.07
5670.21
5670.24
5670.02
5670.23
5668.97
5669.42
5669.74
5669.97
5670.15
5670.27
5670.36
5670.41
5668.75
5669.27
5669.64
5669.92
5670.12
5670.27
5670.37
5670.46
5668.57
5669.16
5669.59
5669.89
5670.12
5670.29
5670.43
5670.54
5668.56
5669.16
5669.61
5669.94
5670.19
5670.38
5670.54
5670.67
5668.55
5669.05
5669.52
5669.89
5670.18
5670.43
5670.63
5670.77
5673.45
5673.6
5673.76
5673.91
5674.04
5674.15
5671.36
5666.75
5673.45
5673.6
5673.75
5673.89
5674.02
5674.09
5674.03
5674.15
5673.46
5673.58
5673.72
5673.86
5673.99
5674.11
5674.22
5674.31
5673.47
5673.56
5673.7
5673.85
5673.99
5674.12
5674.25
5674.36
5673.46
5673.58
5673.73
5673.88
5674.03
5674.18
5674.33
5674.46
5673.67
5673.74
5673.88
5674.03
5674.18
5674.33
5674.49
5674.62
5673.72
5673.79
5673.94
5674.1
5674.28
5674.46
5674.65
5674.79
5679.35
5679.16
5679.03
5678.97
5678.95
5678.97
5676.45
5670.88
5679.66
5679.36
5679.16
5679.04
5678.99
5678.96
5678.9
5678.96
5679.98
5679.57
5679.3
5679.13
5679.04
5679.02
5679.05
5679.1
5680.24
5679.76
5679.43
5679.24
5679.13
5679.1
5679.13
5679.2
5680.39
5679.9
5679.57
5679.37
5679.26
5679.23
5679.28
5679.36
5680.62
5680.11
5679.79
5679.58
5679.48
5679.45
5679.5
5679.57
5680.53
5680.14
5679.88
5679.72
5679.66
5679.67
5679.76
5679.86
5684.85
5684.5
5684.22
5684.04
5683.93
5683.88
5681.69
5676.21
5685.24
5684.74
5684.38
5684.13
5683.98
5683.89
5683.82
5683.87
5685.63
5685.01
5684.57
5684.26
5684.07
5683.97
5683.95
5683.98
5685.94
5685.26
5684.77
5684.42
5684.2
5684.09
5684.07
5684.11
5686.11
5685.44
5684.94
5684.58
5684.36
5684.25
5684.24
5684.28
5686.23
5685.59
5685.12
5684.79
5684.58
5684.47
5684.46
5684.46
5685.98
5685.5
5685.14
5684.89
5684.74
5684.69
5684.71
5684.77
5689.16
5688.92
5688.73
5688.6
5688.51
5688.47
5686.67
5682.41
5689.39
5689.05
5688.81
5688.63
5688.53
5688.46
5688.44
5688.5
5689.61
5689.21
5688.92
5688.72
5688.59
5688.53
5688.53
5688.58
5689.82
5689.38
5689.07
5688.84
5688.7
5688.64
5688.64
5688.7
5689.92
5689.5
5689.19
5688.96
5688.83
5688.77
5688.78
5688.84
5689.94
5689.57
5689.3
5689.1
5688.98
5688.93
5688.95
5688.9
5689.63
5689.37
5689.21
5689.11
5689.06
5689.06
5689.12
5688.92
5692.87
5692.86
5692.86
5692.86
5692.87
5692.89
5691.54
5688.01
5692.9
5692.86
5692.85
5692.84
5692.85
5692.87
5692.93
5693.01
5692.92
5692.88
5692.87
5692.86
5692.88
5692.92
5692.99
5693.07
5692.97
5692.94
5692.92
5692.92
5692.94
5692.99
5693.06
5693.15
5692.99
5692.97
5692.97
5692.98
5693.01
5693.06
5693.14
5693.24
5692.97
5692.99
5693.02
5693.05
5693.09
5693.16
5693.25
5693.23
5692.74
5692.78
5692.9
5693
5693.1
5693.22
5693.34
5692.57
5697.21
5697.29
5697.37
5697.44
5697.51
5697.58
5696.65
5693.07
5697.2
5697.29
5697.36
5697.43
5697.5
5697.57
5697.68
5697.77
5697.2
5697.28
5697.36
5697.44
5697.51
5697.6
5697.71
5697.81
5697.21
5697.29
5697.38
5697.46
5697.55
5697.64
5697.75
5697.87
5697.2
5697.3
5697.4
5697.49
5697.59
5697.69
5697.81
5697.93
5697.24
5697.34
5697.45
5697.56
5697.66
5697.78
5697.91
5697.96
5697.11
5697.21
5697.37
5697.53
5697.68
5697.83
5697.98
5696.69
5702.46
5702.45
5702.48
5702.52
5702.58
5702.66
5702.03
5698.34
5702.57
5702.54
5702.54
5702.56
5702.61
5702.66
5702.76
5702.84
5702.67
5702.6
5702.58
5702.58
5702.62
5702.68
5702.77
5702.87
5702.75
5702.65
5702.61
5702.62
5702.65
5702.72
5702.81
5702.92
5702.77
5702.68
5702.65
5702.66
5702.7
5702.77
5702.88
5702.98
5702.82
5702.73
5702.72
5702.74
5702.79
5702.87
5702.98
5703.05
5702.67
5702.63
5702.67
5702.74
5702.83
5702.94
5703.07
5701.7
5707.93
5707.84
5707.8
5707.79
5707.82
5707.87
5707.44
5703.72
5708.09
5707.95
5707.87
5707.84
5707.84
5707.86
5707.94
5708.01
5708.25
5708.05
5707.94
5707.87
5707.85
5707.88
5707.95
5708.04
5708.37
5708.14
5708
5707.92
5707.9
5707.93
5708
5708.1
5708.41
5708.19
5708.05
5707.98
5707.96
5708
5708.08
5708.15
5708.48
5708.26
5708.14
5708.08
5708.07
5708.11
5708.18
5708.24
5708.3
5708.16
5708.11
5708.09
5708.12
5708.19
5708.28
5707.06
5713.16
5713.07
5713.01
5712.98
5712.98
5713.01
5712.68
5709.03
5713.27
5713.13
5713.04
5713
5712.98
5713
5713.06
5713.13
5713.38
5713.21
5713.09
5713.02
5713
5713.02
5713.08
5713.17
5713.51
5713.3
5713.16
5713.08
5713.05
5713.07
5713.14
5713.23
5713.58
5713.37
5713.23
5713.15
5713.13
5713.15
5713.22
5713.27
5713.64
5713.44
5713.32
5713.25
5713.23
5713.25
5713.31
5713.31
5713.46
5713.34
5713.29
5713.26
5713.27
5713.32
5713.4
5712.7
5718.16
5718.11
5718.08
5718.06
5718.07
5718.09
5717.75
5714.33
5718.21
5718.13
5718.08
5718.06
5718.06
5718.09
5718.15
5718.22
5718.28
5718.17
5718.11
5718.08
5718.08
5718.12
5718.18
5718.27
5718.39
5718.25
5718.18
5718.14
5718.13
5718.17
5718.24
5718.32
5718.47
5718.33
5718.25
5718.21
5718.2
5718.23
5718.3
5718.33
5718.53
5718.41
5718.34
5718.3
5718.29
5718.31
5718.38
5718.15
5718.42
5718.34
5718.32
5718.31
5718.33
5718.38
5718.45
5718.32
5723.14
5723.13
5723.13
5723.14
5723.16
5723.2
5722.84
5719.76
5723.19
5723.16
5723.15
5723.15
5723.16
5723.21
5723.27
5723.34
5723.24
5723.2
5723.18
5723.17
5723.19
5723.23
5723.3
5723.38
5723.32
5723.26
5723.23
5723.22
5723.23
5723.27
5723.33
5723.41
5723.38
5723.31
5723.28
5723.27
5723.28
5723.31
5723.38
5723.41
5723.45
5723.38
5723.35
5723.34
5723.35
5723.38
5723.44
5722.84
5723.39
5723.35
5723.34
5723.35
5723.38
5723.44
5723.51
5723.41
5728.32
5728.27
5728.25
5728.25
5728.27
5728.31
5727.9
5725.3
5728.45
5728.37
5728.32
5728.29
5728.29
5728.32
5728.38
5728.44
5728.57
5728.45
5728.36
5728.32
5728.31
5728.33
5728.38
5728.45
5728.64
5728.5
5728.4
5728.35
5728.33
5728.35
5728.4
5728.46
5728.65
5728.51
5728.42
5728.37
5728.36
5728.37
5728.43
5728.49
5728.64
5728.51
5728.44
5728.41
5728.4
5728.43
5728.47
5727.63
5728.5
5728.42
5728.39
5728.39
5728.41
5728.46
5728.51
5727.21
5733.25
5733.19
5733.17
5733.17
5733.2
5733.25
5732.73
5730.71
5733.38
5733.28
5733.23
5733.21
5733.21
5733.24
5733.29
5733.34
5733.48
5733.35
5733.26
5733.22
5733.21
5733.23
5733.27
5733.34
5733.55
5733.39
5733.29
5733.23
5733.21
5733.23
5733.28
5733.34
5733.52
5733.38
5733.29
5733.24
5733.22
5733.25
5733.29
5733.35
5733.47
5733.35
5733.28
5733.25
5733.25
5733.27
5733.31
5732.48
5733.26
5733.18
5733.17
5733.19
5733.22
5733.26
5733.31
5728.65
5737.77
5737.8
5737.84
5737.88
5737.93
5737.99
5737.32
5735.93
5737.76
5737.79
5737.82
5737.86
5737.91
5737.97
5738.03
5738.1
5737.74
5737.77
5737.8
5737.84
5737.88
5737.94
5738.01
5738.09
5737.73
5737.76
5737.79
5737.82
5737.87
5737.93
5738.01
5738.08
5737.69
5737.73
5737.76
5737.81
5737.86
5737.93
5738
5738.07
5737.64
5737.69
5737.74
5737.8
5737.86
5737.92
5737.99
5737.4
5737.47
5737.53
5737.63
5737.72
5737.8
5737.88
5737.96
5731.8
5458.17
5668.39
5669.59
5670.26
5670.66
5670.95
5671.17
5671.38
4775.27
5561.6
5669.08
5669.46
5669.6
5670.71
5671.07
5671.34
4796.97
5419.02
5669.74
5670.46
5670.31
5670.77
5671.11
5671.35
4872.61
5537.65
5670.38
5670.76
5670.67
5669.7
5670.95
5671.26
5286.69
5669.95
5670.63
5670.78
5667.86
5668.72
5670.86
5671.04
5659.77
5670.81
5670.85
5670.74
5670.61
5670.4
5670.59
5670.74
5671.03
5671.1
5670.77
5670.62
5670.41
5670.35
5670.35
5670.41
5266.33
5666.2
5667.81
5669.11
5670.13
5670.89
5671.49
5671.94
3884.9
5438.32
5666.97
5668.48
5669.56
5670.55
5671.27
5671.83
3680.19
5133.24
5666.5
5668.17
5669.36
5670.24
5671.06
5671.64
3903.5
5372.72
5667.07
5668.49
5667.77
5669.02
5671.03
5671.48
4908.82
5666.13
5667.92
5669.03
5666.96
5669.16
5671.23
5671.67
5630.12
5667.83
5668.92
5669.76
5670.35
5670.7
5671.31
5671.68
5668.09
5669.05
5669.64
5670.27
5670.68
5671.08
5671.39
5671.62
5242.39
5676.24
5675.66
5675.59
5675.72
5675.97
5676.37
5676.77
3839.92
5445.8
5675.99
5675.55
5675.58
5675.82
5676.26
5676.77
3418.87
5116.7
5675.62
5675.09
5675.13
5675.42
5675.97
5676.49
3674.31
5347.98
5674.87
5674.66
5671.74
5673.84
5675.66
5675.94
4853.88
5674.59
5674.43
5674.02
5671.66
5673.87
5675.58
5675.89
5624.38
5673.88
5674.06
5674.36
5674.58
5674.79
5675.37
5675.75
5673.6
5673.76
5674.01
5674.37
5674.64
5674.94
5675.24
5675.51
5314.24
5683.55
5682.78
5682.34
5682.11
5682.09
5682.34
5682.68
4345.71
5527.75
5683.61
5682.75
5682.35
5682.26
5682.51
5682.92
3783.12
5289.37
5683.17
5682.5
5682.18
5682.13
5682.38
5682.79
4012.89
5444.7
5682.94
5682.27
5679.72
5680.95
5681.9
5682.19
5050.07
5683.19
5682.21
5680.7
5678.3
5680.59
5681.69
5681.8
5642.03
5681.62
5681.25
5681.02
5680.79
5680.79
5681.15
5681.43
5681.3
5680.94
5680.73
5680.62
5680.54
5680.58
5680.74
5680.95
5327.41
5687.34
5688.09
5687.6
5687.26
5687.15
5687.31
5687.56
4989.18
5523.37
5688.94
5688.2
5687.69
5687.46
5687.56
5687.86
4710.69
5379.54
5689.11
5688.4
5687.85
5687.57
5687.51
5687.87
4620.43
5501.03
5689.07
5688.27
5687.34
5687.27
5687.06
5687.32
5223.74
5688.99
5688.24
5686.58
5684.22
5686.56
5686.94
5686.96
5659.37
5687.81
5687.23
5686.75
5686.27
5686.19
5686.37
5686.55
5687.6
5687.09
5686.64
5686.26
5685.98
5685.87
5685.92
5686.05
5192.75
5685.44
5690.17
5690.3
5690.41
5690.56
5690.8
5691.07
4783.02
5373.83
5690.51
5690.59
5690.56
5690.61
5690.84
5691.15
4782.61
5217.21
5690.16
5690.86
5690.71
5690.69
5690.64
5691.11
4555.99
5426.08
5691.01
5690.85
5690.67
5690.61
5690.36
5690.63
5136.6
5688.02
5690.72
5689.98
5690.1
5690.27
5690.45
5690.6
5657.66
5690.57
5690.41
5690.22
5689.89
5689.96
5690.19
5690.37
5690.75
5690.6
5690.34
5690.1
5689.94
5689.88
5689.95
5690.08
4944.75
5687.52
5692.33
5692.96
5693.44
5693.83
5694.2
5694.52
3772.35
5169.71
5691.87
5692.58
5693.11
5693.52
5693.94
5694.36
3950.12
4867.24
5691.53
5692.32
5692.85
5693.28
5693.55
5694.14
3928.83
5231.02
5691.91
5692.49
5692.9
5693.27
5693.32
5693.68
4852.92
5682.99
5692.25
5692.68
5693.02
5693.18
5693.59
5693.91
5639.52
5692.31
5692.69
5692.95
5692.94
5693.24
5693.62
5693.88
5692.7
5693.04
5693.16
5693.23
5693.33
5693.45
5693.62
5693.81
4894.88
5694.92
5697.48
5697.81
5698.12
5698.42
5698.76
5699.08
3309.67
5155.15
5697.39
5697.56
5697.85
5698.15
5698.56
5699
3041.81
4778.21
5697.11
5697.24
5697.53
5697.88
5698.26
5698.68
3386.43
5143.91
5697.03
5697.18
5697.45
5697.78
5698
5698.26
4707.26
5683.08
5696.89
5697.19
5697.46
5697.58
5698.1
5698.44
5626.94
5696.7
5697.03
5697.3
5697.33
5697.67
5698.1
5698.39
5696.86
5697.14
5697.23
5697.51
5697.69
5697.88
5698.1
5698.31
4943.79
5700.18
5703.94
5703.82
5703.81
5703.91
5704.14
5704.41
3551.83
5228.4
5704.63
5704.12
5703.93
5703.95
5704.21
5704.58
3128.77
4880.01
5704.74
5704.09
5703.86
5703.88
5704.14
5704.17
3463.29
5179.36
5704.35
5703.86
5703.69
5703.74
5703.89
5703.97
4754.61
5689.03
5703.72
5703.51
5703.33
5703.33
5703.74
5704.01
5633.56
5703.35
5703.24
5703.19
5703
5703.22
5703.56
5703.8
5703.15
5702.94
5702.9
5703.06
5703.11
5703.22
5703.4
5703.59
4941.62
5694.09
5709.14
5709.03
5708.98
5709.06
5709.26
5709.51
4268.48
5229.95
5709.97
5709.53
5709.3
5709.26
5709.48
5709.81
3883.04
4972.22
5703.79
5709.58
5709.38
5709.36
5709.55
5709.48
3733.95
5200.04
5710.05
5709.59
5709.35
5709.31
5709.36
5709.38
4813.67
5691.35
5709.47
5709.22
5708.85
5708.87
5709.22
5709.4
5639.5
5709.14
5709
5708.81
5708.55
5708.72
5708.96
5709.17
5709.05
5708.71
5708.59
5708.65
5708.59
5708.64
5708.75
5708.91
4790.5
5679.81
5713.44
5713.58
5713.69
5713.86
5714.11
5714.37
4336.61
5035.44
5712.64
5713.88
5713.87
5713.97
5714.24
5714.57
4209.7
4824.64
5698.17
5714
5713.98
5714.06
5714.28
5714.33
3660.77
5117.49
5714.22
5714.11
5714.04
5714.06
5714.11
5714.14
4748.99
5684.05
5713.95
5713.91
5713.64
5713.79
5714.1
5714.26
5636.7
5713.67
5713.82
5713.69
5713.5
5713.76
5713.93
5714.12
5714
5713.84
5713.77
5713.74
5713.69
5713.72
5713.81
5713.95
4559.03
5681.24
5718.7
5718.78
5718.89
5719.05
5719.27
5719.5
3639.44
4768.7
5718.48
5718.65
5718.72
5718.87
5719.16
5719.48
3603.73
4466.6
5705.4
5718.49
5718.56
5718.72
5718.97
5719.3
3294.84
4929.98
5718.74
5718.65
5718.63
5718.67
5718.76
5718.9
4586.4
5669.24
5718.49
5718.51
5718.33
5718.61
5718.85
5719.06
5624.24
5718.08
5718.5
5718.41
5718.39
5718.62
5718.78
5718.97
5718.72
5718.72
5718.68
5718.62
5718.6
5718.65
5718.75
5718.88
4550.43
5691.17
5724.26
5724.2
5724.21
5724.29
5724.44
5724.63
2967.03
4773.64
5724.17
5723.99
5723.97
5724.06
5724.31
5724.6
2707.78
4397.86
5717.06
5723.74
5723.71
5723.75
5724.05
5724.42
3074.81
4883.49
5723.8
5723.64
5723.63
5723.63
5723.89
5724.28
4530.08
5658.36
5723.45
5723.48
5723.52
5723.66
5723.87
5724.12
5622.37
5722.87
5723.39
5723.36
5723.52
5723.64
5723.8
5723.98
5723.41
5723.51
5723.54
5723.55
5723.59
5723.66
5723.77
5723.89
4662.61
5695.74
5729.32
5729.2
5729.14
5729.15
5729.24
5729.38
3148.39
4936.26
5729.96
5729.46
5729.23
5729.19
5729.33
5729.56
2834.04
4579.21
5718.75
5729.41
5729.18
5729.03
5729.27
5729.57
3203.66
4934.56
5729.56
5729.21
5729.06
5728.94
5729.19
5729.46
4559.38
5657.3
5729.09
5728.94
5728.89
5728.91
5729.05
5729.24
5631.11
5728.44
5728.82
5728.72
5728.77
5728.81
5728.92
5729.05
5728.83
5728.8
5728.76
5728.72
5728.72
5728.75
5728.83
5728.93
4679.53
5684.7
5733.15
5733.2
5733.24
5733.31
5733.43
5733.56
4007.78
4999.17
5726.03
5733.71
5733.57
5733.55
5733.67
5733.87
3975.15
4770.14
5701.18
5733.92
5733.77
5733.68
5733.83
5734.05
3578.12
4946.11
5734.2
5733.95
5733.79
5733.64
5733.84
5734.01
4548.38
5653.91
5733.84
5733.72
5733.66
5733.65
5733.73
5733.87
5642.01
5733.22
5733.63
5733.57
5733.54
5733.56
5733.63
5733.72
5733.67
5733.61
5733.55
5733.5
5733.48
5733.5
5733.55
5733.63
4488.59
5641.8
5735.99
5736.47
5736.82
5737.12
5737.38
5737.58
4299.03
4766.5
5712.54
5736.79
5737.06
5737.3
5737.55
5737.8
4450.2
4549.93
5674.02
5736.94
5737.22
5737.43
5737.66
5737.91
3503.45
4781.92
5735.81
5737.15
5737.36
5737.49
5737.77
5737.96
4374.86
5629.84
5736.85
5737.21
5737.44
5737.62
5737.79
5737.89
5638.55
5736.27
5737.22
5737.44
5737.59
5737.73
5737.85
5737.97
5737.2
5737.42
5737.54
5737.65
5737.74
5737.83
5737.91
5738.01
5670.48
5669.88
5669.26
5669.98
5669.92
5669.82
5669.79
5669.81
5670.98
5669.73
5669.4
5669.94
5669.72
5669.52
5669.42
5669.41
5670.98
5669.61
5670.01
5669.68
5669.35
5669.13
5668.96
5668.96
5670.65
5670.2
5669.74
5669.34
5669.02
5668.79
5668.62
5668.6
5670.23
5669.71
5669.33
5668.98
5668.7
5668.5
5668.36
5668.29
5669.75
5669.32
5668.95
5668.65
5668.42
5668.24
5668.07
5667.9
5669.34
5669.02
5668.7
5668.44
5668.24
5668.08
5665.82
5658.97
5667.86
5667.93
5668.8
5670.09
5670.55
5670.88
5671.13
5671.31
5667.86
5668
5669.03
5670.2
5670.54
5670.8
5670.99
5671.15
5668.13
5668.24
5669.64
5670.13
5670.43
5670.65
5670.79
5670.96
5668.46
5669.22
5669.75
5670.12
5670.38
5670.58
5670.7
5670.84
5668.8
5669.36
5669.84
5670.15
5670.38
5670.53
5670.64
5670.7
5669.17
5669.6
5669.94
5670.18
5670.36
5670.48
5670.42
5667.66
5669.53
5669.84
5670.07
5670.24
5670.36
5670.45
5667.88
5661.17
5673.28
5672.47
5673.43
5674.08
5674.37
5674.65
5674.91
5675.12
5673.02
5672.39
5673.38
5674.01
5674.27
5674.5
5674.72
5674.9
5673.13
5673.04
5673.58
5673.89
5674.12
5674.33
5674.49
5674.69
5673.25
5673.42
5673.64
5673.86
5674.07
5674.24
5674.41
5674.56
5673.26
5673.44
5673.67
5673.86
5674.05
5674.21
5674.35
5674.45
5673.33
5673.51
5673.7
5673.88
5674.05
5674.19
5674.07
5669.88
5673.48
5673.64
5673.8
5673.95
5674.09
5674.2
5671.2
5664.72
5681.03
5679.72
5680.12
5680.08
5680.04
5680.1
5680.24
5680.4
5680.88
5679.43
5679.85
5679.87
5679.8
5679.81
5679.9
5680.03
5680.75
5680.16
5679.8
5679.62
5679.54
5679.53
5679.56
5679.7
5680.51
5679.97
5679.63
5679.43
5679.33
5679.29
5679.35
5679.42
5680.1
5679.67
5679.39
5679.23
5679.16
5679.15
5679.19
5679.25
5679.68
5679.37
5679.18
5679.07
5679.03
5679.04
5678.81
5674.07
5679.38
5679.19
5679.07
5679
5678.99
5679.01
5675.51
5669.2
5687.15
5686.33
5685.93
5685.61
5685.41
5685.34
5685.38
5685.47
5687.17
5686.22
5685.66
5685.38
5685.13
5685.01
5684.96
5685.06
5686.94
5686.1
5685.48
5685.08
5684.81
5684.67
5684.6
5684.69
5686.52
5685.74
5685.19
5684.79
5684.53
5684.36
5684.34
5684.35
5685.95
5685.31
5684.83
5684.49
5684.28
5684.15
5684.12
5684.15
5685.37
5684.88
5684.51
5684.24
5684.08
5683.99
5683.68
5678.19
5684.9
5684.57
5684.29
5684.1
5683.98
5683.92
5680.32
5673.78
5690.29
5689.99
5689.67
5689.61
5689.53
5689.51
5689.57
5689.65
5690.63
5690.18
5689.78
5689.56
5689.4
5689.31
5689.27
5689.38
5690.53
5690.02
5689.63
5689.35
5689.16
5689.06
5689.02
5689.11
5690.23
5689.77
5689.41
5689.14
5688.96
5688.84
5688.84
5688.86
5689.88
5689.49
5689.18
5688.94
5688.79
5688.7
5688.68
5688.71
5689.53
5689.21
5688.96
5688.77
5688.64
5688.57
5688.27
5681.15
5689.24
5689.02
5688.82
5688.66
5688.56
5688.51
5684.88
5678.12
5692.46
5692.59
5692.67
5693
5693.16
5693.29
5693.43
5693.56
5692.89
5692.99
5693.04
5693.12
5693.17
5693.24
5693.3
5693.44
5692.98
5693.02
5693.03
5693.04
5693.07
5693.09
5693.19
5693.31
5692.96
5692.98
5692.99
5692.99
5693.01
5693.03
5693.12
5693.21
5692.94
5692.95
5692.95
5692.95
5692.96
5692.99
5693.05
5693.12
5692.93
5692.93
5692.92
5692.92
5692.93
5692.95
5692.73
5685.32
5692.94
5692.95
5692.93
5692.91
5692.9
5692.92
5689.38
5682.36
5696.69
5696.72
5696.96
5697.35
5697.56
5697.75
5697.94
5698.1
5696.84
5697.02
5697.24
5697.43
5697.57
5697.71
5697.86
5698
5696.9
5697.09
5697.25
5697.38
5697.5
5697.59
5697.76
5697.9
5696.97
5697.13
5697.26
5697.38
5697.49
5697.59
5697.72
5697.84
5697.06
5697.18
5697.29
5697.4
5697.49
5697.59
5697.7
5696.67
5697.13
5697.24
5697.33
5697.42
5697.51
5697.6
5697.42
5691.63
5697.23
5697.32
5697.39
5697.46
5697.53
5697.61
5694.33
5687.4
5702.92
5702.57
5702.57
5702.78
5702.87
5703
5703.15
5703.29
5702.92
5702.72
5702.72
5702.75
5702.8
5702.89
5703.01
5703.14
5702.8
5702.68
5702.63
5702.64
5702.68
5702.72
5702.87
5703
5702.72
5702.61
5702.57
5702.58
5702.62
5702.68
5702.8
5702.91
5702.62
5702.54
5702.51
5702.53
5702.57
5702.66
5702.76
5700.24
5702.51
5702.48
5702.48
5702.52
5702.58
5702.66
5702.45
5699.42
5702.46
5702.45
5702.48
5702.53
5702.6
5702.68
5699.54
5692.56
5708.82
5708.32
5708.27
5708.3
5708.3
5708.36
5708.48
5708.59
5708.87
5708.5
5708.34
5708.24
5708.21
5708.24
5708.32
5708.42
5708.71
5708.39
5708.21
5708.1
5708.07
5708.04
5708.16
5708.26
5708.53
5708.26
5708.09
5708
5707.89
5707.97
5708.05
5708.14
5708.32
5708.1
5707.97
5707.86
5707.87
5707.91
5707.98
5705.56
5708.1
5707.95
5707.87
5707.83
5707.84
5707.88
5707.61
5705.83
5707.94
5707.86
5707.81
5707.81
5707.83
5707.88
5704.81
5697.31
5713.82
5713.56
5713.5
5713.46
5713.46
5713.5
5713.59
5713.69
5714.02
5713.73
5713.56
5713.45
5713.4
5713.41
5713.47
5713.56
5713.91
5713.62
5713.44
5713.33
5713.28
5713.24
5713.33
5713.42
5713.72
5713.48
5713.32
5712.92
5713.07
5713.17
5713.23
5713.31
5713.51
5713.33
5713.2
5713.05
5713.08
5713.1
5713.15
5712.44
5713.33
5713.2
5713.1
5713.04
5713.02
5713.04
5712.68
5710.88
5713.2
5713.12
5713.05
5713.02
5713.01
5713.03
5709.86
5701.92
5718.52
5718.44
5718.42
5718.42
5718.44
5718.5
5718.6
5718.69
5718.73
5718.57
5718.48
5718.43
5718.41
5718.42
5718.5
5718.6
5718.65
5718.48
5718.39
5718.33
5718.14
5718.29
5718.4
5718.49
5718.49
5718.37
5718.3
5717.1
5718.12
5718.26
5718.32
5718.4
5718.34
5718.27
5718.18
5718.09
5718.16
5718.19
5718.25
5718.32
5718.25
5718.2
5718.14
5718.11
5718.11
5718.13
5717.57
5713.82
5718.2
5718.17
5718.13
5718.1
5718.09
5718.11
5714.74
5706.68
5723.3
5723.29
5723.33
5723.38
5723.45
5723.54
5723.64
5723.73
5723.33
5723.33
5723.35
5723.38
5723.41
5723.42
5723.55
5723.63
5723.26
5723.27
5723.28
5722.81
5722.92
5723.35
5723.45
5723.53
5723.23
5723.23
5722.64
5722.06
5723.17
5723.32
5723.39
5723.46
5723.2
5723.19
5723.07
5723.11
5723.23
5723.27
5723.34
5723.4
5723.17
5723.17
5723.15
5723.17
5723.19
5723.23
5722.23
5713.61
5723.16
5723.16
5723.16
5723.16
5723.18
5723.22
5719.45
5711.54
5728.72
5728.57
5728.52
5728.52
5728.55
5728.61
5728.69
5728.76
5728.7
5728.58
5728.52
5728.5
5728.46
5728.49
5728.59
5728.66
5728.62
5728.52
5728.45
5726.73
5728
5728.44
5728.5
5728.55
5728.59
5728.47
5726.43
5727.16
5728.31
5728.4
5728.44
5728.51
5728.53
5728.42
5728.16
5728.25
5728.33
5728.36
5728.41
5728.47
5728.43
5728.35
5728.28
5728.29
5728.31
5728.35
5726.65
5716.5
5728.34
5728.27
5728.25
5728.26
5728.29
5728.34
5724.2
5716.39
5733.52
5733.37
5733.32
5733.32
5733.34
5733.39
5733.45
5733.5
5733.65
5733.5
5733.4
5733.35
5733.2
5733.32
5733.41
5733.45
5733.64
5733.48
5733.3
5731.52
5732.9
5733.31
5733.35
5733.38
5733.6
5733.44
5731.2
5732.14
5733.24
5733.28
5733.32
5733.37
5733.52
5733.37
5733.07
5733.19
5733.24
5733.26
5733.31
5733.36
5733.4
5733.29
5733.21
5733.22
5733.24
5733.28
5731.4
5723.71
5733.28
5733.2
5733.17
5733.19
5733.22
5733.27
5729
5721.06
5737.15
5737.29
5737.47
5737.61
5737.72
5737.82
5737.9
5737.97
5737.47
5737.59
5737.68
5737.72
5737.61
5737.85
5737.95
5738.01
5737.59
5737.66
5737.14
5735.94
5737.53
5737.89
5737.96
5738.01
5737.66
5737.71
5735.58
5736.88
5737.85
5737.92
5737.98
5738.05
5737.73
5737.76
5737.58
5737.8
5737.88
5737.94
5738
5738.06
5737.76
5737.79
5737.8
5737.86
5737.91
5737.97
5736.63
5735.01
5737.8
5737.82
5737.85
5737.89
5737.94
5737.99
5733.59
5725.56
5671.66
5670.49
5669.4
5668.47
5667.84
5667.42
5667.18
5667.11
5673.55
5671.31
5669.95
5669.46
5668.68
5668.13
5667.84
5667.73
5675.74
5673.84
5668.46
5666.64
5669.07
5669.04
5668.7
5668.58
5629.8
5675.8
5672.67
5668
5666.86
5669.74
5669.26
5669.21
5675.13
5672.42
5670.05
5670.83
5670.51
5669.79
5671.35
5670.33
5669.66
5669.51
5669.28
5669.09
5668.96
5668.89
5668.88
5668.92
5669.66
5668.99
5668.6
5668.98
5669.14
5669.16
5669.17
5669.24
5669.27
5669.56
5665.98
5665.3
5669.03
5669.52
5669.55
5669.63
5566.19
5669.19
5668.68
5665.48
5666.32
5669.48
5669.53
5669.7
5259.23
5668.89
5669.65
5668.9
5668.68
5670.05
5670.31
5670.43
5255.93
5668.39
5669.54
5670.04
5670.38
5670.58
5670.75
5670.73
5552.43
5668.07
5669.25
5669.95
5670.39
5670.69
5670.93
5671.08
5668.71
5669.3
5669.74
5670.1
5670.39
5670.63
5670.84
5670.98
5667.65
5668.28
5667.69
5667.72
5669.87
5670.6
5670.89
5671.14
5666.25
5667.56
5664.93
5665.02
5669.75
5670.56
5670.95
5671.25
5473.63
5666.45
5667.06
5664.59
5667.46
5670.06
5670.91
5671.06
4874.94
5665.72
5667.54
5667.46
5668.71
5670.42
5671.06
5671.45
4850.4
5665.63
5667.59
5668.95
5669.93
5670.68
5671.26
5671.71
5432.11
5666.01
5667.73
5669.05
5670.06
5670.82
5671.41
5671.83
5673.94
5674.11
5674.26
5674.4
5674.54
5674.71
5674.91
5675.01
5674.07
5674.09
5672.09
5671.44
5673.84
5674.8
5675.07
5675.31
5672.91
5674.27
5670.48
5671.24
5674.58
5674.96
5675.28
5675.6
5481.45
5675.08
5673.72