/*--------------------------------*- C++ -*----------------------------------*\
| =========                 |                                                 |
| \\      /  F ield         | OpenFOAM: The Open Source CFD Toolbox           |
|  \\    /   O peration     | Version:  plus.master.MPPICInterFoam            |
|   \\  /    A nd           | Web:      www.OpenFOAM.com                      |
|    \\/     M anipulation  |                                                 |
\*---------------------------------------------------------------------------*/
FoamFile
{
    version     2.0;
    format      ascii;
    class       scalarField;
    location    "5.6/lagrangian/kinematicCloud";
    object      age;
}
// * * * * * * * * * * * * * * * * * * * * * * * * * * * * * * * * * * * * * //


32
(
5.53711
5.27413
5.31009
5.32815
5.3086
5.2727
5.5884
5.40475
5.48994
5.5254
5.2765
5.44903
5.58149
5.1108
5.54879
4.86077
4.91428
5.28304
5.59948
5.29959
5.5089
4.71234
5.16882
5.07623
5.46466
4.69367
5.33119
5.4422
5.56597
4.84769
5.4498
5.57063
)


// ************************************************************************* //
