/*--------------------------------*- C++ -*----------------------------------*\
| =========                 |                                                 |
| \\      /  F ield         | OpenFOAM: The Open Source CFD Toolbox           |
|  \\    /   O peration     | Version:  plus.master.MPPICInterFoam            |
|   \\  /    A nd           | Web:      www.OpenFOAM.com                      |
|    \\/     M anipulation  |                                                 |
\*---------------------------------------------------------------------------*/
FoamFile
{
    version     2.0;
    format      ascii;
    class       vectorField;
    location    "5.6/lagrangian/kinematicCloud";
    object      U;
}
// * * * * * * * * * * * * * * * * * * * * * * * * * * * * * * * * * * * * * //


32
(
(-0.00100889 -0.0083125 0.346673)
(-0.00156349 0.00516893 0.376999)
(-0.00123957 0.0097549 0.382822)
(0.00145122 -0.0172206 0.389308)
(-0.00117861 -0.0170037 0.386171)
(-0.0115792 -0.00160854 0.381304)
(-0.0141461 -0.00136478 0.388639)
(-0.00152228 -0.0214111 0.414114)
(-0.00311967 -0.0170689 0.397177)
(-0.00219875 -0.019735 0.416663)
(-0.00246888 -0.0128969 0.41434)
(-0.00030056 -0.000304832 0.381186)
(0.00373072 -0.00036759 0.413793)
(0.0110818 0.00026004 0.413932)
(-0.00537237 -0.041537 0.429691)
(-0.00355111 -0.0133469 0.39987)
(-0.00280604 -0.0106232 0.394825)
(-0.00350358 -0.00962969 0.399668)
(0.00232504 0.000945013 0.422907)
(0.00362566 -0.00880076 0.405961)
(0.00832251 0.00146408 0.399811)
(0.00409658 -0.00298889 0.414536)
(0.00705455 0.000311809 0.429328)
(0.00479379 -0.0141681 0.404685)
(-0.0902965 -0.00157202 0.378676)
(0.00599713 -0.0171539 0.396936)
(0.00659949 0.0128369 0.390963)
(0.00679829 -0.000687553 0.39719)
(-0.0156579 -0.000476826 0.377419)
(0.00583214 0.0119874 0.392425)
(-0.0228316 -0.00547523 0.388263)
(0.00381138 0.0130973 0.400271)
)


// ************************************************************************* //
