/*--------------------------------*- C++ -*----------------------------------*\
| =========                 |                                                 |
| \\      /  F ield         | OpenFOAM: The Open Source CFD Toolbox           |
|  \\    /   O peration     | Version:  plus.master.MPPICInterFoam            |
|   \\  /    A nd           | Web:      www.OpenFOAM.com                      |
|    \\/     M anipulation  |                                                 |
\*---------------------------------------------------------------------------*/
FoamFile
{
    version     2.0;
    format      ascii;
    class       vectorField;
    location    "5.6/lagrangian/kinematicCloud";
    object      UCorrect;
}
// * * * * * * * * * * * * * * * * * * * * * * * * * * * * * * * * * * * * * //


32
(
(-6.38006e-07 0.00136562 1.38038e-06)
(1.29378e-12 0.00040522 -0.000138307)
(1.29378e-12 -1.67346e-05 -0.000224599)
(-3.1852e-07 -1.73194e-08 -7.33465e-07)
(-6.38006e-07 0.000737415 -0.000444845)
(-3.15967e-13 1.20019e-14 -4.89053e-15)
(-4.42044e-10 -6.8083e-14 -1.85693e-09)
(-1.92192e-08 -3.19127e-06 -6.62807e-08)
(-0.00175377 0.000193728 -6.93981e-07)
(-6.92276e-05 -0.0028075 -6.93981e-07)
(-6.48585e-07 -2.02141e-09 -1.55101e-06)
(9.86256e-19 1.79924e-19 -2.40393e-36)
(5.99596e-19 4.38655e-19 -2.51194e-19)
(-4.26442e-19 2.32966e-19 2.35454e-19)
(5.56197e-12 9.12682e-13 3.38546e-12)
(0.000171241 -2.2569e-05 1.69033e-10)
(0.000198458 -2.51819e-05 1.69033e-10)
(3.17131e-08 1.88793e-07 -3.49064e-07)
(-1.57949e-18 8.38793e-19 0)
(1.81543e-19 -1.15387e-18 -2.43893e-19)
(-9.11257e-20 9.83332e-20 3.81958e-19)
(7.13901e-17 -4.33936e-18 -4.36708e-16)
(3.43259e-18 1.02691e-20 -1.33304e-19)
(7.66721e-19 -5.63639e-19 -2.0763e-22)
(-6.06052e-19 -4.67613e-20 1.7246e-21)
(1.54953e-21 -7.51951e-22 0)
(-6.39889e-20 2.42066e-18 1.21947e-19)
(2.32564e-18 4.51326e-19 3.03097e-35)
(-4.46809e-19 9.04128e-19 -3.6584e-19)
(2.15635e-19 -2.87008e-21 4.1526e-22)
(4.3428e-20 1.02691e-20 2.66607e-19)
(1.91774e-21 -1.21742e-20 1.3824e-18)
)


// ************************************************************************* //
