/*--------------------------------*- C++ -*----------------------------------*\
| =========                 |                                                 |
| \\      /  F ield         | OpenFOAM: The Open Source CFD Toolbox           |
|  \\    /   O peration     | Version:  plus.master                           |
|   \\  /    A nd           | Web:      www.OpenFOAM.com                      |
|    \\/     M anipulation  |                                                 |
\*---------------------------------------------------------------------------*/
FoamFile
{
    version     2.0;
    format      ascii;
    class       surfaceScalarField;
    location    "12.8";
    object      phi;
}
// * * * * * * * * * * * * * * * * * * * * * * * * * * * * * * * * * * * * * //

dimensions      [0 3 -1 0 0 0 0];

internalField   nonuniform List<scalar> 
138768
(
2.07348e-06
3.75882e-06
1.11779e-07
-2.51845e-06
-3.77615e-06
1.27594e-06
4.05389e-06
4.45724e-07
-3.97044e-06
-5.58237e-07
4.99823e-06
8.14431e-07
-4.44333e-06
-2.43762e-06
4.91697e-06
8.37832e-07
-4.36383e-06
-3.57674e-06
4.51801e-06
4.3543e-07
-4.03589e-06
-3.61591e-06
3.22593e-06
1.29089e-07
-3.32268e-06
2.96504e-06
4.64951e-09
-3.67895e-06
-2.99564e-06
2.71655e-06
3.54251e-06
4.68129e-07
-2.96882e-06
3.90455e-06
7.05918e-06
2.20642e-06
2.37375e-07
1.18012e-05
3.26432e-06
-4.03064e-06
1.17023e-05
3.88233e-06
-6.77204e-06
1.08836e-05
2.77559e-06
-3.85078e-06
5.28055e-06
1.42314e-06
2.47486e-06
7.30476e-08
-3.95684e-06
4.14152e-06
1.78362e-06
9.98296e-07
-3.3831e-06
9.86598e-06
3.20974e-06
4.52502e-06
5.14475e-06
8.27671e-06
1.4646e-05
-9.86626e-06
1.27798e-05
2.03312e-05
-1.17734e-05
7.44698e-06
1.17429e-05
-4.84146e-06
2.46308e-06
2.28645e-06
1.22841e-06
3.32567e-07
-4.46429e-06
5.06879e-06
-6.95767e-07
1.39178e-06
-4.14188e-06
1.16456e-05
-1.86231e-06
4.8948e-06
1.17026e-05
-6.70913e-06
2.13282e-05
-1.44513e-05
-1.08409e-05
5.61611e-05
-1.16357e-05
-5.02434e-06
1.60416e-05
-4.67389e-06
-1.02539e-06
2.92631e-06
-2.61326e-07
5.40547e-07
-4.3404e-06
4.60866e-06
-2.58758e-06
1.11397e-06
-3.84164e-06
1.07616e-05
-5.85765e-06
4.24185e-06
6.41382e-06
-1.13115e-05
1.5349e-05
-9.89946e-06
-1.1787e-05
2.36555e-05
-1.18396e-05
-9.72647e-06
1.30387e-05
-4.93809e-06
-3.98883e-06
2.46125e-06
-1.6342e-06
4.55731e-07
-4.65356e-06
3.08435e-06
-3.10669e-06
5.71554e-07
-3.13702e-06
4.6447e-06
-3.6787e-06
2.65918e-06
6.30781e-07
-4.84157e-06
3.94255e-06
-4.63599e-06
-5.01841e-06
4.89681e-06
-7.72832e-06
-4.06744e-06
3.83289e-06
-4.2348e-06
-2.64258e-06
1.56e-06
-2.22846e-06
1.75382e-07
-4.29162e-06
2.45221e-06
1.78481e-07
-2.73009e-06
-3.24983e-06
1.49147e-06
5.75025e-07
-3.71211e-06
-5.08999e-07
1.08512e-06
-4.25474e-06
-2.88184e-06
1.18663e-06
-4.21913e-06
-4.17939e-06
6.81739e-07
-3.45336e-06
-4.11487e-06
2.42135e-07
-2.94909e-06
1.66834e-09
-4.06824e-06
-2.65014e-06
9.76219e-07
2.8068e-06
4.97467e-07
-1.47646e-06
-2.69222e-06
-6.80301e-09
3.22583e-06
1.06792e-06
-2.86508e-06
-9.16663e-07
2.52809e-06
1.71077e-06
-2.51543e-06
-1.70306e-06
2.14939e-06
1.79537e-06
-2.32064e-06
-2.27547e-06
2.52243e-06
9.47669e-07
-2.46262e-06
-2.62225e-06
2.39973e-06
4.36744e-07
-2.36076e-06
1.67547e-06
3.26495e-07
-2.64226e-06
-1.97731e-06
1.69569e-06
2.41049e-06
1.10754e-06
-1.93888e-06
7.51485e-07
3.57648e-06
2.79966e-06
-8.51279e-07
2.71407e-06
4.68096e-06
-2.22823e-06
1.79241e-06
5.61604e-06
-3.49867e-06
3.21928e-06
3.34851e-06
-3.21392e-06
2.10129e-06
1.43666e-06
1.0561e-06
4.06459e-07
-2.92788e-06
2.22123e-06
1.18061e-06
2.09823e-06
-2.09131e-06
2.54617e-06
1.79488e-06
5.98128e-06
5.05822e-07
1.99421e-06
1.74055e-05
-3.81173e-06
2.37543e-06
2.40624e-05
-3.27842e-06
3.11255e-06
1.13116e-05
-2.82204e-06
1.13738e-06
2.79369e-06
6.10845e-07
7.25657e-07
-2.76989e-06
2.00602e-06
-1.87523e-07
2.81466e-06
-2.06088e-06
2.08015e-06
-7.48625e-07
7.36372e-06
2.30971e-06
-2.12872e-06
2.52162e-05
-3.7456e-06
-2.11417e-06
6.6696e-05
-2.63258e-06
-1.51887e-06
1.95575e-05
-2.44705e-06
2.33067e-08
3.85436e-06
2.65137e-07
1.05011e-06
-2.61105e-06
2.19589e-06
-1.41901e-06
2.34168e-06
-2.19254e-06
2.43897e-06
-2.78696e-06
6.03639e-06
1.61327e-06
-2.60556e-06
1.66455e-05
-2.75111e-06
-1.80354e-06
2.7706e-05
-2.83693e-06
-2.5568e-06
1.41618e-05
-2.76471e-06
-8.94568e-07
3.3065e-06
-2.05025e-07
9.57809e-07
-2.79678e-06
2.31325e-06
-2.18156e-06
1.33044e-06
-2.30983e-06
1.56202e-06
-2.87731e-06
3.50037e-06
-5.20782e-07
-2.26923e-06
5.68884e-06
-2.67592e-06
-1.99257e-06
7.23912e-06
-3.86924e-06
-2.16505e-06
4.63382e-06
-3.50924e-06
-1.51625e-06
1.82146e-06
-9.24471e-07
5.38921e-07
-3.15353e-06
1.51594e-06
6.14012e-07
-1.88654e-06
-2.2465e-06
4.04573e-07
1.37997e-06
-2.57073e-06
-8.30604e-07
2.29636e-06
-2.24542e-06
-2.09375e-06
2.50836e-06
-2.05132e-06
-3.01022e-06
1.50483e-06
-2.07188e-06
-3.14198e-06
6.32398e-07
-1.77487e-06
3.265e-07
-3.00498e-06
-1.38634e-06
1.68662e-07
1.71655e-06
1.38881e-06
-8.47543e-07
-1.92911e-06
-5.09533e-07
1.38861e-06
1.99792e-06
-1.64032e-06
-8.87179e-07
3.5406e-07
2.75053e-06
-1.01618e-06
-1.07532e-06
-2.08302e-07
2.91676e-06
-7.25078e-07
-1.28585e-06
5.89356e-07
1.88424e-06
-1.31553e-06
-1.69068e-06
1.15295e-06
1.34331e-06
-1.65471e-06
1.18609e-06
1.21792e-06
-2.04539e-06
-1.72298e-06
4.36473e-08
1.38085e-06
2.12285e-06
-7.23148e-07
-6.54571e-07
1.20825e-06
3.67824e-06
-1.15339e-06
-1.48476e-08
5.54848e-06
-1.04124e-06
-1.17024e-06
6.46579e-06
-1.40887e-06
3.44308e-07
3.96107e-06
-1.72578e-06
8.82076e-07
2.02452e-06
6.0631e-07
1.31191e-06
-2.05134e-06
-2.31614e-07
7.62396e-07
3.36026e-06
-4.11895e-07
-4.6657e-07
7.20423e-07
6.70386e-06
-8.03974e-07
1.94215e-07
1.75326e-05
-1.19504e-06
-2.03722e-06
2.53143e-05
-5.76404e-07
8.38332e-07
1.01949e-05
-1.07761e-06
7.53242e-07
3.42311e-06
3.96534e-07
1.57448e-06
-1.71677e-06
-6.07601e-07
9.67174e-08
4.27354e-06
-1.85681e-07
-1.37824e-06
1.36524e-07
8.71815e-06
-2.86773e-06
8.51898e-08
2.68096e-05
-2.6114e-06
1.41118e-06
6.29853e-05
-6.73689e-07
1.61554e-07
1.82929e-05
-8.94005e-07
2.44533e-07
4.58292e-06
2.6527e-07
1.87918e-06
-1.59188e-06
-1.99716e-07
-5.96495e-07
3.68199e-06
-4.47494e-07
-5.25854e-07
-5.69991e-07
7.06854e-06
-1.32526e-06
2.8832e-07
1.72374e-05
-1.16821e-06
1.4359e-06
2.75157e-05
-2.956e-07
3.94184e-07
1.30559e-05
-9.12198e-07
1.29453e-07
4.03819e-06
1.74683e-07
1.78703e-06
-1.65078e-06
4.10264e-07
-1.11796e-06
2.44794e-06
-1.00633e-06
-2.35773e-07
-8.87297e-07
4.46354e-06
-1.05487e-06
7.029e-08
6.72389e-06
-1.3358e-06
6.98016e-07
8.2551e-06
-1.60184e-06
7.66242e-08
5.21717e-06
-1.9399e-06
-2.7792e-07
2.56691e-06
-4.48848e-07
1.41443e-06
-2.19188e-06
5.64821e-07
1.53987e-06
-1.16188e-06
-1.44707e-06
-2.16456e-07
2.46528e-06
-1.19119e-06
-9.10962e-07
3.56008e-06
-4.98948e-07
-1.40864e-06
3.86274e-06
-1.58731e-07
-1.83551e-06
2.61554e-06
-6.07259e-07
-2.09483e-06
1.54935e-06
-9.35668e-07
1.2259e-06
-2.32361e-06
-1.11956e-06
3.14537e-07
1.36041e-06
3.07093e-06
-1.31345e-06
-2.04375e-06
-4.2739e-07
6.78527e-07
3.55081e-06
-1.4893e-06
-6.87022e-07
-5.30215e-07
4.20283e-06
-6.6242e-07
-4.51371e-07
-1.30718e-06
4.32975e-06
-3.41452e-07
-8.17713e-07
9.04627e-08
3.47447e-06
-1.31444e-06
-1.58666e-06
1.09309e-06
3.05261e-06
-2.03326e-06
1.52127e-06
2.90874e-06
-2.40628e-06
-2.39249e-06
-4.60725e-07
8.01598e-07
3.6946e-06
-5.52004e-07
-1.18193e-06
6.27186e-08
5.01536e-06
-1.16452e-06
-1.50384e-06
6.50471e-06
-3.36781e-07
-2.81849e-06
7.14956e-06
-5.55992e-07
-7.99712e-07
5.07034e-06
-1.33882e-06
3.99482e-07
3.50097e-06
7.25629e-07
3.0201e-06
-2.25095e-06
-1.46046e-06
4.65784e-07
4.88381e-06
2.72813e-07
-2.46854e-06
2.47535e-07
7.52716e-06
-2.18839e-06
5.92229e-07
1.51553e-05
-7.10124e-08
-3.01634e-06
2.33924e-05
6.20187e-07
3.09629e-08
8.67173e-06
-6.26321e-07
4.71933e-07
4.59698e-06
3.3763e-07
3.21232e-06
-1.87591e-06
-2.18262e-06
2.46583e-07
5.84623e-06
8.29151e-07
-3.54498e-06
5.66926e-07
9.76114e-06
-7.42079e-06
2.63948e-06
2.86365e-05
-3.30808e-06
5.41357e-06
5.04373e-05
4.6238e-07
9.15259e-07
1.36342e-05
-4.1561e-07
3.37392e-07
5.59538e-06
8.44172e-08
3.43462e-06
-1.71796e-06
-1.5026e-06
-1.35299e-07
5.23483e-06
3.31501e-07
-2.58338e-06
5.7388e-07
8.14246e-06
-3.93148e-06
2.36527e-06
1.88566e-05
-9.11193e-07
3.33121e-06
2.65856e-05
7.56277e-07
1.69627e-06
1.06078e-05
-4.49316e-07
4.53229e-07
5.1281e-06
-1.65771e-07
3.3522e-06
-1.76421e-06
-3.15147e-07
-7.83736e-07
4.02459e-06
-6.13033e-07
-1.05992e-06
1.53685e-08
5.76659e-06
-1.0945e-06
1.32697e-06
7.79247e-06
-5.81877e-07
2.12814e-06
8.94292e-06
-6.76139e-07
8.69011e-07
6.13869e-06
-1.43341e-06
-1.74476e-07
3.95196e-06
-9.43179e-07
3.08198e-06
-2.32345e-06
4.25855e-07
3.20758e-06
-1.35444e-06
-1.52266e-06
-3.54592e-07
4.00992e-06
-7.48546e-07
-7.74068e-07
5.06289e-06
2.43659e-07
-8.08995e-07
5.33979e-06
6.86012e-07
-1.18278e-06
4.11561e-06
-2.57257e-07
-1.80023e-06
3.20833e-06
-1.21612e-06
2.92489e-06
-2.51406e-06
-1.92834e-06
9.63695e-07
1.43726e-06
-2.15158e-06
-2.30113e-06
5.12252e-06
6.63115e-08
8.46786e-07
-1.9005e-06
5.50226e-06
-3.25616e-07
-2.40336e-07
-1.17931e-06
6.01451e-06
-2.47464e-07
-8.77819e-07
-9.42806e-07
6.07234e-06
-8.50612e-07
5.86132e-07
-1.9122e-06
5.40413e-06
-1.76819e-06
1.52984e-06
-2.60075e-06
5.04111e-06
1.93406e-06
-2.74851e-06
-2.92794e-06
4.88311e-06
-6.1268e-08
7.55565e-07
-1.21909e-06
5.65706e-06
-9.2989e-07
2.05366e-08
6.71051e-06
-1.01326e-06
-1.47887e-06
7.82689e-06
-1.60543e-07
-2.71536e-06
8.13412e-06
-5.885e-07
-5.07049e-07
6.59235e-06
-1.56706e-06
6.32987e-07
5.37626e-06
1.02997e-06
-2.64104e-06
4.99863e-06
-1.22573e-06
3.18599e-07
-1.36128e-07
6.68279e-06
-2.37828e-06
-1.37992e-08
8.71435e-06
-2.1698e-06
4.19116e-07
1.30484e-05
9.95711e-07
1.33141e-06
1.61794e-05
3.16475e-07
-7.13494e-08
8.91969e-06
-1.05266e-06
3.9845e-07
6.20101e-06
3.86902e-07
-2.36486e-06
5.16828e-06
-2.20236e-06
1.46519e-07
6.59723e-07
7.56093e-06
-3.61421e-06
4.96091e-07
1.06631e-05
-6.39906e-06
2.69376e-06
2.91533e-05
-3.55263e-07
8.80353e-06
3.68992e-05
4.47034e-07
9.1844e-07
1.18356e-05
-8.30395e-07
2.32796e-07
7.03843e-06
-1.41588e-07
-2.22108e-06
5.35381e-06
-1.46249e-06
-2.54437e-07
6.83369e-08
7.02995e-06
-2.85893e-06
6.49823e-07
9.38533e-06
-1.0887e-06
2.61857e-06
1.71791e-05
6.9176e-07
3.51643e-06
3.01228e-05
5.01866e-07
1.45191e-06
1.02629e-05
-8.71722e-07
7.90034e-08
6.65564e-06
-6.79851e-07
-2.25908e-06
5.278e-06
-1.44085e-07
-1.01486e-06
-1.0604e-06
5.98983e-06
-1.02865e-06
-1.13729e-07
7.41372e-06
-9.19654e-07
1.27569e-06
9.02407e-06
-2.5027e-07
2.1063e-06
9.68661e-06
-6.46053e-07
4.93797e-07
7.49256e-06
-1.57645e-06
-7.76745e-07
5.73825e-06
-1.62594e-06
-2.61542e-06
5.06726e-06
8.38679e-07
-1.94462e-06
-1.98422e-06
5.28346e-06
-5.86985e-08
-1.16117e-06
5.95504e-06
-4.913e-07
-5.91648e-08
6.83041e-06
-4.7476e-07
4.09571e-07
7.0201e-06
-9.9339e-07
-8.22863e-07
5.95106e-06
-1.77908e-06
-1.98209e-06
5.19935e-06
-2.655e-06
-2.7513e-06
4.92632e-06
-4.43526e-06
-7.82732e-08
3.44208e-09
4.19972e-07
-4.85868e-06
-4.20179e-07
1.98093e-08
4.7342e-07
-4.86535e-06
-2.79743e-07
3.3857e-08
4.11501e-07
-4.96744e-06
-1.8341e-07
3.7115e-08
3.5719e-07
-5.09156e-06
-1.3714e-07
3.30429e-08
3.23914e-07
-5.21434e-06
-1.09604e-07
2.27414e-08
2.98281e-07
-5.32153e-06
-8.90714e-08
5.62493e-09
2.75863e-07
-7.33874e-08
-1.98221e-08
2.56178e-07
-5.40942e-06
-4.79638e-06
2.59017e-07
-6.29251e-10
-4.94332e-06
-1.14697e-07
2.70983e-08
-4.92917e-06
-6.76645e-08
5.16684e-08
-5.00954e-06
-1.48693e-08
6.19496e-08
-5.1009e-06
5.23467e-09
6.11962e-08
-5.17421e-06
1.22572e-08
5.23827e-08
-5.22813e-06
1.4222e-08
3.65055e-08
1.38554e-08
1.47387e-08
-5.27257e-06
-5.15054e-06
2.96097e-07
-5.49585e-09
-5.17799e-06
6.28483e-08
1.15536e-08
-5.0467e-06
9.00251e-08
5.24932e-08
-5.1032e-06
1.31183e-07
7.20525e-08
-5.16018e-06
1.19593e-07
7.29244e-08
-5.20197e-06
1.03181e-07
6.45411e-08
-5.22121e-06
8.76522e-08
4.66668e-08
7.40393e-08
2.14675e-08
-5.22808e-06
-5.06205e-06
2.23263e-07
2.87473e-08
-5.16288e-06
3.55298e-07
1.87634e-08
-5.07785e-06
3.03391e-07
4.76934e-08
-5.07908e-06
2.09545e-07
6.69254e-08
-5.11142e-06
1.75881e-07
6.85417e-08
-5.13671e-06
1.54115e-07
6.17339e-08
-5.13022e-06
1.34179e-07
4.62475e-08
1.1575e-07
2.36013e-08
-5.10338e-06
-5.36864e-06
3.42752e-07
1.87151e-08
-5.35268e-06
5.72642e-07
7.10715e-09
-5.26511e-06
4.1505e-07
3.33155e-08
-5.25385e-06
3.43442e-07
5.44559e-08
-5.2834e-06
2.97715e-07
5.26247e-08
-5.33833e-06
2.61324e-07
4.17591e-08
-5.37713e-06
2.31783e-07
2.28053e-08
2.08582e-07
-7.3848e-09
-5.39037e-06
-5.06318e-06
5.32618e-07
-7.73947e-09
-5.21759e-06
7.3739e-07
9.9197e-09
-5.16651e-06
6.22856e-07
3.04546e-08
-5.1885e-06
5.27201e-07
4.5439e-08
-5.25194e-06
4.51118e-07
4.07022e-08
-5.34109e-06
4.03367e-07
2.8363e-08
-5.41358e-06
3.68048e-07
7.9267e-09
3.38618e-07
-2.31871e-08
-5.45508e-06
-4.84143e-06
-2.40898e-09
8.08191e-07
-5.05521e-06
1.7282e-08
8.96518e-07
-4.98812e-06
2.43157e-08
7.54583e-07
-5.09633e-06
2.62464e-08
6.62392e-07
-5.20621e-06
1.80866e-08
6.18894e-07
-5.31825e-06
2.73683e-09
5.95006e-07
-5.41884e-06
-2.24202e-08
5.7391e-07
-5.38401e-08
5.53465e-07
-5.50421e-06
-3.091e-06
-5.48026e-08
2.02973e-07
3.03935e-07
-3.51438e-06
-6.4209e-08
2.35947e-07
2.6948e-07
-3.91475e-06
-5.37127e-08
2.48838e-07
2.36513e-07
-4.28667e-06
-4.16632e-08
2.39032e-07
2.09289e-07
-4.61798e-06
-3.28286e-08
2.08662e-07
1.86714e-07
-4.89777e-06
-2.6926e-08
1.60856e-07
1.67566e-07
-5.12098e-06
-2.30328e-08
1.00664e-07
1.5101e-07
-2.01689e-08
3.14761e-08
1.36631e-07
-5.28811e-06
-3.26156e-06
2.32514e-08
2.54901e-07
-3.63991e-06
3.67768e-08
3.01301e-07
-4.019e-06
4.63922e-08
3.2639e-07
-4.37423e-06
5.00492e-08
3.21384e-07
-4.68702e-06
4.9739e-08
2.8801e-07
-4.94189e-06
4.67789e-08
2.31139e-07
-5.13031e-06
4.26732e-08
1.57862e-07
3.82943e-08
7.48709e-08
-5.24935e-06
-3.18945e-06
1.44407e-07
2.93362e-07
-3.60946e-06
1.3212e-07
3.34796e-07
-4.01346e-06
1.26897e-07
3.71574e-07
-4.38562e-06
1.17438e-07
3.71854e-07
-4.70833e-06
1.04814e-07
3.36315e-07
-4.96343e-06
9.15876e-08
2.71755e-07
-5.14242e-06
7.9149e-08
1.87357e-07
6.805e-08
9.21003e-08
-5.24347e-06
-3.12474e-06
3.52919e-07
3.30066e-07
-3.59146e-06
2.74612e-07
3.40436e-07
-4.02592e-06
2.28461e-07
3.75898e-07
-4.41645e-06
1.94191e-07
3.75005e-07
-4.75181e-06
1.66485e-07
3.37097e-07
-5.01529e-06
1.43663e-07
2.68955e-07
-5.19786e-06
1.25045e-07
1.80253e-07
1.0998e-07
7.96672e-08
-5.29697e-06
-3.25594e-06
5.1933e-07
3.09007e-07
-3.69404e-06
4.04333e-07
3.14641e-07
-4.11061e-06
3.32289e-07
3.43057e-07
-4.48649e-06
2.82203e-07
3.38502e-07
-4.81141e-06
2.42109e-07
2.99027e-07
-5.06853e-06
2.09426e-07
2.31339e-07
-5.2488e-06
1.82708e-07
1.44638e-07
1.6056e-07
4.59915e-08
-5.35245e-06
-3.44229e-06
5.60393e-07
2.40715e-07
-3.80801e-06
5.08352e-07
2.70459e-07
-4.18817e-06
4.51114e-07
2.88988e-07
-4.54195e-06
4.00694e-07
2.77606e-07
-4.85523e-06
3.56692e-07
2.37108e-07
-5.11144e-06
3.19153e-07
1.73563e-07
-5.30235e-06
2.86684e-07
9.45571e-08
2.57694e-07
4.32624e-10
-5.42228e-06
-3.37723e-06
1.8926e-07
7.41058e-07
-3.74762e-06
2.1818e-07
6.75995e-07
-4.11549e-06
2.25675e-07
6.16003e-07
-4.46402e-06
2.08849e-07
5.65106e-07
-4.78063e-06
1.70399e-07
5.20143e-07
-5.05229e-06
1.14171e-07
4.79321e-07
-5.27441e-06
4.5796e-08
4.41407e-07
-3.20315e-08
4.05882e-07
-5.44287e-06
-2.74515e-06
5.33628e-08
7.19025e-07
1.30209e-07
-3.47791e-06
7.10262e-08
8.01806e-07
9.59184e-08
-4.22855e-06
8.93147e-08
8.42468e-07
6.77619e-08
-4.97424e-06
9.92608e-08
8.40063e-07
4.54354e-08
-5.69149e-06
1.0273e-07
7.94746e-07
2.84785e-08
-6.35544e-06
1.02064e-07
7.06685e-07
1.61009e-08
-6.93719e-06
9.88464e-08
5.76122e-07
7.49864e-09
9.41442e-08
4.06839e-07
1.95547e-09
-7.40858e-06
-2.75725e-06
8.0162e-08
9.34064e-07
-3.51183e-06
1.09879e-07
1.01703e-06
-4.28034e-06
1.27334e-07
1.05688e-06
-5.03831e-06
1.33169e-07
1.04549e-06
-5.76097e-06
1.31521e-07
9.81958e-07
-6.42007e-06
1.25713e-07
8.66667e-07
-6.98105e-06
1.1757e-07
7.00174e-07
1.07988e-07
4.87396e-07
-7.40737e-06
-2.56144e-06
1.35802e-07
1.08252e-06
-3.40357e-06
1.31709e-07
1.15511e-06
-4.22972e-06
1.28313e-07
1.19669e-06
-5.02697e-06
1.20729e-07
1.18147e-06
-5.77479e-06
1.0954e-07
1.10611e-06
-6.44592e-06
9.72381e-08
9.71405e-07
-7.00447e-06
8.50023e-08
7.78506e-07
7.32001e-08
5.33375e-07
-7.41094e-06
-2.48433e-06
2.16221e-07
1.1421e-06
-3.36698e-06
1.61362e-07
1.19338e-06
-4.22315e-06
1.26429e-07
1.23389e-06
-5.04065e-06
9.62916e-08
1.21688e-06
-5.80093e-06
7.0049e-08
1.13689e-06
-6.47782e-06
4.82583e-08
9.94885e-07
-7.03579e-06
3.08243e-08
7.92462e-07
1.72079e-08
5.36077e-07
-7.43621e-06
-2.5649e-06
3.53557e-07
1.08573e-06
-3.44843e-06
2.28221e-07
1.13132e-06
-4.29515e-06
1.50535e-07
1.16564e-06
-5.10072e-06
9.46514e-08
1.14577e-06
-5.85054e-06
5.29061e-08
1.06609e-06
-6.52029e-06
2.20027e-08
9.27484e-07
-7.07606e-06
-2.18589e-10
7.31584e-07
-1.55922e-08
4.84854e-07
-7.48204e-06
-2.8971e-06
3.81756e-07
9.17581e-07
-3.6611e-06
2.80898e-07
9.81739e-07
-4.43216e-06
1.99168e-07
1.01142e-06
-5.18685e-06
1.36279e-07
9.90779e-07
-5.90319e-06
8.83991e-08
9.18077e-07
-6.55449e-06
5.26576e-08
7.94356e-07
-7.10761e-06
2.65752e-08
6.2102e-07
7.98999e-09
4.03875e-07
-7.53451e-06
-2.96709e-06
7.03211e-07
5.11386e-07
-3.66806e-06
7.76551e-07
4.23579e-07
-4.39895e-06
8.07646e-07
3.48269e-07
-5.13235e-06
7.94415e-07
2.84244e-07
-5.84209e-06
7.37598e-07
2.31002e-07
-6.50117e-06
6.38239e-07
1.87745e-07
-7.07981e-06
4.97611e-07
1.53491e-07
3.20757e-07
1.27259e-07
-7.55175e-06
-3.60129e-06
2.05662e-07
1.72454e-06
-1.61837e-08
-4.94396e-06
2.49541e-07
1.93831e-06
-4.33617e-08
-6.36395e-06
2.70959e-07
2.05338e-06
-6.16623e-08
-7.77314e-06
2.75018e-07
2.04837e-06
-7.39056e-08
-9.06519e-06
2.68624e-07
1.89963e-06
-8.12966e-08
-1.01178e-05
2.55863e-07
1.58887e-06
-8.52786e-08
-1.08049e-05
2.38773e-07
1.11153e-06
-8.70072e-08
2.19023e-07
4.77779e-07
-8.72285e-08
-1.10075e-05
-3.51916e-06
1.85247e-07
2.22278e-06
-4.91521e-06
2.2941e-07
2.4333e-06
-6.38491e-06
2.52794e-07
2.5449e-06
-7.84626e-06
2.57235e-07
2.52484e-06
-9.18703e-06
2.50583e-07
2.341e-06
-1.02679e-05
2.36683e-07
1.96687e-06
-1.09361e-05
2.17143e-07
1.39023e-06
1.92826e-07
6.14937e-07
-1.10373e-05
-3.27755e-06
1.17938e-07
2.55159e-06
-4.76813e-06
1.19503e-07
2.75563e-06
-6.30802e-06
1.19025e-07
2.87046e-06
-7.82761e-06
1.11305e-07
2.84712e-06
-9.21635e-06
1.00261e-07
2.64539e-06
-1.03279e-05
8.82389e-08
2.23159e-06
-1.09946e-05
7.57668e-08
1.58689e-06
6.27823e-08
7.09576e-07
-1.10406e-05
-3.17559e-06
4.56557e-08
2.67201e-06
-4.71241e-06
-1.21504e-08
2.86189e-06
-6.28421e-06
-5.22501e-08
2.97711e-06
-7.82718e-06
-8.18663e-08
2.95319e-06
-9.23387e-06
-1.01663e-07
2.74571e-06
-1.03567e-05
-1.11845e-07
2.318e-06
-1.10235e-05
-1.13505e-07
1.64871e-06
-1.08026e-07
7.3427e-07
-1.10508e-05
-3.23869e-06
5.02303e-08
2.5557e-06
-4.77862e-06
-8.16866e-08
2.74102e-06
-6.3446e-06
-1.69393e-07
2.84893e-06
-7.87583e-06
-2.25692e-07
2.82108e-06
-9.2691e-06
-2.57762e-07
2.61571e-06
-1.0381e-05
-2.70895e-07
2.19869e-06
-1.10451e-05
-2.6882e-07
1.5511e-06
-2.54403e-07
6.72372e-07
-1.10862e-05
-3.59788e-06
2.89755e-08
2.2132e-06
-5.00585e-06
-1.01029e-07
2.40916e-06
-6.48251e-06
-1.92835e-07
2.51163e-06
-7.94659e-06
-2.54286e-07
2.48364e-06
-9.28698e-06
-2.9165e-07
2.29255e-06
-1.03643e-05
-3.10596e-07
1.9115e-06
-1.10247e-05
-3.15418e-07
1.32816e-06
-3.09662e-07
5.48828e-07
-1.11143e-05
-3.68716e-06
1.71587e-06
1.89704e-07
-5.0176e-06
1.92269e-06
8.34781e-08
-6.43896e-06
2.03089e-06
5.58148e-09
-7.85317e-06
2.0183e-06
-6.37841e-08
-9.1539e-06
1.86077e-06
-1.14026e-07
-1.02144e-05
1.53978e-06
-1.51593e-07
-1.09036e-05
1.05128e-06
-1.79766e-07
4.09342e-07
-1.99925e-07
-1.11019e-05
-4.14309e-06
3.13176e-07
-1.01609e-07
2.90777e-06
-5.7953e-06
3.6692e-07
-1.20564e-07
3.34436e-06
-7.66795e-06
3.87926e-07
-1.28816e-07
3.66735e-06
-9.72212e-06
3.92084e-07
-1.30442e-07
3.84128e-06
-1.19235e-05
3.90388e-07
-1.27254e-07
3.83811e-06
-1.42375e-05
3.85746e-07
-1.20976e-07
3.63829e-06
-1.66215e-05
3.71195e-07
-1.1287e-07
3.23736e-06
3.41627e-07
-1.0372e-07
-1.91035e-05
2.72199e-06
-4.1034e-06
2.72601e-07
3.72587e-06
-5.77324e-06
3.12583e-07
4.1577e-06
-7.65158e-06
3.33934e-07
4.47755e-06
-9.71285e-06
3.40584e-07
4.63793e-06
-1.19186e-05
3.40743e-07
4.59662e-06
-1.42219e-05
3.36714e-07
4.31952e-06
-1.65792e-05
3.25194e-07
3.79376e-06
3.00528e-07
-1.90509e-05
3.12795e-06
-3.91405e-06
1.08534e-07
4.26504e-06
-5.63536e-06
1.01303e-07
4.68844e-06
-7.53992e-06
9.64611e-08
5.0128e-06
-9.61699e-06
8.98102e-08
5.17523e-06
-1.18347e-05
8.49924e-08
5.1192e-06
-1.41457e-05
8.26448e-08
4.79701e-06
-1.65003e-05
8.09784e-08
4.18605e-06
7.65098e-08
-1.89773e-05
3.41091e-06
-3.81709e-06
-8.94472e-08
4.46613e-06
-5.56719e-06
-1.60358e-07
4.87388e-06
-7.4817e-06
-2.08839e-07
5.19724e-06
-9.56066e-06
-2.3893e-07
5.36115e-06
-1.17784e-05
-2.53004e-07
5.30174e-06
-1.40891e-05
-2.53418e-07
4.96514e-06
-1.64416e-05
-2.42119e-07
4.32463e-06
-2.19739e-07
-1.8921e-05
3.51006e-06
-3.85175e-06
-2.20925e-07
4.28007e-06
-5.59592e-06
-3.61106e-07
4.68634e-06
-7.50432e-06
-4.54217e-07
5.00299e-06
-9.57561e-06
-5.08119e-07
5.1619e-06
-1.1784e-05
-5.3348e-07
5.10491e-06
-1.40855e-05
-5.36318e-07
4.78332e-06
-1.6432e-05
-5.17754e-07
4.17334e-06
-4.76083e-07
-1.89017e-05
3.39852e-06
-4.06573e-06
-2.91871e-07
3.73451e-06
-5.72492e-06
-4.45349e-07
4.15279e-06
-7.58647e-06
-5.46289e-07
4.46539e-06
-9.62626e-06
-6.06695e-07
4.62222e-06
-1.1809e-05
-6.37909e-07
4.5799e-06
-1.40913e-05
-6.45658e-07
4.30326e-06
-1.64314e-05
-6.26744e-07
3.77734e-06
-5.79467e-07
-1.889e-05
3.11082e-06
-4.02068e-06
-1.26515e-07
2.91658e-06
-5.64976e-06
-2.42787e-07
3.3495e-06
-7.50815e-06
-3.27784e-07
3.67114e-06
-9.55242e-06
-3.88411e-07
3.84447e-06
-1.17454e-05
-4.24404e-07
3.84028e-06
-1.40515e-05
-4.38161e-07
3.63833e-06
-1.64267e-05
-4.33111e-07
3.23285e-06
-4.12082e-07
-1.88975e-05
2.71279e-06
-3.25815e-06
6.21461e-07
5.38051e-08
-2.90393e-07
-3.54086e-06
3.88579e-07
6.28741e-08
-2.78278e-07
-3.64208e-06
2.44154e-07
6.87939e-08
-1.75252e-07
-3.85739e-06
3.19545e-07
6.42901e-08
-1.36831e-07
-4.07842e-06
3.29204e-07
5.20413e-08
-1.09439e-07
-4.28528e-06
3.41002e-07
3.22421e-08
-9.61655e-08
-4.50044e-06
3.52766e-07
4.48033e-09
-8.8349e-08
3.61992e-07
-3.29511e-08
-8.21473e-08
-4.69318e-06
-3.57894e-06
5.65451e-07
1.30282e-07
-3.77559e-06
2.32379e-07
1.02996e-07
-3.5752e-06
1.38621e-07
1.23538e-07
-3.63129e-06
2.61677e-07
1.32828e-07
-3.72039e-06
2.80407e-07
1.37172e-07
-3.79589e-06
3.11624e-07
1.33588e-07
-3.87003e-06
3.39958e-07
1.22046e-07
3.6091e-07
1.0281e-07
-3.99526e-06
-4.05829e-06
-3.27085e-08
2.95442e-07
-4.16846e-06
-1.72434e-07
1.58953e-07
-3.73043e-06
-1.32896e-07
1.73193e-07
-3.53975e-06
-6.54557e-08
1.99391e-07
-3.37337e-06
-2.92983e-08
2.29625e-07
-3.23708e-06
-1.98679e-09
2.5089e-07
-3.15277e-06
3.19102e-08
2.60797e-07
6.79442e-08
2.6045e-07
-3.09731e-06
-4.34445e-06
-7.00797e-07
3.71262e-07
-4.41404e-06
-4.06964e-07
1.72943e-07
-3.93481e-06
-4.84302e-07
1.84661e-07
-3.73559e-06
-4.52181e-07
2.22127e-07
-3.53505e-06
-4.34818e-07
2.69048e-07
-3.34792e-06
-4.34755e-07
3.09765e-07
-3.1831e-06
-4.39548e-07
3.40421e-07
-4.40897e-07
3.59479e-07
-3.02487e-06
-3.43004e-06
-1.31728e-06
2.23273e-07
-3.4991e-06
-8.24513e-07
1.34671e-07
-3.29005e-06
-5.63479e-07
1.61415e-07
-3.21882e-06
-6.20093e-07
1.80395e-07
-3.19398e-06
-5.99776e-07
2.03803e-07
-3.21803e-06
-5.95202e-07
2.18123e-07
-3.21614e-06
-6.01808e-07
2.24522e-07
-6.11877e-07
2.20815e-07
-3.22896e-06
-3.70814e-06
-1.10337e-06
8.50763e-08
-3.84126e-06
-8.09181e-07
8.09863e-08
-3.58869e-06
-6.01895e-07
1.06992e-07
-3.6947e-06
-6.50016e-07
1.13461e-07
-3.79343e-06
-6.33354e-07
1.17074e-07
-3.91314e-06
-6.37822e-07
1.14611e-07
-3.99307e-06
-6.3433e-07
1.05542e-07
-6.32725e-07
9.04011e-08
-4.01019e-06
-3.1621e-06
3.11984e-08
-6.50188e-07
-3.53777e-06
5.18306e-08
-6.44108e-07
-3.70499e-06
6.36498e-08
-5.02379e-07
-3.93818e-06
6.5175e-08
-4.2654e-07
-4.25555e-06
5.96982e-08
-3.83518e-07
-4.47062e-06
4.78692e-08
-3.59394e-07
-4.65088e-06
2.84784e-08
-3.49694e-07
1.51714e-09
-3.44568e-07
-4.81384e-06
-2.29964e-06
3.768e-07
2.60347e-07
-1.7034e-07
-2.70539e-06
3.24333e-07
2.77009e-07
-1.35468e-07
-3.11477e-06
3.00939e-07
2.85381e-07
-1.10487e-07
-3.51941e-06
2.94799e-07
2.67401e-07
-9.50982e-08
-3.89938e-06
2.91291e-07
2.23434e-07
-8.4265e-08
-4.23777e-06
2.88802e-07
1.57772e-07
-7.66571e-08
-4.52478e-06
2.85433e-07
7.68962e-08
-7.09172e-08
2.80655e-07
-1.29243e-08
-6.62513e-08
-4.75881e-06
-2.48195e-06
2.10961e-07
4.68158e-07
-2.68979e-06
2.09701e-07
4.14582e-07
-2.94362e-06
2.2917e-07
4.41761e-07
-3.22685e-06
2.52389e-07
4.51385e-07
-3.51022e-06
2.72991e-07
4.31023e-07
-3.76981e-06
2.93934e-07
3.80802e-07
-3.98748e-06
3.11497e-07
3.07648e-07
3.25356e-07
2.21651e-07
-4.15558e-06
-2.37688e-06
-1.8684e-07
8.76702e-07
-2.47855e-06
-1.44852e-07
5.94609e-07
-2.60503e-06
-9.47339e-08
6.12781e-07
-2.76943e-06
-5.64287e-08
6.61402e-07
-2.93699e-06
-2.51178e-08
6.84771e-07
-3.07736e-06
4.74817e-09
6.72881e-07
-3.1715e-06
3.0149e-08
6.31e-07
5.33323e-08
5.70237e-07
-3.21287e-06
-2.31828e-06
-6.30839e-07
1.05863e-06
-2.41955e-06
-5.49126e-07
6.58757e-07
-2.51655e-06
-4.95628e-07
6.73517e-07
-2.64729e-06
-4.60565e-07
7.46372e-07
-2.77587e-06
-4.36583e-07
7.98684e-07
-2.86766e-06
-4.19396e-07
8.17047e-07
-2.90187e-06
-4.0465e-07
8.04023e-07
-3.90765e-07
7.69549e-07
-2.87291e-06
-2.30012e-06
-9.20703e-07
7.21576e-07
-2.45033e-06
-8.06702e-07
5.24055e-07
-2.62904e-06
-7.43002e-07
5.76239e-07
-2.84171e-06
-7.06446e-07
6.26453e-07
-3.05376e-06
-6.78148e-07
6.47984e-07
-3.24431e-06
-6.56443e-07
6.35096e-07
-3.38598e-06
-6.37733e-07
5.92362e-07
-6.20321e-07
5.30065e-07
-3.47052e-06
-2.25715e-06
-9.06679e-07
3.89247e-07
-2.58332e-06
-7.92074e-07
3.8285e-07
-2.91595e-06
-7.25276e-07
4.18968e-07
-3.25873e-06
-6.85183e-07
4.30185e-07
-3.58522e-06
-6.5108e-07
4.12114e-07
-3.87655e-06
-6.21527e-07
3.66146e-07
-4.11934e-06
-5.93536e-07
2.99117e-07
-5.66097e-07
2.20501e-07
-4.30741e-06
-2.02584e-06
2.41251e-07
-5.67537e-07
-2.53001e-06
2.69429e-07
-5.07654e-07
-3.01809e-06
2.8317e-07
-4.61007e-07
-3.48605e-06
2.70766e-07
-4.25251e-07
-3.91885e-06
2.33747e-07
-3.95667e-07
-4.30075e-06
1.76251e-07
-3.69974e-07
-4.62359e-06
1.03797e-07
-3.46973e-07
2.36311e-08
-3.25667e-07
-4.8861e-06
-1.85035e-06
3.06021e-07
7.64903e-07
-1.22521e-07
-2.59724e-06
3.01212e-07
8.18703e-07
-9.59955e-08
-3.37709e-06
2.97185e-07
8.50586e-07
-8.25497e-08
-4.15782e-06
2.8608e-07
8.36792e-07
-7.48348e-08
-4.91072e-06
2.7035e-07
7.75609e-07
-6.96276e-08
-5.60817e-06
2.51933e-07
6.69125e-07
-6.57599e-08
-6.2207e-06
2.3209e-07
5.1998e-07
-6.25309e-08
2.11956e-07
3.34474e-07
-5.95955e-08
-6.72037e-06
-1.59864e-06
1.86728e-07
1.17983e-06
-2.25462e-06
2.42659e-07
1.12905e-06
-2.96021e-06
2.7628e-07
1.16815e-06
-3.68461e-06
2.84916e-07
1.17685e-06
-4.40018e-06
2.86867e-07
1.13012e-06
-5.07571e-06
2.83799e-07
1.0246e-06
-5.67264e-06
2.75918e-07
8.6089e-07
2.64506e-07
6.44571e-07
-6.14802e-06
-1.04988e-06
-1.39521e-07
1.80532e-06
-1.61239e-06
-6.88225e-08
1.46871e-06
-2.21161e-06
-1.00764e-09
1.48919e-06
-2.84344e-06
3.49164e-08
1.54299e-06
-3.4799e-06
6.15665e-08
1.5465e-06
-4.08983e-06
8.36916e-08
1.48305e-06
-4.63263e-06
1.00877e-07
1.34898e-06
1.13356e-07
1.1497e-06
-5.06089e-06
-8.24342e-07
-5.65688e-07
2.12327e-06
-1.36498e-06
-4.82181e-07
1.61262e-06
-1.91085e-06
-4.08123e-07
1.62636e-06
-2.48998e-06
-3.52241e-07
1.71203e-06
-3.07246e-06
-3.09825e-07
1.75252e-06
-3.62229e-06
-2.73488e-07
1.72467e-06
-4.09746e-06
-2.41549e-07
1.62178e-06
-2.15109e-07
1.44755e-06
-4.44695e-06
-1.08551e-06
-7.99487e-07
1.62881e-06
-1.72414e-06
-7.23741e-07
1.4042e-06
-2.36764e-06
-6.56059e-07
1.46761e-06
-3.02786e-06
-5.97084e-07
1.53143e-06
-3.68558e-06
-5.43701e-07
1.53971e-06
-4.30978e-06
-4.9451e-07
1.48055e-06
-4.85959e-06
-4.49583e-07
1.35042e-06
-4.06926e-07
1.15468e-06
-5.29226e-06
-1.45815e-06
-7.68333e-07
1.09293e-06
-2.21667e-06
-6.94313e-07
1.11192e-06
-2.98683e-06
-6.36734e-07
1.16972e-06
-3.75824e-06
-5.8125e-07
1.18575e-06
-4.5083e-06
-5.27373e-07
1.14599e-06
-5.20848e-06
-4.76419e-07
1.04846e-06
-5.82329e-06
-4.28834e-07
8.93385e-07
-3.85127e-07
6.86019e-07
-6.31045e-06
-1.65118e-06
7.50858e-07
-4.74489e-07
-2.48714e-06
8.22662e-07
-4.11359e-07
-3.337e-06
8.61359e-07
-3.65003e-07
-4.17465e-06
8.53818e-07
-3.26625e-07
-4.97452e-06
7.9988e-07
-2.93562e-07
-5.71103e-06
7.0105e-07
-2.64573e-07
-6.35606e-06
5.59102e-07
-2.38981e-07
3.79313e-07
-2.16429e-07
-6.88033e-06
-2.60142e-06
2.8763e-07
1.78714e-06
-6.33389e-08
-4.02989e-06
3.16677e-07
1.97818e-06
-4.76477e-08
-5.53892e-06
3.10783e-07
2.08847e-06
-3.96106e-08
-7.02577e-06
2.77774e-07
2.07999e-06
-3.41207e-08
-8.37874e-06
2.32297e-07
1.92605e-06
-2.96714e-08
-9.47228e-06
1.82822e-07
1.60569e-06
-2.57001e-08
-1.01753e-05
1.32963e-07
1.11218e-06
-2.20218e-08
8.40816e-08
4.58649e-07
-1.85771e-08
-1.03649e-05
-1.85713e-06
2.43505e-07
2.46837e-06
-3.30713e-06
3.18554e-07
2.57715e-06
-4.84827e-06
3.30341e-07
2.68969e-06
-6.38907e-06
3.06248e-07
2.68918e-06
-7.8159e-06
2.67003e-07
2.52241e-06
-8.98423e-06
2.2014e-07
2.15585e-06
-9.73295e-06
1.70176e-07
1.57258e-06
1.18891e-07
7.74369e-07
-9.89743e-06
-7.94928e-07
-4.09147e-08
3.21639e-06
-2.18125e-06
7.18373e-08
3.10187e-06
-3.70217e-06
1.28273e-07
3.21206e-06
-5.25604e-06
1.48179e-07
3.25481e-06
-6.7229e-06
1.55087e-07
3.12543e-06
-7.94412e-06
1.53933e-07
2.77078e-06
-8.7352e-06
1.4736e-07
2.16313e-06
1.36457e-07
1.2901e-06
-8.89301e-06
-2.80464e-07
-4.18263e-07
3.61024e-06
-1.62833e-06
-3.00254e-07
3.33252e-06
-3.10809e-06
-2.11738e-07
3.44607e-06
-4.6275e-06
-1.50418e-07
3.52994e-06
-6.06545e-06
-1.01881e-07
3.44733e-06
-7.26022e-06
-6.1585e-08
3.13525e-06
-8.02023e-06
-2.86876e-08
2.55806e-06
-2.95153e-09
1.68837e-06
-8.12155e-06
-9.58978e-07
-6.31385e-07
3.07373e-06
-2.37889e-06
-5.40948e-07
3.06477e-06
-3.8854e-06
-4.4823e-07
3.21072e-06
-5.4143e-06
-3.56335e-07
3.26636e-06
-6.85259e-06
-2.67988e-07
3.14437e-06
-8.04476e-06
-1.85938e-07
2.79737e-06
-8.80759e-06
-1.13941e-07
2.1987e-06
-5.03732e-08
1.33347e-06
-8.93889e-06
-1.91665e-06
-5.7468e-07
2.40075e-06
-3.40504e-06
-5.10516e-07
2.56994e-06
-4.95404e-06
-4.31088e-07
2.70162e-06
-6.49377e-06
-3.41106e-07
2.71039e-06