/*--------------------------------*- C++ -*----------------------------------*\
| =========                 |                                                 |
| \\      /  F ield         | OpenFOAM: The Open Source CFD Toolbox           |
|  \\    /   O peration     | Version:  plus.master                           |
|   \\  /    A nd           | Web:      www.OpenFOAM.com                      |
|    \\/     M anipulation  |                                                 |
\*---------------------------------------------------------------------------*/
FoamFile
{
    version     2.0;
    format      ascii;
    class       volScalarField;
    location    "6.8";
    object      epsilon;
}
// * * * * * * * * * * * * * * * * * * * * * * * * * * * * * * * * * * * * * //

dimensions      [0 2 -3 0 0 0 0];

internalField   nonuniform List<scalar> 
47285
(
0.000316047
0.00149968
0.0099896
0.0177549
0.00533001
0.000700293
0.000194301
0.00139456
0.0400194
0.203022
0.349753
0.143086
0.0255431
0.000774425
0.00918331
0.194993
0.358087
1.51847
0.27302
0.148386
0.00610126
0.0204381
0.369716
1.63617
1.44626
1.32267
0.271949
0.0130762
0.00820971
0.18924
0.366159
1.56758
0.274986
0.140971
0.00533104
0.00126344
0.0398055
0.210494
0.362573
0.142927
0.0237243
0.000657758
0.00032378
0.00162153
0.0109694
0.0188288
0.0054635
0.000667422
0.000184574
0.00271109
0.0180416
0.0853673
0.138969
0.0463517
0.00791146
0.00147268
0.0183924
0.137349
0.459312
0.827376
0.293144
0.0631681
0.0076242
0.0981049
0.51949
1.07961
3.27502
0.813176
0.244595
0.0371024
0.21172
1.20354
3.14965
3.05105
3.80121
0.523126
0.0688447
0.0926091
0.516783
1.12632
3.17286
0.848291
0.237148
0.0335051
0.017711
0.14137
0.495233
0.928437
0.308413
0.0609214
0.00673168
0.00268747
0.0189131
0.0936828
0.154422
0.0475087
0.00737767
0.00138166
0.00833431
0.0390691
0.153664
0.255317
0.0909826
0.0187462
0.00515956
0.0403392
0.250617
0.731116
1.27248
0.488661
0.108777
0.0170433
0.191027
0.904053
1.91559
3.89941
1.55088
0.384383
0.0625015
0.430134
2.12502
3.95914
4.36938
5.51934
0.867765
0.119212
0.184894
0.909734
2.01213
3.82609
1.64211
0.386079
0.0588463
0.0392665
0.258762
0.794935
1.44136
0.528579
0.108724
0.0158132
0.00833563
0.0402272
0.168165
0.293151
0.0961625
0.018191
0.00506905
0.0168675
0.0509311
0.191333
0.353185
0.129069
0.0323761
0.0130644
0.0499355
0.297047
0.950918
1.7024
0.696531
0.151815
0.0291075
0.210666
1.15432
2.49726
4.30645
2.29412
0.551103
0.0864241
0.519522
2.78941
4.51326
5.16511
6.75114
1.26284
0.16929
0.202562
1.14953
2.60484
4.2952
2.40942
0.558367
0.082987
0.0481541
0.297202
1.00656
1.86688
0.739183
0.150003
0.0277162
0.016777
0.0502204
0.197257
0.383664
0.130754
0.0313333
0.0130491
0.0201816
0.048988
0.186932
0.395955
0.140118
0.0376382
0.0174015
0.0457499
0.265082
1.07438
2.09309
0.844218
0.166728
0.0339738
0.170928
1.1775
2.95412
4.97797
3.11641
0.672993
0.0949531
0.461523
3.03017
5.04447
6.59885
9.00615
1.62384
0.192695
0.163919
1.15974
3.0719
4.92944
3.22247
0.674294
0.0913559
0.0437346
0.256139
1.09036
2.17447
0.855358
0.160101
0.0322931
0.0197866
0.0467927
0.180611
0.395795
0.134466
0.0358335
0.0171625
0.00014586
0.000138907
0.00013281
0.00012855
0.000125124
0.000121053
0.000117617
0.000114625
0.000235921
0.00015794
0.00013418
0.000126652
0.000121887
0.000116754
0.000112586
0.00010953
0.00102148
0.00025876
0.0001503
0.000130716
0.000122574
0.000116958
0.000113018
0.000109201
0.00209836
0.000390253
0.000161576
0.000126401
0.000117284
0.000109795
0.000105937
0.000103784
0.000878111
0.000239637
0.00014869
0.000129756
0.000121276
0.000114363
0.000110054
0.000106707
0.000202685
0.00014864
0.000136776
0.000126837
0.00012098
0.000115091
0.000110776
0.000107872
0.000142668
0.000140123
0.000137065
0.000131924
0.000126961
0.000122257
0.000118252
0.000115185
0.00063556
0.000457123
0.00038155
0.000329285
0.000288639
0.000256202
0.0002298
0.000207864
0.00127715
0.000560823
0.000408605
0.000339901
0.000293872
0.000258899
0.000230937
0.000208009
0.00369815
0.000816853
0.000456471
0.000354939
0.000300971
0.000262135
0.00023156
0.000206487
0.00599009
0.00100651
0.000486584
0.00036555
0.00030708
0.000265898
0.000234063
0.000207518
0.00326366
0.000780982
0.00045655
0.000358871
0.000304926
0.000265132
0.000233846
0.000207892
0.0011252
0.000550238
0.000416034
0.000349703
0.000302806
0.000266263
0.000236841
0.000212475
0.000612618
0.000467309
0.000397571
0.000346175
0.000305284
0.000272113
0.000244793
0.000221767
0.00277611
0.00218864
0.00187954
0.0016123
0.00135261
0.00110248
0.000873486
0.00067874
0.00444617
0.00255336
0.00200678
0.00168421
0.00140541
0.00114105
0.000897033
0.000687847
0.0092871
0.00326918
0.00217936
0.00175862
0.00145619
0.00117892
0.000921137
0.000697791
0.0138344
0.00377595
0.00228282
0.00180063
0.00148422
0.00119976
0.000934667
0.000704099
0.0087192
0.00322447
0.00220277
0.00178957
0.0014841
0.0012012
0.000937129
0.000707896
0.00423863
0.00258458
0.00207828
0.00175653
0.00146783
0.00119044
0.000932922
0.000711456
0.00281804
0.00229695
0.00199683
0.00172152
0.0014472
0.00118022
0.000934696
0.000725528
0.00879332
0.00738488
0.00639215
0.00551014
0.00475442
0.00414904
0.00366004
0.00317514
0.0115726
0.00825441
0.00684401
0.00580634
0.00494598
0.00426525
0.00373498
0.00323001
0.0184101
0.00950545
0.00724385
0.00602366
0.00508801
0.00435731
0.00379952
0.00328396
0.0251941
0.0103742
0.00746452
0.00613512
0.00516291
0.00440844
0.00383645
0.00331502
0.0177874
0.00945967
0.00729077
0.0060821
0.00514434
0.00441077
0.00385152
0.00333447
0.0114444
0.00836849
0.00699384
0.00595096
0.00507985
0.00439101
0.00385545
0.00334378
0.00902525
0.00767939
0.00668467
0.00578664
0.00501502
0.00439661
0.00389479
0.00338859
0.012926
0.0116488
0.0109457
0.01031
0.00947891
0.00818263
0.00634596
0.00440578
0.0156732
0.0122432
0.0109865
0.0101709
0.00934435
0.00816731
0.00643926
0.00450593
0.0227412
0.0134002
0.0111766
0.010166
0.00934578
0.00825914
0.00660434
0.00466228
0.0305401
0.0143656
0.0113529
0.0102121
0.00938089
0.00832039
0.00668701
0.00473593
0.0221089
0.013286
0.0111417
0.0101399
0.00932044
0.00823612
0.00658561
0.0046497
0.0153958
0.01218
0.0109315
0.0100923
0.00924689
0.00806369
0.00634458
0.00443412
0.0129752
0.0116927
0.0109215
0.0102035
0.00929363
0.00794228
0.00609252
0.00418262
0.000189761
0.000177143
0.000173983
0.000171249
0.000167311
0.000164226
0.000162094
0.000160936
0.000301516
0.00018039
0.000164296
0.000158594
0.00015069
0.000144713
0.000139409
0.000135845
0.00130875
0.000305424
0.000171873
0.000150659
0.000142105
0.000132672
0.000127816
0.00012342
0.00329099
0.000550265
0.000195816
0.000148289
0.000134633
0.00012393
0.000115126
0.000108747
0.00157674
0.00035674
0.000183849
0.000156129
0.000145734
0.000135069
0.000124873
0.000120884
0.000330293
0.000186077
0.000164574
0.000154295
0.000149091
0.000144873
0.000143882
0.000144539
0.000184409
0.000172897
0.000170527
0.000168234
0.000165089
0.000162285
0.000160001
0.000158533
0.000842793
0.000623081
0.000528278
0.000455306
0.000396342
0.000348524
0.000310062
0.000278943
0.00212635
0.000842636
0.000620163
0.00051651
0.000443501
0.000385221
0.000336656
0.000296877
0.00890315
0.00149252
0.000764738
0.000589874
0.00049779
0.000428454
0.000371463
0.000322336
0.0213035
0.00227866
0.000846253
0.00060406
0.000500062
0.000427947
0.000369963
0.000321189
0.010063
0.00161749
0.000786703
0.00059581
0.000500249
0.000430567
0.00037408
0.000326683
0.0022695
0.000864581
0.000625705
0.000518187
0.000444434
0.00038525
0.000337838
0.000298324
0.000840257
0.000612883
0.000517781
0.000443841
0.000383743
0.000335078
0.000296185
0.000265018
0.00360458
0.0028954
0.00254026
0.00220882
0.00186538
0.00151923
0.00119396
0.00091565
0.00675763
0.00346387
0.00276526
0.00237963
0.00203193
0.00167794
0.00132752
0.00100883
0.0205715
0.00485617
0.0029919
0.00245795
0.00210669
0.00177082
0.00143006
0.00110377
0.0477972
0.00674007
0.00310137
0.00238843
0.00201556
0.00168631
0.00135953
0.0010469
0.021862
0.00498566
0.00299292
0.00244056
0.00208837
0.00175501
0.00141681
0.00109276
0.00695631
0.00345576
0.0027286
0.00234181
0.00199836
0.00164953
0.00130461
0.000992016
0.0035357
0.00281178
0.00246386
0.00214207
0.001809
0.00147308
0.00115692
0.00088574
0.0105072
0.00895378
0.00783514
0.00680023
0.00588366
0.00512819
0.00450305
0.00387421
0.0144705
0.00998694
0.00839993
0.00723812
0.00624234
0.00543284
0.0047984
0.00419954
0.0288837
0.0117287
0.00871558
0.00734328
0.00630663
0.00549802
0.00491053
0.00440857
0.0575396
0.0139636
0.00880123
0.00714935
0.00603435
0.00518093
0.00457239
0.00408504
0.0300587
0.01189
0.00874717
0.00735975
0.00632592
0.00552007
0.00492916
0.00441568
0.0147067
0.00998167
0.00836191
0.00719888
0.0062024
0.00538683
0.00473995
0.00412335
0.0103769
0.00879779
0.00768714
0.00665649
0.00573737
0.00497674
0.00434989
0.00373048
0.0144803
0.0131004
0.012248
0.0114243
0.0103647
0.00879204
0.0066326
0.00438663
0.0177774
0.0139713
0.0126901
0.0118627
0.0109914
0.00966945
0.00761682
0.00522667
0.0287847
0.0154746
0.0130459
0.0121665
0.0115316
0.0105541
0.0087462
0.00636596
0.0511834
0.0173751
0.0131698
0.012094
0.0115358
0.010772
0.00924515
0.00711641
0.0296558
0.0156465
0.0131181
0.0122059
0.0115321
0.0104998
0.00863647
0.00621523
0.0181258
0.0141097
0.0128021
0.0119631
0.0110656
0.00970575
0.00761454
0.00519382
0.0145877
0.0132168
0.0124267
0.0116682
0.0106576
0.00909854
0.0069026
0.00458231
0.000179072
0.000162815
0.000158146
0.0001539
0.000148828
0.000144447
0.00014051
0.000136823
0.000372206
0.000185431
0.000148378
0.000136371
0.000127837
0.000121137
0.00011442
0.000110311
0.00179775
0.000396588
0.000174978
0.000136619
0.000123192
0.000110976
9.95241e-05
9.08378e-05
0.00288946
0.000486139
0.000171292
0.000124042
0.00010902
9.95011e-05
9.15028e-05
8.42612e-05
0.000900251
0.000236029
0.000140601
0.00012231
0.000114213
0.000106792
9.8193e-05
8.91236e-05
0.000208676
0.000143501
0.000130355
0.000123265
0.000116656
0.000110062
0.000103635
0.00010062
0.000141018
0.000137031
0.000133049
0.000130048
0.000127387
0.000123737
0.000119933
0.000116165
0.000890337
0.000638638
0.000532435
0.000449119
0.000380434
0.000324422
0.000279555
0.000243914
0.00249762
0.000993969
0.000706399
0.000566609
0.000465082
0.000382445
0.000314578
0.000260634
0.00999751
0.00188148
0.000939181
0.000696843
0.000565485
0.00046625
0.000385202
0.000317981
0.0140437
0.00204311
0.000912249
0.000667212
0.000546013
0.000456966
0.000384012
0.00032319
0.00486554
0.00120201
0.000721557
0.000563976
0.000464391
0.00038505
0.000318445
0.00026388
0.00135885
0.000690909
0.000527496
0.000434429
0.000363153
0.000305504
0.000258158
0.000220298
0.000659116
0.000496861
0.000413932
0.000351286
0.000301242
0.000261571
0.000230328
0.000205446
0.00354795
0.00278664
0.00243758
0.00212092
0.00179359
0.00146061
0.00114223
0.000862927
0.00713751
0.00347378
0.00269684
0.0022967
0.00195187
0.00160559
0.00126077
0.000941592
0.0207467
0.00509357
0.0029741
0.0023694
0.00199785
0.00165988
0.00132282
0.000999737
0.0311697
0.00580609
0.00294904
0.00227076
0.00189578
0.00156952
0.0012508
0.000947651
0.0124697
0.00394297
0.00260588
0.00213618
0.00180628
0.00149246
0.00117845
0.000880779
0.0046796
0.00276564
0.0022395
0.00191571
0.00162146
0.00132702
0.00103851
0.000775821
0.00281275
0.00226876
0.00196776
0.0016973
0.00142781
0.00116259
0.000914947
0.000700871
0.010263
0.00864539
0.00752979
0.00649962
0.0055839
0.00483231
0.0042263
0.00364947
0.0149321
0.00973786
0.0080217
0.00681437
0.00577278
0.0049149
0.00424992
0.00367122
0.0313365
0.0119296
0.00840109
0.00687839
0.00571699
0.00475084
0.0039898
0.00334521
0.0494564
0.0135294
0.00844581
0.00675589
0.00558765
0.00462614
0.00386565
0.0032161
0.0236957
0.010631
0.00787064
0.00650255
0.00540547
0.00448041
0.00374308
0.00310749
0.0121682
0.00860765
0.00716619
0.00607101
0.0051168
0.00433236
0.00372139
0.00318528
0.00890253
0.00752963
0.0065177
0.00560364
0.00481384
0.00417999
0.0036731
0.0031854
0.0145068
0.0131301
0.0123805
0.0117022
0.0108142
0.00940573
0.00733515
0.00505193
0.0186839
0.0140479
0.0127241
0.0120537
0.0114377
0.0104094
0.00858252
0.00628156
0.0341321
0.0160642
0.0127529
0.0116631
0.0110284
0.0102277
0.00875982
0.00681935
0.0553968
0.0179424
0.012602
0.0111324
0.0103651
0.00956936
0.00825895
0.00658694
0.0287264
0.0149329
0.0121304
0.0110823
0.0103896
0.0095269
0.0080892
0.00629087
0.016572
0.0128606
0.0116435
0.0109549
0.0103139
0.00935025
0.00776829
0.00583117
0.0131256
0.0118671
0.011156
0.0105394
0.00977212
0.00858461
0.00683932
0.00489455
0.000146407
0.000143054
0.000140284
0.000138451
0.000134536
0.000130843
0.000127372
0.000123335
0.000221901
0.000158526
0.000143093
0.00013553
0.000128867
0.000123168
0.000117942
0.000114567
0.00100043
0.000272038
0.000161234
0.000140514
0.000130202
0.000121112
0.000113175
0.00010624
0.00321821
0.000558142
0.00019986
0.00014699
0.000131349
0.000120722
0.000111308
0.000102742
0.00205611
0.000448562
0.000196241
0.00015274
0.000138121
0.000127843
0.000118739
0.000110701
0.000447111
0.000226571
0.000171692
0.000156769
0.000148215
0.00013977
0.000134154
0.000129795
0.000201234
0.000179719
0.000171544
0.00016701
0.000162423
0.000158617
0.00015575
0.000153947
0.000651735
0.000509822
0.000434663
0.000375847
0.000328712
0.000290851
0.00026041
0.000235356
0.00130013
0.000694081
0.000543216
0.000456805
0.000391639
0.000338842
0.000295255
0.000259413
0.00474215
0.00118111
0.000724534
0.000576082
0.000484872
0.000413204
0.000353162
0.000302408
0.0150447
0.00207984
0.000923182
0.000680445
0.000561884
0.000474817
0.000403983
0.0003447
0.0105435
0.00188364
0.000927752
0.000692648
0.000570894
0.000480997
0.000408084
0.000347209
0.00261676
0.00100203
0.000710357
0.000577208
0.000484408
0.000410646
0.000350889
0.000301735
0.000883911
0.000643683
0.000547075
0.00047114
0.000408423
0.000356718
0.000314603
0.000280169
0.00291679
0.00242338
0.00213318
0.00185714
0.00157291
0.00128819
0.00102041
0.000788771
0.00470606
0.00293092
0.00243627
0.00212026
0.00182152
0.00151275
0.00120379
0.000919381
0.0126303
0.00409509
0.00279563
0.00234588
0.00202775
0.00171461
0.00138882
0.00106892
0.0346355
0.00613607
0.00311863
0.00243847
0.00207159
0.00174717
0.00142027
0.00109919
0.0217379
0.00525741
0.00311891
0.00252799
0.00216835
0.00183394
0.00149023
0.00115129
0.00727162
0.00360146
0.00283296
0.00243488
0.00208645
0.00173075
0.00137273
0.00104052
0.0036231
0.00289378
0.00254837
0.00222474
0.00188545
0.00153899
0.00120892
0.000922515
0.00924827
0.00796103
0.00698138
0.00608245
0.00529949
0.00466509
0.00414581
0.00361885
0.0123711
0.00909988
0.00774997
0.00672213
0.00583955
0.00512888
0.00457988
0.00406001
0.0236084
0.0110228
0.00838241
0.00709169
0.00610282
0.00532611
0.00476272
0.00428906
0.0512954
0.0139397
0.00882218
0.00714697
0.0060357
0.00518112
0.00456379
0.00406305
0.0313815
0.0122335
0.00879718
0.00734597
0.00629732
0.00549008
0.00491337
0.00443518
0.0150508
0.0100749
0.0084128
0.00724987
0.00626743
0.00547689
0.00486793
0.00429966
0.010477
0.00891209
0.00780774
0.00678456
0.0058773
0.00513111
0.00451722
0.00390277
0.0132989
0.0120757
0.0113259
0.0106164
0.00970021
0.00832078
0.0064012
0.00437828
0.0166709
0.0133262
0.012215
0.0115516
0.0108422
0.00967066
0.00774699
0.00544302
0.0280921
0.0154442
0.0129914
0.0122082
0.0117203
0.0108839
0.00917893
0.00685223
0.0543604
0.0183688
0.0134413
0.0122955
0.0118371
0.0112205
0.00981714
0.00775106
0.0331035
0.0163773
0.0134017
0.0125073
0.0119743
0.0110857
0.00927643
0.00681212
0.0185313
0.0142189
0.012906
0.0121426
0.0113439
0.0100539
0.00795908
0.00546531
0.0144755
0.0130899
0.0122533
0.0114466
0.0104022
0.00884109
0.00668493
0.00443135
0.000112087
0.000106916
0.000104887
9.96576e-05
0.000102248
0.000105024
0.000112734
0.000188902
0.000188163
0.000185053
0.000185128
0.000185752
0.000191386
0.000201489
0.000527678
0.000526039
0.000524597
0.000525317
0.000530146
0.000540018
0.000563427
0.00252803
0.00252664
0.00254676
0.00256494
0.00259104
0.00262318
0.00269814
0.0024211
0.00233605
0.00233438
0.00234109
0.00233079
0.00230546
0.00227882
0.000159293
0.000136491
0.000114719
0.00010279
0.000116679
0.000140961
0.00015697
0.000252697
0.000263567
0.000281208
0.000280382
0.000286156
0.000265925
0.000239114
0.000703489
0.000751983
0.000827661
0.000781657
0.000818968
0.0007415
0.000678235
0.00303271
0.00334788
0.00365707
0.00340479
0.00364246
0.00325517
0.0029198
0.00219783
0.00254458
0.00329691
0.004061
0.00313364
0.00248917
0.00228895
0.000133642
0.000107659
8.46763e-05
7.79709e-05
8.32079e-05
9.93901e-05
0.000112125
0.000215285
0.000217873
0.000263961
0.000274133
0.000220467
0.000189359
0.000184904
0.000642135
0.000678293
0.000725181
0.000691876
0.000631313
0.00056168
0.000532617
0.00290988
0.00294519
0.00258011
0.00243962
0.00236105
0.00252605
0.00255309
0.00264825
0.00339111
0.00402106
0.00409347
0.00375709
0.00332746
0.00276196
0.000118887
0.000112877
0.000100935
9.47989e-05
0.000103356
0.000125781
0.000152362
0.000213742
0.000229025
0.000260214
0.000296255
0.00029729
0.000261858
0.000251025
0.000607266
0.000686509
0.000791505
0.000819129
0.000855175
0.000767667
0.00070075
0.00289208
0.00329139
0.00358573
0.00336289
0.00371934
0.00347197
0.00307616
0.00233562
0.00276415
0.00370583
0.00461112
0.0035501
0.00263767
0.00222185
0.000109967
0.000106679
9.93745e-05
9.04091e-05
8.01155e-05
6.95201e-05
5.91681e-05
4.91676e-05
0.000104826
0.000101455
9.4028e-05
8.48174e-05
7.47475e-05
6.4508e-05
5.45831e-05
4.50891e-05
0.000102004
9.83971e-05
9.13644e-05
8.11435e-05
7.09167e-05
6.10986e-05
5.16523e-05
4.26433e-05
9.69897e-05
9.447e-05
9.0249e-05
8.17449e-05
7.08176e-05
5.98913e-05
5.0248e-05
4.14622e-05
9.9089e-05
9.56637e-05
8.97918e-05
7.97985e-05
6.96522e-05
6.00391e-05
5.07974e-05
4.19913e-05
0.000102828
9.9456e-05
9.20802e-05
8.26676e-05
7.26829e-05
6.26365e-05
5.29837e-05
4.3812e-05
0.000110637
0.000107252
9.97316e-05
8.9807e-05
7.88005e-05
6.78222e-05
5.74023e-05
4.75799e-05
0.000171595
0.000146561
0.00011882
9.47066e-05
7.62806e-05
6.24504e-05
5.18294e-05
4.36066e-05
0.000170993
0.000145485
0.000117505
9.3274e-05
7.4648e-05
6.06617e-05
4.99716e-05
4.17504e-05
0.000167284
0.000141999
0.000114301
9.0852e-05
7.27399e-05
5.90841e-05
4.86347e-05
4.05785e-05
0.000166874
0.000141387
0.00011408
9.03206e-05
7.18367e-05
5.81106e-05
4.77721e-05
3.98567e-05
0.000167311
0.000141605
0.000113406
8.98329e-05
7.17337e-05
5.81632e-05
4.78475e-05
3.99251e-05
0.000172961
0.0001458
0.00011652
9.1688e-05
7.27966e-05
5.88246e-05
4.83126e-05
4.03221e-05
0.000182476
0.00015351
0.000121533
9.47072e-05
7.47293e-05
6.01953e-05
4.94093e-05
4.13025e-05
0.000416338
0.000313582
0.000211093
0.000140343
9.69868e-05
7.0463e-05
5.37101e-05
4.29877e-05
0.000414231
0.000310889
0.000209064
0.000138995
9.60041e-05
6.96637e-05
5.30232e-05
4.23799e-05
0.000409573
0.000305968
0.000206967
0.000138094
9.54679e-05
6.92355e-05
5.26252e-05
4.19812e-05
0.000408041
0.000302861
0.000205781
0.00013769
9.51817e-05
6.89454e-05
5.2366e-05
4.17659e-05
0.000411833
0.00030566
0.00020651
0.000137412
9.46977e-05
6.85256e-05
5.20387e-05
4.15154e-05
0.00042095
0.000313358
0.000209362
0.000137902
9.43713e-05
6.80088e-05
5.15735e-05
4.11809e-05
0.000443145
0.000329898
0.000217107
0.000140899
9.52929e-05
6.80973e-05
5.13807e-05
4.09459e-05
0.00181754
0.000882023
0.000385251
0.000189849
0.000108154
6.95044e-05
4.91441e-05
3.78048e-05
0.00180064
0.000868795
0.000379311
0.000187632
0.000107333
6.92124e-05
4.90968e-05
3.79109e-05
0.00181074
0.000874262
0.000381279
0.00018823
0.000107517
6.92614e-05
4.90888e-05
3.78726e-05
0.00182283
0.000880883
0.000383494
0.000188734
0.000107571
6.92444e-05
4.91029e-05
3.79321e-05
0.00184285
0.000887526
0.000384369
0.000188215
0.000106891
6.86663e-05
4.86462e-05
3.75668e-05
0.00186879
0.00089424
0.000384317
0.000186902
0.000105558
6.75752e-05
4.78276e-05
3.69827e-05
0.00192735
0.000917967
0.000391377
0.000188437
0.000105325
6.68216e-05
4.6981e-05
3.61741e-05
0.00170259
0.00100476
0.000438153
0.000200283
0.000103986
6.18307e-05
4.16241e-05
3.13774e-05
0.00161472
0.000967753
0.000427671
0.000197173
0.000102877
6.13695e-05
4.14713e-05
3.14552e-05
0.00159116
0.000958945
0.000426464
0.0001972
0.000102958
6.13983e-05
4.14787e-05
3.14748e-05
0.00158644
0.000956556
0.000426236
0.00019726
0.000103047
6.15136e-05
4.16242e-05
3.16534e-05
0.00158596
0.000954929
0.000424356
0.000195843
0.000102076
6.08565e-05
4.11671e-05
3.131e-05
0.00158467
0.000950708
0.00041988
0.000192833
0.000100196
5.96861e-05
4.04326e-05
3.08412e-05
0.00159374
0.000952218
0.000416872
0.000190043
9.81633e-05
5.82479e-05
3.93942e-05
3.00226e-05
0.000156707
0.000147998
0.000134453
0.000117986
0.000101556
8.63177e-05
7.25453e-05
6.01879e-05
0.000136418
0.000133365
0.000126375
0.000114153
9.96978e-05
8.51908e-05
7.13171e-05
5.87234e-05
0.000107918
9.97407e-05
9.10987e-05
8.20312e-05
7.30795e-05
6.47478e-05
5.60228e-05
4.70656e-05
9.72897e-05
8.79589e-05
7.86208e-05
6.9474e-05
6.05568e-05
5.28227e-05
4.59934e-05
3.84575e-05
0.000110696
0.000102682
9.46272e-05
8.59518e-05
7.7581e-05
6.94955e-05
6.03984e-05
5.0324e-05
0.000138604
0.000137604
0.000131182
0.000118425
0.00010373
8.89772e-05
7.45461e-05
6.12538e-05
0.000154271
0.000145765
0.000133374
0.000117975
0.000102233
8.73114e-05
7.35633e-05
6.10084e-05
0.000227356
0.000185533
0.000140788
0.000105163
8.00477e-05
6.28523e-05
5.09417e-05
4.25281e-05
0.000234428
0.000196549
0.000155626
0.000119952
9.25859e-05
7.23038e-05
5.74135e-05
4.65112e-05
0.000244337
0.000199294
0.000160792
0.000129653
0.000104933
8.45913e-05
6.73314e-05
5.33169e-05
0.000243236
0.000197774
0.000159376
0.000128291
0.000103137
8.34349e-05
6.74819e-05
5.48751e-05
0.000250127
0.000206148
0.000167672
0.00013646
0.00011109
9.004e-05
7.19084e-05
5.67168e-05
0.000238009
0.000200534
0.000158406
0.000122248
9.44911e-05
7.3912e-05
5.87364e-05
4.77107e-05
0.000215442
0.000178093
0.000137229
0.000104156
8.03393e-05
6.3651e-05
5.17808e-05
4.32513e-05
0.000553428
0.000385519
0.000236773
0.000144603
9.31556e-05
6.43728e-05
4.77363e-05
3.79046e-05
0.000565161
0.000411255
0.000273955
0.000179296
0.000121577
8.68885e-05
6.53999e-05
5.16599e-05
0.000614772
0.000424507
0.000313917
0.000238911
0.000181561
0.000138382
0.000105262
7.99949e-05
0.000573342
0.000381943
0.000268272
0.000196279
0.000147128
0.000112601
8.79586e-05
7.01414e-05
0.000610134
0.000426623
0.000321785
0.00024191
0.000182616
0.000140386
0.000109474
8.56717e-05
0.000561112
0.000410166
0.000270483
0.000175776
0.000118886
8.49527e-05
6.40763e-05
5.08859e-05
0.000530618
0.000373105
0.000232695
0.00014444
9.43181e-05
6.57048e-05
4.87994e-05
3.86085e-05
0.00210657
0.000972816
0.000398968
0.000183266
9.83153e-05
6.07598e-05
4.23493e-05
3.27602e-05
0.00240489
0.00117168
0.000509078
0.00024748
0.000140718
9.23072e-05
6.74306e-05
5.33825e-05
0.00277535
0.00152444
0.000764834
0.000425011
0.000274333
0.000197064
0.000148796
0.00011289
0.00262129
0.00146101
0.000743364
0.000410245
0.000251175
0.000166181
0.000118231
8.95672e-05
0.00273866
0.00147771
0.000720711
0.00039263
0.000251036
0.000182536
0.000143277
0.000115581
0.00231631
0.00111434
0.000479344
0.000231859
0.000131647
8.58284e-05
6.24647e-05
4.9583e-05
0.00203785
0.000952132
0.000397037
0.000185629
0.000100838
6.25879e-05
4.3431e-05
3.32379e-05
0.00153772
0.000901841
0.000385185
0.000171825
8.77338e-05
5.233e-05
3.61855e-05
2.83826e-05
0.00172464
0.00103456
0.00047084
0.000228623
0.000128913
8.47843e-05
6.32429e-05
5.18143e-05
0.00212376
0.00134147
0.000696441
0.000404445
0.000278173
0.000217912
0.000178229
0.000138056
0.00259438
0.00174326
0.00099314
0.000614265
0.000419368
0.000299528
0.000210213
0.000145785
0.00203413
0.00126447
0.000633777
0.000352662
0.000234089
0.000182134
0.000155143
0.000133078
0.00169825
0.00101122
0.00045109
0.000213474
0.000116888
7.49441e-05
5.54349e-05
4.54674e-05
0.00160909
0.000936255
0.000398232
0.000177681
9.0696e-05
5.38187e-05
3.67504e-05
2.83225e-05
0.000130671
0.000125775
0.000117602
0.000106043
9.33242e-05
8.08904e-05
6.9052e-05
5.78022e-05
0.000103596
9.66346e-05
9.05121e-05
8.47134e-05
7.7496e-05
6.9142e-05
6.06303e-05
5.19695e-05
7.9975e-05
7.28305e-05
6.67702e-05
6.121e-05
5.53719e-05
4.92945e-05
4.34046e-05
3.76968e-05
7.30781e-05
6.56114e-05
5.85706e-05
5.22443e-05
4.63342e-05
4.05954e-05
3.5317e-05
3.03041e-05
7.91095e-05
7.23802e-05
6.70602e-05
6.17201e-05
5.60125e-05
4.97558e-05
4.35144e-05
3.7526e-05
9.57562e-05
8.99925e-05
8.5466e-05
7.96971e-05
7.36077e-05
6.59645e-05
5.78547e-05
4.96193e-05
0.000108117
0.000102265
9.81057e-05
9.09636e-05
8.18234e-05
7.20028e-05
6.20931e-05
5.22737e-05
0.000190293
0.000159581
0.000126375
9.82023e-05
7.71694e-05
6.20762e-05
5.1116e-05
4.30263e-05
0.000182867
0.000145087
0.000116423
9.56547e-05
7.92395e-05
6.63446e-05
5.62003e-05
4.80816e-05
0.000217344
0.000165733
0.00012818
0.00010182
8.24225e-05
6.74652e-05
5.55695e-05
4.59086e-05
0.000230818
0.00018113
0.000142065
0.000111889
8.83712e-05
7.01875e-05
5.58687e-05
4.46531e-05
0.000183837
0.000142318
0.000111324
8.90005e-05
7.22342e-05
5.94307e-05
4.93036e-05
4.11885e-05
0.000163737
0.000134552
0.000109281
9.06674e-05
7.5277e-05
6.3244e-05
5.37895e-05
4.62139e-05
0.000166605
0.000143413
0.00011823
9.53734e-05
7.71857e-05
6.33725e-05
5.28349e-05
4.47276e-05
0.000477813
0.000343962
0.000227493
0.000147388
9.88147e-05
6.98334e-05
5.21141e-05
4.11212e-05
0.000480886
0.000313553
0.000226559
0.000165888
0.000121647
9.10418e-05
7.00972e-05
5.5751e-05
0.000511044
0.000321417
0.000215993
0.000155739
0.000118579
9.44187e-05
7.80214e-05
6.48159e-05
0.000491551
0.000313002
0.000210788
0.000150261
0.00011142
8.47382e-05
6.548e-05
5.15325e-05
0.000442679
0.000275531
0.00018288
0.00013013
9.81814e-05
7.83183e-05
6.48035e-05
5.41303e-05
0.00040463
0.000267733
0.000193801
0.00014406
0.000107918
8.26339e-05
6.4964e-05
5.25567e-05
0.00040817
0.000299952
0.000208885
0.000142471
9.97739e-05
7.29186e-05
5.56916e-05
4.45624e-05
0.00208714
0.0010157
0.000439181
0.000209973
0.000115583
7.20593e-05
4.97127e-05
3.7491e-05
0.0021821
0.00117287
0.00055983
0.000283894
0.000162361
0.000103886
7.25147e-05
5.43889e-05
0.0018373
0.000992584
0.000528906
0.000312032
0.000201474
0.000138257
9.91119e-05
7.45134e-05
0.00169853
0.00088816
0.000453967
0.000255404
0.000159726
0.000108913
7.90315e-05
5.9884e-05
0.00166037
0.000870372
0.000447428
0.000259025
0.000168074
0.000117738
8.72493e-05
6.80117e-05
0.00186223
0.000998528
0.000479622
0.000247083
0.000144898
9.54e-05
6.83386e-05
5.22877e-05
0.00185641
0.000928835
0.000414291
0.00020515
0.00011692
7.51025e-05
5.29785e-05
4.05398e-05
0.00183164
0.00106019
0.000458934
0.000208534
0.000107625
6.36641e-05
4.26197e-05
3.18471e-05
0.00218771
0.00126871
0.000575979
0.000277015
0.0001506
9.23888e-05
6.27294e-05
4.65155e-05
0.00241242
0.0013758
0.000665698
0.000349777
0.000205434
0.000133145
9.40755e-05
7.17308e-05
0.00239628
0.00133624
0.000648306
0.000349732
0.00021719
0.000153253
0.000118714
9.70239e-05
0.00227797
0.00128609
0.000610097
0.000317064
0.0001887
0.000126165
9.19198e-05
7.16471e-05
0.00217248
0.00125753
0.000566318
0.000271826
0.000148883
9.24946e-05
6.34783e-05
4.73246e-05
0.00191405
0.00111213
0.000484565
0.000222126
0.000115935
6.92553e-05
4.65688e-05
3.47824e-05
0.000115635
0.000112995
0.000107046
9.70938e-05
8.53899e-05
7.35378e-05
6.22812e-05
5.17545e-05
0.000110306
0.000104955
0.000101121
9.42919e-05
8.45791e-05
7.36008e-05
6.24749e-05
5.18224e-05
9.65039e-05
8.84806e-05
8.11748e-05
7.38009e-05
6.61445e-05
5.83718e-05
5.05523e-05
4.28929e-05
8.84928e-05
7.91276e-05
7.04438e-05
6.24938e-05
5.50807e-05
4.8138e-05
4.15873e-05
3.53159e-05
9.77303e-05
8.93986e-05
8.18721e-05
7.4421e-05
6.67447e-05
5.90807e-05
5.1453e-05
4.37569e-05
0.000122677
0.00011637
0.000112033
0.000103997
9.29695e-05
8.07583e-05
6.85875e-05
5.69906e-05
0.00015019
0.000143132
0.000130877
0.000115444
9.96118e-05
8.48193e-05
7.14039e-05
5.92485e-05
0.000193661
0.000164573
0.000130384
0.000100781
7.83904e-05
6.21576e-05
5.03455e-05
4.16887e-05
0.000202363
0.00016939
0.000137179
0.000108117
8.47056e-05
6.68207e-05
5.33916e-05
4.32383e-05
0.000222782
0.000178369
0.000141619
0.000112694
9.0047e-05
7.21029e-05
5.76482e-05
4.59228e-05
0.000252472
0.00020096
0.000158809
0.000125941
0.00010066
8.11855e-05
6.55938e-05
5.28273e-05
0.000252737
0.0002013
0.000159797
0.000127434
0.000102242
8.20796e-05
6.56028e-05
5.22296e-05
0.000227276
0.00018723
0.000150196
0.000117431
9.16346e-05
7.23638e-05
5.8159e-05
4.75939e-05
0.000224052
0.000182984
0.000139282
0.000104186
7.93526e-05
6.23428e-05
5.05125e-05
4.21112e-05
0.000473
0.000352894
0.000232072
0.000149092
9.92358e-05
6.96519e-05
5.16551e-05
4.05347e-05
0.000516503
0.00037287
0.00025994
0.000175797
0.000121148
8.67833e-05
6.48415e-05
5.05284e-05
0.0005753
0.000378416
0.000264195
0.000197476
0.000152257
0.000117734
9.07107e-05
6.94335e-05
0.000592814
0.000382089
0.000258488
0.00018506
0.000137912
0.000105636
8.22972e-05
6.52028e-05
0.000619803
0.000407891
0.000286774
0.000216538
0.000169697
0.00013359
0.000104911
8.15675e-05
0.0005666
0.000402641
0.000275777
0.000184202
0.000126306
9.07992e-05
6.87654e-05
5.47781e-05
0.000541067
0.000382226
0.000237797
0.000146181
9.44175e-05
6.52463e-05
4.82804e-05
3.81807e-05
0.00207215
0.000990999
0.00042053
0.000199326
0.000109501
6.84362e-05
4.75089e-05
3.61543e-05
0.00241484
0.00122396
0.000546705
0.000268126
0.000151801
9.83298e-05
7.05502e-05
5.47382e-05
0.00276267
0.00155251
0.000792923
0.000436331
0.000271428
0.00018932
0.000143122
0.000111547
0.00256002
0.00141993
0.000712716
0.000375487
0.00021787
0.0001403
9.95015e-05
7.68608e-05
0.00286641
0.00160661
0.000817806
0.000448585
0.000279586
0.000198389
0.000154206
0.000125188
0.00252429
0.00125584
0.000549716
0.000264746
0.000148259
9.56081e-05
6.96555e-05
5.57196e-05
0.0021546
0.00100059
0.000411398
0.00018921
0.000101571
6.27255e-05
4.35706e-05
3.34969e-05
0.00163679
0.000971005
0.000423651
0.000193085
0.000100102
5.98626e-05
4.08491e-05
3.12947e-05
0.00187998
0.00113088
0.0005198
0.000254298
0.000143278
9.33232e-05
6.8539e-05
5.51312e-05
0.00236804
0.00149243
0.000771831
0.000435761
0.000285536
0.000215241