/*--------------------------------*- C++ -*----------------------------------*\
| =========                 |                                                 |
| \\      /  F ield         | OpenFOAM: The Open Source CFD Toolbox           |
|  \\    /   O peration     | Version:  plus.master                           |
|   \\  /    A nd           | Web:      www.OpenFOAM.com                      |
|    \\/     M anipulation  |                                                 |
\*---------------------------------------------------------------------------*/
FoamFile
{
    version     2.0;
    format      ascii;
    class       volScalarField;
    location    "6.8";
    object      p_rgh;
}
// * * * * * * * * * * * * * * * * * * * * * * * * * * * * * * * * * * * * * //

dimensions      [1 -1 -2 0 0 0 0];

internalField   nonuniform List<scalar> 
47285
(
5702.05
5699.83
5699.06
5699.41
5699.16
5700.1
5701.61
5699.82
5664.73
5668.64
5673.97
5663.51
5666.21
5699.6
5698.8
5665.72
5641.08
5641.45
5641.54
5671.9
5698.72
5699.09
5675.62
5642.2
5638.53
5641.79
5678.67
5699.82
5698.89
5665.37
5640.93
5641.56
5641.43
5671.38
5698.95
5699.83
5664.94
5668.6
5673.86
5663.87
5666.66
5699.88
5701.86
5699.34
5698.47
5698.92
5698.75
5699.85
5701.56
5713.26
5715.05
5716.68
5717.11
5716.17
5714.46
5712.59
5715.04
5694.27
5703.58
5715.33
5705.17
5708.55
5714.39
5716.55
5698.02
5586.39
5575.86
5605.54
5720.71
5715.94
5717
5695.44
5568.39
5555.95
5595.08
5721.26
5716.48
5716.56
5695.31
5586.14
5571.93
5607.65
5720.56
5715.91
5715.02
5698.56
5707.02
5711.12
5709.94
5709.04
5714.39
5713.25
5715.04
5716.59
5717.07
5716.15
5714.46
5712.57
5717.84
5721.32
5724.18
5724.91
5722.96
5719.72
5716.12
5721.47
5726.62
5720.31
5725.23
5729.68
5724.47
5719.39
5724.25
5720.24
5533.82
5494.41
5611.87
5728.83
5722.03
5725.85
5686.49
5465.93
5441.8
5590.75
5729.62
5722.81
5724.51
5717.4
5532.09
5482.13
5612.21
5728.82
5722.03
5721.58
5726.66
5722.83
5717.06
5729.8
5724.53
5719.4
5717.94
5721.41
5724.21
5725.33
5723.15
5719.82
5716.15
5712.18
5717.25
5721.37
5722.35
5719.02
5713.91
5708.67
5717.96
5725.55
5723.81
5720.06
5728.75
5720.67
5713.29
5722.86
5731.68
5481.88
5412.79
5600.83
5726.8
5717.08
5726.13
5671.74
5358.5
5321.31
5580.93
5728.51
5718.33
5723.33
5731.35
5482.63
5394.31
5600.96
5726.95
5717.14
5718.35
5726.15
5728.5
5709.02
5729.12
5720.94
5713.47
5712.59
5717.78
5721.92
5723.01
5719.48
5714.27
5708.97
5676.88
5681.63
5685.85
5687
5683.21
5677.85
5673.02
5682.45
5690.53
5695.23
5675.47
5693.65
5684.56
5677.11
5687.71
5699.81
5419.52
5292.36
5549.79
5691.08
5680.79
5690.67
5646.92
5227.47
5163.48
5505.2
5692.87
5682.01
5687.54
5699.56
5426.84
5274.24
5552.85
5690.82
5680.66
5682.35
5690.41
5698.22
5664.18
5693.49
5684.45
5677.04
5676.88
5681.66
5685.88
5687.15
5683.25
5677.89
5673.06
5703.46
5704.64
5705.26
5705.66
5705.9
5706.03
5706.09
5706.1
5702.59
5704.4
5705.11
5705.59
5705.88
5706.02
5706.08
5706.11
5702.2
5704.53
5705.27
5705.72
5705.95
5706.06
5706.12
5706.15
5702.84
5704.9
5705.45
5705.83
5706.05
5706.07
5706.09
5706.13
5702.16
5704.49
5705.34
5705.78
5706.01
5706.09
5706.14
5706.17
5702.48
5704.27
5705.17
5705.62
5705.9
5706.03
5706.08
5706.11
5703.42
5704.59
5705.27
5705.67
5705.92
5706.04
5706.09
5706.1
5711.07
5709.97
5709.09
5708.39
5707.83
5707.38
5707.03
5706.75
5712.28
5710.76
5709.59
5708.7
5708.02
5707.49
5707.08
5706.77
5713.34
5711.47
5710.03
5708.98
5708.19
5707.58
5707.12
5706.79
5713.78
5711.79
5710.26
5709.13
5708.29
5707.65
5707.17
5706.82
5713.31
5711.44
5710.03
5708.98
5708.2
5707.6
5707.15
5706.81
5712.27
5710.74
5709.59
5708.72
5708.04
5707.52
5707.12
5706.81
5711.05
5709.97
5709.11
5708.42
5707.87
5707.43
5707.09
5706.82
5713.12
5710.96
5709.23
5707.86
5706.79
5705.96
5705.36
5704.97
5715.33
5712.4
5710.14
5708.42
5707.1
5706.12
5705.42
5704.98
5717.12
5713.59
5710.88
5708.86
5707.35
5706.24
5705.46
5704.98
5717.75
5714.04
5711.18
5709.04
5707.46
5706.3
5705.5
5704.99
5717.19
5713.65
5710.93
5708.9
5707.39
5706.28
5705.5
5705.01
5715.3
5712.4
5710.18
5708.48
5707.17
5706.19
5705.49
5705.04
5713.15
5711.01
5709.31
5707.95
5706.89
5706.06
5705.46
5705.06
5704.59
5701.84
5699.91
5698.66
5698.05
5698.07
5698.73
5700.01
5707.6
5703.71
5700.97
5699.17
5698.21
5698.03
5698.63
5699.99
5710.06
5705.22
5701.79
5699.56
5698.33
5698
5698.55
5699.93
5710.96
5705.82
5702.16
5699.78
5698.44
5698.06
5698.59
5699.98
5710.1
5705.29
5701.89
5699.67
5698.45
5698.13
5698.68
5700.07
5707.77
5703.91
5701.19
5699.41
5698.46
5698.3
5698.91
5700.26
5704.94
5702.23
5700.33
5699.1
5698.51
5698.54
5699.22
5700.51
5669.8
5667.66
5666.26
5665.33
5664.84
5664.37
5663.6
5664.33
5672.18
5669.06
5666.98
5665.71
5665
5664.33
5663.35
5663.88
5674.17
5670.1
5667.45
5665.85
5664.95
5664.18
5663.08
5663.51
5674.92
5670.52
5667.68
5665.97
5665
5664.19
5663.05
5663.46
5674.13
5670.09
5667.47
5665.88
5664.98
5664.21
5663.1
5663.53
5672.18
5669.09
5667.04
5665.77
5665.04
5664.36
5663.35
5663.85
5669.95
5667.86
5666.46
5665.6
5665.1
5664.53
5663.65
5664.28
5703.91
5704.93
5705.59
5706.01
5706.26
5706.4
5706.48
5706.51
5703.17
5704.62
5705.47
5706.01
5706.3
5706.44
5706.45
5706.4
5703.05
5704.74
5705.53
5706.1
5706.42
5706.53
5706.59
5706.62
5703.23
5704.96
5705.7
5706.3
5706.66
5706.83
5706.9
5706.92
5703.02
5704.83
5705.6
5706.18
5706.53
5706.65
5706.63
5706.63
5703.14
5704.71
5705.54
5706.02
5706.28
5706.38
5706.44
5706.5
5704.02
5705.02
5705.66
5706.07
5706.32
5706.46
5706.53
5706.56
5711.77
5710.68
5709.8
5709.09
5708.52
5708.05
5707.67
5707.38
5713.07
5711.55
5710.38
5709.49
5708.78
5708.21
5707.76
5707.41
5714.23
5712.4
5710.97
5709.89
5709.06
5708.42
5707.9
5707.5
5714.77
5712.85
5711.32
5710.17
5709.31
5708.64
5708.12
5707.7
5714.24
5712.42
5710.98
5709.91
5709.09
5708.45
5707.93
5707.53
5713.08
5711.56
5710.39
5709.49
5708.78
5708.21
5707.77
5707.42
5711.77
5710.67
5709.79
5709.08
5708.5
5708.02
5707.64
5707.34
5714.79
5712.52
5710.69
5709.23
5708.06
5707.14
5706.44
5705.94
5717.34
5714.21
5711.78
5709.92
5708.47
5707.37
5706.55
5705.99
5719.45
5715.63
5712.68
5710.5
5708.85
5707.59
5706.66
5706.03
5720.5
5716.52
5713.29
5710.87
5709.06
5707.72
5706.75
5706.08
5719.35
5715.62
5712.72
5710.53
5708.85
5707.59
5706.67
5706.04
5717.27
5714.15
5711.74
5709.88
5708.45
5707.36
5706.55
5705.99
5714.69
5712.43
5710.62
5709.16
5708
5707.09
5706.4
5705.91
5708.01
5704.97
5702.8
5701.35
5700.57
5700.44
5700.96
5702.09
5711.71
5707.22
5704.05
5701.94
5700.72
5700.32
5700.73
5701.89
5714.99
5709.19
5705.15
5702.49
5700.87
5700.18
5700.47
5701.63
5716.89
5710.47
5705.85
5702.78
5700.97
5700.22
5700.44
5701.12
5714.74
5709.1
5705.09
5702.39
5700.79
5700.17
5700.47
5701.63
5711.45
5707
5703.86
5701.77
5700.57
5700.18
5700.6
5701.77
5707.66
5704.62
5702.45
5701.01
5700.23
5700.09
5700.61
5701.74
5673.3
5670.95
5669.34
5668.31
5667.67
5667
5666.04
5666.57
5676.35
5672.68
5670.24
5668.71
5667.8
5667
5665.93
5666.39
5679.24
5674.06
5670.92
5668.89
5667.62
5666.67
5665.53
5666.17
5681.04
5675.14
5671.37
5669.09
5667.77
5666.71
5665.6
5666.4
5679.33
5674.26
5670.96
5668.94
5667.77
5666.87
5665.74
5666.29
5676.42
5672.71
5670.28
5668.78
5667.91
5667.15
5666.13
5666.63
5673.21
5670.8
5669.19
5668.19
5667.59
5666.98
5666.11
5666.74
5704.04
5705.05
5705.68
5706.1
5706.35
5706.5
5706.58
5706.61
5703.23
5704.83
5705.65
5706.13
5706.4
5706.52
5706.53
5706.52
5703.11
5705
5705.76
5706.36
5706.71
5706.86
5706.85
5706.79
5703.5
5705.18
5705.81
5706.36
5706.69
5706.87
5706.96
5706.98
5703.26
5704.9
5705.56
5706.04
5706.34
5706.49
5706.5
5706.41
5703.32
5704.69
5705.4
5705.86
5706.13
5706.24
5706.22
5706.21
5703.7
5704.72
5705.32
5705.73
5706.01
5706.19
5706.3
5706.36
5711.77
5710.68
5709.8
5709.09
5708.51
5708.03
5707.64
5707.33
5713.07
5711.57
5710.4
5709.49
5708.77
5708.18
5707.7
5707.32
5714.29
5712.49
5711.06
5709.99
5709.17
5708.53
5708.01
5707.6
5714.59
5712.65
5711.16
5710.05
5709.2
5708.54
5708.01
5707.59
5713.82
5712.02
5710.62
5709.56
5708.74
5708.1
5707.6
5707.2
5712.53
5711.05
5709.9
5709.01
5708.31
5707.75
5707.3
5706.94
5711.15
5710.07
5709.2
5708.5
5707.93
5707.48
5707.12
5706.83
5714.66
5712.4
5710.58
5709.12
5707.95
5707.04
5706.35
5705.87
5717.04
5713.96
5711.55
5709.69
5708.25
5707.14
5706.32
5705.76
5719.02
5715.36
5712.49
5710.3
5708.63
5707.39
5706.49
5705.87
5719.44
5715.59
5712.58
5710.29
5708.57
5707.3
5706.39
5705.77
5718.07
5714.51
5711.74
5709.63
5708.03
5706.83
5705.96
5705.35
5715.75
5712.82
5710.54
5708.78
5707.42
5706.38
5705.62
5705.11
5713.24
5711.12
5709.39
5708.01
5706.91
5706.07
5705.44
5705.03
5707.46
5704.47
5702.28
5700.81
5699.99
5699.81
5700.26
5701.36
5710.61
5706.22
5703.06
5700.94
5699.7
5699.26
5699.59
5700.66
5713.36
5707.95
5704
5701.34
5699.76
5699.13
5698.95
5699.77
5713.9
5708.22
5704.03
5701.2
5699.51
5698.82
5699.05
5700.09
5711.62
5706.51
5702.81
5700.32
5698.86
5698.32
5698.65
5699.7
5708.12
5704.13
5701.27
5699.36
5698.27
5697.95
5698.4
5699.59
5704.75
5702.06
5700.11
5698.8
5698.13
5698.08
5698.66
5699.88
5673.1
5670.73
5669.09
5668.07
5667.39
5666.74
5665.89
5666.61
5675.39
5671.74
5669.27
5667.08
5665.95
5666.07
5665.35
5666.29
5677.7
5672.78
5669.57
5667.5
5665.75
5664.77
5663.83
5665.91
5678.15
5672.83
5669.36
5667.35
5666.32
5665.56
5664.67
5665.57
5675.86
5671.33
5668.42
5666.72
5665.83
5665.12
5664.23
5664.8
5672.68
5669.53
5667.45
5666.21
5665.12
5663.38
5662.31
5663.36
5670.16
5668.2
5666.8
5665.87
5664.36
5663.32
5663.86
5664.85
5703.67
5704.65
5705.27
5705.71
5705.98
5706.15
5706.26
5706.31
5703.25
5704.7
5705.35
5705.82
5706.08
5706.2
5706.23
5706.23
5703.11
5704.97
5705.5
5706.04
5706.32
5706.43
5706.43
5706.37
5703.1
5705.09
5705.66
5706.23
5706.57
5706.75
5706.83
5706.84
5702.86
5705.04
5705.6
5706.17
5706.5
5706.65
5706.71
5706.68
5702.88
5704.83
5705.55
5706.07
5706.37
5706.5
5706.54
5706.54
5703.86
5704.96
5705.59
5706.01
5706.27
5706.4
5706.47
5706.5
5711.13
5710.06
5709.2
5708.51
5707.95
5707.51
5707.16
5706.88
5712.5
5711.02
5709.88
5709
5708.31
5707.76
5707.33
5706.99
5713.78
5711.98
5710.57
5709.53
5708.72
5708.08
5707.58
5707.18
5714.54
5712.58
5711.05
5709.93
5709.08
5708.42
5707.91
5707.52
5714.19
5712.4
5710.98
5709.91
5709.08
5708.44
5707.93
5707.53
5713.07
5711.56
5710.37
5709.47
5708.75
5708.18
5707.72
5707.36
5711.75
5710.67
5709.79
5709.09
5708.51
5708.04
5707.67
5707.37
5713.29
5711.17
5709.46
5708.09
5707.01
5706.17
5705.56
5705.16
5715.83
5712.89
5710.62
5708.86
5707.5
5706.47
5705.73
5705.23
5718.21
5714.6
5711.8
5709.67
5708.06
5706.85
5705.98
5705.38
5719.66
5715.72
5712.64
5710.31
5708.56
5707.27
5706.34
5705.71
5719.12
5715.43
5712.52
5710.3
5708.63
5707.37
5706.46
5705.84
5717.14
5714.04
5711.62
5709.75
5708.31
5707.2
5706.39
5705.83
5714.75
5712.48
5710.66
5709.19
5708.02
5707.1
5706.4
5705.89
5705.14
5702.49
5700.58
5699.34
5698.72
5698.74
5699.39
5700.65
5708.5
5704.55
5701.73
5699.88
5698.86
5698.62
5699.18
5700.49
5712.03
5706.87
5703.16
5700.7
5699.29
5698.82
5699.2
5700.46
5714.41
5708.59
5704.32
5701.47
5699.82
5699.19
5699.52
5700.69
5713.8
5708.29
5704.3
5701.65
5700.12
5699.57
5699.94
5701.15
5711.07
5706.64
5703.5
5701.41
5700.21
5699.85
5700.28
5701.46
5707.87
5704.86
5702.68
5701.23
5700.45
5700.31
5700.84
5701.97
5670.24
5668.25
5666.84
5665.96
5665.44
5664.87
5664.01
5664.67
5672.8
5669.64
5667.55
5666.28
5665.57
5664.94
5664.04
5664.74
5675.92
5671.35
5668.3
5666.56
5665.63
5664.88
5663.93
5664.82
5678.22
5672.79
5669.18
5667.15
5666.02
5665.18
5664.21
5665.28
5677.71
5672.75
5669.5
5667.56
5666.49
5665.68
5664.69
5665.52
5675.46
5671.82
5669.41
5667.92
5667.08
5666.36
5665.38
5665.99
5673.1
5670.78
5669.16
5668.13
5667.5
5666.83
5665.89
5666.44
5706.09
5706.12
5706.13
5706.1
5706.14
5706.12
5706.08
5706.56
5706.58
5706.58
5706.61
5706.6
5706.62
5706.64
5704.8
5704.81
5704.8
5704.82
5704.83
5704.86
5704.88
5701.56
5701.63
5701.64
5701.71
5701.77
5701.9
5702.05
5671.02
5670.83
5670.69
5670.7
5670.7
5670.77
5670.85
5706.5
5706.4
5706.55
5706.91
5706.58
5706.47
5706.54
5707.16
5707.17
5707.22
5707.42
5707.23
5707.19
5707.12
5705.65
5705.68
5705.69
5705.74
5705.71
5705.69
5705.62
5703.43
5703.34
5703.11
5702.19
5703.1
5703.22
5703.11
5672.88
5673.11
5673.54
5674.23
5673.56
5673.37
5673.15
5706.59
5706.52
5706.71
5706.94
5706.32
5706.22
5706.37
5707.1
5707.04
5707.29
5707.29
5706.91
5706.69
5706.62
5705.58
5705.43
5705.52
5705.45
5705.03
5704.84
5704.82
5702.79
5702.03
5701.07
5701.3
5700.81
5701.06
5701.41
5673.18
5673.86
5675
5674.4
5672.7
5671.17
5671.66
5706.3
5706.22
5706.29
5706.8
5706.62
5706.5
5706.48
5706.68
5706.75
5706.91
5707.24
5707.24
5707.1
5707.15
5704.96
5704.98
5705.08
5705.39
5705.5
5705.52
5705.59
5702.16
5702.08
5702.02
5702.12
5702.66
5702.94
5703.33
5671.24
5671.81
5672.68
5673.71
5673.27
5672.87
5672.8
5706.04
5705.92
5705.83
5705.77
5705.71
5705.65
5705.59
5705.52
5706.13
5706.03
5705.91
5705.83
5705.75
5705.67
5705.59
5705.51
5706.1
5706.01
5705.91
5705.79
5705.71
5705.64
5705.56
5705.48
5706.05
5705.98
5705.94
5705.86
5705.74
5705.63
5705.55
5705.47
5706.07
5705.99
5705.91
5705.78
5705.69
5705.61
5705.53
5705.45
5706.11
5706
5705.89
5705.79
5705.71
5705.62
5705.54
5705.46
5706.01
5705.91
5705.82
5705.74
5705.67
5705.59
5705.52
5705.43
5706.29
5706.01
5705.78
5705.6
5705.47
5705.37
5705.3
5705.24
5706.32
5706.06
5705.83
5705.64
5705.51
5705.41
5705.33
5705.26
5706.33
5706.07
5705.84
5705.65
5705.51
5705.4
5705.32
5705.25
5706.35
5706.11
5705.89
5705.69
5705.53
5705.41
5705.33
5705.25
5706.35
5706.09
5705.85
5705.65
5705.5
5705.39
5705.3
5705.23
5706.36
5706.09
5705.84
5705.64
5705.49
5705.38
5705.29
5705.22
5706.39
5706.07
5705.81
5705.6
5705.45
5705.33
5705.25
5705.17
5704.65
5704.58
5704.62
5704.69
5704.76
5704.82
5704.85
5704.86
5704.69
5704.63
5704.67
5704.75
5704.82
5704.86
5704.89
5704.9
5704.69
5704.63
5704.68
5704.75
5704.82
5704.86
5704.89
5704.89
5704.7
5704.64
5704.69
5704.76
5704.83
5704.87
5704.9
5704.89
5704.71
5704.64
5704.68
5704.75
5704.81
5704.85
5704.87
5704.87
5704.73
5704.65
5704.69
5704.75
5704.8
5704.84
5704.86
5704.86
5704.71
5704.64
5704.67
5704.72
5704.76
5704.79
5704.81
5704.8
5703.23
5703.48
5703.65
5703.83
5703.99
5704.13
5704.25
5704.34
5703.33
5703.56
5703.74
5703.91
5704.06
5704.2
5704.32
5704.4
5703.35
5703.59
5703.75
5703.92
5704.07
5704.2
5704.31
5704.39
5703.42
5703.66
5703.81
5703.96
5704.1
5704.23
5704.33
5704.41
5703.47
5703.68
5703.81
5703.96
5704.09
5704.21
5704.31
5704.38
5703.57
5703.73
5703.84
5703.97
5704.09
5704.2
5704.3
5704.37
5703.66
5703.77
5703.85
5703.95
5704.05
5704.15
5704.24
5704.31
5684.99
5693.77
5698.19
5700.64
5702.06
5702.9
5703.42
5703.74
5684.82
5693.72
5698.2
5700.67
5702.1
5702.95
5703.47
5703.78
5684.68
5693.66
5698.17
5700.66
5702.09
5702.94
5703.46
5703.78
5684.67
5693.66
5698.18
5700.67
5702.1
5702.96
5703.47
5703.79
5684.68
5693.67
5698.18
5700.66
5702.09
5702.94
5703.45
5703.77
5684.76
5693.72
5698.22
5700.68
5702.1
5702.94
5703.45
5703.76
5684.88
5693.79
5698.25
5700.69
5702.08
5702.9
5703.4
5703.7
5706.44
5706.33
5706.22
5706.1
5705.99
5705.89
5705.79
5705.7
5706.38
5706.26
5706.14
5706.02
5705.9
5705.78
5705.66
5705.54
5706.42
5706.21
5706.02
5705.82
5705.65
5705.52
5705.38
5705.24
5706.85
5706.66
5706.44
5706.22
5705.98
5705.79
5705.67
5705.54
5706.46
5706.25
5706.05
5705.86
5705.68
5705.54
5705.42
5705.28
5706.39
5706.29
5706.18
5706.06
5705.95
5705.86
5705.74
5705.63
5706.45
5706.34
5706.23
5706.13
5706.03
5705.94
5705.86
5705.77
5706.82
5706.42
5706.09
5705.83
5705.63
5705.49
5705.38
5705.3
5706.83
5706.47
5706.15
5705.87
5705.65
5705.47
5705.34
5705.23
5706.83
5706.37
5706.01
5705.71
5705.46
5705.27
5705.13
5704.99
5707.03
5706.59
5706.24
5705.95
5705.71
5705.51
5705.37
5705.27
5706.83
5706.4
5706.06
5705.78
5705.55
5705.36
5705.17
5705.02
5706.87
5706.5
5706.19
5705.92
5705.71
5705.54
5705.41
5705.3
5706.78
5706.39
5706.08
5705.84
5705.66
5705.52
5705.43
5705.35
5705.3
5705.13
5705.05
5705.01
5704.98
5704.95
5704.92
5704.88
5705.35
5705.11
5705.01
5704.97
5704.94
5704.91
5704.88
5704.84
5705.37
5705.11
5704.94
5704.86
5704.76
5704.67
5704.57
5704.5
5705.3
5704.79
5704.83
5705
5704.95
5704.9
5704.87
5704.84
5705.4
5705.16
5705.02
5704.9
5704.81
5704.71
5704.62
5704.54
5705.36
5705.15
5705.06
5705.02
5704.99
5704.96
5704.94
5704.91
5705.29
5705.11
5705.04
5705.01
5704.99
5704.97
5704.95
5704.92
5704.73
5704.5
5704.36
5704.3
5704.29
5704.31
5704.34
5704.37
5704.69
5704.56
5704.43
5704.38
5704.35
5704.35
5704.35
5704.33
5704.62
5704.61
5704.52
5704.4
5704.28
5704.16
5704.03
5704.01
5703.86
5704
5703.94
5704.18
5704.47
5704.47
5704.43
5704.4
5704.6
5704.59
5704.48
5704.37
5704.28
5704.19
5704.09
5704.01
5704.6
5704.47
5704.38
5704.35
5704.35
5704.37
5704.39
5704.4
5704.46
5704.32
5704.25
5704.24
5704.27
5704.31
5704.36
5704.4
5686.35
5694.75
5698.9
5701.14
5702.4
5703.12
5703.54
5703.79
5686.47
5694.84
5698.97
5701.19
5702.43
5703.12
5703.48
5703.6
5686.74
5695
5699.08
5701.24
5702.4
5702.96
5701.95
5701.27
5687.13
5694.6
5698.41
5700.92
5702.55
5703.24
5703.54
5703.72
5686.77
5695.01
5699.08
5701.23
5702.38
5702.99
5703.24
5702.07
5686.68
5694.94
5699.03
5701.22
5702.45
5703.15
5703.55
5703.74
5686.56
5694.82
5698.93
5701.16
5702.41
5703.15
5703.58
5703.84
5706.47
5706.33
5706.21
5706.09
5705.99
5705.91
5705.84
5705.77
5706.44
5706.3
5706.19
5706.04
5705.87
5705.74
5705.64
5705.56
5706.56
5706.34
5706.14
5705.97
5705.81
5705.65
5705.51
5705.37
5706.85
5706.63
5706.39
5706.16
5705.95
5705.75
5705.59
5705.46
5706.17
5705.96
5705.82
5705.69
5705.56
5705.43
5705.31
5705.2
5706.12
5706.03
5705.97
5705.81
5705.68
5705.56
5705.47
5705.39
5706.28
5706.12
5705.99
5705.87
5705.76
5705.67
5705.59
5705.52
5706.76
5706.38
5706.07
5705.83
5705.66
5705.53
5705.45
5705.38
5706.66
5706.27
5705.99
5705.77
5705.57
5705.43
5705.32
5705.24
5706.87
5706.43
5706.08
5705.81
5705.6
5705.42
5705.28
5705.15
5706.88
5706.44
5706.09
5705.81
5705.58
5705.41
5705.27
5705.16
5706.52
5706.11
5705.8
5705.56
5705.36
5705.21
5705.09
5704.97
5706.34
5705.99
5705.74
5705.55
5705.39
5705.26
5705.17
5705.1
5706.32
5706.02
5705.78
5705.59
5705.45
5705.35
5705.28
5705.22
5705.26
5705.05
5704.99
5704.98
5704.99
5705
5705
5704.99
5705.11
5704.89
5704.79
5704.76
5704.77
5704.78
5704.79
5704.78
5705.17
5704.75
5704.67
5704.72
5704.84
5704.84
5704.84
5704.8
5705.14
5704.92
5704.81
5704.76
5704.71
5704.67
5704.63
5704.6
5704.74
5704.54
5704.49
5704.49
5704.52
5704.55
5704.56
5704.56
5704.6
5704.47
5704.44
5704.47
5704.54
5704.6
5704.64
5704.65
5704.63
5704.52
5704.56
5704.63
5704.71
5704.77
5704.81
5704.83
5704.16
5704.18
5704.18
5704.22
5704.29
5704.36
5704.43
5704.49
5703.65
5703.91
5704
5704.05
5704.11
5704.18
5704.24
5704.29
5702.58
5703.71
5704.2
5704.41
5704.51
5704.56
5704.57
5704.58
5702.59
5703.05
5703.66
5703.85
5703.97
5704.04
5704.11
5704.15
5702.27
5702.92
5703.44
5703.99
5704.12
5704.2
5704.25
5704.28
5702.89
5703.35
5703.55
5703.7
5703.85
5703.98
5704.08
5704.16
5703.11
5703.45
5703.65
5703.83
5703.99
5704.13
5704.25
5704.34
5686.48
5694.67
5698.8
5701.07
5702.37
5703.14
5703.6
5703.89
5686.47
5694.15
5698.53
5700.92
5702.22
5702.98
5703.48
5703.79
5687.38
5694.55
5698.62
5700.92
5702.23
5703.05
5703.57
5703.91
5687.72
5694.88
5698.64
5700.83
5702.15
5702.99
5703.51
5703.82
5685.09
5694.51
5698.33
5700.57
5701.93
5702.79
5703.34
5703.68
5684.84
5693.74
5697.93
5700.48
5701.88
5702.72
5703.28
5703.62
5685.26
5693.68
5698.12
5700.6
5702.02
5702.87
5703.4
5703.73
5706.21
5706.07
5705.94
5705.81
5705.69
5705.58
5705.48
5705.39
5706.16
5706.01
5705.85
5705.71
5705.58
5705.45
5705.32
5705.21
5706.15
5705.94
5705.76
5705.59
5705.45
5705.3
5705.16
5705.04
5706.7
5706.48
5706.24
5706.01
5705.81
5705.63
5705.48
5705.37
5706.49
5706.27
5706.04
5705.83
5705.65
5705.48
5705.32
5705.18
5706.42
5706.25
5706.1
5705.95
5705.82
5705.69
5705.56
5705.45
5706.4
5706.28
5706.16
5706.04
5705.94
5705.84
5705.75
5705.67
5706.39
5706.08
5705.81
5705.58
5705.4
5705.27
5705.18
5705.1
5706.43
5706.09
5705.81
5705.55
5705.34
5705.17
5705.04
5704.94
5706.53
5706.11
5705.77
5705.49
5705.26
5705.06
5704.91
5704.78
5706.85
5706.42
5706.06
5705.76
5705.53
5705.34
5705.2
5705.09
5706.84
5706.39
5706.02
5705.71
5705.45
5705.24
5705.06
5704.92
5706.74
5706.37
5706.05
5705.78
5705.55
5705.38
5705.25
5705.14
5706.8
5706.39
5706.06
5705.8
5705.61
5705.46
5705.36
5705.27
5704.77
5704.65
5704.65
5704.68
5704.71
5704.72
5704.72
5704.71
5704.75
5704.57
5704.54
5704.55
5704.56
5704.57
5704.56
5704.54
5704.81
5704.61
5704.53
5704.46
5704.43
5704.39
5704.33
5704.28
5705.08
5704.86
5704.76
5704.71
5704.68
5704.65
5704.63
5704.59
5705.19
5704.96
5704.84
5704.75
5704.7
5704.63
5704.53
5704.35
5705.2
5704.96
5704.87
5704.84
5704.82
5704.81
5704.78
5704.76
5705.23
5705.08
5705.01
5704.99
5704.96
5704.94
5704.91
5704.88
5703.73
5703.83
5703.88
5703.95
5704.02
5704.1
5704.16
5704.21
5703.7
5703.86
5703.89
5703.93
5703.97
5704
5704.04
5704.07
5703.8
5704.02
5704.06
5704.05
5704
5703.95
5703.89
5703.82
5703.74
5704.08
5704.16
5704.18
5704.16
5704.14
5704.13
5704.11
5704.35
5704.44
5704.38
5704.36
5704.29
5704.21
5704.13
5704.06
5704.38
5704.34
5704.25
5704.22
5704.21
5704.23
5704.25
5704.28
5704.68
5704.46
5704.33
5704.28
5704.29
5704.31
5704.35
5704.38
5685.16
5693.95
5698.34
5700.73
5702.09
5702.88
5703.35
5703.63
5685.54
5694.17
5698.46
5700.77
5702.07
5702.81
5703.24
5703.48
5686.13
5694.5
5698.62
5700.82
5702.07
5702.77
5703.08
5702.7
5687.04
5695.1
5698.74
5700.63
5702.23
5702.95
5703.34
5703.56
5686.5
5694.63
5698.75
5701.13
5702.34
5703.01
5703.36
5703.45
5686.29
5694.68
5698.83
5701.07
5702.32
5703.03
5703.44
5703.68
5686.29
5694.7
5698.86
5701.12
5702.38
5703.12
5703.55
5703.8
5705.46
5705.42
5705.38
5705.34
5705.31
5705.28
5705.26
5705.25
5705.45
5705.41
5705.37
5705.33
5705.3
5705.27
5705.25
5705.25
5705.42
5705.37
5705.33
5705.3
5705.27
5705.24
5705.23
5705.22
5705.4
5705.36
5705.32
5705.29
5705.26
5705.23
5705.22
5705.21
5705.39
5705.35
5705.31
5705.27
5705.24
5705.22
5705.2
5705.19
5705.39
5705.35
5705.31
5705.27
5705.24
5705.21
5705.19
5705.19
5705.37
5705.33
5705.28
5705.25
5705.21
5705.19
5705.17
5705.16
5705.2
5705.18
5705.16
5705.14
5705.12
5705.11
5705.1
5705.09
5705.22
5705.19
5705.17
5705.15
5705.13
5705.11
5705.1
5705.09
5705.2
5705.18
5705.15
5705.13
5705.11
5705.1
5705.08
5705.07
5705.2
5705.17
5705.15
5705.13
5705.11
5705.09
5705.08
5705.07
5705.18
5705.15
5705.13
5705.11
5705.09
5705.07
5705.06
5705.05
5705.17
5705.14
5705.12
5705.09
5705.07
5705.06
5705.04
5705.03
5705.13
5705.1
5705.07
5705.05
5705.03
5705.02
5705
5705
5704.86
5704.86
5704.86
5704.86
5704.86
5704.86
5704.85
5704.84
5704.9
5704.9
5704.9
5704.89
5704.89
5704.88
5704.87
5704.87
5704.88
5704.88
5704.88
5704.88
5704.87
5704.86
5704.86
5704.85
5704.89
5704.89
5704.88
5704.88
5704.87
5704.87
5704.86
5704.85
5704.87
5704.86
5704.86
5704.86
5704.85
5704.84
5704.84
5704.83
5704.85
5704.85
5704.84
5704.84
5704.83
5704.83
5704.82
5704.81
5704.8
5704.79
5704.79
5704.79
5704.78
5704.78
5704.77
5704.77
5704.4
5704.43
5704.46
5704.48
5704.5
5704.5
5704.51
5704.5
5704.45
5704.48
5704.51
5704.53
5704.54
5704.55
5704.55
5704.55
5704.44
5704.47
5704.5
5704.52
5704.53
5704.53
5704.54
5704.53
5704.45
5704.48
5704.51
5704.53
5704.54
5704.54
5704.54
5704.54
5704.43
5704.46
5704.48
5704.5
5704.51
5704.52
5704.52
5704.52
5704.41
5704.44
5704.47
5704.49
5704.5
5704.5
5704.5
5704.5
5704.35
5704.38
5704.4
5704.42
5704.43
5704.44
5704.44
5704.44
5703.9
5704
5704.07
5704.12
5704.15
5704.18
5704.19
5704.19
5703.94
5704.04
5704.11
5704.16
5704.2
5704.22
5704.23
5704.23
5703.94
5704.03
5704.1
5704.15
5704.19
5704.21
5704.22
5704.22
5703.95
5704.04
5704.11
5704.16
5704.2
5704.22
5704.23
5704.23
5703.92
5704.02
5704.09
5704.14
5704.17
5704.19
5704.2
5704.21
5703.92
5704.01
5704.08
5704.13
5704.16
5704.18
5704.2
5704.2
5703.85
5703.94
5704.01
5704.06
5704.09
5704.11
5704.12
5704.13
5705.63
5705.58
5705.53
5705.48
5705.44
5705.41
5705.38
5705.37
5705.46
5705.41
5705.36
5705.31
5705.27
5705.25
5705.21
5705.19
5705.16
5705.11
5705.06
5705.03
5705
5704.99
5704.98
5704.96
5705.48
5705.43
5705.4
5705.38
5705.36
5705.34
5705.31
5705.32
5705.19
5705.14
5705.09
5705.06
5705.03
5705.02
5705.01
5705
5705.55
5705.49
5705.44
5705.4
5705.36
5705.33
5705.29
5705.28
5705.7
5705.65
5705.61
5705.56
5705.52
5705.48
5705.45
5705.44
5705.25
5705.21
5705.19
5705.16
5705.15
5705.13
5705.12
5705.11
5705.16
5705.13
5705.1
5705.07
5705.05
5705.04
5704.98
5704.92
5704.9
5704.85
5704.81
5704.78
5704.77
5704.76
5704.74
5704.64
5705.21
5705.17
5705.15
5705.12
5705.11
5705.1
5705.1
5705.08
5704.93
5704.87
5704.83
5704.8
5704.79
5704.78
5704.77
5704.67
5705.24
5705.2
5705.18
5705.15
5705.13
5705.12
5705.07
5705.01
5705.3
5705.27
5705.25
5705.22
5705.21
5705.19
5705.18
5705.17
5704.87
5704.86
5704.85
5704.84
5704.83
5704.83
5704.82
5704.82
5704.77
5704.72
5704.8
5704.81
5704.81
5704.81
5704.82
5704.82
5704.45
5704.42
5704.41
5704.39
5704.38
5704.39
5704.38
5704.22
5704.82
5704.8
5704.79
5704.8
5704.8
5704.82
5704.82
5704.78
5704.48
5704.4
5704.36
5704.35
5704.4
5704.42
5704.41
5704.29
5704.87
5704.84
5704.86
5704.88
5704.88
5704.88
5704.88
5704.88
5704.91
5704.9
5704.89
5704.89
5704.88
5704.88
5704.87
5704.87
5704.39
5704.41
5704.42
5704.44
5704.44
5704.45
5704.45
5704.45
5704.2
5704.17
5704.34
5704.42
5704.43
5704.43
5704.44
5704.44
5703.98
5703.97
5703.97
5704
5704
5704.01
5704
5703.96
5704.4
5704.39
5704.37
5704.37
5704.42
5704.44
5704.44
5704.42
5703.99
5703.97
5703.94
5703.99
5704.01
5704.02
5704.03
5704.02
5704.39
5704.33
5704.38
5704.47
5704.47
5704.48
5704.49
5704.49
5704.43
5704.45
5704.47
5704.49
5704.49
5704.5
5704.5
5704.5
5703.92
5703.99
5704.05
5704.09
5704.12
5704.14
5704.15
5704.16
5703.57
5703.66
5703.87
5704.01
5704.05
5704.08
5704.1
5704.09
5703.27
5703.5
5703.56
5703.48
5703.34
5703.71
5703.72
5703.73
5703.75
5703.83
5703.89
5703.94
5703.94
5704.02
5704.06
5704.06
5701.86
5703.29
5703.22
5702.21
5702.71
5703.67
5703.75
5703.75
5703.8
5703.8
5703.9
5704.04
5704.08
5704.11
5704.13
5704.13
5703.97
5704.05
5704.11
5704.15
5704.18
5704.2
5704.22
5704.22
5705.71
5705.67
5705.63
5705.59
5705.55
5705.51
5705.49
5705.47
5705.5
5705.46
5705.43
5705.4
5705.37
5705.35
5705.33
5705.32
5705.28
5705.21
5705.16
5705.12
5705.09
5705.07
5705.06
5705.07
5705.39
5705.34
5705.32
5705.29
5705.26
5705.24
5705.24
5705.26
5705.12
5705.07
5705.03
5705
5704.97
5704.96
5704.95
5704.96
5705.34
5705.31
5705.27
5705.24
5705.22
5705.2
5705.18
5705.18
5705.47
5705.43
5705.4
5705.36
5705.33
5705.3
5705.27
5705.27
5705.33
5705.31
5705.28
5705.27
5705.25
5705.23
5705.22
5705.21
5705.19
5705.16
5705.14
5705.12
5705.11
5705.1
5705.1
5705.09
5705.06
5705
5704.94
5704.9
5704.86
5704.85
5704.84
5704.85
5705.1
5705.05
5705.01
5704.98
5704.96
5704.96
5704.97
5704.98
5704.89
5704.84
5704.79
5704.75
5704.71
5704.7
5704.71
5704.72
5705.06
5705.04
5705.02
5705
5704.99
5704.99
5704.98
5704.98
5705.18
5705.16
5705.14
5705.12
5705.11
5705.09
5705.08
5705.07
5704.98
5704.98
5704.98
5704.97
5704.97
5704.96
5704.96
5704.95
5704.77
5704.77
5704.76
5704.73
5704.74
5704.76
5704.77
5704.76
5704.76
5704.72
5704.68
5704.57
5704.34
5704.21
5704.34
5704.35
5704.58
5704.56
5704.55
5704.55
5704.52
5704.52
5704.56
5704.57
5704.55
5704.54
5704.52
5704.47
5704.33
5704.19
5704.15
5704.2
5704.66
5704.66
5704.66
5704.65
5704.66
5704.67
5704.67
5704.67
5704.83
5704.84
5704.84
5704.84
5704.84
5704.84
5704.84
5704.83
5704.53
5704.56
5704.58
5704.6
5704.61
5704.61
5704.62
5704.62
5704.31
5704.33
5704.33
5704.3
5704.28
5704.31
5704.33
5704.34
5704.59
5704.59
5704.3
5703.88
5703.89
5703.89
5703.9
5703.89
5704.18
5704.19
5704.19
5704.18
5704.07
5703.88
5703.82
5703.55
5704.3
5704.32
5704.31
5703.88
5703.82
5703.83
5703.83
5703.92
5704.21
5704.24
5704.26
5704.25
5704.25
5704.27
5704.29
5704.29
5704.4
5704.43
5704.46
5704.49
5704.5
5704.51
5704.51
5704.51
5704.04
5704.12
5704.19
5704.24
5704.27
5704.29
5704.3
5704.31
5703.93
5704.01
5704.07
5704.09
5704.1
5704.12
5704.14
5704.14
5704.09
5704.21
5704.3
5704.18
5704.06
5704.32
5704.42
5704.3
5703.94
5704
5704.03
5704.05
5704.01
5703.34
5703.04
5703.04
5703.86
5703.97
5704.02
5703.98
5703.8
5703.81
5704.09
5704.05
5703.78
5703.88
5703.95
5703.98
5704
5704.01
5704.05
5704.06
5703.9
5704
5704.07
5704.13
5704.16
5704.19
5704.2
5704.2
5705.33
5705.28
5705.24
5705.2
5705.17
5705.14
5705.13
5705.12
5705.13
5705.08
5705.04
5705.01
5704.98
5704.96
5704.94
5704.93
5704.96
5704.91
5704.87
5704.84
5704.82
5704.81
5704.8
5704.8
5705.3
5705.25
5705.23
5705.21
5705.19
5705.17
5705.15
5705.16
5705.09
5705.03
5704.98
5704.95
5704.92
5704.91
5704.9
5704.89
5705.37
5705.32
5705.27
5705.23
5705.2
5705.17
5705.14
5705.13
5705.6
5705.55
5705.5
5705.46
5705.42
5705.38
5705.36
5705.34
5705.05
5705.02
5704.99
5704.97
5704.96
5704.94
5704.93
5704.93
5704.88
5704.85
5704.82
5704.8
5704.79
5704.78
5704.77
5704.77
5704.7
5704.65
5704.62
5704.6
5704.59
5704.59
5704.56
5704.52
5705.03
5705
5704.97
5704.95
5704.94
5704.94
5704.94
5704.92
5704.83
5704.78
5704.74
5704.72
5704.7
5704.7
5704.68
5704.66
5705.08
5705.04
5705
5704.97
5704.98
5704.97
5704.96
5704.94
5705.22
5705.19
5705.16
5705.14
5705.12
5705.11
5705.1
5705.09
5704.7
5704.69
5704.69
5704.69
5704.68
5704.68
5704.68
5704.67
5704.52
5704.47
5704.4
5704.45
5704.52
5704.52
5704.53
5704.53
5704.19
5704.17
5704.15
5704.18
5704.2
5704.2
5704.18
5704.12
5704.59
5704.61
5704.6
5704.59
5704.62
5704.63
5704.63
5704.61
5704.3
5704.27
5704.26
5704.29
5704.33
5704.33
5704.33
5704.33
5704.74
5704.7
5704.56
5704.54
5704.7
5704.72
5704.72
5704.71
5704.86
5704.85
5704.84
5704.83
5704.82
5704.82
5704.81
5704.81
5704.25
5704.27
5704.3
5704.31
5704.32
5704.33
5704.34
5704.33
5704.08
5703.83
5703.68
5703.87
5704.16
5704.16
5704.16
5704.15
5703.79
5703.76
5703.69
5703.74
5703.8
5703.81
5703.81
5703.8
5704.02
5704.15
5704.17
5704.18
5704.23
5704.24
5704.24
5704.22
5703.98
5703.92
5703.91
5703.93
5703.94
5703.96
5703.84
5703.8
5704.29
5704.15
5704.04
5704.09
5704.29
5704.37
5704.36
5704.34
5704.4
5704.42
5704.43
5704.44
5704.45
5704.46
5704.46
5704.46
5703.77
5703.86
5703.92
5703.97
5704
5704.03
5704.04
5704.04
5703.4
5703.15
5703.17
5703.37