/*--------------------------------*- C++ -*----------------------------------*\
| =========                 |                                                 |
| \\      /  F ield         | OpenFOAM: The Open Source CFD Toolbox           |
|  \\    /   O peration     | Version:  plus.master.MPPICInterFoam            |
|   \\  /    A nd           | Web:      www.OpenFOAM.com                      |
|    \\/     M anipulation  |                                                 |
\*---------------------------------------------------------------------------*/
FoamFile
{
    version     2.0;
    format      ascii;
    class       volScalarField;
    location    "8.2";
    object      p_rgh;
}
// * * * * * * * * * * * * * * * * * * * * * * * * * * * * * * * * * * * * * //

dimensions      [1 -1 -2 0 0 0 0];

internalField   nonuniform List<scalar> 
11822
(
5723.48
5538.21
5473.13
5487.67
5679.83
5732.39
5733.5
5183.98
5062.35
5111.78
4904.47
4818.77
5642.06
5733.2
5165.95
2940.58
5191.29
4101.07
4591.11
5431.16
5732.88
4311.23
4951.8
3290.54
2648.3
4444.5
5457.98
5732.78
5038.64
2899.69
4707.84
3927.81
4470.27
5414.84
5732.99
5353.93
4990.27
5129.71
4918.43
4951.81
5672.56
5733.38
5731.91
5655.28
5555.38
5607.32
5732.54
5733.34
5733.74
5679.68
5143.81
4965.12
4983.35
5512.8
5724.37
5732.39
4467.99
3506.07
2948.94
3254.89
3650.22
5431.41
5731.49
3813.97
2550.25
3785.86
2798.47
3089.5
4826.59
5730.88
2699.26
2795.98
3783.08
2558.64
3313.43
4880.78
5730.81
3766.31
2554.72
2781.97
2711.59
3005.95
4836.24
5731.16
4891.34
3556.39
3402.81
3361.22
4114.34
5535.97
5731.96
5728.28
5475.49
5293.58
5363.85
5689.81
5731.69
5732.96
5618.69
4731.31
4358.05
4466.41
5309.92
5715.93
5736.78
3959.47
2508.29
2506.13
2502.32
2989.52
5171.16
5736.27
2561.47
2500.65
2502.66
2501.59
2501.57
4239.36
5736.04
2518.29
2504.83
4101.98
2507.62
2505.87
4300.7
5736
2769.7
2504.55
2505.48
2503.72
2504.27
4335.07
5736.23
4530.62
2612.95
2520.15
2514.53
3653.03
5394.74
5736.55
5717.68
5302.28
5063.73
5148.71
5623.88
5736.45
5737.25
5626
4761.64
4361.01
4495.87
5330.15
5721.11
5744.77
4035.85
2455.24
2457.1
2455.56
3092.22
5168.44
5744.72
2587.62
2456.1
2456.3
2454.1
2455.43
4254.3
5744.94
2539.7
2457.31
4088.14
2456.8
2455.34
4288.38
5744.98
2866.43
2458.14
2458.03
2456.5
2456.05
4384.5
5744.99
4624.73
2740.07
2539.42
2574.25
3789.26
5409.99
5744.87
5727.63
5367.43
5154
5226.46
5648.92
5744.87
5745.02
5682.41
5191.88
4875.59
5012.78
5535.04
5736.42
5753.64
4642.13
2699.05
2430.28
2555.48
3891.43
5340.84
5754.35
3431.53
2410.09
2410.32
2410.78
2423.66
4720.78
5755.05
3407.4
2411.9
4067.52
2411
2410.3
4645.24
5755.17
3771.66
2411.48
2412.57
2410.81
2572.27
4855.6
5754.77
5118.37
3624.77
3302.25
3415.06
4464.27
5536
5753.91
5747.89
5627.11
5516.09
5548.74
5729.63
5754.02
5753.21
5748.43
5676.38
5576.79
5630.76
5733.22
5758.2
5763.29
5435.1
3993.79
3387.68
3704.12
5061.8
5609.03
5764.11
4855.16
2360.93
2363.11
2363.44
3177.75
5384.59
5764.79
4895.29
2360.47
3666.36
2715.21
2922.55
5243.45
5764.82
5086.65
2383.5
2360.77
2361.34
3575.51
5438.85
5764.35
5619.3
4894.75
4678.01
4784.04
5212.41
5692.48
5763.44
5763.49
5763.04
5754.13
5756.94
5764.86
5763.52
5762.67
5733.92
5734.21
5734.42
5734.56
5733.87
5732.41
5732.91
5734.71
5733.99
5734.43
5734.68
5734.81
5734.87
5734.9
5734.9
5734.88
5733.97
5734.43
5734.68
5734.81
5734.88
5734.91
5734.91
5734.91
5733.96
5734.42
5734.68
5734.82
5734.89
5734.92
5734.93
5734.93
5734.02
5734.45
5734.7
5734.83
5734.9
5734.92
5734.93
5734.93
5734.13
5734.49
5734.72
5734.84
5734.9
5734.92
5734.91
5734.91
5734.18
5734.39
5734.61
5734.77
5734.86
5734.88
5734.87
5734.86
5733.5
5734.36
5735.06
5735.56
5735.54
5734.98
5735.98
5736.71
5733.21
5734.38
5735.22
5735.8
5736.21
5736.5
5736.69
5736.82
5733.02
5734.26
5735.13
5735.76
5736.21
5736.53
5736.75
5736.91
5733
5734.23
5735.12
5735.77
5736.24
5736.57
5736.79
5736.94
5733.18
5734.35
5735.21
5735.83
5736.28
5736.59
5736.79
5736.93
5733.56
5734.59
5735.36
5735.93
5736.32
5736.59
5736.77
5736.89
5734.03
5734.75
5735.41
5735.93
5736.31
5736.54
5736.71
5736.83
5737.5
5738.15
5738.72
5739.11
5739.3
5738.96
5739.78
5740.41
5737.25
5738.06
5738.72
5739.25
5739.67
5740.01
5740.29
5740.5
5737.11
5737.94
5738.64
5739.2
5739.65
5740.02
5740.33
5740.56
5737.07
5737.91
5738.62
5739.2
5739.67
5740.04
5740.35
5740.58
5737.21
5738.02
5738.7
5739.26
5739.71
5740.06
5740.35
5740.57
5737.49
5738.23
5738.86
5739.37
5739.77
5740.09
5740.35
5740.55
5737.92
5738.49
5739.02
5739.45
5739.81
5740.08
5740.33
5740.51
5744.85
5745.01
5745.12
5745.15
5745.13
5744.46
5743.21
5743.36
5744.71
5744.85
5745.01
5745.16
5745.31
5745.46
5745.63
5745.78
5744.69
5744.79
5744.96
5745.11
5745.26
5745.42
5745.6
5745.78
5744.7
5744.79
5744.95
5745.11
5745.26
5745.41
5745.6
5745.77
5744.76
5744.87
5745.02
5745.16
5745.3
5745.44
5745.62
5745.79
5744.86
5745
5745.13
5745.26
5745.38
5745.51
5745.66
5745.81
5745.1
5745.24
5745.33
5745.39
5745.48
5745.58
5745.72
5745.85
5752.63
5751.92
5751.3
5750.75
5750.27
5749.06
5746.17
5746.9
5752.97
5752.06
5751.35
5750.8
5750.43
5750.29
5750.44
5750.63
5753.24
5752.24
5751.48
5750.9
5750.48
5750.3
5750.44
5750.62
5753.29
5752.27
5751.51
5750.91
5750.48
5750.29
5750.42
5750.6
5753.1
5752.15
5751.41
5750.83
5750.42
5750.25
5750.4
5750.58
5752.69
5751.88
5751.22
5750.69
5750.33
5750.2
5750.37
5750.55
5752.31
5751.71
5751.11
5750.59
5750.27
5750.18
5750.36
5750.54
5762.27
5761.3
5760.37
5759.54
5758.89
5756.43
5753.32
5754.34
5762.5
5761.23
5760.18
5759.31
5758.62
5758.11
5757.84
5757.71
5762.8
5761.45
5760.32
5759.38
5758.63
5758.07
5757.76
5757.6
5762.81
5761.49
5760.36
5759.42
5758.65
5758.1
5757.78
5757.61
5762.59
5761.36
5760.3
5759.41
5758.71
5758.21
5757.94
5757.79
5762.14
5761.08
5760.13
5759.35
5758.76
5758.36
5758.17
5758.08
5761.82
5761.06
5760.23
5759.53
5759.01
5758.67
5758.53
5758.47
5733.11
5733.54
5733.89
5734.18
5734.37
5734.45
5734.44
5734.39
5732.3
5733.36
5733.93
5734.25
5734.4
5734.45
5734.42
5734.37
5648.38
5733.08
5733.83
5734.21
5734.38
5734.42
5734.39
5734.35
5604.13
5732.96
5733.78
5734.17
5734.35
5734.4
5734.38
5734.34
5625.97
5732.95
5733.77
5734.17
5734.35
5734.4
5734.38
5734.33
5731.95
5733.22
5733.86
5734.2
5734.36
5734.41
5734.39
5734.35
5732.85
5733.33
5733.73
5734.07
5734.29
5734.39
5734.39
5734.36
5732.09
5733.04
5733.91
5734.66
5735.21
5735.57
5735.77
5735.85
5730.5
5732.37
5733.6
5734.48
5735.07
5735.45
5735.67
5735.77
5475.74
5731.66
5733.17
5734.16
5734.84
5735.28
5735.53
5735.67
5291.66
5731.18
5732.91
5733.97
5734.68
5735.15
5735.42
5735.62
5407.44
5731.36
5733.03
5734.08
5734.76
5735.2
5735.46
5735.6
5729.94
5732.1
5733.43
5734.33
5734.95
5735.34
5735.56
5735.67
5731.43
5732.57
5733.56
5734.39
5735.01
5735.4
5735.63
5735.72
5736.65
5737.24
5737.85
5738.4
5738.85
5739.2
5739.47
5739.67
5735.95
5736.75
5737.51
5738.14
5738.64
5739.04
5739.35
5739.58
5310.52
5736.45
5737.2
5737.85
5738.4
5738.85
5739.21
5739.48
4977.3
5736.22
5737.01
5737.69
5738.27
5738.73
5739.11
5739.41
5176.87
5736.32
5737.11
5737.77
5738.32
5738.77
5739.13
5739.42
5713.77
5736.55
5737.34
5737.99
5738.51
5738.92
5739.24
5739.48
5736.09
5736.82
5737.51
5738.13
5738.63
5739.02
5739.3
5739.52
5745.14
5745.07
5745.06
5745.06
5745.09
5745.18
5745.32
5745.48
5745.54
5745.01
5744.89
5744.86
5744.91
5745.03
5745.21
5745.4
5374.8
5745.26
5744.86
5744.75
5744.77
5744.89
5745.11
5745.35
5071.77
5745.21
5744.74
5744.62
5744.65
5744.79
5745.03
5745.3
5229.51
5745.12
5744.7
5744.61
5744.65
5744.79
5745.02
5745.28
5727.05
5744.82
5744.67
5744.66
5744.73
5744.87
5745.07
5745.28
5744.76
5744.75
5744.78
5744.8
5744.85
5744.97
5745.12
5745.31
5753.58
5752.72
5751.91
5751.21
5750.72
5750.52
5750.65
5750.85
5754.9
5753.3
5752.21
5751.39
5750.82
5750.58
5750.68
5750.88
5635.23
5754.09
5752.65
5751.66
5750.99
5750.67
5750.75
5750.95
5494.2
5754.13
5752.65
5751.67
5750.98
5750.65
5750.72
5750.94
5544.94
5754.09
5752.58
5751.58
5750.9
5750.58
5750.67
5750.89
5754.55
5753.4
5752.2
5751.33
5750.74
5750.48
5750.58
5750.8
5753.81
5752.84
5751.97
5751.21
5750.65
5750.45
5750.57
5750.78
5762.98
5762.02
5760.91
5759.88
5759.01
5758.34
5757.89
5757.63
5763.81
5762.38
5761.05
5759.86
5758.83
5758
5757.42
5757.09
5764.21
5763.11
5761.51
5760.12
5758.9
5757.91
5757.18
5756.78
5755.54
5763.32
5761.6
5760.13
5758.84
5757.75
5756.96
5756.54
5758.43
5763.29
5761.49
5760
5758.72
5757.66
5756.89
5756.49
5764.55
5762.58
5761.03
5759.69
5758.55
5757.61
5756.94
5756.59
5763.41
5762.22
5760.94
5759.72
5758.6
5757.8
5757.33
5757.06
5732.61
5733.21
5733.73
5734.11
5734.18
5729.39
5722.91
5718.51
5732.66
5733.66
5734.19
5734.46
5734.55
5723.67
5718.68
5718.63
5732.84
5733.84
5734.29
5734.13
5734.5
5718.74
5718.73
5718.71
5733.14
5733.98
5734.39
5734.6
5734.7
5733.8
5731.23
5727.68
5733.51
5734.13
5734.42
5732.95
5734.64
5733.17
5732.33
5734.45
5733.84
5734.25
5734.5
5733.24
5731.36
5716.85
5716.87
5732.57
5734.07
5734.28
5734.48
5734.65
5725.62
5716.73
5716.89
5733.85
5731.35
5732.61
5733.69
5734.54
5735.14
5722.46
5730.99
5723.86
5730.82
5732.74
5733.98
5734.8
5735.12
5721.8
5731.7
5720.65
5730.45
5732.62
5733.93
5734.76
5735.37
5720.13
5726.36
5719.98
5730.98
5732.87
5734.1
5734.94
5735.52
5735.32
5732.71
5731.13
5731.77
5733.33
5734.41
5734.96
5735.08
5734.22
5733.59
5736.16
5732.74
5733.91
5734.81
5735.29
5728.3
5717.94
5718.12
5734.25
5733.61
5734.35
5735.02
5735.63
5727.91
5721.85
5725.15
5736.2
5736.19
5736.95
5737.65
5738.26
5738.75
5725.08
5738.37
5737.3
5735.95
5736.89
5737.67
5738.3
5737.61
5725.07
5738.42
5724
5735.78
5736.78
5737.61
5738.28
5738.53
5733.21
5737.86
5723.35
5736.09
5736.98
5737.75
5738.41
5738.95
5739.16
5736.96
5737.66
5736.36
5737.24
5738
5738.64
5734.16
5737.37
5737.43
5739.83
5736.84
5737.65
5738.22
5738.94
5726.43
5721.12
5722.89
5738.1
5737.47
5738.07
5738.62
5739.16
5733.81
5733.78
5738.52
5740.06
5744.94
5744.91
5744.88
5744.87
5744.91
5736.37
5744.52
5745.38
5745.03
5744.71
5744.65
5744.7
5742.49
5730.6
5743.49
5728.94
5745
5744.59
5744.57
5744.66
5743.56
5744.45
5743.78
5728.62
5744.93
5744.61
5744.61
5744.71
5744.86
5744.82
5743.74
5745.01
5744.62
5744.59
5744.65
5744.79
5737.27
5743.01
5744.09
5745.27
5744.53
5744.69
5744.67
5744.45
5731.77
5735.04
5740.09
5744.1
5744.74
5744.94
5745.04
5745.19
5742.38
5736.95
5744.98
5745.45
5753.96
5752.95
5752.01
5751.22
5750.23
5749.84
5750.29
5750.81
5754.75
5753.08
5751.98
5751.21
5748.02
5743.78
5743.68
5734.07
5755.06
5753.24
5752.12
5751.33
5749.51
5750.15
5744.87
5740.78
5754.93
5753.24
5752.17
5751.37
5750.8
5750.26
5748.55
5749.23
5754.12
5752.88
5751.81
5750.99
5745.26
5749
5750.31
5750.51
5753.23
5752.36
5751.45
5749.95
5737.02
5746.3
5746.21
5750.4
5752.57
5751.97
5751.34
5750.85
5749.67
5737.33
5730.32
5733.43
5763.54
5762.29
5760.98
5759.75
5757.58
5757.74
5756.87
5757.16
5764.23
5762.38
5760.89
5759.65
5756.79
5756.6
5746.29
5739.88
5764.63
5762.67
5761.14
5759.79
5758.2
5757.61
5746.35
5751.95
5764.62
5762.73
5761.21
5759.92
5758.72
5757.66
5754.45
5752.18
5763.87
5762.34
5760.82
5759.45
5757
5757.37
5757
5755.46
5762.93
5761.72
5760.48
5758.82
5748.79
5754.31
5737.49
5750.12
5762.22
5761.38
5760.46
5759.63
5758.96
5745.34
5736.5
5736.34
5734.24
5734.43
5734.61
5734.73
5733.75
5734.66
5734.84
5734.84
5734.07
5734.42
5734.66
5734.71
5731.52
5733.91
5734.76
5734.79
5733.82
5734.31
5734.6
5734.73
5734.71
5727.47
5729.47
5734.59
5733.57
5734.2
5734.53
5734.67
5734.66
5727.21
5727.18
5733.92
5733.31
5734.08
5734.45
5734.62
5734.02
5733.79
5734.64
5734.59
5733.09
5733.9
5734.34
5734.55
5734.52
5734.49
5734.6
5734.54
5732.8
5733.35
5733.86
5734.23
5734.43
5734.5
5734.48
5734.44
5734.03
5734.72
5735.35
5735.87
5735.83
5736.36
5736.67
5736.76
5733.29
5734.32
5735.12
5735.67
5732.73
5735.81
5736.6
5736.66
5732.51
5733.82
5734.78
5735.46
5735.53
5732.66
5735.17
5736.5
5731.9
5733.45
5734.5
5735.22
5735.6
5728.43
5729.41
5736.11
5731.54
5733.26
5734.36
5735.11
5730.88
5733.45
5736.04
5736.32
5731.67
5733.28
5734.36
5735.08
5735.2
5735.69
5736.06
5736.17
5731.9
5733.06
5734.05
5734.82
5735.36
5735.7
5735.89
5735.98
5737.86
5738.44
5738.96
5739.4
5739.41
5739.96
5740.28
5740.45
5737.32
5738.06
5738.69
5739.17
5736.06
5739.5
5740.19
5740.32
5736.93
5737.71
5738.39
5738.95
5734.96
5738.66
5740.03
5740.19
5736.73
5737.49
5738.18
5738.72
5739.01
5732.23
5736.92
5740.08
5736.56
5737.36
5738.06
5738.54
5733.53
5735.7
5739.54
5740.03
5736.56
5737.37
5738.05
5738.61
5738.16
5739.21
5739.7
5739.9
5736.69
5737.37
5738
5738.54
5738.97
5739.32
5739.58
5739.78
5745.02
5745.19
5745.28
5745.34
5745.04
5745.52
5745.66
5745.79
5744.82
5744.95
5745.07
5745.04
5741
5745.2
5745.56
5745.64
5744.86
5744.86
5744.94
5744.74
5739.48
5745.11
5745.45
5745.54
5745.1
5744.89
5744.89
5744.86
5741.53
5742.96
5745.2
5745.52
5745.22
5744.92
5744.87
5744.13
5739.34
5741.28
5745.08
5745.53
5745.3
5745.01
5744.94
5744.9
5743.8
5744.98
5745.34
5745.51
5745.28
5745.21
5745.15
5745.12
5745.14
5745.22
5745.37
5745.52
5752.26
5751.7
5751.08
5749.58
5749.66
5750.17
5750.18
5750.51
5752.79
5752
5751.32
5749.78
5744.59
5750.21
5749.99
5750.46
5753.45
5752.41
5751.6
5750.29
5744.71
5748.6
5749.04
5750.47
5754.01
5752.72
5751.8
5750.48
5744.81
5750
5750.42
5750.59
5754.13
5752.77
5751.82
5748.67
5744.82
5747.07
5750.3
5750.67
5754.14
5752.78
5751.79
5750.38
5749.34
5750.29
5750.51
5750.71
5753.7
5752.76
5751.87
5751.15
5750.66
5750.47
5750.6
5750.79
5761.78
5761.06
5760.24
5757.57
5758.22
5758.19
5757.77
5758.39
5762.27
5761.24
5760.25
5756.69
5753.12
5754.29
5753.7
5757.9
5762.96
5761.67
5760.52
5759.02
5752.83
5752.23
5752.12
5757.38
5763.5
5761.98
5760.71
5758.84
5752.84
5755.24
5756.93
5757.29
5763.51
5761.99
5760.73
5756.96
5752.85
5755.95
5757.53
5757.25
5763.38
5761.92
5760.63
5758.03
5757.67
5758.03
5757.6
5757.38
5763.09
5762.05
5760.89
5759.85
5759.01
5758.38
5757.96
5757.73
5702.34
5702.32
5702.37
5702.48
5702.59
5702.7
5702.8
5702.89
5702.38
5702.36
5702.41
5702.53
5702.64
5702.75
5702.85
5702.95
5702.4
5702.38
5702.43
5702.55
5702.67
5702.78
5702.89
5702.98
5702.38
5702.37
5702.42
5702.54
5702.66
5702.77
5702.88
5702.97
5702.34
5702.32
5702.37
5702.49
5702.61
5702.72
5702.82
5702.92
5702.26
5702.24
5702.29
5702.41
5702.52
5702.63
5702.73
5702.82
5702.17
5702.14
5702.19
5702.3
5702.41
5702.52
5702.61
5702.7
5701.9
5701.96
5702.12
5702.35
5702.57
5702.76
5702.91
5703.01
5701.95
5702.01
5702.18
5702.41
5702.64
5702.83
5702.98
5703.08
5701.97
5702.03
5702.21
5702.45
5702.68
5702.87
5703.02
5703.13
5701.96
5702.02
5702.2
5702.44
5702.67
5702.86
5703.01
5703.12
5701.9
5701.97
5702.15
5702.39
5702.61
5702.8
5702.95
5703.06
5701.81
5701.87
5702.05
5702.28
5702.51
5702.7
5702.84
5702.94
5701.69
5701.75
5701.92
5702.15
5702.37
5702.55
5702.69
5702.79
5701.38
5701.48
5701.77
5702.17
5702.55
5702.85
5703.03
5703.13
5701.45
5701.57
5701.87
5702.28
5702.66
5702.95
5703.13
5703.22
5701.5
5701.63
5701.93
5702.34
5702.72
5703.01
5703.2
5703.29
5701.5
5701.64
5701.94
5702.35
5702.73
5703.02
5703.2
5703.28
5701.44
5701.58
5701.88
5702.29
5702.66
5702.95
5703.13
5703.21
5701.32
5701.46
5701.76
5702.16
5702.53
5702.81
5702.99
5703.07
5701.18
5701.31
5701.6
5701.99
5702.35
5702.63
5702.8
5702.88
5698.87
5699.66
5700.77
5701.79
5702.54
5702.99
5703.18
5703.19
5698.99
5699.8
5700.92
5701.95
5702.69
5703.14
5703.34
5703.34
5699.08
5699.91
5701.04
5702.06
5702.8
5703.25
5703.44
5703.44
5699.11
5699.95
5701.09
5702.11
5702.84
5703.28
5703.46
5703.44
5699.05
5699.9
5701.03
5702.05
5702.77
5703.2
5703.39
5703.37
5698.9
5699.73
5700.85
5701.86
5702.59
5703.02
5703.21
5703.2
5698.73
5699.53
5700.64
5701.64
5702.36
5702.79
5702.97
5702.96
5699.05
5699.77
5701.17
5702.43
5703.28
5703.68
5703.67
5703.28
5699.21
5700
5701.43
5702.69
5703.52
5703.92
5703.91
5703.52
5699.38
5700.21
5701.66
5702.9
5703.72
5704.09
5704.08
5703.69
5699.48
5700.35
5701.81
5703.03
5703.82
5704.17
5704.14
5703.74
5699.41
5700.29
5701.74
5702.96
5703.75
5704.09
5704.06
5703.67
5699.19
5700.04
5701.46
5702.68
5703.48
5703.84
5703.83
5703.46
5699
5699.79
5701.18
5702.38
5703.18
5703.55
5703.54
5703.17
5686.96
5693.97
5699.81
5703.36
5705.03
5705.57
5705.54
5519.49
5687.02
5694.57
5700.4
5703.83
5705.4
5705.9
5705.86
5522.54
5687.09
5695.24
5701.01
5704.26
5705.7
5706.14
5706.05
5538.59
5687.13
5695.74
5701.46
5704.56
5705.9
5706.28
5706.13
5544.08
5686.94
5695.67
5701.38
5704.47
5705.79
5706.17
5706.02
5548.66
5686.7
5695.15
5700.81
5703.96
5705.35
5705.79
5705.7
5532.85
5686.67
5694.75
5700.34
5703.51
5704.94
5705.43
5705.4
5525.15
5701.57
5701.52
5701.55
5701.64
5701.72
5701.8
5701.88
5701.96
5701.57
5701.53
5701.56
5701.64
5701.72
5701.81
5701.89
5701.97
5701.6
5701.56
5701.58
5701.67
5701.75
5701.84
5701.92
5702
5701.64
5701.6
5701.62
5701.7
5701.79
5701.87
5701.95
5702.03
5701.68
5701.64
5701.66
5701.74
5701.83
5701.91
5702
5702.07
5701.72
5701.68
5701.7
5701.79
5701.87
5701.96
5702.04
5702.11
5701.77
5701.73
5701.75
5701.84
5701.92
5702.01
5702.09
5702.16
5701.05
5701.07
5701.2
5701.39
5701.57
5701.73
5701.85
5701.95
5701.07
5701.09
5701.21
5701.4
5701.58
5701.74
5701.87
5701.96
5701.11
5701.13
5701.25
5701.44
5701.62
5701.78
5701.91
5702
5701.16
5701.17
5701.29
5701.48
5701.67
5701.82
5701.95
5702.04
5701.2
5701.22
5701.34
5701.53
5701.71
5701.87
5701.99
5702.09
5701.24
5701.26
5701.38
5701.57
5701.75
5701.91
5702.04
5702.13
5701.28
5701.3
5701.42
5701.61
5701.79
5701.95
5702.08
5702.17
5700.36
5700.44
5700.7
5701.07
5701.41
5701.66
5701.82
5701.91
5700.38
5700.46
5700.73
5701.09
5701.43
5701.68
5701.85
5701.93
5700.42
5700.5
5700.77
5701.14
5701.48
5701.73
5701.89
5701.98
5700.47
5700.55
5700.82
5701.2
5701.53
5701.79
5701.95
5702.03
5700.51
5700.59
5700.86
5701.24
5701.58
5701.83
5701.99
5702.08
5700.54
5700.62
5700.89
5701.27
5701.61
5701.87
5702.03
5702.11
5700.57
5700.64
5700.91
5701.29
5701.63
5701.89
5702.06
5702.15
5697.84
5698.57
5699.6
5700.56
5701.23
5701.63
5701.79
5701.79
5697.91
5698.64
5699.66
5700.61
5701.28
5701.66
5701.82
5701.82
5698.02
5698.73
5699.74
5700.68
5701.35
5701.73
5701.89
5701.88
5698.13
5698.81
5699.82
5700.75
5701.42
5701.8
5701.95
5701.94
5698.18
5698.85
5699.85
5700.79
5701.46
5701.84
5701.99
5701.98
5698.2
5698.85
5699.85
5700.79
5701.47
5701.86
5702.01
5702.01
5698.19
5698.83
5699.82
5700.77
5701.45
5701.85
5702.02
5702.03
5697.79
5698.46
5699.79
5700.99
5701.76
5702.08
5702.02
5701.62
5697.8
5698.48
5699.84
5701.05
5701.82
5702.13
5702.04
5701.62
5697.8
5698.52
5699.92
5701.15
5701.93
5702.23
5702.12
5701.68
5697.79
5698.53
5699.96
5701.22
5702.01
5702.3
5702.19
5701.73
5697.72
5698.49
5699.93
5701.21
5702.02
5702.33
5702.22
5701.77
5697.63
5698.39
5699.85
5701.15
5701.99
5702.32
5702.23
5701.81
5697.55
5698.29
5699.73
5701.04
5701.9
5702.26
5702.2
5701.8
5686.08
5691.57
5697.71
5701.53
5703.21
5703.59
5703.47
5481.19
5686.18
5691.35
5697.67
5701.62
5703.35
5703.67
5703.48
5508.77
5686.41
5691.28
5697.77
5701.81
5703.56
5703.83
5703.53
5481.62
5686.63
5691.21
5697.81
5701.93
5703.71
5703.96
5703.58
5480.18
5686.68
5691
5697.68
5701.87
5703.71
5703.97
5703.56
5487.11
5686.6
5690.7
5697.4
5701.67
5703.6
5703.91
5703.53
5494.72
5686.57
5690.53
5697.13
5701.39
5703.36
5703.75
5703.44
5494.03
5701.83
5701.79
5701.81
5701.9
5701.98
5702.07
5702.15
5702.23
5701.91
5701.87
5701.89
5701.98
5702.07
5702.15
5702.24
5702.31
5701.98
5701.95
5701.98
5702.07
5702.16
5702.25
5702.33
5702.41
5702.06
5702.03
5702.07
5702.16
5702.26
5702.35
5702.44
5702.52
5702.14
5702.11
5702.15
5702.26
5702.35
5702.45
5702.55
5702.63
5702.22
5702.19
5702.24
5702.34
5702.44
5702.54
5702.64
5702.73
5702.28
5702.26
5702.31
5702.41
5702.52
5702.63
5702.73
5702.82
5701.35
5701.36
5701.48
5701.67
5701.86
5702.02
5702.15
5702.24
5701.43
5701.45
5701.57
5701.77
5701.95
5702.12
5702.24
5702.34
5701.52
5701.55
5701.68
5701.88
5702.07
5702.23
5702.36
5702.45
5701.62
5701.65
5701.78
5701.99
5702.18
5702.35
5702.48
5702.58
5701.7
5701.74
5701.88
5702.09
5702.3
5702.47
5702.61
5702.71
5701.78
5701.82
5701.97
5702.19
5702.4
5702.58
5702.72
5702.83
5701.85
5701.89
5702.05
5702.27
5702.49
5702.67
5702.82
5702.93
5700.64
5700.71
5700.97
5701.35
5701.7
5701.96
5702.13
5702.22
5700.74
5700.82
5701.09
5701.47
5701.82
5702.08
5702.25
5702.34
5700.88
5700.95
5701.22
5701.61
5701.96
5702.23
5702.39
5702.46
5701
5701.08
5701.36
5701.75
5702.1
5702.37
5702.54
5702.61
5701.11
5701.2
5701.48
5701.88
5702.24
5702.51
5702.68
5702.77
5701.21
5701.3
5701.58
5701.98
5702.35
5702.64
5702.82
5702.91
5701.29
5701.39
5701.68
5702.08
5702.45
5702.74
5702.93
5703.02
5698.24
5698.88
5699.87
5700.82
5701.52
5701.92
5702.1
5702.11
5698.35
5699.01
5699.95
5700.98
5701.68
5702.09
5702.25
5702.25
5698.47
5699.15
5700.09
5701.15
5701.86
5702.26
5702.42
5702.4
5698.58
5699.3
5700.35
5701.33
5702.03
5702.44
5702.6
5702.58
5698.65
5699.4
5700.48
5701.47
5702.19
5702.61
5702.78
5702.76
5698.7
5699.48
5700.53
5701.58
5702.31
5702.75
5702.93
5702.92
5698.78
5699.56
5700.66
5701.68
5702.42
5702.86
5703.06
5703.06
5697.62
5698.35
5699.78
5701.08
5701.95
5702.32
5702.28
5701.89
5697.87
5697.74
5699.84
5701.35
5702.2
5702.56
5702.5
5702.09
5698.25
5697.98
5700.09
5701.65
5702.48
5702.82
5702.73
5702.27
5698.61
5699.28
5700.67
5701.91
5702.73
5703.07
5702.98
5702.5
5698.79
5699.24
5700.85
5702.1
5702.92
5703.27
5703.2
5702.74
5698.88
5698.61
5700.75
5702.21
5703.05
5703.42
5703.38
5702.95
5698.96
5699.58
5701.04
5702.3
5703.15
5703.54
5703.52
5703.11
5686.16
5690.66
5697.2
5701.42
5703.4
5703.82
5703.56
5495.68
5682.5
5689.68
5697.71
5701.91
5703.82
5704.2
5703.92
5502.88
5683.01
5690.5
5698.4
5702.46
5704.26
5704.63
5704.36
5496.83
5685.76
5692.72
5699.03
5702.86
5704.59
5704.97
5704.73
5486
5683.79
5692.53
5699.34
5703.1
5704.8
5705.21
5705.02
5492.54
5679.43
5690.7
5699.37
5703.15
5704.86
5705.34
5705.23
5505.73
5682.21
5693.19
5699.55
5703.2
5704.91
5705.44
5705.38
5515.28
5702.07
5702.04
5702.09
5702.19
5702.3
5702.4
5702.49
5702.58
5701.96
5701.94
5701.98
5702.08
5702.18
5702.28
5702.38
5702.46
5701.86
5701.84
5701.88
5701.97
5702.07
5702.17
5702.26
5702.34
5701.77
5701.74
5701.78
5701.87
5701.97
5702.06
5702.15
5702.23
5701.69
5701.66
5701.69
5701.78
5701.87
5701.96
5702.05
5702.13
5701.63
5701.59
5701.61
5701.71
5701.8
5701.89
5701.97
5702.04
5701.58
5701.54
5701.57
5701.66
5701.74
5701.83
5701.91
5701.99
5701.58
5701.64
5701.81
5702.03
5702.24
5702.42
5702.56
5702.65
5701.47
5701.53
5701.69
5701.91
5702.12
5702.29
5702.43
5702.52
5701.37
5701.42
5701.58
5701.79
5701.99
5702.16
5702.3
5702.39
5701.27
5701.31
5701.46
5701.67
5701.87
5702.04
5702.17
5702.26
5701.18
5701.22
5701.36
5701.57
5701.76
5701.93
5702.05
5702.15
5701.1
5701.14
5701.28
5701.48
5701.67
5701.83
5701.95
5702.05
5701.06
5701.09
5701.22
5701.41
5701.6
5701.76
5701.88
5701.98
5701.05
5701.18
5701.46
5701.85
5702.21
5702.48
5702.65
5702.72
5700.92
5701.05
5701.33
5701.72
5702.07
5702.33
5702.5
5702.57
5700.81
5700.93
5701.21
5701.58
5701.93
5702.19
5702.36
5702.43
5700.69
5700.8
5701.08
5701.45
5701.79
5702.05
5702.21
5702.28
5700.57
5700.68
5700.95
5701.32
5701.66
5701.92
5702.07
5702.15
5700.47
5700.56
5700.83
5701.2
5701.54
5701.79
5701.95
5702.03
5700.39
5700.47
5700.73
5701.1
5701.44
5701.69
5701.86
5701.94
5698.57
5699.38
5700.49
5701.48
5702.19
5702.62
5702.8
5702.79
5698.42
5699.24
5700.34
5701.34
5702.04
5702.46
5702.63
5702.61
5698.3
5699.12
5700.22
5701.21
5701.9
5702.31
5702.47
5702.44
5698.17
5698.98
5700.07
5701.06
5701.75
5702.15
5702.3
5702.27
5698.04
5698.84
5699.92
5700.9
5701.58
5701.98
5702.14
5702.12
5697.92
5698.69
5699.75
5700.72
5701.41
5701.81
5701.97
5701.96
5697.82
5698.57
5699.61
5700.58
5701.26
5701.66
5701.84
5701.84
5698.85
5699.61
5701
5702.2
5703
5703.36
5703.36
5702.98
5698.68
5699.45
5700.85
5702.06
5702.84
5703.19
5703.16
5702.77
5698.56
5699.35
5700.75
5701.95
5702.71
5703.04
5702.98
5702.55
5698.43
5699.21
5700.6
5701.79
5702.55
5702.85
5702.78
5702.35
5698.24
5698.98
5700.37
5701.57
5702.33
5702.64
5702.57
5702.15
5698.11
5698.72
5700.07
5701.27
5702.04
5702.38
5702.33
5701.93
5697.84
5698.48
5699.81
5701.01
5701.8
5702.14
5702.11
5701.72
5686.5
5694.48
5700.08
5703.29
5704.74
5705.23
5705.2
5520.23
5686.19
5694.2
5699.88
5703.14
5704.57
5705.02
5704.94
5511.94
5685.81
5694.08
5699.85
5703.11
5704.49
5704.87
5704.71
5500.64
5685.93
5693.82
5699.66
5702.96
5704.33
5704.68
5704.49
5491.72
5685.82
5693.22
5699.16
5702.6
5704.04
5704.41
5704.26
5482.83
5685.59
5692.35
5698.38
5702.01
5703.6
5704.02
5703.94
5479.81
5685.84
5691.79
5697.81
5701.54
5703.21
5703.65
5703.59
5475.32
5703.16
5702.97
5703.06
5702.96
5703.01
5703.07
5703.12
5703.19
5703.28
5703.39
5703.52
5703.01
5703.07
5703.12
5703.18
5703.25
5703.34
5703.45
5703.59
5703.05
5703.1
5703.16
5703.22
5703.29
5703.38
5703.49
5703.63
5703.04
5703.09
5703.14
5703.2
5703.27
5703.36
5703.48
5703.62
5702.99
5703.04
5703.09
5703.15
5703.22
5703.31
5703.42
5703.56
5702.89
5702.94
5702.98
5703.04
5703.1
5703.19
5703.31
5703.45
5702.76
5702.81
5702.86
5702.91
5702.98
5703.07
5703.18
5703.33
5703.09
5703.14
5703.2
5703.26
5703.34
5703.46
5703.61
5703.79
5703.16
5703.2
5703.25
5703.31
5703.39
5703.51
5703.66
5703.85
5703.2
5703.25
5703.3
5703.36
5703.44
5703.56
5703.72
5703.91
5703.19
5703.24
5703.29
5703.34
5703.42
5703.54
5703.7
5703.89
5703.13
5703.18
5703.23
5703.28
5703.36
5703.47
5703.63
5703.82
5703.01
5703.06
5703.1
5703.16
5703.23
5703.34
5703.5
5703.69
5702.86
5702.9
5702.94
5703
5703.07
5703.18
5703.34
5703.53
5703.19
5703.22
5703.26
5703.32
5703.42
5703.56
5703.74
5703.95
5703.27
5703.3
5703.33
5703.37
5703.45
5703.57
5703.76
5703.49
5703.34
5703.36
5703.39
5703.43
5703.51
5703.64
5703.83
5703.95
5703.32
5703.34
5703.37
5703.4
5703.47
5703.61
5703.8
5704.03
5703.26
5703.28
5703.3
5703.33
5703.4
5703.52
5703.72
5703.88
5703.11
5703.13
5703.16
5703.19
5703.26
5703.37
5703.57
5703.4
5702.92
5702.93
5702.95
5702.98
5703.05
5703.16
5703.35
5702.71
5703.16
5703.15
5703.16
5703.24
5703.38
5703.55
5703.8
5704
5703.31
5703.29
5703.3
5703.38
5703.5
5684.44
5672.78
5702.4
5703.4
5703.39
5703.39
5703.45
5703.54
5685.73
5683.31
5703.24
5703.39
5703.37
5703.36
5703.4
5703.48
5683.39
5689.01
5703.92
5703.33
5703.3
5703.3
5703.34
5703.42
5678.28
5679.26
5703.25
5703.16
5703.14
5703.14
5703.2
5703.28
5674.97
5671.23
5702.15
5702.92
5702.89
5702.88
5702.94
5703.01
5672.37
5659.55
5701.34
5703.03
5702.02
5644.81
5660.75
5663.57
5581.37
5665.59
5704.27
5703.27
5700.2
5643.32
5663.15
5697.71
5516.74
5610.13
5703.8
5703.41
5696.28
5661.79
5672.81
5675.19
5494.16
5622.63
5701.58
5703.44
5694.68
5671.29
5659.93
5639.19
5478.24
5628.96
5702.28
5703.38
5694.96
5672.25
5661.99
5655.45
5477.61
5616.7
5700.13
5703.21
5693.23
5647.45
5680.69
5641.7
5473.62
5587.4
5700.15
5702.93
5699.23
5634.18
5669.21
5643.9
5455.3
5589.64
5702.28
5359.22
5219.75
5001.41
5330.56
5214.21
5298.32
5502.7
5342.08
5370
5184.94
5034.28
5392.38
5155.84
5442.87
5587.45
5358.94
5403.42
5118.09
5144.23
5344.99
5115.8
5458.78
5609.12
5340.01
5381.45
5086.52
5154.92
5318.61
5150.5
5455.36
5579.26
5343.16
5399.46
5102.23
5169.23
5299.99
5113.87
5486.81
5611.52
5332.67
5404.66
5130.34
5117.19
5314.63
5235.05
5521.24
5557.29
5338.21
5379.77
5180.39
5034.98
5411.3
5226.68
5425.39
5560.41
5375.38
5702.02
5702.07
5702.11
5702.17
5702.23
5702.32
5702.43
5702.56
5702.03
5702.07
5702.12
5702.18
5702.24
5702.33
5702.43
5702.56
5702.06
5702.1
5702.15
5702.21
5702.28
5702.36
5702.47
5702.59
5702.09
5702.14
5702.19
5702.24
5702.31
5702.39
5702.5
5702.62
5702.13
5702.18
5702.23
5702.28
5702.35
5702.43
5702.54
5702.66
5702.17
5702.22
5702.27
5702.33
5702.39
5702.48
5702.58
5702.71
5702.23
5702.27
5702.32
5702.38
5702.44
5702.53
5702.63
5702.76
5702.02
5702.07
5702.12
5702.19
5702.27
5702.38
5702.54
5702.72
5702.04
5702.09
5702.14
5702.21
5702.29
5702.4
5702.56
5702.74
5702.07
5702.12
5702.18
5702.24
5702.33
5702.44
5702.59
5702.78
5702.11
5702.16
5702.22
5702.28
5702.37
5702.48
5702.64
5702.82
5702.16
5702.21
5702.26
5702.33
5702.41
5702.53
5702.68
5702.86
5702.2
5702.25
5702.31
5702.37
5702.46
5702.57
5702.72
5702.9
5702.25
5702.3
5702.36
5702.42
5702.5
5702.62
5702.77
5702.95
5701.97
5702.01
5702.05
5702.11
5702.21
5702.35
5702.55
5702.77
5701.99
5702.04
5702.08
5702.14
5702.24
5702.38
5702.58
5702.8
5702.04
5702.09
5702.13
5702.2
5702.29
5702.43
5702.63
5702.85
5702.09
5702.13
5702.18
5702.24
5702.34
5702.48
5702.67
5702.9
5702.14
5702.18
5702.23
5702.29
5702.39
5702.53
5702.72
5702.94
5702.18
5702.22
5702.27
5702.34
5702.43
5702.57
5702.77
5702.99
5702.21
5702.26
5702.32
5702.38
5702.48
5702.62
5702.81
5703.03
5701.79
5701.79
5701.8
5701.88
5702.02
5702.19
5702.44
5702.67
5701.82
5701.83
5701.86
5701.94
5702.06
5702.23
5702.47
5702.71
5701.88
5701.9
5701.94
5702.02
5702.13
5702.28
5702.52
5702.77
5701.93
5701.95
5702
5702.07
5702.19
5702.34
5702.58
5702.82
5701.98
5702
5702.05
5702.13
5702.24
5702.39
5702.63
5702.87
5702.02
5702.04
5702.1
5702.18
5702.29
5702.43
5702.67
5702.91
5702.04
5702.07
5702.13
5702.22
5702.32
5702.47
5702.71
5702.95
5701.48
5701.49
5644.98
5669.48
5676.49
5599.35
5672.96
5702.72
5701.41
5701.43
5684.33
5684.83
5693.6
5615.8
5667.64
5702.7
5701.51
5701.48
5686.27
5698.21
5695.52
5619.61
5667.5
5702.75
5701.54
5701.5
5687.87
5701.67
5691.63
5619.74
5670.64
5702.8
5701.57
5701.52
5689.7
5702.14
5689.15
5617.84
5671.7
5702.86
5701.61
5701.35
5690.14
5702.23
5685.84
5612.08
5670.33
5702.92
5701.62
5699.29
5686.42
5702.28
5683.82
5609.39
5672.46
5702.95
5362.64
5413.79
5070.46
5262.97
5320.13
5295.05
5469.3
5411.83
5312.13
5336.97
5186.91
5210.87
5285.74
5310.1
5446.04
5424.14
5401.81
5309.85
5136.86
5333.82
5299.13
5319.3
5427.42
5434.13
5425.5
5219.58
5177.31
5402.14
5281.28
5309.37
5426.2
5436.65
5431.85
5170.64
5201.58
5437.02
5278.34
5300.77
5427.98
5437.18
5441.11
5139.93
5217.1
5463.15
5278.48
5295.44
5428.27
5434.2
5457.51
5130.05
5217.03
5487.6
5272.63
5295.89
5431.66
5427.29
5702.29
5702.34
5702.38
5702.44
5702.5
5702.59
5702.69
5702.82
5702.37
5702.42
5702.47
5702.52
5702.59
5702.67
5702.78
5702.9
5702.47
5702.51
5702.56
5702.62
5702.68
5702.77
5702.87
5702.99
5702.58
5702.63
5702.68
5702.73
5702.8
5702.88
5702.98
5703.11
5702.69
5702.74
5702.79
5702.84
5702.91
5703
5703.1
5703.23