/*--------------------------------*- C++ -*----------------------------------*\
| =========                 |                                                 |
| \\      /  F ield         | OpenFOAM: The Open Source CFD Toolbox           |
|  \\    /   O peration     | Version:  plus.master.MPPICInterFoam            |
|   \\  /    A nd           | Web:      www.OpenFOAM.com                      |
|    \\/     M anipulation  |                                                 |
\*---------------------------------------------------------------------------*/
FoamFile
{
    version     2.0;
    format      ascii;
    class       volScalarField;
    location    "8.2";
    object      rho;
}
// * * * * * * * * * * * * * * * * * * * * * * * * * * * * * * * * * * * * * //

dimensions      [1 -3 0 0 0 0 0];

internalField   nonuniform List<scalar> 
11822
(
998.421
961.324
948.261
951.104
989.534
999.884
1000
890.191
866.608
876.959
834.928
816.796
981.994
1000
887.253
438.954
893.671
673.922
771.716
939.867
1000
715.233
845.449
509.82
378.933
742.317
945.326
1000
861.475
430.482
796.343
638.715
747.167
936.503
1000
924.283
851.767
880.147
837.359
843.391
988.052
1000
1000
984.69
964.595
974.968
1000
1000
1000
990.236
884.739
849.748
853.117
957.333
998.719
1000
751.457
562.041
451.975
512.503
590.039
941.325
1000
622.828
373.072
618.133
422.756
479.767
822.268
1000
402.154
422.059
617.191
374.799
524.235
832.992
1000
613.1
373.97
419.396
405.382
463.073
824.028
1000
834.866
571.704
541.757
533.266
681.541
961.812
1000
999.633
949.963
914.197
927.928
992.04
1000
1000
977.407
805.534
733.338
754.198
917.595
996.149
1000
655.897
374.572
374.02
373.364
467.814
890.735
1000
384.959
373.123
373.458
373.284
373.261
710.212
999.994
376.437
373.752
682.064
374.499
374.119
722.179
1000.01
425.293
373.805
373.886
373.663
373.733
728.704
1000.01
766.554
394.818
376.806
375.712
596.425
933.977
1000
996.477
916.055
869.862
886.275
978.293
1000
1000
977.268
812.739
736.54
762.216
921.063
995.54
1000
674.444
373.505
373.934
373.675
494.919
890.315
1000
398.538
373.471
373.627
373.304
373.674
716.257
1000
389.325
373.572
682.266
373.767
373.701
722.741
1000
451.599
373.695
373.709
373.565
373.704
741
1000
786.462
427.522
389.3
396.054
627.561
936.234
1000
996.563
927.967
887.403
901.209
981.673
1000
999.999
986.268
894.299
835.12
860.759
958.624
996.599
1000
791.306
427.657
377.362
400.829
650.806
922.343
999.999
564.608
373.391
373.539
373.609
376.198
806.179
999.998
560.199
373.475
682.166
373.6
373.634
792.06
999.999
628.19
373.642
373.585
373.488
403.974
831.459
999.998
880.448
600.738
540.548
561.559
758.096
958.97
1000
998.618
975.83
955.087
961.184
995.185
1000
999.998
996.915
983.338
964.907
974.801
993.916
998.844
999.993
938.889
673.458
562.041
619.997
869.872
971.12
1000
831.897
373.326
373.392
373.501
523.351
929.578
1000
839.341
373.392
613.848
438.122
476.431
903.701
999.999
874.678
377.76
373.509
373.396
596.641
939.713
1000
973.049
839.452
799.47
818.808
897.971
986.683
1000
999.856
999.558
997.831
998.324
999.995
999.995
999.999
1000
1000
999.988
999.978
999.815
999.51
999.608
999.973
1000
1000
1000
1000
1000
1000
1000
999.996
1000
1000
1000
1000
1000
1000
1000
1000
1000
1000
1000
1000
1000
1000
1000
1000
1000
1000
1000
1000
1000
1000
1000
1000
1000
1000
1000
1000
1000
1000
1000
1000
1000
1000
1000
1000
1000
999.998
999.997
1000
1000
1000
999.991
999.971
999.884
999.717
999.879
999.996
1000
1000
1000
1000
1000
1000
1000
999.997
1000
1000
1000
1000
1000
1000
1000
1000
1000
1000
1000
1000
1000
1000
1000
1000
1000
1000
1000
1000
1000
1000
1000
1000
1000
1000
1000
1000
1000
1000
1000
1000
1000
1000
1000
1000
1000
999.996
999.998
1000
1000
1000
999.995
999.972
999.932
999.804
999.913
999.998
1000
1000
1000
1000
1000
1000
1000
999.998
1000
1000
1000
1000
1000
1000
1000
1000
1000
1000
1000
1000
1000
1000
1000
1000
1000
1000
1000
1000
1000
1000
1000
1000
1000
1000
1000
1000
1000
1000
1000
1000
1000
1000
1000
999.999
1000
999.996
999.999
1000
1000
999.999
999.996
999.981
999.955
999.802
999.533
999.534
1000
1000
1000
1000
1000
1000
999.999
999.998
1000
1000
1000
1000
1000
1000
1000
1000
1000
1000
1000
1000
1000
1000
1000
1000
1000
1000
1000
1000
1000
1000
1000
1000
1000
1000
1000
1000
1000
1000
1000
1000
1000
1000
1000
999.999
1000
999.998
1000
1000
1000
999.991
999.997
999.994
999.971
999.764
999.191
999.291
1000
1000
1000
1000
1000
1000
1000
1000
1000
1000
1000
1000
1000
1000
1000
1000
1000
1000
1000
1000
1000
1000
1000
1000
1000
1000
1000
1000
1000
1000
1000
1000
1000
1000
1000
1000
1000
1000
1000
1000
1000
1000
1000
999.999
1000
1000
1000
1000
999.998
999.991
999.997
1000
1000
999.634
999.108
999.319
1000
1000
1000
1000
1000
1000
1000
1000
1000
1000
1000
1000
1000
1000
1000
1000
1000
1000
1000
1000
1000
1000
1000
1000
1000
1000
1000
1000
1000
1000
1000
1000
1000
1000
1000
1000
1000
1000
1000
1000
1000
1000
1000
999.999
1000
1000
1000
1000
1000
1000
1000
1000
1000
1000
1000
1000
1000
1000
1000
1000
1000
1000
1000
1000
983.303
1000
1000
1000
1000
1000
1000
1000
974.514
1000
1000
1000
1000
1000
1000
1000
978.853
1000
1000
1000
1000
1000
1000
1000
1000
1000
1000
1000
1000
1000
1000
1000
1000
1000
1000
999.999
1000
1000
1000
1000
1000
1000
1000
1000
1000
1000
1000
1000
1000
1000
1000
1000
1000
1000
1000
1000
949.979
1000
1000
1000
1000
1000
1000
1000
913.853
1000
1000
1000
1000
1000
1000
1000
936.639
1000
1000
1000
1000
1000
1000
1000
1000
1000
1000
1000
1000
1000
1000
1000
1000
1000
1000
999.999
1000
1000
1000
1000
1000
1000
1000
1000
1000
1000
1000
1000
1000
1000
1000
1000
1000
1000
1000
1000
917.649
1000
1000
1000
1000
1000
1000
1000
853.159
1000
1000
1000
1000
1000
1000
1000
891.806
1000
1000
1000
1000
1000
1000
1000
995.778
1000
1000
1000
1000
1000
1000
1000
1000
1000
1000
999.999
1000
1000
999.998
1000
1000
1000
1000
1000
1000
1000
1000
1000
1000
1000
1000
1000
1000
1000
1000
1000
929.339
999.999
1000
1000
1000
1000
1000
1000
871.701
999.999
1000
1000
1000
1000
1000
1000
901.729
1000
1000
1000
1000
1000
1000
1000
996.526
1000
1000
1000
1000
1000
1000
1000
1000
1000
1000
999.999
999.998
1000
999.998
1000
1000
1000
1000
1000
1000
1000
1000
1000
999.999
1000
1000
1000
1000
1000
1000
1000
977.323
1000
1000
1000
1000
1000
1000
1000
950.956
999.999
1000
1000
1000
1000
1000
1000
960.425
999.999
1000
1000
1000
1000
1000
1000
999.851
1000
1000
1000
1000
1000
1000
1000
1000
1000
1000
999.999
999.994
999.998
999.999
1000
999.999
1000
1000
1000
1000
1000
1000
1000
1000
1000
1000
1000
999.998
999.998
1000
1000
999.8
1000
1000
1000
999.998
999.999
1000
1000
998.098
1000
1000
1000
1000
1000
1000
1000
998.617
1000
1000
1000
1000
1000
1000
1000
1000
1000
1000
1000
1000
1000
1000
1000
1000
1000
1000
999.998
999.98
999.984
999.998
999.999
1000
1000
1000
1000
999.966
998.983
997.676
996.792
1000
1000
1000
1000
999.994
997.798
996.796
996.792
1000
1000
999.995
999.916
999.969
996.791
996.791
996.794
1000
1000
1000
1000
1000
999.813
999.302
998.59
1000
1000
999.988
999.652
999.977
999.677
999.512
999.941
1000
1000
999.995
999.707
999.314
996.377
996.382
999.546
1000
1000
1000
999.999
998.159
996.351
996.382
999.796
1000
1000
1000
1000
999.998
997.413
999.056
997.625
1000
1000
1000
1000
999.956
997.254
999.168
996.953
1000
1000
999.999
999.991
999.994
996.907
998.094
996.795
1000
1000
1000
1000
1000
999.886
999.325
998.973
1000
1000
999.998
999.957
999.876
999.636
999.468
999.941
1000
1000
1000
999.966
998.495
996.378
996.379
999.534
1000
1000
999.996
999.999
998.389
997.128
997.75
999.902
1000
1000
1000
1000
1000
997.263
999.794
999.548
1000
1000
1000
1000
999.77
997.258
999.787
996.948
1000.01
1000
1000
1000
999.943
998.827
999.661
996.795
1000
1000
1000
1000
1000
999.957
999.464
999.549
1000
1000
999.999
1000
999.031
999.578
999.526
999.944
1000
1000
999.972
999.999
997.485
996.379
996.672
999.575
1000
1000
999.992
999.999
998.884
998.814
999.684
999.945
1000
1000
1000
1000
1000
998.347
999.87
1000
1000
1000
1000
1000
999.56
997.263
999.679
996.868
1000
1000
1000
1000
999.765
999.9
999.729
996.796
1000
1000
1000
999.999
1000
999.957
999.711
999.911
1000
1000
999.991
999.993
998.529
999.593
999.759
999.944
1000
1000
999.964
999.894
997.449
998.043
998.972
999.7
1000
1000
999.993
999.999
999.444
998.382
999.885
999.944
1000
1000
1000
999.999
999.913
999.88
999.942
999.999
999.997
1000
1000
1000
999.5
998.748
998.706
996.869
999.996
1000
1000
999.999
999.759
999.926
998.923
998.12
999.997
1000
1000
999.999
999.994
999.944
999.608
999.702
999.999
1000
999.97
999.949
998.971
999.714
999.94
999.944
1000
1000
999.969
999.797
997.449
999.224
999.181
999.928
999.999
999.999
999.995
999.999
999.845
997.563
996.218
996.766
1000
1000
1000
999.993
999.78
999.955
999.893
999.994
1000
1000
1000
1000
999.661
999.779
997.993
996.869
1000
1000
1000
999.991
999.9
999.959
998.01
999.104
1000
1000
1000
999.999
999.982
999.957
999.488
999.139
1000
1000
999.969
999.931
999.664
999.883
999.92
999.696
1000
1000
999.979
999.854
998.164
999.297
996.278
998.646
999.997
999.999
999.998
999.998
1000
997.593
996.022
996.022
1000
1000
1000
999.993
999.78
999.958
999.997
999.999
1000
1000
1000
999.984
999.326
999.808
999.983
999.994
1000
1000
1000
999.996
999.98
998.516
998.925
999.961
1000
1000
1000
999.995
999.979
998.476
998.475
999.84
1000
1000
1000
999.998
999.862
999.817
999.994
999.993
1000
1000
1000
1000
999.978
999.97
1000
999.999
1000
1000
1000
1000
1000
1000
1000
1000
1000
1000
1000
999.999
999.915
999.969
999.999
999.999
1000
1000
1000
999.992
999.325
999.879
999.999
999.993
1000
1000
1000
999.999
999.918
999.285
999.741
999.978
1000
1000
1000
999.994
999.966
998.477
998.631
999.919
1000
1000
1000
999.999
999.057
999.501
999.972
999.995
1000
1000
1000
1000
999.928
999.963
1000
999.998
1000
1000
1000
1000
1000
1000
1000
1000
1000
1000
1000
1000
999.932
999.982
999.999
999.998
1000
1000
1000
999.994
999.311
999.916
999.999
999.987
1000
1000
1000
1000
999.136
999.783
999.993
999.982
1000
1000
1000
999.991
999.957
998.56
999.414
999.98
1000
1000
1000
999.981
998.916
999.262
999.948
999.997
1000
1000
1000
999.999
999.826
999.96
1000
999.999
1000
1000
1000
1000
1000
1000
1000
1000
1000
1000
999.997
999.996
999.921
999.993
999.996
999.997
1000
1000
1000
999.971
999.18
999.958
999.999
999.987
1000
1000
1000
999.943
998.916
999.966
999.999
999.982
1000
1000
1000
999.982
999.327
999.571
999.962
999.989
1000
1000
1000
999.851
998.915
999.26
999.948
999.999
999.999
1000
1000
999.986
999.762
999.963
999.999
999.999
1000
1000
1000
1000
1000
1000
1000
1000
1000
1000
999.992
999.806
999.886
1000
999.97
999.996
1000
1000
1000
999.816
998.916
999.999
999.932
999.987
1000
1000
1000
999.875
998.916
999.685
999.746
999.981
999.999
1000
1000
999.886
998.915
999.934
999.993
999.993
999.999
1000
1000
999.544
998.915
999.38
999.963
999.999
999.999
1000
999.999
999.869
999.763
999.979
999.997
999.999
1000
1000
1000
1000
1000
1000
1000
1000
1000
1000
999.998
999.64
999.861
999.921
999.874
999.999
1000
1000
1000
999.499
998.964
999.266
999.205
999.999
1000
1000
1000
999.905
998.916
998.917
998.966
999.969
1000
1000
1000
999.855
998.916
999.488
999.882
1000
1000
1000
1000
999.505
998.915
999.619
999.997
1000
1000
1000
999.995
999.71
999.802
999.989
999.993
1000
1000
1000
1000
1000
1000
1000
1000
1000
1000
1000
1000
1000
1000
1000
1000
1000
1000
1000
1000
1000
1000
1000
1000
1000
1000
1000
1000
1000
1000
1000
1000
1000
1000
1000
1000
1000
1000
1000
1000
1000
1000
1000
1000
1000
1000
1000
1000
1000
1000
1000
1000
1000
1000
1000
1000
1000
1000
1000
1000
1000
1000
1000
1000
1000
1000
1000
1000
1000
1000
1000
1000
1000
1000
1000
1000
1000
1000
1000
1000
1000
1000
1000
1000
1000
1000
1000
1000
1000
1000
1000
1000
1000
1000
1000
1000
1000
1000
1000
1000
1000
1000
1000
1000
1000
1000
1000
1000
1000
1000
1000
1000
1000
1000
1000
1000
1000
1000
1000
1000
1000
1000
1000
1000
1000
1000
1000
1000
1000
1000
1000
1000
1000
1000
1000
1000
1000
1000
1000
1000
1000
1000
1000
1000
1000
1000
1000
1000
1000
1000
1000
1000
1000
1000
1000
1000
1000
1000
1000
1000
1000
1000
1000
1000
1000
1000
1000
1000
1000
1000
1000
1000
1000
1000
1000
1000
1000
1000
1000
1000
1000
1000
1000
1000
1000
1000
1000
1000
1000
1000
1000
1000
1000
1000
1000
1000
1000
1000
1000
1000
1000
1000
1000
1000
1000
1000
1000
1000
1000
1000
1000
1000
1000
1000
1000
1000
1000
1000
1000
1000
1000
1000
1000
1000
1000
1000
1000
1000
1000
1000
1000
1000
1000
1000
1000
1000
1000
1000
1000
1000
1000
1000
1000
1000
1000
1000
1000
1000
1000
1000
1000
1000
1000
1000
1000
1000
1000
1000
1000
1000
1000
1000
1000
1000
1000
1000
1000
1000
1000
1000
1000
1000
1000
1000
1000
1000
1000
1000
1000
1000
1000
1000
1000
1000
1000
1000
1000
1000
1000
999.996
1000
1000
1000
999.999
999.999
999.999
966.007
1000
1000
1000
1000
999.999
999.999
999.999
966.504
1000
1000
1000
1000
999.999
999.999
999.999
969.417
1000
1000
1000
1000
999.999
999.999
999.999
970.405
1000
1000
1000
1000
999.999
999.999
999.999
971.266
1000
1000
1000
1000
999.999
999.999
999.999
968.416
1000
1000
1000
1000
999.999
999.999
999.999
967.051
1000
1000
1000
1000
1000
1000
1000
1000
1000
1000
1000
1000
1000
1000
1000
1000
1000
1000
1000
1000
1000
1000
1000
1000
1000
1000
1000
1000
1000
1000
1000
1000
1000
1000
1000
1000
1000
1000
1000
1000
1000
1000
1000
1000
1000
1000
1000
1000
1000
1000
1000
1000
1000
1000
1000
1000
1000
1000
1000
1000
1000
1000
1000
1000
1000
1000
1000
1000
1000
1000
1000
1000
1000
1000
1000
1000
1000
1000
1000
1000
1000
1000
1000
1000
1000
1000
1000
1000
1000
1000
1000
1000
1000
1000
1000
1000
1000
1000
1000
1000
1000
1000
1000
1000
1000
1000
1000
1000
1000
1000
1000
1000
1000
1000
1000
1000
1000
1000
1000
1000
1000
1000
1000
1000
1000
1000
1000
1000
1000
1000
1000
1000
1000
1000
1000
1000
1000
1000
1000
1000
1000
1000
1000
1000
1000
1000
1000
1000
1000
1000
1000
1000
1000
1000
1000
1000
1000
1000
1000
1000
1000
1000
1000
1000
1000
1000
1000
1000
1000
1000
1000
1000
1000
1000
1000
1000
1000
1000
1000
1000
1000
1000
1000
1000
1000
1000
1000
1000
1000
1000
1000
1000
1000
1000
1000
1000
1000
1000
1000
1000
1000
1000
1000
1000
1000
1000
1000
1000
1000
1000
1000
1000
1000
1000
1000
1000
1000
1000
1000
1000
1000
1000
1000
1000
1000
1000
1000
1000
1000
1000
1000
1000
1000
1000
1000
1000
1000
1000
1000
1000
1000
1000
1000
1000
1000
1000
1000
1000
1000
1000
1000
1000
1000
1000
1000
1000
1000
1000
1000
1000
1000
1000
1000
1000
1000
1000
1000
1000
1000
1000
1000
1000
1000
1000
1000
1000
1000
1000
1000
1000
1000
1000
1000
1000
999.999
999.998
999.999
959.358
1000
1000
1000
1000
999.999
999.998
999.999
964.424
1000
1000
1000
1000
999.999
999.998
999.998
959.438
1000
1000
1000
1000
999.999
999.998
999.998
959.164
1000
1000
1000
1000
1000
999.998
999.998
960.434
1000
1000
1000
1000
1000
999.998
999.998
961.831
1000
1000
1000
1000
1000
999.998
999.998
961.714
1000
1000
1000
1000
1000
1000
1000
1000
1000
1000
1000
1000
1000
1000
1000
1000
1000
1000
1000
1000
1000
1000
1000
1000
1000
1000
1000
1000
1000
1000
1000
1000
1000
1000
1000
1000
1000
1000
1000
1000
1000
1000
1000
1000
1000
1000
1000
1000
1000
1000
1000
1000
1000
1000
1000
1000
1000
1000
1000
1000
1000
1000
1000
1000
1000
1000
1000
1000
1000
1000
1000
1000
1000
1000
1000
1000
1000
1000
1000
1000
1000
1000
1000
1000
1000
1000
1000
1000
1000
1000
1000
1000
1000
1000
1000
1000
1000
1000
1000
1000
1000
1000
1000
1000
1000
1000
1000
1000
1000
1000
1000
1000
1000
1000
1000
1000
1000
1000
1000
1000
1000
1000
1000
1000
1000
1000
1000
1000
1000
1000
1000
1000
1000
1000
1000
1000
1000
1000
1000
1000
1000
1000
1000
1000
1000
1000
1000
1000
1000
1000
1000
1000
1000
1000
1000
1000
1000
1000
1000
1000
1000
1000
1000
1000
1000
1000
1000
1000
1000
1000
1000
1000
1000
1000
1000
1000
1000
999.999
999.987
999.999
1000
1000
1000
1000
1000
999.997
999.979
999.998
1000
1000
1000
1000
1000
1000
1000
1000
1000
1000
1000
1000
1000
1000
1000
1000
1000
1000
1000
1000
1000
1000
999.992
1000
1000
1000
1000
1000
1000
999.999
1000
1000
1000
1000
1000
1000
1000
1000
1000
1000
1000
1000
1000
1000
1000
999.838
999.961
1000
1000
1000
1000
1000
1000
999.815
999.946
1000
1000
1000
1000
1000
1000
999.997
1000
1000
1000
1000
1000
1000
1000
999.955
999.997
1000
1000
1000
1000
1000
1000
999.821
999.961
1000
1000
1000
1000
1000
1000
999.985
1000
1000
1000
1000
1000
1000
999.922
1000
1000
1000
1000
999.998
999.998
961.997
999.235
999.72
999.991
1000
1000
999.998
999.998
963.264
999.296
999.72
999.988
1000
1000
999.998
999.998
962.081
999.782
999.996
1000
1000
1000
999.998
999.999
960.032
999.414
999.88
999.998
1000
1000
999.999
999.999
961.181
998.622
999.511
999.987
1000
999.999
999.999
999.999
963.555
999.132
999.924
1000
1000
999.999
999.999
999.999
965.269
1000
1000
1000
1000
1000
1000
1000
1000
1000
1000
1000
1000
1000
1000
1000
1000
1000
1000
1000
1000
1000
1000
1000
1000
1000
1000
1000
1000
1000
1000
1000
1000
1000
1000
1000
1000
1000
1000
1000
1000
1000
1000
1000
1000
1000
1000
1000
1000
1000
1000
1000
1000
1000
1000
1000
1000
1000
1000
1000
1000
1000
1000
1000
1000
1000
1000
1000
1000
1000
1000
1000
1000
1000
1000
1000
1000
1000
1000
1000
1000
1000
1000
1000
1000
1000
1000
1000
1000
1000
1000
1000
1000
1000
1000
1000
1000
1000
1000
1000
1000
1000
1000
1000
1000
1000
1000
1000
1000
1000
1000
1000
1000
1000
1000
1000
1000
1000
1000
1000
1000
1000
1000
1000
1000
1000
1000
1000
1000
1000
1000
1000
1000
1000
1000
1000
1000
1000
1000
1000
1000
1000
1000
1000
1000
1000
1000
1000
1000
1000
1000
1000
1000
1000
1000
1000
1000
1000
1000
1000
1000
1000
1000
1000
1000
1000
1000
1000
1000
1000
1000
1000
1000
1000
1000
1000
1000
1000
1000
1000
1000
1000
1000
1000
1000
1000
1000
1000
1000
1000
1000
1000
1000
1000
1000
1000
1000
1000
1000
1000
1000
1000
1000
1000
1000
1000
1000
1000
1000
1000
1000
1000
1000
1000
1000
1000
1000
1000
1000
1000
1000
1000
1000
1000
1000
1000
1000
1000
1000
1000
1000
1000
1000
1000
1000
1000
1000
1000
1000
1000
1000
1000
1000
1000
1000
1000
1000
1000
1000
1000
1000
1000
1000
1000
1000
1000
1000
1000
1000
1000
1000
1000
1000
1000
1000
1000
1000
1000
1000
1000
1000
1000
1000
1000
1000
1000
1000
1000
1000
1000
1000
1000
1000
1000
1000
999.999
999.999
999.999
966.185
1000
1000
1000
1000
999.999
999.999
999.999
964.72
999.961
1000
1000
1000
999.999
999.999
999.999
962.703
999.992
1000
1000
1000
999.999
999.999
999.999
961.114
1000
1000
1000
1000
999.999
999.999
999.999
959.52
1000
1000
1000
1000
999.999
999.998
999.999
959.015
1000
1000
1000
1000
999.999
999.998
999.999
958.253
1000
1000
1000
1000
1000
1000
1000
1000
1000
1000
1000
1000
1000
1000
1000
1000
1000
1000
1000
1000
1000
1000
1000
1000
1000
1000
1000
1000
1000
1000
1000
1000
1000
1000
1000
1000
1000
1000
1000
1000
1000
1000
1000
1000
1000
1000
1000
1000
1000
1000
1000
1000
1000
1000
1000
1000
1000
1000
1000
1000
1000
1000
1000
1000
1000
1000
1000
1000
1000
1000
1000
1000
1000
1000
1000
1000
1000
1000
1000
1000
1000
1000
1000
1000
1000
1000
1000
1000
1000
1000
1000
1000
1000
1000
1000
1000
1000
1000
1000
1000
1000
1000
1000
1000
1000
1000
1000
1000
1000
1000
1000
1000
1000
1000
1000
1000
1000
1000
1000
1000
1000
1000
1000
1000
1000
1000
1000
1000
1000
1000
999.9
1000
1000
1000
1000
1000
1000
1000
999.978
1000
1000
1000
1000
1000
1000
1000
999.998
1000
1000
1000
1000
1000
1000
1000
999.984
1000
1000
1000
1000
1000
1000
1000
999.919
1000
1000
1000
1000
1000
1000
1000
999.825
1000
1000
1000
1000
1000
1000
1000
1000
1000
1000
1000
1000
1000
996.352
994.079
999.671
1000
1000
1000
1000
1000
996.588
996.072
999.824
1000
1000
1000
1000
1000
996.152
997.167
999.964
1000
1000
1000
1000
1000
995.191
995.324
999.849
1000
1000
1000
1000
1000
994.591
993.829
999.667
1000
1000
1000
1000
1000
994.148
991.648
999.555
1000
999.824
989.123
992.027
992.506
977.089
992.789
1000
1000
999.442
988.791
992.419
998.82
964.919
982.352
999.813
1000
998.688
992.211
994.205
994.616
960.675
984.674
999.394
1000
998.383
993.978
991.797
987.893
957.704
985.868
999.536
1000
998.446
994.169
992.198
990.94
957.582
983.577
999.133
1000
998.153
989.567
995.693
988.371
956.855
978.136
999.14
1000
999.323
987.144
993.593
988.83
953.481
978.596
999.582
936.546
910.846
870.608
930.978
909.593
924.984
962.419
933.007
938.46
904.392
876.571
942.226
898.84
951.446
977.892
936.065
944.563
892.085
896.753
933.503
891.444
954.345
981.829
932.574
940.512
886.265
898.703
928.656
897.81
953.712
976.362
933.147
943.837
889.177
901.353
925.265
891.089
959.474
982.273
931.233
944.834
894.39
891.846
928.034
913.37
965.775
972.385
932.253
940.321
903.627
876.761
945.781
911.88
948.296
972.999
939.131
1000
1000
1000
1000
1000
1000
1000
1000
1000
1000
1000
1000
1000
1000
1000
1000
1000
1000
1000
1000
1000
1000
1000
1000
1000
1000
1000
1000
1000
1000
1000
1000
1000
1000
1000
1000
1000
1000
1000
1000
1000
1000
1000
1000
1000
1000
1000
1000
1000
1000
1000
1000
1000
1000
1000
1000
1000
1000
1000
1000
1000
1000
1000
1000
1000
1000
1000
1000
1000
1000
1000
1000
1000
1000
1000
1000
1000
1000
1000
1000
1000
1000
1000
1000
1000
1000
1000
1000
1000
1000
1000
1000
1000
1000
1000
1000
1000
1000
1000
1000
1000
1000
1000
1000
1000
1000
1000
1000
1000
1000
1000
1000
1000
1000
1000
1000
1000
1000
1000
1000
1000
1000
1000
1000
1000
1000
1000
1000
1000
1000
1000
1000
1000
1000
1000
1000
1000
1000
1000
1000
1000
1000
1000
1000
1000
1000
1000
1000
1000
1000
1000
1000
1000
1000
1000
1000
1000
1000
1000
1000
1000
1000
1000
1000
1000
1000
1000
1000
1000
1000
1000
1000
1000
1000
1000
1000
1000
1000
1000
1000
1000
1000
1000
1000
1000
1000
1000
1000
1000
1000
1000
1000
1000
1000
1000
1000
1000
1000
1000
1000
1000
1000
1000
1000
1000
1000
1000
1000
1000
1000
1000
1000
1000
1000
1000
1000
1000
1000
1000
1000
1000
1000
1000
1000
1000
1000
989.444
993.963
995.212
980.752
994.467
1000
1000
1000
996.791
996.839
998.418
983.831
993.477
1000
1000
1000
997.141
999.309
998.759
984.533
993.445
1000
1000
1000
997.423
999.93
998.02
984.546
994.021
1000
1000
1000
997.75
1000
997.545
984.179
994.208
1000
1000
999.962
997.82
1000
996.913
983.091
993.941
1000
1000
999.574
997.12
1000
996.528
982.578
994.33
1000
937.548
946.794
883.671
918.966
929.385
924.754
956.702
946.175
928.295
932.73
905.083
909.406
923.097
927.524
952.445
948.439
944.744
927.77
895.886
931.968
925.552
929.206
949.045
950.276
949.083
911.199
903.307
944.467
922.266
927.371
948.815
950.734
950.248
902.21
907.762
950.837
921.713
925.779
949.132
950.823
951.944
896.562
910.604
955.602
921.722
924.784
949.172
950.263
954.958
894.749
910.589
960.068
920.642
924.858
949.785
948.99
1000
1000
1000
1000
1000
1000
1000
1000
1000
1000
1000
1000
1000
1000
1000
1000
1000
1000
1000
1000
1000
1000
1000
1000
1000
1000
1000
1000
1000
1000
1000
1000
1000
1000
1000
1000
1000
1000
1000
1000
1000
1000
1000
1000
1000
1000
1000
1000
1000
1000
1000
1000
1000
1000
1000
1000
1000
1000
1000
1000
1000
1000
1000
1000
1000
1000
1000
1000
1000
1000
1000
1000
1000
1000
1000
1000
1000
1000
1000
1000
1000
1000
1000
1000
1000
1000
1000
1000
1000
1000
1000
1000
1000
1000
1000
1000
1000
1000
1000
1000
1000
1000
1000
1000
1000
1000
1000
1000
1000
1000
1000
1000
1000
1000
1000
1000
1000
1000
1000
1000
1000
1000
1000
1000
1000
1000
1000
1000
1000
1000
1000
1000
1000
1000
1000
1000
1000
1000
1000
1000
1000
1000
1000
1000
1000
1000
1000
1000
1000
1000
1000
1000
1000
1000
1000
1000
1000
1000
1000
1000
1000
1000
1000
1000
1000
1000
1000
1000
1000
1000
1000
1000
1000
1000
1000
1000
1000
1000
1000
1000
1000
1000
1000
1000
1000
1000
1000
1000
1000
1000
1000
1000
1000
1000
1000
1000
1000
1000
1000
1000
1000
1000
1000
1000
1000
1000
1000
1000
1000
1000
1000
1000
1000
1000
1000
1000
1000
1000
1000
1000
1000
1000
1000
1000
1000
999.491
996.927
1000
995.288
980.668
994.148
1000
1000
999.803
997.844
1000
993.885
978.455
994.036
1000
1000
1000
995.523
995.226
994.494
978.074
992.406
1000
1000
1000
991.676
993.748
991.537
974.546
994.79
1000
1000
1000
990.163
993.852
993.915
981.418
996.947
1000
1000
999.945
989.561
992.333
996.375
982.393
992.479
1000
1000
999.928
988.55
989.803
995.137
985.513
995.092
1000
954.522
894.204
910.305
958.762
918.152
926.4
949.261
947.725
949.957
895.773
907.852
945.779
919.2
929.324
947.459
946.115
928.765
921.773
886.156
914.044
929.593
927.563
946.744
943.246
934.575
923.934
870.172
925.406
925.073
927.528
951.748
939.714
941.38
915.818
870.258
930.945
913.402
921.789
958.653
936.678
941.607
913.325
870.347
933.312
911.705
925.739
964.251
935.7
938.343
910.614
870.426
929.145
910.402
922.274
962.119
934.295
1000
1000
1000
1000
1000
1000
1000
1000
1000
1000
1000
1000
1000
1000
1000
1000
1000
1000
1000
1000
1000
1000
1000
1000
1000
1000
1000
1000
1000
1000
1000
1000
1000
1000
1000
1000
1000
1000
1000
1000
1000
1000
1000
1000
1000
1000
1000
1000
1000
1000
1000
1000
1000
1000
1000
1000
1000
1000
1000
1000
1000
1000
1000
1000
1000
1000
1000
1000
1000
1000
1000
1000
1000
1000
1000
1000
1000
1000
1000
1000
1000
1000
1000
1000
1000
1000
1000
1000
1000
1000
1000
1000
1000
1000
1000
1000
1000
1000
1000
1000
1000
1000
1000
1000
1000
1000
1000
1000
1000
1000
1000
1000
1000
1000
1000
1000
1000
1000
1000
1000
1000
999.931
999.737
1000
1000
1000
1000
1000
1000
1000
999.92
1000
1000
1000
1000
1000
1000
1000
999.969
1000
1000
1000
1000
1000
1000
1000
999.983
1000
1000
1000
1000
1000
1000
1000
1000
1000
1000
1000
1000
1000
1000
1000
1000
1000
1000
1000
1000
1000
1000
1000
1000
1000
1000
1000
1000
1000
991.01
988.581
999.406
1000
1000
1000
1000
1000
996.61
995.087
999.743
1000
1000
1000
1000
1000
999.265
997.735
999.877
1000
1000
1000
1000
1000
999.75
998.39
999.918
1000
1000
1000
1000
1000
999.996
999.801
999.999
1000
1000
1000
1000
1000
1000
999.984
1000
1000
1000
1000
1000
1000
1000
1000
1000
1000
999.701
988.307
992.714
991.059
953.342
977.233
999.649
1000
999.714
988.857
995.151
990.469
952.275
978.05
999.759
1000
999.887
989.21
996.174
990.092
954.849
980.691
999.878
1000
999.807
990.577
997.232
988.855
956.662
982.673
999.927
1000
999.7
990.559
997.26
985.99
961.613
986.002
1000
1000
999.802
990.733
998.098
985.018
966.623
988.473
1000
1000
1000
989.956
996.398
989.35
973.935
992.249
1000
942.819
909.573
878.203
938.706
911.906
957.251
975.215
940.773
946.728
913.077
879.879
942.099
910.26
944.346
970.614
938.5
947.577
920.207
877.003
943.516
910.298
930.33
966.746
938.759
948.708
921.899
877.499
940.297
913.986
925.498
965.73
939.32
948.366
923.561
875.282
937.177
929.373
923.607
956.925
943.031
948.976
923.474
875.142
942.564
934.679
915.906
956.926
945.477
943.96
937.959
875.465
925.299
938.781
922.707
955.269
946.914
999.903
999.991
999.933
999.98
999.988
999.928
999.997
997.456
939.783
866.122
885.833
988.546
998.548
1000
981.662
512.511
377.471
400.273
798.044
995.331
1000
982.513
539.85
402.784
699.903
733.928
984.141
1000
988.057
580.574
446.02
478.492
855.869
995.636
1000
999.248
976.755
962.653
964.856
987.386
999.127
1000
999.999
999.999
999.998
999.998
1000
999.998
1000
1000
999.999
999.999
999.999
1000
1000
1000
999.998
999.959
993.487
992.835
999.989
999.999
1000
999.986
919.209
562.815
571.142
983.441
999.997
1000
999.985
816.02
355.547
640.14
875.375
999.992
1000
999.992
930.877
703.07
737.467
995.018
999.998
1000
999.999
999.989
999.978
999.776
999.996
1000
1000
1000
1000
1000
1000
1000
1000
1000
707.255
899.882
948.044
947.835
882.373
775.576
702.854
871.661
908.991
993.307
973.449
824.17
839.189
843.41
942.631
847.675
805.446
601.631
873.77
895.354
870.317
994.459
814.941
324.347
318.096
792.393
945.415
870.302
928.039
814.022
705.256
695.301
731.996
828.097
835.186
828.977
868.952
963.862
956.456
823.343
766.942
776.54
681.361
858.424
916.652
904.101
834.209
731.505
762.95
241.919
356.681
442.847
427.093
275.402
153.631
145.441
327.716
456.291
717.699
632.631
318.941
191.876
137.578
399.761
391.66
695.126
517.971
315.054
244.061
175.62
485.649
569.041
421.955
305.695
377.442
301.051
192.186
414.212
363.846
420.849
429.282
243.448
225.869
197.064
267.558
304.969
388.746
427.924
284.8
195.645
184.217
191.321
231.987
274.586
282.171
226.845
183.974
180.704
425.659
385.183
334.142
353.4
388.688
347.46
182.103
430.434
304.121
243.574
299.986
394.073
305.34
125.874
434.699
344.401
375.394
431.369
395.5
286.825
111.294
437.104
384.209
443.817
440.442
386.173
311.794
195.217
435.192
431.072
442.463
443.839
427.98
328.096
217.838
433.915
431.557
411.059
435.985
431.4
328.936
202.748
382.979
297.921
273.12
291.094
287.545
251.338
185.478
1
0.999998
0.999918
0.999949
0.999998
1
1
0.999997
2.95075
10.1737
12.5082
2.26879
0.999985
0.999999
0.999877
22.0831
38.8209
43.0281
32.9534
5.70929
0.999944
0.999235
37.1952
69.5095
57.1152
42.9013
9.01353
0.999884
0.999934
20.9859
49.6124
48.802
36.8294
6.17452
0.999972
0.999999
0.999865
17.1004
20.1939
8.46581
0.999934
1
1
1
0.999884
0.999624
0.999955
1
1
1
1
1
1
1
1
1
1
1
1
1
1
1
1
1
1
1
1
1
1
1
1
1
1
1
1
1
1
1
1
1
1
1
1
1
1
1
1
1
1
1
1
1
1
1
1
1
1
1
1
1
1
1
1
1
1
1
1
1
1
1
1
1
1
1
1
1
1
1
1
1
1
1
1
1
1
1
1
1
1
1
1
1
1
1
1
1
1
1
1
1
1
1
1
1
1
1
1
1
1
1
1
1
1
1
1
1
1
1
1
1
1
1
1
1
1
1
1
1
1
1
1
1
1
1
1
1
1
1
1
1
1
1
1
1
1
1
1
1
1
1
1
1
1
1
1
1
1
1
1
1
1
1
1
1
1
1
1
1
1
1
1
1
1
1
1
1
1
1
1
1
1
1
1
1
1
1
1
1
1
1
1
1
1
1
1
1
1
1
1
1
1
1
1
1
1
1000
999.994
999.997
1000
1000
999.948
999.696
999.565
1000
1000
1000
1000
1000
1000
1000
1000
1000
1000
1000
1000
1000
1000
1000
1000
1000
1000
1000
1000
1000
1000
1000
1000
1000
1000
1000
1000
1000
1000
1000
1000
1000
1000
1000
1000
1000
1000
1000
1000
1000
1000
1000
1000
1000
1000
1000
1000
1000
1000
1000
1000
1000
1000
999.994
999.995
1000
1000
1000
1000
1000
1000
1000
1000
1000
1000
1000
1000
1000
1000
1000
1000
1000
1000
1000
1000
1000
1000
1000
1000.01
1000
1000
1000
1000
1000
1000
1000
1000
1000
1000
1000
1000
1000
1000
1000
1000
1000
1000
1000
1000
1000
1000
1000
1000
840.982
994.657
1000
1000
1000
1000
999.559
961.508
875.596
989.071
1000
1000
1000
1000
995.86
956.165
878.305
985.914
1000
1000
1000
1000
999.999
958.015
864.843
984.352
1000
1000
1000.01
1000
999.999
891.901
886.64
996.699
1000
1000
1000.01
1000
999.998
927.64
915.335
1000
1000
1000
1000
1000
996.185
950.175
977.488
1000
1000
997.806
979.545
967.195
954.669
912.11
160.537
486.287
903.69
960.286
913.377
884.76
752.196