/*--------------------------------*- C++ -*----------------------------------*\
| =========                 |                                                 |
| \\      /  F ield         | OpenFOAM: The Open Source CFD Toolbox           |
|  \\    /   O peration     | Version:  plus.master.MPPICInterFoam            |
|   \\  /    A nd           | Web:      www.OpenFOAM.com                      |
|    \\/     M anipulation  |                                                 |
\*---------------------------------------------------------------------------*/
FoamFile
{
    version     2.0;
    format      ascii;
    class       surfaceScalarField;
    location    "11.8";
    object      phi;
}
// * * * * * * * * * * * * * * * * * * * * * * * * * * * * * * * * * * * * * //

dimensions      [0 3 -1 0 0 0 0];

internalField   nonuniform List<scalar> 
34319
(
-2.8175e-08
-2.03615e-07
6.3038e-06
7.4744e-08
1.55257e-07
1.76622e-09
-1.72299e-07
6.18425e-06
1.44263e-07
2.79338e-08
-1.50202e-07
5.82656e-06
1.27259e-07
4.64943e-08
-1.17766e-07
5.29466e-06
1.02899e-07
5.77514e-08
-8.97256e-08
4.66535e-06
8.0669e-08
6.26592e-08
-7.01385e-08
4.00501e-06
6.45604e-08
-5.74138e-08
3.35086e-06
6.19738e-08
5.35375e-08
-1.62498e-08
-2.57771e-07
7.52094e-06
1.05179e-07
2.20333e-08
-1.783e-07
7.4061e-06
5.01116e-08
-1.62234e-07
6.93125e-06
6.91743e-08
-1.30529e-07
6.20537e-06
7.7968e-08
-9.32214e-08
5.39736e-06
7.89136e-08
-6.79599e-08
4.59089e-06
-5.38791e-08
3.82767e-06
7.46986e-08
1.62787e-08
-1.80863e-07
9.23475e-06
1.51843e-07
8.67405e-08
-7.72969e-08
9.27507e-06
1.11298e-07
-1.07934e-07
8.40095e-06
1.26338e-07
-1.22396e-07
7.21281e-06
1.17637e-07
-7.75978e-08
6.11634e-06
1.05534e-07
-5.04809e-08
5.13863e-06
-3.96255e-08
4.25557e-06
9.36622e-08
2.33682e-07
-2.01332e-07
1.1283e-05
8.77298e-08
1.22786e-07
-1.4988e-07
1.14429e-05
1.65861e-07
-6.78414e-08
1.00914e-05
1.90403e-07
-8.71384e-08
8.23489e-06
1.61026e-07
-3.41576e-08
6.73087e-06
1.32807e-07
-1.62896e-08
5.58175e-06
-1.54404e-08
4.59645e-06
1.12539e-07
2.63478e-07
-1.03068e-08
1.22708e-05
-1.41787e-08
1.81982e-07
-1.61922e-07
1.2212e-05
1.24738e-07
-1.83177e-07
1.09777e-05
1.99369e-07
-2.47633e-08
8.85825e-06
1.75502e-07
1.43441e-08
7.09648e-06
1.43998e-07
2.10972e-08
5.85101e-06
1.0492e-08
4.8092e-06
1.22203e-07
1.21566e-07
1.18384e-07
1.20753e-05
2.05484e-07
1.91957e-07
-1.08111e-07
1.23427e-05
1.70692e-07
-1.2388e-08
1.09487e-05
2.21984e-07
9.06662e-08
8.75115e-06
1.79513e-07
8.2504e-08
7.12293e-06
1.44374e-07
6.16202e-08
5.89846e-06
3.57831e-08
4.86782e-06
1.22448e-07
6.59389e-08
1.03903e-05
1.67135e-07
2.87987e-07
1.3188e-07
1.05481e-05
2.98444e-07
1.71218e-07
9.62329e-06
2.46137e-07
1.73327e-07
8.14376e-06
1.82028e-07
1.44579e-07
6.82835e-06
1.26756e-07
1.23669e-07
5.73688e-06
8.54693e-08
4.77191e-06
1.14446e-07
4.64701e-08
-4.87259e-08
5.81116e-08
6.2853e-06
3.99985e-08
-3.08916e-08
-5.47067e-08
7.23162e-08
6.16347e-06
-4.55401e-08
-5.38851e-08
6.62865e-08
5.80161e-06
-4.18596e-08
-4.36722e-08
4.94302e-08
5.2668e-06
-3.15348e-08
-2.67007e-08
2.69201e-08
4.63831e-06
-1.7038e-08
-9.75303e-09
8.47844e-09
3.98303e-06
-3.41019e-09
-6.17115e-09
3.33676e-06
3.28753e-09
7.33516e-09
-4.26616e-08
6.00625e-08
7.52138e-06
4.04154e-08
-6.07601e-08
9.17677e-08
7.4055e-06
-7.67835e-08
9.02715e-08
6.92365e-06
-6.75891e-08
6.13356e-08
6.18417e-06
-4.48982e-08
3.28829e-08
5.36853e-06
-2.19047e-08
1.28949e-08
4.56317e-06
-3.41326e-09
3.80671e-06
-3.95171e-09
3.63045e-08
2.50094e-08
9.23339e-06
4.65292e-10
-4.42249e-08
1.39173e-07
9.30768e-06
-8.30899e-08
8.26201e-08
8.44765e-06
-7.81447e-08
5.38631e-08
7.21548e-06
-5.35385e-08
3.17893e-08
6.09267e-06
-2.76054e-08
1.75118e-08
5.10817e-06
2.02634e-09
4.22926e-06
-6.69098e-09
2.11753e-07
-1.10982e-07
1.12524e-05
-4.47847e-08
1.25445e-07
-9.80553e-08
1.17658e-05
-3.70612e-08
3.80695e-08
1.02985e-05
-6.6043e-08
3.78577e-08
8.28001e-06
-5.27736e-08
3.33465e-08
6.71612e-06
-3.03052e-08
2.5221e-08
5.55142e-06
9.21069e-09
4.56678e-06
-7.7709e-09
5.42871e-07
-1.72744e-07
1.18691e-05
-7.91389e-08
1.80549e-07
-2.59052e-07
1.2735e-05
-8.89232e-08
-2.11427e-07
1.14968e-05
-8.69072e-08
-2.09593e-08
8.91546e-06
-6.8853e-08
2.42447e-08
7.08776e-06
-4.02526e-08
2.60135e-08
5.82184e-06
1.2334e-08
4.77798e-06
-1.20708e-08
2.97438e-07
-5.20364e-08
1.15691e-05
8.85722e-08
1.90527e-07
-1.90713e-07
1.23812e-05
-6.36581e-08
-1.17372e-07
1.11088e-05
-9.63054e-08
-2.43871e-08
8.78725e-06
-8.0779e-08
1.84571e-08
7.1133e-06
-4.95696e-08
2.38732e-08
5.86938e-06
1.03879e-08
4.83619e-06
-1.61324e-08
8.506e-08
1.02532e-05
1.80071e-08
-1.83138e-08
-2.13024e-08
1.04703e-05
-6.83235e-09
-1.29923e-07
9.65495e-06
-4.03855e-08
-1.36571e-07
8.16212e-06
-3.62354e-08
-1.01017e-07
6.81181e-06
-5.74797e-10
-5.64949e-08
5.70627e-06
1.00224e-08
4.7405e-06
-1.12335e-08
-3.4032e-09
-6.80246e-08
2.8222e-07
6.22269e-06
1.41177e-08
-1.65656e-07
-1.02701e-07
2.80595e-07
6.09843e-06
-1.80586e-07
-1.09546e-07
2.25668e-07
5.73458e-06
-1.5175e-07
-9.61871e-08
1.61615e-07
5.20229e-06
-1.10138e-07
-6.85009e-08
9.46231e-08
4.58232e-06
-6.61417e-08
-4.01278e-08
4.53924e-08
3.94038e-06
-3.11561e-08
1.0361e-08
3.30984e-06
-1.76372e-08
-5.68842e-09
-9.51644e-08
3.86569e-07
7.50724e-06
4.97166e-09
-1.62603e-07
3.71903e-07
7.3821e-06
-1.85484e-07
2.94422e-07
6.87763e-06
-1.64885e-07
2.07813e-07
6.11771e-06
-1.17707e-07
1.1586e-07
5.30072e-06
-7.13263e-08
5.50863e-08
4.50654e-06
1.40592e-08
3.76666e-06
-3.56581e-08
-8.42087e-08
3.74978e-07
9.42142e-06
-9.21985e-08
-2.38136e-07
3.52076e-07
9.48134e-06
-2.77407e-07
2.53126e-07
8.52845e-06
-2.41466e-07
2.03235e-07
7.18395e-06
-1.68518e-07
1.12881e-07
6.0226e-06
-1.01482e-07
5.51696e-08
5.04102e-06
1.61534e-08
4.17811e-06
-5.18545e-08
-1.44619e-07
1.98148e-07
1.16402e-05
-6.64142e-08
-1.91739e-07
1.75354e-07
1.19892e-05
-2.97715e-07
8.68208e-08
1.05711e-05
-2.98172e-07
1.46385e-07
8.3378e-06
-2.09956e-07
8.56526e-08
6.65532e-06
-1.27698e-07
4.64841e-08
5.47829e-06
1.42615e-08
4.50761e-06
-6.65625e-08
-9.62125e-08
-4.42467e-08
1.211e-05
9.76987e-08
-2.21412e-07
-5.19255e-08
1.30876e-05
-3.54089e-07
-1.1636e-09
1.17176e-05
-3.53733e-07
2.76142e-08
9.03444e-06
-2.5229e-07
3.48743e-08
7.03731e-06
-1.54642e-07
2.38653e-08
5.74697e-06
4.18664e-09
4.71436e-06
-8.10399e-08
-9.25132e-08
-7.18625e-08
1.14853e-05
2.04118e-07
-2.48307e-07
-1.08884e-07
1.25938e-05
-4.10283e-07
-1.41713e-07
1.14118e-05
-3.95819e-07
-1.23435e-07
8.924e-06
-2.79977e-07
-3.54606e-08
7.06808e-06
-1.71124e-07
-1.06033e-08
5.79489e-06
-1.45341e-08
4.77154e-06
-8.77689e-08
-9.70789e-08
1.05368e-05
3.63489e-09
-2.62516e-07
-3.21919e-07
1.08602e-05
-2.74018e-07
-4.49433e-07
9.9322e-06
-2.9151e-07
-4.00617e-07
8.21248e-06
-2.22505e-07
-2.76377e-07
6.75579e-06
-1.03803e-07
-1.64494e-07
5.63286e-06
-4.89918e-08
4.67804e-06
-7.40922e-08
-4.23031e-08
-6.83668e-08
2.25471e-07
6.13684e-06
3.09253e-08
-1.02085e-07
-8.64064e-08
2.12517e-07
6.01081e-06
-1.06284e-07
-7.44654e-08
1.4458e-07
5.65065e-06
-7.27455e-08
-5.09501e-08
8.56639e-08
5.12957e-06
-3.62246e-08
-2.16483e-08
2.89617e-08
4.52646e-06
-2.18632e-09
2.30948e-09
-9.53208e-09
3.90362e-06
2.22656e-08
-3.39807e-08
3.29162e-06
1.69727e-08
3.75863e-08
-1.25116e-07
3.82693e-07
7.43507e-06
4.00084e-08
-1.68889e-07
3.36928e-07
7.3011e-06
-1.5165e-07
2.25316e-07
6.77929e-06
-1.08884e-07
1.40365e-07
6.02098e-06
-5.6473e-08
5.59589e-08
5.2219e-06
-1.35512e-08
3.26087e-09
4.45092e-06
-2.86961e-08
3.73358e-06
1.42526e-08
-2.17544e-07
4.54487e-07
9.57533e-06
-8.49283e-09
-3.04623e-07
3.61864e-07
9.54442e-06
-2.53997e-07
2.06922e-07
8.4959e-06
-1.78485e-07
1.65882e-07
7.08255e-06
-9.47779e-08
7.15078e-08
5.92383e-06
-3.06939e-08
1.28596e-08
4.96738e-06
-2.14394e-08
4.13075e-06
9.84544e-09
-4.77499e-07
4.66566e-07
1.19497e-05
1.55335e-07
-3.58655e-07
2.4225e-07
1.19903e-05
-3.01035e-07
1.32736e-07
1.05875e-05
-2.41858e-07
1.70797e-07
8.2741e-06
-1.31166e-07
6.99466e-08
6.5462e-06
-4.89819e-08
1.88351e-08
5.39077e-06
-1.43371e-08
4.44873e-06
2.86459e-09
-7.77167e-07
3.38732e-07
1.27748e-05
2.39527e-07
-5.21073e-07
2.52631e-07
1.28218e-05
-4.67144e-07
1.01228e-07
1.16951e-05
-3.3716e-07
5.44855e-08
9.02009e-06
-1.83705e-07
2.49562e-08
6.92854e-06
-7.57811e-08
6.24298e-09
5.65121e-06
-1.47149e-08
4.64809e-06
-9.32644e-09
-7.93872e-07
-1.11813e-07
1.25569e-05
1.72608e-07
-6.07301e-07
-1.91823e-08
1.26791e-05
-5.25251e-07
-6.79737e-08
1.14991e-05
-3.78548e-07
-1.19709e-07
8.9522e-06
-2.09754e-07
-3.65692e-08
6.96096e-06
-9.18016e-08
-1.51225e-08
5.69811e-06
-2.19344e-08
4.70317e-06
-1.61599e-08
-3.32253e-07
1.0942e-05
6.5625e-08
-2.51175e-07
-4.84081e-07
1.12853e-05
-2.92613e-07
-4.82142e-07
1.01442e-05
-2.82608e-07
-3.55599e-07
8.16748e-06
-2.01212e-07
-2.00744e-07
6.65036e-06
-8.62179e-08
-8.80219e-08
5.54162e-06
-3.66685e-08
4.61284e-06
-1.10052e-08
-3.37518e-08
-4.95503e-08
-1.5505e-07
6.06068e-06
1.00348e-07
1.80583e-07
3.82682e-09
-1.71891e-07
5.93051e-06
1.99162e-07
6.94179e-08
-2.06113e-07
5.57496e-06
2.15976e-07
1.2182e-07
-2.00889e-07
5.06392e-06
2.13889e-07
1.62278e-07
-1.95615e-07
4.47285e-06
2.09018e-07
1.91684e-07
-1.93957e-07
3.86198e-06
2.06333e-07
-1.93935e-07
3.26359e-06
2.08251e-07
2.05161e-07
-9.06583e-08
-8.29648e-08
7.31127e-06
1.4251e-07
-3.4494e-08
-1.00048e-07
7.17244e-06
5.89077e-08
-1.79139e-07
6.65916e-06
1.26972e-07
-1.74253e-07
5.92655e-06
1.7424e-07
-1.71226e-07
5.14993e-06
2.062e-07
-1.70891e-07
4.39598e-06
-1.72032e-07
3.69289e-06
2.24517e-07
-2.10539e-07
6.44974e-08
9.42708e-06
2.11126e-07
-1.05437e-07
3.93921e-08
9.30002e-06
6.18608e-08
-1.36805e-07
8.28609e-06
1.5111e-07
-1.18303e-07
6.93755e-06
1.9743e-07
-1.22174e-07
5.82889e-06
2.25609e-07
-1.30763e-07
4.899e-06
-1.36994e-07
4.07998e-06
2.4117e-07
-4.26004e-07
2.40996e-07
1.17621e-05
4.3702e-07
-1.16177e-07
3.8275e-08
1.16821e-05
8.46118e-08
-6.06612e-08
1.03106e-05
1.70206e-07
8.38826e-09
8.06159e-06
2.15395e-07
-4.67685e-08
6.42557e-06
2.39748e-07
-7.42243e-08
5.30981e-06
-9.08229e-08
4.38958e-06
2.52717e-07
-5.47163e-07
3.71288e-07
1.2756e-05
4.35929e-07
-2.57771e-07
2.62685e-07
1.23078e-05
-1.60488e-07
1.18936e-07
1.14179e-05
8.12702e-08
1.30456e-08
8.77335e-06
1.8476e-07
-1.4555e-08
6.79264e-06
2.29389e-07
-2.92123e-08
5.56133e-06
-4.63537e-08
4.58309e-06
2.4983e-07
-6.07958e-07
1.69366e-07
1.29922e-05
3.74266e-07
-3.39217e-07
1.87335e-07
1.24858e-05
-1.0366e-07
1.19752e-07
1.12631e-05
8.35603e-08
2.79747e-08
8.75026e-06
1.75153e-07
3.06812e-08
6.82386e-06
2.19101e-07
1.84387e-08
5.60624e-06
-1.83916e-09
4.63641e-06
2.41218e-07
-3.24746e-07
1.09853e-05
2.80982e-07
1.69825e-07
-1.98593e-07
1.12616e-05
8.53807e-08
-4.95721e-08
1.00024e-05
1.12776e-07
7.56865e-08
7.98726e-06
8.27916e-08
1.52709e-07
6.52852e-06
7.53125e-08
1.96641e-07
5.45552e-06
6.02249e-08
4.54966e-06
2.2209e-07
3.57893e-08
-5.60315e-08
-4.42064e-07
1.98656e-07
3.91801e-07
5.96838e-06
6.3055e-08
-4.73904e-07
4.45317e-07
5.8397e-06
1.76367e-07
-4.8388e-07
4.5802e-07
5.48759e-06
2.56827e-07
-4.31931e-07
4.35216e-07
4.98015e-06
3.15365e-07
-3.90101e-07
4.12642e-07
4.39185e-06
3.61067e-07
-3.67491e-07
3.99293e-07
3.78439e-06
-3.5123e-07
3.95424e-07
3.88401e-07
3.19176e-06
-5.66605e-08
-4.75209e-07
2.31238e-07
7.16975e-06
7.63655e-08
-4.73864e-07
7.03897e-06
2.24132e-07
-5.21551e-07
6.54917e-06
3.0712e-07
-4.24284e-07
5.83564e-06
3.5889e-07
-3.58786e-07
5.06631e-06
3.99128e-07
-3.26188e-07
4.31448e-06
-3.06301e-07
4.3327e-07
3.61399e-06
-1.07724e-07
-3.21128e-07
3.50986e-07
9.02962e-06
9.71029e-08
-3.09859e-07
8.93123e-06
3.19872e-07
-4.91245e-07
8.03287e-06
3.94561e-07
-3.65797e-07
6.80474e-06
4.19379e-07
-2.92117e-07
5.73704e-06
4.39842e-07
-2.6023e-07
4.81263e-06
-2.43356e-07
4.62122e-07
3.99471e-06
-2.7936e-07
-1.08522e-07
5.73876e-07
1.1255e-05
1.58232e-07
-2.07305e-08
1.09547e-05
4.36018e-07
-2.98499e-07
9.84014e-06
4.86151e-07
-1.67774e-07
7.81356e-06
4.7679e-07
-1.72658e-07
6.31563e-06
4.73968e-07
-1.64878e-07
5.21726e-06
-1.61682e-07
4.82544e-07
4.29933e-06
-2.25474e-07
2.5528e-07
6.06636e-07
1.20107e-05
-2.26057e-08
2.23448e-07
1.18606e-05
1.71779e-07
8.10753e-08
1.08435e-05
4.48855e-07
-8.00559e-08
8.40879e-06
4.75888e-07
-6.84752e-08
6.66124e-06
4.76276e-07
-6.59759e-08
5.46191e-06
-7.26434e-08
4.81575e-07
4.4886e-06
-1.82882e-07
4.8542e-07
7.08481e-07
1.22357e-05
5.71807e-08
2.89039e-07
1.218e-05
3.54077e-07
2.32589e-07
1.08152e-05
4.83952e-07
1.3415e-07
8.40605e-06
4.75162e-07
7.92957e-08
6.68467e-06
4.63345e-07
5.03042e-08
5.50182e-06
2.56859e-08
4.62908e-07
4.53853e-06
-1.98946e-07
5.25529e-07
5.70547e-07
1.05734e-05
1.00201e-07
5.4432e-07
1.07077e-05
3.44443e-07
4.79855e-07
9.51127e-06
4.18463e-07
3.22801e-07
7.72456e-06
4.11883e-07
2.16113e-07
6.39838e-06
4.07198e-07
1.62066e-07
5.34838e-06
4.0635e-07
1.28001e-07
4.44827e-06
6.95862e-08
-9.57849e-09
1.72312e-06
-3.74946e-09
7.19752e-08
-9.07884e-09
1.73579e-06
-4.03332e-09
6.99305e-08
-1.00466e-08
1.66673e-06
-4.46011e-09
6.32411e-08
-1.16279e-08
1.53664e-06
-4.98864e-09
5.21725e-08
-1.35286e-08
1.36063e-06
-5.46982e-09
3.74148e-08
-1.55972e-08
1.14484e-06
-5.92351e-09
1.93972e-08
-1.78864e-08
8.74059e-07
-5.69967e-09
-2.00878e-08
4.44649e-07
-3.87652e-09
8.07013e-08
-1.99556e-08
2.4446e-06
8.25299e-08
-2.1246e-08
2.34042e-06
7.98832e-08
-2.48561e-08
2.1632e-06
7.23917e-08
-2.92722e-08
1.93189e-06
6.02274e-08
-3.40238e-08
1.6612e-06
4.34533e-08
-3.87503e-08
1.35651e-06
2.25631e-08
-4.32385e-08
9.98335e-07
-4.65071e-08
4.61876e-07
9.72581e-08
-2.5894e-08
3.05027e-06
9.77563e-08
-3.0012e-08
2.87185e-06
9.35928e-08
-3.65056e-08
2.62233e-06
8.41822e-08
-4.39897e-08
2.32336e-06
6.96011e-08
-5.16843e-08
1.99017e-06
4.98159e-08
-5.91223e-08
1.62753e-06
2.54638e-08
-6.58442e-08
1.21238e-06
-7.0279e-08
6.0178e-07
1.13742e-07
-2.72804e-08
3.42645e-06
1.12811e-07
-3.49153e-08
3.23439e-06
1.06993e-07
-4.3875e-08
2.97091e-06
9.57241e-08
-5.3909e-08
2.65871e-06
7.8658e-08
-6.40695e-08
2.31326e-06
5.61311e-08
-7.36735e-08
1.93888e-06
2.89879e-08
-8.20827e-08
1.5102e-06
-8.72731e-08
8.72238e-07
1.23347e-07
-2.75877e-08
3.47707e-06
1.22143e-07
-3.75689e-08
3.34351e-06
1.15706e-07
-4.78064e-08
3.13525e-06
1.03433e-07
-5.91933e-08
2.87431e-06
8.49436e-08
-7.05874e-08
2.57574e-06
6.0656e-08
-8.1211e-08
2.24346e-06
3.12897e-08
-9.04293e-08
1.85141e-06
-9.61678e-08
1.24054e-06
1.24701e-07
-2.92492e-08
3.16513e-06
1.23046e-07
-3.89421e-08
3.15628e-06
1.16663e-07
-4.93947e-08
3.0667e-06
1.04464e-07
-6.08478e-08
2.91609e-06
8.60605e-08
-7.21664e-08
2.71903e-06
6.16704e-08
-8.26772e-08
2.47951e-06
3.18244e-08
-9.16976e-08
2.17253e-06
-9.71716e-08
1.64358e-06
1.20236e-07
2.52066e-06
-3.54029e-08
1.20188e-07
2.68476e-06
-4.17677e-08
1.14231e-07
2.75426e-06
-4.96745e-08
1.01784e-07
2.75241e-06
-5.90113e-08
8.27442e-08
2.6942e-06
-6.88554e-08
5.77149e-08
2.58384e-06
-7.85541e-08
2.8711e-08
2.39847e-06
-8.76008e-08
1.99242e-06
-9.5294e-08
1.15697e-08
-6.65161e-09
1.71931e-06
2.18832e-09
1.85375e-08
-9.46885e-09
1.73665e-06
1.48462e-09
2.30896e-08
-1.16752e-08
1.67339e-06
7.46239e-10
2.4349e-08
-1.38943e-08
1.54931e-06
5.97016e-11
2.24782e-08
-1.60004e-08
1.37886e-06
-4.02959e-10
1.84511e-08
-1.81126e-08
1.1677e-06
-7.63815e-10
1.26859e-08
-2.0351e-08
9.00709e-07
-6.43114e-10
-2.22545e-08
4.77718e-07
1.42931e-09
8.62702e-09
-9.68657e-09
2.43515e-06
1.91945e-08
-1.68911e-08
2.33748e-06
2.56562e-08
-2.27553e-08
2.16791e-06
2.77387e-08
-2.8552e-08
1.94439e-06
2.59075e-08
-3.39437e-08
1.68082e-06
2.09983e-08
-3.88947e-08
1.38206e-06
1.34579e-08
-4.33303e-08
1.02868e-06
-4.59913e-08
4.99131e-07
9.14656e-09
-1.00811e-08
3.03488e-06
2.16238e-08
-2.10029e-08
2.86362e-06
2.94247e-08
-3.10647e-08
2.62276e-06
3.21176e-08
-4.06038e-08
2.33271e-06
3.00485e-08
-4.93751e-08
2.0077e-06
2.39701e-08
-5.72598e-08
1.65184e-06
1.49173e-08
-6.40218e-08
1.24202e-06
-6.79738e-08
6.39006e-07
1.01598e-08
-7.93236e-09
3.4065e-06
2.41472e-08
-2.16758e-08
3.22104e-06
3.30206e-08
-3.52443e-08
2.96606e-06
3.62016e-08
-4.79237e-08
2.66281e-06
3.39333e-08
-5.9464e-08
2.32569e-06
2.71376e-08
-6.96491e-08
1.95824e-06
1.67771e-08
-7.82004e-08
1.53489e-06
-8.31782e-08
9.04491e-07
7.51143e-09
-5.72412e-09
3.45524e-06
2.32651e-08
-2.09149e-08
3.32681e-06
3.34241e-08
-3.61719e-08
3.12581e-06
3.73544e-08
-5.03419e-08
2.87272e-06
3.53335e-08
-6.31509e-08
2.58159e-06
2.82249e-08
-7.43609e-08
2.25559e-06
1.69791e-08
-8.37163e-08
1.86832e-06
-8.93676e-08
1.26384e-06
3.03934e-09
-4.4727e-09
3.14457e-06
1.87088e-08
-1.9233e-08
3.13889e-06
2.92966e-08
-3.45563e-08
3.05458e-06
3.38536e-08
-4.86681e-08
2.91e-06
3.25355e-08
-6.13047e-08
2.71878e-06
2.59041e-08
-7.22925e-08
2.48425e-06
1.54417e-08
-8.15371e-08
2.18102e-06
-8.72944e-08
1.65676e-06
2.24983e-09
2.50409e-06
-1.29007e-09
1.4472e-08
2.66921e-06
-1.57557e-08
2.28615e-08
2.74167e-06
-2.99918e-08
2.61194e-08
2.74375e-06
-4.29828e-08
2.42534e-08
2.68964e-06
-5.4756e-08
1.79329e-08
2.58314e-06
-6.52213e-08
9.50534e-09
2.40003e-06
-7.45015e-08
1.99714e-06
-8.2596e-08
-6.3188e-09
-1.02871e-08
1.71258e-06
6.00869e-09
4.44397e-09
-1.57189e-08
1.73648e-06
4.86964e-09
1.20192e-08
-1.87281e-08
1.68094e-06
3.84835e-09
1.45693e-08
-2.12457e-08
1.56507e-06
3.11368e-09
1.18853e-08
-2.35197e-08
1.40248e-06
2.55718e-09
5.32591e-09
-2.59825e-08
1.19784e-06
2.15239e-09
-3.98943e-10
-2.89155e-08
9.33185e-07
1.96885e-09
-3.18611e-08
5.06389e-07
2.85621e-09
-1.61543e-08
-1.26265e-08
2.41783e-06
4.98081e-10
-2.39485e-08
2.32945e-06
1.14387e-08
-3.15187e-08
2.1701e-06
1.5952e-08
-3.82804e-08
1.95693e-06
1.45361e-08
-4.44199e-08
1.703e-06
8.7021e-09
-5.03545e-08
1.41214e-06
2.68555e-09
-5.63237e-08
1.06214e-06
-6.17681e-08
5.31906e-07
-2.45599e-08
-1.12788e-08
3.00642e-06
-3.58727e-09
-2.70966e-08
2.84595e-06
1.03739e-08
-3.96803e-08
2.61686e-06
1.69081e-08
-5.07151e-08
2.33851e-06
1.63882e-08
-6.05647e-08
2.0242e-06
1.06307e-08
-6.95418e-08
1.67696e-06
3.32865e-09
-7.78567e-08
1.27094e-06
-8.46824e-08
6.65434e-07
-3.3558e-08
-7.47432e-09
3.36961e-06
-9.02687e-09
-2.54313e-08
3.19482e-06
7.46426e-09
-4.20368e-08
2.95168e-06
1.57153e-08
-5.64418e-08
2.66014e-06
1.61424e-08
-6.90736e-08
2.33362e-06
1.04525e-08
-8.00553e-08
1.97463e-06
2.16921e-09
-8.95269e-08
1.55508e-06
-9.59777e-08
9.1822e-07
-4.48443e-08
-3.59898e-09
3.41515e-06
-1.75981e-08
-2.14865e-08
3.29558e-06
9.76952e-10
-3.97659e-08
3.10486e-06
1.06378e-08
-5.55511e-08
2.86199e-06
1.24781e-08
-6.91873e-08
2.58007e-06
7.63113e-09
-8.08376e-08
2.26134e-06
-1.83407e-10
-9.05095e-08
1.87729e-06
-9.6222e-08
1.26394e-06
-5.42013e-08
2.05479e-11
3.10736e-06
-2.73178e-08
-1.71285e-08
3.10755e-06
-8.57537e-09
-3.47182e-08
3.03071e-06
1.83268e-09
-4.97971e-08
2.89378e-06
4.91045e-09
-6.27029e-08
2.70948e-06
1.83886e-09
-7.37639e-08
2.48028e-06
-3.59751e-09
-8.29879e-08
2.17906e-06
-8.86177e-08
1.64543e-06
-5.45956e-08
2.4752e-06
9.48614e-09
-3.53243e-08
2.6423e-06
-9.57016e-09
-2.04932e-08
2.71871e-06
-2.65526e-08
-1.13432e-08
2.72536e-06
-4.04269e-08
-7.71272e-09
2.67553e-06
-5.21069e-08
-8.94116e-09
2.57218e-06
-6.16633e-08
-1.01208e-08
2.3893e-06
-7.09231e-08
1.97753e-06
-7.9242e-08
3.25318e-08
-2.14079e-08
1.70819e-06
1.05925e-08
4.49461e-08
-2.57276e-08
1.73926e-06
1.10723e-08
5.023e-08
-2.80708e-08
1.69238e-06
1.16555e-08
4.77587e-08
-3.01418e-08
1.58488e-06
1.27444e-08
3.87798e-08
-3.20273e-08
1.42903e-06
1.42683e-08
2.54594e-08
-3.38792e-08
1.22856e-06
1.62893e-08
6.73289e-09
-3.54791e-08
9.68099e-07
1.93737e-08
-3.55136e-08
5.2397e-07
2.4963e-08
3.55519e-08
-3.05749e-08
2.40542e-06
5.04761e-08
-3.91186e-08
2.32785e-06
5.65109e-08
-4.45321e-08
2.18051e-06
5.31775e-08
-4.91003e-08
1.97909e-06
4.17145e-08
-5.29216e-08
1.7353e-06
2.43775e-08
-5.60116e-08
1.45166e-06
1.03661e-09
-5.76369e-08
1.1077e-06
-5.41495e-08
5.51514e-07
3.68766e-08
-3.45178e-08
2.9834e-06
5.48979e-08
-4.70335e-08
2.83574e-06
6.32291e-08
-5.65734e-08
2.62046e-06
6.13442e-08
-6.45327e-08
2.35565e-06
5.00575e-08
-7.11147e-08
2.05338e-06
3.19882e-08
-7.62393e-08
1.71534e-06
6.79233e-09
-7.90817e-08
1.31755e-06
-7.463e-08
6.9272e-07
3.43869e-08
-3.34922e-08
3.33701e-06
5.53764e-08
-4.80934e-08
3.17489e-06
6.63615e-08
-6.122e-08
2.94518e-06
6.7213e-08
-7.21401e-08
2.66674e-06
5.87507e-08
-8.12576e-08
2.35192e-06
4.31725e-08
-8.84842e-08
2.00224e-06
2.01016e-08
-9.3186e-08
1.5925e-06
-9.06827e-08
9.54555e-07
2.54374e-08
-3.02927e-08
3.37738e-06
4.88737e-08
-4.39943e-08
3.26824e-06
6.22707e-08
-5.83449e-08
3.08854e-06
6.59278e-08
-7.04041e-08
2.85633e-06
6.16076e-08
-8.06307e-08
2.58388e-06
5.07955e-08
-8.9163e-08
2.27285e-06
3.21506e-08
-9.56342e-08
1.89852e-06
-9.65655e-08
1.30191e-06
1.54583e-08
-2.50213e-08
3.07063e-06
3.8724e-08
-3.71759e-08
3.07746e-06
5.28731e-08
-4.99943e-08
3.00802e-06
5.87108e-08
-6.09009e-08
2.87825e-06
5.77909e-08
-7.0402e-08
2.70031e-06
5.14295e-08
-7.8927e-08
2.47646e-06
3.75978e-08
-8.627e-08
2.18362e-06
-9.05853e-08
1.677e-06
7.8672e-09
2.44543e-06
-1.40989e-08
2.54349e-08
2.61428e-06
-2.6898e-08
3.78829e-08
2.694e-06
-3.78025e-08
4.4894e-08
2.70411e-06
-4.65374e-08
4.68602e-08
2.65729e-06
-5.39917e-08
4.37844e-08
2.55637e-06
-6.01838e-08
3.50669e-08
2.37923e-06
-6.72073e-08
1.99526e-06
-7.32699e-08
2.60675e-07
-5.06123e-08
1.70594e-06
4.17419e-10
3.0496e-07
-5.28574e-08
1.7466e-06
1.57344e-09
3.35591e-07
-5.48689e-08
1.71393e-06
2.70289e-09
3.4691e-07
-5.70124e-08
1.62675e-06
3.86727e-09
3.34177e-07
-5.95894e-08
1.49663e-06
4.74385e-09
2.95417e-07
-6.26781e-08
1.3251e-06
4.89771e-09
2.25352e-07
-6.61033e-08
1.10058e-06
3.77074e-09
-6.74238e-08
8.16742e-07
1.0532e-10
2.75757e-07
-8.53818e-08
2.38871e-06
3.20037e-07
-8.99442e-08
2.32052e-06
3.52912e-07
-9.47445e-08
2.18747e-06
3.68338e-07
-9.98644e-08
2.00644e-06
3.61382e-07
-1.05751e-07
1.78837e-06
3.2918e-07
-1.12743e-07
1.53391e-06
2.61124e-07
-1.21191e-07
1.23066e-06
-1.29152e-07
8.74352e-07
2.88856e-07
-1.03109e-07
2.95342e-06
3.30664e-07
-1.09914e-07
2.81381e-06
3.62205e-07
-1.17137e-07
2.61134e-06
3.77329e-07
-1.24785e-07
2.36517e-06
3.70794e-07
-1.3309e-07
2.08685e-06
3.39241e-07
-1.42516e-07
1.77644e-06
2.71344e-07
-1.53912e-07
1.41825e-06
-1.66971e-07
1.00215e-06
2.94035e-07
-1.05732e-07
3.2982e-06
3.29809e-07
-1.13393e-07
3.14253e-06
3.55696e-07
-1.21462e-07
2.92354e-06
3.65931e-07
-1.29903e-07
2.66135e-06
3.5517e-07
-1.38802e-07
2.36802e-06
3.19989e-07
-1.48633e-07
2.0432e-06
2.52775e-07
-1.604e-07
1.66668e-06
-1.75292e-07
1.21575e-06
2.85555e-07
-1.00155e-07
3.3361e-06
3.14157e-07
-1.05419e-07
3.23167e-06
3.3253e-07
-1.11811e-07
3.06037e-06
3.35846e-07
-1.18827e-07
2.8418e-06
3.19107e-07
-1.26353e-07
2.58813e-06
2.79164e-07
-1.34798e-07
2.29901e-06
2.1277e-07
-1.45064e-07
1.94957e-06
-1.5829e-07
1.49747e-06
2.68584e-07
-9.11368e-08
3.03436e-06
2.89033e-07
-9.2647e-08
3.04428e-06
2.99663e-07
-9.58158e-08
2.98116e-06
2.96143e-07
-9.99495e-08
2.86281e-06
2.73462e-07
-1.04993e-07
2.70155e-06
2.28753e-07
-1.11407e-07
2.49768e-06
1.63733e-07
-1.20003e-07
2.22343e-06
-1.31255e-07
1.81379e-06
2.41826e-07
2.42022e-06
-8.54616e-08
2.56294e-07
2.59036e-06
-8.3167e-08
2.61712e-07
2.67434e-06
-8.17181e-08
2.53837e-07
2.69348e-06
-8.1451e-08
2.27753e-07
2.66078e-06
-8.25311e-08
1.80296e-07
2.57718e-06
-8.50559e-08
1.17557e-07
2.41309e-06
-9.09927e-08
2.08168e-06
-1.0008e-07
5.15927e-07
-7.34602e-08
4.83167e-10
1.65804e-06
6.27063e-07
-7.25244e-08
6.27702e-09
1.70151e-06
7.18563e-07
-7.55846e-08
1.34937e-08
1.68456e-06
7.7666e-07
-8.00397e-08
2.23983e-08
1.62644e-06
7.8149e-07
-8.51486e-08
3.33792e-08
1.54366e-06
7.00412e-07
-9.02634e-08
4.69625e-08
1.44966e-06
4.74422e-07
-9.41041e-08
6.43384e-08
1.35641e-06
-9.18232e-08
8.74009e-08
1.29548e-06
5.51129e-07
-1.29919e-07
2.32743e-06
6.6254e-07
-1.26408e-07
2.26292e-06
7.55968e-07
-1.27219e-07
2.14556e-06
8.16343e-07
-1.2802e-07
1.99403e-06
8.22272e-07
-1.27697e-07
1.82506e-06
7.37906e-07
-1.24982e-07
1.65304e-06
5.01729e-07
-1.17739e-07
1.49032e-06
-9.79228e-08
1.38215e-06
5.67582e-07
-1.62584e-07
2.8806e-06
6.72388e-07
-1.59476e-07
2.74188e-06
7.63179e-07
-1.5823e-07
2.55143e-06
8.24863e-07
-1.5586e-07
2.33115e-06
8.35228e-07
-1.50969e-07
2.09977e-06
7.548e-07
-1.41989e-07
1.87368e-06
5.16297e-07
-1.25977e-07
1.66519e-06
-9.28323e-08
1.51346e-06
5.70489e-07
-1.70541e-07
3.21805e-06
6.61473e-07
-1.6814e-07
3.05993e-06
7.41885e-07
-1.63916e-07
2.84873e-06
7.97239e-07
-1.57681e-07
2.60769e-06
8.06363e-07
-1.48027e-07
2.35594e-06
7.31013e-07
-1.33386e-07
2.10991e-06
5.00581e-07
-1.10457e-07
1.88195e-06
-7.06211e-08
1.69399e-06
5.52855e-07
-1.59904e-07
3.25394e-06
6.27362e-07
-1.55226e-07
3.14408e-06
6.93644e-07
-1.46428e-07
2.97651e-06
7.39598e-07
-1.35597e-07
2.77374e-06
7.46542e-07
-1.21569e-07
2.55442e-06
6.80311e-07
-1.03131e-07
2.33494e-06
4.66295e-07
-7.7511e-08
2.13029e-06
-3.85767e-08
1.93166e-06
5.20028e-07
-1.38754e-07
2.95616e-06
5.79284e-07
-1.283e-07
2.9581e-06
6.33243e-07
-1.14322e-07
2.89503e-06
6.72133e-07
-9.88392e-08
2.7871e-06
6.80361e-07
-8.13365e-08
2.65267e-06
6.27775e-07
-6.13117e-08
2.50812e-06
4.40343e-07
-3.71417e-08
2.37012e-06
-3.01574e-09
2.21888e-06
4.58291e-07
-1.22093e-07
2.35158e-06
5.10513e-07
-1.00717e-07
2.51051e-06
5.59097e-07
-7.95354e-08
2.59069e-06
5.97967e-07
-5.87455e-08
2.61425e-06
6.14562e-07
-3.69879e-08
2.59947e-06
5.81416e-07
-1.32174e-08
2.56206e-06
4.24053e-07
1.44964e-08
2.51897e-06
4.93142e-08
2.45356e-06
2.3669e-07
-2.15815e-08
5.80008e-06
5.27566e-08
2.22223e-07
9.95736e-09
6.30899e-06
2.27397e-08
2.00413e-07
-5.37513e-09
6.7254e-06
1.41e-08
1.82097e-07
-3.14593e-08
7.03839e-06
1.63768e-08
1.57969e-07
-4.99389e-08
7.26125e-06
2.53873e-08
1.18321e-07
-5.59895e-08
7.39137e-06
3.43363e-08
6.32125e-08
-6.01445e-08
7.37271e-06
4.30844e-08
-6.65975e-08
6.8818e-06
5.15554e-08
5.23616e-07
6.9943e-08
8.0686e-06
5.74864e-07
8.33169e-08
8.26764e-06
5.29712e-07
4.35315e-08
8.43397e-06
4.59251e-07
2.69945e-09
8.57513e-06
3.71381e-07
-2.21407e-08
8.64752e-06
2.6678e-07
-2.74581e-08
8.64434e-06
1.42714e-07
-2.46825e-08
8.49875e-06
-1.94443e-08
7.83869e-06
5.12432e-07
1.63663e-07
9.32834e-06
6.85213e-07
1.2166e-07
9.3189e-06
6.67398e-07
7.96248e-08
9.30137e-06
5.8532e-07
4.60875e-08
9.32052e-06
4.68287e-07
2.86413e-08
9.28445e-06
3.29207e-07
2.81385e-08
9.1849e-06
1.71849e-07
3.70117e-08
8.95028e-06
4.99619e-08
8.18458e-06
4.54118e-07
1.63241e-07
9.0116e-06
5.82639e-07
1.14797e-07
9.0048e-06
5.73272e-07
8.80175e-08
9.02325e-06
5.08163e-07
7.14424e-08
9.02869e-06
4.087e-07
6.7729e-08
8.97396e-06
2.87928e-07
7.4427e-08
8.85451e-06
1.5065e-07
8.87844e-08
8.603e-06
1.08054e-07
7.83483e-06
2.91837e-07
1.1819e-07
7.37545e-06
3.42227e-07
7.91415e-08
7.62147e-06
3.43331e-07
6.88792e-08
7.78906e-06
3.09184e-07
7.02069e-08
7.86167e-06
2.51821e-07
7.76384e-08
7.85941e-06
1.78281e-07
9.02917e-08
7.78331e-06
9.24744e-08
1.07181e-07
7.57579e-06
1.26546e-07
6.89419e-06
1.60157e-07
6.78719e-08
5.50375e-06
1.7987e-07
4.99175e-08
5.86649e-06
1.79853e-07
5.10175e-08
6.10625e-06
1.64341e-07
6.05704e-08
6.24823e-06
1.35899e-07
7.31744e-08
6.31206e-06
9.71081e-08
8.80992e-08
6.29944e-06
5.02194e-08
1.04382e-07
6.16359e-06
1.19939e-07
5.62338e-06
1.02367e-07
3.72315e-06
3.53721e-08
1.09319e-07
4.10687e-06
3.46194e-08
1.05918e-07
4.38438e-06
4.25579e-08
9.5643e-08
4.57317e-06
5.44541e-08
7.91471e-08
4.68761e-06
6.7573e-08
5.72992e-08
4.72861e-06
8.13808e-08
3.10034e-08
4.66065e-06
9.55336e-08
4.26716e-06
1.09148e-07
2.29166e-08
4.01573e-08
5.79598e-06
-4.12194e-08
1.12089e-08
3.87526e-08
6.31835e-06
-3.62981e-08
1.54487e-08
1.10344e-08
6.73462e-06
-2.40216e-08
3.25083e-08
-2.1189e-08
7.04835e-06
-5.67106e-09
4.18151e-08
-3.10583e-08
7.27457e-06
8.67028e-09
3.71183e-08
-3.32006e-08
7.40967e-06
1.97533e-08
2.08016e-08
-3.68124e-08
7.39601e-06
2.98362e-08
-4.41268e-08
6.90703e-06
3.97692e-08
2.2716e-07
8.21338e-08
7.88748e-06
2.06289e-07
5.31066e-08
8.2737e-06
1.87984e-07
1.26499e-08
8.4508e-06
1.71399e-07
-2.11081e-08
8.59154e-06
1.49392e-07
-2.6519e-08
8.6648e-06
1.14475e-07
-1.99716e-08
8.66566e-06
6.38835e-08
-1.27449e-08
8.52518e-06
-8.21374e-09
7.86675e-06
1.95996e-07
6.55282e-08
9.06965e-06
2.39374e-07
2.44419e-08
9.30432e-06
2.35813e-07
-2.43462e-09
9.32022e-06
2.11408e-07
-1.38964e-08
9.33798e-06
1.76518e-07
-7.6777e-09
9.3008e-06
1.30132e-07
6.8127e-09
9.20447e-06
7.07354e-08
2.25615e-08
8.97454e-06
3.69989e-08
8.21001e-06
1.26598e-07
-2.41945e-08
8.92991e-06
1.72419e-07
-2.2045e-08
9.00548e-06
1.77013e-07
-1.93273e-08
9.03579e-06
1.63517e-07
-7.87068e-09
9.03627e-06
1.39573e-07
9.15907e-09
8.98106e-06
1.04702e-07
3.04207e-08
8.86571e-06
5.80752e-08
5.27997e-08
8.61942e-06
7.67374e-08
7.85311e-06
3.11799e-08
-6.68227e-08
7.38726e-06
5.54876e-08
-5.11241e-08
7.62669e-06
6.67189e-08
-2.87146e-08
7.78739e-06
6.90259e-08
-5.00215e-09
7.85666e-06
6.24882e-08
1.86963e-08
7.85654e-06
4.80414e-08
4.25112e-08
7.78589e-06
2.56592e-08
6.63069e-08
7.58473e-06
9.0666e-08
6.90597e-06
3.20145e-08
-5.39659e-08
5.49979e-06
2.97561e-08
-3.85327e-08
5.85626e-06
2.97964e-08
-1.53484e-08
6.09311e-06
2.83747e-08
8.5226e-09
6.23637e-06
2.44514e-08
3.03724e-08
6.30447e-06
1.75432e-08
5.16731e-08
6.29748e-06
8.18197e-09
7.18659e-08
6.16759e-06
9.00757e-08
5.63245e-06
2.72235e-08
3.71129e-06
-2.91682e-08
1.62477e-08
4.09219e-06
-1.29241e-08
1.01289e-08
4.37014e-06
5.08361e-09
6.5789e-09
4.56149e-06
2.38966e-08
4.02135e-09
4.67973e-06
4.1018e-08
2.22972e-09
4.7252e-06
5.71595e-08
1.04367e-09
4.66137e-06
7.25195e-08
4.27156e-06
8.68195e-08
-7.29086e-08
9.20662e-08
5.89156e-06
-1.11114e-07
-5.9869e-08
3.17887e-08
6.34176e-06
-6.88064e-08
-2.13373e-08
3.8572e-09
6.72934e-06
-3.67903e-08
8.25818e-09
-3.54707e-10
7.03425e-06
-1.51021e-08
2.06823e-08
4.08662e-09
7.26056e-06
-2.01392e-09
1.956e-08
1.37605e-09
7.40066e-06
8.98264e-09
1.05627e-08
-6.79417e-09
7.39285e-06
1.91829e-08
-1.95194e-08
6.90741e-06
2.97901e-08
-2.87332e-08
-3.71583e-09
8.21647e-06
-9.36169e-08
-3.3849e-08
8.40387e-06
-6.44036e-08
-4.12046e-08
8.46707e-06
-2.27062e-08
-2.5569e-08
8.57533e-06
1.00395e-08
-4.34042e-09
8.6408e-06
2.4059e-08
7.48579e-09
8.6454e-06
1.95237e-08
1.15552e-08
8.51165e-06
8.66349e-09
7.85826e-06
-1.50207e-07
-1.80948e-07
9.49542e-06
-2.20935e-07
-1.39803e-07
9.48069e-06
-1.80818e-07
-1.00838e-07
9.34006e-06
-1.18777e-07
-6.02556e-08
9.31111e-06
-5.94614e-08
-2.45768e-08