/*--------------------------------*- C++ -*----------------------------------*\
| =========                 |                                                 |
| \\      /  F ield         | OpenFOAM: The Open Source CFD Toolbox           |
|  \\    /   O peration     | Version:  plus.master.MPPICInterFoam            |
|   \\  /    A nd           | Web:      www.OpenFOAM.com                      |
|    \\/     M anipulation  |                                                 |
\*---------------------------------------------------------------------------*/
FoamFile
{
    version     2.0;
    format      ascii;
    class       volScalarField;
    location    "3";
    object      nut;
}
// * * * * * * * * * * * * * * * * * * * * * * * * * * * * * * * * * * * * * //

dimensions      [0 2 -1 0 0 0 0];

internalField   nonuniform List<scalar> 
11821
(
5.8813e-06
3.23006e-05
5.01488e-05
6.05405e-05
6.66016e-05
6.9648e-05
7.02244e-05
6.84895e-05
5.88052e-06
3.22492e-05
5.01061e-05
6.05116e-05
6.65851e-05
6.96422e-05
7.02276e-05
6.84995e-05
5.88074e-06
3.2223e-05
5.00839e-05
6.04962e-05
6.65757e-05
6.96377e-05
7.0227e-05
6.85018e-05
5.88099e-06
3.22112e-05
5.00744e-05
6.04895e-05
6.65713e-05
6.96354e-05
7.02264e-05
6.85026e-05
5.88125e-06
3.22165e-05
5.00795e-05
6.04933e-05
6.65737e-05
6.96366e-05
7.02264e-05
6.85016e-05
5.88153e-06
3.22336e-05
5.00952e-05
6.05046e-05
6.65807e-05
6.96398e-05
7.02265e-05
6.84994e-05
5.882e-06
3.22687e-05
5.01257e-05
6.05266e-05
6.6594e-05
6.96451e-05
7.0225e-05
6.84925e-05
5.87901e-06
3.22904e-05
5.01355e-05
6.05296e-05
6.65949e-05
6.9646e-05
7.0227e-05
6.84957e-05
5.87883e-06
3.22456e-05
5.00983e-05
6.0504e-05
6.65796e-05
6.96396e-05
7.02281e-05
6.85028e-05
5.87905e-06
3.2222e-05
5.00783e-05
6.04899e-05
6.65707e-05
6.96351e-05
7.02271e-05
6.85046e-05
5.87926e-06
3.2211e-05
5.00694e-05
6.04836e-05
6.65665e-05
6.96328e-05
7.02264e-05
6.85054e-05
5.87948e-06
3.22143e-05
5.00728e-05
6.04862e-05
6.65683e-05
6.96337e-05
7.02265e-05
6.85047e-05
5.8797e-06
3.22283e-05
5.00856e-05
6.04956e-05
6.65743e-05
6.96367e-05
7.0227e-05
6.85031e-05
5.87999e-06
3.22563e-05
5.01103e-05
6.05134e-05
6.65856e-05
6.96421e-05
7.02271e-05
6.84986e-05
5.87772e-06
3.22832e-05
5.0127e-05
6.05229e-05
6.65908e-05
6.96447e-05
7.02283e-05
6.84991e-05
5.87775e-06
3.22466e-05
5.00962e-05
6.05011e-05
6.65772e-05
6.96383e-05
7.02281e-05
6.85041e-05
5.87793e-06
3.22258e-05
5.00786e-05
6.04886e-05
6.65691e-05
6.9634e-05
7.0227e-05
6.85056e-05
5.87811e-06
3.22156e-05
5.00702e-05
6.04827e-05
6.65653e-05
6.96319e-05
7.02263e-05
6.85064e-05
5.87829e-06
3.22174e-05
5.00723e-05
6.04844e-05
6.65664e-05
6.96325e-05
7.02264e-05
6.8506e-05
5.87847e-06
3.22284e-05
5.00826e-05
6.04919e-05
6.65713e-05
6.9635e-05
7.0227e-05
6.85048e-05
5.87867e-06
3.22506e-05
5.01022e-05
6.05063e-05
6.65807e-05
6.96398e-05
7.02276e-05
6.85017e-05
5.87697e-06
3.22797e-05
5.01222e-05
6.05188e-05
6.65882e-05
6.96438e-05
7.02289e-05
6.8501e-05
5.87704e-06
3.22499e-05
5.00971e-05
6.05009e-05
6.65767e-05
6.96379e-05
7.0228e-05
6.85045e-05
5.8772e-06
3.22318e-05
5.00819e-05
6.049e-05
6.65696e-05
6.96341e-05
7.0227e-05
6.85058e-05
5.87735e-06
3.22225e-05
5.00743e-05
6.04847e-05
6.65661e-05
6.96322e-05
7.02264e-05
6.85065e-05
5.8775e-06
3.2223e-05
5.00753e-05
6.04856e-05
6.65667e-05
6.96325e-05
7.02265e-05
6.85063e-05
5.87764e-06
3.22316e-05
5.00833e-05
6.04915e-05
6.65706e-05
6.96346e-05
7.0227e-05
6.85054e-05
5.87779e-06
3.22489e-05
5.00988e-05
6.05029e-05
6.65782e-05
6.96386e-05
7.02278e-05
6.85033e-05
5.87652e-06
3.22788e-05
5.01203e-05
6.0517e-05
6.65869e-05
6.96432e-05
7.02291e-05
6.85019e-05
5.87659e-06
3.22544e-05
5.00999e-05
6.05023e-05
6.65773e-05
6.96382e-05
7.0228e-05
6.85044e-05
5.87672e-06
3.22387e-05
5.00867e-05
6.0493e-05
6.65713e-05
6.96349e-05
7.02272e-05
6.85056e-05
5.87684e-06
3.22302e-05
5.00799e-05
6.04882e-05
6.65681e-05
6.96332e-05
7.02267e-05
6.85062e-05
5.87696e-06
3.22298e-05
5.00801e-05
6.04885e-05
6.65683e-05
6.96333e-05
7.02267e-05
6.85062e-05
5.87707e-06
3.22363e-05
5.00861e-05
6.0493e-05
6.65714e-05
6.96349e-05
7.02272e-05
6.85056e-05
5.87718e-06
3.22497e-05
5.00982e-05
6.05019e-05
6.65773e-05
6.96381e-05
7.02279e-05
6.8504e-05
5.87623e-06
3.22793e-05
5.01203e-05
6.05167e-05
6.65866e-05
6.96431e-05
7.02292e-05
6.85023e-05
5.87629e-06
3.22592e-05
5.01035e-05
6.05047e-05
6.65787e-05
6.96389e-05
7.02282e-05
6.85042e-05
5.8764e-06
3.22457e-05
5.00922e-05
6.04967e-05
6.65735e-05
6.9636e-05
7.02275e-05
6.85052e-05
5.8765e-06
3.2238e-05
5.00861e-05
6.04924e-05
6.65707e-05
6.96345e-05
7.0227e-05
6.85058e-05
5.87658e-06
3.22369e-05
5.00855e-05
6.04921e-05
6.65706e-05
6.96345e-05
7.02271e-05
6.85058e-05
5.87666e-06
3.22415e-05
5.009e-05
6.04955e-05
6.65729e-05
6.96357e-05
7.02274e-05
6.85054e-05
5.87674e-06
3.22518e-05
5.00993e-05
6.05024e-05
6.65775e-05
6.96382e-05
7.0228e-05
6.85043e-05
5.87605e-06
3.22806e-05
5.01212e-05
6.05173e-05
6.6587e-05
6.96434e-05
7.02295e-05
6.85025e-05
5.8761e-06
3.22639e-05
5.01073e-05
6.05073e-05
6.65805e-05
6.96398e-05
7.02286e-05
6.8504e-05
5.87618e-06
3.22522e-05
5.00976e-05
6.05005e-05
6.6576e-05
6.96374e-05
7.02279e-05
6.85048e-05
5.87625e-06
3.22453e-05
5.00921e-05
6.04966e-05
6.65735e-05
6.9636e-05
7.02275e-05
6.85053e-05
5.87631e-06
3.22436e-05
5.00911e-05
6.0496e-05
6.65731e-05
6.96359e-05
7.02275e-05
6.85054e-05
5.87637e-06
3.22468e-05
5.00942e-05
6.04984e-05
6.65747e-05
6.96368e-05
7.02278e-05
6.85052e-05
5.87642e-06
3.22546e-05
5.01012e-05
6.05037e-05
6.65783e-05
6.96387e-05
7.02283e-05
6.85044e-05
5.87595e-06
3.22822e-05
5.01226e-05
6.05183e-05
6.65877e-05
6.96439e-05
7.02298e-05
6.85027e-05
5.87598e-06
3.22681e-05
5.01109e-05
6.051e-05
6.65823e-05
6.96409e-05
7.0229e-05
6.85039e-05
5.87603e-06
3.22579e-05
5.01026e-05
6.05041e-05
6.65784e-05
6.96388e-05
7.02283e-05
6.85045e-05
5.87608e-06
3.22517e-05
5.00976e-05
6.05007e-05
6.65762e-05
6.96376e-05
7.0228e-05
6.8505e-05
5.87611e-06
3.22497e-05
5.00963e-05
6.04999e-05
6.65757e-05
6.96373e-05
7.0228e-05
6.85051e-05
5.87614e-06
3.22516e-05
5.00983e-05
6.05014e-05
6.65768e-05
6.9638e-05
7.02282e-05
6.8505e-05
5.87617e-06
3.22575e-05
5.01036e-05
6.05054e-05
6.65795e-05
6.96394e-05
7.02286e-05
6.85045e-05
5.87589e-06
3.22836e-05
5.01239e-05
6.05194e-05
6.65885e-05
6.96444e-05
7.02301e-05
6.85028e-05
5.87589e-06
3.22716e-05
5.01141e-05
6.05124e-05
6.6584e-05
6.96419e-05
7.02294e-05
6.85038e-05
5.87591e-06
3.22627e-05
5.01069e-05
6.05074e-05
6.65807e-05
6.96402e-05
7.02289e-05
6.85044e-05
5.87594e-06
3.22571e-05
5.01025e-05
6.05044e-05
6.65788e-05
6.96391e-05
7.02286e-05
6.85047e-05
5.87595e-06
3.22548e-05
5.01009e-05
6.05034e-05
6.65782e-05
6.96388e-05
7.02285e-05
6.85049e-05
5.87595e-06
3.22559e-05
5.01021e-05
6.05043e-05
6.65788e-05
6.96392e-05
7.02287e-05
6.85048e-05
5.87597e-06
3.22602e-05
5.01061e-05
6.05073e-05
6.65808e-05
6.96403e-05
7.02291e-05
6.85045e-05
5.87584e-06
3.22847e-05
5.01251e-05
6.05204e-05
6.65893e-05
6.9645e-05
7.02304e-05
6.85029e-05
5.87581e-06
3.22743e-05
5.01167e-05
6.05145e-05
6.65855e-05
6.9643e-05
7.023e-05
6.85038e-05
5.87582e-06
3.22666e-05
5.01105e-05
6.05103e-05
6.65828e-05
6.96415e-05
7.02295e-05
6.85043e-05
5.87582e-06
3.22615e-05
5.01066e-05
6.05076e-05
6.6581e-05
6.96405e-05
7.02292e-05
6.85046e-05
5.87581e-06
3.22591e-05
5.01049e-05
6.05065e-05
6.65803e-05
6.96401e-05
7.02291e-05
6.85048e-05
5.87579e-06
3.22594e-05
5.01054e-05
6.05069e-05
6.65807e-05
6.96404e-05
7.02293e-05
6.85048e-05
5.8758e-06
3.22625e-05
5.01083e-05
6.05091e-05
6.65822e-05
6.96412e-05
7.02295e-05
6.85046e-05
5.87579e-06
3.22856e-05
5.01261e-05
6.05213e-05
6.65901e-05
6.96456e-05
7.02308e-05
6.85031e-05
5.87574e-06
3.22765e-05
5.01188e-05
6.05163e-05
6.65869e-05
6.96439e-05
7.02305e-05
6.8504e-05
5.87572e-06
3.22695e-05
5.01134e-05
6.05126e-05
6.65845e-05
6.96426e-05
7.02301e-05
6.85044e-05
5.8757e-06
3.22648e-05
5.01098e-05
6.05101e-05
6.65829e-05
6.96417e-05
7.02298e-05
6.85046e-05
5.87567e-06
3.22623e-05
5.01079e-05
6.05089e-05
6.65821e-05
6.96413e-05
7.02297e-05
6.85048e-05
5.87564e-06
3.2262e-05
5.01079e-05
6.05089e-05
6.65822e-05
6.96413e-05
7.02298e-05
6.85049e-05
5.87563e-06
3.22641e-05
5.011e-05
6.05105e-05
6.65832e-05
6.9642e-05
7.023e-05
6.85048e-05
5.87574e-06
3.22863e-05
5.01268e-05
6.05221e-05
6.65908e-05
6.96461e-05
7.02311e-05
6.85032e-05
5.87566e-06
3.22781e-05
5.01204e-05
6.05177e-05
6.6588e-05
6.96447e-05
7.02309e-05
6.85041e-05
5.87562e-06
3.22717e-05
5.01156e-05
6.05144e-05
6.65858e-05
6.96435e-05
7.02306e-05
6.85045e-05
5.87557e-06
3.22672e-05
5.01122e-05
6.05121e-05
6.65844e-05
6.96427e-05
7.02303e-05
6.85047e-05
5.87551e-06
3.22645e-05
5.01101e-05
6.05107e-05
6.65835e-05
6.96422e-05
7.02303e-05
6.8505e-05
5.87546e-06
3.22636e-05
5.01096e-05
6.05103e-05
6.65833e-05
6.96422e-05
7.02303e-05
6.85051e-05
5.87544e-06
3.22651e-05
5.0111e-05
6.05114e-05
6.6584e-05
6.96426e-05
7.02304e-05
6.85051e-05
5.87569e-06
3.22867e-05
5.01274e-05
6.05226e-05
6.65912e-05
6.96464e-05
7.02313e-05
6.85032e-05
5.87558e-06
3.22792e-05
5.01216e-05
6.05186e-05
6.65887e-05
6.96452e-05
7.02313e-05
6.85043e-05
5.87549e-06
3.22732e-05
5.0117e-05
6.05156e-05
6.65868e-05
6.96442e-05
7.0231e-05
6.85046e-05
5.87542e-06
3.22687e-05
5.01137e-05
6.05133e-05
6.65854e-05
6.96434e-05
7.02308e-05
6.85049e-05
5.87533e-06
3.22657e-05
5.01114e-05
6.05118e-05
6.65844e-05
6.9643e-05
7.02308e-05
6.85053e-05
5.87525e-06
3.22645e-05
5.01105e-05
6.05112e-05
6.6584e-05
6.96428e-05
7.02308e-05
6.85055e-05
5.87522e-06
3.22653e-05
5.01114e-05
6.05119e-05
6.65845e-05
6.9643e-05
7.02309e-05
6.85055e-05
5.87562e-06
3.22869e-05
5.01276e-05
6.05228e-05
6.65914e-05
6.96464e-05
7.02311e-05
6.8503e-05
5.87547e-06
3.22797e-05
5.01222e-05
6.05192e-05
6.65892e-05
6.96456e-05
7.02316e-05
6.85044e-05
5.87535e-06
3.22739e-05
5.01178e-05
6.05163e-05
6.65874e-05
6.96447e-05
7.02314e-05
6.85048e-05
5.87523e-06
3.22694e-05
5.01145e-05
6.05141e-05
6.6586e-05
6.9644e-05
7.02312e-05
6.85052e-05
5.87512e-06
3.22662e-05
5.0112e-05
6.05124e-05
6.6585e-05
6.96435e-05
7.02313e-05
6.85057e-05
5.87502e-06
3.22645e-05
5.01108e-05
6.05116e-05
6.65845e-05
6.96433e-05
7.02313e-05
6.8506e-05
5.87498e-06
3.22649e-05
5.01113e-05
6.05119e-05
6.65847e-05
6.96434e-05
7.02314e-05
6.8506e-05
5.8835e-06
3.23352e-05
5.01863e-05
6.05695e-05
6.66189e-05
6.96536e-05
7.02198e-05
6.8477e-05
5.88472e-06
3.23467e-05
5.01979e-05
6.05782e-05
6.66235e-05
6.96523e-05
7.02137e-05
6.84664e-05
5.88349e-06
3.23404e-05
5.01896e-05
6.0568e-05
6.66004e-05
5.88755e-06
3.23699e-05
5.88392e-06
5.88086e-06
3.23221e-05
5.01691e-05
6.05555e-05
6.66105e-05
6.96515e-05
7.02236e-05
6.84854e-05
5.88163e-06
3.23301e-05
5.01771e-05
6.05616e-05
6.66143e-05
6.96521e-05
7.0221e-05
6.84796e-05
5.8808e-06
3.23273e-05
5.01745e-05
6.05604e-05
6.66105e-05
6.96456e-05
7.02183e-05
6.84811e-05
5.88342e-06
3.2349e-05
5.01944e-05
6.05738e-05
6.66202e-05
6.96517e-05
7.02141e-05
6.8467e-05
5.88064e-06
3.23315e-05
5.0177e-05
6.05608e-05
6.66133e-05
6.9652e-05
7.02222e-05
6.84829e-05
5.88168e-06
3.23408e-05
5.01861e-05
6.05675e-05
6.66173e-05
6.96531e-05
7.02204e-05
6.84783e-05
5.88141e-06
3.23423e-05
5.01869e-05
6.05674e-05
6.66169e-05
6.9653e-05
7.02213e-05
6.84805e-05
5.87917e-06
3.23138e-05
5.0158e-05
6.05463e-05
6.6605e-05
6.96499e-05
7.02255e-05
6.84902e-05
5.87965e-06
3.23194e-05
5.01634e-05
6.05504e-05
6.66073e-05
6.96502e-05
7.02237e-05
6.84863e-05
5.87908e-06
3.23179e-05
5.01618e-05
6.05496e-05
6.66073e-05
6.96507e-05
7.02252e-05
6.84892e-05
5.88083e-06
3.23336e-05
5.01776e-05
6.0561e-05
6.66134e-05
6.96515e-05
7.02201e-05
6.84785e-05
5.87906e-06
3.23222e-05
5.01653e-05
6.05513e-05
6.66077e-05
6.96507e-05
7.02248e-05
6.84886e-05
5.87985e-06
3.23301e-05
5.01729e-05
6.05567e-05
6.66107e-05
6.96511e-05
7.02226e-05
6.8484e-05
5.87992e-06
3.23335e-05
5.01757e-05
6.05584e-05
6.66115e-05
6.96515e-05
7.02231e-05
6.84848e-05
5.87811e-06
3.23085e-05
5.01509e-05
6.05405e-05
6.66014e-05
6.96489e-05
7.02269e-05
6.84935e-05
5.87842e-06
3.23127e-05
5.01549e-05
6.05433e-05
6.6603e-05
6.9649e-05
7.02256e-05
6.84908e-05
5.87807e-06
3.23124e-05
5.01541e-05
6.05426e-05
6.66026e-05
6.96491e-05
7.02264e-05
6.84925e-05
5.87923e-06
3.23231e-05
5.01651e-05
6.05508e-05
6.66072e-05
6.96498e-05
7.02229e-05
6.84851e-05
5.87821e-06
3.23173e-05
5.01586e-05
6.05457e-05
6.66042e-05
6.96495e-05
7.02258e-05
6.84911e-05
5.87878e-06
3.23236e-05
5.01646e-05
6.055e-05
6.66067e-05
6.96501e-05
7.02246e-05
6.84883e-05
5.87897e-06
3.23273e-05
5.0168e-05
6.05522e-05
6.66078e-05
6.96505e-05
7.02246e-05
6.84883e-05
5.87744e-06
3.23052e-05
5.01464e-05
6.05367e-05
6.65991e-05
6.96482e-05
7.02277e-05
6.84955e-05
5.87767e-06
3.23085e-05
5.01495e-05
6.05389e-05
6.66003e-05
6.96483e-05
7.02268e-05
6.84937e-05
5.87748e-06
3.23091e-05
5.01497e-05
6.05389e-05
6.66002e-05
6.96484e-05
7.02272e-05
6.84946e-05
5.87827e-06
3.23166e-05
5.01573e-05
6.05446e-05
6.66035e-05
6.9649e-05
7.02249e-05
6.84896e-05
5.87771e-06
3.23142e-05
5.01543e-05
6.05421e-05
6.66021e-05
6.9649e-05
7.02267e-05
6.84933e-05
5.87814e-06
3.23192e-05
5.01591e-05
6.05456e-05
6.6604e-05
6.96494e-05
7.02257e-05
6.8491e-05
5.87838e-06
3.23229e-05
5.01626e-05
6.05479e-05
6.66053e-05
6.96498e-05
7.02256e-05
6.84905e-05
5.87704e-06
3.23032e-05
5.01437e-05
6.05345e-05
6.65978e-05
6.96479e-05
7.02284e-05
6.8497e-05
5.87722e-06
3.2306e-05
5.01462e-05
6.05362e-05
6.65987e-05
6.9648e-05
7.02277e-05
6.84956e-05
5.87715e-06
3.23072e-05
5.01471e-05
6.05367e-05
6.6599e-05
6.96482e-05
7.0228e-05
6.84961e-05
5.87772e-06
3.23128e-05
5.01527e-05
6.05409e-05
6.66014e-05
6.96486e-05
7.02264e-05
6.84926e-05
5.87745e-06
3.23123e-05
5.01518e-05
6.05401e-05
6.66009e-05
6.96488e-05
7.02274e-05
6.84947e-05
5.87778e-06
3.23163e-05
5.01557e-05
6.05429e-05
6.66025e-05
6.96492e-05
7.02268e-05
6.84931e-05
5.87803e-06
3.23197e-05
5.01589e-05
6.0545e-05
6.66037e-05
6.96496e-05
7.02266e-05
6.84925e-05
5.87681e-06
3.23022e-05
5.01422e-05
6.05333e-05
6.65971e-05
6.96479e-05
7.0229e-05
6.8498e-05
5.87698e-06
3.23047e-05
5.01444e-05
6.05348e-05
6.6598e-05
6.9648e-05
7.02285e-05
6.84969e-05
5.87701e-06
3.23062e-05
5.01457e-05
6.05356e-05
6.65984e-05
6.96482e-05
7.02286e-05
6.84971e-05
5.87743e-06
3.23106e-05
5.015e-05
6.05388e-05
6.66003e-05
6.96486e-05
7.02275e-05
6.84947e-05
5.87734e-06
3.23112e-05
5.01503e-05
6.05389e-05
6.66003e-05
6.96488e-05
7.02281e-05
6.84958e-05
5.87761e-06
3.23145e-05
5.01535e-05
6.05412e-05
6.66017e-05
6.96493e-05
7.02276e-05
6.84946e-05
5.87782e-06
3.23175e-05
5.01563e-05
6.05431e-05
6.66027e-05
6.96496e-05
7.02274e-05
6.8494e-05
5.87669e-06
3.23016e-05
5.01415e-05
6.05327e-05
6.65969e-05
6.9648e-05
7.02294e-05
6.84987e-05
5.87687e-06
3.2304e-05
5.01436e-05
6.05341e-05
6.65977e-05
6.96481e-05
7.0229e-05
6.84978e-05
5.87697e-06
3.23058e-05
5.01451e-05
6.05351e-05
6.65982e-05
6.96484e-05
7.0229e-05
6.84978e-05
5.87731e-06
3.23093e-05
5.01485e-05
6.05376e-05
6.65996e-05
6.96487e-05
7.02282e-05
6.8496e-05
5.87733e-06
3.23106e-05
5.01495e-05
6.05382e-05
6.66e-05
6.96489e-05
7.02285e-05
6.84965e-05
5.87755e-06
3.23133e-05
5.01521e-05
6.05401e-05
6.66011e-05
6.96492e-05
7.02282e-05
6.84956e-05
5.87773e-06
3.23158e-05
5.01544e-05
6.05417e-05
6.66019e-05
6.96495e-05
7.0228e-05
6.84951e-05
5.87663e-06
3.23014e-05
5.01411e-05
6.05324e-05
6.65968e-05
6.96481e-05
7.02298e-05
6.84991e-05
5.87684e-06
3.23037e-05
5.01431e-05
6.05338e-05
6.65975e-05
6.96483e-05
7.02294e-05
6.84984e-05
5.87699e-06
3.23057e-05
5.01448e-05
6.05349e-05
6.65981e-05
6.96485e-05
7.02293e-05
6.84982e-05
5.8773e-06
3.23087e-05
5.01476e-05
6.05369e-05
6.65993e-05
6.96487e-05
7.02287e-05
6.84968e-05
5.87738e-06
3.23102e-05
5.01489e-05
6.05377e-05
6.65997e-05
6.96489e-05
7.02287e-05
6.84968e-05
5.87756e-06
3.23125e-05
5.01511e-05
6.05392e-05
6.66005e-05
6.96491e-05
7.02284e-05
6.84962e-05
5.87771e-06
3.23145e-05
5.01529e-05
6.05405e-05
6.66012e-05
6.96493e-05
7.02283e-05
6.84957e-05
5.8766e-06
3.23012e-05
5.01408e-05
6.05322e-05
6.65968e-05
6.96483e-05
7.02301e-05
6.84995e-05
5.87686e-06
3.23035e-05
5.01428e-05
6.05336e-05
6.65975e-05
6.96484e-05
7.02297e-05
6.84988e-05
5.87705e-06
3.23056e-05
5.01446e-05
6.05347e-05
6.65981e-05
6.96485e-05
7.02295e-05
6.84984e-05
5.87734e-06
3.23082e-05
5.01471e-05
6.05364e-05
6.6599e-05
6.96487e-05
7.02289e-05
6.84973e-05
5.87747e-06
3.23099e-05
5.01485e-05
6.05373e-05
6.65994e-05
6.96488e-05
7.02288e-05
6.84971e-05
5.87763e-06
3.23118e-05
5.01502e-05
6.05385e-05
6.66001e-05
6.9649e-05
7.02286e-05
6.84966e-05
5.87774e-06
3.23134e-05
5.01517e-05
6.05394e-05
6.66006e-05
6.96491e-05
7.02284e-05
6.84962e-05
5.87659e-06
3.2301e-05
5.01405e-05
6.0532e-05
6.65968e-05
6.96485e-05
7.02304e-05
6.85e-05
5.87689e-06
3.23034e-05
5.01427e-05
6.05334e-05
6.65975e-05
6.96486e-05
7.023e-05
6.84992e-05
5.87714e-06
3.23056e-05
5.01446e-05
6.05347e-05
6.65981e-05
6.96487e-05
7.02297e-05
6.84987e-05
5.87743e-06
3.23081e-05
5.01468e-05
6.05362e-05
6.65989e-05
6.96488e-05
7.02292e-05
6.84977e-05
5.87759e-06
3.23097e-05
5.01482e-05
6.05371e-05
6.65993e-05
6.96488e-05
7.0229e-05
6.84974e-05
5.87773e-06
3.23113e-05
5.01496e-05
6.0538e-05
6.65998e-05
6.96489e-05
7.02288e-05
6.8497e-05
5.87782e-06
3.23126e-05
5.01507e-05
6.05387e-05
6.66002e-05
6.9649e-05
7.02287e-05
6.84967e-05
5.87658e-06
3.23008e-05
5.01403e-05
6.05319e-05
6.65968e-05
6.96487e-05
7.02308e-05
6.85005e-05
5.87693e-06
3.23034e-05
5.01426e-05
6.05334e-05
6.65976e-05
6.96488e-05
7.02304e-05
6.84997e-05
5.87724e-06
3.23057e-05
5.01446e-05
6.05348e-05
6.65983e-05
6.9649e-05
7.02301e-05
6.84991e-05
5.87755e-06
3.23081e-05
5.01468e-05
6.05362e-05
6.6599e-05
6.9649e-05
7.02296e-05
6.84982e-05
5.87774e-06
3.23098e-05
5.01482e-05
6.05371e-05
6.65994e-05
6.9649e-05
7.02293e-05
6.84978e-05
5.87787e-06
3.23112e-05
5.01494e-05
6.05378e-05
6.65998e-05
6.96491e-05
7.02292e-05
6.84976e-05
5.87793e-06
3.23121e-05
5.01502e-05
6.05383e-05
6.66e-05
6.96492e-05
7.02291e-05
6.84974e-05
5.87658e-06
3.23008e-05
5.01401e-05
6.05318e-05
6.65969e-05
6.96489e-05
7.02312e-05
6.8501e-05
5.87699e-06
3.23035e-05
5.01426e-05
6.05335e-05
6.65978e-05
6.96491e-05
7.02308e-05
6.85003e-05
5.87735e-06
3.2306e-05
5.01448e-05
6.05349e-05
6.65985e-05
6.96493e-05
7.02305e-05
6.84997e-05
5.8777e-06
3.23084e-05
5.01469e-05
6.05363e-05
6.65992e-05
6.96493e-05
7.023e-05
6.84988e-05
5.87792e-06
3.231e-05
5.01484e-05
6.05372e-05
6.65996e-05
6.96493e-05
7.02297e-05
6.84983e-05
5.87804e-06
3.23113e-05
5.01494e-05
6.05378e-05
6.65999e-05
6.96494e-05
7.02297e-05
6.84982e-05
5.87809e-06
3.2312e-05
5.015e-05
6.05382e-05
6.66e-05
6.96494e-05
7.02296e-05
6.84981e-05
5.87659e-06
3.23007e-05
5.014e-05
6.05317e-05
6.65969e-05
6.96491e-05
7.02315e-05
6.85014e-05
5.87707e-06
3.23037e-05
5.01427e-05
6.05335e-05
6.65979e-05
6.96494e-05
7.02313e-05
6.85009e-05
5.87749e-06
3.23064e-05
5.01451e-05
6.05351e-05
6.65987e-05
6.96496e-05
7.02309e-05
6.85002e-05
5.87788e-06
3.23088e-05
5.01472e-05
6.05365e-05
6.65994e-05
6.96496e-05
7.02304e-05
6.84993e-05
5.87813e-06
3.23105e-05
5.01487e-05
6.05374e-05
6.65998e-05
6.96496e-05
7.02301e-05
6.84988e-05
5.87826e-06
3.23116e-05
5.01496e-05
6.05379e-05
6.66e-05
6.96497e-05
7.02301e-05
6.84988e-05
5.87829e-06
3.23121e-05
5.015e-05
6.05381e-05
6.66001e-05
6.96497e-05
7.023e-05
6.84987e-05
5.88781e-06
5.89783e-06
3.24795e-05
5.88921e-06
3.24036e-05
5.02544e-05
6.06174e-05
6.66507e-05
5.88939e-06
3.23937e-05
5.02436e-05
6.06097e-05
6.66412e-05
6.96593e-05
7.02094e-05
6.84537e-05
5.88321e-06
3.23322e-05
5.01804e-05
6.05633e-05
6.66146e-05
6.96526e-05
7.02227e-05
6.84837e-05
5.88197e-06
3.23513e-05
5.01958e-05
6.05736e-05
6.66201e-05
6.96537e-05
7.02201e-05
6.84781e-05
5.88592e-06
3.2387e-05
5.02321e-05
6.06001e-05
6.6635e-05
6.96569e-05
7.0212e-05
6.84604e-05
5.88456e-06
3.23749e-05
5.02212e-05
6.05923e-05
6.66304e-05
6.96558e-05
7.02151e-05
6.84679e-05
5.89096e-06
3.24258e-05
5.02742e-05
6.06319e-05
6.66531e-05
6.966e-05
7.01999e-05
6.8435e-05
5.88512e-06
3.23751e-05
5.02207e-05
6.05908e-05
6.66297e-05
6.96576e-05
7.02173e-05
6.84707e-05
5.88507e-06
3.23648e-05
5.02104e-05
6.05841e-05
6.66258e-05
6.96543e-05
7.02151e-05
6.84679e-05
5.88054e-06
3.23182e-05
5.01626e-05
6.05491e-05
6.66061e-05
6.96501e-05
7.02256e-05
6.84906e-05
5.88033e-06
3.23402e-05
5.01824e-05
6.05631e-05
6.66141e-05
6.96525e-05
7.0223e-05
6.84843e-05
5.88331e-06
3.23665e-05
5.0209e-05
6.05823e-05
6.66246e-05
6.96541e-05
7.02162e-05
6.84702e-05
5.88234e-06
3.23589e-05
5.02018e-05
6.0577e-05
6.66216e-05
6.96539e-05
7.02193e-05
6.84768e-05
5.88634e-06
3.23916e-05
5.02354e-05
6.0602e-05
6.66359e-05
6.96563e-05
7.02092e-05
6.8455e-05
5.88234e-06
3.23546e-05
5.01974e-05
6.05735e-05
6.66193e-05
6.96531e-05
7.022e-05
6.84786e-05
5.88214e-06
3.23443e-05
5.01871e-05
6.05664e-05
6.66157e-05
6.96519e-05
7.02198e-05
6.84783e-05
5.87882e-06
3.23091e-05
5.0151e-05
6.05397e-05
6.66004e-05
6.96483e-05
7.02271e-05
6.84947e-05
5.87927e-06
3.23324e-05
5.0173e-05
6.05556e-05
6.66096e-05
6.9651e-05
7.02241e-05
6.84873e-05
5.8814e-06
3.23513e-05
5.01921e-05
6.05695e-05
6.66172e-05
6.96524e-05
7.02196e-05
6.84777e-05
5.88065e-06
3.23457e-05
5.01866e-05
6.05653e-05
6.66148e-05
6.96521e-05
7.0222e-05
6.84828e-05
5.88328e-06
3.23661e-05
5.02077e-05
6.05811e-05
6.66239e-05
6.96535e-05
7.02151e-05
6.84682e-05
5.88048e-06
3.23397e-05
5.01806e-05
6.05609e-05
6.66122e-05
6.96514e-05
7.02229e-05
6.8485e-05
5.88017e-06
3.23301e-05
5.0171e-05
6.0554e-05
6.66084e-05
6.96499e-05
7.02227e-05
6.84851e-05
5.87771e-06
3.23033e-05
5.01436e-05
6.05337e-05
6.65968e-05
6.96471e-05
7.0228e-05
6.84972e-05
5.87861e-06
3.23267e-05
5.01663e-05
6.05505e-05
6.66066e-05
6.96502e-05
7.02254e-05
6.849e-05
5.88011e-06
3.234e-05
5.01798e-05
6.05602e-05
6.66119e-05
6.96511e-05
7.0222e-05
6.8483e-05
5.87954e-06
3.23358e-05
5.01756e-05
6.0557e-05
6.661e-05
6.96509e-05
7.02239e-05
6.8487e-05
5.88121e-06
3.2348e-05
5.01883e-05
6.05665e-05
6.66155e-05
6.96517e-05
7.02194e-05
6.84776e-05
5.87924e-06
3.23292e-05
5.01689e-05
6.0552e-05
6.66072e-05
6.96501e-05
7.02247e-05
6.84892e-05
5.87885e-06
3.23204e-05
5.01601e-05
6.05456e-05
6.66036e-05
6.96488e-05
7.02249e-05
6.849e-05
5.87701e-06
3.22996e-05
5.01389e-05
6.053e-05
6.65946e-05
6.96464e-05
7.02287e-05
6.84988e-05
5.87819e-06
3.23225e-05
5.01616e-05
6.05469e-05
6.66046e-05
6.96498e-05
7.02263e-05
6.8492e-05
5.87923e-06
3.23319e-05
5.0171e-05
6.05537e-05
6.66083e-05
6.96505e-05
7.0224e-05
6.84871e-05
5.87881e-06
3.23287e-05
5.01678e-05
6.05511e-05
6.66068e-05
6.96503e-05
7.02254e-05
6.84902e-05
5.87982e-06
3.23355e-05
5.01749e-05
6.05566e-05
6.66099e-05
6.96506e-05
7.02225e-05
6.84842e-05
5.87842e-06
3.23218e-05
5.01609e-05
6.0546e-05
6.66039e-05
6.96494e-05
7.02263e-05
6.84924e-05
5.87797e-06
3.23137e-05
5.01528e-05
6.05402e-05
6.66006e-05
6.96482e-05
7.02266e-05
6.84935e-05
5.87657e-06
3.22974e-05
5.01363e-05
6.0528e-05
6.65935e-05
6.96461e-05
7.02292e-05
6.84999e-05
5.87795e-06
3.23196e-05
5.01584e-05
6.05445e-05
6.66034e-05
6.96497e-05
7.02273e-05
6.84937e-05
5.87865e-06
3.2326e-05
5.01647e-05
6.05491e-05
6.66059e-05
6.96501e-05
7.02256e-05
6.84902e-05
5.87834e-06
3.23235e-05
5.01622e-05
6.05471e-05
6.66047e-05
6.96499e-05
7.02265e-05
6.84925e-05
5.8789e-06
3.23268e-05
5.01658e-05
6.05498e-05
6.66062e-05
6.965e-05
7.02248e-05
6.84888e-05
5.87788e-06
3.23166e-05
5.01554e-05
6.0542e-05
6.66017e-05
6.9649e-05
7.02274e-05
6.84947e-05
5.87739e-06
3.23092e-05
5.0148e-05
6.05367e-05
6.65987e-05
6.96479e-05
7.02278e-05
6.84959e-05
5.87632e-06
3.22963e-05
5.01349e-05
6.0527e-05
6.6593e-05
6.96462e-05
7.02296e-05
6.85007e-05
5.87782e-06
3.23175e-05
5.0156e-05
6.05427e-05
6.66024e-05
6.96496e-05
7.02279e-05
6.84949e-05
5.87829e-06
3.23216e-05
5.01602e-05
6.05457e-05
6.66041e-05
6.96498e-05
7.02267e-05
6.84924e-05
5.87805e-06
3.23197e-05
5.01582e-05
6.05442e-05
6.66031e-05
6.96496e-05
7.02273e-05
6.8494e-05
5.87831e-06
3.23207e-05
5.01594e-05
6.05451e-05
6.66037e-05
6.96495e-05
7.02263e-05
6.8492e-05
5.87753e-06
3.23129e-05
5.01515e-05
6.05392e-05
6.66002e-05
6.96488e-05
7.02282e-05
6.84962e-05
5.87703e-06
3.23062e-05
5.01448e-05
6.05343e-05
6.65975e-05
6.96478e-05
7.02287e-05
6.84976e-05
5.87617e-06
3.22956e-05
5.01342e-05
6.05265e-05
6.65929e-05
6.96463e-05
7.023e-05
6.85011e-05
5.87778e-06
3.23157e-05
5.01541e-05
6.05413e-05
6.66016e-05
6.96494e-05
7.02282e-05
6.84956e-05
5.87807e-06
3.23184e-05
5.01568e-05
6.05432e-05
6.66026e-05
6.96495e-05
7.02274e-05
6.84939e-05
5.87788e-06
3.23168e-05
5.01552e-05
6.05419e-05
6.66018e-05
6.96493e-05
7.02278e-05
6.84951e-05
5.87793e-06
3.23164e-05
5.01549e-05
6.05418e-05
6.66018e-05
6.96491e-05
7.02273e-05
6.84941e-05
5.8773e-06
3.23101e-05
5.01486e-05
6.05371e-05
6.65991e-05
6.96485e-05
7.02287e-05
6.84972e-05
5.8768e-06
3.2304e-05
5.01426e-05
6.05328e-05
6.65966e-05
6.96477e-05
7.02292e-05
6.84986e-05
5.87607e-06
3.22953e-05
5.01339e-05
6.05264e-05
6.65929e-05
6.96465e-05
7.02303e-05
6.85014e-05
5.87779e-06
3.23143e-05
5.01525e-05
6.054e-05
6.66009e-05
6.96492e-05
7.02284e-05
6.84961e-05
5.87796e-06
3.23159e-05
5.01542e-05
6.05412e-05
6.66015e-05
6.96493e-05
7.02279e-05
6.8495e-05
5.87779e-06
3.23145e-05
5.01528e-05
6.05402e-05
6.66009e-05
6.96491e-05
7.02282e-05
6.84958e-05
5.87771e-06
3.23133e-05
5.01517e-05
6.05395e-05
6.66005e-05
6.96489e-05
7.0228e-05
6.84955e-05
5.87716e-06
3.2308e-05
5.01465e-05
6.05356e-05
6.65983e-05
6.96484e-05
7.02291e-05
6.8498e-05
5.87666e-06
3.23025e-05
5.0141e-05
6.05317e-05
6.65961e-05
6.96477e-05
7.02297e-05
6.84994e-05
5.87601e-06
3.22951e-05
5.01337e-05
6.05265e-05
6.65931e-05
6.96468e-05
7.02306e-05
6.85017e-05
5.87785e-06
3.23133e-05
5.01514e-05
6.05392e-05
6.66004e-05
6.96491e-05
7.02287e-05
6.84967e-05
5.87793e-06
3.23141e-05
5.01523e-05
6.05398e-05
6.66008e-05
6.96492e-05
7.02284e-05
6.8496e-05
5.87776e-06
3.23128e-05
5.01511e-05
6.0539e-05
6.66003e-05
6.96491e-05
7.02286e-05
6.84966e-05
5.87758e-06
3.23111e-05
5.01495e-05
6.05379e-05
6.65997e-05
6.96489e-05
7.02287e-05
6.84967e-05
5.87707e-06
3.23065e-05
5.0145e-05
6.05347e-05
6.65979e-05
6.96485e-05
7.02296e-05
6.84987e-05
5.87657e-06
3.23015e-05
5.01401e-05
6.05312e-05
6.6596e-05
6.96479e-05
7.02302e-05
6.85001e-05
5.87596e-06
3.2295e-05
5.01338e-05
6.05267e-05
6.65934e-05
6.96471e-05
7.02309e-05
6.8502e-05
5.87795e-06
3.23126e-05
5.01506e-05
6.05386e-05
6.66002e-05
6.96492e-05
7.02291e-05
6.84974e-05
5.87796e-06
3.23129e-05
5.01511e-05
6.0539e-05
6.66004e-05
6.96493e-05
7.02289e-05
6.8497e-05
5.87779e-06
3.23116e-05
5.01499e-05
6.05382e-05
6.66e-05
6.96492e-05
7.02292e-05
6.84975e-05
5.87754e-06
3.23096e-05
5.0148e-05
6.05369e-05
6.65993e-05
6.96491e-05
7.02294e-05
6.84978e-05
5.87704e-06
3.23055e-05
5.0144e-05
6.05341e-05
6.65978e-05
6.96487e-05
7.02301e-05
6.84995e-05
5.87651e-06
3.23008e-05
5.01395e-05
6.05308e-05
6.6596e-05
6.96482e-05
7.02307e-05
6.85008e-05
5.87592e-06
3.2295e-05
5.01339e-05
6.05269e-05
6.65937e-05
6.96475e-05
7.02313e-05
6.85024e-05
5.87809e-06
3.23123e-05
5.01502e-05
6.05383e-05
6.66001e-05
6.96495e-05
7.02296e-05
6.84981e-05
5.87805e-06
3.23122e-05
5.01503e-05
6.05384e-05
6.66002e-05
6.96495e-05
7.02295e-05
6.84979e-05
5.87786e-06
3.23109e-05
5.01491e-05
6.05377e-05
6.65998e-05
6.96494e-05
7.02297e-05
6.84982e-05
5.87755e-06
3.23087e-05
5.0147e-05
6.05363e-05
6.65991e-05
6.96493e-05
7.023e-05
6.84988e-05
5.87704e-06
3.23048e-05
5.01433e-05
6.05336e-05
6.65977e-05
6.96489e-05
7.02306e-05
6.85002e-05
5.87649e-06
3.23004e-05
5.0139e-05
6.05306e-05
6.6596e-05
6.96485e-05
7.02311e-05
6.85014e-05
5.87589e-06
3.2295e-05
5.01339e-05
6.0527e-05
6.6594e-05
6.96478e-05
7.02317e-05
6.85028e-05
5.87827e-06
3.23122e-05
5.01501e-05
6.05382e-05
6.66001e-05
6.96497e-05
7.023e-05
6.84987e-05
5.87819e-06
3.23119e-05
5.01498e-05
6.05381e-05
6.66001e-05
6.96496e-05
7.02299e-05
6.84985e-05
5.87797e-06
3.23105e-05
5.01486e-05
6.05373e-05
6.65997e-05
6.96495e-05
7.02301e-05
6.84988e-05
5.87761e-06
3.23081e-05
5.01464e-05
6.05358e-05
6.65989e-05
6.96494e-05
7.02304e-05
6.84994e-05
5.87707e-06
3.23043e-05
5.01428e-05
6.05333e-05
6.65975e-05
6.96491e-05
7.0231e-05
6.85008e-05
5.87648e-06
3.23e-05
5.01386e-05
6.05304e-05
6.65959e-05
6.96486e-05
7.02315e-05
6.8502e-05
5.87585e-06
3.22948e-05
5.01338e-05
6.0527e-05
6.6594e-05
6.9648e-05
7.0232e-05
6.85031e-05
5.88266e-06
3.22996e-05
5.01524e-05
6.05445e-05
6.6604e-05
6.96486e-05
7.02236e-05
6.84877e-05
5.88651e-06
3.23412e-05
5.01943e-05
6.05754e-05
6.66218e-05
6.96529e-05
7.02151e-05
6.84684e-05
5.88638e-06
3.23488e-05
5.02028e-05
6.05818e-05
6.66256e-05
6.96551e-05
7.02171e-05
6.84714e-05
5.89153e-06
3.23952e-05
5.02509e-05
6.06182e-05
6.66467e-05
6.9659e-05
7.02028e-05
6.844e-05
5.88593e-06
3.23531e-05
5.0207e-05
6.05852e-05
6.66279e-05
6.96564e-05
7.02175e-05
6.84711e-05
5.88718e-06
3.23631e-05
5.0216e-05
6.05917e-05
6.66316e-05
6.96566e-05
7.02136e-05
6.8463e-05
5.88373e-06
3.23367e-05
5.01884e-05
6.05712e-05
6.662e-05
6.96543e-05
7.02204e-05
6.84776e-05
5.88033e-06
3.22822e-05
5.01335e-05
6.053e-05
6.65955e-05
6.96462e-05
7.02266e-05
6.8495e-05
5.88265e-06
3.23192e-05
5.01677e-05
6.05544e-05
6.66094e-05
6.96497e-05
7.02205e-05
6.84808e-05
5.88271e-06
3.23269e-05
5.01759e-05
6.05605e-05
6.6613e-05
6.96516e-05
7.02217e-05
6.84822e-05
5.8862e-06
3.2359e-05
5.02093e-05
6.05859e-05
6.66279e-05
6.96547e-05
7.02125e-05
6.84616e-05
5.88255e-06
3.23329e-05
5.01818e-05
6.0565e-05
6.66159e-05
6.9653e-05
7.02219e-05
6.84816e-05
5.88342e-06
3.23403e-05
5.01887e-05
6.05702e-05
6.66189e-05
6.96532e-05
7.02188e-05
6.84749e-05
5.88103e-06
3.2323e-05
5.01704e-05
6.05565e-05
6.66112e-05
6.9652e-05
7.0224e-05
6.84859e-05
5.87889e-06
3.22727e-05
5.0122e-05
6.05205e-05
6.65895e-05
6.9644e-05
7.02279e-05
6.8499e-05
5.88007e-06
3.23047e-05
5.01503e-05
6.05407e-05
6.66013e-05
6.96478e-05
7.02243e-05
6.84892e-05
5.88026e-06
3.23125e-05
5.01583e-05
6.05466e-05
6.66049e-05
6.96494e-05
7.0225e-05
6.84897e-05
5.88264e-06
3.2335e-05
5.01817e-05
6.05643e-05
6.66152e-05
6.96515e-05
7.02184e-05
6.84751e-05
5.88032e-06
3.23196e-05
5.01653e-05
6.05519e-05
6.66081e-05
6.96509e-05
7.02249e-05
6.84885e-05
5.88091e-06
3.23251e-05
5.01705e-05
6.05558e-05
6.66104e-05
6.96511e-05
7.02226e-05
6.84836e-05
5.8793e-06
3.23142e-05
5.01587e-05
6.05469e-05
6.66054e-05
6.96502e-05