/*--------------------------------*- C++ -*----------------------------------*\
| =========                 |                                                 |
| \\      /  F ield         | OpenFOAM: The Open Source CFD Toolbox           |
|  \\    /   O peration     | Version:  plus.master.MPPICInterFoam            |
|   \\  /    A nd           | Web:      www.OpenFOAM.com                      |
|    \\/     M anipulation  |                                                 |
\*---------------------------------------------------------------------------*/
FoamFile
{
    version     2.0;
    format      ascii;
    class       volVectorField;
    location    "3";
    object      U;
}
// * * * * * * * * * * * * * * * * * * * * * * * * * * * * * * * * * * * * * //

dimensions      [0 1 -1 0 0 0 0];

internalField   nonuniform List<vector> 
11821
(
(0.000399579 0.000499369 -0.0281626)
(0.000360952 0.000461398 -0.0291662)
(0.000332278 0.000440395 -0.0293262)
(0.000307372 0.000424694 -0.029358)
(0.000285664 0.000410586 -0.0293546)
(0.000267409 0.000396433 -0.0293397)
(0.000252564 0.000381263 -0.0293212)
(0.000240887 0.000364528 -0.0293024)
(0.000251172 0.000480991 -0.0282571)
(0.000239012 0.000434172 -0.0292637)
(0.000227366 0.000406226 -0.0294274)
(0.000214506 0.00038541 -0.0294639)
(0.000201414 0.000368364 -0.029466)
(0.00018928 0.000353453 -0.0294571)
(0.000178646 0.000339644 -0.0294449)
(0.000169705 0.00032625 -0.0294323)
(0.000110434 0.000377366 -0.0283185)
(0.000118329 0.000338661 -0.0293264)
(0.000117637 0.000313434 -0.0294906)
(0.000111753 0.000293122 -0.0295273)
(0.000102734 0.000275758 -0.0295294)
(9.2766e-05 0.000260414 -0.0295202)
(8.31904e-05 0.00024647 -0.0295073)
(7.46734e-05 0.000233511 -0.0294937)
(2.68613e-05 0.000228392 -0.028351)
(4.66515e-05 0.000205907 -0.0293597)
(5.35268e-05 0.000189585 -0.0295242)
(5.34804e-05 0.000175295 -0.029561)
(4.89865e-05 0.000162454 -0.0295632)
(4.2568e-05 0.000150977 -0.0295541)
(3.58282e-05 0.00014074 -0.0295414)
(2.96176e-05 0.0001316 -0.029528)
(1.08835e-05 6.50201e-05 -0.0283538)
(3.06675e-05 6.09279e-05 -0.0293623)
(3.77246e-05 5.50783e-05 -0.029526)
(3.83033e-05 4.81659e-05 -0.0295618)
(3.46823e-05 4.09339e-05 -0.0295628)
(2.9275e-05 3.41431e-05 -0.0295525)
(2.36421e-05 2.81986e-05 -0.0295385)
(1.86173e-05 2.32462e-05 -0.0295239)
(6.22629e-05 -7.99319e-05 -0.028331)
(7.31433e-05 -6.92182e-05 -0.0293386)
(7.60287e-05 -6.72309e-05 -0.0295015)
(7.47213e-05 -6.90113e-05 -0.0295365)
(7.07863e-05 -7.25416e-05 -0.0295367)
(6.60085e-05 -7.62935e-05 -0.0295255)
(6.14447e-05 -7.94124e-05 -0.029511)
(5.76107e-05 -8.14664e-05 -0.0294961)
(0.000149068 -0.000169631 -0.0282814)
(0.000142652 -0.000155157 -0.0292873)
(0.000134711 -0.000151496 -0.0294473)
(0.000126008 -0.000151615 -0.0294787)
(0.000117111 -0.000152924 -0.0294746)
(0.000109092 -0.000153644 -0.0294589)
(0.000102572 -0.000152797 -0.0294396)
(9.78194e-05 -0.000149875 -0.02942)
(0.000344618 0.000427285 -0.0280966)
(0.000314229 0.000391934 -0.0291)
(0.000292347 0.000371375 -0.0292626)
(0.000273264 0.000355835 -0.0292987)
(0.000256303 0.000342324 -0.0293008)
(0.000241508 0.000329518 -0.0292924)
(0.000228811 0.000316614 -0.0292807)
(0.000218038 0.000303102 -0.0292687)
(0.000219028 0.000416557 -0.028175)
(0.00021139 0.000374508 -0.0291808)
(0.000204071 0.000348715 -0.0293465)
(0.000195352 0.000329265 -0.0293864)
(0.000185733 0.000313444 -0.0293931)
(0.000176088 0.000299918 -0.0293896)
(0.000166868 0.000287806 -0.0293831)
(0.000158199 0.000276527 -0.0293762)
(9.94109e-05 0.000334658 -0.0282276)
(0.000109634 0.000299606 -0.0292347)
(0.000112434 0.000276585 -0.029401)
(0.000110314 0.000258092 -0.0294414)
(0.0001047 0.000242438 -0.0294483)
(9.72865e-05 0.000228827 -0.0294449)
(8.9152e-05 0.000216702 -0.0294382)
(8.08821e-05 0.000205664 -0.0294308)
(2.55454e-05 0.000210987 -0.0282564)
(4.66399e-05 0.000190354 -0.0292641)
(5.63715e-05 0.000175486 -0.0294308)
(5.95396e-05 0.000162556 -0.0294713)
(5.79638e-05 0.000150977 -0.0294785)
(5.3647e-05 0.000140639 -0.0294753)
(4.79127e-05 0.000131405 -0.0294689)
(4.14988e-05 0.000123128 -0.0294617)
(8.51849e-06 7.26676e-05 -0.0282602)
(3.02311e-05 6.8721e-05 -0.0292678)
(4.05215e-05 6.36285e-05 -0.0294338)
(4.44975e-05 5.76238e-05 -0.0294736)
(4.38425e-05 5.12124e-05 -0.0294798)
(4.05028e-05 4.49843e-05 -0.0294756)
(3.57757e-05 3.92505e-05 -0.0294681)
(3.04112e-05 3.41396e-05 -0.02946)
(4.84704e-05 -5.11943e-05 -0.0282422)
(6.28046e-05 -4.13294e-05 -0.0292491)
(6.94545e-05 -3.86723e-05 -0.0294144)
(7.168e-05 -3.93911e-05 -0.0294534)
(7.06128e-05 -4.19745e-05 -0.0294588)
(6.76812e-05 -4.52248e-05 -0.0294538)
(6.38248e-05 -4.84282e-05 -0.0294457)
(5.95389e-05 -5.12029e-05 -0.0294371)
(0.000121109 -0.000130664 -0.0282026)
(0.000120695 -0.000115735 -0.029208)
(0.000118097 -0.000110291 -0.029371)
(0.000113956 -0.000108602 -0.029407)
(0.000108624 -0.000108718 -0.0294089)
(0.000102933 -0.000109157 -0.0294002)
(9.74728e-05 -0.000109084 -0.0293882)
(9.25423e-05 -0.000108047 -0.0293758)
(0.000298761 0.000368308 -0.0280513)
(0.000274174 0.000335997 -0.0290544)
(0.000256867 0.000316572 -0.0292186)
(0.000241753 0.000301729 -0.0292572)
(0.000228103 0.000289064 -0.0292627)
(0.000215867 0.0002775 -0.0292582)
(0.00020495 0.000266354 -0.0292508)
(0.0001952 0.000255172 -0.0292429)
(0.000191637 0.00036326 -0.0281155)
(0.000186512 0.000325669 -0.0291206)
(0.000181652 0.000302147 -0.0292873)
(0.000175413 0.000284233 -0.029329)
(0.000168017 0.000269693 -0.0293382)
(0.000160113 0.000257426 -0.0293377)
(0.000152063 0.00024668 -0.0293344)
(0.000143962 0.00023695 -0.0293306)
(8.90897e-05 0.000298253 -0.0281598)
(9.98301e-05 0.000266629 -0.029166)
(0.000104228 0.000245727 -0.0293334)
(0.000104154 0.000228959 -0.0293757)
(0.000100619 0.000214856 -0.0293853)
(9.49539e-05 0.000202726 -0.0293851)
(8.80333e-05 0.000192067 -0.0293819)
(8.03569e-05 0.000182509 -0.029378)
(2.3447e-05 0.000195285 -0.0281846)
(4.41023e-05 0.000176301 -0.0291914)
(5.48324e-05 0.000162699 -0.029359)
(5.95484e-05 0.000150935 -0.0294016)
(5.96262e-05 0.000140433 -0.0294115)
(5.66825e-05 0.000131072 -0.0294115)
(5.18149e-05 0.000122704 -0.0294086)
(4.5662e-05 0.000115179 -0.029405)
(5.80092e-06 7.77481e-05 -0.0281888)
(2.76228e-05 7.36646e-05 -0.0291955)
(3.92187e-05 6.89569e-05 -0.0293626)
(4.48655e-05 6.35308e-05 -0.0294045)
(4.5903e-05 5.77185e-05 -0.0294137)
(4.39261e-05 5.19607e-05 -0.0294129)
(3.99975e-05 4.64918e-05 -0.0294091)
(3.47823e-05 4.14166e-05 -0.0294047)
(3.66934e-05 -2.88647e-05 -0.0281746)
(5.24633e-05 -2.02579e-05 -0.0291808)
(6.10131e-05 -1.75424e-05 -0.0293474)
(6.51845e-05 -1.77631e-05 -0.0293886)
(6.57955e-05 -1.98082e-05 -0.029397)
(6.40468e-05 -2.27293e-05 -0.0293954)
(6.07938e-05 -2.59202e-05 -0.0293911)
(5.6498e-05 -2.90562e-05 -0.0293862)
(9.77066e-05 -9.97037e-05 -0.0281432)
(0.00010107 -8.53403e-05 -0.0291482)
(0.0001018 -7.92141e-05 -0.0293128)
(0.000100547 -7.66541e-05 -0.0293516)
(9.75303e-05 -7.61468e-05 -0.0293572)
(9.34791e-05 -7.64862e-05 -0.0293527)
(8.89149e-05 -7.69446e-05 -0.0293452)
(8.4149e-05 -7.71033e-05 -0.0293372)
(0.000261037 0.00032053 -0.0280196)
(0.00024056 0.000291242 -0.0290224)
(0.000226394 0.000273164 -0.0291875)
(0.000214017 0.00025922 -0.0292276)
(0.000202695 0.00024745 -0.0292352)
(0.000192343 0.000236964 -0.0292331)
(0.000182859 0.000227169 -0.0292282)
(0.000174056 0.000217704 -0.0292229)
(0.000168778 0.000319689 -0.0280715)
(0.000165002 0.000286062 -0.029076)
(0.000161501 0.000264682 -0.0292431)
(0.000156735 0.000248253 -0.0292857)
(0.000150763 0.000234918 -0.0292961)
(0.000144082 0.000223751 -0.0292971)
(0.000136979 0.000214104 -0.0292955)
(0.000129534 0.000205527 -0.0292934)
(7.99267e-05 0.000267834 -0.0281082)
(9.0253e-05 0.000239247 -0.0291136)
(9.51748e-05 0.000220239 -0.0292813)
(9.61262e-05 0.000204996 -0.0293245)
(9.38336e-05 0.000192231 -0.0293355)
(8.93624e-05 0.000181331 -0.0293369)
(8.34287e-05 0.00017184 -0.0293356)
(7.64563e-05 0.00016342 -0.0293336)
(2.11215e-05 0.000181639 -0.028129)
(4.05088e-05 0.000164054 -0.0291349)
(5.12339e-05 0.000151512 -0.0293029)
(5.65436e-05 0.000140731 -0.0293463)
(5.75035e-05 0.000131145 -0.0293576)
(5.54459e-05 0.000122606 -0.0293593)
(5.12946e-05 0.000114962 -0.0293583)
(4.56061e-05 0.000108067 -0.0293565)
(3.10689e-06 8.11299e-05 -0.028133)
(2.41104e-05 7.67814e-05 -0.0291388)
(3.59816e-05 7.2253e-05 -0.0293065)
(4.23709e-05 6.71962e-05 -0.0293494)
(4.43232e-05 6.18003e-05 -0.02936)
(4.3177e-05 5.64104e-05 -0.0293611)
(3.98709e-05 5.12082e-05 -0.0293594)
(3.49986e-05 4.62675e-05 -0.029357)
(2.68747e-05 -1.14979e-05 -0.0281219)
(4.29907e-05 -4.23742e-06 -0.0291273)
(5.23282e-05 -1.78557e-06 -0.0292944)
(5.74448e-05 -1.86746e-06 -0.0293367)
(5.90175e-05 -3.63674e-06 -0.0293467)
(5.80732e-05 -6.32053e-06 -0.0293471)
(5.53428e-05 -9.43491e-06 -0.0293449)
(5.12549e-05 -1.27115e-05 -0.029342)
(7.84436e-05 -7.52275e-05 -0.028097)
(8.41658e-05 -6.18579e-05 -0.0291014)
(8.69423e-05 -5.56396e-05 -0.029267)
(8.74923e-05 -5.27277e-05 -0.0293074)
(8.59899e-05 -5.19317e-05 -0.0293152)
(8.30879e-05 -5.22546e-05 -0.0293132)
(7.92625e-05 -5.30679e-05 -0.0293084)
(7.48144e-05 -5.39912e-05 -0.0293032)
(0.000230528 0.000282407 -0.027997)
(0.00021298 0.000255829 -0.0289996)
(0.000200965 0.000239059 -0.0291651)
(0.000190471 0.000226017 -0.0292062)
(0.000180792 0.000215078 -0.029215)
(0.000171821 0.00020549 -0.0292143)
(0.000163445 0.000196746 -0.029211)
(0.000155532 0.000188492 -0.0292072)
(0.000150077 0.000284618 -0.0280384)
(0.000146975 0.000254382 -0.0290422)
(0.000144176 0.00023488 -0.0292094)
(0.000140265 0.000219776 -0.0292523)
(0.000135204 0.000207497 -0.0292634)
(0.000129382 0.000197253 -0.0292651)
(0.000123033 0.000188478 -0.0292643)
(0.000116229 0.000180772 -0.0292631)
(7.20975e-05 0.000242986 -0.0280681)
(8.15823e-05 0.000216976 -0.0290727)
(8.64461e-05 0.000199576 -0.0292404)
(8.78238e-05 0.000185619 -0.0292839)
(8.62484e-05 0.000173962 -0.0292955)
(8.2589e-05 0.000164054 -0.0292977)
(7.74392e-05 0.000155482 -0.0292973)
(7.116e-05 0.00014793 -0.0292962)
(1.88583e-05 0.000170245 -0.028085)
(3.66711e-05 0.000153805 -0.02909)
(4.68869e-05 0.000142113 -0.029258)
(5.22635e-05 0.000132121 -0.0293017)
(5.3647e-05 0.000123274 -0.0293135)
(5.21567e-05 0.000115409 -0.029316)
(4.85792e-05 0.000108365 -0.0293159)
(4.34027e-05 0.000101999 -0.029315)
(5.98025e-07 8.3511e-05 -0.0280884)
(2.0388e-05 7.88401e-05 -0.0290934)
(3.19757e-05 7.43605e-05 -0.0292611)
(3.85525e-05 6.95344e-05 -0.0293045)
(4.09731e-05 6.44429e-05 -0.0293158)
(4.03819e-05 5.93474e-05 -0.0293177)
(3.75972e-05 5.43826e-05 -0.029317)
(3.31496e-05 4.95981e-05 -0.0293157)
(1.87632e-05 2.09496e-06 -0.0280795)
(3.46835e-05 8.06891e-06 -0.0290842)
(4.42197e-05 1.01229e-05 -0.0292515)
(4.97359e-05 1.00054e-05 -0.0292942)
(5.18113e-05 8.35481e-06 -0.029305)
(5.13561e-05 5.8052e-06 -0.0293063)
(4.90259e-05 2.75566e-06 -0.0293051)
(4.52225e-05 -5.68941e-07 -0.0293034)
(6.27625e-05 -5.59399e-05 -0.0280598)
(6.99423e-05 -4.3679e-05 -0.0290636)
(7.3963e-05 -3.76593e-05 -0.0292297)
(7.56324e-05 -3.46798e-05 -0.029271)
(7.51148e-05 -3.37869e-05 -0.02928)
(7.30101e-05 -3.41361e-05 -0.0292795)
(6.97637e-05 -3.51821e-05 -0.0292763)
(6.56666e-05 -3.65842e-05 -0.0292727)
(0.000206377 0.000252538 -0.0279805)
(0.000190906 0.000228257 -0.0289827)
(0.000180335 0.00021264 -0.0291486)
(0.000171115 0.000200402 -0.0291901)
(0.000162575 0.000190169 -0.0291996)
(0.000154599 0.000181299 -0.0291998)
(0.000147074 0.000173345 -0.0291975)
(0.000139883 0.000165977 -0.0291947)
(0.000135142 0.000257003 -0.0280127)
(0.000132316 0.000229548 -0.029016)
(0.00012982 0.000211605 -0.0291831)
(0.000126377 0.000197608 -0.0292261)
(0.000121888 0.000186204 -0.0292373)
(0.000116666 0.000176704 -0.0292393)
(0.000110902 0.000168606 -0.0292389)
(0.000104661 0.000161547 -0.029238)
(6.56416e-05 0.000223285 -0.0280361)
(7.41436e-05 0.000199374 -0.02904)
(7.86569e-05 0.000183274 -0.0292075)
(8.012e-05 0.000170349 -0.029251)
(7.89309e-05 0.000159571 -0.0292627)
(7.58144e-05 0.000150438 -0.0292652)
(7.12708e-05 0.000142568 -0.0292652)
(6.56092e-05 0.000135667 -0.0292645)
(1.67982e-05 0.000161217 -0.0280493)
(3.30251e-05 0.000145667 -0.0290535)
(4.25219e-05 0.000134622 -0.0292213)
(4.76956e-05 0.000125233 -0.029265)
(4.92345e-05 0.000116957 -0.0292769)
(4.80981e-05 0.000109615 -0.0292796)
(4.49671e-05 0.000103043 -0.0292798)
(4.02735e-05 9.70935e-05 -0.0292793)
(-1.68173e-06 8.54578e-05 -0.0280518)
(1.68141e-05 8.04394e-05 -0.029056)
(2.78667e-05 7.59181e-05 -0.0292236)
(3.43387e-05 7.12182e-05 -0.0292669)
(3.69532e-05 6.63355e-05 -0.0292785)
(3.67111e-05 6.14628e-05 -0.0292808)
(3.43343e-05 5.66951e-05 -0.0292805)
(3.02991e-05 5.20611e-05 -0.0292796)
(1.20788e-05 1.28766e-05 -0.0280445)
(2.75716e-05 1.76925e-05 -0.0290484)
(3.701e-05 1.93039e-05 -0.0292156)
(4.26318e-05 1.90595e-05 -0.0292585)
(4.49534e-05 1.74365e-05 -0.0292695)
(4.48021e-05 1.49601e-05 -0.0292713)
(4.27801e-05 1.19637e-05 -0.0292705)
(3.92698e-05 8.63756e-06 -0.0292692)
(5.00845e-05 -4.07261e-05 -0.0280287)
(5.81708e-05 -2.9533e-05 -0.029032)
(6.29367e-05 -2.38409e-05 -0.0291983)
(6.52946e-05 -2.09386e-05 -0.02924)
(6.54142e-05 -2.00528e-05 -0.0292497)
(6.3862e-05 -2.04542e-05 -0.02925)
(6.10611e-05 -2.16629e-05 -0.0292477)
(5.72942e-05 -2.33746e-05 -0.029245)
(0.000187829 0.000229785 -0.0279679)
(0.000173794 0.000207342 -0.02897)
(0.000164155 0.000192659 -0.0291359)
(0.00015576 0.000181073 -0.0291777)
(0.000147982 0.000171399 -0.0291877)
(0.000140698 0.000163074 -0.0291884)
(0.000133795 0.000155695 -0.0291866)
(0.00012716 0.000148961 -0.0291844)
(0.000123617 0.000235966 -0.0279922)
(0.000120824 0.000210685 -0.0289951)
(0.000118387 0.000193959 -0.0291619)
(0.000115159 0.000180829 -0.0292049)
(0.000111009 0.000170104 -0.0292161)
(0.00010619 0.000161172 -0.0292182)
(0.000100863 0.000153579 -0.0292179)
(9.50828e-05 0.000146989 -0.0292171)
(6.05499e-05 0.000208345 -0.0280098)
(6.80824e-05 0.000186057 -0.0290131)
(7.2123e-05 0.000170944 -0.0291804)
(7.34846e-05 0.000158798 -0.0292237)
(7.24719e-05 0.000148679 -0.0292354)
(6.97045e-05 0.000140122 -0.0292379)
(6.56126e-05 0.000132768 -0.0292379)
(6.04628e-05 0.000126337 -0.0292373)
(1.50259e-05 0.000154623 -0.0280195)
(2.98113e-05 0.000139713 -0.029023)
(3.8552e-05 0.000129116 -0.0291905)
(4.34057e-05 0.000120152 -0.029234)
(4.49489e-05 0.000112285 -0.0292458)
(4.40228e-05 0.000105324 -0.0292484)
(4.12283e-05 9.90987e-05 -0.0292486)
(3.69514e-05 9.34593e-05 -0.0292482)
(-3.73459e-06 8.74331e-05 -0.0280208)
(1.35656e-05 8.20492e-05 -0.0290243)
(2.40183e-05 7.7415e-05 -0.0291916)
(3.02552e-05 7.27537e-05 -0.0292349)
(3.29094e-05 6.79929e-05 -0.0292464)
(3.28772e-05 6.32703e-05 -0.0292487)
(3.08089e-05 5.86471e-05 -0.0292485)
(2.71371e-05 5.41337e-05 -0.0292477)
(6.54825e-06 2.16392e-05 -0.0280145)
(2.15749e-05 2.54445e-05 -0.0290178)
(3.07988e-05 2.66149e-05 -0.0291847)
(3.63831e-05 2.61956e-05 -0.0292276)
(3.88082e-05 2.45398e-05 -0.0292386)
(3.88441e-05 2.2088e-05 -0.0292404)
(3.7054e-05 1.91213e-05 -0.0292398)
(3.38038e-05 1.58006e-05 -0.0292387)
(3.98759e-05 -2.86562e-05 -0.0280018)
(4.85586e-05 -1.84155e-05 -0.0290045)
(5.37761e-05 -1.30878e-05 -0.0291708)
(5.65551e-05 -1.03308e-05 -0.0292127)
(5.70833e-05 -9.50835e-06 -0.0292227)
(5.59079e-05 -9.97828e-06 -0.0292234)
(5.34384e-05 -1.13118e-05 -0.0292217)
(4.99502e-05 -1.32352e-05 -0.0292194)
(0.000174252 0.000213253 -0.027958)
(0.000161142 0.000192166 -0.0289599)
(0.000152055 0.000178159 -0.0291258)
(0.00014415 0.000167044 -0.0291678)
(0.000136842 0.000157767 -0.029178)
(0.000130008 0.000149821 -0.029179)
(0.00012353 0.000142836 -0.0291776)
(0.000117295 0.000136529 -0.0291758)
(0.000115187 0.000220798 -0.0279753)
(0.000112272 0.000197102 -0.0289777)
(0.000109744 0.000181242 -0.0291444)
(0.000106564 0.000168727 -0.0291872)
(0.000102583 0.000158483 -0.0291984)
(9.8016e-05 0.000149949 -0.0292004)
(9.29954e-05 0.000142702 -0.0292001)
(8.7567e-05 0.000136429 -0.0291992)
(5.67906e-05 0.000197841 -0.0279876)
(6.3446e-05 0.000176707 -0.0289903)
(6.69931e-05 0.000162269 -0.0291574)
(6.81604e-05 0.000150654 -0.0292005)
(6.71928e-05 0.000140984 -0.0292119)
(6.46339e-05 0.00013282 -0.0292143)
(6.08618e-05 0.000125814 -0.0292142)
(5.61101e-05 0.000119699 -0.0292136)
(1.35896e-05 0.000150514 -0.0279939)
(2.71607e-05 0.00013599 -0.0289968)
(3.52099e-05 0.000125646 -0.0291639)
(3.97182e-05 0.000116935 -0.0292072)
(4.11882e-05 0.000109324 -0.0292187)
(4.03763e-05 0.000102609 -0.0292211)
(3.78244e-05 9.66111e-05 -0.0292212)
(3.38828e-05 9.11771e-05 -0.0292206)
(-5.58556e-06 8.98229e-05 -0.0279938)
(1.07249e-05 8.40489e-05 -0.0289967)
(2.06289e-05 7.92366e-05 -0.0291637)
(2.66013e-05 7.45338e-05 -0.0292067)
(2.92189e-05 6.98128e-05 -0.029218)
(2.93063e-05 6.51656e-05 -0.0292202)
(2.74626e-05 6.06256e-05 -0.0292199)
(2.40874e-05 5.61865e-05 -0.0292191)
(1.93846e-06 2.9033e-05 -0.027988)
(1.65787e-05 3.19721e-05 -0.0289907)
(2.55841e-05 3.27246e-05 -0.0291574)
(3.10819e-05 3.21054e-05 -0.0292)
(3.35391e-05 3.03733e-05 -0.0292109)
(3.36889e-05 2.79026e-05 -0.0292127)
(3.20684e-05 2.49336e-05 -0.029212)
(2.90303e-05 2.16028e-05 -0.0292108)
(3.16869e-05 -1.89803e-05 -0.0279775)
(4.0818e-05 -9.53631e-06 -0.0289798)
(4.63319e-05 -4.55401e-06 -0.029146)
(4.93753e-05 -1.96426e-06 -0.029188)
(5.01643e-05 -1.23413e-06 -0.029198)
(4.92405e-05 -1.78543e-06 -0.0291989)
(4.70068e-05 -3.22762e-06 -0.0291973)
(4.37337e-05 -5.31163e-06 -0.0291953)
(0.000165123 0.000202237 -0.0279499)
(0.000152521 0.000182027 -0.0289515)
(0.000143698 0.000168414 -0.0291174)
(0.000136028 0.000157567 -0.0291595)
(0.000128966 0.000148517 -0.0291698)
(0.000122384 0.00014079 -0.029171)
(0.000116163 0.000134034 -0.0291698)
(0.000110186 0.000127981 -0.0291682)
(0.00010958 0.00021094 -0.0279609)
(0.000106445 0.000188267 -0.0289629)
(0.000103735 0.000172923 -0.0291294)
(0.000100491 0.000160767 -0.029172)
(9.65572e-05 0.000150802 -0.029183)
(9.21202e-05 0.000142497 -0.0291849)
(8.72918e-05 0.00013545 -0.0291845)
(8.21085e-05 0.000129355 -0.0291835)
(5.43122e-05 0.000191516 -0.0279682)
(6.02264e-05 0.000171078 -0.0289705)
(6.33196e-05 0.000157007 -0.0291372)
(6.42615e-05 0.00014568 -0.0291801)
(6.3261e-05 0.000136259 -0.0291913)
(6.08091e-05 0.000128314 -0.0291934)
(5.72469e-05 0.000121505 -0.0291931)
(5.27838e-05 0.000115566 -0.0291923)
(1.25052e-05 0.000148936 -0.0279712)
(2.51366e-05 0.000134541 -0.0289735)
(3.26201e-05 0.000124256 -0.0291403)
(3.68175e-05 0.000115632 -0.0291832)
(3.81866e-05 0.000108129 -0.0291945)
(3.7427e-05 0.00010153 -0.0291966)
(3.50399e-05 9.56448e-05 -0.0291964)
(3.13506e-05 9.03137e-05 -0.0291956)
(-7.26713e-06 9.29375e-05 -0.0279695)
(8.32376e-06 8.67416e-05 -0.0289718)
(1.78011e-05 8.16913e-05 -0.0291385)
(2.3546e-05 7.6872e-05 -0.0291812)
(2.61054e-05 7.21111e-05 -0.0291922)
(2.62585e-05 6.7464e-05 -0.0291942)
(2.45711e-05 6.29396e-05 -0.0291937)
(2.14207e-05 5.85172e-05 -0.0291927)
(-1.95467e-06 3.55926e-05 -0.0279639)
(1.24718e-05 3.78018e-05 -0.028966)
(2.13261e-05 3.8165e-05 -0.0291324)
(2.67466e-05 3.73317e-05 -0.0291748)
(2.92117e-05 3.54892e-05 -0.0291855)
(2.94343e-05 3.29597e-05 -0.029187)
(2.79332e-05 2.99504e-05 -0.0291862)
(2.50532e-05 2.65793e-05 -0.0291848)
(2.51276e-05 -1.11083e-05 -0.0279551)
(3.46701e-05 -2.28559e-06 -0.0289568)
(4.04297e-05 2.40977e-06 -0.0291229)
(4.36672e-05 4.84621e-06 -0.0291647)
(4.46306e-05 5.47565e-06 -0.0291747)
(4.38716e-05 4.83287e-06 -0.0291756)
(4.17959e-05 3.28375e-06 -0.0291741)
(3.86731e-05 1.06015e-06 -0.0291721)
(0.000160034 0.000196192 -0.0279428)
(0.000147599 0.000176392 -0.0289442)
(0.000138812 0.000162882 -0.0291101)
(0.000131179 0.000152088 -0.0291521)
(0.000124181 0.000143087 -0.0291625)
(0.000117689 0.000135421 -0.0291638)
(0.000111579 0.000128744 -0.0291628)
(0.000105729 0.000122793 -0.0291612)
(0.000106574 0.000205964 -0.0279481)
(0.000103159 0.000183782 -0.0289497)
(0.000100214 0.00016861 -0.029116)
(9.6832e-05 0.000156557 -0.0291584)
(9.28544e-05 0.000146668 -0.0291692)
(8.84478e-05 0.000138426 -0.029171)
(8.37084e-05 0.000131434 -0.0291704)
(7.8667e-05 0.000125389 -0.0291693)
(5.30552e-05 0.00018918 -0.0279508)
(5.8391e-05 0.000168992 -0.0289525)
(6.11056e-05 0.000154988 -0.0291189)
(6.18311e-05 0.000143712 -0.0291615)
(6.07557e-05 0.000134344 -0.0291725)
(5.83372e-05 0.000126452 -0.0291743)
(5.48916e-05 0.000119694 -0.0291739)
(5.06138e-05 0.000113803 -0.0291728)
(1.17639e-05 0.000149943 -0.0279505)
(2.37577e-05 0.000135414 -0.0289522)
(3.08389e-05 0.000124996 -0.0291187)
(3.48002e-05 0.000116296 -0.0291613)
(3.60757e-05 0.00010876 -0.0291722)
(3.5332e-05 0.000102149 -0.029174)
(3.30449e-05 9.62636e-05 -0.0291735)
(2.95261e-05 9.09341e-05 -0.0291725)
(-8.83366e-06 9.70387e-05 -0.0279471)
(6.35224e-06 9.03748e-05 -0.0289488)
(1.55766e-05 8.5023e-05 -0.0291151)
(2.11789e-05 8.0018e-05 -0.0291575)
(2.36972e-05 7.51432e-05 -0.0291682)
(2.38893e-05 7.04218e-05 -0.0291698)
(2.2303e-05 6.58424e-05 -0.0291691)
(1.93052e-05 6.13719e-05 -0.0291678)
(-5.33286e-06 4.17372e-05 -0.0279412)
(9.10097e-06 4.33448e-05 -0.0289427)
(1.79397e-05 4.33657e-05 -0.0291088)
(2.33597e-05 4.23197e-05 -0.0291509)
(2.58494e-05 4.03374e-05 -0.0291613)
(2.61246e-05 3.77071e-05 -0.0291626)
(2.4702e-05 3.46133e-05 -0.0291615)
(2.19228e-05 3.11583e-05 -0.0291599)
(1.9886e-05 -4.57622e-06 -0.0279335)
(2.98914e-05 3.83475e-06 -0.0289348)
(3.59028e-05 8.32581e-06 -0.0291006)
(3.93121e-05 1.06336e-05 -0.0291423)
(4.04125e-05 1.11655e-05 -0.0291521)
(3.97682e-05 1.04261e-05 -0.0291529)
(3.77903e-05 8.76246e-06 -0.0291513)
(3.4757e-05 6.39895e-06 -0.0291492)
(0.000158696 0.000194714 -0.0279364)
(0.000146143 0.000174879 -0.0289375)
(0.000137197 0.000161185 -0.0291034)
(0.000129433 0.000150222 -0.0291454)
(0.000122347 0.000141087 -0.0291558)
(0.000115804 0.000133322 -0.0291572)
(0.000109669 0.000126583 -0.0291562)
(0.000103825 0.000120597 -0.0291547)
(0.000106011 0.000205574 -0.0279363)
(0.000102281 0.000183375 -0.0289375)
(9.90647e-05 0.000168044 -0.0291036)
(9.54889e-05 0.000155839 -0.0291458)
(9.13921e-05 0.000145822 -0.0291565)
(8.69273e-05 0.000137474 -0.0291581)
(8.21785e-05 0.000130396 -0.0291574)
(7.71746e-05 0.00012428 -0.0291561)
(5.29689e-05 0.000190719 -0.0279345)
(5.79014e-05 0.000170349 -0.0289358)
(6.03292e-05 0.000156117 -0.0291019)
(6.08684e-05 0.000144658 -0.0291442)
(5.9697e-05 0.00013515 -0.0291548)
(5.72543e-05 0.000127148 -0.0291565)
(5.38416e-05 0.000120302 -0.0291558)
(4.9648e-05 0.000114336 -0.0291545)
(1.13428e-05 0.000153615 -0.0279309)
(2.30127e-05 0.000138687 -0.0289321)
(2.98746e-05 0.000127944 -0.0290982)
(3.36978e-05 0.000119004 -0.0291405)
(3.49093e-05 0.000111289 -0.029151)
(3.41613e-05 0.00010454 -0.0291526)
(3.19181e-05 9.85406e-05 -0.0291518)
(2.8488e-05 9.31108e-05 -0.0291504)
(-1.03564e-05 0.000102382 -0.0279256)
(4.764e-06 9.51897e-05 -0.0289267)
(1.39386e-05 8.94698e-05 -0.0290927)
(1.95144e-05 8.42022e-05 -0.0291347)
(2.20373e-05 7.91323e-05 -0.0291451)
(2.22626e-05 7.42555e-05 -0.0291464)
(2.0734e-05 6.95422e-05 -0.0291454)
(1.78188e-05 6.49486e-05 -0.0291438)
(-8.35181e-06 4.77952e-05 -0.0279192)
(6.35405e-06 4.89234e-05 -0.0289201)
(1.53378e-05 4.8646e-05 -0.0290859)
(2.0848e-05 4.73924e-05 -0.0291277)
(2.33995e-05 4.52503e-05 -0.0291377)
(2.37229e-05 4.24837e-05 -0.0291387)
(2.23435e-05 3.92612e-05 -0.0291374)
(1.96122e-05 3.56772e-05 -0.0291356)
(1.57108e-05 9.55925e-07 -0.0279124)
(2.62844e-05 9.17598e-06 -0.028913)
(3.26176e-05 1.35764e-05 -0.0290785)
(3.62293e-05 1.58157e-05 -0.02912)
(3.74597e-05 1.62718e-05 -0.0291296)
(3.68962e-05 1.54362e-05 -0.0291302)
(3.49631e-05 1.36464e-05 -0.0291284)
(3.19487e-05 1.11228e-05 -0.0291261)
(0.000160926 0.000197566 -0.0279305)
(0.000147995 0.000177265 -0.0289313)
(0.000138709 0.000163102 -0.029097)
(0.000130659 0.000151745 -0.029139)
(0.000123342 0.000142289 -0.0291495)
(0.000116616 0.000134266 -0.0291509)
(0.000110328 0.000127327 -0.02915)
(0.000104374 0.000121176 -0.0291486)
(0.000107789 0.000209612 -0.0279251)
(0.000103712 0.000186906 -0.0289259)
(0.000100189 0.000171089 -0.0290918)
(9.63669e-05 0.000158476 -0.0291338)
(9.2079e-05 0.000148124 -0.0291443)
(8.74698e-05 0.000139502 -0.0291458)
(8.26124e-05 0.000132194 -0.029145)
(7.75386e-05 0.000125888 -0.0291436)
(5.40218e-05 0.000196108 -0.0279189)
(5.87189e-05 0.00017513 -0.0289197)
(6.095e-05 0.000160379 -0.0290855)
(6.13373e-05 0.000148502 -0.0291275)
(6.00553e-05 0.000138659 -0.0291379)
(5.75369e-05 0.000130385 -0.0291393)
(5.4077e-05 0.000123312 -0.0291384)
(4.98658e-05 0.000117151 -0.0291369)
(1.12197e-05 0.000160069 -0.027912)
(2.2872e-05 0.000144469 -0.0289126)
(2.96986e-05 0.000133201 -0.0290784)
(3.34877e-05 0.000123852 -0.0291203)
(3.46725e-05 0.000115811 -0.0291305)
(3.3907e-05 0.000108795 -0.0291318)
(3.16559e-05 0.000102567 -0.0291307)
(2.82324e-05 9.6934e-05 -0.0291291)
(-1.19019e-05 0.000109205 -0.0279046)
(3.49824e-06 0.000101403 -0.0289051)
(1.28366e-05 9.52358e-05 -0.0290707)
(1.85145e-05 8.96237e-05 -0.0291124)
(2.10992e-05 8.42748e-05 -0.0291224)
(2.13602e-05 7.91596e-05 -0.0291234)
(1.98501e-05 7.42311e-05 -0.029122)
(1.69464e-05 6.94351e-05 -0.0291202)
(-1.11582e-05 5.40709e-05 -0.0278974)
(4.1039e-06 5.48211e-05 -0.0288976)
(1.3416e-05 5.42845e-05 -0.0290631)
(1.91307e-05 5.28268e-05 -0.0291045)
(2.1799e-05 5.05022e-05 -0.0291143)
(2.21773e-05 4.7559e-05 -0.029115)
(2.08088e-05 4.41557e-05 -0.0291133)
(1.80636e-05 4.03842e-05 -0.0291112)
(1.23866e-05 5.79541e-06 -0.027891)
(2.36774e-05 1.40412e-05 -0.028891)
(3.04281e-05 1.84653e-05 -0.0290562)
(3.42917e-05 2.06945e-05 -0.0290974)
(3.56598e-05 2.10938e-05 -0.0291068)
(3.51542e-05 2.01555e-05 -0.0291071)
(3.32202e-05 1.82186e-05 -0.0291051)
(3.01612e-05 1.55055e-05 -0.0291027)
(0.000166636 0.00020466 -0.0279248)
(0.000153068 0.000183476 -0.0289253)
(0.000143251 0.000168562 -0.029091)
(0.000134758 0.000156584 -0.029133)
(0.000127068 0.000146618 -0.0291434)
(0.000120034 0.000138172 -0.0291449)
(0.000113458 0.000130899 -0.029144)
(0.000107291 0.000124443 -0.0291427)
(0.000111869 0.000218055 -0.0279143)
(0.00010739 0.000194357 -0.0289147)
(0.000103507 0.000177728 -0.0290803)
(9.93757e-05 0.000164449 -0.0291222)
(9.48186e-05 0.00015355 -0.0291326)
(8.99745e-05 0.000144479 -0.029134)
(8.49041e-05 0.000136796 -0.029133)
(7.96519e-05 0.000130186 -0.0291316)
(5.62074e-05 0.000205415 -0.0279037)
(6.08105e-05 0.000183401 -0.0289038)
(6.29149e-05 0.000167832 -0.0290694)
(6.31756e-05 0.000155298 -0.0291112)
(6.17651e-05 0.000144921 -0.0291214)
(5.91193e-05 0.000136209 -0.0291226)
(5.5534e-05 0.000128769 -0.0291215)
(5.12065e-05 0.000122293 -0.0291198)
(1.13781e-05 0.000169474 -0.0278933)
(2.32973e-05 0.000152908 -0.0288932)
(3.02531e-05 0.000140903 -0.0290587)
(3.41039e-05 0.000130966 -0.0291003)
(3.5296e-05 0.000122446 -0.0291102)
(3.44994e-05 0.000115029 -0.0291112)
(3.219e-05 0.000108454 -0.0291098)
(2.86927e-05 0.000102513 -0.029108)
(-1.35311e-05 0.000117748 -0.0278836)
(2.48552e-06 0.000109226 -0.0288833)
(1.21882e-05 0.000102517 -0.0290486)
(1.80914e-05 9.64671e-05 -0.02909)
(2.07934e-05 9.07461e-05 -0.0290997)
(2.10938e-05 8.53016e-05 -0.0291004)
(1.95665e-05 8.00705e-05 -0.0290987)
(1.66068e-05 7.49882e-05 -0.0290966)
(-1.38842e-05 6.0857e-05 -0.0278752)
(2.23229e-06 6.12987e-05 -0.0288748)
(1.20535e-05 6.0518e-05 -0.0290399)
(1.8083e-05 5.88432e-05 -0.029081)
(2.09182e-05 5.63021e-05 -0.0290905)
(2.13565e-05 5.31342e-05 -0.0290908)
(1.99696e-05 4.94934e-05 -0.0290889)
(1.7151e-05 4.54705e-05 -0.0290866)
(9.72475e-06 1.02154e-05 -0.0278689)
(2.19076e-05 1.86781e-05 -0.0288683)
(2.91795e-05 2.32212e-05 -0.0290333)
(3.33552e-05 2.54915e-05 -0.0290741)
(3.48771e-05 2.58487e-05 -0.0290833)
(3.44114e-05 2.47964e-05 -0.0290834)
(3.24327e-05 2.26837e-05 -0.0290812)
(2.92674e-05 1.97422e-05 -0.0290785)
(0.000175831 0.000216038 -0.0279194)
(0.000161347 0.000193556 -0.0289196)
(0.000150785 0.000177616 -0.0290852)
(0.000141682 0.000164786 -0.0291272)
(0.000133471 0.000154119 -0.0291377)
(0.000126011 0.00014507 -0.0291392)
(0.000118993 0.000137344 -0.0291383)
(0.00011254 0.000130418 -0.0291373)
(0.000118276 0.000230995 -0.0279036)
(0.000113303 0.000205816 -0.0289036)
(0.000108972 0.000188044 -0.0290691)
(0.000104451 0.000173833 -0.0291109)
(9.95342e-05 0.000162169 -0.0291211)
(9.4359e-05 0.000152465 -0.0291224)
(8.89621e-05 0.00014425 -0.0291214)
(8.343e-05 0.000137223 -0.0291199)
(5.9546e-05 0.000218797 -0.0278884)
(6.41609e-05 0.0001953 -0.0288881)
(6.61774e-05 0.000178606 -0.0290534)
(6.63188e-05 0.000165166 -0.029095)
(6.47513e-05 0.000154051 -0.0291049)
(6.19214e-05 0.00014473 -0.0291059)
(5.81316e-05 0.000136775 -0.0291046)
(5.35924e-05 0.00012986 -0.0291029)
(1.1808e-05 0.000182044 -0.0278743)
(2.42495e-05 0.000164195 -0.0288737)
(3.14683e-05 0.000151222 -0.0290389)
(3.54592e-05 0.000140508 -0.0290802)
(3.66832e-05 0.000131346 -0.0290898)
(3.58394e-05 0.000123386 -0.0290905)
(3.34246e-05 0.000116342 -0.0290889)
(2.97817e-05 0.000109984 -0.0290868)
(-1.53059e-05 0.000128265 -0.0278621)
(1.6461e-06 0.000118885 -0.0288612)
(1.18882e-05 0.000111511 -0.0290262)
(1.81262e-05 0.000104913 -0.0290672)
(2.09935e-05 9.87147e-05 -0.0290766)
(2.13347e-05 9.2841e-05 -0.029077)
(1.97568e-05 8.72128e-05 -0.029075)
(1.6679e-05 8.17553e-05 -0.0290726)
(-1.66489e-05 6.841e-05 -0.0278524)
(6.14268e-07 6.85796e-05 -0.0288513)
(1.11049e-05 6.7543e-05 -0.0290161)
(1.75511e-05 6.5622e-05 -0.0290569)
(2.05998e-05 6.28183e-05 -0.029066)
(2.11028e-05 5.93689e-05 -0.0290661)
(1.96709e-05 5.54274e-05 -0.0290639)
(1.67262e-05 5.1086e-05 -0.0290612)
(7.57183e-06 1.44337e-05 -0.027846)
(2.08364e-05 2.32834e-05 -0.0288447)
(2.87246e-05 2.80177e-05 -0.0290094)
(3.3267e-05 3.03645e-05 -0.0290499)
(3.4956e-05 3.06821e-05 -0.0290588)
(3.45123e-05 2.94959e-05 -0.0290586)
(3.24487e-05 2.71733e-05 -0.0290562)
(2.91179e-05 2.39588e-05 -0.0290532)
(0.000157239 0.000181003 -0.0280595)
(0.000156987 0.000151462 -0.0290576)
(0.000161641 0.000130202 -0.0292152)
(0.000166027 0.000113824 -0.0292448)
(0.000168128 0.000102421 -0.0292393)
(0.000167357 9.56616e-05 -0.0292225)
(0.00016343 9.32731e-05 -0.0292026)
(0.000156291 9.45839e-05 -0.0291831)