/*--------------------------------*- C++ -*----------------------------------*\
| =========                 |                                                 |
| \\      /  F ield         | OpenFOAM: The Open Source CFD Toolbox           |
|  \\    /   O peration     | Version:  plus.master.MPPICInterFoam            |
|   \\  /    A nd           | Web:      www.OpenFOAM.com                      |
|    \\/     M anipulation  |                                                 |
\*---------------------------------------------------------------------------*/
FoamFile
{
    version     2.0;
    format      ascii;
    class       volScalarField;
    location    "4";
    object      k;
}
// * * * * * * * * * * * * * * * * * * * * * * * * * * * * * * * * * * * * * //

dimensions      [0 2 -2 0 0 0 0];

internalField   nonuniform List<scalar> 
11821
(
0.0527288
0.0584781
0.0471559
0.0573698
0.0487322
0.0401624
0.0342612
0.0407017
0.0463039
0.0477608
0.0443474
0.0392283
0.0340452
0.0418314
0.0514991
0.0607045
0.0632202
0.0568162
0.04804
0.0401564
0.0500901
0.0615072
0.066288
0.0663845
0.065506
0.0573
0.0464042
0.056639
0.0642782
0.0681017
0.0615629
0.0687093
0.0652004
0.0512826
0.0550482
0.0660798
0.0724765
0.0652079
0.0718514
0.0639742
0.0504497
0.0477666
0.0593633
0.0677498
0.0709988
0.0663258
0.0557633
0.045363
0.0397875
0.0486671
0.0569941
0.0596393
0.0542849
0.0465501
0.0392541
0.033029
0.0382726
0.0425855
0.0439105
0.0418012
0.0381384
0.0339837
0.0390455
0.0471204
0.0548854
0.0569882
0.0521399
0.0453761
0.0391521
0.045461
0.0573438
0.0640581
0.067373
0.0633208
0.0535798
0.0441206
0.0507607
0.0653542
0.071002
0.0682695
0.0656271
0.0610226
0.0478682
0.0496014
0.0651565
0.0690418
0.06829
0.0684026
0.0594368
0.0472924
0.0438403
0.0551038
0.066823
0.0706683
0.0623039
0.0521241
0.0434928
0.037505
0.0448893
0.0519092
0.0543142
0.0501648
0.0443079
0.0384683
0.0325373
0.0369319
0.0403125
0.041595
0.0404867
0.0379382
0.034466
0.0373348
0.0435005
0.0489685
0.0508372
0.0480854
0.0437461
0.0390402
0.0419359
0.0511771
0.0595781
0.0634596
0.0574304
0.0499058
0.0430374
0.0453579
0.0582581
0.0578316
0.0599702
0.0628245
0.055022
0.0457546
0.0446181
0.0561497
0.059335
0.062036
0.0625398
0.0540909
0.0454793
0.0409384
0.0493709
0.0578372
0.0612944
0.0559668
0.049077
0.042668
0.036151
0.042096
0.0471798
0.0492488
0.0470655
0.0431112
0.0383866
0.0330326
0.0371329
0.0401294
0.041487
0.041014
0.0390289
0.035734
0.0372564
0.0423364
0.0464173
0.0481455
0.0470409
0.044202
0.0402317
0.0407908
0.0474918
0.0536721
0.0562693
0.0535513
0.0489765
0.0438223
0.0430274
0.0513203
0.0554756
0.0550072
0.0586424
0.0525142
0.0460379
0.0426924
0.0506134
0.0569632
0.0593651
0.0582526
0.0521973
0.0458974
0.0401372
0.0466484
0.0525333
0.0552928
0.0530512
0.0486727
0.0434817
0.0361262
0.0414138
0.0455816
0.0475446
0.0465759
0.0436509
0.0393349
0.0344496
0.0388287
0.0420175
0.0436261
0.043436
0.0414517
0.0377825
0.0387592
0.0438726
0.0478261
0.0497231
0.0494432
0.0470317
0.0427868
0.0420969
0.0482596
0.0534985
0.0554733
0.054946
0.0518118
0.0466727
0.0440104
0.0511044
0.0585755
0.059959
0.0597926
0.05485
0.0489257
0.043786
0.0509536
0.0588004
0.0615806
0.0604533
0.0549068
0.0487668
0.0414221
0.0477955
0.0532125
0.0558714
0.0551387
0.0515595
0.0460403
0.0373257
0.0428393
0.047116
0.0493424
0.0488671
0.046016
0.0412874
0.0364987
0.0416639
0.0455569
0.0476336
0.0474595
0.0449313
0.0403336
0.0414677
0.0476291
0.0527827
0.0552196
0.0554355
0.0521028
0.0464396
0.0453069
0.0530699
0.0592379
0.0613519
0.062067
0.0595102
0.0513932
0.0474418
0.0559731
0.0644548
0.0685979
0.0675799
0.0621875
0.0542829
0.0471239
0.0559287
0.0646737
0.0693861
0.0688309
0.0625392
0.0538178
0.0442483
0.0520914
0.0591947
0.0623135
0.0623368
0.0575618
0.0499523
0.0393453
0.0458443
0.0511543
0.054239
0.0535736
0.0497955
0.0438647
0.0387178
0.0450582
0.0500673
0.0529024
0.052397
0.0487931
0.0427992
0.04477
0.0527272
0.059985
0.0644479
0.0635208
0.058248
0.0504392
0.0495769
0.0598659
0.069845
0.0710754
0.0726506
0.0660921
0.057
0.0524587
0.0645289
0.0749834
0.0765635
0.0779822
0.0724148
0.0608937
0.0518794
0.0640448
0.0742243
0.0796871
0.0781624
0.0716774
0.0599981
0.047779
0.0579426
0.0673868
0.0726498
0.0715565
0.0640018
0.0542478
0.0415391
0.0495664
0.0566025
0.060501
0.0595881
0.0539981
0.046265
0.0404462
0.0478549
0.0541921
0.0575722
0.0567485
0.0516205
0.0442127
0.047481
0.0567738
0.063766
0.0658005
0.066335
0.062067
0.0530544
0.0534986
0.0630927
0.0649727
0.0790029
0.0709927
0.065513
0.0608887
0.0571734
0.0684784
0.0692604
0.0797787
0.0748563
0.0712641
0.0653293
0.0560492
0.0674324
0.0669676
0.0667705
0.0640697
0.0716104
0.0638762
0.0504264
0.0612631
0.0682923
0.0760105
0.0719395
0.0667049
0.0565457
0.0428134
0.0520376
0.0604801
0.0648066
0.0633988
0.056336
0.0470277
0.0415624
0.0492286
0.0562686
0.060204
0.058368
0.0522954
0.0444301
0.0487885
0.0585266
0.0661605
0.0699087
0.0678949
0.0625344
0.0531208
0.0552502
0.0650265
0.0683635
0.0641154
0.0707615
0.0690757
0.0611575
0.0588621
0.0672279
0.0657611
0.0679825
0.0633194
0.0693851
0.0663989
0.0570538
0.0656905
0.0682372
0.0658636
0.0734469
0.0715498
0.0634617
0.0507827
0.06079
0.0661659
0.0676582
0.0706822
0.0662439
0.0555208
0.0429178
0.0517361
0.0602009
0.065613
0.0628918
0.0553347
0.0461254
0.042129
0.0495246
0.0563674
0.0604302
0.0581623
0.0516843
0.0439582
0.0490594
0.0590227
0.0685597
0.0740373
0.0710826
0.0622121
0.0520818
0.0552226
0.0673248
0.0729436
0.0738522
0.0782101
0.0719509
0.0597073
0.0587713
0.0720601
0.0751877
0.0613085
0.0802615
0.0753268
0.0641784
0.0565145
0.0692553
0.0746611
0.0796522
0.0825038
0.0745379
0.0611289
0.0499508
0.0602592
0.0695154
0.0728085
0.073283
0.0646717
0.0532775
0.0424075
0.0504675
0.0583858
0.0632282
0.0604723
0.0530684
0.0445082
0.0423819
0.049364
0.0554079
0.058641
0.0563453
0.0504209
0.0430496
0.04888
0.0587377
0.0687516
0.0752633
0.0705447
0.0609974
0.0504815
0.0541355
0.0673762
0.0766227
0.0788146
0.0783015
0.0718284
0.0570527
0.0566896
0.0722463
0.0769142
0.0752387
0.0827431
0.0791012
0.0606824
0.054428
0.0683442
0.0746657
0.0797668
0.0789614
0.0733054
0.0575108
0.0486644
0.0591042
0.0696185
0.0773014
0.0723726
0.0619785
0.0505629
0.0416875
0.0489225
0.0556266
0.0596601
0.0569354
0.0503733
0.0426169
0.042838
0.0497271
0.0553581
0.0575239
0.0550153
0.0493691
0.0421768
0.0492329
0.0589698
0.0686674
0.0719557
0.0676583
0.0588058
0.049025
0.0540004
0.0665433
0.078558
0.0825024
0.0788322
0.0675861
0.0544604
0.0556373
0.0694773
0.0810112
0.0801851
0.0805909
0.0727519
0.0568157
0.053243
0.0655367
0.0768292
0.078496
0.0786706
0.0674982
0.0540995
0.0479639
0.0572205
0.0662161
0.0717635
0.0670195
0.0580177
0.0481745
0.0413428
0.0478863
0.0533525
0.0559539
0.0536142
0.0480247
0.0410378
0.0436481
0.0509327
0.0566818
0.0585904
0.0552662
0.0490716
0.0415256
0.0505952
0.0609493
0.069905
0.0734503
0.0678206
0.0582727
0.0483166
0.0557897
0.069614
0.0799526
0.0836648
0.0776383
0.0660416
0.0533546
0.0571623
0.071296
0.0829325
0.0813664
0.0825934
0.069582
0.0551868
0.0542196
0.06657
0.0770348
0.0805792
0.0764723
0.0648859
0.0525379
0.0486022
0.0576029
0.0658118
0.0694514
0.0647553
0.0562434
0.0469407
0.0417142
0.0481173
0.0530892
0.0549592
0.0524196
0.0469536
0.0401219
0.0441887
0.0521422
0.0584208
0.0600422
0.0559337
0.0488086
0.0407394
0.052221
0.0624818
0.0669769
0.072536
0.0687612
0.0587267
0.0478268
0.0584563
0.0700279
0.0816013
0.0855913
0.077612
0.0669661
0.0531632
0.0601993
0.0745711
0.0854195
0.0827827
0.0834917
0.0702271
0.0549533
0.0567204
0.0691713
0.0799782
0.0822714
0.0770839
0.0651586
0.0521699
0.0501166
0.059645
0.0681613
0.071207
0.0653112
0.0562433
0.046418
0.042439
0.049266
0.0545468
0.0560416
0.0527059
0.0466919
0.0395971
0.0435282
0.0514395
0.0580458
0.0593944
0.0544952
0.047285
0.0395397
0.0519401
0.0616453
0.0685263
0.0697019
0.0664976
0.057179
0.0464765
0.059035
0.065083
0.065877
0.0755496
0.074412
0.066358
0.0521337
0.0621226
0.0677423
0.0812353
0.0783542
0.0797659
0.0701574
0.0542226
0.0580138
0.0666191
0.0682391
0.0765161
0.0728621
0.0647266
0.0513283
0.0506423
0.0598096
0.0666435
0.0678944
0.0639389
0.0553743
0.0456088
0.0427313
0.049742
0.0553398
0.0564496
0.0524542
0.0461101
0.0391231
0.0422132
0.0494581
0.0556225
0.0563589
0.0516125
0.0452002
0.038376
0.0501822
0.0594893
0.0679176
0.0679747
0.0622303
0.0540438
0.0446873
0.0576896
0.0669895
0.0742252
0.074026
0.0708511
0.0625624
0.0499887
0.0616666
0.0722923
0.0620348
0.0779376
0.0758726
0.0668874
0.0522211
0.0573396
0.067514
0.0737454
0.0763371
0.0704348
0.0618566
0.0497311
0.0500613
0.0591421
0.0665691
0.0669204
0.0614803
0.0535609
0.044654
0.0426128
0.0493213
0.05476
0.0553961
0.0512443
0.0452791
0.0388095
0.00934404
0.00407963
0.0258398
0.0213547
0.0173671
0.0136593
0.00986939
0.00423883
0.0413068
0.0332868
0.0272817
0.0223874
0.0181037
0.0141642
0.010184
0.00433468
0.0409367
0.0331834
0.0272897
0.0224282
0.0181456
0.0141981
0.0102051
0.00433792
0.037551
0.0311036
0.0259427
0.0215064
0.0175074
0.0137719
0.00994168
0.00425499
0.0330053
0.0281428
0.0238803
0.0200213
0.0164489
0.0130493
0.00948588
0.00412173
0.0290523
0.025244
0.0217185
0.0184042
0.0152636
0.0122189
0.00896295
0.00399807
0.033418
0.0284437
0.0241502
0.0202473
0.0166184
0.0131682
0.00957294
0.00418021
0.0375761
0.0314108
0.02635
0.0218826
0.0178015
0.013979
0.0100782
0.00432843
0.0404072
0.0333084
0.0277019
0.0228694
0.0185041
0.0144526
0.0103649
0.00441177
0.040068
0.0331921
0.0276666
0.0228544
0.0184927
0.0144426
0.0103547
0.00440434
0.0370491
0.0312449
0.0263102
0.0218753
0.0177957
0.0139711
0.0100628
0.0043141
0.03292
0.0283958
0.024227
0.0203332
0.0166854
0.0132114
0.00958337
0.00417446
0.0294373
0.0257799
0.0222403
0.018845
0.0156139
0.0124866
0.00914935
0.00408323
0.0334406
0.0288788
0.0246631
0.0206955
0.0169694
0.013429
0.00975182
0.0042599
0.0370016
0.0316167
0.0267889
0.0223041
0.01813
0.0142158
0.010233
0.00439493
0.039312
0.0332781
0.0280392
0.0232329
0.0187869
0.0146492
0.0104872
0.00446512
0.0390516
0.0331514
0.0279487
0.0231545
0.0187185
0.0145945
0.0104463
0.00444758
0.036552
0.0313405
0.0265739
0.0221156
0.0179666
0.0140835
0.01013
0.00435173
0.0328303
0.0285738
0.0244514
0.0205123
0.0168075
0.0132912
0.00963128
0.00420808
0.0300851
0.0264144
0.0227768
0.019268
0.0159416
0.0127388
0.00932845
0.00416319
0.0339478
0.0295261
0.0252392
0.0211409
0.017299
0.0136723
0.00991995
0.00433274
0.0371489
0.0321666
0.0273486
0.0227388
0.0184377
0.0144309
0.0103745
0.00445598
0.0390693
0.0336806
0.0285304
0.0236175
0.0190467
0.014822
0.0105978
0.00451528
0.038858
0.0335045
0.0283654
0.0234656
0.0189182
0.0147229
0.0105276
0.00448924
0.0366527
0.0317035
0.0269119
0.0223454
0.0181076
0.0141744
0.0101897
0.00438881
0.0330882
0.0288845
0.0246918
0.0206637
0.0168993
0.0133541
0.0096765
0.00424255
0.0311468
0.0272511
0.0233988
0.019723
0.0162819
0.0129986
0.00951372
0.00424566
0.0351629
0.030522
0.0259614
0.0216364
0.0176428
0.0139199
0.010089
0.00440641
0.0383405
0.033243
0.0281333
0.0232508
0.0187646
0.0146503
0.0105189
0.00452171
0.0401177
0.0347249
0.0292967
0.0240952
0.0193315
0.0150035
0.0107161
0.00457368
0.0398714
0.0344536
0.0290307
0.0238593
0.0191407
0.0148611
0.0106195
0.0045413
0.0376302
0.0324877
0.0274169
0.0226277
0.0182639
0.0142761
0.0102626
0.00443747
0.0338759
0.029441
0.0250261
0.0208459
0.0170056
0.0134332
0.00974061
0.0042899
0.0325714
0.028239
0.0240639
0.0201796
0.0166146
0.0132523
0.00969601
0.00432404
0.0370497
0.0318046
0.026769
0.0221366
0.0179708
0.0141535
0.0102511
0.00447753
0.0405694
0.0347747
0.0290637
0.0237799
0.0190764
0.0148567
0.0106593
0.00458801
0.0424663
0.036342
0.0302554
0.0246059
0.0196068
0.0151759
0.0108347
0.00463548
0.0420885
0.0359276
0.0298633
0.0242767
0.0193533
0.0149942
0.0107162
0.00459806
0.0394352
0.0336084
0.0280119
0.0229117
0.0184099
0.0143777
0.0103451
0.00449095
0.0351079
0.0301635
0.0253949
0.0210239
0.0171102
0.0135216
0.00982082
0.00434325
0.0341305
0.0292133
0.0246716
0.0205846
0.0169122
0.0134846
0.00986843
0.0043889
0.039315
0.0331352
0.0275063
0.0225604
0.0182492
0.0143604
0.0104035
0.00453666
0.0435243
0.0364833
0.0299482
0.0242268
0.019333
0.0150367
0.0107942
0.00464481
0.0457701
0.0382299
0.031187
0.0250328
0.0198258
0.0153251
0.0109529
0.00469021
0.0451344
0.037601
0.0306429
0.0246069
0.0195149
0.0151114
0.0108186
0.00465049
0.0416884
0.0347705
0.0285169
0.0231158
0.0185191
0.014474
0.0104394
0.00454249
0.0364678
0.0308325
0.0256776
0.0211486
0.0171995
0.0136178
0.00991985
0.00439668
0.0354697
0.0299852
0.0251462
0.0209171
0.0171675
0.0136858
0.0100188
0.00443679
0.0414323
0.0342027
0.0280457
0.0228764
0.0184731
0.0145356
0.0105372
0.00458194
0.0465243
0.0379325
0.0305855
0.024535
0.0195276
0.0151889
0.0109169
0.00469105
0.0492305
0.0398643
0.0318449
0.0253054
0.019983
0.0154534
0.0110657
0.00473763
0.0482248
0.0389641
0.0311409
0.0247921
0.0196264
0.0152176
0.0109226
0.0046986
0.0437224
0.0355887
0.0287873
0.0232188
0.0186033
0.0145721
0.010542
0.00459168
0.0375042
0.0312302
0.0258133
0.0212257
0.0172896
0.0137276
0.0100328
0.00444896
0.0362577
0.0304821
0.0255023
0.021188
0.0173715
0.0138324
0.0101151
0.00446881
0.0425906
0.034752
0.02837
0.0231097
0.0186513
0.0146654
0.0106239
0.00461606
0.0482761
0.0386232
0.0308954
0.0247274
0.0196758
0.0153024
0.0109977
0.00472936
0.0513583
0.0406166
0.0321032
0.0254442
0.020098
0.015552
0.011143
0.0047813
0.0498311
0.0394427
0.0312674
0.0248676
0.0197109
0.0153044
0.0109982
0.0047461
0.0444739
0.035749
0.0288171
0.0232665
0.0186806
0.0146597
0.0106222
0.00464213
0.0377413
0.0312655
0.0258364
0.02129
0.0173847
0.0138306
0.0101252
0.00450291
0.0365507
0.0307573
0.0257346
0.021358
0.0174756
0.0138793
0.010122
0.00447278
0.042717
0.0349074
0.0285335
0.023244
0.0187337
0.0147003
0.0106269
0.00462107
0.0483004
0.0386277
0.0309511
0.0247967
0.0197256
0.0153236
0.0109969
0.00473543
0.0513618
0.0404788
0.0320492
0.0254477
0.020116
0.0155625
0.0111411
0.00479102
0.0494131
0.0391356
0.0311261
0.0248266
0.0197115
0.0153143
0.0110034
0.00476406
0.043903
0.0354235
0.0286808
0.0232337
0.0186921
0.0146828
0.0106418
0.00467088
0.0373284
0.0310512
0.0257695
0.021303
0.0174268
0.0138747
0.0101587
0.00453916
0.0363214
0.0306614
0.0256696
0.0212807
0.0173867
0.0137886
0.0100404
0.00443743
0.0420953
0.0345782
0.0283391
0.0230994
0.0186116
0.0145978
0.0105466
0.00458734
0.0471555
0.0379496
0.0305559
0.0245509
0.0195556
0.0152037
0.0109141
0.00470212
0.0497287
0.0394834
0.0314771
0.0251115
0.0199095
0.0154344
0.0110616
0.00476245
0.0476892
0.0380915
0.0305298
0.0244849
0.0195143
0.015204
0.0109432
0.00474814
0.0424933
0.0345909
0.0282052
0.0229656
0.0185476
0.0146086
0.010607
0.0046705
0.0363845
0.0304999
0.0254608
0.0211332
0.0173385
0.0138296
0.0101373
0.00454728
0.0356422
0.0301677
0.0252832
0.0209727
0.0171536
0.0136238
0.00993479
0.00440132
0.0409551
0.0338132
0.0278034
0.0227109
0.0183441
0.0144286
0.0104504
0.00455561
0.0453262
0.0367893
0.0298033
0.024051
0.0192419
0.015024
0.0108243
0.00467564
0.0472808
0.037968
0.0305409
0.024535
0.0195743
0.0152594
0.0109854
0.00474421
0.0453094
0.0366125
0.0296218
0.0239448
0.019223
0.0150644
0.0108952
0.00474398
0.0406813
0.0334458
0.0274956
0.0225547
0.0183286
0.0145129
0.0105857
0.00467987
0.0351422
0.0297031
0.0249619
0.020837
0.0171779
0.0137621
0.0101249
0.004562
0.0348644
0.0295172
0.024765
0.0205975
0.0169042
0.0134819
0.00987084
0.00439504
0.0398777
0.0329895
0.0271797
0.0222832
0.0180839
0.0142967
0.0104021
0.00455667
0.0437186
0.0356775
0.0290282
0.0235671
0.018969
0.0149045
0.0107968
0.0046878
0.0451583
0.0366153
0.0296608
0.0240114
0.0193051
0.0151595
0.0109824
0.0047675
0.0433042
0.0353208
0.0288036
0.023475
0.0189919
0.0149985
0.010921
0.00477944
0.0391441
0.0324276
0.0268563
0.0221877
0.0181643
0.0144872
0.0106311
0.00472204
0.0340715
0.028981
0.02451
0.0205885
0.0170804
0.0137637
0.0101762
0.00460754
0.0341453
0.0288774
0.0242743
0.0202746
0.0167276
0.013412
0.00986573
0.00440352
0.039082
0.0322635
0.0266252
0.0219374
0.0179099
0.0142438
0.0104152
0.00457276
0.0427476
0.0348331
0.0284102
0.0231828
0.018798
0.0148754
0.0108375
0.00471736
0.043999
0.0356972
0.0290278
0.0236516
0.0191656
0.0151642
0.0110531
0.00481051
0.0421767
0.0344713
0.0282496
0.0231887
0.0189134
0.0150463
0.0110199
0.00483459
0.038207
0.0317518
0.0264488
0.0220142
0.0181538
0.0145696
0.010746
0.00478393
0.0333887
0.0285129
0.0242493
0.0205011
0.0171128
0.0138645
0.0102962
0.00467264
0.0334325
0.0283248
0.0239191
0.0200908
0.0166647
0.013418
0.00990217
0.00441876
0.0383443
0.0316339
0.0262278
0.0217435
0.0178579
0.0142695
0.0104692
0.00459408
0.0420749
0.0341968
0.028011
0.023022
0.0187806
0.0149344
0.0109185
0.00475074
0.0433449
0.0350884
0.028668
0.0235304
0.0191941
0.0152629
0.0111632
0.00485575
0.0415472
0.0339597
0.0279877
0.0231453
0.0189961
0.0151812
0.0111511
0.00488911
0.0376679
0.0313998
0.0263184
0.0220526
0.0182828
0.0147318
0.0108931
0.00484585
0.0330265
0.0283285
0.0242294
0.0205987
0.0172744
0.0140425
0.0104539
0.00473918
0.0327835
0.0279512
0.0237547
0.0200622
0.0167017
0.0134738
0.00995071
0.00443949
0.0375162
0.0311763
0.0260487
0.0217306
0.0179206
0.0143493
0.0105349
0.00462001
0.0412554
0.0337405
0.0278571
0.0230388
0.0188822
0.0150471
0.0110058
0.0047841
0.0426205
0.0347103
0.0285915
0.023627
0.0193469
0.0154118
0.0112723
0.00489532
0.0409504
0.0337187
0.0280191
0.0233149
0.0191963
0.0153607
0.0112771
0.00493326
0.0372862
0.0313311
0.0264564
0.0222776
0.0185175
0.0149325
0.0110338
0.0048967
0.0329168
0.028415
0.0244354
0.020853
0.0175247
0.0142511
0.0106026
0.0047948
0.032263
0.0277488
0.0237491
0.0201264
0.0167816
0.0135414
0.00999323
0.00445734
0.0367218
0.0308854
0.0260377
0.0218216
0.0180318
0.0144404
0.0105917
0.00464014
0.0402924
0.0333944
0.0278434
0.02317
0.0190317
0.0151629
0.0110741
0.00480055
0.0417186
0.0344443
0.0286548
0.0238043
0.0195313
0.0155527
0.0113523
0.00490856
0.0403385
0.033639
0.0281993
0.0235672
0.0194269
0.0155291
0.011371
0.0049476
0.0370651
0.031466
0.0267407
0.022586
0.0187836
0.0151217
0.0111415
0.00491662
0.0330093
0.0286814
0.0247635
0.0211784
0.0177908
0.0144415
0.0107151
0.00482102
0.03201
0.0267253
0.0222273
0.0183432
0.0149295
0.0118136
0.00862618
0.0039443
0.0371056
0.0298312
0.024158
0.0195523
0.0156782
0.0122663
0.00889038
0.00402386
0.0414179
0.0323498
0.0256361
0.0204352
0.0162101
0.0125856
0.00907725
0.00408118
0.0422476
0.0327138
0.0257897
0.0205094
0.0162558
0.0126203
0.00910612
0.00408875
0.0384363
0.0304381
0.0244087
0.0196644
0.015747
0.0123252
0.00894637
0.00403511
0.0331883
0.0270986
0.0222803
0.0183038
0.0148877
0.0117976
0.00864127
0.00393687
0.0281568
0.0238229
0.0201027
0.0168451
0.0139169
0.0111636
0.00824559
0.00380549
0.030897
0.0262571
0.022097
0.0183739
0.0150332
0.0119444
0.00874817
0.00402473
0.0350359
0.0289112
0.0238494
0.0195315
0.015785
0.0124221
0.00904173
0.00411824
0.0383135
0.0309234
0.0251254
0.0203536
0.016314
0.0127583
0.00924806
0.00418455
0.0388803
0.0312035
0.0252773
0.020456
0.0163928
0.0128215
0.00929662
0.00420185
0.0360179
0.0294394
0.0241587
0.019746
0.0159572
0.0125677
0.00916023
0.00415823
0.0319336
0.0267154
0.0223238
0.0185241
0.0151643
0.0120713
0.00886957
0.0040651
0.0277394
0.0238446
0.0203276
0.0171432
0.0142244
0.0114458
0.00847248
0.00393327
0.0303343
0.0260829
0.0221064
0.0184698
0.0151742
0.0121038
0.00889433
0.0041114
0.0338076
0.0284771
0.0237782
0.0196207
0.0159493
0.0126155
0.00922071
0.00422074
0.0362415
0.0301574
0.0249479
0.0204268
0.0164948
0.0129775
0.00945044
0.00429872
0.0366397
0.0303998
0.0251229
0.0205661
0.0166099
0.013071
0.00952102
0.00432634
0.0345921
0.029024
0.0241914
0.0199554
0.0162321
0.0128512
0.00940432
0.00429071
0.0313788
0.0267048
0.0225438
0.018827
0.0154864
0.0123771
0.0091223
0.00420004
0.0277329
0.0240745
0.0206517
0.0174908
0.0145641
0.0117555
0.00872306
0.00406741
0.0305191
0.0263257
0.0223435
0.0186982
0.0154023
0.0123265
0.00908563
0.00421465
0.0337828
0.0286993
0.024052
0.0198983
0.0162274
0.0128847
0.00944983
0.00434184
0.0358477
0.030294
0.0252355
0.0207437
0.0168146
0.0132842
0.00970883
0.00443436
0.0361598
0.0305553
0.0254588
0.0209326
0.0169711
0.0134097
0.00980283
0.00447286
0.0345675
0.0293736
0.0246247
0.0203826
0.0166324
0.013214
0.00969963
0.00444218
0.0317635
0.0272111
0.0230437
0.0192878
0.0159064
0.0127493
0.00942026
0.00435096
0.0282949
0.0246318
0.0211664
0.0179574
0.0149851
0.0121248
0.00901607
0.00421559
0.0313489
0.0269144
0.0227722
0.0190464
0.0157159
0.0126141
0.00932411
0.00433851
0.034836
0.029478
0.0246143
0.0203401
0.0166115
0.013228
0.00972936
0.00448464
0.0369851
0.0312076
0.0259126
0.0212701
0.0172611
0.0136743
0.0100223
0.00459334
0.0373367
0.0315462
0.0262106
0.0215187
0.0174623
0.0138325
0.0101391
0.00464148
0.0358269
0.0303906
0.0253992
0.0209921
0.0171443
0.013651
0.010044
0.00461285
0.0329897
0.0281647
0.0237839
0.0198895
0.0164185
0.013186
0.00976173
0.00451785
0.0293671
0.0254827
0.0218551
0.018535
0.0154832
0.0125498
0.00934773
0.00437673
0.0325429
0.0276703
0.0232922
0.0194636
0.0160896
0.0129526
0.00960308
0.00447027
0.0365819
0.0305612
0.0253188
0.0208703
0.017064
0.0136255
0.0100505
0.0046354
0.0391685
0.0325891
0.0267989
0.0219111
0.0177865
0.0141228
0.0103787
0.00476008
0.0396629
0.0330555
0.0271942
0.0222286
0.0180351
0.0143127
0.0105161
0.00481656
0.0379834
0.0318143
0.0263611
0.0217109
0.0177308
0.0141405
0.0104248
0.00478831
0.0347826
0.0293864
0.024662
0.0205781
0.0169923
0.013666
0.0101329
0.00468707
0.0307475
0.0264955
0.0226391
0.0191787
0.0160298
0.0130096
0.00970385
0.00453736
0.033754
0.0284169
0.0238336
0.0199284
0.0165133
0.0133302
0.00990974
0.00460636
0.0385174
0.03167
0.0260471
0.0214477
0.0175673
0.0140614
0.0103968
0.00478822
0.0418212
0.0340863
0.027731
0.0226053
0.0183652
0.0146097
0.0107585
0.00492806
0.0425559
0.0347219
0.0282365
0.0229954
0.0186608
0.0148292
0.0109138
0.00499195
0.0405371
0.0333525
0.0273763
0.0224865
0.0183661
0.0146608
0.0108205
0.00496235
0.0367586
0.0306634
0.0255837
0.0213165
0.0176062
0.0141677
0.0105115
0.00485208
0.032186
0.0275388
0.0234593
0.019861
0.0166043
0.0134813
0.0100614
0.00469079
0.034604
0.0290457
0.0243875
0.0204407
0.0169703
0.0137153
0.0102037
0.00474459
0.0399253
0.0325612
0.0267545
0.0220669
0.0181047
0.0145025
0.0107252
0.00494069
0.0439501
0.035315
0.0286149
0.0233354
0.0189767
0.0150992
0.0111162
0.0050947
0.0450134
0.0361391
0.0292321
0.0237989
0.0193191
0.015347
0.0112863
0.00516504
0.0427058
0.0347027
0.0283802
0.023303
0.0190286
0.0151757
0.0111859
0.0051318
0.0384171
0.0318431
0.0265294
0.0220933
0.0182347
0.014652
0.0108522
0.00500901
0.0334672
0.0285558
0.0243079
0.020571
0.0171792
0.0139239
0.0103733
0.00483298
0.0350643
0.0295662
0.0249219
0.0209334
0.0173884
0.0140419
0.0104318
0.00485928
0.0405414
0.0332141
0.0274071
0.0226583
0.0185945
0.0148763
0.0109799
0.00506431
0.044909
0.0361723
0.0294073
0.0240274
0.0195341
0.0155137
0.0113911
0.00522268
0.0462826
0.0371684
0.0301374
0.024565
0.0199202
0.0157838
0.0115676
0.00529294
0.0439993
0.0357926
0.0293288
0.0240822
0.019629
0.0156029
0.0114555
0.00525363
0.0396101
0.0328988
0.0274405
0.0228315
0.0187909
0.0150393
0.0110925
0.00511797
0.0345593
0.0295236
0.0251295
0.0212274
0.0176675
0.01426
0.0105786
0.00492704
0.0350829
0.0298184
0.0252546
0.0212585
0.0176691
0.0142608
0.0105802
0.00493329
0.0403899
0.0334377
0.0277814
0.023039
0.0189156
0.0151174
0.0111394
0.00513893
0.0447195
0.0364033
0.0298316
0.0244599
0.0198904
0.0157731
0.0115534
0.0052917
0.0462764
0.037524
0.0306514
0.0250522
0.0203047
0.01605
0.0117239
0.00535548
0.044268
0.0363354
0.0299356
0.0246025
0.0200163
0.0158553
0.0115954
0.00530742
0.0401682
0.0335773
0.0280636
0.0233264
0.0191358
0.0152536
0.0112049
0.0051616
0.035256
0.0302136
0.025708
0.0216556
0.01795
0.0144247
0.0106551
0.00495727
0.0348305
0.0298277
0.0253859
0.0214251
0.017832
0.0144061
0.0106951
0.00499674
0.03987
0.0333681
0.0279039
0.0232136
0.0190864
0.015267
0.0112535
0.00519725
0.0438786
0.0362446
0.029952
0.0246491
0.020067
0.0159147
0.0116527
0.00533787
0.0454919
0.0374445
0.0308366
0.0252666
0.0204811
0.0161773
0.011805
0.00539002
0.0439911
0.0364913
0.0302037
0.0248412
0.0201789
0.0159566
0.0116523
0.00532893
0.0403314
0.0339018
0.0283691
0.0235405
0.0192626
0.0153208
0.011234
0.00517166
0.0355923
0.0305563
0.0259642
0.0218054
0.0180187
0.0144447
0.010649
0.00495387
0.0347291
0.0298555
0.0254789
0.021557
0.0179856
0.0145673
0.0108395
0.00508096
0.0396758
0.0333919
0.0280063
0.0233462
0.0192333
0.0154171
0.0113853
0.00527345
0.0435859
0.0362846
0.0300805
0.0247822
0.0201969
0.01604
0.0117608
0.00539986
0.0453355
0.0375872
0.0310043
0.0254027
0.0205913
0.0162732
0.0118851
0.00543566
0.0441821
0.0367605
0.0304043
0.0249545
0.0202467
0.0160118
0.0116995
0.00535816
0.0406777
0.034168
0.028514
0.023596
0.0192788
0.0153307
0.0112466
0.00518449
0.0358688
0.0307101
0.0260054
0.0217786
0.0179721
0.0144066
0.0106275
0.00495247
0.0349833
0.030055
0.0256704
0.0217634
0.0182045
0.0147841
0.011028
0.00517594
0.0401358
0.0336859
0.02822
0.0235417
0.019431
0.0156116
0.0115551
0.00535963
0.044322
0.0367334
0.0303397
0.0249674
0.0203648
0.0162026
0.0119039
0.00547502
0.0463286
0.0381608
0.0312938
0.0255662
0.0207197
0.0163907
0.0119918
0.00549467
0.0452061
0.0372856
0.0306266
0.025055
0.0203185
0.0160816
0.0117686
0.00540036
0.0413984
0.0344684
0.0285873
0.0235938
0.0192736
0.0153453
0.0112757
0.00520754
0.0361825
0.0307579
0.02593
0.0216811
0.0179018
0.014374
0.0106254
0.00496089
0.0354353
0.0303845
0.0259721
0.0220672
0.0184996
0.0150435
0.0112353
0.0052665
0.0409013
0.0341053
0.0285246
0.0238225
0.019699
0.0158482
0.0117415
0.00544173
0.0455829
0.0373281
0.030662
0.0252198
0.0205949
0.0164045
0.0120631
0.00554737
0.047879
0.0388415
0.0316056
0.0257658
0.0208865
0.0165379
0.0121115
0.00555119
0.0464696
0.0377781
0.0308002
0.0251539
0.0204097
0.0161689
0.011843
0.00543761
0.0420209
0.0346105
0.0285794
0.0235784
0.0192855
0.0153724
0.0113062
0.00522478
0.0362601
0.030639
0.0257888
0.0215852
0.0178531
0.014356
0.0106279
0.00496463
0.0358239
0.0307924
0.0263932
0.0224626
0.0188324
0.015301
0.0114104
0.00534564
0.0413006
0.0344721
0.0289054
0.0241898
0.0200149
0.0160869
0.0118984
0.00551333
0.0462281
0.0377142
0.0310096
0.0255445
0.0208712
0.016608
0.0121922
0.00560652
0.0487288
0.0392121
0.0318596
0.026004
0.021092
0.0166916
0.0122038
0.00559474
0.0467564
0.0378767
0.030903
0.0252735
0.0205226
0.0162517
0.0118842
0.00546004
0.041819
0.0344611
0.0285265
0.0235916
0.0193162
0.0153909
0.0113074
0.00522937
0.0358935
0.0303878
0.0256536
0.0215257
0.0178275
0.0143364
0.0106048
0.0049585
0.0360634
0.0311897
0.0268222
0.0228356
0.0191163
0.0154865
0.0115045
0.00537875
0.0412293
0.0346907
0.0292499
0.0245297
0.0202792
0.016257
0.0119779
0.00553797
0.0458797
0.0377127
0.0312129
0.0257938
0.0210769
0.0167342
0.0122394
0.00561308
0.048212
0.0390001
0.0319011
0.0261474
0.0212234
0.0167637
0.0122117
0.00558302
0.0459095
0.0374852
0.0308035
0.0253006
0.0205635
0.0162597
0.0118541
0.00543416
0.0409222
0.0340451
0.0283734
0.0235462
0.0192889
0.0153504
0.0112459
0.0051946
0.0352518
0.030059
0.0254953
0.0214417
0.0177623
0.0142686
0.0105292
0.00492025
0.0280687
0.0238063
0.0201362
0.016904
0.0139839
0.0112263
0.00829379
0.00381645
0.0323164
0.0266424
0.0221323
0.0183409
0.0150143
0.0119459
0.008764
0.00396215
0.0358022
0.0289691
0.0237714
0.0195249
0.0158625
0.0125316
0.00913721
0.00407801
0.0368689
0.0298162
0.0244711
0.020091
0.0162983
0.0128446
0.00933931
0.00414118
0.0351795
0.0289844
0.0240781
0.0199207
0.016235
0.0128293
0.0093401
0.00414077
0.0321233
0.0271128
0.0228974
0.0191619
0.0157487
0.0125254
0.00915957
0.00408283
0.0286674
0.0248574
0.0213622
0.0181004
0.0150236
0.012045
0.00885673
0.00398446
0.0277237
0.0238813
0.0203972
0.0172248
0.0143043
0.0115141
0.0085211
0.0039408
0.0314466
0.0265395
0.0223596
0.0186755
0.0153571
0.0122536
0.00900608
0.0040887
0.0343898
0.0286886
0.0239723
0.0198762
0.016225
0.0128524
0.00938473
0.00420176
0.0354624
0.0295939
0.0247303
0.020488
0.0166874
0.0131773
0.00958886
0.00426104
0.0344108
0.0290702
0.0244795
0.020375
0.0166439
0.0131647
0.00958544
0.00425446
0.0320593
0.027501
0.0234085
0.019644
0.0161541
0.0128469
0.00939044
0.00418735
0.0290322
0.0253895
0.021891
0.0185554
0.0153907
0.0123292
0.00905687
0.00407509
0.0277761
0.0241541
0.0207501
0.0175903
0.014653
0.0118263
0.00876987
0.00407106
0.0312153
0.0267557
0.0227309
0.0190734
0.0157331
0.0125854
0.00926716
0.00422046
0.0338393
0.0288447
0.0243649
0.0203053
0.0166227
0.0131953
0.00964851
0.00432954
0.0349656
0.0298342
0.025198
0.0209613
0.0171049
0.0135252
0.00985031
0.004383
0.0343774
0.0295212
0.0250332
0.0208805
0.017067
0.0135056
0.00983589
0.00436705
0.0324853
0.0281171
0.0240014
0.0201427
0.0165561
0.0131641
0.00962014
0.00428783
0.0296665
0.0260273
0.0224405
0.0189975
0.0157395
0.0126012
0.00925182
0.00416014
0.0283817
0.0247425
0.021285
0.0180683
0.0150783
0.0121944
0.00905797
0.00421586
0.0318415
0.0274354
0.0233483
0.0196077
0.0161924
0.0129725
0.00956384
0.00436507
0.0344496
0.0296144
0.0250668
0.0208944
0.0171086
0.0135917
0.00994517
0.00446892
0.0357014
0.030723
0.0259844
0.0215908
0.0176041
0.0139198
0.0101392
0.00451424
0.035369
0.0305102
0.0258496
0.0215112
0.0175526
0.0138811
0.0101067
0.00448606
0.0336204
0.029097
0.0247655
0.0207185
0.0169944
0.0135017
0.00986196
0.0043919
0.0307168
0.0268729
0.0230821
0.0194772
0.0161054
0.0128845
0.00945535
0.0042475
0.0294886
0.0256163
0.0219862
0.0186504
0.0155742
0.0126123
0.00937967
0.0043694
0.0332554
0.0285289
0.0241808
0.0202598
0.0167223
0.0134045
0.00988801
0.00451688
0.0361371
0.03093
0.0260385
0.0216157
0.017666
0.0140295
0.0102658
0.00461645
0.037606
0.0321934
0.0270389
0.0223484
0.0181663
0.0143481
0.0104472
0.00465245
0.0373474
0.0319848
0.0268834
0.0222358
0.0180811
0.014279
0.0103894
0.00460997
0.0354303
0.0303936
0.0256599
0.021343
0.0174515
0.0138477
0.010108
0.00449781
0.0321442
0.027884
0.0237813
0.0199714
0.0164738
0.0131687
0.00966011
0.00433443
0.030892
0.0266428
0.0227744
0.0192905
0.0161112
0.0130582
0.00971999
0.00451852
0.0351825
0.029848
0.0251136
0.0209657