/*--------------------------------*- C++ -*----------------------------------*\
| =========                 |                                                 |
| \\      /  F ield         | OpenFOAM: The Open Source CFD Toolbox           |
|  \\    /   O peration     | Version:  plus.master.MPPICInterFoam            |
|   \\  /    A nd           | Web:      www.OpenFOAM.com                      |
|    \\/     M anipulation  |                                                 |
\*---------------------------------------------------------------------------*/
FoamFile
{
    version     2.0;
    format      ascii;
    class       volScalarField;
    location    "4";
    object      nut;
}
// * * * * * * * * * * * * * * * * * * * * * * * * * * * * * * * * * * * * * //

dimensions      [0 2 -1 0 0 0 0];

internalField   nonuniform List<scalar> 
11821
(
0.000504936
0.00051176
0.000493326
0.000508537
0.000494647
0.000473223
0.000438226
0.000460272
0.000477993
0.000487061
0.000486872
0.000480074
0.000466534
0.000459767
0.000487352
0.000510494
0.000523198
0.000519369
0.000506603
0.000489612
0.000479388
0.000495213
0.000495405
0.000495674
0.000515132
0.000525673
0.000508419
0.000492786
0.000481855
0.000517111
0.000495986
0.000520153
0.000539863
0.000521947
0.00049198
0.000497274
0.00052625
0.0004964
0.000533658
0.00054254
0.000521427
0.000477929
0.000504802
0.00051489
0.000528494
0.00053943
0.000531793
0.000508754
0.00045646
0.000488107
0.000515174
0.000528416
0.000524168
0.000508863
0.00048769
0.000454751
0.000477014
0.000493138
0.000502359
0.000504671
0.000498329
0.000482664
0.000475695
0.000506829
0.000534925
0.000547155
0.000542571
0.000527022
0.000507446
0.000494447
0.000535729
0.000539874
0.000558077
0.000571953
0.000555861
0.000526191
0.00050819
0.000547295
0.000567934
0.000568582
0.000553059
0.000576889
0.000537695
0.000506235
0.000555808
0.000547859
0.000553193
0.000571278
0.000574046
0.00053632
0.00049051
0.000534688
0.000571274
0.000588248
0.000577489
0.000552439
0.000523323
0.000468159
0.000500619
0.000529012
0.000542311
0.000537537
0.000522376
0.000499666
0.000468711
0.000492232
0.000508776
0.000518271
0.000520358
0.00051276
0.000494632
0.00048959
0.000518716
0.000543367
0.00055529
0.000553925
0.000541741
0.000520989
0.000505217
0.000547233
0.000580788
0.000601597
0.000592946
0.000568936
0.000540063
0.000513725
0.000566965
0.00054127
0.000565074
0.000600587
0.000587768
0.000550024
0.000511419
0.000560592
0.000554274
0.000572914
0.000603524
0.000583598
0.000547796
0.00049905
0.000538878
0.000574804
0.000592913
0.000584197
0.000561568
0.000533109
0.000477006
0.000508173
0.000532374
0.000545152
0.000544185
0.000530862
0.00050698
0.000480864
0.000505914
0.000523681
0.000533356
0.000534417
0.000525026
0.000504688
0.00050253
0.000531697
0.00055472
0.000566402
0.000567187
0.000555257
0.000532328
0.000517291
0.000554089
0.000589088
0.000602983
0.000599859
0.000580131
0.00055185
0.000523649
0.00056624
0.000585618
0.000581882
0.000621007
0.000595405
0.000561184
0.000520991
0.000563181
0.000598362
0.000612527
0.00061839
0.000591584
0.00055771
0.000507914
0.000544289
0.000576344
0.000592434
0.000589085
0.000569955
0.00054095
0.000484696
0.000515763
0.000539368
0.000551845
0.000551473
0.000537819
0.000512551
0.00049333
0.000520123
0.000539678
0.000549909
0.000550061
0.000538569
0.000515526
0.000516356
0.00054863
0.00057434
0.00058686
0.000587373
0.000573022
0.000545263
0.000532176
0.000572041
0.000608267
0.000620778
0.000620642
0.000600791
0.000566766
0.000538664
0.000584581
0.000641288
0.000650425
0.000649616
0.000615345
0.000576313
0.000534615
0.000580734
0.000638454
0.000656492
0.000649824
0.000611749
0.000571603
0.000519126
0.000558476
0.000593002
0.000608857
0.000607455
0.000586387
0.000551516
0.000493628
0.000526067
0.000551377
0.000564504
0.000563587
0.000547726
0.000519557
0.000507289
0.000536174
0.00055859
0.000570283
0.000569434
0.000554333
0.000527608
0.000532094
0.000570447
0.00060535
0.000619243
0.000621611
0.000598696
0.000560406
0.000550219
0.000603767
0.000647173
0.000661128
0.000664977
0.000648018
0.00058709
0.000557312
0.000615635
0.000682137
0.000716554
0.000700767
0.000655061
0.000599055
0.00055173
0.00061006
0.00067555
0.000709148
0.000701025
0.000652331
0.00059106
0.000533139
0.000581542
0.000627459
0.000643501
0.000645236
0.000614496
0.000564354
0.000504688
0.000539498
0.0005693
0.000586247
0.000581872
0.000560165
0.000527906
0.000522023
0.000551654
0.000575201
0.000590024
0.000585648
0.000567267
0.000538857
0.000547335
0.000589165
0.000637016
0.000669656
0.000657286
0.000616059
0.00057161
0.000565535
0.000631734
0.000710388
0.000707193
0.00071896
0.000667459
0.000598766
0.000575297
0.00065434
0.000733109
0.000746336
0.00074654
0.0006986
0.0006148
0.000567985
0.000642428
0.000715515
0.000752005
0.000738895
0.000677907
0.000603241
0.000545786
0.000599305
0.000656239
0.000680652
0.000671349
0.000623613
0.000571622
0.00051631
0.000551013
0.000583412
0.000601466
0.000594433
0.000567239
0.000534936
0.000537133
0.000564641
0.000584021
0.000594531
0.000590715
0.000574722
0.000548502
0.000560242
0.000588735
0.000608817
0.000626441
0.000615339
0.000600211
0.000576117
0.000574221
0.000599381
0.000611308
0.000720268
0.000653713
0.000594291
0.000592005
0.000581149
0.000617649
0.000644087
0.000712919
0.000676217
0.000620599
0.000599387
0.000573003
0.000601727
0.000596104
0.000607067
0.000563312
0.000599393
0.000590755
0.000553596
0.000579985
0.000593815
0.000629785
0.000599049
0.000587046
0.000570107
0.000527084
0.000555389
0.000576028
0.00058653
0.000582381
0.000566205
0.000539513
0.000557061
0.000583785
0.000601491
0.000607773
0.000603259
0.000588627
0.000562297
0.000579506
0.000600518
0.000599165
0.000593459
0.000592668
0.000600255
0.000586981
0.000591566
0.000590508
0.000576222
0.000545029
0.000571361
0.000586172
0.000598946
0.000592695
0.000573508
0.00055753
0.000601447
0.000532866
0.000554378
0.00060258
0.000584725
0.000568029
0.000556015
0.000552019
0.000566577
0.000571461
0.000594374
0.000568384
0.0005758
0.000555069
0.000538158
0.000563644
0.000584995
0.000577535
0.000543393
0.000566403
0.000580375
0.000588525
0.000585571
0.0005741
0.000550098
0.000582054
0.000613164
0.000634338
0.000642017
0.000634952
0.000613673
0.000581915
0.000609539
0.000640675
0.000654166
0.000651764
0.000649027
0.000637971
0.000611247
0.000625455
0.000646034
0.000622414
0.00060441
0.000634322
0.000639494
0.000628569
0.000628164
0.000637963
0.000618817
0.000540292
0.000632391
0.000620925
0.000631559
0.000618981
0.000630644
0.000613928
0.000635508
0.000637115
0.000630747
0.00062343
0.00059749
0.00061787
0.000616286
0.000602327
0.000622005
0.000625966
0.000601574
0.000568622
0.000594892
0.000612941
0.000619838
0.000616004
0.000598732
0.00057025
0.000601861
0.000639639
0.000665509
0.000673831
0.000662477
0.000634733
0.000596045
0.000637232
0.000685226
0.000725114
0.000737351
0.000718077
0.000680729
0.000632114
0.000658353
0.000717309
0.000726268
0.000704425
0.000708941
0.000714133
0.000655914
0.000662645
0.00072079
0.00069289
0.000685623
0.000706586
0.000723208
0.000663234
0.000651798
0.000705817
0.000688741
0.000691381
0.000688544
0.000708343
0.000651152
0.000626287
0.000670361
0.000701082
0.000713021
0.000703834
0.000671524
0.000623988
0.000591678
0.000624311
0.000647766
0.000657228
0.000647623
0.000622551
0.000587747
0.000611164
0.000653596
0.000683574
0.000689025
0.000673
0.000641462
0.000599914
0.000652969
0.00071225
0.000765322
0.000766572
0.000740271
0.000691101
0.000638077
0.000679763
0.000752254
0.000810722
0.000803583
0.00078635
0.000729244
0.000662654
0.000684769
0.000758281
0.000799964
0.000786175
0.000765926
0.000743236
0.000669484
0.000671534
0.000737051
0.0007846
0.000761495
0.000770195
0.000723068
0.00065865
0.000643396
0.000691861
0.000731397
0.00074521
0.00072405
0.000681092
0.000632637
0.000605602
0.000640757
0.000664075
0.000670495
0.000659364
0.000633016
0.000596473
0.000611946
0.000653869
0.000683477
0.000691998
0.000672185
0.00063938
0.00059854
0.000656163
0.000721848
0.000777615
0.000784538
0.000744107
0.000688386
0.000636063
0.000690012
0.00078204
0.000835188
0.000834698
0.000792734
0.000724762
0.000660136
0.000697655
0.000783814
0.000840374
0.000819809
0.000805596
0.000736472
0.000667464
0.000681676
0.000756154
0.00080744
0.000805781
0.000779705
0.000719188
0.000658401
0.000651505
0.000702413
0.000742128
0.00074932
0.000724741
0.000681121
0.000634765
0.00061301
0.000648439
0.000671175
0.000676037
0.000663449
0.000636788
0.00060064
0.00060791
0.000642718
0.000664925
0.000674616
0.000660413
0.000632868
0.000596312
0.000647693
0.000691134
0.00070735
0.000740276
0.000719056
0.000676374
0.000631298
0.000679768
0.000745615
0.000825829
0.000822058
0.000767307
0.00071062
0.000653782
0.000693363
0.000780951
0.000836508
0.000808916
0.000786475
0.000724631
0.000661797
0.000679426
0.000747581
0.000811158
0.000797125
0.000767268
0.000708924
0.000655073
0.000652197
0.000696739
0.000737199
0.000746238
0.000715954
0.000676503
0.000634995
0.000617015
0.000649758
0.000671231
0.000676221
0.000662413
0.000637961
0.000604085
0.000604465
0.000631801
0.000648217
0.00065283
0.000645728
0.000627392
0.000597193
0.00063644
0.000650212
0.000653242
0.000654224
0.000667908
0.000660754
0.000628604
0.000656447
0.000635433
0.000632784
0.000689879
0.000682636
0.000684897
0.000649047
0.00066972
0.000661252
0.000763673
0.000735022
0.0007098
0.000697134
0.000657617
0.000665083
0.000662659
0.000660942
0.000704262
0.000686188
0.000688534
0.000653208
0.000648655
0.000668178
0.000671478
0.00067253
0.00067895
0.000668505
0.000637046
0.000620924
0.000648904
0.000665029
0.000667629
0.000659427
0.000640085
0.000609994
0.000610833
0.000637756
0.000653238
0.00065614
0.00064983
0.000633983
0.000606349
0.000642426
0.000655239
0.000657581
0.00065703
0.000665099
0.000664732
0.000637043
0.000665036
0.000656644
0.000665969
0.000657772
0.000669804
0.000686651
0.000657114
0.000678504
0.000666765
0.000587734
0.000708222
0.000684006
0.000699625
0.000666186
0.000675425
0.000674335
0.000680173
0.000691882
0.000682072
0.000694191
0.000663483
0.000659642
0.00067975
0.000681384
0.000680664
0.000684851
0.000678399
0.0006489
0.000632661
0.000661432
0.000677735
0.000679812
0.000671004
0.00065218
0.00062226
0.00014611
1.79812e-05
0.000413133
0.000377616
0.000329733
0.000261503
0.000157142
1.9575e-05
0.000472013
0.000447273
0.00041954
0.000383893
0.000335935
0.000267549
0.000162064
2.02466e-05
0.000472627
0.000447645
0.000419211
0.000382869
0.000334396
0.000265692
0.000160291
1.98342e-05
0.000464419
0.000440161
0.000410991
0.000373778
0.000324661
0.000255753
0.0001519
1.84216e-05
0.000447163
0.000423712
0.000393899
0.000355984
0.000306383
0.000237738
0.000137437
1.63017e-05
0.000444606
0.000421288
0.000391109
0.000352359
0.000301413
0.000231407
0.000131781
1.6013e-05
0.000466388
0.000442527
0.000412437
0.000373863
0.000323055
0.000252282
0.000147883
1.82312e-05
0.00048158
0.000456956
0.000426598
0.000387801
0.000336935
0.000265828
0.000158784
1.98131e-05
0.000489796
0.000463957
0.000433098
0.000393979
0.000342905
0.000271612
0.000163477
2.04586e-05
0.000489575
0.000463256
0.000431718
0.000392085
0.000340681
0.000269258
0.000161408
2.00166e-05
0.000480096
0.000453746
0.000421682
0.000381681
0.000330049
0.00025871
0.000152705
1.85757e-05
0.00046059
0.00043489
0.000402727
0.000362594
0.000310865
0.000240065
0.000137936
1.64277e-05
0.000458117
0.000432421
0.00040013
0.000359399
0.000306418
0.000234239
0.000132699
1.61722e-05
0.000481755
0.000454834
0.000422054
0.000381245
0.000328345
0.000255341
0.000148875
1.83901e-05
0.000497996
0.000470094
0.000436473
0.000395117
0.000342071
0.000268742
0.000159581
1.99454e-05
0.000505959
0.000477044
0.000442705
0.000400831
0.000347558
0.000274127
0.000163968
2.05587e-05
0.000504465
0.000475065
0.000440267
0.000398115
0.000344707
0.000271304
0.000161612
2.00902e-05
0.000492778
0.000463425
0.000428764
0.000386771
0.000333426
0.00026028
0.000152661
1.86332e-05
0.000470507
0.000442505
0.000408481
0.000366794
0.000313541
0.000241076
0.000137634
1.64719e-05
0.000468131
0.000440976
0.000407441
0.000365443
0.000310956
0.000236952
0.000133607
1.62997e-05
0.0004928
0.000463739
0.000429401
0.000387315
0.000333031
0.000258253
0.000149851
1.85139e-05
0.000509649
0.000479025
0.000443418
0.000400697
0.000346386
0.000271408
0.000160312
2.00407e-05
0.000517363
0.000485557
0.000448949
0.000405658
0.000351245
0.000276337
0.000164397
2.06243e-05
0.000514522
0.000482367
0.000445592
0.000402234
0.000347838
0.000273075
0.000161752
2.01328e-05
0.000500703
0.000469259
0.000433231
0.00039035
0.000336112
0.00026164
0.000152553
1.86637e-05
0.000476451
0.000447169
0.000412292
0.000369893
0.000315718
0.000241933
0.000137287
1.6494e-05
0.000476683
0.000448683
0.000414395
0.000371529
0.000315833
0.000240122
0.000134786
1.64279e-05
0.000501837
0.000471349
0.000436089
0.000393241
0.000337957
0.000261583
0.000151053
1.86311e-05
0.000518812
0.000486196
0.000449391
0.000405964
0.000350873
0.00027449
0.000161312
2.0138e-05
0.000526016
0.000491924
0.000454002
0.000410078
0.000355103
0.000279022
0.000165153
2.07008e-05
0.000521974
0.000487744
0.000449881
0.000406059
0.000351219
0.000275356
0.000162225
2.01944e-05
0.000506551
0.000473726
0.000437044
0.000393867
0.000339156
0.000263523
0.000152753
1.87187e-05
0.000480933
0.000451011
0.000415831
0.000373162
0.00031836
0.000243335
0.00013725
1.65418e-05
0.000485641
0.000456828
0.000421835
0.000378196
0.000321409
0.000244028
0.000136416
1.65752e-05
0.000511414
0.00047934
0.000443182
0.000399674
0.000343505
0.000265568
0.000152664
1.87743e-05
0.000528847
0.000493695
0.000455698
0.000411725
0.000356039
0.000278331
0.000162815
2.02739e-05
0.00053576
0.000498642
0.000459431
0.000415074
0.00035976
0.000282584
0.000166499
2.0825e-05
0.000530557
0.000493639
0.000454674
0.000410585
0.000355503
0.000278585
0.000163328
2.03031e-05
0.0005133
0.0004788
0.000441512
0.000398208
0.000343167
0.000266368
0.000153585
1.88134e-05
0.000486121
0.000455586
0.000420199
0.000377381
0.000322029
0.000245708
0.000137821
1.66257e-05
0.000495425
0.000465753
0.000430049
0.000385729
0.000328006
0.00024908
0.000138963
1.67054e-05
0.000521816
0.000488008
0.000450975
0.000406941
0.000350073
0.000270731
0.000155292
1.89016e-05
0.000540094
0.000501857
0.000462737
0.000418446
0.000362393
0.000283522
0.00016551
2.03996e-05
0.000547141
0.000506172
0.000465669
0.000421164
0.000365767
0.000287647
0.000169145
2.09446e-05
0.000540436
0.000500311
0.000460387
0.000416346
0.000361258
0.000283391
0.00016575
2.04123e-05
0.000520897
0.000484746
0.000447076
0.000403909
0.000348701
0.00027078
0.00015567
1.89127e-05
0.000492319
0.000461308
0.000425872
0.000383074
0.000327278
0.000249667
0.000139595
1.67183e-05
0.000505316
0.000475184
0.000439024
0.000394214
0.000335663
0.000255284
0.00014252
1.68102e-05
0.00053124
0.000496843
0.000459517
0.000415245
0.000357766
0.000277097
0.000159023
1.90054e-05
0.000548528
0.000509652
0.000470474
0.000426383
0.0003701
0.000290106
0.000169468
2.05074e-05
0.000554844
0.000512982
0.000472595
0.000428657
0.000373369
0.000294284
0.000173162
2.10525e-05
0.000547233
0.000506531
0.000466996
0.000423686
0.000368741
0.000289852
0.000169569
2.0516e-05
0.000527144
0.000491032
0.000453939
0.000411367
0.000356033
0.000276881
0.000159134
1.90117e-05
0.000498743
0.000468093
0.000433155
0.000390623
0.000334377
0.000255368
0.000142724
1.68148e-05
0.000515283
0.00048524
0.000448702
0.000403037
0.000343215
0.000261093
0.000145741
1.68825e-05
0.000539345
0.000506092
0.000469067
0.000424312
0.00036567
0.000283183
0.00016241
1.90901e-05
0.000553355
0.00051744
0.000479501
0.000435509
0.000378339
0.000296531
0.000173057
2.06114e-05
0.00055708
0.000519398
0.000480905
0.000437667
0.000381789
0.000300896
0.000176807
2.11737e-05
0.000549502
0.000512728
0.000475237
0.000432721
0.00037714
0.000296342
0.000173044
2.06388e-05
0.00053173
0.000498243
0.000462737
0.000420521
0.000364217
0.000283008
0.000162316
1.91244e-05
0.000505547
0.000476475
0.000442354
0.000399636
0.000342162
0.000261081
0.000145643
1.69193e-05
0.000528289
0.000497037
0.000458774
0.000411042
0.000348948
0.00026448
0.000147007
1.69713e-05
0.000551957
0.000518618
0.000480271
0.000433406
0.000372164
0.000286933
0.000163744
1.91926e-05
0.000564574
0.000529722
0.00049129
0.000445481
0.000385623
0.000300718
0.000174479
2.0731e-05
0.000566981
0.000531004
0.00049287
0.000448244
0.000389658
0.000305391
0.000178251
2.13068e-05
0.000559167
0.000524408
0.000487325
0.000443384
0.000384991
0.000300732
0.000174386
2.07802e-05
0.00054251
0.00051041
0.000474698
0.000430712
0.000371516
0.000286981
0.000163505
1.92685e-05
0.000517455
0.000488617
0.000453651
0.000408947
0.000348682
0.000264597
0.00014672
1.70592e-05
0.000543433
0.000508654
0.00046718
0.00041644
0.000351618
0.000264831
0.000146196
1.69222e-05
0.000570462
0.000532883
0.000490663
0.000440246
0.000375738
0.000287657
0.000162913
1.91391e-05
0.000585324
0.000546117
0.000503621
0.000453909
0.000390191
0.000301811
0.000173569
2.06725e-05
0.000587815
0.000548245
0.000506488
0.000457832
0.000394999
0.000306773
0.000177302
2.12549e-05
0.000579874
0.000541722
0.000501103
0.000453096
0.000390366
0.000302115
0.000173487
2.07537e-05
0.000561789
0.000526577
0.000487421
0.000439547
0.000376327
0.000288137
0.000162718
1.92749e-05
0.00053455
0.000502942
0.000464816
0.000416531
0.000352624
0.000265362
0.000145971
1.7083e-05
0.000553105
0.000515263
0.00047141
0.000418615
0.000351933
0.000263548
0.00014449
1.67994e-05
0.000583608
0.000541622
0.000496387
0.000443502
0.000376797
0.000286768
0.000161238
1.90079e-05
0.000601834
0.00055741
0.000511241
0.000458456
0.000392014
0.000301175
0.000171828
2.05354e-05
0.000606032
0.000561302
0.000515627
0.00046357
0.000397529
0.000306411
0.000175588
2.11294e-05
0.00059772
0.00055495
0.000510624
0.000459209
0.000393211
0.00030192
0.000171967
2.06644e-05
0.000577924
0.000538879
0.000496363
0.000445324
0.000378814
0.000287879
0.000161425
1.92286e-05
0.000548384
0.000513775
0.000472609
0.000421252
0.000354359
0.000264827
0.000144721
1.70566e-05
0.000555708
0.000517172
0.000472818
0.000419493
0.000351941
0.00026273
0.000143378
1.67432e-05
0.000587352
0.000544304
0.000498478
0.000445085
0.000377508
0.00028641
0.000160244
1.89571e-05
0.000606948
0.000561173
0.000514299
0.000461044
0.000393384
0.000301211
0.000170998
2.0494e-05
0.000612504
0.000566494
0.000519869
0.000466914
0.000399419
0.000306705
0.000174929
2.11018e-05
0.000604936
0.000560983
0.000515656
0.000463002
0.000395164
0.000302309
0.000171531
2.06608e-05
0.000585452
0.000545264
0.000501573
0.000448846
0.000380611
0.000288311
0.000161095
1.92424e-05
0.00055602
0.000520223
0.00047761
0.000424565
0.000356049
0.000265163
0.000144332
1.70799e-05
0.000555686
0.000518144
0.000474426
0.000421268
0.000353476
0.000263793
0.000143836
1.67478e-05
0.000586745
0.000545097
0.000500325
0.000447419
0.00037961
0.000287932
0.000160952
1.89784e-05
0.000606228
0.000561984
0.000516486
0.000463503
0.000395827
0.000303161
0.000172047
2.05433e-05
0.000612859
0.000568301
0.00052295
0.00047022
0.000402357
0.000308987
0.000176219
2.11796e-05
0.000606771
0.000564155
0.000519665
0.000466919
0.000398539
0.000304857
0.000172975
2.07631e-05
0.000588959
0.000549638
0.000506242
0.000453199
0.000384166
0.000290888
0.000162489
1.93532e-05
0.000561019
0.000525377
0.000482411
0.000428717
0.000359363
0.000267536
0.000145527
1.71875e-05
0.000556561
0.000520763
0.000477929
0.000424913
0.000356758
0.000266352
0.000145353
1.67755e-05
0.000586125
0.000547241
0.000504184
0.000451642
0.000383448
0.000290965
0.000162795
1.9023e-05
0.000604814
0.000564085
0.000520841
0.000468694
0.000400427
0.000306779
0.00017427
2.0615e-05
0.000612133
0.000571123
0.000527959
0.000475808
0.000407379
0.000312986
0.000178714
2.12772e-05
0.000607995
0.000568356
0.000525412
0.000472875
0.000403753
0.000309
0.000175503
2.08781e-05
0.000592564
0.000555191
0.000512444
0.000459107
0.000389259
0.000294974
0.000164952
1.94766e-05
0.000566405
0.000531492
0.000488482
0.000434304
0.000364248
0.000271448
0.000147901
1.7312e-05
0.00056102
0.000526204
0.000483422
0.000429775
0.000360483
0.000268766
0.000146541
1.6829e-05
0.000589407
0.000553109
0.000510679
0.00045751
0.000387982
0.000293939
0.0001643
1.90947e-05
0.000607238
0.00057024
0.000528119
0.000475262
0.000405708
0.00031036
0.000176132
2.07246e-05
0.000614884
0.000577925
0.000535916
0.0004831
0.000413064
0.000316953
0.000180853
2.14178e-05
0.000612542
0.000575987
0.000533609
0.000480121
0.000409436
0.000313091
0.000177744
2.1036e-05
0.000599116
0.000563244
0.000520335
0.000465877
0.000394661
0.000298938
0.000167164
1.96387e-05
0.000574114
0.000539331
0.000495681
0.000440504
0.000369268
0.000275114
0.000149994
1.74617e-05
0.00057034
0.000534531
0.000490384
0.000434678
0.000363367
0.000269931
0.00014672
1.68867e-05
0.000600077
0.000563224
0.000519248
0.000463725
0.000391852
0.000295718
0.000164744
1.91655e-05
0.000618752
0.00058158
0.000537599
0.000482525
0.000410409
0.000312716
0.000176894
2.08027e-05
0.000626909
0.000589929
0.000545929
0.000490422
0.000417897
0.000319602
0.000181849
2.14985e-05
0.000625043
0.000587768
0.000543246
0.000487208
0.000414208
0.000315866
0.000178908
2.11223e-05
0.000611506
0.000574104
0.000528987
0.000472334
0.00039919
0.000301618
0.000168374
1.97332e-05
0.0005852
0.000548605
0.000503075
0.000446165
0.000373081
0.000277372
0.000151085
1.75612e-05
0.000424445
0.000399944
0.000371144
0.000335547
0.000288674
0.000222768
0.000126962
1.59064e-05
0.000440286
0.000412233
0.000383087
0.000348442
0.000302866
0.000237463
0.000138858
1.78601e-05
0.000448783
0.000417604
0.000388267
0.000354757
0.000310598
0.00024606
0.00014624
1.91811e-05
0.000449379
0.000417761
0.000389014
0.000356402
0.000312894
0.000248568
0.000148383
1.9604e-05
0.000442001
0.00041434
0.000387026
0.000354392
0.000310112
0.000244912
0.000144988
1.90373e-05
0.000429863
0.000406408
0.00038019
0.000346842
0.000301057
0.000234774
0.000136421
1.76109e-05
0.000413667
0.000393052
0.000366743
0.000332005
0.000284551
0.000217811
0.000123088
1.55579e-05
0.000436081
0.000410171
0.000379631
0.000342031
0.000292831
0.000224443
0.000126913
1.6037e-05
0.000453184
0.00042442
0.000393473
0.000356498
0.000308252
0.000239966
0.000139145
1.80308e-05
0.000461907
0.000431424
0.000400517
0.000364299
0.000317007
0.000249154
0.000146718
1.9378e-05
0.000462898
0.000432634
0.000402361
0.000366808
0.000319892
0.00025204
0.000149039
1.98278e-05
0.000457354
0.000429597
0.00040022
0.000364604
0.00031704
0.000248484
0.000145845
1.92864e-05
0.000446077
0.000421143
0.000392449
0.000356263
0.000307476
0.000238167
0.000137383
1.7866e-05
0.00042909
0.000406367
0.000377616
0.00034028
0.000290125
0.000220719
0.000123934
1.57938e-05
0.000445006
0.000418096
0.000386519
0.000347657
0.000296732
0.000226244
0.000127082
1.61608e-05
0.000463582
0.000433927
0.000401669
0.000363256
0.000313174
0.000242569
0.000139692
1.81983e-05
0.00047339
0.000442654
0.000410109
0.000372074
0.000322687
0.000252281
0.000147476
1.95756e-05
0.000475469
0.00044506
0.000412953
0.000375274
0.000326063
0.000255532
0.000150009
2.00534e-05
0.000470976
0.000442163
0.000410836
0.000373134
0.000323307
0.000252127
0.000147006
1.95333e-05
0.000459748
0.000433137
0.000402578
0.000364461
0.000313495
0.000241697
0.000138594
1.81133e-05
0.00044177
0.000417371
0.000386912
0.000347731
0.000295504
0.000223835
0.000125034
1.60222e-05
0.000452686
0.000425375
0.000393371
0.00035374
0.000301413
0.000228915
0.00012781
1.63023e-05
0.00047254
0.000442178
0.000409348
0.000370227
0.000318833
0.000246125
0.000140891
1.83911e-05
0.000483914
0.000452078
0.000418607
0.000379722
0.000328989
0.0002564
0.00014898
1.98073e-05
0.00048713
0.000455477
0.000422186
0.00038346
0.000332787
0.000260006
0.000151761
2.03153e-05
0.000483022
0.000452887
0.000420406
0.000381599
0.000330206
0.000256734
0.000148886
1.9809e-05
0.000471559
0.000443761
0.000412153
0.000372832
0.000320207
0.000246142
0.000140452
1.83811e-05
0.000452908
0.000427556
0.000396077
0.000355614
0.000301706
0.000227896
0.000126746
1.62658e-05
0.000461032
0.000433527
0.000401314
0.000361086
0.000307456
0.000232876
0.000129314
1.65108e-05
0.000482033
0.000451002
0.000417924
0.000378405
0.000325899
0.000251079
0.000142971
1.86604e-05
0.000494828
0.000461673
0.000427726
0.000388464
0.000336713
0.000262018
0.000151497
2.01277e-05
0.00049912
0.000465876
0.000431898
0.000392648
0.000340887
0.00026598
0.000154544
2.0665e-05
0.000495267
0.000463797
0.000430598
0.000391064
0.000338406
0.000262744
0.000151726
2.01616e-05
0.000483483
0.000454756
0.000422447
0.000382225
0.00032818
0.000251919
0.000143188
1.87119e-05
0.000464327
0.000438354
0.000406124
0.000364602
0.000309184
0.00023322
0.000129243
1.65611e-05
0.000471081
0.000443431
0.000411067
0.0003703
0.000315416
0.000238702
0.000132144
1.67485e-05
0.000493174
0.000461476
0.000428268
0.000388466
0.000334926
0.000257981
0.000146509
1.89619e-05
0.000507352
0.000472804
0.00043856
0.000399095
0.000346442
0.000269668
0.000155571
2.04808e-05
0.000512615
0.000477688
0.000443233
0.000403661
0.000350944
0.000273951
0.000158873
2.1043e-05
0.00050887
0.000476025
0.000442268
0.000402211
0.00034843
0.000270642
0.000156022
2.05354e-05
0.000496697
0.000467094
0.000434178
0.000393169
0.000337831
0.000259426
0.000147219
1.90566e-05
0.000477046
0.000450485
0.000417538
0.000375042
0.000318244
0.000240162
0.0001329
1.68628e-05
0.000482631
0.000455218
0.000422875
0.000381612
0.000325432
0.000246494
0.000136445
1.69998e-05
0.000505138
0.000473614
0.000440667
0.000400673
0.000346039
0.000266872
0.000151584
1.92733e-05
0.00052042
0.000485462
0.000451418
0.000411886
0.000358276
0.000279325
0.000161239
2.08413e-05
0.000526589
0.000490965
0.000456499
0.000416732
0.000363011
0.000283863
0.000164767
2.14251e-05
0.000522838
0.000489646
0.000455684
0.000415224
0.000360286
0.000280346
0.000161761
2.09085e-05
0.00051088
0.000480865
0.000447484
0.000405738
0.000349115
0.000268566
0.000152528
1.93951e-05
0.000491025
0.000463972
0.000430327
0.000386901
0.000328782
0.000248608
0.000137703
1.71542e-05
0.000495494
0.000468959
0.000436613
0.000394365
0.000336264
0.00025463
0.000140839
1.72648e-05
0.000517438
0.000487625
0.000455249
0.000414568
0.0003581
0.000276099
0.000156701
1.9595e-05
0.000532407
0.000499682
0.00046648
0.000426459
0.00037109
0.000289289
0.000166899
2.122e-05
0.000539327
0.000505689
0.000471842
0.000431489
0.000375986
0.000294054
0.000170637
2.18312e-05
0.00053685
0.000504917
0.000471053
0.00042962
0.000372824
0.000290213
0.000167439
2.13038e-05
0.000525958
0.000496296
0.000462418
0.000419305
0.000360813
0.000277726
0.000157716
1.97468e-05
0.000506288
0.000478762
0.000444135
0.000399366
0.000339516
0.000256975
0.00014234
1.74495e-05
0.000513087
0.00048612
0.000452084
0.0004071
0.000345778
0.000260734
0.000143598
1.75548e-05
0.000535425
0.000506168
0.00047252
0.000429074
0.000369053
0.000283248
0.000160035
1.99395e-05
0.000550252
0.000518905
0.000484778
0.000442045
0.000382986
0.000297199
0.000170706
2.16084e-05
0.000557616
0.000525221
0.000490329
0.000447213
0.00038804
0.0003022
0.000174636
2.22341e-05
0.000556528
0.000524592
0.000488978
0.000444463
0.0003842
0.000297979
0.000171292
2.16869e-05
0.000545889
0.000515051
0.000478787
0.00043267
0.000371029
0.000284705
0.000161147
2.00781e-05
0.000524945
0.000495425
0.000458359
0.000410977
0.000348439
0.000263083
0.000145279
1.77215e-05
0.000535227
0.000504791
0.000466775
0.000417638
0.000352396
0.000263942
0.000144452
1.77203e-05
0.000560756
0.000527803
0.000489756
0.00044155
0.000376983
0.000287219
0.000161184
2.01284e-05
0.000577758
0.000542525
0.000503718
0.000455757
0.00039175
0.00030171
0.000172068
2.18066e-05
0.00058567
0.000549183
0.000509417
0.000460941
0.000396878
0.000306833
0.000176067
2.24294e-05
0.000583896
0.000547278
0.000506576
0.000456994
0.000392312
0.000302259
0.000172631
2.18645e-05
0.000570511
0.000534737
0.000493562
0.000443205
0.000377829
0.000288289
0.000162236
2.02254e-05
0.000545113
0.000511323
0.000470347
0.000419509
0.000353914
0.000265872
0.000146013
1.7831e-05
0.00055377
0.00051934
0.000477528
0.000424812
0.000356381
0.000265348
0.000144361
1.78e-05
0.000583078
0.000545113
0.000502393
0.000449969
0.000381784
0.000289109
0.000161238
2.02084e-05
0.000602677
0.000561721
0.000517565
0.000464926
0.000397011
0.0003038
0.000172099
2.18674e-05
0.000611267
0.000568522
0.000523161
0.000469843
0.00040195
0.000308834
0.00017605
2.24724e-05
0.00060771
0.000564594
0.000518475
0.00046473
0.000396619
0.000303853
0.000172482
2.18856e-05
0.000590108
0.000548649
0.000503126
0.000449321
0.000381195
0.000289413
0.000161936
2.02292e-05
0.000559548
0.000521726
0.000477528
0.000424028
0.000356199
0.000266303
0.000145416
1.78122e-05
0.000565251
0.000528585
0.000484556
0.000429872
0.000359651
0.000267017
0.000144719
1.79032e-05
0.00059644
0.000555428
0.000510084
0.000455486
0.000385414
0.000291028
0.000161639
2.03029e-05
0.000617654
0.000572723
0.000525516
0.000470468
0.000400613
0.000305657
0.000172411
2.19287e-05
0.000626731
0.000579221
0.000530413
0.000474823
0.000405202
0.000310491
0.000176248
2.24973e-05
0.00062123
0.00057347
0.000524481
0.00046872
0.00039913
0.000305061
0.00017246
2.18776e-05
0.000599925
0.000555149
0.000507549
0.000452298
0.000383007
0.000290107
0.000161666
2.01952e-05
0.000566029
0.000526282
0.000480671
0.000426023
0.000357186
0.000266328
0.000144807
1.77581e-05
0.00057228
0.000535196
0.000490495
0.000435111
0.000364135
0.0002705
0.000146556
1.80665e-05
0.000603303
0.000561649
0.000515749
0.000460574
0.000389833
0.000294518
0.000163534
2.04642e-05
0.000624511
0.000578302
0.000530451
0.000475028
0.000404709
0.000308986
0.000174229
2.20733e-05
0.000633175
0.000583746
0.000534328
0.000478589
0.000408752
0.000313403
0.000177824
2.26111e-05
0.000625579
0.000576494
0.000527265
0.000471651
0.000402084
0.000307549
0.000173763
2.19558e-05
0.000601922
0.000557007
0.000509527
0.000454472
0.000385197
0.000291969
0.000162563
2.02341e-05
0.000567196
0.000527668
0.000482171
0.000427588
0.000358711