/*--------------------------------*- C++ -*----------------------------------*\
| =========                 |                                                 |
| \\      /  F ield         | OpenFOAM: The Open Source CFD Toolbox           |
|  \\    /   O peration     | Version:  plus.master.MPPICInterFoam            |
|   \\  /    A nd           | Web:      www.OpenFOAM.com                      |
|    \\/     M anipulation  |                                                 |
\*---------------------------------------------------------------------------*/
FoamFile
{
    version     2.0;
    format      ascii;
    class       volScalarField;
    location    "4";
    object      p;
}
// * * * * * * * * * * * * * * * * * * * * * * * * * * * * * * * * * * * * * //

dimensions      [1 -1 -2 0 0 0 0];

internalField   nonuniform List<scalar> 
11821
(
2335.37
2335.53
2338.18
2335.64
2337.95
2340.78
2265.72
2267.19
2268.63
2268.87
2268.17
2266.41
2265.32
2267.51
2272.07
2275.87
2276.34
2274.45
2269.13
2266.1
2271.17
2280.69
2283.92
2285.2
2283.48
2274.82
2267.6
2273.21
2284.05
2284.1
2285.3
2283.45
2276.65
2268.14
2272.34
2282.57
2284.07
2284.2
2282.5
2275.65
2268.12
2269.57
2276.99
2281.9
2281.73
2278.87
2271.66
2266.98
2266.82
2269.25
2271.47
2271.47
2270.28
2267.37
2265.72
2183.33
2185.25
2187.21
2187.5
2186.43
2184.41
2182.61
2185.65
2190.02
2195.96
2196.54
2193.36
2187.8
2184.4
2189.2
2200.41
2211.91
2211.92
2207.67
2194.39
2186.67
2192.49
2208.98
2214.88
2215.72
2215.77
2200.66
2188.59
2191.38
2206.13
2214.65
2215.35
2213.43
2198.51
2188.14
2187.99
2195.52
2205.88
2207.4
2201.3
2191.37
2186.05
2185.34
2187.97
2191.35
2192.25
2190
2186.58
2184.18
2092.38
2093.38
2094.38
2094.48
2093.92
2092.89
2091.89
2093.58
2095.04
2097.94
2098.1
2096.54
2094.42
2092.98
2095.01
2098.99
2110.45
2109.37
2103.8
2096.83
2094.12
2097.07
2106.79
2126.14
2127.47
2119.16
2101.51
2095.53
2096.9
2104.77
2124.59
2126.37
2115.37
2100.25
2095.41
2095.43
2098.17
2105.54
2107.27
2101.63
2096.61
2094.38
2094.38
2095.69
2097.57
2098.15
2096.6
2094.82
2093.42
1997.6
1998.4
1999.1
1999.22
1998.76
1998.02
1997.23
1998.6
1999.61
2000.92
2001.25
2000.38
1999.29
1998.14
1999.52
2000.93
2005.39
2005.65
2002.68
2000.38
1998.93
2000.83
2004.82
2023.9
2033.04
2012.99
2002.46
1999.75
2000.62
2003.35
2017.31
2022.84
2010.25
2001.75
1999.63
1999.83
2001.07
2003.88
2005.76
2002.33
2000.35
1999.01
1999.05
2000.05
2001.13
2001.63
2000.46
1999.35
1998.31
1900.29
1901.36
1902.21
1902.53
1902.32
1901.57
1900.43
1901.5
1902.92
1904.15
1904.66
1904.59
1903.67
1901.93
1902.48
1904.12
1905.61
1906.95
1906.56
1905.86
1903.27
1903.21
1905.27
1912.58
1930.51
1912.67
1906.59
1903.93
1903.15
1905.02
1910.2
1918.28
1910.96
1906.38
1903.75
1902.5
1904.26
1906.11
1907.65
1906.43
1904.96
1902.82
1901.4
1902.84
1904.11
1904.81
1904.13
1902.99
1901.49
1801.13
1803.14
1804.86
1805.61
1805.16
1803.65
1801.57
1803.26
1806.13
1808.93
1810.23
1809.33
1807.01
1804.15
1805.14
1808.98
1812.98
1812.07
1812.22
1809.49
1806.38
1806.15
1810.5
1814.17
1824.72
1815.31
1812.11
1807.61
1805.93
1810.14
1813.67
1817.86
1814.25
1811.27
1807.27
1804.36
1807.87
1810.82
1812.6
1811.34
1808.72
1805.33
1802.18
1804.81
1807.02
1807.97
1807.35
1805.33
1802.7
1693.12
1693.16
1693.09
1693.19
1692.9
1692.78
1692.8
1693.11
1691.47
1688.86
1687.58
1687.43
1689.81
1692.5
1692.87
1688.4
1680.35
1686.05
1679.95
1685.52
1691.22
1692.63
1685.94
1675.05
1681.54
1675.07
1681.59
1690.65
1692.16
1685.23
1672.48
1667.65
1667.56
1680.08
1689.79
1692.23
1688.9
1682.49
1680.19
1679.75
1686.79
1690.78
1692.4
1691.75
1690.17
1689.38
1689.13
1690.56
1691.51
1582.63
1578.15
1573.62
1570.7
1572.11
1576.14
1581.02
1578.13
1569.77
1561.46
1559.89
1560.73
1566.57
1575.34
1573.57
1562.85
1555.65
1545.44
1548.25
1564.85
1569.32
1571.14
1558.06
1547.05
1542.16
1541.56
1555.23
1566.48
1571.55
1559.51
1552.88
1549.07
1556.69
1558.16
1568.21
1575.38
1566.27
1559.62
1552.39
1557.91
1565.23
1572.97
1580.45
1574.59
1568.95
1566.82
1567.75
1572.83
1578.69
1490.85
1487.5
1484.25
1481.42
1483.18
1486.32
1489.83
1487.35
1483.03
1480.88
1480.58
1481.08
1482.44
1485.9
1483.87
1480.9
1480.27
1472.89
1480.12
1483.05
1482.5
1481.77
1479.15
1479.84
1474.09
1478.58
1482.11
1480.48
1483.16
1481.38
1481.81
1482.11
1483.46
1484.18
1483.58
1486.04
1482.79
1482.94
1481.44
1483.82
1484.65
1486.29
1489.55
1485.82
1483.08
1481.52
1483.59
1486.32
1489.32
1413.56
1414.66
1416.56
1416.99
1416.53
1414.66
1413.38
1414.56
1418.38
1424.41
1426.59
1425.57
1419.75
1414.66
1416.39
1423.98
1429.7
1431.11
1430.88
1426.76
1417.24
1416.8
1424.89
1428.84
1428.15
1430.96
1429.87
1418.67
1416.71
1425.15
1429.03
1429.24
1431
1428.64
1418.37
1414.85
1420.47
1427.12
1429.17
1428.66
1422.57
1415.88
1413.42
1414.94
1417.98
1419.2
1418.82
1416
1413.83
1330.03
1332.59
1335.58
1337.22
1335.84
1332.54
1330.09
1332.44
1337.95
1347.18
1352.61
1349.21
1338.81
1332.57
1335.38
1347.11
1364.34
1368.21
1366.13
1350.37
1336.3
1337.4
1353.38
1368.86
1370.52
1369.2
1358.07
1339.01
1336.43
1351.16
1368.61
1369.96
1368.81
1353.34
1337.36
1332.96
1340.37
1353.33
1360.21
1354.3
1341.31
1333.65
1330.23
1333.06
1337.45
1340.21
1337.85
1333.69
1330.68
1235.59
1237.64
1239.59
1240.65
1239.37
1237.39
1235.53
1237.23
1239.89
1242.64
1246.66
1244.5
1239.6
1237.07
1238.58
1243
1252.91
1265.39
1259.93
1244.43
1238.84
1239.22
1246.2
1264.83
1280.1
1272.12
1250.32
1240.49
1238.51
1244.27
1261.1
1274.01
1263.31
1245.77
1239.52
1236.75
1239.35
1244.99
1251.75
1246.31
1240.31
1237.57
1235.09
1236.73
1238.71
1240.58
1239.37
1237.45
1235.72
1133.85
1134.7
1134.96
1135.31
1135.4
1134.95
1134.08
1134.51
1133.91
1132.27
1132.75
1134.57
1135.2
1134.85
1135
1132.64
1131.48
1136.38
1138.47
1135.25
1135.52
1135.02
1133.92
1136.04
1159.17
1144.96
1137.27
1136.25
1135.02
1134.59
1138.02
1146.55
1140.2
1136.48
1135.95
1134.45
1134.86
1135.11
1137.5
1136.59
1135.91
1135.28
1133.63
1134.51
1135.4
1136.33
1135.92
1135.19
1134.34
1023.86
1020.6
1017.66
1018.63
1021.62
1025.06
1027.29
1019.88
1012.56
1013.59
1007.5
1013.08
1020.87
1025.73
1015.81
1003.98
993.407
997.404
1010
1016.57
1024.37
1014.94
999.365
996.689
1018.31
1009.83
1015.83
1024.21
1017.15
1004.65
999.751
1007.16
1009.96
1017.84
1024.89
1021.08
1014.26
1008.05
1008.79
1015.1
1021.89
1026.3
1024.53
1021.95
1020.08
1020.55
1022.92
1025.67
1027.75
923.938
919.623
916.173
916.244
919.791
924.218
927.816
919.035
914.375
914.498
913.658
914.122
919.121
925.067
914.829
912.296
908.842
905.833
912.136
914.448
922.587
913.177
907.239
897.933
912.642
910.301
913.323
921.749
915.504
909.266
907.528
908.582
911.296
915.034
922.893
919.752
913.695
909.864
911.142
913.908
919.428
925.342
924.413
920.29
916.608
917.05
920.399
924.521
928.079
842.336
842.327
842.029
842.372
842.348
842.266
842.907
842.208
845.057
847.006
848.325
845.692
842.487
842.462
842.912
848.793
848.15
848.146
848.304
843.256
842.351
842.256
847.319
843.16
846.702
847.367
842.921
842.148
842.265
846.633
846.954
847.629
847.583
843.025
842.304
841.602
843.085
844.728
846.348
844.246
841.981
842.275
842.066
841.293
840.696
841.075
841.496
841.832
842.727
2351.83
2352.19
2346.54
2348.4
2349.81
2350.86
2351.59
2352.05
2339.63
2343.19
2345.9
2347.97
2349.52
2350.66
2351.46
2351.94
2340.11
2343.41
2346
2348
2349.5
2350.6
2351.37
2351.85
2341.62
2344.35
2346.6
2348.34
2349.66
2350.65
2351.35
2351.78
2343.36
2345.5
2347.29
2348.74
2349.87
2350.73
2351.36
2351.75
2264.28
2264.11
2264.01
2263.95
2263.97
2264.08
2264.26
2264.44
2264.66
2264.17
2263.91
2263.81
2263.83
2263.94
2264.13
2264.33
2265.19
2264.34
2263.92
2263.76
2263.77
2263.89
2264.11
2264.33
2265.37
2264.38
2263.93
2263.77
2263.78
2263.89
2264.11
2264.33
2265.34
2264.37
2263.97
2263.82
2263.81
2263.92
2264.13
2264.35
2264.92
2264.27
2263.97
2263.85
2263.86
2263.97
2264.17
2264.39
2264.55
2264.35
2264.19
2264.07
2264.05
2264.12
2264.3
2264.5
2180.6
2179.39
2178.28
2177.37
2176.71
2176.32
2176.18
2176.19
2181.64
2179.79
2178.39
2177.37
2176.68
2176.27
2176.12
2176.14
2182.86
2180.55
2178.87
2177.69
2176.87
2176.37
2176.17
2176.17
2183.79
2181.16
2179.27
2177.95
2177.04
2176.49
2176.27
2176.27
2183.67
2181.16
2179.34
2178.04
2177.15
2176.6
2176.39
2176.39
2182.72
2180.66
2179.12
2177.97
2177.18
2176.7
2176.52
2176.53
2181.91
2180.56
2179.29
2178.21
2177.42
2176.94
2176.75
2176.76
2090.51
2089.31
2088.08
2086.99
2086.16
2085.6
2085.3
2085.21
2091.07
2089.44
2088.06
2086.96
2086.13
2085.57
2085.27
2085.19
2091.8
2089.98
2088.46
2087.26
2086.33
2085.7
2085.35
2085.24
2092.63
2090.56
2088.87
2087.55
2086.54
2085.85
2085.49
2085.37
2092.64
2090.62
2088.98
2087.68
2086.68
2086.01
2085.65
2085.55
2092.15
2090.38
2088.89
2087.68
2086.76
2086.14
2085.82
2085.72
2091.85
2090.56
2089.21
2087.98
2087.04
2086.41
2086.08
2085.98
1996.19
1995.12
1994.03
1993.07
1992.3
1991.75
1991.4
1991.22
1996.63
1995.27
1994.09
1993.11
1992.34
1991.77
1991.42
1991.25
1997.16
1995.72
1994.45
1993.4
1992.54
1991.91
1991.52
1991.32
1997.71
1996.13
1994.78
1993.65
1992.73
1992.06
1991.66
1991.45
1997.7
1996.17
1994.86
1993.75
1992.87
1992.21
1991.82
1991.62
1997.4
1996.02
1994.78
1993.73
1992.91
1992.33
1991.96
1991.78
1997.21
1996.13
1994.97
1993.93
1993.1
1992.52
1992.17
1992
1899.24
1898.15
1897.19
1896.4
1895.76
1895.26
1894.91
1894.71
1900.23
1898.84
1897.69
1896.76
1896.01
1895.44
1895.03
1894.79
1901.17
1899.59
1898.27
1897.18
1896.3
1895.63
1895.16
1894.89
1901.71
1900.02
1898.61
1897.43
1896.5
1895.79
1895.29
1895.01
1901.6
1899.98
1898.6
1897.47
1896.57
1895.89
1895.41
1895.15
1900.97
1899.53
1898.29
1897.29
1896.5
1895.91
1895.5
1895.27
1900.17
1899.04
1897.99
1897.13
1896.45
1895.94
1895.58
1895.39
1799.99
1798.72
1797.83
1797.21
1796.75
1796.37
1796.05
1795.83
1801.85
1800.13
1798.87
1797.92
1797.21
1796.66
1796.22
1795.94
1803.44
1801.25
1799.63
1798.42
1797.52
1796.84
1796.33
1796.02
1804.22
1801.79
1799.99
1798.65
1797.67
1796.94
1796.4
1796.09
1803.93
1801.59
1799.85
1798.58
1797.65
1796.96
1796.45
1796.16
1802.59
1800.68
1799.26
1798.23
1797.46
1796.89
1796.46
1796.2
1800.81
1799.38
1798.34
1797.65
1797.14
1796.74
1796.42
1796.22
1693.54
1693.78
1694.15
1694.57
1694.92
1695.11
1695.15
1695.1
1693.76
1694.29
1694.69
1694.98
1695.19
1695.26
1695.23
1695.14
1693.53
1694.17
1694.59
1694.89
1695.1
1695.19
1695.17
1695.1
1693.19
1693.95
1694.41
1694.74
1694.98
1695.1
1695.09
1695.04
1692.78
1693.67
1694.2
1694.59
1694.87
1695.02
1695.04
1694.99
1692.72
1693.48
1694.05
1694.48
1694.79
1694.95
1695
1694.97
1692.65
1693.01
1693.49
1694.04
1694.5
1694.79
1694.9
1694.9
1585.64
1588.5
1590.83
1592.66
1594.06
1595.01
1595.58
1595.82
1582.49
1586.99
1590.11
1592.32
1593.87
1594.9
1595.5
1595.77
1579.04
1584.88
1588.76
1591.43
1593.29
1594.54
1595.27
1595.65
1577.23
1583.69
1587.95
1590.88
1592.92
1594.27
1595.07
1595.54
1578.11
1584.12
1588.12
1590.92
1592.88
1594.2
1594.99
1595.46
1580.73
1585.53
1588.93
1591.39
1593.13
1594.3
1595.02
1595.41
1583.73
1586.86
1589.43
1591.56
1593.18
1594.3
1594.99
1595.34
1492.93
1495.36
1497.34
1498.9
1500.14
1501.02
1501.62
1501.94
1490.61
1494.09
1496.62
1498.48
1499.86
1500.84
1501.51
1501.86
1488.41
1492.51
1495.49
1497.7
1499.34
1500.52
1501.31
1501.75
1487.18
1491.65
1494.9
1497.3
1499.07
1500.34
1501.19
1501.66
1488.61
1492.35
1495.25
1497.48
1499.14
1500.34
1501.16
1501.62
1490.28
1493.48
1496.02
1497.98
1499.44
1500.5
1501.24
1501.66
1492.09
1494.5
1496.58
1498.3
1499.62
1500.61
1501.28
1501.67
1412.28
1412.11
1411.92
1411.8
1411.79
1411.83
1411.95
1412.06
1412.69
1412.08
1411.75
1411.6
1411.62
1411.7
1411.86
1411.99
1413.54
1412.28
1411.75
1411.55
1411.54
1411.64
1411.81
1411.97
1414.07
1412.47
1411.84
1411.57
1411.53
1411.62
1411.8
1411.97
1414.03
1412.52
1411.88
1411.61
1411.56
1411.63
1411.81
1411.99
1413.07
1412.18
1411.76
1411.6
1411.59
1411.7
1411.87
1412.04
1412.19
1411.9
1411.78
1411.71
1411.73
1411.8
1411.96
1412.13
1327.49
1325.86
1324.4
1323.22
1322.38
1321.84
1321.56
1321.47
1328.75
1326.25
1324.41
1323.14
1322.3
1321.76
1321.49
1321.4
1330.36
1327.28
1325.07
1323.51
1322.5
1321.85
1321.53
1321.43
1331.52
1327.98
1325.47
1323.75
1322.62
1321.92
1321.58
1321.48
1330.93
1327.63
1325.27
1323.64
1322.59
1321.92
1321.6
1321.52
1329.35
1326.69
1324.72
1323.35
1322.54
1321.9
1321.63
1321.57
1327.76
1326.06
1324.61
1323.42
1322.59
1321.98
1321.73
1321.68
1233.62
1232.12
1230.76
1229.72
1228.81
1228.22
1227.85
1227.68
1234.55
1232.5
1230.87
1229.66
1228.8
1228.19
1227.81
1227.63
1235.71
1233.32
1231.39
1229.98
1228.99
1228.28
1227.84
1227.63
1236.64
1233.88
1231.72
1230.16
1229.11
1228.34
1227.88
1227.68
1236.06
1233.5
1231.5
1230.17
1229.13
1228.34
1227.91
1227.74
1234.91
1232.76
1231.06
1230.14
1229
1228.31
1227.94
1227.79
1233.79
1232.29
1230.92
1229.81
1228.93
1228.3
1227.97
1227.83
1133.39
1132.78
1132.29
1132.01
1131.61
1131.38
1131.19
1131.08
1134.03
1133.28
1132.61
1132.16
1131.74
1131.45
1131.23
1131.09
1134.67
1133.7
1132.89
1132.64
1131.85
1131.5
1131.25
1131.1
1135.13
1133.96
1133.03
1132.6
1131.92
1131.54
1131.28
1131.15
1134.87
1133.8
1132.93
1132.65
1131.96
1131.56
1131.32
1131.2
1134.33
1133.44
1132.73
1132.55
1131.87
1131.52
1131.32
1131.21
1133.62
1132.91
1132.34
1131.97
1131.62
1131.37
1131.22
1131.13
1029.09
1030.33
1031.36
1032.29
1032.86
1033.29
1033.51
1033.59
1028.54
1030.34
1031.61
1032.6
1033.03
1033.41
1033.61
1033.68
1028.11
1030.14
1031.51
1032.81
1033.04
1033.44
1033.65
1033.74
1028.05
1030.06
1031.41
1032.75
1033.06
1033.45
1033.68
1033.77
1028.34
1030.2
1031.47
1032.73
1033.11
1033.47
1033.7
1033.79
1028.92
1030.49
1031.63
1032.8
1033.1
1033.45
1033.66
1033.75
1029.38
1030.38
1031.34
1032.19
1032.81
1033.22
1033.47
1033.56
930.565
932.564
934.313
935.725
936.779
937.533
938.009
938.28
929.225
932.149
934.268
935.878
936.853
937.616
938.106
938.393
928.106
931.483
933.896
935.843
936.798
937.625
938.154
938.453
927.619
931.188
933.698
935.861
936.78
937.625
938.168
938.457
928.222
931.494
933.83
935.961
936.803
937.617
938.148
938.422
929.389
932.136
934.221
936.109
936.876
937.626
938.113
938.365
930.639
932.557
934.261
935.657
936.726
937.472
937.956
938.192
843.343
843.993
844.644
845.186
845.648
846.017
846.294
846.465
842.96
843.7
844.419
845.053
845.563
845.973
846.279
846.473
842.804
843.531
844.329
845.046
845.566
845.987
846.306
846.513
842.598
843.435
844.292
845.395
845.553
845.961
846.285
846.487
842.718
843.501
844.321
845.48
845.535
845.935
846.249
846.44
842.898
843.704
844.464
845.265
845.556
845.933
846.22
846.395
843.184
843.878
844.533
845.065
845.537
845.9
846.179
846.33
2265.03
2264.51
2264.23
2264.11
2264.15
2264.31
2264.56
2264.79
2266.26
2265
2264.41
2264.15
2264.14
2264.3
2264.58
2264.83
2267.37
2265.43
2264.58
2264.22
2264.17
2264.31
2264.58
2264.85
2267.7
2265.53
2264.61
2264.23
2264.17
2264.3
2264.55
2264.81
2266.78
2265.12
2264.4
2264.1
2264.08
2264.21
2264.45
2264.7
2265.26
2264.38
2263.99
2263.9
2263.97
2264.15
2264.39
2264.6
2264.33
2263.93
2263.8
2263.83
2263.95
2264.13
2264.36
2264.56
2182.61
2181
2179.67
2178.6
2177.85
2177.42
2177.29
2177.32
2184
2181.59
2179.82
2178.59
2177.8
2177.36
2177.22
2177.27
2185.34
2182.39
2180.3
2178.84
2177.9
2177.37
2177.19
2177.22
2185.69
2182.54
2180.33
2178.81
2177.83
2177.26
2177.07
2177.09
2184.31
2181.64
2179.7
2178.38
2177.53
2177.04
2176.87
2176.89
2182.49
2180.4
2178.87
2177.84
2177.18
2176.8
2176.68
2176.71
2181.03
2179.63
2178.52
2177.64
2177.04
2176.69
2176.58
2176.6
2092.56
2091.14
2089.74
2088.52
2087.6
2086.99
2086.69
2086.6
2093.15
2091.19
2089.57
2088.32
2087.41
2086.83
2086.54
2086.47
2093.77
2091.6
2089.79
2088.42
2087.42
2086.76
2086.43
2086.34
2093.76
2091.56
2089.72
2088.31
2087.28
2086.6
2086.27
2086.17
2092.67
2090.77
2089.14
2087.89
2086.97
2086.36
2086.05
2085.97
2091.65
2089.98
2088.57
2087.47
2086.67
2086.13
2085.87
2085.79
2090.85
2089.61
2088.43
2087.37
2086.56
2086.03
2085.77
2085.69
1997.76
1996.59
1995.41
1994.38
1993.55
1992.97
1992.63
1992.48
1998.18
1996.63
1995.29
1994.21
1993.39
1992.82
1992.48
1992.34
1998.6
1996.86
1995.41
1994.26
1993.36
1992.73
1992.36
1992.2
1998.59
1996.82
1995.33
1994.15
1993.23
1992.59
1992.2
1992.04
1997.77
1996.24
1994.92
1993.84
1992.99
1992.38
1992.03
1991.88
1997.1
1995.75
1994.54
1993.53
1992.75
1992.2
1991.88
1991.74
1996.5
1995.45
1994.38
1993.4
1992.63
1992.09
1991.78
1991.64
1900.09
1899.01
1898.06
1897.27
1896.62
1896.12
1895.77
1895.58
1900.84
1899.46
1898.28
1897.35
1896.62
1896.07
1895.69
1895.48
1901.35
1899.83
1898.54
1897.48
1896.66
1896.03
1895.61
1895.37
1901.37
1899.82
1898.51
1897.43
1896.57
1895.93
1895.49
1895.25
1900.79
1899.39
1898.19
1897.17
1896.37
1895.76
1895.35
1895.12
1900.07
1898.81
1897.72
1896.82
1896.11
1895.57
1895.21
1895
1899.2
1898.21
1897.3
1896.51
1895.87
1895.4
1895.07
1894.89
1800.4
1799.15
1798.3
1797.7
1797.24
1796.86
1796.56
1796.36
1801.93
1800.28
1799.05
1798.16
1797.49
1796.97
1796.58
1796.33
1803.02
1801.02
1799.52
1798.42
1797.6
1797
1796.55
1796.28
1803.19
1801.12
1799.57
1798.41
1797.56
1796.93
1796.47
1796.2
1802.52
1800.62
1799.21
1798.17
1797.39
1796.8
1796.37
1796.12
1801.24
1799.71
1798.58
1797.74
1797.11
1796.62
1796.25
1796.03
1799.68
1798.54
1797.73
1797.17
1796.73
1796.37
1796.09
1795.91
1693.36
1693.72
1694.2
1694.68
1695.06
1695.28
1695.35
1695.33
1693.59
1694.27
1694.77
1695.13
1695.35
1695.47
1695.47
1695.4
1693.84
1694.47
1694.9
1695.19
1695.39
1695.49
1695.48
1695.43
1694.07
1694.59
1694.95
1695.21
1695.39
1695.49
1695.48
1695.44
1694.19
1694.63
1694.96
1695.22
1695.4
1695.49
1695.49
1695.44
1694.08
1694.5
1694.88
1695.17
1695.37
1695.46
1695.46
1695.42
1693.71
1693.91
1694.28
1694.73
1695.09
1695.29
1695.35
1695.33
1585.46
1588.42
1590.82
1592.68
1594.07
1595.05
1595.64
1595.93
1582.8
1587.28
1590.43
1592.62
1594.12
1595.13
1595.74
1596.05
1580.74
1586.13
1589.73
1592.21
1593.91
1595.06
1595.74
1596.16
1580.47
1585.92
1589.6
1592.15
1593.91
1595.08
1595.79
1596.23
1581.92
1586.81
1590.14
1592.48
1594.11
1595.21
1595.88
1596.3
1584.39
1588.29
1591.09
1593.06
1594.46
1595.41
1596
1596.37
1586.64
1589.21
1591.38
1593.16
1594.51
1595.43
1596
1596.33
1493.11
1495.53
1497.41
1498.92
1500.13
1501.05
1501.68
1502.03
1490.92
1494.42
1496.94
1498.72
1500.03
1501.01
1501.7
1502.09
1489.24
1493.28
1496.18
1498.29
1499.81
1500.93
1501.7
1502.16
1488.57
1492.87
1495.94
1498.17
1499.78
1500.95
1501.75
1502.22
1489.79
1493.64
1496.44
1498.48
1499.99
1501.09
1501.86
1502.29
1491.75
1494.93
1497.3
1499.05
1500.37
1501.34
1502.01
1502.39
1493.72
1495.95
1497.82
1499.37
1500.58
1501.48
1502.08
1502.43
1412.46
1412.16
1411.9
1411.77
1411.76
1411.86
1412.03
1412.19
1412.83
1412.22
1411.83
1411.64
1411.65
1411.78
1411.99
1412.19
1413.56
1412.49
1411.97
1411.74
1411.71
1411.82
1412.04
1412.26
1413.64
1412.54
1412.03
1411.79
1411.76
1411.87
1412.1
1412.32
1413.49
1412.5
1412.05
1411.83
1411.84
1411.95
1412.16
1412.37
1412.86
1412.24
1411.9
1411.82
1411.89
1412.04
1412.24
1412.43
1412.46
1412.19
1412.04
1412
1412.04
1412.16
1412.33
1412.49
1327.64
1325.88
1324.36
1323.16
1322.32
1321.82
1321.59
1321.56
1328.89
1326.29
1324.36
1323.04
1322.2
1321.72
1321.52
1321.5
1330.44
1327.27
1324.98
1323.44
1322.44
1321.85
1321.6
1321.57
1331.02
1327.65
1325.28
1323.62
1322.55
1321.92
1321.66
1321.63
1330.14
1327.14
1324.97
1323.5
1322.54
1321.96
1321.71
1321.68
1328.67
1326.21
1324.43
1323.22
1322.43
1321.95
1321.74
1321.71
1327.44
1325.79
1324.41
1323.3
1322.52
1322.04
1321.83
1321.79
1233.43
1231.89
1230.49
1229.37
1228.56
1228
1227.69
1227.56
1234.25
1232.15
1230.52
1229.32
1228.49
1227.94
1227.62
1227.5
1235.39
1232.96
1231.09
1229.71
1228.72
1228.06
1227.68
1227.53
1235.85
1233.37
1231.39
1229.92
1228.87
1228.15
1227.74
1227.58
1235.46
1233.12
1231.28
1229.89
1228.88
1228.2
1227.8
1227.65
1234.58
1232.54
1230.94
1229.72
1228.82
1228.21
1227.85
1227.7
1233.72
1232.2
1230.84
1229.7
1228.84
1228.26
1227.92
1227.78
1133.21
1132.51
1131.89
1131.45
1131.12
1130.89
1130.72
1130.63
1133.67
1132.79
1132.09
1131.57
1131.18
1130.89
1130.68
1130.57
1134.13
1133.14
1132.34
1131.71
1131.24
1130.89
1130.65
1130.53
1134.28
1133.28
1132.44
1131.79
1131.29
1130.91
1130.65
1130.53
1134.23
1133.27
1132.46
1131.84
1131.34
1130.96
1130.71
1130.58
1133.84
1133.07
1132.38
1131.8
1131.34
1130.99
1130.76
1130.64
1133.37
1132.7
1132.09
1131.6
1131.24
1130.98
1130.79
1130.68
1027.34
1028.89
1030.09
1031.05
1031.78
1032.26
1032.54
1032.65
1025.59
1028.11
1029.81
1030.96
1031.72
1032.21
1032.49
1032.6
1023.71
1027
1029.13
1030.54
1031.45
1032.03
1032.36
1032.51
1022.66
1026.4
1028.78
1030.31
1031.29
1031.92
1032.28
1032.44
1023.21
1026.8
1029.01
1030.45
1031.38
1031.97
1032.3
1032.45
1025.05
1027.9
1029.7
1030.87
1031.62
1032.1
1032.38
1032.49
1026.89
1028.58
1029.89
1030.9
1031.64
1032.13
1032.4
1032.51
928.255
930.833
932.862
934.422
935.625
936.501
937.074
937.389
925.535
929.399
932.15
934.078
935.442
936.39
937.017
937.368
922.891
927.759
931.103
933.417
935.035
936.151
936.881
937.298
921.49
926.893
930.515
933.058
934.804
936.014
936.793
937.221
922.555
927.605
930.97
933.286
934.9
936.035
936.778
937.181
925.185
929.187
931.939
933.873
935.25
936.218
936.857
937.207
927.748
930.343
932.428
934.09
935.372
936.296
936.887
937.197
842.824
843.763
844.435
845.01
845.513
845.96
846.333
846.577
842.11
843.186
844.083
844.806
845.406
845.921
846.336
846.615
841.986
842.821
843.776
844.579
845.261
845.837
846.311
846.641
841.939
842.665
843.629
844.481
845.179
845.774
846.272
846.612
842.357
842.999
843.814
844.553
845.213
845.789
846.268
846.584
842.418
843.212
844.003
844.684
845.285
845.817
846.244
846.523
842.714
843.444
844.126
844.769
845.354
845.849
846.231
846.466
2264.4
2264.06
2263.92
2263.89
2263.97
2264.14
2264.36
2264.56
2265.05
2264.27
2263.93
2263.82
2263.9
2264.09
2264.34
2264.56
2265.73
2264.62
2264.11
2263.91
2263.94
2264.11
2264.36
2264.6
2265.87
2264.72
2264.16
2263.95
2263.98
2264.13
2264.38
2264.61
2265.57
2264.57
2264.1
2263.93
2263.97
2264.13
2264.37
2264.6
2264.86
2264.24
2263.95
2263.89
2263.97
2264.13
2264.36
2264.57
2264.32
2264.04
2263.93
2263.93
2263.99
2264.13
2264.32
2264.51
2181.06
2179.69
2178.54
2177.63
2176.99
2176.63
2176.52
2176.55
2182.05
2179.98
2178.49
2177.48
2176.83
2176.48
2176.37
2176.41
2183.1
2180.63
2178.87
2177.68
2176.91
2176.48
2176.33
2176.35
2183.32
2180.76
2178.92
2177.7
2176.9
2176.43
2176.27
2176.29
2182.67
2180.35
2178.68
2177.54
2176.8
2176.37
2176.22
2176.25
2181.56
2179.66
2178.27
2177.3
2176.65
2176.28
2176.16
2176.19
2180.61
2179.33
2178.24
2177.36
2176.72
2176.34
2176.2
2176.22
2090.9
2089.64
2088.41
2087.31
2086.48
2085.94
2085.68
2085.61
2091.29
2089.54
2088.13
2087.05
2086.26
2085.74
2085.48
2085.41
2091.83
2089.88
2088.33
2087.15
2086.27
2085.69
2085.39
2085.3
2091.93
2089.93
2088.36
2087.14
2086.24
2085.62
2085.31
2085.22
2091.53
2089.67
2088.18
2087.02
2086.15
2085.56
2085.26
2085.18
2090.92
2089.28
2087.91
2086.85
2086.05
2085.51
2085.24
2085.16
2090.52
2089.29
2088.07
2086.99
2086.15
2085.59
2085.3
2085.22
1996.56
1995.47
1994.35
1993.34
1992.55
1992.01
1991.69
1991.56
1996.78
1995.36
1994.14
1993.15
1992.38
1991.84
1991.52
1991.38
1997.12
1995.57
1994.26
1993.21
1992.38
1991.78
1991.42
1991.26
1997.18
1995.59
1994.29
1993.21
1992.35
1991.73
1991.35
1991.19
1996.89
1995.41
1994.16
1993.13
1992.3
1991.7
1991.34
1991.19
1996.5
1995.14
1993.96
1992.99
1992.22
1991.67
1991.34
1991.19
1996.19
1995.15
1994.07
1993.08
1992.29
1991.73
1991.4
1991.25
1899.24
1898.23
1897.28
1896.47
1895.82
1895.33
1895
1894.83
1899.82
1898.53
1897.43
1896.53
1895.82
1895.28
1894.92
1894.71
1900.37
1898.93
1897.71
1896.7
1895.9
1895.29
1894.88
1894.65
1900.59
1899.09
1897.82
1896.77
1895.93
1895.29
1894.85
1894.62
1900.42
1898.96
1897.74
1896.72
1895.91
1895.29
1894.87
1894.64
1899.89
1898.56
1897.44
1896.53
1895.81
1895.25
1894.87
1894.65
1899.15
1898.15
1897.21
1896.4
1895.75
1895.25
1894.9
1894.69
1799.71
1798.59
1797.74
1797.16
1796.7
1796.33
1796.04
1795.86
1801.04
1799.52
1798.4
1797.56
1796.92
1796.42
1796.05
1795.82
1802.18
1800.31
1798.92
1797.87
1797.08
1796.5
1796.07
1795.82
1802.68
1800.67
1799.13
1798
1797.16
1796.53
1796.08
1795.83
1802.4
1800.48
1799.03
1797.95
1797.14
1796.55
1796.1
1795.84
1801.32
1799.75
1798.57
1797.68
1797
1796.48
1796.08
1795.83
1799.81
1798.63
1797.79
1797.19
1796.74
1796.36
1796.04
1795.83
1693.77
1694.02
1694.37
1694.79
1695.11
1695.29
1695.33
1695.3
1694.04
1694.51
1694.89
1695.16
1695.33
1695.4
1695.39
1695.33
1694.23
1694.64
1694.95
1695.18
1695.33
1695.39
1695.38
1695.34
1694.34
1694.7
1694.96
1695.16
1695.3
1695.37
1695.36
1695.32
1694.19
1694.62
1694.92
1695.14
1695.28
1695.36
1695.34
1695.28
1693.83
1694.37
1694.79
1695.06
1695.24
1695.32
1695.29
1695.23
1693.44
1693.7
1694.11
1694.57
1694.94
1695.15
1695.19
1695.14
1586.7
1589.34
1591.51
1593.26
1594.57
1595.47
1596.01
1596.27
1584.36
1588.34
1591.17
1593.16
1594.53
1595.46
1596.03
1596.32
1581.99
1586.89
1590.23
1592.56
1594.17
1595.25
1595.9
1596.3
1580.55
1586.02
1589.68
1592.21
1593.94
1595.11
1595.81
1596.23
1581.15
1586.39
1589.89
1592.3
1593.96
1595.07
1595.74
1596.12
1583.23
1587.58
1590.61
1592.69
1594.16
1595.14
1595.73
1596.02
1585.7
1588.54
1590.85
1592.71
1594.11
1595.08
1595.65
1595.9
1493.83
1496.12
1497.96
1499.47
1500.63
1501.49
1502.08
1502.41
1491.86
1495.1
1497.47
1499.19
1500.46
1501.39
1502.03
1502.41
1489.99
1493.85
1496.64
1498.64
1500.1
1501.16
1501.89
1502.32
1488.52
1492.94
1496.05
1498.27
1499.85
1500.99
1501.78
1502.22
1489.28
1493.34
1496.23
1498.33
1499.86
1500.95
1501.7
1502.11
1491.09
1494.47
1496.95
1498.75
1500.07
1501.04
1501.69
1502.05
1493.12
1495.56
1497.5
1499.02
1500.22
1501.11
1501.7
1502.01
1412.56
1412.31
1412.13
1412.05
1412.06
1412.16
1412.31
1412.46
1412.99
1412.41
1412.08
1411.93
1411.95
1412.05
1412.23
1412.4
1413.64
1412.69
1412.21
1411.96
1411.91
1411.99
1412.16
1412.33
1413.66
1412.62
1412.14
1411.89
1411.83
1411.9
1412.08
1412.26
1413.45
1412.43
1411.98
1411.78
1411.75
1411.83
1412
1412.17
1412.77
1412.2
1411.86
1411.7
1411.7
1411.79
1411.95
1412.1
1412.51
1412.31
1412.08
1411.93
1411.86
1411.9
1412
1412.11
1327.47
1325.81
1324.42
1323.31
1322.52
1322.04
1321.81
1321.77
1328.84
1326.37
1324.57
1323.31
1322.48
1321.96
1321.73
1321.68
1330.35
1327.37
1325.2
1323.66
1322.65
1322.03
1321.73
1321.65
1331.03
1327.77
1325.42
1323.79
1322.7
1322.02
1321.69
1321.61
1330.27
1327.26
1325.09
1323.57
1322.57
1321.94
1321.63
1321.55
1328.82
1326.33
1324.49
1323.2
1322.34
1321.81
1321.55
1321.48
1327.77
1326.07
1324.55
1323.36
1322.44
1321.87
1321.59
1321.5
1233.71
1232.2
1230.85
1229.73
1228.87
1228.28
1227.93
1227.79
1234.92
1232.82
1231.14
1229.88
1228.95
1228.3
1227.9
1227.73
1236.12
1233.6
1231.67
1230.21
1229.14
1228.38
1227.92
1227.71
1236.66
1233.95
1231.88
1230.33
1229.2
1228.41
1227.93
1227.72
1236.01
1233.52
1231.59
1230.15
1229.09
1228.37
1227.92
1227.72
1234.85
1232.7
1231.03
1229.79
1228.91
1228.25
1227.87
1227.69
1233.92
1232.37
1230.91
1229.74
1228.85
1228.24
1227.88
1227.71
1133.28
1132.66
1132.1
1131.65
1131.3
1131.03
1130.83
1130.71
1134.02
1133.23
1132.53
1131.96
1131.5
1131.14
1130.88
1130.73
1134.47
1133.53
1132.74
1132.12
1131.61
1131.21
1130.93
1130.77
1134.72
1133.73
1132.89
1132.22
1131.68
1131.28
1131
1130.86
1134.66
1133.69
1132.89
1132.24
1131.73
1131.37
1131.11
1130.97
1134.27
1133.42
1132.71
1132.15
1131.74
1131.41
1131.18
1131.05
1133.65
1132.96
1132.36
1131.91
1131.59
1131.36
1131.18
1131.07
1026.88
1028.6
1029.95
1030.98
1031.72
1032.2
1032.46
1032.56
1025.57
1028.3
1030.06
1031.21
1031.93
1032.38
1032.62
1032.72
1024.41
1027.7
1029.72
1031.05
1031.89
1032.41
1032.71
1032.84
1024.85
1027.97
1029.93
1031.2
1032.04
1032.58
1032.89
1033.03
1026.49
1028.96
1030.57
1031.65
1032.38
1032.86
1033.14
1033.25
1028.19
1030.03
1031.28
1032.14
1032.76
1033.14
1033.36
1033.43
1029.1
1030.24
1031.22
1032.06
1032.73
1033.16
1033.4
1033.48
927.894
930.471
932.536
934.194
935.448
936.352
936.926
937.24
925.888
929.767
932.434
934.296
935.606
936.515
937.112
937.444
924.237
928.853
931.881
934.001
935.485
936.52
937.192
937.573
924.3
928.93
931.993
934.116
935.639
936.681
937.373
937.745
926.251
930.115
932.74
934.627
935.997
936.965
937.592
937.919
928.647
931.608
933.74
935.308
936.476
937.296
937.822
938.09
930.355
932.295
934.015
935.461
936.681
937.38
937.878
938.115
842.717
843.422
844.082
844.732
845.329
845.821
846.193
846.417
842.591
843.351
844.066
844.704
845.293
845.803
846.202
846.463
842.41
843.153
843.914
844.604
845.234
845.774
846.207
846.492
842.426
843.145
843.883
844.58
845.248
845.759
846.195
846.472
842.613
843.317
844.014
844.697
845.364
845.82
846.217
846.464
842.889
843.584
844.223
844.832
845.419
845.878
846.228
846.442
843.18
843.732
844.357
845.064
845.541
845.928
846.229
846.404
2343.12
2345.25
2347.05
2348.54
2349.71
2350.6
2351.25
2351.64
2341.17
2343.91
2346.2
2348
2349.36
2350.37
2351.12
2351.57
2339.37
2342.57
2345.19
2347.33
2348.94
2350.13
2350.99
2351.51
2337.71
2341.47
2344.4
2346.72
2348.53
2349.86
2350.8
2351.38
2344.83
2346.88
2348.52
2349.82
2350.75
2351.31
2350.74
2351.23
2264.4
2264.15
2264.03
2263.99
2264.01
2264.12
2264.32
2264.52
2265.18
2264.48
2264.14
2263.99
2263.99
2264.1
2264.33
2264.56
2266.35
2264.93
2264.36
2264.11
2264.04
2264.13
2264.36
2264.62
2266.88
2265.09
2264.36
2264.09
2264.03
2264.13
2264.37
2264.63
2266.91
2265.21
2264.38
2264.02
2263.98
2264.09
2264.34
2264.6
2266.03
2264.97
2264.42
2264.12
2264.05
2264.12
2264.32
2264.57
2265.1
2264.71
2264.42
2264.23
2264.18
2264.28
2264.49
2264.7
2181.79
2180.42
2179.22
2178.22
2177.48
2177.03
2176.86
2176.88
2183.28
2181.19
2179.58
2178.41
2177.6
2177.11
2176.94
2176.97
2184.92
2182.23
2180.27
2178.84
2177.86
2177.28
2177.06
2177.08
2185.86
2182.8
2180.62
2179.07
2178.02
2177.39
2177.15
2177.16
2185.42
2182.56
2180.46
2178.98
2177.98
2177.38
2177.16
2177.18
2184.06
2181.72
2179.94
2178.67
2177.81
2177.32
2177.15
2177.19
2182.78
2181.25
2179.87
2178.73
2177.91
2177.43
2177.26
2177.29
2091.77
2090.48
2089.2
2088.04
2087.14
2086.53
2086.23
2086.14
2092.72
2090.95
2089.43
2088.2
2087.27
2086.63
2086.31
2086.24
2093.78
2091.71
2089.97
2088.58
2087.53
2086.81
2086.45
2086.35
2094.61
2092.27