/*--------------------------------*- C++ -*----------------------------------*\
| =========                 |                                                 |
| \\      /  F ield         | OpenFOAM: The Open Source CFD Toolbox           |
|  \\    /   O peration     | Version:  plus.master                           |
|   \\  /    A nd           | Web:      www.OpenFOAM.com                      |
|    \\/     M anipulation  |                                                 |
\*---------------------------------------------------------------------------*/
FoamFile
{
    version     2.0;
    format      ascii;
    class       surfaceScalarField;
    location    "9";
    object      alphaPhi;
}
// * * * * * * * * * * * * * * * * * * * * * * * * * * * * * * * * * * * * * //

dimensions      [0 3 -1 0 0 0 0];

internalField   nonuniform List<scalar> 
138768
(
1.4308e-06
2.74895e-06
2.94696e-07
-1.80007e-06
-2.67689e-06
8.94459e-07
2.65068e-06
5.92697e-07
-2.706e-06
-6.10297e-07
3.32969e-06
9.6709e-07
-2.79321e-06
-2.28431e-06
3.45472e-06
9.95596e-07
-2.77516e-06
-3.09848e-06
2.78974e-06
5.67247e-07
-2.54286e-06
-3.19893e-06
1.96659e-06
2.93571e-07
-2.15948e-06
2.09844e-06
1.81654e-07
-3.11679e-06
-2.35706e-06
1.63497e-06
2.7123e-06
5.64016e-07
-2.16255e-06
1.21559e-06
2.07007e-06
1.95718e-06
4.30562e-08
1.91115e-06
2.96985e-06
-2.39934e-06
2.34345e-06
3.25082e-06
-2.4698e-06
1.096e-06
2.33305e-06
-2.83005e-06
1.74708e-06
1.39005e-06
1.74025e-06
2.55482e-07
-2.72702e-06
2.78728e-06
1.50487e-06
1.00269e-06
-2.58164e-06
9.51607e-07
1.64232e-06
2.78789e-06
2.99923e-07
4.18233e-07
1.93112e-06
-4.43687e-07
1.56498e-07
1.8502e-06
-2.18024e-06
5.492e-07
2.41624e-06
-3.3698e-06
1.50593e-06
1.71643e-06
9.68994e-07
4.40552e-07
-3.03803e-06
3.56101e-06
-4.97285e-07
1.33282e-06
-2.89169e-06
2.33138e-06
-9.9514e-07
3.57091e-06
1.52931e-07
-3.55615e-07
1.8975e-06
-2.73494e-07
-1.08773e-07
6.91791e-07
-2.62503e-06
-4.19108e-07
2.43115e-06
-3.39288e-06
-5.83935e-07
2.469e-06
-3.07061e-08
6.39727e-07
-3.03279e-06
3.13398e-06
-2.05291e-06
1.08016e-06
-2.65867e-06
1.40846e-06
-1.78685e-06
2.95532e-06
2.55399e-07
-1.43566e-06
1.83304e-06
-2.88616e-07
-2.12541e-06
1.64338e-06
-2.39718e-06
-6.60633e-07
2.25347e-06
-3.45075e-06
-1.42571e-06
2.09048e-06
-1.15205e-06
5.63244e-07
-2.89237e-06
2.08547e-06
-2.32074e-06
6.07413e-07
-2.42473e-06
1.5518e-06
-2.34248e-06
2.02689e-06
5.2325e-07
-3.11265e-06
3.10662e-06
-1.9157e-06
-3.4832e-06
3.4562e-06
-2.46759e-06
-2.50423e-06
2.65719e-06
-3.0145e-06
-1.50393e-06
1.56775e-06
-1.43397e-06
3.24556e-07
-3.05572e-06
1.90702e-06
3.05885e-07
-2.1528e-06
-2.3819e-06
1.3952e-06
6.42108e-07
-2.47261e-06
-3.04888e-07
1.1644e-06
-2.57748e-06
-2.52068e-06
1.3234e-06
-2.59013e-06
-3.43083e-06
8.20287e-07
-2.41429e-06
-3.34675e-06
3.9662e-07
-1.98122e-06
1.87409e-07
-3.12447e-06
-1.84487e-06
1.19481e-06
2.75429e-06
6.36837e-07
-1.62848e-06
-2.66276e-06
2.14473e-07
3.36548e-06
1.10405e-06
-2.89604e-06
-9.00802e-07
3.06599e-06
1.73029e-06
-2.71347e-06
-1.97425e-06
2.7848e-06
1.84576e-06
-2.56108e-06
-2.60735e-06
2.76411e-06
1.00339e-06
-2.5671e-06
-2.92079e-06
2.34786e-06
5.9257e-07
-2.33316e-06
1.68115e-06
4.94949e-07
-2.94141e-06
-1.9737e-06
2.139e-06
2.32721e-06
1.04046e-06
-2.18787e-06
1.19029e-06
2.79263e-06
2.60043e-06
-4.87936e-07
2.21027e-06
4.17584e-06
-2.24481e-06
1.25114e-06
4.63249e-06
-3.50851e-06
2.10516e-06
3.02934e-06
-3.49905e-06
2.06515e-06
1.33551e-06
1.11375e-06
5.47666e-07
-3.22317e-06
2.82437e-06
1.14682e-06
1.84526e-06
-2.48627e-06
9.99917e-07
1.28595e-06
3.813e-06
5.46199e-08
1.128e-07
2.63169e-06
-2.34536e-07
3.0813e-08
1.95932e-06
-3.49774e-06
3.56382e-07
3.41353e-06
-3.33196e-06
1.16082e-06
2.45498e-06
6.42851e-07
7.43452e-07
-3.16363e-06
2.72916e-06
-2.75474e-07
2.50275e-06
-2.47642e-06
1.17272e-06
-6.5248e-07
5.38306e-06
-1.66021e-08
-9.77159e-08
2.02612e-06
-2.93858e-07
-6.14846e-09
9.17535e-07
-2.94449e-06
-1.98923e-07
3.07769e-06
-3.08155e-06
-1.37772e-07
3.48452e-06
2.6196e-07
1.00194e-06
-3.0625e-06
2.8723e-06
-1.52041e-06
2.02793e-06
-2.57521e-06
1.26753e-06
-2.17714e-06
4.16301e-06
4.82843e-08
-1.54038e-06
2.41547e-06
-6.8545e-08
-8.37863e-07
1.52508e-06
-3.15285e-06
-1.20806e-06
3.04839e-06
-3.33342e-06
-1.21312e-06
3.02658e-06
-2.54896e-07
9.30426e-07
-3.18342e-06
2.71693e-06
-2.23485e-06
1.15568e-06
-2.55054e-06
1.7141e-06
-3.03592e-06
2.77742e-06
1.39375e-08
-2.88701e-06
4.39843e-06
-1.90456e-06
-2.68807e-06
4.99404e-06
-3.71939e-06
-2.51908e-06
3.58523e-06
-3.7491e-06
-1.65563e-06
1.72027e-06
-9.14942e-07
6.342e-07
-3.39833e-06
1.78764e-06
6.64487e-07
-2.05849e-06
-2.32242e-06
8.45743e-07
1.23852e-06
-2.69009e-06
-5.30112e-07
2.1694e-06
-2.51589e-06
-2.05017e-06
2.48881e-06
-2.33323e-06
-3.04807e-06
1.50679e-06
-2.20745e-06
-3.28028e-06
7.40789e-07
-1.77435e-06
5.04558e-07
-3.20529e-06
-1.3067e-06
6.87062e-07
2.15596e-06
1.41191e-06
-1.27881e-06
-2.33922e-06
-1.42699e-07
2.19427e-06
1.91009e-06
-2.17036e-06
-8.85251e-07
1.59151e-06
2.63003e-06
-1.7487e-06
-1.4476e-06
1.05308e-06
2.85584e-06
-1.50066e-06
-1.92439e-06
1.57518e-06
1.83193e-06
-1.92688e-06
-2.37824e-06
1.74622e-06
1.3849e-06
-2.08463e-06
1.59928e-06
1.27016e-06
-2.67965e-06
-2.07313e-06
9.97759e-07
1.72459e-06
1.89853e-06
-1.42632e-06
2.92412e-07
1.96732e-06
3.3972e-06
-7.26946e-07
1.06708e-06
4.75898e-06
-1.58365e-06
2.39122e-07
4.67167e-06
-2.39775e-06
1.2434e-06
3.73714e-06
-2.66329e-06
1.47081e-06
1.87609e-06
9.88381e-07
1.33105e-06
-2.83591e-06
1.22394e-06
8.62875e-07
2.923e-06
-1.44001e-06
4.54517e-07
6.66453e-07
4.59952e-06
-7.23378e-08
1.88186e-08
1.47205e-06
-7.59434e-08
1.15157e-08
6.94259e-07
-2.31751e-06
1.82533e-07
3.45244e-06
-2.38431e-06
9.25772e-07
3.0665e-06
5.62655e-07
1.50115e-06
-2.71644e-06
8.5026e-07
-7.28037e-08
3.83034e-06
-1.24219e-06
7.69185e-08
-1.44647e-07
5.36167e-06
-8.2197e-08
7.26473e-09
7.88995e-07
-3.11019e-07
3.09607e-08
9.14469e-07
-1.8444e-06
-9.623e-08
2.97619e-06
-2.26695e-06
7.62513e-08
4.10066e-06
2.26557e-07
1.72319e-06
-2.65215e-06
1.24993e-06
-9.83779e-07
3.17223e-06
-1.48324e-06
4.63614e-07
-1.23689e-06
4.84726e-06
-7.51553e-08
-6.5076e-07
1.14548e-06
9.57851e-09
-7.3769e-08
6.32674e-07
-1.71517e-06
-6.42266e-07
2.63759e-06
-2.29249e-06
-5.82816e-07
3.59064e-06
-9.61739e-08
1.65178e-06
-2.69108e-06
1.47666e-06
-1.6318e-06
2.07582e-06
-1.74869e-06
7.76207e-07
-1.77995e-06
3.79614e-06
-3.66246e-07
-1.28106e-06
4.86447e-06
-1.16571e-06
-7.42706e-07
4.27523e-06
-2.57256e-06
-1.04171e-06
4.33385e-06
-2.85326e-06
-9.39019e-07
2.35711e-06
-7.14912e-07
1.39728e-06
-2.99756e-06
1.18796e-06
1.46567e-06
-1.69173e-06
-1.92927e-06
3.45642e-07
2.15223e-06
-1.85167e-06
-6.29009e-07
3.25687e-06
-1.39404e-06
-1.54974e-06
3.6876e-06
-1.02252e-06
-2.26194e-06
2.45465e-06
-1.27743e-06
-2.70875e-06
1.54195e-06
-1.2934e-06
1.28536e-06
-2.97064e-06
-1.23377e-06
6.26927e-07
1.85968e-06
3.03711e-06
-1.56115e-06
-2.55065e-06
-2.3829e-07
1.27531e-06
3.44296e-06
-1.94325e-06
-7.14156e-07
1.5394e-07
4.0738e-06
-1.12212e-06
-8.42285e-07
-4.57985e-07
4.26324e-06
-8.21652e-07
-1.37784e-06
6.69164e-07
3.41762e-06
-1.71923e-06
-2.17233e-06
1.53718e-06
3.04156e-06
-2.39943e-06
1.93617e-06
2.89389e-06
-2.94098e-06
-2.79116e-06
1.78046e-07
1.19e-06
3.48043e-06
-1.09065e-06
-5.40031e-07
6.37855e-07
4.73201e-06
-7.02593e-07
-1.02311e-07
5.58465e-06
-9.09926e-07
-2.9664e-07
5.04051e-06
-1.31267e-06
-9.3465e-08
4.91131e-06
-2.10592e-06
8.17268e-07
3.38873e-06
1.11289e-06
2.98518e-06
-2.93704e-06
-4.27903e-07
6.01728e-07
4.46594e-06
-5.26843e-07
-2.99208e-07
2.5897e-07
5.56101e-06
-3.24155e-08
3.29019e-09
7.49058e-07
-9.14677e-08
-3.59862e-08
5.01672e-07
-4.89895e-07
6.17489e-08
4.88355e-06
-1.61085e-06
6.6661e-07
4.32109e-06
5.95808e-07
3.12849e-06
-2.72131e-06
-1.07033e-06
1.25006e-07
5.42291e-06
-2.71793e-08
-4.02354e-07
1.65501e-07
5.20134e-06
-1.02538e-07
2.07661e-08
4.35377e-07
-1.80151e-07
4.63836e-08
7.34288e-07
-7.31867e-07
3.71048e-08
3.55916e-06
-1.54537e-06
2.04474e-07
5.15413e-06
1.41949e-07
3.28436e-06
-2.65281e-06
-4.75221e-07
-4.78243e-07
4.73564e-06
-4.8488e-07
-2.51988e-07
-3.44961e-08
5.55919e-06
-4.99698e-08
1.86029e-07
4.17831e-07
-6.18918e-08
2.47592e-07
3.95025e-07
-4.08551e-07
3.22128e-07
2.86141e-06
-1.5269e-06
7.1436e-08
4.72954e-06
-2.49995e-07
3.22305e-06
-2.70633e-06
4.33735e-07
-1.25337e-06
3.67192e-06
-1.25487e-06
-2.81258e-07
-6.61011e-07
5.21433e-06
-3.80816e-07
4.04395e-07
5.44899e-06
-7.47887e-07
1.00498e-06
4.20649e-06
-1.39675e-06
2.21745e-07
5.47303e-06
-2.24615e-06
-4.82688e-07
3.76056e-06
-9.94699e-07
3.02911e-06
-3.13348e-06
9.4058e-07
3.09721e-06
-1.84319e-06
-1.98243e-06
3.77134e-08
3.70611e-06
-1.31255e-06
-6.25537e-07
4.73332e-06
-4.08751e-07
-1.03307e-06
5.10774e-06
5.91471e-08
-1.66177e-06
3.95083e-06
-6.45762e-07
-2.46044e-06
3.17311e-06
-1.31538e-06
2.91686e-06
-3.22945e-06
-1.8575e-06
1.04023e-06
1.82619e-06
-2.1931e-06
-2.69313e-06
5.05688e-06
8.23149e-08
1.17412e-06
-2.18115e-06
5.40799e-06
-4.29475e-07
7.15349e-10
-1.33628e-06
5.92135e-06
-5.0252e-07
-6.17328e-07
-1.06577e-06
6.0192e-06
-1.19324e-06
8.34713e-07
-2.07626e-06
5.34983e-06
-2.10813e-06
1.81395e-06
-2.85654e-06
4.99869e-06
2.27487e-06
-3.03827e-06
-3.27952e-06
4.8285e-06
2.58577e-07
1.04019e-06
-1.46972e-06
5.47763e-06
-6.50388e-07
3.33875e-07
6.48139e-06
-7.35371e-07
-3.60111e-07
7.27957e-06
-5.26121e-07
-1.91703e-07
6.61307e-06
-1.07685e-06
-1.56603e-07
6.45764e-06
-2.05717e-06
9.03819e-07
5.27912e-06
1.35525e-06
-3.08134e-06
4.92879e-06
-6.97978e-07
4.5684e-07
-5.93068e-07
6.34045e-06
-6.20093e-07
1.4423e-07
7.41586e-06
-2.06341e-08
4.4596e-08
1.64194e-06
4.45534e-09
-1.57308e-08
3.23575e-07
-2.89658e-07
9.35507e-08
7.72728e-06
-1.68063e-06
6.31267e-07
5.98452e-06
6.76123e-07
-2.93999e-06
5.06701e-06
-1.55326e-06
1.53913e-07
1.34757e-07
7.1894e-06
-2.10701e-07
2.29387e-07
5.79235e-06
-8.90458e-08
3.0822e-09
3.31979e-07
-1.15259e-07
6.35058e-08
5.9033e-07
-5.50565e-07
2.28356e-07
6.95697e-06
-1.6589e-06
2.0961e-07
6.68413e-06
1.49721e-08
-2.91377e-06
5.2004e-06
-8.03386e-07
-4.31445e-07
-4.76011e-07
6.60054e-06
-4.59091e-07
2.73127e-07
7.19921e-06
-9.17608e-09
4.13329e-07
4.32845e-07
-1.60077e-07
2.51274e-07
3.335e-07
-2.70346e-07
6.12701e-07
6.28358e-06
-1.65322e-06
-3.57966e-08
6.35786e-06
-6.13365e-07
-2.95002e-06
5.14816e-06
3.62469e-07
-1.33017e-06
-1.47349e-06
5.68155e-06
-5.30505e-07
-5.27233e-07
6.95342e-06
-3.65482e-07
7.51675e-07
6.98373e-06
-5.1826e-07
1.42154e-06
5.04143e-06
-1.16647e-06
2.27742e-07
7.1011e-06
-2.19168e-06
-8.1916e-07
5.56912e-06
-1.55453e-06
-3.20631e-06
4.98478e-06
1.16903e-06
-2.25076e-06
-2.28775e-06
5.13655e-06
1.63471e-07
-1.49843e-06
5.68311e-06
-4.46085e-07
-4.22524e-07
6.51738e-06
-6.85322e-07
9.3583e-08
6.79462e-06
-1.37338e-06
-9.26864e-07
5.7936e-06
-2.25728e-06
-1.89868e-06
5.13643e-06
-3.10117e-06
-2.66836e-06
4.87432e-06
-3.48186e-06
-1.89322e-07
9.77941e-08
4.47276e-07
-3.65948e-06
-4.15968e-07
1.09326e-07
4.78936e-07
-3.90666e-06
-3.04638e-07
1.12255e-07
4.48584e-07
-4.19541e-06
-2.39809e-07
1.06173e-07
4.20755e-07
-4.47994e-06
-2.05155e-07
9.2987e-08
3.98333e-07
-4.75779e-06
-1.79494e-07
7.30675e-08
3.86725e-07
-5.02473e-06
-1.60156e-07
4.75281e-08
3.79797e-07
-1.43033e-07
1.3551e-08
3.7149e-07
-5.26651e-06
-3.21084e-06
1.66815e-07
1.31564e-07
-3.70054e-06
-7.13497e-08
1.49766e-07
-4.02016e-06
-1.41853e-07
1.51297e-07
-4.33539e-06
-7.02109e-08
1.43906e-07
-4.62301e-06
-4.50835e-08
1.28723e-07
-4.87772e-06
-3.27976e-08
1.06946e-07
-5.09517e-06
-2.1177e-08
7.89627e-08
-1.273e-08
4.62697e-08
-5.27224e-06
-3.21789e-06
2.17018e-07
1.2969e-07
-3.51712e-06
8.57791e-08
1.41338e-07
-3.91074e-06
8.87707e-08
1.65227e-07
-4.2331e-06
8.53455e-08
1.65959e-07
-4.53157e-06
9.79505e-08
1.52974e-07
-4.78842e-06
9.48065e-08
1.30856e-07
-5.00203e-06
9.18424e-08
1.01731e-07
9.2864e-08
6.6636e-08
-5.17386e-06
-3.19296e-06
2.18457e-07
1.59964e-07
-3.46078e-06
2.06202e-07
1.46729e-07
-3.80142e-06
2.62795e-07
1.66849e-07
-4.12564e-06
2.40697e-07
1.69323e-07
-4.39872e-06
2.17135e-07
1.54858e-07
-4.64069e-06
2.06791e-07
1.30175e-07
-4.85108e-06
1.99691e-07
9.9758e-08
1.85673e-07
6.30099e-08
-5.00485e-06
-3.06955e-06
2.5272e-07
1.43096e-07
-3.49194e-06
4.84534e-07
1.43573e-07
-3.8553e-06
4.70439e-07
1.55914e-07
-4.19169e-06
4.21381e-07
1.58195e-07
-4.50423e-06
3.8543e-07
1.43619e-07
-4.77836e-06
3.60987e-07
1.19281e-07
-5.00434e-06
3.39433e-07
8.7554e-08
3.20515e-07
4.94806e-08
-5.18835e-06
-3.47051e-06
5.43024e-07
1.22881e-07
-3.81552e-06
6.90573e-07
1.38623e-07
-4.10412e-06
6.1757e-07
1.4441e-07
-4.37482e-06
5.52201e-07
1.37968e-07
-4.62399e-06
5.11948e-07
1.22907e-07
-4.84912e-06
4.86464e-07
9.97152e-08
-5.04105e-06
4.61324e-07
6.92077e-08
4.41519e-07
3.11786e-08
-5.19188e-06
-3.43749e-06
9.5829e-08
7.63187e-07
-3.63787e-06
1.12352e-07
7.80999e-07
-3.83709e-06
1.16546e-07
6.97175e-07
-4.0666e-06
1.12088e-07
6.68457e-07
-4.3104e-06
9.8967e-08
6.5828e-07
-4.56144e-06
7.82631e-08
6.59476e-07
-4.80544e-06
5.05363e-08
6.54888e-07
1.26495e-08
6.61031e-07
-5.03748e-06
-3.42691e-06
-1.38547e-07
2.8602e-07
4.36521e-07
-3.88435e-06
-1.45775e-07
3.14691e-07
3.9805e-07
-4.32532e-06
-1.27743e-07
3.185e-07
3.62979e-07
-4.7407e-06
-1.08752e-07
2.98206e-07
3.32322e-07
-5.11616e-06
-9.34359e-08
2.56327e-07
3.05815e-07
-5.44051e-06
-8.13134e-08
1.96928e-07
2.8213e-07
-5.70668e-06
-7.15273e-08
1.2518e-07
2.60363e-07
-6.32349e-08
4.37861e-08
2.3999e-07
-5.91344e-06
-3.62036e-06
2.27315e-08
3.68076e-07
-4.04934e-06
3.1583e-08
4.02153e-07
-4.47675e-06
4.14508e-08
4.10071e-07
-4.87912e-06
4.96272e-08
3.88199e-07
-5.23616e-06
5.36601e-08
3.39233e-07
-5.53314e-06
5.45952e-08
2.68425e-07
-5.76178e-06
5.35947e-08
1.8284e-07
5.146e-08
8.76623e-08
-5.91757e-06
-3.61039e-06
1.89676e-07
4.09707e-07
-4.0712e-06
1.85265e-07
4.4883e-07
-4.51256e-06
1.799e-07
4.68524e-07
-4.92038e-06
1.72499e-07
4.51328e-07
-5.27679e-06
1.63331e-07
3.99954e-07
-5.56526e-06
1.52979e-07
3.21147e-07
-5.77653e-06
1.4228e-07
2.24441e-07
1.31895e-07
1.17492e-07
-5.90766e-06
-3.5644e-06
4.12042e-07
4.39864e-07
-4.0506e-06
3.56908e-07
4.61762e-07
-4.51029e-06
3.24255e-07
4.82586e-07
-4.92957e-06
2.96326e-07
4.65393e-07
-5.29356e-06
2.7166e-07
4.1092e-07
-5.58688e-06
2.49952e-07
3.26973e-07
-5.79922e-06
2.3084e-07
2.23808e-07
2.13751e-07
1.09252e-07
-5.92708e-06
-3.6367e-06
5.91831e-07
4.16914e-07
-4.08963e-06
5.16924e-07
4.36765e-07
-4.52758e-06
4.6605e-07
4.52348e-07
-4.93024e-06
4.2493e-07
4.32524e-07
-5.28253e-06
3.8986e-07
3.77958e-07
-5.56848e-06
3.59682e-07
2.95632e-07
-5.77857e-06
3.33245e-07
1.95427e-07
3.09605e-07
8.44001e-08
-5.90915e-06
-3.72267e-06
6.80971e-07
3.58533e-07
-4.1095e-06
6.56663e-07
3.86117e-07
-4.50454e-06
6.13744e-07
3.92249e-07
-4.88155e-06
5.72649e-07
3.67693e-07
-5.21961e-06
5.36406e-07
3.1482e-07
-5.50266e-06
5.03874e-07
2.38939e-07
-5.72153e-06
4.73834e-07
1.47803e-07
4.4533e-07
4.58162e-08
-5.8716e-06
-3.58319e-06
2.84251e-07
8.7099e-07
-3.95209e-06
3.14282e-07
8.24208e-07
-4.32049e-06
3.19336e-07
7.79784e-07
-4.67707e-06
2.98204e-07
7.43524e-07
-5.00607e-06
2.53355e-07
7.11378e-07
-5.29418e-06
1.89178e-07
6.81308e-07
-5.53316e-06
1.11669e-07
6.51866e-07
2.28015e-08
6.22418e-07
-5.72027e-06
-3.40634e-06
2.17971e-08
7.42962e-07
2.47769e-07
-4.15385e-06
4.57373e-08
8.22082e-07
1.94294e-07
-4.91369e-06
7.05963e-08
8.56038e-07
1.5166e-07
-5.66679e-06
8.99496e-08
8.45023e-07
1.16275e-07
-6.38978e-06
1.02004e-07
7.89896e-07
8.73559e-08
-7.05678e-06
1.08161e-07
6.91481e-07
6.42751e-08
-7.63879e-06
1.10054e-07
5.50792e-07
4.63562e-08
1.09166e-07
3.72949e-07
3.29502e-08
-8.11005e-06
-3.54219e-06
1.37605e-07
9.58452e-07
-4.29162e-06
1.59966e-07
1.03726e-06
-5.05586e-06
1.76445e-07
1.06847e-06
-5.80793e-06
1.83235e-07
1.047e-06
-6.52242e-06
1.82741e-07
9.73006e-07
-7.17059e-06
1.77406e-07
8.47389e-07
-7.71789e-06
1.68934e-07
6.7132e-07
1.585e-07
4.51135e-07
-8.1306e-06
-3.4985e-06
2.29036e-07
1.10024e-06
-4.29479e-06
2.29428e-07
1.17566e-06
-5.0859e-06
2.25661e-07
1.21052e-06
-5.85329e-06
2.15849e-07
1.18616e-06
-6.57369e-06
2.01939e-07
1.10115e-06
-7.21814e-06
1.86264e-07
9.5676e-07
-7.74956e-06
1.70145e-07
7.54723e-07
1.5423e-07
5.02609e-07
-8.13026e-06
-3.47044e-06
3.33409e-07
1.15372e-06
-4.29216e-06
2.96533e-07
1.21643e-06
-5.09912e-06
2.64187e-07
1.25105e-06
-5.87537e-06
2.32721e-07
1.22484e-06
-6.59977e-06
2.02811e-07
1.13453e-06
-7.24385e-06
1.75684e-07
9.81747e-07
-7.77041e-06
1.51887e-07
7.68783e-07
1.31436e-07
5.04021e-07
-8.1422e-06
-3.51673e-06
4.77272e-07
1.09879e-06
-4.33337e-06
3.93552e-07
1.15642e-06
-5.1319e-06
3.30581e-07
1.18448e-06
-5.90012e-06
2.79058e-07
1.15442e-06
-6.61817e-06
2.35783e-07
1.06311e-06
-7.25871e-06
1.99747e-07
9.12182e-07
-7.78572e-06
1.70329e-07
7.04137e-07
1.46792e-07
4.47494e-07
-8.16404e-06
-3.67009e-06
5.63229e-07
9.45191e-07
-4.4077e-06
5.08848e-07
1.00853e-06
-5.1591e-06
4.44964e-07
1.02935e-06
-5.89838e-06
3.8946e-07
9.96649e-07
-6.6005e-06
3.42698e-07
9.10123e-07
-7.23656e-06
3.03547e-07
7.71319e-07
-7.77187e-06
2.7096e-07
5.82628e-07
2.44014e-07
3.52325e-07
-8.17551e-06
-3.62047e-06
7.35558e-07
7.61784e-07
-4.30227e-06
8.07405e-07
6.97556e-07
-5.01278e-06
8.3235e-07
6.42538e-07
-5.72845e-06
8.09191e-07
5.94257e-07
-6.42257e-06
7.39244e-07
5.51001e-07
-7.06585e-06
6.24332e-07
5.1173e-07
-7.62598e-06
4.66906e-07
4.75883e-07
2.74537e-07
4.43275e-07
-8.077e-06
-4.18885e-06
2.5905e-07
1.71089e-06
2.06308e-08
-5.55718e-06
3.11258e-07
1.91962e-06
-4.07515e-08
-6.99287e-06
3.49912e-07
2.02763e-06
-8.59897e-08
-8.40969e-06
3.69074e-07
2.01271e-06
-1.20033e-07
-9.69899e-06
3.72681e-07
1.85112e-06
-1.44732e-07
-1.07378e-05
3.64975e-07
1.52733e-06
-1.62149e-07
-1.14044e-05
3.49068e-07
1.04247e-06
-1.74147e-07
3.27675e-07
4.11517e-07
-1.81238e-07
-1.15895e-05
-4.22613e-06
3.08536e-07
2.1978e-06
-5.63881e-06
3.5957e-07
2.40141e-06
-7.11308e-06
3.88294e-07
2.50418e-06
-8.56622e-06
3.9573e-07
2.47338e-06
-9.88548e-06
3.88305e-07
2.27649e-06
-1.09328e-05
3.70203e-07
1.8894e-06
-1.15628e-05
3.44002e-07
1.30635e-06
3.1158e-07
5.37385e-07
-1.1633e-05
-4.11801e-06
2.90335e-07
2.51506e-06
-5.59743e-06
2.99814e-07
2.71467e-06
-7.11944e-06
3.00018e-07
2.82074e-06
-8.61245e-06
2.88105e-07
2.78678e-06
-9.96427e-06
2.69013e-07
2.57223e-06
-1.10288e-05
2.46004e-07
2.14547e-06
-1.16454e-05
2.20677e-07
1.49463e-06
1.93922e-07
6.25482e-07
-1.16505e-05
-4.08717e-06
2.49917e-07
2.62837e-06
-5.59699e-06
2.08774e-07
2.81717e-06
-7.13742e-06
1.68464e-07
2.92298e-06
-8.64289e-06
1.30927e-07
2.88741e-06
-1.00031e-05
9.78418e-08
2.66584e-06
-1.10702e-05
7.12131e-08
2.2236e-06
-1.1679e-05
5.18262e-08
1.54638e-06
3.913e-08
6.39266e-07
-1.16595e-05
-4.16153e-06
2.90554e-07
2.51324e-06
-5.66761e-06
1.74008e-07
2.69717e-06
-7.19561e-06
8.57922e-08
2.79504e-06
-8.68437e-06
2.03706e-08
2.75363e-06
-1.00278e-05
-2.68691e-08
2.53112e-06
-1.10817e-05
-5.86985e-08
2.09584e-06
-1.16856e-05
-7.66839e-08
1.43641e-06
-8.29195e-08
5.61831e-07
-1.16779e-05
-4.41333e-06
3.29848e-07
2.18557e-06
-5.81524e-06
2.10816e-07
2.37344e-06
-7.27287e-06
1.09471e-07
2.46305e-06
-8.70694e-06
3.29331e-08
2.41794e-06
-1.00083e-05
-2.08131e-08
2.20523e-06
-1.10396e-05
-5.72639e-08
1.80101e-06
-1.16517e-05
-8.2749e-08
1.20058e-06
-1.00259e-07
4.20391e-07
-1.17026e-05
-4.41298e-06
1.70377e-06
5.44759e-07
-5.73485e-06
1.90351e-06
4.36221e-07
-7.14036e-06
2.00114e-06
3.45907e-07
-8.53984e-06
1.97321e-06
2.68113e-07
-9.81919e-06
1.79543e-06
2.02127e-07
-1.085e-05
1.45182e-06
1.45991e-07
-1.15067e-05
9.44597e-07
9.61344e-08
2.96836e-07
5.07892e-08
-1.16801e-05
-4.46564e-06
4.25936e-07
-1.57425e-07
2.86965e-06
-6.12439e-06
4.94523e-07
-2.16418e-07
3.29992e-06
-7.99401e-06
5.33528e-07
-2.54118e-07
3.6177e-06
-1.004e-05
5.49187e-07
-2.77452e-07
3.78678e-06
-1.22308e-05
5.50614e-07
-2.87664e-07
3.77878e-06
-1.45346e-05
5.41633e-07
-2.86709e-07
3.57615e-06
-1.69135e-05
5.16971e-07
-2.77133e-07
3.18141e-06
4.73003e-07
-2.60942e-07
-1.93944e-05
2.68027e-06
-4.55326e-06
4.26785e-07
3.66881e-06
-6.22299e-06
4.73923e-07
4.09159e-06
-8.08452e-06
4.95518e-07
4.40356e-06
-1.01165e-05
4.96509e-07
4.55791e-06
-1.22877e-05
4.85779e-07
4.51225e-06
-1.45579e-05
4.6739e-07
4.23387e-06
-1.68921e-05
4.39753e-07
3.71765e-06
3.98813e-07
-1.93529e-05
3.07223e-06
-4.49203e-06
3.03925e-07
4.18992e-06
-6.19865e-06
2.90412e-07
4.60464e-06
-8.07077e-06
2.67779e-07
4.92035e-06
-1.01007e-05
2.36681e-07
5.0764e-06
-1.22644e-05
2.04914e-07
5.0166e-06
-1.45227e-05
1.7678e-07
4.69422e-06
-1.68369e-05
1.53229e-07
4.09518e-06
1.32472e-07
-1.92898e-05
3.34476e-06
-4.4847e-06
1.23033e-07
4.38011e-06
-6.19668e-06
3.61886e-08
4.78313e-06
-8.05863e-06
-4.59068e-08
5.09837e-06
-1.00721e-05
-1.17957e-07
5.25526e-06
-1.2218e-05
-1.74637e-07
5.19115e-06
-1.44597e-05
-2.11592e-07
4.85343e-06
-1.6758e-05
-2.26189e-07
4.22389e-06
-2.17279e-07
-1.92028e-05
3.43385e-06
-4.5077e-06
-5.77111e-09
4.19954e-06
-6.20293e-06
-1.72552e-07
4.6008e-06
-8.04579e-06
-3.17227e-07
4.90889e-06
-1.00396e-05
-4.30245e-07
5.05943e-06
-1.21665e-05
-5.12168e-07
4.9952e-06
-1.43912e-05
-5.60596e-07
4.66913e-06
-1.66765e-05
-5.70983e-07
4.06632e-06
-5.39292e-07
-1.91041e-05
3.31125e-06
-4.61957e-06
-7.95609e-08
3.67239e-06
-6.22796e-06
-2.73366e-07
4.08227e-06
-8.02487e-06
-4.42462e-07
4.38481e-06
-9.99086e-06
-5.78145e-07
4.53151e-06
-1.2097e-05
-6.8022e-07
4.47906e-06
-1.43054e-05
-7.45949e-07
4.19445e-06
-1.65818e-05
-7.65373e-07
3.67104e-06
-7.31717e-07
-1.89869e-05
3.01758e-06
-4.43518e-06
8.13289e-08
2.87642e-06
-6.00628e-06
-1.02246e-07
3.30304e-06
-7.80084e-06
-2.65076e-07
3.61854e-06
-9.78367e-06
-4.06279e-07
3.78491e-06
-1.19219e-05
-5.20954e-07
3.77312e-06
-1.41785e-05
-6.02514e-07
3.56424e-06
-1.65059e-05
-6.5241e-07
3.15879e-06
-6.58763e-07
-1.89266e-05
2.64427e-06
-2.43447e-06
3.03513e-07
1.41101e-07
-1.63154e-07
-2.6793e-06
2.63883e-07
1.48413e-07
-1.66008e-07
-3.00287e-06
2.99906e-07
1.46118e-07
-1.21722e-07
-3.35911e-06
3.131e-07
1.33741e-07
-9.22086e-08
-3.72014e-06
3.24205e-07
1.11974e-07
-7.62628e-08
-4.07744e-06
3.4019e-07
8.1755e-08
-6.53578e-08
-4.41541e-06
3.51139e-07
4.3445e-08
-5.56811e-08
3.53609e-07
-1.00144e-09
-4.74859e-08
-4.72267e-06
-2.62831e-06
2.72842e-07
2.33414e-07
-2.73556e-06
1.45778e-07
2.25951e-07
-2.88025e-06
2.13549e-07
2.31771e-07
-3.0363e-06
2.39288e-07
2.29539e-07
-3.19351e-06
2.60616e-07
2.2027e-07
-3.34136e-06
2.82123e-07
2.05915e-07
-3.46552e-06
2.91366e-07
1.83542e-07
3.26536e-07
1.55398e-07
-3.59377e-06
-2.71797e-06
-1.73638e-08
3.49361e-07
-2.78363e-06
-8.2942e-08
2.93805e-07
-2.77314e-06
-9.82449e-08
3.01456e-07
-2.77793e-06
-7.2782e-08
3.16945e-07
-2.80016e-06
-4.27657e-08
3.25773e-07
-2.84293e-06
-9.79579e-09
3.34492e-07
-2.90509e-06
1.94174e-08
3.34161e-07
5.42449e-08
3.40145e-07
-2.97286e-06
-2.89282e-06
-4.33496e-07
4.18022e-07
-2.97332e-06
-3.23906e-07
3.2076e-07
-2.9748e-06
-4.29078e-07
3.3174e-07
-2.99372e-06
-4.21077e-07
3.67048e-07
-3.02194e-06
-4.12936e-07
3.98347e-07
-3.04566e-06
-4.06692e-07
4.2034e-07
-3.04308e-06
-4.13302e-07
4.29929e-07
-4.35388e-07
4.33852e-07
-2.98742e-06
-2.4471e-06
-8.9309e-07
3.22948e-07
-2.48209e-06
-5.48062e-07
2.58703e-07
-2.65214e-06
-5.33232e-07
2.76287e-07
-2.77972e-06
-5.82081e-07
2.88055e-07
-2.88177e-06
-6.0215e-07
2.91101e-07
-2.97092e-06
-6.01022e-07
2.84003e-07
-3.06681e-06
-5.90916e-07
2.73563e-07
-5.6134e-07
2.54525e-07
-3.19549e-06
-2.46629e-06
-8.0729e-07
2.18797e-07
-2.62656e-06
-5.90647e-07
2.02772e-07
-2.83449e-06
-5.39977e-07
2.13609e-07
-3.07697e-06
-5.51084e-07
2.12286e-07
-3.31806e-06
-5.61257e-07
2.01743e-07
-3.53031e-06
-5.72764e-07
1.82559e-07
-3.70228e-06
-5.76417e-07
1.55896e-07
-5.61444e-07
1.24437e-07
-3.82384e-06
-2.2509e-06
1.42727e-07
-4.99266e-07
-2.57661e-06
1.49986e-07
-4.16573e-07
-2.9476e-06
1.54908e-07
-3.24622e-07
-3.34461e-06
1.45582e-07
-2.9896e-07
-3.74557e-06
1.2787e-07
-2.87234e-07
-4.13975e-06
1.02463e-07
-2.81267e-07
-4.50781e-06
7.08753e-08
-2.78206e-07
3.24923e-08
-2.74395e-07
-4.83014e-06
-2.47225e-06
3.45924e-07
3.4106e-07
-1.31661e-07
-2.88499e-06
3.02707e-07
3.67199e-07
-1.08647e-07
-3.31021e-06
2.88417e-07
3.71404e-07
-8.80567e-08
-3.73478e-06
2.85233e-07
3.45638e-07
-7.24562e-08
-4.14077e-06
2.8688e-07
2.91377e-07
-6.02222e-08
-4.5114e-06
2.89038e-07
2.13706e-07
-5.02158e-08
-4.83597e-06
2.90104e-07
1.19861e-07
-4.18017e-08
2.89902e-07
1.37434e-08
-3.47932e-08
-5.10576e-06
-2.70122e-06
2.03583e-07
5.26929e-07
-2.90431e-06
1.9768e-07
5.34398e-07
-3.15792e-06
2.07589e-07
5.66545e-07
-3.43959e-06
2.21435e-07
5.75311e-07
-3.72654e-06
2.4219e-07
5.52223e-07
-3.99565e-06
2.64943e-07
4.99343e-07
-4.23178e-06
2.86891e-07
4.23698e-07
3.07247e-07
3.35379e-07
-4.42895e-06
-2.68005e-06
-1.58859e-07
8.17221e-07
-2.75168e-06
-1.36311e-07
6.99514e-07
-2.86965e-06
-1.21959e-07
7.49028e-07
-3.02475e-06
-1.05255e-07
7.98776e-07
-3.19196e-06
-8.4612e-08
8.19955e-07
-3.33931e-06
-6.14872e-08
8.08222e-07
-3.44841e-06
-3.76197e-08
7.6776e-07
-1.38557e-08
7.08432e-07
-3.49552e-06
-2.64223e-06
-5.27868e-07
9.53176e-07
-2.70732e-06
-4.94148e-07
7.43978e-07
-2.81203e-06
-4.83658e-07
7.98455e-07
-2.94095e-06
-4.72114e-07
8.62916e-07
-3.06357e-06
-4.63978e-07
9.00664e-07
-3.15429e-06
-4.57856e-07
9.07624e-07
-3.19583e-06
-4.53492e-07
8.87485e-07
-4.50563e-07
8.49069e-07
-3.17427e-06
-2.59629e-06
-8.10074e-07
7.1563e-07
-2.726e-06
-7.49424e-07
6.43568e-07
-2.90826e-06
-7.19808e-07
6.94911e-07
-3.11519e-06
-7.0747e-07
7.30411e-07
-3.32304e-06
-7.00383e-07
7.35327e-07
-3.51166e-06
-6.94777e-07
7.09484e-07
-3.66036e-06
-6.89156e-07
6.58044e-07
-6.83172e-07
5.90202e-07
-3.76335e-06
-2.44705e-06
-8.19888e-07
4.88293e-07
-2.76729e-06
-7.34585e-07
5.08465e-07
-3.11635e-06
-6.92807e-07
5.35725e-07
-3.47574e-06
-6.7002e-07
5.34473e-07
-3.82366e-06
-6.53006e-07
5.02349e-07
-4.14057e-06
-6.3761e-07
4.42444e-07
-4.41153e-06
-6.22113e-07
3.599e-07
-6.06259e-07
2.67283e-07
-4.63103e-06
-2.14778e-06
3.43541e-07
-5.00608e-07
-2.64923e-06
3.76749e-07
-4.59541e-07
-3.14709e-06
3.84864e-07
-4.24776e-07
-3.63449e-06
3.62759e-07
-3.99478e-07
-4.09419e-06
3.13485e-07
-3.78744e-07
-4.5102e-06
2.41964e-07
-3.60928e-07
-4.87147e-06
1.55204e-07
-3.45019e-07
6.08114e-08
-3.30247e-07
-5.17574e-06
-2.38363e-06
3.46463e-07
7.94768e-07
-1.08377e-07
-3.11161e-06
3.179e-07
8.63933e-07
-8.6787e-08
-3.87087e-06
3.10514e-07
8.92054e-07
-7.2e-08
-4.63619e-06
3.04528e-07
8.67531e-07
-6.11386e-08
-5.37903e-06
2.95675e-07
7.90845e-07
-5.23482e-08
-6.06952e-06
2.84283e-07
6.6519e-07
-4.51004e-08
-6.67579e-06
2.70756e-07
4.94605e-07
-3.90641e-08
2.56088e-07
2.88121e-07
-3.39355e-08
-7.17228e-06
-2.24685e-06
2.21469e-07
1.14977e-06
-2.82771e-06
2.39176e-07
1.19409e-06
-3.45646e-06
2.4781e-07
1.25794e-06
-4.10738e-06
2.54833e-07
1.27721e-06
-4.76508e-06
2.63447e-07
1.23955e-06
-5.39238e-06
2.7044e-07
1.14069e-06
-5.95351e-06
2.74342e-07
9.81426e-07
2.75495e-07
7.6827e-07
-6.4056e-06
-1.9042e-06
-1.34767e-07
1.59432e-06
-2.34649e-06
-1.10918e-07
1.49206e-06
-2.84063e-06
-9.15113e-08
1.58279e-06
-3.37131e-06
-7.42411e-08
1.65874e-06
-3.91037e-06
-5.55233e-08
1.6777e-06
-4.42475e-06
-3.66469e-08
1.62935e-06
-4.87345e-06
-1.85886e-08
1.50954e-06
-7.89237e-10
1.32615e-06
-5.21472e-06
-1.72607e-06
-5.33215e-07
1.83546e-06
-2.15801e-06
-5.24062e-07
1.58907e-06
-2.62877e-06
-5.05804e-07
1.68361e-06
-3.13395e-06
-4.87709e-07
1.78166e-06
-3.64504e-06
-4.68431e-07
1.82478e-06
-4.12732e-06
-4.46381e-07
1.80007e-06
-4.53757e-06
-4.22162e-07
1.70178e-06
-3.97756e-07
1.53438e-06
-4.82573e-06
-1.90659e-06
-8.25502e-07
1.47448e-06
-2.4155e-06
-7.99231e-07
1.42769e-06
-2.96953e-06
-7.76857e-07
1.5201e-06
-3.55336e-06
-7.57209e-07
1.58381e-06
-4.14169e-06
-7.35171e-07
1.59045e-06
-4.70168e-06
-7.09252e-07
1.53262e-06
-5.19028e-06
-6.80611e-07
1.40707e-06
-6.5037e-07
1.21854e-06
-5.56783e-06
-2.04395e-06
-8.20089e-07
1.10046e-06
-2.72847e-06
-7.69991e-07
1.16387e-06
-3.44514e-06
-7.47532e-07
1.22322e-06
-4.17485e-06
-7.26679e-07
1.2338e-06
-4.89168e-06
-7.03111e-07
1.18812e-06
-5.56829e-06
-6.76408e-07
1.08492e-06
-6.16922e-06
-6.46434e-07
9.24244e-07
-6.15004e-07
7.12453e-07
-6.64972e-06
-2.05686e-06
7.96059e-07
-4.94398e-07
-2.8597e-06
8.74341e-07
-4.64742e-07
-3.68892e-06
9.07733e-07
-4.41186e-07
-4.52011e-06
8.89658e-07
-4.22219e-07
-5.32588e-06
8.21316e-07
-4.05172e-07
-6.07672e-06
7.05133e-07
-3.88645e-07
-6.73992e-06
5.44012e-07
-3.72003e-07
3.45505e-07
-3.55003e-07
-7.28463e-06
-3.09966e-06
3.34022e-07
1.77355e-06
-5.61955e-08
-4.5096e-06
3.45095e-07
1.97039e-06
-4.17672e-08
-5.99784e-06
3.39556e-07
2.07266e-06
-3.14885e-08
-7.46901e-06
3.1311e-07
2.04929e-06
-2.39822e-08
-8.80902e-06
2.73505e-07
1.87519e-06
-1.81742e-08
-9.88947e-06
2.2735e-07
1.53243e-06
-1.36613e-08
-1.05822e-05
1.77941e-07
1.01946e-06
-9.75518e-09
1.26479e-07
3.55849e-07
-6.61377e-09
-1.07696e-05
-2.4251e-06
2.42519e-07
2.41131e-06
-3.77064e-06
2.92118e-07
2.59224e-06
-5.20721e-06
3.02745e-07
2.73133e-06
-6.65074e-06
2.9441e-07
2.74685e-06
-8.00606e-06
2.73621e-07
2.59313e-06
-9.12294e-06
2.45299e-07
2.23795e-06
-9.84555e-06
2.12881e-07
1.66726e-06
1.77715e-07
8.82101e-07
-1.00233e-05
-1.55019e-06
-1.15413e-07
3.01725e-06
-2.78883e-06
-6.86768e-08
3.09155e-06
-4.14222e-06
-3.3342e-08
3.27232e-06
-5.54088e-06
-6.73086e-09
3.35893e-06
-6.87459e-06
1.39301e-08
3.27148e-06
-7.9954e-06
3.2341e-08
2.96084e-06
-8.72485e-06
4.79878e-08
2.40416e-06
5.8898e-08
1.58006e-06
-8.85968e-06
-1.11702e-06
-5.14957e-07
3.32484e-06
-2.36888e-06
-4.99161e-07
3.27167e-06
-3.71677e-06
-4.64626e-07
3.46301e-06
-5.10271e-06
-4.24092e-07
3.5854e-06
-6.42731e-06
-3.77462e-07
3.54114e-06
-7.54032e-06
-3.28987e-07
3.27511e-06
-8.26192e-06
-2.83616e-07
2.75537e-06
-2.43725e-07
1.94532e-06
-8.37023e-06
-1.67249e-06
-8.0606e-07
2.91133e-06
-2.97761e-06
-8.00141e-07
3.03404e-06
-4.37548e-06
-7.62885e-07
3.21653e-06
-5.80548e-06
-7.06153e-07
3.2962e-06
-7.15649e-06
-6.36108e-07
3.20373e-06
-8.28054e-06
-5.59945e-07
2.89455e-06
-9.03075e-06
-4.83468e-07
2.34384e-06
-4.08741e-07
1.52636e-06
-9.17328e-06
-2.37247e-06
-7.88172e-07
2.36444e-06
-3.80259e-06
-7.70621e-07
2.56463e-06
-5.30893e-06
-7.3675e-07
2.70365e-06
-6.81591e-06
-6.81492e-07
2.71724e-06
-8.20979e-06
-6.13726e-07
2.56264e-06
-9.35814e-06
-5.39816e-07