/*--------------------------------*- C++ -*----------------------------------*\
| =========                 |                                                 |
| \\      /  F ield         | OpenFOAM: The Open Source CFD Toolbox           |
|  \\    /   O peration     | Version:  plus.master                           |
|   \\  /    A nd           | Web:      www.OpenFOAM.com                      |
|    \\/     M anipulation  |                                                 |
\*---------------------------------------------------------------------------*/
FoamFile
{
    version     2.0;
    format      ascii;
    class       surfaceScalarField;
    location    "9";
    object      phi;
}
// * * * * * * * * * * * * * * * * * * * * * * * * * * * * * * * * * * * * * //

dimensions      [0 3 -1 0 0 0 0];

internalField   nonuniform List<scalar> 
138768
(
1.10093e-06
2.41581e-06
3.5998e-07
-1.52411e-06
-2.5267e-06
6.938e-07
2.01481e-06
6.71148e-07
-2.47299e-06
-6.74424e-07
2.63273e-06
1.06084e-06
-2.68601e-06
-2.20242e-06
2.74103e-06
1.08781e-06
-2.6519e-06
-2.88551e-06
2.1022e-06
6.53134e-07
-2.34451e-06
-2.87823e-06
1.3825e-06
3.7243e-07
-2.031e-06
1.77547e-06
2.46502e-07
-3.0234e-06
-2.14161e-06
1.00548e-06
2.49216e-06
6.41249e-07
-1.72687e-06
2.0365e-06
4.03969e-06
2.3227e-06
-1.20576e-07
6.89984e-06
3.26845e-06
-3.44852e-06
7.65691e-06
3.79056e-06
-4.52736e-06
5.88178e-06
2.67771e-06
-2.2362e-06
2.91712e-06
1.55296e-06
1.54767e-06
3.35554e-07
-2.73784e-06
2.03879e-06
1.44136e-06
1.08758e-06
-2.17966e-06
5.45925e-06
2.27606e-06
3.72157e-06
3.01481e-06
4.95625e-06
9.76624e-06
-5.99236e-06
8.33541e-06
1.37069e-05
-6.98574e-06
4.45357e-06
7.7996e-06
-2.70184e-06
1.8613e-06
2.15172e-06
8.99582e-07
5.25623e-07
-2.80766e-06
2.83037e-06
-4.18491e-07
1.42637e-06
-2.65252e-06
7.5234e-06
-1.26277e-06
4.2243e-06
7.92975e-06
-3.95057e-06
1.38787e-05
-9.73444e-06
-7.1653e-06
3.85429e-05
-7.82202e-06
-3.15286e-06
1.10567e-05
-2.70487e-06
-6.59929e-07
2.78261e-06
2.45526e-08
7.31919e-07
-2.79364e-06
2.42391e-06
-1.8348e-06
1.16964e-06
-2.47678e-06
6.16684e-06
-3.27217e-06
3.64475e-06
3.82321e-06
-6.29558e-06
1.00673e-05
-5.79399e-06
-7.52733e-06
1.53729e-05
-7.19274e-06
-5.24321e-06
8.86732e-06
-2.78468e-06
-2.11675e-06
2.42721e-06
-9.60904e-07
6.5182e-07
-2.83916e-06
1.45999e-06
-1.99104e-06
6.87038e-07
-2.12298e-06
2.78299e-06
-1.72036e-06
2.50327e-06
5.73461e-07
-2.41867e-06
3.709e-06
-3.29487e-06
-2.75578e-06
4.47533e-06
-4.86269e-06
-1.75571e-06
3.45891e-06
-2.40369e-06
-9.13097e-07
1.71595e-06
-1.11659e-06
4.0274e-07
-2.94119e-06
1.57254e-06
3.71813e-07
-1.95407e-06
-2.24494e-06
1.17757e-06
7.21904e-07
-2.24966e-06
-3.90885e-07
1.25461e-06
-2.42407e-06
-2.44764e-06
1.41148e-06
-2.46262e-06
-3.20003e-06
9.04346e-07
-1.99726e-06
-3.02149e-06
4.73259e-07
-1.57284e-06
2.5441e-07
-3.18171e-06
-1.5745e-06
1.18962e-06
2.74717e-06
7.05531e-07
-1.62292e-06
-2.65947e-06
2.44784e-07
3.31472e-06
1.183e-06
-2.88157e-06
-8.91599e-07
3.10297e-06
1.82705e-06
-2.73275e-06
-1.99977e-06
2.86417e-06
1.92987e-06
-2.59797e-06
-2.63592e-06
2.77023e-06
1.09234e-06
-2.57296e-06
-2.92163e-06
2.30368e-06
6.70879e-07
-2.31625e-06
1.676e-06
5.56412e-07
-2.93877e-06
-1.96841e-06
2.08459e-06
2.34559e-06
1.12241e-06
-2.16401e-06
1.34597e-06
3.65769e-06
2.71854e-06
-5.67948e-07
3.63281e-06
4.65286e-06
-2.67975e-06
3.05874e-06
5.70805e-06
-3.78552e-06
3.33151e-06
3.22245e-06
-3.46591e-06
2.10809e-06
1.429e-06
1.13184e-06
6.24217e-07
-3.2102e-06
2.7992e-06
1.18834e-06
1.93211e-06
-2.48644e-06
3.07426e-06
1.82815e-06
5.27625e-06
9.24383e-07
2.49993e-06
1.30492e-05
-3.43031e-06
1.00574e-06
2.01156e-05
-3.88144e-06
2.26712e-06
9.31605e-06
-3.33888e-06
1.17628e-06
2.54146e-06
6.59497e-07
8.29692e-07
-3.1704e-06
2.8264e-06
-2.92491e-07
2.59416e-06
-2.51338e-06
2.96534e-06
-8.41319e-07
6.75495e-06
-1.6944e-07
-1.58487e-06
2.10988e-05
-3.82888e-06
5.8796e-09
4.32018e-05
-3.65839e-06
-1.16364e-06
1.43157e-05
-3.12491e-06
-1.43288e-07
3.56881e-06
2.5595e-07
1.09158e-06
-3.08093e-06
2.89336e-06
-1.54579e-06
2.11795e-06
-2.58816e-06
3.1684e-06
-2.85109e-06
5.37955e-06
1.17497e-06
-3.38057e-06
1.38573e-05
-3.03042e-06
-2.97243e-06
2.25608e-05
-3.73871e-06
-2.8583e-06
1.12706e-05
-3.35666e-06
-1.20378e-06
3.10568e-06
-2.71724e-07
1.0193e-06
-3.19642e-06
2.65662e-06
-2.22745e-06
1.24069e-06
-2.52858e-06
2.20939e-06
-2.98093e-06
3.08028e-06
1.20933e-08
-2.9236e-06
5.44901e-06
-2.73696e-06
-2.78064e-06
7.0329e-06
-4.02879e-06
-2.50227e-06
4.39479e-06
-3.7216e-06
-1.6175e-06
1.8226e-06
-9.11166e-07
7.11486e-07
-3.39084e-06
1.77731e-06
7.34818e-07
-2.05224e-06
-2.31563e-06
8.68195e-07
1.32096e-06
-2.67081e-06
-5.2731e-07
2.26094e-06
-2.53455e-06
-2.09026e-06
2.5674e-06
-2.37364e-06
-3.06928e-06
1.58945e-06
-2.2083e-06
-3.27905e-06
8.20866e-07
-1.75518e-06
5.69006e-07
-3.20343e-06
-1.30125e-06
9.01317e-07
2.40033e-06
1.42611e-06
-1.47475e-06
-2.54747e-06
3.25875e-08
2.59003e-06
1.92725e-06
-2.46569e-06
-8.34584e-07
2.17721e-06
2.65918e-06
-2.14225e-06
-1.57868e-06
1.73816e-06
2.87584e-06
-1.94028e-06
-2.13934e-06
2.07602e-06
1.85128e-06
-2.27447e-06
-2.59021e-06
2.05071e-06
1.39947e-06
-2.3286e-06
1.78556e-06
1.28138e-06
-2.85851e-06
-2.24222e-06
1.3565e-06
1.96051e-06
1.91663e-06
-1.71105e-06
6.38315e-07
2.57355e-06
3.45296e-06
-8.49341e-07
2.64213e-06
5.67574e-06
-2.0044e-06
1.68567e-06
6.91561e-06
-2.80303e-06
2.24867e-06
3.84817e-06
-2.99419e-06
1.77438e-06
1.89622e-06
1.15248e-06
1.34513e-06
-3.08228e-06
1.82077e-06
9.67466e-07
2.95382e-06
-1.84945e-06
1.98954e-06
1.22561e-06
6.45556e-06
-6.98554e-07
1.43574e-06
1.6943e-05
-2.33413e-06
1.22429e-06
2.22139e-05
-3.0655e-06
1.90407e-06
1.03926e-05
-2.87886e-06
1.03154e-06
3.09762e-06
6.30211e-07
1.51717e-06
-3.0442e-06
1.54464e-06
-1.56427e-07
3.88237e-06
-1.70906e-06
1.15249e-06
-4.04526e-07
8.77703e-06
-1.76802e-06
-9.25322e-07
2.63801e-05
-3.709e-06
6.16515e-07
4.57476e-05
-3.17954e-06
-8.88291e-07
1.65802e-05
-2.79572e-06
2.04078e-08
4.19591e-06
1.95579e-07
1.74176e-06
-3.01137e-06
1.85477e-06
-1.20191e-06
3.20868e-06
-1.90006e-06
1.92982e-06
-1.86709e-06
6.76724e-06
1.68317e-07
-2.30209e-06
1.69963e-05
-2.18917e-06
-1.45861e-06
2.69915e-05
-3.10944e-06
-1.87997e-06
1.31828e-05
-2.82643e-06
-8.64925e-07
3.70796e-06
-2.44117e-07
1.67032e-06
-3.0379e-06
1.85418e-06
-1.8697e-06
2.09949e-06
-2.04541e-06
1.30588e-06
-2.16982e-06
3.93123e-06
-3.95814e-07
-1.8991e-06
6.74853e-06
-2.03117e-06
-1.47185e-06
8.6811e-06
-3.05654e-06
-1.59179e-06
5.13187e-06
-3.22468e-06
-1.25356e-06
2.37935e-06
-9.01569e-07
1.41094e-06
-3.26687e-06
1.42174e-06
1.48124e-06
-1.89883e-06
-2.13908e-06
5.51994e-07
2.17277e-06
-2.1521e-06
-5.66717e-07
3.29518e-06
-1.81459e-06
-1.69357e-06
3.72488e-06
-1.50255e-06
-2.50648e-06
2.47054e-06
-1.66002e-06
-2.94443e-06
1.55648e-06
-1.55135e-06
1.29702e-06
-3.165e-06
-1.40922e-06
8.49654e-07
2.12217e-06
2.99826e-06
-1.76986e-06
-2.77414e-06
-7.41434e-08
1.71132e-06
3.39892e-06
-2.25921e-06
-6.55103e-07
7.22073e-07
4.03508e-06
-1.51699e-06
-9.92298e-07
2.36442e-07
4.24269e-06
-1.2661e-06
-1.59562e-06
1.15153e-06
3.37252e-06
-2.06975e-06
-2.38986e-06
1.84541e-06
2.99979e-06
-2.65171e-06
2.12469e-06
2.86013e-06
-3.12713e-06
-2.96648e-06
5.74369e-07
1.43104e-06
3.43604e-06
-1.40265e-06
-1.55216e-07
1.17394e-06
4.71993e-06
-9.84005e-07
6.02496e-07
6.62394e-06
-1.31879e-06
-2.20441e-07
7.70767e-06
-1.72523e-06
4.7473e-07
4.93138e-06
-2.44457e-06
1.12106e-06
3.33989e-06
1.27243e-06
2.94458e-06
-3.19208e-06
1.72888e-07
7.2098e-07
4.44919e-06
-9.58177e-07
-2.5156e-07
6.0753e-07
7.44641e-06
-1.18078e-06
4.05416e-07
1.80686e-05
-1.76415e-06
-1.14816e-06
2.37246e-05
-1.19368e-06
6.7463e-07
9.62225e-06
-2.08548e-06
8.17874e-07
4.29257e-06
6.69387e-07
3.08208e-06
-3.04747e-06
-4.25374e-07
3.01102e-08
5.463e-06
-4.64236e-07
-1.31831e-06
1.47556e-07
1.01304e-05
-4.02071e-06
5.53015e-07
2.8935e-05
-3.9496e-06
1.02418e-06
4.35039e-05
-1.78689e-06
-1.41089e-07
1.5232e-05
-2.08487e-06
1.33292e-07
5.17827e-06
1.06607e-07
3.23629e-06
-3.0167e-06
1.39988e-07
-7.0627e-07
4.73085e-06
-9.25901e-07
-3.94664e-07
-5.05649e-07
7.95537e-06
-2.49348e-06
2.7339e-09
1.96457e-05
-1.98365e-06
6.99452e-07
2.68099e-05
-1.35236e-06
1.68564e-07
1.22415e-05
-2.0414e-06
-2.32005e-07
4.76226e-06
-3.89925e-07
3.1768e-06
-3.05144e-06
8.47073e-07
-1.50882e-06
3.63318e-06
-1.57814e-06
1.24187e-07
-1.09011e-06
5.23882e-06
-7.26659e-07
-2.17162e-07
7.81803e-06
-1.3799e-06
3.93124e-07
9.63982e-06
-1.8693e-06
-2.42253e-07
6.03201e-06
-2.6268e-06
-8.10657e-07
3.71547e-06
-1.18475e-06
2.98717e-06
-3.40832e-06
1.18335e-06
3.05925e-06
-2.06316e-06
-2.20673e-06
2.32522e-07
3.66742e-06
-1.63338e-06
-5.65085e-07
4.72631e-06
-8.50591e-07
-1.22951e-06
5.15974e-06
-3.77234e-07
-1.89649e-06
3.91523e-06
-1.01997e-06
-2.69884e-06
3.1308e-06
-1.58272e-06
2.882e-06
-3.43019e-06
-2.03855e-06
1.13439e-06
1.93809e-06
-2.28404e-06
-2.79214e-06
5.00196e-06
1.51553e-07
1.35095e-06
-2.31831e-06
5.3491e-06
-3.9309e-07
2.14026e-07
-1.50508e-06
5.87081e-06
-5.79775e-07
-3.09022e-07
-1.26077e-06
5.99928e-06
-1.29233e-06
1.03229e-06
-2.23496e-06
5.28775e-06
-2.20884e-06
1.95087e-06
-2.97417e-06
4.93976e-06
2.36197e-06
-3.12589e-06
-3.36207e-06
4.77735e-06
4.21624e-07
1.13262e-06
-1.60291e-06
5.42284e-06
-4.85514e-07
5.27736e-07
6.45034e-06
-8.79101e-07
-6.31374e-07
7.86287e-06
-7.47614e-07
-1.34319e-06
8.6106e-06
-1.2581e-06
2.62924e-08
6.44804e-06
-2.21041e-06
1.02814e-06
5.21436e-06
1.42517e-06
-3.2008e-06
4.87137e-06
-5.0322e-07
5.2098e-07
-7.57557e-07
6.3216e-06
-1.51138e-06
3.42457e-07
8.63982e-06
-7.86694e-07
8.33106e-07
1.58796e-05
-5.9577e-07
-1.85706e-06
2.40464e-05
-5.41018e-07
2.43993e-07
9.35413e-06
-1.87429e-06
7.10785e-07
5.94349e-06
7.15159e-07
-3.08766e-06
5.00534e-06
-1.31659e-06
1.13856e-07
-5.8458e-08
7.24532e-06
-2.38116e-06
3.36631e-07
1.12009e-05
-4.25855e-06
9.03607e-07
3.07415e-05
-3.11758e-06
1.60726e-06
3.88813e-05
-9.29903e-07
3.23166e-07
1.29619e-05
-1.89732e-06
1.71828e-07
6.68457e-06
-7.67233e-10
-3.08328e-06
5.13795e-06
-5.87651e-07
-5.15103e-07
-6.49163e-07
6.59661e-06
-1.61072e-06
1.09529e-07
9.20554e-06
-2.14367e-06
1.3836e-06
1.97066e-05
-1.39315e-06
1.79638e-06
2.58745e-05
-6.05344e-07
8.32593e-07
1.09418e-05
-1.8641e-06
-1.48448e-07
6.34112e-06
-6.72969e-07
-3.10454e-06
5.08917e-06
5.42272e-07
-1.4382e-06
-1.61831e-06
5.6325e-06
-3.71756e-07
-7.02774e-07
6.96442e-06
-6.71731e-07
5.17024e-07
8.98311e-06
-8.43258e-07
1.20546e-06
1.04026e-05
-1.36043e-06
4.76423e-08
7.33401e-06
-2.35665e-06
-9.53332e-07
5.51643e-06
-1.63699e-06
-3.33439e-06
4.92876e-06
1.27922e-06
-2.35207e-06
-2.38855e-06
5.08282e-06
2.53354e-07
-1.6428e-06
5.63359e-06
-4.08318e-07
-6.02965e-07
6.50783e-06
-7.80957e-07
-1.08e-07
6.84584e-06
-1.4836e-06
-1.08776e-06
5.75314e-06
-2.36868e-06
-2.01844e-06
5.08086e-06
-3.19666e-06
-2.75075e-06
4.82368e-06
-3.6283e-06
-2.54896e-07
1.34288e-07
4.86182e-07
-3.90566e-06
-4.94141e-07
1.48271e-07
5.34577e-07
-4.14863e-06
-3.53654e-07
1.4902e-07
5.03814e-07
-4.41599e-06
-2.71132e-07
1.39361e-07
4.64935e-07
-4.7019e-06
-2.27959e-07
1.22247e-07
4.3715e-07
-4.96955e-06
-1.97293e-07
9.83465e-08
4.20646e-07
-5.20265e-06
-1.73233e-07
6.82311e-08
4.06258e-07
-1.52702e-07
3.12486e-08
3.91991e-07
-5.41273e-06
-3.57875e-06
1.83279e-07
1.98433e-07
-3.93811e-06
-1.02779e-07
2.04649e-07
-4.24758e-06
-1.754e-07
2.00518e-07
-4.54104e-06
-8.44282e-08
1.86834e-07
-4.82315e-06
-5.28548e-08
1.65712e-07
-5.06684e-06
-3.75555e-08
1.38266e-07
-5.25738e-06
-2.3861e-08
1.04698e-07
-1.40912e-08
6.66656e-08
-5.43221e-06
-3.58468e-06
2.50244e-07
2.04028e-07
-4.11816e-06
1.11925e-07
2.17392e-07
-4.34474e-06
1.06024e-07
2.28455e-07
-4.63793e-06
9.89395e-08
2.20896e-07
-4.89791e-06
1.1171e-07
1.99543e-07
-5.10337e-06
1.07313e-07
1.69008e-07
-5.2883e-06
1.02022e-07
1.32256e-07
1.01908e-07
9.08031e-08
-5.42978e-06
-3.47775e-06
2.79776e-07
2.41361e-07
-3.96011e-06
2.77432e-07
2.24865e-07
-4.22212e-06
3.25592e-07
2.33473e-07
-4.53113e-06
2.87033e-07
2.26905e-07
-4.85516e-06
2.51325e-07
2.03814e-07
-5.1281e-06
2.36737e-07
1.72213e-07
-5.28603e-06
2.23168e-07
1.33072e-07
2.03606e-07
8.85188e-08
-5.47079e-06
-3.56973e-06
3.36938e-07
2.26079e-07
-4.02217e-06
6.22374e-07
2.18078e-07
-4.30366e-06
5.62488e-07
2.18564e-07
-4.60573e-06
4.86838e-07
2.13077e-07
-4.864e-06
4.35567e-07
1.89288e-07
-5.08455e-06
3.98891e-07
1.56515e-07
-5.25467e-06
3.68103e-07
1.17028e-07
3.42143e-07
7.19743e-08
-5.40593e-06
-3.77478e-06
6.85747e-07
1.84726e-07
-4.14307e-06
8.29505e-07
1.96484e-07
-4.34303e-06
7.18733e-07
1.94077e-07
-4.58756e-06
6.23174e-07
1.80729e-07
-4.82749e-06
5.71131e-07
1.60149e-07
-5.02011e-06
5.33275e-07
1.30626e-07
-5.17942e-06
4.97413e-07
9.43439e-08
4.6847e-07
5.12045e-08
-5.36358e-06
-3.73187e-06
1.37323e-07
8.38853e-07
-3.91994e-06
1.52387e-07
8.90457e-07
-4.11748e-06
1.55406e-07
7.86929e-07
-4.32026e-06
1.46948e-07
7.46183e-07
-4.55614e-06
1.29911e-07
7.26291e-07
-4.77555e-06
1.0457e-07
7.16653e-07
-4.97043e-06
7.19826e-08
7.03612e-07
3.05486e-08
6.9385e-07
-5.1474e-06
-3.42079e-06
-1.42887e-07
3.14928e-07
4.37865e-07
-3.87883e-06
-1.45019e-07
3.42328e-07
3.9893e-07
-4.32001e-06
-1.26723e-07
3.44281e-07
3.63449e-07
-4.73425e-06
-1.0806e-07
3.21872e-07
3.32613e-07
-5.10833e-06
-9.30104e-08
2.7784e-07
3.06015e-07
-5.43168e-06
-8.10691e-08
2.16386e-07
2.82286e-07
-5.69744e-06
-7.13383e-08
1.42537e-07
2.60534e-07
-6.30087e-08
5.9074e-08
2.40218e-07
-5.90326e-06
-3.61785e-06
2.67737e-08
4.11956e-07
-4.04886e-06
3.50973e-08
4.41097e-07
-4.47542e-06
4.34805e-08
4.44398e-07
-4.87582e-06
5.12984e-08
4.18367e-07
-5.23092e-06
5.48302e-08
3.65687e-07
-5.52611e-06
5.54304e-08
2.91671e-07
-5.75348e-06
5.42588e-08
2.03124e-07
5.2081e-08
1.05017e-07
-5.9086e-06
-3.61536e-06
1.95503e-07
4.65517e-07
-4.07762e-06
1.88669e-07
4.96556e-07
-4.51752e-06
1.82279e-07
5.09239e-07
-4.92211e-06
1.74247e-07
4.86137e-07
-5.2749e-06
1.64696e-07
4.2983e-07
-5.56033e-06
1.54094e-07
3.46919e-07
-5.76915e-06
1.43182e-07
2.46592e-07
1.32595e-07
1.36084e-07
-5.89843e-06
-3.57617e-06
4.13624e-07
5.00094e-07
-4.06078e-06
3.58268e-07
5.1305e-07
-4.5177e-06
3.25463e-07
5.2589e-07
-4.93326e-06
2.97364e-07
5.02063e-07
-5.29307e-06
2.72631e-07
4.42115e-07
-5.5832e-06
2.50851e-07
3.53677e-07
-5.79315e-06
2.3172e-07
2.46612e-07
2.14628e-07
1.28229e-07
-5.91938e-06
-3.6473e-06
5.89152e-07
4.7342e-07
-4.09841e-06
5.16106e-07
4.85154e-07
-4.53373e-06
4.65975e-07
4.93581e-07
-4.93279e-06
4.25274e-07
4.67707e-07
-5.2813e-06
3.90443e-07
4.08086e-07
-5.56394e-06
3.60345e-07
3.21556e-07
-5.77161e-06
3.33858e-07
2.17666e-07
3.10082e-07
1.02939e-07
-5.90045e-06
-3.72315e-06
6.86852e-07
4.03703e-07
-4.11132e-06
6.57607e-07
4.26091e-07
-4.5054e-06
6.14234e-07
4.27383e-07
-4.88021e-06
5.73255e-07
3.98467e-07
-5.21584e-06
5.3709e-07
3.41715e-07
-5.49682e-06
5.04541e-07
2.62488e-07
-5.71428e-06
4.744e-07
1.68291e-07
4.4572e-07
6.31276e-08
-5.86316e-06
-3.57857e-06
3.14334e-07
8.73431e-07
-3.94845e-06
3.42946e-07
8.26435e-07
-4.31683e-06
3.46013e-07
7.81419e-07
-4.67248e-06
3.2263e-07
7.44836e-07
-5.00012e-06
2.75498e-07
7.12442e-07
-5.28695e-06
2.09173e-07
6.8222e-07
-5.52534e-06
1.29527e-07
6.52691e-07
3.86229e-08
6.23193e-07
-5.71164e-06
-3.58094e-06
3.68779e-08
7.48122e-07
2.52118e-07
-4.31603e-06
5.32719e-08
8.26879e-07
1.97133e-07
-5.06119e-06
7.53827e-08
8.60368e-07
1.53483e-07
-5.79895e-06
9.31904e-08
8.48842e-07
1.17531e-07
-6.50701e-06
1.0438e-07
7.93222e-07
8.82641e-08
-7.16007e-06
1.09987e-07
6.94434e-07
6.49684e-08
-7.72967e-06
1.11527e-07
5.53599e-07
4.69295e-08
1.10445e-07
3.75857e-07
3.34931e-08
-8.19041e-06
-3.76191e-06
1.61951e-07
9.66285e-07
-4.48595e-06
1.74199e-07
1.04405e-06
-5.22586e-06
1.85306e-07
1.07425e-06
-5.95536e-06
1.89114e-07
1.05187e-06
-6.64927e-06
1.86782e-07
9.77091e-07
-7.27882e-06
1.80237e-07
8.50905e-07
-7.80974e-06
1.70932e-07
6.74564e-07
1.59904e-07
4.54368e-07
-8.20863e-06
-3.77168e-06
2.44796e-07
1.11007e-06
-4.52449e-06
2.39442e-07
1.18396e-06
-5.27952e-06
2.32092e-07
1.21732e-06
-6.01624e-06
2.20179e-07
1.19171e-06
-6.71029e-06
2.04958e-07
1.10571e-06
-7.33216e-06
1.88402e-07
9.60627e-07
-7.84456e-06
1.71679e-07
7.58259e-07
1.55332e-07
5.06109e-07
-8.21008e-06
-3.76691e-06
3.35998e-07
1.16438e-06
-4.53801e-06
2.97991e-07
1.22545e-06
-5.30364e-06
2.65173e-07
1.25831e-06
-6.04563e-06
2.33417e-07
1.23066e-06
-6.74125e-06
2.03328e-07
1.13925e-06
-7.36104e-06
1.7607e-07
9.85703e-07
-7.86737e-06
1.52171e-07
7.72364e-07
1.31605e-07
5.07525e-07
-8.22301e-06
-3.80195e-06
4.64561e-07
1.10874e-06
-4.57125e-06
3.8752e-07
1.16485e-06
-5.33136e-06
3.27456e-07
1.19135e-06
-6.06754e-06
2.77248e-07
1.15998e-06
-6.75853e-06
2.34655e-07
1.06764e-06
-7.37598e-06
1.99022e-07
9.15978e-07
-7.88367e-06
1.69838e-07
7.07563e-07
1.46421e-07
4.50847e-07
-8.24653e-06
-3.90552e-06
5.5359e-07
9.5311e-07
-4.61361e-06
5.06041e-07
1.01544e-06
-5.33823e-06
4.44093e-07
1.03518e-06
-6.05334e-06
3.89169e-07
1.00151e-06
-6.73385e-06
3.4255e-07
9.14163e-07
-7.35067e-06
3.03424e-07
7.74758e-07
-7.86933e-06
2.70836e-07
5.85786e-07
2.43902e-07
3.55489e-07
-8.2593e-06
-3.80914e-06
7.40819e-07
7.70925e-07
-4.47652e-06
8.12286e-07
7.03797e-07
-5.17038e-06
8.3674e-07
6.46955e-07
-5.86941e-06
8.1304e-07
5.97496e-07
-6.54757e-06
7.42582e-07
5.53419e-07
-7.17596e-06
6.27291e-07
5.13561e-07
-7.72273e-06
4.69735e-07
4.77274e-07
2.77493e-07
4.44371e-07
-8.16211e-06
-4.37625e-06
2.77943e-07
1.69381e-06
2.53467e-08
-5.73288e-06
3.18993e-07
1.90217e-06
-3.78373e-08
-7.15273e-06
3.54178e-07
2.00995e-06
-8.4103e-08
-8.55176e-06
3.71873e-07
1.99456e-06
-1.18736e-07
-9.82174e-06
3.74631e-07
1.83227e-06
-1.43793e-07
-1.08408e-05
3.66288e-07
1.50855e-06
-1.61452e-07
-1.14899e-05
3.49868e-07
1.02624e-06
-1.73604e-07
3.28142e-07
4.01852e-07
-1.808e-07
-1.16634e-05
-4.45495e-06
3.33632e-07
2.17323e-06
-5.84362e-06
3.73517e-07
2.37805e-06
-7.29401e-06
3.9681e-07
2.48183e-06
-8.72332e-06
4.01321e-07
2.45151e-06
-1.00183e-05
3.92084e-07
2.25454e-06
-1.10417e-05
3.72711e-07
1.8677e-06
-1.16505e-05
3.45611e-07
1.28736e-06
3.12628e-07
5.25851e-07
-1.17066e-05
-4.39583e-06
3.07538e-07
2.48429e-06
-5.83516e-06
3.10011e-07
2.68663e-06
-7.32241e-06
3.0642e-07
2.79475e-06
-8.78408e-06
2.92329e-07
2.76213e-06
-1.01065e-05
2.71898e-07
2.54808e-06
-1.11431e-05
2.4798e-07
2.12181e-06
-1.17353e-05
2.22059e-07
1.47377e-06
1.94958e-07
6.12636e-07
-1.17243e-05
-4.39013e-06
2.50298e-07
2.59493e-06
-5.85139e-06
2.0927e-07
2.78726e-06
-7.35144e-06
1.69046e-07
2.89553e-06
-8.82174e-06
1.31471e-07
2.86163e-06
-1.015e-05
9.83132e-08
2.64081e-06
-1.11873e-05
7.1643e-08
2.19915e-06
-1.177e-05
5.22411e-08
1.52479e-06
3.94985e-08
6.25922e-07
-1.17331e-05
-4.45091e-06
2.76397e-07
2.4819e-06
-5.91323e-06
1.67453e-07
2.66874e-06
-7.40421e-06
8.24431e-08
2.76872e-06
-8.86016e-06
1.84982e-08
2.72868e-06
-1.01731e-05
-2.80007e-08
2.50669e-06
-1.11982e-05
-5.9297e-08
2.0719e-06
-1.1777e-05
-7.68981e-08
1.41531e-06
-8.2964e-08
5.48926e-07
-1.17527e-05
-4.6561e-06
3.16665e-07
2.16037e-06
-6.03063e-06
2.07582e-07
2.34956e-06
-7.4621e-06
1.08598e-07
2.44024e-06
-8.87069e-06
3.27207e-08
2.39565e-06
-1.01467e-05
-2.08667e-08
2.18286e-06
-1.1153e-05
-5.72659e-08
1.77886e-06
-1.17428e-05
-8.26349e-08
1.18118e-06
-1.00178e-07
4.08814e-07
-1.17791e-05
-4.61264e-06
1.68627e-06
5.5348e-07
-5.92073e-06
1.8857e-06
4.42088e-07
-7.3088e-06
1.98318e-06
3.50022e-07
-8.68912e-06
1.95482e-06
2.71094e-07
-9.9482e-06
1.77631e-06
2.04315e-07
-1.09587e-05
1.43268e-06
1.47596e-07
-1.15971e-05
9.28033e-07
9.72801e-08
2.8732e-07
5.14951e-08
-1.17587e-05
-4.55611e-06
4.37493e-07
-1.55373e-07
2.84191e-06
-6.20751e-06
4.98539e-07
-2.15227e-07
3.27025e-06
-8.06619e-06
5.35371e-07
-2.5333e-07
3.5864e-06
-1.00986e-05
5.50181e-07
-2.76916e-07
3.75356e-06
-1.22736e-05
5.51043e-07
-2.87273e-07
3.74334e-06
-1.45597e-05
5.41509e-07
-2.8643e-07
3.5394e-06
-1.69191e-05
5.16321e-07
-2.76885e-07
3.14608e-06
4.7206e-07
-2.60629e-07
-1.93781e-05
2.64941e-06
-4.66139e-06
4.40136e-07
3.63089e-06
-6.3195e-06
4.8121e-07
4.0532e-06
-8.16714e-06
4.99715e-07
4.36484e-06
-1.0183e-05
4.98984e-07
4.51836e-06
-1.23359e-05
4.87093e-07
4.47119e-06
-1.45863e-05
4.67755e-07
4.1917e-06
-1.68992e-05
4.39365e-07
3.67704e-06
3.9803e-07
-1.93363e-05
3.03704e-06
-4.62222e-06
3.14155e-07
4.14451e-06
-6.31098e-06
2.96355e-07
4.55992e-06
-8.16443e-06
2.71398e-07
4.87629e-06
-1.01749e-05
2.38855e-07
5.03243e-06
-1.23178e-05
2.06144e-07
4.97176e-06
-1.45541e-05
1.77298e-07
4.64848e-06
-1.68453e-05
1.53257e-07
4.05103e-06
1.32278e-07
-1.92735e-05
3.30651e-06
-4.62904e-06
1.22458e-07
4.33201e-06
-6.3183e-06
3.65385e-08
4.73608e-06
-8.15856e-06
-4.52857e-08
5.05227e-06
-1.01504e-05
-1.1739e-07
5.20955e-06
-1.22742e-05
-1.74213e-07
5.14483e-06
-1.44927e-05
-2.11265e-07
4.80633e-06
-1.67672e-05
-2.25837e-07
4.17837e-06
-2.16805e-07
-1.91867e-05
3.39439e-06
-4.64353e-06
-1.14118e-08
4.15446e-06
-6.31941e-06
-1.75171e-07
4.55612e-06
-8.14264e-06
-3.18154e-07
4.86468e-06
-1.01162e-05
-4.30506e-07
5.0152e-06
-1.22216e-05
-5.12124e-07
4.95005e-06
-1.44236e-05
-5.60299e-07
4.62306e-06
-1.66856e-05
-5.70373e-07
4.0218e-06
-5.38339e-07
-1.90878e-05
3.27264e-06
-4.7346e-06
-8.56813e-08
3.63465e-06
-6.33014e-06
-2.73926e-07
4.04377e-06
-8.1121e-06
-4.41815e-07
4.3458e-06
-1.00611e-05
-5.77514e-07
4.49157e-06
-1.21482e-05
-6.79711e-07
4.43752e-06
-1.43359e-05
-7.45522e-07
4.15171e-06
-1.65901e-05
-7.64843e-07
3.62981e-06
-7.30895e-07
-1.89705e-05
2.9818e-06
-4.53172e-06
8.70442e-08
2.84866e-06
-6.09473e-06
-9.84032e-08
3.2732e-06
-7.87806e-06
-2.62429e-07
3.58708e-06
-9.84834e-06
-4.04466e-07
3.75209e-06
-1.19701e-05
-5.19725e-07
3.73805e-06
-1.42062e-05
-6.04188e-07
3.5273e-06
-1.65133e-05
-6.5262e-07
3.12285e-06
-6.58771e-07
-1.8911e-05
2.61287e-06
-2.32036e-06
3.01569e-07
1.80113e-07
-1.7934e-07
-2.59853e-06
2.77185e-07
1.86772e-07
-1.79372e-07
-2.95445e-06
3.1865e-07
1.82608e-07
-1.29452e-07
-3.32631e-06
3.34017e-07
1.66821e-07
-9.73466e-08
-3.69488e-06
3.4644e-07
1.41024e-07
-7.98409e-08
-4.04858e-06
3.60511e-07
1.06536e-07
-6.76846e-08
-4.3727e-06
3.70972e-07
6.39918e-08
-5.69718e-08
3.77364e-07
1.14228e-08
-4.81511e-08
-4.64583e-06
-2.51326e-06
3.08195e-07
2.96422e-07
-2.63975e-06
1.53901e-07
2.83605e-07
-2.81739e-06
2.29397e-07
2.83488e-07
-3.0441e-06
2.57675e-07
2.77998e-07
-3.24548e-06
2.84381e-07
2.65091e-07
-3.42211e-06
3.03527e-07
2.44585e-07
-3.64108e-06
3.17501e-07
2.17509e-07
3.49763e-07
1.87057e-07
-3.8783e-06
-2.77732e-06
-3.07402e-08
4.56192e-07
-2.73238e-06
-9.71129e-08
3.70367e-07
-2.72363e-06
-1.12094e-07
3.70263e-07
-2.76041e-06
-7.96256e-08
3.77662e-07
-2.80612e-06
-4.64338e-08
3.8231e-07
-2.88207e-06
-1.09309e-08
3.81488e-07
-2.91072e-06
1.96413e-08
3.79178e-07
5.45463e-08
3.68937e-07
-2.89705e-06
-2.82791e-06
-5.0992e-07
5.27885e-07
-2.84718e-06
-3.81818e-07
3.9506e-07
-2.87411e-06
-4.82976e-07
4.03742e-07
-2.84566e-06
-4.53411e-07
4.26606e-07
-2.84761e-06
-4.33516e-07
4.46084e-07
-2.87436e-06
-4.22575e-07
4.57294e-07
-2.89377e-06
-4.25537e-07
4.60648e-07
-4.56046e-07
4.59125e-07
-2.8595e-06
-2.36414e-06
-9.16933e-07
4.00401e-07
-2.55444e-06
-6.53084e-07
3.45431e-07
-2.6426e-06
-6.0363e-07
3.47539e-07
-2.73491e-06
-6.42499e-07
3.47325e-07
-2.85211e-06
-6.51701e-07
3.4101e-07
-2.95567e-06
-6.45466e-07
3.28019e-07
-3.1173e-06
-6.28164e-07
3.09249e-07
-6.14516e-07
2.90448e-07
-3.18688e-06
-2.27198e-06
-7.80567e-07
2.67514e-07
-2.65274e-06
-6.71268e-07
2.66324e-07
-2.85289e-06
-5.93651e-07
2.68325e-07
-3.12767e-06
-6.04266e-07
2.62292e-07
-3.37267e-06
-6.06932e-07
2.45127e-07
-3.59826e-06
-6.11925e-07
2.19057e-07
-3.83935e-06
-6.11498e-07
1.8732e-07
-5.97898e-07
1.52333e-07
-4.096e-06
-2.11234e-06
1.76787e-07
-5.22877e-07
-2.58249e-06
1.93363e-07
-4.63653e-07
-2.94789e-06
1.93389e-07
-3.52534e-07
-3.37306e-06
1.8101e-07
-3.239e-07
-3.78547e-06
1.58864e-07
-3.06881e-07
-4.1831e-06
1.29146e-07
-2.97176e-07
-4.53879e-06
9.30014e-08
-2.90255e-07
5.05217e-08
-2.83086e-07
-4.8308e-06
-2.46572e-06
3.42519e-07
3.74487e-07
-1.30974e-07
-2.88063e-06
3.04045e-07
3.98923e-07
-1.08315e-07
-3.30687e-06
2.89399e-07
4.00736e-07
-8.80946e-08
-3.7305e-06
2.85486e-07
3.72322e-07
-7.24875e-08
-4.13496e-06
2.86597e-07
3.15407e-07
-6.02408e-08
-4.50416e-06
2.88439e-07
2.35246e-07
-5.02384e-08
-4.82787e-06
2.89394e-07
1.39153e-07
-4.18634e-08
2.89188e-07
3.08104e-08
-3.4875e-08
-5.10166e-06
-2.69722e-06
2.13505e-07
5.78235e-07
-2.90582e-06
2.02353e-07
5.80047e-07
-3.16023e-06
2.09921e-07
6.06502e-07
-3.44032e-06
2.22352e-07
6.10077e-07
-3.72505e-06
2.42425e-07
5.82352e-07
-3.9918e-06
2.64842e-07
5.25506e-07
-4.22674e-06
2.86707e-07
4.46547e-07
3.07113e-07
3.55223e-07
-4.42278e-06
-2.69641e-06
-1.54532e-07
8.82046e-07
-2.76675e-06
-1.356e-07
7.56287e-07
-2.88137e-06
-1.2193e-07
7.9741e-07
-3.0317e-06
-1.05539e-07
8.39853e-07
-3.19445e-06
-8.49643e-08
8.54833e-07
-3.33756e-06
-6.18191e-08
8.3793e-07
-3.44346e-06
-3.79295e-08
7.93197e-07
-1.41308e-08
7.30299e-07
-3.48848e-06
-2.66619e-06
-5.42538e-07
1.02158e-06
-2.72664e-06
-5.00656e-07
8.04803e-07
-2.82654e-06
-4.87481e-07
8.49883e-07
-2.94931e-06
-4.74348e-07
9.06267e-07
-3.06657e-06
-4.65497e-07
9.37313e-07
-3.15279e-06
-4.58961e-07
9.38743e-07
-3.19113e-06
-4.5435e-07
9.14025e-07
-4.51256e-07
8.71756e-07
-3.16734e-06
-2.60343e-06
-8.22916e-07
7.80394e-07
-2.73643e-06
-7.56873e-07
6.99862e-07
-2.91766e-06
-7.2445e-07
7.42666e-07
-3.12095e-06
-7.10387e-07
7.70979e-07
-3.32455e-06
-7.02318e-07
7.69891e-07
-3.50939e-06
-6.96159e-07
7.38982e-07
-3.65541e-06
-6.90243e-07
6.83317e-07
-6.84096e-07
6.11805e-07
-3.75641e-06
-2.4405e-06
-8.18438e-07
5.39041e-07
-2.76722e-06
-7.37733e-07
5.53391e-07
-3.11733e-06
-6.95638e-07
5.75024e-07
-3.47563e-06
-6.72063e-07
5.68733e-07
-3.82122e-06
-6.54383e-07
5.32173e-07
-4.13582e-06
-6.3857e-07
4.68351e-07
-4.40493e-06
-6.22851e-07
3.82463e-07
-6.06931e-07
2.86862e-07
-4.62325e-06
-2.14089e-06
3.76478e-07
-5.01787e-07
-2.64461e-06
4.07955e-07
-4.60977e-07
-3.14286e-06
4.13733e-07
-4.26138e-07
-3.62976e-06
3.89072e-07
-4.00756e-07
-4.08804e-06
3.3724e-07
-3.79864e-07
-4.50264e-06
2.63322e-07
-3.61914e-07
-4.86317e-06
1.74401e-07
-3.45913e-07
7.74831e-08
-3.31116e-07
-5.16684e-06
-2.58898e-06
3.72548e-07
8.01381e-07
-1.09525e-07
-3.30356e-06
3.31091e-07
8.69906e-07
-8.7556e-08
-4.04559e-06
3.17993e-07
8.97248e-07
-7.257e-08
-4.79282e-06
3.0912e-07
8.71954e-07
-6.15233e-08
-5.51804e-06
2.98694e-07
7.94585e-07
-5.26194e-08
-6.19237e-06
2.86363e-07
6.68449e-07
-4.53276e-08
-6.78395e-06
2.72247e-07
4.97689e-07
-3.92509e-08
2.5725e-07
2.91331e-07
-3.40797e-08
-7.26755e-06
-2.51224e-06
2.57018e-07
1.16043e-06
-3.06211e-06
2.57913e-07
1.20287e-06
-3.66178e-06
2.58528e-07
1.26552e-06
-4.28786e-06
2.61185e-07
1.2839e-06
-4.9185e-06
2.67394e-07
1.24425e-06
-5.52389e-06
2.72882e-07
1.1443e-06
-6.06561e-06
2.759e-07
9.84527e-07
2.76532e-07
7.71332e-07
-6.50102e-06
-2.24758e-06
-1.22713e-07
1.6091e-06
-2.63168e-06
-1.04667e-07
1.5028e-06
-3.07892e-06
-8.82075e-08
1.5914e-06
-3.57104e-06
-7.24475e-08
1.66557e-06
-4.07741e-06
-5.45239e-08
1.6831e-06
-4.56374e-06
-3.6076e-08
1.63331e-06
-4.98911e-06
-1.83108e-08
1.51287e-06
-6.84087e-10
1.32952e-06
-5.31102e-06
-2.09987e-06
-5.56949e-07
1.84657e-06
-2.46194e-06
-5.38161e-07
1.60038e-06
-2.87853e-06
-5.14436e-07
1.69263e-06
-3.34029e-06
-4.93101e-07
1.78872e-06
-3.81583e-06
-4.71942e-07
1.83027e-06
-4.26895e-06
-4.48727e-07
1.80454e-06
-4.65504e-06
-4.23896e-07
1.70573e-06
-3.99114e-07
1.53849e-06
-4.92306e-06
-2.2434e-06
-8.71181e-07
1.48849e-06
-2.69542e-06
-8.2455e-07
1.43829e-06
-3.2039e-06
-7.91895e-07
1.52856e-06
-3.7499e-06
-7.66626e-07
1.59054e-06
-4.30617e-06
-7.4158e-07
1.59598e-06
-4.84003e-06
-7.14004e-07
1.53827e-06
-5.30884e-06
-6.83808e-07
1.41207e-06
-6.52418e-07
1.22291e-06
-5.66657e-06
-2.30036e-06
-8.53631e-07
1.11072e-06
-2.95646e-06
-7.87493e-07
1.17239e-06
-3.64535e-06
-7.58257e-07
1.23025e-06
-4.34909e-06
-7.33768e-07
1.23955e-06
-5.04381e-06
-7.08116e-07
1.19349e-06
-5.69953e-06
-6.80066e-07
1.09017e-06
-6.27929e-06
-6.49187e-07
9.27597e-07
-6.1717e-07
7.15998e-07
-6.74363e-06
-2.25441e-06
8.02281e-07
-5.0002e-07
-3.04529e-06
8.79995e-07
-4.68697e-07
-3.85832e-06
9.12703e-07
-4.4417e-07
-4.67266e-06
8.93937e-07
-4.24518e-07
-5.46153e-06
8.24982e-07
-4.06952e-07
-6.19661e-06
7.08332e-07
-3.90038e-07
-6.84531e-06
5.47018e-07
-3.7311e-07
3.48623e-07
-3.55879e-07
-7.37767e-06
-3.32371e-06
3.66367e-07
1.75375e-06
-5.8031e-08
-4.71947e-06
3.5842e-07
1.95026e-06
-4.27252e-08
-6.18895e-06
3.46488e-07
2.05251e-06
-3.20833e-08
-7.63883e-06
3.17373e-07
2.02891e-06
-2.43502e-08
-8.95584e-06
2.76113e-07
1.85404e-06
-1.8458e-08
-1.00142e-05
2.29144e-07
1.5115e-06
-1.38765e-08
-1.06869e-05
1.78732e-07
1.00143e-06
-9.9064e-09
1.26896e-07
3.45302e-07
-6.76117e-09
-1.0861e-05
-2.71004e-06
2.76986e-07
2.38223e-06
-4.02273e-06
3.09592e-07
2.56464e-06
-5.42863e-06
3.12472e-07
2.70553e-06
-6.85079e-06
3.00297e-07
2.72311e-06
-8.17869e-06
2.77341e-07
2.57098e-06
-9.26861e-06
2.47495e-07
2.21585e-06
-9.96717e-06
2.14327e-07
1.64743e-06
1.78191e-07
8.68745e-07
-1.01159e-05
-1.90806e-06
-1.1455e-07
2.98304e-06
-3.08817e-06
-6.46359e-08
3.05724e-06
-4.39435e-06
-3.0574e-08
3.24078e-06
-5.75414e-06
-5.07568e-09
3.33068e-06
-7.05279e-06
1.49888e-08
3.24417e-06
-8.13914e-06
3.31024e-08
2.934e-06
-8.84032e-06
4.84396e-08
2.37988e-06
5.91282e-08
1.56431e-06
-8.95601e-06
-1.49416e-06
-5.26692e-07
3.28878e-06
-2.68331e-06
-5.10194e-07
3.23516e-06
-3.97906e-06
-4.71664e-07
3.4297e-06
-5.32146e-06
-4.28407e-07
3.55449e-06
-6.60779e-06
-3.80033e-07
3.51184e-06
-7.68663e-06
-3.30692e-07
3.24723e-06
-8.37991e-06
-2.84626e-07
2.73121e-06
-2.44127e-07
1.93002e-06
-8.46933e-06
-2.02348e-06
-8.48761e-07
2.87605e-06
-3.27186e-06
-8.23308e-07
2.99984e-06
-4.62385e-06
-7.76328e-07
3.18535e-06
-6.01445e-06
-7.14458e-07
3.26731e-06
-7.33464e-06
-6.41763e-07
3.17807e-06
-8.43562e-06
-5.63874e-07
2.87253e-06
-9.14525e-06
-4.85285e-07
2.32253e-06
-4.09437e-07
1.51166e-06
-9.26849e-06
-2.64871e-06
-8.26921e-07
2.33511e-06
-4.04813e-06
-7.88392e-07
2.53696e-06
-5.52491e-06
-7.46773e-07
2.67751e-06
-7.00434e-06
-6.87822e-07
2.6925e-06
-8.3749e-06
-6.1794e-07
2.54025e-06
-9.49689e-06
-5.42555e-07