/*--------------------------------*- C++ -*----------------------------------*\
| =========                 |                                                 |
| \\      /  F ield         | OpenFOAM: The Open Source CFD Toolbox           |
|  \\    /   O peration     | Version:  plus.master.MPPICInterFoam            |
|   \\  /    A nd           | Web:      www.OpenFOAM.com                      |
|    \\/     M anipulation  |                                                 |
\*---------------------------------------------------------------------------*/
FoamFile
{
    version     2.0;
    format      ascii;
    class       scalarField;
    location    "2.4/lagrangian/kinematicCloud";
    object      age;
}
// * * * * * * * * * * * * * * * * * * * * * * * * * * * * * * * * * * * * * //


39
(
2.20512
2.30845
2.26697
2.14533
2.08652
2.385
2.27422
2.32264
2.31885
2.28081
2.36525
2.19243
2.39102
2.3577
2.33131
2.31096
2.2844
2.18643
2.39125
2.36931
2.35002
2.34367
2.30037
2.29015
2.21545
2.20663
2.17156
2.38975
2.38552
2.33022
2.27457
2.21826
2.20848
2.14289
2.39937
2.38815
2.32528
2.31871
2.14156
)


// ************************************************************************* //
