/*--------------------------------*- C++ -*----------------------------------*\
| =========                 |                                                 |
| \\      /  F ield         | OpenFOAM: The Open Source CFD Toolbox           |
|  \\    /   O peration     | Version:  plus.master.MPPICInterFoam            |
|   \\  /    A nd           | Web:      www.OpenFOAM.com                      |
|    \\/     M anipulation  |                                                 |
\*---------------------------------------------------------------------------*/
FoamFile
{
    version     2.0;
    format      ascii;
    class       Cloud<basicKinematicMPPICParcel>;
    location    "2.4/lagrangian/kinematicCloud";
    object      positions;
}
// * * * * * * * * * * * * * * * * * * * * * * * * * * * * * * * * * * * * * //

39
(
(-0.00505978 -0.0166561 0.206982) 5511
(-0.00567259 -0.0166625 0.203061) 5455
(-0.00589869 -0.0167991 0.200396) 5455
(-0.00678826 -0.0165186 0.200345) 5447
(-0.0066478 -0.0172836 0.192471) 5399
(-0.0114873 -0.014822 0.187357) 5382
(-0.00909347 -0.0160125 0.18726) 5391
(-0.00850232 -0.0154963 0.185399) 5391
(-0.00905965 -0.015761 0.186804) 5391
(-0.0100973 -0.0180061 0.184217) 5336
(-0.00842441 -0.015205 0.18559) 5390
(-0.0110406 -0.0153998 0.183735) 5327
(-0.00714122 -0.0181166 0.181817) 5335
(-0.0178283 -0.00996868 0.180916) 4583
(-0.0182565 -0.010725 0.181609) 4584
(-0.0192221 -0.000489178 0.180375) 4568
(-0.00746042 -0.0155418 0.181893) 5335
(-0.0186711 0.00278812 0.180887) 4559
(-0.018862 0.00257305 0.180061) 4559
(-0.0207626 -0.00429232 0.178552) 4576
(-0.0130144 0.00868795 0.178909) 4550
(-0.0137942 0.00827639 0.178811) 4550
(-0.00751952 -0.0155439 0.179669) 5335
(-0.0177323 -0.0103442 0.180139) 4583
(-0.0191205 -0.00418662 0.179432) 4576
(-0.0071482 -0.0155984 0.179693) 5335
(-0.0190693 -0.000187415 0.179331) 4568
(-0.00750209 -0.0156047 0.178015) 5335
(-0.0202897 -0.0101738 0.17767) 4584
(-0.0187808 -0.00937915 0.17754) 4584
(-0.00789465 -0.015778 0.178235) 5335
(-0.00757785 -0.015528 0.179083) 5335
(-0.00384414 -0.0174911 0.17737) 5343
(-0.00408008 -0.0178306 0.177146) 5343
(-0.00888397 -0.0153653 0.175549) 5334
(-0.0178049 -0.0103402 0.176549) 4583
(-0.0118508 -0.0145011 0.176845) 5326
(-0.02114 -0.00544964 0.175587) 4576
(-0.0186298 -0.004915 0.176692) 4575
)


// ************************************************************************* //
