/*--------------------------------*- C++ -*----------------------------------*\
| =========                 |                                                 |
| \\      /  F ield         | OpenFOAM: The Open Source CFD Toolbox           |
|  \\    /   O peration     | Version:  plus.master.MPPICInterFoam            |
|   \\  /    A nd           | Web:      www.OpenFOAM.com                      |
|    \\/     M anipulation  |                                                 |
\*---------------------------------------------------------------------------*/
FoamFile
{
    version     2.0;
    format      ascii;
    class       scalarField;
    location    "4.8/lagrangian/kinematicCloud";
    object      age;
}
// * * * * * * * * * * * * * * * * * * * * * * * * * * * * * * * * * * * * * //


93672
(
4.80119
4.80117
4.80115
4.80113
4.80111
4.80109
4.80107
4.80106
4.80104
4.80102
4.801
4.80098
4.80096
4.80095
4.80093
4.80091
4.80088
4.80086
4.80084
4.80083
4.80081
4.80079
4.80078
4.80076
4.80075
4.80073
4.80068
4.80067
4.80065
4.80064
4.80063
4.80061
4.8006
4.80058
4.80057
4.80056
4.80054
4.80053
4.80052
4.8005
4.80049
4.80048
4.80047
4.80045
4.80044
4.80043
4.80042
4.80041
4.80039
4.80038
4.80037
4.80036
4.80035
4.80034
4.80033
4.80032
4.8003
4.80029
4.80028
4.80027
4.80026
4.80025
4.80024
4.80023
4.80022
4.80022
4.8002
4.80018
4.80017
4.80017
4.80015
4.80015
4.80014
4.80013
4.80013
4.80012
4.80011
4.80011
4.8001
4.80009
4.80008
4.80008
4.80007
4.80007
4.80006
4.80006
4.80006
4.80005
4.80005
4.80004
4.80004
4.80004
4.80003
4.80003
4.80003
4.80002
4.80002
4.80002
4.80001
4.80001
4.80001
4.80001
4.8
4.8
4.8
4.8
4.80023
4.80021
4.80019
4.80015
4.80011
4.80008
4.80006
4.80004
4.80002
4.8
4.79998
4.79997
4.79993
4.79991
4.79989
4.79986
4.79984
4.79983
4.79981
4.79979
4.79978
4.79976
4.79974
4.79973
4.79971
4.7997
4.79968
4.79967
4.79965
4.79963
4.7996
4.79959
4.79958
4.79956
4.79953
4.79952
4.79949
4.79948
4.79944
4.79942
4.79941
4.7994
4.79938
4.79936
4.79934
4.79932
4.79931
4.7993
4.79929
4.79927
4.79925
4.79924
4.79922
4.7992
4.79919
4.79918
4.79917
4.79916
4.79915
4.79914
4.79913
4.79912
4.79911
4.7991
4.79909
4.79909
4.79907
4.79906
4.79905
4.79904
4.79904
4.79902
4.79901
4.799
4.799
4.79899
4.79898
4.79898
4.79897
4.79896
4.79894
4.79893
4.79892
4.79892
4.79891
4.7989
4.79889
4.79889
4.79889
4.79888
4.79887
4.79887
4.79886
4.79886
4.79886
4.79885
4.79885
4.79884
4.79884
4.79883
4.79883
4.79883
4.79883
4.79883
4.79882
4.79882
4.79882
4.79882
4.79882
4.79882
4.79881
4.79881
4.79881
4.79881
4.79881
4.79881
4.79881
4.79909
4.79907
4.79905
4.79903
4.79901
4.79899
4.79897
4.79895
4.79894
4.79892
4.7989
4.79888
4.79886
4.79884
4.79881
4.79879
4.79877
4.79875
4.79873
4.79872
4.7987
4.79868
4.79866
4.79865
4.79863
4.79861
4.7986
4.79858
4.79856
4.79855
4.79853
4.7985
4.79845
4.79843
4.79842
4.7984
4.79839
4.79837
4.79836
4.79834
4.79831
4.7983
4.79827
4.79826
4.79824
4.79823
4.79821
4.79819
4.79817
4.79816
4.79815
4.79813
4.79812
4.79809
4.79807
4.79806
4.79804
4.79803
4.79802
4.79801
4.79799
4.79797
4.79796
4.79795
4.79794
4.79793
4.79791
4.7979
4.79789
4.79788
4.79787
4.79786
4.79785
4.79784
4.79783
4.79781
4.7978
4.79779
4.79778
4.79777
4.79776
4.79775
4.79774
4.79773
4.79772
4.79771
4.79769
4.79768
4.79767
4.79767
4.79766
4.79765
4.79764
4.79763
4.79762
4.79761
4.79761
4.7976
4.79759
4.79759
4.79758
4.79757
4.79757
4.79756
4.79755
4.79755
4.79754
4.79753
4.79753
4.79752
4.79752
4.79751
4.79751
4.7975
4.7975
4.79749
4.79749
4.79748
4.79748
4.79747
4.79747
4.79746
4.79746
4.79746
4.79745
4.79745
4.79744
4.79744
4.79744
4.79743
4.79742
4.79742
4.79742
4.79742
4.79741
4.79741
4.79741
4.7974
4.7974
4.7974
4.7974
4.7974
4.7974
4.79739
4.79739
4.79739
4.79739
4.79773
4.79771
4.79769
4.79767
4.79765
4.79763
4.79761
4.79759
4.79757
4.79755
4.79753
4.79751
4.79747
4.79742
4.7974
4.79738
4.79736
4.79735
4.79733
4.79731
4.79729
4.79727
4.79726
4.79724
4.79722
4.79721
4.79719
4.79717
4.79715
4.79714
4.79712
4.79709
4.79707
4.79705
4.79704
4.79702
4.79701
4.79699
4.79697
4.79696
4.79694
4.79693
4.79691
4.7969
4.79688
4.79686
4.79685
4.79683
4.79682
4.7968
4.79679
4.79678
4.79676
4.79675
4.79673
4.79672
4.79669
4.79668
4.79666
4.79663
4.79662
4.79661
4.79659
4.79658
4.79657
4.79655
4.79652
4.7965
4.79649
4.79648
4.79647
4.79645
4.79644
4.79643
4.79642
4.7964
4.79639
4.79638
4.79637
4.79636
4.79635
4.79634
4.79632
4.7963
4.79629
4.79628
4.79627
4.79625
4.79624
4.79623
4.79622
4.79621
4.79619
4.79618
4.79617
4.79615
4.79614
4.79613
4.79612
4.79611
4.7961
4.79609
4.79608
4.79607
4.79606
4.79605
4.79604
4.79603
4.79603
4.79602
4.79601
4.79599
4.79598
4.79597
4.79596
4.79596
4.79595
4.79593
4.79593
4.79591
4.79591
4.7959
4.79589
4.79589
4.79588
4.79588
4.79587
4.79586
4.79586
4.79585
4.79585
4.79584
4.79584
4.79583
4.79582
4.79582
4.79581
4.79581
4.7958
4.7958
4.79579
4.79579
4.79578
4.79578
4.79577
4.79577
4.79577
4.79576
4.79576
4.79575
4.79575
4.79575
4.79574
4.79574
4.79574
4.79573
4.79573
4.79573
4.79573
4.79572
4.79572
4.79572
4.79572
4.79571
4.79571
4.79571
4.7957
4.7957
4.7957
4.7957
4.7957
4.79569
4.79569
4.79569
4.79569
4.79569
4.79569
4.79569
4.79569
4.79569
4.79569
4.79569
4.79607
4.79605
4.79603
4.79601
4.79599
4.79597
4.79595
4.79593
4.79591
4.79587
4.79586
4.79584
4.79582
4.7958
4.79578
4.79576
4.79574
4.79572
4.79571
4.79569
4.79567
4.79565
4.79563
4.79562
4.7956
4.79558
4.79556
4.79554
4.79553
4.79551
4.79549
4.79544
4.79542
4.79541
4.79539
4.79537
4.79536
4.79534
4.79532
4.79531
4.79529
4.79527
4.79524
4.79522
4.79521
4.79519
4.79518
4.79516
4.79514
4.79513
4.79511
4.7951
4.79508
4.79507
4.79505
4.79504
4.79502
4.79501
4.79499
4.79498
4.79496
4.79493
4.7949
4.79489
4.79488
4.79486
4.79485
4.79483
4.79482
4.79481
4.79479
4.79478
4.79477
4.79475
4.79474
4.79473
4.79471
4.7947
4.79469
4.79467
4.79466
4.79465
4.79463
4.79462
4.7946
4.79458
4.79457
4.79455
4.79454
4.79452
4.7945
4.79449
4.79448
4.79446
4.79445
4.79444
4.79443
4.79442
4.79441
4.7944
4.79439
4.79437
4.79436
4.79434
4.79433
4.79432
4.7943
4.79429
4.79426
4.79425
4.79424
4.79422
4.79421
4.7942
4.79419
4.79418
4.79417
4.79416
4.79415
4.79414
4.79413
4.79412
4.79411
4.79408
4.79408
4.79407
4.79405
4.79404
4.79404
4.79403
4.79402
4.79401
4.794
4.794
4.79399
4.79398
4.79397
4.79397
4.79396
4.79395
4.79395
4.79393
4.79393
4.79392
4.79391
4.7939
4.79389
4.79389
4.79388
4.79387
4.79386
4.79386
4.79385
4.79384
4.79384
4.79383
4.79383
4.79382
4.79382
4.79381
4.79381
4.7938
4.7938
4.79379
4.79379
4.79378
4.79377
4.79376
4.79376
4.79376
4.79375
4.79375
4.79374
4.79374
4.79373
4.79373
4.79373
4.79372
4.79372
4.79371
4.79371
4.79371
4.79371
4.7937
4.7937
4.79369
4.79369
4.79368
4.79368
4.79368
4.79368
4.79368
4.79367
4.79367
4.79367
4.79366
4.79366
4.79366
4.79366
4.79366
4.79366
4.79366
4.79366
4.79365
4.79365
4.79365
4.79365
4.79365
4.79365
4.79365
4.79365
4.79413
4.79411
4.79409
4.79407
4.79405
4.79403
4.79401
4.79399
4.79395
4.79393
4.79391
4.79387
4.79385
4.79382
4.7938
4.79376
4.79374
4.79372
4.79367
4.79365
4.79363
4.79361
4.79359
4.79358
4.79356
4.79354
4.79352
4.7935
4.79349
4.79347
4.79345
4.79342
4.7934
4.79338
4.79336
4.79335
4.79333
4.79331
4.7933
4.79328
4.79326
4.79325
4.79323
4.79321
4.7932
4.79318
4.79316
4.79315
4.79313
4.79312
4.7931
4.79307
4.79305
4.79304
4.79302
4.793
4.79299
4.79297
4.79296
4.79294
4.79293
4.7929
4.79288
4.79287
4.79285
4.79284
4.79282
4.79281
4.79279
4.79278
4.79276
4.79275
4.79273
4.79272
4.79269
4.79268
4.79266
4.79265
4.79263
4.79262
4.79261
4.79259
4.79258
4.79257
4.79255
4.79254
4.79253
4.79251
4.7925
4.79249
4.79247
4.79246
4.79243
4.79242
4.79241
4.7924
4.79238
4.79237
4.79233
4.79232
4.79231
4.7923
4.79228
4.79226
4.79225
4.79224
4.79222
4.79221
4.7922
4.79219
4.79218
4.79216
4.79214
4.79213
4.79212
4.79211
4.7921
4.79207
4.79206
4.79205
4.79202
4.79201
4.792
4.79199
4.79198
4.79196
4.79193
4.79192
4.7919
4.79189
4.79188
4.79188
4.79187
4.79186
4.79185
4.79184
4.79182
4.79181
4.7918
4.79179
4.79178
4.79177
4.79176
4.79175
4.79174
4.79173
4.79172
4.79172
4.79171
4.79169
4.79168
4.79168
4.79165
4.79165
4.79163
4.79162
4.79162
4.79161
4.79159
4.79158
4.79157
4.79155
4.79154
4.79153
4.79153
4.79152
4.79151
4.79151
4.7915
4.7915
4.79149
4.79148
4.79148
4.79147
4.79147
4.79146
4.79145
4.79144
4.79144
4.79143
4.79143
4.79142
4.79141
4.79141
4.7914
4.7914
4.79139
4.79139
4.79138
4.79138
4.79137
4.79137
4.79136
4.79136
4.79135
4.79134
4.79133
4.79133
4.79133
4.79132
4.79131
4.79131
4.7913
4.7913
4.7913
4.7913
4.79129
4.79129
4.79128
4.79128
4.79128
4.79128
4.79127
4.79127
4.79127
4.79126
4.79126
4.79126
4.79126
4.79126
4.79125
4.79125
4.79125
4.79124
4.79124
4.79124
4.79124
4.79124
4.79124
4.79123
4.79123
4.79123
4.79123
4.79123
4.79123
4.79123
4.79123
4.79123
4.79123
4.79123
4.79123
4.79176
4.79174
4.79172
4.7917
4.79168
4.79164
4.79162
4.7916
4.79158
4.79156
4.79152
4.7915
4.79148
4.79146
4.79142
4.79139
4.79137
4.79135
4.79127
4.79125
4.79122
4.7912
4.79118
4.79116
4.79114
4.79113
4.79111
4.79109
4.79107
4.79105
4.79104
4.791
4.79098
4.79097
4.79095
4.79093
4.79091
4.79088
4.79086
4.79084
4.79083
4.79079
4.79078
4.79076
4.79074
4.79073
4.79071
4.79069
4.79068
4.79066
4.79061
4.79059
4.79056
4.79055
4.79053
4.7905
4.79048
4.79045
4.79043
4.79042
4.7904
4.79039
4.79037
4.79036
4.79034
4.79033
4.79028
4.79024
4.79022
4.79021
4.79019
4.79018
4.79016
4.79015
4.79012
4.7901
4.79009
4.79007
4.79006
4.79005
4.79003
4.79002
4.79
4.78999
4.78998
4.78995
4.78993
4.78992
4.78989
4.78988
4.78987
4.78985
4.78983
4.78981
4.7898
4.78979
4.78977
4.78976
4.78974
4.78972
4.7897
4.78968
4.78967
4.78966
4.78965
4.78962
4.78961
4.7896
4.78957
4.78956
4.78955
4.78954
4.78951
4.7895
4.78949
4.78948
4.78946
4.78944
4.78942
4.78941
4.78939
4.78938
4.78937
4.78936
4.78934
4.78933
4.78932
4.78931
4.7893
4.78929
4.78928
4.78927
4.78926
4.78925
4.78924
4.78923
4.78922
4.78921
4.7892
4.78919
4.78918
4.78917
4.78916
4.78915
4.78914
4.78913
4.78911
4.7891
4.78909
4.78908
4.78907
4.78905
4.78904
4.78903
4.78903
4.78902
4.78901
4.789
4.78899
4.78898
4.78897
4.78896
4.78895
4.78894
4.78893
4.78892
4.78891
4.78891
4.7889
4.78889
4.78887
4.78886
4.78886
4.78885
4.78884
4.78883
4.78883
4.78882
4.78881
4.7888
4.7888
4.78879
4.78877
4.78876
4.78875
4.78875
4.78874
4.78873
4.78873
4.78872
4.78871
4.78871
4.7887
4.78869
4.78868
4.78867
4.78867
4.78865
4.78865
4.78864
4.78864
4.78863
4.78862
4.78862
4.78861
4.78861
4.7886
4.7886
4.78859
4.78858
4.78858
4.78857
4.78857
4.78856
4.78855
4.78855
4.78854
4.78854
4.78853
4.78853
4.78852
4.78852
4.78851
4.78851
4.7885
4.7885
4.7885
4.78849
4.78848
4.78848
4.78847
4.78847
4.78847
4.78846
4.78846
4.78846
4.78845
4.78845
4.78844
4.78844
4.78844
4.78843
4.78843
4.78842
4.78842
4.78842
4.78841
4.78841
4.7884
4.7884
4.7884
4.7884
4.78839
4.78839
4.78839
4.78838
4.78838
4.78838
4.78838
4.78837
4.78837
4.78837
4.78837
4.78837
4.78836
4.78836
4.78836
4.78836
4.78835
4.78835
4.78835
4.78835
4.78835
4.78835
4.78835
4.78834
4.78834
4.78834
4.78834
4.78834
4.78834
4.78834
4.78834
4.78833
4.78833
4.78833
4.78833
4.78833
4.78833
4.78833
4.78833
4.78833
4.78833
4.78833
4.78891
4.78889
4.78887
4.78885
4.78883
4.78881
4.78879
4.78877
4.78875
4.78873
4.78871
4.78869
4.78867
4.78865
4.78863
4.78861
4.78859
4.78857
4.78856
4.78854
4.78852
4.78848
4.78846
4.78844
4.78842
4.78841
4.78839
4.78833
4.78831
4.78829
4.78828
4.78826
4.78824
4.78822
4.7882
4.78818
4.78813
4.78811
4.7881
4.78808
4.78804
4.78802
4.78801
4.78799
4.78797
4.78795
4.78794
4.78792
4.7879
4.78788
4.78787
4.78785
4.78783
4.78782
4.7878
4.78778
4.78777
4.78775
4.78773
4.7877
4.78768
4.78767
4.78765
4.78763
4.7876
4.78758
4.78757
4.78755
4.78753
4.78752
4.7875
4.78749
4.78747
4.78745
4.78744
4.78742
4.78738
4.78736
4.78734
4.78733
4.78731
4.7873
4.78728
4.78727
4.78725
4.78724
4.78722
4.78721
4.78719
4.78718
4.78716
4.78715
4.78713
4.78712
4.7871
4.78709
4.78707
4.78706
4.78704
4.78701
4.787
4.78698
4.78697
4.78696
4.78694
4.78693
4.78691
4.7869
4.78689
4.78687
4.78686
4.78684
4.78683
4.78682
4.7868
4.78679
4.78677
4.78676
4.78673
4.78672
4.78671
4.78667
4.78665
4.78664
4.78663
4.78661
4.7866
4.78658
4.78656
4.78655
4.78654
4.78652
4.78651
4.7865
4.78649
4.78647
4.78646
4.78645
4.78644
4.78642
4.78641
4.7864
4.78639
4.78638
4.78636
4.78635
4.78634
4.78633
4.78632
4.7863
4.78627
4.78626
4.78625
4.78623
4.78622
4.78621
4.7862
4.78619
4.78618
4.78617
4.78616
4.78614
4.78613
4.78612
4.78611
4.7861
4.78609
4.78608
4.78606
4.78605
4.78603
4.78601
4.786
4.78599
4.78598
4.78597
4.78596
4.78595
4.78594
4.78593
4.78592
4.78591
4.7859
4.78589
4.78588
4.78587
4.78586
4.78585
4.78584
4.78583
4.78582
4.78581
4.78581
4.7858
4.78579
4.78578
4.78577
4.78576
4.78575
4.78574
4.78573
4.78572
4.78571
4.7857
4.7857
4.78569
4.78568
4.78567
4.78566
4.78565
4.78564
4.78563
4.78563
4.78562
4.78561
4.7856
4.78559
4.78558
4.78558
4.78557
4.78556
4.78555
4.78553
4.78551
4.7855
4.78549
4.78548
4.78547
4.78547
4.78546
4.78544
4.78544
4.78543
4.78542
4.78542
4.78541
4.7854
4.78539
4.78539
4.78538
4.78537
4.78537
4.78536
4.78535
4.78535
4.78534
4.78533
4.78533
4.78532
4.78531
4.78531
4.7853
4.7853
4.78529
4.78528
4.78528
4.78527
4.78527
4.78525
4.78525
4.78524
4.78524
4.78523
4.78522
4.78522
4.78521
4.78521
4.7852
4.7852
4.78519
4.78519
4.78518
4.78518
4.78517
4.78517
4.78516
4.78516
4.78515
4.78515
4.78514
4.78514
4.78513
4.78513
4.78512
4.78512
4.78511
4.78511
4.7851
4.7851
4.7851
4.78509
4.78509
4.78508
4.78508
4.78507
4.78507
4.78507
4.78506
4.78505
4.78505
4.78505
4.78504
4.78504
4.78503
4.78503
4.78503
4.78502
4.78502
4.78501
4.78501
4.78501
4.785
4.785
4.78499
4.78499
4.78499
4.78499
4.78498
4.78498
4.78498
4.78497
4.78497
4.78497
4.78497
4.78496
4.78496
4.78496
4.78496
4.78495
4.78495
4.78495
4.78495
4.78495
4.78494
4.78494
4.78494
4.78494
4.78494
4.78493
4.78493
4.78493
4.78493
4.78493
4.78493
4.78493
4.78492
4.78492
4.78492
4.78492
4.78492
4.78492
4.78492
4.78491
4.78491
4.78491
4.78491
4.78491
4.78491
4.78491
4.78491
4.78491
4.78491
4.78491
4.78491
4.78491
4.78491
4.78565
4.78563
4.78561
4.78557
4.78555
4.78553
4.78551
4.78547
4.78545
4.78543
4.78539
4.78537
4.78535
4.78533
4.78531
4.78529
4.78526
4.78524
4.78522
4.7852
4.78518
4.78516
4.78514
4.78512
4.7851
4.78509
4.78507
4.78505
4.78503
4.78501
4.78499
4.78497
4.78494
4.78492
4.7849
4.78488
4.78486
4.78484
4.78481
4.78479
4.78477
4.78475
4.78474
4.78472
4.7847
4.78468
4.78466
4.78465
4.78463
4.78461
4.78459
4.78458
4.78456
4.78454
4.78452
4.78449
4.78444
4.78442
4.78437
4.78433
4.78432
4.7843
4.78428
4.78427
4.78425
4.78423
4.78422
4.78418
4.78417
4.78415
4.78413
4.78412
4.7841
4.78408
4.78407
4.78405
4.78402
4.784
4.78399
4.78397
4.78395
4.78394
4.78392
4.78391
4.78389
4.78387
4.78386
4.78384
4.78383
4.78381
4.78378
4.78376
4.78375
4.78373
4.78372
4.7837
4.78369
4.78367
4.78366
4.78364
4.78363
4.78361
4.7836
4.78358
4.78355
4.78354
4.78352
4.78351
4.78349
4.78348
4.78346
4.78345
4.78343
4.78342
4.7834
4.78339
4.78337
4.78334
4.78333
4.78332
4.7833
4.78329
4.78327
4.78326
4.78325
4.78323
4.78322
4.7832
4.78319
4.78318
4.78316
4.78315
4.78313
4.78312
4.78311
4.78309
4.78308
4.78307
4.78305
4.78304
4.783
4.78299
4.78297
4.78296
4.78295
4.78293
4.78292
4.78291
4.78289
4.78288
4.78287
4.78284
4.78282
4.7828
4.78279
4.78278
4.78277
4.78275
4.78274
4.78273
4.7827
4.78269
4.78268
4.78267
4.78263
4.78262
4.78261
4.78259
4.78255
4.78253
4.78252
4.78251
4.78249
4.78248
4.78246
4.78245
4.78244
4.78242
4.78241
4.7824
4.78239
4.78237
4.78236
4.78235
4.78234
4.78233
4.78232
4.78231
4.7823
4.78229
4.78226
4.78225
4.78223
4.78221
4.7822
4.78219
4.78218
4.78217
4.78216
4.78215
4.78214
4.78213
4.78212
4.7821
4.78209
4.78208
4.78207
4.78205
4.78204
4.78203
4.78202
4.78201
4.782
4.78199
4.78198
4.78197
4.78196
4.78195
4.78194
4.78193
4.78192
4.78191
4.7819
4.78189
4.78188
4.78186
4.78185
4.78184
4.78183
4.78182
4.78181
4.78181
4.7818
4.78178
4.78176
4.78175
4.78174
4.78173
4.78172
4.78171
4.7817
4.78169
4.78169
4.78168
4.78167
4.78166
4.78165
4.78165
4.78164
4.78163
4.78161
4.7816
4.78159
4.78158
4.78158
4.78157
4.78156
4.78155
4.78155
4.78152
4.78152
4.7815
4.78149
4.78149
4.78148
4.78147
4.78147
4.78146
4.78145
4.78145
4.78144
4.78143
4.78143
4.78142
4.78141
4.78141
4.78139
4.78139
4.78138
4.78137
4.78136
4.78135
4.78135
4.78134
4.78134
4.78133
4.78132
4.78132
4.78131
4.78131
4.78129
4.78128
4.78127
4.78126
4.78126
4.78125
4.78125
4.78124
4.78124
4.78123
4.78123
4.78122
4.78122
4.78121
4.78121
4.7812
4.7812
4.78119
4.78118
4.78118
4.78117
4.78117
4.78116
4.78116
4.78115
4.78115
4.78114
4.78114
4.78113
4.78113
4.78112
4.78112
4.78111
4.78111
4.78111
4.7811
4.7811
4.78109
4.78109
4.78109
4.78108
4.78108
4.78107
4.78107
4.78106
4.78105
4.78105
4.78105
4.78104
4.78104
4.78104
4.78103
4.78103
4.78103
4.78102
4.78102
4.78102
4.78101
4.78101
4.78101
4.781
4.781
4.78099
4.78099
4.78099
4.78098
4.78098
4.78097
4.78097
4.78096
4.78096
4.78096
4.78096
4.78095
4.78095
4.78095
4.78095
4.78094
4.78094
4.78094
4.78094
4.78094
4.78093
4.78093
4.78093
4.78093
4.78093
4.78092
4.78092
4.78092
4.78092
4.78091
4.78091
4.78091
4.78091
4.78091
4.78091
4.78091
4.7809
4.7809
4.7809
4.7809
4.7809
4.7809
4.7809
4.7809
4.7809
4.7809
4.78089
4.78089
4.78089
4.78089
4.78089
4.78089
4.78089
4.78089
4.78089
4.78089
4.78089
4.78089
4.78089
4.78089
4.78089
4.78089
4.78181
4.78179
4.78177
4.78175
4.78173
4.78171
4.78167
4.78165
4.78163
4.78161
4.78159
4.78157
4.78155
4.78151
4.78149
4.78147
4.78146
4.78144
4.78142
4.7814
4.78138
4.78136
4.78132
4.7813
4.78128
4.78126
4.78124
4.78121
4.78119
4.78117
4.78115
4.78111
4.78109
4.78108
4.78106
4.78104
4.78102
4.781
4.78098
4.78096
4.78093
4.78091
4.78089
4.78087
4.78085
4.78084
4.78082
4.7808
4.78078
4.78076
4.78073
4.78071
4.78069
4.78067
4.78066
4.78064
4.78062
4.78058
4.78057
4.78055
4.78053
4.78051
4.7805
4.78048
4.78046
4.78043
4.78041
4.78039
4.78038
4.78036
4.78034
4.78032
4.78031
4.78027
4.78026
4.78024
4.78022
4.7802
4.78019
4.78017
4.78015
4.78014
4.78012
4.7801
4.78009
4.78007
4.78005
4.78004
4.78
4.77999
4.77997
4.77995
4.77994
4.77992
4.77991
4.77989
4.77987
4.77986
4.77984
4.77982
4.77981
4.77978
4.77976
4.77974
4.77971
4.7797
4.77967
4.77965
4.77963
4.77962
4.7796
4.77959
4.77957
4.77956
4.77954
4.77952
4.77951
4.77949
4.77948
4.77946
4.77945
4.77943
4.77942
4.7794
4.77939
4.77937
4.77936
4.77934
4.77933
4.77931
4.77928
4.77927
4.77925
4.77924
4.77922
4.77921
4.77919
4.77918
4.77916
4.77915
4.77914
4.77912
4.77911
4.77909
4.77908
4.77905
4.77903
4.77901
4.77899
4.77896
4.77895
4.77894
4.77892
4.77891
4.77889
4.77888
4.77885
4.77884
4.77882
4.77881
4.7788
4.77878
4.77877
4.77876
4.77874
4.77873
4.77871
4.7787
4.77869
4.77867
4.77866
4.77865
4.77863
4.77862
4.77861
4.7786
4.77858
4.77857
4.77854
4.77852
4.7785
4.77849
4.77848
4.77847
4.77845
4.77844
4.77843
4.77841
4.7784
4.77839
4.77838
4.77836
4.77835
4.77833
4.7783
4.77828
4.77826
4.77825
4.77824
4.77823
4.77822
4.7782
4.77819
4.77818
4.77817
4.77816
4.77814
4.77813
4.77812
4.77811
4.77808
4.77807
4.77806
4.77805
4.77804
4.77803
4.77802
4.778
4.77799
4.77798
4.77797
4.77796
4.77795
4.77792
4.77791
4.77789
4.77788
4.77787
4.77786
4.77785
4.77784
4.77782
4.77779
4.77777
4.77775
4.77774
4.77773
4.77772
4.77771
4.77769
4.77768
4.77766
4.77765
4.77764
4.77763
4.77762
4.77761
4.7776
4.77759
4.77756
4.77755
4.77754
4.77753
4.77752
4.7775
4.77749
4.77748
4.77747
4.77746
4.77744
4.77744
4.77743
4.77741
4.7774
4.77738
4.77737
4.77736
4.77735
4.77734
4.77733
4.77732
4.77731
4.7773
4.7773
4.77729
4.77728
4.77727
4.77726
4.77725
4.77723
4.77722
4.77722
4.77721
4.7772
4.77719
4.77718
4.77717
4.77716
4.77715
4.77715
4.77713
4.77712
4.77711
4.7771
4.77709
4.77708
4.77707
4.77706
4.77706
4.77705
4.77704
4.77703
4.77702
4.77702
4.77701
4.777
4.77698
4.77698
4.77696
4.77695
4.77695
4.77694
4.77693
4.77692
4.77692
4.77691
4.77689
4.77689
4.77687
4.77686
4.77686
4.77685
4.77684
4.77684
4.77683
4.77682
4.77682
4.77681
4.7768
4.77679
4.77679
4.77678
4.77677
4.77676
4.77675
4.77674
4.77673
4.77673
4.77672
4.77671
4.77671
4.7767
4.77669
4.77668
4.77668
4.77667
4.77666
4.77665
4.77665
4.77664
4.77663
4.77663
4.77662
4.77661
4.77661
4.7766
4.77659
4.77659
4.77658
4.77658
4.77657
4.77657
4.77656
4.77655
4.77655
4.77654
4.77654
4.77653
4.77653
4.77652
4.77652
4.77651
4.77651
4.7765
4.7765
4.77649
4.77649
4.77648
4.77648
4.77646
4.77646
4.77645
4.77645
4.77644
4.77643
4.77642
4.77642
4.77641
4.77641
4.77641
4.7764
4.7764
4.77639
4.77639
4.77638
4.77638
4.77638
4.77637
4.77637
4.77636
4.77636
4.77636
4.77635
4.77635
4.77634
4.77634
4.77633
4.77633
4.77632
4.77632
4.77631
4.77631
4.7763
4.7763
4.7763
4.77629
4.77629
4.77629
4.77628
4.77628
4.77627
4.77627
4.77626
4.77626
4.77625
4.77625
4.77625
4.77625
4.77624
4.77624
4.77624
4.77623
4.77623
4.77623
4.77622
4.77622
4.77622
4.77621
4.77621
4.7762
4.7762
4.7762
4.77619
4.77619
4.77619
4.77619
4.77619
4.77618
4.77618
4.77618
4.77618
4.77618
4.77617
4.77617
4.77617
4.77617
4.77617
4.77616
4.77616
4.77616
4.77616
4.77616
4.77616
4.77616
4.77615
4.77615
4.77615
4.77615
4.77615
4.77615
4.77615
4.77615
4.77614
4.77614
4.77614
4.77614
4.77614
4.77614
4.77614
4.77614
4.77613
4.77613
4.77613
4.77613
4.77613
4.77613
4.77613
4.77613
4.77613
4.77613
4.77613
4.77613
4.77613
4.77613
4.77613
4.77613
4.77613
4.77613
4.77613
4.777
4.77698
4.77696
4.77694
4.77692
4.7769
4.77688
4.77684
4.77682
4.7768
4.77678
4.77676
4.77672
4.7767
4.77668
4.77661
4.77659
4.77655
4.77653
4.77645
4.77643
4.77641
4.77638
4.77636
4.77634
4.77632
4.7763
4.77628
4.77626
4.77624
4.77623
4.77621
4.77619
4.77617
4.77615
4.77613
4.77609
4.77608
4.77606
4.77604
4.77602
4.776
4.77598
4.77596
4.77595
4.77593
4.77591
4.77589
4.77587
4.77586
4.77584
4.77582
4.7758
4.77578
4.77576
4.77575
4.77573
4.77569
4.77568
4.77566
4.77564
4.77562
4.7756
4.77559
4.77557
4.77555
4.77553
4.77552
4.7755
4.77548
4.77545
4.77543
4.77541
4.77538
4.77536
4.77534
4.77532
4.77531
4.77529
4.77527
4.77524
4.77522
4.7752
4.77519
4.77517
4.77515
4.77514
4.77512
4.7751
4.77508
4.77507
4.77505
4.77503
4.77502
4.775
4.77498
4.77497
4.77495
4.77493
4.77492
4.77488
4.77487
4.77485
4.77484
4.77482
4.7748
4.77479
4.77477
4.77475
4.77474
4.77472
4.77471
4.77469
4.77467
4.77466
4.77464
4.77463
4.77461
4.77459
4.77458
4.77455
4.77453
4.7745
4.77448
4.77447
4.77445
4.77444
4.77442
4.7744
4.77439
4.77437
4.77436
4.77434
4.77433
4.77431
4.7743
4.77428
4.77427
4.77425
4.77424
4.77422
4.7742
4.77414
4.77413
4.77411
4.77408
4.77407
4.77405
4.77404
4.77403
4.77401
4.774
4.77398
4.77397
4.77395
4.77394
4.77392
4.77391
4.77389
4.77388
4.77386
4.77385
4.77384
4.77382
4.77381
4.77379
4.77376
4.77375
4.77374
4.77372
4.77371
4.77369
4.77368
4.77366
4.77365
4.77364
4.77362
4.77361
4.7736
4.77358
4.77357
4.77355
4.77354
4.77353
4.77351
4.7735
4.77349
4.77347
4.77346
4.77344
4.77343
4.77342
4.7734
4.77339
4.77338
4.77336
4.77335
4.77334
4.77331
4.7733
4.77328
4.77327
4.77326
4.77324
4.77323
4.77322
4.77321
4.77319
4.77318
4.77317
4.77315
4.77314
4.77312
4.77309
4.77305
4.77304
4.77303
4.77301
4.773
4.77299
4.77298
4.77296
4.77295
4.77294
4.77293
4.77292
4.7729
4.77289
4.77288
4.77285
4.77284
4.77283
4.77279
4.77277
4.77276
4.77275
4.77272
4.77271
4.7727
4.77269
4.77268
4.77266
4.77265
4.77264
4.77263
4.77262
4.77261
4.77259
4.77258
4.77257
4.77256
4.77255
4.77254
4.77253
4.77252
4.7725
4.77249
4.77248
4.77247
4.77246
4.77245
4.77244
4.77243
4.77242
4.7724
4.77239
4.77238
4.77237
4.77236
4.77235
4.77233
4.77231
4.7723
4.77228
4.77226
4.77225
4.77224
4.77223
4.77222
4.77221
4.7722
4.77219
4.77218
4.77217
4.77216
4.77215
4.77214
4.77213
4.77212
4.77211
4.7721
4.77208
4.77207
4.77206
4.77205
4.77203
4.77202
4.77201
4.772
4.77199
4.77198
4.77197
4.77196
4.77195
4.77194
4.77193
4.7719
4.7719
4.77189
4.77188
4.77187
4.77186
4.77185
4.77184
4.77183
4.77182
4.77181
4.7718
4.77179
4.77178
4.77178
4.77176
4.77175
4.77173
4.77172
4.7717
4.7717
4.77168
4.77167
4.77166
4.77165
4.77164
4.77164
4.77163
4.77162
4.77161
4.7716
4.77159
4.77158
4.77158
4.77157
4.77156
4.77155
4.77154
4.77154
4.77153
4.77151
4.7715
4.77149
4.77149
4.77147
4.77146
4.77145
4.77145
4.77144
4.77143
4.77142
4.77142
4.77141
4.7714
4.77139
4.77138
4.77137
4.77136
4.77136
4.77134
4.77133
4.77133
4.77132
4.77131
4.7713
4.7713
4.77129
4.77128
4.77128
4.77126
4.77125
4.77125
4.77124
4.77123
4.77123
4.77122
4.77121
4.77121
4.7712
4.77119
4.77119
4.77118
4.77117
4.77117
4.77116
4.77115
4.77115
4.77114
4.77113
4.77113
4.77112
4.77111
4.77111
4.77109
4.77109
4.77108
4.77108
4.77107
4.77106
4.77104
4.77104
4.77103
4.77103
4.77102
4.77101
4.77101
4.771
4.771
4.77099
4.77099
4.77098
4.77097
4.77097
4.77096
4.77095
4.77095
4.77094
4.77094
4.77093
4.77092
4.77091
4.7709
4.77089
4.77089
4.77088
4.77088
4.77087
4.77086
4.77086
4.77085
4.77085
4.77084
4.77084
4.77083
4.77083
4.77082
4.77081
4.77081
4.7708
4.7708
4.77079
4.77079
4.77078
4.77078
4.77078
4.77077
4.77076
4.77076
4.77075
4.77075
4.77074
4.77074
4.77073
4.77073
4.77072
4.77072
4.77072
4.77071
4.7707
4.7707
4.7707
4.77069
4.77069
4.77068
4.77068
4.77067
4.77067
4.77067
4.77066
4.77066
4.77065
4.77065
4.77064
4.77064
4.77064
4.77063
4.77063
4.77063
4.77062
4.77062
4.77061
4.77061
4.7706
4.7706
4.7706
4.7706
4.77059
4.77059
4.77059
4.77058
4.77058
4.77058
4.77058
4.77057
4.77057
4.77057
4.77056
4.77056
4.77056
4.77055
4.77055
4.77055
4.77054
4.77054
4.77054
4.77053
4.77053
4.77053
4.77053
4.77052
4.77052
4.77052
4.77052
4.77052
4.77051
4.77051
4.77051
4.77051
4.77051
4.7705
4.7705
4.7705
4.7705
4.7705
4.77049
4.77049
4.77049
4.77049
4.77049
4.77048
4.77048
4.77048
4.77048
4.77048
4.77048
4.77048
4.77047
4.77047
4.77047
4.77047
4.77047
4.77047
4.77047
4.77047
4.77046
4.77046
4.77046
4.77046
4.77046
4.77046
4.77046
4.77046
4.77046
4.77046
4.77045
4.77045
4.77045
4.77045
4.77045
4.77045
4.77045
4.77045
4.77045
4.77045
4.77045
4.77045
4.77045
4.77045
4.77045
4.77045
4.77045
4.77045
4.77045
4.77045
4.77169
4.77167
4.77165
4.77163
4.77161
4.77159
4.77157
4.77155
4.77154
4.77152
4.7715
4.77148
4.77144
4.77142
4.7714
4.77138
4.77136
4.77134
4.7713
4.77128
4.77126
4.77124
4.77122
4.7712
4.77118
4.77116
4.77114
4.77112
4.77111
4.77109
4.77107
4.77103
4.77101
4.77099
4.77097
4.77095
4.77093
4.77091
4.7709
4.77088
4.77086
4.77084
4.77082
4.7708
4.77074
4.77073
4.77071
4.77069
4.77067
4.77063
4.77061
4.7706
4.77058
4.77054
4.77052
4.7705
4.77048
4.77047
4.77045
4.77043
4.77041
4.77039
4.77037
4.77032
4.7703
4.77025
4.77023
4.77021
4.77019
4.77018
4.77016
4.77014
4.77012
4.7701
4.77009
4.77007
4.77005
4.77003
4.77002
4.77
4.76994
4.76993
4.76989
4.76987
4.76986
4.76984
4.76982
4.7698
4.76977
4.76973
4.76972
4.7697
4.76968
4.76965
4.76963
4.76961
4.7696
4.76958
4.76956
4.76955
4.76951
4.76949
4.76948
4.76946
4.76943
4.76941
4.76939
4.76938
4.76936
4.76934
4.76933
4.76929
4.76928
4.76926
4.76923
4.76921
4.76919
4.76916
4.76914
4.76913
4.76911
4.7691
4.76908
4.76901
4.769
4.76898
4.76897
4.76895
4.76893
4.76892
4.7689
4.76885
4.76882
4.76881
4.76879
4.76877
4.76876
4.76874
4.76873
4.76871
4.76868
4.76866
4.76863
4.76862
4.7686
4.76859
4.76857
4.76855
4.76854
4.76852
4.76851
4.76849
4.76846
4.76845
4.76843
4.76842
4.7684
4.76839
4.76837
4.76836
4.76833
4.7683
4.76828
4.76827
4.76825
4.76824
4.76822
4.76821
4.76819
4.76818
4.76816
4.76815
4.76813
4.76812
4.7681
4.76809
4.76807
4.76806
4.76804
4.76803
4.76801
4.768
4.76799
4.76797
4.76796
4.76794
4.76793
4.7679
4.76787
4.76786
4.76784
4.76783
4.76781
4.7678
4.76778
4.76777
4.76776
4.76774
4.76773
4.76771
4.7677
4.76769
4.76767
4.76766
4.76764
4.76763
4.76762
4.7676
4.76759
4.76756
4.76755
4.76752
4.76751
4.76749
4.76748
4.76747
4.76745
4.76744
4.76741
4.7674
4.76739
4.76737
4.76736
4.76735
4.76733
4.76732
4.76728
4.76727
4.76725
4.76724
4.76723
4.76719
4.76717
4.76715
4.76714
4.76712
4.76711
4.7671
4.76707
4.76706
4.76705
4.76703
4.76702
4.76701
4.767
4.76698
4.76696
4.76694
4.76693
4.76691
4.76688
4.76687
4.76686
4.76685
4.76683
4.76682
4.7668
4.76678
4.76677
4.76676
4.76675
4.76674
4.76671
4.7667
4.76669
4.76668
4.76666
4.76664
4.76663
4.76662
4.7666
4.76659
4.76657
4.76655
4.76653
4.7665
4.76646
4.76645
4.76643
4.76642
4.76641
4.7664
4.76638
4.76637
4.76636
4.76635
4.76634
4.76633
4.76632
4.76631
4.7663
4.76628
4.76627
4.76626
4.76625
4.76624
4.76623
4.76621
4.76619
4.76617
4.76616
4.76614
4.76613
4.76612
4.76611
4.7661
4.76609
4.76608
4.76607
4.76604
4.76603
4.76602
4.766
4.76599
4.76598
4.76597
4.76596
4.76595
4.76594
4.76593
4.76592
4.76591
4.7659
4.76589
4.76588
4.76587
4.76586
4.76585
4.76584
4.76583
4.76582
4.76581
4.7658
4.76579
4.76577
4.76576
4.76575
4.76574
4.76573
4.76572
4.76571
4.7657
4.76568
4.76567
4.76567
4.76566
4.76565
4.76563
4.76562
4.76561
4.7656
4.76559
4.76558
4.76557
4.76556
4.76555
4.76553
4.76552
4.76552
4.76551
4.7655
4.76549
4.76548
4.76547
4.76546
4.76545
4.76544
4.76543
4.76543
4.76541
4.7654
4.76539
4.76537
4.76536
4.76536
4.76535
4.76534
4.76533
4.76532
4.76531
4.7653
4.76529
4.76528
4.76527
4.76526
4.76525
4.76525
4.76524
4.76523
4.76522
4.76521
4.7652
4.76519
4.76517
4.76516
4.76515
4.76515
4.76514
4.76512
4.76511
4.7651
4.76509
4.76508
4.76508
4.76507
4.76506
4.76505
4.76504
4.76503
4.76502
4.76501
4.76501
4.765
4.76498
4.76497
4.76495
4.76494
4.76493
4.76492
4.76492
4.76491
4.7649
4.7649
4.76489
4.76488
4.76487
4.76487
4.76486
4.76485
4.76484
4.76483
4.76483
4.76482
4.76481
4.7648
4.7648
4.76479
4.76478
4.76478
4.76476
4.76476
4.76475
4.76474
4.76473
4.76472
4.76472
4.76471
4.7647
4.7647
4.76469
4.76469
4.76468
4.76467
4.76467
4.76466
4.76465
4.76465
4.76464
4.76464
4.76462
4.76462
4.76461
4.7646
4.76459
4.76458
4.76457
4.76457
4.76456
4.76456
4.76455
4.76455
4.76454
4.76453
4.76453
4.76452
4.76452
4.76451
4.76451
4.7645
4.76449
4.76449
4.76448
4.76448
4.76447
4.76446
4.76446
4.76445
4.76445
4.76444
4.76443
4.76443
4.76442
4.76441
4.76441
4.7644
4.76439
4.76439
4.76438
4.76438
4.76437
4.76436
4.76436
4.76435
4.76434
4.76434
4.76433
4.76433
4.76432
4.76432
4.76431
4.76431
4.7643
4.7643
4.76429
4.76429
4.76428
4.76428
4.76427
4.76427
4.76427
4.76426
4.76426
4.76425
4.76425
4.76424
4.76424
4.76424
4.76423
4.76423
4.76422
4.76422
4.76421
4.76421
4.7642
4.7642
4.76419
4.76419
4.76419
4.76418
4.76417
4.76417
4.76417
4.76416