/*--------------------------------*- C++ -*----------------------------------*\
| =========                 |                                                 |
| \\      /  F ield         | OpenFOAM: The Open Source CFD Toolbox           |
|  \\    /   O peration     | Version:  plus.master.MPPICInterFoam            |
|   \\  /    A nd           | Web:      www.OpenFOAM.com                      |
|    \\/     M anipulation  |                                                 |
\*---------------------------------------------------------------------------*/
FoamFile
{
    version     2.0;
    format      ascii;
    class       Cloud<basicKinematicMPPICParcel>;
    location    "4.8/lagrangian/kinematicCloud";
    object      positions;
}
// * * * * * * * * * * * * * * * * * * * * * * * * * * * * * * * * * * * * * //

93672
(
(-0.00401774 -0.015665 0.00026509) 821
(0.0237853 -0.0270748 0.000253752) 860
(0.00222618 0.0777361 0.000277297) 2376
(0.00504675 -0.0475348 0.000304264) 2090
(0.0276775 -0.0607189 0.000276997) 2110
(-0.0240906 -0.0465358 0.000293532) 2075
(0.0210175 -0.0461624 0.000278931) 2107
(-0.00162952 0.0188533 0.00025375) 1110
(0.022854 0.0408495 0.000262661) 2354
(-0.0176235 -0.000588354 0.157628) 7957
(-0.00165546 0.0695462 0.000251454) 2374
(0.03054 0.0525548 0.000280611) 2357
(0.0409311 0.0154255 0.000269786) 1546
(-0.0161016 -0.00507045 0.000268864) 558
(0.0306333 0.0175916 0.000282098) 292
(0.0591447 -0.0029548 0.00026636) 1532
(-0.0095672 0.0397543 0.000265182) 2377
(0.00344984 -0.0157039 0.000266353) 837
(-0.0457656 0.0234459 0.000294033) 1795
(0.0357074 0.017246 0.000273065) 1545
(0.0205963 0.064611 0.000289015) 2366
(-0.0236892 0.023636 0.000319008) 531
(-0.00363056 -0.0954072 0.000285188) 3212
(-0.0442051 -0.024576 0.000225819) 1827
(-0.0406597 -0.0239492 0.000291159) 1826
(0.0245151 -0.0247622 0.000282769) 860
(-0.0109754 -0.0590062 0.000245759) 2085
(-0.0232606 0.023388 0.000322287) 1139
(0.000980289 0.101336 0.000262017) 3494
(-0.0419685 -0.0252256 0.000299798) 1827
(0.0360076 -0.0232779 0.000296911) 1505
(-0.022447 0.024965 0.000247271) 1139
(0.0380981 -0.0153129 0.000295008) 1513
(-0.0365568 0.0176975 0.000276437) 1793
(-0.0214339 0.0212877 0.000319988) 530
(0.00973061 0.0367476 0.000277055) 1472
(0.0421263 0.0158396 0.000265062) 1546
(-0.000878992 0.0608131 0.000265497) 2373
(-0.000107947 0.0703989 0.000293488) 2374
(-0.0358618 0.0264608 0.00029095) 1786
(-0.0789599 -0.000254684 0.000261811) 1816
(0.0184671 -0.0510334 0.000264212) 2107
(-0.0226741 -0.0414553 0.000282016) 2074
(0.0128342 0.0238816 0.000285142) 1097
(-0.0441976 0.0220225 0.000270152) 1795
(-0.0209529 0.0395315 0.000301857) 2386
(0.0343258 -0.0200626 0.000275652) 1513
(-0.00523331 -0.101617 0.0384724) 3326
(-0.00764539 0.0169711 0.000301487) 1126
(-0.0196873 -0.0428904 0.000241647) 2074
(-0.0163844 0.0332507 0.000273928) 1475
(0.0430427 -0.0141553 0.000281277) 1522
(-0.0177002 0.0343837 0.000271897) 2385
(0.0220425 -0.0221835 0.000262665) 858
(-0.00327414 -0.0603542 0.000278804) 2093
(0.0343431 -0.0116759 0.000277825) 1367
(0.0214939 0.041775 0.00024292) 2354
(0.0238261 0.0237555 0.000311731) 299
(0.00170066 0.0157699 0.000248375) 1109
(-0.0200153 0.0439547 0.000277895) 2386
(0.013666 0.0597411 0.000274945) 2365
(0.0468783 -0.0144199 0.000307561) 1523
(0.0393444 -0.0168355 0.000281729) 1513
(0.0404515 0.0124921 0.000269879) 1537
(-0.0227722 0.040259 0.000275573) 2386
(0.0188402 -0.00165322 0.00028751) 270
(-0.0428476 -0.0261734 0.000294967) 1827
(0.00508444 0.101082 0.000288238) 3494
(0.018899 0.0128685 0.000290131) 295
(-0.101587 -0.000449124 0.000279755) 2934
(0.0458099 -0.0155337 0.000265615) 1522
(0.0221856 -0.0221248 0.000272308) 250
(0.0239254 0.0241001 0.000305452) 1091
(0.0201756 0.0441718 0.000290064) 2354
(0.0207645 0.0390129 0.000240728) 2354
(0.0132196 0.0230059 0.000271195) 1097
(0.0258081 -0.0259561 0.00029054) 1441
(0.0609404 -0.00103116 0.00028551) 1533
(-0.0155456 -0.00609433 0.000294984) 557
(0.0181591 0.0310253 0.000285665) 1100
(0.00324594 0.0209875 0.00025452) 1103
(0.00860032 0.0358548 0.000242311) 1472
(-0.0157202 -0.0498682 0.000267231) 2083
(-0.0403213 0.0208828 0.000280819) 1794
(0.0262391 0.0195964 0.000271536) 299
(-0.0269883 0.0244976 0.000271189) 1400
(0.0156297 0.028914 0.000280977) 1099
(0.0259342 -0.0158777 0.000272618) 258
(0.00581896 0.0751875 0.000279835) 2375
(-0.018175 0.00865425 0.000264414) 535
(-0.0334524 0.0136556 0.000278946) 540
(-0.0048493 0.0192449 0.000275419) 1119
(0.0178793 0.0181814 0.000275107) 1088
(0.0203021 -0.0505937 0.000262763) 2108
(-0.04262 -0.0212619 0.000259299) 1826
(0.0282247 -0.0154077 0.00027843) 259
(-0.0268251 -0.0270399 0.000342584) 1435
(0.0352922 0.0156858 0.000282733) 1545
(-0.0801334 0.00486055 0.000257001) 1816
(-0.0125469 0.0513561 0.000260556) 2379
(0.0157578 -0.0020358 0.000264757) 269
(-0.0931612 0.00243952 0.000279019) 2932
(0.0135068 0.0308582 0.000266387) 1100
(0.0556223 0.00247506 0.000267346) 1532
(-0.0272337 0.0107666 0.000271714) 538
(0.0240491 -0.00691411 0.0002791) 264
(-0.0388008 0.0208813 0.00029955) 1794
(-0.00105358 0.0727492 0.000271072) 2375
(-0.0209764 0.0395452 0.00028119) 2386
(0.0372875 -0.0234709 0.000321052) 1506
(-0.0545363 0.0287285 0.000281627) 1797
(-0.0268586 0.0484848 0.000291975) 2388
(0.0361138 -0.019467 0.000292487) 1513
(0.00224445 0.0820332 0.0843702) 11285
(-0.00185683 -0.0555908 0.000300074) 2092
(0.0371116 0.0146813 0.000281303) 1545
(0.0132562 0.0312863 0.00027699) 1100
(0.0215972 -0.0409044 0.000262086) 2106
(0.0182761 0.0207195 0.000275058) 1089
(-0.0488297 -0.0251874 0.000277357) 1828
(0.0268218 -0.00720639 0.000267078) 265
(0.0215786 -0.0403631 0.000258771) 2106
(0.0530969 0.00328046 0.00028841) 1531
(0.00497024 -0.0490134 0.000301465) 2091
(0.0234052 -0.0234659 0.000316407) 859
(-0.0235795 -0.0463613 0.000296198) 2075
(0.0276954 0.00927258 0.000292965) 282
(-0.0327379 0.0134269 0.000278961) 540
(0.0269811 0.0226341 0.000260224) 300
(0.00494256 -0.0934173 0.000299855) 3212
(0.019324 0.0261836 0.000278165) 1091
(0.0517661 0.00147949 0.000256628) 1531
(0.0254505 -0.0256921 0.000292421) 860
(0.0127071 0.0314839 0.000283626) 1100
(0.0231545 0.0431195 0.00025787) 2355
(0.020396 0.0482243 0.000253751) 2355
(0.0277124 0.0152822 0.000277534) 291
(-0.00130991 0.101046 0.0026519) 3494
(0.018288 0.0368908 0.000269739) 2353
(0.00779575 -0.0202554 0.000306993) 847
(-0.00040752 0.0720815 0.000267527) 2375
(-0.0216443 0.0437535 0.000285892) 2387
(-0.0263158 0.0262742 0.000315466) 1400
(0.0155796 0.000389565 0.0275842) 381
(0.0291221 0.00873482 0.00027011) 282
(-0.0412591 -0.023653 0.00028407) 1826
(0.00231957 0.0188498 0.000307772) 1110
(0.0221273 -0.0222442 0.000281472) 858
(-0.0251803 -0.0254099 0.000283548) 812
(-0.0545025 0.0110403 0.000264837) 1804
(0.00414942 0.026132 0.000275307) 1105
(-0.0429027 -0.0248903 0.00026844) 1827
(0.026003 -0.0324209 0.000287254) 2113
(0.0152216 -0.0194604 0.000279323) 856
(0.021732 0.0219015 0.000245098) 1090
(0.0230162 -0.00300455 0.000306906) 264
(0.0238351 0.0418895 0.000258689) 2354
(0.0245365 -0.0262678 0.000287241) 860
(-0.0275109 -0.013913 0.000264478) 570
(0.0157867 -0.0479786 0.000254421) 2099
(-0.0423897 -0.0243743 0.000269835) 1827
(0.040699 -0.000473476 0.000267848) 1529
(-0.00621608 0.015533 0.000267692) 1117
(-0.000988237 -0.0568835 0.000247041) 2092
(0.0179808 -0.0456404 0.000261075) 2107
(-0.0183098 0.0384483 0.000266393) 2385
(0.0170059 -0.0169621 0.000244675) 247
(0.0153511 0.0164122 0.000266109) 1086
(-0.0945729 -0.0036971 0.000292537) 2932
(0.00230455 0.0157666 0.000273204) 1101
(0.00876347 -0.0586543 0.000248515) 2100
(0.0154428 0.00723791 0.000262979) 285
(0.0254672 -0.02571 0.000310326) 860
(0.00112722 0.0157672 0.000265382) 1109
(-0.0502426 0.0217304 0.000258817) 1796
(0.0429651 -0.0159336 0.000292289) 1514
(-0.0155122 0.00647636 0.000256831) 533
(-0.0147952 0.0357494 0.00025251) 2385
(-0.0198447 -0.0338589 0.000292286) 2073
(0.0157586 -0.00203393 0.000271795) 269
(-0.101534 -0.00145902 0.000275726) 2934
(-0.0280549 -0.0263851 0.000314882) 1833
(0.0344769 -0.00809515 0.000263237) 268
(0.0167928 0.0131011 0.000277008) 294
(-0.0433599 0.0209912 0.00024348) 1794
(-0.0427016 0.0206607 0.000273729) 1794
(-0.0417809 -0.0246192 0.000284088) 1826
(-0.000537019 -0.0968675 0.00025359) 3213
(0.0349188 0.0211963 0.00028864) 1545
(0.0205249 0.0221124 0.000240243) 1090
(0.00241831 -0.0659889 0.000281405) 2094
(-0.0295467 -0.0549023 0.000284499) 2077
(0.0242643 -0.0245054 0.000282166) 860
(0.0349203 0.0220062 0.000305242) 1553
(0.0203023 0.0639206 0.000279743) 2366
(0.0139667 0.0267431 0.000258316) 1098
(0.0309544 0.0585977 0.000287453) 2358
(-0.0262065 -0.0261675 0.000325071) 1406
(0.00379154 -0.0162113 0.000283719) 838
(-0.000201652 -0.101155 0.000270878) 3214
(0.0281522 0.0208857 0.000256453) 300
(0.0477593 -0.0109599 0.000293105) 1523
(0.0219432 0.0417858 0.000260356) 2354
(0.0381609 0.0138016 0.00030521) 1545
(0.00581792 -0.0974516 0.0158318) 3269
(0.044941 -0.00955519 0.000243089) 1522
(-0.0228132 0.0228449 0.000305887) 1139
(-0.0199671 -0.0378282 0.000261846) 2073
(0.0273373 -0.0158397 0.000263031) 259
(0.0292133 -0.0170873 0.000285394) 260
(-0.000502896 0.0758943 0.000282947) 2375
(-0.0256788 -0.0459112 0.000290821) 2075
(-0.0653891 -0.0166895 0.000308632) 1822
(0.0232145 -0.0417188 0.000278941) 2106
(0.0226901 0.022667 0.000326805) 299
(0.0455725 -0.0135555 0.000294057) 1522
(-0.0435691 -0.0254466 0.000276232) 1827
(0.0596406 0.00121548 0.000295857) 1533
(-0.0205473 0.0204935 0.000283369) 529
(-0.0262887 -0.0250238 0.000257735) 1406
(-0.0597517 -0.0173548 0.000257115) 1821
(0.0257329 -0.0257788 0.000289163) 1441
(-0.0946811 0.00187498 0.000277913) 2932
(0.0116488 0.0504135 0.00025949) 2363
(-0.0241971 -0.024311 0.00029172) 812
(-0.0119143 -0.0267185 0.000288573) 818
(0.0224106 -0.0250036 0.000278823) 859
(-0.036401 0.0186341 0.000280097) 1793
(0.0157545 -0.00202715 0.000293643) 269
(0.00508978 -0.0952558 0.00027776) 3212
(-0.0647426 -0.0182555 0.000275971) 1822
(0.0178153 0.0210377 0.000268608) 1089
(-0.0239497 0.0239509 0.00028445) 1139
(0.0290422 -0.00717643 0.000273826) 266
(0.0349126 -0.02427 0.000327196) 1505
(-0.000765304 0.0927781 0.000277098) 3492
(0.00371383 0.0156852 0.000251754) 1101
(0.0157556 0.00081104 0.000226502) 269
(0.0203739 -0.013096 0.000262509) 256
(0.0175113 -0.0369138 0.000293597) 2105
(-0.0259058 0.0258846 0.000291136) 1400
(0.021711 -0.0222614 0.00026615) 858
(0.0479389 -0.0117458 0.000290983) 1523
(-0.0102168 0.0261063 0.000266915) 1129
(0.017722 0.0479785 0.00026305) 2355
(-0.0210661 -0.0398978 0.000281268) 2074
(-0.0744216 0.028657 0.000311489) 1800
(0.000392713 0.10231 0.000270362) 3494
(-0.019731 0.0441006 0.000275425) 2386
(0.0347765 0.0208233 0.000271324) 1545
(-0.0242773 0.0424847 0.000271641) 2387
(-0.0251502 -0.0426752 0.000291226) 2075
(0.0358824 0.0174187 0.00028169) 1545
(0.015633 0.00427659 0.000241977) 277
(-0.00744247 -0.0668607 0.000292566) 2094
(-0.0137965 -0.0305774 0.000264971) 820
(-0.0185306 0.0376783 0.000294706) 2385
(0.00114965 -0.0964018 0.000277885) 3213
(-0.03643 0.0186456 0.000273229) 1793
(-0.0182354 0.034993 0.000298976) 2385
(0.0278562 -0.0529679 0.000310015) 2109
(0.0230648 -0.0232992 0.000293172) 859
(-0.0359515 0.0178973 0.000294904) 1793
(-0.0271833 -0.0272628 0.000338201) 2065
(-0.0296513 0.013691 0.000282382) 539
(-0.0416751 -0.0246066 0.000278204) 1826
(0.057438 -0.00135228 0.00026642) 1532
(0.0222531 -0.00533431 0.000257247) 264
(0.000268395 0.0736104 0.000262731) 2375
(-0.0146188 -0.0163801 0.000313381) 806
(0.0353276 0.0195635 0.000283602) 1545
(-0.0241727 0.0241872 0.000306123) 1140
(-0.0186963 0.0238946 0.000230146) 1138
(-0.0652532 -0.0349653 0.000298012) 1831
(0.051634 0.00115864 0.000260147) 1531
(0.01775 0.0177187 0.000250564) 295
(-0.0149334 -0.0116591 0.000274176) 573
(0.0205998 0.0356841 0.000289554) 2353
(0.0192314 -0.0348592 0.000283644) 2105
(-0.0688765 -0.0184059 0.000274509) 1823
(0.0302391 -0.00200383 0.000283417) 274
(-0.0464339 0.0210052 0.000254482) 1795
(0.0119744 -0.0545045 0.000274409) 2100
(0.0219133 0.0387857 0.000303128) 2354
(0.0345509 -0.0108294 0.00025649) 1367
(0.0236481 0.0406883 0.000280264) 2354
(-0.0241934 0.0432868 0.000308436) 2387
(-0.00255242 0.0390794 0.000255229) 2369
(-0.0399677 0.0210458 0.000287714) 1794
(-0.00274673 0.0157251 0.000309854) 1117
(-0.0327112 0.0136978 0.000282288) 540
(0.0468173 0.015224 0.000255533) 1539
(0.0220234 0.0219325 0.00027287) 298
(0.0228973 0.023098 0.000270818) 1091
(-0.012236 0.0633506 0.000253517) 2381
(0.0175687 0.0315867 0.000310075) 1471
(-0.00152516 0.0766356 0.000276378) 2376
(-0.0143067 0.0629539 0.000264401) 2381
(0.0252966 -0.030818 0.000282766) 2113
(-0.00466812 0.0195783 0.000293831) 1119
(0.0129486 -0.0305194 0.000268428) 851
(0.0120441 -0.0264208 0.000306953) 850
(-0.0531517 -0.0279685 0.000285469) 1829
(0.0185794 -0.00206003 0.000307016) 270
(-0.0253166 -0.0233281 0.000241593) 580
(0.00546548 0.0331061 0.000291932) 1108
(-0.0180371 -0.0169169 0.000263657) 575
(-0.00102676 -0.0150641 0.0162915) 885
(-0.0413563 0.0211157 0.000283437) 1794
(-0.0469874 -0.0240714 0.000242076) 1827
(-0.0236097 -0.0417677 0.000264668) 2074
(0.0242976 0.020646 0.000252356) 299
(0.02336 -0.0234674 0.000289303) 859
(-0.0482437 -0.0263831 0.000272146) 1828
(-0.0203165 -0.0451964 0.000257408) 2075
(0.00713301 -0.094995 0.000252584) 3212
(-0.0654339 0.00937936 0.000267722) 1806
(0.0230701 0.0403817 0.000265076) 2354
(-0.0181111 -0.0356735 0.000301558) 2073
(0.030532 -0.00046108 0.000294634) 275
(0.0216349 0.0412939 0.000234837) 2354
(-0.0174096 0.0515523 0.000282795) 2380
(-0.0252783 -0.0252666 0.000270749) 580
(0.0189771 -0.0418214 0.000280546) 2106
(-0.0408966 0.0209279 0.000273262) 1794
(0.0277849 -0.0147269 0.000281459) 259
(-0.0235364 0.0235704 0.000317432) 1139
(-0.0369996 -0.0203731 0.000292983) 1825
(-0.0169706 0.0199145 0.000282634) 1136
(0.0180921 -0.0115716 0.000236056) 255
(0.0190093 0.0308605 0.00030954) 1100
(-0.0975856 0.00637893 0.0002705) 2933
(-0.0304296 -0.0142116 0.000288479) 572
(0.00690943 0.037947 0.000282015) 2361
(-0.046529 0.0222563 0.000267392) 1795
(0.00321505 -0.0933705 0.000261869) 3212
(0.0399414 0.0150465 0.000257817) 1545
(-0.0489861 0.0267329 0.000256474) 1796
(-0.0265526 -0.0267356 0.000290155) 1435
(0.0173053 -0.0172237 0.000309584) 247
(-0.0146414 -0.0168758 0.000300479) 807
(-0.0174996 0.0436433 0.0002619) 2386
(-0.0120704 0.0234732 0.000257708) 1129
(0.0217024 0.0397855 0.000273551) 2354
(-0.00126495 0.047692 0.000245745) 2370
(-0.0238384 -0.0944344 0.00029714) 3205
(0.02483 -0.0453006 0.000277613) 2107
(0.00291944 -0.0165279 0.000290315) 838
(0.0201163 -0.00426247 0.000290844) 263
(-0.0181703 -0.00865756 0.000306956) 567
(-0.0423099 0.0209162 0.000251686) 1794
(-0.0265388 -0.0264921 0.00030736) 1406
(-0.0369909 -0.0202115 0.000269545) 1825
(0.02481 -0.0159738 0.000310828) 250
(0.0346857 -0.0102114 0.000256631) 1367
(0.0465625 0.0113034 0.000282287) 1538
(-0.0236275 -0.0423285 0.000269238) 2074
(-0.000200182 -0.0985265 0.0163392) 3269
(0.0586636 0.00101686 0.000276166) 1532
(-0.0215497 0.0430705 0.000258204) 2386
(-0.0210802 -0.0367618 0.000301389) 2073
(0.00211103 -0.0923281 0.000289586) 3211
(0.0453471 0.000557303 0.000238316) 1530
(0.0289996 -0.00635299 0.000302121) 266
(0.000682603 -0.0602074 0.000277898) 2093
(0.0240508 0.00770852 0.000281336) 280
(-0.0145864 0.0349524 0.000280772) 1475
(0.0518283 -0.000745154 0.000315694) 1531
(0.0045996 -0.0918621 0.000322109) 3211
(-0.0263529 0.0263867 0.000303592) 1476
(-0.0674109 0.00425212 0.000283444) 1814
(-0.0234005 -0.0424409 0.000280287) 2074
(-0.0822171 -0.00133868 0.000296648) 2929
(-0.023619 0.0399569 0.000274788) 2386
(0.0288781 0.00915922 0.000272172) 282
(-0.0661037 0.00855593 0.000287457) 1806
(0.035834 -0.0234276 0.00027827) 1505
(-0.0727987 0.000541527 0.00026841) 1815
(-0.0199815 -0.0463367 0.000257257) 2075
(0.019056 0.0397772 0.000249605) 2354
(-0.0334069 0.0137994 0.00033243) 1401
(0.0225622 0.0227924 0.00028769) 1091
(0.0366735 0.0120232 0.000284033) 1537
(0.0152204 -0.0532202 0.000263389) 2100
(0.0200996 -0.045718 0.000286183) 2107
(-0.0237916 0.0299754 0.000259728) 2393
(-0.0166929 0.0578781 0.000292795) 2381
(0.0272058 0.021867 0.00028339) 300
(-0.0191713 -0.036567 0.000282308) 2073
(-0.0263354 -0.0455209 0.000254646) 2075
(0.0245737 0.0248207 0.000290806) 1092
(0.00638211 0.0499159 0.000264823) 2363
(0.0133517 -0.059349 0.000256428) 2101
(-0.019744 -0.0441513 0.000278214) 2074
(0.00223294 -0.0927864 0.000307424) 3212
(0.0253434 0.0227983 0.000301505) 300
(0.0189443 0.0369081 0.000292835) 2353
(-0.0242341 0.042519 0.000284621) 2387
(0.0148174 0.0123781 0.00029031) 293
(-0.0438289 -0.0252361 0.000263239) 1827
(-0.0433056 0.021337 0.000252953) 1794
(0.0415734 0.000424086 0.000298922) 1529
(-0.0429344 -0.0250565 0.00027156) 1827
(-0.0203886 -0.0367476 0.00028067) 2073
(0.0439819 -0.0113842 0.000261648) 1522
(0.036556 0.0173583 0.000287851) 1545
(-0.0923523 0.000989116 0.000287164) 2931
(0.0186877 -0.0196962 0.000265635) 856
(0.021401 0.02152 0.00028152) 1090
(-0.0243933 -0.0243179 0.000302594) 580
(0.0255787 0.0258109 0.000321667) 1470
(-0.0995126 -0.00423074 0.00113812) 2934
(0.00348675 -0.0160007 0.00028311) 838
(-1.44837e-05 -0.0967796 0.000271748) 3213
(-0.0254713 0.0253608 0.000283882) 532
(-0.0328781 0.0131809 0.000273653) 540
(-0.0918909 0.000108489 0.0531387) 3155
(-0.044208 0.0242929 0.000275916) 1795
(-0.0127129 -0.0494266 0.000315443) 2083
(0.00127431 0.0936924 0.000266641) 3492
(-0.04092 -0.0239685 0.000270988) 1826
(-0.0115215 0.0633661 0.000269931) 2381
(0.0260761 -0.026244 0.000283979) 1441
(-0.103129 -0.00141729 0.000265526) 2935
(-0.0177442 0.0317047 0.000290143) 1475
(0.0387569 -0.00905925 0.000271227) 1521
(-0.0189745 -0.0361829 0.000243513) 2073
(-0.00866492 -0.0156173 0.000281056) 814
(0.00118348 -0.0586213 0.000279927) 2092
(0.0359651 0.0170204 0.000260857) 1545
(0.0218409 0.0130712 0.000266735) 288
(0.0237211 0.0231724 0.000293769) 299
(-0.0247992 -0.0249117 0.000296286) 812
(-0.0510646 -0.0226505 0.000249092) 1828
(-0.0795342 0.000568116 0.000279387) 1816
(0.0187654 0.0369034 0.000266449) 2353
(0.0185034 -0.0627084 0.000293095) 2102
(-0.0245234 0.054012 0.000309382) 2388
(-0.0261292 -0.0260927 0.000324345) 1406
(0.00318695 0.0628915 0.000257639) 2373
(0.0131147 0.023353 0.0002686) 1097
(-0.0402442 0.0212934 0.000304979) 1794
(-0.0794199 0.000873164 0.000278317) 1816
(-0.0153165 -0.00842789 0.000291793) 565
(0.0174428 0.0930582 0.000314353) 3484
(-0.0278253 0.024324 0.000249538) 1400
(0.0196674 -0.0427072 0.000301674) 2106
(0.0260751 -0.0262504 0.000269861) 1441
(-0.0418446 -0.024795 0.00030013) 1826
(0.00548486 0.0155852 0.000268224) 1101
(-0.0248343 -0.0249989 0.000311693) 812
(-0.0655205 0.0100381 0.000294149) 1806
(-0.0341083 0.0133761 0.000284675) 1401
(0.0228784 -0.0231194 0.000303173) 859
(0.00296716 0.0157257 0.000293678) 1101
(0.0255875 0.0257856 0.000300848) 1470
(-0.025379 0.0253006 0.000276023) 532
(0.0169451 0.0385316 0.000302524) 2353
(0.0401304 0.0111804 0.000289512) 1537
(-0.0197743 -0.0337611 0.000294804) 2073
(0.0133749 0.0242136 0.000258803) 1097
(0.0460087 0.0137206 0.000277443) 1538
(-0.0155485 -0.00612306 0.000295269) 557
(0.0225015 0.0454641 0.000296936) 2355
(0.00939925 0.0169126 0.000254866) 1094
(0.0245909 0.0248143 0.00025113) 1092
(-0.015582 0.00765132 0.000237255) 534
(0.0205278 -0.0346271 0.000264875) 2105
(0.045577 -0.0119764 0.000302949) 1522
(0.0464687 -0.0134867 0.00027391) 1522
(-0.0428308 -0.0257288 0.000314088) 1827
(0.040467 0.00186905 0.000302899) 1529
(-0.0959784 0.0028569 0.0285989) 3044
(-0.0428125 -0.02498 0.000276736) 1827
(-0.0245039 -0.0435499 0.000257314) 2075
(-0.0038033 -0.0922809 0.000270188) 3211
(-0.0256407 -0.0273298 0.000259585) 1435
(-0.037778 -0.0202226 0.000275407) 1825
(-0.0875629 -0.00821782 0.00026221) 2930
(-0.0534758 0.0319502 0.000280699) 1797
(0.0193035 0.0344044 0.000283653) 2353
(-0.00537207 0.0212388 0.000294864) 1119
(0.0621485 0.00137214 0.000257449) 1533
(-0.0641991 0.0129282 0.000274524) 1806
(0.0349436 -0.0193008 0.000282314) 1513
(-0.0263625 0.0462188 0.000312121) 2387
(-0.0446784 0.0205599 0.000252347) 1795
(0.0221796 0.00394772 0.000307837) 280
(0.0354706 -0.000446249 0.000267186) 276
(-0.0741898 0.00234582 0.000262222) 1815
(0.0146931 -0.0607278 0.000268993) 2101
(0.0518543 -0.000812734 0.000291849) 1531
(0.0355828 -0.017467 0.000273767) 1513
(-0.0248759 0.0249204 0.000269947) 1140
(0.0207903 0.0363035 0.000287574) 2353
(0.0252582 -0.00684287 0.00026462) 265
(-0.0265664 -0.0107035 0.000236878) 570
(-0.0232172 -0.0583786 0.000254818) 2077
(0.00531522 0.030095 0.00026426) 1106
(0.000291404 -0.0592743 0.000321402) 2092
(-0.0539044 -0.0256364 0.000271644) 1829
(-0.0168432 0.0416445 0.00026771) 2386
(0.0254699 -0.0256771 0.000286787) 860
(0.00790203 -0.0208419 0.000304102) 839
(0.0465919 0.0157474 0.000273312) 1539
(-0.020738 -0.0360892 0.000316934) 2073
(0.0581838 -0.00134278 0.000278372) 1532
(-0.0471563 -0.0245722 0.000279709) 1827
(-0.00753929 -0.0157268 0.000285035) 814
(-0.025179 0.0249614 0.000290936) 532
(0.0251595 -0.0254086 0.000298765) 860
(0.0263956 -0.0269442 0.000287767) 1441
(0.0256939 -0.025784 0.000294343) 1441
(0.0162866 0.0217369 0.000266455) 1089
(-0.0263056 -0.0254366 0.000268184) 1406
(-0.0199794 -0.0210956 0.000273078) 809
(-0.0222506 0.0223437 0.000309403) 1138
(-0.047882 0.0257897 0.000288891) 1796
(-0.0404867 -0.0233705 0.000286982) 1826
(-0.0828803 1.61928e-05 0.000290475) 2929
(0.0131215 -0.0606408 0.000274879) 2101
(0.00485333 0.101877 0.000280178) 3494
(0.0157557 -0.00115166 0.000297432) 269
(-0.0759768 0.00567945 0.000273388) 1815
(-0.0110641 0.0676443 0.000280025) 2382
(-0.0169128 -0.0359592 0.000290822) 2073
(-0.101325 0.00401189 0.00029945) 2934
(0.0455959 0.0130749 0.00029352) 1538
(0.0588559 -0.00305465 0.000278573) 1532
(0.0431779 -0.0158924 0.000271231) 1514
(0.0400205 0.0134602 0.000257614) 1537
(-0.0203625 0.0448447 0.000280126) 2387
(0.0569058 -2.684e-05 0.000291074) 1532
(0.017825 0.058324 0.000288079) 2365
(-0.0769756 -0.00187891 0.00029186) 1816
(-0.0224093 -0.0411016 0.000264569) 2074
(-0.0109774 -0.0291823 0.000250153) 819
(0.038387 0.0143687 0.000286728) 1545
(0.0253953 -0.025681 0.000288058) 860
(-0.0380771 -0.0201549 0.00029321) 1825
(-0.0284591 0.0253977 0.0002584) 1400
(-0.0481794 0.0248835 0.000230144) 1796
(-0.0244463 -0.0244015 0.000261838) 580
(-0.0212064 -0.00975947 0.000266959) 568
(-0.0217256 -0.0185851 0.000261199) 577
(0.0441185 -0.0153471 0.000287698) 1522
(-0.0186567 -0.0378674 0.000246842) 2073
(0.0282281 0.00691268 0.000271872) 282
(-0.0139926 0.0261923 0.000265056) 1130
(0.0251121 -0.0158577 0.000274938) 258
(0.0225413 -0.0390371 0.000305371) 2106
(-0.00316809 -0.096667 0.000293346) 3213
(-0.00372987 -0.101042 0.000289432) 3214
(0.00370772 -0.0441413 0.000269218) 2090
(0.00180424 0.101527 0.000263902) 3494
(-0.01535 -0.00814322 0.000287762) 565
(-0.0382493 -0.0192122 0.000270149) 1825
(-0.0221841 0.0397379 0.000299439) 2386
(-0.02628 -0.0265277 0.000286923) 1435
(0.0196734 -0.0196645 0.000273017) 249
(0.0415984 0.0170381 0.00028773) 1546
(0.00150707 0.0718673 0.000281647) 2375
(-0.0157231 0.00310643 0.000282055) 541
(-0.000134159 -0.0557763 0.000270617) 2092
(-0.023126 -0.0231605 0.00028887) 811
(-0.0426474 -0.0260508 0.000291901) 1827
(-0.0164871 -0.0322535 0.000290994) 1436
(0.0585135 -0.0021389 0.000304594) 1532
(-0.0238489 -0.0510548 0.000282489) 2076
(0.0269679 -0.0468305 0.000283795) 2107
(-0.0243729 0.0243594 0.000289862) 532
(-0.0482228 -0.0245931 0.000305662) 1828
(-0.0106327 0.039056 0.000263988) 2377
(0.00149013 0.0367901 0.00025347) 1473
(0.0221951 0.0422418 0.000280785) 2354
(-0.0433656 0.0229499 0.000283417) 1795
(-0.0388914 -0.0220596 0.000289283) 1826
(-0.0390156 0.0205371 0.000261323) 1794
(0.00122477 -0.101195 0.000261334) 3214
(-0.0429444 -0.0261509 0.00029036) 1827
(0.0158721 0.0539605 0.000274459) 2364
(0.00307337 0.0769321 0.000292794) 2376
(-0.0155928 -0.0053639 0.000277439) 557
(-0.0522853 -0.0238583 0.00026699) 1828
(-0.0387722 0.0208028 0.000306211) 1794
(0.0238225 0.0240264 0.000267075) 1091
(-0.0211887 -0.0412261 0.000277604) 2074
(0.002032 0.0157706 0.000275517) 1109
(-0.0118454 0.0564641 0.000271047) 2380
(-0.0601131 -0.0316135 0.000265265) 1830
(0.0315949 0.0103455 0.000274516) 283
(0.00108745 0.0922813 0.000288091) 3491
(-0.0253698 0.0253635 0.000314772) 532
(-0.0257239 0.025745 0.000314934) 1476
(-0.0282759 -0.0260742 0.000283) 1833
(0.0240362 0.0240994 0.000325552) 1091
(0.0198269 -0.0342906 0.000255048) 2105
(0.0470367 -0.0100581 0.000262592) 1522
(0.00590049 -0.0195478 0.000305769) 839
(-0.00874373 -0.0155661 0.000285474) 814
(-0.001891 0.100549 0.000295021) 3494
(-0.0264198 -0.0263288 0.00032567) 1406
(-0.0222833 0.0511646 0.000257777) 2388
(0.0241533 0.0407102 0.000265465) 2354
(-0.026282 -0.0262828 0.000343336) 1435
(0.0167026 0.0166573 0.000258959) 295
(-0.0613412 0.0154531 0.000287029) 1805
(0.0473196 -0.0109032 0.000276521) 1522
(-0.00413773 0.0156491 0.000290098) 1117
(0.0217129 -0.0448724 0.000259803) 2107
(-0.0250981 -0.0250323 0.000278976) 580
(-0.0269694 0.0458284 0.00031298) 2387
(0.0234527 0.0277464 0.000295096) 1470
(0.0066941 -0.0550004 0.000281228) 2100
(0.00115038 0.0733616 0.000260945) 2375
(-0.0231598 -0.0231372 0.0003306) 579
(0.0626932 -0.000966035 0.000267342) 1533
(0.0224563 -0.0391561 0.000292122) 2106
(0.0257323 -0.0467125 0.000242053) 2107
(-0.0787084 -6.22214e-05 0.000260308) 1816
(0.000288063 0.0597043 0.000291601) 2373
(-0.0232668 0.0508901 0.000258268) 2388
(-0.0159531 -0.0048832 0.000279232) 558
(0.00201568 -0.0165829 0.000274423) 830
(-0.0538586 -0.0226036 0.000284965) 1828
(0.039301 -0.0103613 0.000272127) 1521
(-0.000350118 -0.0957231 0.000257316) 3212
(-0.0196934 -0.0405095 0.000274651) 2074
(0.0157381 0.0587485 0.000273482) 2365
(0.0411525 -0.00805402 0.000299252) 1521
(0.035095 0.019388 0.000265866) 1545
(0.0152561 -0.00154919 0.00624049) 269
(0.0428497 -0.0177184 0.000294529) 1514
(-0.0817301 -0.000414042 0.000256254) 1816
(-0.0256091 -0.0286459 0.000271509) 2065
(-0.0642163 0.0290906 0.000291441) 1798
(-0.050124 0.0218621 0.000271275) 1796
(0.0271534 -0.0336557 0.000317075) 2113
(-0.0315925 0.0604457 0.000275366) 2390
(-0.0606093 0.0135806 0.000297744) 1805
(0.0157598 -0.00202923 0.000270645) 269
(0.0230645 0.023208 0.000299308) 1091
(0.0478976 0.0114657 0.000283399) 1539
(-0.079561 0.00306932 0.000252139) 1816
(-0.0191472 0.0346297 0.000274743) 2385
(0.0524584 0.00333829 0.000259169) 1531
(0.0357115 -0.0232841 0.000261819) 1505
(-0.00983829 0.0577936 0.000266203) 2380
(0.0197791 0.044591 0.00031284) 2355
(0.0174414 -0.0366145 0.00028425) 2105
(-0.0188101 0.0380346 0.000297852) 2385
(-0.00126853 -0.059345 0.000303886) 2092
(-0.0478452 0.0238588 0.00028748) 1795
(-0.0249861 -0.0101465 0.000260985) 569
(0.0480166 0.0133645 0.000273557) 1539
(-0.0255516 0.0253843 0.000288914) 532
(-0.0689297 0.00412412 0.000284016) 1814
(-0.035949 0.018211 0.00026303) 1793
(-0.101392 0.00579008 0.000288981) 2934
(-0.0501778 0.0273823 0.000245358) 1796
(-0.0592465 0.0288427 0.000277238) 1798
(0.0374499 0.0146279 0.000289145) 1545
(0.0302522 0.0222072 0.000265338) 1371
(0.0227661 0.022864 0.000271694) 1091
(0.0318302 0.0621539 0.00028942) 2358
(-0.023158 0.0407287 0.000271556) 2386
(-0.00350886 0.0318994 0.000281522) 1115
(0.0189353 -0.00201713 0.000279187) 271
(-0.0411067 0.020899 0.00027907) 1794
(0.0265947 -0.0278666 0.000276746) 2113
(-0.0388247 0.0202517 0.00030515) 1794
(-0.101749 0.00111164 0.000258492) 2934
(-0.0840004 0.00607131 0.000289545) 2929
(-0.0213951 -0.035888 0.000276539) 2073
(0.0314239 -0.0211405 0.000292013) 1365
(-0.0174379 -0.00887615 0.000312047) 566
(0.0420741 -0.00879497 0.000285332) 1521
(0.000461235 0.0722756 0.000276359) 2375
(0.0235366 0.0236526 0.000294833) 1091
(0.0297282 0.0502831 0.000311769) 2356
(0.000267955 0.101585 0.000281152) 3494
(-0.00752267 -0.0233963 0.000247909) 824
(0.0156205 0.00456209 0.000268252) 277
(0.022858 -0.0231017 0.000321113) 859
(0.0625645 -0.00163426 0.000255723) 1533
(0.00769329 0.0368155 0.000239289) 1472
(0.0235822 -0.0237242 0.000272422) 859
(-0.00512058 -0.0591626 0.000229242) 2092
(-0.0452082 -0.0265146 0.00027902) 1827
(-0.0195787 -0.0354823 0.000274003) 2073
(0.0295518 0.00837932 0.000281449) 282
(0.0241771 0.0244354 0.000295074) 1092
(0.00107534 -0.103784 0.0299019) 3327
(0.0460476 -0.0123528 0.000278345) 1522
(-0.057474 0.00873202 0.0395555) 1916
(0.0362202 0.0190005 0.000292788) 1545
(0.0299165 0.00765893 0.000256901) 283
(-0.0207289 -0.0362338 0.000268389) 2073
(-0.0482993 0.0274924 0.000261976) 1796
(-0.0668965 0.00796427 0.000285575) 1806
(-0.01594 0.00213354 0.000281418) 542
(-0.00135198 -0.0596363 0.000239781) 2093
(0.0284024 0.00842032 0.000277503) 282
(0.00203354 0.0157714 0.00027328) 1109
(-0.0450753 0.0251344 0.000279444) 1795
(0.0392305 0.0183518 0.000280301) 1545
(0.0243412 0.0229096 0.000288574) 299
(-0.0234502 0.0305463 0.000286593) 2393
(0.0442948 0.0112089 0.000261198) 1538
(-0.0657264 -0.0360396 0.000298345) 1831
(-0.000454428 0.101494 0.00026555) 3494
(-0.0990764 -0.00588219 0.000261212) 2933
(0.0398404 -0.0123057 0.000280246) 1521
(0.0329898 0.0177315 0.000285676) 1370
(0.0174959 -0.0419748 0.000261563) 2106
(-0.0289151 0.0124075 0.000286102) 539
(-0.0369936 -0.0201836 0.000262893) 1825
(0.000869719 0.0975211 0.000296535) 3493
(0.00737057 -0.0174108 0.000250494) 846
(0.045004 -0.0161508 0.000285198) 1514
(-0.00570473 0.0978602 0.000291946) 3493
(0.0219129 -0.00355467 0.000293956) 264
(-0.0615544 -0.0181606 0.000268445) 1821
(-0.0229939 -0.0394584 0.000297466) 2074
(-0.0233609 -0.0451333 0.000292008) 2075
(0.00439431 0.070562 0.000270238) 2374
(0.0244914 0.0248655 0.000279231) 1092
(0.00421351 0.0565142 0.000286775) 2372
(-0.0241061 0.042571 0.000284511) 2387
(0.0198525 0.0198451 0.000311045) 297
(0.0165428 -0.0545974 0.000268325) 2100
(-0.019941 -0.0343807 0.000257361) 2073
(0.00585942 0.0155659 0.000267954) 1101
(0.0371922 -0.0205582 0.000272787) 1513