/*--------------------------------*- C++ -*----------------------------------*\
| =========                 |                                                 |
| \\      /  F ield         | OpenFOAM: The Open Source CFD Toolbox           |
|  \\    /   O peration     | Version:  plus.master.MPPICInterFoam            |
|   \\  /    A nd           | Web:      www.OpenFOAM.com                      |
|    \\/     M anipulation  |                                                 |
\*---------------------------------------------------------------------------*/
FoamFile
{
    version     2.0;
    format      ascii;
    class       vectorField;
    location    "4.8/lagrangian/kinematicCloud";
    object      U;
}
// * * * * * * * * * * * * * * * * * * * * * * * * * * * * * * * * * * * * * //


93672
(
(0.00015409 -0.00251378 -0.00127703)
(-2.31976e-05 0.000293202 0.000472367)
(-5.24646e-05 0.000258461 0.00030778)
(-8.88632e-05 0.000981158 0.000359144)
(-0.000528218 -2.21593e-05 0.000364202)
(0.000207262 -5.73752e-05 -0.000925113)
(-0.000230318 -0.000136046 0.000275595)
(0.00047214 -0.000637079 0.00542577)
(-0.000325989 -0.000197532 0.000300368)
(-0.125882 -0.00249557 0.344029)
(-4.50027e-05 2.46423e-05 0.000203263)
(-0.000252683 -2.88618e-06 0.000325505)
(-0.000468895 0.000500017 -0.00401212)
(-0.000142541 -0.000267657 0.000284134)
(-0.000996534 0.000293416 0.000248954)
(-9.66639e-05 -2.02651e-05 -0.000953289)
(0.000859773 -0.000190429 0.000291287)
(-0.00256332 -0.00269378 0.000315032)
(0.00017601 -0.000215437 -0.000785062)
(-0.000590942 0.00046045 0.000398193)
(-0.000303806 -4.32966e-05 -0.00297937)
(-5.3657e-06 0.000100548 -0.00441956)
(-5.65143e-05 0.000695629 0.000280409)
(0.000339159 0.000210178 0.000139512)
(0.000321704 0.000179078 -0.000741645)
(-0.000303504 0.000326626 -0.00510904)
(0.000266416 8.14466e-05 -0.00094072)
(0.000225096 -0.000271604 0.00376873)
(-3.77027e-05 6.79476e-05 0.000245731)
(7.39508e-05 9.8268e-05 0.00330084)
(-0.000927002 0.00035338 0.000171164)
(-0.000142545 -0.000720375 -0.00126685)
(-0.000510659 -0.000640773 0.000307127)
(0.000564427 -0.000338869 0.000588068)
(0.000290188 -0.000218883 -0.00197433)
(-0.000935261 -1.29011e-05 0.00037526)
(-0.000557975 0.000243865 -7.93206e-05)
(-5.73642e-05 -0.000105486 0.000318069)
(-4.20224e-05 3.18075e-05 0.000369806)
(0.000960097 0.000105365 0.00261305)
(-0.000376005 -1.36566e-05 0.000277358)
(-0.000229347 -0.000105023 0.0024517)
(0.000217422 -8.0744e-07 0.000251014)
(-0.00077128 -0.000378422 0.000569046)
(0.000239907 -0.000261704 -0.000657253)
(0.00031001 -0.000403021 -0.00209635)
(-0.000589486 -0.000643931 0.000310998)
(0.00476681 0.012537 -0.0035705)
(-1.44442e-05 -0.000751933 -0.00122731)
(0.000146541 3.465e-06 0.00120876)
(0.000216606 -0.000391727 0.00040952)
(-0.000264444 -0.000729303 0.000375751)
(0.000315717 -0.000572131 0.000310878)
(-0.000692625 0.00041121 0.000249533)
(-7.46967e-05 -0.000212642 0.000320968)
(-0.000442186 -0.000299458 -0.00181596)
(-0.000322112 -0.000206539 0.000243488)
(-0.00040997 -0.000158416 -0.00248481)
(-3.50221e-05 0.00257534 0.00154292)
(0.000332747 -0.000446513 0.000192174)
(-0.000369678 -0.000200657 0.000337757)
(-0.000506575 -0.000670689 -0.00434286)
(-0.000576725 -0.000654893 0.000328834)
(-0.000842604 0.0003804 0.000312978)
(0.000210035 -0.000268411 0.000546827)
(-0.000417807 -9.9604e-06 -0.00400753)
(0.000372511 0.000279993 0.0017692)
(-0.000253285 -4.66749e-06 0.00011921)
(-0.000936755 0.000301601 0.000396036)
(5.51244e-05 0.000108519 -0.000987935)
(-0.000290755 -0.000694661 0.000327115)
(-0.000657213 0.000361544 -0.00618847)
(-0.000126094 5.41348e-05 0.0068823)
(-0.000755892 0.000320007 0.00278704)
(-0.000316608 -0.000203403 0.000175982)
(-0.000649436 -0.00107074 -0.00246451)
(-0.000282901 -0.000127294 -0.0033353)
(-0.000547671 -1.75985e-05 -0.0020194)
(-0.00209884 -0.00237604 0.000207839)
(-0.000405665 -0.000598831 -0.0020998)
(-0.000472243 -0.000733384 0.000328342)
(-0.000721386 -4.4631e-05 0.000414201)
(0.000519536 0.000359582 -0.00183834)
(0.000222487 -0.000205397 0.000421044)
(-0.000711416 -4.24118e-05 0.000415065)
(0.000709747 0.000511006 -0.00155467)
(-0.000573933 -0.000635565 0.00035328)
(-0.00102307 -0.000411011 0.00040133)
(-5.39344e-05 0.000169763 0.000329324)
(0.00084375 0.00165383 -0.00328178)
(0.000412088 -0.00101612 -0.00564437)
(0.000483746 -0.000279655 0.000270034)
(-0.000203819 -0.000725143 0.00147885)
(-0.000312664 -9.73373e-05 0.000345131)
(0.000309014 0.000169491 -0.000201069)
(-0.000900071 -0.00039398 0.000338127)
(0.000100279 -7.56927e-05 -0.00547032)
(-0.000611953 0.000504134 0.000356679)
(-0.000257627 -8.97921e-06 0.000251387)
(0.000584696 -0.000426339 0.000342997)
(0.00271538 -9.63075e-05 -0.000125049)
(0.000497213 -3.04645e-05 0.000302501)
(-0.000392097 -0.000597431 0.000303692)
(-5.84332e-05 -2.36497e-05 0.000312675)
(0.000981374 -0.00117818 0.000181156)
(-0.000907094 -0.0001081 -0.00193184)
(0.000305699 -0.000274548 -0.00303246)
(-5.22648e-05 0.000160909 0.00123437)
(0.000293033 -0.000383178 0.000310793)
(-0.000313651 6.89574e-05 0.000162429)
(5.91564e-05 -0.000165915 -0.00115189)
(-0.0025492 -0.00173178 -0.00425829)
(-0.000581264 -0.000690489 0.000361184)
(0.00211941 -0.017391 -0.0117983)
(-6.31753e-05 -4.59997e-05 -0.00196385)
(-0.000537387 0.000455645 0.00260839)
(-0.000374643 -0.000575719 -0.00195941)
(-0.000395067 -0.000252144 0.000237724)
(-0.000546436 -0.000686723 0.0014623)
(0.000343216 0.000285845 -0.00323701)
(-0.00122845 9.77765e-06 0.000253268)
(-0.000278873 9.78945e-05 -0.00176254)
(-0.000305677 -4.9543e-05 -0.00071769)
(-5.64702e-05 0.000477676 -0.00245386)
(-0.000114707 -7.22442e-05 0.0020955)
(0.00017592 -8.1956e-05 0.000337373)
(-0.00157315 0.00013206 -0.00302084)
(0.000660399 -0.000748763 0.0002415)
(-0.000460074 0.00014377 0.000528352)
(-4.70946e-05 0.000561792 0.000750274)
(2.33663e-05 -0.000198217 -0.00263802)
(-0.000343406 -6.04352e-05 0.000274093)
(-0.000304545 7.93639e-05 0.00373392)
(-0.000382377 -0.000592948 0.000172438)
(-0.000292421 -0.00016457 0.000320803)
(-0.000302914 -0.000171769 0.000548712)
(-0.000998124 0.000335986 -0.000189698)
(-0.000213738 0.00190879 -0.0131055)
(-0.000376348 -0.000591024 0.000536303)
(-0.000349746 0.00102452 -0.00394905)
(-4.56186e-05 0.000143573 0.000256003)
(0.000243531 -0.000185117 -0.00436256)
(-2.06284e-05 0.000182066 0.00765158)
(-0.0130217 -0.00446254 0.038205)
(-0.00151844 9.96193e-05 -0.00318189)
(0.000342505 0.000190507 0.00033823)
(1.43658e-05 -0.00246261 0.00186907)
(-0.000641248 0.000376133 -0.00206415)
(0.000432693 0.000374828 0.00290973)
(0.000397907 -0.000544892 -0.000894447)
(-0.000885201 -0.000434013 0.00054003)
(0.000382861 0.000240559 0.000264704)
(0.000238936 0.000511868 0.00238688)
(-0.000838519 0.000421917 -5.75573e-05)
(-0.000508427 -0.000468782 0.00465887)
(-0.000726386 -0.00011071 -5.71923e-05)
(-0.000327575 -0.000202018 0.000304012)
(0.00155574 0.00116729 0.00153529)
(0.000268908 0.000926644 -0.00173208)
(-0.00062826 0.000376511 0.000248702)
(0.000128629 0.000123528 -0.00312655)
(-0.00126118 2.1841e-05 -0.000984993)
(0.000293077 0.00235643 0.000820976)
(-6.27045e-05 -6.76371e-06 0.000307711)
(-0.000178677 -0.000111725 0.000510881)
(0.000304721 -0.000572117 0.00031578)
(-0.000532545 0.000467254 0.00462147)
(-0.000674158 -0.000190983 -0.000770204)
(0.00136212 -0.000235655 0.000164658)
(-0.000445426 0.00234646 -8.27318e-05)
(-0.000372173 0.000141258 0.000339791)
(0.00242804 0.000705535 -0.00277281)
(-0.000672642 1.02663e-05 0.00218778)
(-2.45171e-05 0.00246246 -0.000251359)
(7.33117e-05 -0.00017293 -5.89189e-05)
(-0.000561053 -0.000381439 0.000309521)
(-0.00241859 0.000548293 0.000341471)
(0.00026098 -0.000480614 0.000158872)
(0.000662141 0.00062627 -2.09414e-05)
(0.00252014 -8.74856e-05 -0.000164559)
(1.2154e-05 0.000176534 4.24776e-05)
(0.000385521 -0.00123226 0.00199785)
(-0.000808445 -0.000218127 -0.000972431)
(-0.00234258 0.000159384 -0.00245966)
(0.000257477 -0.000217392 0.000350737)
(0.00016758 -0.000160396 -0.000155552)
(0.000246613 0.00018148 -0.000999758)
(-2.97758e-05 0.000232601 0.000257171)
(-0.000620265 0.000526417 0.000328838)
(-0.000172326 -0.000422523 9.18688e-05)
(-6.73233e-05 -0.000253363 0.000463858)
(0.000337158 -6.58759e-05 -0.00200207)
(-0.00010886 0.000354464 0.00170719)
(-0.00081323 0.00034033 0.000145214)
(-0.000328869 -4.29863e-05 -1.15636e-05)
(-0.000448428 -0.000492665 0.000174233)
(-0.000343007 1.61461e-05 0.000240005)
(-0.000142439 -0.000247858 0.00288242)
(-0.000886428 0.000702024 0.000234841)
(-0.000550381 0.0023281 0.000280933)
(-0.000539618 0.000145976 -0.00202934)
(-0.000414935 -0.000560509 0.000308764)
(-0.000294609 -0.000180714 -0.000867531)
(-0.000607213 0.000567299 0.000363778)
(-0.00367311 0.00103787 -0.00856483)
(-0.0002763 -0.000575597 0.00244584)
(5.03563e-05 -7.03606e-05 -0.00521643)
(0.000337614 0.000483274 0.000707668)
(-0.000948408 -0.000348578 -0.000940783)
(-0.000962911 -0.000320241 0.000383923)
(-4.66991e-05 0.000148495 0.000134186)
(0.000182817 -7.09019e-05 0.000345728)
(0.000236897 8.58032e-05 -0.000308509)
(-0.000233295 5.39739e-05 -0.00012501)
(-0.000240789 -8.23634e-05 -0.000132461)
(-0.000188194 -0.000673531 -0.0019863)
(0.000284783 0.000180752 0.000379295)
(-0.000100815 -2.90599e-05 0.000966515)
(0.000399664 -0.000427745 0.00821931)
(0.000870653 -0.000604847 0.000347454)
(0.000417724 0.000446341 -0.000254072)
(2.13885e-05 -0.000289394 -0.00587729)
(0.000398875 -2.54179e-05 0.000227213)
(-0.000697027 -0.000439395 0.000330258)
(0.000191413 0.000224243 -0.00652662)
(0.00109152 0.000454295 -0.000664083)
(-6.30004e-05 0.00040997 0.000331414)
(0.000706355 -0.000423846 -0.00115764)
(0.00294465 0.000149293 0.000331456)
(-5.16868e-05 0.000608944 0.000365623)
(0.000244286 0.000107703 -0.0019108)
(-0.000350771 -0.000637303 -0.000475586)
(5.67687e-05 2.72568e-05 0.00249121)
(-0.00136295 -0.000308787 -0.00318751)
(-0.000883556 -0.000196395 0.000376586)
(-5.98166e-05 -0.000629518 -0.00165589)
(-0.000210807 0.00258407 -0.000165167)
(0.00217134 -6.28757e-05 2.25409e-05)
(-0.000707028 -0.000428617 0.00106811)
(-0.000618031 0.000651103 0.000349119)
(-8.59035e-05 0.000210464 0.00347794)
(-0.000275813 0.000724672 0.00037816)
(-0.000506568 -0.000611825 -0.00432501)
(0.000717474 -0.00139637 0.000498803)
(-0.000361539 -0.00021205 0.000793471)
(0.000306938 6.54943e-05 -0.00480426)
(0.000211475 4.9088e-05 -0.00217775)
(-8.89058e-05 -6.17317e-05 -0.00145416)
(0.000290238 -0.000385386 0.00033727)
(-0.00051157 0.000431514 0.000546483)
(0.000236219 -0.000168947 -0.005474)
(0.000139716 -8.4938e-05 0.000545291)
(-0.000510138 0.000450187 0.000150468)
(0.00270059 -0.000335501 -0.00227946)
(-9.37441e-05 -0.000298468 -0.00413709)
(-9.61509e-05 -0.000511104 -0.00265888)
(0.000306143 -0.000576721 0.000341539)
(-3.8601e-05 0.000285469 -0.00256069)
(0.000596073 -0.000358023 0.000721722)
(0.000296011 -0.000543301 0.000303512)
(-0.000521015 -0.000198897 -0.000637998)
(-0.000579534 0.000367863 -0.00739056)
(0.000685192 -0.000412065 0.000279793)
(-0.00137122 0.00044455 -0.00618182)
(0.00141402 -0.00122583 0.000265573)
(0.00138727 0.000172039 -0.000332388)
(-7.96052e-05 -2.18137e-05 -0.000174757)
(-0.000923656 -9.26219e-05 -0.00113981)
(-6.45817e-05 0.000184174 -0.0042548)
(0.00066695 0.000969582 -1.48487e-05)
(-0.000579451 0.000457261 -0.000996541)
(-0.000188282 0.000247553 -0.00605114)
(-0.000230503 -0.000662653 -0.00170436)
(-3.0209e-05 0.000192732 0.00365325)
(-0.0003219 -4.53001e-05 -0.000968286)
(-0.000196824 -0.00141275 -0.000876354)
(0.0010082 0.00345944 -0.0015569)
(-0.000444237 -0.000691921 -0.000335042)
(-0.000536872 0.000563246 0.000857141)
(-0.000162969 7.18754e-05 0.000358287)
(-0.00123401 -8.32187e-05 -0.00121242)
(0.000212058 -0.000231099 -0.00129401)
(-0.000523124 0.0001954 -0.00164604)
(-0.000311943 -0.000160021 0.000339949)
(-0.000681653 -0.000207198 0.00492309)
(-0.000403852 -0.000251347 -0.00322809)
(0.00016634 -0.000148845 -0.000805429)
(-0.000149682 -0.000490129 0.00113809)
(0.00019479 -0.000188131 0.000532045)
(0.000879383 0.0034282 -0.000159259)
(0.000660395 -0.000751925 0.000260563)
(-0.000257781 0.000381664 -0.000131956)
(-0.000485832 -0.000280446 -0.00307232)
(-0.0002742 -0.000187888 0.00234911)
(0.000106391 -0.000424297 -0.00260264)
(1.09182e-05 -0.000154521 0.0044432)
(-4.20986e-05 0.000211107 6.82985e-05)
(0.000245408 -0.000208951 -0.00157781)
(0.000230384 0.000552551 0.000272476)
(0.000513592 -0.000230843 0.000251549)
(-0.0011445 0.00034414 0.000292627)
(-0.00158172 0.000749285 0.00035928)
(8.35989e-05 0.000169081 -0.00157374)
(-4.47782e-05 0.00043052 -0.00331111)
(0.000890877 -0.000463061 -0.000351517)
(-0.00122675 -0.000165843 0.000321772)
(0.000477879 0.000118388 0.000224424)
(-0.00028686 0.00309479 0.0173626)
(0.000252835 -0.000229437 0.000282793)
(0.000611274 0.000342451 -0.000474297)
(0.00020238 9.41811e-06 0.000388944)
(-0.000682474 -7.16145e-05 0.000416715)
(-0.000308089 9.20568e-06 -0.00530707)
(0.000344109 0.000286211 -0.00426404)
(0.000171119 -2.80903e-05 0.000988868)
(-6.08602e-05 0.000612484 -0.00175831)
(8.14739e-05 -9.36007e-05 -0.00180965)
(-0.000316774 -0.000190836 0.000250867)
(0.000399372 0.000576439 0.000526142)
(-0.000226439 -0.000152449 -0.00423187)
(-0.000275108 -0.000174881 0.000124097)
(0.000429427 -0.000479564 7.63201e-05)
(-6.46431e-05 -2.39629e-05 -0.00201816)
(-0.000311566 0.00010136 0.000299343)
(0.000231709 -0.000204444 -0.00103287)
(-0.00107179 -0.000416085 -0.00204932)
(0.000773245 0.00041487 -0.00638074)
(0.000633845 0.0003133 -1.56078e-05)
(-6.49786e-05 -0.000777145 0.000481957)
(-0.000923742 -0.000443445 0.000270447)
(-0.000170705 -0.000260654 -0.00514115)
(0.000664849 -6.0346e-05 0.000156239)
(0.00174076 0.00122507 -0.00112773)
(-0.000942632 3.14216e-05 0.000591806)
(0.000178004 -0.000207493 -0.00191876)
(-5.01832e-05 0.000538936 0.000517818)
(-0.000619046 0.000460024 0.000260409)
(9.49685e-05 -0.000205291 0.000293544)
(0.000113604 -4.69482e-05 -0.00627123)
(-0.000828687 0.000616388 -0.0020014)
(0.00107457 0.00059705 0.000281306)
(0.000272347 -0.000368678 0.000481657)
(0.000722409 -0.00138748 0.000271113)
(-0.000279295 -0.000154813 0.000120009)
(-9.04957e-05 -0.000471826 0.000169214)
(0.000127277 -8.4774e-05 0.000522057)
(-0.000220396 -0.000130155 -0.0019259)
(-0.00101484 0.000881056 0.000739367)
(-0.00111446 1.77139e-05 -0.00338241)
(0.000523283 -0.00141849 -0.00634471)
(0.000297354 -0.000249083 -3.39652e-05)
(-0.000100159 -0.000205955 -0.00296697)
(0.000590033 0.000291476 0.000280144)
(-0.000959643 -0.000560013 0.00157777)
(-0.000611612 -0.000208077 0.000864906)
(-0.00036536 0.000613648 0.00343912)
(0.000209729 7.08873e-06 0.000257443)
(0.00073646 0.00265388 -0.00924183)
(-4.85885e-05 -2.19534e-05 0.00035382)
(0.000254052 -0.000335327 0.000169082)
(0.0004249 0.000606573 0.000158963)
(-7.38245e-05 0.000455416 0.000240099)
(-0.000596929 -7.80836e-05 -0.00102581)
(-0.000910853 -0.000233778 -0.00179639)
(-7.94052e-05 -0.000212698 0.00105944)
(-0.000512744 0.000269539 0.00117344)
(0.000274928 -0.000520032 0.000294318)
(-0.000239009 -5.19453e-05 0.000266795)
(-7.35725e-05 0.000505886 0.000332323)
(-0.000266594 -0.000181632 -0.00683574)
(0.00049918 -1.79099e-06 0.00031995)
(0.000207932 -8.24922e-06 0.000285856)
(-0.000198698 -1.7507e-05 0.00029079)
(0.000292048 -0.000378204 0.000304753)
(-0.00121996 0.000102413 0.000169)
(0.00010296 -0.000123388 -0.000904158)
(-0.000809641 -0.000121136 0.000409199)
(-0.000414965 1.12321e-05 0.000238165)
(0.000175814 -3.02807e-05 0.000149109)
(-0.000267895 -0.000162837 -0.00104463)
(0.000106075 -0.000248818 -0.0013296)
(-0.000645655 0.00295297 -0.00351619)
(-0.000876437 0.00041768 0.000346109)
(-0.000529991 0.000214528 -0.00114898)
(-0.000235944 -0.000146767 0.000351144)
(-0.000340981 -0.000386381 -6.06397e-05)
(0.000318135 -0.000266707 0.000320756)
(-0.000680142 0.000187294 -0.00146364)
(0.000448017 0.000641108 0.000233766)
(0.000192754 -2.37951e-05 0.000337288)
(1.04975e-05 0.000109895 0.00317134)
(-0.000714889 -0.000432001 -0.000314808)
(-0.000408901 7.71801e-05 0.000285975)
(0.000176062 -1.40267e-05 -0.00200205)
(-6.24194e-05 0.000708999 -0.000328697)
(-0.0006903 0.000218574 0.000350729)
(-0.00053113 -0.000825719 -0.0028872)
(0.000245818 -0.000183132 -0.00197928)
(-0.000569408 -0.0012432 9.9513e-05)
(0.000373638 0.000229753 0.00024197)
(0.000171405 -0.000154556 0.000819809)
(-0.000997081 0.000446901 0.000988641)
(0.000352212 0.00022133 -0.00100289)
(0.000433034 0.000617404 0.000282622)
(-0.00031486 -0.000695411 0.00025856)
(-0.00065404 0.000533159 -0.000157907)
(0.000252556 -3.4393e-05 0.00260407)
(-0.000673315 0.00125797 -0.000538487)
(-0.000298639 -0.000269161 0.00547209)
(0.000382801 -0.000371688 -0.00627277)
(-0.000555063 5.88011e-05 0.000973942)
(0.00069368 0.000307124 -0.0116231)
(0.000428097 0.00089789 -0.00131128)
(-3.16211e-05 0.000255694 -0.00205162)
(0.000171282 -6.2766e-05 -0.00540006)
(0.00074329 -0.000822282 0.000455993)
(0.00813554 0.000721251 -0.0179772)
(0.000149453 -0.000187886 0.000535528)
(0.000732109 0.000491795 0.003232)
(-2.23632e-05 -0.000554322 -0.00219393)
(0.000250088 0.000139836 -0.000192959)
(0.000330704 -0.000274019 -0.00078729)
(-0.000323983 -9.8941e-05 0.00200297)
(-0.000693601 -7.55976e-06 -0.00157612)
(0.000264459 -0.000495171 -0.000767374)
(-0.000742241 -0.000421615 0.000378629)
(0.000454051 0.000641949 -0.00245887)
(0.000489436 0.00179041 0.000262992)
(-6.69641e-05 -2.1155e-05 0.000339056)
(-0.000643918 0.000347997 0.00056759)
(-0.000835447 0.000273961 0.00234422)
(-0.00123404 0.000190514 0.00104818)
(0.000222301 0.000190827 -0.00519378)
(0.000343694 0.000276902 -0.00322934)
(-0.000402175 -1.38177e-05 -0.00166697)
(-0.000376712 -0.000587961 0.000344423)
(-0.000475375 3.26095e-06 -0.000862985)
(-0.00251334 -0.00161755 0.000346253)
(-0.000115444 -0.000214738 -0.00348913)
(-4.6165e-05 -0.000111229 -0.000150366)
(-0.000575404 -0.00095875 0.000251497)
(0.000180511 -0.000182938 0.000550097)
(-0.000394927 -1.37515e-05 0.000963453)
(-0.00196529 0.00123806 0.000290708)
(-0.000391554 -0.000176789 0.000476044)
(0.000900223 0.000549963 0.000465067)
(-0.000314497 9.07349e-05 0.00343875)
(-0.000396709 -7.15725e-05 -0.0062141)
(0.000232966 0.000130329 0.00054731)
(-0.000261764 0.00187968 0.000471556)
(0.000297734 0.000289317 -0.00602723)
(6.87345e-05 -7.01732e-05 0.00118265)
(0.000682224 -0.000504726 0.000308037)
(-0.00051891 0.000400464 0.00411505)
(-0.000331537 0.00282718 -0.00083691)
(-0.00058801 1.56305e-05 -0.00553221)
(-2.16246e-05 0.000115061 0.00891947)
(-0.000395384 -0.000633483 0.000173404)
(-0.000658068 0.000360844 0.000343047)
(0.000416114 0.000591658 0.000489682)
(-0.000585443 -0.000976182 0.000225914)
(-0.000387761 0.00060945 -0.00216047)
(-0.00165917 -0.00271227 0.000226633)
(-0.000339285 -0.000178864 0.000204216)
(-0.000958956 -0.000425867 0.00027327)
(6.95949e-05 -0.000160134 -0.0039992)
(0.00115446 0.00119991 7.47951e-05)
(-0.000526174 0.000551934 -2.40493e-05)
(-0.000206719 -0.000664907 -0.00112609)
(-0.000352919 -0.000767687 -0.00303986)
(0.000376747 0.000242879 0.000277325)
(-0.00119553 2.7893e-05 0.000426117)
(0.000859957 -0.00132996 -0.00765455)
(0.000368344 0.000231837 -0.000886697)
(0.0002091 -2.24467e-05 0.000236933)
(-6.57877e-05 0.000401393 0.000392712)
(-0.000314913 0.000400579 0.000382774)
(0.000638085 0.000314979 -0.000968651)
(-9.89751e-05 -2.15749e-05 -0.00193378)
(3.21997e-05 -0.000125624 -8.55231e-05)
(-0.000458676 -0.000725304 -6.19435e-07)
(0.000494067 -0.000210487 0.000369181)
(-0.000368441 -1.26212e-05 0.000570699)
(0.000102561 -0.000122631 0.000853656)
(-0.000426809 -0.00052047 -0.00157137)
(0.000216838 -0.000207638 0.000426389)
(0.000145288 -0.000171207 -0.00048955)
(-0.00076255 1.46627e-05 0.000259394)
(-0.00054989 -3.15566e-05 0.000424315)
(-0.000410805 1.08519e-05 0.000308466)
(-0.000387025 7.05426e-05 0.000260632)
(-0.000220397 -4.43119e-05 -0.001975)
(-0.000542927 -0.000598773 0.000172918)
(4.89476e-06 0.000165729 -0.000217039)
(-0.000376737 -0.000596943 0.000537044)
(-0.0013022 1.07111e-05 -0.000516092)
(0.000369567 0.000800577 0.000197668)
(0.000432696 -2.82812e-05 -0.00172119)
(-0.00107839 3.27209e-05 0.000310149)
(-7.6225e-05 -3.75586e-05 -0.000879236)
(7.90495e-05 0.000151661 0.000118985)
(0.000272702 -0.000370147 0.000323018)
(-0.00167413 -0.00078772 -0.00245356)
(3.39403e-05 0.00043813 -0.00052751)
(-0.000270764 0.000454422 0.000321568)
(0.000452777 0.000647139 0.000492107)
(-4.78203e-05 -2.14624e-05 -0.0025398)
(0.000304715 0.000194926 0.000216817)
(0.000355136 0.00140325 0.000567096)
(0.00027261 -9.3359e-05 -0.0045064)
(-0.000495448 0.000154242 -0.00265707)
(0.000120551 0.000470522 -0.00421223)
(-0.000106228 -0.000207333 0.00450778)
(-0.000419538 -0.000719154 0.000264607)
(0.000741647 -0.000565697 -0.000339452)
(-0.000140341 0.000742483 0.000269602)
(0.000108645 -0.000158007 -0.00264176)
(5.61843e-05 -0.000185311 0.000370569)
(0.000347301 0.0001943 0.000345219)
(-0.000216242 -2.05757e-05 -0.000902655)
(-0.000423988 7.62074e-05 -0.00244443)
(-0.000267643 -8.87783e-05 0.00253142)
(0.00311605 -0.000132569 -0.00180106)
(-0.000350271 1.00857e-05 -0.000128546)
(0.000225822 -3.76162e-05 0.000772335)
(0.000384731 0.000553981 -0.00121271)
(0.000118794 -0.000161896 0.000244649)
(-0.000356268 0.000648724 0.000336481)
(-3.08075e-05 -1.78424e-05 0.000414031)
(-0.000402006 -0.000263345 0.000957219)
(-0.000849959 0.000365868 0.000251094)
(-0.000406122 -0.00012278 0.0022119)
(-7.68931e-05 -2.83338e-05 -0.00326429)
(-0.000370105 -0.000202114 0.000363228)
(-0.000365008 -1.06544e-05 -8.42146e-05)
(0.000193404 1.82333e-05 -0.000980591)
(0.000846288 0.000485958 6.9194e-05)
(-0.000612238 0.000518532 0.000343233)
(0.000732761 -0.000331161 0.000307697)
(8.02558e-06 0.000255819 0.000458556)
(0.000916698 0.000595504 0.000259358)
(8.23639e-05 -0.000167255 0.000548187)
(8.72269e-06 4.65759e-05 0.00571423)
(0.0010289 0.000411529 0.000426103)
(0.000972198 0.000167914 -0.00187849)
(-0.000192402 -0.000860806 0.000205002)
(0.000428795 0.000611529 0.000227934)
(-0.00134001 0.000102048 -0.00114889)
(0.000652838 -0.00142262 -0.00143222)
(-0.00133879 -0.00199007 0.000688563)
(-0.000397876 0.000130809 -0.00287774)
(-0.0002114 0.00134346 0.00123074)
(-0.00026647 0.00229345 0.000937261)
(-7.95376e-05 0.000860658 0.000171057)
(-9.90351e-05 1.37047e-05 -0.000166585)
(-0.00217093 0.000448016 0.000268005)
(0.000537068 0.000265444 0.000416812)
(0.000282665 -0.000363269 0.00032218)
(0.000250443 8.83055e-05 -0.00678717)
(-0.000275156 0.000333534 -0.00290934)
(-0.000542686 0.000274674 0.000265942)
(-4.37508e-05 0.000144209 7.6781e-05)
(-0.0022313 0.000938401 0.000245317)
(-6.75106e-05 -2.30222e-05 0.000265612)
(2.46526e-05 4.14331e-05 0.00420491)
(0.00032675 0.000209229 -0.0020429)
(0.000914886 0.000910715 -0.00247726)
(1.5583e-05 -1.97021e-05 0.00028786)
(0.000156912 -0.000184445 0.000147775)
(-0.000287828 -0.000126696 -0.00106246)
(-0.000155027 0.000226471 -0.000362121)
(0.000120155 0.000145251 -0.00195353)
(0.000646454 -0.000116697 0.00118651)
(-0.000219433 -0.000612193 -0.00175964)
(-0.000266675 -0.000139455 0.00054979)
(0.000180467 -0.000220461 0.000377485)
(0.000336884 0.000191038 0.000327197)
(0.00019959 -0.000181761 0.000526243)
(-0.000498491 0.00203561 -0.00142623)
(0.0003959 0.000250651 0.00129695)
(-0.00052919 -0.000412619 0.00109204)
(-5.17616e-05 0.000262372 0.000374531)
(-0.00236249 -0.00269919 -0.00247996)
(0.000243516 0.000207478 0.000238248)
(0.000237378 -0.000228501 0.000318928)
(-0.000304117 -0.000110871 -0.00561394)
(0.000141068 -3.65747e-05 -9.84577e-05)
(-4.57025e-05 0.00288413 -0.00250841)
(0.00042832 -0.000392324 -0.00169822)
(7.91795e-06 0.000111409 -0.00116154)
(-0.000459205 0.000186488 0.000369227)
(-0.00267115 -0.000376419 -0.00297512)
(-0.000228481 0.000288861 0.000396668)
(-0.000101532 0.000202672 -0.000999921)
(0.00107258 -0.00093238 -0.00184013)
(4.97234e-05 -0.00332028 0.00162286)
(-0.000647289 0.000680007 -0.00232227)
(-0.000252017 -0.000623583 0.000346087)
(-0.00119981 0.00062101 -0.00127298)
(0.000492028 0.00180373 0.000307869)
(8.44468e-05 0.000220528 -0.00233431)
(2.70906e-05 -0.000132545 -0.00127994)
(-0.00237146 -0.00156298 0.000364061)
(-0.000258535 -0.00014632 2.1415e-06)
(-0.000324629 -0.00038114 -0.00108329)
(-6.92004e-05 -0.000154891 -0.000775322)
(0.00040418 -0.000491736 -0.000172482)
(-0.00024998 -0.000691879 0.000190495)
(0.00031397 0.00212282 0.00031126)
(-0.000173567 -0.000111746 -0.000285913)
(8.39008e-05 7.09433e-05 -0.00613726)
(0.000219279 -0.000211065 0.000650808)
(0.00235067 -0.00164386 -0.00346645)
(-0.000606312 0.000219298 0.000317637)
(-4.86297e-05 0.000145845 0.000350512)
(-4.38025e-05 -1.16558e-05 0.000822739)
(-0.000573036 -1.90677e-05 0.000899934)
(-0.000255486 6.01843e-05 -0.00159422)
(-0.000213102 -8.05738e-05 0.000315117)
(-0.000301869 -9.87004e-06 0.00061651)
(-0.0010762 -0.00089517 0.00307179)
(-0.00234497 -0.00152313 -2.8006e-05)
(3.39195e-06 -0.000502979 0.000268689)
(6.04638e-05 -0.00020782 -0.004161)
(0.000251283 0.000219944 -0.00199559)
(-0.000631379 -0.000384811 -0.00150813)
(-4.69171e-05 0.000579016 0.000285078)
(0.000142796 -1.7296e-05 -0.00102905)
(-0.000335517 -0.000182825 0.000259692)
(-0.000910616 -0.000526889 -0.00296614)
(-0.000576119 0.000431591 0.000480612)
(0.00530232 -0.00105473 0.0015026)
(-0.00056837 -0.000367515 0.000849666)
(-0.000321146 -1.34194e-05 -0.00262229)
(-0.000741885 0.000825477 -0.00176966)
(-2.07036e-05 -0.000164271 -0.00105027)
(8.0883e-05 -0.000197641 -0.00241156)
(0.000293436 0.000639649 0.000578055)
(0.000270728 -3.39144e-05 -0.00184727)
(0.000449259 -0.000546112 -0.00204341)
(0.00249683 4.63473e-05 9.88885e-05)
(-5.76739e-05 9.99367e-05 -0.0045652)
(-0.00014137 0.000347756 0.00118658)
(-0.000348715 -1.31343e-05 -0.000188251)
(0.000317917 -0.00057606 0.000285253)
(-0.000209971 -3.58735e-05 -0.000118922)
(-0.000958741 -9.02237e-05 -0.00366769)
(0.000391651 -0.000359816 0.000393384)
(-0.000146873 -1.5226e-05 -0.00325654)
(-0.000723374 0.000761897 -0.00290754)
(0.000310147 -0.000586856 0.00031829)
(-5.89459e-05 -3.29221e-05 0.000282846)
(0.000145105 -0.000181731 0.00040353)
(0.000964993 0.000974135 -0.00245681)
(-0.000270809 0.000450667 0.000352394)
(0.000138709 -2.3533e-05 -0.00599142)
(0.00039598 1.34101e-07 -7.37456e-05)
(0.000544651 -0.00032664 -0.00132618)
(0.000138721 -0.000235615 0.000313687)
(9.81933e-05 -0.000197619 0.000369845)
(-1.144e-05 -0.00018305 -0.00210674)
(-0.000669371 0.000527052 -0.00092997)
(-0.000514439 0.000231867 0.000277137)
(-4.90354e-05 8.69031e-05 -0.00312685)
(-0.000463321 1.94035e-06 0.000340182)
(0.0003046 -0.000400963 0.000685964)
(5.44683e-05 -0.000470632 0.00183889)
(-0.00185522 -0.000565771 -0.000767497)
(0.000237958 -0.000215402 -8.18714e-05)
(0.000311792 0.000312569 -0.00241915)
(0.000240703 -0.000229472 0.000346546)
(9.41198e-05 -3.66329e-05 -4.49889e-05)
(-0.000141996 -1.34296e-05 -0.00133488)
(0.000467729 0.000660494 0.000445918)
(-0.000528639 -0.000180334 -0.000906445)
(0.00150313 -0.0014606 0.000367882)
(-0.000833117 -0.000467615 -0.000944438)
(-5.12972e-05 0.000157699 -3.69706e-05)
(2.5917e-05 0.000165688 0.0028538)
(-0.000412678 -0.00012873 0.0019779)
(-2.17982e-05 3.14438e-05 9.63121e-05)
(0.00112927 -0.000947734 0.000175791)
(0.0030919 1.69701e-05 -0.00128082)
(-0.000527758 0.000317188 -0.00241791)
(-0.000553814 -1.8429e-05 0.000307481)
(-0.000729402 -4.36497e-05 -7.8932e-05)
(-0.000410154 8.51189e-05 0.00560302)
(-6.43186e-05 2.07425e-05 -0.00186458)
(0.00039542 0.000347117 -0.0013396)
(0.000394906 0.000546677 0.00053658)
(-0.000243763 0.000294087 0.00504989)
(-8.14215e-05 4.53164e-05 -0.00465835)
(-0.000338782 0.0103822 -0.00104996)
(-0.000277797 -0.000735763 0.000348184)
(0.0307206 -0.00675655 -0.0318328)
(-0.000547434 0.000480339 -8.58581e-07)
(-0.000880332 0.000389745 6.37004e-05)
(0.00039992 0.000568244 4.26539e-05)
(4.3364e-05 -0.000139372 0.000520671)
(0.000101286 -0.000115325 0.000363355)
(0.00171874 -0.00198947 0.00337114)
(-6.33316e-05 -0.00015488 -7.14415e-05)
(-0.00140926 0.000107525 -0.000942911)
(-3.78427e-05 0.00176556 0.00148331)
(0.000193159 -0.000230851 0.000300442)
(-0.000674687 0.000490653 -0.00256008)
(-0.000630711 -3.38706e-05 0.000552688)
(-0.000117522 -0.000712669 0.000474864)
(-0.000318781 0.000506636 0.000229438)
(-3.29889e-05 0.000179033 0.000360567)
(3.12963e-05 8.40915e-05 0.0033788)
(0.000810619 5.6724e-05 -0.00207106)
(-0.000693858 -0.000417509 0.000373214)
(-0.000919082 0.000350807 0.000429696)
(-0.000275013 0.000101245 0.000457058)
(0.001429 -0.00123606 0.000308737)
(0.00060726 0.000299805 0.000464219)
(3.43583e-05 -0.00112315 -0.00269612)
(-0.000619421 0.00047088 0.000288555)
(-0.000722638 -0.000403981 -0.00196123)
(0.000122959 -0.000932212 -0.00217386)
(-0.000848152 -8.15328e-05 0.000249838)
(0.000558096 0.00059737 0.000279987)
(0.000215896 -2.95017e-05 -0.00263556)
(0.000191476 -7.03962e-05 0.000276069)
(3.67543e-05 3.39849e-05 -4.87085e-05)
(0.000196465 -0.000115342 -0.00196187)
(-9.32369e-05 -0.000561799 -0.00109058)
(0.000225126 -0.00015875 -0.000487896)
(-0.000413453 -0.000364531 -0.00278713)
(-0.00054225 0.000215448 -0.00243138)
(0.000415725 0.000587108 0.000272712)
(-0.00033568 0.00267805 0.000132359)
(-0.000547105 -0.000600195 -3.01444e-06)
(-0.000363824 0.000130406 -0.000789657)
(0.000148496 2.80944e-05 0.000381039)
(-0.00112351 0.000291739 0.000450041)
(-5.05736e-05 0.000157471 0.000265383)
(-2.21205e-05 0.002199 -0.00029124)
(0.000513729 -0.0006252 -0.00197044)
(0.000162959 -3.65333e-05 0.00024345)
(-0.00119035 -0.000219648 0.000270095)
(0.0010801 -0.000948702 0.000460607)
(-0.000318428 9.75175e-05 0.0035201)
(0.000235239 -0.000208317 -0.00179208)
(-0.000467115 -0.000254236 -0.00107807)
(0.000365003 0.00020176 0.000263942)
(0.00123208 -0.00168857 0.000979893)
(-0.000872046 8.66788e-06 0.00262454)
(0.000195899 -3.94685e-05 0.000316647)
(0.000959703 -0.00166998 0.000246774)
(0.000356134 -0.000487703 -2.52194e-05)
(0.000296205 -0.000305496 -0.00322154)
(-0.00032775 -0.00019062 0.000296921)
(-0.000101406 0.00319215 -9.53325e-05)
(-0.000616615 0.000588557 -0.00110973)