/*--------------------------------*- C++ -*----------------------------------*\
| =========                 |                                                 |
| \\      /  F ield         | OpenFOAM: The Open Source CFD Toolbox           |
|  \\    /   O peration     | Version:  plus.master                           |
|   \\  /    A nd           | Web:      www.OpenFOAM.com                      |
|    \\/     M anipulation  |                                                 |
\*---------------------------------------------------------------------------*/
FoamFile
{
    version     2.0;
    format      ascii;
    class       volScalarField;
    location    "4.8";
    object      epsilon;
}
// * * * * * * * * * * * * * * * * * * * * * * * * * * * * * * * * * * * * * //

dimensions      [0 2 -3 0 0 0 0];

internalField   nonuniform List<scalar> 
47285
(
0.000198393
0.000505459
0.00353703
0.00813848
0.00288783
0.000401102
0.0001638
0.000485149
0.0139922
0.110917
0.241887
0.104088
0.0139899
0.00047303
0.00332425
0.11011
0.181218
1.19099
0.207373
0.125936
0.00427568
0.00655423
0.205837
0.977033
1.09512
1.22755
0.307007
0.0107728
0.00235875
0.0929425
0.178551
1.17949
0.195126
0.105977
0.00314482
0.000362676
0.0126874
0.120529
0.283271
0.101049
0.0113396
0.000347101
0.000181756
0.000478456
0.00404443
0.00942628
0.00275847
0.00033346
0.000151784
0.00193028
0.0092738
0.0469261
0.108637
0.0473545
0.00853988
0.00158356
0.00880483
0.0633275
0.307514
0.800419
0.370169
0.0829352
0.00888736
0.039415
0.274221
0.822781
3.69524
1.13414
0.491538
0.0620861
0.0685822
0.597342
4.54528
3.47544
3.32498
1.57147
0.171358
0.0295145
0.248436
0.865708
3.45535
1.18062
0.436139
0.0448791
0.00601755
0.049537
0.30907
1.02525
0.345354
0.0602216
0.0056127
0.00153307
0.00647028
0.0367667
0.0994321
0.0330145
0.00539211
0.00124652
0.00743041
0.0299968
0.126719
0.288003
0.133398
0.0263584
0.00580995
0.0274387
0.16034
0.689967
1.80609
0.895167
0.208303
0.024482
0.093298
0.567147
2.00524
6.11223
2.74816
1.08954
0.131905
0.157496
1.19052
7.79348
5.20496
5.31611
3.23218
0.367241
0.0675427
0.475412
2.04317
6.1405
3.17496
0.877222
0.0869383
0.0164264
0.0953066
0.502934
1.65623
0.631994
0.111722
0.0131087
0.00542304
0.0156737
0.0617489
0.154684
0.0582189
0.0125115
0.00431634
0.0182084
0.0574836
0.220752
0.51774
0.217725
0.045198
0.0141614
0.0519232
0.276801
1.17728
3.04073
1.39417
0.279329
0.0374703
0.154338
0.944973
3.56048
7.01077
4.51192
1.3106
0.140971
0.249171
1.8176
10.3204
6.15512
5.68418
3.6491
0.349263
0.106062
0.673071
3.17058
8.63035
4.68
0.926715
0.0911817
0.0310838
0.135747
0.600232
1.71294
0.707811
0.122624
0.0221792
0.0136777
0.0283475
0.0791329
0.160294
0.0712944
0.0219289
0.0112884
0.0234601
0.0672172
0.248141
0.624821
0.21882
0.0471822
0.0180076
0.0612822
0.318949
1.37521
3.45179
1.44234
0.241806
0.0376378
0.176145
1.10989
4.32578
5.75381
5.23542
1.03729
0.108257
0.27934
2.03647
9.30478
6.23948
5.18856
2.69408
0.226711
0.118551
0.690393
3.28141
9.60226
4.21613
0.659025
0.071592
0.0376062
0.144901
0.553797
1.31392
0.56431
0.10083
0.0244892
0.0180881
0.0339504
0.0814709
0.13881
0.0671775
0.0250523
0.0149696
0.000135944
0.000132907
0.000129934
0.000125673
0.000120903
0.000116979
0.000113885
0.000110867
0.000186173
0.000143065
0.000134177
0.000126908
0.000120831
0.000116088
0.000112083
0.000108337
0.000706555
0.000210786
0.000139756
0.000125835
0.000118997
0.000114661
0.000111074
0.000106649
0.00159048
0.000307764
0.000147875
0.000124604
0.000115992
0.000111075
0.000107414
0.000102333
0.000537425
0.000187882
0.000137075
0.000125942
0.000118434
0.000114176
0.00011108
0.000106365
0.000155758
0.000137655
0.000134726
0.000127215
0.000120632
0.000114919
0.000110108
0.000105945
0.000130532
0.000132482
0.000130932
0.000124458
0.000119509
0.000115111
0.000110814
0.000107142
0.000686603
0.000501865
0.000418407
0.000358373
0.000310936
0.000272793
0.00024203
0.000217051
0.00138636
0.000614337
0.000448984
0.000369273
0.000314217
0.000271851
0.000238316
0.000211555
0.00462424
0.000897124
0.000502244
0.00038941
0.000324983
0.000277732
0.000240427
0.000210935
0.0100625
0.00116931
0.000536604
0.000401628
0.000332602
0.00028318
0.000244248
0.000213328
0.00319544
0.000788214
0.000492218
0.000390779
0.000327584
0.000279925
0.000242009
0.000211871
0.00100201
0.000575161
0.000450764
0.000376697
0.000321608
0.00027808
0.000243174
0.000214937
0.000631061
0.000504741
0.000429203
0.000370299
0.000322241
0.00028279
0.000250529
0.000223948
0.00287277
0.00228983
0.00199399
0.00173606
0.00147964
0.00122491
0.000983284
0.000770022
0.00484346
0.00266131
0.00211211
0.00179716
0.00152154
0.00125331
0.000997156
0.000768958
0.0118673
0.00340998
0.00227032
0.00186509
0.00156883
0.00128901
0.00101985
0.000777465
0.0245184
0.00417854
0.00237743
0.00190428
0.00159501
0.0013086
0.0010329
0.000783689
0.00844244
0.00308988
0.00223491
0.00187036
0.00158118
0.00130164
0.00103068
0.000785497
0.00369208
0.00252544
0.00211605
0.00182541
0.00155285
0.00128205
0.00102064
0.000785602
0.00271014
0.00230459
0.00203698
0.00178321
0.00152438
0.00126438
0.00101563
0.000794128
0.0088637
0.00747612
0.00653268
0.00568257
0.00493539
0.00432513
0.00383459
0.00336164
0.0119412
0.00826363
0.00689194
0.0059029
0.00506316
0.00438163
0.00385034
0.00336291
0.0201672
0.00943445
0.00722423
0.00608107
0.00517828
0.00445031
0.00389044
0.00339244
0.0318243
0.0104347
0.0074212
0.00617374
0.00523861
0.00448899
0.00391508
0.0034107
0.0161366
0.00892623
0.00713344
0.00606532
0.00518363
0.0044652
0.00391152
0.00341843
0.0101985
0.00796775
0.00683607
0.00590126
0.0050815
0.0044119
0.00389017
0.00341177
0.00845908
0.00739851
0.0065256
0.0057016
0.00497023
0.00437251
0.00389375
0.00343262
0.01277
0.0115679
0.0109259
0.0103701
0.0096894
0.00860524
0.00689056
0.00484768
0.0154673
0.0120144
0.0108611
0.0101547
0.00948722
0.00854166
0.00699559
0.00501603
0.0219629
0.0129234
0.0109768
0.0101277
0.00947395
0.00862049
0.00717242
0.00521202
0.0289684
0.0136325
0.0110991
0.0101609
0.00950067
0.00867465
0.00725991
0.00530622
0.0187128
0.0124357
0.0108448
0.0100603
0.00942927
0.00859468
0.00716998
0.00523414
0.0137922
0.0116024
0.0106535
0.00999194
0.0093499
0.00843758
0.00694165
0.00502138
0.0121519
0.0112208
0.0106057
0.0100415
0.00936133
0.00831075
0.00667983
0.00475247
0.000156718
0.000155371
0.000150954
0.000144256
0.000139443
0.000135478
0.000131023
0.00012716
0.000185944
0.000163343
0.000155643
0.00014772
0.00014279
0.000138766
0.000134923
0.000133594
0.000465608
0.000222754
0.000177796
0.000168575
0.000160573
0.0001506
0.000144824
0.000140739
0.000939084
0.000276561
0.000188731
0.000173627
0.000166863
0.000160599
0.000154847
0.000149622
0.000612446
0.000252917
0.000189148
0.000172161
0.000167979
0.000161028
0.000153361
0.000148608
0.000218405
0.000169749
0.000164284
0.000158245
0.000154282
0.000149193
0.00014242
0.000140738
0.000166782
0.000166809
0.000162352
0.000155664
0.00014971
0.00014466
0.000140099
0.000136958
0.000779315
0.00060419
0.000512446
0.000441988
0.000383986
0.000335803
0.000296429
0.000264269
0.0013536
0.000759445
0.000594304
0.000502303
0.000433205
0.000375394
0.00032776
0.000288294
0.00346525
0.0010852
0.00070189
0.00057019
0.000490534
0.000429417
0.000378175
0.000334776
0.00681818
0.00143847
0.000770914
0.000599897
0.000515071
0.000454437
0.000404984
0.000363144
0.00471743
0.00124283
0.000734871
0.000584222
0.000501807
0.000440044
0.000389343
0.000346306
0.00173086
0.000827859
0.000614995
0.000512005
0.000439377
0.00038077
0.000332492
0.000293552
0.000839223
0.000618569
0.000519783
0.000446619
0.000387089
0.000338176
0.000298326
0.000266096
0.00319609
0.00262142
0.0023099
0.00202779
0.00173785
0.00144223
0.0011564
0.000900468
0.00495339
0.0030831
0.00252529
0.00218699
0.00187896
0.00156595
0.00125506
0.000968828
0.010925
0.00410299
0.00281319
0.00233641
0.00200417
0.00168644
0.00136562
0.00105995
0.0206731
0.0053344
0.00303544
0.00239768
0.00203822
0.00172175
0.00140756
0.00110657
0.0145712
0.00461037
0.00290152
0.00235169
0.00200371
0.00168307
0.00136302
0.00105917
0.00640977
0.0033291
0.00257566
0.00219455
0.00187499
0.00155882
0.00124797
0.00096357
0.00345219
0.00265611
0.00230982
0.00201871
0.00172527
0.00142863
0.00114388
0.000891079
0.00949986
0.0080772
0.00708967
0.00618795
0.00538406
0.0047194
0.0041811
0.00366174
0.0128281
0.00911395
0.00763438
0.00657096
0.00566317
0.00491766
0.00433287
0.0037967
0.0229514
0.0110656
0.00822169
0.00685829
0.00584315
0.0050318
0.00440988
0.00386475
0.0392036
0.0133568
0.00868652
0.00700593
0.00591986
0.00508989
0.00447233
0.00395105
0.0291875
0.0120147
0.00840789
0.00689912
0.00584669
0.00502178
0.00439292
0.00384338
0.0157801
0.00970283
0.00779548
0.00662724
0.00568014
0.00491147
0.00430858
0.00375614
0.0102457
0.00828929
0.00718648
0.00623736
0.00539964
0.00470592
0.00414182
0.0035995
0.0133898
0.0119994
0.0112317
0.0105642
0.00978019
0.00860341
0.00681253
0.004721
0.0171519
0.0129881
0.0115802
0.0107559
0.010009
0.00897624
0.00729461
0.00513668
0.0287453
0.015197
0.0121364
0.0109533
0.0101465
0.00916062
0.00752953
0.00534909
0.0474085
0.0178963
0.0127068
0.0111824
0.0103669
0.00947328
0.00794486
0.00580056
0.0356519
0.0162737
0.0123978
0.0110679
0.0102235
0.00921828
0.00756637
0.00536262
0.0205479
0.0137728
0.011913
0.0109844
0.0101916
0.00911455
0.00737516
0.0051534
0.014484
0.0125186
0.0116566
0.0109722
0.0101736
0.00895177
0.00706284
0.00483987
0.000165324
0.000165072
0.000161291
0.000156523
0.000150384
0.000144687
0.000139407
0.000135428
0.000211572
0.000168828
0.000160044
0.000150481
0.000146805
0.000141414
0.000135502
0.000130197
0.000677644
0.000255595
0.000186497
0.000169854
0.000155971
0.000142454
0.000133849
0.00012659
0.00122363
0.000315695
0.000187874
0.000162729
0.000153253
0.000144767
0.000136813
0.00012943
0.000524099
0.000211596
0.000164865
0.000153119
0.00014385
0.000133186
0.000124506
0.000118093
0.000179969
0.000150359
0.000140191
0.00013223
0.000127487
0.000124911
0.000121535
0.000116806
0.0001407
0.000140045
0.000136886
0.000133525
0.000129585
0.000125608
0.000122013
0.000118052
0.000862354
0.000642191
0.000538816
0.000459912
0.000395073
0.000341851
0.000298717
0.000264113
0.00182486
0.000909898
0.000689613
0.00057471
0.000487617
0.000414692
0.000353245
0.000301728
0.00575745
0.00150186
0.000891298
0.000705574
0.00059796
0.000514462
0.000442158
0.00037896
0.010893
0.00192209
0.000949961
0.000726772
0.000618069
0.000537634
0.000469099
0.000408964
0.00492324
0.00129372
0.000798443
0.000640787
0.000545127
0.000468321
0.000402312
0.000344754
0.0014832
0.000766979
0.000596195
0.000500858
0.000427354
0.000365301
0.000312556
0.000268723
0.000718867
0.000547538
0.000460334
0.000393105
0.000338613
0.000294437
0.00025888
0.000230234
0.0034725
0.0026854
0.00234527
0.00205675
0.00176355
0.00146381
0.00117232
0.000910111
0.00669937
0.00343649
0.00268884
0.00231345
0.00199434
0.00167126
0.00134358
0.00103249
0.0183675
0.00511272
0.00311932
0.00253612
0.00218338
0.00185831
0.00152509
0.00119454
0.0347176
0.00658909
0.00329854
0.0025612
0.00219082
0.00187352
0.00155292
0.00123312
0.0160131
0.00449173
0.00287787
0.00238389
0.00206218
0.00175483
0.00143679
0.00112123
0.00533205
0.00296646
0.00242032
0.00210827
0.00182291
0.00152797
0.00122812
0.000944178
0.00292635
0.00237893
0.00209796
0.00184064
0.00157733
0.00130984
0.00105124
0.000819504
0.0103001
0.00837745
0.00729195
0.00634441
0.00549836
0.00479197
0.00421603
0.00366665
0.0165377
0.00998135
0.00805895
0.00687685
0.0058848
0.00505218
0.00439128
0.00381037
0.036772
0.0130827
0.00885643
0.00725683
0.00612427
0.0051741
0.00440174
0.00373274
0.067234
0.0160027
0.00927072
0.00738418
0.0062285
0.00528927
0.00452933
0.00386677
0.0320443
0.0118952
0.00842224
0.00701279
0.00595273
0.005047
0.00430722
0.00366172
0.0134628
0.00897869
0.00753209
0.00650294
0.00559202
0.00481931
0.0042035
0.00365572
0.00904415
0.0077028
0.00677964
0.00591822
0.00514473
0.00450401
0.0039852
0.00348771
0.0146295
0.0127666
0.0119944
0.0114023
0.0106945
0.00954831
0.007675
0.00536452
0.0216059
0.0143972
0.0126577
0.0119748
0.0114921
0.0107139
0.00912814
0.00680526
0.0436724
0.017698
0.0132129
0.0119482
0.0113595
0.0107602
0.00956555
0.00771863
0.0776024
0.0209434
0.0136255
0.0120122
0.0114404
0.0109854
0.00998845
0.00832037
0.0367642
0.0162664
0.0127621
0.0117308
0.0112208
0.0106547
0.0094781
0.00765661
0.0176477
0.0132074
0.0120637
0.0115526
0.011146
0.0104282
0.00891142
0.00668523
0.0131015
0.0119807
0.0114193
0.0109303
0.010302
0.00924481
0.00749447
0.00532482
0.000138609
0.000140116
0.000139332
0.00013361
0.000128712
0.000124338
0.000119876
0.000114994
0.000179448
0.000159338
0.000148999
0.000142095
0.000136809
0.000131513
0.000126129
0.000121546
0.000533136
0.00023133
0.000173358
0.000160977
0.000154505
0.000148233
0.00014041
0.000134008
0.00142101
0.000355439
0.000205922
0.000180334
0.000167227
0.000157546
0.000148497
0.000140749
0.000777206
0.000288331
0.00020041
0.000180224
0.000167381
0.000157215
0.000149004
0.000140583
0.000231124
0.00018519
0.00016454
0.000154401
0.000145093
0.000140097
0.000136642
0.000132111
0.000160839
0.000158103
0.000151731
0.000146073
0.00014043
0.000135079
0.00013037
0.0001267
0.000682856
0.000545675
0.00046569
0.000402738
0.000350848
0.000307923
0.000272515
0.000243254
0.00117941
0.000715988
0.000574646
0.000489633
0.000423375
0.000367983
0.000321167
0.000281864
0.00314612
0.00104711
0.000715233
0.000590416
0.000510026
0.000445044
0.00038991
0.000342306
0.00678912
0.00140787
0.000813759
0.000648292
0.000559129
0.00049228
0.000436103
0.000387368
0.00399976
0.00121288
0.000776561
0.000628565
0.000540517
0.000472196
0.00041431
0.000364329
0.00148128
0.000819966
0.000636111
0.00053507
0.000459335
0.00039722
0.000344522
0.000300948
0.000788227
0.000611992
0.000521215
0.000450787
0.000392052
0.000342923
0.000302265
0.000268772
0.00282614
0.00241134
0.00214538
0.00189132
0.00162707
0.00135602
0.00109199
0.000853614
0.00404299
0.00283909
0.00242348
0.00213425
0.00185371
0.00155972
0.00126013
0.000977268
0.00801351
0.00360628
0.00273857
0.00236239
0.00206535
0.00176332
0.00144578
0.00113129
0.0141989
0.00438601
0.00294969
0.00247255
0.00215604
0.00185345
0.00153826
0.00122287
0.00956182
0.0039712
0.00287294
0.00244017
0.00212437
0.00181231
0.0014865
0.00116405
0.004883
0.0031371
0.00259148
0.00225944
0.00195594
0.00164254
0.00132426
0.00102439
0.00319633
0.00263212
0.00232485
0.00204837
0.00176236
0.00146753
0.00117922
0.000918478
0.0086823
0.00762438
0.00675284
0.00592323
0.00517895
0.00456434
0.00406721
0.00358486
0.0107711
0.00853764
0.00741601
0.00648452
0.00564832
0.00495082
0.00440148
0.0038936
0.0163266
0.00983099
0.00800643
0.0069016
0.00597381
0.00519972
0.00459769
0.0040676
0.0237838
0.0110253
0.00836537
0.00709146
0.00611148
0.0053133
0.00470745
0.00419838
0.0185551
0.0104274
0.00824149
0.00703802
0.00607287
0.00527795
0.00466217
0.00412205
0.0123549
0.00912822
0.00774732
0.00672342
0.00583502
0.0050981
0.00451754
0.00398347
0.00949513
0.00810833
0.00712966
0.00623817
0.00544076
0.00477839
0.00423965
0.00371795
0.0124181
0.0114894
0.010874
0.0103004
0.00959735
0.00850863
0.00682237
0.00482831
0.0145778
0.0123394
0.0114148
0.0107967
0.0101834
0.00924633
0.00762032
0.00546681
0.0202407
0.0137168
0.0119808
0.0111786
0.0105693
0.00972965
0.00819127
0.00602966
0.0276858
0.0150553
0.0124147
0.0114815
0.0109541
0.0103073
0.0089848
0.00695087
0.0230386
0.0144285
0.0122594
0.0113505
0.010709
0.00985251
0.0082889
0.00608755
0.0165575
0.0130491
0.0118031
0.011075
0.0104012
0.00940873
0.0077113
0.00547631
0.013427
0.0120692
0.0113105
0.0106576
0.00988565
0.00871463
0.00691849
0.00480687
0.00010783
0.000105283
0.00010294
9.77292e-05
0.000102211
0.000102312
0.000103591
0.000196419
0.000190052
0.000187654
0.000188722
0.000187982
0.000192014
0.000201695
0.000599397
0.000587411
0.000584521
0.000585128
0.000589444
0.000597054
0.000615223
0.00273519
0.00270299
0.0027088
0.0027178
0.00273843
0.00275935
0.00281528
0.00278595
0.00276852
0.0027963
0.00282194
0.00282859
0.00281541
0.00279422
0.000123831
0.000131085
0.000137529
0.000144884
0.000145301
0.000141332
0.000134726
0.000237618
0.000255913
0.000298503
0.000327763
0.000310005
0.000261469
0.0002397
0.000693142
0.00073496
0.000803631
0.00085197
0.000804728
0.000732255
0.00068853
0.00297416
0.00306414
0.00311824
0.00323726
0.00309432
0.00301024
0.00289436
0.00265607
0.00272395
0.00275694
0.00309114
0.00275383
0.00269402
0.00265866
0.000132233
0.00012474
0.000120142
0.000122602
0.00011219
0.00011324
0.000114227
0.000235991
0.000259736
0.000326007
0.000358451
0.000296584
0.000233029
0.000206759
0.000696803
0.000769114
0.000904423
0.000951345
0.000844935
0.000704477
0.000631459
0.0029596
0.00308741
0.00294723
0.00306961
0.00289336
0.00296216
0.00283672
0.00298635
0.00389541
0.00502146
0.00568825
0.00498498
0.0038741
0.00305238
0.000110214
0.000117545
0.000128528
0.000134703
0.000133595
0.000128466
0.000123371
0.000218596
0.000248771
0.000301959
0.000345712
0.000321952
0.000264836
0.00024075
0.000658621
0.000740329
0.000857621
0.000945089
0.00088303
0.000773827
0.000705274
0.00293631
0.00318171
0.00333622
0.0035078
0.0033795
0.00324292
0.0030239
0.00280575
0.00297383
0.003317
0.00412507
0.00333015
0.00292521
0.00270616
0.000105107
0.000102861
0.000100481
9.49204e-05
8.72102e-05
7.86018e-05
6.975e-05
6.08121e-05
0.000103049
9.80805e-05
9.4129e-05
8.90191e-05
8.19718e-05
7.399e-05
6.56723e-05
5.72455e-05
0.0001009
9.73918e-05
9.27833e-05
8.60477e-05
7.86743e-05
7.1055e-05
6.31444e-05
5.51294e-05
9.56976e-05
9.44191e-05
9.1352e-05
8.63953e-05
7.83888e-05
6.96365e-05
6.15487e-05
5.37626e-05
9.95549e-05
9.59154e-05
9.15985e-05
8.46977e-05
7.74022e-05
6.99911e-05
6.22623e-05
5.44004e-05
9.94163e-05
9.39582e-05
9.06985e-05
8.59913e-05
7.93459e-05
7.1714e-05
6.37026e-05
5.55785e-05
0.000100244
9.72246e-05
9.58491e-05
9.08104e-05
8.34851e-05
7.52141e-05
6.66829e-05
5.81252e-05
0.000177424
0.000153742
0.000128149
0.000105316
8.76106e-05
7.43461e-05
6.41568e-05
5.60721e-05
0.000171651
0.00014821
0.000124748
0.000103
8.57998e-05
7.26623e-05
6.24577e-05
5.43477e-05
0.000168676
0.000144506
0.000121627
0.000100973
8.4319e-05
7.14666e-05
6.14279e-05
5.3414e-05
0.000168958
0.000144081
0.000121668
0.000100987
8.40644e-05
7.10595e-05
6.09759e-05
5.29759e-05
0.000168395
0.000143876
0.000120722
0.000100264
8.36001e-05
7.07654e-05
6.0771e-05
5.28162e-05
0.000172115
0.000147066
0.000123196
0.000101546
8.4348e-05
7.12328e-05
6.10967e-05
5.30852e-05
0.000180766
0.000154255
0.000127607
0.00010422
8.60358e-05
7.24289e-05
6.20676e-05
5.39513e-05
0.000464681
0.000347746
0.000241912
0.000167175
0.000120681
9.20839e-05
7.37967e-05
6.16027e-05
0.000452773
0.000335622
0.000236507
0.00016536
0.000120063
9.16436e-05
7.32213e-05
6.08719e-05
0.000446821
0.000327584
0.000233232
0.000164382
0.000119788
9.14998e-05
7.30371e-05
6.06116e-05
0.000444887
0.000323531
0.000231924
0.000164304
0.00011988
9.14939e-05
7.29523e-05
6.04885e-05
0.000448503
0.00032555
0.000232697
0.000164283
0.000119617
9.12174e-05
7.26973e-05
6.02598e-05
0.000455454
0.000330983
0.000234821
0.000164737
0.000119459
9.08946e-05
7.23911e-05
6.00308e-05
0.000471386
0.000344221
0.000241539
0.000167553
0.000120525
9.12947e-05
7.25991e-05
6.0223e-05
0.0019905
0.00100056
0.000458579
0.000236397
0.000142196
9.73861e-05
7.33784e-05
5.93166e-05
0.00196455
0.000993291
0.000457455
0.000236927
0.000143036
9.80371e-05
7.37361e-05
5.94585e-05
0.00196956
0.00100151
0.000461809
0.000238818
0.000143934
9.84906e-05
7.39458e-05
5.95177e-05
0.00197734
0.00100872
0.000465175
0.000240135
0.000144497
9.87689e-05
7.41086e-05
5.96328e-05
0.0019974
0.00101909
0.00046853
0.000240855
0.000144448
9.85342e-05
7.38492e-05
5.93867e-05
0.00201718
0.00102532
0.000469063
0.000240085
0.000143575
9.78207e-05
7.33238e-05
5.90195e-05
0.00206392
0.00104428
0.000474875
0.000241441
0.000143517
9.73812e-05
7.2855e-05
5.86206e-05
0.00178883
0.0010727
0.000499663
0.000245885
0.000138749
9.02941e-05
6.61338e-05
5.29876e-05
0.00175412
0.00105924
0.00049882
0.000247815
0.000140669
9.16075e-05
6.6901e-05
5.34611e-05
0.00175652
0.00106253
0.000502134
0.000249759
0.000141631
9.20459e-05
6.70892e-05
5.35302e-05
0.00176504
0.00106746
0.00050503
0.000251373
0.000142569
9.26265e-05
6.74711e-05
5.38106e-05
0.00177558
0.00107276
0.000506303
0.000251362
0.000142256
9.22948e-05
6.71852e-05
5.35684e-05
0.00178026
0.00107307
0.000504532
0.000249876
0.000141301
9.17166e-05
6.68448e-05
5.33711e-05
0.00178667
0.00107418
0.000501878
0.000247137
0.000139164
9.01448e-05
6.56994e-05
5.2515e-05
0.000121433
0.000121793
0.000118475
0.000110202
9.9616e-05
8.84814e-05
7.76287e-05
6.70876e-05
0.00012959
0.0001286
0.000124446
0.000115564
0.000103772
9.16319e-05
7.94444e-05
6.80357e-05
0.000135011
0.000132148
0.000130304
0.000123034
0.000112871
0.000101791
8.93171e-05
7.51623e-05
0.00014075
0.00013328
0.000125687
0.000117428
0.00010747
9.49206e-05
8.09903e-05
7.01118e-05
0.000142454
0.000138067
0.000135857
0.000128045
0.000116656
0.000104497
9.19529e-05
7.73527e-05
0.000139654
0.000137123
0.000130898
0.000120571
0.000108301
9.54929e-05
8.25675e-05
7.03763e-05
0.00013296
0.000131965
0.00012634
0.000116388
0.000104689
9.27577e-05
8.11775e-05
6.9927e-05
0.000212738
0.0001808
0.000145837
0.000115822
9.32843e-05
7.70861e-05
6.5299e-05
5.64575e-05
0.000227446
0.000192185
0.000157038
0.000125247
0.000100533
8.18192e-05
6.78221e-05
5.73083e-05
0.000265556
0.000225627
0.000188727
0.000156144
0.000129637
0.000108306
9.06365e-05
7.6071e-05
0.000295087
0.000254738
0.000217842
0.000185597
0.000156948
0.000132314
0.000110644
9.16265e-05
0.000276603
0.000235675
0.000197073
0.000162809
0.000134987
0.00011297
9.43955e-05
7.88831e-05
0.000233795
0.000199196
0.000162564
0.000129994
0.000104424
8.50851e-05
7.04717e-05
5.94633e-05
0.000215617
0.000183296
0.000147529
0.000117389
9.50707e-05
7.90487e-05
6.72719e-05
5.83372e-05
0.000526123
0.000384837
0.000259365
0.000173051
0.000120876
8.98423e-05
7.07692e-05
5.85707e-05
0.000554505
0.000401198
0.000274871
0.000186149
0.00013096
9.7363e-05
7.64137e-05
6.29952e-05
0.000604297
0.000430589
0.000308797
0.000221175
0.000164003
0.000127832
0.000104526
8.91512e-05
0.00065088
0.000471162
0.000365727
0.000285132
0.000226641
0.00018448
0.000151449
0.00012364
0.000607126
0.000435256
0.00031162
0.000223062
0.00016546
0.00012895
0.00010522
8.92263e-05
0.000554992
0.000406329
0.000276854
0.000187277
0.000132208
9.87685e-05
7.78519e-05
6.43583e-05
0.00052916
0.000388585
0.000258734
0.000171831
0.000120376
9.00624e-05
7.14135e-05
5.93987e-05
0.0021487
0.00105667
0.000469119
0.000233991
0.000137079
9.22725e-05
6.89529e-05
5.56874e-05
0.00222189
0.00111119
0.000501447
0.000253517
0.000150409
0.000102427
7.73439e-05
6.30858e-05
0.00227551
0.00116173
0.000536418
0.000281171
0.000177489
0.000131949
0.000110182
9.84199e-05
0.00242806
0.0013371
0.000689422
0.000413256
0.000299561
0.000248617
0.000216219
0.000178942
0.00225291
0.00114856
0.000532391
0.000281037
0.000178782
0.000133524
0.000111468
9.89383e-05
0.00216884
0.00107902
0.000489715
0.000250272
0.000149784
0.000102645
7.78276e-05
6.36048e-05
0.00206889
0.00101135
0.000452173
0.000228324
0.000135234
9.18271e-05
6.90563e-05
5.59865e-05
0.00169813
0.00101263
0.000468434
0.000229292
0.000129203
8.43716e-05
6.22908e-05
5.04594e-05
0.00171984
0.00103141
0.000484491
0.00024166
0.000139179
9.2995e-05
7.01749e-05
5.79849e-05
0.00170166
0.00101475
0.000483807
0.000252567
0.00015925
0.000121735
0.000107466
0.000102545
0.00190258
0.00119994
0.000646632
0.000407248
0.000323293
0.000309904
0.000325481
0.000321852
0.00169855
0.00101528
0.000485905
0.000254774
0.000161392
0.000123869
0.000109509
0.000104312
0.00170192
0.00102226
0.000480596
0.000240095
0.000138488
9.26151e-05
6.98699e-05
5.76539e-05
0.0017022
0.00101216
0.000466623
0.000228169
0.000128732
8.43203e-05
6.24389e-05
5.06306e-05
0.000128653
0.000125673
0.000122469
0.000114207
0.000103523
9.24024e-05
8.15035e-05
7.07592e-05
0.000121499
0.000116699
0.000109396
0.000103466
9.42824e-05
8.41819e-05
7.44491e-05
6.51238e-05
0.000114561
0.000105974
9.77733e-05
9.0345e-05
8.19045e-05
7.34174e-05
6.52956e-05
5.73961e-05
0.000116422
0.000106619
9.81615e-05
8.95327e-05
8.00662e-05
7.09173e-05
6.28151e-05
5.62541e-05
0.000107281
9.97799e-05
9.29194e-05
8.5851e-05
7.83531e-05
7.06059e-05
6.30134e-05
5.57289e-05
0.00011086
0.000105961
0.000100424
9.45434e-05
8.76996e-05
7.92896e-05
7.069e-05
6.22964e-05
0.000110553
0.000105377
0.000104246
9.94392e-05
9.17513e-05
8.30151e-05
7.4054e-05
6.4925e-05
0.000210396
0.000180125
0.000145906
0.000116135
9.38736e-05
7.81376e-05
6.68433e-05
5.83575e-05
0.000222237
0.000178493
0.000144212
0.000115449
9.34351e-05
7.76631e-05
6.66639e-05
5.87461e-05
0.000275781
0.000218607
0.000174714
0.00014079
0.000114952
9.46691e-05
7.83607e-05
6.50805e-05
0.000309323
0.000252341
0.000205932
0.000168975
0.000139907
0.000116502
9.72845e-05
8.12896e-05
0.000251301
0.000199201
0.000158716
0.000127773
0.000103976
8.55577e-05
7.10181e-05
5.94194e-05
0.00020097
0.000163741
0.000132556
0.000107821
8.8017e-05
7.36405e-05
6.35332e-05
5.62899e-05
0.00018525
0.000159717
0.000132745
0.000108225
8.91003e-05
7.5086e-05
6.47476e-05
5.68312e-05
0.000526454
0.000386075
0.000259394
0.000173032
0.000121501
9.12177e-05
7.26904e-05
6.07475e-05
0.000555317
0.000366554
0.000259731
0.000183453
0.000134138
0.00010423
8.59862e-05
7.40534e-05
0.000654053
0.000419199
0.000279602
0.000195861
0.000143985
0.0001106
8.80061e-05
7.1955e-05
0.000703612
0.000468787
0.000326659
0.000240505
0.000185339
0.000147627
0.000120069
9.90818e-05
0.000609484
0.000389358
0.000259114
0.00018109
0.000132666
0.000101672
8.11428e-05
6.7143e-05
0.000511757
0.000340341
0.000241872
0.000171519
0.000125586
9.76552e-05
8.07511e-05
6.99114e-05
0.000482087
0.000355989
0.000246312
0.000168586
0.000120555
9.1584e-05
7.35332e-05
6.17545e-05
0.00213123
0.00105676
0.000477593
0.000241813
0.000143228
9.73109e-05
7.32569e-05
5.93726e-05
0.00228639
0.00122628
0.000590118
0.000309694
0.000188969
0.00013247
0.0001026
8.42778e-05
0.00212975
0.00113408
0.000560865
0.000299412
0.000184874
0.000132565
0.000106714
9.31535e-05
0.00222873
0.00122214
0.00063666
0.000362226
0.000236157
0.000173945
0.000138517
0.000115211
0.00209342
0.00111127
0.000545138
0.000288271
0.000176193
0.000125538
0.000101414
8.99293e-05
0.00219425
0.00117223
0.000559977
0.000290096
0.000174548
0.000121479
9.43431e-05
7.82994e-05
0.00206554
0.00104266
0.000476792
0.000243103
0.000144731
9.87749e-05
7.46989e-05
6.08204e-05
0.0019031
0.0011279
0.000525399
0.000258591
0.000145867
9.50655e-05
6.97855e-05
5.58826e-05
0.00240533
0.0014576
0.000723354
0.00037538
0.000217774
0.000143231
0.000104868
8.28283e-05
0.00299217
0.00184332
0.000954292
0.000489939
0.000274098
0.000185391
0.000152822
0.000139594
0.00337894
0.00210008
0.0011174
0.00059802
0.000344674
0.000226752
0.000171431
0.000139509
0.00300673
0.00185391
0.000948215
0.000475497
0.000260017
0.00017409
0.000143645
0.0001319
0.00241826
0.00146333
0.000717329
0.000364789
0.000207155
0.000134344
9.85377e-05
7.88205e-05
0.00195567
0.0011615
0.000540647
0.000265125
0.000148878
9.67057e-05
7.09519e-05
5.69363e-05
0.000106767
0.000104155
0.000103654
9.82879e-05
9.01562e-05
8.09645e-05
7.16763e-05
6.24403e-05
0.000114851
0.000111882
0.000108895
0.000103444
9.47175e-05
8.45731e-05
7.4143e-05
6.41589e-05
0.000123315
0.00011494
0.000108604
0.00010389
9.68821e-05
8.76326e-05
7.73402e-05
6.58965e-05
0.000129496
0.000119904
0.000110624
0.000102087
9.30571e-05
8.31368e-05
7.28435e-05
6.45147e-05
0.000128131
0.000119171
0.000112432
0.000107127
9.99967e-05
9.04034e-05
7.95861e-05
6.74986e-05
0.000124954
0.000120253
0.000117937
0.000110604
0.00010026
8.8755e-05
7.73264e-05
6.6568e-05
0.0001208
0.000121107
0.000118113
0.000110027
9.94822e-05
8.83624e-05
7.75339e-05
6.70428e-05
0.000195375
0.00016645
0.000136517
0.000110041
8.95221e-05
7.44374e-05
6.32885e-05
5.48231e-05
0.00021884
0.000182088
0.000149237
0.000119522
9.5857e-05
7.80798e-05
6.50053e-05
5.52597e-05
0.000264385
0.000219602
0.000181077
0.000148652
0.000121541
9.9782e-05
8.26848e-05
6.9215e-05
0.000305793
0.000256721
0.000213441
0.00017712
0.00014708
0.000122665
0.000102748
8.58527e-05
0.000281957
0.000234261
0.000193141
0.000158541
0.000129385
0.000105741
8.6954e-05
7.20082e-05
0.000232148
0.000194053
0.000157448
0.000125317
9.99764e-05
8.1216e-05
6.75303e-05
5.74283e-05
0.000214504
0.000181744
0.000146253
0.000115788
9.29701e-05
7.66952e-05
6.49694e-05
5.62243e-05
0.000501117
0.000364412
0.000252014
0.000171906
0.000121767
9.11842e-05
7.2033e-05
5.95924e-05
0.000553253
0.000392324
0.000273395
0.000187077
0.000131852
9.79302e-05
7.68861e-05
6.3485e-05
0.000633216
0.000427982
0.000306734
0.000220776
0.0001613
0.000122309
9.74084e-05
8.16031e-05
0.000710537
0.000489544
0.000353242
0.000264882
0.000203747
0.000160636
0.000130073
0.00010784
0.0006515
0.00044046
0.000316248
0.000227527
0.000165744
0.000124692
9.81361e-05
8.10628e-05
0.000576227
0.000409169
0.00028148
0.000190754
0.000133912
9.95305e-05
7.84115e-05
6.49937e-05
0.000532908
0.000387546
0.000260778
0.000173561
0.000120931
8.97684e-05
7.07236e-05
5.85843e-05
0.00214612
0.00107792
0.000484897
0.000243345
0.000143126
9.65675e-05
7.2167e-05
5.81558e-05
0.00233752
0.00119336
0.000541113
0.000271025
0.000158937
0.000107318
8.06021e-05
6.54675e-05
0.00249218
0.00132865
0.000630288
0.00032683
0.000199912
0.000141901
0.000111473
9.35945e-05
0.00270231
0.0015436
0.00081429
0.00046645
0.000296582
0.000206345
0.000156123
0.000125812
0.00252144
0.00134354
0.000639545
0.00033455
0.000206306
0.000146846
0.000114858
9.54174e-05
0.00236951
0.00119844
0.000540345
0.000270018
0.000158758
0.000107778
8.13388e-05
6.61758e-05
0.00218644
0.00107643
0.00047717
0.000237195
0.000138627
9.32368e-05
6.96762e-05
5.6282e-05
0.00178641
0.00106743
0.000496464
0.000244086
0.000137869
8.99801e-05
6.61857e-05
5.33137e-05
0.00185712
0.001111
0.000524043
0.000262244
0.000150946
0.000100259
7.48548e-05
6.11064e-05
0.00198195
0.00120133
0.000600396
0.000329638
0.000212263
0.0001555
0.000122795