/*--------------------------------*- C++ -*----------------------------------*\
| =========                 |                                                 |
| \\      /  F ield         | OpenFOAM: The Open Source CFD Toolbox           |
|  \\    /   O peration     | Version:  plus.master.MPPICInterFoam            |
|   \\  /    A nd           | Web:      www.OpenFOAM.com                      |
|    \\/     M anipulation  |                                                 |
\*---------------------------------------------------------------------------*/
FoamFile
{
    version     2.0;
    format      ascii;
    class       surfaceScalarField;
    location    "9.2";
    object      alphaPhi;
}
// * * * * * * * * * * * * * * * * * * * * * * * * * * * * * * * * * * * * * //

dimensions      [0 3 -1 0 0 0 0];

internalField   nonuniform List<scalar> 
34004
(
1.37617e-08
-2.35233e-08
-1.75176e-06
-1.94728e-09
2.02227e-08
-2.75272e-08
-2.23187e-06
4.97312e-09
2.1693e-08
-2.81362e-08
-2.60198e-06
7.73922e-09
2.02881e-08
-2.80228e-08
-2.9517e-06
8.95931e-09
1.73999e-08
-2.74115e-08
-3.30134e-06
9.37201e-09
1.42445e-08
-2.63879e-08
-3.65567e-06
9.19629e-09
1.18676e-08
-2.50178e-08
-4.01462e-06
8.54494e-09
-2.33647e-08
-4.3747e-06
7.48262e-09
1.09938e-08
1.43671e-08
-4.94815e-08
-1.7619e-06
2.07415e-08
-4.9899e-08
-2.24385e-06
2.18555e-08
-4.81976e-08
-2.61592e-06
2.00399e-08
-4.67053e-08
-2.96802e-06
1.68305e-08
-4.50836e-08
-3.32057e-06
1.35498e-08
-4.32635e-08
-3.67832e-06
1.13417e-08
-4.12653e-08
-4.04117e-06
-3.91389e-08
-4.40547e-06
1.10015e-08
1.37043e-08
-7.43294e-08
-1.76715e-06
1.90905e-08
-7.07483e-08
-2.25017e-06
1.91007e-08
-6.664e-08
-2.62328e-06
1.62345e-08
-6.37152e-08
-2.97681e-06
1.21299e-08
-6.10317e-08
-3.33117e-06
8.22797e-09
-5.83724e-08
-3.69113e-06
5.77638e-09
-5.57155e-08
-4.05648e-06
-5.31129e-08
-4.42335e-06
5.66286e-09
1.26959e-08
-9.74941e-08
-1.76645e-06
1.70187e-08
-8.96973e-08
-2.24949e-06
1.6123e-08
-8.33316e-08
-2.6227e-06
1.25835e-08
-7.9135e-08
-2.97659e-06
8.08536e-09
-7.5559e-08
-3.33168e-06
4.10866e-09
-7.22432e-08
-3.69268e-06
1.94462e-09
-6.91224e-08
-4.05933e-06
-6.62324e-08
-4.42768e-06
2.48054e-09
1.05642e-08
-1.17468e-07
-1.75863e-06
1.32547e-08
-1.05682e-07
-2.24059e-06
1.12072e-08
-9.74621e-08
-2.61254e-06
6.94496e-09
-9.23048e-08
-2.96531e-06
2.08864e-09
-8.81268e-08
-3.31934e-06
-1.88666e-09
-8.44502e-08
-3.67936e-06
-3.73629e-09
-8.1133e-08
-4.04503e-06
-7.82189e-08
-4.41235e-06
-2.57002e-09
7.60175e-09
-1.32945e-07
-1.74358e-06
8.2146e-09
-1.17716e-07
-2.22332e-06
5.01736e-09
-1.08371e-07
-2.59265e-06
2.54788e-10
-1.02773e-07
-2.94265e-06
-4.49188e-09
-9.85208e-08
-3.29389e-06
-7.93955e-09
-9.49338e-08
-3.65092e-06
-8.91361e-09
-9.18392e-08
-4.0135e-06
-8.92146e-08
-4.37762e-06
-6.69284e-09
1.315e-09
-1.72211e-06
-1.39955e-07
-2.66355e-09
-2.19843e-06
-1.22569e-07
-8.89433e-09
-2.56341e-06
-1.1328e-07
-1.56645e-08
-2.90862e-06
-1.07814e-07
-2.16024e-08
-3.25471e-06
-1.04107e-07
-2.54023e-08
-3.60606e-06
-1.01271e-07
-2.60245e-08
-3.96241e-06
-9.90552e-08
-4.31984e-06
-9.74158e-08
-2.27794e-08
1.29922e-08
-3.04947e-08
-1.7425e-06
8.25377e-09
1.79764e-08
-3.40006e-08
-2.21744e-06
1.45401e-08
1.79162e-08
-3.4263e-08
-2.58441e-06
1.67128e-08
1.51105e-08
-3.38751e-08
-2.93257e-06
1.75047e-08
1.11035e-08
-3.29805e-08
-3.28192e-06
1.74933e-08
7.2594e-09
-3.16375e-08
-3.63717e-06
1.68634e-08
4.79606e-09
-2.99174e-08
-3.99816e-06
1.57217e-08
-2.79165e-08
-4.36112e-06
1.41578e-08
4.61083e-09
1.25589e-08
-5.20122e-08
-1.75295e-06
1.65515e-08
-5.22008e-08
-2.22967e-06
1.53468e-08
-5.04663e-08
-2.59852e-06
1.14736e-08
-4.88917e-08
-2.94912e-06
6.62722e-09
-4.71339e-08
-3.30152e-06
2.29585e-09
-4.5123e-08
-3.6604e-06
-1.96639e-10
-4.28818e-08
-4.02553e-06
-4.0477e-08
-4.39289e-06
9.01583e-11
1.10941e-08
-7.14045e-08
-1.75886e-06
1.33612e-08
-6.80125e-08
-2.23666e-06
1.0447e-08
-6.4292e-08
-2.60659e-06
5.06826e-09
-6.15713e-08
-2.95881e-06
-9.6139e-10
-5.901e-08
-3.31336e-06
-6.04727e-09
-5.64094e-08
-3.67491e-06
-8.72269e-09
-5.37682e-08
-4.04314e-06
-5.11554e-08
-4.41385e-06
-7.90099e-09
9.43095e-09
-8.82663e-08
-1.75902e-06
1.00319e-08
-8.11845e-08
-2.23693e-06
5.66436e-09
-7.564e-08
-2.60698e-06
-8.68675e-10
-7.19256e-08
-2.95968e-06
-7.68785e-09
-6.86955e-08
-3.31513e-06
-1.31213e-08
-6.56506e-08
-3.67793e-06
-1.56641e-08
-6.27466e-08
-4.04769e-06
-6.00337e-08
-4.42006e-06
-1.42026e-08
7.11423e-09
-1.01685e-07
-1.75234e-06
5.85466e-09
-9.12146e-08
-2.22934e-06
1.57538e-10
-8.42223e-08
-2.5983e-06
-7.37321e-09
-7.97687e-08
-2.94998e-06
-1.47452e-08
-7.61667e-08
-3.30457e-06
-2.03014e-08
-7.29705e-08
-3.66658e-06
-2.2546e-08
-7.00945e-08
-4.03559e-06
-6.75811e-08
-4.40718e-06
-2.03896e-08
4.51484e-09
-1.11032e-07
-1.73874e-06
1.32719e-09
-9.76359e-08
-2.21372e-06
-5.4016e-09
-8.98245e-08
-2.58033e-06
-1.33759e-08
-8.50216e-08
-2.92943e-06
-2.07397e-08
-8.14065e-08
-3.28127e-06
-2.58906e-08
-7.83789e-08
-3.64034e-06
-2.74532e-08
-7.58009e-08
-4.00619e-06
-7.36665e-08
-4.37448e-06
-2.44504e-08
-3.86555e-10
-1.71923e-06
-1.13526e-07
-7.02099e-09
-2.19099e-06
-9.84509e-08
-1.62327e-08
-2.55358e-06
-9.04633e-08
-2.57272e-08
-2.89837e-06
-8.58079e-08
-3.39659e-08
-3.24531e-06
-8.26017e-08
-3.9423e-08
-3.59885e-06
-8.01833e-08
-4.07777e-08
-3.95857e-06
-7.83501e-08
-4.32022e-06
-7.70709e-08
-3.70891e-08
1.12405e-08
-3.71108e-08
-1.73453e-06
1.78796e-08
1.35655e-08
-3.98978e-08
-2.20323e-06
2.32794e-08
1.07494e-08
-3.96596e-08
-2.56671e-06
2.4718e-08
5.37285e-09
-3.88357e-08
-2.91334e-06
2.49341e-08
-8.03867e-10
-3.74773e-08
-3.26264e-06
2.43558e-08
-6.21073e-09
-3.56127e-08
-3.61926e-06
2.31207e-08
-9.38901e-09
-3.33271e-08
-3.98295e-06
2.13447e-08
-3.07509e-08
-4.34961e-06
1.91627e-08
-9.19932e-09
9.83921e-09
-5.45256e-08
-1.74542e-06
1.02852e-08
-5.43022e-08
-2.21578e-06
5.5643e-09
-5.23928e-08
-2.58112e-06
-1.48792e-09
-5.06102e-08
-2.93034e-06
-8.94711e-09
-4.85873e-08
-3.283e-06
-1.50854e-08
-4.62494e-08
-3.6437e-06
-1.83248e-08
-4.36431e-08
-4.01209e-06
-4.08751e-08
-4.38382e-06
-1.74453e-08
7.55676e-09
-6.88583e-08
-1.75212e-06
5.51828e-09
-6.55074e-08
-2.22346e-06
-1.53463e-09
-6.20094e-08
-2.58995e-06
-1.06518e-08
-5.93346e-08
-2.94098e-06
-1.9708e-08
-5.67403e-08
-3.29614e-06
-2.68377e-08
-5.40388e-08
-3.65996e-06
-3.03401e-08
-5.12475e-08
-4.03198e-06
-4.84636e-08
-4.40763e-06
-2.88815e-08
5.31877e-09
-7.99788e-08
-1.75325e-06
9.9457e-10
-7.35119e-08
-2.22465e-06
-7.962e-09
-6.86715e-08
-2.5914e-06
-1.85875e-08
-6.5285e-08
-2.94314e-06
-2.86966e-08
-6.2293e-08
-3.29951e-06
-3.63387e-08
-5.94162e-08
-3.66497e-06
-3.97513e-08
-5.66395e-08
-4.03897e-06
-5.40351e-08
-4.4168e-06
-3.7571e-08
2.92968e-09
-8.75125e-08
-1.74776e-06
-3.42634e-09
-7.82706e-08
-2.21826e-06
-1.39902e-08
-7.2388e-08
-2.58405e-06
-2.57446e-08
-6.8531e-08
-2.935e-06
-3.65532e-08
-6.5375e-08
-3.29069e-06
-4.44517e-08
-6.25589e-08
-3.65554e-06
-4.76742e-08
-6.00279e-08
-4.02897e-06
-5.78322e-08
-4.40619e-06
-4.48529e-08
8.34451e-10
-9.15662e-08
-1.73555e-06
-7.02677e-09
-7.99825e-08
-2.20419e-06
-1.85243e-08
-7.34753e-08
-2.56778e-06
-3.06693e-08
-6.946e-08
-2.91639e-06
-4.14542e-08
-6.64211e-08
-3.26949e-06
-4.90056e-08
-6.39108e-08
-3.63149e-06
-5.16428e-08
-6.18259e-08
-4.00183e-06
-6.0166e-08
-4.37578e-06
-4.81092e-08
-2.9294e-09
-1.71763e-06
-9.02635e-08
-1.31842e-08
-2.18332e-06
-7.74425e-08
-2.62624e-08
-2.5433e-06
-7.07107e-08
-3.94093e-08
-2.88788e-06
-6.68367e-08
-5.07448e-08
-3.23625e-06
-6.41735e-08
-5.8477e-08
-3.59283e-06
-6.22242e-08
-6.09786e-08
-3.95709e-06
-6.08349e-08
-4.32442e-06
-5.99749e-08
-5.70105e-08
8.63745e-09
-4.33283e-08
-1.72672e-06
2.68532e-08
7.27973e-09
-4.5076e-08
-2.18791e-06
3.10387e-08
6.44723e-10
-4.41461e-08
-2.54754e-06
3.15543e-08
-8.32112e-09
-4.26946e-08
-2.8927e-06
3.09832e-08
-1.75661e-08
-4.06694e-08
-3.24236e-06
2.95955e-08
-2.52321e-08
-3.80737e-08
-3.60105e-06
2.74897e-08
-2.95929e-08
-3.50173e-08
-3.96844e-06
2.48102e-08
-3.16918e-08
-4.3401e-06
2.1761e-08
-2.92425e-08
6.2769e-09
-5.69618e-08
-1.73812e-06
2.12118e-09
-5.60356e-08
-2.20073e-06
-7.13969e-09
-5.37872e-08
-2.56226e-06
-1.8371e-08
-5.15967e-08
-2.91023e-06
-2.93356e-08
-4.91131e-08
-3.26361e-06
-3.8022e-08
-4.62443e-08
-3.62685e-06
-4.2579e-08
-4.30652e-08
-3.99948e-06
-3.97375e-08
-4.37682e-06
-4.1514e-08
3.22063e-09
-6.66573e-08
-1.74569e-06
-4.19434e-09
-6.31072e-08
-2.20902e-06
-1.64345e-08
-5.97186e-08
-2.57181e-06
-3.01644e-08
-5.69364e-08
-2.92193e-06
-4.30385e-08
-5.41457e-08
-3.27827e-06
-5.29117e-08
-5.11859e-08
-3.64519e-06
-5.78074e-08
-4.8101e-08
-4.02211e-06
-4.50269e-08
-4.40409e-06
-5.61266e-08
4.75561e-10
-7.25653e-08
-1.74784e-06
-9.67111e-09
-6.65912e-08
-2.21104e-06
-2.43252e-08
-6.22764e-08
-2.5742e-06
-3.9946e-08
-5.91132e-08
-2.92536e-06
-5.41509e-08
-5.62233e-08
-3.28324e-06
-6.47292e-08
-5.33912e-08
-3.65219e-06
-6.96397e-08
-5.06302e-08
-4.03154e-06
-4.80358e-08
-4.4162e-06
-6.7245e-08
-1.99589e-09
-7.48506e-08
-1.7435e-06
-1.42796e-08
-6.68411e-08
-2.20575e-06
-3.06255e-08
-6.18708e-08
-2.56813e-06
-4.74847e-08
-5.85415e-08
-2.91873e-06
-6.2484e-08
-5.57671e-08
-3.27617e-06
-7.33994e-08
-5.32812e-08
-3.64478e-06
-7.81796e-08
-5.10597e-08
-4.02382e-06
-4.91582e-08
-4.40814e-06
-7.51846e-08
-3.67303e-09
-7.42462e-08
-1.7325e-06
-1.71256e-08
-6.45671e-08
-2.19305e-06
-3.41058e-08
-5.92282e-08
-2.55347e-06
-5.12179e-08
-5.59547e-08
-2.90189e-06
-6.61535e-08
-5.34904e-08
-3.25686e-06
-7.67548e-08
-5.15105e-08
-3.62269e-06
-8.10399e-08
-4.99433e-08
-3.99869e-06
-4.87829e-08
-4.37978e-06
-7.74541e-08
-6.19128e-09
-1.7159e-06
-6.98109e-08
-2.11057e-08
-2.17383e-06
-5.91947e-08
-3.88877e-08
-2.53103e-06
-5.37536e-08
-5.64588e-08
-2.8756e-06
-5.06946e-08
-7.15961e-08
-3.22598e-06
-4.86648e-08
-8.22063e-08
-3.58648e-06
-4.7297e-08
-8.63548e-08
-3.95645e-06
-4.6472e-08
-4.33096e-06
-4.61437e-08
-8.24991e-08
5.19137e-09
-4.89552e-08
-1.71799e-06
3.50051e-08
-8.80055e-10
-4.92397e-08
-2.1702e-06
3.75706e-08
-1.22261e-08
-4.74284e-08
-2.52569e-06
3.69065e-08
-2.56299e-08
-4.50984e-08
-2.86952e-06
3.52968e-08
-3.87223e-08
-4.2141e-08
-3.21997e-06
3.28257e-08
-4.93514e-08
-3.85404e-08
-3.58147e-06
2.95639e-08
-5.55053e-08
-3.44475e-08
-3.95357e-06
2.56991e-08
-3.01358e-08
-4.33154e-06
2.15275e-08
-5.54931e-08
1.96069e-09
-5.91623e-08
-1.72991e-06
-7.69075e-09
-5.7185e-08
-2.18316e-06
-2.24124e-08
-5.43912e-08
-2.5406e-06
-3.85939e-08
-5.15929e-08
-2.88758e-06
-5.37643e-08
-4.84201e-08
-3.24219e-06
-6.56529e-08
-4.47941e-08
-3.60875e-06
-7.21403e-08
-4.08293e-08
-3.98666e-06
-3.67555e-08
-4.37094e-06
-7.14666e-08
-1.92009e-09
-6.46479e-08
-1.7383e-06
-1.5522e-08
-6.07136e-08
-2.1919e-06
-3.37469e-08
-5.71838e-08
-2.5508e-06
-5.28149e-08
-5.41286e-08
-2.90035e-06
-7.01658e-08
-5.09673e-08
-3.25839e-06
-8.34164e-08
-4.75769e-08
-3.62918e-06
-9.03417e-08
-4.40382e-08
-4.012e-06
-4.05344e-08
-4.40161e-06
-8.90886e-08
-5.24713e-09
-6.59068e-08
-1.74135e-06
-2.20691e-08
-6.03422e-08
-2.1946e-06
-4.29874e-08
-5.63585e-08
-2.55411e-06
-6.4205e-08
-5.32953e-08
-2.90498e-06
-8.30948e-08
-5.04002e-08
-3.26493e-06
-9.72026e-08
-4.75168e-08
-3.63818e-06
-1.04245e-07
-4.46893e-08
-4.02389e-06
-4.20371e-08
-4.41666e-06
-1.02338e-07
-7.81797e-09
-6.36054e-08
-1.73799e-06
-2.68235e-08
-5.68033e-08
-2.19028e-06
-4.94541e-08
-5.26153e-08
-2.54924e-06
-7.19659e-08
-4.97489e-08
-2.89977e-06
-9.17127e-08
-4.73227e-08
-3.25952e-06
-1.06219e-07
-4.51504e-08
-3.63266e-06
-1.1319e-07
-4.32335e-08
-4.01833e-06
-4.16269e-08
-4.41104e-06
-1.10734e-07
-9.05424e-09
-5.90332e-08
-1.72803e-06
-2.88397e-08
-5.12224e-08
-2.17885e-06
-5.18579e-08
-4.70277e-08
-2.53605e-06
-7.44799e-08
-4.45033e-08
-2.88453e-06
-9.41067e-08
-4.26651e-08
-3.24191e-06
-1.08312e-07
-4.12867e-08
-3.61237e-06
-1.14853e-07
-4.0317e-08
-3.9951e-06
-3.97308e-08
-4.38466e-06
-1.11908e-07
-1.04605e-08
-1.71254e-06
-5.19486e-08
-3.07554e-08
-2.1612e-06
-4.35739e-08
-5.3911e-08
-2.51544e-06
-3.94897e-08
-7.6502e-08
-2.8602e-06
-3.73407e-08
-9.60076e-08
-3.21307e-06
-3.6086e-08
-1.1005e-07
-3.57828e-06
-3.54663e-08
-1.1642e-07
-3.95505e-06
-3.53782e-08
-4.3381e-06
-3.57404e-08
-1.13294e-07
9.72353e-10
-5.36866e-08
-1.7073e-06
4.20069e-08
-1.0572e-08
-5.20935e-08
-2.14899e-06
4.2437e-08
-2.75107e-08
-4.90879e-08
-2.50003e-06
4.03678e-08
-4.6054e-08
-4.56244e-08
-2.84277e-06
3.74143e-08
-6.36259e-08
-4.14507e-08
-3.19451e-06
3.35374e-08
-7.7834e-08
-3.65618e-08
-3.55953e-06
2.87986e-08
-8.64146e-08
-3.11693e-08
-3.93731e-06
2.34473e-08
-2.56448e-08
-4.32284e-06
1.78907e-08
-8.74163e-08
-3.23824e-09
-6.08218e-08
-1.71953e-06
-1.91332e-08
-5.75057e-08
-2.16184e-06
-3.98573e-08
-5.38771e-08
-2.51509e-06
-6.15025e-08
-5.02367e-08
-2.86134e-06
-8.13881e-08
-4.61375e-08
-3.21765e-06
-9.7023e-08
-4.15226e-08
-3.58819e-06
-1.06068e-07
-3.65596e-08
-3.97228e-06
-3.15574e-08
-4.36463e-06
-1.06528e-07
-7.99662e-09
-6.2628e-08
-1.7285e-06
-2.8419e-08
-5.80818e-08
-2.1709e-06
-5.2975e-08
-5.41849e-08
-2.52595e-06
-7.77462e-08
-5.06764e-08
-2.87515e-06
-9.9968e-08
-4.69768e-08
-3.23536e-06
-1.17067e-07
-4.30001e-08
-3.61065e-06
-1.26635e-07
-3.88693e-08
-4.00018e-06
-3.48194e-08
-4.39843e-06
-1.26614e-07
-1.19359e-08
-5.99055e-08
-1.73214e-06
-3.58531e-08
-5.45876e-08
-2.17417e-06
-6.33182e-08
-5.07755e-08
-2.53006e-06
-9.04116e-08
-4.77041e-08
-2.88087e-06
-1.14311e-07
-4.47176e-08
-3.24331e-06
-1.32378e-07
-4.17123e-08
-3.62143e-06
-1.42162e-07
-3.8762e-08
-4.01425e-06
-3.60079e-08
-4.4161e-06
-1.41584e-07
-1.46016e-08
-5.37424e-08
-1.72955e-06
-4.06607e-08
-4.80576e-08
-2.17074e-06
-6.9834e-08
-4.45784e-08
-2.52626e-06
-9.82334e-08
-4.21484e-08
-2.87693e-06
-1.23015e-07
-4.00751e-08
-3.23939e-06
-1.4152e-07
-3.824e-08
-3.61765e-06
-1.51285e-07
-3.66614e-08
-4.01069e-06
-3.5385e-08
-4.41276e-06
-1.50227e-07
-1.53757e-08
-4.58769e-08
-1.72051e-06
-4.18685e-08
-3.99325e-08
-2.16047e-06
-7.12179e-08
-3.68942e-08
-2.51438e-06
-9.96083e-08
-3.51764e-08
-2.86311e-06
-1.24226e-07
-3.40603e-08
-3.22331e-06
-1.42447e-07
-3.33989e-08
-3.599e-06
-1.51843e-07
-3.31463e-08
-3.98923e-06
-3.32432e-08
-4.38828e-06
-1.50381e-07
-1.5681e-08
-1.7061e-06
-3.66282e-08
-4.1911e-08
-2.14429e-06
-3.06025e-08
-7.08567e-08
-2.49541e-06
-2.79732e-08
-9.88316e-08
-2.84052e-06
-2.68782e-08
-1.23078e-07
-3.19631e-06
-2.65874e-08
-1.41002e-07
-3.56684e-06
-2.69252e-08
-1.5019e-07
-3.95123e-06
-2.77836e-08
-4.34393e-06
-2.90253e-08
-1.48592e-07
-4.2085e-09
-5.70707e-08
-1.69341e-06
4.74005e-08
-2.19388e-08
-5.32441e-08
-2.12324e-06
4.52702e-08
-4.48259e-08
-4.87417e-08
-2.46982e-06
4.14459e-08
-6.88793e-08
-4.38635e-08
-2.8117e-06
3.68515e-08
-9.13247e-08
-3.81996e-08
-3.16513e-06
3.1261e-08
-1.09574e-07
-3.17678e-08
-3.53428e-06
2.47518e-08
-1.21174e-07
-2.4855e-08
-3.91854e-06
1.76556e-08
-1.79379e-08
-4.31267e-06
1.05013e-08
-1.23952e-07
-9.34947e-09
-6.16252e-08
-1.70561e-06
-3.19023e-08
-5.66394e-08
-2.13586e-06
-5.88196e-08
-5.19217e-08
-2.48498e-06
-8.61126e-08
-4.72129e-08
-2.8307e-06
-1.10943e-07
-4.19729e-08
-3.18906e-06
-1.30673e-07
-3.61745e-08
-3.56408e-06
-1.4282e-07
-3.00483e-08
-3.95497e-06
-2.39841e-08
-4.35624e-06
-1.45207e-07
-1.49772e-08
-6.0367e-08
-1.71477e-06
-4.23587e-08
-5.49337e-08
-2.14521e-06
-7.32742e-08
-5.04821e-08
-2.49647e-06
-1.03751e-07
-4.63622e-08
-2.84554e-06
-1.3091e-07
-4.1987e-08
-3.2082e-06
-1.5209e-07
-3.73089e-08
-3.58836e-06
-1.64793e-07
-3.24945e-08
-3.98506e-06
-2.78272e-08
-4.3926e-06
-1.66819e-07
-1.93947e-08
-5.44213e-08
-1.71868e-06
-5.04351e-08
-4.91609e-08
-2.14889e-06
-8.43551e-08
-4.54037e-08
-2.50121e-06
-1.17222e-07
-4.22461e-08
-2.85213e-06
-1.46119e-07
-3.9118e-08
-3.2173e-06
-1.68329e-07
-3.59616e-08
-3.60058e-06
-1.8133e-07
-3.28755e-08
-4.00089e-06
-3.00155e-08
-4.41235e-06
-1.82912e-07
-2.20747e-08
-4.52019e-08
-1.71668e-06
-5.51973e-08
-4.05555e-08
-2.1462e-06
-9.07833e-08
-3.77447e-08
-2.49832e-06
-1.24933e-07
-3.57593e-08
-2.84927e-06
-1.54711e-07
-3.40797e-08
-3.21465e-06
-1.77382e-07
-3.26401e-08
-3.5983e-06
-1.90415e-07
-3.14653e-08
-3.99908e-06
-3.05827e-08
-4.41102e-06
-1.91598e-07
-2.23905e-08
-3.47954e-08
-1.70852e-06
-5.56647e-08
-3.07487e-08
-2.13698e-06
-9.12679e-08
-2.89063e-08
-2.4876e-06
-1.25332e-07
-2.80907e-08
-2.83671e-06
-1.54935e-07
-2.78266e-08
-3.19995e-06
-1.7736e-07
-2.80254e-08
-3.58119e-06
-1.90097e-07
-2.86306e-08
-3.97933e-06
-2.95358e-08
-4.38846e-06
-1.90964e-07
-2.17055e-08
-1.69525e-06
-2.39328e-08
-5.41238e-08
-2.1222e-06
-2.04001e-08
-8.89376e-08
-2.47013e-06
-1.93487e-08
-1.22337e-07
-2.81571e-06
-1.94878e-08
-1.51426e-07
-3.17466e-06
-2.03774e-08
-1.73493e-07
-3.55089e-06
-2.19002e-08
-1.86015e-07
-3.94341e-06
-2.39234e-08
-4.34646e-06
-2.62382e-08
-1.8678e-07
-1.02953e-08
-5.87086e-08
-1.6751e-06
5.07114e-08
-3.44698e-08
-5.22794e-08
-2.09233e-06
4.55942e-08
-6.33733e-08
-4.60412e-08
-2.43457e-06
3.97343e-08
-9.29725e-08
-3.9521e-08
-2.77578e-06
3.32334e-08
-1.20373e-07
-3.21649e-08
-3.13123e-06
2.56853e-08
-1.42876e-07
-2.40282e-08
-3.50495e-06
1.72038e-08
-1.5792e-07
-1.54808e-08
-3.89623e-06
8.21476e-09
-7.09705e-09
-4.29969e-06
-6.58285e-10
-1.63152e-07
-1.62349e-08
-6.12323e-08
-1.68681e-06
-4.53861e-08
-5.42613e-08
-2.10468e-06
-7.83124e-08
-4.82668e-08
-2.44979e-06
-1.11048e-07
-4.23177e-08
-2.79515e-06
-1.40698e-07
-3.57924e-08
-3.15576e-06
-1.64579e-07
-2.87017e-08
-3.53552e-06
-1.80158e-07
-2.1342e-08
-3.93352e-06
-1.41728e-08
-4.34418e-06
-1.85136e-07
-2.25189e-08
-5.75797e-08
-1.69588e-06
-5.6627e-08
-5.1035e-08
-2.11429e-06
-9.34952e-08
-4.58935e-08
-2.46195e-06
-1.29238e-07
-4.10559e-08
-2.81104e-06
-1.60988e-07
-3.59327e-08
-3.1763e-06
-1.86142e-07
-3.05142e-08
-3.56138e-06
-2.02215e-07
-2.50048e-08
-3.96531e-06
-1.97233e-08
-4.38233e-06
-2.06919e-07
-2.72137e-08
-4.92773e-08
-1.69975e-06
-6.49919e-08
-4.39333e-08
-2.11819e-06
-1.0483e-07
-4.01523e-08
-2.4671e-06
-1.4293e-07
-3.68747e-08
-2.8182e-06
-1.76413e-07
-3.36046e-08
-3.18614e-06
-2.02612e-07
-3.03225e-08
-3.57456e-06
-2.19029e-07
-2.71422e-08
-3.98233e-06
-2.42223e-08
-4.40349e-06
-2.23383e-07
-2.98316e-08
-3.79379e-08
-1.69817e-06
-6.95858e-08
-3.42769e-08
-2.11609e-06
-1.11008e-07
-3.21204e-08
-2.46492e-06
-1.50342e-07
-3.06201e-08
-2.81618e-06
-1.84692e-07
-2.94046e-08
-3.1845e-06
-2.11368e-07
-2.84452e-08
-3.5735e-06
-2.27865e-07
-2.77621e-08
-3.98195e-06
-2.7356e-08
-4.40383e-06
-2.31904e-07
-2.97345e-08
-2.58627e-08
-1.69084e-06
-6.94292e-08
-2.37505e-08
-2.10779e-06
-1.1077e-07
-2.31582e-08
-2.4552e-06
-1.49998e-07
-2.33582e-08
-2.80473e-06
-1.84209e-07
-2.40852e-08
-3.17105e-06
-2.10713e-07
-2.5286e-08
-3.55783e-06
-2.27011e-07
-2.68803e-08
-3.9639e-06
-2.87082e-08
-4.38326e-06
-2.30843e-07
-2.82401e-08
-1.67882e-06
-1.40306e-08
-6.6688e-08
-2.09434e-06
-1.31293e-08
-1.07034e-07
-2.43914e-06
-1.37841e-08
-1.45508e-07
-2.78523e-06
-1.53436e-08
-1.79193e-07
-3.14741e-06
-1.76226e-08
-2.05373e-07
-3.52944e-06
-2.05361e-08
-2.21513e-07
-3.93023e-06
-2.39099e-08
-4.34391e-06
-2.74567e-08
-2.25302e-07
-1.70576e-08
-5.81962e-08
-1.65129e-06
5.14662e-08
-4.74817e-08
-4.89168e-08
-2.05599e-06
4.30592e-08
-8.2049e-08
-4.08113e-08
-2.39413e-06
3.49826e-08
-1.16807e-07
-3.25348e-08
-2.73486e-06
2.64162e-08
-1.48844e-07
-2.34213e-08
-3.09254e-06
1.68057e-08
-1.75454e-07
-1.35743e-08
-3.47104e-06
6.3186e-09
-1.94033e-07
-3.4473e-09
-3.86963e-06
-4.53196e-09
6.30776e-09
-4.28287e-06
-1.4979e-08
-2.02141e-07
-2.34682e-08
-5.93019e-08
-1.6622e-06
-5.87612e-08
-5.01743e-08
-2.06808e-06
-9.70671e-08
-4.28098e-08
-2.40944e-06
-1.34594e-07
-3.5554e-08
-2.75455e-06
-1.68515e-07
-2.772e-08
-3.11749e-06
-1.96221e-07
-1.93602e-08
-3.50197e-06
-2.15215e-07
-1.08335e-08
-3.90709e-06
-2.6401e-09
-4.32728e-06
-2.23114e-07
-3.01782e-08
-5.39868e-08
-1.67098e-06
-7.03338e-08
-4.62269e-08
-2.07803e-06
-1.12274e-07
-4.03344e-08
-2.42243e-06
-1.52345e-07
-3.476e-08
-2.77171e-06
-1.87853e-07
-2.89147e-08
-3.13954e-06
-2.16446e-07
-2.28247e-08
-3.52927e-06
-2.3573e-07
-1.67155e-08
-3.94009e-06
-1.09205e-08
-4.36637e-06
-2.43357e-07
-3.49019e-08
-4.43069e-08
-1.6745e-06
-7.85535e-08
-3.88113e-08
-2.08191e-06
-1.23291e-07
-3.49796e-08
-2.42768e-06
-1.65615e-07
-3.1604e-08
-2.77899e-06
-2.02832e-07
-2.82526e-08
-3.14954e-06
-2.32454e-07
-2.49342e-08
-3.54279e-06
-2.52077e-07
-2.17623e-08
-3.95761e-06
-1.88836e-08
-4.38817e-06
-2.59381e-07
-3.73727e-08
-3.1916e-08
-1.67317e-06
-8.28333e-08
-2.92084e-08
-2.0802e-06
-1.29034e-07
-2.77166e-08
-2.42595e-06
-1.7254e-07
-2.67639e-08
-2.77748e-06
-2.1062e-07
-2.60999e-08
-3.14853e-06
-2.40737e-07
-2.57166e-08
-3.54256e-06
-2.60483e-07
-2.56191e-08
-3.95831e-06
-2.57759e-08
-4.38985e-06
-2.67544e-07
-3.69304e-08
-1.91756e-08
-1.66664e-06
-8.21952e-08
-1.90063e-08
-2.0727e-06
-1.28286e-07
-1.97131e-08
-2.41709e-06
-1.71731e-07
-2.10291e-08
-2.76699e-06
-2.09766e-07
-2.286e-08
-3.13622e-06
-2.39828e-07
-2.51668e-08
-3.52829e-06
-2.59501e-07
-2.78362e-08
-3.94198e-06
-3.0657e-08
-4.37137e-06
-2.66484e-07
-3.48504e-08
-1.65598e-06
-7.15087e-09
-7.86989e-08
-2.06052e-06
-8.94626e-09
-1.23787e-07
-2.40233e-06
-1.14017e-08
-1.66559e-07
-2.74893e-06
-1.45258e-08
-2.04196e-07
-3.11426e-06
-1.83441e-08
-2.34075e-07
-3.50192e-06
-2.27781e-08
-2.53722e-07
-3.91079e-06
-2.76028e-08
-4.33503e-06
-3.24592e-08
-2.60776e-07
-2.40345e-08
-5.52431e-08
-1.62131e-06
4.93172e-08
-6.00812e-08
-4.30963e-08
-2.01432e-06
3.75199e-08
-9.9504e-08
-3.31466e-08
-2.34873e-06
2.72127e-08
-1.38578e-07
-2.31749e-08
-2.68917e-06
1.66039e-08
-1.74492e-07
-1.24315e-08
-3.04917e-06
5.03814e-09
-2.04617e-07
-1.07891e-09
-3.43252e-06
-7.25193e-09
-2.26416e-07
1.03668e-08
-3.83849e-06
-1.96414e-08
2.12042e-08
-4.26169e-06
-3.13545e-08
-2.37375e-07
-3.05529e-08
-5.5625e-08
-1.63123e-06
-7.10677e-08
-4.43704e-08
-2.02622e-06
-1.13665e-07
-3.56814e-08
-2.36424e-06
-1.54875e-07
-2.72042e-08
-2.70924e-06
-1.9208e-07
-1.81968e-08
-3.07445e-06
-2.2286e-07
-8.74674e-09
-3.46345e-06
-2.44813e-07
7.71656e-10
-3.87546e-06
9.68702e-09
-4.30506e-06
-2.55441e-07
-3.74899e-08
-4.93851e-08
-1.63969e-06
-8.25721e-08
-4.04583e-08
-2.03679e-06
-1.28237e-07
-3.38584e-08
-2.37852e-06
-1.71182e-07
-2.76368e-08
-2.72826e-06
-2.09055e-07
-2.12145e-08
-3.09857e-06
-2.40105e-07
-1.46499e-08
-3.49224e-06
-2.61982e-07
-8.15566e-09
-3.90921e-06
-2.06018e-09
-4.34423e-06
-2.72292e-07
-4.19171e-08
-3.9371e-08
-1.64256e-06
-9.01075e-08
-3.37437e-08
-2.04036e-06
-1.38286e-07
-2.98956e-08
-2.3834e-06
-1.8339e-07
-2.65032e-08
-2.73495e-06
-2.23064e-07
-2.31955e-08
-3.10781e-06
-2.55126e-07
-1.99965e-08
-3.50531e-06
-2.77287e-07
-1.69953e-08
-3.92654e-06
-1.43107e-08
-4.36596e-06
-2.87183e-07
-4.4127e-08
-2.70843e-08
-1.6413e-06
-9.38836e-08
-2.53212e-08
-2.0388e-06
-1.43388e-07
-2.45226e-08
-2.38177e-06
-1.89662e-07
-2.41876e-08
-2.73346e-06
-2.30253e-07
-2.41626e-08
-3.10692e-06
-2.62844e-07
-2.44443e-08
-3.50547e-06
-2.85151e-07
-2.50124e-08
-3.92794e-06
-2.5803e-08
-4.36862e-06
-2.94837e-07
-4.34223e-08
-1.47761e-08
-1.6355e-06
-9.29193e-08
-1.65148e-08
-2.03195e-06
-1.42357e-07
-1.85408e-08
-2.37358e-06
-1.88689e-07
-2.10296e-08
-2.72377e-06
-2.29388e-07
-2.40167e-08
-3.09562e-06
-2.62076e-07
-2.74596e-08
-3.49255e-06
-2.84453e-07
-3.12097e-08
-3.91337e-06
-3.50167e-08
-4.35238e-06
-2.94199e-07
-4.10228e-08
-1.62626e-06
-3.44447e-09
-8.91544e-08
-2.02096e-06
-7.90151e-09
-1.37767e-07
-2.36004e-06
-1.21748e-08
-1.83666e-07
-2.7071e-06
-1.69199e-08
-2.24219e-07
-3.07537e-06
-2.2318e-08
-2.56958e-07
-3.46833e-06
-2.82751e-08
-2.79511e-07
-3.8849e-06
-3.45163e-08
-4.3194e-06
-4.06318e-08
-2.89492e-07
-3.06857e-08
-4.98209e-08
-1.58493e-06
4.41391e-08
-7.12653e-08
-3.50517e-08
-1.96777e-06
2.91449e-08
-1.14304e-07
-2.34807e-08
-2.29896e-06
1.68041e-08
-1.56438e-07
-1.20862e-08
-2.63929e-06
4.41069e-09
-1.95039e-07
-8.9431e-11
-3.00167e-06
-8.7424e-09
-2.27716e-07
1.23928e-08
-3.38984e-06
-2.23228e-08
-2.51964e-07
2.46432e-08
-3.80311e-06
-3.56957e-08
3.60358e-08
-4.23626e-06
-4.81155e-08
-2.65229e-07
-3.69062e-08
-5.02449e-08
-1.59386e-06
-8.13089e-08
-3.70944e-08
-1.9797e-06
-1.26728e-07
-2.72987e-08
-2.31493e-06
-1.70132e-07
-1.78643e-08
-2.65998e-06
-2.09286e-07
-7.97849e-09
-3.02733e-06
-2.42033e-07
2.28752e-09
-3.42052e-06
-2.65982e-07
1.22513e-08
-3.83904e-06
2.15473e-08
-4.27778e-06
-2.78687e-07
-4.39233e-08
-4.37109e-08
-1.60226e-06
-9.25317e-08
-3.38194e-08
-1.99137e-06
-1.40244e-07
-2.66665e-08
-2.33137e-06
-1.84118e-07
-1.99966e-08
-2.68217e-06
-2.22321e-07
-1.3261e-08
-3.05501e-06
-2.54492e-07
-6.55493e-09
-3.45115e-06
-2.78126e-07
-5.21204e-11
-3.8732e-06
6.0544e-09
-4.3163e-06
-2.90494e-07
-4.75823e-08
-3.43748e-08
-1.60426e-06
-9.86988e-08
-2.87257e-08
-1.99425e-06
-1.48601e-07
-2.49502e-08
-2.33513e-06
-1.947e-07
-2.16725e-08
-2.68709e-06
-2.35202e-07
-1.8596e-08
-3.06189e-06
-2.68419e-07
-1.57354e-08
-3.46283e-06
-2.92115e-07
-1.31173e-08
-3.88971e-06
-1.08173e-08
-4.33735e-06
-3.0378e-07
-4.93533e-08
-2.33532e-08
-1.60292e-06
-1.01697e-07
-2.2555e-08
-1.99254e-06
-1.52795e-07
-2.24828e-08
-2.33306e-06
-2.00203e-07
-2.28256e-08
-2.68483e-06
-2.41835e-07
-2.35103e-08
-3.0603e-06
-2.75636e-07
-2.45209e-08
-3.46281e-06
-2.99432e-07
-2.58018e-08
-3.89139e-06
-2.72611e-08
-4.34069e-06
-3.10854e-07
-4.84891e-08
-1.25867e-08
-1.59773e-06
-1.00559e-07
-1.61622e-08
-1.9862e-06
-1.51697e-07
-1.94788e-08
-2.32538e-06
-1.99361e-07
-2.31257e-08
-2.67574e-06
-2.41311e-07
-2.72323e-08
-3.04989e-06
-2.75378e-07
-3.17406e-08
-3.4512e-06
-2.99378e-07
-3.64715e-08
-3.87864e-06
-4.11545e-08
-4.32682e-06
-3.10975e-07
-4.61071e-08
-1.58985e-06
-2.85447e-09
-9.70346e-08
-1.97628e-06
-9.8445e-09
-1.47668e-07
-2.31297e-06
-1.58594e-08
-1.95252e-07
-2.66043e-06
-2.2159e-08
-2.37393e-07
-3.03138e-06
-2.90269e-08
-2.71804e-07
-3.42926e-06
-3.63443e-08
-2.96218e-07
-3.8531e-06
-4.3799e-08
-4.29751e-06
-5.09619e-08
-3.08235e-07
-3.62931e-08
-4.21855e-08
-1.54257e-06
3.61384e-08
-7.99935e-08
-2.53016e-08
-1.91712e-06
1.84295e-08
-1.25133e-07
-1.2551e-08
-2.24568e-06
4.48774e-09
-1.68761e-07
-2.77552e-10
-2.58614e-06
-9.17383e-09
-2.08708e-07
1.25639e-08
-2.95096e-06
-2.32493e-08
-2.42676e-07
2.54665e-08
-3.34386e-06
-3.73928e-08
-2.68261e-07
3.78447e-08
-3.7643e-06
-5.09753e-08
4.913e-08
-4.20735e-06
-6.33321e-08
-2.82875e-07
-4.18128e-08
-4.33994e-08
-1.55078e-06
-8.85667e-08
-2.88074e-08
-1.92936e-06
-1.35153e-07
-1.83213e-08
-2.2625e-06
-1.79085e-07
-8.33705e-09
-2.60792e-06
-2.18651e-07
2.13028e-09
-2.97725e-06
-2.51972e-07
1.25066e-08
-3.37416e-06
-2.7681e-07
2.2516e-08
-3.7988e-06
3.16281e-08
-4.24641e-06
-2.90598e-07
-4.90035e-08
-3.70224e-08
-1.55958e-06
-9.97055e-08
-2.65305e-08
-1.94287e-06
-1.47544e-07
-1.90899e-08
-2.28269e-06
-1.89691e-07
-1.2291e-08
-2.636e-06
-2.26196e-07
-5.67649e-09
-3.01063e-06
-2.58173e-07
6.83399e-10
-3.40728e-06
-2.82694e-07
6.93815e-09
-3.83303e-06
1.25627e-08
-4.28356e-06
-2.96297e-07
-5.13357e-08
-2.92929e-08
-1.5606e-06
-1.03735e-07
-2.38082e-08
-1.94449e-06
-1.53583e-07
-2.02321e-08
-2.28406e-06
-1.98648e-07
-1.72396e-08
-2.637e-06
-2.38158e-07
-1.46385e-08
-3.01335e-06
-2.71258e-07
-1.23842e-08
-3.41659e-06
-2.95307e-07
-1.03805e-08
-3.84827e-06
-8.68851e-09
-4.30359e-06
-3.07737e-07
-5.24185e-08
-2.0652e-08
-1.55908e-06
-1.05554e-07
-2.08351e-08
-1.94229e-06
-1.56505e-07
-2.15042e-08
-2.28075e-06
-2.0336e-07
-2.25562e-08
-2.63258e-06
-2.44504e-07
-2.39873e-08
-3.00973e-06
-2.78162e-07
-2.57474e-08
-3.41571e-06
-3.02206e-07
-2.77382e-08
-3.84991e-06
-2.98483e-08
-4.30741e-06
-3.14234e-07
-5.1458e-08
-1.24785e-08
-1.55438e-06
-1.04334e-07
-1.77379e-08
-1.93633e-06
-1.55497e-07
-2.22354e-08
-2.27341e-06
-2.02906e-07
-2.69294e-08
-2.62388e-06
-2.44635e-07
-3.20114e-08
-3.00006e-06
-2.78717e-07
-3.74005e-08
-3.40539e-06
-3.03062e-07
-4.28966e-08
-3.83905e-06
-4.82305e-08
-4.29608e-06
-3.15323e-07
-4.93884e-08
-1.54768e-06
-5.20318e-09
-1.01479e-07
-1.92741e-06
-1.44447e-08
-1.52554e-07
-2.26207e-06
-2.19922e-08
-2.0031e-07
-2.60991e-06
-2.96233e-08
-2.42611e-07
-2.98334e-06
-3.768e-08
-2.7734e-07
-3.38584e-06
-4.60182e-08
-3.02328e-07
-3.81661e-06
-5.43089e-08
-4.27066e-06
-6.21377e-08
-3.15168e-07
-4.01904e-08
-3.27225e-08
-1.49534e-06
2.57123e-08
-8.54519e-08
-1.45091e-08
-1.86335e-06
6.08626e-09
-1.31045e-07
-1.28625e-09
-2.18996e-06
-8.77158e-09
-1.74725e-07
1.14242e-08
-2.53089e-06
-2.29181e-08
-2.14576e-07
2.42491e-08
-2.8982e-06
-3.70786e-08
-2.48521e-07
3.68343e-08
-3.29578e-06
-5.0884e-08
-2.74209e-07
4.85527e-08
-3.72333e-06
-6.37499e-08
5.89461e-08
-4.17624e-06
-7.51377e-08
-2.89024e-07
-4.48239e-08
-3.54e-08
-1.50322e-06
-9.2325e-08
-2.00426e-08
-1.87625e-06
-1.38452e-07
-9.39985e-09
-2.20819e-06
-1.81276e-07
8.89461e-10
-2.55449e-06
-2.19693e-07
1.09571e-08
-2.92547e-06
-2.52393e-07
2.10853e-08
-3.32563e-06
-2.76962e-07
3.04834e-08
-3.75608e-06
3.87906e-08
-4.21238e-06
-2.90739e-07
-5.25769e-08
-2.95479e-08
-1.51281e-06
-1.0381e-07
-1.89653e-08
-1.89264e-06
-1.49188e-07
-1.16263e-08
-2.23502e-06
-1.87011e-07
-5.22971e-09
-2.59199e-06
-2.2104e-07
6.89774e-10
-2.96626e-06
-2.52131e-07
6.59426e-09
-3.36162e-06
-2.76579e-07
1.19633e-08
-3.78997e-06
1.67018e-08
-4.2475e-06
-2.90445e-07
-5.30652e-08
-2.42413e-08
-1.51279e-06
-1.05095e-07
-1.91775e-08
-1.89217e-06
-1.53103e-07
-1.59857e-08
-2.23163e-06
-1.95328e-07
-1.35104e-08
-2.58643e-06
-2.32503e-07
-1.16333e-08
-2.96378e-06
-2.64179e-07
-1.02047e-08
-3.36804e-06
-2.87605e-07
-9.03703e-09
-3.80374e-06
-8.14521e-09
-4.26641e-06
-2.99822e-07
-5.32095e-08
-1.89636e-08
-1.5111e-06
-1.0539e-07
-2.01137e-08
-1.88909e-06
-1.54577e-07
-2.15072e-08
-2.22597e-06
-1.99324e-07
-2.32575e-08
-2.57801e-06
-2.38636e-07
-2.5419e-08
-2.95655e-06
-2.70943e-07
-2.78831e-08
-3.36563e-06
-2.94107e-07
-3.05101e-08
-3.80516e-06
-3.31814e-08
-4.27067e-06
-3.05682e-07
-5.21428e-08
-1.42926e-08
-1.50686e-06
-1.04095e-07
-2.09561e-08
-1.88345e-06
-1.53725e-07
-2.64208e-08
-2.21879e-06
-1.99438e-07
-3.1944e-08
-2.5694e-06
-2.39625e-07
-3.77482e-08
-2.94745e-06
-2.72477e-07
-4.37238e-08
-3.35659e-06
-2.95968e-07
-4.96615e-08
-3.7963e-06
-5.53142e-08
-4.26204e-06
-3.07758e-07
-5.05296e-08
-1.50116e-06
-1.02289e-08
-1.02153e-07
-1.87544e-06
-2.12193e-08
-1.52181e-07
-2.20846e-06
-2.99255e-08
-1.98711e-07
-2.55674e-06
-3.84992e-08
-2.39847e-07