/*--------------------------------*- C++ -*----------------------------------*\
| =========                 |                                                 |
| \\      /  F ield         | OpenFOAM: The Open Source CFD Toolbox           |
|  \\    /   O peration     | Version:  plus.master.MPPICInterFoam            |
|   \\  /    A nd           | Web:      www.OpenFOAM.com                      |
|    \\/     M anipulation  |                                                 |
\*---------------------------------------------------------------------------*/
FoamFile
{
    version     2.0;
    format      ascii;
    class       volScalarField;
    location    "9.2";
    object      k;
}
// * * * * * * * * * * * * * * * * * * * * * * * * * * * * * * * * * * * * * //

dimensions      [0 2 -2 0 0 0 0];

internalField   nonuniform List<scalar> 
11821
(
4.69238e-05
4.48928e-05
5.16952e-05
5.6866e-05
6.01786e-05
6.17681e-05
6.1716e-05
6.00704e-05
4.71843e-05
4.51924e-05
5.20252e-05
5.7208e-05
6.05208e-05
6.20988e-05
6.20226e-05
6.03391e-05
4.73555e-05
4.54856e-05
5.23421e-05
5.75243e-05
6.08274e-05
6.23874e-05
6.22844e-05
6.05643e-05
4.74047e-05
4.57178e-05
5.2588e-05
5.77571e-05
6.10415e-05
6.25795e-05
6.24516e-05
6.07031e-05
4.73093e-05
4.58732e-05
5.2741e-05
5.78794e-05
6.1132e-05
6.26403e-05
6.24868e-05
6.07177e-05
4.70684e-05
4.59421e-05
5.2788e-05
5.78786e-05
6.10877e-05
6.25613e-05
6.23852e-05
6.06073e-05
4.671e-05
4.59803e-05
5.27805e-05
5.77955e-05
6.09409e-05
6.23678e-05
6.2165e-05
6.03837e-05
4.70559e-05
4.58045e-05
5.29067e-05
5.82411e-05
6.16423e-05
6.3251e-05
6.31451e-05
6.13668e-05
4.73606e-05
4.62422e-05
5.3402e-05
5.87627e-05
6.21739e-05
6.37767e-05
6.36477e-05
6.18258e-05
4.75748e-05
4.6647e-05
5.38522e-05
5.92252e-05
6.26361e-05
6.42276e-05
6.40748e-05
6.22149e-05
4.76568e-05
4.69422e-05
5.41726e-05
5.95404e-05
6.29398e-05
6.45146e-05
6.43414e-05
6.2455e-05
4.75796e-05
4.70937e-05
5.43199e-05
5.9659e-05
6.30273e-05
6.45753e-05
6.43805e-05
6.24776e-05
4.73421e-05
4.70894e-05
5.42794e-05
5.9564e-05
6.2886e-05
6.44007e-05
6.41872e-05
6.22817e-05
4.69772e-05
4.69954e-05
5.41046e-05
5.93044e-05
6.25603e-05
6.40276e-05
6.37896e-05
6.1888e-05
4.73252e-05
4.71076e-05
5.46466e-05
6.02374e-05
6.37959e-05
6.54707e-05
6.53341e-05
6.34172e-05
4.76917e-05
4.77218e-05
5.53572e-05
6.09975e-05
6.45838e-05
6.6265e-05
6.61126e-05
6.41512e-05
4.79647e-05
4.82733e-05
5.59855e-05
6.1659e-05
6.52597e-05
6.69439e-05
6.67785e-05
6.47819e-05
4.8091e-05
4.86562e-05
5.64119e-05
6.20904e-05
6.5691e-05
6.73714e-05
6.71949e-05
6.51755e-05
4.80369e-05
4.88153e-05
5.65647e-05
6.22136e-05
6.57899e-05
6.74499e-05
6.72571e-05
6.52254e-05
4.77994e-05
4.87332e-05
5.64219e-05
6.20112e-05
6.55394e-05
6.7165e-05
6.69542e-05
6.49234e-05
4.74172e-05
4.84767e-05
5.60533e-05
6.15484e-05
6.50007e-05
6.65714e-05
6.63331e-05
6.43098e-05
4.77666e-05
4.89374e-05
5.70912e-05
6.30621e-05
6.68717e-05
6.86833e-05
6.85609e-05
6.65128e-05
4.82165e-05
4.97774e-05
5.80796e-05
6.41307e-05
6.79944e-05
6.98372e-05
6.97147e-05
6.7625e-05
4.85687e-05
5.05208e-05
5.89387e-05
6.50471e-05
6.89562e-05
7.08273e-05
7.07088e-05
6.85899e-05
4.87538e-05
5.10222e-05
5.9498e-05
6.56357e-05
6.9567e-05
7.14525e-05
7.1336e-05
6.92003e-05
4.87285e-05
5.11958e-05
5.96627e-05
6.57827e-05
6.96982e-05
7.15708e-05
7.14443e-05
6.93001e-05
4.84852e-05
5.10174e-05
5.94089e-05
6.54626e-05
6.93245e-05
7.1159e-05
7.10133e-05
6.88725e-05
4.80695e-05
5.05696e-05
5.88208e-05
6.47596e-05
6.85278e-05
7.02938e-05
7.01127e-05
6.79796e-05
4.84306e-05
5.14579e-05
6.04498e-05
6.69498e-05
7.11392e-05
7.31924e-05
7.3152e-05
7.09924e-05
4.89919e-05
5.25837e-05
6.17754e-05
6.84035e-05
7.26909e-05
7.48086e-05
7.47889e-05
7.25929e-05
4.94496e-05
5.35627e-05
6.29138e-05
6.96498e-05
7.40225e-05
7.62006e-05
7.6207e-05
7.39899e-05
4.97119e-05
5.42001e-05
6.36497e-05
7.04474e-05
7.487e-05
7.70852e-05
7.71099e-05
7.48831e-05
4.97207e-05
5.43914e-05
6.38479e-05
7.06393e-05
7.50564e-05
7.72681e-05
7.729e-05
7.50593e-05
4.94621e-05
5.4109e-05
6.34744e-05
7.01893e-05
7.4545e-05
7.67135e-05
7.67144e-05
7.4489e-05
4.89919e-05
5.345e-05
6.26325e-05
6.92031e-05
7.34413e-05
7.55232e-05
7.54783e-05
7.32598e-05
4.93869e-05
5.48561e-05
6.49304e-05
7.21628e-05
7.69005e-05
7.93256e-05
7.94529e-05
7.72114e-05
5.00952e-05
5.63105e-05
6.66638e-05
7.40892e-05
7.89755e-05
8.15032e-05
8.16745e-05
7.94013e-05
5.06902e-05
5.75591e-05
6.81522e-05
7.57415e-05
8.07592e-05
8.33838e-05
8.36052e-05
8.13189e-05
5.10465e-05
5.8368e-05
6.91105e-05
7.67992e-05
8.18987e-05
8.45864e-05
8.48435e-05
8.25542e-05
5.10928e-05
5.85968e-05
6.93615e-05
7.70574e-05
8.2164e-05
8.48591e-05
8.51218e-05
8.2833e-05
5.08084e-05
5.82061e-05
6.88591e-05
7.64665e-05
8.15036e-05
8.41509e-05
8.43918e-05
8.21115e-05
5.02608e-05
5.73099e-05
6.77277e-05
7.51556e-05
8.00479e-05
8.25892e-05
8.2774e-05
8.05008e-05
5.07267e-05
5.9296e-05
7.07695e-05
7.89759e-05
8.44551e-05
8.74011e-05
8.77938e-05
8.55045e-05
5.16198e-05
6.11261e-05
7.29834e-05
8.14519e-05
8.71327e-05
9.02193e-05
9.06763e-05
8.83561e-05
5.23806e-05
6.27029e-05
7.48836e-05
8.35763e-05
8.94367e-05
9.26563e-05
9.31851e-05
9.08565e-05
5.2849e-05
6.3721e-05
7.61043e-05
8.49375e-05
9.09138e-05
9.42226e-05
9.48031e-05
9.24758e-05
5.2938e-05
6.40038e-05
7.64259e-05
8.52818e-05
9.12795e-05
9.46078e-05
9.52026e-05
9.28799e-05
5.26174e-05
6.34993e-05
7.57883e-05
8.45442e-05
9.04659e-05
9.37443e-05
9.4319e-05
9.201e-05
5.19683e-05
6.234e-05
7.43373e-05
8.28768e-05
8.86271e-05
9.17825e-05
9.22943e-05
8.99963e-05
5.25522e-05
6.49542e-05
7.81958e-05
8.76406e-05
9.40704e-05
9.76957e-05
9.84541e-05
9.61503e-05
5.36627e-05
6.72178e-05
8.09437e-05
9.07183e-05
9.73986e-05
0.000101195
0.000102031
9.96896e-05
5.46218e-05
6.91701e-05
8.33021e-05
9.33595e-05
0.000100263
0.000104223
0.000105145
0.000102794
5.52206e-05
7.04236e-05
8.48129e-05
9.50523e-05
0.000102105
0.000106177
0.000107162
0.000104813
5.53571e-05
7.0772e-05
8.52185e-05
9.5498e-05
0.000102588
0.000106692
0.000107699
0.000105358
5.49901e-05
7.01507e-05
8.4445e-05
9.46159e-05
0.000101627
0.000105683
0.000106676
0.000104356
5.42158e-05
6.87108e-05
8.26584e-05
9.25789e-05
9.93966e-05
0.000103319
0.000104248
0.000101948
5.49679e-05
7.20086e-05
8.74013e-05
9.83608e-05
0.000105956
0.000110418
0.000111639
0.000109351
5.63292e-05
7.47373e-05
9.07065e-05
0.000102054
0.000109937
0.000114589
0.000115887
0.000113546
5.75204e-05
7.70935e-05
9.35452e-05
0.000105226
0.000113365
0.000118198
0.000119587
0.000117229
5.82651e-05
7.85924e-05
9.53543e-05
0.000107256
0.000115572
0.000120534
0.000121993
0.000119632
5.84527e-05
7.90119e-05
9.58509e-05
0.000107811
0.00011618
0.000121187
0.000122676
0.000120327
5.8029e-05
7.82759e-05
9.49489e-05
0.000106797
0.000115091
0.000120056
0.000121541
0.000119223
5.71078e-05
7.65529e-05
9.28312e-05
0.000104403
0.000112489
0.000117319
0.000118746
0.000116461
5.8086e-05
8.05927e-05
9.85254e-05
0.000111278
0.000120249
0.0001257
0.00012748
0.000125244
5.97293e-05
8.37868e-05
0.000102372
0.000115555
0.000124833
0.000130475
0.000132315
0.00013
6.11925e-05
8.65542e-05
0.000105684
0.000119234
0.000128782
0.000134607
0.000136531
0.000134181
6.20954e-05
8.82873e-05
0.000107775
0.000121579
0.000131328
0.000137294
0.000139289
0.000136929
6.23352e-05
8.87745e-05
0.000108361
0.000122244
0.000132064
0.000138087
0.000140119
0.000137773
6.18438e-05
8.79329e-05
0.000107346
0.000121121
0.000130874
0.000136869
0.00013891
0.000136609
6.07544e-05
8.59445e-05
0.000104927
0.000118409
0.000127953
0.000133818
0.000135815
0.000133563
6.20318e-05
9.0791e-05
0.00011165
0.00012647
0.000137024
0.000143619
0.000146057
0.000143911
6.39983e-05
9.44167e-05
0.000115982
0.000131252
0.00014211
0.000148872
0.000151343
0.00014909
6.57975e-05
9.75826e-05
0.000119732
0.000135378
0.000146494
0.000153423
0.000155955
0.000153646
6.68686e-05
9.95126e-05
0.00012206
0.000137991
0.00014933
0.000156407
0.000159004
0.000156669
6.71581e-05
0.000100053
0.000122721
0.000138755
0.000150186
0.000157335
0.000159976
0.000157657
6.65853e-05
9.91218e-05
0.000121619
0.000137556
0.000148937
0.000156076
0.000158743
0.000156485
6.53017e-05
9.6908e-05
0.000118954
0.000134594
0.000145773
0.000152797
0.000155439
0.000153247
6.69787e-05
0.000102642
0.00012681
0.000143972
0.000156323
0.000164223
0.000167424
0.000165419
6.92622e-05
0.000106632
0.000131532
0.000149139
0.00016176
0.00016979
0.00017299
0.00017085
7.13364e-05
0.000110163
0.000135664
0.000153623
0.000166455
0.00017461
0.000177847
0.00017563
7.2482e-05
0.000112221
0.00013816
0.000156435
0.000169518
0.000177824
0.000181104
0.000178839
7.27872e-05
0.000112785
0.00013887
0.00015728
0.000170485
0.000178879
0.00018221
0.000179961
7.21688e-05
0.000111789
0.000137713
0.000156046
0.000169226
0.000177633
0.000181012
0.000178839
7.07792e-05
0.000109415
0.000134878
0.000152922
0.000165917
0.000174232
0.000177608
0.000175522
7.28438e-05
0.000116143
0.000144016
0.000163815
0.000178192
0.000187567
0.000191654
0.000189857
7.52986e-05
0.000120398
0.000149012
0.000169213
0.000183807
0.000193265
0.000197312
0.000195349
7.75945e-05
0.000124251
0.000153454
0.000173941
0.000188636
0.00019818
0.000202245
0.000200187
7.87343e-05
0.000126346
0.00015603
0.000176873
0.000191867
0.000201543
0.000205618
0.000203486
7.90229e-05
0.000126892
0.000156752
0.000177779
0.000192939
0.00020272
0.000206847
0.000204726
7.8378e-05
0.000125858
0.000155575
0.000176555
0.000191723
0.000201547
0.000205745
0.00020372
7.6949e-05
0.000123403
0.000152663
0.000173374
0.000188384
0.000198144
0.000202364
0.000200445
7.94521e-05
0.000131279
0.000163307
0.000186064
0.000202713
0.000213761
0.000218876
0.000217366
8.19994e-05
0.000135697
0.00016844
0.000191531
0.00020833
0.000219403
0.000224433
0.000222725
8.4488e-05
0.00013983
0.00017311
0.000196336
0.000213142
0.000224255
0.000229278
0.000227454
8.55487e-05
0.000141858
0.000175678
0.000199337
0.000216435
0.000227666
0.000232672
0.000230747
8.57898e-05
0.00014234
0.000176366
0.000200281
0.000217612
0.000228955
0.000234008
0.000232091
8.51341e-05
0.000141294
0.000175204
0.000199116
0.000216497
0.000227917
0.000233067
0.000231267
8.37191e-05
0.000138844
0.000172316
0.000195989
0.000213248
0.000224636
0.000229837
0.000228163
4.41091e-05
4.44275e-05
5.0953e-05
5.57351e-05
5.87545e-05
6.01698e-05
6.00718e-05
5.85105e-05
4.40287e-05
4.46061e-05
5.10773e-05
5.57942e-05
5.87524e-05
6.01124e-05
5.99714e-05
5.83884e-05
4.40803e-05
4.46197e-05
5.11592e-05
5.59308e-05
5.89405e-05
4.41522e-05
4.5126e-05
4.42376e-05
4.41917e-05
4.47097e-05
5.1373e-05
5.62382e-05
5.9298e-05
6.07134e-05
6.05757e-05
5.89357e-05
4.41058e-05
4.48085e-05
5.14248e-05
5.62372e-05
5.92487e-05
6.06216e-05
6.04519e-05
5.87986e-05
4.41298e-05
4.47796e-05
5.14341e-05
5.62767e-05
5.93181e-05
6.07222e-05
6.05826e-05
5.89502e-05
4.41671e-05
4.50831e-05
5.16972e-05
5.64971e-05
5.94985e-05
6.08663e-05
6.07076e-05
5.91024e-05
4.4247e-05
4.47614e-05
5.14084e-05
5.62664e-05
5.9329e-05
6.07566e-05
6.06409e-05
5.90331e-05
4.43512e-05
4.46367e-05
5.13022e-05
5.61948e-05
5.92843e-05
6.07263e-05
6.06124e-05
5.89973e-05
4.4517e-05
4.44011e-05
5.11357e-05
5.61151e-05
5.92846e-05
6.07966e-05
6.07369e-05
5.9151e-05
4.43524e-05
4.51978e-05
5.20737e-05
5.70697e-05
6.02023e-05
6.16357e-05
6.14601e-05
5.97238e-05
4.42638e-05
4.52316e-05
5.20647e-05
5.70176e-05
6.0113e-05
6.15159e-05
6.13201e-05
5.95798e-05
4.42641e-05
4.51794e-05
5.20332e-05
5.70047e-05
6.01215e-05
6.15495e-05
6.1379e-05
5.96569e-05
4.42836e-05
4.53532e-05
5.21724e-05
5.7108e-05
6.01871e-05
6.15765e-05
6.1378e-05
5.96617e-05
4.43477e-05
4.51164e-05
5.19743e-05
5.69698e-05
6.0114e-05
6.15692e-05
6.14244e-05
5.97266e-05
4.44404e-05
4.50214e-05
5.19024e-05
5.69346e-05
6.01081e-05
6.15813e-05
6.14429e-05
5.97436e-05
4.45896e-05
4.4831e-05
5.1785e-05
5.68979e-05
6.01433e-05
6.16776e-05
6.15848e-05
5.99076e-05
4.46048e-05
4.59792e-05
5.3173e-05
5.83713e-05
6.163e-05
6.31179e-05
6.29205e-05
6.1078e-05
4.45123e-05
4.59565e-05
5.31086e-05
5.8271e-05
6.15027e-05
6.29723e-05
6.27673e-05
6.09313e-05
4.44921e-05
4.58879e-05
5.30504e-05
5.82268e-05
6.1479e-05
6.29752e-05
6.27984e-05
6.09845e-05
4.45008e-05
4.59769e-05
5.31117e-05
5.82602e-05
6.14808e-05
6.29423e-05
6.27373e-05
6.09202e-05
4.45458e-05
4.57933e-05
5.29663e-05
5.8171e-05
6.1453e-05
6.29771e-05
6.28254e-05
6.1034e-05
4.46254e-05
4.57143e-05
5.2912e-05
5.81512e-05
6.14593e-05
6.29979e-05
6.28496e-05
6.10548e-05
4.47579e-05
4.5563e-05
5.28368e-05
5.81504e-05
6.15219e-05
6.31119e-05
6.29998e-05
6.12197e-05
4.49746e-05
4.71701e-05
5.48278e-05
6.03324e-05
6.38004e-05
6.54059e-05
6.5225e-05
6.32803e-05
4.48743e-05
4.70936e-05
5.47083e-05
6.01833e-05
6.36353e-05
6.52369e-05
6.50636e-05
6.31388e-05
4.48358e-05
4.70095e-05
5.46282e-05
6.01171e-05
6.35935e-05
6.52283e-05
6.50916e-05
6.31974e-05
4.48362e-05
4.70415e-05
5.46389e-05
6.01072e-05
6.35589e-05
6.5165e-05
6.50027e-05
6.31011e-05
4.48619e-05
4.6891e-05
5.4523e-05
6.00407e-05
6.35459e-05
6.52059e-05
6.50902e-05
6.32138e-05
4.49286e-05
4.6822e-05
5.4478e-05
6.00248e-05
6.35486e-05
6.52145e-05
6.50937e-05
6.32067e-05
4.50457e-05
4.67122e-05
5.44427e-05
6.00566e-05
6.36341e-05
6.53405e-05
6.5245e-05
6.33641e-05
4.55022e-05
4.89197e-05
5.72378e-05
6.31942e-05
6.69929e-05
6.88143e-05
6.87171e-05
6.66935e-05
4.53887e-05
4.8787e-05
5.70593e-05
6.29935e-05
6.67905e-05
6.86267e-05
6.85576e-05
6.65724e-05
4.5333e-05
4.86847e-05
5.69577e-05
6.2909e-05
6.67385e-05
6.86191e-05
6.85996e-05
6.6658e-05
4.53251e-05
4.86772e-05
5.69339e-05
6.28713e-05
6.6683e-05
6.85413e-05
6.85e-05
6.65491e-05
4.53337e-05
4.85474e-05
5.68335e-05
6.2811e-05
6.66646e-05
6.85642e-05
6.85579e-05
6.66258e-05
4.53889e-05
4.84869e-05
5.6794e-05
6.27924e-05
6.66532e-05
6.85453e-05
6.85203e-05
6.65654e-05
4.54931e-05
4.84239e-05
5.67993e-05
6.28557e-05
6.67588e-05
6.86783e-05
6.86651e-05
6.6705e-05
4.62479e-05
5.14123e-05
6.06461e-05
6.72494e-05
7.15462e-05
7.37225e-05
7.38095e-05
7.17523e-05
4.61139e-05
5.12163e-05
6.04019e-05
6.69934e-05
7.13077e-05
7.35243e-05
7.36672e-05
7.16737e-05
4.60404e-05
5.10917e-05
6.02773e-05
6.6893e-05
7.12524e-05
7.35297e-05
7.37401e-05
7.18076e-05
4.60239e-05
5.10559e-05
6.02297e-05
6.68376e-05
7.11862e-05
7.34479e-05
7.36413e-05
7.16992e-05
4.6019e-05
5.09405e-05
6.01368e-05
6.67736e-05
7.11497e-05
7.34364e-05
7.3649e-05
7.17147e-05
4.60656e-05
5.08904e-05
6.0103e-05
6.67493e-05
7.11173e-05
7.33787e-05
7.3554e-05
7.15799e-05
4.61621e-05
5.08781e-05
6.01517e-05
6.68457e-05
7.12423e-05
7.35148e-05
7.36851e-05
7.1691e-05
4.72957e-05
5.48669e-05
6.53373e-05
7.28373e-05
7.78481e-05
8.056e-05
8.09634e-05
7.89368e-05
4.71317e-05
5.45968e-05
6.50184e-05
7.25218e-05
7.75765e-05
8.03623e-05
8.08576e-05
7.89275e-05
4.70384e-05
5.4445e-05
6.48692e-05
7.24085e-05
7.75261e-05
8.03946e-05
8.09806e-05
7.91331e-05
4.70133e-05
5.43898e-05
6.48066e-05
7.23445e-05
7.74589e-05
8.03197e-05
8.08951e-05
7.90398e-05
4.7e-05
5.42876e-05
6.47196e-05
7.22737e-05
7.73994e-05
8.02665e-05
8.08424e-05
7.89802e-05
4.7043e-05
5.42536e-05
6.46958e-05
7.22456e-05
7.73446e-05
8.01647e-05
8.06809e-05
7.87581e-05
4.71405e-05
5.42957e-05
6.47943e-05
7.23804e-05
7.74918e-05
8.03033e-05
8.07939e-05
7.88326e-05
4.87572e-05
5.95325e-05
7.1628e-05
8.0329e-05
8.63155e-05
8.97795e-05
9.06547e-05
8.87328e-05
4.85508e-05
5.91747e-05
7.12243e-05
7.99503e-05
8.60147e-05
8.95942e-05
9.06051e-05
8.88192e-05
4.8434e-05
5.89911e-05
7.105e-05
7.98287e-05
8.59798e-05
8.96695e-05
9.07989e-05
8.91201e-05
4.84017e-05
5.89254e-05
7.09825e-05
7.97677e-05
8.59251e-05
8.96171e-05
9.07446e-05
8.90631e-05
4.83873e-05
5.88415e-05
7.0907e-05
7.96958e-05
8.58482e-05
8.95277e-05
9.06366e-05
8.89317e-05
4.84349e-05
5.88343e-05
7.09038e-05
7.96734e-05
8.57785e-05
8.93873e-05
9.04121e-05
8.8624e-05
4.85454e-05
5.89397e-05
7.10636e-05
7.98571e-05
8.59561e-05
8.95337e-05
9.0509e-05
8.86605e-05
5.07715e-05
6.56789e-05
7.98515e-05
9.0106e-05
9.73655e-05
0.00010182
0.000103332
0.000101587
5.05069e-05
6.5218e-05
7.93524e-05
8.966e-05
9.70383e-05
0.000101657
0.000103353
0.000101789
5.03616e-05
6.49989e-05
7.91543e-05
8.95367e-05
9.70306e-05
0.000101791
0.000103636
0.000102205
5.03262e-05
6.49348e-05
7.90966e-05
8.94958e-05
9.70082e-05
0.000101784
0.00010364
0.000102214
5.03211e-05
6.48811e-05
7.90464e-05
8.9439e-05
9.69329e-05
0.00010168
0.000103501
0.000102036
5.0386e-05
6.49179e-05
7.90827e-05
8.94418e-05
9.68685e-05
0.000101522
0.000103235
0.000101664
5.05255e-05
6.5103e-05
7.93217e-05
8.96917e-05
9.70921e-05
0.00010169
0.000103327
0.000101672
5.35024e-05
7.3581e-05
9.03362e-05
0.000102532
0.000111382
0.000117072
0.000119379
0.000117875
5.31602e-05
7.3001e-05
8.97312e-05
0.000102013
0.000111027
0.000116932
0.000119476
0.000118197
5.29807e-05
7.27453e-05
8.95129e-05
0.000101896
0.000111057
0.000117137
0.000119861
0.000118741
5.29503e-05
7.27006e-05
8.94862e-05
0.000101899
0.000111093
0.000117205
0.000119955
0.000118853
5.29692e-05
7.26957e-05
8.94837e-05
0.000101884
0.000111053
0.000117126
0.000119829
0.000118674
5.30682e-05
7.28001e-05
8.95865e-05
0.000101943
0.000111028
0.000116989
0.000119562
0.00011828
5.32583e-05
7.30885e-05
8.9929e-05
0.000102283
0.00011132
0.0001172
0.000119672
0.000118281
5.71348e-05
8.35014e-05
0.000103383
0.000117926
0.000128686
0.000135848
0.0001391
0.000137889
5.66916e-05
8.27874e-05
0.000102662
0.000117326
0.000128296
0.000135724
0.000139261
0.000138318
5.64725e-05
8.24977e-05
0.00010243
0.000117223
0.000128369
0.000136002
0.000139749
0.000138991
5.64615e-05
8.24981e-05
0.000102463
0.0001173
0.000128495
0.000136177
0.000139967
0.000139238
5.65233e-05
8.25655e-05
0.000102535
0.00011736
0.000128531
0.000136175
0.00013991
0.000139119
5.66763e-05
8.27633e-05
0.000102736
0.000117514
0.000128593
0.000136109
0.0001397
0.000138763
5.69451e-05
8.31843e-05
0.000103211
0.000117971
0.000128982
0.000136394
0.000139858
0.000138788
6.18837e-05
9.56742e-05
0.000119248
0.00013655
0.000149531
0.000158391
0.000162725
0.000161856
6.13108e-05
9.48139e-05
0.000118401
0.000135856
0.000149089
0.000158259
0.000162923
0.000162361
6.10479e-05
9.4499e-05
0.000118164
0.00013577
0.000149202
0.000158602
0.0001635
0.000163146
6.10797e-05
9.45798e-05
0.000118292
0.000135952
0.000149442
0.000158905
0.000163862
0.000163547
6.12068e-05
9.4743e-05
0.000118463
0.00013612
0.000149601
0.000159033
0.000163935
0.00016355
6.14323e-05
9.50541e-05
0.000118792
0.000136408
0.000149798
0.000159098
0.000163842
0.000163297
6.18149e-05
9.56385e-05
0.000119427
0.00013701
0.000150311
0.000159485
0.000164081
0.00016338
6.80423e-05
0.000110296
0.000138139
0.000158605
0.000174112
0.000184889
0.000190444
0.000189971
6.7302e-05
0.000109281
0.000137158
0.000157803
0.000173592
0.000184717
0.000190636
0.000190499
6.69936e-05
0.000108959
0.000136929
0.000157734
0.00017373
0.000185097
0.000191268
0.000191356
6.71031e-05
0.000109165
0.000137188
0.000158043
0.000174091
0.000185528
0.000191773
0.000191911
6.73214e-05
0.000109442
0.000137469
0.000158336
0.000174408
0.000185832
0.000192021
0.000192082
6.763e-05
0.000109866
0.000137939
0.000158791
0.000174786
0.000186078
0.000192103
0.000191992
6.81693e-05
0.000110641
0.000138755
0.000159555
0.000175443
0.000186591
0.00019245
0.000192167
4.53125e-05
4.5611e-05
4.40443e-05
4.59405e-05
4.41816e-05
5.08982e-05
5.59958e-05
5.92795e-05
4.62745e-05
4.43849e-05
5.11271e-05
5.62513e-05
5.95446e-05
6.11437e-05
6.11305e-05
5.95546e-05
4.66095e-05
4.4609e-05
5.13822e-05
5.6535e-05
5.98434e-05
6.14428e-05
6.14157e-05
5.98102e-05
4.47361e-05
4.42741e-05
5.10538e-05
5.60974e-05
5.93198e-05
6.08693e-05
6.08308e-05
5.92503e-05
4.4999e-05
4.42334e-05
5.10457e-05
5.614e-05
5.9403e-05
6.09815e-05
6.09592e-05
5.93823e-05
4.52933e-05
4.43035e-05
5.11511e-05
5.62887e-05
5.95825e-05
6.11774e-05
6.11567e-05
5.95665e-05
4.56128e-05
4.44809e-05
5.13665e-05
5.65429e-05
5.98598e-05
6.14601e-05
6.14268e-05
5.98068e-05
4.59648e-05
4.4713e-05
5.1646e-05
5.68672e-05
6.02132e-05
6.18267e-05
6.17862e-05
6.01394e-05
4.63291e-05
4.50258e-05
5.20107e-05
5.72714e-05
6.06372e-05
6.22491e-05
6.21877e-05
6.04983e-05
4.6701e-05
4.53827e-05
5.24263e-05
5.77285e-05
6.11166e-05
6.27312e-05
6.26518e-05
6.09218e-05
4.47981e-05
4.47479e-05
5.17511e-05
5.69306e-05
6.02289e-05
6.1798e-05
6.17224e-05
6.00458e-05
4.5058e-05
4.47638e-05
5.18138e-05
5.70514e-05
6.03955e-05
6.19963e-05
6.19357e-05
6.02562e-05
4.53611e-05
4.49068e-05
5.20127e-05
5.73059e-05
6.06891e-05
6.2311e-05
6.22523e-05
6.05544e-05
4.57048e-05
4.51771e-05
5.23485e-05
5.76968e-05
6.11142e-05
6.2748e-05
6.26779e-05
6.09455e-05
4.60871e-05
4.55318e-05
5.27839e-05
5.81957e-05
6.16541e-05
6.33059e-05
6.32287e-05
6.1461e-05
4.64929e-05
4.59866e-05
5.3328e-05
5.88002e-05
6.22925e-05
6.39517e-05
6.38543e-05
6.20376e-05
4.6915e-05
4.65094e-05
5.39484e-05
5.94833e-05
6.30121e-05
6.46822e-05
6.45683e-05
6.27037e-05
4.49559e-05
4.55228e-05
5.2856e-05
5.82418e-05
6.16654e-05
6.32874e-05
6.31886e-05
6.14041e-05
4.5215e-05
4.56039e-05
5.30025e-05
5.84573e-05
6.1936e-05
6.35945e-05
6.35103e-05
6.17173e-05
4.5532e-05
4.58393e-05
5.33217e-05
5.88496e-05
6.23803e-05
6.40682e-05
6.39887e-05
6.21734e-05
4.59062e-05
4.62319e-05
5.38172e-05
5.94235e-05
6.30052e-05
6.47155e-05
6.46283e-05
6.27755e-05
4.63313e-05
4.67447e-05
5.44551e-05
6.01516e-05
6.37934e-05
6.5534e-05
6.54447e-05
6.35515e-05
4.67938e-05
4.73829e-05
5.52315e-05
6.1018e-05
6.47148e-05
6.64768e-05
6.63739e-05
6.44294e-05
4.72799e-05
4.81132e-05
5.61126e-05
6.19936e-05
6.57498e-05
6.7538e-05
6.74261e-05
6.54306e-05
4.52349e-05
4.67172e-05
5.45274e-05
6.02166e-05
6.38442e-05
6.55797e-05
6.54933e-05
6.36026e-05
4.54972e-05
4.68747e-05
5.4774e-05
6.0551e-05
6.42457e-05
6.60218e-05
6.59507e-05
6.4048e-05
4.58356e-05
4.72256e-05
5.52447e-05
6.11184e-05
6.48832e-05
6.67007e-05
6.66394e-05
6.47124e-05
4.62513e-05
4.7776e-05
5.5946e-05
6.1929e-05
6.57672e-05
6.76222e-05
6.75621e-05
6.55967e-05
4.67349e-05
4.84905e-05
5.68414e-05
6.29498e-05
6.68743e-05
6.87784e-05
6.87254e-05
6.6718e-05
4.72711e-05
4.93582e-05
5.79094e-05
6.4148e-05
6.81552e-05
7.01034e-05
7.00512e-05
6.79936e-05
4.7841e-05
5.03495e-05
5.91188e-05
6.54922e-05
6.95891e-05
7.15883e-05
7.15407e-05
6.94318e-05
4.56771e-05
4.84861e-05
5.69631e-05
6.30939e-05
6.70459e-05
6.89913e-05
6.89824e-05
6.70064e-05
4.59485e-05
4.87334e-05
5.73359e-05
6.35762e-05
6.76033e-05
6.95954e-05
6.96042e-05
6.76139e-05
4.6318e-05
4.92265e-05
5.7993e-05
6.43619e-05
6.84796e-05
7.05267e-05
7.0553e-05
6.85382e-05
4.67899e-05
4.99747e-05
5.89505e-05
6.54652e-05
6.96837e-05
7.17896e-05
7.18292e-05
6.97768e-05
4.73518e-05
5.09373e-05
6.01608e-05
6.68432e-05
7.11819e-05
7.33616e-05
7.34221e-05
7.13285e-05
4.79799e-05
5.20879e-05
6.1587e-05
6.84422e-05
7.29049e-05
7.51592e-05
7.52383e-05
7.30967e-05
4.86624e-05
5.34004e-05
6.319e-05
7.02299e-05
7.48264e-05
7.71622e-05
7.72625e-05
7.50698e-05
4.63456e-05
5.10193e-05
6.04033e-05
6.71734e-05
7.16177e-05
7.39121e-05
7.40804e-05
7.20623e-05
4.66334e-05
5.13779e-05
6.09333e-05
6.78253e-05
7.23557e-05
7.47037e-05
7.4892e-05
7.28572e-05
4.70462e-05
5.2041e-05
6.18178e-05
6.88678e-05
7.35109e-05
7.59296e-05
7.61437e-05
7.4084e-05
4.75926e-05
5.30289e-05
6.30783e-05
7.03157e-05
7.50916e-05
7.7592e-05
7.78324e-05
7.57359e-05
4.82524e-05
5.42841e-05
6.4653e-05
7.21099e-05
7.70462e-05
7.96481e-05
7.99238e-05
7.77871e-05
4.89996e-05
5.57738e-05
6.64893e-05
7.41819e-05
7.92876e-05
8.19962e-05
8.23077e-05
8.01225e-05
4.98273e-05
5.74578e-05
6.85443e-05
7.64886e-05
8.17751e-05
8.45967e-05
8.49446e-05
8.27058e-05
4.73314e-05
5.45311e-05
6.51454e-05
7.28099e-05
7.79667e-05
8.07938e-05
8.12731e-05
7.92769e-05
4.76437e-05
5.50342e-05
6.58476e-05
7.36509e-05
7.89046e-05
8.17905e-05
8.22894e-05
8.02712e-05
4.81136e-05
5.58999e-05
6.6987e-05
7.49789e-05
8.03672e-05
8.33375e-05
8.38675e-05
8.18209e-05
4.87541e-05
5.71599e-05
6.85853e-05
7.68088e-05
8.23615e-05
8.54348e-05
8.60009e-05
8.39154e-05
4.95332e-05
5.87432e-05
7.05679e-05
7.90668e-05
8.48184e-05
8.80164e-05
8.86291e-05
8.65013e-05
5.04326e-05
6.06011e-05
7.28668e-05
8.16639e-05
8.76288e-05
9.09614e-05
9.16196e-05
8.94387e-05
5.14432e-05
6.2686e-05
7.54298e-05
8.45436e-05
9.07333e-05
9.42051e-05
9.49087e-05
9.26638e-05
4.87569e-05
5.92762e-05
7.1527e-05
8.04005e-05
8.65397e-05
9.01228e-05
9.10732e-05
8.9175e-05
4.91069e-05
5.99385e-05
7.24142e-05
8.14419e-05
8.7685e-05
9.13264e-05
9.22903e-05
9.03596e-05
4.96471e-05
6.10278e-05
7.38217e-05
8.30666e-05
8.94611e-05
9.31937e-05
9.41863e-05
9.22178e-05
5.03987e-05
6.25753e-05
7.57739e-05
8.52898e-05
9.18749e-05
9.5724e-05
9.67546e-05
9.47388e-05
5.13235e-05
6.45046e-05
7.81877e-05
8.80285e-05
9.484e-05
9.88296e-05
9.991e-05
9.78434e-05
5.24013e-05
6.67528e-05
8.09735e-05
9.11682e-05
9.8228e-05
0.000102366
0.000103494
0.000101365
5.36198e-05
6.92722e-05
8.40691e-05
9.46379e-05
0.000101956
0.000106249
0.000107417
0.000105208
5.07716e-05
6.55504e-05
7.99094e-05
9.03584e-05
9.77895e-05
0.000102377
0.000103971
0.000102247
5.11737e-05
6.63732e-05
8.09844e-05
9.15978e-05
9.91316e-05
0.000103768
0.000105361
0.000103587
5.17975e-05
6.7682e-05
8.26532e-05
9.35037e-05
0.000101195
0.000105918
0.000107525
0.000105697
5.26709e-05
6.95134e-05
8.49448e-05
9.60962e-05
0.000103991
0.00010883
0.000110466
0.000108574
5.37562e-05
7.17905e-05
8.77756e-05
9.92834e-05
0.000107421
0.000112403
0.000114079
0.000112122
5.50268e-05
7.44325e-05
9.10325e-05
0.000102935
0.000111335
0.000116468
0.000118184
0.000116148
5.64727e-05
7.73879e-05
9.46441e-05
0.000106963
0.000115639
0.000120921
0.000122665
0.000120531
5.35547e-05
7.36583e-05
9.06504e-05
0.000103078
0.000112131
0.000117979
0.000120384
0.000118901
5.40198e-05
7.46374e-05
9.19023e-05
0.000104494
0.000113638
0.000119514
0.000121892
0.000120336
5.47301e-05
7.61436e-05
9.37981e-05
0.000106634
0.000115925
0.000121867
0.000124235
0.000122599
5.57271e-05
7.8225e-05
9.63779e-05
0.000109527
0.000119017
0.000125059
0.000127432
0.00012571
5.69764e-05
8.08131e-05
9.95603e-05
0.00011308
0.00012281
0.000128981
0.000131377
0.00012957
5.84437e-05
8.38085e-05
0.000103223
0.000117152
0.000127144
0.000133454
0.000135871
0.00013397
6.0129e-05
8.7158e-05
0.000107285
0.000121649
0.000131912
0.000138358
0.000140783
0.000138763
5.7309e-05
8.38858e-05
0.00010407
0.000118894
0.000129898
0.000137252
0.000140621
0.000139433
5.78458e-05
8.50066e-05
0.000105472
0.000120447
0.000131517
0.000138867
0.000142175
0.000140884
5.86369e-05
8.66657e-05
0.000107532
0.000122739
0.00013393
0.000141311
0.000144573
0.000143173
5.97463e-05
8.89288e-05
0.000110307
0.000125819
0.000137185
0.000144634
0.00014787
0.000146359
6.11519e-05
9.17433e-05
0.000113731
0.000129607
0.000141192
0.000148742
0.000151974
0.000150361
6.28083e-05
9.50052e-05
0.000117676
0.000133959
0.000145789
0.000153455
0.000156686
0.000154964
6.47535e-05
9.86627e-05
0.000122071
0.000138782
0.000150867
0.000158645
0.000161862
0.000160005
6.22654e-05
9.64749e-05
0.000120422
0.000138051
0.000151321
0.000160406
0.000164876
0.00016403
6.28827e-05
9.77111e-05
0.000121931
0.000139688
0.000152985
0.000162023
0.000166393
0.000165413
6.37479e-05
9.94552e-05
0.000124065
0.000142025
0.000155403
0.000164427
0.000168709
0.000167586
6.49582e-05
0.000101799
0.000126908
0.000145144
0.000158659
0.00016771
0.000171929
0.000170673
6.65108e-05
0.000104717
0.000130422
0.000148996
0.000162695
0.000171812
0.000176
0.000174628
6.83386e-05
0.000108107
0.000134491
0.000153453
0.000167368
0.000176572
0.00018074
0.000179252
7.04547e-05
0.000111942
0.000139054
0.00015843
0.000172573
0.000181862
0.000185994
0.000184362
6.87276e-05
0.000111605
0.000139874
0.000160701
0.000176528
0.000187555
0.000193256
0.000192802
6.94377e-05
0.000112921
0.000141442
0.000162358
0.000178165
0.000189097
0.000194656
0.000194033
7.03385e-05
0.000114662
0.000143544
0.000164624
0.000180462
0.000191329
0.000196754
0.000195955
7.15537e-05
0.000116954
0.000146302
0.000167619
0.00018355
0.000194399
0.000199726
0.000198773
7.31006e-05
0.000119823
0.000149733
0.000171349
0.000187423
0.000198303
0.000203577
0.000202503
7.49052e-05
0.00012317
0.000153741
0.000175719
0.000191979
0.00020292
0.000208158
0.000206971
7.70231e-05
0.000127007
0.000158295
0.000180662
0.000197121
0.00020812
0.000213308
0.000211977
4.62828e-05
4.59428e-05
5.26692e-05
5.76103e-05
6.06992e-05
6.20913e-05
6.18787e-05
6.01145e-05
4.58341e-05
4.59017e-05
5.25471e-05
5.73929e-05
6.03996e-05
6.17296e-05
6.14835e-05
5.97261e-05
4.54012e-05
4.57083e-05
5.23173e-05
5.71322e-05
6.01311e-05
6.1479e-05
6.12752e-05
5.95794e-05
4.50182e-05
4.57049e-05
5.22406e-05
5.69773e-05
5.99147e-05
6.12205e-05
6.10076e-05
5.93604e-05
4.46574e-05
4.49987e-05
5.15465e-05
5.63185e-05
5.92998e-05
6.06567e-05
6.04887e-05
5.88555e-05
4.43876e-05
4.47924e-05
5.12781e-05
5.60138e-05
5.89813e-05
6.03398e-05
6.01862e-05
5.85805e-05
4.42092e-05
4.44814e-05
5.1005e-05
5.57869e-05
5.88032e-05
6.02131e-05
6.01084e-05
5.85399e-05
4.65324e-05
4.6776e-05
5.37923e-05
5.89089e-05
6.21015e-05
6.35302e-05
6.32828e-05
6.14054e-05
4.606e-05
4.65431e-05
5.34499e-05
5.84593e-05
6.15621e-05
6.2925e-05
6.26456e-05
6.07836e-05
4.55913e-05
4.6175e-05
5.30112e-05
5.7968e-05
6.10444e-05
6.24094e-05
6.21615e-05
6.03584e-05
4.5175e-05
4.5978e-05
5.27075e-05
5.75677e-05
6.05674e-05
6.1878e-05
6.16105e-05
5.98449e-05
4.47952e-05
4.53373e-05
5.20576e-05
5.69385e-05
5.99776e-05
6.13438e-05
6.11367e-05
5.94156e-05
4.45048e-05
4.50888e-05
5.17479e-05
5.65951e-05
5.96227e-05
6.09935e-05
6.08051e-05
5.9118e-05
4.43087e-05
4.47942e-05
5.14643e-05
5.63348e-05
5.93944e-05
6.08046e-05
6.06583e-05
5.90076e-05
4.69378e-05
4.80525e-05
5.55034e-05
6.08946e-05
6.42668e-05
6.57859e-05
6.55312e-05
6.35338e-05
4.64238e-05
4.75993e-05
5.48983e-05
6.01581e-05
6.34221e-05
6.48622e-05
6.4569e-05
6.25899e-05
4.59039e-05
4.70309e-05
5.42132e-05
5.93906e-05
6.26036e-05
6.40259e-05
6.37512e-05
6.18292e-05
4.5441e-05
4.6625e-05
5.36607e-05
5.87187e-05
6.18372e-05
6.31922e-05
6.289e-05
6.10017e-05
4.5026e-05
4.59624e-05
5.2951e-05
5.8002e-05
6.11416e-05
6.25422e-05
6.23012e-05
6.04735e-05
4.47032e-05
4.56298e-05
5.25422e-05
5.75495e-05
6.06685e-05
6.20671e-05
6.18422e-05
6.00515e-05
4.4488e-05
4.53187e-05
5.22139e-05
5.72224e-05
6.03577e-05
6.17857e-05