/*--------------------------------*- C++ -*----------------------------------*\
| =========                 |                                                 |
| \\      /  F ield         | OpenFOAM: The Open Source CFD Toolbox           |
|  \\    /   O peration     | Version:  plus.master.MPPICInterFoam            |
|   \\  /    A nd           | Web:      www.OpenFOAM.com                      |
|    \\/     M anipulation  |                                                 |
\*---------------------------------------------------------------------------*/
FoamFile
{
    version     2.0;
    format      ascii;
    class       scalarField;
    location    "10.4/lagrangian/kinematicCloud";
    object      age;
}
// * * * * * * * * * * * * * * * * * * * * * * * * * * * * * * * * * * * * * //


522
(
10.2331
10.1651
10.0847
10.1517
10.3402
10.3912
10.2607
10.2497
10.0846
10.2688
10.2207
10.3912
10.3644
10.225
10.3771
10.2177
10.2936
9.96558
10.3383
10.3741
10.0382
10.2789
10.2284
10.346
10.1905
10.3562
9.97154
10.1345
10.1813
10.1635
10.3561
10.3337
10.2894
10.1826
10.1849
10.3922
10.3188
10.3631
10.1984
10.2499
10.1816
10.2208
10.2515
10.2785
10.2865
10.3325
10.2339
10.0748
10.2197
10.3332
10.3683
10.3082
10.2588
10.2062
10.3564
10.3118
10.0589
10.2523
10.3493
10.396
10.2665
10.0583
10.3672
10.2623
10.1619
10.3387
10.1363
9.95483
10.2409
10.1725
10.1152
10.0711
10.3679
10.2518
10.3238
10.3812
10.365
10.3916
10.2891
10.3371
10.2677
10.3328
10.1881
10.3572
10.364
10.2785
10.1714
10.3855
10.3371
10.3078
10.3648
10.1077
10.2588
10.1343
10.1235
10.3687
10.1496
10.3622
10.3749
9.9082
10.3446
10.1931
10.3825
10.3966
10.3516
10.3706
10.2784
10.2905
10.2871
10.105
10.2407
10.3444
10.0131
10.0475
10.3274
10.1499
10.105
10.3988
10.3776
10.269
10.3371
10.3815
10.1942
10.3069
10.2621
10.2281
10.3086
10.2062
10.3509
10.2302
10.3186
10.2982
10.2485
10.256
10.3109
10.1545
10.2881
10.3371
10.2673
10.3775
10.2564
10.3937
10.1294
10.128
10.3866
10.3081
10.3354
10.3999
10.2588
10.2593
10.33
10.2796
10.2485
10.2436
10.2087
10.1835
10.1829
10.155
10.3992
10.2452
10.2493
10.3993
10.3704
10.3644
10.0667
10.2295
10.2727
10.2995
10.1905
10.3896
10.377
10.3376
10.3175
10.3576
10.331
10.1835
10.3791
10.2686
10.0023
10.1823
10.0494
10.3662
10.1251
10.2205
10.3953
10.3286
10.2588
10.1823
10.181
10.2075
10.0295
10.2983
10.3198
10.1991
10.1483
10.3959
10.3962
10.0635
10.3642
10.3401
10.124
10.1895
9.83277
10.3107
10.298
10.285
10.2894
9.96838
10.3403
10.2124
10.2098
10.3766
10.2352
10.3486
10.2694
10.2435
10.2301
10.1622
10.3763
10.3815
10.3622
10.2766
10.3078
10.3271
10.2075
10.1821
10.4002
10.3009
10.2317
10.3671
10.0517
10.3641
10.3683
10.2459
10.2965
10.124
10.3428
10.2597
10.3937
10.2718
10.3576
9.91864
9.9675
9.94054
10.2784
10.0921
9.9977
10.1878
10.2982
10.211
10.3288
10.3473
10.3974
10.3305
10.0453
9.89167
10.308
9.92734
9.88009
9.76
9.69193
10.043
9.51694
10.377
10.3939
10.401
10.3766
10.0741
10.1101
10.0242
10.0953
10.3915
10.3782
10.2657
10.3884
9.92643
10.0727
10.2047
9.92863
10.2899
10.3254
10.3815
9.9108
10.1086
10.1039
10.0339
10.3371
9.71428
10.083
10.3488
9.66077
10.3995
9.51234
10.1282
9.87623
9.96882
10.0996
9.49367
10.3089
10.2847
10.249
10.0765
9.64769
10.1312
10.3706
10.2498
10.366
10.2422
10.2647
9.76294
10.3977
9.52031
10.3784
9.49524
10.3762
10.3711
9.7448
9.86671
9.52257
10.0171
10.0825
10.2686
9.88956
9.64891
9.90935
10.029
9.57859
10.3914
10.0979
9.8956
9.64062
10.3768
10.0442
9.64003
10.0525
9.84412
9.63682
10.371
9.85161
9.68108
10.1628
10.0008
10.3855
10.096
10.1376
9.65745
10.3529
9.73003
9.57346
10.3835
9.61099
9.80755
9.91218
10.3108
9.72311
10.1873
9.93499
9.60857
9.64238
9.98294
9.94889
9.84124
9.97942
9.55075
9.56043
9.76982
9.65496
9.6102
10.3685
9.69163
9.87668
10.3077
9.97347
9.54
10.3665
10.3932
9.66178
9.74216
9.50669
9.73343
10.0887
9.54097
9.89163
10.3939
9.96332
9.91387
9.4961
9.57
9.93077
9.63013
9.96476
9.60243
9.84591
9.84857
9.7508
10.0301
9.4801
9.57916
9.53007
9.50199
9.79861
9.62263
10.0143
10.1719
9.57016
9.51288
10.2055
9.90643
9.67661
9.64174
9.62047
9.49368
9.74527
9.8385
10.2747
9.76034
9.99136
10.1429
9.67171
9.6426
9.59434
10.3885
9.811
10.1064
9.55042
9.48041
9.6398
10.1487
9.52929
9.76694
10.2252
9.51719
9.9938
9.51433
9.60002
10.1254
9.9794
9.48741
10.1815
9.67774
9.67578
9.77065
9.52217
9.93385
10.1055
10.2653
9.57274
9.51929
10.1922
9.84204
9.51027
9.55826
9.49241
10.2726
9.6752
9.57053
10.1911
9.60726
10.3708
9.84724
9.60012
9.63103
10.0476
9.58
9.64041
10.1924
9.46658
10.0083
10.3597
10.3543
10.4
9.70745
9.6816
9.58161
9.64
9.63956
9.73702
9.64071
9.57235
9.95423
9.54162
9.60454
10.012
9.74118
10.228
9.53198
9.87356
10.1057
9.67187
9.68096
10.3786
10.3947
9.84833
9.69118
10.2211
10.038
9.53792
9.85942
10.0797
9.53046
9.63046
9.90494
9.76092
10.0218
10.2243
9.49453
9.5701
9.74
9.81003
10.006
9.66476
9.57534
9.80354
9.68149
9.77012
9.57634
10.0571
10.1336
9.5896
10.0809
10.3435
9.5032
)


// ************************************************************************* //
