/*--------------------------------*- C++ -*----------------------------------*\
| =========                 |                                                 |
| \\      /  F ield         | OpenFOAM: The Open Source CFD Toolbox           |
|  \\    /   O peration     | Version:  plus.master.MPPICInterFoam            |
|   \\  /    A nd           | Web:      www.OpenFOAM.com                      |
|    \\/     M anipulation  |                                                 |
\*---------------------------------------------------------------------------*/
FoamFile
{
    version     2.0;
    format      ascii;
    class       vectorField;
    location    "10.4/lagrangian/kinematicCloud";
    object      U;
}
// * * * * * * * * * * * * * * * * * * * * * * * * * * * * * * * * * * * * * //


522
(
(0.000175751 -0.000222568 -0.0451287)
(0.00019675 -8.76045e-05 -0.0356517)
(0.000301476 2.1651e-05 -0.0414766)
(0.000283119 0.000101172 -0.0391694)
(0.000261132 6.23411e-05 -0.0392305)
(0.000442959 0.000127588 -0.0455645)
(0.00110184 -0.000131908 -0.0427429)
(0.000269721 -0.00038183 -0.039184)
(0.000165906 -0.00020589 -0.046068)
(0.00106975 -0.000142868 -0.0427483)
(0.000415168 7.74667e-05 -0.0448354)
(0.00116905 -0.000107117 -0.043316)
(0.000313614 -0.000183598 -0.0381384)
(0.000263429 0.000119199 -0.0388958)
(0.000142065 0.000116238 -0.0363499)
(0.000271139 2.49554e-05 -0.0406356)
(0.000373186 0.000103129 -0.0425505)
(0.000449972 -3.06071e-05 -0.0464215)
(0.000427557 -2.30539e-05 -0.0458981)
(0.000439951 -0.000367715 -0.0462821)
(0.000339492 0.000110153 -0.0442198)
(0.00029977 -0.000104665 -0.0462213)
(0.000190125 -0.000229751 -0.04743)
(0.000326805 5.60114e-05 -0.044095)
(0.000293512 0.0001423 -0.0413291)
(0.000448438 0.000108713 -0.0470941)
(0.000199294 0.000171305 -0.0409951)
(0.000293273 -0.000100327 -0.0478583)
(0.000223501 -0.000229088 -0.0487795)
(0.000311508 0.000171194 -0.0416265)
(0.000185561 -0.00025691 -0.042621)
(0.000230543 -0.00017865 -0.048268)
(0.000185267 -0.000359857 -0.0483163)
(0.000295223 0.000141952 -0.0441941)
(0.000184774 0.000138426 -0.0410157)
(8.23155e-05 0.000226651 -0.0391633)
(0.000458763 4.80479e-05 -0.0482124)
(0.000310463 0.000303651 -0.0452719)
(0.000371316 0.000338219 -0.0468786)
(5.37523e-05 0.000176036 -0.0373777)
(0.000241782 -0.000234582 -0.0480625)
(0.000412491 0.000194245 -0.0479002)
(0.000467897 -0.00039266 -0.0474404)
(0.0001884 -0.000355926 -0.049598)
(0.000323814 0.000245245 -0.0444097)
(0.00041677 0.000216344 -0.0482652)
(0.00137496 -8.62704e-05 -0.0479085)
(0.000784592 -0.000507175 -0.0479704)
(0.000456456 0.000304213 -0.0491085)
(0.000583944 -0.000333544 -0.0477477)
(0.00092568 -0.000286633 -0.0477311)
(0.000516982 -0.000392995 -0.047322)
(0.0006402 -0.000409648 -0.0492621)
(0.000802927 -0.000533061 -0.048553)
(0.00031689 0.000204177 -0.0475027)
(0.000430398 0.000410638 -0.0486287)
(0.000452618 -0.000318238 -0.0478493)
(0.000567183 -0.000472572 -0.0480667)
(0.000248208 0.000140203 -0.0463052)
(0.000284087 0.000341413 -0.0473916)
(0.00077136 -0.00054367 -0.0481746)
(0.000589207 -0.000345663 -0.0488883)
(0.000389416 0.00019484 -0.0477612)
(0.000587144 -0.000364547 -0.0484064)
(0.000426722 0.000219127 -0.0491042)
(0.000481221 -0.000264224 -0.0483777)
(0.000452173 -0.000201956 -0.0469185)
(0.000608778 -0.000373679 -0.0488098)
(0.00017519 0.000337666 -0.0468037)
(0.000371505 0.000123222 -0.049012)
(0.000373455 -7.28095e-05 -0.0506082)
(0.000603798 -0.000387074 -0.0479783)
(0.000388154 0.000252978 -0.0473964)
(0.00135485 -0.000116332 -0.0485628)
(0.000265995 0.000327465 -0.0469599)
(0.000516903 -0.000507384 -0.0482466)
(0.000421688 -0.000368006 -0.0467377)
(0.000360282 0.000182784 -0.0486171)
(0.000604136 -0.000507181 -0.0481544)
(0.000506398 -1.0805e-05 -0.0497921)
(0.000426194 0.000320459 -0.0494648)
(0.000302166 -0.000242283 -0.0478796)
(0.000306527 0.000476878 -0.0468571)
(0.00038122 -0.000381619 -0.0481147)
(0.000647668 -0.000354226 -0.0491619)
(0.000326413 0.000302218 -0.047865)
(0.000414649 -0.000293451 -0.0486931)
(0.000462134 0.00029388 -0.0502027)
(0.000380703 0.000455418 -0.0480763)
(0.000323307 0.000266001 -0.0486355)
(0.000564448 -0.00032852 -0.04852)
(0.000653905 -0.000481013 -0.0489501)
(0.000606077 -0.000417566 -0.0488084)
(0.000477096 -0.00045033 -0.0482404)
(0.000488176 -0.000408563 -0.0478909)
(0.000619107 -0.000487551 -0.0485213)
(0.000577692 -0.000472114 -0.0499844)
(0.000407298 0.000452726 -0.0488492)
(0.000777663 -0.000619381 -0.0489098)
(0.000374067 -0.000432498 -0.0466014)
(0.000672397 -0.000381336 -0.0493675)
(0.000572841 -0.000434137 -0.0486995)
(0.000418079 -0.000372581 -0.047113)
(0.000332874 -0.000334875 -0.0489727)
(0.000337543 -1.57838e-05 -0.0474194)
(0.00036226 -0.00033707 -0.0481053)
(0.000634689 -0.000416959 -0.0488147)
(0.000371207 -0.000249345 -0.0459959)
(0.000339873 -0.000425861 -0.0478323)
(6.00892e-05 0.000281656 -0.0451544)
(0.000606468 -0.000501984 -0.0477464)
(0.000322377 0.000469764 -0.0475881)
(0.000414904 -0.000384473 -0.0493788)
(0.000716325 -0.000570105 -0.0484263)
(0.000263533 0.00025278 -0.047963)
(4.916e-05 0.000238048 -0.0421226)
(0.000618973 -0.000498173 -0.048943)
(0.000380969 0.000372144 -0.0495267)
(0.000553747 -0.000464835 -0.0480549)
(0.000389441 0.000401998 -0.0498354)
(0.000365129 0.000327948 -0.0498753)
(0.000571855 -0.000476499 -0.0496898)
(0.000354204 0.000313492 -0.0479723)
(0.000265775 -0.000366546 -0.0489885)
(0.000600014 4.91591e-05 -0.0497699)
(0.00026185 0.000183349 -0.0486487)
(0.00041061 -0.000241876 -0.0460447)
(0.000461406 -8.04911e-05 -0.0486608)
(0.000435134 -0.000436738 -0.0486612)
(0.000291721 1.14094e-05 -0.0456993)
(2.81605e-05 0.000295237 -0.0461941)
(0.000277504 0.000508282 -0.0501631)
(0.000342429 0.000346371 -0.0493883)
(0.000416682 6.86428e-05 -0.0506756)
(0.000189 0.000279372 -0.047674)
(0.000340205 -0.000235749 -0.0486155)
(6.58612e-05 0.000217857 -0.045641)
(0.000198495 0.000274759 -0.0476557)
(0.000608529 -0.000242787 -0.0501739)
(0.000615507 -0.000490319 -0.0499119)
(0.000316467 -0.000225078 -0.0460183)
(0.000245438 -0.000410796 -0.0465522)
(8.92635e-05 0.000410448 -0.0479889)
(-0.000185427 0.000180305 -0.0437052)
(0.000383811 -7.42834e-05 -0.0472877)
(0.000542196 4.60126e-06 -0.0508047)
(0.000395296 -7.11331e-05 -0.0492782)
(0.000412711 0.00021331 -0.0490923)
(0.000261467 0.000185915 -0.0503534)
(0.000154397 0.000295413 -0.0478271)
(-0.00011306 0.000202751 -0.0425441)
(0.000442996 0.000205242 -0.0471971)
(0.000388472 -4.30941e-05 -0.0508927)
(0.000533342 -0.000503912 -0.0481389)
(0.00025697 0.000318545 -0.0484473)
(0.000526496 1.59844e-05 -0.0501372)
(-0.000229643 0.000142187 -0.0391127)
(0.000133612 0.000268715 -0.0471725)
(0.000415802 0.00041044 -0.0510146)
(0.000288357 8.80945e-05 -0.0455411)
(0.000415296 -0.000234773 -0.0517403)
(0.000196299 0.00029856 -0.0470745)
(0.000239677 0.000212355 -0.0501839)
(0.000225092 -0.000344596 -0.0436595)
(0.000278204 0.000142716 -0.0479879)
(0.000260513 -0.0003204 -0.0498293)
(-0.000402953 0.000148186 -0.0480452)
(0.000390104 -5.00414e-05 -0.0471888)
(0.000296076 -6.72889e-05 -0.0452733)
(0.000369029 0.000266713 -0.050982)
(0.000335388 -6.79706e-05 -0.0465057)
(0.000284243 -0.000256218 -0.046289)
(0.000287627 0.000159269 -0.0474667)
(0.000315646 0.000242313 -0.0485795)
(0.000292089 0.000104303 -0.0466002)
(0.000411651 -0.00022745 -0.0464057)
(-0.000353225 -0.000343573 -0.0509329)
(0.00034035 0.000132158 -0.0487609)
(0.00025633 -0.00030564 -0.0456836)
(0.000285134 -0.000440502 -0.0490165)
(0.000246598 0.000104399 -0.0446505)
(0.000175294 0.000256031 -0.0482751)
(0.000150794 0.000203732 -0.0474435)
(1.27471e-05 0.000272382 -0.0454513)
(0.000377272 -9.57611e-05 -0.0505026)
(-0.000366064 0.000188558 -0.0513122)
(-3.46584e-05 0.00024472 -0.0460822)
(9.30493e-05 0.000258916 -0.0448618)
(0.000261111 -0.000316181 -0.0492036)
(0.000305643 -0.000436406 -0.0491718)
(0.000482176 0.000128575 -0.0523168)
(0.000280413 -0.000186344 -0.0444718)
(-0.000197765 0.000216097 -0.0391939)
(0.000378221 -6.24184e-05 -0.0476819)
(0.000651041 -0.000555568 -0.0509709)
(0.000302078 -0.000429961 -0.0512833)
(0.000388381 -4.88373e-05 -0.0468937)
(0.000713579 -0.000655084 -0.0512787)
(-0.00027683 0.00015269 -0.0422961)
(-0.000443863 -8.86012e-05 -0.050923)
(-0.000273027 0.000107503 -0.0362702)
(-0.000366897 -0.000105894 -0.0518262)
(0.000405317 -0.000288734 -0.051556)
(0.000326733 -0.000247163 -0.0472117)
(0.000146547 0.000379062 -0.0491581)
(0.000146214 0.000392588 -0.0506208)
(0.000240412 -0.000197245 -0.0433575)
(0.000238894 -0.000398797 -0.0467987)
(0.000347513 0.000437067 -0.0509201)
(0.000303052 7.81938e-05 -0.0487455)
(-1.67139e-06 0.000381742 -0.0483363)
(-5.9394e-05 0.000277514 -0.0483302)
(-0.000399525 0.000182397 -0.0517455)
(0.000218409 0.000136332 -0.0496882)
(4.73203e-05 0.000294211 -0.044543)
(-0.000224126 0.000281156 -0.0457783)
(-0.000100577 0.000298264 -0.04768)
(-0.000113578 0.000314119 -0.0474751)
(-0.000168863 0.000221631 -0.0474483)
(0.000259432 -0.000392296 -0.048296)
(-0.000278689 0.000124736 -0.0384424)
(0.000315619 -0.000228092 -0.0493807)
(-0.000314359 0.000167793 -0.0453745)
(0.00013894 0.000210837 -0.0473355)
(-0.000220017 0.000241114 -0.0393084)
(-0.00027212 0.000177028 -0.0450822)
(-0.000191639 0.000249363 -0.0419115)
(-0.000280634 0.000304526 -0.0450116)
(-0.000176406 0.000305167 -0.0470992)
(-3.65706e-05 0.000293249 -0.0470678)
(-0.000155439 0.000259912 -0.0413416)
(-0.000281875 0.000252978 -0.046008)
(-0.000194817 0.000394442 -0.0468295)
(-0.000167183 0.000265667 -0.0421193)
(-3.73459e-05 0.000297106 -0.0444891)
(-0.000442038 -0.000395195 -0.0520122)
(0.000279597 -0.000202218 -0.0475566)
(-0.000448795 -0.00028607 -0.0551784)
(-0.000169508 0.00027299 -0.0428763)
(0.000141319 0.000753999 -0.049955)
(-0.000399215 -0.00042833 -0.054161)
(0.000324386 0.000754473 -0.0525773)
(-0.000320398 0.000327556 -0.0452063)
(0.000434661 -0.000835161 -0.0509673)
(-3.25406e-05 0.000300155 -0.0452852)
(0.000427088 -0.000829713 -0.0512536)
(0.000401985 -0.000685258 -0.0516002)
(-0.000431365 0.000198868 -0.0445235)
(-0.000247265 0.000250767 -0.0424358)
(-0.000468509 0.000163064 -0.0425955)
(0.000920663 -0.000154268 -0.0528135)
(-5.76663e-07 -5.7605e-08 -0.023247)
(-0.000290618 0.000316245 -0.0502915)
(-0.000405433 0.000140127 -0.0402191)
(0.000224069 -0.000834249 -0.0489699)
(0.000186658 -0.000802118 -0.0491162)
(0.000123628 -0.000800244 -0.047999)
(0.000317934 -0.000891396 -0.0512817)
(0.000253301 -0.000793201 -0.0512742)
(0.000161108 0.000822588 -0.0508591)
(0.000212931 0.000862457 -0.0527308)
(0.000281954 -0.000903697 -0.0513772)
(0.00023788 0.000836062 -0.052622)
(0.000260762 -0.000903419 -0.0516995)
(-0.000577515 -0.000317724 -0.0527319)
(0.000746145 -0.000473651 -0.053072)
(0.000190072 -0.000828163 -0.0511164)
(0.000169284 0.000815987 -0.0532399)
(3.35539e-05 0.000793808 -0.0518255)
(-0.000556293 -0.000238257 -0.0525037)
(-0.000570057 -0.000202799 -0.0526985)
(0.000250757 0.000756658 -0.054267)
(-0.000552731 -0.000251294 -0.0530638)
(0.000241944 -0.000847601 -0.0516447)
(-0.000558908 -0.000178865 -0.0498286)
(-4.14816e-08 -2.57506e-08 -0.0215061)
(-0.000567661 -0.000209689 -0.0540315)
(0.000142799 -0.000782246 -0.0517722)
(-0.000527912 -0.000119146 -0.0517566)
(0.000167754 -0.000823447 -0.053577)
(0.000169148 -0.000830666 -0.0537272)
(-0.000597343 -0.000232785 -0.0550407)
(-0.000600537 -0.000225871 -0.0550739)
(9.85713e-05 -0.000796584 -0.0513968)
(-0.000475752 0.000254368 -0.047535)
(-0.000508738 -0.000107749 -0.0516467)
(0.000167482 -0.000828138 -0.0533635)
(1.86793e-05 0.000787003 -0.0526659)
(0.000140164 0.000794048 -0.0532565)
(-0.000144529 0.000696961 -0.0488081)
(-6.11017e-05 0.000753447 -0.0510646)
(-0.000599469 -0.000191028 -0.0553791)
(-0.000138442 0.000730078 -0.0500086)
(0.000110228 -0.000715207 -0.0517168)
(-9.88656e-05 0.000769328 -0.0523522)
(-0.000569059 -0.000167614 -0.054749)
(8.00157e-05 -0.000800268 -0.0519583)
(-0.000204869 0.000712848 -0.0507953)
(0.000786375 -0.00019534 -0.0540557)
(-0.000255175 0.000419541 -0.0506966)
(0.00064599 -0.000199389 -0.0513656)
(-4.43214e-05 -0.000615819 -0.0525294)
(-0.000277056 0.000639715 -0.0517833)
(0.000130642 -0.000812413 -0.0552782)
(-0.000193631 0.000675538 -0.0538082)
(-0.000537351 -0.000168865 -0.0552204)
(-0.000547239 -0.000106147 -0.054019)
(-0.000505454 -0.000108909 -0.0532386)
(0.000633898 -0.000161422 -0.0522621)
(-0.00020991 0.000681253 -0.0518678)
(-0.00021325 0.00062561 -0.0515851)
(-0.000196303 0.000629982 -0.0524055)
(0.000528064 -0.000174709 -0.0516233)
(-0.000380254 0.000573346 -0.051532)
(4.83374e-05 -0.000201592 -0.0508392)
(-0.000297683 0.000565976 -0.0505306)
(-0.000236532 -0.000238759 -0.0533127)
(7.18463e-05 -0.00019083 -0.0514181)
(-7.74078e-05 -0.000269848 -0.0534)
(0.000100014 -0.00024991 -0.0537487)
(-8.73279e-05 -0.000258034 -0.053265)
(-0.000216999 -0.000501553 -0.0513346)
(7.31114e-05 -0.000236543 -0.0535466)
(0.000471937 -0.000371532 -0.0537933)
(5.93677e-05 -0.000205916 -0.0526109)
(-0.000190424 -0.000541883 -0.0531784)
(-0.000416614 0.00052883 -0.0528044)
(-0.000451522 -6.11467e-05 -0.0539479)
(1.22338e-05 -0.000207211 -0.0520019)
(0.000555561 -9.75075e-05 -0.0535366)
(0.000505571 -9.7676e-05 -0.0528374)
(0.000438731 -5.51345e-05 -0.0524355)
(0.000393504 -0.000191953 -0.0514377)
(0.000378387 -0.000225056 -0.0516572)
(0.000497899 -7.14857e-05 -0.0530263)
(0.000410956 -0.000115715 -0.0514373)
(0.000312139 -0.000229069 -0.0513296)
(-0.000329962 2.51885e-05 -0.0501011)
(0.000398169 -7.76809e-05 -0.0517537)
(0.000491112 -8.50407e-05 -0.0532482)
(0.000396616 -0.000254789 -0.0528127)
(0.000537343 0.000306715 -0.0529697)
(0.00055024 -9.66897e-05 -0.0547235)
(0.000336325 -0.000262556 -0.0525243)
(-0.000255779 -0.000475367 -0.0551144)
(0.000376384 -0.000315365 -0.0537636)
(0.000370032 -0.00028004 -0.053279)
(0.000336292 -0.00018463 -0.0523385)
(0.000308441 -0.00022468 -0.0521401)
(0.000477397 7.20631e-05 -0.0536271)
(0.000371928 -0.000100206 -0.0520636)
(3.6306e-07 -0.000215501 -0.0543207)
(0.000517213 0.000312013 -0.0535909)
(0.000292183 -0.000127361 -0.0513538)
(0.000446433 -1.78227e-05 -0.0534753)
(0.000402136 0.000322691 -0.0517084)
(0.000340991 -0.0001454 -0.0523125)
(0.000453535 0.00029642 -0.0524254)
(0.000360926 -4.46378e-05 -0.0524341)
(-0.000129406 -0.000454598 -0.0547216)
(0.00028589 -4.54987e-06 -0.0509862)
(0.000323026 -0.000149189 -0.0525925)
(0.000446468 0.000358572 -0.0533308)
(-0.000336856 0.000515954 -0.053194)
(0.00042713 3.15785e-05 -0.0531777)
(0.000128055 -4.52441e-05 -0.0493326)
(0.000366184 -6.48313e-05 -0.053159)
(0.000332257 -6.31863e-05 -0.051439)
(0.000389057 0.000375821 -0.0523891)
(0.000379203 2.39072e-05 -0.0529346)
(0.000300681 -6.32075e-05 -0.0520472)
(-0.000345727 -0.000257301 -0.0524773)
(0.000360306 0.000381269 -0.0520647)
(0.00015369 -5.07803e-05 -0.0506473)
(-2.38386e-05 -9.7068e-06 -0.0225434)
(0.000304192 -0.000115243 -0.0533389)
(0.000195075 -6.77982e-05 -0.0514639)
(0.000209192 -0.00011238 -0.0524441)
(0.000217473 -0.000130681 -0.0528883)
(0.000287143 -9.71087e-05 -0.0536247)
(0.000271485 -8.81724e-05 -0.0533977)
(0.000210552 -0.000104482 -0.0529963)
(0.000219475 -1.44494e-06 -0.0524384)
(0.000121265 -4.70608e-05 -0.0515917)
(0.000367462 0.000410306 -0.0536112)
(0.000113597 -1.58058e-05 -0.0512482)
(0.000378214 0.000439562 -0.0540057)
(-0.000410308 -0.000156471 -0.0555651)
(-0.000441352 -1.84963e-05 -0.0541571)
(-0.000520792 0.00033677 -0.0530119)
(9.96566e-05 -1.35015e-05 -0.051358)
(-0.000543164 0.000278651 -0.0528285)
(0.000264724 -4.72718e-05 -0.0540686)
(-0.000288443 -0.000237783 -0.0535404)
(0.000133028 3.19161e-05 -0.0517548)
(-0.000544096 0.000292854 -0.0533412)
(-0.000542958 0.000278517 -0.0532328)
(0.000169858 2.04837e-05 -0.052751)
(-0.000523193 0.000275459 -0.0521637)
(0.000315634 -0.000108038 -0.0562172)
(-0.000403389 -8.61284e-05 -0.0530598)
(0.000180254 3.48442e-05 -0.0531968)
(0.000222989 -4.7423e-05 -0.0542431)
(0.000139017 -3.99487e-05 -0.0529913)
(0.0001614 3.50022e-05 -0.0528431)
(8.37055e-05 7.2366e-05 -0.0517655)
(0.000241617 -7.84129e-05 -0.0549103)
(-0.000594278 0.000162278 -0.0517178)
(0.000194863 6.00785e-05 -0.0535564)
(0.000177393 -4.09512e-05 -0.0537789)
(0.000167882 -3.78077e-05 -0.0538856)
(-0.0005413 0.00023129 -0.0517987)
(-0.000462054 0.000374959 -0.0547382)
(0.000115814 3.52107e-06 -0.0531547)
(0.000216591 1.89928e-05 -0.0544901)
(0.000287215 -1.88231e-05 -0.05589)
(8.87649e-05 1.96343e-05 -0.0529596)
(-0.000559484 0.000174577 -0.0529184)
(-0.000472516 0.000133273 -0.0524339)
(-0.000456962 0.000323209 -0.0532578)
(-0.000571405 0.000170515 -0.0516407)
(-0.000472278 0.000134121 -0.053024)
(-0.000559607 0.000164577 -0.0515796)
(-0.000469454 0.000225637 -0.0512215)
(-0.000545158 0.000232214 -0.0537365)
(-0.000571503 0.000101084 -0.0517926)
(-0.000569743 9.71147e-05 -0.0511773)
(-0.000570437 0.000128385 -0.0518232)
(-0.00056718 0.000144922 -0.0521755)
(-0.000575626 9.17928e-05 -0.0520901)
(-0.000295764 5.51216e-05 -0.0565135)
(-0.000512854 0.000203011 -0.0527695)
(1.85584e-05 6.33776e-05 -0.0532464)
(-0.000487058 0.000243002 -0.0522758)
(6.05837e-05 4.64074e-05 -0.053808)
(-0.000454372 8.67324e-05 -0.05376)
(-0.000545306 8.03208e-05 -0.0513935)
(-0.000542597 0.000104755 -0.0516396)
(-0.000571029 4.9445e-06 -0.0506765)
(-0.000563052 2.38768e-05 -0.0506985)
(-8.83828e-05 0.000112165 -0.0525452)
(-0.000586532 -3.38321e-05 -0.0508802)
(-0.000517418 7.52233e-05 -0.0509401)
(-0.000510083 0.000153585 -0.052539)
(-0.000568919 -3.12245e-05 -0.0504307)
(-0.000585347 -8.20607e-05 -0.0501976)
(-0.000566561 -0.000213015 -0.0492142)
(-0.000537682 4.21721e-05 -0.0531646)
(-0.000537763 4.35775e-05 -0.0532842)
(-0.000186529 0.000149164 -0.0542215)
(-0.000529043 3.0435e-05 -0.0525294)
(-0.000441234 0.000726277 -0.0509321)
(-0.000557876 -0.00010469 -0.0533368)
(-0.00056485 -0.000231644 -0.0518408)
(-0.000562914 -0.000301356 -0.0504571)
(-0.000563201 -0.000306277 -0.0505619)
(-0.000562271 -0.000214145 -0.0520465)
(-0.000558498 -9.59192e-05 -0.0538606)
(-0.000555128 -0.000388192 -0.0503149)
(-0.000562283 -0.000285165 -0.0516721)
(-0.000449095 0.000678938 -0.0535354)
(-0.000238534 0.00016169 -0.0558296)
(-0.000466865 0.000202313 -0.0528807)
(-0.000562981 -0.000284067 -0.051781)
(-0.000361251 0.000602324 -0.052817)
(-0.000527341 0.000239454 -0.053063)
(-0.000535552 -0.000124306 -0.0529446)
(-0.000407781 0.000532033 -0.0547078)
(-0.000546618 -0.000259643 -0.0524723)
(-0.000310801 0.00104589 -0.0531037)
(-0.000207397 0.00132106 -0.0508902)
(-0.00079031 0.000259363 -0.0522784)
(-0.000321685 0.000948626 -0.0540979)
(-0.000795551 0.000224678 -0.0524145)
(-0.000940067 0.000249067 -0.0528124)
(-0.000275175 0.00118962 -0.0546586)
(-0.000647464 -0.00104466 -0.0531769)
(1.88302e-05 0.00152792 -0.0530767)
(-0.00132813 0.000132055 -0.0541462)
(-0.00139883 0.00027347 -0.0541584)
(-0.000477102 -0.00118755 -0.0510658)
(-0.00121134 0.000249268 -0.056144)
(-0.00099782 0.00046553 -0.0573987)
(-0.00183591 -0.000128758 -0.0564027)
(-0.0014488 0.000191151 -0.054246)
(-0.00140258 5.1905e-06 -0.0537251)
(-0.00208862 -0.000138726 -0.054207)
(0.0014058 0.000255769 -0.0574525)
(-0.00192026 -0.000111655 -0.0571639)
(0.000377702 0.000751274 -0.0481073)
(-0.00257686 -0.000579803 -0.0586736)
(0.00241755 0.000147851 -0.0568081)
(0.00132664 0.00301961 -0.0558078)
(0.00091719 -0.00437026 0.305939)
(0.00111577 0.00307691 -0.0606353)
(-0.00307441 -0.0015393 0.461863)
(0.000948492 0.00226321 0.423821)
(-0.00325427 -0.00155805 0.4614)
(-0.00131026 -0.00300237 0.324273)
(0.000521625 0.00381661 0.436981)
(-0.00559915 -0.00199539 0.471742)
(-0.000225779 0.00698687 0.452933)
(-0.0051277 -0.00224557 0.469503)
(-0.00383334 -0.00552305 0.330751)
(-0.00416622 -0.00504246 0.344811)
(-0.00408653 -0.00494192 0.345602)
(-0.00511098 -0.00756299 0.343951)
(-0.00468007 0.0101288 0.474081)
(-0.0102119 0.00109932 0.458613)
(-0.00571058 -0.00707994 0.339184)
(-0.00583555 -0.00473835 0.3403)
(-0.00479239 -0.00258619 0.45277)
(0.00356597 0.00329227 -0.0616712)
(-0.00879721 -0.00169759 0.452004)
(-0.00906541 0.00190224 0.452779)
(-0.00875677 0.00182561 0.367773)
(-0.00488092 0.00203752 0.462699)
(-0.00916737 0.0188872 0.439639)
(-0.0119706 -0.00479587 0.373393)
(-0.00964772 0.010551 0.447892)
(-0.0107945 -0.00686398 0.371016)
(0.00402968 0.00384409 -0.0662741)
)


// ************************************************************************* //
