/*--------------------------------*- C++ -*----------------------------------*\
| =========                 |                                                 |
| \\      /  F ield         | OpenFOAM: The Open Source CFD Toolbox           |
|  \\    /   O peration     | Version:  plus.master.MPPICInterFoam            |
|   \\  /    A nd           | Web:      www.OpenFOAM.com                      |
|    \\/     M anipulation  |                                                 |
\*---------------------------------------------------------------------------*/
FoamFile
{
    version     2.0;
    format      ascii;
    class       surfaceScalarField;
    location    "0.6";
    object      phi;
}
// * * * * * * * * * * * * * * * * * * * * * * * * * * * * * * * * * * * * * //

dimensions      [0 3 -1 0 0 0 0];

internalField   nonuniform List<scalar> 
34004
(
-2.17817e-11
5.40605e-11
2.23182e-08
-5.24342e-11
-4.82969e-11
3.88947e-11
2.77578e-08
-4.93734e-11
-6.46348e-11
3.31788e-11
3.21313e-08
-4.08908e-11
-8.13144e-11
3.09351e-11
3.63105e-08
-4.30069e-11
-1.08888e-10
2.86411e-11
4.04806e-08
-4.22542e-11
-1.46963e-10
2.31604e-11
4.47483e-08
-3.53185e-11
-1.84469e-10
1.24316e-11
4.91889e-08
-2.20011e-11
-5.6469e-12
5.38434e-08
3.33356e-12
-2.06684e-10
-3.21729e-11
4.44252e-11
2.23254e-08
-5.51947e-11
2.86279e-11
2.77654e-08
-6.7948e-11
2.43188e-11
3.21413e-08
-8.59862e-11
2.45084e-11
3.63231e-08
-1.17044e-10
2.56162e-11
4.04961e-08
-1.61092e-10
2.3746e-11
4.47654e-08
-2.06491e-10
1.49305e-11
4.9204e-08
-2.86312e-12
5.38507e-08
-2.33109e-10
-1.97563e-11
3.10456e-11
2.23314e-08
-3.60907e-11
1.58497e-11
2.77743e-08
-4.27974e-11
1.15494e-11
3.21519e-08
-5.3171e-11
1.1535e-11
3.63358e-08
-7.40316e-11
1.27077e-11
4.05112e-08
-1.06322e-10
1.21054e-11
4.4782e-08
-1.4248e-10
6.88754e-12
4.92194e-08
-4.33093e-12
5.38599e-08
-1.67779e-10
-8.29155e-12
7.21475e-12
2.23352e-08
-2.04095e-11
-1.89116e-12
2.77814e-08
-2.43074e-11
-5.4292e-12
3.21608e-08
-3.09609e-11
-6.973e-12
3.63464e-08
-4.65635e-11
-7.57961e-12
4.05236e-08
-7.30262e-11
-7.97017e-12
4.47958e-08
-1.04749e-10
-8.18456e-12
4.92325e-08
-7.66341e-12
5.38694e-08
-1.29373e-10
-1.20965e-11
-1.14897e-11
2.23385e-08
-2.98345e-11
-1.49437e-11
2.77882e-08
-4.07774e-11
-1.6663e-11
3.21689e-08
-5.62546e-11
-1.80396e-11
3.63563e-08
-8.2395e-11
-1.87306e-11
4.05355e-08
-1.1974e-10
-1.7938e-11
4.48086e-08
-1.60039e-10
-1.40563e-11
4.92434e-08
-5.95314e-12
5.38739e-08
-1.86919e-10
-2.01574e-11
-2.14648e-11
2.23409e-08
-4.62733e-11
-1.99672e-11
2.77931e-08
-6.6142e-11
-1.93942e-11
3.21748e-08
-9.19527e-11
-1.90543e-11
3.63632e-08
-1.29664e-10
-1.81867e-11
4.05433e-08
-1.78302e-10
-1.57879e-11
4.48166e-08
-2.26143e-10
-1.06911e-11
4.92499e-08
-1.87563e-12
5.38761e-08
-2.52534e-10
-2.40431e-11
2.23424e-08
-2.64556e-11
-5.32181e-11
2.77962e-08
-2.17708e-11
-7.49484e-11
3.21781e-08
-1.98881e-11
-1.00989e-10
3.63665e-08
-1.89837e-11
-1.36793e-10
4.05463e-08
-1.80151e-11
-1.811e-10
4.48188e-08
-1.57153e-11
-2.22639e-10
4.9251e-08
-1.08905e-11
5.38764e-08
-3.39163e-12
-2.40788e-10
-1.2426e-11
6.05524e-11
2.23103e-08
-5.94136e-11
-4.73354e-11
4.57512e-11
2.77511e-08
-5.35472e-11
-7.44761e-11
4.09987e-11
3.21225e-08
-4.90406e-11
-1.04138e-10
3.93833e-11
3.63042e-08
-4.80083e-11
-1.41661e-10
3.78868e-11
4.048e-08
-4.66229e-11
-1.86607e-10
3.28573e-11
4.47505e-08
-3.91788e-11
-2.26768e-10
2.08233e-11
4.91824e-08
-2.51482e-11
3.01887e-14
5.38083e-08
-2.3255e-12
-2.44051e-10
-1.44831e-11
5.27703e-11
2.23156e-08
-4.67528e-11
3.6334e-11
2.77577e-08
-7.1011e-11
3.19016e-11
3.21303e-08
-9.95748e-11
3.22285e-11
3.63137e-08
-1.37534e-10
3.35132e-11
4.04916e-08
-1.83271e-10
3.14494e-11
4.47637e-08
-2.25379e-10
2.14618e-11
4.91944e-08
9.92548e-13
5.38148e-08
-2.46109e-10
-3.48712e-12
3.68533e-11
2.23204e-08
-2.77308e-11
2.20553e-11
2.77647e-08
-4.43284e-11
1.80972e-11
3.2139e-08
-6.30771e-11
1.8193e-11
3.63244e-08
-8.83825e-11
1.93292e-11
4.05046e-08
-1.1982e-10
1.82657e-11
4.47784e-08
-1.50021e-10
1.17507e-11
4.92086e-08
-1.7414e-12
5.38248e-08
-1.67609e-10
4.62218e-12
1.23939e-11
2.23247e-08
-1.51968e-11
3.80928e-12
2.77714e-08
-2.75073e-11
4.61276e-13
3.21473e-08
-4.1207e-11
-8.91238e-13
3.6335e-08
-6.03884e-11
-1.45494e-12
4.05175e-08
-8.53688e-11
-2.19418e-12
4.47929e-08
-1.10981e-10
-3.3696e-12
4.92225e-08
-4.59178e-12
5.3834e-08
-1.28151e-10
-2.57916e-12
-6.74994e-12
2.23299e-08
-2.60594e-11
-1.0557e-11
2.77779e-08
-4.32758e-11
-1.23478e-11
3.21555e-08
-6.36875e-11
-1.38735e-11
3.63455e-08
-9.1551e-11
-1.48756e-11
4.05307e-08
-1.26429e-10
-1.46769e-11
4.48076e-08
-1.60579e-10
-1.17865e-11
4.92352e-08
-4.84323e-12
5.3839e-08
-1.81024e-10
-1.28634e-11
-1.77587e-11
2.23345e-08
-4.43593e-11
-1.69292e-11
2.77828e-08
-6.99679e-11
-1.67249e-11
3.21613e-08
-1.00665e-10
-1.68385e-11
3.63526e-08
-1.40991e-10
-1.65804e-11
4.05392e-08
-1.89089e-10
-1.49929e-11
4.48166e-08
-2.33443e-10
-1.08022e-11
4.92425e-08
-3.24267e-12
5.3841e-08
-2.55579e-10
-2.02113e-11
2.23381e-08
-2.36316e-11
-5.54935e-11
2.77858e-08
-1.93715e-11
-8.4262e-11
3.21643e-08
-1.76131e-11
-1.17862e-10
3.63557e-08
-1.67115e-11
-1.60758e-10
4.05421e-08
-1.56988e-11
-2.10634e-10
4.48187e-08
-1.34489e-11
-2.55002e-10
4.92426e-08
-8.94641e-12
5.3838e-08
-1.98677e-12
-2.73551e-10
-6.49397e-12
6.89975e-11
2.23005e-08
-6.91717e-11
-4.35991e-11
5.20594e-11
2.77446e-08
-5.90365e-11
-7.41312e-11
4.69707e-11
3.21161e-08
-5.38033e-11
-1.08712e-10
4.54759e-11
3.63008e-08
-5.19457e-11
-1.51014e-10
4.42505e-11
4.04814e-08
-4.9852e-11
-1.98979e-10
3.92008e-11
4.47535e-08
-4.32147e-11
-2.40971e-10
2.61423e-11
4.91752e-08
-2.83893e-11
3.23284e-12
5.37713e-08
-3.98105e-12
-2.58885e-10
-1.12537e-11
5.78524e-11
2.23032e-08
-4.26157e-11
4.19898e-11
2.77484e-08
-6.91315e-11
3.79766e-11
3.21204e-08
-1.00728e-10
3.87767e-11
3.63061e-08
-1.40859e-10
4.04949e-11
4.04879e-08
-1.87145e-10
3.85028e-11
4.47609e-08
-2.28488e-10
2.76823e-11
4.91821e-08
5.26213e-12
5.37755e-08
-2.48024e-10
-1.89199e-12
4.12998e-11
2.23081e-08
-2.41411e-11
2.73957e-11
2.77531e-08
-4.10084e-11
2.40003e-11
3.2126e-08
-6.01704e-11
2.46869e-11
3.63131e-08
-8.43248e-11
2.63489e-11
4.04964e-08
-1.12388e-10
2.54089e-11
4.47707e-08
-1.37802e-10
1.81136e-11
4.91923e-08
2.5666e-12
5.37845e-08
-1.50987e-10
4.87945e-12
1.69468e-11
2.23136e-08
-1.19694e-11
8.70357e-12
2.77585e-08
-2.26847e-11
5.67154e-12
3.21326e-08
-3.42208e-11
4.77826e-12
3.63217e-08
-4.90001e-11
4.60402e-12
4.05074e-08
-6.69778e-11
3.78201e-12
4.47836e-08
-8.43094e-11
1.4947e-12
4.92051e-08
-2.27473e-12
5.37935e-08
-9.51636e-11
-2.35147e-12
-2.40249e-12
2.2321e-08
-2.20338e-11
-6.53825e-12
2.77643e-08
-3.61721e-11
-8.42756e-12
3.21399e-08
-5.23529e-11
-9.87433e-12
3.63316e-08
-7.3228e-11
-1.08416e-11
4.05203e-08
-9.81928e-11
-1.10099e-11
4.47984e-08
-1.21578e-10
-9.25502e-12
4.92179e-08
-4.37555e-12
5.37981e-08
-1.34759e-10
-1.26878e-11
-1.43644e-11
2.23285e-08
-3.99953e-11
-1.43836e-11
2.77694e-08
-6.21926e-11
-1.45922e-11
3.21458e-08
-8.85577e-11
-1.49166e-11
3.63393e-08
-1.22205e-10
-1.48712e-11
4.05301e-08
-1.61311e-10
-1.36774e-11
4.48094e-08
-1.96458e-10
-1.00861e-11
4.9227e-08
-3.27336e-12
5.38002e-08
-2.13023e-10
-2.00549e-11
2.23349e-08
-2.17653e-11
-5.16449e-11
2.77727e-08
-1.82926e-11
-7.81337e-11
3.21491e-08
-1.68623e-11
-1.09434e-10
3.63434e-08
-1.60282e-11
-1.48974e-10
4.05351e-08
-1.49777e-11
-1.94548e-10
4.48143e-08
-1.27262e-11
-2.35043e-10
4.92299e-08
-8.34095e-12
5.37982e-08
-1.53941e-12
-2.53286e-10
-1.41569e-11
7.40959e-11
2.22972e-08
-7.44949e-11
-4.44404e-11
5.5939e-11
2.77295e-08
-6.24305e-11
-6.79996e-11
5.0482e-11
3.21008e-08
-5.65383e-11
-9.54741e-11
4.89273e-11
3.62881e-08
-5.39925e-11
-1.29444e-10
4.77544e-11
4.04717e-08
-5.12058e-11
-1.67586e-10
4.26305e-11
4.47437e-08
-4.40699e-11
-2.00222e-10
2.90531e-11
4.91555e-08
-2.86619e-11
5.15524e-12
5.37259e-08
-3.5397e-12
-2.12499e-10
-2.08867e-11
6.2292e-11
2.23011e-08
-4.42753e-11
4.60032e-11
2.77307e-08
-6.30147e-11
4.19913e-11
3.21018e-08
-8.65284e-11
4.30281e-11
3.62893e-08
-1.17125e-10
4.50654e-11
4.04733e-08
-1.52467e-10
4.32198e-11
4.47457e-08
-1.83514e-10
3.20308e-11
4.91579e-08
8.5183e-12
5.37284e-08
-1.96774e-10
-1.15323e-11
4.65683e-11
2.23046e-08
-2.59701e-11
3.21617e-11
2.77327e-08
-3.4466e-11
2.86504e-11
3.21038e-08
-4.44754e-11
2.98424e-11
3.62914e-08
-5.71927e-11
3.20707e-11
4.04752e-08
-7.15448e-11
3.13676e-11
4.47477e-08
-8.33636e-11
2.34234e-11
4.9161e-08
5.91624e-12
5.37342e-08
-8.69805e-11
-3.46139e-12
2.35973e-11
2.23093e-08
-1.17902e-11
1.38265e-11
2.77364e-08
-1.34511e-11
1.06932e-11
3.21081e-08
-1.42508e-11
1.02944e-11
3.62971e-08
-1.4893e-11
1.08371e-11
4.04824e-08
-1.54607e-11
1.02987e-11
4.4756e-08
-1.52594e-11
7.12226e-12
4.91695e-08
9.73825e-13
5.37421e-08
-1.55338e-11
-6.35998e-12
4.46781e-12
2.23156e-08
-1.69721e-11
-1.76432e-12
2.77417e-08
-2.07861e-11
-4.23015e-12
3.21145e-08
-2.42339e-11
-5.47016e-12
3.63059e-08
-2.7844e-11
-5.95778e-12
4.04938e-08
-3.14901e-11
-6.05106e-12
4.47691e-08
-3.36984e-11
-5.25705e-12
4.91807e-08
-2.69839e-12
5.37455e-08
-3.40114e-11
-1.20477e-11
-8.63448e-12
2.23227e-08
-2.94167e-11
-1.11517e-11
2.77473e-08
-4.09223e-11
-1.21971e-11
3.21211e-08
-5.36278e-11
-1.26759e-11
3.63142e-08
-6.85658e-11
-1.25712e-11
4.05047e-08
-8.45402e-11
-1.1555e-11
4.47816e-08
-9.6919e-11
-8.74129e-12
4.9191e-08
-3.43221e-12
5.37472e-08
-9.98132e-11
-1.4963e-11
2.23286e-08
-1.82729e-11
-3.68393e-11
2.77516e-08
-1.70458e-11
-5.35402e-11
3.21259e-08
-1.64156e-11
-7.23301e-11
3.63202e-08
-1.58181e-11
-9.46194e-11
4.05125e-08
-1.47679e-11
-1.1903e-10
4.47903e-08
-1.2485e-11
-1.3941e-10
4.91978e-08
-8.10021e-12
5.37456e-08
-1.36077e-12
-1.45612e-10
-8.42738e-12
7.74183e-11
2.22873e-08
-7.68949e-11
-3.2253e-11
5.75269e-11
2.77076e-08
-6.36441e-11
-4.77138e-11
5.15565e-11
3.20768e-08
-5.70516e-11
-6.21708e-11
4.97754e-11
3.62615e-08
-5.43045e-11
-7.61925e-11
4.85409e-11
4.04412e-08
-5.14534e-11
-8.80663e-11
4.34129e-11
4.47067e-08
-4.43178e-11
-9.3613e-11
2.98809e-11
4.91079e-08
-2.89681e-11
6.07728e-12
5.36609e-08
-3.98259e-12
-8.72452e-11
-1.16576e-11
6.60137e-11
2.22896e-08
-2.96737e-11
4.81943e-11
2.77068e-08
-4.13135e-11
4.3571e-11
3.20755e-08
-5.28462e-11
4.43651e-11
3.62597e-08
-6.44554e-11
4.62189e-11
4.0439e-08
-7.45475e-11
4.42447e-11
4.47046e-08
-7.96417e-11
3.30521e-11
4.9107e-08
9.62251e-12
5.36633e-08
-7.54848e-11
-1.12192e-12
5.17419e-11
2.22891e-08
-1.12939e-11
3.57612e-11
2.77062e-08
-1.46112e-11
3.17554e-11
3.20746e-08
-1.49245e-11
3.31494e-11
3.62577e-08
-1.12856e-11
3.55202e-11
4.04351e-08
-3.00123e-12
3.48295e-11
4.46993e-08
9.41177e-12
2.65166e-11
4.91031e-08
8.44559e-12
5.36678e-08
2.01325e-11
8.86892e-12
3.1105e-11
2.22901e-08
4.69512e-12
1.89016e-11
2.77083e-08
7.26652e-12
1.52711e-11
3.20776e-08
1.67136e-11
1.51972e-11
3.62604e-08
3.28869e-11
1.62317e-11
4.04383e-08
5.53514e-11
1.58254e-11
4.4703e-08
7.99837e-11
1.17678e-11
4.91075e-08
3.28822e-12
5.36728e-08
9.75311e-11
9.44232e-12
1.2874e-11
2.22934e-08
4.31332e-12
3.69429e-12
2.77129e-08
5.73883e-12
7.05699e-13
3.20832e-08
1.41473e-11
-4.25418e-13
3.62678e-08
2.93261e-11
-3.32085e-13
4.04479e-08
5.09905e-11
-3.02142e-13
4.4714e-08
7.51989e-11
-6.45467e-13
4.91168e-08
-8.91462e-13
5.36754e-08
9.24493e-11
7.86265e-12
-1.58598e-12
2.22983e-08
-2.33749e-12
-6.84647e-12
2.77189e-08
-6.43229e-12
-8.5855e-12
3.209e-08
-6.11875e-12
-9.04922e-12
3.62772e-08
-3.3639e-13
-8.66938e-12
4.046e-08
1.12182e-11
-7.62244e-12
4.47277e-08
2.67544e-11
-5.53697e-12
4.91283e-08
-2.34786e-12
5.36779e-08
4.04394e-11
9.18869e-12
2.23015e-08
-1.47575e-11
-3.83493e-12
2.7724e-08
-1.54017e-11
-1.17152e-11
3.20961e-08
-1.54623e-11
-1.59027e-11
3.62852e-08
-1.51911e-11
-1.54242e-11
4.04704e-08
-1.43597e-11
-9.58678e-12
4.47395e-08
-1.227e-11
1.16296e-12
4.91374e-08
-8.09582e-12
5.36789e-08
-1.35669e-12
9.85954e-12
1.24969e-11
7.84849e-11
2.22572e-08
-7.85808e-11
-1.05971e-11
5.71712e-11
2.76849e-08
-6.32855e-11
-2.45227e-11
5.07877e-11
3.20508e-08
-5.59827e-11
-3.22534e-11
4.87357e-11
3.62281e-08
-5.33073e-11
-3.23672e-11
4.73689e-11
4.03971e-08
-5.09437e-11
-2.37914e-11
4.23506e-11
4.46502e-08
-4.45262e-11
-8.02793e-12
2.94002e-11
4.90401e-08
-2.99387e-11
6.69562e-12
5.35882e-08
-5.4565e-12
6.60549e-12
1.38329e-11
6.64897e-11
2.2253e-08
-4.59844e-12
4.82374e-11
2.76827e-08
-1.62201e-11
4.32645e-11
3.20484e-08
-2.27666e-11
4.35507e-11
3.62246e-08
-2.22233e-11
4.46857e-11
4.03925e-08
-1.35213e-11
4.22032e-11
4.46453e-08
1.73442e-12
3.11605e-11
4.90369e-08
9.59596e-12
5.35906e-08
1.36188e-11
2.30778e-11
5.38327e-11
2.22475e-08
1.02094e-11
3.76604e-11
2.76803e-08
4.11872e-12
3.39154e-11
3.20453e-08
5.48407e-12
3.46837e-11
3.62196e-08
1.58224e-11
3.68667e-11
4.0385e-08
3.5238e-11
3.59592e-11
4.46362e-08
5.93012e-11
2.75184e-11
4.90302e-08
9.33215e-12
5.35926e-08
7.7405e-11
3.06825e-11
3.65741e-11
2.22454e-08
2.35728e-11
2.31189e-11
2.76804e-08
2.53513e-11
1.93546e-11
3.20457e-08
3.5343e-11
1.95163e-11
3.622e-08
5.68799e-11
2.08778e-11
4.03851e-08
8.8931e-11
2.04563e-11
4.46365e-08
1.24126e-10
1.55739e-11
4.90318e-08
5.19985e-12
5.35972e-08
1.46484e-10
3.18205e-11
1.94836e-11
2.22474e-08
2.56079e-11
8.98952e-12
2.76837e-08
2.78349e-11
5.68679e-12
3.20499e-08
3.83605e-11
5.19997e-12
3.62259e-08
6.04583e-11
5.77629e-12
4.03933e-08
9.30124e-11
5.80096e-12
4.46461e-08
1.28522e-10
4.2723e-12
4.90401e-08
1.20507e-12
5.35997e-08
1.50868e-10
3.14606e-11
3.43664e-12
2.22516e-08
2.3211e-11
-2.5387e-12
2.76891e-08
2.16293e-11
-4.3016e-12
3.20568e-08
2.71701e-11
-4.40543e-12
3.62356e-08
4.2633e-11
-3.65986e-12
4.04063e-08
6.74582e-11
-2.65042e-12
4.46613e-08
9.59571e-11
-1.62151e-12
4.90531e-08
-4.9337e-13
5.36027e-08
1.15456e-10
3.33964e-11
2.22544e-08
-1.41648e-11
2.53868e-11
2.7694e-08
-1.41e-11
2.31916e-11
3.20633e-08
-1.4073e-11
2.78224e-11
3.62446e-08
-1.40233e-11
4.21228e-11
4.04183e-08
-1.35027e-11
6.54017e-11
4.46752e-08
-1.17176e-11
9.18212e-11
4.90646e-08
-7.75346e-12
5.36039e-08
-1.31554e-12
1.1011e-10
2.10742e-11
7.43441e-11
2.22209e-08
-7.68435e-11
-3.29605e-12
5.47149e-11
2.76634e-08
-6.10167e-11
-1.96898e-11
4.86506e-11
3.20269e-08
-5.37266e-11
-2.99717e-11
4.63489e-11
3.6197e-08
-5.1007e-11
-3.23032e-11
4.46083e-11
4.03555e-08
-4.86676e-11
-2.61577e-11
3.95541e-11
4.45967e-08
-4.25594e-11
-1.44918e-11
2.74023e-11
4.89767e-08
-2.87148e-11
6.68524e-12
5.35216e-08
-5.44217e-12
-6.49182e-12
1.93768e-11
6.18596e-11
2.22111e-08
-5.12556e-13
4.61568e-11
2.76591e-08
-1.46615e-11
4.16184e-11
3.20229e-08
-2.40681e-11
4.14331e-11
3.61918e-08
-2.65058e-11
4.19467e-11
4.03487e-08
-2.12391e-11
3.91441e-11
4.45892e-08
-1.08072e-11
2.87333e-11
4.89716e-08
9.02704e-12
5.35232e-08
-4.04204e-12
2.21767e-11
5.25242e-11
2.22032e-08
7.10234e-12
3.77081e-11
2.76539e-08
-2.37357e-12
3.42757e-11
3.20171e-08
-6.14198e-12
3.51341e-11
3.61838e-08
-2.25009e-12
3.71589e-11
4.0338e-08
9.4672e-12
3.61632e-11
4.45772e-08
2.49241e-11
2.79285e-11
4.89627e-08
1.03255e-11
5.35242e-08
3.4196e-11
2.66235e-11
3.93129e-11
2.22005e-08
1.74267e-11
2.58816e-11
2.76516e-08
1.56356e-11
2.24242e-11
3.20142e-08
2.11917e-11
2.31225e-11
3.61805e-08
3.63137e-11
2.5061e-11
4.03342e-08
6.02881e-11
2.48722e-11
4.45735e-08
8.67555e-11
1.94212e-11
4.89609e-08
7.37667e-12
5.35268e-08
1.02267e-10
2.81187e-11
2.40499e-11
2.2203e-08
2.15567e-11
1.32387e-11
2.7653e-08
2.23715e-11
1.03153e-11
3.20161e-08
3.06257e-11
1.07135e-11
3.61841e-08
4.89572e-11
1.21837e-11
4.03399e-08
7.64069e-11
1.25266e-11
4.45807e-08
1.0598e-10
9.8949e-12
4.89672e-08
3.72152e-12
5.35284e-08
1.23074e-10
2.91842e-11
6.19838e-12
2.22087e-08
2.33351e-11
8.47149e-13
2.76575e-08
2.37618e-11
-3.37024e-13
3.20219e-08
3.03768e-11
2.81567e-13
3.61934e-08
4.61151e-11
1.78978e-12
4.0353e-08
7.00253e-11
3.06286e-12
4.45965e-08
9.58758e-11
3.21738e-12
4.8981e-08
1.77031e-12
5.35318e-08
1.10894e-10
3.16009e-11
2.22135e-08
-1.60224e-11
2.8914e-11
2.76615e-08
-1.38901e-11
3.21276e-11
3.20279e-08
-1.32701e-11
4.21407e-11
3.6202e-08
-1.31428e-11
6.19247e-11
4.03651e-08
-1.27845e-11
9.00999e-11
4.4611e-08
-1.12365e-11
1.19296e-10
4.89932e-08
-7.51993e-12
5.35334e-08
-1.33213e-12
1.3504e-10
7.12137e-12
6.35078e-11
2.21993e-08
-6.69093e-11
-1.69749e-11
4.93074e-11
2.76412e-08
-5.56925e-11
-3.42948e-11
4.46547e-11
3.20036e-08
-4.98679e-11
-4.88653e-11
4.23218e-11
3.61698e-08
-4.699e-11
-5.98595e-11
4.00598e-11
4.03219e-08
-4.3875e-11
-6.65193e-11
3.48654e-11
4.45549e-08
-3.72349e-11
-6.86132e-11
2.37479e-11
4.89256e-08
-2.39227e-11
5.56657e-12
5.34596e-08
-3.0317e-12
-6.6849e-11
-4.07511e-12
5.29511e-11
2.21903e-08
-2.36599e-11
4.13056e-11
2.76343e-08
-3.78805e-11
3.78673e-11
3.19969e-08
-5.08251e-11
3.75502e-11
3.61619e-08
-6.17525e-11
3.76908e-11
4.03126e-08
-6.94387e-11
3.48978e-11
4.45454e-08
-7.2366e-11
2.56108e-11
4.89187e-08
8.30062e-12
5.34596e-08
-7.03228e-11
-7.3365e-12
4.90815e-11
2.21827e-08
-2.4089e-11
3.56308e-11
2.76261e-08
-3.4284e-11
3.24205e-11
3.19874e-08
-4.26969e-11
3.35584e-11
3.61499e-08
-4.86921e-11
3.57371e-11
4.02976e-08
-5.13291e-11
3.50606e-11
4.4529e-08
-4.98047e-11
2.74573e-11
4.89061e-08
1.07957e-11
5.34598e-08
-4.61004e-11
-3.16661e-12
4.10254e-11
2.218e-08
-1.43737e-11
2.71351e-11
2.76211e-08
-1.80523e-11
2.38e-11
3.19811e-08
-1.75881e-11
2.53165e-11
3.6142e-08
-1.19979e-11
2.81354e-11
4.02879e-08
-9.77999e-13
2.85298e-11
4.45183e-08
1.34486e-11
2.2852e-11
4.88979e-08
9.49941e-12
5.34601e-08
2.32359e-11
2.14636e-12
2.83674e-11
2.21818e-08
-5.20453e-12
1.65943e-11
2.76207e-08
-5.45702e-12
1.38927e-11
3.19809e-08
-2.53087e-13
1.56135e-11
3.61423e-08
1.17937e-11
1.83358e-11
4.02893e-08
3.03815e-11
1.93846e-11
4.45205e-08
5.17848e-11
1.59009e-11
4.88995e-08
6.65215e-12
5.34578e-08
6.69092e-11
9.12537e-12
9.28536e-12
2.21869e-08
4.7424e-12
3.62049e-12
2.76245e-08
5.94644e-12
3.12631e-12
3.1986e-08
1.38997e-11
4.59505e-12
3.61501e-08
2.88364e-11
7.17396e-12
4.03008e-08
5.0248e-11
9.01803e-12
4.45348e-08
7.36496e-11
8.42095e-12
4.89118e-08
4.32341e-12
5.34603e-08
8.91247e-11
1.58428e-11
2.2192e-08
-1.68527e-11
1.61582e-11
2.76284e-08
-1.3843e-11
2.38772e-11
3.19908e-08
-1.29184e-11
3.86222e-11
3.61581e-08
-1.26566e-11
6.27204e-11
4.0312e-08
-1.22333e-11
9.45779e-11
4.45481e-08
-1.07045e-11
1.26953e-10
4.8923e-08
-7.12679e-12
5.34617e-08
-1.18311e-12
1.45842e-10
-5.99321e-12
5.08097e-11
2.21876e-08
-5.11234e-11
-3.31064e-11
4.15779e-11
2.76213e-08
-4.76554e-11
-5.24923e-11
3.85016e-11
3.19826e-08
-4.4157e-11
-7.08802e-11
3.64127e-11
3.61466e-08
-4.15811e-11
-8.87024e-11
3.39664e-11
4.0295e-08
-3.8059e-11
-1.04265e-10
2.89877e-11
4.45216e-08
-3.13171e-11
-1.13515e-10
1.92507e-11
4.88809e-08
-1.91237e-11
3.97175e-12
5.33967e-08
-1.08887e-12
-1.11678e-10
-2.11752e-11
4.43597e-11
2.21823e-08
-4.54869e-11
3.45319e-11
2.76129e-08
-6.22938e-11
3.15139e-11
3.19733e-08
-7.93256e-11
3.09461e-11
3.61365e-08
-9.75823e-11
3.07197e-11
4.02845e-08
-1.15009e-10
2.81106e-11
4.45118e-08
-1.26193e-10
2.03721e-11
4.88744e-08
6.44213e-12
5.3397e-08
-1.25205e-10
-2.58061e-11
4.54082e-11
2.21755e-08
-5.03167e-11
3.16376e-11
2.7603e-08
-6.64129e-11
2.82063e-11
3.19611e-08
-8.23403e-11
2.90604e-11
3.61211e-08
-9.91822e-11
3.10477e-11
4.02655e-08
-1.14806e-10
3.05439e-11
4.44912e-08
-1.24024e-10
2.39304e-11
4.88582e-08
9.49895e-12
5.33956e-08
-1.21506e-10
-2.04009e-11
4.24503e-11
2.21714e-08
-4.18769e-11
2.71815e-11
2.75964e-08
-5.42675e-11
2.36663e-11
3.19523e-08
-6.46535e-11
2.54804e-11
3.61093e-08
-7.33989e-11
2.88672e-11
4.02502e-08
-7.88178e-11
2.97587e-11
4.44735e-08
-7.81284e-11
2.41225e-11
4.88434e-08
9.90729e-12
5.3393e-08
-7.00844e-11
-1.08749e-11
3.28722e-11
2.21703e-08
-2.8199e-11
1.9658e-11
2.75949e-08
-3.68276e-11
1.70303e-11
3.19504e-08
-4.19384e-11
1.95258e-11
3.61068e-08
-4.28144e-11
2.34917e-11
4.02469e-08
-3.83123e-11
2.52673e-11
4.44695e-08
-2.81128e-11
2.10651e-11
4.88387e-08
9.07761e-12
5.33884e-08
-1.65144e-11
1.5233e-12
1.37063e-11
2.21726e-08
-9.6838e-12
6.81212e-12
2.7598e-08
-1.3196e-11
6.1199e-12
3.19547e-08
-1.18596e-11
8.77191e-12
3.61129e-08
-4.0144e-12
1.23469e-11
4.02555e-08
1.04176e-11
1.47744e-11
4.44798e-08
2.88967e-11
1.35159e-11
4.88472e-08
6.90147e-12
5.33884e-08
4.43317e-11
1.3554e-11
2.2175e-08
-1.47503e-11
9.51104e-12
2.76015e-08
-1.2853e-11
1.33637e-11
3.19594e-08
-1.21137e-11
2.60118e-11
3.61194e-08
-1.18351e-11
4.83596e-11
4.02646e-08
-1.12182e-11
7.92515e-11
4.44904e-08
-9.56651e-12
1.12475e-10
4.88557e-08
-6.06602e-12
5.33878e-08
-4.36522e-13
1.34979e-10
-8.38031e-12
4.24691e-11
2.2175e-08
-3.97222e-11
-4.51216e-11
3.40551e-11
2.76101e-08
-3.94718e-11
-7.24721e-11
3.12485e-11
3.19697e-08
-3.73552e-11
-9.96643e-11
2.94757e-11
3.61329e-08
-3.56324e-11
-1.28497e-10
2.75082e-11
4.02803e-08
-3.30017e-11
-1.56671e-10
2.34994e-11
4.45024e-08
-2.75413e-11
-1.77268e-10
1.56261e-11
4.88492e-08
-1.72672e-11
3.27863e-12
5.33406e-08
-1.65767e-12
-1.81212e-10
-1.9354e-11
3.83346e-11
2.217e-08
-5.43294e-11
2.73897e-11
2.76015e-08
-8.06955e-11
2.36767e-11
3.19596e-08
-1.07422e-10
2.2395e-11
3.61222e-08
-1.36675e-10
2.16099e-11
4.02697e-08
-1.66138e-10
1.91959e-11
4.44934e-08
-1.88309e-10
1.33566e-11
4.88443e-08
3.673e-12
5.33428e-08
-1.93948e-10
-2.31378e-11
4.17203e-11
2.21631e-08
-6.18352e-11
2.66914e-11
2.75916e-08
-9.22506e-11
2.23874e-11
3.19469e-08
-1.2357e-10
2.22534e-11
3.61058e-08
-1.57962e-10
2.33178e-11
4.02494e-08
-1.92516e-10
2.24977e-11
4.44712e-08
-2.18437e-10
1.70896e-11
4.88266e-08
6.08013e-12
5.33405e-08
-2.24621e-10
-1.88918e-11
4.23468e-11
2.21575e-08
-5.75155e-11
2.6237e-11
2.75847e-08
-8.86137e-11
2.23666e-11
3.19375e-08
-1.20415e-10
2.38939e-11
3.60927e-08
-1.54562e-10
2.70593e-11
4.02317e-08
-1.88097e-10
2.7829e-11
4.44505e-08
-2.12599e-10
2.2297e-11
4.88089e-08
8.58522e-12
5.33368e-08
-2.17757e-10
-9.43514e-12
3.57399e-11
2.21542e-08
-4.35382e-11
2.19306e-11
2.75825e-08
-7.10355e-11
1.9542e-11
3.19348e-08
-9.81761e-11
2.24872e-11
3.60885e-08
-1.25715e-10
2.70535e-11
4.02256e-08
-1.51296e-10
2.91107e-11
4.44425e-08
-1.6875e-10
2.4272e-11
4.88004e-08
1.0213e-11
5.333e-08
-1.70828e-10
4.75825e-12
1.75454e-11
2.21539e-08
-2.06912e-11
9.84864e-12
2.75847e-08
-3.94492e-11
9.27141e-12
3.19378e-08
-5.57319e-11
1.24423e-11
3.60924e-08
-6.93525e-11
1.67504e-11
4.02305e-08
-7.92381e-11
1.95519e-11
4.44479e-08
-8.32003e-11
1.75988e-11
4.8804e-08
8.76242e-12
5.33279e-08
-8.01784e-11
1.78853e-11
2.21542e-08
-1.18019e-11
2.15817e-12
2.75873e-08
-1.11717e-11
-5.68505e-12
3.19414e-08
-1.08591e-11
-7.2437e-12
3.60971e-08
-1.05216e-11
-1.63961e-12
4.02366e-08
-9.75806e-12
1.05708e-11
4.44545e-08
-7.98817e-12
2.62329e-11
4.88083e-08
-4.559e-12
5.33252e-08
7.43049e-13
3.79227e-11
-2.07702e-11
3.93105e-11
2.2176e-08
-3.77904e-11
-6.75589e-11
2.80563e-11
2.76086e-08
-3.32594e-11
-1.04058e-10
2.42912e-11
3.1966e-08
-3.05747e-11
-1.42866e-10
2.26519e-11
3.61315e-08
-2.95279e-11
-1.87719e-10
2.14854e-11
4.02829e-08
-2.83189e-11
-2.36199e-10
1.89161e-11
4.45053e-08
-2.47855e-11
-2.78059e-10
1.32129e-11
4.88405e-08
-1.67294e-11
3.70999e-12
5.33012e-08
-3.16194e-12
-2.97664e-10
-2.82978e-11
3.285e-11
2.21688e-08
-7.24742e-11
2.05869e-11
2.76001e-08
-1.07971e-10
1.59471e-11
3.19558e-08
-1.45129e-10
1.3812e-11
3.612e-08
-1.87063e-10
1.24299e-11
4.02707e-08
-2.31308e-10
1.02757e-11
4.44941e-08
-2.68472e-10
6.50475e-12
4.88336e-08
1.33352e-12
5.33026e-08
-2.8535e-10
-3.38153e-11
3.64434e-11
2.21611e-08
-8.41146e-11
2.1265e-11
2.75903e-08
-1.27067e-10
1.62364e-11
3.19435e-08
-1.73372e-10
1.49061e-11
3.61042e-08
-2.25994e-10
1.46862e-11
4.02509e-08
-2.81258e-10
1.32762e-11
4.44722e-08
-3.26686e-10
9.13916e-12
4.88155e-08
2.1289e-12
5.32985e-08
-3.44348e-10
-3.27226e-11
3.92492e-11
2.21552e-08
-8.5476e-11
2.41407e-11
2.75837e-08
-1.33042e-10
2.03167e-11
3.1935e-08
-1.85875e-10
2.13314e-11
3.60922e-08
-2.46867e-10
2.37738e-11
4.02348e-08
-3.11674e-10
2.40243e-11
4.44533e-08
-3.6546e-10
1.86753e-11
4.87993e-08
6.17364e-12
5.32945e-08
-3.86123e-10
-2.54563e-11
3.50956e-11
2.21516e-08
-7.34817e-11
2.27121e-11
2.7581e-08
-1.17463e-10
2.08832e-11
3.19322e-08
-1.66578e-10
2.40396e-11
3.6088e-08
-2.23309e-10
2.86695e-11
4.02285e-08
-2.83758e-10
3.05767e-11
4.44451e-08
-3.34187e-10
2.51574e-11
4.87904e-08
9.88738e-12
5.32871e-08
-3.53918e-10
-1.23233e-11
1.79983e-11
2.2151e-08
-4.91068e-11
1.14546e-11
2.75818e-08
-8.14011e-11
1.13199e-11
3.19336e-08
-1.16393e-10
1.47546e-11
3.60898e-08
-1.55834e-10
1.93665e-11
4.02303e-08
-1.97435e-10
2.21875e-11
4.44466e-08
-2.3209e-10
1.96213e-11
4.87903e-08
9.26707e-12
5.32831e-08
-2.45673e-10
-1.32707e-12
2.21521e-08
-1.07519e-11
-2.61295e-11
2.75831e-08
-1.0462e-11
-4.48029e-11
3.19356e-08
-1.02504e-11
-6.23146e-11
3.60923e-08
-9.89395e-12
-7.9686e-11
4.02334e-08
-9.04627e-12
-9.65762e-11
4.44494e-08
-7.21361e-12
-1.09699e-10
4.87909e-08
-3.81732e-12
5.32782e-08
1.33439e-12
-1.1379e-10
-4.46223e-11
3.41961e-11
2.22034e-08
-3.53897e-11
-9.51757e-11
2.15644e-11
2.76115e-08
-2.72796e-11
-1.34408e-10
1.72665e-11
3.19655e-08
-2.38751e-11
-1.77719e-10
1.5646e-11
3.61353e-08
-2.30728e-11
-2.30418e-10
1.50038e-11
4.02944e-08
-2.27252e-11
-2.90135e-10
1.36576e-11
4.45207e-08
-2.06184e-11
-3.43783e-10
1.01185e-11
4.88447e-08
-1.45291e-11
3.72042e-12
5.32681e-08
-3.3751e-12
-3.69215e-10
-5.4265e-11
2.4933e-11
2.21964e-08
-1.01156e-10
1.32985e-11
2.76023e-08
-1.38271e-10
8.44122e-12
3.19542e-08
-1.77517e-10
5.71982e-12
3.61212e-08
-2.22516e-10
3.8341e-12
4.02772e-08
-2.70512e-10
1.96663e-12
4.45019e-08
-3.1045e-10
1.53734e-13
4.88292e-08
-1.0599e-12
5.32632e-08
-3.25453e-10
-6.18229e-11
2.8699e-11
2.2187e-08
-1.16551e-10
1.52683e-11
2.75924e-08
-1.63319e-10
1.02753e-11
3.19427e-08
-2.14562e-10
8.11956e-12
3.61063e-08
-2.73619e-10
6.81693e-12
4.02583e-08
-3.35995e-10
4.90597e-12
4.44806e-08
-3.86529e-10
1.92155e-12
4.88108e-08
-1.59537e-12
5.32564e-08
-4.02412e-10
-6.21189e-11
3.35004e-11
2.21803e-08
-1.21399e-10
2.1007e-11
2.75865e-08
-1.75724e-10
1.77679e-11
3.1936e-08
-2.37889e-10
1.84819e-11
3.60974e-08
-3.11562e-10
2.02475e-11
4.02464e-08
-3.91144e-10
1.99715e-11
4.44668e-08
-4.57222e-10
1.47802e-11
4.8799e-08
3.40114e-12
5.32531e-08
-4.79317e-10
-5.49743e-11
3.20828e-11
2.21757e-08
-1.09665e-10
2.1982e-11
2.7584e-08
-1.60564e-10
2.09104e-11
3.19341e-08
-2.19849e-10
2.421e-11
3.60949e-08
-2.91245e-10
2.86885e-11
4.02428e-08
-3.69593e-10
3.02742e-11
4.44621e-08
-4.3586e-10
2.43648e-11
4.87935e-08
8.38659e-12
5.32473e-08
-4.59627e-10
-4.05971e-11
1.69624e-11
2.21746e-08
-8.31285e-11
1.15183e-11
2.7584e-08
-1.20937e-10
1.18238e-11
3.19346e-08
-1.64663e-10
1.5404e-11
3.60956e-08
-2.17705e-10
2.00219e-11
4.02434e-08
-2.76769e-10
2.26545e-11
4.44622e-08
-3.27664e-10
1.95844e-11
4.87924e-08
8.30295e-12
5.32435e-08
-3.46622e-10
-2.82427e-11
2.21756e-08
-1.05714e-11
-5.85668e-11
2.75848e-08
-1.05964e-11
-8.20141e-11
3.19356e-08
-1.06592e-11
-1.07391e-10
3.60969e-08
-1.04831e-11
-1.37725e-10
4.02448e-08
-9.77872e-12
-1.72025e-10
4.44633e-08
-8.05599e-12
-2.02163e-10
4.87916e-08
-4.64968e-12
5.32384e-08
7.61032e-13
-2.13549e-10
-4.67395e-11
2.31418e-11
2.22332e-08
-2.44345e-11
-9.65066e-11
1.30174e-11
2.76151e-08
-1.9584e-11
-1.34061e-10
9.35686e-12
3.19649e-08
-1.70248e-11
-1.7367e-10
7.64572e-12
3.61375e-08
-1.65587e-11
-2.202e-10
6.8593e-12
4.03024e-08
-1.66149e-11
-2.7141e-10
6.00228e-12
4.45307e-08
-1.54355e-11
-3.1487e-10
4.29366e-12
4.88419e-08
-1.11929e-11
1.4196e-12
5.32262e-08
-3.06987e-12
-3.28749e-10
-5.72226e-11
1.48415e-11
2.22263e-08
-1.05089e-10
5.32024e-12
2.76056e-08
-1.42142e-10
1.02092e-12
3.19527e-08
-1.78788e-10
-2.42557e-12
3.61205e-08
-2.1806e-10
-5.1012e-12
4.02793e-08
-2.57103e-10
-7.08124e-12
4.45028e-08
-2.85394e-10
-7.39691e-12
4.88156e-08
-4.83919e-12
5.32127e-08
-2.86979e-10
-6.37161e-11
1.92086e-11
2.22144e-08
-1.21877e-10
9.11578e-12
2.75967e-08
-1.7141e-10
4.92226e-12
3.1943e-08
-2.23799e-10
2.4335e-12
3.61078e-08
-2.81599e-10
3.94104e-13
4.02626e-08
-3.40036e-10
-1.76168e-12
4.44834e-08
-3.83838e-10
-3.89128e-12
4.87982e-08
-4.9772e-12
5.32053e-08
-3.90358e-10
-6.51399e-11
2.69895e-11
2.22058e-08
-1.2958e-10
1.77485e-11
2.75922e-08
-1.88422e-10
1.55308e-11
3.1939e-08
-2.53869e-10
1.6328e-11
3.61029e-08
-3.29343e-10
1.77531e-11
4.02565e-08
-4.0879e-10
1.718e-11
4.4477e-08
-4.72287e-10
1.20645e-11
4.87937e-08
1.16125e-12
5.32058e-08
-4.88873e-10
-5.80236e-11
2.93404e-11
2.21995e-08
-1.17918e-10
2.10445e-11
2.75905e-08
-1.72924e-10
2.06385e-11
3.19387e-08
-2.35183e-10
2.41058e-11
3.61033e-08
-3.0855e-10
2.84646e-11
4.02574e-08
-3.87689e-10
2.97833e-11
4.44784e-08
-4.53104e-10
2.34644e-11
4.87948e-08
6.8847e-12
5.32048e-08
-4.74075e-10
-4.22319e-11
1.70634e-11
2.21971e-08
-8.9386e-11
1.16164e-11
2.75905e-08
-1.3053e-10
1.19406e-11
3.19392e-08
-1.76525e-10
1.54483e-11
3.61042e-08
-2.31255e-10
1.98893e-11
4.02586e-08
-2.91448e-10
2.22499e-11
4.44796e-08
-3.42557e-10
1.87845e-11
4.87953e-08
6.93888e-12
5.32035e-08
-3.60317e-10
-2.73786e-11
2.21972e-08
-9.12232e-12
-6.18554e-11
2.75911e-08
-1.04237e-11
-8.83231e-11
3.19398e-08
-1.11358e-11
-1.15703e-10
3.6105e-08
-1.15007e-11
-1.47653e-10
4.02598e-08
-1.12986e-11
-1.83366e-10
4.44808e-08
-9.95126e-12
-2.14684e-10
4.87954e-08
-6.55469e-12
5.32001e-08
-5.66239e-13
-2.26755e-10
-1.91597e-11
1.09145e-11
-1.3218e-11
2.22365e-08
-6.75334e-11
4.3144e-12
-1.23354e-11
2.76199e-08
-1.04367e-10
1.37091e-12
-1.09229e-11
3.19665e-08
-1.39467e-10
-8.73486e-13
-1.08196e-11
3.6139e-08
-1.75938e-10
-2.5407e-12
-1.11804e-11
4.03055e-08
-2.11899e-10
-3.85781e-12
-1.05869e-11
4.45318e-08
-2.38148e-10
-4.27808e-12
-7.89936e-12
4.88287e-08
-3.4566e-12
-2.57529e-12
-2.39002e-10
5.31772e-08
-2.84283e-11
4.24085e-12
2.22265e-08
-7.90809e-11
-2.32166e-12
2.76118e-08
-1.19961e-10
-6.21175e-12
3.19553e-08
-1.58404e-10
-9.98545e-12
3.61218e-08
-1.96182e-10
-1.35901e-11
4.02803e-08
-2.30591e-10
-1.59757e-11
4.44996e-08
-2.52566e-10
-1.50587e-11
4.87963e-08
-9.0768e-12
-2.48658e-10
5.31578e-08
-3.65398e-11
8.62208e-12
2.22152e-08
-9.98225e-11
3.57841e-12
2.76052e-08
-1.56166e-10
8.97759e-13
3.19481e-08
-2.14263e-10
-1.07015e-12
3.6112e-08
-2.76087e-10
-3.19558e-12
4.02672e-08
-3.36797e-10
-5.33718e-12
4.44844e-08
-3.81823e-10
-6.62825e-12
4.87833e-08
-6.13441e-12
-3.89211e-10
5.31534e-08
-4.38365e-11
2.02293e-11