/*--------------------------------*- C++ -*----------------------------------*\
| =========                 |                                                 |
| \\      /  F ield         | OpenFOAM: The Open Source CFD Toolbox           |
|  \\    /   O peration     | Version:  plus.master.MPPICInterFoam            |
|   \\  /    A nd           | Web:      www.OpenFOAM.com                      |
|    \\/     M anipulation  |                                                 |
\*---------------------------------------------------------------------------*/
FoamFile
{
    version     2.0;
    format      ascii;
    class       scalarField;
    location    "3.6/lagrangian/kinematicCloud";
    object      d;
}
// * * * * * * * * * * * * * * * * * * * * * * * * * * * * * * * * * * * * * //


160
(
0.000546228
0.000555122
0.000624811
0.000569274
0.000573592
0.000611841
0.000525033
0.000523472
0.000583621
0.000606128
0.000661652
0.000592068
0.000569864
0.000583494
0.000566866
0.000554411
0.000575076
0.000602736
0.000568934
0.000576441
0.000566061
0.000557102
0.000601041
0.000564183
0.000606355
0.000549535
0.000540019
0.000516599
0.000562765
0.000569688
0.000563253
0.000580131
0.00056927
0.000585393
0.000567529
0.000584214
0.000596847
0.000594015
0.00054819
0.000586392
0.000606959
0.000506713
0.000558452
0.00056358
0.000628768
0.000590999
0.00058061
0.000597644
0.000596447
0.000555226
0.000568209
0.000552444
0.00056919
0.000560693
0.000577977
0.000602297
0.000610567
0.000588646
0.000618425
0.000532497
0.000509947
0.000591348
0.000558727
0.000527662
0.000564296
0.000571892
0.000565442
0.000555526
0.000581588
0.000543364
0.00057972
0.00058656
0.000575658
0.000572616
0.000587157
0.000571377
0.000526608
0.000542904
0.000587531
0.000564969
0.000563105
0.000523384
0.000569914
0.000597192
0.000559451
0.000554471
0.000597042
0.00055373
0.000581393
0.000628733
0.000573622
0.00059718
0.000613382
0.000547586
0.000580074
0.000543281
0.000589582
0.000581014
0.000555921
0.000591748
0.000560244
0.000562206
0.000541653
0.000557432
0.000556138
0.000543358
0.000593233
0.000556703
0.000588682
0.000531388
0.000613587
0.000618548
0.000594789
0.000580528
0.000551769
0.000559529
0.000591649
0.00061695
0.000580687
0.000508508
0.000542399
0.000563134
0.000578025
0.000539326
0.000519289
0.000528108
0.000563175
0.000583625
0.000562355
0.000570485
0.000576599
0.000564689
0.000567637
0.000534011
0.000546691
0.000521956
0.000587002
0.000529458
0.000569906
0.000555071
0.000563535
0.000583406
0.000577701
0.000548021
0.000592143
0.000583001
0.000581954
0.00058238
0.000501657
0.000599242
0.000614065
0.000563659
0.000601539
0.000577274
0.000578192
0.000578151
0.000590026
0.000626975
0.000579417
0.000564423
)


// ************************************************************************* //
