/*--------------------------------*- C++ -*----------------------------------*\
| =========                 |                                                 |
| \\      /  F ield         | OpenFOAM: The Open Source CFD Toolbox           |
|  \\    /   O peration     | Version:  plus.master.MPPICInterFoam            |
|   \\  /    A nd           | Web:      www.OpenFOAM.com                      |
|    \\/     M anipulation  |                                                 |
\*---------------------------------------------------------------------------*/
FoamFile
{
    version     2.0;
    format      ascii;
    class       labelField;
    location    "3.6/lagrangian/kinematicCloud";
    object      origId;
}
// * * * * * * * * * * * * * * * * * * * * * * * * * * * * * * * * * * * * * //


160
(
11198
11805
10044
1559
48222
42650
30866
23310
9276
8526
26057
558
9023
32060
17035
777
2967
9004
2096
4250
7697
19750
37530
32322
4953
19682
31149
7969
21276
4321
9652
10309
28845
40833
3122
6119
18234
56936
3324
9384
17945
23045
24247
939
37882
8758
16655
31568
2909
3263
6468
5838
12926
28152
3887
9968
27703
1115
20823
23628
29319
4399
7065
9995
13743
22919
25008
25912
3771
26055
27295
55012
18281
29216
1281
24799
27224
4076
28165
45055
2607
13605
14612
17337
421
8544
14688
20884
2692
13450
30263
38964
29390
11073
13053
23586
31329
446
4993
6739
7894
8437
12014
21636
25531
429
9088
2455
25591
35794
7493
17451
19702
22465
1623
2085
13386
10069
8429
9269
15403
29972
31373
11658
449
879
2895
11786
27974
33689
11833
43373
17484
20734
6733
8198
17290
20489
25952
448
24168
3528
13213
4087
14655
28366
10456
34466
7675
12389
127
13687
20575
19591
3648
17360
6445
2932
2753
1014
)


// ************************************************************************* //
