/*--------------------------------*- C++ -*----------------------------------*\
| =========                 |                                                 |
| \\      /  F ield         | OpenFOAM: The Open Source CFD Toolbox           |
|  \\    /   O peration     | Version:  plus.master.MPPICInterFoam            |
|   \\  /    A nd           | Web:      www.OpenFOAM.com                      |
|    \\/     M anipulation  |                                                 |
\*---------------------------------------------------------------------------*/
FoamFile
{
    version     2.0;
    format      ascii;
    class       vectorField;
    location    "3.6/lagrangian/kinematicCloud";
    object      UCorrect;
}
// * * * * * * * * * * * * * * * * * * * * * * * * * * * * * * * * * * * * * //


160
(
(-6.50095e-08 -3.60435e-08 -2.01913e-08)
(-7.87399e-11 -8.84376e-11 -2.38089e-13)
(2.97022e-07 6.39438e-07 -3.197e-06)
(-7.41384e-10 -5.72095e-10 -1.13543e-08)
(-8.24061e-08 -3.82505e-08 -3.27196e-06)
(-7.5282e-07 -2.96962e-06 -6.80037e-07)
(5.07514e-07 -1.01435e-06 -8.25232e-07)
(-3.02639e-11 8.62045e-11 -5.11774e-08)
(-1.82901e-05 2.1959e-05 1.23835e-06)
(-6.75074e-06 3.84491e-06 -2.41924e-07)
(-0.0014313 0.000113122 0.000213494)
(-0.00060541 -0.000127546 -5.84387e-06)
(-0.00042672 -0.000717656 -0.000180917)
(0.000263009 8.12837e-05 -7.68623e-06)
(4.86991e-08 -7.57688e-10 -4.19383e-09)
(0.0011505 -0.00094317 -1.34894e-06)
(3.45803e-10 9.38956e-11 -6.71312e-10)
(2.51063e-08 1.40969e-07 1.17914e-10)
(-0.000218215 0.000185973 1.28757e-06)
(-0.000828669 0.00169269 2.302e-06)
(-0.000508828 0.00178112 -9.9364e-08)
(-0.00024097 0.00022368 -2.35513e-07)
(-0.00146003 -1.19975e-08 3.00398e-06)
(0.00108247 -0.00195406 -9.1366e-07)
(8.71782e-05 -5.428e-05 -2.62569e-06)
(1.84347e-09 -3.96816e-10 -2.08361e-07)
(0.000110039 -0.00374748 1.28757e-06)
(-0.000524537 0.0001677 -3.1527e-10)
(-0.000519787 0.000143885 -3.1527e-10)
(0.0011505 -0.00094317 -1.34299e-06)
(-1.37778e-07 5.73993e-08 -8.11705e-07)
(4.92269e-10 3.41849e-09 1.06039e-07)
(4.7091e-05 -3.41504e-06 -2.0042e-08)
(0.00011413 -0.000127249 -1.26964e-06)
(-3.23762e-05 1.64089e-05 -8.59544e-07)
(-2.65054e-10 -3.09127e-09 -3.94541e-13)
(-0.00514973 -2.46012e-09 2.78868e-06)
(-0.000248648 -2.46012e-09 5.07883e-06)
(4.48849e-08 5.38897e-07 4.33763e-12)
(-1.11178e-07 4.84567e-06 9.82398e-08)
(-0.000214441 0.000321795 -5.05861e-07)
(-2.47516e-05 -7.12416e-06 6.99138e-07)
(-5.38988e-05 0.000114352 -6.21607e-07)
(2.92409e-06 1.54699e-05 7.33194e-07)
(-0.000189869 0.00034757 0.000360578)
(-0.000198883 -0.000129757 4.90248e-11)
(0.00429079 -2.46012e-09 2.78868e-06)
(-0.000165937 0.000105626 0.000360578)
(1.34876e-05 1.20447e-06 -6.88858e-09)
(0.000993434 -0.00135047 1.37177e-06)
(1.52438e-06 7.64782e-05 -7.11431e-09)
(-9.56492e-07 1.72744e-06 -5.70321e-08)
(2.27111e-06 2.42784e-07 2.81197e-12)
(2.14329e-05 -5.80987e-05 3.3778e-08)
(3.65018e-06 -6.45357e-07 -5.95165e-09)
(0.0010698 -0.00196124 -2.38125e-06)
(5.4449e-05 0.000181653 -6.19629e-06)
(-0.000334489 0.000278778 -6.56415e-05)
(5.00252e-05 -0.0011729 3.74749e-07)
(-1.89067e-08 3.74186e-08 1.86248e-07)
(-0.000130862 -0.00014646 -1.62252e-06)
(0.000171143 0.000899921 -9.9364e-08)
(3.32634e-06 1.35981e-07 6.58863e-06)
(3.878e-05 -0.000262895 3.65671e-07)
(-3.69964e-05 9.90615e-05 3.74749e-07)
(-5.0459e-05 -0.000154179 -5.72587e-07)
(-2.13969e-05 -0.000390928 -1.2391e-07)
(2.22241e-05 -1.85037e-06 -5.5474e-07)
(0.000136981 -5.84665e-05 -1.32834e-08)
(-6.66341e-05 -0.000165909 -5.72587e-07)
(0.00362788 -2.46012e-09 2.78868e-06)
(-0.000162002 0.00165343 -1.71495e-07)
(0.000993434 -0.00135047 -8.52249e-07)
(-0.000124271 -1.19975e-08 3.00398e-06)
(0.000140724 2.00644e-05 -1.32395e-11)
(0.000114189 1.16419e-06 2.89495e-06)
(0.000598322 -0.000151304 3.29924e-07)
(-7.69852e-05 -0.000152425 -2.88011e-07)
(0.000133642 3.92467e-05 4.88385e-07)
(2.48944e-10 -5.12476e-09 -9.59939e-11)
(1.56007e-08 -7.74678e-07 -4.41941e-09)
(4.32467e-06 7.54865e-07 9.00597e-12)
(-0.000777907 -0.00277387 -5.98347e-07)
(-3.49355e-07 1.70942e-08 4.4664e-07)
(-0.000826522 -0.0022824 -5.98347e-07)
(0.00013437 -8.56617e-05 -0.000282119)
(-2.15685e-06 0.00331844 -3.13811e-06)
(5.54455e-09 -4.88562e-11 -1.63421e-07)
(-9.07026e-08 -5.01527e-07 -7.33196e-07)
(-0.000162002 0.00165343 -7.00666e-08)
(-0.000823069 -0.00231731 -5.98347e-07)
(-0.000248648 -2.46012e-09 5.29345e-07)
(-9.1463e-05 -1.63465e-05 3.33332e-11)
(0.00114315 -0.00021247 -1.86302e-07)
(-5.7016e-05 0.000559849 -3.13811e-06)
(-9.62344e-05 -3.38244e-05 3.33332e-11)
(-5.9961e-05 0.000590525 -3.13811e-06)
(3.25443e-06 -1.05435e-05 -1.16181e-06)
(-0.000433463 2.52341e-05 0.000204425)
(-1.36981e-07 1.23226e-06 -3.29326e-06)
(-4.07128e-12 2.60707e-12 -1.92625e-12)
(-7.37559e-06 2.54056e-06 -7.80484e-12)
(0.000992894 -0.000242436 -1.86302e-07)
(4.25092e-08 -4.68968e-06 -9.44887e-07)
(-0.000708262 5.16154e-05 0.000204425)
(1.85952e-11 9.69297e-11 -2.44859e-07)
(-5.38211e-09 -6.67279e-10 -3.30144e-07)
(1.66692e-05 5.27664e-05 -8.89358e-07)
(0.000734927 0.00131693 -3.95257e-07)
(-2.7673e-08 -0.000174285 0.000208405)
(-3.56795e-10 3.6895e-10 -4.06058e-07)
(3.56543e-11 1.56873e-12 -1.1837e-11)
(1.9498e-10 6.50121e-11 -4.88349e-07)
(-2.7673e-08 -0.000182479 0.000208405)
(-5.53813e-11 -3.85535e-10 -7.9172e-13)
(7.14114e-11 6.13493e-12 4.88936e-12)
(0.000734927 0.00195551 -3.95257e-07)
(-1.87761e-07 -2.27335e-08 6.46372e-07)
(2.23594e-08 -1.43878e-07 3.20941e-07)
(-5.42997e-10 9.15142e-10 -4.45871e-07)
(-4.5658e-13 -1.18794e-12 -6.98563e-14)
(-1.0898e-12 1.56941e-12 2.83648e-12)
(-6.75404e-10 -4.23371e-09 -7.14243e-07)
(-0.00092006 -0.000120139 2.90666e-11)
(-1.98818e-14 1.78898e-13 -1.4608e-10)
(-0.000892419 -0.000117404 2.90666e-11)
(-1.05692e-12 2.85042e-13 5.41275e-10)
(2.3636e-13 2.98645e-12 -6.97667e-14)
(-1.9816e-11 -2.41925e-09 3.19007e-07)
(5.00516e-10 1.87838e-10 1.66478e-07)
(-3.77644e-07 -4.94203e-08 -5.78432e-07)
(9.04731e-14 -7.19121e-13 -6.08256e-10)
(5.10047e-11 -3.43494e-10 3.47502e-13)
(0.000217538 1.41959e-05 -3.95815e-05)
(-1.0477e-16 -1.3141e-15 2.43893e-19)
(-1.87116e-05 0.000146033 -3.95815e-05)
(-3.05384e-05 -3.20664e-06 -0.000301836)
(-2.65681e-08 0.000663643 -0.000168817)
(6.84478e-06 -1.78565e-05 3.87095e-12)
(-5.98152e-19 3.42672e-19 -2.35915e-19)
(0.000678539 -5.11938e-05 -0.000168817)
(-4.25214e-06 4.82109e-05 3.28564e-10)
(-0.0006709 -6.46829e-05 -0.000531689)
(7.45334e-11 1.23115e-11 -2.77496e-10)
(-1.17024e-18 -1.42837e-20 1.17957e-19)
(1.20427e-10 -1.2516e-11 -2.46704e-07)
(-4.5082e-13 -4.00549e-13 -1.0764e-09)
(-1.69242e-12 0.0013698 -1.19391e-12)
(-1.69242e-12 0.00140664 -1.19391e-12)
(1.69903e-17 -9.73904e-17 -2.08453e-14)
(-2.38194e-05 -1.543e-12 0.000435868)
(0.000115225 -0.00144834 0.000328127)
(1.07853e-18 4.05234e-16 -1.94275e-12)
(8.19868e-14 -5.90738e-15 -8.43796e-11)
(-1.38031e-15 2.07677e-15 -1.28294e-12)
(1.741e-10 -4.06142e-13 -1.2428e-07)
(8.63279e-18 -3.21324e-18 4.44875e-19)
(1.11776e-12 3.79474e-13 -6.02239e-10)
(4.91945e-15 -2.78172e-15 6.57113e-14)
(4.38982e-19 1.00498e-18 -6.63203e-35)
)


// ************************************************************************* //
