/*--------------------------------*- C++ -*----------------------------------*\
| =========                 |                                                 |
| \\      /  F ield         | OpenFOAM: The Open Source CFD Toolbox           |
|  \\    /   O peration     | Version:  plus.master.MPPICInterFoam            |
|   \\  /    A nd           | Web:      www.OpenFOAM.com                      |
|    \\/     M anipulation  |                                                 |
\*---------------------------------------------------------------------------*/
FoamFile
{
    version     2.0;
    format      ascii;
    class       surfaceScalarField;
    location    "4.6";
    object      alphaPhi;
}
// * * * * * * * * * * * * * * * * * * * * * * * * * * * * * * * * * * * * * //

dimensions      [0 3 -1 0 0 0 0];

internalField   nonuniform List<scalar> 
34018
(
-3.33316e-07
7.96339e-06
-4.39765e-07
-3.47101e-07
-5.43736e-07
7.98384e-06
-3.26506e-07
7.25355e-06
-3.40952e-07
-8.64061e-08
7.68724e-06
-4.36479e-07
-2.16647e-07
7.11383e-06
-3.74038e-07
6.23468e-06
-2.26381e-07
-2.13296e-07
3.55374e-07
3.44131e-07
5.50231e-06
-2.30825e-07
-2.97428e-07
4.05253e-07
6.06519e-07
6.35645e-06
-4.58157e-07
2.62807e-07
9.79007e-07
7.14697e-06
-6.68581e-07
-3.26431e-08
1.12881e-06
7.64704e-06
-7.88485e-07
-3.22374e-07
1.16217e-06
7.56592e-06
-7.55481e-07
-4.42857e-07
8.78269e-07
6.92445e-06
-5.6272e-07
4.864e-07
6.02106e-06
-3.70191e-07
-3.38163e-07
6.82304e-07
2.77289e-07
6.25984e-06
-4.20836e-07
8.39969e-07
5.27465e-07
7.3769e-06
5.20452e-07
6.50691e-07
7.45079e-06
-1.25845e-09
6.10254e-07
6.33548e-06
-4.96728e-07
6.5044e-07
6.51597e-06
-7.91832e-07
6.25494e-07
7.27747e-06
4.56346e-07
7.03076e-06
-6.08582e-07
9.9072e-07
7.26776e-08
6.85519e-06
-5.96561e-07
1.06376e-06
1.26595e-07
8.05937e-06
5.90456e-07
1.50369e-07
4.55823e-06
1.15583e-07
2.9983e-08
8.67257e-06
-4.78839e-07
-4.94469e-09
5.34123e-06
-9.67736e-07
1.88833e-07
4.3962e-06
1.37354e-07
7.62656e-06
-8.7153e-07
1.04737e-06
-1.49346e-07
7.10074e-06
-6.4115e-07
9.91214e-07
-2.871e-07
7.93135e-06
3.49453e-07
-3.45666e-07
8.44838e-06
1.66052e-08
-6.17489e-08
3.68637e-06
-3.05874e-07
-2.37747e-07
7.49589e-06
-9.34558e-07
-2.90571e-07
5.46356e-06
-2.40533e-07
7.46497e-06
-9.56038e-07
9.15732e-07
-3.00786e-07
6.88179e-06
-5.63783e-07
9.04928e-07
-5.89651e-07
7.93307e-06
2.59436e-07
-7.5356e-07
6.96724e-06
9.42876e-08
-5.559e-07
4.17314e-06
-3.06996e-07
-6.94955e-07
5.93412e-06
-8.87106e-07
-7.38213e-07
6.32625e-06
-4.77836e-07
7.57092e-06
-8.10548e-07
6.59723e-07
-3.37759e-07
6.29759e-06
-4.1191e-07
7.78972e-07
-6.35339e-07
7.38724e-06
4.91218e-07
-1.03129e-06
6.97807e-06
1.99184e-08
-1.11296e-06
7.79955e-06
-4.79461e-07
-1.18356e-06
7.35151e-06
-7.39161e-07
-8.83444e-07
7.37326e-06
-4.66121e-07
7.02166e-06
-5.73163e-07
3.50352e-07
5.55153e-06
-2.34814e-07
-2.70702e-07
3.89215e-07
6.39158e-06
-4.53023e-07
2.37286e-07
7.16278e-06
-6.73681e-07
-2.46263e-08
7.63117e-06
-7.71027e-07
-3.02824e-07
7.52584e-06
-7.44016e-07
-4.22796e-07
6.89376e-06
-5.4344e-07
6.00521e-06
-3.60685e-07
-2.98958e-07
-4.19701e-08
5.55139e-08
5.39627e-06
1.09002e-07
-1.67711e-08
3.11462e-08
1.5087e-07
6.1718e-06
-4.00854e-08
4.29543e-08
2.87906e-07
6.87994e-06
-8.91698e-08
-6.95935e-08
3.82377e-07
7.14427e-06
-1.27482e-07
-1.38096e-07
3.18787e-07
7.09921e-06
-7.53592e-08
-8.56111e-08
1.77344e-07
6.66841e-06
2.59357e-08
2.88008e-08
5.83308e-06
3.81368e-09
6.96569e-08
8.77375e-08
7.58191e-08
6.09288e-06
5.89011e-08
2.44194e-07
2.00553e-07
6.99062e-06
1.3801e-07
2.12758e-07
5.86837e-06
-2.01343e-08
2.49206e-07
4.18964e-06
-2.04093e-07
1.23743e-07
4.42073e-06
-2.26165e-07
1.49523e-07
5.94877e-06
1.02241e-07
6.67351e-06
-4.75367e-08
2.38814e-07
4.48076e-08
6.64838e-06
-9.05356e-10
3.28384e-07
8.82405e-08
7.04353e-06
1.39789e-07
1.32436e-07
2.99091e-06
-8.2613e-08
9.99191e-08
3.96223e-06
-8.70707e-08
1.36473e-07
2.5178e-06
-2.61628e-07
6.66747e-08
3.04382e-06
8.74034e-08
6.7787e-06
-1.23445e-07
3.33492e-07
-2.94115e-08
6.88138e-06
-3.98787e-08
3.78824e-07
-1.14507e-07
6.78132e-06
1.39237e-07
-1.67007e-07
4.58683e-06
-4.94425e-08
-5.92518e-08
3.4509e-06
-2.01023e-07
-1.46011e-07
6.68041e-06
-3.23885e-07
-2.41381e-08
4.34175e-06
-5.83983e-08
6.45883e-06
-2.38968e-07
2.37297e-07
-4.51808e-08
6.66437e-06
-4.19649e-09
3.19831e-07
-2.15778e-07
6.95502e-06
6.33768e-08
-2.80551e-07
3.62537e-06
1.67522e-08
-1.55873e-07
2.919e-06
-9.27697e-08
-1.96966e-07
2.76022e-06
-2.86363e-07
-1.83925e-07
3.69135e-06
-7.29292e-08
6.83989e-06
-1.23618e-07
1.12835e-07
-1.71652e-08
6.11862e-06
3.79772e-08
2.63778e-07
-1.50919e-07
6.9413e-06
1.7552e-07
-3.15302e-07
5.87063e-06
-8.65026e-09
-3.83016e-07
5.13902e-06
-2.34297e-07
-3.54794e-07
5.04911e-06
-2.26567e-07
-1.58903e-07
6.38753e-06
1.91043e-08
6.67238e-06
-5.13613e-08
-2.00134e-08
5.44266e-06
8.33106e-08
2.82398e-08
4.2399e-08
6.19333e-06
-1.7491e-08
3.5011e-08
6.88832e-06
-8.30565e-08
-5.52281e-08
7.19099e-06
-1.04321e-07
-1.42223e-07
7.14405e-06
-6.13031e-08
-9.30001e-08
6.62879e-06
5.65636e-08
5.81759e-06
-1.1896e-08
1.25317e-07
-5.6424e-07
-3.5201e-07
5.44826e-06
5.23236e-07
3.41146e-07
-5.18712e-07
-5.52086e-07
6.15608e-06
5.20255e-07
-3.09677e-07
-7.98242e-07
6.74398e-06
7.45194e-07
-3.40222e-08
-7.72843e-07
6.897e-06
9.02501e-07
2.33377e-07
-8.0659e-07
6.85474e-06
9.15109e-07
4.32921e-07
-8.5034e-07
6.54368e-06
7.80567e-07
-5.83881e-07
5.81276e-06
4.68498e-07
5.67087e-07
-7.52761e-07
-2.72432e-07
6.09494e-06
6.71039e-07
-6.33706e-07
-4.02788e-07
6.81897e-06
-2.04199e-07
-2.60694e-07
5.50189e-06
5.17305e-09
-2.01245e-07
4.10611e-06
2.01044e-07
-1.2474e-07
4.17124e-06
6.19154e-07
-3.0968e-07
5.61584e-06
-4.24081e-07
6.51504e-06
6.83634e-07
-9.53118e-07
-7.71639e-08
6.58706e-06
8.1924e-07
-4.86903e-07
-1.12536e-07
6.67754e-06
-1.07588e-07
-4.6281e-08
3.0073e-06
-9.38037e-09
-2.36391e-08
2.0013e-06
6.14725e-08
9.04383e-09
2.36677e-06
5.26974e-07
-2.97793e-08
2.99761e-06
-9.74824e-08
6.46352e-06
9.10858e-07
-9.90926e-07
1.42923e-07
6.78905e-06
8.62816e-07
-4.75169e-07
1.18458e-07
6.43038e-06
-3.39531e-08
1.89575e-08
2.98571e-06
2.38483e-08
1.13084e-08
2.38417e-06
6.2746e-09
-1.10965e-08
2.71539e-06
2.04251e-07
3.75356e-08
2.71025e-06
1.47156e-07
6.13627e-06
9.50181e-07
-9.52154e-07
3.5096e-07
6.59751e-06
8.10891e-07
-5.2099e-07
4.33512e-07
6.6006e-06
-6.53419e-08
2.79577e-07
2.99683e-06
-1.09414e-09
1.89545e-07
2.14639e-06
8.58103e-08
1.64806e-07
2.28756e-06
6.01106e-07
4.12508e-07
3.3881e-06
5.04546e-07
6.53685e-06
9.09294e-07
-7.32563e-07
4.31118e-07
6.12157e-06
6.49219e-07
-6.01962e-07
6.06645e-07
6.76346e-06
-2.02942e-07
8.53152e-07
5.57983e-06
2.95422e-09
9.05448e-07
4.60282e-06
2.31916e-07
9.31223e-07
4.6808e-06
6.39742e-07
9.17057e-07
6.05821e-06
6.63468e-07
6.52479e-06
6.7131e-07
-5.43595e-07
5.50534e-06
4.96819e-07
4.14929e-07
-5.097e-07
6.18376e-06
5.80052e-07
-3.10127e-07
6.76215e-06
7.96017e-07
-3.54712e-08
6.97578e-06
9.54127e-07
2.33932e-07
6.93204e-06
9.69208e-07
4.20981e-07
6.51393e-06
8.44652e-07
5.81176e-06
4.45613e-07
6.44398e-07
-6.57094e-07
-3.99064e-07
5.55521e-06
5.7577e-07
3.73778e-07
-6.50604e-07
-6.78697e-07
6.23983e-06
5.88715e-07
-4.44546e-07
-1.09027e-06
6.78284e-06
8.82106e-07
-4.42226e-08
-1.34566e-06
7.03003e-06
1.1279e-06
3.4913e-07
-1.35881e-06
6.96269e-06
1.13279e-06
5.35272e-07
-1.0998e-06
6.56293e-06
8.95628e-07
-6.92978e-07
5.8813e-06
5.32096e-07
6.27093e-07
-9.29274e-07
-3.24156e-07
6.18835e-06
7.60783e-07
-9.25422e-07
-5.81834e-07
6.92866e-06
-4.29921e-07
-6.26636e-07
6.45382e-06
-3.39997e-09
-4.98362e-07
5.48739e-06
4.36005e-07
-4.54303e-07
5.4801e-06
8.71239e-07
-6.85515e-07
6.4707e-06
-5.85012e-07
6.59158e-06
8.12948e-07
-1.25571e-06
-8.89113e-08
6.64558e-06
9.62158e-07
-1.04712e-06
-1.79757e-07
7.17686e-06
-2.76695e-07
-1.11032e-07
4.40529e-06
5.50162e-09
-6.92313e-08
2.10527e-06
2.88709e-07
-1.01465e-07
2.09021e-06
1.07479e-06
-1.29063e-07
4.71063e-06
-1.84768e-07
6.92342e-06
1.15384e-06
-1.36759e-06
2.08932e-07
6.82328e-06
1.03545e-06
-9.40548e-07
2.43576e-07
7.05987e-06
-1.09655e-07
1.19226e-07
3.32522e-06
1.10714e-08
7.30874e-08
2.06809e-06
2.74957e-07
9.41137e-08
2.18145e-06
9.97462e-07
1.63038e-07
3.54844e-06
2.81239e-07
6.85868e-06
1.29557e-06
-1.24586e-06
4.45317e-07
6.65868e-06
9.48352e-07
-1.02229e-06
6.63739e-07
7.13663e-06
-2.54219e-07
6.60281e-07
4.26371e-06
1.40801e-09
5.14878e-07
2.04478e-06
3.54504e-07
5.94996e-07
2.18905e-06
1.12735e-06
8.27322e-07
5.01751e-06
6.95982e-07
6.94652e-06
1.13479e-06
-9.04315e-07
5.09984e-07
6.2255e-06
7.35612e-07
-9.0117e-07
7.70267e-07
6.92733e-06
-4.4702e-07
1.18822e-06
6.71656e-06
-2.3299e-10
1.48791e-06
5.90247e-06
4.86553e-07
1.50622e-06
6.1093e-06
8.59751e-07
1.1834e-06
6.86168e-06
7.9314e-07
6.58987e-06
7.79596e-07
-6.31967e-07
5.63136e-06
5.49609e-07
4.66184e-07
-6.35409e-07
6.28369e-06
6.73251e-07
-4.42899e-07
6.80224e-06
9.56607e-07
-4.5032e-08
7.06666e-06
1.19291e-06
3.33642e-07
6.98398e-06
1.19413e-06
5.04212e-07
6.55448e-06
9.72427e-07
5.89926e-06
4.94719e-07
7.14588e-07
-3.58799e-07
-1.30096e-07
5.60197e-06
3.13955e-07
1.28306e-07
-3.70584e-07
-2.6509e-07
6.29382e-06
2.25179e-07
-2.96324e-07
-5.00491e-07
6.84204e-06
3.80475e-07
-7.69688e-08
-7.96552e-07
7.13565e-06
5.46171e-07
1.47863e-07
-8.13946e-07
7.04656e-06
5.61813e-07
2.30503e-07
-5.26732e-07
6.59113e-06
4.19062e-07
-3.17819e-07
5.9006e-06
2.33148e-07
2.96618e-07
-4.82978e-07
-1.00136e-07
6.24811e-06
3.93062e-07
-5.25294e-07
-2.57107e-07
7.04134e-06
-3.72166e-07
-4.62763e-07
7.28859e-06
-3.33108e-08
-5.95377e-07
7.19126e-06
2.99478e-07
-6.03123e-07
7.08726e-06
4.19525e-07
-4.85104e-07
7.1464e-06
-2.86133e-07
6.65507e-06
3.70805e-07
-6.65549e-07
8.00395e-09
6.70977e-06
4.94108e-07
-8.05791e-07
-7.5931e-08
7.5777e-06
-3.46068e-07
-1.41035e-07
6.83143e-06
4.91192e-09
-4.30301e-08
3.95914e-06
3.41412e-07
-7.21736e-08
3.68855e-06
7.41944e-07
-1.7179e-07
6.78892e-06
-9.01777e-08
7.19566e-06
5.64739e-07
-7.50302e-07
1.57158e-07
6.88947e-06
5.35735e-07
-8.88535e-07
2.10079e-07
7.76136e-06
-1.11028e-07
1.86176e-07
6.31601e-06
2.35648e-08
4.08188e-08
1.79648e-06
2.11818e-07
7.65443e-08
1.79135e-06
9.05093e-07
2.51383e-07
6.39019e-06
2.37507e-07
7.36104e-06
6.75914e-07
-6.44704e-07
2.53264e-07
6.73112e-06
4.76971e-07
-7.83265e-07
3.89683e-07
7.61031e-06
-3.26631e-07
5.63412e-07
6.97988e-06
7.77869e-09
6.73777e-07
4.11148e-06
3.93028e-07
7.37785e-07
4.57659e-06
7.10417e-07
6.25373e-07
7.16029e-06
4.18643e-07
7.18209e-06
5.35645e-07
-4.56026e-07
2.62707e-07
6.30346e-06
3.68817e-07
-5.04933e-07
3.88292e-07
7.0753e-06
-3.87394e-07
6.12165e-07
7.50658e-06
-2.70414e-08
8.91641e-07
7.64097e-06
3.06319e-07
8.90503e-07
7.60963e-06
3.83702e-07
6.37924e-07
7.31785e-06
4.38675e-07
6.65618e-06
3.28816e-07
-3.33258e-07
5.7046e-06
2.93958e-07
2.28834e-07
-3.5205e-07
6.36376e-06
3.2918e-07
-2.8795e-07
6.87643e-06
4.75813e-07
-8.2667e-08
7.1386e-06
6.27393e-07
1.15814e-07
7.04278e-06
6.38027e-07
1.88907e-07
6.60755e-06
5.13437e-07
5.94496e-06
1.89009e-07
3.93334e-07
-2.15036e-08
1.6236e-07
5.58208e-06
1.91176e-08
-1.40308e-07
-4.7741e-08
1.93378e-07
6.29804e-06
-1.71172e-07
-9.35509e-08
1.80725e-07
6.8784e-06
-1.71331e-07
-1.01547e-07
8.29573e-08
7.17994e-06
-1.1879e-07
-9.29737e-08
5.54715e-08
7.07306e-06
-8.97565e-08
-1.06074e-07
1.14902e-07
6.58435e-06
-9.49255e-08
9.20705e-08
5.85174e-06
-9.11622e-08
-5.78486e-08
2.35198e-08
1.4399e-07
6.26014e-06
-1.7217e-08
5.42098e-10
1.45566e-07
7.10893e-06
-7.2829e-08
1.01455e-07
7.38442e-06
-7.48001e-08
-4.30712e-08
7.39829e-06
-7.24845e-08
-6.00163e-08
7.26565e-06
-1.24202e-07
6.6925e-08
7.22541e-06
7.70693e-08
6.65618e-06
-1.10115e-07
2.46164e-08
1.12648e-07
6.75161e-06
-3.50508e-08
-3.93136e-08
9.49802e-08
7.69199e-06
-1.02627e-07
1.02589e-08
7.05624e-06
-1.63771e-08
-4.4584e-08
5.62499e-06
1.02138e-08
-5.52814e-08
4.77703e-06
-6.16643e-08
-1.94122e-09
6.96242e-06
7.02631e-08
7.24014e-06
-9.56011e-08
1.54636e-08
7.93144e-08
6.94624e-06
-3.83145e-08
-9.40246e-08
7.91313e-08
7.90987e-06
-1.04854e-07
8.09976e-08
7.71268e-06
9.4816e-09
6.32629e-08
1.99843e-06
1.00369e-07
8.19754e-08
2.48653e-06
1.31538e-08
1.13231e-07
7.28927e-06
1.04876e-07
7.43207e-06
-7.16555e-08
4.3459e-08
2.93356e-08
6.78683e-06
-4.89099e-08
-1.89519e-08
1.89982e-08
7.75121e-06
-9.01821e-08
1.91195e-08
7.37018e-06
-2.07277e-08
1.60208e-07
6.34383e-06
2.24146e-09
1.76731e-07
6.28738e-06
-9.28277e-08
6.82931e-08
7.34317e-06
8.11679e-08
7.2418e-06
-1.26195e-07
4.34162e-08
-1.67041e-08
6.34139e-06
-3.51615e-08
8.96491e-09
-3.95612e-08
7.16754e-06
-8.07261e-08
-3.66141e-08
7.62659e-06
-8.28194e-08
4.20626e-08
7.88785e-06
-8.84549e-08
6.51146e-08
7.78356e-06
-1.53773e-07
2.89471e-08
7.40268e-06
4.99635e-08
6.6857e-06
-1.51523e-07
-1.79287e-09
5.71942e-06
8.87893e-09
-3.85767e-08
-3.28439e-08
6.40752e-06
-5.17015e-08
-8.83333e-08
6.94934e-06
-5.3473e-08
-1.12675e-07
7.21616e-06
-1.03413e-08
-1.25757e-07
7.10741e-06
1.40523e-08
-1.48501e-07
6.64231e-06
1.73345e-08
5.93702e-06
-1.3651e-07
4.60431e-08
2.21699e-07
3.81609e-07
5.49843e-06
-1.88897e-07
-3.31044e-07
1.89362e-07
5.60558e-07
6.2314e-06
-4.61602e-07
5.36421e-08
7.4477e-07
6.8502e-06
-5.80741e-07
-1.25827e-07
7.95834e-07
7.17727e-06
-6.13636e-07
-2.76422e-07
7.42364e-07
7.04701e-06
-5.65621e-07
-3.51566e-07
6.16395e-07
6.50272e-06
-4.5947e-07
3.94647e-07
5.72379e-06
-3.15944e-07
-3.0228e-07
4.1255e-07
3.36554e-07
6.20853e-06
-3.15844e-07
4.09218e-07
4.89917e-07
7.10844e-06
1.87779e-07
5.57119e-07
7.367e-06
-1.10031e-07
4.06455e-07
7.42934e-06
-3.95782e-07
3.63695e-07
7.26133e-06
-5.52261e-07
5.16554e-07
7.25493e-06
3.6795e-07
6.58659e-06
-4.56218e-07
5.73117e-07
1.97697e-07
6.74747e-06
-4.30201e-07
5.11002e-07
2.4138e-07
7.71902e-06
1.41321e-07
1.76029e-07
6.39444e-06
-4.65333e-08
3.61839e-08
5.79545e-06
-2.64686e-07
3.19905e-08
4.85984e-06
-7.06817e-07
2.14335e-07
6.68585e-06
2.17214e-07
7.27171e-06
-5.87721e-07
6.26258e-07
2.10122e-08
6.97036e-06
-4.73476e-07
5.482e-07
-3.12486e-08
7.9944e-06
1.42795e-07
-5.33895e-08
7.97149e-06
-2.17715e-09
-1.86191e-08
3.38163e-06
-2.39163e-07
-1.88905e-08
3.47611e-06
-6.90519e-07
-5.60847e-08
7.50174e-06
6.61244e-09
7.48021e-06
-6.47793e-07
5.86178e-07
-1.40308e-07
6.80351e-06
-4.41571e-07
5.5434e-07
-2.75615e-07
7.90231e-06
1.86365e-07
-4.10532e-07
6.92362e-06
-5.21639e-08
-3.48111e-07
6.59151e-06
-3.48692e-07
-3.31918e-07
6.41472e-06
-7.51465e-07
-3.62607e-07
6.96251e-06
-1.72642e-07
7.30029e-06
-6.30803e-07
4.33661e-07
-2.26103e-07
6.32721e-06
-3.33612e-07
4.34018e-07
-3.76283e-07
7.23537e-06
2.03135e-07
-5.58638e-07
7.67185e-06
-1.14744e-07
-6.17096e-07
7.94865e-06
-4.27825e-07
-5.79186e-07
7.73771e-06
-5.99832e-07
-4.52316e-07
7.41815e-06
-2.39582e-07
6.66703e-06
-5.14392e-07
2.46073e-07
5.67887e-06
-1.96793e-07
-2.34733e-07
2.1374e-07
6.39986e-06
-3.36356e-07
6.53352e-08
6.99567e-06
-4.56473e-07
-1.35616e-07
7.2979e-06
-4.97882e-07
-3.15815e-07
7.16704e-06
-4.58651e-07
-4.09744e-07
6.63436e-06
-3.50445e-07
5.86458e-06
-3.73966e-07
-2.03076e-07
2.39659e-07
4.16047e-07
5.38955e-06
-2.03086e-07
-3.44004e-07
2.15363e-07
6.48046e-07
6.09957e-06
-4.91792e-07
7.33787e-08
9.13647e-07
6.71218e-06
-6.33422e-07
-1.49219e-07
1.05095e-06
7.04105e-06
-6.92238e-07
-3.23482e-07
9.55469e-07
6.89004e-06
-6.24365e-07
-3.82523e-07
7.22764e-07
6.32041e-06
-4.81404e-07
4.30434e-07
5.54431e-06
-3.25974e-07
-3.07554e-07
4.75951e-07
3.91927e-07
6.10065e-06
-3.43776e-07
4.96924e-07
6.32563e-07
6.94514e-06
2.41953e-07
6.72571e-07
6.92593e-06
-1.41852e-07
5.19758e-07
6.34858e-06
-4.7909e-07
4.29074e-07
6.13668e-06
-6.43699e-07
6.42384e-07
6.92671e-06
4.50947e-07
6.40816e-06
-4.86236e-07
7.22793e-07
2.41846e-07
6.66347e-06
-4.88748e-07
6.14935e-07
3.47859e-07
7.17307e-06
1.75951e-07
3.54626e-07
4.00692e-06
-9.58027e-08
1.66214e-07
4.28217e-06
-2.72365e-07
1.31613e-07
3.17146e-06
-7.94293e-07
3.51234e-07
5.23508e-06
2.9363e-07
7.0962e-06
-6.67036e-07
8.39966e-07
1.63182e-08
6.91361e-06
-5.57556e-07
7.65124e-07
-5.04388e-08
7.45098e-06
2.19748e-07
-1.18335e-07
6.53545e-06
-6.14359e-08
-2.12168e-08
3.96681e-06
-3.2797e-07
-2.27459e-08
3.57409e-06
-9.0256e-07
-1.06764e-07
5.73082e-06
3.45895e-09
7.17521e-06
-7.87334e-07
7.50508e-07
-1.73562e-07
6.74829e-06
-5.0557e-07
7.37259e-07
-3.65396e-07
7.65854e-06
3.01207e-07
-5.25973e-07
4.53139e-06
-1.24794e-07
-4.65758e-07
5.34421e-06
-4.50861e-07
-4.1166e-07
4.56997e-06
-9.012e-07
-4.52483e-07
5.27586e-06
-2.21447e-07
7.19634e-06
-7.39268e-07
5.19074e-07
-2.60223e-07
6.2636e-06
-3.68867e-07
5.75126e-07
-4.52165e-07
7.16848e-06
3.10778e-07
-7.36208e-07
7.1926e-06
-1.5336e-07
-8.94355e-07
6.39205e-06
-5.64075e-07
-8.20478e-07
6.18608e-06
-7.45963e-07
-5.71277e-07
7.01567e-06
-2.76342e-07
6.54825e-06
-5.72798e-07
2.79059e-07
5.61497e-06
-2.14153e-07
-2.61142e-07
2.66976e-07
6.33759e-06
-3.7801e-07
1.05378e-07
6.95542e-06
-5.34475e-07
-1.6303e-07
7.28517e-06
-6.13333e-07
-3.89122e-07
7.12753e-06
-5.55071e-07
-4.69044e-07
6.53974e-06
-3.96974e-07
5.74209e-06
-4.01235e-07
-2.21894e-07
-1.54296e-09
2.1744e-07
5.35706e-06
-1.82207e-08
-1.65151e-07
-3.41476e-08
3.14559e-07
6.03297e-06
-2.15276e-07
-7.93973e-08
3.82309e-07
6.60305e-06
-2.27838e-07
-1.48602e-07
4.03245e-07
6.89982e-06
-2.06179e-07
-1.63615e-07
2.69791e-07
6.73222e-06
-1.4636e-07
-1.42231e-07
2.19858e-07
6.18082e-06
-1.01973e-07
1.24577e-07
5.44056e-06
-1.06788e-07
-5.64664e-08
8.83964e-08
2.32813e-07
6.05993e-06
-6.29484e-08
9.01905e-08
3.65064e-07
6.83304e-06
1.69716e-08
3.21639e-07
6.68334e-06
-1.2714e-07
1.993e-07
5.86391e-06
-2.05228e-07
1.56123e-07
5.65453e-06
-2.13123e-07
2.68403e-07
6.65465e-06
1.90709e-07
6.2609e-06
-1.3501e-07
1.92016e-07
1.933e-07
6.62668e-06
-1.15815e-07
1.71375e-07
2.70952e-07
6.80934e-06
3.27693e-08
1.8505e-07
3.33112e-06
-5.533e-08
1.2871e-07
2.29688e-06
-8.60316e-08
7.38957e-08
2.03151e-06
-2.54166e-07
1.83076e-07
4.84185e-06
2.04874e-07
6.84817e-06
-1.71571e-07
2.90816e-07
7.7474e-08
6.89468e-06
-1.56146e-07
2.6006e-07
5.45575e-08
6.9696e-06
5.09717e-08
-2.89697e-09
3.09439e-06
-1.19884e-07
4.59096e-09
3.12036e-06
-6.46793e-08
3.19696e-08
2.07783e-06
-3.41476e-07
2.83838e-09
3.96923e-06
9.43105e-08
6.88238e-06
-2.48437e-07
2.19142e-07
-1.16406e-08
6.74532e-06
-1.27257e-07
2.31621e-07
-7.53387e-08
7.43256e-06
5.57553e-08
-1.4941e-07
3.42437e-06
-9.17451e-08
-9.68668e-08
2.04018e-06
-1.19766e-07
-6.29107e-08
1.93862e-06
-3.37532e-07
-6.49944e-08
4.82102e-06
4.13604e-08
6.96385e-06
-2.42169e-07
1.25564e-07
-6.79359e-08
6.27158e-06
-7.75783e-08
1.59141e-07
-1.17216e-07
7.12545e-06
6.71798e-08
-1.98291e-07
6.89493e-06
-1.4043e-07
-2.5038e-07
5.03064e-06
-2.75123e-07
-1.60871e-07
5.0838e-06
-3.24188e-07
-6.9592e-08
6.73398e-06
2.40057e-08
6.45808e-06
-2.17092e-07
3.04089e-08
5.62798e-06
-1.67654e-08
-9.45177e-08
1.79523e-08
6.34338e-06
-1.11298e-07
-4.54871e-08
6.9462e-06
-1.43362e-07
-1.79567e-07
7.16727e-06
-1.56202e-07
-2.43358e-07
7.01367e-06
-9.3223e-08
-2.31261e-07
6.48242e-06
-2.46209e-08
5.68784e-06
-1.7537e-07
2.21952e-08
-1.60916e-07
7.09692e-08
5.40579e-06
8.90776e-08
-4.73708e-08
-2.25262e-07
4.57643e-08
6.08054e-06
-2.89566e-08
-2.23265e-07
-8.75107e-08
6.62401e-06
6.4522e-08
-1.43596e-07
-2.34563e-07
6.88023e-06
1.67847e-07
-2.97525e-08
-2.94038e-07
6.70194e-06
2.06311e-07
1.93767e-08
-1.79749e-07
6.16085e-06
1.50316e-07
-9.96843e-08
5.43488e-06
2.22632e-08
1.02328e-07
-2.05581e-07
8.94961e-08
6.12908e-06
1.17936e-07
-2.7714e-07
9.3917e-08
6.88994e-06
-2.10968e-07
2.58441e-08
6.97466e-06
-1.06376e-07
-9.18217e-09
6.19326e-06
2.76373e-08
-6.05115e-08
6.07372e-06
1.11595e-07
-9.32172e-08
6.77341e-06
-5.52975e-08
6.23466e-06
9.24473e-08
-2.70807e-07
1.18615e-07
6.71241e-06
1.55818e-07
-2.20767e-07
1.43303e-07
6.83296e-06
-5.51924e-08
5.54536e-08
3.44468e-06
-3.72994e-08
1.87986e-08
1.94759e-06
2.55975e-08
1.42859e-08
1.97029e-06
2.4249e-07
4.36693e-08
5.36334e-06
7.061e-08
6.82123e-06
1.93048e-07
-2.83335e-07
1.26365e-07
7.00036e-06
1.69757e-07
-1.65995e-07
1.63085e-07
6.99639e-06
7.88899e-10
6.31142e-08
2.67766e-06
-1.26274e-08
4.83084e-08
1.74828e-06
-3.20631e-09
5.1398e-08
1.65803e-06
2.0865e-07
1.21868e-07
3.99443e-06
1.84075e-07
6.85251e-06
2.16028e-07
-2.7765e-07
1.1296e-07
6.87133e-06
1.64866e-07
-2.3202e-07
2.03476e-07
7.49578e-06
-4.92081e-08
1.82978e-07
3.5803e-06
-3.51592e-08
1.07338e-07
1.55903e-06
-2.27806e-09
1.55277e-07
1.71983e-06
1.8083e-07
2.98473e-07
5.16347e-06
2.63891e-07
6.94263e-06
1.50627e-07
-2.09233e-07
6.33535e-08
6.4001e-06
1.30087e-07
-2.65688e-07
1.51551e-07
7.22005e-06
-1.57695e-07
2.87811e-07
7.00278e-06
-1.1177e-07
3.49604e-07
5.12496e-06
-4.42011e-08
4.06857e-07
5.13642e-06
3.42203e-08
3.35397e-07
6.78463e-06
2.36875e-07
6.48343e-06
3.57866e-08
-1.60383e-07
5.72929e-06
1.15398e-07
7.04766e-09
-2.09235e-07
6.47019e-06
7.03921e-08
-2.14063e-07
7.03892e-06
1.63863e-07
-1.77516e-07
7.17814e-06
2.43993e-07
-9.68555e-08
7.03283e-06
2.79003e-07
-4.96296e-08
6.53219e-06
2.34402e-07
5.72479e-06
-2.42008e-08
1.7455e-07
-1.42065e-09
2.12971e-07
5.42686e-06
-6.16757e-08
-1.70735e-07
-1.09002e-07
2.67341e-07
6.14311e-06
-2.22401e-07
-1.86697e-07
1.84022e-07
6.7013e-06
-1.83715e-07
-1.79802e-07
2.83812e-08
6.94031e-06
-9.47261e-08
-1.47379e-07
-5.73629e-09
6.73671e-06
-5.82539e-08
-1.43969e-07
5.52542e-08
6.16981e-06
-6.77201e-08
5.89527e-08
5.41078e-06
-1.32496e-07
-4.65311e-08
1.56006e-08
2.06359e-07
6.21596e-06
-9.58732e-08
-1.45062e-07
2.64958e-07
7.01187e-06
-2.20581e-07
1.42783e-07
7.45421e-06
-1.6045e-07
9.64411e-09
7.33819e-06
-1.08791e-07
-1.32125e-08
7.02823e-06
-1.30911e-07
3.02406e-08
6.95836e-06
5.67457e-08
6.24405e-06
-1.37719e-07
-9.74443e-09
1.65614e-07
6.8594e-06
-1.07723e-07
-1.56277e-07
2.22998e-07
7.15414e-06
-7.56096e-08
7.44789e-08
5.26045e-06
-4.03077e-08
1.92972e-08
2.24018e-06
-2.87282e-08
2.25456e-08
2.9775e-06
-2.21384e-08
5.2531e-08
6.6951e-06
8.99968e-08
6.90185e-06
-8.92938e-08
-3.45382e-08
8.47819e-08
7.15452e-06
-1.06413e-07
-1.40819e-07
1.74612e-07
7.45039e-06
-8.7591e-10
9.29955e-08
3.52451e-06
-3.43963e-09
5.80486e-08
1.71039e-06
-7.94603e-09
4.06958e-08
1.57463e-06
4.35238e-08
1.46156e-07
5.6785e-06
1.50689e-07
7.04198e-06
-5.42487e-08
-2.72806e-08
-1.8391e-08
7.03261e-06
-1.04153e-07
-2.47385e-07
5.99944e-08
7.90504e-06
-1.04957e-07
1.71559e-07
5.73668e-06
-2.48122e-08
1.25761e-07
1.65116e-06
-4.71325e-08
1.24781e-07
2.18888e-06
-6.17638e-08
2.1545e-07
6.75168e-06
1.40987e-07
7.0672e-06
-1.22091e-07
2.83609e-08
-1.16531e-07
6.56829e-06
-1.00506e-07
-1.67372e-07
-1.02511e-07
7.22878e-06
-2.35234e-07
2.47958e-08
7.49495e-06
-1.79477e-07
1.6328e-07
6.35253e-06
-1.85906e-07
1.6941e-07
6.00771e-06
-2.13296e-07
9.93222e-08
7.03391e-06
6.36159e-08
6.54095e-06
-1.93391e-07
1.08537e-08
5.81019e-06
-4.49844e-08
-1.63276e-07
-9.91647e-08
6.6296e-06
-1.76097e-07
-2.06033e-07
7.158e-06
-1.221e-07
-2.42601e-07
7.30204e-06
-3.58044e-08
-2.37861e-07
7.14862e-06
-4.33435e-10
-2.24201e-07
6.60585e-06
-4.47254e-09
5.74128e-06
-1.80239e-07
3.26286e-09
3.11497e-07
4.82256e-07
5.2984e-06
-3.00054e-07
-3.6571e-07
1.78578e-07
7.79621e-07
6.06165e-06
-5.65353e-07
-4.7216e-08
9.13406e-07
6.69551e-06
-6.81867e-07
-2.50143e-07
7.85803e-07
6.90811e-06
-6.66462e-07
-3.97541e-07
7.85453e-07
6.69977e-06
-6.01048e-07
-4.43961e-07
6.48082e-07
6.04408e-06
-4.75725e-07
3.94168e-07
5.2435e-06
-3.73682e-07
-2.97211e-07
5.57337e-07
4.59143e-07
6.16105e-06
-4.89099e-07
3.1545e-07
6.74481e-07
6.82763e-06
-5.50621e-08
5.54402e-07
7.53707e-06
-2.84746e-07
3.05098e-07
7.58824e-06
-5.43223e-07
3.22638e-07
7.17654e-06
-6.98145e-07
4.99514e-07
6.85608e-06
3.72625e-07
6.12427e-06
-5.566e-07
6.57734e-07
2.62297e-07
6.809e-06
-6.52933e-07
1.95071e-07
3.3484e-07
6.85974e-06
-4.81469e-08
1.40397e-07
5.8308e-06
-7.82455e-08
2.12425e-08
2.93803e-06
-3.06782e-07
2.09655e-08
3.82931e-06
-7.32464e-07
1.90205e-07
6.83558e-06
2.19938e-07
6.82265e-06
-6.90047e-07
6.33377e-07
-2.31726e-08
6.90424e-06
-7.1792e-07
7.78205e-08
6.35071e-08
7.43785e-06
7.37521e-09
6.3762e-08
5.23186e-06
2.2587e-10
2.09208e-08
1.73106e-06
-9.84285e-08
2.30913e-08
1.61322e-06
-6.03659e-07
6.89745e-08
6.14871e-06
3.54978e-08
7.02382e-06
-7.2273e-07
6.48494e-07
-3.00737e-07
6.87086e-06
-6.83394e-07
6.02552e-08
-3.2015e-07
6.45359e-06
-9.33776e-08
-5.99521e-08
6.88239e-06
-4.14346e-08
-1.26058e-08
2.39716e-06
-2.79969e-07
-4.93155e-08
2.88127e-06
-7.59372e-07
-1.91599e-07
7.01732e-06
-1.73347e-07
7.00504e-06
-7.30585e-07
6.2229e-07
-4.58457e-07
6.5469e-06
-5.4862e-07
2.62515e-07
-6.57975e-07
6.31891e-06
-1.77739e-07
-6.07943e-07
6.17212e-06
-2.80537e-07
-4.19996e-07
6.77658e-06
-5.3693e-07
-4.61604e-07
6.19494e-06
-8.28238e-07
-4.99666e-07
6.78866e-06
-3.04357e-07
6.48004e-06
-6.36114e-07
3.97751e-07
5.71282e-06
-3.24668e-07
-4.34006e-07
2.46268e-07
6.56202e-06
-6.37705e-07
-5.64167e-08
6.86603e-06
-7.59752e-07
-3.30594e-07
6.83293e-06
-7.31644e-07
-5.37452e-07
6.97901e-06
-6.42553e-07
-5.75881e-07
6.51393e-06
-4.87738e-07
5.59828e-06
-4.44616e-07
-2.92311e-07
2.20271e-07
2.81217e-07
5.06731e-06
-1.34038e-07
-1.37473e-07
1.88008e-07
6.26588e-07
5.77469e-06
-3.07174e-07
-3.07297e-09
7.79414e-07
6.2213e-06
-4.68904e-07
-2.03389e-07
7.21431e-07
6.21153e-06
-4.92118e-07
-3.31113e-07
6.78645e-07
6.17969e-06
-4.20226e-07
-3.16662e-07
5.89241e-07
5.72631e-06
-2.8546e-07
2.74851e-07
4.98351e-06
-2.01878e-07
-1.29113e-07
5.12457e-07
3.11145e-07
5.80823e-06
-3.05463e-07
3.75793e-07
4.78022e-07
5.40329e-06
5.13029e-08
4.34767e-07
4.76133e-06
-2.94659e-07
2.68251e-07
5.17784e-06
-5.09617e-07
2.62741e-07
4.75248e-06
-6.19189e-07
4.66988e-07
5.47169e-06
3.17003e-07
5.73861e-06
-3.84353e-07
5.85524e-07
1.51391e-07
5.92852e-06
-4.78614e-07
2.40923e-07
2.20282e-07
3.77834e-06
-1.79637e-08
2.26139e-07
3.97602e-06
-1.27756e-07
4.57275e-08
3.01777e-06
-2.86628e-07
2.25879e-08
3.41531e-06
-6.97195e-07
2.30018e-07
4.5033e-06
1.80716e-07
5.95156e-06
-5.63563e-07
5.15661e-07
-6.18773e-08
5.56401e-06
-5.62381e-07
1.55778e-07
-7.74579e-08
4.55272e-06
-1.03738e-07
7.49079e-09
5.36886e-06
-5.3838e-08
2.80369e-08
1.70967e-06
-1.22527e-07
2.54192e-08
1.64832e-06
-5.80809e-07
-9.10408e-10
4.59582e-06
-1.07739e-08
5.71091e-06
-6.28346e-07
5.08777e-07
-2.80661e-07
5.66623e-06
-5.11954e-07
1.75951e-07
-2.39701e-07
4.83507e-06
-8.18034e-08
-2.07617e-07
7.87024e-06
-1.34246e-07
-1.03248e-07
2.89717e-06
-2.64979e-07
-8.19649e-08
2.80835e-06
-6.94295e-07
-2.94914e-07
4.83482e-06
-1.94817e-07
6.00191e-06
-5.8489e-07
5.17611e-07
-3.54259e-07
5.92774e-06
-3.38539e-07
2.28185e-07
-5.35377e-07
3.92542e-06
3.73484e-08
-4.8231e-07
3.45247e-06
-2.60321e-07
-4.08587e-07
5.00978e-06
-4.43095e-07
-4.29848e-07
3.84893e-06
-6.79135e-07
-4.99802e-07
4.6403e-06
-2.52768e-07
5.99513e-06
-4.2292e-07
3.10219e-07
5.4327e-06
-1.45492e-07
-2.54878e-07
2.75692e-07
5.78314e-06
-4.53373e-07
-6.61205e-09
5.15728e-06
-6.7318e-07
-2.15167e-07
4.74004e-06
-6.65924e-07
-4.13545e-07
5.44959e-06
-5.34401e-07
-4.19066e-07
5.89601e-06
-3.47717e-07
5.30883e-06
-2.34382e-07
-1.47595e-07
-5.32792e-07
-6.21997e-07
5.02182e-06
5.68413e-07
6.31569e-07
-3.57415e-07
-7.58004e-07
5.54498e-06
8.14623e-07
-1.39384e-07
-6.23588e-07
5.6743e-06
9.40003e-07
4.58922e-08
-5.86076e-07
5.56805e-06
9.79837e-07
2.93598e-07
-6.56412e-07
5.63442e-06
9.51119e-07
4.72667e-07
-7.27006e-07
5.48331e-06
7.95169e-07
-5.76371e-07
4.91905e-06
5.1295e-07
6.00921e-07
-6.15707e-07
-4.564e-07
5.52368e-06
7.50537e-07
-1.97628e-07
-2.48242e-07
4.54136e-06
-5.73828e-08
-7.66606e-08
3.21315e-06
-9.30324e-09
-7.28726e-08
2.91702e-06
1.65506e-07
-1.29298e-07
3.17481e-06
5.62199e-07
-2.47871e-07
4.59715e-06
-3.94029e-07
5.43997e-06
6.80889e-07
-4.68678e-07
-1.83248e-07
5.29134e-06
9.32898e-07
-3.26862e-08
-7.56346e-08
2.59769e-06
-3.33737e-09
3.00649e-08
1.49817e-06
-2.81742e-08
-1.52095e-08
1.93589e-06
2.58551e-08
-9.92126e-09
1.67657e-06
4.38654e-07
-1.89337e-08
2.81327e-06
-1.1782e-07
5.28672e-06
8.33992e-07
-3.28491e-07
2.15788e-09
4.9117e-06
1.00203e-06
-3.23639e-08
-1.49897e-08
2.68057e-06
-7.95706e-08
1.17572e-08
2.5417e-06
-4.82735e-08
2.56335e-08
1.63888e-06
-1.22777e-08
1.07265e-08
1.59966e-06
3.54994e-07
2.54929e-08
2.22258e-06
5.96043e-08
4.88795e-06
8.94459e-07
-2.20204e-07
2.19704e-07
5.00139e-06
1.00541e-06
-8.01994e-09
7.12242e-08
2.57511e-06
-8.87488e-08
-2.22585e-08
2.50338e-06
-6.78155e-08
1.79644e-08
2.18348e-06
-5.75019e-10
1.38422e-08
1.79083e-06
4.50746e-07
1.24381e-07
2.77454e-06
2.99736e-07
5.26368e-06
9.08986e-07
-5.78525e-07
4.78432e-07
5.45746e-06
9.00162e-07
-7.78031e-08
4.28489e-07
3.17018e-06
2.02631e-08
1.52181e-07
2.25714e-06
-1.87612e-09
2.504e-07
1.85024e-06
1.07866e-07
3.35925e-07
2.13286e-06
6.0283e-07
5.12024e-07
3.64961e-06
5.48197e-07
5.54981e-06
8.19516e-07
-6.12598e-07
5.28518e-06
6.84745e-07
5.47146e-07
-2.86293e-07
5.22758e-06
7.66722e-07
-8.06718e-08
4.26363e-06
8.73212e-07
4.61865e-08
4.04269e-06
8.61639e-07
3.05689e-07
4.58056e-06
9.58233e-07
5.70761e-07
5.40597e-06
8.12161e-07
5.17889e-06
6.20015e-07
6.24938e-07
-1.05469e-06
-1.19911e-06
5.22435e-06
9.85985e-07
1.06401e-06
-8.48636e-07
-1.76233e-06
5.64997e-06
1.50722e-06
-3.22835e-07
-2.00596e-06
5.76211e-06
1.94201e-06
2.80318e-07
-1.94284e-06
5.68527e-06
2.12419e-06
8.15655e-07
-2.00811e-06
5.73852e-06
1.9414e-06
1.01851e-06
-1.7487e-06
5.58325e-06
1.48959e-06
-1.15916e-06
5.11353e-06
9.45177e-07
1.03597e-06
-1.54625e-06
-1.03241e-06
5.63523e-06
1.4299e-06
-9.0347e-07
-1.02452e-06
5.12064e-06
-2.15971e-07
-7.1134e-07
3.75746e-06
1.93493e-07
-4.37865e-07
2.95514e-06
8.77905e-07
-6.11053e-07
3.69197e-06
1.53086e-06
-1.0603e-06
5.12444e-06
-9.93985e-07
5.54292e-06
1.38573e-06
-1.71277e-06
-4.84846e-07
5.62872e-06
1.95079e-06
-5.71855e-07
-3.14984e-07
3.54134e-06
-8.86629e-08
-2.00992e-07
1.73837e-06
8.98562e-08
-1.02186e-07
1.4231e-06
4.64576e-07
-1.1883e-07
1.49516e-06
1.69551e-06
-2.49718e-07
3.30121e-06
-4.2485e-07
5.54633e-06
1.88806e-06
-1.70769e-06
1.07738e-07
5.51914e-06
2.25163e-06
-5.57092e-07
7.38821e-08
2.7329e-06
-4.95691e-08
4.59356e-08
1.78876e-06
6.17566e-08
2.94106e-08
1.39248e-06
2.39783e-07
4.49066e-08
1.2594e-06
1.5131e-06
9.53939e-08
2.31754e-06
1.81143e-07
5.29593e-06
2.17641e-06
-1.73239e-06
6.93542e-07
5.60867e-06
2.16299e-06
-5.9221e-07
5.97216e-07
3.08449e-06