/*--------------------------------*- C++ -*----------------------------------*\
| =========                 |                                                 |
| \\      /  F ield         | OpenFOAM: The Open Source CFD Toolbox           |
|  \\    /   O peration     | Version:  plus.master.MPPICInterFoam            |
|   \\  /    A nd           | Web:      www.OpenFOAM.com                      |
|    \\/     M anipulation  |                                                 |
\*---------------------------------------------------------------------------*/
FoamFile
{
    version     2.0;
    format      ascii;
    class       volScalarField;
    location    "4.6";
    object      nut;
}
// * * * * * * * * * * * * * * * * * * * * * * * * * * * * * * * * * * * * * //

dimensions      [0 2 -1 0 0 0 0];

internalField   nonuniform List<scalar> 
11821
(
0.000571442
0.000582086
0.000542535
0.000545653
0.000532393
0.000507021
0.000505017
0.000535147
0.000558001
0.000573019
0.000572342
0.000556962
0.000530674
0.000528678
0.000564006
0.000601084
0.000631738
0.000627045
0.000598441
0.000562308
0.000542189
0.000585815
0.000631984
0.000679653
0.000691121
0.000627318
0.000584532
0.000545486
0.000595806
0.000652129
0.000680024
0.000670404
0.000661116
0.000595653
0.000537883
0.000582369
0.000636545
0.000655545
0.00068201
0.0006376
0.000582451
0.000521216
0.000555023
0.000590778
0.000618811
0.000620959
0.00059175
0.000555632
0.000496909
0.00052405
0.000544809
0.000559637
0.000560257
0.000546437
0.000522056
0.000521102
0.000550064
0.000569905
0.000580925
0.000580357
0.000567536
0.000543028
0.000544506
0.000573407
0.000583845
0.000580557
0.000582614
0.000583041
0.000569966
0.000557549
0.00058662
0.000583669
0.000631963
0.000561337
0.000567903
0.00058398
0.000560996
0.00059157
0.000624621
0.000663226
0.000683064
0.000582845
0.000587864
0.000554005
0.000583139
0.000593911
0.000619111
0.0005818
0.000580478
0.000582171
0.000538361
0.000565084
0.000577254
0.000589973
0.00058567
0.000580859
0.000564673
0.000515265
0.000540798
0.000558924
0.000570439
0.000570363
0.000558516
0.000536215
0.000538353
0.000567396
0.000587385
0.000598701
0.000597578
0.000583524
0.000557703
0.000562772
0.000590866
0.000598945
0.000601871
0.000601766
0.000599331
0.000585312
0.000576512
0.000603893
0.000593668
0.000556324
0.000599749
0.000593955
0.000601181
0.000580218
0.000607707
0.000567857
0.000568301
0.000545637
0.000583031
0.000606438
0.000573594
0.000599032
0.000579127
0.00059414
0.000594899
0.000591512
0.000598173
0.000558596
0.000583188
0.000589307
0.000595104
0.000596045
0.00059449
0.000580866
0.000535958
0.000561081
0.000578606
0.000588991
0.000588573
0.000576247
0.000553797
0.00055481
0.000585889
0.000607747
0.000620435
0.000618584
0.000601508
0.000572429
0.000582364
0.000614418
0.000632161
0.00064367
0.000643595
0.00063002
0.000604854
0.000598125
0.000631528
0.00063005
0.000621409
0.000629829
0.000636824
0.000625412
0.000602454
0.000635501
0.000615493
0.000627763
0.000609452
0.000624233
0.000630952
0.000596672
0.000627448
0.000621425
0.000619313
0.000617125
0.000631512
0.000622976
0.000581551
0.000610085
0.00062655
0.000635684
0.000637351
0.000627059
0.000602839
0.000557186
0.000584568
0.000603322
0.000614015
0.00061275
0.000598583
0.000573268
0.000566893
0.000600223
0.000624711
0.000637473
0.000634349
0.000614982
0.000582116
0.000598092
0.000636421
0.000671771
0.000692264
0.000689182
0.000662308
0.000620377
0.000617321
0.000661885
0.000703327
0.000693252
0.00069529
0.00069791
0.000647293
0.000623495
0.000669398
0.000700806
0.000703402
0.000692179
0.000703265
0.000656471
0.000618147
0.000660437
0.000697236
0.000684052
0.000691322
0.000694105
0.000646766
0.000601476
0.000636849
0.000668833
0.000685957
0.000684176
0.000660292
0.000622369
0.000574548
0.000605215
0.000626901
0.000637412
0.000634948
0.000618551
0.000588866
0.000574786
0.000608463
0.000632778
0.000644344
0.000639885
0.000619812
0.000586063
0.000608117
0.000648008
0.000684386
0.000705269
0.000699219
0.000669339
0.000625558
0.000629823
0.00067684
0.000729151
0.000755458
0.000746368
0.000710773
0.000653361
0.000638049
0.000687347
0.000745067
0.000735
0.000729167
0.000727905
0.000664857
0.000633123
0.000678669
0.000730465
0.000757696
0.000752232
0.000712828
0.000656785
0.000615674
0.000653503
0.000687237
0.000706155
0.000701269
0.000673819
0.000632978
0.000587435
0.000619904
0.000642983
0.000653882
0.000650035
0.000631143
0.000598864
0.000581236
0.000614182
0.000636923
0.000647102
0.000641778
0.000621768
0.000588444
0.000615682
0.000655749
0.000692741
0.000713974
0.000706216
0.000672481
0.000627683
0.000638986
0.000689041
0.000744175
0.000762051
0.000754928
0.000718092
0.000656087
0.000648774
0.000701624
0.000754648
0.000764848
0.000766728
0.000734655
0.00067018
0.000644468
0.000692551
0.000748116
0.00076999
0.00076287
0.000725572
0.000662316
0.00062708
0.000666198
0.000702739
0.000724684
0.000718276
0.000684981
0.00063985
0.000598374
0.000631591
0.000654957
0.000666073
0.000661008
0.000640164
0.000606354
0.000587905
0.000619327
0.000638952
0.000647063
0.000641393
0.000622849
0.000591249
0.000622437
0.000658023
0.000685407
0.000704197
0.000694182
0.000665776
0.00062838
0.000645611
0.000689348
0.000728419
0.000760992
0.000732793
0.00069992
0.000654761
0.000656582
0.00070677
0.000766196
0.000787143
0.000767653
0.000732451
0.000669533
0.000653499
0.000696741
0.000742798
0.000784737
0.000767576
0.000712407
0.000662718
0.0006376
0.000674033
0.000704256
0.000728779
0.000718611
0.000683723
0.000643669
0.000609158
0.000642241
0.000663555
0.000673755
0.000667403
0.000646318
0.000613089
0.000596102
0.000627002
0.000644938
0.000651503
0.000645249
0.000627002
0.000596129
0.00063147
0.000663113
0.000680015
0.000687645
0.000679201
0.000661895
0.000631843
0.000654798
0.000686173
0.000683393
0.000697925
0.000687141
0.000677708
0.000654574
0.000666247
0.000700661
0.000712351
0.00076158
0.00072454
0.000683122
0.000665516
0.000665015
0.000698198
0.000691491
0.000707178
0.000696633
0.00068508
0.000663609
0.000650367
0.000684027
0.000698967
0.00069754
0.000691086
0.000679549
0.000649604
0.000621264
0.000655276
0.000674783
0.000681314
0.000674359
0.000654444
0.000621275
0.000605427
0.000638384
0.000657047
0.000662836
0.000655934
0.000636172
0.000603589
0.000644108
0.000678559
0.000694293
0.000699738
0.000691011
0.000672387
0.000640878
0.000670727
0.000706473
0.00070492
0.000698716
0.000705703
0.000688049
0.000664707
0.000684255
0.000722474
0.000702338
0.00066815
0.000689866
0.000697272
0.000676062
0.000684115
0.000723371
0.000719781
0.000707846
0.000699856
0.000699696
0.00067589
0.000667749
0.000707711
0.000725324
0.000725973
0.000715945
0.000696567
0.000662011
0.000634644
0.000673404
0.000695803
0.000701735
0.000692679
0.000668935
0.000631794
0.000611797
0.000648792
0.000671122
0.000677457
0.000668996
0.000646001
0.000609573
0.000655218
0.000698824
0.000727435
0.000740828
0.00072745
0.000695509
0.000651326
0.000687245
0.000738128
0.000762218
0.000754201
0.000741141
0.000733922
0.000680728
0.000704982
0.000760877
0.000765207
0.000749083
0.000760743
0.000750819
0.000694488
0.000705237
0.000763478
0.000781491
0.000786924
0.00076157
0.000751965
0.000694202
0.000683796
0.000740353
0.000773778
0.000780022
0.00076214
0.000725758
0.000675361
0.000643815
0.000690714
0.000720727
0.000727373
0.000713402
0.000683368
0.000639771
0.000611262
0.00065074
0.000676698
0.00068407
0.000673368
0.000647351
0.000609416
0.000657431
0.000711556
0.00074967
0.000758649
0.00074302
0.000704634
0.000653148
0.00069544
0.00076656
0.000806597
0.000805371
0.000789705
0.000750251
0.000687145
0.000718044
0.000799775
0.000846844
0.000821145
0.000798306
0.000779283
0.000704978
0.000716206
0.000809344
0.000850812
0.000822553
0.00080818
0.000772344
0.000702929
0.000686628
0.000760831
0.000823916
0.000815288
0.000787309
0.000741917
0.00067901
0.000641979
0.000694546
0.00073546
0.000746083
0.000725412
0.000687573
0.000639388
0.000603191
0.000638716
0.000664874
0.000673658
0.000662441
0.000636993
0.000603054
0.000643144
0.000688213
0.000734226
0.000753412
0.000729344
0.000686016
0.000641487
0.000675142
0.000737492
0.000804091
0.000799972
0.000779174
0.000738819
0.000673118
0.00069138
0.000771372
0.000843216
0.000829111
0.000790899
0.00077509
0.000690969
0.000685495
0.000742107
0.000845312
0.000837306
0.000803552
0.00076628
0.000688782
0.000662869
0.000705091
0.000734432
0.00080616
0.000776495
0.000717777
0.000664613
0.000626871
0.000668104
0.000699101
0.000714681
0.000702666
0.000669958
0.000628537
0.000598221
0.000626265
0.000643419
0.000649268
0.000642785
0.000626143
0.000600286
0.00062786
0.000643584
0.000649807
0.000656155
0.000651439
0.000643329
0.000628
0.000648163
0.000646256
0.00065325
0.000690757
0.000671989
0.000647805
0.000646007
0.000661371
0.00064582
0.000725903
0.000744249
0.000725336
0.000660216
0.000656382
0.000660693
0.000653572
0.000707535
0.00073931
0.00069231
0.000661712
0.000657375
0.000643509
0.000655718
0.000671148
0.000666937
0.000657555
0.000655337
0.000644688
0.000615859
0.000643584
0.000660182
0.000669576
0.000662218
0.00064637
0.000619361
0.000605659
0.000633835
0.000651026
0.000656681
0.000651907
0.000636433
0.000611197
0.00063478
0.000651192
0.000652739
0.000652335
0.00065382
0.0006525
0.000638623
0.000654414
0.000650222
0.000622355
0.000640934
0.000621532
0.000646499
0.000655223
0.000665281
0.000650112
0.000593686
0.000678428
0.00068967
0.000637153
0.000662651
0.000663178
0.000653591
0.000594398
0.000669057
0.000635023
0.000656108
0.00066399
0.000647836
0.000656367
0.00063851
0.000640549
0.000646214
0.000661128
0.000652072
0.000619936
0.000647903
0.000663561
0.000671294
0.000666945
0.000652881
0.000626157
0.000613313
0.000647339
0.000668401
0.000676037
0.000671018
0.00065307
0.000622287
0.000648819
0.000687859
0.000708903
0.000714263
0.000710707
0.000692215
0.00065741
0.000674102
0.000714335
0.00070301
0.000683107
0.000696902
0.0007147
0.000681279
0.000685555
0.000722174
0.000689614
0.000573187
0.000658793
0.000718933
0.000691931
0.000681851
0.000721199
0.000692688
0.000651769
0.000687912
0.000720884
0.000687841
0.000661604
0.000706257
0.000715675
0.000716265
0.00072086
0.000709244
0.000669067
0.000626161
0.000666701
0.000693394
0.000703698
0.00069569
0.00067166
0.000634948
0.00015837
1.9368e-05
0.000450407
0.000406429
0.000352813
0.000279723
0.000168562
2.10018e-05
0.000533538
0.000493832
0.000453928
0.000409906
0.000356583
0.000283661
0.000171846
2.15887e-05
0.000524264
0.000486591
0.000448022
0.000405
0.00035216
0.000279244
0.000167922
2.09953e-05
0.00050334
0.000469694
0.000433692
0.000392035
0.000339485
0.000266469
0.000157193
1.93724e-05
0.000474617
0.000445663
0.000411934
0.000371056
0.000318347
0.000245564
0.000140634
1.70439e-05
0.000496366
0.000465047
0.000428201
0.000384282
0.000329165
0.000254385
0.000146134
1.73108e-05
0.000523532
0.000488828
0.000450531
0.000406135
0.000350989
0.000275604
0.000162854
1.97145e-05
0.000540334
0.000503232
0.000463748
0.000419011
0.000364009
0.000288536
0.000173391
2.13975e-05
0.000545674
0.000507269
0.000467462
0.000422931
0.000368269
0.000292874
0.000176911
2.20151e-05
0.000537292
0.000500543
0.000462054
0.000418445
0.000364114
0.000288562
0.000173002
2.14231e-05
0.000517681
0.000484428
0.00044821
0.000405675
0.000351381
0.000275581
0.000162122
1.97803e-05
0.000489953
0.000460929
0.000426573
0.000384466
0.000329792
0.000254161
0.000145197
1.74189e-05
0.000509204
0.000477537
0.000439881
0.000394755
0.00033795
0.000260809
0.000149311
1.76012e-05
0.000535552
0.000501621
0.000462972
0.000417501
0.000360645
0.000282785
0.000166523
2.0061e-05
0.000551069
0.000516085
0.000476805
0.000431221
0.000374504
0.000296418
0.000177516
2.17944e-05
0.000555605
0.000520235
0.000481021
0.00043582
0.000379425
0.000301275
0.000181339
2.24441e-05
0.00054861
0.00051429
0.000476254
0.000431813
0.000375571
0.000297097
0.000177468
2.18591e-05
0.000531215
0.000499209
0.000462872
0.000419134
0.000362719
0.000283916
0.000166424
2.0198e-05
0.000505262
0.000476345
0.000441233
0.00039759
0.000340666
0.000262047
0.000149212
1.77966e-05
0.000522768
0.000489678
0.000450436
0.00040352
0.000344607
0.000264954
0.00015083
1.77786e-05
0.000550327
0.000515221
0.000474925
0.000427451
0.000368261
0.000287636
0.000168382
2.02689e-05
0.000566836
0.000530913
0.0004901
0.000442389
0.000383074
0.000301926
0.000179698
2.2032e-05
0.000571888
0.000535758
0.0004953
0.00044795
0.000388769
0.000307307
0.000183791
2.27096e-05
0.00056497
0.00053042
0.000491088
0.000444376
0.000385222
0.000303334
0.000180065
2.21447e-05
0.000548115
0.000515581
0.00047765
0.00043153
0.000372203
0.000290063
0.000169057
2.04903e-05
0.000522419
0.000492331
0.000455396
0.000409367
0.000349625
0.00026784
0.000151731
1.8075e-05
0.000534693
0.000499352
0.000458211
0.000409457
0.000348513
0.0002666
0.000150674
1.78102e-05
0.000565313
0.000527028
0.000484186
0.000434469
0.000373006
0.000289863
0.00016841
2.0304e-05
0.000584438
0.000544883
0.000501015
0.000450565
0.000388611
0.000304644
0.000179892
2.20718e-05
0.000590431
0.000551095
0.000507522
0.000457147
0.000395013
0.000310464
0.000184197
2.27684e-05
0.000584045
0.000546269
0.000503809
0.000454051
0.000391857
0.000306805
0.000180735
2.22371e-05
0.000566434
0.000530938
0.000490113
0.000441113
0.000378843
0.00029365
0.000169965
2.06151e-05
0.00053911
0.00050654
0.000467069
0.000418392
0.000355869
0.000271239
0.000152704
1.82119e-05
0.000542026
0.00050515
0.000462851
0.000412928
0.000350526
0.000266883
0.000149773
1.77586e-05
0.000575285
0.000534224
0.000489674
0.000438601
0.000375633
0.000290625
0.000167626
2.02431e-05
0.000597326
0.000553815
0.00050756
0.000455388
0.000391752
0.000305774
0.000179231
2.20055e-05
0.000605296
0.000561614
0.000515214
0.00046276
0.000398693
0.000311958
0.000183735
2.27168e-05
0.000599261
0.00055742
0.000512216
0.000460295
0.000396019
0.000308681
0.000180584
2.22222e-05
0.000580542
0.000541921
0.000498728
0.000447648
0.000383258
0.000295782
0.000170123
2.06413e-05
0.000551627
0.000516873
0.000475403
0.000424741
0.000360123
0.00027331
0.000152986
1.82611e-05
0.000545564
0.000508437
0.000465871
0.000415452
0.00035212
0.000267147
0.00014901
1.76982e-05
0.000579492
0.000537813
0.000492919
0.000441464
0.000377704
0.000291334
0.000167002
2.01733e-05
0.000602614
0.00055803
0.000511162
0.000458554
0.000394181
0.000306858
0.000178811
2.19308e-05
0.000612267
0.00056696
0.000519545
0.000466447
0.000401523
0.000313384
0.000183544
2.26559e-05
0.000607242
0.000563775
0.000517472
0.000464671
0.000399325
0.000310456
0.000180673
2.21921e-05
0.000588992
0.000548994
0.000504704
0.000452567
0.000386908
0.000297797
0.000170431
2.06469e-05
0.000560003
0.000524181
0.000481609
0.000429758
0.00036375
0.000275299
0.000153373
1.82907e-05
0.000548303
0.000511481
0.000469002
0.000418356
0.000354309
0.000268165
0.00014892
1.76829e-05
0.000581974
0.000540657
0.000496019
0.000444577
0.000380299
0.000292766
0.000167076
2.01577e-05
0.000605302
0.000560908
0.000514291
0.000461809
0.000397078
0.000308668
0.000179115
2.19226e-05
0.000616048
0.000570495
0.000523123
0.000470038
0.000404723
0.000315509
0.000184088
2.26618e-05
0.000612033
0.000568353
0.000521892
0.000468839
0.00040289
0.000312841
0.000181419
2.22185e-05
0.000595001
0.000554676
0.000509964
0.000457269
0.000390752
0.000300339
0.000171313
2.06891e-05
0.000566751
0.000530486
0.000487267
0.000434637
0.000367622
0.000277836
0.000154315
1.83416e-05
0.00055182
0.000515419
0.000473044
0.000422095
0.000357206
0.000269792
0.000149346
1.76688e-05
0.000584756
0.000544284
0.000500033
0.000448549
0.000383599
0.000294771
0.000167657
2.0141e-05
0.000607256
0.000564222
0.000518231
0.000465903
0.000400669
0.000311029
0.000179902
2.19096e-05
0.000618036
0.000574
0.000527298
0.000474321
0.00040853
0.000318138
0.00018509
2.266e-05
0.000615497
0.000572916
0.000526717
0.000473495
0.000406894
0.000315624
0.00018257
2.22288e-05
0.000600405
0.000560411
0.000515471
0.000462251
0.000394865
0.000303168
0.000172539
2.07088e-05
0.000573353
0.000536827
0.000493044
0.000439678
0.000371692
0.000280639
0.000155581
1.83676e-05
0.000556816
0.000520386
0.000477683
0.000425982
0.000359851
0.000270936
0.000149402
1.7653e-05
0.000589477
0.000549286
0.000504887
0.000452798
0.000386669
0.000296227
0.000167769
2.01219e-05
0.000611205
0.000569089
0.000523163
0.000470356
0.000404042
0.000312768
0.000180112
2.18946e-05
0.00062144
0.000578884
0.000532301
0.00047885
0.000412031
0.000320062
0.000185441
2.26553e-05
0.000620644
0.000578664
0.000532109
0.000478128
0.000410385
0.000317583
0.00018302
2.22276e-05
0.000607242
0.000566865
0.000521096
0.000466844
0.000398214
0.000305053
0.000173052
2.07067e-05
0.000580625
0.000543275
0.000498503
0.000444049
0.000374826
0.000282418
0.000156137
1.8364e-05
0.000562711
0.000525336
0.000481726
0.000428916
0.000361387
0.000271038
0.000148785
1.76288e-05
0.000596473
0.00055489
0.000509391
0.000456143
0.000388559
0.000296496
0.000167061
2.0083e-05
0.000619094
0.000575293
0.000528015
0.000473955
0.000406165
0.000313179
0.000179369
2.18432e-05
0.000629733
0.000585354
0.000537215
0.00048245
0.000414179
0.000320548
0.000184754
2.26013e-05
0.000629654
0.000585369
0.000536998
0.000481538
0.000412344
0.000317996
0.000182373
2.21742e-05
0.000615972
0.000573166
0.000525573
0.000469862
0.000399852
0.00030532
0.000172459
2.06561e-05
0.000587926
0.000548649
0.000502349
0.00044658
0.000376109
0.000282521
0.000155594
1.83198e-05
0.000566473
0.000528251
0.000484052
0.000430537
0.0003621
0.00027083
0.000148111
1.76101e-05
0.000601762
0.000558194
0.00051181
0.000457881
0.000389412
0.000296325
0.000166256
2.00501e-05
0.000626504
0.000579242
0.000530504
0.00047567
0.00040704
0.000313019
0.000178488
2.17938e-05
0.000638211
0.000589619
0.000539618
0.000483977
0.000414927
0.000320354
0.000183869
2.25376e-05
0.000637943
0.000589388
0.000539077
0.000482702
0.000412789
0.000317633
0.000181442
2.21053e-05
0.000622196
0.000576239
0.000527126
0.000470606
0.000399942
0.000304744
0.0001715
2.05865e-05
0.000591834
0.000550731
0.00050339
0.00044693
0.000375864
0.000281739
0.000154626
1.82546e-05
0.000566409
0.000528916
0.000485289
0.000431976
0.000363428
0.00027186
0.000148579
1.763e-05
0.000601223
0.000557963
0.000512424
0.000459061
0.000390686
0.000297373
0.000166753
2.00661e-05
0.000626586
0.000578413
0.00053041
0.00047643
0.000408166
0.000314074
0.000179025
2.1807e-05
0.000638992
0.000588483
0.000538964
0.000484258
0.000415775
0.000321305
0.000184381
2.25442e-05
0.000638275
0.000587934
0.000538024
0.000482549
0.00041327
0.000318351
0.000181848
2.21004e-05
0.000621193
0.000574523
0.000525944
0.000470181
0.00040008
0.000305168
0.000171731
2.05668e-05
0.000590108
0.000549119
0.000502284
0.000446378
0.000375769
0.000281933
0.000154715
1.82259e-05
0.000564273
0.000529363
0.000487242
0.00043454
0.000366045
0.000274189
0.000149989
1.77096e-05
0.000595295
0.000556251
0.000513433
0.000461371
0.000393321
0.00029982
0.000168324
2.01517e-05
0.000617543
0.00057445
0.000530166
0.000478251
0.000410733
0.000316656
0.000180794
2.19066e-05
0.000628663
0.000583208
0.00053771
0.000485477
0.000418069
0.000323831
0.000186191
2.2648e-05
0.000627927
0.000582395
0.000536329
0.000483264
0.000415134
0.000320591
0.000183507
2.21888e-05
0.000612347
0.000569917
0.000524449
0.000470598
0.000401486
0.000306992
0.00017309
2.06266e-05
0.000584022
0.00054594
0.000501184
0.000446626
0.000376847
0.000283448
0.00015582
1.82659e-05
0.000566639
0.000533514
0.000491506
0.000437913
0.000368245
0.000275412
0.000150538
1.78046e-05
0.000593613
0.000559371
0.000517974
0.000465318
0.000395944
0.000301244
0.000168964
2.02594e-05
0.000611195
0.000575716
0.000534435
0.000482505
0.000413693
0.000318286
0.000181557
2.20239e-05
0.000620102
0.000583022
0.000541292
0.000489501
0.000420956
0.000325412
0.000186928
2.27604e-05
0.000619177
0.000581724
0.000539159
0.000486531
0.000417433
0.000321812
0.000184075
2.22861e-05
0.000606611
0.000569922
0.00052666
0.000472848
0.000402926
0.000307686
0.000173392
2.06993e-05
0.000581728
0.000546404
0.000502609
0.000447877
0.000377559
0.000283766
0.000155955
1.83199e-05
0.000576044
0.000540185
0.000495162
0.000438819
0.000367048
0.000273112
0.000148725
1.77522e-05
0.000604802
0.000568384
0.000523547
0.000467401
0.000395271
0.000299004
0.000166999
2.01926e-05
0.000622638
0.000586146
0.000541496
0.000485543
0.000413367
0.000315942
0.000179336
2.19308e-05
0.00063059
0.000593379
0.000548627
0.00049271
0.000420557
0.000322805
0.000184431
2.26405e-05
0.000628589
0.000590674
0.000545167
0.000488727
0.000416379
0.000318859
0.000181449
2.21569e-05
0.000614929
0.000576617
0.000530351
0.000473348
0.000400921
0.00030438
0.000170751
2.0574e-05
0.000587819
0.000550244
0.000503886
0.000446784
0.000374732
0.000280218
0.000153383
1.8203e-05
0.00058189
0.000542085
0.000494142
0.000435784
0.000362786
0.00026856
0.000145594
1.759e-05
0.000615234
0.000573008
0.000523911
0.000464921
0.000391116
0.00029429
0.000163569
1.99968e-05
0.000636675
0.000593207
0.000543074
0.000483391
0.000408997
0.000310737
0.000175392
2.16843e-05
0.000645348
0.00060119
0.000550512
0.000490427
0.000415795
0.0003171
0.000180059
2.23541e-05
0.00064115
0.000596641
0.000545751
0.000485614
0.000411145
0.000312917
0.000176999
2.18666e-05
0.000623307
0.000579214
0.000528789
0.000469135
0.000395274
0.000298427
0.000166479
2.03089e-05
0.00059107
0.00054953
0.000500445
0.000441642
0.000368702
0.000274223
0.000149291
1.79633e-05
0.00046722
0.000441208
0.000409302
0.000368766
0.000315112
0.000241041
0.000136395
1.66164e-05
0.0004876
0.000458895
0.000426597
0.000386749
0.000334016
0.000259793
0.000150959
1.8708e-05
0.000500998
0.000470055
0.000436838
0.000397067
0.000344963
0.000271076
0.000160206
2.01119e-05
0.000507009
0.00047477
0.000440648
0.000400422
0.000348373
0.000274772
0.000163472
2.05764e-05
0.000504451
0.000472325
0.000437742
0.000396907
0.000344452
0.000270902
0.000160451
2.00084e-05
0.000492933
0.000461949
0.000427388
0.000386063
0.000333085
0.000259642
0.000151485
1.8525e-05
0.00047214
0.000443434
0.000409221
0.000367514
0.00031408
0.000241139
0.000137123
1.63926e-05
0.000485858
0.000459067
0.000425691
0.000383116
0.000326884
0.00024957
0.000140768
1.70453e-05
0.000506205
0.000477339
0.000443845
0.000401992
0.000346583
0.000268961
0.000155722
1.91858e-05
0.000519146
0.000488485
0.000454348
0.000412695
0.00035793
0.000280596
0.000165194
2.06184e-05
0.000524647
0.000492765
0.000457814
0.000415832
0.000361228
0.000284247
0.00016844
2.10822e-05
0.000521671
0.00048966
0.000454144
0.000411598
0.000356717
0.00027993
0.000165155
2.04851e-05
0.000509734
0.000478358
0.000442692
0.000399681
0.000344407
0.000267911
0.000155713
1.89497e-05
0.000488152
0.000458597
0.000423162
0.00037983
0.00032425
0.000248475
0.00014078
1.67534e-05
0.000505621
0.000477086
0.000441412
0.000396161
0.000336938
0.000256309
0.000143914
1.73888e-05
0.000526743
0.000496542
0.000460755
0.000416059
0.000357442
0.000276266
0.00015915
1.95653e-05
0.000539592
0.000508083
0.000471793
0.000427269
0.000369203
0.000288177
0.000168733
2.10125e-05
0.000544531
0.000511924
0.000474926
0.000430209
0.000372378
0.000291734
0.000171896
2.14693e-05
0.000540889
0.000507817
0.000470235
0.000425105
0.000367202
0.000286944
0.000168336
2.08448e-05
0.000527757
0.000494939
0.000457264
0.000411878
0.000353852
0.000274158
0.000158465
1.92654e-05
0.000504383
0.000473243
0.000435984
0.000390536
0.000332462
0.000253785
0.00014302
1.70159e-05
0.000524215
0.000493137
0.000454768
0.000406717
0.000344595
0.000260985
0.000145768
1.76141e-05
0.000547136
0.000514109
0.000475314
0.000427547
0.000365799
0.000281401
0.000161184
1.98102e-05
0.00056069
0.000526395
0.000486957
0.000439209
0.000377868
0.000293458
0.00017075
2.12562e-05
0.000565153
0.000529888
0.00048986
0.000441935
0.000380876
0.000296861
0.000173765
2.16991e-05
0.000560204
0.000524389
0.000483956
0.00043594
0.000375059
0.00029162
0.000169947
2.10514e-05
0.000544797
0.000509445
0.000469311
0.000421438
0.000360744
0.000278147
0.00015973
1.94423e-05
0.000518721
0.000485544
0.00044627
0.000398663
0.000338179
0.000256889
0.000143842
1.71548e-05
0.000538964
0.000505699
0.000465143
0.000414862
0.000350432
0.000264439
0.000146994
1.77567e-05
0.000563509
0.00052779
0.000486523
0.000436349
0.000372156
0.00028521
0.000162536
1.99623e-05
0.000577927
0.000540563
0.00049847
0.000448224
0.00038436
0.000297299
0.000172021
2.13999e-05
0.000581993
0.000543626
0.000501
0.000450641
0.000387138
0.000300495
0.000174857
2.1827e-05
0.000575363
0.000536764
0.000494051
0.000443903
0.000380768
0.000294839
0.00017078
2.11598e-05
0.000557547
0.000520057
0.000478101
0.000428398
0.00036566
0.000280769
0.00016026
1.95296e-05
0.000529122
0.000494444
0.000453699
0.000404455
0.000342067
0.000258697
0.000143974
1.72149e-05
0.000550282
0.000515624
0.000473568
0.000421693
0.000355564
0.000267688
0.000148236
1.78622e-05
0.000575645
0.000538291
0.000495429
0.000443618
0.000377662
0.000288743
0.000163893
2.0074e-05
0.000590314
0.000551101
0.000507377
0.000455515
0.000389892
0.000300814
0.000173314
2.1506e-05
0.000593805
0.000553574
0.000509368
0.000457578
0.000392416
0.000303783
0.00017596
2.19195e-05
0.000585751
0.000545663
0.000501711
0.000450241
0.000385565
0.000297741
0.000171619
2.12352e-05
0.000566287
0.000527755
0.000484811
0.000433969
0.000369796
0.000283126
0.00016079
1.95869e-05
0.000536439
0.000501029
0.000459424
0.000409093
0.000345315
0.000260307
0.000144133
1.72495e-05
0.000560145
0.000524437
0.000481211
0.000428133
0.000360694
0.000271238
0.0001498
1.79723e-05
0.000585925
0.000547495
0.000503424
0.000450358
0.000383051
0.000292491
0.000165558
2.01886e-05
0.0006004
0.000560161
0.000515309
0.000462234
0.00039527
0.00030455
0.000174939
2.16236e-05
0.000603201
0.000562043
0.00051686
0.000464003
0.000397561
0.000307318
0.000177429
2.20318e-05
0.000594049
0.000553289
0.000508564
0.000456182
0.000390319
0.000300916
0.000172848
2.13356e-05
0.000573536
0.000534532
0.000490966
0.000439298
0.000373991
0.000285807
0.000161705
1.96701e-05
0.000542797
0.000506995
0.000464794
0.000413648
0.00034876
0.000262348
0.000144727
1.73112e-05
0.000569871
0.000533033
0.00048859
0.000434335
0.000365683
0.00027478
0.00015147
1.80593e-05
0.000596086
0.000556613
0.000511243
0.000456871
0.000388242
0.000296149
0.000167257
2.02834e-05
0.000610127
0.000569223
0.00052319
0.000468815
0.000400501
0.000308224
0.000176626
2.17217e-05
0.00061208
0.000570576
0.000524434
0.000470394
0.000402643
0.000310845
0.000179013
2.21237e-05
0.000602093
0.000561116
0.000515606
0.000462205
0.000395098
0.00030415
0.000174232
2.14128e-05
0.000580947
0.000541601
0.000497344
0.000444767
0.000378292
0.000288619
0.000162839
1.97313e-05
0.000549496
0.000513271
0.000470423
0.00041843
0.000352428
0.000264651
0.000145605
1.73582e-05
0.000579784
0.000541145
0.00049506
0.000439396
0.000369446
0.000277182
0.000152409
1.81174e-05
0.000607263
0.000565758
0.000518401
0.000462333
0.000392224
0.000298655
0.000168204
2.03508e-05
0.000621426
0.000578782
0.000530705
0.000474498
0.000404599
0.000310767
0.000177558
2.17931e-05
0.000622644
0.000579824
0.00053186
0.000476047
0.000406703
0.000313309
0.00017985
2.21899e-05
0.000611838
0.000569658
0.000522536
0.000467555
0.000398939
0.000306403
0.000174918
2.14646e-05
0.000589615
0.000549114
0.000503548
0.00044965
0.000381775
0.000290564
0.000163367
1.97691e-05
0.000556866
0.000519686
0.000475814
0.000422705
0.000355423
0.000266236
0.000145996
1.73891e-05
0.000588689
0.000547292
0.000499197
0.000442086
0.00037098
0.000277673
0.000152172
1.8104e-05
0.000618928
0.000573489
0.000523355
0.000465426
0.000393981
0.000299269
0.00016796
2.03391e-05
0.000634646
0.000587587
0.000536256
0.000477903
0.000406543
0.00031149
0.000177315
2.17885e-05
0.000635575
0.000588626
0.000537493
0.000479548
0.000408738
0.000314079
0.000179595
2.21931e-05
0.000623261
0.000577531
0.000527744
0.000470946
0.000400933
0.000307104
0.000174601
2.14697e-05
0.000598763
0.000555637
0.000508135
0.000452774
0.000383601
0.000291112
0.000162996
1.97749e-05
0.000563753
0.000524936
0.000479757
0.000425469
0.000356986
0.000266605
0.000145626
1.73968e-05
0.000592776
0.00054907
0.000499738
0.000441996
0.000370513
0.000276891
0.000151285
1.80346e-05
0.000626057
0.000576428
0.000524269
0.000465484
0.000393669
0.000298653
0.000167115
2.02749e-05
0.000644398
0.000591679
0.000537611
0.000478177
0.000406436
0.000311078
0.000176558
2.17426e-05
0.000645573
0.00059299
0.000539083
0.000480072
0.000408862
0.000313847
0.000178925
2.21661e-05
0.000631372
0.000581273
0.000529379
0.000471693
0.000401242
0.000306936
0.000173927
2.14558e-05
0.000604293
0.000558483
0.000509691
0.000453685
0.000384011
0.000290934
0.000162326
1.97688e-05
0.000567291
0.000527228
0.000481319
0.000426482
0.000357423
0.00026641
0.000145018
1.73945e-05
0.000589469
0.000545967
0.000497299
0.000440364
0.000369626
0.000276525
0.000151005
1.79977e-05
0.000623323
0.00057294
0.000521409
0.000463676
0.000392852
0.000298488
0.000166977
2.02525e-05
0.000643406
0.000588413
0.00053468
0.000476416
0.000405843
0.000311236
0.00017666
2.17436e-05
0.000645654
0.000590301
0.000536573
0.000478684
0.000408604
0.000314271
0.00017919
2.21838e-05
0.000630884
0.000579049
0.000527559
0.000470922
0.000401361
0.000307501
0.000174232
2.14796e-05
0.000602947
0.000556875
0.000508755
0.000453561
0.000384453
0.000291555
0.000162589
1.97929e-05
0.00056613
0.000526572
0.000481272
0.000426928
0.000358128
0.000267089
0.000145275
1.74199e-05
0.000580514
0.000540548
0.000494403
0.000439227
0.000369657
0.000277225
0.000151558
1.80365e-05
0.000610343
0.000565543
0.000517705
0.000462409
0.000393059
0.000299439
0.000167728
2.03174e-05
0.000627738
0.000579766
0.000530478
0.000475184
0.000406372
0.000312586
0.000177729
2.18435e-05
0.000630764
0.00058203
0.000532714
0.000477822
0.000409473
0.000315874
0.000180402
2.22998e-05
0.000618783
0.000572498
0.000524888
0.000470762
0.000402551
0.000309166
0.00017538
2.15894e-05
0.000594795
0.000552889
0.000507657
0.000454208
0.000385922
0.000293182
0.000163598
1.98877e-05
0.000561991
0.000525086
0.000481562
0.000428222