/*--------------------------------*- C++ -*----------------------------------*\
| =========                 |                                                 |
| \\      /  F ield         | OpenFOAM: The Open Source CFD Toolbox           |
|  \\    /   O peration     | Version:  plus.master                           |
|   \\  /    A nd           | Web:      www.OpenFOAM.com                      |
|    \\/     M anipulation  |                                                 |
\*---------------------------------------------------------------------------*/
FoamFile
{
    version     2.0;
    format      ascii;
    class       surfaceScalarField;
    location    "12.6";
    object      alphaPhi;
}
// * * * * * * * * * * * * * * * * * * * * * * * * * * * * * * * * * * * * * //

dimensions      [0 3 -1 0 0 0 0];

internalField   nonuniform List<scalar> 
138768
(
1.1514e-06
2.79259e-06
1.43871e-07
-1.53055e-06
-2.55328e-06
7.94953e-08
3.14947e-06
4.41153e-07
-2.51886e-06
-1.00715e-06
2.62709e-06
7.97306e-07
-2.33786e-06
-1.78255e-06
1.9633e-06
7.98436e-07
-1.98639e-06
-2.41832e-06
2.35775e-06
4.25794e-07
-2.15627e-06
-2.71122e-06
2.31623e-06
1.56247e-07
-2.1796e-06
2.00562e-06
5.11224e-08
-2.68489e-06
-2.08073e-06
1.37314e-06
2.25453e-06
4.53649e-07
-1.82402e-06
4.25401e-07
7.12676e-07
1.28106e-06
-2.23825e-07
4.40094e-07
2.23192e-06
-8.9786e-07
3.30562e-08
2.3781e-06
-1.05119e-06
6.51808e-09
1.56734e-06
-2.8993e-06
7.70524e-07
1.04828e-06
1.31055e-06
1.22212e-07
-2.32718e-06
1.9202e-06
1.09387e-06
9.32471e-07
-1.69218e-06
-1.50468e-07
5.48434e-07
1.58749e-06
4.11015e-08
2.63351e-08
2.2274e-07
-3.4376e-08
3.19966e-08
3.35045e-07
-4.44999e-07
5.93511e-08
3.57706e-07
-2.62302e-06
6.37423e-07
1.68766e-06
6.92826e-07
3.41186e-07
-2.34643e-06
2.00467e-06
-1.29952e-07
1.25344e-06
-2.03442e-06
1.15255e-07
-3.62004e-07
2.73371e-06
2.73296e-08
-2.99274e-08
2.00836e-07
-3.45272e-08
-2.33262e-08
1.17125e-07
-2.03536e-07
-5.32113e-08
4.72082e-07
-1.93408e-06
-1.33546e-07
2.20027e-06
1.68838e-07
5.49406e-07
-1.95955e-06
2.28872e-06
-1.30162e-06
1.02941e-06
-2.14656e-06
2.02196e-08
-6.90521e-07
1.99475e-06
4.0087e-08
-2.38806e-07
1.90103e-07
-2.4692e-08
-7.47735e-08
1.46339e-07
-5.86821e-07
1.8972e-07
3.12263e-07
-2.68552e-06
-5.73367e-07
1.91889e-06
-5.46726e-07
4.57554e-07
-2.42754e-06
1.77371e-06
-2.21202e-06
5.4236e-07
-1.94754e-06
4.9249e-07
-2.87174e-06
1.34455e-06
-8.58384e-08
-2.45064e-06
2.26661e-06
-6.80929e-07
-1.92988e-06
2.48366e-06
-6.33719e-07
-2.04092e-06
1.36268e-06
-3.12776e-06
-1.19822e-06
1.18092e-06
-1.2492e-06
1.93419e-07
-2.61877e-06
1.46762e-06
1.84748e-07
-1.74673e-06
-2.11879e-06
2.38186e-07
5.45638e-07
-2.18721e-06
-1.0321e-06
1.02174e-06
-2.20218e-06
-2.17213e-06
1.07868e-06
-1.86861e-06
-2.99079e-06
6.42285e-07
-1.86396e-06
-3.14455e-06
2.46345e-07
-1.72388e-06
5.36778e-08
-2.80267e-06
-1.645e-06
-1.33948e-07
1.43571e-06
7.94915e-07
-4.05023e-07
-1.54753e-06
-7.26754e-07
8.60698e-07
1.38555e-06
-1.21234e-06
-1.15057e-06
-1.18301e-07
1.97857e-06
-6.39198e-07
-1.3783e-06
-5.73887e-07
1.96382e-06
-3.63817e-07
-1.36308e-06
-2.59192e-07
1.27806e-06
-6.08367e-07
-1.48654e-06
4.14573e-07
7.74603e-07
-9.09477e-07
6.063e-07
6.04549e-07
-1.64631e-06
-9.99926e-07
-3.29392e-07
1.22548e-06
1.37942e-06
-3.2495e-07
-8.98002e-07
5.2741e-07
2.93977e-06
-9.59934e-07
-3.45791e-07
3.97083e-06
-9.51194e-07
-5.63807e-07
4.03887e-06
-9.52165e-07
-2.70951e-07
3.08474e-06
-1.14763e-06
2.50837e-07
1.7754e-06
3.2025e-07
7.42897e-07
-1.4821e-06
-9.65517e-07
8.94415e-07
2.23077e-06
5.36046e-08
-3.43223e-07
3.76643e-07
3.47991e-06
-5.06999e-08
-2.31296e-08
6.54266e-07
-4.74767e-09
-1.76788e-08
7.73943e-07
2.54528e-07
2.45822e-08
1.66613e-06
-2.57967e-07
5.67854e-07
2.76836e-06
3.80943e-07
1.07072e-06
-1.04826e-06
-8.16108e-07
8.95423e-08
2.81234e-06
6.1999e-08
-5.10927e-07
2.20426e-08
4.60156e-06
-1.68007e-08
1.77688e-08
5.02178e-07
-5.44607e-09
1.07873e-08
8.16055e-08
2.92351e-07
4.48388e-08
1.60521e-06
9.45998e-08
3.51982e-07
3.5324e-06
4.5226e-07
1.37915e-06
-8.06427e-07
-7.93831e-07
-4.48151e-07
2.45058e-06
-8.97317e-08
-4.19678e-07
-1.74272e-07
3.9368e-06
-1.41438e-08
3.5144e-07
3.39363e-07
2.41968e-09
6.01363e-07
1.35821e-07
3.51953e-07
3.34958e-07
1.38337e-06
-2.33617e-07
6.12821e-07
3.12576e-06
4.63604e-07
1.28113e-06
-1.0685e-06
-6.27931e-08
-8.2593e-07
1.57846e-06
-5.73152e-07
-5.03081e-07
-4.19893e-07
3.12479e-06
-7.9091e-07
5.28025e-07
4.22763e-06
-6.91565e-07
1.10998e-06
4.1398e-06
-1.00934e-06
9.21074e-07
3.33265e-06
-1.33889e-06
3.53119e-07
2.06223e-06
1.03012e-07
8.6335e-07
-1.64819e-06
2.14845e-07
8.99691e-07
-7.11301e-07
-1.04455e-06
-4.82179e-07
1.64154e-06
-8.18981e-07
-1.17346e-06
2.45137e-06
-2.10314e-07
-1.66785e-06
2.54069e-06
1.42293e-07
-1.81295e-06
1.71278e-06
1.57696e-08
-1.87209e-06
9.459e-07
-2.68667e-07
6.1525e-07
-1.95311e-06
-3.77541e-07
-8.48597e-08
1.34207e-06
1.73309e-06
-5.64741e-07
-1.63042e-06
-6.48224e-07
7.95438e-07
2.3616e-06
-1.20792e-06
-9.58075e-07
-1.76182e-07
3.07813e-06
-6.13395e-07
-9.55773e-07
-7.23127e-07
3.08359e-06
-3.98798e-07
-1.12043e-06
7.79006e-08
2.25834e-06
-8.93382e-07
-1.4332e-06
6.53537e-07
1.71396e-06
-1.28e-06
9.22736e-07
1.52534e-06
-1.80622e-06
-1.47033e-06
-4.97621e-07
1.05348e-06
2.43048e-06
-2.62965e-07
-1.06041e-06
4.30164e-07
3.90921e-06
-1.09456e-06
-5.45229e-07
5.18387e-06
-6.95554e-07
-9.31422e-07
5.15553e-06
-9.2485e-07
-3.45522e-07
3.96734e-06
-1.24175e-06
3.49959e-07
2.39614e-06
4.6085e-07
1.67477e-06
-1.71148e-06
-9.73673e-07
6.99194e-07
3.4792e-06
7.97169e-08
-7.18908e-07
1.711e-07
5.04767e-06
-1.48949e-07
-7.13962e-08
2.37906e-06
7.83691e-09
-2.30146e-08
1.51578e-06
1.77388e-07
1.6279e-08
4.71527e-06
-6.37276e-07
4.5364e-07
3.50662e-06
3.1992e-07
1.9554e-06
-1.38084e-06
-1.21952e-06
1.74856e-07
4.25549e-06
3.00857e-07
-9.04182e-07
2.82018e-07
5.84032e-06
-2.75031e-08
7.19507e-08
7.8433e-07
-4.20765e-08
1.50994e-08
6.65656e-08
3.15881e-07
1.75754e-07
4.04579e-06
-3.39915e-07
3.70227e-07
4.41013e-06
3.10758e-07
2.2507e-06
-1.20216e-06
-8.57666e-07
-3.05495e-07
3.7743e-06
1.44358e-08
-6.96605e-07
5.81562e-08
5.32203e-06
-5.44935e-08
5.44885e-07
1.67781e-06
7.11233e-08
8.18366e-07
2.85411e-07
4.37731e-07
6.82098e-07
3.96302e-06
-4.54661e-07
5.53555e-07
3.97278e-06
2.88497e-07
2.15288e-06
-1.30398e-06
-1.97962e-07
-7.47012e-07
2.72386e-06
-5.02496e-07
-7.72183e-07
-2.39695e-07
4.4457e-06
-9.34583e-07
6.60283e-07
5.51112e-06
-5.46559e-07
1.46931e-06
5.23622e-06
-9.58016e-07
7.30405e-07
4.71167e-06
-1.40535e-06
2.09752e-07
2.8535e-06
-1.7823e-07
1.77165e-06
-1.84674e-06
1.94686e-07
1.88365e-06
-8.24898e-07
-1.10058e-06
-4.69062e-07
2.75774e-06
-6.91823e-07
-1.0676e-06
3.7397e-06
-2.94641e-08
-1.26198e-06
3.85334e-06
3.5121e-07
-1.52906e-06
2.81725e-06
-1.06861e-07
-1.77737e-06
1.90632e-06
-5.02325e-07
1.55011e-06
-2.05935e-06
-8.30976e-07
8.09621e-07
1.96673e-06
3.34029e-06
-1.79339e-06
-2.59016e-06
-1.31213e-08
1.54181e-06
3.84833e-06
-2.20547e-06
-5.5163e-07
7.08189e-07
4.51953e-06
-1.61083e-06
-7.92127e-07
2.37739e-07
4.5465e-06
-1.45989e-06
-1.35947e-06
1.16523e-06
3.78105e-06
-2.12032e-06
-2.10544e-06
1.72362e-06
3.32997e-06
-2.59347e-06
1.95921e-06
3.14248e-06
-2.86747e-06
-2.81421e-06
2.42196e-07
1.40059e-06
3.97121e-06
-1.21654e-06
-5.12492e-07
9.31375e-07
5.27488e-06
-8.98874e-07
-1.05612e-07
6.52978e-06
-8.0079e-07
-5.95884e-07
6.44384e-06
-1.3756e-06
4.61321e-07
5.24645e-06
-2.05639e-06
9.9869e-07
3.80212e-06
1.12803e-06
3.29242e-06
-2.84283e-06
-1.93376e-07
7.42768e-07
5.04094e-06
-7.10274e-07
-5.70644e-07
2.8832e-07
6.54901e-06
-2.2884e-07
-5.27063e-08
4.19667e-06
-1.30568e-07
-6.4443e-08
2.80667e-06
-8.86603e-07
2.34775e-07
6.68126e-06
-1.75434e-06
5.97459e-07
4.77628e-06
4.963e-07
3.50443e-06
-2.67134e-06
-6.27652e-07
6.72754e-08
5.90065e-06
-3.41702e-07
-7.51304e-07
2.39037e-07
7.11521e-06
-8.56241e-08
1.013e-07
1.26668e-06
-2.15753e-07
3.68274e-08
9.96467e-08
-7.55193e-07
1.88589e-07
6.70623e-06
-1.59483e-06
1.87154e-07
5.66002e-06
2.35287e-09
3.72992e-06
-2.57999e-06
-1.37813e-07
-6.80416e-07
5.36329e-06
-7.03236e-07
-5.48722e-07
-2.50679e-07
6.75584e-06
-1.13217e-07
3.60355e-07
3.05175e-06
-2.06115e-08
6.42373e-07
9.87595e-07
-6.2027e-07
2.60045e-07
6.16241e-06
-1.61857e-06
-6.50387e-08
5.22332e-06
-4.88539e-07
3.64047e-06
-2.61512e-06
4.65884e-07
-1.37371e-06
4.28098e-06
-1.32949e-06
-3.27556e-07
-8.65292e-07
5.88881e-06
-8.38623e-07
-1.41203e-08
6.91094e-06
-8.11464e-07
6.50567e-07
6.50012e-06
-1.60269e-06
-1.67686e-07
6.07451e-06
-2.23455e-06
-7.86307e-07
4.20676e-06
-1.34959e-06
3.36293e-06
-2.9646e-06
9.81796e-07
3.48515e-06
-1.887e-06
-2.06961e-06
7.80431e-08
4.27372e-06
-1.47683e-06
-7.11608e-07
5.25995e-06
-7.4442e-07
-1.15686e-06
5.38257e-06
-4.33233e-07
-1.74876e-06
4.33178e-06
-1.09015e-06
-2.36298e-06
3.49855e-06
-1.76416e-06
3.17584e-06
-3.0134e-06
-2.32473e-06
1.87525e-06
2.5794e-06
-3.07661e-06
-3.3537e-06
5.31583e-06
7.58873e-07
2.45203e-06
-3.23857e-06
5.75128e-06
-1.65721e-07
1.97027e-06
-2.87381e-06
6.34772e-06
-8.59126e-07
1.66536e-06
-2.7961e-06
6.37075e-06
-1.76397e-06
2.41007e-06
-3.37034e-06
5.64616e-06
-2.73056e-06
2.7648e-06
-3.69683e-06
5.2285e-06
2.79092e-06
-3.64269e-06
-3.76955e-06
5.03307e-06
1.31015e-06
1.81196e-06
-2.48176e-06
5.91043e-06
2.05202e-07
1.74891e-06
7.08308e-06
-6.38216e-07
1.0452e-06
8.29827e-06
-1.14376e-06
3.88342e-07
8.23407e-06
-2.02595e-06
1.58978e-06
6.94878e-06
-2.90898e-06
1.8343e-06
5.61534e-06
1.76988e-06
-3.77783e-06
5.18198e-06
8.86847e-07
8.6957e-07
-1.88986e-06
6.9864e-06
-6.28378e-09
7.12143e-07
8.48045e-06
-3.12815e-07
6.25783e-08
6.29676e-06
-7.99408e-07
1.34038e-10
4.97574e-06
-2.13011e-06
7.7486e-07
8.5838e-06
-2.96149e-06
9.37443e-07
6.50442e-06
7.42635e-07
-3.81137e-06
5.38145e-06
4.43421e-07
-1.44874e-07
-1.41809e-06
7.88986e-06
-2.71615e-07
1.46355e-08
8.7434e-06
-1.12275e-07
6.08444e-08
1.94083e-06
-6.4047e-07
7.24223e-08
8.43501e-07
-2.32051e-06
9.22327e-08
9.20877e-06
-3.02021e-06
-6.26446e-08
7.35977e-06
-2.97228e-07
-3.8389e-06
5.58848e-06
8.8551e-07
-1.19628e-06
-1.8121e-06
7.34136e-06
-2.27653e-08
-9.40054e-07
8.62754e-06
-1.68881e-07
-2.3539e-07
4.21692e-06
-5.12267e-07
1.83712e-07
2.36704e-06
-2.1007e-06
-5.22477e-07
8.36933e-06
-2.94329e-06
-9.34888e-07
6.93813e-06
-1.30605e-06
-3.80014e-06
5.50611e-06
1.43817e-06
-2.14193e-06
-2.46589e-06
6.25445e-06
3.57368e-07
-1.76852e-06
7.79814e-06
-6.37453e-07
-1.10842e-06
8.73032e-06
-1.38954e-06
-5.70624e-07
8.27445e-06
-2.32872e-06
-1.37743e-06
7.85358e-06
-3.07023e-06
-1.98913e-06
6.00251e-06
-2.43593e-06
-3.84863e-06
5.27115e-06
1.90721e-06
-2.99561e-06
-3.06701e-06
5.49877e-06
7.7152e-07
-2.57935e-06
6.22041e-06
-3.35623e-07
-1.91027e-06
7.16898e-06
-1.16225e-06
-1.63798e-06
7.27657e-06
-2.03999e-06
-2.38054e-06
6.21262e-06
-2.85817e-06
-3.09136e-06
5.41892e-06
-3.63466e-06
-3.58353e-06
5.09981e-06
-2.96617e-06
-1.5488e-07
3.46843e-08
3.97987e-07
-3.02339e-06
-3.94719e-07
4.6919e-08
4.0579e-07
-3.15764e-06
-2.8771e-07
6.55159e-08
3.59145e-07
-3.36186e-06
-1.96302e-07
7.46495e-08
3.21817e-07
-3.58327e-06
-1.4996e-07
7.55293e-08
2.97847e-07
-3.80819e-06
-1.2188e-07
6.82485e-08
2.79431e-07
-4.02583e-06
-1.00775e-07
5.33812e-08
2.63314e-07
-8.51964e-08
3.2554e-08
2.4931e-07
-4.22146e-06
-2.52707e-06
1.71238e-08
2.78056e-08
-2.79403e-06
-1.80268e-07
5.3817e-08
-3.04357e-06
-1.24108e-07
8.56247e-08
-3.28588e-06
-5.88716e-08
1.05702e-07
-3.52367e-06
-2.47646e-08
1.11971e-07
-3.74244e-06
-1.1071e-08
1.07232e-07
-3.93125e-06
-3.29781e-09
9.21319e-08
6.84484e-10
6.82582e-08
-4.0853e-06
-2.49453e-06
1.28657e-07
3.68234e-08
-2.73226e-06
6.85215e-09
4.98465e-08
-2.98565e-06
3.88708e-08
9.01716e-08
-3.25604e-06
9.00664e-08
1.22292e-07
-3.5035e-06
9.12445e-08
1.31421e-07
-3.7258e-06
8.43397e-08
1.26901e-07
-3.91398e-06
7.57403e-08
1.09169e-07
6.68384e-08
8.13177e-08
-4.0614e-06
-2.13512e-06
2.49566e-07
5.51453e-08
-2.48162e-06
3.02196e-07
5.04597e-08
-2.80726e-06
2.7499e-07
8.95507e-08
-3.03864e-06
2.04451e-07
1.17697e-07
-3.25045e-06
1.7495e-07
1.27351e-07
-3.44434e-06
1.54743e-07
1.23494e-07
-3.61358e-06
1.36409e-07
1.08569e-07
1.21106e-07
8.34376e-08
-3.75127e-06
-2.64354e-06
4.16548e-07
4.89791e-08
-2.92869e-06
5.36379e-07
5.09467e-08
-3.1515e-06
4.1718e-07
8.04731e-08
-3.40262e-06
3.49995e-07
1.05653e-07
-3.64725e-06
3.08176e-07
1.11309e-07
-3.86742e-06
2.71663e-07
1.03251e-07
-4.05591e-06
2.41646e-07
8.32427e-08
2.20715e-07
5.43335e-08
-4.20989e-06
-2.7642e-06
5.32974e-07
2.87173e-08
-2.92334e-06
6.52756e-07
4.2685e-08
-3.17331e-06
5.9675e-07
6.96751e-08
-3.41642e-06
5.03444e-07
9.05452e-08
-3.63759e-06
4.38284e-07
9.21581e-08
-3.84886e-06
3.98791e-07
8.30869e-08
-4.03891e-06
3.68428e-07
6.39705e-08
3.44801e-07
3.73593e-08
-4.20039e-06
-3.00738e-06
2.68676e-08
7.11235e-07
-3.18091e-06
4.27349e-08
7.80182e-07
-3.31487e-06
6.10752e-08
6.6963e-07
-3.47681e-06
6.62415e-08
5.99358e-07
-3.67471e-06
6.34737e-08
5.73557e-07
-3.89132e-06
5.22168e-08
5.63328e-07
-4.11054e-06
3.30076e-08
5.54486e-07
9.09258e-09
5.43156e-07
-4.31724e-06
-2.09465e-06
-1.54481e-07
3.40999e-07
2.96584e-07
-2.58217e-06
-1.07739e-07
3.73833e-07
2.6841e-07
-3.05895e-06
-7.83752e-08
3.82986e-07
2.37886e-07
-3.50478e-06
-5.85701e-08
3.6746e-07
2.11648e-07
-3.90398e-06
-4.56393e-08
3.30842e-07
1.89597e-07
-4.2463e-06
-3.67268e-08
2.76702e-07
1.70697e-07
-4.52674e-06
-3.02069e-08
2.09958e-07
1.54161e-07
-2.54307e-08
1.35744e-07
1.39571e-07
-4.744e-06
-2.01381e-06
-5.56656e-08
4.60835e-07
-2.55089e-06
-8.00829e-09
4.91272e-07
-3.05924e-06
1.44514e-08
5.01238e-07
-3.52295e-06
2.89035e-08
4.82041e-07
-3.92812e-06
3.56729e-08
4.35986e-07
-4.2627e-06
3.74656e-08
3.67722e-07
-4.52108e-06
3.66717e-08
2.83759e-07
3.43655e-08
1.91172e-07
-4.70367e-06
-1.73838e-06
1.19674e-07
5.51651e-07
-2.37477e-06
1.13343e-07
5.64982e-07
-2.96165e-06
1.14667e-07
5.76895e-07
-3.47799e-06
1.11387e-07
5.56259e-07
-3.9162e-06
1.02425e-07
5.02974e-07
-4.2664e-06
9.15507e-08
4.23119e-07
-4.52592e-06
8.04557e-08
3.25017e-07
6.99694e-08
2.17473e-07
-4.69758e-06
-1.59772e-06
3.6246e-07
6.03726e-07
-2.30722e-06
2.87699e-07
5.85703e-07
-2.93745e-06
2.41762e-07
5.92731e-07
-3.48373e-06
2.0676e-07
5.68767e-07
-3.94325e-06
1.78128e-07
5.11309e-07
-4.30861e-06
1.54257e-07
4.26277e-07
-4.57634e-06
1.34419e-07
3.22438e-07
1.17906e-07
2.09047e-07
-4.74978e-06
-1.79445e-06
5.7157e-07
5.65859e-07
-2.45024e-06
4.47704e-07
5.46785e-07
-3.04439e-06
3.66291e-07
5.50179e-07
-3.56602e-06
3.09589e-07
5.24547e-07
-4.00925e-06
2.65541e-07
4.67238e-07
-4.36539e-06
2.29671e-07
3.84065e-07
-4.63149e-06
2.00317e-07
2.83515e-07
1.76347e-07
1.73815e-07
-4.80935e-06
-2.16073e-06
6.62793e-07
4.50082e-07
-2.68512e-06
5.5063e-07
4.64221e-07
-3.19637e-06
4.7981e-07
4.67513e-07
-3.66292e-06
4.25025e-07
4.41706e-07
-4.07281e-06
3.79314e-07
3.88388e-07
-4.41358e-06
3.40284e-07
3.1332e-07
-4.67874e-06
3.06035e-07
2.23468e-07
2.7567e-07
1.25518e-07
-4.86615e-06
-2.32203e-06
3.32386e-07
7.26268e-07
-2.76586e-06
3.60495e-07
6.76772e-07
-3.2129e-06
3.64462e-07
6.23511e-07
-3.63991e-06
3.42296e-07
5.76044e-07
-4.02875e-06
2.97871e-07
5.33789e-07
-4.36652e-06
2.35465e-07
4.94854e-07
-4.64608e-06
1.60633e-07
4.58014e-07
7.84214e-08
4.22834e-07
-4.86251e-06
-2.48797e-06
1.27485e-08
8.73654e-07
1.36402e-07
-3.23652e-06
6.13946e-08
9.58844e-07
1.024e-07
-4.01077e-06
8.64749e-08
9.97664e-07
7.32343e-08
-4.78154e-06
9.80079e-08
9.90454e-07
4.98762e-08
-5.52294e-06
1.01942e-07
9.38406e-07
3.19949e-08
-6.20877e-06
1.01523e-07
8.42263e-07
1.88265e-08
-6.8092e-06
9.85266e-08
7.02361e-07
9.57083e-09
9.39384e-08
5.21986e-07
3.47047e-09
-7.29278e-06
-2.46071e-06
6.35141e-08
1.15941e-06
-3.24597e-06
1.0675e-07
1.23128e-06
-4.04462e-06
1.27933e-07
1.25855e-06
-4.83348e-06
1.35352e-07
1.23369e-06
-5.5861e-06
1.34309e-07
1.15637e-06
-6.27242e-06
1.28568e-07
1.02711e-06
-6.85646e-06
1.20238e-07
8.46188e-07
1.10279e-07
6.17808e-07
-7.29935e-06
-2.25302e-06
1.25959e-07
1.36157e-06
-3.12637e-06
1.32845e-07
1.41241e-06
-3.98713e-06
1.33058e-07
1.43273e-06
-4.81905e-06
1.26529e-07
1.3972e-06
-5.59965e-06
1.15481e-07
1.30254e-06
-6.30011e-06
1.02914e-07
1.14935e-06
-6.8832e-06
9.02363e-08
9.38213e-07
7.78758e-08
6.74156e-07
-7.30737e-06
-2.14756e-06
2.33015e-07
1.44226e-06
-3.07525e-06
1.77931e-07
1.46855e-06
-3.97296e-06
1.39958e-07
1.48375e-06
-4.82861e-06
1.07771e-07
1.44341e-06
-5.62342e-06
8.01161e-08
1.34166e-06
-6.33048e-06
5.72751e-08
1.17914e-06
-6.91335e-06
3.89881e-08
9.56706e-07
2.46627e-08
6.79817e-07
-7.33076e-06
-2.25262e-06
3.79642e-07
1.36809e-06
-3.1683e-06
2.48437e-07
1.39219e-06
-4.04988e-06
1.67652e-07
1.40427e-06
-4.89033e-06
1.09666e-07
1.36326e-06
-5.67266e-06
6.63708e-08
1.26347e-06
-6.371e-06
3.42793e-08
1.10555e-06
-6.95011e-06
1.11798e-08
8.90565e-07
-4.95752e-09
6.24038e-07
-7.37058e-06
-2.5998e-06
4.34838e-07
1.14816e-06
-3.39026e-06
3.02222e-07
1.20107e-06
-4.18997e-06
2.17574e-07
1.21748e-06
-4.97521e-06
1.5433e-07
1.1824e-06
-5.72104e-06
1.05994e-07
1.09472e-06
-6.39842e-06
6.94649e-08
9.55659e-07
-6.97246e-06
4.24464e-08
7.66372e-07
2.30082e-08
5.31914e-07
-7.4067e-06
-2.68423e-06
8.65053e-07
5.27208e-07
-3.4068e-06
9.40526e-07
4.44882e-07
-4.16466e-06
9.69329e-07
3.7068e-07
-4.92487e-06
9.5062e-07
3.06306e-07
-5.65903e-06
8.86179e-07
2.51942e-07
-6.33865e-06
7.77558e-07
2.07089e-07
-6.93256e-06
6.26109e-07
1.7099e-07
4.36176e-07
1.42556e-07
-7.40976e-06
-4.06795e-06
2.30121e-07
1.84354e-06
4.73168e-10
-5.4115e-06
2.76059e-07
2.05889e-06
-3.24225e-08
-6.82067e-06
2.90824e-07
2.17102e-06
-5.49448e-08
-8.21148e-06
2.90209e-07
2.16097e-06
-6.98617e-08
-9.48536e-06
2.80664e-07
2.01081e-06
-7.91321e-08
-1.05328e-05
2.65764e-07
1.70845e-06
-8.44948e-08
-1.12355e-05
2.47444e-07
1.24487e-06
-8.72717e-08
2.27183e-07
6.04085e-07
-8.83159e-08
-1.14564e-05
-4.09885e-06
2.5088e-07
2.39462e-06
-5.46545e-06
2.75241e-07
2.5987e-06
-6.90185e-06
2.85893e-07
2.69991e-06
-8.32763e-06
2.82307e-07
2.66741e-06
-9.63501e-06
2.69899e-07
2.47454e-06
-1.06966e-05
2.51713e-07
2.10278e-06
-1.13708e-05
2.29295e-07
1.53855e-06
2.03353e-07
7.57458e-07
-1.14867e-05
-3.98837e-06
1.6557e-07
2.76407e-06
-5.41106e-06
1.55385e-07
2.9551e-06
-6.89188e-06
1.45966e-07
3.05359e-06
-8.35633e-06
1.31759e-07
3.01227e-06
-9.69571e-06
1.15875e-07
2.79595e-06
-1.07745e-05
1.00197e-07
2.37966e-06
-1.14376e-05
8.51131e-08
1.74556e-06
7.03691e-08
8.63186e-07
-1.14936e-05
-3.93822e-06
6.42224e-08
2.902e-06
-5.39557e-06
5.0632e-09
3.07639e-06
-6.89841e-06
-3.97377e-08
3.17238e-06
-8.37816e-06
-7.29045e-08
3.12789e-06
-9.72883e-06
-9.50895e-08
2.90335e-06
-1.08134e-05
-1.07013e-07
2.47101e-06
-1.14726e-05
-1.10151e-07
1.81127e-06
-1.06174e-07
8.91695e-07
-1.15079e-05
-3.98705e-06
3.19036e-08
2.77251e-06
-5.44804e-06
-8.61078e-08
2.94449e-06
-6.94772e-06
-1.70935e-07
3.03523e-06
-8.4197e-06
-2.26133e-07
2.98853e-06
-9.76103e-06
-2.58018e-07
2.76783e-06
-1.08388e-05
-2.71429e-07
2.34786e-06
-1.14987e-05
-2.70272e-07
1.71064e-06
-2.57534e-07
8.26312e-07
-1.15495e-05
-4.21505e-06
3.84404e-08
2.39225e-06
-5.5855e-06
-9.5551e-08
2.58108e-06
-7.02422e-06
-1.86729e-07
2.67208e-06
-8.45036e-06
-2.47988e-07
2.63049e-06
-9.75629e-06
-2.86636e-07
2.42938e-06
-1.08147e-05
-3.0738e-07
2.05016e-06
-1.14831e-05
-3.14472e-07
1.47907e-06
-3.1137e-07
6.92954e-07
-1.15902e-05
-4.18746e-06
1.84229e-06
2.35402e-07
-5.51424e-06
2.05083e-06
1.21031e-07
-6.91983e-06
2.15577e-06
3.25239e-08
-8.31548e-06
2.13747e-06
-3.90833e-08
-9.59836e-06
1.978e-06
-9.54635e-08
-1.0656e-05
1.66525e-06
-1.37383e-07
-1.13656e-05
1.19049e-06
-1.69077e-07
5.4002e-07
-1.92477e-07
-1.15883e-05
-5.08866e-06
3.87945e-07
-7.99343e-08
2.98119e-06
-6.75924e-06
4.17898e-07
-1.05829e-07
3.41717e-06
-8.63159e-06
4.2292e-07
-1.18731e-07
3.73898e-06
-1.06792e-05
4.18078e-07
-1.23357e-07
3.91373e-06
-1.28767e-05
4.10549e-07
-1.22233e-07
3.91986e-06
-1.51984e-05
4.01657e-07
-1.17344e-07
3.74565e-06
-1.76158e-05
3.84486e-07
-1.10183e-07
3.38776e-06
3.54111e-07
-1.01826e-07
-2.01586e-05
2.89446e-06
-5.23213e-06
4.00405e-07
3.83616e-06
-6.87164e-06
3.95929e-07
4.25998e-06
-8.71304e-06
3.91838e-07
4.57222e-06
-1.07382e-05
3.82849e-07
4.72766e-06
-1.29156e-05
3.72146e-07
4.69014e-06
-1.52069e-05
3.60061e-07
4.43554e-06
-1.75829e-05
3.43058e-07
3.95583e-06
3.15747e-07
-2.01059e-05
3.31868e-06
-5.26246e-06
2.0921e-07
4.40625e-06
-6.89361e-06
1.67293e-07
4.81481e-06
-8.71546e-06
1.41462e-07
5.12575e-06
-1.07204e-05
1.21133e-07
5.27883e-06
-1.28819e-05
1.06747e-07
5.22273e-06
-1.51601e-05
9.76084e-08
4.92034e-06
-1.752e-05
9.14107e-08
4.35696e-06
8.4401e-08
-2.00403e-05
3.61482e-06
-5.28227e-06
-6.96687e-08
4.62421e-06
-6.90797e-06
-1.44615e-07
5.01391e-06
-8.71572e-06
-1.98841e-07
5.32033e-06
-1.07046e-05
-2.3428e-07
5.47217e-06
-1.28528e-05
-2.52286e-07
5.41057e-06
-1.51214e-05
-2.55103e-07
5.09235e-06
-1.74736e-05
-2.45088e-07
4.49986e-06
-2.23833e-07
-1.99933e-05
3.71955e-06
-5.26306e-06
-2.64516e-07
4.43022e-06
-6.8987e-06
-3.84868e-07
4.82026e-06
-8.71316e-06
-4.71096e-07
5.12187e-06
-1.07051e-05
-5.23876e-07
5.27007e-06
-1.28525e-05
-5.49215e-07
5.21217e-06
-1.51184e-05
-5.51529e-07
4.91021e-06
-1.74691e-05
-5.32244e-07
4.34844e-06
-4.90735e-07
-1.99827e-05
3.60673e-06
-5.26937e-06
-3.07899e-07
3.85625e-06
-6.88368e-06
-4.54885e-07
4.2653e-06
-8.69758e-06
-5.53976e-07
4.56887e-06
-1.06937e-05
-6.16888e-07
4.71966e-06
-1.28429e-05
-6.51245e-07
4.68063e-06
-1.51101e-05
-6.60935e-07
4.42679e-06
-1.74686e-05
-6.42975e-07
3.94828e-06
-5.96726e-07
-1.99806e-05
3.3109e-06
-5.03964e-06
-6.11909e-08
3.00041e-06
-6.67683e-06
-1.99474e-07
3.43254e-06
-8.52714e-06
-3.00532e-07
3.75267e-06
-1.05599e-05
-3.73248e-07
3.92669e-06
-1.27464e-05
-4.18799e-07
3.93206e-06
-1.50596e-05
-4.39244e-07
3.75665e-06
-1.74702e-05
-4.38004e-07
3.39609e-06
-4.18931e-07
-2.00067e-05
2.89862e-06
-2.05458e-06
4.96195e-07
7.28925e-08
-2.61161e-07
-2.18369e-06
2.77334e-07
8.52517e-08
-2.31986e-07
-2.27692e-06
1.29459e-07
1.00956e-07
-1.37351e-07
-2.5101e-06
2.43581e-07
1.04665e-07
-1.14532e-07
-2.78396e-06
2.70551e-07
9.80051e-08
-9.47929e-08
-3.07601e-06
2.95518e-07
8.14308e-08
-8.57881e-08
-3.36738e-06
3.15341e-07
5.57984e-08
-7.98588e-08
3.29308e-07
2.41101e-08
-7.59708e-08
-3.64557e-06
-1.8777e-06
2.7964e-07
1.41389e-07
-1.79457e-06
8.33799e-08
1.0995e-07
-1.87303e-06
5.4789e-08
1.57508e-07
-1.99826e-06
1.88182e-07
1.79874e-07
-2.1387e-06
2.21165e-07
1.90838e-07
-2.29883e-06
2.6427e-07
1.91787e-07
-2.46639e-06
3.00539e-07
1.8165e-07
3.28478e-07
1.63056e-07
-2.62872e-06
-1.9853e-06
-1.72277e-07
2.95342e-07
-1.87469e-06
-1.73768e-07
1.4674e-07
-1.88676e-06
-1.43547e-07
2.05556e-07
-1.8672e-06
-7.97434e-08
2.48145e-07
-1.88774e-06
-5.05338e-08
2.91515e-07
-1.92093e-06
-2.40768e-08
3.21377e-07
-1.9693e-06
1.51152e-08
3.33628e-07
5.52494e-08
3.33795e-07
-2.02999e-06
-2.0776e-06
-4.822e-07
3.52924e-07
-2.15774e-06
-2.63452e-07
1.66764e-07
-2.07352e-06
-4.52171e-07
2.25042e-07
-2.01913e-06
-4.13717e-07
2.79708e-07
-2.01662e-06
-3.92723e-07
3.38921e-07
-2.03273e-06
-3.93963e-07
3.85776e-07
-2.01923e-06
-4.18075e-07
4.19502e-07
-4.23638e-07
4.36057e-07
-1.97656e-06
-1.32436e-06
-1.07959e-06
2.22276e-07
-1.21554e-06
-4.89711e-07
1.2076e-07
-1.46377e-06
-3.97531e-07
1.99792e-07
-1.58418e-06
-5.28086e-07
2.33522e-07
-1.70221e-06
-5.38488e-07
2.64371e-07
-1.85162e-06
-5.26767e-07
2.8198e-07
-2.01661e-06
-5.47364e-07
2.94101e-07
-5.65254e-07
2.91156e-07
-2.16629e-06
-2.05768e-06
-9.41274e-07
1.07965e-07
-2.02088e-06
-6.24945e-07
1.00124e-07
-2.08769e-06
-4.88974e-07
1.47039e-07
-2.19093e-06
-5.92179e-07
1.66873e-07
-2.31983e-06
-5.89773e-07
1.79442e-07
-2.46066e-06
-5.61735e-07
1.76359e-07
-2.61374e-06
-5.61605e-07
1.67176e-07
-5.7989e-07
1.51686e-07
-2.7509e-06
-1.96129e-06
6.53291e-08
-5.81336e-07
-2.12423e-06
8.13797e-08
-5.52383e-07
-2.26697e-06
9.73734e-08
-4.37249e-07
-2.54743e-06
1.06502e-07
-4.19118e-07
-2.84768e-06
1.03927e-07
-3.94609e-07
-3.1405e-06
9.34359e-08
-3.61569e-07
-3.4406e-06
7.60337e-08
-3.38253e-07
5.02757e-08
-3.36656e-07
-3.73417e-06
-1.12303e-06
2.30785e-07
4.1256e-07
-1.58829e-07
-1.60396e-06
2.63372e-07
4.29763e-07
-1.27048e-07
-2.09971e-06
2.6452e-07
4.3543e-07
-1.03265e-07
-2.58846e-06
2.70802e-07
4.12251e-07
-8.96817e-08
-3.04612e-06
2.73421e-07
3.61771e-07
-7.95664e-08
-3.45693e-06
2.75119e-07
2.89246e-07
-7.21822e-08
-3.81124e-06
2.7514e-07
2.01604e-07
-6.66607e-08
2.73001e-07
1.05703e-07
-6.25781e-08
-4.10327e-06
-9.84314e-07
9.7849e-08
6.85301e-07
-1.38495e-06
1.45126e-07
6.28444e-07
-1.78961e-06
1.8543e-07
6.41135e-07
-2.19976e-06
2.22634e-07
6.38069e-07
-2.59106e-06
2.50866e-07
6.04619e-07
-2.9422e-06
2.7711e-07
5.40943e-07
-3.23921e-06
2.98479e-07
4.55333e-07
3.14873e-07
3.58029e-07
-3.47528e-06
-5.99524e-07
-2.01085e-07
1.10403e-06
-1.00113e-06
-1.60729e-07
8.54478e-07
-1.34805e-06
-1.10976e-07
8.48791e-07
-1.6832e-06
-7.00558e-08
8.7597e-07
-1.9848e-06
-3.69432e-08
8.80897e-07
-2.23434e-06
-4.59823e-09
8.52577e-07
-2.42034e-06
2.24485e-08
7.95622e-07
4.71316e-08
7.19379e-07
-2.53811e-06
-4.76218e-07
-5.81976e-07
1.27189e-06
-8.96422e-07
-5.05133e-07
9.31301e-07
-1.23516e-06
-4.69067e-07
9.21767e-07
-1.54991e-06
-4.44387e-07
9.68862e-07
-1.82195e-06
-4.25355e-07
9.99383e-07
-2.02853e-06
-4.11387e-07
9.99131e-07
-2.15858e-06
-3.98493e-07
9.70488e-07
-3.85279e-07
9.21589e-07
-2.21171e-06
-5.30313e-07
-7.36178e-07
9.60257e-07
-9.93058e-07
-7.06775e-07
7.8446e-07
-1.38694e-06
-6.83545e-07
8.08185e-07
-1.76359e-06
-6.72141e-07
8.37799e-07
-2.10825e-06
-6.57459e-07
8.41109e-07
-2.40717e-06
-6.43808e-07
8.13302e-07
-2.63999e-06
-6.30861e-07
7.59276e-07
-6.17475e-07
6.89241e-07
-2.80588e-06
-8.46257e-07
-7.19014e-07
6.12005e-07
-1.33346e-06
-7.15213e-07
5.96285e-07
-1.80412e-06
-6.84306e-07
6.1843e-07
-2.26405e-06
-6.63189e-07
6.17874e-07
-2.69171e-06
-6.38581e-07
5.8815e-07
-3.07435e-06
-6.14741e-07
5.29932e-07
-3.39678e-06
-5.91472e-07
4.50227e-07
-5.68017e-07
3.59451e-07
-3.65397e-06
-9.15445e-07
3.96629e-07
-5.39658e-07
-1.47905e-06
4.2411e-07
-4.94708e-07
-2.04424e-06
4.33647e-07
-4.55503e-07
-2.59049e-06
4.14614e-07
-4.24987e-07
-3.09667e-06
3.69821e-07
-3.98345e-07
-3.54846e-06
3.04658e-07
-3.74153e-07
-3.93692e-06
2.25141e-07
-3.52095e-07
1.37344e-07
-3.31706e-07
-4.26027e-06
-1.49307e-06
2.48382e-07
9.50316e-07
-1.17841e-07
-2.27212e-06
2.96773e-07
1.00649e-06
-9.4367e-08
-3.08888e-06
3.00167e-07
1.03489e-06
-8.27031e-08
-3.90522e-06
2.90607e-07
1.01386e-06
-7.58019e-08
-4.69054e-06
2.74961e-07
9.43028e-07
-7.08756e-08
-5.41573e-06
2.56486e-07
8.2515e-07
-6.71653e-08
-6.04963e-06
2.36716e-07
6.6294e-07
-6.41002e-08
2.1639e-07
4.62054e-07
-6.13164e-08
-6.56099e-06
-1.18161e-06
1.72492e-07
1.44058e-06
-1.88859e-06
2.40902e-07
1.39151e-06
-2.63969e-06
2.77374e-07
1.41548e-06
-3.40628e-06
2.87526e-07
1.40738e-06
-4.16047e-06
2.90852e-07
1.34252e-06
-4.87255e-06
2.89239e-07
1.2185e-06
-5.49845e-06
2.82111e-07
1.03592e-06
2.71056e-07
8.00984e-07
-5.9959e-06
-6.18588e-07
-1.5495e-07
2.06465e-06
-1.23462e-06
-7.41696e-08
1.78576e-06
-1.88825e-06
-4.28493e-09
1.78426e-06
-2.56794e-06
3.05202e-08
1.81267e-06
-3.24646e-06
5.7746e-08
1.79274e-06
-3.89124e-06
8.05858e-08
1.7061e-06
-4.46135e-06
9.87692e-08
1.5492e-06
1.11943e-07
1.32771e-06
-4.91042e-06
-3.81438e-07
-5.4646e-07
2.34589e-06
-9.90752e-07
-4.79491e-07
1.94616e-06
-1.5974e-06
-4.12282e-07
1.93664e-06
-2.23028e-06
-3.59428e-07
1.99193e-06
-2.85972e-06
-3.1801e-07
2.00481e-06
-3.44851e-06
-2.8245e-07
1.95116e-06
-3.95326e-06
-2.50455e-07
1.82486e-06
-2.22356e-07
1.62938e-06
-4.3263e-06
-6.48224e-07
-7.618e-07
1.90384e-06
-1.34192e-06
-7.1907e-07
1.71812e-06
-2.03953e-06
-6.63639e-07
1.75764e-06
-2.74894e-06
-6.11572e-07
1.79899e-06
-3.45277e-06
-5.61444e-07
1.78871e-06
-4.11636e-06
-5.16224e-07
1.71101e-06
-4.70075e-06
-4.70667e-07
1.56526e-06
-4.28028e-07
1.35106e-06
-5.15526e-06
-1.06706e-06
-7.0087e-07
1.35555e-06
-1.8653e-06
-6.92543e-07
1.36842e-06
-2.67392e-06
-6.48426e-07
1.41272e-06
-3.4839e-06
-5.99546e-07
1.41504e-06
-4.26837e-06
-5.4973e-07
1.36e-06
-5.00651e-06
-4.98327e-07
1.24628e-06
-5.65086e-06
-4.50429e-07
1.0745e-06
-4.06378e-07
8.49508e-07
-6.16241e-06
-1.32786e-06
9.31579e-07
-4.72347e-07
-2.18208e-06
1.00469e-06
-4.18782e-07
-3.05987e-06
1.04039e-06
-3.77192e-07
-3.92935e-06
1.02628e-06
-3.41588e-07
-4.76288e-06
9.63421e-07
-3.0968e-07
-5.5298e-06
8.54042e-07
-2.80657e-07
-6.20056e-06
6.99978e-07
-2.54371e-07
5.0599e-07
-2.30756e-07
-6.7447e-06
-3.14347e-06
3.44124e-07
1.93403e-06
-7.10327e-08
-4.57777e-06
3.6918e-07
2.12705e-06
-5.51123e-08
-6.07702e-06
3.47848e-07
2.23342e-06
-4.67419e-08
-7.54589e-06
3.05546e-07
2.21854e-06
-4.10662e-08
-8.88311e-06
2.54692e-07
2.06231e-06
-3.6492e-08
-9.97794e-06
2.01862e-07
1.75077e-06
-3.23966e-08
-1.07075e-05
1.4974e-07
1.27146e-06
-2.85139e-08
9.93583e-08
6.06267e-07
-2.48226e-08
-1.09261e-05
-2.5638e-06
3.40164e-07
2.67953e-06
-3.97097e-06
3.82368e-07
2.78674e-06
-5.4673e-06
3.72212e-07
2.88736e-06
-6.96397e-06
3.36782e-07
2.87211e-06
-8.35269e-06
2.90611e-07
2.69487e-06
-9.50117e-06
2.39741e-07
2.32929e-06
-1.0259e-05
1.85638e-07
1.7577e-06
1.31455e-07
9.48485e-07
-1.04388e-05
-1.72772e-06
-1.70488e-08
3.44673e-06
-3.00459e-06
8.62459e-08
3.35919e-06
-4.43569e-06
1.35024e-07
3.45304e-06
-5.90998e-06
1.51765e-07
3.47201e-06
-7.31228e-06
1.57259e-07
3.32729e-06
-8.49214e-06
1.55754e-07
2.96871e-06
-9.2783e-06
1.49354e-07
2.37028e-06
1.38368e-07
1.48509e-06
-9.44791e-06
-1.32926e-06
-4.93462e-07
3.81026e-06
-2.53706e-06
-3.62815e-07
3.6034e-06
-3.90592e-06
-2.575e-07
3.69847e-06
-5.33495e-06
-1.84359e-07
3.75789e-06
-6.70091e-06
-1.27686e-07
3.65565e-06
-7.84886e-06
-8.26592e-08
3.33772e-06
-8.59663e-06
-4.55168e-08
2.76768e-06
-1.92478e-08
1.88329e-06
-8.69287e-06
-1.84816e-06
-7.62446e-07
3.31116e-06
-3.16768e-06
-6.40724e-07
3.31588e-06
-4.59218e-06
-5.22274e-07
3.44714e-06
-6.03923e-06
-4.15047e-07
3.48524e-06
-7.41537e-06
-3.16529e-07
3.34919e-06
-8.56418e-06
-2.28137e-07
3.00293e-06
-9.31065e-06
-1.51025e-07
2.41515e-06
-7.97196e-08
1.53939e-06
-9.45017e-06
-2.5685e-06
-6.61985e-07
2.60754e-06
-4.02096e-06
-5.90756e-07
2.7727e-06
-5.5299e-06
-4.95004e-07
2.89372e-06
-7.02738e-06
-3.9406e-07
2.89076e-06
-8.41396e-06
-2.96255e-07