/*--------------------------------*- C++ -*----------------------------------*\
| =========                 |                                                 |
| \\      /  F ield         | OpenFOAM: The Open Source CFD Toolbox           |
|  \\    /   O peration     | Version:  plus.master                           |
|   \\  /    A nd           | Web:      www.OpenFOAM.com                      |
|    \\/     M anipulation  |                                                 |
\*---------------------------------------------------------------------------*/
FoamFile
{
    version     2.0;
    format      ascii;
    class       surfaceScalarField;
    location    "12.6";
    object      phi;
}
// * * * * * * * * * * * * * * * * * * * * * * * * * * * * * * * * * * * * * //

dimensions      [0 3 -1 0 0 0 0];

internalField   nonuniform List<scalar> 
138768
(
1.36921e-06
3.04649e-06
1.08619e-07
-1.77874e-06
-2.91892e-06
2.07534e-07
3.59893e-06
3.93549e-07
-3.05603e-06
-9.57073e-07
3.08539e-06
7.42629e-07
-2.95593e-06
-1.80313e-06
2.41671e-06
7.48824e-07
-2.61294e-06
-2.56128e-06
2.88648e-06
3.76335e-07
-2.57931e-06
-2.93596e-06
2.74832e-06
1.13203e-07
-2.48752e-06
2.23281e-06
2.09842e-08
-2.97195e-06
-2.29362e-06
2.26624e-06
2.5001e-06
4.16114e-07
-2.13583e-06
2.96642e-06
6.98124e-06
2.26408e-06
-4.40263e-07
9.94647e-06
2.89223e-06
-3.28972e-06
8.32148e-06
3.29126e-06
-6.41674e-06
9.70381e-06
2.65626e-06
-3.34132e-06
4.46988e-06
1.54964e-06
1.43172e-06
8.04715e-08
-3.01839e-06
2.5304e-06
1.12775e-06
8.8927e-07
-2.05568e-06
8.59911e-06
3.1347e-06
4.12425e-06
4.86966e-06
7.83429e-06
1.21881e-05
-8.48296e-06
1.27046e-05
1.53179e-05
-1.01868e-05
7.39389e-06
1.03628e-05
-3.09029e-06
1.58297e-06
2.13822e-06
7.18694e-07
2.90583e-07
-3.02641e-06
2.49076e-06
-1.79198e-07
1.2093e-06
-2.48884e-06
9.15685e-06
-1.34738e-06
4.1628e-06
1.06214e-05
-6.04024e-06
1.87586e-05
-1.39202e-05
-9.60976e-06
5.32096e-05
-8.01388e-06
-4.75971e-06
1.25986e-05
-2.36007e-06
-3.69679e-07
2.64553e-06
1.27666e-07
4.95993e-07
-2.63646e-06
2.83654e-06
-1.49663e-06
9.85237e-07
-2.50704e-06
9.60554e-06
-5.57845e-06
3.8088e-06
6.37277e-06
-9.9083e-06
1.34513e-05
-9.3235e-06
-8.98476e-06
2.14246e-05
-9.61407e-06
-8.40684e-06
1.02851e-05
-3.1099e-06
-2.75232e-06
2.2255e-06
-6.50014e-07
4.05145e-07
-3.14643e-06
2.7151e-06
-2.45115e-06
4.96242e-07
-2.25675e-06
4.03678e-06
-3.29519e-06
2.74191e-06
-7.99946e-08
-2.94273e-06
3.49976e-06
-4.51074e-06
-2.41304e-06
4.20763e-06
-7.53688e-06
-2.66263e-06
3.62878e-06
-3.58596e-06
-1.98411e-06
1.62727e-06
-1.46377e-06
1.4959e-07
-3.28269e-06
1.70156e-06
1.48379e-07
-1.99726e-06
-2.48037e-06
3.98484e-07
4.98314e-07
-2.81371e-06
-9.65341e-07
9.72022e-07
-2.77516e-06
-2.19512e-06
1.03846e-06
-2.44885e-06
-3.24004e-06
5.96451e-07
-2.2172e-06
-3.38984e-06
2.05418e-07
-2.03967e-06
2.14645e-08
-3.34192e-06
-1.88638e-06
-1.09201e-07
1.47721e-06
7.54096e-07
-4.34841e-07
-1.57864e-06
-7.38933e-07
9.41383e-07
1.34276e-06
-1.26091e-06
-1.15231e-06
-1.14381e-07
1.92997e-06
-6.59608e-07
-1.36487e-06
-5.92802e-07
1.92938e-06
-3.75268e-07
-1.36411e-06
-2.13324e-07
1.23239e-06
-6.43565e-07
-1.52119e-06
5.00219e-07
7.28181e-07
-9.58287e-07
6.32075e-07
5.66656e-07
-1.67467e-06
-1.02434e-06
-3.06334e-07
1.23934e-06
1.34239e-06
-3.82123e-07
-1.02486e-06
9.54134e-07
2.96974e-06
-1.17553e-06
-1.24122e-06
4.16968e-06
-1.18908e-06
-1.88584e-06
4.59763e-06
-1.24723e-06
-7.37325e-07
3.23821e-06
-1.23674e-06
3.02492e-07
1.73655e-06
3.09527e-07
6.97263e-07
-1.53107e-06
-9.80649e-07
8.74033e-07
2.21599e-06
1.92159e-08
-1.63717e-06
6.88334e-07
5.04648e-06
-1.26472e-06
-8.0437e-07
1.13786e-05
-5.92885e-07
-1.67051e-06
1.44306e-05
6.1754e-07
4.30769e-07
7.98359e-06
-2.77513e-07
5.78721e-07
2.75581e-06
3.75314e-07
1.02384e-06
-1.07676e-06
-8.46456e-07
9.333e-08
2.78982e-06
4.65529e-08
-1.94679e-06
3.66697e-08
5.91464e-06
-1.65949e-06
6.98523e-07
1.69678e-05
-1.30765e-07
2.45317e-06
4.75585e-05
7.7146e-07
4.35446e-07
1.17162e-05
8.02088e-08
3.7233e-07
3.54319e-06
4.50058e-07
1.33268e-06
-8.31268e-07
-7.86519e-07
-4.53096e-07
2.42853e-06
-1.10405e-07
-1.81856e-06
-3.37543e-07
5.21501e-06
-1.60601e-06
1.48798e-06
1.24475e-05
5.5447e-07
2.76573e-06
1.89129e-05
9.31423e-07
1.25013e-06
9.09452e-06
-2.41684e-07
6.45139e-07
3.12579e-06
4.72234e-07
1.23377e-06
-1.09257e-06
4.13745e-09
-8.66946e-07
1.53728e-06
-6.31313e-07
-6.39266e-07
-5.11953e-07
3.55995e-06
-1.16262e-06
5.31263e-07
4.9829e-06
-1.16736e-06
1.15015e-06
5.8277e-06
-1.33121e-06
8.94065e-07
4.14859e-06
-1.408e-06
3.02697e-07
2.04644e-06
8.38229e-08
8.19391e-07
-1.6895e-06
2.46769e-07
8.57703e-07
-7.43972e-07
-1.07918e-06
-4.92561e-07
1.60022e-06
-8.74833e-07
-1.1785e-06
2.41756e-06
-2.28239e-07
-1.64944e-06
2.53008e-06
1.29407e-07
-1.82862e-06
1.68861e-06
-1.89767e-08
-1.90828e-06
9.0314e-07
-3.15427e-07
5.76208e-07
-1.97951e-06
-3.99749e-07
-1.73823e-07
1.2419e-06
1.71383e-06
-4.8439e-07
-1.54343e-06
-7.25952e-07
6.4131e-07
2.34258e-06
-1.08924e-06
-9.80057e-07
-4.14382e-07
3.0515e-06
-4.53203e-07
-9.00802e-07
-1.00123e-06
3.06468e-06
-2.135e-07
-1.03328e-06
-1.17301e-07
2.23674e-06
-7.5472e-07
-1.34851e-06
5.33103e-07
1.69366e-06
-1.18347e-06
8.44579e-07
1.50763e-06
-1.73357e-06
-1.4007e-06
-6.3233e-07
9.53667e-07
2.41283e-06
-1.50103e-07
-1.21492e-06
2.91018e-07
3.9023e-06
-1.25954e-06
-1.46223e-06
5.26197e-06
-6.19851e-07
-2.68068e-06
5.6371e-06
-7.73768e-07
-7.01642e-07
3.97611e-06
-1.11289e-06
2.29538e-07
2.37907e-06
3.86603e-07
1.65499e-06
-1.61308e-06
-1.18707e-06
6.42679e-07
3.46868e-06
2.45225e-07
-2.00407e-06
1.48277e-07
6.00598e-06
-1.55635e-06
-1.02789e-06
1.04961e-05
2.36929e-07
-3.18714e-06
1.31426e-05
4.74273e-07
-7.96298e-08
7.12356e-06
-4.35667e-07
3.94979e-07
3.50062e-06
2.83845e-07
1.93557e-06
-1.24464e-06
-1.50664e-06
2.10855e-07
4.24755e-06
4.80586e-07
-3.2553e-06
4.12484e-07
7.39887e-06
-5.29333e-06
1.23773e-06
1.67394e-05
2.70998e-08
4.8434e-06
3.42016e-05
7.70694e-07
6.0354e-07
1.02678e-05
-1.03307e-07
3.9615e-07
4.41581e-06
3.29559e-07
2.2309e-06
-1.04741e-06
-1.10765e-06
-2.20205e-07
3.76131e-06
2.0576e-07
-2.13849e-06
2.24215e-07
6.43378e-06
-2.10999e-06
1.81771e-06
1.18384e-05
9.69232e-07
3.66411e-06
1.70303e-05
9.05268e-07
1.46031e-06
8.30012e-06
-2.33428e-07
6.81398e-07
3.97908e-06
3.55593e-07
2.13242e-06
-1.15828e-06
-3.53609e-07
-6.48663e-07
2.70419e-06
-3.85025e-07
-9.77664e-07
-9.26503e-08
4.50021e-06
-1.31757e-06
9.11527e-07
6.22691e-06
-5.74339e-07
1.78198e-06
6.96568e-06
-8.09179e-07
9.30796e-07
4.91286e-06
-1.25739e-06
3.34319e-07
2.84157e-06
-1.01374e-07
1.75295e-06
-1.73416e-06
1.016e-07
1.86307e-06
-7.40495e-07
-1.01524e-06
-5.5681e-07
2.73872e-06
-5.72947e-07
-1.10716e-06
3.71858e-06
1.6059e-07
-1.19441e-06
3.8578e-06
5.41365e-07
-1.42786e-06
2.80393e-06
4.87447e-08
-1.67968e-06
1.88702e-06
-3.97891e-07
1.53191e-06
-1.97852e-06
-7.58421e-07
7.01085e-07
1.83048e-06
3.33421e-06
-1.68373e-06
-2.46824e-06
-9.00064e-08
1.34164e-06
3.83888e-06
-2.04709e-06
-5.72644e-07
4.43322e-07
4.50014e-06
-1.40946e-06
-7.23592e-07
-6.18762e-08
4.52294e-06
-1.24552e-06
-1.25379e-06
9.42302e-07
3.77051e-06
-1.94591e-06
-1.99363e-06
1.57428e-06
3.32317e-06
-2.46388e-06
1.85966e-06
3.13805e-06
-2.76583e-06
-2.71788e-06
7.49979e-08
1.27103e-06
3.96024e-06
-1.06321e-06
-6.67104e-07
7.32322e-07
5.25348e-06
-1.02614e-06
-4.8282e-07
6.54711e-06
-6.62466e-07
-1.54521e-06
6.75678e-06
-1.20112e-06
2.3874e-07
5.21828e-06
-1.8953e-06
8.55777e-07
3.79179e-06
1.04425e-06
3.28566e-06
-2.71074e-06
-4.53395e-07
6.7328e-07
5.01899e-06
-4.99274e-07
-1.25808e-06
2.472e-07
7.29571e-06
-1.35365e-06
-6.57085e-07
1.07657e-05
-1.112e-07
-1.99003e-06
1.23446e-05
-6.06353e-07
2.12083e-07
7.64523e-06
-1.5305e-06
5.25024e-07
4.75566e-06
4.57829e-07
3.49558e-06
-2.5041e-06
-9.69757e-07
1.10549e-07
5.86974e-06
-8.97811e-08
-2.58044e-06
3.83639e-07
8.873e-06
-4.69817e-06
1.15563e-06
1.7044e-05
-5.78362e-07
3.36475e-06
2.4725e-05
-4.44064e-07
4.23152e-07
9.91698e-06
-1.34089e-06
2.13021e-07
5.62456e-06
2.28842e-08
3.71955e-06
-2.39468e-06
-4.16941e-07
-5.63688e-07
5.33678e-06
-4.84364e-07
-1.37613e-06
-7.53291e-08
7.85173e-06
-1.93448e-06
1.02895e-06
1.25228e-05
2.15746e-07
2.55526e-06
1.56932e-05
-3.30372e-07
6.21638e-07
8.64725e-06
-1.37194e-06
3.29736e-08
5.20064e-06
-4.13027e-07
3.63088e-06
-2.43454e-06
2.74142e-07
-1.23861e-06
4.26734e-06
-1.16249e-06
-5.27866e-07
-6.5993e-07
5.88655e-06
-1.13109e-06
2.25758e-07
7.63271e-06
-7.43607e-07
1.01264e-06
8.12053e-06
-1.3821e-06
5.99195e-08
6.11302e-06
-2.05949e-06
-6.4076e-07
4.19262e-06
-1.25258e-06
3.35525e-06
-2.82228e-06
8.58048e-07
3.47761e-06
-1.76668e-06
-1.94468e-06
-1.32179e-08
4.26045e-06
-1.31061e-06
-7.62116e-07
5.23101e-06
-5.37933e-07
-1.06972e-06
5.36204e-06
-1.84082e-07
-1.62211e-06
4.31503e-06
-8.98884e-07
-2.23729e-06
3.49002e-06
-1.62865e-06
3.17055e-06
-2.90205e-06
-2.22658e-06
1.75016e-06
2.42262e-06
-2.95026e-06
-3.21213e-06
5.3238e-06
6.68059e-07
2.22248e-06
-3.0532e-06
5.75152e-06
-1.79394e-07
1.661e-06
-2.64387e-06
6.33041e-06
-7.81855e-07
1.33308e-06
-2.55501e-06
6.34741e-06
-1.64273e-06
2.15293e-06
-3.16813e-06
5.64672e-06
-2.60024e-06
2.58807e-06
-3.54441e-06
5.23724e-06
2.67319e-06
-3.52378e-06
-3.65679e-06
5.04538e-06
1.1143e-06
1.66735e-06
-2.30507e-06
5.90609e-06
4.93254e-08
1.49884e-06
7.04204e-06
-6.92031e-07
7.29303e-07
8.2203e-06
-1.00358e-06
1.08725e-07
8.29297e-06
-1.82488e-06
1.29099e-06
6.90175e-06
-2.71957e-06
1.65885e-06
5.61593e-06
1.66918e-06
-3.62128e-06
5.1915e-06
5.90904e-07
7.97427e-07
-1.64974e-06
6.94774e-06
-2.97587e-07
6.66217e-07
9.0169e-06
-1.06668e-06
2.58081e-07
1.2006e-05
-9.58545e-07
-3.87141e-07
1.27323e-05
-1.79949e-06
7.37435e-07
9.0397e-06
-2.69803e-06
8.36875e-07
6.47628e-06
6.91545e-07
-3.61217e-06
5.38749e-06
9.87699e-08
-1.01739e-07
-1.14645e-06
7.81659e-06
-1.12546e-06
1.00942e-07
1.06625e-05
-3.1412e-06
6.55369e-07
1.86622e-05
-1.40725e-06
1.75445e-06
2.0849e-05
-1.87888e-06
2.26458e-07
1.08993e-05
-2.70688e-06
-1.19835e-08
7.30149e-06
-2.73474e-07
-3.61363e-06
5.59149e-06
5.76388e-07
-1.07143e-06
-1.56285e-06
7.29292e-06
-3.79468e-07
-7.4196e-07
9.65035e-06
-1.4871e-06
6.72963e-10
1.42848e-05
-9.33832e-07
9.37658e-07
1.59566e-05
-1.72499e-06
-2.78741e-07
9.94352e-06
-2.65632e-06
-7.78403e-07
6.89851e-06
-1.22006e-06
-3.58828e-06
5.50966e-06
1.21439e-06
-1.98871e-06
-2.27182e-06
6.24198e-06
1.58078e-07
-1.53588e-06
7.73666e-06
-8.30349e-07
-7.81646e-07
9.40335e-06
-1.23358e-06
-2.17684e-07
9.67909e-06
-2.08546e-06
-1.10268e-06
7.78889e-06
-2.85538e-06
-1.80897e-06
5.99324e-06
-2.32138e-06
-3.67733e-06
5.27873e-06
1.76178e-06
-2.85438e-06
-2.92162e-06
5.503e-06
6.59127e-07
-2.3826e-06
6.2097e-06
-3.59055e-07
-1.65956e-06
7.1271e-06
-1.07022e-06
-1.3685e-06
7.22406e-06
-1.89603e-06
-2.15944e-06
6.19768e-06
-2.7086e-06
-2.93031e-06
5.42404e-06
-3.50225e-06
-3.46766e-06
5.11058e-06
-3.57584e-06
-1.5979e-07
1.88831e-08
4.08746e-07
-3.8874e-06
-4.84636e-07
3.40308e-08
4.77488e-07
-3.89928e-06
-3.36502e-07
5.20137e-08
4.09875e-07
-4.01536e-06
-2.22693e-07
6.13309e-08
3.5942e-07
-4.16233e-06
-1.66514e-07
6.25088e-08
3.26901e-07
-4.31452e-06
-1.32441e-07
5.56524e-08
3.01653e-07
-4.46031e-06
-1.07753e-07
4.15635e-08
2.80051e-07
-8.95986e-08
2.19432e-08
2.61165e-07
-4.59459e-06
-3.5967e-06
2.97408e-08
9.20484e-09
-3.76213e-06
-2.26903e-07
3.72922e-08
-3.83081e-06
-1.4605e-07
6.8544e-08
-3.96196e-06
-6.59794e-08
8.89946e-08
-4.11009e-06
-2.63652e-08
9.61712e-08
-4.24539e-06
-1.11148e-08
9.22996e-08
-4.35836e-06
-2.80297e-09
7.81689e-08
1.25745e-09
5.53361e-08
-4.4512e-06
-3.59491e-06
1.65974e-07
1.37095e-08
-3.78345e-06
8.56124e-09
3.00292e-08
-3.82841e-06
4.7786e-08
7.10227e-08
-3.95547e-06
1.06292e-07
1.03233e-07
-4.10263e-06
1.05041e-07
1.13671e-07
-4.23255e-06
9.52226e-08
1.10399e-07
-4.33168e-06
8.35422e-08
9.39054e-08
7.22253e-08
6.73095e-08
-4.41103e-06
-3.32078e-06
3.28907e-07
3.23812e-08
-3.61288e-06
3.9813e-07
3.15185e-08
-3.72369e-06
3.39814e-07
7.00395e-08
-3.85451e-06
2.40718e-07
9.92098e-08
-3.99496e-06
1.99447e-07
1.10734e-07
-4.11734e-06
1.73325e-07
1.08902e-07
-4.19927e-06
1.50177e-07
9.50248e-08
1.30528e-07
7.09474e-08
-4.25259e-06
-3.75292e-06
5.28758e-07
2.62355e-08
-3.94588e-06
6.79514e-07
2.95799e-08
-4.01958e-06
5.08357e-07
6.08279e-08
-4.09113e-06
4.01451e-07
8.60515e-08
-4.21985e-06
3.42502e-07
9.26832e-08
-4.36959e-06
2.95709e-07
8.61481e-08
-4.48322e-06
2.60392e-07
6.81539e-08
2.33579e-07
4.1099e-08
-4.55781e-06
-3.83026e-06
6.23267e-07
8.75986e-09
-4.00308e-06
8.18492e-07
2.55828e-08
-4.05127e-06
7.02048e-07
5.31178e-08
-4.11865e-06
5.7408e-07
7.34492e-08
-4.24066e-06
4.88675e-07
7.58504e-08
-4.3822e-06
4.35884e-07
6.79103e-08
-4.51134e-06
3.97115e-07
5.03169e-08
3.65323e-07
2.55547e-08
-4.61745e-06
-3.91306e-06
1.25933e-08
7.81908e-07
-4.05313e-06
2.96763e-08
8.99491e-07
-4.01013e-06
4.66492e-08
7.55827e-07
-4.12656e-06
5.24565e-08
6.65719e-07
-4.25437e-06
5.02016e-08
6.27355e-07
-4.39994e-06
3.96243e-08
6.05966e-07
-4.54304e-06
2.17386e-08
5.87024e-07
1.7719e-10
5.68039e-07
-4.67443e-06
-2.12261e-06
-1.54299e-07
3.22481e-07
2.98142e-07
-2.60757e-06
-1.09209e-07
3.5559e-07
2.69291e-07
-3.08429e-06
-7.91766e-08
3.6543e-07
2.38363e-07
-3.5309e-06
-5.89097e-08
3.50844e-07
2.11935e-07
-3.93123e-06
-4.57008e-08
3.15262e-07
1.8976e-07
-4.27449e-06
-3.66818e-08
2.62183e-07
1.70782e-07
-4.55512e-06
-3.01811e-08
1.96526e-07
1.54204e-07
-2.55367e-08
1.23478e-07
1.39602e-07
-4.77146e-06
-2.04617e-06
-6.47806e-08
4.3367e-07
-2.57509e-06
-1.35203e-08
4.66349e-07
-3.0825e-06
1.26087e-08
4.78389e-07
-3.54729e-06
2.76882e-08
4.61225e-07
-3.95425e-06
3.48965e-08
4.17079e-07
-4.29047e-06
3.6991e-08
3.50589e-07
-4.55019e-06
3.6377e-08
2.68311e-07
3.41946e-08
1.77495e-07
-4.73377e-06
-1.76242e-06
1.14555e-07
5.18374e-07
-2.39453e-06
1.09608e-07
5.35293e-07
-2.98016e-06
1.12312e-07
5.50346e-07
-3.49873e-06
1.09737e-07
5.3253e-07
-3.93971e-06
1.01222e-07
4.81775e-07
-4.29236e-06
9.06588e-08
4.04193e-07
-4.55361e-06
7.98123e-08
3.08177e-07
6.95417e-08
2.02777e-07
-4.72637e-06
-1.61932e-06
3.62158e-07
5.68466e-07
-2.32381e-06
2.86836e-07
5.54128e-07
-2.95383e-06
2.40514e-07
5.64788e-07
-3.5029e-06
2.05457e-07
5.43966e-07
-3.96545e-06
1.76898e-07
4.89277e-07
-4.33328e-06
1.53156e-07
4.06704e-07
-4.60263e-06
1.33509e-07
3.05104e-07
1.17272e-07
1.9399e-07
-4.77697e-06
-1.81598e-06
5.76123e-07
5.32457e-07
-2.46809e-06
4.48675e-07
5.16751e-07
-3.0619e-06
3.66052e-07
5.2343e-07
-3.58578e-06
3.08817e-07
5.00681e-07
-4.03156e-06
2.64531e-07
4.45934e-07
-4.3896e-06
2.28596e-07
3.65047e-07
-4.65638e-06
1.99279e-07
2.66576e-07
1.75405e-07
1.58953e-07
-4.83352e-06
-2.18869e-06
6.60629e-07
4.22497e-07
-2.70712e-06
5.5072e-07
4.38948e-07
-3.21716e-06
4.79604e-07
4.4441e-07
-3.68506e-06
4.24387e-07
4.20688e-07
-4.09673e-06
3.78434e-07
3.69313e-07
-4.43875e-06
3.39318e-07
2.9603e-07
-4.70422e-06
3.05115e-07
2.07852e-07
2.74943e-07
1.11634e-07
-4.89072e-06
-2.34816e-06
3.13392e-07
7.27408e-07
-2.78989e-06
3.41831e-07
6.77243e-07
-3.23689e-06
3.4653e-07
6.23642e-07
-3.6647e-06
3.25352e-07
5.76042e-07
-4.05445e-06
2.82009e-07
5.3367e-07
-4.39263e-06
2.20701e-07
4.94637e-07
-4.6713e-06
1.46991e-07
4.57701e-07
6.59226e-08
4.22391e-07
-4.88452e-06
-2.41774e-06
6.97045e-09
8.64619e-07
1.34957e-07
-3.17042e-06
5.708e-08
9.49613e-07
1.01308e-07
-3.94978e-06
8.36146e-08
9.88533e-07
7.24499e-08
-4.72607e-06
9.60535e-08
9.81642e-07
4.92685e-08
-5.47311e-06
1.00572e-07
9.30053e-07
3.14996e-08
-6.16452e-06
1.00571e-07
8.34436e-07
1.84099e-08
-6.77034e-06
9.79001e-08
6.95064e-07
9.21071e-09
9.35636e-08
5.15176e-07
3.15435e-09
-7.2589e-06
-2.37045e-06
5.11644e-08
1.14657e-06
-3.16503e-06
9.89427e-08
1.21883e-06
-3.97281e-06
1.22805e-07
1.24678e-06
-4.77027e-06
1.31814e-07
1.22273e-06
-5.53088e-06
1.31783e-07
1.14628e-06
-6.22451e-06
1.26736e-07
1.01789e-06
-6.81512e-06
1.18889e-07
8.37802e-07
1.09252e-07
6.10137e-07
-7.26355e-06
-2.13812e-06
1.16616e-07
1.34622e-06
-3.02865e-06
1.26846e-07
1.39774e-06
-3.9038e-06
1.29022e-07
1.41911e-06
-4.74807e-06
1.23703e-07
1.38474e-06
-5.5393e-06
1.13423e-07
1.29125e-06
-6.24904e-06
1.01371e-07
1.13921e-06
-6.84021e-06
8.90473e-08
9.29127e-07
7.69357e-08
6.65972e-07
-7.27114e-06
-2.0205e-06
2.31893e-07
1.42611e-06
-2.9694e-06
1.76753e-07
1.45296e-06
-3.88405e-06
1.38957e-07
1.46938e-06
-4.7538e-06
1.06915e-07
1.43036e-06
-5.56049e-06
7.93682e-08
1.32993e-06
-6.27773e-06
5.65935e-08
1.16866e-06
-6.86934e-06
3.83461e-08
9.47387e-07
2.40602e-08
6.71478e-07
-7.29399e-06
-2.13133e-06
3.84645e-07
1.3526e-06
-3.06628e-06
2.50955e-07
1.37734e-06
-3.96346e-06
1.68904e-07
1.39053e-06
-4.81698e-06
1.10269e-07
1.35073e-06
-5.61053e-06
6.66051e-08
1.25216e-06
-6.31865e-06
3.42717e-08
1.09543e-06
-6.90631e-06
1.09959e-08
8.81542e-07
-5.20323e-09
6.15948e-07
-7.33408e-06
-2.50056e-06
4.38083e-07
1.13527e-06
-3.30292e-06
3.03578e-07
1.1885e-06
-4.1133e-06
2.17928e-07
1.20559e-06
-4.90811e-06
1.54284e-07
1.17136e-06
-5.66267e-06
1.05752e-07
1.0846e-06
-6.34806e-06
6.90939e-08
9.46468e-07
-6.92936e-06
4.19646e-08
7.58075e-07
2.24429e-08
5.24382e-07
-7.36984e-06
-2.60633e-06
8.55891e-07
5.23154e-07
-3.33405e-06
9.31156e-07
4.41765e-07
-4.09811e-06
9.60069e-07
3.68266e-07
-4.86468e-06
9.41701e-07
3.0436e-07
-5.60513e-06
8.77751e-07
2.5033e-07
-6.29091e-06
7.69704e-07
2.05731e-07
-6.89075e-06
6.18843e-07
1.6983e-07
4.2945e-07
1.41541e-07
-7.37348e-06
-3.96313e-06
2.21298e-07
1.84245e-06
-1.79581e-09
-5.30867e-06
2.70555e-07
2.05866e-06
-3.41926e-08
-6.72331e-06
2.87286e-07
2.172e-06
-5.62143e-08
-8.12236e-06
2.87776e-07
2.16366e-06
-7.08377e-08
-9.40674e-06
2.78968e-07
2.01526e-06
-7.99128e-08
-1.04653e-05
2.64632e-07
1.71337e-06
-8.51346e-08
-1.11767e-05
2.46731e-07
1.24745e-06
-8.78088e-08
2.26713e-07
6.02374e-07
-8.87735e-08
-1.14019e-05
-3.97154e-06
2.36795e-07
2.39178e-06
-5.34566e-06
2.66208e-07
2.5972e-06
-6.79148e-06
2.79793e-07
2.7e-06
-8.22863e-06
2.77998e-07
2.66955e-06
-9.54928e-06
2.66832e-07
2.47896e-06
-1.06248e-05
2.49582e-07
2.10838e-06
-1.13104e-05
2.27855e-07
1.54218e-06
2.02336e-07
7.56165e-07
-1.14321e-05
-3.83567e-06
1.54921e-07
2.75958e-06
-5.27268e-06
1.48434e-07
2.95244e-06
-6.76799e-06
1.41232e-07
3.05291e-06
-8.24763e-06
1.28417e-07
3.01392e-06
-9.60324e-06
1.13466e-07
2.80021e-06
-1.06985e-05
9.84422e-08
2.38559e-06
-1.13752e-05
8.38164e-08
1.74987e-06
6.93632e-08
8.62242e-07
-1.14385e-05
-3.77246e-06
6.20524e-08
2.89672e-06
-5.24777e-06
3.5842e-09
3.07311e-06
-6.76773e-06
-4.06989e-08
3.17132e-06
-8.26461e-06
-7.36444e-08
3.1293e-06
-9.63297e-06
-9.57422e-08
2.90751e-06
-1.07352e-05
-1.07657e-07
2.47702e-06
-1.1409e-05
-1.10819e-07
1.8158e-06
-1.06837e-07
8.90854e-07
-1.14522e-05
-3.82654e-06
3.88913e-08
2.76777e-06
-5.30431e-06
-8.29158e-08
2.94163e-06
-6.81999e-06
-1.68918e-07
3.03444e-06
-8.30811e-06
-2.24929e-07
2.99015e-06
-9.66641e-06
-2.57384e-07
2.7721e-06
-1.07612e-05
-2.7125e-07
2.35383e-06
-1.1435e-05
-2.70437e-07
1.71498e-06
-2.57874e-07
8.25322e-07
-1.14934e-05
-4.07953e-06
4.23649e-08
2.38899e-06
-5.4592e-06
-9.40667e-08
2.57928e-06
-6.90856e-06
-1.8605e-07
2.67202e-06
-8.34702e-06
-2.47761e-07
2.63259e-06
-9.66706e-06
-2.86672e-07
2.43385e-06
-1.07402e-05
-3.07635e-07
2.05586e-06
-1.14204e-05
-3.14872e-07
1.48274e-06
-3.11769e-07
6.91553e-07
-1.15338e-05
-4.07437e-06
1.84093e-06
2.29506e-07
-5.40451e-06
2.05037e-06
1.16722e-07
-6.81668e-06
2.15659e-06
2.94375e-08
-8.22133e-06
2.14009e-06
-4.16582e-08
-9.51543e-06
1.98246e-06
-9.74041e-08
-1.05847e-05
1.67022e-06
-1.38944e-07
-1.13035e-05
1.19304e-06
-1.7036e-07
5.3808e-07
-1.93505e-07
-1.15305e-05
-4.96506e-06
3.76223e-07
-8.26562e-08
2.99034e-06
-6.63888e-06
4.11657e-07
-1.07837e-07
3.42875e-06
-8.51852e-06
4.19177e-07
-1.20245e-07
3.75285e-06
-1.05757e-05
4.15614e-07
-1.24535e-07
3.92991e-06
-1.2784e-05
4.08896e-07
-1.23139e-07
3.93795e-06
-1.51168e-05
4.00656e-07
-1.18036e-07
3.76375e-06
-1.75444e-05
3.84012e-07
-1.10729e-07
3.4019e-06
3.53967e-07
-1.02276e-07
-2.00966e-05
2.90302e-06
-5.08227e-06
3.82859e-07
3.84633e-06
-6.73178e-06
3.85358e-07
4.27323e-06
-8.5855e-06
3.85016e-07
4.58814e-06
-1.06244e-05
3.78233e-07
4.7461e-06
-1.28162e-05
3.68993e-07
4.71077e-06
-1.51216e-05
3.58006e-07
4.45661e-06
-1.75102e-05
3.4186e-07
3.97293e-06
3.15076e-07
-2.00442e-05
3.3291e-06
-5.08136e-06
1.9555e-07
4.41628e-06
-6.73097e-06
1.58919e-07
4.82872e-06
-8.57172e-06
1.36007e-07
5.14289e-06
-1.05955e-05
1.17446e-07
5.29873e-06
-1.27754e-05
1.04221e-07
5.24499e-06
-1.50709e-05
9.5891e-08
4.9433e-06
-1.74454e-05
9.02799e-08
4.37604e-06
8.36216e-08
-1.99783e-05
3.62657e-06
-5.08395e-06
-7.09159e-08
4.63378e-06
-6.7334e-06
-1.45944e-07
5.02773e-06
-8.56358e-06
-1.99973e-07
5.33774e-06
-1.0574e-05
-2.35161e-07
5.49251e-06
-1.27425e-05
-2.52978e-07
5.43337e-06
-1.50298e-05
-2.55688e-07
5.11598e-06
-1.73976e-05
-2.45663e-07
4.51963e-06
-2.24432e-07
-1.99304e-05
3.73179e-06
-5.07334e-06
-2.5736e-07
4.43958e-06
-6.72975e-06
-3.81372e-07
4.83373e-06
-8.56462e-06
-4.69274e-07
5.13879e-06
-1.05766e-05
-5.22813e-07
5.2899e-06
-1.27432e-05
-5.48604e-07
5.23447e-06
-1.50269e-05
-5.51285e-07
4.93326e-06
-1.73927e-05
-5.32376e-07
4.36756e-06
-4.9115e-07
-1.9919e-05
3.6185e-06
-5.10804e-06
-3.0308e-07
3.8656e-06
-6.73453e-06
-4.53489e-07
4.27803e-06
-8.56255e-06
-5.53702e-07
4.58454e-06
-1.05739e-05
-6.16888e-07
4.73806e-06
-1.27386e-05
-6.513e-07
4.70136e-06
-1.50208e-05
-6.61109e-07
4.44799e-06
-1.73925e-05
-6.43371e-07
3.96543e-06
-5.97325e-07
-1.9916e-05
3.3213e-06
-4.90417e-06
-6.92175e-08
3.00907e-06
-6.54632e-06
-2.04729e-07
3.4438e-06
-8.40555e-06
-3.04273e-07
3.76637e-06
-1.04492e-05
-3.75962e-07
3.94284e-06
-1.26476e-05
-4.20732e-07
3.95024e-06
-1.49726e-05
-4.40622e-07
3.77486e-06
-1.73941e-05
-4.39109e-07
3.41024e-06
-4.19996e-07
-1.99404e-05
2.9071e-06
-2.40127e-06
5.31008e-07
5.55532e-08
-2.81257e-07
-2.59694e-06
3.33996e-07
6.95281e-08
-2.56774e-07
-2.66209e-06
1.47021e-07
8.54007e-08
-1.50331e-07
-2.86687e-06
2.67194e-07
8.95045e-08
-1.21963e-07
-3.10285e-06
2.95686e-07
8.35291e-08
-1.00055e-07
-3.34976e-06
3.18266e-07
6.76747e-08
-8.90843e-08
-3.59915e-06
3.36007e-07
4.3366e-08
-8.20745e-08
3.47739e-07
1.38839e-08
-7.72038e-08
-3.83601e-06
-2.36972e-06
3.02143e-07
1.13666e-07
-2.41611e-06
1.23467e-07
9.48257e-08
-2.36226e-06
6.32157e-08
1.40098e-07
-2.46307e-06
2.12422e-07
1.64327e-07
-2.59055e-06
2.4679e-07
1.78524e-07
-2.71938e-06
2.88154e-07
1.80937e-07
-2.86134e-06
3.23209e-07
1.71937e-07
3.48819e-07
1.54249e-07
-3.03865e-06
-2.65439e-06
-1.72416e-07
2.57975e-07
-2.68672e-06
-2.29376e-07
1.35982e-07
-2.41379e-06
-1.61285e-07
1.86422e-07
-2.31159e-06
-8.75015e-08
2.32743e-07
-2.23621e-06
-5.3707e-08
2.77861e-07
-2.19208e-06
-2.474e-08
3.07346e-07
-2.18503e-06
1.61145e-08
3.20644e-07
5.70598e-08
3.20913e-07
-2.19651e-06
-2.82579e-06
-4.94372e-07
3.24015e-07
-2.94835e-06
-3.63213e-07
1.51977e-07
-2.58142e-06
-5.20272e-07
2.0187e-07
-2.44638e-06
-4.67735e-07
2.61612e-07
-2.35101e-06
-4.31996e-07
3.23168e-07
-2.2842e-06
-4.26864e-07
3.71135e-07
-2.21693e-06
-4.37951e-07
4.04457e-07
-4.39318e-07
4.23611e-07
-2.14198e-06
-1.97815e-06
-1.11618e-06
1.8698e-07
-1.95585e-06
-6.51793e-07
1.16961e-07
-1.92474e-06
-4.41122e-07
1.8142e-07
-1.99482e-06
-5.82749e-07
2.18088e-07
-2.0798e-06
-5.82189e-07
2.51103e-07
-2.17784e-06
-5.80091e-07
2.72713e-07
-2.27302e-06
-5.93184e-07
2.83016e-07
-6.04744e-07
2.80724e-07
-2.37427e-06
-2.47643e-06
-9.8701e-07
8.09901e-08
-2.52785e-06
-7.04479e-07
7.99487e-08
-2.52133e-06
-5.4655e-07
1.27333e-07
-2.56116e-06
-6.43565e-07
1.48899e-07
-2.69291e-06
-6.31805e-07
1.62188e-07
-2.88333e-06
-6.14073e-07
1.64068e-07
-3.025e-06
-6.11715e-07
1.57295e-07
-6.15788e-07
1.4251e-07
-3.12002e-06
-2.31071e-06
4.77779e-08
-6.17785e-07
-2.59403e-06
6.57314e-08
-6.06177e-07
-2.74411e-06
8.34456e-08
-4.88653e-07
-2.97552e-06
9.21558e-08
-4.44647e-07
-3.2783e-06
9.04905e-08
-4.12695e-07
-3.56464e-06
8.12421e-08
-3.77027e-07
-3.77605e-06
6.43927e-08
-3.49701e-07
3.89474e-08
-3.42248e-07
-3.97801e-06
-1.15659e-06
2.35879e-07
3.91141e-07
-1.59666e-07
-1.63548e-06
2.64357e-07
4.08757e-07
-1.2736e-07
-2.13047e-06
2.65195e-07
4.1538e-07
-1.03384e-07
-2.61916e-06
2.71488e-07
3.93424e-07
-8.96183e-08
-3.07695e-06
2.742e-07
3.44255e-07
-7.94295e-08
-3.48756e-06
2.75919e-07
2.73034e-07
-7.20172e-08
-3.84086e-06
2.75867e-07
1.86653e-07
-6.65047e-08
2.73555e-07
9.21555e-08
-6.24224e-08
-4.13038e-06
-1.02641e-06
9.06075e-08
6.53887e-07
-1.41819e-06
1.42939e-07
5.98986e-07
-1.82035e-06
1.84622e-07
6.14422e-07
-2.22977e-06
2.22586e-07
6.13921e-07
-2.62109e-06
2.51233e-07
5.82809e-07
-2.97231e-06
2.7761e-07
5.21265e-07
-3.26908e-06
2.98991e-07
4.3759e-07
3.1539e-07
3.42257e-07
-3.50562e-06
-6.27183e-07
-2.01893e-07
1.06697e-06
-1.02597e-06
-1.59845e-07
8.18889e-07
-1.37341e-06
-1.10318e-07
8.16962e-07
-1.70983e-06
-6.93782e-08
8.47767e-07
-2.01294e-06
-3.62722e-08
8.55888e-07
-2.26341e-06
-4.02141e-09
8.30333e-07
-2.44966e-06
2.29806e-08
7.75804e-07
4.7597e-08
7.01869e-07
-2.56722e-06
-5.04636e-07
-5.73789e-07
1.2355e-06
-9.20941e-07
-5.03055e-07
8.93601e-07
-1.26017e-06
-4.67667e-07
8.88092e-07
-1.57645e-06
-4.43517e-07
9.39322e-07
-1.84998e-06
-4.24745e-07
9.7325e-07
-2.05759e-06
-4.10921e-07
9.76026e-07
-2.18819e-06
-3.98096e-07
9.50022e-07
-3.84971e-07
9.03657e-07
-2.241e-06
-5.65292e-07
-7.27035e-07
9.23954e-07
-1.02003e-06
-7.03227e-07
7.49322e-07
-1.41374e-06
-6.81698e-07
7.77061e-07
-1.79102e-06
-6.71165e-07
8.10172e-07
-2.13671e-06
-6.56847e-07
8.1656e-07
-2.43638e-06
-6.43348e-07
7.91444e-07
-2.66937e-06
-6.30439e-07
7.39737e-07
-6.17038e-07
6.71867e-07
-2.83492e-06
-8.86208e-07
-7.23113e-07
5.81104e-07
-1.36562e-06
-7.15564e-07
5.67584e-07
-1.8341e-06
-6.84025e-07
5.92372e-07
-2.29363e-06
-6.62781e-07
5.94229e-07
-2.72148e-06
-6.38276e-07
5.6672e-07
-3.10417e-06
-6.14495e-07
5.10507e-07
-3.42631e-06
-5.91228e-07
4.32656e-07
-5.67726e-07
3.43739e-07
-3.68295e-06
-9.47013e-07
3.75758e-07
-5.39573e-07
-1.50921e-06
4.03735e-07
-4.94203e-07
-2.07388e-06
4.14099e-07
-4.54849e-07
-2.62044e-06
3.96224e-07
-4.24239e-07
-3.12688e-06
3.52693e-07
-3.97608e-07
-3.57872e-06
2.88782e-07
-3.73508e-07
-3.96674e-06
2.10461e-07
-3.51533e-07
1.23955e-07
-3.31185e-07
-4.28895e-06
-1.40946e-06
2.37848e-07
9.39494e-07
-1.17438e-07
-2.19269e-06
2.90118e-07
9.95499e-07
-9.38243e-08
-3.01552e-06
2.96e-07
1.02416e-06
-8.22232e-08
-3.83848e-06
2.87904e-07
1.00364e-06
-7.53649e-08
-4.63028e-06
2.72946e-07
9.33444e-07
-7.04756e-08
-5.36182e-06
2.54996e-07
8.16268e-07
-6.68106e-08
-6.00183e-06
2.35557e-07
6.54767e-07
-6.37925e-08
2.15433e-07
4.54536e-07
-6.10493e-08
-6.51872e-06
-1.07183e-06
1.53259e-07
1.42502e-06
-1.79074e-06
2.31567e-07
1.37628e-06
-2.55404e-06
2.71845e-07
1.40166e-06
-3.33128e-06
2.841e-07
1.39479e-06
-4.09543e-06
2.88697e-07
1.33106e-06
-4.81472e-06
2.87672e-07
1.20778e-06
-5.44868e-06
2.80941e-07
1.0261e-06
2.70142e-07
7.9203e-07
-5.95323e-06
-4.68287e-07
-1.51719e-07
2.04567e-06
-1.11118e-06
-7.41574e-08
1.76733e-06
-1.78512e-06
-4.66459e-09
1.76724e-06
-2.4811e-06
3.03404e-08
1.79739e-06
-3.17312e-06
5.76241e-08
1.77887e-06
-3.82944e-06
8.05322e-08
1.69372e-06
-4.40956e-06
9.87675e-08
1.53806e-06
1.11962e-07
1.31754e-06
-4.86709e-06
-2.26718e-07
-5.35091e-07
2.32591e-06
-8.61989e-07
-4.71571e-07
1.92613e-06
-1.49006e-06
-4.06966e-07
1.91833e-06
-2.14037e-06
-3.55828e-07
1.97556e-06
-2.78435e-06
-3.15503e-07
1.99027e-06
-3.38551e-06
-2.80639e-07
1.93831e-06
-3.90127e-06
-2.49094e-07
1.81362e-06
-2.21507e-07
1.61922e-06
-4.28349e-06
-5.09888e-07
-7.41252e-07
1.885e-06
-1.22554e-06
-7.06446e-07
1.69969e-06
-1.94103e-06
-6.55593e-07
1.74108e-06
-2.66494e-06
-6.06346e-07
1.78449e-06
-3.38145e-06
-5.57778e-07
1.77527e-06
-4.05625e-06
-5.13418e-07
1.69897e-06
-4.65191e-06
-4.68197e-07
1.55446e-06
-4.2599e-07
1.34345e-06
-5.11905e-06
-9.63359e-07
-6.87376e-07
1.34027e-06
-1.77227e-06
-6.83715e-07
1.35356e-06
-2.59291e-06
-6.4234e-07
1.39966e-06
-3.41324e-06
-5.95118e-07
1.4032e-06
-4.20729e-06
-5.46271e-07
1.34917e-06
-4.95098e-06
-4.95547e-07
1.23623e-06
-5.60309e-06
-4.48148e-07
1.06463e-06
-4.04467e-07
8.40402e-07
-6.12135e-06
-1.24862e-06
9.21252e-07
-4.68979e-07
-2.10684e-06
9.94163e-07
-4.16104e-07
-2.99037e-06
1.03006e-06
-3.7494e-07
-3.86611e-06
1.01639e-06
-3.39678e-07
-4.70585e-06
9.54098e-07
-3.08027e-07
-5.47884e-06
8.45351e-07
-2.79214e-07
-6.15544e-06
6.9192e-07
-2.53098e-07
4.98516e-07
-2.2962e-07
-6.70493e-06
-3.01835e-06
3.28304e-07
1.93169e-06
-6.89728e-08
-4.4546e-06
3.59618e-07
2.12576e-06
-5.38085e-08
-5.9605e-06
3.41984e-07
2.2336e-06
-4.58268e-08
-7.43908e-06
3.0162e-07
2.22069e-06
-4.03501e-08
-8.78837e-06
2.5199e-07
2.06643e-06
-3.59164e-08
-9.89576e-06
1.99991e-07
1.75539e-06
-3.19288e-08
-1.06349e-05
1.4847e-07
1.27341e-06
-2.81318e-08
9.85011e-08
6.03536e-07
-2.45236e-08
-1.0858e-05
-2.40513e-06
3.21229e-07
2.67444e-06
-3.82485e-06
3.71093e-07
2.78434e-06
-5.334e-06
3.65146e-07
2.88735e-06
-6.84438e-06
3.3232e-07
2.87422e-06
-8.24757e-06
2.87524e-07
2.69848e-06
-9.41191e-06
2.37698e-07
2.33421e-06
-1.01823e-05
1.84357e-07
1.7605e-06
1.30743e-07
9.46185e-07
-1.03688e-05
-1.53079e-06
-2.43727e-08
3.43743e-06
-2.82908e-06
8.25063e-08
3.35401e-06
-4.28054e-06
1.33125e-07
3.4505e-06
-5.77822e-06
1.50825e-07
3.47641e-06
-7.20136e-06
1.56977e-07
3.33238e-06
-8.40113e-06
1.5572e-07
2.97534e-06
-9.2029e-06
1.49515e-07
2.3746e-06
1.38541e-07
1.48333e-06
-9.37655e-06
-1.11209e-06
-4.74087e-07
3.79776e-06
-2.34934e-06
-3.51731e-07
3.59747e-06
-3.74298e-06
-2.50429e-07
3.69536e-06
-5.1952e-06
-1.79666e-07
3.75813e-06
-6.58253e-06
-1.24685e-07
3.65912e-06
-7.75087e-06
-8.03221e-08
3.34259e-06
-8.51483e-06
-4.3969e-08
2.77099e-06
-1.78853e-08
1.88169e-06
-8.62092e-06
-1.65694e-06
-7.34382e-07
3.30283e-06
-2.99693e-06
-6.23368e-07
3.31117e-06
-4.43996e-06
-5.11323e-07
3.4449e-06
-5.91723e-06
-4.07782e-07
3.48973e-06
-7.31645e-06
-3.11271e-07
3.36095e-06
-8.48761e-06
-2.24366e-07
3.01408e-06
-9.2521e-06
-1.48101e-07
2.42299e-06
-7.77117e-08
1.53963e-06
-9.38854e-06
-2.41992e-06
-6.40622e-07
2.6031e-06
-3.88286e-06
-5.77509e-07
2.77045e-06
-5.40366e-06
-4.86259e-07
2.89525e-06
-6.91458e-06
-3.87886e-07
2.89405e-06
-8.3137e-06
-2.91736e-07