/*--------------------------------*- C++ -*----------------------------------*\
| =========                 |                                                 |
| \\      /  F ield         | OpenFOAM: The Open Source CFD Toolbox           |
|  \\    /   O peration     | Version:  plus.master.MPPICInterFoam            |
|   \\  /    A nd           | Web:      www.OpenFOAM.com                      |
|    \\/     M anipulation  |                                                 |
\*---------------------------------------------------------------------------*/
FoamFile
{
    version     2.0;
    format      ascii;
    class       volScalarField;
    location    "1";
    object      alpha.water;
}
// * * * * * * * * * * * * * * * * * * * * * * * * * * * * * * * * * * * * * //

dimensions      [0 0 0 0 0 0 0];

internalField   nonuniform List<scalar> 
11822
(
1
1
1
1
1
1
1
1
1
1
1
1
1
1
1
1
1
1
1
1
1
1
1
1
1
1
1
1
1
1
1
1
1
1
1
1
1
1
1
1
1
1
1
1
1
1
1
1
1
1
1
1
1
1
1
1
1
1
1
1
1
1
1
1
1
1
1
1
1
1
1
1
1
1
1
1
1
1
1
1
1
1
1
1
1
1
1
1
1
1
1
1
1
1
1
1
1
1
1
1
1
1
1
1
1
1
1
1
1
1
1
1
1
1
1
1
1
1
1
1
1
1
1
1
1
1
1
1
1
1
1
1
1
1
1
1
1
1
1
1
1
1
1
1
1
1
1
1
1
1
1
1
1
1
1
1
1
1
1
1
1
1
1
1
1
1
1
1
1
1
1
1
1
1
1
1
1
1
1
1
1
1
1
1
1
1
1
1
1
1
1
1
1
1
1
1
1
1
1
1
1
1
1
1
1
1
1
1
1
1
1
1
1
1
1
1
1
1
1
1
1
1
1
1
1
1
1
1
1
1
1
1
1
1
1
1
1
1
1
1
1
1
1
1
1
1
1
1
1
1
1
1
1
1
1
1
1
1
1
1
1
1
1
1
1
1
1
1
1
1
1
1
1
1
1
1
1
1
1
1
1
1
1
1
1
1
1
1
1
1
1
1
1
1
1
1
1
1
1
1
1
1
1
1
1
1
1
1
1
1
1
1
1
1
1
1
1
1
1
1
1
1
1
1
1
1
1
1
1
1
1
1
1
1
1
1
1
1
1
1
1
1
1
1
1
1
1
1
1
1
1
1
1
1
1
1
1
1
1
1
1
1
1
1
1
1
1
1
1
1
1
1
1
1
1
1
1
1
1
1
1
1
1
1
1
1
1
1
1
1
1
1
1
1
1
1
1
1
1
1
1
1
1
1
1
1
1
1
1
1
1
1
1
1
1
1
1
1
1
1
1
1
1
1
1
1
1
1
1
1
1
1
1
1
1
1
1
1
1
1
1
1
1
1
1
1
1
1
1
1
1
1
1
1
1
1
1
1
1
1
1
1
1
1
1
1
1
1
1
1
1
1
1
1
1
1
1
1
1
1
1
1
1
1
1
1
1
1
1
1
1
1
1
1
1
1
1
1
1
1
1
1
1
1
1
1
1
1
1
1
1
1
1
1
1
1
1
1
1
1
1
1
1
1
1
1
1
1
1
1
1
1
1
1
1
1
1
1
1
1
1
1
1
1
1
1
1
1
1
1
1
1
1
1
1
1
1
1
1
1
1
1
1
1
1
1
1
1
1
1
1
1
1
1
1
1
1
1
1
1
1
1
1
1
1
1
1
1
1
1
1
1
1
1
1
1
1
1
1
1
1
1
1
1
1
1
1
1
1
1
1
1
1
1
1
1
1
1
1
1
1
1
1
1
1
1
1
1
1
1
1
1
1
1
1
1
1
1
1
1
1
1
1
1
1
1
1
1
1
1
1
1
1
1
1
1
1
1
1
1
1
1
1
1
1
1
1
1
1
1
1
1
1
1
1
1
1
1
1
1
1
1
1
1
1
1
1
1
1
1
1
1
1
1
1
1
1
1
1
1
1
1
1
1
1
1
1
1
1
1
1
1
1
1
1
1
1
1
1
1
1
1
1
1
1
1
1
1
1
1
1
1
1
1
1
1
1
1
1
1
1
1
1
1
1
1
1
1
1
1
1
1
1
1
1
1
1
1
1
1
1
1
1
1
1
1
1
1
1
1
1
1
1
1
1
1
1
1
1
1
1
1
1
1
1
1
1
1
1
1
1
1
1
1
1
1
1
1
1
1
1
1
1
1
1
1
1
1
1
1
1
1
1
1
1
1
1
1
1
1
1
1
1
1
1
1
1
1
1
1
1
1
1
1
1
1
1
1
1
1
1
1
1
1
1
1
1
1
1
1
1
1
1
1
1
1
1
1
1
1
1
1
1
1
1
1
1
1
1
1
1
1
1
1
1
1
1
1
1
1
1
1
1
1
1
1
1
1
1
1
1
1
1
1
1
1
1
1
1
1
1
1
1
1
1
1
1
1
1
1
1
1
1
1
1
1
1
1
1
1
1
1
1
1
1
1
1
1
1
1
1
1
1
1
1
1
1
1
1
1
1
1
1
1
1
1
1
1
1
1
1
1
1
1
1
1
1
1
1
1
1
1
1
1
1
1
1
1
1
1
1
1
1
1
1
1
1
1
1
1
1
1
1
1
1
1
1
1
1
1
1
1
1
1
1
1
1
1
1
1
1
1
1
1
1
1
1
1
1
1
1
1
1
1
1
1
1
1
1
1
1
1
1
1
1
1
1
1
1
1
1
1
1
1
1
1
1
1
1
1
1
1
1
1
1
1
1
1
1
1
1
1
1
1
1
1
1
1
1
1
1
1
1
1
1
1
1
1
1
1
1
1
1
1
1
1
1
1
1
1
1
1
1
1
1
1
1
1
1
1
1
1
1
1
1
1
1
1
1
1
1
1
1
1
1
1
1
1
1
1
1
1
1
1
1
1
1
1
1
1
1
1
1
1
1
1
1
1
1
1
1
1
1
1
1
1
1
1
1
1
1
1
1
1
1
1
1
1
1
1
1
1
1
1
1
1
1
1
1
1
1
1
1
1
1
1
1
1
1
1
1
1
1
1
1
1
1
1
1
1
1
1
1
1
1
1
1
1
1
1
1
1
1
1
1
1
1
1
1
1
1
1
1
1
1
1
1
1
1
1
1
1
1
1
1
1
1
1
1
1
1
1
1
1
1
1
1
1
1
1
1
1
1
1
1
1
1
1
1
1
1
1
1
1
1
1
1
1
1
1
1
1
1
1
1
1
1
1
1
1
1
1
1
1
1
1
1
1
1
1
1
1
1
1
1
1
1
1
1
1
1
1
1
1
1
1
1
1
1
1
1
1
1
1
1
1
1
1
1
1
1
1
1
1
1
1
1
1
1
1
1
1
1
1
1
1
1
1
1
1
1
1
1
1
1
1
1
1
1
1
1
1
1
1
1
1
1
1
1
1
1
1
1
1
1
1
1
1
1
1
1
1
1
1
1
1
1
1
1
1
1
1
1
1
1
1
1
1
1
1
1
1
1
1
1
1
1
1
1
1
1
1
1
1
1
1
1
1
1
1
1
1
1
1
1
1
1
1
1
1
1
1
1
1
1
1
1
1
1
1
1
1
1
1
1
1
1
1
1
1
1
1
1
1
1
1
1
1
1
1
1
1
1
1
1
1
1
1
1
1
1
1
1
1
1
1
1
1
1
1
1
1
1
1
1
1
1
1
1
1
1
1
1
1
1
1
1
1
1
1
1
1
1
1
1
1
1
1
1
1
1
1
1
1
1
1
1
1
1
1
1
1
1
1
1
1
1
1
1
1
1
1
1
1
1
1
1
1
1
1
1
1
1
1
1
1
1
1
1
1
1
1
1
1
1
1
1
1
1
1
1
1
1
1
1
1
1
1
1
1
1
1
1
1
1
1
1
1
1
1
1
1
1
1
1
1
1
1
1
1
1
1
1
1
1
1
1
1
1
1
1
1
1
1
1
1
1
1
1
1
1
1
1
1
1
1
1
1
1
1
1
1
1
1
1
1
1
1
1
1
1
1
1
1
1
1
1
1
1
1
1
1
1
1
1
1
1
1
1
1
1
1
1
1
1
1
1
1
1
1
1
1
1
1
1
1
1
1
1
1
1
1
1
1
1
1
1
1
1
1
1
1
1
1
1
1
1
1
1
1
1
1
1
1
1
1
1
1
1
1
1
1
1
1
1
1
1
1
1
1
1
1
1
1
1
1
1
1
1
1
1
1
1
1
1
1
1
1
1
1
1
1
1
1
1
1
1
1
1
1
1
1
1
1
1
1
1
1
1
1
1
1
1
1
1
1
1
1
1
1
1
1
1
1
1
1
1
1
1
1
1
1
1
1
1
1
1
1
1
1
1
1
1
1
1
1
1
1
1
1
1
1
1
1
1
1
1
1
1
1
1
1
1
1
1
1
1
1
1
1
1
1
1
1
1
1
1
1
1
1
1
1
1
1
1
1
1
1
1
1
1
1
1
1
1
1
1
1
1
1
1
1
1
1
1
1
1
1
1
1
1
1
1
1
1
1
1
1
1
1
1
1
1
1
1
1
1
1
1
1
1
1
1
1
1
1
1
1
1
1
1
1
1
1
1
1
1
1
1
1
1
1
1
1
1
1
1
1
1
1
1
1
1
1
1
1
1
1
1
1
1
1
1
1
1
1
1
1
1
1
1
1
1
1
1
1
1
1
1
1
1
1
1
1
1
1
1
1
1
1
1
1
1
1
1
1
1
1
1
1
1
1
1
1
1
1
1
1
1
1
1
1
1
1
1
1
1
1
1
1
1
1
1
1
1
1
1
1
1
1
1
1
1
1
1
1
1
1
1
1
1
1
1
1
1
1
1
1
1
1
1
1
1
1
1
1
1
1
1
1
1
1
1
1
1
1
1
1
1
1
1
1
1
1
1
1
1
1
1
1
1
1
1
1
1
1
1
1
1
1
1
1
1
1
1
1
1
1
1
1
1
1
1
1
1
1
1
1
1
1
1
1
1
1
1
1
1
1
1
1
1
1
1
1
1
1
1
1
1
1
1
1
1
1
1
1
1
1
1
1
1
1
1
1
1
1
1
1
1
1
1
1
1
1
1
1
1
1
1
1
1
1
1
1
1
1
1
1
1
1
1
1
1
1
1
1
1
1
1
1
1
1
1
1
1
1
1
1
1
1
1
1
1
1
1
1
1
1
1
1
1
1
1
1
1
1
1
1
1
1
1
1
1
1
1
1
1
1
1
1
1
1
1
1
1
1
1
1
1
1
1
1
1
1
1
1
1
1
1
1
1
1
1
1
1
1
1
1
1
1
1
1
1
1
1
1
1
1
1
1
1
1
1
1
1
1
1
1
1
1
1
1
1
1
1
1
1
1
1
1
1
1
1
1
1
1
1
1
1
1
1
1
1
1
1
1
1
1
1
1
1
1
1
1
1
1
1
1
1
1
1
1
1
1
1
1
1
1
1
1
1
1
1
1
1
1
1
1
1
1
1
1
1
1
1
1
1
1
1
1
1
1
1
1
1
1
1
1
1
1
1
1
1
1
1
1
1
1
1
1
1
1
1
1
1
1
1
1
1
1
1
1
1
1
1
1
1
1
1
1
1
1
1
1
1
1
1
1
1
1
1
1
1
1
1
1
1
1
1
1
1
1
1
1
1
1
1
1
1
1
1
1
1
1
1
1
1
1
1
1
1
1
1
1
1
1
1
1
1
1
1
1
1
1
1
1
1
1
1
1
1
1
1
1
1
1
1
1
1
1
1
1
1
1
1
1
1
1
1
1
1
1
1
1
1
1
1
1
1
1
1
1
1
1
1
1
1
1
1
1
1
1
1
1
1
1
1
1
1
1
1
1
1
1
1
1
1
1
1
1
1
1
1
1
1
1
1
1
1
1
1
1
1
1
1
1
1
1
1
1
1
1
1
1
1
1
1
1
1
1
1
1
1
1
1
1
1
1
1
1
1
1
1
1
1
1
1
1
1
1
1
1
1
1
1
1
1
1
1
1
1
1
1
1
1
1
1
1
1
1
1
1
1
1
1
1
1
1
1
1
1
1
1
1
1
1
1
1
1
1
1
1
1
1
1
1
1
1
1
1
1
1
1
1
1
1
1
1
1
1
1
1
1
1
1
1
1
1
1
1
1
1
1
1
1
1
1
1
1
1
1
1
1
1
1
1
1
1
1
1
1
1
1
1
1
1
1
1
1
1
1
1
1
1
1
1
1
1
1
1
1
1
1
1
1
1
1
1
1
1
1
1
1
1
1
1
1
1
1
1
1
1
1
1
1
1
1
1
1
1
1
1
1
1
1
1
1
1
1
1
1
1
1
1
1
1
1
1
1
1
1
1
1
1
1
1
1
1
1
1
1
1
1
1
1
1
1
1
1
1
1
1
1
1
1
1
1
1
1
1
1
1
1
1
1
1
1
1
1
1
1
1
1
1
1
1
1
1
1
1
1
1
1
1
1
1
1
1
1
1
1
1
1
1
1
1
1
1
1
1
1
1
1
1
1
1
1
1
1
1
1
1
1
1
1
1
1
1
1
1
1
1
1
1
1
1
1
1
1
1
1
1
1
1
1
1
1
1
1
1
1
1
1
1
1
1
1
1
1
1
1
1
1
1
1
1
1
1
1
1
1
1
1
1
1
1
1
1
1
1
1
1
1
1
1
1
1
1
1
1
1
1
1
1
1
1
1
1
1
1
1
1
1
1
1
1
1
1
1
1
1
1
1
1
1
1
1
1
1
1
1
1
1
1
1
1
1
1
1
1
1
1
1
1
1
1
1
1
1
1
1
1
1
1
1
1
1
1
1
1
1
1
1
1
1
1
1
1
1
1
1
1
1
1
1
1
1
1
1
1
1
1
1
1
1
1
1
1
1
1
1
1
1
1
1
1
1
1
1
1
1
1
1
1
1
1
1
1
1
1
1
1
1
1
1
1
1
1
1
1
1
1
1
1
1
1
1
1
1
1
1
1
1
1
1
1
1
1
1
1
1
1
1
1
1
1
1
1
1
1
1
1
1
1
1
1
1
1
1
1
1
1
1
1
1
1
1
1
1
1
1
1
1
1
1
1
1
1
1
1
1
1
1
1
1
1
1
1
1
1
1
1
1
1
1
1
1
1
1
1
1
1
1
1
1
1
1
1
1
1
1
1
1
1
1
1
1
1
1
1
1
1
1
1
1
1
1
1
1
1
1
1
1
1
1
1
1
1
1
1
1
1
1
1
1
1
1
1
1
1
1
1
1
1
1
1
1
1
1
1
1
1
1
1
1
1
1
1
1
1
1
1
1
1
1
1
1
1
1
1
1
1
1
1
1
1
1
1
1
1
1
1
1
1
1
1
1
1
1
1
1
1
1
1
1
1
1
1
1
1
1
1
1
1
1
1
1
1
1
1
1
1
1
1
1
1
1
1
1
1
1
1
1
1
1
1
1
1
1
1
1
1
1
1
1
1
1
1
1
1
1
1
1
1
1
1
1
1
1
1
1
1
1
1
1
1
1
1
1
1
1
1
1
1
1
1
1
1
1
1
1
1
1
1
1
1
1
1
1
1
1
1
1
1
1
1
1
1
1
1
1
1
1
1
1
1
1
1
1
1
1
1
1
1
1
1
1
1
1
1
1
1
1
1
1
1
1
1
1
1
1
1
1
1
1
1
1
1
1
1
1
1
1
1
1
1
1
1
1
1
1
1
1
1
1
1
1
1
1
1
1
1
1
1
1
1
1
1
1
1
1
1
1
1
1
1
1
1
1
1
1
1
1
1
1
1
1
1
1
1
1
1
1
1
1
1
1
1
1
1
1
1
1
1
1
1
1
1
1
1
1
1
1
1
1
1
1
1
1
1
1
1
1
1
1
1
1
1
1
1
1
1
1
1
1
1
1
1
1
1
1
1
1
1
1
1
1
1
1
1
1
1
1
1
1
1
1
1
1
1
1
1
1
1
1
1
1
1
1
1
1
1
1
1
1
1
1
1
1
1
1
1
1
1
1
1
1
1
1
1
1
1
1
1
1
1
1
1
1
1
1
1
1
1
1
1
1
1
1
1
1
1
1
1
1
1
1
1
1
1
1
1
1
1
1
1
1
1
1
1
1
1
1
1
1
1
1
1
1
1
1
1
1
1
1
1
1
1
1
1
1
1
1
1
1
1
1
1
1
1
1
1
1
1
1
1
1
1
1
1
1
1
1
1
1
1
1
1
1
1
1
1
1
1
1
1
1
1
1
1
1
1
1
1
1
1
1
1
1
1
1
1
1
1
1
1
1
1
1
1
1
1
1
1
1
1
1
1
1
1
1
1
1
1
1
1
1
1
1
1
1
1
1
1
1
1
1
1
1
1
1
1
1
1
1
1
1
1
1
1
1
1
1
1
1
1
1
1
1
1
1
1
1
1
1
1
1
1
1
1
1
1
1
1
1
1
1
1
1
1
1
1
1
1
1
1
1
1
1
1
1
1
1
1
1
1
1
1
1
1
1
1
1
1
1
1
1
1
1
1
1
1
1
1
1
1
1
1
1
1
1
1
1
1
1
1
1
1
1
1
1
1
1
1
1
1
1
1
1
1
1
1
1
1
1
1
1
1
1
1
1
1
1
1
1
1
1
1
1
1
1
1
1
1
1
1
1
1
1
1
1
1
1
1
1
1
1
1
1
1
1
1
1
1
1
1
1
1
1
1
1
1
1
1
1
1
1
1
1
1
1
1
1
1
1
1
1
1
1
1
1
1
1
1
1
1
1
1
1
1
1
1
1
1
1
1
1
1
1
1
1
1
1
1
1
1
1
1
1
1
1
1
1
1
1
1
1
1
1
1
1
1
1
1
1
1
1
1
1
1
1
1
1
1
1
1
1
1
1
1
1
1
1
1
1
1
1
1
1
1
1
1
1
1
1
1
1
1
1
1
1
1
1
1
1
1
1
1
1
1
1
1
1
1
1
1
1
1
1
1
1
1
1
1
1
1
1
1
1
1
1
1
1
1
1
1
1
1
1
1
1
1
1
1
1
1
1
1
1
1
1
1
1
1
1
1
1
1
1
1
1
1
1
1
1
1
1
1
1
1
1
1
1
1
1
1
1
1
1
1
1
1
1
1
1
1
1
1
1
1
1
1
1
1
1
1
1
1
1
1
1
1
1
1
1
1
1
1
1
1
1
1
1
1
1
1
1
1
1
1
1
1
1
1
1
1
1
1
1
1
1
1
1
1
1
1
1
1
1
1
1
1
1
1
1
1
1
1
1
1
1
1
1
1
1
1
1
1
1
1
1
1
1
1
1
1
1
1
1
1
1
1
1
1
1
1
1
1
1
1
1
1
1
1
1
1
1
1
1
1
1
1
1
1
1
1
1
1
1
1
1
1
1
1
1
1
1
1
1
1
1
1
1
1
1
1
1
1
1
1
1
1
1
1
1
1
1
1
1
1
1
1
1
1
1
1
1
1
1
1
1
1
1
1
1
1
1
1
1
1
1
1
1
1
1
1
1
1
1
1
1
1
1
1
1
1
1
1
1
1
1
1
1
1
1
1
1
1
1
1
1
1
1
1
1
1
1
1
1
1
1
1
1
1
1
1
1
1
1
1
1
1
1
1
1
1
1
1
1
1
1
1
1
1
1
1
1
1
1
1
1
1
1
1
1
1
1
1
1
1
1
1
1
1
1
1
1
1
1
1
1
1
1
1
1
1
1
1
1
1
1
1
1
1
1
1
1
1
1
1
1
1
1
1
1
1
1
1
1
1
1
1
1
1
1
1
1
1
1
1
1
1
1
1
1
1
1
1
1
1
1
1
1
1
1
1
1
1
1
1
1
1
1
1
1
1
1
1
1
1
1
1
1
1
1
1
1
1
1
1
1
1
1
1
1
1
1
1
1
1
1
1
1
1
1
1
1
1
1
1
1
1
1
1
1
1
1
1
1
1
1
1
1
1
1
1
1
1
1
1
1
1
1
1
1
1
1
1
1
1
1
1
1
1
1
1
1
1
1
1
1
1
1
1
1
1
1
1
1
1
1
1
1
1
1
1
1
1
1
1
1
1
1
1
1
1
1
1
1
1
1
1
1
1
1
1
1
1
1
1
1
1
1
1
1
1
1
1
1
1
1
1
1
1
1
1
1
1
1
1
1
1
1
1
1
1
1
1
1
1
1
1
1
1
1
1
1
1
1
1
1
1
1
1
1
1
1
1
1
1
1
1
1
1
1
1
1
1
1
1
1
1
1
1
1
1
1
1
1
1
1
1
1
1
1
1
1
1
1
1
1
1
1
1
1
1
1
1
1
1
1
1
1
1
1
1
1
1
1
1
1
1
1
1
1
1
1
1
1
1
1
1
1
1
1
1
1
1
1
1
1
1
1
1
1
1
1
1
1
1
1
1
1
1
1
1
1
1
1
1
0.0549262
0.0549506
0.0549976
0.0550147
0.0550057
0.0549684
0.0549294
0.0549495
0.0549795
0.0550182
0.0550363
0.0550311
0.0549992
0.0549588
0.0550008
0.0550213
0.0550583
0.0550748
0.0550719
0.0550467
0.0550137
0.0550138
0.0550373
0.0550758
0.0550903
0.05509
0.0550674
0.0550362
0.0550037
0.055032
0.0550728
0.05509
0.0550922
0.0550718
0.0550402
0.0549585
0.0550034
0.0550501
0.0550698
0.0550711
0.0550448
0.0550117
0.0549349
0.0549797
0.0550233
0.0550423
0.0550391
0.055011
0.054978
5.46912e-13
1.87853e-11
1.0435e-11
2.21554e-12
5.13965e-13
2.21203e-12
2.10065e-13
3.88207e-12
-1.14958e-11
2.63254e-10
1.44617e-11
2.6933e-12
1.31857e-11
-3.88931e-12
7.66154e-12
3.25197e-10
2.43188e-09
3.93779e-09
3.19161e-09
6.51934e-10
1.66762e-11
1.82271e-11
3.00072e-11
3.88629e-09
6.04997e-09
5.48436e-09
1.8155e-10
4.18535e-11
1.43978e-11
3.11392e-13
9.22834e-13
5.26235e-09
4.59232e-09
2.81393e-11
2.41981e-11
5.22063e-15
-5.15062e-14
3.54304e-17
5.33639e-12
1.98731e-11
1.97409e-11
3.25408e-12
-2.84366e-13
-1.98772e-11
-2.67221e-11
1.4522e-16
1.74356e-12
4.60746e-12
6.17418e-13
2.6458e-13
3.65306e-11
4.36939e-11
6.35968e-11
5.1631e-11
1.62052e-11
2.94966e-13
4.41711e-11
2.36167e-11
2.82599e-11
2.86315e-11
2.71081e-11
2.48782e-11
4.5431e-13
4.57484e-11
2.77586e-11
2.21858e-11
2.36928e-11
1.89778e-11
2.68853e-11
3.30752e-11
6.26199e-11
2.82688e-11
2.35585e-11
7.04984e-11
2.24786e-11
2.06454e-11
5.03607e-11
6.37826e-11
2.80238e-11
1.96978e-11
2.34873e-11
1.73335e-11
2.6569e-11
3.90907e-11
3.72002e-12
3.24551e-11
5.47576e-11
2.19246e-11
2.72277e-11
3.40965e-11
5.29711e-12
3.83436e-13
2.17377e-11
1.96462e-11
5.15472e-11
3.56331e-11
7.84913e-12
1.1014e-13
2.98281e-13
2.92191e-13
2.53135e-16
3.18502e-15
1.53074e-15
4.28979e-13
2.54517e-13
3.24507e-13
3.948e-16
3.09601e-15
1.12713e-13
2.86574e-15
8.81766e-16
2.29529e-13
2.4501e-16
3.56379e-15
1.41749e-13
3.82106e-12
1.70314e-13
1.97398e-15
3.27387e-16
3.16728e-15
1.10477e-13
3.72547e-12
6.72e-11
6.1769e-12
7.37211e-14
1.72943e-15
9.82054e-16
2.76596e-15
1.35113e-13
6.15615e-12
1.17924e-13
1.30117e-15
2.00074e-16
2.58195e-13
8.24655e-16
1.70234e-15
1.04449e-13
1.33407e-15
7.12619e-16
1.14934e-12
2.74391e-13
4.62706e-13
4.99118e-16
2.11634e-15
1.67762e-16
7.14008e-13
8.97299e-13
8.89272e-17
4.72062e-16
1.42019e-16
6.37629e-17
9.58397e-17
5.08266e-16
2.81455e-17
6.10639e-16
3.13139e-16
3.59766e-16
2.15841e-16
1.42179e-16
7.31099e-16
6.03969e-16
1.50136e-16
3.4826e-16
8.25504e-16
8.22084e-16
3.84242e-16
1.47272e-16
1.18685e-16
7.85809e-17
2.48458e-16
8.5733e-16
1.24292e-15
6.12153e-16
1.98855e-16
7.08552e-17
7.29968e-17
1.15844e-16
2.94697e-16
5.51712e-16
3.79983e-16
1.58282e-16
1.65263e-16
3.03726e-16
7.10423e-16
1.20856e-16
1.5812e-16
1.50623e-16
1.05703e-15
1.73129e-15
2.2159e-17
4.35289e-16
8.18281e-17
4.96695e-17
1.34562e-16
1.49383e-15
1.71923e-16
2.8537e-20
4.22846e-19
9.15084e-20
1.91329e-20
8.6353e-20
5.78644e-19
3.0637e-20
5.80274e-19
1.95748e-19
9.13241e-20
5.19803e-20
1.07239e-19
8.38659e-19
5.8555e-19
1.09299e-19
1.09067e-19
1.40686e-19
8.02265e-20
8.6004e-20
9.53441e-20
8.04278e-20
2.77975e-20
7.26553e-20
8.59916e-20
7.22345e-20
6.93628e-20
6.06262e-20
2.03419e-20
7.76906e-20
1.13101e-19
8.00705e-20
7.00941e-20
8.82618e-20
8.5511e-20
4.61459e-20
4.20772e-19
9.17378e-19
7.54671e-20
5.30145e-20
8.92769e-20
6.41353e-19
2.16868e-19
3.49129e-20
5.688e-19
5.45573e-20
1.71871e-20
4.85821e-20
2.22449e-19
1.0852e-20
9.55714e-24
6.16024e-23
1.88727e-23
4.54848e-24
2.15184e-23
1.19916e-22
1.93486e-23
8.17513e-23
8.20583e-23
4.16752e-23
2.53326e-23
5.55066e-23
2.64784e-22
1.33778e-22
2.61779e-23
5.14117e-23
5.29707e-23
3.58478e-23
4.09544e-23
4.65191e-23
1.95842e-23
7.91412e-24
3.68764e-23
3.7848e-23
3.21547e-23
3.08046e-23
2.12117e-23
4.89805e-24
2.48431e-23
6.57015e-23
4.10207e-23
3.2065e-23
3.63164e-23
3.02202e-23
1.23643e-23
1.19447e-22
3.23421e-22
4.31737e-23
2.09316e-23
2.89883e-23
1.02361e-22
1.05704e-22
2.04975e-23
1.63e-22
1.95933e-23
4.43597e-24
1.04873e-23
8.30769e-23
1.73633e-23
2.70333e-28
7.16637e-27
3.20238e-27
1.39401e-27
2.67309e-27
1.18405e-26
1.02077e-27
9.11603e-27
1.9285e-26
1.18144e-26
7.82985e-27
1.08833e-26
2.72063e-26
1.66362e-26
4.37977e-27
1.35063e-26
1.25013e-26
9.85463e-27
1.13556e-26
1.31713e-26
5.16321e-27
2.35306e-27
9.6561e-27
1.02264e-26
9.29799e-27
9.87277e-27
8.99623e-27
2.08329e-27
3.55346e-27
1.17211e-26
1.10714e-26
9.82386e-27
1.17902e-26
1.36467e-26
4.85935e-27
8.8707e-27
2.34694e-26
1.1286e-26
8.59254e-27
1.31086e-26
3.57893e-26
2.24349e-26
9.93464e-28
1.19769e-26
3.96676e-27
1.76146e-27
3.66913e-27
1.72263e-26
1.18956e-27
1
1
1
1
1
1
1
1
1
1
1
1
1
1
1
1
1
1
1
1
1
1
1
1
1
1
1
1
1
1
1
1
1
1
1
1
1
1
1
1
1
1
1
1
1
1
1
1
1
1
1
1
1
1
1
1
1
1
1
1
1
1
1
1
1
1
1
1
1
1
1
1
1
1
1
1
1
1
1
1
1
1
1
1
1
1
1
1
1
1
1
1
1
1
1
1
1
1
1
1
1
1
1
1
1
1
1
1
1
1
1
1
0.0548962
0.054878
0.0548669
0.0548587
0.0548485
0.0548354
0.054819
0.054805
0.0549315
0.0549183
0.0549077
0.0548983
0.0548861
0.0548672
0.0548436
0.0548226
0.0549881
0.0549739
0.0549621
0.0549465
0.0549252
0.0548967
0.0548658
0.0548391
0.0550156
0.0550022
0.0549865
0.054966
0.0549399
0.0549093
0.0548772
0.0548473
0.0550127
0.054995
0.0549746
0.0549518
0.0549269
0.0548992
0.0548705
0.0548439
0.0549787
0.0549579
0.0549371
0.0549151
0.0548933
0.0548698
0.0548457
0.0548253
0.0549345
0.0549107
0.0548936
0.0548778
0.0548618
0.0548447
0.0548259
0.0548099
2.12077e-11
-2.12375e-12
-1.89748e-14
-2.00658e-14
-1.73741e-10
-2.95292e-10
-6.3846e-10
-1.70647e-09
7.15758e-12
-9.82743e-15
-5.64102e-11
-1.76655e-10
-4.03137e-10
-3.83188e-10
-1.08959e-09
-2.06669e-09
1.8763e-14
-1.4732e-12
-8.8924e-11
-1.39302e-10
-4.71158e-10
-9.31022e-10
-1.50788e-09
-2.48231e-09
4.0298e-11
6.20194e-12
-4.50257e-11
-2.07429e-10
-4.90439e-10
-9.00914e-10
-1.37593e-09
-2.23557e-09
1.33893e-11
-1.13047e-11
-8.01616e-11
-2.37689e-10
-4.90828e-10
-8.95187e-10
-1.41703e-09
-2.31282e-09
1.39679e-11
-1.3526e-11
-5.20119e-11
-1.30976e-10
-3.0687e-10
-6.47295e-10
-1.15422e-09
-2.00926e-09
2.55189e-12
-1.48076e-11
7.46969e-14
-1.50764e-10
-3.338e-10
-6.14088e-10
-4.98476e-10
-1.69615e-09
7.50836e-15
6.14339e-15
4.65512e-15
4.86569e-15
3.16579e-15
3.1502e-15
2.68541e-15
2.64369e-15
1.6642e-14
2.29732e-14
5.32958e-15
2.61805e-15
1.85852e-15
1.50168e-15
1.6176e-15
1.85817e-15
2.0098e-12
4.58031e-14
2.73962e-15
1.502e-15
1.40776e-15
1.18699e-15
1.50087e-15
1.63907e-15
3.02097e-11
1.31641e-13
2.26623e-15
1.35534e-15
1.15648e-15
1.0865e-15
1.18718e-15
1.64381e-15
8.23537e-14
2.03884e-15
1.35289e-15
1.15603e-15
1.08642e-15
1.0426e-15
1.08655e-15
1.28546e-15
8.58508e-15
2.99192e-15
1.66694e-15
1.16204e-15
1.04342e-15
1.04242e-15
1.04277e-15
1.21094e-15
5.42818e-15
3.41367e-15
3.77195e-15
1.97893e-15
1.57367e-15
1.66766e-15
3.74378e-16
8.40307e-16
1.07386e-13
5.05581e-14
2.85641e-14
2.57856e-14
3.18694e-14
3.7818e-14
4.09232e-14
6.8247e-14
1.36571e-13
6.77749e-14
3.84378e-14
2.71087e-14
2.10281e-14
1.6097e-14
3.43285e-14
1.11503e-13
6.90531e-14
4.80193e-14
2.55641e-14
1.88224e-14
1.0549e-14
6.77594e-15
2.67662e-14
1.28359e-13
1.82161e-14
4.57768e-14
4.40526e-14
5.69352e-14
3.36848e-14
1.49896e-14
3.51296e-14
1.43951e-13
1.01587e-13
9.05654e-14
4.43222e-14
2.01626e-14
8.65678e-15
5.49849e-15
3.02516e-14
1.44257e-13
8.02051e-13
3.80908e-13
1.47682e-13
5.43149e-14
2.22082e-14
1.08497e-14
1.97781e-14
8.65507e-14
5.4014e-13
2.57993e-13
1.09898e-13
5.78656e-14
5.35229e-14
6.36048e-14
7.47177e-14
1.1752e-13
1.53642e-17
2.26863e-18
2.84375e-19
2.29129e-19
5.88359e-18
1.53554e-16
8.71209e-15
1.18105e-13
1.01382e-16
1.10999e-17
8.30389e-19
1.12969e-18
5.48174e-17
2.04105e-15
2.80949e-14
2.05995e-13
4.2503e-17
7.81175e-18
6.31452e-19
7.96417e-18
2.86615e-16
4.31821e-15
4.03882e-14
2.59174e-13
2.48378e-17
5.2437e-18
4.9693e-19
1.21735e-17
3.23269e-16
4.258e-15
3.77366e-14
2.43113e-13
7.00218e-17
1.54532e-17
1.50316e-18
7.56353e-18
3.23373e-16
5.02032e-15
4.64007e-14
2.89263e-13
3.8265e-16
5.30953e-17
4.8806e-18
1.06651e-18
4.78886e-17
1.89267e-15
2.65895e-14
1.98654e-13
8.14898e-17
1.38801e-17
1.99811e-18
3.50663e-19
4.72442e-18
1.71658e-16
1.03908e-14
1.25511e-13
5.13431e-21
2.28682e-21
2.8655e-20
4.65887e-19
8.55188e-18
1.28921e-16
1.34299e-15
9.78596e-15
2.21008e-20
5.02953e-21
9.79424e-20
1.67528e-18
2.27989e-17
2.42661e-16
2.0301e-15
1.35454e-14
6.38632e-21
3.27634e-21
1.15303e-19
2.20507e-18
2.85847e-17
2.81581e-16
2.24924e-15
1.50967e-14
3.38743e-21
1.37129e-21
9.48763e-20
2.13213e-18
2.87737e-17
2.85478e-16
2.2865e-15
1.55107e-14
7.54833e-21
7.27519e-22
5.84753e-20
1.77079e-18
2.75676e-17
2.93206e-16
2.39701e-15
1.6034e-14
1.14404e-20
4.03085e-22
1.90551e-20
8.37047e-19
1.79781e-17
2.32875e-16
2.1005e-15
1.42574e-14
8.22817e-22
1.23388e-22
4.21579e-21
1.7646e-19
6.38205e-18
1.31833e-16
1.48627e-15
1.08527e-14
4.69599e-24
2.32246e-23
2.3909e-22
2.85461e-21
3.6669e-20
4.67346e-19
5.52507e-18
5.80297e-17
7.55457e-24
3.02822e-23
4.36474e-22
5.94937e-21
7.57934e-20
8.87551e-19
9.4946e-18
9.36473e-17
1.14328e-24
1.77727e-23
3.62743e-22
5.96534e-21
8.34763e-20
1.01982e-18
1.11694e-17
1.14101e-16
3.06831e-25
5.94866e-24
1.97778e-22
4.33327e-21
7.20113e-20
9.71018e-19
1.12682e-17
1.19885e-16
1.49122e-24
4.20867e-25
5.9447e-23
2.43924e-21
5.59964e-20
8.93915e-19
1.12058e-17
1.21008e-16
1.22123e-23
7.41771e-25
9.23859e-24
9.29779e-22
3.50452e-20
7.04322e-19
9.76972e-18
1.06813e-16
1.57655e-24
3.41776e-25
1.78282e-23
8.87025e-22
2.7277e-20
5.5423e-19
7.93752e-18
8.60711e-17
1.16351e-28
1.34872e-28
4.12748e-27
1.4732e-25
4.5879e-24
1.20199e-22
2.81909e-21
6.32854e-20
5.98555e-28
2.93574e-28
9.19058e-27
2.8113e-25
7.87379e-24
2.03329e-22
4.93519e-21
1.17069e-19
8.57659e-29
1.81118e-28
7.22013e-27
2.46053e-25
7.548e-24
2.11535e-22
5.51079e-21
1.40634e-19
2.22955e-29
6.87585e-29
3.80047e-27
1.63017e-25
5.92806e-24
1.86762e-22
5.24799e-21
1.41321e-19
2.05982e-28
8.2249e-30
1.06926e-27
8.09864e-26
4.16176e-24
1.60161e-22
5.00663e-21
1.40681e-19
1.35146e-27
4.18036e-29
1.63647e-28
3.83791e-26
3.21218e-24
1.48657e-22
4.99656e-21
1.39999e-19
8.13955e-29
3.31632e-30
5.28721e-28
8.49737e-26
5.43915e-24
2.0258e-22
5.81209e-21
1.42636e-19
1
1
1
1
1
1
1
1
1
1
1
1
1
1
1
1
1
1
1
1
1
1
1
1
1
1
1
1
1
1
1
1
1
1
1
1
1
1
1
1
1
1
1
1
1
1
1
1
1
1
1
1
1
1
1
1
1
1
1
1
1
1
1
1
1
1
1
1
1
1
1
1
1
1
1
1
1
1
1
1
1
1
1
1
1
1
1
1
1
1
1
1
1
1
1
1
1
1
1
1
1
1
1
1
1
1
1
1
1
1
1
1
0.0548948
0.0548816
0.0548665
0.0548627
0.0548526
0.0548391
0.0548228
0.0548083
0.0549308
0.0549221
0.0549003
0.0548955
0.0548844
0.0548685
0.0548467
0.0548258
0.0549769
0.0549637
0.0549463
0.0549372
0.0549216
0.0548973
0.054868
0.0548414
0.0549898
0.0549803
0.0549652
0.0549543
0.0549345
0.0549076
0.0548776
0.0548488
0.0549699
0.0549638
0.0549498
0.0549385
0.0549198
0.0548949
0.0548685
0.054844
0.0549227
0.0549151
0.0549077
0.0548964
0.0548826
0.0548629
0.0548406
0.0548224
0.0548838
0.0548753
0.0548568
0.0548553
0.054845
0.0548342
0.0548199
0.0548056
-7.2302e-11
2.26634e-22
2.92935e-23
2.96682e-22
-1.01392e-11
-2.13351e-10
-4.95208e-10
-1.68923e-09
1.69666e-11
5.39598e-22
-7.92871e-11
-6.35574e-13
-2.00257e-10
-1.20834e-10
-1.0245e-09
-2.10028e-09
2.00448e-14
6.4413e-21
-1.59546e-11
-8.6413e-12
-3.62542e-10
-8.67538e-10
-1.49142e-09
-2.50151e-09
3.36793e-11
1.40473e-13
-1.04601e-11
-1.46319e-10
-4.18797e-10
-8.39909e-10
-1.3404e-09
-2.20095e-09
1.52627e-11
6.95698e-12
-2.17656e-11
-1.73612e-10
-4.2215e-10
-8.16572e-10
-1.33588e-09
-2.21239e-09
5.48175e-14
-2.95691e-14
-6.02787e-11
-2.40529e-10
-1.96039e-10
-5.54369e-10
-1.02418e-09
-1.81589e-09
2.06018e-11
-3.44508e-11
-1.52343e-14
-1.35059e-10
-2.59034e-10
-5.9947e-10
-3.42342e-10
-1.59376e-09
2.11354e-14
7.02116e-15
6.82418e-15
1.22785e-14
1.64154e-14
8.30306e-15
4.36168e-15
1.73512e-15
2.34209e-14
2.33369e-14
9.7437e-15
7.50893e-15
5.60187e-15
3.94641e-15
3.91623e-15
3.11331e-15
1.10267e-12
1.30985e-13
7.53325e-15
4.01888e-15
3.95494e-15
3.95446e-15
3.91732e-15
4.1603e-15
4.95008e-11
1.06996e-12
6.53445e-15
4.15047e-15
4.00271e-15
3.95583e-15
4.15909e-15
4.41904e-15
2.28971e-13
5.78761e-15
4.45186e-15
4.3042e-15
4.21268e-15
4.19784e-15
4.21265e-15
4.42536e-15
1.25753e-12
5.25861e-14
7.47177e-15
5.64196e-15
4.31091e-15
4.21488e-15
4.42513e-15
4.88033e-15
1.02082e-14
1.01555e-14
9.80826e-15
7.30417e-15
7.41876e-15
7.54794e-15
4.90436e-15
5.66016e-15
1.29259e-13
6.94974e-14
6.89493e-14
9.09764e-14
1.16583e-13
1.31592e-13
1.30556e-13
1.44326e-13
1.74601e-13
1.00515e-13
8.9487e-14
9.54094e-14
9.72519e-14
9.99565e-14
1.25123e-13
1.99298e-13
7.45175e-14
4.36128e-14
1.84024e-14
2.38788e-14
1.93234e-14
1.28189e-14
4.64184e-14
1.84819e-13
2.70554e-14
2.51208e-14
2.28981e-14
1.18218e-13
1.11336e-13
5.69037e-14
6.21646e-14
1.99342e-13
6.39537e-14
5.53858e-14
2.8114e-14
3.51927e-14
2.73113e-14
1.52854e-14
4.81027e-14
1.60046e-13
2.34392e-13
1.40022e-13
9.23527e-14
7.77555e-14
6.99511e-14
6.26661e-14
6.68581e-14
1.18787e-13
1.69494e-13
1.00897e-13
8.84102e-14
1.04365e-13
1.2483e-13
1.38221e-13
1.44588e-13
1.72625e-13
7.70691e-18
2.04679e-18
4.3368e-19
9.38281e-20
5.74531e-19
3.03484e-17
3.33145e-15
7.85734e-14
7.39847e-17
1.36353e-17
1.93186e-18
2.44669e-19
3.0944e-18
3.2294e-16
1.17759e-14
1.27275e-13
2.7223e-17
6.64335e-18
9.62302e-19
2.43259e-19
2.33438e-17
1.02616e-15
1.69967e-14
1.48703e-13
2.53718e-17
5.68202e-18
7.0503e-19
4.89277e-19
4.75303e-17
1.38178e-15
1.87425e-14
1.57317e-13
5.30214e-17
1.20348e-17
1.52969e-18
3.8308e-19
3.90029e-17
1.48516e-15
2.17129e-14
1.76937e-13
1.53427e-16
2.67023e-17
3.29669e-18
3.74712e-19
5.20797e-18
3.23426e-16
1.01519e-14
1.10772e-13
2.96971e-17
6.85756e-18
1.22086e-18
1.95686e-19
7.30697e-19
2.60639e-17
1.83672e-15
5.46843e-14
4.26732e-21
4.69946e-22
1.16837e-21
1.4883e-20
5.85095e-19
2.52739e-17
5.50596e-16
5.78893e-15
1.10933e-19
1.54524e-20
1.24524e-21
1.28035e-20
1.14468e-18
3.93237e-17
6.20851e-16
6.09317e-15
1.83076e-20
2.08321e-21
3.04577e-22
6.49786e-20
3.03743e-18
5.56031e-17
6.62315e-16
6.07005e-15
6.0964e-21
6.90908e-22
1.62861e-21
1.84757e-19
4.69029e-18
6.68064e-17
7.04382e-16
6.16405e-15
1.30256e-20
7.64677e-22
4.87038e-21
2.82454e-19
6.07202e-18
8.12276e-17
8.17118e-16
6.77014e-15
1.81933e-20
3.75654e-22
4.46447e-21
1.69734e-19
4.1236e-18
6.50124e-17
7.27065e-16
6.15962e-15
1.23805e-21
1.01322e-22
1.14516e-21
3.19185e-20
9.38973e-19
2.41222e-17
4.02537e-16
4.1952e-15
4.20038e-24
1.2297e-24
3.56758e-24
2.93124e-23
9.56122e-22
3.36544e-20
8.30231e-19
1.48607e-17
3.18036e-23
4.38177e-24
3.83257e-25
9.65377e-24
8.40599e-22
3.45415e-20
8.80338e-19
1.59449e-17
3.97062e-24
3.29335e-25
3.97827e-25
5.88388e-23
2.80031e-21
6.81763e-20
1.17996e-18
1.7546e-17
7.75892e-25
6.39129e-26
7.0383e-24
2.86884e-22
6.61392e-21
1.10318e-19
1.52359e-18
1.97553e-17
6.95942e-25
3.72795e-25
1.81979e-23
5.14164e-22
1.01186e-20
1.5455e-19
1.98643e-18
2.39125e-17
1.54791e-24
6.71421e-25
1.5322e-23
3.52424e-22
7.15028e-21
1.21712e-19
1.74719e-18
2.23016e-17
3.52964e-25
6.51204e-25
7.0243e-24
1.19532e-22
2.48981e-21
5.05591e-20
9.11691e-19
1.3778e-17
1.02032e-28
1.03208e-29
6.19252e-30
6.64856e-28
1.00676e-25
7.39916e-24
3.57728e-22
1.38338e-20
1.10535e-27
8.21728e-29
4.17706e-30
4.49593e-28
8.0107e-26
6.51456e-24
3.42207e-22
1.46825e-20
2.55801e-28
6.7521e-30
2.6101e-29
3.23261e-27
2.13024e-25
9.94728e-24
3.84712e-22
1.4585e-20
6.47422e-29
3.22797e-30
2.42724e-28
1.22099e-26
4.84154e-25
1.61972e-23
4.84482e-22
1.56055e-20
3.53597e-29
7.55769e-30
4.43761e-28
1.98315e-26
7.28992e-25
2.3052e-23
6.58471e-22
1.96134e-20
2.05425e-28
9.82912e-30
2.64908e-28
1.34459e-26
5.82609e-25
2.15704e-23
7.11585e-22
2.25478e-20
1.56313e-29
2.24386e-30
9.03661e-29
5.81444e-27
3.18176e-25
1.40917e-23
5.44829e-22
1.91832e-20
1
1
1
1
1
1
1
1
1
1
1
1
1
1
1
1
1
1
1
1
1
1
1
1
1
1
1
1
1
1
1
1
1
1
1
1
1
1
1
1
1
1
1
1
1
1
1
1
1
1
1
1
1
1
1
1
1
1
1
1
1
1
1
1
1
1
1
1
1
1
1
1
1
1
1
1
1
1
1
1
1
1
1
1
1
1
1
1
1
1
1
1
1
1
1
1
1
1
1
1
1
1
1
1
1
1
1
1
1
1
1
1
0.0548863
0.0548764
0.0548542
0.0548554
0.0548465
0.0548367
0.0548234
0.0548086
0.054923
0.054911
0.0548999
0.0548932
0.0548843
0.0548673
0.0548437
0.0548223
0.0549664
0.0549579
0.0549438
0.0549365
0.05492
0.0548933
0.0548632
0.054837
0.0549911
0.0549797
0.054965
0.0549542
0.0549331
0.054905
0.054874
0.0548445
0.0549765
0.0549695
0.0549503
0.0549374
0.0549188
0.0548933
0.0548658
0.0548399
0.05494
0.0549278
0.0549099
0.0548951
0.0548805
0.0548629
0.0548408
0.0548215
0.0548851
0.0548738
0.0548537
0.0548583
0.0548504
0.0548413
0.054827
0.0548102
-3.43548e-12
1.32726e-11
6.72524e-14
-4.86357e-11
-1.24215e-10
-6.10763e-10
-1.93911e-10
-1.68141e-09
1.56e-11
1.40889e-11
8.69532e-15
-1.85335e-10
-4.92532e-11
-5.99226e-10
-1.18004e-09
-2.02084e-09
1.5588e-11
2.17582e-14
-7.35045e-11
-1.24581e-10
-4.41269e-10
-8.72203e-10
-1.36423e-09
-2.23171e-09
2.1083e-14
-6.03597e-13
-9.20201e-12
-1.53207e-10
-4.27597e-10
-8.46866e-10
-1.33748e-09
-2.18527e-09
4.43708e-17
-3.63215e-12
-4.69627e-11
-1.02702e-10
-3.37317e-10
-7.37356e-10
-1.2955e-09
-2.17898e-09
1.74949e-14
-3.02569e-11
-3.679e-13
-5.49269e-11
-2.5186e-10
-3.73184e-10
-1.05408e-09
-1.98511e-09
1.7762e-11
-3.06535e-11
-2.43937e-11
-8.88483e-11
-4.67904e-10
-4.42284e-10
-1.11156e-09
-1.57608e-09
9.52288e-15
9.41065e-15
9.40441e-15
7.64402e-15
7.80615e-15
7.83551e-15
5.36003e-15
6.13226e-15
3.10857e-14
8.93803e-15
8.43376e-15
6.03983e-15
4.69345e-15
4.59764e-15
4.77064e-15
5.32383e-15
3.29972e-13
4.45199e-14
5.97455e-15
4.66206e-15
4.59493e-15
3.98836e-15
4.43159e-15
4.77069e-15
5.36543e-11
1.17843e-12
8.02312e-15
4.49717e-15
3.95994e-15
3.75635e-15
3.98702e-15
4.43454e-15
1.40351e-12
3.70009e-14
6.06862e-15
3.9666e-15
3.7572e-15
3.75508e-15
3.75612e-15
4.06822e-15
8.30359e-13
5.88057e-14
1.4585e-14
8.40858e-15
5.02601e-15
3.75874e-15
3.84957e-15
3.85196e-15
1.03747e-14
1.32623e-14
1.02962e-14
7.84058e-15
6.53669e-15
4.82063e-15
4.50532e-15
2.8872e-15
1.50705e-13
8.41913e-14
7.78907e-14
9.97298e-14
1.21353e-13
1.28856e-13
1.22282e-13
1.29293e-13
2.02422e-13
1.15591e-13
7.94788e-14
7.69016e-14
7.65833e-14
7.1008e-14
7.70341e-14
1.21231e-13
7.83133e-14
6.43342e-14
3.16486e-14
3.22865e-14
2.10974e-14
1.10641e-14
4.01223e-14
1.51698e-13
5.30448e-14
6.82648e-14
4.97916e-14
1.19148e-13
9.11387e-14
4.18182e-14
5.63359e-14
2.00453e-13
1.85144e-13
1.13142e-13
4.42368e-14
4.75242e-14
3.25276e-14
1.73528e-14
5.42279e-14
1.76525e-13
3.19244e-13
1.9142e-13
1.28974e-13
1.02292e-13
7.64594e-14
5.54492e-14
6.02001e-14
1.29281e-13
1.6733e-13
1.12066e-13
8.7343e-14
8.62694e-14
9.64971e-14
1.06294e-13
1.05992e-13
1.30001e-13
2.10725e-17
4.606e-18
7.64379e-19
1.23196e-19
7.51426e-19
2.84931e-17
2.32941e-15
6.36942e-14
1.10876e-16
1.80529e-17
2.00111e-18
2.64232e-19
5.94725e-18
3.63461e-16
1.08304e-14
1.13526e-13
4.57908e-17
9.31827e-18
1.00343e-18
5.23255e-19
5.26598e-17
1.63075e-15
2.20241e-14
1.75409e-13
1.92466e-17
3.97314e-18
4.3849e-19
8.53638e-19
7.6666e-17
1.75065e-15
2.10937e-14
1.65392e-13
3.78732e-17
9.15417e-18
1.20572e-18
4.52481e-19
5.4588e-17
1.90292e-15
2.56273e-14
1.97403e-13
1.24977e-16
2.1953e-17
2.71612e-18
3.01193e-19
5.88748e-18
4.71857e-16
1.27852e-14
1.26021e-13
1.86428e-17
4.47538e-18
7.81871e-19
1.24495e-19
7.97487e-19
3.97244e-17
5.60568e-15
1.01002e-13
2.00243e-21
1.75286e-22
1.13405e-21
3.13853e-20
9.47068e-19
2.48454e-17
4.13904e-16
4.26164e-15
2.35317e-20
7.22553e-22
5.00858e-21
1.75811e-19
4.0576e-18
6.33162e-17
7.11883e-16
6.08082e-15
1.11398e-20
5.83185e-22
6.62124e-21
3.10013e-19
6.24595e-18
8.21534e-17
8.26359e-16
6.86631e-15
3.8026e-21
3.94888e-22
3.24756e-21
2.76676e-19
6.15762e-18
8.24662e-17
8.33763e-16
7.02232e-15
1.59553e-20
1.61632e-21
8.64221e-22
1.58476e-19
5.30567e-18
8.24536e-17
8.81662e-16
7.43107e-15
1.24026e-19
1.3595e-20
9.47214e-22
3.46439e-20
2.1715e-18
5.44905e-17
7.23886e-16
6.51867e-15
2.64172e-21
2.57086e-22
4.88168e-22
1.67205e-20
8.16575e-19
2.81504e-17
5.32727e-16
5.45602e-15
5.73839e-25
7.94881e-25
8.32546e-24
1.32685e-22
2.64176e-21
5.29701e-20
9.51999e-19
1.43502e-17
1.96093e-24
9.81785e-25
2.0576e-23
4.28319e-22
8.00612e-21
1.29844e-19
1.83327e-18
2.34025e-17
4.27234e-25
5.72033e-25
2.28256e-23
5.76169e-22
1.07036e-20
1.60162e-19
2.06643e-18
2.52549e-17
4.02656e-25
1.02139e-25
1.10245e-23
3.95762e-22
8.61812e-21
1.39367e-19
1.88942e-18
2.402e-17
2.88048e-24
1.98104e-25
1.13924e-24
1.46069e-22
5.61396e-21
1.20136e-19
1.89079e-18
2.57096e-17
2.54822e-23
2.51462e-24
3.94862e-25
3.75071e-23
2.29278e-21
7.82096e-20
1.65172e-18
2.53733e-17
3.39979e-24