/*--------------------------------*- C++ -*----------------------------------*\
| =========                 |                                                 |
| \\      /  F ield         | OpenFOAM: The Open Source CFD Toolbox           |
|  \\    /   O peration     | Version:  plus.master.MPPICInterFoam            |
|   \\  /    A nd           | Web:      www.OpenFOAM.com                      |
|    \\/     M anipulation  |                                                 |
\*---------------------------------------------------------------------------*/
FoamFile
{
    version     2.0;
    format      ascii;
    class       surfaceScalarField;
    location    "1";
    object      alphaPhi;
}
// * * * * * * * * * * * * * * * * * * * * * * * * * * * * * * * * * * * * * //

dimensions      [0 3 -1 0 0 0 0];

internalField   nonuniform List<scalar> 
34319
(
-7.57278e-11
-5.81879e-11
5.98069e-09
1.5724e-10
1.34819e-10
-3.99798e-11
-9.78776e-11
6.01857e-09
1.94786e-10
-1.79471e-11
-1.58966e-10
6.03759e-09
2.70154e-10
-1.57063e-12
-1.89133e-10
6.04366e-09
3.07746e-10
1.37737e-11
-1.77509e-10
6.03566e-09
2.92298e-10
3.50465e-11
-1.35973e-10
6.01258e-09
2.35261e-10
-1.11158e-10
5.96766e-09
8.01909e-11
1.85206e-10
-1.16011e-10
-2.44951e-11
6.02034e-09
2.15517e-10
-6.37099e-11
-4.56675e-11
6.05413e-09
-2.81017e-11
-8.17236e-11
6.07153e-09
-5.44358e-12
-1.01741e-10
6.07598e-09
1.80488e-11
-9.72365e-11
6.06713e-09
5.66325e-11
-7.56722e-11
6.04424e-09
-6.79155e-11
6.00335e-09
1.20521e-10
-1.73417e-10
-1.56666e-14
6.04214e-09
2.84479e-10
-9.83466e-11
-8.32899e-12
6.07377e-09
-4.19301e-11
-2.33337e-11
6.08996e-09
-7.90021e-14
-3.45773e-11
6.09305e-09
4.50034e-11
-3.82602e-11
6.08303e-09
1.08811e-10
-3.67029e-11
6.0595e-09
-4.17472e-11
6.02038e-09
1.92986e-10
-2.00421e-10
1.76376e-11
6.04996e-09
3.16798e-10
-1.16291e-10
1.53024e-11
6.07987e-09
-5.0221e-11
1.93391e-11
6.09478e-09
1.85864e-12
1.75034e-11
6.09695e-09
5.91103e-11
6.76183e-12
6.08642e-09
1.37372e-10
-9.70395e-12
6.06295e-09
-2.2994e-11
6.02495e-09
2.33423e-10
-1.88522e-10
3.22671e-11
6.04301e-09
3.01399e-10
-1.1007e-10
3.671e-11
6.07214e-09
-5.00815e-11
6.29829e-11
6.08599e-09
-3.44986e-12
7.28775e-11
6.08769e-09
4.94787e-11
5.6031e-11
6.07733e-09
1.24809e-10
2.06815e-11
6.05457e-09
-4.57166e-12
6.01701e-09
2.20775e-10
-1.51577e-10
4.49005e-11
6.01998e-09
2.55945e-10
-8.85765e-11
6.69365e-11
6.04967e-09
-4.51356e-11
1.22674e-10
6.06315e-09
-1.46481e-11
1.47314e-10
6.06498e-09
2.13881e-11
1.25336e-10
6.05541e-09
7.88593e-11
6.8712e-11
6.03389e-09
2.19178e-11
5.99621e-09
1.62311e-10
-1.26883e-10
5.97555e-09
2.0789e-10
7.56026e-11
-7.67717e-11
6.00926e-09
1.22409e-10
-4.6609e-11
6.02418e-09
2.06244e-10
-2.40804e-11
6.02724e-09
2.39833e-10
1.47379e-12
6.01834e-09
2.1358e-10
3.77307e-11
5.99711e-09
1.40877e-10
5.95683e-09
9.73989e-11
6.87317e-11
-3.63963e-11
-8.24568e-11
5.8587e-09
8.85638e-11
1.48378e-10
-2.38382e-11
-1.08375e-10
5.90516e-09
1.62372e-10
-1.37012e-11
-1.45737e-10
5.92659e-09
2.07707e-10
-1.26777e-11
-1.73525e-10
5.93625e-09
2.39792e-10
-1.84005e-11
-1.84132e-10
5.93307e-09
2.50544e-10
-3.12454e-11
-1.79497e-10
5.91621e-09
2.45062e-10
-1.68062e-10
5.87591e-09
-4.49018e-11
2.29131e-10
-6.66124e-11
-6.00594e-11
5.90699e-09
1.10898e-10
-5.40429e-11
-8.37503e-11
5.94751e-09
-4.15459e-11
-1.14703e-10
5.96942e-09
-3.89051e-11
-1.38584e-10
5.97771e-09
-4.13748e-11
-1.49862e-10
5.97281e-09
-4.49711e-11
-1.49092e-10
5.95468e-09
-1.44119e-10
5.91679e-09
-4.32263e-11
-1.11567e-10
-3.78832e-11
5.93119e-09
1.62296e-10
-9.29046e-11
-5.91983e-11
5.97151e-09
-7.25632e-11
-8.3042e-11
5.99353e-09
-6.05594e-11
-1.0262e-10
6.00082e-09
-4.99282e-11
-1.15432e-10
5.99403e-09
-3.29303e-11
-1.21355e-10
5.97281e-09
-1.25889e-10
5.9327e-09
-5.95327e-12
-1.46499e-10
-2.70881e-11
5.94283e-09
2.01902e-10
-1.2335e-10
-4.63873e-11
5.98154e-09
-9.72997e-11
-6.16491e-11
6.00277e-09
-7.85137e-11
-7.6068e-11
6.00881e-09
-5.82298e-11
-9.08972e-11
6.0004e-09
-2.75399e-11
-1.04991e-10
5.97731e-09
-1.18137e-10
5.9362e-09
1.39465e-11
-1.63448e-10
-2.45135e-11
5.94098e-09
2.18933e-10
-1.38979e-10
-4.13856e-11
5.97803e-09
-1.12083e-10
-4.41216e-11
5.99732e-09
-9.2994e-11
-5.05519e-11
6.00182e-09
-7.12204e-11
-6.63912e-11
5.99239e-09
-3.75505e-11
-8.9035e-11
5.96881e-09
-1.11373e-10
5.92744e-09
8.26138e-12
-1.6442e-10
-3.41312e-11
5.92423e-09
2.23559e-10
-1.39908e-10
-4.08534e-11
5.96048e-09
-1.16438e-10
-2.23818e-11
5.97657e-09
-1.03044e-10
-1.65416e-11
5.97931e-09
-8.71341e-11
-3.2404e-11
5.96951e-09
-5.946e-11
-6.43889e-11
5.94673e-09
-1.01049e-10
5.90582e-09
-1.5418e-11
-1.54245e-10
5.88375e-09
2.06287e-10
-4.03622e-11
-1.31407e-10
5.92243e-09
-3.64094e-11
-1.15402e-10
5.93715e-09
7.96909e-12
-1.0887e-10
5.93873e-09
2.63073e-11
-9.98593e-11
5.92899e-09
1.05244e-11
-8.35852e-11
5.90691e-09
-2.74033e-11
5.86512e-09
-4.90561e-11
-8.08718e-11
3.94265e-12
-3.51892e-11
5.80445e-09
-7.31628e-12
8.55087e-11
1.62781e-12
-1.94691e-11
5.8673e-09
4.39685e-12
1.15879e-11
2.15478e-11
5.91487e-09
-4.60044e-11
1.58138e-11
2.78628e-11
5.93552e-09
-5.54414e-11
1.93052e-11
8.3871e-13
5.92801e-09
-2.02011e-11
2.66726e-11
-5.33265e-11
5.89328e-09
5.16552e-11
-7.07608e-11
5.83763e-09
2.5128e-12
1.16238e-10
1.14995e-11
-8.62976e-12
5.87078e-09
-5.72127e-11
-1.09692e-11
-1.44522e-11
5.92115e-09
-8.93231e-12
1.09209e-13
5.95795e-09
-1.50441e-12
-1.01316e-12
5.9744e-09
5.15614e-12
-2.17534e-11
5.96875e-09
-3.72759e-12
-5.27702e-11
5.941e-09
-5.86699e-11
5.89521e-09
-3.29008e-11
3.03226e-11
2.14912e-11
5.9213e-09
-7.77144e-11
-1.01617e-11
7.61698e-12
5.96171e-09
-2.47466e-11
2.67863e-12
5.992e-09
-2.81972e-11
-5.55971e-12
6.00499e-09
-3.48013e-11
-1.77623e-11
5.99883e-09
-5.44166e-11
-3.05134e-11
5.9741e-09
-3.12372e-11
5.93452e-09
-8.56048e-11
2.31127e-11
4.58245e-11
5.94429e-09
-6.96394e-11
-2.20013e-11
3.36987e-11
5.98139e-09
-4.21136e-11
1.42396e-11
6.00839e-09
-5.12e-11
-1.08276e-12
6.01845e-09
-6.40463e-11
-7.35306e-12
6.01003e-09
-8.92894e-11
-8.32073e-12
5.98426e-09
-1.3981e-11
5.94558e-09
-1.18372e-10
-1.03955e-11
6.97842e-11
5.93823e-09
-2.69538e-11
-4.86948e-11
5.82656e-11
5.97806e-09
-6.02014e-11
2.07054e-11
6.00504e-09
-6.41891e-11
-1.3812e-12
6.01283e-09
-7.24315e-11
-2.35877e-12
6.00064e-09
-9.36796e-11
1.02005e-11
5.97027e-09
5.53183e-12
5.9273e-09
-1.20319e-10
-6.3325e-11
9.69139e-11
5.90474e-09
4.32368e-11
-7.99299e-11
6.74258e-11
5.95192e-09
-7.36003e-11
1.0871e-11
5.98223e-09
-6.75384e-11
-1.4854e-11
5.98869e-09
-6.47461e-11
-9.64322e-12
5.97175e-09
-7.27882e-11
2.22421e-11
5.93368e-09
3.76618e-11
5.88156e-09
-9.39911e-11
-7.01703e-11
5.84996e-09
6.54316e-11
1.2482e-10
-7.35266e-11
5.9078e-09
4.53443e-11
-7.20158e-11
5.94315e-09
-5.08387e-12
-7.05644e-11
5.95019e-09
-3.45097e-11
-6.82371e-11
5.92826e-09
-2.12779e-11
-6.26515e-11
5.8811e-09
2.87796e-11
5.81812e-09
-6.23087e-11
6.99653e-11
8.77229e-11
6.77957e-11
5.92812e-09
-1.79162e-10
-1.07874e-10
4.81758e-11
1.04768e-10
5.98625e-09
-1.77643e-10
2.44931e-11
1.53857e-10
6.03332e-09
-2.37501e-10
3.27494e-12
1.85787e-10
6.05883e-09
-2.73416e-10
-1.78207e-11
2.02316e-10
6.06213e-09
-3.01084e-10
-3.64015e-11
2.0497e-10
6.0395e-09
-3.2003e-10
2.0194e-10
5.99447e-09
-7.42007e-11
-3.11084e-10
1.19393e-10
6.53715e-11
5.98901e-09
-2.27195e-10
6.32794e-11
8.1535e-11
6.02859e-09
2.71925e-11
1.10213e-10
6.06113e-09
2.12285e-12
1.29e-10
6.0803e-09
-2.35607e-11
1.35202e-10
6.08395e-09
-5.98879e-11
1.31018e-10
6.06966e-09
1.31162e-10
6.04039e-09
-1.27099e-10
1.51622e-10
5.96e-11
6.038e-09
-2.55346e-10
8.22674e-11
6.59114e-11
6.06472e-09
2.8908e-11
7.66938e-11
6.08675e-09
-1.17119e-11
8.10197e-11
6.09984e-09
-5.42576e-11
7.83955e-11
6.10217e-09
-1.10316e-10
7.16956e-11
6.09276e-09
7.28232e-11
6.07388e-09
-1.84151e-10
1.71611e-10
5.25464e-11
6.06964e-09
-2.7996e-10
9.17677e-11
5.78431e-11
6.09005e-09
2.38948e-11
5.30469e-11
6.10568e-09
-3.12476e-11
4.30595e-11
6.11328e-09
-8.78977e-11
3.10974e-11
6.11186e-09
-1.56638e-10
2.00376e-11
6.10138e-09
1.42408e-11
6.08354e-09
-2.32433e-10
1.81646e-10
4.66008e-11
6.08016e-09
-3.05511e-10
9.03896e-11
4.66136e-11
6.10119e-09
1.26427e-11
2.42192e-11
6.11531e-09
-5.26868e-11
5.28961e-13
6.11896e-09
-1.18693e-10
-2.09326e-11
6.11247e-09
-1.97642e-10
-3.42421e-11
6.09673e-09
-4.2487e-11
6.07321e-09
-2.8642e-10
1.7881e-10
3.93062e-11
6.06509e-09
-3.19683e-10
7.96993e-11
1.89806e-11
6.09507e-09
-1.64393e-12
-2.19996e-11
6.11371e-09
-7.078e-11
-5.97441e-11
6.11616e-09
-1.4104e-10
-8.86311e-11
6.10425e-09
-2.25878e-10
-9.89897e-11
6.07998e-09
-9.15725e-11
6.04537e-09
-3.37428e-10
1.72532e-10
6.02918e-09
-2.99185e-10
-5.07988e-12
7.58979e-11
6.07395e-09
-4.32723e-11
-5.2358e-12
6.10214e-09
-9.01392e-11
-8.04316e-11
6.1051e-09
-1.32806e-10
-1.50671e-10
6.08729e-09
-1.71936e-10
-2.24214e-10
6.05074e-09
-1.86232e-10
5.99695e-09
-3.34132e-10
-1.51792e-10
2.26079e-10
3.29773e-10
6.24991e-09
-3.59776e-10
-5.16403e-10
1.56999e-10
3.26249e-10
6.21777e-09
-4.35276e-10
1.06175e-10
2.67143e-10
6.19485e-09
-3.59097e-10
7.48575e-11
2.43765e-10
6.20953e-09
-3.40192e-10
1.30489e-11
2.59258e-10
6.26568e-09
-3.84811e-10
-1.19888e-10
2.99542e-10
6.3542e-09
-4.72369e-10
2.91003e-10
6.44133e-09
-3.02311e-10
-5.42862e-10
2.34691e-10
2.48298e-10
6.22441e-09
-3.37657e-10
1.60849e-10
2.50883e-10
6.21993e-09
9.76289e-11
2.12617e-10
6.2085e-09
3.94673e-11
1.86325e-10
6.22141e-09
-3.95124e-11
1.78774e-10
6.26325e-09
-1.48525e-10
1.82253e-10
6.32374e-09
1.50531e-10
6.37421e-09
-2.87111e-10
1.90785e-10
2.0668e-10
6.21029e-09
-2.95052e-10
1.23544e-10
1.92648e-10
6.21795e-09
6.65616e-11
1.62036e-10
6.20999e-09
1.2673e-11
1.28177e-10
6.21676e-09
-5.01966e-11
9.79626e-11
6.24275e-09
-1.28412e-10
6.95806e-11
6.27942e-09
2.60713e-11
6.29982e-09
-2.32388e-10
1.6444e-10
1.6539e-10
6.24001e-09
-2.7646e-10
9.0188e-11
1.31087e-10
6.24486e-09
2.71373e-11
1.06621e-10
6.22979e-09
-2.79325e-11
6.97292e-11
6.22429e-09
-8.25634e-11
2.50297e-11
6.23517e-09
-1.4559e-10
-2.03055e-11
6.2545e-09
-5.33604e-11
6.25811e-09
-2.39038e-10
1.73682e-10
8.04796e-11
6.31691e-09
-3.16545e-10
7.40525e-11
4.35033e-11
6.30411e-09
-1.04548e-11
3.50394e-11
6.27045e-09
-7.62468e-11
3.04752e-12
6.24811e-09
-1.32709e-10
-5.04761e-11
6.24628e-09
-1.94837e-10
-1.08299e-10
6.25784e-09
-1.31119e-10
6.25959e-09
-2.92353e-10
2.04268e-10
-6.69222e-11
6.42476e-09
-4.11136e-10
6.68376e-11
-8.04374e-11
6.37988e-09
-4.30298e-11
-6.06026e-11
6.31815e-09
-1.19228e-10
-8.12542e-11
6.27737e-09
-1.81374e-10
-1.413e-10
6.26753e-09
-2.50173e-10
-2.20659e-10
6.2815e-09
-2.5843e-10
6.29456e-09
-3.53494e-10
1.69481e-10
6.52069e-09
-4.09425e-10
-3.11219e-10
1.78416e-11
6.43561e-09
-2.33262e-10
-8.83827e-11
6.34278e-09
-1.91363e-10
-1.44686e-10
6.28598e-09
-2.02047e-10
-1.92602e-10
6.27408e-09
-2.67775e-10
-2.64375e-10
6.2996e-09
-3.81802e-10
6.33526e-09
-3.73405e-10
-4.771e-10
-1.67364e-10
-7.31442e-11
2.94486e-10
2.22811e-10
5.98184e-09
-1.57044e-11
-2.98257e-11
8.43913e-11
5.86795e-09
1.74577e-10
-1.49619e-11
5.33012e-11
5.8415e-09
3.9114e-10
-2.57284e-11
4.66719e-11
5.88866e-09
5.75483e-10
-9.09794e-11
1.09607e-10
5.9973e-09
6.87673e-10
-2.10442e-10
2.29357e-10
6.14947e-09
-3.42684e-10
6.25557e-10
4.1977e-10
6.34145e-09
-1.52648e-10
8.61104e-11
1.82139e-10
5.88209e-09
-4.36788e-11
8.25496e-11
5.82529e-09
1.45196e-10
8.31586e-11
5.8166e-09
3.54617e-10
5.08523e-11
5.86056e-09
5.22443e-10
-1.58194e-11
5.94249e-09
6.18458e-10
-1.25813e-10
6.04641e-09
-2.32672e-10
5.72578e-10
6.15881e-09
-1.42486e-10
3.16237e-10
1.60942e-10
5.87479e-09
-5.69818e-11
2.94095e-10
5.83776e-09
1.07076e-10
2.60688e-10
5.82992e-09
2.86584e-10
2.01071e-10
5.8544e-09
4.38372e-10
1.24934e-10
5.90415e-09
5.13299e-10
3.83051e-11
5.96878e-09
-3.98983e-11
4.79225e-10
6.03743e-09
-1.67583e-10
5.50862e-10
1.71762e-10
5.94189e-09
-1.05699e-10
5.06555e-10
5.90285e-09
4.17725e-11
4.35994e-10
5.87765e-09
2.1202e-10
3.60796e-10
5.87362e-09
3.5703e-10
2.95327e-10
5.89084e-09
4.31423e-10
2.45131e-10
5.92537e-09
2.02968e-10
4.02164e-10
5.9696e-09
-2.44878e-10
7.27082e-10
2.62836e-10
6.07219e-09
-1.90946e-10
6.60393e-10
6.00898e-09
-3.86434e-11
5.59685e-10
5.95288e-09
1.44771e-10
4.8288e-10
5.91521e-09
3.10115e-10
4.41551e-10
5.90355e-09
4.10366e-10
4.33302e-10
5.91987e-09
4.2545e-10
4.06349e-10
5.95976e-09
-3.57919e-10
8.17e-10
3.64621e-10
6.25667e-09
-2.95444e-10
7.03948e-10
6.14343e-09
-1.19646e-10
5.95896e-10
6.0454e-09
9.53074e-11
5.26692e-10
5.97137e-09
2.96476e-10
5.15801e-10
5.9371e-09
4.31465e-10
5.49025e-10
5.95056e-09
5.8641e-10
4.36245e-10
6.01358e-09
-4.66947e-10
4.22128e-10
7.80432e-10
6.48282e-09
-3.81548e-10
6.18499e-10
6.28497e-09
-1.78934e-10
5.3088e-10
6.1381e-09
5.67283e-11
4.72594e-10
6.0289e-09
2.84306e-10
4.85337e-10
5.98329e-09
4.61542e-10
5.27846e-10
6.01778e-09
4.83222e-10
5.99876e-10
6.14195e-09
2.35372e-10
-1.09933e-10
3.63181e-09
3.57563e-11
4.32892e-10
-1.23805e-10
4.28746e-09
1.37962e-11
6.19758e-10
-1.05938e-10
4.89554e-09
3.11095e-12
7.55144e-10
-7.19007e-11
5.44825e-09
-5.26716e-12
8.08824e-10
-2.99906e-11
5.938e-09
-1.42968e-11
7.46757e-10
1.35945e-11
6.34947e-09
-2.41509e-11
5.13468e-10
5.9441e-11
6.63181e-09
-3.48732e-11
1.0581e-10
6.45424e-09
-4.58648e-11
2.18045e-10
-1.06611e-10
4.58331e-09
3.41901e-10
-1.32761e-10
5.23581e-09
4.69033e-10
-1.25052e-10
5.84438e-09
5.73316e-10
-9.47947e-11
6.40199e-09
6.26602e-10
-5.4101e-11
6.9007e-09
5.92226e-10
-1.05497e-11
7.32423e-09
4.1679e-10
3.4264e-11
7.62038e-09
8.07366e-11
7.451e-09
2.65457e-10
-6.85849e-11
5.18277e-09
3.47064e-10
-8.83427e-11
5.84395e-09
4.32923e-10
-8.78649e-11
6.46489e-09
5.09092e-10
-7.36269e-11
7.03959e-09
5.51013e-10
-5.18223e-11
7.55886e-09
5.2227e-10
-2.60183e-11
8.00344e-09
3.69194e-10
3.25177e-12
8.31557e-09
3.86273e-11
8.13722e-09
3.0225e-10
-1.9435e-11
5.38691e-09
3.67907e-10
-2.14224e-11
6.05318e-09
4.33859e-10
-2.57087e-11
6.68156e-09
4.92175e-10
-3.01549e-11
7.26617e-09
5.21948e-10
-3.16653e-11
7.79703e-09
4.89243e-10
-2.81449e-11
8.25322e-09
3.42897e-10
-1.81106e-11
8.5741e-09
2.0041e-12
8.39106e-09
2.94061e-10
2.00864e-11
5.18044e-09
3.65295e-10
3.39108e-11
5.8422e-09
4.31901e-10
2.85326e-11
6.46535e-09
4.85714e-10
1.17573e-11
7.04401e-09
5.08751e-10
-7.14863e-12
7.56902e-09
4.71615e-10
-2.2821e-11
8.02111e-09
3.27552e-10
-3.22718e-11
8.34237e-09
-3.38232e-11
8.17337e-09
2.48141e-10
3.11424e-11
4.5791e-09
3.46129e-10
4.81688e-11
5.23267e-09
4.39815e-10
4.34823e-11
5.84477e-09
5.11659e-10
2.62137e-11
6.40868e-09
5.41931e-10
4.88696e-12
6.91695e-09
5.0251e-10
-1.52308e-11
7.35384e-09
3.49143e-10
-3.23493e-11
7.66779e-09
-4.43569e-11
7.52284e-09
2.14003e-10
3.62646e-09
-1.36851e-11
3.57492e-10
4.28348e-09
-1.3166e-11
4.93355e-10
4.89522e-09
-1.25216e-11
5.93019e-10
5.45431e-09
-1.15416e-11
6.3265e-10
5.95436e-09
-9.91645e-12
5.83982e-10
6.38145e-09
-7.3234e-12
4.0131e-10
6.687e-09
-3.13742e-12
6.54743e-09
3.97886e-12
1.88314e-11
-1.43253e-10
3.56712e-09
9.80797e-11
1.0933e-10
-1.22414e-10
4.21468e-09
5.98836e-11
1.9642e-10
-8.40291e-11
4.82081e-09
3.1509e-11
2.62418e-10
-4.47884e-11
5.37967e-09
7.81497e-12
2.98432e-10
-1.00646e-11
5.89044e-09
-1.71073e-11
2.87625e-10
1.96235e-11
6.3453e-09
-4.17459e-11
2.02578e-10
4.61541e-11
6.70359e-09
-6.8282e-11
7.03019e-11
6.65585e-09
-1.00222e-10
-1.07731e-11
-1.48964e-10
4.50608e-09
4.9372e-11
-1.39533e-10
5.14593e-09
1.23607e-10
-1.09924e-10
5.75034e-09
1.95293e-10
-7.49202e-11
6.31583e-09
2.45887e-10
-4.26108e-11
6.83954e-09
2.51971e-10
-1.49745e-11
7.31143e-09
1.81081e-10
9.29146e-12
7.68822e-09
3.19203e-11
7.64886e-09
1.97064e-11
-1.31571e-10
5.09597e-09
7.02644e-11
-1.34563e-10
5.74492e-09
1.39448e-10
-1.20102e-10
6.36302e-09
2.11773e-10
-9.7038e-11
6.94696e-09
2.65409e-10
-7.04737e-11
7.49178e-09
2.71994e-10
-4.19071e-11
7.98412e-09
1.94233e-10
-1.02749e-11
8.37468e-09
2.85833e-11
8.31687e-09
3.83338e-11
-1.07704e-10
5.29783e-09
8.08792e-11
-1.19393e-10
5.95447e-09
1.40498e-10
-1.20106e-10
6.58135e-09
2.04561e-10
-1.09866e-10
7.17469e-09
2.53087e-10
-8.94946e-11
7.72853e-09
2.58948e-10
-5.96678e-11
8.22791e-09
1.85585e-10
-1.92719e-11
8.62066e-09
3.91706e-11
8.54946e-09
2.50154e-11
-7.82017e-11
5.09603e-09
5.33377e-11
-9.36699e-11
5.74985e-09
9.33587e-11
-1.03839e-10
6.37111e-09
1.38383e-10
-1.04219e-10
6.95618e-09
1.75134e-10
-9.24002e-11
7.49984e-09
1.83121e-10
-6.82773e-11
7.98844e-09
1.3294e-10
-3.06381e-11
8.3718e-09
2.97849e-11
8.30079e-09
-1.27792e-11
-4.31263e-11
4.50496e-09
-3.58995e-12
-5.52671e-11
5.15002e-09
1.25292e-11
-6.65363e-11
5.75714e-09
3.38574e-11
-7.2787e-11
6.32272e-09
5.49154e-11
-7.09725e-11
6.84301e-09
6.51546e-11
-6.08956e-11
7.3064e-09
4.83615e-11
-4.22873e-11
7.66692e-09
-7.09909e-12
7.59453e-09
-5.45128e-11
3.56759e-09
-1.52032e-11
-5.66012e-11
4.21467e-09
-1.79651e-11
-5.57507e-11
4.81731e-09
-2.19402e-11
-5.031e-11
5.37129e-09
-2.69373e-11
-3.88484e-11
5.87434e-09
-3.26728e-11
-2.43486e-11
6.31598e-09
-3.87382e-11
-1.47714e-11
6.65133e-09
-4.45632e-11
6.55974e-09
-4.78424e-11
-1.19755e-10
6.89593e-11
3.55669e-09
3.58629e-11
-2.52464e-10
1.18931e-10
4.1874e-09
1.18369e-11
-3.53183e-10
1.25336e-10
4.77513e-09
-1.49368e-11
-3.92006e-10
1.03344e-10
5.32212e-09
-3.86537e-11
-3.69462e-10
6.97942e-11
5.82577e-09
-5.16916e-11
-2.9545e-10
3.528e-11
6.27495e-09
-5.69749e-11
-1.79654e-10
2.94634e-12
6.62564e-09
-5.70206e-11
-4.21783e-11
6.55541e-09
-4.89758e-11
-7.06693e-11
7.22849e-11
4.50727e-09
-1.01185e-10
1.21112e-10
5.14181e-09
-1.16127e-10
1.23645e-10
5.7372e-09
-1.09872e-10
9.43545e-11
6.29378e-09
-8.37825e-11
5.46525e-11
6.80911e-09
-4.58624e-11
1.77451e-11
7.27498e-09
-1.06987e-11
-1.28832e-11
7.65328e-09
-4.32465e-11
7.63239e-09
-6.74079e-11
2.31446e-11
5.11528e-09
-2.82178e-11
4.5301e-11
5.76579e-09
1.68859e-11
4.57565e-11
6.37755e-09
5.79845e-11
3.31149e-11
6.95022e-09
9.04886e-11
1.78036e-11
7.4821e-09
1.07485e-10
6.67801e-12
7.96573e-09
9.05598e-11
2.57805e-12
8.36278e-09
4.4724e-12
8.35345e-09
-8.54407e-11
-4.77853e-11
5.32382e-09
-2.66269e-11
-5.72069e-11
5.98295e-09
3.33515e-11
-5.0949e-11
6.60261e-09
8.09102e-11
-3.53838e-11
7.18253e-09
1.12062e-10
-1.6956e-11
7.72133e-09
1.22609e-10
2.37081e-12
8.2111e-09
9.72787e-11
2.3977e-11
8.6118e-09
5.02548e-11
8.59442e-09
-1.10452e-10
-8.89154e-11
5.11259e-09
-8.17004e-11
-1.18795e-10
5.76595e-09
-4.58534e-11
-1.08495e-10
6.37881e-09
-1.204e-11
-7.3955e-11
6.95069e-09
1.67612e-11
-3.40085e-11
7.47968e-09
3.87453e-11
2.01238e-12
7.95747e-09
4.24609e-11
3.58251e-11
8.34376e-09
7.56913e-11
8.3117e-09
-1.39776e-10
-5.84552e-11
4.50195e-09
-1.79761e-10
-9.07355e-11
5.13963e-09
-2.02398e-10
-8.44427e-11
5.73556e-09
-2.01903e-10
-5.62358e-11
6.28908e-09
-1.77353e-10
-2.42578e-11
6.79668e-09
-1.31737e-10
2.21618e-12
7.24887e-09
-7.26092e-11
2.50502e-11
7.60479e-09
5.03775e-11
7.54e-09
-1.8351e-10
3.54972e-09
5.76966e-11
-3.06383e-10
4.17859e-09
4.92551e-11
-3.94814e-10
4.76348e-09
3.96921e-11
-4.28514e-10
5.30551e-09
2.8543e-11
-4.05328e-10
5.79905e-09
1.61881e-11
-3.31631e-10
6.23048e-09
3.10496e-12
-2.06176e-10
6.55308e-09
-1.43559e-11
6.43439e-09
-3.66927e-11
-2.48973e-10
1.73952e-10
3.66165e-09
-9.6762e-11
-4.1566e-10
1.41999e-10
4.31028e-09
-8.67142e-11
-5.33424e-10
8.27043e-11
4.90581e-09
-7.50911e-11
-5.90531e-10
2.45239e-11
5.44014e-09
-6.02601e-11
-5.82666e-10
-1.99008e-11
5.89992e-09
-4.33612e-11
-4.94555e-10
-5.16981e-11
6.27043e-09
-2.63444e-11
-3.01328e-10
-7.71393e-11
6.51008e-09
-8.27994e-12
-1.06185e-10
6.32662e-09
1.84815e-11
-2.30319e-10
1.59995e-10
4.63648e-09
-3.46683e-10
1.29417e-10
5.29486e-09
-4.5652e-10
6.67659e-11
5.89148e-09
-5.35999e-10
5.84752e-12
6.41581e-09
-5.58297e-10
-3.80483e-11
6.86192e-09
-4.94077e-10
-6.5469e-11
7.22332e-09
-3.10083e-10
-8.54824e-11
7.46548e-09
-1.07173e-10
7.30896e-09
-2.47475e-10
9.58636e-11
5.25707e-09
-3.4143e-10
8.89764e-11
5.92225e-09
-4.48901e-10
5.91152e-11
6.51682e-09
-5.36845e-10
2.65965e-11
7.03728e-09
-5.67144e-10
9.95231e-13
7.48335e-09
-5.03528e-10
-1.62386e-11
7.85127e-09
-3.13259e-10
-3.08765e-11
8.10658e-09
-4.87813e-11
7.96854e-09
-2.94125e-10
3.03578e-11
5.46313e-09
-3.8852e-10
5.9552e-11
6.12487e-09
-4.97201e-10
7.34356e-11
6.71544e-09
-5.82404e-10
7.30206e-11
7.23483e-09
-6.0381e-10
6.39579e-11
7.68395e-09
-5.25089e-10
5.18948e-11
8.05879e-09
-3.18209e-10
3.86585e-11
8.32318e-09
2.00481e-11
8.19527e-09
-3.7828e-10
5.26591e-13
5.24377e-09
-4.84803e-10
5.21179e-11
5.89356e-09
-5.88088e-10
9.14852e-11
6.47645e-09
-6.55976e-10
1.07899e-10
6.99017e-09
-6.53874e-10
1.05177e-10
7.43387e-09
-5.50703e-10
9.33953e-11
7.80277e-09
-3.22671e-10
8.01935e-11
8.06031e-09
6.56102e-11
7.93232e-09
-4.65071e-10
1.77541e-11
4.62297e-09
-5.79602e-10
5.79719e-11
5.25965e-09
-6.64816e-10
8.74267e-11
5.83541e-09
-7.04179e-10
9.8312e-11
6.34293e-09
-6.76246e-10
9.24496e-11
6.7779e-09
-5.55741e-10
7.77735e-11
7.13391e-09
-3.18938e-10
6.11215e-11
7.37426e-09
4.32509e-11
7.23273e-09
-4.75227e-10
3.64861e-09
7.0341e-11
-5.70633e-10
4.28626e-09
5.44241e-11
-6.18742e-10
4.8666e-09
4.22396e-11
-6.21267e-10
5.38069e-09
3.17323e-11
-5.72597e-10
5.82021e-09
2.18203e-11
-4.57606e-10
6.17502e-09
1.1639e-11
-2.57351e-10
6.40473e-09
-5.16117e-13
6.23337e-09
-2.12173e-11
-3.1502e-10
-1.28533e-10
3.93944e-09
-1.02854e-10
-3.51237e-10
-2.05342e-10
4.64891e-09
-6.51898e-11
-4.41318e-10
-2.05651e-10
5.24418e-09
-3.08672e-11
-5.58296e-10
-1.73858e-10
5.71833e-09
-7.88471e-12
-6.29288e-10
-1.50924e-10
6.0735e-09
7.36567e-12
-5.83021e-10
-1.46921e-10
6.30527e-09
2.0617e-11
-3.87417e-10
-1.56309e-10
6.39021e-09
3.79306e-11
-1.66028e-10
5.99734e-09
6.56819e-11
-4.35739e-10
-1.92164e-10
4.88929e-09
-6.1794e-10
-2.82477e-10
5.56423e-09
-7.92973e-10
-2.8524e-10
6.12289e-09
-9.16544e-10
-2.46001e-10
6.56669e-09
-9.45921e-10
-2.0842e-10
6.89542e-09
-8.36196e-10
-1.87869e-10
7.10091e-09
-5.59399e-10
-1.78756e-10
7.15722e-09
-1.59384e-10
6.69963e-09
-4.71955e-10
-1.28562e-10
5.42996e-09
-7.50057e-10
-1.80133e-10
6.07675e-09
-9.87432e-10
-1.81362e-10
6.61522e-09
-1.13047e-09
-1.57953e-10
7.04916e-09
-1.1445e-09
-1.32127e-10
7.37657e-09
-9.97541e-10
-1.12289e-10
7.5857e-09
-6.66767e-10
-9.58998e-11
7.6491e-09
-7.09447e-11
7.17099e-09
-5.12453e-10
1.94153e-11
5.59238e-09
-8.20621e-10
1.50123e-11
6.22639e-09
-1.0732e-09
1.21752e-12
6.75828e-09
-1.21671e-09
-8.87965e-12
7.19248e-09
-1.21979e-09
-9.58082e-12
7.52623e-09
-1.05346e-09
-2.16343e-12
7.74579e-09
-6.99978e-10
9.00891e-12
7.82479e-09
2.67381e-11
7.35826e-09
-5.42632e-10
1.36047e-10
5.38801e-09
-8.17819e-10
1.55378e-10
6.02453e-09
-1.04879e-09
1.26753e-10
6.55715e-09
-1.18279e-09
8.75651e-11
6.98936e-09
-1.18406e-09
6.54336e-11
7.31898e-09
-1.01976e-09
6.24531e-11
7.53373e-09
-6.7405e-10
6.71403e-11
7.61079e-09
7.74476e-11
7.16403e-09
-5.18168e-10
1.25031e-10
4.81252e-09
-7.07503e-10
1.40674e-10
5.46664e-09
-8.83322e-10
1.11791e-10
6.00993e-09
-9.99675e-10
7.13702e-11
6.44417e-09
-1.01121e-09
4.9677e-11
6.76829e-09
-8.76239e-10
4.8715e-11
6.97318e-09
-5.78771e-10
5.49369e-11
7.03979e-09
6.27373e-11
6.6169e-09
-3.99967e-10
3.85917e-09
-4.23449e-11
-4.7316e-10
4.5401e-09
-3.80064e-11
-5.85639e-10
5.10697e-09
-3.22725e-11
-6.94057e-10
5.56066e-09
-2.81309e-11
-7.34124e-10
5.90306e-09
-2.51886e-11
-6.49702e-10
6.12626e-09
-2.22667e-11
-4.27669e-10
6.20955e-09
-1.76536e-11
5.82814e-09
-8.75511e-12
5.71586e-10
-6.73587e-11
-7.91706e-11
3.98135e-09
4.12898e-10
-7.48847e-12
-8.28682e-11
4.72721e-09
2.89594e-10
-5.61677e-12
-7.49129e-11
5.32969e-09
2.41285e-10
-5.95464e-11
-6.02926e-11
5.8106e-09
2.60256e-10
-1.3165e-10
-2.93699e-11
6.17201e-09
3.07265e-10
-2.01751e-10
1.07397e-11
6.41581e-09
3.20658e-10
-2.65416e-10
5.99149e-11
6.53592e-09
-3.35353e-10
1.17773e-10
6.47796e-09
5.48031e-10
-1.2218e-10
4.83111e-09
5.05851e-10
-7.96608e-11
5.55039e-09
4.71755e-10
-7.82371e-11
6.1197e-09
4.71605e-10
-1.26948e-10
6.55199e-09
5.02904e-10
-1.92624e-10
6.86114e-09
5.2692e-10
-2.46938e-10
7.0613e-09
4.71661e-10
-2.77249e-10
7.15579e-09
-2.84781e-10
7.10232e-09
4.31148e-10
-5.40091e-11
5.28612e-09
4.10386e-10
-5.80701e-11
5.95244e-09
4.3361e-10
-6.90662e-11
6.48296e-09
4.85804e-10
-9.51964e-11
6.89336e-09
5.43273e-10
-1.25686e-10
7.19765e-09
5.67668e-10
-1.48516e-10
7.40972e-09
4.94959e-10
-1.54114e-10
7.5292e-09
-1.36827e-10
7.5192e-09
3.45864e-10
1.05346e-10
5.39759e-09
3.38538e-10
4.46806e-11
6.03366e-09
3.80483e-10
1.00579e-11
6.55119e-09
4.43557e-10
1.77856e-12
6.96364e-09
4.99928e-10
2.48732e-12
7.28336e-09
5.16944e-10
6.53755e-14
7.52141e-09
4.53807e-10
-5.69609e-12
7.67022e-09
-9.07603e-12
7.69329e-09
3.77537e-10
2.1666e-10
5.20349e-09
3.77861e-10
1.19052e-10
5.84647e-09
4.12497e-10
7.11158e-11
6.36676e-09
4.63894e-10
7.96183e-11
6.78069e-09
5.10374e-10
1.02875e-10
7.10122e-09
5.18441e-10
1.13378e-10
7.3388e-09
4.51243e-10
1.04837e-10
7.48633e-09
8.85653e-11
7.51328e-09
4.27094e-10
1.93453e-10
4.70486e-09
4.00982e-10
1.01659e-10
5.37935e-09
4.0022e-10
6.82662e-11
5.91484e-09
4.32104e-10
8.34481e-11
6.3341e-09
4.7602e-10
1.10212e-10
6.65184e-09
4.9218e-10
1.22099e-10
6.87798e-09
4.34468e-10
1.17347e-10
7.00757e-09
1.19397e-10
7.01534e-09
4.55156e-10
5.69836e-11
3.8469e-09
3.48939e-10
4.87225e-11
4.54676e-09
2.79588e-10
3.07503e-11
5.10713e-09
2.77198e-10
1.53783e-11
5.55823e-09
3.19186e-10
4.50604e-12
5.90729e-09
3.51347e-10
-3.27465e-12
6.15631e-09
3.23168e-10
-1.07798e-11
6.29684e-09
-1.65143e-11
6.29732e-09
3.65224e-10
-2.69831e-11
3.6419e-09
-4.76273e-11
5.53547e-10
-7.15503e-11
4.30035e-09
-3.17971e-11
7.27609e-10
-7.9818e-11
4.91156e-09
-1.33558e-11
8.47434e-10
-6.82746e-11
5.46774e-09
2.34759e-12
8.80565e-10
-4.88053e-11
5.96142e-09
1.97214e-11
7.94638e-10
-2.7073e-11
6.37696e-09
3.44924e-11
5.37581e-10
-6.94792e-12
6.66259e-09
4.96097e-11
1.465e-11
6.48497e-09
6.45609e-11
3.67001e-10
-4.33857e-11
4.6034e-09
4.9843e-10
-8.66905e-11
5.26227e-09
6.19234e-10
-9.17937e-11
5.8787e-09
7.06423e-10
-7.54226e-11
6.4453e-09
7.33547e-10
-5.01453e-11
6.95353e-09
6.67099e-10
-2.39209e-11
7.38576e-09
4.54329e-10
1.74332e-13
7.68645e-09
2.07779e-11
7.50821e-09
3.90964e-10
-2.64344e-11
5.20961e-09
4.82883e-10
-4.46589e-11
5.87987e-09
5.6678e-10
-4.66363e-11
6.51203e-09
6.30601e-10
-3.94215e-11
7.09934e-09
6.51613e-10
-2.87673e-11
7.63175e-09
5.95224e-10
-1.86329e-11
8.08822e-09
4.09389e-10
-1.12174e-11
8.40696e-09
-7.91034e-12
8.21934e-09
4.00572e-10
1.04863e-11
5.41648e-09
4.79416e-10
2.32288e-11
6.09252e-09
5.53002e-10
1.95785e-11
6.73163e-09
6.13261e-10
8.77549e-12
7.32697e-09
6.37375e-10
-3.80824e-12
7.86768e-09
5.88165e-10
-1.58245e-11
8.33094e-09
4.09139e-10
-2.6876e-11
8.6518e-09
-3.75937e-11
8.45143e-09
3.69972e-10
4.56528e-11
5.20895e-09
4.60518e-10
7.87431e-11
5.87862e-09
5.46457e-10
7.08363e-11
6.50826e-09
6.15858e-10
4.43767e-11
7.09114e-09
6.45398e-10
1.26525e-11
7.61734e-09
5.98659e-10
-1.83346e-11
8.06588e-09
4.18681e-10
-4.60163e-11
8.37461e-09
-7.06442e-11
8.1744e-09
3.14745e-10
5.10477e-11
4.6044e-09
4.42299e-10
8.44286e-11
5.26263e-09
5.67143e-10
7.3055e-11
5.87521e-09
6.61555e-10
4.62821e-11
6.43489e-09
7.00085e-10
1.38228e-11
6.93329e-09
6.47396e-10
-1.79707e-11
7.35268e-09
4.49839e-10
-4.81727e-11
7.63649e-09
-7.41162e-11
7.43495e-09
2.91544e-10
3.64774e-09
-9.63924e-12
4.84424e-10
4.30581e-09
-7.55966e-12
6.58533e-10
4.91352e-09
-6.13006e-12
7.79242e-10
5.46287e-09
-5.57667e-12
8.1857e-10
5.94609e-09
-5.45802e-12
7.44212e-10
6.34681e-09
-5.26877e-12
5.03897e-10
6.61048e-09
-4.25307e-12
6.39682e-09
-9.36585e-13
2.60958e-10
5.54004e-11
3.57365e-09
-8.30937e-11
3.25143e-10
1.67999e-11
4.22594e-09
-5.12118e-11
3.84517e-10
-3.06291e-12
4.83652e-09
-2.15003e-11
4.26199e-10
-1.33407e-11
5.39966e-09
-1.00915e-13
4.34351e-10
-2.2366e-11
5.91476e-09
2.19926e-11
3.92341e-10
-3.35194e-11
6.37489e-09
4.05478e-11
2.66692e-10
-4.85278e-11
6.74062e-09
6.09823e-11
-6.86833e-11
6.7046e-09
8.4916e-11
2.67072e-10
3.02664e-11
4.5156e-09
3.31858e-10
2.04472e-12
5.16373e-09
3.93017e-10
-9.53595e-12
5.77852e-09
4.3994e-10
-1.41334e-11
6.35527e-09
4.56896e-10
-2.01983e-11
6.89222e-09
4.18964e-10
-3.06385e-11
7.38047e-09
2.85424e-10
-4.60092e-11
7.7784e-09
-6.60504e-11
7.76885e-09
2.6525e-10
2.14027e-11
5.10604e-09
3.29723e-10
8.24581e-12
5.76366e-09
3.93421e-10
-1.35834e-13
6.39462e-09
4.47225e-10
-6.41609e-12
6.99456e-09
4.725e-10
-1.5066e-11
7.55969e-09
4.39166e-10
-2.66746e-11
8.07785e-09
3.00912e-10
-4.1196e-11
8.50208e-09
-5.82131e-11
8.4935e-09
2.46805e-10
2.50336e-11
5.30378e-09
3.11004e-10
2.6959e-11
5.96545e-09
3.78597e-10
1.71818e-11
6.60296e-09
4.40634e-10
4.31204e-12
7.21168e-09
4.74892e-10
-8.80049e-12
7.78672e-09
4.48302e-10
-2.17148e-11
8.31451e-09
3.11511e-10
-3.49278e-11
8.74593e-09
-4.83059e-11
8.73491e-09
2.02201e-10
3.78819e-11
5.09508e-09
2.68664e-10
4.91169e-11
5.74894e-09
3.42816e-10
3.46157e-11
6.37565e-09
4.12741e-10
1.48393e-11
6.97097e-09
4.55955e-10
-3.21392e-12
7.53138e-09
4.39834e-10
-1.9515e-11
8.04532e-09
3.13093e-10
-3.35395e-11
8.46709e-09
-4.28414e-11
8.46505e-09
1.49334e-10
4.82306e-11
4.49753e-09
2.23325e-10
6.11025e-11
5.13928e-09
3.06073e-10
4.50822e-11
5.74713e-09
3.80077e-10
2.54213e-11
6.31675e-09
4.24667e-10
7.22992e-12
6.84652e-09
4.10843e-10
-1.09254e-11
7.32792e-09
2.93322e-10
-3.00097e-11
7.72107e-09
-4.83735e-11
7.71871e-09
1.32532e-10
3.55653e-09
2.69629e-11
2.32412e-10
4.20113e-09
2.91501e-11
3.25226e-10
4.80317e-09
2.86804e-11
3.97383e-10
5.3579e-09
2.58466e-11
4.34395e-10
5.86554e-09
2.02484e-11
4.11436e-10
6.31878e-09
1.12254e-11
2.87398e-10
6.67877e-09
-2.5548e-12
6.64521e-09
-2.39811e-11
-5.56719e-11
7.11215e-11
3.5641e-09
3.18064e-11
-1.91159e-10
1.04079e-10
4.19991e-09
2.82328e-11
-2.95818e-10
8.64032e-11
4.79263e-09
2.3925e-11
-3.40752e-10
4.3639e-11
5.34466e-09
2.17516e-11
-3.257e-10
-2.78064e-12
5.85414e-09
2.17416e-11
-2.61224e-10
-4.30526e-11
6.31129e-09
2.20451e-11
-1.57462e-10
-7.55218e-11
6.67485e-09
1.96205e-11
-1.06129e-10
6.63006e-09
9.36268e-12
2.53159e-13
6.51944e-11
4.51451e-09
-3.81818e-11
1.11457e-10
5.15802e-09
-6.48917e-11
9.40618e-11
5.76236e-09
-7.1867e-11
4.6671e-11
6.32941e-09
-5.74964e-11
-6.32658e-12
6.85774e-09
-2.83294e-11
-5.26214e-11
7.34125e-09
-2.01065e-12
-8.84222e-11
7.74605e-09
-1.19032e-10
7.76977e-09
-1.21905e-11
1.16898e-11
5.12039e-09
2.58166e-11
3.5089e-11
5.77934e-09
6.05284e-11
2.64652e-11
6.40119e-09