/*--------------------------------*- C++ -*----------------------------------*\
| =========                 |                                                 |
| \\      /  F ield         | OpenFOAM: The Open Source CFD Toolbox           |
|  \\    /   O peration     | Version:  plus.master.MPPICInterFoam            |
|   \\  /    A nd           | Web:      www.OpenFOAM.com                      |
|    \\/     M anipulation  |                                                 |
\*---------------------------------------------------------------------------*/
FoamFile
{
    version     2.0;
    format      ascii;
    class       surfaceScalarField;
    location    "1";
    object      phi;
}
// * * * * * * * * * * * * * * * * * * * * * * * * * * * * * * * * * * * * * //

dimensions      [0 3 -1 0 0 0 0];

internalField   nonuniform List<scalar> 
34319
(
-8.02875e-11
-6.31575e-11
5.93619e-09
1.60457e-10
1.39991e-10
-4.25696e-11
-1.01582e-10
5.97347e-09
1.99112e-10
-1.82803e-11
-1.616e-10
5.992e-09
2.73357e-10
-1.27193e-12
-1.92355e-10
5.99769e-09
3.10717e-10
1.50985e-11
-1.81074e-10
5.98965e-09
2.95399e-10
3.77607e-11
-1.39822e-10
5.96682e-09
2.38887e-10
-1.15193e-10
5.92241e-09
8.44898e-11
1.89681e-10
-1.19297e-10
-2.70762e-11
5.97525e-09
2.19169e-10
-6.50443e-11
-4.7429e-11
6.00852e-09
-2.898e-11
-8.38604e-11
6.02543e-09
-5.65541e-12
-1.04186e-10
6.02963e-09
1.89179e-11
-9.97778e-11
6.0208e-09
5.88835e-11
-7.84366e-11
5.99814e-09
-7.12255e-11
5.95766e-09
1.23442e-10
-1.76242e-10
-1.72777e-12
5.99638e-09
2.8751e-10
-1.0018e-10
-9.82243e-12
6.02758e-09
-4.3205e-11
-2.49002e-11
6.04346e-09
-5.86578e-13
-3.58323e-11
6.04644e-09
4.56488e-11
-3.90566e-11
6.0365e-09
1.10796e-10
-3.69811e-11
6.01326e-09
-4.19579e-11
5.97448e-09
1.95538e-10
-2.0347e-10
1.70009e-11
6.00383e-09
3.19653e-10
-1.18331e-10
1.43447e-11
6.03338e-09
-5.13395e-11
1.84535e-11
6.0481e-09
1.7902e-12
1.70413e-11
6.05019e-09
6.02351e-11
6.80525e-12
6.03977e-09
1.39562e-10
-9.20477e-12
6.01658e-09
-2.2236e-11
5.9789e-09
2.36043e-10
-1.91939e-10
3.3043e-11
5.99684e-09
3.03929e-10
-1.12213e-10
3.66312e-11
6.02566e-09
-5.09908e-11
6.31412e-11
6.03938e-09
-3.20095e-12
7.353e-11
6.04103e-09
5.09336e-11
5.72008e-11
6.03081e-09
1.27187e-10
2.22093e-11
6.00834e-09
-2.41363e-12
5.9711e-09
2.23562e-10
-1.55755e-10
4.65355e-11
5.97407e-09
2.59948e-10
-9.07077e-11
6.91014e-11
6.00349e-09
-4.586e-11
1.24693e-10
6.01684e-09
-1.41485e-11
1.49314e-10
6.01864e-09
2.30121e-11
1.27532e-10
6.00921e-09
8.12399e-11
7.13062e-11
5.98796e-09
2.51438e-11
5.95064e-09
1.6596e-10
-1.31063e-10
5.93019e-09
2.14439e-10
7.86534e-11
-7.96432e-11
5.96351e-09
1.2467e-10
-4.78442e-11
5.97823e-09
2.08276e-10
-2.36534e-11
5.98124e-09
2.42105e-10
3.68046e-12
5.97247e-09
2.15824e-10
4.07165e-11
5.95151e-09
1.44622e-10
5.91169e-09
1.02275e-10
7.49776e-11
-4.19447e-11
-8.78711e-11
5.81414e-09
9.40552e-11
1.5341e-10
-2.81705e-11
-1.12688e-10
5.86044e-09
1.66569e-10
-1.59351e-11
-1.49576e-10
5.88187e-09
2.10904e-10
-1.3187e-11
-1.77453e-10
5.89156e-09
2.42993e-10
-1.70295e-11
-1.88316e-10
5.88853e-09
2.54208e-10
-2.79215e-11
-1.8396e-10
5.87179e-09
2.49742e-10
-1.72708e-10
5.83182e-09
-3.96168e-11
2.34585e-10
-7.13034e-11
-6.40292e-11
5.86224e-09
1.15108e-10
-5.73374e-11
-8.69528e-11
5.90261e-09
-4.33747e-11
-1.1734e-10
5.9245e-09
-3.91941e-11
-1.40892e-10
5.93297e-09
-3.98632e-11
-1.51849e-10
5.9283e-09
-4.15178e-11
-1.50877e-10
5.91035e-09
-1.46475e-10
5.87261e-09
-3.86298e-11
-1.15794e-10
-4.02961e-11
5.88651e-09
1.65725e-10
-9.54269e-11
-6.11185e-11
5.92665e-09
-7.37265e-11
-8.43486e-11
5.94879e-09
-6.01158e-11
-1.03382e-10
5.95634e-09
-4.76918e-11
-1.15617e-10
5.94987e-09
-2.92996e-11
-1.21038e-10
5.92891e-09
-1.25529e-10
5.88894e-09
-2.16072e-12
-1.50548e-10
-2.75873e-11
5.89826e-09
2.0525e-10
-1.25265e-10
-4.66381e-11
5.93691e-09
-9.779e-11
-6.12199e-11
5.9583e-09
-7.7241e-11
-7.48941e-11
5.96454e-09
-5.50859e-11
-8.89535e-11
5.95634e-09
-2.31954e-11
-1.02504e-10
5.93338e-09
-1.15495e-10
5.89237e-09
1.8685e-11
-1.67518e-10
-2.28699e-11
5.89654e-09
2.22811e-10
-1.40389e-10
-3.95904e-11
5.9337e-09
-1.11944e-10
-4.16413e-11
5.95315e-09
-9.09497e-11
-4.73192e-11
5.95773e-09
-6.73658e-11
-6.24655e-11
5.94839e-09
-3.26679e-11
-8.47463e-11
5.92484e-09
-1.06842e-10
5.88358e-09
1.34793e-11
-1.68667e-10
-3.03406e-11
5.87988e-09
2.28754e-10
-1.41034e-10
-3.66528e-11
5.91633e-09
-1.15958e-10
-1.81006e-11
5.93258e-09
-1.00615e-10
-1.19706e-11
5.93529e-09
-8.30469e-11
-2.7387e-11
5.92548e-09
-5.43367e-11
-5.91287e-11
5.90271e-09
-9.47923e-11
5.86196e-09
-1.02924e-11
-1.58511e-10
5.83967e-09
2.12646e-10
-3.47853e-11
-1.333e-10
5.87809e-09
-3.16622e-11
-1.15402e-10
5.893e-09
1.23045e-11
-1.06627e-10
5.89469e-09
3.09334e-11
-9.5874e-11
5.88497e-09
1.59665e-11
-7.76694e-11
5.86289e-09
-2.17602e-11
5.82142e-09
-4.22254e-11
-7.37236e-11
3.6077e-13
-3.77959e-11
5.76232e-09
-4.64647e-12
8.75667e-11
1.48436e-12
-2.2589e-11
5.82444e-09
6.55699e-12
1.03336e-11
1.83924e-11
5.87164e-09
-4.23682e-11
1.57865e-11
2.52904e-11
5.8922e-09
-5.17642e-11
1.95792e-11
-8.10389e-13
5.88479e-09
-1.6391e-11
2.79041e-11
-5.61354e-11
5.8505e-09
5.4836e-11
-7.37116e-11
5.79539e-09
2.3449e-12
1.20221e-10
9.64983e-12
-1.06395e-11
5.82785e-09
-5.37874e-11
-1.30324e-11
-1.6588e-11
5.87755e-09
-9.015e-12
-6.35653e-13
5.91392e-09
-9.09241e-13
-9.6093e-13
5.93019e-09
6.32954e-12
-2.14034e-11
5.9246e-09
-3.84032e-12
-5.1595e-11
5.89718e-09
-5.75011e-11
5.85193e-09
-3.16998e-11
2.75079e-11
2.05325e-11
5.8779e-09
-7.45059e-11
-1.10519e-11
7.39761e-12
5.91762e-09
-2.39242e-11
3.04426e-12
5.94724e-09
-2.66218e-11
-5.43383e-12
5.95989e-09
-3.30747e-11
-1.84016e-11
5.95365e-09
-5.35115e-11
-3.17918e-11
5.9292e-09
-3.27038e-11
5.89033e-09
-8.47354e-11
2.10741e-11
4.52547e-11
5.9008e-09
-6.65657e-11
-2.20659e-11
3.44322e-11
5.9371e-09
-4.14039e-11
1.51606e-11
5.96327e-09
-5.01012e-11
-6.02852e-13
5.97291e-09
-6.27558e-11
-7.55473e-12
5.96438e-09
-8.83182e-11
-9.00333e-12
5.93891e-09
-1.47268e-11
5.90102e-09
-1.17325e-10
-1.25659e-11
6.95298e-11
5.89487e-09
-2.27503e-11
-4.84923e-11
5.89671e-11
5.93373e-09
-6.00028e-11
2.17028e-11
5.95982e-09
-6.35434e-11
-9.69397e-13
5.96717e-09
-7.14793e-11
-2.48923e-12
5.95482e-09
-9.25485e-11
9.96801e-12
5.92473e-09
5.28014e-12
5.88257e-09
-1.18914e-10
-6.44202e-11
9.77521e-11
5.86175e-09
4.54272e-11
-7.9497e-11
6.65892e-11
5.90784e-09
-7.40739e-11
1.04964e-11
5.93726e-09
-6.74134e-11
-1.55384e-11
5.94324e-09
-6.39991e-11
-1.00822e-11
5.92619e-09
-7.15145e-11
2.25697e-11
5.88845e-09
3.80324e-11
5.83715e-09
-9.28328e-11
-7.29202e-11
5.80746e-09
6.69484e-11
1.23978e-10
-7.29845e-11
5.8644e-09
4.59105e-11
-7.1729e-11
5.89901e-09
-4.83939e-12
-7.05017e-11
5.90558e-09
-3.43922e-11
-6.83405e-11
5.8836e-09
-2.04232e-11
-6.0711e-11
5.83693e-09
2.845e-11
5.77453e-09
-6.18837e-11
6.88766e-11
8.3705e-11
6.31685e-11
5.88576e-09
-1.74883e-10
-1.03425e-10
4.70494e-11
1.00187e-10
5.94211e-09
-1.70052e-10
2.45067e-11
1.48047e-10
5.98727e-09
-2.28194e-10
4.31992e-12
1.79571e-10
6.01194e-09
-2.63582e-10
-1.55111e-11
1.9572e-10
6.01508e-09
-2.91159e-10
-3.32132e-11
1.9785e-10
5.99359e-09
-3.10815e-10
1.94449e-10
5.95067e-09
-7.1367e-11
-3.0211e-10
1.15047e-10
6.36408e-11
5.94474e-09
-2.19766e-10
6.09899e-11
7.90395e-11
5.98261e-09
2.70029e-11
1.06751e-10
6.01345e-09
3.26582e-12
1.24771e-10
6.03138e-09
-2.13525e-11
1.30292e-10
6.03476e-09
-5.68924e-11
1.26113e-10
6.02149e-09
1.27288e-10
5.99433e-09
-1.20834e-10
1.46245e-10
5.97086e-11
5.99175e-09
-2.46322e-10
7.90009e-11
6.58416e-11
6.01673e-09
2.81113e-11
7.56771e-11
6.0369e-09
-1.09311e-11
7.88254e-11
6.04867e-09
-5.17842e-11
7.49137e-11
6.05068e-09
-1.06226e-10
6.72865e-11
6.0421e-09
6.87188e-11
6.02506e-09
-1.76924e-10
1.65882e-10
5.33051e-11
6.02213e-09
-2.70521e-10
8.75716e-11
5.86599e-11
6.04065e-09
2.2057e-11
5.32859e-11
6.0544e-09
-3.15337e-11
4.21703e-11
6.06091e-09
-8.61848e-11
2.88849e-11
6.05949e-09
-1.52319e-10
1.6873e-11
6.05009e-09
1.09578e-11
6.03402e-09
-2.24894e-10
1.75636e-10
4.79485e-11
6.0325e-09
-2.9657e-10
8.54951e-11
4.80928e-11
6.05144e-09
9.69386e-12
2.58099e-11
6.06364e-09
-5.41239e-11
1.74014e-12
6.06647e-09
-1.17761e-10
-2.09952e-11
6.06028e-09
-1.9345e-10
-3.47089e-11
6.04585e-09
-4.32444e-11
6.02411e-09
-2.78843e-10
1.72536e-10
4.09512e-11
6.01871e-09
-3.12283e-10
7.48131e-11
2.15514e-11
6.04622e-09
-5.664e-12
-1.88458e-11
6.06287e-09
-7.26988e-11
-5.6193e-11
6.06463e-09
-1.40405e-10
-8.51946e-11
6.0533e-09
-2.22076e-10
-9.55353e-11
6.03057e-09
-8.93784e-11
5.99785e-09
-3.30152e-10
1.65573e-10
5.9847e-09
-2.91876e-10
-3.31081e-12
7.21329e-11
6.02721e-09
-3.61997e-11
-8.63956e-12
6.05324e-09
-8.29926e-11
-8.22733e-11
6.05539e-09
-1.25507e-10
-1.49969e-10
6.03813e-09
-1.64972e-10
-2.21823e-10
6.00321e-09
-1.79438e-10
5.95142e-09
-3.2909e-10
-1.46931e-10
2.08093e-10
3.11413e-10
6.19217e-09
-3.36282e-10
-4.91695e-10
1.42542e-10
3.0928e-10
6.1576e-09
-4.15851e-10
1.00206e-10
2.50079e-10
6.13297e-09
-3.39444e-10
7.42628e-11
2.23654e-10
6.14705e-09
-3.19635e-10
2.07308e-11
2.38812e-10
6.20293e-09
-3.6288e-10
-1.0289e-10
2.78986e-10
6.29161e-09
-4.48649e-10
2.69623e-10
6.37958e-09
-2.80642e-10
-5.1213e-10
2.1862e-10
2.33341e-10
6.16447e-09
-3.1923e-10
1.47591e-10
2.3527e-10
6.15772e-09
8.93715e-11
1.94867e-10
6.14475e-09
3.84293e-11
1.67305e-10
6.15678e-09
-3.10831e-11
1.59515e-10
6.19841e-09
-1.31882e-10
1.62692e-10
6.25945e-09
1.29917e-10
6.31064e-09
-2.6705e-10
1.73649e-10
1.97987e-10
6.14915e-09
-2.76297e-10
1.08442e-10
1.83129e-10
6.15425e-09
5.74843e-11
1.51808e-10
6.1447e-09
1.16535e-11
1.18982e-10
6.15048e-09
-4.16427e-11
9.04262e-11
6.17636e-09
-1.11245e-10
6.36465e-11
6.21346e-09
2.04445e-11
6.23468e-09
-2.11786e-10
1.46203e-10
1.64681e-10
6.17789e-09
-2.55473e-10
7.4495e-11
1.29387e-10
6.18033e-09
1.93745e-11
1.04781e-10
6.16365e-09
-2.67531e-11
6.94821e-11
6.15722e-09
-7.19493e-11
2.63036e-11
6.1679e-09
-1.27436e-10
-1.76129e-11
6.18763e-09
-5.0613e-11
6.19229e-09
-2.17721e-10
1.54899e-10
8.9396e-11
6.25402e-09
-2.95205e-10
5.82568e-11
5.00943e-11
6.2391e-09
-1.6531e-11
4.2502e-11
6.20388e-09
-7.33302e-11
1.31658e-11
6.18057e-09
-1.20697e-10
-3.96093e-11
6.17846e-09
-1.76355e-10
-9.62179e-11
6.19033e-09
-1.186e-10
6.19305e-09
-2.70783e-10
1.84094e-10
-5.19888e-11
6.36165e-09
-3.85386e-10
5.16717e-11
-6.37638e-11
6.3147e-09
-4.85505e-11
-4.2813e-11
6.2516e-09
-1.14416e-10
-6.28764e-11
6.2099e-09
-1.67976e-10
-1.22884e-10
6.19962e-09
-2.31466e-10
-2.01974e-10
6.21378e-09
-2.39589e-10
6.22768e-09
-3.30866e-10
1.49786e-10
6.45775e-09
-3.82131e-10
-2.84292e-10
1.02025e-12
6.37099e-09
-2.15356e-10
-9.41035e-11
6.27701e-09
-1.72573e-10
-1.39805e-10
6.21915e-09
-1.81283e-10
-1.78189e-10
6.2066e-09
-2.47789e-10
-2.45021e-10
6.23238e-09
-3.61017e-10
6.26901e-09
-3.48567e-10
-4.52474e-10
-2.04128e-10
-1.08575e-10
3.27256e-10
2.64227e-10
5.91103e-09
-4.22563e-11
-6.29419e-11
1.2162e-10
5.79057e-09
1.6539e-10
-4.42326e-11
9.21506e-11
5.75761e-09
3.89625e-10
-6.25323e-11
9.00121e-11
5.80207e-09
5.86671e-10
-1.28337e-10
1.51737e-10
5.91153e-09
7.12049e-10
-2.45927e-10
2.67567e-10
6.06723e-09
-3.8037e-10
6.55769e-10
4.58837e-10
6.263e-09
-1.85456e-10
6.50844e-11
2.19974e-10
5.80368e-09
-7.03509e-11
5.87596e-11
5.73966e-09
1.30918e-10
5.50863e-11
5.72706e-09
3.52848e-10
2.13562e-11
5.76705e-09
5.35223e-10
-4.96001e-11
5.8492e-09
6.39879e-10
-1.60232e-10
5.95752e-09
-2.66749e-10
5.99674e-10
6.0772e-09
-1.77719e-10
3.00855e-10
2.0097e-10
5.79154e-09
-8.55467e-11
2.78355e-10
5.74798e-09
9.09566e-11
2.43439e-10
5.73501e-09
2.85255e-10
1.84862e-10
5.75558e-09
4.50007e-10
1.09544e-10
5.80543e-09
5.35143e-10
2.47493e-11
5.87431e-09
-5.27313e-11
5.09931e-10
5.94988e-09
-2.02837e-10
5.46398e-10
2.12664e-10
5.85458e-09
-1.34069e-10
5.02084e-10
5.80894e-09
2.70998e-11
4.30818e-10
5.77847e-09
2.1169e-10
3.56312e-10
5.77113e-09
3.7011e-10
2.91352e-10
5.78906e-09
4.55824e-10
2.41347e-10
5.82841e-09
1.98581e-10
4.35562e-10
5.87948e-09
-2.79079e-10
7.37055e-10
2.98406e-10
5.98532e-09
-2.19091e-10
6.66909e-10
5.91492e-09
-5.27713e-11
5.67336e-10
5.85368e-09
1.45083e-10
4.91022e-10
5.81339e-09
3.23645e-10
4.50043e-10
5.80274e-09
4.34614e-10
4.41844e-10
5.82399e-09
4.32922e-10
4.40535e-10
5.8709e-09
-3.94808e-10
8.35701e-10
4.03027e-10
6.17326e-09
-3.2226e-10
7.24102e-10
6.05269e-09
-1.33265e-10
6.17411e-10
5.94984e-09
9.61973e-11
5.47452e-10
5.87396e-09
3.10408e-10
5.34961e-10
5.84117e-09
4.55188e-10
5.68911e-10
5.8598e-09
6.07151e-10
4.69464e-10
5.92962e-09
-5.01587e-10
4.64664e-10
8.10361e-10
6.40144e-09
-4.06838e-10
6.41995e-10
6.20073e-09
-1.93769e-10
5.57183e-10
6.04909e-09
5.5969e-11
5.01487e-10
5.93816e-09
2.98923e-10
5.11438e-10
5.89463e-09
4.85885e-10
5.55324e-10
5.9346e-09
5.15565e-10
6.37654e-10
6.06335e-09
2.40381e-10
-1.09955e-10
3.60421e-09
3.57988e-11
4.38859e-10
-1.23683e-10
4.25478e-09
1.43345e-11
6.25421e-10
-1.06236e-10
4.85802e-09
3.32009e-12
7.60475e-10
-7.23562e-11
5.4062e-09
-5.27881e-12
8.13534e-10
-3.03538e-11
5.89169e-09
-1.43452e-11
7.5033e-10
1.35396e-11
6.29918e-09
-2.42205e-11
5.15428e-10
5.97935e-11
6.57768e-09
-3.49653e-11
1.06719e-10
6.39595e-09
-4.59709e-11
2.21964e-10
-1.07159e-10
4.54838e-09
3.47148e-10
-1.32968e-10
5.19577e-09
4.74917e-10
-1.25189e-10
5.79945e-09
5.79059e-10
-9.4896e-11
6.35244e-09
6.31531e-10
-5.40661e-11
6.84681e-09
5.95875e-10
-1.02749e-11
7.26632e-09
4.18822e-10
3.49393e-11
7.55871e-09
8.18707e-11
7.38544e-09
2.69842e-10
-6.79783e-11
5.14316e-09
3.52909e-10
-8.79544e-11
5.79909e-09
4.39062e-10
-8.77961e-11
6.41497e-09
5.14638e-10
-7.37168e-11
6.98485e-09
5.55423e-10
-5.19052e-11
7.49964e-09
5.25268e-10
-2.59922e-11
7.94015e-09
3.70788e-10
3.42328e-12
8.24864e-09
3.89729e-11
8.06705e-09
3.06586e-10
-1.95509e-11
5.34558e-09
3.73577e-10
-2.1643e-11
6.0066e-09
4.39988e-10
-2.61217e-11
6.62988e-09
4.97954e-10
-3.07203e-11
7.20961e-09
5.26753e-10
-3.23169e-11
7.7359e-09
4.92719e-10
-2.88569e-11
8.18796e-09
3.44889e-10
-1.88908e-11
8.50525e-09
1.17617e-12
8.31933e-09
2.98397e-10
1.96303e-11
5.14078e-09
3.70842e-10
3.36631e-11
5.79736e-09
4.38245e-10
2.85776e-11
6.41551e-09
4.92247e-10
1.18189e-11
6.98938e-09
5.14659e-10
-7.30889e-12
7.50989e-09
4.76196e-10
-2.33694e-11
7.95784e-09
3.30265e-10
-3.32205e-11
8.27541e-09
-3.51628e-11
8.10323e-09
2.53433e-10
3.04333e-11
4.54422e-09
3.52694e-10
4.73794e-11
5.19265e-09
4.46872e-10
4.31051e-11
5.7998e-09
5.18761e-10
2.61149e-11
6.35905e-09
5.48398e-10
4.78437e-12
6.86294e-09
5.07519e-10
-1.55611e-11
7.29575e-09
3.51957e-10
-3.30172e-11
7.60589e-09
-4.54245e-11
7.45702e-09
2.20369e-10
3.59897e-09
-1.29632e-11
3.65159e-10
4.25083e-09
-1.29356e-11
5.01035e-10
4.8576e-09
-1.24869e-11
6.00297e-10
5.41199e-09
-1.15717e-11
6.39041e-10
5.90764e-09
-9.9882e-12
5.88874e-10
6.33061e-09
-7.42999e-12
4.04147e-10
6.63215e-09
-3.29518e-12
6.48821e-09
3.77148e-12
2.5429e-11
-1.42897e-10
3.5406e-09
9.85606e-11
1.16759e-10
-1.21972e-10
4.1832e-09
6.11861e-11
2.03152e-10
-8.41625e-11
4.78464e-09
3.25332e-11
2.68219e-10
-4.53299e-11
5.33934e-09
8.42542e-12
3.03139e-10
-1.07278e-11
5.84643e-09
-1.65662e-11
2.91096e-10
1.91135e-11
6.29791e-09
-4.1333e-11
2.04593e-10
4.60047e-11
6.6528e-09
-6.79934e-11
7.07326e-11
6.60107e-09
-1.00025e-10
-4.57157e-12
-1.48516e-10
4.47244e-09
5.62275e-11
-1.39106e-10
5.10746e-09
1.30341e-10
-1.09883e-10
5.7073e-09
2.01469e-10
-7.52052e-11
6.26869e-09
2.51205e-10
-4.29971e-11
6.78875e-09
2.56147e-10
-1.52362e-11
7.25733e-09
1.83899e-10
9.35605e-12
7.6309e-09
3.2484e-11
7.58801e-09
2.57478e-11
-1.30566e-10
5.05823e-09
7.7185e-11
-1.33536e-10
5.70218e-09
1.46338e-10
-1.19488e-10
6.31558e-09
2.18131e-10
-9.68142e-11
6.89529e-09
2.70872e-10
-7.05055e-11
7.43634e-09
2.76265e-10
-4.20628e-11
7.92532e-09
1.97192e-10
-1.04506e-11
8.31282e-09
2.85013e-11
8.25221e-09
4.49098e-11
-1.06406e-10
5.25857e-09
8.83026e-11
-1.18323e-10
5.91012e-09
1.47906e-10
-1.19274e-10
6.53229e-09
2.1144e-10
-1.09281e-10
7.12137e-09
2.59013e-10
-8.92053e-11
7.67139e-09
2.63535e-10
-5.97341e-11
8.16736e-09
1.8862e-10
-1.97578e-11
8.55709e-09
3.81936e-11
8.48345e-09
3.22668e-11
-7.71077e-11
5.05823e-09
6.15478e-11
-9.28588e-11
5.70707e-09
1.01829e-10
-1.03061e-10
6.32377e-09
1.46488e-10
-1.03432e-10
6.90471e-09
1.82233e-10
-9.17834e-11
7.44463e-09
1.88585e-10
-6.80623e-11
7.92981e-09
1.36301e-10
-3.10403e-11
8.31005e-09
2.85422e-11
8.23634e-09
-5.08756e-12
-4.27582e-11
4.47144e-09
5.49213e-12
-5.51643e-11
5.11164e-09
2.22711e-11
-6.6412e-11
5.71426e-09
4.34826e-11
-7.25508e-11
6.27577e-09
6.36023e-11
-7.07537e-11
6.79237e-09
7.2041e-11
-6.0889e-11
7.25237e-09
5.27156e-11
-4.27091e-11
7.60967e-09
-8.13064e-12
7.53402e-09
-4.61931e-11
3.54106e-09
-1.50061e-11
-4.74716e-11
4.18327e-09
-1.77273e-11
-4.62374e-11
4.78136e-09
-2.16937e-11
-4.08306e-11
5.33127e-09
-2.67373e-11
-3.00753e-11
5.83063e-09
-3.25377e-11
-1.71669e-11
6.26884e-09
-3.86679e-11
-1.00497e-11
6.60078e-09
-4.45747e-11
6.50529e-09
-4.80503e-11
-1.17578e-10
6.80459e-11
3.53107e-09
3.77026e-11
-2.48286e-10
1.17868e-10
4.15773e-09
1.30636e-11
-3.46176e-10
1.24473e-10
4.74187e-09
-1.30371e-11
-3.83169e-10
1.02627e-10
5.28551e-09
-3.68044e-11
-3.60414e-10
6.92747e-11
5.78595e-09
-5.02248e-11
-2.87975e-10
3.502e-11
6.23197e-09
-5.60431e-11
-1.74989e-10
2.78492e-12
6.5794e-09
-5.66684e-11
-4.15444e-11
6.50535e-09
-4.92404e-11
-6.76963e-11
7.32414e-11
4.47462e-09
-9.67128e-11
1.21342e-10
5.10538e-09
-1.09585e-10
1.23501e-10
5.69734e-09
-1.01662e-10
9.40266e-11
6.25066e-09
-7.51781e-11
5.42208e-11
6.76276e-09
-3.84653e-11
1.73256e-11
7.22544e-09
-5.94265e-12
-1.31995e-11
7.60054e-09
-4.31424e-11
7.57607e-09
-6.5212e-11
2.21343e-11
5.07789e-09
-2.4452e-11
4.45219e-11
5.72457e-09
2.2757e-11
4.5239e-11
6.33287e-09
6.54953e-11
3.26721e-11
6.90219e-09
9.82565e-11
1.73449e-11
7.43073e-09
1.13947e-10
6.20854e-12
7.91108e-09
9.45527e-11
2.19054e-12
8.30496e-09
4.39549e-12
8.29252e-09
-8.27357e-11
-4.83922e-11
5.28467e-09
-2.2235e-11
-5.74541e-11
5.93976e-09
3.94006e-11
-5.08345e-11
6.55573e-09
8.79338e-11
-3.50605e-11
7.13212e-09
1.18822e-10
-1.65483e-11
7.66747e-09
1.27872e-10
2.70005e-12
8.15394e-09
1.00342e-10
2.42343e-11
8.55155e-09
5.05506e-11
8.53136e-09
-1.07037e-10
-8.95774e-11
5.07468e-09
-7.64056e-11
-1.1926e-10
5.72388e-09
-3.93285e-11
-1.09081e-10
6.33288e-09
-5.34188e-12
-7.44735e-11
6.90109e-09
2.27026e-11
-3.43955e-11
7.4266e-09
4.30499e-11
1.79897e-12
7.90113e-09
4.47847e-11
3.57696e-11
8.28438e-09
7.55583e-11
8.24924e-09
-1.36998e-10
-5.85685e-11
4.46846e-09
-1.75456e-10
-9.02891e-11
5.10203e-09
-1.96578e-10
-8.41988e-11
5.69419e-09
-1.95653e-10
-5.61739e-11
6.24408e-09
-1.71869e-10
-2.42762e-11
6.74822e-09
-1.27827e-10
2.22655e-12
7.19715e-09
-7.02117e-11
2.49661e-11
7.54986e-09
5.00397e-11
7.48144e-09
-1.81659e-10
3.5233e-09
5.6726e-11
-3.0377e-10
4.14789e-09
4.88921e-11
-3.90403e-10
4.72901e-09
3.96207e-11
-4.23092e-10
5.26745e-09
2.86084e-11
-4.00164e-10
5.75753e-09
1.63518e-11
-3.27736e-10
6.18562e-09
3.37778e-12
-2.03902e-10
6.50486e-09
-1.41789e-11
6.38216e-09
-3.66267e-11
-2.40708e-10
1.71434e-10
3.63562e-09
-9.4141e-11
-4.03581e-10
1.39769e-10
4.28028e-09
-8.44375e-11
-5.19705e-10
8.09744e-11
4.87228e-09
-7.301e-11
-5.78142e-10
2.30285e-11
5.40312e-09
-5.87998e-11
-5.73843e-10
-2.11784e-11
5.85974e-09
-4.27094e-11
-4.90056e-10
-5.27662e-11
6.22748e-09
-2.62359e-11
-3.00214e-10
-7.80204e-11
6.46409e-09
-8.39192e-12
-1.06743e-10
6.27604e-09
1.79918e-11
-2.20128e-10
1.5753e-10
4.60209e-09
-3.33971e-10
1.2666e-10
5.25623e-09
-4.43322e-10
6.42704e-11
5.84896e-09
-5.24615e-10
3.59262e-12
6.36982e-09
-5.50282e-10
-4.01208e-11
6.81311e-09
-4.89957e-10
-6.74915e-11
7.17219e-09
-3.09583e-10
-8.73877e-11
7.41173e-09
-1.08652e-10
7.25125e-09
-2.37037e-10
9.26271e-11
5.21612e-09
-3.28364e-10
8.56907e-11
5.87705e-09
-4.35497e-10
5.60305e-11
6.46782e-09
-5.25616e-10
2.37685e-11
6.98502e-09
-5.59589e-10
-1.52699e-12
7.42844e-09
-5.00059e-10
-1.84709e-11
7.79413e-09
-3.13082e-10
-3.2743e-11
8.04681e-09
-5.01755e-11
7.90494e-09
-2.83937e-10
2.76193e-11
5.42005e-09
-3.7595e-10
5.71202e-11
6.07747e-09
-4.84236e-10
7.12724e-11
6.66411e-09
-5.71332e-10
7.11186e-11
7.18015e-09
-5.96079e-10
6.24505e-11
7.62661e-09
-5.21197e-10
5.08776e-11
7.99918e-09
-3.17437e-10
3.81312e-11
8.26078e-09
1.98829e-11
8.12897e-09
-3.68226e-10
-5.7873e-13
5.20257e-09
-4.72684e-10
5.16406e-11
5.84797e-09
-5.75803e-10
9.12519e-11
6.42678e-09
-6.45202e-10
1.07695e-10
6.93701e-09
-6.45787e-10
1.0513e-10
7.37799e-09
-5.45938e-10
9.36419e-11
7.74456e-09
-3.20964e-10
8.07105e-11
7.99914e-09
6.60694e-11
7.86665e-09
-4.54665e-10
1.71567e-11
4.58751e-09
-5.67355e-10
5.8378e-11
5.21986e-09
-6.53175e-10
8.79556e-11
5.79155e-09
-6.94275e-10
9.87434e-11
6.2955e-09
-6.68594e-10
9.29186e-11
6.72758e-09
-5.508e-10
7.84096e-11
7.08102e-09
-3.16948e-10
6.19159e-11
7.31805e-09
4.39838e-11
7.17102e-09
-4.65685e-10
3.6216e-09
7.02616e-11
-5.57849e-10
4.255e-09
5.43988e-11
-6.06229e-10
4.83139e-09
4.21102e-11
-6.10913e-10
5.34182e-09
3.1565e-11
-5.64994e-10
5.77816e-09
2.16759e-11
-4.52892e-10
6.13003e-09
1.1548e-11
-2.55546e-10
6.35607e-09
-5.03899e-13
6.17866e-09
-2.09073e-11
-2.92613e-10
-1.33245e-10
3.90395e-09
-9.78014e-11
-3.28036e-10
-2.08962e-10
4.60887e-09
-6.19754e-11
-4.2159e-10
-2.09705e-10
5.20186e-09
-2.96733e-11
-5.40137e-10
-1.78025e-10
5.67591e-09
-7.43255e-12
-6.11987e-10
-1.54942e-10
6.03249e-09
8.42822e-12
-5.68012e-10
-1.50658e-10
6.26601e-09
2.13043e-11
-3.77719e-10
-1.59653e-10
6.35075e-09
3.80043e-11
-1.68558e-10
5.95737e-09
6.43282e-11
-4.14367e-10
-2.01168e-10
4.842e-09
-5.95569e-10
-2.89417e-10
5.51262e-09
-7.70817e-10
-2.90842e-10
6.06933e-09
-8.94761e-10
-2.5083e-10
6.51322e-09
-9.25481e-10
-2.12906e-10
6.84371e-09
-8.20145e-10
-1.92298e-10
7.05162e-09
-5.49979e-10
-1.83279e-10
7.10854e-09
-1.63966e-10
6.65238e-09
-4.47869e-10
-1.31036e-10
5.37508e-09
-7.23362e-10
-1.83067e-10
6.01763e-09
-9.60366e-10
-1.84996e-10
6.55414e-09
-1.10443e-09
-1.61855e-10
6.98808e-09
-1.1215e-09
-1.35993e-10
7.31713e-09
-9.81145e-10
-1.16121e-10
7.52872e-09
-6.59715e-10
-9.98802e-11
7.59282e-09
-7.51917e-11
7.11776e-09
-4.8836e-10
1.90135e-11
5.53469e-09
-7.9412e-10
1.37178e-11
6.1643e-09
-1.04481e-09
-9.75638e-13
6.69392e-09
-1.18785e-09
-1.13959e-11
7.12779e-09
-1.19369e-09
-1.20081e-11
7.46287e-09
-1.03509e-09
-4.4824e-12
7.68484e-09
-6.92684e-10
6.55455e-12
7.76469e-09
2.37851e-11
7.30244e-09
-5.19082e-10
1.38974e-10
5.33201e-09
-7.9244e-10
1.57134e-10
5.96429e-09
-1.02063e-09
1.28145e-10
6.4948e-09
-1.15232e-09
8.87698e-11
6.92677e-09
-1.15512e-09
6.63278e-11
7.25763e-09
-9.98648e-10
6.28248e-11
7.47468e-09
-6.64862e-10
6.67393e-11
7.55261e-09
7.58088e-11
7.11e-09
-4.94371e-10
1.27292e-10
4.76299e-09
-6.82136e-10
1.41568e-10
5.4131e-09
-8.5602e-10
1.12812e-10
5.95473e-09
-9.70479e-10
7.30142e-11
6.38892e-09
-9.83526e-10
5.14967e-11
6.71424e-09
-8.56322e-10
5.03665e-11
6.92098e-09
-5.70698e-10
5.6099e-11
6.98791e-09
6.29084e-11
6.56745e-09
-3.76198e-10
3.82114e-09
-4.2228e-11
-4.47377e-10
4.49745e-09
-3.89691e-11
-5.58797e-10
5.06224e-09
-3.34007e-11
-6.6663e-10
5.51563e-09
-2.90883e-11
-7.09406e-10
5.85886e-09
-2.5874e-11
-6.33082e-10
6.08333e-09
-2.26348e-11
-4.22212e-10
6.16635e-09
-1.76898e-11
5.78554e-09
-8.43716e-12
6.11723e-10
-7.69149e-11
-7.48753e-11
3.93788e-09
4.70972e-10
-1.7647e-11
-7.87174e-11
4.68184e-09
3.63275e-10
-1.59955e-11
-7.20379e-11
5.28766e-09
3.23221e-10
-6.86921e-11
-5.83751e-11
5.77529e-09
3.41457e-10
-1.40937e-10
-2.91418e-11
6.14682e-09
3.76071e-10
-2.10447e-10
9.67439e-12
6.40477e-09
3.62392e-10
-2.72955e-10
5.85086e-11
6.54433e-09
-3.41582e-10
1.16532e-10
6.51266e-09
5.88249e-10
-1.37049e-10
4.77324e-09
5.62647e-10
-9.09079e-11
5.49306e-09
5.44805e-10
-8.7067e-11
6.0668e-09
5.55784e-10
-1.34409e-10
6.50635e-09
5.88733e-10
-1.99821e-10
6.8264e-09
6.0313e-10
-2.54375e-10
7.0422e-09
5.22032e-10
-2.85212e-10
7.1581e-09
-2.92625e-10
7.13538e-09
4.78095e-10
-5.99819e-11
5.21607e-09
4.75432e-10
-6.35908e-11
5.88167e-09
5.14164e-10
-7.52151e-11
6.41495e-09
5.75456e-10
-1.01649e-10
6.83153e-09
6.32969e-10
-1.31987e-10
7.14669e-09
6.47221e-10
-1.5435e-10
7.3753e-09
5.50929e-10
-1.59676e-10
7.51899e-09
-1.41751e-10
7.54413e-09
3.94333e-10
9.89149e-11
5.32218e-09
4.04211e-10
3.97145e-11
5.95656e-09
4.61927e-10
6.18046e-12
6.47622e-09
5.3547e-10
-2.32335e-12
6.89461e-09
5.93211e-10
-9.04862e-13
7.22521e-09
6.01565e-10
-2.80199e-12
7.47998e-09
5.16961e-10
-8.15484e-12
7.65356e-09
-9.69502e-12
7.71333e-09
4.27633e-10
2.10984e-10
5.13225e-09
4.43585e-10
1.15751e-10
5.77425e-09
4.9326e-10
7.15452e-11
6.29718e-09
5.54873e-10
8.19356e-11
6.71729e-09
6.03629e-10
1.05864e-10
7.0485e-09
6.0461e-10
1.16366e-10
7.3021e-09
5.17387e-10
1.08126e-10
7.47332e-09
9.19755e-11
7.53503e-09
4.78866e-10
1.87318e-10
4.645e-09
4.69628e-10
9.73615e-11
5.31979e-09
4.80453e-10
6.71794e-11
5.85963e-09
5.18311e-10
8.54112e-11
6.28697e-09
5.61126e-10
1.13717e-10
6.61652e-09
5.69266e-10
1.26229e-10
6.85859e-09
4.93689e-10
1.21808e-10
7.01026e-09
1.23729e-10
7.04867e-09
5.06749e-10
6.02771e-11
3.80143e-09
4.19943e-10
4.98537e-11
4.49952e-09
3.61652e-10
3.08522e-11
5.0637e-09
3.63372e-10
1.50004e-11
5.5219e-09
4.01264e-10
4.19356e-12
5.88183e-09
4.23249e-10
-3.61162e-12
6.14581e-09
3.76112e-10
-1.08176e-11
6.30667e-09
-1.65875e-11
6.33379e-09
3.71567e-10
-2.53704e-11
3.6142e-09
-4.93458e-11
5.60685e-10
-6.99063e-11
4.26759e-09
-3.29392e-11
7.34195e-10
-7.87638e-11
4.87396e-09
-1.44538e-11
8.53798e-10
-6.76224e-11
5.42557e-09
1.24197e-12
8.86297e-10
-4.83454e-11
5.91494e-09
1.90271e-11
7.99105e-10
-2.66384e-11
6.32639e-09
3.41184e-11
5.40144e-10
-6.46924e-12
6.60806e-09
4.95866e-11
1.54739e-11
6.42605e-09
6.4964e-11
3.72463e-10
-4.24229e-11
4.56827e-09
5.05498e-10
-8.55115e-11
5.22212e-09
6.26808e-10
-9.08698e-11
5.83366e-09
7.13827e-10
-7.46781e-11
6.39558e-09
7.40048e-10
-4.94336e-11
6.8994e-09
6.72018e-10
-2.31091e-11
7.32749e-09
4.56873e-10
1.42318e-12
7.6243e-09
2.21389e-11
7.44201e-09
3.96229e-10
-2.464e-11
5.16977e-09
4.9003e-10
-4.31613e-11
5.83487e-09
5.74245e-10
-4.56582e-11
6.46194e-09
6.37437e-10
-3.87394e-11
7.04439e-09
6.57158e-10
-2.81677e-11
7.57224e-09
5.99059e-10
-1.79922e-11
8.02451e-09
4.11522e-10
-1.04758e-11
8.33947e-09
-7.05826e-12
8.14832e-09
4.0517e-10
1.11423e-11
5.37503e-09
4.85552e-10
2.38253e-11
6.04586e-09
5.59587e-10
1.99582e-11
6.67988e-09
6.19455e-10
8.90271e-12
7.27034e-09
6.42445e-10
-3.84482e-12
7.80643e-09
5.91696e-10
-1.59719e-11
8.26546e-09
4.11023e-10
-2.71377e-11
8.58258e-09
-3.79794e-11
8.37891e-09
3.74288e-10
4.55875e-11
5.16933e-09
4.65719e-10
7.88988e-11
5.83388e-09
5.52167e-10
7.15448e-11
6.45859e-09
6.21755e-10
4.5147e-11
7.03674e-09
6.50662e-10
1.31483e-11
7.55844e-09
6.02564e-10
-1.83096e-11
8.00278e-09
4.20793e-10
-4.65196e-11
8.30766e-09
-7.17162e-11
8.10375e-09
3.20052e-10
5.06431e-11
4.56973e-09
4.48373e-10
8.37298e-11
5.22294e-09
5.73129e-10
7.30222e-11
5.83074e-09
6.67503e-10
4.6675e-11
6.3859e-09
7.05528e-10
1.42361e-11
6.88003e-09
6.51554e-10
-1.78321e-11
7.29537e-09
4.51996e-10
-4.84811e-11
7.57528e-09
-7.50351e-11
7.36949e-09
2.98233e-10
3.6205e-09
-8.6555e-12
4.91483e-10
4.27362e-09
-7.22634e-12
6.65207e-10
4.87658e-09
-6.07871e-12
7.85592e-10
5.42142e-09
-5.56188e-12
8.24266e-10
5.90042e-09
-5.43081e-12
7.48648e-10
6.29714e-09
-5.23837e-12
5.06416e-10
6.5569e-09
-4.23846e-12
6.33875e-09
-9.73528e-13
2.68483e-10
5.60081e-11
3.54702e-09
-8.38207e-11
3.33194e-10
1.85222e-11
4.19425e-09
-5.23159e-11
3.92179e-10
-1.79664e-12
4.80011e-09
-2.25371e-11
4.33198e-10
-1.24319e-11
5.35909e-09
-1.01569e-12
4.40445e-10
-2.18107e-11
5.87054e-09
2.13979e-11
3.9707e-10
-3.31467e-11
6.32732e-09
4.03356e-11
2.69453e-10
-4.81646e-11
6.68967e-09
6.11665e-11
-6.81451e-11
6.6496e-09
8.55209e-11
2.75559e-10
3.08852e-11
4.48179e-09
3.41207e-10
3.02177e-12
5.12488e-09
4.02314e-10
-8.67998e-12
5.73503e-09
4.48671e-10
-1.35326e-11
6.30768e-09
4.64487e-10
-1.96732e-11
6.84102e-09
4.24798e-10
-3.00251e-11
7.32599e-09
2.8899e-10
-4.51951e-11
7.72071e-09
-6.493e-11
7.70765e-09
2.73211e-10
2.25354e-11
5.06793e-09
3.38546e-10
9.4273e-12
5.72041e-09
4.02693e-10
7.16307e-13
6.34665e-09
4.56025e-10
-5.60081e-12
6.94237e-09
4.8018e-10
-1.4305e-11
7.50377e-09
4.45156e-10
-2.58898e-11
8.0186e-09
3.04829e-10
-4.03578e-11
8.43978e-09
-5.73249e-11
8.42831e-09
2.54176e-10
2.59209e-11
5.26399e-09
3.19363e-10
2.75989e-11
5.92061e-09
3.87279e-10
1.78744e-11
6.55342e-09
4.49023e-10
5.00842e-12
7.15794e-09
4.82327e-10
-8.174e-12
7.7292e-09
4.54176e-10
-2.12173e-11
8.25362e-09
3.15376e-10
-3.46099e-11
8.68202e-09
-4.82256e-11
8.66843e-09
2.09292e-10
3.82449e-11
5.05678e-09
2.7652e-10
4.89492e-11
5.70575e-09
3.50944e-10
3.49935e-11
6.32801e-09
4.20671e-10
1.56208e-11
6.91936e-09
4.63067e-10
-2.36791e-12
7.47614e-09
4.45417e-10
-1.8887e-11
7.98672e-09
3.16493e-10
-3.32966e-11
8.40536e-09
-4.31721e-11
8.40038e-09
1.56798e-10
4.80506e-11
4.4637e-09
2.31699e-10
5.99169e-11
5.1006e-09
3.14535e-10
4.42994e-11
5.70407e-09
3.88198e-10
2.51318e-11
6.26985e-09
4.3194e-10
7.21899e-12
6.79615e-09
4.16575e-10
-1.08916e-11
7.2743e-09
2.96791e-10
-3.00726e-11
7.66424e-09
-4.87242e-11
7.65828e-09
1.40407e-10
3.52992e-09
2.69996e-11
2.40061e-10
4.16959e-09
2.89038e-11
3.3275e-10
4.76717e-09
2.82e-11
4.0473e-10
5.31802e-09
2.52859e-11
4.41194e-10
5.82221e-09
1.97364e-11
4.17063e-10
6.2722e-09
1.08641e-11
2.91229e-10
6.62887e-09
-2.66416e-12
6.59132e-09
-2.37628e-11
-5.09706e-11
7.21675e-11
3.53847e-09
3.09238e-11
-1.85177e-10
1.05052e-10
4.17012e-09
2.72313e-11
-2.86897e-10
8.7593e-11
4.75924e-09
2.36961e-11
-3.30015e-10
4.47565e-11
5.30793e-09
2.1988e-11
-3.14844e-10
-1.91876e-12
5.81424e-09
2.21639e-11
-2.52242e-10
-4.25339e-11
6.26827e-09
2.26874e-11
-1.5207e-10
-7.53749e-11
6.62862e-09
2.04836e-11
-1.06236e-10
6.58009e-09
1.06635e-11
6.50706e-12
6.74132e-11
4.48206e-09
-3.03013e-11
1.13382e-10
5.1217e-09
-5.44374e-11
9.58691e-11
5.72261e-09
-5.97231e-11
4.81574e-11
6.2864e-09
-4.54235e-11
-5.24626e-12
6.81157e-09
-1.83881e-11
-5.19398e-11
7.29198e-09
4.04322e-12
-8.80285e-11
7.69371e-09
-1.18869e-10
7.714e-09
-5.63304e-12
1.1874e-11
5.08364e-09
3.33674e-11
3.60165e-11
5.73877e-09
7.07054e-11
2.77493e-11
6.35715e-09