/*--------------------------------*- C++ -*----------------------------------*\
| =========                 |                                                 |
| \\      /  F ield         | OpenFOAM: The Open Source CFD Toolbox           |
|  \\    /   O peration     | Version:  plus.master.MPPICInterFoam            |
|   \\  /    A nd           | Web:      www.OpenFOAM.com                      |
|    \\/     M anipulation  |                                                 |
\*---------------------------------------------------------------------------*/
FoamFile
{
    version     2.0;
    format      ascii;
    class       Cloud<basicKinematicMPPICParcel>;
    location    "8.8/lagrangian/kinematicCloud";
    object      positions;
}
// * * * * * * * * * * * * * * * * * * * * * * * * * * * * * * * * * * * * * //

3126
(
(-0.0549249 -0.0101927 0.359937) 5489
(-0.0522125 -0.0142829 0.360856) 5488
(-0.0300145 -0.0479685 0.354515) 6361
(-0.0303674 -0.0476007 0.355653) 6353
(-0.0481133 -0.00928649 0.373278) 5600
(-0.0485332 -0.0116288 0.365584) 5544
(-0.0421368 -0.033575 0.358094) 5504
(-0.0374213 -0.033855 0.36722) 5560
(-0.0416362 -0.031908 0.358161) 5504
(-0.0473172 -0.00943494 0.371324) 5543
(-0.0377529 -0.0321201 0.370274) 5560
(-0.0403459 -0.0300684 0.361974) 5504
(-0.0310608 -0.0445623 0.359389) 6353
(-0.0403823 -0.0331212 0.354414) 5504
(-0.0306793 -0.0425812 0.366896) 6408
(-0.0475465 -0.0148912 0.364211) 5544
(-0.0305631 -0.0436328 0.358863) 6352
(-0.0399916 -0.0390509 0.350856) 5449
(-0.0411795 -0.0344405 0.352651) 5448
(-0.0400473 -0.0326263 0.354618) 5504
(-0.0509624 -0.014647 0.354367) 5488
(-0.0305773 -0.0432197 0.358075) 6352
(-0.0500192 -0.0115105 0.356465) 5488
(-0.0286696 -0.0391599 0.375145) 6463
(-0.028976 -0.0450016 0.355899) 6352
(-0.0433686 -0.032771 0.351863) 5449
(-0.0304728 -0.044083 0.353906) 6352
(-0.0413665 -0.0328844 0.351911) 5448
(-0.0307616 -0.0455043 0.353376) 6353
(-0.0284728 -0.0394271 0.371824) 6407
(-0.0346264 -0.0337325 0.377188) 5615
(-0.026589 -0.0460797 0.354033) 6360
(-0.042566 -0.0301452 0.366496) 5560
(-0.0480602 -0.0137887 0.357461) 5488
(-0.0367668 -0.0340591 0.357578) 5504
(-0.030618 -0.0458823 0.352043) 6297
(-0.0291247 -0.0456991 0.353436) 6352
(-0.0409181 -0.0360232 0.351505) 5449
(-0.02941 -0.0410745 0.35912) 6352
(-0.029103 -0.0442007 0.353814) 6352
(-0.0465343 -0.0093052 0.370664) 5543
(-0.0526569 -0.0104443 0.355774) 5488
(-0.042262 -0.0322194 0.35124) 5448
(-0.0537408 -0.013708 0.351837) 5433
(-0.0515957 0.00498186 0.368486) 5536
(-0.027787 -0.0440477 0.356005) 6352
(-0.0370481 -0.0311399 0.363186) 5559
(-0.0493144 -0.0138495 0.356092) 5488
(-0.0267792 -0.0417557 0.364541) 6408
(-0.046316 -0.00815391 0.373749) 5599
(-0.0492218 -0.00909119 0.358191) 5488
(-0.047179 -0.00906527 0.362652) 5487
(-0.0396046 -0.0286894 0.367429) 5560
(-0.0507245 0.00500919 0.366313) 5536
(-0.0260627 -0.0472962 0.356738) 6360
(-0.0497182 0.00171431 0.367402) 5536
(-0.0324145 -0.0431226 0.354135) 6352
(-0.0505751 0.00284564 0.36621) 5536
(-0.0331771 -0.0437822 0.354885) 6353
(-0.0486153 -0.0143891 0.356694) 5488
(-0.0503966 0.00500618 0.365557) 5536
(-0.0410348 -0.0290798 0.361408) 5504
(-0.0477517 -0.0087264 0.362144) 5487
(-0.0522163 -0.000531646 0.358677) 5480
(-0.0489158 -0.0155569 0.356504) 5488
(-0.0295313 -0.0415927 0.359125) 6352
(-0.0471706 -0.009618 0.367245) 5543
(-0.0451182 -0.00682171 0.381972) 5599
(-0.0333688 -0.0449525 0.353697) 6353
(-0.0494259 -0.0176583 0.357157) 5496
(-0.0570414 -0.00927973 0.351679) 5433
(-0.0539809 0.00435965 0.360177) 5480
(-0.0481879 0.0148264 0.370782) 5528
(-0.0474029 -0.0167314 0.358942) 5496
(-0.0522109 -0.0150954 0.353932) 5489
(-0.0528416 -0.0125872 0.35273) 5433
(-0.0358982 -0.0283504 0.384913) 5671
(-0.051386 0.00548663 0.359264) 5480
(-0.0477349 0.0135561 0.370239) 5528
(-0.0482405 0.00196415 0.367236) 5535
(-0.0494646 0.00420316 0.364611) 5536
(-0.0413501 -0.0324897 0.356741) 5504
(-0.0474948 0.00343488 0.377814) 5591
(-0.0472973 0.0121356 0.369971) 5528
(-0.0266691 -0.0427674 0.364049) 6416
(-0.0531412 0.00596785 0.359904) 5480
(-0.0417427 -0.0232844 0.382675) 5607
(-0.0521217 0.00653511 0.362895) 5472
(-0.0460665 -0.0076057 0.378919) 5599
(-0.058142 -0.00958451 0.351215) 5433
(-0.0418332 -0.0228561 0.380562) 5607
(-0.04391 -0.020309 0.376979) 5607
(-0.0428789 -0.0070531 0.386704) 5654
(-0.0503366 0.00642928 0.366543) 5528
(-0.0446719 -0.0238375 0.374043) 5608
(-0.0464246 -0.0214061 0.373775) 5608
(-0.0491669 0.0156706 0.367917) 5528
(-0.0516302 -0.0131579 0.355324) 5488
(0.0594559 -0.010393 0.338315) 4466
(-0.0465179 0.0131639 0.370343) 5527
(-0.0443549 -0.0194186 0.376192) 5607
(-0.0481825 -0.0136956 0.364648) 5544
(-0.0526529 0.000686662 0.358012) 5480
(-0.0467999 -0.0110776 0.374609) 5599
(-0.0450106 -0.0191575 0.372404) 5552
(-0.0481717 -0.0170273 0.365506) 5552
(-0.0538603 0.00558528 0.360348) 5480
(-0.0516757 -0.0156553 0.35577) 5488
(0.05404 -0.0146526 0.345366) 4521
(0.0584349 -0.0118389 0.338208) 4466
(0.0595773 -0.00931781 0.338682) 4466
(-0.0487838 0.0113472 0.367788) 5528
(-0.0363771 -0.0304536 0.372248) 5559
(-0.0475786 -0.0153302 0.368007) 5544
(0.0473892 -0.0110971 0.359691) 4575
(-0.054798 0.00278068 0.359445) 5481
(-0.0437126 -0.0199452 0.370426) 5551
(-0.0418162 -0.0330766 0.360293) 5504
(-0.0410427 -0.0366355 0.361545) 5505
(-0.0465347 -0.0125187 0.375839) 5599
(-0.048796 -0.0125659 0.360536) 5488
(-0.0484826 0.0151041 0.367356) 5528
(-0.0542156 -0.011258 0.355424) 5489
(-0.0412823 -0.0348639 0.361973) 5504
(0.0560955 -0.0127162 0.340837) 4465
(0.0553971 -0.0114228 0.341041) 4465
(-0.0267226 -0.0337108 0.393005) 6574
(-0.0274028 -0.0382059 0.378706) 6463
(-0.0363252 -0.0297061 0.376052) 5615
(-0.0474496 0.00167561 0.37472) 5591
(-0.0474905 -0.0190285 0.376275) 5608
(-0.0389605 -0.0318328 0.365004) 5560
(0.0555415 -0.0127695 0.340549) 4465
(-0.040416 -0.0288344 0.37534) 5616
(-0.0407402 -0.0233838 0.374734) 5607
(-0.0494801 -0.0160544 0.359057) 5488
(-0.0503133 -0.0143474 0.358681) 5488
(-0.0482008 -0.01197 0.365958) 5544
(0.059683 -0.016342 0.346891) 4522
(0.0475418 -0.00652255 0.369191) 4631
(0.0541698 -0.012274 0.34231) 4465
(-0.0374836 0.0349077 0.383472) 5624
(-0.0445683 -0.0200461 0.369341) 5552
(-0.0489985 -0.0069804 0.372415) 5544
(-0.0473817 -0.0143784 0.378404) 5600
(-0.0474489 -0.0134478 0.367601) 5544
(-0.0512042 0.0161181 0.368774) 5528
(-0.0465661 0.0228906 0.37462) 5576
(-0.0479133 -0.0141993 0.369218) 5544
(-0.0304884 -0.0407582 0.367785) 6408
(-0.0554351 -0.0119808 0.357755) 5489
(0.0537458 -0.0118708 0.341677) 4465
(0.0537089 -0.0116988 0.342949) 4465
(-0.0485836 0.0107398 0.369916) 5528
(-0.0456467 0.0147819 0.376616) 5583
(-0.0514851 -0.01121 0.358961) 5488
(-0.0492975 -0.0130392 0.364571) 5544
(-0.0542184 0.00110926 0.361093) 5481
(0.0509084 -0.0123233 0.351846) 4520
(0.0595009 -0.00724521 0.342548) 4466
(0.051825 -0.0126689 0.346871) 4520
(-0.044999 0.0132993 0.381133) 5583
(-0.0477392 0.0173174 0.375313) 5576
(-0.0465822 0.0121608 0.371696) 5527
(-0.0259185 -0.0440001 0.364328) 6416
(-0.0497575 0.00182958 0.367737) 5536
(-0.0532846 0.000904337 0.361829) 5480
(0.0522136 -0.0144949 0.346092) 4521
(-0.0517842 -0.0111403 0.359753) 5488
(-0.0351478 -0.0337751 0.372649) 5559
(-0.0573415 -0.0108708 0.357648) 5489
(0.0489684 -0.0125937 0.366382) 4632
(0.051985 -0.0136267 0.349875) 4520
(-0.0179384 -0.0440551 0.377931) 6471
(-0.042839 -0.0187521 0.386333) 5663
(-0.0453235 0.0248505 0.373549) 5576
(-0.0510564 -0.0102468 0.363642) 5544
(-0.0523026 -0.0117014 0.360096) 5488
(-0.049017 -0.010668 0.368411) 5544
(-0.0442829 -0.0130613 0.385212) 5655
(0.0521655 -0.0136297 0.350462) 4520
(-0.0466935 0.00155772 0.382338) 5591
(-0.0547067 0.00309699 0.361328) 5481
(-0.0393396 -0.0336528 0.36578) 5560
(-0.0534065 0.000254093 0.362075) 5480
(0.0571994 -0.0108256 0.335121) 4465
(-0.0242695 -0.04089 0.378684) 6471
(-0.045985 0.00294865 0.385459) 5647
(0.0529352 -0.0130766 0.348135) 4521
(-0.0482012 0.00566987 0.378906) 5583
(-0.0332956 -0.0319099 0.382178) 5615
(-0.0340149 -0.0268462 0.400986) 5726
(-0.0476632 0.0054392 0.382154) 5583
(-0.0424512 -0.0182389 0.387455) 5663
(-0.0470527 -0.0209738 0.372299) 5552
(-0.0326518 -0.0397737 0.376039) 6464
(-0.0421015 -0.0111705 0.388613) 5655
(-0.0494371 0.00497134 0.372973) 5592
(-0.045721 -0.0200479 0.37372) 5608
(-0.0376152 -0.0295533 0.375876) 5615
(-0.0537075 -0.0146644 0.361767) 5489
(-0.0505643 -0.0093628 0.367319) 5544
(-0.0268407 -0.0434422 0.370704) 6416
(-0.0282875 -0.041602 0.372345) 6408
(0.0492441 -0.0113658 0.366369) 4632
(0.0530375 -0.0110835 0.353375) 4577
(0.057451 -0.0110595 0.338749) 4465
(0.0522123 -0.0119722 0.340473) 4464
(0.0616724 -0.00915028 0.334012) 4466
(-0.0166261 -0.043442 0.38394) 6527
(-0.0421053 -0.0108091 0.38849) 5654
(-0.0559013 -0.00890239 0.363384) 5545
(-0.0261365 -0.0433144 0.369982) 6416
(0.051736 -0.012267 0.358059) 4576
(-0.0169381 -0.0442444 0.383452) 6527
(-0.041487 -0.0116752 0.391965) 5654
(-0.0462201 -0.0112357 0.379631) 5599
(-0.0525476 -0.00214738 0.367324) 5536
(-0.0329668 -0.039665 0.376349) 6464
(-0.0241136 -0.0391138 0.386215) 6527
(-0.04536 -0.0191994 0.376166) 5608
(-0.0384259 -0.0327695 0.372638) 5560
(-0.0271943 -0.0426876 0.373276) 6464
(-0.0541455 -0.0144982 0.363382) 5545
(-0.0503997 0.0135926 0.372726) 5528
(0.0508264 -0.0104394 0.349412) 4520
(0.052758 -0.0133835 0.343265) 4521
(0.061127 -0.01066 0.334576) 4466
(-0.0475671 -0.00944407 0.376813) 5599
(-0.0464633 -0.0231396 0.374559) 5608
(-0.0546636 -0.012815 0.363744) 5545
(-0.0308341 -0.0410999 0.371594) 6408
(-0.0388317 -0.0347054 0.370146) 5560
(0.0514946 -0.012067 0.360601) 4576
(0.0522416 -0.0130373 0.348818) 4520
(-0.0492378 0.0087948 0.381861) 5584
(-0.05418 -0.00797605 0.366234) 5545
(-0.0450474 -0.0269085 0.376801) 5608
(-0.0489404 0.00542601 0.379036) 5592
(-0.0461535 -0.00887504 0.381353) 5599
(0.0479709 -0.00784048 0.37456) 4687
(0.0522518 -0.0150376 0.347927) 4521
(0.0474809 -0.00864212 0.354924) 4575
(0.0627372 -0.0113366 0.334419) 4466
(-0.046937 0.0245293 0.376108) 5576
(-0.0491423 -0.00922916 0.373351) 5600
(0.0520896 -0.0135154 0.351394) 4520
(0.0585422 -0.0145112 0.339855) 4466
(-0.047307 -0.0147096 0.379845) 5600
(-0.0469816 0.016763 0.382546) 5576
(-0.0504299 -0.0129849 0.369541) 5544
(-0.0519233 -0.0114845 0.367172) 5544
(-0.0523324 -0.0100753 0.366924) 5544
(0.0512312 -0.0123802 0.351791) 4520
(0.0615514 -0.0122863 0.335931) 4466
(-0.0296482 -0.0393812 0.378745) 6464
(-0.0531537 -0.016513 0.365811) 5545
(0.0529049 -0.0153827 0.347345) 4521
(0.0529326 -0.0131446 0.349908) 4521
(0.0582286 -0.014185 0.341137) 4466
(0.0588499 -0.0162643 0.339947) 4466
(-0.0374366 -0.0277023 0.385734) 5671
(-0.0339584 -0.0277332 0.390355) 5671
(0.0534518 -0.0108962 0.354111) 4577
(0.0547464 -0.0157539 0.343448) 4521
(0.0523128 -0.0148184 0.349732) 4521
(0.054629 -0.000738909 0.34071) 4473
(-0.049563 0.00213478 0.375603) 5592
(-0.0513721 -0.0122859 0.368799) 5544
(-0.0498185 0.000839704 0.374932) 5592
(-0.0518578 0.00264198 0.370131) 5536
(0.048581 -0.00612301 0.374933) 4687
(0.0526875 -0.0145042 0.349297) 4521
(-0.0163029 -0.0444947 0.387249) 6527
(-0.0384698 -0.0317996 0.37707) 5616
(-0.0527888 -0.0136475 0.367136) 5545
(0.0584505 -0.0156614 0.342103) 4466
(-0.0359282 -0.0330701 0.379509) 5615
(0.0535107 -0.0169232 0.346443) 4521
(0.0655139 -0.00974961 0.337375) 4467
(-0.0150973 -0.0440012 0.388753) 6535
(-0.0162135 -0.046246 0.385716) 6527
(-0.0505809 0.0115039 0.375118) 5584
(0.050431 -0.00886219 0.370825) 4632
(0.0531972 -0.0134774 0.35061) 4521
(-0.0419338 -0.0104305 0.397419) 5710
(-0.0352988 -0.0331625 0.380802) 5615
(0.0492184 -0.00709147 0.374219) 4688
(-0.0602591 0.00219587 0.345975) 5426
(-0.0609314 0.00238003 0.344043) 5426
(0.0467778 -0.00718756 0.366538) 4631
(0.0628725 -0.0121145 0.33808) 4466
(0.0561557 -0.0163288 0.345408) 4521
(0.0571643 -0.020003 0.343825) 4514
(0.053381 -0.0158854 0.350805) 4521
(0.057708 -0.000967384 0.339062) 4473
(-0.0487375 -0.0120946 0.375795) 5600
(0.0529962 -0.0117919 0.353937) 4577
(0.0595332 -0.0163407 0.342876) 4466
(0.0514034 -0.0132507 0.35591) 4576
(0.0587155 -0.000988224 0.340036) 4473
(-0.0477707 0.0163775 0.381902) 5584
(-0.0176836 -0.0443087 0.388283) 6527
(0.0558626 -0.0161108 0.346604) 4521
(0.0550334 -0.0173849 0.346212) 4521
(0.0579048 -0.00100243 0.341609) 4473
(-0.0307056 -0.0310002 0.40625) 6630
(-0.0271929 -0.0333759 0.396667) 6574
(-0.0228972 -0.0377906 0.394584) 6583
(-0.0466814 0.0164202 0.386215) 5632
(-0.0387127 0.0339208 0.377799) 5568
(0.0502365 -0.0175504 0.372505) 4632
(-0.0529848 -0.0112539 0.369567) 5545
(0.0498613 -0.0103865 0.361439) 4576
(-0.0582371 0.00303671 0.350026) 5425
(0.0565747 -0.0165114 0.345912) 4521
(0.0535508 -0.0108303 0.354224) 4577
(0.0612067 -0.0160858 0.341768) 4466
(0.0544956 -0.0185037 0.348586) 4521
(0.0587815 -0.000984211 0.34156) 4473
(-0.0144259 -0.0430259 0.393518) 6591
(-0.0495485 -0.00883678 0.377672) 5600
(-0.0495503 -0.00657149 0.383089) 5656
(-0.0494852 0.000220039 0.378083) 5592
(-0.0146853 -0.046247 0.386416) 6535
(0.049979 -0.010823 0.371643) 4632
(0.0509826 -0.00969533 0.360978) 4576
(0.0498693 -0.0114324 0.359447) 4576
(0.0516716 -0.0126791 0.357729) 4576
(0.0532536 -0.0111363 0.354438) 4577
(0.0545588 -0.0154989 0.349317) 4521
(0.0537356 -0.0125543 0.352754) 4521
(0.0555436 -0.0154771 0.348678) 4521
(0.0574628 -0.0160841 0.345229) 4522
(0.0522145 -0.0116026 0.355328) 4576
(0.0521889 -0.0122202 0.355378) 4576
(0.0548154 -0.0165239 0.348728) 4521
(-0.0425258 -0.0069854 0.399189) 5710
(-0.0151184 -0.0446101 0.388271) 6535
(-0.0526964 -0.00909345 0.372406) 5544
(-0.0565709 -0.000827976 0.362913) 5481
(0.0495372 -0.00734284 0.375869) 4688
(0.0503105 -0.0128182 0.359711) 4576
(0.0520479 -0.011846 0.355013) 4576
(0.0535614 -0.0123736 0.353409) 4577
(0.0544694 -0.0142022 0.350254) 4521
(0.0601791 -0.016401 0.343648) 4522
(0.0528752 -0.0113079 0.354684) 4576
(0.0546673 -0.00164007 0.347374) 4529
(-0.0247792 -0.0407986 0.386881) 6527
(-0.0423396 -0.00749647 0.402852) 5766
(-0.0451222 -0.021736 0.381036) 5608
(0.0533435 -0.0124463 0.353463) 4577
(0.0595995 -0.017128 0.34417) 4522
(0.0532527 -0.0124079 0.353547) 4577
(-0.0300407 -0.0385903 0.384712) 6520
(-0.0432094 0.0223599 0.385809) 5631
(-0.0281666 -0.0369943 0.389094) 6519
(-0.0346285 -0.0288616 0.389312) 5671
(-0.0174434 -0.0434532 0.390738) 6527
(-0.0559264 -0.0100296 0.368562) 5545
(0.0504827 -0.0102493 0.372138) 4632
(0.0509734 -0.0117362 0.357696) 4576
(0.0524874 -0.0111158 0.355441) 4576
(-0.0466193 0.0292864 0.376006) 5577
(-0.0442474 -0.0198939 0.385187) 5663
(-0.0488818 -0.0232286 0.380556) 5609
(0.0512462 -0.00890998 0.372688) 4632
(0.0472625 -0.00888247 0.364023) 4631
(0.0547342 -0.0132505 0.351252) 4521
(-0.0339373 -0.0252801 0.409978) 5782
(-0.0436327 -0.0195646 0.387401) 5663
(0.0496649 -0.0096718 0.364302) 4632
(0.0585672 -0.0160457 0.345793) 4522
(0.0529141 -0.0132663 0.354378) 4577
(-0.0483184 -0.0177339 0.387032) 5664
(-0.0468705 0.00829653 0.38877) 5639
(-0.0474291 0.00424125 0.385408) 5647
(-0.0495701 0.0131007 0.379635) 5584
(-0.0304842 0.0456124 0.368876) 7401
(-0.0578999 -0.000291761 0.348723) 5425
(-0.0573899 0.00152091 0.349005) 5425
(0.0639653 -0.0106622 0.336563) 4466
(-0.0429817 -0.0122367 0.389555) 5655
(-0.028636 -0.0377763 0.38836) 6519
(-0.0521426 -0.000821856 0.374511) 5592
(-0.0569603 -0.0015562 0.36189) 5481
(0.0515231 -0.0137415 0.358278) 4576
(0.053087 -0.0120087 0.353481) 4577
(0.0539914 -0.0128596 0.352021) 4521
(0.0533339 -0.0144308 0.340812) 4465
(-0.0152682 -0.0405985 0.398207) 6582
(-0.0269107 0.0463763 0.374316) 7448
(-0.0568152 0.00187393 0.35686) 5481
(0.0550997 -0.0105001 0.352584) 4521
(0.054223 -0.0105124 0.353303) 4577
(0.0477704 -0.0129962 0.362321) 4576
(0.0500343 -0.0146359 0.359468) 4576
(0.0532974 -0.0142517 0.34321) 4521
(0.0558097 -0.0150361 0.342349) 4465
(0.0559209 -0.00185279 0.348419) 4529
(0.0540106 -0.0139641 0.343459) 4521
(0.0531274 -0.0185993 0.341675) 4457
(-0.0324354 0.0417394 0.375965) 7456
(-0.036597 0.0316144 0.385229) 5623
(-0.0368128 0.0344053 0.3814) 5568
(-0.0302315 0.042931 0.37367) 7456
(-0.0495372 0.0238338 0.374025) 5577
(-0.0568367 0.000110869 0.358175) 5481
(-0.0579956 0.0040285 0.351756) 5425
(0.0545392 -0.00998926 0.353442) 4577
(0.0488932 -0.0143142 0.360194) 4576
(-0.0386754 -0.0224456 0.395832) 5719
(-0.0511899 -0.00999975 0.376974) 5600
(-0.0483477 0.0164149 0.38195) 5584
(0.0578773 -0.0101237 0.355347) 4577
(0.0473342 -0.0113901 0.362918) 4575
(-0.0371877 -0.02195 0.404019) 5774
(0.00863649 -0.0542136 0.374969) 6497
(-0.0424451 0.0211634 0.38916) 5631
(-0.0543848 0.00219906 0.371045) 5537
(-0.0575258 0.00313525 0.349055) 5425
(0.0569804 -0.0120727 0.348852) 4521
(0.059533 -0.0144137 0.339888) 4466
(-0.0415143 -0.00750826 0.413642) 5822
(-0.0452087 0.00830664 0.390869) 5639
(-0.0244533 -0.0420051 0.388956) 6527
(-0.0430421 0.0192476 0.389581) 5631
(-0.0481671 0.0154653 0.382192) 5584
(-0.0363412 -0.0312891 0.38572) 5671
(-0.0386145 0.0368349 0.374364) 5568
(-0.0294942 0.044864 0.370851) 7400
(0.0511572 -0.0130419 0.357346) 4576
(0.0599897 -0.0136886 0.338871) 4466
(-0.0463541 -0.00976422 0.385415) 5655
(-0.0481975 0.0111023 0.383405) 5640
(-0.00226213 0.0559868 0.369919) 7377
(-0.0261623 0.0443904 0.374248) 7448
(-0.0563472 0.00291645 0.359016) 5481
(0.0545199 -0.0129795 0.349744) 4521
(0.0616533 -0.0117282 0.337859) 4466
(-0.0268552 -0.0327206 0.408907) 6630
(-0.0243469 -0.0420618 0.389285) 6527
(-0.0144356 0.0541433 0.380352) 7441
(-0.0374218 -0.0373388 0.380165) 5616
(-0.0261058 0.0447345 0.376853) 7448
(-0.0560386 0.011407 0.356004) 5473
(-0.0267751 0.0483266 0.371593) 7393
(-0.0589044 0.00368967 0.348987) 5425
(0.0551361 -0.0103423 0.352395) 4521
(-0.0592032 0.00236166 0.348327) 5425
(0.0476954 -0.0135256 0.364241) 4632
(0.0473164 -0.0135152 0.365329) 4632
(0.0532758 -0.00216597 0.352109) 4528
(-0.0471609 0.021455 0.380885) 5576
(-0.0481531 0.0135483 0.382555) 5584
(-0.0339198 0.0440373 0.37103) 7401
(0.0527381 -0.0152661 0.375757) 4689
(-0.0528871 -0.0112445 0.37547) 5600
(-0.0560222 0.00327489 0.362422) 5481
(-0.0561971 -0.00232075 0.365347) 5537
(-0.0573724 0.0034487 0.353007) 5425
(0.0539818 -0.00627138 0.361838) 4576
(-0.0563561 -0.015432 0.364561) 5545
(0.0565728 -0.0103871 0.351695) 4521
(-0.0578041 0.0154833 0.353137) 5474
(-0.0414687 -0.0108271 0.406117) 5766
(-0.041604 -0.0113214 0.402749) 5766
(-0.0452912 -0.0127335 0.386862) 5655
(-0.0098875 -0.0509528 0.380807) 6480
(-0.00459041 0.0518393 0.375148) 7432
(-0.0571705 0.00412358 0.361222) 5481
(-0.0562938 0.00369816 0.361957) 5481
(0.0545815 -0.010413 0.347458) 4521
(0.0575633 -0.0020227 0.350137) 4529
(0.0639435 -0.0112109 0.336497) 4466
(-0.0502089 0.00372425 0.3835) 5648
(-0.0260199 0.0464281 0.372484) 7392
(-0.0509506 0.0153197 0.373422) 5584
(0.0108319 0.053066 0.366029) 7369
(0.0104936 0.0548694 0.361916) 7313
(-0.0200488 -0.0541697 0.367529) 6417
(-0.0266826 0.0477832 0.371546) 7393
(-0.0392739 0.0379116 0.366699) 5513
(-0.0394033 0.0378429 0.366578) 5513
(-0.00516482 -0.0535613 0.36389) 6432
(0.0612657 -0.00984642 0.350351) 4522
(0.064997 -0.00981641 0.338813) 4467
(0.0616923 -0.0127563 0.338877) 4466
(-0.0493028 -0.0061063 0.391277) 5656
(-0.0262011 -0.0344669 0.397053) 6574
(-0.0425424 -0.0169958 0.401767) 5719
(-0.015128 -0.0408801 0.399581) 6582
(0.0101568 -0.0508619 0.380823) 6496
(-0.026574 -0.039804 0.39029) 6519
(0.00756527 -0.0515501 0.378912) 6496
(-0.040115 0.0335162 0.376981) 5568
(-0.0412636 0.0353236 0.366155) 5513
(-0.049611 0.0282307 0.358376) 5465
(0.0466785 -0.00837366 0.371998) 4631
(0.0517901 -0.0112603 0.358088) 4576
(0.0559721 -0.0071694 0.354459) 4577
(0.0600028 -0.0189484 0.345493) 4522
(-0.0548461 0.0131658 0.355879) 5473
(-0.0556764 0.0138462 0.353542) 5473
(0.0611917 -0.0131317 0.338999) 4466
(-0.0140361 -0.0422446 0.399466) 6591
(0.0514735 -0.00979853 0.373761) 4688
(-0.0212795 -0.0532258 0.364949) 6417
(-0.0255264 0.0472625 0.375823) 7448
(-0.0563828 0.00384965 0.362859) 5481
(0.0107375 -0.0494335 0.370562) 6440
(-0.0169163 0.047027 0.383512) 7504
(-0.0394196 0.0367002 0.368231) 5512
(-0.0611176 0.00275406 0.348198) 5426
(-0.0547303 0.0177237 0.360061) 5473
(-0.0505241 0.0281792 0.355086) 5465
(0.0526962 -0.0197296 0.35488) 4569
(0.0563991 0.00162585 0.342938) 4473
(0.0636546 0.000204947 0.339969) 4474
(-0.063449 -0.0030194 0.346016) 5426
(-0.0335532 -0.0267975 0.401703) 5726
(-0.0358173 0.030193 0.391884) 5623
(-0.0491091 -0.00879665 0.385336) 5656
(-0.0455635 -0.0207917 0.388179) 5664
(0.0473314 -0.00993414 0.384965) 4743
(-0.0543792 0.000326728 0.369603) 5537
(0.0105168 -0.0535181 0.369746) 6441
(0.00990912 -0.0516304 0.369749) 6440
(0.0115078 -0.0521477 0.367165) 6440
(0.0457611 -0.00959073 0.373809) 4687
(0.0131897 -0.0556665 0.367483) 6441
(0.0104167 0.0526076 0.365953) 7368
(0.0119036 -0.0514218 0.367726) 6440
(0.00915379 -0.0522233 0.366961) 6440
(-0.0279183 0.0473332 0.365922) 7393
(-0.0490316 -0.00722796 0.387729) 5656
(-0.0238414 -0.0367476 0.397588) 6575
(-0.0463076 0.0293421 0.37763) 5569
(-0.0489947 0.0231221 0.373919) 5577
(-0.0419463 0.0346167 0.370749) 5513
(-0.039881 0.0359359 0.371067) 5512
(-0.0574724 0.00396978 0.358486) 5481
(0.0127717 -0.0549349 0.368148) 6441
(-0.0610717 -0.00506337 0.355905) 5482
(0.0133987 -0.0559095 0.367307) 6441
(-0.0487517 0.0287842 0.357568) 5465
(-0.0268156 0.0478533 0.369311) 7393
(-0.0011025 0.0576723 0.361617) 7321
(-0.00487065 -0.0458836 0.387611) 6543
(-0.0411221 0.0330006 0.375952) 5568
(-0.0595029 -0.00493121 0.365333) 5537
(0.00788536 -0.0531668 0.369016) 6440
(-0.00266491 0.05016 0.379272) 7432
(0.0115785 -0.0490041 0.372334) 6440
(-0.00282523 -0.0545088 0.368033) 6433
(-0.0491051 0.0288793 0.356998) 5465
(-0.0325989 0.0462783 0.362025) 7345
(0.0100353 0.0557682 0.360844) 7313
(0.0638056 -0.000704933 0.341225) 4474
(0.0610182 0.00223933 0.342154) 4474
(-0.0349733 -0.0256831 0.407258) 5782
(-0.0317593 0.0397477 0.38525) 7512
(-0.0433035 -0.000224152 0.393855) 5702
(-0.0533891 -0.000346813 0.375605) 5592
(0.048462 -0.00993593 0.38544) 4744
(-0.0542105 0.00133 0.371215) 5537
(-0.054259 0.000688839 0.369718) 5537
(-0.0556008 0.00352815 0.366049) 5537
(-0.0201602 -0.0520501 0.366573) 6417
(-0.0542435 0.0129272 0.363595) 5529
(0.00736119 0.0549943 0.363876) 7369
(-0.00359273 -0.0513536 0.368849) 6432
(0.0532879 -0.00860112 0.351557) 4520
(-0.0159988 0.0510165 0.371706) 7384
(0.0611357 0.000432786 0.342549) 4474
(0.061188 0.000348431 0.343162) 4474
(-0.048233 0.0040709 0.389764) 5647
(-0.0475262 0.0289744 0.375039) 5577
(-0.0273264 0.0401121 0.389275) 7511
(0.0456585 -0.00879558 0.392269) 4743
(-0.0465039 0.0203403 0.382682) 5576
(-0.0536777 0.000237736 0.374755) 5592
(-0.00458894 -0.0518813 0.370182) 6432
(-0.0601616 0.00507302 0.35939) 5482
(-0.0492827 0.0248098 0.371259) 5521
(0.00667537 -0.0561644 0.369108) 6441
(-0.0557104 -0.011174 0.368742) 5545
(-0.0538237 -0.0146092 0.374189) 5601
(-0.00387558 -0.0536314 0.366927) 6432
(-0.0608393 0.00274831 0.350603) 5426
(-0.0629547 -0.00151257 0.349017) 5426
(-0.0555459 0.0149699 0.354196) 5473
(-0.0424157 -0.0381057 0.360514) 5505
(-0.0432873 -0.0191253 0.395636) 5719
(-0.0430157 -0.0133085 0.39313) 5711
(-0.0139593 -0.0416029 0.40163) 6591
(-0.0410036 0.0336371 0.368917) 5512
(-0.0253312 -0.0367868 0.396492) 6575
(-0.0529692 -0.000607091 0.377388) 5592
(-0.0484095 -0.0233707 0.377519) 5608
(0.010164 -0.0500002 0.383257) 6552
(-0.0536889 -8.097e-05 0.374393) 5592
(-0.0134983 0.0479075 0.385803) 7496
(0.0127225 -0.0542147 0.371484) 6441
(-0.0603093 -0.0015406 0.350567) 5426
(-0.0600478 0.00259921 0.350173) 5426
(-0.0481719 0.0301578 0.361848) 5465
(-0.0348207 -0.0447615 0.369656) 6409
(-0.0623355 0.0011388 0.350916) 5426
(-0.042917 0.0036905 0.40242) 5702
(-0.0367477 -0.0260037 0.405426) 5783
(-0.0440187 -0.00955093 0.391498) 5655
(-0.0242556 -0.04185 0.393962) 6583
(-0.035083 -0.0308788 0.391011) 5671
(-0.0511431 -0.0101331 0.38313) 5656
(0.0464516 -0.0102727 0.388622) 4743
(-0.00680461 -0.050515 0.383056) 6536
(-0.0187653 -0.0516847 0.365405) 6417
(0.0133311 -0.0538883 0.369938) 6441
(-0.0192301 -0.0514972 0.364941) 6417
(-0.0410413 -0.0360096 0.367146) 5561
(-0.00543949 -0.050234 0.372587) 6432
(0.0109966 -0.0489958 0.371702) 6440
(-0.0611772 -0.00537369 0.358263) 5482
(-0.00280973 0.0487685 0.381632) 7432
(-0.0599862 0.00300114 0.350614) 5426
(-0.0482407 0.0289117 0.357555) 5465
(-0.0334082 -0.0452806 0.367237) 6409
(-0.0648877 -0.00192676 0.350094) 5426
(-0.039971 0.0374347 0.363704) 5513
(-0.0514733 -0.00865998 0.385114) 5656
(-0.0272204 0.038969 0.392024) 7511
(-0.0476065 -0.0258294 0.37349) 5609
(0.0466867 -0.00962624 0.389276) 4743
(0.00943117 -0.050054 0.381118) 6496
(-0.0302767 -0.0462868 0.373848) 6465
(0.0537644 -0.00879597 0.369225) 4633
(0.0487057 -0.00875203 0.383343) 4744
(-0.0512157 0.0240833 0.358881) 5465
(-0.00657916 -0.0510238 0.371177) 6424
(-0.0610164 -0.00276873 0.351277) 5426
(-0.0144512 0.0468042 0.387054) 7496
(-0.0420111 0.0391556 0.364478) 5513
(0.0564606 -0.00256805 0.352986) 4529
(0.0610584 -0.00201163 0.349644) 4530
(-0.0190311 0.0490696 0.371656) 7392
(-0.0187811 0.0528172 0.371001) 7393
(-0.0474164 -0.0112934 0.387788) 5655
(-0.0484096 -0.0141856 0.387237) 5656
(-0.0483857 -0.0154468 0.38786) 5656
(-0.0486905 -0.0119446 0.386011) 5656
(-0.0434196 0.0013823 0.395184) 5702
(-0.0394311 -0.035946 0.375582) 5616
(-0.000347815 0.0504348 0.373769) 7432
(-0.0400094 -0.0362829 0.374196) 5616
(0.0473061 -0.00946633 0.386664) 4743
(-0.0191117 -0.0510699 0.364403) 6417
(0.0137513 -0.0543604 0.367804) 6441
(-0.0549986 0.00352807 0.368334) 5537
(-0.0404699 -0.0372718 0.364084) 5561
(-0.0534275 0.0127993 0.362556) 5473
(-0.043856 -0.0372038 0.359738) 5505
(0.058404 0.0033278 0.347043) 4529
(-0.0295209 0.0469083 0.364837) 7401
(0.0644904 0.00198681 0.34258) 4474
(-0.040461 -0.0109782 0.416087) 5822
(-0.0178363 -0.041727 0.401774) 6583
(-0.0473786 -0.013086 0.387792) 5656
(-0.0500328 -0.0217566 0.378524) 5609
(-0.0367654 -0.0323646 0.389593) 5672
(-0.0206219 -0.0494515 0.383645) 6528
(0.00110257 0.0578167 0.365618) 7377
(-0.00176715 -0.0532758 0.381549) 6488
(0.00942725 -0.0504276 0.383561) 6552
(-0.040424 -0.0360056 0.373423) 5616
(-0.0524807 -0.00321778 0.383417) 5648
(-0.0262754 0.0393078 0.394522) 7567
(0.0529835 -0.00865705 0.372665) 4632
(-0.00553996 -0.0495484 0.374232) 6488
(-0.0488632 0.0267178 0.366618) 5521
(-0.00569521 -0.049066 0.37372) 6480
(-0.0560399 -0.0106656 0.365189) 5545
(-0.0499777 0.0308668 0.354538) 5465
(-0.0376951 0.035252 0.372696) 5512
(-0.0571868 0.0028371 0.358968) 5481
(-0.0339367 0.0343202 0.39425) 7567
(-0.00777134 -0.0499781 0.386005) 6536
(-0.0162253 0.0441759 0.390434) 7503
(-0.0519757 0.0123886 0.371317) 5528
(0.0493999 -0.00911079 0.382281) 4688
(-0.0172312 -0.0510372 0.363026) 6424
(-0.054482 0.010796 0.365645) 5529
(-0.0573211 -0.0101167 0.36264) 5489
(0.000481926 0.0556613 0.368743) 7377
(-0.00397238 0.0537033 0.36678) 7376
(0.0639232 -0.012142 0.343262) 4522
(0.0577481 0.0108659 0.357642) 4593
(-0.040977 -0.0127906 0.406279) 5766
(-0.0420846 -0.00637985 0.406996) 5766
(-0.0133606 -0.0418617 0.40473) 6647
(-0.0482414 -0.0153744 0.388381) 5656
(-0.024931 -0.0400116 0.394694) 6583
(-0.0133097 0.046051 0.389865) 7495
(0.0445413 -0.00804014 0.395018) 4799
(-0.048222 0.0298272 0.368166) 5521
(-0.00716791 0.0500506 0.378239) 7440
(-0.0164325 0.0440177 0.390682) 7503
(-0.00421652 -0.0485547 0.375923) 6487
(-0.004289 -0.0533855 0.361383) 6376
(-0.0335891 0.0438895 0.37408) 7457
(-0.0430104 -0.0363525 0.361045) 5505
(-0.0294033 0.0441213 0.368959) 7400
(-0.0135681 -0.0410728 0.407386) 6646
(-0.0246916 -0.0357275 0.401479) 6574
(-0.0493748 -0.0106172 0.386894) 5656
(-0.0257777 -0.0378849 0.396236) 6575
(-0.0393582 -0.0382085 0.375744) 5617
(-0.0311668 -0.0420527 0.3825) 6464
(0.0457498 -0.0093688 0.392244) 4743
(-0.0532228 -0.00117618 0.37391) 5592
(-0.0180845 0.0518597 0.372177) 7385
(0.00864191 0.0487581 0.371562) 7368
(-0.0521644 0.0293216 0.352789) 5410
(0.00657617 0.0561169 0.36556) 7369
(0.00710303 0.0510626 0.369827) 7368
(-0.0169447 0.0496206 0.373056) 7440
(-0.0419446 0.0382664 0.364289) 5513
(-0.058457 0.0151148 0.352736) 5418
(0.0612428 -0.00964841 0.346914) 4522
(-0.0570038 -0.0135675 0.360798) 5489
(-0.0470917 -0.0148769 0.389417) 5656
(-0.0528909 -0.0084816 0.382951) 5656
(-0.0150051 0.0433651 0.393032) 7551
(-0.0548198 -0.00999444 0.378294) 5601
(-0.0510745 -0.0079285 0.387539) 5656
(-0.0478695 0.0309647 0.371976) 5513
(-0.0513389 0.00127298 0.384648) 5648
(-0.0138216 0.0430183 0.39352) 7551
(0.0552816 0.00850388 0.357045) 4593
(0.0097308 0.0521196 0.364514) 7368
(-0.0333282 -0.0365571 0.397068) 6576
(-0.048747 -0.0060656 0.395292) 5712
(-0.0242075 -0.0346013 0.410375) 6630
(-0.0475368 -0.0110344 0.387924) 5656
(-0.0153702 -0.0396135 0.41117) 6638
(-0.0360769 -0.0347124 0.389423) 5672
(-0.0475865 0.0300101 0.376743) 5569
(-0.0449614 -0.0252219 0.387539) 5664
(0.051821 -0.00977834 0.37652) 4688
(-0.017103 -0.0494756 0.366494) 6424
(0.0494742 -0.00909124 0.382669) 4688
(-0.0178231 -0.0514202 0.364192) 6424
(-0.0570022 -0.00387848 0.367674) 5537
(-0.0135505 0.0433346 0.393818) 7551
(-0.0192758 -0.0505714 0.364203) 6416
(-0.00668989 -0.0524413 0.361324) 6368
(0.0611808 -0.013876 0.345906) 4522
(-0.0323741 0.0439835 0.367451) 7401
(-0.0392633 -0.0331111 0.381604) 5616
(-0.0522432 0.00100748 0.380913) 5592
(-0.0527446 0.00210247 0.375125) 5592
(-0.0512678 -0.0227764 0.372743) 5553
(-0.0426812 0.0206929 0.392018) 5631
(-0.0405613 -0.0354848 0.373251) 5616
(-0.0207828 -0.0514463 0.36372) 6417
(-0.0528509 -0.0011734 0.376076) 5592
(-0.0440093 -0.0350576 0.365914) 5561
(-0.058973 -0.00248754 0.355153) 5481
(-0.0555042 0.00326116 0.36776) 5537
(-0.0579721 -0.00119338 0.356175) 5481
(-0.00682857 -0.0535554 0.35993) 6368
(-0.000811349 0.0516097 0.366725) 7376
(-0.054774 0.00254604 0.36531) 5537
(-0.00276757 0.0551276 0.364664) 7377
(-0.0184049 0.0494307 0.372991) 7448
(-0.000684139 0.0547387 0.362694) 7321
(0.0608079 -0.000282247 0.347592) 4530
(0.0608147 0.00221341 0.347393) 4530