/*--------------------------------*- C++ -*----------------------------------*\
| =========                 |                                                 |
| \\      /  F ield         | OpenFOAM: The Open Source CFD Toolbox           |
|  \\    /   O peration     | Version:  plus.master.MPPICInterFoam            |
|   \\  /    A nd           | Web:      www.OpenFOAM.com                      |
|    \\/     M anipulation  |                                                 |
\*---------------------------------------------------------------------------*/
FoamFile
{
    version     2.0;
    format      ascii;
    class       vectorField;
    location    "8.8/lagrangian/kinematicCloud";
    object      U;
}
// * * * * * * * * * * * * * * * * * * * * * * * * * * * * * * * * * * * * * //


3126
(
(0.00138115 4.95408e-05 -0.0448511)
(0.00134023 8.29692e-05 -0.0461445)
(0.00166179 0.000854969 -0.0462906)
(0.00165477 0.00083491 -0.0460995)
(0.00104533 -2.47466e-05 -0.044003)
(0.00113082 3.15107e-05 -0.04464)
(0.00154999 0.000467838 -0.0465476)
(0.00131631 0.00034574 -0.0451649)
(0.00186025 0.000731313 -0.0469678)
(0.00101268 -1.44375e-06 -0.0446032)
(0.00124912 0.000280696 -0.0449177)
(0.001939 0.000829472 -0.0466047)
(0.00156896 0.000719314 -0.046202)
(0.00214424 0.00101893 -0.0481388)
(0.00146444 0.000611594 -0.044755)
(0.00114032 5.44654e-05 -0.044887)
(0.00164029 0.000838003 -0.0468394)
(0.00161562 0.000611258 -0.0474934)
(0.00174918 0.000686882 -0.048257)
(0.00213073 0.00102007 -0.0484508)
(0.0014796 0.000163533 -0.0493571)
(0.00166877 0.000882397 -0.0471246)
(0.00159785 0.000163024 -0.048285)
(0.00123614 0.000426254 -0.0445616)
(0.00182618 0.00121101 -0.0477369)
(0.00152508 0.00045781 -0.0485105)
(0.00177246 0.00103025 -0.0483281)
(0.00150463 0.000501705 -0.0488908)
(0.00160117 0.000785495 -0.0477046)
(0.00125323 0.000441957 -0.0453354)
(0.00135709 0.000465814 -0.0440794)
(0.00152721 0.000803551 -0.0482817)
(0.0013803 0.000280164 -0.0452486)
(0.0017726 0.000227961 -0.0476917)
(0.00201237 0.0010673 -0.0481562)
(0.00161224 0.000807344 -0.047999)
(0.00183385 0.00121402 -0.0483441)
(0.00155038 0.000535519 -0.0484387)
(0.00173514 0.00106885 -0.048028)
(0.00183343 0.00119943 -0.0486311)
(0.000963126 -5.40313e-07 -0.0453412)
(0.00137475 9.25563e-05 -0.0485108)
(0.00148062 0.000462289 -0.0493033)
(0.00144007 0.000141479 -0.0475854)
(0.00112728 -8.57346e-05 -0.0447902)
(0.00175249 0.00118916 -0.0484527)
(0.00118096 0.000291675 -0.0473902)
(0.00162311 0.000206101 -0.048305)
(0.00130793 0.000568164 -0.0473214)
(0.00166662 0.000154081 -0.0450269)
(0.00175962 0.000197013 -0.0478318)
(0.00100788 4.05143e-05 -0.0457734)
(0.00118444 0.000223125 -0.0467294)
(0.0010932 -6.86404e-05 -0.0457973)
(0.00156252 0.000839615 -0.0474074)
(0.00104393 -2.64276e-05 -0.0462097)
(0.0015761 0.000734897 -0.0485903)
(0.00108706 -3.44157e-05 -0.0460317)
(0.00160611 0.000724083 -0.0478265)
(0.00160604 0.000213261 -0.0483238)
(0.00108027 -6.21058e-05 -0.0462606)
(0.00199988 0.000866524 -0.0474987)
(0.00104353 4.203e-05 -0.0460965)
(0.00121864 2.37937e-05 -0.0476272)
(0.00163148 0.00023227 -0.0484122)
(0.00175761 0.00109098 -0.0482325)
(0.00102434 1.90122e-05 -0.0458867)
(0.0018672 0.000183234 -0.0437207)
(0.00165229 0.000768477 -0.04819)
(0.00128783 0.000122366 -0.0472632)
(0.00150417 9.96818e-05 -0.0474005)
(0.00129417 -4.42048e-05 -0.0465413)
(0.00156206 0.00145682 -0.0455172)
(0.00116041 9.35146e-05 -0.046697)
(0.00137743 0.000133601 -0.04788)
(0.00137915 0.000123424 -0.0481694)
(0.00258662 0.00142473 -0.0437188)
(0.00114706 -5.39081e-05 -0.0481496)
(0.0013122 0.000993608 -0.0462151)
(0.000970627 -2.80732e-05 -0.0471955)
(0.00103925 -3.55721e-05 -0.0474974)
(0.00186123 0.000746767 -0.0484824)
(0.000915091 -9.97752e-05 -0.0457442)
(0.00126128 0.00104254 -0.0465999)
(0.00135638 0.000627584 -0.0473356)
(0.00123755 -6.43834e-05 -0.0471243)
(0.00106535 6.39026e-05 -0.0435833)
(0.00139356 0.000555813 -0.0485136)
(0.0016387 6.93244e-05 -0.0447556)
(0.00155563 0.000104376 -0.0472335)
(0.00105854 5.4962e-05 -0.0441893)
(0.00109693 5.22926e-05 -0.0448545)
(0.00134847 7.8449e-05 -0.0420936)
(0.00128668 5.41584e-05 -0.0472476)
(0.0012261 0.000103617 -0.0446181)
(0.00123208 8.00302e-05 -0.0445528)
(0.00174211 0.00173492 -0.0465347)
(0.00145196 0.00013613 -0.049526)
(-0.00171769 -0.000866254 -0.0508375)
(0.000947766 -0.000175635 -0.0460164)
(0.00109302 4.49713e-05 -0.0451661)
(0.0011514 4.64766e-05 -0.0467207)
(0.00124431 1.06249e-05 -0.0481329)
(0.00120253 3.06244e-05 -0.0457504)
(0.0011081 5.13696e-05 -0.0460757)
(0.00119571 5.6233e-05 -0.0463164)
(0.00128098 -5.63063e-05 -0.0472012)
(0.00138978 0.000135257 -0.0494668)
(-0.00189473 -0.00214269 -0.0495385)
(-0.00167939 -0.000875041 -0.0513164)
(-0.00172847 -0.000929019 -0.0510217)
(0.00136905 0.00106934 -0.0473508)
(0.00121206 0.000308188 -0.0469749)
(0.00114548 3.25712e-05 -0.046349)
(-0.000778289 0.000358219 -0.0472354)
(0.00132447 -2.91901e-05 -0.047051)
(0.00106473 6.44314e-05 -0.0471392)
(0.00170448 0.000584509 -0.0477808)
(0.00156149 0.000470884 -0.0466329)
(0.0011977 2.62774e-05 -0.0457571)
(0.00165906 0.000178886 -0.0481645)
(0.00170348 0.00177588 -0.0473129)
(0.0013905 8.18596e-05 -0.0481047)
(0.00155932 0.000467308 -0.0471555)
(-0.00126764 0.000533501 -0.0512343)
(-0.00125562 0.000464386 -0.051051)
(0.000801435 0.000148869 -0.0410216)
(0.00113945 0.000356705 -0.0464182)
(0.0012773 0.00034388 -0.0465666)
(0.00094241 -4.49843e-05 -0.046972)
(0.00121149 2.36109e-05 -0.0443885)
(0.00130621 0.000318136 -0.047757)
(-0.00125891 0.00052605 -0.0513145)
(0.00122831 0.000197184 -0.0456382)
(0.00102445 7.85248e-05 -0.0463643)
(0.0017259 0.000245013 -0.049402)
(0.00175446 0.000214902 -0.0495646)
(0.00112497 3.17868e-05 -0.0472243)
(-0.000987374 0.000453885 -0.0492903)
(-0.00068825 0.000153853 -0.0467066)
(-0.00125215 0.000251771 -0.0507032)
(0.00111946 -0.000690778 -0.0411704)
(0.00111732 7.5112e-05 -0.0472722)
(0.00104502 -2.32787e-05 -0.0463127)
(0.00109719 -3.55593e-05 -0.0450253)
(0.00111249 3.13056e-05 -0.046991)
(0.00150911 0.000856054 -0.0463049)
(0.00248908 -0.0010488 -0.0459305)
(0.0011416 2.17193e-05 -0.0468712)
(0.00139001 0.000535945 -0.0469858)
(0.0014366 6.68352e-05 -0.0472948)
(-0.00119174 0.000462641 -0.0510016)
(-0.0015838 -0.00105185 -0.050513)
(0.00134131 0.00108105 -0.0472388)
(0.000885931 -0.000250088 -0.0458634)
(0.00159886 0.000138997 -0.0497911)
(0.00119633 4.73129e-05 -0.0477049)
(0.00130177 -2.83669e-05 -0.0473625)
(-0.00198538 3.2663e-05 -0.049418)
(-0.00162484 -0.000781658 -0.0506607)
(-0.00142867 0.000173446 -0.0500521)
(0.000800842 -0.00025547 -0.0452893)
(0.00247669 -0.00081944 -0.0462925)
(0.000927837 -0.000162938 -0.0464014)
(0.00140778 0.000678205 -0.0458189)
(0.00104612 -2.66988e-05 -0.0477764)
(0.00124863 -1.83901e-05 -0.0476717)
(-0.00176315 -0.00227673 -0.0500235)
(0.00164423 0.000144624 -0.0497703)
(0.00136139 0.000419737 -0.0470023)
(0.0015042 6.40609e-05 -0.0466907)
(-0.00122364 -0.00126902 -0.0475323)
(-0.00127495 0.000193119 -0.0498189)
(0.00122174 0.000568285 -0.0437572)
(0.000987043 -3.39148e-05 -0.045265)
(0.00250799 -0.00108731 -0.0468319)
(0.00123441 4.14898e-05 -0.0479568)
(0.00141476 9.07242e-05 -0.0497852)
(0.00113313 9.84247e-06 -0.0474535)
(0.00124008 3.04524e-05 -0.0435045)
(-0.0012193 0.000173927 -0.0498329)
(0.00133367 -0.000124012 -0.0460742)
(0.00130969 -3.93949e-05 -0.0472761)
(0.00139553 0.000364553 -0.0475043)
(0.00125457 -1.63989e-05 -0.047723)
(-0.00138631 0.000460346 -0.0536979)
(0.00117876 0.000436724 -0.0455436)
(0.00235117 -0.000257429 -0.0453034)
(-0.00179109 -0.00234072 -0.0502284)
(0.000908524 -0.000143879 -0.0458421)
(0.00157094 0.000647548 -0.0454664)
(0.000723534 1.61894e-05 -0.0412865)
(0.000863418 -0.000173064 -0.0454022)
(0.000944183 -4.27329e-05 -0.0453799)
(0.00124959 8.20614e-05 -0.0459999)
(0.00138348 0.000455112 -0.044869)
(0.00137465 7.65832e-05 -0.0420893)
(0.000942395 -0.000308544 -0.0469129)
(0.00116205 5.65766e-05 -0.0462573)
(0.00122848 0.000273926 -0.0469258)
(0.00140445 7.79184e-05 -0.0474122)
(0.00118144 5.83629e-06 -0.0480664)
(0.00137385 0.000618494 -0.0464057)
(0.00133493 0.000524961 -0.0464448)
(-0.00125219 -0.00136995 -0.0481602)
(-0.00100944 0.000419175 -0.0499574)
(-0.00134961 0.000479109 -0.0530687)
(-0.00114954 0.000430205 -0.0519768)
(-0.00186477 -0.000829843 -0.0532071)
(0.00163771 0.00165891 -0.0425324)
(0.00139493 8.33794e-05 -0.0422288)
(0.00138271 1.52157e-05 -0.0465396)
(0.00136103 0.000616842 -0.0452759)
(-0.00113503 2.82135e-05 -0.0495171)
(0.0016976 0.0016851 -0.0427565)
(0.000612546 -0.000102281 -0.0409965)
(0.00133672 3.90727e-05 -0.0461629)
(0.00119288 -1.18525e-05 -0.0475224)
(0.0013894 0.000449865 -0.0450876)
(0.00175323 0.0015135 -0.0443632)
(0.00113406 4.43084e-05 -0.0461297)
(0.00129057 0.000289236 -0.0468558)
(0.00134821 0.000547669 -0.0462001)
(0.00140741 6.17606e-05 -0.0469658)
(0.0013127 0.000363242 -0.0459629)
(-0.00204646 0.000189768 -0.051662)
(-0.00191653 -0.00243865 -0.0516674)
(-0.00185288 -0.00090201 -0.0533983)
(0.00110104 -1.18115e-05 -0.046897)
(0.00128823 9.55526e-05 -0.0453891)
(0.00139691 4.51663e-05 -0.0468628)
(0.00137977 0.00053292 -0.0464002)
(0.00139794 0.000363136 -0.0468141)
(-0.00126471 5.95655e-05 -0.0492121)
(-0.0012704 0.000148659 -0.0512282)
(0.000991744 -0.000222511 -0.0445719)
(0.00130893 -3.59055e-06 -0.0472492)
(0.00132809 0.000152695 -0.0444576)
(0.000947464 -0.000115924 -0.0456974)
(0.00187153 0.00016079 -0.0455718)
(-0.000693549 0.0002047 -0.0464859)
(-0.00178559 -0.00240282 -0.0513627)
(-0.000838909 0.000261041 -0.0503598)
(-0.00186527 -0.00085012 -0.0530198)
(0.00180203 -0.000749298 -0.045377)
(0.00108378 -3.18028e-05 -0.047436)
(-0.00131114 3.48898e-05 -0.0514542)
(-0.00167029 -0.000844815 -0.0529304)
(0.00109922 -4.26272e-05 -0.0461834)
(0.00194371 -0.000816796 -0.0444899)
(0.00123592 1.54778e-05 -0.0479054)
(0.00128178 2.0571e-05 -0.0478331)
(0.00127495 1.23924e-05 -0.0479004)
(-0.00209338 -6.6088e-05 -0.05152)
(-0.00183197 -0.000818799 -0.0532726)
(0.00126389 0.000422745 -0.0462847)
(0.0013935 4.80121e-05 -0.0467561)
(-0.00183743 -0.00237766 -0.0517728)
(-0.00180694 -0.0024753 -0.051384)
(-0.00162055 -0.000860772 -0.0529078)
(-0.00167493 -0.000746853 -0.0530427)
(0.00271076 0.00144479 -0.0452879)
(0.00417934 0.00275274 -0.0437314)
(-0.00102083 0.000414933 -0.0510217)
(-0.00196703 -0.00228681 -0.0522167)
(-0.001783 -0.00246216 -0.0517442)
(-0.00131824 2.16147e-05 -0.0551261)
(0.00105395 -7.44484e-05 -0.047197)
(0.00126562 1.33974e-05 -0.0477449)
(0.00106071 -6.54151e-05 -0.0472367)
(0.00113955 -5.99855e-05 -0.0475545)
(-0.000727101 0.000124354 -0.0465168)
(-0.0018108 -0.00246214 -0.0518505)
(0.00155749 0.00174344 -0.0426253)
(0.001259 0.0002492 -0.0464564)
(0.0013498 3.24735e-05 -0.0471774)
(-0.00160002 -0.000677671 -0.0529428)
(0.00120809 0.000279662 -0.0461599)
(-0.00263705 -0.00437572 -0.0519622)
(-0.00150777 0.000510686 -0.0516553)
(0.00110239 0.000588486 -0.0422554)
(0.00153392 0.00162048 -0.0427584)
(0.00112038 -0.000196897 -0.046108)
(-0.00129616 -0.00146259 -0.0478753)
(-0.00182739 -0.00248947 -0.0518563)
(0.000593715 -0.000129167 -0.0417667)
(0.00124634 0.000324887 -0.0460155)
(-0.00074516 0.000180456 -0.046907)
(0.00151142 -9.64445e-05 -0.0500736)
(0.00124626 -8.72968e-05 -0.0505049)
(-0.000669026 0.000188223 -0.0491609)
(-0.00176878 -0.000814176 -0.052684)
(-0.00186766 -0.00224473 -0.0524799)
(-0.00108027 0.000444172 -0.0528223)
(-0.00212956 -0.00309493 -0.0519005)
(-0.00140957 5.41827e-05 -0.0544619)
(0.00111789 -4.18346e-05 -0.0474496)
(-0.000998488 0.000448882 -0.051718)
(-0.00147314 -0.000230334 -0.053027)
(-0.00118483 -4.73754e-05 -0.0513807)
(-0.00140829 4.80914e-05 -0.0540089)
(0.00100688 -0.000342753 -0.0446373)
(0.00159353 0.00172292 -0.0427342)
(-0.00244925 -0.00361758 -0.0523444)
(-0.00265745 -0.00427268 -0.0523049)
(-0.00141429 6.05521e-05 -0.0538517)
(0.000742866 0.000102708 -0.0404779)
(0.000789324 0.00015078 -0.0410236)
(0.000901242 0.000262998 -0.0422538)
(0.000939366 -0.000379042 -0.0439862)
(0.00118805 -0.000653964 -0.0445565)
(-0.00139858 -0.0013555 -0.0471478)
(0.00131223 1.37054e-06 -0.0470371)
(-0.00126417 -8.63611e-05 -0.0502854)
(0.00152076 4.89032e-06 -0.0495467)
(-0.00183846 -0.00225184 -0.0525991)
(-0.00102388 0.000413097 -0.0517127)
(-0.00165836 -0.000647464 -0.0529042)
(-0.00281757 -0.00484435 -0.0522331)
(-0.00142752 6.66866e-05 -0.0538014)
(0.0023476 0.00445186 -0.0418324)
(0.00108283 -7.72142e-05 -0.0474855)
(0.0010116 -0.000107709 -0.0455271)
(0.00105017 -9.12139e-05 -0.0470888)
(0.00118853 0.000692 -0.0430682)
(-0.0012416 -0.00130414 -0.0479428)
(-0.00132789 -0.000133623 -0.0503673)
(-0.00132663 -0.000139357 -0.0509768)
(-0.00116826 -9.20728e-05 -0.0514504)
(-0.00100809 0.000421084 -0.0517975)
(-0.00237555 -0.0036346 -0.0524355)
(-0.00152584 -0.00126619 -0.0519786)
(-0.00236632 -0.00348357 -0.052437)
(-0.00117471 0.000497855 -0.0528684)
(-0.00117565 -0.000142706 -0.0517857)
(-0.0011538 -0.0001144 -0.0517274)
(-0.00253863 -0.00404219 -0.0524256)
(0.000542012 -0.000178515 -0.041682)
(0.0011272 0.000628378 -0.0426849)
(0.00125265 -3.03678e-05 -0.0468366)
(0.00136805 -2.67135e-05 -0.0472436)
(-0.000758529 0.000185031 -0.0470188)
(-0.00133076 -5.85901e-05 -0.0510541)
(-0.00118887 -0.000140419 -0.0519362)
(-0.0010183 0.000482797 -0.0520894)
(-0.00193303 -0.00244717 -0.0525236)
(-0.000951167 0.000486441 -0.0530884)
(-0.00107756 5.07823e-05 -0.0519822)
(-0.0013255 7.96111e-05 -0.0536493)
(0.00181684 0.00156851 -0.0444708)
(0.000510773 -0.000203685 -0.0402959)
(0.00117048 4.46067e-05 -0.0455622)
(-0.00101118 0.000484542 -0.0521452)
(-0.000931446 0.000501199 -0.0531761)
(-0.00100836 0.000482146 -0.052199)
(0.00123671 0.000432937 -0.0452893)
(0.000915168 -0.00047142 -0.0443788)
(0.00105948 0.000327486 -0.0445985)
(0.00317401 0.00191367 -0.0449703)
(0.00162619 0.00166129 -0.0424234)
(0.00137546 -2.32428e-05 -0.0462412)
(-0.00120018 -0.00110855 -0.0479421)
(-0.00128748 -0.000155345 -0.0518309)
(-0.00117034 -0.000185808 -0.0520579)
(0.000813343 -0.000276372 -0.0455234)
(0.00112182 2.90459e-05 -0.0456989)
(0.00136824 7.7492e-05 -0.0436829)
(-0.00106558 -0.000557097 -0.0477353)
(-0.000712203 0.000270338 -0.0502549)
(-0.00193566 -0.00250129 -0.0524755)
(0.00061646 -2.48056e-05 -0.0399369)
(0.00107104 3.07056e-06 -0.045632)
(-0.00135378 -0.00160014 -0.050392)
(-0.00108688 0.00048909 -0.0531387)
(-0.000983765 0.000514151 -0.0523735)
(0.00123577 -6.71843e-05 -0.0437775)
(0.000854072 -0.000292061 -0.0451627)
(0.00242672 -0.000332922 -0.0457457)
(0.00107475 -0.000262228 -0.045806)
(0.00150552 -0.000970401 -0.0459594)
(0.00151449 4.16036e-05 -0.050522)
(0.00149034 2.81034e-05 -0.0506071)
(-0.0018076 -0.000935054 -0.0537805)
(0.00120615 5.04357e-06 -0.0441294)
(0.0011249 0.00037816 -0.0449614)
(0.00112445 -7.41223e-05 -0.0471774)
(0.00139298 -2.01865e-05 -0.0478286)
(-0.00114915 -8.07736e-05 -0.051857)
(-0.00100459 0.000462029 -0.0527063)
(-0.00186453 -0.00239047 -0.0525915)
(-0.00117603 0.000560397 -0.0550884)
(0.000897525 0.000349702 -0.0405424)
(0.00161146 -0.0013776 -0.0447799)
(0.00140291 -5.21124e-06 -0.0493439)
(-0.00168393 -0.00169462 -0.0523274)
(-0.00105223 0.000405235 -0.0525556)
(-0.00114989 -0.000120962 -0.0508142)
(-0.00230992 -0.0028304 -0.0515431)
(-0.00201492 -0.00263031 -0.0542025)
(-0.00135072 0.000119057 -0.0547127)
(-0.00131531 0.000107361 -0.0532973)
(-0.00202749 -0.00260711 -0.0541196)
(-0.00110457 0.000726704 -0.054784)
(0.00134444 -0.000860127 -0.0448227)
(0.00095022 -0.000594149 -0.0442583)
(0.00110198 -0.000650797 -0.0443345)
(0.00134699 -0.000871704 -0.0455)
(0.000921568 -0.000271307 -0.0461149)
(0.00139217 8.12523e-06 -0.0491031)
(0.00150098 -1.54048e-05 -0.0500175)
(-0.00106549 0.000384704 -0.0525238)
(-0.00203558 -0.00222827 -0.0514186)
(0.00414897 0.00191422 -0.0443375)
(0.00118145 -7.65178e-05 -0.0469894)
(0.00104076 -0.000351021 -0.0452607)
(-0.00115887 0.00041043 -0.0509461)
(-0.000721941 0.00037058 -0.0508831)
(0.000667625 -5.98121e-05 -0.0426679)
(0.0011114 0.00143539 -0.0450369)
(0.000807363 -0.000463104 -0.043913)
(0.00125861 -9.7064e-05 -0.0470161)
(0.00149418 5.52072e-06 -0.0509046)
(-0.00192898 -0.00251981 -0.0530456)
(-0.00174666 -0.000956719 -0.0551708)
(0.00047519 -0.000246545 -0.0374134)
(0.000724735 -0.000290296 -0.0456447)
(0.00122275 0.00063331 -0.043998)
(0.000785927 -0.000438986 -0.0438872)
(0.00101862 -0.000325448 -0.045619)
(0.00165586 0.000639813 -0.045821)
(0.00132474 -0.0007283 -0.045033)
(0.00143113 -0.000941859 -0.0464569)
(-0.00123725 -0.000158778 -0.0525819)
(-0.00179205 -0.000976567 -0.0553189)
(0.00124 -2.0975e-05 -0.0463197)
(0.000968487 -0.000263854 -0.0458355)
(0.00150121 -0.00162374 -0.0462077)
(0.0022368 -0.00247317 -0.0456739)
(0.00137448 -2.62877e-05 -0.0492566)
(-0.00197897 -0.00259858 -0.0534819)
(-0.00180402 -0.000508231 -0.0551909)
(0.000673411 0.00010774 -0.0397118)
(0.00121874 0.000633571 -0.0438331)
(0.0013805 -0.000955371 -0.0432279)
(0.00139264 0.000380292 -0.045086)
(0.00221518 -0.00248758 -0.0449337)
(0.00316222 -0.000486909 -0.0512607)
(0.0015234 -0.00108123 -0.0456517)
(0.00155638 -5.15274e-06 -0.0506929)
(-0.00176969 -0.00198784 -0.0528143)
(0.00157331 4.90136e-06 -0.0507703)
(-0.00125189 -0.00158298 -0.0512224)
(-0.00118846 -0.0015984 -0.0509008)
(-0.0010796 3.90045e-05 -0.0543788)
(0.00247763 -0.00109677 -0.0453524)
(0.000989992 -0.000293913 -0.0459449)
(0.00150486 -0.000910948 -0.0458837)
(-0.000834339 0.000530358 -0.0463896)
(0.0012826 -4.21244e-05 -0.0463888)
(0.00134944 -5.63755e-05 -0.0485877)
(0.00132443 -2.07394e-05 -0.0478072)
(0.00146534 -1.72008e-05 -0.0504881)
(-0.00109401 -0.000182421 -0.0508311)
(0.00149594 5.27433e-05 -0.046985)
(-0.00200466 -0.00260837 -0.0527344)
(0.0016045 -0.000185731 -0.049546)
(0.000532163 -0.000185779 -0.0411445)
(0.000556298 -0.000166566 -0.0413321)
(0.00141021 4.85777e-05 -0.0459042)
(0.00129566 0.00097438 -0.0439339)
(0.00142176 -0.00145704 -0.0460361)
(0.00140048 -6.14517e-05 -0.0487293)
(0.00136286 -5.86296e-05 -0.0487108)
(-0.00200222 -0.00278886 -0.054272)
(-0.00131871 0.000105159 -0.0529805)
(-0.00181822 -0.0010071 -0.055211)
(0.000992808 -0.000168273 -0.0460169)
(0.00143113 -0.000991463 -0.0459036)
(0.00120459 -0.000258409 -0.0472728)
(0.00120926 -0.00172862 -0.0483774)
(0.00124584 -0.00181653 -0.0488723)
(0.00162166 0.00105215 -0.0459548)
(0.00150163 -0.00105978 -0.045945)
(0.0014422 -0.000741155 -0.0482476)
(0.00144508 -0.000739089 -0.0482923)
(0.00143753 0.00123735 -0.047396)
(-0.000996325 0.00029937 -0.0523964)
(-0.00147123 0.000500892 -0.0545791)
(-0.00182498 -0.000975969 -0.0552917)
(0.000986016 -0.000157008 -0.043688)
(0.000816223 0.000181233 -0.0416978)
(0.00360408 0.00125584 -0.0424061)
(0.000891962 0.000370062 -0.040376)
(0.00198845 0.0015992 -0.0439392)
(0.00111802 0.000433342 -0.0446915)
(0.00137496 0.00150727 -0.0443507)
(0.00124582 -0.000657082 -0.0455952)
(0.00142354 -0.000679914 -0.048563)
(0.00227005 -2.4936e-05 -0.0497199)
(-0.000627005 0.000219445 -0.0500429)
(-0.0012392 -0.00026469 -0.0528433)
(-0.00112213 0.000273581 -0.0526298)
(-0.000951948 0.000427746 -0.0538224)
(0.0032467 -0.000547384 -0.0522188)
(0.00324278 -0.000554348 -0.0527546)
(-0.00183184 -0.000985983 -0.0555628)
(0.00225393 0.00443273 -0.0409329)
(-0.000851324 0.00029636 -0.0483647)
(0.00164974 0.00101722 -0.0470109)
(0.00155175 -0.00130367 -0.0449091)
(0.00135799 -6.21786e-05 -0.0485864)
(0.000729877 0.00288145 -0.0470273)
(0.00124879 -0.000968138 -0.0438662)
(0.00139516 -0.00071236 -0.0470305)
(0.00138877 -0.000100076 -0.0510575)
(0.00307307 -0.000759625 -0.0499802)
(0.00225076 -0.0001569 -0.0506668)
(-0.000939814 0.00081099 -0.0522191)
(-0.00137913 -5.17067e-05 -0.0555758)
(-0.00152342 2.76801e-05 -0.0543089)
(0.0012021 -2.63789e-05 -0.0505906)
(0.000678926 1.16484e-05 -0.0420281)
(0.00080288 -0.000575177 -0.0436927)
(0.00113419 -9.18441e-05 -0.045944)
(0.00120738 -3.88566e-06 -0.044705)
(-0.000631791 0.000252821 -0.0458768)
(0.00127106 -7.12164e-05 -0.0480024)
(0.00117447 0.00118621 -0.0466953)
(0.00085568 0.00261057 -0.047457)
(0.000990914 0.00189579 -0.0480542)
(-0.000574053 0.000271653 -0.0500905)
(0.00160077 -0.000557245 -0.0466129)
(0.00122414 -0.00169867 -0.0489477)
(0.000904155 0.00223825 -0.0480229)
(0.00100285 0.00212089 -0.048501)
(0.00153307 -0.00103845 -0.0474953)
(0.00112217 -0.000121585 -0.0455201)
(0.000857364 0.000238805 -0.0417414)
(0.00066232 -0.000202467 -0.0460966)
(0.00126532 -0.000434839 -0.0473386)
(0.00138652 -0.000666992 -0.047599)
(0.00136667 -0.000699485 -0.0464445)
(0.00142704 -4.52963e-05 -0.0497629)
(0.00149368 -0.000116357 -0.0468632)
(0.00157191 2.23634e-05 -0.0494079)
(0.00163399 -0.000733406 -0.046577)
(0.00232074 2.05373e-05 -0.0504987)
(0.00151881 -0.00106338 -0.0468366)
(0.0015193 -0.00172926 -0.049124)
(0.00111395 0.00070916 -0.0425093)
(0.00127457 -0.00064802 -0.0458971)
(0.00146359 -3.49951e-05 -0.0477363)
(0.00110528 0.00173738 -0.048093)
(0.00137356 -0.00138277 -0.0462108)
(0.000983666 0.00276563 -0.046352)
(0.00138966 0.00109343 -0.0477467)
(0.00233597 1.38764e-05 -0.0506133)
(0.00161902 -0.00098913 -0.0482162)
(0.00127396 -0.00185893 -0.0493686)
(-0.00147418 7.1279e-05 -0.0543917)
(-0.00136133 -7.57732e-05 -0.0550467)
(0.000708131 9.67724e-06 -0.0414366)
(0.000855933 -0.000418507 -0.0437125)
(0.000594092 -0.000189345 -0.0429121)
(0.00113944 -0.000107635 -0.047006)
(-0.000695356 0.00024629 -0.0457281)
(0.00125664 -9.20939e-05 -0.0478667)
(0.00126839 -7.51536e-05 -0.0482685)
(0.00129722 -6.64317e-05 -0.0487737)
(0.00158554 0.00097191 -0.047094)
(0.00135839 -0.000176736 -0.0492717)
(0.00131996 -0.00175034 -0.0491041)
(0.00134949 0.00112912 -0.0476695)
(-0.00145013 -0.000470559 -0.0547017)
(0.00150239 -0.00127359 -0.0463695)
(-0.00135508 5.90316e-06 -0.0549651)
(-0.00135333 5.92384e-06 -0.054838)
(0.00127384 -0.000256768 -0.0453997)
(0.000802223 -0.000250837 -0.0470241)
(0.00101717 -0.000753156 -0.0435164)
(-0.000865814 0.000401769 -0.0439566)
(0.00163965 -0.000713869 -0.0455075)
(0.00114887 -0.000110402 -0.0470998)
(0.00136044 0.00112665 -0.0469947)
(0.00150964 -8.00496e-05 -0.0495624)
(0.00132779 -0.000444318 -0.0478568)
(0.00144491 -0.000520933 -0.0463734)
(0.00138176 -1.96254e-05 -0.0474657)
(-0.00197324 -0.000776344 -0.0464528)
(0.00139974 0.00124881 -0.0478659)
(0.00125933 -0.000119263 -0.0513022)
(0.00122755 -6.1479e-05 -0.0504385)
(0.00329285 -0.000579041 -0.0530267)
(0.00165829 0.000515543 -0.0490223)
(0.0027451 0.00080972 -0.0442459)
(0.000750563 -0.00011864 -0.0443204)
(0.00264486 0.00808512 -0.0405493)
(0.00133715 -0.000635329 -0.0476495)
(0.00090739 0.00025386 -0.0425265)
(0.00112521 -0.000113021 -0.0469201)
(0.00135173 9.29075e-05 -0.0460372)
(0.000973203 0.00124699 -0.0439059)
(0.00114911 -0.000105096 -0.0472732)
(0.00125361 -0.00103447 -0.0440001)
(0.00149832 -0.000480076 -0.0465157)
(0.0014273 -8.5453e-05 -0.0514982)
(0.00149613 -0.000122299 -0.0517596)
(0.00224483 4.10676e-05 -0.049535)
(0.0013447 0.000295304 -0.0470314)
(0.00122963 -0.000108655 -0.0507885)
(0.000475056 -0.000308523 -0.0415334)
(0.000827556 4.20195e-05 -0.0418328)
(0.000947299 -6.90692e-05 -0.0448622)
(0.00110739 0.00049579 -0.0435361)
(0.00277489 0.00159039 -0.0450129)
(0.00116914 -9.77066e-05 -0.0453869)
(-0.000605716 0.000256538 -0.0456074)
(0.00124623 0.000960279 -0.0441924)
(0.00156057 0.000967159 -0.0477635)
(0.00133817 0.000305832 -0.0469635)
(0.00156839 0.000959831 -0.0479568)
(0.00153735 0.000430211 -0.0486992)
(0.001326 0.000996992 -0.0471364)
(0.00075825 0.0028691 -0.0469789)
(0.00156279 6.10693e-06 -0.0492251)
(0.00131242 -0.0014206 -0.0464455)
(0.00148749 -0.000130738 -0.0518704)
(0.00234976 4.60898e-05 -0.0511221)
(0.00134036 0.000289719 -0.0479685)
(0.0010164 -8.14344e-05 -0.0496912)
(0.00146473 -0.000719022 -0.0504407)
(0.00115718 -0.000114099 -0.0449661)
(0.000932177 -0.00069955 -0.0430205)
(0.00139132 0.000142294 -0.0471031)
(-0.000618749 0.000220876 -0.0454307)
(0.00205369 0.0015511 -0.0445873)
(0.00150989 0.00064657 -0.0466193)
(-0.000949831 0.000263667 -0.0494505)
(-0.000698986 0.000201616 -0.0466208)
(0.00214831 -0.00013661 -0.0504969)
(0.00136937 0.00104254 -0.0474651)
(0.00116579 -7.75314e-05 -0.0512501)
(0.00120262 -0.000962374 -0.0439213)
(0.00158738 -0.000764975 -0.0488248)
(-0.00150017 6.59019e-05 -0.0534397)
(-0.00131802 0.000100826 -0.0535305)
(0.00144057 -0.00110901 -0.0466745)
(0.00156023 -0.00127994 -0.0461102)
(0.00117073 -5.49195e-05 -0.0463358)
(0.00111944 -0.00010893 -0.0454376)
(0.00115424 -0.000101764 -0.0449045)
(0.00115938 -7.96031e-05 -0.0460352)
(0.000592434 -0.000217361 -0.0427523)
(0.00141652 0.000347616 -0.0470781)
(0.00137261 -0.00144304 -0.0482331)
(0.00144703 0.000360703 -0.0472012)
(-0.000636081 0.000221997 -0.0460114)
(0.0015528 0.000963682 -0.0483339)
(0.00140361 0.000130308 -0.0475185)
(0.00128229 -8.4004e-05 -0.0486778)
(0.00156312 0.000470787 -0.0494655)
(0.00246608 -0.000428572 -0.050406)
(0.00168019 0.000500541 -0.0492743)
(-0.00135835 -0.000123304 -0.0548895)
(0.00153691 -0.00101621 -0.0483284)
(-0.00140808 -6.01257e-05 -0.0545462)
(0.000501557 -0.000220646 -0.0395154)
(0.000907621 0.000458807 -0.0407067)
(0.0011791 -5.49059e-05 -0.045873)
(0.00137769 5.39836e-05 -0.045842)
(0.00117965 0.000260186 -0.045317)
(0.00137639 0.000834979 -0.0440345)
(0.0015009 -0.00177757 -0.048977)
(0.00121486 0.00120523 -0.0441344)
(0.000989801 0.00125341 -0.0441579)
(0.00145355 0.000355637 -0.0474291)
(0.00114433 -0.000127791 -0.0454979)
(0.000899289 -0.000708082 -0.0427153)
(-0.0011471 -0.00056841 -0.0487061)
(0.00129372 0.000951473 -0.0469152)
(0.00141283 -0.000468456 -0.048993)
(0.00129673 0.000926609 -0.0470996)
(0.00140254 5.02513e-06 -0.0487494)
(0.00248262 4.86196e-05 -0.0512281)
(0.00123208 -0.000655031 -0.0477912)
(0.00140937 -3.1065e-05 -0.0505631)
(0.000876927 -0.000676475 -0.0428855)
(0.0012156 0.000927785 -0.0439426)
(0.00106628 -0.000791384 -0.0434785)
(0.00152865 0.00100159 -0.0491778)
(-0.000730414 0.000219656 -0.0468574)
(0.00155971 0.0010043 -0.0490701)
(0.00132899 -0.000148331 -0.0493621)
(0.0014648 2.77286e-05 -0.0490527)
(0.00146667 -0.0016594 -0.0483323)
(0.00146334 -0.00147316 -0.0493976)
(-0.000711333 0.000356708 -0.0551456)
(-0.00113939 -0.000601895 -0.0504965)
(0.000544988 -0.000166247 -0.0418615)
(0.00046223 -0.000247048 -0.041295)
(0.00085034 0.000457796 -0.0405062)
(0.00114318 -0.000105518 -0.0450927)
(0.00104085 0.00041069 -0.0433288)
(0.0011685 -0.000908227 -0.0438619)
(-0.00103356 0.000619471 -0.043617)
(0.00144445 -0.000557876 -0.0483883)
(0.00139886 -0.00138031 -0.0460642)
(0.00106207 -0.00078604 -0.0434734)
(0.0012674 0.000927029 -0.0468351)
(0.00142067 0.00126054 -0.0500362)
(0.000614898 0.000146277 -0.0461436)
(0.00161821 0.000468906 -0.0498718)
(0.00140121 -0.000909136 -0.0483846)
(0.00081255 0.000406467 -0.0397907)
(0.00080943 0.00020824 -0.0416663)
(0.00114305 -0.000100646 -0.045867)
(0.000965281 0.000324389 -0.0431191)
(0.00108721 2.29613e-05 -0.0475565)
(0.00136325 0.000535127 -0.0451638)
(-0.000879919 0.000433223 -0.0444128)
(0.00117202 -8.47512e-05 -0.0481736)
(0.00148277 -0.00113153 -0.0466946)
(0.00124474 -0.00140432 -0.0501336)
(0.00169272 -0.000471399 -0.0512766)
(0.00133938 -0.00177483 -0.0492193)
(0.00128463 -0.001508 -0.0492427)
(0.00148767 -0.00129335 -0.0465243)
(0.00155581 -0.000741177 -0.0500386)
(0.00162743 -0.000178786 -0.0512942)
(-0.000983688 0.000306232 -0.0547616)
(0.00152003 6.76793e-05 -0.0495552)
(0.00119057 -5.21543e-05 -0.0457035)
(0.00121882 -0.000125775 -0.0452743)
(0.00102978 -0.000791024 -0.0427977)
(-0.000604598 -0.000526302 -0.0465159)
(0.00113939 -0.000128175 -0.0449484)
(0.00133477 -0.000518165 -0.0481205)
(0.00105872 -0.000171057 -0.04612)
(0.0010233 -0.00075687 -0.0425053)
(-0.00109279 -0.000486784 -0.0526342)
(0.00124623 -0.00166304 -0.0508011)
(0.00113898 0.000374424 -0.0429566)
(0.000984425 -0.000211559 -0.0440382)
(0.000626273 0.000159794 -0.0390649)
(0.00116972 -6.3596e-05 -0.0464724)
(0.00064795 0.000306854 -0.037068)
(0.00119603 0.000289197 -0.0450702)
(0.000716655 -0.000222341 -0.0470087)
(0.00128189 7.98046e-05 -0.0446843)
(-0.000863461 0.00028625 -0.0481173)
(0.00148255 0.000905679 -0.0483311)
(-0.000733398 0.000215553 -0.0469819)
(0.00156197 0.00100907 -0.0491184)
(0.00136011 -4.09084e-05 -0.0487894)
(0.00103601 -0.000781857 -0.0426465)
(0.00154489 0.000945787 -0.0491128)
(0.00143042 0.00117562 -0.0496431)
(-0.000963126 0.000360341 -0.0550573)
(0.00149472 -0.00092164 -0.0485028)
(0.0012999 0.000272254 -0.0465719)
(0.00112486 -0.000164083 -0.046757)
(0.00112968 -0.000110448 -0.0484119)
(0.00142104 8.64506e-05 -0.0469784)
(0.00136415 -0.000760327 -0.044009)
(0.00145013 0.000346744 -0.0479594)
(0.00159099 0.000958356 -0.0492048)
(0.00111892 -9.50236e-05 -0.0480788)
(0.00159671 0.000397887 -0.04906)
(0.0015073 2.10681e-05 -0.0515605)
(0.00128316 -7.49939e-05 -0.0491082)
(0.001455 1.79827e-05 -0.0514081)
(0.00146154 0.00123082 -0.0498843)
(0.00141984 -0.00141101 -0.0503283)
(0.00129651 -5.35789e-05 -0.0501862)
(0.00148948 -0.00157818 -0.0497103)
(0.00223184 -0.00277362 -0.0465598)
(0.00143975 -0.00159085 -0.0506972)
(-0.00134487 2.95871e-05 -0.0550793)
(-0.00135074 -8.73505e-05 -0.0551509)
(-0.00136485 -0.000137445 -0.0545203)
(0.00241821 -0.000208533 -0.0451426)
(0.00223229 0.00113747 -0.0453292)
(0.00116782 -7.64472e-05 -0.0459775)
(0.00130625 0.000560064 -0.0448742)
(0.00122005 -8.29144e-05 -0.0463047)
(0.00110172 -0.000115365 -0.0456955)
(0.00247342 -0.000263702 -0.0453949)
(0.00257659 0.00151495 -0.0423965)
(0.0015816 0.000949696 -0.0490506)
(0.00149609 -0.000121295 -0.0491975)
(0.00101563 0.00118746 -0.0459688)
(0.00213794 -0.000274174 -0.0523706)
(0.00165155 -0.000134666 -0.0512148)
(0.00328811 -0.000639109 -0.0518836)
(0.00161951 -0.000163617 -0.0523878)
(0.00138335 4.28535e-05 -0.0497553)
(0.00152063 0.000615435 -0.0495093)
(0.00149075 -0.00142253 -0.0483562)
(-0.00131709 5.49158e-05 -0.0549365)
(0.00154963 -0.00163143 -0.0495119)
(0.0011636 -7.87949e-05 -0.0461189)
(0.000437915 -0.000489141 -0.0405127)
(0.00104265 -0.000147877 -0.0452218)