/*--------------------------------*- C++ -*----------------------------------*\
| =========                 |                                                 |
| \\      /  F ield         | OpenFOAM: The Open Source CFD Toolbox           |
|  \\    /   O peration     | Version:  plus.master.MPPICInterFoam            |
|   \\  /    A nd           | Web:      www.OpenFOAM.com                      |
|    \\/     M anipulation  |                                                 |
\*---------------------------------------------------------------------------*/
FoamFile
{
    version     2.0;
    format      ascii;
    class       vectorField;
    location    "8.8/lagrangian/kinematicCloud";
    object      UCorrect;
}
// * * * * * * * * * * * * * * * * * * * * * * * * * * * * * * * * * * * * * //


3126
(
(-1.73573e-06 -1.21528e-06 -3.44159e-06)
(-3.91829e-06 -8.94329e-07 -0.00047139)
(-9.27189e-12 -4.26301e-12 -2.71722e-06)
(-1.24786e-07 -1.95594e-07 -3.70095e-07)
(2.13264e-06 -2.76396e-06 -7.04227e-07)
(5.75603e-06 4.96759e-07 -6.28883e-07)
(1.20673e-05 9.77109e-06 -9.58033e-08)
(2.33336e-06 1.98935e-06 -2.34154e-06)
(9.41483e-05 7.52285e-05 -9.58033e-08)
(5.77794e-06 1.31877e-06 -2.06363e-07)
(9.01086e-07 7.18593e-07 -2.34154e-06)
(0.000150273 0.000119987 1.30596e-07)
(-3.00076e-07 -3.76282e-07 -3.70095e-07)
(0.000150273 0.000119987 -3.05599e-07)
(-2.38345e-06 2.491e-06 -4.00123e-07)
(4.67338e-06 2.49651e-07 -1.14372e-06)
(3.02007e-05 3.76061e-05 -7.63366e-05)
(-3.5275e-13 -2.35947e-13 -2.5714e-12)
(-2.21032e-08 2.47177e-08 -3.64138e-07)
(0.000150273 0.000119987 -2.93844e-07)
(-8.30015e-08 -1.89501e-08 -0.000820895)
(4.04678e-05 5.04806e-05 -7.63366e-05)
(-8.30015e-08 -1.89501e-08 -0.000621775)
(1.18265e-06 1.48297e-06 -3.76587e-11)
(7.41512e-05 0.00011462 -7.63366e-05)
(-1.42067e-13 -8.79407e-13 -2.5714e-12)
(8.57868e-05 0.000107309 -0.000140456)
(-2.21032e-08 2.47177e-08 -3.35646e-07)
(-1.45569e-07 -1.82535e-07 -2.0629e-08)
(4.52296e-12 3.06678e-11 1.4586e-07)
(3.54243e-06 3.44608e-06 -6.92624e-07)
(1.0358e-07 -5.11799e-08 -5.33277e-07)
(2.45278e-06 1.84161e-06 -2.34154e-06)
(2.23343e-06 5.0976e-07 -0.00047139)
(0.000140208 0.000130053 -9.58033e-08)
(-4.27634e-08 -5.3698e-08 -1.3993e-11)
(7.35994e-05 0.000114967 -7.63366e-05)
(-1.31366e-13 -8.70873e-13 -2.5714e-12)
(7.96802e-05 0.000111146 -7.63366e-05)
(8.57868e-05 0.000107309 -0.000141882)
(3.3598e-06 7.66849e-07 -3.19509e-07)
(-3.30042e-06 -7.53304e-07 -0.00047139)
(-2.11801e-08 2.54538e-08 -1.90829e-07)
(-5.23866e-07 -1.19989e-07 -1.4646e-10)
(3.38833e-06 -7.07351e-08 -5.47015e-06)
(7.30277e-05 0.000115326 -7.63366e-05)
(1.47015e-07 1.17241e-07 4.07829e-07)
(1.94346e-07 -8.11565e-07 -0.00047139)
(-3.45871e-06 3.16663e-06 -4.00123e-07)
(0.000207073 4.72631e-05 -7.13225e-07)
(2.10283e-06 4.79952e-07 -0.00047139)
(2.10499e-06 4.80624e-07 -1.20797e-10)
(3.61379e-07 2.88192e-07 -2.34154e-06)
(3.38584e-06 -9.2799e-08 -5.47015e-06)
(1.04053e-07 -5.01984e-08 -2.8067e-06)
(3.45188e-06 8.02582e-07 -5.47015e-06)
(5.50979e-06 6.64465e-06 -7.63366e-05)
(3.42837e-06 2.84602e-07 -5.47015e-06)
(-2.58679e-07 -3.24371e-07 -3.70095e-07)
(2.74937e-07 -1.04188e-06 -0.00047139)
(3.38517e-06 -9.87638e-08 -5.47015e-06)
(0.000150273 0.000119987 9.79466e-08)
(3.81497e-06 8.70916e-07 -1.61119e-09)
(2.44016e-06 9.51015e-07 -9.2425e-07)
(3.84145e-07 -1.35398e-06 -0.00047139)
(7.92908e-05 0.000111391 -7.63366e-05)
(5.65867e-06 1.29155e-06 -2.06363e-07)
(0.000207073 4.72631e-05 -3.62511e-06)
(-1.45569e-07 -1.82535e-07 -4.46574e-08)
(6.32583e-07 -1.71157e-06 -4.01633e-10)
(-5.23866e-07 -1.19989e-07 -1.62865e-10)
(3.66961e-06 9.51015e-07 -9.2425e-07)
(0.000161515 0.000521582 -1.28958e-06)
(6.45647e-07 -1.7489e-06 -4.01633e-10)
(-3.64617e-06 -1.65132e-06 -2.49167e-06)
(-5.23866e-07 -1.19989e-07 -5.37198e-11)
(0.000477781 0.000381017 -7.93783e-07)
(1.79643e-06 -1.41379e-07 -9.2425e-07)
(8.03313e-05 0.000319336 -1.28958e-06)
(3.115e-06 5.27967e-12 -2.21721e-09)
(3.399e-06 2.39495e-08 -5.47015e-06)
(8.61741e-05 6.88693e-05 -9.58033e-08)
(1.06611e-05 -6.81084e-07 -5.40349e-07)
(7.65892e-05 0.00032019 -1.28958e-06)
(-1.35855e-06 6.66873e-06 -3.08722e-07)
(1.79008e-06 -1.97719e-07 -9.2425e-07)
(3.2619e-06 1.35008e-06 -4.62267e-11)
(1.49426e-06 -5.9396e-07 -1.63589e-06)
(0.000208476 3.48169e-05 -2.1655e-06)
(-1.02645e-07 -2.38477e-08 -5.29368e-10)
(4.87145e-06 2.1252e-06 -3.22431e-11)
(5.72142e-06 2.53453e-06 -3.22431e-11)
(7.98762e-06 1.14266e-06 2.26251e-07)
(5.8336e-05 3.63226e-05 -1.28958e-06)
(-5.97048e-07 4.81943e-07 -3.66894e-06)
(-5.97048e-07 4.81943e-07 -3.65337e-06)
(0.000170335 0.000546789 -1.28958e-06)
(-2.71747e-06 -6.20249e-07 -0.00047139)
(-9.33236e-05 -0.000373579 -1.1747e-07)
(2.7482e-06 -6.27596e-07 -1.90517e-09)
(5.73757e-06 2.5423e-06 -3.22431e-11)
(4.67338e-06 2.49651e-07 -1.08357e-06)
(2.74439e-06 9.51015e-07 -9.2425e-07)
(5.64884e-05 1.28931e-05 -2.1655e-06)
(6.21077e-07 -1.29344e-06 -1.80137e-06)
(1.09775e-06 -2.76423e-06 -1.80137e-06)
(1.80046e-06 -1.05575e-07 -9.2425e-07)
(-3.59833e-06 -8.21301e-07 -0.00047139)
(-0.000204075 -0.000734636 -5.05236e-06)
(-9.05051e-05 -0.000374222 -1.1747e-07)
(-9.28177e-05 -0.000373695 -1.1747e-07)
(8.30069e-05 0.000318726 -1.28958e-06)
(1.47015e-07 1.17241e-07 2.7366e-08)
(5.11576e-06 -1.0146e-06 -6.28883e-07)
(-1.04653e-05 2.38864e-06 2.28819e-07)
(2.77266e-06 -6.50037e-07 -1.91028e-06)
(1.55204e-11 -1.29312e-12 1.76586e-10)
(4.42746e-05 3.54555e-05 -9.58033e-08)
(-2.61834e-07 -2.08805e-07 -2.73622e-06)
(5.16543e-05 1.17897e-05 -2.1655e-06)
(-8.30015e-08 -1.89501e-08 -0.000235219)
(0.000164585 0.000530357 -1.28958e-06)
(-2.83559e-06 -1.46631e-06 -2.49167e-06)
(4.29299e-06 3.57131e-06 -9.58033e-08)
(-2.46875e-06 5.63477e-07 -2.51683e-05)
(-2.46875e-06 5.63477e-07 -2.36764e-05)
(2.93563e-06 3.68118e-06 -1.24436e-08)
(6.08814e-07 8.46285e-07 -3.76587e-11)
(3.88797e-06 3.10054e-06 -4.41078e-07)
(1.07602e-05 1.98908e-07 -1.98702e-07)
(-4.9143e-07 1.80103e-07 -3.88935e-06)
(2.40488e-06 1.91783e-06 -8.34794e-07)
(-2.46875e-06 5.63477e-07 -2.7267e-05)
(5.74186e-06 3.17745e-06 -3.70814e-06)
(3.06113e-06 1.6696e-06 -3.22431e-11)
(4.14973e-07 -1.44208e-06 -0.00047139)
(2.096e-07 -8.55158e-07 -0.00047139)
(5.92772e-06 5.35944e-07 -6.28883e-07)
(0.000124306 -3.41318e-05 1.34282e-06)
(-2.6873e-06 3.77563e-07 1.09611e-11)
(-2.46875e-06 5.63477e-07 -1.44065e-05)
(-1.97469e-07 -1.43875e-07 -1.17464e-06)
(6.21239e-07 -1.29336e-06 -1.80137e-06)
(4.67338e-06 2.49651e-07 -1.41277e-08)
(5.26321e-06 -2.04943e-06 -9.85973e-06)
(6.20733e-06 5.99765e-07 -6.28883e-07)
(7.52563e-05 0.000320495 -1.28958e-06)
(0.000597029 -0.000286276 -0.000605796)
(5.77842e-06 5.01868e-07 -6.28883e-07)
(-2.07987e-06 2.30025e-06 -4.00123e-07)
(-1.72899e-06 -1.27502e-06 -2.49167e-06)
(-2.46875e-06 5.63477e-07 -1.90317e-05)
(-2.46875e-06 5.63477e-07 -9.73711e-06)
(8.13425e-05 0.000319106 -1.28958e-06)
(1.95564e-06 -2.16744e-06 -1.01734e-11)
(-1.87347e-06 -4.27613e-07 -0.00047139)
(4.67338e-06 2.49651e-07 -1.09415e-06)
(3.58407e-06 -6.50037e-07 -1.91028e-06)
(-0.000250104 -5.09189e-05 -4.7726e-06)
(-9.05765e-05 -0.000374206 -1.1747e-07)
(-9.81147e-05 -8.56094e-05 -2.92009e-06)
(2.23932e-06 -1.35674e-06 -1.28812e-11)
(0.000618983 -0.000223535 -0.000366059)
(2.66002e-06 -6.07471e-07 -1.90517e-09)
(-6.05289e-07 6.19542e-06 -3.08722e-07)
(3.45267e-06 8.02582e-07 -5.47015e-06)
(1.91951e-06 9.51015e-07 -1.62475e-06)
(-0.000183334 -0.00073937 -1.38956e-06)
(-2.27875e-06 -5.20116e-07 -0.00047139)
(1.47015e-07 1.17241e-07 1.05196e-08)
(-6.93164e-07 -9.7732e-07 -2.49167e-06)
(-0.000123567 -0.000461046 1.4138e-06)
(-6.8218e-05 -9.24332e-05 -2.92009e-06)
(2.27445e-07 5.5574e-07 -5.19797e-07)
(7.74089e-06 9.17412e-07 -1.04933e-06)
(0.000597029 -0.000286276 -0.000685366)
(4.67338e-06 2.49651e-07 -1.22203e-06)
(-3.20395e-06 -7.31287e-07 -0.00047139)
(5.57768e-06 4.5605e-07 -6.28883e-07)
(2.22831e-05 3.92391e-06 -3.11158e-07)
(-5.39105e-05 -9.56988e-05 -2.92009e-06)
(1.07602e-05 1.98908e-07 -1.03017e-06)
(2.90046e-06 -6.50037e-07 -1.91028e-06)
(2.40488e-06 1.91783e-06 -1.23175e-06)
(1.91951e-06 9.51015e-07 -1.6703e-06)
(-2.46875e-06 5.63477e-07 -6.69192e-05)
(3.05704e-07 5.16142e-07 -5.19797e-07)
(0.000501892 -3.06035e-05 -3.06308e-06)
(-0.000186287 -0.000738696 -1.38956e-06)
(2.35656e-06 -3.16176e-07 -1.01734e-11)
(3.88797e-06 3.10054e-06 -1.29818e-06)
(8.01774e-07 -1.01223e-06 7.8303e-07)
(2.36058e-06 -2.80514e-07 -1.01734e-11)
(7.82235e-06 6.84599e-07 -1.04933e-06)
(5.88572e-07 -1.30909e-06 -3.38412e-06)
(1.46106e-06 -1.25058e-06 -3.16102e-06)
(8.43363e-06 1.39038e-06 -3.11158e-07)
(8.07805e-07 3.80982e-07 -9.05043e-06)
(-5.97048e-07 4.81943e-07 -3.65024e-06)
(6.15071e-06 4.90502e-06 -6.92624e-07)
(-1.73573e-06 -1.21528e-06 -4.36263e-06)
(4.60301e-06 8.74199e-07 -6.28883e-07)
(-1.23393e-06 6.59043e-06 -3.08722e-07)
(-1.46693e-06 1.91511e-06 -9.92763e-07)
(-0.000123536 -0.000461053 1.4138e-06)
(5.24257e-06 -1.19658e-06 4.01559e-06)
(-3.70199e-06 8.44955e-07 -4.40648e-05)
(-2.21875e-07 5.06846e-08 -2.19835e-07)
(-0.000101846 -0.000371634 -2.31609e-06)
(0.000207137 0.000432406 -1.18519e-06)
(8.10937e-06 1.17045e-06 2.26251e-07)
(-2.90417e-06 -2.17874e-06 -4.68902e-06)
(-9.2574e-07 6.39678e-06 -3.08722e-07)
(-2.33865e-05 5.3377e-06 -1.17297e-06)
(0.000207137 0.000432406 -1.1229e-06)
(4.32139e-06 3.0587e-07 3.36273e-08)
(9.77333e-05 2.23069e-05 -2.1655e-06)
(3.54839e-06 8.02582e-07 -5.47015e-06)
(1.46106e-06 -1.25058e-06 -3.3678e-06)
(0.000249132 0.000406018 -1.67163e-06)
(4.6952e-06 3.03056e-06 -3.88935e-06)
(2.40488e-06 1.91783e-06 -4.73901e-06)
(2.48768e-07 -4.88846e-07 -4.36858e-06)
(-2.90417e-06 -2.17874e-06 -4.69031e-06)
(8.99759e-05 0.000317135 -9.38506e-07)
(-0.000250104 -5.09189e-05 -3.55238e-06)
(-0.000204075 -0.000734636 -7.81749e-06)
(-0.000101846 -0.000371634 -2.02349e-06)
(2.65714e-05 6.06471e-06 -2.1655e-06)
(-5.97048e-07 4.81943e-07 -3.69881e-06)
(-2.90417e-06 -2.17874e-06 -4.41317e-06)
(-1.46693e-06 1.91511e-06 -8.91445e-07)
(2.3421e-06 1.98061e-06 -2.34154e-06)
(-3.20001e-05 7.30369e-06 -1.17297e-06)
(-5.85775e-05 -9.46335e-05 -2.92009e-06)
(1.44944e-06 3.81944e-06 -2.01709e-06)
(1.90335e-06 -1.08145e-06 -1.18846e-06)
(-8.20509e-07 8.37579e-07 -3.88935e-06)
(1.54769e-06 6.94765e-06 -5.82818e-06)
(0.000207073 4.72631e-05 -3.40602e-06)
(-5.23328e-06 1.19445e-06 -4.69305e-08)
(-0.000184537 -0.000739095 -1.38956e-06)
(-9.57994e-06 2.18656e-06 2.28819e-07)
(-0.000101846 -0.000371634 -2.10499e-06)
(0.000263832 -0.000125817 -0.000366059)
(2.13264e-06 -2.76396e-06 -8.51097e-07)
(-6.19625e-05 -9.38609e-05 -2.92009e-06)
(-9.34307e-05 -0.000373555 -1.1747e-07)
(5.26193e-06 -2.04972e-06 -9.85973e-06)
(0.000597029 -0.000286276 -1.72909e-05)
(4.67338e-06 2.49651e-07 -4.09887e-07)
(3.46399e-06 -2.6385e-08 -6.28883e-07)
(3.4036e-06 -4.01681e-08 -6.28883e-07)
(-0.000250104 -5.09189e-05 -4.74462e-06)
(-0.000101846 -0.000371634 -1.32084e-06)
(2.4943e-06 4.5056e-08 -4.36858e-06)
(-2.27878e-06 -3.966e-06 -1.18846e-06)
(-0.000189968 -0.000737856 -1.38956e-06)
(-0.000186383 -0.000738674 -1.38956e-06)
(-9.18476e-05 -0.000373916 -1.1747e-07)
(-9.63181e-05 -0.000372896 -1.1747e-07)
(0.000477781 0.000381017 -5.64214e-07)
(0.000935017 0.000745651 1.19908e-11)
(5.21776e-06 -1.19092e-06 4.01559e-06)
(-0.000204075 -0.000734636 -7.5764e-06)
(-0.000184618 -0.000739077 -1.38956e-06)
(4.18139e-10 5.36259e-08 -1.38478e-11)
(1.45294e-05 3.80982e-07 -5.82818e-06)
(3.71825e-06 3.1648e-08 -6.28883e-07)
(1.269e-05 3.80982e-07 -5.82818e-06)
(3.43526e-06 3.45814e-07 -5.47015e-06)
(-5.44579e-06 1.24296e-06 -4.69305e-08)
(-0.000186866 -0.000738564 -1.38956e-06)
(0.000163265 0.000447757 -1.67163e-06)
(4.82689e-06 2.44778e-06 -3.70814e-06)
(2.10419e-06 -1.03561e-06 -1.18846e-06)
(-0.000101846 -0.000371634 1.88156e-06)
(7.32884e-06 5.84454e-06 -6.92624e-07)
(-0.00038769 -0.00125938 -1.38956e-06)
(2.2603e-06 -3.32023e-07 -9.7951e-08)
(1.70948e-07 3.53343e-06 -2.08642e-06)
(0.000156768 0.000450031 -1.67163e-06)
(1.44944e-06 3.81944e-06 -1.19584e-06)
(-0.000129943 -0.00045959 4.60779e-07)
(-0.00018891 -0.000738097 -1.38956e-06)
(1.51685e-06 1.66944e-06 -6.43702e-07)
(6.74301e-06 5.37736e-06 -6.92624e-07)
(-7.34344e-07 1.6761e-07 1.53207e-07)
(-2.72616e-05 -4.18413e-05 -5.85902e-05)
(-0.000104581 -4.18413e-05 -0.000107365)
(-2.68245e-06 4.20595e-07 1.09611e-11)
(-8.8934e-05 -0.000374581 -1.1747e-07)
(-0.000176403 -0.000740952 -1.38956e-06)
(1.09757e-06 -5.60569e-07 1.93795e-07)
(-0.00035081 -0.00115398 -1.38956e-06)
(1.6947e-09 5.36259e-08 -1.38478e-11)
(4.03615e-06 -2.3295e-06 -9.85973e-06)
(5.23453e-06 -1.19475e-06 4.01559e-06)
(-0.000101846 -0.000371634 2.28294e-06)
(-2.66285e-05 6.07766e-06 -1.17297e-06)
(7.5313e-10 5.36259e-08 -1.38478e-11)
(4.44332e-07 9.46995e-07 -1.52858e-06)
(0.000176643 0.000443076 -1.67163e-06)
(-0.000326915 -0.00108569 -1.38956e-06)
(-0.000385046 -0.00125182 -1.38956e-06)
(2.49211e-09 5.36259e-08 -1.09563e-11)
(9.40618e-07 1.17951e-06 1.3257e-11)
(5.12913e-06 6.43174e-06 -6.40775e-09)
(2.95687e-06 2.61964e-06 -5.03034e-07)
(1.35173e-06 3.77758e-06 7.36574e-07)
(2.12688e-06 -1.3279e-06 -6.79523e-07)
(-0.000285582 -0.00090438 1.4138e-06)
(2.83123e-06 -8.6967e-07 -1.18846e-06)
(-7.57109e-05 1.72804e-05 1.7219e-06)
(2.79199e-07 -1.86703e-07 -1.02133e-06)
(-0.000168262 -0.00074281 -1.38956e-06)
(5.21216e-06 -1.18964e-06 4.01559e-06)
(-0.000101846 -0.000371634 1.70761e-06)
(-0.000433619 -0.00139063 -1.38956e-06)
(6.91447e-10 5.36259e-08 -1.38478e-11)
(0.000411077 0.00122724 -1.57509e-06)
(3.93705e-06 -2.35212e-06 -9.85973e-06)
(-3.41679e-06 -3.3216e-06 -1.85636e-05)
(1.50894e-05 3.80982e-07 -5.82818e-06)
(-4.17679e-07 3.53191e-06 -2.08642e-06)
(-0.000129943 -0.00045959 1.89336e-07)
(-7.57109e-05 1.72804e-05 1.32788e-06)
(-7.57109e-05 1.72804e-05 2.00786e-08)
(-2.24982e-05 5.13494e-06 -1.17297e-06)
(5.22734e-06 -1.19311e-06 4.01559e-06)
(-0.000321129 -0.00106916 -1.38956e-06)
(-0.000204075 -0.000734636 4.66866e-06)
(-0.000307514 -0.00103025 -1.38956e-06)
(1.68847e-05 -3.85381e-06 1.34282e-06)
(-1.35771e-05 3.09876e-06 -1.17297e-06)
(-1.0116e-05 2.30879e-06 -1.17297e-06)
(-0.000355885 -0.00116848 -1.38956e-06)
(1.44419e-06 1.65286e-06 -6.43702e-07)
(1.5074e-07 3.5405e-06 -2.08642e-06)
(4.67338e-06 2.49651e-07 -1.54181e-08)
(-1.06906e-07 -6.50037e-07 -1.78185e-06)
(-5.39436e-07 1.89747e-06 1.20103e-06)
(-7.57109e-05 1.72804e-05 2.45662e-07)
(-1.69087e-05 3.85918e-06 -1.17297e-06)
(5.05903e-06 -1.15469e-06 5.05429e-06)
(-0.000204075 -0.000734636 1.37891e-06)
(0.000126172 -2.8798e-05 2.35042e-06)
(4.23118e-06 -9.65863e-07 -1.17297e-06)
(3.0599e-08 3.1481e-06 -2.86902e-12)
(0.000246205 0.000407857 -1.67163e-06)
(-1.16665e-06 -2.66278e-07 -1.2284e-06)
(-5.97048e-07 4.81943e-07 -4.07384e-06)
(5.05903e-06 -1.15469e-06 5.04218e-06)
(0.000126172 -2.8798e-05 2.23367e-06)
(5.05903e-06 -1.15469e-06 5.02333e-06)
(1.11486e-05 1.07209e-05 -1.52936e-06)
(2.3873e-11 -3.76881e-13 3.40877e-07)
(5.44848e-06 6.56502e-06 -2.99989e-06)
(0.000692465 0.000552223 1.19908e-11)
(0.000207137 0.000432406 -2.05312e-06)
(-3.03249e-06 -1.03988e-06 -1.18846e-06)
(-0.000129943 -0.00045959 2.53333e-08)
(-4.99082e-05 1.13911e-05 -1.17297e-06)
(-8.7212e-06 1.99043e-06 -1.17297e-06)
(-2.14713e-06 -8.48604e-07 2.05197e-12)
(1.30819e-05 4.72394e-06 -1.04933e-06)
(-5.5404e-06 -3.69925e-06 -2.82171e-07)
(-0.000129943 -0.00045959 -1.57184e-07)
(-2.66125e-06 6.08721e-07 2.0804e-11)
(-0.000204075 -0.000734636 2.69129e-06)
(1.13473e-12 2.58488e-13 1.74988e-12)
(1.1382e-05 3.90533e-06 -1.04933e-06)
(-0.000129943 -0.00045959 2.6231e-06)
(5.98927e-05 -1.36701e-05 1.34282e-06)
(5.21755e-06 -1.19087e-06 4.01559e-06)
(4.42119e-06 -1.15454e-05 7.36819e-07)
(6.78014e-06 -1.01328e-06 9.75012e-13)
(0.00050049 -4.30492e-05 -3.06308e-06)
(1.44944e-06 3.81944e-06 -1.74593e-06)
(5.57537e-07 4.53705e-07 -3.11917e-07)
(2.55992e-07 -1.86703e-07 -1.02133e-06)
(1.78808e-07 -2.33408e-07 -1.02133e-06)
(-8.32186e-05 -0.000375886 -1.1747e-07)
(1.4128e-05 2.69008e-06 -3.11158e-07)
(7.75122e-06 9.45256e-06 -2.35928e-06)
(8.07805e-07 3.80982e-07 -8.03414e-06)
(-1.06906e-07 -6.50037e-07 -1.80885e-06)
(-1.96757e-05 4.49072e-06 -1.17297e-06)
(5.05903e-06 -1.15469e-06 5.03806e-06)
(-0.000204075 -0.000734636 3.70323e-06)
(-1.14026e-06 2.60258e-07 -4.40648e-05)
(2.91211e-07 6.5106e-06 5.82381e-07)
(8.11294e-05 -0.000168742 -2.32784e-07)
(-7.56145e-08 -3.72321e-07 -1.91028e-06)
(-0.000204075 -0.000734636 4.44468e-06)
(5.05903e-06 -1.15469e-06 5.07803e-06)
(-7.57109e-05 1.72804e-05 2.4751e-06)
(-0.000328716 -0.000705766 -1.17297e-06)
(-0.000204075 -0.000734636 -7.88933e-06)
(-2.46875e-06 5.63477e-07 -1.41212e-05)
(9.80937e-08 3.1481e-06 -2.86902e-12)
(-0.000204075 -0.000734636 -7.56219e-06)
(-3.76357e-07 1.89486e-08 -7.00521e-07)
(-1.22813e-07 -1.2077e-06 -2.72619e-07)
(1.82711e-06 -1.45707e-06 -4.78202e-07)
(2.40682e-06 -1.04796e-06 -1.16681e-06)
(-3.17096e-07 -9.64081e-07 -4.23987e-08)
(-1.59264e-06 3.38658e-08 -2.10807e-07)
(-1.06906e-07 -6.50037e-07 -1.90698e-06)
(1.84071e-07 -1.86703e-07 -1.76422e-06)
(5.05903e-06 -1.15469e-06 5.04686e-06)
(-0.000334784 -0.000723108 -1.17297e-06)
(0.000715638 0.000414394 -5.95238e-08)
(2.23663e-06 -3.68688e-06 -9.85973e-06)
(4.73011e-07 1.02896e-06 -1.52858e-06)
(5.11442e-06 -1.16733e-06 4.01559e-06)
(-5.59427e-06 1.27686e-06 3.80995e-09)
(4.83033e-07 -5.44236e-07 1.18753e-06)
(5.8459e-07 -2.02557e-06 6.80149e-07)
(1.31187e-10 -5.20568e-11 3.40877e-07)
(3.06777e-06 1.79821e-06 3.14175e-07)
(1.73047e-07 -2.84539e-07 -1.02133e-06)
(-0.000178997 -0.00074036 -1.38956e-06)
(-9.73815e-05 -0.000372653 -1.1747e-07)
(-4.51233e-08 -2.87322e-07 1.76428e-05)
(4.59796e-06 -5.15213e-07 1.05727e-11)
(2.38268e-05 5.17591e-05 -1.67163e-06)
(1.57253e-10 -6.46094e-11 3.40877e-07)
(1.44944e-06 3.81944e-06 -2.05741e-06)
(0.000158344 0.000126275 1.19908e-11)
(1.87576e-06 -1.57902e-06 -6.79523e-07)
(-1.33952e-12 1.27791e-13 -9.79221e-13)
(-3.54499e-05 8.09109e-06 -1.17297e-06)
(-9.85691e-05 -0.000372382 -1.1747e-07)
(2.20798e-05 4.50503e-06 -2.01295e-06)
(8.27768e-07 5.79458e-06 -1.71343e-06)
(1.08874e-13 -5.82598e-14 -5.86346e-13)
(0.000393723 -0.000670887 -2.32784e-07)
(-5.73692e-08 -2.1039e-07 -1.91028e-06)
(-0.000204075 -0.000734636 7.08314e-07)
(-8.81767e-05 -0.000250313 -1.1747e-07)
(7.53866e-07 9.45326e-07 1.3257e-11)
(2.34379e-05 5.09515e-05 -1.67163e-06)
(-3.78481e-05 0.000165823 1.64695e-07)
(2.1133e-06 -2.70596e-06 -3.70814e-06)
(0.000390803 -0.000672722 -2.32784e-07)
(2.32225e-08 5.9519e-07 -0.000539886)
(3.53512e-15 1.32362e-12 -6.42112e-12)
(3.25116e-07 -1.86703e-07 -1.02133e-06)
(-0.000204075 -0.000734636 4.19552e-06)
(3.45674e-07 -1.86703e-07 -1.02133e-06)
(-0.000129943 -0.00045959 2.64341e-06)
(-0.000113886 -0.000463255 1.4138e-06)
(9.43023e-09 1.90213e-07 -1.11708e-06)
(0.000597029 -0.000286276 -0.000140638)
(1.44944e-06 3.81944e-06 -2.10154e-06)
(5.40512e-07 4.75054e-07 -5.05971e-07)
(3.46389e-06 -7.9061e-07 7.83301e-12)
(-1.19041e-06 -3.52242e-06 -9.85973e-06)
(-1.06906e-07 -6.50037e-07 -1.79481e-06)
(-1.84647e-06 1.79821e-06 -7.86772e-07)
(1.84071e-07 -1.86703e-07 -2.02184e-06)
(2.94253e-06 -6.71737e-07 -1.17297e-06)
(-2.90417e-06 -2.17874e-06 -3.78695e-06)
(-0.000204075 -0.000734636 3.27442e-06)
(-1.44478e-06 1.55471e-07 -4.31247e-12)
(-2.07467e-06 -4.73529e-07 -1.26452e-07)
(-1.16665e-06 -2.66278e-07 -1.25254e-06)
(2.22376e-05 4.05395e-06 -3.11158e-07)
(-3.58313e-07 6.88052e-07 -2.53793e-06)
(1.1273e-05 -0.000127408 -1.37909e-07)
(-1.06906e-07 -6.50037e-07 -1.82651e-06)
(-1.06906e-07 -6.50037e-07 -1.8071e-06)
(-0.000193992 -0.000736937 -1.38956e-06)
(1.48375e-07 3.1481e-06 -1.72753e-13)
(-8.24423e-05 -0.000376063 -1.1747e-07)
(-2.07875e-06 7.97924e-06 -1.7122e-06)
(-2.99344e-10 6.21361e-10 -1.88199e-06)
(1.44944e-06 3.81944e-06 -9.89374e-07)
(6.31752e-17 -8.86767e-18 -1.43e-13)
(8.92524e-18 3.87513e-17 -2.0551e-19)
(-2.63537e-07 -5.23349e-06 -4.54881e-07)
(-9.64859e-13 3.33451e-12 -3.67833e-12)
(2.40123e-06 -1.91492e-06 -0.000412935)
(2.3443e-06 -1.86951e-06 -0.000412935)
(5.54191e-07 9.34756e-07 -8.89257e-07)
(0.000127125 -2.03391e-05 1.34282e-06)
(4.22724e-06 -9.64458e-07 -9.7951e-08)
(-9.6694e-05 -0.00037281 -1.1747e-07)
(-4.55474e-06 6.77799e-06 9.26201e-07)
(5.37053e-06 6.73444e-06 -6.40775e-09)
(0.000749556 0.000360414 1.63638e-06)
(3.9439e-07 6.72485e-06 5.82381e-07)
(0.000265018 7.48601e-05 -2.81327e-07)
(4.11562e-06 7.40251e-06 -2.35928e-06)
(7.70672e-05 5.36831e-05 -2.66321e-07)
(2.96371e-06 -1.49207e-06 -6.79523e-07)
(2.45796e-06 -1.96016e-06 -0.000412935)
(8.49745e-05 0.000165976 -0.000148434)
(-2.66125e-06 6.08721e-07 8.14836e-13)
(-2.8659e-05 6.54111e-06 -1.17297e-06)
(5.33438e-06 1.28914e-06 4.01559e-06)
(0.000122672 -3.88002e-05 1.34282e-06)
(2.32225e-08 5.9519e-07 -0.000549518)
(2.32225e-08 5.9519e-07 -0.000730297)
(-0.000101846 -0.000371634 2.70988e-07)
(0.000408192 0.00122825 -1.57509e-06)
(-7.34344e-07 1.6761e-07 2.09942e-08)
(-1.00986e-06 -4.97234e-06 -4.54881e-07)
(5.54975e-05 -0.000115517 -2.32784e-07)
(-1.06906e-07 -6.50037e-07 -1.78328e-06)
(-0.000108162 0.000473887 -0.000127242)
(3.22378e-07 1.71576e-07 8.91321e-07)
(2.66452e-06 -1.6814e-06 -9.79677e-10)
(-5.95442e-05 -4.18413e-05 -5.85902e-05)
(1.0104e-07 8.1758e-07 -0.000381685)
(4.76111e-05 0.000106512 -0.000237617)
(2.80519e-07 -2.29109e-06 6.24222e-07)
(2.49211e-09 5.36259e-08 -9.8125e-12)
(2.24445e-08 9.59104e-07 -4.85249e-10)
(-0.000104581 -4.18413e-05 -8.39291e-05)
(7.41626e-07 -1.0602e-06 1.41885e-07)
(1.0419e-06 -8.30887e-07 -8.75845e-07)
(1.95562e-05 1.92184e-06 9.26201e-07)
(9.45387e-06 -2.92244e-06 7.36819e-07)
(-8.33345e-06 1.89169e-06 6.10402e-12)
(3.07895e-06 1.79821e-06 3.14175e-07)
(2.12516e-05 -9.11838e-05 -2.0829e-12)
(-6.40954e-05 0.00028082 -0.000269218)
(-2.87869e-05 0.000126124 -0.000269218)
(-2.8791e-06 6.57128e-07 -8.62386e-09)
(0.000155381 -0.000678843 -2.0829e-12)
(1.06478e-13 5.6056e-14 -7.80963e-14)
(-5.4225e-05 0.000237575 -0.000269218)
(-4.72653e-05 0.000207083 -0.000269218)
(-9.07992e-13 3.21642e-12 -3.67833e-12)
(2.55267e-05 3.28455e-06 9.26201e-07)
(4.14436e-06 7.78268e-06 -4.06265e-07)
(-1.07113e-06 -1.45881e-06 9.18606e-07)
(-2.42149e-06 4.33021e-07 2.05197e-12)
(2.36707e-06 -1.88767e-06 -0.000412935)
(2.60859e-06 -1.6368e-06 -9.79677e-10)
(-4.19343e-08 -7.34008e-08 -1.91028e-06)
(0.000115796 -0.000505411 -2.0829e-12)
(-1.74714e-06 -1.48078e-07 1.01415e-07)
(0.000168882 -0.000737997 -2.0829e-12)
(9.39028e-05 0.000180185 -0.000148434)
(-9.12259e-13 3.22528e-12 -3.67833e-12)
(3.15054e-14 5.62321e-14 -1.77543e-17)
(-1.34726e-06 4.49865e-07 -3.60369e-07)
(3.2917e-06 -1.75363e-06 -6.79523e-07)
(-6.88868e-06 1.79821e-06 3.14175e-07)
(-2.10893e-05 9.23983e-05 -0.000269218)
(7.01539e-06 -0.000127888 -1.37909e-07)
(-0.000108162 0.000473887 -3.09657e-05)
(5.43356e-07 -7.29979e-05 -0.000273312)
(9.28656e-05 0.000178535 -0.000148434)
(1.83625e-07 1.61169e-07 -1.91745e-11)
(8.92524e-18 3.87513e-17 -1.80518e-19)
(4.27316e-08 9.59104e-07 -1.92701e-10)
(4.27316e-08 9.59104e-07 -1.01306e-10)
(1.43471e-12 4.97718e-13 1.74988e-12)
(-0.000172897 0.000217425 -4.13942e-07)
(1.12299e-05 1.24105e-08 6.00109e-07)
(-1.25728e-05 3.80982e-07 -5.82818e-06)
(-3.59836e-07 7.36032e-08 1.24082e-06)
(3.41461e-06 1.79821e-06 3.14175e-07)
(3.31816e-06 1.79821e-06 3.14175e-07)
(-1.77645e-06 2.41971e-06 3.14175e-07)
(-6.71393e-07 -5.09077e-06 -4.54881e-07)
(-1.15328e-06 1.79683e-06 1.1639e-06)
(1.02816e-16 1.64808e-16 -2.53019e-14)
(3.58621e-07 9.56791e-07 -8.89257e-07)
(-5.59153e-05 -9.52412e-05 -2.92009e-06)
(2.82151e-11 -1.19849e-10 -2.42568e-07)
(4.27316e-08 9.59104e-07 -6.24831e-11)
(4.27316e-08 9.59104e-07 -2.19239e-12)
(0.000118738 2.08717e-06 -3.06308e-06)
(-2.08203e-06 -7.44997e-07 2.05197e-12)
(5.93225e-07 -7.43879e-07 -7.08138e-13)
(-5.22484e-05 1.1915e-05 8.57012e-08)
(0.000597029 -0.000286276 -7.2096e-06)
(-1.4584e-05 3.80982e-07 -5.82818e-06)
(4.9706e-07 9.41193e-07 -8.89257e-07)
(-3.25833e-06 -1.53292e-09 1.01415e-07)
(-9.30702e-07 -1.82336e-07 -1.37247e-07)
(7.26878e-05 -0.000613375 -2.0829e-12)
(-2.97648e-06 -1.53696e-06 -1.18846e-06)
(-0.000888735 -0.000203415 2.42022e-06)
(-1.74248e-07 1.83604e-06 -8.89257e-07)
(-4.90779e-05 -4.18413e-05 -5.85902e-05)
(-0.00012832 -4.18413e-05 -5.85902e-05)
(2.32225e-08 5.9519e-07 -0.000679721)
(-2.48012e-07 -2.22626e-07 -1.60386e-06)
(0.000418767 0.000201114 -5.95238e-08)
(1.73214e-06 -1.59563e-06 3.19772e-06)
(0.000595108 0.00260165 -1.57509e-06)
(2.34021e-06 -1.42277e-06 -9.79677e-10)
(2.4288e-06 3.09722e-06 -4.06265e-07)
(-9.64696e-06 3.80982e-07 -5.82818e-06)
(-5.52772e-06 -1.89254e-06 -3.88935e-06)
(1.20988e-06 -3.81475e-06 -2.03805e-07)
(-1.46616e-05 3.80982e-07 -5.82818e-06)
(8.67785e-08 -1.24095e-08 -1.51317e-07)
(0.00013874 -0.000605933 1.0151e-06)
(-2.91467e-05 -4.18413e-05 -5.85902e-05)
(-1.9316e-05 -4.18413e-05 -5.85902e-05)
(0.000108094 0.00020277 -0.000148434)
(-7.95879e-07 3.9539e-07 1.84641e-07)
(-0.000104581 -4.18413e-05 -2.57415e-05)
(6.11574e-06 1.24105e-08 2.18054e-08)
(-1.04729e-07 4.91354e-08 5.03576e-12)
(2.20798e-05 4.50503e-06 2.4198e-06)
(1.15036e-06 1.78443e-06 -5.03034e-07)
(0.000477781 0.000381017 9.12449e-07)
(-3.41679e-06 -3.3216e-06 -1.83931e-05)
(-2.3961e-05 5.45859e-06 6.10402e-12)
(4.49731e-07 -2.19047e-06 -3.07182e-06)
(-6.5634e-08 -5.30274e-06 -4.54881e-07)
(7.0812e-05 -0.000308322 -2.0829e-12)
(-3.19255e-07 -5.21399e-06 -4.54881e-07)
(3.43478e-06 3.08668e-06 -9.07418e-10)
(6.50187e-07 9.2394e-07 -8.89257e-07)
(-0.000108162 0.000473887 -6.53472e-05)
(-1.74619e-06 -1.56483e-07 1.01415e-07)
(1.1922e-07 -0.000272322 -1.37909e-07)
(-1.69962e-05 -4.18413e-05 -5.85902e-05)
(9.75649e-05 0.000186014 -0.000148434)
(-1.59231e-06 8.95818e-07 -5.2376e-08)
(-0.000200073 -4.18413e-05 -5.85902e-05)
(-5.36387e-08 4.27769e-08 -0.000766239)
(-3.41679e-06 -3.3216e-06 -1.00972e-05)
(3.33378e-07 -4.18041e-07 -1.15084e-12)
(-5.56349e-06 -3.71037e-06 -2.82171e-07)
(-2.22563e-05 5.06949e-06 6.10402e-12)
(0.000265018 7.48601e-05 -2.82816e-07)
(-3.18841e-05 -4.77218e-05 3.70071e-07)
(4.69975e-06 -1.18604e-06 1.0019e-06)
(9.3219e-08 -2.98038e-08 2.47707e-06)
(4.76111e-05 0.000106512 -0.000123403)
(1.12652e-06 2.1508e-06 -3.25841e-07)
(-0.000104581 -4.18413e-05 -2.14476e-05)
(9.2141e-08 -3.59044e-08 -1.51317e-07)
(-5.36387e-08 4.27769e-08 -0.000701805)
(1.48375e-07 3.1481e-06 3.69491e-12)
(2.01273e-09 8.38528e-08 6.57816e-13)
(-2.99344e-10 6.21361e-10 -1.71776e-06)
(-5.88935e-13 1.1163e-12 -3.67833e-12)
(3.44056e-05 7.3183e-06 -3.11158e-07)
(-1.38043e-06 -9.14119e-06 9.26201e-07)
(-6.0911e-07 -1.13455e-05 9.26201e-07)
(1.54445e-05 9.83374e-07 9.26201e-07)
(1.1479e-05 1.24105e-08 6.00109e-07)
(-4.29457e-06 -4.82634e-06 -3.70814e-06)
(1.1922e-07 -0.000128665 -2.29961e-07)
(-6.06817e-06 -6.24073e-06 -3.70814e-06)
(-1.0906e-05 2.47885e-06 6.10402e-12)
(-1.02885e-06 -2.682e-07 -4.54881e-07)
(9.86188e-05 -0.000430152 -2.0829e-12)
(1.8466e-06 1.79821e-06 3.14175e-07)
(-4.04989e-07 2.45629e-08 -2.50576e-06)
(2.32225e-08 5.9519e-07 -3.30845e-05)
(-2.61834e-07 -2.08805e-07 -2.15068e-06)
(6.2283e-08 3.1481e-06 -2.86902e-12)
(-5.72912e-08 9.943e-08 -3.11917e-07)
(4.27316e-08 9.59104e-07 -5.94808e-11)
(-8.11931e-08 -2.95554e-07 7.30511e-05)
(1.87879e-06 3.29704e-06 9.97162e-07)
(2.98582e-05 4.27321e-06 9.26201e-07)
(-5.09321e-06 -3.4839e-06 -2.82171e-07)
(8.12915e-06 7.00922e-06 2.53074e-06)
(1.34144e-06 -2.09415e-06 -2.20986e-06)
(1.08874e-13 -5.82598e-14 -2.21839e-13)
(-2.86237e-07 1.80361e-07 6.60491e-07)
(1.20988e-06 -3.81475e-06 -1.45563e-07)
(-6.47334e-06 -6.56384e-06 -3.70814e-06)
(-2.07875e-06 7.97924e-06 -1.81247e-06)
(3.35099e-07 -3.43259e-07 -1.80138e-07)
(-0.000129943 -0.00045959 -1.49446e-07)
(-9.40344e-07 2.54061e-07 -3.8258e-07)
(-1.12547e-06 -4.92301e-07 1.36166e-07)
(-8.74345e-07 7.46195e-07 -1.58203e-06)
(-2.90417e-06 -2.17874e-06 -3.30506e-06)
(0.000104618 0.000197238 -0.000148434)
(1.58611e-06 -8.21395e-07 -4.64635e-11)
(-6.02669e-08 -2.36107e-07 -1.91028e-06)
(1.02807e-06 2.25105e-07 -1.80138e-07)
(1.66855e-06 -2.32779e-06 -1.04665e-06)
(1.56794e-07 -4.26368e-07 1.0507e-06)
(7.58172e-05 0.000320367 -1.28958e-06)
(-7.34344e-07 1.6761e-07 2.47962e-06)
(2.92984e-06 1.94762e-06 -6.6815e-07)
(-1.53473e-06 1.88389e-06 3.41235e-07)
(-1.73573e-06 -1.21528e-06 -4.8019e-06)
(1.08874e-13 1.34462e-13 -4.19495e-13)
(1.00645e-13 1.85963e-11 -1.24847e-07)
(0.000230145 -5.2529e-05 1.34282e-06)
(2.31608e-10 5.57486e-11 3.67363e-14)
(-2.05459e-06 -4.68946e-07 -1.26452e-07)
(-1.27673e-06 7.10713e-07 -1.26452e-07)
(2.16006e-06 8.63753e-06 1.03931e-06)
(-6.22379e-07 -1.13076e-05 9.26201e-07)
(3.08781e-06 2.53736e-06 -5.03034e-07)
(1.09264e-08 -4.78669e-08 -7.29117e-07)
(-5.03576e-07 1.15447e-07 7.18903e-08)
(-1.31908e-06 -8.00436e-07 1.36166e-07)
(2.35728e-07 -1.43337e-07 -1.56416e-08)
(1.59111e-07 -4.25557e-07 1.0507e-06)
(-3.83189e-12 3.19843e-06 -1.76101e-06)
(-1.33406e-07 4.91536e-07 -3.23186e-10)
(-0.000191769 0.000242145 3.9445e-05)
(-2.61834e-07 -2.08805e-07 -2.57441e-06)
(-1.14886e-12 2.47588e-13 -9.79221e-13)
(2.0252e-06 8.87298e-06 2.35286e-06)
(5.41622e-06 6.79175e-06 -6.40775e-09)
(1.02161e-05 -2.09983e-07 9.26201e-07)
(2.51312e-06 3.04424e-06 -4.06265e-07)
(-3.19414e-06 -2.99882e-06 1.60383e-06)
(1.46106e-06 -1.25058e-06 -7.46944e-06)
(-5.22484e-05 1.1915e-05 8.52312e-08)
(8.07805e-07 3.80982e-07 -8.43093e-06)
(3.24473e-11 -9.36891e-11 -1.63025e-07)
(2.57754e-13 7.1884e-13 -7.80963e-14)
(-1.24886e-07 6.03275e-08 -4.6389e-07)
(2.36777e-17 1.73725e-16 -1.43e-13)
(2.15075e-13 3.84099e-13 -7.80963e-14)
(7.78852e-07 -8.21415e-08 -2.67625e-07)
(-5.36387e-08 4.27769e-08 -0.000717577)
(-3.98514e-07 1.65232e-07 -3.20011e-11)
(0.000127171 -1.99337e-05 1.34282e-06)
(-5.00861e-07 -9.33428e-07 -2.49167e-06)
(2.81872e-05 3.8918e-06 9.26201e-07)
(-3.41679e-06 -3.3216e-06 -1.91394e-05)
(-1.07775e-06 -9.13957e-07 -2.61682e-07)
(-0.000506782 -0.000116237 1.89165e-06)
(-4.2029e-06 3.65537e-06 9.26201e-07)
(-7.27664e-07 -1.02993e-06 -0.000412935)
(-2.07875e-06 7.97924e-06 -3.24851e-07)
(1.3106e-07 -4.90976e-07 -1.26e-06)
(7.69851e-10 1.22039e-10 3.67363e-14)
(1.82197e-13 3.87803e-13 -2.44799e-14)
(-2.58883e-06 -3.06716e-07 4.36597e-06)