/*--------------------------------*- C++ -*----------------------------------*\
| =========                 |                                                 |
| \\      /  F ield         | OpenFOAM: The Open Source CFD Toolbox           |
|  \\    /   O peration     | Version:  plus.master.MPPICInterFoam            |
|   \\  /    A nd           | Web:      www.OpenFOAM.com                      |
|    \\/     M anipulation  |                                                 |
\*---------------------------------------------------------------------------*/
FoamFile
{
    version     2.0;
    format      ascii;
    class       volScalarField;
    location    "4.6";
    object      nut;
}
// * * * * * * * * * * * * * * * * * * * * * * * * * * * * * * * * * * * * * //

dimensions      [0 2 -1 0 0 0 0];

internalField   nonuniform List<scalar> 
11822
(
0.000611867
0.00064948
0.000674367
0.000684106
0.000678528
0.000657598
0.000622935
0.000649734
0.000694641
0.000728353
0.000741112
0.000732681
0.000703445
0.000662163
0.000676301
0.000731618
0.000774905
0.000782308
0.000778685
0.000741385
0.000689677
0.000687528
0.000748014
0.000786359
0.000774741
0.000788166
0.000758922
0.000701455
0.000681987
0.000741615
0.000785161
0.00078352
0.000788368
0.000751355
0.000695219
0.000659253
0.000711871
0.000754652
0.000769263
0.000757788
0.000719988
0.000671524
0.000621239
0.000664988
0.000696239
0.000708263
0.000699912
0.000672774
0.000632475
0.000607454
0.000646449
0.000673026
0.000684131
0.000678306
0.00065615
0.000619626
0.000645724
0.000691778
0.000725312
0.000739782
0.000731718
0.000703979
0.00066071
0.000672288
0.000726703
0.00077033
0.000791755
0.000778184
0.000741701
0.000689895
0.000683274
0.000742909
0.000796049
0.000830174
0.000806137
0.000759103
0.000702049
0.000676589
0.000735398
0.000787347
0.000817209
0.000795609
0.00075077
0.000694742
0.000652519
0.000704381
0.000747638
0.000766098
0.00075623
0.00071811
0.000668214
0.000613765
0.000657522
0.000689338
0.00070293
0.000695309
0.00066786
0.00062651
0.000604156
0.00064485
0.000674526
0.000687636
0.000680978
0.000655931
0.000616814
0.000643735
0.000696661
0.000740632
0.000757068
0.000749513
0.000713511
0.000660767
0.000672579
0.000741956
0.000805003
0.000813308
0.000806795
0.00076778
0.000694821
0.000684552
0.000759548
0.000836189
0.000842174
0.000835663
0.000796336
0.000709817
0.000676741
0.000749152
0.000830676
0.000841008
0.000835702
0.00077794
0.000700254
0.000650063
0.000711495
0.000764601
0.000799483
0.000779351
0.000729904
0.000667764
0.000609158
0.000655051
0.000690746
0.000706531
0.000697679
0.000666499
0.000622231
0.000599408
0.000639096
0.000669723
0.000685281
0.000676971
0.000649701
0.000611083
0.00063799
0.000693755
0.000745409
0.00077633
0.000759073
0.000712283
0.000654425
0.000667982
0.000743592
0.00081467
0.00084068
0.000845792
0.000765513
0.000689013
0.000682861
0.000763613
0.000829775
0.000828231
0.000836694
0.000793629
0.000702527
0.000673875
0.000748548
0.000795573
0.000818445
0.000825686
0.000772333
0.000695141
0.00064364
0.000709307
0.00075349
0.00078184
0.000766374
0.000724968
0.00066054
0.000603339
0.000648484
0.000685521
0.000697617
0.0006915
0.000658771
0.000615031
0.000592463
0.000625875
0.000650616
0.000663264
0.000656575
0.000633816
0.000601415
0.000624502
0.000659712
0.00068523
0.000696645
0.000695761
0.000668577
0.000635013
0.00064817
0.000683023
0.000661118
0.000740441
0.000659175
0.000674839
0.00065778
0.00066188
0.000710856
0.000674565
0.000754542
0.000740203
0.000652699
0.000672507
0.000652535
0.000697985
0.00067821
0.000744106
0.000661611
0.000663183
0.000659428
0.000627394
0.000660387
0.000675268
0.000655294
0.000656491
0.000662615
0.000636362
0.000593716
0.000627779
0.000652131
0.000667952
0.000655963
0.00063463
0.000602321
0.000593929
0.000621917
0.000639462
0.000647089
0.0006421
0.000626882
0.000600382
0.000619376
0.000634524
0.000634388
0.000630157
0.000631718
0.000632383
0.000624143
0.000633375
0.00062832
0.000664518
0.000663436
0.000663222
0.000643436
0.000631943
0.000638948
0.000615931
0.000698701
0.000744981
0.000669739
0.000664898
0.000635059
0.000632729
0.00061532
0.000677223
0.000672521
0.000673638
0.000652333
0.000629818
0.000617367
0.000620518
0.000635611
0.000665196
0.000652169
0.000620607
0.000621465
0.000591963
0.000614629
0.000622875
0.000627668
0.000624655
0.000619353
0.00059874
0.000580015
0.00053873
0.000490101
0.000431542
0.000358576
0.000264653
0.000142924
1.74473e-05
0.000615353
0.000570279
0.000519781
0.000460374
0.000386632
0.000290143
0.000160635
1.98218e-05
0.00063883
0.000591197
0.000538805
0.000478318
0.000403933
0.000306053
0.000172
2.14661e-05
0.000648248
0.000599293
0.000545893
0.000484804
0.000410176
0.000311931
0.000176294
2.21069e-05
0.000642294
0.000593523
0.000540387
0.000479592
0.000405319
0.000307637
0.000173189
2.16171e-05
0.000621235
0.000574325
0.000522707
0.000462957
0.000389491
0.000293239
0.000162808
2.00806e-05
0.000586363
0.000543488
0.000494047
0.000435458
0.00036292
0.00026902
0.000145726
1.77602e-05
0.000575904
0.000534691
0.000486614
0.000428745
0.00035635
0.000262789
0.000141571
1.74032e-05
0.000611639
0.00056575
0.000515519
0.000456928
0.000384011
0.000288034
0.000159033
1.97613e-05
0.00063585
0.000586362
0.000533772
0.000474099
0.000400761
0.000303594
0.000170118
2.13927e-05
0.000645463
0.000594142
0.000540289
0.000480025
0.000406595
0.000309206
0.00017422
2.20251e-05
0.000638532
0.000587815
0.000534513
0.000474691
0.000401663
0.000304833
0.000171055
2.15302e-05
0.000615783
0.000568107
0.000516975
0.000458375
0.000386045
0.000290483
0.000160708
1.99941e-05
0.000579916
0.000537322
0.000488771
0.000431277
0.000359619
0.000266233
0.000143681
1.76811e-05
0.000572348
0.000531776
0.00048473
0.000427985
0.000356508
0.000263388
0.000141971
1.73954e-05
0.000608129
0.000561944
0.000512622
0.000455412
0.000383739
0.00028843
0.000159304
1.97438e-05
0.000633105
0.000581951
0.000529957
0.000471858
0.000400126
0.000303899
0.000170364
2.1376e-05
0.000643115
0.00058934
0.000535926
0.000477354
0.000405745
0.000309459
0.000174442
2.20089e-05
0.00063541
0.000582794
0.000530132
0.000472071
0.000400847
0.000305052
0.000171209
2.15098e-05
0.000611212
0.000563172
0.000513157
0.00045628
0.000385472
0.000290657
0.000160746
1.99689e-05
0.000574879
0.000533079
0.00048587
0.000429851
0.000359311
0.000266373
0.000143667
1.76592e-05
0.00056788
0.000529215
0.000484098
0.000429196
0.000359199
0.000266822
0.000144582
1.74519e-05
0.000601825
0.000557532
0.000510541
0.000455702
0.000385966
0.000291735
0.000161985
1.98008e-05
0.000625307
0.000576002
0.000526625
0.000471405
0.000402124
0.000307334
0.000173283
2.14453e-05
0.000634415
0.000582653
0.00053201
0.000476566
0.000407679
0.000313004
0.000177491
2.20853e-05
0.000626917
0.000576212
0.000526382
0.000471471
0.000402908
0.0003086
0.000174167
2.15834e-05
0.000603729
0.000557816
0.00051052
0.000456448
0.000387845
0.000294112
0.000163445
2.00328e-05
0.000569192
0.00052965
0.000484816
0.000431034
0.000362125
0.000269825
0.000146178
1.77198e-05
0.000562974
0.000527882
0.000485806
0.000433411
0.000365173
0.000273228
0.00014884
1.77429e-05
0.000592079
0.000553224
0.000510425
0.000458914
0.000391532
0.000298216
0.000166563
2.01514e-05
0.000610882
0.000569103
0.000524898
0.00047379
0.000407493
0.000314079
0.000178269
2.18557e-05
0.000618984
0.00057497
0.000529657
0.000478598
0.000412993
0.000319899
0.000182672
2.25191e-05
0.000611047
0.000568627
0.000524329
0.00047384
0.00040842
0.000315468
0.000179179
2.20022e-05
0.000591983
0.000552487
0.000510055
0.000459793
0.000393722
0.000300804
0.000168061
2.03975e-05
0.000562705
0.000527551
0.000486437
0.000435558
0.000368448
0.000276401
0.000150436
1.80246e-05
0.00056747
0.000536521
0.000498388
0.000449468
0.000383699
0.000291012
0.000158272
1.96667e-05
0.000591871
0.00055886
0.000521012
0.000473701
0.000409527
0.000316494
0.000177048
2.23223e-05
0.000607222
0.000572239
0.000533855
0.000487647
0.000425109
0.000332624
0.000189472
2.4205e-05
0.000613143
0.000576748
0.000537753
0.000492026
0.00043049
0.000338551
0.000194148
2.49316e-05
0.000607173
0.000571371
0.000533084
0.000487684
0.000426029
0.000333879
0.000190282
2.43365e-05
0.000590517
0.000557414
0.000520416
0.000474546
0.000411557
0.000318714
0.000178315
2.25414e-05
0.000565693
0.00053541
0.00049869
0.00045136
0.000386501
0.000293551
0.000159516
1.99061e-05
0.000573899
0.00053123
0.000482269
0.000424322
0.00035256
0.000259991
0.000139817
1.7549e-05
0.000607057
0.000559988
0.000508846
0.000449871
0.00037729
0.000282401
0.000155392
1.98147e-05
0.000626901
0.000577718
0.000525092
0.000465254
0.000392025
0.000295759
0.000164861
2.13173e-05
0.000632336
0.00058297
0.000530141
0.000470094
0.000396568
0.000299751
0.000167693
2.18045e-05
0.000623511
0.000575559
0.000523697
0.000464142
0.000390711
0.000294161
0.000163635
2.11898e-05
0.000601425
0.000556299
0.000506307
0.000447592
0.000374568
0.000279309
0.00015319
1.95969e-05
0.000567969
0.000526941
0.000478807
0.000420773
0.000348422
0.000255721
0.000137063
1.72868e-05
0.000566936
0.000525039
0.000477178
0.000420243
0.000349124
0.000256913
0.000137616
1.74985e-05
0.00060017
0.000553383
0.000503257
0.000445526
0.000373879
0.00027947
0.000153208
1.97692e-05
0.000620778
0.000571222
0.000519293
0.000460677
0.000388511
0.00029282
0.000162635
2.12771e-05
0.00062708
0.000576989
0.000524657
0.000465677
0.000393195
0.000296971
0.000165592
2.17768e-05
0.000618485
0.000570048
0.000518734
0.000460208
0.000387693
0.000291673
0.000161786
2.11761e-05
0.000596528
0.00055144
0.00050215
0.000444337
0.000372025
0.000277176
0.000151643
1.95938e-05
0.000563435
0.000522871
0.000475422
0.000418061
0.000346191
0.000253797
0.000135721
1.72898e-05
0.000562315
0.00052151
0.000475064
0.000419427
0.00034912
0.000257124
0.00013766
1.7523e-05
0.000595468
0.000549114
0.000500427
0.000444345
0.000373897
0.000279913
0.000153401
1.98081e-05
0.000616739
0.000566753
0.000516031
0.000459192
0.000388486
0.000293421
0.000162986
2.13323e-05
0.000623577
0.000572718
0.000521423
0.000464221
0.00039323
0.000297721
0.000166103
2.18433e-05
0.000614839
0.000566114
0.000516002
0.000459123
0.000387954
0.000292564
0.00016241
2.12446e-05
0.00059277
0.000548182
0.000500176
0.000443781
0.000372552
0.000278165
0.000152313
1.96565e-05
0.000560202
0.000520626
0.000474325
0.000418051
0.000346966
0.000254861
0.000136419
1.73445e-05
0.000558254
0.000519648
0.000475429
0.000421684
0.000352617
0.000260949
0.00014036
1.76302e-05
0.00058996
0.000545758
0.000499682
0.000446028
0.00037728
0.000283924
0.000156361
1.99335e-05
0.000611287
0.000562673
0.000514528
0.000460421
0.000391801
0.000297678
0.000166269
2.14795e-05
0.000618422
0.000568632
0.000519778
0.000465328
0.000396518
0.000302081
0.000169538
2.19996e-05
0.000609426
0.000562393
0.000514808
0.000460463
0.000391295
0.000296897
0.000165792
2.1395e-05
0.000588041
0.000545536
0.000499857
0.000445615
0.000376019
0.000282377
0.000155482
1.97892e-05
0.00055714
0.000519518
0.000475087
0.000420485
0.000350665
0.000259036
0.000139412
1.74591e-05
0.000554257
0.000519563
0.000478573
0.00042723
0.000359581
0.000267928
0.000144867
1.79496e-05
0.000582214
0.000543223
0.0005013
0.000450774
0.000383993
0.0002911
0.000161257
2.03137e-05
0.000600847
0.000558407
0.000514945
0.000464489
0.000398319
0.000305079
0.000171546
2.19179e-05
0.000607836
0.000564109
0.000519879
0.0004691
0.000402887
0.000309514
0.000174939
2.24599e-05
0.000600058
0.00055871
0.000515407
0.000464436
0.000397654
0.000304197
0.000171031
2.18367e-05
0.000581847
0.000543809
0.000501644
0.000450136
0.00038245
0.000289427
0.000160352
2.01758e-05
0.000554477
0.000519958
0.000478134
0.000425646
0.000357295
0.000265892
0.000143895
1.77791e-05
0.000558864
0.000528565
0.000491246
0.000442866
0.000377207
0.000284847
0.000154139
1.96889e-05
0.000582781
0.000549728
0.000512361
0.00046534
0.00040111
0.000308415
0.000171557
2.22428e-05
0.00059852
0.000562916
0.00052466
0.000478194
0.000415014
0.000322601
0.000182555
2.39809e-05
0.00060463
0.000567999
0.000529055
0.000482414
0.00041937
0.000327095
0.00018621
2.4568e-05
0.000598981
0.000563816
0.000525222
0.000477999
0.000414181
0.000321676
0.000182044
2.38892e-05
0.000584337
0.000551044
0.000512673
0.000464375
0.000399348
0.000306765
0.000170731
2.20895e-05
0.000560643
0.000529391
0.000490638
0.000440984
0.000374822
0.000282962
0.000153311
1.95071e-05
0.000568491
0.000527555
0.000479416
0.000421315
0.000348873
0.000256079
0.000137324
1.72808e-05
0.000602392
0.000558002
0.000508342
0.000449623
0.000376383
0.000280823
0.000154289
1.95833e-05
0.00062437
0.000578083
0.000527139
0.000467695
0.000393878
0.000296739
0.000165489
2.11635e-05
0.00063318
0.000586279
0.000534763
0.000474986
0.000400912
0.000303196
0.000170102
2.17537e-05
0.000628353
0.000581951
0.00053075
0.000471104
0.0003971
0.000299685
0.00016756
2.12384e-05
0.000609893
0.000565221
0.000515135
0.000456042
0.000382486
0.000286359
0.000158095
1.97072e-05
0.000578448
0.00053718
0.000488614
0.000430107
0.000357215
0.000263443
0.000142147
1.74165e-05
0.000564118
0.000523558
0.000476056
0.000418605
0.000346639
0.000254169
0.000135996
1.72804e-05
0.000598327
0.000553709
0.000504567
0.000446649
0.000374101
0.00027898
0.000152953
1.95797e-05
0.000621189
0.000573848
0.000523026
0.000464381
0.000391397
0.00029482
0.000164081
2.11471e-05
0.000630771
0.000582278
0.000530619
0.000471503
0.000398295
0.000301208
0.000168647
2.17256e-05
0.00062566
0.000577862
0.000526599
0.000467654
0.000394517
0.000297715
0.000166115
2.12013e-05
0.000606429
0.000561049
0.000511264
0.000452924
0.000380121
0.000284489
0.000156708
1.96675e-05
0.000574399
0.000533163
0.000485111
0.000427278
0.000354929
0.00026152
0.000140774
1.73727e-05
0.000560922
0.00052131
0.000474935
0.000418571
0.000347414
0.000255266
0.000136729
1.73277e-05
0.000594858
0.000550583
0.000502594
0.000446042
0.00037462
0.000280058
0.000153728
1.96255e-05
0.000618303
0.0005703
0.000520351
0.000463188
0.000391606
0.000295822
0.000164869
2.11898e-05
0.000628554
0.000578704
0.000527643
0.00047001
0.000398293
0.000302113
0.000169402
2.17594e-05
0.000623073
0.000574205
0.000523657
0.000466172
0.000394472
0.000298531
0.000166781
2.12201e-05
0.000603118
0.000557562
0.000508743
0.000451757
0.000380171
0.000285211
0.00015725
1.96697e-05
0.00057089
0.00053026
0.000483233
0.000426532
0.000355128
0.000262202
0.000141237
1.73677e-05
0.000557823
0.000520139
0.000475628
0.000420948
0.000351078
0.000259438
0.000139753
1.74323e-05
0.000590063
0.000547755
0.000501991
0.00044755
0.000377808
0.000284115
0.00015687
1.97322e-05
0.000612758
0.000566294
0.00051867
0.000463963
0.000394416
0.00029982
0.000168124
2.12993e-05
0.000623139
0.000574268
0.000525398
0.000470335
0.000400837
0.000306019
0.000172675
2.18631e-05
0.000617335
0.000569748
0.000521457
0.000466479
0.000396937
0.000302299
0.000169914
2.13076e-05
0.000597485
0.000553745
0.000507176
0.000452444
0.000382727
0.000288811
0.000160141
1.97365e-05
0.000566546
0.000527778
0.000482703
0.000427871
0.000357964
0.000265771
0.000143944
1.74255e-05
0.000555147
0.000520548
0.00047864
0.00042607
0.00035768
0.000266287
0.000144246
1.77367e-05
0.000583856
0.000545822
0.00050345
0.000451668
0.000383859
0.000290892
0.000161607
2.00904e-05
0.000603556
0.000562348
0.000518759
0.000467242
0.000400077
0.000306612
0.000173114
2.1706e-05
0.000612527
0.000569319
0.000524759
0.000473173
0.000406297
0.000312818
0.000177774
2.22852e-05
0.000607091
0.000564976
0.000520929
0.000469397
0.000402401
0.000308998
0.000174871
2.17058e-05
0.000589541
0.000550477
0.000507662
0.000455946
0.000388404
0.000295368
0.000164781
2.00799e-05
0.000561939
0.000526683
0.000484615
0.00043226
0.000364083
0.000272329
0.000148306
1.77114e-05
0.00056131
0.00052999
0.00049119
0.0004415
0.000375339
0.000283475
0.000153693
1.94873e-05
0.000586723
0.000553165
0.000514522
0.000466029
0.000401018
0.000308537
0.00017211
2.20748e-05
0.000603412
0.000567749
0.000528577
0.000480844
0.000416918
0.000324542
0.000184318
2.38718e-05
0.00061068
0.000573593
0.000533963
0.00048653
0.000423146
0.00033096
0.00018926
2.45454e-05
0.000605774
0.000569708
0.00053056
0.000483144
0.000419578
0.000327269
0.000186148
2.39451e-05
0.000590846
0.000557008
0.000518592
0.000470707
0.000406223
0.000313569
0.000175372
2.2193e-05
0.000566675
0.000535552
0.000497327
0.000448375
0.000382628
0.000290167
0.00015781
1.96198e-05
0.00058606
0.000543154
0.000493739
0.000435268
0.000362901
0.000269134
0.000145817
1.77984e-05
0.000621137
0.00057341
0.000521363
0.000461556
0.000388342
0.00029246
0.000162307
2.0165e-05
0.000643167
0.000592382
0.000538122
0.000476976
0.000403016
0.000305986
0.000172128
2.1747e-05
0.000649424
0.000597534
0.00054253
0.000480944
0.000406765
0.000309467
0.00017471
2.22676e-05
0.000639072
0.000588198
0.000534121
0.000473284
0.000399599
0.000302902
0.000169954
2.16372e-05
0.000613355
0.00056568
0.000513968
0.000454583
0.000381792
0.000286579
0.00015826
1.99753e-05
0.000575559
0.000532817
0.000483781
0.000425702
0.000353797
0.00026104
0.000140475
1.75786e-05
0.000579379
0.000536814
0.000488344
0.000430993
0.000359506
0.000266243
0.000143694
1.77148e-05
0.000614374
0.00056622
0.00051492
0.000456447
0.000384475
0.000289332
0.000159951
2.0065e-05
0.000636597
0.000584653
0.000530803
0.000471042
0.000398571
0.000302499
0.000169501
2.16412e-05
0.000642791
0.000589618
0.000534935
0.000474734
0.000402094
0.000305791
0.000171933
2.21672e-05
0.000631778
0.000580342
0.000526956
0.000467506
0.000395212
0.000299365
0.000167272
2.15495e-05
0.000605767
0.000558368
0.000507714
0.000449687
0.000377976
0.000283341
0.000155825
1.9909e-05
0.000568451
0.000526515
0.000478571
0.00042154
0.000350342
0.000257996
0.000138314
1.75303e-05
0.00057419
0.000532465
0.000485366
0.000429489
0.000359094
0.000266244
0.000143562
1.76941e-05
0.000609066
0.000560798
0.000510794
0.000454156
0.000383743
0.000289309
0.000159796
2.00488e-05
0.000631712
0.000578585
0.000525809
0.000468095
0.000397559
0.000302486
0.000169407
2.16385e-05
0.000638048
0.00058341
0.000529783
0.000471661
0.000401034
0.000305785
0.000171862
2.21748e-05
0.000626822
0.000574536
0.000522328
0.000464907
0.000394403
0.000299401
0.000167194
2.15612e-05
0.000600521
0.000553452
0.000504251
0.000447961
0.000377576
0.00028344
0.000155757
1.99236e-05
0.000563734
0.000522947
0.000476406
0.000420676
0.000350319
0.000258208
0.000138354
1.75513e-05
0.000568452
0.000529002
0.000484274
0.000430609
0.000361806
0.000269555
0.000145926
1.77564e-05
0.000601395
0.000555405
0.000508212
0.000454437
0.000386219
0.000292769
0.000162388
2.01283e-05
0.000622863
0.000571943
0.000522195
0.00046779
0.000399951
0.00030622
0.000172345
2.17432e-05
0.000628905
0.000576658
0.000526081
0.000471364
0.000403514
0.00030967
0.000174968
2.22937e-05
0.00061873
0.000568557
0.000519321
0.000465118
0.000397117
0.000303267
0.000170197
2.16805e-05
0.000594015
0.000549226
0.000502759
0.000449118
0.000380602
0.000287175
0.000158518
2.00331e-05
0.000559485
0.000520995
0.000476674
0.000422859
0.000353755
0.000261961
0.000140989
1.76556e-05
0.000561937
0.000526847
0.000485818
0.000435044
0.000368018
0.00027599
0.000150077
1.80645e-05
0.00058975
0.000550189
0.000507901
0.000457981
0.00039227
0.000299543
0.000166998
2.05087e-05
0.000607207
0.000564667
0.000520525
0.000470629
0.000405915
0.000313373
0.00017744
2.21847e-05
0.000614016
0.000569523
0.000524345
0.000474143
0.000409524
0.000317005
0.000180294
2.2757e-05
0.000604137
0.000562155
0.000518422
0.000468498
0.000403365
0.000310546
0.000175363
2.21227e-05
0.000584349
0.000545609
0.000503712
0.000453501
0.00038713
0.000294209
0.000163288
2.04176e-05
0.000555222
0.000520691
0.000479644
0.000428304
0.000360652
0.000268868
0.000145426
1.79825e-05
0.000564919
0.000534622
0.00049791
0.000450611
0.000385779
0.000292896
0.000159051
1.99082e-05
0.00058812
0.000554916
0.000517972
0.000472285
0.000409482
0.000316865
0.000177019
2.25486e-05
0.000603043
0.000567208
0.000529014
0.000484005
0.000422757
0.000330956
0.000188191
2.43621e-05
0.000607535
0.000571117
0.000532257
0.000487211
0.000426275
0.000334754
0.000191404
2.49762e-05
0.00060055
0.00056531
0.000527392
0.000482077
0.000420226
0.000328138
0.00018621
2.42654e-05
0.000583841
0.000551299
0.00051437
0.000467986
0.000404285
0.000311482
0.000173436
2.23901e-05
0.000559613
0.00052943
0.000492177
0.000443892
0.000378263
0.000285765
0.000154667
1.97388e-05
1.07373e-05
7.89178e-05
0.000116432
0.000143846
0.000167521
0.000188137
0.000204843
0.000215556
1.08014e-05
7.89992e-05
0.000116572
0.000144371
0.000168569
0.000189799
0.000207121
0.000218337
1.08175e-05
7.85755e-05
0.000115996
0.000144113
0.000168824
0.000190664
0.000208596
0.000220332
1.07971e-05
7.79382e-05
0.000115173
0.000143604
0.000168829
0.00019123
0.000209668
0.000221809
1.07466e-05
7.73023e-05
0.00011437
0.000143037
0.000168649
0.00019143
0.000210166
0.000222506
1.06924e-05
7.69548e-05
0.00011395
0.000142701
0.000168453
0.000191333
0.000210113
0.00022245
1.0652e-05
7.69505e-05
0.000113951
0.000142555
0.000168102
0.000190715
0.000209236
0.000221372
1.26604e-05
9.45329e-05
0.000140122
0.000171769
0.000198191
0.000220828
0.000240083
0.000253021
1.27233e-05
9.45483e-05
0.000140119
0.000172228
0.000199303
0.000222812
0.00024277
0.000256175
1.27291e-05
9.40615e-05
0.000139448
0.000171952
0.000199618
0.00022389
0.00024447
0.000258339
1.27031e-05
9.35107e-05
0.000138822
0.000171775
0.000200027
0.000224875
0.000245882
0.000260058
1.26641e-05
9.31426e-05
0.000138468
0.000171771
0.000200421
0.000225587
0.000246798
0.000261081
1.26355e-05
9.31093e-05
0.000138496
0.000171902
0.000200621
0.000225764
0.000246947
0.000261194
1.26142e-05
9.32312e-05
0.000138613
0.000171753
0.000200105
0.000224781
0.000245642
0.000259713
1.4809e-05
0.000108821
0.000160882
0.000197531
0.000228345
0.000255983
0.000279101
0.000294078
1.49191e-05
0.000109063
0.000161312
0.000198779
0.000230544
0.000259156
0.000282568
0.000297684
1.49602e-05
0.000108787
0.000161021
0.000199101
0.000231619
0.000261037
0.000284669
0.000299982
1.49646e-05
0.000108644
0.000161088
0.000199788
0.000232933
0.000262825
0.000286537
0.000301921
1.49727e-05
0.000108785
0.000161467
0.00020058
0.000234095
0.000264188
0.00028793
0.000303281
1.49913e-05
0.00010909
0.000161849
0.000200985
0.00023447
0.000264506
0.00028821
0.000303516
1.49788e-05
0.000109117
0.000161617
0.000200225
0.000233165
0.000262711
0.00028622
0.000301452
1.77718e-05
0.000123173
0.000183755
0.00023185
0.000271607
0.000304321
0.000328396
0.000342916
1.80197e-05
0.000124427
0.000186209
0.000235496
0.000275872
0.000308602
0.000332549
0.000346923
1.81751e-05
0.000124995
0.000187701
0.000237398
0.000278172
0.000311057
0.000335005
0.000349372
1.8269e-05
0.000125785
0.000189376
0.000239634
0.000280841
0.000313653
0.00033743
0.000351626
1.8382e-05
0.000126791
0.00019108
0.000241826
0.000283271
0.000316
0.000339566
0.000353518
1.84889e-05
0.000127541
0.000192053
0.000243043
0.000284532
0.00031707
0.000340375
0.0003541
1.84753e-05
0.000127233
0.000191139
0.000241839
0.000283005
0.000315196
0.000338166
0.000351671
2.2833e-05
0.000154399
0.000235013
0.000296757
0.000341999
0.000373578
0.000393599
0.000403066
2.33759e-05
0.00015743
0.000239211
0.000301454
0.000346673
0.000378006
0.000397736
0.000406944
2.38114e-05
0.000159246
0.000241844
0.000304454
0.000349444
0.000380416
0.000400128
0.000409226
2.41064e-05
0.000161191
0.000244621
0.000307362
0.000352474
0.00038358
0.000402948
0.000411697
2.44216e-05
0.000163963
0.000248514
0.000311626
0.000356596
0.000387231
0.000406038
0.000414264
2.46874e-05
0.000166473
0.000252023
0.000315425
0.000360036
0.000389944
0.000407991
0.000415609
2.46571e-05
0.000166776
0.000252426
0.000315762
0.000359962
0.000389203
0.000406505
0.000413493
3.98372e-05
0.000221832
0.00033457
0.000403206
0.000444243
0.000466046
0.000474207
0.000471938
4.04615e-05
0.000224564
0.000337795
0.00040672
0.000447751
0.000469362
0.000477273
0.000474866
4.11179e-05
0.000226928
0.000339654
0.000408292
0.000449312
0.000470812
0.00047882
0.000476411
4.16147e-05
0.000229874
0.000342825
0.000411242
0.000451798
0.000473328
0.000481333
0.000478677
4.20339e-05
0.00023366
0.000348071
0.000416853
0.000457037
0.000477794
0.000485011
0.00048167
4.22432e-05
0.000236743
0.000353143
0.000422623
0.000462478
0.000482138
0.000488142
0.000483893
4.20227e-05
0.000237345
0.00035471
0.000424379
0.000463924
0.000482783
0.000487777
0.000482557
9.69435e-06
6.81189e-05
0.000100212
0.000125861
0.000149936
0.000171822
0.000189567
0.000201058
9.52206e-06
6.62879e-05
9.77125e-05
0.000123484
0.000148128
0.00017078
0.000189236
0.000201332
9.43766e-06
6.56582e-05
9.69408e-05
0.00012277
0.000147591
0.000170422
0.000189071
0.000201375
9.51803e-06
6.70752e-05
9.90768e-05
0.000124882
0.00014927
0.000171462
0.000189512
0.00020136
9.67068e-06
6.91176e-05
0.00010198
0.000127642
0.000151364
0.000172675
0.000189886
0.000201061
9.79769e-06
7.04514e-05
0.000103694
0.000129078
0.000152212
0.00017288
0.000189507
0.000200222
9.88576e-06
7.1025e-05
0.000104229
0.000129262
0.000151921
0.000172171
0.00018847
0.000198958
1.16295e-05
8.52294e-05
0.000127174
0.000158739
0.000186393
0.000209275
0.000228198
0.000240893
1.13788e-05
8.30382e-05
0.000124452
0.000156459
0.000184915
0.000208544
0.000227961
0.000241086
1.12306e-05
8.19982e-05
0.000123184
0.000155274
0.000183932
0.000207796
0.000227346
0.000240648
1.1306e-05
8.3125e-05
0.000124703
0.000156439
0.000184501
0.000207772
0.000226846
0.000239864
1.14935e-05
8.50925e-05
0.000127267
0.000158509
0.000185729
0.000208142
0.000226539
0.00023909
1.16603e-05
8.64652e-05
0.000128917
0.000159713
0.000186292
0.000208102
0.000226062
0.000238293
1.17762e-05
8.70706e-05
0.000129435
0.000159813
0.000185911
0.000207347
0.000225104
0.000237221
1.38701e-05
0.000102274
0.000152431
0.000188847
0.000219829
0.000245755
0.000267629
0.000282162
1.35491e-05
0.000100167
0.000150071
0.000186962
0.000218556
0.00024466
0.000266788
0.000281712
1.33259e-05
9.8855e-05
0.000148499
0.000185419
0.000217134
0.000243153
0.000265345
0.000280526
1.33498e-05
9.92856e-05
0.00014893
0.000185314
0.000216448
0.00024198
0.000263937
0.000279114
1.35182e-05
0.00010061
0.000150472
0.000186229
0.000216644
0.000241575
0.00026317
0.000278168
1.36858e-05
0.000101614
0.000151559
0.000186858
0.000216796
0.000241473
0.000262847
0.000277644
1.38064e-05
0.000101988
0.000151722
0.000186635
0.000216234
0.000240798
0.000262138
0.000276913
1.67448e-05
0.000118247
0.000176438
0.000221845
0.00026017
0.000292051
0.000315607
0.00032979
1.63009e-05
0.000116099
0.000173698
0.000218747
0.000257206
0.000289171
0.000313231
0.000328088
1.59585e-05
0.000114389
0.00017129
0.000215805
0.000254149
0.000286069
0.000310478
0.000325844
1.5884e-05
0.00011394
0.000170326
0.000214106
0.000252004
0.000283817
0.000308361
0.000323934
1.5985e-05
0.000114421
0.000170659
0.000213882
0.000251519
0.000283159
0.000307624
0.000323132
1.61324e-05
0.00011493
0.000171133
0.000214117
0.000251635
0.000283247
0.000307663
0.000323084
1.6256e-05
0.000114974
0.000170981
0.000213858
0.00025135
0.000283083
0.000307496
0.000322863
2.1359e-05
0.000144924
0.000223696
0.000282551
0.000327385
0.000359049
0.000379284
0.000388837
2.06302e-05
0.000140124
0.000217178
0.000275234
0.000320755
0.000353582
0.00037509
0.000385835
2.00165e-05
0.000136097
0.000211079
0.000268557
0.000314468
0.000348195
0.000370774
0.000382511
1.97477e-05
0.000134011
0.000207735
0.000264807
0.000310784
0.000344866
0.000367988
0.000380214
1.97433e-05
0.000133437
0.000206794
0.000263651
0.000309719
0.000344107
0.000367343
0.000379622
1.98955e-05
0.000133753
0.000207418
0.00026435
0.000310393
0.000344678
0.00036786
0.000380056
2.00617e-05
0.000134129
0.000208096
0.00026524
0.000311264
0.000345423
0.00036842
0.000380409
3.72417e-05
0.000212789
0.000323446
0.000389453
0.000429011
0.000450362
0.000458843
0.000457085
3.59443e-05
0.000204325
0.00031258
0.00037869
0.000419609
0.000443008
0.000453579
0.000453528
3.45864e-05
0.000194338
0.00029981
0.000366711
0.000409502
0.000435201
0.000447946
0.000449582
3.37139e-05
0.000187705
0.000291497
0.000359065
0.000403295
0.000430444
0.0004445
0.000447101
3.35117e-05
0.000185712
0.000288925
0.000356627
0.000401251
0.000429097
0.000443751
0.000446713
3.36557e-05
0.000186293
0.000290007
0.000357885
0.000402516
0.000430346
0.000444925
0.000447718
3.37804e-05
0.000186152
0.000290681
0.000359036
0.000403907
0.000431776
0.000446189
0.000448658
9.91927e-06
7.13079e-05
0.00010448
0.000129286
0.000151617
0.00017155
0.000187584
0.000197869
9.92843e-06
7.17558e-05
0.000105204
0.000130025
0.000152171
0.000171821
0.000187546
0.000197542
9.98776e-06
7.26981e-05
0.000106803
0.000131885
0.000153991
0.000173407
0.000188829
0.00019852
1.01177e-05
7.41061e-05
0.000109113
0.000134651
0.000156875
0.00017619
0.00019144
0.00020093
1.02942e-05
7.57215e-05
0.000111652
0.000137708
0.000160178
0.000179581
0.000194915
0.000204456
1.04753e-05
7.72042e-05
0.000113896
0.000140438
0.000163232
0.000182898
0.000198564
0.000208409
1.06255e-05
7.83011e-05
0.000115525
0.000142521
0.00016572
0.000185798
0.000201935
0.000212182
1.1823e-05
8.73973e-05
0.000129663
0.000159721
0.000185418
0.000206554
0.000224107
0.000236068
1.18334e-05
8.79203e-05
0.000130366
0.000160255
0.000185588
0.000206363
0.000223599
0.000235281
1.18832e-05
8.88848e-05
0.000131869
0.000161782
0.000186838
0.000207266
0.000224193
0.000235614
1.20059e-05
9.0254e-05
0.000134018
0.000164138
0.00018908
0.000209339
0.000226165
0.000237483
1.21831e-05
9.17366e-05
0.000136262
0.000166718
0.000191788
0.000212249
0.000229355
0.000240864
1.23734e-05
9.30299e-05
0.000138113
0.000168922
0.000194293
0.00021531
0.000233053
0.000245025
1.25388e-05
9.40019e-05
0.000139434
0.000170637
0.000196464
0.000218231
0.000236722
0.000249187
1.38541e-05
0.000102175
0.000151682
0.000186246
0.000215522
0.000239923
0.00026115
0.000275818
1.38608e-05
0.000102622
0.000152115
0.000186343
0.000215188
0.000239297
0.000260308
0.000274753
1.38939e-05
0.000103469
0.000153267
0.000187299
0.000215771
0.000239607
0.000260419
0.000274711
1.40046e-05
0.00010467
0.000155007
0.000189073
0.000217343