/*--------------------------------*- C++ -*----------------------------------*\
| =========                 |                                                 |
| \\      /  F ield         | OpenFOAM: The Open Source CFD Toolbox           |
|  \\    /   O peration     | Version:  plus.master.MPPICInterFoam            |
|   \\  /    A nd           | Web:      www.OpenFOAM.com                      |
|    \\/     M anipulation  |                                                 |
\*---------------------------------------------------------------------------*/
FoamFile
{
    version     2.0;
    format      ascii;
    class       volVectorField;
    location    "4.6";
    object      U;
}
// * * * * * * * * * * * * * * * * * * * * * * * * * * * * * * * * * * * * * //

dimensions      [0 1 -1 0 0 0 0];

internalField   nonuniform List<vector> 
11822
(
(-0.00692448 -0.00786117 0.40347)
(-0.0070051 -0.0119283 0.435794)
(-0.00521113 -0.0168659 0.458446)
(0.000154503 -0.0200663 0.466409)
(0.00542091 -0.0166745 0.455958)
(0.00704174 -0.0113266 0.430533)
(0.00647742 -0.00725241 0.395045)
(-0.0106415 -0.0089635 0.439951)
(-0.0124043 -0.0149201 0.478647)
(-0.0102181 -0.0234386 0.506846)
(0.000236611 -0.0299923 0.517291)
(0.0106352 -0.0232645 0.504189)
(0.0127015 -0.0141636 0.473286)
(0.0104119 -0.00793943 0.431746)
(-0.0163893 -0.00801063 0.468104)
(-0.0216298 -0.0141219 0.513155)
(-0.0197406 -0.0237805 0.543883)
(-0.000126924 -0.0334972 0.556933)
(0.0197819 -0.0238434 0.540405)
(0.0218041 -0.0132118 0.506761)
(0.0160294 -0.00669701 0.459543)
(-0.021446 -0.00264936 0.482432)
(-0.0304823 -0.00387443 0.531365)
(-0.0310988 -0.00611771 0.567461)
(-0.000939776 -0.0083695 0.5851)
(0.0309136 -0.00526743 0.561943)
(0.0306741 -0.00265448 0.523518)
(0.0208586 -0.0012106 0.473381)
(-0.0197866 0.00416179 0.47726)
(-0.0268962 0.00941532 0.524989)
(-0.0252332 0.0175931 0.558434)
(-0.000139947 0.0282105 0.580777)
(0.0249437 0.0189563 0.55366)
(0.0264113 0.0105508 0.517606)
(0.0187026 0.00549786 0.468313)
(-0.0142712 0.00738036 0.454635)
(-0.0174061 0.0142135 0.497094)
(-0.0147537 0.024246 0.526834)
(0.000129076 0.032744 0.538211)
(0.0147259 0.0250233 0.524165)
(0.0167479 0.0150851 0.490989)
(0.0129949 0.00855295 0.446151)
(-0.00958755 0.00729581 0.420339)
(-0.0100967 0.0124102 0.45653)
(-0.00778392 0.0194599 0.48215)
(-0.000278411 0.0245193 0.491546)
(0.00708357 0.0199069 0.479375)
(0.00887686 0.013325 0.451024)
(0.00776201 0.00875918 0.411977)
(0.00533112 0.00546378 0.406936)
(0.0044003 0.0063954 0.440778)
(0.00266377 0.00695562 0.463979)
(0.000644863 0.00719863 0.472111)
(-0.00160666 0.00746016 0.461883)
(-0.00389384 0.00710896 0.435966)
(-0.00547328 0.00623982 0.398786)
(0.00685326 0.00419717 0.444968)
(0.00541676 0.00475185 0.484073)
(0.00320956 0.00495703 0.51171)
(0.00105325 0.00514537 0.522677)
(-0.001461 0.0057382 0.510252)
(-0.00433107 0.00575568 0.479677)
(-0.00661961 0.00539113 0.437633)
(0.00762507 0.00218382 0.473258)
(0.00567124 0.00230072 0.516576)
(0.00318378 0.00202448 0.548869)
(0.00138804 0.00214478 0.564163)
(-0.00109731 0.00317855 0.548493)
(-0.00435365 0.00334551 0.512164)
(-0.00729805 0.0035045 0.466255)
(0.00761946 6.21707e-05 0.487047)
(0.00508237 0.000314488 0.533642)
(0.00233638 0.000578707 0.569166)
(0.00157519 0.000765241 0.584451)
(-0.000361184 0.00111736 0.569343)
(-0.00408434 0.00144779 0.529796)
(-0.00735139 0.00150783 0.4803)
(0.00744797 -0.00205397 0.482031)
(0.00519646 -0.00156523 0.527404)
(0.00241171 -0.000448571 0.56033)
(0.00114357 6.02205e-05 0.575882)
(-0.000621053 -0.000451514 0.560902)
(-0.00417777 -0.000546342 0.52341)
(-0.00752849 -0.00060426 0.475353)
(0.00672236 -0.00430179 0.459637)
(0.00517252 -0.0042243 0.501731)
(0.00260468 -0.00349939 0.530867)
(0.000860891 -0.00290804 0.54284)
(-0.00127375 -0.00316513 0.527642)
(-0.0047097 -0.00337054 0.497372)
(-0.00733401 -0.00286497 0.453016)
(0.00523164 -0.00604598 0.424411)
(0.0042591 -0.00667727 0.462052)
(0.00225423 -0.00691657 0.488017)
(0.000204151 -0.00650488 0.497219)
(-0.00210286 -0.00655079 0.486046)
(-0.00478929 -0.00583853 0.457884)
(-0.00667524 -0.00444092 0.417092)
(0.0148614 0.0159285 0.407345)
(0.0133192 0.0210895 0.446818)
(0.00854946 0.0255423 0.47446)
(0.00134863 0.027351 0.484339)
(-0.00620218 0.0264358 0.473105)
(-0.0120471 0.0227144 0.443079)
(-0.0149357 0.0175128 0.39983)
(0.021011 0.0147043 0.451321)
(0.0193979 0.0202676 0.498308)
(0.0122798 0.0252432 0.529313)
(0.00215703 0.0268075 0.541311)
(-0.0082837 0.0259795 0.5286)
(-0.0168085 0.0225853 0.495575)
(-0.020829 0.0168935 0.445995)
(0.026836 0.0100976 0.484637)
(0.0255121 0.0140071 0.53549)
(0.0155446 0.0179813 0.566204)
(0.00258776 0.0206542 0.590103)
(-0.010147 0.0194811 0.568999)
(-0.020831 0.0164203 0.533476)
(-0.0267669 0.0122775 0.480687)
(0.0301455 0.00236081 0.500707)
(0.0301039 0.00376096 0.555031)
(0.0184847 0.0060258 0.584783)
(0.00301663 0.00791034 0.623397)
(-0.0123044 0.00745272 0.598551)
(-0.0237871 0.00520959 0.545996)
(-0.0305901 0.00415155 0.49725)
(0.0292027 -0.00649644 0.494595)
(0.0297307 -0.0084746 0.548738)
(0.018435 -0.00956653 0.579588)
(0.00317917 -0.0100037 0.610887)
(-0.0126752 -0.00926232 0.578526)
(-0.0249334 -0.00825217 0.54682)
(-0.0295843 -0.0054374 0.491757)
(0.0243284 -0.0133315 0.468263)
(0.0236331 -0.0181881 0.518638)
(0.0162442 -0.0236882 0.555529)
(0.00290857 -0.0239578 0.562692)
(-0.0112525 -0.0230549 0.555722)
(-0.0215299 -0.0187245 0.51828)
(-0.0248452 -0.012781 0.464788)
(0.0176992 -0.016661 0.426769)
(0.016537 -0.0224978 0.4719)
(0.0108578 -0.0282791 0.503527)
(0.0015782 -0.03131 0.515714)
(-0.00846682 -0.0289814 0.50327)
(-0.0158413 -0.0228852 0.469929)
(-0.0187143 -0.0158902 0.421209)
(0.0211022 0.0227451 0.39837)
(0.0206316 0.0333314 0.44544)
(0.0138765 0.0425788 0.480501)
(0.00236122 0.0469562 0.494783)
(-0.0100216 0.0446627 0.480737)
(-0.018941 0.0363836 0.443732)
(-0.0215068 0.0256102 0.391667)
(0.033062 0.0231405 0.450376)
(0.0339815 0.035714 0.514522)
(0.0224839 0.0453064 0.564528)
(0.00400916 0.0462135 0.58386)
(-0.0152869 0.0473886 0.567127)
(-0.0302804 0.0395775 0.51727)
(-0.0338059 0.0270793 0.448597)
(0.0446616 0.0165239 0.491898)
(0.0469103 0.025016 0.574232)
(0.0294141 0.0321442 0.655656)
(0.00548308 0.0292749 0.66388)
(-0.0175703 0.0314283 0.646546)
(-0.0415942 0.0300429 0.59108)
(-0.0462293 0.02025 0.49573)
(0.0505782 0.00376558 0.512688)
(0.0529798 0.00533381 0.601486)
(0.0333174 0.00757235 0.714011)
(0.00508112 0.00652247 0.729365)
(-0.0182859 0.00823519 0.705313)
(-0.0456582 0.00840774 0.643587)
(-0.0537272 0.00584982 0.519663)
(0.0480476 -0.0106781 0.504972)
(0.0502296 -0.0159429 0.592101)
(0.0342541 -0.0213659 0.721597)
(0.00759205 -0.0178445 0.732388)
(-0.0193003 -0.0191552 0.718448)
(-0.0450621 -0.0173298 0.617022)
(-0.0498927 -0.0109366 0.511419)
(0.0392187 -0.0208754 0.471165)
(0.0404142 -0.0318407 0.546765)
(0.0288107 -0.0419969 0.616121)
(0.00713001 -0.0448411 0.671206)
(-0.0190726 -0.044522 0.631768)
(-0.0368188 -0.0347244 0.555284)
(-0.0398001 -0.0222296 0.472625)
(0.0267947 -0.0241265 0.42023)
(0.0270903 -0.0364095 0.477019)
(0.0187699 -0.0469247 0.521911)
(0.00340286 -0.0534894 0.539643)
(-0.0136501 -0.0490703 0.523859)
(-0.0251651 -0.0381087 0.478308)
(-0.0273146 -0.0246899 0.416496)
(0.00962244 0.0109629 0.376513)
(0.0120379 0.0188751 0.42889)
(0.0101183 0.0257427 0.476284)
(0.00258837 0.0319556 0.497185)
(-0.00653003 0.0283208 0.479955)
(-0.0107631 0.0209678 0.429752)
(-0.00985955 0.0132248 0.370123)
(0.0192405 0.014318 0.434849)
(0.0246167 0.0261782 0.533329)
(0.0198177 0.0334272 0.636166)
(0.00570431 0.0408836 0.68984)
(-0.0117346 0.0375868 0.649093)
(-0.0229474 0.0285682 0.551755)
(-0.0199466 0.0177256 0.438017)
(0.0291187 0.0122224 0.491407)
(0.036876 0.0229696 0.650528)
(0.0279632 0.0224062 0.843061)
(0.00712091 0.0180556 0.827842)
(-0.0159899 0.0270136 0.877925)
(-0.0353725 0.0218867 0.698918)
(-0.0308144 0.0159069 0.510116)
(0.0363912 0.00315661 0.522305)
(0.0432569 0.00510351 0.695321)
(0.023552 0.00380277 0.912302)
(0.00345776 -0.000388073 0.841492)
(-0.0162852 0.00279904 0.860399)
(-0.0476957 0.00598818 0.801624)
(-0.0397557 0.00392462 0.544315)
(0.0332849 -0.0079511 0.512234)
(0.0392776 -0.0150391 0.678762)
(0.0274932 -0.0144117 0.876842)
(0.00715133 -0.0162351 0.857638)
(-0.016337 -0.0200994 0.928555)
(-0.0378489 -0.0125545 0.760998)
(-0.0330589 -0.00960984 0.536897)
(0.0249549 -0.0135458 0.46208)
(0.031328 -0.0269315 0.596007)
(0.0218272 -0.033567 0.734179)
(0.00730479 -0.0451739 0.81828)
(-0.0115282 -0.038086 0.777839)
(-0.0264852 -0.0259406 0.622814)
(-0.0233734 -0.0147344 0.47095)
(0.0153931 -0.0130465 0.40023)
(0.0188365 -0.0236459 0.471981)
(0.0157408 -0.0328974 0.546294)
(0.00304239 -0.0406236 0.570833)
(-0.0109067 -0.032988 0.553653)
(-0.0163334 -0.0226477 0.47748)
(-0.0141018 -0.0126311 0.397211)
(-0.0191308 -0.0190994 0.355596)
(-0.012854 -0.0222153 0.401386)
(-0.00441192 -0.0237931 0.447925)
(0.00109739 -0.0192331 0.471058)
(0.0056469 -0.0228877 0.453025)
(0.0128372 -0.022159 0.402251)
(0.0190925 -0.0184939 0.348312)
(-0.0208609 -0.0127014 0.406845)
(-0.0132309 -0.0141952 0.503823)
(-0.0042764 -0.0128113 0.634038)
(0.00412514 -0.00187825 0.705694)
(0.00875448 -0.0101358 0.665289)
(0.0134817 -0.0130795 0.530599)
(0.0209013 -0.0114216 0.409497)
(-0.0206016 -0.00391062 0.46343)
(-0.00934783 -0.00353628 0.653535)
(0.00518281 0.000954187 0.859308)
(0.00272558 -0.00129832 0.909379)
(0.00108751 0.00851356 0.905544)
(0.00925658 -0.00123841 0.714582)
(0.0202572 -0.00150832 0.486383)
(-0.0132009 -6.31406e-05 0.499389)
(0.00468156 0.00371165 0.7561)
(0.00909038 0.000471585 0.925575)
(1.49452e-05 -0.00665962 0.845138)
(-0.0105278 -0.000850727 0.966933)
(-0.0119225 0.0033602 0.804193)
(0.0106494 0.000600537 0.534302)
(-0.0182876 0.00250432 0.487427)
(-0.0039772 0.00438045 0.725551)
(0.0150594 -0.00149645 0.941194)
(0.00370754 -0.0142392 0.974663)
(-0.00776545 -0.0092728 0.986119)
(0.00371491 0.00229004 0.761569)
(0.0190004 0.00109207 0.515071)
(-0.0191386 0.00984609 0.433811)
(-0.00845996 0.00904081 0.578564)
(0.00260283 0.00476125 0.757652)
(0.004906 -0.0160544 0.833694)
(0.0026189 0.00141987 0.777212)
(0.0106323 0.00963405 0.611648)
(0.0211011 0.010474 0.441156)
(-0.016683 0.0167209 0.376382)
(-0.00939305 0.0182884 0.442735)
(0.000533087 0.0171582 0.524414)
(0.00203507 0.00812209 0.565089)
(0.00198778 0.0177766 0.533416)
(0.0110897 0.0205178 0.447583)
(0.018584 0.0184218 0.37242)
(0.00496321 -0.00499332 0.356782)
(0.00367061 -0.00347041 0.324224)
(0.0027899 -0.00244612 0.29308)
(0.00218954 -0.00171954 0.264593)
(0.00170495 -0.00112188 0.23891)
(0.00130198 -0.000581329 0.215299)
(0.00097579 -5.67501e-05 0.191462)
(0.000642565 0.000587606 0.15821)
(0.0073111 -0.0051884 0.387146)
(0.0050836 -0.00327712 0.347318)
(0.00373678 -0.00209573 0.310162)
(0.00286371 -0.00128912 0.276601)
(0.00221857 -0.000654471 0.246748)
(0.00168677 -9.82916e-05 0.21981)
(0.00122672 0.000419352 0.193289)
(0.000691989 0.000969198 0.157435)
(0.0106262 -0.00406427 0.410244)
(0.00737449 -0.00244435 0.365945)
(0.00528556 -0.00143461 0.324373)
(0.00386631 -0.000671698 0.286816)
(0.00284883 -3.62693e-05 0.253605)
(0.00204079 0.000539245 0.223989)
(0.00136574 0.00107629 0.195352)
(0.000629836 0.00158682 0.157489)
(0.0132119 -0.000525714 0.421641)
(0.00903031 -3.1564e-05 0.375343)
(0.00631754 0.000382127 0.331727)
(0.00443808 0.000739159 0.292284)
(0.00310614 0.00110545 0.257491)
(0.00206066 0.00148899 0.226652)
(0.00118783 0.00188187 0.197103)
(0.000285151 0.00224079 0.158453)
(0.012095 0.00376766 0.417485)
(0.0082316 0.00286074 0.372223)
(0.00570746 0.00253221 0.329607)
(0.00393306 0.00236353 0.291084)
(0.00263816 0.00236853 0.257092)
(0.0015701 0.00247839 0.226928)
(0.000637708 0.00265043 0.197954)
(-0.000326111 0.00279636 0.159888)
(0.00869079 0.00605271 0.399207)
(0.00579889 0.00438991 0.35783)
(0.00391877 0.00369938 0.319021)
(0.00259532 0.00329637 0.283944)
(0.0015538 0.00312817 0.252881)
(0.000617968 0.00307504 0.225099)
(-0.000243893 0.00308268 0.198057)
(-0.001133 0.00300472 0.161866)
(0.0054959 0.00647054 0.370947)
(0.00364857 0.00501631 0.336692)
(0.00226854 0.00430586 0.30376)
(0.00127333 0.00387573 0.273671)
(0.000386656 0.00358744 0.246734)
(-0.000440725 0.00335875 0.222258)
(-0.00120183 0.00315767 0.197888)
(-0.00192555 0.00279923 0.164268)
(-0.00508901 0.00537164 0.358193)
(-0.00411478 0.00464316 0.323938)
(-0.00318507 0.00376016 0.291772)
(-0.00227263 0.00297071 0.262911)
(-0.00144157 0.0023245 0.237256)
(-0.000720428 0.00184473 0.213835)
(-0.000121743 0.00153561 0.19019)
(0.000395324 0.00137027 0.157167)
(-0.00672489 0.00503477 0.390568)
(-0.00567894 0.00466272 0.348378)
(-0.00436058 0.00389254 0.309627)
(-0.0030524 0.00317102 0.275304)
(-0.0018779 0.00260522 0.245278)
(-0.000921031 0.0022137 0.21844)
(-0.000202071 0.00197447 0.192067)
(0.000302131 0.0018066 0.156439)
(-0.00794189 0.00351432 0.415045)
(-0.00715167 0.00339834 0.368214)
(-0.00572756 0.00302522 0.324588)
(-0.00415557 0.00269285 0.285886)
(-0.0026946 0.00248122 0.252274)
(-0.00149954 0.00239374 0.222667)
(-0.000615466 0.00239602 0.19416)
(-4.14228e-06 0.00237206 0.156562)
(-0.00843966 0.00153496 0.427029)
(-0.00791849 0.00155578 0.378182)
(-0.00654936 0.00159891 0.332314)
(-0.00492302 0.00172766 0.291545)
(-0.00338021 0.00194413 0.256252)
(-0.00211937 0.00222094 0.225398)
(-0.0011972 0.00251642 0.196001)
(-0.000549367 0.00273095 0.157658)
(-0.00839745 -0.000599247 0.422792)
(-0.00776714 -0.000441511 0.374926)
(-0.00642646 4.33604e-05 0.330119)
(-0.0049146 0.000646425 0.290359)
(-0.0035386 0.001287 0.255946)
(-0.00245901 0.00190511 0.225823)
(-0.00170505 0.00246598 0.197045)
(-0.00118756 0.00289685 0.159306)
(-0.00766287 -0.00255559 0.40354)
(-0.00683376 -0.00210719 0.359586)
(-0.00564222 -0.00116448 0.318957)
(-0.00445626 -0.000148331 0.283012)
(-0.00345736 0.000813903 0.25178)
(-0.00271896 0.00165767 0.224179)
(-0.00223769 0.00235654 0.197401)
(-0.00190408 0.00283639 0.161549)
(-0.00652785 -0.00335879 0.373285)
(-0.00579784 -0.0025009 0.337067)
(-0.00500757 -0.00137799 0.302966)
(-0.00426484 -0.000301564 0.272484)
(-0.00365425 0.000647445 0.245658)
(-0.00318819 0.00143875 0.22151)
(-0.00285824 0.00204077 0.197481)
(-0.00253021 0.00237994 0.164222)
(-0.0127448 0.0136247 0.35428)
(-0.00984373 0.0107961 0.317461)
(-0.00741089 0.00830687 0.284428)
(-0.00536258 0.00632093 0.255624)
(-0.00361548 0.00477486 0.230403)
(-0.00212675 0.00358102 0.207459)
(-0.000891741 0.00268427 0.184201)
(0.000271336 0.00187217 0.151531)
(-0.0181218 0.0135052 0.390933)
(-0.0140114 0.010794 0.343995)
(-0.0103811 0.00834302 0.303061)
(-0.0073133 0.00635286 0.268181)
(-0.00481498 0.0048676 0.238381)
(-0.00282069 0.00378604 0.212001)
(-0.00128026 0.00299966 0.186064)
(3.70491e-05 0.00227682 0.150891)
(-0.0235558 0.00989183 0.419741)
(-0.0188428 0.00805634 0.366212)
(-0.014173 0.00641306 0.319005)
(-0.0100708 0.00513337 0.279004)
(-0.00670853 0.00422733 0.245337)
(-0.00406825 0.00361226 0.216142)
(-0.00207444 0.00318264 0.188131)
(-0.000416758 0.00271044 0.151095)
(-0.0267603 0.00332593 0.433984)
(-0.0217127 0.00279572 0.377485)
(-0.0164888 0.0024698 0.327296)
(-0.0118613 0.00236253 0.284822)
(-0.00806282 0.00243255 0.249322)
(-0.00510819 0.0025985 0.218878)
(-0.0028943 0.00278334 0.19003)
(-0.00104556 0.00283657 0.15231)
(-0.0257025 -0.00417592 0.428903)
(-0.0206493 -0.00313343 0.373725)
(-0.015684 -0.00193219 0.3249)
(-0.0113887 -0.00074428 0.283625)
(-0.00793647 0.000365337 0.249106)
(-0.0052903 0.00133801 0.219447)
(-0.0033222 0.00214637 0.191239)
(-0.00165035 0.0027412 0.154126)
(-0.0212578 -0.00966444 0.405904)
(-0.0167244 -0.0072688 0.356242)
(-0.0127589 -0.00485803 0.312856)
(-0.00951729 -0.00272575 0.276115)
(-0.00697841 -0.000939484 0.245095)
(-0.00503969 0.000510092 0.21806)
(-0.00358667 0.00164914 0.191851)
(-0.00226469 0.00249709 0.15656)
(-0.0160402 -0.0114116 0.370874)
(-0.0128594 -0.00837268 0.331325)
(-0.0102243 -0.00565702 0.295966)
(-0.00811162 -0.00341211 0.265451)
(-0.00639578 -0.00158683 0.239149)
(-0.00500294 -0.000120136 0.215651)
(-0.00387627 0.00100996 0.192177)
(-0.00269955 0.0018674 0.159387)
(-0.0167479 0.0179173 0.341584)
(-0.0118552 0.0130453 0.30385)
(-0.00829306 0.0093808 0.27191)
(-0.00555364 0.00678494 0.244794)
(-0.00343842 0.00493235 0.221212)
(-0.00175434 0.00359599 0.199588)
(-0.000454085 0.00264083 0.177292)
(0.000737882 0.0017171 0.145259)
(-0.0259009 0.018733 0.382119)
(-0.0180795 0.0134988 0.331192)
(-0.0123471 0.00966036 0.290107)
(-0.00806771 0.0069639 0.256621)
(-0.00493907 0.00510173 0.228553)
(-0.00263577 0.00383574 0.203688)
(-0.000973858 0.0029627 0.178898)
(0.000439717 0.00214291 0.14455)
(-0.036042 0.0142551 0.416439)
(-0.025767 0.0104974 0.355146)
(-0.0176284 0.00765968 0.306036)
(-0.0115655 0.00577816 0.266887)
(-0.00716168 0.00449314 0.23494)
(-0.00402606 0.00364487 0.207419)
(-0.00183399 0.00305255 0.180737)
(-4.58025e-05 0.00240805 0.144682)
(-0.0421307 0.00417051 0.433875)
(-0.0304938 0.00319543 0.367565)
(-0.0209802 0.00259776 0.314452)
(-0.0138773 0.00236075 0.272489)
(-0.00874415 0.00235611 0.238687)
(-0.00514225 0.00244868 0.210003)
(-0.00265005 0.00253362 0.182581)
(-0.000615184 0.00243201 0.145916)
(-0.0391292 -0.00725876 0.427464)
(-0.0281102 -0.00500795 0.36328)
(-0.0193886 -0.00302169 0.312003)
(-0.0129623 -0.0014439 0.271431)
(-0.0083782 -6.46874e-05 0.238666)
(-0.00518331 0.00101917 0.210773)
(-0.00297102 0.00181088 0.183976)
(-0.00110359 0.00229225 0.147895)
(-0.0303334 -0.0144875 0.399154)
(-0.0214551 -0.00983033 0.34405)
(-0.0149917 -0.00615912 0.299892)
(-0.0103559 -0.00344848 0.264448)
(-0.00709318 -0.00134012 0.235268)
(-0.00477841 0.000212941 0.209903)
(-0.00312427 0.0013119 0.184972)
(-0.00158848 0.00204833 0.150571)
(-0.021087 -0.0159224 0.359323)
(-0.0154246 -0.0106673 0.31792)
(-0.0113652 -0.00679332 0.283349)
(-0.00841028 -0.00400249 0.254571)
(-0.00622468 -0.001924 0.230078)
(-0.00454993 -0.000385486 0.208088)
(-0.0032469 0.000708637 0.185712)
(-0.00188288 0.00152827 0.153603)
(-0.00524098 0.0071884 0.319922)
(-0.00144469 0.0032818 0.284628)
(0.000837791 0.00113331 0.256121)
(0.00220505 -9.73681e-06 0.232009)
(0.00281178 -0.000426325 0.210671)
(0.00287788 -0.000343783 0.190521)
(0.00273002 -0.000138183 0.168924)
(0.00187813 0.000417166 0.13655)
(-0.0116604 0.00972438 0.360626)
(-0.00516093 0.00515718 0.310153)
(-0.000973684 0.00247475 0.272431)
(0.00145978 0.0011142 0.242532)
(0.00265861 0.000409492 0.21734)
(0.00296773 0.000244406 0.194496)
(0.00291447 0.00025248 0.170872)
(0.00187415 0.000603206 0.136565)
(-0.0195985 0.00914679 0.398423)
(-0.0104414 0.00557073 0.333485)
(-0.00397289 0.00330369 0.286887)
(9.23542e-06 0.00213193 0.251562)
(0.00207943 0.00144006 0.223001)
(0.00283735 0.00114703 0.197982)
(0.00299667 0.000982591 0.17286)
(0.00188377 0.00092811 0.137151)
(-0.0259673 0.00269797 0.418586)
(-0.0147268 0.00195603 0.345898)
(-0.00651333 0.00161468 0.294659)
(-0.00145963 0.00154283 0.25656)
(0.00126433 0.00161192 0.226412)
(0.00236463 0.00169158 0.200467)
(0.00271293 0.00169843 0.174792)
(0.00169083 0.00146384 0.13863)
(-0.0212483 -0.00467029 0.411044)
(-0.0117154 -0.00210535 0.34166)
(-0.00484011 -0.000340691 0.292576)
(-0.000713691 0.000802811 0.2559)
(0.00140091 0.00169359 0.226685)
(0.00213695 0.0021722 0.20142)
(0.00228315 0.00236535 0.176283)
(0.00125822 0.00198146 0.140656)
(-0.0141485 -0.0068659 0.378854)
(-0.0069871 -0.00252135 0.32276)
(-0.00243134 4.9046e-05 0.281769)
(0.000133218 0.0015445 0.250119)
(0.0012695 0.00248967 0.22409)
(0.00150328 0.00284919 0.200959)
(0.00142581 0.00289183 0.177363)
(0.000555382 0.00220545 0.143181)
(-0.0080937 -0.00547364 0.337595)
(-0.00379269 -0.00129582 0.298238)
(-0.00122433 0.00106282 0.267205)
(0.000198442 0.00231896 0.241723)
(0.000760135 0.00288059 0.219775)
(0.000795908 0.00290324 0.199495)
(0.000671567 0.00269086 0.178008)
(8.06944e-05 0.00183962 0.145726)
(0.0209404 -0.0172488 0.306755)
(0.0208137 -0.0167469 0.278452)
(0.0203392 -0.0158605 0.256538)
(0.0193838 -0.0146447 0.238883)
(0.0178825 -0.0129621 0.22447)
(0.0156768 -0.0107653 0.212697)
(0.0125593 -0.00793868 0.203354)
(0.00787369 -0.00413535 0.195502)
(0.023728 -0.0121915 0.340767)
(0.0243539 -0.0124722 0.298661)
(0.0238789 -0.0116934 0.268748)
(0.0227596 -0.0107371 0.246021)
(0.0210362 -0.00937963 0.2282)
(0.0184797 -0.00765866 0.214053)
(0.0148374 -0.00549707 0.203107)
(0.00927936 -0.00257657 0.194776)
(0.0248938 -0.00434642 0.374984)
(0.026767 -0.00566926 0.318225)
(0.0268345 -0.00573049 0.280025)
(0.0256962 -0.00547278 0.252492)
(0.0236916 -0.00484653 0.231691)
(0.0207349 -0.00399445 0.215632)
(0.0165381 -0.00293135 0.203456)
(0.010067 -0.0015477 0.194539)
(0.0212537 -4.75688e-06 0.394266)
(0.0256263 -0.000121635 0.329108)
(0.0270085 -8.35537e-06 0.286453)
(0.0263967 0.0002201 0.256484)
(0.0244831 0.000426793 0.234295)
(0.0214561 0.000544242 0.217425)
(0.0171223 0.000548464 0.204771)
(0.0103782 0.000331744 0.195608)
(0.024936 0.00396519 0.387008)
(0.0271224 0.00549558 0.325816)
(0.0271741 0.00588915 0.285268)
(0.0258586 0.00613744 0.256604)
(0.0236425 0.00590322 0.235287)
(0.0205413 0.00527025 0.219029)
(0.0162945 0.00421608 0.206825)
(0.00986486 0.00241146 0.197953)
(0.0243667 0.0119045 0.357455)
(0.0249438 0.0128799 0.310055)
(0.0241328 0.0124433 0.277415)
(0.0225941 0.0119225 0.253321)
(0.0205254 0.0108586 0.234895)
(0.01778 0.00931262 0.220546)
(0.0141024 0.00717466 0.209622)
(0.00865601 0.00389533 0.201379)
(0.0207147 0.0178283 0.322613)
(0.0203709 0.0178413 0.290927)
(0.019646 0.017063 0.267151)
(0.0183585 0.0160195 0.248523)
(0.0166575 0.0144755 0.233728)
(0.0143546 0.0123776 0.221906)
(0.0112599 0.00955411 0.212708)
(0.0068005 0.00543802 0.204978)
(-0.00779949 0.00458513 0.382058)
(-0.00622187 0.00279226 0.34988)
(-0.00522019 0.00151431 0.319074)
(-0.00442549 0.000666286 0.291003)
(-0.00367594 2.82299e-05 0.265836)
(-0.00292573 -0.000467506 0.242807)
(-0.00216509 -0.000821142 0.219482)
(-0.00119413 -0.00102395 0.186082)
(-0.010424 0.00438844 0.410246)
(-0.00784117 0.00248946 0.371388)
(-0.00613361 0.00129804 0.33532)
(-0.00487564 0.000492263 0.302959)
(-0.00381985 -4.25934e-05 0.274372)
(-0.00282404 -0.00041135 0.248671)
(-0.00185413 -0.000622601 0.223201)
(-0.000719055 -0.000624701 0.187644)
(-0.0136094 0.00220363 0.428708)
(-0.0100307 0.000999189 0.386105)
(-0.00758871 0.00036623 0.346542)
(-0.00573315 -9.3542e-05 0.311166)
(-0.00425892 -0.000364577 0.280102)
(-0.00295107 -0.00051884 0.252434)
(-0.00176951 -0.000544542 0.225372)
(-0.00052911 -0.000357543 0.188183)
(-0.0144202 -0.00210663 0.432927)
(-0.0105234 -0.00180861 0.389401)
(-0.00782743 -0.00155719 0.348976)
(-0.00580474 -0.00135229 0.312848)
(-0.00419963 -0.00111741 0.281157)
(-0.00283033 -0.000868813 0.25297)
(-0.00162565 -0.000576366 0.22547)
(-0.000433384 -0.000152653 0.187802)
(-0.0115409 -0.00551228 0.421408)
(-0.00851422 -0.00394031 0.379967)
(-0.00640942 -0.00300611 0.341567)
(-0.00481337 -0.0022477 0.307239)
(-0.00352279 -0.00158763 0.277018)
(-0.0024153 -0.000997097 0.249955)
(-0.00142662 -0.000432689 0.223291)
(-0.000435884 0.000172061 0.186379)
(-0.00793784 -0.00634401 0.398252)
(-0.00593284 -0.00432191 0.361155)
(-0.00458121 -0.00317226 0.326919)
(-0.00358939 -0.00221672 0.296208)
(-0.0027694 -0.00141878 0.26896)
(-0.00203879 -0.000711833 0.24423)
(-0.00136529 -6.48799e-05 0.219413)
(-0.000641646 0.000581597 0.184318)
(-0.00569248 -0.0056048 0.36815)
(-0.00452868 -0.00390754 0.337738)
(-0.00367518 -0.00280446 0.30888)
(-0.00307483 -0.00185401 0.282595)
(-0.00256208 -0.00103667 0.258896)
(-0.00208771 -0.000283255 0.236949)
(-0.00166123 0.000403863 0.214375)
(-0.0011795 0.00110785 0.181539)
(0.00456311 -0.00537836 0.384143)
(0.0034044 -0.00484298 0.350633)
(0.00240258 -0.00402502 0.319101)
(0.00152357 -0.00322138 0.29094)
(0.000830491 -0.00248718 0.266073)
(0.000333286 -0.0018481 0.243454)
(5.17946e-05 -0.00128278 0.22046)
(2.68704e-05 -0.000695459 0.187265)
(0.00633383 -0.00432462 0.413579)
(0.00504497 -0.00414603 0.37303)
(0.00367597 -0.00344699 0.335909)
(0.00246447 -0.00268737 0.30324)
(0.00150728 -0.00198193 0.274825)
(0.000842101 -0.00135243 0.249464)
(0.00047511 -0.000772706 0.224273)
(0.000397244 -0.000125354 0.188875)
(0.00739564 -0.0023773 0.432537)
(0.00624499 -0.00236039 0.388326)
(0.0047616 -0.00201522 0.34755)
(0.00333097 -0.00156789 0.311687)
(0.00215948 -0.00111904 0.280673)
(0.00130124 -0.000677459 0.253269)
(0.000764152 -0.000223353 0.226435)
(0.000506959 0.000347399 0.189374)
(0.00775879 -0.000185222 0.436912)
(0.00671085 -0.000249412 0.391819)
(0.00519495 -0.000269442 0.350168)
(0.00369716 -0.000176089 0.313475)
(0.00242749 -2.04849e-05 0.281774)
(0.0014676 0.000193172 0.253811)
(0.000816238 0.000467051 0.226505)
(0.000416504 0.000834664 0.188945)
(0.00747304 0.00201022 0.425307)
(0.00629858 0.00183418 0.382229)
(0.00479245 0.00148993 0.342683)
(0.00337039 0.00124236 0.307866)
(0.00214585 0.00110631 0.277665)
(0.00121618 0.00108219 0.25081)
(0.00056134 0.00114944 0.224315)
(0.000131045 0.00127945 0.187475)
(0.00633467 0.00381544 0.401402)
(0.00506495 0.00348929 0.362729)
(0.00370166 0.0028907 0.327582)
(0.00247625 0.00238154 0.296622)
(0.00143821 0.00200855 0.269505)
(0.00064101 0.00177502 0.245015)
(6.76305e-05 0.00165035 0.220368)
(-0.000303807 0.00157832 0.185324)
(0.00455874 0.00464623 0.369853)
(0.00343799 0.00409403 0.338327)
(0.0024199 0.0034677 0.30896)
(0.00147902 0.00294279 0.282659)
(0.000666127 0.00253838 0.259184)
(-5.06891e-06 0.00225214 0.237509)
(-0.000540459 0.00206902 0.215124)
(-0.000932761 0.00193484 0.182364)
(0.0144186 -0.0129518 0.381191)
(0.0109811 -0.0102886 0.345175)
(0.00823088 -0.007773 0.312945)
(0.00603932 -0.00568843 0.285065)
(0.0042857 -0.00397506 0.26085)
(0.00290478 -0.00256293 0.238886)
(0.00187457 -0.00138133 0.216371)
(0.00103548 -0.000203648 0.18346)
(0.0198424 -0.0109001 0.414264)
(0.0150387 -0.00874972 0.369401)
(0.0110453 -0.0065354 0.330534)
(0.0078717 -0.00457395 0.297654)
(0.00543526 -0.00298076 0.269715)
(0.00360553 -0.00167516 0.244967)
(0.00228696 -0.000572397 0.220257)
(0.00124673 0.000509923 0.185173)
(0.0240578 -0.00561137 0.436044)
(0.0187216 -0.00463421 0.386271)
(0.0138543 -0.00346194 0.342872)
(0.00984366 -0.00233658 0.306318)
(0.00670411 -0.00135605 0.275587)
(0.00433813 -0.000496363 0.248739)
(0.00260624 0.00029001 0.222387)
(0.00120908 0.00112145 0.18568)
(0.0250681 0.00151958 0.441167)
(0.0197336 0.00105055 0.390247)
(0.0146732 0.000854045 0.345756)
(0.0104014 0.000837464 0.308134)
(0.00701413 0.000944874 0.276718)
(0.00443145 0.00113729 0.249299)
(0.00250584 0.00139317 0.22247)
(0.000920424 0.00169934 0.185261)
(0.0224232 0.00788487 0.428032)
(0.0174672 0.00621125 0.379867)
(0.0129033 0.00481355 0.337972)
(0.00907211 0.00377967 0.302625)
(0.00602241 0.00307953 0.272702)
(0.00367909 0.00263207 0.246356)
(0.00190496 0.00235489 0.220292)
(0.000421656 0.0021196 0.183756)
(0.0174761 0.0116766 0.401016)
(0.0132137 0.00928419 0.358813)
(0.00960053 0.00719346 0.322345)
(0.00666356 0.00556377 0.291308)
(0.0043123 0.00436896 0.264608)
(0.00247327 0.00350826 0.240607)
(0.00105481 0.00287203 0.216317)
(-0.000146888 0.00226496 0.181496)
(0.0121913 0.012395 0.366297)
(0.00916193 0.00990812 0.332995)
(0.00666209 0.00785727 0.303224)
(0.0046012 0.00623312 0.2772)
(0.00286839 0.00497121 0.254226)
(0.00142799 0.00399009 0.233009)
(0.000248066 0.00321705 0.210922)
(-0.000796813 0.00243216 0.178314)
(0.0199364 -0.0167535 0.369416)
(0.0142481 -0.0119897 0.332322)
(0.0101914 -0.00827092 0.301233)
(0.00721297 -0.00551008 0.275198)
(0.00502738 -0.00343738 0.252759)
(0.00340101 -0.00184093 0.232191)
(0.00223655 -0.000581202 0.210612)
(0.00124636 0.000638992 0.178114)
(0.0286927 -0.0146361 0.40596)
(0.0200296 -0.0104377 0.357452)
(0.0137561 -0.00700753 0.318664)
(0.00930532 -0.00440167 0.287346)
(0.00617184 -0.00244877 0.261235)
(0.00398121 -0.000968038 0.23801)
(0.00247633 0.000194467 0.21436)
(0.0012512 0.00126005 0.179816)
(0.0359843 -0.00770321 0.431397)
(0.0254881 -0.0055705 0.375567)
(0.0174377 -0.00362957 0.331082)
(0.0115825 -0.00209608 0.295714)
(0.00744888 -0.000845638 0.266778)
(0.00457421 0.000170535 0.241547)
(0.00260526 0.00102877 0.216374)
(0.0010313 0.00185195 0.180326)
(0.0379153 0.00250933 0.437493)
(0.027003 0.00180577 0.379904)
(0.0184262 0.00151037 0.334005)
(0.012121 0.0014609 0.29759)
(0.00762427 0.00158239 0.2679)
(0.0044772 0.00178859 0.242095)
(0.00230421 0.00204359 0.216463)
(0.000567545 0.00229664 0.179941)
(0.0330986 0.011612 0.422109)
(0.0232878 0.00838785 0.368856)
(0.0157852 0.0061072 0.326345)
(0.0102454 0.00464751 0.292274)
(0.00629563 0.00373367 0.264138)
(0.00349443 0.00317885 0.239334)
(0.00153666 0.00284485 0.214379)
(-4.80223e-05 0.00252502 0.178477)
(0.0243294 0.0161783 0.391454)
(0.0167386 0.0116865 0.346852)
(0.0112245 0.00839419 0.310962)
(0.00719178 0.00621414 0.28155)
(0.00425891 0.00475465 0.256537)
(0.00213598 0.00379255 0.233891)
(0.000611922 0.00312582 0.210533)
(-0.000651688 0.00245811 0.176219)
(0.0158829 0.0160951 0.354277)
(0.011069 0.0117924 0.320794)
(0.00746692 0.00871801 0.292393)
(0.00476639 0.00657868 0.268079)
(0.0026684 0.00505953 0.246627)
(0.00106283 0.00397684 0.226558)
(-0.000159986 0.00316787 0.205222)
(-0.00120832 0.00229535 0.172965)
(0.00877453 -0.00655779 0.348237)
(0.00419518 -0.0024677 0.313522)
(0.00148647 -0.00010661 0.286043)
(-7.19309e-05 0.00136318 0.263306)
(-0.000723817 0.00211605 0.243406)
(-0.000751428 0.00237744 0.224606)
(-0.000505878 0.00248836 0.20404)
(0.000416754 0.00217874 0.171554)
(0.0147294 -0.0068544 0.385464)
(0.00738389 -0.00297286 0.337255)
(0.00274681 -0.000395682 0.301917)
(0.000136597 0.00110396 0.274384)
(-0.00112693 0.00208197 0.251362)
(-0.00137382 0.00254488 0.230398)
(-0.00120549 0.0028136 0.208204)
(-0.000109988 0.00262028 0.174086)
(0.0204854 -0.00403652 0.413597)
(0.0110031 -0.00183994 0.355013)
(0.0045346 -0.000164764 0.313338)
(0.000667621 0.000885178 0.281914)
(-0.00135669 0.00172787 0.25645)
(-0.00201468 0.00226119 0.233858)
(-0.00203744 0.00265865 0.210481)
(-0.000858973 0.00275983 0.175161)
(0.0225314 0.00206504 0.420312)