/*--------------------------------*- C++ -*----------------------------------*\
| =========                 |                                                 |
| \\      /  F ield         | OpenFOAM: The Open Source CFD Toolbox           |
|  \\    /   O peration     | Version:  plus.master.MPPICInterFoam            |
|   \\  /    A nd           | Web:      www.OpenFOAM.com                      |
|    \\/     M anipulation  |                                                 |
\*---------------------------------------------------------------------------*/
FoamFile
{
    version     2.0;
    format      ascii;
    class       volScalarField;
    location    "10";
    object      epsilon;
}
// * * * * * * * * * * * * * * * * * * * * * * * * * * * * * * * * * * * * * //

dimensions      [0 2 -3 0 0 0 0];

internalField   nonuniform List<scalar> 
11821
(
0.000541107
0.003371
0.0205231
0.0242203
0.00521107
0.00062168
0.000175143
0.00207901
0.065014
0.312028
0.462029
0.161087
0.030275
0.000822984
0.0112844
0.247386
0.453254
1.42823
0.318073
0.178132
0.00782122
0.0339945
0.539661
1.60566
1.43924
1.48001
0.392478
0.0216255
0.0162508
0.28839
0.478721
1.33863
0.376115
0.225753
0.0133697
0.00270452
0.0696605
0.318298
0.561932
0.187703
0.0499722
0.00205033
0.000609014
0.00355016
0.0210218
0.0302568
0.00664509
0.00131809
0.00032247
0.00463928
0.0393245
0.159735
0.203145
0.041786
0.00484996
0.000955888
0.0316905
0.237389
0.820714
1.3765
0.3739
0.0555962
0.00451126
0.13313
0.732416
1.43898
3.85176
1.1782
0.298428
0.030366
0.313293
1.66301
4.16986
3.98039
5.44389
0.877692
0.0932685
0.172089
0.85616
1.57439
3.75911
1.39812
0.477506
0.065554
0.0408514
0.277816
0.937254
1.8543
0.572353
0.120221
0.0132768
0.00607329
0.0484527
0.210028
0.318451
0.0871493
0.013457
0.00183792
0.0158921
0.0918827
0.311507
0.439157
0.0974108
0.0122702
0.00366028
0.092351
0.496958
1.54443
2.66513
0.793934
0.0989574
0.00976398
0.348992
1.55996
2.78014
6.17989
2.95733
0.53394
0.0439927
0.777077
3.62842
6.99705
6.66943
10.2251
1.51111
0.12974
0.432086
1.81247
3.15902
6.25076
3.13122
0.837672
0.0908658
0.127754
0.633442
1.88022
3.84978
1.25284
0.225047
0.0231721
0.0243636
0.137321
0.461118
0.734527
0.226129
0.0332992
0.00562724
0.0271604
0.114084
0.373084
0.519203
0.120024
0.0220883
0.0103212
0.132486
0.702707
2.24632
3.60186
1.05695
0.121302
0.018377
0.556738
2.65962
4.42462
6.98905
5.16788
0.683605
0.054484
1.32358
6.86302
8.6498
9.70089
14.7373
1.84177
0.131844
0.7104
3.28062
5.29881
7.34677
6.24545
1.05582
0.0932807
0.205443
0.997609
3.11118
6.01563
1.83682
0.267579
0.0309649
0.0447819
0.20609
0.66044
1.0273
0.305291
0.0462598
0.0128668
0.0294093
0.100121
0.318726
0.424643
0.101519
0.0243614
0.0136975
0.125018
0.696806
2.6194
3.60064
0.925003
0.104236
0.0210068
0.593912
3.47885
5.39275
6.64264
5.8849
0.60656
0.0509041
1.60163
10.6718
8.17015
11.7018
17.8456
1.69325
0.111607
0.802415
4.51068
5.70871
7.29436
8.42865
0.938969
0.0787068
0.21264
1.11103
3.92108
6.52949
1.81517
0.227454
0.031223
0.0487761
0.205607
0.685751
1.01594
0.274623
0.0454639
0.0163869
0.000121565
0.000121459
0.000121482
0.000116444
0.000111778
0.000107574
0.000104082
0.000101584
0.000215193
0.000142666
0.000120313
0.00011189
0.000105846
0.000100439
9.61554e-05
9.26341e-05
0.00112051
0.000243168
0.000139536
0.000115303
0.000106611
0.000100285
9.46667e-05
8.98542e-05
0.00314775
0.000490056
0.000161137
0.000113844
0.000102245
9.6699e-05
9.43663e-05
9.17141e-05
0.00204942
0.000365628
0.000151178
0.000118713
0.000109735
0.000103362
9.79104e-05
9.3861e-05
0.000453352
0.000187817
0.000134635
0.000118742
0.000111033
0.000106253
0.000102608
9.97095e-05
0.000167992
0.000135996
0.000126717
0.000119658
0.000114869
0.000111818
0.000109279
0.000106862
0.000474355
0.000382139
0.000326661
0.000284737
0.000251576
0.000224652
0.000202282
0.000183093
0.000765019
0.000440994
0.000349202
0.000295535
0.000256521
0.000226133
0.0002015
0.00018068
0.00218857
0.000580018
0.000370127
0.000298446
0.000255621
0.000224029
0.000198839
0.000177736
0.00503187
0.000752926
0.000389454
0.000301611
0.000256362
0.00022418
0.000198737
0.000177365
0.00431047
0.000720365
0.000382829
0.000298744
0.000255785
0.000225341
0.000201119
0.000180667
0.0015457
0.00051713
0.000351054
0.000289817
0.000253022
0.000225897
0.000204058
0.000185366
0.000631426
0.000396039
0.000320907
0.000277317
0.000246219
0.00022208
0.000202281
0.000185234
0.00235814
0.00199553
0.00172357
0.00146038
0.00120285
0.000960513
0.000745309
0.000568108
0.00306711
0.00217847
0.0018076
0.00151642
0.00124382
0.000987337
0.000757344
0.000566601
0.00537089
0.00248421
0.00187749
0.00154804
0.00126673
0.00100382
0.000765676
0.000566532
0.00927871
0.00280975
0.00192806
0.00156424
0.00127726
0.00101119
0.000769603
0.000567442
0.00825076
0.00274221
0.00189821
0.00153901
0.00125681
0.00099727
0.000763129
0.000568105
0.00427996
0.00229066
0.00177454
0.00146896
0.00120527
0.000961856
0.000745271
0.000567145
0.00255286
0.00194836
0.00164149
0.00138383
0.00114168
0.000917272
0.000720237
0.000560163
0.00789901
0.00679268
0.00584018
0.00497834
0.00426284
0.0037114
0.00327707
0.00283754
0.00922521
0.0073476
0.00619917
0.00521925
0.00440179
0.00377494
0.00330205
0.00284956
0.0123109
0.00795586
0.0064783
0.00540832
0.00452368
0.00384134
0.00333477
0.00286636
0.0166537
0.00847402
0.00664244
0.00551458
0.00459649
0.00388273
0.00335161
0.00286639
0.0151679
0.00834143
0.00658406
0.00546736
0.0045632
0.00386211
0.00333521
0.00284585
0.0105599
0.00758973
0.00628017
0.0052682
0.00443237
0.00378401
0.00328483
0.00280224
0.00815848
0.00680588
0.00582181
0.00495994
0.00424052
0.00367625
0.00322232
0.00276039
0.0113569
0.0103364
0.00957059
0.00885519
0.00800909
0.0067759
0.00505882
0.00330203
0.0125982
0.0107315
0.00970354
0.00889753
0.00809896
0.00700356
0.00537446
0.00355039
0.0154712
0.011317
0.00993867
0.00905126
0.00826351
0.0072331
0.00563646
0.00374306
0.0193275
0.0118608
0.0101366
0.00918884
0.00838648
0.00736073
0.00575727
0.00382004
0.0178287
0.011748
0.0101347
0.00919991
0.00838072
0.00731553
0.00567831
0.00374324
0.013912
0.0111814
0.0100377
0.00920104
0.00835934
0.00719674
0.00547927
0.00356405
0.0119351
0.0107779
0.0100533
0.00938378
0.00854009
0.00723771
0.00537413
0.00344211
0.000203491
0.000150119
0.000140658
0.000136267
0.000132663
0.000129743
0.000127231
0.000125211
0.000531699
0.000186508
0.000134796
0.000119749
0.000111304
0.000107138
0.000103821
9.82151e-05
0.00286603
0.000560594
0.000179796
0.000118575
0.00010259
9.44575e-05
8.93162e-05
8.28183e-05
0.00542729
0.000854124
0.00020406
0.000116208
9.60295e-05
8.61975e-05
7.91262e-05
7.32386e-05
0.00179741
0.000370893
0.0001578
0.000114883
0.000103279
9.58742e-05
8.93707e-05
8.50811e-05
0.000379355
0.000157672
0.000130163
0.000116541
0.000110559
0.000103282
9.92128e-05
9.66197e-05
0.00017941
0.000132163
0.000126992
0.000122436
0.000119621
0.00011748
0.000115244
0.00011293
0.0010894
0.00058449
0.000460246
0.000384726
0.000328284
0.000284255
0.000249524
0.000221796
0.00436755
0.00103889
0.000611305
0.00047168
0.000387709
0.00032466
0.000273516
0.000232086
0.0212178
0.00273225
0.000927131
0.000611748
0.000483311
0.000396696
0.000328439
0.000272025
0.0344936
0.0034086
0.000949046
0.000598589
0.000469273
0.00038601
0.000321379
0.000269179
0.0134094
0.00172357
0.000696255
0.000495949
0.000401209
0.000333045
0.000277627
0.000232235
0.00296037
0.000768096
0.000485511
0.000385915
0.000322588
0.000274139
0.000235413
0.000203394
0.000907419
0.000515627
0.000401755
0.000334777
0.000286687
0.000249831
0.000221037
0.000198033
0.00515698
0.00280411
0.00226218
0.0019211
0.0016001
0.001282
0.000986174
0.000738045
0.0177916
0.00449496
0.00265168
0.00210858
0.0017585
0.00143098
0.00110973
0.000817873
0.0650041
0.0095344
0.0033091
0.00225848
0.00184136
0.00151971
0.00120729
0.000906288
0.108494
0.0124534
0.00343445
0.00219844
0.00175836
0.00143466
0.00112955
0.000841604
0.0454983
0.00681108
0.0028445
0.00209322
0.0017314
0.00142066
0.0011128
0.000821047
0.0118596
0.00346801
0.00229844
0.00188168
0.00156836
0.00126498
0.000971836
0.000712302
0.00388099
0.00242051
0.00200608
0.00170385
0.00141271
0.00112796
0.000867209
0.00065067
0.0138616
0.00905325
0.00739777
0.00622891
0.00527795
0.00452761
0.00392988
0.00334538
0.0351661
0.0124485
0.00835537
0.00673408
0.005643
0.00483153
0.00423828
0.00371004
0.108334
0.0206744
0.00945613
0.00689738
0.00559798
0.00469464
0.00407322
0.00358554
0.188742
0.0267649
0.00978531
0.00677211
0.00539566
0.0044396
0.00376868
0.00324268
0.0764406
0.0162469
0.0086667
0.00661876
0.00540783
0.00451282
0.00387625
0.00336709
0.0235027
0.010272
0.00759529
0.00625869
0.0052541
0.00448379
0.0039132
0.00340357
0.010813
0.00803092
0.00675812
0.00573165
0.00487851
0.00420862
0.0036772
0.00315298
0.0184905
0.0136941
0.0122111
0.0112194
0.0101247
0.00852254
0.00624295
0.00385556
0.0402313
0.017388
0.013362
0.0121046
0.011254
0.00998931
0.00780498
0.00511948
0.114199
0.025976
0.0146166
0.0124985
0.0118152
0.010989
0.00915677
0.0065397
0.197892
0.0322223
0.0147642
0.0119996
0.0112186
0.0105328
0.00905175
0.00686073
0.0801297
0.021255
0.0136161
0.0120109
0.0113804
0.0105617
0.00882038
0.00637209
0.0271989
0.0147707
0.0123531
0.0114265
0.0106919
0.00954411
0.00754076
0.00506479
0.0148934
0.012335
0.0113014
0.0104778
0.00952106
0.00809126
0.0060222
0.00382487
0.000225992
0.000137508
0.000121269
0.000116552
0.00011531
0.000114005
0.000112478
0.000111201
0.000818668
0.000234754
0.000122864
9.93375e-05
9.28537e-05
8.97632e-05
8.63355e-05
8.37358e-05
0.00331464
0.000545457
0.000154554
9.84824e-05
8.25506e-05
7.38127e-05
6.64034e-05
6.02001e-05
0.00350179
0.00052184
0.00015483
0.000104225
8.88028e-05
7.96275e-05
7.18154e-05
6.58732e-05
0.000738001
0.000192597
0.000125817
0.000108116
9.88844e-05
9.17095e-05
8.69332e-05
8.1656e-05
0.00017542
0.000128639
0.000121946
0.000113752
0.000106115
9.96705e-05
9.59565e-05
9.28436e-05
0.000120255
0.000118179
0.00012071
0.000116527
0.000113399
0.000110714
0.000107653
0.000104642
0.00120477
0.000549357
0.000413423
0.000345236
0.000298165
0.000261615
0.000231922
0.000207083
0.0048618
0.00101201
0.000530777
0.000397675
0.000328703
0.000280495
0.000243395
0.0002134
0.0145997
0.00167206
0.00062279
0.00042639
0.000340402
0.000283404
0.000240338
0.000205845
0.0143027
0.00144732
0.000578022
0.000410026
0.000330018
0.000273652
0.000229922
0.000194515
0.00297688
0.000732263
0.000462473
0.000365818
0.00030414
0.000256866
0.000218902
0.000187091
0.000809989
0.000479111
0.000381801
0.00032068
0.000275079
0.000239261
0.000210425
0.000186114
0.000490958
0.000397474
0.000337355
0.000291405
0.00025563
0.000227418
0.000204752
0.000185842
0.00409277
0.00238886
0.00194399
0.00164904
0.00137261
0.00110313
0.000855415
0.000648033
0.0124466
0.00347332
0.00216901
0.00174361
0.00144809
0.00116931
0.000902864
0.000669624
0.0328781
0.00500666
0.00226328
0.001685
0.00138092
0.00111686
0.000862874
0.00063246
0.0378551
0.00482615
0.00217283
0.00161809
0.00130989
0.00104348
0.000794442
0.000573788
0.0092649
0.00293233
0.00203832
0.00167468
0.00138686
0.00110876
0.000841877
0.00060643
0.00327121
0.00227645
0.00191983
0.00163587
0.00135904
0.00108662
0.000832699
0.000616257
0.00239336
0.0020506
0.00178048
0.00151185
0.00124576
0.000993684
0.000769086
0.000584036
0.0105629
0.00777357
0.00651858
0.00554084
0.00473539
0.00410276
0.00359644
0.003087
0.0206183
0.00943249
0.00698491
0.00576962
0.0048783
0.00420426
0.00369595
0.00320828
0.0443813
0.0115161
0.00700293
0.0055285
0.00460662
0.00395519
0.0035067
0.00310678
0.0508453
0.0112809
0.00672243
0.00527077
0.0043504
0.00371137
0.00329729
0.00295524
0.0179693
0.00859938
0.00655661
0.00541555
0.00453546
0.00388066
0.00342125
0.00301322
0.0096572
0.00750912
0.00636338
0.00539725
0.0045814
0.00394983
0.00347419
0.00302078
0.00791402
0.00683721
0.00589416
0.00503746
0.00432394
0.00377218
0.00333666
0.00289506
0.0144451
0.0119094
0.0108581
0.0100379
0.0090827
0.00766161
0.0056446
0.00355801
0.0228731
0.0132158
0.0110377
0.0100448
0.00918069
0.00795751
0.00607134
0.00392554
0.0420232
0.0150115
0.0109595
0.0097733
0.00902775
0.00802626
0.00632197
0.00421738
0.0466326
0.0147085
0.0105535
0.00938658
0.00869523
0.00780154
0.00623191
0.00424201
0.020724
0.0121676
0.01025
0.00936344
0.00866128
0.00768454
0.0060459
0.00404268
0.0131722
0.0110224
0.0100137
0.00926105
0.00850002
0.00739657
0.00568942
0.00373951
0.0113526
0.0103549
0.00959441
0.0088849
0.00804712
0.00682426
0.00511025
0.00333858
0.000143177
0.000126021
0.000121642
0.000115991
0.000111824
0.000108168
0.000105656
0.00010306
0.000252844
0.000142264
0.000131504
0.000116789
0.000108491
0.000101161
9.47075e-05
8.92602e-05
0.00107106
0.000265587
0.000150689
0.000117664
0.000106035
9.70611e-05
8.9295e-05
8.19889e-05
0.0048652
0.000786631
0.000205677
0.000122998
0.000101799
9.10136e-05
8.26563e-05
7.5472e-05
0.00399399
0.00077997
0.000220634
0.000127837
0.000104235
9.39313e-05
8.60669e-05
7.95687e-05
0.000912682
0.000294967
0.000158783
0.00012728
0.000116483
0.000109678
0.000103895
9.9085e-05
0.000246345
0.000167854
0.000147073
0.00013838
0.000134148
0.000130851
0.000128333
0.000126453
0.000591775
0.000421772
0.00034548
0.000292134
0.000252288
0.000221495
0.000197319
0.000177719
0.0014568
0.000587084
0.000432464
0.000353034
0.000295648
0.00025071
0.000214408
0.000184749
0.00721311
0.00119642
0.000628313
0.000475436
0.000387393
0.000320631
0.000265891
0.000220731
0.0319043
0.00304188
0.000960032
0.00063812
0.000505595
0.000414826
0.000342762
0.000284163
0.0268242
0.00338053
0.00110637
0.000715189
0.000556141
0.000449197
0.000366028
0.00029938
0.00723681
0.00157736
0.000794885
0.000573071
0.000455505
0.000372438
0.000307936
0.00025675
0.00131933
0.000619215
0.000490071
0.000412138
0.000351732
0.00030329
0.000264235
0.000232534
0.00252103
0.00201699
0.00173591
0.00147139
0.00121191
0.000965173
0.000744456
0.00056296
0.00518791
0.00247466
0.00195885
0.00165287
0.0013756
0.00110337
0.000843873
0.000615602
0.0243757
0.00446276
0.00240733
0.0018891
0.00157232
0.00128339
0.000998317
0.000730977
0.0967998
0.0106258
0.00318441
0.00212811
0.00171779
0.00140411
0.00110662
0.000825203
0.0711882
0.010315
0.00345751
0.00232221
0.00188309
0.00155265
0.00123506
0.000928626
0.0219012
0.00523485
0.00287974
0.00223616
0.00185554
0.00151171
0.00117483
0.000865691
0.00535897
0.00281585
0.00229364
0.00196077
0.00164016
0.00131745
0.00101367
0.000756135
0.00824694
0.00696388
0.00598286
0.00509825
0.00435743
0.00378119
0.00332742
0.00287787
0.0123662
0.00800524
0.00658261
0.00552676
0.00464342
0.00395938
0.00345863
0.00301603
0.0390949
0.011401
0.00746576
0.00597218
0.00490216
0.00406933
0.00346278
0.00296388
0.141562
0.0212911
0.00885613
0.00640682
0.0051583
0.00425685
0.00361564
0.00310219
0.103444
0.0201446
0.00926805
0.00675783
0.00547204
0.00457575
0.00395777
0.00347056
0.0364249
0.0127557
0.00842906
0.00675249
0.0056483
0.00483669
0.00424772
0.00372388
0.0139123
0.00904691
0.00739717
0.00623191
0.00528159
0.00453085
0.00393258
0.00334762
0.0122179
0.0111318
0.0104597
0.00986427
0.00911649
0.00789663
0.00603837
0.00399591
0.016344
0.0122755
0.0111959
0.0106402
0.0101386
0.00923611
0.00751033
0.00528576
0.0409864
0.0158106
0.0120676
0.0110837
0.0106318
0.00997338
0.00846934
0.00630963
0.13186
0.0252648
0.0134761
0.0114159
0.0107774
0.0101677
0.00879457
0.00674371
0.100799
0.0244089
0.0142213
0.0122908
0.0116855
0.0109368
0.009181
0.00662254
0.0398626
0.0174214
0.0133778
0.0121384
0.0113189
0.0100775
0.00789961
0.00520753
0.0185292
0.0137102
0.0122263
0.0112449
0.0101594
0.00856259
0.00628431
0.00389121
9.91843e-05
9.00332e-05
8.6444e-05
8.85665e-05
9.16588e-05
9.79499e-05
0.000104602
0.000165878
0.000162016
0.000158737
0.000158553
0.000162154
0.00016831
0.000169685
0.000435248
0.00042407
0.000417793
0.00041691
0.000423448
0.000435719
0.000442454
0.00222781
0.00219648
0.00217686
0.00215616
0.0021387
0.00212178
0.00213451
0.00176386
0.00176228
0.001754
0.00174203
0.00172423
0.00170585
0.00175394
0.000123385
9.42795e-05
7.55608e-05
6.83417e-05
7.93005e-05
9.3064e-05
0.000110947
0.000199137
0.000198417
0.000226785
0.000227414
0.000194772
0.000176894
0.000178871
0.000554898
0.000584943
0.000648719
0.000600616
0.000578191
0.000510169
0.000491439
0.00257678
0.0029599
0.00292046
0.00255327
0.00269834
0.00269579
0.00245152
0.00178216
0.00236744
0.00339543
0.00400404
0.00340664
0.00247201
0.00187597
0.000109795
8.21846e-05
5.59157e-05
6.07333e-05
7.57717e-05
9.11577e-05
0.000101834
0.00018559
0.000187862
0.000176817
0.000165182
0.000160459
0.000165354
0.000169064
0.000493672
0.000490655
0.000449291
0.000400798
0.000424443
0.000452377
0.000445414
0.00239472
0.00249118
0.00246128
0.00238278
0.00237402
0.00235335
0.002278
0.00175256
0.00183473
0.0019572
0.00202359
0.00189842
0.00181197
0.00177276
9.9619e-05
8.59016e-05
7.52645e-05
6.90479e-05
7.4315e-05
9.5148e-05
0.000124318
0.000161073
0.000160106
0.000184064
0.000237616
0.000246658
0.000215562
0.000206248
0.000428331
0.000437012
0.000510174
0.000588827
0.000665266
0.000615675
0.000564056
0.00226843
0.00240131
0.00230951
0.00241728
0.00280854
0.00297538
0.00257866
0.00209367
0.00281414
0.00358115
0.00400979
0.00348594
0.00242461
0.00180329
9.65008e-05
8.88001e-05
7.83449e-05
6.79429e-05
5.75853e-05
4.78848e-05
3.91022e-05
3.12272e-05
8.78293e-05
8.22001e-05
7.38029e-05
6.38366e-05
5.42949e-05
4.52458e-05
3.69675e-05
2.94876e-05
8.39425e-05
7.89309e-05
7.15929e-05
6.20779e-05
5.28512e-05
4.41241e-05
3.60919e-05
2.87888e-05
8.62896e-05
8.05839e-05
7.32074e-05
6.45404e-05
5.45667e-05
4.4675e-05
3.62284e-05
2.88554e-05
8.97684e-05
8.43013e-05
7.59019e-05
6.55633e-05
5.5671e-05
4.63788e-05
3.78861e-05
3.02085e-05
9.6456e-05
9.06433e-05
8.13062e-05
7.01236e-05
5.95739e-05
4.97119e-05
4.06674e-05
3.24878e-05
0.000101877
9.46565e-05
8.50121e-05
7.43222e-05
6.34906e-05
5.32459e-05
4.38108e-05
3.52331e-05
0.000149425
0.000122043
9.3706e-05
7.07224e-05
5.39407e-05
4.18426e-05
3.29785e-05
2.65306e-05
0.000145678
0.000119833
9.23961e-05
7.03726e-05
5.39002e-05
4.18903e-05
3.30133e-05
2.65033e-05
0.000142872
0.000118194
9.14927e-05
7.00025e-05
5.38181e-05
4.19217e-05
3.30668e-05
2.65304e-05
0.000143093
0.000118662
9.24809e-05
7.05303e-05
5.39154e-05
4.19678e-05
3.31869e-05
2.67223e-05
0.000146388
0.000120941
9.3349e-05
7.13442e-05
5.49386e-05
4.29288e-05
3.3999e-05
2.7406e-05
0.000152508
0.000125644
9.65907e-05
7.35411e-05
5.64991e-05
4.41315e-05
3.50037e-05
2.83158e-05
0.000154332
0.000127428
9.81491e-05
7.45642e-05
5.73618e-05
4.4948e-05
3.58177e-05
2.91519e-05
0.000342239
0.000251853
0.000161166
0.000101114
6.5659e-05
4.47816e-05
3.22458e-05
2.48167e-05
0.000330624
0.000243997
0.00015797
0.000100224
6.57147e-05
4.52032e-05
3.2788e-05
2.53821e-05
0.000325109
0.000240712
0.000156734
9.99941e-05
6.58566e-05
4.54433e-05
3.30242e-05
2.55826e-05
0.000325464
0.000240814
0.000156485
9.99539e-05
6.59636e-05
4.56012e-05
3.32198e-05
2.58136e-05
0.00033647
0.000246916
0.00015839
0.000100384
6.60277e-05
4.56255e-05
3.32567e-05
2.58695e-05
0.000355212
0.000256295
0.000161632
0.000101388
6.62874e-05
4.56736e-05
3.32847e-05
2.59432e-05
0.000366384
0.000264043
0.000165509
0.000103134
6.69902e-05
4.58757e-05
3.32491e-05
2.57979e-05
0.00157921
0.00072796
0.000294785
0.000135558
7.21206e-05
4.33513e-05
2.89807e-05
2.16314e-05
0.00154708
0.000713455
0.000290058
0.000134203
7.19471e-05
4.36355e-05
2.94708e-05
2.224e-05
0.00152366
0.00070299
0.000287017
0.000133503
7.19119e-05
4.37795e-05
2.96524e-05
2.24201e-05
0.00150109
0.000692126
0.000283704
0.000132628
7.17036e-05
4.37727e-05
2.97304e-05
2.25497e-05
0.00148439
0.000684261
0.000281321
0.000131863
7.13128e-05
4.34742e-05
2.94585e-05
2.22861e-05
0.00147294
0.00068086
0.000280923
0.000131781
7.10844e-05
4.31671e-05
2.91493e-05
2.19977e-05
0.00149842
0.000699736
0.000289991
0.000135663
7.26129e-05
4.36329e-05
2.90942e-05
2.16335e-05
0.00132418
0.000786143
0.000329201
0.000142451
6.9066e-05
3.81084e-05
2.40633e-05
1.76011e-05
0.00130796
0.000778523
0.000327553
0.000142269
6.92607e-05
3.84134e-05
2.44233e-05
1.80213e-05
0.00129132
0.000770259
0.000325092
0.000141532
6.90535e-05
3.83827e-05
2.44582e-05
1.80845e-05
0.00127852
0.00076379
0.000322913
0.00014077
6.87671e-05
3.82776e-05
2.44359e-05
1.81067e-05
0.00127516
0.000762016
0.000321472
0.000139852
6.81475e-05
3.78117e-05
2.40458e-05
1.77376e-05
0.00128791
0.000767713
0.000322006
0.000139497
6.77309e-05
3.74535e-05
2.37332e-05
1.74226e-05
0.00135882
0.000803337
0.000334309
0.000144234
6.98567e-05
3.8522e-05
2.42443e-05
1.752e-05
0.000120718
0.000112583
0.000100547
8.68098e-05
7.34126e-05
6.11067e-05
5.01696e-05
4.05378e-05
9.12593e-05
8.47664e-05
7.97257e-05
7.33852e-05
6.51684e-05
5.61953e-05
4.70983e-05
3.85099e-05
7.06795e-05
6.34513e-05
5.75536e-05
5.18845e-05
4.6178e-05
4.06152e-05
3.52709e-05
2.97594e-05
6.40421e-05
5.67048e-05
5.00464e-05
4.36644e-05
3.77702e-05
3.2549e-05
2.80775e-05
2.36719e-05
7.30849e-05
6.58163e-05
5.96098e-05
5.31213e-05
4.68327e-05
4.10604e-05
3.55287e-05
2.99198e-05
9.02565e-05
8.43923e-05
7.94805e-05
7.17533e-05
6.28103e-05
5.38077e-05
4.49262e-05
3.64901e-05
0.000108309
0.00010175
9.20049e-05
8.01306e-05
6.81504e-05
5.69306e-05
4.6725e-05
3.76771e-05
0.000177763
0.000142912
0.000105929
7.6936e-05
5.67128e-05
4.29527e-05
3.34616e-05
2.68953e-05
0.000170503
0.000137335
0.00010852
8.39834e-05
6.46938e-05
5.02564e-05
3.95492e-05
3.15961e-05
0.000188434
0.000144905
0.000110733
8.5049e-05
6.58024e-05
5.13447e-05
3.97965e-05
3.07986e-05
0.000191425
0.000149243
0.000115708
9.01343e-05
7.06898e-05
5.5779e-05
4.37251e-05
3.42907e-05
0.000163771
0.000126682
9.67403e-05
7.42716e-05
5.76258e-05
4.5093e-05
3.50885e-05
2.72797e-05
0.000154364
0.000126079
9.85758e-05
7.55494e-05
5.80123e-05
4.50373e-05
3.52836e-05
2.80485e-05
0.000161269
0.000132638
0.000100446
7.43028e-05
5.55099e-05
4.23867e-05
3.31389e-05
2.66466e-05
0.000438658
0.000305555
0.000184186
0.00010937
6.76842e-05
4.43498e-05
3.0918e-05
2.31393e-05
0.000424391
0.00029286
0.000205402
0.000138173
9.3947e-05
6.60911e-05
4.8392e-05
3.71388e-05
0.000454638
0.000280525
0.000183504
0.000128033
9.33925e-05
6.98093e-05
5.26426e-05
3.96908e-05
0.000419524
0.000257543
0.000167571
0.000116225
8.41204e-05
6.24726e-05
4.70686e-05
3.5945e-05
0.000402295
0.000244241
0.00015679
0.000107741
7.84789e-05
5.96378e-05
4.5591e-05
3.4661e-05
0.000374376
0.000260047
0.000179241
0.000119072
8.04241e-05
5.63272e-05
4.09937e-05
3.12267e-05
0.0003881
0.000281773
0.000175726
0.000107168
6.76782e-05
4.49686e-05
3.16044e-05
2.37443e-05
0.0017814
0.000813518
0.000325649
0.000145765
7.50172e-05
4.36162e-05
2.82162e-05
2.02841e-05
0.00214515
0.00106984
0.000464751
0.000221811
0.000122043
7.5871e-05
5.19629e-05
3.883e-05
0.00220141
0.00121555
0.000612868
0.000331464
0.000201273
0.000135535
9.76019e-05
7.20989e-05
0.00184049
0.000943376
0.000439742
0.000219704
0.000122734
7.62237e-05
5.17039e-05
3.76249e-05
0.00200756
0.00108037
0.000526219
0.000275453
0.00016214
0.00010578
7.45689e-05
5.49729e-05
0.00195116
0.000969182
0.000420209
0.000200781
0.000110076
6.77558e-05
4.58682e-05
3.40502e-05
0.00171965
0.00079579
0.000323261
0.000147169
7.68013e-05
4.50582e-05
2.93071e-05
2.11343e-05
0.00136347
0.000787893
0.000321578
0.000137491
6.65065e-05
3.69336e-05
2.35068e-05
1.70706e-05
0.00168333
0.000992984
0.000436948
0.000204565
0.000109379
6.69942e-05
4.62313e-05
3.52946e-05
0.00219985
0.00134322
0.000661098
0.000347811
0.000207944
0.00014141
0.00010715
8.79248e-05
0.00252314
0.00155826
0.000799299
0.000430131
0.000247506
0.000147352
8.82108e-05
5.50968e-05
0.00222481
0.00136309
0.000667102
0.000345758
0.00020048
0.000129916
9.28541e-05
7.21182e-05
0.00175557
0.00104295
0.000462855
0.000216717
0.00011457
6.87477e-05
4.63407e-05
3.4644e-05
0.00142067
0.000830795
0.000346214
0.000150367
7.34495e-05
4.08791e-05
2.58917e-05
1.86244e-05
0.000107849
0.000101638
9.13362e-05
7.90261e-05
6.67307e-05
5.54801e-05
4.54295e-05
3.65252e-05
8.05927e-05
7.73331e-05
7.58222e-05
7.06439e-05
6.18972e-05
5.228e-05
4.35374e-05
3.53698e-05
5.29858e-05
4.88605e-05
4.53419e-05
4.12998e-05
3.70564e-05
3.24204e-05
2.79705e-05
2.36382e-05
5.68044e-05
5.02084e-05
4.40593e-05
3.8087e-05
3.29373e-05
2.79956e-05
2.35537e-05
1.96279e-05
7.17375e-05
6.45344e-05
5.78123e-05
5.14254e-05
4.45796e-05
3.74576e-05
3.09588e-05
2.5308e-05
9.03512e-05
8.49663e-05
7.79702e-05
6.92268e-05
5.86834e-05
4.85299e-05
3.96291e-05
3.19791e-05
9.85608e-05
9.1484e-05
8.20432e-05
7.10252e-05
5.99882e-05
4.97926e-05
4.06782e-05
3.25739e-05
0.000165755
0.00013437
0.000100759
7.40446e-05
5.5199e-05
4.22202e-05
3.31307e-05
2.67304e-05
0.000166571
0.000139846
0.000110426
8.43682e-05
6.41777e-05
4.96668e-05
3.90537e-05
3.1392e-05
0.000152829
0.000123156
9.64336e-05
7.56221e-05
5.9573e-05
4.74035e-05
3.74728e-05
2.90097e-05
0.000140804
0.00010904
8.19912e-05
6.18428e-05
4.69177e-05
3.62399e-05
2.83269e-05
2.23611e-05
0.000138287
0.000108788
8.26182e-05
6.25859e-05
4.7701e-05
3.68643e-05
2.88034e-05
2.27816e-05
0.000147733
0.000121894
9.46257e-05
7.13951e-05
5.42292e-05
4.18584e-05
3.30384e-05
2.66666e-05
0.000153043
0.00012591
9.63105e-05
7.21412e-05
5.44409e-05
4.18568e-05
3.28676e-05
2.64595e-05
0.000392207
0.000281849
0.000174774
0.000106496
6.74394e-05
4.50812e-05
3.19629e-05
2.42634e-05
0.000374188
0.000278104
0.000187013
0.000122586
8.22318e-05
5.73887e-05
4.19395e-05
3.22736e-05
0.000329647
0.000228092
0.000171987
0.000129833
9.86479e-05
7.63023e-05
6.03964e-05
4.89835e-05
0.000288397
0.000188169
0.000130751
9.47011e-05
6.93707e-05
5.07004e-05
3.66268e-05
2.63225e-05
0.000308653
0.000206864
0.000151904
0.000109024
7.93754e-05
5.93979e-05
4.55341e-05
3.58947e-05
0.000345556
0.000252062
0.000167115
0.000108023
7.16848e-05
4.95472e-05
3.58144e-05
2.73051e-05
0.000348627
0.00025706
0.000164687
0.000103104
6.66835e-05
4.52701e-05
3.24458e-05
2.48513e-05
0.00167019
0.000762343
0.000306064
0.000138659
7.2425e-05
4.27442e-05
2.80774e-05
2.05492e-05
0.0017586
0.000822232
0.000338529
0.000157788
8.58317e-05
5.32181e-05
3.672e-05
2.78927e-05
0.00177538
0.000869156
0.000373566
0.000182018
0.000106364
7.23786e-05
5.50746e-05
4.55655e-05
0.00176432
0.000905799
0.000423959
0.00022905
0.000147198
0.000107102
8.24807e-05
6.29717e-05
0.00171198
0.00083904
0.000359292
0.000176926
0.000105112
7.21928e-05
5.42199e-05
4.28049e-05
0.0016723
0.000785537
0.000322559
0.000150582
8.23869e-05
5.12613e-05
3.51866e-05
2.63296e-05
0.00161758
0.000747561
0.000302705
0.000139001
7.39339e-05
4.44403e-05
2.9644e-05
2.19801e-05
0.00132964
0.000780115
0.000322118
0.000137869
6.62198e-05
3.62522e-05
2.27067e-05
1.63842e-05
0.00135157
0.000796026
0.000333601
0.000145786
7.22807e-05
4.129e-05
2.71179e-05
2.04253e-05
0.001409
0.000835385
0.000358978
0.000163774
8.68182e-05
5.41902e-05
3.93238e-05
3.25385e-05
0.00144414
0.000867529
0.000388486
0.000193257
0.000118106
8.84466e-05
7.72771e-05
7.44069e-05
0.00138335
0.000821807
0.000353525
0.000163177
8.85874e-05
5.69082e-05
4.19918e-05
3.45286e-05
0.0013423
0.000794511
0.000334573
0.00014733
7.3819e-05
4.26059e-05
2.81164e-05
2.11144e-05
0.00133121
0.000789051
0.000330189
0.000143127
6.9677e-05
3.86503e-05
2.44967e-05
1.79e-05
9.61958e-05
9.05356e-05
8.2882e-05
7.33609e-05
6.32339e-05
5.33762e-05
4.41816e-05
3.57591e-05
8.31787e-05
7.5676e-05
6.86918e-05
6.22975e-05
5.52535e-05
4.76518e-05
4.00625e-05
3.27463e-05
6.99916e-05
6.2068e-05
5.54636e-05
4.95361e-05
4.38548e-05
3.82279e-05
3.26876e-05
2.73505e-05
6.3525e-05
5.49732e-05
4.78893e-05
4.18371e-05
3.63392e-05
3.13774e-05
2.65707e-05
2.24713e-05
7.00144e-05
6.31204e-05
5.70919e-05
5.16595e-05
4.61271e-05
4.05926e-05
3.50359e-05
2.95625e-05
9.14729e-05
8.4192e-05
7.77679e-05
7.21386e-05
6.44241e-05
5.57469e-05
4.6949e-05
3.85159e-05
0.000121431
0.000113263
0.000100758
8.6643e-05
7.29993e-05
6.0691e-05
4.98456e-05
4.0287e-05
0.000146354
0.000123428
9.69838e-05
7.44595e-05
5.73899e-05
4.48528e-05
3.55989e-05
2.88501e-05
0.000139154
0.000112049
8.81553e-05
6.93266e-05
5.44973e-05
4.30142e-05
3.41114e-05
2.72175e-05
0.000153453
0.000117426
8.95912e-05
6.91086e-05
5.3784e-05
4.20143e-05
3.2809e-05
2.55445e-05
0.000197822
0.00015301
0.000117999
9.09761e-05
7.04678e-05
5.46953e-05
4.24278e-05
3.27927e-05
0.000202476
0.000154073
0.000116964
8.93722e-05
6.89812e-05
5.34294e-05
4.12575e-05
3.17007e-05
0.000181568
0.000142048
0.000110933
8.55631e-05
6.58339e-05
5.11505e-05
4.0308e-05
3.21857e-05
0.000182249
0.000144777
0.000106304
7.65955e-05
5.62286e-05
4.25554e-05
3.3206e-05
2.67586e-05
0.000337448
0.000255849
0.000168587
0.000107963
7.09727e-05
4.86659e-05
3.49969e-05
2.66986e-05
0.000316749
0.000209845
0.000152342
0.000108782
7.72689e-05
5.57925e-05
4.12979e-05
3.16565e-05
0.000352633
0.000212192
0.000135655
9.24559e-05
6.59505e-05
4.84542e-05
3.62939e-05
2.77168e-05
0.000411397
0.000253398
0.000165217
0.000114394
8.23984e-05
6.07395e-05
4.53872e-05
3.43258e-05
0.000465392
0.000287654
0.000188255
0.000131121
9.55465e-05
7.14233e-05
5.39012e-05
4.07698e-05
0.000440047
0.000295271
0.000210384
0.00014265
9.68891e-05
6.77262e-05
4.91268e-05
3.729e-05
0.000440754
0.000306167
0.000184646
0.00010957
6.77241e-05
4.43311e-05
3.08895e-05
2.31199e-05
0.00163159
0.00078648
0.000334324
0.000158397
8.55308e-05
5.16289e-05
3.42464e-05
2.49136e-05
0.00177037
0.000920804
0.000419056
0.00020702
0.000116557
7.35044e-05
5.06063e-05
3.75492e-05
0.0016616
0.000858127
0.000412927
0.000218674
0.000130313
8.55892e-05
6.01391e-05
4.41295e-05
0.00172343
0.000883136
0.00041845
0.000214214
0.000122094
7.6487e-05
5.162e-05
3.70213e-05
0.00210204
0.0011653
0.000598423
0.000328383
0.000199583
0.000132879
9.42033e-05
6.92247e-05
0.00216035
0.00108676
0.000473942
0.000225433
0.000122987
7.55754e-05
5.10676e-05
3.75554e-05
0.00178428
0.00081668
0.000327797
0.000146945
7.56288e-05
4.39314e-05
2.83782e-05
2.03656e-05
0.00158731
0.00093543
0.000396656
0.000175182
8.70868e-05
4.92671e-05
3.1496e-05
2.26203e-05
0.00197932
0.00118653
0.000535423
0.000253597
0.000135136
8.13346e-05
5.44002e-05
3.98195e-05
0.00234232
0.0014221
0.000698406
0.000362278
0.000208105
0.000131399