/*--------------------------------*- C++ -*----------------------------------*\
| =========                 |                                                 |
| \\      /  F ield         | OpenFOAM: The Open Source CFD Toolbox           |
|  \\    /   O peration     | Version:  plus.master.MPPICInterFoam            |
|   \\  /    A nd           | Web:      www.OpenFOAM.com                      |
|    \\/     M anipulation  |                                                 |
\*---------------------------------------------------------------------------*/
FoamFile
{
    version     2.0;
    format      ascii;
    class       volScalarField;
    location    "1.2";
    object      k;
}
// * * * * * * * * * * * * * * * * * * * * * * * * * * * * * * * * * * * * * //

dimensions      [0 2 -2 0 0 0 0];

internalField   nonuniform List<scalar> 
11821
(
0.000729182
0.000736856
0.000716593
0.0007292
0.0007166
0.000694199
0.000693949
0.00071628
0.000728748
0.000732786
0.000728769
0.000716321
0.000694046
0.000716284
0.000736436
0.000747951
0.000751699
0.000747977
0.000736483
0.000716379
0.000728756
0.000747955
0.000758904
0.00076247
0.000758934
0.00074801
0.000728854
0.000732796
0.000751705
0.000762472
0.000765978
0.000762505
0.000751762
0.000732887
0.000728781
0.000747985
0.000758939
0.000762507
0.000758969
0.00074803
0.00072884
0.000716334
0.000736492
0.000748015
0.000751764
0.00074803
0.000736499
0.000716344
0.000694055
0.000716387
0.000728859
0.000732888
0.000728839
0.000716343
0.000694009
0.000694007
0.000716316
0.00072876
0.000732774
0.000728735
0.000716269
0.000693976
0.000716317
0.000736453
0.000747949
0.000751676
0.000747933
0.00073642
0.000716298
0.000728763
0.00074795
0.000758883
0.000762429
0.000758873
0.000747928
0.000728754
0.00073278
0.00075168
0.000762431
0.000765917
0.000762423
0.000751659
0.000732773
0.000728743
0.000747939
0.000758876
0.000762424
0.000758865
0.000747912
0.000728728
0.000716279
0.000736427
0.000747932
0.000751661
0.000747913
0.000736386
0.000716244
0.000693988
0.000716304
0.000728758
0.000732775
0.000728728
0.000716244
0.000693926
0.000694065
0.000716359
0.000728786
0.000732787
0.000728737
0.000716263
0.000693967
0.000716359
0.000736486
0.000747971
0.000751688
0.000747936
0.000736415
0.000716288
0.000728788
0.000747972
0.000758897
0.000762436
0.000758872
0.00074792
0.000728742
0.000732791
0.000751691
0.000762437
0.000765918
0.000762418
0.00075165
0.000732761
0.000728744
0.000747942
0.000758876
0.00076242
0.000758858
0.000747904
0.00072872
0.000716275
0.000736423
0.000747926
0.000751654
0.000747906
0.000736382
0.000716244
0.000693982
0.000716298
0.000728749
0.000732765
0.000728723
0.000716245
0.000693936
0.000694083
0.000716376
0.000728802
0.000732803
0.000728755
0.000716284
0.000693992
0.000716376
0.000736503
0.000747987
0.000751704
0.000747953
0.000736433
0.000716306
0.000728802
0.000747987
0.000758911
0.00076245
0.000758888
0.000747936
0.000728758
0.000732804
0.000751705
0.000762451
0.000765932
0.000762434
0.000751668
0.00073278
0.000728758
0.000747955
0.000758889
0.000762435
0.000758876
0.000747926
0.000728746
0.00071629
0.000736437
0.000747938
0.000751669
0.000747927
0.00073641
0.00071628
0.000693999
0.00071631
0.00072876
0.000732781
0.000728747
0.000716281
0.000693982
0.000694063
0.000716363
0.000728795
0.000732803
0.000728762
0.000716297
0.000694006
0.00071636
0.000736493
0.00074798
0.000751702
0.000747956
0.000736439
0.000716312
0.00072879
0.000747978
0.000758905
0.000762447
0.000758888
0.000747939
0.000728761
0.000732796
0.000751698
0.000762445
0.00076593
0.000762435
0.000751672
0.000732786
0.000728754
0.00074795
0.000758884
0.000762433
0.00075888
0.000747935
0.00072876
0.000716287
0.00073643
0.000747933
0.000751668
0.000747934
0.000736425
0.000716304
0.000693992
0.0007163
0.000728752
0.00073278
0.000728757
0.000716303
0.000694018
0.000694042
0.000716345
0.00072878
0.000732791
0.000728753
0.000716288
0.000693997
0.000716343
0.000736478
0.000747966
0.000751689
0.000747944
0.000736427
0.000716297
0.000728774
0.000747964
0.00075889
0.000762433
0.000758874
0.000747924
0.000728744
0.000732783
0.000751684
0.000762431
0.000765915
0.000762421
0.000751658
0.00073277
0.000728742
0.000747937
0.00075887
0.000762419
0.000758866
0.000747922
0.000728747
0.000716276
0.000736418
0.000747918
0.000751654
0.000747921
0.000736415
0.000716296
0.000693982
0.000716286
0.000728736
0.000732765
0.000728745
0.000716295
0.000694016
0.000694052
0.000716351
0.000728781
0.00073279
0.000728751
0.000716289
0.000694002
0.000716351
0.000736482
0.000747966
0.000751686
0.00074794
0.000736425
0.000716299
0.000728782
0.000747966
0.000758887
0.000762426
0.000758866
0.000747917
0.000728739
0.000732791
0.000751687
0.000762427
0.000765907
0.00076241
0.000751645
0.000732758
0.000728754
0.000747943
0.000758869
0.000762411
0.000758853
0.000747905
0.000728728
0.000716294
0.00073643
0.000747922
0.000751649
0.000747907
0.000736394
0.00071627
0.000694011
0.000716307
0.000728747
0.000732765
0.000728733
0.000716272
0.000693984
0.000694054
0.000716352
0.000728782
0.00073279
0.000728754
0.000716296
0.000694019
0.000716351
0.00073648
0.000747962
0.000751684
0.000747941
0.000736431
0.000716315
0.000728781
0.000747962
0.000758882
0.000762421
0.000758864
0.000747919
0.00072875
0.000732791
0.000751685
0.000762422
0.000765901
0.000762405
0.000751643
0.000732762
0.000728757
0.000747944
0.000758866
0.000762406
0.000758847
0.000747898
0.000728722
0.000716302
0.000736436
0.000747924
0.000751647
0.000747901
0.000736382
0.000716254
0.000694029
0.000716324
0.000728758
0.000732769
0.000728728
0.000716258
0.00069396
0.000694015
0.000716324
0.000728764
0.00073278
0.000728747
0.000716292
0.000694019
0.000716319
0.000736458
0.000747949
0.000751677
0.000747939
0.000736432
0.000716321
0.000728756
0.000747946
0.000758874
0.00076242
0.000758867
0.000747926
0.000728761
0.000732772
0.000751673
0.000762418
0.000765903
0.000762411
0.000751653
0.000732776
0.000728741
0.000747935
0.000758864
0.000762411
0.000758855
0.00074791
0.000728737
0.000716286
0.000736428
0.000747923
0.000751652
0.00074791
0.000736394
0.000716268
0.00069401
0.000716314
0.000728757
0.000732774
0.000728737
0.000716269
0.000693972
0.000693992
0.000716316
0.000728769
0.000732795
0.000728768
0.000716313
0.000694033
0.000716313
0.000736464
0.000747966
0.0007517
0.000747964
0.000736456
0.000716336
0.000728765
0.000747965
0.000758899
0.000762448
0.000758896
0.000747951
0.000728777
0.000732792
0.000751699
0.000762448
0.000765935
0.000762442
0.000751681
0.000732795
0.000728766
0.000747962
0.000758894
0.000762442
0.000758887
0.000747939
0.000728761
0.00071631
0.000736452
0.000747948
0.000751679
0.000747938
0.000736423
0.000716296
0.000694025
0.000716327
0.000728771
0.000732792
0.00072876
0.000716296
0.000694002
0.000694042
0.000716371
0.000728828
0.000732858
0.000728835
0.000716378
0.000694087
0.000716374
0.000736529
0.00074803
0.000751765
0.000748028
0.000736512
0.000716378
0.000728834
0.000748033
0.000758964
0.000762511
0.000758954
0.000748001
0.000728813
0.000732866
0.00075177
0.000762513
0.000765995
0.000762497
0.000751728
0.000732831
0.000728844
0.000748033
0.000758957
0.000762499
0.00075894
0.000747987
0.0007288
0.000716389
0.000736519
0.000748006
0.000751731
0.000747989
0.000736473
0.000716342
0.000694097
0.000716384
0.000728818
0.000732835
0.000728805
0.000716344
0.000694053
0.000694113
0.000716449
0.000728908
0.000732941
0.00072892
0.000716462
0.000694166
0.000716453
0.000736611
0.000748113
0.000751849
0.000748113
0.000736596
0.000716456
0.000728914
0.000748115
0.000759045
0.000762593
0.000759037
0.000748083
0.00072889
0.000732947
0.000751852
0.000762594
0.000766078
0.000762582
0.000751813
0.000732913
0.000728925
0.000748116
0.000759039
0.000762583
0.000759027
0.000748077
0.000728892
0.000716467
0.000736599
0.000748086
0.000751815
0.000748078
0.000736568
0.000716443
0.00069417
0.000716458
0.000728893
0.000732917
0.000728895
0.000716445
0.000694162
0.00069417
0.000716519
0.000728982
0.000733017
0.000728994
0.000716533
0.000694232
0.000716519
0.000736687
0.000748191
0.000751929
0.000748193
0.000736674
0.000716533
0.000728983
0.000748191
0.000759124
0.000762673
0.000759118
0.000748164
0.000728971
0.000733017
0.000751929
0.000762672
0.000766157
0.000762663
0.000751896
0.000732997
0.000728992
0.000748189
0.000759114
0.000762661
0.000759108
0.000748161
0.000728978
0.000716528
0.000736667
0.000748158
0.000751891
0.000748159
0.000736652
0.00071653
0.000694219
0.000716518
0.00072896
0.00073299
0.000728974
0.000716529
0.000694251
0.000694212
0.000716558
0.000729014
0.000733041
0.000729012
0.000716547
0.000694246
0.000716557
0.00073672
0.000748217
0.000751948
0.000748206
0.000736686
0.000716546
0.000729013
0.000748217
0.000759142
0.000762686
0.000759126
0.000748171
0.000728981
0.00073304
0.000751946
0.000762684
0.000766164
0.000762666
0.000751898
0.000733002
0.000729009
0.000748201
0.000759122
0.000762664
0.000759107
0.000748159
0.000728978
0.000716541
0.000736677
0.000748163
0.000751893
0.000748157
0.000736649
0.000716526
0.000694232
0.000716529
0.000728967
0.000732993
0.000728974
0.000716526
0.000694245
0.000694204
0.000716531
0.000728978
0.000733
0.000728971
0.000716512
0.000694223
0.000716531
0.000736679
0.000748171
0.000751899
0.000748159
0.000736646
0.000716519
0.000728978
0.00074817
0.000759094
0.000762636
0.00075908
0.000748133
0.000728953
0.000733
0.000751898
0.000762636
0.000766116
0.000762622
0.00075186
0.000732973
0.000728971
0.000748157
0.000759078
0.000762621
0.000759066
0.000748122
0.000728947
0.000716513
0.000736643
0.00074813
0.000751857
0.000748121
0.000736613
0.000716495
0.000694221
0.000716512
0.000728948
0.000732969
0.000728945
0.000716494
0.000694215
0.00069421
0.000716521
0.000728972
0.000732997
0.000728973
0.00071652
0.000694239
0.000716524
0.000736665
0.000748162
0.000751894
0.000748158
0.000736649
0.000716528
0.000728977
0.000748164
0.000759091
0.000762638
0.000759085
0.000748141
0.000728968
0.000733004
0.000751898
0.000762639
0.000766123
0.000762631
0.000751871
0.00073299
0.00072898
0.000748163
0.000759086
0.000762632
0.000759078
0.000748135
0.000728963
0.000716527
0.000736654
0.000748143
0.000751873
0.000748135
0.000736627
0.00071651
0.000694245
0.000716531
0.00072897
0.000732991
0.000728963
0.000716509
0.000694229
0.000322583
0.000140923
0.00063022
0.000579734
0.000517052
0.000438169
0.000331996
0.000144843
0.00070682
0.000675415
0.000635248
0.000584772
0.000521808
0.000442313
0.000335116
0.000146141
0.000702169
0.000670378
0.00063001
0.000579556
0.000516886
0.000438011
0.000331834
0.000144744
0.000688279
0.000655551
0.000614754
0.000564433
0.00050264
0.000425569
0.000322338
0.000140778
0.000663854
0.000630909
0.000589934
0.00054008
0.000479762
0.000405443
0.00030661
0.000134274
0.000663799
0.000630912
0.000589976
0.000540143
0.000479834
0.000405515
0.000306672
0.000134294
0.000688175
0.000655534
0.000614801
0.000564525
0.000502761
0.000425707
0.000322483
0.000140846
0.000701981
0.000670282
0.000629988
0.00057959
0.000516959
0.000438108
0.000331939
0.000144807
0.00070651
0.000675179
0.000635069
0.000584644
0.000521719
0.000442252
0.000335076
0.000146121
0.000701933
0.000670202
0.000629885
0.000579468
0.000516823
0.000437965
0.000331801
0.000144726
0.000688095
0.000655417
0.000614655
0.000564356
0.000502576
0.000425515
0.000322294
0.000140753
0.000663714
0.0006308
0.000589844
0.00054
0.000479687
0.000405373
0.000306548
0.00013424
0.00066372
0.000630832
0.000589894
0.000540063
0.000479758
0.000405444
0.000306611
0.000134259
0.000688084
0.000655441
0.000614712
0.000564442
0.000502686
0.000425639
0.000322417
0.000140804
0.000701874
0.000670173
0.000629885
0.000579496
0.000516873
0.000438032
0.000331873
0.000144761
0.000706401
0.000675079
0.000634981
0.000584567
0.00052165
0.00044219
0.000335021
0.000146082
0.000701834
0.000670117
0.000629811
0.000579404
0.000516764
0.000437911
0.000331752
0.000144694
0.000688012
0.000655347
0.000614595
0.000564302
0.000502526
0.000425467
0.00032225
0.000140724
0.000663646
0.000630743
0.000589793
0.000539953
0.000479643
0.000405331
0.00030651
0.000134214
0.00066371
0.000630821
0.000589885
0.000540058
0.000479758
0.000405452
0.000306626
0.000134262
0.000688071
0.000655425
0.000614693
0.000564422
0.000502666
0.000425622
0.000322404
0.000140789
0.000701857
0.000670153
0.000629861
0.000579468
0.000516842
0.000437997
0.000331838
0.000144727
0.000706387
0.000675062
0.000634961
0.000584543
0.000521622
0.000442156
0.000334985
0.000146046
0.000701827
0.00067011
0.000629804
0.000579394
0.000516751
0.000437894
0.000331732
0.00014467
0.000688016
0.000655356
0.000614605
0.000564314
0.000502538
0.000425478
0.000322259
0.000140716
0.000663662
0.000630765
0.000589821
0.000539986
0.00047968
0.00040537
0.000306547
0.000134223
0.000663736
0.00063085
0.000589918
0.000540096
0.000479801
0.0004055
0.000306673
0.000134281
0.000688089
0.000655441
0.000614707
0.000564434
0.000502676
0.000425629
0.000322408
0.000140784
0.000701872
0.000670164
0.000629867
0.000579468
0.000516836
0.000437986
0.000331823
0.000144706
0.000706406
0.000675079
0.000634975
0.000584553
0.000521628
0.000442159
0.000334983
0.00014603
0.000701856
0.000670142
0.000629838
0.00057943
0.000516788
0.000437931
0.000331765
0.00014467
0.00068806
0.000655406
0.000614663
0.000564379
0.000502607
0.000425549
0.000322324
0.000140734
0.000663719
0.000630831
0.000589896
0.000540069
0.000479768
0.000405459
0.000306628
0.000134253
0.000663749
0.000630865
0.000589934
0.000540114
0.00047982
0.000405518
0.000306688
0.000134288
0.000688092
0.00065544
0.0006147
0.000564419
0.000502653
0.000425598
0.000322373
0.000140759
0.000701872
0.000670159
0.000629855
0.000579448
0.000516806
0.000437949
0.000331781
0.000144675
0.000706413
0.000675085
0.000634978
0.000584552
0.000521624
0.000442152
0.000334975
0.000146017
0.000701876
0.000670166
0.000629867
0.000579463
0.000516825
0.000437971
0.000331805
0.000144683
0.000688094
0.00065545
0.000614717
0.000564443
0.00050268
0.000425628
0.000322401
0.000140766
0.000663768
0.000630891
0.000589967
0.000540151
0.000479858
0.000405553
0.000306715
0.000134291
0.000663737
0.000630851
0.000589918
0.000540094
0.000479798
0.000405493
0.000306663
0.000134271
0.000688072
0.000655415
0.000614667
0.000564378
0.000502602
0.000425539
0.000322309
0.000140718
0.000701851
0.000670132
0.000629821
0.000579404
0.000516753
0.000437887
0.000331716
0.00014463
0.000706395
0.000675063
0.000634951
0.00058452
0.000521586
0.000442109
0.000334931
0.000145985
0.000701863
0.000670154
0.000629854
0.00057945
0.000516812
0.000437958
0.000331792
0.00014467
0.000688089
0.000655449
0.00061472
0.00056445
0.000502692
0.000425643
0.000322419
0.000140776
0.000663772
0.0006309
0.000589983
0.000540174
0.000479889
0.000405591
0.000306757
0.000134318
0.000663748
0.000630866
0.000589935
0.000540114
0.00047982
0.000405515
0.000306683
0.000134272
0.000688081
0.00065543
0.000614689
0.000564408
0.000502639
0.000425581
0.000322352
0.000140724
0.000701852
0.000670139
0.000629834
0.000579426
0.000516783
0.000437923
0.000331753
0.000144631
0.000706385
0.000675055
0.000634947
0.000584519
0.000521589
0.000442114
0.000334936
0.000145972
0.000701842
0.00067013
0.000629828
0.000579421
0.000516781
0.000437924
0.000331757
0.000144642
0.000688058
0.000655412
0.000614677
0.000564401
0.000502638
0.000425586
0.000322363
0.000140744
0.000663733
0.000630856
0.000589931
0.000540116
0.000479827
0.000405528
0.000306701
0.000134294
0.000663779
0.000630905
0.000589983
0.00054017
0.000479883
0.000405583
0.00030675
0.00013431
0.000688111
0.000655475
0.000614751
0.000564489
0.00050274
0.000425699
0.000322477
0.0001408
0.000701876
0.000670178
0.000629892
0.000579503
0.000516882
0.000438042
0.00033188
0.000144708
0.000706397
0.000675078
0.000634982
0.000584568
0.000521651
0.00044219
0.000335017
0.000146013
0.00070184
0.00067013
0.00062983
0.000579426
0.000516788
0.000437935
0.00033177
0.000144641
0.000688039
0.000655387
0.000614644
0.000564359
0.000502588
0.00042553
0.000322306
0.00014071
0.000663699
0.00063081
0.000589873
0.000540043
0.000479741
0.000405433
0.000306604
0.000134243
0.000663784
0.000630911
0.000589989
0.000540176
0.000479889
0.00040559
0.000306758
0.000134324
0.000688121
0.000655489
0.000614769
0.000564511
0.000502768
0.000425733
0.000322515
0.000140839
0.000701891
0.000670197
0.000629916
0.000579534
0.000516919
0.000438085
0.000331928
0.00014475
0.000706415
0.000675099
0.000635007
0.000584598
0.000521687
0.000442231
0.00033506
0.000146048
0.000701857
0.000670149
0.000629851
0.00057945
0.000516817
0.000437966
0.000331804
0.000144661
0.000688054
0.000655402
0.000614658
0.000564374
0.000502603
0.000425546
0.000322322
0.000140713
0.000663711
0.000630821
0.000589882
0.00054005
0.000479746
0.000405435
0.000306605
0.000134234
0.000663784
0.0006309
0.000589967
0.000540143
0.000479845
0.000405539
0.000306705
0.000134291
0.000688122
0.000655474
0.000614737
0.00056446
0.000502698
0.000425647
0.000322423
0.000140775
0.000701894
0.000670183
0.000629883
0.000579481
0.000516846
0.000437995
0.00033183
0.000144682
0.000706423
0.000675094
0.000634986
0.000584561
0.000521635
0.000442165
0.000334988
0.000145998
0.000701873
0.000670157
0.000629849
0.000579438
0.000516795
0.000437937
0.00033177
0.00014464
0.000688078
0.000655423
0.000614677
0.000564389
0.000502616
0.000425556
0.00032233
0.000140714
0.000663742
0.000630852
0.000589914
0.000540085
0.000479782
0.000405473
0.00030664
0.000134248
0.000663821
0.000630926
0.00058998
0.000540144
0.000479835
0.000405518
0.000306677
0.000134272
0.000688144
0.000655474
0.00061471
0.000564403
0.000502611
0.000425533
0.000322292
0.000140695
0.000701908
0.000670173
0.000629842
0.000579406
0.000516738
0.000437858
0.000331677
0.000144587
0.000706441
0.00067509
0.000634958
0.000584506
0.000521552
0.000442059
0.000334869
0.000145923
0.000701901
0.000670172
0.000629849
0.00057942
0.00051676
0.000437885
0.000331705
0.000144593
0.000688119
0.000655459
0.000614705
0.000564409
0.000502626
0.000425556
0.000322318
0.000140695
0.000663792
0.000630901
0.00058996
0.000540126
0.000479819
0.000405503
0.000306661
0.00013425
0.00066389
0.000630984
0.000590023
0.000540171
0.000479846
0.000405514
0.000306659
0.000134254
0.000688211
0.000655525
0.000614742
0.000564415
0.000502603
0.000425506
0.000322251
0.000140656
0.000701977
0.000670228
0.000629882
0.000579428
0.000516743
0.000437847
0.000331653
0.000144552
0.000706519
0.00067516
0.000635018
0.000584554
0.00052159
0.000442086
0.000334884
0.000145905
0.000701992
0.000670261
0.000629935
0.000579503
0.000516837
0.000437956
0.000331763
0.000144598
0.000688224
0.000655567
0.000614815
0.00056452
0.000502737
0.000425664
0.000322412
0.000140722
0.000663909
0.000631022
0.000590085
0.000540253
0.000479946
0.000405625
0.000306766
0.000134287
0.000663949
0.00063103
0.000590055
0.000540187
0.000479846
0.000405499
0.00030663
0.000134219
0.000688284
0.000655591
0.000614801
0.000564467
0.000502649
0.000425547
0.000322284
0.000140653
0.000702058
0.000670307
0.000629959
0.000579505
0.00051682
0.000437924
0.000331723
0.000144567
0.000706604
0.000675246
0.000635104
0.000584643
0.000521681
0.000442176
0.000334966
0.000145927
0.00070208
0.00067035
0.000630025
0.000579594
0.00051693
0.000438048
0.000331846
0.000144624
0.000688313
0.000655656
0.000614905
0.00056461
0.000502825
0.000425747
0.000322485
0.000140747
0.000663999
0.000631112
0.000590171
0.000540336
0.000480024
0.000405695
0.000306822
0.000134305
0.000663963
0.000631045
0.000590069
0.000540199
0.000479856
0.000405506
0.000306632
0.000134193
0.000688301
0.000655614
0.000614828
0.000564498
0.000502681
0.00042558
0.000322311
0.000140643
0.000702073
0.000670328
0.000629987
0.000579539
0.000516859
0.000437964
0.000331758
0.000144564
0.000706613
0.00067526
0.000635124
0.000584668
0.000521708
0.000442205
0.000334989
0.000145921
0.000702082
0.000670354
0.00063003
0.000579599
0.000516933
0.000438047
0.000331839
0.000144604
0.000688309
0.00065565
0.000614893
0.00056459
0.000502797
0.000425709
0.000322438
0.000140707
0.000663988
0.000631094
0.000590144
0.000540297
0.000479971
0.000405629
0.000306749
0.00013425
0.000663956
0.000631054
0.000590096
0.000540244
0.000479918
0.000405581
0.000306712
0.000134209
0.00068829
0.000655622
0.000614856
0.000564547
0.00050275
0.000425664
0.0003224
0.000140666
0.00070206
0.000670334
0.000630011
0.000579584
0.000516922
0.000438041
0.000331841
0.000144588
0.000706597
0.000675259
0.000635139
0.000584699
0.000521756
0.000442265
0.000335056
0.000145944
0.000702062
0.000670346
0.000630034
0.000579617
0.000516963
0.000438088
0.000331887
0.000144617
0.000688286
0.000655636
0.00061489
0.000564598
0.000502816
0.000425739
0.000322475
0.000140709
0.000663964
0.000631079
0.00059014
0.000540304
0.00047999
0.000405659
0.000306785
0.000134246
0.000663984
0.000631101
0.000590167
0.000540341
0.000480042
0.000405728
0.00030687
0.000134315
0.000688313
0.000655661
0.000614917
0.000564632
0.000502859
0.000425795
0.000322542
0.000140767
0.000702085
0.000670372
0.000630065
0.000579654
0.000517009
0.000438144
0.000331953
0.000144677
0.000706622
0.000675294
0.000635185
0.000584757
0.000521826
0.000442347
0.000335146
0.000146019
0.000702084
0.000670375
0.000630074
0.000579669
0.000517029
0.000438166
0.000331974
0.000144693
0.000688304
0.000655664
0.000614931
0.000564656
0.000502893
0.000425834
0.000322583
0.000140799
0.000663983
0.000631112
0.000590192
0.000540378
0.000480088
0.000405781
0.000306922
0.000134355
0.000663773
0.000630875
0.000589926
0.000540081
0.000479759
0.000405428
0.00030658
0.000134247
0.000688114
0.00065544
0.000614682
0.000564381
0.000502593
0.000425521
0.000322292
0.000140753
0.000701891
0.000670163
0.000629854
0.000579444
0.000516804
0.000437953
0.000331798
0.000144735
0.000706423
0.000675085
0.00063498
0.000584563
0.000521648
0.000442194
0.000335036
0.000146115
0.000701869
0.000670145
0.000629844
0.000579443
0.000516815
0.000437975
0.000331826
0.000144748
0.00068806
0.00065539
0.00061464
0.00056435
0.000502575
0.000425518
0.000322299
0.000140745
0.000663704
0.000630784
0.000589828
0.000539979
0.000479655
0.000405327
0.000306491
0.00013419
0.000663707
0.000630807
0.000589856
0.00054001
0.00047969
0.000405365
0.000306529
0.000134217
0.000688058
0.000655377
0.000614611
0.000564302
0.000502508
0.000425433
0.000322207
0.000140705
0.000701853
0.000670117
0.000629797
0.000579375
0.000516722
0.00043786
0.000331703
0.000144679
0.00070641
0.000675068
0.000634956
0.00058453
0.000521604
0.00044214
0.000334976
0.000146065
0.000701885
0.000670166
0.000629867
0.000579466
0.000516835
0.000437989
0.000331833
0.000144739
0.000688108
0.000655452
0.000614716
0.000564439
0.000502674
0.000425619
0.000322393
0.000140777
0.000663784
0.000630884
0.000589949
0.00054012
0.000479813
0.000405494
0.000306649
0.00013425
0.000663701
0.0006308
0.000589851
0.000540009
0.000479695
0.000405377
0.000306546
0.000134221
0.000688051
0.000655364
0.000614591
0.000564276
0.000502477
0.000425398
0.00032217
0.000140673
0.00070185
0.000670103
0.00062977
0.000579332
0.000516663
0.000437788
0.000331622
0.000144621
0.000706418
0.000675066
0.000634942
0.000584499
0.000521557
0.000442076
0.0003349
0.000146008
0.000701911
0.00067019
0.000629886
0.000579479
0.000516838
0.000437982
0.000331815
0.00014471
0.000688158
0.000655509
0.00061478
0.000564509
0.000502749
0.000425696
0.000322463
0.00014081
0.000663859
0.000630973
0.000590055
0.000540244
0.000479954
0.000405647
0.000306799
0.000134331
0.000663726
0.000630829
0.000589886
0.000540053
0.000479748
0.000405438
0.000306609
0.000134248
0.000688074
0.000655391
0.000614625
0.000564319
0.00050253
0.00042546
0.000322235
0.000140692
0.000701867
0.000670122
0.000629791
0.000579356
0.000516691
0.000437818
0.000331652
0.000144617
0.000706432
0.000675078
0.00063495
0.000584505
0.000521558
0.000442073
0.000334893
0.000145984
0.000701926
0.000670201
0.000629892
0.00057948
0.000516834
0.000437971
0.000331797
0.000144686
0.000688176
0.000655526
0.000614795
0.000564523
0.000502761
0.000425706
0.00032247
0.00014081
0.000663883
0.000630998
0.000590082
0.000540274
0.000479988
0.000405684
0.000306836
0.00013436
0.000663727
0.000630835
0.000589897
0.00054007
0.000479772
0.000405467
0.00030664
0.000134261
0.000688079
0.000655405
0.00061465
0.000564357
0.000502581
0.000425523
0.000322303
0.000140721
0.00070187
0.000670131
0.000629809
0.000579386
0.000516734
0.000437871
0.00033171
0.000144636
0.000706427
0.000675076
0.000634953
0.000584512
0.000521571
0.00044209
0.000334913
0.000145984
0.000701914
0.000670187
0.000629876
0.000579462
0.000516814
0.00043795
0.000331776
0.000144666
0.000688158
0.000655503
0.000614768
0.000564491
0.000502725
0.000425667
0.000322431
0.000140782
0.00066386
0.000630971
0.00059005
0.000540238
0.00047995
0.000405644
0.000306799
0.00013434
0.000663721
0.000630831
0.000589896
0.000540072
0.000479777
0.000405475
0.00030665
0.000134262
0.000688073
0.000655402
0.00061465
0.00056436
0.000502587
0.000425531
0.000322311
0.000140719
0.000701862
0.000670125
0.000629806
0.000579385
0.000516733
0.000437872
0.000331709
0.000144627
0.000706416
0.000675065
0.000634943
0.000584502
0.000521561
0.00044208
0.000334902
0.000145968
0.000701899
0.000670171
0.000629859
0.000579444
0.000516794
0.000437928
0.000331754
0.000144645
0.00068814
0.000655483
0.000614745
0.000564466
0.000502699
0.000425639
0.000322403
0.00014076
0.00066384
0.000630948
0.000590023
0.00054021
0.000479921
0.000405617
0.000306775
0.000134324
0.000663756
0.000630871
0.000589939
0.000540118
0.000479824
0.000405521
0.00030669
0.00013428
0.000688096
0.000655427
0.000614675
0.000564383
0.000502607
0.000425546
0.00032232
0.000140715
0.000701878
0.000670143
0.000629824
0.000579402
0.000516749
0.000437883
0.000331715
0.000144619
0.00070643
0.000675082
0.000634963
0.000584525
0.000521586
0.000442106
0.000334925
0.000145966
0.000701913
0.000670189
0.000629883
0.000579474
0.000516831
0.00043797
0.000331797
0.000144656
0.000688156
0.000655503
0.00061477
0.000564497
0.000502737
0.000425685
0.000322453
0.000140785
0.000663857
0.000630969
0.000590048
0.000540238
0.000479954
0.000405654
0.000306814
0.00013435
0.000663775
0.000630891
0.000589958
0.000540133
0.000479833
0.000405522
0.000306684
0.000134278
0.000688106
0.000655437
0.000614683
0.000564388
0.000502606
0.000425539
0.000322308
0.000140707
0.000701885
0.000670152
0.000629834
0.000579414
0.000516762
0.000437898
0.00033173
0.000144622
0.000706435
0.000675092
0.000634978
0.000584547
0.000521616
0.000442143
0.000334967
0.000145985
0.000701917
0.000670198
0.000629898
0.000579497
0.000516864
0.000438013
0.000331847
0.00014469
0.00068816
0.00065551
0.000614782
0.000564515
0.000502761
0.000425714
0.000322487
0.000140815
0.000663862
0.000630976
0.000590057
0.000540249
0.000479966
0.000405666
0.000306826
0.000134366
0.000663747
0.000630855
0.000589912
0.000540077
0.000479767
0.000405448
0.000306609
0.000134236
0.000688083
0.000655409
0.000614647
0.000564345
0.000502557
0.000425484
0.000322252
0.000140674
0.000701863
0.000670126
0.000629805
0.000579383
0.00051673
0.000437866
0.000331701
0.000144603
0.00070641
0.000675063
0.000634946
0.000584514
0.000521584
0.000442115
0.000334945
0.000145973
0.000701885
0.000670159
0.000629853
0.000579447
0.00051681
0.000437959
0.000331798
0.000144662
0.000688117
0.000655458
0.000614718
0.00056444
0.000502674
0.000425619
0.000322392
0.000140757
0.00066381
0.000630914
0.000589981
0.00054016
0.000479862
0.000405552
0.000306711
0.000134299
0.000663763
0.000630869
0.000589926
0.000540091
0.000479784
0.000405469
0.000306632
0.000134237
0.000688109
0.000655436
0.000614678
0.000564381
0.000502599
0.000425531
0.000322299
0.000140685
0.000701887
0.000670149
0.000629828
0.000579407
0.000516755
0.000437891
0.000331722
0.000144601
0.000706424
0.00067507
0.000634945
0.000584507
0.000521571
0.000442096
0.00033492
0.000145948
0.000701883
0.000670144
0.000629823
0.000579402
0.000516753
0.000437891
0.000331725
0.000144611
0.000688096
0.00065542
0.00061466
0.000564363
0.000502582
0.000425515
0.000322285
0.000140692
0.000663768
0.000630855
0.000589904
0.000540064
0.000479753
0.000405436
0.000306599
0.000134233
0.000663852
0.000630964
0.000590027
0.000540201
0.000479902
0.000405594
0.000306754
0.000134302
0.000688202
0.000655539
0.000614792
0.000564508
0.000502738
0.000425679
0.000322442
0.000140754
0.000701975
0.000670245
0.00062993
0.000579514
0.000516866
0.000438
0.000331818
0.000144636
0.000706504
0.00067515
0.000635024
0.000584582
0.000521638
0.000442151
0.000334957
0.000145949
0.000701953
0.000670209
0.000629882
0.000579454
0.000516795
0.000437921
0.00033174
0.000144602
0.000688157
0.000655474
0.000614709
0.000564407
0.000502622
0.000425554
0.00032232
0.000140698
0.000663818
0.000630899
0.000589942
0.0005401
0.000479791
0.000405478
0.000306644
0.00013425
0.000663925
0.000631029
0.000590083
0.000540247
0.000479938
0.000405619
0.000306767
0.000134308
0.000688286
0.00065562
0.000614869
0.00056458
0.000502805
0.000425739
0.00032249
0.000140772
0.000702061
0.000670329
0.000630014
0.000579597
0.000516947
0.000438076
0.000331881
0.000144656
0.000706589
0.000675233
0.000635107
0.000584665
0.000521719
0.000442226
0.000335019
0.000145963
0.000702035
0.000670288
0.000629959
0.000579528
0.000516865
0.000437986
0.000331792
0.000144613
0.000688236
0.000655547
0.000614775
0.000564468
0.000502678
0.000425603
0.000322358
0.000140708
0.000663893
0.000630965
0.000589998
0.000540147
0.000479829
0.000405506
0.000306662
0.000134257
0.000663961
0.000631049
0.000590083
0.000540226
0.000479896
0.000405558
0.000306692
0.000134252
0.000688339
0.000655658
0.000614892
0.000564589
0.0005028
0.000425721
0.000322459
0.00014074
0.000702123
0.000670381
0.000630057
0.000579634
0.000516977
0.000438101
0.000331899
0.000144652
0.000706655
0.000675292
0.00063516
0.000584713
0.000521766
0.000442271
0.000335059
0.000145972
0.0007021
0.000670343
0.000630005
0.000579568
0.0005169
0.000438015
0.000331814
0.000144611
0.000688295
0.000655592
0.000614806
0.000564483
0.000502677
0.000425586
0.000322327
0.000140676
0.000663945
0.000630998
0.000590011
0.000540138
0.000479796
0.00040545
0.000306587