/*--------------------------------*- C++ -*----------------------------------*\
| =========                 |                                                 |
| \\      /  F ield         | OpenFOAM: The Open Source CFD Toolbox           |
|  \\    /   O peration     | Version:  plus.master.MPPICInterFoam            |
|   \\  /    A nd           | Web:      www.OpenFOAM.com                      |
|    \\/     M anipulation  |                                                 |
\*---------------------------------------------------------------------------*/
FoamFile
{
    version     2.0;
    format      ascii;
    class       volScalarField;
    location    "11.4";
    object      k;
}
// * * * * * * * * * * * * * * * * * * * * * * * * * * * * * * * * * * * * * //

dimensions      [0 2 -2 0 0 0 0];

internalField   nonuniform List<scalar> 
11821
(
0.0461923
0.0548232
0.0442318
0.0587935
0.0490569
0.0401812
0.0499981
0.0533954
0.0536938
0.0510876
0.0465813
0.0410461
0.035095
0.061232
0.0666077
0.066973
0.0621915
0.0553285
0.0478299
0.040355
0.072222
0.0804445
0.0820978
0.0741607
0.0638033
0.0538057
0.0446598
0.0804205
0.0727778
0.0780132
0.0847814
0.0704554
0.0578941
0.0473672
0.0801361
0.069642
0.075462
0.0866626
0.0721623
0.0588234
0.0478783
0.0767781
0.0790331
0.0815894
0.0788652
0.0678477
0.056146
0.0459906
0.0676514
0.0734469
0.0741022
0.0686724
0.0599107
0.0507522
0.0419777
0.0517224
0.0550703
0.055382
0.0529234
0.0484849
0.0429298
0.0369172
0.0629695
0.0678552
0.0680439
0.0637864
0.0572563
0.049785
0.0422353
0.0725564
0.0751197
0.0778659
0.0744506
0.0654536
0.0557582
0.0465617
0.0740201
0.0738405
0.077032
0.0804461
0.0714254
0.0597292
0.0492502
0.0733209
0.0714053
0.0716123
0.0794409
0.0731938
0.0606608
0.0497397
0.0732868
0.0737342
0.0755058
0.0784644
0.0694931
0.0581707
0.0478389
0.0676482
0.0715704
0.0732674
0.0697379
0.0620768
0.0527572
0.0437275
0.0534774
0.0569724
0.057368
0.0549132
0.0504126
0.0447801
0.0386773
0.0647996
0.0691845
0.0696685
0.0658022
0.0593273
0.0517322
0.044068
0.069695
0.0721907
0.0752409
0.0749625
0.0674858
0.0578044
0.0484416
0.0664495
0.0713896
0.0756557
0.0769215
0.0730834
0.0618308
0.0511395
0.0626968
0.0664017
0.0712624
0.0757659
0.0740181
0.0627012
0.0515831
0.0641539
0.0639912
0.068734
0.07458
0.0713037
0.0602388
0.0496279
0.0662977
0.0671807
0.0687191
0.0699995
0.0639274
0.054611
0.0454041
0.0550616
0.0588247
0.0592749
0.0567549
0.0521763
0.0464729
0.0402739
0.0668296
0.071704
0.0719175
0.0678318
0.0611666
0.0534827
0.0457409
0.0730468
0.0769133
0.0794915
0.0774791
0.0694546
0.0596201
0.0501674
0.0705152
0.0701822
0.0743818
0.08109
0.0753541
0.0637353
0.0528857
0.0643661
0.0658784
0.0736062
0.0786234
0.0764258
0.0645735
0.0532883
0.0692924
0.0660603
0.0721169
0.0770176
0.0732752
0.0619563
0.0512644
0.0690719
0.070371
0.0720037
0.0720519
0.0654776
0.0561594
0.0469603
0.056186
0.0601711
0.0606959
0.058177
0.0535684
0.0478189
0.0415343
0.0681076
0.0735764
0.0737961
0.06949
0.0626492
0.0548783
0.047054
0.0764917
0.081318
0.0839083
0.0802294
0.0711375
0.0610537
0.0515049
0.07603
0.0737879
0.0832074
0.0862259
0.0772779
0.0651851
0.054234
0.0712039
0.0728463
0.0745367
0.0856024
0.078617
0.0660023
0.0546283
0.0733818
0.0726071
0.0787163
0.0816773
0.0748538
0.0632209
0.0525472
0.071621
0.0744715
0.0770008
0.074471
0.0667654
0.0574045
0.048214
0.0569446
0.0609765
0.0615191
0.0590156
0.0544528
0.0487287
0.0424184
0.068891
0.0747321
0.0749484
0.0704044
0.0634941
0.0557542
0.0479316
0.0793353
0.0857354
0.0883328
0.0821741
0.07208
0.0618773
0.0523508
0.0803895
0.0822524
0.0909965
0.0908501
0.0785021
0.0659979
0.0550676
0.0774402
0.070243
0.0831023
0.0909032
0.080055
0.0668621
0.0554858
0.0782318
0.0776759
0.0840001
0.0864551
0.0759331
0.0640564
0.0534174
0.0730395
0.0789248
0.0800106
0.0760444
0.0676955
0.0582979
0.0491122
0.0575408
0.0614288
0.0619065
0.0594854
0.0550194
0.049349
0.0430495
0.0692711
0.0747628
0.0747501
0.0704444
0.0638324
0.0562735
0.0485244
0.0794508
0.0862779
0.0874489
0.0815418
0.0720573
0.062252
0.0528944
0.0824082
0.0838059
0.0902381
0.0897347
0.078155
0.0662497
0.0555797
0.081189
0.0721743
0.0829613
0.0909925
0.0798591
0.0671608
0.056025
0.0778678
0.0785646
0.0842991
0.0863332
0.0760764
0.0645143
0.0540161
0.0728728
0.0784053
0.080065
0.076414
0.0682244
0.0589126
0.0497596
0.0580605
0.0618621
0.0623031
0.0599259
0.0555035
0.0498424
0.043542
0.0694936
0.0745558
0.0745526
0.0705135
0.0641514
0.0567031
0.0489913
0.078133
0.0834272
0.0853221
0.0806967
0.0720557
0.0625814
0.0533345
0.0777068
0.0809701
0.0895337
0.0872873
0.0777759
0.0664845
0.0560038
0.0754041
0.0794509
0.0846355
0.0873485
0.0793367
0.0674034
0.0564645
0.0765557
0.0770712
0.0818562
0.0844993
0.0760218
0.0648866
0.0544971
0.0705606
0.0746848
0.077162
0.0756451
0.0684616
0.0593813
0.0502783
0.0586616
0.0624491
0.0628543
0.0604408
0.0559645
0.0502485
0.0439219
0.0699664
0.0749276
0.0748896
0.070934
0.0645805
0.0570958
0.0493659
0.0777186
0.0829741
0.0851621
0.0808828
0.0724267
0.0629765
0.0537253
0.076595
0.0826524
0.0866616
0.0871989
0.078065
0.0668955
0.0564208
0.0701856
0.0770141
0.0850996
0.0870869
0.0796238
0.0678526
0.0569097
0.0698329
0.0747614
0.0820768
0.0840563
0.076431
0.0653636
0.0549615
0.0705659
0.0737346
0.0774321
0.076007
0.0689351
0.0598669
0.0507526
0.0591616
0.0629786
0.0633446
0.0608313
0.0562444
0.0504613
0.0441144
0.0705731
0.0756819
0.0755876
0.0714625
0.0649216
0.0573187
0.0495443
0.0789278
0.0847153
0.0864751
0.0816971
0.0728934
0.063252
0.0539174
0.0787488
0.0806634
0.0883771
0.0886695
0.0787263
0.0672535
0.0566506
0.0733159
0.0749247
0.0840724
0.0892651
0.0804587
0.0682697
0.057174
0.0732871
0.0744867
0.0834177
0.0855601
0.0771162
0.0657738
0.0552442
0.0713636
0.0755131
0.0789042
0.077058
0.0695047
0.0602544
0.0510484
0.0593411
0.0631279
0.0634198
0.0608121
0.0561727
0.0504013
0.0441087
0.0709061
0.0761104
0.0758836
0.0715111
0.0648151
0.0571835
0.0494667
0.0799807
0.0861365
0.087874
0.0821485
0.0728706
0.0630942
0.0537963
0.0799662
0.0829563
0.0914831
0.0899528
0.0788891
0.0671304
0.0565279
0.0755274
0.0779616
0.085472
0.0908634
0.0807906
0.0682088
0.0570799
0.0743873
0.0772067
0.085495
0.0869877
0.0774271
0.0657532
0.0551937
0.0724947
0.077206
0.080399
0.0777725
0.0697339
0.0602794
0.0510578
0.0591605
0.0628049
0.0630129
0.060398
0.0558364
0.050188
0.044011
0.0706558
0.0756017
0.0752052
0.0707808
0.0642139
0.0567868
0.0492563
0.0800471
0.0858433
0.0872187
0.0811525
0.0720114
0.0625211
0.0534836
0.0800201
0.0845036
0.0918439
0.0890134
0.0778976
0.0664551
0.0561596
0.0783061
0.0750648
0.0845115
0.0903655
0.0797956
0.0675266
0.0567163
0.0763402
0.0774281
0.085022
0.0864471
0.0766597
0.0651984
0.0548992
0.0721701
0.0769013
0.0802945
0.0773314
0.0692227
0.0598979
0.0508698
0.0588265
0.0623014
0.062473
0.0599415
0.055522
0.050002
0.0439177
0.0698686
0.0743875
0.073952
0.0698047
0.0635835
0.0564283
0.0490741
0.0780396
0.0836525
0.0847455
0.0793705
0.0709565
0.0619558
0.0532074
0.0782253
0.0821351
0.0879716
0.086252
0.0764253
0.0657168
0.0558145
0.0735058
0.0806746
0.0873243
0.0873415
0.078198
0.0667522
0.0563667
0.0732651
0.0758017
0.0837138
0.0840394
0.0753609
0.0645415
0.0546096
0.0700987
0.0740486
0.0776631
0.0758066
0.0683467
0.059442
0.0506836
0.0585486
0.0619503
0.0621431
0.0596859
0.0553363
0.0498616
0.0438082
0.0691113
0.073434
0.073123
0.0692493
0.0632441
0.0562125
0.0489231
0.0768327
0.0822964
0.0831524
0.078244
0.0703733
0.0616371
0.0530145
0.0770233
0.0848433
0.0888546
0.0845372
0.0755278
0.0652829
0.0555858
0.0713801
0.0796217
0.0874539
0.0852003
0.0770737
0.0662512
0.05613
0.0696052
0.0758264
0.0828156
0.0821613
0.0743348
0.0640929
0.0544083
0.0685029
0.0732263
0.076511
0.0745712
0.0676798
0.0591342
0.0505497
0.0584
0.0617948
0.0619894
0.0595152
0.0551347
0.0496458
0.0436069
0.0688613
0.073287
0.073044
0.0691467
0.0630628
0.0559832
0.0486892
0.0770276
0.0828343
0.0836106
0.0784074
0.0702673
0.0614225
0.0527686
0.0785329
0.0832025
0.0888922
0.0851469
0.075507
0.0650973
0.0553457
0.0733005
0.0792514
0.0880142
0.086153
0.0770748
0.0660904
0.0559089
0.0710524
0.0762899
0.0839262
0.0830399
0.0742763
0.0639302
0.0542098
0.0677924
0.0735256
0.0769454
0.0747599
0.0675755
0.0589821
0.0503836
0.0581972
0.061543
0.0616765
0.0591551
0.0547579
0.0492934
0.0433167
0.0686614
0.0730942
0.0727864
0.0687992
0.0626544
0.0555722
0.0483297
0.0772212
0.0828682
0.0836179
0.0782093
0.0698879
0.0609897
0.0523665
0.0779402
0.0821887
0.0887797
0.0852886
0.0752154
0.0646761
0.0549306
0.0735706
0.0771664
0.0845783
0.0871559
0.0769488
0.06572
0.0555139
0.0709687
0.0756687
0.0837384
0.0835531
0.0741059
0.0635897
0.0538542
0.0689673
0.0749257
0.0777154
0.0747026
0.0673338
0.0586725
0.0500817
0.00795738
0.00321515
0.0232616
0.0188693
0.0150952
0.011721
0.00834243
0.00332022
0.0368224
0.0301247
0.0244916
0.0197464
0.0156982
0.0121188
0.00858644
0.00335278
0.0372356
0.0305131
0.0248303
0.0200165
0.0158984
0.0122586
0.00868023
0.00337305
0.0357757
0.029614
0.0243004
0.0197134
0.0157328
0.0121802
0.00866235
0.00345453
0.0330305
0.0279332
0.0232595
0.0190672
0.015342
0.0119607
0.00855998
0.00353549
0.0291095
0.0248924
0.0210635
0.017601
0.0144402
0.0114463
0.00826885
0.00339114
0.0331204
0.0277674
0.0231578
0.0191342
0.0155561
0.0122446
0.00881022
0.00358134
0.0365235
0.0303214
0.025032
0.0204845
0.0165076
0.0128928
0.00921828
0.00369155
0.0386711
0.0319582
0.026245
0.0213595
0.0171189
0.0133024
0.00947214
0.00372671
0.0390472
0.0323001
0.0265387
0.0215955
0.0172978
0.0134321
0.00956302
0.00374937
0.0375702
0.0313482
0.0259455
0.0212341
0.0170868
0.0133239
0.0095299
0.00383175
0.0347776
0.0295883
0.0248125
0.0205003
0.0166248
0.0130531
0.00939715
0.00390826
0.0308949
0.0265803
0.0226194
0.0189954
0.0156505
0.0124511
0.00902445
0.0037137
0.0349647
0.0295264
0.0247885
0.020597
0.0168225
0.0132918
0.00959523
0.00391271
0.0383736
0.0321015
0.0266971
0.0219873
0.0178118
0.0139704
0.010024
0.00402859
0.0404941
0.0337209
0.0279095
0.0228741
0.0184408
0.014398
0.0102913
0.00406933
0.0408347
0.0340261
0.028176
0.0230955
0.0186163
0.0145322
0.0103895
0.00410608
0.0393216
0.0330251
0.0275342
0.0226955
0.0183806
0.0144117
0.0103527
0.00419837
0.0364419
0.0311775
0.0263178
0.0218939
0.0178719
0.0141129
0.0102068
0.00427698
0.0325866
0.0281505
0.0240428
0.0202551
0.0167361
0.0133504
0.0097019
0.00399884
0.0367363
0.031179
0.0262873
0.0219191
0.0179555
0.0142243
0.0102928
0.00420398
0.040178
0.033798
0.0282441
0.0233545
0.0189826
0.0149316
0.01074
0.00432659
0.0422927
0.0354249
0.0294761
0.0242669
0.0196379
0.0153819
0.0110229
0.00437693
0.0425991
0.0357078
0.0297354
0.0244925
0.0198243
0.0155295
0.0111343
0.00443678
0.0410464
0.0346711
0.0290667
0.0240768
0.0195824
0.0154092
0.0111017
0.00453592
0.0380803
0.0327458
0.0277883
0.0232322
0.0190461
0.015096
0.0109502
0.00461785
0.0340835
0.0295174
0.0252688
0.021336
0.0176692
0.0141269
0.0102889
0.00424803
0.0383198
0.0326225
0.0275756
0.0230478
0.0189236
0.0150245
0.0108934
0.00445735
0.0418128
0.0352935
0.0295786
0.0245217
0.0199814
0.0157549
0.0113548
0.00458527
0.0439466
0.0369478
0.0308399
0.0254615
0.0206611
0.0162255
0.0116525
0.0046429
0.0442373
0.0372311
0.0311069
0.0256995
0.0208626
0.0163898
0.0117803
0.00472739
0.0426499
0.0361684
0.0304234
0.0252783
0.0206223
0.0162759
0.0117563
0.00483355
0.0396151
0.0341858
0.0291051
0.0244089
0.0200725
0.0159561
0.011603
0.00491966
0.0352558
0.0305984
0.0262517
0.022217
0.018443
0.0147805
0.0107878
0.00445994
0.0395438
0.0337465
0.0285941
0.0239577
0.0197198
0.0156943
0.011402
0.00467181
0.0430616
0.0364427
0.0306211
0.0254543
0.0207984
0.0164416
0.011875
0.0048039
0.0452086
0.0381137
0.0319006
0.0264135
0.0214978
0.0169312
0.012188
0.00487121
0.0455022
0.0384054
0.0321791
0.0266661
0.021717
0.017115
0.0123346
0.00498135
0.0438935
0.0373335
0.0314935
0.0262481
0.0214851
0.0170129
0.0123232
0.00509582
0.0408306
0.0353299
0.0301605
0.0253692
0.0209299
0.0166917
0.0121722
0.00518742
0.0361177
0.0314212
0.0270241
0.0229291
0.0190821
0.0153288
0.0112104
0.00463954
0.0404108
0.0345804
0.0293814
0.0246857
0.0203736
0.0162541
0.0118321
0.00485424
0.0439137
0.0372747
0.0314156
0.026195
0.021467
0.0170152
0.0123151
0.00499024
0.0460539
0.0389473
0.0327037
0.027169
0.0221849
0.0175241
0.012645
0.00507427
0.0463619
0.0392512
0.0329959
0.0274388
0.0224251
0.0177306
0.0128126
0.00520568
0.0447682
0.0381902
0.0323205
0.0270328
0.0222083
0.0176458
0.0128177
0.00532953
0.0417148
0.0361887
0.0309854
0.0261521
0.0216543
0.0173296
0.0126748
0.00542883
0.0367745
0.0320675
0.0276453
0.0235112
0.0196106
0.015786
0.0115654
0.0047898
0.0410524
0.0352262
0.0300101
0.0252783
0.0209124
0.0167191
0.0121914
0.00500639
0.0445287
0.0379124
0.0320482
0.0267986
0.0220189
0.0174926
0.012684
0.00514704
0.0466552
0.039585
0.0333464
0.0277891
0.0227571
0.0180226
0.0130325
0.00525519
0.0469793
0.0399045
0.0336577
0.0280815
0.0230222
0.0182538
0.0132215
0.00540199
0.0454194
0.0388655
0.0330012
0.0276958
0.0228271
0.0181905
0.0132452
0.00553569
0.042386
0.0368708
0.0316686
0.0268198
0.0222816
0.017886
0.0131148
0.00564398
0.0373008
0.0325859
0.0281442
0.0239799
0.0200378
0.0161577
0.0118566
0.00491211
0.0415704
0.0357462
0.0305147
0.0257542
0.0213462
0.0170954
0.0124836
0.00512902
0.0450356
0.0384337
0.0325607
0.027285
0.0224642
0.0178797
0.0129848
0.00527468
0.0471619
0.0401173
0.0338759
0.0282955
0.0232236
0.0184306
0.0133523
0.00541143
0.0475051
0.0404598
0.0342127
0.0286146
0.0235149
0.0186859
0.0135609
0.00556929
0.0459772
0.0394468
0.0335813
0.0282544
0.0233447
0.0186451
0.0136028
0.00571189
0.0429568
0.0374585
0.0322576
0.0273909
0.022814
0.0183557
0.0134858
0.00582852
0.0376945
0.0329714
0.0285179
0.0243355
0.020367
0.0164484
0.0120867
0.00500691
0.0419614
0.0361304
0.0308888
0.0261116
0.0216775
0.0173873
0.012713
0.00522346
0.0454328
0.0388229
0.03294
0.0276491
0.0228038
0.0181805
0.0132219
0.00537627
0.0475784
0.040525
0.0342727
0.0286773
0.0235814
0.0187496
0.0136066
0.00554152
0.0479495
0.0408955
0.0346364
0.0290219
0.0238965
0.0190262
0.0138325
0.00570792
0.0464482
0.0399103
0.0340328
0.0286879
0.02375
0.0190062
0.0138909
0.00585815
0.0434352
0.0379346
0.0327255
0.0278416
0.0232356
0.0187311
0.0137854
0.00598146
0.0379187
0.0332108
0.0287671
0.024586
0.020608
0.0166668
0.0122623
0.00507711
0.0421643
0.036353
0.0311276
0.0263565
0.0219159
0.0176042
0.0128867
0.00529338
0.0456281
0.0390356
0.0331727
0.0278935
0.0230462
0.0184039
0.0134024
0.00546141
0.0477877
0.0407463
0.0345141
0.0289329
0.0238375
0.0189881
0.0138023
0.00564728
0.0481861
0.0411411
0.0348996
0.0292981
0.0241726
0.0192834
0.0140435
0.00582095
0.0467151
0.0401857
0.0343229
0.0289877
0.0240474
0.0192824
0.0141172
0.00597794
0.0437256
0.0382358
0.0330379
0.0281598
0.0235482
0.0190202
0.0140226
0.00610703
0.0379957
0.0333328
0.0289191
0.0247537
0.0207781
0.0168259
0.0123928
0.00513681
0.0421874
0.0364411
0.0312601
0.0265138
0.0220805
0.0177598
0.0130138
0.00534582
0.0456072
0.0390941
0.0332894
0.0280454
0.0232121
0.0185651
0.0135379
0.0055377
0.047754
0.0407965
0.0346299
0.0290902
0.0240134
0.019161
0.0139486
0.00573171
0.0481711
0.0412071
0.0350312
0.0294725
0.0243662
0.019473
0.0142031
0.00591146
0.0467416
0.0402841
0.0344804
0.0291846
0.0242613
0.0194903
0.0142914
0.00607469
0.0438009
0.038369
0.0332197
0.0283752
0.0237779
0.0192422
0.0142083
0.00620953
0.0380022
0.0333895
0.0290079
0.0248611
0.0208929
0.0169376
0.0124884
0.00519674
0.0421288
0.036462
0.031329
0.0266098
0.0221884
0.0178668
0.0131053
0.00539938
0.0454852
0.0390803
0.0333417
0.0281352
0.0233198
0.018675
0.0136337
0.00559832
0.0475978
0.0407668
0.0346789
0.0291844
0.0241291
0.01928
0.0140522
0.00579645
0.0480235
0.0411887
0.0350945
0.0295828
0.0244983
0.0196068
0.014318
0.00598097
0.0466412
0.0402988
0.0345701
0.0293182
0.0244141
0.0196413
0.0144192
0.00614948
0.0437632
0.0384211
0.033335
0.0285292
0.0239484
0.0194085
0.0143475
0.00628952
0.0379823
0.0334034
0.0290458
0.0249163
0.0209593
0.017008
0.0125529
0.0052419
0.0420618
0.0364492
0.0313499
0.0266534
0.0222469
0.0179321
0.0131662
0.00544336
0.0453701
0.039043
0.0333502
0.0281728
0.0233762
0.0187404
0.0136956
0.00564313
0.0474519
0.0407191
0.034687
0.0292262
0.0241914
0.0193515
0.0141191
0.00584338
0.0478835
0.041153
0.0351178
0.0296402
0.0245746
0.0196897
0.0143933
0.00603102
0.046543
0.0402947
0.0346202
0.0293986
0.0245093
0.0197386
0.014504
0.00620292
0.0437216
0.038452
0.0334115
0.0286315
0.0240615
0.019519
0.0144402
0.00634566
0.0379109
0.0333583
0.0290265
0.0249208
0.0209835
0.0170453
0.0125934
0.00527515
0.0419597
0.0363796
0.0313112
0.0266434
0.0222613
0.0179632
0.0132029
0.00547576
0.0452435
0.0389558
0.0332982
0.0281537
0.0233852
0.0187691
0.0137318
0.0056755
0.0473129
0.0406282
0.0346343
0.0292078
0.0242022
0.0193827
0.0141578
0.00587672
0.047753
0.0410759
0.0350787
0.0296335
0.0245948
0.0197283
0.0144374
0.00606595
0.046444
0.040246
0.0346057
0.0294114
0.0245439
0.0197872
0.0145542
0.00623944
0.0436629
0.0384344
0.0334229
0.0286647
0.0241105
0.0195759
0.0144938
0.00638215
0.0377564
0.0332474
0.028958
0.0248896
0.0209818
0.0170637
0.0126206
0.00530146
0.0417652
0.0362338
0.0312161
0.0265939
0.022248
0.0179747
0.0132262
0.00550142
0.0450237
0.038784
0.0331819
0.0280896
0.0233634
0.0187767
0.013754
0.00570112
0.0470869
0.040447
0.0345092
0.0291377
0.0241779
0.0193905
0.0141815
0.00590298
0.0475414
0.0409053
0.0349608
0.0295686
0.0245752
0.0197408
0.0144652
0.00609339
0.0462609
0.0401014
0.0345076
0.0293604
0.024534
0.0198068
0.0145872
0.00626808
0.0435152
0.038322
0.0333495
0.0286303
0.0241103
0.0196002
0.0145286
0.00641021
0.0375558
0.0331124
0.028878
0.0248523
0.0209751
0.0170763
0.0126419
0.00532587
0.0415021
0.0360544
0.0311071
0.0265386
0.0222304
0.0179808
0.0132437
0.00552511
0.0447112
0.0385647
0.0330455
0.028018
0.0233375
0.0187795
0.0137709
0.00572508
0.0467501
0.0402048
0.0343564
0.0290571
0.024149
0.0193942
0.0142009
0.00592801
0.0472116
0.0406644
0.0348081
0.0294895
0.0245499
0.0197498
0.0144899
0.00612012
0.0459645
0.0398836
0.0343695
0.0292912
0.024517
0.0198234
0.0146185
0.00629659
0.0432663
0.0381385
0.0332327
0.0285739
0.0241014
0.0196228
0.0145649
0.00644031
0.0569033
0.0490974
0.0415845
0.0344529
0.0278852
0.0218697
0.0159067
0.00738965
0.0656243
0.055134
0.0461144
0.0378047
0.0302626
0.0234836
0.0169508
0.00777739
0.0703765
0.0586213
0.0484647
0.0393566
0.0312154
0.0240098
0.0172018
0.00780746
0.0687995
0.0572994
0.0472781
0.0382833
0.0302849
0.0232364
0.0165999
0.0074562
0.0615261
0.0517262
0.0428884
0.0348483
0.0276848
0.0213329
0.0152734
0.00680254
0.0521661
0.0441872
0.0368161
0.0301208
0.0241424
0.0187726
0.0135231
0.00600928
0.0426989
0.0364992
0.030688
0.0253732
0.0205745
0.0161749
0.0117336
0.00524877
0.0582164
0.0509241
0.0431547
0.0358034
0.0290839
0.0229279
0.0167646
0.00784261
0.064654
0.0567818
0.0477787
0.0392453
0.0315329
0.0246026
0.0178577
0.00825987
0.0662652
0.0597219
0.0500201
0.0407911
0.0325064
0.0251576
0.0181332
0.00830023
0.0681992
0.0586997
0.0488433
0.039703
0.0315712
0.0243838
0.0175274
0.00793943
0.0626885
0.0534067
0.0444337
0.0362176
0.0289267
0.0224347
0.0161548
0.00725342
0.0539673
0.0458223
0.0382273
0.0313916
0.0253055
0.0198
0.0143381
0.00641642
0.04428
0.0378929
0.0319514
0.0265475
0.0216541
0.0171209
0.0124785
0.00561048
0.0593544
0.0525076
0.0445748
0.0370793
0.0302401
0.0239417
0.0175689
0.00826963
0.0634455
0.0584839
0.0494241
0.0406825
0.0328002
0.0256922
0.0187079
0.00870755
0.0663724
0.0613486
0.0518502
0.0423577
0.0338677
0.0263113
0.0190199
0.00875855
0.0656605
0.0603528
0.0505965
0.0412528
0.0329337
0.0255382
0.0184096
0.00838901
0.0636309
0.0552161
0.0460542
0.0376569
0.0302047
0.0235219
0.0169883
0.00767257
0.0557918
0.0474497
0.0396715
0.0327055
0.0264846
0.0208066
0.0151106
0.00679995
0.0458652
0.0393149
0.0332664
0.0277619
0.022744
0.0180512
0.0131905
0.00595483
0.0609638
0.0536147
0.0455987
0.0380918
0.0312054
0.0247976
0.0182406
0.00862692
0.0661715
0.0600207
0.0506044
0.0417761
0.0338181
0.0265776
0.0193892
0.00906368
0.0677749
0.0632893
0.0532037
0.0435597
0.0349585
0.0272389
0.0197185
0.00911368
0.0687778
0.0621817
0.0520015
0.0425082
0.0340569
0.0264816
0.0191163
0.00874372
0.0657513
0.0567419
0.0473751
0.0388773
0.0312964
0.0244409
0.0176815
0.00801719
0.0574012
0.0488262
0.0409568
0.0338944
0.0275395
0.0216917
0.0157773
0.00712906
0.0473077
0.0406516
0.0345132
0.0288966
0.0237431
0.0188869
0.0138201
0.00625883
0.0621424
0.054202
0.0462966
0.038865
0.0319752
0.0254927
0.0187925
0.00892686
0.0694931
0.0607456
0.0512417
0.0424933
0.0345468
0.0272424
0.0199189
0.00935168
0.0718148
0.0642611
0.0538773
0.0442942
0.0356905
0.0278971
0.02024
0.00939165
0.0723261
0.0632185
0.052807
0.0433146
0.0348268
0.0271645
0.0196548
0.00902689
0.0674551
0.0576747
0.0482742
0.039759
0.0321146
0.0251541
0.018238
0.00830481
0.0584833
0.0498497
0.0419695
0.0348476
0.0283959
0.0224236
0.0163404
0.00741412
0.0484467
0.0417568
0.0355563
0.0298486
0.0245865
0.0196029
0.0143691
0.00652907
0.0627695
0.0546853
0.0469076
0.0395283
0.0326252
0.0260838
0.0192734
0.00919851
0.0710785
0.0611369
0.0516824
0.0430387
0.0351219
0.0277939
0.0203872
0.00962461
0.0753124
0.0647561
0.0542588
0.0447783
0.0362204
0.0284228
0.0207001
0.00965975
0.074502
0.0637015
0.0532595
0.0438403
0.0353835
0.0277126
0.0201316
0.0092989
0.0683608
0.0582442
0.0488917
0.0404019
0.03275
0.0257489
0.0187348
0.00857865
0.0592333
0.0506192
0.0427498
0.0356015
0.0291
0.0230543
0.016848
0.00768285
0.0493095
0.0426226
0.0363902
0.0306319
0.0253067
0.0202383
0.0148727
0.00678441
0.0629133
0.0551982
0.0475195
0.0401225
0.0331856
0.0265983
0.0197036
0.00945187
0.0710619
0.061173
0.0521149
0.043558
0.0356544
0.0283141
0.0208429
0.00990109
0.0750951
0.0647139
0.0546166
0.045249
0.0367303
0.0289481
0.0211742
0.00994514
0.0748027
0.0640009
0.0536884
0.0443357
0.0359158
0.0282548
0.0206159
0.00958468
0.0688449
0.0587495
0.0494545
0.04098
0.0333365
0.0263159
0.0192184
0.00885328
0.0598631
0.0512973
0.0434227
0.0362618
0.0297384
0.0236428
0.01733
0.00794452
0.0500259
0.0433463
0.0371035
0.0313261
0.0259658
0.020832
0.0153489
0.00703023
0.0624423
0.0556128
0.0479663
0.0405697
0.0336325
0.027028
0.0200719
0.00967712
0.0675428
0.061203
0.0525113
0.044015
0.036137
0.0287915
0.0212571
0.0101538
0.0707747
0.0643494
0.0549737
0.0457228
0.0372483
0.029469
0.0216282
0.0102144
0.072295
0.0637818
0.0540271
0.0448264
0.0364625
0.0287958
0.0210766
0.0098514
0.0684083
0.0590693
0.0499548
0.0415447
0.0339157
0.0268624
0.019668
0.00910572
0.0603208
0.0518796
0.0440417
0.036886
0.030345
0.0241935
0.0177711
0.00818499
0.0506531
0.0440055
0.0377682
0.0319798
0.0265825
0.0213801
0.0157826
0.00725499
0.0626848
0.0558454
0.0482099
0.0408625
0.0339652
0.0273674
0.0203682
0.00986548
0.0674942
0.0615485
0.0528091
0.044351
0.0365159
0.0291712
0.0215797
0.0103524
0.069835
0.0646962
0.0553138
0.0461136
0.0376847
0.0298963
0.0219808
0.010421
0.0719919
0.0640953
0.0544233
0.0452876
0.0369497
0.0292522
0.0214434
0.0100603
0.0687459
0.0595293
0.0504615
0.0420769
0.0344357
0.0273287
0.0200343
0.00931055
0.060877
0.0524584
0.0446287
0.0374615
0.0308828
0.0246662
0.0181394
0.00838563
0.0512802
0.0446289
0.0383796
0.032563
0.0271195
0.0218496
0.0161502
0.00744704
0.0630874
0.0558967
0.0483361
0.0410663
0.0342181
0.027633
0.0206036
0.0100251
0.068584
0.0617449
0.052949
0.0445665
0.036777
0.0294374
0.0218091
0.0105055
0.071228
0.0650291
0.0554777
0.0463596
0.037976
0.0301812
0.0222159
0.0105719
0.072708
0.0644054
0.0547228
0.0456276
0.0372929
0.0295661
0.021695
0.0102166
0.0693394
0.059949
0.0508781
0.0424868
0.0348194
0.027669
0.0203028
0.00947383
0.0613954
0.0529416
0.0450981
0.0379062
0.0312941
0.0250302
0.018428
0.00855069
0.051791
0.0451192
0.0388508
0.0330113
0.0275376
0.0222226
0.0164481
0.00760851
0.0635435
0.0559851
0.0484516
0.0412293
0.0344094
0.0278321
0.020784
0.0101631
0.070694
0.0621064
0.0530706
0.0447051
0.0369396
0.0296127
0.0219746
0.0106413
0.0741545
0.0654502
0.0556084
0.0464988
0.0381312
0.0303491
0.0223797
0.0107068
0.0739999
0.0647864
0.0549243
0.0458152
0.0374809
0.029759
0.0218745
0.0103562
0.0698538
0.0602311
0.0511198
0.0427183
0.0350504
0.0278983
0.020505
0.00961727
0.0617012
0.0532162
0.0453688
0.0381786
0.031571
0.0252994
0.0186585
0.00869539
0.0520522
0.0453918
0.0391391
0.0333146
0.0278459
0.0225158
0.0166934
0.00774914
0.0633825
0.0559065
0.0484851
0.0412937
0.0344969
0.0279366
0.0208899
0.0102701
0.0706486
0.0618187
0.0529929
0.044715
0.0369939
0.0297056
0.0220871
0.0107645
0.0741918
0.0652936
0.0555388
0.0465003
0.0381801
0.0304474
0.022507
0.0108409
0.0741779
0.0648357
0.0549152
0.0458364
0.0375521
0.0298821
0.0220183
0.0104908
0.0698458
0.0602046
0.0511288
0.0427805
0.0351727
0.0280624
0.0206707
0.00974837
0.0616231
0.0532184
0.0454379
0.0383163
0.0317604
0.0255104
0.0188505
0.00882395
0.0520439
0.0454714
0.0392948
0.0335254
0.0280855
0.022755
0.0168976
0.00787089
0.0620017
0.0554756
0.0482269
0.0411351
0.0344163
0.0279131
0.0209009
0.0103301
0.067263
0.060629
0.0525779
0.0444947
0.036897
0.0296926
0.0221201
0.0108446
0.0698663
0.0637452
0.055113
0.0462994
0.0381184
0.0304765
0.0225766
0.0109384
0.0718274
0.0637771
0.0545313
0.0456812
0.037537
0.0299477
0.022109
0.0105889
0.0688337
0.0597525
0.0509264
0.0427416
0.035239
0.02818
0.0207894
0.00984566
0.061213
0.0530363
0.0454149
0.0384009
0.0319066
0.0256764
0.0189974
0.00892296
0.0519267
0.0454925
0.039408
0.0336931
0.0282768
0.0229424
0.0170533
0.00796477
0.061028
0.0547743
0.0477009
0.0407759
0.0341934
0.0277877
0.0208389
0.0103481
0.0653352
0.0597884
0.051975
0.0440832
0.036655
0.0295648
0.0220572
0.0108607
0.0678416
0.062985
0.0545376
0.0459236
0.0379218
0.0303886
0.0225376
0.0109585
0.0710482
0.0630884
0.0540417
0.0454104
0.0374259
0.0299179
0.022104
0.0106191
0.0680865
0.0592683
0.0506632
0.0426485
0.0352444
0.0282251
0.0208339
0.00988996
0.0608032
0.0528405
0.0453703
0.0384491
0.0319996
0.0257795
0.0190837
0.00898172
0.0518184
0.0454963
0.0394818
0.0338046
0.0284029
0.0230645
0.0171529
0.00802661
0.0604797
0.0540447
0.0471386
0.040398
0.0339564
0.0276497
0.0207673
0.0103544
0.0650302
0.0592343
0.0513238
0.0436336
0.0363651
0.0293818
0.0219438
0.01084
0.0680859
0.0623719
0.0538379
0.045474
0.0376385
0.0302043
0.0224138
0.0109238
0.0703798
0.0624825
0.0535686
0.0451142
0.0372405
0.0297969
0.0220202
0.0106012
0.0678382
0.0589383
0.0504512
0.0425277
0.0351805
0.0281938
0.0208175
0.00990033
0.0605954
0.0527121
0.0453156
0.0384418
0.0320212
0.0258167
0.0191217
0.0090145
0.0517324
0.0454611
0.0394866
0.0338383
0.0284569
0.0231289
0.0172134
0.00806941
0.0605842
0.0536582
0.0468084
0.0401632
0.0338049
0.0275634
0.0207293
0.0103735
0.0670725
0.0590949
0.0509304
0.0433113
0.0361297
0.029224
0.0218514
0.0108328
0.0707686
0.062478
0.0534525
0.0451236
0.0373659
0.0300123
0.0222954
0.0109033
0.0714912
0.062417
0.0532658
0.0448431
0.0370304
0.0296542
0.0219386
0.0105974
0.067699
0.0587266
0.050254
0.0423691
0.0350697
0.0281339
0.0207988
0.00992109
0.0604296
0.0525719
0.0452079
0.0383696
0.0319903
0.0258243
0.0191544
0.00905215
0.0515984
0.0453594
0.0394206
0.0338129
0.0284711
0.0231735
0.0172707
0.0081148
0.0414201
0.0352146
0.0294141
0.0241589
0.019472
0.0152246
0.0109774
0.00481404
0.0434816
0.0361511
0.0297168
0.024099
0.0192088
0.0148633
0.0106088
0.00447969
0.0436847
0.0359591
0.0292989
0.0235892
0.0186849
0.0143701
0.0101851
0.0041646
0.0417222
0.0343288
0.0279663
0.0225297
0.0178618
0.0137423
0.00972426
0.003887
0.0381525
0.0315599
0.0258823
0.0210062
0.0167768
0.0129877
0.00922158
0.00364461
0.0337421
0.0281992
0.0234124
0.0192421
0.0155504
0.0121634
0.00869804
0.00343525
0.0290499
0.0248015
0.0209579
0.0174902
0.0143296
0.0113407
0.00817628
0.00331784
0.0429635
0.0366038
0.0307061
0.0253703
0.0205867
0.0161962
0.0117335
0.00517335
0.0451086
0.037664
0.0311365
0.0254288
0.0204158
0.0159008
0.0114048
0.00484548
0.0453793
0.0375746
0.0308357
0.0250257
0.0199774
0.0154673
0.0110182
0.00453446
0.0435089
0.0360459
0.0296015
0.0240454
0.0192101
0.0148758
0.0105798
0.00425348
0.0399987
0.0333374
0.0275632
0.0225439
0.0181255
0.0141094
0.0100589
0.00400149
0.0355954
0.029974
0.0250686
0.0207365
0.0168504
0.0132401
0.00950022
0.00377704
0.0308482
0.0265021
0.0225261
0.0188967
0.0155512
0.0123552
0.00893943
0.00364357
0.0445167
0.0380372
0.0320577
0.026628
0.0217103
0.0171462
0.0124547
0.00551532
0.0468277
0.0392461
0.0326165
0.0267892
0.0216199
0.0169084
0.0121628
0.00519392
0.0471922
0.0392637
0.0324116
0.0264617
0.0212378
0.016518
0.0118057
0.00488696
0.0453637
0.0377938
0.0312274
0.0255148
0.0204892
0.0159369
0.0113733
0.00460069
0.0418483
0.035088
0.0291805
0.0239902
0.0193746
0.0151385
0.0108223
0.00433013
0.0374021
0.0316705
0.0266176
0.0221109
0.0180335
0.0142141
0.0102244
0.00408472
0.0325596
0.0280914
0.0239689
0.020175
0.0166528
0.0132668
0.00962473
0.00393158
0.0460038
0.0394347
0.0333535
0.0277989
0.0227342
0.0180003
0.0130981
0.0058207
0.0484899
0.0407855
0.034026
0.0280488
0.0227131
0.0178175
0.0128463
0.00550885
0.0489299
0.0408791
0.0338863
0.0277742
0.0223738
0.0174617
0.0125143
0.00520572
0.0471058
0.0394218
0.0327117
0.0268314
0.0216263
0.0168792
0.0120783
0.00491582
0.0435537
0.0366778
0.0306213
0.0252642
0.0204729
0.0160471
0.0115011
0.00462555
0.0390352
0.0331756
0.0279739
0.0233082
0.0190651
0.0150684
0.0108646
0.00435991
0.0340791
0.0294834
0.0252203
0.0212798
0.0176075
0.0140617
0.010226
0.00418374
0.0471739
0.0405717
0.0344227
0.0287752
0.0236021
0.0187406
0.0136681
0.00609616
0.0497755
0.0420139
0.0351739
0.0290943
0.0236435
0.018612
0.0134572
0.00579494
0.0502708
0.0421551
0.0350749
0.0288573
0.0233372
0.0182831
0.0131439
0.00549367
0.0484569
0.0407044
0.033903
0.0279134
0.022585
0.017692
0.0126964
0.00519796
0.0448896
0.0379349
0.0317788
0.0263105
0.0213972
0.0168308
0.0121008
0.00488957
0.0403197
0.0343709
0.0290673
0.0242917
0.0199307
0.0158008
0.0114262
0.00460688
0.0352773
0.0305919
0.026231
0.0221881
0.018407
0.0147392
0.0107464
0.00440414
0.0480269
0.0414381
0.0352687
0.0295815
0.0243511
0.0194045
0.0141949
0.00635711
0.0506472
0.0429165
0.0360701
0.0299574
0.0244478
0.0193228
0.0140169
0.00606304