/*--------------------------------*- C++ -*----------------------------------*\
| =========                 |                                                 |
| \\      /  F ield         | OpenFOAM: The Open Source CFD Toolbox           |
|  \\    /   O peration     | Version:  plus.master.MPPICInterFoam            |
|   \\  /    A nd           | Web:      www.OpenFOAM.com                      |
|    \\/     M anipulation  |                                                 |
\*---------------------------------------------------------------------------*/
FoamFile
{
    version     2.0;
    format      ascii;
    class       volScalarField;
    location    "11.4";
    object      p;
}
// * * * * * * * * * * * * * * * * * * * * * * * * * * * * * * * * * * * * * //

dimensions      [1 -1 -2 0 0 0 0];

internalField   nonuniform List<scalar> 
11821
(
2343.53
2345.99
2343.33
2347.86
2344.71
2342.58
2253.95
2254.76
2254.5
2253.29
2251.75
2250.11
2248.54
2256.04
2258.05
2257.75
2255.66
2253.69
2251.73
2249.77
2258.19
2262.89
2262.32
2257.86
2255.45
2253.19
2250.87
2262.81
2275.83
2274.03
2261.23
2256.89
2254.28
2251.65
2266.41
2277.26
2274.98
2260.69
2256.92
2254.42
2251.83
2259.12
2267.85
2265.8
2258.5
2255.63
2253.71
2251.41
2255.35
2256.26
2256.57
2255.35
2254.03
2252.44
2250.53
2154.74
2155.38
2155.5
2154.96
2154.31
2153.57
2152.82
2154.34
2155.27
2156.01
2155.63
2155.09
2154.28
2153.36
2151.9
2157.48
2156.95
2155.26
2155.57
2154.87
2153.81
2149.74
2163.81
2165.72
2155.05
2155.64
2155.28
2154.11
2144.76
2159.05
2160.3
2153.34
2154.66
2155.04
2154.02
2142.91
2145.82
2151.07
2149.26
2153.32
2154.22
2153.61
2149.46
2146.58
2148.45
2151.08
2153.09
2153.6
2153.15
2055.34
2054.65
2055.17
2055.66
2056.12
2056.5
2056.77
2054.03
2051.2
2053.54
2054.55
2055.41
2056.13
2056.55
2053.92
2056.24
2054.59
2053.76
2054.74
2055.72
2056.31
2054.48
2048.66
2049.24
2053.67
2053.9
2055.27
2056.1
2049.31
2050.26
2053.63
2057.23
2051.98
2054.77
2055.9
2054.63
2051.27
2054.58
2053.45
2053.92
2055.09
2055.98
2056.08
2055.85
2056.09
2054.58
2054.56
2055.52
2056.2
1964.68
1963.99
1964.08
1964.15
1964.16
1964.29
1964.43
1965.87
1964.3
1964.78
1964.57
1964.09
1964.23
1964.32
1970.72
1970.67
1970.25
1967.56
1964.82
1964.31
1964.28
1972.28
1966.81
1969.03
1969.4
1965.33
1964.3
1964.23
1975.29
1974.27
1969.77
1972.29
1963.68
1963.77
1964.1
1975.16
1975.25
1973.72
1972.27
1966.39
1964.65
1964.46
1973.59
1975.22
1974.64
1970.29
1966.06
1964.9
1964.71
1875.97
1875.72
1875.56
1875.18
1874.67
1874.26
1873.94
1877.93
1877.65
1877.48
1876.43
1875.26
1874.66
1874.19
1883.95
1884.29
1883.65
1879.99
1876.47
1875.21
1874.52
1886.26
1884.65
1885.64
1883.41
1877.72
1875.68
1874.76
1888.03
1881.16
1880.47
1883.05
1877.18
1875.57
1874.82
1887.79
1886.45
1885.83
1884.61
1878.02
1875.9
1875.02
1884.7
1885.04
1885.26
1881.31
1877.12
1875.67
1874.99
1784.87
1784.82
1784.69
1784.29
1783.77
1783.25
1782.76
1785.91
1785.87
1785.91
1785.16
1784.39
1783.77
1783.16
1789.75
1791.25
1790.26
1787.22
1785.29
1784.35
1783.56
1793.36
1792.57
1793.12
1789.7
1786.06
1784.79
1783.87
1793.21
1785.09
1791.6
1789.7
1785.8
1784.78
1783.96
1792.07
1792.67
1793.01
1789.49
1785.89
1784.79
1784
1788.09
1788.52
1788.53
1786.92
1785.14
1784.43
1783.81
1691.79
1692.05
1692.02
1691.67
1691.26
1690.82
1690.4
1691.94
1692.58
1692.92
1692.35
1691.83
1691.29
1690.75
1693.42
1696.5
1695.62
1693.48
1692.52
1691.79
1691.09
1695.22
1702.89
1700.33
1694.96
1693.14
1692.23
1691.37
1695.91
1706.58
1703.3
1695.36
1692.98
1692.28
1691.44
1692.72
1700.28
1700.3
1693.71
1692.74
1692.09
1691.38
1691.96
1692.85
1693.18
1692.79
1692.09
1691.67
1691.15
1597.79
1597.98
1597.97
1597.81
1597.65
1597.47
1597.28
1597.7
1597.94
1598.27
1598.06
1597.88
1597.69
1597.45
1598.77
1600.69
1600.39
1598.82
1598.25
1597.96
1597.63
1601.2
1603.03
1601.38
1599.9
1598.6
1598.21
1597.79
1596.52
1608.54
1605.14
1600.47
1598.3
1598.22
1597.82
1596.17
1599.84
1605.65
1598.6
1598.19
1598.04
1597.75
1598.75
1598.03
1599.99
1598.54
1597.82
1597.79
1597.63
1504.66
1504.49
1504.5
1504.49
1504.5
1504.51
1504.48
1504.8
1504.22
1504.58
1504.47
1504.47
1504.53
1504.52
1507.3
1507.31
1506.71
1505.32
1504.66
1504.62
1504.58
1509.92
1503.7
1507.89
1506.02
1504.93
1504.74
1504.66
1508.8
1503.12
1506.41
1506.85
1504.69
1504.74
1504.68
1508.68
1505.97
1510.05
1506.81
1505.06
1504.81
1504.73
1509.55
1509.04
1509.65
1506.49
1504.94
1504.78
1504.75
1413.41
1413.16
1413.05
1412.9
1412.76
1412.65
1412.55
1414.24
1413.52
1413.63
1413.18
1412.91
1412.77
1412.64
1418.18
1417.9
1416.86
1414.67
1413.33
1412.97
1412.76
1419.85
1416.26
1418.13
1416.42
1413.88
1413.19
1412.87
1422.39
1417.24
1414.82
1416.61
1413.72
1413.21
1412.91
1421.54
1420.75
1419.76
1417.22
1414.06
1413.3
1412.99
1420.09
1420.44
1419.04
1415.91
1413.8
1413.21
1412.99
1321.44
1321.32
1321.24
1321.06
1320.9
1320.76
1320.66
1321.93
1321.64
1321.79
1321.34
1321.08
1320.9
1320.75
1325.1
1325.49
1324.61
1322.58
1321.48
1321.11
1320.86
1327.42
1327.39
1326.25
1324.07
1321.97
1321.29
1320.94
1328.25
1321.56
1325.51
1323.35
1321.53
1321.22
1320.95
1328.47
1327.97
1326.23
1324.3
1321.89
1321.3
1321
1325.24
1324.99
1324.88
1322.84
1321.52
1321.14
1320.95
1228.49
1228.59
1228.67
1228.6
1228.57
1228.55
1228.54
1228.28
1228.65
1229.07
1228.74
1228.64
1228.6
1228.56
1230.34
1231.86
1231.35
1229.68
1228.9
1228.7
1228.58
1232.36
1234.22
1233.6
1230.78
1229.25
1228.84
1228.62
1230.15
1234.01
1235.86
1230.6
1228.9
1228.75
1228.58
1228.68
1233.36
1233.95
1230.5
1228.93
1228.69
1228.57
1228.28
1229.99
1230.75
1229.37
1228.58
1228.5
1228.5
1136.62
1136.65
1136.66
1136.57
1136.53
1136.54
1136.55
1136.77
1136.98
1137.22
1136.77
1136.63
1136.6
1136.56
1139.52
1140.8
1140.1
1138.03
1136.99
1136.75
1136.61
1142.14
1143.87
1143.91
1139.6
1137.66
1136.98
1136.69
1137.52
1145.15
1145.03
1140.26
1137.53
1136.99
1136.69
1137.21
1142.73
1144.59
1139.79
1137.41
1136.85
1136.66
1138.92
1140.39
1141.47
1138.46
1136.89
1136.64
1136.6
1045.98
1045.7
1045.52
1045.28
1045.08
1044.93
1044.82
1047.25
1046.61
1046.52
1045.78
1045.35
1045.12
1044.93
1051.98
1052.43
1050.34
1047.65
1045.94
1045.4
1045.09
1056.32
1052.24
1052.78
1049.88
1046.81
1045.72
1045.26
1056.05
1053.33
1053.89
1051.71
1046.78
1045.8
1045.33
1055.69
1054.58
1055.78
1051.16
1047.02
1045.82
1045.37
1054.71
1055.2
1054.74
1049.55
1046.51
1045.66
1045.35
954.392
954.073
953.779
953.52
953.292
953.066
952.863
955.545
954.913
954.413
953.822
953.521
953.284
953.04
960.101
959.407
957.402
955.206
953.917
953.548
953.249
962.527
959.319
957.804
956.824
954.518
953.811
953.435
965.747
955.853
955.013
957.658
954.583
953.898
953.538
964.7
962.198
961.341
957.934
954.815
953.974
953.612
963.561
963.253
961.201
956.998
954.51
953.893
953.595
861.243
861.152
861.048
860.887
860.708
860.49
860.276
861.601
861.412
861.407
861.126
860.934
860.698
860.455
864.178
864.307
863.369
862.021
861.257
860.941
860.644
865.377
867.226
864.419
863.283
861.723
861.184
860.812
865.907
860.137
862.745
863.1
861.722
861.254
860.896
867.62
867.966
865.747
863.409
861.829
861.295
860.938
865.597
864.35
864.058
862.703
861.454
861.129
860.862
2336.48
2336.36
2338.23
2337.51
2337.02
2336.71
2336.49
2336.38
2341.22
2339.7
2338.59
2337.78
2337.23
2336.88
2336.66
2336.55
2341.41
2339.93
2338.81
2338.01
2337.45
2337.08
2336.87
2336.78
2341.35
2339.98
2338.96
2338.22
2337.71
2337.37
2337.18
2337.11
2340.82
2339.79
2338.97
2338.35
2337.92
2337.65
2337.51
2337.47
2247.27
2246.38
2245.65
2245.11
2244.71
2244.42
2244.21
2244.13
2248.12
2246.9
2245.97
2245.27
2244.78
2244.44
2244.2
2244.07
2248.9
2247.46
2246.35
2245.53
2244.95
2244.55
2244.28
2244.14
2249.47
2247.89
2246.68
2245.79
2245.15
2244.71
2244.43
2244.29
2249.65
2248.1
2246.9
2246.01
2245.36
2244.92
2244.64
2244.52
2249.45
2248.08
2247.01
2246.19
2245.6
2245.2
2244.96
2244.86
2248.81
2247.78
2246.95
2246.29
2245.81
2245.49
2245.32
2245.25
2152.25
2151.85
2151.53
2151.3
2151.14
2151.02
2150.93
2150.91
2152.63
2152.09
2151.68
2151.38
2151.17
2151.02
2150.9
2150.84
2152.93
2152.29
2151.8
2151.45
2151.21
2151.04
2150.92
2150.86
2153.14
2152.44
2151.92
2151.55
2151.28
2151.1
2150.99
2150.94
2153.12
2152.48
2151.99
2151.62
2151.36
2151.19
2151.1
2151.07
2152.91
2152.42
2152.02
2151.71
2151.49
2151.35
2151.28
2151.28
2152.5
2152.16
2151.91
2151.72
2151.58
2151.5
2151.49
2151.52
2056.95
2057.1
2057.24
2057.35
2057.45
2057.52
2057.55
2057.59
2056.83
2057.03
2057.18
2057.31
2057.4
2057.48
2057.52
2057.54
2056.68
2056.92
2057.1
2057.24
2057.36
2057.44
2057.5
2057.54
2056.55
2056.83
2057.04
2057.2
2057.33
2057.43
2057.51
2057.6
2056.44
2056.76
2057
2057.19
2057.33
2057.46
2057.56
2057.67
2056.48
2056.8
2057.06
2057.26
2057.42
2057.55
2057.67
2057.78
2056.46
2056.74
2057.02
2057.25
2057.44
2057.62
2057.78
2057.91
1964.48
1964.6
1964.71
1964.81
1964.9
1964.97
1965.02
1965.08
1964.42
1964.55
1964.67
1964.77
1964.86
1964.94
1965.01
1965.07
1964.37
1964.5
1964.62
1964.73
1964.84
1964.94
1965.03
1965.11
1964.34
1964.47
1964.6
1964.73
1964.85
1964.97
1965.08
1965.18
1964.31
1964.48
1964.63
1964.77
1964.9
1965.03
1965.16
1965.28
1964.53
1964.63
1964.77
1964.9
1965.03
1965.16
1965.3
1965.42
1964.6
1964.68
1964.82
1964.96
1965.12
1965.28
1965.44
1965.58
1873.62
1873.47
1873.35
1873.27
1873.22
1873.2
1873.21
1873.25
1873.8
1873.57
1873.4
1873.29
1873.23
1873.21
1873.22
1873.26
1874.02
1873.71
1873.5
1873.36
1873.28
1873.26
1873.28
1873.34
1874.2
1873.85
1873.61
1873.46
1873.37
1873.35
1873.39
1873.45
1874.31
1873.97
1873.73
1873.58
1873.5
1873.49
1873.53
1873.6
1874.48
1874.13
1873.9
1873.76
1873.68
1873.68
1873.73
1873.81
1874.37
1874.1
1873.93
1873.84
1873.82
1873.85
1873.93
1874.03
1782.32
1782.04
1781.81
1781.64
1781.52
1781.46
1781.44
1781.48
1782.61
1782.21
1781.91
1781.69
1781.55
1781.47
1781.45
1781.47
1782.89
1782.41
1782.05
1781.8
1781.63
1781.54
1781.52
1781.55
1783.13
1782.61
1782.21
1781.93
1781.75
1781.66
1781.64
1781.68
1783.25
1782.74
1782.35
1782.07
1781.89
1781.81
1781.8
1781.85
1783.33
1782.86
1782.5
1782.24
1782.08
1782
1782
1782.05
1783.08
1782.73
1782.47
1782.3
1782.2
1782.17
1782.2
1782.27
1690.04
1689.8
1689.61
1689.47
1689.39
1689.35
1689.34
1689.39
1690.29
1689.95
1689.7
1689.53
1689.42
1689.36
1689.35
1689.37
1690.52
1690.12
1689.82
1689.61
1689.48
1689.41
1689.4
1689.44
1690.72
1690.27
1689.95
1689.72
1689.58
1689.5
1689.5
1689.55
1690.81
1690.38
1690.06
1689.83
1689.69
1689.62
1689.62
1689.68
1690.82
1690.44
1690.17
1689.96
1689.83
1689.78
1689.79
1689.85
1690.52
1690.25
1690.07
1689.96
1689.89
1689.89
1689.93
1690
1597.12
1597.03
1596.97
1596.95
1596.94
1596.96
1596.99
1597.05
1597.25
1597.11
1597.03
1596.97
1596.95
1596.96
1596.99
1597.05
1597.37
1597.2
1597.08
1597.02
1596.99
1596.99
1597.03
1597.1
1597.49
1597.29
1597.16
1597.08
1597.05
1597.06
1597.1
1597.18
1597.53
1597.34
1597.22
1597.15
1597.13
1597.14
1597.2
1597.28
1597.52
1597.38
1597.3
1597.25
1597.24
1597.26
1597.32
1597.4
1597.3
1597.21
1597.22
1597.23
1597.27
1597.33
1597.41
1597.51
1504.44
1504.46
1504.5
1504.54
1504.59
1504.64
1504.69
1504.76
1504.49
1504.5
1504.52
1504.55
1504.58
1504.63
1504.7
1504.77
1504.55
1504.54
1504.55
1504.57
1504.6
1504.65
1504.72
1504.81
1504.61
1504.59
1504.59
1504.61
1504.65
1504.7
1504.78
1504.88
1504.64
1504.63
1504.64
1504.67
1504.71
1504.77
1504.86
1504.97
1504.7
1504.71
1504.73
1504.76
1504.81
1504.88
1504.97
1505.07
1504.58
1504.6
1504.68
1504.76
1504.85
1504.95
1505.06
1505.17
1412.46
1412.45
1412.47
1412.49
1412.52
1412.56
1412.62
1412.69
1412.53
1412.5
1412.49
1412.49
1412.51
1412.55
1412.61
1412.69
1412.62
1412.55
1412.51
1412.5
1412.51
1412.56
1412.63
1412.72
1412.7
1412.61
1412.56
1412.54
1412.55
1412.59
1412.67
1412.77
1412.75
1412.65
1412.6
1412.59
1412.61
1412.65
1412.73
1412.84
1412.82
1412.74
1412.69
1412.68
1412.71
1412.76
1412.84
1412.93
1412.7
1412.64
1412.66
1412.69
1412.76
1412.84
1412.94
1413.04
1320.55
1320.53
1320.52
1320.52
1320.54
1320.59
1320.65
1320.72
1320.61
1320.55
1320.52
1320.51
1320.52
1320.56
1320.62
1320.7
1320.68
1320.58
1320.52
1320.5
1320.5
1320.54
1320.62
1320.71
1320.73
1320.61
1320.54
1320.51
1320.51
1320.55
1320.63
1320.73
1320.76
1320.64
1320.57
1320.53
1320.54
1320.58
1320.66
1320.76
1320.8
1320.69
1320.62
1320.6
1320.61
1320.66
1320.73
1320.83
1320.63
1320.56
1320.56
1320.59
1320.64
1320.71
1320.81
1320.91
1228.49
1228.47
1228.47
1228.49
1228.52
1228.58
1228.65
1228.72
1228.48
1228.45
1228.45
1228.46
1228.49
1228.54
1228.62
1228.7
1228.48
1228.43
1228.42
1228.43
1228.46
1228.52
1228.6
1228.7
1228.49
1228.43
1228.41
1228.42
1228.45
1228.51
1228.6
1228.7
1228.47
1228.42
1228.4
1228.41
1228.44
1228.51
1228.61
1228.71
1228.48
1228.43
1228.41
1228.43
1228.47
1228.54
1228.64
1228.74
1228.3
1228.29
1228.33
1228.39
1228.46
1228.56
1228.67
1228.77
1136.49
1136.48
1136.46
1136.47
1136.51
1136.56
1136.63
1136.7
1136.49
1136.46
1136.45
1136.46
1136.49
1136.54
1136.61
1136.7
1136.49
1136.45
1136.44
1136.45
1136.48
1136.53
1136.62
1136.71
1136.53
1136.46
1136.44
1136.45
1136.48
1136.54
1136.63
1136.73
1136.54
1136.47
1136.45
1136.46
1136.49
1136.56
1136.65
1136.75
1136.54
1136.48
1136.47
1136.49
1136.53
1136.6
1136.69
1136.79
1136.42
1136.41
1136.43
1136.47
1136.53
1136.61
1136.72
1136.82
1044.66
1044.59
1044.54
1044.51
1044.51
1044.53
1044.58
1044.64
1044.75
1044.64
1044.57
1044.53
1044.52
1044.53
1044.59
1044.66
1044.85
1044.71
1044.62
1044.56
1044.54
1044.56
1044.62
1044.69
1044.96
1044.79
1044.68
1044.62
1044.59
1044.61
1044.67
1044.75
1045.03
1044.85
1044.74
1044.68
1044.66
1044.68
1044.74
1044.82
1045.1
1044.93
1044.82
1044.76
1044.75
1044.77
1044.83
1044.91
1045.07
1044.94
1044.86
1044.81
1044.81
1044.85
1044.92
1044.99
952.643
952.531
952.444
952.376
952.338
952.331
952.356
952.392
952.795
952.637
952.513
952.421
952.364
952.346
952.369
952.416
952.965
952.763
952.603
952.486
952.415
952.392
952.417
952.469
953.117
952.883
952.703
952.574
952.494
952.467
952.489
952.541
953.217
952.98
952.802
952.675
952.597
952.571
952.594
952.643
953.308
953.077
952.913
952.799
952.732
952.712
952.731
952.772
953.261
953.088
952.963
952.881
952.845
952.847
952.873
952.912
860.094
859.998
859.93
859.881
859.852
859.846
859.867
859.9
860.243
860.101
859.992
859.912
859.864
859.85
859.869
859.911
860.392
860.202
860.058
859.956
859.896
859.876
859.895
859.939
860.524
860.307
860.146
860.029
859.956
859.928
859.942
859.986
860.603
860.39
860.231
860.117
860.045
860.016
860.027
860.067
860.656
860.464
860.324
860.227
860.168
860.143
860.149
860.179
860.528
860.4
860.324
860.278
860.257
860.254
860.269
860.293
2253.63
2253.4
2252.55
2251.59
2250.83
2250.35
2250.15
2250.16
2253.81
2254.12
2253.47
2252.3
2251.33
2250.66
2250.37
2250.38
2253.65
2254.3
2254.03
2252.79
2251.62
2250.79
2250.39
2250.38
2255.87
2254.95
2253.96
2252.56
2251.33
2250.47
2250.05
2250.01
2255.33
2254.21
2252.88
2251.55
2250.48
2249.75
2249.38
2249.34
2254.01
2252.79
2251.46
2250.33
2249.47
2248.89
2248.61
2248.57
2252.5
2251.4
2250.3
2249.36
2248.64
2248.17
2247.94
2247.9
2152.18
2153.54
2153.87
2154.03
2154.08
2154.13
2154.24
2154.41
2150.42
2152.99
2153.72
2153.93
2154.02
2154.08
2154.21
2154.44
2152.56
2155.27
2154.52
2154.36
2154.22
2154.15
2154.2
2154.43
2151.65
2154.6
2154.7
2154.44
2154.19
2154.06
2154.08
2154.28
2153.45
2154.49
2154.45
2154.19
2153.97
2153.84
2153.84
2154
2154.41
2154.56
2154.23
2153.91
2153.67
2153.54
2153.52
2153.62
2154.64
2154.42
2154
2153.65
2153.4
2153.26
2153.22
2153.28
2055.11
2055.53
2056.43
2057.22
2057.85
2058.37
2058.82
2059.2
2056.52
2055.17
2055.94
2056.82
2057.53
2058.12
2058.66
2059.15
2057.82
2055.01
2055.55
2056.5
2057.26
2057.9
2058.48
2059.04
2055.59
2054.82
2055.71
2056.59
2057.3
2057.9
2058.46
2058.98
2054.79
2055.25
2056.24
2056.98
2057.57
2058.07
2058.51
2058.94
2055.09
2056.15
2056.84
2057.38
2057.82
2058.19
2058.52
2058.83
2056.34
2056.99
2057.39
2057.72
2058.02
2058.25
2058.48
2058.7
1968.21
1966.09
1965.86
1965.95
1966.15
1966.44
1966.81
1967.19
1972.11
1966.98
1965.91
1965.79
1965.96
1966.27
1966.72
1967.22
1971.4
1966.51
1965.39
1965.34
1965.59
1965.98
1966.5
1967.08
1970.54
1966.06
1965.15
1965.18
1965.46
1965.85
1966.36
1966.92
1967.66
1965.34
1965.1
1965.24
1965.51
1965.85
1966.27
1966.72
1964.94
1964.79
1964.97
1965.22
1965.5
1965.79
1966.13
1966.46
1964.73
1964.92
1965.14
1965.36
1965.54
1965.75
1966
1966.25
1878.7
1876.38
1875.99
1875.79
1875.7
1875.77
1876.02
1876.34
1883.49
1878.32
1876.72
1876.16
1875.9
1875.9
1876.15
1876.54
1883.09
1878.07
1876.5
1876
1875.79
1875.79
1876.05
1876.49
1883.47
1878.17
1876.51
1875.93
1875.66
1875.63
1875.86
1876.27
1879.47
1876.67
1875.88
1875.5
1875.31
1875.31
1875.53
1875.86
1876.16
1875.44
1875.16
1874.98
1874.9
1874.93
1875.11
1875.37
1875.28
1875.06
1874.88
1874.74
1874.66
1874.68
1874.81
1874.99
1784.84
1784.12
1784.24
1784.16
1784.08
1784.13
1784.32
1784.59
1787.1
1785.18
1784.88
1784.63
1784.41
1784.34
1784.51
1784.81
1788.6
1785.56
1785.04
1784.8
1784.53
1784.4
1784.52
1784.84
1788.28
1785.67
1785.12
1784.75
1784.42
1784.25
1784.35
1784.64
1786.35
1784.98
1784.63
1784.27
1783.98
1783.87
1783.98
1784.21
1784.66
1784.31
1784
1783.71
1783.51
1783.44
1783.52
1783.71
1784.27
1784.03
1783.72
1783.44
1783.23
1783.15
1783.2
1783.33
1690.95
1691.21
1691.37
1691.33
1691.33
1691.4
1691.59
1691.82
1690.16
1691.51
1691.68
1691.55
1691.43
1691.44
1691.61
1691.89
1690.33
1691.51
1691.8
1691.63
1691.44
1691.4
1691.55
1691.84
1691.47
1691.67
1691.81
1691.58
1691.36
1691.29
1691.42
1691.69
1691.72
1691.5
1691.47
1691.26
1691.1
1691.06
1691.17
1691.4
1691.3
1691.32
1691.14
1690.94
1690.83
1690.8
1690.89
1691.07
1691.44
1691.32
1691.07
1690.85
1690.69
1690.64
1690.69
1690.82
1598.03
1597.53
1597.71
1597.86
1598.02
1598.21
1598.45
1598.71
1599.18
1597.76
1597.53
1597.66
1597.83
1598.04
1598.33
1598.68
1598.61
1597.8
1597.54
1597.58
1597.68
1597.88
1598.18
1598.55
1598.67
1598.01
1597.73
1597.68
1597.72
1597.85
1598.12
1598.47
1597.97
1597.48
1597.59
1597.62
1597.68
1597.8
1598.03
1598.32
1597.36
1597.54
1597.57
1597.59
1597.64
1597.74
1597.9
1598.13
1597.69
1597.77
1597.72
1597.65
1597.65
1597.71
1597.83
1598
1506.62
1504.99
1505.13
1505.3
1505.48
1505.68
1505.93
1506.19
1509.52
1505.86
1505.1
1505.15
1505.31
1505.53
1505.85
1506.22
1510.03
1506.32
1505.12
1505.03
1505.15
1505.37
1505.73
1506.13
1508.68
1505.73
1505.04
1505.01
1505.12
1505.32
1505.65
1506.04
1506.04
1504.79
1504.84
1504.95
1505.09
1505.27
1505.55
1505.87
1504.53
1504.63
1504.79
1504.92
1505.05
1505.22
1505.44
1505.7
1504.67
1504.83
1504.91
1504.98
1505.07
1505.2
1505.35
1505.54
1415.55
1413.45
1413.47
1413.51
1413.56
1413.68
1413.88
1414.12
1419.43
1415.15
1414.01
1413.73
1413.66
1413.73
1413.96
1414.29
1419.21
1414.91
1413.74
1413.58
1413.55
1413.65
1413.92
1414.27
1418.47
1414.76
1413.82
1413.58
1413.51
1413.58
1413.83
1414.17
1415.55
1413.7
1413.46
1413.37
1413.36
1413.44
1413.65
1413.93
1413.42
1413.17
1413.18
1413.18
1413.21
1413.3
1413.47
1413.69
1413.15
1413.16
1413.14
1413.12
1413.14
1413.21
1413.33
1413.5
1321.72
1320.58
1320.91
1321.03
1321.12
1321.27
1321.48
1321.72
1324.92
1322.3
1321.64
1321.48
1321.39
1321.44
1321.65
1321.95
1325.79
1322.56
1321.7
1321.57
1321.47
1321.49
1321.69
1322
1324.65
1322.18
1321.71
1321.54
1321.42
1321.44
1321.62
1321.92
1322.68
1321.36
1321.33
1321.25
1321.23
1321.28
1321.45
1321.71
1321.16
1321.08
1321.1
1321.07
1321.08
1321.14
1321.28
1321.49
1321.15
1321.15
1321.11
1321.06
1321.04
1321.08
1321.17
1321.32
1226.72
1226.91
1227.57
1227.94
1228.24
1228.54
1228.85
1229.15
1226.13
1227.38
1227.73
1228.05
1228.28
1228.55
1228.9
1229.27
1226.34
1227.3
1227.67
1228.06
1228.27
1228.53
1228.88
1229.26
1228.47
1227.65
1228
1228.24
1228.39
1228.6
1228.89
1229.26
1228.3
1227.6
1228.03
1228.23
1228.4
1228.6
1228.85
1229.16
1227.7
1227.99
1228.23
1228.36
1228.48
1228.63
1228.82
1229.06
1228.3
1228.47
1228.52
1228.56
1228.61
1228.69
1228.83
1229
1137.15
1136.21
1136.25
1136.4
1136.61
1136.86
1137.16
1137.46
1137.11
1137.08
1136.09
1136.18
1136.39
1136.68
1137.06
1137.46
1137.17
1136.44
1135.71
1135.89
1136.14
1136.46
1136.87
1137.32
1139.02
1136.91
1136.13
1136.15
1136.28
1136.52
1136.87
1137.3
1137.42
1136.01
1136.07
1136.19
1136.34
1136.56
1136.85
1137.2
1136.02
1136.07
1136.22
1136.33
1136.46
1136.63
1136.85
1137.11
1136.35
1136.47
1136.5
1136.54
1136.6
1136.71
1136.86
1137.04
1050.81
1047.56
1046.66
1046.27
1046.08
1046.07
1046.2
1046.4
1054.54
1050.16
1047.23
1046.36
1046.02
1045.98
1046.17
1046.49
1055.29
1050.64
1047.32
1046.26
1045.86
1045.8
1046.02
1046.39
1053.81
1049.27
1046.81
1046.03
1045.71
1045.67
1045.87
1046.22
1049.34
1046.65
1045.91
1045.58
1045.45
1045.48
1045.66
1045.95
1046.14
1045.61
1045.42
1045.3
1045.27
1045.32
1045.47
1045.69
1045.53
1045.41
1045.3
1045.22
1045.18
1045.22
1045.33
1045.47
958.422
955.187
954.664
954.399
954.227
954.184
954.264
954.41
962.91
957.771
955.413
954.744
954.426
954.331
954.444
954.683
963.823
958.295
955.536
954.793
954.45
954.334
954.452
954.721
961.793
957.134
955.171
954.603
954.304
954.196
954.298
954.552
957.503
955.033
954.454
954.163
953.981
953.927
954.017
954.21
954.619
954.135
953.942
953.777
953.671
953.653
953.726
953.862
953.98
953.83
953.695
953.561
953.47
953.445
953.489
953.574
862.486
860.75
860.899
860.946
860.954
860.994
861.083
861.203
865.299
862.674
861.699
861.457
861.3
861.252
861.329
861.493
865.622
863
861.715
861.605
861.474
861.412
861.471
861.631
864.212
862.293
861.685
861.55
861.415
861.35
861.399
861.559
862.685
861.36
861.34
861.27
861.194
861.157
861.194
861.309
861.127
861.091
861.095
861.036
860.981
860.959
860.985
861.055
861.053
861.023
860.963
860.886
860.823
860.794
860.809
860.853
2251.74
2250.44
2249.34
2248.46
2247.8
2247.36
2247.13
2247.05
2252.3
2250.54
2249.17
2248.11
2247.33
2246.79
2246.48
2246.36
2251.98
2250.14
2248.68
2247.56
2246.73
2246.17
2245.83
2245.69
2251.05
2249.33
2247.96
2246.9
2246.13
2245.6
2245.27
2245.12
2249.85
2248.35
2247.16
2246.24
2245.57
2245.09
2244.79
2244.65
2248.57
2247.37
2246.4
2245.65
2245.11
2244.73
2244.48
2244.36
2247.45
2246.57
2245.82
2245.24
2244.8
2244.49
2244.28
2244.21
2153.95
2153.56
2153.26
2153.01
2152.83
2152.72
2152.69
2152.72
2154.45
2153.83
2153.32
2152.93
2152.63
2152.43
2152.33
2152.32
2154.45
2153.69
2153.08
2152.62
2152.28
2152.06
2151.93
2151.89
2154.05
2153.32
2152.73
2152.28
2151.95
2151.73
2151.59
2151.53
2153.52
2152.86
2152.34
2151.94
2151.64
2151.44
2151.3
2151.25
2152.92
2152.38
2151.95
2151.63
2151.39
2151.22
2151.1
2151.07
2152.42
2152.02
2151.68
2151.43
2151.25
2151.12
2151.02
2150.99
2056.02
2056.55
2057.03
2057.41
2057.71
2057.97
2058.19
2058.36
2055.9
2056.6
2057.1
2057.45
2057.7
2057.89
2058.05
2058.19
2056.1
2056.67
2057.08
2057.38
2057.59
2057.75
2057.88
2058
2056.37
2056.81
2057.13
2057.37
2057.54
2057.66
2057.75
2057.85
2056.63
2056.96
2057.21
2057.39
2057.52
2057.61
2057.68
2057.77
2056.83
2057.07
2057.26
2057.4
2057.51
2057.59
2057.64
2057.7
2057.03
2057.2
2057.33
2057.43
2057.52
2057.58
2057.61
2057.65
1964.5
1964.62
1964.81
1965.02
1965.24
1965.46
1965.68
1965.86
1964.24
1964.49
1964.73
1964.94
1965.13
1965.31
1965.49
1965.65
1964.21
1964.41
1964.62
1964.82
1964.99
1965.15
1965.3
1965.44
1964.26
1964.44
1964.63
1964.79
1964.94
1965.07
1965.19
1965.3
1964.31
1964.49
1964.66
1964.8
1964.93
1965.04
1965.14
1965.27
1964.38
1964.55
1964.7
1964.82
1964.93
1965.03
1965.1
1965.19
1964.53
1964.66
1964.77
1964.86
1964.94
1965.02
1965.07
1965.12
1875.08
1874.69
1874.45
1874.3
1874.24
1874.27
1874.37
1874.5
1875.02
1874.59
1874.31
1874.12
1874.02
1874
1874.05
1874.16
1874.83
1874.38
1874.08
1873.88
1873.76
1873.73
1873.76
1873.85
1874.55
1874.15
1873.88
1873.69
1873.58
1873.54
1873.56
1873.62
1874.19
1873.89
1873.67
1873.53
1873.44
1873.41
1873.43
1873.5
1873.87
1873.66
1873.5
1873.39
1873.32
1873.3
1873.31
1873.37
1873.66
1873.53
1873.41
1873.32
1873.26
1873.24
1873.24
1873.27
1783.98
1783.53
1783.19
1782.94
1782.78
1782.72
1782.75
1782.84
1784.1
1783.53
1783.1
1782.78
1782.55
1782.44
1782.43
1782.48
1783.91
1783.32
1782.85
1782.5
1782.27
1782.14
1782.11
1782.15
1783.57
1783.01
1782.58
1782.25
1782.03
1781.91
1781.87
1781.91
1783.14
1782.67
1782.29
1782.02
1781.83
1781.73
1781.69
1781.71
1782.73
1782.35
1782.04
1781.81
1781.66
1781.57
1781.55
1781.56
1782.39
1782.12
1781.88
1781.69
1781.57
1781.5
1781.47
1781.51
1691.01
1690.73
1690.53
1690.39
1690.32
1690.3
1690.35
1690.44
1691.35
1690.93
1690.61
1690.36
1690.2
1690.12
1690.12
1690.18
1691.3
1690.8
1690.43
1690.16
1689.98
1689.89
1689.88
1689.93
1691.04
1690.57
1690.22
1689.96
1689.79
1689.71
1689.69
1689.74
1690.72
1690.31
1690
1689.78
1689.63
1689.55
1689.53
1689.56
1690.39
1690.05
1689.79
1689.61
1689.5
1689.43
1689.43
1689.44
1690.1
1689.86
1689.66
1689.52
1689.43
1689.38
1689.37
1689.42
1597.33
1597.26
1597.26
1597.32
1597.39
1597.49
1597.6
1597.72
1597.61
1597.49
1597.42
1597.38
1597.37
1597.4
1597.47
1597.56
1597.64
1597.45
1597.33
1597.26
1597.24
1597.26
1597.31
1597.39
1597.55
1597.36
1597.24
1597.17
1597.15
1597.16
1597.2
1597.28
1597.41
1597.26
1597.15
1597.08
1597.06
1597.06
1597.1
1597.16
1597.27
1597.14
1597.06
1597.01
1597
1597.01
1597.05
1597.1
1597.15
1597.07
1597.01
1596.98
1596.97
1596.99
1597.01
1597.08
1504.46
1504.49
1504.6
1504.72
1504.85
1504.99
1505.14
1505.27
1504.54
1504.59
1504.67
1504.75
1504.83
1504.92
1505.02
1505.14
1504.52
1504.55
1504.6
1504.66
1504.72
1504.8
1504.89
1505
1504.52
1504.54
1504.57
1504.62
1504.67
1504.74
1504.82
1504.91
1504.5
1504.52
1504.54
1504.58
1504.62
1504.68
1504.78
1504.85
1504.47
1504.49
1504.53
1504.57
1504.62
1504.67
1504.74
1504.82
1504.46
1504.49
1504.53
1504.56
1504.6
1504.65
1504.71
1504.8
1412.96
1412.84
1412.82
1412.84
1412.89
1412.97
1413.08
1413.2
1412.98
1412.87
1412.82
1412.8
1412.81
1412.85
1412.94
1413.04
1412.87
1412.76
1412.7
1412.67
1412.68
1412.72
1412.8
1412.9
1412.75
1412.67
1412.62
1412.6
1412.61
1412.65
1412.72
1412.81
1412.64
1412.58
1412.55
1412.55
1412.56
1412.6
1412.69
1412.76
1412.53
1412.51
1412.51
1412.53
1412.55
1412.6
1412.66
1412.75
1412.48
1412.49
1412.5
1412.51
1412.54
1412.58
1412.64
1412.73
1320.95
1320.81
1320.78
1320.78
1320.8
1320.87
1320.96
1321.07
1321.07
1320.92
1320.82
1320.77
1320.75
1320.78
1320.85
1320.95
1320.99
1320.82
1320.72
1320.66
1320.65
1320.68
1320.75
1320.85
1320.86
1320.72
1320.65
1320.61
1320.6
1320.63
1320.69
1320.78
1320.73
1320.64
1320.59
1320.57
1320.57
1320.6
1320.66
1320.74
1320.64
1320.59
1320.57
1320.56
1320.57
1320.61
1320.67
1320.75
1320.59
1320.57
1320.55
1320.55
1320.57
1320.61
1320.67
1320.75
1228.2
1228.21
1228.29
1228.38
1228.48
1228.59
1228.72
1228.84
1228.48
1228.45
1228.45
1228.47
1228.51
1228.58
1228.69
1228.8
1228.52
1228.44
1228.43
1228.43
1228.47
1228.54
1228.64
1228.76
1228.5
1228.44
1228.43
1228.44
1228.47
1228.53
1228.62
1228.73
1228.49
1228.45
1228.44
1228.45
1228.48
1228.53
1228.61
1228.71
1228.5
1228.48
1228.47
1228.48
1228.51
1228.56
1228.63
1228.72
1228.51
1228.5
1228.5
1228.51
1228.55
1228.6
1228.67
1228.75
1136.35
1136.32
1136.37
1136.42
1136.5
1136.63
1136.77
1136.9
1136.49
1136.42
1136.42
1136.45
1136.51
1136.61
1136.73
1136.84
1136.49
1136.4
1136.39
1136.42
1136.47
1136.55
1136.66
1136.78
1136.46
1136.4
1136.39
1136.41
1136.45
1136.53
1136.62
1136.74
1136.45
1136.42
1136.41
1136.41
1136.45
1136.5
1136.65
1136.71
1136.47
1136.45
1136.43
1136.44
1136.47
1136.53
1136.6
1136.69
1136.49
1136.48
1136.47
1136.49
1136.52
1136.57
1136.64
1136.72
1045.49
1045.23
1045.07
1044.99
1044.98
1045.04
1045.13
1045.23
1045.35
1045.1
1044.95
1044.88
1044.86
1044.9
1044.97
1045.06
1045.16
1044.94
1044.82
1044.75
1044.73
1044.75
1044.82
1044.9
1045
1044.83
1044.71
1044.65
1044.63
1044.65
1044.71
1044.8
1044.86
1044.72
1044.63
1044.57
1044.54
1044.56
1044.7
1044.73
1044.74
1044.64
1044.56
1044.51
1044.5
1044.51
1044.63
1044.67
1044.66
1044.6
1044.55
1044.52
1044.52
1044.55
1044.6
1044.66
953.916
953.612
953.389
953.257
953.188
953.175
953.21
953.261
953.752
953.457
953.244
953.092
953.002
952.969
952.986
953.03
953.482
953.234
953.041
952.895
952.8
952.763
952.776
952.819
953.255
953.037
952.859
952.728
952.64
952.603
952.633
952.669
953.037
952.846
952.69
952.575
952.503
952.479
952.54
952.564
952.83
952.675
952.549
952.453
952.396
952.379
952.471
952.479
952.661
952.559
952.467
952.399
952.364
952.365
952.401
952.443
860.89
860.744
860.673
860.612
860.575
860.565
860.579
860.604
860.946
860.771
860.635
860.525
860.45
860.413
860.409
860.431
860.829
860.641
860.486
860.365
860.286
860.246
860.242
860.267
860.682
860.491
860.341
860.231
860.158
860.122
860.158
860.166
860.494
860.321
860.194
860.102
860.042
860.017
860.029
860.064
860.29
860.157
860.06
859.987
859.941
859.925
860.003
860.009
860.124
860.034
859.964
859.915
859.891
859.895
859.928
859.976
2341.26
2340.34
2339.55
2338.9
2338.44
2338.15
2338.03
2338.03
2342.91
2341.6
2340.54
2339.7
2339.1
2338.72
2338.54
2338.54
2345.07
2343.33
2341.95
2340.84
2340.03
2339.51
2339.28
2339.28
2347.83
2345.26
2343.5
2342.12
2341.09
2340.42
2340.1
2340.11
2344.43
2342.96
2341.87
2341.17
2340.89
2340.9
2341.54
2341.59
2249.47
2248.53
2247.66
2246.95
2246.43
2246.09
2245.91
2245.89
2251
2249.77
2248.67
2247.78
2247.12
2246.69
2246.48
2246.43
2252.69
2251.36
2250.04
2248.93
2248.09
2247.53
2247.24
2247.17
2254.07
2252.86
2251.39
2250.09
2249.07
2248.38
2248.03
2247.98
2255.05
2253.93
2252.43
2251.04
2249.94
2249.19
2248.81
2248.73
2254.9
2254.04
2252.67
2251.4
2250.41
2249.76
2249.45
2249.4
2254.08
2253.4
2252.33
2251.33
2250.56
2250.06
2249.83
2249.82
2152.98
2152.72
2152.42
2152.17
2152.01
2151.92
2151.91
2151.98
2153.27
2152.97
2152.68
2152.44
2152.28
2152.21
2152.23
2152.31
2153.45
2153.3
2153.05
2152.82
2152.66
2152.59
2152.64
2152.74
2152.98
2153.35
2153.28
2153.12
2152.99
2152.93
2152.97
2153.13
2152.87
2153.45
2153.52
2153.45
2153.35
2153.3
2153.35
2153.52
2152.15
2153.32
2153.62
2153.69
2153.67
2153.66
2153.73
2153.88
2152.11
2153.01
2153.47
2153.67
2153.78
2153.88
2153.99
2154.15
2056.66
2057.04
2057.31
2057.52
2057.7
2057.87
2058.04
2058.21
2056.05
2056.57
2057
2057.34
2057.64
2057.9
2058.15
2058.38
2055.29
2056.05
2056.66
2057.16
2057.57
2057.93
2058.28
2058.55
2054.38
2055.35
2056.21