/*--------------------------------*- C++ -*----------------------------------*\
| =========                 |                                                 |
| \\      /  F ield         | OpenFOAM: The Open Source CFD Toolbox           |
|  \\    /   O peration     | Version:  plus.master.MPPICInterFoam            |
|   \\  /    A nd           | Web:      www.OpenFOAM.com                      |
|    \\/     M anipulation  |                                                 |
\*---------------------------------------------------------------------------*/
FoamFile
{
    version     2.0;
    format      ascii;
    class       volScalarField;
    location    "11.4";
    object      p_rgh;
}
// * * * * * * * * * * * * * * * * * * * * * * * * * * * * * * * * * * * * * //

dimensions      [1 -1 -2 0 0 0 0];

internalField   nonuniform List<scalar> 
11821
(
5661.76
5664.22
5661.57
5598.45
5662.94
5660.81
5669.3
5670.11
5669.85
5668.64
5667.1
5665.46
5663.89
5528.62
5549.82
5508.31
5605.31
5669.04
5667.08
5665.12
5059.4
4254.94
4373.92
5306.44
5607.67
5668.54
5666.22
4810.53
3314.6
3312.9
4647.93
5516.03
5669.63
5667
4854.41
3359.33
3313.65
4468.46
5507.45
5669.77
5667.18
5184.48
4230
4036.86
5033.54
5490.77
5669.06
5666.76
5191.06
5195.38
5001.78
5296
5606.64
5667.79
5665.88
5667.21
5667.85
5667.97
5667.43
5666.78
5666.04
5665.29
5400.9
5446.02
5391.78
5570.86
5666.74
5666.75
5665.83
4645.05
3883.64
4126.95
5040.94
5568.85
5667.34
5666.28
4231.09
4162.01
3896.1
4364.03
5398.49
5667.75
5666.58
4800.46
4329.87
3934.43
4022.17
5367.88
5667.51
5666.49
4712.66
4233.96
3798.21
4731.83
5286.13
5666.69
5666.08
4497.54
4487.41
4361.55
4838.79
5538.63
5666.07
5665.62
5664.93
5664.24
5664.76
5665.25
5665.71
5666.09
5666.36
5205.43
5168.08
5167.8
5518.62
5661.19
5665.72
5666.14
3714.88
3483.77
3589.51
4597.48
5510.58
5665.31
5665.9
3331.88
4504.23
3880.4
3666.04
5195.28
5664.87
5665.69
3744.13
4605.52
4596.44
3506.17
5066.49
5664.36
5665.48
3348.6
3493.44
3318.19
3717.21
5041.84
5664.68
5665.57
3689.12
3446.8
3399.95
4291.14
5427.25
5665.11
5665.79
5671.39
5670.7
5670.79
5670.86
5670.87
5671
5671.14
5209.88
5130.99
5162.36
5532.23
5667.17
5670.94
5671.03
3531.48
3436.82
3472.94
4601.02
5524.46
5671.02
5670.99
3277.23
3801.77
3316.17
3576.79
5197.95
5671
5670.94
3279.24
4598.28
4495.03
3432.85
5065.83
5670.48
5670.81
3268.42
3259.53
3263.97
3412.28
5073.91
5671.36
5671.17
3679.6
3318.82
3379.71
4330.48
5436.58
5671.6
5671.42
5679.79
5679.54
5679.39
5679
5678.5
5678.09
5677.76
5351.87
5288.04
5309.59
5589.33
5678.07
5678.49
5678.01
3869.57
3415.6
3668.9
4917.15
5589.13
5679.04
5678.35
3221.44
3164.69
3164.05
3885.5
5348.3
5679.5
5678.59
3227.18
4573.91
3407.62
3648.49
5269.09
5679.4
5678.65
3257.72
3204.21
3214.59
3809.88
5287.83
5679.73
5678.85
4181.59
3713.74
3904.64
4764.32
5514.16
5679.5
5678.82
5685.82
5685.76
5685.64
5685.24
5684.71
5684.19
5683.71
5433.91
5442.39
5408.61
5619.46
5685.33
5684.71
5684.1
4311.53
3553.07
4027.1
5129.85
5623.75
5685.3
5684.51
3427.48
3103.59
3104.3
4283.85
5445.27
5685.74
5684.82
3585.21
3267.49
3102.79
3829.2
5415.89
5685.73
5684.91
3971.3
3144.24
3157.96
4408.27
5385.85
5685.72
5684.95
4604.41
4289.74
4295.95
4940.53
5547.67
5685.37
5684.76
5689.86
5690.12
5690.09
5689.74
5689.33
5688.89
5688.46
5403.53
5437.67
5395.49
5621.69
5689.89
5689.35
5688.81
4205.84
3571.77
3991.17
5085.6
5625.72
5689.86
5689.16
3650.7
3047.01
3201.85
4222.98
5436.52
5690.3
5689.43
4327.92
3050.38
3050.56
3758.32
5400.91
5690.35
5689.51
4443.84
3291.13
3053.86
4339.08
5352.67
5690.16
5689.44
4329.97
4134.99
4066.06
4749.09
5528.14
5689.73
5689.21
5692.97
5693.16
5693.15
5693
5692.83
5692.65
5692.46
5308.13
5368.33
5343.2
5616.08
5693.07
5692.87
5692.64
3740.11
3473.52
3776.68
4982.55
5618.95
5693.14
5692.82
3166.54
3445.9
3552.11
3987.64
5394.36
5693.4
5692.98
3698.07
3989.91
3757.11
3655.15
5325.59
5693.41
5693
3960.68
3454.77
2983.99
3886.79
5271.24
5693.22
5692.94
3554.26
3437.39
3398.48
4441.89
5476.12
5692.97
5692.82
5696.96
5696.79
5696.8
5696.8
5696.81
5696.81
5696.78
5269.03
5298.19
5304.52
5614.36
5696.78
5696.84
5696.82
3491.6
3327.9
3677.58
4958.96
5617.3
5696.93
5696.89
2906.86
3756.92
3058.64
3913.4
5365.48
5697.04
5696.96
2910.32
4102.49
4100.3
3610.27
5291.94
5697.05
5696.98
2912.78
3156.81
2919.53
3638.26
5247.39
5697.11
5697.04
3324.25
3142.1
3201.41
4427.33
5458.44
5697.08
5697.06
5702.84
5702.58
5702.47
5702.32
5702.19
5702.07
5701.97
5273.87
5280.81
5297.32
5620.54
5702.33
5702.19
5702.06
3578.63
3250.59
3718.08
4983.86
5624.63
5702.39
5702.18
2849.36
3086.44
2848.33
3971.49
5364.27
5702.61
5702.29
2852.52
4076.41
3304.7
3569.88
5307.28
5702.63
5702.34
2854.49
2859.46
2861.02
3703.91
5261.51
5702.73
5702.41
3520.16
3184.42
3345.91
4540.81
5463.78
5702.63
5702.41
5707.98
5707.86
5707.78
5707.6
5707.44
5707.3
5707.2
5257.79
5256.18
5289.5
5626.95
5707.62
5707.45
5707.29
3640.85
3180.33
3741.92
4973.99
5632.12
5707.65
5707.4
2789.11
2789.3
2788.37
3983.02
5362.37
5707.84
5707.48
3186.38
3581.3
2788.35
3506.91
5303.81
5707.76
5707.49
2984.81
2794.63
2796.75
3739.44
5258.66
5707.84
5707.54
3806.21
3276.72
3424.05
4516.49
5461.43
5707.68
5707.49
5712.15
5712.25
5712.33
5712.26
5712.23
5712.21
5712.2
5186.88
5190.04
5275.59
5632.52
5712.3
5712.26
5712.22
3449.58
3082.22
3651.66
4910.78
5637.91
5712.37
5712.24
2726.63
2728.68
2728.47
3872.05
5359.17
5712.5
5712.28
3816.16
2934.09
2730.9
3430.08
5274.11
5712.41
5712.24
3531.63
2731.19
2730.38
3583.93
5229.44
5712.35
5712.23
3651.74
3116.49
3206.61
4306.35
5443.93
5712.16
5712.16
5717.4
5717.43
5717.44
5717.35
5717.31
5717.32
5717.33
5147.3
5166
5278.01
5644
5717.41
5717.38
5717.34
3131.59
3018.63
3585.41
4883.57
5652.5
5717.53
5717.39
2668.83
2824.49
2734
3795.11
5374.32
5717.76
5717.47
3071.46
3768.85
3516.27
3387.57
5268.85
5717.77
5717.47
3255.02
2693.19
2682.64
3410.88
5227.99
5717.64
5717.44
3066.76
2821.01
2844.34
4142.86
5447.92
5717.42
5717.37
5723.87
5723.6
5723.42
5723.18
5722.98
5722.83
5722.71
5190.6
5215.62
5327.87
5666.07
5723.24
5723.01
5722.83
3153.7
3053.28
3671.05
4958.15
5678.37
5723.3
5722.99
2618.41
3378.19
3094.9
3899.13
5434.42
5723.62
5723.16
2629.11
3863.94
3863.2
3406.52
5337.33
5723.69
5723.23
2658.4
2856.53
2758.32
3515.08
5298.72
5723.72
5723.27
2824.31
2775
2860.5
4233.28
5496.8
5723.56
5723.25
5729.41
5729.09
5728.8
5728.54
5728.31
5728.08
5727.88
5313.49
5347.08
5406.03
5686.95
5728.54
5728.3
5728.06
3547.91
3233.92
3941.42
5115.55
5700.04
5728.57
5728.27
2881.38
2894.14
3048.89
4165.61
5506
5728.83
5728.45
2596.48
3823.7
3823.86
3795.04
5464.35
5728.92
5728.56
2611.96
2704.75
2770.33
3982.69
5420.25
5728.99
5728.63
3086.17
3017.11
3349.87
4541.63
5568.68
5728.91
5728.61
5733.38
5733.29
5733.18
5733.02
5732.84
5732.63
5732.41
5357.34
5390.61
5425.96
5695.22
5733.07
5732.83
5732.59
3792.98
3248.57
3972.59
5154.62
5709.32
5733.08
5732.78
2822.77
2503.95
2864.73
4189.84
5531.55
5733.32
5732.95
3111.99
3207.69
2858.83
3909.94
5514.76
5733.39
5733.03
2940.76
2501.59
2630.39
4162.57
5471.19
5733.43
5733.07
3739.94
3519
3699.55
4614.39
5601.98
5733.27
5733
5654.61
5654.46
5656.46
5655.74
5655.25
5654.94
5654.72
5654.61
5659.45
5657.94
5656.82
5656.02
5655.46
5655.12
5654.89
5654.78
5659.64
5658.16
5657.04
5656.24
5655.68
5655.32
5655.1
5655.01
5659.58
5658.22
5657.2
5656.46
5655.94
5655.6
5655.42
5655.34
5659.05
5658.03
5657.2
5656.58
5656.15
5655.88
5655.73
5655.67
5662.62
5661.73
5661.01
5660.46
5660.06
5659.77
5658.13
5650.95
5663.47
5662.25
5661.32
5660.62
5660.13
5659.78
5659.46
5659.29
5664.25
5662.81
5661.71
5660.89
5660.3
5659.9
5659.63
5659.49
5664.82
5663.25
5662.04
5661.14
5660.5
5660.06
5659.78
5659.64
5665
5663.45
5662.25
5661.36
5660.71
5660.27
5660
5659.88
5664.81
5663.43
5662.36
5661.54
5660.95
5660.55
5660.31
5660.21
5664.16
5663.13
5662.3
5661.64
5661.16
5660.84
5660.67
5660.59
5664.72
5664.32
5664
5663.77
5663.61
5663.49
5661.68
5654.32
5665.1
5664.56
5664.15
5663.85
5663.64
5663.48
5663.31
5663.21
5665.4
5664.76
5664.27
5663.92
5663.68
5663.51
5663.39
5663.33
5665.61
5664.91
5664.39
5664.02
5663.75
5663.57
5663.46
5663.41
5665.59
5664.95
5664.46
5664.09
5663.83
5663.66
5663.57
5663.54
5665.38
5664.89
5664.49
5664.18
5663.96
5663.82
5663.75
5663.75
5664.97
5664.63
5664.38
5664.19
5664.05
5663.97
5663.96
5663.99
5666.54
5666.69
5666.83
5666.94
5667.04
5667.11
5665.1
5659.24
5666.42
5666.62
5666.77
5666.9
5666.99
5667.06
5667.07
5667.08
5666.27
5666.51
5666.69
5666.83
5666.94
5667.03
5667.09
5667.13
5666.14
5666.42
5666.63
5666.79
5666.92
5667.02
5667.1
5667.19
5666.02
5666.35
5666.59
5666.78
5666.92
5667.05
5667.15
5667.26
5666.07
5666.39
5666.65
5666.85
5667.01
5667.14
5667.26
5667.37
5666.05
5666.33
5666.6
5666.84
5667.03
5667.21
5667.33
5667.5
5671.19
5671.31
5671.42
5671.52
5671.61
5671.68
5669.82
5664.74
5671.12
5671.25
5671.37
5671.48
5671.57
5671.64
5671.71
5671.75
5671.08
5671.2
5671.33
5671.44
5671.55
5671.64
5671.73
5671.82
5671.05
5671.18
5671.31
5671.44
5671.56
5671.67
5671.79
5671.89
5671.02
5671.18
5671.34
5671.48
5671.61
5671.74
5671.87
5671.99
5671.24
5671.34
5671.48
5671.61
5671.74
5671.87
5672
5672.13
5671.31
5671.39
5671.52
5671.67
5671.83
5671.99
5672.1
5672.29
5677.44
5677.29
5677.18
5677.1
5677.05
5677.03
5675.56
5669.86
5677.63
5677.39
5677.23
5677.12
5677.05
5677.03
5677.05
5677.07
5677.85
5677.54
5677.32
5677.18
5677.11
5677.09
5677.11
5677.16
5678.03
5677.68
5677.44
5677.29
5677.2
5677.18
5677.21
5677.28
5678.14
5677.8
5677.56
5677.41
5677.33
5677.31
5677.36
5677.43
5678.31
5677.96
5677.73
5677.58
5677.51
5677.5
5677.55
5677.64
5678.2
5677.93
5677.76
5677.67
5677.65
5677.68
5677.74
5677.84
5683.27
5682.99
5682.76
5682.59
5682.47
5682.41
5681.19
5674.84
5683.55
5683.16
5682.86
5682.64
5682.5
5682.42
5682.4
5682.41
5683.84
5683.36
5683
5682.74
5682.58
5682.49
5682.47
5682.5
5684.07
5683.55
5683.16
5682.88
5682.7
5682.6
5682.59
5682.63
5684.2
5683.69
5683.3
5683.02
5682.84
5682.75
5682.74
5682.79
5684.28
5683.8
5683.45
5683.19
5683.03
5682.95
5682.95
5683
5684.03
5683.67
5683.42
5683.24
5683.14
5683.11
5683.15
5683.2
5688.11
5687.87
5687.67
5687.54
5687.46
5687.42
5686.19
5680.74
5688.36
5688.02
5687.77
5687.59
5687.48
5687.43
5687.41
5687.44
5688.59
5688.18
5687.88
5687.68
5687.54
5687.48
5687.47
5687.5
5688.78
5688.34
5688.01
5687.79
5687.64
5687.57
5687.56
5687.61
5688.88
5688.44
5688.12
5687.9
5687.75
5687.69
5687.69
5687.75
5688.88
5688.51
5688.24
5688.03
5687.9
5687.84
5687.85
5687.91
5688.58
5688.31
5688.13
5688.02
5687.96
5687.94
5687.99
5688.06
5692.31
5692.22
5692.16
5692.13
5692.13
5692.15
5690.85
5687.15
5692.43
5692.3
5692.21
5692.16
5692.14
5692.15
5692.18
5692.23
5692.56
5692.38
5692.27
5692.2
5692.17
5692.18
5692.21
5692.28
5692.67
5692.47
5692.34
5692.27
5692.23
5692.24
5692.29
5692.36
5692.71
5692.53
5692.41
5692.34
5692.31
5692.33
5692.38
5692.47
5692.7
5692.57
5692.49
5692.44
5692.42
5692.44
5692.5
5692.59
5692.48
5692.39
5692.4
5692.42
5692.4
5692.46
5692.56
5692.69
5696.74
5696.77
5696.8
5696.84
5696.89
5696.94
5695.51
5693.05
5696.8
5696.8
5696.82
5696.85
5696.89
5696.94
5697
5697.07
5696.85
5696.84
5696.85
5696.87
5696.9
5696.96
5697.03
5697.12
5696.91
5696.89
5696.89
5696.91
5696.95
5697.01
5697.09
5697.18
5696.94
5696.93
5696.94
5696.97
5697.01
5697.08
5697.17
5697.27
5697
5697.01
5697.03
5697.07
5697.12
5697.17
5697.28
5697.38
5696.88
5696.9
5696.98
5697.06
5696.93
5697.03
5697.14
5697.47
5701.88
5701.88
5701.89
5701.91
5701.94
5701.98
5700.34
5698.85
5701.95
5701.92
5701.91
5701.91
5701.93
5701.97
5702.04
5702.12
5702.04
5701.97
5701.94
5701.92
5701.94
5701.98
5702.05
5702.14
5702.13
5702.03
5701.98
5701.96
5701.97
5702.02
5702.09
5702.19
5702.17
5702.07
5702.03
5702.01
5702.03
5702.08
5702.16
5702.26
5702.24
5702.16
5702.12
5702.11
5702.13
5702.17
5702.26
5702.36
5702.12
5702.06
5702.08
5702.12
5701.87
5701.75
5701.74
5702.41
5707.09
5707.07
5707.06
5707.06
5707.09
5707.13
5705.37
5704.59
5707.16
5707.09
5707.06
5707.05
5707.06
5707.1
5707.17
5707.24
5707.22
5707.12
5707.06
5707.04
5707.05
5707.09
5707.16
5707.25
5707.27
5707.15
5707.08
5707.05
5707.05
5707.09
5707.17
5707.27
5707.3
5707.18
5707.11
5707.07
5707.08
5707.12
5707.2
5707.3
5707.35
5707.23
5707.16
5707.14
5707.15
5707.2
5707.28
5707.37
5707.17
5707.1
5707.1
5707.13
5706.91
5706.34
5706.45
5707.31
5712.15
5712.13
5712.13
5712.15
5712.18
5712.24
5710.53
5710.27
5712.15
5712.11
5712.11
5712.12
5712.15
5712.2
5712.28
5712.36
5712.14
5712.09
5712.08
5712.09
5712.12
5712.18
5712.26
5712.36
5712.15
5712.09
5712.07
5712.08
5712.11
5712.17
5712.26
5712.36
5712.14
5712.08
5712.06
5712.07
5712.11
5712.17
5712.27
5712.37
5712.14
5712.09
5712.08
5712.09
5712.13
5712.2
5712.3
5712.39
5711.96
5711.94
5711.99
5712.05
5711.93
5710.94
5711.46
5712.3
5717.27
5717.25
5717.24
5717.25
5717.28
5717.34
5715.88
5715.83
5717.27
5717.24
5717.23
5717.24
5717.27
5717.32
5717.39
5717.48
5717.27
5717.23
5717.22
5717.23
5717.26
5717.31
5717.4
5717.49
5717.31
5717.24
5717.22
5717.23
5717.26
5717.32
5717.41
5717.51
5717.32
5717.25
5717.23
5717.24
5717.27
5717.34
5717.43
5717.53
5717.32
5717.26
5717.25
5717.27
5717.31
5717.37
5717.47
5717.56
5717.2
5717.18
5717.21
5717.25
5717.2
5716.13
5716.87
5717.51
5722.56
5722.49
5722.44
5722.41
5722.4
5722.43
5721.33
5721.32
5722.64
5722.54
5722.47
5722.43
5722.41
5722.43
5722.49
5722.55
5722.75
5722.61
5722.52
5722.46
5722.44
5722.46
5722.52
5722.59
5722.86
5722.69
5722.58
5722.52
5722.49
5722.51
5722.57
5722.64
5722.93
5722.75
5722.64
5722.58
5722.56
5722.57
5722.64
5722.71
5723
5722.82
5722.72
5722.66
5722.65
5722.67
5722.73
5722.8
5722.96
5722.83
5722.75
5722.71
5722.67
5721.98
5722.54
5722.83
5727.66
5727.55
5727.46
5727.39
5727.36
5727.35
5726.54
5726.55
5727.81
5727.65
5727.53
5727.44
5727.38
5727.36
5727.39
5727.43
5727.98
5727.78
5727.62
5727.5
5727.43
5727.41
5727.43
5727.49
5728.13
5727.9
5727.72
5727.59
5727.51
5727.48
5727.51
5727.55
5728.23
5728
5727.82
5727.69
5727.61
5727.58
5727.61
5727.65
5728.33
5728.09
5727.93
5727.82
5727.75
5727.73
5727.69
5727.79
5728.28
5728.1
5727.98
5727.9
5727.86
5727.74
5727.82
5727.89
5732.23
5732.13
5732.07
5732.02
5731.99
5731.98
5731.42
5731.4
5732.38
5732.24
5732.13
5732.05
5732
5731.99
5732.01
5732.05
5732.53
5732.34
5732.19
5732.09
5732.03
5732.01
5732.03
5732.08
5732.66
5732.44
5732.28
5732.17
5732.09
5732.06
5732.08
5732.11
5732.74
5732.53
5732.37
5732.25
5732.18
5732.14
5732.16
5732.18
5732.79
5732.6
5732.46
5732.36
5732.3
5732.2
5732.12
5732.31
5732.66
5732.53
5732.46
5732.41
5732.39
5732.39
5732.31
5732.41
5543.49
5668.76
5667.9
5666.94
5666.19
5665.7
5665.5
5665.51
5340.43
5620.21
5668.82
5667.66
5666.68
5666.02
5665.71
5665.6
5375.06
5545.66
5669.38
5668.15
5666.97
5666.13
5665.73
5664.21
5275.95
5598.93
5669.32
5667.91
5666.68
5665.69
5664.87
5662.8
5450.41
5669.56
5668.23
5666.9
5665.79
5664.5
5664.24
5662.13
5660.64
5668.14
5666.81
5665.68
5664.4
5663.66
5663.48
5663.79
5667.85
5666.75
5665.65
5664.71
5663.97
5663.52
5663.29
5663.25
5397.79
5666.01
5666.34
5666.5
5666.55
5666.6
5666.71
5666.88
4539.24
5515.86
5666.19
5666.4
5666.49
5666.55
5666.64
5666.63
4417.07
5327.85
5666.99
5666.83
5666.69
5666.58
5666.66
5664.31
4636.85
5474.56
5667.17
5666.91
5666.66
5666.37
5666.14
5664.14
5165.82
5666.89
5666.92
5666.66
5666.4
5665.79
5665.99
5663.84
5647.7
5667.04
5666.7
5666.38
5665.43
5665.63
5665.51
5666
5667.11
5666.89
5666.47
5666.12
5665.85
5665.73
5665.69
5665.75
5225.23
5665.12
5666.02
5666.81
5667.44
5667.96
5668.4
5668.79
3793.15
5408.72
5665.53
5666.41
5667.12
5667.71
5668.18
5668.3
3569
5074.82
5665.15
5666.09
5666.85
5667.45
5668.05
5665.99
3716.51
5311.8
5665.3
5666.18
5666.89
5667.35
5667.78
5665.91
4821.01
5663.48
5665.83
5666.56
5667.12
5667.5
5667.89
5666.11
5614.5
5665.74
5666.43
5666.95
5666.65
5667.42
5667.72
5668.36
5665.93
5666.58
5666.98
5667.31
5667.6
5667.84
5668.06
5668.29
5228.27
5672.79
5672.57
5672.66
5672.86
5673.15
5673.52
5673.9
3859.82
5434.84
5672.61
5672.5
5672.66
5672.98
5673.35
5673.42
3473.43
5107.09
5672.1
5672.05
5672.3
5672.66
5673.19
5671.11
3675.62
5321
5671.86
5671.89
5672.17
5672.5
5672.81
5670.89
4833.61
5670.64
5671.81
5671.91
5672.17
5672.44
5672.38
5672.48
5613.63
5671.5
5671.68
5671.76
5671.42
5672.12
5672.6
5673.15
5671.44
5671.63
5671.84
5672.07
5672.24
5672.46
5672.71
5672.95
5302.39
5680.2
5679.82
5679.61
5679.52
5679.6
5679.84
5680.17
4543.65
5513.68
5680.55
5679.98
5679.73
5679.72
5679.88
5679.84
4019.54
5306.86
5680.32
5679.82
5679.62
5679.61
5679.86
5677.52
4190.42
5439.29
5680.34
5679.75
5679.48
5679.45
5679.41
5677.29
5074.99
5680.29
5679.71
5679.3
5678.93
5678.94
5677.59
5679.27
5633.79
5679.27
5678.99
5678.4
5677.92
5678.39
5678.73
5679.19
5679.11
5678.86
5678.69
5678.57
5678.48
5678.5
5678.64
5678.82
5283.05
5681.74
5685.19
5685.1
5685.03
5685.07
5685.27
5685.54
5008.91
5474.71
5685.84
5685.58
5685.35
5685.29
5685.35
5685.25
4825.63
5314.46
5685.45
5685.74
5685.48
5685.34
5685.46
5682.91
4666.7
5451.5
5686.07
5685.69
5685.35
5685.2
5684.93
5683.05
5159.48
5683.29
5685.58
5685.21
5684.33
5684.32
5683.1
5684.78
5647.33
5685.25
5684.95
5684.16
5683.64
5684.08
5684.23
5684.66
5685.22
5684.93
5684.64
5684.38
5684.17
5684.09
5684.15
5684.28
5106.45
5682.74
5689.44
5689.4
5689.39
5689.47
5689.65
5689.89
4574.74
5281.54
5689.75
5689.61
5689.49
5689.5
5689.54
5689.55
4594.16
5080.45
5688.97
5689.7
5689.51
5689.47
5689.61
5687.86
4449.12
5333.86
5689.87
5689.64
5689.4
5689.36
5688.2
5689.15
5019.82
5680.93
5689.53
5689.33
5688.39
5688.25
5687.37
5689.15
5643.61
5689.38
5689.21
5688.51
5688.05
5688.67
5688.64
5689.14
5689.5
5689.34
5689.11
5688.91
5688.74
5688.7
5688.76
5688.7
4928.86
5687.99
5692.89
5693.04
5693.2
5693.39
5693.63
5693.9
3529.46
5149.54
5692.72
5692.84
5693.01
5693.22
5693.38
5693.69
3535.86
4814.94
5692.72
5692.76
5692.86
5693.06
5692.95
5693.5
3683.53
5154.41
5692.91
5692.86
5692.86
5693.04
5691.39
5693.42
4759.05
5676.45
5692.77
5692.8
5692.02
5692.08
5691.29
5693.27
5623.62
5692.71
5692.76
5692.28
5691.96
5692.74
5692.69
5692.25
5692.88
5692.92
5692.89
5692.83
5692.82
5692.89
5693.02
5691.99
4935.47
5693.89
5697.43
5697.61
5697.78
5697.98
5698.23
5698.49
3383.5
5176.33
5697.4
5697.45
5697.61
5697.82
5698.09
5698.44
3100.64
4828.74
5697.42
5697.34
5697.45
5697.68
5696.15
5698.19
3422.62
5138.26
5697.35
5697.31
5697.37
5697.62
5695.99
5698.15
4717.24
5675.07
5697.14
5697.25
5696.6
5696.89
5695.89
5697.99
5612.37
5696.89
5697.09
5696.72
5696.68
5697.2
5697.32
5694.09
5696.97
5697.12
5697.21
5697.27
5697.37
5697.47
5697.66
5695.89
4991.66
5694.37
5702.89
5702.93
5702.98
5703.1
5703.3
5703.54
3824.58
5257
5703.43
5703.16
5703.08
5703.15
5703
5703.59
3434.31
4984.29
5701.19
5703
5702.98
5703.08
5701.35
5703.35
3651.61
5181.45
5703.24
5702.99
5702.86
5703.01
5701.25
5703.51
4769.63
5673.95
5702.88
5702.78
5702.46
5702.58
5701.34
5702.68
5615.36
5702.48
5702.59
5702.08
5702.55
5702.25
5702.46
5698.78
5702.57
5702.58
5702.56
5702.54
5702.57
5702.58
5702.75
5700.94
4937.77
5676.19
5707.45
5707.57
5707.66
5707.79
5708
5708.25
4505.33
5191.94
5703.65
5708.02
5707.93
5707.98
5706.22
5708.34
4327.08
4972.88
5688.04
5708.11
5708.01
5708.03
5706.2
5708.2
3875.61
5144.92
5708.24
5708.06
5707.9
5707.98
5707.7
5708.46
4737.87
5660.36
5707.87
5707.51
5707.76
5707.7
5707.18
5704.64
5613.54
5707.25
5707.64
5707.39
5707.62
5707.21
5707.4
5703.6
5707.69
5707.69
5707.64
5707.59
5707.58
5707.55
5707.71
5706.15
4643.72
5641.51
5711.23
5711.6
5711.9
5712.18
5712.48
5712.8
4334.31
4810.37
5699.68
5711.71
5711.94
5712.19
5710.96
5712.8
4232.44
4599.87
5667.51
5711.72
5711.93
5712.19
5710.7
5712.71
3627.93
4885.55
5711.65
5711.89
5712.04
5712.25
5712.55
5712.92
4511.06
5625.02
5711.68
5711.54
5712.03
5712.12
5712.14
5708.29
5594.78
5710.61
5711.88
5712.01
5712.14
5711.8
5712.12
5708.19
5711.96
5712.13
5712.18
5712.21
5712.27
5712.3
5712.49
5711.51
4348.91
5638.05
5717.02
5717.18
5717.39
5717.61
5717.9
5718.23
3263.48
4485.14
5710.44
5716.96
5717.17
5717.3
5717.67
5718.16
3144.4
4132.56
5671.97
5716.67
5716.92
5717.23
5717.45
5718.06
2998.79
4581.96
5716.91
5716.93
5717.06
5717.29
5717.65
5718.07
4289.99
5597.43
5716.84
5716.61
5717.1
5717.1
5717.28
5713.36
5586.31
5715.31
5716.99
5717.11
5717.24
5716.91
5717.4
5713.25
5717.13
5717.24
5717.27
5717.31
5717.38
5717.45
5717.64
5717.24
4383.21
5657.96
5724.56
5724.17
5723.98
5723.94
5724.07
5724.3
2864.29
4555.34
5724.81
5724.26
5723.92
5723.65
5724.07
5724.39
2667.19
4164.86
5688.53
5724.16
5723.76
5723.65
5723.92
5724.29
2909.8
4604.97
5724.7
5723.93
5723.61
5723.54
5723.77
5723.45
4334.32
5605.47
5723.81
5723.41
5723.35
5723.04
5723.15
5719.09
5603.43
5722
5723.32
5723.2
5723.16
5723.04
5723.33
5718.85
5723.43
5723.31
5723.19
5723.11
5723.08
5723.12
5723.23
5723.19
4629.09
5677.49
5729.68
5729.42
5729.24
5729.19
5729.26
5729.43
3383.49
4893.56
5727.26
5729.76
5729.44
5729.11
5729.45
5729.7
3157.06
4567.77
5700.77
5729.81
5729.47
5729.28
5729.46
5729.74
3347.74
4853.92
5730.15
5729.62
5729.32
5729.18
5729.31
5725.79
4584.82
5635.47
5729.47
5729.18
5729
5728.62
5728.42
5724.33
5640.7
5727.95
5728.96
5728.79
5728.69
5728.67
5728.74
5725.62
5729
5728.84
5728.7
5728.58
5728.49
5728.46
5728.51
5728.55
4715.99
5674.86
5733.04
5733.08
5733.09
5733.12
5733.21
5733.34
4547.72
5008.24
5723.91
5733.59
5733.44
5733.26
5733.46
5733.63
4458.47
4794.29
5705.51
5733.74
5733.61
5733.51
5733.6
5733.77
3990.42
4981.05
5732.9
5733.69
5733.55
5733.45
5733.53
5728.7
4662.51
5654.99
5733.48
5733.41
5733.33
5733.04
5732.22
5728.45
5661.17
5732.33
5733.23
5733.17
5733.11
5733.1
5732.35
5732.13
5733.19
5733.15
5733.09
5733.02
5732.94
5732.93
5732.29
5732.97
5667.09
5665.79
5664.69
5663.81
5663.15
5662.71
5662.48
5662.4
5667.65
5665.89
5664.52
5663.46
5662.68
5662.14
5661.84
5661.71
5667.33
5665.44
5664.03
5662.91
5662.08
5661.52
5661.18
5660.73
5666.39
5664.65
5663.31
5662.25
5661.48
5660.95
5660.51
5659.91
5665.2
5663.7
5662.51
5661.59
5660.92
5660.45
5659.98
5658.06
5663.93
5662.72
5661.75
5661
5660.47
5660.08
5658.88
5655.59
5662.8
5661.92
5661.17
5660.59
5660.15
5659.84
5657.73
5648.93
5666.42
5666.03
5665.73
5665.49
5665.3
5665.19
5665.16
5665.19
5666.92
5666.3
5665.8
5665.4
5665.1
5664.91
5664.8
5664.79
5666.92
5666.16
5665.55
5665.09
5664.75
5664.53
5664.39
5663.78
5666.52
5665.79
5665.2
5664.75
5664.42
5664.2
5663.97
5663.89
5665.99
5665.33
5664.81
5664.41
5664.12
5663.91
5663.41
5658.49
5665.39
5664.84
5664.42
5664.1
5663.86
5663.69
5662.49
5654.3
5664.89
5664.49
5664.15
5663.9
5663.72
5663.59
5660.14
5652.53
5665.61
5666.14
5666.62
5667
5667.3
5667.56
5667.78
5667.95
5665.49
5666.19
5666.69
5667.03
5667.28
5667.48
5667.64
5667.78
5665.69
5666.26
5666.67
5666.93
5667.17
5667.34
5667.45
5666.99
5665.95
5666.4
5666.72
5666.96
5667.13
5667.25
5667.27
5667.37
5666.22
5666.55
5666.8
5666.98
5667.11
5667.2
5666.52
5657.98
5666.41
5666.66
5666.85
5666.99
5667.1
5667.18
5665.82
5656.05
5666.62
5666.79
5666.92
5667.02
5667.11
5667.17
5661.43
5656.01
5671.21
5671.31
5671.52
5671.73
5671.95
5672.17
5672.38
5672.57
5670.95
5671.2
5671.44
5671.61
5671.83
5672.02
5672.2
5672.35
5670.92
5671.12
5671.33
5671.48
5671.69
5671.86
5671.99
5671.77
5670.97
5671.15
5671.33
5671.5
5671.64
5671.77
5671.77
5671.82
5671.02
5671.2
5671.37
5671.51
5671.64
5671.75
5670.51
5660.81
5671.09
5671.25
5671.4
5671.53
5671.64
5671.73
5669.55
5660.37
5671.23
5671.37
5671.48
5671.57
5671.65
5671.65
5664.91
5662.33
5678.91
5678.5
5678.27
5678.12
5678.06
5678.09
5678.2
5678.33
5678.85
5678.42
5678.13
5677.89
5677.83
5677.82
5677.88
5677.93
5678.65
5678.21
5677.91
5677.66
5677.59
5677.55
5677.57
5677.66
5678.37
5677.98
5677.7
5677.52
5677.41
5677.36
5677.09
5674.66
5678.02
5677.71
5677.5
5677.36
5677.27
5677.24
5675.78
5668.52
5677.7
5677.48
5677.33
5677.22
5677.15
5677.12
5672.57
5667.33
5677.49
5677.36
5677.24
5677.14
5677.08
5676.93
5670.04
5669.33
5684.93
5684.46
5684.13
5683.88
5683.72
5683.67
5683.7
5683.78
5685.05
5684.48
5684.05
5683.67
5683.48
5683.39
5683.37
5683.36
5684.86
5684.26
5683.79
5683.43
5683.21
5683.08
5683.04
5683.09
5684.51
5683.96
5683.53
5683.2
5682.98
5682.85
5682.25
5677.79
5684.09
5683.61
5683.24
5682.97
5682.78
5682.67
5681.45
5679.71
5683.67
5683.29
5682.99
5682.76
5682.61
5682.48
5675.62
5677.68
5683.34
5683.07
5682.83
5682.64
5682.51
5682.35
5676.34
5670.87
5689.07
5688.79
5688.6
5688.44
5688.37
5688.37
5688.42
5688.48
5689.41
5689
5688.65
5688.37
5688.25
5688.19
5688.19
5688.18
5689.36
5688.87
5688.45
5688.21
5688.04
5687.96
5687.93
5687.98
5689.11
5688.64
5688.29
5688.03
5687.86
5687.77
5687.04
5682.61
5688.79
5688.38
5688.06
5687.84
5687.7
5687.62
5686.77
5686.96
5688.45
5688.11
5687.86
5687.68
5687.56
5687.39
5680.16
5681.49
5688.17
5687.92
5687.72
5687.58
5687.49
5687.41
5682.54
5675.61
5692.51
5692.44
5692.44
5692.46
5692.57
5692.67
5692.79
5692.88
5692.8
5692.67
5692.56
5692.5
5692.55
5692.59
5692.66
5692.71
5692.82
5692.63
5692.46
5692.44
5692.42
5692.44
5692.48
5692.57
5692.73
5692.54
5692.43
5692.36
5692.33
5692.34
5691.78
5687.92
5692.6
5692.44
5692.33
5692.27
5692.24
5692.25
5690.89
5692.17
5692.46
5692.32
5692.24
5692.2
5692.19
5692.03
5684.68
5683.38
5692.34
5692.25
5692.19
5692.16
5692.16
5692.15
5687.35
5680.1
5696.76
5696.79
5696.9
5696.97
5697.15
5697.3
5697.44
5697.58
5696.84
5696.89
5696.92
5697
5697.13
5697.22
5697.33
5697.44
5696.82
5696.85
5696.86
5696.96
5697.03
5697.1
5697.15
5697.19
5696.82
5696.84
5696.87
5696.92
5696.97
5697.04
5697.01
5696.38
5696.81
5696.82
5696.85
5696.88
5696.93
5696.98
5692.01
5697.07
5696.77
5696.79
5696.83
5696.87
5696.92
5696.77
5689.7
5686.77
5696.76
5696.8
5696.83
5696.87
5696.91
5696.96
5691.57
5684.65
5702.39
5702.26
5702.22
5702.21
5702.3
5702.39
5702.5
5702.62
5702.4
5702.29
5702.19
5702.18
5702.23
5702.28
5702.36
5702.46
5702.29
5702.18
5702.1
5702.09
5702.1
5702.14
5702.12
5701.5
5702.18
5702.09
5702.04
5702.02
5702.03
5702.06
5702.14
5702.22
5702.06
5702
5701.97
5701.97
5701.98
5702.02
5696.7
5702.12
5701.96
5701.93
5701.94
5701.95
5701.98
5701.73
5695.73
5691.77
5701.9
5701.91
5701.92
5701.93
5701.96
5702
5694.64
5689.41
5707.49
5707.35
5707.27
5707.28
5707.35
5707.41
5707.51
5707.61
5707.61
5707.45
5707.31
5707.29
5707.29
5707.32
5707.4
5707.5
5707.53
5707.36
5707.26
5707.21
5707.19
5707.22
5707.16
5706.22
5707.4
5707.27
5707.19
5707.15
5707.14
5707.14
5707.22
5705.78
5707.28
5707.18
5707.13
5707.11
5707.11
5707.14
5704.13
5706.04
5707.18
5707.13
5707.11
5707.1
5707.11
5706.66
5702.78
5699.53
5707.13
5707.11
5707.09
5707.09
5707.11
5707.15
5697.63
5694.26
5711.86
5711.87
5711.9
5712.02
5712.14
5712.25
5712.38
5712.5
5712.14
5712.1
5712.05
5712.12
5712.17
5712.24
5712.35
5712.46
5712.18
5712.1
5712.09
5712.09
5712.13
5712.2
5712.18
5711.38
5712.16
5712.1
5712.09
5712.1
5712.13
5712.17
5712.27
5707.91
5712.15
5712.11
5712.1
5712.11
5712.14
5712.19
5707.88
5710.07
5712.16
5712.14
5712.13
5712.14
5712.17
5711.24
5710.91
5708.07
5712.17
5712.16
5712.16
5712.17
5712.21
5712.26
5701.59
5699.08
5717.13
5717.1
5717.11
5717.19
5717.28
5717.41
5717.55
5717.68
5717.27
5717.18
5717.16
5717.23
5717.29
5717.39
5717.51
5717.62
5717.26
5717.18
5717.17
5717.2
5717.25
5717.33
5717.37
5716.9
5717.24
5717.18
5717.17
5717.19
5717.23
5717.3
5717.39
5712.86
5717.23
5717.2
5717.19
5717.19
5717.22
5717.28
5706.17
5715.13
5717.25
5717.23
5717.21
5717.22
5717.25
5716.21
5715.25
5713.63
5717.27
5717.26
5717.25
5717.27
5717.3
5717.35
5705.28
5703.88
5723.38
5723.13
5722.97
5722.89
5722.88
5722.93
5723.03
5723.13
5723.25
5722.99
5722.84
5722.77
5722.76
5722.79
5722.87
5722.96
5723.06
5722.84
5722.72
5722.65
5722.63
5722.65
5722.72
5722.71
5722.9
5722.72
5722.61
5722.55
5722.53
5722.55
5721.04
5717.95
5722.76
5722.62
5722.52
5722.46
5722.44
5722.45
5709.4
5720.5
5722.64
5722.54
5722.46
5722.41
5722.4
5721.49
5709.33
5718.3
5722.56
5722.5
5722.45
5722.42
5722.42
5722.45
5708.9
5708.65
5728.93
5728.63
5728.41
5728.27
5728.21
5728.19
5728.22
5728.28
5728.77
5728.47
5728.26
5728.11
5728.02
5727.99
5728
5728.05
5728.5
5728.25
5728.06
5727.91
5727.82
5727.78
5727.79
5727.84
5728.27
5728.05
5727.88
5727.74
5727.66
5727.62
5721.94
5725.22
5728.05
5727.86
5727.71
5727.59
5727.52
5727.44
5718.89
5725.74
5727.85
5727.69
5727.57
5727.47
5727.41
5726.44
5713.72
5722.54
5727.68
5727.58
5727.48
5727.42
5727.38
5727.38
5713.66
5713.27
5733.03
5732.88
5732.81
5732.75
5732.71
5732.7
5732.71
5732.74
5733.08
5732.91
5732.77
5732.66
5732.59
5732.55
5732.55
5732.57
5732.97
5732.78
5732.62
5732.5
5732.42
5732.37
5732.38
5732.4
5732.82
5732.63
5732.48
5732.37
5732.29
5732.26
5726.08
5731.96
5732.63
5732.46
5732.33
5732.24
5732.18
5732.13
5730.73
5730.08
5732.43
5732.29
5732.2
5732.12
5732.08
5731.08
5718.09
5726.98
5732.26
5732.17
5732.1
5732.05
5732.03
5732.03
5720.13
5717.63
5659.49
5658.57
5657.78
5657.13
5656.58
5656.36
5656.18
5651.27
5661.14
5659.83
5658.77
5657.78
5656.38
5656.12
5651.02
5650.74
5663.02
5661.56
5660.18
5659.05
5657.98
5657.19
5655.28
5651.47
5627.8
5663.49
5661.73
5660.35
5659.32
5658.51
5658.26
5653.29
5662.66
5661.19
5660.1
5659.36
5659.12
5659.13
5659.62
5659.81
5664.82
5663.89
5663.01
5662.3
5661.77
5661.44
5660.85
5657
5666.35
5665.12
5664.02
5662.9
5661.55
5660.93
5655.61
5655.57
5668.05
5666.71
5665.39
5664.27
5662.73
5661.41
5656.7
5657.71
5619.41
5668.21
5666.74
5665.44
5664.39
5663.43
5663.23
5657.46
5475.88
5669.28
5667.78
5666.39
5665.29
5664.52
5664.16
5663.72
5489.67
5669.39
5668.02
5666.75
5665.77
5665.09
5664.79
5664.75
5614.92
5668.75
5667.68
5666.68
5665.91
5665.4
5665.18
5665.17
5665.45
5665.19
5664.89
5664.64
5664.48
5664.39
5663.05
5662.63
5665.74
5665.44
5665.15
5664.59
5664.2
5662.87
5658.31
5658.4
5665.92
5665.77
5665.52
5665.29
5664.36
5662.84
5658.72
5663.26
5557.46
5665.83
5665.75
5665.59
5665.41
5664.99
5664.58
5659.56
5190.55
5665.92
5666
5665.92
5665.82
5665.75
5665.82
5662.41
5181.36
5665.79
5666.09
5666.16
5666.14
5666.11
5666.2
5666.35
5525.42
5665.48
5665.94
5666.14
5666.25
5666.34
5666.46
5666.6
5666.25
5666.63
5666.9
5667.11
5667.29
5667.4
5665.97
5666.87
5665.64
5666.16
5666.59
5666.6
5666.92
5664.51
5663.57
5661.4
5664.32
5665.64
5666.25
5666.75
5666.4
5665.44
5661.31
5666.66
5486.64
5664.94
5665.8
5666.48
5666.98