/*--------------------------------*- C++ -*----------------------------------*\
| =========                 |                                                 |
| \\      /  F ield         | OpenFOAM: The Open Source CFD Toolbox           |
|  \\    /   O peration     | Version:  plus.master.MPPICInterFoam            |
|   \\  /    A nd           | Web:      www.OpenFOAM.com                      |
|    \\/     M anipulation  |                                                 |
\*---------------------------------------------------------------------------*/
FoamFile
{
    version     2.0;
    format      ascii;
    class       surfaceScalarField;
    location    "11.4";
    object      phi;
}
// * * * * * * * * * * * * * * * * * * * * * * * * * * * * * * * * * * * * * //

dimensions      [0 3 -1 0 0 0 0];

internalField   nonuniform List<scalar> 
34018
(
4.04172e-07
6.09286e-06
2.33658e-07
3.17413e-07
6.59856e-07
7.56754e-06
5.0921e-07
5.99604e-06
2.00406e-07
2.59301e-07
8.49053e-06
8.90122e-07
1.91408e-07
7.02316e-06
6.81254e-07
5.61401e-06
1.37946e-07
5.19317e-07
-5.31732e-07
1.07591e-07
7.36655e-06
4.93421e-07
-5.26825e-08
-4.67155e-07
3.69461e-08
7.54898e-06
-4.38889e-08
-3.60442e-07
4.20836e-09
7.31122e-06
-2.14409e-08
-2.80734e-07
5.72468e-08
6.69962e-06
-3.81295e-08
-2.15079e-07
8.49775e-08
5.83093e-06
-5.34285e-08
-1.5611e-07
9.54644e-08
4.84489e-06
-6.42789e-08
1.05978e-07
3.83963e-06
-1.0386e-07
-8.23652e-08
-6.9204e-07
1.26461e-07
9.02438e-06
6.31967e-07
-5.4604e-07
-5.39563e-08
9.30943e-06
-3.67864e-07
-7.42431e-08
9.02454e-06
-2.83289e-07
7.8995e-08
8.18446e-06
-2.19238e-07
1.25822e-07
7.04245e-06
-1.61185e-07
1.40001e-07
5.80992e-06
1.45457e-07
4.60499e-06
-1.10966e-07
-8.39193e-07
6.8768e-08
1.08846e-05
8.1125e-07
-5.94727e-07
-1.91074e-07
1.18563e-05
-3.01562e-07
-1.17505e-07
1.13484e-05
-2.17984e-07
1.22388e-07
9.77116e-06
-1.79756e-07
2.03485e-07
8.20547e-06
-1.417e-07
2.15278e-07
6.69078e-06
2.06781e-07
5.2774e-06
-1.01324e-07
-1.30408e-06
2.86717e-07
1.26554e-05
1.16783e-06
-6.10111e-07
3.57334e-07
1.48087e-05
-5.08751e-08
3.78046e-07
1.4433e-05
-5.51838e-08
4.35646e-07
1.13279e-05
-1.04897e-07
3.91738e-07
9.11653e-06
-1.08907e-07
3.42823e-07
7.34517e-06
2.91068e-07
5.76949e-06
-8.64968e-08
-1.32164e-06
8.4547e-07
1.29641e-05
1.36886e-06
-5.53833e-07
1.04613e-06
1.55301e-05
-1.05361e-08
9.88861e-07
1.53616e-05
-5.19769e-08
6.66421e-07
1.2122e-05
-1.14621e-07
5.70217e-07
9.50577e-06
-1.17584e-07
4.53384e-07
7.63449e-06
3.60492e-07
5.99641e-06
-9.04002e-08
-1.10874e-06
7.85748e-07
1.23698e-05
1.00128e-06
-5.12344e-07
1.17536e-06
1.35832e-05
-2.10839e-07
1.10158e-06
1.35218e-05
-1.95823e-07
7.79997e-07
1.12635e-05
-1.96048e-07
5.86068e-07
9.28343e-06
-1.55954e-07
4.82744e-07
7.49809e-06
3.8339e-07
5.92148e-06
-1.04295e-07
-7.05713e-07
1.09218e-05
5.9715e-07
4.70808e-07
-5.64662e-07
1.16435e-05
6.81785e-07
-4.12037e-07
1.13727e-05
6.92747e-07
-3.51613e-07
1.00872e-05
5.61049e-07
-2.71449e-07
8.51051e-06
4.86138e-07
-1.8347e-07
6.98646e-06
4.31577e-07
5.56462e-06
-9.78428e-08
3.47268e-07
-4.0194e-07
5.13324e-07
7.24851e-06
2.9987e-07
-2.93266e-07
-4.59969e-07
5.61615e-07
7.40549e-06
-3.59551e-07
-4.37628e-07
4.54243e-07
7.14727e-06
-3.12478e-07
-3.868e-07
3.76787e-07
6.52801e-06
-2.56126e-07
-3.09371e-07
2.85723e-07
5.66581e-06
-1.98297e-07
-2.24958e-07
2.13429e-07
4.70191e-06
-1.54438e-07
1.70087e-07
3.72878e-06
-1.4814e-07
-1.35536e-07
-5.20236e-07
6.62228e-07
9.03705e-06
3.58676e-07
-6.12999e-07
6.62784e-07
9.30136e-06
-5.52464e-07
4.61806e-07
8.95649e-06
-4.9613e-07
4.6442e-07
8.04084e-06
-3.95985e-07
3.6447e-07
6.86352e-06
-2.82716e-07
2.70962e-07
5.63908e-06
2.11028e-07
4.46731e-06
-1.85483e-07
-8.7525e-07
6.13789e-07
1.13848e-05
4.23935e-07
-7.07369e-07
2.28191e-07
1.21236e-05
-5.5116e-07
1.37275e-07
1.15173e-05
-5.67403e-07
4.56352e-07
9.79613e-06
-4.69133e-07
4.18462e-07
8.0535e-06
-3.33305e-07
3.21889e-07
6.50412e-06
2.52051e-07
5.11898e-06
-2.15832e-07
-1.59538e-06
7.04275e-07
1.34756e-05
6.85013e-07
-8.82151e-07
7.94042e-07
1.35294e-05
-2.36589e-07
7.40003e-07
1.31849e-05
-5.42813e-07
6.03285e-07
1.14878e-05
-5.22312e-07
4.95938e-07
9.01825e-06
-3.76255e-07
3.68199e-07
7.15296e-06
2.86415e-07
5.59981e-06
-2.40917e-07
-1.64359e-06
7.03721e-07
1.39656e-05
6.42747e-07
-1.0228e-06
1.33763e-06
1.43658e-05
-3.37443e-07
1.45093e-06
1.39651e-05
-6.69663e-07
7.92531e-07
1.22651e-05
-6.07063e-07
4.73059e-07
9.46632e-06
-4.21803e-07
3.66618e-07
7.45076e-06
2.91732e-07
5.82914e-06
-2.59951e-07
-9.61989e-07
2.53158e-07
1.34283e-05
3.54575e-07
-9.49666e-07
5.9181e-07
1.43173e-05
-6.95676e-07
7.12375e-07
1.40064e-05
-7.74196e-07
4.10411e-07
1.17241e-05
-6.31656e-07
3.32935e-07
9.28109e-06
-4.15995e-07
3.13529e-07
7.33544e-06
2.7025e-07
5.77153e-06
-2.44468e-07
-4.65011e-07
1.15178e-05
1.7961e-07
-5.70869e-08
-7.08084e-07
1.24845e-05
-5.40795e-09
-7.99528e-07
1.20941e-05
8.27483e-08
-7.51545e-07
1.03518e-05
9.81719e-08
-5.5561e-07
8.44978e-06
1.97803e-07
-3.568e-07
6.84785e-06
2.53377e-07
5.44314e-06
-1.92791e-07
2.27845e-07
-2.99456e-07
3.38714e-07
7.09708e-06
2.5917e-07
-1.46929e-07
-3.85473e-07
5.20849e-07
7.21973e-06
-2.48741e-07
-3.72002e-07
3.86717e-07
6.94974e-06
-2.02736e-07
-3.02979e-07
2.65235e-07
6.33681e-06
-1.4306e-07
-2.16517e-07
1.8591e-07
5.49802e-06
-1.0478e-07
-1.36302e-07
1.3406e-07
4.57016e-06
-8.23071e-08
1.084e-07
3.63649e-06
-7.27614e-08
-7.94817e-08
-3.25433e-07
4.92895e-07
8.91199e-06
2.96364e-07
-5.46782e-07
8.78837e-07
9.16476e-06
-5.05596e-07
5.24255e-07
8.77761e-06
-4.09484e-07
3.93055e-07
7.8171e-06
-2.86115e-07
2.79153e-07
6.64671e-06
-1.73043e-07
1.96244e-07
5.46426e-06
1.50315e-07
4.34398e-06
-9.10911e-08
-6.53189e-07
5.60419e-07
1.16336e-05
3.37089e-07
-5.38882e-07
7.47669e-07
1.21408e-05
-5.84823e-07
5.91106e-07
1.14966e-05
-5.05709e-07
4.46553e-07
9.66422e-06
-3.48561e-07
3.57957e-07
7.8178e-06
-2.05941e-07
2.61975e-07
6.2958e-06
1.9793e-07
4.96984e-06
-1.04405e-07
-6.49489e-07
5.2635e-07
1.38248e-05
3.3435e-07
-7.26671e-07
5.20892e-07
1.38333e-05
-6.84334e-07
3.50362e-07
1.33832e-05
-5.88798e-07
3.14913e-07
1.15241e-05
-4.42253e-07
4.20026e-07
8.80951e-06
-2.51763e-07
2.98906e-07
6.92554e-06
2.32274e-07
5.43471e-06
-1.20974e-07
-9.46124e-07
3.54396e-07
1.47732e-05
3.10377e-07
-9.21598e-07
4.94005e-07
1.43682e-05
-7.17219e-07
5.25029e-07
1.35861e-05
-9.06431e-07
5.80062e-07
1.21893e-05
-5.70337e-07
2.63203e-07
9.28734e-06
-3.01952e-07
2.59808e-07
7.2214e-06
2.30926e-07
5.66326e-06
-1.34782e-07
-6.09155e-07
9.67161e-08
1.4033e-05
2.62253e-07
-8.20193e-07
1.69306e-07
1.48536e-05
-6.59086e-07
2.5837e-07
1.4112e-05
-6.23615e-07
2.60712e-07
1.20081e-05
-4.38663e-07
2.55021e-07
9.10435e-06
-2.36136e-07
2.61303e-07
7.13141e-06
2.37677e-07
5.62605e-06
-9.73771e-08
-3.62819e-07
1.16896e-05
2.05457e-07
8.2475e-08
-5.51446e-07
1.28126e-05
3.07933e-08
-6.11703e-07
1.23512e-05
6.20278e-08
-4.96345e-07
1.03047e-05
1.92684e-07
-3.14688e-07
8.27311e-06
2.5003e-07
-1.63813e-07
6.68534e-06
2.72855e-07
5.33323e-06
-5.15767e-08
2.35257e-07
-3.09146e-07
-1.35287e-07
7.01287e-06
3.59219e-07
1.695e-07
-2.89054e-07
-2.46007e-08
7.10411e-06
1.20203e-07
-2.13773e-07
-7.71862e-08
6.81948e-06
1.32104e-07
-1.15549e-07
-9.86703e-08
6.21227e-06
1.25027e-07
-4.03764e-08
-5.89153e-08
5.39557e-06
8.62906e-08
1.06385e-08
-2.65848e-08
4.49681e-06
4.89004e-08
2.50975e-09
3.59137e-06
4.0651e-08
1.25557e-08
-3.37395e-07
-5.55541e-08
8.72181e-06
4.48095e-07
-3.58317e-07
2.12715e-07
8.94832e-06
-2.66098e-07
6.99142e-08
8.53845e-06
-1.20645e-07
-3.88225e-08
7.6118e-06
-2.49492e-08
2.70825e-09
6.48943e-06
3.15551e-08
2.56509e-08
5.35598e-06
4.2273e-08
4.27669e-06
5.92474e-08
-3.94883e-07
1.41267e-07
1.12766e-05
5.55193e-07
-3.94733e-07
4.29977e-07
1.19236e-05
-3.0433e-07
3.46004e-07
1.113e-05
-9.05751e-08
9.22462e-08
9.31943e-06
1.4635e-08
1.19954e-07
7.59547e-06
6.65869e-08
1.15213e-07
6.15451e-06
1.07022e-07
4.88343e-06
8.83015e-08
-3.03913e-07
6.37467e-08
1.37641e-05
4.42399e-07
-4.60103e-07
1.0061e-07
1.43196e-05
-5.22567e-07
1.9052e-07
1.36012e-05
-1.21782e-07
1.18428e-07
1.10972e-05
1.5268e-08
2.5829e-07
8.53433e-06
8.03358e-08
2.1157e-07
6.76414e-06
1.77353e-07
5.33729e-06
1.07529e-07
-5.73375e-07
2.13469e-07
1.4675e-05
5.22144e-07
-4.53403e-07
8.54232e-08
1.42636e-05
-6.13013e-07
-2.11249e-08
1.39577e-05
-4.4439e-07
2.61496e-07
1.18778e-05
-8.38756e-08
2.00878e-07
8.98435e-06
5.48396e-08
2.36954e-07
7.05736e-06
2.19243e-07
5.56746e-06
1.08831e-07
-5.19533e-07
2.88028e-07
1.38869e-05
5.91304e-07
-4.01943e-07
1.64453e-07
1.46571e-05
-3.48453e-07
1.38375e-07
1.3899e-05
-3.96243e-08
4.15106e-07
1.15458e-05
7.07219e-08
3.72563e-07
8.82227e-06
1.15394e-07
3.32125e-07
6.99158e-06
2.7708e-07
5.54841e-06
1.35152e-07
-3.87388e-07
1.13359e-05
5.11421e-07
5.17717e-07
-3.19592e-07
1.23557e-05
5.53749e-07
-1.63026e-07
1.17748e-05
5.58306e-07
2.47773e-08
9.92618e-06
6.05824e-07
9.69128e-08
8.08967e-06
4.838e-07
1.24629e-07
6.5907e-06
3.98907e-07
5.28605e-06
1.43847e-07
3.04932e-07
-3.38116e-07
-3.0274e-07
6.96857e-06
4.1268e-07
2.72528e-07
-2.48738e-07
-2.82529e-07
7.03031e-06
2.66749e-07
-1.34911e-07
-2.85767e-07
6.73006e-06
2.61416e-07
-3.25354e-08
-2.32898e-07
6.12657e-06
2.16424e-07
3.15205e-08
-1.4527e-07
5.3281e-06
1.48833e-07
6.68143e-08
-8.09984e-08
4.45033e-06
9.19462e-08
-3.55793e-08
3.5646e-06
8.2978e-08
4.60043e-08
-3.88611e-07
-2.86711e-07
8.5607e-06
5.33948e-07
-2.75983e-07
-1.80655e-07
8.7339e-06
-1.26611e-07
-2.23017e-07
8.32651e-06
9.92379e-09
-2.07827e-07
7.45024e-06
7.72044e-08
-1.03892e-07
6.38101e-06
1.05117e-07
-3.75804e-08
5.28485e-06
1.76226e-09
4.23322e-06
1.11062e-07
-3.55117e-07
-9.67521e-08
1.07672e-05
6.74636e-07
-2.90402e-07
1.78362e-07
1.15e-05
-8.54932e-08
5.33469e-08
1.06485e-05
1.11932e-07
-5.60611e-08
8.97021e-06
1.59812e-07
1.99803e-08
7.42367e-06
1.63287e-07
5.69913e-08
6.05661e-06
7.10795e-08
4.82481e-06
1.52745e-07
-2.20697e-07
-1.132e-08
1.32295e-05
6.69888e-07
-2.69143e-07
2.19952e-07
1.43272e-05
-1.6065e-07
2.57061e-07
1.32894e-05
1.51558e-07
1.75867e-07
1.05527e-05
2.19109e-07
1.94243e-07
8.29301e-06
2.07023e-07
1.841e-07
6.64914e-06
1.5925e-07
5.27081e-06
1.85407e-07
-1.57919e-08
1.71655e-07
1.40624e-05
4.45832e-07
-3.24781e-07
-8.90812e-08
1.48817e-05
-4.91735e-07
-1.25077e-08
1.43949e-05
-8.39726e-09
1.96997e-07
1.13737e-05
1.78138e-07
2.79584e-07
8.71232e-06
2.00563e-07
2.74218e-07
6.9449e-06
2.30899e-07
5.50476e-06
1.91787e-07
-2.59664e-07
4.64284e-07
1.31073e-05
7.46885e-07
-2.24011e-07
9.74893e-08
1.44341e-05
-1.60263e-07
3.30379e-07
1.34924e-05
1.60387e-07
5.2654e-07
1.08957e-05
2.25888e-07
4.548e-07
8.58157e-06
2.12969e-07
3.82261e-07
6.89656e-06
2.98223e-07
5.49899e-06
1.95098e-07
-3.29642e-07
1.08825e-05
5.88562e-07
6.58651e-07
-2.61686e-07
1.16841e-05
7.00761e-07
-3.01889e-08
1.11157e-05
7.57687e-07
1.42382e-07
9.5673e-06
7.12684e-07
1.7925e-07
7.9565e-06
5.51089e-07
1.81645e-07
6.53473e-06
4.3586e-07
5.26026e-06
1.86057e-07
3.19644e-07
-3.35133e-07
-1.26819e-07
6.91248e-06
3.67908e-07
1.50157e-07
-2.59385e-07
-1.39308e-07
6.9432e-06
1.50656e-07
-1.57898e-07
-1.50547e-07
6.6271e-06
1.52294e-07
-7.12819e-08
-1.08043e-07
6.02685e-06
1.21337e-07
-8.77535e-09
-6.25523e-08
5.24516e-06
8.30487e-08
3.29903e-08
-3.11545e-08
4.38862e-06
5.10344e-08
-9.48879e-09
3.52516e-06
5.79084e-08
2.41383e-08
-4.10297e-07
-9.42843e-08
8.45773e-06
4.80875e-07
-3.07176e-07
-7.51445e-08
8.56695e-06
-1.72862e-07
-1.10547e-07
8.15233e-06
-6.40507e-08
-6.57784e-08
7.2994e-06
4.8473e-09
-1.45645e-08
6.26451e-06
4.7232e-08
1.27558e-08
5.19855e-06
2.60372e-08
4.17468e-06
7.02608e-08
-4.08669e-07
6.48204e-09
1.04783e-05
5.96699e-07
-3.18575e-07
2.05522e-07
1.11294e-05
-1.30769e-07
7.97167e-08
1.02704e-05
-8.80232e-09
5.01448e-08
8.73271e-06
4.81499e-08
8.64706e-08
7.26586e-06
7.77091e-08
9.38179e-08
5.94601e-06
8.61838e-08
4.74934e-06
9.31823e-08
-2.61838e-07
1.52853e-07
1.26085e-05
7.36507e-07
-3.02938e-07
3.94875e-07
1.41799e-05
-1.24905e-07
2.99761e-07
1.28914e-05
3.54716e-08
2.62966e-07
1.01793e-05
8.62892e-08
2.32371e-07
8.09665e-06
1.03492e-07
2.02578e-07
6.52333e-06
1.61759e-07
5.18628e-06
1.12518e-07
-6.79492e-08
3.52258e-07
1.3156e-05
7.75101e-07
-4.51423e-07
2.10902e-08
1.56395e-05
-3.63044e-07
2.2063e-07
1.43861e-05
-4.35549e-08
3.06447e-07
1.10109e-05
5.70679e-08
3.30296e-07
8.51374e-06
9.35659e-08
2.87175e-07
6.82396e-06
2.24023e-07
5.42313e-06
1.13067e-07
-3.35449e-07
5.52764e-07
1.24481e-05
7.94102e-07
-2.80116e-07
4.28717e-07
1.39712e-05
-2.07697e-07
5.02117e-07
1.3139e-05
-2.05912e-08
5.10322e-07
1.05048e-05
4.46419e-08
4.24435e-07
8.42233e-06
8.08464e-08
3.53135e-07
6.79452e-06
2.66661e-07
5.42943e-06
1.07904e-07
-3.93455e-07
1.08082e-05
5.14454e-07
5.06152e-07
-3.0036e-07
1.14206e-05
5.98904e-07
-1.93775e-07
1.09105e-05
6.00703e-07
-8.17427e-08
9.44003e-06
5.25612e-07
-1.12103e-09
7.86074e-06
4.39708e-07
5.83311e-08
6.46427e-06
3.64305e-07
5.21114e-06
1.10185e-07
2.64063e-07
-3.08923e-07
7.0812e-08
6.83081e-06
2.93278e-07
2.65125e-08
-2.63925e-07
3.94034e-08
6.83734e-06
2.16666e-08
-1.87233e-07
1.0259e-08
6.50767e-06
3.2661e-08
-1.15546e-07
1.79664e-08
5.91047e-06
2.68174e-08
-5.20721e-08
1.72197e-08
5.14449e-06
2.01038e-08
-2.16543e-09
1.52182e-08
4.31108e-06
1.27755e-08
1.43553e-08
3.47447e-06
3.12622e-08
3.12796e-09
-4.2552e-07
1.8096e-07
8.38101e-06
3.92068e-07
-3.55684e-07
9.41272e-08
8.44274e-06
-2.46192e-07
5.39375e-08
7.99934e-06
-1.51628e-07
7.67272e-08
7.14639e-06
-7.15887e-08
6.99607e-08
6.13188e-06
-1.04727e-08
5.83782e-08
5.0941e-06
4.69316e-08
4.10185e-06
2.99601e-08
-5.7673e-07
2.41262e-07
1.05166e-05
4.78361e-07
-4.27018e-07
1.27269e-07
1.09468e-05
-2.57741e-07
6.67999e-08
1.00885e-05
-1.52956e-07
1.54571e-07
8.55026e-06
-7.13313e-08
1.49769e-07
7.10478e-06
-7.58901e-09
1.21815e-07
5.81876e-06
9.43446e-08
4.65852e-06
3.59355e-08
-8.8576e-07
3.2344e-07
1.26634e-05
7.49048e-07
-4.66539e-07
3.03402e-07
1.35849e-05
-1.59329e-07
2.99558e-07
1.23512e-05
-1.26734e-07
3.18957e-07
9.98255e-06
-6.15813e-08
2.60753e-07
7.92036e-06
-2.84233e-09
2.03403e-07
6.38326e-06
1.50687e-07
5.08521e-06
4.19207e-08
-1.17824e-06
5.3029e-07
1.32026e-05
9.2492e-07
-6.04203e-07
7.32867e-07
1.46365e-05
-2.74497e-07
7.16366e-07
1.36394e-05
-1.83534e-07
4.39562e-07
1.0799e-05
-9.40855e-08
3.31059e-07
8.35404e-06
-1.79276e-08
2.63605e-07
6.68764e-06
1.94152e-07
5.3228e-06
3.89268e-08
-9.16242e-07
4.92942e-07
1.26276e-05
7.74233e-07
-5.02154e-07
7.085e-07
1.3582e-05
-2.97723e-07
6.62359e-07
1.2989e-05
-2.31163e-07
4.25317e-07
1.04525e-05
-1.25519e-07
3.52115e-07
8.29573e-06
-3.265e-08
2.90886e-07
6.67438e-06
2.14794e-07
5.33929e-06
3.6958e-08
-5.0848e-07
1.11418e-05
4.00108e-07
2.67742e-07
-4.61807e-07
1.16935e-05
3.89128e-07
-3.85208e-07
1.11027e-05
3.93652e-07
-2.78312e-07
9.42854e-06
3.30087e-07
-1.4393e-07
7.76629e-06
3.12247e-07
-3.38043e-08
6.36814e-06
2.76987e-07
5.13939e-06
5.41181e-08
1.98754e-07
-2.43304e-07
7.58907e-08
6.73928e-06
2.28297e-07
3.06444e-08
-2.19695e-07
8.3301e-08
6.72579e-06
4.81615e-09
-1.67719e-07
5.92446e-08
6.38647e-06
9.9039e-09
-1.0701e-07
4.35303e-08
5.79371e-06
1.24011e-08
-4.723e-08
2.6486e-08
5.04402e-06
1.41697e-08
1.6975e-09
1.42609e-08
4.23481e-06
1.31519e-08
7.96563e-09
3.42679e-06
3.37383e-08
7.79777e-09
-3.42945e-07
1.9677e-07
8.29239e-06
3.10489e-07
-3.2108e-07
1.79839e-07
8.32423e-06
-2.45261e-07
1.28532e-07
7.85412e-06
-1.58508e-07
1.0775e-07
6.99534e-06
-7.65742e-08
7.84079e-08
5.99775e-06
-1.12965e-08
5.37761e-08
4.98903e-06
3.64007e-08
4.03136e-06
3.07333e-08
-5.68291e-07
3.15859e-07
1.05874e-05
3.78498e-07
-4.36386e-07
1.63564e-07
1.08313e-05
-2.99306e-07
1.31186e-07
9.94876e-06
-1.8693e-07
1.60797e-07
8.38482e-06
-9.18588e-08
1.41773e-07
6.94628e-06
-1.58881e-08
1.0566e-07
5.69087e-06
7.53458e-08
4.5701e-06
3.345e-08
-1.02154e-06
4.31866e-07
1.29576e-05
6.11341e-07
-5.03579e-07
3.35302e-07
1.28948e-05
-2.47124e-07
2.25156e-07
1.20006e-05
-1.83079e-07
2.54104e-07
9.82537e-06
-9.96726e-08
2.24436e-07
7.75399e-06
-1.83246e-08
1.65307e-07
6.24233e-06
1.18941e-07
4.98623e-06
3.71188e-08
-1.27792e-06
4.50017e-07
1.37897e-05
6.72406e-07
-7.16009e-07
7.71878e-07
1.3638e-05
-2.59107e-07
8.03783e-07
1.26036e-05
-2.53228e-07
4.26371e-07
1.06206e-05
-1.30449e-07
2.5734e-07
8.19837e-06
-3.05422e-08
2.05811e-07
6.54715e-06
1.51101e-07
5.22278e-06
3.72552e-08
-8.60129e-07
2.8215e-07
1.31542e-05
5.01362e-07
-7.14768e-07
4.97592e-07
1.37109e-05
-3.86514e-07
5.57831e-07
1.29065e-05
-2.65981e-07
3.05314e-07
1.0453e-05
-1.38643e-07
2.65011e-07
8.1607e-06
-2.9925e-08
2.25577e-07
6.54586e-06
1.68088e-07
5.24819e-06
4.4228e-08
-4.36558e-07
1.14013e-05
2.89483e-07
1.69771e-07
-5.15271e-07
1.20828e-05
1.87248e-07
-3.89802e-07
1.12691e-05
2.65907e-07
-2.67404e-07
9.37686e-06
2.34689e-07
-1.25536e-07
7.65008e-06
2.3937e-07
-1.53818e-08
6.2613e-06
2.22276e-07
5.06646e-06
6.70807e-08
1.58626e-07
-1.79603e-07
-5.2446e-08
6.663e-06
1.9875e-07
1.09578e-07
-1.56405e-07
-2.38237e-09
6.62973e-06
7.51971e-08
-1.12874e-07
-6.81447e-09
6.28288e-06
6.67294e-08
-5.91973e-08
-1.41085e-08
5.69512e-06
5.90092e-08
-7.38773e-09
-1.84623e-08
4.96077e-06
4.98239e-08
3.25947e-08
-1.97612e-08
4.17412e-06
4.04276e-08
-1.84205e-08
3.39164e-06
5.62118e-08
2.97218e-08
-2.21065e-07
2.26046e-08
8.18216e-06
2.56204e-07
-2.18527e-07
1.21764e-07
8.19737e-06
-1.70407e-07
8.75606e-08
7.71155e-06
-9.45929e-08
4.78487e-08
6.85748e-06
-2.38581e-08
2.76579e-08
5.88063e-06
2.94502e-08
1.49046e-08
4.90125e-06
6.72528e-09
3.97566e-06
5.99214e-08
-2.7608e-07
1.53558e-07
1.04419e-05
2.90531e-07
-2.83339e-07
2.60644e-07
1.06997e-05
-2.20655e-07
2.29749e-07
9.7439e-06
-1.13359e-07
1.19795e-07
8.20566e-06
-2.69893e-08
8.75792e-08
6.79993e-06
3.47419e-08
6.31066e-08
5.58093e-06
4.37028e-08
4.49813e-06
6.96751e-08
-3.11132e-07
2.41713e-07
1.28905e-05
2.90077e-07
-3.51838e-07
2.24406e-07
1.29715e-05
-3.21561e-07
2.24848e-07
1.19753e-05
-1.32253e-07
1.53831e-07
9.60196e-06
-3.00506e-08
1.47652e-07
7.59177e-06
3.95472e-08
1.16366e-07
6.11939e-06
8.54037e-08
4.90481e-06
7.92898e-08
-4.58141e-07
2.58965e-07
1.39562e-05
2.7426e-07
-4.42416e-07
2.3213e-07
1.36142e-05
-3.64213e-07
1.1885e-07
1.26315e-05
-1.954e-07
1.79685e-07
1.04262e-05
-5.12207e-08
1.66549e-07
8.03545e-06
3.53995e-08
1.53904e-07
6.42307e-06
1.18676e-07
5.14042e-06
8.45022e-08
-4.19233e-07
1.28882e-07
1.34493e-05
2.54186e-07
-4.55013e-07
1.11445e-07
1.38672e-05
-3.28184e-07
1.18334e-07
1.27801e-05
-1.42594e-07
1.72057e-07
1.02751e-05
-2.96667e-08
2.05858e-07
8.00855e-06
4.69564e-08
1.90365e-07
6.43284e-06
1.45086e-07
5.17429e-06
9.44159e-08
-2.23511e-07
1.12689e-05
2.44391e-07
2.4033e-07
-2.8224e-07
1.20103e-05
2.42796e-07
-2.02467e-07
1.10708e-05
2.36985e-07
-1.07331e-07
9.20784e-06
2.46029e-07
-1.33754e-08
7.52749e-06
2.34535e-07
5.75277e-08
6.17033e-06
2.10388e-07
5.00942e-06
1.11362e-07
1.48237e-07
-1.63121e-07
-1.31376e-07
6.60546e-06
1.99253e-07
1.52779e-07
-1.2792e-07
-8.93833e-08
6.55538e-06
1.28429e-07
-7.52977e-08
-9.20954e-08
6.20204e-06
1.20284e-07
-2.12932e-08
-7.82045e-08
5.61709e-06
1.02305e-07
2.47069e-08
-6.21419e-08
4.89508e-06
8.18356e-08
5.67546e-08
-4.96026e-08
4.12763e-06
6.38872e-08
-4.0145e-08
3.36667e-06
7.34689e-08
4.8097e-08
-1.80471e-07
-1.1379e-07
8.09345e-06
2.51711e-07
-1.62824e-07
2.86117e-10
8.0901e-06
-1.04186e-07
-3.58017e-08
7.59667e-06
-3.26452e-08
-3.85132e-08
6.74628e-06
2.46318e-08
-2.55997e-08
5.78681e-06
6.35502e-08
-1.90404e-08
4.83192e-06
-1.71411e-08
3.93284e-06
8.32179e-08
-1.42864e-07
-8.69595e-08
1.02668e-05
2.91285e-07
-1.66698e-07
1.55768e-07
1.05682e-05
-9.50058e-08
6.18092e-08
9.57449e-06
-1.42586e-08
3.08545e-08
8.05553e-06
4.27127e-08
3.70866e-08
6.68018e-06
8.07982e-08
3.12802e-08
5.49256e-06
2.12664e-08
4.4408e-06
9.97605e-08
-6.5706e-08
-1.39842e-07
1.27002e-05
3.08882e-07
-1.06112e-07
-4.06078e-08
1.32089e-05
-8.28594e-08
1.15805e-07
1.18982e-05
4.56362e-10
1.22989e-07
9.42645e-06
5.87876e-08
1.13055e-07
7.45778e-06
9.55198e-08
9.35627e-08
6.02034e-06
6.77334e-08
4.83928e-06
1.14594e-07
6.82922e-08
1.10127e-07
1.35668e-05
7.14289e-08
-6.49148e-08
-3.97361e-08
1.37467e-05
-2.5547e-07
-4.82862e-08
1.29868e-05
-7.32753e-08
8.9906e-08
1.02774e-05
3.59697e-08
1.41774e-07
7.89762e-06
9.14853e-08
1.38568e-07
6.32264e-06
1.06086e-07
5.07388e-06
1.19707e-07
-8.93509e-08
1.78071e-07
1.31544e-05
3.16574e-07
-5.10292e-08
3.43808e-09
1.37854e-05
-8.80527e-08
9.24599e-08
1.26765e-05
-6.31734e-09
1.9395e-07
1.00895e-05
5.60069e-08
2.06765e-07
7.88132e-06
9.81318e-08
1.87359e-07
6.34197e-06
1.38749e-07
5.11461e-06
1.25064e-07
-9.45687e-08
1.10425e-05
2.35998e-07
2.62955e-07
-9.33279e-08
1.17132e-05
2.99416e-07
-7.12602e-08
1.0851e-05
2.90295e-07
-9.27111e-09
9.05187e-06
2.87965e-07
4.66103e-08
7.42815e-06
2.50254e-07
9.33964e-08
6.09846e-06
2.12379e-07
4.96361e-06
1.32876e-07
1.44983e-07
-1.72739e-07
-8.05293e-08
6.54191e-06
1.93175e-07
1.23629e-07
-1.33813e-07
-7.3639e-08
6.47602e-06
1.13971e-07
-7.46826e-08
-8.88655e-08
6.11674e-06
1.15167e-07
-1.80336e-08
-7.68405e-08
5.53624e-06
1.01101e-07
2.84518e-08
-6.4928e-08
4.82897e-06
8.44644e-08
5.99121e-08
-5.51204e-08
4.08236e-06
6.86751e-08
-4.72489e-08
3.3436e-06
7.58164e-08
5.42684e-08
-2.13275e-07
-4.15856e-08
8.01634e-06
2.5147e-07
-1.80609e-07
-5.11889e-09
7.98901e-06
-1.07154e-07
-4.46895e-08
7.4789e-06
-3.21428e-08
-3.65429e-08
6.63099e-06
2.70276e-08
-2.8269e-08
5.691e-06
6.62573e-08
-2.52997e-08
4.76287e-06
-2.5467e-08
3.89144e-06
8.58473e-08
-2.00912e-07
-3.44322e-08
1.01717e-05
2.88823e-07
-1.94169e-07
1.04845e-07
1.04515e-05
-9.1702e-08
2.21385e-09
9.4249e-06
-1.53318e-08
3.06684e-08
7.91209e-06
4.35221e-08
3.59432e-08
6.55712e-06
8.27e-08
2.54367e-08
5.40264e-06
1.22254e-08
4.38374e-06
1.02213e-07
-2.1432e-07
-4.69568e-08
1.25468e-05
3.80184e-07
-6.98663e-08
3.95356e-08
1.31306e-05
-3.06155e-08
8.84909e-08
1.17727e-05
4.33718e-09
1.55461e-07
9.26653e-06
5.92178e-08
1.20771e-07
7.31833e-06
9.67133e-08
9.06084e-08
5.91768e-06
5.91961e-08
4.77256e-06
1.164e-07
4.59727e-08
1.01907e-07
1.29603e-05
4.11925e-07
-6.65818e-08
2.05386e-08
1.38785e-05
-2.65022e-07
1.04333e-07
1.31699e-05
-7.44352e-08
1.19239e-07
1.01233e-05
3.11941e-08
1.54914e-07
7.75782e-06
8.92019e-08
1.37633e-07
6.21759e-06
9.79828e-08
5.00515e-06
1.19112e-07
-9.55884e-08
2.29568e-07
1.26503e-05
4.72165e-07
-3.59439e-08
1.27484e-07
1.36192e-05
-6.13941e-08
2.43843e-07
1.25628e-05
-3.48117e-08
2.32788e-07
9.94948e-06
3.39751e-08
2.107e-07
7.75676e-06
8.61138e-08
1.81359e-07
6.24609e-06
1.2774e-07
5.05175e-06
1.19218e-07
-1.12138e-07
1.09483e-05
2.38921e-07
1.97074e-07
-1.6534e-07
1.16275e-05
2.66584e-07
-1.28571e-07
1.07779e-05
2.80215e-07
-6.91264e-08
8.96854e-06
2.56606e-07
9.70902e-09
7.33015e-06
2.29839e-07
7.46662e-08
6.02045e-06
1.94418e-07
4.91352e-06
1.23757e-07
1.28785e-07
-1.72799e-07
-4.67258e-08
6.46786e-06
1.79457e-07
1.14109e-07
-1.29459e-07
-7.07434e-08
6.38744e-06
1.15928e-07
-6.42738e-08
-9.50353e-08
6.02504e-06
1.21629e-07
-5.84807e-09
-8.49677e-08
5.45329e-06
1.09462e-07
3.98614e-08
-7.66808e-08
4.76523e-06
9.46886e-08
6.94335e-08
-6.79168e-08
4.04169e-06
7.92532e-08
-5.93565e-08
3.32551e-06
8.2913e-08
6.43538e-08
-2.57354e-07
5.38833e-08
7.9194e-06
2.53479e-07
-2.02521e-07
-9.48317e-10
7.86444e-06
-1.06672e-07
-5.29772e-08
7.34095e-06
-2.38972e-08
-4.14727e-08
6.50489e-06
3.8659e-08
-4.12907e-08
5.59331e-06
7.75858e-08
-4.1033e-08
4.69712e-06
-4.03573e-08
3.85498e-06
9.53684e-08
-3.7018e-07
1.42988e-07
1.01307e-05
3.21963e-07
-2.7574e-07
8.79141e-08
1.02682e-05
-1.12523e-07
-2.32622e-08
9.23204e-06
-1.43999e-08
2.85174e-08
7.74418e-06
5.48539e-08
2.17616e-08
6.42503e-06
9.57068e-08
7.47344e-09
5.31332e-06
-5.53756e-09
4.33089e-06
1.13849e-07
-6.15962e-07
2.67165e-07
1.24747e-05
5.63974e-07
-2.92769e-07
1.38946e-07
1.27563e-05
-6.45105e-08
6.9519e-08
1.14517e-05
1.17824e-08
1.57101e-07
9.06184e-06
7.61685e-08
1.13685e-07
7.16198e-06
1.14066e-07
7.48071e-08
5.81261e-06
4.14938e-08
4.70867e-06
1.30892e-07
-7.78062e-07
2.60051e-07
1.30105e-05
7.34989e-07
-5.2822e-07
3.30371e-07
1.34375e-05
-2.21629e-07
4.08393e-07
1.25241e-05
-5.10593e-08
2.12367e-07
9.89708e-06
5.36557e-08
1.67026e-07
7.59967e-06
1.09377e-07
1.28216e-07
6.10836e-06
8.24602e-08
4.93827e-06
1.35236e-07
-6.30951e-07
2.25505e-07
1.2642e-05
6.7398e-07
-4.36741e-07
3.3571e-07
1.34199e-05
-1.7912e-07
3.96374e-07
1.23175e-05
-6.72079e-08
2.53385e-07
9.79642e-06
3.68417e-08
2.0682e-07
7.61286e-06
9.96213e-08
1.66727e-07
6.14475e-06
1.10953e-07
4.98984e-06
1.33127e-07
-3.52907e-07
1.11133e-05
2.94911e-07
1.18721e-07
-3.35843e-07
1.17074e-05
2.38947e-07
-2.13476e-07
1.07825e-05
2.69585e-07
-1.00435e-07
8.87706e-06
2.31849e-07
1.21392e-08
7.21419e-06
2.10144e-07
8.69789e-08
5.93679e-06
1.75613e-07
4.86404e-06
1.35189e-07
1.12302e-07
-1.32511e-07
-1.50611e-07
6.40973e-06
1.59806e-07
1.81434e-07
-8.07933e-08
-1.59356e-07
6.31554e-06
1.79677e-07
-1.70192e-08
-1.6374e-07
5.95187e-06
1.73055e-07
3.60693e-08
-1.41403e-07
5.39087e-06
1.50599e-07
7.32532e-08
-1.18601e-07
4.72126e-06
1.25427e-07
9.40836e-08
-9.82018e-08
4.01731e-06
1.02077e-07
-8.11476e-08
3.31956e-06
9.99375e-08
8.16958e-08
-2.1552e-07
-7.60118e-08
7.81475e-06
2.45533e-07
-1.46804e-07
-9.57524e-08
7.73196e-06
-4.49319e-08
-1.32791e-07
7.20821e-06
3.49094e-08
-1.13816e-07
6.39747e-06
8.58595e-08
-9.48752e-08
5.51861e-06
1.12087e-07
-7.87456e-08
4.65159e-06
-6.67168e-08
3.83396e-06
1.18964e-07
-4.03984e-07
7.10785e-08
1.00208e-05
3.66724e-07
-2.35358e-07
-1.11981e-08
1.00151e-05
-4.65861e-08
-8.47638e-08
8.99541e-06
6.3459e-08
-5.37279e-08
7.57407e-06
1.18463e-07
-3.94247e-08
6.31464e-06
1.41599e-07
-3.53711e-08
5.2469e-06
-3.53265e-08
4.29618e-06
1.44803e-07
-7.57375e-07
3.08054e-07
1.23163e-05
6.78886e-07
-3.48585e-07
2.13239e-07
1.21226e-05
2.7418e-09
8.8302e-08
1.09271e-05
1.15268e-07
7.80699e-08
8.81767e-06
1.58255e-07
6.04328e-08
7.01879e-06
1.71913e-07
3.34406e-08
5.73014e-06
1.1623e-08
4.6641e-06
1.69593e-07
-9.47661e-07
3.19066e-07
1.31941e-05
7.52679e-07
-5.58395e-07
3.80099e-07
1.28811e-05
-4.99405e-08
4.72168e-07
1.16312e-05
7.10219e-08
2.18785e-07
9.63502e-06
1.53957e-07
1.31924e-07
7.44515e-06
1.78638e-07
9.62937e-08
6.0207e-06
5.71212e-08
4.89066e-06
1.80675e-07
-8.4279e-07
2.60203e-07
1.2856e-05
6.87253e-07
-5.4194e-07
4.12078e-07
1.30869e-05
-1.09676e-07
4.53365e-07
1.19037e-05
6.39737e-08
2.65107e-07
9.57621e-06
1.43525e-07
1.95817e-07
7.46932e-06
1.74393e-07
1.46752e-07
6.06339e-06
9.29835e-08
4.94651e-06
1.8183e-07
-4.50032e-07
1.12282e-05
3.58358e-07
2.37032e-07
-3.45634e-07
1.16989e-05
3.16047e-07
-1.18465e-07
1.06728e-05
3.35692e-07
3.02165e-08
8.71997e-06
2.73504e-07
1.17961e-07
7.10093e-06
2.21309e-07
1.59251e-07
5.87182e-06
1.70446e-07
4.83189e-06
1.79283e-07
1.0509e-07
-8.22804e-08
-2.65538e-07
6.38215e-06
1.36368e-07
2.39011e-07
-2.90223e-08
-2.41738e-07
6.27676e-06
2.27346e-07
2.6071e-08
-2.24249e-07
5.91273e-06
2.08185e-07
6.85605e-08
-1.86619e-07
5.35933e-06
1.75546e-07
9.47281e-08
-1.4659e-07
4.70086e-06
1.40866e-07
1.06429e-07
-1.15156e-07
4.00895e-06
1.11692e-07
-9.18443e-08
3.32334e-06
1.05858e-07
8.83917e-08
-1.18262e-07
-2.7074e-07
7.73017e-06
2.08283e-07
-5.44628e-08
-2.02701e-07
7.62903e-06
2.95666e-08
-2.19266e-07
7.1193e-06
9.0313e-08
-1.85813e-07
6.33556e-06
1.20943e-07
-1.37741e-07
5.4789e-06
1.3153e-07
-1.03626e-07
4.62953e-06
-8.1862e-08
3.82733e-06
1.27909e-07
-2.07782e-07
-1.30211e-07
9.77016e-06
3.17958e-07
-6.80855e-08
-9.76707e-08
9.77017e-06
7.20843e-08
-1.45258e-07
8.78118e-06
1.51289e-07
-1.43312e-07
7.45207e-06
1.71152e-07
-9.35315e-08
6.25041e-06
1.69751e-07
-6.66709e-08
5.21141e-06
-5.43019e-08
4.28037e-06
1.57869e-07
-2.99507e-07
8.17215e-08
1.19565e-05
4.47368e-07
-1.25986e-07
3.81549e-08
1.18126e-05
1.19554e-07
3.28389e-09
1.0533e-05
2.2195e-07
-3.37225e-08
8.60538e-06
2.25752e-07
-3.19446e-09
6.92457e-06
2.08391e-07
-2.89439e-09
5.68354e-06
-1.04351e-08
4.6416e-06
1.87031e-07
-3.95579e-07
2.00823e-07
1.29905e-05
4.79947e-07
-2.10811e-07
1.37703e-07
1.25963e-05
6.74103e-08
1.4634e-07
1.12099e-05
2.03872e-07
1.09974e-07
9.35477e-06
2.38595e-07
7.69575e-08
7.33015e-06
2.24492e-07
6.23573e-08
5.96957e-06
3.58225e-08
4.86602e-06
2.02939e-07
-4.19477e-07
2.81778e-07
1.27232e-05
4.71172e-07
-2.35902e-07
2.46716e-07
1.27934e-05
4.57806e-08
2.55318e-07
1.15126e-05
2.2399e-07
2.21195e-07
9.2866e-06
2.40921e-07
1.68145e-07
7.36114e-06
2.2608e-07
1.23883e-07
6.01674e-06
7.70473e-08
4.92523e-06
2.06087e-07
-2.56481e-07
1.10476e-05
3.31822e-07
3.86837e-07
-1.20209e-07
1.13822e-05
4.26687e-07
9.58054e-08
1.03162e-05
3.95688e-07
1.92566e-07
8.53465e-06
3.09604e-07
2.11946e-07
7.02308e-06
2.26655e-07
2.07516e-07
5.83782e-06
1.62319e-07
4.81902e-06
1.99864e-07
9.75337e-08
-6.21672e-08
-2.16111e-07
6.36562e-06
1.09247e-07
1.85537e-07
-2.2267e-08
-1.854e-07
6.25262e-06
1.69409e-07
1.48682e-08
-1.62036e-07
5.88661e-06
1.50924e-07
4.57935e-08
-1.34551e-07
5.33616e-06
1.26697e-07
6.76181e-08
-1.07333e-07
4.6836e-06
1.02763e-07
7.94466e-08
-8.64637e-08
3.99976e-06
8.34658e-08
-7.1679e-08
3.32395e-06
8.17249e-08
6.8375e-08
-6.73129e-08
-2.48044e-07
7.67597e-06
1.53632e-07
-2.01015e-08
-1.71539e-07
7.56785e-06
2.04307e-08
-1.50923e-07
7.06756e-06
6.01519e-08
-1.36295e-07
6.29722e-06
8.43052e-08
-1.0307e-07
5.45042e-06
9.53678e-08
-7.86082e-08
4.61061e-06
-6.44674e-08
3.81919e-06
9.58823e-08
-2.65116e-08
-2.09812e-07
9.55159e-06
2.06833e-07
1.44158e-08
-5.52803e-08
9.61257e-06
6.07901e-08
-7.53265e-08
8.65902e-06
1.09385e-07
-1.13373e-07
7.38046e-06
1.22533e-07
-7.55806e-08
6.2094e-06
1.233e-07
-5.20914e-08
5.18399e-06
-4.33222e-08
4.265e-06
1.17546e-07
1.05499e-07
-1.58106e-07
1.16084e-05
1.90425e-07
9.46112e-08
-1.26778e-07
1.18951e-05
1.07707e-07
-3.12789e-08
1.0476e-05
1.74097e-07
-5.77649e-08
8.48299e-06
1.68759e-07
-1.32106e-08
6.86766e-06
1.53722e-07
-3.45733e-09
5.64995e-06
-8.99837e-09
4.6213e-06
1.39728e-07
1.5515e-07
2.62299e-08
1.25958e-05
5.52808e-08
1.29958e-07
-1.03797e-07
1.25983e-05
6.97546e-08
-1.40017e-07
1.13791e-05
1.77675e-07
2.56943e-08
9.16345e-06
1.81886e-07
5.18083e-08
7.26079e-06
1.65938e-07
4.82413e-08
5.93389e-06
2.75294e-08
4.84413e-06
1.51368e-07
2.19107e-08
1.13706e-07
1.23807e-05
2.32986e-07
6.46682e-08