/*--------------------------------*- C++ -*----------------------------------*\
| =========                 |                                                 |
| \\      /  F ield         | OpenFOAM: The Open Source CFD Toolbox           |
|  \\    /   O peration     | Version:  plus.master.MPPICInterFoam            |
|   \\  /    A nd           | Web:      www.OpenFOAM.com                      |
|    \\/     M anipulation  |                                                 |
\*---------------------------------------------------------------------------*/
FoamFile
{
    version     2.0;
    format      ascii;
    class       vectorField;
    location    "8.6/lagrangian/kinematicCloud";
    object      U;
}
// * * * * * * * * * * * * * * * * * * * * * * * * * * * * * * * * * * * * * //


3113
(
(0.00157271 -2.63863e-05 -0.0443251)
(0.00153464 8.14395e-06 -0.0444023)
(0.00188607 0.000900564 -0.0457107)
(0.00188303 0.000879177 -0.0455349)
(0.0012148 -0.000136665 -0.043214)
(0.00129827 -6.21413e-05 -0.0439401)
(0.00171661 0.00040765 -0.0459677)
(0.00154784 0.000302626 -0.0444544)
(0.0016705 0.000380912 -0.046352)
(0.00118289 -0.00011769 -0.0438605)
(0.00148448 0.000224103 -0.0441712)
(0.00155127 0.000305173 -0.0459363)
(0.00180124 0.000746212 -0.0455645)
(0.00169482 0.000474812 -0.0475278)
(0.00177707 0.000697157 -0.0440522)
(0.00131444 -2.80425e-05 -0.0441521)
(0.00174859 0.000714756 -0.0459885)
(0.0018283 0.000622143 -0.046961)
(0.00172272 0.00048912 -0.0476744)
(0.00166942 0.00046422 -0.0478257)
(0.00155426 8.15695e-05 -0.0484235)
(0.00173227 0.000703652 -0.046265)
(0.00155913 4.68195e-05 -0.0475806)
(0.00149228 0.000395605 -0.0437499)
(0.0017535 0.000783018 -0.046877)
(0.0017315 0.000445682 -0.0479264)
(0.00175544 0.000766382 -0.0473409)
(0.00169403 0.00047334 -0.0482874)
(0.0018175 0.00082176 -0.0471131)
(0.00175974 0.000762701 -0.0445041)
(0.00143391 0.000215975 -0.0433156)
(0.00174264 0.00084377 -0.0476281)
(0.00160759 0.00022903 -0.0445656)
(0.00152389 6.35432e-05 -0.0469557)
(0.00158998 0.000453511 -0.0474956)
(0.001831 0.000847074 -0.0474152)
(0.00178129 0.000827198 -0.0475037)
(0.00176173 0.000534644 -0.0478572)
(0.00160753 0.000592473 -0.0470912)
(0.00171596 0.000762744 -0.0476494)
(0.00112658 -0.000121453 -0.0446323)
(0.00150273 1.68883e-05 -0.0477274)
(0.00167521 0.000439239 -0.0486847)
(0.0016214 9.03717e-05 -0.047069)
(0.00127863 -0.000193009 -0.0441604)
(0.0016628 0.000722747 -0.047538)
(0.00139564 0.000243542 -0.0466561)
(0.00160137 8.62159e-05 -0.0478495)
(0.00165293 0.000743379 -0.0465404)
(0.00171796 4.59174e-06 -0.044219)
(0.00150496 1.3065e-05 -0.0471037)
(0.00115856 -5.70838e-05 -0.0451553)
(0.00140436 0.000159571 -0.0459632)
(0.00123628 -0.000170205 -0.0451524)
(0.00178207 0.000884429 -0.0467634)
(0.00118567 -0.00013611 -0.0455366)
(0.00177295 0.000732934 -0.0477381)
(0.00123299 -0.000137364 -0.0453704)
(0.00182779 0.000749688 -0.0472143)
(0.00157639 8.39341e-05 -0.0475512)
(0.00121968 -0.000162325 -0.0456072)
(0.00156043 0.000297528 -0.0468209)
(0.00145695 7.99942e-06 -0.04561)
(0.0013821 -6.48505e-05 -0.0470111)
(0.00161155 0.000103918 -0.0476445)
(0.00163256 0.000615802 -0.0473029)
(0.00118589 -8.70497e-05 -0.0451517)
(0.00166164 -9.48548e-05 -0.0432024)
(0.00186899 0.000800237 -0.0476153)
(0.00146978 6.15753e-05 -0.046648)
(0.00168675 4.4391e-05 -0.0469502)
(0.00145901 -0.0001338 -0.0459336)
(0.00147276 0.000604561 -0.0445177)
(0.0013279 1.95865e-05 -0.0460436)
(0.00156324 7.76124e-05 -0.0473114)
(0.0015575 6.86317e-05 -0.0476128)
(0.00309923 0.00151101 -0.0428237)
(0.00129252 -0.000141749 -0.0475574)
(0.0013076 0.000336861 -0.0450504)
(0.00110472 -0.00014679 -0.046481)
(0.00116965 -0.00014022 -0.0468181)
(0.00168426 0.000411184 -0.0478524)
(0.00105349 -0.000241763 -0.044974)
(0.0012595 0.000375263 -0.0453914)
(0.00169193 0.000797164 -0.0467001)
(0.00139975 -0.000149219 -0.0465629)
(0.00128591 -7.55337e-05 -0.0428127)
(0.00141938 0.00010321 -0.0470133)
(0.00173343 -9.26684e-05 -0.0440388)
(0.00174625 5.59061e-05 -0.0468071)
(0.00128595 -6.99703e-05 -0.0433713)
(0.00130471 -6.46731e-05 -0.0440743)
(0.000869209 -0.000253652 -0.0416223)
(0.00132502 -0.000115993 -0.0460689)
(0.00143968 1.93261e-05 -0.0439059)
(0.00144204 -1.36372e-05 -0.0438843)
(0.00158532 0.000676906 -0.0454172)
(0.0015369 5.21823e-05 -0.0487263)
(-0.00173343 -0.000569255 -0.0502948)
(0.00106853 -0.000287856 -0.0453411)
(0.00129604 -7.20235e-05 -0.0443887)
(0.00132537 -4.32971e-05 -0.0459821)
(0.00140802 -7.75771e-05 -0.0475274)
(0.00129701 -0.000114872 -0.0449666)
(0.00130202 -6.10687e-05 -0.0453072)
(0.00138162 -3.20348e-05 -0.0456206)
(0.00145152 -0.000146242 -0.0465752)
(0.0015447 6.43127e-05 -0.0473857)
(-0.00178202 -0.00145792 -0.0488801)
(-0.00168915 -0.000559785 -0.050748)
(-0.00174283 -0.000622728 -0.0504726)
(0.00136236 0.000410342 -0.0461558)
(0.00132677 0.00013753 -0.046215)
(0.00132768 -6.87486e-05 -0.0456343)
(-0.00132177 -0.00176183 -0.046206)
(0.00148973 -0.000110216 -0.0464864)
(0.00125517 -3.90242e-05 -0.0463581)
(0.00170059 0.000377746 -0.0471625)
(0.00179319 0.000454919 -0.0460407)
(0.00129903 -0.000121483 -0.0449642)
(0.00159887 4.19678e-05 -0.0475717)
(-0.00165465 0.000437738 -0.0527)
(-0.00164254 0.000418975 -0.0530517)
(0.00154788 0.000744426 -0.0461652)
(0.00157677 1.97616e-05 -0.0475486)
(0.00173399 0.000401095 -0.046554)
(-0.00133317 0.000560604 -0.0505236)
(-0.00132192 0.000482583 -0.0503279)
(0.00109736 7.50186e-06 -0.0405524)
(0.0014019 0.000311175 -0.0455381)
(0.00131207 9.31062e-05 -0.0457024)
(0.00107477 -0.000193082 -0.0461747)
(0.0014237 -8.77432e-05 -0.0436703)
(0.00152695 0.000273562 -0.0469965)
(-0.00132368 0.000554005 -0.0505878)
(0.00144991 9.94117e-05 -0.0448616)
(0.0012283 -3.57832e-05 -0.0455361)
(0.00168827 0.000101004 -0.0486313)
(0.00160089 5.06815e-05 -0.0488008)
(0.00129487 -6.97057e-05 -0.0465244)
(-0.00121695 0.000415839 -0.0486669)
(-0.000753184 0.000102613 -0.0457483)
(-0.00125207 0.000501529 -0.049977)
(0.00149062 -0.000928091 -0.0406316)
(0.00131121 -2.49724e-05 -0.0464894)
(0.00121247 -0.000144869 -0.0455724)
(0.00129411 -0.000171693 -0.0442987)
(0.00128698 -7.41319e-05 -0.0462728)
(0.00152998 0.000194931 -0.0452463)
(-0.00159029 0.000423356 -0.0535308)
(-0.00159075 0.000409082 -0.0535607)
(0.00254119 -0.00110104 -0.0446779)
(0.00132231 -8.90613e-05 -0.0461384)
(0.00175372 0.000691614 -0.0462199)
(0.0016304 4.0115e-07 -0.046771)
(-0.00125386 0.000481646 -0.0502485)
(-0.00160114 -0.000861207 -0.0497796)
(-0.00165103 0.000418624 -0.0523035)
(0.00133581 0.000412583 -0.0460528)
(0.00100903 -0.000360317 -0.045149)
(0.00154635 1.05343e-05 -0.0490136)
(0.00137356 -4.19152e-05 -0.0469875)
(0.00146948 -0.000113424 -0.0467728)
(-0.00111625 0.00028636 -0.0486658)
(-0.00138477 -0.000223334 -0.0500535)
(-0.00118145 0.00049572 -0.049268)
(0.00091928 -0.000373488 -0.04456)
(0.00253601 -0.000894492 -0.045208)
(0.00105228 -0.000280573 -0.0457187)
(0.0016752 0.000734625 -0.0451174)
(0.00118653 -0.000141191 -0.0470788)
(0.00142307 -0.000109955 -0.0470852)
(-0.0016846 -0.00156512 -0.0493343)
(0.0015408 2.54708e-06 -0.0490135)
(0.0014437 0.000232116 -0.0461771)
(0.00170635 1.40005e-06 -0.0462181)
(-0.00116075 -0.000741255 -0.0465611)
(-0.00114622 0.000536898 -0.049032)
(0.00149286 0.000588192 -0.0428724)
(0.00120095 -0.00019031 -0.0443519)
(0.0019541 -0.000846175 -0.0454774)
(0.00140922 -4.80315e-05 -0.0472807)
(0.00150202 -7.64268e-06 -0.048975)
(0.00130804 -9.93594e-05 -0.0467391)
(0.00116089 -0.000209798 -0.0427449)
(-0.00163642 -0.00161155 -0.0489109)
(0.00110767 -0.000276765 -0.0453039)
(0.00147433 -0.00012553 -0.0466968)
(0.00162407 0.000327339 -0.0467751)
(0.00142999 -0.000108384 -0.0471376)
(-0.00145565 0.000486541 -0.0529263)
(0.00144651 0.000415782 -0.0446467)
(0.00118036 -0.000327704 -0.0444478)
(-0.00170678 -0.00162555 -0.049534)
(-0.0016558 0.000154357 -0.0532292)
(0.00104966 -0.000285628 -0.0450911)
(0.00130922 0.000128914 -0.0446667)
(0.00102521 -0.000162088 -0.0402174)
(0.000999173 -0.000320792 -0.0446462)
(0.00115797 -0.000213519 -0.0444676)
(0.00146441 -1.79797e-05 -0.0453012)
(0.00163843 0.000429816 -0.0440743)
(0.000917227 -0.000265871 -0.0415569)
(0.00113794 -0.000209743 -0.0460959)
(0.00136154 -4.2634e-05 -0.045506)
(0.00137609 0.000115526 -0.0460896)
(0.00160069 2.28689e-06 -0.0468517)
(0.0013587 -9.85799e-05 -0.0473544)
(0.00164496 0.000670672 -0.0456277)
(0.00171461 0.000681016 -0.0456507)
(-0.00119101 -0.000855584 -0.0471888)
(-0.00108906 0.000413074 -0.0491606)
(-0.00141239 0.000497533 -0.0523073)
(-0.00120779 0.000452727 -0.0512058)
(-0.00181323 -7.61814e-05 -0.0526897)
(0.00144961 0.000590826 -0.0415881)
(0.000909229 -0.000264754 -0.0416634)
(0.00158619 -6.4501e-05 -0.0460449)
(0.00162813 0.000665183 -0.0445072)
(-0.0015599 -0.00172775 -0.048641)
(0.00148036 0.000642495 -0.0418912)
(0.000806903 -0.000303431 -0.0407414)
(0.0013916 -0.00013451 -0.0453686)
(0.00135883 -0.000121413 -0.0468282)
(0.00164617 0.000423149 -0.0442922)
(0.00139587 0.000399035 -0.0434921)
(0.00133867 -7.68814e-05 -0.0453409)
(0.00153058 0.0002341 -0.0461163)
(0.00172945 0.000710959 -0.0454042)
(0.00161061 -8.59252e-06 -0.046441)
(0.00143374 0.000133478 -0.0453632)
(-0.00113148 0.000363689 -0.0508239)
(-0.00180449 -0.00163484 -0.050969)
(-0.00183581 -0.00045363 -0.0528796)
(0.00120754 -0.000162227 -0.0460798)
(0.00150683 7.95337e-06 -0.0447031)
(0.00159528 -2.84036e-05 -0.0463103)
(0.00175874 0.00068265 -0.045642)
(0.0016405 0.000320433 -0.046104)
(-0.00157507 -0.00173077 -0.0483371)
(-0.00116964 0.000514659 -0.0503977)
(-0.00160883 0.000593812 -0.0525065)
(0.00114768 -0.000352087 -0.0438569)
(0.00148942 -9.95039e-05 -0.0466337)
(0.00156846 6.2392e-05 -0.0437686)
(0.00109247 -0.000261251 -0.0449254)
(0.00182356 -5.53325e-05 -0.0450033)
(-0.000756253 0.000150062 -0.0454637)
(-0.00167908 -0.00158718 -0.0506428)
(-0.000887423 0.000240111 -0.0494393)
(-0.00183717 -0.000532489 -0.052528)
(0.00177172 -0.000762496 -0.0443844)
(0.00126512 -0.000147696 -0.0466083)
(-0.0011755 0.000337626 -0.0506328)
(-0.00165547 -0.000495745 -0.0523207)
(0.00128751 -0.000175781 -0.0454221)
(0.00244984 -0.000953125 -0.0441013)
(0.00142674 -9.1535e-05 -0.0472199)
(0.00147213 -7.46365e-05 -0.0471538)
(0.00146275 -8.39545e-05 -0.0472236)
(-0.0012226 -5.86579e-05 -0.0506956)
(-0.00182176 -0.000516934 -0.0527589)
(0.00152936 0.00038626 -0.0454314)
(0.00159869 -3.13369e-05 -0.046188)
(-0.00172139 -0.00155565 -0.0510699)
(-0.00169676 -0.00166941 -0.0506571)
(-0.00150109 -0.000523641 -0.0522782)
(-0.0016623 -0.000395558 -0.0524176)
(0.00321962 0.00154076 -0.0444378)
(0.00409559 0.0022963 -0.0434188)
(-0.00110454 0.000409615 -0.0502118)
(-0.00182472 -0.00148589 -0.051568)
(-0.0016664 -0.00161304 -0.051005)
(-0.00154441 6.17457e-05 -0.0544042)
(0.00119699 -0.000221518 -0.0464642)
(0.00145914 -8.59577e-05 -0.0470442)
(0.00117008 -0.000208464 -0.046467)
(0.00129502 -0.00018218 -0.0468893)
(-0.000794216 6.08566e-05 -0.0454672)
(-0.00169196 -0.00161891 -0.0511213)
(0.00145913 0.000675939 -0.0418118)
(0.00150542 0.000168129 -0.0456618)
(0.00154291 -5.87114e-05 -0.0465674)
(-0.0012188 -0.000234463 -0.0522897)
(0.00146242 0.000192711 -0.0452391)
(-0.00225452 -0.00288706 -0.0513395)
(-0.0015853 0.000525257 -0.0511966)
(0.00138524 0.000568223 -0.0412815)
(0.00149107 0.000697401 -0.0418019)
(0.00127647 -0.000319757 -0.0454361)
(-0.00122239 -0.000978588 -0.0469299)
(-0.00170725 -0.00166022 -0.0511064)
(0.000766312 -0.000363469 -0.0407573)
(0.00143839 0.000189809 -0.0451654)
(-0.000813076 0.000116897 -0.0458774)
(0.00145324 -0.000198377 -0.0499099)
(0.000937585 -0.000187291 -0.0505149)
(-0.000729546 0.000143781 -0.0481671)
(-0.00176457 -0.000503648 -0.0521607)
(-0.00173038 -0.00146206 -0.0517935)
(-0.00125258 0.000378399 -0.0521721)
(-0.00171529 -0.00153341 -0.0511377)
(-0.00147381 2.20453e-05 -0.0537906)
(0.00130579 -0.000171663 -0.0466703)
(-0.00108138 0.000447633 -0.0508907)
(-0.00102592 0.00043568 -0.0524088)
(-0.00162355 -0.00190894 -0.0504845)
(-0.00149241 2.76708e-05 -0.0533628)
(0.00115494 -0.000469293 -0.0439607)
(0.00145445 0.000625789 -0.0418331)
(-0.00173778 -0.00147516 -0.0516992)
(-0.00228704 -0.00281337 -0.0517089)
(-0.00163796 0.00010196 -0.0531865)
(0.00106785 -9.4631e-05 -0.0393075)
(0.00110682 2.03276e-05 -0.0399924)
(0.00153306 0.000684905 -0.0412095)
(0.00108504 -0.000507573 -0.0432873)
(0.00154732 -0.000912693 -0.0439671)
(-0.00139255 -0.00109654 -0.0462402)
(0.00150546 -9.90412e-05 -0.0463941)
(-0.00165185 -0.00198668 -0.0493625)
(0.00169369 -6.2054e-05 -0.049103)
(-0.00170454 -0.00146262 -0.0519143)
(-0.00110686 0.000406664 -0.0508905)
(-0.00134117 -0.000313213 -0.0522977)
(-0.00237818 -0.00318891 -0.0516399)
(-0.00156132 0.000104406 -0.0531464)
(0.00147019 0.00100195 -0.0408027)
(0.00127463 -0.000217415 -0.0466968)
(0.00121597 -0.000268842 -0.0449713)
(0.00120349 -0.00023915 -0.0463278)
(0.00147431 0.000728954 -0.0420941)
(-0.00117761 -0.000851283 -0.0469855)
(-0.00172006 -0.00202484 -0.049468)
(-0.00172319 -0.00206025 -0.0500482)
(-0.00161765 -0.00197342 -0.0505431)
(-0.00109056 0.000417469 -0.0509654)
(-0.00203647 -0.00227021 -0.0517589)
(-0.00109677 0.000487062 -0.0512207)
(-0.00175443 -0.0015194 -0.051791)
(-0.00122317 0.000451619 -0.052203)
(-0.00163659 -0.00202329 -0.0508973)
(-0.00161877 -0.00198685 -0.0508407)
(-0.00218823 -0.00263992 -0.0517932)
(0.000694994 -0.000411611 -0.0406471)
(0.00141122 0.000614082 -0.0417159)
(0.0014484 -0.000143827 -0.0462023)
(0.00156458 -0.000121537 -0.0467323)
(-0.000834226 0.000125022 -0.0460199)
(-0.001727 -0.00196616 -0.0501338)
(-0.00164651 -0.00203011 -0.0510452)
(-0.00109158 0.000480375 -0.051279)
(-0.00177345 -0.00161427 -0.05176)
(-0.00104292 0.000444515 -0.0524592)
(-0.0010721 0.000417408 -0.0511646)
(-0.00170242 0.00012868 -0.0528972)
(0.0014877 0.000493926 -0.0436402)
(0.000687612 -0.000451958 -0.0400442)
(0.00140281 -8.3444e-05 -0.0447589)
(-0.00108524 0.000482681 -0.0513292)
(-0.00102109 0.000435908 -0.0525286)
(-0.00108422 0.000480913 -0.0513786)
(0.00151708 0.000375768 -0.0443892)
(0.0010647 -0.000576169 -0.043683)
(0.00136525 0.000252136 -0.0436858)
(0.00321426 0.00160655 -0.0443669)
(0.00142092 0.000610576 -0.0415885)
(0.00158684 -0.000118078 -0.0456868)
(-0.00117455 -0.000793852 -0.0469889)
(-0.00170298 -0.00208351 -0.0509012)
(-0.00164156 -0.00208244 -0.051167)
(0.000938384 -0.000358267 -0.0449655)
(0.00135241 -0.000115881 -0.0448398)
(0.00161589 -2.70308e-05 -0.042994)
(-0.00111021 -0.000501821 -0.0467957)
(-0.000776428 0.000240327 -0.0492563)
(-0.00177307 -0.0016701 -0.0517065)
(0.000928994 -0.000287824 -0.039078)
(0.00130151 -0.000149998 -0.0447438)
(-0.00127491 -0.00109621 -0.0494297)
(-0.00113654 0.000440567 -0.0524646)
(-0.00106424 0.000520473 -0.0515319)
(0.00146781 -0.000216395 -0.0429975)
(0.000995329 -0.000448828 -0.044335)
(0.00127762 -0.000377602 -0.0449477)
(0.0012307 -0.000389721 -0.0451259)
(0.00169738 -0.00107934 -0.0454862)
(0.00168879 -2.13996e-05 -0.0500658)
(0.00166075 -3.5602e-05 -0.0501428)
(-0.00154035 0.000543603 -0.0533305)
(0.0010468 -0.000272087 -0.0433385)
(0.00142075 0.00031416 -0.0439916)
(0.00130286 -0.000209385 -0.0464279)
(0.00158531 -0.000107406 -0.0473063)
(-0.00160792 -0.00198564 -0.0509391)
(-0.00108518 0.000459791 -0.0518721)
(-0.00173924 -0.00171431 -0.0518001)
(-0.00122413 0.00059523 -0.0541741)
(0.00169164 0.00125163 -0.0394019)
(0.00162829 -0.00110914 -0.0442649)
(0.00157711 -8.32015e-05 -0.0488104)
(-0.00138185 -0.000392276 -0.0515847)
(-0.00112689 0.000393307 -0.0517514)
(-0.00149986 -0.00179638 -0.0498398)
(-0.00199824 -0.00270862 -0.0507174)
(-0.001825 -0.00166972 -0.0535106)
(-0.00188291 -0.00156911 -0.0538552)
(-0.00156276 0.000147079 -0.0525448)
(-0.00184375 -0.00166679 -0.0534434)
(-0.00115698 0.000786484 -0.0540218)
(0.00153856 -0.000964142 -0.0442959)
(0.00111247 -0.000684204 -0.0435677)
(0.00145716 -0.000918643 -0.0437113)
(0.00153895 -0.000970542 -0.0449709)
(0.000897824 -0.00029069 -0.0455576)
(0.00156849 -7.49782e-05 -0.0485482)
(0.00167169 -8.49092e-05 -0.0495764)
(-0.00114089 0.000370287 -0.0517229)
(-0.00168604 -0.00203789 -0.0505009)
(0.00278652 0.000771417 -0.0435563)
(0.00138328 -0.000199543 -0.0462201)
(0.00119292 -0.000481368 -0.0445911)
(-0.00122612 0.000390867 -0.0501773)
(-0.00113535 -0.00119277 -0.0498099)
(0.0009182 -0.000286695 -0.0410453)
(0.00126756 0.00160835 -0.0442206)
(0.000950916 -0.000581469 -0.0431787)
(0.00142435 -0.000210435 -0.0464157)
(0.00166359 -5.62228e-05 -0.050448)
(-0.00177961 -0.00170898 -0.0523325)
(-0.00166672 -0.000598409 -0.0544971)
(0.000716467 -0.000851378 -0.0357716)
(0.000846003 -0.000449962 -0.0448006)
(0.00146445 0.000495238 -0.0430549)
(0.000924264 -0.000560994 -0.043167)
(0.00116732 -0.000455589 -0.0449339)
(0.00177166 0.000411062 -0.0449485)
(0.00168549 -0.000968285 -0.0445082)
(0.00162436 -0.00105124 -0.0459417)
(-0.00167974 -0.00211419 -0.0516496)
(-0.00176723 -0.00060033 -0.054687)
(0.0012523 -0.000227164 -0.0454548)
(0.00110832 -0.000399563 -0.0450903)
(0.00170913 -0.00176288 -0.0456993)
(0.00151407 -0.000998308 -0.0451122)
(0.00154688 -0.000111767 -0.048701)
(-0.00179957 -0.00170542 -0.0526897)
(-0.00180086 -0.000305318 -0.0546255)
(0.00102302 -8.08277e-05 -0.038537)
(0.00146291 0.000498362 -0.0428912)
(0.00168593 -0.00144159 -0.0426904)
(0.00166612 0.00033164 -0.0443556)
(0.00151449 -0.00103092 -0.0443758)
(0.00171067 -0.000206591 -0.0499085)
(0.00172253 -0.00119241 -0.0451595)
(0.00172913 -7.17639e-05 -0.0502544)
(-0.00138453 -0.000400259 -0.0520574)
(0.00173804 -0.000225839 -0.0507489)
(-0.00117057 -0.00110246 -0.0502335)
(-0.00114037 -0.00111269 -0.0499018)
(-0.0011354 -7.69628e-06 -0.0535127)
(0.00255658 -0.00117333 -0.0446387)
(0.00113952 -0.00042318 -0.0452403)
(0.00170966 -0.00103218 -0.0453986)
(-0.000737024 0.000478486 -0.0454913)
(0.00116148 -0.000225466 -0.045695)
(0.00152838 -0.00015125 -0.0480362)
(0.00151703 -0.000121008 -0.0472571)
(0.00163191 -8.84851e-05 -0.0499948)
(-0.00107334 0.000144851 -0.0499671)
(0.00171187 -1.996e-05 -0.0464991)
(-0.00184552 -0.00179974 -0.051992)
(0.00173196 -0.000253955 -0.0491739)
(0.000803413 -0.000816985 -0.0400541)
(0.000759647 -0.000413975 -0.040838)
(0.00126441 -0.000219048 -0.0451229)
(0.00155638 0.00106024 -0.0431108)
(0.00167137 -0.00184551 -0.0454232)
(0.00158053 -0.000151319 -0.0482086)
(0.00154022 -0.000152229 -0.0481626)
(-0.00183726 -0.00184528 -0.0535471)
(-0.00152994 0.00011988 -0.052255)
(-0.00153027 0.000572357 -0.0547579)
(0.00116586 -0.000325187 -0.0451932)
(0.00162893 -0.00110845 -0.0453743)
(0.00136368 -0.000376944 -0.0466492)
(0.0014066 -0.00191978 -0.0477592)
(0.00143143 -0.00200396 -0.0483266)
(0.00186021 0.00112958 -0.0453369)
(0.00169759 -0.00116629 -0.0454466)
(0.00161038 -0.000828106 -0.0477668)
(0.00161327 -0.000826258 -0.0478126)
(0.00163413 0.00159208 -0.0466419)
(-0.00113163 0.000163922 -0.0517376)
(-0.00154911 0.000517212 -0.0540655)
(-0.00180204 -0.000612762 -0.0546967)
(0.00118698 -0.000328852 -0.042823)
(0.00113909 6.42114e-05 -0.0406529)
(0.00268024 0.000366535 -0.041523)
(0.00166555 0.00119291 -0.0391445)
(0.00236856 0.0018137 -0.0430766)
(0.00142521 0.00038311 -0.043756)
(0.00153655 0.00167932 -0.0434588)
(0.00153287 -0.000851702 -0.0450125)
(0.00159213 -0.00077294 -0.0480729)
(0.00302056 -0.000434128 -0.0492983)
(-0.000685306 0.000172358 -0.0489818)
(-0.00169633 -0.00224447 -0.051907)
(-0.00119629 0.000247207 -0.0518092)
(-0.00102195 0.000332759 -0.0531613)
(0.0017201 -0.000242759 -0.050773)
(0.0017738 -0.000256551 -0.0510317)
(-0.00178844 -0.000618773 -0.0549403)
(0.00272688 0.00475363 -0.0398215)
(-0.000927924 0.000253942 -0.0473771)
(0.00187171 0.00109087 -0.0463774)
(0.00163002 -0.00116139 -0.044389)
(0.00154238 -0.00016237 -0.0480584)
(0.000823829 0.00329995 -0.0463436)
(0.00148239 -0.00107908 -0.0431897)
(0.00156691 -0.000811884 -0.0465154)
(0.000911365 6.43827e-05 -0.05088)
(0.00173885 -0.000374662 -0.0489254)
(0.00284007 -0.000494653 -0.0502542)
(-0.00100452 0.000843405 -0.051423)
(-0.00167152 6.71424e-06 -0.0548468)
(-0.00156649 -5.81365e-06 -0.0537674)
(0.000581477 -0.000130467 -0.0504499)
(0.000977066 -0.000200322 -0.0416691)
(0.000948215 -0.000657372 -0.0430142)
(0.0012529 -0.000269813 -0.045116)
(0.00144996 -0.000153627 -0.0438631)
(-0.000708762 0.000195119 -0.0447364)
(0.00143637 -0.000181878 -0.0473962)
(0.00134782 0.00121241 -0.0458831)
(0.00108503 0.00239658 -0.0468638)
(0.00115355 0.0019063 -0.0473343)
(-0.000627167 0.000228258 -0.0489917)
(0.00167207 -0.000167265 -0.0458286)
(0.00141048 -0.00188139 -0.0483376)
(0.00105974 0.00228051 -0.0472979)
(0.00117191 0.00214988 -0.0477816)
(0.0017184 -0.0011468 -0.0469989)
(0.00118696 -0.000283276 -0.0446484)
(0.00119119 0.000142325 -0.040648)
(0.000970071 -0.000403462 -0.0454671)
(0.00136458 -0.000515795 -0.0467486)
(0.0015643 -0.000771618 -0.0470883)
(0.00154023 -0.0008021 -0.0459189)
(0.00160526 -0.000128713 -0.0492419)
(0.00160911 9.83443e-05 -0.0460571)
(0.00174458 -5.58258e-05 -0.0489881)
(0.00171143 -0.000367291 -0.0457996)
(0.00307079 -0.000399018 -0.0500624)
(0.00171744 -0.00117781 -0.0463383)
(0.00171226 -0.0018492 -0.0486859)
(0.00139426 0.00078311 -0.0418614)
(0.00152585 -0.000815341 -0.0453294)
(0.00162106 -0.000136782 -0.0473525)
(0.00128652 0.0017434 -0.047364)
(0.00161919 -0.00177947 -0.0455308)
(0.000852198 0.0032344 -0.0456316)
(0.0015869 0.00141493 -0.046326)
(0.00308884 -0.000403148 -0.0501793)
(0.00180738 -0.00109712 -0.0477859)
(0.00145744 -0.00204621 -0.048842)
(-0.00143079 7.02613e-05 -0.0538319)
(-0.00116384 -2.50881e-05 -0.054382)
(0.00100705 -0.000219678 -0.0402605)
(0.000560532 0.000107804 -0.0430847)
(0.0011856 -0.00038453 -0.0419436)
(0.00131903 -0.000240666 -0.046289)
(-0.000770281 0.000187415 -0.0446691)
(0.00142229 -0.000207383 -0.0472485)
(0.00143186 -0.000186818 -0.0476551)
(0.00147184 -0.000175842 -0.0482196)
(0.00182001 0.00104189 -0.046419)
(0.00152296 -0.000279631 -0.0487357)
(0.00151064 -0.00192741 -0.0485297)
(0.00158274 0.0016582 -0.0468774)
(-0.00171443 -0.0020245 -0.0536897)
(0.00169992 -0.00137081 -0.0458316)
(-0.00116984 6.77275e-05 -0.0542998)
(-0.00117925 7.16347e-05 -0.0541751)
(0.00117676 -0.00042391 -0.0445406)
(0.000925984 -0.000335905 -0.0464442)
(0.00122734 -0.000848466 -0.0428132)
(-0.000859343 0.000141186 -0.0429463)
(0.00248703 -0.00116654 -0.0448871)
(0.00132718 -0.000240708 -0.046399)
(0.00160459 0.00165525 -0.0462197)
(0.00168515 -0.000170728 -0.0491285)
(0.00149614 -0.000554944 -0.0472936)
(0.00156995 -0.000259339 -0.0455775)
(0.00159222 -0.000115513 -0.0468997)
(-0.00229199 -0.000998268 -0.0457358)
(0.00159129 0.00138555 -0.0470818)
(0.000813174 -0.000242644 -0.0508795)
(0.00078614 -0.000172824 -0.0502826)
(0.00178695 -0.000274264 -0.0513681)
(0.00188803 0.000505076 -0.0484585)
(0.00227031 0.000275377 -0.0433859)
(0.00102357 -0.000291505 -0.0432823)
(0.00272982 0.00475686 -0.0394919)
(0.00150028 -0.000733795 -0.0470939)
(0.00123112 0.000154242 -0.0414486)
(0.00130665 -0.000251759 -0.0461763)
(0.00158751 7.68802e-07 -0.0453692)
(0.0022147 0.00170099 -0.042963)
(0.00132737 -0.000234604 -0.0465726)
(0.00149459 -0.00115913 -0.043315)
(0.00162096 -0.000248918 -0.0456825)
(0.00114505 -0.00020202 -0.051187)
(0.00142349 -0.000237481 -0.0515404)
(0.00300407 -0.000396121 -0.0490864)
(0.0013175 -4.36409e-05 -0.0463789)
(0.000902698 -0.000230148 -0.0504515)
(0.000621545 -0.000529734 -0.0418443)
(0.0011226 -0.000169533 -0.0406534)
(0.00101213 -0.000292297 -0.044003)
(0.00145099 0.000515152 -0.0425204)
(0.00307382 0.00146271 -0.044446)
(0.0013975 -0.000240872 -0.0448747)
(-0.000735362 0.000206193 -0.0444149)
(0.00148773 0.00106189 -0.0433256)
(0.00179096 0.00103518 -0.0470463)
(0.00144121 0.000575852 -0.0461356)
(0.0017981 0.00102615 -0.0472345)
(0.00177229 0.000394233 -0.0480415)
(0.0016271 0.00178129 -0.0462795)
(0.000804924 0.00329181 -0.0462536)
(0.001746 -7.8657e-05 -0.0488181)
(0.00156087 -0.00204059 -0.0457507)
(0.00131047 -0.000250873 -0.0516073)
(0.00310196 -0.000379227 -0.0506696)
(0.00131692 -4.79957e-05 -0.0473157)
(0.000301324 -0.000193093 -0.0495493)
(0.00163015 -0.000809229 -0.0503092)
(0.00136856 -0.000279484 -0.0441816)
(0.00113451 -0.000787674 -0.0423858)
(0.00163331 6.17631e-05 -0.0464238)
(-0.000743266 0.000163294 -0.0442408)
(0.00244689 0.00176073 -0.0436757)
(0.001597 0.000453194 -0.0458867)
(-0.00102789 0.000221995 -0.0485816)
(-0.00077161 0.000135386 -0.0454925)
(0.00292749 -0.000513998 -0.0500317)
(0.00167894 0.00181823 -0.0466392)
(0.000841906 -0.000197965 -0.0508451)
(0.001444 -0.00107779 -0.0432027)
(0.00176503 -0.000866482 -0.0488373)
(-0.00128058 2.04456e-05 -0.052663)
(-0.00113896 0.000150526 -0.052872)
(0.00164674 -0.00122841 -0.0461164)
(0.00176441 -0.00141326 -0.0456367)
(0.00136055 -0.000232537 -0.0453038)
(0.00134187 -0.000267305 -0.0445834)
(0.00138387 -0.000258375 -0.0440833)
(0.00130992 -0.000253321 -0.0451963)
(0.00117899 -0.000410461 -0.0416755)
(0.00167149 0.000299852 -0.0463391)
(0.00159583 -0.00184992 -0.0475388)
(0.0016723 0.000300936 -0.0465455)
(-0.00072411 0.000159066 -0.0448451)
(0.00178625 0.00103456 -0.0476066)
(0.00152576 0.000288574 -0.0467009)
(0.00143561 -0.000192999 -0.0480938)
(0.00178779 0.000440986 -0.0488276)
(0.00149132 -0.000269171 -0.0498113)
(0.00190892 0.000487161 -0.0487249)
(-0.00145826 -0.000108032 -0.0541922)
(0.00172598 -0.0011252 -0.047854)
(-0.00108462 -1.25738e-05 -0.0539508)
(0.000671987 -0.000483483 -0.0363594)
(0.00146546 0.000812952 -0.0397601)
(0.00137693 -0.000226605 -0.045006)
(0.00161655 -5.22237e-05 -0.0451532)
(0.00146148 0.00015114 -0.0443794)
(0.00164613 0.00089292 -0.0432591)
(0.0016881 -0.00187664 -0.0485049)
(0.00143421 0.00149877 -0.0433063)
(0.00206883 0.00165677 -0.0432048)
(0.00134318 2.86222e-05 -0.0467779)
(0.00135345 -0.000285431 -0.044752)
(0.00111504 -0.000785396 -0.0419562)
(-0.00114848 -0.000342451 -0.0477838)
(0.00152649 0.00103947 -0.0460274)
(0.00156942 -0.000570189 -0.0484558)
(0.00152899 0.00100951 -0.0461772)
(0.0016094 -8.3058e-05 -0.0482063)
(0.0032345 -0.000378113 -0.0508405)
(0.00142174 -0.000769475 -0.0472008)
(0.00158657 -0.000118432 -0.0500159)
(0.00106302 -0.000763746 -0.0421716)
(0.00147674 0.00101464 -0.042999)
(0.001303 -0.000887481 -0.0428373)
(0.00153863 0.000343335 -0.0482731)
(-0.000814569 0.000161847 -0.0458269)
(0.00188436 0.0015494 -0.0483859)
(0.00149319 -0.000255466 -0.0487892)
(0.0016773 -5.71293e-05 -0.0485549)
(0.00167537 -0.00177978 -0.0477781)
(0.00166053 -0.00162743 -0.0488145)
(-0.000683494 0.000360805 -0.054499)
(-0.00118702 -0.000716614 -0.0498189)
(0.000829428 -0.000799331 -0.04075)
(0.000688651 -0.000623117 -0.0403174)
(0.00120478 0.000404305 -0.0392997)
(0.00137281 -0.00026482 -0.0442572)
(0.00136768 0.000354093 -0.0423317)
(0.00141394 -0.00102873 -0.0431247)
(-0.00208634 0.00038709 -0.0423368)
(0.00160618 -0.000662926 -0.0478861)
(0.00162606 -0.0015153 -0.0454368)
(0.00129601 -0.000879622 -0.0428351)
(0.0014915 0.00318589 -0.0457296)
(0.0016105 0.00135711 -0.0492559)
(0.00142851 -0.000745339 -0.0456421)
(0.00184377 0.000449598 -0.049277)
(0.00159198 -0.00101497 -0.0478261)
(0.00118468 0.000356384 -0.0385375)
(0.00114595 0.000103852 -0.0404591)
(0.00131406 -0.000272082 -0.0450217)
(0.00128934 0.000232236 -0.0420565)
(0.0011366 -0.000213818 -0.0467886)
(0.00164858 0.000512256 -0.0444452)
(-0.000887355 0.000174612 -0.0433826)
(0.00135143 -0.000215228 -0.0474577)
(0.00171185 -0.00133232 -0.0461352)
(0.00146301 -0.00157229 -0.0493684)
(0.00185545 -0.000554731 -0.0508912)
(0.00153716 -0.00189744 -0.0486594)
(0.00149069 -0.00167757 -0.0485613)
(0.00169124 -0.00140487 -0.0459737)
(0.00173016 -0.000840698 -0.0496723)
(0.00169094 -0.000235201 -0.0509308)
(-0.000989067 0.00025676 -0.0540543)
(0.0017332 -5.22841e-06 -0.0490506)
(0.00139846 -0.000226952 -0.0448255)
(0.00146062 -0.000267682 -0.0448785)
(0.00126612 -0.000806676 -0.0422102)
(-0.00238106 -0.000910159 -0.0457715)
(0.00134506 -0.000286834 -0.0441374)
(0.00154395 -0.000662519 -0.0478243)
(0.0012501 -0.000324909 -0.0453058)
(0.00127043 -0.000768528 -0.0418449)
(-0.00114304 -0.00059993 -0.0518496)
(0.00143731 -0.0018419 -0.050153)
(0.00145291 0.000271136 -0.0420239)
(0.00118176 -0.00041115 -0.0431621)
(0.0010329 -2.19989e-05 -0.0391698)
(0.00135939 -0.000237251 -0.0455946)
(0.00109161 0.000222756 -0.0374187)
(0.00148251 0.00019341 -0.044119)
(0.00102755 -0.000428042 -0.0464231)
(0.00154215 -4.88572e-05 -0.0438839)
(-0.000946392 0.00023829 -0.0471206)
(0.00174121 0.00104076 -0.0474913)
(-0.000816949 0.000155623 -0.0459117)
(0.00177254 0.00103032 -0.0483162)
(0.00156682 -0.000145754 -0.0482608)
(0.00128765 -0.00079988 -0.0419451)
(0.00177101 0.00101622 -0.0483812)
(0.00163292 0.00126271 -0.0489176)
(-0.000916388 0.000275186 -0.0543824)
(0.0016826 -0.00102712 -0.0479902)
(0.00156444 0.000194561 -0.0457962)
(0.00130757 -0.000309273 -0.046088)
(0.00129039 -0.000247714 -0.0476638)
(0.00160588 -1.83016e-05 -0.0463453)
(0.00101355 -0.000645968 -0.0434177)
(0.00168534 0.000298215 -0.0472928)
(0.00181316 0.0010215 -0.0484885)
(0.00129817 -0.00023293 -0.0473227)
(0.00182942 0.000364073 -0.0484652)
(0.00169033 -5.89222e-05 -0.051062)
(0.00146 -0.000190117 -0.0485374)
(0.00163605 -6.59646e-05 -0.0508784)
(0.00165236 0.00132926 -0.0491498)
(0.00163318 -0.00156321 -0.0496673)
(0.00145244 -0.000157765 -0.0495938)
(0.0016882 -0.00166405 -0.0491538)
(0.00164698 -0.00124296 -0.0460624)
(0.00163908 -0.00169298 -0.0501356)
(-0.00123981 9.02074e-05 -0.0543847)
(-0.00124423 -3.80394e-05 -0.0544606)
(-0.000999253 -0.000102559 -0.0539284)
(0.00147093 -0.000390104 -0.0443833)
(0.00329277 0.00161028 -0.0446434)
(0.0013816 -0.000219205 -0.0451645)
(0.00159625 0.000543377 -0.04403)
(0.00144057 -0.000225791 -0.0456827)
(0.00131138 -0.000274045 -0.0448284)
(0.00132592 -0.000439247 -0.0445637)
(0.00293542 0.00173918 -0.0412549)
(0.001806 0.00100401 -0.0483311)
(0.00100182 -0.000188429 -0.0487619)
(0.0011706 0.00131828 -0.0449627)
(0.00172077 -0.000233452 -0.0512372)
(0.0017221 -0.000190791 -0.0508923)
(0.00171027 -0.00031221 -0.0507518)
(0.00172576 -0.00023588 -0.0508424)
(0.00157116 -4.60741e-05 -0.0491613)