/*--------------------------------*- C++ -*----------------------------------*\
| =========                 |                                                 |
| \\      /  F ield         | OpenFOAM: The Open Source CFD Toolbox           |
|  \\    /   O peration     | Version:  plus.master                           |
|   \\  /    A nd           | Web:      www.OpenFOAM.com                      |
|    \\/     M anipulation  |                                                 |
\*---------------------------------------------------------------------------*/
FoamFile
{
    version     2.0;
    format      ascii;
    class       surfaceScalarField;
    location    "11.4";
    object      alphaPhi;
}
// * * * * * * * * * * * * * * * * * * * * * * * * * * * * * * * * * * * * * //

dimensions      [0 3 -1 0 0 0 0];

internalField   nonuniform List<scalar> 
138768
(
3.00386e-07
1.51492e-06
4.58259e-07
-6.79518e-07
-1.59451e-06
1.8505e-07
2.47966e-07
8.3147e-07
-9.63726e-07
-8.74613e-07
9.99005e-07
1.2419e-06
-1.18097e-06
-2.10716e-06
9.65236e-07
1.25177e-06
-9.84724e-07
-2.47534e-06
4.30936e-07
8.29779e-07
-8.92462e-07
-1.79279e-06
-2.49079e-07
5.16877e-07
-7.44665e-07
1.04222e-06
3.30065e-07
-1.90841e-06
-1.25698e-06
-5.03856e-07
2.12114e-06
8.04863e-07
-4.20862e-07
4.47773e-08
6.07146e-07
1.89673e-06
-3.9839e-07
5.08283e-07
3.00183e-06
-1.31191e-06
8.21783e-07
3.22251e-06
-7.9816e-07
1.37622e-07
2.33025e-06
-4.03567e-07
4.39913e-07
1.56167e-06
1.3312e-06
4.62967e-07
-1.15509e-06
2.35442e-07
1.31971e-06
1.27108e-06
-7.04745e-07
4.85305e-08
8.57284e-07
2.69632e-06
5.98124e-08
8.21612e-08
1.21616e-06
-1.20097e-07
6.1414e-08
1.57955e-06
-5.87585e-07
1.26692e-07
1.32524e-06
-1.0402e-06
7.6479e-07
2.15058e-06
8.89671e-07
7.03924e-07
-1.30267e-06
9.98901e-07
-2.07982e-07
1.63901e-06
-1.11017e-06
7.83415e-07
-3.53968e-07
3.62479e-06
4.9736e-08
-8.40455e-08
1.5083e-06
-6.21777e-08
-3.11722e-08
2.04531e-07
-9.41814e-07
-1.06641e-07
1.82897e-06
-1.0362e-06
-4.54646e-08
2.67632e-06
5.37253e-08
9.45942e-07
-1.14615e-06
6.3151e-07
-1.34659e-06
1.40073e-06
-8.93541e-07
1.98138e-07
-4.06553e-07
2.97776e-06
7.51986e-08
-3.06746e-07
1.22576e-06
-1.34133e-07
-6.6101e-07
1.19045e-06
-8.08186e-07
-8.56646e-09
1.41212e-06
-1.18986e-06
-1.55503e-07
2.32724e-06
-5.21381e-07
8.44658e-07
-1.4594e-06
-3.23674e-07
-1.04174e-06
8.97782e-07
-5.63454e-07
1.99172e-07
3.13689e-08
1.98884e-06
-1.96986e-07
-8.27843e-07
3.14438e-06
-1.0462e-06
-9.45485e-07
3.44508e-06
-8.95105e-07
5.48001e-08
2.4274e-06
-6.86824e-07
5.6248e-07
1.71327e-06
-4.271e-07
5.42603e-07
-1.32378e-06
5.09483e-07
5.00971e-07
-9.12072e-07
-1.14024e-06
4.32609e-07
9.28398e-07
-7.89131e-07
-9.83455e-07
1.44426e-06
-8.55432e-07
-2.39998e-06
1.52352e-06
-1.0521e-06
-2.7367e-06
1.04099e-06
-6.08803e-07
-2.04178e-06
6.11891e-07
-3.24596e-07
3.35248e-07
-2.02625e-06
-7.7613e-07
6.90858e-07
2.29587e-06
9.16868e-07
-1.17691e-06
-2.26862e-06
-2.97865e-08
2.3167e-06
1.49369e-06
-2.25839e-06
-9.54159e-07
1.98699e-06
2.18988e-06
-2.0105e-06
-1.78672e-06
1.70071e-06
2.23296e-06
-1.84964e-06
-2.21574e-06
1.70693e-06
1.43545e-06
-1.88386e-06
-2.35772e-06
1.52943e-06
9.16682e-07
-1.78716e-06
1.30026e-06
7.24461e-07
-2.42103e-06
-1.63134e-06
1.02485e-06
2.04532e-06
1.46496e-06
-1.4345e-06
3.84843e-07
2.03999e-06
2.94387e-06
-7.04267e-07
1.33942e-06
4.46145e-06
-1.91565e-06
8.38312e-07
4.73488e-06
-2.56711e-06
1.18767e-06
3.3232e-06
-2.4949e-06
1.36462e-06
1.78624e-06
9.20329e-07
8.63132e-07
-2.51535e-06
1.33164e-06
1.2334e-06
2.32081e-06
-1.56928e-06
4.28521e-07
1.13234e-06
4.20905e-06
2.89757e-08
1.3804e-07
2.92057e-06
-3.17401e-07
4.05653e-08
2.2921e-06
-1.83197e-06
3.72707e-07
3.99025e-06
-2.24455e-06
9.97985e-07
2.92972e-06
5.98721e-07
1.16781e-06
-2.38699e-06
1.65775e-06
-1.44183e-07
3.00325e-06
-1.6445e-06
7.51156e-07
-3.93664e-07
5.525e-06
1.13199e-08
-8.34213e-08
2.07633e-06
-1.72782e-07
1.78532e-08
4.42066e-07
-1.53425e-06
-1.17252e-07
3.46366e-06
-1.94522e-06
1.25288e-07
3.95991e-06
3.26277e-07
1.5047e-06
-2.2318e-06
1.56075e-06
-1.19597e-06
2.58235e-06
-1.69059e-06
5.87256e-07
-1.40612e-06
4.50296e-06
3.27019e-08
-8.89274e-07
2.55072e-06
-1.23806e-07
-4.46627e-07
1.56977e-06
-1.70014e-06
-5.19301e-07
3.54224e-06
-2.2403e-06
-4.13801e-07
3.40669e-06
-2.87347e-08
1.38788e-06
-2.42858e-06
1.45954e-06
-1.68998e-06
1.67275e-06
-1.74039e-06
7.53252e-07
-1.90293e-06
3.40727e-06
-4.50324e-07
-1.72311e-06
4.79072e-06
-1.76915e-06
-1.48027e-06
5.14067e-06
-2.83535e-06
-1.17054e-06
3.95433e-06
-2.79019e-06
-7.40336e-07
2.14891e-06
-5.16288e-07
9.72655e-07
-2.73262e-06
1.12472e-06
1.01858e-06
-1.52466e-06
-1.80739e-06
3.36957e-07
1.74436e-06
-1.9312e-06
-8.95361e-07
2.66796e-06
-1.71435e-06
-2.11758e-06
2.82661e-06
-1.56113e-06
-2.72516e-06
1.88707e-06
-1.40919e-06
-2.7867e-06
1.08553e-06
-1.15265e-06
7.39865e-07
-2.74334e-06
-9.64021e-07
1.19947e-06
2.77569e-06
1.59947e-06
-1.7944e-06
-2.86337e-06
3.02332e-07
3.08419e-06
2.21614e-06
-2.90942e-06
-7.13632e-07
2.87932e-06
3.04495e-06
-2.71823e-06
-1.68239e-06
2.62381e-06
3.17867e-06
-2.60072e-06
-2.34254e-06
2.70188e-06
2.16404e-06
-2.77037e-06
-2.74144e-06
2.39419e-06
1.59444e-06
-2.67306e-06
2.01484e-06
1.4107e-06
-2.95974e-06
-2.48273e-06
1.66071e-06
2.37141e-06
2.25801e-06
-2.04992e-06
8.71629e-07
2.94106e-06
3.8764e-06
-5.26992e-07
2.13506e-06
5.75091e-06
-2.21122e-06
1.47048e-06
6.04555e-06
-3.12857e-06
2.56627e-06
4.23512e-06
-3.23573e-06
2.03704e-06
2.25062e-06
1.34265e-06
1.5419e-06
-3.24216e-06
2.32416e-06
1.28145e-06
3.39952e-06
-2.3128e-06
9.83304e-07
1.33915e-06
5.48264e-06
8.16611e-08
1.90175e-07
3.55948e-06
-6.20851e-07
2.6895e-08
2.87019e-06
-3.51152e-06
6.94359e-07
5.26066e-06
-3.31729e-06
1.19328e-06
3.5792e-06
6.94422e-07
1.80064e-06
-3.30179e-06
2.489e-06
-2.34182e-07
4.35177e-06
-2.32197e-06
1.05256e-06
-4.95589e-07
7.22716e-06
3.03623e-10
-9.08867e-08
2.59628e-06
-2.32088e-07
1.34416e-08
7.20417e-07
-3.57786e-06
-2.40219e-07
4.54646e-06
-3.2171e-06
-3.06462e-08
4.82308e-06
1.51341e-07
2.10581e-06
-3.27505e-06
2.47092e-06
-1.48229e-06
3.74292e-06
-2.38342e-06
1.05134e-06
-1.97332e-06
5.99215e-06
5.33497e-08
-1.40433e-06
3.21223e-06
-2.76899e-07
-7.85063e-07
2.05077e-06
-3.46325e-06
-1.36563e-06
4.5453e-06
-3.29057e-06
-9.649e-07
4.16826e-06
-4.27956e-07
1.99614e-06
-3.3196e-06
2.18306e-06
-2.16821e-06
2.56352e-06
-2.3878e-06
1.30262e-06
-2.6264e-06
4.46215e-06
-2.64883e-07
-2.57062e-06
6.25402e-06
-2.09271e-06
-2.33515e-06
6.42338e-06
-3.55693e-06
-2.15161e-06
5.09563e-06
-3.58172e-06
-1.55232e-06
2.7612e-06
-1.19363e-06
1.63298e-06
-3.47607e-06
1.6434e-06
1.7417e-06
-2.153e-06
-2.38176e-06
6.58671e-07
2.61638e-06
-2.51358e-06
-6.79238e-07
3.76772e-06
-2.33242e-06
-2.05517e-06
4.04598e-06
-2.17867e-06
-2.91336e-06
2.78636e-06
-2.19279e-06
-3.20667e-06
1.78405e-06
-1.95868e-06
1.43591e-06
-3.29944e-06
-1.79638e-06
1.95864e-06
3.26884e-06
2.9257e-06
-2.85259e-06
-3.70093e-06
8.43798e-07
3.62962e-06
3.39091e-06
-3.68942e-06
-3.95322e-07
3.61665e-06
4.12373e-06
-3.45626e-06
-1.5705e-06
3.38603e-06
4.29653e-06
-3.32837e-06
-2.45149e-06
3.37518e-06
3.35271e-06
-3.68262e-06
-3.22499e-06
3.23671e-06
2.91448e-06
-3.78331e-06
2.91242e-06
2.77632e-06
-3.81337e-06
-3.68926e-06
2.26293e-06
2.62163e-06
3.47788e-06
-2.83554e-06
1.3585e-06
3.47901e-06
4.9315e-06
-4.0632e-07
2.73707e-06
6.56304e-06
-2.56919e-06
1.70994e-06
6.37335e-06
-3.40753e-06
3.27729e-06
5.17161e-06
-3.81649e-06
2.57019e-06
3.32601e-06
1.92836e-06
2.86954e-06
-4.15941e-06
2.9281e-06
1.33565e-06
4.65855e-06
-2.90122e-06
1.321e-06
1.3279e-06
6.56327e-06
4.04004e-09
1.45592e-07
3.43199e-06
-7.64202e-07
7.67042e-08
2.5165e-06
-4.37805e-06
8.15625e-07
6.35566e-06
-4.1491e-06
1.45256e-06
4.46765e-06
8.89941e-07
3.03146e-06
-4.34129e-06
2.9682e-06
-3.21808e-07
5.76204e-06
-2.72117e-06
7.47359e-07
-5.11318e-07
6.89644e-06
-1.46864e-07
-6.57435e-08
2.17584e-06
-4.33966e-07
3.97752e-08
1.00588e-06
-5.12478e-06
-2.80114e-07
5.53594e-06
-4.31036e-06
-1.56369e-07
5.61786e-06
-1.10304e-07
3.23144e-06
-4.43518e-06
3.06289e-06
-1.76918e-06
5.03042e-06
-2.90288e-06
1.17593e-06
-2.3947e-06
6.55916e-06
3.77998e-09
-1.50851e-06
2.67316e-06
-2.56319e-07
-6.25381e-07
1.69595e-06
-4.86244e-06
-1.85458e-06
5.18383e-06
-4.26887e-06
-1.58229e-06
5.00059e-06
-1.1351e-06
3.15344e-06
-4.40119e-06
2.6496e-06
-2.62993e-06
3.79593e-06
-3.02124e-06
1.69169e-06
-3.013e-06
5.65185e-06
-1.77485e-07
-3.16362e-06
6.60401e-06
-2.41581e-06
-2.98975e-06
5.84732e-06
-3.99962e-06
-2.67363e-06
6.12966e-06
-4.20971e-06
-2.36687e-06
3.75588e-06
-2.21755e-06
2.92232e-06
-4.41638e-06
2.25229e-06
3.05217e-06
-3.03886e-06
-3.15422e-06
1.11025e-06
3.81345e-06
-3.06805e-06
-4.23398e-07
4.9625e-06
-2.82466e-06
-2.03952e-06
5.31592e-06
-2.64365e-06
-3.00401e-06
3.9528e-06
-2.87557e-06
-3.64088e-06
3.05792e-06
-3.00361e-06
2.79629e-06
-4.09333e-06
-3.12515e-06
2.24298e-06
3.01168e-06
-3.34169e-06
-3.65844e-06
4.67138e-06
1.04495e-06
3.25358e-06
-3.69454e-06
5.02984e-06
-1.6716e-07
3.09608e-06
-3.40085e-06
5.63966e-06
-1.25671e-06
2.79186e-06
-3.2531e-06
5.84745e-06
-2.15154e-06
3.04314e-06
-3.75678e-06
4.96118e-06
-3.05512e-06
3.24565e-06
-4.01856e-06
4.59073e-06
3.06853e-06
-3.83774e-06
-3.98768e-06
4.47842e-06
2.18248e-06
2.2022e-06
-3.05307e-06
5.15775e-06
1.19003e-06
2.80168e-06
6.37577e-06
-5.02152e-07
2.16435e-06
7.48538e-06
-2.39213e-06
1.06492e-06
6.70965e-06
-2.89063e-06
2.2343e-06
6.47923e-06
-3.54693e-06
2.35771e-06
4.87045e-06
2.01182e-06
-4.16129e-06
4.54121e-06
2.15426e-06
1.05034e-06
-2.65491e-06
6.31102e-06
9.03801e-07
7.2164e-07
7.39737e-06
-1.63039e-07
3.82435e-09
1.93977e-06
-7.62492e-07
-6.14482e-09
1.25899e-06
-3.35666e-06
5.33984e-07
7.40541e-06
-3.7901e-06
1.41247e-06
5.84659e-06
9.19293e-07
-4.32859e-06
4.6628e-06
1.40662e-06
-2.40884e-07
-2.14376e-06
7.45033e-06
7.61924e-08
-2.3545e-07
5.51559e-06
-1.67868e-07
-4.05453e-08
7.76734e-07
1.86491e-08
-3.61096e-09
6.81102e-07
-4.32862e-06
-2.28231e-07
6.18269e-06
-4.06624e-06
-1.5047e-07
6.91861e-06
-2.79999e-07
-4.45382e-06
4.81889e-06
2.13262e-06
-1.52042e-06
-2.53624e-06
6.71367e-06
5.32235e-07
-1.76794e-06
6.70617e-06
-6.61608e-08
-7.94613e-07
6.95695e-07
-1.0735e-07
-1.41049e-07
5.97978e-07
-3.92961e-06
-1.188e-06
5.62411e-06
-3.91704e-06
-1.51247e-06
6.34995e-06
-1.42355e-06
-4.38123e-06
4.76146e-06
2.28001e-06
-2.50251e-06
-3.01775e-06
5.51581e-06
1.22628e-06
-2.51668e-06
7.1649e-06
-2.86899e-07
-2.30022e-06
6.6455e-06
-2.07568e-06
-1.59925e-06
4.99157e-06
-3.31128e-06
-2.09187e-06
7.3103e-06
-3.83238e-06
-2.47611e-06
5.24056e-06
-2.6225e-06
-4.30881e-06
4.59773e-06
2.31121e-06
-3.28594e-06
-3.30612e-06
4.83024e-06
1.12185e-06
-3.01681e-06
5.50281e-06
-2.59523e-07
-2.51173e-06
6.55531e-06
-1.6485e-06
-2.23482e-06
6.88541e-06
-2.50267e-06
-2.83441e-06
5.54956e-06
-3.27178e-06
-3.38491e-06
4.73611e-06
-3.88994e-06
-3.7222e-06
4.51422e-06
-2.28885e-06
-2.3724e-07
1.68302e-07
4.49396e-07
-2.48063e-06
-4.3202e-07
1.77427e-07
4.48689e-07
-2.77209e-06
-2.83402e-07
1.82973e-07
3.91734e-07
-3.10815e-06
-1.98217e-07
1.75876e-07
3.57591e-07
-3.44655e-06
-1.60435e-07
1.598e-07
3.38197e-07
-3.7686e-06
-1.34912e-07
1.36523e-07
3.21115e-07
-4.06852e-06
-1.13883e-07
1.0614e-07
3.07681e-07
-9.72521e-08
7.0426e-08
2.94487e-07
-4.33737e-06
-1.73766e-06
1.17515e-07
2.28156e-07
-2.26915e-06
-1.43355e-07
2.41878e-07
-2.68955e-06
-1.08862e-07
2.46551e-07
-3.07569e-06
-4.95039e-08
2.37431e-07
-3.43139e-06
-2.46214e-08
2.18501e-07
-3.74768e-06
-1.01485e-08
1.91311e-07
-4.01898e-06
1.30187e-09
1.56908e-07
7.88199e-09
1.16344e-07
-4.24047e-06
-1.70666e-06
2.49061e-07
2.71651e-07
-2.19124e-06
7.30776e-08
2.69238e-07
-2.63639e-06
5.7175e-08
2.79782e-07
-3.05063e-06
8.91911e-08
2.74264e-07
-3.42026e-06
9.16349e-08
2.53234e-07
-3.74471e-06
9.17755e-08
2.22333e-07
-4.01634e-06
8.99576e-08
1.82788e-07
8.22638e-08
1.36852e-07
-4.22787e-06
-1.45449e-06
2.58068e-07
2.99429e-07
-1.98176e-06
3.18537e-07
2.81463e-07
-2.45763e-06
2.44401e-07
2.88324e-07
-2.87565e-06
2.29206e-07
2.79211e-07
-3.25313e-06
2.11733e-07
2.55982e-07
-3.57957e-06
1.93625e-07
2.23256e-07
-3.84119e-06
1.71681e-07
1.83202e-07
1.54534e-07
1.37328e-07
-4.05253e-06
-1.79801e-06
3.09374e-07
2.87289e-07
-2.2034e-06
4.69321e-07
2.54281e-07
-2.70396e-06
4.7016e-07
2.74571e-07
-3.13512e-06
3.99413e-07
2.61058e-07
-3.5201e-06
3.61322e-07
2.35194e-07
-3.85361e-06
3.26134e-07
2.00656e-07
-4.13294e-06
2.93754e-07
1.5687e-07
2.71824e-07
1.06909e-07
-4.35726e-06
-1.83904e-06
6.00692e-07
2.2372e-07
-2.33293e-06
7.37622e-07
2.25587e-07
-2.76321e-06
6.6705e-07
2.3339e-07
-3.13768e-06
5.48775e-07
2.25127e-07
-3.47261e-06
4.9359e-07
2.02624e-07
-3.77407e-06
4.57009e-07
1.71379e-07
-4.04172e-06
4.28487e-07
1.32001e-07
4.06932e-07
8.60108e-08
-4.26364e-06
-2.36803e-06
1.61377e-07
7.79403e-07
-2.61639e-06
1.73306e-07
8.14153e-07
-2.85321e-06
1.79003e-07
7.24648e-07
-3.13527e-06
1.69318e-07
6.61696e-07
-3.43566e-06
1.52026e-07
6.41884e-07
-3.73948e-06
1.25576e-07
6.34957e-07
-4.03209e-06
9.0623e-08
6.30374e-07
4.81054e-08
6.21005e-07
-4.29441e-06
-2.87284e-06
-1.33667e-07
3.93098e-07
3.60532e-07
-3.33602e-06
-1.03284e-07
4.18394e-07
3.25321e-07
-3.77867e-06
-8.1537e-08
4.17787e-07
2.89533e-07
-4.18954e-06
-6.53023e-08
3.92158e-07
2.59969e-07
-4.55631e-06
-5.37438e-08
3.45479e-07
2.34867e-07
-4.86935e-06
-4.49149e-08
2.8173e-07
2.1284e-07
-5.12374e-06
-3.78015e-08
2.05391e-07
1.93046e-07
-3.16797e-08
1.20314e-07
1.75083e-07
-5.31708e-06
-2.98461e-06
2.61049e-08
5.37835e-07
-3.44225e-06
4.09407e-08
5.55157e-07
-3.87845e-06
5.16029e-08
5.49252e-07
-4.27949e-06
5.75863e-08
5.15414e-07
-4.62986e-06
5.87051e-08
4.5637e-07
-4.91769e-06
5.70633e-08
3.76777e-07
-5.13552e-06
5.41135e-08
2.8249e-07
5.06135e-08
1.79001e-07
-5.28066e-06
-2.91372e-06
1.83418e-07
6.41226e-07
-3.4184e-06
1.71085e-07
6.43844e-07
-3.88477e-06
1.61485e-07
6.36398e-07
-4.30268e-06
1.51732e-07
5.97897e-07
-4.65951e-06
1.39306e-07
5.29751e-07
-4.94348e-06
1.26185e-07
4.37455e-07
-5.14828e-06
1.13462e-07
3.28378e-07
1.01679e-07
2.0943e-07
-5.27176e-06
-2.84534e-06
4.00775e-07
6.9552e-07
-3.39786e-06
3.33976e-07
6.71043e-07
-3.89349e-06
2.86877e-07
6.58473e-07
-4.33139e-06
2.5361e-07
6.15046e-07
-4.70213e-06
2.25e-07
5.40773e-07
-4.99453e-06
2.00235e-07
4.41229e-07
-5.20147e-06
1.79069e-07
3.24229e-07
1.60966e-07
1.9701e-07
-5.32061e-06
-2.96974e-06
5.80443e-07
6.48585e-07
-3.48635e-06
4.77754e-07
6.27143e-07
-3.95314e-06
4.13797e-07
6.14695e-07
-4.37195e-06
3.63183e-07
5.70623e-07
-4.73065e-06
3.21785e-07
4.97247e-07
-5.01656e-06
2.86719e-07
4.00114e-07
-5.22407e-06
2.5679e-07
2.86676e-07
2.31013e-07
1.62931e-07
-5.35003e-06
-3.14118e-06
6.85341e-07
5.27364e-07
-3.57549e-06
6.04903e-07
5.32524e-07
-3.99678e-06
5.46072e-07
5.22142e-07
-4.38613e-06
4.95445e-07
4.81973e-07
-4.72924e-06
4.51882e-07
4.15555e-07
-5.01297e-06
4.13512e-07
3.28268e-07
-5.22944e-06
3.789e-07
2.26293e-07
3.46959e-07
1.13666e-07
-5.37315e-06
-3.10548e-06
3.87277e-07
8.21789e-07
-3.50338e-06
4.09977e-07
7.66334e-07
-3.89463e-06
4.06265e-07
7.10132e-07
-4.26674e-06
3.75537e-07
6.61581e-07
-4.60371e-06
3.22134e-07
6.18819e-07
-4.89476e-06
2.50566e-07
5.79623e-07
-5.1333e-06
1.65543e-07
5.42694e-07
6.96313e-08
5.07098e-07
-5.31482e-06
-3.65036e-06
8.49016e-08
8.04369e-07
1.94599e-07
-4.34973e-06
9.59762e-08
8.78559e-07
1.43493e-07
-5.05101e-06
1.08061e-07
9.0817e-07
1.03026e-07
-5.73974e-06
1.15926e-07
8.93815e-07
7.13068e-08
-6.39694e-06
1.19012e-07
8.36927e-07
4.68151e-08
-7.00065e-06
1.18343e-07
7.38768e-07
2.83999e-08
-7.52589e-06
1.15076e-07
6.0066e-07
1.50536e-08
1.10348e-07
4.26569e-07
5.89684e-09
-7.94833e-06
-3.87864e-06
1.94386e-07
1.0651e-06
-4.54554e-06
1.90789e-07
1.12751e-06
-5.22345e-06
1.88651e-07
1.1467e-06
-5.89132e-06
1.83024e-07
1.11645e-06
-6.52636e-06
1.73866e-07
1.03667e-06
-7.10219e-06
1.62564e-07
9.08379e-07
-7.58766e-06
1.50192e-07
7.3288e-07
1.37338e-07
5.14888e-07
-7.95037e-06
-3.94705e-06
2.31853e-07
1.24917e-06
-4.61961e-06
2.13426e-07
1.29391e-06
-5.2982e-06
1.96567e-07
1.30709e-06
-5.96345e-06
1.78809e-07
1.26739e-06
-6.59192e-06
1.60137e-07
1.17201e-06
-7.15555e-06
1.41981e-07
1.0218e-06
-7.62028e-06
1.24982e-07
8.18352e-07
1.09135e-07
5.67139e-07
-7.94977e-06
-3.95865e-06
2.88686e-07
1.32242e-06
-4.6509e-06
2.31296e-07
1.34578e-06
-5.33894e-06
1.89385e-07
1.35389e-06
-6.00772e-06
1.53492e-07
1.30917e-06
-6.63548e-06
1.22112e-07
1.20662e-06
-7.19487e-06
9.55904e-08
1.04708e-06
-7.65191e-06
7.37963e-08
8.32448e-07
5.61116e-08
5.68666e-07
-7.97062e-06
-4.00471e-06
3.68911e-07
1.25341e-06
-4.69653e-06
2.75626e-07
1.27482e-06
-5.38101e-06
2.09091e-07
1.27972e-06
-6.04561e-06
1.554e-07
1.23347e-06
-6.67e-06
1.12104e-07
1.13179e-06
-7.22788e-06
7.80711e-08
9.75616e-07
-7.68641e-06
5.2093e-08
7.67017e-07
3.27529e-08
5.12073e-07
-8.01207e-06
-4.0741e-06
4.3891e-07
1.05557e-06
-4.72686e-06
3.61324e-07
1.09967e-06
-5.39052e-06
2.87577e-07
1.10746e-06
-6.04369e-06
2.24786e-07
1.06587e-06
-6.66404e-06
1.7393e-07
9.74212e-07
-7.22572e-06
1.33998e-07
8.34169e-07
-7.69874e-06
1.03477e-07
6.48054e-07
8.06073e-08
4.2179e-07
-8.05471e-06
-3.92196e-06
7.97258e-07
6.51935e-07
-4.56879e-06
8.62672e-07
5.55805e-07
-5.23133e-06
8.82793e-07
4.73908e-07
-5.89209e-06
8.56944e-07
4.04438e-07
-6.52881e-06
7.87131e-07
3.45838e-07
-7.11658e-06
6.75432e-07
2.97051e-07
-7.62895e-06
5.24306e-07
2.57179e-07
3.39153e-07
2.25515e-07
-8.04338e-06
-5.01678e-06
3.38201e-07
1.64674e-06
2.30635e-08
-6.28331e-06
3.27943e-07
1.85003e-06
-3.22361e-08
-7.5954e-06
3.34801e-07
1.95504e-06
-6.93662e-08
-8.88015e-06
3.34409e-07
1.93887e-06
-9.44863e-08
-1.00369e-05
3.25375e-07
1.77951e-06
-1.1096e-07
-1.09525e-05
3.09556e-07
1.46615e-06
-1.2127e-07
-1.15201e-05
2.89038e-07
1.0067e-06
-1.2726e-07
2.66072e-07
4.20508e-07
-1.29849e-07
-1.16501e-05
-5.26599e-06
3.92709e-07
2.11761e-06
-6.49874e-06
3.6916e-07
2.3197e-06
-7.79817e-06
3.58358e-07
2.42302e-06
-9.08393e-06
3.43138e-07
2.39387e-06
-1.02452e-05
3.22795e-07
2.20068e-06
-1.1149e-05
2.98091e-07
1.82392e-06
-1.16632e-05
2.69747e-07
1.26662e-06
2.3865e-07
5.47533e-07
-1.16682e-05
-5.4118e-06
2.87571e-07
2.42501e-06
-6.61982e-06
2.46933e-07
2.62442e-06
-7.90601e-06
2.19119e-07
2.73268e-06
-9.18957e-06
1.92209e-07
2.70214e-06
-1.0354e-05
1.66741e-07
2.49249e-06
-1.12537e-05
1.43447e-07
2.07617e-06
-1.17388e-05
1.21967e-07
1.45112e-06
1.01916e-07
6.35275e-07
-1.16703e-05
-5.49329e-06
1.32186e-07
2.53622e-06
-6.69344e-06
6.79922e-08
2.72518e-06
-7.97066e-06
1.65437e-08
2.83397e-06
-9.24766e-06
-2.43597e-08
2.80293e-06
-1.0408e-05
-5.33485e-08
2.58749e-06
-1.13027e-05
-7.12549e-08
2.15666e-06
-1.17753e-05
-7.9329e-08
1.5063e-06
-7.93816e-08
6.546e-07
-1.168e-05
-5.49231e-06
5.13424e-08
2.42571e-06
-6.71157e-06
-4.67055e-08
2.60911e-06
-7.99608e-06
-1.28989e-07
2.7099e-06
-9.27378e-06
-1.86604e-07
2.67336e-06
-1.04302e-05
-2.23252e-07
2.45823e-06
-1.13209e-05
-2.41564e-07
2.03671e-06
-1.1796e-05
-2.4438e-07
1.40699e-06
-2.34893e-07
5.89184e-07
-1.17177e-05
-5.48047e-06
6.31545e-08
2.1082e-06
-6.68476e-06
-3.83564e-08
2.29593e-06
-7.96529e-06
-1.28964e-07
2.38831e-06
-9.23659e-06
-1.97632e-07
2.34842e-06
-1.03846e-05
-2.45417e-07
2.14452e-06
-1.12745e-05
-2.74476e-07
1.75717e-06
-1.17723e-05
-2.88377e-07
1.19004e-06
-2.91415e-07
4.66127e-07
-1.176e-05
-5.22891e-06
1.64051e-06
3.55706e-07
-6.4553e-06
1.83637e-06
2.14438e-07
-7.74222e-06
1.93347e-06
1.07583e-07
-9.01509e-06
1.90782e-06
2.44477e-08
-1.01655e-05
1.73722e-06
-4.50252e-08
-1.10772e-05
1.41078e-06
-9.80142e-08
-1.16397e-05
9.37566e-07
-1.38991e-07
3.42612e-07
-1.71414e-07
-1.17631e-05
-5.23522e-06
4.60385e-07
-1.01746e-07
2.6856e-06
-6.79509e-06
4.51832e-07
-1.45309e-07
3.10387e-06
-8.54027e-06
4.56819e-07
-1.68256e-07
3.4119e-06
-1.04467e-05
4.53806e-07
-1.78467e-07
3.57025e-06
-1.24828e-05
4.45338e-07
-1.79504e-07
3.55009e-06
-1.46137e-05
4.32548e-07
-1.74226e-07
3.33886e-06
-1.67924e-05
4.09577e-07
-1.64676e-07
2.94069e-06
3.73472e-07
-1.52537e-07
-1.90317e-05
2.43903e-06
-5.47052e-06
4.67744e-07
3.41964e-06
-6.98288e-06
4.41284e-07
3.84317e-06
-8.68612e-06
4.27174e-07
4.15648e-06
-1.0558e-05
4.10949e-07
4.30895e-06
-1.25618e-05
3.93658e-07
4.25628e-06
-1.46505e-05
3.74968e-07
3.97044e-06
-1.67754e-05
3.51151e-07
3.45008e-06
3.18157e-07
-1.89778e-05
2.80534e-06
-5.60885e-06
2.79189e-07
3.89397e-06
-7.07973e-06
2.17654e-07
4.31922e-06
-8.74132e-06
1.76899e-07
4.64481e-06
-1.0578e-05
1.43958e-07
4.80621e-06
-1.25549e-05
1.18933e-07
4.74411e-06
-1.46208e-05
1.01202e-07
4.41595e-06
-1.67188e-05
8.8576e-08
3.81165e-06
7.81023e-08
-1.89047e-05
3.06126e-06
-5.69451e-06
-1.22038e-08
4.0686e-06
-7.1328e-06
-1.03214e-07
4.48452e-06
-8.76301e-06
-1.70789e-07
4.81197e-06
-1.05727e-05
-2.20529e-07
4.97719e-06
-1.25281e-05
-2.51377e-07
4.91347e-06
-1.45781e-05
-2.63749e-07
4.57169e-06
-1.66621e-05
-2.58827e-07
3.93773e-06
-2.37961e-07
-1.88401e-05
3.14856e-06
-5.64316e-06
-2.28446e-07
3.90436e-06
-7.10078e-06
-3.50896e-07
4.31469e-06
-8.74144e-06
-4.52452e-07
4.6323e-06
-1.05547e-05
-5.231e-07
4.78923e-06
-1.25085e-05
-5.64173e-07
4.725e-06
-1.45544e-05
-5.77521e-07
4.39635e-06
-1.66357e-05
-5.62875e-07
3.79213e-06
-5.19789e-07
-1.88063e-05
3.04146e-06
-5.55131e-06
-3.00728e-07
3.4231e-06
-7.01462e-06
-4.25347e-07
3.8338e-06
-8.67222e-06
-5.45464e-07
4.13908e-06
-1.05002e-05
-6.33133e-07
4.28643e-06
-1.2462e-05
-6.88612e-07
4.23075e-06
-1.45127e-05
-7.13244e-07
3.94366e-06
-1.66047e-05
-7.02793e-07
3.42199e-06
-6.56576e-07
-1.87776e-05
2.77583e-06
-5.22119e-06
-1.94288e-08
2.6903e-06
-6.72224e-06
-1.9283e-07
3.10477e-06
-8.42391e-06
-3.21361e-07
3.41113e-06
-1.02986e-05
-4.19011e-07
3.56823e-06
-1.23094e-05
-4.86632e-07
3.5459e-06
-1.44179e-05
-5.25126e-07
3.33141e-06
-1.65746e-05
-5.35972e-07
2.92756e-06
-5.20798e-07
-1.8788e-05
2.42015e-06
-1.25109e-06
3.18106e-07
2.25458e-07
-2.048e-07
-1.48119e-06
1.99516e-07
2.27734e-07
-1.96494e-07
-1.77208e-06
1.96345e-07
2.28714e-07
-1.3264e-07
-2.15147e-06
2.66125e-07
2.14028e-07
-1.00336e-07
-2.55091e-06
2.914e-07
1.88955e-07
-8.16779e-08
-2.94693e-06
3.11845e-07
1.53815e-07
-6.98847e-08
-3.30749e-06
3.11558e-07
1.0989e-07
-6.05302e-08
3.19438e-07
5.93164e-08
-5.15806e-08
-3.63485e-06
-1.01135e-06
3.88697e-07
3.77442e-07
-1.20703e-06
7.17155e-08
3.24021e-07
-1.44597e-06
1.01088e-07
3.34808e-07
-1.71931e-06
2.11352e-07
3.26834e-07
-1.97531e-06
2.35544e-07
3.11473e-07
-2.20452e-06
2.56057e-07
2.8632e-07
-2.41497e-06
2.70936e-07
2.51061e-07
3.17284e-07
2.16479e-07
-2.6292e-06
-1.00011e-06
-6.30813e-08
5.59185e-07
-1.21871e-06
-1.18303e-07
4.08635e-07
-1.4012e-06
-1.45352e-07
4.28577e-07
-1.53651e-06
-8.37351e-08
4.30581e-07
-1.67024e-06
-6.51635e-08
4.34199e-07
-1.80427e-06
-4.1839e-08
4.31745e-07
-1.94602e-06
-1.3129e-09
4.13935e-07
4.0376e-08
4.03725e-07
-2.07275e-06
-1.12529e-06
-6.89715e-07
6.41611e-07
-1.3594e-06
-3.16342e-07
4.32064e-07
-1.57366e-06
-3.89183e-07
4.58753e-07
-1.7332e-06
-4.00895e-07
4.76947e-07
-1.88427e-06
-4.07832e-07
4.9404e-07
-2.01535e-06
-4.17193e-07
5.06311e-07
-2.08311e-06
-4.45053e-07
5.11701e-07
-4.67765e-07
5.04637e-07
-2.0793e-06
-8.21408e-07
-1.08026e-06
5.07158e-07
-1.00159e-06
-5.15597e-07
3.7922e-07
-1.26558e-06
-5.21644e-07
3.96964e-07
-1.46972e-06
-5.87722e-07
3.91279e-07
-1.68184e-06
-5.81903e-07
3.86224e-07
-1.89282e-06
-5.78127e-07
3.71857e-07
-2.10187e-06
-5.91432e-07
3.5553e-07
-5.93308e-07
3.26589e-07
-2.30309e-06
-1.05559e-06
-7.85785e-07
3.40053e-07
-1.32126e-06
-5.42837e-07
2.92766e-07
-1.62743e-06
-5.33015e-07
3.19227e-07
-1.92299e-06
-5.98267e-07
3.06896e-07
-2.20131e-06
-5.90736e-07
2.8638e-07
-2.44999e-06
-5.89601e-07
2.60746e-07
-2.67958e-06
-5.89636e-07
2.27439e-07
-5.82618e-07
1.8923e-07
-2.87978e-06
-1.13887e-06
2.18027e-07
-5.43468e-07
-1.40466e-06
2.2467e-07
-5.00997e-07
-1.75667e-06
2.28694e-07
-4.10408e-07
-2.21203e-06
2.17261e-07
-3.60482e-07
-2.65411e-06
1.96709e-07
-3.44868e-07
-3.07477e-06
1.67203e-07
-3.36277e-07
-3.46335e-06
1.30331e-07
-3.30825e-07
8.65997e-08
-3.25522e-07
-3.80776e-06
-1.92023e-06
2.77914e-07
4.80344e-07
-1.37103e-07
-2.35736e-06
2.77405e-07
4.93245e-07
-1.05996e-07
-2.79546e-06
2.61054e-07
4.88053e-07
-8.17563e-08
-3.22407e-06
2.55024e-07
4.52943e-07
-6.49621e-08
-3.62443e-06
2.5142e-07
3.9054e-07
-5.22866e-08
-3.9834e-06
2.49515e-07
3.06294e-07
-4.27528e-08
-4.29214e-06
2.47718e-07
2.06631e-07
-3.5579e-08
2.45417e-07
9.53878e-08
-3.02481e-08
-4.54323e-06
-2.03345e-06
1.78486e-07
7.70138e-07
-2.31925e-06
1.70719e-07
7.16624e-07
-2.62108e-06
1.84059e-07
7.13661e-07
-2.9359e-06
2.04779e-07
6.9174e-07
-3.23946e-06
2.2499e-07
6.41214e-07
-3.51413e-06
2.471e-07
5.63414e-07
-3.7497e-06
2.68546e-07
4.65638e-07
2.87373e-07
3.56497e-07
-3.93175e-06
-1.93294e-06
-2.04261e-07
1.18474e-06
-2.12648e-06
-1.77683e-07
9.50972e-07
-2.31002e-06
-1.4192e-07
9.38197e-07
-2.50923e-06
-1.09493e-07
9.44317e-07
-2.6984e-06
-8.0887e-08
9.29392e-07
-2.8526e-06
-5.22332e-08
8.85436e-07
-2.96281e-06
-2.30161e-08
8.15987e-07
5.02293e-09
7.29335e-07
-3.00586e-06
-1.89407e-06
-6.48757e-07
1.33555e-06
-2.09377e-06
-5.61981e-07
1.01601e-06
-2.26469e-06
-5.16686e-07
1.00431e-06
-2.43612e-06
-4.87473e-07
1.0261e-06
-2.58732e-06
-4.67499e-07
1.03192e-06
-2.69357e-06
-4.52658e-07
1.01262e-06
-2.73346e-06
-4.40298e-07
9.68677e-07
-4.28662e-07
9.08489e-07
-2.70387e-06
-1.87589e-06
-8.68266e-07
1.03302e-06
-2.14032e-06
-7.86298e-07
8.68051e-07
-2.39251e-06
-7.39546e-07
8.72365e-07
-2.64751e-06
-7.13561e-07
8.72495e-07
-2.8849e-06
-6.91673e-07
8.48203e-07
-3.08685e-06
-6.74256e-07
7.95651e-07
-3.23218e-06
-6.58768e-07
7.19455e-07
-6.44204e-07
6.29009e-07
-3.31902e-06
-1.8584e-06
-7.9882e-07
6.94506e-07
-2.27141e-06
-7.51792e-07
6.70829e-07
-2.6602e-06
-7.02134e-07
6.70334e-07
-3.0419e-06
-6.70017e-07
6.45067e-07
-3.399e-06
-6.41026e-07
5.92622e-07
-3.71202e-06
-6.15335e-07
5.14898e-07
-3.97004e-06
-5.91669e-07
4.18463e-07
-5.69225e-07
3.11986e-07
-4.16781e-06
-1.69589e-06
4.58735e-07
-5.20378e-07
-2.22806e-06
4.79082e-07
-4.73925e-07
-2.74441e-06
4.76765e-07
-4.33651e-07
-3.23986e-06
4.45084e-07
-4.02022e-07
-3.69604e-06
3.87913e-07
-3.76044e-07
-4.10075e-06
3.10208e-07
-3.53637e-07
-4.44638e-06
2.18099e-07
-3.33756e-07
1.16071e-07
-3.1572e-07
-4.72928e-06
-2.82622e-06
3.7315e-07
8.80188e-07
-9.9575e-08
-3.52205e-06
3.29204e-07
9.30474e-07
-7.04383e-08
-4.22971e-06
3.00982e-07
9.49383e-07
-5.45315e-08
-4.93021e-06
2.78506e-07
9.1999e-07
-4.49021e-08
-5.60195e-06
2.58417e-07
8.42521e-07
-3.85577e-08
-6.22037e-06
2.38863e-07
7.20238e-07
-3.44192e-08
-6.75846e-06
2.19581e-07
5.57031e-07
-3.17227e-08
2.01411e-07
3.59678e-07
-2.98748e-08
-7.19418e-06
-2.86501e-06
2.93414e-07
1.32724e-06
-3.38992e-06
2.83284e-07
1.28777e-06
-3.9636e-06
2.8121e-07
1.30731e-06
-4.56161e-06
2.76272e-07
1.29223e-06
-5.1584e-06
2.73278e-07
1.2233e-06
-5.72392e-06
2.69469e-07
1.09827e-06
-6.22111e-06
2.63498e-07
9.19053e-07
2.55552e-07
6.92245e-07
-6.61089e-06
-2.6876e-06
-1.32869e-07
1.91523e-06
-3.0101e-06
-9.00535e-08
1.64692e-06
-3.40279e-06
-4.30232e-08
1.65501e-06
-3.85131e-06
-1.04195e-08
1.67945e-06
-4.32201e-06
1.72149e-08
1.65615e-06
-4.77973e-06
4.14374e-08
1.57106e-06
-5.18363e-06
6.19419e-08
1.4215e-06
7.78946e-08
1.21333e-06
-5.49011e-06
-2.61737e-06
-6.79691e-07
2.1778e-06
-2.89021e-06
-5.7687e-07
1.77581e-06
-3.21995e-06
-4.92619e-07
1.78363e-06
-3.60956e-06
-4.29625e-07
1.83483e-06
-4.02453e-06
-3.79628e-07
1.84359e-06
-4.42617e-06
-3.36293e-07
1.79182e-06
-4.77102e-06
-2.97729e-07
1.67293e-06
-2.6404e-07
1.49122e-06
-5.01224e-06
-2.71366e-06
-9.85857e-07
1.7398e-06
-3.13266e-06
-8.55611e-07
1.56576e-06
-3.5936e-06
-7.59681e-07
1.60037e-06
-4.0911e-06
-6.86179e-07
1.62652e-06
-4.59912e-06
-6.25001e-07
1.60143e-06
-5.08505e-06
-5.70534e-07
1.51586e-06
-5.51031e-06
-5.21165e-07
1.36802e-06
-4.76815e-07
1.16351e-06
-5.83219e-06
-2.6946e-06
-8.85213e-07
1.23853e-06
-3.35042e-06
-7.76976e-07
1.24782e-06
-4.01387e-06
-7.03832e-07
1.2778e-06
-4.67712e-06
-6.43812e-07
1.26576e-06
-5.3205e-06
-5.90006e-07
1.20078e-06
-5.91758e-06
-5.40574e-07
1.08194e-06
-6.43605e-06
-4.95094e-07
9.10722e-07
-4.53865e-07
6.93075e-07
-6.84022e-06
-2.59535e-06
8.55954e-07
-4.81184e-07
-3.38555e-06
9.18782e-07
-4.26301e-07
-4.16972e-06
9.43101e-07
-3.85896e-07
-4.93461e-06
9.19606e-07
-3.53308e-07
-5.66052e-06
8.49567e-07
-3.25673e-07
-6.32505e-06
7.35653e-07
-3.01513e-07
-6.90312e-06
5.80895e-07
-2.79911e-07
3.91146e-07
-2.60266e-07
-7.37185e-06
-4.28715e-06
4.63976e-07
1.70934e-06
-4.53063e-08
-5.60761e-06
3.86653e-07
1.89244e-06
-2.79948e-08
-6.97098e-06
3.42374e-07
1.99065e-06
-2.07057e-08
-8.29685e-06
2.95691e-07
1.96767e-06
-1.7508e-08
-9.48218e-06
2.45349e-07
1.79882e-06
-1.63273e-08
-1.04112e-05
1.93634e-07
1.47158e-06
-1.6161e-08
-1.09732e-05
1.42415e-07
9.93224e-07
-1.65078e-08
9.27043e-08
3.88161e-07
-1.72119e-08
-1.10771e-05
-4.01898e-06
4.42165e-07
2.34645e-06
-5.22056e-06
4.09772e-07
2.46622e-06
-6.51822e-06
3.73283e-07
2.57402e-06
-7.82447e-06
3.30872e-07
2.56351e-06
-9.02568e-06
2.84482e-07
2.38539e-06
-9.98243e-06
2.34589e-07
2.01378e-06
-1.05528e-05
1.82936e-07
1.44908e-06
1.30594e-07
7.08373e-07
-1.06067e-05
-3.54687e-06
-2.70661e-08
3.02809e-06
-4.50221e-06
5.3886e-08
2.95803e-06
-5.64836e-06
9.71441e-08
3.07725e-06
-6.8735e-06
1.19269e-07
3.11589e-06
-8.04531e-06
1.32693e-07
2.97965e-06
-9.00215e-06
1.38686e-07
2.6237e-06
-9.57431e-06
1.37887e-07
2.03865e-06
1.31217e-07
1.23049e-06
-9.59243e-06
-3.30475e-06
-6.34446e-07
3.36887e-06
-4.16474e-06
-4.67443e-07
3.15693e-06
-5.23152e-06
-3.39824e-07
3.28721e-06
-6.39641e-06
-2.48356e-07
3.36744e-06
-7.52409e-06
-1.758e-07
3.27953e-06
-8.44613e-06
-1.15922e-07
2.96861e-06
-8.98557e-06
-6.7589e-08
2.4177e-06
-2.98189e-08
1.61717e-06
-8.95085e-06
-3.68676e-06
-9.89636e-07
2.88051e-06
-4.71333e-06
-7.80291e-07
2.90503e-06
-5.88023e-06
-6.23068e-07
3.05004e-06
-7.10513e-06
-4.93371e-07
3.09637e-06
-8.2661e-06
-3.79328e-07
2.96549e-06
-9.20485e-06
-2.78218e-07
2.61678e-06
-9.75707e-06
-1.89535e-07
2.04176e-06
-1.11934e-07
1.24367e-06
-9.75558e-06
-4.00054e-06
-8.62649e-07
2.27647e-06
-5.2889e-06
-6.8841e-07
2.44435e-06
-6.63146e-06
-5.68874e-07
2.56617e-06
-7.9623e-06
-4.60431e-07
2.56356e-06
-9.17496e-06
-3.59926e-07
2.39405e-06