/*--------------------------------*- C++ -*----------------------------------*\
| =========                 |                                                 |
| \\      /  F ield         | OpenFOAM: The Open Source CFD Toolbox           |
|  \\    /   O peration     | Version:  plus.master                           |
|   \\  /    A nd           | Web:      www.OpenFOAM.com                      |
|    \\/     M anipulation  |                                                 |
\*---------------------------------------------------------------------------*/
FoamFile
{
    version     2.0;
    format      ascii;
    class       volScalarField;
    location    "11.4";
    object      nut;
}
// * * * * * * * * * * * * * * * * * * * * * * * * * * * * * * * * * * * * * //

dimensions      [0 2 -1 0 0 0 0];

internalField   nonuniform List<scalar> 
47285
(
3.47635e-05
6.67286e-05
0.000115343
0.000123026
8.0746e-05
4.25017e-05
2.3611e-05
5.91185e-05
6.35917e-05
0.000136273
0.000145041
9.61199e-05
4.38191e-05
4.66039e-05
9.62652e-05
0.000117922
0.000138296
0.000182639
0.000115182
0.000110026
9.25661e-05
0.000132234
0.00015784
0.000191947
0.000177223
0.000175268
0.000146892
0.000125156
0.000106552
0.000127626
0.000138191
0.000177803
0.000129136
0.000127857
0.000104903
6.37661e-05
6.4772e-05
0.000132768
0.000146302
9.83995e-05
5.88944e-05
5.86061e-05
3.67382e-05
6.7876e-05
0.000115669
0.000124879
8.23793e-05
5.22132e-05
2.96268e-05
1.95288e-05
3.85829e-05
6.61608e-05
5.62636e-05
3.05326e-05
1.72247e-05
3.19724e-05
3.39089e-05
8.62091e-05
0.000142978
0.000145444
8.78732e-05
3.97714e-05
1.72641e-05
6.21554e-05
0.000139481
0.00016818
0.000182601
0.000117293
8.23635e-05
2.95929e-05
8.27987e-05
0.000175526
0.000200919
0.00017764
0.000171898
0.000109264
3.84799e-05
7.54888e-05
0.000156755
0.000183045
0.000192464
0.00014127
0.000105594
4.19672e-05
4.14547e-05
9.74532e-05
0.000162186
0.00017761
0.00011174
5.86073e-05
2.24094e-05
2.26251e-05
4.50783e-05
8.04649e-05
7.57492e-05
4.33614e-05
2.1267e-05
1.97027e-05
3.76838e-05
5.81056e-05
8.20802e-05
7.17625e-05
4.03707e-05
3.08203e-05
6.19742e-05
5.8895e-05
0.000113666
0.000166676
0.000172675
9.83803e-05
4.19545e-05
3.17241e-05
9.33444e-05
0.000175477
0.000194134
0.000205068
0.000141728
7.46238e-05
2.75543e-05
0.000115069
0.000221888
0.000233422
0.000187324
0.000210842
0.000101784
3.07592e-05
0.000109113
0.000196956
0.000215491
0.000222756
0.000155403
0.000100724
3.76736e-05
7.35541e-05
0.00013777
0.000199096
0.000222935
0.000136004
6.41753e-05
2.98558e-05
4.42555e-05
7.53112e-05
0.000109099
0.000104668
6.38718e-05
3.29963e-05
4.30285e-05
6.71877e-05
7.1933e-05
9.23758e-05
8.125e-05
5.00349e-05
5.85023e-05
0.000103042
7.71665e-05
0.000133217
0.000190338
0.00019614
0.000107955
4.86997e-05
6.31559e-05
0.000117166
0.000211305
0.000220398
0.000219073
0.000178173
7.54943e-05
3.71033e-05
0.000142208
0.000278215
0.00027318
0.000223753
0.000260976
9.92092e-05
3.06293e-05
0.000135252
0.00023902
0.000249505
0.00024572
0.00018206
9.8012e-05
4.05611e-05
9.66394e-05
0.000166508
0.000233255
0.000256516
0.000148542
6.81546e-05
5.13567e-05
7.01839e-05
9.60832e-05
0.000128363
0.000120359
7.58099e-05
5.1244e-05
8.52514e-05
8.23622e-05
7.60883e-05
9.13329e-05
7.99724e-05
5.41529e-05
7.41176e-05
0.000114882
8.26761e-05
0.000137323
0.000201992
0.00019958
0.000106096
5.23748e-05
7.97983e-05
0.000124478
0.000230949
0.000210298
0.000200592
0.000199622
7.29516e-05
4.56885e-05
0.000152894
0.000320658
0.000280893
0.000273638
0.000311986
9.20958e-05
3.28492e-05
0.000145238
0.000264239
0.000240104
0.000232573
0.00021957
9.28218e-05
4.46766e-05
0.000103234
0.000177946
0.000251738
0.00026375
0.000147597
6.72536e-05
6.55785e-05
8.20973e-05
0.000101282
0.000134148
0.000122977
7.73643e-05
6.25209e-05
0.000101564
1.84391e-05
1.78538e-05
1.78112e-05
1.74705e-05
1.72072e-05
1.69866e-05
1.67919e-05
1.66189e-05
2.61345e-05
1.97669e-05
1.8012e-05
1.73076e-05
1.69245e-05
1.66205e-05
1.63629e-05
1.61357e-05
4.95831e-05
2.69868e-05
1.92819e-05
1.74868e-05
1.69244e-05
1.65628e-05
1.62534e-05
1.59736e-05
6.93812e-05
3.63461e-05
2.15916e-05
1.77687e-05
1.69405e-05
1.65535e-05
1.62438e-05
1.60244e-05
5.67755e-05
3.06527e-05
2.04099e-05
1.78555e-05
1.71903e-05
1.68254e-05
1.65644e-05
1.63611e-05
3.38265e-05
2.2561e-05
1.90775e-05
1.79275e-05
1.74416e-05
1.71464e-05
1.69418e-05
1.67787e-05
2.18213e-05
1.90044e-05
1.8276e-05
1.78911e-05
1.77218e-05
1.75456e-05
1.7394e-05
1.72408e-05
6.04269e-05
6.56054e-05
6.55826e-05
6.48985e-05
6.40727e-05
6.31568e-05
6.20654e-05
6.07093e-05
3.51267e-05
5.69045e-05
6.31924e-05
6.43165e-05
6.40436e-05
6.33681e-05
6.24594e-05
6.12593e-05
1.60515e-05
3.83908e-05
5.65809e-05
6.20608e-05
6.3077e-05
6.28472e-05
6.21592e-05
6.10974e-05
1.20614e-05
2.75641e-05
5.17368e-05
6.05469e-05
6.25287e-05
6.25563e-05
6.19287e-05
6.08667e-05
1.46655e-05
3.01884e-05
5.26447e-05
6.0751e-05
6.25772e-05
6.25651e-05
6.19009e-05
6.07636e-05
1.93643e-05
4.25108e-05
5.73037e-05
6.17722e-05
6.25967e-05
6.22784e-05
6.14789e-05
6.02635e-05
3.75974e-05
5.53148e-05
6.07352e-05
6.20158e-05
6.18382e-05
6.11382e-05
6.01038e-05
5.87273e-05
9.0733e-05
9.69415e-05
9.62591e-05
9.29761e-05
8.83245e-05
8.28678e-05
7.70591e-05
7.14037e-05
6.76845e-05
8.94927e-05
9.46798e-05
9.33693e-05
8.93332e-05
8.39587e-05
7.79708e-05
7.20244e-05
3.74544e-05
7.37623e-05
8.95548e-05
9.19707e-05
8.91804e-05
8.41766e-05
7.81918e-05
7.20892e-05
2.22186e-05
6.06359e-05
8.49795e-05
9.05027e-05
8.8702e-05
8.39957e-05
7.80584e-05
7.19133e-05
2.91458e-05
6.40792e-05
8.53593e-05
9.00022e-05
8.79273e-05
8.31335e-05
7.72019e-05
7.11193e-05
4.74132e-05
7.75938e-05
8.89136e-05
8.98193e-05
8.65034e-05
8.13471e-05
7.54376e-05
6.95612e-05
7.46169e-05
8.85443e-05
9.08226e-05
8.85764e-05
8.42178e-05
7.88046e-05
7.29938e-05
6.73751e-05
0.000124851
0.000126724
0.000121916
0.000114827
0.000107486
0.000100893
9.51773e-05
8.94538e-05
0.000108619
0.000123886
0.000123353
0.000117135
0.00010945
0.000102219
9.60124e-05
9.00172e-05
7.7397e-05
0.000113526
0.000121481
0.000117799
0.000110546
0.000103067
9.65295e-05
9.03018e-05
5.34035e-05
0.000103168
0.000118761
0.000117426
0.000110758
0.000103284
9.65965e-05
9.0218e-05
6.50974e-05
0.000106746
0.000118926
0.000116703
0.000109909
0.000102533
9.59418e-05
8.95775e-05
9.35778e-05
0.000117292
0.000120349
0.000115398
0.000108137
0.000100987
9.46672e-05
8.84243e-05
0.00011653
0.000122865
0.000119688
0.000113227
0.000106108
9.95251e-05
9.36606e-05
8.76565e-05
0.000126647
0.000121288
0.000110618
9.89578e-05
8.74752e-05
7.57248e-05
6.32739e-05
5.17596e-05
0.000118198
0.000123552
0.000115093
0.0001029
9.04833e-05
7.80933e-05
6.50336e-05
5.26335e-05
9.38133e-05
0.000118781
0.000116586
0.00010542
9.26094e-05
7.97138e-05
6.61526e-05
5.30973e-05
7.10813e-05
0.000111806
0.000115711
0.000105982
9.32657e-05
8.02012e-05
6.64449e-05
5.31544e-05
8.29043e-05
0.00011424
0.000115035
0.000104772
9.22056e-05
7.93685e-05
6.58315e-05
5.28125e-05
0.00010766
0.000119642
0.000113567
0.000102136
8.99387e-05
7.75924e-05
6.45375e-05
5.21635e-05
0.000121922
0.000119812
0.000110312
9.90797e-05
8.77167e-05
7.59219e-05
6.3332e-05
5.16803e-05
2.28585e-05
1.92112e-05
1.86282e-05
1.83541e-05
1.81693e-05
1.80113e-05
1.78839e-05
1.77697e-05
3.45796e-05
2.22279e-05
1.88984e-05
1.78132e-05
1.73266e-05
1.69206e-05
1.67148e-05
1.65685e-05
5.96587e-05
3.42873e-05
2.20484e-05
1.79633e-05
1.68854e-05
1.63171e-05
1.59698e-05
1.56108e-05
7.31571e-05
4.03174e-05
2.35617e-05
1.79613e-05
1.65199e-05
1.59125e-05
1.54222e-05
1.49747e-05
5.15481e-05
2.96044e-05
2.03834e-05
1.77023e-05
1.69206e-05
1.65028e-05
1.61042e-05
1.57206e-05
3.0003e-05
2.05296e-05
1.85943e-05
1.76337e-05
1.72507e-05
1.69887e-05
1.67065e-05
1.64697e-05
2.20483e-05
1.88253e-05
1.81845e-05
1.79145e-05
1.77953e-05
1.76775e-05
1.75609e-05
1.74381e-05
3.5245e-05
5.41383e-05
5.9423e-05
6.06604e-05
6.05545e-05
5.98706e-05
5.87931e-05
5.73179e-05
2.23794e-05
3.46407e-05
5.0614e-05
5.73368e-05
5.93296e-05
5.95575e-05
5.91362e-05
5.83536e-05
3.07661e-05
2.11012e-05
3.68977e-05
5.05018e-05
5.54863e-05
5.6432e-05
5.58699e-05
5.46856e-05
3.08365e-05
1.81844e-05
3.37762e-05
4.87534e-05
5.40091e-05
5.46429e-05
5.35703e-05
5.19203e-05
2.35008e-05
2.2727e-05
4.25648e-05
5.41174e-05
5.75824e-05
5.78756e-05
5.70219e-05
5.57634e-05
2.0263e-05
3.81545e-05
5.31118e-05
5.84124e-05
5.96343e-05
5.94278e-05
5.87025e-05
5.76787e-05
3.40701e-05
5.13718e-05
5.79761e-05
6.01551e-05
6.04694e-05
6.0008e-05
5.91167e-05
5.786e-05
5.47739e-05
7.95962e-05
8.82623e-05
8.90041e-05
8.59364e-05
8.0761e-05
7.45006e-05
6.80511e-05
4.12883e-05
5.38805e-05
7.66888e-05
8.63926e-05
8.76574e-05
8.48281e-05
7.98872e-05
7.40749e-05
5.05704e-05
3.48165e-05
5.72256e-05
7.7651e-05
8.47113e-05
8.47063e-05
8.13048e-05
7.62798e-05
4.8987e-05
2.85149e-05
4.99936e-05
7.35198e-05
8.20438e-05
8.24106e-05
7.89902e-05
7.38355e-05
4.17169e-05
3.77208e-05
6.49178e-05
8.16869e-05
8.60855e-05
8.46239e-05
8.03109e-05
7.46447e-05
3.817e-05
6.06588e-05
8.11287e-05
8.76133e-05
8.70662e-05
8.31775e-05
7.75899e-05
7.13958e-05
5.82013e-05
8.15252e-05
8.86988e-05
8.89794e-05
8.57616e-05
8.06197e-05
7.45314e-05
6.83372e-05
9.33732e-05
0.000117029
0.000121588
0.000117995
0.000111448
0.000104457
9.78907e-05
9.11941e-05
6.79606e-05
9.24605e-05
0.000114582
0.000119911
0.000117001
0.000111505
0.000105877
0.000100179
6.87761e-05
6.30308e-05
9.58662e-05
0.000114562
0.000117851
0.000115035
0.000111033
0.000107095
6.55468e-05
4.94363e-05
8.46914e-05
0.000109384
0.000114978
0.000112466
0.000107982
0.000103392
6.0563e-05
6.92233e-05
0.000102565
0.000116824
0.000117717
0.000113717
0.00010898
0.000104447
6.88862e-05
0.000101132
0.000118112
0.000120049
0.00011574
0.000109779
0.0001041
9.85635e-05
0.000101489
0.000120098
0.000121646
0.000117008
0.000110284
0.000103484
9.72573e-05
9.09563e-05
0.000107598
0.00012065
0.000115506
0.000104642
9.23538e-05
7.93014e-05
6.53636e-05
5.24747e-05
8.16511e-05
0.000106864
0.000117602
0.000112024
0.000100787
8.75476e-05
7.26059e-05
5.78033e-05
7.63221e-05
8.06131e-05
0.000109479
0.00011509
0.000107533
9.56252e-05
8.09824e-05
6.54588e-05
7.12891e-05
6.42097e-05
0.000101175
0.000113724
0.000108248
9.72894e-05
8.37878e-05
6.94435e-05
6.94464e-05
8.65712e-05
0.000113044
0.000115446
0.000106897
9.49551e-05
8.07733e-05
6.59231e-05
8.493e-05
0.000113174
0.000118868
0.000111487
0.000100138
8.73938e-05
7.31233e-05
5.89204e-05
0.000114081
0.000121488
0.00011437
0.000103362
9.15314e-05
7.90557e-05
6.56423e-05
5.3094e-05
2.44241e-05
1.94027e-05
1.80051e-05
1.75987e-05
1.75639e-05
1.75203e-05
1.7421e-05
1.73016e-05
4.01107e-05
2.47421e-05
1.87707e-05
1.68529e-05
1.63583e-05
1.61013e-05
1.59591e-05
1.58774e-05
6.39298e-05
3.50968e-05
2.1117e-05
1.66587e-05
1.54632e-05
1.48739e-05
1.43875e-05
1.39192e-05
6.68358e-05
3.50919e-05
2.0762e-05
1.68468e-05
1.5868e-05
1.52693e-05
1.47045e-05
1.42238e-05
4.14522e-05
2.36796e-05
1.84224e-05
1.70387e-05
1.64967e-05
1.60365e-05
1.5658e-05
1.53288e-05
2.27484e-05
1.82243e-05
1.7828e-05
1.72914e-05
1.69445e-05
1.66298e-05
1.63429e-05
1.61664e-05
1.8064e-05
1.76302e-05
1.77409e-05
1.74839e-05
1.72528e-05
1.70776e-05
1.69355e-05
1.67653e-05
2.63762e-05
4.75595e-05
5.73695e-05
6.08791e-05
6.18062e-05
6.16518e-05
6.08807e-05
5.95836e-05
1.89129e-05
2.91372e-05
4.78234e-05
5.66052e-05
5.93913e-05
6.00332e-05
5.99266e-05
5.94044e-05
2.22513e-05
2.0288e-05
3.99836e-05
5.14859e-05
5.4473e-05
5.4387e-05
5.33879e-05
5.21216e-05
1.65704e-05
2.06529e-05
4.27523e-05
5.29812e-05
5.48253e-05
5.38562e-05
5.20953e-05
5.01118e-05
1.65237e-05
3.72044e-05
5.36851e-05
5.82724e-05
5.84768e-05
5.74829e-05
5.62169e-05
5.47774e-05
3.68821e-05
5.7435e-05
6.18676e-05
6.21554e-05
6.14282e-05
6.04685e-05
5.94108e-05
5.81276e-05
6.1751e-05
6.56064e-05
6.49776e-05
6.40259e-05
6.30892e-05
6.21479e-05
6.10841e-05
5.97883e-05
5.3219e-05
7.89316e-05
8.81559e-05
8.92938e-05
8.65731e-05
8.1823e-05
7.60712e-05
7.01487e-05
3.45009e-05
5.46967e-05
7.8129e-05
8.67434e-05
8.72735e-05
8.41185e-05
7.91729e-05
7.35954e-05
3.26599e-05
3.62463e-05
6.5297e-05
8.01307e-05
8.31331e-05
8.10813e-05
7.68383e-05
7.18322e-05
2.46167e-05
3.37442e-05
6.52017e-05
7.87697e-05
8.03782e-05
7.71787e-05
7.20193e-05
6.62515e-05
2.95542e-05
6.09729e-05
8.15477e-05
8.66667e-05
8.52788e-05
8.11385e-05
7.56467e-05
6.97193e-05
6.49472e-05
8.79221e-05
9.28376e-05
9.16643e-05
8.78244e-05
8.2534e-05
7.64632e-05
7.02845e-05
9.13891e-05
9.69861e-05
9.59797e-05
9.26099e-05
8.7908e-05
8.23907e-05
7.65085e-05
7.07762e-05
9.93861e-05
0.000118464
0.000120467
0.000115986
0.000109407
0.000102753
9.663e-05
9.03716e-05
6.60851e-05
9.86742e-05
0.000115227
0.000116509
0.000111755
0.000105551
9.96192e-05
9.36289e-05
4.95776e-05
7.37231e-05
0.000104036
0.000112445
0.000110214
0.000105026
9.99322e-05
9.50013e-05
3.85468e-05
6.76241e-05
0.000101424
0.000110223
0.000107785
0.000102491
9.76888e-05
9.34428e-05
5.77794e-05
9.81418e-05
0.000114549
0.00011502
0.000109738
0.000103391
9.77693e-05
9.24963e-05
0.000103002
0.00012141
0.000122248
0.000116872
0.000109663
0.000102672
9.6592e-05
9.06937e-05
0.000124989
0.000126852
0.000121944
0.00011486
0.000107537
0.000100946
9.52189e-05
8.9483e-05
0.000111834
0.000119442
0.00011275
0.000101891
9.01115e-05
7.76784e-05
6.43726e-05
5.20593e-05
8.31525e-05
0.000110058
0.000113886
0.000105551
9.38273e-05
8.10055e-05
6.70386e-05
5.36257e-05
6.09283e-05
9.17756e-05
0.000109728
0.000106265
9.57241e-05
8.3265e-05
6.92757e-05
5.52974e-05
4.88506e-05
8.58909e-05
0.000108145
0.000105679
9.53931e-05
8.32528e-05
6.96095e-05
5.57569e-05
7.4128e-05
0.000108538
0.000114287
0.000106235
9.44992e-05
8.18493e-05
6.79838e-05
5.42619e-05
0.000113591
0.000122474
0.000115429
0.000103842
9.15945e-05
7.90971e-05
6.57298e-05
5.2921e-05
0.00012656
0.000121246
0.000110555
9.89499e-05
8.75186e-05
7.57981e-05
6.33458e-05
5.17827e-05
2.01969e-05
1.84139e-05
1.80563e-05
1.77566e-05
1.7552e-05
1.73711e-05
1.71856e-05
1.70362e-05
2.60555e-05
1.95388e-05
1.84995e-05
1.78505e-05
1.74097e-05
1.70075e-05
1.66364e-05
1.63112e-05
4.25986e-05
2.52119e-05
1.96263e-05
1.79255e-05
1.72495e-05
1.66929e-05
1.62317e-05
1.57869e-05
6.83431e-05
3.74357e-05
2.27458e-05
1.82536e-05
1.70179e-05
1.63107e-05
1.57037e-05
1.5215e-05
6.66594e-05
3.73802e-05
2.30354e-05
1.82218e-05
1.68083e-05
1.61696e-05
1.56847e-05
1.52674e-05
4.13918e-05
2.67598e-05
2.0068e-05
1.79841e-05
1.72981e-05
1.69351e-05
1.66888e-05
1.64388e-05
2.50063e-05
2.02333e-05
1.88446e-05
1.83699e-05
1.81293e-05
1.79494e-05
1.78137e-05
1.77043e-05
4.72798e-05
5.84078e-05
6.10213e-05
6.12836e-05
6.06855e-05
5.97802e-05
5.87011e-05
5.74268e-05
2.50931e-05
4.91636e-05
5.82077e-05
6.01058e-05
5.97159e-05
5.86719e-05
5.74085e-05
5.60014e-05
1.69082e-05
2.98835e-05
4.97486e-05
5.70808e-05
5.82426e-05
5.7294e-05
5.56412e-05
5.37311e-05
2.42823e-05
1.83049e-05
3.88179e-05
5.21369e-05
5.57943e-05
5.54243e-05
5.36553e-05
5.14106e-05
3.0787e-05
2.05731e-05
3.66608e-05
5.01057e-05
5.47878e-05
5.5332e-05
5.4345e-05
5.28479e-05
2.30487e-05
2.85108e-05
4.58803e-05
5.54312e-05
5.8645e-05
5.91603e-05
5.86698e-05
5.77528e-05
3.13782e-05
5.42311e-05
6.0069e-05
6.12816e-05
6.11837e-05
6.05028e-05
5.9398e-05
5.78618e-05
7.9827e-05
9.09731e-05
9.16739e-05
8.91061e-05
8.4719e-05
7.92871e-05
7.33912e-05
6.76202e-05
4.61425e-05
7.7869e-05
8.80952e-05
8.91274e-05
8.63285e-05
8.15971e-05
7.58283e-05
6.97827e-05
2.90844e-05
4.59445e-05
7.38084e-05
8.44616e-05
8.55989e-05
8.25505e-05
7.73979e-05
7.12496e-05
4.00598e-05
2.68123e-05
5.46721e-05
7.60171e-05
8.23088e-05
8.14321e-05
7.72931e-05
7.1678e-05
4.82527e-05
3.24799e-05
5.55696e-05
7.64367e-05
8.35475e-05
8.34049e-05
7.98248e-05
7.46374e-05
4.0918e-05
4.99399e-05
7.39126e-05
8.53461e-05
8.74229e-05
8.49415e-05
8.01733e-05
7.4467e-05
5.38604e-05
8.03863e-05
8.8816e-05
8.94458e-05
8.64083e-05
8.12848e-05
7.50523e-05
6.85941e-05
0.000118455
0.000124968
0.000121823
0.00011563
0.000108742
0.00010235
9.67081e-05
9.10084e-05
8.56106e-05
0.000115681
0.000122268
0.000119831
0.00011421
0.000108193
0.000102917
9.79096e-05
4.84614e-05
8.12548e-05
0.000109705
0.000117399
0.00011539
0.00011031
0.00010525
0.00010064
5.316e-05
4.96036e-05
8.91099e-05
0.000109894
0.000113115
0.000109628
0.000104819
0.00010014
6.40529e-05
6.07334e-05
9.44487e-05
0.00011273
0.000115589
0.000112507
0.000108358
0.000104335
6.63043e-05
8.99901e-05
0.000112893
0.000118815
0.000116162
0.000110799
0.000105288
9.97228e-05
9.26457e-05
0.000116762
0.000121441
0.000117908
0.000111414
0.000104474
9.79668e-05
9.13439e-05
0.000123876
0.000122
0.000112495
0.000101468
9.0282e-05
7.85676e-05
6.58985e-05
5.39172e-05
0.000101639
0.000121827
0.00011952
0.000109951
9.86726e-05
8.66419e-05
7.32347e-05
5.97828e-05
6.11247e-05
9.79328e-05
0.000116422
0.000114066
0.00010447
9.28537e-05
7.94723e-05
6.55164e-05
5.84508e-05
6.77187e-05
0.000104681
0.000112906
0.000106175
9.52881e-05
8.22779e-05
6.85293e-05
7.10285e-05
8.00895e-05
0.000108831
0.000113579
0.000105914
9.43187e-05
8.01937e-05
6.52166e-05
8.00892e-05
0.000105552
0.000116684
0.000111398
0.000100407
8.73985e-05
7.2666e-05
5.80283e-05
0.00010688
0.000120273
0.000115351
0.000104592
9.23831e-05
7.94e-05
6.55179e-05
5.26572e-05
1.64493e-05
1.59501e-05
1.57596e-05
1.59075e-05
1.61931e-05
1.66319e-05
1.70752e-05
5.8999e-05
5.96521e-05
5.95709e-05
5.93184e-05
5.91189e-05
5.85951e-05
5.69986e-05
6.6389e-05
6.68282e-05
6.67679e-05
6.65506e-05
6.58052e-05
6.44307e-05
6.24461e-05
8.20776e-05
8.22145e-05
8.21535e-05
8.18911e-05
8.12787e-05
8.03333e-05
7.99443e-05
4.28476e-05
4.28646e-05
4.27995e-05
4.27277e-05
4.2657e-05
4.26068e-05
4.28515e-05
1.76474e-05
1.634e-05
1.51628e-05
1.46147e-05
1.53987e-05
1.63145e-05
1.73056e-05
5.54372e-05
5.73502e-05
5.33283e-05
5.00988e-05
5.42833e-05
5.63935e-05
5.62036e-05
6.21965e-05
6.85726e-05
7.11496e-05
6.85754e-05
6.9043e-05
6.56846e-05
6.27676e-05
8.28031e-05
9.25586e-05
0.000101612
9.7308e-05
9.84597e-05
9.12839e-05
8.2982e-05
4.30696e-05
4.62032e-05
5.16572e-05
5.57942e-05
5.2528e-05
4.73616e-05
4.36465e-05
1.71841e-05
1.57966e-05
1.35482e-05
1.38533e-05
1.49626e-05
1.60107e-05
1.65822e-05
5.77837e-05
5.85365e-05
5.07333e-05
4.80551e-05
5.31898e-05
5.65257e-05
5.81658e-05
6.47495e-05
6.8435e-05
6.73282e-05
6.10996e-05
6.43984e-05
6.47933e-05
6.57006e-05
8.24135e-05
8.5699e-05
8.80744e-05
8.74086e-05
8.52702e-05
8.29591e-05
8.20898e-05
4.28822e-05
4.33237e-05
4.39798e-05
4.41357e-05
4.32342e-05
4.28836e-05
4.28128e-05
1.68782e-05
1.60795e-05
1.5359e-05
1.47715e-05
1.4899e-05
1.61483e-05
1.75799e-05
5.58769e-05
5.44391e-05
5.17333e-05
4.91098e-05
5.12452e-05
5.66215e-05
5.58763e-05
6.25164e-05
6.437e-05
6.53449e-05
6.60907e-05
6.93664e-05
6.9066e-05
6.26983e-05
8.35775e-05
9.12294e-05
9.46186e-05
9.40155e-05
9.88392e-05
9.22752e-05
8.30436e-05
4.45435e-05
4.83678e-05
5.26314e-05
5.52999e-05
5.16897e-05
4.64074e-05
4.32146e-05
1.62714e-05
1.5792e-05
1.51217e-05
1.4386e-05
1.35776e-05
1.27293e-05
1.18625e-05
1.09761e-05
1.57847e-05
1.54237e-05
1.48736e-05
1.41446e-05
1.3373e-05
1.25539e-05
1.1709e-05
1.08389e-05
1.5589e-05
1.52555e-05
1.47576e-05
1.40546e-05
1.32991e-05
1.2494e-05
1.16593e-05
1.07954e-05
1.57932e-05
1.54277e-05
1.48909e-05
1.42372e-05
1.34512e-05
1.25619e-05
1.16899e-05
1.08204e-05
1.60391e-05
1.5666e-05
1.50849e-05
1.43366e-05
1.35513e-05
1.27193e-05
1.18638e-05
1.09844e-05
1.64944e-05
1.60964e-05
1.54747e-05
1.46814e-05
1.38569e-05
1.30047e-05
1.21307e-05
1.12353e-05
1.6891e-05
1.63946e-05
1.57331e-05
1.49691e-05
1.4136e-05
1.32744e-05
1.23943e-05
1.14951e-05
5.67401e-05
5.33493e-05
5.03635e-05
4.71291e-05
4.3029e-05
3.79536e-05
3.21302e-05
2.59634e-05
5.74851e-05
5.39826e-05
5.05877e-05
4.70571e-05
4.2723e-05
3.75236e-05
3.16863e-05
2.56083e-05
5.74938e-05
5.4031e-05
5.05452e-05
4.69316e-05
4.2547e-05
3.73339e-05
3.15125e-05
2.54711e-05
5.72891e-05
5.3979e-05
5.07047e-05
4.70829e-05
4.25791e-05
3.73033e-05
3.14625e-05
2.54215e-05
5.70047e-05
5.37791e-05
5.07475e-05
4.74358e-05
4.31673e-05
3.79345e-05
3.20064e-05
2.58109e-05
5.65158e-05
5.36291e-05
5.10453e-05
4.80615e-05
4.39858e-05
3.87984e-05
3.27932e-05
2.64264e-05
5.49087e-05
5.23066e-05
5.022e-05
4.76883e-05
4.40459e-05
3.92048e-05
3.34101e-05
2.70785e-05
6.15354e-05
5.65432e-05
5.51415e-05
5.30495e-05
4.90109e-05
4.30925e-05
3.59049e-05
2.82863e-05
6.20537e-05
5.69757e-05
5.53466e-05
5.29713e-05
4.86368e-05
4.24832e-05
3.51786e-05
2.75901e-05
6.20416e-05
5.7012e-05
5.53628e-05
5.29091e-05
4.84869e-05
4.22714e-05
3.49468e-05
2.73782e-05
6.18355e-05
5.69283e-05
5.54003e-05
5.29986e-05
4.85772e-05
4.23294e-05
3.49663e-05
2.7371e-05
6.107e-05
5.66703e-05
5.54996e-05
5.33797e-05
4.91757e-05
4.30418e-05
3.56678e-05
2.79525e-05
5.97553e-05
5.61006e-05
5.53689e-05
5.36649e-05
4.98435e-05
4.39781e-05
3.67008e-05
2.89003e-05
5.78067e-05
5.45801e-05
5.40553e-05
5.27219e-05
4.94613e-05
4.42467e-05
3.75463e-05
3.0072e-05
7.29183e-05
6.20057e-05
5.61729e-05
5.38187e-05
5.0743e-05
4.55985e-05
3.8676e-05
3.0941e-05
7.30081e-05
6.21538e-05
5.63195e-05
5.38523e-05
5.0569e-05
4.51844e-05
3.80755e-05
3.0279e-05
7.28943e-05
6.21165e-05
5.63368e-05
5.38471e-05
5.04962e-05
4.5044e-05
3.7899e-05
3.01062e-05
7.26203e-05
6.19778e-05
5.63432e-05
5.39344e-05
5.06107e-05
4.51534e-05
3.79862e-05
3.01686e-05
7.2045e-05
6.16438e-05
5.62905e-05
5.4144e-05
5.10678e-05
4.58076e-05
3.8731e-05
3.08755e-05
7.11599e-05
6.10016e-05
5.59254e-05
5.40859e-05
5.13908e-05
4.65212e-05
3.97229e-05
3.19458e-05
7.07215e-05
6.02875e-05
5.48847e-05
5.28785e-05
5.03942e-05
4.61315e-05
4.015e-05
3.30744e-05
4.85338e-05
5.23651e-05
5.20229e-05
5.18584e-05
5.02561e-05
4.63308e-05
4.03421e-05
3.3265e-05
4.85996e-05
5.25133e-05
5.21755e-05
5.19354e-05
5.02034e-05
4.61209e-05
3.99993e-05
3.28612e-05
4.84981e-05
5.24861e-05
5.21738e-05
5.19113e-05
5.0137e-05
4.60135e-05
3.98746e-05
3.275e-05
4.83927e-05
5.2461e-05
5.22116e-05
5.19907e-05
5.0242e-05
4.6127e-05
3.99848e-05
3.28526e-05
4.81396e-05
5.22443e-05
5.21007e-05
5.20386e-05
5.04833e-05
4.65574e-05
4.0548e-05
3.34584e-05
4.76633e-05
5.17048e-05
5.16363e-05
5.17625e-05
5.04952e-05
4.69127e-05
4.12087e-05
3.42954e-05
4.71827e-05
5.07961e-05
5.03673e-05
5.02766e-05
4.90546e-05
4.58903e-05
4.09144e-05
3.47797e-05
1.74981e-05
1.70774e-05
1.6401e-05
1.55681e-05
1.4674e-05
1.3759e-05
1.28437e-05
1.19327e-05
1.61267e-05
1.57307e-05
1.53828e-05
1.48665e-05
1.41847e-05
1.34142e-05
1.25808e-05
1.1731e-05
1.48365e-05
1.43043e-05
1.38165e-05
1.3298e-05
1.27431e-05
1.2153e-05
1.15583e-05
1.08892e-05
1.43067e-05
1.36928e-05
1.30958e-05
1.24665e-05
1.18429e-05
1.12272e-05
1.06443e-05
1.00415e-05
1.50573e-05
1.44435e-05
1.39041e-05
1.33077e-05
1.26896e-05
1.20602e-05
1.14242e-05
1.07434e-05
1.61466e-05
1.57095e-05
1.527e-05
1.46385e-05
1.38756e-05
1.3049e-05
1.21978e-05
1.13564e-05
1.71304e-05
1.66884e-05
1.60433e-05
1.52451e-05
1.43707e-05
1.34699e-05
1.2556e-05
1.16443e-05
5.31571e-05
5.07469e-05
4.93928e-05
4.79773e-05
4.55935e-05
4.19484e-05
3.71021e-05
3.12923e-05
5.5856e-05
5.36841e-05
5.07874e-05
4.76184e-05
4.39958e-05
3.97623e-05
3.49686e-05
2.97508e-05
5.14452e-05
4.88785e-05
4.593e-05
4.26536e-05
3.8968e-05
3.49097e-05
3.04264e-05
2.5676e-05
4.77242e-05
4.43788e-05
4.08714e-05
3.73039e-05
3.37152e-05
3.00007e-05
2.61369e-05
2.2323e-05
5.22588e-05
4.93333e-05
4.59544e-05
4.22568e-05
3.81176e-05
3.35465e-05
2.87095e-05
2.38754e-05
5.46074e-05
5.19224e-05
4.86833e-05
4.52902e-05
4.14057e-05
3.69396e-05
3.20433e-05
2.68838e-05
5.4044e-05
5.12529e-05
4.92275e-05
4.71002e-05
4.40846e-05
3.9957e-05
3.48317e-05
2.89666e-05
5.66331e-05
5.29479e-05
5.25698e-05
5.19399e-05
4.97923e-05
4.58917e-05
4.04969e-05
3.4047e-05
6.32117e-05
5.79693e-05
5.55935e-05
5.35337e-05
5.03002e-05
4.58656e-05
4.05394e-05
3.46148e-05
6.58736e-05
6.1167e-05
5.79256e-05
5.42916e-05
4.97354e-05
4.44403e-05
3.8657e-05
3.25577e-05
6.30683e-05
5.74189e-05
5.28381e-05
4.80479e-05
4.28585e-05
3.74817e-05
3.21188e-05
2.69181e-05
6.34162e-05
5.80361e-05
5.40965e-05
4.98331e-05
4.47349e-05
3.90432e-05
3.30913e-05
2.70678e-05
6.03015e-05
5.50722e-05
5.24378e-05
5.01493e-05
4.67341e-05
4.22397e-05
3.6978e-05
3.11819e-05
5.74156e-05
5.31007e-05
5.22736e-05
5.10359e-05
4.82475e-05
4.38341e-05
3.81379e-05
3.16168e-05
7.25581e-05
6.06649e-05
5.42178e-05
5.18508e-05
4.95911e-05
4.59667e-05
4.09364e-05
3.49389e-05
8.24687e-05
6.93959e-05
6.06656e-05
5.59544e-05
5.18316e-05
4.70585e-05
4.1707e-05
3.60488e-05
9.36502e-05
8.15693e-05
7.22375e-05
6.59792e-05
6.04439e-05
5.45777e-05
4.8286e-05
4.16215e-05
8.89056e-05
7.62162e-05
6.59477e-05
5.82783e-05
5.11609e-05
4.39572e-05
3.68949e-05
3.02734e-05
9.01808e-05
7.75592e-05
6.75648e-05
6.05549e-05
5.42531e-05
4.76374e-05
4.06325e-05
3.34263e-05
8.15931e-05
6.87732e-05
5.98179e-05
5.46954e-05
5.02595e-05
4.53693e-05
3.9965e-05
3.42222e-05
7.30854e-05
6.11355e-05
5.42444e-05
5.12202e-05
4.83003e-05
4.42058e-05
3.89818e-05
3.30289e-05
4.63049e-05
4.9158e-05
4.84566e-05
4.83834e-05
4.73786e-05
4.46267e-05
4.02829e-05
3.49659e-05
5.15856e-05
5.43299e-05
5.22659e-05
5.03672e-05
4.75817e-05
4.36938e-05
3.9169e-05
3.44395e-05
6.34319e-05
6.79784e-05
6.55665e-05
6.27712e-05
5.90838e-05
5.4448e-05
4.92219e-05
4.36529e-05
7.3816e-05
7.91223e-05
7.55749e-05
7.06441e-05
6.4254e-05
5.64062e-05
4.75431e-05
3.83655e-05
6.56451e-05
7.06463e-05
6.80367e-05
6.47586e-05
6.04748e-05
5.50609e-05
4.86827e-05
4.15422e-05
5.40116e-05
5.69913e-05
5.44311e-05
5.18591e-05
4.85358e-05
4.43456e-05
3.96205e-05
3.46629e-05
4.74681e-05
5.02758e-05
4.89569e-05
4.8003e-05
4.61273e-05
4.28023e-05
3.83485e-05
3.3302e-05
1.70775e-05
1.6708e-05
1.60494e-05
1.52221e-05
1.43249e-05
1.34114e-05
1.24997e-05
1.15837e-05
1.57132e-05
1.55075e-05
1.53108e-05
1.48324e-05
1.41079e-05
1.32638e-05
1.24197e-05
1.15625e-05
1.32925e-05
1.29201e-05
1.25538e-05
1.20996e-05
1.16454e-05
1.1122e-05
1.05695e-05
9.98353e-06
1.35589e-05
1.2945e-05
1.23987e-05
1.18049e-05
1.12485e-05
1.06653e-05
1.00678e-05
9.46204e-06
1.4659e-05
1.41659e-05
1.37039e-05
1.32801e-05
1.27099e-05
1.20159e-05
1.12561e-05
1.04885e-05
1.58881e-05
1.56344e-05
1.51333e-05
1.45329e-05
1.37337e-05
1.28584e-05
1.19837e-05
1.1121e-05
1.63897e-05
1.59493e-05
1.53433e-05
1.45872e-05
1.37505e-05
1.28817e-05
1.20012e-05
1.11082e-05
5.54739e-05
5.25761e-05
5.0442e-05
4.81776e-05
4.49837e-05
4.06434e-05
3.52847e-05
2.92182e-05
5.72042e-05
5.5035e-05
5.21312e-05
4.87977e-05
4.47684e-05
4.00631e-05
3.47419e-05
2.89903e-05
4.90012e-05
4.67393e-05
4.41319e-05
4.1448e-05
3.83943e-05
3.50069e-05
3.12208e-05
2.70616e-05
4.56156e-05
4.19509e-05
3.77258e-05
3.34546e-05
2.91667e-05
2.51175e-05
2.13373e-05
1.79057e-05
5.12272e-05
4.8288e-05
4.46357e-05
4.05347e-05
3.62473e-05
3.17824e-05
2.7221e-05
2.26334e-05
5.44607e-05
5.10454e-05
4.78866e-05
4.44917e-05
4.05173e-05
3.58607e-05
3.07194e-05
2.52913e-05
5.60166e-05
5.27749e-05
4.98665e-05
4.67338e-05
4.27572e-05
3.78255e-05
3.2154e-05
2.60976e-05
5.94493e-05
5.53294e-05
5.46427e-05
5.34413e-05
5.04814e-05
4.56454e-05
3.93227e-05
3.21247e-05
6.3533e-05
5.84876e-05
5.6856e-05
5.45802e-05
5.05178e-05
4.48921e-05
3.83182e-05
3.1423e-05
6.32824e-05
6.00993e-05
5.69627e-05
5.37089e-05
4.92024e-05
4.37478e-05
3.79595e-05
3.22232e-05
5.65525e-05
5.25723e-05
4.89358e-05
4.45591e-05
3.95184e-05
3.41386e-05
2.86447e-05
2.32878e-05
5.96179e-05
5.48832e-05
5.08499e-05
4.72332e-05
4.25657e-05
3.71406e-05
3.1526e-05
2.61438e-05
5.97713e-05
5.44818e-05
5.24315e-05
4.98958e-05
4.57763e-05
4.02916e-05
3.40257e-05
2.75798e-05
6.07993e-05
5.57526e-05
5.4313e-05
5.22685e-05
4.83972e-05
4.2757e-05
3.59012e-05
2.8572e-05
7.26556e-05
6.13706e-05
5.54934e-05
5.34933e-05
5.12035e-05
4.71047e-05
4.11965e-05
3.41239e-05
7.60066e-05
6.42817e-05
5.75707e-05
5.45285e-05
5.10375e-05
4.58067e-05
3.92216e-05
3.21409e-05
7.89298e-05
6.72599e-05
5.94005e-05
5.47836e-05
4.98553e-05
4.37284e-05
3.70432e-05
3.05155e-05
7.92539e-05
6.81904e-05
5.99729e-05
5.40167e-05
4.8085e-05
4.21742e-05
3.6774e-05
3.18867e-05
7.6041e-05
6.39993e-05
5.56039e-05
5.04698e-05
4.52698e-05
3.93116e-05
3.32283e-05
2.75916e-05
7.35473e-05
6.18637e-05
5.48683e-05
5.13924e-05
4.75495e-05
4.22299e-05
3.5861e-05
2.92318e-05
7.28561e-05
6.17111e-05
5.56146e-05
5.30815e-05
4.99815e-05
4.4986e-05
3.83552e-05
3.0955e-05
4.71968e-05
5.06378e-05
5.03286e-05
5.05539e-05
4.97002e-05
4.67835e-05
4.18248e-05
3.55059e-05
4.84004e-05
5.19339e-05
5.13993e-05
5.1147e-05
4.95533e-05
4.57739e-05
4.01079e-05
3.34634e-05
4.96652e-05
5.30245e-05
5.18661e-05
5.05932e-05
4.77063e-05
4.27696e-05
3.65428e-05
3.00644e-05
4.95889e-05
5.24794e-05
5.03016e-05
4.74536e-05
4.29481e-05
3.73542e-05
3.20375e-05
2.78135e-05
4.80582e-05
5.10869e-05
4.96085e-05
4.7899e-05
4.45761e-05
3.94574e-05
3.34844e-05
2.76797e-05
4.78694e-05
5.13224e-05
5.05378e-05
4.98274e-05
4.76715e-05
4.34262e-05
3.75769e-05
3.10951e-05
4.82713e-05
5.19858e-05
5.1557e-05
5.13292e-05
4.97037e-05
4.5832e-05
3.9985e-05
3.30973e-05
1.6666e-05
1.62437e-05
1.56557e-05
1.49266e-05
1.41149e-05
1.3269e-05
1.24157e-05
1.15471e-05
1.58438e-05
1.52794e-05
1.47168e-05
1.41148e-05
1.34208e-05
1.26829e-05
1.19418e-05
1.11812e-05
1.49775e-05
1.43269e-05
1.37411e-05
1.31467e-05
1.25291e-05
1.18888e-05
1.1234e-05
1.05712e-05
1.43708e-05
1.36548e-05
1.2996e-05
1.23737e-05
1.17522e-05
1.11409e-05
1.05154e-05
9.9359e-06
1.45903e-05
1.40868e-05
1.36027e-05
1.31065e-05
1.25623e-05
1.19963e-05
1.14019e-05
1.0777e-05
1.58825e-05
1.5424e-05
1.49659e-05
1.44927e-05
1.38621e-05
1.31579e-05
1.2432e-05
1.16854e-05
1.74282e-05
1.6993e-05
1.62973e-05
1.54483e-05
1.45472e-05
1.36436e-05
1.27499e-05
1.18556e-05
5.38553e-05
5.08951e-05
4.83449e-05
4.56055e-05
4.20645e-05
3.7603e-05
3.23583e-05
2.65761e-05
5.24402e-05
4.9558e-05
4.6161e-05
4.23595e-05
3.83277e-05
3.40249e-05
2.93712e-05
2.43404e-05
4.92362e-05
4.56066e-05
4.16246e-05
3.74378e-05
3.31578e-05
2.89056e-05
2.46961e-05
2.04213e-05
4.62889e-05
4.24149e-05
3.85403e-05
3.46715e-05
3.09012e-05
2.72327e-05
2.36807e-05
2.02133e-05
4.91942e-05
4.65553e-05
4.35893e-05
4.03289e-05
3.68686e-05
3.31643e-05
2.92226e-05
2.49843e-05
5.49984e-05
5.28221e-05
5.00735e-05
4.68102e-05
4.33205e-05
3.94113e-05
3.49212e-05
2.97307e-05
5.34136e-05