/*--------------------------------*- C++ -*----------------------------------*\
| =========                 |                                                 |
| \\      /  F ield         | OpenFOAM: The Open Source CFD Toolbox           |
|  \\    /   O peration     | Version:  plus.master                           |
|   \\  /    A nd           | Web:      www.OpenFOAM.com                      |
|    \\/     M anipulation  |                                                 |
\*---------------------------------------------------------------------------*/
FoamFile
{
    version     2.0;
    format      ascii;
    class       volVectorField;
    location    "11.4";
    object      U;
}
// * * * * * * * * * * * * * * * * * * * * * * * * * * * * * * * * * * * * * //

dimensions      [0 1 -1 0 0 0 0];

internalField   nonuniform List<vector> 
47285
(
(0.00913346 0.0338209 0.0142093)
(0.00586019 0.0119233 0.0300234)
(-0.0035672 0.0130669 0.0486913)
(-0.0339461 0.0112434 0.0513412)
(-0.0502289 0.00446642 0.0344888)
(-0.0425284 0.000131279 0.0197036)
(-0.0416873 0.0239456 0.00841768)
(-0.00627759 0.0380909 0.0313659)
(-0.0204541 0.00897394 0.144557)
(0.0156139 0.0430649 0.158794)
(-0.0396186 0.0429638 0.169557)
(-0.0677906 0.021423 0.14891)
(-0.00680017 -0.0092397 0.112183)
(-0.0212031 0.0235259 0.0176227)
(-0.000817447 0.040025 0.0504639)
(0.0180058 0.0590963 0.191634)
(0.0875667 0.113154 0.501409)
(-0.0316706 0.125001 0.512345)
(-0.124044 0.102939 0.434537)
(-0.03844 0.0408395 0.125478)
(-0.0206216 0.0251242 0.0312327)
(0.00922045 0.0134274 0.0659975)
(0.0460056 0.014 0.196057)
(0.123267 0.00942529 0.545676)
(-0.0127797 0.0205875 1.49815)
(-0.134454 0.0134478 0.481432)
(-0.0409379 0.014637 0.1481)
(-0.0177423 0.0102165 0.0433259)
(0.00608861 -0.021687 0.0541264)
(0.0307472 -0.0413949 0.184596)
(0.0975942 -0.104891 0.517406)
(-0.0265747 -0.119256 0.578784)
(-0.121106 -0.0841008 0.439319)
(-0.0453984 -0.0216451 0.12948)
(-0.0210388 -0.0076702 0.0357533)
(-0.00111377 -0.0245641 0.0345029)
(-0.0126478 0.00201531 0.158464)
(0.0262166 -0.0355494 0.179267)
(-0.0385468 -0.0437918 0.196562)
(-0.0764132 -0.00779969 0.183562)
(-0.0202258 0.0180837 0.110242)
(-0.0230421 -0.00874598 0.0208701)
(0.0150321 -0.0264786 0.0161372)
(0.0106099 -0.00951684 0.0334544)
(-0.000617203 -0.0125676 0.0542601)
(-0.038979 -0.00889498 0.0590223)
(-0.0567668 0.00371086 0.0409512)
(-0.0483819 0.00988014 0.0240091)
(-0.0476291 -0.011678 0.00953714)
(0.0195578 0.0456322 0.0496221)
(0.00675131 0.0430512 0.0859835)
(-0.010404 0.0320928 0.128026)
(-0.0300936 0.0268848 0.126905)
(-0.0420943 0.0306322 0.0823454)
(-0.0462085 0.0319772 0.0521403)
(-0.0479757 0.0298334 0.0377548)
(0.0239134 0.044938 0.0823507)
(0.0126919 0.049228 0.20892)
(0.00132781 0.044603 0.296704)
(-0.0336979 0.0376283 0.324853)
(-0.0539552 0.0332836 0.235845)
(-0.0503165 0.0265273 0.140099)
(-0.0489055 0.0217083 0.0470488)
(0.0229981 0.0365718 0.130321)
(0.0273716 0.0465335 0.325294)
(0.0214514 0.0421455 0.624045)
(-0.0226101 0.0354251 0.80467)
(-0.0547561 0.0416484 0.476711)
(-0.041622 0.0275362 0.208271)
(-0.0423628 0.0143803 0.0681685)
(0.0234052 0.0130595 0.168991)
(0.0400119 0.0127173 0.383535)
(0.0347473 0.0106539 0.895214)
(-0.0284759 0.0230547 2.34148)
(-0.0593354 0.0131383 0.685272)
(-0.0353441 0.0131488 0.267569)
(-0.0362263 0.00966767 0.0908937)
(0.0257872 -0.0172408 0.145779)
(0.0343999 -0.0298581 0.338229)
(0.0255151 -0.0323656 0.675519)
(-0.0177008 -0.018052 0.975669)
(-0.0494861 -0.0233911 0.540893)
(-0.0428376 -0.00649345 0.234228)
(-0.0413458 0.00413244 0.0834159)
(0.0314288 -0.0301613 0.0924024)
(0.0227384 -0.0367045 0.23526)
(0.0109929 -0.0404633 0.339703)
(-0.0331951 -0.0362217 0.385266)
(-0.0582821 -0.0225989 0.287598)
(-0.0564985 -0.00834511 0.158906)
(-0.0533039 -0.0037769 0.0546748)
(0.0276892 -0.0356597 0.0539622)
(0.0157419 -0.0371047 0.0970444)
(-0.00460913 -0.0268118 0.152617)
(-0.0340277 -0.0207993 0.158878)
(-0.0520206 -0.0198448 0.105912)
(-0.0560927 -0.0175522 0.0615596)
(-0.0553336 -0.0153504 0.0374361)
(0.0305864 0.0562815 0.0866555)
(0.0147202 0.057937 0.135491)
(-0.00533668 0.0513183 0.194873)
(-0.025678 0.0466721 0.200907)
(-0.040492 0.0527362 0.129828)
(-0.0514096 0.0504791 0.0851982)
(-0.0576573 0.0458983 0.0702179)
(0.0359367 0.0526073 0.135337)
(0.0248233 0.0605311 0.257117)
(0.00420075 0.0546467 0.389766)
(-0.0310786 0.04759 0.436037)
(-0.0551539 0.0475056 0.283333)
(-0.0620875 0.0423681 0.143462)
(-0.0646492 0.0334769 0.0812015)
(0.0406775 0.0393151 0.210707)
(0.0424077 0.0512812 0.428197)
(0.028366 0.0540996 0.750417)
(-0.0220307 0.0447605 0.99081)
(-0.068604 0.0522913 0.549557)
(-0.0561825 0.0327127 0.239578)
(-0.0673913 0.0188403 0.103749)
(0.0405415 0.0119681 0.271738)
(0.0481078 0.0126971 0.540396)
(0.0347893 0.0150222 1.15253)
(-0.0538894 0.0350508 2.89464)
(-0.0796322 0.0144654 0.814387)
(-0.0515165 0.012311 0.328586)
(-0.0664542 0.00821735 0.13036)
(0.0427977 -0.0195503 0.233966)
(0.0466122 -0.0328495 0.459904)
(0.0321054 -0.0389216 0.831041)
(-0.0223034 -0.0235486 1.22468)
(-0.0667896 -0.0320018 0.630799)
(-0.0554224 -0.0111343 0.281973)
(-0.0663867 -0.000926528 0.121354)
(0.0443152 -0.0374104 0.155508)
(0.0370502 -0.049849 0.302636)
(0.0144429 -0.0505259 0.460122)
(-0.0321032 -0.043866 0.532103)
(-0.0645913 -0.038216 0.363664)
(-0.068816 -0.0224655 0.180459)
(-0.0703626 -0.014547 0.0898733)
(0.038701 -0.0457438 0.0969241)
(0.023751 -0.0494133 0.160961)
(-0.000346551 -0.0430039 0.239792)
(-0.0300742 -0.0374527 0.255628)
(-0.0516643 -0.0386551 0.172167)
(-0.0619905 -0.0341361 0.10064)
(-0.065457 -0.0307117 0.0726204)
(0.0505943 0.0718235 0.158785)
(0.0289776 0.0744326 0.201423)
(0.00351767 0.0703375 0.263734)
(-0.0208896 0.0648967 0.275999)
(-0.0400106 0.0736006 0.199472)
(-0.0594995 0.0731973 0.159554)
(-0.0733772 0.0689481 0.146024)
(0.0521688 0.061442 0.206935)
(0.0375111 0.0703916 0.32409)
(0.0117975 0.0663315 0.48404)
(-0.0345551 0.0602749 0.549586)
(-0.0600911 0.0584134 0.347681)
(-0.0736593 0.0586756 0.199314)
(-0.0830478 0.0506355 0.155685)
(0.0549981 0.0426788 0.297005)
(0.0543821 0.0627489 0.546662)
(0.0408837 0.0834359 0.911269)
(-0.0392588 0.0749458 1.22746)
(-0.0909889 0.0675733 0.700334)
(-0.0715375 0.0420327 0.29498)
(-0.0903612 0.028253 0.172249)
(0.0520666 0.0113927 0.37449)
(0.0571518 0.0150085 0.729461)
(0.0344247 0.0310931 1.55293)
(-0.110993 0.0666046 2.99284)
(-0.11588 0.0208901 0.989388)
(-0.0694226 0.0136819 0.385335)
(-0.0949832 0.00731913 0.191433)
(0.0562958 -0.0235221 0.324225)
(0.0583976 -0.0419195 0.598656)
(0.0464594 -0.0604519 1.05817)
(-0.0469421 -0.0430139 1.64113)
(-0.1026 -0.0484551 0.801695)
(-0.0712248 -0.0197924 0.336627)
(-0.0926149 -0.0117395 0.183878)
(0.057818 -0.0461907 0.231609)
(0.0472933 -0.058047 0.381015)
(0.0227671 -0.0625836 0.59248)
(-0.0382741 -0.0572036 0.707172)
(-0.0740233 -0.0475563 0.446906)
(-0.0816726 -0.039024 0.235791)
(-0.0898734 -0.0342269 0.160806)
(0.0554058 -0.059793 0.169535)
(0.0357518 -0.0615012 0.234256)
(0.00744162 -0.0565415 0.323143)
(-0.0271741 -0.0504524 0.345872)
(-0.0522108 -0.055199 0.247152)
(-0.0694423 -0.0557876 0.172255)
(-0.0804116 -0.0562206 0.147759)
(0.0617036 0.072854 0.292872)
(0.0371445 0.0774611 0.319913)
(0.0087678 0.0745699 0.366552)
(-0.0158762 0.0676544 0.378894)
(-0.0362049 0.0785072 0.316988)
(-0.0584382 0.0802929 0.290468)
(-0.0750427 0.0761553 0.281344)
(0.0593537 0.0585804 0.327279)
(0.0402948 0.0653158 0.42338)
(0.0119438 0.055336 0.589972)
(-0.0388751 0.0510317 0.668331)
(-0.0560941 0.0543465 0.435419)
(-0.0725328 0.0621708 0.312875)
(-0.0853367 0.0559978 0.287245)
(0.0537178 0.036995 0.410586)
(0.0426264 0.0545223 0.686336)
(0.0425448 0.0847651 1.26394)
(-0.0721165 0.0738348 1.58115)
(-0.0794184 0.053578 0.845495)
(-0.0700584 0.0429878 0.385787)
(-0.09338 0.0319179 0.296403)
(0.0426144 0.00907486 0.495197)
(0.0395001 0.0107009 0.970541)
(0.0205302 -0.00488614 2.40868)
(-0.119101 0.00760162 3.58387)
(-0.117201 0.0149302 1.26923)
(-0.0682153 0.0135996 0.463813)
(-0.10049 0.00654858 0.307844)
(0.0511673 -0.0215571 0.43875)
(0.0425626 -0.0377668 0.760462)
(0.046235 -0.0830074 1.57462)
(-0.0624305 -0.0706264 2.35406)
(-0.102627 -0.0470784 1.04637)
(-0.0673372 -0.021895 0.422201)
(-0.0966057 -0.0185359 0.3033)
(0.059972 -0.0458626 0.350202)
(0.0423529 -0.0499533 0.484929)
(0.0192559 -0.0481409 0.741856)
(-0.04205 -0.0449783 0.897052)
(-0.064769 -0.0368995 0.539208)
(-0.0785602 -0.0444115 0.339801)
(-0.0904922 -0.0445871 0.290701)
(0.0620104 -0.0638361 0.301919)
(0.0395817 -0.0620659 0.35021)
(0.010531 -0.0522951 0.430561)
(-0.0221371 -0.0444293 0.457478)
(-0.04522 -0.0574137 0.357492)
(-0.0646528 -0.0658048 0.299964)
(-0.0780551 -0.0689317 0.283375)
(-0.045069 0.016826 0.00671586)
(-0.0422137 0.0106837 0.00590862)
(-0.0448613 0.0184239 0.00450188)
(-0.0418011 0.019789 0.00300091)
(-0.0407298 0.0206532 0.00153067)
(-0.0395678 0.0210529 0.000110181)
(-0.0386837 0.02145 -0.00126701)
(-0.0375689 0.0214968 -0.00255239)
(-0.025366 0.00922049 0.00935273)
(-0.042521 0.00629614 0.00755551)
(-0.0444044 0.011202 0.00584715)
(-0.0423835 0.0132845 0.00427668)
(-0.0417986 0.0142441 0.00280753)
(-0.0412985 0.0147461 0.0014266)
(-0.0404982 0.0149467 0.000126862)
(-0.0394806 0.0149459 -0.00111364)
(-0.0287457 0.0133209 0.0117123)
(-0.0373433 0.00627514 0.0079435)
(-0.0448586 0.00786516 0.00634802)
(-0.0434277 0.00918708 0.0049309)
(-0.043052 0.00963409 0.00342914)
(-0.0425478 0.00985194 0.00201497)
(-0.0420062 0.00995324 0.000614518)
(-0.0408608 0.00971015 -0.000680642)
(-0.0239726 0.0074013 0.0128615)
(-0.0344485 0.00643588 0.00835532)
(-0.0436223 0.00410644 0.00682432)
(-0.0429457 0.00424374 0.00538982)
(-0.042699 0.00389282 0.00397078)
(-0.043276 0.00357155 0.00270218)
(-0.0432388 0.00317054 0.00159992)
(-0.0422359 0.00274051 0.000670581)
(-0.0376768 0.00241664 0.0132197)
(-0.033152 0.00728501 0.00761282)
(-0.0495374 0.002598 0.00661193)
(-0.0458684 0.00139496 0.00476302)
(-0.0456007 0.00054024 0.00305745)
(-0.0456402 -0.000357958 0.00153895)
(-0.0445831 -0.000960648 0.00012116)
(-0.0439901 -0.00132506 -0.0012072)
(-0.034091 -0.00101985 0.00993595)
(-0.0413137 0.00567688 0.00742054)
(-0.0501014 -0.000325057 0.00602424)
(-0.0483002 -0.0030463 0.0044862)
(-0.0464582 -0.0044867 0.00294066)
(-0.0458612 -0.00592268 0.00149821)
(-0.0445486 -0.00672893 0.000168814)
(-0.0437599 -0.00741756 -0.00114236)
(-0.047333 -0.00535922 0.0071896)
(-0.0482491 0.000654335 0.00610622)
(-0.0522004 -0.00751851 0.00474067)
(-0.0470002 -0.00980565 0.00330581)
(-0.0468222 -0.0114611 0.00181404)
(-0.0457482 -0.0118266 0.000333125)
(-0.0451549 -0.0120284 -0.00121307)
(-0.0443058 -0.0120418 -0.00273314)
(-0.048412 0.0278329 0.0333377)
(-0.047895 0.0284872 0.0310261)
(-0.0475941 0.0291401 0.0280039)
(-0.0470058 0.0294225 0.024577)
(-0.0461759 0.0293748 0.0210931)
(-0.0450673 0.0290301 0.0175978)
(-0.0437025 0.0284378 0.0141456)
(-0.0420707 0.0276045 0.0107492)
(-0.0501488 0.0197778 0.0362387)
(-0.0507925 0.0205007 0.0338307)
(-0.0509101 0.0210439 0.0308764)
(-0.0506928 0.0213286 0.0275231)
(-0.0501139 0.0213121 0.0239424)
(-0.0491047 0.0210206 0.0202604)
(-0.0476906 0.0205062 0.0165571)
(-0.0458887 0.0197987 0.0128612)
(-0.0488404 0.0114151 0.0366553)
(-0.0507791 0.012319 0.034266)
(-0.0520497 0.0127642 0.0319838)
(-0.0525766 0.0129432 0.0289316)
(-0.0524731 0.0128658 0.0252878)
(-0.0517195 0.0125834 0.0214341)
(-0.0503922 0.0121496 0.0174928)
(-0.0485571 0.0116021 0.0135601)
(-0.0472094 0.0069141 0.0393914)
(-0.0507699 0.00615128 0.0346595)
(-0.0527895 0.0055575 0.0319293)
(-0.0538256 0.00510596 0.0285973)
(-0.054068 0.00465554 0.0247361)
(-0.0535142 0.00423185 0.0206248)
(-0.0522545 0.00384769 0.0164479)
(-0.0503909 0.0035064 0.0123262)
(-0.0504696 0.00337983 0.0370651)
(-0.0528224 0.000451413 0.0329158)
(-0.0544604 -0.00131308 0.0309366)
(-0.0550199 -0.00247559 0.0274258)
(-0.0549608 -0.00333309 0.0235458)
(-0.0541889 -0.00392336 0.0195259)
(-0.0527984 -0.00427928 0.0154463)
(-0.0508909 -0.00443787 0.0114106)
(-0.0545879 -0.00440099 0.034559)
(-0.0552647 -0.00723423 0.0319583)
(-0.0556837 -0.00910343 0.0292141)
(-0.055537 -0.0104612 0.0257777)
(-0.0549363 -0.0114035 0.0219406)
(-0.0538649 -0.0119768 0.0179832)
(-0.0523395 -0.0122243 0.0140013)
(-0.0504053 -0.0121925 0.0100432)
(-0.0547826 -0.0135818 0.0320861)
(-0.0544819 -0.0154009 0.0300624)
(-0.0542988 -0.0169826 0.0271219)
(-0.053748 -0.0181084 0.0235806)
(-0.0529505 -0.018834 0.0198842)
(-0.0518172 -0.0191981 0.0161145)
(-0.0503764 -0.0192735 0.0123418)
(-0.0486267 -0.0190964 0.00858093)
(-0.0601235 0.0437969 0.0618804)
(-0.0602008 0.0449691 0.0545484)
(-0.0606155 0.0461345 0.0462569)
(-0.0608938 0.0469974 0.0372753)
(-0.0609361 0.0474906 0.0279869)
(-0.0606704 0.0476058 0.0187693)
(-0.060015 0.047329 0.0100502)
(-0.0587989 0.0465652 0.00233007)
(-0.0652167 0.0315509 0.0679221)
(-0.0662166 0.0321224 0.0600058)
(-0.0673215 0.0328744 0.0516681)
(-0.0683314 0.0334586 0.0424664)
(-0.0690159 0.0337535 0.0326696)
(-0.0692373 0.0337352 0.0227011)
(-0.068868 0.0333893 0.0130903)
(-0.0677007 0.0326575 0.00448351)
(-0.0670075 0.0179656 0.0727077)
(-0.0690413 0.0185369 0.0633184)
(-0.0709796 0.0188762 0.0548799)
(-0.0726943 0.0190512 0.0455658)
(-0.0739137 0.0190374 0.0354249)
(-0.0744831 0.0188447 0.024916)
(-0.0742778 0.0184741 0.0146548)
(-0.0730922 0.0178954 0.0054006)
(-0.0672895 0.00603288 0.075249)
(-0.0703275 0.00541147 0.0639752)
(-0.0727434 0.00482632 0.0553043)
(-0.0747964 0.00425504 0.0459084)
(-0.0762297 0.00369421 0.0356388)
(-0.0768947 0.00317498 0.0249538)
(-0.0766991 0.00270978 0.0145037)
(-0.0754574 0.00229301 0.00508575)
(-0.0683021 -0.00441952 0.073372)
(-0.0711731 -0.00722524 0.0619414)
(-0.0733269 -0.00908309 0.0531598)
(-0.0750326 -0.0105942 0.0436889)
(-0.0761227 -0.0118064 0.0334382)
(-0.0764913 -0.0127017 0.0228555)
(-0.0760733 -0.0132773 0.0125703)
(-0.0746923 -0.0135232 0.00335416)
(-0.0700064 -0.0172865 0.0673051)
(-0.0712875 -0.0204487 0.0579883)
(-0.0723269 -0.0230109 0.0492318)
(-0.0730763 -0.0251027 0.039737)
(-0.0733811 -0.0266788 0.029668)
(-0.0731753 -0.0277355 0.0194785)
(-0.0724034 -0.0282898 0.00973211)
(-0.0708905 -0.028313 0.00109853)
(-0.0669696 -0.0308367 0.0615748)
(-0.0670968 -0.0339376 0.0537097)
(-0.0672514 -0.0367235 0.04504)
(-0.0671759 -0.038949 0.0356253)
(-0.0668224 -0.0405724 0.0258823)
(-0.0661577 -0.041607 0.0162461)
(-0.06514 -0.0420689 0.00719214)
(-0.063618 -0.0418818 -0.000748064)
(-0.0816689 0.0677468 0.136967)
(-0.0851876 0.0715841 0.128448)
(-0.0889713 0.0752974 0.118726)
(-0.0920546 0.0781208 0.107938)
(-0.0938661 0.0796631 0.0961776)
(-0.0938417 0.0795832 0.0833587)
(-0.0914779 0.0775703 0.0690668)
(-0.086369 0.0733705 0.0525243)
(-0.088693 0.048342 0.143397)
(-0.0939803 0.0502992 0.13437)
(-0.0995837 0.0528623 0.124552)
(-0.104606 0.0549903 0.113529)
(-0.108122 0.0562319 0.101308)
(-0.109283 0.056249 0.0878152)
(-0.107304 0.0547387 0.0725984)
(-0.10162 0.0514837 0.0547068)
(-0.0933241 0.0269238 0.148401)
(-0.0994665 0.0275836 0.138181)
(-0.10614 0.0285831 0.128205)
(-0.112389 0.0294246 0.117012)
(-0.117006 0.0298589 0.10445)
(-0.118927 0.0296772 0.0904465)
(-0.117165 0.0286841 0.0745295)
(-0.111029 0.0267479 0.0556349)
(-0.0956842 0.00499837 0.150723)
(-0.102206 0.00396441 0.139085)
(-0.109093 0.00311855 0.128863)
(-0.115633 0.00232893 0.117513)
(-0.120511 0.00164305 0.104746)
(-0.122583 0.00110298 0.0904847)
(-0.12079 0.000704163 0.0742532)
(-0.114402 0.000426399 0.0549529)
(-0.0952486 -0.0161856 0.148655)
(-0.101705 -0.0197821 0.136825)
(-0.108212 -0.0229152 0.126284)
(-0.114172 -0.0254648 0.114711)
(-0.118467 -0.027243 0.101826)
(-0.12007 -0.0280768 0.0875357)
(-0.118014 -0.0278151 0.0713686)
(-0.111635 -0.0263812 0.0522643)
(-0.0938972 -0.0376436 0.142362)
(-0.0987051 -0.0427172 0.131854)
(-0.103594 -0.0476315 0.121168)
(-0.107912 -0.0516396 0.109402)
(-0.110735 -0.0543449 0.0964969)
(-0.111241 -0.0554538 0.0823819)
(-0.108658 -0.054718 0.0666147)
(-0.102447 -0.0519916 0.0482525)
(-0.0871988 -0.0592885 0.13564)
(-0.0899706 -0.0658119 0.126077)
(-0.092939 -0.0716281 0.115426)
(-0.0951914 -0.0761262 0.103719)
(-0.0961588 -0.0790271 0.0910805)
(-0.0953289 -0.0800087 0.0774437)
(-0.0922054 -0.0787916 0.0624139)
(-0.0863923 -0.0751839 0.0452312)
(-0.0858539 0.0756954 0.272331)
(-0.091562 0.0811101 0.259588)
(-0.0984485 0.0869541 0.239617)
(-0.105598 0.0925695 0.21068)
(-0.112745 0.0978944 0.171729)
(-0.120474 0.103536 0.123081)
(-0.129686 0.110227 0.0667789)
(-0.137452 0.11549 0.00695889)
(-0.0937769 0.0538355 0.278373)
(-0.101389 0.0566432 0.267772)
(-0.110235 0.0605123 0.250695)
(-0.119527 0.0644057 0.224436)
(-0.128733 0.0680785 0.186999)
(-0.138515 0.0718624 0.137801)
(-0.150227 0.0763929 0.0784685)
(-0.160553 0.0801163 0.0135593)
(-0.0994249 0.0296134 0.282145)
(-0.107707 0.0302242 0.272327)
(-0.117505 0.0315917 0.257169)
(-0.12795 0.0331489 0.232951)
(-0.138319 0.0347081 0.196875)
(-0.149299 0.0363874 0.147612)
(-0.162506 0.0385196 0.086355)
(-0.174436 0.0403322 0.0179502)
(-0.102654 0.00341733 0.284015)
(-0.11066 0.0016077 0.27371)
(-0.12032 0.000214262 0.259051)
(-0.130843 -0.000897607 0.235542)
(-0.141365 -0.00167963 0.2)
(-0.152563 -0.00211666 0.150771)
(-0.166146 -0.00223629 0.088852)
(-0.17856 -0.00209543 0.0192035)
(-0.100865 -0.0230986 0.282534)
(-0.108628 -0.0274088 0.271651)
(-0.117763 -0.0315237 0.256101)
(-0.127549 -0.0351636 0.231706)
(-0.137328 -0.038152 0.195556)
(-0.147839 -0.0406544 0.146266)
(-0.160741 -0.0430824 0.0849873)
(-0.17258 -0.0447672 0.0165939)
(-0.0966363 -0.048314 0.278135)
(-0.10285 -0.0548754 0.266574)
(-0.110216 -0.0617207 0.24902)
(-0.118077 -0.0678401 0.222486)
(-0.126023 -0.0729853 0.184881)
(-0.134817 -0.077542 0.135565)
(-0.145897 -0.0822414 0.0761146)
(-0.156033 -0.0856704 0.0111279)
(-0.0867785 -0.0729652 0.272437)
(-0.0907028 -0.081774 0.259323)
(-0.0957121 -0.0903685 0.239187)
(-0.101062 -0.0980284 0.210092)
(-0.106639 -0.10473 0.17088)
(-0.113134 -0.111093 0.121833)
(-0.121543 -0.117918 0.0650397)
(-0.129039 -0.122846 0.00476004)
(0.0216244 -0.0271634 0.00932037)
(0.0178713 -0.0236273 0.007318)
(0.0200271 -0.0237256 0.00545546)
(0.019756 -0.0251832 0.0034733)
(0.0202934 -0.02669 0.00151565)
(0.0203474 -0.0279697 -0.000376719)
(0.0203476 -0.0290271 -0.00216425)
(0.0199328 -0.0293165 -0.00372462)
(0.0193675 -0.020446 0.0150904)
(0.0125349 -0.00945313 0.00996177)
(0.0220195 -0.014171 0.00811297)
(0.0188931 -0.015984 0.00639524)
(0.0199553 -0.016819 0.00497513)
(0.0211665 -0.0173329 0.00365582)
(0.0200333 -0.0162581 0.00270225)
(0.0215302 -0.0170371 0.001783)
(0.0221737 -0.011077 0.0217076)
(0.0125327 -0.00197401 0.0113535)
(0.0264007 -0.00584709 0.00942752)
(0.018884 -0.00799704 0.00794094)
(0.0191037 -0.00927991 0.00716413)
(0.0192775 -0.0109856 0.00654779)
(0.0163149 -0.0125698 0.00601028)
(0.0175219 -0.015318 0.00572616)
(0.0259105 0.0100639 0.0262916)
(0.0138962 0.00776594 0.0121748)
(0.0289164 0.00945132 0.0103852)
(0.0225053 0.0091775 0.00972818)
(0.0221921 0.0093788 0.00967273)
(0.021644 0.00964715 0.00976074)
(0.0212857 0.00915494 0.00981055)
(0.0198027 0.00931773 0.00945948)
(0.0208946 0.0292404 0.0207549)
(0.00505628 0.0151718 0.0115121)
(0.0228439 0.0168713 0.00902951)
(0.0160266 0.0169404 0.00713952)
(0.0178522 0.0180144 0.00596753)
(0.0172163 0.0184837 0.00506281)
(0.0183405 0.0205852 0.00423843)
(0.016919 0.0220407 0.00333866)
(0.0198733 0.0378957 0.0132103)
(0.00944562 0.0219621 0.0085109)
(0.0240375 0.0284781 0.00769121)
(0.0171227 0.0286239 0.00585828)
(0.0179254 0.0280174 0.00441799)
(0.0189939 0.0281052 0.00324076)
(0.0195174 0.0273257 0.00210731)
(0.0196783 0.0262921 0.00115855)
(0.0177137 0.0390341 0.0086635)
(0.0128217 0.0344428 0.00733867)
(0.0169949 0.0323494 0.00573021)
(0.0165356 0.0332138 0.00402539)
(0.0176381 0.0347313 0.00236511)
(0.0178912 0.0356259 0.000772888)
(0.0177465 0.0365263 -0.00077711)
(0.017073 0.0370252 -0.00222687)
(0.0299559 -0.031023 0.0426288)
(0.0295815 -0.0305215 0.0382038)
(0.0304571 -0.0304465 0.0339712)
(0.0311294 -0.0305752 0.0293255)
(0.0315354 -0.0306424 0.0245872)
(0.0315857 -0.0305151 0.0198561)
(0.0312926 -0.0301403 0.0151959)
(0.0306689 -0.0295045 0.0106044)
(0.0339191 -0.0225688 0.0533683)
(0.0319067 -0.0216506 0.0451874)
(0.0318495 -0.0214569 0.0411605)
(0.0317325 -0.0215863 0.0371252)
(0.0317434 -0.0218175 0.0330567)
(0.0315249 -0.0220062 0.0288164)
(0.030992 -0.0220591 0.0246386)
(0.0301605 -0.0219727 0.0204825)
(0.0335336 -0.00726644 0.0724777)
(0.0312558 -0.00693718 0.0527672)
(0.0307936 -0.00794063 0.0480601)
(0.0299422 -0.0088749 0.0449446)
(0.0295134 -0.00985209 0.0421477)
(0.028799 -0.0108662 0.0390653)
(0.027674 -0.011798 0.0358847)
(0.0262529 -0.0125639 0.0324004)
(0.0330508 0.0114552 0.0771284)
(0.0307541 0.0101762 0.0534977)
(0.0307759 0.00936955 0.0489957)
(0.0299764 0.00875076 0.0464096)
(0.0294998 0.0083402 0.044252)
(0.0287418 0.00802095 0.0420047)
(0.0275018 0.00767682 0.0395226)
(0.0257959 0.00730422 0.0369437)
(0.0316832 0.0268487 0.0615502)
(0.0292823 0.0241862 0.0476284)
(0.029764 0.0232852 0.0444556)
(0.0294029 0.0227775 0.041053)
(0.0293604 0.0225301 0.0379583)
(0.0289612 0.0223712 0.034702)
(0.0281992 0.0222553 0.0312641)
(0.0269899 0.022079 0.0277994)
(0.0287115 0.0375803 0.0483434)
(0.0278792 0.0357699 0.0424495)
(0.0287494 0.0350595 0.0386138)
(0.0289327 0.0346364 0.0344346)
(0.0291667 0.0342612 0.0304206)
(0.0290593 0.0338196 0.0263507)
(0.0285701 0.033236 0.0222127)
(0.0277068 0.0325077 0.0181561)
(0.0235855 0.0421453 0.0411625)
(0.0239313 0.0415295 0.0375523)
(0.0251889 0.0411746 0.0336551)
(0.0260687 0.0409501 0.029294)
(0.0266443 0.0406143 0.0249)
(0.0268146 0.0400612 0.0205207)
(0.0266114 0.0392757 0.0162168)
(0.0260614 0.0382457 0.0119963)
(0.0439618 -0.0420574 0.073341)
(0.0456898 -0.0423312 0.0622877)
(0.047727 -0.0431015 0.0525168)
(0.0495349 -0.0438808 0.041982)
(0.0509074 -0.0444131 0.0308932)
(0.0517618 -0.0446051 0.0197901)
(0.0520405 -0.0444246 0.0092871)
(0.051607 -0.0437963 5.07031e-05)
(0.0467861 -0.0308544 0.0948109)
(0.0473612 -0.0303617 0.0754372)
(0.0487243 -0.0303196 0.0657891)
(0.0504506 -0.0305148 0.0565691)
(0.052146 -0.0307606 0.0464295)
(0.0535161 -0.0308429 0.035568)
(0.0543397 -0.0306447 0.0246202)
(0.054358 -0.030087 0.0144182)
(0.0458467 -0.0120295 0.129393)
(0.0448509 -0.0126082 0.0914533)
(0.0449706 -0.013591 0.0799875)
(0.0459306 -0.0142866 0.0724504)
(0.0472309 -0.0150229 0.0643148)
(0.0484057 -0.0157153 0.0550057)
(0.049113 -0.0162429 0.0449397)
(0.0490581 -0.0165176 0.0349552)
(0.0449239 0.0106784 0.141534)
(0.0437869 0.00909901 0.0953776)
(0.0436956 0.00751724 0.0838939)
(0.0444025 0.00627714 0.0776172)
(0.0455796 0.0052643 0.0708957)
(0.0467062 0.00436136 0.0630107)
(0.0473458 0.00355434 0.0542475)
(0.0471786 0.00285732 0.0454054)
(0.0450058 0.0311835 0.113921)
(0.0448952 0.0284994 0.0838408)
(0.0458164 0.0265523 0.0746784)
(0.0472353 0.0251625 0.0673846)
(0.0488634 0.0241565 0.0591687)
(0.0502774 0.0232928 0.049834)
(0.0511679 0.0224494 0.0398914)
(0.0512416 0.0215597 0.0301852)
(0.0414113 0.0458621 0.0855428)
(0.0436521 0.0437414 0.0707816)
(0.046047 0.0425421 0.0620244)
(0.0483521 0.0417635 0.0529913)
(0.0504008 0.0410674 0.0430572)
(0.0519804 0.0402722 0.0325351)
(0.0529273 0.0392944 0.0220297)
(0.0530199 0.0380599 0.0123223)
(0.0374079 0.0529742 0.0698738)
(0.0400303 0.0528598 0.0602857)
(0.0425748 0.0531285 0.0509832)
(0.044754 0.0533306 0.0408618)
(0.0464449 0.0532837 0.030253)
(0.0475875 0.052925 0.0196532)
(0.0481359 0.0522269 0.00962443)
(0.0479586 0.051106 0.000789091)
(0.0675099 -0.0599352 0.144835)
(0.0746404 -0.0639361 0.131755)
(0.0809839 -0.0678639 0.119891)
(0.0862602 -0.0708868 0.107305)
(0.0898094 -0.0725284 0.0939116)
(0.0911178 -0.0724623 0.0796752)
(0.0897278 -0.0703771 0.0642031)
(0.0853024 -0.0660352 0.0466915)
(0.0655731 -0.0422731 0.168263)
(0.0736886 -0.0437691 0.147012)
(0.0815306 -0.045551 0.134978)
(0.0889538 -0.0470239 0.123345)
(0.0949468 -0.0477329 0.110652)
(0.0984604 -0.0472703 0.0966904)
(0.0986119 -0.0453148 0.0810995)
(0.0947769 -0.0416262 0.0630055)
(0.0608721 -0.0181905 0.20616)
(0.0669304 -0.0204278 0.165509)
(0.074507 -0.0221032 0.151873)
(0.0823573 -0.0232823 0.142)
(0.0893734 -0.0241775 0.131425)
(0.0940021 -0.0245106 0.119393)
(0.09491 -0.0240098 0.105465)
(0.0912407 -0.0224907 0.0887519)
(0.0573553 0.008675 0.225118)
(0.0631365 0.00566925 0.172938)
(0.0706867 0.00328856 0.158855)
(0.0784971 0.001648 0.150347)
(0.0856856 0.000394282 0.141307)
(0.0905923 -0.000587853 0.13073)
(0.0916932 -0.00131691 0.118025)
(0.0880074 -0.00180306 0.102152)
(0.0618787 0.0338155 0.191593)
(0.0690892 0.0308206 0.160374)
(0.0769099 0.0287065 0.149356)
(0.0848353 0.027274 0.140288)
(0.0918104 0.026137 0.1302)
(0.0963165 0.024882 0.118608)
(0.0970922 0.0232089 0.105088)
(0.0933077 0.0208947 0.0887137)
(0.063126 0.0551176 0.160292)
(0.0725055 0.0535003 0.144648)
(0.0811069 0.0529998 0.134154)
(0.0890376 0.0526508 0.123282)
(0.0953603 0.0518474 0.111228)
(0.0991181 0.0501813 0.0978646)
(0.0994809 0.0473078 0.0828226)
(0.0958271 0.0429275 0.0652352)
(0.0639192 0.0696332 0.142376)
(0.0719268 0.0717161 0.131363)
(0.0790357 0.0739987 0.120379)
(0.0849627 0.0755822 0.10847)
(0.0891113 0.0760248 0.0956812)
(0.0909864 0.0749855 0.0819652)
(0.0901375 0.0721201 0.0669249)
(0.0862178 0.0671418 0.0497712)
(0.0775988 -0.0661531 0.282118)
(0.0874512 -0.0719355 0.266597)
(0.0967556 -0.0778029 0.246037)
(0.105603 -0.0831209 0.217029)
(0.113736 -0.0879311 0.177955)
(0.121893 -0.0929785 0.128762)
(0.131095 -0.099087 0.0712799)
(0.13851 -0.103881 0.00972533)
(0.0738226 -0.0454512 0.301189)
(0.0869888 -0.0477915 0.28262)
(0.0997258 -0.0503118 0.26479)
(0.1127 -0.0526583 0.239105)
(0.125177 -0.0547408 0.202036)
(0.137572 -0.0570681 0.152372)
(0.151041 -0.060454 0.0914368)
(0.162111 -0.0636869 0.0238215)
(0.064819 -0.02007 0.331081)
(0.0786062 -0.0229581 0.299686)
(0.0929169 -0.0244376 0.283247)
(0.108259 -0.0252778 0.26128)
(0.124061 -0.0258015 0.227414)
(0.140312 -0.0262944 0.17904)
(0.157985 -0.0272636 0.116801)
(0.172841 -0.0280466 0.045722)
(0.0580758 0.00528936 0.349628)
(0.0727772 0.00150735 0.307818)
(0.0878256 -0.000784899 0.292188)
(0.103758 -0.00206365 0.273038)
(0.120598 -0.00276547 0.242437)
(0.13828 -0.00310302 0.197111)
(0.15777 -0.00316145 0.137124)
(0.174321 -0.00301801 0.0671)
(0.0679862 0.0293174 0.319984)
(0.0819576 0.0260582 0.296065)
(0.0960676 0.0236542 0.28152)
(0.111355 0.0220779 0.260235)
(0.127084 0.0211697 0.226742)
(0.143235 0.0209418 0.178815)
(0.160822 0.0217046 0.11726)
(0.175572 0.0227754 0.0469222)
(0.0750186 0.0527322 0.294818)
(0.0888369 0.0507315 0.280486)
(0.102271 0.0501355 0.263894)
(0.115929 0.050117 0.23881)
(0.128986 0.0505135 0.202196)
(0.141864 0.0518165 0.152986)
(0.155672 0.054779 0.0925334)
(0.16693 0.0579922 0.0254487)
(0.0785855 0.0705214 0.279122)
(0.0894218 0.0730539 0.264967)
(0.0998344 0.0763968 0.244837)
(0.109823 0.0797073 0.216108)
(0.119093 0.0829618 0.177411)
(0.128235 0.0870321 0.128625)
(0.1381 0.0927747 0.0715543)
(0.145787 0.0978119 0.0103452)
(0.00527372 0.0350357 0.00854177)
(0.00173956 0.0353453 0.00649443)
(0.00899618 0.0363599 0.00438934)
(0.0123074 0.0333718 0.00243998)
(0.0143067 0.0334591 0.000515442)
(0.0158773 0.0335097 -0.00144677)
(0.016937 0.033233 -0.00330353)
(0.0177509 0.0326689 -0.00486108)
(0.000525985 0.0273808 0.013384)
(-0.00712434 0.0259046 0.00910616)
(0.00169796 0.0372997 0.00768332)
(0.00542051 0.0312928 0.00624722)
(0.00743556 0.0307352 0.00513441)
(0.00934163 0.0309266 0.00410636)
(0.010407 0.0295507 0.003182)
(0.0116906 0.0295344 0.00233582)
(-0.0109689 0.0314316 0.0187075)
(-0.0118612 0.0185285 0.00943178)
(-0.00903332 0.0397724 0.00929658)
(-0.00863387 0.0298331 0.00793512)
(-0.0062073 0.0301506 0.0073267)
(-0.00368814 0.0283042 0.00683874)
(-0.0013956 0.0271974 0.00635686)
(0.000730514 0.0258719 0.00573968)
(-0.0228414 0.0194319 0.0174003)
(-0.0200235 0.0238085 0.01075)
(-0.018888 0.0319501 0.00858102)
(-0.0194305 0.0279648 0.00705437)
(-0.0188284 0.028607 0.00628123)
(-0.0183761 0.0293498 0.00578538)
(-0.0178837 0.0284333 0.00524469)
(-0.0164679 0.0279433 0.00460167)
(-0.0360603 0.0233947 0.0144699)
(-0.0210325 0.0158639 0.00966182)
(-0.0250857 0.0284773 0.00763654)
(-0.0253107 0.0253321 0.00587861)
(-0.0253218 0.0259234 0.0046469)
(-0.0258147 0.0275562 0.00348595)
(-0.0259757 0.0258141 0.00240248)
(-0.0281657 0.0268134 0.00116881)
(-0.0393659 0.024697 0.00987459)
(-0.0281727 0.0174671 0.00833017)
(-0.0325508 0.027135 0.00640204)
(-0.0327739 0.0249327 0.0046583)
(-0.0314859 0.0245244 0.00330341)
(-0.0314699 0.026016 0.00204774)
(-0.029936 0.0256372 0.000991654)
(-0.0283172 0.0257199 0.000102395)
(-0.0454646 0.029492 0.00580101)
(-0.0420593 0.02275 0.00537921)
(-0.0414431 0.025584 0.00415013)
(-0.0405869 0.0243507 0.00270469)
(-0.0403625 0.0242868 0.00126614)
(-0.0396311 0.0237912 -0.000103545)
(-0.0393529 0.0233921 -0.00148728)
(-0.0385808 0.0226179 -0.00277013)
(0.0159591 0.0443303 0.0413334)
(0.0177252 0.0435131 0.0372872)
(0.0192256 0.0434688 0.0332793)
(0.020366 0.0433396 0.0288395)
(0.0211324 0.0431048 0.0243302)
(0.0215365 0.042603 0.0197959)
(0.021605 0.0418217 0.0152888)
(0.0213536 0.0407505 0.0108345)
(0.0035651 0.0438422 0.0509469)
(0.00706796 0.0427014 0.0440885)
(0.00935353 0.0426192 0.0404339)
(0.0109615 0.0422518 0.0364534)
(0.0121383 0.0419807 0.0324445)
(0.0129103 0.0414433 0.0281299)
(0.0132871 0.0406046 0.0236925)
(0.0133175 0.0394793 0.0192326)
(-0.0106902 0.0403458 0.060494)
(-0.00605887 0.0395294 0.0494182)
(-0.00303104 0.040008 0.0460979)
(-0.000878627 0.0394477 0.0429169)
(0.00110346 0.0390739 0.0401547)
(0.00288268 0.0381685 0.0371186)
(0.00440579 0.0367993 0.03379)
(0.00566316 0.0350084 0.0303012)
(-0.0223114 0.0380503 0.0581987)
(-0.0185334 0.0380251 0.0473938)
(-0.0162244 0.0385789 0.0445973)
(-0.0146524 0.0387138 0.0420789)
(-0.013335 0.0387185 0.0397769)
(-0.0121875 0.0381563 0.0373195)
(-0.0111724 0.0369827 0.0346772)
(-0.0102386 0.0353134 0.0318582)
(-0.03242 0.0379791 0.0467893)
(-0.0292927 0.0376358 0.0424378)
(-0.0276726 0.0387198 0.0396077)
(-0.0265026 0.039202 0.0362921)