/*--------------------------------*- C++ -*----------------------------------*\
| =========                 |                                                 |
| \\      /  F ield         | OpenFOAM: The Open Source CFD Toolbox           |
|  \\    /   O peration     | Version:  plus.master.MPPICInterFoam            |
|   \\  /    A nd           | Web:      www.OpenFOAM.com                      |
|    \\/     M anipulation  |                                                 |
\*---------------------------------------------------------------------------*/
FoamFile
{
    version     2.0;
    format      ascii;
    class       scalarField;
    location    "8.8/lagrangian/kinematicCloud";
    object      age;
}
// * * * * * * * * * * * * * * * * * * * * * * * * * * * * * * * * * * * * * //


29
(
8.49625
7.92869
7.9032
8.20561
8.18109
8.784
8.13147
8.27516
8.00013
8.01201
8.07025
7.90005
7.99131
8.08006
7.99446
8.63029
7.8726
8.10007
8.25099
8.20008
8.60026
8.52003
8.0645
8.7777
8.71281
8.3571
8.76991
8.78228
8.74425
)


// ************************************************************************* //
