/*--------------------------------*- C++ -*----------------------------------*\
| =========                 |                                                 |
| \\      /  F ield         | OpenFOAM: The Open Source CFD Toolbox           |
|  \\    /   O peration     | Version:  plus.master.MPPICInterFoam            |
|   \\  /    A nd           | Web:      www.OpenFOAM.com                      |
|    \\/     M anipulation  |                                                 |
\*---------------------------------------------------------------------------*/
FoamFile
{
    version     2.0;
    format      ascii;
    class       scalarField;
    location    "8.8/lagrangian/kinematicCloud";
    object      d;
}
// * * * * * * * * * * * * * * * * * * * * * * * * * * * * * * * * * * * * * //


29
(
0.000488414
0.000484153
0.000519594
0.000495923
0.000490353
0.000456666
0.000502088
0.000530112
0.000499419
0.000516804
0.000512939
0.000491504
0.000520282
0.000454611
0.000525572
0.000500766
0.000506768
0.000513012
0.000535059
0.000539632
0.000492714
0.000480865
0.000570733
0.00051517
0.000516321
0.000549076
0.000472068
0.000470064
0.000507009
)


// ************************************************************************* //
