/*--------------------------------*- C++ -*----------------------------------*\
| =========                 |                                                 |
| \\      /  F ield         | OpenFOAM: The Open Source CFD Toolbox           |
|  \\    /   O peration     | Version:  plus.master.MPPICInterFoam            |
|   \\  /    A nd           | Web:      www.OpenFOAM.com                      |
|    \\/     M anipulation  |                                                 |
\*---------------------------------------------------------------------------*/
FoamFile
{
    version     2.0;
    format      ascii;
    class       Cloud<basicKinematicMPPICParcel>;
    location    "8.8/lagrangian/kinematicCloud";
    object      positions;
}
// * * * * * * * * * * * * * * * * * * * * * * * * * * * * * * * * * * * * * //

29
(
(-0.000426141 0.0220609 0.328176) 10637
(-0.00141037 0.022127 0.328572) 10637
(-0.00269107 0.0208147 0.309188) 6872
(-0.00460556 0.0202619 0.310906) 6872
(-0.00290929 0.0215242 0.292307) 6760
(-0.00256296 -0.0193458 0.282797) 5904
(-0.00289635 0.0213592 0.28281) 6704
(-0.00229891 0.0211957 0.269915) 6640
(-0.00306644 0.0205196 0.276935) 6704
(-0.00205059 0.0208901 0.259801) 6584
(-0.00257298 0.0194556 0.262348) 6592
(-0.00306812 0.0195566 0.261713) 6592
(-0.00257337 0.0193001 0.25446) 6592
(-0.00327336 0.0192588 0.248284) 6536
(-0.00262386 0.0194972 0.245134) 6536
(-0.00315298 0.0198969 0.225987) 6424
(-0.00256559 -0.0184054 0.224327) 5567
(-0.00267577 0.0199106 0.220519) 6368
(-0.00340247 0.0196276 0.214303) 6312
(-0.00310044 0.019617 0.213173) 6312
(0.0619038 -0.00844664 0.328761) 10758
(0.062611 -0.00861822 0.328924) 10758
(-0.00238042 0.0190402 0.202514) 6248
(0.0600645 -0.0088187 0.329898) 10758
(0.0601018 -0.00851306 0.330068) 10758
(-0.00258467 0.0188918 0.194683) 6200
(0.0632556 -0.00809756 0.330845) 10758
(0.0642796 -0.0110758 0.331885) 10759
(0.0609954 -0.00956317 0.331957) 10758
)


// ************************************************************************* //
