/*--------------------------------*- C++ -*----------------------------------*\
| =========                 |                                                 |
| \\      /  F ield         | OpenFOAM: The Open Source CFD Toolbox           |
|  \\    /   O peration     | Version:  plus.master.MPPICInterFoam            |
|   \\  /    A nd           | Web:      www.OpenFOAM.com                      |
|    \\/     M anipulation  |                                                 |
\*---------------------------------------------------------------------------*/
FoamFile
{
    version     2.0;
    format      ascii;
    class       volScalarField;
    location    "3.2";
    object      p_rgh;
}
// * * * * * * * * * * * * * * * * * * * * * * * * * * * * * * * * * * * * * //

dimensions      [1 -1 -2 0 0 0 0];

internalField   nonuniform List<scalar> 
11821
(
5658.13
5655.8
5659.36
5655.39
5658.58
5660.84
5670.04
5670.19
5670.48
5670.57
5670.19
5669.9
5670.18
5660.21
5432.18
5015.67
5020.15
5564.57
5667.55
5670.11
5501.03
3959.29
3026.25
2948.35
4543.89
5669.41
5670.29
5052.04
3046.18
2769.46
2769.52
3413.77
5466.34
5670.41
5285.84
3202.49
2772.32
2770.62
3737.8
5586.1
5670.49
5631.36
4582.82
3462.67
3418.91
4981.28
5670.83
5670.47
5670.17
5661.94
5473.92
5463.3
5664.75
5670.44
5670.62
5680.89
5682.11
5682.88
5682.57
5681.16
5679.62
5678.85
5676.92
5574.04
5335.21
5366.33
5641.13
5676.39
5679.8
5592.3
4524.71
3417.24
3426.32
4980.77
5681.72
5681
5206.69
3185.1
2709.96
2709.75
3769.98
5581.2
5681.77
5407.57
3411.27
2709.18
2708.49
4088
5646.18
5681.72
5655.89
4775.98
3631.57
3665.16
5157.04
5683.19
5681.18
5681.94
5675.92
5551.26
5554.28
5677.15
5681.44
5680.58
5685.56
5686.33
5686.76
5686.53
5685.58
5684.46
5682.34
5685.83
5675.64
5644.43
5655.82
5683.95
5681.18
5684.65
5667.46
5328.45
4597.2
4646.78
5487.62
5686.85
5685.89
5488.73
3927.81
2638.62
2637.56
4667.52
5680.8
5686.98
5604.89
4187.35
2662.09
2756.49
4883.5
5688.39
5687.2
5680.73
5207.26
4343.97
4425.28
5459.85
5688.38
5686.56
5687.66
5685.91
5664.51
5667.55
5685.99
5686.99
5685.76
5686.71
5687.37
5687.8
5687.69
5687.01
5686.23
5667.39
5687.76
5688.61
5689.35
5689.6
5688.68
5686.94
5686.02
5682.62
5556.21
5332.42
5283.41
5580.12
5689.05
5687.6
5587.76
4618.96
2697.36
2790.47
5144.99
5690.62
5688.45
5667.34
4760.73
2948.5
3197.43
5265.01
5690.66
5688.61
5688.94
5413.91
4928.56
4910.99
5582.65
5689.69
5688.26
5688.76
5689.55
5690.34
5690.27
5689.66
5688.84
5687.88
5685.48
5686.19
5686.67
5686.66
5686.13
5685.59
5660.75
5686.66
5687.66
5688.51
5688.57
5687.81
5686.91
5683.76
5680.63
5539.23
5379.26
5290.45
5537.85
5688.12
5686.41
5585.62
4665.84
3001.31
3020.23
5136.71
5689.19
5687.28
5664.53
4743.88
3318.48
3386.72
5266.41
5689.11
5687.42
5688.35
5402.83
5002.5
4931.73
5601.54
5688.37
5683.82
5687.39
5688.6
5689.63
5689.64
5688.65
5687.55
5680.85
5680.64
5680.94
5681.24
5681.47
5681.61
5681.7
5660.75
5680.82
5680.78
5680.63
5681.22
5681.63
5682.1
5676.68
5661.63
5390.78
5171.19
5021.03
5358.51
5682.18
5681.74
5508.06
4408.44
3025.89
2901.53
4890.19
5682.44
5682.57
5604.12
4406.44
3219.69
3212.62
5109.33
5682.63
5682.59
5680.08
5257.75
4805.95
4697.2
5588.95
5682.9
5674.39
5681.5
5681.85
5682.16
5681.64
5683.14
5683.12
5624.38
5673.97
5672.9
5672.69
5673.67
5675.31
5675.8
5658.46
5671.15
5661.96
5588.44
5622.94
5664.72
5675.29
5674.46
5577.71
4807.42
4327.29
4150.34
5041.1
5673.2
5676.43
5159.07
3534.71
2772.45
2539.68
4298.07
5672.05
5676.17
5342.28
3524.48
2756.99
2800.59
4731.25
5672.8
5676.46
5644.31
4797.53
4104.99
4084.65
5548.33
5674.76
5659.18
5672.88
5670.79
5638.17
5613.28
5674.76
5673.47
5445.3
5675.01
5674.09
5673.99
5674.96
5676.33
5673.21
5603.08
5672.31
5591.59
5335.48
5465.76
5641.59
5676.25
5678.32
5374.82
3787.27
3002.07
3162.7
4886.88
5674.6
5677.46
4508.24
2301.03
2157.93
2110.54
4004.59
5673.89
5677.24
4886.86
2576.97
2100.16
2312.27
4553.53
5674.76
5674.77
5572.73
4204.94
3258.22
3661.96
5545.93
5676.32
5564.89
5674.08
5657.4
5570.53
5565.69
5676.1
5665.44
5422.43
5682.66
5682.93
5683.24
5683.39
5683.18
5670.93
5549.23
5679.5
5497.93
5128.67
5290.3
5649.35
5683.48
5682.69
5164.81
3140.16
2378.32
2858.17
5037.4
5683.75
5684
4014.27
1960.49
1956.34
1960.06
4255.49
5684.24
5684.22
4583.27
2149.13
1958.05
2008.39
4747.63
5684.87
5640.62
5526.86
4114.95
3145.02
3771.76
5621.55
5679.68
5422.01
5683.3
5663.45
5591.64
5613.13
5682.04
5614.6
5421.4
5689.57
5690.16
5690.39
5689.92
5688.81
5653.52
5550.23
5679.42
5462.92
5120.86
5217.03
5678.47
5689.87
5678.1
5120.85
3100.58
2376.51
2907.45
5470.61
5690.93
5690.11
3940.01
1880.13
1879.19
1882.47
4972.7
5692.11
5689.33
4559.85
2091.91
1881.57
1992.26
5250.29
5691.15
5536.12
5545.48
4393.14
3538.69
4420.83
5671.86
5654.58
5422.44
5690.85
5686.11
5660.5
5675.47
5671.85
5400.41
5481.92
5694.77
5695.28
5695.27
5694.57
5693.05
5614.75
5551.15
5666.77
5421.1
5106.63
5251.81
5695.06
5694.6
5671.88
5104.6
3228.94
2564.42
3277.99
5693.46
5695.76
5694.68
3963.66
1798.38
1799.83
1803.39
5586.6
5697.08
5689.89
4627.39
2199.42
1801.14
2490.53
5638.87
5688.97
5525.25
5627.91
5048.72
4471.58
5315.79
5676.85
5564.09
5446.82
5695.95
5697.36
5696.2
5690.47
5617.71
5349.14
5598.6
5697.3
5697.4
5697.26
5695.89
5695.31
5600.76
5551.01
5604.89
5210
4890.78
5309.7
5697.15
5696.47
5660.01
4897.38
3216.06
2606.71
3662.75
5698.25
5697.92
5697.24
3845.9
1712.6
1713.93
1940
5700.6
5699.01
5691.82
4747.61
2497.88
1756.24
3664.13
5699.12
5683.51
5596.46
5698.26
5634.69
5370.17
5684.31
5662.06
5445.78
5587.66
5698.39
5699.43
5700.32
5667.25
5380.37
5343.15
5642.25
5698.85
5698.64
5698.11
5697.11
5696.31
5620.47
5599.61
5456.5
4619.44
4284.86
5350.82
5698.01
5696.67
5644.94
4208.12
2843.18
2365.87
3609.58
5698.02
5698.71
5697.89
3384.49
1628.09
1626.95
2205.34
5699.47
5699.34
5695.67
4877.2
2725.41
1837.54
4660.35
5699.06
5686.31
5689.44
5699.43
5699.96
5699.29
5697.77
5635.99
5429.29
5664.79
5700.11
5700.61
5700.77
5590.16
5334.55
5335.49
5660.55
5701.98
5702.75
5700.76
5701.07
5700.21
5658.93
5680.9
5425.22
4171.18
3914.38
5444.73
5701.14
5700.35
5651.23
3891.54
1988.31
1825.52
3571.38
5701.47
5701.11
5698.3
3336.08
1554.51
1551.19
2563.82
5696.46
5701.48
5700.29
5162.38
3149.64
2314.24
5345.8
5701.48
5695.15
5700.46
5702.71
5703.14
5703.26
5701.55
5661.56
5450.21
5686.04
5702.62
5702.78
5702.68
5556.74
5329.27
5354.13
5679.96
5707.18
5707.77
5706.9
5706.66
5705.45
5656.66
5693.33
5569.14
4322.95
4090.41
5642.99
5706.97
5704.69
5695.85
4230.71
1734.1
1570.11
3969.86
5707.61
5705.3
5701.52
3930.54
1568.5
1509.74
3506.85
5707.24
5705.51
5703.59
5615.85
4338.58
3881.53
5684.76
5706.37
5702.16
5703.34
5706.63
5707.79
5707.87
5706.51
5704.33
5506.07
5702.86
5705.04
5705.26
5705.45
5591.61
5371.33
5414.08
5698.46
5697.57
5701.79
5702.75
5698.75
5546.51
5563.96
5698.82
5701.21
4963.96
4712.34
5699.16
5697.2
5597.58
5701.29
5102.73
1928.61
1559.85
4806.47
5699.98
5646.54
5701.55
5069.71
2033.79
1674.99
4534.54
5698.05
5640.17
5701.76
5708.09
5455.76
5245.05
5697.25
5657.7
5644.99
5701.63
5705.38
5705.54
5704.4
5700.95
5275.6
5527.67
5701.12
5703.58
5703.23
5702.86
5575.17
5471.89
5424.61
5699.37
5667.25
5667.42
5659.2
5660.49
5666.24
5666.92
5667.22
5667.38
5661.02
5662.7
5664.3
5628.47
5665.31
5666.82
5667.13
5667.33
5661.13
5662.78
5614.87
5652.77
5666
5666.73
5667.05
5667.23
5661.61
5663.14
5487.42
5644.37
5666.21
5666.68
5667
5667.16
5662.22
5663.47
5440.91
5652.83
5666.11
5666.61
5666.94
5667.11
5669.92
5596.87
5500.43
5670.75
5670.7
5671.24
5671.37
5671.51
5669.98
5649.48
5497.58
5636.15
5671.06
5671.22
5671.37
5671.51
5670.11
5669.26
5534.85
5669.93
5671.1
5671.28
5671.43
5671.55
5670.25
5666.56
5581.33
5668.8
5671.13
5671.33
5671.47
5671.58
5670.29
5665.86
5553.5
5667.49
5671.18
5671.35
5671.49
5671.6
5670.32
5665.7
5433.34
5650.23
5671.26
5671.42
5671.55
5671.65
5670.46
5651.24
5431.71
5650.31
5671.37
5671.53
5671.66
5671.74
5656.37
5505.47
5514.42
5676.75
5676.13
5676.27
5676.23
5676.3
5675.13
5535.02
5498.64
5671.58
5676.43
5676.28
5676.26
5676.32
5678.72
5656.84
5499.33
5676.16
5676.59
5676.42
5676.36
5676.39
5679.66
5657.4
5543.02
5676.27
5676.81
5676.59
5676.5
5676.5
5679.72
5660.97
5608.53
5676.39
5676.94
5676.72
5676.62
5676.61
5679.56
5651.21
5460.83
5669.48
5677.06
5676.85
5676.75
5676.74
5679.42
5534.83
5431.92
5658.62
5677.06
5676.92
5676.86
5676.85
5545.72
5504.83
5591.89
5681.1
5680.5
5680.24
5680.1
5680.12
5643.72
5504.89
5521.39
5681.22
5680.68
5680.35
5680.19
5680.18
5672.8
5535.63
5581.99
5681.45
5680.89
5680.52
5680.32
5680.27
5683.67
5661.45
5632.97
5681.7
5681.15
5680.75
5680.51
5680.43
5682.96
5666.14
5678.78
5681.97
5681.39
5680.98
5680.72
5680.62
5679.58
5575.41
5610.99
5681.88
5681.64
5681.23
5680.97
5680.85
5669.71
5455.68
5469.7
5675.35
5681.98
5681.55
5681.28
5681.15
5524.24
5522.99
5680.49
5683.15
5682.67
5682.36
5682.22
5682.21
5583.54
5502.86
5625.86
5683.38
5682.89
5682.55
5682.37
5682.32
5654.24
5515.99
5678.71
5683.71
5683.16
5682.78
5682.54
5682.44
5683.21
5674.7
5684.72
5684.05
5683.46
5683.03
5682.75
5682.62
5684.68
5674.67
5685.05
5684.29
5683.7
5683.27
5682.97
5682.81
5664.1
5538.29
5683.8
5684.45
5683.9
5683.49
5683.19
5683.02
5588.47
5451.97
5580.01
5684.56
5684.07
5683.7
5683.43
5683.26
5522.36
5613.66
5683.71
5683.35
5683.05
5682.86
5682.76
5682.73
5592.73
5517.24
5684.19
5683.74
5683.38
5683.12
5682.96
5682.88
5656.65
5613.43
5684.58
5684.06
5683.66
5683.35
5683.13
5683.03
5683.09
5683.04
5684.95
5684.38
5683.94
5683.59
5683.34
5683.2
5685.48
5682.8
5685.16
5684.62
5684.18
5683.83
5683.56
5683.39
5627.53
5569.12
5685.3
5684.82
5684.4
5684.05
5683.77
5683.59
5444.87
5444.44
5666.93
5684.97
5684.58
5684.25
5683.99
5683.81
5585.51
5681.81
5682.06
5682.14
5682.2
5682.24
5682.26
5682.27
5645.49
5655.32
5682.64
5682.62
5682.58
5682.53
5682.48
5682.45
5673.73
5681.13
5682.9
5682.85
5682.79
5682.72
5682.64
5682.59
5680.46
5682.8
5683.12
5683.06
5682.99
5682.91
5682.81
5682.73
5679.83
5683.3
5683.31
5683.27
5683.2
5683.1
5682.98
5682.88
5534.15
5634.76
5683.45
5683.42
5683.36
5683.26
5683.13
5683.01
5435.95
5501.1
5683.3
5683.36
5683.37
5683.31
5683.2
5683.09
5662.6
5679.65
5680.42
5681.01
5681.44
5681.73
5681.9
5681.98
5659.01
5680.13
5680.92
5681.45
5681.8
5682.02
5682.13
5682.17
5678.65
5680.12
5680.97
5681.54
5681.92
5682.15
5682.26
5682.3
5678.47
5680.07
5681.03
5681.64
5682.05
5682.29
5682.39
5682.41
5670.12
5680.27
5681.19
5681.81
5682.2
5682.43
5682.51
5682.51
5488.65
5672.11
5681.39
5681.97
5682.33
5682.53
5682.58
5682.56
5425.88
5622.62
5681.3
5681.9
5682.29
5682.5
5682.56
5682.53
5679.68
5680.61
5681.4
5682.02
5682.48
5682.79
5682.99
5683.08
5655.67
5680.93
5681.77
5682.35
5682.76
5683.03
5683.19
5683.26
5677.59
5680.83
5681.74
5682.38
5682.83
5683.12
5683.29
5683.36
5679.39
5680.71
5681.78
5682.46
5682.93
5683.23
5683.39
5683.45
5670.84
5680.95
5681.92
5682.6
5683.06
5683.34
5683.48
5683.52
5521.84
5680.81
5682.13
5682.75
5683.16
5683.41
5683.52
5683.54
5427.48
5676.57
5682.17
5682.75
5683.15
5683.39
5683.48
5683.48
5684.1
5684.52
5684.87
5685.14
5685.36
5685.51
5685.61
5685.66
5659.09
5684.76
5685.1
5685.34
5685.53
5685.65
5685.74
5685.78
5677.2
5684.8
5685.13
5685.38
5685.58
5685.72
5685.81
5685.85
5684.47
5684.8
5685.23
5685.49
5685.69
5685.82
5685.9
5685.94
5676.67
5685.05
5685.36
5685.62
5685.8
5685.93
5685.99
5686
5612.68
5685.17
5685.48
5685.72
5685.88
5685.99
5686.03
5686.02
5550.05
5685.22
5685.61
5685.81
5685.94
5686.01
5686.02
5686
5689.03
5688.99
5688.95
5688.86
5688.89
5688.88
5688.89
5688.89
5666.49
5689.19
5689.09
5689.03
5689
5688.98
5688.98
5688.98
5682.41
5689.31
5689.18
5689.11
5689.06
5689.04
5689.04
5689.03
5689.51
5689.5
5689.36
5689.26
5689.2
5689.16
5689.14
5689.11
5685.43
5689.7
5689.51
5689.4
5689.33
5689.27
5689.23
5689.19
5680.53
5689.76
5689.6
5689.49
5689.41
5689.35
5689.3
5689.25
5674.86
5690.02
5689.85
5689.68
5689.54
5689.44
5689.37
5689.31
5693.25
5692.99
5692.62
5692.45
5692.34
5692.24
5692.17
5692.13
5683.97
5693.15
5692.82
5692.57
5692.4
5692.28
5692.2
5692.16
5689.39
5693.27
5692.91
5692.65
5692.46
5692.33
5692.24
5692.19
5692.77
5693.52
5693.07
5692.81
5692.59
5692.44
5692.34
5692.27
5694.14
5693.67
5693.24
5692.94
5692.72
5692.56
5692.44
5692.36
5694.3
5693.77
5693.36
5693.05
5692.82
5692.65
5692.53
5692.44
5694.48
5694.09
5693.66
5693.29
5693
5692.79
5692.64
5692.54
5696.26
5696.08
5695.57
5695.49
5695.33
5695.17
5695.06
5694.98
5687.96
5696.13
5695.8
5695.52
5695.32
5695.15
5695.03
5694.95
5692.4
5696.15
5695.81
5695.53
5695.32
5695.15
5695.03
5694.95
5695.33
5696.27
5695.9
5695.64
5695.41
5695.23
5695.09
5695
5696.92
5696.42
5696.04
5695.74
5695.51
5695.32
5695.17
5695.07
5697.02
5696.54
5696.15
5695.84
5695.59
5695.4
5695.25
5695.15
5697.23
5696.86
5696.45
5696.07
5695.77
5695.54
5695.36
5695.25
5698.48
5698.11
5697.88
5697.87
5697.66
5697.47
5697.32
5697.21
5688.38
5698.31
5698.05
5697.81
5697.61
5697.44
5697.3
5697.19
5687.7
5698.19
5697.96
5697.77
5697.59
5697.43
5697.29
5697.19
5697.05
5698.26
5697.99
5697.83
5697.64
5697.48
5697.33
5697.23
5698.57
5698.37
5698.07
5697.9
5697.71
5697.53
5697.38
5697.27
5698.81
5698.52
5698.23
5697.99
5697.77
5697.59
5697.43
5697.32
5699.17
5698.89
5698.54
5698.21
5697.93
5697.69
5697.51
5697.39
5699.9
5696.57
5699.64
5699.57
5699.34
5699.14
5698.96
5698.82
5690.55
5700.12
5699.81
5699.57
5699.36
5699.17
5698.99
5698.86
5688.1
5699.87
5699.8
5699.58
5699.38
5699.19
5699.02
5698.9
5698.63
5700.13
5699.59
5699.64
5699.43
5699.24
5699.07
5698.94
5700.24
5699.52
5699.71
5699.68
5699.47
5699.27
5699.1
5698.97
5700.54
5700.24
5699.94
5699.7
5699.47
5699.28
5699.1
5698.98
5700.73
5700.45
5700.11
5699.8
5699.53
5699.31
5699.12
5699
5699.6
5689.53
5700.62
5700.59
5700.35
5700.13
5699.92
5699.76
5695.28
5701.73
5701.14
5700.8
5700.5
5700.25
5700.03
5699.87
5690.14
5701.85
5701.33
5700.9
5700.59
5700.33
5700.1
5699.95
5700.6
5696.69
5700.67
5700.96
5700.64
5700.38
5700.16
5700.01
5702.14
5700.28
5700.76
5700.94
5700.64
5700.39
5700.17
5700.04
5702.19
5701.62
5701.16
5700.84
5700.58
5700.35
5700.15
5700.02
5701.82
5701.35
5700.98
5700.69
5700.46
5700.26
5700.08
5699.96
5698.67
5683.28
5698.83
5699.84
5699.9
5699.92
5699.86
5699.79
5699.93
5700.74
5700.4
5700.35
5700.27
5700.2
5700.12
5700.04
5694.77
5700.73
5700.48
5700.47
5700.38
5700.32
5700.25
5700.2
5699.58
5694.28
5698.3
5700.5
5700.43
5700.39
5700.33
5700.29
5700.89
5698.91
5699.64
5700.51
5700.46
5700.42
5700.37
5700.33
5700.86
5700.6
5700.47
5700.43
5700.42
5700.39
5700.34
5700.29
5700.3
5700.07
5700.01
5700.09
5700.18
5700.21
5700.19
5700.14
5670.04
5670.43
5670.76
5671.03
5671.31
5671.59
5671.86
5672.05
5669.97
5670.17
5670.51
5670.9
5671.23
5671.53
5671.82
5672.03
5670.17
5670.06
5670.34
5670.71
5671.07
5671.42
5671.73
5671.97
5670.25
5670.01
5670.3
5670.72
5671.03
5671.35
5671.66
5671.9
5670.12
5670.06
5670.39
5670.74
5671.05
5671.32
5671.61
5671.83
5669.9
5670.14
5670.48
5670.79
5671.07
5671.14
5671.58
5671.77
5670.01
5670.31
5670.61
5670.89
5671.15
5670.87
5671.58
5671.74
5680.4
5679.58
5678.91
5678.39
5678.03
5677.86
5677.85
5677.91
5681.34
5679.94
5678.98
5678.36
5677.98
5677.8
5677.79
5677.85
5682.54
5680.49
5679.26
5678.47
5677.97
5677.74
5677.7
5677.76
5683.05
5680.72
5679.35
5678.49
5677.91
5677.63
5677.57
5677.62
5681.99
5680.11
5679
5678.16
5677.66
5677.19
5677.35
5677.41
5680.48
5679.16
5678.33
5677.7
5676.56
5676.45
5677.13
5677.18
5679.39
5678.58
5677.96
5677.5
5669.94
5675.87
5676.97
5677
5686.14
5685.03
5684.06
5683.25
5682.63
5682.3
5682.13
5682.1
5686.94
5685.34
5684.12
5683.22
5682.59
5682.21
5682.04
5682
5687.82
5685.82
5684.37
5683.31
5682.58
5682.13
5681.92
5681.86
5687.9
5685.8
5684.32
5683.17
5682.42
5681.95
5681.72
5681.66
5686.5
5684.84
5683.56
5682.62
5682.01
5681.23
5681.4
5681.36
5685.25
5683.92
5682.9
5682.13
5676.09
5680.47
5681.11
5681.06
5684.33
5683.42
5682.6
5681.29
5665.68
5679.87
5680.89
5680.84
5687.62
5686.68
5685.74
5684.28
5684.48
5684.23
5683.97
5683.96
5688.19
5686.98
5685.94
5684.61
5684.33
5684.15
5683.92
5683.84
5688.68
5687.24
5686.1
5685.18
5684.51
5684.05
5683.77
5683.66
5688.56
5687.12
5686
5684.97
5684.3
5683.84
5683.55
5683.42
5687.56
5686.36
5685.4
5684.56
5683.88
5683.22
5683.26
5683.13
5686.62
5685.59
5684.72
5683.98
5676.89
5682.44
5682.97
5682.86
5685.88
5685.1
5684.38
5679.53
5672
5682.04
5682.73
5682.65
5686.42
5685.57
5684.36
5682.86
5684.04
5683.46
5683.47
5683.71
5687.14
5686.11
5685.22
5683.06
5683.41
5683.89
5683.65
5683.55
5687.59
5686.38
5685.44
5684.58
5684.06
5683.76
5683.52
5683.36
5687.47
5686.22
5685.3
5684.51
5683.97
5683.57
5683.32
5683.17
5686.67
5685.63
5684.87
5684.17
5683.59
5683.21
5683.09
5682.96
5685.75
5684.88
5684.23
5683.6
5680.78
5682.49
5682.87
5682.76
5684.83
5684.14
5683.66
5674.81
5680
5682.41
5682.67
5682.59
5681.73
5681.58
5680.78
5680.02
5681.71
5680.51
5681.65
5682.01
5681.7
5681.79
5681.55
5680.18
5680.75
5681.87
5681.85
5681.8
5681.43
5681.65
5681.7
5680.57
5680.44
5681.66
5681.7
5681.51
5681.31
5681.48
5681.51
5681.52
5681.41
5681.55
5681.55
5681.34
5681.27
5681.35
5681.32
5681.4
5681.3
5681.43
5681.45
5681.32
5681.16
5681.21
5681.25
5681.12
5681.31
5681.2
5681.38
5681.35
5680.85
5680.74
5680.82
5674.82
5680.71
5681.07
5681.28
5681.28
5675.38
5676.78
5677.37
5677.55
5676.8
5679.49
5680.25
5680.57
5673.39
5675.87
5677.14
5676.89
5678.38
5679.87
5680.22
5680.22
5671.14
5674.55
5676.64
5676.34
5677.29
5679.47
5680.01
5680.03
5670.48
5674.1
5676.23
5676.99
5677.86
5679.45
5679.89
5679.8
5672.13
5674.96
5676.74
5678.04
5678.72
5679.56
5679.95
5679.78
5674.32
5676.29
5677.63
5678.4
5679.24
5679.75
5680.07
5680.1
5675.7
5676.87
5677.8
5678.23
5679.15
5679.64
5680.15
5680.28
5676.08
5677.49
5678.62
5679.46
5675.34
5680.9
5681.31
5681.54
5674.46
5676.65
5677.97
5677.57
5679.7
5680.68
5677.16
5681.06
5672.85
5675.49
5677.39
5676.99
5677.98
5680.32
5680.96
5681.03
5671.97
5674.96
5676.98
5676.77
5678.16
5680.29
5680.87
5680.79
5673.13
5675.71
5677.47
5678.6
5679.44
5680.45
5680.96
5680.83
5675.06
5676.95
5678.3
5678.93
5680.03
5680.71
5681.13
5681.1
5676.48
5677.69
5678.22
5679.42
5680.15
5680.6
5681.26
5681.44
5683.08
5683.32
5683.59
5681.37
5683.87
5656.53
5684.25
5684.82
5683.24
5683.29
5683.42
5683.51
5683.86
5684.27
5671.67
5684.47
5683.62
5683.16
5683.28
5681.76
5682.84
5684.16
5679.85
5684.42
5681.79
5682.9
5683.09
5681.65
5682.59
5684.11
5684.52
5684.2
5682.67
5682.79
5683.11
5683.01
5683.53
5684.2
5684.58
5684.39
5682.56
5682.89
5683.22
5683.16
5683.83
5684.32
5684.65
5684.62
5682.66
5682.95
5682.56
5683.48
5684.02
5684.17
5684.7
5684.85
5689.71
5689.37
5689
5667.25
5678.82
5636.2
5688.44
5688.78
5690.34
5689.51
5688.98
5688.63
5688.39
5663.24
5675.46
5688.86
5691.43
5689.87
5689.13
5687.98
5688.38
5688.69
5656.64
5688.81
5688.2
5689.8
5689.13
5687.46
5688.34
5688.73
5650.4
5688.24
5690.04
5689.35
5688.95
5688.32
5688.54
5688.79
5688.21
5688.61
5689.34
5688.96
5688.67
5688.18
5688.54
5688.8
5689.03
5688.93
5688.99
5688.8
5687.94
5688.47
5688.69
5688.78
5689.01
5689.09
5694.75
5694.25
5693.68
5463.48
5305.19
5639.63
5692.4
5692.35
5695.3
5694.31
5693.49
5687.57
5651.36
5454.5
5682.94
5692.65
5696.49
5694.84
5693.85
5693.16
5692.68
5562.07
5663.51
5692.97
5694.33
5694.92
5693.95
5693.08
5692.82
5633.97
5605.88
5692.53
5695.27
5694.38
5693.68
5693.08
5692.8
5690.34
5620.56
5692.52
5694.49
5693.9
5693.36
5692.88
5692.87
5692.89
5667.65
5692.8
5694.21
5693.83
5692.72
5693.1
5693.02
5692.99
5682.32
5693.05
5697.9
5697.63
5680.12
5138.16
5146.4
5655.27
5695.72
5695.61
5697.59
5697.17
5696.5
5664.59
5249.45
5422.56
5694.66
5696.05
5698.16
5697.42
5696.79
5696.22
5618.83
5350.49
5682.27
5696.01
5684.55
5697.43
5696.83
5695.82
5689.75
5345.93
5612.11
5696.34
5696.92
5696.95
5696.58
5696.19
5695.86
5451.82
5573.14
5696.33
5696.95
5696.84
5696.48
5696.19
5695.92
5643.37
5618.46
5696.11
5697.38
5697.23
5696.15
5696.55
5696.28
5696.18
5672.29
5696.26
5700.16
5699.51
5626.74
5121.38
5175.24
5692.51
5698.47
5698.26
5699.43
5699.38
5696.36
5464.38
5164.41
5485.82
5698.62
5698.44
5699.24
5699.22
5698.92
5686.67
5224.61
5379.62
5698.29
5698.64
5648.42
5699.13
5698.92
5685.67
5385.67
5300.19
5644.63
5698.65
5687.46
5698.66
5698.63
5695.72
5641.46
5297.09
5579.31
5698.78
5698.54
5698.82
5698.69
5698.47
5698.29
5339.08
5618.66
5698.59
5699.38
5699.47
5698.85
5698.75
5698.41
5620.35
5675.81
5698.31
5702.37
5653.52
5330.77
5126.9
5447.68
5700.17
5699.79
5699.57
5701.98
5701.56
5644.62
5158.03
5154.41
5646.3
5700.21
5699.95
5702.59
5701.91
5697.88
5564.73
5155.73
5565.49
5700.61
5700.33
5654.9
5702.32
5701.64
5604.19
5157.84
5383.91
5691.42
5700.64
5694.71
5701.84
5701.37
5675.27
5358.48
5290.09
5609.34
5700.37
5701.82
5701.39
5700.88
5692.43
5631.97
5290.37
5635.67
5700.03
5701.67
5701.34
5700.77
5697.7
5672.5
5381.03
5689.85
5699.67
5704.11
5484.46
4748.84
5449.91
5671.08
5701.02
5700.53
5700.21
5704.78
5692.09
5394.44
5148.02
5269.15
5701.8
5701.19
5700.79
5706.43
5705
5645.8
5171.13
5349.09
5698.83
5701.73
5701.23
5697.61
5706.16
5704.44
5543.35
5286.13
5603.52
5701.95
5701.47
5706.71
5706
5704.59
5638.22
5253.88
5309.56
5665.82
5701.52
5706.99
5704.92
5703.3
5636.47
5142.08
5320.62
5677.01
5701.36
5705.23
5703.55
5702.31
5668.25
5139.71
5423.2
5701.11
5700.92
5697.57
5300.56
4871.33
5674.57
5699.98
5699.84
5699.47
5699.17
5703.87
5640.47
5150.49
5136.35
5591.33
5700.64
5700.04
5699.61
5705.75
5704.37
5564.63
5235.81
5649.55
5701.1
5700.28
5699.74
5706.75
5705.39
5691.64
5585.61
5662.93
5697.39
5700.44
5699.85
5705.04
5704.52
5703.91
5639.36
5459.64
5529.4
5692.96
5700.02
5700.62
5697.43
5702.24
5587.86
4969.12
5450.52
5700.83
5700.38
5644.68
5701.4
5701.09
5535.83
4959.97
5528.21
5700.33
5700.08
5670
5670.36
5670.62
5670.72
5669.28
5671.29
5671.56
5671.69
5669.9
5670.22
5670.51
5670.31
5655.27
5670.86
5671.52
5671.66
5670.08
5670.17
5670.45
5666.91
5654.99
5670.62
5671.5
5671.65
5670.06
5670.19
5670.45
5662.23
5659
5670.96
5671.5
5671.65
5670.02
5670.18
5669.11
5665.99
5670.13
5671.24
5671.5
5671.63
5670.08
5670.22
5658.9
5666.16
5666.43
5670.96
5671.44
5671.55
5670.05
5670.33
5557.04
5540.69
5656.66
5671.18
5671.35
5671.46
5679.28
5678.48
5677.76
5672.71
5663.37
5676.73
5676.79
5676.82
5679.81
5678.55
5677.65
5669.71
5660.22
5676.1
5676.6
5676.64
5680.12
5678.62
5677.64
5669.34
5660.12
5676.02
5676.48
5676.52
5679.9
5678.41
5677.45
5671.02
5673.35
5676.09
5676.36
5676.41
5679.08
5677.82
5675.91
5675.75
5675.75
5675.67
5676.22
5676.27
5678.38
5677.34
5648.06
5664.87
5616.24
5675.26
5676.11
5676.17
5677.8
5668.96
5515.73
5525.56
5663.07
5676.16
5676.15
5676.2
5684.15
5683.22
5681.56
5666.91
5665.21
5680.77
5680.64
5680.6
5684.36
5682.97
5681.8
5664.55
5663.75
5680.17
5680.39
5680.36
5684.51
5683.01
5681.9
5674.31
5671.63
5680.04
5680.19
5680.18
5684.37
5682.81
5681.67
5680.26
5677.32
5679.4
5680.02
5680.01
5683.69
5682.27
5679.54
5669.98
5647.86
5678.47
5679.84
5679.85
5683.13
5681.61
5636.55
5340.34
5568.89
5679.98
5679.87
5679.88
5678.17
5624.23
5517.86
5575.38
5675.71
5680.09
5679.98
5679.99
5685.69
5684.9
5682.18
5667.6
5671.63
5682.7
5682.51
5682.44
5685.82
5684.66
5683.46
5667.99
5670.16
5682.3
5682.28
5682.24
5686.01
5684.66
5683.7
5681.45
5681.76
5681.72
5682.08
5682.06
5685.93
5684.57
5683.52
5677.7
5672.19
5679.82
5681.93
5681.9
5685.42
5684.17
5680.06
5445.13
5517.44
5680.31
5681.79
5681.8
5685.11
5674.19
5587.14
5255.55
5570.94
5682.08
5681.94
5681.93
5658.94
5542.74
5519.69
5639.24
5682.48
5682.2
5682.08
5682.07
5684.55
5683.95
5681.46
5666.83
5679.38
5682.64
5682.52
5682.46
5684.97
5684.17
5683.24
5678.16
5680.69
5682.52
5682.41
5682.37
5685.23
5684.24
5683.49
5682.94
5681.6
5679.91
5682.29
5682.27
5685.25
5684.15
5683.24
5653.98
5638
5676.22
5682.22
5682.21
5684.95
5683.95
5660.03
5210.12
5404.87
5681.42
5682.36
5682.36
5678.25
5663.84
5496.11
5241.45
5597.1
5682.53
5682.43
5682.44
5567.13
5539.02
5583.15
5683.33
5682.92
5682.72
5682.63
5682.63
5680.52
5680.57
5679.13
5673.29
5680.85
5681.21
5681.27
5681.31
5680.92
5681.05
5680.96
5681.02
5681.21
5681.29
5681.32
5681.38
5681.28
5681.27
5681.18
5680.42
5671.03
5675.45
5681.34
5681.4
5681.49
5681.34
5681.06
5526.79
5451.16
5668.18
5681.35
5681.45
5681.75
5681.56
5602.66
5195.79
5411.72
5681.9
5681.86
5681.91
5651.01
5657.95
5377.4
5280.34
5640.47
5681.95
5681.95
5682.01
5535.42
5534.2
5671.8
5682.21
5682.14
5682.15
5682.17
5682.21
5675.66
5676.88
5676.3
5678.65
5679.3
5678.41
5680.27
5680.47
5675.47
5677.19
5678.32
5679.13
5679.66
5678.54
5680.43
5680.68
5675.7
5677.43
5678.5
5660.77
5644.73
5669.84
5680.62
5680.81
5676.43
5678.02
5670.51
5229.62
5262.03
5662.45
5680.8
5681.03
5677.57
5678.88
5436.87
5180.73
5482.75
5681.1
5681.3
5681.47
5632.48
5623.2
5332.46
5427.95
5677.54
5681.38
5681.55
5681.69
5531.95
5564.91
5680.7
5681.05
5681.39
5681.64
5681.81
5681.92
5676.54
5677.76
5677.93
5679.56
5672.71
5675.51
5681.42
5681.64
5676.37
5677.97
5679.17
5679.58
5680.44
5670.7
5681.53
5681.83
5676.54
5678.18
5679.22
5572.29
5441
5661.17
5681.69
5681.96
5677.29
5678.77
5635.18
5161.65
5270.77
5666.79
5682.22
5682.45
5678.29
5667.07
5205.69
5166.78
5582.84
5682.18
5682.44
5682.65
5631.96
5479.56
5322.22
5606.16
5682.11
5682.42
5682.66
5682.83
5532.98
5634.4
5681.58
5682.02
5682.43
5682.72
5682.93
5683.05
5682.62
5682.95
5683.28
5682.32
5655.71
5678.23
5684.73
5684.9
5682.93
5683.23
5683.5
5666.46
5595.8
5662.25
5684.67
5684.86
5683.21
5683.52
5683.86
5328.34
5174.39
5649.92
5684.65
5684.89
5683.42
5683.62
5574.34
5150.69
5361.27
5680.87
5685.26
5685.43
5676.1
5624.48
5184.59
5203.01
5659.57
5685.32
5685.43
5685.58
5590.41
5383.64
5377.38
5678.67
5685.26
5685.38
5685.51
5685.62
5551
5665.18
5685.2
5685.33
5685.46
5685.57
5685.68
5685.76
5688.91
5688.71
5688.59
5671.98
5654.98
5685.55
5688.91
5689.05
5689.27
5688.86
5688.58
5571.54
5198.17
5652.58
5688.65
5688.79
5689.41
5689.05
5683.68
5146.1
5151.82
5651.76
5688.57
5688.77
5689.3
5681.28
5367.02
5141.32
5493.45
5688.75
5688.81
5688.94
5657.76
5505.59
5173.98
5386.88
5688.53
5688.94
5688.96
5689.04
5469.43
5383.41
5517.55
5689.02
5688.93
5688.91
5688.94
5688.99
5585.47
5683.61
5689.31
5689.17
5689.07
5689.02
5689.03
5689.05
5694.1
5693.63
5693.26
5646.85
5672.48
5692.81
5692.75
5693.02
5694.26
5693.62
5693.29
5278.25
5164.49
5642.95
5692.65
5692.74
5694.07
5693.3
5636.47
5129.09
5172.72
5666.84
5692.79
5692.88
5693.89
5640.74
5139.22
5130.87
5593.22
5692.54
5692.5
5692.57
5635.53
5218.04
5164.27
5600.95
5692.61
5692.47
5692.43
5692.46
5445.4
5391.82
5653.08
5692.67
5692.49
5692.38
5692.33
5692.33
5638.56
5693.58
5693.16
5692.84
5692.6
5692.44
5692.35
5692.32
5697.31
5696.98
5696.62
5649.02
5696.01
5676.23
5695.04
5696.09
5697.14
5696.84
5696.74
5120.36
5160.49
5643.29
5695.91
5695.94
5696.7
5696.2
5513.57
5119.23
5263.21
5687.1
5695.99
5696
5695.66
5542.24
5122.16
5120.27
5659.55
5695.98
5695.81
5695.8
5593.89
5172.51
5176.93
5688.89
5696.03
5695.73
5695.59
5695.55
5463.17
5402.18
5696.07
5695.92
5695.67
5695.48
5695.35
5695.3
5678.54
5696.79
5696.36
5695.99
5695.67
5695.44
5695.29
5695.21
5699.29
5699.06
5698.64
5676.26
5538.36
5574.59
5696.84
5697.98
5698.96
5698.97
5693
5184.92
5382.78
5634.32
5698.11
5698.09
5698.58
5697.08
5372.07
5109.4
5437.6
5692.59
5698.07
5698.05
5693.17
5392.51
5115.62
5228.13
5692.67
5698.17
5698.01
5697.96
5544.27
5163.89
5309.68
5698.68
5698.27
5697.98
5697.8
5697.73
5515
5453.04
5698.46
5698.18
5697.93
5697.73
5697.57
5697.48
5678.84
5691
5698.65
5698.26
5697.94
5697.69
5697.5
5697.39
5701.57
5700.92
5700.2
5691.5
5021.03
5418.9
5699.59
5699.74
5701.69
5701.33
5689.38
5476.36
5397.14
5601.76
5699.45
5699.38
5701.52
5695.48
5368.33
5099.22
5569.09
5686.9
5699.45
5699.34
5697.08
5369.31
5106.92
5497.91
5699.95
5699.43
5699.38
5699.27
5542.39
5155.55
5563.25
5700.12
5699.73
5699.45
5699.23
5699.11
5617.92
5559.29
5700.03
5699.73
5699.47
5699.25
5699.06
5698.93
5646.4
5662.83
5700.2
5699.82
5699.5
5699.24
5699.03
5698.9
5704.87
5703.11
5701.9
5660.57
4974.69
5346.95
5701.02
5700.82
5705.82
5704.08
5698.09
5593.55
5015.55
5546.41
5700.38
5700.18
5705.92
5694.99
5481.29
5343.05
5562.03
5654.59
5700.33
5700.07
5705.33
5483.53
5314.16
5681.92
5701.19
5699.74
5700.18
5699.96
5576.34
5565.7
5689.67
5700.99
5700.88
5700.42
5700.06
5699.84
5367.19
5661.64
5701.59
5701
5700.58
5700.23
5699.95
5699.76
5575.47
5631.38
5701.27
5700.81
5700.46
5700.18
5699.93
5699.77
5674.1
5700.77
5700.53
5539.86
4958.16
5355.89
5700.26
5700
5702.15
5702.05
5701.52
5555.29
4956.12
5444.71
5699.84
5699.57
5702.79
5699.54
5674.03
5680.8
5490.42
5611.15
5699.45
5699.18
5688.36
5682.04
5687.53
5700.18
5700.17
5698.04
5699.36
5699.17
5587.67
5700.88
5700.8
5699.72
5699.99
5699.71
5699.44
5699.27
5161.04
5675.18
5700.43
5700.14
5699.94
5699.77
5699.59
5699.45
5532.25
5619.42
5700.07
5699.91
5699.86
5699.82
5699.71
5699.61
5662.24
5663.4
5662.91
5461.47
5602.13
5666.02
5666.98
5667.19
5660.86
5662.36
5663.59
5664.54
5398.19
5530.95
5666.08
5667.22
5659.23
5661.49
5663.06
5664.28
5665.21
5606.92
5660.29
5666.98
5657.67
5660.55
5662.61
5663.98
5665.1
5665.96
5663.16
5666.9
5662.36
5663.83
5664.87
5665.79
5665.86
5666.78
5666.19
5666.55
5670.54
5670.91
5604.89
5398.52
5611.77
5670.65
5671.84
5671.95
5670.27
5670.4
5670.63
5634.57
5328.2
5553.32
5672.01
5672.16
5670.23
5670.29
5670.47
5670.62
5635.77
5541.85
5665.44
5671.92
5670.29
5670.26
5670.45
5670.64
5670.97
5660.96
5667.37
5672
5670.05
5670.11
5670.47
5670.39
5670.87
5671.4
5669.37
5672
5669.97
5670.21
5670.56
5670.6
5670.91
5671.45
5671.39
5671.96
5670.1
5670.48
5670.79
5671.06
5671.33
5671.6
5671.84
5672.05
5679.6
5678.4
5456.86
5396.79
5643.38
5676.19
5677.1
5677.12
5679.98
5679.18
5678.71
5402.69
5324.18
5617.16
5677.34
5677.39
5680.74
5679.46
5678.52
5677.81
5407.24
5541.99
5676.2
5677.62
5681.71
5680.06
5678.91
5678.1
5677.6
5587.23
5673.97
5677.7
5681.86
5680.14
5679.02
5677.92
5677.71
5670.59
5674.97
5677.82
5681.19
5679.83
5678.93
5677.73
5677.76
5677.78
5676.77
5677.89
5680.52
5679.75
5679.07
5678.51
5678.12
5677.93
5677.81
5677.98
5684.58
5617.24
5428.79
5500.26
5677.75
5681.81
5681.7
5681.56
5685.29
5684.04
5641.09
5317.98
5407.43
5675.89
5682
5681.87
5686.36
5684.83
5683.51
5623.83
5367.37
5584.77
5682.02
5681.92
5687.56
5685.66