/*--------------------------------*- C++ -*----------------------------------*\
| =========                 |                                                 |
| \\      /  F ield         | OpenFOAM: The Open Source CFD Toolbox           |
|  \\    /   O peration     | Version:  plus.master.MPPICInterFoam            |
|   \\  /    A nd           | Web:      www.OpenFOAM.com                      |
|    \\/     M anipulation  |                                                 |
\*---------------------------------------------------------------------------*/
FoamFile
{
    version     2.0;
    format      ascii;
    class       surfaceScalarField;
    location    "3.2";
    object      phi;
}
// * * * * * * * * * * * * * * * * * * * * * * * * * * * * * * * * * * * * * //

dimensions      [0 3 -1 0 0 0 0];

internalField   nonuniform List<scalar> 
34018
(
3.3016e-07
4.90723e-06
4.77806e-10
-8.17566e-08
3.20635e-07
5.62706e-06
3.3413e-07
4.59855e-06
1.70034e-08
-8.75891e-08
5.75813e-06
2.86435e-07
-1.78622e-08
4.94271e-06
3.43197e-07
4.17804e-06
3.877e-08
3.23993e-07
-4.4999e-07
-2.59551e-07
5.29323e-06
4.78654e-07
2.68769e-07
-3.09018e-07
-4.52868e-07
5.70406e-06
4.29698e-07
-8.64067e-08
-5.93707e-07
5.89954e-06
5.38614e-07
1.30575e-07
-6.19241e-07
5.7105e-06
5.52679e-07
2.12938e-07
-4.57039e-07
5.21137e-06
4.53738e-07
1.96069e-07
-3.358e-07
4.60179e-06
3.63564e-07
-2.79476e-07
3.98045e-06
9.57594e-08
3.27486e-07
-5.8205e-07
-1.38677e-07
6.06241e-06
6.10098e-07
-3.67931e-07
-2.85027e-07
6.81116e-06
-7.6497e-08
-2.96964e-07
7.34668e-06
2.55573e-07
-3.99731e-07
7.03257e-06
4.05105e-07
-3.30018e-07
6.11314e-06
3.86771e-07
-2.27966e-07
5.20682e-06
-1.83679e-07
4.39619e-06
2.88555e-07
-7.88538e-07
1.64211e-07
6.8688e-06
7.84689e-07
-4.31167e-07
2.97362e-07
8.56574e-06
-9.44824e-08
5.74324e-07
1.05535e-05
4.40437e-07
3.21988e-07
9.88365e-06
6.84377e-07
1.02014e-07
7.33379e-06
5.97432e-07
4.39317e-08
5.78902e-06
3.77335e-09
4.74161e-06
4.52013e-07
-7.64375e-07
4.36732e-07
7.46429e-06
8.42522e-07
-2.64863e-07
5.4882e-07
1.06695e-05
-3.14217e-09
8.48402e-07
1.39999e-05
3.31285e-07
7.48155e-07
1.28977e-05
7.88704e-07
5.23695e-07
8.64057e-06
7.15435e-07
3.64185e-07
6.16833e-06
2.29681e-07
4.93165e-06
5.50438e-07
-7.0897e-07
6.55761e-07
7.19873e-06
7.44212e-07
-2.78589e-07
8.53442e-07
9.89061e-06
-4.25243e-08
8.43571e-07
1.31434e-05
3.39752e-07
8.83233e-07
1.22526e-05
7.25973e-07
8.2206e-07
8.20376e-06
6.71027e-07
5.96459e-07
6.04608e-06
4.00253e-07
4.87679e-06
5.33473e-07
-5.26268e-07
7.29685e-07
6.43008e-06
5.38209e-07
-2.74994e-07
9.66673e-07
7.68997e-06
-2.03841e-08
1.10864e-06
9.113e-06
3.44065e-07
1.11251e-06
8.60817e-06
5.50381e-07
9.2235e-07
6.80565e-06
5.22715e-07
6.94019e-07
5.55729e-06
4.77398e-07
4.60841e-06
4.36896e-07
-3.26278e-07
5.61086e-06
3.4374e-07
6.79191e-07
-1.89584e-07
6.20892e-06
8.73024e-07
2.40425e-08
6.58344e-06
1.01065e-06
2.43461e-07
6.36938e-06
1.01671e-06
3.48389e-07
5.71348e-06
8.62175e-07
3.52762e-07
4.96257e-06
6.69918e-07
4.22709e-06
3.10957e-07
4.70073e-07
-5.36655e-07
-4.5301e-07
5.35073e-06
5.50855e-07
3.86031e-07
-3.80984e-07
-7.62286e-07
5.7047e-06
6.06927e-07
-1.08923e-07
-9.93418e-07
5.84915e-06
7.75006e-07
1.32467e-07
-9.85745e-07
5.67366e-06
7.81101e-07
2.04305e-07
-7.48254e-07
5.23008e-06
6.60163e-07
1.65057e-07
-5.63506e-07
4.65848e-06
5.55611e-07
-4.82469e-07
4.05041e-06
5.70324e-08
5.17006e-07
-7.6913e-07
-4.02106e-07
6.0399e-06
7.40045e-07
-5.32481e-07
-7.73407e-07
6.58483e-06
-6.6726e-08
-1.00725e-06
6.89413e-06
3.695e-07
-1.02969e-06
6.63959e-06
4.76006e-07
-7.21518e-07
5.97917e-06
4.03296e-07
-4.90552e-07
5.20754e-06
-3.99357e-07
4.44202e-06
2.67979e-07
-1.12465e-06
-9.94472e-08
6.68346e-06
1.00658e-06
-7.58029e-07
-2.05765e-07
7.63112e-06
-3.82876e-08
1.08508e-07
8.71804e-06
7.11283e-07
-1.1442e-07
8.21921e-06
8.48314e-07
-3.02372e-07
6.77759e-06
6.69462e-07
-2.21111e-07
5.6981e-06
-2.02751e-07
4.75722e-06
4.62983e-07
-1.34732e-06
3.79432e-07
7.14812e-06
1.18447e-06
-6.16951e-07
5.58443e-07
9.17402e-06
1.33533e-07
7.94978e-07
1.25626e-05
8.3501e-07
7.00148e-07
1.138e-05
1.12565e-06
3.91582e-07
7.65667e-06
8.56885e-07
2.1527e-07
6.00133e-06
6.74959e-08
4.92791e-06
5.97427e-07
-1.21051e-06
7.29562e-07
6.99795e-06
1.06127e-06
-6.20138e-07
1.07783e-06
8.77986e-06
1.1434e-07
1.1903e-06
1.20139e-05
8.31554e-07
1.2418e-06
1.09915e-05
1.05817e-06
9.1581e-07
7.45269e-06
8.23072e-07
5.59349e-07
5.93716e-06
2.93056e-07
4.88562e-06
5.94523e-07
-8.37219e-07
8.15711e-07
6.41938e-06
7.61559e-07
-5.67175e-07
1.17587e-06
7.32081e-06
-1.00515e-08
1.46587e-06
8.28178e-06
5.83592e-07
1.42695e-06
7.82932e-06
7.21073e-07
1.02919e-06
6.55503e-06
6.13263e-07
6.78993e-07
5.5455e-06
3.94041e-07
4.64847e-06
4.74003e-07
-5.10747e-07
5.7072e-06
5.00209e-07
7.30605e-07
-3.47095e-07
6.22036e-06
9.99478e-07
-2.6217e-09
6.49645e-06
1.20849e-06
3.17804e-07
6.29118e-06
1.18474e-06
4.08407e-07
5.72189e-06
9.29993e-07
3.8073e-07
5.01959e-06
6.49537e-07
4.28973e-06
3.18765e-07
3.92917e-07
-4.1211e-07
-2.58074e-07
5.41178e-06
4.01275e-07
2.11275e-07
-3.46909e-07
-4.7921e-07
5.74431e-06
3.74418e-07
-1.99679e-07
-6.82956e-07
5.86192e-06
5.22868e-07
-7.51388e-08
-7.02858e-07
5.68829e-06
5.63624e-07
-5.9572e-08
-5.70492e-07
5.26158e-06
5.2585e-07
-1.04667e-07
-5.01125e-07
4.69449e-06
5.06233e-07
-4.94363e-07
4.08331e-06
-1.71554e-07
5.27978e-07
-5.45753e-07
-2.50853e-07
6.078e-06
4.99867e-07
-4.51126e-07
-5.43263e-07
6.55288e-06
-1.52465e-07
-8.61266e-07
6.77319e-06
9.99495e-08
-8.63515e-07
6.54746e-06
1.31764e-07
-5.80474e-07
5.95706e-06
7.45973e-08
-4.53799e-07
5.21752e-06
-4.36693e-07
4.45202e-06
7.03939e-10
-7.66904e-07
-1.26241e-07
6.6635e-06
6.61631e-07
-6.57755e-07
-3.83807e-07
7.36213e-06
-9.31488e-08
-5.93176e-07
7.88569e-06
3.79614e-07
-6.73205e-07
7.55633e-06
3.85464e-07
-4.30134e-07
6.62113e-06
2.65909e-07
-3.06079e-07
5.66975e-06
-3.0163e-07
4.75095e-06
1.38035e-07
-1.06526e-06
2.16687e-07
7.04338e-06
8.27182e-07
-7.98046e-07
2.63158e-07
8.25939e-06
6.9805e-08
1.7415e-07
1.09283e-05
7.80107e-07
1.02245e-07
9.89449e-06
7.03665e-07
1.25492e-07
7.17861e-06
4.44772e-07
1.60919e-08
5.93861e-06
-1.01171e-07
4.91015e-06
2.60208e-07
-9.74471e-07
4.74944e-07
6.95784e-06
7.56241e-07
-7.67831e-07
7.20968e-07
8.1143e-06
1.92235e-08
9.86117e-07
1.04153e-05
7.37244e-07
9.60766e-07
9.41307e-06
6.63642e-07
5.66717e-07
7.08509e-06
4.4067e-07
2.84914e-07
5.89137e-06
7.47532e-08
4.87114e-06
2.80222e-07
-6.35845e-07
5.11454e-07
6.47522e-06
5.43476e-07
-5.44393e-07
7.63503e-07
7.18625e-06
-6.32936e-08
1.05371e-06
7.73442e-06
3.40825e-07
9.8788e-07
7.39809e-06
3.71866e-07
6.27283e-07
6.46358e-06
2.94179e-07
3.65323e-07
5.54265e-06
1.54521e-07
4.64396e-06
2.17033e-07
-4.18329e-07
5.80434e-06
3.91177e-07
4.41806e-07
-3.46979e-07
6.27557e-06
6.3568e-07
-9.66935e-08
6.48863e-06
8.11251e-07
1.19138e-07
6.28302e-06
7.80069e-07
1.61405e-07
5.74131e-06
5.65225e-07
1.50548e-07
5.03838e-06
3.56976e-07
4.2893e-06
1.42589e-07
1.62148e-07
-2.84359e-07
-4.73825e-09
5.46848e-06
2.33265e-07
-3.30257e-09
-3.21709e-07
-1.10751e-07
5.8052e-06
8.68632e-08
-3.1657e-07
-2.57924e-07
5.91402e-06
2.00479e-07
-3.14178e-07
-3.23848e-07
5.72893e-06
2.80448e-07
-3.49318e-07
-3.25544e-07
5.2873e-06
3.35116e-07
-3.82586e-07
-3.74426e-07
4.69866e-06
3.94399e-07
-4.51618e-07
4.06616e-06
-3.92476e-07
4.78346e-07
-2.9652e-07
-1.00898e-08
6.15323e-06
2.25979e-07
-3.40328e-07
-1.48747e-07
6.63358e-06
-2.76423e-07
-3.79258e-07
6.83019e-06
-2.24143e-07
-4.22579e-07
6.59372e-06
-2.61183e-07
-3.20697e-07
5.98912e-06
-2.96966e-07
-3.38601e-07
5.21604e-06
-4.03574e-07
4.41892e-06
-3.12787e-07
-3.4893e-07
-3.89015e-09
6.7553e-06
2.50598e-07
-4.25559e-07
-1.41951e-07
7.43167e-06
-2.1551e-07
-5.28098e-07
7.82467e-06
-7.49331e-08
-5.25768e-07
7.51901e-06
-1.44615e-07
-2.80715e-07
6.65062e-06
-2.02231e-07
-2.81219e-07
5.66954e-06
-3.34104e-07
4.7094e-06
-2.33228e-07
-4.98071e-07
9.35552e-08
7.12492e-06
3.19103e-07
-6.46043e-07
9.5103e-08
8.17002e-06
-4.97568e-08
-4.6731e-08
9.85091e-06
2.1646e-07
-4.86998e-08
9.15091e-06
4.39107e-08
-4.67559e-08
7.1173e-06
-9.03112e-08
-1.37429e-07
5.92882e-06
-2.35041e-07
4.86261e-06
-1.46061e-07
-4.44432e-07
1.50164e-07
7.05512e-06
2.90441e-07
-5.38628e-07
2.29774e-07
8.07335e-06
-6.95686e-08
4.25696e-07
9.47396e-06
1.32312e-07
3.49089e-07
8.81276e-06
1.26146e-08
1.07221e-07
7.0508e-06
-7.68084e-08
-3.75327e-08
5.88058e-06
-1.60741e-07
4.82175e-06
-1.0756e-07
-2.92918e-07
1.12904e-07
6.58238e-06
2.2272e-07
-3.39503e-07
1.94886e-07
7.26736e-06
-1.95507e-07
3.35659e-07
7.68055e-06
-1.05543e-07
2.91369e-07
7.36576e-06
-1.20299e-07
9.94948e-08
6.48595e-06
-1.22223e-07
-2.48407e-08
5.53137e-06
-1.39161e-07
4.59265e-06
-9.70405e-08
-2.62466e-07
5.88498e-06
2.27037e-07
6.74316e-08
-2.90622e-07
6.35987e-06
1.38377e-07
-2.31519e-07
6.54379e-06
2.21248e-07
-1.73889e-07
6.31455e-06
2.02104e-07
-1.76241e-07
5.75085e-06
9.19506e-08
-1.54567e-07
5.01283e-06
-2.15201e-08
4.23825e-06
-1.00174e-07
-1.43011e-07
-1.95644e-07
2.09886e-07
5.52389e-06
1.05928e-07
-1.77569e-07
-3.20479e-07
2.06852e-07
5.87731e-06
-1.54576e-07
-4.38474e-07
1.20985e-07
5.98369e-06
-7.29678e-08
-5.35195e-07
1.20762e-08
5.7747e-06
3.86538e-08
-6.05104e-07
-1.02366e-07
5.2941e-06
1.63474e-07
-6.08604e-07
-2.55721e-07
4.66744e-06
2.90287e-07
-3.99354e-07
3.99975e-06
-5.65543e-07
4.22682e-07
-1.03728e-07
2.03334e-07
6.25865e-06
4.46507e-09
-2.63197e-07
2.10953e-07
6.78857e-06
-4.08274e-07
1.10981e-07
6.98513e-06
-5.26036e-07
1.00559e-08
6.71332e-06
-6.09482e-07
-7.16851e-08
6.04175e-06
-6.1081e-07
-2.28133e-07
5.18968e-06
-3.64647e-07
4.33888e-06
-5.66016e-07
2.06418e-10
1.16246e-07
6.93738e-06
-9.53542e-08
-1.95931e-07
1.44317e-07
7.69424e-06
-3.52918e-07
2.6183e-09
8.08983e-06
-5.10228e-07
-8.55876e-08
7.77175e-06
-6.20626e-07
-1.13547e-07
6.80283e-06
-6.02944e-07
-2.46168e-07
5.66934e-06
-3.51698e-07
4.62701e-06
-5.36912e-07
3.21163e-08
-1.83264e-08
7.35404e-06
-1.2693e-07
-1.62231e-07
-2.50361e-08
8.53358e-06
-2.25444e-07
-1.1315e-07
1.00296e-05
-4.53937e-07
-1.56707e-07
9.44993e-06
-5.68031e-07
-2.0011e-07
7.31768e-06
-5.60695e-07
-2.67254e-07
5.94206e-06
-3.417e-07
4.77735e-06
-4.86649e-07
4.47468e-08
-1.67295e-07
7.27823e-06
-1.19082e-07
-1.12528e-07
-2.49283e-07
8.45477e-06
-2.56678e-07
-2.7877e-07
9.78354e-06
-5.04924e-07
-2.8832e-07
9.19253e-06
-5.65533e-07
-3.12658e-07
7.22389e-06
-5.20291e-07
-3.10051e-07
5.87804e-06
-3.41673e-07
4.7265e-06
-4.29029e-07
-4.84858e-09
-2.75493e-07
6.73509e-06
-3.99338e-08
-1.57176e-07
-3.4747e-07
7.51772e-06
-3.51016e-07
-3.54858e-07
7.95022e-06
-5.11262e-07
-3.47954e-07
7.58555e-06
-5.33258e-07
-3.66086e-07
6.56107e-06
-4.56017e-07
-3.43715e-07
5.4873e-06
-3.39508e-07
4.48668e-06
-3.52498e-07
-1.51144e-07
5.94536e-06
1.06816e-07
-2.91871e-07
-2.62755e-07
6.45804e-06
-3.34055e-07
-3.65569e-07
6.63281e-06
-3.41288e-07
-4.26081e-07
6.36068e-06
-3.33729e-07
-4.3225e-07
5.72753e-06
-3.36872e-07
-3.54143e-07
4.92559e-06
-3.34932e-07
4.1186e-06
-2.19875e-07
-3.54256e-07
-1.42916e-07
3.87615e-07
5.5515e-06
2.29837e-08
-2.97073e-07
-3.4342e-07
4.93134e-07
5.91971e-06
-3.35405e-07
-5.59891e-07
4.61619e-07
6.02311e-06
-2.84737e-07
-7.2024e-07
3.02705e-07
5.77821e-06
-1.45885e-07
-7.85852e-07
7.67637e-08
5.24884e-06
3.29847e-08
-7.50386e-07
-1.72855e-07
4.58526e-06
2.1942e-07
-3.7189e-07
3.89132e-06
-6.79948e-07
4.1006e-07
5.31954e-08
4.11233e-07
6.34898e-06
-1.67428e-07
-2.24664e-07
5.93905e-07
6.96614e-06
-5.65997e-07
5.90679e-07
7.19769e-06
-8.123e-07
4.1678e-07
6.84557e-06
-8.98499e-07
1.61405e-07
6.04348e-06
-8.31001e-07
-1.46862e-07
5.09648e-06
-3.53649e-07
4.20545e-06
-7.15555e-07
3.46626e-07
2.33657e-07
7.17636e-06
-4.07898e-07
-4.67451e-08
4.07959e-07
8.27366e-06
-5.66771e-07
3.5663e-07
8.84347e-06
-9.95897e-07
2.07563e-07
8.4098e-06
-1.07669e-06
2.66515e-08
7.01885e-06
-9.12221e-07
-2.37197e-07
5.59539e-06
-3.8417e-07
4.47825e-06
-7.36263e-07
5.3288e-07
-1.61246e-07
7.76407e-06
-5.4827e-07
9.02635e-08
-1.67723e-07
9.552e-06
-5.41473e-07
-2.62366e-07
1.12801e-05
-1.10093e-06
-3.64145e-07
1.05811e-05
-1.1416e-06
-3.83225e-07
7.76809e-06
-9.24113e-07
-3.99055e-07
5.8862e-06
-4.4285e-07
4.62058e-06
-7.11015e-07
5.03352e-07
-5.20984e-07
7.62462e-06
-4.90111e-07
9.53576e-08
-7.72658e-07
9.46795e-06
-6.10275e-07
-9.12213e-07
1.1139e-05
-1.07216e-06
-8.03768e-07
1.00946e-05
-1.07415e-06
-6.82912e-07
7.52551e-06
-8.45339e-07
-5.45814e-07
5.79617e-06
-4.88086e-07
4.55908e-06
-6.32459e-07
2.62293e-07
-6.67093e-07
6.87247e-06
-2.53566e-07
-5.28283e-08
-9.19279e-07
7.97973e-06
-5.89977e-07
-1.03846e-06
8.61344e-06
-9.19909e-07
-9.35757e-07
8.04743e-06
-8.70479e-07
-7.62486e-07
6.59087e-06
-6.88804e-07
-5.95913e-07
5.35568e-06
-4.93151e-07
4.31153e-06
-5.08066e-07
-7.14811e-08
5.93474e-06
3.05174e-08
-6.15802e-07
-2.59987e-07
6.49433e-06
-7.6676e-07
-5.16069e-07
6.69506e-06
-8.44719e-07
-6.68693e-07
6.35689e-06
-7.79511e-07
-6.44218e-07
5.6135e-06
-6.72797e-07
-4.99264e-07
4.75967e-06
-5.74846e-07
3.94679e-06
-3.2728e-07
-4.92985e-07
-1.91957e-07
3.53211e-07
5.55988e-06
6.3239e-08
-2.34765e-07
-4.12868e-07
5.04653e-07
5.91922e-06
-2.83362e-07
-6.50636e-07
4.94972e-07
6.0088e-06
-2.43003e-07
-7.88963e-07
2.88173e-07
5.72603e-06
-9.75987e-08
-8.03535e-07
2.55668e-08
5.16157e-06
7.64246e-08
-7.35329e-07
-2.35631e-07
4.485e-06
2.67665e-07
-4.2018e-07
3.79113e-06
-6.37805e-07
4.23056e-07
4.15749e-08
4.22879e-07
6.38003e-06
-1.42237e-07
-2.8616e-07
7.29617e-07
7.06957e-06
-7.20885e-07
7.66646e-07
7.3611e-06
-9.48852e-07
4.82745e-07
6.87901e-06
-9.52884e-07
1.33749e-07
5.93975e-06
-8.24143e-07
-2.11556e-07
4.94421e-06
-4.18911e-07
4.05877e-06
-6.78177e-07
4.78062e-07
2.14293e-07
7.36052e-06
-4.53272e-07
-5.25547e-08
4.88974e-07
9.04515e-06
-9.62063e-07
4.1545e-07
1.01037e-05
-1.37228e-06
2.21761e-07
9.08064e-06
-1.21827e-06
-9.71086e-09
7.00896e-06
-9.24076e-07
-3.15217e-07
5.40528e-06
-4.58934e-07
4.29194e-06
-6.97416e-07
7.80566e-07
-3.46454e-07
8.18676e-06
-6.42666e-07
-1.57328e-08
-5.19341e-07
1.13569e-05
-1.27887e-06
-6.93024e-07
1.36519e-05
-1.68496e-06
-5.94794e-07
1.18047e-05
-1.3303e-06
-5.323e-07
7.93575e-06
-9.34037e-07
-5.02206e-07
5.67708e-06
-5.17827e-07
4.40914e-06
-6.64644e-07
6.32705e-07
-7.59732e-07
7.91443e-06
-5.0924e-07
1.33865e-08
-1.21101e-06
1.07794e-05
-1.14166e-06
-1.5303e-06
1.31316e-05
-1.42496e-06
-1.16825e-06
1.09529e-05
-1.17474e-06
-8.1275e-07
7.55578e-06
-8.19793e-07
-6.29453e-07
5.56889e-06
-5.42667e-07
4.33851e-06
-5.7403e-07
2.48986e-07
-8.35575e-07
6.88517e-06
-1.85541e-07
-9.8094e-08
-1.1896e-06
8.30615e-06
-8.73569e-07
-1.36892e-06
9.22742e-06
-1.08343e-06
-1.15408e-06
8.24319e-06
-8.89736e-07
-8.33091e-07
6.41734e-06
-6.42953e-07
-6.37109e-07
5.11696e-06
-5.20829e-07
4.10052e-06
-4.52873e-07
-1.50166e-07
5.83452e-06
1.28275e-07
-7.13588e-07
-3.39722e-07
6.38473e-06
-8.89759e-07
-6.19107e-07
6.59073e-06
-9.85124e-07
-7.41153e-07
6.18433e-06
-8.59519e-07
-6.38568e-07
5.38219e-06
-7.03974e-07
-4.5693e-07
4.53229e-06
-5.90923e-07
3.74661e-06
-3.00178e-07
-4.768e-07
-4.00608e-07
-5.34596e-08
5.63603e-06
2.88976e-07
8.96282e-08
-5.31713e-07
-3.54565e-08
5.96643e-06
1.19322e-07
-6.44851e-07
-9.01089e-08
6.02487e-06
1.8725e-07
-6.68984e-07
-2.49618e-07
5.70498e-06
2.94765e-07
-6.26755e-07
-3.72831e-07
5.1194e-06
3.72766e-07
-5.53157e-07
-4.91048e-07
4.44239e-06
4.60109e-07
-5.56389e-07
3.75364e-06
-4.66556e-07
5.07421e-07
-3.02597e-07
-1.51337e-08
6.43491e-06
2.09448e-07
-4.83628e-07
9.13329e-08
7.12409e-06
-7.09777e-07
8.20872e-08
7.41506e-06
-7.4298e-07
-1.66027e-07
6.8285e-06
-6.6797e-07
-3.25764e-07
5.81779e-06
-5.5694e-07
-4.93094e-07
4.83533e-06
-5.73163e-07
3.97651e-06
-4.57525e-07
-6.32631e-08
-1.17751e-07
7.4583e-06
6.83243e-08
-3.69081e-07
-2.59058e-08
9.46827e-06
-1.0752e-06
4.40569e-08
1.08472e-05
-1.04274e-06
-2.66964e-07
9.14863e-06
-7.47271e-07
-3.68443e-07
6.75634e-06
-5.38702e-07
-5.1819e-07
5.22182e-06
-5.76989e-07
4.16545e-06
-4.08205e-07
8.67709e-08
-4.51046e-07
8.3936e-06
3.94274e-08
-4.92035e-07
-6.26495e-07
1.25366e-05
-1.41609e-06
-8.63812e-07
1.54843e-05
-1.2581e-06
-5.80385e-07
1.19609e-05
-7.19968e-07
-5.46493e-07
7.57513e-06
-4.61143e-07
-5.42353e-07
5.4424e-06
-5.52816e-07
4.25166e-06
-3.27958e-07
-1.15722e-07
-5.88024e-07
7.98587e-06
1.81154e-07
-4.71094e-07
-8.76461e-07
1.13848e-05
-1.10256e-06
-1.22617e-06
1.41256e-05
-9.05386e-07
-7.96261e-07
1.09728e-05
-5.60743e-07
-5.23078e-07
7.18738e-06
-3.53356e-07
-5.02888e-07
5.32219e-06
-4.92772e-07
4.17161e-06
-2.46464e-07
-3.03027e-07
-5.56418e-07
6.81789e-06
3.39255e-07
-4.06105e-07
-7.04691e-07
8.23788e-06
-8.25131e-07
-7.99698e-07
9.21938e-06
-6.87993e-07
-6.27041e-07
7.93678e-06
-4.40749e-07
-4.56928e-07
6.10383e-06
-2.92099e-07
-4.27249e-07
4.89294e-06
-4.27841e-07
3.94463e-06
-2.00582e-07
-4.76011e-07
5.74767e-06
4.71889e-07
-4.65441e-07
-5.11858e-07
6.22065e-06
-5.0418e-07
-5.78849e-07
6.36775e-06
-5.09674e-07
-5.13615e-07
5.92325e-06
-4.3118e-07
-3.66584e-07
5.15258e-06
-3.74124e-07
-2.14316e-07
4.34711e-06
-3.94006e-07
3.57589e-06
-1.16295e-07
-3.54844e-07
-6.06542e-07
-4.7526e-07
5.79477e-06
5.18752e-07
4.04764e-07
-6.29225e-07
-6.05264e-07
6.08858e-06
5.061e-07
-5.9771e-07
-6.97077e-07
6.1029e-06
5.87678e-07
-5.20072e-07
-7.63517e-07
5.74615e-06
6.44754e-07
-4.48977e-07
-7.39741e-07
5.14442e-06
6.43659e-07
-3.85658e-07
-7.13471e-07
4.46505e-06
6.27551e-07
-6.6006e-07
3.7662e-06
-3.15176e-07
5.76874e-07
-6.65672e-07
-5.11664e-07
6.55602e-06
5.81131e-07
-6.57307e-07
-6.68545e-07
7.17934e-06
-6.10473e-07
-7.2253e-07
7.3936e-06
-4.80272e-07
-8.28046e-07
6.76258e-06
-3.67361e-07
-7.79248e-07
5.74415e-06
-3.05501e-07
-7.43559e-07
4.80326e-06
-6.90784e-07
3.96324e-06
-2.61586e-07
-7.25002e-07
-5.01604e-07
7.50677e-06
6.66535e-07
-6.99037e-07
-6.44718e-07
9.41856e-06
-7.97928e-07
-4.74162e-07
1.06973e-05
-4.6734e-07
-7.76695e-07
8.76617e-06
-2.19706e-07
-7.20949e-07
6.44989e-06
-1.6685e-07
-6.93137e-07
5.11805e-06
-6.61133e-07
4.1175e-06
-1.48774e-07
-8.09972e-07
-4.94926e-07
8.37009e-06
8.26706e-07
-9.19695e-07
-5.27285e-07
1.25287e-05
-8.32659e-07
-6.79847e-07
1.56023e-05
-3.79037e-07
-4.9717e-07
1.12269e-05
-3.25554e-08
-5.08946e-07
7.01595e-06
-8.87552e-09
-5.53451e-07
5.27872e-06
-5.65049e-07
4.17356e-06
-2.72977e-08
-9.89072e-07
-3.35811e-07
7.88551e-06
9.3039e-07
-9.35734e-07
-3.21881e-07
1.11262e-05
-6.02495e-07
-5.33144e-07
1.36451e-05
-1.16956e-07
-2.52746e-07
1.02416e-05
1.04319e-07
-2.19409e-07
6.67576e-06
7.97546e-08
-3.4928e-07
5.14219e-06
-4.32981e-07
4.0839e-06
3.4935e-08
-8.94004e-07
-2.31387e-07
6.73417e-06
8.73602e-07
-7.3715e-07
-1.12669e-07
7.87159e-06
-5.66105e-07
-6.87683e-08
8.58336e-06
-1.9256e-07
-3.18401e-08
7.34183e-06
-1.11375e-08
-1.05994e-07
5.8089e-06
8.44945e-09
-2.17237e-07
4.74115e-06
-3.32835e-07
3.83934e-06
1.32732e-08
-7.92163e-07
5.71838e-06
8.05894e-07
-2.15534e-07
-6.64242e-07
6.082e-06
-1.01835e-07
-4.89502e-07
6.14334e-06
-1.89843e-08
-2.57553e-07
5.70095e-06
-4.15824e-08
-1.09707e-07
4.99461e-06
-9.59646e-08
-3.87172e-08
4.23813e-06
-1.7932e-07
3.44675e-06
2.52784e-09
-2.45249e-07
-6.74745e-07
-6.33739e-07
5.98729e-06
6.01592e-07
5.14107e-07
-6.5791e-07
-7.92303e-07
6.24596e-06
6.18739e-07
-5.87632e-07
-8.60948e-07
6.21295e-06
6.81075e-07
-4.86306e-07
-8.72204e-07
5.82154e-06
6.95797e-07
-4.08633e-07
-8.03752e-07
5.20299e-06
6.67859e-07
-3.40766e-07
-7.36633e-07
4.51398e-06
6.20049e-07
-6.34667e-07
3.79082e-06
-2.51933e-07
5.21046e-07
-7.92694e-07
-7.19578e-07
6.7171e-06
7.17845e-07
-7.15618e-07
-9.50848e-07
7.26129e-06
-5.7569e-07
-9.83923e-07
7.37688e-06
-4.1192e-07
-9.93362e-07
6.71996e-06
-2.97433e-07
-8.94461e-07
5.72028e-06
-2.41358e-07
-7.99458e-07
4.81004e-06
-6.86307e-07
3.97547e-06
-2.02019e-07
-9.68682e-07
-7.0178e-07
7.56316e-06
8.94627e-07
-8.26163e-07
-9.08869e-07
9.23428e-06
-6.55768e-07
-6.51956e-07
1.01953e-05
-2.21977e-07
-9.55579e-07
8.29496e-06
-6.76878e-08
-8.36716e-07
6.2374e-06
-6.90136e-08
-7.46831e-07
5.0664e-06
-6.64404e-07
4.10206e-06
-7.56922e-08
-1.18257e-06
-5.68921e-07
8.28136e-06
1.13874e-06
-1.12823e-06
-6.72742e-07
1.22383e-05
-4.39819e-07
-7.36723e-07
1.49981e-05
1.02856e-07
-6.39484e-07
1.0368e-05
1.99685e-07
-4.88756e-07
6.57107e-06
1.14523e-07
-5.51863e-07
5.16869e-06
-5.53665e-07
4.12662e-06
5.03912e-08
-1.32892e-06
-3.02086e-07
7.73543e-06
1.21258e-06
-1.10501e-06
-1.62074e-07
1.03925e-05
-3.79353e-07
-1.58135e-07
1.23403e-05
2.22984e-07
-4.83936e-08
9.04648e-06
2.95391e-07
-1.38416e-07
6.25249e-06
1.73831e-07
-2.94783e-07
5.00619e-06
-4.03769e-07
4.01593e-06
9.14686e-08
-1.09311e-06
-1.74999e-07
6.63698e-06
1.06329e-06
-8.41038e-07
6.09201e-08
7.39656e-06
-3.60305e-07
2.13981e-07
7.73077e-06
9.3595e-09
2.07654e-07
6.71587e-06
1.07313e-07
-6.51337e-09
5.57908e-06
9.09012e-08
-1.63062e-07
4.62559e-06
-2.75869e-07
3.74655e-06
5.52261e-08
-9.07779e-07
5.70967e-06
9.30477e-07
-1.88594e-07
-7.13772e-07
5.96985e-06
-2.11207e-08
-4.17375e-07
5.95057e-06
1.10627e-07
-1.37543e-07
5.52473e-06
1.04068e-07
-2.04937e-08
4.87305e-06
-2.13151e-09
1.31102e-08
4.1472e-06
-1.0589e-07
3.33488e-06
4.8676e-08
-2.00025e-07
-6.25153e-07
-5.90133e-07
6.1899e-06
5.50034e-07
4.62543e-07
-6.26708e-07
-7.0831e-07
6.42875e-06
5.27417e-07
-5.87713e-07
-7.48727e-07
6.35173e-06
5.71432e-07
-5.17843e-07
-7.35611e-07
5.91814e-06
5.69676e-07
-4.45888e-07
-6.86976e-07
5.27032e-06
5.48374e-07
-3.66896e-07
-6.22352e-07
4.55692e-06
5.00905e-07
-5.12271e-07
3.80944e-06
-2.51275e-07
3.78263e-07
-7.38413e-07
-7.1743e-07
6.9284e-06
6.54721e-07
-6.9481e-07
-9.27816e-07
7.43763e-06
-5.96392e-07
-9.3731e-07
7.46761e-06
-4.74804e-07
-8.85523e-07
6.74906e-06
-3.73485e-07
-8.09447e-07
5.74217e-06
-2.97641e-07
-7.17568e-07
4.83024e-06
-5.87888e-07
3.98966e-06
-2.3571e-07
-9.23421e-07
-7.66436e-07
7.70912e-06
8.26617e-07
-7.81302e-07
-9.9819e-07
9.16312e-06
-6.58467e-07
-6.91526e-07
9.8284e-06
-2.57893e-07
-9.56529e-07
7.96714e-06
-1.76165e-07
-8.18936e-07
6.16564e-06
-1.55642e-07
-7.13767e-07
5.04253e-06
-5.99097e-07
4.09369e-06
-1.35743e-07
-1.19759e-06
-6.43515e-07
8.27397e-06
1.08273e-06
-1.15591e-06
-7.80177e-07
1.19799e-05
-3.78369e-07
-7.19373e-07
1.42504e-05
1.84577e-07
-6.80904e-07
9.53229e-06
1.04107e-07
-5.06388e-07
6.34007e-06
1.3389e-08
-5.44474e-07
5.09064e-06
-5.13851e-07
4.08598e-06
-3.07852e-08
-1.24519e-06
-4.04343e-07
7.62867e-06
1.11358e-06
-1.01735e-06
-1.80944e-07
9.5679e-06
-3.57873e-07
8.28943e-08
1.088e-05
1.30883e-07
-6.23923e-08
7.9396e-06
1.19542e-07
-2.47008e-07
6.00473e-06
4.26071e-08
-3.56545e-07
4.89547e-06
-3.93323e-07
3.94088e-06
-2.53341e-09
-1.02206e-06
-2.77658e-07
6.5612e-06
9.71392e-07
-8.14842e-07
-3.77654e-08
7.04704e-06
-2.97261e-07
1.6641e-07
7.13094e-06
-4.43729e-08
6.30546e-08
6.33804e-06
-1.19827e-08
-1.1598e-07
5.41615e-06
-2.71771e-08
-2.448e-07
4.52936e-06
-3.04882e-07
3.64845e-06
-1.75332e-08
-8.50651e-07
5.69956e-06
8.35866e-07
-2.52552e-07
-6.96222e-07
5.88474e-06
-1.07224e-07
-4.00663e-07
5.80875e-06
1.31798e-08
-1.64883e-07
5.38986e-06
-3.74904e-08
-9.2037e-08
4.77353e-06
-8.89564e-08
-6.3378e-08
4.04039e-06
-1.66382e-07
3.23136e-06
-2.59378e-08
-2.38689e-07
-5.00444e-07
-4.52624e-07
6.38003e-06
4.12215e-07
3.51336e-07
-5.51388e-07
-4.86113e-07
6.62002e-06
3.45751e-07
-5.65413e-07
-5.02036e-07
6.5052e-06
3.62742e-07
-5.34714e-07
-4.94052e-07
6.01765e-06
3.64346e-07
-4.72784e-07
-4.80009e-07
5.33063e-06
3.58463e-07
-3.85599e-07
-4.27325e-07
4.58649e-06
3.11123e-07
-3.29718e-07
3.819e-06
-2.56753e-07
1.91813e-07
-5.63699e-07
-6e-07
7.17789e-06
4.61432e-07
-6.31368e-07
-7.67138e-07
7.78632e-06
-6.46515e-07
-7.74952e-07
7.75622e-06
-5.78066e-07
-6.49517e-07
6.83715e-06
-4.73567e-07
-6.24758e-07
5.78346e-06
-3.72642e-07
-5.52166e-07
4.85534e-06
-4.30313e-07
4.00603e-06
-2.87655e-07
-7.31326e-07
-7.73581e-07
8.04959e-06
5.64531e-07
-7.25555e-07
-1.04109e-06
9.43208e-06
-7.32701e-07
-8.41046e-07
9.90376e-06
-4.8146e-07
-8.54214e-07
7.92297e-06
-3.63661e-07
-7.19943e-07
6.14381e-06
-2.92707e-07
-6.14266e-07
5.03463e-06
-4.89182e-07
4.09337e-06
-2.32861e-07
-1.00563e-06
-7.51318e-07
8.46595e-06
7.92187e-07
-1.14889e-06
-8.46639e-07
1.19309e-05
-5.86165e-07
-6.83838e-07
1.35343e-05
-1.02848e-07
-6.49124e-07
8.84778e-06
-1.44468e-07
-5.51983e-07
6.21493e-06
-1.63605e-07
-5.37674e-07
5.03411e-06
-4.62001e-07
4.05605e-06
-1.60026e-07
-9.05368e-07
-5.82372e-07
7.58063e-06
7.85495e-07
-8.61156e-07
-3.99031e-07
9.07872e-06
-3.66292e-07
-7.12506e-08
9.77479e-06
-1.16193e-07
-3.08826e-07
7.35053e-06
-1.21053e-07
-4.05073e-07
5.86337e-06
-1.35223e-07
-4.37054e-07
4.80989e-06
-3.99052e-07
3.87549e-06
-1.31988e-07
-7.98141e-07
-4.43168e-07
6.49658e-06
7.23669e-07
-6.99267e-07
-2.98402e-07
6.84832e-06
-3.35489e-07
-9.26702e-08
6.78969e-06
-2.07539e-07
-2.30071e-07
6.13203e-06
-1.7007e-07
-3.18675e-07
5.29311e-06
-1.64075e-07
-3.52244e-07
4.43928e-06
-3.49045e-07
3.56346e-06
-1.28695e-07
-6.65514e-07
5.66656e-06
6.03348e-07
-3.48115e-07
-5.84656e-07
5.79674e-06
-2.91562e-07
-3.65668e-07
5.68023e-06
-1.82877e-07
-2.60733e-07
5.26808e-06
-2.12665e-07
-2.04533e-07
4.67506e-06
-2.75848e-07
-1.57625e-07
3.93915e-06
-2.97437e-07
3.14628e-06
-1.24349e-07
-2.96739e-07
-3.76943e-07
-4.32258e-07
6.56619e-06
2.88684e-07
3.34792e-07
-4.36817e-07
-4.06467e-07
6.81341e-06
2.72969e-07
-4.56258e-07
-3.84141e-07
6.66867e-06
2.40054e-07
-4.30987e-07
-3.55035e-07
6.13889e-06
2.0883e-07
-3.90482e-07
-2.99034e-07
5.41927e-06
1.70356e-07
-3.25663e-07
-2.35556e-07
4.64438e-06
1.13179e-07
-1.42775e-07
3.85189e-06
-2.19873e-07
4.40966e-09
-3.95346e-07
-5.74147e-07
7.40034e-06
3.14657e-07
-5.14703e-07
-6.52573e-07
8.15162e-06
-5.49449e-07
-6.46679e-07
8.05386e-06
-5.1054e-07
-4.98891e-07
6.94293e-06
-4.34142e-07
-4.56748e-07
5.86543e-06
-3.56516e-07
-3.79828e-07
4.92268e-06
-2.68434e-07
4.05566e-06
-2.8013e-07
-4.63842e-07
-8.04477e-07
8.36816e-06
3.75894e-07
-6.39447e-07
-1.25933e-06
1.02155e-05
-6.45119e-07
-1.11765e-06
1.03823e-05
-4.89063e-07
-7.21584e-07
7.99162e-06
-3.85397e-07
-5.94495e-07
6.17839e-06
-3.21499e-07
-4.88743e-07
5.08029e-06
-3.62483e-07
4.13495e-06
-2.68616e-07
-7.7524e-07
-7.87146e-07
8.64976e-06
5.75193e-07
-1.02172e-06
-8.7388e-07
1.17944e-05
-5.23459e-07
-7.59337e-07
1.2681e-05
-2.2688e-07
-6.31091e-07
8.463e-06
-2.32708e-07
-5.45756e-07
6.17266e-06
-2.37155e-07
-4.89645e-07
5.04006e-06
-3.90506e-07
4.07423e-06
-2.2683e-07
-5.91083e-07
-6.33569e-07
7.51257e-06
5.06446e-07
-6.08047e-07
-5.51828e-07
8.77552e-06
-2.62306e-07
-3.47785e-07
9.01888e-06
-1.69973e-07
-4.27235e-07
7.05491e-06
-1.87565e-07
-4.60599e-07
5.79624e-06
-2.01336e-07
-4.51035e-07
4.78565e-06
-3.77707e-07
3.8646e-06
-2.02841e-07
-5.10367e-07
-5.12626e-07
6.44778e-06
4.38151e-07
-4.77741e-07
-4.66408e-07
6.73064e-06
-2.76134e-07
-3.59592e-07
6.60057e-06
-1.89818e-07
-3.90179e-07
6.00909e-06
-1.96175e-07
-3.81193e-07
5.22066e-06
-2.08159e-07
-3.93771e-07
4.39443e-06
-3.62832e-07
3.53123e-06
-1.90625e-07
-4.0911e-07
5.64905e-06
3.25859e-07
-4.11992e-07
-3.79629e-07
5.74065e-06
-4.39985e-07
-2.65062e-07
5.59336e-06
-3.87189e-07
-2.13383e-07
5.18941e-06
-3.62804e-07
-1.75889e-07
4.60199e-06
-3.45305e-07
-1.6112e-07
3.87831e-06
-3.47498e-07
3.10261e-06
-1.63726e-07
-3.16266e-07
-2.7775e-07
-5.56192e-07
6.79421e-06
2.01906e-07
4.04064e-07
-2.85946e-07
-5.67253e-07
7.05939e-06
3.29903e-07
-2.5306e-07
-5.0109e-07
6.90245e-06
2.34645e-07
-2.32962e-07
-3.39275e-07
6.34738e-06
1.11032e-07
-2.2951e-07
-1.85683e-07
5.59758e-06
4.19073e-09
-2.21101e-07
-8.66508e-08
4.78951e-06
-6.65692e-08
1.57014e-08
3.93935e-06
-1.68726e-07
-1.55359e-07
-3.2188e-07
-6.93632e-07
7.59531e-06
2.64601e-07
-3.42099e-07
-7.92162e-07
8.3971e-06
-2.54248e-07
-7.87369e-07
8.25285e-06
-2.42395e-07
-5.26396e-07
7.11899e-06
-2.64989e-07
-3.63708e-07
6.06629e-06
-2.73391e-07
-2.44384e-07
5.0893e-06
-1.23359e-07
4.1693e-06
-2.4768e-07
-3.7757e-07
-7.93671e-07
8.47509e-06
3.71546e-07
-4.47373e-07
-1.26422e-06
1.07595e-05
-2.22555e-07
-1.33019e-06
1.07029e-05
-1.52134e-07
-6.56107e-07
8.0528e-06
-2.13965e-07
-4.82057e-07
6.35891e-06
-2.58695e-07
-3.66922e-07
5.24781e-06
-2.38209e-07
4.25688e-06
-2.65719e-07
-5.7885e-07
-6.121e-07
8.53911e-06
5.09409e-07
-6.03621e-07
-7.04015e-07
1.12629e-05
-8.24457e-08
-6.93379e-07
1.15254e-05
3.42311e-08
-4.62467e-07
8.15334e-06
-1.09052e-07
-4.59107e-07
6.29315e-06
-2.09443e-07
-4.0461e-07
5.1782e-06
-3.00756e-07
4.17951e-06
-2.52053e-07
-3.99283e-07
-4.7974e-07
7.4448e-06
3.3541e-07
-3.00885e-07
-3.84686e-07
8.35943e-06
1.26974e-08
-3.07541e-07
8.32043e-06
1.19082e-08
-3.70353e-07
6.96366e-06
-1.06156e-07
-4.25035e-07
5.88036e-06
-1.97419e-07
-4.14981e-07
4.88735e-06
-3.30214e-07
3.93995e-06
-2.43298e-07
-2.42578e-07
-4.65035e-07
6.49116e-06
1.84728e-07
-2.06717e-07
-4.24757e-07
6.73516e-06
-1.0017e-07
-3.95069e-07
6.58206e-06
-7.10647e-08
-4.29873e-07
6.03966e-06
-1.36189e-07
-4.03092e-07
5.26406e-06
-2.09535e-07
-3.99689e-07
4.45252e-06
-3.46792e-07
3.56909e-06
-2.30851e-07
-1.16482e-07
5.71168e-06
2.8027e-08
-4.38549e-07
-1.37383e-07
5.78939e-06
-4.52174e-07
-1.00843e-07
5.62536e-06
-4.63476e-07
-1.16574e-07
5.2154e-06
-4.39902e-07
-1.28602e-07
4.62279e-06
-4.11746e-07
-1.65017e-07
3.89025e-06
-3.75136e-07
3.10752e-06
-1.93687e-07
-3.22814e-07
-6.22594e-08
-4.83191e-07
7.03902e-06
-1.40498e-08
3.14392e-07
-8.26032e-08
-5.0949e-07
7.4062e-06
1.83983e-07
-9.05615e-08
-3.74412e-07
7.26836e-06
1.69578e-08
-1.24024e-07
-1.39936e-07
6.66429e-06
-1.43286e-07
-1.99423e-07
7.95786e-09
5.91869e-06
-2.53592e-07
-2.70327e-07
1.14119e-07
5.03333e-06
-2.86938e-07
1.97422e-07
4.04558e-06
-2.23162e-07
-3.51129e-07
-1.23291e-07
-6.57381e-07
7.88308e-06
1.07963e-08
-9.59331e-08
-7.84432e-07
8.64515e-06
-4.80775e-08
-6.85006e-07
8.51583e-06
-1.24053e-07
-3.96039e-07
7.45141e-06
-2.48527e-07
-2.07763e-07
6.40612e-06
-3.55765e-07
-8.24089e-08
5.39373e-06
3.54288e-08
4.32341e-06
-3.47248e-07
-2.11362e-07
-6.76209e-07
8.59804e-06
1.07989e-07
-6.56248e-08
-9.07876e-07
1.07379e-05
6.05039e-08
-9.21401e-07
1.08138e-05
-6.61161e-09
-5.35922e-07
8.26119e-06
-2.30927e-07
-3.74998e-07
6.75074e-06
-3.73837e-07
-2.54082e-07
5.56236e-06
-1.22023e-07
4.43771e-06
-3.9728e-07
-2.77766e-07
-4.67893e-07
8.45399e-06
1.54842e-07
-6.37935e-08
-4.22405e-07
1.05656e-05