/*--------------------------------*- C++ -*----------------------------------*\
| =========                 |                                                 |
| \\      /  F ield         | OpenFOAM: The Open Source CFD Toolbox           |
|  \\    /   O peration     | Version:  plus.master.MPPICInterFoam            |
|   \\  /    A nd           | Web:      www.OpenFOAM.com                      |
|    \\/     M anipulation  |                                                 |
\*---------------------------------------------------------------------------*/
FoamFile
{
    version     2.0;
    format      ascii;
    class       volScalarField;
    location    "3.2";
    object      rho;
}
// * * * * * * * * * * * * * * * * * * * * * * * * * * * * * * * * * * * * * //

dimensions      [1 -3 0 0 0 0 0];

internalField   nonuniform List<scalar> 
11821
(
1000
1000.01
1000
999.926
1000
1000
1000
1000
1000.01
1000.01
1000
999.936
999.999
997.112
929.977
807.748
808.945
968.842
999.216
1000
950.19
497.336
223.245
200.077
668.881
999.524
1000
818.575
229.408
147.644
147.488
336.962
939.869
999.996
887.081
275.161
148.527
147.797
432.167
975.024
999.998
988.528
680.605
351.599
338.475
797.411
999.991
1000
999.998
997.504
942.296
939.122
998.275
999.997
1000
1000
999.997
999.988
999.989
999.999
999.923
999.999
998.333
968.062
899.335
908.326
987.687
998.543
999.999
973.345
666.841
349.792
352.442
797.812
999.373
999.992
862.877
283.886
147.507
147.501
451.509
970.24
999.991
920.425
349.013
147.656
147.509
542.671
988.902
999.99
991.939
739.76
412.349
421.884
848.898
999.998
1000
999.947
997.733
961.762
962.708
998.342
999.98
1000
999.998
999.98
999.959
999.975
999.998
999.968
999.623
999.681
996.349
987.167
990.451
998.968
998.636
999.99
994.03
898.597
694.095
708.119
943.386
999.669
999.975
943.642
507.74
147.539
147.505
714.145
997.357
999.982
975.936
580.24
153.991
180.585
774.306
999.461
999.992
997.574
865.045
623.992
646.795
935.629
999.945
1000
999.939
999.001
992.55
993.541
999.299
999.988
1000
1000
999.994
999.979
999.987
999.999
999.997
995.108
999.993
999.94
999.815
999.909
999.992
999.803
999.838
998.293
963.615
902.163
889.051
970.105
999.986
999.977
972.204
709.062
185.942
211.721
851.593
999.976
999.974
993.668
747.558
254.228
322.432
884.172
999.985
999.98
999.798
924.964
792.982
788.374
970.688
999.995
999.998
999.986
999.894
999.78
999.812
999.969
999.994
1000
1000
1000
1000
1000
999.999
999.998
993.644
1000
999.999
999.998
999.998
999.998
999.99
999.389
998.09
960.5
918.036
894.647
960.111
999.991
999.851
972.76
730.026
289.226
294.49
854.103
999.991
999.912
993.511
750.648
373.381
391.702
888.361
999.989
999.948
1000
924.48
818.801
800.133
976.842
999.987
999.14
1000
1000
999.999
999.997
999.996
999.994
998.581
1000
1000
1000
1000
1000
999.999
994.647
1000
1000
999.937
1000
999.999
999.997
998.571
995.134
925.923
869.819
831.121
917.284
999.995
999.779
955.807
673.917
317.608
285.401
797.296
999.996
999.923
980.429
673.499
367.685
365.6
853.403
999.994
999.907
999.758
891.676
775.979
747.65
976.175
999.989
997.847
1000
1000
1000
999.721
999.994
999.992
985.099
1000
1000
1000
1000
1000
999.757
995.131
1000
998.461
980.389
988.514
998.11
999.995
999.258
977.731
786.648
667.227
621.627
843.073
999.996
999.936
873.806
468.877
277.512
217.427
657.687
999.996
999.97
919.36
465.651
272.899
282.723
765.868
999.996
999.976
993.866
783.159
610.323
604.092
969.536
999.994
995.499
1000
1000
992.071
985.408
999.991
999.149
941.393
1000
1000
1000.01
1000.01
999.997
998.905
981.421
999.979
980.766
918.374
949.763
992.164
999.996
999.994
928.12
540.735
348.922
387.279
808.338
999.996
999.965
716.749
177.048
142.033
129.549
592.905
999.996
999.986
809.005
244.403
127.395
178.877
726.86
999.996
999.314
975.975
642.272
410.988
508.973
968.999
999.995
972.309
1000
996.343
975.327
973.736
999.984
996.949
936.932
1000
1000
1000.01
999.992
999.948
997.003
967.684
999.282
955.733
867.512
906.029
991.88
999.994
999.683
876.277
392.183
209.981
324.383
845.422
999.996
999.982
601.264
109.587
108.513
109.179
658.319
999.997
999.987
737.034
154.694
108.785
120.724
775.809
999.997
989.557
962.546
624.892
392.972
542.68
984.884
998.796
937.229
999.999
995.141
977.979
983.012
999.426
983.416
936.947
1000
1000
999.999
999.934
999.815
991.677
967.437
997.478
946.587
866.69
889.227
997.219
999.991
997.307
866.728
394.273
224.898
348.924
948.134
999.992
999.985
590.648
108.379
107.925
108.734
831.265
999.989
999.676
735.252
157.741
108.191
134.176
896.127
999.649
963.941
965.761
695.949
496
702.373
995.151
991.435
937.254
999.998
998.58
992.435
995.999
995.492
932.201
951.304
1000
1000
999.987
999.914
999.715
981.969
967.384
993.474
937.085
865.278
898.565
999.971
999.987
994.93
864.778
435.771
283.811
446.835
999.122
999.986
999.985
603.829
107.896
107.925
108.921
974.038
999.962
998.753
755.329
199.436
107.925
265.843
986.194
998.122
961.109
984.225
851.221
718.957
912.436
995.328
969.926
943.184
999.995
999.991
999.52
998.383
982.278
920.783
978.041
1000
1000
999.989
999.731
999.655
978.59
967.398
979.528
891.301
819.983
913.507
999.981
999.826
991.769
821.495
445.335
309.024
545.036
999.985
999.985
999.985
586.185
108.041
107.924
158.885
999.965
999.986
998.678
787.521
283.756
117.322
544.47
999.759
996.534
977.314
999.948
985.285
925.767
996.4
991.738
943.591
975.435
999.991
999.992
999.981
992.879
929.038
920.632
987.704
1000
1000.02
999.925
999.697
999.522
982.918
978.285
947.315
764.518
691.334
924.351
999.983
999.559
988.24
674.505
375.97
271.333
543.434
999.985
999.985
999.826
494.032
108.766
108.082
235.541
999.969
999.985
999.283
820.384
349.247
154.438
772.702
999.833
997.101
997.896
999.99
999.985
999.542
999.438
986.14
940.884
992.519
999.991
999.99
999.932
976.067
920.095
920.337
991.571
1000.01
1000.12
999.7
999.867
999.796
991.029
995.765
940.666
672.01
616.962
945.005
999.982
999.835
989.377
611.989
203.652
168.617
543.442
999.984
999.985
999.479
492.679
109.809
108.802
327.128
998.709
999.984
999.871
884.085
452.484
273.172
923.413
999.804
998.617
999.904
999.985
999.972
999.91
999.695
991.412
946.144
996.845
999.99
999.975
999.911
968.966
920.095
925.578
995.543
999.999
999.996
999.824
999.902
999.981
990.15
998.036
970.589
708.573
659.779
986.073
999.981
999.982
998.434
689.133
163.468
128.929
634.355
999.982
999.984
999.545
625.846
128.165
115.641
536.747
999.734
999.982
999.958
980.331
711.407
615.332
994.613
999.804
999.403
999.97
999.978
999.975
999.96
999.901
999.83
958.416
1000
999.982
999.965
999.932
976.294
930.024
939.267
999.21
999.87
999.99
999.975
999.915
968.664
971.935
999.592
999.937
847.804
796.079
999.74
999.981
978.922
999.986
876.057
221.295
145.312
815.487
999.979
988.969
999.968
868.8
242.79
168.974
759.505
999.808
987.616
999.998
999.965
948.074
905.124
999.015
991.612
988.451
999.999
999.975
999.965
999.955
999.942
912.658
964.286
1000
999.965
999.955
999.942
973.924
952.764
943.056
999.78
1000
1000
998.361
998.388
999.93
1000
1000
1000
1000
999.898
999.895
988.745
999.695
1000
1000
1000
1000
999.938
985.022
996.147
999.93
1000
1000
1000
1000
1000
946.157
993.624
1000
1000
1000
1000
1000
1000
931.997
996.218
1000
1000
1000
1000
999.875
978.352
949.736
999.976
999.889
1000
1000
1000
1000
993.919
948.919
989.827
1000
1000
1000
1000
1000
999.701
960.016
999.718
999.999
1000
1000
1000
1000
998.885
973.751
999.371
999.993
1000
1000
1000
1000
998.676
965.483
998.982
1000
1000
1000
1000
1000
998.6
929.69
993.902
1000
1000
1000
1000
1000
994.267
929.466
993.904
1000
1000
1000
1000
993.82
950.795
953.455
999.999
999.912
1000
1000
1000
999.089
959.26
948.934
998.534
1000
1000
1000
1000
999.892
993.955
948.919
999.799
1000
1000
1000
1000
999.995
993.994
961.436
999.748
1000
1000
1000
1000
999.98
994.977
980.188
999.737
1000
1000
1000
1000
999.999
992.189
937.737
997.732
1000
1000
1000
1000
1000
958.955
929.479
994.695
1000
1000
1000
1000
961.897
950.608
975.085
1000
999.982
1000
1000
1000
989.071
950.575
955.453
1000
1000
1000
1000
1000
996.899
958.994
972.148
1000
1000
1000
1000
1000
999.675
993.877
986.207
999.994
1000
1000
1000
1000
999.417
995.115
998.873
999.992
1000
1000
1000
1000
998.577
969.866
980.01
999.904
1000
1000
1000
1000
995.938
936.505
940.68
997.99
1000
1000
1000
1000
956.441
956.288
999.116
1000
1000
1000
1000
1000
972.42
950.664
984.305
1000
1000
1000
1000
1000
991.367
954.083
998.455
1000
1000
1000
1000
1000
999.005
997.006
999.968
1000
1000
1000
1000
1000
999.355
996.947
999.999
1000
1000
1000
1000
1000
993.87
959.998
999.638
1000
1000
1000
1000
1000
973.491
936.499
971.603
1000
1000
1000
1000
1000
957.048
981.435
1000
1000
1000
1000
1000
1000
975.561
955.703
999.997
1000
1000
1000
1000
1000
992.281
981.051
1000
1000
1000
1000
1000
1000
999.109
999.307
1000
1000
1000
1000
1000
1000
999.718
999.209
1000
1000
1000
1000
1000
1000
984.532
969.223
1000
1000
1000
1000
1000
1000
936.251
936.371
995.125
1000
1000
1000
1000
1000
975.221
999.97
1000
1000
1000
1000
1000
1000
990.487
992.981
1000
1000
1000
1000
1000
1000
997.655
999.533
1000
1000
1000
1000
1000
1000
999.323
999.91
1000
1000
1000
1000
1000
1000
999.129
999.995
1000
1000
1000
1000
1000
1000
961.659
987.509
1000
1000
1000
1000
1000
1000
936.251
953.218
1000
1000
1000
1000
1000
1000
995.935
1000
1000
1000
1000
1000
1000
1000
994.985
1000
1000
1000
1000
1000
1000
1000
999.954
1000
1000
1000
1000
1000
1000
1000
999.936
999.99
1000
1000
1000
1000
1000
1000
997.801
1000
1000
1000
1000
1000
1000
1000
952.136
997.897
1000
1000
1000
1000
1000
1000
936.251
985.502
1000
1000
1000
1000
1000
1000
999.999
1000
1000
1000
1000
1000
1000
1000
994.087
1000
1000
999.998
1000
1000
1000
1000
999.522
1000
1000
1000
1000
1000
1000
1000
999.981
999.976
1000
1000
1000
1000
1000
1000
997.851
999.998
1000
1000
1000
1000
1000
1000
961.264
999.897
1000
1000
1000
1000
1000
1000
937.998
998.81
1000
1000
1000
1000
1000
1000
1000
1000
1000
999.997
1000
1000
1000
1000
993.943
999.998
1000
999.998
1000
1000
1000
1000
998.275
1000
1000
1000
1000
1000
1000
1000
999.975
999.972
1000
1000
1000
1000
1000
1000
998.08
1000
999.999
1000
1000
1000
1000
1000
982.771
1000
1000
1000
1000
1000
1000
1000
967.76
999.974
1000
1000
1000
1000
1000
1000
1000
1000
1000
999.987
1000
1000
1000
1000
994.653
1000
1000
999.998
1000
1000
1000
1000
998.33
1000
1000
1000
1000
1000
1000
1000
999.908
999.989
999.997
999.999
1000
1000
1000
1000
998.923
1000
999.999
1000
1000
1000
1000
1000
997.791
1000
1000
1000
1000
1000
1000
1000
996.416
1000
1000
1000
1000
1000
1000
1000
1000
1000
999.975
999.986
1000
1000
1000
1000
997.806
1000
1000
999.997
1000
1000
1000
1000
998.994
1000
999.999
1000
1000
1000
1000
1000
999.685
1000
999.992
1000
1000
1000
1000
1000
999.97
1000
999.999
1000
1000
1000
1000
1000
1000
1000
1000
1000
1000
1000
1000
1000
1000
1000
1000
1000
1000
1000
1000
1000
999.977
1000
999.949
999.989
1000
1000
1000
1000
998.09
1000
1000
999.996
1000
1000
1000
1000
999.065
1000
1000
1000
1000
1000
1000
1000
999.669
999.992
999.992
1000
1000
1000
1000
1000
1000
1000
999.999
1000
1000
1000
1000
1000
1000
1000
1000
1000
1000
1000
1000
1000
1000
1000
1000
1000
1000
1000
1000
1000
999.97
999.949
999.949
999.998
1000
1000
1000
1000
997.774
1000
999.998
999.998
1000
1000
1000
1000
997.652
1000
999.997
1000
1000
1000
1000
1000
999.679
1000
999.991
1000
1000
1000
1000
1000
999.986
1000
999.989
1000
1000
1000
1000
1000
1000
1000
1000
1000
1000
1000
1000
1000
1000
1000
1000
1000
1000
1000
1000
1000
999.887
999.242
999.96
1000
1000
1000
1000
1000
997.872
1000
999.997
1000
1000
1000
1000
1000
997.369
999.958
999.997
1000
1000
1000
1000
1000
999.616
1000
999.939
1000
1000
1000
1000
1000
999.948
999.857
999.954
1000
1000
1000
1000
1000
1000
1000
999.998
1000
1000
1000
1000
1000
1000
1000
1000
1000
1000
1000
1000
1000
999.501
997.516
999.939
1000
1000
1000
1000
1000
998.498
999.999
999.99
1000
1000
1000
1000
1000
997.371
999.99
1000
1000
1000
1000
1000
1000
999.559
998.891
999.849
1000
1000
1000
1000
1000
999.917
999.668
999.879
1000
1000
1000
1000
1000
1000
1000
999.997
1000
1000
1000
1000
1000
1000
1000
1000
1000
1000
1000
1000
1000
999.648
996.561
999.795
1000
1000
1000
1000
1000
999.764
999.996
999.978
1000
1000
1000
1000
1000
998.643
999.953
999.968
1000
1000
1000
1000
1000
999.623
998.623
999.518
1000
1000
1000
1000
1000
999.924
999.6
999.799
1000
1000
1000
1000
1000
1000
1000
999.997
1000
1000
1000
1000
1000
1000
1000
1000
1000
1000
1000
1000
1000
1000
999.999
1000
1000
1000
1000
999.999
1000
1000
1000
1000
1000
1000
1000
1000
1000
1000
1000
1000
999.998
999.997
999.999
1000
1000
1000.01
1000
1000
999.999
999.997
1000
999.999
1000
999.998
1000
1000
1000
1000
999.995
999.997
1000
1000
1000
999.999
999.999
1000
999.941
999.997
1000
1000
1000
1000
999.999
1000
999.849
999.997
1000
1000
999.999
1000
1000
1000
1000
1000
1000
999.999
1000
1000
1000
1000
1000
1000
1000
999.991
1000
1000
999.999
999.998
1000
1000
1000
999.989
1000
1000
999.999
999.999
1000
999.999
1000
999.996
1000
1000
999.999
1000
999.935
999.996
1000
1000
1000
999.999
999.998
999.775
999.795
999.999
1000
1000
1000
1000
1000
997.923
999.674
1000
1000
1000
1000
999.998
1000
999.992
1000
1000
1000
1000
1000
1000
1000
999.998
1000
1000
1000
999.999
1000
1000
1000
1000
1000
1000
1000
1000
1000
1000
999.999
1000
1000
999.999
1000
999.998
1000
1000
999.998
999.997
999.892
999.997
1000
999.999
1000
1000
999.996
998.459
999.774
1000
1000
1000
1000
1000
999.823
995.604
999.672
1000
1000
1000
1000
999.975
999.77
999.97
1000
999.983
1000
999.999
1000
999.998
999.856
999.939
1000
999.998
999.999
999.999
1000
1000
1000
1000
1000
1000
1000
1000
1000
1000
1000
1000
1000
1000
1000
1000
1000
1000
999.997
999.979
999.916
999.998
1000
999.999
1000
1000
999.977
998.19
999.798
1000
1000
1000
1000
1000
998.855
996.938
999.76
1000
1000
1000
1000
999.842
999.566
999.968
999.878
999.918
1000
1000
1000
999.98
999.571
999.787
1000
999.992
999.989
1000
1000
999.999
999.969
999.975
999.998
1000
999.99
1000
1000
1000
1000
1000
999.999
1000
999.998
1000
1000
1000
999.998
999.976
999.969
999.999
1000
1000
1000
1000
999.965
999.325
999.852
1000
1000
1000
1000
999.994
997.756
999.206
999.896
1000
1000
1000
1000
999.783
999.56
999.968
999.637
999.918
1000
1000
1000
999.923
999.564
999.713
999.999
999.995
999.976
1000
1000
999.997
999.703
999.669
999.986
1000
999.955
1000
1000
1000
999.992
999.959
999.996
1000
999.952
1000
1000
1000
999.998
999.962
999.993
1000
999.975
1000
1000
999.999
999.953
999.992
999.954
1000
999.998
1000
1000
999.995
998.406
999.892
999.958
999.999
999.997
1000
1000
999.862
999.681
999.314
999.86
999.965
1000
1000
1000
999.909
999.568
999.753
999.998
1000
999.947
1000.01
1000
999.999
999.568
999.573
999.964
1000
999.948
1000.01
1000
1000
999.797
999.76
999.992
1000
999.912
1000
1000
1000
999.99
999.936
999.995
1000
999.91
1000
1000
1000
999.956
999.994
1000
1000
999.962
1000
1000
999.981
999.885
999.949
999.948
999.997
999.988
1000
1000
999.996
999.975
998.781
999.999
999.999
1000
1000
1000
999.945
999.579
999.905
999.998
999.025
999.909
1000.03
1000
1000
999.572
999.576
999.972
1000
999.936
1000
1000
1000
999.581
999.66
999.992
1000
999.898
1000.01
1000
1000
999.948
999.922
999.996
1000
999.895
1000
1000
999.999
999.901
999.981
1000
1000
999.932
1000
1000
999.88
999.96
999.96
999.932
999.998
999.987
999.992
999.999
1000
999.398
999.918
993.307
999.903
1000
1000
999.999
999.983
999.948
999.97
999.997
996.897
999.903
1000.03
1000
999.999
999.575
999.76
999.996
998.879
999.895
999.665
1000
1000
999.579
999.723
999.997
1000
999.847
1000.01
1000
1000
999.892
999.928
999.999
1000
999.887
1000
1000
999.992
999.893
999.968
1000
1000
999.934
1000
1000
999.828
999.955
999.994
999.947
1000
999.986
999.99
999.999
999.998
994.995
997.721
987.705
999.934
1000
999.994
999.998
999.997
999.995
999.98
994.098
996.897
999.974
1000.01
999.998
999.999
999.814
999.941
999.999
992.43
999.902
999.293
1000
1000
999.688
999.926
1000
990.974
999.756
999.987
1000
1000
999.906
999.968
1000
999.817
999.845
1000
1000
999.987
999.895
999.972
1000
1000
999.922
1000
1000
999.828
999.957
999.998
999.989
999.997
999.973
999.991
999.998
999.996
947.582
911.223
987.961
1000
1000
999.993
999.995
999.997
998.803
990.647
945.466
997.816
1000
1000
999.999
999.998
999.997
999.991
970.132
993.312
999.983
999.481
1000
999.999
999.951
999.993
986.605
980.103
999.839
999.99
1000
999.999
999.98
999.994
999.469
983.433
999.827
1000
1000
999.987
999.954
999.992
1000
994.193
999.889
1000
1000
999.827
999.98
999.999
999.999
997.536
999.952
999.991
999.994
996.142
875.045
876.835
990.942
1000
1000
999.94
999.988
999.998
993.036
900.037
938.889
999.663
1000
1000.01
999.998
999.998
999.998
982.815
922.579
996.946
1000
996.958
1000
999.999
999.897
998.645
921.562
981.262
999.991
999.967
1000
999.999
999.999
999.999
945.375
972.539
999.962
1000
1000
999.99
999.999
999.999
988.284
982.64
999.94
1000
1000
999.827
999.999
999.999
999.999
994.641
999.973
999.991
999.88
984.078
873.403
885.317
998.61
1000
1000
999.973
999.988
999.407
948.831
882.886
953.482
1000
1000
999.991
999.995
999.999
997.43
896.17
930.18
999.879
1000
988.891
999.999
999.999
997.177
931.621
912.723
988.229
1000
997.636
1000
999.999
999.409
987.61
911.962
973.959
1000
1000
1000
999.998
999.998
999.999
921.217
982.591
999.998
999.998
1000
999.927
999.999
999.999
982.981
995.104
1000
999.989
989.604
920.669
876.857
945.878
1000
1000
1000
999.983
999.985
987.922
883.685
882.895
988.388
1000
1000
999.984
999.979
999.245
970.86
882.886
971.021
1000
1000
989.604
999.994
999.999
979.287
883.394
932.079
997.968
1000
998.328
1000
999.999
994.499
926.727
911.965
980.542
1000
1000
1000
1000
998.301
985.45
911.965
986.263
1000
999.998
1000
999.999
999.48
994.173
931.562
997.911
1000
999.966
954.145
799.264
947.168
993.598
1000
1000
1000
999.981
997.584
935.379
883.571
909.151
1000
1000
1000
999.963
999.99
987.89
888.155
925.731
999.22
1000
1000
997.711
999.998
999.918
966.334
912.323
979.209
1000
1000
999.697
999.999
1000
986.317
905.647
917.517
992.435
1000
999.991
1000
1000
986.267
882.362
920.033
994.842
1000
1000
1000
1000
993.068
881.962
941.695
1000
1000
998.786
917.43
828.856
994.732
999.97
1000
1000
1000
999.968
987.118
886.488
883.571
977.422
1000
1000
1000
999.916
999.946
971.462
903.722
989.236
1000
1000
1000
999.954
999.992
997.423
975.814
991.887
999.178
1000
1000
999.992
999.998
999.994
986.907
950.059
964.594
998.434
1000
999.971
999.015
999.96
976.554
848.867
948.44
1000
1000
988.45
1000
999.989
966.114
847.103
964.599
1000
1000
1000
1000
999.999
999.949
999.453
999.98
1000
1000
1000
1000
1000
999.855
995.34
999.87
1000
1000
1000
1000
1000
998.873
995.263
999.808
1000
1000
1000
1000
1000
997.499
996.458
999.905
1000
1000
1000
1000
999.605
998.603
999.734
999.987
1000
1000
1000
999.991
996.601
998.658
998.659
999.917
1000
1000
1000
999.999
966.637
961.681
995.814
1000
1000
1000
1000
1000
999.976
998.673
996.084
999.971
1000
1000
1000
1000
1000
997.889
995.246
999.85
1000
1000
1000
1000
1000
997.8
995.253
999.86
1000
1000
1000
1000
1000
998.33
999.09
999.914
1000
1000
999.999
999.998
999.677
999.772
999.843
999.844
1000
1000
1000
999.999
991.848
996.769
982.866
999.767
1000
1000
999.999
997.626
953.879
956.794
996.235
1000
1000
1000
1000
1000
999.769
995.891
995.559
999.99
1000
1000
1000
1000
999.947
995.338
995.248
999.902
1000
1000
1000
1000
1000
998.099
997.494
999.92
999.999
1000
1000
1000
1000
999.825
999.144
999.795
1000
1000
999.999
1000
999.562
997.134
991.067
999.606
1000
1000
999.999
999.92
987.706
905.071
969.125
1000
1000
1000
998.715
983.985
954.512
970.717
998.706
1000
1000
1000
1000
1000
999.465
995.679
996.913
1000
1000
1000
1000
1000
999.896
995.867
996.586
999.96
1000
1000
1000
1000
999.99
999.566
999.779
999.856
999.995
1000
1000
1000
1000
998.634
997.268
999.397
1000
1000
1000
1000
999.197
935.736
955.46
999.582
1000
1000
999.999
997.317
974.035
883.861
969.908
1000
1000
1000
993.001
961.766
955.613
988.191
1000
1000
1000
1000
1000
1000
999.469
995.679
999.089
1000
1000
1000
1000
1000
999.919
998.703
999.456
999.994
999.999
1000
1000
1000
999.997
999.996
999.737
999.341
999.996
1000
1000
1000
1000
992.47
988.337
998.407
1000
1000
1000
1000
993.957
874.976
926.792
999.719
1000
1000
998.285
994.67
950.685
883.236
977.466
1000
1000
1000
969.1
961.788
973.569
1000
1000
1000
1000
1000
1000
1000
999.591
998.03
999.94
1000
999.997
1000
1000
1000
999.961
999.964
999.996
1000
999.993
1000
1000
1000
1000
999.824
997.406
998.508
1000
1000
1000
1000
1000
960.431
940.858
996.666
1000
1000
1000
1000
979.847
874.692
930.62
999.995
1000
1000
992.097
993.808
921.744
896.581
989.351
1000
1000
1000
962.213
962.01
997.289
1000
1000
1000
1000
1000
1000
1000
999.592
999.962
999.954
999.602
999.99
1000
1000
1000
999.991
999.99
999.975
999.582
999.978
1000
1000
1000
1000
995.394
991.245
997.391
1000
1000
1000
1000
997.872
887.028
895.035
995.494
1000
1000
999.999
999.999
939.197
874.42
950.395
1000
1000
1000
988.518
985.927
912.681
936.578
999.09
1000
1000
1000
962.954
971.181
1000
1000
1000
1000
1000
1000
1000
1000
999.779
999.956
998.1
998.645
999.997
1000
1000
1000
1000
999.896
999.944
997.421
999.977
1000
1000
1000
1000
973.705
941.29
995.109
1000
1000
999.999
1000
989.127
872.595
899.418
996.288
1000
1000
999.965
996.874
883.704
873.849
975.796
1000
1000
1000
988.463
950.916
912.008
981.534
1000
1000
1000
1000
963.888
988.624
1000
1000
1000
1000
1000
1000
1000
1000
999.988
999.666
993.205
998.519
1000
1000
1000
1000
1000
995.896
978.946
994.729
1000
1000
999.999
1000
999.999
914.988
877.844
991.799
1000
1000
999.996
1000
973.878
872.109
922.657
998.978
1000
1000
998.225
985.845
880.314
884.688
993.855
1000
1000
1000
977.717
928.062
926.47
998.454
1000
1000
1000
1000
968.089
995.26
1000
1000
1000
1000
1000
1000
1000
1000
1000
996.128
992.138
999.255
999.999
999.999
1000
1000
1000
972.756
885.094
991.641
1000
1000
999.992
1000
998.772
873.146
874.404
991.46
1000
1000
999.98
998.199
924.914
871.879
954.426
1000
1000
1000
992.722
957.277
879.461
929.428
999.876
1000
1000
1000
948.727
928.508
959.966
1000
1000
1000
1000
1000
975.72
998.633
1000
1000
1000
1000
1000
1000
1000
1000
1000
989.461
995.355
999.998
999.958
999.999
1000
1000
1000
905.244
879.046
988.686
1000
1000
999.992
1000
987.194
870.994
881.103
994.056
1000
1000
999.983
988.027
873.491
871.509
977.307
1000
1000
1000
986.787
891.407
879.059
979.044
1000
1000
1000
1000
943.324
931.108
990.908
1000
1000
1000
1000
1000
987.392
1000
1000
1000
1000
1000
1000
1000
1000
1000
1000
989.441
999.999
995.592
999.779
1000
999.999
1000
1000
871.088
880.068
988.256
1000
1000
999.994
1000
959.357
870.882
903.242
997.984
1000
1000
999.805
965.792
871.605
871.294
991.775
1000
1000
1000
977.179
882.789
883.876
998.312
1000
1000
1000
1000
947.852
934.218
999.966
1000
1000
1000
1000
1000
995.868
1000
999.999
1000
1000
1000
1000
1000
1000
1000
1000
995.245
965.15
973.06
999.773
1000
999.998
1000
998.702
887.427
930.92
986.052
1000
1000
999.99
999.642
928.677
870.882
943.017
998.775
1000
1000
998.827
933.174
872.309
897.089
998.707
999.994
999.999
1000
966.333
882.789
914.898
1000
1000
1000
1000
1000
959.82
946.251
1000
1000
1000
1000
1000
1000
995.547
998.242
1000
1000
1000
1000
1000
1000
1000
1000
1000
998.295
854.139
939.9
999.964
1000
999.998
1000
997.516
952.102
935.205
979.106
1000
1000
999.983
998.723
928.782
870.882
972.039
997.285
1000
1000
999.07
928.919
872.494
956.654
999.998
999.96
999.996
1000
966.047
882.789
970.608
1000
1000
1000
999.999
1000
982.28
969.752
1000
1000
1000
1000
1000
1000
988.344
991.907
1000
1000
1000
1000
1000
1000
1000
1000
1000
991.534
847.105
925.749
1000
1000
999.999
1000
999.012
977.361
855.754
967.693
1000
1000
999.996
998.016
953.414
924.522
970.814
990.332
1000
1000
999.961
953.688
918.18
995.81
1000
999.814
999.992
1000
973.163
971.117
997.35
999.9
1000
1000
999.998
1000
929.167
991.48
1000
1000
1000
1000
1000
1000
973.31
985.185
1000
1000
1000
1000
1000
1000
994.545
1000
1000
967.094
846.92
929.222
1000
1000
999.996
999.998
999.995
970.121
846.498
947.527
1000
1000
999.99
999.36
994.256
995.832
956.834
981.777
1000
1000
997.215
995.85
997.118
999.889
1000
999.65
999.992
1000
976.661
999.905
999.999
999.87
1000
1000
999.999
1000
888.312
994.753
1000
1000
1000
1000
1000
1000
965.256
983.317
1000
1000
1000
1000
1000
1000
1000
1000
999.529
938.127
980.687
999.811
1000
1000
1000
999.962
999.975
999.991
918.803
959.064
999.736
1000
1000
999.991
999.973
999.992
1000
982.105
998.094
1000
1000
1000
1000
999.977
999.993
999.999
998.965
999.981
1000
999.968
999.955
999.996
999.83
999.988
999.992
999.998
1000
1000
980.568
919.475
982.474
999.687
1000
1000
1000
999.975
999.995
989.381
898.725
965.26
1000
1000
1000
999.992
999.995
999.995
989.715
961.856
998.182
1000
999.992
999.998
999.998
999.98
999.994
996.961
998.725
999.998
999.994
1000
1000
999.887
999.942
999.999
999.297
999.989
1000
1000
1000
999.921
999.926
999.999
999.899
999.997
1000
1000
1000
1000
999.998
1000
999.995
1000
1000
999.724
936.708
919.5
990.33
999.727
1000
1000
1000
999.998
999.997
921.376
898.736
982.845
1000
1000
999.999
999.995
999.996
999.996
922.619
961.309
999.609
1000
999.99
999.997
999.996
999.994
999.994
974.145
998.971
1000
999.989
999.999
999.989
999.89
999.96
997.982
999.219
1000
999.999
1000
999.998
999.831
999.946
1000
999.707
999.997
1000
1000
1000
999.998
999.998
1000
999.971
999.999
999.975
981.522
929.08
949.256
998.659
999.94
1000
1000
999.999
999.999
988.376
898.351
923.506
998.192
1000
1000
999.999
999.998
999.988
983.696
912.151
972.963
1000
1000
999.998
999.999
999.998
999.998
961.143
968.835
999.8
1000
999.998
1000
999.945
999.853
999.994
981.546
999.507
1000
1000
1000
999.958
999.834
999.995
997.815
999.705
1000
1000
1000
999.996
999.989
999.997
999.976
999.927
1000
996.938
939.893
929.08
991.586
1000
999.999
1000
1000
999.999
998.462
932.54
898.365
984.235
1000
1000
1000
999.997
999.999
997.172
911.767
913.732
992.92
1000
1000
999.997
999.999
999.999
996.794
915.298
977.329
1000
1000
999.996
999.999
999.95
999.543
969.251
979.614
999.982
1000
999.999
999.998
999.9
999.846
999.997
989.688
999.887
1000
1000
999.999
999.962
999.983
999.997
998.941
999.937
1000
980.005
936.553
954.952
999.998
1000
1000
1000
1000
999.997
984.774
919.052
922.336
999.999
1000
1000
1000
999.997
999.997
976.496
904.93
953.641
1000
1000
1000
999.998
999.999
999.26
955.755
916.699
992.694
1000
1000
1000
999.999
999.999
997.958
919.26
985.96
1000
1000
1000
1000
999.934
999.309
984.759
990.294
1000
1000
1000
999.996
999.963
999.952
999.997
996.608
1000
1000
937.121
953.256
993.169
1000
1000
1000
1000
1000
997.75
938.851
918.729
986.771
1000
1000
1000
1000
999.999
995.727
918.221
904.928
996.598
1000
1000
1000
1000
999.999
992.143
905.467
949.56
1000
1000
1000
1000
1000
999.998
986.775
919.729
996.168
1000
1000
1000
1000
1000
999.489
930.221
994.978
1000
1000
999.999
999.996
999.995
999.568
987.746
997.193
1000
1000
936.585
988.841
1000
1000
1000
1000
1000
1000
984.799
922.889
951.255
1000
1000
1000
1000
1000
999.934
977.268
913.603
949.799
1000
1000
1000
1000
1000
999.647
951.865
906.14
991.636
1000
1000
1000
1000
1000
996.214
911.013
954.25
1000
1000
1000
1000
1000
999.999
983.679
929.443
999.186
1000
1000
999.998
999.996
999.997
999.594
951.839
999.011
1000
1000
943.419
999.991
1000
1000
1000
1000
1000
1000
939.621
922.428
994.151
1000
1000
1000
1000
1000
997.137
919.927
915.847
995.596
1000
1000
1000
1000
999.998
990.448
898.428
927.863
1000
1000
1000
1000
1000
999.696
949.658
897.662
992.766
1000
1000
1000
1000
1000
990.61
906.627
945.027
1000
1000
1000
999.999
1000
999.521
997.814
958.613
1000
1000
1000
965.932
1000
1000
1000
1000
1000
1000
1000
924.657
947.07
1000
1000
1000
1000
1000
1000
976.413
906.836
955.313
1000
1000
1000
1000
1000
998.565
937.216
898.007
982.058
1000
1000
1000
1000
999.999
994.026
897.595
897.657
999.974
1000
1000
1000
1000
999.417
935.978
897.662
978.001
1000
1000
1000
999.999
999.999
992.106
939.517
987.01
1000
1000
1000
985.79
1000
1000
1000
1000
1000
1000
1000
924.327
990.627
1000
1000
1000
1000
1000
1000
919.53
906.567
996.351
1000
1000
1000
1000
1000
990.385
901.518
907.303
999.99
1000
1000
1000
1000
999.465
951.128
897.595
932.015
1000
1000
1000
1000
999.999
995.776
932.498
897.692
997.802
1000
1000
1000
999.999
999.998
981.104
897.709
999.772
1000
1000
1000
994.023
1000
1000
1000
1000
1000
1000
1000
933.37
1000
1000
1000
1000
1000
1000
1000
913.074
928.905
1000
1000
1000
1000
1000
1000
944.053
901.518
963.277
1000
1000
1000
1000
1000
991.925
902.674
898.644
991.448
1000
1000
1000
1000
999.992
981.903
942.349
917.584
1000
1000
1000
1000
999.998
998.739
958.395
898.022
999.987
999.999
1000
1000
997.714
1000
1000
999.999
1000
1000
1000
1000
957.955
1000
1000
1000
1000
1000
1000
1000
912.51
979.345
1000
1000
1000
1000
1000
1000
910.37
909.051
999.261
1000
1000
1000
1000
1000
966.575
897.258
933.599
1000
1000
1000
1000
1000
999.981
946.272
803.038
975.818
1000
1000
1000
1000
999.995
986.113
842.693
906.721
999.997
999.959
1000
1000
999.183
1000
1000
999.999
1000
1000
1000
1000
981.568
1000
1000
1000
1000
1000
1000
1000
922.325
999.994
1000
1000
1000
1000
1000
1000
911.493
947.3
1000
1000
1000
1000
1000
1000
938.555
895.816
975.34
1000
1000
1000
1000
1000
998.903
897.855
799.501
994.842
1000
1000
1000
1000
999.991
949.951
799.115
902.483
1000
999.942
1000
1000
999.55
1000
1000
999.999
1000
1000
1000
1000
994.307
1000
1000
1000
1000
1000
1000
1000
957.633
1000
1000
1000
1000
1000
1000
1000
912.68
987.099
1000
1000
1000
1000
1000
1000
939.255
895.076
989.127
1000
1000
1000
1000
1000
998.816
887.211
799.118
999.747
1000
1000
1000
1000
997.642
879.037
799.118
903.955
1000
999.975
1000
1000
999.636
1000
1000
999.999
1000
1000
1000
1000
998.383
1000
1000
1000
1000
1000
1000
1000
991.755
1000
1000
1000
1000
1000
1000
1000
937.036
996.672
1000
1000
1000
1000
1000
1000
949.796
895.846
987.857
1000
1000
1000
1000
1000
996.227
883.402
821.107
999.59
1000
1000
1000
1000
983.901
814.384
798.292
916.457
1000
1000
1000
1000
999.599
1000
1000
999.999
1000
1000
1000
1000
998.117
1000
1000
1000