/*--------------------------------*- C++ -*----------------------------------*\
| =========                 |                                                 |
| \\      /  F ield         | OpenFOAM: The Open Source CFD Toolbox           |
|  \\    /   O peration     | Version:  plus.master.MPPICInterFoam            |
|   \\  /    A nd           | Web:      www.OpenFOAM.com                      |
|    \\/     M anipulation  |                                                 |
\*---------------------------------------------------------------------------*/
FoamFile
{
    version     2.0;
    format      ascii;
    class       volScalarField;
    location    "0.6";
    object      k;
}
// * * * * * * * * * * * * * * * * * * * * * * * * * * * * * * * * * * * * * //

dimensions      [0 2 -2 0 0 0 0];

internalField   nonuniform List<scalar> 
11822
(
0.00146429
0.00149023
0.00150296
0.00150678
0.00150297
0.00149026
0.00146434
0.00149024
0.00150999
0.0015197
0.00152258
0.0015197
0.00151
0.00149027
0.00150296
0.0015197
0.00152769
0.00153002
0.00152769
0.0015197
0.00150299
0.00150679
0.00152258
0.00153002
0.00153218
0.00153003
0.00152258
0.0015068
0.00150298
0.00151971
0.0015277
0.00153003
0.00152769
0.00151969
0.00150297
0.00149026
0.00151
0.0015197
0.00152258
0.00151969
0.00150997
0.00149024
0.00146434
0.00149027
0.00150298
0.00150679
0.00150297
0.00149024
0.00146431
0.00146432
0.00149028
0.00150299
0.00150681
0.00150299
0.00149027
0.00146435
0.00149027
0.00151002
0.00151972
0.00152259
0.00151971
0.00150999
0.00149027
0.00150299
0.00151972
0.00152769
0.00153001
0.00152767
0.00151967
0.00150295
0.0015068
0.00152259
0.00153001
0.00153215
0.00152998
0.00152253
0.00150675
0.00150299
0.00151971
0.00152767
0.00152998
0.00152763
0.00151963
0.0015029
0.00149027
0.00150999
0.00151967
0.00152253
0.00151963
0.0015099
0.00149016
0.00146434
0.00149026
0.00150295
0.00150675
0.00150291
0.00149016
0.0014642
0.0014643
0.00149025
0.00150295
0.00150676
0.00150293
0.00149021
0.00146428
0.00149025
0.00150997
0.00151966
0.00152253
0.00151964
0.00150993
0.00149021
0.00150295
0.00151966
0.00152763
0.00152995
0.00152761
0.00151962
0.00150291
0.00150675
0.00152252
0.00152995
0.00153209
0.00152993
0.00152249
0.00150672
0.00150293
0.00151963
0.00152761
0.00152993
0.00152759
0.00151961
0.0015029
0.00149021
0.00150993
0.00151962
0.00152249
0.00151961
0.0015099
0.00149018
0.00146428
0.00149022
0.00150292
0.00150673
0.00150291
0.00149019
0.00146426
0.00146458
0.00149044
0.00150312
0.00150691
0.00150309
0.0014904
0.00146451
0.00149043
0.00151009
0.00151977
0.00152264
0.00151977
0.00151009
0.00149041
0.00150311
0.00151977
0.00152775
0.00153007
0.00152775
0.00151979
0.00150312
0.00150691
0.00152264
0.00153008
0.00153223
0.00153009
0.00152267
0.00150693
0.0015031
0.00151977
0.00152776
0.00153009
0.00152777
0.0015198
0.00150313
0.0014904
0.00151009
0.00151979
0.00152267
0.0015198
0.00151012
0.00149043
0.00146452
0.00149042
0.00150312
0.00150694
0.00150313
0.00149044
0.00146455
0.00146669
0.00149197
0.00150435
0.00150804
0.00150433
0.00149196
0.00146666
0.00149196
0.00151113
0.00152054
0.00152331
0.00152052
0.00151112
0.00149195
0.00150433
0.00152053
0.00152825
0.00153049
0.00152824
0.00152052
0.00150433
0.00150804
0.00152331
0.00153049
0.00153256
0.00153048
0.00152329
0.00150802
0.00150434
0.00152053
0.00152824
0.00153047
0.00152821
0.00152049
0.00150429
0.00149197
0.00151113
0.00152053
0.00152329
0.00152049
0.00151107
0.0014919
0.00146667
0.00149196
0.00150433
0.00150802
0.00150429
0.0014919
0.00146658
0.00147701
0.00149892
0.00150948
0.0015126
0.00150942
0.00149885
0.00147704
0.00149893
0.00151531
0.00152322
0.00152552
0.00152316
0.00151522
0.0014989
0.00150947
0.00152321
0.00152963
0.00153148
0.00152961
0.00152314
0.00150944
0.00151259
0.00152552
0.00153148
0.00153319
0.00153146
0.00152546
0.00151256
0.00150943
0.00152318
0.00152961
0.00153145
0.00152957
0.0015231
0.0015094
0.00149887
0.00151524
0.00152313
0.00152545
0.0015231
0.00151516
0.00149883
0.00147705
0.0014989
0.00150941
0.00151254
0.00150939
0.00149882
0.00147699
0.00142404
0.00137431
0.00130509
0.00121236
0.00109074
0.000931049
0.000709292
0.000306159
0.00145735
0.00141261
0.00134842
0.00125926
0.00113848
0.000975718
0.000745762
0.000322052
0.00147417
0.00143352
0.0013731
0.00128677
0.00116699
0.00100255
0.000767365
0.000331749
0.00147937
0.00144017
0.00138111
0.00129582
0.00117648
0.00101153
0.000774616
0.00033507
0.00147415
0.00143351
0.00137308
0.00128675
0.00116697
0.00100252
0.000767332
0.000331727
0.00145732
0.00141257
0.00134838
0.00125922
0.00113843
0.000975669
0.000745715
0.000322031
0.001424
0.00137427
0.00130504
0.00121231
0.00109069
0.00093099
0.000709237
0.000306141
0.00142405
0.00137431
0.00130507
0.00121233
0.00109069
0.000930973
0.0007092
0.000306101
0.00145735
0.0014126
0.0013484
0.00125923
0.00113843
0.000975656
0.000745689
0.000321998
0.00147414
0.0014335
0.00137307
0.00128674
0.00116696
0.0010025
0.000767312
0.000331709
0.00147932
0.00144012
0.00138106
0.00129577
0.00117643
0.00101148
0.000774568
0.000335038
0.00147408
0.00143343
0.00137301
0.00128666
0.00116688
0.00100242
0.000767238
0.000331665
0.00145723
0.00141246
0.00134825
0.00125907
0.00113826
0.000975472
0.000745514
0.000321903
0.00142388
0.00137411
0.00130486
0.00121208
0.00109042
0.000930693
0.00070893
0.000305958
0.00142397
0.00137422
0.00130498
0.00121221
0.00109054
0.000930794
0.000709007
0.000305997
0.0014573
0.00141255
0.00134836
0.00125918
0.00113838
0.000975592
0.000745623
0.00032196
0.0014741
0.00143347
0.00137306
0.00128673
0.00116695
0.00100249
0.000767297
0.000331707
0.0014793
0.00144012
0.00138107
0.00129579
0.00117645
0.0010115
0.000774576
0.000335048
0.00147409
0.00143346
0.00137305
0.00128671
0.00116693
0.00100247
0.000767284
0.000331695
0.00145727
0.00141253
0.00134833
0.00125916
0.00113835
0.000975568
0.000745601
0.000321939
0.00142394
0.0013742
0.00130496
0.00121219
0.00109053
0.000930791
0.000709007
0.000305979
0.00142425
0.00137457
0.00130538
0.00121264
0.00109097
0.000931168
0.000709261
0.000306067
0.00145755
0.00141287
0.00134874
0.00125961
0.0011388
0.00097595
0.000745838
0.000322012
0.00147436
0.00143379
0.00137344
0.00128715
0.00116736
0.00100283
0.000767491
0.000331733
0.00147956
0.00144044
0.00138145
0.00129621
0.00117686
0.00101184
0.000774773
0.000335074
0.00147436
0.00143379
0.00137344
0.00128715
0.00116737
0.00100284
0.000767501
0.000331741
0.00145756
0.00141289
0.00134876
0.00125963
0.00113881
0.000975954
0.000745842
0.000322018
0.00142429
0.00137462
0.00130544
0.00121271
0.00109104
0.000931232
0.000709315
0.000306089
0.00142717
0.00137826
0.00130989
0.00121787
0.00109663
0.000936713
0.000713791
0.00030778
0.00145984
0.001416
0.00135278
0.00126451
0.00114431
0.000981529
0.0007505
0.00032375
0.00147628
0.00143653
0.00137711
0.00129174
0.00117268
0.00100834
0.00077216
0.000333461
0.00148133
0.001443
0.00138495
0.00130065
0.00118207
0.00101729
0.000779415
0.00033679
0.00147622
0.00143644
0.00137701
0.00129163
0.00117257
0.00100823
0.000772058
0.000333416
0.00145976
0.00141587
0.00135262
0.00126431
0.00114409
0.000981296
0.000750272
0.000323641
0.00142706
0.00137812
0.00130972
0.00121766
0.00109639
0.000936467
0.00071355
0.000307651
0.00144259
0.00139926
0.00133784
0.00125396
0.00114142
0.000989358
0.000769812
0.000349044
0.00147116
0.00143269
0.00137645
0.0012967
0.00118607
0.00103256
0.000806792
0.000367022
0.00148535
0.00145069
0.00139815
0.00132145
0.00121242
0.00105821
0.000828491
0.000377971
0.0014897
0.00145637
0.00140514
0.00132954
0.00122114
0.00106675
0.000835746
0.00038171
0.00148532
0.00145067
0.00139813
0.00132144
0.00121241
0.00105819
0.000828469
0.000377957
0.00147111
0.00143266
0.00137643
0.0012967
0.00118608
0.00103256
0.000806787
0.000367018
0.00144254
0.00139923
0.00133786
0.00125402
0.00114152
0.000989484
0.000769941
0.000349113
0.00142404
0.00137431
0.00130509
0.00121236
0.00109074
0.000931043
0.000709285
0.000306159
0.00145736
0.00141261
0.00134841
0.00125925
0.00113846
0.000975701
0.000745745
0.000322046
0.00147417
0.00143352
0.00137309
0.00128676
0.00116698
0.00100254
0.000767359
0.000331756
0.00147937
0.00144016
0.0013811
0.00129582
0.00117648
0.00101155
0.000774639
0.000335099
0.00147415
0.0014335
0.00137309
0.00128676
0.00116699
0.00100256
0.00076738
0.000331771
0.00145733
0.00141258
0.00134839
0.00125923
0.00113846
0.000975709
0.000745763
0.000322062
0.00142401
0.00137427
0.00130505
0.00121232
0.00109071
0.000931016
0.000709263
0.000306142
0.00142405
0.0013743
0.00130507
0.00121232
0.00109068
0.000930959
0.000709188
0.000306101
0.00145737
0.00141261
0.00134841
0.00125924
0.00113844
0.00097566
0.000745696
0.000322017
0.00147419
0.00143353
0.0013731
0.00128676
0.00116697
0.00100251
0.000767324
0.00033173
0.00147939
0.00144018
0.00138111
0.00129582
0.00117647
0.00101152
0.0007746
0.000335069
0.00147418
0.00143352
0.00137309
0.00128675
0.00116697
0.00100252
0.000767331
0.00033174
0.00145736
0.0014126
0.00134839
0.00125922
0.00113842
0.000975642
0.000745681
0.000322007
0.00142405
0.00137429
0.00130505
0.0012123
0.00109065
0.000930935
0.000709163
0.000306072
0.00142397
0.00137422
0.00130498
0.0012122
0.00109053
0.000930773
0.000708982
0.000305987
0.00145731
0.00141255
0.00134834
0.00125915
0.00113833
0.000975535
0.000745561
0.000321941
0.00147412
0.00143348
0.00137305
0.0012867
0.00116691
0.00100245
0.000767251
0.000331685
0.00147933
0.00144013
0.00138107
0.00129578
0.00117642
0.00101146
0.000774534
0.000335024
0.00147413
0.00143348
0.00137305
0.0012867
0.00116691
0.00100244
0.000767241
0.000331668
0.00145731
0.00141255
0.00134834
0.00125915
0.00113833
0.00097553
0.00074555
0.000321925
0.00142399
0.00137423
0.00130497
0.00121219
0.00109052
0.000930767
0.000708976
0.000305973
0.00142424
0.00137454
0.00130535
0.0012126
0.00109092
0.000931108
0.000709195
0.000306038
0.00145752
0.00141282
0.00134867
0.00125952
0.00113869
0.000975819
0.000745701
0.000321956
0.00147432
0.00143374
0.00137337
0.00128706
0.00116726
0.00100272
0.000767375
0.000331691
0.00147953
0.0014404
0.0013814
0.00129615
0.00117679
0.00101176
0.000774687
0.000335043
0.00147434
0.00143378
0.00137343
0.00128713
0.00116734
0.0010028
0.000767461
0.000331723
0.00145757
0.00141291
0.00134879
0.00125967
0.00113886
0.000976004
0.000745886
0.00032203
0.00142431
0.00137466
0.0013055
0.0012128
0.00109115
0.000931351
0.000709435
0.000306137
0.00142717
0.00137826
0.00130989
0.00121786
0.00109661
0.000936689
0.000713768
0.000307777
0.00145981
0.00141597
0.00135273
0.00126444
0.00114422
0.000981421
0.00075039
0.000323707
0.00147626
0.0014365
0.00137706
0.00129167
0.00117258
0.00100822
0.000772032
0.000333408
0.00148134
0.00144301
0.00138494
0.00130062
0.00118201
0.00101721
0.000779323
0.000336748
0.00147626
0.0014365
0.00137707
0.00129169
0.00117262
0.00100827
0.000772082
0.000333427
0.00145984
0.001416
0.00135277
0.00126449
0.00114429
0.000981503
0.000750468
0.000323735
0.0014272
0.00137832
0.00130997
0.00121797
0.00109674
0.000936838
0.000713911
0.00030783
0.00144259
0.00139924
0.0013378
0.0012539
0.00114134
0.000989267
0.000769716
0.000348966
0.00147117
0.00143266
0.00137638
0.0012966
0.00118595
0.00103242
0.000806646
0.000366909
0.00148537
0.00145067
0.00139809
0.00132136
0.00121233
0.00105811
0.000828398
0.000377904
0.00148973
0.00145635
0.0014051
0.00132949
0.00122109
0.0010667
0.000835704
0.000381686
0.00148536
0.00145067
0.00139811
0.00132141
0.00121238
0.00105816
0.000828439
0.000377941
0.00147119
0.00143269
0.00137642
0.00129666
0.00118603
0.0010325
0.000806716
0.000366968
0.00144262
0.00139924
0.00133783
0.00125398
0.00114146
0.000989402
0.000769841
0.000349043
0.00142401
0.00137427
0.00130505
0.00121231
0.0010907
0.000930999
0.00070924
0.000306112
0.00145732
0.00141257
0.00134838
0.00125923
0.00113845
0.000975694
0.000745744
0.000322039
0.00147415
0.0014335
0.00137308
0.00128675
0.00116699
0.00100255
0.000767378
0.000331765
0.00147937
0.00144016
0.0013811
0.00129582
0.00117649
0.00101155
0.000774643
0.000335097
0.00147416
0.00143352
0.00137309
0.00128676
0.00116699
0.00100255
0.000767365
0.000331752
0.00145735
0.0014126
0.00134841
0.00125925
0.00113847
0.000975715
0.000745761
0.000322052
0.00142406
0.00137432
0.0013051
0.00121237
0.00109075
0.000931057
0.0007093
0.000306159
0.00142406
0.00137431
0.00130508
0.00121233
0.0010907
0.000930993
0.000709231
0.000306133
0.00145737
0.00141262
0.00134842
0.00125926
0.00113848
0.000975722
0.000745772
0.000322083
0.00147419
0.00143354
0.00137312
0.00128679
0.00116702
0.00100257
0.000767388
0.000331784
0.0014794
0.0014402
0.00138113
0.00129585
0.0011765
0.00101156
0.000774638
0.000335097
0.0014742
0.00143355
0.00137312
0.00128678
0.001167
0.00100255
0.000767363
0.000331759
0.00145738
0.00141263
0.00134843
0.00125926
0.00113847
0.000975708
0.000745751
0.000322061
0.00142409
0.00137433
0.00130509
0.00121235
0.00109071
0.000931006
0.000709241
0.000306137
0.001424
0.00137423
0.00130497
0.00121218
0.00109051
0.000930757
0.00070896
0.000305962
0.00145733
0.00141256
0.00134834
0.00125915
0.00113832
0.000975517
0.000745528
0.000321912
0.00147414
0.00143348
0.00137305
0.0012867
0.0011669
0.00100243
0.00076722
0.000331657
0.00147934
0.00144014
0.00138107
0.00129578
0.00117642
0.00101145
0.000774524
0.000335011
0.00147412
0.00143348
0.00137305
0.00128671
0.00116691
0.00100245
0.000767249
0.000331677
0.00145729
0.00141254
0.00134834
0.00125915
0.00113833
0.000975531
0.000745554
0.000321938
0.00142398
0.00137421
0.00130496
0.00121218
0.00109051
0.000930755
0.000708964
0.00030598
0.00142432
0.00137467
0.00130552
0.00121282
0.00109118
0.000931393
0.000709481
0.000306155
0.00145758
0.00141293
0.00134882
0.00125971
0.00113892
0.000976069
0.000745954
0.000322058
0.00147435
0.0014338
0.00137346
0.00128717
0.00116738
0.00100285
0.000767499
0.000331735
0.00147953
0.00144041
0.00138143
0.00129618
0.00117683
0.0010118
0.000774732
0.000335059
0.00147432
0.00143375
0.0013734
0.00128709
0.0011673
0.00100277
0.000767433
0.000331716
0.00145751
0.00141283
0.00134869
0.00125955
0.00113872
0.000975853
0.000745739
0.000321975
0.00142422
0.00137453
0.00130535
0.00121261
0.00109093
0.000931117
0.000709202
0.000306042
0.0014272
0.00137834
0.00131
0.001218
0.00109679
0.000936897
0.000713982
0.00030787
0.00145985
0.00141603
0.00135282
0.00126455
0.00114435
0.000981577
0.000750548
0.000323775
0.00147628
0.00143654
0.00137711
0.00129173
0.00117265
0.0010083
0.000772109
0.000333439
0.00148134
0.00144302
0.00138495
0.00130064
0.00118203
0.00101723
0.00077935
0.000336763
0.00147625
0.00143648
0.00137704
0.00129165
0.00117256
0.00100822
0.000772041
0.000333417
0.00145982
0.00141595
0.00135269
0.00126438
0.00114415
0.000981342
0.000750312
0.000323673
0.00142715
0.00137826
0.00130987
0.00121782
0.00109655
0.000936617
0.000713687
0.00030773
0.00144259
0.00139921
0.00133782
0.00125398
0.00114147
0.000989416
0.000769858
0.000349056
0.00147116
0.00143265
0.00137639
0.00129665
0.00118603
0.00103251
0.000806723
0.000366968
0.00148537
0.00145067
0.0013981
0.00132139
0.00121237
0.00105815
0.000828428
0.00037793
0.00148972
0.00145635
0.00140509
0.00132949
0.00122109
0.00106671
0.000835704
0.000381688
0.00148534
0.00145065
0.00139808
0.00132136
0.00121233
0.00105811
0.000828388
0.0003779
0.00147115
0.00143265
0.00137635
0.00129657
0.00118591
0.00103237
0.000806592
0.000366869
0.00144263
0.00139921
0.00133778
0.00125389
0.00114134
0.000989267
0.000769707
0.000348927
0.001424
0.00137426
0.00130504
0.0012123
0.00109068
0.000930977
0.000709222
0.000306131
0.00145732
0.00141257
0.00134838
0.00125921
0.00113842
0.00097565
0.000745696
0.000322021
0.00147415
0.0014335
0.00137308
0.00128674
0.00116696
0.00100251
0.000767324
0.000331726
0.00147937
0.00144017
0.00138111
0.00129582
0.00117648
0.00101153
0.000774618
0.000335073
0.00147416
0.00143352
0.00137311
0.00128677
0.00116701
0.00100256
0.000767378
0.000331758
0.00145736
0.00141261
0.00134842
0.00125927
0.00113849
0.000975739
0.000745788
0.000322074
0.00142407
0.00137432
0.0013051
0.00121237
0.00109076
0.000931067
0.000709312
0.000306172
0.00142388
0.00137411
0.00130485
0.00121207
0.0010904
0.000930664
0.000708895
0.000305939
0.00145723
0.00141246
0.00134825
0.00125905
0.00113823
0.000975438
0.00074547
0.000321879
0.00147408
0.00143343
0.001373
0.00128665
0.00116687
0.0010024
0.000767215
0.000331644
0.00147932
0.00144012
0.00138106
0.00129577
0.00117643
0.00101147
0.000774558
0.00033503
0.00147413
0.0014335
0.00137308
0.00128674
0.00116696
0.0010025
0.000767313
0.00033171
0.00145734
0.00141259
0.0013484
0.00125923
0.00113843
0.000975653
0.000745688
0.000321998
0.00142407
0.00137431
0.00130507
0.00121231
0.00109067
0.000930949
0.000709176
0.000306075
0.00142396
0.00137421
0.00130497
0.00121221
0.00109055
0.000930815
0.00070903
0.000305981
0.00145729
0.00141254
0.00134835
0.00125918
0.00113838
0.000975604
0.000745634
0.000321948
0.00147411
0.00143348
0.00137307
0.00128674
0.00116696
0.00100251
0.000767312
0.000331704
0.00147932
0.00144014
0.00138109
0.00129582
0.00117648
0.00101153
0.000774602
0.000335055
0.00147411
0.00143349
0.00137309
0.00128676
0.00116698
0.00100253
0.000767332
0.000331722
0.0014573
0.00141257
0.00134839
0.00125922
0.00113842
0.000975636
0.000745664
0.000321979
0.001424
0.00137424
0.001305
0.00121223
0.00109057
0.000930833
0.000709047
0.00030601
0.0014243
0.00137464
0.00130547
0.00121276
0.00109111
0.000931321
0.00070942
0.000306145
0.00145758
0.00141292
0.00134881
0.0012597
0.00113891
0.000976079
0.00074598
0.000322084
0.00147438
0.00143382
0.00137348
0.00128721
0.00116744
0.00100292
0.000767586
0.00033178
0.00147957
0.00144045
0.00138148
0.00129625
0.00117691
0.0010119
0.000774832
0.000335103
0.00147436
0.0014338
0.00137346
0.00128718
0.0011674
0.00100288
0.000767535
0.000331757
0.00145755
0.00141288
0.00134876
0.00125964
0.00113883
0.000975983
0.00074587
0.000322031
0.00142424
0.00137457
0.0013054
0.00121268
0.00109101
0.000931213
0.000709305
0.000306092
0.00142705
0.00137812
0.00130971
0.00121766
0.00109638
0.000936448
0.000713526
0.000307644
0.00145975
0.00141588
0.00135262
0.0012643
0.00114407
0.000981264
0.000750235
0.000323628
0.00147622
0.00143645
0.00137701
0.00129162
0.00117253
0.00100819
0.00077201
0.000333399
0.00148133
0.001443
0.00138493
0.00130062
0.00118203
0.00101724
0.000779362
0.000336769
0.00147628
0.0014365
0.00137707
0.00129169
0.00117262
0.00100828
0.000772097
0.000333437
0.00145986
0.00141599
0.00135275
0.00126446
0.00114424
0.000981446
0.000750412
0.000323712
0.00142718
0.0013783
0.00130992
0.00121789
0.00109663
0.000936705
0.000713777
0.000307774
0.00144252
0.0013992
0.00133784
0.00125402
0.00114152
0.000989489
0.000769948
0.000349115
0.00147109
0.00143263
0.0013764
0.00129667
0.00118606
0.00103255
0.000806782
0.000367007
0.00148531
0.00145065
0.0013981
0.00132141
0.00121239
0.00105817
0.000828448
0.000377936
0.00148969
0.00145635
0.00140512
0.00132952
0.00122112
0.00106674
0.000835729
0.000381697
0.00148532
0.00145067
0.00139813
0.00132143
0.00121241
0.00105819
0.000828468
0.000377957
0.00147115
0.00143269
0.00137642
0.00129666
0.00118602
0.0010325
0.000806717
0.000366969
0.00144264
0.00139924
0.00133782
0.00125394
0.00114139
0.000989316
0.000769752
0.000348962
0.000544357
0.00112852
0.00136179
0.00147057
0.00151663
0.00153325
0.00153723
0.00153348
0.00054436
0.00112852
0.00136179
0.00147057
0.00151663
0.00153326
0.00153723
0.00153348
0.000544354
0.00112852
0.00136179
0.00147057
0.00151663
0.00153326
0.00153723
0.00153347
0.000544354
0.00112852
0.00136179
0.00147057
0.00151663
0.00153325
0.00153723
0.00153347
0.000544358
0.00112852
0.00136179
0.00147057
0.00151663
0.00153326
0.00153723
0.00153348
0.000544364
0.00112853
0.00136179
0.00147057
0.00151663
0.00153326
0.00153723
0.00153348
0.000544367
0.00112852
0.00136179
0.00147057
0.00151663
0.00153327
0.00153725
0.00153351
0.000544348
0.00112849
0.00136176
0.00147054
0.0015166
0.00153322
0.0015372
0.00153344
0.000544351
0.0011285
0.00136177
0.00147054
0.0015166
0.00153322
0.00153719
0.00153344
0.000544351
0.0011285
0.00136177
0.00147054
0.0015166
0.00153322
0.00153719
0.00153344
0.000544354
0.0011285
0.00136177
0.00147054
0.00151659
0.00153322
0.00153719
0.00153344
0.000544356
0.0011285
0.00136177
0.00147054
0.00151659
0.00153322
0.00153719
0.00153344
0.000544356
0.0011285
0.00136177
0.00147054
0.0015166
0.00153322
0.0015372
0.00153344
0.000544353
0.0011285
0.00136177
0.00147054
0.0015166
0.00153322
0.00153719
0.00153342
0.000544348
0.00112852
0.00136178
0.00147054
0.00151658
0.0015332
0.00153718
0.00153343
0.000544354
0.00112852
0.00136178
0.00147054
0.00151658
0.0015332
0.00153718
0.00153343
0.000544356
0.00112852
0.00136178
0.00147054
0.00151659
0.00153321
0.00153718
0.00153344
0.000544355
0.00112852
0.00136178
0.00147054
0.00151659
0.00153321
0.00153719
0.00153344
0.000544354
0.00112852
0.00136178
0.00147054
0.00151659
0.00153321
0.00153719
0.00153344
0.000544351
0.00112851
0.00136178
0.00147054
0.00151659
0.00153321
0.00153719
0.00153344
0.000544349
0.00112851
0.00136178
0.00147054
0.00151659
0.00153322
0.0015372
0.00153345
0.000544469
0.00112894
0.00136214
0.00147075
0.00151667
0.00153323
0.00153719
0.00153343
0.000544474
0.00112894
0.00136215
0.00147076
0.00151669
0.00153324
0.00153719
0.00153343
0.000544476
0.00112895
0.00136216
0.00147077
0.00151669
0.00153324
0.00153719
0.00153343
0.000544476
0.00112895
0.00136216
0.00147077
0.00151669
0.00153324
0.00153719
0.00153343
0.000544477
0.00112895
0.00136217
0.00147077
0.00151669
0.00153325
0.00153719
0.00153343
0.000544475
0.00112895
0.00136216
0.00147077
0.00151669
0.00153325
0.00153719
0.00153343
0.000544472
0.00112894
0.00136216
0.00147077
0.00151669
0.00153325
0.0015372
0.00153343
0.000546805
0.00113352
0.00136538
0.00147239
0.00151728
0.00153333
0.00153708
0.00153326
0.000546818
0.00113354
0.00136539
0.00147239
0.00151727
0.00153333
0.00153708
0.00153327
0.000546822
0.00113355
0.00136539
0.00147239
0.00151727
0.00153333
0.00153708
0.00153327
0.000546824
0.00113355
0.00136539
0.00147239
0.00151727
0.00153332
0.00153708
0.00153327
0.000546827
0.00113355
0.00136539
0.00147239
0.00151727
0.00153332
0.00153708
0.00153327
0.000546825
0.00113355
0.00136538
0.00147238
0.00151727
0.00153332
0.00153708
0.00153327
0.000546821
0.00113354
0.00136538
0.00147238
0.00151727
0.00153332
0.00153709
0.00153327
0.00060021
0.00117312
0.00138623
0.00148117
0.00151997
0.00153351
0.00153642
0.00153237
0.000600239
0.00117315
0.00138625
0.00148119
0.00151998
0.00153352
0.00153643
0.00153237
0.00060026
0.00117318
0.00138626
0.0014812
0.00151999
0.00153353
0.00153643
0.00153237
0.000600271
0.00117319
0.00138627
0.0014812
0.00151999
0.00153353
0.00153643
0.00153237
0.000600257
0.00117318
0.00138626
0.0014812
0.00151998
0.00153353
0.00153643
0.00153237
0.000600228
0.00117314
0.00138625
0.00148119
0.00151998
0.00153353
0.00153643
0.00153237
0.000600196
0.00117311
0.00138622
0.00148118
0.00151998
0.00153352
0.00153643
0.00153238
0.000544348
0.00112851
0.00136178
0.00147056
0.00151662
0.00153325
0.00153723
0.00153348
0.000544352
0.00112851
0.00136178
0.00147056
0.00151662
0.00153325
0.00153722
0.00153347
0.000544353
0.00112851
0.00136178
0.00147056
0.00151662
0.00153325
0.00153722
0.00153347
0.000544354
0.00112851
0.00136178
0.00147056
0.00151663
0.00153325
0.00153723
0.00153348
0.000544352
0.00112851
0.00136178
0.00147056
0.00151663
0.00153325
0.00153723
0.00153348
0.000544349
0.00112851
0.00136178
0.00147056
0.00151662
0.00153325
0.00153722
0.00153347
0.000544349
0.00112851
0.00136178
0.00147057
0.00151663
0.00153326
0.00153723
0.00153348
0.000544344
0.00112849
0.00136176
0.00147054
0.0015166
0.00153322
0.00153719
0.00153344
0.000544346
0.00112849
0.00136176
0.00147054
0.00151659
0.00153322
0.00153719
0.00153344
0.000544346
0.00112849
0.00136176
0.00147053
0.00151659
0.00153321
0.00153719
0.00153344
0.000544348
0.00112849
0.00136176
0.00147053
0.00151659
0.00153321
0.00153719
0.00153343
0.000544345
0.00112849
0.00136175
0.00147053
0.00151659
0.00153321
0.00153719
0.00153344
0.000544343
0.00112849
0.00136176
0.00147053
0.00151659
0.00153322
0.00153719
0.00153344
0.000544341
0.00112849
0.00136176
0.00147053
0.00151659
0.00153322
0.00153719
0.00153344
0.000544341
0.00112851
0.00136178
0.00147054
0.00151658
0.0015332
0.00153718
0.00153343
0.000544344
0.00112851
0.00136177
0.00147053
0.00151658
0.0015332
0.00153718
0.00153343
0.000544345
0.0011285
0.00136177
0.00147053
0.00151658
0.0015332
0.00153718
0.00153343
0.000544344
0.0011285
0.00136177
0.00147053
0.00151658
0.0015332
0.00153718
0.00153344
0.00054434
0.0011285
0.00136176
0.00147053
0.00151658
0.0015332
0.00153719
0.00153344
0.000544337
0.00112849
0.00136176
0.00147053
0.00151658
0.0015332
0.00153719
0.00153344
0.000544337
0.00112849
0.00136176
0.00147053
0.00151658
0.0015332
0.00153719
0.00153344
0.000544464
0.00112893
0.00136214
0.00147075
0.00151667
0.00153323
0.00153719
0.00153343
0.000544468
0.00112893
0.00136214
0.00147075
0.00151668
0.00153324
0.00153719
0.00153343
0.000544469
0.00112894
0.00136215
0.00147076
0.00151668
0.00153324
0.00153719
0.00153343
0.000544467
0.00112893
0.00136215
0.00147076
0.00151669
0.00153324
0.00153719
0.00153343
0.000544464
0.00112893
0.00136215
0.00147076
0.00151669
0.00153324
0.00153719
0.00153343
0.000544461
0.00112892
0.00136214
0.00147076
0.00151669
0.00153324
0.00153719
0.00153343
0.00054446
0.00112892
0.00136214
0.00147076
0.00151669
0.00153324
0.00153719
0.00153343
0.000546801
0.00113351
0.00136537
0.00147239
0.00151727
0.00153333
0.00153708
0.00153326
0.000546815
0.00113353
0.00136538
0.00147239
0.00151727
0.00153332
0.00153708
0.00153327
0.000546818
0.00113354
0.00136538
0.00147239
0.00151727
0.00153332
0.00153708
0.00153327
0.000546819
0.00113354
0.00136538
0.00147238
0.00151726
0.00153332
0.00153708
0.00153327
0.000546819
0.00113354
0.00136538
0.00147238
0.00151726
0.00153332
0.00153708
0.00153327
0.000546817
0.00113353
0.00136537
0.00147238
0.00151726
0.00153332
0.00153708
0.00153327
0.000546814
0.00113352
0.00136537
0.00147238
0.00151726
0.00153332
0.00153708
0.00153327
0.000600212
0.00117312
0.00138622
0.00148117
0.00151996
0.00153351
0.00153642
0.00153237
0.000600243
0.00117315
0.00138625
0.00148119
0.00151998
0.00153352
0.00153642
0.00153237
0.000600265
0.00117318
0.00138626
0.0014812
0.00151998
0.00153353
0.00153643
0.00153237
0.000600278
0.00117319
0.00138627
0.0014812
0.00151998
0.00153353
0.00153643
0.00153237
0.000600268
0.00117319
0.00138627
0.0014812
0.00151999
0.00153353
0.00153643
0.00153237
0.000600243
0.00117316
0.00138626
0.0014812
0.00151998
0.00153353
0.00153643
0.00153237
0.000600214
0.00117312
0.00138624
0.00148119
0.00151998
0.00153352
0.00153643
0.00153237
0.000544347
0.00112851
0.00136178
0.00147056
0.00151663
0.00153325
0.00153723
0.00153348
0.00054435
0.00112851
0.00136178
0.00147056
0.00151663
0.00153326
0.00153723
0.00153348
0.000544352
0.00112851
0.00136178
0.00147056
0.00151662
0.00153325
0.00153722
0.00153347
0.000544357
0.00112851
0.00136178
0.00147056
0.00151663
0.00153325
0.00153723
0.00153348
0.000544358
0.00112851
0.00136178
0.00147056
0.00151662
0.00153325
0.00153723
0.00153348
0.00054436
0.00112851
0.00136178
0.00147056
0.00151662
0.00153325
0.00153723
0.00153348
0.000544364
0.00112851
0.00136178
0.00147056
0.00151662
0.00153325
0.00153722
0.00153347
0.000544341
0.00112849
0.00136176
0.00147053
0.00151659
0.00153321
0.00153719
0.00153344
0.00054434
0.00112849
0.00136176
0.00147053
0.00151659
0.00153321
0.00153719
0.00153344
0.000544341
0.00112849
0.00136175
0.00147053
0.00151659
0.00153321
0.00153719
0.00153344
0.000544342
0.00112849
0.00136175
0.00147053
0.00151659
0.00153321
0.00153719
0.00153344
0.000544343
0.00112849
0.00136176
0.00147053
0.00151659
0.00153321
0.00153719
0.00153344
0.000544345
0.00112849
0.00136176
0.00147053
0.00151659
0.00153321
0.00153719
0.00153344
0.000544348
0.00112849
0.00136176
0.00147054
0.00151659
0.00153321
0.00153719
0.00153344
0.000544338
0.00112849
0.00136176
0.00147053
0.00151658
0.0015332
0.00153719
0.00153344
0.000544339
0.0011285
0.00136176
0.00147053
0.00151658
0.0015332
0.00153718
0.00153344
0.00054434
0.0011285
0.00136176
0.00147053
0.00151658
0.0015332
0.00153718
0.00153344
0.000544342
0.0011285
0.00136176
0.00147053
0.00151658
0.0015332
0.00153718
0.00153344
0.000544343
0.0011285
0.00136177
0.00147053
0.00151658
0.0015332
0.00153718
0.00153344
0.000544344
0.0011285
0.00136177
0.00147053
0.00151658
0.0015332
0.00153718
0.00153344
0.000544347
0.0011285
0.00136177
0.00147053
0.00151658
0.0015332
0.00153718
0.00153344
0.000544461
0.00112892
0.00136215
0.00147076
0.00151669
0.00153324
0.00153719
0.00153343
0.000544464
0.00112893
0.00136215
0.00147076
0.00151669
0.00153324
0.00153719
0.00153343
0.000544466
0.00112893
0.00136215
0.00147076
0.00151669
0.00153324
0.00153719
0.00153343
0.000544468
0.00112894
0.00136215
0.00147076
0.00151669
0.00153324
0.00153719
0.00153343
0.000544468
0.00112894
0.00136215
0.00147076
0.00151669
0.00153324
0.00153719
0.00153343
0.000544468
0.00112894
0.00136215
0.00147076
0.00151669
0.00153324
0.00153719
0.00153343
0.00054447
0.00112894
0.00136215
0.00147077
0.00151669
0.00153324
0.00153719
0.00153342
0.000546814
0.00113352
0.00136537
0.00147238
0.00151726
0.00153332
0.00153708
0.00153327
0.000546819
0.00113354
0.00136538
0.00147238
0.00151726
0.00153332
0.00153708
0.00153327
0.000546822
0.00113355
0.00136538
0.00147238
0.00151726
0.00153332
0.00153708
0.00153327
0.000546824
0.00113355
0.00136538
0.00147238
0.00151726
0.00153332
0.00153708
0.00153327
0.000546821
0.00113354
0.00136538
0.00147238
0.00151726
0.00153332
0.00153708
0.00153327
0.000546817
0.00113353
0.00136537
0.00147238
0.00151726
0.00153331
0.00153707
0.00153326
0.000546821
0.00113353
0.00136536
0.00147237
0.00151725
0.00153331
0.00153707
0.00153327
0.000600212
0.00117312
0.00138624
0.00148119
0.00151998
0.00153353
0.00153643
0.00153237
0.00060024
0.00117316
0.00138625
0.00148119
0.00151998
0.00153353
0.00153643
0.00153237
0.000600266
0.00117318
0.00138627
0.0014812
0.00151999
0.00153353
0.00153643
0.00153237
0.000600275
0.00117319
0.00138627
0.0014812
0.00151999
0.00153353
0.00153643
0.00153237