/*--------------------------------*- C++ -*----------------------------------*\
| =========                 |                                                 |
| \\      /  F ield         | OpenFOAM: The Open Source CFD Toolbox           |
|  \\    /   O peration     | Version:  plus.master.MPPICInterFoam            |
|   \\  /    A nd           | Web:      www.OpenFOAM.com                      |
|    \\/     M anipulation  |                                                 |
\*---------------------------------------------------------------------------*/
FoamFile
{
    version     2.0;
    format      ascii;
    class       volScalarField;
    location    "11.4";
    object      epsilon;
}
// * * * * * * * * * * * * * * * * * * * * * * * * * * * * * * * * * * * * * //

dimensions      [0 2 -3 0 0 0 0];

internalField   nonuniform List<scalar> 
11821
(
0.000744821
0.00492222
0.027334
0.0346452
0.00910531
0.00120728
0.000237466
0.00309946
0.0900537
0.396106
0.587473
0.240222
0.0541749
0.00168397
0.0153436
0.318287
0.589564
2.00287
0.47668
0.268282
0.0140395
0.0427302
0.656804
2.05535
1.92544
2.03535
0.544375
0.0359267
0.0212235
0.367683
0.594955
1.77293
0.512549
0.31367
0.0204985
0.00406659
0.0968264
0.40544
0.667331
0.250298
0.0732511
0.00338379
0.000875681
0.00515074
0.0274078
0.0363064
0.00937655
0.00212124
0.000465121
0.00544493
0.0442871
0.172479
0.221658
0.0539137
0.00694797
0.00105836
0.0364944
0.253552
0.853215
1.44041
0.437001
0.0804585
0.00686252
0.145352
0.772072
1.57319
5.10023
1.2976
0.393648
0.0476796
0.33509
1.74865
5.19352
4.33485
6.35943
1.11484
0.138837
0.189338
0.917445
1.74322
4.75506
1.57469
0.57133
0.0875504
0.0491611
0.309957
1.02914
1.99678
0.636331
0.148568
0.0176661
0.00757121
0.0573783
0.232026
0.34212
0.0980989
0.0168285
0.00210608
0.0174415
0.0958928
0.312058
0.445886
0.109544
0.0143342
0.00363525
0.0968958
0.48354
1.47335
2.65899
0.817114
0.119084
0.0115818
0.345096
1.48761
2.83769
8.9595
2.95967
0.605927
0.0570194
0.76038
3.48595
9.2423
6.9537
13.4104
1.84757
0.177555
0.43037
1.7529
3.21244
8.45773
3.19294
0.899917
0.10901
0.138021
0.640108
1.89312
3.94542
1.28137
0.247233
0.026691
0.0277224
0.147356
0.472876
0.750958
0.235632
0.0366393
0.00581542
0.0283167
0.119433
0.379724
0.558013
0.134597
0.0231519
0.00977167
0.138285
0.674744
2.08355
3.75209
1.1289
0.137996
0.0190023
0.545035
2.42863
4.3713
11.2496
5.44985
0.772709
0.0624489
1.28243
6.43453
12.7899
11.5971
21.9391
2.39659
0.170268
0.686266
2.97879
5.22138
11.2675
6.17812
1.13171
0.104463
0.213583
0.966595
2.9751
6.39698
1.89272
0.287268
0.0324592
0.0472843
0.214077
0.661783
1.06978
0.320907
0.0484273
0.0125754
0.0302747
0.107974
0.341476
0.493339
0.116863
0.0248773
0.0128623
0.135102
0.701579
2.4474
3.93667
1.0729
0.119056
0.021018
0.616255
3.24765
5.41712
10.6964
7.01709
0.712985
0.0559352
1.65091
10.7712
13.8613
16.6678
31.0518
2.37379
0.137433
0.803998
4.12712
6.09971
11.3141
10.1368
1.08485
0.0863819
0.224466
1.09498
3.73839
7.97339
2.0266
0.24844
0.0316682
0.0503033
0.215457
0.695053
1.10487
0.300466
0.0468981
0.0156722
0.000115951
0.000106222
0.000105584
9.96209e-05
9.51446e-05
9.1512e-05
8.84328e-05
8.57305e-05
0.000322136
0.000143926
0.000109166
9.68329e-05
9.05103e-05
8.5731e-05
8.17968e-05
7.84302e-05
0.00216462
0.000360968
0.000133558
9.98366e-05
9.05465e-05
8.48558e-05
8.01721e-05
7.60925e-05
0.00592857
0.000875755
0.000186782
0.000104673
9.07745e-05
8.47046e-05
8.00376e-05
7.68135e-05
0.00325339
0.000525187
0.000158207
0.00010628
9.48628e-05
8.89419e-05
8.48563e-05
8.17566e-05
0.00069149
0.000212579
0.000129616
0.000107613
9.90923e-05
9.41357e-05
9.07765e-05
8.82044e-05
0.000189502
0.000127715
0.000114064
0.000106974
0.000103943
0.000100877
9.83008e-05
9.57628e-05
0.000425397
0.000334634
0.000284307
0.000246905
0.000217659
0.000194259
0.000174918
0.000158371
0.000849101
0.000406998
0.000309044
0.0002585
0.00022365
0.000197052
0.000175704
0.000157682
0.00319127
0.000601834
0.000336601
0.00026295
0.000223688
0.000195834
0.00017394
0.000155615
0.00792513
0.00084815
0.000360988
0.000266845
0.000224714
0.000196141
0.000173976
0.000155605
0.00599584
0.000771621
0.000353117
0.000265717
0.000225299
0.000197799
0.000176388
0.000158355
0.00185525
0.00050423
0.000319093
0.00025858
0.000224664
0.000200143
0.000180666
0.000163971
0.000629917
0.000360289
0.000286841
0.000246752
0.00021882
0.000197632
0.000180388
0.00016556
0.00213729
0.00177611
0.00151994
0.00127776
0.00104436
0.000827411
0.000636877
0.000481769
0.00299267
0.00198316
0.00161169
0.00133809
0.00108886
0.000857569
0.000652244
0.000483686
0.00593745
0.00234488
0.00169676
0.00137926
0.00111907
0.000879395
0.00066435
0.000486386
0.0113119
0.00274577
0.00176204
0.0014055
0.00113728
0.00089236
0.000672011
0.00048951
0.00933981
0.00266396
0.00174909
0.00139673
0.00112969
0.000887208
0.000670669
0.000492463
0.00440321
0.00217357
0.00164406
0.00134614
0.00109417
0.000863729
0.000660498
0.000495114
0.00242179
0.00181486
0.00152005
0.00127407
0.00104393
0.000831841
0.000646822
0.000497713
0.00721373
0.00613737
0.00523354
0.00442852
0.00376865
0.00326549
0.00287291
0.0024798
0.00863402
0.00671303
0.00560412
0.00468028
0.00392024
0.00334377
0.00291313
0.00250567
0.0121333
0.00737997
0.005914
0.00489431
0.00406318
0.00342801
0.00296055
0.00253397
0.0175313
0.00798329
0.00611165
0.00502431
0.00415316
0.00348257
0.00298875
0.00254487
0.0152808
0.00785438
0.00608245
0.00500191
0.00414089
0.00348055
0.0029896
0.00254069
0.010154
0.00710908
0.00581948
0.00484382
0.00404819
0.00343676
0.00297012
0.0025253
0.00767146
0.00636695
0.00542556
0.00460057
0.00391612
0.00338345
0.00295784
0.00252833
0.0103991
0.0093858
0.00863609
0.00795447
0.00717242
0.00604513
0.00446646
0.0028694
0.0117149
0.00981581
0.00880651
0.00803412
0.0072906
0.00628548
0.00478051
0.00311102
0.0148665
0.0104589
0.00908171
0.00821951
0.00747425
0.00652018
0.00503715
0.00329618
0.0193934
0.0110517
0.00929257
0.00836151
0.00759532
0.0066418
0.00515097
0.0033699
0.0173427
0.0109204
0.00929055
0.00836756
0.00758369
0.00659431
0.00507573
0.00330225
0.0131263
0.0103344
0.00917632
0.0083445
0.00754104
0.00646599
0.00488146
0.00313701
0.0111005
0.00991203
0.00915204
0.008464
0.00764439
0.00643107
0.00471693
0.00297775
0.000218897
0.000131875
0.000120771
0.000115512
0.000112008
0.000109118
0.000106822
0.000104841
0.000736604
0.000201954
0.000125946
0.000105502
9.71025e-05
9.04198e-05
8.71628e-05
8.49238e-05
0.00376923
0.000732352
0.000198888
0.000108037
8.98672e-05
8.1088e-05
7.60277e-05
7.10199e-05
0.00699445
0.00118169
0.000242201
0.00010793
8.4103e-05
7.51878e-05
6.84525e-05
6.26665e-05
0.00243349
0.000472147
0.000157544
0.000103471
9.04339e-05
8.39008e-05
7.7968e-05
7.25216e-05
0.000482765
0.000159767
0.000120097
0.000102302
9.58205e-05
9.15343e-05
8.70334e-05
8.33865e-05
0.000196515
0.00012389
0.000112301
0.000107401
0.000105275
0.000103171
0.000101133
9.90165e-05
0.0011397
0.000516724
0.000393893
0.000327423
0.000279789
0.000243296
0.000214612
0.000191478
0.00535388
0.0010482
0.000542457
0.000404853
0.000330638
0.000277418
0.000235992
0.000202048
0.0254075
0.00317147
0.000890128
0.000540782
0.000416376
0.000339191
0.000280609
0.000232683
0.0400284
0.00403831
0.000938907
0.000541314
0.000412674
0.000335007
0.000276579
0.000230419
0.0159603
0.00188604
0.000650255
0.00043778
0.00034777
0.000286815
0.000238427
0.000199437
0.00341862
0.000743143
0.00043198
0.000335713
0.00027895
0.000236906
0.000203775
0.000176775
0.000926517
0.000466043
0.000353182
0.000292153
0.0002501
0.000218699
0.000194272
0.00017464
0.00532516
0.00254131
0.00197134
0.0016482
0.00135789
0.00107704
0.00082075
0.000609681
0.0202086
0.00450963
0.00239025
0.00183911
0.00151453
0.00122054
0.000936495
0.000683036
0.0709321
0.0104458
0.00314359
0.00200467
0.0016005
0.00130655
0.00102587
0.000758601
0.114324
0.0137096
0.0033049
0.00195481
0.00152448
0.00122834
0.000955703
0.000701483
0.0494893
0.00722324
0.0026577
0.00186042
0.00151316
0.00122922
0.000952494
0.000692996
0.0129711
0.00338128
0.00208327
0.00166619
0.00137356
0.00109836
0.000836695
0.000608112
0.00391121
0.00222031
0.00179137
0.00150296
0.00123513
0.000978373
0.000746778
0.000557048
0.013385
0.00818193
0.00655314
0.00546603
0.00460728
0.00394154
0.00341585
0.00290287
0.0370147
0.011854
0.00752637
0.00595779
0.0049561
0.00422747
0.00369709
0.00321957
0.114235
0.0210304
0.0087208
0.00614084
0.00494621
0.00416239
0.00364596
0.00324442
0.198355
0.0279429
0.00907687
0.00597227
0.004686
0.00384954
0.00329549
0.00287586
0.0816225
0.0162958
0.00795622
0.00589725
0.00477898
0.0039958
0.0034622
0.00304132
0.0244172
0.00971311
0.00690431
0.00561354
0.00468591
0.00399119
0.00348389
0.00303152
0.0103625
0.00736267
0.00611734
0.00515207
0.00436472
0.00375386
0.00327349
0.0028032
0.0173958
0.0122971
0.0107961
0.009833
0.00882283
0.00738799
0.00536063
0.00328341
0.0412308
0.0162173
0.0119391
0.0106198
0.00974618
0.00853764
0.00654498
0.00419373
0.121631
0.0257565
0.0133939
0.0111586
0.0104157
0.00955392
0.00777573
0.00536681
0.224058
0.0338301
0.0137696
0.0108551
0.0101086
0.00946617
0.00803485
0.005944
0.0873953
0.0210037
0.0125041
0.0107979
0.0101454
0.00933447
0.00766008
0.00538797
0.0277936
0.0138035
0.0111759
0.010195
0.00945065
0.00835692
0.006498
0.00427126
0.014024
0.0112308
0.0101647
0.00935127
0.00845166
0.00713954
0.00524968
0.00328264
0.000262711
0.000135444
0.000108925
0.000101764
0.000101192
0.000100445
9.87336e-05
9.67747e-05
0.00114957
0.00027776
0.000123106
8.93158e-05
8.1751e-05
7.79784e-05
7.5928e-05
7.47483e-05
0.00464686
0.000783453
0.000175014
8.61895e-05
6.8971e-05
6.13979e-05
5.55835e-05
5.03401e-05
0.0053168
0.000786591
0.000166033
8.91074e-05
7.45561e-05
6.64679e-05
5.93619e-05
5.37144e-05
0.0012626
0.000243607
0.000116628
9.2328e-05
8.38355e-05
7.69967e-05
7.16804e-05
6.72453e-05
0.000213775
0.000112515
0.000105945
9.65131e-05
9.08286e-05
8.58586e-05
8.14777e-05
7.88605e-05
0.000109565
0.000102181
0.000104275
9.98161e-05
9.59098e-05
9.29957e-05
9.06921e-05
8.80188e-05
0.00129335
0.000507839
0.000367233
0.000304086
0.000262557
0.000231094
0.000205679
0.000184213
0.00567782
0.00103304
0.000485081
0.000352434
0.000289166
0.000247244
0.000215727
0.000190114
0.0173649
0.00185958
0.000585206
0.000377962
0.000295855
0.000244114
0.000205519
0.000174903
0.0170698
0.00156015
0.00052828
0.000354652
0.000279051
0.000228247
0.000189978
0.00016
0.00379557
0.000720302
0.00040487
0.000309344
0.000253108
0.000212093
0.00018048
0.000154537
0.000866606
0.000429171
0.000329929
0.000274374
0.000234505
0.000203906
0.000179967
0.000160119
0.000435462
0.000345621
0.000292202
0.000251604
0.000220427
0.000196194
0.000176732
0.000160487
0.00414943
0.0022051
0.00174468
0.00146258
0.00120723
0.00096267
0.00074077
0.000557244
0.013539
0.0034131
0.00198565
0.00155966
0.00128096
0.00102507
0.000784249
0.00057647
0.0357969
0.00514134
0.00208118
0.00149206
0.00120393
0.000962578
0.000735162
0.000533147
0.0405117
0.00479047
0.00193961
0.0013899
0.0011034
0.000866646
0.000652864
0.000467759
0.0101903
0.00275754
0.00180025
0.00145243
0.00119401
0.000951865
0.000721808
0.000519761
0.00319946
0.00204756
0.00169304
0.00142934
0.00117803
0.000934046
0.000709607
0.000521106
0.00216235
0.00182044
0.00156698
0.00131971
0.00107854
0.000853221
0.000655048
0.000493902
0.0101087
0.00715559
0.00592875
0.00500177
0.00424817
0.00366102
0.00319441
0.0027307
0.0212058
0.0089514
0.00640907
0.00522277
0.00437606
0.00374248
0.00326775
0.00281924
0.0473158
0.0112541
0.00644078
0.00499014
0.00412132
0.00351593
0.00310168
0.00273636
0.0549086
0.0108785
0.00609237
0.00469113
0.00384275
0.00326995
0.002908
0.00260931
0.0184218
0.00799169
0.00593156
0.00485972
0.00405668
0.00346751
0.00305603
0.00268848
0.00906547
0.00683602
0.00573535
0.00482978
0.00407438
0.00349417
0.00305894
0.00264649
0.00722944
0.00617987
0.00528439
0.00448183
0.00382167
0.00331638
0.00292089
0.00252424
0.0136572
0.0109124
0.0098295
0.00901956
0.00812069
0.0068179
0.00497291
0.00309394
0.0230883
0.0123822
0.0100696
0.00905598
0.0082162
0.00707872
0.00534395
0.00340391
0.0449805
0.0144615
0.0100608
0.00883678
0.00809942
0.00715437
0.0055694
0.00364683
0.0516518
0.0141372
0.00962842
0.00844907
0.00778361
0.0069507
0.00548814
0.00365342
0.0208853
0.0113056
0.00932915
0.00845672
0.00778134
0.00686288
0.00532741
0.00347758
0.0122934
0.0100632
0.0090593
0.00831911
0.00759145
0.0065657
0.00498839
0.00321687
0.0103962
0.00940135
0.00865457
0.00797354
0.00719364
0.00607061
0.00449238
0.00288423
0.000152135
0.000116102
0.000109882
0.000104537
0.000100961
9.78484e-05
9.47508e-05
9.23113e-05
0.000320139
0.000138285
0.000118325
0.000106184
9.85037e-05
9.1812e-05
8.59351e-05
8.09977e-05
0.00137269
0.000292188
0.000141076
0.000107485
9.58038e-05
8.68251e-05
7.98253e-05
7.34457e-05
0.0057045
0.000949621
0.000218451
0.000113438
9.19849e-05
8.09929e-05
7.22768e-05
6.57432e-05
0.00524623
0.00095532
0.000226006
0.000112758
8.86252e-05
7.89257e-05
7.20428e-05
6.64471e-05
0.00126548
0.000351677
0.000150246
0.000108551
9.66333e-05
9.06888e-05
8.68012e-05
8.29665e-05
0.000282867
0.000153867
0.000124989
0.000115791
0.000111317
0.000108005
0.000105567
0.000103687
0.000553194
0.000376746
0.000306012
0.000258284
0.000223708
0.000197491
0.000176951
0.000160225
0.00156958
0.000535262
0.000379197
0.000306483
0.000256387
0.000218059
0.000187327
0.000162082
0.0080443
0.00114618
0.000552609
0.000408429
0.00032971
0.000271772
0.000225105
0.000186993
0.0343249
0.00309388
0.000871907
0.000553777
0.000430728
0.00034956
0.000287144
0.000237135
0.0304755
0.00362075
0.00101681
0.00061428
0.000465486
0.00037148
0.000300953
0.000245859
0.00862544
0.00160768
0.000701165
0.000481081
0.000376676
0.000306876
0.000254181
0.000212582
0.00142743
0.000547771
0.000415285
0.000346193
0.000295143
0.000255071
0.000222905
0.000196542
0.00237601
0.00187092
0.00160163
0.00134921
0.00110424
0.00087427
0.000671173
0.000506298
0.00525739
0.00230784
0.00178578
0.0014918
0.00123151
0.000979392
0.000742412
0.000537586
0.0254557
0.00427847
0.0021727
0.00167285
0.00137862
0.0011141
0.000855135
0.000615213
0.0991589
0.0106029
0.00289157
0.00185329
0.00147093
0.00118729
0.000921914
0.000674209
0.0757182
0.010704
0.00317439
0.00201372
0.0015999
0.00129956
0.0010144
0.000744678
0.0241432
0.00515869
0.00255208
0.00190895
0.0015561
0.00124749
0.000952326
0.000689064
0.00550152
0.00253369
0.00198088
0.00166404
0.00137381
0.00109
0.000829053
0.000612761
0.00775008
0.00649948
0.00556728
0.00473328
0.00403972
0.00350322
0.00308179
0.00266369
0.0119708
0.00746135
0.00608435
0.00510224
0.00430241
0.0036941
0.00325043
0.0028484
0.040137
0.0107325
0.00675259
0.00533373
0.004376
0.00367375
0.00319442
0.0028092
0.148217
0.0209112
0.00793922
0.00555494
0.00442132
0.00365447
0.00314496
0.00275271
0.107924
0.0197946
0.0083254
0.0058832
0.00473024
0.00397189
0.00347304
0.00308291
0.0377012
0.0119578
0.00747491
0.00587535
0.00487564
0.00415934
0.00364317
0.00317833
0.0133471
0.00812609
0.00650749
0.00542904
0.00457764
0.00391881
0.00339986
0.002894
0.0112984
0.0101699
0.00945187
0.00881091
0.00804388
0.00686576
0.00513353
0.00330484
0.0155095
0.0113067
0.0101718
0.00954436
0.00896589
0.00801726
0.00633533
0.00428721
0.0419467
0.0148188
0.0110024
0.0100145
0.00953833
0.00883799
0.00731973
0.00523958
0.14387
0.0247518
0.0122364
0.0102188
0.00962927
0.00904396
0.00769552
0.00572841
0.104636
0.0233637
0.0127449
0.0107713
0.0100953
0.00928459
0.00759077
0.00528805
0.040085
0.0159972
0.0117859
0.0104937
0.00964827
0.00846852
0.00650976
0.00419705
0.0173499
0.0122565
0.0107524
0.00979896
0.00880083
0.00737884
0.00536463
0.0032975
8.31919e-05
7.57846e-05
7.30813e-05
7.51585e-05
7.9307e-05
8.59729e-05
9.31268e-05
0.000143387
0.00014126
0.000138905
0.000138942
0.000141988
0.000148489
0.000151459
0.000366801
0.000359071
0.000355022
0.0003553
0.00036211
0.00037468
0.000389457
0.00193894
0.00192206
0.00191291
0.00190339
0.00190002
0.00190593
0.00195035
0.0014777
0.00147944
0.00147271
0.00146535
0.0014581
0.00145297
0.00147804
0.000102809
8.14538e-05
6.50623e-05
5.82531e-05
6.81572e-05
8.1065e-05
9.68322e-05
0.000171631
0.000174218
0.000194484
0.000193584
0.000167394
0.000153963
0.000157933
0.000456981
0.000485327
0.00053304
0.000490709
0.000479248
0.00043248
0.000419299
0.00222958
0.00253774
0.00265903
0.00229295
0.00245456
0.00239566
0.00217685
0.00150187
0.00185441
0.00259185
0.00326394
0.00272363
0.00199649
0.00156235
9.49503e-05
7.3571e-05
4.64196e-05
4.96151e-05
6.25195e-05
7.66071e-05
8.52098e-05
0.000165137
0.00016821
0.000149429
0.000135768
0.000132804
0.000142711
0.00014595
0.000422326
0.000419249
0.000375828
0.000324069
0.00036387
0.000380561
0.000374773
0.00210966
0.00217408
0.00215512
0.00209708
0.00210616
0.00204638
0.00197607
0.00148201
0.00152842
0.00159976
0.00161731
0.00151944
0.00148175
0.00147417
8.97929e-05
7.7594e-05
6.76257e-05
6.01579e-05
6.17465e-05
7.86343e-05
0.000101646
0.000145616
0.000140544
0.000155934
0.000197589
0.000202657
0.000179093
0.000174027
0.000385793
0.00038056
0.000419985
0.00046926
0.000518153
0.000483297
0.000455175
0.00209329
0.00226927
0.00225346
0.00218967
0.00251416
0.00250868
0.00222862
0.00166004
0.00212611
0.00274011
0.00317816
0.00259712
0.00187927
0.00151708
8.05565e-05
7.35859e-05
6.45805e-05
5.55952e-05
4.67357e-05
3.85104e-05
3.11668e-05
2.46896e-05
7.35084e-05
6.85603e-05
6.14532e-05
5.28413e-05
4.46522e-05
3.69379e-05
2.99708e-05
2.3773e-05
7.07762e-05
6.63413e-05
6.00253e-05
5.18372e-05
4.39141e-05
3.64104e-05
2.95891e-05
2.3487e-05
7.35924e-05
6.86095e-05
6.16671e-05
5.3884e-05
4.54388e-05
3.70074e-05
2.98227e-05
2.36504e-05
7.7153e-05
7.18337e-05
6.41057e-05
5.50201e-05
4.64607e-05
3.84162e-05
3.11745e-05
2.4743e-05
8.38967e-05
7.7915e-05
6.92048e-05
5.90853e-05
4.96758e-05
4.10616e-05
3.33274e-05
2.6479e-05
9.00881e-05
8.23189e-05
7.27258e-05
6.2628e-05
5.27391e-05
4.36707e-05
3.5548e-05
2.83591e-05
0.000128977
0.000104838
7.98274e-05
5.96777e-05
4.50209e-05
3.45111e-05
2.68685e-05
2.13821e-05
0.000126813
0.000103814
7.93233e-05
5.98627e-05
4.53549e-05
3.48529e-05
2.71605e-05
2.16008e-05
0.00012486
0.000102739
7.87678e-05
5.96751e-05
4.53596e-05
3.49394e-05
2.72651e-05
2.16906e-05
0.000125163
0.000103063
7.94766e-05
6.00221e-05
4.53106e-05
3.48683e-05
2.72954e-05
2.18189e-05
0.000127893
0.000104788
7.99801e-05
6.04414e-05
4.59597e-05
3.54965e-05
2.78238e-05
2.22692e-05
0.000134047
0.000109271
8.27904e-05
6.20991e-05
4.70193e-05
3.62391e-05
2.84182e-05
2.28186e-05
0.000137167
0.000111607
8.43241e-05
6.28148e-05
4.74484e-05
3.65838e-05
2.87668e-05
2.32114e-05
0.000287877
0.000211574
0.000134759
8.39509e-05
5.40445e-05
3.65327e-05
2.61195e-05
2.00715e-05
0.000279486
0.000205829
0.000132625
8.34995e-05
5.42313e-05
3.69492e-05
2.66149e-05
2.05931e-05
0.000275527
0.000203491
0.000131667
8.32417e-05
5.42565e-05
3.70703e-05
2.67588e-05
2.07365e-05
0.000276119
0.000203714
0.000131354
8.3046e-05
5.42073e-05
3.70948e-05
2.68436e-05
2.08762e-05
0.000285832
0.000209303
0.000133041
8.32886e-05
5.40657e-05
3.69155e-05
2.66976e-05
2.07747e-05
0.000302621
0.000218529
0.000136459
8.43704e-05
5.42932e-05
3.68578e-05
2.65743e-05
2.06701e-05
0.000320702
0.000229603
0.000141557
8.65329e-05
5.51133e-05
3.70513e-05
2.64645e-05
2.04077e-05
0.00137396
0.000625935
0.000248549
0.000112537
5.91105e-05
3.52396e-05
2.35398e-05
1.77407e-05
0.00135229
0.000616366
0.000245591
0.00011177
5.90997e-05
3.55247e-05
2.397e-05
1.82691e-05
0.00133615
0.000608438
0.000243089
0.000111062
5.8947e-05
3.55523e-05
2.4061e-05
1.83865e-05
0.00132282
0.000601197
0.000240647
0.000110289
5.86769e-05
3.54637e-05
2.40637e-05
1.84481e-05
0.00131721
0.000597684
0.000239507
0.000109845
5.8335e-05
3.51305e-05
2.37323e-05
1.81196e-05
0.00132267
0.00060081
0.000241174
0.000110502
5.84001e-05
3.49234e-05
2.34154e-05
1.77575e-05
0.00136621
0.000625724
0.000252198
0.000115348
6.05385e-05
3.57577e-05
2.35454e-05
1.74524e-05
0.00114099
0.000674007
0.000278399
0.000119176
5.72111e-05
3.13648e-05
1.98284e-05
1.46889e-05
0.00112872
0.000668152
0.000277157
0.000119046
5.73839e-05
3.16394e-05
2.01599e-05
1.50788e-05
0.00111395
0.000660573
0.000274756
0.000118253
5.71229e-05
3.15752e-05
2.01785e-05
1.51373e-05
0.00110435
0.000655588
0.000273047
0.000117625
5.68676e-05
3.14699e-05
2.01449e-05
1.51423e-05
0.00110502
0.000655994
0.000272684
0.000117191
5.64577e-05
3.1093e-05
1.9788e-05
1.47804e-05
0.00111693
0.000662343
0.000274276
0.000117483
5.63436e-05
3.08373e-05
1.94682e-05
1.44043e-05
0.00115802
0.000684401
0.000282506
0.000121119
5.81471e-05
3.17373e-05
1.98225e-05
1.43564e-05
0.000100164
9.30453e-05
8.23909e-05
7.0455e-05
5.89962e-05
4.86335e-05
3.95593e-05
3.17255e-05
7.82985e-05
7.26779e-05
6.79977e-05
6.1368e-05
5.33032e-05
4.50771e-05
3.71824e-05
3.01394e-05
6.09615e-05
5.46342e-05
4.92366e-05
4.39025e-05
3.86362e-05
3.35146e-05
2.88311e-05
2.41081e-05
5.46578e-05
4.79236e-05
4.19283e-05
3.61728e-05
3.10135e-05
2.64248e-05
2.25191e-05
1.8906e-05
6.37277e-05
5.62503e-05
5.01872e-05
4.40083e-05
3.81607e-05
3.27621e-05
2.78483e-05
2.3158e-05
7.85939e-05
7.24174e-05
6.6526e-05
5.86045e-05
4.99118e-05
4.15123e-05
3.38987e-05
2.73456e-05
9.39942e-05
8.68378e-05
7.71251e-05
6.61661e-05
5.54198e-05
4.56361e-05
3.69625e-05
2.94811e-05
0.000152677
0.000121412
8.87432e-05
6.35841e-05
4.62939e-05
3.46819e-05
2.67506e-05
2.13277e-05
0.000151005
0.000121927
9.42328e-05
7.07313e-05
5.30057e-05
4.04266e-05
3.16747e-05
2.5654e-05
0.00016228
0.000124804
9.41309e-05
7.08146e-05
5.33301e-05
4.06065e-05
3.09486e-05
2.3838e-05
0.000162238
0.000125149
9.52884e-05
7.26571e-05
5.58344e-05
4.31254e-05
3.34454e-05
2.61507e-05
0.0001407
0.000108201
8.09561e-05
6.03987e-05
4.51886e-05
3.41011e-05
2.61063e-05
2.05151e-05
0.000134586
0.000109008
8.33899e-05
6.20249e-05
4.59419e-05
3.46271e-05
2.70314e-05
2.20598e-05
0.000142013
0.000115332
8.60012e-05
6.25689e-05
4.59758e-05
3.45794e-05
2.67196e-05
2.1336e-05
0.000362712
0.000254207
0.000152719
9.03589e-05
5.57238e-05
3.63456e-05
2.51736e-05
1.87126e-05
0.000355146
0.000249939
0.000170151
0.000112115
7.59156e-05
5.39699e-05
4.00896e-05
3.08999e-05
0.000370899
0.000227631
0.000148721
0.000103019
7.38974e-05
5.41808e-05
4.02901e-05
3.04575e-05
0.000338948
0.000204337
0.00013105
8.97315e-05
6.41006e-05
4.70222e-05
3.51379e-05
2.67369e-05
0.000330468
0.00019718
0.00012427
8.2803e-05
5.73129e-05
4.09097e-05
3.0156e-05
2.30444e-05
0.000318138
0.000221081
0.000150975
9.91346e-05
6.65493e-05
4.68656e-05
3.45576e-05
2.63559e-05
0.000331973
0.000241082
0.000149048
8.9963e-05
5.62079e-05
3.69543e-05
2.57311e-05
1.92343e-05
0.00154339
0.000695875
0.000274004
0.000121725
6.23469e-05
3.60718e-05
2.31857e-05
1.65681e-05
0.0018201
0.000878011
0.00036997
0.000175068
9.71616e-05
6.14698e-05
4.25814e-05
3.14759e-05
0.00201528
0.00107871
0.000515338
0.000268143
0.000159918
0.000107268
7.73837e-05
5.7648e-05
0.00167863
0.000854892
0.000387731
0.00018767
0.000101469
6.10997e-05
4.01976e-05
2.84609e-05
0.00183726
0.000961374
0.000444843
0.000223085
0.000127289
8.06979e-05
5.42687e-05
3.77927e-05
0.00173265
0.000848369
0.000361425
0.000172645
9.66421e-05
6.14932e-05
4.22222e-05
3.02166e-05
0.00152941
0.000699499
0.000279205
0.000125913
6.54261e-05
3.82592e-05
2.47143e-05
1.76798e-05
0.00117026
0.000678572
0.000275704
0.000117347
5.62811e-05
3.08521e-05
1.9325e-05
1.38584e-05
0.00136653
0.000805372
0.00034842
0.000162097
8.70161e-05
5.36917e-05
3.70057e-05
2.77813e-05
0.00175241
0.00107504
0.000517764
0.000272577
0.000165785
0.000114219
8.58291e-05
6.82881e-05
0.00215723
0.00137143
0.000721072
0.00040169
0.00023974
0.000147378
8.9142e-05
5.26349e-05
0.00184474
0.00114961
0.000569241
0.000306569
0.000186733
0.000124398
8.61775e-05
5.98523e-05
0.00146006
0.000872222
0.000388058
0.000186286
0.000102841
6.42918e-05
4.35847e-05
3.10999e-05
0.00121136
0.000709343
0.000294123
0.000128189
6.31099e-05
3.53496e-05
2.23384e-05
1.59102e-05
9.3127e-05
8.71426e-05
7.72068e-05
6.58603e-05
5.48844e-05
4.50393e-05
3.64638e-05
2.90214e-05
7.23978e-05
6.96715e-05
6.70469e-05
6.09337e-05
5.24258e-05
4.35642e-05
3.57628e-05
2.88574e-05
4.38458e-05
4.02737e-05
3.69481e-05
3.30809e-05
2.94923e-05
2.56916e-05
2.20485e-05
1.85796e-05
4.65264e-05
4.04852e-05
3.55697e-05
3.07016e-05
2.6564e-05
2.2644e-05
1.90486e-05
1.58137e-05
5.87865e-05
5.30364e-05
4.80343e-05
4.37046e-05
3.83144e-05
3.2375e-05
2.66147e-05
2.15331e-05
7.49166e-05
7.13896e-05
6.47168e-05
5.73069e-05
4.83591e-05
3.96891e-05
3.21284e-05
2.56776e-05
8.23159e-05
7.5805e-05
6.74623e-05
5.79608e-05
4.8545e-05
3.99116e-05
3.2274e-05
2.55926e-05
0.000146922
0.000117144
8.63447e-05
6.25507e-05
4.60459e-05
3.48324e-05
2.70581e-05
2.16475e-05
0.00014999
0.000124723
9.61869e-05
7.1798e-05
5.36628e-05
4.10692e-05
3.20863e-05
2.55623e-05
0.000128985
0.000103457
8.06139e-05
6.31607e-05
4.9522e-05
3.92839e-05
3.1221e-05
2.471e-05
0.0001161
9.00039e-05
6.69284e-05
4.99347e-05
3.71911e-05
2.80869e-05
2.14516e-05
1.66295e-05
0.000115399
9.2316e-05
7.19855e-05
5.54989e-05
4.2748e-05
3.32007e-05
2.6131e-05
2.08479e-05
0.000128336
0.000105065
8.1298e-05
6.07811e-05
4.56943e-05
3.48735e-05
2.71896e-05
2.16715e-05
0.000131945
0.000107879
8.18548e-05
6.0807e-05
4.54785e-05
3.45933e-05
2.68256e-05
2.13274e-05
0.00033573
0.000240358
0.000147478
8.88782e-05
5.56456e-05
3.6758e-05
2.5768e-05
1.94239e-05
0.000319496
0.000236308
0.000156529
0.000100983
6.68581e-05
4.61271e-05
3.3271e-05
2.5276e-05
0.000276824
0.000192741
0.000146271
0.000109212
8.14085e-05
6.20279e-05
4.86375e-05
3.9158e-05
0.000233919
0.000152834
0.000106534
7.83277e-05
5.86016e-05
4.30521e-05
3.06833e-05
2.12188e-05
0.000267774
0.000184651
0.00013426
9.29546e-05
6.47495e-05
4.6681e-05
3.5142e-05
2.78642e-05
0.00029183
0.000213688
0.000139913
8.88607e-05
5.78872e-05
3.94083e-05
2.82219e-05
2.15294e-05
0.000293445
0.000215821
0.000137322
8.52311e-05
5.45921e-05
3.67073e-05
2.61057e-05
1.9945e-05
0.00147147
0.0006635
0.000261276
0.000116559
5.99495e-05
3.48327e-05
2.25749e-05
1.64305e-05
0.00153146
0.000705083
0.000283213
0.00012912
6.8702e-05
4.16429e-05
2.80996e-05
2.10134e-05
0.00155087
0.000750486
0.000314816
0.000149151
8.44163e-05
5.55892e-05
4.08548e-05
3.26541e-05
0.00154891
0.000784568
0.000357032
0.000185527
0.000114397
8.18992e-05
6.47482e-05
5.36724e-05
0.00151345
0.000727541
0.000299023
0.000139263
7.74107e-05
5.00759e-05
3.6412e-05
2.91227e-05
0.00144958
0.000669102
0.000266876
0.000120889
6.40405e-05
3.8761e-05
2.62543e-05
1.98451e-05
0.00140139
0.000638944
0.000253125
0.000114127
5.97275e-05
3.54954e-05
2.36147e-05
1.76811e-05
0.0011509
0.000673933
0.000275719
0.00011713
5.56339e-05
3.0022e-05
1.8544e-05
1.32989e-05
0.00116022
0.00068002
0.000280494
0.000120565
5.8422e-05
3.24615e-05
2.07681e-05
1.54247e-05
0.00119721
0.000705249
0.000295956
0.000131156
6.68611e-05
3.98195e-05
2.75708e-05
2.20773e-05
0.00120975
0.000717101
0.000307226
0.0001431
8.02358e-05
5.51627e-05
4.53676e-05
4.30325e-05
0.0011567
0.000679362
0.00028216
0.000124233
6.34055e-05
3.82469e-05
2.71461e-05
2.2425e-05
0.00113687
0.00066861
0.00027578
0.000118705
5.78369e-05
3.24759e-05
2.11015e-05
1.59694e-05
0.00114081
0.000672692
0.000277252
0.000118611
5.6974e-05
3.12761e-05
1.97833e-05
1.46261e-05
8.6527e-05
8.0074e-05
7.16654e-05
6.21003e-05
5.25052e-05
4.36177e-05
3.57306e-05
2.87435e-05
7.4251e-05
6.66005e-05
5.95417e-05
5.25301e-05
4.51473e-05
3.8088e-05
3.17861e-05
2.60901e-05
6.27182e-05
5.49039e-05
4.84462e-05
4.24306e-05
3.67287e-05
3.13785e-05
2.64715e-05
2.20552e-05
5.54018e-05
4.75304e-05
4.09818e-05
3.53749e-05
3.03087e-05
2.58197e-05
2.171e-05
1.8315e-05
5.79957e-05
5.22e-05
4.70049e-05
4.20489e-05
3.70253e-05
3.2241e-05
2.768e-05
2.33715e-05
7.48235e-05
6.8531e-05
6.26444e-05
5.68775e-05
4.9754e-05
4.2534e-05
3.58654e-05
2.97831e-05
9.89882e-05
9.16826e-05
8.08465e-05
6.88458e-05
5.74829e-05
4.74203e-05
3.86988e-05
3.1114e-05
0.000132129
0.000109372
8.37378e-05
6.26655e-05
4.72558e-05
3.63629e-05
2.86353e-05
2.31836e-05
0.000122109
9.67718e-05
7.39359e-05
5.59956e-05
4.30139e-05
3.4035e-05
2.75664e-05
2.25961e-05
0.000130285
9.86761e-05
7.33644e-05
5.47147e-05
4.13945e-05
3.20288e-05
2.51318e-05
1.97154e-05
0.000164368
0.000125588
9.48415e-05
7.15569e-05
5.44008e-05
4.17063e-05
3.22122e-05
2.49846e-05
0.000167034
0.000126685
9.45035e-05
7.05005e-05
5.31604e-05
4.05046e-05
3.11359e-05
2.40408e-05
0.0001515
0.000117819
8.97551e-05
6.72693e-05
5.12246e-05
4.02753e-05
3.24899e-05
2.64582e-05
0.000153154
0.000120452
8.73281e-05
6.22217e-05
4.52594e-05
3.39992e-05
2.63607e-05
2.11287e-05
0.00030719
0.000229758
0.000147355
9.19803e-05
5.91971e-05
3.99525e-05
2.84648e-05
2.16956e-05
0.00027877
0.000188186
0.000136395
9.44977e-05
6.60376e-05
4.753e-05
3.51797e-05
2.69089e-05
0.000287897
0.000169708
0.000106756
7.16721e-05
5.04e-05
3.6585e-05
2.71106e-05
2.05117e-05
0.000323948
0.000195121
0.00012517
8.57107e-05
6.12232e-05
4.48692e-05
3.34474e-05
2.53544e-05
0.000356773
0.000216397
0.000140459
9.73336e-05
7.05925e-05
5.30146e-05
4.1093e-05
3.23629e-05
0.000347265
0.000238235
0.000166061
0.000111862
7.69705e-05
5.48087e-05
4.00084e-05
3.00347e-05
0.000357076
0.000251346
0.000151852
9.02429e-05
5.58517e-05
3.65081e-05
2.52965e-05
1.87974e-05
0.00149689
0.000704861
0.000290891
0.000135436
7.24184e-05
4.33474e-05
2.85074e-05
2.06562e-05
0.00166433
0.00084136
0.000369788
0.000181018
0.000102427
6.45636e-05
4.35693e-05
3.10777e-05
0.00167707
0.000873278
0.000404109
0.00020296
0.000115601
7.32103e-05
4.97737e-05
3.56142e-05
0.00160086
0.000814863
0.000370787
0.000180964
9.86856e-05
5.9679e-05
3.91227e-05
2.73639e-05
0.00189755
0.00100895
0.000480756
0.000250082
0.000148957
9.97864e-05
7.22074e-05
5.4842e-05
0.00180179
0.000875563
0.000371251
0.000176387
9.74003e-05
6.03071e-05
4.04206e-05
2.90221e-05
0.00154782
0.000700363
0.000276815
0.000123405
6.33368e-05
3.65995e-05
2.34201e-05
1.66516e-05
0.00128292
0.00075852
0.00031987
0.000141793
7.08122e-05
4.00164e-05
2.54006e-05
1.81569e-05
0.0015497
0.000934261
0.000420744
0.00020265
0.000110417
6.71607e-05
4.44015e-05
3.16114e-05
0.00187394
0.00116281
0.000568539
0.000298035