/*--------------------------------*- C++ -*----------------------------------*\
| =========                 |                                                 |
| \\      /  F ield         | OpenFOAM: The Open Source CFD Toolbox           |
|  \\    /   O peration     | Version:  plus.master.MPPICInterFoam            |
|   \\  /    A nd           | Web:      www.OpenFOAM.com                      |
|    \\/     M anipulation  |                                                 |
\*---------------------------------------------------------------------------*/
FoamFile
{
    version     2.0;
    format      ascii;
    class       volScalarField;
    location    "2.2";
    object      nut;
}
// * * * * * * * * * * * * * * * * * * * * * * * * * * * * * * * * * * * * * //

dimensions      [0 2 -1 0 0 0 0];

internalField   nonuniform List<scalar> 
11821
(
6.53962e-06
3.78637e-05
5.62591e-05
6.69313e-05
7.31938e-05
7.63863e-05
7.70709e-05
7.5397e-05
6.53854e-06
3.78526e-05
5.62474e-05
6.69219e-05
7.31868e-05
7.6381e-05
7.70662e-05
7.53913e-05
6.53821e-06
3.78459e-05
5.62425e-05
6.692e-05
7.31889e-05
7.63877e-05
7.70781e-05
7.54089e-05
6.53797e-06
3.7844e-05
5.62391e-05
6.69157e-05
7.31837e-05
7.63815e-05
7.70707e-05
7.54006e-05
6.53806e-06
3.78482e-05
5.62421e-05
6.69176e-05
7.31841e-05
7.63802e-05
7.70672e-05
7.53941e-05
6.53858e-06
3.78565e-05
5.62504e-05
6.69247e-05
7.31906e-05
7.63869e-05
7.70751e-05
7.54043e-05
6.53941e-06
3.78658e-05
5.62591e-05
6.69298e-05
7.31915e-05
7.63835e-05
7.70674e-05
7.53923e-05
6.53835e-06
3.786e-05
5.62547e-05
6.69281e-05
7.31922e-05
7.63864e-05
7.70721e-05
7.53985e-05
6.53767e-06
3.78496e-05
5.62449e-05
6.69211e-05
7.31884e-05
7.63858e-05
7.70748e-05
7.54046e-05
6.53742e-06
3.78428e-05
5.62379e-05
6.69151e-05
7.31834e-05
7.63811e-05
7.70698e-05
7.53981e-05
6.53733e-06
3.78423e-05
5.62373e-05
6.6915e-05
7.31841e-05
7.63827e-05
7.70723e-05
7.54017e-05
6.53726e-06
3.78451e-05
5.62395e-05
6.69166e-05
7.31853e-05
7.6384e-05
7.70742e-05
7.54048e-05
6.53744e-06
3.78529e-05
5.62457e-05
6.69202e-05
7.31864e-05
7.63827e-05
7.70704e-05
7.53982e-05
6.53818e-06
3.78621e-05
5.6255e-05
6.69273e-05
7.31913e-05
7.63859e-05
7.70724e-05
7.54e-05
6.53754e-06
3.78575e-05
5.62516e-05
6.69255e-05
7.31904e-05
7.63854e-05
7.70721e-05
7.53994e-05
6.53716e-06
3.78483e-05
5.62428e-05
6.69188e-05
7.31859e-05
7.63828e-05
7.7071e-05
7.53992e-05
6.53698e-06
3.78431e-05
5.62379e-05
6.69152e-05
7.31839e-05
7.63825e-05
7.70725e-05
7.54025e-05
6.53684e-06
3.78417e-05
5.6236e-05
6.69133e-05
7.31823e-05
7.63813e-05
7.70715e-05
7.54018e-05
6.5368e-06
3.78443e-05
5.62378e-05
6.69144e-05
7.31828e-05
7.63812e-05
7.70709e-05
7.54005e-05
6.53688e-06
3.78512e-05
5.62438e-05
6.69188e-05
7.31858e-05
7.63832e-05
7.70721e-05
7.54014e-05
6.53731e-06
3.78592e-05
5.62512e-05
6.6924e-05
7.31887e-05
7.63839e-05
7.70708e-05
7.53984e-05
6.53713e-06
3.7856e-05
5.62498e-05
6.6924e-05
7.31893e-05
7.63848e-05
7.70718e-05
7.53994e-05
6.5369e-06
3.78487e-05
5.62428e-05
6.69187e-05
7.31859e-05
7.63831e-05
7.70718e-05
7.54008e-05
6.53673e-06
3.78441e-05
5.62383e-05
6.69149e-05
7.3183e-05
7.63811e-05
7.70705e-05
7.54001e-05
6.53662e-06
3.7843e-05
5.62368e-05
6.69136e-05
7.3182e-05
7.63805e-05
7.70704e-05
7.54004e-05
6.53656e-06
3.7845e-05
5.62382e-05
6.69144e-05
7.31825e-05
7.63809e-05
7.70707e-05
7.54008e-05
6.53659e-06
3.78503e-05
5.62427e-05
6.69175e-05
7.31844e-05
7.63817e-05
7.70706e-05
7.53998e-05
6.53683e-06
3.78577e-05
5.62494e-05
6.69225e-05
7.31876e-05
7.63834e-05
7.7071e-05
7.53991e-05
6.53694e-06
3.78553e-05
5.6249e-05
6.69232e-05
7.31885e-05
7.63841e-05
7.70714e-05
7.53992e-05
6.53675e-06
3.78495e-05
5.62434e-05
6.69189e-05
7.31856e-05
7.63825e-05
7.70709e-05
7.53998e-05
6.53662e-06
3.78458e-05
5.62398e-05
6.6916e-05
7.31836e-05
7.63814e-05
7.70706e-05
7.54002e-05
6.5365e-06
3.78447e-05
5.62383e-05
6.69145e-05
7.31824e-05
7.63805e-05
7.70701e-05
7.54e-05
6.53645e-06
3.78463e-05
5.62393e-05
6.6915e-05
7.31825e-05
7.63804e-05
7.70698e-05
7.53997e-05
6.53646e-06
3.78506e-05
5.62429e-05
6.69176e-05
7.31842e-05
7.63813e-05
7.70701e-05
7.53994e-05
6.53656e-06
3.78569e-05
5.62485e-05
6.69216e-05
7.31868e-05
7.63827e-05
7.70704e-05
7.53987e-05
6.5368e-06
3.78553e-05
5.62487e-05
6.69228e-05
7.3188e-05
7.63836e-05
7.70709e-05
7.53988e-05
6.53664e-06
3.78507e-05
5.62443e-05
6.69194e-05
7.31857e-05
7.63824e-05
7.70707e-05
7.53995e-05
6.53653e-06
3.78477e-05
5.62414e-05
6.6917e-05
7.31841e-05
7.63814e-05
7.70703e-05
7.53997e-05
6.53644e-06
3.78468e-05
5.62402e-05
6.69159e-05
7.31832e-05
7.63808e-05
7.707e-05
7.53997e-05
6.53638e-06
3.78481e-05
5.6241e-05
6.69162e-05
7.31833e-05
7.63807e-05
7.70699e-05
7.53995e-05
6.53639e-06
3.78515e-05
5.62438e-05
6.69182e-05
7.31845e-05
7.63813e-05
7.707e-05
7.53991e-05
6.53645e-06
3.78566e-05
5.62482e-05
6.69214e-05
7.31866e-05
7.63825e-05
7.70703e-05
7.53987e-05
6.53667e-06
3.7856e-05
5.62491e-05
6.69229e-05
7.3188e-05
7.63834e-05
7.70707e-05
7.53987e-05
6.53654e-06
3.78523e-05
5.62455e-05
6.69201e-05
7.3186e-05
7.63823e-05
7.70704e-05
7.53991e-05
6.53645e-06
3.785e-05
5.62432e-05
6.69182e-05
7.31848e-05
7.63817e-05
7.70703e-05
7.53995e-05
6.53638e-06
3.78493e-05
5.62424e-05
6.69174e-05
7.31842e-05
7.63813e-05
7.70702e-05
7.53996e-05
6.53635e-06
3.78503e-05
5.6243e-05
6.69178e-05
7.31844e-05
7.63814e-05
7.70702e-05
7.53996e-05
6.53635e-06
3.7853e-05
5.62453e-05
6.69194e-05
7.31853e-05
7.63819e-05
7.70703e-05
7.53993e-05
6.53637e-06
3.78569e-05
5.62486e-05
6.69218e-05
7.31869e-05
7.63826e-05
7.70704e-05
7.53989e-05
6.53659e-06
3.78573e-05
5.62502e-05
6.69237e-05
7.31886e-05
7.63839e-05
7.70711e-05
7.5399e-05
6.53647e-06
3.78544e-05
5.62473e-05
6.69213e-05
7.31868e-05
7.63828e-05
7.70706e-05
7.53991e-05
6.53641e-06
3.78526e-05
5.62454e-05
6.69198e-05
7.31858e-05
7.63822e-05
7.70705e-05
7.53993e-05
6.53636e-06
3.78521e-05
5.62448e-05
6.69193e-05
7.31854e-05
7.63821e-05
7.70705e-05
7.53995e-05
6.53634e-06
3.78528e-05
5.62454e-05
6.69197e-05
7.31857e-05
7.63823e-05
7.70707e-05
7.53997e-05
6.53634e-06
3.78548e-05
5.62471e-05
6.69208e-05
7.31865e-05
7.63827e-05
7.70708e-05
7.53996e-05
6.53634e-06
3.78579e-05
5.62496e-05
6.69226e-05
7.31876e-05
7.63832e-05
7.70708e-05
7.53992e-05
6.53656e-06
3.78589e-05
5.62517e-05
6.69249e-05
7.31895e-05
7.63846e-05
7.70716e-05
7.53992e-05
6.53647e-06
3.78565e-05
5.62493e-05
6.69229e-05
7.3188e-05
7.63836e-05
7.70711e-05
7.53992e-05
6.53642e-06
3.78551e-05
5.62478e-05
6.69217e-05
7.31871e-05
7.6383e-05
7.70708e-05
7.53992e-05
6.53638e-06
3.78547e-05
5.62473e-05
6.69212e-05
7.31868e-05
7.63829e-05
7.70708e-05
7.53993e-05
6.53636e-06
3.78552e-05
5.62477e-05
6.69215e-05
7.3187e-05
7.63831e-05
7.7071e-05
7.53995e-05
6.53635e-06
3.78567e-05
5.62489e-05
6.69224e-05
7.31876e-05
7.63834e-05
7.70711e-05
7.53995e-05
6.53634e-06
3.7859e-05
5.62509e-05
6.69238e-05
7.31885e-05
7.63839e-05
7.70712e-05
7.53993e-05
6.53657e-06
3.78603e-05
5.62532e-05
6.69262e-05
7.31905e-05
7.63852e-05
7.70718e-05
7.53992e-05
6.5365e-06
3.78584e-05
5.62512e-05
6.69245e-05
7.31893e-05
7.63844e-05
7.70715e-05
7.53992e-05
6.53646e-06
3.78574e-05
5.62501e-05
6.69236e-05
7.31885e-05
7.63839e-05
7.70711e-05
7.5399e-05
6.53643e-06
3.78571e-05
5.62497e-05
6.69232e-05
7.31882e-05
7.63837e-05
7.7071e-05
7.5399e-05
6.5364e-06
3.78574e-05
5.62499e-05
6.69233e-05
7.31882e-05
7.63837e-05
7.7071e-05
7.5399e-05
6.53638e-06
3.78585e-05
5.62507e-05
6.69239e-05
7.31886e-05
7.6384e-05
7.70712e-05
7.53991e-05
6.53636e-06
3.78603e-05
5.62523e-05
6.69249e-05
7.31893e-05
7.63844e-05
7.70713e-05
7.53991e-05
6.5366e-06
3.78616e-05
5.62545e-05
6.69273e-05
7.31912e-05
7.63856e-05
7.70718e-05
7.53988e-05
6.53653e-06
3.78601e-05
5.6253e-05
6.6926e-05
7.31904e-05
7.63851e-05
7.70716e-05
7.53989e-05
6.53651e-06
3.78594e-05
5.62522e-05
6.69253e-05
7.31898e-05
7.63847e-05
7.70714e-05
7.53988e-05
6.53649e-06
3.78593e-05
5.62519e-05
6.6925e-05
7.31895e-05
7.63844e-05
7.70711e-05
7.53986e-05
6.53645e-06
3.78595e-05
5.6252e-05
6.6925e-05
7.31894e-05
7.63843e-05
7.70711e-05
7.53985e-05
6.53642e-06
3.78602e-05
5.62525e-05
6.69253e-05
7.31896e-05
7.63844e-05
7.70711e-05
7.53986e-05
6.5364e-06
3.78615e-05
5.62536e-05
6.69261e-05
7.31902e-05
7.63848e-05
7.70713e-05
7.53986e-05
6.53662e-06
3.78627e-05
5.62557e-05
6.69283e-05
7.31919e-05
7.6386e-05
7.70719e-05
7.53986e-05
6.53657e-06
3.78616e-05
5.62546e-05
6.69274e-05
7.31913e-05
7.63856e-05
7.70718e-05
7.53988e-05
6.53657e-06
3.78612e-05
5.62541e-05
6.6927e-05
7.3191e-05
7.63854e-05
7.70716e-05
7.53986e-05
6.53655e-06
3.78612e-05
5.6254e-05
6.69267e-05
7.31907e-05
7.63851e-05
7.70714e-05
7.53984e-05
6.53651e-06
3.78614e-05
5.62539e-05
6.69266e-05
7.31905e-05
7.6385e-05
7.70713e-05
7.53983e-05
6.53647e-06
3.78618e-05
5.62542e-05
6.69267e-05
7.31906e-05
7.6385e-05
7.70713e-05
7.53984e-05
6.53645e-06
3.78628e-05
5.6255e-05
6.69273e-05
7.3191e-05
7.63852e-05
7.70714e-05
7.53985e-05
6.53665e-06
3.78637e-05
5.62568e-05
6.69293e-05
7.31927e-05
7.63865e-05
7.70723e-05
7.53989e-05
6.53662e-06
3.78629e-05
5.6256e-05
6.69286e-05
7.31923e-05
7.63863e-05
7.70722e-05
7.5399e-05
6.53662e-06
3.78627e-05
5.62558e-05
6.69284e-05
7.31921e-05
7.63861e-05
7.70721e-05
7.53989e-05
6.53661e-06
3.78628e-05
5.62557e-05
6.69282e-05
7.31919e-05
7.63859e-05
7.70719e-05
7.53986e-05
6.53657e-06
3.78629e-05
5.62556e-05
6.6928e-05
7.31917e-05
7.63857e-05
7.70717e-05
7.53986e-05
6.53652e-06
3.78631e-05
5.62556e-05
6.6928e-05
7.31916e-05
7.63857e-05
7.70718e-05
7.53987e-05
6.53649e-06
3.78638e-05
5.62562e-05
6.69283e-05
7.31918e-05
7.63859e-05
7.70719e-05
7.53988e-05
6.53667e-06
3.78644e-05
5.62577e-05
6.69301e-05
7.31933e-05
7.63869e-05
7.70724e-05
7.53989e-05
6.53665e-06
3.78639e-05
5.62571e-05
6.69295e-05
7.3193e-05
7.63869e-05
7.70727e-05
7.53994e-05
6.53666e-06
3.78639e-05
5.6257e-05
6.69295e-05
7.31929e-05
7.63868e-05
7.70726e-05
7.53993e-05
6.53665e-06
3.78641e-05
5.6257e-05
6.69294e-05
7.31928e-05
7.63867e-05
7.70725e-05
7.53992e-05
6.53661e-06
3.7864e-05
5.62568e-05
6.69291e-05
7.31925e-05
7.63865e-05
7.70723e-05
7.53991e-05
6.53655e-06
3.7864e-05
5.62567e-05
6.69289e-05
7.31924e-05
7.63864e-05
7.70725e-05
7.53994e-05
6.53652e-06
3.78645e-05
5.6257e-05
6.69291e-05
7.31925e-05
7.63865e-05
7.70725e-05
7.53994e-05
6.5424e-06
3.78957e-05
5.62932e-05
6.6957e-05
7.32087e-05
7.63912e-05
7.70669e-05
7.53856e-05
6.54296e-06
3.78978e-05
5.62943e-05
6.69551e-05
7.32038e-05
7.63846e-05
7.70569e-05
7.53727e-05
6.54244e-06
3.7888e-05
5.62774e-05
6.69289e-05
7.31804e-05
6.54486e-06
3.79017e-05
6.5457e-06
6.54071e-06
3.78882e-05
5.62847e-05
6.69509e-05
7.32059e-05
7.63917e-05
7.70704e-05
7.53914e-05
6.54109e-06
3.78916e-05
5.62892e-05
6.69549e-05
7.32086e-05
7.63932e-05
7.70714e-05
7.53924e-05
6.54099e-06
3.78908e-05
5.62873e-05
6.69471e-05
7.31906e-05
7.63723e-05
7.70497e-05
7.53712e-05
6.54148e-06
3.78921e-05
5.6289e-05
6.69534e-05
7.3205e-05
7.63876e-05
7.7064e-05
7.53834e-05
6.54129e-06
3.78874e-05
5.62869e-05
6.69536e-05
7.32078e-05
7.63923e-05
7.70697e-05
7.53896e-05
6.541e-06
3.78877e-05
5.62858e-05
6.69528e-05
7.32079e-05
7.63934e-05
7.70721e-05
7.53936e-05
6.54089e-06
3.78865e-05
5.62841e-05
6.69506e-05
7.32049e-05
7.63894e-05
7.70668e-05
7.53869e-05
6.5395e-06
3.78823e-05
5.62776e-05
6.6945e-05
7.32019e-05
7.63895e-05
7.70699e-05
7.53921e-05
6.53965e-06
3.78839e-05
5.62798e-05
6.69473e-05
7.32038e-05
7.63904e-05
7.70696e-05
7.53904e-05
6.5395e-06
3.78839e-05
5.62818e-05
6.69504e-05
7.3206e-05
7.63916e-05
7.70711e-05
7.53937e-05
6.5401e-06
3.78857e-05
5.62823e-05
6.69493e-05
7.32048e-05
7.63904e-05
7.70688e-05
7.53895e-05
6.53959e-06
3.78825e-05
5.62791e-05
6.6947e-05
7.32035e-05
7.63903e-05
7.70697e-05
7.53912e-05
6.53965e-06
3.7882e-05
5.62787e-05
6.69466e-05
7.32031e-05
7.63897e-05
7.70688e-05
7.53895e-05
6.53983e-06
3.78826e-05
5.62793e-05
6.69473e-05
7.3204e-05
7.63909e-05
7.70705e-05
7.53921e-05
6.53872e-06
3.78786e-05
5.62731e-05
6.69414e-05
7.31997e-05
7.63887e-05
7.70703e-05
7.53936e-05
6.53882e-06
3.78795e-05
5.62742e-05
6.69423e-05
7.32003e-05
7.63888e-05
7.70698e-05
7.53926e-05
6.53872e-06
3.78785e-05
5.6274e-05
6.69428e-05
7.32009e-05
7.63891e-05
7.70697e-05
7.53921e-05
6.53915e-06
3.7881e-05
5.62764e-05
6.69445e-05
7.32019e-05
7.63894e-05
7.70695e-05
7.53912e-05
6.53889e-06
3.78788e-05
5.62744e-05
6.6943e-05
7.32009e-05
7.63892e-05
7.707e-05
7.53925e-05
6.53892e-06
3.78785e-05
5.62742e-05
6.6943e-05
7.32011e-05
7.63894e-05
7.70704e-05
7.53932e-05
6.53901e-06
3.78787e-05
5.62743e-05
6.6943e-05
7.32009e-05
7.63891e-05
7.70698e-05
7.53922e-05
6.5382e-06
3.7876e-05
5.627e-05
6.69388e-05
7.31979e-05
7.63878e-05
7.70702e-05
7.53941e-05
6.53825e-06
3.78766e-05
5.62708e-05
6.69395e-05
7.31984e-05
7.63878e-05
7.70698e-05
7.53934e-05
6.53822e-06
3.78761e-05
5.62706e-05
6.69397e-05
7.31987e-05
7.63882e-05
7.70703e-05
7.53939e-05
6.53848e-06
3.78775e-05
5.62722e-05
6.69409e-05
7.31993e-05
7.63881e-05
7.70694e-05
7.53923e-05
6.53835e-06
3.78762e-05
5.6271e-05
6.69401e-05
7.31988e-05
7.63878e-05
7.70694e-05
7.53926e-05
6.53839e-06
3.7876e-05
5.6271e-05
6.69401e-05
7.31988e-05
7.63879e-05
7.70694e-05
7.53925e-05
6.53848e-06
3.78762e-05
5.62713e-05
6.69405e-05
7.31992e-05
7.63883e-05
7.70698e-05
7.53929e-05
6.53783e-06
3.78739e-05
5.62674e-05
6.69367e-05
7.31965e-05
7.63869e-05
7.707e-05
7.53945e-05
6.53785e-06
3.78743e-05
5.6268e-05
6.69373e-05
7.31968e-05
7.6387e-05
7.70698e-05
7.53941e-05
6.53784e-06
3.78741e-05
5.62681e-05
6.69375e-05
7.3197e-05
7.63871e-05
7.70698e-05
7.5394e-05
6.53803e-06
3.78751e-05
5.62693e-05
6.69385e-05
7.31977e-05
7.63874e-05
7.70695e-05
7.53932e-05
6.53798e-06
3.78745e-05
5.62689e-05
6.69383e-05
7.31976e-05
7.63874e-05
7.70696e-05
7.53934e-05
6.53803e-06
3.78745e-05
5.6269e-05
6.69385e-05
7.31978e-05
7.63876e-05
7.70698e-05
7.53934e-05
6.5381e-06
3.78745e-05
5.62691e-05
6.69387e-05
7.3198e-05
7.63877e-05
7.70698e-05
7.53934e-05
6.53756e-06
3.78723e-05
5.62655e-05
6.69351e-05
7.31954e-05
7.63865e-05
7.707e-05
7.5395e-05
6.53755e-06
3.78726e-05
5.62659e-05
6.69355e-05
7.31956e-05
7.63865e-05
7.70698e-05
7.53946e-05
6.53757e-06
3.78727e-05
5.62662e-05
6.69359e-05
7.3196e-05
7.63868e-05
7.707e-05
7.53947e-05
6.53772e-06
3.78735e-05
5.62673e-05
6.69369e-05
7.31967e-05
7.63871e-05
7.70699e-05
7.53941e-05
6.53773e-06
3.78733e-05
5.62674e-05
6.69371e-05
7.3197e-05
7.63873e-05
7.707e-05
7.53942e-05
6.53778e-06
3.78734e-05
5.62677e-05
6.69375e-05
7.31973e-05
7.63876e-05
7.70703e-05
7.53944e-05
6.53783e-06
3.78734e-05
5.62677e-05
6.69376e-05
7.31975e-05
7.63877e-05
7.70704e-05
7.53944e-05
6.53735e-06
3.78714e-05
5.62644e-05
6.69344e-05
7.31951e-05
7.63866e-05
7.70706e-05
7.53959e-05
6.53734e-06
3.78716e-05
5.62647e-05
6.69346e-05
7.31952e-05
7.63865e-05
7.70703e-05
7.53954e-05
6.53737e-06
3.78718e-05
5.62651e-05
6.6935e-05
7.31955e-05
7.63867e-05
7.70704e-05
7.53955e-05
6.53749e-06
3.78724e-05
5.6266e-05
6.69358e-05
7.31961e-05
7.6387e-05
7.70704e-05
7.53951e-05
6.53754e-06
3.78726e-05
5.62664e-05
6.69364e-05
7.31967e-05
7.63875e-05
7.70707e-05
7.53953e-05
6.53758e-06
3.78727e-05
5.62667e-05
6.69369e-05
7.31972e-05
7.6388e-05
7.70711e-05
7.53956e-05
6.53761e-06
3.78726e-05
5.62667e-05
6.69369e-05
7.31973e-05
7.63881e-05
7.70712e-05
7.53956e-05
6.53722e-06
3.78711e-05
5.62641e-05
6.69343e-05
7.31953e-05
7.63871e-05
7.70712e-05
7.53966e-05
6.53721e-06
3.78713e-05
5.62643e-05
6.69344e-05
7.31953e-05
7.63869e-05
7.7071e-05
7.53963e-05
6.53723e-06
3.78714e-05
5.62645e-05
6.69346e-05
7.31955e-05
7.6387e-05
7.70709e-05
7.53962e-05
6.53732e-06
3.78719e-05
5.62653e-05
6.69354e-05
7.3196e-05
7.63873e-05
7.7071e-05
7.53959e-05
6.53737e-06
3.7872e-05
5.62657e-05
6.69359e-05
7.31966e-05
7.63878e-05
7.70713e-05
7.53962e-05
6.53739e-06
3.78721e-05
5.62659e-05
6.69363e-05
7.3197e-05
7.63882e-05
7.70717e-05
7.53965e-05
6.5374e-06
3.78719e-05
5.62658e-05
6.69363e-05
7.31971e-05
7.63883e-05
7.70718e-05
7.53966e-05
6.53714e-06
3.7871e-05
5.62641e-05
6.69344e-05
7.31956e-05
7.63874e-05
7.70715e-05
7.53969e-05
6.53713e-06
3.78712e-05
5.62642e-05
6.69345e-05
7.31956e-05
7.63873e-05
7.70714e-05
7.53967e-05
6.53714e-06
3.78713e-05
5.62644e-05
6.69347e-05
7.31957e-05
7.63874e-05
7.70714e-05
7.53967e-05
6.53721e-06
3.78715e-05
5.62648e-05
6.69351e-05
7.31961e-05
7.63876e-05
7.70714e-05
7.53965e-05
6.53724e-06
3.78716e-05
5.62651e-05
6.69354e-05
7.31964e-05
7.63878e-05
7.70716e-05
7.53966e-05
6.53724e-06
3.78715e-05
5.62651e-05
6.69356e-05
7.31966e-05
7.63881e-05
7.70719e-05
7.53968e-05
6.53723e-06
3.78713e-05
5.6265e-05
6.69356e-05
7.31967e-05
7.63882e-05
7.7072e-05
7.5397e-05
6.53709e-06
3.7871e-05
5.6264e-05
6.69344e-05
7.31956e-05
7.63874e-05
7.70715e-05
7.53968e-05
6.53708e-06
3.78711e-05
5.62642e-05
6.69346e-05
7.31957e-05
7.63875e-05
7.70715e-05
7.53967e-05
6.5371e-06
3.78712e-05
5.62644e-05
6.69348e-05
7.31959e-05
7.63876e-05
7.70716e-05
7.53968e-05
6.53714e-06
3.78713e-05
5.62646e-05
6.6935e-05
7.31961e-05
7.63877e-05
7.70715e-05
7.53966e-05
6.53715e-06
3.78712e-05
5.62646e-05
6.69351e-05
7.31961e-05
7.63877e-05
7.70716e-05
7.53966e-05
6.53714e-06
3.78711e-05
5.62645e-05
6.6935e-05
7.31962e-05
7.63878e-05
7.70716e-05
7.53967e-05
6.53712e-06
3.78708e-05
5.62642e-05
6.69349e-05
7.31961e-05
7.63878e-05
7.70717e-05
7.53968e-05
6.53705e-06
3.78708e-05
5.62639e-05
6.69343e-05
7.31956e-05
7.63874e-05
7.70714e-05
7.53967e-05
6.53705e-06
3.78711e-05
5.62642e-05
6.69346e-05
7.31958e-05
7.63875e-05
7.70715e-05
7.53967e-05
6.53707e-06
3.78712e-05
5.62643e-05
6.69348e-05
7.3196e-05
7.63876e-05
7.70716e-05
7.53967e-05
6.53711e-06
3.78712e-05
5.62645e-05
6.69349e-05
7.3196e-05
7.63877e-05
7.70715e-05
7.53966e-05
6.53711e-06
3.78711e-05
5.62644e-05
6.69349e-05
7.3196e-05
7.63876e-05
7.70715e-05
7.53965e-05
6.53708e-06
3.78708e-05
5.62641e-05
6.69347e-05
7.31959e-05
7.63875e-05
7.70714e-05
7.53966e-05
6.53705e-06
3.78705e-05
5.62638e-05
6.69345e-05
7.31958e-05
7.63875e-05
7.70715e-05
7.53967e-05
6.53701e-06
3.78708e-05
5.62638e-05
6.69343e-05
7.31957e-05
7.63876e-05
7.70717e-05
7.53971e-05
6.53702e-06
3.78711e-05
5.62641e-05
6.69347e-05
7.31959e-05
7.63877e-05
7.70717e-05
7.5397e-05
6.53704e-06
3.78711e-05
5.62643e-05
6.69349e-05
7.31961e-05
7.63878e-05
7.70718e-05
7.5397e-05
6.53708e-06
3.78712e-05
5.62645e-05
6.6935e-05
7.31962e-05
7.63878e-05
7.70717e-05
7.53968e-05
6.53708e-06
3.78711e-05
5.62643e-05
6.69349e-05
7.31961e-05
7.63877e-05
7.70716e-05
7.53967e-05
6.53704e-06
3.78708e-05
5.6264e-05
6.69346e-05
7.31958e-05
7.63876e-05
7.70716e-05
7.53968e-05
6.537e-06
3.78704e-05
5.62636e-05
6.69343e-05
7.31957e-05
7.63875e-05
7.70716e-05
7.53969e-05
6.53695e-06
3.78707e-05
5.62637e-05
6.69344e-05
7.3196e-05
7.63881e-05
7.70725e-05
7.5398e-05
6.53698e-06
3.7871e-05
5.62641e-05
6.69347e-05
7.31961e-05
7.63881e-05
7.70723e-05
7.53978e-05
6.537e-06
3.78711e-05
5.62642e-05
6.69349e-05
7.31963e-05
7.63881e-05
7.70723e-05
7.53977e-05
6.53705e-06
3.78712e-05
5.62644e-05
6.69351e-05
7.31964e-05
7.63881e-05
7.70722e-05
7.53975e-05
6.53705e-06
3.7871e-05
5.62643e-05
6.69349e-05
7.31962e-05
7.6388e-05
7.70721e-05
7.53974e-05
6.53699e-06
3.78707e-05
5.62639e-05
6.69346e-05
7.3196e-05
7.63879e-05
7.70721e-05
7.53974e-05
6.53695e-06
3.78703e-05
5.62635e-05
6.69343e-05
7.31958e-05
7.63878e-05
7.70721e-05
7.53976e-05
6.56115e-06
6.54838e-06
3.79269e-05
6.54244e-06
3.78988e-05
5.63035e-05
6.69654e-05
7.32014e-05
6.54286e-06
3.78928e-05
5.62916e-05
6.69588e-05
7.3211e-05
7.63929e-05
7.70688e-05
7.5388e-05
6.54064e-06
3.78742e-05
5.62704e-05
6.69405e-05
7.32001e-05
7.639e-05
7.70726e-05
7.53971e-05
6.54109e-06
3.78833e-05
5.62811e-05
6.69485e-05
7.32039e-05
7.63891e-05
7.7067e-05
7.53871e-05
6.54321e-06
3.78931e-05
5.62894e-05
6.69543e-05
7.32075e-05
7.63906e-05
7.70661e-05
7.53839e-05
6.54076e-06
3.78817e-05
5.62816e-05
6.69491e-05
7.32045e-05
7.63904e-05
7.70694e-05
7.53909e-05
6.54183e-06
3.78982e-05
5.62964e-05
6.69612e-05
7.3212e-05
7.63921e-05
7.70652e-05
7.53808e-05
6.54051e-06
3.78831e-05
5.62836e-05
6.69559e-05
7.32102e-05
7.63931e-05
7.70709e-05
7.5393e-05
6.54126e-06
3.78825e-05
5.62779e-05
6.69465e-05
7.32043e-05
7.63913e-05
7.70708e-05
7.53918e-05
6.53918e-06
3.78697e-05
5.62643e-05
6.6935e-05
7.31961e-05
7.63876e-05
7.70712e-05
7.53958e-05
6.53967e-06
3.7881e-05
5.62777e-05
6.69461e-05
7.32033e-05
7.63908e-05
7.70711e-05
7.53936e-05
6.54043e-06
3.78869e-05
5.62833e-05
6.695e-05
7.32054e-05
7.63909e-05
7.7069e-05
7.53894e-05
6.53974e-06
3.788e-05
5.62765e-05
6.69444e-05
7.32011e-05
7.63881e-05
7.70678e-05
7.53893e-05
6.54095e-06
3.78886e-05
5.62845e-05
6.69508e-05
7.32054e-05
7.63898e-05
7.70664e-05
7.5385e-05
6.53997e-06
3.78787e-05
5.62737e-05
6.69429e-05
7.32019e-05
7.63903e-05
7.70713e-05
7.53938e-05
6.53959e-06
3.7877e-05
5.62712e-05
6.69399e-05
7.3199e-05
7.63885e-05
7.70703e-05
7.53935e-05
6.53816e-06
3.78664e-05
5.62605e-05
6.69321e-05
7.31946e-05
7.63875e-05
7.70724e-05
7.53985e-05
6.53897e-06
3.78777e-05
5.62735e-05
6.69423e-05
7.32005e-05
7.63889e-05
7.70699e-05
7.53926e-05
6.53966e-06
3.78822e-05
5.62777e-05
6.69455e-05
7.32023e-05
7.63893e-05
7.70686e-05
7.53898e-05
6.53926e-06
3.78787e-05
5.62741e-05
6.69426e-05
7.32006e-05
7.63891e-05
7.70702e-05
7.53931e-05
6.53992e-06
3.78826e-05
5.62775e-05
6.69448e-05
7.32016e-05
7.63886e-05
7.70681e-05
7.53894e-05
6.53887e-06
3.78753e-05
5.62694e-05
6.69383e-05
7.31975e-05
7.63873e-05
7.70696e-05
7.53934e-05
6.53848e-06
3.78721e-05
5.62659e-05
6.69359e-05
7.31963e-05
7.63871e-05
7.70702e-05
7.53946e-05
6.53754e-06
3.78637e-05
5.62572e-05
6.69294e-05
7.31926e-05
7.63861e-05
7.70716e-05
7.53981e-05
6.53844e-06
3.78757e-05
5.62707e-05
6.69401e-05
7.3199e-05
7.63884e-05
7.70702e-05
7.53937e-05
6.53887e-06
3.78783e-05
5.62732e-05
6.69418e-05
7.32e-05
7.63885e-05
7.70694e-05
7.5392e-05
6.5386e-06
3.78759e-05
5.62706e-05
6.69397e-05
7.31986e-05
7.63879e-05
7.70698e-05
7.53933e-05
6.53892e-06
3.78776e-05
5.62719e-05
6.69405e-05
7.3199e-05
7.63877e-05
7.70688e-05
7.53914e-05
6.53817e-06
3.78722e-05
5.6266e-05
6.69358e-05
7.3196e-05
7.63868e-05
7.70701e-05
7.53947e-05
6.5378e-06
3.78686e-05
5.6262e-05
6.69328e-05
7.31943e-05
7.63863e-05
7.70704e-05
7.53958e-05
6.53714e-06
3.7862e-05
5.62551e-05
6.69277e-05
7.31913e-05
7.63853e-05
7.70713e-05
7.53981e-05
6.53809e-06
3.78741e-05
5.62687e-05
6.69383e-05
7.31978e-05
7.63877e-05
7.707e-05
7.53938e-05
6.53834e-06
3.78755e-05
5.62699e-05
6.69392e-05
7.31983e-05
7.63878e-05
7.70696e-05
7.53929e-05
6.53814e-06
3.78738e-05
5.62681e-05
6.69377e-05
7.31975e-05
7.63877e-05
7.70703e-05
7.53945e-05
6.53825e-06
3.78741e-05
5.6268e-05
6.69376e-05
7.31973e-05
7.63875e-05
7.70699e-05
7.53938e-05
6.5377e-06
3.787e-05
5.62635e-05
6.69339e-05
7.3195e-05
7.63867e-05
7.70707e-05
7.53959e-05
6.53736e-06
3.78666e-05
5.62596e-05
6.69309e-05
7.31932e-05
7.63859e-05
7.70707e-05
7.53967e-05
6.53688e-06
3.78609e-05
5.62539e-05
6.69266e-05
7.31905e-05
7.63848e-05
7.7071e-05
7.53981e-05
6.53783e-06
3.7873e-05
5.62673e-05
6.69372e-05
7.31972e-05
7.63876e-05
7.70704e-05
7.53946e-05
6.53794e-06
3.78734e-05
5.62675e-05
6.69374e-05
7.31973e-05
7.63875e-05
7.70702e-05
7.53942e-05
6.53779e-06
3.78721e-05
5.6266e-05
6.69361e-05
7.31965e-05
7.63874e-05
7.70707e-05
7.53953e-05
6.53778e-06
3.78717e-05
5.62654e-05
6.69356e-05
7.31962e-05
7.63873e-05
7.70707e-05
7.53953e-05
6.53738e-06
3.78687e-05
5.62619e-05
6.69329e-05
7.31946e-05
7.63869e-05
7.70714e-05
7.53971e-05
6.53707e-06
3.78655e-05
5.62584e-05
6.69301e-05
7.31928e-05
7.63861e-05
7.70714e-05
7.53977e-05
6.53673e-06
3.78607e-05
5.62536e-05
6.69263e-05
7.31903e-05
7.63848e-05
7.70713e-05
7.53986e-05
6.53759e-06
3.78721e-05
5.62661e-05
6.69364e-05
7.31969e-05
7.63878e-05
7.70711e-05
7.53957e-05
6.53763e-06
3.7872e-05
5.62659e-05
6.69361e-05
7.31966e-05
7.63876e-05
7.70708e-05
7.53954e-05
6.53751e-06
3.78709e-05
5.62646e-05
6.6935e-05
7.3196e-05
7.63874e-05
7.70711e-05
7.53961e-05
6.53744e-06
3.78703e-05
5.62637e-05
6.69343e-05
7.31956e-05
7.63874e-05
7.70714e-05
7.53965e-05
6.53713e-06
3.78679e-05
5.6261e-05
6.69322e-05
7.31944e-05
7.63871e-05
7.7072e-05
7.5398e-05
6.53688e-06
3.78651e-05
5.6258e-05
6.69299e-05
7.31929e-05
7.63865e-05
7.70721e-05
7.53986e-05
6.53665e-06
3.78611e-05
5.62539e-05
6.69267e-05
7.31908e-05
7.63853e-05
7.70718e-05
7.53991e-05
6.53738e-06
3.78715e-05
5.62653e-05
6.69358e-05
7.31967e-05
7.63881e-05
7.70718e-05
7.53966e-05
6.53738e-06
3.78712e-05
5.62648e-05
6.69353e-05
7.31963e-05
7.63878e-05
7.70715e-05
7.53964e-05
6.53729e-06
3.78703e-05
5.62637e-05
6.69344e-05
7.31957e-05
7.63875e-05
7.70716e-05
7.53968e-05
6.53719e-06
3.78694e-05
5.62626e-05
6.69336e-05
7.31952e-05
7.63874e-05
7.70717e-05
7.53972e-05
6.53695e-06
3.78675e-05
5.62605e-05
6.69319e-05
7.31943e-05
7.63872e-05
7.70723e-05
7.53983e-05
6.53676e-06
3.78651e-05
5.62579e-05
6.69299e-05
7.31931e-05
7.63867e-05
7.70724e-05
7.53989e-05
6.53661e-06
3.78618e-05
5.62547e-05
6.69274e-05
7.31914e-05
7.63858e-05
7.70722e-05
7.53994e-05
6.53722e-06
3.7871e-05
5.62646e-05
6.69352e-05
7.31964e-05
7.63881e-05
7.7072e-05
7.5397e-05
6.53721e-06
3.78706e-05
5.62641e-05
6.69348e-05
7.31961e-05
7.63879e-05
7.70718e-05
7.53969e-05
6.53714e-06
3.78699e-05
5.62632e-05
6.69341e-05
7.31956e-05
7.63876e-05
7.70718e-05
7.53971e-05
6.53705e-06
3.7869e-05
5.62621e-05
6.69332e-05
7.31951e-05
7.63874e-05
7.70718e-05
7.53974e-05
6.53686e-06
3.78674e-05
5.62603e-05
6.69317e-05
7.31942e-05
7.63871e-05
7.70721e-05
7.53981e-05
6.53671e-06
3.78653e-05
5.62581e-05
6.69301e-05
7.31932e-05
7.63867e-05
7.70723e-05
7.53987e-05
6.53661e-06
3.78625e-05
5.62555e-05
6.6928e-05
7.31918e-05
7.6386e-05
7.70721e-05
7.5399e-05
6.53711e-06
3.78706e-05
5.6264e-05
6.69347e-05
7.3196e-05
7.63878e-05
7.70718e-05
7.53969e-05
6.5371e-06
3.78703e-05
5.62637e-05
6.69345e-05
7.31959e-05
7.63877e-05
7.70718e-05
7.5397e-05
6.53705e-06
3.78697e-05
5.6263e-05
6.69339e-05
7.31955e-05
7.63876e-05
7.70718e-05
7.53971e-05
6.53698e-06
3.78689e-05
5.6262e-05
6.69331e-05
7.3195e-05
7.63873e-05
7.70718e-05
7.53973e-05
6.53682e-06
3.78675e-05
5.62604e-05
6.69318e-05
7.31942e-05
7.6387e-05
7.70719e-05
7.53978e-05
6.5367e-06
3.78656e-05
5.62584e-05
6.69303e-05
7.31932e-05
7.63866e-05
7.70719e-05
7.53982e-05
6.53661e-06
3.78634e-05
5.62563e-05
6.69287e-05
7.31922e-05
7.63861e-05
7.70719e-05
7.53985e-05
6.53704e-06
3.78703e-05
5.62636e-05
6.69343e-05
7.31957e-05
7.63876e-05
7.70716e-05
7.53968e-05
6.53704e-06
3.78701e-05
5.62634e-05
6.69342e-05
7.31957e-05
7.63876e-05
7.70717e-05
7.5397e-05
6.53701e-06
3.78697e-05
5.62629e-05
6.69339e-05
7.31955e-05
7.63876e-05
7.70718e-05
7.53971e-05
6.53694e-06
3.78689e-05
5.6262e-05
6.69332e-05
7.31951e-05
7.63874e-05
7.70718e-05
7.53973e-05
6.53681e-06
3.78677e-05
5.62606e-05
6.6932e-05
7.31943e-05
7.63871e-05
7.70719e-05
7.53977e-05
6.5367e-06
3.7866e-05
5.62589e-05
6.69307e-05
7.31935e-05
7.63867e-05
7.70719e-05
7.5398e-05
6.53664e-06
3.78642e-05
5.62572e-05
6.69294e-05
7.31926e-05
7.63863e-05
7.70719e-05
7.53983e-05
6.53699e-06
3.78702e-05
5.62634e-05
6.69342e-05
7.31957e-05
7.63876e-05
7.70718e-05
7.53971e-05
6.53699e-06
3.787e-05
5.62633e-05
6.69342e-05
7.31957e-05
7.63877e-05
7.70719e-05
7.53973e-05
6.53698e-06
3.78697e-05
5.62629e-05
6.69339e-05
7.31956e-05
7.63877e-05
7.7072e-05
7.53974e-05
6.53691e-06
3.78691e-05
5.62622e-05
6.69333e-05
7.31953e-05
7.63876e-05
7.70721e-05
7.53977e-05
6.53679e-06
3.78679e-05
5.62609e-05
6.69323e-05
7.31946e-05
7.63874e-05
7.70722e-05
7.53981e-05
6.53671e-06
3.78664e-05
5.62594e-05
6.69312e-05
7.31939e-05
7.63871e-05
7.70723e-05
7.53984e-05
6.53667e-06
3.78649e-05
5.6258e-05
6.69301e-05
7.31933e-05
7.63868e-05
7.70723e-05
7.53987e-05
6.53693e-06
3.78701e-05
5.62632e-05
6.69342e-05
7.31958e-05
7.63879e-05
7.70723e-05
7.53978e-05
6.53695e-06
3.78699e-05
5.62631e-05
6.69341e-05
7.31958e-05
7.6388e-05
7.70724e-05
7.5398e-05
6.53695e-06
3.78697e-05
5.62629e-05
6.6934e-05
7.31958e-05
7.63881e-05
7.70725e-05
7.5398e-05
6.53689e-06
3.78691e-05
5.62622e-05
6.69335e-05
7.31955e-05
7.6388e-05
7.70726e-05
7.53984e-05
6.53678e-06
3.78681e-05
5.62611e-05
6.69326e-05
7.3195e-05
7.63879e-05
7.70728e-05
7.53988e-05
6.53672e-06
3.78668e-05
5.62598e-05
6.69317e-05
7.31944e-05
7.63877e-05
7.70729e-05
7.53992e-05
6.53669e-06
3.78655e-05
5.62587e-05
6.69308e-05
7.31939e-05
7.63875e-05
7.7073e-05
7.53995e-05
6.54058e-06
3.78767e-05
5.62708e-05
6.6939e-05
7.31979e-05
7.63877e-05
7.70703e-05
7.5395e-05
6.54229e-06
3.78911e-05
5.62857e-05
6.695e-05
7.32035e-05
7.63873e-05
7.70635e-05
7.53817e-05
6.54277e-06
3.78973e-05
5.62936e-05
6.69573e-05
7.32106e-05
7.63954e-05
7.70745e-05
7.5397e-05
6.54476e-06
3.79112e-05
5.6307e-05
6.69658e-05
7.32126e-05
7.63897e-05
7.70603e-05
7.53744e-05
6.54295e-06
3.78999e-05
5.62966e-05
6.69586e-05
7.32088e-05
7.63897e-05
7.70636e-05
7.53804e-05
6.54361e-06
3.7905e-05
5.63022e-05
6.69642e-05
7.32145e-05
7.63956e-05
7.70701e-05
7.53877e-05
6.54214e-06
3.78952e-05
5.62924e-05
6.69566e-05
7.32095e-05
7.63936e-05
7.70716e-05
7.53928e-05
6.53903e-06
3.7871e-05
5.62641e-05
6.69338e-05
7.31947e-05
7.63862e-05
7.707e-05
7.5395e-05
6.54032e-06
3.78821e-05
5.62759e-05
6.69431e-05
7.32008e-05
7.63892e-05
7.70705e-05
7.5394e-05
6.54081e-06
3.78872e-05
5.62815e-05
6.69468e-05
7.3202e-05
7.6388e-05
7.70666e-05
7.5387e-05
6.54219e-06
3.78979e-05
5.62931e-05
6.69566e-05
7.32093e-05
7.63926e-05
7.70688e-05
7.53876e-05
6.541e-06
3.78908e-05
5.62864e-05
6.69517e-05
7.32066e-05
7.63926e-05
7.70721e-05
7.53943e-05
6.54144e-06
3.78937e-05
5.6289e-05
6.69532e-05
7.32066e-05
7.63908e-05
7.7068e-05
7.53876e-05
6.54053e-06
3.7888e-05
5.62837e-05
6.69494e-05
7.32044e-05
7.63901e-05
7.70686e-05
7.53891e-05
6.53803e-06
3.7867e-05
5.62594e-05
6.69301e-05
7.31925e-05
7.63857e-05
7.70711e-05
7.53975e-05
6.53897e-06
3.78754e-05
5.62683e-05
6.6937e-05
7.31965e-05
7.63867e-05
7.70692e-05
7.53931e-05
6.53946e-06
3.78805e-05
5.6274e-05
6.69415e-05
7.31997e-05
7.63889e-05
7.7071e-05
7.5395e-05
6.54033e-06
3.78874e-05
5.62813e-05
6.6947e-05
7.32028e-05
7.63892e-05
7.70683e-05
7.53893e-05
6.5397e-06
3.78838e-05
5.62782e-05
6.69449e-05
7.32016e-05
7.63893e-05
7.70697e-05
7.53921e-05
6.53997e-06
3.78862e-05
5.62808e-05
6.69472e-05
7.32034e-05
7.63904e-05
7.70702e-05
7.53919e-05
6.53938e-06
3.78826e-05
5.62774e-05