/*--------------------------------*- C++ -*----------------------------------*\
| =========                 |                                                 |
| \\      /  F ield         | OpenFOAM: The Open Source CFD Toolbox           |
|  \\    /   O peration     | Version:  plus.master.MPPICInterFoam            |
|   \\  /    A nd           | Web:      www.OpenFOAM.com                      |
|    \\/     M anipulation  |                                                 |
\*---------------------------------------------------------------------------*/
FoamFile
{
    version     2.0;
    format      ascii;
    class       scalarField;
    location    "13.4/lagrangian/kinematicCloud";
    object      age;
}
// * * * * * * * * * * * * * * * * * * * * * * * * * * * * * * * * * * * * * //


148
(
13.3473
12.9264
13.3665
12.8035
12.5032
12.8056
12.5287
13.0963
12.7811
12.6001
12.7315
12.5
12.6703
12.5913
12.6801
12.8752
13.384
12.5945
12.612
13.2303
12.7001
12.8001
12.6645
12.851
12.9571
12.4726
12.7747
12.8142
12.5235
12.5175
12.8878
13.1901
12.6901
12.6765
13.1096
13.3095
12.6036
12.4707
12.8397
13.1849
12.7259
12.5301
12.6354
13.3138
12.8608
12.9159
12.6211
12.6807
12.7002
13.3325
13.001
12.6956
13.3289
12.5848
12.7182
12.6027
12.7207
12.5538
13.3471
12.5818
12.5304
12.8098
12.6335
12.8149
12.9155
12.6814
12.6955
13.0073
12.7129
12.4881
12.7301
12.6303
12.4759
12.866
12.5913
13.0445
12.5102
13.3385
13.2241
12.8198
12.6305
12.8594
13.038
12.7609
12.5838
12.5379
12.6912
12.5305
12.9049
12.81
12.74
13.0571
13.0809
13.0797
12.5753
12.6815
13.2243
13.0708
12.7701
12.4945
13.0218
13.1336
12.5701
12.5763
13.006
12.5896
12.6648
12.5903
12.624
12.61
12.6248
13.3435
12.7558
12.6416
12.9081
12.9162
12.8102
12.5252
12.6411
12.5076
12.5902
12.829
13.3003
12.5802
12.4851
12.6507
12.7676
12.8335
12.8264
12.6666
13.0414
12.6667
13.0762
12.8378
12.4903
12.7001
13.0553
12.5365
12.6375
13.0592
13.1897
12.5352
12.877
13.1041
13.2932
12.5806
12.7328
12.5638
)


// ************************************************************************* //
