/*--------------------------------*- C++ -*----------------------------------*\
| =========                 |                                                 |
| \\      /  F ield         | OpenFOAM: The Open Source CFD Toolbox           |
|  \\    /   O peration     | Version:  plus.master.MPPICInterFoam            |
|   \\  /    A nd           | Web:      www.OpenFOAM.com                      |
|    \\/     M anipulation  |                                                 |
\*---------------------------------------------------------------------------*/
FoamFile
{
    version     2.0;
    format      ascii;
    class       volScalarField;
    location    "0.6";
    object      epsilon;
}
// * * * * * * * * * * * * * * * * * * * * * * * * * * * * * * * * * * * * * //

dimensions      [0 2 -3 0 0 0 0];

internalField   nonuniform List<scalar> 
11821
(
0.00227099
0.00227831
0.00225686
0.00227097
0.00225686
0.00222799
0.00222745
0.00225604
0.0022697
0.00227374
0.00226972
0.00225609
0.00222762
0.00225604
0.00227704
0.00228705
0.00228998
0.00228709
0.00227711
0.00225622
0.0022697
0.00228705
0.00229504
0.00229733
0.00229509
0.00228716
0.00226991
0.00227374
0.00228998
0.00229734
0.00229944
0.00229741
0.00229012
0.00227397
0.00226973
0.00228709
0.0022951
0.00229742
0.00229519
0.00228725
0.0022699
0.00225611
0.00227712
0.00228716
0.00229013
0.00228725
0.00227719
0.00225617
0.00222764
0.00225622
0.0022699
0.00227398
0.0022699
0.00225617
0.00222756
0.00222761
0.00225615
0.00226976
0.00227376
0.00226971
0.00225605
0.00222755
0.00225615
0.00227711
0.00228709
0.00228999
0.00228707
0.00227705
0.00225612
0.00226976
0.00228709
0.00229505
0.00229732
0.00229504
0.00228706
0.00226976
0.00227376
0.00228999
0.00229732
0.00229939
0.00229731
0.00228997
0.00227377
0.00226971
0.00228707
0.00229504
0.00229731
0.00229503
0.00228704
0.00226971
0.00225606
0.00227706
0.00228706
0.00228997
0.00228704
0.002277
0.00225602
0.00222756
0.00225613
0.00226976
0.00227377
0.00226971
0.00225602
0.00222746
0.00222774
0.00225623
0.00226982
0.0022738
0.00226973
0.00225607
0.00222756
0.00225623
0.00227718
0.00228714
0.00229003
0.00228709
0.00227707
0.00225614
0.00226981
0.00228714
0.0022951
0.00229735
0.00229506
0.00228708
0.00226977
0.0022738
0.00229003
0.00229735
0.00229942
0.00229733
0.00228998
0.00227378
0.00226974
0.0022871
0.00229507
0.00229733
0.00229504
0.00228705
0.00226972
0.00225608
0.00227708
0.00228708
0.00228998
0.00228705
0.00227702
0.00225605
0.00222759
0.00225615
0.00226977
0.00227378
0.00226973
0.00225605
0.00222751
0.00222776
0.00225626
0.00226984
0.00227382
0.00226976
0.00225612
0.00222763
0.00225625
0.0022772
0.00228716
0.00229005
0.00228712
0.00227711
0.00225617
0.00226984
0.00228717
0.00229512
0.00229737
0.00229509
0.0022871
0.00226979
0.00227383
0.00229005
0.00229737
0.00229943
0.00229735
0.00229
0.0022738
0.00226977
0.00228712
0.00229509
0.00229735
0.00229507
0.00228708
0.00226976
0.00225613
0.00227711
0.0022871
0.00229
0.00228708
0.00227706
0.00225611
0.00222764
0.00225618
0.00226979
0.0022738
0.00226976
0.00225611
0.00222759
0.0022277
0.00225621
0.0022698
0.00227381
0.00226977
0.00225613
0.00222764
0.0022562
0.00227716
0.00228713
0.00229003
0.0022871
0.00227709
0.00225616
0.0022698
0.00228713
0.00229509
0.00229735
0.00229506
0.00228708
0.00226977
0.0022738
0.00229002
0.00229735
0.00229941
0.00229733
0.00228998
0.00227379
0.00226976
0.0022871
0.00229506
0.00229733
0.00229505
0.00228707
0.00226976
0.00225612
0.00227708
0.00228707
0.00228998
0.00228706
0.00227706
0.00225613
0.00222762
0.00225614
0.00226975
0.00227378
0.00226975
0.00225613
0.00222764
0.0022276
0.00225611
0.00226972
0.00227373
0.00226969
0.00225606
0.00222755
0.00225611
0.00227707
0.00228705
0.00228995
0.00228703
0.00227701
0.00225606
0.00226971
0.00228705
0.00229501
0.00229727
0.00229499
0.002287
0.00226968
0.00227372
0.00228995
0.00229727
0.00229934
0.00229726
0.00228991
0.00227371
0.00226968
0.00228702
0.00229499
0.00229726
0.00229498
0.002287
0.00226969
0.00225603
0.002277
0.00228699
0.00228991
0.002287
0.002277
0.00225608
0.00222752
0.00225604
0.00226967
0.0022737
0.00226969
0.00225608
0.0022276
0.00222756
0.00225606
0.00226965
0.00227366
0.00226962
0.00225598
0.00222749
0.00225606
0.00227701
0.00228698
0.00228988
0.00228696
0.00227694
0.002256
0.00226966
0.00228698
0.00229494
0.0022972
0.00229492
0.00228693
0.00226962
0.00227366
0.00228988
0.0022972
0.00229927
0.00229719
0.00228984
0.00227364
0.00226962
0.00228696
0.00229492
0.00229719
0.00229491
0.00228692
0.00226961
0.00225599
0.00227695
0.00228694
0.00228984
0.00228692
0.00227691
0.00225597
0.00222751
0.00225602
0.00226963
0.00227365
0.00226961
0.00225598
0.00222748
0.00222755
0.00225604
0.00226963
0.00227363
0.00226959
0.00225596
0.00222749
0.00225604
0.00227698
0.00228695
0.00228984
0.00228692
0.00227692
0.002256
0.00226964
0.00228695
0.0022949
0.00229716
0.00229488
0.00228691
0.00226961
0.00227364
0.00228985
0.00229717
0.00229923
0.00229715
0.0022898
0.00227361
0.0022696
0.00228693
0.00229489
0.00229715
0.00229486
0.00228687
0.00226956
0.00225597
0.00227693
0.00228691
0.00228981
0.00228688
0.00227685
0.0022559
0.00222751
0.00225602
0.00226962
0.00227362
0.00226957
0.0022559
0.00222737
0.00222749
0.00225601
0.00226962
0.00227363
0.00226958
0.00225594
0.00222747
0.002256
0.00227696
0.00228694
0.00228984
0.00228692
0.00227692
0.00225601
0.00226961
0.00228694
0.0022949
0.00229716
0.00229489
0.00228691
0.00226962
0.00227362
0.00228984
0.00229716
0.00229923
0.00229716
0.00228982
0.00227364
0.00226957
0.00228692
0.00229488
0.00229716
0.00229488
0.00228689
0.00226959
0.00225593
0.00227691
0.00228691
0.00228982
0.00228689
0.00227688
0.00225593
0.00222745
0.00225599
0.00226962
0.00227363
0.00226959
0.00225593
0.00222741
0.00222745
0.00225601
0.00226965
0.00227368
0.00226965
0.00225601
0.00222752
0.002256
0.00227699
0.00228699
0.0022899
0.00228699
0.00227698
0.00225605
0.00226964
0.00228699
0.00229496
0.00229724
0.00229496
0.00228698
0.00226968
0.00227367
0.0022899
0.00229724
0.00229931
0.00229723
0.00228989
0.0022737
0.00226965
0.00228699
0.00229496
0.00229723
0.00229496
0.00228697
0.00226966
0.00225601
0.00227698
0.00228698
0.00228989
0.00228697
0.00227696
0.00225602
0.00222751
0.00225604
0.00226967
0.0022737
0.00226966
0.00225602
0.00222751
0.00222762
0.00225617
0.00226982
0.00227386
0.00226984
0.00225621
0.00222769
0.00225618
0.00227716
0.00228717
0.00229008
0.00228717
0.00227715
0.00225619
0.00226983
0.00228717
0.00229514
0.00229742
0.00229513
0.00228714
0.0022698
0.00227387
0.00229009
0.00229742
0.00229948
0.0022974
0.00229004
0.00227382
0.00226986
0.00228718
0.00229514
0.0022974
0.00229512
0.00228712
0.00226979
0.00225623
0.00227717
0.00228714
0.00229005
0.00228712
0.00227711
0.00225615
0.00222772
0.0022562
0.00226981
0.00227383
0.00226979
0.00225615
0.00222763
0.00222785
0.00225641
0.00227005
0.00227408
0.00227006
0.00225642
0.00222789
0.00225642
0.0022774
0.0022874
0.00229031
0.00228739
0.00227736
0.00225638
0.00227006
0.0022874
0.00229536
0.00229763
0.00229534
0.00228733
0.00226998
0.00227409
0.00229031
0.00229763
0.00229969
0.0022976
0.00229023
0.00227401
0.00227007
0.00228739
0.00229534
0.0022976
0.00229531
0.00228732
0.00226999
0.00225643
0.00227736
0.00228734
0.00229024
0.00228732
0.00227731
0.00225637
0.0022279
0.00225638
0.00226999
0.00227401
0.00227
0.00225638
0.00222789
0.00222792
0.00225651
0.00227016
0.0022742
0.00227018
0.00225654
0.00222801
0.00225651
0.00227752
0.00228752
0.00229043
0.00228751
0.00227749
0.00225651
0.00227016
0.00228752
0.00229548
0.00229774
0.00229545
0.00228745
0.00227011
0.0022742
0.00229043
0.00229774
0.00229979
0.00229771
0.00229035
0.00227413
0.00227017
0.0022875
0.00229545
0.0022977
0.00229542
0.00228743
0.00227012
0.00225652
0.00227747
0.00228744
0.00229034
0.00228743
0.00227743
0.0022565
0.00222798
0.00225649
0.0022701
0.00227413
0.00227011
0.0022565
0.00222804
0.00222791
0.0022565
0.00227014
0.00227417
0.00227014
0.00225649
0.00222797
0.0022565
0.0022775
0.00228749
0.0022904
0.00228747
0.00227745
0.00225648
0.00227014
0.00228749
0.00229544
0.0022977
0.00229541
0.00228741
0.00227007
0.00227417
0.00229039
0.0022977
0.00229975
0.00229766
0.0022903
0.00227409
0.00227014
0.00228747
0.0022954
0.00229766
0.00229537
0.00228738
0.00227006
0.00225649
0.00227744
0.0022874
0.0022903
0.00228738
0.00227736
0.00225643
0.00222794
0.00225645
0.00227006
0.00227408
0.00227005
0.00225642
0.00222793
0.00222781
0.00225638
0.00227
0.00227402
0.00226998
0.00225633
0.0022278
0.00225637
0.00227735
0.00228733
0.00229023
0.0022873
0.00227728
0.00225632
0.00227
0.00228733
0.00229528
0.00229753
0.00229524
0.00228725
0.00226993
0.00227402
0.00229023
0.00229753
0.00229959
0.0022975
0.00229015
0.00227394
0.00226998
0.0022873
0.00229524
0.0022975
0.00229521
0.00228723
0.00226991
0.00225633
0.00227728
0.00228725
0.00229015
0.00228723
0.00227722
0.00225628
0.0022278
0.00225631
0.00226992
0.00227394
0.00226991
0.00225628
0.00222778
0.00222766
0.0022562
0.00226983
0.00227385
0.00226982
0.0022562
0.00222771
0.0022562
0.00227716
0.00228715
0.00229006
0.00228715
0.00227715
0.00225621
0.00226983
0.00228715
0.00229511
0.00229738
0.00229511
0.00228714
0.00226984
0.00227386
0.00229006
0.00229739
0.00229946
0.00229739
0.00229005
0.00227386
0.00226983
0.00228715
0.00229511
0.00229739
0.00229511
0.00228714
0.00226984
0.00225621
0.00227716
0.00228714
0.00229005
0.00228714
0.00227714
0.00225622
0.00222772
0.00225622
0.00226984
0.00227386
0.00226984
0.00225622
0.00222775
0.00157637
0.00190783
0.00212595
0.00202816
0.00189756
0.00173827
0.00158842
0.00187084
0.00224553
0.00220185
0.00213507
0.00203866
0.00190829
0.00174718
0.00159183
0.00185812
0.00223944
0.00219396
0.00212543
0.00202782
0.00189737
0.00173808
0.00158766
0.0018692
0.00222042
0.00216985
0.00209667
0.00199599
0.00186579
0.00171232
0.00157706
0.00190553
0.00218244
0.00212562
0.00204658
0.00194289
0.00181505
0.00167232
0.00156179
0.00196325
0.00218232
0.00212562
0.00204663
0.00194292
0.00181502
0.0016722
0.00156154
0.00196275
0.00222017
0.00216984
0.0020968
0.0019962
0.00186604
0.00171262
0.00157768
0.00190685
0.00223891
0.00219378
0.0021255
0.00202805
0.00189771
0.00173851
0.00158824
0.00187041
0.00224458
0.0022012
0.00213457
0.0020383
0.00190803
0.001747
0.00159166
0.00185784
0.00223879
0.00219357
0.00212519
0.00202767
0.00189726
0.00173798
0.00158753
0.0018689
0.00222001
0.00216959
0.00209648
0.00199584
0.00186564
0.00171215
0.00157685
0.0019051
0.00218216
0.0021254
0.00204638
0.00194266
0.00181477
0.00167197
0.00156132
0.00196227
0.00218223
0.00212552
0.00204652
0.00194281
0.00181491
0.00167208
0.0015614
0.00196239
0.00222005
0.00216973
0.00209671
0.00199615
0.00186604
0.00171262
0.00157743
0.00190625
0.00223872
0.00219358
0.00212528
0.00202783
0.00189749
0.00173829
0.00158797
0.00186984
0.00224441
0.00220106
0.00213445
0.00203819
0.00190792
0.00174687
0.00159146
0.00185734
0.00223864
0.00219345
0.00212509
0.00202758
0.00189716
0.00173786
0.00158738
0.00186852
0.0022199
0.00216951
0.0020964
0.00199575
0.00186555
0.00171203
0.00157669
0.0019047
0.00218208
0.00212533
0.00204631
0.00194258
0.00181467
0.00167184
0.00156114
0.00196183
0.00218225
0.00212556
0.00204659
0.00194292
0.00181508
0.00167232
0.00156175
0.00196313
0.00222006
0.00216973
0.00209671
0.00199615
0.00186604
0.00171262
0.00157742
0.00190619
0.00223872
0.00219357
0.00212525
0.00202779
0.00189741
0.00173816
0.00158773
0.00186917
0.00224441
0.00220105
0.00213443
0.00203814
0.00190783
0.00174672
0.00159121
0.00185662
0.00223865
0.00219346
0.00212509
0.00202756
0.00189711
0.00173778
0.00158723
0.00186808
0.00221993
0.00216955
0.00209645
0.0019958
0.00186558
0.00171205
0.00157668
0.00190455
0.00218214
0.00212542
0.00204642
0.00194271
0.00181483
0.00167203
0.00156137
0.00196225
0.00218233
0.00212565
0.00204671
0.00194307
0.00181527
0.00167255
0.00156204
0.00196372
0.00222009
0.00216977
0.00209674
0.00199618
0.00186606
0.00171263
0.00157742
0.00190612
0.00223874
0.00219358
0.00212526
0.00202777
0.00189737
0.00173809
0.00158761
0.00186877
0.00224443
0.00220107
0.00213445
0.00203815
0.00190783
0.00174671
0.00159116
0.00185638
0.0022387
0.00219352
0.00212516
0.00202764
0.0018972
0.00173787
0.00158732
0.00186811
0.00222001
0.00216965
0.00209658
0.00199596
0.00186576
0.00171225
0.00157689
0.00190488
0.00218226
0.00212556
0.00204659
0.00194292
0.00181506
0.00167227
0.00156164
0.00196278
0.00218233
0.00212566
0.00204672
0.00194309
0.00181528
0.00167256
0.00156204
0.00196374
0.00222006
0.00216972
0.00209667
0.00199607
0.00186591
0.00171243
0.00157712
0.00190542
0.00223871
0.00219353
0.00212518
0.00202766
0.00189723
0.00173791
0.00158737
0.00186822
0.00224441
0.00220105
0.00213442
0.00203812
0.0019078
0.00174668
0.00159112
0.00185627
0.00223871
0.00219355
0.00212521
0.00202772
0.00189731
0.00173801
0.0015875
0.00186849
0.00222006
0.00216973
0.0020967
0.00199612
0.00186597
0.00171249
0.00157719
0.00190551
0.00218234
0.00212568
0.00204675
0.00194311
0.00181528
0.00167252
0.00156193
0.00196337
0.00218221
0.00212553
0.00204658
0.00194294
0.00181512
0.00167238
0.00156182
0.00196324
0.00221994
0.00216957
0.00209648
0.00199583
0.00186562
0.00171208
0.00157667
0.00190439
0.0022386
0.0021934
0.00212501
0.00202745
0.00189698
0.0017376
0.00158697
0.00186733
0.00224432
0.00220095
0.0021343
0.00203798
0.00190763
0.00174647
0.00159086
0.00185569
0.00223864
0.00219348
0.00212514
0.00202764
0.00189722
0.00173791
0.00158736
0.00186814
0.00222001
0.0021697
0.00209668
0.00199612
0.00186599
0.00171255
0.00157729
0.0019058
0.00218232
0.00212568
0.00204679
0.0019432
0.00181544
0.00167276
0.0015623
0.00196433
0.00218217
0.00212549
0.00204655
0.00194292
0.0018151
0.00167235
0.00156177
0.00196311
0.00221991
0.00216956
0.0020965
0.00199588
0.0018657
0.00171217
0.00157676
0.00190447
0.00223855
0.00219338
0.00212502
0.00202749
0.00189704
0.00173768
0.00158704
0.00186732
0.00224426
0.00220089
0.00213425
0.00203794
0.00190759
0.00174643
0.00159078
0.0018554
0.00223855
0.00219337
0.00212502
0.0020275
0.00189706
0.00173771
0.0015871
0.00186753
0.00221989
0.00216955
0.00209651
0.00199592
0.00186576
0.00171228
0.00157694
0.00190501
0.00218217
0.00212552
0.0020466
0.001943
0.00181522
0.00167252
0.00156204
0.00196385
0.00218222
0.00212558
0.00204667
0.00194307
0.00181529
0.00167258
0.00156206
0.00196382
0.00221995
0.00216966
0.00209668
0.00199617
0.0018661
0.00171273
0.00157758
0.00190642
0.00223858
0.00219346
0.00212517
0.00202774
0.00189741
0.00173819
0.00158777
0.00186902
0.00224426
0.00220092
0.00213433
0.00203807
0.00190779
0.00174671
0.00159117
0.00185624
0.0022385
0.00219334
0.002125
0.00202749
0.00189707
0.00173774
0.00158714
0.00186757
0.0022198
0.00216943
0.00209636
0.00199574
0.00186555
0.00171203
0.00157663
0.00190434
0.00218202
0.00212532
0.00204634
0.00194267
0.00181481
0.00167202
0.00156139
0.00196244
0.00218221
0.00212558
0.00204668
0.00194309
0.00181532
0.00167264
0.00156219
0.00196423
0.00221997
0.00216969
0.00209673
0.00199625
0.00186623
0.00171294
0.00157793
0.0019074
0.00223861
0.0021935
0.00212524
0.00202784
0.00189754
0.00173837
0.00158806
0.00186979
0.00224429
0.00220097
0.0021344
0.00203817
0.00190792
0.00174687
0.00159141
0.00185685
0.00223855
0.0021934
0.00212507
0.00202759
0.00189719
0.00173789
0.00158736
0.00186808
0.00221984
0.00216949
0.00209642
0.00199581
0.00186562
0.00171211
0.00157672
0.0019045
0.00218206
0.00212536
0.00204638
0.00194269
0.00181481
0.00167199
0.00156129
0.00196213
0.00218222
0.00212555
0.00204661
0.00194298
0.00181516
0.00167244
0.00156191
0.00196355
0.00221998
0.00216966
0.00209664
0.00199608
0.00186596
0.00171253
0.00157728
0.00190578
0.00223864
0.00219349
0.00212517
0.00202768
0.00189729
0.00173799
0.00158745
0.00186828
0.00224434
0.00220099
0.00213437
0.00203808
0.00190776
0.00174662
0.001591
0.00185581
0.00223861
0.00219344
0.0021251
0.00202758
0.00189714
0.0017378
0.00158719
0.00186764
0.00221993
0.00216957
0.00209651
0.00199589
0.0018657
0.00171218
0.00157678
0.00190457
0.00218217
0.00212548
0.00204653
0.00194286
0.00181501
0.00167223
0.00156159
0.0019627
0.00218234
0.00212565
0.00204668
0.00194302
0.00181517
0.0016724
0.0015618
0.00196318
0.00222005
0.00216965
0.00209654
0.00199585
0.00186559
0.00171199
0.0015765
0.00190388
0.00223869
0.00219346
0.00212504
0.00202744
0.00189692
0.0017375
0.00158677
0.00186664
0.0022444
0.00220099
0.0021343
0.00203793
0.00190752
0.0017463
0.00159057
0.00185475
0.0022387
0.00219349
0.00212509
0.00202752
0.00189703
0.00173762
0.00158691
0.00186685
0.00222003
0.00216966
0.00209658
0.00199593
0.00186571
0.00171215
0.00157669
0.00190417
0.0021823
0.00212561
0.00204665
0.00194299
0.00181515
0.00167237
0.00156175
0.00196292
0.00218251
0.0021258
0.00204681
0.00194311
0.00181523
0.00167243
0.00156178
0.00196299
0.00222021
0.00216978
0.00209662
0.00199589
0.00186559
0.00171195
0.00157639
0.00190342
0.00223886
0.0021936
0.00212515
0.00202753
0.00189699
0.00173755
0.0015868
0.00186644
0.00224458
0.00220117
0.00213447
0.00203809
0.00190769
0.00174647
0.00159073
0.00185482
0.00223891
0.00219371
0.00212533
0.00202778
0.00189731
0.00173791
0.00158722
0.00186724
0.00222029
0.00216995
0.0020969
0.0019963
0.00186612
0.0017126
0.0015772
0.00190504
0.0021826
0.00212594
0.00204703
0.00194342
0.00181563
0.00167292
0.00156241
0.00196418
0.00218263
0.0021259
0.00204688
0.00194316
0.00181525
0.00167242
0.00156174
0.0019627
0.00222037
0.00216995
0.0020968
0.0019961
0.00186584
0.00171226
0.00157679
0.00190415
0.00223901
0.00219378
0.00212537
0.00202779
0.00189729
0.0017379
0.00158722
0.00186722
0.00224474
0.00220135
0.00213468
0.00203834
0.00190797
0.00174678
0.00159109
0.00185546
0.00223906
0.00219388
0.00212553
0.00202802
0.00189758
0.00173824
0.00158763
0.0018681
0.00222044
0.00217012
0.0020971
0.00199652
0.00186639
0.00171293
0.00157766
0.0019061
0.00218276
0.00212612
0.00204723
0.00194364
0.00181587
0.0016732
0.00156278
0.00196502
0.0021826
0.00212586
0.00204684
0.00194312
0.00181521
0.00167238
0.00156169
0.00196253
0.00222034
0.00216993
0.00209679
0.00199609
0.00186582
0.00171222
0.00157671
0.00190394
0.00223898
0.00219376
0.00212535
0.00202777
0.00189727
0.00173786
0.00158713
0.00186698
0.00224469
0.0022013
0.00213463
0.00203829
0.00190791
0.00174671
0.00159098
0.00185521
0.00223899
0.00219381
0.00212544
0.0020279
0.00189743
0.00173805
0.00158736
0.00186748
0.00222034
0.00216999
0.00209692
0.0019963
0.00186609
0.00171254
0.00157711
0.00190484
0.00218262
0.00212593
0.00204697
0.00194331
0.00181546
0.00167267
0.00156206
0.0019634
0.00218245
0.00212573
0.00204673
0.00194304
0.00181515
0.00167233
0.00156164
0.00196248
0.0022202
0.00216981
0.0020967
0.00199604
0.0018658
0.00171221
0.00157669
0.00190391
0.00223885
0.00219365
0.00212527
0.00202773
0.00189725
0.00173785
0.00158712
0.00186697
0.00224456
0.00220119
0.00213455
0.00203823
0.00190788
0.0017467
0.00159101
0.00185535
0.00223886
0.00219368
0.00212533
0.00202781
0.00189736
0.001738
0.00158733
0.00186748
0.00222019
0.00216985
0.00209679
0.00199618
0.00186598
0.00171243
0.00157697
0.00190453
0.00218246
0.00212578
0.00204683
0.00194317
0.00181532
0.00167253
0.00156188
0.001963
0.0021824
0.00212573
0.0020468
0.00194317
0.00181537
0.00167263
0.00156207
0.00196365
0.00222013
0.0021698
0.00209676
0.00199617
0.00186602
0.00171255
0.00157721
0.00190528
0.00223879
0.00219363
0.00212529
0.0020278
0.0018974
0.00173809
0.00158754
0.00186816
0.0022445
0.00220115
0.00213454
0.00203826
0.00190796
0.00174685
0.00159127
0.00185614
0.0022388
0.00219365
0.00212533
0.00202785
0.00189745
0.00173815
0.0015876
0.00186828
0.00222016
0.00216985
0.00209684
0.00199628
0.00186616
0.00171272
0.00157745
0.00190587
0.00218247
0.00212583
0.00204694
0.00194336
0.00181561
0.00167296
0.00156254
0.00196476
0.00218224
0.00212548
0.00204643
0.00194265
0.00181468
0.00167177
0.00156099
0.00196157
0.00222001
0.0021696
0.00209647
0.0019958
0.00186558
0.00171206
0.00157673
0.00190494
0.00223868
0.00219348
0.00212513
0.00202764
0.00189728
0.00173808
0.00158778
0.00186967
0.00224439
0.00220103
0.00213443
0.00203821
0.00190801
0.00174708
0.00159188
0.00185857
0.00223866
0.00219349
0.00212517
0.00202772
0.0018974
0.00173825
0.00158801
0.00187013
0.00221995
0.00216956
0.00209648
0.00199585
0.00186567
0.0017122
0.0015769
0.00190516
0.00218212
0.00212534
0.00204627
0.00194248
0.00181449
0.00167155
0.00156069
0.00196076
0.00218216
0.00212539
0.00204633
0.00194254
0.00181455
0.00167162
0.00156079
0.00196109
0.00221994
0.0021695
0.00209633
0.00199561
0.00186533
0.00171174
0.00157632
0.001904
0.00223864
0.00219341
0.00212501
0.00202746
0.00189702
0.00173772
0.00158725
0.00186838
0.0022444
0.00220101
0.00213438
0.0020381
0.00190782
0.00174678
0.0015914
0.00185731
0.00223872
0.00219355
0.00212522
0.00202775
0.00189739
0.00173818
0.00158784
0.00186962
0.00222008
0.00216972
0.00209667
0.00199607
0.0018659
0.00171242
0.00157713
0.00190553
0.00218233
0.00212562
0.00204661
0.00194288
0.00181494
0.00167205
0.00156127
0.00196189
0.00218219
0.00212543
0.0020464
0.00194265
0.00181471
0.00167184
0.00156108
0.00196164
0.00221994
0.00216948
0.0020963
0.00199555
0.00186524
0.00171162
0.00157611
0.00190339
0.00223864
0.00219337
0.00212492
0.0020273
0.00189678
0.00173739
0.00158678
0.00186721
0.00224441
0.00220099
0.00213431
0.00203796
0.00190759
0.00174644
0.00159088
0.00185601
0.00223877
0.00219359
0.00212523
0.00202772
0.0018973
0.00173799
0.00158749
0.00186865
0.00222018
0.00216984
0.00209681
0.00199623
0.00186609
0.00171263
0.00157737
0.00190603
0.0021825
0.00212584
0.00204692
0.00194329
0.00181547
0.00167272
0.00156215
0.00196385
0.00218228
0.00212556
0.00204657
0.00194288
0.001815
0.00167219
0.00156153
0.00196258
0.00222002
0.0021696
0.00209646
0.00199577
0.00186551
0.00171194
0.00157649
0.00190406
0.0022387
0.00219345
0.00212501
0.00202741
0.00189691
0.00173752
0.0015869
0.00186726
0.00224444
0.00220103
0.00213433
0.00203798
0.00190759
0.00174641
0.00159079
0.00185564
0.00223879
0.0021936
0.00212523
0.0020277
0.00189725
0.0017379
0.00158733
0.00186815
0.0022202
0.00216986
0.00209683
0.00199626
0.00186611
0.00171265
0.00157738
0.00190598
0.00218254
0.00212589
0.002047
0.00194341
0.00181564
0.00167296
0.00156252
0.00196475
0.00218228
0.00212559
0.00204662
0.00194297
0.00181513
0.00167238
0.0015618
0.00196315
0.00222004
0.00216966
0.00209657
0.00199594
0.00186575
0.00171226
0.00157691
0.00190495
0.0022387
0.00219349
0.0021251
0.00202755
0.0018971
0.00173776
0.0015872
0.00186783
0.00224443
0.00220103
0.00213435
0.00203801
0.00190765
0.0017465
0.0015909
0.0018558
0.00223875
0.00219355
0.00212518
0.00202764
0.00189719
0.00173784
0.00158726
0.00186795
0.00222014
0.00216979
0.00209674
0.00199615
0.00186599
0.00171249
0.00157717
0.00190547
0.00218246
0.0021258
0.0020469
0.0019433
0.00181553
0.00167284
0.00156237
0.00196438
0.00218219
0.0021255
0.00204656
0.00194293
0.00181513
0.00167242
0.0015619
0.00196342
0.00221995
0.00216957
0.00209649
0.00199587
0.00186569
0.0017122
0.00157684
0.00190479
0.00223862
0.0021934
0.00212501
0.00202746
0.00189701
0.00173765
0.00158706
0.00186751
0.00224434
0.00220094
0.00213426
0.00203792
0.00190755
0.00174638
0.00159075
0.00185546
0.00223866
0.00219345
0.00212507
0.00202753
0.00189706
0.0017377
0.00158707
0.00186751
0.00222003
0.00216968
0.00209662
0.00199602
0.00186586
0.00171236
0.001577
0.00190506
0.00218235
0.00212569
0.00204678
0.00194319
0.00181543
0.00167276
0.00156232
0.00196431
0.00218219
0.00212551
0.00204658
0.00194295
0.00181514
0.00167242
0.00156187
0.00196343
0.00221991
0.00216953
0.00209645
0.00199581
0.00186561
0.00171207
0.00157666
0.00190438
0.00223857
0.00219335
0.00212496
0.00202741
0.00189694
0.00173757
0.00158693
0.00186718
0.0022443
0.0022009
0.00213424
0.00203791
0.00190755
0.00174637
0.00159071
0.00185527
0.00223862
0.00219344
0.00212509
0.00202757
0.00189713
0.00173778
0.00158716
0.00186758
0.00222001
0.00216968
0.00209666
0.0019961
0.00186597
0.00171253
0.00157725
0.00190562
0.00218233
0.00212569
0.00204681
0.00194324
0.00181551
0.00167289
0.00156253
0.00196493
0.00218217
0.00212549
0.00204653
0.00194285
0.00181497
0.00167215
0.00156148
0.00196263
0.00221989
0.0021695
0.0020964
0.00199574
0.00186551
0.00171195
0.00157651
0.0019041
0.00223855
0.00219334
0.00212496
0.00202742
0.00189697
0.00173763
0.00158702
0.00186737
0.00224429
0.00220091
0.00213428
0.00203799
0.00190767
0.00174654
0.00159093
0.00185571
0.00223862
0.00219346
0.00212514
0.00202767
0.0018973
0.00173803
0.00158754
0.00186853
0.00222001
0.0021697
0.0020967
0.00199617
0.00186608
0.00171268
0.00157751
0.00190639
0.00218233
0.0021257
0.00204681
0.00194323
0.00181547
0.0016728
0.00156239
0.00196473
0.00218208
0.00212535
0.00204633
0.0019426
0.00181466
0.00167176
0.00156097
0.00196146
0.00221982
0.00216941
0.00209628
0.00199558
0.00186531
0.00171171
0.0015762
0.00190341
0.00223851
0.00219329
0.0021249
0.00202735
0.0018969
0.00173754
0.00158692
0.00186711
0.00224425
0.00220087
0.00213424
0.00203795
0.00190764
0.00174652
0.00159094
0.00185574
0.00223857
0.0021934
0.00212506
0.00202757
0.00189718
0.0017379
0.00158739
0.00186825
0.00221993
0.00216958
0.00209653
0.00199593
0.00186575
0.00171224
0.00157688
0.00190495
0.00218222
0.00212553
0.00204656
0.00194287
0.00181499
0.00167215
0.00156148
0.00196272
0.00218215
0.00212544
0.00204645
0.00194276
0.00181487
0.00167204
0.00156132
0.00196204
0.00221992
0.00216953
0.00209643
0.00199577
0.00186554
0.00171197
0.00157648
0.0019038
0.00223859
0.00219338
0.002125
0.00202746
0.001897
0.00173763
0.00158696
0.00186701
0.0022443
0.00220091
0.00213426
0.00203794
0.00190761
0.00174645
0.0015908
0.0018553
0.00223858
0.00219337
0.00212499
0.00202746
0.00189701
0.00173766
0.00158702
0.00186724
0.00221989
0.00216949
0.00209638
0.00199572
0.00186548
0.00171191
0.00157644
0.00190384
0.00218212
0.00212538
0.00204637
0.00194264
0.00181472
0.00167186
0.0015611
0.00196167
0.00218243
0.00212578
0.00204688
0.00194328
0.00181552
0.00167286
0.00156245
0.00196454
0.00222018
0.00216985
0.00209683
0.00199626
0.00186614
0.00171269
0.00157741
0.00190574
0.00223882
0.00219364
0.00212529
0.00202778
0.00189734
0.00173798
0.00158731
0.00186755
0.00224451
0.00220112
0.00213446
0.00203812
0.00190774
0.00174653
0.0015908
0.00185506
0.00223877
0.00219356
0.00212517
0.00202761
0.00189712
0.00173772
0.00158701
0.00186697
0.00222008
0.0021697
0.00209661
0.00199598
0.00186578
0.00171225
0.00157684
0.00190449
0.00218232
0.00212561
0.00204666
0.00194301
0.0018152
0.00167248
0.00156194
0.0019634
0.00218262
0.00212596
0.00204704
0.00194344
0.00181568
0.00167303
0.00156263
0.0019649
0.00222039
0.00217006
0.00209703
0.00199647
0.00186636
0.00171294
0.0015777
0.0019063
0.00223904
0.00219386
0.00212551
0.00202801
0.00189758
0.00173824
0.00158762
0.0018681
0.00224473
0.00220134
0.00213468
0.00203835
0.00190799
0.00174679
0.00159106
0.00185542
0.002239
0.00219379
0.0021254
0.00202784
0.00189737
0.00173797
0.00158728
0.00186737
0.00222032
0.00216993
0.00209684
0.00199621
0.00186603
0.00171251
0.00157713
0.00190501
0.00218256
0.00212585
0.00204688
0.00194323
0.00181542
0.00167272
0.00156222
0.00196398
0.00218268
0.00212598
0.002047
0.00194333
0.00181549
0.00167274
0.00156217
0.00196365
0.00222049
0.00217012
0.00209707
0.00199648
0.00186633
0.00171287
0.00157757
0.00190582
0.00223915
0.00219395
0.0021256
0.0020281
0.0018977
0.0017384
0.00158786
0.00186862
0.00224484
0.00220144
0.00213479
0.00203849
0.00190817
0.00174704
0.00159144
0.00185628
0.00223911
0.00219388
0.00212549
0.00202794
0.00189749
0.00173814
0.0015875
0.00186778
0.0022204
0.00216998
0.00209686
0.00199619
0.00186596
0.00171241
0.00157699
0.00190458
0.00218261
0.00212584
0.0020468
0.00194307
0.00181516
0.00167234
0.00156166
0.00196252
0.00218264
0.00212593
0.00204695
0.00194327
0.00181543
0.00167267
0.0015621
0.00196346
0.00222046
0.00217009
0.00209702
0.00199642
0.00186627
0.0017128
0.00157748
0.00190561
0.00223912
0.00219392
0.00212556
0.00202805
0.00189764
0.00173832
0.00158774
0.00186832
0.00224482
0.00220142
0.00213476
0.00203846
0.00190812
0.00174698
0.00159134
0.00185602
0.00223909
0.00219386
0.00212547
0.00202792
0.00189746
0.00173809
0.00158743
0.0018676
0.0022204
0.00216997
0.00209684
0.00199617
0.00186594
0.00171238
0.00157692
0.00190438
0.00218262
0.00212584
0.0020468
0.00194307
0.00181516
0.00167233
0.00156163
0.00196235
0.00218249
0.00212579
0.00204682
0.00194315
0.00181531
0.00167253
0.00156192
0.00196314
0.00222028
0.00216992
0.00209686
0.00199625
0.00186607
0.00171256
0.00157715
0.00190494
0.00223895
0.00219376
0.0021254
0.00202789
0.00189746
0.00173812
0.0015875
0.00186786
0.00224466
0.00220127
0.00213463
0.00203833
0.00190799
0.00174685
0.00159121
0.00185581
0.00223895
0.00219374
0.00212536
0.00202783
0.00189737
0.001738
0.00158733
0.00186746
0.00222027
0.00216988
0.00209677
0.00199612
0.00186589
0.00171233
0.00157684
0.00190425
0.00218253
0.00212578
0.00204678
0.00194307
0.00181519
0.00167238
0.00156169
0.00196254
0.00218242
0.00212576
0.00204683
0.00194321
0.0018154
0.00167267
0.00156212
0.00196377
0.00222016
0.00216981
0.00209677
0.00199619
0.00186603
0.00171255
0.00157721
0.00190529
0.0022388
0.00219363
0.00212529
0.0020278
0.0018974
0.0017381
0.00158756
0.00186823
0.0022445
0.00220113
0.00213451
0.00203823
0.00190793
0.00174684
0.00159128
0.0018562
0.00223878
0.0021936
0.00212526
0.00202777
0.00189736
0.00173805
0.00158748
0.00186802
0.00222012
0.00216977
0.00209672
0.00199612
0.00186597
0.00171248
0.00157711
0.00190503
0.00218239
0.0021257
0.00204676
0.00194313
0.00181532
0.00167258
0.00156201
0.00196348
0.00218211
0.00212532
0.00204624
0.00194243
0.00181442
0.00167146
0.00156056
0.00196045
0.00221994
0.00216954
0.00209643
0.00199578
0.00186558
0.00171207
0.00157674
0.00190478
0.00223865
0.00219347
0.00212513
0.00202767
0.00189733
0.00173817
0.0015879
0.00186983
0.00224438
0.00220101
0.0021344
0.00203817
0.00190796
0.00174701
0.00159179
0.00185833
0.00223866
0.00219345
0.0021251
0.0020276
0.00189723
0.00173801
0.00158767
0.00186936
0.00221998
0.00216956
0.00209642
0.00199574
0.00186549
0.00171196
0.00157661
0.00190464
0.00218227
0.0021255
0.00204644
0.00194265
0.00181468
0.00167175
0.00156094
0.00196137