/*--------------------------------*- C++ -*----------------------------------*\
| =========                 |                                                 |
| \\      /  F ield         | OpenFOAM: The Open Source CFD Toolbox           |
|  \\    /   O peration     | Version:  plus.master.MPPICInterFoam            |
|   \\  /    A nd           | Web:      www.OpenFOAM.com                      |
|    \\/     M anipulation  |                                                 |
\*---------------------------------------------------------------------------*/
FoamFile
{
    version     2.0;
    format      ascii;
    class       volScalarField;
    location    "3.2";
    object      nut;
}
// * * * * * * * * * * * * * * * * * * * * * * * * * * * * * * * * * * * * * //

dimensions      [0 2 -1 0 0 0 0];

internalField   nonuniform List<scalar> 
11822
(
0.000657083
0.000735783
0.000764684
0.000734913
0.000699967
0.000660009
0.000612641
0.000717602
0.000752996
0.000790665
0.000798895
0.000737802
0.00070036
0.000643144
0.000733171
0.000773149
0.000806867
0.000826326
0.000801859
0.000723105
0.000659722
0.000751083
0.000776604
0.000812957
0.000833236
0.000788664
0.000726055
0.000661239
0.000761037
0.000780457
0.00080686
0.000810113
0.000739389
0.000703418
0.000648675
0.0007015
0.000749866
0.00077156
0.000750075
0.000700793
0.000669288
0.000625643
0.000627384
0.000666732
0.000686765
0.000683643
0.000660027
0.000629712
0.000594492
0.000604651
0.000629529
0.00063624
0.000625422
0.000605562
0.000615278
0.000598359
0.000640431
0.000716092
0.000724334
0.000655011
0.000653119
0.000640685
0.000625233
0.000696327
0.000703073
0.000711204
0.000729325
0.000670602
0.000657261
0.000639696
0.000689813
0.000694811
0.000699872
0.000695548
0.000678705
0.000658584
0.000641465
0.000610344
0.000701733
0.000701183
0.000646075
0.000650482
0.000650643
0.000631853
0.000593907
0.000637681
0.000640159
0.000631056
0.000630755
0.000634846
0.000614363
0.00058902
0.000615302
0.000625359
0.00062867
0.000624466
0.000612248
0.000590323
0.000542419
0.000556561
0.000554155
0.000586616
0.000600594
0.000619372
0.000602146
0.000545428
0.000527069
0.000519061
0.000569127
0.000619136
0.00064695
0.000628732
0.000517913
0.000578834
0.000606772
0.000556273
0.000633597
0.000665632
0.000643879
0.00049007
0.000578755
0.000610907
0.000580845
0.000633887
0.000668898
0.000646933
0.000526345
0.000527297
0.000556576
0.00057074
0.00063269
0.000660551
0.000639402
0.0005653
0.000574125
0.00058915
0.0006139
0.000638668
0.000645542
0.000624593
0.000585875
0.000611685
0.000627663
0.000635513
0.000634449
0.000622678
0.000601281
0.00056772
0.000598038
0.000618912
0.000638849
0.000649549
0.000630773
0.000601571
0.000579323
0.000574966
0.000595536
0.000635395
0.000669077
0.000661606
0.000627951
0.000566594
0.000545472
0.000551
0.000627311
0.000684101
0.000678632
0.000642248
0.000568336
0.000536019
0.000546828
0.000632815
0.000691127
0.000683503
0.000647199
0.000580184
0.000579127
0.000604387
0.000654334
0.000691192
0.000675931
0.000643147
0.000600261
0.00062406
0.000651881
0.000675252
0.000679579
0.000656881
0.000629701
0.000591978
0.000624584
0.000647888
0.000657535
0.00065153
0.00063306
0.000606668
0.000576318
0.00060995
0.000634973
0.000646017
0.000639329
0.000619606
0.00059242
0.000607007
0.000640624
0.00066573
0.000677891
0.000668394
0.000643818
0.000616973
0.000628597
0.000662743
0.000682975
0.000694268
0.000684071
0.000657664
0.000631024
0.00064131
0.000671832
0.000692018
0.000702212
0.000689917
0.000663251
0.000636923
0.000637889
0.000669021
0.000689502
0.000698045
0.000684811
0.000660372
0.000634899
0.000617232
0.000650091
0.000671746
0.000677823
0.000667023
0.000649124
0.000623997
0.000587624
0.000614803
0.000638055
0.000646613
0.000641409
0.000626793
0.00060224
0.000557792
0.000585721
0.000606472
0.000617854
0.000618792
0.000610862
0.000592339
0.000582468
0.000611463
0.000631857
0.000642089
0.000639985
0.000630665
0.000614206
0.000601006
0.000630338
0.000652367
0.000657747
0.000653076
0.000643156
0.000627428
0.000609953
0.0006393
0.000658718
0.000661075
0.000658569
0.000649177
0.000633644
0.000609072
0.000636549
0.000654541
0.000660542
0.000658021
0.000649052
0.000633053
0.000598526
0.000625089
0.000642311
0.000650874
0.00065027
0.000642092
0.000624873
0.00057903
0.000608563
0.0006263
0.0006355
0.000634899
0.000625637
0.000606989
0.000568564
0.000531219
0.00048784
0.00043413
0.000364357
0.00027146
0.000147666
1.64759e-05
0.000593163
0.000552653
0.000509468
0.00045707
0.000388006
0.000293561
0.000163376
1.83457e-05
0.000606679
0.000564487
0.000521622
0.000470397
0.000402133
0.000307067
0.000173198
1.95318e-05
0.000608785
0.000567213
0.000525195
0.000474642
0.000406663
0.000311384
0.000176382
1.98429e-05
0.000600285
0.000561464
0.000520546
0.000469854
0.000401423
0.000306178
0.000172549
1.92153e-05
0.00058333
0.000547777
0.000507251
0.000455525
0.000386249
0.000291721
0.000162177
1.77611e-05
0.000558306
0.000525388
0.000484104
0.000430809
0.000360888
0.000268269
0.000145786
1.56974e-05
0.000562972
0.000530389
0.000489822
0.000437201
0.000367514
0.000274308
0.000149642
1.6777e-05
0.000586023
0.000552063
0.000512582
0.000461333
0.000391931
0.00029669
0.000165422
1.86829e-05
0.000598826
0.000564351
0.000525784
0.000475788
0.000406949
0.00031076
0.000175542
1.99193e-05
0.000601749
0.000568177
0.000530409
0.000480858
0.000412085
0.000315481
0.000178924
2.02609e-05
0.000595704
0.000564095
0.000526593
0.000476405
0.000406998
0.000310374
0.000175101
1.96356e-05
0.000582394
0.000552063
0.000513649
0.000461894
0.000391568
0.000295704
0.000164513
1.81543e-05
0.000560668
0.000530555
0.000490282
0.000436737
0.000365935
0.000272184
0.000148087
1.60697e-05
0.000567986
0.000534689
0.000492067
0.000436905
0.000365223
0.000271352
0.000147839
1.68311e-05
0.000592186
0.000558595
0.000517038
0.000462628
0.000390489
0.000293992
0.000163576
1.87528e-05
0.000605832
0.000572571
0.000532155
0.000478668
0.000406622
0.000308725
0.000173966
2.00211e-05
0.000610209
0.000577746
0.000537851
0.000484603
0.000412502
0.00031405
0.000177687
2.03928e-05
0.000605919
0.000574243
0.000533981
0.000480096
0.0004076
0.000309297
0.000174145
1.97901e-05
0.0005934
0.000561519
0.000519952
0.00046483
0.000391875
0.00029464
0.000163642
1.83156e-05
0.000570659
0.000538235
0.000495091
0.000438847
0.000366067
0.000271347
0.000147468
1.62301e-05
0.000567446
0.000532194
0.000487264
0.000430333
0.000358006
0.000264924
0.00014404
1.67541e-05
0.000593107
0.000557939
0.000513757
0.000457178
0.000384112
0.000288148
0.000160002
1.87138e-05
0.000607967
0.000573718
0.000530498
0.000474508
0.000401264
0.000303622
0.000170729
2.00173e-05
0.000613707
0.000579983
0.00053715
0.000481353
0.000408026
0.000309692
0.00017485
2.04239e-05
0.000610436
0.000576559
0.000533294
0.000477164
0.000403684
0.000305518
0.000171654
1.98534e-05
0.00059746
0.000562852
0.000518601
0.000461738
0.000388133
0.000291163
0.000161413
1.84053e-05
0.000573294
0.000538283
0.000493095
0.000435628
0.000362445
0.000268054
0.000145405
1.63212e-05
0.000560649
0.00052624
0.00048236
0.000426769
0.000355848
0.000263872
0.000143808
1.68809e-05
0.000586237
0.000552369
0.000509434
0.000454511
0.000383196
0.000288417
0.000160645
1.89698e-05
0.000601685
0.000568981
0.000527023
0.000472809
0.000401475
0.000305
0.000172096
2.03808e-05
0.000608218
0.000576039
0.000534557
0.00048066
0.000409299
0.000312012
0.00017679
2.0864e-05
0.00060578
0.000573265
0.000531522
0.000477427
0.000405862
0.000308518
0.000173972
2.03281e-05
0.000593677
0.000560212
0.00051762
0.000462782
0.00039088
0.000294445
0.000163835
1.88632e-05
0.000570356
0.000536507
0.000492932
0.000437182
0.000365232
0.000271029
0.00014754
1.67051e-05
0.000566351
0.000536368
0.000497401
0.00044651
0.000378542
0.000284827
0.000154577
1.92889e-05
0.00058996
0.000561299
0.000524292
0.000475302
0.000408171
0.000312545
0.000173896
2.19632e-05
0.000604764
0.00057769
0.000542191
0.000494573
0.000428172
0.000331357
0.000187052
2.38673e-05
0.000611617
0.000585319
0.00055055
0.000503561
0.000437384
0.000339784
0.000192654
2.46014e-05
0.000610473
0.00058397
0.000549019
0.000501711
0.000434989
0.000336769
0.000189773
2.40241e-05
0.000600836
0.000573302
0.000537218
0.000488573
0.000420602
0.000322217
0.000178718
2.226e-05
0.000581293
0.00055276
0.00051478
0.000463995
0.000394448
0.00029686
0.000160501
1.96348e-05
0.000578513
0.000535289
0.000486214
0.000429087
0.000359428
0.000267517
0.000145571
1.7695e-05
0.000631113
0.000571372
0.000517221
0.000457531
0.000386625
0.000292825
0.000163472
2.02985e-05
0.000687671
0.000613126
0.000546016
0.000483466
0.000409945
0.000314351
0.000179032
2.25835e-05
0.000717414
0.00064255
0.000564084
0.000496486
0.000422224
0.000325669
0.000187286
2.38962e-05
0.000706153
0.000639542
0.000561455
0.000493939
0.000419706
0.000322288
0.000183868
2.35914e-05
0.000650624
0.000602808
0.000537848
0.000474774
0.00039908
0.000300342
0.000167899
2.17197e-05
0.00061155
0.000559407
0.000504548
0.000442094
0.000362512
0.000264373
0.000143424
1.8885e-05
0.000556523
0.000525599
0.000483384
0.000431767
0.000364764
0.000273648
0.000149694
1.78865e-05
0.000568437
0.000544392
0.000507245
0.00045701
0.000390207
0.000298159
0.000167488
2.04174e-05
0.000575357
0.000555659
0.000523573
0.000474623
0.000409634
0.000318939
0.000183823
2.28282e-05
0.000601456
0.00056163
0.000533337
0.000484329
0.000419719
0.000329779
0.000192694
2.42753e-05
0.000606852
0.000557801
0.000530141
0.00048095
0.000415741
0.000324924
0.000188377
2.38934e-05
0.000585992
0.000545199
0.00051318
0.000462618
0.000394971
0.000301741
0.00017009
2.16559e-05
0.00055445
0.00052604
0.000485593
0.000429388
0.000355784
0.000263176
0.000143648
1.85535e-05
0.000557241
0.000524831
0.000484078
0.000433526
0.000366301
0.000274527
0.000149947
1.81014e-05
0.000554822
0.000538856
0.0005038
0.000455387
0.000389454
0.000296843
0.000166081
2.05218e-05
0.000545388
0.000544094
0.000518256
0.000470866
0.000407265
0.000316343
0.000181463
2.28742e-05
0.000536789
0.00054435
0.000525815
0.000478525
0.000415529
0.000326092
0.00018987
2.42837e-05
0.000545279
0.000538298
0.000519363
0.00047236
0.000408971
0.000319392
0.000184678
2.38203e-05
0.000536958
0.000524968
0.00049895
0.000450788
0.000384995
0.000294402
0.000165612
2.14882e-05
0.000525095
0.000506922
0.000470696
0.00041724
0.000348003
0.000258391
0.000140667
1.84175e-05
0.000552651
0.000520585
0.000481239
0.000429803
0.000361103
0.000268887
0.000146095
1.80272e-05
0.000576137
0.000542617
0.00050196
0.000450583
0.000381987
0.000288151
0.000159805
2.02751e-05
0.000581923
0.000557004
0.000515386
0.000464304
0.000397105
0.000303703
0.000171593
2.22867e-05
0.000580407
0.000562154
0.000520407
0.000468774
0.000402542
0.00031046
0.000177414
2.34205e-05
0.000578152
0.000556074
0.000512339
0.000460335
0.000394149
0.000302857
0.000172146
2.29578e-05
0.000567504
0.00053372
0.000490101
0.00043731
0.000370335
0.000280015
0.000155802
2.09139e-05
0.000536817
0.00050358
0.000459722
0.000404426
0.000336875
0.000249158
0.000134999
1.82007e-05
0.000549071
0.000515243
0.000475626
0.000423544
0.000354635
0.000263205
0.000142713
1.79113e-05
0.000575378
0.000537192
0.000494768
0.000442175
0.000373024
0.00028011
0.000154939
2.00968e-05
0.000596683
0.000552854
0.00050605
0.000452604
0.000384074
0.000291138
0.000163393
2.18123e-05
0.000601887
0.000557344
0.000507794
0.0004537
0.000386131
0.000294289
0.000166411
2.26568e-05
0.000589664
0.000546512
0.000497966
0.000444202
0.000377151
0.000286507
0.000161239
2.21962e-05
0.000565826
0.000524396
0.000476831
0.000423471
0.000356572
0.000267549
0.000148061
2.04637e-05
0.000533936
0.000492732
0.000447286
0.000393867
0.000327506
0.00024166
0.000130808
1.8059e-05
0.000548802
0.000519805
0.00048166
0.000431338
0.000364277
0.000273047
0.000147711
1.92596e-05
0.000568094
0.00053638
0.000497548
0.000447418
0.000380774
0.000289226
0.000160282
2.15708e-05
0.000576895
0.000543943
0.000504335
0.000454386
0.000388402
0.000297331
0.000167289
2.31747e-05
0.0005767
0.000542735
0.000502719
0.0004529
0.000387689
0.000297668
0.000168513
2.37944e-05
0.000567095
0.000532958
0.000492833
0.000443079
0.000378215
0.000289273
0.000162914
2.32072e-05
0.000549699
0.000515641
0.000474755
0.000424658
0.000359743
0.000272233
0.000150887
2.14972e-05
0.000525204
0.000490093
0.00044638
0.000396262
0.000332774
0.000248165
0.000134383
1.90735e-05
0.00061481
0.000557684
0.00050331
0.000441887
0.000363154
0.00026255
0.000141191
1.88323e-05
0.000663651
0.00059323
0.000533831
0.000472867
0.000397149
0.000294375
0.000163389
2.1385e-05
0.000689135
0.000613534
0.000553066
0.000492321
0.000417833
0.000317884
0.000179979
2.28997e-05
0.000678473
0.000611888
0.000555408
0.000496025
0.000424116
0.000326173
0.000185696
2.29804e-05
0.000647412
0.000593303
0.000542161
0.000485211
0.00041415
0.000317009
0.000179101
2.16254e-05
0.000609747
0.000565673
0.000518951
0.000463861
0.000392982
0.000296919
0.000164893
1.9349e-05
0.000571157
0.000533513
0.000489192
0.000434496
0.000363713
0.000270096
0.000146516
1.66113e-05
0.000552758
0.000525591
0.000484463
0.00043004
0.000355423
0.000259346
0.000141208
1.85544e-05
0.000579639
0.000555859
0.000514501
0.000464601
0.000393069
0.000293466
0.000164711
2.15159e-05
0.000591148
0.000574876
0.000534821
0.000486755
0.000416521
0.000320593
0.000184033
2.33548e-05
0.000596485
0.000578979
0.000540015
0.000490824
0.000424584
0.000329925
0.00018983
2.35072e-05
0.000594224
0.000571165
0.00053226
0.000482638
0.000415644
0.000320419
0.000182374
2.20558e-05
0.000585614
0.000554496
0.000514999
0.000463869
0.000394878
0.000299583
0.000167246
1.96363e-05
0.000563292
0.000530602
0.000489672
0.000436492
0.000366205
0.000272638
0.000148445
1.68362e-05
0.000529043
0.000510752
0.000473955
0.000419828
0.000345932
0.000254639
0.000139528
1.85782e-05
0.000556672
0.000543216
0.000504889
0.000453587
0.000382607
0.000289307
0.000163355
2.1609e-05
0.000575852
0.000567366
0.000527487
0.000478251
0.000410274
0.000316849
0.0001819
2.34358e-05
0.000588592
0.000576765
0.000539169
0.000489646
0.000421856
0.000325946
0.000186878
2.35079e-05
0.000594142
0.000572115
0.000533647
0.000482863
0.000413486
0.000316504
0.000179457
2.20505e-05
0.000588378
0.00055753
0.000517016
0.000463678
0.000392366
0.000295961
0.000164849
1.96695e-05
0.000566984
0.000533633
0.000490898
0.000435445
0.000363404
0.000269382
0.000146503
1.68915e-05
0.000541399
0.000505763
0.000462252
0.000407286
0.000335664
0.000248191
0.00013559
1.84413e-05
0.000578688
0.000538873
0.000498209
0.000443119
0.000371871
0.000281017
0.00015771
2.12913e-05
0.000604033
0.000565623
0.000524615
0.000468463
0.000398649
0.000304794
0.000173398
2.29102e-05
0.000616581
0.000578114
0.00053485
0.000480981
0.000409836
0.000312715
0.000177617
2.29277e-05
0.000613399
0.000574491
0.000530647
0.000475386
0.000402729
0.00030505
0.00017181
2.16305e-05
0.000594537
0.000557682
0.000513032
0.000456408
0.000383227
0.000287124
0.000159367
1.94559e-05
0.000566442
0.000530813
0.000485513
0.000428183
0.00035549
0.000262391
0.000142416
1.67977e-05
0.000534401
0.00049598
0.000448944
0.00039366
0.000327412
0.000242408
0.000132091
1.82783e-05
0.000566738
0.000526345
0.00047969
0.000427971
0.000361077
0.000272311
0.00015233
2.09355e-05
0.000592632
0.000551999
0.000506247
0.000454037
0.000386219
0.000293452
0.000166099
2.23907e-05
0.000604949
0.00056528
0.000521493
0.000467291
0.000396493
0.000301101
0.000170572
2.24557e-05
0.00060098
0.000563555
0.000519712
0.000464267
0.000392266
0.000296535
0.000167021
2.13725e-05
0.000584879
0.000548762
0.000504487
0.000448515
0.000376602
0.000282333
0.000156994
1.94089e-05
0.000558838
0.000523822
0.000479318
0.00042315
0.000351887
0.000260187
0.000141563
1.68625e-05
0.00052651
0.000491376
0.000447829
0.000396769
0.000334071
0.000249943
0.000135934
1.92482e-05
0.000555488
0.000522153
0.000480733
0.000428963
0.000366312
0.000279283
0.00015624
2.19946e-05
0.000577833
0.000545464
0.000504465
0.00045619
0.000391068
0.00030048
0.00017043
2.36817e-05
0.000590217
0.000559467
0.000520358
0.000470274
0.000403318
0.000310494
0.000176649
2.41189e-05
0.000591472
0.000561166
0.000522053
0.000471166
0.000403544
0.000309968
0.000175343
2.34008e-05
0.000582456
0.000551449
0.000511949
0.000460826
0.000393022
0.000299567
0.000166878
2.16402e-05
0.000562987
0.00053221
0.000492308
0.000440623
0.000372372
0.000279522
0.000151683
1.9095e-05
0.000559229
0.000526421
0.000485032
0.000431612
0.00036153
0.000268685
0.000145946
1.57714e-05
0.000587981
0.000551954
0.000510803
0.000458756
0.00038923
0.000294136
0.000163414
1.81287e-05
0.000610577
0.000570121
0.000527403
0.000475833
0.000407174
0.000311321
0.000175612
1.99837e-05
0.000624225
0.000580046
0.000534961
0.00048272
0.000414584
0.000318917
0.000181299
2.10486e-05
0.000624467
0.000578165
0.000530351
0.000477305
0.000409607
0.000314876
0.000178681
2.10617e-05
0.000607244
0.000561856
0.000513229
0.000458798
0.000391461
0.000298565
0.000167517
1.99555e-05
0.000577174
0.000535792
0.000487522
0.000429796
0.000361307
0.000270961
0.000148386
1.77911e-05
0.000561213
0.000531291
0.000491082
0.000437545
0.000366656
0.000272687
0.000148288
1.61355e-05
0.000583944
0.000554319
0.000516299
0.000465027
0.00039497
0.000298728
0.000166195
1.85439e-05
0.00059898
0.00056858
0.000531455
0.000482212
0.000413775
0.000316938
0.000179133
2.04678e-05
0.000606421
0.000574904
0.00053719
0.000488779
0.000421862
0.000325628
0.000185633
2.1593e-05
0.000602921
0.000571146
0.000531012
0.000482625
0.000417198
0.000322543
0.000183843
2.16562e-05
0.000585708
0.000553284
0.000510938
0.000462581
0.000398562
0.000306416
0.000172872
2.05294e-05
0.000559455
0.000528979
0.000485638
0.000432012
0.000367291
0.000277946
0.000153119
1.82025e-05
0.00057129
0.000538994
0.000495937
0.000439657
0.000366699
0.000271691
0.00014755
1.62833e-05
0.000595375
0.000564271
0.000523333
0.000468648
0.00039571
0.000297779
0.000165269
1.87045e-05
0.00061015
0.000579515
0.000540325
0.000487548
0.000415498
0.000316161
0.000177978
2.06152e-05
0.000616798
0.000585437
0.000546733
0.00049539
0.000424682
0.000325431
0.000184588
2.17374e-05
0.000612769
0.000580128
0.00053959
0.000489902
0.00042108
0.000323455
0.000183496
2.18437e-05
0.00059614
0.000558504
0.0005175
0.000469449
0.000403135
0.000308677
0.000173613
2.07823e-05
0.000567269
0.000528392
0.000484769
0.000436312
0.000371472
0.000280662
0.000154385
1.84783e-05
0.000574076
0.000539048
0.000493763
0.000436067
0.000362566
0.000267886
0.000145195
1.63474e-05
0.000601261
0.000566611
0.00052234
0.000465216
0.000391015
0.000293108
0.00016226
1.87333e-05
0.000617913
0.000583877
0.000540751
0.000484473
0.000410153
0.000310268
0.000173961
2.05519e-05
0.000624014
0.00059027
0.00054806
0.000492772
0.000418984
0.000318565
0.000179667
2.15773e-05
0.000616933
0.000581939
0.000541639
0.000488173
0.000415879
0.000316608
0.000178357
2.16323e-05
0.000590003
0.000560251
0.00051821
0.000468874
0.000399183
0.000302907
0.00016911
2.05937e-05
0.000557343
0.000526749
0.000484659
0.000436312
0.00036849
0.000276027
0.000150788
1.83588e-05
0.00057077
0.000536729
0.000492848
0.000436717
0.000364422
0.00027008
0.000146882
1.6686e-05
0.000596506
0.000562655
0.000519441
0.000463771
0.000391029
0.000293987
0.000163236
1.90545e-05
0.000611393
0.00057844
0.00053595
0.000480649
0.000407657
0.000309006
0.000173647
2.07744e-05
0.000615355
0.000583268
0.000541699
0.000486895
0.000414034
0.000314915
0.000177763
2.16421e-05
0.000603869
0.000573573
0.000535232
0.000481423
0.000409419
0.000311185
0.000175135
2.15384e-05
0.000582147
0.000553105
0.00051541
0.000463008
0.000392608
0.000296748
0.000165168
2.03865e-05
0.000554772
0.000523971
0.000482589
0.000431349
0.000362651
0.000270385
0.00014717
1.81567e-05
0.000580975
0.000552014
0.000513491
0.00046216
0.00039235
0.000295001
0.00015941
1.95239e-05
0.000601344
0.000572858
0.000535385
0.000485339
0.000416662
0.000318634
0.000176608
2.20993e-05
0.000612172
0.000584417
0.00054745
0.000497966
0.000429778
0.000331651
0.000186642
2.38041e-05
0.000613697
0.000586397
0.000549624
0.000500126
0.000432058
0.000334295
0.000189193
2.43879e-05
0.000601851
0.000576503
0.000540893
0.000491476
0.000423571
0.00032676
0.000184206
2.38059e-05
0.000584306
0.000554119
0.000520965
0.000471478
0.000403917
0.000308856
0.000171729
2.21259e-05
0.000555432
0.000523942
0.000489112
0.000439793
0.000372859
0.000280508
0.00015208
1.95224e-05
6.4226e-06
4.00439e-05
5.86853e-05
6.66104e-05
6.88215e-05
6.75122e-05
6.42065e-05
6.02397e-05
6.41225e-06
3.99362e-05
5.85953e-05
6.66235e-05
6.90099e-05
6.79542e-05
6.49321e-05
6.11504e-05
6.4013e-06
3.98352e-05
5.85085e-05
6.66221e-05
6.91455e-05
6.82759e-05
6.5449e-05
6.17815e-05
6.39172e-06
3.97532e-05
5.84342e-05
6.66036e-05
6.92106e-05
6.84458e-05
6.57206e-05
6.2108e-05
6.38488e-06
3.97016e-05
5.83844e-05
6.65783e-05
6.92155e-05
6.848e-05
6.57761e-05
6.21705e-05
6.38095e-06
3.96783e-05
5.83577e-05
6.65496e-05
6.91747e-05
6.84107e-05
6.56672e-05
6.20328e-05
6.37972e-06
3.9679e-05
5.83517e-05
6.65249e-05
6.91147e-05
6.82947e-05
6.54829e-05
6.17987e-05
6.80353e-06
4.41656e-05
6.19967e-05
6.72662e-05
6.60183e-05
6.15231e-05
5.65306e-05
5.27734e-05
6.79041e-06
4.40517e-05
6.20211e-05
6.75907e-05
6.67905e-05
6.28327e-05
5.82962e-05
5.47392e-05
6.77657e-06
4.39436e-05
6.2023e-05
6.78291e-05
6.73711e-05
6.38065e-05
5.95786e-05
5.6115e-05
6.76427e-06
4.38504e-05
6.19926e-05
6.79398e-05
6.76737e-05
6.43117e-05
6.0224e-05
5.67808e-05
6.75521e-06
4.37874e-05
6.19519e-05
6.79519e-05
6.77402e-05
6.44129e-05
6.03297e-05
5.68691e-05
6.7498e-06
4.37528e-05
6.19055e-05
6.78875e-05
6.76259e-05
6.42042e-05
6.0014e-05
5.64984e-05
6.74817e-06
4.37434e-05
6.18549e-05
6.77734e-05
6.74139e-05
6.38618e-05
5.95474e-05
5.59706e-05
7.33672e-06
4.76276e-05
6.24574e-05
6.32895e-05
5.78907e-05
5.24308e-05
4.97988e-05
4.93582e-05
7.31088e-06
4.76904e-05
6.31136e-05
6.4549e-05
5.98037e-05
5.47371e-05
5.22385e-05
5.18096e-05
7.28496e-06
4.77166e-05
6.36012e-05
6.55708e-05
6.13991e-05
5.6646e-05
5.42118e-05
5.37053e-05
7.26296e-06
4.76845e-05
6.38219e-05
6.61074e-05
6.22619e-05
5.76636e-05
5.52212e-05
5.46079e-05
7.24768e-06
4.76319e-05
6.38589e-05
6.62527e-05
6.24748e-05
5.78389e-05
5.53122e-05
5.46294e-05
7.24026e-06
4.75632e-05
6.3748e-05
6.60987e-05
6.22043e-05
5.73676e-05
5.46578e-05
5.3902e-05
7.24074e-06
4.74623e-05
6.3469e-05
6.56787e-05
6.16292e-05
5.66679e-05
5.38933e-05
5.3134e-05
8.55667e-06
4.1978e-05
4.81293e-05
4.80568e-05
4.67552e-05
4.92844e-05
5.45166e-05
5.89709e-05
8.51601e-06
4.32499e-05
5.07759e-05
5.06024e-05
4.82758e-05
5.01285e-05
5.49417e-05
5.94156e-05
8.47556e-06
4.47082e-05
5.36451e-05
5.33664e-05
5.01769e-05
5.12253e-05
5.55911e-05
6.00851e-05
8.4442e-06
4.56051e-05
5.53867e-05
5.50466e-05
5.14441e-05
5.19768e-05
5.60395e-05
6.04789e-05
8.42395e-06
4.58774e-05
5.59518e-05
5.55698e-05
5.17827e-05
5.19964e-05
5.58555e-05
6.02079e-05
8.4149e-06
4.55834e-05
5.55156e-05
5.5191e-05
5.14362e-05
5.13847e-05
5.50316e-05
5.92293e-05
8.42051e-06
4.45408e-05
5.3826e-05
5.38244e-05
5.06429e-05
5.08394e-05
5.46376e-05
5.88508e-05
1.21409e-05
3.55229e-05
5.07952e-05
6.0827e-05
7.05489e-05
8.1959e-05
9.14124e-05
9.55253e-05
1.17784e-05
3.13811e-05
4.41093e-05
5.28509e-05
6.23676e-05
7.37122e-05
8.33606e-05
8.81814e-05
1.13508e-05
2.81277e-05
3.87972e-05
4.67366e-05
5.56585e-05
6.67678e-05
7.65746e-05
8.22954e-05
1.10254e-05
2.66682e-05
3.64757e-05
4.41645e-05
5.24844e-05
6.3222e-05
7.30228e-05
7.93285e-05
1.08736e-05
2.62848e-05
3.58555e-05
4.34199e-05
5.14147e-05
6.197e-05
7.17582e-05
7.81833e-05
1.08693e-05
2.65426e-05
3.61757e-05
4.36453e-05
5.14927e-05
6.19647e-05
7.17484e-05
7.79992e-05
1.10523e-05
2.73109e-05
3.74748e-05
4.5087e-05
5.31961e-05
6.39441e-05
7.39462e-05
8.01313e-05
3.29141e-05
0.000127233
0.000182105
0.000209678
0.000217249
0.000211989
0.000201285
0.000185866
3.34004e-05
0.000119309
0.000167195
0.000188887
0.000192159
0.00018587
0.000176795
0.000163589
3.3437e-05
0.000109032
0.000148115
0.000163322
0.000163974
0.000159408
0.00015353
0.000143154
3.2859e-05
0.000100132
0.000133069
0.000144895
0.000145873
0.000143775
0.000140149
0.000131758
3.23075e-05
9.59248e-05
0.000126924
0.000138192
0.000139867
0.000139004
0.000136382
0.000128784
3.17966e-05
9.60092e-05
0.000128432
0.00014086
0.000142678
0.000141683
0.000139118
0.000131607
3.15817e-05
9.89564e-05
0.000135078
0.000150123
0.000152118
0.000150632
0.000147539
0.000139784
6.41667e-06
4.02979e-05
5.9104e-05
6.70646e-05
6.91747e-05
6.75634e-05
6.37233e-05
5.91837e-05
6.43178e-06
4.04382e-05
5.92302e-05
6.71008e-05
6.90757e-05
6.72904e-05
6.32801e-05
5.8657e-05
6.44564e-06
4.05584e-05
5.93209e-05
6.70836e-05
6.88981e-05
6.69106e-05
6.27098e-05
5.79874e-05
6.45422e-06
4.06376e-05
5.9369e-05
6.70495e-05
6.87696e-05
6.66995e-05
6.24476e-05
5.7702e-05
6.45613e-06
4.06769e-05
5.93997e-05
6.70422e-05
6.87235e-05
6.6645e-05
6.24223e-05
5.76908e-05
6.45369e-06
4.0688e-05
5.94353e-05
6.70936e-05
6.87843e-05
6.6718e-05
6.24977e-05
5.77299e-05
6.44794e-06
4.0662e-05
5.9448e-05
6.71763e-05
6.89603e-05
6.70084e-05
6.28815e-05
5.81259e-05
6.80305e-06
4.47066e-05
6.29442e-05
6.83838e-05
6.70061e-05
6.18015e-05
5.55035e-05
5.04995e-05
6.82775e-06
4.49029e-05
6.3017e-05
6.81903e-05
6.64513e-05
6.08648e-05
5.43359e-05
4.9342e-05
6.85081e-06
4.50499e-05
6.29799e-05
6.78248e-05
6.56928e-05
5.97833e-05
5.31531e-05
4.82439e-05
6.86529e-06
4.51272e-05
6.28619e-05
6.74411e-05
6.51139e-05
5.92015e-05
5.27587e-05
4.80451e-05
6.86947e-06
4.51866e-05
6.28572e-05
6.73354e-05
6.50002e-05
5.92667e-05
5.31274e-05
4.86099e-05
6.86695e-06
4.52542e-05
6.30252e-05
6.75835e-05
6.53232e-05
5.96531e-05
5.35183e-05
4.89156e-05
6.85919e-06
4.52775e-05
6.32411e-05
6.80641e-05
6.60796e-05
6.05908e-05
5.44227e-05
4.96133e-05
7.38814e-06
4.91382e-05
6.52244e-05
6.67015e-05
6.11057e-05
5.33277e-05
4.74778e-05
4.48344e-05
7.43557e-06
4.92143e-05
6.48148e-05
6.56564e-05
5.93426e-05
5.11816e-05
4.5519e-05
4.32307e-05
7.47929e-06
4.90959e-05
6.39454e-05
6.409e-05
5.72957e-05
4.93435e-05
4.43416e-05
4.25718e-05
7.51109e-06
4.87973e-05
6.27432e-05
6.23765e-05
5.56515e-05
4.85486e-05
4.45645e-05
4.34202e-05
7.531e-06
4.88401e-05
6.24922e-05
6.20108e-05
5.56765e-05
4.93788e-05
4.62534e-05
4.56205e-05
7.54055e-06
4.92565e-05
6.33238e-05
6.30113e-05
5.68052e-05
5.04297e-05
4.71595e-05
4.63893e-05
7.53867e-06
4.97431e-05
6.46507e-05
6.49163e-05
5.89645e-05
5.21919e-05
4.81603e-05
4.67628e-05
8.52738e-06
5.00218e-05
6.0501e-05
5.81809e-05
5.17313e-05
4.62654e-05
4.5823e-05
4.79382e-05
8.61852e-06
4.82053e-05
5.62734e-05
5.36056e-05
4.78021e-05
4.35967e-05
4.44299e-05
4.70792e-05
8.71141e-06
4.53065e-05
5.07069e-05
4.85652e-05
4.47958e-05
4.31112e-05
4.54952e-05
4.87444e-05
8.79479e-06
4.21669e-05
4.56001e-05
4.45834e-05
4.34303e-05
4.45937e-05
4.86035e-05
5.2552e-05
8.83853e-06
4.22822e-05
4.54361e-05
4.48748e-05
4.50038e-05
4.76953e-05
5.29988e-05
5.77939e-05
8.84123e-06
4.46911e-05
4.84836e-05
4.72529e-05
4.67318e-05
4.88299e-05
5.40447e-05
5.8973e-05
8.81648e-06
4.82685e-05
5.41408e-05
5.20079e-05
4.94918e-05
4.93094e-05
5.3178e-05
5.7558e-05
1.00756e-05
3.24699e-05
4.04173e-05
4.56323e-05
4.86922e-05
5.35752e-05
6.20935e-05
6.82817e-05
1.0858e-05
3.31866e-05
4.28338e-05
4.84216e-05
5.23433e-05
5.92517e-05
6.72718e-05
7.21627e-05
1.18918e-05
3.74488e-05
5.10215e-05
5.90065e-05
6.4589e-05
7.09758e-05
7.7302e-05
8.05703e-05
1.28632e-05
4.28067e-05
6.09558e-05
7.22103e-05
7.94292e-05
8.4678e-05
8.92803e-05
9.11443e-05
1.29806e-05
4.50542e-05
6.49642e-05
7.81135e-05
8.68325e-05
9.28091e-05
9.79366e-05
0.00010042
1.24549e-05
4.33258e-05
6.12974e-05
7.36206e-05
8.24234e-05
8.98946e-05
9.66668e-05
0.000100667
1.15723e-05
3.96322e-05
5.32985e-05
6.27424e-05
7.02033e-05
7.90925e-05
8.79572e-05
9.39103e-05
2.67196e-05
9.72443e-05
0.000132696
0.000146172
0.000146163
0.00014333
0.000141544
0.000135342
2.79842e-05
0.00011666
0.00016297
0.000184717
0.000188577
0.000178289
0.000165704
0.00015136
2.94528e-05
0.000133213
0.000190992
0.000222279
0.000228835
0.000215255
0.000194857
0.000173217
3.04929e-05
0.000143695
0.00020934
0.000247174
0.000256701
0.000243515
0.000219949
0.00019392
3.04245e-05
0.000146452
0.000214015
0.000253958
0.000265317
0.000253462
0.000230589
0.000205116
2.96651e-05
0.000143086
0.000207187
0.00024498
0.000256151
0.000244714
0.000223719
0.000201267
2.87917e-05
0.000133196
0.000191053
0.000223257
0.000232051
0.000220203
0.000202431
0.000185105
6.44587e-06
4.06251e-05
5.94148e-05
6.71674e-05
6.89869e-05
6.70766e-05
6.29899e-05
5.82616e-05
6.44826e-06
4.05712e-05
5.93126e-05
6.70121e-05
6.87574e-05
6.67398e-05
6.25617e-05
5.78449e-05
6.45131e-06
4.05081e-05
5.91958e-05
6.68854e-05
6.86813e-05
6.67823e-05
6.27819e-05
5.82445e-05
6.4525e-06
4.04372e-05
5.90992e-05
6.68218e-05
6.87128e-05
6.69777e-05
6.31875e-05
5.88302e-05
6.4495e-06
4.03579e-05
5.90162e-05
6.67943e-05
6.87895e-05
6.72102e-05
6.36023e-05
5.93861e-05
6.44248e-06
4.02646e-05
5.89151e-05
6.67314e-05
6.87815e-05
6.72715e-05
6.37478e-05
5.96167e-05
6.43273e-06
4.01515e-05
5.87855e-05
6.66257e-05
6.86935e-05
6.7181e-05
6.36508e-05
5.9538e-05
6.85524e-06
4.52226e-05
6.32226e-05
6.81233e-05
6.62237e-05
6.07925e-05
5.46306e-05
4.97938e-05
6.85568e-06
4.50649e-05
6.28854e-05
6.75798e-05
6.54265e-05
5.97532e-05
5.35119e-05
4.88108e-05
6.85694e-06
4.48724e-05
6.25071e-05
6.71496e-05
6.51128e-05
5.9743e-05
5.39082e-05
4.9554e-05
6.85509e-06
4.47141e-05
6.23208e-05
6.70763e-05
6.52712e-05
6.0242e-05
5.47613e-05
5.06549e-05
6.84717e-06
4.45968e-05
6.22867e-05
6.72233e-05
6.56549e-05
6.08951e-05
5.56528e-05
5.16899e-05
6.83394e-06
4.44682e-05
6.22085e-05
6.72283e-05
6.57103e-05
6.098e-05
5.57933e-05
5.19181e-05
6.81756e-06
4.42939e-05
6.20245e-05
6.70533e-05
6.54607e-05
6.05736e-05
5.52626e-05
5.137e-05
7.52837e-06
4.97203e-05
6.47977e-05
6.52397e-05
5.93883e-05
5.25547e-05
4.83311e-05
4.67734e-05
7.50987e-06
4.90949e-05
6.34972e-05
6.34952e-05
5.73022e-05
5.05511e-05
4.66951e-05
4.54966e-05
7.49042e-06
4.83158e-05
6.20325e-05
6.20122e-05
5.61858e-05
5.03686e-05
4.73769e-05
4.66935e-05
7.46736e-06
4.7946e-05
6.16524e-05
6.18652e-05