/*--------------------------------*- C++ -*----------------------------------*\
| =========                 |                                                 |
| \\      /  F ield         | OpenFOAM: The Open Source CFD Toolbox           |
|  \\    /   O peration     | Version:  plus.master.MPPICInterFoam            |
|   \\  /    A nd           | Web:      www.OpenFOAM.com                      |
|    \\/     M anipulation  |                                                 |
\*---------------------------------------------------------------------------*/
FoamFile
{
    version     2.0;
    format      ascii;
    class       volScalarField;
    location    "3.2";
    object      p_rgh;
}
// * * * * * * * * * * * * * * * * * * * * * * * * * * * * * * * * * * * * * //

dimensions      [1 -1 -2 0 0 0 0];

internalField   nonuniform List<scalar> 
11822
(
4253.05
5417.08
5472.27
4256.72
4020.82
5144.17
5689.07
4882.17
5140.26
4907.59
4572.22
3604.87
4969.4
5687.77
5237.19
2267.77
1622.08
4835.3
5036.58
4574.97
5687.22
5180.25
2273.58
1714.82
4444.04
4749.53
4773.68
5687.63
5079.07
5465.97
5167.68
4646.16
3367.8
5220.46
5688.51
5261.47
5624.82
5443.75
4501.63
4052.3
5373.04
5689.98
5608.75
5501.81
5306.01
5295.9
5286.45
5382.55
5682.57
2556.65
3203.97
3062.29
2153.9
2214.41
4330.26
5683.22
2818.24
4822.21
4114.68
2154.39
2036.29
3754.86
5670.12
4805
1960.34
1480.98
3938.19
2380.07
3447.92
5637.14
4249.86
1812.75
1466.56
2857.9
2255.84
3550.38
5652.77
2350.76
4422.52
3745.09
2026.15
2033.11
4135.55
5684.31
2888.37
3159.37
2923.12
2183.14
2811.31
4889.89
5686.95
4993.29
4540.42
3990.49
4163.4
4747.57
5329.25
5670.24
2270.48
2000.65
1841.03
1836.26
2470.58
4444.96
5659.32
2270.2
2261.32
1742.03
1523.96
1934.46
4098.63
5708.63
2222.99
1392.01
1391.93
1448.52
1868.4
3952.98
5702.18
1636.03
1390.42
1391.7
1392.4
1786.22
3982.6
5707.66
1582.5
1538.08
1421.41
1486.82
2004.18
4426.02
5710.51
2014.99
1780.69
1679.07
1905.8
3151.87
4890.13
5679.48
4692.09
4203.05
3807.54
4171.09
4957.92
5426.63
5673.56
3835.61
3654.04
3445.23
3693.28
4579.14
5024.95
5622.8
3362.65
2663.94
2422.94
2622.13
3790.56
5321.87
5722.71
2673.01
1794.57
1504.31
2171.56
3711.2
5368.9
5733.35
2335.45
1584.23
1375.25
2100.43
3692.81
5380.25
5733.38
2477.57
1996.01
1961.27
2485.32
4085.26
5474.43
5724.26
3670.64
3153.69
3239.59
3852.14
5013.97
5146.07
5647.34
5200.19
5115.21
4966.15
5229.95
5574.33
5616.64
5691.17
5613.96
5595.91
5576.4
5636.17
5670.53
5418.37
5658.64
5444.47
5117.62
5128.92
5262.83
5544.41
5645.63
5719.33
5115.17
4801.99
4444.42
4997.08
5591.41
5736.1
5737.48
5135.14
4620.47
4381.23
5058.26
5606.81
5736.95
5737.03
5232.41
4927.64
4879.26
5258.26
5660.78
5702.63
5726.43
5548.99
5465.07
5525.46
5642.23
5715.27
5592.29
5687.23
5196.65
5572.62
5620.13
5693.39
5736.61
5716.57
5711.93
5744.54
5745.89
5745.17
5744.54
5677.99
5669.99
5717.25
5736.37
5743.11
5742.54
5716.65
5625.32
5657.05
5733.73
5742.85
5740.92
5692.52
5725.46
5739.14
5740.79
5742.35
5742.54
5739.89
5737.25
5730.24
5742.18
5743.46
5742.08
5742.82
5741.1
5740.72
5732.62
5728.78
5721.27
5738.17
5692.66
5742.92
5743.27
5741.4
5731.51
5741.87
5734.83
4667.36
5356.01
5469.54
5702.89
5742.42
5738.72
5731.88
5692.25
5678.66
5694.33
5697.49
5698.6
5699.4
5699.88
5700.18
5691.98
5694.75
5696.57
5698.09
5699.12
5699.85
5700.33
5700.69
5691.61
5693.16
5695.32
5698.11
5699.23
5700.03
5700.57
5701
5691.25
5687.91
5693.48
5698.17
5699.31
5700.15
5700.71
5701.17
5692.4
5693.24
5695.82
5698.33
5699.43
5700.22
5700.76
5701.2
5693.28
5695.51
5697.23
5698.55
5699.54
5700.26
5700.74
5701.11
5694.1
5695.62
5697.04
5698.31
5699.32
5700.04
5700.5
5700.83
5691.19
5685.37
5696.61
5700.33
5702.15
5703.51
5704.47
5705.04
5690.46
5694.97
5697.97
5700.73
5702.61
5703.99
5704.99
5705.6
5689.66
5690.15
5695.36
5700.78
5702.74
5704.2
5705.28
5705.95
5689.85
5687.97
5695.19
5700.89
5702.86
5704.34
5705.43
5706.12
5690.83
5694.1
5697.81
5701.11
5703.01
5704.42
5705.46
5706.13
5692.33
5696.21
5699.2
5701.47
5703.16
5704.44
5705.38
5705.98
5694.02
5696.96
5699.47
5701.5
5703.07
5704.25
5705.12
5705.66
5710.11
5708.19
5712.64
5713.73
5714.3
5714.85
5715.39
5715.82
5710.81
5709.87
5711.56
5713.59
5714.23
5714.85
5715.46
5715.93
5710.07
5704.18
5710.02
5713.58
5714.24
5714.88
5715.51
5716.01
5710.36
5706.03
5710.69
5713.54
5714.2
5714.84
5715.48
5715.99
5711.03
5711.46
5712.54
5713.48
5714.12
5714.74
5715.37
5715.87
5711.21
5712.05
5712.83
5713.49
5714.09
5714.67
5715.26
5715.72
5711.35
5712.3
5713.06
5713.63
5714.12
5714.62
5715.15
5715.56
5730.16
5727.85
5728.03
5727.46
5726.77
5726.44
5726.42
5726.56
5729.06
5721.67
5725.77
5726.59
5726.1
5725.92
5726
5726.2
5727.61
5720.9
5724.92
5726.44
5725.9
5725.69
5725.77
5725.98
5727.36
5724.54
5726.61
5726.26
5725.69
5725.48
5725.56
5725.77
5730.6
5728.27
5726.86
5725.95
5725.44
5725.26
5725.36
5725.58
5729.6
5727.8
5726.54
5725.73
5725.28
5725.14
5725.26
5725.48
5728.16
5727.78
5726.82
5726
5725.46
5725.26
5725.34
5725.53
5736.91
5736.02
5734.76
5733.69
5732.89
5732.51
5732.56
5732.73
5733.93
5730.81
5732.61
5732.68
5732.07
5731.82
5731.97
5732.21
5730.83
5726.3
5731.68
5732.36
5731.71
5731.45
5731.6
5731.86
5730.43
5731.79
5733.03
5732.07
5731.4
5731.14
5731.31
5731.59
5735.53
5733.98
5732.68
5731.71
5731.09
5730.86
5731.07
5731.36
5735.16
5733.61
5732.36
5731.45
5730.89
5730.72
5730.96
5731.26
5731.64
5733.67
5732.57
5731.63
5731.03
5730.85
5731.07
5731.36
5729
5738.03
5739.9
5739.16
5738.54
5738.22
5738.26
5738.6
5738.16
5736
5739.08
5738.21
5737.62
5737.36
5737.49
5737.97
5735.35
5735.05
5738.34
5737.72
5737.1
5736.84
5737.04
5737.63
5736
5738.22
5738.25
5737.32
5736.72
5736.5
5736.78
5737.47
5740.39
5739.04
5737.89
5737.04
5736.5
5736.36
5736.71
5737.46
5739.68
5738.72
5737.67
5736.92
5736.5
5736.45
5736.86
5737.63
5737.37
5738.71
5737.85
5737.22
5736.9
5736.91
5737.34
5738.06
5641.1
5183.81
5307.63
5686.24
5696.43
5697.13
5697.43
5697.49
5251.1
5559.03
5282.6
5395.04
5693.3
5696.62
5696.96
5697.01
5267.34
5415.84
5570.79
5569.23
5694.51
5695.64
5696.11
5696.21
5476.08
5305.67
5643.68
5678.23
5693.86
5695.21
5695.72
5695.84
5455.52
5207.13
5668.62
5674.2
5671.12
5690.07
5694.94
5696.23
4332.23
5385.72
5690.14
5591.94
5346.55
5603.42
5697.49
5697.47
5292.9
5692.53
5683.45
5276.23
5005.57
5654.88
5698.33
5698.26
5593.77
5167.68
5529.68
5695.12
5697.46
5699.04
5700.08
5700.77
3985.38
5402.94
5620.64
5671.63
5695.42
5697.81
5699.22
5700.08
2828.97
4202.44
5485.6
5687.87
5692.71
5695.76
5697.75
5698.91
3085.36
3420.59
5305
5685.74
5691.24
5694.7
5696.97
5698.33
3392.09
3288.63
5324.01
5685.92
5692
5695.37
5697.48
5698.74
2708.48
4063.37
5584.21
5543.92
5627.57
5690.6
5699.13
5699.99
4283.73
5567.98
5624.9
5010.82
5347.79
5693.08
5700.45
5700.84
5254.37
5157.37
5661.21
5711.36
5711.73
5712.26
5712.91
5713.47
3747.35
5355.03
5698.34
5711.42
5711.94
5712.58
5713.31
5713.94
2035.55
3889.92
5495.99
5711.04
5711.61
5712.47
5713.49
5714.39
1773.13
3025.44
5201.46
5710.71
5711.32
5712.27
5713.51
5714.64
2014.65
3159.83
5229.68
5711.07
5711.62
5712.49
5713.63
5714.69
2576.1
3899.56
5485.65
5500.86
5665.2
5712.9
5713.64
5714.31
4026.75
5495.77
5373.84
5071.4
5623.79
5712.93
5713.36
5713.7
4633.54
5139.66
5730.7
5729.07
5727.87
5727.35
5727.35
5727.6
4900.66
5502.85
5723.01
5731.24
5729.54
5728.7
5728.56
5728.76
3679.25
4942.5
5620.59
5733.9
5731.53
5730.34
5730.09
5730.35
3284.58
4487.04
5495.76
5735.26
5732.55
5731.18
5730.92
5731.26
3678.48
4670.08
5512.07
5735.05
5732.34
5731
5730.73
5731.06
4270.06
4971.7
5518.61
5541.36
5708.28
5729.93
5729.56
5729.71
4881.77
5479.01
5047.13
5348.59
5722.35
5728.68
5728.28
5728.27
4550.3
5335.45
5737.81
5736.67
5735.77
5735.32
5735.37
5735.62
5594.43
5579.33
5729.42
5737.73
5736.74
5736.22
5736.21
5736.41
5595.44
5698.11
5724.11
5738.72
5738.21
5737.5
5737.39
5737.56
5520.19
5679.51
5710.82
5737.79
5738.98
5738.19
5738.04
5738.23
5584.6
5707.54
5718.43
5737.89
5738.25
5738.02
5737.86
5738.05
5633.77
5650.9
5559.31
5655.04
5735.16
5737.15
5736.95
5737.05
5603.58
5074.07
5022.73
5635.65
5737.15
5736.37
5736.11
5736.13
4625.7
5657.43
5744.23
5743.06
5742.01
5741.25
5740.92
5740.99
5600.42
5615.46
5740.91
5743.28
5742.22
5741.36
5740.87
5740.84
5744.56
5732.92
5744.08
5743.84
5742.8
5741.78
5741.11
5740.96
5744.5
5742.82
5739.35
5743.17
5743.03
5741.99
5741.22
5741
5744.66
5744.85
5743.68
5742.09
5740.26
5741.69
5741.06
5740.79
5704.61
5645.11
5631.74
5734.57
5741.28
5741.39
5740.67
5740.38
5552.03
4926.13
5109.24
5730.74
5742.33
5741.22
5740.44
5740.15
5264.98
5693.11
5694.46
5293.79
4938.97
5402.82
5698.41
5698.34
5113.45
5688.64
5692.59
5520.4
4936.73
5381.92
5697.99
5698.03
5051.38
5670.01
5690.19
5675.63
5370.54
5601.66
5697.3
5697.53
5088.25
5684.88
5691.14
5686.71
5692.2
5694.67
5697.4
5697.78
5320.66
5689.02
5692.56
5694.66
5696.36
5697.4
5698.05
5698.39
5131.29
5648.54
5694.54
5696.23
5697.45
5698.31
5698.84
5699.1
5522.28
5610.35
5695.73
5697.04
5698.12
5698.93
5699.41
5699.63
3914.67
5601.91
5689.67
5001.86
4922.89
5488.09
5700.4
5700.81
3365.43
5482.63
5688.31
5438.99
4922.79
5401.52
5700.58
5701.28
3063.24
5359.57
5687.5
5540.38
5300.74
5623.37
5700.35
5701.38
3288.59
5466.08
5688.94
5659.1
5674.84
5697.42
5701.02
5702.12
4319.67
5656.79
5691.94
5695.76
5698.5
5700.57
5702.08
5703.02
5057.71
5626.87
5695.06
5698
5700.21
5701.88
5703.06
5703.8
5541.5
5621.47
5697.2
5699.55
5701.43
5702.84
5703.82
5704.41
3778.74
5501.03
5641.13
4967.97
4978.6
5613.66
5713.28
5713.6
3300.8
5437.35
5711.41
5118.45
4968.91
5558.82
5713.67
5714.32
2953.47
5356.29
5710.92
5131.41
5347.21
5695.85
5714.35
5715.18
3301.65
5439.6
5707.53
5644.25
5682.31
5713.56
5715
5715.81
4419.44
5652.66
5712.85
5713.27
5713.76
5714.42
5715.21
5715.89
5216.62
5678.05
5712.68
5713.21
5713.82
5714.47
5715.13
5715.67
5604.12
5682.08
5712.76
5713.45
5714.07
5714.64
5715.18
5715.61
4977.51
5544.6
5231.97
4972.77
5318.9
5713.05
5728.11
5728.13
4861.34
5570.48
5523.21
4973.31
5332.22
5709.59
5728.48
5728.69
4678.51
5577.32
5631.53
5116.85
5534.24
5729.04
5728.89
5729.18
4883.49
5591.73
5622.83
5659.98
5713.94
5729.03
5728.87
5729.11
5360.59
5687.75
5730.47
5730.06
5728.83
5728.22
5728.14
5728.35
5575.02
5727.39
5729.6
5728.35
5727.6
5727.25
5727.25
5727.43
5692.54
5728.1
5728.55
5727.76
5727.1
5726.74
5726.71
5726.85
5629.81
5434.11
4920.43
5006.03
5649.11
5736.3
5736.03
5736.07
5656.44
5574.27
4956.47
4984.69
5642.66
5736.21
5736.01
5736.16
5672.69
5569.86
5032.86
5397.94
5710.65
5736.16
5735.97
5736.11
5711.18
5593.12
5555.29
5698.28
5734.23
5735.69
5735.54
5735.66
5733.5
5726.72
5737.3
5736.19
5735.3
5734.78
5734.71
5734.85
5725.88
5737
5735.84
5734.9
5734.18
5733.79
5733.81
5733.97
5734.35
5736.13
5735.18
5734.27
5733.46
5733.06
5733.09
5733.25
5629.32
5009.39
4906.09
5420.05
5741.2
5741.05
5740.29
5740.03
5670.64
5190.6
4906.25
5298.65
5738.85
5740.88
5740.08
5739.83
5676.44
5169.67
4940.88
5652.04
5741.93
5740.76
5739.96
5739.7
5710.7
5558.06
5582.81
5734.7
5741.4
5740.37
5739.69
5739.51
5743.41
5743.62
5742.71
5741.66
5740.65
5739.82
5739.34
5739.29
5743
5742.39
5740.78
5740.65
5739.84
5739.26
5739.01
5739.1
5742.08
5740.85
5740.42
5739.81
5739.15
5738.77
5738.71
5738.94
5691.22
5695.55
5696.84
5698.01
5698.98
5699.69
5700.14
5700.44
5671.92
5694.59
5696.23
5697.51
5698.51
5699.25
5699.73
5700.02
5676.49
5693.09
5695.05
5696.55
5697.71
5698.56
5699.11
5699.45
5686.53
5691
5694.04
5695.56
5697
5697.91
5698.49
5698.85
5640.06
5333.77
5442.17
5687.11
5696.65
5697.5
5698.02
5698.3
5570
4667.25
4921.55
5619.6
5696.8
5697.45
5697.81
5697.99
5593.9
4823.21
4671.17
5328.45
5696.38
5697.14
5697.49
5697.6
5690.37
5696.68
5699.07
5701.05
5702.63
5703.84
5704.73
5705.29
5677.27
5694.36
5697.47
5699.86
5701.7
5703.11
5704.15
5704.82
5680.22
5691.64
5695.43
5698.3
5700.5
5702.18
5703.41
5704.2
5679.07
5689.15
5693.61
5696.49
5699.33
5701.23
5702.6
5703.46
5620.94
5393.44
5396.85
5668.38
5698.42
5700.37
5701.78
5702.66
5616.5
4600.83
4738.39
5575.12
5698.04
5699.83
5701.11
5701.91
5612.37
4839.42
4637.99
5304.75
5697.72
5699.37
5700.51
5701.18
5708.9
5712.03
5712.76
5713.38
5713.91
5714.44
5714.98
5715.42
5710.35
5711.2
5711.96
5712.69
5713.38
5714.06
5714.73
5715.26
5710.25
5710.93
5711.55
5712.25
5713
5713.76
5714.53
5715.14
5706.47
5710.52
5711.31
5711.63
5712.6
5713.43
5714.26
5714.93
5622.55
5396.32
5452.06
5694.27
5712.01
5712.88
5713.79
5714.53
5634.62
4574.93
4757.29
5614.64
5711.47
5712.33
5713.25
5714.01
5629.68
4655.91
4635.9
5440.72
5711.31
5712.03
5712.85
5713.51
5727.35
5727.73
5726.85
5726.09
5725.57
5725.35
5725.43
5725.63
5729.82
5728.03
5726.76
5725.96
5725.51
5725.38
5725.52
5725.77
5729.12
5729.42
5727.6
5726.53
5725.93
5725.72
5725.83
5726.1
5696.31
5730.02
5728.75
5727.15
5726.42
5726.12
5726.21
5726.5
5397.41
5279.23
5595.27
5726.9
5726.61
5726.28
5726.42
5726.77
4981.21
4545.59
4975.74
5704.74
5726.74
5726.44
5726.63
5727.02
4801.76
4548.42
4814.78
5668.99
5727.33
5726.85
5726.93
5727.24
5733.81
5733.86
5732.85
5731.92
5731.3
5731.09
5731.3
5731.6
5735.51
5734.22
5733.1
5732.2
5731.62
5731.42
5731.65
5731.98
5736.64
5735.27
5733.74
5733.01
5732.35
5732.06
5732.23
5732.54
5634.08
5725.64
5734.41
5733.87
5733.17
5732.8
5732.92
5733.21
4718.43
5300.4
5718.37
5734
5733.82
5733.43
5733.54
5733.85
4535.9
4530.64
5400.44
5735.33
5734.46
5734.08
5734.21
5734.54
4531.56
4531.86
5223.77
5735.93
5735.24
5734.76
5734.83
5735.11
5737.8
5738.44
5738.18
5737.52
5737.17
5737.16
5737.57
5738.28
5740.58
5738.32
5738.71
5737.95
5737.47
5737.34
5737.66
5738.36
5741.65
5740.59
5739.15
5738.74
5738.13
5737.8
5737.97
5738.56
5605.39
5724.44
5738.91
5739.6
5738.97
5738.47
5738.46
5738.92
4522.71
5470.41
5740.69
5739.4
5739.74
5739.21
5739.07
5739.4
4516
4737.1
5679.84
5741.71
5740.66
5740.05
5739.82
5740.05
4514.9
4526.45
5579.17
5742.65
5741.57
5740.87
5740.6
5740.74
5707.78
5707.73
5707.71
5707.72
5707.74
5707.77
5707.81
5707.86
5708.04
5707.99
5707.98
5707.99
5708.01
5708.05
5708.1
5708.14
5708.27
5708.23
5708.22
5708.23
5708.27
5708.31
5708.36
5708.41
5708.46
5708.43
5708.42
5708.44
5708.48
5708.53
5708.58
5708.63
5708.61
5708.57
5708.57
5708.59
5708.64
5708.69
5708.75
5708.8
5708.69
5708.66
5708.66
5708.68
5708.73
5708.78
5708.84
5708.9
5708.72
5708.68
5708.68
5708.71
5708.75
5708.81
5708.87
5708.93
5707.64
5707.57
5707.56
5707.59
5707.64
5707.7
5707.77
5707.84
5707.95
5707.88
5707.87
5707.91
5707.96
5708.03
5708.11
5708.18
5708.21
5708.16
5708.16
5708.2
5708.26
5708.34
5708.42
5708.5
5708.44
5708.4
5708.4
5708.45
5708.51
5708.59
5708.68
5708.76
5708.61
5708.57
5708.57
5708.62
5708.7
5708.78
5708.87
5708.95
5708.7
5708.66
5708.67
5708.72
5708.8
5708.88
5708.97
5709.06
5708.72
5708.68
5708.69
5708.74
5708.82
5708.91
5709
5709.09
5707.41
5707.33
5707.3
5707.33
5707.39
5707.46
5707.57
5707.69
5707.79
5707.7
5707.68
5707.72
5707.77
5707.86
5707.97
5708.1
5708.14
5708.05
5708.03
5708.07
5708.14
5708.23
5708.35
5708.48
5708.41
5708.33
5708.32
5708.36
5708.43
5708.53
5708.66
5708.8
5708.6
5708.52
5708.51
5708.57
5708.64
5708.75
5708.88
5709.02
5708.7
5708.62
5708.61
5708.67
5708.75
5708.86
5709
5709.14
5708.71
5708.63
5708.62
5708.68
5708.77
5708.88
5709.02
5709.16
5706.74
5706.58
5706.55
5706.6
5706.71
5706.89
5707.12
5707.38
5707.17
5707.02
5707
5707.06
5707.19
5707.37
5707.62
5707.89
5707.56
5707.42
5707.41
5707.48
5707.63
5707.83
5708.09
5708.36
5707.87
5707.73
5707.73
5707.82
5707.98
5708.2
5708.47
5708.74
5708.08
5707.95
5707.95
5708.05
5708.22
5708.45
5708.72
5709
5708.19
5708.06
5708.06
5708.16
5708.33
5708.57
5708.85
5709.13
5708.19
5708.06
5708.07
5708.16
5708.33
5708.56
5708.84
5709.13
5705.7
5705.69
5705.82
5706.05
5706.27
5706.52
5706.84
5707.22
5706.26
5706.26
5706.41
5706.63
5706.83
5707.08
5707.41
5707.81
5706.77
5706.8
5706.98
5707.22
5707.39
5707.63
5707.97
5708.38
5707.14
5707.19
5707.39
5707.64
5707.81
5708.07
5708.42
5708.83
5707.36
5707.41
5707.62
5707.87
5708.07
5708.34
5708.71
5709.13
5707.43
5707.48
5707.69
5707.95
5708.18
5708.46
5708.83
5709.26
5707.37
5707.43
5707.64
5707.9
5708.15
5708.43
5708.8
5709.24
5702.01
5702.85
5703.8
5704.73
5705.81
5706.73
5707.4
5707.87
5702.59
5703.52
5704.47
5705.41
5706.47
5707.38
5708.05
5708.54
5703.14
5704.16
5705.13
5706.15
5707.15
5708
5708.66
5709.18
5703.59
5704.63
5705.6
5706.59
5707.58
5708.44
5709.13
5709.69
5703.88
5704.92
5705.88
5706.82
5707.83
5708.72
5709.44
5710.02
5704.03
5705.06
5706.02
5706.93
5707.96
5708.86
5709.59
5710.17
5704.04
5705.07
5706.08
5707.02
5707.98
5708.83
5709.55
5710.13
5707.3
5707.26
5707.24
5707.24
5707.27
5707.3
5707.34
5707.39
5707.05
5707
5706.98
5706.98
5707
5707.03
5707.07
5707.11
5706.82
5706.77
5706.75
5706.74
5706.76
5706.79
5706.82
5706.87
5706.64
5706.59
5706.56
5706.55
5706.56
5706.59
5706.62
5706.67
5706.51
5706.46
5706.43
5706.42
5706.42
5706.45
5706.48
5706.52
5706.43
5706.38
5706.35
5706.34
5706.35
5706.37
5706.4
5706.43
5706.41
5706.36
5706.33
5706.32
5706.33
5706.35
5706.38
5706.41
5707.07
5707
5706.98
5707.02
5707.08
5707.15
5707.23
5707.31
5706.77
5706.7
5706.67
5706.69
5706.75
5706.82
5706.9
5706.98
5706.5
5706.42
5706.38
5706.4
5706.46
5706.52
5706.61
5706.69
5706.29
5706.2
5706.14
5706.17
5706.22
5706.29
5706.37
5706.45
5706.14
5706.05
5706.02
5706.02
5706.07
5706.13
5706.21
5706.29
5706.06
5705.97
5705.94
5705.95
5705.99
5706.05
5706.12
5706.2
5706.04
5705.96
5705.93
5705.94
5705.99
5706.05
5706.12
5706.19
5706.7
5706.61
5706.6
5706.65
5706.72
5706.82
5706.94
5707.08
5706.34
5706.23
5706.21
5706.25
5706.32
5706.41
5706.54
5706.69
5706.01
5705.9
5705.86
5705.89
5705.96
5706.05
5706.18
5706.33
5705.76
5705.63
5705.6
5705.61
5705.68
5705.77
5705.89
5706.05
5705.58
5705.45
5705.4
5705.43
5705.5
5705.58
5705.71
5705.86
5705.5
5705.37
5705.32
5705.35
5705.42
5705.51
5705.63
5705.78
5705.5
5705.38
5705.34
5705.38
5705.45
5705.54
5705.66
5705.8
5705.85
5705.72
5705.73
5705.83
5705.94
5706.12
5706.36
5706.65
5705.41
5705.25
5705.25
5705.33
5705.43
5705.6
5705.86
5706.17
5705.02
5704.85
5704.83
5704.89
5704.99
5705.15
5705.41
5705.74
5704.72
5704.54
5704.51
5704.56
5704.65
5704.82
5705.08
5705.41
5704.53
5704.35
5704.31
5704.36
5704.46
5704.62
5704.88
5705.2
5704.45
5704.27
5704.25
5704.31
5704.41
5704.57
5704.82
5705.13
5704.45
5704.29
5704.29
5704.38
5704.49
5704.67
5704.9
5705.2
5704.56
5704.58
5704.79
5705.08
5705.34
5705.52
5705.81
5706.25
5703.97
5703.94
5704.09
5704.36
5704.62
5704.86
5705.21
5705.69
5703.44
5703.35
5703.46
5703.71
5704.01
5704.32
5704.72
5705.22
5703.03
5702.91
5702.99
5703.25
5703.59
5703.97
5704.4
5704.91
5702.8
5702.68
5702.77
5703.03
5703.38
5703.78
5704.22
5704.71
5702.74
5702.64
5702.75
5703.02
5703.37
5703.73
5704.16
5704.63
5702.81
5702.74
5702.9
5703.21
5703.54
5703.86
5704.24
5704.7
5700.66
5701.11
5702.31
5703.41
5704.36
5705.14
5705.8
5706.47
5699.84
5700.16
5701.31
5702.36
5703.43
5704.44
5705.25
5705.96
5699.05
5699.4
5700.51
5701.66
5702.88
5704.01
5704.85
5705.54
5698.51
5698.85
5699.98
5701.22
5702.58
5703.77
5704.61
5705.27
5698.26
5698.57
5699.74
5701.03
5702.41
5703.61
5704.44
5705.07
5698.22
5698.43
5699.7
5700.99
5702.34
5703.51
5704.32
5704.93
5698.19
5698.48
5699.83
5701.14
5702.43
5703.56
5704.34
5704.93
5706.44
5706.39
5706.36
5706.35
5706.36
5706.38
5706.41
5706.44
5706.51
5706.45
5706.42
5706.42
5706.43
5706.45
5706.48
5706.51
5706.63
5706.57
5706.54
5706.54
5706.55
5706.57
5706.6
5706.64
5706.79
5706.74
5706.71
5706.71
5706.72
5706.74
5706.78
5706.81
5707.01
5706.95
5706.92
5706.92
5706.93
5706.96
5707
5707.04
5707.25
5707.2
5707.17
5707.17
5707.19
5707.22
5707.25
5707.29
5707.51
5707.46
5707.44
5707.44
5707.46
5707.49
5707.53
5707.57
5706.07
5705.99
5705.96
5705.98
5706.02
5706.08
5706.15
5706.22
5706.15
5706.06
5706.02
5706.05
5706.1
5706.16
5706.23
5706.3
5706.28
5706.2
5706.16
5706.18
5706.23
5706.29
5706.36
5706.44
5706.47
5706.39
5706.36
5706.38
5706.43
5706.49
5706.57
5706.64
5706.72
5706.64
5706.61
5706.63
5706.68
5706.75
5706.82
5706.9
5707.01
5706.94
5706.91
5706.93
5706.98
5707.05
5707.12
5707.19
5707.32
5707.25
5707.23
5707.26
5707.31
5707.37
5707.44
5707.51
5705.54
5705.42
5705.39
5705.43
5705.51
5705.6
5705.71
5705.84
5705.62
5705.51
5705.49
5705.51
5705.59
5705.67
5705.79
5705.92
5705.76
5705.64
5705.61
5705.65
5705.72
5705.81
5705.93
5706.07
5705.97
5705.86
5705.83
5705.87
5705.94
5706.03
5706.16
5706.3
5706.27
5706.16
5706.13
5706.17
5706.24
5706.34
5706.46
5706.6
5706.63
5706.52
5706.5
5706.54
5706.61
5706.69
5706.81
5706.95
5707.03
5706.93
5706.9
5706.94
5707
5707.07
5707.18
5707.3
5704.5
5704.35
5704.35
5704.45
5704.57
5704.75
5704.98
5705.26
5704.59
5704.43
5704.43
5704.52
5704.64
5704.81
5705.05
5705.34
5704.74
5704.57
5704.57
5704.65
5704.76
5704.95
5705.2
5705.5
5704.98
5704.81
5704.8
5704.88
5705.01
5705.2
5705.46
5705.77
5705.33
5705.16
5705.15
5705.23
5705.37
5705.56
5705.82
5706.12
5705.78
5705.62
5705.61
5705.68
5705.81
5705.99
5706.24
5706.52
5706.27
5706.12
5706.1
5706.15
5706.27
5706.44
5706.67
5706.93
5702.89
5702.84
5703.03
5703.35
5703.68
5703.99
5704.35
5704.78
5702.94
5702.89
5703.07
5703.39
5703.74
5704.08
5704.46
5704.88
5703.06
5703.01
5703.17
5703.5
5703.88
5704.27
5704.66
5705.1
5703.33
5703.28
5703.44
5703.79
5704.17
5704.58
5704.98
5705.42
5703.78
5703.73
5703.91
5704.24
5704.61
5704.99
5705.39
5705.83
5704.4
5704.37
5704.55
5704.86
5705.17
5705.5
5705.87
5706.28
5705.08
5705.07
5705.24
5705.51
5705.77
5706.04
5706.36
5706.73
5698.28
5698.61
5700.01
5701.33
5702.61
5703.72
5704.46
5705.01
5698.37
5698.74
5700.1
5701.47
5702.81
5703.93
5704.66
5705.19
5698.43
5699.01
5700.29
5701.7
5703.13
5704.27
5705
5705.51
5698.66
5699.35
5700.58
5702.07
5703.57
5704.7
5705.42
5705.92
5699.15
5699.92
5701.14
5702.62
5704.1
5705.19
5705.89
5706.38
5700.06
5700.85
5702.02
5703.37
5704.72
5705.74
5706.41
5706.87
5701.15
5701.96
5703.07
5704.22
5705.36
5706.29
5706.92
5707.35
5708.68
5708.65
5708.65
5708.67
5708.72
5708.78
5708.84
5708.9
5708.59
5708.56
5708.56
5708.59
5708.63
5708.69
5708.75
5708.81
5708.46
5708.42
5708.42
5708.44
5708.49
5708.55
5708.61
5708.67
5708.28
5708.24
5708.23
5708.26
5708.3
5708.35
5708.41
5708.47
5708.06
5708.02
5708.01
5708.03
5708.07
5708.12
5708.18
5708.23
5707.81
5707.78
5707.77
5707.78
5707.82
5707.86
5707.91
5707.96
5707.56
5707.52
5707.51
5707.52
5707.55
5707.59
5707.63
5707.68
5708.67
5708.63
5708.64
5708.7
5708.77
5708.87
5708.96
5709.06
5708.56
5708.52
5708.53
5708.59
5708.67
5708.76
5708.86
5708.96
5708.4
5708.35
5708.36
5708.42
5708.5
5708.59
5708.7
5708.79
5708.19
5708.14
5708.14
5708.2
5708.28
5708.37
5708.47
5708.56
5707.94
5707.88
5707.88
5707.94
5708.01
5708.1
5708.19
5708.28
5707.66
5707.59
5707.6
5707.65
5707.72
5707.8
5707.89
5707.97
5707.38
5707.31
5707.3
5707.34
5707.41
5707.48
5707.56
5707.64
5708.64
5708.56
5708.55
5708.61
5708.7
5708.82
5708.96
5709.12
5708.5
5708.41
5708.41
5708.48
5708.57
5708.69
5708.85
5709.01
5708.28
5708.21
5708.21
5708.28
5708.37
5708.5
5708.66
5708.82
5708.02
5707.95
5707.95
5708.02
5708.11
5708.24
5708.39
5708.55
5707.73
5707.66
5707.66
5707.73
5707.81
5707.92
5708.07
5708.23
5707.42
5707.35
5707.33
5707.39
5707.48
5707.58
5707.72
5707.87
5707.07
5706.99
5706.98
5707.03
5707.12
5707.22
5707.34
5707.48
5708.09
5707.95
5707.96
5708.06
5708.23
5708.47
5708.76
5709.07
5707.91
5707.76
5707.77
5707.88
5708.07
5708.33
5708.64
5708.96
5707.65
5707.51
5707.53
5707.64
5707.84
5708.1
5708.41
5708.74
5707.35
5707.21
5707.23
5707.34
5707.53
5707.78
5708.1
5708.42
5707.02
5706.88
5706.9
5707
5707.17
5707.41
5707.71
5708.04
5706.66
5706.54
5706.56
5706.66
5706.8
5707.02
5707.3
5707.61
5706.28
5706.16
5706.18
5706.29
5706.42
5706.61
5706.86
5707.15
5707.21
5707.25
5707.45
5707.73
5708
5708.31
5708.71
5709.16
5706.97
5707
5707.19
5707.49
5707.78
5708.13
5708.56
5709.05
5706.66
5706.69
5706.9
5707.21
5707.5
5707.86
5708.3
5708.8
5706.29
5706.33
5706.54
5706.84
5707.14
5707.49
5707.92
5708.43
5705.9
5705.93
5706.14
5706.44
5706.73
5707.04
5707.46
5707.95
5705.51
5705.55
5705.76
5706.06
5706.33
5706.58
5706.95
5707.41
5705.09
5705.13
5705.36
5705.67
5705.94
5706.12
5706.42
5706.85
5703.83
5704.81
5705.81
5706.74
5707.74
5708.67
5709.45
5710.06
5703.48
5704.34
5705.26
5706.24
5707.41
5708.48
5709.31
5709.96
5703.04
5703.87
5704.86
5705.94
5707.12
5708.17
5709
5709.66
5702.61
5703.38
5704.43
5705.5
5706.67
5707.71
5708.53
5709.21
5702.2
5702.86
5703.95
5705.01
5706.12
5707.11
5707.92
5708.6
5701.82
5702.38
5703.53
5704.61
5705.62
5706.46
5707.19
5707.88
5701.37
5701.87
5703.07
5704.17
5705.06
5705.8
5706.46
5707.14
5708.79
5708.92
5708.89
5707.89
5707.91
5707.93
5707.94
5707.95
5707.95
5707.95
5707.94
5708.18
5708.2
5708.22
5708.24
5708.25
5708.25
5708.24
5708.23
5708.45
5708.47
5708.49
5708.51
5708.52
5708.52
5708.51
5708.51
5708.67
5708.7
5708.72
5708.74
5708.75
5708.75
5708.74
5708.74
5708.84
5708.87
5708.89
5708.91
5708.92
5708.92
5708.92
5708.91
5708.94
5708.97
5708.99
5709.01
5709.02
5709.02
5709.02
5709.01
5708.98
5709.01
5709.04
5709.07
5709.09
5709.09
5709.08
5709.08
5707.9
5707.94
5707.97
5708
5708.02
5708.02
5708.02
5708.01
5708.24
5708.28
5708.31
5708.34
5708.36
5708.36
5708.36
5708.35
5708.55
5708.59
5708.63
5708.65
5708.67
5708.68
5708.67
5708.66
5708.82
5708.86
5708.89
5708.92
5708.94
5708.94
5708.94
5708.93
5709.01
5709.06
5709.09
5709.12
5709.14
5709.14
5709.14
5709.13
5709.12
5709.17
5709.21
5709.23
5709.25
5709.26
5709.26
5709.25
5709.15
5709.2
5709.24
5709.26
5709.29
5709.3
5709.29
5709.29
5707.8
5707.87
5707.94
5708
5708.03
5708.06
5708.06
5708.05
5708.2
5708.28
5708.34
5708.39
5708.43
5708.45
5708.45
5708.44
5708.58
5708.66
5708.72
5708.76
5708.8
5708.81
5708.81
5708.81
5708.9
5708.97
5709.03
5709.07
5709.11
5709.12
5709.12
5709.12
5709.12
5709.2
5709.26
5709.3
5709.34
5709.35
5709.35
5709.35
5709.25
5709.33
5709.39
5709.44
5709.47
5709.49
5709.49
5709.48
5709.28
5709.36
5709.42
5709.47
5709.51
5709.53
5709.53
5709.53
5707.6
5707.75
5707.88
5707.98
5708.05
5708.1
5708.11
5708.12
5708.09
5708.24
5708.35
5708.44
5708.5
5708.54
5708.56
5708.56
5708.56
5708.69
5708.8
5708.88
5708.93
5708.97
5708.97
5708.98
5708.93
5709.06
5709.16
5709.24
5709.29
5709.32
5709.33
5709.33
5709.2
5709.33
5709.43
5709.5
5709.55
5709.58
5709.59
5709.59
5709.33
5709.47
5709.57
5709.65
5709.71
5709.74
5709.75
5709.75
5709.34
5709.49
5709.6
5709.68
5709.75
5709.78
5709.79
5709.79
5707.55
5707.78
5707.98
5708.12
5708.21
5708.28
5708.31
5708.35
5708.14
5708.36
5708.53
5708.65
5708.72
5708.77
5708.8
5708.83
5708.7
5708.9
5709.05
5709.14
5709.2
5709.24
5709.26
5709.29
5709.14
5709.33
5709.47
5709.55
5709.6
5709.64
5709.65
5709.67
5709.44
5709.64
5709.77
5709.85
5709.9
5709.94
5709.95
5709.97
5709.58
5709.79
5709.93
5710.02
5710.08
5710.12
5710.14
5710.16
5709.57
5709.79
5709.95
5710.05
5710.12
5710.17
5710.19
5710.22
5708.17
5708.38
5708.55
5708.65
5708.69
5708.72
5708.77
5708.87
5708.85
5709.05
5709.18
5709.23
5709.23
5709.24
5709.27
5709.35
5709.49
5709.67
5709.76
5709.77
5709.74
5709.72
5709.74
5709.81
5710
5710.17
5710.23
5710.21
5710.17
5710.14
5710.15
5710.21
5710.34
5710.51
5710.58
5710.56
5710.51
5710.49
5710.49
5710.55
5710.5
5710.69
5710.77
5710.77
5710.73
5710.71
5710.71
5710.78
5710.48
5710.69
5710.8
5710.82
5710.8
5710.78
5710.8
5710.87
5707.42
5707.45
5707.47
5707.48
5707.49
5707.49
5707.48
5707.48
5707.15
5707.17
5707.19
5707.21
5707.22
5707.22
5707.21
5707.2
5706.9
5706.93
5706.95
5706.97
5706.98
5706.98
5706.97
5706.96
5706.7
5706.73
5706.75
5706.76
5706.77
5706.78
5706.77
5706.76
5706.55
5706.58
5706.6
5706.61
5706.62
5706.62
5706.62
5706.61
5706.47
5706.49
5706.51
5706.52
5706.53
5706.53
5706.52
5706.51
5706.44
5706.46
5706.48
5706.49
5706.49
5706.49
5706.48
5706.48
5707.37
5707.42
5707.46
5707.49
5707.51
5707.52
5707.52
5707.51
5707.05
5707.1
5707.14
5707.18
5707.2
5707.21
5707.21
5707.21
5706.76
5706.82
5706.86
5706.9
5706.93
5706.94
5706.94
5706.93
5706.53
5706.58
5706.63
5706.67
5706.7
5706.71
5706.71
5706.71
5706.36
5706.41
5706.46
5706.5
5706.52
5706.54
5706.54
5706.53
5706.26
5706.31
5706.36
5706.39
5706.42
5706.43
5706.43
5706.42
5706.25
5706.29
5706.33
5706.36
5706.39
5706.4
5706.4
5706.39
5707.2
5707.29
5707.37
5707.44
5707.49
5707.52
5707.52
5707.52
5706.82
5706.92
5707.01
5707.08
5707.14
5707.17
5707.18
5707.18
5706.48
5706.59
5706.68
5706.76
5706.83
5706.87
5706.88
5706.88
5706.2
5706.31
5706.42
5706.5
5706.57
5706.61
5706.62
5706.63
5706
5706.12
5706.22
5706.3
5706.37
5706.41
5706.43
5706.43
5705.91
5706.02
5706.11
5706.19
5706.25
5706.29
5706.31
5706.31
5705.92
5706.02
5706.1
5706.18
5706.23
5706.27
5706.28
5706.28
5706.9
5707.08
5707.24
5707.36
5707.46
5707.52
5707.55
5707.56
5706.44
5706.65
5706.83
5706.97
5707.08
5707.15
5707.19
5707.2
5706.03
5706.25
5706.45
5706.61
5706.73
5706.82
5706.86
5706.88
5705.71
5705.94
5706.15
5706.32
5706.45
5706.54
5706.58
5706.6
5705.5
5705.72
5705.93
5706.1
5706.23
5706.32
5706.36
5706.39
5705.41
5705.62
5705.82
5705.98
5706.1
5706.19
5706.23
5706.25
5705.45
5705.65
5705.83
5705.98
5706.09
5706.16
5706.2
5706.22
5706.66
5706.97
5707.24
5707.45
5707.59
5707.69
5707.75
5707.8
5706.14
5706.49
5706.8
5707.04
5707.21
5707.34
5707.41
5707.47
5705.69
5706.06
5706.39
5706.66
5706.86
5707
5707.09
5707.16
5705.37
5705.74
5706.08
5706.36
5706.57
5706.72
5706.81
5706.9
5705.16
5705.51
5705.83
5706.12
5706.33
5706.49
5706.57
5706.66
5705.06
5705.4
5705.72
5705.98
5706.18
5706.32
5706.4
5706.49
5705.11
5705.44
5705.74
5705.98
5706.16
5706.29
5706.36
5706.43
5707.02
5707.42
5707.75
5707.99
5708.13
5708.22
5708.31
5708.43
5706.51
5706.94
5707.31
5707.61
5707.8
5707.92
5708.03
5708.17
5706.08
5706.51
5706.91
5707.24
5707.47
5707.64
5707.77
5707.93
5705.78
5706.2
5706.59
5706.93
5707.18
5707.37
5707.52
5707.7
5705.55
5705.95
5706.31
5706.63
5706.88
5707.08
5707.25
5707.44
5705.4
5705.78
5706.13
5706.44
5706.67
5706.85
5707.01
5707.19
5705.4
5705.78
5706.13
5706.42
5706.63
5706.77
5706.91
5707.06
5706.46
5706.48
5706.5
5706.51
5706.51
5706.51
5706.5
5706.49
5706.54
5706.56
5706.57
5706.58
5706.59
5706.59
5706.58
5706.57
5706.66
5706.69
5706.7
5706.72
5706.72
5706.72
5706.71
5706.7
5706.84
5706.87
5706.88
5706.9
5706.9
5706.9
5706.9
5706.89
5707.07
5707.09
5707.11
5707.12
5707.13
5707.13
5707.12
5707.11
5707.32
5707.35