/*--------------------------------*- C++ -*----------------------------------*\
| =========                 |                                                 |
| \\      /  F ield         | OpenFOAM: The Open Source CFD Toolbox           |
|  \\    /   O peration     | Version:  plus.master.MPPICInterFoam            |
|   \\  /    A nd           | Web:      www.OpenFOAM.com                      |
|    \\/     M anipulation  |                                                 |
\*---------------------------------------------------------------------------*/
FoamFile
{
    version     2.0;
    format      ascii;
    class       volScalarField;
    location    "3.2";
    object      rho;
}
// * * * * * * * * * * * * * * * * * * * * * * * * * * * * * * * * * * * * * //

dimensions      [1 -3 0 0 0 0 0];

internalField   nonuniform List<scalar> 
11822
(
712.391
948.683
960.422
715.847
666.651
891.555
999.986
840.667
892.382
846.52
780.589
583.751
857.097
999.994
912.014
313.019
182.989
832.756
872.747
777.616
999.998
901.49
314.949
202.547
754.633
815.085
817.731
999.999
882.042
959.572
900.103
795.715
535.394
907.415
999.999
917.426
991.01
955.183
764.902
672.378
937.235
1000
984.783
963.97
924.866
922.571
919.803
938.248
998.166
383.244
512.938
485.689
304.987
316.007
733.424
999.19
437.154
833.046
694.509
306.726
281.554
620.633
997.2
829.954
269.237
174.037
659.065
350.566
560.125
990.967
722.01
240.323
171.325
446.648
326.024
580.463
994.037
346.186
755.912
622.316
281.807
281.324
695.953
999.999
451.422
505.896
459.059
311.497
434.547
844.073
999.995
865.432
776.791
668.144
701.859
816.071
929.759
996.055
332.14
279.653
248.548
247.365
370.372
753.832
989.591
332.498
331.223
230.197
187.087
266.672
686.643
999.174
323.867
162.69
162.367
173.117
254.137
658.419
997.982
209.927
162.367
162.367
162.367
238.466
664.32
999.116
199.07
191.007
168.209
180.438
280.533
750.395
999.741
282.909
237.72
217.816
261.488
503.114
840.664
993.847
802.121
707.634
630.725
701.121
853.808
944.896
992.681
633.829
598.322
557.939
606.063
776.801
863.685
978.649
541.787
407.921
361.552
400.022
624.946
919.422
997.375
409.761
242.408
186.793
313.97
609.138
927.878
999.281
345.256
202.368
162.367
300.647
605.716
930.17
999.372
373.07
281.214
274.494
374.127
681.389
948.827
997.933
602.705
503.377
519.547
636.955
860.405
887.301
983.715
896.292
879.78
851.465
902.298
968.901
977.755
992.419
974.664
970.9
967.324
979.191
986.442
939.623
985.001
941.74
879.444
881.543
908.014
962.284
982.047
996.274
878.966
818.557
751.534
857.085
970.57
998.777
999.63
882.522
784.247
739.406
868.457
973.502
998.997
999.617
901.931
843.657
834.709
907.275
984.245
992.864
997.806
962.748
946.539
957.961
980.663
995.099
972.498
990.661
898.114
968.177
977.134
991.134
999.551
996.101
995.476
999.395
999.736
999.733
999.747
987.671
986.35
995.265
998.049
999.347
999.333
994.704
977.97
983.931
998.276
999.346
999.061
990.258
996.385
998.922
999.323
999.877
999.359
998.924
998.531
997.331
999.527
999.866
999.895
999.477
999.199
999.203
997.809
997.149
995.899
999.281
990.38
999.579
999.688
999.447
997.734
999.816
998.787
802.093
928.825
949.588
992.498
999.896
999.421
998.376
999.97
996.829
999.648
1000
1000
1000
1000
1000
999.979
999.987
999.971
999.998
1000
1000
1000
1000
999.935
999.69
999.73
999.998
1000
1000
1000
1000
999.835
998.623
999.356
1000
1000
1000
1000
1000
999.969
999.638
999.78
999.997
1000
1000
1000
1000
1000
1000
999.999
1000
1000
1000
1000
1000
1000
1000
1000
1000
1000
1000
1000
1000
999.878
998.074
999.725
1000
1000
1000
1000
1000
999.971
999.978
999.925
999.99
1000
1000
1000
1000
999.911
999.085
999.435
999.999
1000
1000
1000
1000
999.937
998.648
999.391
1000
1000
1000
1000
1000
999.974
999.761
999.84
999.997
1000
1000
1000
1000
1000
1000
1000
1000
1000
1000
1000
1000
1000
1000
1000
1000
1000
1000
1000
1000
999.628
999.163
999.907
1000
1000
1000
1000
1000
999.799
999.528
999.731
999.999
1000
1000
1000
1000
999.667
998.44
999.444
1000
1000
1000
1000
1000
999.758
998.818
999.582
1000
1000
1000
1000
1000
999.927
999.89
999.953
999.999
1000
1000
1000
1000
999.994
1000
1000
1000
1000
1000
1000
1000
999.996
1000
1000
1000
1000
1000
1000
1000
999.731
999.62
999.917
1000
1000
1000
1000
1000
999.459
998.573
999.667
1000
1000
1000
1000
1000
999.161
998.424
999.521
1000
1000
1000
1000
1000
999.18
999.161
999.875
1000
1000
1000
1000
1000
999.977
999.982
999.997
1000
1000
1000
1000
1000
999.992
1000
1000
1000
1000
1000
1000
1000
999.877
1000
1000
1000
1000
1000
1000
1000
999.909
999.98
999.987
1000
1000
1000
1000
1000
999.435
999.219
999.811
1000
1000
1000
1000
1000
998.918
998.426
999.691
1000
1000
1000
1000
1000
998.91
999.506
999.991
1000
1000
1000
1000
1000
999.979
1000
1000
1000
1000
1000
1000
1000
999.997
1000
1000
1000
1000
1000
1000
1000
999.423
999.999
999.999
1000
1000
1000
1000
1000
997.592
999.433
999.97
1000
1000
1000
1000
1000
999.367
999.222
1000
1000
1000
1000
1000
1000
998.921
999.125
999.946
1000
1000
1000
1000
1000
999.112
999.776
1000
1000
1000
1000
1000
1000
999.999
1000
1000
1000
1000
1000
1000
1000
999.942
1000
1000
1000
1000
1000
1000
1000
999.582
1000
1000
1000
1000
1000
1000
1000
990.223
897.363
922.107
998.179
1000
1000
1000
1000
913.607
974.026
917.446
939.668
999.497
1000
1000
1000
918.629
946.542
976.228
975.144
999.996
1000
1000
1000
961.058
925.004
991.297
997.286
999.969
1000
1000
1000
956.54
904.95
996.157
996.328
995.246
998.851
999.757
999.999
728.782
939.985
999.715
979.281
929.32
981.093
1000
1000
920.935
999.955
997.443
915.14
860.013
991.289
1000
1000
982.186
896.886
967.838
999.967
999.998
1000
1000
1000
666.781
945.22
986.773
995.902
999.97
1000
1000
1000
439.361
709.576
961.405
999.947
1000
1000
1000
1000
490.572
555.335
926.376
999.955
999.995
1000
1000
1000
550.394
528.569
929.804
999.741
999.965
999.996
999.998
999.999
413.851
680.824
979.932
970.875
986.625
998.608
1000
1000
723.871
976.185
986.41
864.295
930.778
998.72
1000
1000
911.463
892.699
990.342
999.999
1000
1000
1000
1000
618.849
930.815
997.464
999.992
1000
1000
1000
1000
286.736
646.551
958.207
999.977
1000
1000
1000
1000
235.741
478.769
901.061
999.931
1000
1000
1000
1000
282.486
504.695
906.449
999.911
999.99
999.999
1000
1000
391.511
648.223
956.028
959.088
990.865
999.999
1000
1000
672.89
957.647
934.243
875.426
982.824
1000
1000
1000
789.849
887.159
999.979
999.999
1000
1000
1000
1000
838.823
955.022
997.86
999.999
1000
1000
1000
1000
604.186
846.954
977.571
999.988
1000
1000
1000
1000
528.011
759.387
953.322
999.961
999.999
1000
1000
1000
603.326
794.375
956.505
999.964
999.998
1000
1000
1000
716.782
852.63
958.263
963.416
995.64
1000
1000
1000
835.561
950.538
869.124
927.163
998.592
999.999
999.999
1000
777.369
924.568
999.991
1000
1000
1000
1000
1000
972.085
969.799
998.19
1000
1000
1000
1000
1000
971.362
991.432
996.796
999.863
1000
1000
1000
1000
956.614
987.6
994.091
999.518
999.999
1000
1000
1000
968.769
992.904
995.563
999.579
999.897
1000
1000
1000
978.652
982.723
966.077
984.279
999.486
1000
1000
1000
973.841
875.222
865.882
980.81
1000
999.999
999.999
1000
794.388
983.861
999.998
1000
1000
1000
1000
1000
973.386
976.191
999.371
1000
1000
1000
1000
1000
999.765
997.659
999.837
999.983
1000
1000
1000
1000
999.69
999.414
998.907
999.797
999.985
999.998
1000
1000
999.689
999.793
999.719
999.618
999.498
999.967
1000
1000
992.335
981.579
979.246
998.313
999.762
999.985
1000
1000
964.346
849.228
883.272
997.636
999.999
1000
1000
1000
915.182
999.998
999.571
918.819
846.593
940.528
1000
1000
885.861
999.955
999.759
964.735
846.407
936.406
1000
1000
873.952
996.709
999.71
996.271
934.363
980.848
1000
1000
881.316
999.66
999.979
998.558
999.318
999.586
999.997
1000
927.106
999.979
999.99
999.965
1000
1000
1000
1000
887.565
991.239
1000
1000
1000
1000
1000
1000
965.71
983.068
1000
1000
1000
1000
1000
1000
650.72
982.725
998.65
862.699
846.375
958.274
1000
1000
543.412
960.372
999.374
949.469
846.384
941.166
1000
1000
484.281
936.756
999.697
969.822
921.672
985.122
1000
1000
528.654
957.345
999.94
993.158
995.641
999.635
1000
1000
731.333
994.108
999.984
1000
1000
1000
1000
1000
875.89
987.342
1000
1000
1000
1000
1000
1000
970.454
985.556
1000
1000
1000
1000
1000
1000
624.799
958.742
985.561
855.417
857.334
980.766
1000
1000
531.829
946.255
999.222
884.758
855.406
970.126
999.999
1000
464.291
930.538
999.309
887.144
929.047
996.579
1000
1000
531.784
946.709
998.814
986.651
993.958
999.893
1000
1000
748.763
988.194
999.953
999.998
1000
999.999
1000
1000
903.787
993.358
999.998
1000
1000
1000
1000
1000
979.125
994.169
999.999
1000
1000
1000
1000
1000
853.935
962.849
904.492
855.421
921.84
997.051
1000
1000
830.772
967.435
959.698
855.338
924.344
996.347
1000
1000
795.594
968.712
980.115
882.708
962.718
999.992
1000
1000
835.342
971.933
978.766
986.364
996.959
999.999
1000
1000
927.57
990.963
999.694
999.999
1000
999.999
1000
1000
969.534
999.185
999.999
1000
1000
1000
1000
1000
992.58
999.674
999.981
1000
1000
1000
1000
1000
978.685
942.663
846.681
862.975
983.528
999.992
1000
1000
983.503
968.953
853.568
859.093
982.353
999.996
1000
1000
986.579
968.114
867.735
936.391
995.072
1000
1000
1000
994.104
972.518
965.725
992.685
999.602
1000
1000
1000
998.723
997.768
999.996
1000
999.998
1000
1000
1000
997.644
999.996
999.999
1000
1000
1000
1000
1000
999.478
999.979
999.979
1000
1000
1000
1000
1000
978.265
864.705
845.701
940.681
999.823
1000
1000
1000
986.033
898.183
845.856
918.416
999.408
1000
1000
1000
987.236
894.292
852.226
983.251
999.995
1000
1000
1000
993.636
965.73
970.453
998.554
1000
1000
1000
1000
999.774
999.963
999.99
999.999
1000
1000
1000
1000
999.918
999.963
999.849
1000
1000
1000
1000
1000
999.977
999.876
999.954
1000
1000
1000
1000
1000
999.404
1000
1000
999.999
1000
1000
1000
1000
995.868
1000
1000
1000
1000
1000
1000
1000
997.224
1000
1000
1000
1000
1000
1000
1000
999.653
999.837
1000
999.965
999.998
1000
1000
1000
990.44
927.946
949.332
998.344
1000
1000
1000
1000
976.202
792.934
844.195
984.668
1000
1000
1000
1000
980.372
824.595
793.29
926.168
1000
1000
1000
1000
999.315
1000
1000
1000
1000
1000
1000
1000
997.434
1000
1000
1000
1000
1000
1000
1000
998.78
1000
1000
1000
1000
1000
1000
1000
999.3
999.976
1000
999.926
999.995
1000
1000
1000
988.033
941.81
941.557
994.588
1000
1000
1000
1000
986.473
784.593
811.156
976.2
1000
1000
1000
1000
984.408
831.787
790.871
922.822
1000
1000
1000
1000
999.562
1000
1000
1000
1000
1000
1000
1000
999.973
1000
1000
1000
1000
1000
1000
1000
999.896
999.995
1000
1000
1000
1000
1000
1000
999.021
999.886
999.995
999.953
999.995
1000
1000
1000
982.609
939.063
949.795
996.701
999.999
1000
1000
1000
984.408
779.363
814.881
981.332
999.996
1000
1000
1000
982.818
795.188
790.975
947.659
1000
1000
1000
1000
999.747
1000
1000
1000
1000
1000
1000
1000
999.989
999.999
999.999
1000
1000
1000
1000
1000
999.409
999.99
999.989
999.999
1000
1000
1000
1000
992.555
999.723
999.986
999.984
999.998
1000
1000
1000
935.395
913.83
974.456
999.879
1000
1000
1000
1000
856.266
773.785
856.434
995.603
999.999
1000
1000
1000
822.167
774.159
825.56
988.66
1000
1000
1000
1000
999.823
999.999
999.999
1000
1000
1000
1000
1000
999.994
999.996
999.999
999.999
1000
1000
1000
1000
999.976
999.994
999.947
999.995
1000
1000
1000
1000
980.55
997.959
999.873
999.983
999.999
1000
1000
1000
808.882
918.253
996.693
999.868
999.997
1000
1000
1000
774.512
773.936
937.095
999.98
1000
1000
1000
1000
773.639
773.808
903.908
999.924
1000
1000
1000
1000
999.631
999.894
1000
1000
1000
1000
1000
1000
999.973
999.747
999.997
1000
1000
1000
1000
1000
999.968
999.972
999.901
999.991
1000
1000
1000
1000
974.758
996.803
999.657
999.968
1000
1000
1000
1000
775.34
949.921
999.763
999.743
999.98
1000
1000
1000
773.889
815.045
988.368
999.982
999.983
1000
1000
1000
773.758
775.991
969.752
1000
1000
1000
1000
1000
1000
1000
1000
1000
1000
1000
1000
1000
1000
1000
1000
1000
1000
1000
1000
1000
1000
1000
1000
1000
1000
1000
1000
1000
1000
1000
1000
1000
1000
1000
1000
1000
1000
1000
1000
1000
1000
1000
1000
1000
1000
1000
1000
1000
1000
1000
1000
1000
1000
1000
1000
1000
1000
1000
1000
1000
1000
1000
1000
1000
1000
1000
1000
1000
1000
1000
1000
1000
1000
1000
1000
1000
1000
1000
1000
1000
1000
1000
1000
1000
1000
1000
1000
1000
1000
1000
1000
1000
1000
1000
1000
1000
1000
1000
1000
1000
1000
1000
1000
1000
1000
1000
1000
1000
1000
1000
1000
1000
1000
1000
1000
1000
1000
1000
1000
1000
1000
1000
1000
1000
1000
1000
1000
1000
1000
1000
1000
1000
1000
1000
1000
1000
1000
1000
1000
1000
1000
1000
1000
1000
1000
1000
1000
1000
1000
1000
1000
1000
1000
1000
1000
1000
1000
1000
1000
1000
1000
1000
1000
1000
1000
1000
1000
1000
1000
1000
1000
1000
1000
1000
1000
1000
1000
1000
1000
1000
1000
1000
1000
1000
1000
1000
1000
1000
1000
1000
1000
1000
1000
1000
1000
1000
1000
1000
1000
1000
1000
1000
1000
1000
1000
1000
1000
1000
1000
1000
1000
1000
1000
1000
1000
1000
1000
1000
1000
1000
1000
1000
1000
1000
1000
1000
1000
1000
1000
1000
1000
1000
1000
1000
1000
1000
1000
1000
1000
1000
1000
1000
1000
1000
1000
1000
1000
1000
1000
1000
1000
1000
1000
1000
1000
1000
1000
1000
1000
1000
1000
1000
1000
1000
1000
1000
1000
1000
1000
1000
1000
1000
1000
1000
1000
1000
1000
1000
1000
1000
1000
1000
1000
1000
1000
1000
1000
1000
1000
1000
1000
1000
1000
1000
1000
1000
1000
1000
1000
1000
1000
1000
1000
1000
1000
1000
1000
1000
1000
1000
1000
1000
1000
1000
1000
1000
1000
1000
1000
1000
1000
1000
1000
1000
1000
1000
1000
1000
1000
1000
1000
1000
1000
1000
1000
1000
1000
1000
1000
1000
1000
1000
1000
1000
1000
1000
1000
1000
1000
1000
1000
1000
1000
1000
1000
1000
1000
1000
1000
1000
1000
1000
1000
1000
1000
1000
1000
1000
1000
1000
1000
1000
1000
1000
1000
1000
1000
1000
1000
1000
1000
1000
1000
1000
1000
1000
1000
1000
1000
1000
1000
1000
1000
1000
1000
1000
1000
1000
1000
1000
1000
1000
1000
1000
1000
1000
1000
1000
1000
1000
1000
1000
1000
1000
1000
1000
1000
1000
1000
1000
1000
1000
1000
1000
1000
1000
1000
1000
1000
1000
1000
1000
1000
1000
1000
1000
1000
1000
1000
1000
1000
1000
1000
1000
1000
1000
1000
1000
1000
1000
1000
1000
1000
1000
1000
1000
1000
1000
1000
1000
1000
1000
1000
1000
1000
1000
1000
1000
1000
1000
1000
1000
1000
1000
1000
1000
1000
1000
1000
1000
1000
1000
1000
1000
1000
1000
1000
1000
1000
1000
1000
1000
1000
1000
1000
1000
1000
1000
1000
1000
1000
1000
1000
1000
1000
1000
1000
1000
1000
1000
1000
1000
1000
1000
1000
1000
1000
1000
1000
1000
1000
1000
1000
1000
1000
1000
1000
1000
1000
1000
1000
1000
1000
1000
1000
1000
1000
1000
1000
1000
1000
1000
1000
1000
1000
1000
1000
1000
1000
1000
1000
1000
1000
1000
1000
1000
1000
1000
1000
1000
1000
1000
1000
1000
1000
1000
1000
1000
1000
1000
1000
1000
1000
1000
1000
1000
1000
1000
1000
1000
1000
1000
1000
1000
1000
1000
1000
1000
1000
1000
1000
1000
1000
1000
1000
1000
1000
1000
1000
1000
1000
1000
1000
1000
1000
1000
1000
1000
1000
1000
1000
1000
1000
1000
1000
1000
1000
1000
1000
1000
1000
1000
1000
1000
1000
1000
1000
1000
1000
1000
1000
1000
1000
1000
1000
1000
1000
1000
1000
1000
1000
1000
1000
1000
1000
1000
1000
1000
1000
1000
1000
1000
1000
1000
1000
1000
1000
1000
1000
1000
1000
1000
1000
1000
1000
1000
1000
1000
1000
1000
1000
1000
1000
1000
1000
1000
1000
1000
1000
1000
1000
1000
1000
1000
1000
1000
1000
1000
1000
1000
1000
1000
1000
1000
1000
1000
1000
1000
1000
1000
1000
1000
1000
1000
1000
1000
1000
1000
1000
1000
1000
1000
1000
1000
1000
1000
1000
1000
1000
1000
1000
1000
1000
1000
1000
1000
1000
1000
1000
1000
1000
1000
1000
1000
1000
1000
1000
1000
1000
1000
1000
1000
1000
1000
1000
1000
1000
1000
1000
1000
1000
1000
1000
1000
1000
1000
1000
1000
1000
1000
1000
1000
1000
1000
1000
1000
1000
1000
1000
1000
1000
1000
1000
1000
1000
1000
1000
1000
1000
1000
1000
1000
1000
1000
1000
1000
1000
1000
1000
1000
1000
1000
1000
1000
1000
1000
1000
1000
1000
1000
1000
1000
1000
1000
1000
1000
1000
1000
1000
1000
1000
1000
1000
1000
1000
1000
1000
1000
1000
1000
1000
1000
1000
1000
1000
1000
1000
1000
1000
1000
1000
1000
1000
1000
1000
1000
1000
1000
1000
1000
1000
1000
1000
1000
1000
1000
1000
1000
1000
1000
1000
1000
1000
1000
1000
1000
1000
1000
1000
1000
1000
1000
1000
1000
1000
1000
1000
1000
1000
1000
1000
1000
1000
1000
1000
1000
1000
1000
1000
1000
1000
1000
1000
1000
1000
1000
1000
1000
1000
1000
1000
1000
1000
1000
1000
1000
1000
1000
1000
1000
1000
1000
1000
1000
1000
1000
1000
1000
1000
1000
1000
1000
1000
1000
1000
1000
1000
1000
1000
1000
1000
1000
1000
1000
1000
1000
1000
1000
1000
1000
1000
1000
1000
1000
1000
1000
1000
1000
1000
1000
1000
1000
1000
1000
1000
1000
1000
1000
1000
1000
1000
1000
1000
1000
1000
1000
1000
1000
1000
1000
1000
1000
1000
1000
1000
1000
1000
1000
1000
1000
1000
1000
1000
1000
1000
1000
1000
1000
1000
1000
1000
1000
1000
1000
1000
1000
1000
1000
1000
1000
1000
1000
1000
1000
1000
1000
1000
1000
1000
1000
1000
1000
1000
1000
1000
1000
1000
1000
1000
1000
1000
1000
1000
1000
1000
1000
1000
1000
1000
1000
1000
1000
1000
1000
1000
1000
1000
1000
1000
1000
1000
1000
1000
1000
1000
1000
1000
1000
1000
1000
1000
1000
1000
1000
1000
1000
1000
1000
1000
1000
1000
1000
1000
1000
1000
1000
1000
1000
1000
1000
1000
1000
1000
1000
1000
1000
1000
1000
1000
1000
1000
1000
1000
1000
1000
1000
1000
1000
1000
1000
1000
1000
1000
1000
1000
1000
1000
1000
1000
1000
1000
1000
1000
1000
1000
1000
1000
1000
1000
1000
1000
1000
1000
1000
1000
1000
1000
1000
1000
1000
1000
1000
1000
1000
1000
1000
1000
1000
1000
1000
1000
1000
1000
1000
1000
1000
1000
1000
1000
1000
1000
1000
1000
1000
1000
1000
1000
1000
1000
1000
1000
1000
1000
1000
1000
1000
1000
1000
1000
1000
1000
1000
1000
1000
1000
1000
1000
1000
1000
1000
1000
1000
1000
1000
1000
1000
1000
1000
1000
1000
1000
1000
1000
1000
1000
1000
1000
1000
1000
1000
1000
1000
1000
1000
1000
1000
1000
1000
1000
1000
1000
1000
1000
1000
1000
1000
1000
1000
1000
1000
1000
1000
1000
1000
1000
1000
1000
1000
1000
1000
1000
1000
1000
1000
1000
1000
1000
1000
1000
1000
1000
1000
1000
1000
1000
1000
1000
1000
1000
1000
1000
1000
1000
1000
1000
1000
1000
1000
1000
1000
1000
1000
1000
1000
1000
1000
1000
1000
1000
1000
1000
1000
1000
1000
1000
1000
1000
1000
1000
1000
1000
1000
1000
1000
1000
1000
1000
1000
1000
1000
1000
1000
1000
1000
1000
1000
1000
1000
1000
1000
1000
1000
1000
1000
1000
1000
1000
1000
1000
1000
1000
1000
1000
1000
1000
1000
1000
1000
1000
1000
1000
1000
1000
1000
1000
1000
1000
1000
1000
1000
1000
1000
1000
1000
1000
1000
1000
1000
1000
1000
1000
1000
1000
1000
1000
1000
1000
1000
1000
1000
1000
1000
1000
1000
1000
1000
1000
1000
1000
1000
1000
1000
1000
1000
1000
1000
1000
1000
1000
1000
1000
1000
1000
1000
1000
1000
1000
1000
1000
1000
1000
1000
1000
1000
1000
1000
1000
1000
1000
1000
1000
1000
1000
1000
1000
1000
1000
1000
1000
1000
1000
1000
1000
1000
1000
1000
1000
1000
1000
1000
1000
1000
1000
1000
1000
1000
1000
1000
1000
1000
1000
1000
1000
1000
1000
1000
1000
1000
1000
1000
1000
1000
1000
1000
1000
1000
1000
1000
1000
1000
1000
1000
1000
1000
1000
1000
1000
1000
1000
1000
1000
1000
1000
1000
1000
1000
1000
1000
1000
1000
1000
1000
1000
1000
1000
1000
1000
1000
1000
1000
1000
1000
1000
1000
1000
1000
1000
1000
1000
1000
1000
1000
1000
1000
1000
1000
1000
1000
1000
1000
1000
1000
1000
1000
1000
1000
1000
1000
1000
1000
1000
1000
1000
1000
1000
1000
1000
1000
1000
1000
1000
1000
1000
1000
1000
1000
1000
1000
1000
1000
1000
1000
1000
1000
1000
1000
1000
1000
1000
1000
1000
1000
1000
1000
1000
1000
1000
1000
1000
1000
1000
1000
1000
1000
1000
1000
1000
1000
1000
1000
1000
1000
1000
1000
1000
1000
1000
1000
1000
1000
1000
1000
1000
1000
1000
1000
1000
1000
1000
1000
1000
1000
1000
1000
1000
1000
1000
1000
1000
1000
1000
1000
1000
1000
1000
1000
1000
1000
1000
1000
1000
1000
1000
1000
1000
1000
1000
1000
1000
1000
1000
1000
1000
1000
1000
1000
1000
1000
1000
1000
1000
1000
1000
1000
1000
1000
1000
1000
1000
1000
1000
1000
1000
1000
1000
1000
1000
1000
1000
1000
1000
1000
1000
1000
1000
1000
1000
1000
1000
1000
1000
1000
1000
1000
1000
1000
1000
1000
1000
1000
1000
1000
1000
1000
1000
1000
1000
1000
1000
1000
1000
1000
1000
1000
1000
1000
1000
1000
1000
1000
1000
1000
1000
1000
1000
1000
1000
1000
1000
1000
1000
1000
1000
1000
1000
1000
1000
1000
1000
1000
1000
1000
1000
1000
1000
1000
1000
1000
1000
1000
1000
1000
1000
1000
1000
1000
1000
1000
1000
1000
1000
1000
1000
1000
1000
1000
1000
1000
1000
1000
1000
1000
1000
1000
1000
1000
1000
1000
1000
1000
1000
1000
1000
1000
1000
1000
1000
1000
1000
1000
1000
1000
1000
1000
1000
1000
1000
1000
1000
1000
1000
1000
1000
1000
1000
1000
1000
1000
1000
1000
1000
1000
1000
1000
1000
1000
1000
1000
1000
1000
1000
1000
1000
1000
1000
1000
1000
1000
1000
1000
1000
1000
1000
1000
1000
1000
1000
1000
1000
1000
1000
1000
1000
1000
1000
1000
1000
1000
1000
1000
1000
1000
1000
1000
1000
1000
1000
1000
1000
1000
1000
1000
1000
1000
1000
1000
1000
1000
1000
1000
1000
1000
1000
1000
1000
1000
1000
1000
1000
1000
1000
1000
1000
1000
1000
1000
1000
1000
1000
1000
1000
1000
1000
1000
1000
1000
1000
1000
1000
1000
1000
1000
1000
1000
1000
1000
1000
1000
1000
1000
1000
1000
1000
1000
1000
1000
1000
1000
1000
1000
1000
1000
1000
1000
1000
1000
1000
1000
1000
1000
1000
1000
1000
1000
1000
1000
1000
1000
1000
1000
1000
1000
1000
1000
1000
1000
1000
1000
1000
1000
1000
1000
1000
1000
1000
1000
1000
1000
1000
1000
1000
1000
1000
1000
1000
1000
1000
1000
1000
1000
1000
1000
1000
1000
1000
1000
1000
1000
1000
1000
1000
1000
1000
1000
1000
1000
1000
1000
1000
1000
1000
1000
1000
1000
1000
1000
1000
1000
1000
1000
1000
1000
1000
1000
1000
1000
1000
1000
1000
1000
1000
1000
1000
1000
1000
1000
1000
1000
1000
1000
1000
1000
1000
1000
1000
1000
1000
1000
1000
1000
1000
1000
1000
1000
1000
1000
1000
1000
1000
1000
1000
1000
1000
1000
1000
1000
1000
1000
1000
1000
1000
1000
1000
1000
1000
1000
1000
1000
1000
1000
1000
1000
1000
1000
1000
1000
1000
1000
1000
1000
1000
1000
1000
1000
1000
1000
1000
1000
1000
1000
1000
1000
1000
1000
1000
1000
1000
1000
1000
1000
1000
1000
1000
1000
1000
1000
1000
1000
1000
1000
1000
1000
1000
1000
1000
1000
1000
1000
1000
1000
1000
1000
1000
1000
1000
1000
1000
1000
1000
1000
1000
1000
1000
1000
1000
1000
1000
1000
1000
1000
1000
1000
1000
1000
1000
1000
1000
1000
1000
1000
1000
1000
1000
1000
1000
1000
1000
1000
1000
1000
1000
1000
1000
1000
1000
1000
1000
1000
1000
1000
1000
1000
1000
1000
1000
1000
1000
1000
1000
1000
1000
1000
1000
1000
1000
1000
1000
1000
1000
1000
1000
1000
1000
1000
1000
1000
1000
1000
1000
1000
1000
1000
1000
1000
1000
1000
1000
1000
1000
1000
1000
1000
1000
1000
1000
1000
1000
1000
1000
1000
1000
1000
1000
1000
1000
1000
1000
1000
1000
1000
1000
1000
1000
1000
1000
1000
1000
1000
1000
1000
1000
1000
1000
1000
1000
1000
1000
1000
1000
1000
1000
1000
1000
1000
1000
1000
1000
1000
1000
1000
1000
1000
1000
1000
1000
1000
1000
1000
1000
1000
1000
1000
1000
1000
1000
1000
1000
1000
1000
1000
1000
1000
1000
1000
1000
1000
1000
1000
1000
1000
1000
1000
1000
1000
1000
1000
1000
1000
1000
1000
1000
1000
1000
1000
1000
1000
1000
1000
1000
1000
1000
1000
1000
1000
1000
1000
1000
1000
1000
1000
1000
1000
1000
1000
1000
1000
1000
1000
1000
1000
1000
1000
1000
1000
1000
1000
1000
1000
1000
1000
1000
1000
1000
1000
1000
1000
1000
1000
1000
1000
1000
1000
1000
1000
1000
1000
1000
1000
1000
1000
1000
1000
1000
1000
1000
1000
1000
1000
1000
1000
1000
1000
1000
1000
1000
1000
1000
1000
1000
1000
1000
1000
1000
1000
1000
1000
1000
1000
1000
1000
1000
1000
1000
1000
1000
1000
1000
1000
1000
1000
1000
1000
1000
1000
1000
1000
1000
1000
1000
1000
1000
1000
1000
1000
1000
1000
1000
1000
1000
1000
1000
1000
1000
1000
1000
1000
1000
1000
1000
1000
1000
1000
1000
1000
1000
1000
1000
1000
1000
1000
1000
1000
1000
1000
1000
1000
1000
1000
1000
1000
1000
1000
1000
1000
1000
1000
1000
1000
1000
1000
1000
1000
1000
1000
1000
1000
1000
1000
1000
1000
1000
1000
1000
1000
1000
1000
1000
1000
1000
1000
1000
1000
1000
1000
1000
1000
1000
1000
1000
1000
1000
1000
1000
1000
1000
1000
1000
1000
1000
1000
1000
1000
1000
1000
1000
1000
1000
1000
1000
1000
1000
1000
1000
1000
1000
1000
1000
1000
1000
1000
1000
1000
1000
1000
1000
1000
1000
1000
1000
1000
1000
1000
1000
1000
1000
1000
1000
1000
1000
1000
1000
1000
1000
1000
1000
1000
1000
1000
1000
1000
1000
1000
1000
1000
1000
1000
1000
1000
1000
1000
1000
1000
1000
1000
1000
1000
1000
1000
1000
1000
1000
1000
1000
1000
1000
1000
1000
1000
1000
1000
1000
1000
1000
1000
1000
1000
1000
1000
1000
1000
1000
1000
1000
1000
1000
1000
1000
1000
1000
1000
1000
1000
1000
1000
1000
1000
1000
1000
1000
1000
1000
1000
1000
1000
1000
1000
1000
1000
1000
1000
1000
1000
1000
1000
1000
1000
1000
1000
1000
1000
1000
1000
1000
1000
1000
1000
1000
1000
1000
1000
1000
1000
1000
1000
1000
1000
1000
1000
1000
1000
1000
1000
1000
1000
1000
1000
1000
1000
1000
1000
1000
1000
1000
1000
1000
1000
1000
1000
1000
1000
1000
1000
1000
1000
1000
1000
1000
1000
1000
1000
1000
1000
1000
1000
1000
1000
1000
1000
1000
1000
1000
1000
1000
1000
1000
1000
1000
1000
1000
1000
1000
1000
1000
1000
1000
1000
1000
1000
1000
1000
1000
1000
1000
1000
1000
1000
1000
1000
1000
1000
1000
1000
1000
1000
1000
1000
1000
1000
1000
1000
1000
1000
1000
1000
1000
1000
1000
1000
1000
1000
1000
1000
1000
1000
1000
1000
1000
1000
1000
1000
1000
1000
1000
1000
1000
1000
1000
1000
1000
1000
1000
1000
1000
1000
1000
1000
1000
1000
1000
1000
1000
1000
1000
1000
1000
1000
1000
1000
999.933
999.945
999.944
999.917
992.716
999.431
999.978
997.543
999.914
999.895
989.279
975.389
988.649
999.918
999.913
999.886
981.163
995.729
996.169
998.985
999.9
999.914
999.88
999.672
931.284
989.893
999.9
999.907
999.922
999.901
999.892
995.038
994.409
997.936
999.988
977.169
999.914
999.931
999.655
999.559
999.9
999.99
773.686
849.192
940.278
996.64
999.962
999.889
999.992
999.96
999.961
999.961
999.952
999.324
999.855
999.982
998.731
999.959
999.944
994.135
987.876
996.339
999.97
999.956
999.955
979.428
927.861
980.494
999.889
999.91
999.956
999.951
999.837
867.058
931.222
999.799
999.979
999.957
999.954
999.947
979.813
984.925
998.066
999.991
994.451
999.951
999.951
999.933
999.963
999.862
999.989
832.582
889.541
972.368
999.962
999.984
999.992
999.994
999.961
999.961
999.961
999.963
999.973
999.982
999.982
999.96
999.961
999.961
999.358
999.773
999.972
999.981
999.958
999.959
988.002
866.858
937.708
999.885
999.969
999.958
999.956
999.836
868.202
888.484
995.381
999.977
999.959
999.957
999.953
980.441
986.228
999.076
999.991
999.957
999.953
999.951
999.96
999.98
999.992
999.994
958.051
968.589
999.96
999.979
999.992
999.994
999.995
728.686
789.19
823.822
917.849
935.103
897.302
801.342
773.233
884.832
945.574
974.272
965.636
942.232
888.108
798.893
927.89
999.424
938.339
797.199
907.215
945.563
838.405
945.83
999.714
919.073
937.41
992.184
995.473
794.365
894.577
986.153
991.669
993.706
994.884
969.283
647.838
779.81
897.177
978.268
978.861
956.035
856.882
393.868
522.01
649.506
798.455
803.105
753.912
686.52
0.990903
101.513
370.628
682.063
596.995
227.447
0.651117
6.68899
186.781
506.583
850.028
786.463
487.137
29.071
25.1504
227.919
517.448
749.036
731.037
542.475
109.292
31.776
177.948
302.333
437.972
510.979
450.38
165.166
6.72745
107.962
206.46
384.666
421.669
317.678
55.8434
0.997795
10.2845
64.2256
159.416
141.249
50.5573
0.955447
0.999855
0.997526
0.933904
0.846506
0.913674
0.983162
0.998202
0.99982
0.999194
10.5591
51.0346
5.04151
0.997357
0.994463
0.999994
0.999999
0.999995
14.9644
0.999789
0.999974
0.999991
1
0.999998
0.999997
0.999804
0.999987
0.999995
1
1
0.999997
0.999998
0.999992
0.999997
0.999998
0.999999
1
1
1
1
1
1
1
1
1
1
1
1
1
1
1
1
1
1
1
1
1
0.999985
0.999993
0.99993
0.999865
0.999977
1
1
0.999999
0.999999
0.999974
0.999917
0.999983
1
1
1
0.999999
0.999994
0.99997
0.999994
1
1
1
0.999998
1
0.999999
1
1
1
1
1
1
1
1
1
1
1
1
1
1
1
1
1
1
1
1
1
1
1
1
1
1
1
1
1
1
1
1
1
1
1
1
1
1
1
1
1
1
1
1
1
1
1
1
1
1
1
1
1
1
1
1
1
1
1
1
1
1
1
1
1
1
1
1
1
1
1
1
1
1
1
1
1
1
1
1
1
1
1
1
1
1
1
1
1
1
1
1
1
1
1
1
1
1
1
1
1
1
1
1
1
1
1
1
1
1
1
1
1
1
1
1
1
1
1
1
1
1
1
1
1
1
1
1
1
1
1
1
1
1
1
1
1
1
1
1
1
1
1
1
1
1
1
1
1
1
1
1
1
1
1
1
1
1
1
1
1
1
1
1
1
1
1
1
1
1
1
998.643
994.177
994.153
994.172
999.705
1000
1000
1000
996.577
994.21
996.511
999.999
1000
1000
1000
1000
998.911
998.881
999.843
1000
1000
1000
1000
1000
999.793
999.96
1000
1000
1000
1000
1000
1000
999.991
999.978
999.96
999.991
1000
1000
1000
1000
999.994
999.312
999.092
999.702
1000
1000
1000
1000
999.971
999.992
995.663
998.379
1000
1000
1000
1000
999.982
998.46
999.19
999.979
986.414
979.485
984.504
988.085
999.364
999.076
993.525
993.474
994.048
997.624
997.888
996.425
999.46
999.465
999.887
1000
999.993
999.98
999.789
999.111
999.991
999.998
1000
1000
1000
1000
999.974
998.891
999.994
999.994
999.999
1000
1000
999.98
999.757
997.679
999.994
999.912
999.998
999.999
999.994
999.86
999.132
995.53
999.995
999.994
999.95
999.91
996.247
986.906
985.568
985.03
999.982
999.304
980.565
940.7
873.309
758.219
578.018
403.816
999.981
999.985
992.257
943.552
828.712
662.127
495.672
446.587
999.985
999.994
999.805
934.134
776.606
630.653
564.546
539.831
999.994
999.996
998.816
913.822
753.218
645.915
599.87
554.417
999.994
999.994
989.843
895.751
736.354
618.331
565.706
522.045
999.995
999.994
974.183
877.722
728.243
599.105
529.195
475.116
999.995
990.972
951.207
869.961
738.217
589.986
500.714
463.563
595.053
406.112
139.429
-0.297601
0.895291
0.993132
0.999674
0.999998
728.704
462.562
40.3737
0.743283
0.987297
0.999493
0.999994
1
859.224
532.527
33.7339
0.827634
0.993826
0.999864
0.999998
1
921.189
562.362
31.1088
0.831092
0.993962
0.999852
0.999998
1
809.794
401.483
2.55649
0.90021
0.996987
0.999939
0.999999
1
610.407
220.024
-0.594816
0.880916
0.995586
0.999912
0.999999
1
479.6
192.903
-1.08345
0.744045
0.983445
0.999414
0.999985
1
0.97813
0.99937
0.995079
0.990203
0.999179
0.999924
0.999991
0.999999
0.954092
0.997792
0.994556
0.996717
0.999838
0.999988
0.999999
1
0.902659
0.997172
0.996104
0.997881
0.999947
0.999997
1
1
0.867814
0.997232
0.996188
0.997727
0.999958
0.999998
1
1
0.970362
0.999608
0.998368
0.999115
0.999981
0.999999
1
1
0.998656
0.998995
0.990008
0.999442
0.999973