/*--------------------------------*- C++ -*----------------------------------*\
| =========                 |                                                 |
| \\      /  F ield         | OpenFOAM: The Open Source CFD Toolbox           |
|  \\    /   O peration     | Version:  plus.master.MPPICInterFoam            |
|   \\  /    A nd           | Web:      www.OpenFOAM.com                      |
|    \\/     M anipulation  |                                                 |
\*---------------------------------------------------------------------------*/
FoamFile
{
    version     2.0;
    format      ascii;
    class       scalarField;
    location    "12.2/lagrangian/kinematicCloud";
    object      age;
}
// * * * * * * * * * * * * * * * * * * * * * * * * * * * * * * * * * * * * * //


22
(
11.6264
11.629
11.3902
11.3802
11.2851
12.1003
11.4666
11.4667
11.4507
11.6378
11.5676
11.6335
11.8414
11.8762
11.2903
11.8553
11.5001
11.3365
11.4375
11.8592
11.9897
11.3352
)


// ************************************************************************* //
