/*--------------------------------*- C++ -*----------------------------------*\
| =========                 |                                                 |
| \\      /  F ield         | OpenFOAM: The Open Source CFD Toolbox           |
|  \\    /   O peration     | Version:  plus.master.MPPICInterFoam            |
|   \\  /    A nd           | Web:      www.OpenFOAM.com                      |
|    \\/     M anipulation  |                                                 |
\*---------------------------------------------------------------------------*/
FoamFile
{
    version     2.0;
    format      ascii;
    class       surfaceScalarField;
    location    "9.8";
    object      alphaPhi;
}
// * * * * * * * * * * * * * * * * * * * * * * * * * * * * * * * * * * * * * //

dimensions      [0 3 -1 0 0 0 0];

internalField   nonuniform List<scalar> 
34004
(
9.86973e-09
-3.33868e-08
-1.73476e-06
1.17161e-08
9.83925e-09
-3.64431e-08
-2.21304e-06
1.75746e-08
4.28791e-09
-3.58724e-08
-2.58226e-06
1.88482e-08
-3.71285e-09
-3.46109e-08
-2.93281e-06
1.86357e-08
-1.21784e-08
-3.27153e-08
-3.28523e-06
1.75087e-08
-1.93114e-08
-3.02765e-08
-3.64432e-06
1.56546e-08
-2.35173e-08
-2.7427e-08
-4.00971e-06
1.32647e-08
-2.4364e-08
-4.37698e-06
1.05359e-08
-2.35742e-08
8.90539e-09
-5.38614e-08
-1.7474e-06
7.32285e-09
-5.36503e-08
-2.2274e-06
1.70597e-10
-5.12562e-08
-2.59878e-06
-9.30889e-09
-4.90026e-08
-2.95231e-06
-1.88846e-08
-4.64701e-08
-3.30856e-06
-2.6648e-08
-4.35881e-08
-3.67224e-06
-3.09068e-08
-4.04466e-08
-4.04284e-06
-3.72126e-08
-4.41569e-06
-3.03819e-08
6.82794e-09
-7.16428e-08
-1.75528e-06
2.90657e-09
-6.79815e-08
-2.23633e-06
-6.46976e-09
-6.38577e-08
-2.60908e-06
-1.78683e-08
-6.07242e-08
-2.96471e-06
-2.89456e-08
-5.76631e-08
-3.32383e-06
-3.76597e-08
-5.44826e-08
-3.69103e-06
-4.22065e-08
-5.12309e-08
-4.06566e-06
-4.80561e-08
-4.44281e-06
-4.11984e-08
4.8924e-09
-8.66851e-08
-1.75683e-06
-1.08057e-09
-7.94967e-08
-2.23791e-06
-1.21168e-08
-7.39617e-08
-2.61104e-06
-2.48235e-08
-7.01241e-08
-2.96753e-06
-3.67923e-08
-6.67366e-08
-3.32807e-06
-4.59105e-08
-6.34723e-08
-3.69714e-06
-5.03273e-08
-6.03309e-08
-4.074e-06
-5.74217e-08
-4.45357e-06
-4.86385e-08
2.68408e-09
-9.84126e-08
-1.75084e-06
-5.05168e-09
-8.80582e-08
-2.23095e-06
-1.75416e-08
-8.14337e-08
-2.60306e-06
-3.11804e-08
-7.72095e-08
-2.95876e-06
-4.36517e-08
-7.37961e-08
-3.31866e-06
-5.28538e-08
-7.07543e-08
-3.68719e-06
-5.69551e-08
-6.80258e-08
-4.06355e-06
-6.56817e-08
-4.44259e-06
-5.45722e-08
5.69137e-10
-1.06586e-07
-1.73716e-06
-8.70346e-09
-9.3491e-08
-2.21522e-06
-2.19946e-08
-8.63268e-08
-2.58488e-06
-3.58556e-08
-8.20824e-08
-2.93802e-06
-4.81051e-08
-7.89906e-08
-3.29511e-06
-5.67524e-08
-7.64763e-08
-3.66057e-06
-6.00706e-08
-7.44097e-08
-4.03363e-06
-7.2788e-08
-4.40917e-06
-5.68105e-08
-4.10845e-09
-1.71706e-06
-1.08358e-07
-1.63579e-08
-2.19173e-06
-9.39043e-08
-3.15616e-08
-2.5572e-06
-8.66743e-08
-4.6629e-08
-2.90579e-06
-8.28501e-08
-5.95034e-08
-3.25758e-06
-8.04666e-08
-6.82715e-08
-3.61702e-06
-7.8881e-08
-7.12624e-08
-3.98335e-06
-7.78824e-08
-4.35159e-06
-7.74138e-08
-6.72563e-08
8.29871e-09
-4.02864e-08
-1.72437e-06
2.16108e-08
5.83016e-09
-4.18446e-08
-2.19446e-06
2.57479e-08
-2.22653e-09
-4.03072e-08
-2.55963e-06
2.57572e-08
-1.26099e-08
-3.81968e-08
-2.90874e-06
2.45359e-08
-2.31144e-08
-3.54651e-08
-3.26166e-06
2.24205e-08
-3.18138e-08
-3.21474e-08
-3.62302e-06
1.95659e-08
-3.69689e-08
-2.8409e-08
-3.9923e-06
1.61734e-08
-2.45141e-08
-4.36474e-06
1.25175e-08
-3.71834e-08
6.26705e-09
-5.66275e-08
-1.73731e-06
1.27407e-09
-5.53282e-08
-2.20891e-06
-9.11701e-09
-5.24311e-08
-2.57624e-06
-2.14781e-08
-4.96229e-08
-2.9285e-06
-3.34508e-08
-4.6505e-08
-3.28553e-06
-4.29913e-08
-4.29934e-08
-3.65183e-06
-4.82719e-08
-3.92076e-08
-4.02674e-06
-3.53709e-08
-4.40524e-06
-4.78484e-08
3.3479e-09
-6.93118e-08
-1.74593e-06
-4.72116e-09
-6.52059e-08
-2.21837e-06
-1.79558e-08
-6.11537e-08
-2.5871e-06
-3.26624e-08
-5.78382e-08
-2.94177e-06
-4.64126e-08
-5.45283e-08
-3.30204e-06
-5.70616e-08
-5.10523e-08
-3.6723e-06
-6.26838e-08
-4.74856e-08
-4.05174e-06
-4.40132e-08
-4.43509e-06
-6.1742e-08
8.30272e-10
-7.85769e-08
-1.74838e-06
-9.76155e-09
-7.18373e-08
-2.22067e-06
-2.52051e-08
-6.69061e-08
-2.58983e-06
-4.15961e-08
-6.33335e-08
-2.94563e-06
-5.65048e-08
-6.00856e-08
-3.30758e-06
-6.77364e-08
-5.69109e-08
-3.68003e-06
-7.3321e-08
-5.38368e-08
-4.06205e-06
-5.09897e-08
-4.44819e-06
-7.17051e-08
-1.55322e-09
-8.43539e-08
-1.7435e-06
-1.41772e-08
-7.54032e-08
-2.21475e-06
-3.11652e-08
-6.99067e-08
-2.58305e-06
-4.86494e-08
-6.63388e-08
-2.93825e-06
-6.42162e-08
-6.34155e-08
-3.29974e-06
-7.56684e-08
-6.08097e-08
-3.67182e-06
-8.10399e-08
-5.84918e-08
-4.05351e-06
-5.65291e-08
-4.43928e-06
-7.87868e-08
-3.33338e-09
-8.70698e-08
-1.7311e-06
-1.7155e-08
-7.63178e-08
-2.20047e-06
-3.47481e-08
-7.05928e-08
-2.56659e-06
-5.24155e-08
-6.72895e-08
-2.91939e-06
-6.78137e-08
-6.49239e-08
-3.27818e-06
-7.88206e-08
-6.30803e-08
-3.64727e-06
-8.35506e-08
-6.1658e-08
-4.02571e-06
-6.06388e-08
-4.40803e-06
-8.05644e-08
-6.61491e-09
-1.71247e-06
-8.50301e-08
-2.24588e-08
-2.17884e-06
-7.33434e-08
-4.12626e-08
-2.54127e-06
-6.77097e-08
-5.96937e-08
-2.88974e-06
-6.4888e-08
-7.54822e-08
-3.24343e-06
-6.32644e-08
-8.65566e-08
-3.60664e-06
-6.23593e-08
-9.10655e-08
-3.97848e-06
-6.20007e-08
-4.35359e-06
-6.21092e-08
-8.75742e-08
5.58039e-09
-4.61829e-08
-1.714e-06
3.02374e-08
-6.10848e-10
-4.5835e-08
-2.17468e-06
3.22661e-08
-1.22607e-08
-4.31829e-08
-2.53558e-06
3.079e-08
-2.59811e-08
-4.00195e-08
-2.88331e-06
2.83222e-08
-3.93803e-08
-3.62274e-08
-3.237e-06
2.49768e-08
-5.0376e-08
-3.18179e-08
-3.60106e-06
2.08651e-08
-5.70672e-08
-2.69968e-08
-3.97483e-06
1.62334e-08
-2.21065e-08
-4.35327e-06
1.14462e-08
-5.78734e-08
2.61666e-09
-5.88058e-08
-1.72729e-06
-6.82532e-09
-5.61101e-08
-2.18918e-06
-2.15246e-08
-5.25177e-08
-2.5522e-06
-3.76761e-08
-4.89873e-08
-2.90337e-06
-5.28418e-08
-4.50997e-08
-3.26148e-06
-6.48664e-08
-4.07839e-08
-3.63083e-06
-7.17886e-08
-3.61971e-08
-4.01061e-06
-3.16259e-08
-4.3955e-06
-7.19973e-08
-1.13071e-09
-6.69095e-08
-1.73669e-06
-1.43517e-08
-6.22165e-08
-2.19902e-06
-3.23308e-08
-5.79937e-08
-2.56364e-06
-5.11255e-08
-5.43688e-08
-2.91758e-06
-6.82544e-08
-5.06737e-08
-3.27932e-06
-8.14982e-08
-4.67773e-08
-3.65305e-06
-8.88268e-08
-4.27873e-08
-4.03781e-06
-3.89284e-08
-4.42804e-06
-8.85576e-08
-4.24593e-09
-7.11027e-08
-1.73993e-06
-2.047e-08
-6.47723e-08
-2.20188e-06
-4.09234e-08
-6.02512e-08
-2.56711e-06
-6.16606e-08
-5.68302e-08
-2.92242e-06
-8.01574e-08
-5.36324e-08
-3.28612e-06
-9.41399e-08
-5.04741e-08
-3.66234e-06
-1.01539e-07
-4.74089e-08
-4.05001e-06
-4.4578e-08
-4.44341e-06
-1.00659e-07
-6.74925e-09
-7.18155e-08
-1.73603e-06
-2.50803e-08
-6.42898e-08
-2.19688e-06
-4.71476e-08
-5.97592e-08
-2.56146e-06
-6.90801e-08
-5.67819e-08
-2.91636e-06
-8.83428e-08
-5.43198e-08
-3.27978e-06
-1.02649e-07
-5.21384e-08
-3.65584e-06
-1.09929e-07
-5.02297e-08
-4.04339e-06
-4.86509e-08
-4.43664e-06
-1.08489e-07
-8.08328e-09
-7.00646e-08
-1.72476e-06
-2.7284e-08
-6.15882e-08
-2.18395e-06
-4.97817e-08
-5.72673e-08
-2.54657e-06
-7.18345e-08
-5.48944e-08
-2.89921e-06
-9.09521e-08
-5.32995e-08
-3.26007e-06
-1.04896e-07
-5.2186e-08
-3.63327e-06
-1.11651e-07
-5.14717e-08
-4.0177e-06
-5.11105e-08
-4.4076e-06
-1.09604e-07
-1.01543e-08
-1.7074e-06
-6.49672e-08
-3.04096e-08
-2.1641e-06
-5.60505e-08
-5.34936e-08
-2.52337e-06
-5.20678e-08
-7.58916e-08
-2.87189e-06
-5.03378e-08
-9.5162e-08
-3.22783e-06
-4.96172e-08
-1.09089e-07
-3.59533e-06
-4.95558e-08
-1.15668e-07
-3.97336e-06
-4.99998e-08
-4.35626e-06
-5.08291e-08
-1.13269e-07
1.98719e-09
-5.08374e-08
-1.7025e-06
3.73503e-08
-8.71335e-09
-4.82174e-08
-2.15255e-06
3.67893e-08
-2.48751e-08
-4.41981e-08
-2.50888e-06
3.36669e-08
-4.26419e-08
-3.97983e-08
-2.85545e-06
2.97092e-08
-5.95602e-08
-3.47437e-08
-3.21021e-06
2.48832e-08
-7.34389e-08
-2.90527e-08
-3.5774e-06
1.92824e-08
-8.2244e-08
-2.29846e-08
-3.95624e-06
1.32062e-08
-1.69657e-08
-4.34143e-06
7.11149e-09
-8.4217e-08
-1.94263e-09
-6.01489e-08
-1.71603e-06
-1.66211e-08
-5.58323e-08
-2.16688e-06
-3.61479e-08
-5.13137e-08
-2.52555e-06
-5.65848e-08
-4.6894e-08
-2.87583e-06
-7.54304e-08
-4.20752e-08
-3.2353e-06
-9.04524e-08
-3.68078e-08
-3.60805e-06
-9.95896e-08
-3.12956e-08
-3.99316e-06
-2.58892e-08
-4.38508e-06
-1.01082e-07
-6.54147e-09
-6.42717e-08
-1.72602e-06
-2.55168e-08
-5.88428e-08
-2.17703e-06
-4.85604e-08
-5.425e-08
-2.53765e-06
-7.17751e-08
-5.01867e-08
-2.89107e-06
-9.26363e-08
-4.59982e-08
-3.25453e-06
-1.08906e-07
-4.15914e-08
-3.63199e-06
-1.18497e-07
-3.71065e-08
-4.0224e-06
-3.28051e-08
-4.42002e-06
-1.19604e-07
-1.02265e-08
-6.42151e-08
-1.72976e-06
-3.24446e-08
-5.81776e-08
-2.18032e-06
-5.81457e-08
-5.39166e-08
-2.54173e-06
-8.34705e-08
-5.05646e-08
-2.89671e-06
-1.05854e-07
-4.73645e-08
-3.26236e-06
-1.22992e-07
-4.41887e-08
-3.6426e-06
-1.32767e-07
-4.11121e-08
-4.03623e-06
-3.82844e-08
-4.43733e-06
-1.33366e-07
-1.28293e-08
-6.08028e-08
-1.72661e-06
-3.71077e-08
-5.46114e-08
-2.17616e-06
-6.44355e-08
-5.09622e-08
-2.53708e-06
-9.10008e-08
-4.855e-08
-2.8918e-06
-1.14218e-07
-4.65591e-08
-3.25736e-06
-1.31761e-07
-4.48286e-08
-3.63765e-06
-1.41504e-07
-4.33624e-08
-4.0314e-06
-4.21997e-08
-4.43258e-06
-1.41634e-07
-1.37211e-08
-5.54922e-08
-1.71634e-06
-3.85513e-08
-4.92526e-08
-2.16448e-06
-6.61542e-08
-4.63251e-08
-2.5236e-06
-9.27874e-08
-4.492e-08
-2.8762e-06
-1.15885e-07
-4.41759e-08
-3.23935e-06
-1.33142e-07
-4.38858e-08
-3.61695e-06
-1.42468e-07
-4.39714e-08
-4.00776e-06
-4.4348e-08
-4.40581e-06
-1.42108e-07
-1.46355e-08
-1.70022e-06
-4.80327e-08
-3.97449e-08
-2.1463e-06
-4.19416e-08
-6.7439e-08
-2.50231e-06
-3.96804e-08
-9.40898e-08
-2.85098e-06
-3.91678e-08
-1.17155e-07
-3.20942e-06
-3.95194e-08
-1.34327e-07
-3.58156e-06
-4.04844e-08
-1.43501e-07
-3.96624e-06
-4.19069e-08
-4.3576e-06
-4.36114e-08
-1.42885e-07
-2.55175e-09
-5.38663e-08
-1.68867e-06
4.25951e-08
-1.83985e-08
-4.87445e-08
-2.12702e-06
3.90624e-08
-3.93387e-08
-4.3154e-08
-2.47884e-06
3.40568e-08
-6.1449e-08
-3.7345e-08
-2.82442e-06
2.84241e-08
-8.22081e-08
-3.08742e-08
-3.18051e-06
2.19312e-08
-9.93545e-08
-2.37748e-08
-3.55116e-06
1.4681e-08
-1.10763e-07
-1.63662e-08
-3.9355e-06
7.03442e-09
-9.15448e-09
-4.32805e-06
-5.15707e-10
-1.14481e-07
-7.30794e-09
-6.04118e-08
-1.70218e-06
-2.75572e-08
-5.42763e-08
-2.1411e-06
-5.20166e-08
-4.86598e-08
-2.49558e-06
-7.68477e-08
-4.32194e-08
-2.84513e-06
-9.95376e-08
-3.73583e-08
-3.20612e-06
-1.17837e-07
-3.10516e-08
-3.58247e-06
-1.29638e-07
-2.45534e-08
-3.97317e-06
-1.82707e-08
-4.37254e-06
-1.33063e-07
-1.27547e-08
-6.12284e-08
-1.71244e-06
-3.75229e-08
-5.48911e-08
-2.15165e-06
-6.55591e-08
-4.97968e-08
-2.50848e-06
-9.30887e-08
-4.52075e-08
-2.86155e-06
-1.1765e-07
-4.0468e-08
-3.22686e-06
-1.37098e-07
-3.55189e-08
-3.60808e-06
-1.49353e-07
-3.05264e-08
-4.00417e-06
-2.57791e-08
-4.40936e-06
-1.52506e-07
-1.68388e-08
-5.7813e-08
-1.71633e-06
-4.49388e-08
-5.19273e-08
-2.15518e-06
-7.57011e-08
-4.7832e-08
-2.51294e-06
-1.05437e-07
-4.4506e-08
-2.86768e-06
-1.31641e-07
-4.12944e-08
-3.23533e-06
-1.52067e-07
-3.8114e-08
-3.61958e-06
-1.64606e-07
-3.50507e-08
-4.01917e-06
-3.22533e-08
-4.4281e-06
-1.67358e-07
-1.94285e-08
-5.12594e-08
-1.71373e-06
-4.95082e-08
-4.63161e-08
-2.1517e-06
-8.18649e-08
-4.34967e-08
-2.50906e-06
-1.12858e-07
-4.16571e-08
-2.86366e-06
-1.39949e-07
-4.01779e-08
-3.23139e-06
-1.60848e-07
-3.89533e-08
-3.61591e-06
-1.73435e-07
-3.79875e-08
-4.01587e-06
-3.72944e-08
-4.42516e-06
-1.75814e-07
-1.9878e-08
-4.33299e-08
-1.70439e-06
-5.02595e-08
-3.93028e-08
-2.14111e-06
-8.27813e-08
-3.77684e-08
-2.4968e-06
-1.13827e-07
-3.73942e-08
-2.84942e-06
-1.40847e-07
-3.7596e-08
-3.21491e-06
-1.61551e-07
-3.82312e-08
-3.59697e-06
-1.73835e-07
-3.92118e-08
-3.99426e-06
-4.04074e-08
-4.40069e-06
-1.7584e-07
-1.97783e-08
-1.68955e-06
-3.42218e-08
-4.98648e-08
-2.1245e-06
-3.10174e-08
-8.21348e-08
-2.47726e-06
-3.05467e-08
-1.12997e-07
-2.82613e-06
-3.13837e-08
-1.39889e-07
-3.18715e-06
-3.29734e-08
-1.60491e-07
-3.56405e-06
-3.51343e-08
-1.72661e-07
-3.95559e-06
-3.76917e-08
-4.35577e-06
-4.04066e-08
-1.7449e-07
-7.80723e-09
-5.50006e-08
-1.6714e-06
4.55358e-08
-2.89909e-08
-4.71995e-08
-2.09749e-06
3.88481e-08
-5.46767e-08
-3.99351e-08
-2.44502e-06
3.18009e-08
-8.10763e-08
-3.26308e-08
-2.78977e-06
2.43707e-08
-1.05679e-07
-2.46859e-08
-3.14735e-06
1.61236e-08
-1.26218e-07
-1.61567e-08
-3.52165e-06
7.18009e-09
-1.40503e-07
-7.42713e-09
-3.91173e-06
-2.0676e-09
8.84704e-10
-4.31206e-06
-1.08449e-08
-1.46536e-07
-1.32948e-08
-5.93926e-08
-1.68449e-06
-3.89267e-08
-5.1286e-08
-2.11138e-06
-6.80398e-08
-4.45002e-08
-2.46191e-06
-9.6982e-08
-3.79857e-08
-2.81083e-06
-1.23329e-07
-3.10542e-08
-3.17341e-06
-1.449e-07
-2.37081e-08
-3.55336e-06
-1.59592e-07
-1.62548e-08
-3.94966e-06
-9.13791e-09
-4.35663e-06
-1.65484e-07
-1.94101e-08
-5.75746e-08
-1.69485e-06
-4.9644e-08
-5.02192e-08
-2.12249e-06
-8.21662e-08
-4.45669e-08
-2.4759e-06
-1.13439e-07
-3.94286e-08
-2.82884e-06
-1.41225e-07
-3.41545e-08
-3.19598e-06
-1.63672e-07
-2.87119e-08
-3.58063e-06
-1.78742e-07
-2.32767e-08
-3.98209e-06
-1.81483e-08
-4.39467e-06
-1.84421e-07
-2.36246e-08
-5.1747e-08
-1.69854e-06
-5.71195e-08
-4.5923e-08
-2.12599e-06
-9.23384e-08
-4.19473e-08
-2.48034e-06
-1.25893e-07
-3.86497e-08
-2.83491e-06
-1.55468e-07
-3.54679e-08
-3.20445e-06
-1.78991e-07
-3.23496e-08
-3.59243e-06
-1.94408e-07
-2.93743e-08
-3.99766e-06
-2.66778e-08
-4.41424e-06
-1.99751e-07
-2.60859e-08
-4.31166e-08
-1.69628e-06
-6.142e-08
-3.93557e-08
-2.12294e-06
-9.81761e-08
-3.73394e-08
-2.47692e-06
-1.33015e-07
-3.61035e-08
-2.83137e-06
-1.63549e-07
-3.51969e-08
-3.20113e-06
-1.87611e-07
-3.45493e-08
-3.58966e-06
-2.03144e-07
-3.41538e-08
-3.99557e-06
-3.39936e-08
-4.4128e-06
-2.08196e-07
-2.61365e-08
-3.35798e-08
-1.68779e-06
-6.15866e-08
-3.17291e-08
-2.11329e-06
-9.84586e-08
-3.15855e-08
-2.46569e-06
-1.33389e-07
-3.23046e-08
-2.81829e-06
-1.63947e-07
-3.35362e-08
-3.18602e-06
-1.87932e-07
-3.51789e-08
-3.57236e-06
-2.03286e-07
-3.71249e-08
-3.97594e-06
-3.9198e-08
-4.39069e-06
-2.08087e-07
-2.52372e-08
-1.6743e-06
-2.35944e-08
-6.00261e-08
-2.09815e-06
-2.32963e-08
-9.64737e-08
-2.44775e-06
-2.46563e-08
-1.31162e-07
-2.7968e-06
-2.69499e-08
-1.61605e-07
-3.16034e-06
-2.99037e-08
-1.85544e-07
-3.54192e-06
-3.33785e-08
-2.00864e-07
-3.94023e-06
-3.71704e-08
-4.34928e-06
-4.09787e-08
-2.05581e-07
-1.3583e-08
-5.40398e-08
-1.64971e-06
4.59254e-08
-3.9775e-08
-4.35285e-08
-2.06378e-06
3.59957e-08
-6.97819e-08
-3.46258e-08
-2.40731e-06
2.69086e-08
-1.00037e-07
-2.58673e-08
-2.75135e-06
1.76936e-08
-1.28131e-07
-1.65222e-08
-3.1105e-06
7.75337e-09
-1.51848e-07
-6.68082e-09
-3.48848e-06
-2.78341e-09
-1.69063e-07
3.18438e-09
-3.88438e-06
-1.33252e-08
1.25428e-08
-4.29271e-06
-2.3257e-08
-1.77715e-07
-1.94667e-08
-5.6937e-08
-1.66214e-06
-4.99479e-08
-4.68623e-08
-2.07758e-06
-8.30397e-08
-3.89555e-08
-2.4245e-06
-1.15408e-07
-3.14247e-08
-2.77292e-06
-1.44854e-07
-2.35011e-08
-3.137e-06
-1.69367e-07
-1.52141e-08
-3.52033e-06
-1.86902e-07
-6.93587e-09
-3.92202e-06
9.24936e-10
-4.33652e-06
-1.95408e-07
-2.61194e-08
-5.31174e-08
-1.67256e-06
-6.11604e-08
-4.4763e-08
-2.08956e-06
-9.72503e-08
-3.85765e-08
-2.4402e-06
-1.31161e-07
-3.2947e-08
-2.79342e-06
-1.61147e-07
-2.72464e-08
-3.16226e-06
-1.8606e-07
-2.14596e-08
-3.54949e-06
-2.03811e-07
-1.57365e-08
-3.95555e-06
-1.03703e-08
-4.37504e-06
-2.12169e-07
-3.01213e-08
-4.58673e-08
-1.67567e-06
-6.81497e-08
-4.00893e-08
-2.09265e-06
-1.06831e-07
-3.62326e-08
-2.44402e-06
-1.43188e-07
-3.30146e-08
-2.79849e-06
-1.7528e-07
-2.99601e-08
-3.16965e-06
-2.01358e-07
-2.70294e-08
-3.56079e-06
-2.19425e-07
-2.42678e-08
-3.97107e-06
-2.17859e-08
-4.39483e-06
-2.27431e-07
-3.23176e-08
-3.62973e-08
-1.67353e-06
-7.19671e-08
-3.36709e-08
-2.08972e-06
-1.12121e-07
-3.24454e-08
-2.44056e-06
-1.49863e-07
-3.18564e-08
-2.7948e-06
-1.83066e-07
-3.15905e-08
-3.16631e-06
-2.0976e-07
-3.15938e-08
-3.55841e-06
-2.27978e-07
-3.18358e-08
-3.96979e-06
-3.22678e-08
-4.39459e-06
-2.35726e-07
-3.20328e-08
-2.62299e-08
-1.66583e-06
-7.16804e-08
-2.64809e-08
-2.08084e-06
-1.1197e-07
-2.77064e-08
-2.43015e-06
-1.49915e-07
-2.95541e-08
-2.78266e-06
-1.83293e-07
-3.18605e-08
-3.15238e-06
-2.10055e-07
-3.45449e-08
-3.54266e-06
-2.28229e-07
-3.74749e-08
-3.95214e-06
-4.04365e-08
-4.37492e-06
-2.35851e-07
-3.05877e-08
-1.65375e-06
-1.61959e-08
-6.9417e-08
-2.06707e-06
-1.87402e-08
-1.09284e-07
-2.41368e-06
-2.19184e-08
-1.47076e-07
-2.76286e-06
-2.57136e-08
-1.80466e-07
-3.12874e-06
-3.0079e-08
-2.07317e-07
-3.51473e-06
-3.48958e-08
-2.25589e-07
-3.91952e-06
-3.99281e-08
-4.33724e-06
-4.48278e-08
-2.33252e-07
-1.94082e-08
-5.091e-08
-1.62301e-06
4.36231e-08
-4.99451e-08
-3.78974e-08
-2.02595e-06
3.05954e-08
-8.34751e-08
-2.75542e-08
-2.36588e-06
1.96434e-08
-1.16782e-07
-1.75351e-08
-2.70935e-06
8.82774e-09
-1.47644e-07
-7.01342e-09
-3.07006e-06
-2.58409e-09
-1.74037e-07
3.8522e-09
-3.45167e-06
-1.42915e-08
-1.93894e-07
1.46063e-08
-3.85333e-06
-2.58241e-08
2.45585e-08
-4.26963e-06
-3.65097e-08
-2.05041e-07
-2.53744e-08
-5.30272e-08
-1.63466e-06
-5.98251e-08
-4.11935e-08
-2.03985e-06
-9.58599e-08
-3.23584e-08
-2.38368e-06
-1.30572e-07
-2.40078e-08
-2.73175e-06
-1.62214e-07
-1.52773e-08
-3.09711e-06
-1.89047e-07
-6.22158e-09
-3.48344e-06
-2.08987e-07
2.67724e-09
-3.89016e-06
1.08579e-08
-4.31196e-06
-2.19868e-07
-3.26071e-08
-4.77403e-08
-1.64525e-06
-7.15412e-08
-3.85573e-08
-2.05328e-06
-1.09867e-07
-3.19438e-08
-2.4023e-06
-1.44668e-07
-2.59655e-08
-2.75667e-06
-1.75185e-07
-2.00464e-08
-3.12699e-06
-2.01802e-07
-1.41728e-08
-3.51494e-06
-2.21847e-07
-8.41198e-09
-3.92443e-06
-3.03945e-09
-4.35018e-06
-2.32821e-07
-3.59505e-08
-4.00494e-08
-1.64742e-06
-7.73624e-08
-3.43797e-08
-2.05543e-06
-1.18167e-07
-3.06815e-08
-2.40449e-06
-1.55868e-07
-2.76378e-08
-2.75913e-06
-1.89195e-07
-2.4868e-08
-3.13152e-06
-2.16995e-07
-2.23106e-08
-3.52487e-06
-2.37174e-07
-1.99345e-08
-3.93939e-06
-1.78159e-08
-4.36972e-06
-2.4752e-07
-3.76791e-08
-3.07103e-08
-1.6452e-06
-8.03693e-08
-2.91811e-08
-2.05224e-06
-1.22608e-07
-2.87391e-08
-2.40028e-06
-1.62005e-07
-2.88371e-08
-2.75421e-06
-1.96811e-07
-2.92743e-08
-3.12711e-06
-2.25298e-07
-2.9991e-08
-3.52226e-06
-2.45578e-07
-3.09195e-08
-3.93855e-06
-3.19821e-08
-4.37041e-06
-2.55607e-07
-3.71179e-08
-2.12176e-08
-1.63822e-06
-7.97483e-08
-2.34366e-08
-2.04397e-06
-1.22222e-07
-2.59706e-08
-2.39046e-06
-1.62033e-07
-2.89302e-08
-2.74277e-06
-1.97227e-07
-3.22935e-08
-3.11419e-06
-2.25944e-07
-3.59831e-08
-3.50797e-06
-2.46304e-07
-3.98422e-08
-3.92287e-06
-4.36334e-08
-4.35327e-06
-2.56313e-07
-3.53844e-08
-1.62759e-06
-1.20044e-08
-7.72389e-08
-2.03146e-06
-1.7203e-08
-1.19459e-07
-2.37534e-06
-2.21039e-08
-1.5934e-07
-2.72458e-06
-2.73494e-08
-1.94774e-07
-3.09256e-06
-3.30623e-08
-2.23783e-07
-3.48259e-06
-3.91282e-08
-2.44416e-07
-3.89346e-06
-4.52853e-08
-4.31953e-06
-5.11614e-08
-2.54618e-07
-2.482e-08
-4.57368e-08
-1.59114e-06
3.86772e-08
-5.86972e-08
-3.06817e-08
-1.9844e-06
2.29829e-08
-9.46333e-08
-1.92565e-08
-2.32123e-06
1.05226e-08
-1.29856e-07
-8.31902e-09
-2.66427e-06
-1.55731e-09
-1.62525e-07
2.97839e-09
-3.02651e-06
-1.38814e-08
-1.90826e-07
1.45427e-08
-3.41163e-06
-2.62954e-08
-2.12656e-07
2.5609e-08
-3.81887e-06
-3.82527e-08
3.57098e-08
-4.24305e-06
-4.91552e-08
-2.25811e-07
-3.06111e-08
-4.78216e-08
-1.60197e-06
-6.78503e-08
-3.46338e-08
-1.99868e-06
-1.05473e-07
-2.52106e-08
-2.34012e-06
-1.41149e-07
-1.62961e-08
-2.68812e-06
-1.73943e-07
-6.95916e-09
-3.0544e-06
-2.02196e-07
2.56878e-09
-3.44323e-06
-2.23756e-07
1.15407e-08
-3.85456e-06
1.97914e-08
-4.28335e-06
-2.36472e-07
-3.86676e-08
-4.14801e-08
-1.61294e-06
-8.03546e-08
-3.17665e-08
-2.01448e-06
-1.18885e-07
-2.49183e-08
-2.36408e-06
-1.52182e-07
-1.88764e-08
-2.72082e-06
-1.82032e-07
-1.30894e-08
-3.09103e-06
-2.0938e-07
-7.41091e-09
-3.47763e-06
-2.31271e-07
-1.92687e-09
-3.8891e-06
3.18508e-09
-4.3205e-06
-2.44377e-07
-4.07581e-08
-3.42536e-08
-1.6139e-06
-8.42337e-08
-2.88257e-08
-2.01491e-06
-1.25591e-07
-2.53583e-08
-2.36271e-06
-1.62849e-07
-2.26269e-08
-2.71815e-06
-1.95893e-07
-2.03496e-08
-3.09124e-06
-2.24487e-07
-1.83927e-08
-3.48531e-06
-2.46052e-07
-1.65915e-08
-3.90319e-06
-1.49927e-08
-4.33953e-06
-2.58099e-07
-4.17277e-08
-2.62537e-08
-1.61149e-06
-8.59776e-08
-2.58021e-08
-2.01104e-06
-1.28824e-07
-2.61343e-08
-2.35668e-06
-1.68467e-07
-2.69464e-08
-2.71027e-06
-2.0365e-07
-2.81279e-08
-3.08417e-06
-2.32908e-07
-2.95865e-08
-3.48183e-06
-2.54366e-07
-3.12108e-08
-3.90249e-06
-3.29017e-08
-4.34098e-06
-2.6591e-07
-4.09482e-08
-1.83816e-08
-1.60515e-06
-8.51135e-08
-2.23859e-08
-2.00325e-06
-1.28373e-07
-2.61168e-08
-2.34724e-06
-1.68752e-07
-3.01046e-08
-2.69925e-06
-2.04599e-07
-3.4428e-08
-3.07206e-06
-2.34233e-07
-3.90001e-08
-3.46894e-06
-2.55853e-07
-4.36454e-08
-3.88884e-06
-4.81219e-08
-4.32649e-06
-2.67439e-07
-3.91944e-08
-1.59594e-06
-1.08494e-08
-8.2782e-08
-1.9919e-06
-1.83855e-08
-1.26087e-07
-2.33336e-06
-2.48115e-08
-1.66865e-07
-2.68258e-06
-3.1339e-08
-2.03245e-07
-3.05242e-06
-3.82055e-08
-2.33409e-07
-3.44616e-06
-4.52923e-08
-2.5549e-07
-3.86272e-06
-5.23245e-08
-4.29681e-06
-5.89337e-08
-2.67423e-07
-2.93454e-08
-3.88313e-08
-1.55435e-06
3.1375e-08
-6.53096e-08
-2.23687e-08
-1.93979e-06
1.36941e-08
-1.02313e-07
-1.03432e-08
-2.27412e-06
2.13665e-10
-1.38189e-07
9.69139e-10
-2.61695e-06
-1.24381e-08
-1.71662e-07
1.27829e-08
-2.98071e-06
-2.5127e-08
-2.00866e-07
2.43042e-08
-3.36921e-06
-3.75562e-08
-2.23769e-07
3.50994e-08
-3.78185e-06
-4.9245e-08
4.4762e-08
-4.21379e-06
-5.96977e-08
-2.38124e-07
-3.46944e-08
-4.15488e-08
-1.56458e-06
-7.33617e-08
-2.75512e-08
-1.95486e-06
-1.11024e-07
-1.79185e-08
-2.29491e-06
-1.46493e-07
-8.645e-09
-2.64306e-06
-1.79339e-07
1.0128e-09
-3.00981e-06
-2.07935e-07
1.02209e-08
-3.40058e-06
-2.30236e-07
1.89511e-08
-3.81614e-06
2.67652e-08
-4.25168e-06
-2.43941e-07
-4.37558e-08
-3.45693e-08
-1.57617e-06
-8.66306e-08
-2.47215e-08
-1.97446e-06
-1.22622e-07
-1.79489e-08
-2.32808e-06
-1.53009e-07
-1.22688e-08
-2.68683e-06
-1.81518e-07
-6.9518e-09
-3.05459e-06
-2.09438e-07
-1.83689e-09
-3.43768e-06
-2.3236e-07
3.15339e-09
-3.85041e-06
7.70024e-09
-4.2871e-06
-2.46726e-07
-4.40003e-08
-2.8627e-08
-1.57586e-06
-8.80548e-08
-2.36543e-08
-1.97195e-06
-1.28262e-07
-2.0589e-08
-2.31989e-06
-1.63696e-07
-1.8404e-08
-2.6766e-06
-1.95721e-07
-1.68225e-08
-3.04937e-06
-2.24e-07
-1.55775e-08
-3.44332e-06
-2.46001e-07
-1.447e-08
-3.86359e-06
-1.35142e-08
-4.30552e-06
-2.58826e-07
-4.39932e-08
-2.28975e-08
-1.57324e-06
-8.8339e-08
-2.35126e-08
-1.96686e-06
-1.30384e-07
-2.46026e-08
-2.31064e-06
-1.68916e-07
-2.61248e-08
-2.66404e-06
-2.03356e-07
-2.80437e-08
-3.03854e-06
-2.32358e-07
-3.02072e-08
-3.43823e-06
-2.54005e-07
-3.24664e-08
-3.86288e-06
-3.47195e-08
-4.30769e-06
-2.66122e-07
-4.30402e-08
-1.74993e-08
-1.56753e-06
-8.72961e-08
-2.30587e-08
-1.95947e-06
-1.29986e-07
-2.7812e-08
-2.30136e-06
-1.69672e-07
-3.2666e-08
-2.65305e-06
-2.05022e-07
-3.7766e-08
-3.02701e-06
-2.34496e-07
-4.30051e-08
-3.42669e-06
-2.56338e-07
-4.82012e-08
-3.85129e-06
-5.31275e-08
-4.29594e-06
-2.68513e-07
-4.151e-08
-1.55957e-06
-1.23712e-08
-8.54761e-08
-1.94919e-06
-2.183e-08
-1.28593e-07
-2.2886e-06
-2.94783e-08
-1.69069e-07
-2.6378e-06
-3.6999e-08
-2.05263e-07
-3.00932e-06
-4.46967e-08
-2.35493e-07
-3.40651e-06
-5.24467e-08
-2.57963e-07
-3.8285e-06
-5.9978e-08
-4.27037e-06
-6.69537e-08
-2.70606e-07
-3.24592e-08
-3.04896e-08
-1.51358e-06
2.21674e-08
-6.91985e-08
-1.33895e-08
-1.89305e-06
3.35389e-09
-1.0597e-07
-1.39522e-09
-2.22564e-06
-1.0346e-08
-1.41479e-07
1.01537e-08
-2.56866e-06
-2.29678e-08
-1.74659e-07
2.15177e-08
-2.93384e-06
-3.52417e-08
-2.03748e-07
3.2313e-08
-3.32556e-06
-4.69066e-08
-2.26727e-07
4.21332e-08
-3.74349e-06
-5.75584e-08
5.06927e-08
-4.18309e-06
-6.68288e-08
-2.41324e-07
-3.71844e-08
-3.427e-08
-1.52364e-06
-7.59582e-08
-2.0072e-08
-1.90944e-06
-1.1254e-07
-1.05252e-08
-2.24923e-06
-1.46516e-07
-1.1744e-09
-2.59779e-06
-1.78525e-07
7.6703e-09
-2.96399e-06
-2.06652e-07
1.63923e-08
-3.35656e-06
-2.28741e-07
2.42702e-08
-3.77622e-06
3.10896e-08
-4.2184e-06
-2.42463e-07
-4.6769e-08
-2.74792e-08
-1.53622e-06
-8.84144e-08
-1.80426e-08
-1.93488e-06
-1.20447e-07
-1.19237e-08
-2.29468e-06
-1.48263e-07
-6.95375e-09
-2.65327e-06
-1.75587e-07
-2.4317e-09
-3.01719e-06
-2.04459e-07
2.11718e-09
-3.39457e-06
-2.27306e-07
6.32034e-09
-3.80964e-06
9.97794e-09
-4.25181e-06
-2.41524e-07
-4.52467e-08
-2.35689e-08
-1.53454e-06
-8.84588e-08
-1.9353e-08
-1.92746e-06
-1.26519e-07
-1.69333e-08
-2.27685e-06
-1.59254e-07
-1.54576e-08
-2.63522e-06
-1.89467e-07
-1.46803e-08
-3.00694e-06
-2.17226e-07
-1.41808e-08
-3.3993e-06
-2.38635e-07
-1.37779e-08
-3.82212e-06
-1.35066e-08
-4.26954e-06
-2.51167e-07
-4.4358e-08
-2.07511e-08
-1.53172e-06
-8.75055e-08
-2.23964e-08
-1.9207e-06
-1.27584e-07
-2.42092e-08
-2.26332e-06
-1.63868e-07
-2.63824e-08
-2.61687e-06
-1.96754e-07
-2.8948e-08
-2.99142e-06
-2.24645e-07
-3.16729e-08
-3.39288e-06
-2.45567e-07
-3.44161e-08
-3.82135e-06
-3.70859e-08
-4.27238e-06
-2.57343e-07
-4.32574e-08
-1.83846e-08
-1.52665e-06
-8.63219e-08
-2.51707e-08
-1.91366e-06
-1.27236e-07
-3.06887e-08
-2.254e-06
-1.65142e-07
-3.61643e-08
-2.60539e-06
-1.99035e-07
-4.17699e-08
-2.98033e-06
-2.27408e-07
-4.73734e-08
-3.38265e-06
-2.48524e-07
-5.28024e-08
-3.81182e-06
-5.78637e-08
-4.26337e-06
-2.60356e-07
-4.20441e-08
-1.51978e-06
-1.61561e-08
-8.51415e-08
-1.90431e-06
-2.69831e-08
-1.26933e-07
-2.24209e-06
-3.54354e-08
-1.66055e-07
-2.59132e-06
-4.35472e-08
-2.01062e-07
-2.96447e-06
-5.16444e-08
-2.30366e-07
-3.36501e-06
-5.95976e-08
-2.52223e-07
-3.79233e-06
-6.71564e-08
-4.24187e-06
-7.40375e-08
-2.64586e-07
-3.39644e-08
-2.09747e-08
-1.47022e-06
1.15744e-08
-7.03466e-08
-4.10687e-09
-1.84532e-06
-7.2725e-09
-1.05949e-07
7.48139e-09
-2.17714e-06
-2.04095e-08
-1.3994e-07
1.84171e-08
-2.52092e-06
-3.21963e-08
-1.71939e-07
2.86294e-08
-2.88724e-06
-4.32669e-08
-2.00033e-07
3.79071e-08
-3.28202e-06
-5.33846e-08
-2.22181e-07
4.60341e-08
-3.70516e-06
-6.22526e-08
5.28416e-08
-4.15239e-06
-6.96415e-08
-2.36122e-07
-3.79923e-08
-2.60154e-08
-1.48063e-06
-7.56652e-08
-1.22924e-08
-1.86362e-06
-1.10296e-07
-3.41171e-09
-2.20374e-06
-1.42246e-07
5.35835e-09
-2.55282e-06
-1.72843e-07
1.33308e-08
-2.91813e-06
-1.99759e-07
2.07334e-08
-3.31251e-06
-2.2074e-07
2.70753e-08
-3.73632e-06
3.23536e-08
-4.18513e-06
-2.33564e-07
-4.69018e-08
-2.07602e-08
-1.49459e-06
-8.56015e-08
-1.23921e-08
-1.89611e-06
-1.13289e-07
-7.43169e-09
-2.26301e-06
-1.38709e-07
-3.3462e-09
-2.61918e-06
-1.70357e-07
1.20466e-10
-2.97237e-06
-1.97688e-07
4.07198e-09
-3.35061e-06
-2.18633e-07
7.26906e-09
-3.76893e-06
9.83665e-09
-4.21677e-06
-2.3119e-07
-4.41907e-08
-1.96122e-08
-1.49152e-06
-8.49876e-08
-1.65541e-08
-1.88254e-06
-1.20286e-07
-1.51662e-08
-2.23384e-06
-1.51215e-07
-1.45146e-08
-2.59333e-06
-1.80523e-07
-1.43576e-08
-2.9632e-06
-2.06923e-07
-1.43994e-08
-3.35446e-06
-2.2658e-07
-1.45701e-08
-3.78066e-06
-1.49208e-08
-4.23371e-06
-2.37698e-07
-4.30697e-08
-1.99649e-08
-1.48832e-06
-8.3935e-08
-2.25776e-08
-1.87385e-06
-1.2114e-07
-2.50626e-08
-2.21625e-06
-1.54977e-07
-2.7783e-08
-2.56979e-06
-1.85683e-07
-3.0752e-08
-2.94435e-06
-2.11822e-07
-3.37655e-08
-3.34741e-06
-2.31278e-07
-3.67527e-08
-3.77975e-06
-3.96248e-08
-4.23703e-06
-2.41967e-07
-4.19326e-08
-2.08217e-08
-1.48389e-06
-8.27616e-08
-2.84099e-08
-1.86704e-06
-1.20987e-07
-3.43642e-08
-2.2065e-06
-1.56272e-07
-4.01288e-08
-2.55779e-06
-1.88048e-07
-4.59001e-08
-2.93344e-06
-2.14645e-07
-5.15018e-08
-3.33836e-06
-2.34325e-07
-5.67929e-08
-3.77214e-06
-6.16274e-08
-4.23062e-06
-2.45111e-07
-4.1e-08
-1.47789e-06
-2.17262e-08
-8.21759e-08
-1.85836e-06
-3.32155e-08
-1.21695e-07
-2.19502e-06
-4.19522e-08
-1.58656e-07
-2.54435e-06
-5.01719e-08
-1.91728e-07
-2.91916e-06
-5.81686e-08
-2.19356e-07
-3.32311e-06
-6.5811e-08
-2.39827e-07
-3.7558e-06
-7.2883e-08
-4.21305e-06
-7.91687e-08
-2.51148e-07
-3.41259e-08
-1.07143e-08
-1.42559e-06
1.97827e-10
-6.93831e-08
5.09394e-09
-1.79787e-06
-1.73269e-08
-1.02926e-07
1.54721e-08
-2.13e-06
-2.9114e-08
-1.3466e-07
2.51633e-08
-2.47508e-06
-3.93046e-08
-1.64709e-07
3.34929e-08
-2.84229e-06
-4.84307e-08
-1.91171e-07
4.05937e-08
-3.23986e-06
-5.63334e-08
-2.118e-07
4.64388e-08
-3.6682e-06
-6.28133e-08
5.09906e-08
-4.12307e-06
-6.77714e-08
-2.24391e-07
-3.7455e-08
-1.7027e-08
-1.43689e-06
-7.34109e-08
-4.48504e-09
-1.81812e-06
-1.04728e-07
2.21854e-09
-2.15921e-06
-1.35226e-07
1.11914e-08
-2.50838e-06
-1.64155e-07
1.77252e-08
-2.87347e-06
-1.89224e-07
2.28362e-08
-3.26973e-06
-2.08389e-07
2.71075e-08
-3.69787e-06
3.04514e-08
-4.15341e-06
-2.19614e-07
-4.37469e-08
-1.50453e-08
-1.45285e-06
-7.86401e-08
-8.44299e-09
-1.8573e-06
-1.02496e-07
-5.9756e-09
-2.231e-06
-1.33583e-07
-1.73768e-09
-2.5752e-06
-1.66001e-07
1.33394e-09
-2.9236e-06
-1.89863e-07
4.03818e-09
-3.30799e-06
-2.07761e-07
6.05911e-09
-3.73003e-06
7.40552e-09
-4.18375e-06
-2.17788e-07
-4.09888e-08
-1.71227e-08
-1.44848e-06
-7.79259e-08
-1.55688e-08
-1.83852e-06
-1.11649e-07
-1.55554e-08
-2.19058e-06
-1.41777e-07
-1.55441e-08
-2.5496e-06
-1.71365e-07
-1.57137e-08
-2.91659e-06
-1.94704e-07
-1.59652e-08
-3.31116e-06
-2.11911e-07
-1.65754e-08
-3.74086e-06
-1.74645e-08
-4.1998e-06
-2.20998e-07
-4.04818e-08
-2.05487e-08
-1.44443e-06
-7.8375e-08
-2.40038e-08
-1.82756e-06
-1.12879e-07
-2.70427e-08
-2.17029e-06
-1.43658e-07
-2.99913e-08
-2.52461e-06
-1.72378e-07
-3.31124e-08
-2.89827e-06
-1.96371e-07
-3.61483e-08
-3.30327e-06
-2.13872e-07
-3.91092e-08
-3.73976e-06
-4.19419e-08
-4.20348e-06
-2.2299e-07
-3.95167e-08
-2.44755e-08
-1.44047e-06
-7.74812e-08
-3.23901e-08
-1.82073e-06
-1.12371e-07
-3.8404e-08
-2.16029e-06
-1.44851e-07
-4.41141e-08
-2.51123e-06
-1.74104e-07
-4.96419e-08
-2.8877e-06
-1.98555e-07
-5.48503e-08
-3.29524e-06
-2.16381e-07
-5.96259e-08
-3.73384e-06
-6.38743e-08
-4.19941e-06
-2.25703e-07
-3.88196e-08
-1.43514e-06
-2.84295e-08
-7.73351e-08
-1.81246e-06
-3.98169e-08
-1.13969e-07