/*--------------------------------*- C++ -*----------------------------------*\
| =========                 |                                                 |
| \\      /  F ield         | OpenFOAM: The Open Source CFD Toolbox           |
|  \\    /   O peration     | Version:  plus.master.MPPICInterFoam            |
|   \\  /    A nd           | Web:      www.OpenFOAM.com                      |
|    \\/     M anipulation  |                                                 |
\*---------------------------------------------------------------------------*/
FoamFile
{
    version     2.0;
    format      ascii;
    class       volScalarField;
    location    "9.8";
    object      epsilon;
}
// * * * * * * * * * * * * * * * * * * * * * * * * * * * * * * * * * * * * * //

dimensions      [0 2 -3 0 0 0 0];

internalField   nonuniform List<scalar> 
11821
(
4.77788e-05
1.49844e-05
1.04153e-05
9.55268e-06
9.48701e-06
9.58465e-06
9.63283e-06
9.55289e-06
4.84244e-05
1.52295e-05
1.06445e-05
9.80586e-06
9.76871e-06
9.89046e-06
9.954e-06
9.87723e-06
4.8903e-05
1.54061e-05
1.08284e-05
1.00171e-05
1.00063e-05
1.01503e-05
1.02287e-05
1.0157e-05
4.91146e-05
1.5494e-05
1.0937e-05
1.0146e-05
1.01523e-05
1.03106e-05
1.03991e-05
1.03314e-05
4.89983e-05
1.54592e-05
1.09434e-05
1.0163e-05
1.01737e-05
1.03344e-05
1.04244e-05
1.03578e-05
4.85519e-05
1.5304e-05
1.08421e-05
1.00624e-05
1.00644e-05
1.02157e-05
1.02994e-05
1.02316e-05
4.7849e-05
1.50432e-05
1.06466e-05
9.86216e-06
9.84466e-06
9.97567e-06
1.0045e-05
9.97339e-06
4.84454e-05
1.55825e-05
1.11369e-05
1.03991e-05
1.04467e-05
1.06349e-05
1.07397e-05
1.06708e-05
4.92264e-05
1.58903e-05
1.14409e-05
1.07369e-05
1.08203e-05
1.10388e-05
1.11631e-05
1.10994e-05
4.9834e-05
1.61249e-05
1.16936e-05
1.10217e-05
1.11375e-05
1.1384e-05
1.15277e-05
1.14715e-05
5.01391e-05
1.62541e-05
1.18481e-05
1.1197e-05
1.13339e-05
1.1599e-05
1.1756e-05
1.1706e-05
5.00669e-05
1.62414e-05
1.1867e-05
1.12246e-05
1.13668e-05
1.16358e-05
1.17957e-05
1.17476e-05
4.96087e-05
1.60848e-05
1.17433e-05
1.10968e-05
1.12279e-05
1.14861e-05
1.16391e-05
1.159e-05
4.88513e-05
1.57961e-05
1.14972e-05
1.08373e-05
1.09427e-05
1.11758e-05
1.13113e-05
1.12568e-05
4.94709e-05
1.63992e-05
1.21005e-05
1.15139e-05
1.16995e-05
1.20008e-05
1.2179e-05
1.21308e-05
5.04306e-05
1.67963e-05
1.25046e-05
1.1955e-05
1.21826e-05
1.25199e-05
1.27218e-05
1.26805e-05
5.12083e-05
1.7123e-05
1.28462e-05
1.23293e-05
1.2595e-05
1.29661e-05
1.31916e-05
1.31604e-05
5.16355e-05
1.73284e-05
1.30563e-05
1.25614e-05
1.28526e-05
1.32466e-05
1.34888e-05
1.34658e-05
5.16174e-05
1.73487e-05
1.30903e-05
1.26035e-05
1.29016e-05
1.33013e-05
1.3548e-05
1.3528e-05
5.11349e-05
1.71708e-05
1.29385e-05
1.24454e-05
1.27309e-05
1.31192e-05
1.33588e-05
1.33381e-05
5.02921e-05
1.68227e-05
1.26286e-05
1.21168e-05
1.23715e-05
1.27308e-05
1.29504e-05
1.29232e-05
5.0947e-05
1.75003e-05
1.33684e-05
1.29515e-05
1.3301e-05
1.37399e-05
1.40111e-05
1.39953e-05
5.21383e-05
1.80309e-05
1.38924e-05
1.35128e-05
1.39092e-05
1.43889e-05
1.46868e-05
1.46792e-05
5.31379e-05
1.84955e-05
1.43377e-05
1.39913e-05
1.44306e-05
1.49491e-05
1.52743e-05
1.5279e-05
5.37154e-05
1.87782e-05
1.46125e-05
1.42898e-05
1.47589e-05
1.53044e-05
1.56493e-05
1.56642e-05
5.3758e-05
1.882e-05
1.46638e-05
1.43503e-05
1.48284e-05
1.53819e-05
1.5733e-05
1.57522e-05
5.32356e-05
1.86094e-05
1.44799e-05
1.41597e-05
1.46251e-05
1.51671e-05
1.55119e-05
1.5531e-05
5.22728e-05
1.8185e-05
1.40953e-05
1.37535e-05
1.41848e-05
1.46953e-05
1.50185e-05
1.50306e-05
5.29938e-05
1.89763e-05
1.4996e-05
1.47669e-05
1.53074e-05
1.59105e-05
1.62962e-05
1.63272e-05
5.44782e-05
1.96815e-05
1.56561e-05
1.5462e-05
1.60521e-05
1.66987e-05
1.71127e-05
1.71523e-05
5.57479e-05
2.02824e-05
1.62187e-05
1.60569e-05
1.66928e-05
1.73813e-05
1.78251e-05
1.78787e-05
5.65014e-05
2.06463e-05
1.65659e-05
1.64292e-05
1.70987e-05
1.78179e-05
1.82839e-05
1.83491e-05
5.66112e-05
2.07113e-05
1.66374e-05
1.65116e-05
1.71928e-05
1.79225e-05
1.83967e-05
1.84675e-05
5.60331e-05
2.04626e-05
1.64188e-05
1.62878e-05
1.69573e-05
1.7677e-05
1.81462e-05
1.82184e-05
5.49146e-05
1.99489e-05
1.59514e-05
1.57987e-05
1.64329e-05
1.71201e-05
1.75677e-05
1.76331e-05
5.57551e-05
2.09087e-05
1.70388e-05
1.70141e-05
1.77734e-05
1.85691e-05
1.90934e-05
1.91888e-05
5.75821e-05
2.17873e-05
1.78464e-05
1.78515e-05
1.86596e-05
1.94986e-05
2.00505e-05
2.01536e-05
5.91744e-05
2.25397e-05
1.85383e-05
1.85711e-05
1.94244e-05
2.03056e-05
2.08881e-05
2.10058e-05
6.01263e-05
2.29936e-05
1.89634e-05
1.90217e-05
1.99115e-05
2.08262e-05
2.14325e-05
2.15628e-05
6.03075e-05
2.30843e-05
1.90575e-05
1.91286e-05
2.00334e-05
2.09614e-05
2.15781e-05
2.17156e-05
5.96578e-05
2.27939e-05
1.88034e-05
1.88726e-05
1.97685e-05
2.06892e-05
2.13035e-05
2.14445e-05
5.83504e-05
2.21801e-05
1.82484e-05
1.82993e-05
1.91612e-05
2.00506e-05
2.06447e-05
2.07801e-05
5.93722e-05
2.33415e-05
1.95496e-05
1.97451e-05
2.07517e-05
2.17703e-05
2.24609e-05
2.26439e-05
6.15913e-05
2.44076e-05
2.05121e-05
2.07265e-05
2.17764e-05
2.28343e-05
2.35488e-05
2.37351e-05
6.35648e-05
2.53318e-05
2.13434e-05
2.15746e-05
2.2663e-05
2.37596e-05
2.45034e-05
2.47041e-05
6.47284e-05
2.58807e-05
2.18481e-05
2.21036e-05
2.32311e-05
2.4363e-05
2.51313e-05
2.53448e-05
6.498e-05
2.59977e-05
2.19651e-05
2.22364e-05
2.33831e-05
2.4532e-05
2.53129e-05
2.55351e-05
6.42426e-05
2.56627e-05
2.16761e-05
2.19513e-05
2.3094e-05
2.42399e-05
2.50221e-05
2.52509e-05
6.27179e-05
2.49418e-05
2.1033e-05
2.12969e-05
2.241e-05
2.35283e-05
2.42936e-05
2.4519e-05
6.39991e-05
2.63398e-05
2.25815e-05
2.30104e-05
2.42936e-05
2.55691e-05
2.64603e-05
2.67579e-05
6.6659e-05
2.76067e-05
2.37007e-05
2.41305e-05
2.54454e-05
2.67512e-05
2.76576e-05
2.7954e-05
6.90852e-05
2.8724e-05
2.46795e-05
2.51054e-05
2.6444e-05
2.77801e-05
2.87123e-05
2.90198e-05
7.04633e-05
2.93656e-05
2.5259e-05
2.57081e-05
2.7089e-05
2.8462e-05
2.94178e-05
2.97373e-05
7.07766e-05
2.95049e-05
2.53964e-05
2.58665e-05
2.7273e-05
2.86674e-05
2.96382e-05
2.99678e-05
6.99311e-05
2.91236e-05
2.50749e-05
2.55572e-05
2.6967e-05
2.83647e-05
2.9342e-05
2.96823e-05
6.81628e-05
2.82934e-05
2.43482e-05
2.48304e-05
2.62181e-05
2.75944e-05
2.85598e-05
2.89003e-05
6.98117e-05
2.99738e-05
2.61881e-05
2.68617e-05
2.84539e-05
3.00277e-05
3.11579e-05
3.16032e-05
7.29733e-05
3.14499e-05
2.746e-05
2.8108e-05
2.97131e-05
3.13011e-05
3.24371e-05
3.28753e-05
7.59609e-05
3.27828e-05
2.85929e-05
2.92031e-05
3.08048e-05
3.24101e-05
3.35651e-05
3.40115e-05
7.75599e-05
3.35036e-05
2.92349e-05
2.98703e-05
3.15211e-05
3.31637e-05
3.43391e-05
3.47932e-05
7.79187e-05
3.36557e-05
2.9386e-05
3.00518e-05
3.17386e-05
3.34084e-05
3.4601e-05
3.50667e-05
7.69287e-05
3.32275e-05
2.90357e-05
2.97255e-05
3.14257e-05
3.3107e-05
3.43129e-05
3.47947e-05
7.48703e-05
3.22922e-05
2.82355e-05
2.894e-05
3.06289e-05
3.22975e-05
3.34982e-05
3.3985e-05
7.7061e-05
3.43167e-05
3.0427e-05
3.13574e-05
3.32994e-05
3.52177e-05
3.66332e-05
3.72664e-05
8.08316e-05
3.6003e-05
3.18421e-05
3.27115e-05
3.46374e-05
3.65521e-05
3.79614e-05
3.85797e-05
8.4505e-05
3.75755e-05
3.31359e-05
3.39146e-05
3.57939e-05
3.77093e-05
3.91332e-05
3.97565e-05
8.62127e-05
3.83427e-05
3.3819e-05
3.46344e-05
3.6576e-05
3.85258e-05
3.99619e-05
4.05866e-05
8.65602e-05
3.84887e-05
3.39715e-05
3.48348e-05
3.68295e-05
3.8813e-05
4.02679e-05
4.09053e-05
8.5457e-05
3.8018e-05
3.35976e-05
3.45001e-05
3.65217e-05
3.85273e-05
4.00038e-05
4.0664e-05
8.31464e-05
3.69926e-05
3.27398e-05
3.36746e-05
3.56985e-05
3.77023e-05
3.91824e-05
3.9854e-05
8.60246e-05
3.94406e-05
3.53639e-05
3.65735e-05
3.89118e-05
4.12311e-05
4.2988e-05
4.38568e-05
9.0219e-05
4.13187e-05
3.69082e-05
3.80093e-05
4.02996e-05
4.2594e-05
4.43299e-05
4.51736e-05
9.44329e-05
4.31516e-05
3.83642e-05
3.92971e-05
4.15078e-05
4.37771e-05
4.5518e-05
4.63606e-05
9.60835e-05
4.39047e-05
3.9065e-05
4.00655e-05
4.23286e-05
4.46355e-05
4.6384e-05
4.72226e-05
9.63597e-05
4.40175e-05
3.92002e-05
4.02762e-05
4.2619e-05
4.49672e-05
4.67357e-05
4.75881e-05
9.5187e-05
4.35125e-05
3.88091e-05
3.99432e-05
4.23298e-05
4.4713e-05
4.65133e-05
4.73969e-05
9.27758e-05
4.24275e-05
3.79153e-05
3.91007e-05
4.15056e-05
4.39001e-05
4.57145e-05
4.66174e-05
9.64369e-05
4.53975e-05
4.10847e-05
4.26059e-05
4.54005e-05
4.81908e-05
5.03565e-05
5.15162e-05
0.000100908
4.74404e-05
4.27341e-05
4.40994e-05
4.6811e-05
4.95516e-05
5.1678e-05
5.27991e-05
0.000105583
4.95592e-05
4.43343e-05
4.54669e-05
4.80801e-05
5.0755e-05
5.28621e-05
5.39689e-05
0.000107071
5.02243e-05
4.50413e-05
4.62627e-05
4.89156e-05
5.16303e-05
5.37463e-05
5.48471e-05
0.000107244
5.02803e-05
4.5143e-05
4.64652e-05
4.92153e-05
5.1996e-05
5.41425e-05
5.52618e-05
0.000106032
4.97489e-05
4.47403e-05
4.61449e-05
4.8959e-05
5.17897e-05
5.39805e-05
5.51413e-05
0.000103608
4.86352e-05
4.38358e-05
4.53122e-05
4.81624e-05
5.10191e-05
5.32359e-05
5.44255e-05
0.000108297
5.2273e-05
4.77023e-05
4.95837e-05
5.2913e-05
5.62619e-05
5.8917e-05
6.04305e-05
0.000112945
5.44462e-05
4.94307e-05
5.11124e-05
5.43215e-05
5.75931e-05
6.01876e-05
6.16455e-05
0.000117931
5.6811e-05
5.11854e-05
5.25994e-05
5.56411e-05
5.87963e-05
6.13469e-05
6.27746e-05
0.000119219
5.73712e-05
5.18511e-05
5.33587e-05
5.64759e-05
5.96809e-05
6.22388e-05
6.36582e-05
0.000119293
5.73591e-05
5.19059e-05
5.35321e-05
5.67719e-05
6.00747e-05
6.26794e-05
6.41267e-05
0.00011808
5.68116e-05
5.14979e-05
5.32348e-05
5.65629e-05
5.9933e-05
6.25971e-05
6.40987e-05
0.00011572
5.56997e-05
5.061e-05
5.24418e-05
5.58248e-05
5.92359e-05
6.1939e-05
6.34798e-05
0.000121782
6.02079e-05
5.53715e-05
5.76812e-05
6.16478e-05
6.56655e-05
6.89063e-05
7.08441e-05
0.0001265
6.24568e-05
5.71513e-05
5.923e-05
6.30352e-05
6.69447e-05
7.01007e-05
7.1963e-05
0.000131556
6.50006e-05
5.90705e-05
6.0779e-05
6.43492e-05
6.81258e-05
7.1218e-05
7.30341e-05
0.000132712
6.5464e-05
5.96323e-05
6.15183e-05
6.51929e-05
6.90099e-05
7.211e-05
7.39182e-05
0.00013271
6.53828e-05
5.96345e-05
6.16734e-05
6.55093e-05
6.94421e-05
7.26032e-05
7.44508e-05
0.000131542
6.48344e-05
5.92431e-05
6.13984e-05
6.53546e-05
6.9381e-05
7.26203e-05
7.45371e-05
0.000129324
6.37586e-05
5.83936e-05
6.06731e-05
6.47057e-05
6.87882e-05
7.20799e-05
7.40467e-05
4.26994e-05
1.32172e-05
9.09725e-06
8.23059e-06
8.0665e-06
8.06461e-06
8.05361e-06
7.97988e-06
4.25369e-05
1.31124e-05
9.0363e-06
8.18654e-06
8.03006e-06
8.0329e-06
8.02762e-06
7.96417e-06
4.25828e-05
1.3104e-05
9.03422e-06
8.19385e-06
8.04864e-06
4.26012e-05
1.29818e-05
4.27823e-05
4.30485e-05
1.3526e-05
9.47583e-06
8.68413e-06
8.59096e-06
8.64714e-06
8.67222e-06
8.60316e-06
4.28859e-05
1.34261e-05
9.41286e-06
8.63558e-06
8.54971e-06
8.6114e-06
8.64316e-06
8.58455e-06
4.2892e-05
1.34136e-05
9.40357e-06
8.63247e-06
8.55529e-06
8.62769e-06
8.67066e-06
8.62125e-06
4.2896e-05
1.33151e-05
9.35665e-06
8.60965e-06
8.54258e-06
8.61947e-06
8.66968e-06
8.64184e-06
4.30251e-05
1.34049e-05
9.38853e-06
8.6185e-06
8.54197e-06
8.61474e-06
8.65871e-06
8.61193e-06
4.31757e-05
1.34494e-05
9.40998e-06
8.63057e-06
8.54673e-06
8.61161e-06
8.64631e-06
8.58923e-06
4.34255e-05
1.35549e-05
9.46922e-06
8.67507e-06
8.58681e-06
8.65083e-06
8.68414e-06
8.62116e-06
4.36005e-05
1.39711e-05
1.00103e-05
9.31891e-06
9.32268e-06
9.46032e-06
9.53934e-06
9.48441e-06
4.34346e-05
1.38716e-05
9.94269e-06
9.26472e-06
9.27705e-06
9.4227e-06
9.5112e-06
9.46881e-06
4.34049e-05
1.38523e-05
9.92697e-06
9.25517e-06
9.27686e-06
9.4346e-06
9.53625e-06
9.50498e-06
4.34072e-05
1.37759e-05
9.88632e-06
9.23005e-06
9.25586e-06
9.41207e-06
9.51254e-06
9.48915e-06
4.34934e-05
1.38412e-05
9.91016e-06
9.23836e-06
9.25962e-06
9.41649e-06
9.51739e-06
9.48633e-06
4.36239e-05
1.38768e-05
9.9283e-06
9.2492e-06
9.26391e-06
9.41303e-06
9.50465e-06
9.46365e-06
4.38449e-05
1.39716e-05
9.98565e-06
9.29547e-06
9.30733e-06
9.45619e-06
9.54675e-06
9.50055e-06
4.44097e-05
1.46002e-05
1.07507e-05
1.01899e-05
1.03226e-05
1.05711e-05
1.07273e-05
1.07002e-05
4.42319e-05
1.44956e-05
1.0675e-05
1.01283e-05
1.02726e-05
1.05335e-05
1.07038e-05
1.06932e-05
4.41684e-05
1.44672e-05
1.06527e-05
1.01143e-05
1.02707e-05
1.05472e-05
1.07348e-05
1.07394e-05
4.41702e-05
1.44081e-05
1.06184e-05
1.00902e-05
1.02478e-05
1.05204e-05
1.07032e-05
1.07087e-05
4.42189e-05
1.44532e-05
1.06343e-05
1.00953e-05
1.02507e-05
1.05256e-05
1.07112e-05
1.0714e-05
4.43317e-05
1.44835e-05
1.06505e-05
1.01047e-05
1.02528e-05
1.05183e-05
1.06927e-05
1.06838e-05
4.45273e-05
1.45712e-05
1.07084e-05
1.01543e-05
1.03001e-05
1.05649e-05
1.07373e-05
1.07225e-05
4.55599e-05
1.54739e-05
1.17579e-05
1.13628e-05
1.1663e-05
1.20583e-05
1.23205e-05
1.23399e-05
4.53579e-05
1.53577e-05
1.16703e-05
1.12921e-05
1.16087e-05
1.20225e-05
1.23056e-05
1.23472e-05
4.52617e-05
1.53185e-05
1.16412e-05
1.12747e-05
1.16079e-05
1.20427e-05
1.23486e-05
1.24108e-05
4.52608e-05
1.52721e-05
1.16125e-05
1.12537e-05
1.15875e-05
1.20184e-05
1.23189e-05
1.23791e-05
4.52785e-05
1.53019e-05
1.16222e-05
1.12557e-05
1.15882e-05
1.20213e-05
1.23247e-05
1.23839e-05
4.53789e-05
1.53306e-05
1.16389e-05
1.12652e-05
1.15886e-05
1.20098e-05
1.2299e-05
1.23431e-05
4.55587e-05
1.54164e-05
1.17012e-05
1.13208e-05
1.16415e-05
1.20605e-05
1.23456e-05
1.23821e-05
4.717e-05
1.66671e-05
1.31043e-05
1.29147e-05
1.34271e-05
1.40117e-05
1.4415e-05
1.45043e-05
4.6928e-05
1.6532e-05
1.30005e-05
1.28325e-05
1.33682e-05
1.39795e-05
1.44122e-05
1.45315e-05
4.67982e-05
1.64806e-05
1.29645e-05
1.28133e-05
1.33713e-05
1.40101e-05
1.44724e-05
1.46185e-05
4.67935e-05
1.64438e-05
1.29416e-05
1.27974e-05
1.33574e-05
1.39942e-05
1.44526e-05
1.45966e-05
4.67903e-05
1.64637e-05
1.29483e-05
1.27988e-05
1.33577e-05
1.3996e-05
1.44562e-05
1.45986e-05
4.68857e-05
1.64953e-05
1.2969e-05
1.28113e-05
1.33591e-05
1.39826e-05
1.4425e-05
1.45485e-05
4.70635e-05
1.65864e-05
1.30407e-05
1.28769e-05
1.34207e-05
1.40394e-05
1.44746e-05
1.45874e-05
4.93986e-05
1.82694e-05
1.48733e-05
1.49324e-05
1.5708e-05
1.65308e-05
1.7116e-05
1.73039e-05
4.9097e-05
1.81075e-05
1.47488e-05
1.48363e-05
1.56437e-05
1.65031e-05
1.7128e-05
1.73553e-05
4.89311e-05
1.80429e-05
1.47063e-05
1.48167e-05
1.56534e-05
1.65477e-05
1.72096e-05
1.74705e-05
4.89243e-05
1.80149e-05
1.46909e-05
1.48095e-05
1.56508e-05
1.65465e-05
1.72078e-05
1.74682e-05
4.89132e-05
1.80315e-05
1.46993e-05
1.48145e-05
1.56553e-05
1.65519e-05
1.72135e-05
1.7471e-05
4.90154e-05
1.80712e-05
1.47286e-05
1.4835e-05
1.56629e-05
1.65418e-05
1.7182e-05
1.74163e-05
4.92107e-05
1.81767e-05
1.48162e-05
1.49158e-05
1.57375e-05
1.66083e-05
1.72372e-05
1.74566e-05
5.24467e-05
2.03856e-05
1.71594e-05
1.75122e-05
1.86067e-05
1.97223e-05
2.0536e-05
2.08566e-05
5.2061e-05
2.01882e-05
1.7009e-05
1.73988e-05
1.8535e-05
1.96985e-05
2.05634e-05
2.09339e-05
5.18554e-05
2.01101e-05
1.69609e-05
1.73805e-05
1.85534e-05
1.97596e-05
2.0669e-05
2.10799e-05
5.1854e-05
2.00935e-05
1.6957e-05
1.73871e-05
1.8568e-05
1.97799e-05
2.06933e-05
2.11071e-05
5.1852e-05
2.01144e-05
1.6973e-05
1.74019e-05
1.85839e-05
1.9797e-05
2.07096e-05
2.11185e-05
5.19771e-05
2.01688e-05
1.70172e-05
1.74373e-05
1.86054e-05
1.97986e-05
2.06862e-05
2.10678e-05
5.22164e-05
2.02995e-05
1.71286e-05
1.754e-05
1.8699e-05
1.98798e-05
2.07515e-05
2.11132e-05
5.65562e-05
2.31358e-05
2.00664e-05
2.07576e-05
2.22306e-05
2.36988e-05
2.47933e-05
2.52866e-05
5.60563e-05
2.28933e-05
1.98846e-05
2.06224e-05
2.21475e-05
2.36754e-05
2.48331e-05
2.53871e-05
5.5808e-05
2.28027e-05
1.98328e-05
2.06071e-05
2.21754e-05
2.3753e-05
2.49623e-05
2.55639e-05
5.5829e-05
2.28048e-05
1.98475e-05
2.06341e-05
2.22136e-05
2.38014e-05
2.50201e-05
2.56286e-05
5.58572e-05
2.28389e-05
1.98774e-05
2.06657e-05
2.225e-05
2.38409e-05
2.50582e-05
2.56598e-05
5.60243e-05
2.2915e-05
1.99436e-05
2.07247e-05
2.22955e-05
2.38652e-05
2.50547e-05
2.56248e-05
5.63433e-05
2.30842e-05
2.00881e-05
2.08569e-05
2.24149e-05
2.39677e-05
2.5136e-05
2.5681e-05
6.20114e-05
2.66554e-05
2.37084e-05
2.47795e-05
2.66927e-05
2.85787e-05
3.00128e-05
3.07257e-05
6.13598e-05
2.63574e-05
2.34889e-05
2.46165e-05
2.65916e-05
2.85486e-05
3.00574e-05
3.08415e-05
6.10693e-05
2.62581e-05
2.34368e-05
2.46051e-05
2.66272e-05
2.86388e-05
3.02057e-05
3.1044e-05
6.11441e-05
2.62927e-05
2.34808e-05
2.46604e-05
2.66942e-05
2.87197e-05
3.03011e-05
3.11506e-05
6.12278e-05
2.63498e-05
2.35299e-05
2.47149e-05
2.67606e-05
2.87931e-05
3.03728e-05
3.12134e-05
6.1454e-05
2.64527e-05
2.36241e-05
2.48065e-05
2.68417e-05
2.88528e-05
3.04024e-05
3.12077e-05
6.18992e-05
2.66765e-05
2.38119e-05
2.49762e-05
2.6994e-05
2.89836e-05
3.05066e-05
3.12814e-05
6.91563e-05
3.10976e-05
2.82104e-05
2.96973e-05
3.21149e-05
3.44901e-05
3.63309e-05
3.73182e-05
6.83028e-05
3.07324e-05
2.79467e-05
2.94988e-05
3.19859e-05
3.44418e-05
3.63671e-05
3.74349e-05
6.79771e-05
3.06334e-05
2.79002e-05
2.9491e-05
3.20232e-05
3.4536e-05
3.65244e-05
3.76518e-05
6.81585e-05
3.07238e-05
2.79892e-05
2.95822e-05
3.21204e-05
3.46481e-05
3.66556e-05
3.77981e-05
6.83282e-05
3.08141e-05
2.80583e-05
2.96626e-05
3.22254e-05
3.47654e-05
3.67705e-05
3.79018e-05
6.8618e-05
3.0941e-05
2.81819e-05
2.97943e-05
3.2353e-05
3.48728e-05
3.68457e-05
3.79382e-05
6.92493e-05
3.12382e-05
2.84229e-05
3.0008e-05
3.25444e-05
3.5038e-05
3.69793e-05
3.80363e-05
7.84729e-05
3.66361e-05
3.37119e-05
3.56442e-05
3.86347e-05
4.15799e-05
4.39042e-05
4.52292e-05
7.73355e-05
3.61912e-05
3.33982e-05
3.54004e-05
3.84643e-05
4.14978e-05
4.39142e-05
4.53266e-05
7.69867e-05
3.61097e-05
3.33672e-05
3.53933e-05
3.8492e-05
4.15811e-05
4.40635e-05
4.55391e-05
7.73593e-05
3.62936e-05
3.3522e-05
3.55266e-05
3.8615e-05
4.17161e-05
4.42208e-05
4.57141e-05
7.76568e-05
3.64281e-05
3.36042e-05
3.563e-05
3.87634e-05
4.18821e-05
4.43819e-05
4.58612e-05
7.79944e-05
3.6559e-05
3.37497e-05
3.58059e-05
3.8946e-05
4.2046e-05
4.45114e-05
4.5949e-05
7.88887e-05
3.69497e-05
3.40502e-05
3.60659e-05
3.91792e-05
4.22496e-05
4.46791e-05
4.6077e-05
9.0488e-05
4.34593e-05
4.03709e-05
4.27762e-05
4.64165e-05
5.00261e-05
5.29231e-05
5.4657e-05
8.90282e-05
4.29222e-05
4.00016e-05
4.24793e-05
4.61913e-05
4.9893e-05
5.28853e-05
5.47102e-05
8.86955e-05
4.2889e-05
3.99979e-05
4.24707e-05
4.61979e-05
4.99465e-05
5.30035e-05
5.48914e-05
8.93603e-05
4.32233e-05
4.02301e-05
4.26517e-05
4.63516e-05
5.00946e-05
5.31694e-05
5.50745e-05
8.98263e-05
4.34133e-05
4.03288e-05
4.27584e-05
4.65191e-05
5.02968e-05
5.33686e-05
5.52575e-05
9.01422e-05
4.3501e-05
4.04749e-05
4.29759e-05
4.67585e-05
5.05189e-05
5.35539e-05
5.53991e-05
9.13078e-05
4.39948e-05
4.08413e-05
4.32799e-05
4.70322e-05
5.07612e-05
5.37572e-05
5.55594e-05
0.000105077
5.17349e-05
4.83689e-05
5.12841e-05
5.56697e-05
6.0056e-05
6.36284e-05
6.58498e-05
0.000103276
5.10929e-05
4.79229e-05
5.09409e-05
5.53894e-05
5.98563e-05
6.35194e-05
6.583e-05
0.000102999
5.11451e-05
4.79525e-05
5.09318e-05
5.53684e-05
5.98621e-05
6.35793e-05
6.59466e-05
0.000104061
5.17076e-05
4.82975e-05
5.11369e-05
5.55311e-05
6.00025e-05
6.37279e-05
6.6107e-05
0.00010473
5.19433e-05
4.84283e-05
5.12476e-05
5.56931e-05
6.02162e-05
6.39441e-05
6.63069e-05
0.000104924
5.1933e-05
4.85327e-05
5.14802e-05
5.5974e-05
6.04861e-05
6.41767e-05
6.64952e-05
0.000106286
5.25025e-05
4.89612e-05
5.18349e-05
5.62873e-05
6.07637e-05
6.44121e-05
6.66855e-05
4.44518e-05
4.50168e-05
1.39182e-05
4.56532e-05
1.4179e-05
9.73425e-06
8.83263e-06
8.70259e-06
4.63329e-05
1.44183e-05
9.93732e-06
9.04818e-06
8.93674e-06
8.99453e-06
9.01967e-06
8.94115e-06
4.70608e-05
1.47196e-05
1.0179e-05
9.29637e-06
9.20444e-06
9.28039e-06
9.31606e-06
9.23586e-06
4.37551e-05
1.37173e-05
9.55483e-06
8.74445e-06
8.65385e-06
8.71823e-06
8.75071e-06
8.68376e-06
4.41764e-05
1.39037e-05
9.67691e-06
8.852e-06
8.76333e-06
8.8334e-06
8.86977e-06
8.80209e-06
4.46917e-05
1.41032e-05
9.82975e-06
9.00362e-06
8.92469e-06
9.0054e-06
9.04832e-06
8.98004e-06
4.5296e-05
1.43076e-05
1.0009e-05
9.19707e-06
9.13744e-06
9.23385e-06
9.28553e-06
9.21741e-06
4.59973e-05
1.46058e-05
1.02542e-05
9.44993e-06
9.41056e-06
9.52681e-06
9.58992e-06
9.52123e-06
4.67702e-05
1.49051e-05
1.05212e-05
9.73603e-06
9.7226e-06
9.85972e-06
9.93472e-06
9.86507e-06
4.76058e-05
1.52548e-05
1.08264e-05
1.00588e-05
1.0073e-05
1.0234e-05
1.03228e-05
1.02526e-05
4.41625e-05
1.41342e-05
1.00775e-05
9.37667e-06
9.38878e-06
9.53929e-06
9.62949e-06
9.57923e-06
4.45923e-05
1.43376e-05
1.02213e-05
9.5103e-06
9.52839e-06
9.68706e-06
9.78243e-06
9.7316e-06
4.51397e-05
1.45727e-05
1.04128e-05
9.70457e-06
9.73638e-06
9.90874e-06
1.00124e-05
9.96145e-06
4.58103e-05
1.48376e-05
1.06513e-05
9.95964e-06
1.00141e-05
1.02052e-05
1.03195e-05
1.02686e-05
4.66043e-05
1.51907e-05
1.09607e-05
1.02844e-05
1.0365e-05
1.05796e-05
1.07081e-05
1.06578e-05
4.74978e-05
1.55643e-05
1.13061e-05
1.06555e-05
1.07679e-05
1.10083e-05
1.11509e-05
1.11001e-05
4.84668e-05
1.59843e-05
1.16941e-05
1.10704e-05
1.12169e-05
1.14859e-05
1.16451e-05
1.15946e-05
4.48377e-05
1.47291e-05
1.08102e-05
1.02505e-05
1.03985e-05
1.06655e-05
1.08373e-05
1.08178e-05
4.52812e-05
1.49536e-05
1.09777e-05
1.04148e-05
1.05725e-05
1.08496e-05
1.10273e-05
1.10071e-05
4.58753e-05
1.52305e-05
1.12144e-05
1.06584e-05
1.08336e-05
1.11268e-05
1.13142e-05
1.1294e-05
4.66326e-05
1.55644e-05
1.1521e-05
1.09842e-05
1.1185e-05
1.14997e-05
1.16991e-05
1.16791e-05
4.75467e-05
1.59902e-05
1.19096e-05
1.1394e-05
1.16256e-05
1.19669e-05
1.21825e-05
1.21638e-05
4.85886e-05
1.64539e-05
1.23487e-05
1.18638e-05
1.21314e-05
1.25021e-05
1.27336e-05
1.27149e-05
4.97298e-05
1.69698e-05
1.28411e-05
1.23878e-05
1.2694e-05
1.30968e-05
1.33467e-05
1.3328e-05
4.5869e-05
1.55678e-05
1.18178e-05
1.14359e-05
1.17597e-05
1.21805e-05
1.24639e-05
1.2494e-05
4.63365e-05
1.58157e-05
1.2014e-05
1.16356e-05
1.19715e-05
1.24033e-05
1.26925e-05
1.27213e-05
4.69927e-05
1.61429e-05
1.23018e-05
1.19346e-05
1.22905e-05
1.27397e-05
1.30387e-05
1.3067e-05
4.78594e-05
1.65552e-05
1.26852e-05
1.23383e-05
1.27218e-05
1.31939e-05
1.35056e-05
1.35337e-05
4.8925e-05
1.70708e-05
1.31663e-05
1.2843e-05
1.32595e-05
1.37601e-05
1.40888e-05
1.41185e-05
5.0145e-05
1.76426e-05
1.37162e-05
1.3423e-05
1.38778e-05
1.44091e-05
1.47545e-05
1.47845e-05
5.1507e-05
1.82846e-05
1.43324e-05
1.40695e-05
1.45647e-05
1.51297e-05
1.54934e-05
1.5522e-05
4.73847e-05
1.6742e-05
1.31778e-05
1.30147e-05
1.35614e-05
1.41804e-05
1.46117e-05
1.47156e-05
4.78874e-05
1.70094e-05
1.34104e-05
1.32538e-05
1.38129e-05
1.44422e-05
1.48778e-05
1.49786e-05
4.86225e-05
1.73919e-05
1.37557e-05
1.36119e-05
1.41914e-05
1.48373e-05
1.52812e-05
1.53799e-05
4.96233e-05
1.78922e-05
1.42221e-05
1.40971e-05
1.47039e-05
1.53723e-05
1.58279e-05
1.59252e-05
5.08676e-05
1.8514e-05
1.48048e-05
1.47013e-05
1.53408e-05
1.60375e-05
1.65096e-05
1.66078e-05
5.2306e-05
1.92204e-05
1.54753e-05
1.53982e-05
1.60745e-05
1.68007e-05
1.7289e-05
1.73872e-05
5.39408e-05
2.00272e-05
1.62266e-05
1.61747e-05
1.68902e-05
1.76486e-05
1.81523e-05
1.8248e-05
4.95614e-05
1.83574e-05
1.49804e-05
1.50803e-05
1.5903e-05
1.67712e-05
1.73927e-05
1.75999e-05
5.01141e-05
1.86535e-05
1.52541e-05
1.53606e-05
1.61938e-05
1.70693e-05
1.76918e-05
1.78926e-05
5.09423e-05
1.90922e-05
1.56603e-05
1.57776e-05
1.66283e-05
1.75172e-05
1.81443e-05
1.83397e-05
5.20996e-05
1.96884e-05
1.6211e-05
1.63423e-05
1.7217e-05
1.81251e-05
1.87607e-05
1.89524e-05
5.35469e-05
2.04334e-05
1.68976e-05
1.70439e-05
1.79479e-05
1.88811e-05
1.95304e-05
1.97216e-05
5.52457e-05
2.12976e-05
1.76929e-05
1.78564e-05
1.87911e-05
1.97508e-05
2.04139e-05
2.0604e-05
5.71919e-05
2.22754e-05
1.85841e-05
1.8763e-05
1.97314e-05
2.07173e-05
2.13927e-05
2.15784e-05
5.26172e-05
2.05159e-05
1.73256e-05
1.77346e-05
1.88911e-05
2.0065e-05
2.09243e-05
2.12691e-05
5.32423e-05
2.08612e-05
1.76439e-05
1.80552e-05
1.92173e-05
2.03929e-05
2.12476e-05
2.15811e-05
5.41793e-05
2.13679e-05
1.81096e-05
1.85255e-05
1.96987e-05
2.0881e-05
2.1734e-05
2.20572e-05
5.5502e-05
2.20592e-05
1.87394e-05
1.91605e-05
2.03505e-05
2.15454e-05
2.24012e-05
2.27168e-05
5.71684e-05
2.29261e-05
1.9524e-05
1.99495e-05
2.1161e-05
2.23746e-05
2.32393e-05
2.35519e-05
5.91403e-05
2.39368e-05
2.04378e-05
2.08657e-05
2.20996e-05
2.33334e-05
2.42076e-05
2.45176e-05
6.14193e-05
2.50828e-05
2.14646e-05
2.18934e-05
2.31491e-05
2.44022e-05
2.52839e-05
2.55873e-05
5.68168e-05
2.33443e-05
2.03226e-05
2.10845e-05
2.26346e-05
2.41744e-05
2.5324e-05
2.58462e-05
5.75325e-05
2.37442e-05
2.06852e-05
2.14415e-05
2.29889e-05
2.45219e-05
2.56588e-05
2.6163e-05
5.85826e-05
2.43175e-05
2.12031e-05
2.19536e-05
2.35019e-05
2.50315e-05
2.61576e-05
2.66444e-05
6.00616e-05
2.5095e-05
2.18989e-05
2.26415e-05
2.41955e-05
2.57277e-05
2.68485e-05
2.73225e-05
6.19441e-05
2.60714e-05
2.27662e-05
2.34984e-05
2.5062e-05
2.66034e-05
2.77262e-05
2.81941e-05
6.41847e-05
2.7218e-05
2.37808e-05
2.44982e-05
2.60725e-05
2.76252e-05
2.87519e-05
2.92154e-05
6.68048e-05
2.85262e-05
2.49298e-05
2.56262e-05
2.72092e-05
2.87717e-05
2.98999e-05
3.03548e-05
6.24702e-05
2.69868e-05
2.40876e-05
2.52387e-05
2.72416e-05
2.92104e-05
3.0707e-05
3.1452e-05
6.32941e-05
2.74427e-05
2.44912e-05
2.56251e-05
2.76134e-05
2.9564e-05
3.10376e-05
3.17559e-05
6.44486e-05
2.8072e-05
2.50473e-05
2.61617e-05
2.81374e-05
3.00713e-05
3.15223e-05
3.22142e-05
6.60565e-05
2.89167e-05
2.57872e-05
2.68776e-05
2.88446e-05
3.07684e-05
3.22039e-05
3.28764e-05
6.81292e-05
2.99804e-05
2.67126e-05
2.77742e-05
2.9736e-05
3.16571e-05
3.30866e-05
3.37498e-05
7.06169e-05
3.12376e-05
2.78011e-05
2.88293e-05
3.07876e-05
3.27094e-05
3.41367e-05
3.4794e-05
7.35796e-05
3.26898e-05
2.90461e-05
3.00308e-05
3.19827e-05
3.39034e-05
3.53258e-05
3.59729e-05
6.99459e-05
3.16031e-05
2.87418e-05
3.03064e-05
3.28193e-05
3.52827e-05
3.71886e-05
3.82079e-05
7.09033e-05
3.21147e-05
2.9181e-05
3.07128e-05
3.31958e-05
3.56272e-05
3.74976e-05
3.84798e-05
7.21459e-05
3.27808e-05
2.97553e-05
3.12529e-05
3.37071e-05
3.61059e-05
3.79397e-05
3.88844e-05
7.38438e-05
3.36622e-05
3.05091e-05
3.19655e-05
3.43956e-05
3.67701e-05
3.85767e-05
3.94943e-05
7.60656e-05
3.47788e-05
3.14585e-05
3.28675e-05
3.52762e-05
3.76352e-05
3.94276e-05
4.03327e-05
7.87893e-05
3.61044e-05
3.25852e-05
3.39432e-05
3.63345e-05
3.86836e-05
4.04679e-05
4.13664e-05
8.21085e-05
3.76632e-05
3.38918e-05
3.51857e-05
3.75554e-05
3.98922e-05
4.16656e-05
4.25531e-05
7.9751e-05
3.73688e-05
3.44128e-05
3.64006e-05
3.94801e-05
4.25093e-05
4.48932e-05
4.62445e-05
8.08918e-05
3.79343e-05
3.48812e-05
3.68163e-05
3.98472e-05
4.28287e-05
4.51631e-05
4.64653e-05
8.22108e-05
3.86083e-05
3.54488e-05
3.73367e-05
4.03214e-05
4.32525e-05
4.55346e-05
4.67858e-05
8.39537e-05
3.9483e-05
3.61791e-05
3.80114e-05
4.09585e-05
4.38509e-05
4.60933e-05
4.73085e-05
8.62518e-05
4.06001e-05
3.71108e-05
3.8882e-05
4.17923e-05
4.4657e-05
4.68777e-05
4.80779e-05
8.8984e-05
4.19303e-05
3.82306e-05
3.99409e-05
4.28233e-05
4.56691e-05
4.78768e-05
4.90708e-05
9.23715e-05
4.35281e-05
3.95566e-05
4.11895e-05
4.40376e-05
4.68608e-05
4.90527e-05
5.02362e-05
9.23162e-05
4.44587e-05
4.12403e-05
4.36498e-05
4.73563e-05
5.10311e-05
5.39702e-05
5.57166e-05
9.3613e-05
4.50748e-05
4.17289e-05
4.40621e-05
4.76988e-05
5.131e-05
5.41848e-05
5.58681e-05
9.48765e-05
4.57127e-05
4.22596e-05
4.45385e-05
4.81134e-05
5.16552e-05
5.44601e-05
5.60769e-05
9.64409e-05
4.65193e-05
4.29244e-05
4.51419e-05
4.86685e-05
5.21584e-05
5.49107e-05
5.64819e-05
9.85541e-05
4.75609e-05
4.37921e-05
4.59432e-05
4.94218e-05
5.28744e-05
5.55997e-05
5.71544e-05
0.000101002
4.88058e-05
4.48542e-05
4.69497e-05
5.03966e-05
5.38235e-05
5.65327e-05
5.80831e-05
0.000104236
5.03693e-05
4.61522e-05
4.8171e-05
5.15754e-05
5.49712e-05
5.76616e-05
5.9204e-05
0.000107418
5.29921e-05
4.93908e-05
5.22269e-05
5.66251e-05
6.10353e-05
6.46155e-05
6.68238e-05
0.000108846
5.36642e-05
4.98793e-05
5.26206e-05
5.69302e-05
6.126e-05
6.47598e-05
6.6889e-05
0.00010997
5.42269e-05
5.03355e-05
5.30233e-05
5.72616e-05
6.15058e-05
6.49165e-05
6.69614e-05
0.000111199
5.48927e-05
5.09073e-05
5.353e-05
5.7709e-05
6.1888e-05
6.52349e-05
6.72246e-05
0.000112981
5.57963e-05
5.16518e-05
5.42153e-05
5.83487e-05
6.24891e-05
6.58073e-05
6.77812e-05
0.00011493
5.68564e-05
5.26085e-05
5.51473e-05
5.92473e-05
6.33566e-05
6.66578e-05
6.86317e-05
0.000117862
5.83174e-05
5.38293e-05
5.63029e-05
6.03642e-05
6.44387e-05
6.7722e-05
6.96934e-05
4.69819e-05
1.4734e-05
1.03916e-05
9.59526e-06
9.55133e-06
9.65641e-06
9.70826e-06
9.63315e-06
4.60597e-05
1.4366e-05
1.00946e-05
9.28889e-06
9.21502e-06
9.28826e-06
9.31747e-06
9.23831e-06
4.51708e-05
1.40403e-05
9.81901e-06
9.00114e-06
8.90365e-06
8.95599e-06
8.97426e-06
8.89868e-06
4.43735e-05
1.36832e-05
9.54143e-06
8.72477e-06
8.60783e-06
8.63889e-06
8.64717e-06
8.58693e-06
4.37273e-05
1.35469e-05
9.37755e-06
8.52244e-06
8.37477e-06
8.38299e-06
8.3727e-06
8.28988e-06
4.32041e-05
1.33664e-05
9.22633e-06
8.36405e-06
8.2035e-06
8.20031e-06
8.18349e-06
8.10207e-06
4.2893e-05
1.32903e-05
9.1509e-06
8.2794e-06
8.1124e-06
8.10676e-06
8.09056e-06
8.01038e-06
4.78966e-05
1.54233e-05
1.117e-05
1.04886e-05
1.05583e-05
1.07577e-05
1.08698e-05
1.08083e-05
4.68788e-05
1.49897e-05
1.07943e-05
1.00904e-05
1.01178e-05
1.02746e-05
1.03556e-05
1.02837e-05
4.58745e-05
1.45927e-05
1.04373e-05
9.7086e-06
9.6995e-06
9.82371e-06
9.88415e-06
9.80904e-06
4.49808e-05
1.4182e-05
1.00891e-05
9.34616e-06
9.30305e-06
9.39232e-06
9.42972e-06
9.35606e-06
4.42359e-05
1.39618e-05
9.85655e-06
9.07868e-06
9.00511e-06
9.07258e-06
9.09597e-06
9.01131e-06
4.36436e-05
1.3735e-05
9.65968e-06
8.87187e-06
8.78179e-06
8.83464e-06
8.84967e-06
8.76639e-06
4.32794e-05
1.36165e-05
9.54732e-06
8.75124e-06
8.65472e-06
8.70571e-06
8.72334e-06
8.64518e-06
4.92075e-05
1.63644e-05
1.22118e-05
1.16704e-05
1.18811e-05
1.21993e-05
1.23901e-05
1.23522e-05
4.80463e-05
1.58397e-05
1.17361e-05
1.11606e-05
1.13175e-05
1.15828e-05
1.17342e-05
1.168e-05
4.68837e-05
1.53446e-05
1.12757e-05
1.06643e-05
1.07725e-05
1.09941e-05
1.11162e-05
1.10528e-05
4.58528e-05
1.48555e-05
1.08367e-05
1.01974e-05
1.02584e-05
1.04333e-05
1.0522e-05
1.04503e-05
4.49826e-05
1.45369e-05
1.05176e-05
9.84346e-06
9.87039e-06
1.00201e-05
1.00942e-05
1.00165e-05
4.43008e-05
1.42526e-05
1.02614e-05
9.57282e-06
9.57822e-06
9.7091e-06
9.77219e-06
9.69499e-06
4.38727e-05
1.40849e-05
1.01047e-05
9.40841e-06
9.40733e-06