/*--------------------------------*- C++ -*----------------------------------*\
| =========                 |                                                 |
| \\      /  F ield         | OpenFOAM: The Open Source CFD Toolbox           |
|  \\    /   O peration     | Version:  plus.master.MPPICInterFoam            |
|   \\  /    A nd           | Web:      www.OpenFOAM.com                      |
|    \\/     M anipulation  |                                                 |
\*---------------------------------------------------------------------------*/
FoamFile
{
    version     2.0;
    format      ascii;
    class       volScalarField;
    location    "9.8";
    object      k;
}
// * * * * * * * * * * * * * * * * * * * * * * * * * * * * * * * * * * * * * //

dimensions      [0 2 -2 0 0 0 0];

internalField   nonuniform List<scalar> 
11821
(
4.64978e-05
4.45849e-05
5.14748e-05
5.67211e-05
6.00761e-05
6.1646e-05
6.14957e-05
5.96595e-05
4.69168e-05
4.53229e-05
5.23396e-05
5.76523e-05
6.10416e-05
6.26228e-05
6.24554e-05
6.05671e-05
4.72263e-05
4.59814e-05
5.31002e-05
5.84526e-05
6.18631e-05
6.34502e-05
6.32677e-05
6.13377e-05
4.7363e-05
4.64287e-05
5.36032e-05
5.89637e-05
6.2378e-05
6.39624e-05
6.37674e-05
6.18109e-05
4.72885e-05
4.66044e-05
5.37662e-05
5.90938e-05
6.24809e-05
6.40429e-05
6.383e-05
6.18598e-05
4.70005e-05
4.64898e-05
5.35701e-05
5.88227e-05
6.21513e-05
6.3673e-05
6.34405e-05
6.14734e-05
4.65452e-05
4.61697e-05
5.31014e-05
5.82329e-05
6.1466e-05
6.29207e-05
6.26561e-05
6.06992e-05
4.69313e-05
4.66122e-05
5.41748e-05
5.98272e-05
6.34445e-05
6.51566e-05
6.50152e-05
6.30341e-05
4.74356e-05
4.75915e-05
5.5334e-05
6.10776e-05
6.47566e-05
6.64998e-05
6.63517e-05
6.43173e-05
4.78262e-05
4.84532e-05
5.63316e-05
6.21424e-05
6.58704e-05
6.76402e-05
6.74897e-05
6.5416e-05
4.8022e-05
4.90208e-05
5.69689e-05
6.28133e-05
6.65646e-05
6.83469e-05
6.81939e-05
6.60969e-05
4.79761e-05
4.92041e-05
5.71405e-05
6.29631e-05
6.66953e-05
6.84619e-05
6.82963e-05
6.61892e-05
4.76826e-05
4.89802e-05
5.68219e-05
6.25646e-05
6.62344e-05
6.79586e-05
6.77738e-05
6.56733e-05
4.71954e-05
4.84485e-05
5.61148e-05
6.17178e-05
6.52773e-05
6.69239e-05
6.67021e-05
6.46146e-05
4.75937e-05
4.93109e-05
5.77507e-05
6.39372e-05
6.7928e-05
6.98635e-05
6.97786e-05
6.76596e-05
4.82088e-05
5.05797e-05
5.92452e-05
6.55669e-05
6.96541e-05
7.16451e-05
7.15667e-05
6.93941e-05
4.87045e-05
5.16775e-05
6.05191e-05
6.69521e-05
7.11207e-05
7.31624e-05
7.30963e-05
7.08875e-05
4.89758e-05
5.23779e-05
6.13261e-05
6.78217e-05
7.20365e-05
7.41082e-05
7.40508e-05
7.18222e-05
4.89647e-05
5.25733e-05
6.15252e-05
6.80102e-05
7.22151e-05
7.42789e-05
7.42147e-05
7.19791e-05
4.86587e-05
5.22389e-05
6.10833e-05
6.74812e-05
7.1619e-05
7.36379e-05
7.35547e-05
7.13289e-05
4.81217e-05
5.14875e-05
6.01188e-05
6.63532e-05
7.03627e-05
7.22918e-05
7.21659e-05
6.99554e-05
4.85388e-05
5.28215e-05
6.23474e-05
6.92369e-05
7.3732e-05
7.59866e-05
7.6016e-05
7.37715e-05
4.92942e-05
5.44076e-05
6.42238e-05
7.13016e-05
7.59304e-05
7.8266e-05
7.83144e-05
7.60148e-05
4.99238e-05
5.57612e-05
6.58233e-05
7.30574e-05
7.78015e-05
8.02124e-05
8.02875e-05
7.7954e-05
5.02858e-05
5.66166e-05
6.68317e-05
7.41596e-05
7.89744e-05
8.14336e-05
8.15283e-05
7.91772e-05
5.03127e-05
5.68413e-05
6.70748e-05
7.44044e-05
7.922e-05
8.16799e-05
8.17739e-05
7.94186e-05
4.99858e-05
5.64002e-05
6.65101e-05
7.3745e-05
7.84893e-05
8.0903e-05
8.09793e-05
7.86378e-05
4.93804e-05
5.54198e-05
6.52728e-05
7.2318e-05
7.69157e-05
7.92281e-05
7.92574e-05
7.69345e-05
4.98337e-05
5.72527e-05
6.8118e-05
7.59e-05
8.10425e-05
8.37207e-05
8.39271e-05
8.15721e-05
5.07618e-05
5.91744e-05
7.04177e-05
7.84393e-05
8.37507e-05
8.6532e-05
8.67665e-05
8.43518e-05
5.15491e-05
6.08209e-05
7.23794e-05
8.06011e-05
8.60592e-05
8.89374e-05
8.92099e-05
8.67609e-05
5.20135e-05
6.18556e-05
7.36112e-05
8.19587e-05
8.75121e-05
9.04558e-05
9.07567e-05
8.82906e-05
5.20811e-05
6.21228e-05
7.39114e-05
8.22741e-05
8.78402e-05
9.0794e-05
9.11003e-05
8.86323e-05
5.17255e-05
6.15784e-05
7.32279e-05
8.14897e-05
8.69826e-05
8.98913e-05
9.01833e-05
8.77343e-05
5.1034e-05
6.03626e-05
7.17111e-05
7.97582e-05
8.50888e-05
8.78881e-05
8.81322e-05
8.57074e-05
5.15537e-05
6.27001e-05
7.51969e-05
8.40691e-05
9.00078e-05
9.32169e-05
9.36641e-05
9.12145e-05
5.26756e-05
6.49864e-05
7.79389e-05
8.7096e-05
9.32322e-05
9.65595e-05
9.70377e-05
9.45196e-05
5.3644e-05
6.69556e-05
8.02836e-05
8.96778e-05
9.59843e-05
9.94231e-05
9.99456e-05
9.73901e-05
5.42185e-05
6.81786e-05
8.17463e-05
9.12973e-05
9.77226e-05
0.000101242
0.000101798
9.92239e-05
5.43276e-05
6.8494e-05
8.21105e-05
9.16922e-05
9.81436e-05
0.000101683
0.000102251
9.96762e-05
5.39363e-05
6.78514e-05
8.13167e-05
9.07949e-05
9.7175e-05
0.000100674
0.000101233
9.86842e-05
5.31446e-05
6.64028e-05
7.9528e-05
8.8771e-05
9.49783e-05
9.83646e-05
9.88796e-05
9.63625e-05
5.37635e-05
6.92611e-05
8.36808e-05
9.38436e-05
0.000100728
0.000104574
0.000105327
0.000102806
5.50965e-05
7.19193e-05
8.68574e-05
9.7339e-05
0.000104438
0.000108408
0.000109186
0.000106578
5.62689e-05
7.42245e-05
8.95864e-05
0.000100329
0.000107609
0.000111695
0.000112518
0.000109867
5.6954e-05
7.56264e-05
9.1268e-05
0.000102197
0.000109618
0.000113797
0.000114657
0.000111983
5.71015e-05
7.5987e-05
9.16953e-05
0.000102674
0.000110137
0.000114347
0.000115224
0.000112551
5.66683e-05
7.52547e-05
9.08056e-05
0.000101683
0.000109082
0.000113259
0.000114136
0.000111497
5.57674e-05
7.35892e-05
8.87694e-05
9.93986e-05
0.000106621
0.000110689
0.000111528
0.000108931
5.65248e-05
7.69978e-05
9.36262e-05
0.000105278
0.000113256
0.000117848
0.00011898
0.000116413
5.80815e-05
8.00089e-05
9.72005e-05
0.000109189
0.000117385
0.000122093
0.000123231
0.000120561
5.94841e-05
8.26511e-05
0.000100296
0.000112549
0.000120915
0.000125733
0.000126911
0.000124185
6.02725e-05
8.42014e-05
0.000102164
0.000114635
0.000123166
0.000128086
0.0001293
0.000126544
6.04508e-05
8.45933e-05
0.000102643
0.000115187
0.000123782
0.000128746
0.000129981
0.000127228
5.99681e-05
8.37835e-05
0.000101678
0.00011413
0.000122672
0.000127616
0.000128863
0.000126152
5.89524e-05
8.19316e-05
9.9436e-05
0.000111636
0.000120005
0.000124848
0.000126068
0.000123409
5.98999e-05
8.59366e-05
0.000105054
0.000118393
0.000127615
0.000133071
0.000134656
0.000132075
6.16959e-05
8.92595e-05
0.000108963
0.000122638
0.000132062
0.000137608
0.000139181
0.000136482
6.33705e-05
9.22322e-05
0.000112392
0.000126302
0.000135859
0.0001415
0.000143101
0.000140337
6.42562e-05
9.38782e-05
0.000114394
0.00012856
0.000138313
0.00014406
0.000145689
0.000142882
6.44536e-05
9.42756e-05
0.000114905
0.000129178
0.000139024
0.000144829
0.000146483
0.000143679
6.39062e-05
9.34037e-05
0.000113886
0.000128085
0.000137898
0.000143699
0.000145378
0.000142626
6.27606e-05
9.14098e-05
0.000111498
0.000125449
0.000135099
0.000140813
0.000142478
0.000139788
6.39801e-05
9.60812e-05
0.000117965
0.000133193
0.000143825
0.000150265
0.000152387
0.000149836
6.60507e-05
9.9658e-05
0.000122128
0.000137667
0.00014846
0.000154963
0.000157052
0.000154368
6.80381e-05
0.00010295
0.000125845
0.000141547
0.000152395
0.000158976
0.00016109
0.000158337
6.89497e-05
0.000104616
0.000127914
0.000143927
0.000155017
0.000161693
0.000163812
0.000160999
6.91337e-05
0.000104982
0.000128426
0.000144597
0.000155822
0.000162569
0.000164715
0.000161903
6.85452e-05
0.000104067
0.000127382
0.000143504
0.000154722
0.000161486
0.000163672
0.000160924
6.73049e-05
0.000101989
0.000124916
0.000140804
0.000151878
0.000158572
0.000160759
0.000158082
6.88496e-05
0.000107427
0.000132364
0.000149706
0.000161916
0.000169473
0.000172226
0.000169759
7.10686e-05
0.000111183
0.00013669
0.000154283
0.00016661
0.000174195
0.000176892
0.000174277
7.32651e-05
0.000114772
0.000140621
0.000158254
0.000170607
0.000178228
0.000180933
0.000178239
7.41136e-05
0.000116363
0.000142705
0.00016073
0.000173285
0.000181014
0.000183715
0.000180947
7.42541e-05
0.000116656
0.00014318
0.000161432
0.000174184
0.000181991
0.000184718
0.00018195
7.36508e-05
0.00011572
0.000142136
0.000160376
0.000173154
0.000181002
0.000183787
0.000181096
7.24032e-05
0.000113626
0.000139671
0.0001577
0.000170357
0.000178156
0.000180958
0.000178349
7.42963e-05
0.000119969
0.000148294
0.000167984
0.000181958
0.00019078
0.000194273
0.000191949
7.65734e-05
0.000123824
0.000152675
0.000172555
0.000186593
0.000195401
0.000198806
0.000196315
7.892e-05
0.000127676
0.000156699
0.00017658
0.00019066
0.000199401
0.000202756
0.000200157
7.96567e-05
0.000129096
0.000158787
0.000179062
0.000193293
0.000202161
0.00020552
0.000202846
7.9741e-05
0.000129293
0.000159193
0.000179735
0.000194187
0.000203196
0.000206605
0.000203939
7.91396e-05
0.000128358
0.000158175
0.000178753
0.000193268
0.000202346
0.000205836
0.000203262
7.79307e-05
0.000126313
0.000155788
0.000176188
0.000190612
0.000199664
0.000203188
0.000200706
8.02659e-05
0.000133762
0.000165844
0.000188137
0.000204085
0.000214339
0.000218688
0.000216564
8.25443e-05
0.000137625
0.00017018
0.000192608
0.000208556
0.000218747
0.000222971
0.000220657
8.49539e-05
0.000141607
0.000174324
0.000196795
0.00021262
0.000222621
0.000226736
0.000224281
8.55685e-05
0.000142851
0.000176265
0.00019907
0.000215159
0.00022531
0.00022943
0.000226897
8.56032e-05
0.000142956
0.00017657
0.000199642
0.000216001
0.000226374
0.000230581
0.000228075
8.50224e-05
0.000142045
0.000175596
0.000198764
0.000215229
0.000225705
0.000230018
0.000227622
8.38881e-05
0.000140107
0.000173364
0.0001964
0.000212806
0.000223279
0.000227644
0.00022535
8.67951e-05
0.000148927
0.000185172
0.000210346
0.000228508
0.000240384
0.000245714
0.000243842
8.90194e-05
0.000152685
0.000189386
0.000214655
0.000232736
0.000244488
0.000249652
0.000247562
9.13722e-05
0.000156671
0.000193684
0.000218798
0.000236599
0.000248137
0.00025315
0.000250888
9.19048e-05
0.000157755
0.000195291
0.000220921
0.000239056
0.000250717
0.000255732
0.000253395
9.1903e-05
0.000157777
0.000195486
0.000221434
0.000239916
0.000251827
0.000256955
0.000254663
9.13638e-05
0.00015692
0.000194609
0.000220648
0.000239305
0.000251371
0.000256639
0.000254478
9.03365e-05
0.000155145
0.000192579
0.000218556
0.000237193
0.00024928
0.000254618
0.000252568
4.31375e-05
4.22453e-05
4.82683e-05
5.27622e-05
5.55879e-05
5.68651e-05
5.6668e-05
5.50435e-05
4.30278e-05
4.23444e-05
4.83065e-05
5.27329e-05
5.54982e-05
5.67243e-05
5.64917e-05
5.48574e-05
4.30586e-05
4.23194e-05
4.83263e-05
5.27925e-05
5.56012e-05
4.30708e-05
4.26812e-05
4.31927e-05
4.33734e-05
4.3125e-05
4.95091e-05
5.42346e-05
5.72082e-05
5.85538e-05
5.83405e-05
5.66069e-05
4.3264e-05
4.31492e-05
4.94749e-05
5.41435e-05
5.70694e-05
5.83777e-05
5.81418e-05
5.6408e-05
4.3268e-05
4.3091e-05
4.94399e-05
5.41331e-05
5.70904e-05
5.84367e-05
5.82396e-05
5.65364e-05
4.32705e-05
4.33026e-05
4.96093e-05
5.42499e-05
5.71484e-05
5.84342e-05
5.81943e-05
5.64992e-05
4.33573e-05
4.30457e-05
4.93917e-05
5.41019e-05
5.7079e-05
5.84451e-05
5.82688e-05
5.65883e-05
4.34584e-05
4.29503e-05
4.93239e-05
5.40745e-05
5.70809e-05
5.84607e-05
5.82821e-05
5.65876e-05
4.36258e-05
4.27787e-05
4.92329e-05
5.40781e-05
5.71692e-05
5.86194e-05
5.84911e-05
5.68169e-05
4.37448e-05
4.44341e-05
5.13292e-05
5.639e-05
5.95918e-05
6.10643e-05
6.08672e-05
5.90229e-05
4.36337e-05
4.43913e-05
5.12291e-05
5.62432e-05
5.94115e-05
6.08631e-05
6.06597e-05
5.88282e-05
4.36136e-05
4.43102e-05
5.11595e-05
5.6194e-05
5.93933e-05
6.08854e-05
6.07256e-05
5.89297e-05
4.36152e-05
4.4428e-05
5.12391e-05
5.62284e-05
5.93744e-05
6.08073e-05
6.05976e-05
5.87888e-05
4.36728e-05
4.42275e-05
5.10819e-05
5.61387e-05
5.93609e-05
6.08733e-05
6.07314e-05
5.89532e-05
4.37601e-05
4.41572e-05
5.10402e-05
5.61334e-05
5.93798e-05
6.09005e-05
6.07522e-05
5.8958e-05
4.39077e-05
4.4039e-05
5.10028e-05
5.61828e-05
5.95041e-05
6.10849e-05
6.09769e-05
5.91958e-05
4.42864e-05
4.63096e-05
5.39071e-05
5.944e-05
6.29796e-05
6.46632e-05
6.45352e-05
6.25917e-05
4.4168e-05
4.6202e-05
5.37424e-05
5.92396e-05
6.27624e-05
6.44453e-05
6.43314e-05
6.24176e-05
4.41256e-05
4.61002e-05
5.36469e-05
5.91664e-05
6.27273e-05
6.44608e-05
6.44019e-05
6.25348e-05
4.41268e-05
4.6157e-05
5.36716e-05
5.9155e-05
6.26712e-05
6.43525e-05
6.42455e-05
6.23564e-05
4.41591e-05
4.59943e-05
5.35496e-05
5.90927e-05
6.26757e-05
6.44265e-05
6.43805e-05
6.2524e-05
4.42341e-05
4.59411e-05
5.35237e-05
5.90959e-05
6.26933e-05
6.44416e-05
6.43786e-05
6.24978e-05
4.43642e-05
4.58751e-05
5.35368e-05
5.9187e-05
6.28478e-05
6.46435e-05
6.46086e-05
6.27314e-05
4.50505e-05
4.89123e-05
5.74495e-05
6.36276e-05
6.76466e-05
6.96532e-05
6.96686e-05
6.76507e-05
4.4917e-05
4.87377e-05
5.72185e-05
6.33741e-05
6.73973e-05
6.94283e-05
6.94837e-05
6.75174e-05
4.48533e-05
4.86148e-05
5.71008e-05
6.32854e-05
6.73586e-05
6.94552e-05
6.95817e-05
6.76768e-05
4.48528e-05
4.86316e-05
5.70924e-05
6.32508e-05
6.729e-05
6.93445e-05
6.94292e-05
6.74997e-05
4.48644e-05
4.84955e-05
5.69923e-05
6.32e-05
6.72928e-05
6.94023e-05
6.9535e-05
6.76326e-05
4.49307e-05
4.84592e-05
5.69802e-05
6.32075e-05
6.73018e-05
6.9394e-05
6.94949e-05
6.75551e-05
4.50493e-05
4.84483e-05
5.70453e-05
6.33404e-05
6.74848e-05
6.96092e-05
6.97233e-05
6.77751e-05
4.6109e-05
5.24228e-05
6.21838e-05
6.92171e-05
7.38886e-05
7.63551e-05
7.66064e-05
7.45485e-05
4.59509e-05
5.21757e-05
6.18827e-05
6.89104e-05
7.36118e-05
7.61336e-05
7.64565e-05
7.44775e-05
4.5866e-05
5.20302e-05
6.17452e-05
6.88128e-05
7.35803e-05
7.61868e-05
7.66e-05
7.46996e-05
4.5863e-05
5.20229e-05
6.17202e-05
6.87721e-05
7.35177e-05
7.60942e-05
7.6475e-05
7.45522e-05
4.58609e-05
5.19101e-05
6.1638e-05
6.8728e-05
7.35127e-05
7.61275e-05
7.65403e-05
7.46337e-05
4.59233e-05
5.18952e-05
6.16439e-05
6.87427e-05
7.35141e-05
7.60946e-05
7.64584e-05
7.44988e-05
4.60395e-05
5.19438e-05
6.17658e-05
6.89215e-05
7.37278e-05
7.63228e-05
7.66819e-05
7.46988e-05
4.75542e-05
5.7034e-05
6.83466e-05
7.64789e-05
8.2002e-05
8.50842e-05
8.56746e-05
8.36154e-05
4.73601e-05
5.67064e-05
6.79705e-05
7.61181e-05
8.17016e-05
8.48751e-05
8.5574e-05
8.36251e-05
4.72533e-05
5.65377e-05
6.78162e-05
7.60184e-05
8.16877e-05
8.49676e-05
8.57777e-05
8.39257e-05
4.72491e-05
5.65209e-05
6.77905e-05
7.59881e-05
8.16485e-05
8.49124e-05
8.57022e-05
8.3834e-05
4.72419e-05
5.64343e-05
6.77297e-05
7.59553e-05
8.16414e-05
8.49273e-05
8.57322e-05
8.38667e-05
4.73079e-05
5.64499e-05
6.77634e-05
7.59872e-05
8.1645e-05
8.48791e-05
8.5617e-05
8.36814e-05
4.74337e-05
5.6566e-05
6.79511e-05
7.62199e-05
8.18957e-05
8.51244e-05
8.58373e-05
8.38608e-05
4.94955e-05
6.29397e-05
7.61693e-05
8.56704e-05
9.22616e-05
9.61245e-05
9.71598e-05
9.51362e-05
4.92522e-05
6.25228e-05
7.57128e-05
8.52537e-05
9.19392e-05
9.59331e-05
9.71167e-05
9.52372e-05
4.91224e-05
6.2332e-05
7.55464e-05
8.5159e-05
9.19517e-05
9.60745e-05
9.73905e-05
9.56263e-05
4.91218e-05
6.23226e-05
7.5538e-05
8.51576e-05
9.19551e-05
9.60768e-05
9.73871e-05
9.56161e-05
4.91206e-05
6.22704e-05
7.55083e-05
8.51486e-05
9.19618e-05
9.60925e-05
9.74025e-05
9.56199e-05
4.91998e-05
6.23291e-05
7.55848e-05
8.52147e-05
9.19864e-05
9.60491e-05
9.72746e-05
9.54048e-05
4.93511e-05
6.25259e-05
7.58516e-05
8.55138e-05
9.22852e-05
9.63211e-05
9.74999e-05
9.55697e-05
5.20535e-05
7.03225e-05
8.5862e-05
9.70178e-05
0.000104901
0.000109709
0.000111292
0.000109337
5.17459e-05
6.98077e-05
8.53197e-05
9.65413e-05
0.000104553
0.000109533
0.000111304
0.000109527
5.1593e-05
6.95996e-05
8.51482e-05
9.64586e-05
0.000104597
0.000109727
0.00011165
0.000110007
5.16064e-05
6.962e-05
8.51798e-05
9.65073e-05
0.000104663
0.000109807
0.00011174
0.0001101
5.16239e-05
6.96128e-05
8.51933e-05
9.6539e-05
0.000104707
0.000109852
0.000111773
0.000110108
5.17272e-05
6.9728e-05
8.53303e-05
9.66619e-05
0.00010478
0.000109843
0.000111664
0.000109895
5.19238e-05
7.00232e-05
8.56925e-05
9.70422e-05
0.000105141
0.000110156
0.000111908
0.000110059
5.53542e-05
7.9343e-05
9.76016e-05
0.000110704
0.000120099
0.000126013
0.000128241
0.000126385
5.49653e-05
7.87229e-05
9.69685e-05
0.00011016
0.000119717
0.000125841
0.000128293
0.000126648
5.47918e-05
7.85082e-05
9.68018e-05
0.000110094
0.00011979
0.00012608
0.000128704
0.000127209
5.48373e-05
7.85883e-05
9.69008e-05
0.000110214
0.000119934
0.000126251
0.0001289
0.00012742
5.48877e-05
7.86363e-05
9.69665e-05
0.000110303
0.000120044
0.000126361
0.000128988
0.000127469
5.50229e-05
7.88154e-05
9.71788e-05
0.000110506
0.000120195
0.000126421
0.000128935
0.000127298
5.5289e-05
7.92296e-05
9.76533e-05
0.000110983
0.000120633
0.000126791
0.000129214
0.000127478
5.95331e-05
9.01345e-05
0.000111528
0.000126864
0.000137986
0.000145163
0.000148132
0.00014641
5.90418e-05
8.94031e-05
0.000110799
0.000126243
0.000137554
0.000144972
0.000148197
0.000146712
5.88543e-05
8.92004e-05
0.00011065
0.000126192
0.000137643
0.000145238
0.00014865
0.000147331
5.89602e-05
8.93798e-05
0.000110848
0.0001264
0.000137868
0.0001455
0.000148952
0.000147659
5.90583e-05
8.94897e-05
0.000110964
0.000126556
0.00013807
0.000145706
0.000149127
0.000147784
5.9225e-05
8.9724e-05
0.000111256
0.00012686
0.000138329
0.000145869
0.000149166
0.000147692
5.95885e-05
9.02774e-05
0.000111855
0.000127441
0.000138854
0.000146308
0.000149497
0.000147905
6.47711e-05
0.000102806
0.000127748
0.000145597
0.000158661
0.000167259
0.00017107
0.00016952
6.41431e-05
0.000101957
0.000126922
0.000144885
0.000158154
0.000167018
0.000171109
0.000169819
6.39509e-05
0.000101795
0.000126806
0.000144836
0.000158231
0.000167278
0.000171568
0.000170455
6.41588e-05
0.000102124
0.000127134
0.000145136
0.000158523
0.000167613
0.000171957
0.000170878
6.43235e-05
0.0001023
0.000127277
0.000145359
0.000158837
0.000167933
0.000172237
0.000171099
6.45091e-05
0.000102552
0.000127637
0.000145777
0.000159226
0.000168225
0.000172396
0.000171117
6.5002e-05
0.000103259
0.000128359
0.000146459
0.00015984
0.000168741
0.000172789
0.000171379
7.12258e-05
0.000117444
0.000146352
0.000166996
0.000182221
0.000192408
0.000197169
0.000195834
7.04573e-05
0.000116471
0.000145428
0.000166183
0.000181618
0.000192086
0.00019714
0.000196077
7.02829e-05
0.000116387
0.000145354
0.000166127
0.000181659
0.0001923
0.000197556
0.000196675
7.06358e-05
0.000116927
0.000145802
0.00016653
0.000182036
0.000192688
0.000197995
0.000197152
7.08815e-05
0.000117176
0.000145975
0.00016676
0.000182393
0.000193097
0.000198371
0.000197467
7.10459e-05
0.000117372
0.000146371
0.000167291
0.000182918
0.000193525
0.000198661
0.00019761
7.16572e-05
0.000118227
0.000147213
0.000168056
0.000183611
0.000194115
0.000199121
0.000197931
7.8687e-05
0.000134108
0.000167431
0.00019117
0.000208801
0.000220762
0.000226588
0.000225508
7.7785e-05
0.000132997
0.000166382
0.000190306
0.000208121
0.000220335
0.000226446
0.000225636
7.76473e-05
0.00013302
0.000166339
0.000190249
0.000208119
0.000220469
0.000226764
0.000226129
7.81825e-05
0.000133844
0.00016694
0.000190673
0.000208528
0.000220865
0.0002272
0.0002266
7.85174e-05
0.000134143
0.000167189
0.000190901
0.000208866
0.00022131
0.000227637
0.000226983
7.86121e-05
0.000134217
0.000167536
0.000191483
0.000209487
0.000221851
0.000228045
0.000227249
7.929e-05
0.000135153
0.000168485
0.000192345
0.000210254
0.000222506
0.000228565
0.000227627
4.43093e-05
4.46848e-05
4.22806e-05
4.51057e-05
4.26983e-05
4.92048e-05
5.42109e-05
5.74423e-05
4.5553e-05
4.32378e-05
4.98643e-05
5.49507e-05
5.82171e-05
5.97611e-05
5.96495e-05
5.79276e-05
4.60298e-05
4.3864e-05
5.06213e-05
5.57923e-05
5.91085e-05
6.06719e-05
6.05465e-05
5.87708e-05
4.38463e-05
4.27049e-05
4.92572e-05
5.41937e-05
5.73495e-05
5.88409e-05
5.8731e-05
5.70528e-05
4.41274e-05
4.27751e-05
4.94094e-05
5.44378e-05
5.76661e-05
5.92025e-05
5.91113e-05
5.74258e-05
4.44703e-05
4.3027e-05
4.97657e-05
5.48844e-05
5.81771e-05
5.97513e-05
5.96678e-05
5.79592e-05
4.48708e-05
4.34702e-05
5.03336e-05
5.55478e-05
5.88986e-05
6.04928e-05
6.03973e-05
5.86468e-05
4.53335e-05
4.40544e-05
5.10708e-05
5.63922e-05
5.9818e-05
6.1456e-05
6.13595e-05
5.95638e-05
4.58408e-05
4.47947e-05
5.19831e-05
5.74152e-05
6.09025e-05
6.25585e-05
6.24448e-05
6.05881e-05
4.63863e-05
4.56481e-05
5.30216e-05
5.85682e-05
6.21268e-05
6.3815e-05
6.3691e-05
6.17746e-05
4.41195e-05
4.4026e-05
5.11033e-05
5.63741e-05
5.97585e-05
6.13777e-05
6.12842e-05
5.94941e-05
4.44055e-05
4.41813e-05
5.1366e-05
5.67483e-05
6.02121e-05
6.18798e-05
6.18054e-05
6.00042e-05
4.47686e-05
4.45565e-05
5.18807e-05
5.73749e-05
6.09203e-05
6.26342e-05
6.25708e-05
6.07433e-05
4.52115e-05
4.516e-05
5.26573e-05
5.82748e-05
6.18957e-05
6.36455e-05
6.35778e-05
6.17056e-05
4.57333e-05
4.59527e-05
5.3658e-05
5.94157e-05
6.31315e-05
6.49321e-05
6.48685e-05
6.29472e-05
4.6317e-05
4.6934e-05
5.48714e-05
6.07732e-05
6.45751e-05
6.6415e-05
6.634e-05
6.43529e-05
4.69461e-05
4.80552e-05
5.62424e-05
6.22927e-05
6.61913e-05
6.80809e-05
6.80029e-05
6.59516e-05
4.45702e-05
4.59351e-05
5.37212e-05
5.94613e-05
6.31833e-05
6.50138e-05
6.49884e-05
6.30963e-05
4.48638e-05
4.61844e-05
5.41178e-05
5.99836e-05
6.3791e-05
6.5674e-05
6.56685e-05
6.3762e-05
4.52558e-05
4.67009e-05
5.48148e-05
6.08216e-05
6.47252e-05
6.66643e-05
6.66741e-05
6.47391e-05
4.57532e-05
4.74979e-05
5.58381e-05
6.19957e-05
6.59986e-05
6.79897e-05
6.80033e-05
6.60213e-05
4.63502e-05
4.85367e-05
5.71454e-05
6.34784e-05
6.75983e-05
6.96546e-05
6.96785e-05
6.76445e-05
4.7026e-05
4.97949e-05
5.87019e-05
6.52127e-05
6.94512e-05
7.15673e-05
7.15882e-05
6.94853e-05
4.77609e-05
5.12284e-05
6.04505e-05
6.71502e-05
7.15167e-05
7.37021e-05
7.37279e-05
7.15547e-05
4.52538e-05
4.85958e-05
5.73202e-05
6.37051e-05
6.79079e-05
7.00622e-05
7.01791e-05
6.82086e-05
4.55609e-05
4.89566e-05
5.78699e-05
6.43874e-05
6.86822e-05
7.08923e-05
7.1029e-05
6.904e-05
4.59906e-05
4.9632e-05
5.87768e-05
6.54572e-05
6.98632e-05
7.21386e-05
7.22939e-05
7.02736e-05
4.65551e-05
5.06487e-05
6.00716e-05
6.69347e-05
7.14633e-05
7.38063e-05
7.39724e-05
7.19027e-05
4.72447e-05
5.19625e-05
6.1714e-05
6.87876e-05
7.34572e-05
7.58805e-05
7.6063e-05
7.39379e-05
4.80282e-05
5.35311e-05
6.36378e-05
7.09373e-05
7.57568e-05
7.82574e-05
7.84443e-05
7.62473e-05
4.88954e-05
5.53081e-05
6.57916e-05
7.33305e-05
7.83095e-05
8.08976e-05
8.1093e-05
7.8816e-05
4.62488e-05
5.21878e-05
6.2138e-05
6.93828e-05
7.42433e-05
7.68609e-05
7.72137e-05
7.51986e-05
4.65756e-05
5.26846e-05
6.28445e-05
7.02313e-05
7.51885e-05
7.78624e-05
7.82317e-05
7.61921e-05
4.70515e-05
5.35371e-05
6.39713e-05
7.15405e-05
7.66214e-05
7.93666e-05
7.97544e-05
7.7678e-05
4.76957e-05
5.47879e-05
6.55488e-05
7.33314e-05
7.85549e-05
8.1379e-05
8.1781e-05
7.96509e-05
4.84907e-05
5.63884e-05
6.75344e-05
7.55618e-05
8.0948e-05
8.3865e-05
8.42866e-05
8.2096e-05
4.94019e-05
5.82745e-05
6.98434e-05
7.81407e-05
8.37011e-05
8.67074e-05
8.71382e-05
8.48704e-05
5.04275e-05
6.03959e-05
7.24211e-05
8.10028e-05
8.67495e-05
8.98541e-05
9.02894e-05
8.79322e-05
4.7659e-05
5.6907e-05
6.84264e-05
7.67824e-05
8.25052e-05
8.57459e-05
8.644e-05
8.4419e-05
4.80129e-05
5.75477e-05
6.92889e-05
7.77938e-05
8.36136e-05
8.69058e-05
8.76081e-05
8.55529e-05
4.85409e-05
5.85844e-05
7.06286e-05
7.93315e-05
8.52814e-05
8.86443e-05
8.93594e-05
8.72584e-05
4.92739e-05
6.00635e-05
7.24787e-05
8.14192e-05
8.75244e-05
9.09704e-05
9.16971e-05
8.95348e-05
5.01831e-05
6.19373e-05
7.47917e-05
8.40045e-05
9.02888e-05
9.38332e-05
9.45773e-05
9.2347e-05
5.124e-05
6.41275e-05
7.74761e-05
8.69912e-05
9.34627e-05
9.71041e-05
9.78564e-05
9.55416e-05
5.24377e-05
6.65884e-05
8.04661e-05
9.03015e-05
9.69754e-05
0.000100713
0.000101465
9.90503e-05
4.96035e-05
6.29654e-05
7.64333e-05
8.61785e-05
9.2986e-05
9.7019e-05
9.81628e-05
9.6173e-05
4.99959e-05
6.37384e-05
7.74419e-05
8.7337e-05
9.42346e-05
9.83072e-05
9.9445e-05
9.74073e-05
5.0581e-05
6.49401e-05
7.89693e-05
8.90696e-05
9.60947e-05
0.000100229
0.000101366
9.92697e-05
5.14012e-05
6.66192e-05
8.10543e-05
9.14063e-05
9.85889e-05
0.000102801
0.00010394
0.000101772
5.24254e-05
6.87353e-05
8.36478e-05
9.42909e-05
0.000101658
0.000105965
0.000107114
0.000104869
5.36247e-05
7.12048e-05
8.66604e-05
9.76208e-05
0.000105182
0.000109585
0.000110736
0.000108399
5.49943e-05
7.39805e-05
9.00165e-05
0.000101319
0.000109082
0.000113577
0.000114719
0.000112271
5.22146e-05
7.05633e-05
8.63809e-05
9.78058e-05
0.000105925
0.000110919
0.000112616
0.00011069
5.26523e-05
7.14534e-05
8.75145e-05
9.90822e-05
0.000107276
0.000112289
0.00011396
0.000111969
5.3291e-05
7.27841e-05
8.91834e-05
0.000100953
0.000109261
0.000114317
0.000115968
0.000113902
5.41839e-05
7.46134e-05
9.14371e-05
0.000103459
0.000111915
0.000117034
0.000118672
0.000116523
5.53101e-05
7.69109e-05
9.4234e-05
0.000106552
0.000115186
0.000120388
0.000122024
0.000119789
5.66358e-05
7.95999e-05
9.74862e-05
0.000110128
0.000118954
0.000124243
0.000125872
0.00012354
5.81669e-05
8.26303e-05
0.000101127
0.000114111
0.000123133
0.000128506
0.000130114
0.000127663
5.56287e-05
7.98692e-05
9.84441e-05
0.000111837
0.000121489
0.000127602
0.000129949
0.000128116
5.61169e-05
8.08557e-05
9.96717e-05
0.000113191
0.000122892
0.000128999
0.000131295
0.000129378
5.67967e-05
8.22644e-05
0.000101417
0.000115124
0.000124916
0.000131038
0.00013329
0.00013128
5.77365e-05
8.4171e-05
0.000103748
0.000117695
0.000127616
0.00013378
0.000136
0.000133896
5.8937e-05
8.65623e-05
0.000106643
0.000120877
0.000130959
0.000137189
0.000139393
0.0001372
6.03622e-05
8.93726e-05
0.00011002
0.000124575
0.000134838
0.000141142
0.000143331
0.000141039
6.20381e-05
9.25673e-05
0.000113824
0.000128717
0.000139166
0.000145541
0.0001477
0.000145287
5.99877e-05
9.10086e-05
0.000112739
0.000128375
0.000139768
0.000147152
0.00015024
0.000148533
6.05338e-05
9.20663e-05
0.000114023
0.000129758
0.000141167
0.000148513
0.000151523
0.000149711
6.1238e-05
9.34879e-05
0.000115767
0.000131667
0.000143135
0.000150465
0.000153404
0.000151481
6.21933e-05
9.53802e-05
0.000118065
0.000134184
0.000145757
0.000153104
0.000155992
0.000153965
6.34331e-05
9.77597e-05
0.000120933
0.000137321
0.000149034
0.000156427
0.000159288
0.000157173
6.49366e-05
0.000100568
0.000124304
0.000141003
0.000152883
0.000160337
0.000163177
0.00016097
6.67458e-05
0.000103808
0.00012814
0.000145169
0.000157221
0.000164732
0.000167537
0.000165212
6.54749e-05
0.000104065
0.000129324
0.00014746
0.000160794
0.000169598
0.000173521
0.000171977
6.60977e-05
0.000105166
0.000130626
0.000148821
0.000162132
0.000170865
0.000174682
0.000173012
6.68128e-05
0.000106525
0.000132287
0.000150621
0.000163957
0.000172638
0.000176357
0.000174556
6.77511e-05
0.000108301
0.000134437
0.000152965
0.000166383
0.000175056
0.000178705
0.000176794
6.89786e-05
0.000110549
0.00013715
0.000155929
0.00016946
0.000178162
0.000181778
0.000179785
7.04237e-05
0.000113223
0.000140377
0.000159461
0.000173147
0.0001819
0.000185493
0.000183418
7.21963e-05
0.000116368
0.000144111
0.000163517
0.000177362
0.00018616
0.000189716
0.000187534
7.21833e-05
0.000119079
0.000148228
0.000169108
0.000184587
0.000194964
0.000199822
0.000198481
7.28574e-05
0.000120196
0.000149505
0.000170395
0.00018581
0.000196085
0.000200811
0.000199321
7.35094e-05
0.000121409
0.000151003
0.00017201
0.000187415
0.000197603
0.000202201
0.000200561
7.43118e-05
0.000122968
0.000152898
0.000174082
0.000189546
0.000199705
0.000204215
0.00020246
7.53894e-05
0.000124957
0.000155341
0.000176755
0.000192312
0.000202486
0.000206963
0.000205137
7.66277e-05
0.000127357
0.0001583
0.000180022
0.000195729
0.000205945
0.000210402
0.00020851
7.82501e-05
0.000130285
0.000161807
0.000183857
0.000199709
0.000209959
0.000214381
0.000212398
7.98517e-05
0.00013601
0.000169525
0.000193399
0.000211218
0.000223322
0.000229214
0.000228111
8.05573e-05
0.000137135
0.000170702
0.000194561
0.000212284
0.000224257
0.000229989
0.000228716
8.11091e-05
0.000138143
0.00017195
0.000195911
0.000213604
0.000225462
0.000231037
0.000229592
8.17083e-05
0.000139387
0.000173548
0.000197649
0.000215368
0.000227173
0.000232649
0.000231085
8.25747e-05
0.000141032
0.000175584
0.000199905
0.000217725
0.00022955
0.000234999
0.000233379
8.35164e-05
0.000143033
0.000178192
0.000202853
0.000220803
0.000232659
0.000238094
0.000236428
8.4926e-05
0.000145649
0.000181361
0.000206357
0.000224455
0.000236341
0.00024175
0.000240016
4.59803e-05
4.56546e-05
5.24183e-05
5.74123e-05
6.05409e-05
6.19295e-05
6.16443e-05
5.97198e-05
4.53757e-05
4.51157e-05
5.16792e-05
5.65e-05
5.94872e-05
6.07733e-05
6.04384e-05
5.85353e-05
4.47891e-05
4.44582e-05
5.08668e-05
5.55795e-05
5.85011e-05
5.97663e-05
5.94578e-05
5.76297e-05
4.42595e-05
4.40132e-05
5.02372e-05
5.47959e-05
5.7596e-05
5.87754e-05
5.84348e-05
5.66588e-05
4.38282e-05
4.31552e-05
4.93166e-05
5.3871e-05
5.67006e-05
5.79367e-05
5.76646e-05
5.59406e-05
4.34773e-05
4.27499e-05
4.88092e-05
5.33064e-05
5.61086e-05
5.734e-05
5.70837e-05
5.53986e-05
4.3268e-05
4.23765e-05
4.84198e-05
5.2926e-05
5.57542e-05
5.70255e-05
5.68162e-05
5.51755e-05
4.65774e-05
4.76743e-05
5.51215e-05
6.05558e-05
6.39864e-05
6.55485e-05
6.52955e-05
6.32405e-05
4.59141e-05
4.68456e-05
5.40301e-05
5.9254e-05
6.25146e-05
6.39529e-05
6.36376e-05
6.16028e-05
4.52548e-05
4.59127e-05
5.28758e-05
5.79474e-05
6.11061e-05
6.24937e-05
6.21848e-05
6.02185e-05
4.4664e-05
4.51897e-05
5.19063e-05
5.67862e-05
5.97932e-05
6.10714e-05
6.07128e-05
5.87855e-05
4.41687e-05
4.4256e-05
5.08572e-05
5.56957e-05
5.87072e-05
6.00291e-05
5.97405e-05
5.78889e-05
4.37729e-05
4.37303e-05
5.02031e-05
5.49647e-05
5.79331e-05
5.92392e-05
5.8962e-05
5.71527e-05
4.35286e-05
4.33084e-05
4.97295e-05
5.44754e-05
5.74535e-05
5.87905e-05
5.85587e-05
5.68004e-05
4.74262e-05
5.04257e-05
5.87765e-05
6.48032e-05
6.86535e-05
7.04754e-05
7.03048e-05
6.81248e-05
4.66758e-05
4.92669e-05
5.7281e-05
6.30508e-05
6.66952e-05
6.83662e-05
6.81167e-05
6.59532e-05
4.59183e-05
4.80151e-05
5.57287e-05
6.12927e-05
6.47915e-05
6.63773e-05
6.61111e-05
6.40091e-05
4.52414e-05
4.69748e-05
5.43701e-05
5.96973e-05
6.30095e-05
6.44601e-05
6.41274e-05
6.20559e-05
4.46662e-05
4.58814e-05
5.30939e-05
5.83305e-05
6.1609e-05
6.30757e-05
6.28005e-05
6.08145e-05
4.42129e-05
4.51923e-05
5.22326e-05
5.73617e-05
6.05734e-05
6.20077e-05
6.17355e-05
5.97938e-05
4.39271e-05
4.46834e-05
5.16342e-05
5.6723e-05