/*--------------------------------*- C++ -*----------------------------------*\
| =========                 |                                                 |
| \\      /  F ield         | OpenFOAM: The Open Source CFD Toolbox           |
|  \\    /   O peration     | Version:  plus.master.MPPICInterFoam            |
|   \\  /    A nd           | Web:      www.OpenFOAM.com                      |
|    \\/     M anipulation  |                                                 |
\*---------------------------------------------------------------------------*/
FoamFile
{
    version     2.0;
    format      ascii;
    class       volScalarField;
    location    "8.8";
    object      nut;
}
// * * * * * * * * * * * * * * * * * * * * * * * * * * * * * * * * * * * * * //

dimensions      [0 2 -1 0 0 0 0];

internalField   nonuniform List<scalar> 
11821
(
2.91712e-05
5.16042e-05
9.71292e-05
0.00010629
6.47142e-05
3.17883e-05
2.14585e-05
4.45e-05
4.47126e-05
0.000119785
0.000132079
7.78559e-05
2.79363e-05
3.47982e-05
8.10025e-05
0.000103144
0.000108818
0.00011237
8.74105e-05
8.89466e-05
7.37721e-05
0.000116523
0.000147682
0.000133368
0.000110334
0.000110595
0.00012241
0.000101469
9.07934e-05
0.000115222
0.000114949
0.000128565
9.96522e-05
0.000102494
8.32036e-05
4.9116e-05
4.83498e-05
0.000123829
0.000149048
8.4086e-05
3.76645e-05
4.18042e-05
3.08822e-05
5.40861e-05
0.000100327
0.000118177
7.07716e-05
3.72252e-05
2.39749e-05
2.20404e-05
3.55131e-05
6.10221e-05
5.12492e-05
2.85876e-05
1.94547e-05
3.95337e-05
3.12326e-05
8.2406e-05
0.000155413
0.00016613
9.0986e-05
3.63624e-05
1.9434e-05
5.94702e-05
0.000147618
0.000136041
0.0001323
0.000100461
8.69059e-05
2.65363e-05
7.50886e-05
0.000186581
0.00015749
0.000227441
0.000173854
0.000109735
3.20809e-05
7.03787e-05
0.00016601
0.000154431
0.000186279
0.000113177
0.000111601
3.60564e-05
3.73199e-05
9.31455e-05
0.000176232
0.000211483
0.000119274
5.35024e-05
2.0783e-05
2.48112e-05
4.12834e-05
7.76478e-05
7.60121e-05
4.40296e-05
2.09096e-05
2.61425e-05
4.10664e-05
5.35925e-05
7.70643e-05
6.89785e-05
4.03141e-05
3.73281e-05
7.44427e-05
5.36595e-05
0.000110796
0.000177969
0.000193881
0.000103523
4.32115e-05
3.95831e-05
8.91126e-05
0.000186691
0.000156129
0.000165299
0.00016939
8.15013e-05
3.00089e-05
0.000104062
0.000237839
0.000185953
0.000253571
0.000279037
0.000105965
3.09057e-05
0.000100945
0.000206591
0.000174727
0.000228291
0.000166507
0.000105447
3.70911e-05
6.52549e-05
0.000131426
0.00020935
0.000244911
0.000140105
6.40856e-05
3.32034e-05
4.57246e-05
6.84172e-05
0.000103147
0.000102625
6.44554e-05
3.53171e-05
5.3739e-05
7.91901e-05
6.94169e-05
8.71357e-05
7.77372e-05
5.50573e-05
7.38654e-05
0.000121558
7.29445e-05
0.000126085
0.000178023
0.000193925
0.000109479
5.60247e-05
8.00738e-05
0.000107888
0.000200317
0.000188869
0.000185439
0.000207749
8.16503e-05
4.89195e-05
0.000127846
0.000269751
0.000245057
0.000258843
0.00030936
9.76186e-05
3.9638e-05
0.000121037
0.000220028
0.000184661
0.000244153
0.000219147
9.92799e-05
4.88275e-05
8.6131e-05
0.000151467
0.000214258
0.000236491
0.000144714
7.18026e-05
6.5023e-05
8.00943e-05
8.71416e-05
0.000118149
0.000114869
7.62353e-05
6.17973e-05
0.000102104
9.83873e-05
7.74272e-05
8.78121e-05
7.84285e-05
6.40182e-05
9.29556e-05
0.000132891
8.14545e-05
0.000126179
0.000171507
0.00017274
0.000106149
6.44601e-05
9.93025e-05
0.000111827
0.000202771
0.000249086
0.000173115
0.00019024
8.04876e-05
6.31889e-05
0.000135987
0.000283392
0.000259277
0.00025659
0.000279603
9.30937e-05
4.8086e-05
0.000125999
0.00022376
0.000246258
0.000228686
0.000236531
9.50702e-05
5.89348e-05
9.31904e-05
0.00015406
0.000212151
0.000233362
0.000141728
7.39539e-05
8.38993e-05
9.68967e-05
9.30151e-05
0.000119093
0.000113964
7.94411e-05
7.84318e-05
0.000119112
1.91008e-05
1.9109e-05
1.92122e-05
1.89249e-05
1.8652e-05
1.84549e-05
1.82932e-05
1.8143e-05
2.29839e-05
2.02692e-05
1.92172e-05
1.87265e-05
1.83731e-05
1.81016e-05
1.78625e-05
1.76485e-05
3.88486e-05
2.38364e-05
2.01272e-05
1.89044e-05
1.84214e-05
1.80938e-05
1.77766e-05
1.75219e-05
5.29164e-05
2.92617e-05
2.07937e-05
1.86921e-05
1.81463e-05
1.78871e-05
1.76013e-05
1.73047e-05
4.47534e-05
2.61192e-05
2.03193e-05
1.88754e-05
1.84039e-05
1.80996e-05
1.78174e-05
1.75713e-05
2.64506e-05
2.10471e-05
1.94649e-05
1.87083e-05
1.83791e-05
1.81504e-05
1.79114e-05
1.77404e-05
2.04954e-05
1.95375e-05
1.90818e-05
1.88833e-05
1.86666e-05
1.85125e-05
1.83728e-05
1.82316e-05
6.59052e-05
7.31228e-05
7.44644e-05
7.45019e-05
7.41514e-05
7.35936e-05
7.27849e-05
7.16378e-05
4.28451e-05
6.53283e-05
7.2238e-05
7.38728e-05
7.39841e-05
7.3604e-05
7.29183e-05
7.18822e-05
2.05614e-05
4.83271e-05
6.62123e-05
7.15839e-05
7.28164e-05
7.28087e-05
7.23153e-05
7.14229e-05
1.39436e-05
3.68712e-05
6.14665e-05
6.99938e-05
7.21595e-05
7.24403e-05
7.20316e-05
7.11269e-05
1.70428e-05
4.00173e-05
6.23221e-05
6.99784e-05
7.19367e-05
7.21762e-05
7.17596e-05
7.08614e-05
2.60088e-05
5.25785e-05
6.64854e-05
7.07918e-05
7.17925e-05
7.17241e-05
7.11627e-05
7.01707e-05
4.8197e-05
6.44266e-05
6.95854e-05
7.1005e-05
7.10958e-05
7.06574e-05
6.98706e-05
6.87116e-05
0.000103454
0.00011125
0.00011143
0.000108512
0.000103888
9.82137e-05
9.20048e-05
8.58264e-05
8.05129e-05
0.000103713
0.000109714
0.000108832
0.000104892
9.93509e-05
9.30018e-05
8.65627e-05
4.87202e-05
8.79305e-05
0.000104326
0.000107183
0.000104556
9.94608e-05
9.31852e-05
8.66449e-05
3.17714e-05
7.50401e-05
9.94697e-05
0.000105365
0.000103773
9.90385e-05
9.28661e-05
8.6319e-05
3.90812e-05
7.8487e-05
9.9652e-05
0.000104471
0.000102539
9.77167e-05
9.1577e-05
8.51271e-05
5.95091e-05
9.10613e-05
0.000102459
0.000103565
0.000100321
9.5061e-05
8.8883e-05
8.25934e-05
8.61858e-05
0.000100745
0.000103626
0.000101638
9.72662e-05
9.16335e-05
8.54446e-05
7.93227e-05
0.00014341
0.00014611
0.000141458
0.000134074
0.00012614
0.000118794
0.000112311
0.000105837
0.000126667
0.000142877
0.000142659
0.000136298
0.000128131
0.000120207
0.000113252
0.000106513
9.63423e-05
0.000132349
0.000140502
0.000136774
0.000129148
0.000121073
0.000113862
0.000106948
7.37236e-05
0.00012237
0.000137469
0.000136055
0.000129079
0.00012108
0.000113775
0.000106746
8.43166e-05
0.000125352
0.000137143
0.000134822
0.000127721
0.000119828
0.000112635
0.000105639
0.000110775
0.000134423
0.000137598
0.000132585
0.000124994
0.000117312
0.000110392
0.000103521
0.000131721
0.000138686
0.000135688
0.000128991
0.000121387
0.000114184
0.000107672
0.000101001
0.000142574
0.000136186
0.000124033
0.000110628
9.75536e-05
8.46704e-05
7.12629e-05
5.82014e-05
0.000135076
0.000139009
0.000129044
0.000115093
0.000100926
8.72007e-05
7.31537e-05
5.92949e-05
0.0001129
0.000134839
0.000130886
0.000117981
0.000103393
8.90563e-05
7.44522e-05
5.99607e-05
9.33277e-05
0.000128656
0.000130099
0.000118573
0.000104099
8.95822e-05
7.47719e-05
6.00516e-05
0.000102829
0.000130148
0.000128817
0.000116856
0.000102633
8.84616e-05
7.39579e-05
5.95395e-05
0.000124285
0.000133826
0.000126201
0.000113291
9.9678e-05
8.62823e-05
7.24448e-05
5.87108e-05
0.000135778
0.000132355
0.000121734
0.000109371
9.7079e-05
8.4737e-05
7.1623e-05
5.86203e-05
2.25765e-05
2.08166e-05
2.04014e-05
2.02011e-05
2.00382e-05
1.98888e-05
1.97687e-05
1.96762e-05
2.99137e-05
2.21666e-05
2.00369e-05
1.93633e-05
1.9009e-05
1.86289e-05
1.83429e-05
1.81634e-05
5.11679e-05
3.04987e-05
2.17048e-05
1.93383e-05
1.85894e-05
1.80962e-05
1.77365e-05
1.72955e-05
6.33233e-05
3.53394e-05
2.28277e-05
1.93734e-05
1.82899e-05
1.76293e-05
1.71208e-05
1.67051e-05
4.4837e-05
2.72352e-05
2.0966e-05
1.93266e-05
1.85711e-05
1.80648e-05
1.76465e-05
1.74438e-05
2.68983e-05
2.07811e-05
1.9678e-05
1.92637e-05
1.89049e-05
1.85612e-05
1.82006e-05
1.79719e-05
2.1581e-05
2.00124e-05
1.96773e-05
1.94835e-05
1.93293e-05
1.91776e-05
1.90513e-05
1.89341e-05
4.72501e-05
6.49899e-05
6.94815e-05
7.04492e-05
7.01653e-05
6.93217e-05
6.81128e-05
6.65276e-05
2.61998e-05
4.68399e-05
6.23098e-05
6.79454e-05
6.93746e-05
6.92099e-05
6.84663e-05
6.74356e-05
2.74212e-05
2.80812e-05
4.96231e-05
6.21826e-05
6.62738e-05
6.6766e-05
6.58799e-05
6.44223e-05
2.74658e-05
2.2841e-05
4.46638e-05
5.91829e-05
6.38488e-05
6.43728e-05
6.33799e-05
6.17971e-05
2.28697e-05
3.05923e-05
5.29689e-05
6.38143e-05
6.71511e-05
6.75993e-05
6.69487e-05
6.58392e-05
2.54227e-05
4.83329e-05
6.24579e-05
6.73442e-05
6.86304e-05
6.86063e-05
6.80656e-05
6.72557e-05
4.39835e-05
6.00643e-05
6.58978e-05
6.79428e-05
6.83835e-05
6.81177e-05
6.74426e-05
6.64064e-05
7.18033e-05
9.72894e-05
0.000104568
0.000104555
0.00010094
9.52056e-05
8.82793e-05
8.10081e-05
4.51019e-05
7.24377e-05
9.52943e-05
0.000103273
0.000103738
0.000100573
9.54322e-05
8.93911e-05
4.38379e-05
4.54936e-05
7.74841e-05
9.62427e-05
0.000102012
0.000101575
9.81029e-05
9.31266e-05
4.24592e-05
3.53021e-05
6.89824e-05
9.20383e-05
9.96132e-05
9.97986e-05
9.65047e-05
9.15255e-05
3.87637e-05
5.02594e-05
8.27406e-05
9.85061e-05
0.000102591
0.00010128
9.72559e-05
9.18835e-05
4.45746e-05
7.68148e-05
9.67054e-05
0.000102591
0.000101982
9.81088e-05
9.24572e-05
8.60819e-05
7.2583e-05
9.53775e-05
0.000102106
0.000102305
9.9038e-05
9.37065e-05
8.72417e-05
8.04939e-05
0.000116784
0.000139532
0.00014254
0.000137872
0.000130352
0.000122304
0.000114628
0.00010681
7.9384e-05
0.000116936
0.000137471
0.000140973
0.000137002
0.000130661
0.000124342
0.000118255
6.44615e-05
8.2613e-05
0.000120861
0.000137081
0.000138749
0.000134628
0.000129162
0.000123676
5.90983e-05
6.55549e-05
0.000110431
0.000132903
0.000137046
0.000133593
0.000128009
0.000122079
6.14885e-05
8.9656e-05
0.000125129
0.000137547
0.000137196
0.000132044
0.000125945
0.000119938
8.27521e-05
0.00012166
0.000137336
0.000138089
0.000132822
0.000125744
0.000118956
0.000112499
0.000119202
0.000137561
0.000138859
0.000133755
0.000126333
0.000118644
0.000111471
0.000104236
0.000129758
0.000138968
0.000131105
0.000118388
0.000104738
9.08283e-05
7.6041e-05
6.1279e-05
9.71621e-05
0.000129538
0.000136354
0.000128138
0.000115415
0.000101558
8.63089e-05
7.01208e-05
7.61886e-05
0.000102326
0.000130834
0.000132486
0.000122188
0.0001086
9.32674e-05
7.69806e-05
6.92379e-05
8.51741e-05
0.000124015
0.000131966
0.000123253
0.000109721
9.43207e-05
7.81367e-05
7.45713e-05
0.000107838
0.00013225
0.000131285
0.0001202
0.000106547
9.14378e-05
7.55248e-05
0.000101571
0.000131714
0.000134342
0.000124788
0.000112042
9.85633e-05
8.39051e-05
6.85341e-05
0.000131014
0.000136166
0.000127422
0.000114976
0.000101973
8.88211e-05
7.47934e-05
6.07134e-05
2.28914e-05
2.01169e-05
1.92726e-05
1.90589e-05
1.8966e-05
1.8842e-05
1.87408e-05
1.86583e-05
3.34961e-05
2.31373e-05
1.91007e-05
1.79547e-05
1.7504e-05
1.71694e-05
1.70402e-05
1.70023e-05
5.3289e-05
3.01674e-05
2.04397e-05
1.78659e-05
1.69758e-05
1.63806e-05
1.58382e-05
1.53441e-05
5.53603e-05
2.98366e-05
2.03143e-05
1.8036e-05
1.71762e-05
1.66208e-05
1.60953e-05
1.56295e-05
3.52231e-05
2.27436e-05
1.91646e-05
1.82321e-05
1.7752e-05
1.73817e-05
1.70545e-05
1.66932e-05
2.21976e-05
1.98494e-05
1.8933e-05
1.85059e-05
1.81478e-05
1.78319e-05
1.76238e-05
1.75061e-05
1.93135e-05
1.89449e-05
1.89396e-05
1.88474e-05
1.87178e-05
1.86054e-05
1.84543e-05
1.82789e-05
3.52381e-05
5.62751e-05
6.45835e-05
6.76612e-05
6.86415e-05
6.87117e-05
6.82333e-05
6.72508e-05
2.07384e-05
3.72709e-05
5.53138e-05
6.29578e-05
6.54523e-05
6.61133e-05
6.61346e-05
6.57717e-05
2.12318e-05
2.66807e-05
4.82975e-05
5.85247e-05
6.09732e-05
6.07176e-05
5.97135e-05
5.85533e-05
1.62777e-05
2.78069e-05
5.1787e-05
6.1359e-05
6.31145e-05
6.22702e-05
6.06493e-05
5.87656e-05
2.0582e-05
4.64684e-05
6.29475e-05
6.77033e-05
6.82477e-05
6.74916e-05
6.6356e-05
6.50038e-05
4.54676e-05
6.56174e-05
7.07517e-05
7.16402e-05
7.13463e-05
7.07166e-05
6.99574e-05
6.89393e-05
6.73112e-05
7.2956e-05
7.3712e-05
7.34767e-05
7.29861e-05
7.23962e-05
7.16712e-05
7.07036e-05
6.65063e-05
9.27505e-05
0.000101078
0.000101957
9.91396e-05
9.42058e-05
8.81047e-05
8.16646e-05
3.84356e-05
6.80355e-05
9.13454e-05
9.93004e-05
9.9709e-05
9.65053e-05
9.13685e-05
8.53937e-05
3.24479e-05
4.72741e-05
7.9457e-05
9.3654e-05
9.64393e-05
9.4281e-05
8.97839e-05
8.42621e-05
2.55141e-05
4.62548e-05
8.11193e-05
9.48192e-05
9.67075e-05
9.36095e-05
8.81602e-05
8.16426e-05
3.75577e-05
7.57269e-05
9.74059e-05
0.000103178
0.000102129
9.79105e-05
9.19689e-05
8.52704e-05
7.72596e-05
0.000102032
0.000108368
0.000107972
0.000104462
9.91379e-05
9.27224e-05
8.59391e-05
0.000103654
0.000111173
0.000111303
0.000108462
0.000103882
9.81883e-05
9.19033e-05
8.56086e-05
0.000116734
0.000136016
0.00013775
0.000132919
0.000125831
0.000118528
0.000111723
0.000104778
7.83245e-05
0.000117399
0.000133765
0.000134794
0.000129811
0.000123239
0.000116888
0.000110495
5.52647e-05
9.15689e-05
0.000123644
0.000132324
0.000130167
0.00012478
0.000119385
0.000114197
4.65309e-05
8.77574e-05
0.000123061
0.000132561
0.000130384
0.000124795
0.000119416
0.000114714
7.40802e-05
0.00011871
0.000136517
0.000137715
0.000132458
0.000125616
0.00011934
0.000113491
0.000120855
0.000141572
0.000143511
0.00013841
0.000130905
0.000123285
0.000116509
0.000109982
0.000143513
0.000146686
0.000142157
0.00013487
0.000126965
0.000119604
0.000113094
0.000106613
0.000129108
0.000134159
0.000125573
0.000113164
0.000100106
8.6804e-05
7.26641e-05
5.86714e-05
9.94568e-05
0.000127653
0.000129235
0.000119074
0.00010571
9.15445e-05
7.63439e-05
6.09434e-05
7.17317e-05
0.000110565
0.000127303
0.000122105
0.000109775
9.57035e-05
8.02032e-05
6.39836e-05
6.34613e-05
0.00010694
0.000127415
0.000123225
0.000110925
9.69084e-05
8.16416e-05
6.562e-05
9.35138e-05
0.000128473
0.000133001
0.000123201
0.00010936
9.4775e-05
7.92206e-05
6.32654e-05
0.000131628
0.000140097
0.000131889
0.00011854
0.000104353
9.0216e-05
7.54323e-05
6.06214e-05
0.000142817
0.000136657
0.000124505
0.000111137
9.80765e-05
8.51647e-05
7.16711e-05
5.84381e-05
1.9942e-05
1.92373e-05
1.90474e-05
1.88524e-05
1.87229e-05
1.85636e-05
1.844e-05
1.82405e-05
2.4253e-05
2.0254e-05
1.94259e-05
1.89092e-05
1.84894e-05
1.80845e-05
1.78233e-05
1.7622e-05
4.09406e-05
2.57588e-05
2.04338e-05
1.91208e-05
1.85191e-05
1.80464e-05
1.7583e-05
1.71354e-05
6.36807e-05
3.51063e-05
2.28732e-05
1.94919e-05
1.84457e-05
1.78541e-05
1.73373e-05
1.68346e-05
5.79028e-05
3.42629e-05
2.32231e-05
1.98351e-05
1.87361e-05
1.81734e-05
1.76775e-05
1.7242e-05
3.56e-05
2.54191e-05
2.11831e-05
1.99086e-05
1.94828e-05
1.92074e-05
1.88598e-05
1.85127e-05
2.37167e-05
2.14103e-05
2.06681e-05
2.04123e-05
2.02659e-05
2.01336e-05
2.00263e-05
1.99674e-05
5.61327e-05
6.67506e-05
6.96188e-05
7.01684e-05
6.97973e-05
6.90724e-05
6.81631e-05
6.70538e-05
3.31696e-05
5.82639e-05
6.70449e-05
6.922e-05
6.91545e-05
6.8316e-05
6.71762e-05
6.57828e-05
1.93092e-05
3.73017e-05
5.83288e-05
6.62378e-05
6.79511e-05
6.73919e-05
6.5998e-05
6.42676e-05
2.42211e-05
2.32638e-05
4.75031e-05
6.15956e-05
6.57259e-05
6.57485e-05
6.42475e-05
6.21999e-05
2.93669e-05
2.60645e-05
4.74037e-05
6.13489e-05
6.61285e-05
6.67799e-05
6.58492e-05
6.43188e-05
2.49601e-05
4.02447e-05
5.91973e-05
6.77971e-05
7.0548e-05
7.08482e-05
7.01915e-05
6.91074e-05
4.36419e-05
6.58496e-05
7.06806e-05
7.16441e-05
7.13969e-05
7.05384e-05
6.92212e-05
6.74285e-05
8.94557e-05
0.000102059
0.000103984
0.00010187
9.75094e-05
9.18175e-05
8.54515e-05
7.90646e-05
5.70599e-05
8.98985e-05
0.000101118
0.000102821
0.000100286
9.54777e-05
8.93527e-05
8.26988e-05
3.28581e-05
5.87875e-05
8.81551e-05
9.94425e-05
0.000101196
9.85537e-05
9.36216e-05
8.75325e-05
3.82997e-05
3.52164e-05
7.07139e-05
9.26817e-05
9.94048e-05
9.89613e-05
9.51074e-05
8.96096e-05
4.47633e-05
4.20306e-05
7.40324e-05
9.48854e-05
0.000101718
0.000101596
9.80598e-05
9.28048e-05
4.36326e-05
6.8197e-05
9.38305e-05
0.000103801
0.000105154
0.000102252
9.70728e-05
9.08571e-05
7.11942e-05
9.87722e-05
0.000105732
0.000105563
0.000101897
9.60987e-05
8.90751e-05
8.16849e-05
0.00013212
0.000139744
0.000136898
0.00013037
0.000122812
0.000115595
0.000109126
0.000102646
0.000101142
0.000131278
0.000138256
0.00013557
0.000129191
0.000122097
0.000115734
0.000109903
5.99415e-05
0.000100494
0.000128686
0.000136229
0.000133928
0.000128089
0.000121843
0.000115843
5.33721e-05
6.89459e-05
0.000112663
0.00013232
0.000135196
0.000131321
0.000125729
0.000119951
6.3442e-05
8.06229e-05
0.000119294
0.00013617
0.000138144
0.000134223
0.000129014
0.000123839
7.85289e-05
0.000115686
0.000137508
0.000141845
0.000138297
0.000132187
0.000125973
0.000119848
0.000117042
0.000140257
0.000143284
0.000138641
0.000131153
0.000123111
0.000115402
0.000107499
0.000137209
0.000134651
0.000124289
0.00011236
0.000100624
8.88196e-05
7.60288e-05
6.29059e-05
0.000118265
0.000136542
0.000133077
0.000122297
0.000110146
9.80304e-05
8.50496e-05
7.1305e-05
7.80313e-05
0.000117751
0.000133486
0.000129087
0.00011775
0.000104999
9.11963e-05
7.65619e-05
6.44509e-05
9.17208e-05
0.000126
0.000130717
0.00012161
0.00010884
9.45035e-05
7.92416e-05
7.537e-05
0.000102956
0.000130455
0.000131841
0.000121905
0.000108938
9.41416e-05
7.80918e-05
9.71414e-05
0.000129237
0.000136447
0.000128514
0.000115872
0.000101889
8.64239e-05
7.00863e-05
0.000129698
0.000139139
0.000131362
0.000118611
0.00010484
9.07583e-05
7.58454e-05
6.10589e-05
1.80297e-05
1.75192e-05
1.73072e-05
1.71901e-05
1.73912e-05
1.76959e-05
1.81306e-05
7.00534e-05
7.04158e-05
7.0066e-05
6.97424e-05
6.94495e-05
6.86921e-05
6.71048e-05
8.02788e-05
8.08912e-05
8.09038e-05
8.0562e-05
7.94443e-05
7.70267e-05
7.38575e-05
9.75669e-05
9.78245e-05
9.79497e-05
9.75775e-05
9.65134e-05
9.46026e-05
9.24458e-05
4.74728e-05
4.75521e-05
4.7537e-05
4.74463e-05
4.72966e-05
4.72416e-05
4.8004e-05
1.95786e-05
1.79442e-05
1.67561e-05
1.63391e-05
1.71012e-05
1.78526e-05
1.88301e-05
6.45594e-05
6.62854e-05
6.28923e-05
6.00654e-05
6.44747e-05
6.62128e-05
6.49613e-05
7.42206e-05
8.36254e-05
8.81039e-05
8.64752e-05
8.65932e-05
8.01277e-05
7.42892e-05
9.71563e-05
0.000110596
0.000116892
0.000114719
0.000112661
0.000104553
9.52379e-05
4.94353e-05
5.54194e-05
6.09151e-05
6.20191e-05
5.98076e-05
5.45302e-05
4.91755e-05
1.85901e-05
1.68853e-05
1.5013e-05
1.52364e-05
1.62973e-05
1.73917e-05
1.81195e-05
6.5736e-05
6.51424e-05
5.73572e-05
5.67813e-05
6.3532e-05
6.76602e-05
6.93799e-05
7.56874e-05
7.97714e-05
7.91267e-05
7.5515e-05
7.91517e-05
7.97827e-05
7.99329e-05
9.59445e-05
0.000101979
0.000106893
0.000108339
0.000105669
0.000101485
9.83208e-05
4.74646e-05
4.81026e-05
4.95601e-05
5.07509e-05
4.91235e-05
4.80228e-05
4.75054e-05
1.80024e-05
1.73627e-05
1.66923e-05
1.6351e-05
1.68385e-05
1.81939e-05
1.98806e-05
6.57139e-05
6.42381e-05
6.24363e-05
6.00897e-05
6.26645e-05
6.78198e-05
6.52089e-05
7.3326e-05
7.65339e-05
8.16324e-05
8.40986e-05
8.74017e-05
8.49077e-05
7.47691e-05
9.43904e-05
0.000102788
0.000108421
0.000112674
0.000117288
0.000111976
9.7709e-05
5.15648e-05
5.80353e-05
6.18801e-05
6.37442e-05
6.21451e-05
5.54067e-05
4.92897e-05
1.79058e-05
1.75139e-05
1.68689e-05
1.61546e-05
1.53511e-05
1.44944e-05
1.36015e-05
1.26659e-05
1.7418e-05
1.708e-05
1.65121e-05
1.57842e-05
1.50002e-05
1.41601e-05
1.32793e-05
1.23522e-05
1.71253e-05
1.6805e-05
1.63015e-05
1.55759e-05
1.47941e-05
1.39708e-05
1.31051e-05
1.21891e-05
1.71519e-05
1.68248e-05
1.63721e-05
1.57264e-05
1.48923e-05
1.39692e-05
1.30665e-05
1.21476e-05
1.72582e-05
1.69739e-05
1.64642e-05
1.57254e-05
1.4924e-05
1.40876e-05
1.32127e-05
1.22907e-05
1.76376e-05
1.73267e-05
1.67583e-05
1.60151e-05
1.52166e-05
1.43731e-05
1.34882e-05
1.25567e-05
1.80097e-05
1.76392e-05
1.70636e-05
1.63574e-05
1.55623e-05
1.47201e-05
1.38406e-05
1.29169e-05
6.7764e-05
6.42993e-05
6.13854e-05
5.82162e-05
5.40741e-05
4.87719e-05
4.24775e-05
3.55173e-05
6.82481e-05
6.47453e-05
6.14686e-05
5.7986e-05
5.35658e-05
4.80756e-05
4.16991e-05
3.47726e-05
6.80378e-05
6.46186e-05
6.1193e-05
5.759e-05
5.31167e-05
4.76235e-05
4.1288e-05
3.44339e-05
6.76954e-05
6.44126e-05
6.11668e-05
5.75288e-05
5.29508e-05
4.74302e-05
4.11169e-05
3.43063e-05
6.73812e-05
6.41201e-05
6.10591e-05
5.77316e-05
5.3417e-05
4.798e-05
4.1636e-05
3.47356e-05
6.66119e-05
6.36767e-05
6.11569e-05
5.82343e-05
5.41336e-05
4.87619e-05
4.23688e-05
3.53438e-05
6.49133e-05
6.22153e-05
6.02093e-05
5.77925e-05
5.41481e-05
4.91247e-05
4.29511e-05
3.60094e-05
7.47089e-05
6.91566e-05
6.78837e-05
6.61007e-05
6.22606e-05
5.62696e-05
4.86353e-05
4.00688e-05
7.54424e-05
6.98693e-05
6.83642e-05
6.6251e-05
6.20223e-05
5.56611e-05
4.7749e-05
3.90597e-05
7.555e-05
7.0021e-05
6.84137e-05
6.61417e-05
6.17504e-05
5.52709e-05
4.7306e-05
3.86286e-05
7.52621e-05
6.98342e-05
6.8321e-05
6.60577e-05
6.16288e-05
5.51005e-05
4.7106e-05
3.84321e-05
7.42057e-05
6.92436e-05
6.81103e-05
6.61383e-05
6.19388e-05
5.55501e-05
4.76e-05
3.8893e-05
7.1807e-05
6.80124e-05
6.74645e-05
6.59923e-05
6.21993e-05
5.60674e-05
4.82203e-05
3.94928e-05
6.85866e-05
6.54385e-05
6.52681e-05
6.43421e-05
6.12154e-05
5.57357e-05
4.84317e-05
4.00745e-05
8.69088e-05
7.45032e-05
6.80457e-05
6.58823e-05
6.32288e-05
5.83272e-05
5.12886e-05
4.29135e-05
8.71823e-05
7.49815e-05
6.8629e-05
6.63751e-05
6.34404e-05
5.81439e-05
5.07072e-05
4.20435e-05
8.72913e-05
7.51909e-05
6.88604e-05
6.65047e-05
6.33946e-05
5.7919e-05
5.03535e-05
4.16351e-05
8.69437e-05
7.50267e-05
6.88553e-05
6.65396e-05
6.33871e-05
5.78384e-05
5.02076e-05
4.14571e-05
8.59858e-05
7.44139e-05
6.8605e-05
6.65647e-05
6.36269e-05
5.82341e-05
5.06892e-05
4.19545e-05
8.42141e-05
7.31311e-05
6.77959e-05
6.61527e-05
6.35963e-05
5.85251e-05
5.11948e-05
4.25587e-05
8.20938e-05
7.10092e-05
6.5524e-05
6.38384e-05
6.16282e-05
5.72257e-05
5.06934e-05
4.27874e-05
5.6889e-05
6.24504e-05
6.23129e-05
6.25229e-05
6.14185e-05
5.78459e-05
5.19259e-05
4.44961e-05
5.7337e-05
6.31413e-05
6.30424e-05
6.31449e-05
6.18226e-05
5.79455e-05
5.16943e-05
4.39855e-05
5.74263e-05
6.3361e-05
6.32712e-05
6.32931e-05
6.18436e-05
5.78282e-05
5.14653e-05
4.36928e-05
5.73064e-05
6.33646e-05
6.33487e-05
6.33872e-05
6.19117e-05
5.78418e-05
5.14219e-05
4.36122e-05
5.68236e-05
6.29633e-05
6.31113e-05
6.33351e-05
6.20399e-05
5.81186e-05
5.18037e-05
4.40519e-05
5.59743e-05
6.20761e-05
6.23493e-05
6.28191e-05
6.18318e-05
5.82091e-05
5.21428e-05
4.4568e-05
5.54165e-05
6.08268e-05
6.02611e-05
6.01534e-05
5.91023e-05
5.59463e-05
5.07201e-05
4.41036e-05
1.94372e-05
1.90263e-05
1.83645e-05
1.75309e-05
1.66227e-05
1.56816e-05
1.4727e-05
1.37563e-05
1.76755e-05
1.71577e-05
1.67021e-05
1.62673e-05
1.56862e-05
1.49808e-05
1.41802e-05
1.33235e-05
1.63583e-05
1.5727e-05
1.51845e-05
1.46555e-05
1.41014e-05
1.35377e-05
1.29338e-05
1.22482e-05
1.59809e-05
1.53374e-05
1.46986e-05
1.40438e-05
1.3371e-05
1.27314e-05
1.21455e-05
1.14509e-05
1.66084e-05
1.60502e-05
1.55232e-05
1.49509e-05
1.4352e-05
1.37693e-05
1.3148e-05
1.24415e-05
1.76923e-05
1.72727e-05
1.69122e-05
1.63822e-05
1.57191e-05
1.49849e-05
1.41716e-05
1.32949e-05
1.86893e-05
1.83275e-05
1.77579e-05
1.70091e-05
1.6173e-05
1.52934e-05
1.43836e-05
1.34518e-05
6.20876e-05
5.98154e-05
5.86783e-05
5.73142e-05
5.47085e-05
5.0545e-05
4.49585e-05
3.82654e-05
6.46236e-05
6.27227e-05
6.01583e-05
5.66033e-05
5.24033e-05
4.75152e-05
4.19081e-05
3.56417e-05
6.07472e-05
5.79466e-05
5.48837e-05
5.14767e-05
4.771e-05
4.35087e-05
3.87562e-05
3.35378e-05
5.76709e-05
5.44143e-05
5.10781e-05
4.76626e-05
4.41184e-05
4.03756e-05
3.59506e-05
3.13727e-05
6.2546e-05
5.98968e-05
5.69118e-05
5.35726e-05
4.97537e-05
4.53539e-05
4.02913e-05
3.46575e-05
6.46157e-05
6.25637e-05
5.97365e-05
5.6446e-05
5.25154e-05
4.77086e-05
4.20036e-05
3.56096e-05
6.28746e-05
6.03913e-05
5.88431e-05
5.71467e-05
5.43121e-05
5.00188e-05
4.43842e-05
3.77133e-05
6.75324e-05
6.33761e-05
6.26652e-05
6.19715e-05
5.97332e-05
5.54873e-05
4.946e-05
4.21663e-05
7.76244e-05
7.23806e-05
6.79689e-05
6.46944e-05
6.05972e-05
5.5196e-05
4.86707e-05
4.13814e-05
8.24167e-05
7.66174e-05
7.19142e-05
6.71286e-05
6.17452e-05
5.57099e-05
4.9098e-05
4.19973e-05
8.07329e-05
7.46259e-05
6.95185e-05
6.42607e-05
5.85908e-05
5.25747e-05
4.62909e-05
3.98998e-05
8.08147e-05
7.51609e-05
7.07454e-05
6.62373e-05
6.09563e-05
5.48542e-05
4.8087e-05
4.08433e-05
7.41546e-05
6.89964e-05
6.53314e-05
6.27722e-05
5.90803e-05
5.38262e-05
4.72859e-05
3.99358e-05
6.81381e-05
6.36207e-05
6.32171e-05
6.2663e-05
6.03339e-05
5.58391e-05
4.94911e-05
4.18888e-05
8.52719e-05
7.20785e-05
6.46967e-05
6.18201e-05
5.94078e-05
5.56262e-05
5.02512e-05
4.3707e-05
0.000100066
8.6191e-05
7.60145e-05
6.98017e-05
6.45187e-05
5.85975e-05
5.1923e-05
4.48075e-05
0.000107591
9.49514e-05
8.57787e-05
7.93092e-05
7.28412e-05
6.55012e-05
5.74747e-05
4.91347e-05
0.000104919
9.16834e-05
8.17886e-05
7.43599e-05
6.70986e-05
5.94362e-05
5.16305e-05
4.39738e-05
0.000103047
9.0302e-05
8.10128e-05
7.4391e-05
6.7848e-05
6.0575e-05
5.27809e-05
4.48455e-05
9.40197e-05
8.0397e-05
7.07359e-05
6.53521e-05
6.08054e-05
5.53706e-05
4.89563e-05
4.20276e-05
8.39675e-05
7.12233e-05
6.44245e-05
6.21771e-05
6.01019e-05
5.62655e-05
5.05295e-05
4.35061e-05
5.55294e-05
5.9738e-05
5.83124e-05
5.76937e-05
5.65646e-05
5.38149e-05
4.94256e-05
4.39224e-05
6.77003e-05
7.30061e-05
6.94878e-05
6.57612e-05
6.1615e-05
5.65456e-05
5.0759e-05
4.46465e-05
8.39963e-05
9.12452e-05
8.68274e-05
8.12196e-05
7.48897e-05
6.76729e-05
5.9918e-05
5.21069e-05
8.85439e-05
9.56683e-05
8.99361e-05
8.27591e-05
7.46619e-05
6.56947e-05
5.63304e-05
4.71505e-05
8.08546e-05
8.77432e-05
8.29751e-05
7.71755e-05
7.08358e-05
6.36616e-05
5.59737e-05
4.82824e-05
6.61467e-05
7.13887e-05
6.75019e-05
6.34925e-05
5.92219e-05
5.41112e-05
4.827e-05
4.21806e-05
5.60381e-05
6.06001e-05
5.91322e-05
5.84593e-05
5.72752e-05
5.43168e-05
4.95385e-05
4.36028e-05
1.84949e-05
1.81862e-05
1.76201e-05
1.68623e-05
1.60099e-05
1.51229e-05
1.42144e-05
1.32792e-05
1.67748e-05
1.65873e-05
1.65046e-05
1.6174e-05
1.55175e-05
1.47234e-05
1.38719e-05
1.2987e-05
1.47882e-05
1.44278e-05
1.41177e-05
1.3738e-05
1.32756e-05
1.2739e-05
1.21568e-05
1.15227e-05
1.49279e-05
1.43793e-05
1.38182e-05
1.32252e-05
1.26724e-05
1.20799e-05
1.14599e-05
1.08156e-05
1.60159e-05
1.55535e-05
1.5126e-05
1.4657e-05
1.41656e-05
1.35234e-05
1.27676e-05
1.19368e-05
1.7268e-05
1.69993e-05
1.67626e-05
1.62381e-05
1.54937e-05
1.46384e-05
1.37497e-05
1.2833e-05
1.79481e-05
1.76045e-05
1.70839e-05
1.63871e-05
1.55834e-05
1.47267e-05
1.38335e-05
1.29016e-05
6.35048e-05
6.07628e-05
5.88895e-05
5.68854e-05
5.38587e-05
4.95093e-05
4.39407e-05
3.7413e-05
6.40244e-05
6.24171e-05
5.98497e-05
5.65452e-05
5.25888e-05
4.78432e-05
4.2381e-05
3.62976e-05
5.57345e-05
5.38042e-05
5.1509e-05
4.89363e-05
4.59586e-05
4.2472e-05
3.81604e-05
3.29886e-05
5.4231e-05
5.04852e-05
4.62659e-05
4.18013e-05
3.71718e-05
3.26497e-05
2.83338e-05
2.43446e-05
6.15197e-05
5.8593e-05
5.5125e-05
5.12282e-05
4.65539e-05
4.13582e-05
3.58012e-05
3.00136e-05
6.57791e-05
6.26827e-05
5.90257e-05
5.52226e-05
5.08326e-05
4.57074e-05
3.99319e-05
3.36541e-05
6.73256e-05
6.39787e-05
6.08889e-05
5.76162e-05
5.34713e-05
4.82647e-05
4.21308e-05
3.53302e-05
6.96574e-05
6.50763e-05
6.45149e-05
6.36679e-05
6.09942e-05
5.6232e-05
4.97471e-05
4.21098e-05
7.41877e-05
6.87774e-05
6.67457e-05
6.45529e-05
6.06799e-05
5.51818e-05
4.85762e-05
4.13187e-05
7.42172e-05
7.06195e-05
6.75262e-05
6.35305e-05
5.85741e-05
5.24462e-05
4.57679e-05
3.90844e-05
6.95243e-05
6.40103e-05
5.95044e-05
5.44607e-05
4.87636e-05
4.27283e-05
3.66565e-05
3.07862e-05
7.33267e-05
6.80518e-05
6.32986e-05
5.86315e-05
5.31142e-05
4.67457e-05
4.00304e-05
3.33559e-05
7.38205e-05
6.77849e-05
6.49891e-05
6.218e-05
5.78038e-05
5.19485e-05
4.51277e-05
3.78323e-05
7.42026e-05
6.83515e-05
6.67578e-05
6.48074e-05
6.09908e-05
5.52351e-05
4.79992e-05
3.98854e-05
8.47515e-05
7.20804e-05
6.56217e-05
6.37698e-05
6.18153e-05
5.7834e-05
5.18042e-05
4.44104e-05
9.0775e-05
7.70088e-05
6.87383e-05
6.50746e-05
6.15418e-05
5.63662e-05
4.9735e-05
4.2355e-05
9.66871e-05
8.26644e-05
7.2489e-05
6.61983e-05
6.03868e-05
5.35917e-05
4.62114e-05
3.88991e-05
9.93778e-05
8.58576e-05
7.54543e-05
6.81882e-05
6.14779e-05
5.46922e-05
4.79968e-05
4.13077e-05
9.51369e-05
8.05534e-05
6.97245e-05
6.28693e-05
5.66682e-05
4.99491e-05
4.31254e-05
3.66344e-05
9.02857e-05
7.6141e-05
6.71972e-05
6.27729e-05
5.85907e-05
5.30759e-05
4.6463e-05
3.9391e-05
8.74423e-05
7.43877e-05
6.71973e-05
6.44924e-05
6.16148e-05
5.68215e-05
5.01944e-05
4.24121e-05
5.45662e-05
5.9683e-05
5.96917e-05
6.04272e-05
6.00556e-05
5.72809e-05
5.2195e-05
4.55983e-05
5.63863e-05
6.14102e-05
6.0941e-05
6.08683e-05
5.94752e-05
5.57533e-05
5.00589e-05
4.3281e-05
5.9354e-05
6.41755e-05
6.26572e-05
6.10343e-05
5.78474e-05
5.25778e-05
4.60556e-05
3.92521e-05
6.17628e-05
6.61958e-05
6.32348e-05
5.94198e-05
5.42679e-05
4.85561e-05
4.35158e-05
3.96457e-05
5.84237e-05
6.266e-05
6.04224e-05
5.79517e-05
5.40332e-05
4.85265e-05
4.24151e-05
3.65696e-05
5.66215e-05
6.12629e-05
6.00983e-05
5.91727e-05
5.6991e-05
5.27757e-05
4.69765e-05
4.0449e-05
5.64188e-05
6.16074e-05
6.11975e-05
6.1194e-05
5.99755e-05
5.64755e-05
5.08562e-05
4.38929e-05
1.77981e-05
1.7467e-05
1.69779e-05
1.63138e-05
1.55489e-05
1.4734e-05
1.38882e-05
1.3006e-05
1.71267e-05
1.6576e-05
1.59929e-05
1.53602e-05
1.47539e-05
1.40814e-05
1.33547e-05
1.25795e-05
1.63212e-05
1.57041e-05
1.50973e-05
1.44915e-05
1.38866e-05
1.32554e-05
1.25904e-05
1.18909e-05
1.59078e-05
1.51778e-05
1.44961e-05
1.38376e-05
1.31785e-05
1.25256e-05
1.18479e-05
1.11707e-05
1.64821e-05
1.59004e-05
1.53272e-05
1.47556e-05
1.41409e-05
1.35054e-05
1.28401e-05
1.21406e-05
1.79166e-05
1.73998e-05
1.68334e-05
1.62758e-05
1.55901e-05
1.48493e-05
1.40866e-05
1.32833e-05
1.973e-05
1.9253e-05
1.85165e-05
1.76178e-05
1.66597e-05
1.5692e-05
1.47268e-05
1.375e-05
6.37357e-05
6.06588e-05
5.79954e-05
5.52218e-05
5.15491e-05
4.67454e-05
4.09421e-05
3.44208e-05
6.20609e-05
5.90359e-05
5.58553e-05
5.23575e-05
4.80339e-05
4.30973e-05
3.76783e-05
3.18392e-05
5.98987e-05
5.62676e-05
5.24367e-05
4.84138e-05
4.41576e-05
3.96557e-05
3.4856e-05
2.97361e-05
5.72905e-05
5.35784e-05
4.98109e-05
4.58924e-05
4.18483e-05
3.77016e-05
3.34174e-05
2.89699e-05
6.03804e-05
5.73963e-05
5.41618e-05
5.052e-05
4.65907e-05
4.2351e-05
3.77935e-05
3.28745e-05
6.58816e-05
6.33636e-05
6.03982e-05
5.67232e-05
5.26577e-05
4.80812e-05
4.282e-05
3.68369e-05
6.25097e-05
6.01297e-05