/*--------------------------------*- C++ -*----------------------------------*\
| =========                 |                                                 |
| \\      /  F ield         | OpenFOAM: The Open Source CFD Toolbox           |
|  \\    /   O peration     | Version:  plus.master.MPPICInterFoam            |
|   \\  /    A nd           | Web:      www.OpenFOAM.com                      |
|    \\/     M anipulation  |                                                 |
\*---------------------------------------------------------------------------*/
FoamFile
{
    version     2.0;
    format      ascii;
    class       volVectorField;
    location    "8.8";
    object      U;
}
// * * * * * * * * * * * * * * * * * * * * * * * * * * * * * * * * * * * * * //

dimensions      [0 1 -1 0 0 0 0];

internalField   nonuniform List<vector> 
11821
(
(0.0428285 0.0657731 0.000185867)
(0.0301145 0.0687145 0.00882684)
(0.0084788 0.0780531 0.0243157)
(-0.0309095 0.0774481 0.0265102)
(-0.0582266 0.0709703 0.0112187)
(-0.0684665 0.061831 -6.89079e-05)
(-0.075818 0.0534874 -0.0045467)
(0.0513005 0.0612901 0.00920207)
(0.0597515 0.0882917 0.0697638)
(0.0501935 0.115645 0.111435)
(-0.0447266 0.113843 0.135581)
(-0.106508 0.101249 0.0926428)
(-0.0918047 0.0658067 0.047029)
(-0.0782604 0.042361 -0.0011987)
(0.0663712 0.0474645 0.0247936)
(0.103486 0.0920213 0.124786)
(0.147661 0.176056 0.382354)
(-0.038717 0.198551 0.542873)
(-0.182102 0.15385 0.310416)
(-0.111654 0.0684318 0.0770423)
(-0.0768084 0.029957 0.00843042)
(0.0769543 0.0109675 0.0376685)
(0.117126 0.0140563 0.152035)
(0.202036 0.0144141 0.552383)
(-0.0152647 0.0171557 1.77619)
(-0.208692 0.0179463 0.477955)
(-0.10748 0.0145241 0.107509)
(-0.0745351 0.00995943 0.0181458)
(0.0746196 -0.0324163 0.0269833)
(0.109922 -0.0743737 0.123894)
(0.159005 -0.160547 0.393983)
(-0.0252764 -0.19475 0.607843)
(-0.183711 -0.137941 0.349455)
(-0.114427 -0.0509338 0.0837612)
(-0.0820816 -0.0159037 0.0118848)
(0.0604591 -0.0509548 0.0106773)
(0.0706913 -0.0782218 0.0759441)
(0.0643536 -0.110889 0.125255)
(-0.0365609 -0.115896 0.160812)
(-0.112848 -0.0973241 0.118693)
(-0.0985545 -0.0560212 0.0503056)
(-0.0776443 -0.0318539 0.000469789)
(0.0518356 -0.0602071 0.00101409)
(0.0399866 -0.0657688 0.0106232)
(0.0185735 -0.0752553 0.0282794)
(-0.029524 -0.0768812 0.0346784)
(-0.063682 -0.0682147 0.017098)
(-0.0773597 -0.0514836 0.00251556)
(-0.0826332 -0.0427142 -0.00390392)
(0.0296796 0.0533744 0.026359)
(0.0136697 0.0561667 0.0551143)
(-0.00834235 0.0453765 0.0923139)
(-0.0307535 0.0382505 0.0938668)
(-0.0467321 0.0434384 0.0483512)
(-0.0554732 0.0429218 0.0240271)
(-0.0587733 0.035499 0.0178949)
(0.0406494 0.0505761 0.0485208)
(0.0360598 0.0704211 0.180342)
(0.011658 0.0546194 0.293398)
(-0.0362481 0.0449197 0.359032)
(-0.0693356 0.0446851 0.22341)
(-0.0700618 0.040923 0.10689)
(-0.0642213 0.0251726 0.0205087)
(0.0398007 0.0358635 0.0933048)
(0.054073 0.0631536 0.33097)
(0.0715418 0.0925446 0.847339)
(-0.044564 0.0791967 1.36754)
(-0.109589 0.083894 0.687075)
(-0.048405 0.032533 0.177253)
(-0.0590223 0.0139258 0.0346292)
(0.0374738 0.00877426 0.126766)
(0.0499946 0.00941945 0.391178)
(0.0751432 0.0102189 1.31538)
(-0.0565439 0.00726385 3.35)
(-0.112509 0.0115554 1.0617)
(-0.0383746 0.00969126 0.242983)
(-0.0532517 0.00809372 0.053251)
(0.0411496 -0.0211004 0.102734)
(0.0540968 -0.0464915 0.330731)
(0.0731027 -0.0847604 0.873724)
(-0.0358003 -0.0741544 1.4618)
(-0.102876 -0.0731608 0.785668)
(-0.0483795 -0.0164801 0.20371)
(-0.0571743 0.00143919 0.0458548)
(0.0473219 -0.0384889 0.0534733)
(0.0506665 -0.063119 0.19729)
(0.0261584 -0.0556986 0.335187)
(-0.0313679 -0.0489089 0.429427)
(-0.0752138 -0.0455091 0.290188)
(-0.0724967 -0.0265331 0.125868)
(-0.0667235 -0.00975987 0.0259143)
(0.0385624 -0.0462512 0.0263317)
(0.0254279 -0.0520411 0.0580731)
(0.00188261 -0.0403769 0.112567)
(-0.0281034 -0.0322861 0.127456)
(-0.0519182 -0.0347072 0.0724637)
(-0.0624599 -0.032107 0.0308305)
(-0.063861 -0.0228727 0.0173352)
(0.0181921 0.0415811 0.0688769)
(0.00134103 0.0362484 0.110325)
(-0.0143439 0.0214045 0.163361)
(-0.0244224 0.010309 0.180504)
(-0.0313133 0.0259386 0.103475)
(-0.0412608 0.0330855 0.0660302)
(-0.0490004 0.0337599 0.0565896)
(0.0191264 0.0354893 0.105784)
(0.00589391 0.0335403 0.227988)
(-0.00997209 0.0100518 0.380189)
(-0.0293751 -0.00159308 0.482243)
(-0.0356068 0.00807204 0.266436)
(-0.0430726 0.022508 0.114556)
(-0.0516131 0.0217231 0.061993)
(0.0141807 0.0242913 0.176896)
(0.00561421 0.0293243 0.432547)
(0.0177175 0.0401897 1.33532)
(-0.045735 0.00441539 1.86692)
(-0.0521924 0.0294867 0.856725)
(-0.0173785 0.0186509 0.207362)
(-0.0471895 0.0107162 0.0778058)
(0.00730316 0.00718209 0.235244)
(0.0016474 0.00659551 0.575327)
(-0.00625641 0.00860173 1.99553)
(-0.091351 0.00026375 3.93992)
(-0.073911 0.0073282 1.43542)
(-0.00927751 0.00786053 0.290042)
(-0.0445997 0.0063026 0.0973369)
(0.0149156 -0.0110124 0.190359)
(0.00571156 -0.0177984 0.443492)
(0.0145778 -0.0319831 1.39182)
(-0.0458634 0.000883213 2.00884)
(-0.0525689 -0.0240164 1.05597)
(-0.0140118 -0.00395409 0.246385)
(-0.0446109 0.00394498 0.0901639)
(0.0254935 -0.0241532 0.115238)
(0.0154373 -0.0257283 0.253102)
(-0.000552085 -0.00838358 0.43648)
(-0.0259456 0.00197801 0.564707)
(-0.0384209 -0.00274909 0.345284)
(-0.0436236 -0.00711558 0.147718)
(-0.0538387 -0.00449302 0.0681939)
(0.0263012 -0.0335496 0.0713897)
(0.0111916 -0.0301832 0.122056)
(-0.00705554 -0.0146586 0.197202)
(-0.0228926 -0.00204792 0.227819)
(-0.0354569 -0.0126822 0.142976)
(-0.0465257 -0.0179069 0.0772305)
(-0.054099 -0.0182835 0.0579809)
(0.0210913 0.0422462 0.156456)
(0.000907497 0.0271928 0.193179)
(-0.0146123 0.00420753 0.248612)
(-0.0154488 -0.00816015 0.266287)
(-0.0185814 0.0191904 0.191644)
(-0.0354164 0.0370874 0.158124)
(-0.0512359 0.0460631 0.146019)
(0.00917755 0.0281786 0.193793)
(-0.0109832 0.0119077 0.300197)
(-0.0223339 -0.0148025 0.437288)
(-0.0198322 -0.0303876 0.515179)
(-0.013831 -0.00684868 0.322294)
(-0.0306263 0.0179797 0.18994)
(-0.0502885 0.0290227 0.153369)
(-0.00729725 0.0146878 0.273469)
(-0.0244475 0.00590253 0.489355)
(-0.0356178 -0.00550034 1.24729)
(-0.0300628 -0.0429906 1.80145)
(-0.00599047 -0.0044519 0.66548)
(-0.00779606 0.0107686 0.267408)
(-0.0435647 0.0146033 0.166384)
(-0.0209452 0.00687461 0.344913)
(-0.0347683 0.00608474 0.657561)
(-0.0765753 0.0121745 2.11941)
(-0.11934 0.00724701 3.54861)
(-0.0334015 0.00683289 1.07696)
(-0.00182858 0.00677868 0.331194)
(-0.0415345 0.00590005 0.180252)
(-0.00733325 -0.00140551 0.290617)
(-0.0245002 0.00462031 0.512619)
(-0.0356839 0.0210692 1.36338)
(-0.0441057 0.0524612 1.88731)
(-0.0114581 0.0146656 0.793338)
(-0.00422589 0.00375885 0.298314)
(-0.0422138 0.000283115 0.174183)
(0.0135643 -0.0160608 0.206254)
(-0.00511962 -0.00224737 0.329873)
(-0.015937 0.0210089 0.496493)
(-0.0184579 0.0352472 0.605555)
(-0.0164779 0.018755 0.385979)
(-0.0313075 0.000821899 0.217772)
(-0.0536532 -0.0115674 0.15687)
(0.0272401 -0.0317544 0.160015)
(0.00747332 -0.0169496 0.209616)
(-0.0107705 0.00696645 0.289637)
(-0.0165996 0.0211525 0.319584)
(-0.0231025 0.000785805 0.229698)
(-0.0406686 -0.0173715 0.167347)
(-0.0567061 -0.0292481 0.147131)
(0.0333553 0.0461214 0.31281)
(0.0110227 0.033364 0.338473)
(-0.0071857 0.0110629 0.378972)
(-0.00880898 0.000332183 0.388019)
(-0.0151129 0.0291763 0.337757)
(-0.0350295 0.0477531 0.312634)
(-0.0534891 0.0568528 0.300673)
(0.0175517 0.0294797 0.341813)
(-0.00741428 0.0127686 0.422107)
(-0.0219026 -0.0136281 0.52791)
(-0.0145768 -0.0290497 0.579995)
(-0.0108306 0.00146282 0.426089)
(-0.0326378 0.0264923 0.333653)
(-0.05406 0.0375431 0.307955)
(-0.00311511 0.0130452 0.40621)
(-0.0258005 0.000817792 0.5805)
(-0.0434901 -0.0161611 1.02934)
(-0.00927637 -0.0375145 1.55806)
(0.000466966 -0.00429962 0.636433)
(-0.0179467 0.0137494 0.387919)
(-0.0503078 0.0203518 0.317475)
(-0.0213309 0.00626937 0.47255)
(-0.0405587 0.00540345 0.740332)
(-0.0816195 0.021622 2.10729)
(-0.0783068 0.0583665 2.76233)
(-0.0178676 0.0078386 0.868942)
(-0.0146406 0.00704334 0.437255)
(-0.049865 0.00628872 0.326687)
(-0.00462562 -0.000902924 0.422575)
(-0.0260093 0.00947605 0.608232)
(-0.0384381 0.031594 1.16235)
(-0.00499521 0.0722038 1.77072)
(-0.00328151 0.0168051 0.724611)
(-0.015763 0.00180442 0.411236)
(-0.0504585 -0.00676152 0.322154)
(0.0193367 -0.0186519 0.353191)
(-0.00382929 -0.00159346 0.450435)
(-0.017841 0.0229042 0.586656)
(-0.0133623 0.0383554 0.664721)
(-0.0127535 0.0143823 0.480131)
(-0.0346948 -0.00756484 0.351941)
(-0.0571619 -0.0231773 0.310625)
(0.0364002 -0.0376742 0.316297)
(0.0146144 -0.0211602 0.353317)
(-0.00597425 0.00427733 0.415798)
(-0.0112817 0.0189846 0.439233)
(-0.0185327 -0.00793224 0.364352)
(-0.0385893 -0.0296102 0.320272)
(-0.0558842 -0.0442885 0.302636)
(-0.0722274 0.0383793 -0.00372008)
(-0.0661548 0.0292124 -0.00245328)
(-0.0636866 0.0301112 -0.0023451)
(-0.0586409 0.029216 -0.00250398)
(-0.0548185 0.0280794 -0.00283073)
(-0.0518068 0.0271853 -0.00334192)
(-0.0496986 0.0267744 -0.0040115)
(-0.0473294 0.0259595 -0.00471069)
(-0.0599061 0.0260057 -0.000998895)
(-0.0783782 0.0219434 -0.00216668)
(-0.0677506 0.0182564 -0.0019927)
(-0.0626796 0.0199648 -0.00202959)
(-0.0591957 0.019673 -0.0021794)
(-0.0559162 0.0189692 -0.00248777)
(-0.0535675 0.0185767 -0.0029858)
(-0.051061 0.0180278 -0.00354958)
(-0.0793127 0.0229978 -0.00301129)
(-0.0601533 0.0121779 -0.00116333)
(-0.075276 0.0129224 -0.00172951)
(-0.0671714 0.0131647 -0.00157524)
(-0.0610008 0.0124007 -0.00156457)
(-0.0579968 0.0120007 -0.00172218)
(-0.0553483 0.0118399 -0.00206541)
(-0.0522867 0.011572 -0.00259119)
(-0.0756093 0.00489197 -0.000757552)
(-0.0632479 0.00368879 -0.00156486)
(-0.0716551 0.00523945 -0.00191483)
(-0.0661596 0.00467525 -0.00168114)
(-0.061161 0.00417662 -0.00145738)
(-0.0582364 0.00385053 -0.00144423)
(-0.0563758 0.00360615 -0.00168702)
(-0.055044 0.00335422 -0.00204911)
(-0.0675268 -0.00861896 -0.000148506)
(-0.0714123 -0.00369601 -0.00143564)
(-0.0735611 -0.00315285 -0.0020171)
(-0.0671202 -0.00352713 -0.00173258)
(-0.0623876 -0.00312801 -0.00170534)
(-0.059243 -0.00274943 -0.00189113)
(-0.0567515 -0.00264797 -0.00228681)
(-0.0541173 -0.00255478 -0.0028559)
(-0.0732815 -0.0173569 -0.00262319)
(-0.0744146 -0.00788125 -0.00194593)
(-0.0741058 -0.00943442 -0.00209138)
(-0.0662672 -0.0101287 -0.00202923)
(-0.0620292 -0.0101049 -0.00206096)
(-0.0590389 -0.0100572 -0.0023435)
(-0.0563313 -0.0101699 -0.00281464)
(-0.0537444 -0.0101687 -0.00336606)
(-0.0709101 -0.0271588 -0.00271185)
(-0.0731345 -0.0208547 -0.00238245)
(-0.0649871 -0.0205787 -0.00204429)
(-0.0610165 -0.0204552 -0.00208863)
(-0.0577541 -0.0192654 -0.00235368)
(-0.0551541 -0.0182818 -0.00286217)
(-0.0531469 -0.0175198 -0.0035705)
(-0.0512773 -0.016674 -0.00438619)
(-0.0581985 0.0318938 0.017702)
(-0.0568167 0.0314726 0.0178631)
(-0.0556205 0.0316232 0.0170859)
(-0.0544177 0.0316814 0.015444)
(-0.0531158 0.0314985 0.0133283)
(-0.0516437 0.0310718 0.0108797)
(-0.0499747 0.0304178 0.00822763)
(-0.0480737 0.0295339 0.00546033)
(-0.0621657 0.0228346 0.0158103)
(-0.0607105 0.0225894 0.018079)
(-0.0595622 0.0228587 0.0180229)
(-0.0585737 0.0231223 0.0167881)
(-0.0574307 0.0230863 0.014869)
(-0.05598 0.0227678 0.0125055)
(-0.0542077 0.0222229 0.00981812)
(-0.052095 0.0214737 0.00694108)
(-0.0616956 0.0125713 0.0125237)
(-0.0611298 0.0133638 0.0145)
(-0.0610148 0.0137742 0.017862)
(-0.0605914 0.0140054 0.0176292)
(-0.0598187 0.0140018 0.0159755)
(-0.058582 0.0137987 0.0136486)
(-0.0568535 0.013436 0.010882)
(-0.0546733 0.0129413 0.00786046)
(-0.0602483 0.00627883 0.0139594)
(-0.0609823 0.00590563 0.014693)
(-0.061439 0.00567849 0.0175042)
(-0.0614712 0.00540072 0.0173085)
(-0.0610577 0.00511275 0.0156731)
(-0.0600346 0.00483498 0.0132184)
(-0.0584208 0.00456984 0.010212)
(-0.0562761 0.0043201 0.00692107)
(-0.0623827 0.00085928 0.0127233)
(-0.0624576 -0.00116769 0.0147417)
(-0.0623732 -0.00224676 0.016842)
(-0.0621216 -0.00302241 0.0166119)
(-0.0614903 -0.00355388 0.0149029)
(-0.0603254 -0.00387011 0.0124573)
(-0.0586381 -0.00400902 0.00957925)
(-0.0564747 -0.00399242 0.0064361)
(-0.0649491 -0.0088611 0.0149478)
(-0.0635302 -0.00980386 0.0167218)
(-0.0626196 -0.0107872 0.0170244)
(-0.0617882 -0.0115917 0.0157944)
(-0.0607899 -0.0120957 0.0138372)
(-0.0594512 -0.0123011 0.0113276)
(-0.0577439 -0.0122469 0.00844471)
(-0.0556689 -0.0119595 0.00535424)
(-0.06239 -0.0187422 0.0169517)
(-0.0611219 -0.0187482 0.0177542)
(-0.0599909 -0.0192304 0.0170094)
(-0.058994 -0.0196171 0.0154087)
(-0.0579212 -0.0197674 0.013209)
(-0.0566688 -0.0196885 0.0105967)
(-0.0551882 -0.0193966 0.00772408)
(-0.0534482 -0.0189031 0.00468947)
(-0.0539703 0.0354888 0.0514568)
(-0.0562575 0.0388851 0.0462431)
(-0.0581974 0.0417796 0.0395127)
(-0.0596485 0.0439731 0.0316721)
(-0.0606013 0.045513 0.0231967)
(-0.0610393 0.0464538 0.014533)
(-0.0608994 0.0468029 0.00615546)
(-0.0600443 0.0464967 -0.00138589)
(-0.0563147 0.0241239 0.0543346)
(-0.0601993 0.0269496 0.0495967)
(-0.0634587 0.0294174 0.0434397)
(-0.066092 0.0312708 0.035785)
(-0.0679972 0.0325167 0.0271043)
(-0.0691421 0.0332198 0.0179332)
(-0.0694408 0.0334078 0.00886379)
(-0.0687162 0.0330504 0.000595342)
(-0.0546963 0.0133707 0.0567067)
(-0.0606489 0.0156608 0.0514944)
(-0.0654473 0.0171997 0.0459148)
(-0.0693363 0.0182441 0.0385603)
(-0.0721625 0.0188671 0.0298187)
(-0.0739262 0.0191419 0.0203114)
(-0.0745775 0.019105 0.0107366)
(-0.0739462 0.0187504 0.00191311)
(-0.0536259 0.00572028 0.0582957)
(-0.0608755 0.00567751 0.0518455)
(-0.0663927 0.00548779 0.0463092)
(-0.0708563 0.00518531 0.039063)
(-0.0740959 0.00481556 0.0303149)
(-0.0761105 0.00442511 0.0206969)
(-0.076889 0.00404001 0.0109567)
(-0.0762847 0.0036723 0.00196415)
(-0.0550533 -0.000442828 0.0570778)
(-0.0620012 -0.00364824 0.0505348)
(-0.0671676 -0.0058679 0.0447158)
(-0.0712578 -0.00766673 0.0373327)
(-0.0741549 -0.00910295 0.028567)
(-0.0758922 -0.0101885 0.0190308)
(-0.0764694 -0.010926 0.00944201)
(-0.0757566 -0.0112963 0.000629056)
(-0.0591762 -0.0098928 0.0537691)
(-0.0637672 -0.0141323 0.0481406)
(-0.0673883 -0.0175718 0.0418231)
(-0.0702372 -0.0203207 0.0340824)
(-0.0721986 -0.0224117 0.0252945)
(-0.073286 -0.0238962 0.0160085)
(-0.0734681 -0.0247948 0.00684907)
(-0.0726118 -0.025078 -0.00146208)
(-0.0590266 -0.0210292 0.0513125)
(-0.0618913 -0.0252947 0.0459793)
(-0.06418 -0.028996 0.0391964)
(-0.0659208 -0.0319463 0.0311935)
(-0.0670711 -0.034184 0.0224572)
(-0.0676185 -0.0357582 0.0134902)
(-0.0675158 -0.0366726 0.00482069)
(-0.0666522 -0.0368649 -0.00296072)
(-0.0643903 0.0525322 0.137487)
(-0.0720717 0.0610648 0.129239)
(-0.0790326 0.0681308 0.119514)
(-0.0845869 0.0735012 0.108577)
(-0.0883521 0.0770424 0.0965895)
(-0.089869 0.0785344 0.0835038)
(-0.0886166 0.0776642 0.0688995)
(-0.0841329 0.0741374 0.0519356)
(-0.0655597 0.0349226 0.142718)
(-0.0771676 0.041849 0.134354)
(-0.0872538 0.047608 0.124792)
(-0.0956278 0.0519956 0.113787)
(-0.101749 0.0549101 0.101454)
(-0.104975 0.0561853 0.0877792)
(-0.104535 0.0555616 0.072315)
(-0.0997568 0.0527897 0.0540322)
(-0.0636073 0.0191508 0.146723)
(-0.0783712 0.0232791 0.137693)
(-0.0911332 0.0265079 0.128292)
(-0.101824 0.0288701 0.117307)
(-0.109793 0.0303605 0.104747)
(-0.114318 0.0309163 0.090632)
(-0.114489 0.030405 0.0745123)
(-0.109496 0.028693 0.0552436)
(-0.0632423 0.00578925 0.148567)
(-0.0792392 0.00573345 0.138418)
(-0.0929755 0.00549799 0.128921)
(-0.104528 0.00510779 0.117859)
(-0.113139 0.0046398 0.105122)
(-0.118071 0.00414916 0.0907446)
(-0.118385 0.00366547 0.0742854)
(-0.113238 0.00320437 0.0545697)
(-0.0647222 -0.00632246 0.14666)
(-0.0803161 -0.0113843 0.136364)
(-0.0933582 -0.0155036 0.12649)
(-0.104106 -0.0188852 0.115124)
(-0.111973 -0.021454 0.102163)
(-0.116316 -0.0230225 0.0876453)
(-0.116262 -0.0234119 0.0711426)
(-0.111037 -0.0224888 0.0515277)
(-0.0698004 -0.0208409 0.141404)
(-0.0819477 -0.029457 0.131719)
(-0.0921115 -0.0365959 0.121294)
(-0.100347 -0.0422189 0.109446)
(-0.106197 -0.0462508 0.0962456)
(-0.109084 -0.0485372 0.0817042)
(-0.108245 -0.048798 0.0654149)
(-0.103038 -0.0468005 0.0463787)
(-0.0701003 -0.0386896 0.135888)
(-0.0781607 -0.0490884 0.126492)
(-0.0852183 -0.0577368 0.115592)
(-0.0907479 -0.0644094 0.103393)
(-0.0944 -0.0689988 0.0901199)
(-0.0956882 -0.0713769 0.0757765)
(-0.094076 -0.0712764 0.0599868)
(-0.0891238 -0.0684661 0.0419445)
(-0.0686404 0.0633995 0.289314)
(-0.0778863 0.0736379 0.274926)
(-0.0876576 0.0828507 0.253623)
(-0.0971143 0.0909968 0.223661)
(-0.106199 0.0982899 0.18355)
(-0.115793 0.105611 0.132741)
(-0.127103 0.113947 0.0725892)
(-0.136804 0.120451 0.00757584)
(-0.0717748 0.0428114 0.296147)
(-0.0851959 0.0506766 0.283305)
(-0.098137 0.0576378 0.264429)
(-0.110562 0.0636555 0.23684)
(-0.12233 0.0688556 0.198235)
(-0.134503 0.0738465 0.147198)
(-0.148882 0.0795175 0.0843875)
(-0.161643 0.0840779 0.014233)
(-0.0716452 0.0234229 0.300549)
(-0.0880906 0.0274338 0.288206)
(-0.103637 0.0308739 0.270992)
(-0.118289 0.0337429 0.245208)
(-0.131919 0.036138 0.20787)
(-0.145765 0.0383987 0.156887)
(-0.162043 0.041052 0.0923714)
(-0.176696 0.0432252 0.0186996)
(-0.0722835 0.00512867 0.302531)
(-0.0895608 0.00425966 0.289696)
(-0.105793 0.00321713 0.27293)
(-0.121009 0.00206133 0.247757)
(-0.135064 0.000991916 0.210868)
(-0.149282 0.000145459 0.159894)
(-0.166048 -0.00040225 0.0947368)
(-0.181258 -0.000636096 0.0197546)
(-0.0726911 -0.0130891 0.300768)
(-0.0891097 -0.0195328 0.287502)
(-0.104229 -0.0253383 0.269919)
(-0.118277 -0.0304623 0.243903)
(-0.131252 -0.0348187 0.20637)
(-0.144505 -0.0385758 0.155186)
(-0.160346 -0.0421704 0.0904419)
(-0.174811 -0.0447298 0.0165571)
(-0.0744577 -0.0324084 0.295674)
(-0.0871472 -0.0432093 0.281898)
(-0.0989672 -0.0529803 0.26249)
(-0.110053 -0.0615547 0.234469)
(-0.120438 -0.068879 0.195455)
(-0.131355 -0.0754122 0.143989)
(-0.144782 -0.0819661 0.0806947)
(-0.157089 -0.0867845 0.0100816)
(-0.0701318 -0.0548728 0.289069)
(-0.0781958 -0.0682213 0.274212)
(-0.0863722 -0.0803909 0.252621)
(-0.093999 -0.0911455 0.222363)
(-0.101217 -0.100569 0.181843)
(-0.109092 -0.109407 0.130439)
(-0.119052 -0.118568 0.0694847)
(-0.128032 -0.125248 0.00361127)
(0.0474023 -0.0467684 -0.000790712)
(0.042303 -0.0420411 -0.000991517)
(0.0385286 -0.0397031 -0.00130284)
(0.0359418 -0.0384366 -0.00185782)
(0.0339631 -0.0381261 -0.00261363)
(0.0320841 -0.0380494 -0.00352503)
(0.0302865 -0.0379195 -0.00453059)
(0.028637 -0.0375487 -0.00553643)
(0.0540972 -0.0333995 0.00137694)
(0.0501121 -0.0287494 0.000228104)
(0.0438143 -0.0282058 0.000258463)
(0.0390765 -0.026361 0.00025002)
(0.0364476 -0.025231 0.000117574)
(0.0352269 -0.0245747 -9.70951e-05)
(0.0327939 -0.0228465 -0.000400881)
(0.0316686 -0.0220818 -0.000619926)
(0.0555903 -0.0146002 0.00479327)
(0.0625868 -0.0137782 0.000783963)
(0.0474957 -0.012637 0.00098418)
(0.0413824 -0.0126784 0.00165242)
(0.0364138 -0.0130262 0.00222625)
(0.0334699 -0.0139214 0.00276933)
(0.0289416 -0.0148706 0.00329442)
(0.02769 -0.0173899 0.00416488)
(0.0583858 0.00530781 0.0072103)
(0.0651607 0.00622625 0.0019413)
(0.0490788 0.00795635 0.00274893)
(0.0442822 0.00785411 0.00476636)
(0.0392183 0.00748447 0.00660017)
(0.03554 0.00741653 0.00773715)
(0.0323037 0.00733135 0.00807925)
(0.0296267 0.0085709 0.00820903)
(0.0602843 0.0281238 0.00345912)
(0.0514434 0.0218133 0.000180214)
(0.0455967 0.022548 0.000279176)
(0.0407011 0.0230744 0.00107916)
(0.0357843 0.0230352 0.00155371)
(0.0323277 0.022618 0.00155823)
(0.0308299 0.0227074 0.00142239)
(0.0261374 0.0226647 0.00120787)
(0.0526642 0.048902 -5.12353e-05)
(0.0437679 0.0388055 -0.00063304)
(0.0419009 0.0363682 -0.000525652)
(0.0386398 0.0350608 -0.00026324)
(0.035532 0.0338418 -0.00034152)
(0.0332065 0.0328274 -0.000638052)
(0.0324668 0.0320059 -0.00103267)
(0.0305961 0.0297593 -0.00136622)
(0.0430208 0.0563634 -0.00141876)
(0.037439 0.049202 -0.000996488)
(0.0365526 0.0469239 -0.00112506)
(0.0337392 0.0447637 -0.00147715)
(0.0321867 0.0442204 -0.00208268)
(0.0303812 0.0437737 -0.00283051)
(0.0286887 0.0436176 -0.00370715)
(0.0267235 0.0431994 -0.00461876)
(0.0387987 -0.0392737 0.022976)
(0.0371731 -0.037169 0.0219851)
(0.0365869 -0.0363648 0.0202545)
(0.036295 -0.0360546 0.017752)
(0.0359838 -0.0358376 0.0147112)
(0.035522 -0.0354947 0.011326)
(0.0348547 -0.0349227 0.00774221)
(0.0339709 -0.0341061 0.00404351)
(0.046194 -0.0289451 0.0284068)
(0.041574 -0.0266911 0.0263992)
(0.0391291 -0.0258513 0.0261504)
(0.0377503 -0.0256172 0.0252984)
(0.0367624 -0.025688 0.0237827)
(0.035843 -0.0258077 0.0216793)
(0.0348024 -0.0258403 0.0191518)
(0.0336038 -0.025776 0.0163493)
(0.0478095 -0.0110436 0.0409995)
(0.0427416 -0.0104944 0.0312052)
(0.0390137 -0.010428 0.031512)
(0.0370529 -0.0106427 0.0321342)
(0.0356112 -0.0111671 0.0319987)
(0.0342866 -0.0118503 0.0310868)
(0.032763 -0.0125537 0.0296479)
(0.0310269 -0.0131972 0.0275568)
(0.0477011 0.00791831 0.0467244)
(0.0427623 0.00766624 0.0320238)
(0.0390734 0.00770044 0.0326123)
(0.0371799 0.00767501 0.0337982)
(0.035669 0.00764537 0.0340755)
(0.0341876 0.00761401 0.0335925)
(0.0324972 0.0075649 0.0325874)
(0.0305221 0.00749958 0.0311827)
(0.0466891 0.0256325 0.034827)
(0.040622 0.0238316 0.0279067)
(0.0377761 0.0232759 0.0287598)
(0.0361919 0.0231099 0.0290047)
(0.0349989 0.0231304 0.0281995)
(0.0338699 0.0231878 0.0267013)
(0.0326193 0.0232419 0.0247498)
(0.0310902 0.0232718 0.0226161)
(0.0408185 0.0405549 0.0262419)
(0.0370701 0.0376871 0.0248945)
(0.0356546 0.0366649 0.0245907)
(0.0348978 0.0363212 0.023468)
(0.0342718 0.0361778 0.0214813)
(0.0335351 0.0360028 0.0189519)
(0.0325898 0.0357003 0.0160988)
(0.0313841 0.0352337 0.0131024)
(0.0318114 0.0471969 0.0238415)
(0.0309787 0.0452331 0.0232641)
(0.0309331 0.0444689 0.0217697)
(0.0309616 0.0440707 0.0193933)
(0.0308826 0.0437122 0.0164868)
(0.0305701 0.0432099 0.0132729)
(0.0299892 0.042495 0.00990377)
(0.0291331 0.0415435 0.00645915)
(0.0332513 -0.0341889 0.058984)
(0.0373751 -0.0369649 0.0523751)
(0.0410149 -0.0395982 0.0451174)
(0.044191 -0.0417941 0.0363324)
(0.0467086 -0.0433987 0.0264904)
(0.0485469 -0.0444005 0.0162143)
(0.049657 -0.0447972 0.00615759)
(0.0499328 -0.0445189 -0.00296011)
(0.0321598 -0.0229793 0.0725329)
(0.0360836 -0.0251608 0.0631061)
(0.039576 -0.0269495 0.0581445)
(0.0429391 -0.0286155 0.0521493)
(0.0458534 -0.0300366 0.044659)
(0.0481533 -0.0311018 0.0359311)
(0.049694 -0.0317285 0.0265586)
(0.0502725 -0.0318474 0.0174447)
(0.0273263 -0.00723924 0.0966785)
(0.0312452 -0.00927828 0.0743929)
(0.0347239 -0.0105827 0.0700845)
(0.0381216 -0.0116907 0.0665473)
(0.0412028 -0.0128021 0.0614098)
(0.0436634 -0.0138015 0.054636)
(0.0453073 -0.0145619 0.0467733)
(0.0459142 -0.0150326 0.0386563)
(0.0241357 0.0076448 0.109797)
(0.0286327 0.00772959 0.0773415)
(0.0324964 0.00754029 0.072963)
(0.0361529 0.00734098 0.0703605)
(0.0395298 0.00711074 0.0661721)
(0.0422714 0.00682548 0.0602582)
(0.0441014 0.00649603 0.053121)
(0.0447552 0.00613915 0.0455796)
(0.026611 0.0216313 0.0875993)
(0.0306239 0.0230055 0.0696774)
(0.0344669 0.0238029 0.0657935)
(0.03818 0.0244712 0.061676)
(0.0415559 0.0250027 0.0557717)
(0.0442986 0.0252882 0.0483523)
(0.0462034 0.025302 0.0400323)
(0.0470185 0.0250317 0.0316563)
(0.0274211 0.0348227 0.0684193)
(0.0320205 0.036808 0.0606035)
(0.0361205 0.0386829 0.055358)
(0.0399148 0.040352 0.0487271)
(0.0431176 0.0416117 0.0404832)
(0.0456052 0.0423913 0.031295)
(0.0472777 0.0426702 0.0218402)
(0.0479328 0.0423881 0.0128303)
(0.0259798 0.0427899 0.0594149)
(0.0304402 0.045862 0.0533554)
(0.0343331 0.0487065 0.0461401)
(0.0376714 0.050999 0.0374147)
(0.0403225 0.0526382 0.0277184)
(0.0422767 0.0536337 0.0176685)
(0.0434933 0.0539733 0.00788839)
(0.0438613 0.0535963 -0.000947214)
(0.0432334 -0.0403179 0.143118)
(0.0553077 -0.0497766 0.131759)
(0.0656821 -0.0573771 0.119992)
(0.0743429 -0.0630754 0.106916)
(0.0807699 -0.0667781 0.0927486)
(0.0845468 -0.0683355 0.0775947)
(0.0851527 -0.0674332 0.0611268)
(0.0821458 -0.0637862 0.0425316)
(0.0317861 -0.0233202 0.162188)
(0.0472166 -0.0308442 0.148049)
(0.0600269 -0.036347 0.138578)
(0.0713806 -0.0405887 0.128427)
(0.0805465 -0.0434651 0.116879)
(0.0867547 -0.0447875 0.103796)
(0.0891534 -0.044243 0.0888788)
(0.0870095 -0.041561 0.0713615)
(0.0168214 -0.0052314 0.190212)
(0.0345552 -0.0109181 0.164174)
(0.0491367 -0.014542 0.155339)
(0.0620841 -0.017371 0.147724)
(0.0729587 -0.0196575 0.138738)
(0.0806661 -0.0212503 0.128033)
(0.0841007 -0.0219079 0.11524)
(0.082303 -0.0214331 0.0992436)
(0.00746933 0.00761247 0.208584)
(0.0281025 0.00736028 0.169814)
(0.0440329 0.00666634 0.160626)
(0.0578425 0.0059574 0.15396)
(0.069593 0.00518024 0.1459)
(0.0781396 0.00440207 0.135908)
(0.0822286 0.00369988 0.123473)
(0.0807708 0.003114 0.107356)
(0.0176078 0.0196055 0.181115)
(0.0355858 0.0241118 0.159838)
(0.0503109 0.0265824 0.151867)
(0.0634501 0.0282852 0.144206)
(0.0744801 0.0293525 0.135041)
(0.0823479 0.029684 0.124154)
(0.0859132 0.029165 0.111047)
(0.0841783 0.027655 0.0946427)
(0.0290104 0.035804 0.157935)
(0.0447467 0.0429186 0.146103)
(0.0579529 0.0481431 0.136975)
(0.0695923 0.0519328 0.126686)
(0.0789382 0.0541685 0.11472)
(0.0853083 0.0547448 0.101491)
(0.0878708 0.0534379 0.0865971)
(0.085888 0.0499881 0.0689731)
(0.0371409 0.0502842 0.143646)
(0.0493104 0.0595404 0.133459)
(0.0598918 0.0669365 0.12229)
(0.0687407 0.0723622 0.109768)
(0.0753899 0.0757385 0.0961507)
(0.0794256 0.0769349 0.0815184)
(0.0803433 0.0756573 0.0655014)
(0.0777105 0.0716094 0.0472785)
(0.0556188 -0.0466729 0.298971)
(0.0702143 -0.0572881 0.2827)
(0.0837801 -0.0660218 0.260975)
(0.0962763 -0.073182 0.23098)
(0.107563 -0.0792527 0.190822)
(0.118584 -0.0853054 0.139502)
(0.130541 -0.0926109 0.077798)
(0.140105 -0.098586 0.0100921)
(0.0425135 -0.0267147 0.318322)
(0.0625654 -0.0343487 0.302234)
(0.0806957 -0.0396934 0.284963)
(0.0983614 -0.043717 0.259918)
(0.115125 -0.0468408 0.223467)
(0.13171 -0.049974 0.173389)
(0.149511 -0.054231 0.109836)
(0.164253 -0.0580145 0.0371769)
(0.0241494 -0.00709492 0.342717)
(0.0480081 -0.0130749 0.31989)
(0.0692603 -0.0166162 0.305651)
(0.0901694 -0.0192715 0.285817)
(0.110655 -0.0214244 0.254677)
(0.131434 -0.023525 0.208761)
(0.154082 -0.0259868 0.14741)
(0.173084 -0.0279234 0.0741843)
(0.0129598 0.00607704 0.357294)
(0.0399464 0.00460748 0.326906)
(0.0630999 0.00294535 0.313425)
(0.0853385 0.00135024 0.296076)
(0.10718 -0.000148033 0.268026)
(0.129448 -0.00138292 0.225195)
(0.153912 -0.0023185 0.166174)
(0.174496 -0.00290085 0.0943062)
(0.0263414 0.0178318 0.335809)
(0.0501907 0.020979 0.316602)
(0.0715651 0.0219212 0.30319)
(0.0926997 0.0219837 0.283615)
(0.113385 0.0216235 0.252727)
(0.134307 0.0215563 0.206799)
(0.15705 0.0224291 0.144927)
(0.175958 0.0234458 0.0710834)
(0.0419734 0.0356706 0.314821)
(0.0625193 0.0415428 0.300699)
(0.0814403 0.0451743 0.283934)
(0.0999071 0.0473176 0.258844)
(0.117408 0.0485818 0.222066)
(0.134595 0.0501663 0.172086)
(0.152861 0.053277 0.108984)
(0.167839 0.0564059 0.0367394)
(0.0533021 0.0529978 0.298735)
(0.0687498 0.0619502 0.283264)
(0.0834609 0.069042 0.26171)
(0.0972032 0.0747495 0.231689)
(0.109794 0.0795919 0.191518)
(0.122061 0.0847017 0.140367)
(0.13505 0.091475 0.0790298)
(0.145295 0.0973459 0.0119026)
(0.0283267 0.0586904 -0.00134376)
(0.0255946 0.0553428 -0.00140371)
(0.0267042 0.0504264 -0.00162681)
(0.026542 0.0464705 -0.00214881)
(0.0269785 0.0442602 -0.00298874)
(0.0270858 0.0421365 -0.00403703)
(0.0268695 0.0403158 -0.00516015)
(0.0267702 0.0387732 -0.00626787)
(0.011966 0.0620069 5.51519e-05)
(0.0113274 0.0595174 -0.000441986)
(0.014169 0.0539191 -0.000137072)
(0.0145762 0.0481118 0.000298205)
(0.0152653 0.0447654 0.000406977)
(0.016066 0.0425405 0.000181592)
(0.0158985 0.0386777 -0.000160918)
(0.0167569 0.0382478 -0.000402592)
(-0.0049872 0.0588933 0.00353694)
(-0.00428634 0.0687989 0.000272987)
(-0.0026492 0.054321 0.00108067)
(-0.000968355 0.0481009 0.00258164)
(0.000178795 0.0432044 0.00403708)
(0.00144452 0.0386776 0.00503311)
(0.00331768 0.0353785 0.00551568)
(0.0050392 0.0322702 0.00515612)
(-0.0233046 0.0560351 0.00384758)
(-0.0225937 0.0689999 5.57821e-05)
(-0.0207347 0.0513552 0.000927801)
(-0.0204773 0.0481314 0.00235935)
(-0.0198359 0.0429152 0.00345678)
(-0.0191239 0.0396149 0.0041531)
(-0.0182607 0.0367159 0.00437337)
(-0.0161801 0.0337922 0.00411683)
(-0.0384142 0.0521588 0.00127138)
(-0.0354219 0.0618999 -0.000832641)
(-0.0329212 0.0484112 -0.000620325)
(-0.0306285 0.0443334 -0.000167148)
(-0.0292163 0.0403082 3.91415e-05)
(-0.0291236 0.0381209 0.000148102)
(-0.0301258 0.03482 9.0307e-06)
(-0.0320767 0.0335581 -0.000307574)
(-0.0456312 0.0463333 -1.11853e-05)
(-0.048099 0.0548247 -0.00109231)
(-0.0457272 0.0430366 -0.000987247)
(-0.0443644 0.0408575 -0.00092779)
(-0.0419086 0.0377875 -0.00106002)
(-0.0403311 0.0375354 -0.00132085)
(-0.0363599 0.0351385 -0.00163432)
(-0.0347449 0.0353006 -0.00197228)
(-0.0657612 0.0508211 -0.00327693)
(-0.0589249 0.044165 -0.00254384)
(-0.0556257 0.0398968 -0.00217992)
(-0.053187 0.038022 -0.00215087)
(-0.0513771 0.035297 -0.00232045)
(-0.0506686 0.0331351 -0.00273129)
(-0.049921 0.0306614 -0.0032966)
(-0.0485124 0.0282294 -0.00398761)
(0.0227538 0.0506915 0.0248206)
(0.0227098 0.0488666 0.0241075)
(0.0232803 0.0477664 0.02253)
(0.0238671 0.0470668 0.020127)
(0.0242747 0.0464337 0.0171539)
(0.0244015 0.0456893 0.0137975)
(0.0242292 0.0447567 0.0102355)
(0.0237781 0.0435964 0.00657842)
(0.00782327 0.0529282 0.0300485)
(0.00972774 0.0490722 0.0288588)
(0.0113292 0.0470127 0.028883)
(0.0126119 0.0459332 0.0279104)
(0.0136573 0.0451085 0.0259058)
(0.0143732 0.044234 0.0231157)
(0.0147401 0.043173 0.0198918)
(0.0148103 0.0419167 0.0163887)
(-0.0101788 0.0508494 0.0354383)
(-0.00599935 0.0472394 0.0315909)
(-0.00324295 0.0446152 0.0330765)
(-0.00117026 0.0433117 0.0338979)
(0.000684402 0.042145 0.0335747)
(0.00235364 0.0407496 0.032241)
(0.00382276 0.0390072 0.0301118)
(0.00505753 0.0369223 0.0274904)
(-0.0241538 0.0490888 0.0319263)
(-0.0207091 0.045769 0.0297101)
(-0.018404 0.0436526 0.0315342)
(-0.01678 0.0427532 0.0325266)