/*--------------------------------*- C++ -*----------------------------------*\
| =========                 |                                                 |
| \\      /  F ield         | OpenFOAM: The Open Source CFD Toolbox           |
|  \\    /   O peration     | Version:  plus.master.MPPICInterFoam            |
|   \\  /    A nd           | Web:      www.OpenFOAM.com                      |
|    \\/     M anipulation  |                                                 |
\*---------------------------------------------------------------------------*/
FoamFile
{
    version     2.0;
    format      ascii;
    class       Cloud<basicKinematicMPPICParcel>;
    location    "11.8/lagrangian/kinematicCloud";
    object      positions;
}
// * * * * * * * * * * * * * * * * * * * * * * * * * * * * * * * * * * * * * //

3068
(
(-0.0578167 0.00124722 0.185549) 835
(-0.0569777 0.00042416 0.188019) 835
(-0.0602306 -0.00351424 0.188921) 836
(0.0634082 -0.010369 0.175782) 20
(-0.0581527 0.00103982 0.187886) 835
(0.0567558 -0.0107191 0.177158) 19
(-0.0551233 0.000609464 0.187247) 835
(0.056846 -0.00964086 0.176794) 19
(-0.0535058 -0.00167755 0.188664) 834
(-0.0527487 0.000900748 0.189105) 834
(-0.053042 0.00244728 0.188101) 834
(-0.0546027 0.00207254 0.18832) 835
(-0.0599641 -0.00200741 0.19192) 836
(-0.053998 0.0012759 0.193047) 834
(-0.0565826 0.000681713 0.18665) 835
(-0.0620294 -0.00241097 0.195954) 892
(0.0530561 -0.0126754 0.177105) 19
(-0.0571394 -0.00387243 0.188158) 835
(-0.0564132 0.00115447 0.186769) 835
(0.0536299 -0.0125944 0.177675) 19
(-0.0579961 0.000854096 0.188991) 835
(0.052874 -0.0114227 0.178285) 18
(-0.0595186 0.000645073 0.191961) 835
(-0.0581371 -0.00489731 0.189741) 835
(-0.0363459 -0.0390707 0.199626) 1618
(-0.0388073 -0.0324469 0.193612) 858
(0.0506463 -0.0123654 0.178158) 18
(-0.0372974 -0.0360775 0.197001) 914
(-0.0554908 -0.0102316 0.201549) 899
(-0.0538497 0.00250562 0.193231) 834
(-0.0378251 -0.0330052 0.195494) 914
(0.051365 -0.0126851 0.179926) 18
(-0.0398627 -0.0329886 0.19697) 914
(-0.0544637 -0.00993517 0.200974) 899
(-0.0510139 -0.0144229 0.19941) 898
(0.05684 -0.00743882 0.181664) 19
(-0.057705 0.01203 0.191293) 827
(-0.0267468 -0.0452858 0.199015) 1626
(-0.0493048 0.0288744 0.191156) 819
(-0.0557411 0.0148464 0.189787) 827
(0.050468 -0.0122808 0.180582) 18
(0.0487698 -0.0141575 0.176796) 18
(-0.0375738 -0.0344964 0.198396) 914
(0.0522985 -0.0156645 0.175959) 19
(0.0581639 -0.0166167 0.175441) 20
(-0.0530432 0.0028387 0.192935) 834
(-0.0501135 -0.0133257 0.196716) 898
(-0.0571409 0.0158295 0.192562) 827
(0.054729 -0.0193452 0.176057) 11
(-0.0549986 0.0152074 0.195894) 883
(-0.0522079 0.0133144 0.191598) 826
(0.0576231 -0.0172152 0.175604) 20
(-0.0171135 -0.0546655 0.191871) 1579
(-0.0268624 -0.0448494 0.201181) 1626
(-0.025316 -0.0450681 0.199544) 1626
(-0.052058 0.0144176 0.191042) 826
(-0.0295055 -0.044552 0.200141) 1618
(-0.0253573 -0.0435822 0.199168) 1626
(-0.0266761 -0.0435163 0.200543) 1626
(-0.0228445 -0.0454099 0.199346) 1626
(-0.0494389 -0.0158384 0.199436) 898
(-0.0467429 0.0302615 0.194188) 811
(-0.0286598 -0.0427412 0.199492) 1618
(0.0550733 -0.0156893 0.176829) 19
(0.0580547 -0.0188765 0.175131) 20
(-0.0584856 -0.000412868 0.193106) 835
(0.0537147 -0.0162306 0.177782) 19
(-0.0366933 -0.0330642 0.200067) 914
(-0.0479082 -0.0152916 0.202475) 898
(-0.0549743 -0.00468264 0.192032) 835
(-0.055244 0.0122554 0.191912) 827
(-0.0363382 -0.0325393 0.199206) 913
(0.056295 -0.015681 0.177124) 19
(-0.0474317 0.0276292 0.196713) 875
(0.0541669 -0.0162999 0.177862) 19
(-0.0586907 -0.00377556 0.194123) 835
(-0.0260601 -0.0473209 0.206851) 1682
(-0.0294078 -0.0434486 0.202117) 1618
(0.0517892 -0.0144795 0.186856) 74
(-0.0487673 -0.0138528 0.199899) 898
(0.0526115 -0.0174292 0.178696) 19
(-0.0510602 0.0125642 0.194752) 882
(0.0509401 -0.0173586 0.179491) 18
(-0.0542791 -0.00262216 0.193345) 835
(-0.0542195 0.0116546 0.192912) 827
(-0.0565724 0.0121453 0.194031) 827
(-0.0516024 -0.0119319 0.201057) 898
(0.0484576 -0.0157502 0.185432) 74
(0.0534598 -0.016051 0.179241) 19
(-0.0525176 0.0109086 0.197035) 882
(-0.00423194 -0.058282 0.188207) 1587
(-0.0488117 -0.0163776 0.20082) 898
(-0.0583683 -0.00571744 0.200291) 891
(-0.00284662 -0.0561581 0.196416) 1643
(-0.00391556 -0.056636 0.185811) 1587
(-0.0499546 -0.011076 0.203603) 898
(0.0520578 -0.00223577 0.175083) 26
(-0.0251885 -0.0443641 0.203693) 1626
(-0.0241595 -0.0435146 0.201062) 1626
(-0.0264235 -0.0469608 0.208578) 1682
(-0.0613799 -0.00299021 0.198903) 892
(-0.0462758 -0.0144579 0.204593) 897
(0.0477285 -0.0140746 0.186953) 74
(0.0496851 -0.0159144 0.180861) 18
(-0.00260652 -0.0536703 0.195592) 1642
(0.057518 -0.0154574 0.190995) 75
(-0.0539109 0.00152718 0.19987) 890
(-0.0460876 0.0283294 0.197902) 874
(-0.0481841 0.0276897 0.196028) 875
(-0.0458785 -0.016185 0.204632) 961
(-0.0377434 -0.0325298 0.201301) 914
(-0.0544678 0.000476964 0.194601) 835
(-0.0471314 -0.0120905 0.206341) 953
(-0.0455021 -0.0149837 0.205588) 953
(0.0533805 -0.00201773 0.177488) 26
(-0.0452675 0.0283494 0.196599) 874
(-0.0222036 -0.0464849 0.204839) 1682
(0.0480748 -0.0170577 0.183167) 10
(-0.0457715 0.0282388 0.198675) 874
(-0.0496172 0.0257053 0.195597) 875
(-0.0595458 0.011056 0.198897) 884
(0.0520588 -0.018414 0.180685) 11
(0.0531906 -0.0153578 0.180818) 19
(0.0545588 -0.0121648 0.179122) 19
(-0.0468681 -0.0184662 0.205283) 962
(0.0501044 -0.0146286 0.186393) 74
(0.0524791 -0.0164551 0.180591) 19
(-0.033321 -0.0340656 0.203049) 1617
(-0.053013 0.0113455 0.195357) 883
(0.0481393 -0.0150914 0.184814) 74
(-0.0592884 0.00381071 0.199354) 891
(-0.038622 -0.0420826 0.198895) 1619
(-0.0444689 -0.0142453 0.208958) 953
(-0.049243 0.000351493 0.202861) 890
(0.052242 -0.0154215 0.181068) 19
(-0.0543172 -0.000253064 0.201692) 891
(-0.0584372 -0.00593492 0.203155) 891
(0.0584519 -0.0021247 0.179526) 27
(-0.0530509 -0.0126813 0.206867) 955
(-0.0552794 -0.011612 0.209185) 955
(0.0491998 -0.0159469 0.182425) 18
(0.052069 -0.0133133 0.177955) 18
(-0.0466172 0.0276666 0.202077) 874
(-0.0548676 0.0036713 0.200084) 891
(-0.0550099 0.0107221 0.197563) 883
(0.0458614 -0.0118586 0.185282) 73
(-0.048278 0.0235894 0.19941) 874
(-0.0545613 0.00247533 0.197976) 891
(-0.0268104 -0.0426782 0.207671) 1682
(-0.0387308 -0.0337908 0.208904) 970
(-0.0382793 -0.0321214 0.20739) 970
(-0.0458531 -0.00946376 0.208774) 953
(-0.0473118 -0.0150142 0.203734) 898
(0.0486573 -0.0174394 0.183437) 10
(0.0549987 -0.00215868 0.180571) 27
(-0.0589635 0.00175426 0.199714) 891
(-0.0485856 -0.000892521 0.205274) 945
(0.0499517 -0.0148759 0.184291) 18
(0.0521882 -0.0141428 0.181535) 18
(-0.0538695 0.00260983 0.201732) 890
(-0.0485567 -0.0118085 0.203527) 898
(0.0588394 -0.00960312 0.18422) 19
(-0.0574416 0.00476245 0.202661) 891
(-0.0547314 0.0193246 0.201079) 875
(-0.0169002 -0.0532517 0.196298) 1635
(-0.0465804 -0.0167557 0.204311) 906
(-0.0509722 0.0146966 0.197368) 882
(0.011056 -0.0542742 0.199563) 1651
(-0.0556006 0.0118227 0.198214) 883
(-0.0258122 -0.0406292 0.205286) 1673
(-0.0259398 -0.0411806 0.204645) 1673
(-0.0481922 0.00513109 0.204211) 889
(0.0480705 -0.0159273 0.190801) 74
(-0.00304101 -0.0505266 0.199295) 1642
(-0.0544844 0.0135722 0.198277) 883
(-0.0267374 -0.0430055 0.209521) 1682
(-0.0450625 -0.0175593 0.207963) 961
(0.0508125 -0.0136736 0.183358) 18
(0.0470753 -0.0116022 0.176362) 17
(-0.0408077 -0.0379098 0.20285) 915
(0.000187001 -0.0570397 0.202154) 1643
(-0.0490466 -0.0117739 0.204395) 898
(0.0514853 -0.0157448 0.183688) 18
(-0.0027706 -0.0502978 0.19911) 1642
(0.0527862 -0.0132082 0.182203) 19
(-0.0519466 0.0173659 0.204716) 939
(-0.0478643 -0.027357 0.202402) 907
(-0.0401345 -0.0365176 0.197191) 915
(-0.0521371 0.00252774 0.20794) 946
(-0.0496365 -0.0123625 0.204822) 954
(0.048492 -0.0158691 0.191077) 74
(0.0510311 -0.00279042 0.17668) 26
(-0.0272102 -0.0439668 0.211636) 1682
(0.0545702 -0.0105146 0.182034) 19
(-0.00327068 -0.0504865 0.200148) 1642
(-0.0381793 -0.03824 0.19865) 1618
(-0.0501389 0.00567455 0.208505) 938
(0.0479896 -0.0161913 0.18697) 74
(-0.039462 -0.0389073 0.204176) 915
(0.0217679 -0.0524986 0.202959) 1659
(-0.0384553 -0.0333281 0.206929) 970
(0.0522018 -0.012897 0.182218) 18
(-0.0397307 -0.0368135 0.20173) 914
(-0.0547589 -0.0143791 0.203324) 899
(-0.0457974 -0.0242008 0.197482) 906
(0.0542282 -0.00162161 0.177835) 27
(-0.0506354 0.00527951 0.208729) 946
(0.0468459 -0.0149875 0.187007) 74
(-0.00278544 -0.0514883 0.200674) 1642
(-0.047872 -0.0252823 0.200963) 907
(-0.0509254 0.00411542 0.210306) 946
(-0.0461287 -0.0132228 0.206992) 953
(0.0532976 -0.0104992 0.181936) 19
(-0.000471527 -0.0503951 0.200081) 1642
(-0.00287134 -0.0492749 0.201179) 1642
(-0.00182679 -0.0510259 0.200472) 1642
(-0.0575489 0.000361703 0.200153) 891
(0.0533129 -0.0106019 0.183684) 19
(-0.0550106 0.00387594 0.205588) 947
(0.0539538 -0.00279827 0.181373) 26
(-0.0580339 -0.00188224 0.200765) 891
(-0.0526064 -0.0107901 0.21606) 1010
(-0.0512369 0.000837287 0.208242) 946
(0.0472502 -0.0142917 0.193401) 74
(0.0516986 -0.0124213 0.185058) 74
(-0.0452538 0.0294169 0.205696) 922
(-0.0381022 -0.0295643 0.207905) 969
(-0.0518609 0.00285644 0.209029) 946
(0.0521496 -0.0105089 0.183914) 18
(0.0227309 -0.0461598 0.196336) 1658
(-0.0544633 0.0122429 0.200613) 883
(0.0501896 -0.013577 0.183499) 18
(0.0524988 -0.0100181 0.184236) 18
(-0.054035 0.00343172 0.205926) 946
(-0.0506768 0.0124925 0.201318) 882
(-0.0132547 -0.0533222 0.202307) 1635
(-0.0501445 0.000636547 0.207954) 946
(0.0515041 -0.0122825 0.185518) 74
(0.051116 -0.0129362 0.185357) 74
(0.0508614 -0.0133122 0.185276) 74
(-0.0533658 0.0167227 0.200405) 883
(-0.0496947 -0.0149623 0.215873) 1010
(-0.0502666 -3.04263e-05 0.208009) 946
(-0.0511445 -0.0153729 0.209922) 954
(-0.0547969 -0.00191183 0.208687) 947
(-0.0291891 0.044709 0.20913) 2506
(-0.0376088 -0.0368392 0.212289) 970
(-0.0536911 0.00300226 0.206594) 946
(-0.01339 -0.0531466 0.203383) 1635
(-0.0157566 -0.054245 0.199909) 1635
(-0.0379101 -0.0351005 0.21065) 970
(-0.0553944 -0.0108957 0.206284) 955
(-0.0373675 -0.0304994 0.211226) 969
(0.0499746 -0.0134763 0.18732) 74
(-0.0132697 -0.0495595 0.201856) 1634
(0.0234232 -0.0495563 0.204446) 1659
(0.0564741 -0.00630927 0.182711) 27
(-0.0617166 -0.00242865 0.203225) 892
(0.0501093 -0.012843 0.19245) 74
(0.0504592 -0.0140484 0.185487) 74
(0.0541998 -0.00733372 0.184873) 75
(-0.0540896 0.00358909 0.207088) 946
(-0.0442457 -0.0279417 0.200565) 914
(0.0510129 -0.0116886 0.189731) 74
(0.0511919 -0.0116259 0.187578) 74
(-0.044071 -0.00898463 0.213197) 953
(0.0505214 -0.0124818 0.187475) 74
(0.0497081 -0.0133368 0.18699) 74
(-0.0365831 -0.0375678 0.202233) 1618
(0.0230505 -0.0490753 0.204089) 1659
(0.0583675 -0.00252511 0.186595) 83
(0.0567642 -0.013118 0.185077) 75
(-0.0492268 0.00633026 0.210832) 938
(0.0507323 -0.0186738 0.186756) 66
(-0.0515625 0.0126178 0.205891) 938
(-0.0129455 -0.0529049 0.202684) 1635
(-0.00161638 -0.0537453 0.204623) 1698
(-0.0184592 -0.0529471 0.200189) 1635
(-0.0543878 -0.00116641 0.211213) 947
(0.0490494 -0.0138832 0.187437) 74
(-0.0168257 -0.0503341 0.205287) 1690
(-0.0585112 0.00526426 0.208247) 947
(-0.0342521 -0.0316285 0.209823) 969
(-0.0430143 -0.00920641 0.214857) 1009
(-0.0370724 0.0363667 0.208283) 922
(-0.0369753 -0.0374538 0.205545) 1674
(-0.051668 -0.013568 0.202066) 898
(0.0214358 -0.0532268 0.206331) 1715
(-0.0488013 -0.010929 0.208429) 954
(0.0494792 -0.0135307 0.188027) 74
(0.0497061 -0.0131263 0.187205) 74
(-0.0138214 -0.0499466 0.20366) 1634
(-0.0126175 -0.0546585 0.210256) 1691
(-0.0518449 -0.0152429 0.212652) 954
(0.0455303 -0.00880575 0.191288) 73
(0.0495378 -0.0140698 0.188252) 74
(-0.0153484 -0.049313 0.204668) 1690
(0.0524797 -0.00270476 0.182492) 26
(-0.0520096 0.0121681 0.202433) 882
(-0.0570302 0.010515 0.204838) 939
(-0.0555717 0.00470897 0.203565) 891
(-0.0204392 -0.0530142 0.202) 1627
(-0.0570071 -0.0177545 0.204706) 956
(-0.0540355 -0.00959132 0.213895) 955
(0.0561093 -0.00990099 0.191899) 75
(-0.0584999 -0.011151 0.210368) 955
(-0.0124845 -0.0526137 0.202465) 1634
(0.0216176 -0.0502281 0.20384) 1659
(-0.0215914 -0.0556322 0.20346) 1627
(-0.0525009 -0.0135462 0.213284) 955
(-0.00140036 -0.051016 0.211103) 1698
(-0.0151923 -0.0498441 0.207152) 1690
(-0.0389477 0.037271 0.21109) 922
(-0.0168452 -0.0499668 0.206605) 1690
(0.0535348 -0.00639638 0.184984) 74
(-0.0351293 -0.0372855 0.201771) 1618
(0.0154905 -0.054207 0.206274) 1707
(-0.0231416 -0.0422347 0.210692) 1681
(0.0488089 -0.0150863 0.190082) 74
(-0.0518891 0.00226264 0.203586) 890
(-0.0191618 -0.0523384 0.207306) 1683
(-0.0495115 0.0228135 0.206448) 931
(-0.0572507 0.0103512 0.20575) 939
(-0.0402932 -0.0375345 0.201032) 915
(-0.042174 0.0393891 0.201809) 867
(-0.051036 -0.0155447 0.205526) 954
(-0.0473072 0.00398868 0.210879) 945
(-0.0470087 -0.0137892 0.2101) 954
(-0.0392685 0.0384483 0.2137) 923
(-0.0234669 -0.0415476 0.211298) 1681
(-0.0546728 -0.0115714 0.209013) 955
(-0.0201157 -0.0525517 0.207135) 1683
(-0.0544792 -0.0163138 0.21472) 1011
(-0.0153215 -0.0503866 0.209199) 1690
(-0.0518371 0.0105032 0.207323) 938
(0.0531173 0.00690443 0.18792) 90
(-0.05137 -0.00224847 0.202755) 890
(-0.0450927 -0.0142292 0.213302) 953
(-0.0359673 -0.0322505 0.210632) 969
(0.0485313 -0.0150258 0.187585) 74
(-0.0386395 0.0403778 0.21367) 2507
(0.0245556 -0.0480143 0.20549) 1714
(-0.0558046 0.0102639 0.203773) 883
(-0.0222575 -0.0432212 0.216074) 1737
(0.0219143 -0.0459875 0.201192) 1658
(-0.0568021 0.0165372 0.198642) 883
(-0.0541529 -0.0027014 0.211765) 947
(-0.017551 -0.0529675 0.214444) 1691
(-0.057697 -0.00543138 0.213492) 947
(-0.0148786 -0.0506711 0.2102) 1690
(-0.041198 -0.0358863 0.208733) 971
(-0.0192575 -0.0521813 0.209688) 1683
(-0.0535323 0.00417793 0.205398) 946
(-0.0434876 -0.0150683 0.219353) 1009
(-0.0533931 0.0032634 0.209275) 946
(0.0570914 -0.00636978 0.190671) 83
(0.0241989 -0.0483152 0.207846) 1714
(-0.0359821 -0.042614 0.203307) 1619
(0.0485065 -0.0133677 0.190154) 74
(0.0492608 -0.0130075 0.187061) 74
(-0.0176536 -0.0496455 0.208562) 1682
(-0.0194212 -0.051395 0.207745) 1683
(0.054209 -0.00607032 0.18536) 83
(-0.0588711 0.00432438 0.206861) 947
(-0.0570331 -0.0036679 0.204635) 947
(0.00996154 -0.0571953 0.201732) 1651
(-0.0362305 -0.0340193 0.21255) 970
(0.0492723 -0.0140282 0.191282) 74
(-0.0130646 -0.0483318 0.206126) 1690
(-0.0122856 -0.0523625 0.203992) 1634
(-0.0351067 -0.0385526 0.203235) 1618
(-0.0462416 0.0260874 0.210021) 930
(-0.0500924 0.0119302 0.204863) 938
(-0.0442721 -0.0353514 0.205387) 971
(-0.0573444 0.00984384 0.207905) 939
(-0.0481646 0.00480469 0.215429) 1001
(-0.0458096 -0.0178276 0.215178) 1018
(-0.0446001 -0.012345 0.213024) 953
(-0.0510341 -0.0173703 0.215334) 1010
(0.0491211 -0.0150681 0.190583) 74
(-0.0382472 0.0341603 0.214499) 922
(-0.0132712 -0.0481482 0.208602) 1690
(-0.0517264 -0.0181863 0.206278) 963
(-0.0572947 -0.00371545 0.206477) 947
(-0.0591747 -0.00510188 0.207911) 947
(0.0536763 -0.0198588 0.187713) 67
(-0.0519259 -0.00856143 0.213623) 954
(0.0554731 0.00903814 0.196652) 147
(-0.0285295 -0.0433044 0.208211) 1674
(-0.0382893 0.0362723 0.211226) 922
(0.00901257 -0.0498101 0.204768) 1706
(0.0124013 -0.0493859 0.211515) 1706
(-0.0412307 -0.0427017 0.20864) 1675
(-0.0376712 -0.0362665 0.210653) 970
(-0.051109 0.0028071 0.205736) 946
(-0.012974 -0.0480049 0.207394) 1690
(-0.05296 0.0191455 0.209667) 931
(0.0531773 -0.00256126 0.187462) 82
(-0.00872626 -0.0587802 0.209042) 1691
(-0.00486479 -0.0565597 0.204573) 1643
(-0.0296786 -0.0509341 0.200912) 1627
(-0.0500639 -0.0107281 0.21205) 954
(-0.0362521 0.0364744 0.216014) 2562
(-0.0165562 -0.0519968 0.214966) 1747
(-0.000136791 -0.0511969 0.212452) 1698
(-0.0136166 -0.04694 0.208157) 1690
(-0.0150285 -0.047447 0.209067) 1690
(-0.0582228 0.00541894 0.208993) 947
(-0.0450187 -0.0289528 0.208573) 970
(-0.000865251 -0.054936 0.208653) 1699
(-0.0586984 0.00966699 0.211224) 939
(-0.0560075 0.0108683 0.20732) 939
(-0.0599883 0.0101238 0.211098) 940
(-0.045893 -0.0121473 0.220236) 1009
(-0.0485117 0.00262615 0.21694) 1001
(-0.0479399 0.00636066 0.215592) 993
(-0.0496227 -0.0121677 0.212504) 954
(-0.0361136 0.036521 0.216272) 2562
(0.0146495 -0.0492013 0.213406) 1706
(-0.030266 -0.045875 0.213236) 1675
(-0.0290727 0.0423699 0.212469) 2506
(-0.0532476 0.0029874 0.209776) 946
(0.0104426 -0.04849 0.206725) 1706
(-0.048751 0.00483466 0.217685) 1002
(-0.0484069 -0.0100049 0.211608) 954
(0.0495133 -0.0130815 0.19748) 130
(-0.055454 -0.00436266 0.211195) 947
(-0.0122508 -0.0466453 0.207167) 1689
(0.0409316 -0.033841 0.207749) 170
(-0.0483999 0.0118347 0.205791) 938
(0.0108506 -0.0460854 0.205321) 1705
(-0.0420984 -0.0373667 0.204425) 915
(-0.0503656 -0.014363 0.214789) 1010
(-0.0461718 0.00173467 0.213857) 945
(-0.0504782 -0.00248112 0.213541) 946
(-0.0149464 -0.0471229 0.210086) 1690
(-0.0118565 -0.0465257 0.20823) 1689
(-0.0133237 -0.0468457 0.208552) 1689
(0.055924 -0.0143147 0.19537) 131
(-0.0595121 0.00544854 0.212742) 947
(-0.0177809 -0.0488191 0.209999) 1682
(-0.0261832 -0.0467375 0.208146) 1682
(-0.0502647 0.00269848 0.204696) 946
(-0.0382909 -0.0353106 0.203931) 914
(-0.000193105 -0.0567424 0.20524) 1699
(-0.0476287 0.00156856 0.212632) 945
(0.0474178 -0.0167786 0.1926) 66
(0.0150022 -0.0484687 0.214003) 1706
(-0.0355973 -0.0387004 0.210462) 1674
(-0.054922 -0.0109464 0.212251) 955
(-0.0153491 -0.0464717 0.20976) 1689
(-0.0368344 -0.0423285 0.209307) 1675
(-0.0487722 -0.0224186 0.209981) 962
(-0.0550981 -0.0107627 0.20976) 955
(0.0555726 -0.00314496 0.190822) 83
(-0.040132 -0.0405601 0.205763) 1675
(-0.0535482 -0.0164509 0.202779) 899
(-0.0396035 -0.0306294 0.220175) 1026
(0.0476921 -0.0124726 0.194049) 74
(-0.0527681 0.0032676 0.211353) 946
(-0.00565353 -0.0522145 0.213319) 1698
(-0.0104975 -0.04297 0.208968) 1689
(0.0471335 -0.0293053 0.205543) 179
(-0.0366326 -0.029051 0.215615) 1025
(-0.046068 0.0154363 0.216805) 993
(-0.042953 -0.0135656 0.215883) 1009
(0.0480545 -0.0139508 0.194136) 74
(0.0168263 -0.0537018 0.217754) 1763
(0.0170062 -0.0520106 0.214754) 1763
(-0.0458887 0.0293334 0.213797) 923
(-0.0110144 -0.0421429 0.211653) 1689
(-0.0174323 -0.0483867 0.210151) 1682
(-0.018181 -0.0487929 0.210095) 1682
(-0.0208282 -0.0516825 0.208354) 1683
(-0.0495331 0.0244172 0.208937) 931
(-0.0591212 -0.00582536 0.208794) 947
(-0.0474483 0.00146466 0.217143) 1001
(-0.0421483 -0.00952945 0.219864) 1008
(-0.0269784 -0.0404504 0.215831) 1729
(0.0166274 -0.0535084 0.217707) 1763
(-0.0110517 -0.0446969 0.208752) 1689
(0.0583988 0.00108915 0.195115) 139
(0.015465 -0.0560942 0.209061) 1707
(-0.0440313 -0.0402152 0.207288) 971
(-0.0462781 0.0114725 0.216781) 993
(0.046418 -0.0164434 0.193295) 66
(-0.025726 -0.0482423 0.212744) 1683
(-0.0521348 -0.00968701 0.208798) 954
(-0.0405889 0.0370601 0.213401) 923
(-0.0110951 -0.0528102 0.20999) 1690
(0.0130564 -0.0532035 0.206337) 1707
(-0.0271857 -0.0423175 0.222444) 1730
(-0.046581 -0.0112551 0.214194) 953
(0.000901597 -0.0523801 0.215989) 1754
(-0.0166775 -0.0489284 0.211037) 1690
(-0.0112975 -0.0521906 0.209846) 1690
(0.0128294 -0.0534688 0.20632) 1707
(0.0540474 -0.019568 0.191974) 67
(-0.034306 -0.0340702 0.220832) 1025
(-0.0162803 -0.0538641 0.22029) 1747
(-0.0362778 0.0352909 0.217942) 978
(0.0161408 -0.0527512 0.217232) 1763
(-0.0260673 0.0421664 0.214168) 2498
(-0.0478577 -0.022917 0.210945) 962
(-0.0185979 -0.0487481 0.210035) 1682
(-0.00100008 -0.0563745 0.212226) 1699
(0.00665566 -0.0568535 0.206116) 1707
(-0.00705431 -0.0553505 0.205836) 1691
(-0.0431337 -0.0153797 0.218446) 1017
(-0.0490952 -0.0129896 0.214221) 954
(-0.0114249 -0.0418931 0.213748) 1688
(0.0526071 0.00792115 0.193101) 90
(-0.0393436 -0.0339321 0.209208) 970
(-0.0531103 -0.00401303 0.208725) 946
(-0.0554712 -0.0102168 0.2113) 955
(-0.0484909 -0.024809 0.21223) 963
(-0.0383606 -0.0432842 0.209284) 1675
(-0.0538377 -0.0159465 0.204416) 899
(-0.0468749 0.0157548 0.220085) 994
(0.0113052 -0.0504125 0.215112) 1762
(-4.64357e-06 -0.0486582 0.214436) 1697
(-0.0542909 -0.0120309 0.216229) 1011
(-0.0379761 0.0323698 0.216261) 978
(-0.0121372 -0.0414169 0.21575) 1744
(0.0418514 -0.0330415 0.210305) 170
(-0.0113404 -0.0536236 0.214549) 1747
(-0.015646 -0.0470989 0.208009) 1690
(0.0552269 -0.00989571 0.193736) 75
(0.0538507 0.00795702 0.196872) 147
(-0.0494815 -0.0152977 0.210726) 954
(-0.0113916 -0.0468931 0.209447) 1689
(-0.0120396 -0.0417828 0.212031) 1688
(-0.0134523 -0.0436603 0.20944) 1689
(-0.0276672 -0.0424768 0.209759) 1674
(-0.0287217 -0.046682 0.210125) 1683
(-0.011068 -0.0541262 0.21381) 1691
(-0.0130427 -0.0550905 0.209951) 1691
(-0.0290203 -0.045102 0.210864) 1674
(0.00564946 -0.0575669 0.207062) 1699
(-0.0481765 -0.0137206 0.214251) 954
(0.0487677 -0.010825 0.196918) 130
(-0.0545784 -0.0108411 0.219715) 1011
(-0.052227 1.80197e-05 0.214251) 946
(-0.0521083 0.00038913 0.213485) 946
(0.0560758 0.00816054 0.201813) 147
(-0.0364982 -0.0434649 0.211644) 1675
(-0.0505841 -0.0137333 0.208897) 954
(-0.042006 -0.0207457 0.215619) 1017
(-0.0443111 -0.0145652 0.217261) 1009
(-0.0449552 -0.0234205 0.207686) 962
(-0.0111606 -0.0509876 0.208321) 1690
(-0.057746 0.0118001 0.212334) 939
(0.049296 -0.0130452 0.200557) 130
(0.00423964 -0.0560222 0.21742) 1755
(-0.0165797 -0.0468813 0.211421) 1682
(-0.0545834 -0.0170683 0.207504) 955
(-0.0577578 -0.0144293 0.209518) 955
(0.0449541 -0.01067 0.206123) 185
(-0.0488135 0.0160631 0.222071) 994
(-0.0506826 -0.0119024 0.217162) 1010
(0.0477042 -0.0117486 0.19745) 130
(-0.02704 0.0437245 0.222324) 2554
(0.0135559 0.0523372 0.20393) 2418
(0.0103413 -0.0544341 0.219424) 1763
(-0.0428622 -0.0358616 0.210375) 971
(-0.0554543 -0.0107388 0.213577) 955
(-0.0497006 0.004787 0.223064) 1002
(0.0519387 -0.00613116 0.197132) 130
(0.0131859 -0.0488019 0.217398) 1762
(-0.0318899 -0.0455972 0.218608) 1731
(-0.0590029 -0.00675497 0.218306) 1011
(-0.0443434 -0.0249896 0.21159) 962
(-0.0117274 -0.0415137 0.215416) 1744
(-0.051442 -0.00391777 0.207971) 946
(-0.0109722 -0.0520265 0.210908) 1690
(-0.0538852 -0.00456339 0.208983) 946
(-0.0563361 -0.00187799 0.209957) 947
(-0.0228556 -0.0534782 0.211828) 1683
(-0.0579516 -0.00579746 0.211091) 947
(0.041233 -0.0373638 0.209786) 171
(-0.0499145 0.00241909 0.215757) 1002
(0.0137624 -0.0507231 0.21838) 1762
(-0.0104844 -0.0426823 0.214154) 1689
(-0.0106862 -0.0538725 0.217966) 1747
(-0.0482605 -0.0226348 0.213053) 962
(-0.00152433 -0.0491851 0.212031) 1698
(0.0138584 -0.0578953 0.206933) 1708
(0.0451571 -0.0141639 0.196511) 129
(0.0164719 -0.0513443 0.218369) 1762
(-0.0415549 -0.035647 0.214132) 971
(0.0409163 -0.0323822 0.210618) 170
(0.0248119 -0.0469005 0.211852) 1714
(0.0541187 -0.0127333 0.195646) 131
(-0.0463784 0.0108624 0.218657) 993
(-0.000810206 0.0537137 0.20442) 2426
(0.000218711 -0.0595024 0.211121) 1699
(-0.0410412 -0.0205769 0.217161) 1017
(-0.0357157 -0.0350293 0.218839) 1026
(-0.000936165 -0.0494874 0.217935) 1754
(0.0541147 0.00895908 0.200349) 147
(-0.0120472 -0.0422973 0.214818) 1745
(-0.0158187 -0.0455989 0.213003) 1689
(-0.0517817 -0.0235287 0.220213) 1019
(-0.0332922 -0.0470099 0.214507) 1731
(0.013937 -0.0535356 0.209373) 1707
(0.00268457 0.0542657 0.206115) 2483
(-0.049548 0.0123694 0.214427) 938
(0.0555512 0.00717243 0.202893) 147
(0.00801854 -0.0590402 0.208254) 1707
(-0.0450153 0.0119822 0.220952) 993
(0.0446041 -0.0109735 0.197108) 129
(0.0138463 -0.0465885 0.218127) 1761
(0.00279854 0.0515656 0.200849) 2426
(-0.0502324 -0.00314343 0.207476) 946
(-0.0384073 0.0391387 0.21494) 2563
(-0.0510081 -0.0186397 0.211618) 962
(-0.0432895 -0.0393884 0.209213) 971
(-0.0289065 0.0468942 0.212214) 2499
(-0.0521033 0.00103516 0.215998) 1002
(-0.0124977 -0.0423081 0.214829) 1745
(-0.0468143 -0.0234967 0.214684) 1018
(-0.0553839 0.00418003 0.214372) 947
(-0.057092 0.00801065 0.213321) 939
(0.0401158 -0.0377095 0.208951) 171
(-0.044197 0.0130011 0.22088) 993
(0.0140546 0.0514614 0.206209) 2474
(-0.0466581 0.0241154 0.217691) 986
(-0.00294683 -0.049239 0.216833) 1754
(-0.025115 -0.0493667 0.216631) 1739
(-0.0186971 -0.0523995 0.216378) 1739
(-0.0482999 -0.0152771 0.211563) 954
(-0.0271275 -0.05264 0.220852) 1739
(-0.0454547 -0.0326172 0.216041) 1027
(-0.05636 0.00511231 0.213654) 947
(-0.0493597 0.0116922 0.210867) 938
(-0.0413201 0.0384303 0.216742) 979
(-0.0214636 -0.051201 0.211784) 1683
(-0.0578475 0.0107081 0.212893) 939
(-0.0410084 0.0409615 0.212443) 923
(-0.0454633 0.0135394 0.222306) 993
(-0.023389 -0.0430502 0.219738) 1738
(-0.0226784 -0.0428128 0.222569) 1737
(-0.0522961 0.00190175 0.218596) 1002
(-0.0502768 -0.00207973 0.211343) 946
(-0.0160124 -0.0488748 0.215425) 1746
(-0.0128032 -0.0510634 0.214541) 1746
(0.0486252 0.0189761 0.195373) 154
(-0.0408601 0.0368228 0.214846) 979
(-0.000263057 -0.0538969 0.213302) 1698
(0.0109114 -0.0556133 0.20796) 1707
(-0.0387624 0.033262 0.221967) 978
(-0.0525411 -0.00965323 0.212991) 954
(0.0542268 -0.0133984 0.199034) 131
(-0.0495402 0.0215064 0.211849) 930
(-0.0441632 -0.0362522 0.211767) 971
(-0.026165 0.0429879 0.222297) 2554
(0.0516786 0.0066678 0.195674) 146
(-0.010729 -0.0550602 0.219189) 1747
(-0.05508 -0.0016118 0.211499) 947
(-0.0594028 -0.00362659 0.214304) 947
(0.0524816 -0.0232084 0.197277) 123
(0.00946174 -0.0561492 0.206904) 1707
(-0.0365971 0.034377 0.222523) 978
(-0.00411388 -0.050665 0.213748) 1698
(-0.0435379 0.035238 0.215569) 979
(-0.00294945 -0.0552557 0.208356) 1699
(-0.0204713 -0.056211 0.211303) 1684
(-0.0343772 -0.0320743 0.224366) 1025
(-0.0421653 -0.00930049 0.224853) 1064
(0.0140865 -0.0461639 0.218687) 1761
(-0.0488691 -0.0148985 0.213861) 954
(0.0450711 -0.0149075 0.197445) 129
(-0.0163178 -0.0492835 0.216758) 1746
(-0.0137245 -0.0537554 0.217732) 1747
(-0.0536693 0.0105622 0.212358) 939
(-0.0308446 0.0427702 0.22453) 2618
(0.0158506 -0.0516748 0.221314) 1762
(-0.0469869 0.0314799 0.220553) 979
(0.0498307 -0.0093022 0.194319) 74
(-0.0343515 -0.0379332 0.214126) 1674
(0.0456677 0.0245462 0.196405) 154
(5.58949e-05 -0.0487312 0.213138) 1697
(-0.0486719 0.0144163 0.211882) 938
(-0.0371528 -0.0342055 0.208961) 970
(-0.0461877 0.0147424 0.2247) 1049
(-0.0442914 0.0119844 0.220713) 993
(-0.0274696 -0.0409844 0.22097) 1730
(0.044237 -0.00835726 0.200682) 129
(0.0158875 -0.0486958 0.21733) 1762
(0.0507432 -0.00358045 0.19455) 82
(-0.0461106 -0.0233075 0.215211) 1018
(-0.0431995 0.0248236 0.212583) 930
(-0.0591422 0.00489284 0.215861) 1003
(0.0526993 -0.0219873 0.197654) 123
(-0.0567968 0.0166424 0.210322) 939
(-0.0329347 -0.0302696 0.219475) 1025
(0.0475889 -0.011164 0.200063) 130
(0.013103 0.048763 0.201175) 2418
(-0.0289332 0.0422556 0.218218) 2562
(-0.034447 0.033555 0.219171) 977
(-0.0171907 -0.052594 0.219126) 1747
(-0.0367035 -0.0408075 0.216231) 1731
(0.00196559 -0.0478158 0.21596) 1753
(-0.0270668 0.0424888 0.217679) 2562
(-0.056418 0.00510043 0.215966) 1003
(-0.0335652 0.0455207 0.214635) 2563
(-0.0505397 -0.00971148 0.219941) 1010
(-0.0413532 -0.0360707 0.219631) 1027
(-0.0534214 0.0200305 0.218457) 987
(0.0230627 -0.0483369 0.214234) 1714
(-0.0594721 -0.000778678 0.211414) 947
(-0.0322423 -0.0340632 0.219915) 1729
(-0.0248037 -0.0411339 0.221365) 1737
(-0.0354583 -0.0331479 0.220073) 1025
(0.0147051 -0.0461461 0.221206) 1761
(0.0110815 0.0517567 0.207066) 2474
(-0.00187615 -0.047659 0.218754) 1753
(-0.037303 -0.035766 0.218379) 1026
(-0.0525043 0.00392015 0.217578) 1002
(0.00203414 0.0532561 0.204884) 2482
(0.00213312 -0.0494339 0.218197) 1754
(-0.0110745 -0.0430295 0.217555) 1745
(0.0478381 -0.0101351 0.19157) 74
(-0.0546188 0.0144117 0.209945) 939
(-0.0437797 -0.00961312 0.226524) 1065
(-0.0249843 -0.0388591 0.224474) 1785
(-0.0452414 -0.00713754 0.221793) 1009
(0.0443222 -0.0144581 0.199489) 129
(0.00271073 -0.0507313 0.21768) 1754
(-0.0266825 -0.0473364 0.214485) 1683
(0.0590987 -0.00204961 0.199744) 139
(-0.046895 0.0366619 0.213501) 923
(-0.0415088 -0.0193447 0.222427) 1017
(-0.0445394 -0.0217158 0.222686) 1018
(-0.0461842 0.00460999 0.220525) 1001
(-0.0467713 -0.0097493 0.218359) 1009
(-0.0484659 -0.0234562 0.221843) 1018
(0.00080487 0.0520452 0.206017) 2482
(-0.0522774 -0.00461975 0.217667) 1002
(0.00238213 -0.050964 0.219885) 1754
(-0.0151485 -0.0501423 0.218824) 1746
(0.0526262 0.0111628 0.201303) 146
(-0.037142 -0.0362517 0.220323) 1026
(-0.0512206 -0.0015108 0.217034) 1002
(0.0582462 0.000163785 0.19968) 139
(-0.0312712 0.0434805 0.212005) 2506
(-0.0488264 0.0149685 0.220652) 994
(-0.0164398 -0.0478499 0.217773) 1746
(0.0254362 -0.0482328 0.220998) 1771
(-0.0546328 0.0174092 0.215887) 995
(-0.0485049 0.0133531 0.223681) 994
(-0.0170771 -0.0527782 0.22075) 1747
(-0.0514812 -0.0195786 0.220359) 1019
(-0.0467492 0.0313458 0.216954) 979
(-0.0534571 0.0199038 0.218316) 987
(-0.0495565 0.0010309 0.210345) 946
(-0.0463129 0.0223461 0.221486) 986
(-0.044721 -0.0264738 0.221681) 1018
(-0.00214632 -0.0464301 0.219524) 1753
(-0.05211 -0.0178973 0.220479) 1011
(-0.0273375 0.0399281 0.219505) 2561
(-0.0254087 -0.0485743 0.214841) 1739
(0.0571745 -0.00063879 0.19805) 139
(0.0132041 -0.0554194 0.212296) 1707
(-0.0400417 0.0319674 0.222608) 978
(-0.0263767 0.0469669 0.210908) 2498
(-0.0514678 -0.00447812 0.21705) 1002
(-0.0577581 -0.00536048 0.217743) 1003
(0.0595257 0.000660775 0.198682) 140
(-0.0238593 -0.0423926 0.222789) 1737
(-0.0515489 -0.0179204 0.214417) 955
(-0.0262074 0.0453328 0.210869) 2498
(-0.0471363 0.0319227 0.219677) 979
(-0.0309253 0.040631 0.218892) 2562
(-0.0366094 -0.0322338 0.210644) 969
(-0.0428746 -0.020559 0.222555) 1017
(-0.0516948 -0.000414193 0.220396) 1002
(-0.0270258 -0.0465495 0.22333) 1738
(-0.0367361 -0.0365105 0.221783) 1026
(0.010392 0.0529285 0.20869) 2474
(-0.0508004 0.00182373 0.217615) 1002
(-0.0501853 0.00857351 0.216485) 994
(-0.0278474 -0.0504468 0.216541) 1739
(-0.0424798 0.0238215 0.226587) 1041
(-0.0502456 -0.00114549 0.220365) 1002
(-0.00202476 -0.0474656 0.220416) 1753
(-0.0284729 -0.0426967 0.221063) 1730
(-0.0433469 -0.024645 0.216508) 1018
(-0.0175363 -0.0483489 0.219946) 1738
(-0.056719 -0.00910532 0.220758) 1011
(-0.0520138 -0.0154164 0.223831) 1011
(0.00492409 0.0542919 0.210276) 2483
(0.00250846 0.0486899 0.205048) 2481
(-0.0435792 -0.023234 0.214906) 1018