/*--------------------------------*- C++ -*----------------------------------*\
| =========                 |                                                 |
| \\      /  F ield         | OpenFOAM: The Open Source CFD Toolbox           |
|  \\    /   O peration     | Version:  plus.master.MPPICInterFoam            |
|   \\  /    A nd           | Web:      www.OpenFOAM.com                      |
|    \\/     M anipulation  |                                                 |
\*---------------------------------------------------------------------------*/
FoamFile
{
    version     2.0;
    format      ascii;
    class       vectorField;
    location    "6.8/lagrangian/kinematicCloud";
    object      UCorrect;
}
// * * * * * * * * * * * * * * * * * * * * * * * * * * * * * * * * * * * * * //


93461
(
(-4.40835e-05 0.00317404 4.57292e-05)
(0.000189847 -6.06053e-05 3.54848e-05)
(-1.12539e-07 2.1349e-05 5.19472e-07)
(2.44853e-06 3.70231e-05 4.06158e-05)
(1.93662e-05 -3.15692e-05 2.51751e-05)
(-7.09718e-05 -0.00010922 4.23168e-05)
(7.98742e-05 -0.000120342 4.03921e-05)
(4.93007e-06 0.000165566 0.00102603)
(2.98232e-05 4.49518e-05 3.77382e-05)
(1.83601e-06 1.09836e-05 8.33682e-07)
(3.30169e-05 4.31213e-05 3.64658e-05)
(8.17242e-05 9.68868e-05 0.000816999)
(-0.000141395 9.7495e-05 0.000997129)
(5.10054e-05 9.8564e-05 0.000941946)
(0.000127795 -1.43756e-10 3.64673e-05)
(0.000104372 4.74661e-05 2.81349e-05)
(2.00416e-05 0.00293175 4.72402e-05)
(-7.74837e-05 3.87141e-05 4.2502e-05)
(4.19608e-05 8.04144e-05 3.78855e-05)
(1.66029e-05 8.8568e-06 3.42919e-05)
(-5.32797e-05 6.14913e-05 0.000895615)
(3.74923e-07 7.69732e-05 1.1818e-06)
(-7.07162e-05 -3.40551e-05 3.30744e-05)
(-3.9552e-05 -1.85428e-05 4.36127e-05)
(0.000189847 -6.06053e-05 3.89286e-05)
(-1.84774e-05 -2.02728e-05 0.000775496)
(-6.47855e-05 6.69655e-05 0.000892848)
(-4.56974e-12 7.88787e-05 2.75876e-06)
(-8.42689e-05 -4.05818e-05 0.000963743)
(4.92894e-05 -9.1858e-05 3.95976e-05)
(-0.000164438 -3.2687e-05 3.32602e-05)
(4.42697e-05 -7.25769e-05 4.05007e-05)
(-5.58954e-05 2.69167e-05 4.24808e-05)
(-7.23739e-05 7.72364e-05 0.000923251)
(-0.000109637 7.61946e-05 3.63512e-05)
(5.3812e-05 8.3445e-05 3.27946e-05)
(6.36366e-07 -1.40026e-06 3.56188e-05)
(1.83601e-06 1.09836e-05 9.72232e-07)
(6.39861e-05 0.000156572 1.00321e-07)
(-4.01712e-05 1.16481e-06 3.35776e-05)
(-4.02625e-05 4.56217e-06 3.39813e-05)
(-4.60724e-05 -5.7308e-05 4.22013e-05)
(-1.02889e-05 7.40764e-05 4.19395e-05)
(-7.74837e-05 3.87141e-05 3.91495e-05)
(-3.40137e-05 6.18842e-05 4.33904e-05)
(4.92894e-05 -9.1858e-05 3.67828e-05)
(4.58598e-11 4.6354e-05 1.7401e-05)
(-0.000140712 0.000168259 4.83591e-05)
(-4.60724e-05 -5.7308e-05 3.64351e-05)
(5.26439e-06 3.4529e-05 4.13464e-05)
(5.04927e-05 -7.628e-05 3.23411e-05)
(-5.15107e-06 2.4331e-05 4.10066e-05)
(0.000108341 -0.00012361 3.64543e-05)
(-1.89709e-06 -4.96187e-05 3.74693e-05)
(4.14929e-05 -8.94848e-05 3.74098e-05)
(2.98232e-05 4.49518e-05 3.54079e-05)
(0.000193292 0.00012725 3.83975e-05)
(2.95418e-06 -0.00322861 4.68805e-05)
(-3.40137e-05 6.18842e-05 3.98374e-05)
(8.25922e-06 2.07874e-06 3.39139e-05)
(8.46331e-05 -5.29759e-05 0.000795221)
(4.42697e-05 -7.25769e-05 3.848e-05)
(5.23431e-05 5.86114e-05 0.000934977)
(-3.40137e-05 6.18842e-05 3.99028e-05)
(0.000517513 -3.29916e-05 0.00113643)
(-7.07162e-05 -3.40551e-05 4.28544e-05)
(-4.56974e-12 7.88787e-05 3.05191e-06)
(-6.38936e-05 0.000257636 4.46502e-05)
(-6.54047e-05 -1.87155e-12 3.05638e-06)
(5.04927e-05 -7.628e-05 3.05437e-05)
(0.000108341 -0.00012361 3.86692e-05)
(0.000152201 0.000148186 4.2769e-05)
(2.98232e-05 4.49518e-05 4.18476e-05)
(3.73367e-05 3.28239e-05 0.00096573)
(-1.02889e-05 7.40764e-05 3.9906e-05)
(0.000181541 -5.57381e-05 3.68587e-05)
(1.64844e-05 -9.77034e-12 3.314e-05)
(0.00311367 5.07607e-05 1.0163e-05)
(-5.56774e-05 -0.000105085 4.24628e-05)
(3.19979e-05 0.000112157 0.000997075)
(-0.000109637 7.61946e-05 3.19797e-05)
(4.15088e-05 -5.98296e-06 3.32281e-05)
(-6.31897e-05 3.04306e-05 4.19553e-05)
(7.89273e-05 6.89237e-05 0.000928402)
(-8.19898e-05 8.66127e-05 0.000817047)
(-2.66595e-05 3.80072e-05 4.08789e-05)
(0.000101204 -4.36639e-05 3.99101e-05)
(-4.49455e-08 2.01552e-05 8.36321e-07)
(0.000141464 -1.17557e-05 3.6736e-05)
(-0.000344485 -9.40504e-05 3.64862e-05)
(2.74039e-05 0.000160519 4.15195e-05)
(-6.07956e-05 -4.65577e-06 4.20337e-05)
(6.1071e-05 -8.73995e-05 3.66736e-05)
(-3.9552e-05 -1.85428e-05 3.87807e-05)
(7.25953e-05 -0.000112981 4.0069e-05)
(-9.85923e-05 -7.68511e-05 0.000877232)
(5.38611e-05 8.70694e-05 3.93731e-05)
(-4.01712e-05 1.16481e-06 3.35613e-05)
(4.03565e-05 -5.34943e-06 2.96387e-05)
(-0.00362677 0.000142784 1.23589e-05)
(9.38135e-05 -8.54911e-07 5.71642e-07)
(-6.52831e-05 -3.97308e-05 3.83578e-05)
(0.000127795 -1.43756e-10 3.68076e-05)
(-0.000219299 -0.000113963 0.000895514)
(0.000178456 -0.00014256 4.47021e-05)
(-5.58954e-05 2.69167e-05 4.60265e-05)
(-4.49455e-08 2.01552e-05 8.10638e-07)
(-3.40137e-05 6.18842e-05 4.09142e-05)
(8.30683e-05 -7.72138e-05 3.24299e-07)
(-5.94509e-05 4.10502e-05 3.82764e-05)
(-3.56019e-05 4.98837e-05 3.96402e-05)
(4.42697e-05 -7.25769e-05 3.99239e-05)
(-2.39387e-06 -8.11968e-06 4.15654e-05)
(4.19608e-05 8.04144e-05 3.87926e-05)
(-6.52831e-05 -3.97308e-05 3.99579e-05)
(3.21646e-05 -3.6912e-05 4.01536e-05)
(6.19245e-05 0.000146346 4.1317e-05)
(-6.19517e-05 -2.98344e-05 3.90259e-05)
(0.000120432 -0.000124885 4.16507e-05)
(3.21646e-05 -3.6912e-05 3.95843e-05)
(0.000107572 -3.91015e-06 4.16047e-05)
(2.44853e-06 3.70231e-05 3.99648e-05)
(0.000118775 -0.000128242 4.21544e-05)
(-7.09718e-05 -0.00010922 4.30765e-05)
(0.000114061 0.000141771 4.26091e-05)
(-3.05974e-05 -0.00010992 4.03116e-05)
(6.06342e-05 0.000102339 3.59695e-05)
(3.24731e-12 0.000130722 6.26711e-07)
(0.000152201 0.000148186 3.96662e-05)
(0.000107572 -3.91015e-06 3.72854e-05)
(0.000189847 -6.06053e-05 3.97023e-05)
(-6.52831e-05 -3.97308e-05 4.09546e-05)
(3.99293e-05 6.64763e-05 0.000926757)
(3.52083e-05 5.66732e-05 3.57416e-05)
(6.27019e-05 0.000102067 3.94348e-05)
(-4.56974e-12 7.88787e-05 2.83594e-06)
(4.2454e-05 4.34501e-05 3.91179e-05)
(0.000106138 1.9785e-05 0.000963326)
(-4.49455e-08 2.01552e-05 8.01167e-07)
(-3.40137e-05 6.18842e-05 3.80084e-05)
(-8.25056e-05 8.3118e-05 0.000810725)
(5.52122e-05 7.53592e-05 4.03767e-05)
(-3.9552e-05 -1.85428e-05 4.23709e-05)
(4.93007e-06 0.000151003 0.00102603)
(0.000108341 -0.00012361 3.73372e-05)
(-8.37554e-05 -8.72192e-05 0.000894044)
(1.18729e-05 -5.24222e-05 2.17274e-05)
(2.69809e-05 0.000127691 0.000958547)
(-8.40031e-05 -4.04537e-05 0.000963743)
(0.000139247 -2.13216e-05 2.79959e-05)
(-5.8008e-05 -4.04103e-05 4.23494e-05)
(0.000108536 0.000105244 3.44e-05)
(0.000197464 -0.000155184 0.0010935)
(2.98232e-05 4.49518e-05 3.70173e-05)
(0.000189847 -6.06053e-05 3.98877e-05)
(3.9216e-05 2.84284e-05 3.94744e-05)
(-4.02625e-05 4.56217e-06 3.24814e-05)
(-3.9552e-05 -1.85428e-05 3.73116e-05)
(7.27206e-05 5.73459e-06 4.04986e-05)
(4.09341e-05 -0.00321013 5.15927e-05)
(-2.39387e-06 -8.11968e-06 3.38658e-05)
(7.98742e-05 -0.000120342 3.78199e-05)
(-4.26561e-05 6.70443e-05 3.92595e-05)
(1.80972e-05 -4.54019e-05 0.00101308)
(-9.44429e-05 -0.000123971 0.00101505)
(8.97366e-05 -2.85939e-06 1.67212e-06)
(2.95418e-06 -0.00322861 5.12068e-05)
(6.4425e-07 -1.41733e-05 3.18822e-05)
(0.000215576 0.000140132 4.58173e-05)
(0.000189847 -6.06053e-05 3.92103e-05)
(2.95418e-06 -0.00322861 5.00789e-05)
(-7.57119e-05 3.94783e-05 3.64857e-05)
(5.04927e-05 -7.628e-05 3.38864e-05)
(0.00299932 -3.11642e-05 4.10506e-05)
(-5.15107e-06 2.4331e-05 3.81138e-05)
(-2.84053e-06 -0.000102373 4.53421e-05)
(-0.00362677 0.000142784 1.26938e-05)
(-6.54047e-05 -1.87155e-12 3.03702e-06)
(-6.36952e-05 -5.8059e-05 9.66599e-05)
(0.000153488 -0.000129904 3.87575e-05)
(-0.000465371 -0.000209196 4.25864e-05)
(-6.31897e-05 3.04306e-05 3.67595e-05)
(-6.31897e-05 3.04306e-05 4.09888e-05)
(-3.9552e-05 -1.85428e-05 4.2449e-05)
(5.26343e-07 4.814e-05 1.62063e-06)
(2.78452e-05 8.59843e-05 3.5012e-05)
(0.000114487 0.000115138 0.000959057)
(-4.6858e-07 -4.55678e-05 3.55414e-05)
(-3.77599e-05 -6.07042e-05 3.51181e-05)
(0.000189847 -6.06053e-05 3.88593e-05)
(2.78452e-05 8.59843e-05 3.37322e-05)
(1.66029e-05 8.8568e-06 3.30871e-05)
(-3.48165e-05 4.20249e-05 3.76156e-05)
(2.37077e-05 3.24383e-05 3.19298e-05)
(-0.000109755 -9.66615e-05 0.000865615)
(-2.61407e-05 -0.000400654 4.40447e-05)
(3.70238e-07 -0.000171507 3.83409e-05)
(6.06342e-05 0.000102339 3.56278e-05)
(0.000113322 -0.00010024 0.000795221)
(2.98232e-05 4.49518e-05 3.71913e-05)
(4.19608e-05 8.04144e-05 4.18509e-05)
(5.26343e-07 4.814e-05 1.66297e-06)
(9.0525e-05 -0.000117499 3.37761e-05)
(-6.33143e-05 6.59719e-05 0.000908427)
(-2.64822e-05 -4.22818e-05 4.02832e-05)
(0.000122611 -2.47267e-05 0.000952181)
(7.26629e-05 -5.96461e-06 0.000932313)
(-4.49455e-08 3.08414e-05 1.97538e-05)
(-7.09718e-05 -0.00010922 4.20208e-05)
(1.88866e-05 -2.04842e-05 4.07495e-05)
(3.21646e-05 -3.6912e-05 4.26695e-05)
(0.000108536 0.000105244 4.22107e-05)
(9.0525e-05 -0.000117499 4.0818e-05)
(-7.07162e-05 -3.40551e-05 4.00784e-05)
(0.000125043 -9.77034e-12 0.000765427)
(-7.24759e-05 7.71344e-05 0.000923251)
(-0.00010873 -9.76864e-05 0.000865615)
(3.90202e-05 4.22491e-05 2.56043e-05)
(0.000158963 -2.74258e-05 0.000899398)
(8.97366e-05 -2.85939e-06 1.58187e-06)
(-3.67798e-05 -1.07826e-06 2.81646e-05)
(-8.05557e-05 -9.04189e-05 0.000894044)
(1.54248e-05 8.31177e-05 4.36034e-05)
(0.000118775 -0.000128242 4.01026e-05)
(-5.58954e-05 2.69167e-05 4.26896e-05)
(-0.00362677 0.000142784 1.35497e-05)
(3.74923e-07 7.69732e-05 1.1671e-06)
(1.88866e-05 -2.04842e-05 3.63166e-05)
(6.19245e-05 0.000146346 4.05502e-05)
(-5.37072e-05 6.10638e-05 0.000895615)
(5.83897e-05 -7.88429e-05 4.18064e-05)
(4.92894e-05 -9.1858e-05 4.35404e-05)
(-3.57806e-11 -9.87805e-05 5.22137e-07)
(0.000105998 -0.00323962 4.82369e-05)
(-0.00362677 0.000142784 1.05611e-05)
(9.82386e-05 5.24546e-06 3.93495e-05)
(1.52851e-06 9.7924e-06 4.40624e-05)
(-8.40042e-05 8.16193e-05 0.000810725)
(0.000108341 -0.00012361 3.91045e-05)
(0.000113196 -0.000100211 0.000795221)
(-8.33049e-05 0.000101073 4.06621e-05)
(-5.96689e-05 8.98721e-05 0.000926757)
(-4.60724e-05 -5.7308e-05 4.20824e-05)
(1.02519e-06 1.86917e-05 9.56162e-07)
(-4.56974e-12 7.88787e-05 2.85226e-06)
(-3.40137e-05 6.18842e-05 3.96946e-05)
(2.78452e-05 8.59843e-05 3.29582e-05)
(-3.40137e-05 6.18842e-05 3.80534e-05)
(-7.09718e-05 -0.00010922 4.25035e-05)
(4.19608e-05 8.04144e-05 3.87078e-05)
(-0.00371163 0.000152853 4.27645e-05)
(-1.93629e-05 -1.30787e-05 0.000654305)
(0.000129824 8.60054e-05 3.72768e-05)
(-4.26561e-05 6.70443e-05 4.38755e-05)
(3.74923e-07 7.69732e-05 1.17077e-06)
(-5.58954e-05 2.69167e-05 4.19744e-05)
(-4.26561e-05 6.70443e-05 4.41486e-05)
(4.42491e-05 -6.96355e-05 3.98339e-05)
(0.000118775 -0.000128242 4.09613e-05)
(-5.58954e-05 2.69167e-05 4.51635e-05)
(-7.48451e-05 -6.33225e-05 0.000496755)
(-9.33514e-05 9.084e-05 0.000956207)
(-3.9552e-05 -1.85428e-05 4.1571e-05)
(0.000127795 -1.43756e-10 3.62012e-05)
(0.000198742 -0.000145242 0.00105918)
(-4.49455e-08 2.01552e-05 7.88458e-07)
(-3.39264e-05 0.000283183 4.6607e-05)
(4.19608e-05 8.04144e-05 3.88019e-05)
(-8.35986e-05 8.23655e-05 0.000873549)
(-0.000146301 -8.07538e-06 3.1498e-05)
(0.000229264 -0.000532779 3.21925e-05)
(0.000107572 -3.91015e-06 3.73035e-05)
(0.000119579 3.85712e-05 0.00100512)
(0.00314131 -4.05226e-05 0.000227476)
(4.2454e-05 4.34501e-05 4.17409e-05)
(-1.89842e-06 -0.000112764 4.32429e-05)
(-3.11636e-05 -2.58133e-05 3.36784e-05)
(-7.24288e-07 2.74989e-05 4.28937e-05)
(-7.74837e-05 3.87141e-05 3.71876e-05)
(6.4425e-07 -1.41733e-05 3.53933e-05)
(2.98232e-05 4.49518e-05 4.34113e-05)
(0.000144033 -0.000161125 0.000982634)
(2.98232e-05 4.49518e-05 4.04772e-05)
(-3.89374e-05 6.03124e-05 4.34453e-05)
(-1.94088e-05 6.84401e-05 2.77229e-05)
(-6.31897e-05 3.04306e-05 4.33955e-05)
(2.95418e-06 -0.00322861 5.81944e-05)
(0.000134148 -3.84328e-06 4.06583e-05)
(9.15663e-05 6.18698e-05 0.000825992)
(0.000108536 0.000105244 3.71675e-05)
(0.000152201 0.000148186 3.63552e-05)
(-6.00112e-06 -2.77545e-06 3.14925e-05)
(-5.56774e-05 -0.000105085 4.38138e-05)
(-1.12539e-07 2.1349e-05 5.15428e-07)
(-6.00112e-06 -2.77545e-06 3.29998e-05)
(0.000139247 -2.13216e-05 2.74255e-05)
(2.74039e-05 0.000160519 4.4713e-05)
(-4.63244e-05 -0.00034021 3.60237e-05)
(8.59387e-05 -5.16662e-05 0.000984958)
(-5.74075e-05 -3.20874e-05 3.94933e-05)
(0.000374269 -1.71758e-05 0.00113637)
(-7.27659e-05 -6.89851e-05 0.000916133)
(-9.46642e-06 0.000141703 3.78744e-05)
(-3.0744e-05 -2.05519e-05 3.87227e-05)
(-6.31897e-05 3.04306e-05 4.25108e-05)
(-7.07162e-05 -3.40551e-05 3.53312e-05)
(-4.60724e-05 -5.7308e-05 3.97122e-05)
(0.000112812 7.01519e-05 3.59451e-05)
(0.000118775 -0.000128242 3.95292e-05)
(-6.19517e-05 -2.98344e-05 3.87988e-05)
(-7.09718e-05 -0.00010922 3.75205e-05)
(3.74923e-07 7.69732e-05 1.04752e-06)
(-7.7427e-06 3.13333e-05 3.49442e-05)
(2.98232e-05 4.49518e-05 3.82334e-05)
(-2.64822e-05 -4.22818e-05 4.60053e-05)
(-7.24288e-07 2.74989e-05 4.15502e-05)
(2.98232e-05 4.49518e-05 3.3608e-05)
(4.03565e-05 -5.34943e-06 2.98133e-05)
(-8.10712e-05 -9.47422e-05 0.000900711)
(3.21646e-05 -3.6912e-05 4.2859e-05)
(-6.31897e-05 3.04306e-05 4.11682e-05)
(7.25953e-05 -0.000112981 4.05407e-05)
(-6.34509e-05 6.83001e-05 0.000892848)
(1.84926e-07 4.89527e-07 4.4041e-05)
(-0.000212876 -8.01022e-06 4.00626e-05)
(4.8029e-05 -3.4629e-05 3.62694e-05)
(-5.56774e-05 -0.000105085 4.1571e-05)
(9.02485e-06 -1.3519e-07 3.84e-05)
(0.000102631 0.00014202 4.43549e-05)
(-7.8442e-05 8.26361e-05 0.000813615)
(-7.74837e-05 3.87141e-05 3.9157e-05)
(3.24731e-12 0.000130722 5.48094e-07)
(4.19608e-05 8.04144e-05 3.54497e-05)
(-7.57119e-05 3.94783e-05 3.6576e-05)
(-0.000186671 1.12272e-05 3.65302e-05)
(-5.97219e-05 -0.000123221 4.35912e-05)
(-9.01476e-05 -5.55383e-05 0.000980374)
(-3.40137e-05 6.18842e-05 3.75884e-05)
(-7.06482e-05 2.49721e-05 4.03526e-05)
(2.98232e-05 4.49518e-05 3.94606e-05)
(-3.01029e-06 -2.2448e-05 2.68477e-05)
(-2.49833e-05 5.14187e-06 1.90518e-05)
(7.98742e-05 -0.000120342 4.01278e-05)
(-1.63316e-05 -0.000168075 0.000952467)
(0.000233551 -0.000158765 0.0010935)
(3.99866e-05 -5.89488e-05 4.46223e-05)
(-6.31897e-05 3.04306e-05 3.75933e-05)
(-0.000107743 -9.86732e-05 0.000865615)
(1.84926e-07 4.89527e-07 4.03162e-05)
(0.000121584 -2.26389e-05 4.21607e-05)
(0.000153488 -0.000129904 3.48676e-05)
(6.83593e-05 0.000106793 3.94974e-05)
(-4.60724e-05 -5.7308e-05 4.0502e-05)
(5.26343e-07 4.814e-05 1.75603e-06)
(0.000127795 -1.43756e-10 3.77227e-05)
(-3.40137e-05 6.18842e-05 3.73438e-05)
(-2.64822e-05 -4.22818e-05 4.58513e-05)
(3.24731e-12 0.000130722 6.10508e-07)
(6.26198e-05 -5.30183e-06 3.52427e-05)
(5.83897e-05 -7.88429e-05 4.67145e-05)
(-1.89709e-06 -4.96187e-05 3.72847e-05)
(0.000177164 0.000131051 4.09431e-05)
(-5.15107e-06 2.4331e-05 4.2453e-05)
(0.000107572 -3.91015e-06 4.58234e-05)
(3.24731e-12 0.000130722 6.73451e-07)
(-8.2189e-05 8.64135e-05 0.000817047)
(6.29293e-05 2.31207e-06 3.98897e-05)
(-4.60724e-05 -5.7308e-05 4.22368e-05)
(-1.36517e-05 6.71651e-07 5.16337e-07)
(-3.40137e-05 6.18842e-05 3.97884e-05)
(5.10964e-05 0.000140393 0.000952863)
(-7.7427e-06 3.13333e-05 3.69685e-05)
(4.92894e-05 -9.1858e-05 3.6789e-05)
(-6.72102e-05 4.06443e-06 3.645e-05)
(-7.09718e-05 -0.00010922 3.73213e-05)
(4.2454e-05 4.34501e-05 3.65128e-05)
(0.000263827 -0.00010479 4.5487e-05)
(0.000114682 9.26217e-05 0.000939696)
(5.38611e-05 8.70694e-05 3.96034e-05)
(6.4425e-07 -1.41733e-05 3.3514e-05)
(7.98742e-05 -0.000120342 4.11679e-05)
(-0.000172129 -6.50552e-06 3.18566e-05)
(1.13574e-05 -1.0596e-05 0.000794971)
(7.73766e-05 6.77929e-05 0.000928402)
(-2.64822e-05 -4.22818e-05 4.29437e-05)
(-7.09718e-05 -0.00010922 3.6744e-05)
(0.000193292 0.00012725 3.91062e-05)
(1.12438e-05 -4.21815e-05 0.000826601)
(1.44547e-05 -2.42264e-05 3.11024e-05)
(-4.60724e-05 -5.7308e-05 4.21064e-05)
(3.24731e-12 0.000130722 6.34277e-07)
(7.8669e-05 6.87493e-05 4.20417e-05)
(4.2454e-05 4.34501e-05 4.22985e-05)
(-3.40137e-05 6.18842e-05 3.92198e-05)
(-0.00328469 -0.000388527 4.32973e-05)
(-7.07162e-05 -3.40551e-05 3.84141e-05)
(-6.31897e-05 3.04306e-05 3.80577e-05)
(1.27467e-05 1.06414e-05 4.49296e-05)
(-7.07162e-05 -3.40551e-05 3.93295e-05)
(-2.64822e-05 -4.22818e-05 4.27783e-05)
(9.0525e-05 -0.000117499 3.60081e-05)
(4.19608e-05 8.04144e-05 3.90887e-05)
(9.38135e-05 -8.54911e-07 5.88511e-07)
(-5.17293e-07 -5.82712e-05 4.04148e-05)
(0.000114435 0.000115052 0.000959057)
(-8.07194e-05 -9.5094e-05 0.000900711)
(0.000175367 6.66197e-05 0.000826167)
(0.000126163 -1.3519e-07 1.53342e-06)
(-1.63316e-05 -0.000778588 4.08702e-05)
(5.26343e-07 4.814e-05 1.74343e-06)
(-8.05635e-05 8.54006e-05 0.000873549)
(-0.000344485 -9.40504e-05 3.68262e-05)
(-3.48767e-06 5.90957e-08 3.62529e-06)
(-7.74837e-05 3.87141e-05 4.03941e-05)
(4.15088e-05 -5.98296e-06 3.95103e-05)
(-3.57806e-11 -9.87805e-05 4.99492e-07)
(-3.9552e-05 -1.85428e-05 4.07669e-05)
(-6.00112e-06 -2.77545e-06 3.34115e-05)
(0.000181541 -5.57381e-05 3.72775e-05)
(-0.00035587 -1.87155e-12 7.25976e-05)
(5.26439e-06 3.4529e-05 4.38734e-05)
(5.61825e-05 -9.73477e-05 3.87713e-05)
(-2.64822e-05 -4.22818e-05 3.72609e-05)
(-4.40835e-05 0.00317404 4.83083e-05)
(-2.39387e-06 -8.11968e-06 3.84529e-05)
(4.19608e-05 8.04144e-05 3.56808e-05)
(0.000135228 8.9259e-05 3.97721e-05)
(0.000167075 0.000133312 0.000939696)
(-8.11206e-05 -9.46927e-05 0.000900711)
(-6.19517e-05 -2.98344e-05 3.52593e-05)
(-4.01712e-05 1.16481e-06 3.67646e-05)
(4.2454e-05 4.34501e-05 3.8989e-05)
(1.44534e-05 -2.42208e-05 0.000802462)
(-3.56019e-05 4.98837e-05 4.22221e-05)
(-9.4668e-05 -8.07754e-05 0.000877232)
(6.36366e-07 -1.40026e-06 3.45907e-05)
(-1.02889e-05 7.40764e-05 3.94633e-05)
(-6.31897e-05 3.04306e-05 4.5721e-05)
(-4.01712e-05 1.16481e-06 3.61448e-05)
(-0.000474256 6.4569e-05 4.40889e-05)
(2.00701e-05 -6.83954e-06 2.80238e-05)
(3.20224e-05 0.000200625 3.06376e-05)
(3.21646e-05 -3.6912e-05 4.60611e-05)
(0.000181541 -5.57381e-05 3.59594e-05)
(-3.9552e-05 -1.85428e-05 4.5099e-05)
(0.000105998 -0.00323962 5.18171e-05)
(-0.000215044 -2.94114e-07 0.000894044)
(-7.7427e-06 3.13333e-05 3.84471e-05)
(0.000263827 -0.00010479 4.32475e-05)
(0.000118775 -0.000128242 4.21046e-05)
(0.000105998 -0.00323962 5.63289e-05)
(0.000175674 6.70044e-05 0.000826167)
(-8.34289e-05 8.25352e-05 0.000873549)
(4.2454e-05 4.34501e-05 4.42743e-05)
(4.11455e-05 9.06126e-05 4.14917e-05)
(-2.84053e-06 -0.000102373 4.54183e-05)
(-1.02889e-05 7.40764e-05 3.82115e-05)
(6.83593e-05 0.000106793 3.83646e-05)
(0.00311367 5.07607e-05 1.01849e-05)
(3.52083e-05 5.66732e-05 4.16676e-05)
(8.60872e-05 0.000189437 3.84372e-05)
(0.000193292 0.00012725 3.41893e-05)
(0.00299932 -3.11642e-05 3.78093e-05)
(5.20249e-05 -9.50645e-05 0.000987564)
(9.0525e-05 -0.000117499 4.21485e-05)
(9.0525e-05 -0.000117499 3.73945e-05)
(-7.07162e-05 -3.40551e-05 4.58469e-05)
(7.27206e-05 5.73459e-06 4.54847e-05)
(8.19017e-09 -5.12639e-11 5.72287e-05)
(-8.40385e-05 -4.04708e-05 0.000963743)
(-7.09718e-05 -0.00010922 3.72781e-05)
(3.24731e-12 0.000130722 5.62691e-07)
(-9.79185e-05 -7.75249e-05 0.000877232)
(1.84926e-07 4.89527e-07 4.10948e-05)
(8.02531e-06 -2.65581e-07 4.99674e-07)
(-5.94509e-05 4.10502e-05 3.85826e-05)
(5.97673e-05 7.94016e-05 0.00096573)
(2.74039e-05 0.000160519 4.44613e-05)
(1.64844e-05 -9.77034e-12 2.99584e-05)
(-7.7427e-06 3.13333e-05 3.58086e-05)
(4.42697e-05 -7.25769e-05 3.89605e-05)
(-3.89374e-05 6.03124e-05 4.42647e-05)
(-7.53296e-05 3.76767e-05 0.000966359)
(0.000271619 0.000128803 5.21141e-05)
(0.000130639 8.0065e-06 4.06861e-05)
(-6.72102e-05 4.06443e-06 3.53862e-05)
(1.44547e-05 -2.42264e-05 3.26926e-05)
(0.000107572 -3.91015e-06 4.24177e-05)
(4.42697e-05 -7.25769e-05 3.72772e-05)
(-8.29275e-05 7.88747e-05 0.000874639)
(4.2454e-05 4.34501e-05 4.21869e-05)
(0.000178456 -0.00014256 4.21503e-05)
(-0.000279462 9.38083e-05 3.34995e-05)
(-3.77599e-05 -6.07042e-05 3.07665e-05)
(1.38714e-05 0.000128175 0.000930305)
(-2.39387e-06 -8.11968e-06 4.40692e-05)
(-6.07874e-05 -2.92737e-05 0.00093814)
(-3.40137e-05 6.18842e-05 3.88092e-05)
(0.000189847 -6.06053e-05 3.78975e-05)
(-6.2019e-05 -6.72913e-05 4.05458e-05)
(5.3812e-05 8.3445e-05 3.3957e-05)
(-2.64822e-05 -4.22818e-05 4.80934e-05)
(0.000127795 -1.43756e-10 3.8124e-05)
(-7.07162e-05 -3.40551e-05 4.06031e-05)
(-4.40835e-05 0.00317404 4.91894e-05)
(4.07477e-06 0.000170039 3.71822e-05)
(0.000189847 -6.06053e-05 3.91523e-05)
(0.000181541 -5.57381e-05 3.90975e-05)
(0.000109952 -0.000127327 0.000899398)
(6.19245e-05 0.000146346 4.03015e-05)
(-0.000108576 -9.78403e-05 0.000865615)
(-7.43157e-05 -5.7929e-05 0.000948079)
(-6.89541e-05 6.92711e-05 0.00090748)
(-9.36578e-05 4.81206e-05 0.000932895)
(-3.9552e-05 -1.85428e-05 4.27778e-05)
(-1.36517e-05 6.71651e-07 5.00287e-07)
(1.44547e-05 -2.42264e-05 3.32399e-05)
(-4.56974e-12 7.88787e-05 2.98088e-06)
(-0.00362677 0.000142784 1.38757e-05)
(-4.01712e-05 1.16481e-06 3.57685e-05)
(-1.59715e-05 1.09099e-05 4.5055e-07)
(-4.50416e-05 -8.08208e-05 0.00100664)
(-6.54047e-05 -1.87155e-12 3.27649e-06)
(6.83593e-05 0.000106793 4.08349e-05)
(0.000127795 -1.43756e-10 3.82065e-05)
(5.04927e-05 -7.628e-05 3.13217e-05)
(4.19608e-05 8.04144e-05 3.5698e-05)
(-4.43823e-05 7.16189e-05 0.000930683)
(0.000127795 -1.43756e-10 3.99197e-05)
(8.25922e-06 2.07874e-06 3.56104e-05)
(-4.01712e-05 1.16481e-06 3.79067e-05)
(-4.60724e-05 -5.7308e-05 3.97311e-05)
(0.000127936 -0.000220678 0.000755697)
(4.19608e-05 8.04144e-05 3.93706e-05)
(0.000189847 -6.06053e-05 3.95269e-05)
(1.84926e-07 4.89527e-07 4.41326e-05)
(-7.85359e-05 9.00666e-05 0.000817047)
(-9.38999e-05 4.82372e-05 0.000932895)
(-8.16974e-05 -9.41159e-05 0.000900711)
(-0.000126673 -6.45537e-05 0.00097018)
(-3.40308e-05 -0.000115169 3.7483e-05)
(5.04927e-05 -7.628e-05 3.04699e-05)
(-2.64822e-05 -4.22818e-05 3.73266e-05)
(0.000177428 0.000122554 4.18332e-05)
(-8.33049e-05 0.000101073 4.04661e-05)
(0.000121584 -2.26389e-05 4.06078e-05)
(3.21646e-05 -3.6912e-05 4.62004e-05)
(3.74923e-07 3.93226e-05 2.78372e-05)
(3.70238e-07 -0.000171507 4.09471e-05)
(-2.93235e-06 6.18748e-05 3.43364e-05)
(-4.56974e-12 7.88787e-05 2.80498e-06)
(-0.000474256 6.4569e-05 4.37217e-05)
(1.84926e-07 4.89527e-07 4.04141e-05)
(-3.40137e-05 6.18842e-05 4.31615e-05)
(-9.81393e-05 -7.73042e-05 0.000877232)
(-5.17293e-07 -5.82712e-05 3.79025e-05)
(5.3812e-05 8.3445e-05 3.54432e-05)
(-4.49455e-08 2.01552e-05 8.42416e-07)
(0.00288066 -6.1666e-05 0.000187907)
(-2.39387e-06 -8.11968e-06 3.72546e-05)
(-7.10915e-05 -7.06595e-05 0.000916133)
(-7.07162e-05 -3.40551e-05 4.28559e-05)
(0.000102507 6.80845e-05 4.58208e-05)
(0.000127795 -1.43756e-10 4.21112e-05)
(-6.66875e-05 -0.000105266 3.86187e-05)
(7.98742e-05 -0.000120342 4.10323e-05)
(-8.01201e-05 8.5844e-05 0.000873549)
(-7.07162e-05 -3.40551e-05 4.05024e-05)
(0.000104372 4.74661e-05 2.82029e-05)
(-1.94088e-05 0.000125368 0.000716565)
(2.98232e-05 4.49518e-05 4.04924e-05)
(-7.53121e-05 3.76683e-05 0.000966359)
(-3.9552e-05 -1.85428e-05 4.32512e-05)
(-7.51587e-05 3.61934e-05 0.00101288)
(3.70238e-07 -0.000171507 3.70377e-05)
(-7.07162e-05 -3.40551e-05 4.19177e-05)
(-9.79097e-06 -1.06112e-05 3.28341e-05)
(-1.12539e-07 2.1349e-05 5.47942e-07)
(0.00290381 0.000179476 7.89434e-06)
(-6.19517e-05 -2.98344e-05 3.79836e-05)
(-5.58954e-05 2.69167e-05 4.81201e-05)
(0.000152201 0.000148186 3.68952e-05)
(-4.60724e-05 -5.7308e-05 4.20686e-05)
(2.95418e-06 -0.00322861 5.1932e-05)
(1.09466e-05 -8.79624e-06 3.21502e-05)
(-5.5059e-05 -4.60654e-05 3.48929e-05)
(-3.28335e-06 0.000102944 3.94294e-05)
(-3.57806e-11 -9.87805e-05 5.42585e-07)
(-7.98805e-05 8.60836e-05 0.000873549)
(-8.19821e-05 8.36415e-05 0.000810725)
(-6.33773e-05 -5.83769e-05 9.66599e-05)
(0.000193292 0.00012725 4.23963e-05)
(-1.89842e-06 -0.000112764 3.86747e-05)
(9.0525e-05 -0.000117499 3.63444e-05)
(-4.94264e-05 -0.000194595 0.000993049)
(-4.40835e-05 0.00317404 4.88383e-05)
(-4.56974e-12 7.88787e-05 3.09353e-06)
(-0.000109516 -9.69006e-05 0.000865615)
(-3.56019e-05 4.98837e-05 3.49474e-05)
(2.98232e-05 4.49518e-05 3.80924e-05)
(-0.000107643 -9.8773e-05 0.000865615)
(-0.000109801 -2.71159e-06 3.63386e-05)
(2.83806e-05 -3.4458e-05 3.56142e-05)
(9.0525e-05 -0.000117499 3.8345e-05)
(4.09341e-05 -0.00321013 5.58633e-05)
(7.98742e-05 -0.000120342 3.77306e-05)
(-8.07993e-05 -9.5014e-05 0.000900711)
(-3.89374e-05 6.03124e-05 4.42572e-05)
(0.000175411 6.66739e-05 0.000826167)
(4.2981e-05 -9.40306e-06 0.000846144)
(-4.49455e-08 2.01552e-05 7.75294e-07)
(-9.24432e-05 -8.14812e-05 0.000919669)
(1.64844e-05 -9.77034e-12 3.07185e-05)
(3.21646e-05 -3.6912e-05 4.47194e-05)
(7.98742e-05 -0.000120342 3.50087e-05)
(-4.01712e-05 1.16481e-06 3.41566e-05)
(-1.07884e-07 -3.14403e-05 3.88092e-05)
(-3.56019e-05 4.98837e-05 3.52433e-05)
(-0.000141576 9.7477e-05 0.000997129)
(4.69116e-06 -0.000221885 3.83037e-05)
(-6.19517e-05 -2.98344e-05 4.04592e-05)
(5.61825e-05 -9.73477e-05 3.89868e-05)
(3.74923e-07 7.69732e-05 1.08284e-06)
(-4.60724e-05 -5.7308e-05 4.12831e-05)
(8.25922e-06 2.07874e-06 3.3742e-05)
(5.61825e-05 -9.73477e-05 4.24294e-05)
(4.19608e-05 8.04144e-05 3.64114e-05)
(-5.71766e-05 7.66986e-05 0.000308306)
(5.04927e-05 -7.628e-05 3.40911e-05)
(-1.36517e-05 6.71651e-07 4.43829e-07)
(-7.38925e-05 -6.42751e-05 0.000496755)
(-4.93331e-05 4.06701e-05 3.70139e-05)
(-7.57119e-05 3.94783e-05 3.81173e-05)
(0.000139247 -2.13216e-05 3.09475e-05)
(-2.65642e-05 3.41842e-05 3.1891e-05)
(2.83806e-05 -3.4458e-05 3.67528e-05)
(-0.00362677 0.000142784 1.25669e-05)
(0.000152201 0.000148186 4.13005e-05)
(8.08918e-05 9.23758e-05 3.55851e-05)
(-4.01712e-05 1.16481e-06 3.28862e-05)
(-4.26561e-05 6.70443e-05 4.07977e-05)
(0.000107572 -3.91015e-06 3.75159e-05)
(4.92894e-05 -9.1858e-05 3.51487e-05)
(1.09466e-05 -8.79624e-06 3.18383e-05)
(3.99164e-05 6.64497e-05 0.000926757)
(1.52851e-06 9.7924e-06 4.20772e-05)
(-4.26561e-05 6.70443e-05 4.41821e-05)
(-2.39387e-06 -8.11968e-06 4.20044e-05)
(-7.74837e-05 3.87141e-05 4.17843e-05)
(-0.000145819 3.51178e-05 3.78899e-05)
(8.08918e-05 9.23758e-05 3.4082e-05)
(-8.20936e-05 8.38704e-05 0.000873549)
(6.29293e-05 2.31207e-06 4.03991e-05)
(-5.58954e-05 2.69167e-05 4.04646e-05)
(-6.54047e-05 -1.87155e-12 3.18368e-06)
(-7.57119e-05 3.94783e-05 3.44047e-05)
(-4.93331e-05 4.06701e-05 3.4923e-05)
(4.19608e-05 8.04144e-05 4.00428e-05)
(6.02862e-05 0.000100305 3.55869e-05)
(0.000152201 0.000148186 3.59182e-05)
(2.37077e-05 3.24383e-05 3.19098e-05)
(-3.40137e-05 6.18842e-05 3.95221e-05)
(-1.22495e-05 0.000126587 0.000909717)
(0.000486754 -2.27562e-05 0.00113643)
(-6.31897e-05 3.04306e-05 4.16444e-05)
(0.000188522 -8.31104e-05 0.00064255)
(-5.58954e-05 2.69167e-05 4.65366e-05)
(-6.54047e-05 -1.87155e-12 2.84458e-06)
(-1.36517e-05 6.71651e-07 5.07158e-07)
(-2.64822e-05 -4.22818e-05 4.2557e-05)
(8.15197e-05 -7.25946e-05 4.00311e-05)
(3.99866e-05 -5.89488e-05 4.61741e-05)
(5.61825e-05 -9.73477e-05 4.05299e-05)
(-4.49455e-08 2.01552e-05 8.32641e-07)
(0.000152201 0.000148186 4.07259e-05)
(3.46554e-05 4.77887e-05 4.19285e-05)
(-4.56974e-12 7.88787e-05 3.0035e-06)
(0.000127493 -0.000313327 3.61383e-05)
(-0.00371163 0.000152853 4.76046e-05)
(0.000118775 -0.000128242 4.29342e-05)
(1.64844e-05 -9.77034e-12 2.95694e-05)
(-0.000109637 7.61946e-05 3.15597e-05)
(0.000118775 -0.000128242 3.7988e-05)
(-2.39387e-06 -8.11968e-06 3.16369e-05)
(-7.07162e-05 -3.40551e-05 4.10399e-05)
(-2.64822e-05 -4.22818e-05 4.18366e-05)
(5.52122e-05 7.53592e-05 4.14307e-05)
(0.000193292 0.00012725 3.88863e-05)
(8.81493e-09 -9.40281e-06 5.4282e-05)
(9.0525e-05 -0.000117499 3.8202e-05)
(4.19608e-05 8.04144e-05 4.04287e-05)
(5.52122e-05 7.53592e-05 3.81099e-05)
(-2.64822e-05 -4.22818e-05 4.07366e-05)
(-7.57119e-05 3.94783e-05 3.703e-05)
(-5.2395e-06 5.35499e-05 0.000857646)
(-0.000520271 6.22379e-05 3.95246e-05)
(-1.89709e-06 -4.96187e-05 3.20438e-05)
(0.000186661 9.91449e-05 0.000996276)
(2.95418e-06 -0.00322861 5.1727e-05)
(-7.74837e-05 3.87141e-05 4.11455e-05)
(4.19608e-05 8.04144e-05 3.87155e-05)
(9.05415e-05 5.68768e-05 0.000928402)
(-0.000140998 -1.54704e-05 1.35994e-06)
(6.83593e-05 0.000106793 3.64533e-05)
(0.000229264 -0.000532779 3.19164e-05)
(-4.56974e-12 7.88787e-05 2.80985e-06)
(0.000126163 -1.3519e-07 1.52484e-06)
(5.90086e-05 -8.92713e-05 0.000946537)
(0.000109806 0.000114011 0.000918476)
(3.21646e-05 -3.6912e-05 3.96208e-05)
(-1.97861e-06 -1.27984e-05 4.23481e-05)
(1.84926e-07 4.89527e-07 3.92604e-05)
(-3.69344e-07 3.2341e-07 3.3749e-05)
(0.000246021 -0.000318241 0.00102083)
(5.04927e-05 -7.628e-05 3.26098e-05)
(-3.69344e-07 -4.30222e-06 3.3749e-05)
(0.00019778 -0.000155226 4.95231e-05)
(3.90202e-05 4.22491e-05 2.60774e-05)
(-4.60724e-05 -5.7308e-05 4.4798e-05)
(-7.09718e-05 -0.00010922 4.22265e-05)
(-4.49455e-08 1.06628e-05 1.97538e-05)
(0.000193292 0.00012725 3.73044e-05)
(-1.07884e-07 -3.14403e-05 3.73842e-05)
(-3.40137e-05 6.18842e-05 3.84253e-05)
(0.000132454 7.45064e-05 0.00097931)
(6.4425e-07 -1.41733e-05 3.43766e-05)
(-4.50802e-05 -8.09011e-05 0.00100664)
(0.000105998 -0.00323962 5.11223e-05)
(4.42697e-05 -7.25769e-05 3.73505e-05)
(3.21646e-05 -3.6912e-05 4.31471e-05)
(0.000193292 0.00012725 3.89679e-05)
(8.42332e-06 -1.30561e-05 4.34588e-05)
(-4.49455e-08 2.01552e-05 8.14442e-07)
(2.95418e-06 -0.00322861 5.36705e-05)
(2.83806e-05 -3.4458e-05 3.50406e-05)
(-7.09718e-05 -0.00010922 3.69999e-05)
(-2.51547e-05 0.000107713 3.7928e-05)
(5.93951e-06 3.27973e-06 4.11285e-05)
(3.21646e-05 -3.6912e-05 4.51362e-05)
(-6.31897e-05 3.04306e-05 4.08458e-05)
(8.25922e-06 2.07874e-06 3.42204e-05)
(-3.9552e-05 -1.85428e-05 4.19437e-05)
(-9.23995e-05 -2.20017e-05 5.43003e-06)
(0.000130582 -6.3501e-05 0.000964807)
(-7.09718e-05 -0.00010922 3.85068e-05)
(-7.06482e-05 2.49721e-05 4.39375e-05)
(1.18729e-05 -5.24222e-05 2.11089e-05)
(-3.89374e-05 6.03124e-05 3.72073e-05)
(2.98232e-05 4.49518e-05 3.93856e-05)
(0.00314134 -4.06353e-05 0.000227476)
(4.19608e-05 8.04144e-05 4.44328e-05)
(3.52083e-05 5.66732e-05 3.97564e-05)
(-4.60724e-05 -5.7308e-05 4.26342e-05)
(6.36366e-07 -1.40026e-06 3.63644e-05)
(0.000127795 -1.43756e-10 4.21949e-05)
(-7.74837e-05 3.87141e-05 3.85462e-05)