/*--------------------------------*- C++ -*----------------------------------*\
| =========                 |                                                 |
| \\      /  F ield         | OpenFOAM: The Open Source CFD Toolbox           |
|  \\    /   O peration     | Version:  plus.master.MPPICInterFoam            |
|   \\  /    A nd           | Web:      www.OpenFOAM.com                      |
|    \\/     M anipulation  |                                                 |
\*---------------------------------------------------------------------------*/
FoamFile
{
    version     2.0;
    format      ascii;
    class       vectorField;
    location    "7/lagrangian/kinematicCloud";
    object      UCorrect;
}
// * * * * * * * * * * * * * * * * * * * * * * * * * * * * * * * * * * * * * //


23
(
(-4.00232e-19 -8.12427e-19 -2.69376e-34)
(-5.91803e-19 -7.53577e-19 1.18842e-34)
(-1.09445e-18 7.44828e-19 1.08881e-19)
(-3.83499e-19 -7.07174e-19 -2.69376e-34)
(-1.07565e-19 -9.60291e-20 1.84409e-19)
(-6.63942e-19 -4.41341e-20 -6.39882e-14)
(-1.09892e-13 2.02603e-14 -2.4297e-12)
(-2.25852e-19 9.49948e-19 -6.57948e-16)
(9.36005e-20 1.06015e-18 3.07015e-35)
(-2.96739e-21 7.95148e-19 -1.59875e-20)
(1.14124e-19 -6.84694e-19 -2.12613e-19)
(-4.42645e-19 2.77848e-19 5.26866e-39)
(6.55038e-19 2.66147e-19 0)
(-8.30117e-19 1.93679e-19 4.03831e-37)
(2.16871e-19 -1.22461e-20 -2.78927e-35)
(1.51668e-18 2.2371e-21 -4.7183e-19)
(-1.40612e-21 -1.09386e-21 -3.28716e-19)
(-2.50808e-17 2.22017e-19 2.04773e-14)
(3.44386e-19 4.80371e-19 2.05275e-36)
(-0.00118059 -2.65389e-13 3.18555e-14)
(-0.001267 -2.65389e-13 3.18555e-14)
(-2.75777e-20 9.30674e-21 1.40615e-34)
(-6.5102e-14 7.25484e-17 -3.7233e-11)
)


// ************************************************************************* //
