/*--------------------------------*- C++ -*----------------------------------*\
| =========                 |                                                 |
| \\      /  F ield         | OpenFOAM: The Open Source CFD Toolbox           |
|  \\    /   O peration     | Version:  plus.master                           |
|   \\  /    A nd           | Web:      www.OpenFOAM.com                      |
|    \\/     M anipulation  |                                                 |
\*---------------------------------------------------------------------------*/
FoamFile
{
    version     2.0;
    format      ascii;
    class       Cloud<passiveParticle>;
    location    "13.4/lagrangian/kinematicCloud";
    object      positions;
}
// * * * * * * * * * * * * * * * * * * * * * * * * * * * * * * * * * * * * * //

96597
(
(-0.00213163 -0.0158239 0.000266031) 821
(0.0211566 -0.0258178 0.00025326) 859
(0.00162062 0.0792677 0.000277072) 2376
(0.00314215 -0.040467 0.000306012) 2089
(0.0266443 -0.0594378 0.000276571) 2110
(-0.0234531 -0.0446881 0.000293296) 2075
(0.0176163 -0.0443036 0.000278031) 2106
(-0.00690604 0.0174967 0.000260494) 1118
(0.0179248 0.038318 0.000263051) 2353
(-0.00214817 0.0699487 0.000251219) 2374
(0.0289278 0.0512592 0.000280826) 2356
(0.0357504 0.0176447 0.000259635) 1545
(-0.0157968 0.00217153 0.000271409) 541
(0.0260703 0.0215561 0.00029183) 300
(0.0579167 -0.00332942 0.000263603) 1532
(-0.00444905 0.0391763 0.0002813) 2377
(0.00134906 -0.0157595 0.00026662) 829
(-0.0442676 0.0205063 0.000297573) 1795
(0.0288188 0.0185597 0.000273199) 300
(0.0169081 0.0643821 0.000292041) 2366
(-0.0227439 0.0227403 0.000309631) 531
(-0.00430933 -0.0924867 0.000280422) 3211
(-0.0426065 -0.0210902 0.000226895) 1826
(-0.0379924 -0.0151432 0.000291537) 1825
(0.0214688 -0.0238733 0.000278312) 859
(-0.0081044 -0.0570216 0.00024649) 2084
(-0.0212797 0.0213212 0.000295883) 1138
(0.00114264 0.102045 0.000260245) 3494
(-0.0410715 -0.0203422 0.000273179) 1826
(0.030337 -0.0241131 0.000299867) 1505
(-0.022025 0.02186 0.000250612) 530
(0.0336607 -0.016667 0.00029334) 1366
(-0.0307211 0.0134676 0.000288307) 540
(-0.0204666 0.020315 0.000303176) 529
(0.00345757 0.037788 0.000276275) 1473
(0.036348 0.0177056 0.000265258) 1545
(-0.00149692 0.0597433 0.000267826) 2373
(-0.000322189 0.0711624 0.000291833) 2375
(-0.0279126 0.026884 0.000291743) 1785
(-0.0811525 3.82249e-06 0.000256904) 1816
(0.0114655 -0.0478916 0.000264321) 2099
(-0.0216203 -0.0373297 0.000280161) 2073
(0.00850946 0.0226968 0.000301853) 1096
(-0.0416277 0.0190158 0.00026803) 1794
(-0.018684 0.036422 0.000298609) 2385
(0.0288055 -0.0213469 0.000278234) 252
(-0.00756125 -0.0891486 0.000294066) 3211
(-0.0096775 0.01634 0.000301546) 1126
(-0.0181595 -0.0388779 0.000242835) 2073
(-0.0138093 0.0280627 0.000273737) 1131
(0.0380528 -0.0150669 0.000280672) 1513
(-0.0156244 0.0304074 0.00027054) 1132
(0.0148171 -0.0208211 0.000246532) 856
(-0.00442184 -0.0611291 0.000278575) 2093
(0.0282284 -0.0119674 0.000265255) 258
(0.0168137 0.0393141 0.000242367) 2353
(0.0203158 0.0263237 0.000284699) 1091
(-0.00231801 0.0187412 0.000266151) 1110
(-0.0173525 0.0413421 0.000273863) 2386
(0.00932646 0.0582671 0.000274245) 2364
(0.0422853 -0.0164219 0.000310903) 1514
(0.0336824 -0.0173152 0.000280071) 1366
(0.0337724 0.0141787 0.000268567) 1370
(-0.020296 0.0377063 0.000276032) 2385
(0.0189438 -0.00108872 0.000513807) 271
(-0.0407829 -0.0219883 0.000293947) 1826
(0.00480011 0.102107 0.000287881) 3494
(0.00740632 0.0166175 0.000288874) 1094
(-0.102504 0.000414525 0.00027725) 2934
(0.0408153 -0.0167932 0.000264907) 1514
(0.0152021 -0.0210413 0.000264343) 856
(0.0197489 0.0262867 0.000298645) 1091
(0.0152012 0.0417439 0.000292967) 2354
(0.0157945 0.0364495 0.000241213) 2353
(0.00842149 0.0214722 0.0002737) 1096
(0.0235233 -0.024917 0.000270235) 860
(0.0596296 -0.000643596 0.000291466) 1533
(-0.0164944 0.00057539 0.00029788) 550
(0.01156 0.0268301 0.00028617) 1098
(-0.00154158 0.0223735 0.000252958) 1112
(0.00325687 0.036522 0.000243384) 1473
(-0.0107807 -0.0458159 0.000266105) 2082
(-0.036229 0.0171561 0.000279674) 1793
(0.0195615 0.020611 0.00027104) 1089
(-0.0254165 0.0252827 0.000289444) 532
(0.00954975 0.0261009 0.000299998) 1097
(0.0194161 -0.0155605 0.000273235) 248
(0.00523463 0.0765383 0.000278667) 2376
(-0.0163701 0.00652425 0.000257324) 542
(-0.0362716 0.00408902 0.000287127) 1402
(-0.00743184 0.019813 0.000319309) 1119
(0.00942212 0.0156451 0.0002716) 1094
(0.0161002 -0.0493155 0.000262227) 2099
(-0.0414237 -0.0124767 0.000259584) 1817
(0.0241299 -0.0155358 0.000279949) 257
(-0.0257739 -0.0255599 0.000309543) 1406
(0.0284967 0.01691 0.000282372) 291
(-0.0823693 0.00508144 0.000257353) 2929
(-0.00674029 0.0479164 0.00026092) 2378
(0.018728 0.00170148 0.000269075) 270
(-0.0903232 0.00259774 0.000279336) 2931
(0.0075057 0.0290883 0.000265702) 1106
(0.0543265 0.00216195 0.000266785) 1532
(-0.0288554 0.00333986 0.000273804) 554
(0.0180465 -0.0102591 0.000284278) 255
(-0.0344934 0.0169959 0.000298219) 1793
(-0.00159253 0.0740447 0.00027122) 2375
(-0.0187268 0.0365682 0.000281899) 2385
(0.0355425 -0.0252394 0.000319749) 1506
(-0.0538724 0.0264632 0.000280519) 1797
(-0.0247774 0.0466446 0.00029079) 2387
(0.0304323 -0.0206924 0.000290951) 1365
(-0.00303237 -0.053069 0.000300283) 2091
(0.030141 0.015793 0.000281743) 292
(0.00681488 0.0319568 0.000277065) 1107
(0.0170658 -0.0366765 0.00026311) 2105
(0.0122322 0.0199802 0.000275741) 1095
(-0.0480567 -0.0216163 0.000276082) 1827
(0.020861 -0.00936306 0.000272106) 256
(0.0170417 -0.0362507 0.000258504) 2105
(0.0493295 0.00344075 0.0002877) 1531
(0.00317097 -0.0424124 0.000299403) 2089
(0.0193535 -0.0226393 0.000292184) 858
(-0.0228677 -0.0443789 0.000295455) 2075
(0.0221204 0.0123695 0.000289112) 288
(-0.033604 0.00385529 0.000289112) 548
(0.020688 0.0238975 0.000272689) 1091
(0.0034988 -0.0890956 0.000320532) 3210
(0.0157368 0.0262469 0.000278186) 1098
(0.0481584 0.00167278 0.000257944) 1530
(0.0226637 -0.0247221 0.000284746) 859
(0.00629038 0.0325846 0.000283795) 1107
(0.019518 0.0420029 0.000257737) 2354
(0.0151945 0.0472109 0.000253694) 2363
(0.0201726 0.0175959 0.00027329) 296
(-0.000954147 0.102089 0.000268448) 3494
(0.012348 0.0327429 0.000267517) 1100
(0.00571665 -0.0214204 0.00028684) 839
(-0.00101364 0.0734014 0.000267539) 2375
(-0.0192137 0.0414248 0.000262319) 2386
(-0.025612 0.0256915 0.000304897) 1140
(0.0232215 0.0108793 0.000293125) 289
(-0.0387252 -0.0151287 0.000282847) 1825
(-0.00237433 0.0216978 0.000486104) 1111
(0.015112 -0.0210553 0.000254922) 856
(-0.0238093 -0.0234372 0.000273332) 579
(-0.0510718 0.00552604 0.000279148) 1811
(-0.000655519 0.0272253 0.000276393) 1113
(-0.0420797 -0.0169099 0.000266701) 1826
(0.0248242 -0.0289016 0.000287772) 1441
(0.0104453 -0.0194337 0.000279271) 847
(0.0144529 0.0221208 0.000253027) 1089
(0.019991 -0.00703065 0.000313562) 263
(0.0191012 0.0395369 0.000257044) 2354
(0.0224365 -0.0254195 0.000297987) 860
(-0.0210617 -0.00812532 0.000265068) 567
(0.00857477 -0.0435017 0.000254183) 2098
(-0.040921 -0.0169668 0.000247007) 1826
(0.0322116 0.000323944 0.000264639) 275
(-0.00842358 0.0173511 0.000267623) 1126
(-0.00204415 -0.054634 0.000245188) 2092
(0.0135316 -0.0431476 0.0002615) 2098
(-0.0161106 0.0349833 0.000265293) 2385
(0.00562672 -0.01702 0.000237843) 838
(0.0067205 0.0167915 0.000262708) 1094
(-0.0916098 -0.00350941 0.000290891) 2931
(0.00241428 0.0162783 0.000271241) 1102
(0.00640285 -0.0561266 0.000257111) 2100
(0.0154009 0.0121269 0.000262181) 294
(0.0229563 -0.0250298 0.000292232) 860
(0.0039454 0.0180415 0.000265556) 1102
(-0.0495493 0.0194372 0.000260339) 1795
(0.0376576 -0.0164794 0.000292232) 1513
(-0.0157737 0.00126353 0.000256004) 549
(-0.0124527 0.0315275 0.000250945) 1132
(-0.0163017 -0.0265755 0.000292564) 818
(0.0187273 0.00170589 0.000275879) 270
(-0.102478 -0.0005424 0.000273737) 2934
(-0.0272752 -0.0272055 0.000322666) 1833
(0.030427 -0.0108766 0.000267195) 259
(0.0156515 0.00406054 0.000277553) 277
(-0.0400985 0.0177723 0.000244129) 1794
(-0.0389398 0.0169705 0.0002736) 1793
(-0.0400161 -0.0164775 0.000282998) 1825
(-0.00107602 -0.0978799 0.000254239) 3213
(0.0291435 0.0248389 0.000306698) 1553
(0.0153587 0.0235698 0.000251301) 1089
(0.00102364 -0.0677324 0.000278854) 2094
(-0.028495 -0.0546034 0.000284757) 2077
(0.0214006 -0.0237502 0.000278573) 859
(0.029084 0.0249144 0.00028368) 1553
(0.0166154 0.0636493 0.000280873) 2366
(0.00918172 0.0249657 0.000272665) 1097
(0.0267173 0.0593197 0.000298957) 2358
(-0.0267657 -0.0260519 0.000309759) 1406
(-0.00173249 -0.0216599 0.000285485) 831
(-0.00162948 -0.103126 0.000273103) 3215
(0.0226983 0.0225261 0.000267607) 299
(0.0448845 -0.0150969 0.000292784) 1522
(0.0171053 0.0392299 0.000259578) 2353
(0.0316557 0.015749 0.000302934) 292
(0.00112555 -0.0998264 0.000259877) 3214
(0.0403864 -0.012689 0.000243141) 1521
(-0.0220076 0.022021 0.000296392) 1138
(-0.0182205 -0.0331893 0.000261885) 1436
(0.0236607 -0.015337 0.000265935) 249
(0.0249515 -0.0160037 0.000289113) 258
(-0.000970199 0.0774079 0.000282793) 2376
(-0.0251673 -0.043982 0.000289316) 2075
(-0.0631864 -0.0132582 0.000309539) 1821
(0.0194818 -0.0388785 0.000287639) 2106
(0.0155157 0.0239724 0.000309796) 1089
(0.0408999 -0.0158135 0.000293944) 1514
(-0.041675 -0.0213669 0.000276202) 1826
(0.0596289 0.00158986 0.000295482) 1533
(-0.0181379 0.0180176 0.000289557) 528
(-0.0254178 -0.0248562 0.00025779) 580
(-0.0563295 -0.0107215 0.000257295) 1820
(0.0234515 -0.0249766 0.000282082) 860
(-0.0921363 0.00200981 0.000276099) 2931
(0.00545942 0.0477562 0.000270459) 2362
(-0.0225077 -0.0215991 0.000277343) 578
(-0.0108463 -0.0190705 0.000288229) 815
(0.0191209 -0.0241203 0.000277875) 858
(-0.0303875 0.0142536 0.000286492) 540
(0.0187269 0.00184242 0.000303827) 270
(0.00414696 -0.0920624 0.000277066) 3211
(-0.062634 -0.014988 0.000275396) 1821
(0.0122999 0.0200382 0.000278399) 1096
(-0.0225758 0.0226682 0.000273828) 1139
(0.0243319 -0.0095677 0.00027272) 257
(0.0291691 -0.0254639 0.000326923) 1505
(-0.00138995 0.0896008 0.000277875) 3491
(0.00252822 0.0164607 0.000251428) 1102
(0.0157611 1.43992e-05 0.000226665) 269
(0.0153793 -0.00701541 0.000265035) 253
(0.012849 -0.0336689 0.000291343) 852
(-0.0244177 0.0242478 0.000295726) 532
(0.0147108 -0.0209178 0.000265079) 856
(0.0444732 -0.0153975 0.000309654) 1522
(-0.0102207 0.0200617 0.000264726) 1127
(0.0109791 0.0460941 0.000263308) 2362
(-0.0197509 -0.0359988 0.000279433) 2073
(-0.0750679 0.0255431 0.000312759) 1808
(0.000549097 0.102217 0.000268722) 3494
(-0.0170517 0.0414376 0.00027435) 2386
(0.029357 0.024569 0.000273417) 1553
(-0.0218606 0.0403053 0.000262145) 2386
(-0.0248589 -0.0401264 0.000291233) 2074
(0.0290481 0.0190733 0.000279806) 300
(0.0157477 0.00183341 0.00024039) 269
(-0.00782702 -0.0684209 0.0002824) 2086
(-0.00957675 -0.0223888 0.000246555) 816
(-0.0162597 0.0337374 0.000292417) 1475
(0.00035629 -0.0939868 0.00027681) 3212
(-0.0307634 0.0145727 0.000272859) 540
(-0.0163855 0.0310794 0.000297425) 1132
(0.0247496 -0.0535216 0.000311568) 2108
(0.0173092 -0.022429 0.000285076) 857
(-0.0299943 0.0135079 0.000293693) 539
(-0.0271783 -0.0265547 0.000320635) 1406
(-0.0221247 0.0107514 0.000283586) 536
(-0.0401817 -0.0166745 0.000298052) 1825
(0.056163 -0.00171203 0.000265162) 1532
(0.0195246 -0.00917828 0.000262237) 255
(-0.000296485 0.0748482 0.000263398) 2375
(-0.00511566 -0.0155946 0.000313179) 821
(0.0298709 0.0237916 0.000282465) 1371
(-0.0241751 0.0241472 0.000302044) 532
(-0.0196409 0.0196835 0.000241344) 1137
(-0.0641 -0.0361981 0.000296738) 1831
(0.0479715 0.00132983 0.000258437) 1530
(0.0147281 0.0123617 0.000231987) 293
(-0.0161227 -0.00311152 0.000274653) 558
(0.0148515 0.0319469 0.0002864) 1100
(0.0118195 -0.027082 0.000283611) 850
(-0.0698555 -0.0158539 0.000273111) 1823
(0.0228495 -0.000933614 0.000282851) 272
(-0.0446581 0.0181316 0.000254001) 1794
(0.0058847 -0.0510107 0.000289929) 2099
(0.0162669 0.0360134 0.000301687) 2353
(0.0289004 -0.0112953 0.000250507) 259
(0.0187261 0.038029 0.000281874) 2353
(-0.0219879 0.0413892 0.000308893) 2386
(-0.00430749 0.038129 0.000264831) 1474
(-0.0358766 0.0172484 0.000287613) 1793
(0.00679382 0.0170154 0.000322241) 1094
(-0.0264453 0.0084978 0.000283745) 545
(0.0417487 0.0236889 0.000256763) 1546
(0.0147551 0.0226274 0.000257713) 1089
(0.017243 0.0241503 0.000252159) 1090
(-0.00911311 0.0618393 0.000253384) 2381
(0.0112032 0.0275036 0.000294809) 1098
(-0.0020629 0.078219 0.000275802) 2376
(-0.0112029 0.0614133 0.000265434) 2381
(0.0239581 -0.0284875 0.00028213) 1441
(-0.00724352 0.020385 0.000303211) 1119
(0.00337532 -0.0326732 0.000268717) 835
(0.00477632 -0.0223782 0.00030632) 840
(-0.0520481 -0.027381 0.000285476) 1828
(0.0186805 -0.00480767 0.000733305) 263
(-0.0219647 -0.0207104 0.000242372) 578
(0.000934873 0.0340016 0.000294819) 1116
(-0.00564397 -0.0155653 0.000263228) 821
(-0.0374346 0.0173255 0.000283506) 1793
(-0.0455556 -0.0206043 0.00024222) 1827
(-0.0226776 -0.0377695 0.000263223) 2074
(0.0172624 0.0213787 0.000251221) 1089
(0.0185213 -0.0225479 0.000287612) 858
(-0.047155 -0.0226144 0.000270876) 1827
(-0.0192912 -0.0425998 0.000257689) 2074
(0.00626458 -0.0921442 0.000247482) 3211
(-0.063137 0.0069874 0.000270119) 1813
(0.0177878 0.037992 0.000265669) 2353
(-0.0157816 -0.0299551 0.000301338) 820
(0.024151 0.000495937 0.000273814) 272
(0.017023 0.0388627 0.000233509) 2353
(-0.0119901 0.0480571 0.000260611) 2379
(-0.0233513 -0.0227272 0.000258726) 579
(0.0142902 -0.0374894 0.000279811) 2105
(-0.0370016 0.01717 0.000272454) 1793
(0.0221763 -0.0157248 0.000282113) 249
(-0.0225757 0.0226966 0.000310353) 1139
(-0.0324208 -0.0151921 0.000295386) 572
(-0.0151224 0.0150072 0.000283094) 526
(0.0156506 -0.00435723 0.000234171) 261
(0.0125517 0.0266871 0.000281147) 1098
(-0.0961257 0.00698056 0.000279508) 2933
(-0.0290066 -0.00645973 0.000283776) 562
(0.00228308 0.0382914 0.000291054) 2369
(-0.0448967 0.0192248 0.000278078) 1795
(0.00202538 -0.0891953 0.000266015) 3211
(0.034334 0.0168342 0.000270183) 1370
(-0.0479984 0.0239549 0.000255807) 1795
(-0.0253827 -0.024721 0.000273771) 580
(0.00797531 -0.0162931 0.000287908) 846
(-0.00533691 -0.0155819 0.000298054) 821
(-0.0148439 0.0410392 0.000265949) 2385
(-0.0141788 0.0181949 0.000256987) 1135
(0.0161481 0.0372529 0.000274457) 2353
(-0.0028709 0.043879 0.000244887) 2370
(-0.0235897 -0.095502 0.000296839) 3205
(0.0215436 -0.0436633 0.0003021) 2106
(-0.00196253 -0.0217765 0.000289886) 831
(0.0184676 -0.00873445 0.0003033) 255
(-0.017538 -0.00695814 0.000311257) 566
(-0.0387082 0.017361 0.000251005) 1793
(-0.0255341 -0.0249149 0.000283804) 580
(-0.0324461 -0.0152451 0.000268335) 572
(0.0182657 -0.0156924 0.000285471) 247
(0.029607 -0.0109488 0.000233849) 259
(0.0414042 0.0144747 0.000285689) 1538
(-0.0226868 -0.0383121 0.000271291) 2074
(-0.00226446 -0.100023 0.000275364) 3214
(0.0574345 0.000582854 0.000275144) 1532
(-0.0190152 0.0405477 0.000256828) 2386
(-0.0199126 -0.0322908 0.000299998) 1436
(0.000757268 -0.0873577 0.000291351) 3210
(0.0398248 0.000749286 0.000236044) 1529
(0.0236925 -0.00911038 0.000304967) 256
(-0.000589275 -0.0608184 0.000277103) 2093
(0.0204571 0.0108715 0.000269379) 288
(-0.0119094 0.0297068 0.000280867) 1131
(0.0482031 -0.000529888 0.000318613) 1530
(0.00312086 -0.0865441 0.000322983) 3210
(-0.025744 0.0256657 0.000303897) 1400
(-0.0638546 0.0042148 0.000281237) 1813
(-0.0224391 -0.0382532 0.000280854) 2074
(-0.0837934 -0.00116437 0.000296735) 2929
(-0.021259 0.0374398 0.000274812) 2385
(0.0227808 0.0115713 0.000270523) 288
(-0.0643108 0.00710084 0.00029315) 1813
(0.030379 -0.0241192 0.000277712) 1505
(-0.0751607 0.000970699 0.000268316) 1815
(-0.0188811 -0.0442126 0.000257493) 2074
(0.0139187 0.0370876 0.000249539) 2353
(-0.0249655 0.0103124 0.000295995) 537
(0.0158322 0.0234438 0.000287431) 1089
(0.029445 0.0128991 0.000283629) 291
(0.00880157 -0.0498185 0.000261398) 2099
(0.0167076 -0.0438952 0.000284429) 2106
(-0.0256589 0.0257022 0.000266195) 1476
(-0.012558 0.0550812 0.000289822) 2380
(0.0213855 0.0234311 0.000306505) 1091
(-0.0167885 -0.0304316 0.000282539) 820
(-0.0257417 -0.0436569 0.000252933) 2075
(0.0213822 0.0272722 0.000288107) 1092
(0.00389393 0.0461981 0.000260765) 2370
(0.00901346 -0.0574577 0.00025543) 2100
(-0.0181711 -0.0398983 0.000278998) 2074
(0.000744368 -0.0875505 0.000305379) 3210
(0.0177346 0.0238755 0.000297295) 1090
(0.0142735 0.0344087 0.000288408) 1471
(-0.0219572 0.0403278 0.000273374) 2386
(0.0173883 0.00901184 0.000299189) 286
(-0.0423376 -0.0215328 0.00026305) 1826
(-0.0400188 0.0180493 0.00025415) 1794
(0.033405 0.00119776 0.000298463) 276
(-0.040874 -0.0208398 0.000269275) 1826
(-0.0190749 -0.0324667 0.00028047) 1436
(0.0398583 -0.0139152 0.000262659) 1521
(0.029849 0.0190807 0.000284747) 300
(-0.089678 0.00114748 0.000287239) 2931
(0.0105378 -0.0154823 0.000264041) 846
(0.0145729 0.0223348 0.000287218) 1089
(-0.0232316 -0.0225223 0.000291326) 579
(0.0237675 0.0272193 0.000314174) 1470
(-0.0960757 -0.0038982 0.000284844) 2933
(-0.00176807 -0.0194587 0.000283061) 831
(-0.000566916 -0.097824 0.000271471) 3213
(-0.0233262 0.0231647 0.000281465) 531
(-0.0356677 0.00400855 0.000291664) 556
(-0.0833785 0.00322931 0.000285029) 2929
(-0.042753 0.0217054 0.000277168) 1794
(-0.00646724 -0.0446873 0.000315246) 2082
(0.000662133 0.0906188 0.000264719) 3491
(-0.0384817 -0.0157102 0.000270963) 1825
(-0.00827934 0.0618371 0.000264921) 2381
(0.0251398 -0.0256354 0.000272862) 860
(-0.106068 -0.000617032 0.000279213) 2935
(-0.0153545 0.0267542 0.000289231) 1130
(0.0334971 -0.0117254 0.000272886) 268
(-0.0168763 -0.030735 0.000243623) 820
(-0.00619708 -0.0178656 0.000281021) 822
(-6.71001e-07 -0.0562812 0.00027803) 2092
(0.0292613 0.0181095 0.000259321) 292
(0.0151758 0.00953775 0.000267105) 285
(0.0170669 0.0241324 0.000291013) 1090
(-0.0228443 -0.0220515 0.000278649) 578
(-0.0501789 -0.0190304 0.000246417) 1827
(-0.0819646 0.000821139 0.000301175) 1816
(0.013465 0.0335499 0.000289563) 1100
(0.0143184 -0.0617387 0.00029175) 2101
(-0.022133 0.0526521 0.000309882) 2388
(-0.0259661 -0.0253157 0.000311497) 1406
(0.00244374 0.0618394 0.000257254) 2373
(0.00825607 0.0216212 0.00027431) 1096
(-0.0361852 0.0174559 0.000306131) 1793
(-0.081743 0.00111896 0.000276176) 1816
(-0.021811 -0.0018706 0.000301435) 551
(0.0171262 0.0929177 0.00031415) 3484
(-0.0239718 0.023859 0.000259729) 531
(0.0147838 -0.0379261 0.000301203) 2105
(0.0239784 -0.0250499 0.000263362) 860
(-0.0400939 -0.0162288 0.000302455) 1825
(-0.00288951 0.0187661 0.000275123) 1118
(-0.0228137 -0.0218785 0.000289264) 578
(-0.0640921 0.00727736 0.000316132) 1805
(-0.0255862 0.00966876 0.000284518) 537
(0.0176407 -0.0224139 0.00029196) 857
(0.00231392 0.0162583 0.000293412) 1102
(0.0234779 0.026938 0.000278714) 1092
(-0.0241875 0.0244522 0.000276725) 1140
(0.0108974 0.0368984 0.000302611) 2361
(0.0356953 0.0140634 0.000319025) 1545
(-0.0161329 -0.0265726 0.000292883) 818
(0.00857585 0.0223146 0.000257226) 1096
(0.0407471 0.0166043 0.000274014) 1546
(-0.0166582 -2.93837e-05 0.000296208) 550
(0.0175396 0.0444611 0.000297877) 2354
(0.00591818 0.0213985 0.000267318) 1103
(0.0213061 0.0268106 0.000251962) 1092
(-0.0178527 0.00463185 0.000238248) 542
(0.0144672 -0.0290109 0.000265962) 851
(0.0417005 -0.0146704 0.000311129) 1514
(0.0420165 -0.0154841 0.00027145) 1514
(-0.0405143 -0.0212642 0.000316863) 1826
(0.0316933 0.00281184 0.000302847) 275
(-0.108252 -0.00128999 0.00772846) 2936
(-0.0417539 -0.0187701 0.000276178) 1826
(-0.0242613 -0.0414607 0.000256167) 2074
(-0.00511794 -0.0879248 0.000268238) 3210
(-0.0257846 -0.0255361 0.000269097) 1406
(-0.0327745 -0.0151242 0.00029577) 1405
(-0.0873191 -0.00800357 0.000262625) 2930
(-0.0529916 0.0298349 0.000280974) 1797
(0.0127864 0.0294135 0.00028347) 1099
(-0.00511123 0.0244182 0.000297993) 1120
(0.0596142 0.00176836 0.000270107) 1533
(-0.0617337 0.00890452 0.000273641) 1805
(0.0294763 -0.0209029 0.000286535) 1365
(-0.0239761 0.044217 0.000313268) 2387
(-0.0420013 0.0174676 0.000254272) 1794
(0.0184132 0.00842584 0.000313408) 287
(0.0286198 0.000537023 0.000265234) 274
(-0.0765172 0.00276365 0.000260549) 1816
(0.0108323 -0.0596003 0.000268497) 2101
(0.0480455 -0.000627523 0.000291419) 1530
(0.0292773 -0.0176012 0.000275437) 260
(-0.0239926 0.0239846 0.000257972) 531
(0.0160557 0.0336893 0.000289446) 1471
(0.0202896 -0.009529 0.000262374) 255
(-0.0260622 -0.00384386 0.000236477) 561
(-0.0215625 -0.0581975 0.000250134) 2077
(-0.000495884 0.0304678 0.000268933) 1114
(-0.000876325 -0.0570374 0.000321958) 2092
(-0.0521799 -0.0244528 0.000269598) 1828
(-0.0144119 0.0386367 0.000266839) 2385
(0.0227438 -0.0249021 0.000271661) 859
(0.00341425 -0.0161562 0.000269069) 838
(0.0416076 0.0179112 0.000276392) 1546
(-0.0195089 -0.0290746 0.000315182) 812
(0.0570264 -0.00170099 0.000276662) 1532
(-0.0458191 -0.0208907 0.000278033) 1827
(-0.0060218 -0.0179095 0.000284689) 822
(-0.022721 0.0226888 0.000287883) 531
(0.0222442 -0.024438 0.000279185) 859
(0.0253046 -0.0259647 0.000301897) 1441
(0.0232215 -0.0248347 0.000287532) 860
(0.0116798 0.0211037 0.00026621) 1096
(-0.0258544 -0.0254507 0.000277213) 1406
(-0.0178509 -0.0179959 0.000288042) 808
(-0.0211176 0.0209884 0.000306583) 530
(-0.0473364 0.0231888 0.000288346) 1795
(-0.0377546 -0.0146187 0.000285206) 1825
(-0.0844455 0.000196092 0.000287661) 2929
(0.00931875 -0.0595759 0.000272933) 2101
(0.00451444 0.102175 0.000281521) 3494
(0.0157418 -0.00144116 0.000297917) 269
(-0.0785409 0.00585895 0.00027417) 1816
(-0.00843784 0.0676386 0.00028182) 2382
(-0.0148592 -0.0308905 0.000290901) 820
(-0.102546 0.00448588 0.000300333) 2934
(0.0402865 0.0162562 0.000306013) 1545
(0.0576741 -0.00344825 0.000277845) 1532
(0.0378457 -0.01633 0.000271388) 1513
(0.0338085 0.014914 0.00025725) 1370
(-0.0180222 0.0429131 0.000279537) 2386
(0.0557919 -0.000433748 0.000289637) 1532
(0.0128613 0.0565288 0.000287007) 2364
(-0.0794445 -0.00165167 0.000290252) 1816
(-0.0212164 -0.0370729 0.000264014) 2073
(-0.00373681 -0.0317781 0.000266359) 827
(0.0333724 0.0165862 0.000285989) 1370
(0.0227469 -0.024843 0.00028305) 859
(-0.0328939 -0.0148501 0.000302778) 1405
(-0.025667 0.0256968 0.000264006) 1476
(-0.0476025 0.0225632 0.000231216) 1795
(-0.023721 -0.0239185 0.000259737) 811
(-0.0212092 -0.00765265 0.000276956) 559
(-0.0171974 -0.0142593 0.000260831) 575
(0.0388189 -0.0160107 0.000263146) 1513
(-0.0165939 -0.032994 0.000246066) 1436
(0.0235742 0.009803 0.00027275) 289
(-0.0142628 0.0200776 0.000264091) 1136
(0.0184458 -0.0156952 0.000274865) 247
(0.0175755 -0.034568 0.000301142) 2105
(-0.00391445 -0.0973165 0.000293892) 3213
(0.00495473 -0.106519 0.000287737) 3216
(0.00127082 -0.0364645 0.000269086) 1438
(0.0018617 0.102085 0.000264179) 3494
(-0.0218117 -0.00163893 0.000298694) 551
(-0.0335754 -0.0142369 0.000268155) 1405
(-0.0198401 0.0369274 0.000297374) 2385
(-0.0258315 -0.0254805 0.000297055) 1406
(0.0112421 -0.0164334 0.000258455) 854
(0.0357961 0.0191209 0.000286327) 1545
(0.000874665 0.0732143 0.000279646) 2375
(-0.0160447 0.00139345 0.000280374) 550
(-0.00133155 -0.0533059 0.000269601) 2091
(-0.0205837 -0.0187631 0.000275074) 577
(-0.0406656 -0.0219328 0.000291891) 1826
(-0.0120204 -0.0259031 0.000290328) 818
(0.0575301 -0.00261456 0.000305493) 1532
(-0.0246252 -0.0503716 0.000280473) 2076
(0.0234502 -0.0449994 0.000285828) 2107
(-0.022513 0.0225186 0.000277045) 1138
(-0.0470408 -0.0209784 0.000276021) 1827
(-0.00432645 0.0382635 0.000273078) 2377
(-0.00116089 0.0360739 0.000255398) 1473
(0.0173204 0.0397239 0.000281925) 2353
(-0.0406756 0.0198823 0.000281501) 1794
(-0.034586 -0.01698 0.000289309) 1825
(-0.0350085 0.0169338 0.00026228) 1793
(0.00362662 -0.104513 0.000261492) 3215
(-0.0409505 -0.0220561 0.000286637) 1826
(0.00996524 0.0512337 0.000273463) 2363
(0.00242112 0.0785297 0.000294976) 2376
(-0.0162241 -0.00331935 0.000277901) 558
(-0.0502483 -0.0224139 0.000265083) 1828
(-0.034599 0.016924 0.000305413) 1793
(0.0188659 0.0251311 0.000279535) 1091
(-0.0197497 -0.0371667 0.00027842) 2073
(0.00326216 0.0156401 0.000278929) 1101
(-0.00728736 0.0534774 0.000268236) 2379
(-0.0608706 -0.0286969 0.000265161) 1830
(0.0251969 0.0118926 0.000274647) 289
(-2.85381e-05 0.0891419 0.000296872) 3491
(-0.0226327 0.0226184 0.000305899) 531
(-0.0256733 0.0256887 0.000309828) 1476
(-0.0272762 -0.0272051 0.000293369) 1833
(0.0207699 0.0271461 0.000317605) 1092
(0.012813 -0.0269451 0.000253114) 850
(0.0426384 -0.0130602 0.00026144) 1522
(-0.00107311 -0.0219496 0.000302735) 832
(-0.00607931 -0.0179066 0.000283407) 822
(-0.00158524 0.102101 0.000291927) 3494
(-0.0272663 -0.0272087 0.000293352) 1833
(-0.0199066 0.0494766 0.00025587) 2387
(0.0194054 0.038202 0.000265088) 2353
(-0.0256838 -0.0250029 0.000304516) 580
(0.0155148 0.00651531 0.00024311) 285
(-0.0574644 0.00951878 0.000289606) 1804
(0.0428911 -0.0141149 0.000277022) 1522
(0.00078324 0.017029 0.000297795) 1110
(0.0184137 -0.0430278 0.000262328) 2106
(-0.0231733 -0.0225293 0.000264455) 579
(-0.0245512 0.043948 0.000312333) 2387
(0.0218251 0.0287638 0.000309956) 1470
(0.00593592 -0.0519717 0.0002897) 2099
(0.000572244 0.074594 0.000260114) 2375
(-0.0220145 -0.0209943 0.00030487) 578
(0.0596224 -0.000705628 0.000276531) 1533
(0.017578 -0.0347688 0.000292584) 2105
(0.0225374 -0.0450736 0.00024181) 2107
(-0.0809329 0.000167832 0.000260728) 1816
(-0.000679932 0.0569382 0.000291874) 2372
(-0.0208964 0.0491552 0.000258628) 2387
(-0.0157826 0.00205244 0.000282105) 549
(-0.00129233 -0.0221057 0.000274999) 832
(-0.0517643 -0.0213367 0.00028498) 1828
(0.0348764 -0.0122231 0.000278183) 1366
(-0.00106061 -0.0931636 0.000256496) 3212
(-0.0182071 -0.0366309 0.000276776) 2073
(0.0111295 0.0569934 0.000272888) 2364
(0.0350963 -0.0112218 0.000296061) 1367
(0.0301901 0.0235212 0.000279495) 1553
(0.0374793 -0.018454 0.000294279) 1513
(-0.0832814 -0.000174636 0.000255106) 2929
(-0.0270029 -0.0264261 0.000262063) 1406
(-0.0648367 0.0266083 0.000289102) 1798
(-0.0494535 0.0195119 0.000269694) 1795
(0.025867 -0.0293759 0.000317838) 2113
(-0.0287609 0.060369 0.00027482) 2390
(-0.0567291 0.00675789 0.000298167) 1804
(0.0186614 -0.00042677 0.000277578) 270
(0.0176072 0.024848 0.000290962) 1090
(0.0442026 0.0153116 0.000301942) 1538
(-0.0817262 0.00330043 0.000252678) 1816
(-0.0173176 0.0306718 0.000274459) 1132
(0.0487686 0.00349704 0.00026626) 1531
(0.0302695 -0.0237199 0.000262198) 1505
(-0.0061296 0.0549589 0.000285861) 2372
(0.0161373 0.0437695 0.000292984) 2354
(0.0110047 -0.0299336 0.000280481) 851
(-0.0165814 0.0344078 0.000297593) 1475
(-0.00238697 -0.0571175 0.000304853) 2092
(-0.0461307 0.0208143 0.000285691) 1795
(-0.0241575 -0.00406485 0.000260004) 560
(0.0443344 0.0157139 0.000275835) 1546
(-0.0247647 0.0245993 0.000289308) 532
(-0.0664539 0.00410657 0.000284168) 1814
(-0.0302764 0.0140152 0.000262947) 539
(-0.102532 0.0059034 0.000289852) 2934
(-0.0491224 0.0246683 0.000243534) 1796
(-0.0592493 0.0262108 0.00027452) 1797
(0.0307875 0.0161499 0.000287131) 292
(0.0249768 0.02563 0.000265098) 1092
(0.0173081 0.0240678 0.000252065) 1090
(0.0274972 0.0628942 0.000285909) 2358
(-0.0207253 0.0382819 0.000282772) 2386
(-0.00382604 0.0333041 0.000290493) 1123
(0.0183659 -0.00459205 0.000261969) 262
(-0.0371975 0.0171428 0.000281101) 1793
(0.0263052 -0.0270765 0.00027203) 1441
(-0.0343064 0.0162844 0.000303393) 1401
(-0.10246 0.00178139 0.000257895) 2934
(-0.0855013 0.00621909 0.000298037) 2929
(-0.0206427 -0.0290194 0.000276359) 812
(0.0262688 -0.0212343 0.000302841) 251
(-0.0164567 -0.00362538 0.000306627) 558
(0.0363988 -0.0125592 0.000288828) 1521
(-0.000150806 0.0736085 0.00027539) 2375
(0.0187578 0.0252068 0.000308416) 1091
(0.0247207 0.0503374 0.0003094) 2356
(0.000513717 0.102172 0.000281053) 3494
(-0.00333575 -0.0282219 0.000263043) 826
(0.0157505 0.00176395 0.000268575) 269
(0.0171457 -0.0224909 0.00029849) 857
(0.0596149 -0.00133557 0.000275424) 1533
(0.00338078 0.0372514 0.000239314) 1473
(0.0188523 -0.0225133 0.000260544) 858
(-0.00611117 -0.0572227 0.000229666) 2092
(-0.0438687 -0.0227532 0.000277381) 1827
(-0.0172141 -0.0294023 0.000275108) 820
(0.0235572 0.0105523 0.000274028) 289
(0.0209685 0.0269006 0.000288116) 1092
(-0.0044779 -0.0994152 0.000295299) 3213
(0.0422689 -0.0148111 0.000286739) 1514
(0.0305183 0.0231184 0.000305001) 1553
(0.0245645 0.00998575 0.000252115) 289
(-0.0191724 -0.0312621 0.000267379) 1436
(-0.0473458 0.0247197 0.000262138) 1795
(-0.0659943 0.00725608 0.00029094) 1814
(-0.0219 0.00265343 0.000285491) 552
(-0.00250558 -0.0601254 0.000239574) 2093
(0.0230798 0.010763 0.000274851) 288
(0.00203213 0.0163415 0.000285861) 1110
(-0.0435244 0.0220903 0.000293768) 1795
(0.0331272 0.020116 0.00028038) 1545
(0.0172255 0.0240637 0.00028829) 1090
(-0.0256581 0.0257167 0.000292625) 1476
(0.0398212 0.0138793 0.000279399) 1537
(-0.0646787 -0.0371773 0.000295979) 1831
(-0.000151724 0.102127 0.000264561) 3494
(-0.0961115 -0.00549156 0.000265016) 2933
(0.0357762 -0.0139263 0.000281211) 1513
(0.0267436 0.0206471 0.000313273) 300
(0.0121995 -0.038629 0.000261085) 2097
(-0.0257652 0.00675085 0.000283952) 545
(-0.0324601 -0.0152596 0.000263905) 572
(0.00119241 0.0961001 0.000296267) 3493
(0.0047098 -0.0166602 0.0002487) 838
(0.0395774 -0.0171045 0.000281562) 1513
(-0.00584102 0.0961062 0.000293095) 3493
(0.0183785 -0.00746047 0.000614618) 254
(-0.0578962 -0.0122653 0.000263414) 1820
(-0.0220037 -0.0354604 0.000295853) 2073
(-0.0226289 -0.0432197 0.000296826) 2075
(0.00401816 0.0715485 0.000244381) 2375
(0.0212939 0.0271295 0.000276298) 1092
(0.00314233 0.0532126 0.000279673) 2371
(-0.0217818 0.0402398 0.000267964) 2386
(0.0129895 0.0198638 0.000290801) 1096
(0.0106842 -0.0513697 0.000267779) 2099
(-0.0170634 -0.0277286 0.000255471) 819
(-0.00251331 0.0188347 0.000270042) 1118
(0.0318849 -0.0214427 0.000279085) 1505
(0.0199308 -0.0386598 0.000299426) 2106
(0.0215314 0.0272816 0.000289367) 1092
(0.00886675 -0.0238501 0.000313321) 848
(-0.000905966 0.0749151 0.000272337) 2375
(0.00392956 0.0180675 0.000285823) 1102