/*--------------------------------*- C++ -*----------------------------------*\
| =========                 |                                                 |
| \\      /  F ield         | OpenFOAM: The Open Source CFD Toolbox           |
|  \\    /   O peration     | Version:  plus.master                           |
|   \\  /    A nd           | Web:      www.OpenFOAM.com                      |
|    \\/     M anipulation  |                                                 |
\*---------------------------------------------------------------------------*/
FoamFile
{
    version     2.0;
    format      ascii;
    class       vectorField;
    location    "13.4/lagrangian/kinematicCloud";
    object      U;
}
// * * * * * * * * * * * * * * * * * * * * * * * * * * * * * * * * * * * * * //


96597
(
(0.000879492 -0.00367938 -0.000337123)
(-0.000636978 0.000313137 0.000238667)
(-6.66247e-05 1.82289e-05 0.000246067)
(-0.000121934 0.00118558 -0.00224303)
(-0.000163895 -5.8363e-05 -0.00280842)
(-2.16374e-05 0.000469244 0.00166976)
(-0.000367537 0.000443644 0.000234083)
(0.00113989 -9.18256e-05 -0.00326143)
(-0.000847858 -0.000707352 -0.000352295)
(-9.07492e-05 -6.24847e-06 0.000243838)
(-0.00051672 -0.000106221 0.000259352)
(-0.000688296 -4.17761e-05 -0.000869016)
(-0.00322258 0.00336203 -0.00612921)
(-0.000386637 0.000307223 0.00152325)
(-0.000341964 -0.00121554 0.000243203)
(6.51898e-05 -0.000584954 -0.00217918)
(-0.000671071 -0.00124642 -0.000891198)
(0.000214955 0.000202188 -0.00540979)
(-0.000747951 9.10893e-05 0.000273299)
(-0.000452656 -6.42353e-05 0.000302375)
(-5.09412e-06 0.000262682 0.00334473)
(-4.00316e-05 0.000277038 -0.000821833)
(0.000184253 0.000370589 0.000240375)
(0.000590836 0.000590967 -0.000845027)
(-0.000537248 0.000250975 0.000379259)
(0.000177449 6.47149e-05 0.000295109)
(0.000138303 -7.82928e-06 -0.00612841)
(-1.37333e-05 0.000563496 -0.00197416)
(0.000145844 0.000345978 -0.00102298)
(-0.00068138 6.71728e-05 -0.00121659)
(0.000332383 -0.000163144 0.00266049)
(-0.000561023 0.00014802 0.000184811)
(-5.33626e-05 -0.00013361 -0.00385245)
(0.000353601 -0.00015213 -0.00587489)
(-0.000282154 -9.14023e-05 8.25999e-05)
(-0.000576623 -2.65423e-05 0.000440126)
(-0.000177118 0.000148828 -0.000880333)
(-7.86045e-05 7.24491e-05 -0.000798636)
(0.000936141 -8.12868e-05 0.000305973)
(-7.30323e-05 -8.22256e-06 0.00024919)
(-0.000573889 0.00044698 0.000244027)
(-9.11088e-05 0.00051114 0.000429986)
(7.50322e-05 -7.75725e-05 0.00055565)
(0.000447592 -0.000153941 -0.000853039)
(0.000158358 -0.000628486 -0.000848512)
(-0.000704683 0.000117472 -0.000873528)
(-0.00013199 3.88803e-05 -0.00583931)
(-0.000398212 -0.00198283 0.000399383)
(-2.26402e-05 0.000683566 0.000245337)
(0.00012225 -0.000389817 -0.00136087)
(-0.000649908 0.000570492 0.000534189)
(0.000264188 -0.00061708 0.000255907)
(-0.000976443 0.000288776 0.000194525)
(-0.000253284 2.93528e-05 0.000337503)
(-0.00062153 0.000225744 -0.000905442)
(-0.000651475 -0.000553871 -0.00151839)
(-0.000724782 -0.000172743 0.000105485)
(-8.60617e-05 -0.000937702 -0.00133674)
(0.000151353 -0.000808815 -0.0020521)
(-0.000572413 -0.000269388 -0.00167988)
(-0.000610332 9.60743e-05 -0.000732294)
(-0.000539017 0.000144155 0.000474085)
(-0.000796002 -6.72157e-05 0.000251345)
(0.000113581 -0.000609319 -0.000871773)
(-0.00100121 0.000691078 -0.00351094)
(0.000183634 0.000434621 -0.000778015)
(-1.05456e-05 0.000612009 0.00021554)
(-0.00346027 -0.0104132 0.00021383)
(-0.000578016 1.0654e-05 0.000241473)
(-0.000471797 8.36458e-05 0.000176472)
(-0.00100383 0.000261293 0.000256713)
(-0.000853477 -0.000192045 0.00027683)
(-0.00062721 -0.000346313 -1.69127e-06)
(-0.000609808 -0.000523234 0.000109259)
(-0.000555333 -0.000535292 -0.00227987)
(-0.000505816 0.00028336 0.000293321)
(-3.80789e-05 3.22533e-05 0.00453369)
(0.00332856 0.00131524 -6.4116e-05)
(-0.000611054 -0.000399458 -0.00208392)
(-0.000463969 -0.000227159 0.00021109)
(-0.000438059 -0.000294364 -0.00140601)
(0.000210771 0.000557711 -0.00294807)
(0.00087925 -0.000482365 0.00326336)
(-0.000916642 -0.000177538 0.000244383)
(0.000195815 -9.03698e-05 -0.00124053)
(-0.000156402 -0.000117847 -0.00159694)
(-0.00109021 0.000118506 0.000269945)
(-4.10266e-05 2.7427e-05 0.000486865)
(0.00298775 0.00156938 0.00291855)
(-0.00018619 5.70197e-05 -0.00297727)
(0.000238601 -0.00151647 -0.000942256)
(-0.00342517 -0.0100395 0.00209573)
(-0.000631759 0.000431056 0.00029049)
(-0.000199534 0.000996898 -0.00172502)
(-0.00230982 -0.0041627 -0.00161248)
(0.000223155 -0.0002859 -0.00528818)
(-0.000830318 2.82153e-05 0.000411571)
(-8.60906e-05 -4.25391e-05 0.000287507)
(0.00078379 -0.00047998 0.000316185)
(-0.000511472 0.0011401 -0.00338488)
(0.000106713 -2.6983e-05 0.00029017)
(-0.00052985 -0.000147023 0.000378659)
(-0.000356408 -0.00126405 0.000273845)
(-0.000311475 -3.12924e-05 0.00669868)
(-0.00120229 -8.77367e-05 -0.0026793)
(0.000544406 -0.00037047 0.000269065)
(-5.22576e-05 4.49075e-05 -0.00058357)
(0.00015674 -0.000602045 -0.00199603)
(-0.000159526 -0.000105652 -0.000922007)
(5.63119e-06 -3.21456e-05 -7.63682e-06)
(7.11208e-05 -0.000310119 0.000340031)
(-0.000459106 9.86618e-06 -0.000734116)
(-0.000210156 5.46356e-05 0.00231246)
(-0.000679798 -0.000100462 -0.00141034)
(-0.000669814 -9.03142e-05 -0.00269296)
(-0.000581417 0.000872636 0.000138357)
(-0.000503597 -0.000235209 -0.00295493)
(0.000131781 0.000439737 -0.000789153)
(-0.000311727 0.000109025 0.00447501)
(-0.000547951 0.000824622 -0.00143801)
(-0.000499453 1.50876e-05 -0.000855903)
(-5.06792e-05 0.000935666 0.000246334)
(-0.0008408 0.000387573 0.00306658)
(-3.96124e-05 0.000412688 0.000288509)
(-0.000700542 0.000172568 0.000170003)
(-0.000136995 -0.000100065 0.00293732)
(-0.000335543 0.00010395 -0.00072451)
(-0.000186045 -0.000136507 -0.0016845)
(-0.00046654 -0.000311281 -0.000724422)
(-0.000551172 2.91685e-05 -0.00227962)
(-0.000514076 0.000226971 0.000397933)
(-0.000657735 -8.38086e-05 -0.00197872)
(-0.000523071 -0.000293556 0.00039969)
(-0.000579745 -0.000298986 0.00172444)
(-0.00102224 0.000383132 0.00269761)
(-1.81269e-05 0.000651045 -0.00148661)
(-0.000503064 -0.000250884 0.000263477)
(-2.11751e-06 0.000782193 0.00248694)
(-7.37696e-05 6.03018e-05 -0.00141092)
(0.000144271 -0.000735108 -0.000194906)
(0.000151582 8.62712e-05 0.00426537)
(-0.000316064 -2.56141e-05 -0.00219081)
(0.000514041 0.000520931 0.000333217)
(-0.000153672 -0.000501193 -0.00111834)
(-0.000896816 0.000248164 0.000280935)
(0.000747675 0.000284229 -0.00150304)
(0.000875578 -0.000205643 0.00130224)
(-0.000475469 0.000538481 0.000802952)
(0.000102589 0.000315061 -2.26631e-05)
(-0.000351421 0.000147965 -0.000935571)
(-0.000425211 0.000114398 0.000246471)
(-0.000219821 -0.000121435 -0.00217478)
(-0.000450393 0.000495034 -0.00351332)
(-0.000670041 -0.000372035 -0.000906126)
(-0.000236083 5.34596e-05 -0.00531089)
(-0.000212431 -0.000245778 -0.00154325)
(-0.000473255 0.000462364 0.000535599)
(0.000126167 0.000333298 -1.69255e-05)
(-0.000629666 5.84403e-05 -0.00150836)
(-0.00135829 -0.000727732 -0.000715611)
(-0.000198342 0.000176357 0.000247376)
(-0.00058713 0.000503155 0.000211966)
(0.000199644 -0.000513695 0.000423291)
(-0.000530202 0.00184207 -0.000793268)
(-0.0013416 -0.0105613 -0.00408962)
(0.000151037 1.9434e-05 -0.00332918)
(-0.000796763 -0.00287046 0.000278117)
(-0.000155647 0.000342837 -0.0034745)
(0.000533688 -0.000275589 7.84528e-05)
(-0.000151602 1.99952e-06 -0.00448898)
(-0.00061743 -0.00283159 -0.00141299)
(0.000384217 -0.000111556 -0.000908567)
(-0.000538604 0.000149136 0.000341316)
(-0.00348406 -0.00137877 0.000263298)
(0.000236428 -0.000543126 -0.00139579)
(-2.08245e-05 0.00066215 0.000265351)
(-0.000596791 0.000808797 -0.00264808)
(-0.000514347 8.48012e-06 -9.4697e-05)
(0.000248578 1.59351e-05 -0.0048092)
(-0.000344843 0.000128016 0.00476016)
(0.00249343 -0.000892978 -0.00126)
(0.000516241 -0.000255713 -0.000411706)
(0.000877716 -0.000393407 0.000257625)
(0.000570075 0.000607754 -0.00224553)
(-3.66908e-05 -0.000125635 0.000302381)
(-0.000456637 0.000351766 1.08821e-05)
(-0.000857047 -0.000397728 0.000480117)
(-0.000127641 3.01197e-06 0.000293281)
(3.5627e-05 7.56193e-05 0.000220403)
(-0.000592027 0.000273869 0.000252718)
(-0.00042857 0.000353883 -0.0043925)
(-0.000381278 -5.25063e-05 0.000334615)
(-7.65312e-06 -2.96025e-05 -3.79963e-05)
(0.000176941 -0.000153933 -0.00381524)
(0.000347513 0.000140577 0.000114109)
(-0.000465145 -1.67495e-05 0.00130707)
(-9.26084e-05 -0.000601432 0.000240564)
(-0.000904901 0.000211596 -0.000293636)
(-0.000587848 -0.00019015 -0.000824349)
(-0.000844603 -0.000703467 0.000223238)
(-0.000756453 -9.4822e-05 0.000226542)
(-4.49432e-05 -8.01603e-05 -0.000146955)
(-0.000469646 -0.000203067 0.000871794)
(0.000161077 0.000109791 0.00427057)
(0.000135143 0.000954411 0.000246667)
(-0.000331381 0.000284849 -0.00553996)
(-0.000162132 0.000137074 0.00312436)
(-6.66046e-05 3.55653e-05 0.000294931)
(-5.42006e-06 0.000512221 0.00010646)
(0.000254713 0.000300643 0.000298693)
(-0.000140225 4.78179e-05 0.00399392)
(-0.000240088 -0.000128812 0.00422666)
(-0.000437384 6.48533e-05 -2.53662e-05)
(0.000205541 0.000492311 -0.000198039)
(-6.22783e-05 3.2414e-05 -0.00321219)
(0.000558491 -0.000486774 -0.00594287)
(0.000436368 0.000193125 0.000716239)
(0.000324548 0.000426308 0.000663586)
(-0.00088661 -0.00155205 -0.00128236)
(4.1189e-05 6.33997e-07 0.000277939)
(7.1851e-05 -0.000292244 -0.00202205)
(0.000389764 0.000586173 0.000304372)
(-0.000122404 0.0015831 0.000395787)
(-0.000835928 0.000416641 -0.00331582)
(0.000179793 -0.000251888 0.00236693)
(-0.00151422 -0.000203813 -0.00256485)
(-0.000120492 0.00021609 0.000239797)
(0.000209121 0.00026256 0.000251053)
(-2.91353e-05 -0.000118768 -0.0047323)
(0.000360234 -0.000146673 -0.00612152)
(-0.000597204 0.00023417 0.000391753)
(-0.000523789 1.78335e-06 0.00034914)
(-8.5103e-05 -0.00019177 0.000277981)
(-0.00142923 -0.00278447 -0.000700319)
(0.00209737 -0.00122814 -0.000599817)
(0.004641 0.00317109 -0.00162321)
(-0.00039804 0.000325115 0.00023709)
(0.000278215 -0.000156 -0.00233399)
(-0.000903894 0.000227015 0.000166092)
(-0.000618205 8.20736e-05 -0.000794869)
(-0.000321009 -0.000374476 0.000418548)
(-0.000574842 -0.000251375 0.000216116)
(-5.4585e-05 0.00042357 0.000469209)
(0.000202687 -0.000353165 -0.000861914)
(-1.04759e-05 0.000442975 0.000413957)
(0.000152485 -0.000799037 -0.000814865)
(-0.000401019 0.000313231 0.00756217)
(6.50057e-05 -0.000408861 0.00025958)
(-0.000131152 0.000559194 0.002019)
(-0.000734941 9.63053e-05 1.06245e-05)
(0.00209149 -0.000972512 0.00124439)
(-4.44605e-05 0.000126282 -0.00539173)
(-3.14415e-05 0.00138797 0.000533803)
(0.000224433 -0.000756446 0.000237044)
(-9.44685e-05 0.000119473 -0.00280976)
(0.000313428 -0.000266842 0.000221388)
(0.000261819 -0.000622893 0.000273217)
(-0.000318183 0.000194708 0.00182702)
(-0.000940549 0.000265545 -0.00190317)
(0.000453773 -0.000408801 0.000253512)
(0.000294975 9.43404e-05 0.000281102)
(0.00146088 -0.000400564 0.000115332)
(-3.94306e-05 0.000369619 -0.00281481)
(-0.00040477 -0.00137718 -0.00127355)
(-0.000891863 -7.33151e-05 -0.00227665)
(-9.58193e-05 6.3628e-05 -0.00226274)
(0.00107677 -0.00357461 0.000190883)
(-0.000799285 0.000182865 0.000285335)
(1.90731e-05 8.58086e-05 0.00572564)
(0.00149321 -0.00295763 0.000601532)
(-0.000100093 0.000292794 -6.40115e-05)
(-0.000458191 2.52217e-05 0.000273011)
(0.00405435 -0.000564107 -0.00352788)
(0.00323959 0.00128579 -0.000935244)
(-0.000416429 -0.000203623 0.000156298)
(-0.000555137 0.00070097 -0.000978579)
(-9.03508e-05 0.000302439 -0.000487464)
(-0.00106073 0.000123229 0.00019181)
(0.00048153 -0.000127379 0.000156437)
(-0.000228101 0.000520693 -0.00220447)
(-0.000713996 -0.000628656 0.000304871)
(-0.000533112 0.000173346 0.000406408)
(-0.000819405 -0.000701944 -0.00123484)
(6.22078e-05 -0.000797414 -0.00161786)
(4.64334e-05 -0.000377417 -0.00125733)
(0.000650131 -0.000356362 -0.000166479)
(-0.000986448 -0.0104149 0.000153906)
(0.00020406 -0.000768559 -0.00129854)
(-0.000576004 -1.78614e-05 -0.000279674)
(-0.000301558 -0.000154718 0.0051523)
(-0.000711066 -0.000103664 -9.92626e-05)
(0.000224873 5.44219e-05 0.000326079)
(-0.00118512 -0.00122642 0.000335304)
(-6.85668e-05 3.25433e-05 0.000285935)
(0.000262913 7.44344e-05 0.00144592)
(-0.000474389 0.00020323 0.000335173)
(-0.000213218 -0.000317639 -0.00185723)
(-0.000619375 0.000426105 -0.00231479)
(-0.000532019 0.000485076 -0.000975863)
(3.32925e-05 0.000322883 0.000281061)
(-0.00108516 -9.11626e-05 -0.00318955)
(0.000554945 0.000475102 -0.00174856)
(-0.000710774 -0.00025881 -0.00123449)
(0.000832076 -0.00396336 0.000279214)
(0.000831536 -0.000385264 0.000279869)
(0.000149533 0.000474502 -0.00195694)
(-9.6561e-05 0.000519984 0.000258439)
(-0.000828312 -0.000182119 -5.63159e-05)
(-0.000331678 1.01739e-06 0.00163614)
(0.000122463 0.000429997 0.000130542)
(-9.32364e-05 0.000459729 0.000237935)
(-0.000146612 0.000195549 0.000613811)
(-3.17544e-05 0.000154576 -0.00595553)
(-0.000655939 -0.000565659 0.000184378)
(0.000240419 0.000880262 0.000426798)
(-0.000883048 9.94145e-05 -0.000707696)
(-0.000638904 -0.000542873 0.000365433)
(0.000447671 -0.000395555 0.000195466)
(0.000591439 0.000235359 0.000555117)
(-0.000554944 0.000844467 -0.00151391)
(0.000833487 -0.000413243 0.00199986)
(-0.000881628 9.57795e-05 0.000289776)
(0.000366944 -0.000116637 0.00260204)
(0.000141968 0.000444378 -0.000848642)
(0.00167642 -0.000848962 0.00215447)
(0.00178775 0.000917481 -0.0028606)
(-0.000690186 -0.000240496 0.000379666)
(-8.09263e-05 1.6461e-05 -0.00443894)
(0.000174697 0.000413654 0.000172546)
(-0.000123487 -9.24234e-05 0.0041203)
(0.000307432 9.66443e-05 -0.00100325)
(-0.000172769 -2.80252e-05 -0.00460316)
(-0.000514005 2.82027e-05 -0.00256621)
(0.000269336 -0.000108461 0.000236397)
(0.000523669 0.00020938 -0.00254748)
(-0.00126965 0.001027 -0.00132494)
(0.000898117 -0.00295628 6.24119e-05)
(0.000137038 -0.00094241 0.00568337)
(-0.000868352 -0.000889903 -0.000170559)
(-0.00065745 -0.000573721 0.000271318)
(-2.01247e-07 -0.000806272 0.000293276)
(-0.000560954 6.31863e-05 0.000113877)
(-0.000413173 0.000540719 -0.000594704)
(-0.000301626 4.41829e-05 -0.00020706)
(-0.00154123 -0.000319717 -0.00225601)
(0.0105039 0.00257098 0.00105105)
(0.000783762 -0.000371043 0.000308299)
(0.000405 0.000126146 8.22391e-05)
(0.000154332 0.000394781 -0.00191393)
(-0.00113588 -0.000155745 0.000218504)
(-0.000516664 0.00017116 0.000430287)
(-0.000273739 -6.29874e-05 0.00583308)
(-9.99004e-05 0.000574409 -0.000146917)
(-4.42101e-05 -0.000118119 0.000316368)
(-0.00034212 -0.00121593 -0.00173691)
(0.000152373 -0.00070732 -0.000908277)
(8.92273e-05 0.000891536 0.000264633)
(-0.000192961 0.000280591 -0.00115715)
(-0.000673216 2.53602e-05 -0.000720856)
(-0.000345494 0.000420813 0.000449111)
(-0.000212788 5.68658e-05 0.000406538)
(-0.000572648 0.000240946 -0.00238533)
(0.000132779 -0.000437088 0.00023846)
(-0.000527273 3.5558e-05 -0.00123948)
(-0.000193692 0.000337729 0.000409771)
(0.000211457 -0.000109159 -0.00654276)
(1.82347e-06 5.32509e-06 -0.00120368)
(-0.000116991 0.00052562 -0.000289251)
(-0.000108732 -2.68959e-05 0.000216796)
(6.95975e-05 -0.000424777 0.000299152)
(-0.000595687 0.00013816 -0.00110742)
(0.000671459 0.000801398 -0.00473854)
(-0.000492507 5.24918e-05 0.000383438)
(-0.000147862 7.09666e-05 0.000163441)
(-9.28904e-05 0.000567439 -0.00246695)
(-0.00072212 -0.000612382 0.00025335)
(0.0013142 -0.000556638 -0.000225972)
(-0.000840979 -0.000134942 0.0002473)
(-0.00078427 -5.01777e-05 0.00028377)
(-0.000429747 0.000357954 0.000242236)
(-0.000315666 0.000384776 0.000347769)
(0.00017812 -6.63678e-05 0.00360584)
(0.000381113 0.000233628 -0.00233082)
(-0.000367263 0.000108401 -0.00417029)
(0.000287712 0.00106109 0.00027319)
(2.61972e-05 0.00046072 0.000249435)
(-0.000676933 -9.01109e-05 0.00023529)
(-1.09077e-05 -0.000313139 -0.00106809)
(-0.00048762 0.000379484 0.000224163)
(-8.3895e-05 0.000715674 -0.000844995)
(-0.000179738 0.000279999 0.000311031)
(-0.000560978 -4.47779e-05 0.000303095)
(-0.000469736 -0.000360428 -0.00122772)
(0.000117211 -0.000665037 -0.000882395)
(-0.000838395 0.000706967 -0.00294815)
(0.000215404 0.000462175 0.000641093)
(0.000466433 -0.00022121 0.000679188)
(-0.00046772 4.71516e-05 0.000140282)
(0.000142219 0.00033855 -0.000990205)
(0.000109428 0.000831757 -6.61501e-06)
(-0.000240395 6.32639e-05 -0.00669555)
(-0.000377347 0.000111114 -0.00193108)
(0.000120978 -2.66085e-05 0.000212968)
(0.000123937 0.00320044 -0.000139013)
(-0.000135747 -7.27849e-05 0.000635315)
(0.000666315 0.000222686 -0.000606728)
(-0.00043275 0.000256261 0.000237844)
(-0.000200627 -0.00118188 -0.000976255)
(-0.000793904 7.36128e-05 0.00015946)
(-4.02176e-05 -0.000142519 0.000453106)
(0.00034061 -0.000210973 0.00388891)
(-2.97721e-06 0.000155686 -0.00177551)
(-9.12002e-05 -4.2579e-05 0.000184124)
(0.000424747 -0.00012319 0.000277705)
(0.000338006 0.000474792 0.000463111)
(-7.77168e-05 -0.000159274 0.000245574)
(0.000548985 0.000560339 -0.000173497)
(0.000242407 8.29365e-05 0.000242821)
(-0.000434418 0.000232451 0.000169418)
(5.47353e-06 0.000116305 -0.00291178)
(6.29398e-05 -0.000341505 -8.15214e-05)
(-0.000274206 -0.000114562 0.00406823)
(0.000282682 0.00101431 0.000215788)
(-0.000966084 0.000941133 0.000208472)
(-0.000220516 0.000172633 -0.00157137)
(-0.000729055 -0.000111162 0.000192273)
(0.00225986 -0.000558029 -0.0010005)
(-0.000731732 -6.8502e-05 -0.00154117)
(0.000355988 0.000522291 0.000165507)
(0.000153846 0.000436897 0.000243634)
(-0.000259998 5.34618e-05 -0.00281949)
(-7.52294e-05 -4.46025e-05 -0.00243658)
(-0.000408409 0.000211654 0.00110721)
(7.98772e-05 0.000163929 0.000172336)
(0.00020879 -0.000262934 -0.00245421)
(-0.000724547 -0.000120519 -0.00163582)
(-0.000351842 -0.000457942 0.00451782)
(0.000766355 -0.000385555 0.000290271)
(-4.53861e-05 -2.09716e-05 0.000455675)
(0.000573135 0.000404809 -0.000324416)
(-5.95222e-05 0.00032664 -0.00147271)
(0.000259062 -0.000137444 -0.00197401)
(-0.000672612 0.00102895 0.000275071)
(-0.000462492 0.000262797 0.000859386)
(0.000629232 0.000672342 -0.00120314)
(-0.00010948 -0.000822686 -0.00149283)
(0.00038497 0.000566535 -0.001177)
(-0.000678978 0.00011409 -0.000674012)
(0.00166272 -0.000733785 0.000220161)
(-0.000959432 0.000241431 0.000274555)
(-0.000701929 -0.00392588 -0.000962526)
(-0.000786061 -0.000125313 -0.000876066)
(0.000318663 -0.000913976 -0.000423556)
(-0.000726198 0.000124507 0.000298272)
(-0.00018999 0.000118694 -0.00253465)
(-2.02091e-05 0.000654177 0.000255412)
(-0.000377115 -0.000388769 0.000434022)
(-0.00056102 -1.58913e-07 0.000276756)
(0.00101893 0.000474861 0.000100812)
(-0.00059762 -0.000327452 0.000320471)
(-0.000559115 -0.000999464 0.000911371)
(-0.000838226 -0.000163111 0.00119015)
(0.00290398 -0.000332775 -0.000347457)
(-0.000500805 0.000579 -0.000537999)
(-0.00038967 0.000146981 0.00436809)
(-0.000498892 8.67593e-05 0.000317932)
(0.000196153 0.000527074 0.000321764)
(-0.000604633 6.60984e-05 0.000150817)
(-0.000278391 -2.41197e-06 -0.00812068)
(0.000157319 0.000411949 0.00279819)
(-7.33224e-05 0.000472351 0.00019738)
(-0.000127452 0.000261306 1.24899e-05)
(0.000182941 -0.000205312 -6.83345e-05)
(9.66305e-05 0.000348161 -0.00410598)
(8.85256e-05 9.09039e-06 -0.000834842)
(2.09533e-05 -7.58653e-05 0.000204922)
(-0.000447113 -0.000329837 0.000151145)
(-6.94321e-05 -1.71122e-05 0.00224589)
(-6.86503e-05 2.75536e-05 -0.00404766)
(-0.000180446 -0.000255244 -0.000266738)
(-0.000328871 -0.000300977 0.00628194)
(5.7523e-05 -0.00058144 -0.00288764)
(0.000567354 -0.000215516 -0.00125234)
(-0.00191956 0.000330016 -0.00305971)
(-0.000804083 9.26519e-05 -5.19313e-06)
(-0.00017416 2.42857e-05 -0.00286585)
(-0.0003583 0.000187183 0.000258564)
(-0.000344406 2.30196e-05 0.000437603)
(-0.000783773 0.000291651 -0.00088991)
(4.63104e-05 0.00013823 0.00194808)
(-0.000952733 -0.000293313 -0.000164366)
(-0.000653326 -0.000327901 -0.00113281)
(0.00038303 0.000377094 0.000187942)
(3.18787e-05 1.37693e-05 0.00034312)
(-0.000940481 -0.000300081 -0.00494803)
(-0.000277905 0.0001921 -0.000658898)
(4.47329e-05 0.000314414 0.000300179)
(0.000212628 -0.000840512 0.000258448)
(-0.000532326 0.000256441 0.00025682)
(0.000166253 0.000944874 0.000898642)
(-0.000659054 -1.06838e-05 0.000293477)
(-0.000362783 0.000777557 2.41302e-05)
(-0.000353352 -0.00131781 0.000268377)
(6.6071e-05 0.000307702 0.000172911)
(-0.00102826 0.00102474 0.000198389)
(8.11869e-05 0.000152783 -0.0056763)
(-0.000554975 0.000257173 0.000250919)
(-0.00018706 -7.62693e-05 0.00229749)
(-0.000147397 5.58697e-06 0.00553435)
(-0.000421246 -0.00049373 0.000193654)
(0.00020365 -0.000221077 -0.00540673)
(0.000534799 0.000763237 -0.0021481)
(3.52029e-05 -7.77007e-06 -0.00290101)
(0.000203984 -4.62592e-05 0.000219177)
(0.000620174 0.000620289 0.0020161)
(-0.00010087 -3.23612e-05 -0.00105843)
(-0.000361812 0.000188143 0.000287311)
(-1.12446e-05 0.00058638 0.000270567)
(0.00481168 -0.000446416 -0.000441822)
(-0.000117657 2.05028e-06 0.00017768)
(0.000251939 -6.9323e-06 -0.00162953)
(0.000308617 0.00113546 0.000233277)
(-0.000669868 1.77062e-05 -7.61731e-05)
(-0.00107828 -9.38463e-05 -0.00278049)
(-0.000326542 -0.00126545 0.000274897)
(-0.000531974 0.000153202 0.000337052)
(-0.000756154 -7.13145e-05 0.000194401)
(5.72658e-05 -0.00051464 0.000129834)
(-0.000400621 -0.00149295 0.000651829)
(-0.000628774 -0.000288597 0.00193376)
(-0.000129366 1.30383e-05 -0.00229402)
(-5.82888e-05 0.000626814 -0.00201833)
(0.000660824 0.000222605 0.00307566)
(-0.000757254 -5.28553e-05 0.000346208)
(-0.000625503 0.000283704 0.000276112)
(-4.3585e-05 0.000218897 -0.00521946)
(0.000154111 -4.3093e-05 0.00165898)
(0.00023792 -0.000111289 0.000109623)
(0.000216306 0.00027452 0.00430695)
(0.000253395 0.000400657 3.67215e-05)
(0.0011237 0.000925409 -0.000780732)
(-0.000500336 0.000146697 0.000292656)
(0.000173605 0.000897349 0.000272858)
(-0.000272251 0.000125419 0.00438735)
(-0.00121864 -8.07243e-05 0.000300547)
(-0.00114077 -0.000117117 0.000206471)
(-0.000674396 0.00102884 0.000271355)
(-5.47137e-06 -7.66719e-05 0.000238372)
(-8.57975e-05 -0.000252943 0.000286523)
(-0.000247112 0.000587039 0.000154163)
(-1.36705e-05 0.000572484 -0.00196491)
(0.000882734 0.000408701 -0.00356066)
(0.000689635 0.000573073 9.73674e-06)
(8.57086e-05 -0.000458326 0.00062992)
(0.000209363 -0.000223666 -0.00292257)
(0.00103066 0.00126303 -0.00290878)
(-0.000609062 -1.36716e-05 0.000258475)
(-7.2947e-05 6.48973e-05 0.00224891)
(0.00107844 0.000604254 -7.48956e-06)
(-0.00017964 0.000112201 0.000220642)
(0.000548841 0.000634798 -0.00231656)
(0.000154942 0.000388016 0.000235137)
(-1.77489e-05 0.000556505 0.000407259)
(-0.000339412 -0.00143459 0.000311877)
(-7.54204e-06 9.93141e-05 0.000490332)
(-0.000433667 0.000445633 0.000421858)
(0.00017337 -8.46275e-05 0.000666736)
(0.000112729 0.000446081 0.000257328)
(0.00038903 -0.000221292 0.00231532)
(-0.000131708 -0.000182392 0.00392264)
(-0.00112109 -0.000686767 -0.00233161)
(0.000299261 -0.000101518 -0.0015446)
(0.000555347 0.000516611 0.000246692)
(0.000653646 -0.000426877 0.000268987)
(-7.65939e-05 -0.000384223 0.00277294)
(0.000279533 0.000631919 -0.00391029)
(-0.000542948 -0.000345976 0.000301196)
(-8.77854e-05 3.82841e-05 -0.00121162)
(0.00304467 0.00120922 2.51702e-05)
(8.07589e-05 0.000422997 0.000254069)
(0.000516277 -0.000346762 -0.000103482)
(-0.000358008 7.18799e-05 -0.00314817)
(-6.68737e-05 0.000678464 0.000414005)
(0.00567597 -0.00229486 -0.00467982)
(0.000546466 0.00016881 -0.00159016)
(-5.24101e-05 0.000326362 0.000260594)
(-0.000973137 -0.00157865 -0.00136474)
(-2.41061e-05 -0.000178244 -0.00570624)
(-0.000183678 0.000125575 0.00331045)
(0.00013059 2.90609e-06 0.000767458)
(0.000241998 1.94032e-05 0.00063174)
(-0.000874615 -8.89966e-05 -0.00122208)
(-0.000633454 0.000790784 0.00274223)
(-0.000566562 -0.000164833 -0.00210796)
(-0.000793678 0.000512783 -0.00057835)
(-0.00105079 0.00106094 -0.00280544)
(-1.43991e-05 0.00058948 -0.000883708)
(0.000227868 1.71358e-05 0.00330118)
(4.62141e-05 -5.03625e-05 -0.00107596)
(-0.000690435 -0.000594608 0.000427211)
(0.000330217 5.94405e-05 0.000288165)
(0.00268552 -0.00126334 -0.00117753)
(0.00025908 -0.00084613 -0.00286548)
(-0.000560712 -0.000180078 0.000299313)
(-0.00540028 -0.000568125 0.00277323)
(-0.000432452 0.000502402 -0.000361701)
(0.000558561 0.000203799 0.000287062)
(1.79051e-05 -0.000411042 0.000291579)
(-0.000441229 0.000227524 -7.22016e-05)
(-0.000117011 0.000443974 -0.00412202)
(-7.61647e-05 5.54896e-05 0.000355804)
(0.000488693 0.000776709 -0.00183368)
(-5.45564e-05 3.3023e-05 -0.000663079)
(-0.000678574 0.00102899 0.000278119)
(-0.000350758 0.000364835 0.000234335)
(-7.9797e-05 -6.68856e-06 -0.00146847)
(-0.000143623 -4.22095e-05 0.00146857)
(8.28264e-05 -0.000109691 -0.0003142)
(-0.0054101 0.00180997 0.00611116)
(-0.000423549 0.000239103 -0.000720181)
(3.8674e-05 0.000275185 0.000394415)
(-0.000274084 0.000113668 0.00294487)
(-4.67154e-05 6.02186e-05 0.000399543)
(-3.52143e-05 0.000628261 -0.000132)
(-0.000521614 -0.000243584 0.000280918)
(-0.00067542 -0.000124551 -0.000885119)
(-0.000395912 0.000317106 -0.00187893)
(-0.000624832 0.000180445 0.00332285)
(-0.000100206 -2.10949e-05 0.000268819)
(0.000353075 0.000237821 0.00277905)
(-0.000165783 -0.000254629 0.000275078)
(0.000313284 -6.54092e-05 0.000268216)
(-0.000200994 0.000585255 0.000268935)
(0.00020566 1.40391e-05 0.00195691)
(0.000189259 -0.00056371 -0.000695408)
(-0.000204245 0.000694228 -0.00153862)
(-0.00103153 -0.000111995 -0.000925538)
(-0.000697166 -6.23685e-05 -0.00207324)
(-2.90726e-05 -2.05481e-05 0.000571532)
(0.000277421 -0.000646763 0.000249087)
(-0.00014093 -2.20778e-05 0.00547754)
(-0.000680463 0.000112754 -0.00164977)
(-0.000102463 0.000264853 -0.00258062)
(-0.000750161 -0.000407436 -8.20554e-05)
(-0.000428142 0.000499569 0.000263831)
(0.000308535 -0.00110111 -0.00447577)
(-0.000261042 0.000175923 0.000364165)
(0.000269942 0.000397152 0.000314137)
(0.000221625 0.00031069 -0.00156275)
(-0.000755589 -0.000222834 -0.00498609)
(0.000278013 -0.000161307 -0.00553096)
(-0.000380109 6.72128e-05 0.000425603)
(0.000336359 -0.000294035 -6.45553e-05)
(-0.000672996 2.00202e-05 0.00160637)
(0.000213207 -7.85143e-05 0.000237312)
(-0.000185424 -0.000157492 -0.00370722)
(-0.000785271 -0.000109514 1.36473e-05)
(-0.000681348 -0.000114535 0.000251218)
(-0.000730537 -0.000123295 -0.00137293)
(-9.53736e-05 -0.000171184 0.000343484)
(-3.03754e-05 -0.000396804 -0.000786321)
(0.000386277 0.000223699 -0.000657328)
(-0.00140779 7.86977e-06 -0.00289052)
(0.000936957 -0.000453168 -0.00124622)
(-0.000419688 0.000182054 -0.00142934)
(0.000648636 -0.000356216 0.000291058)
(-0.000594741 -1.82179e-05 0.000270856)
(-4.05264e-06 -9.2271e-05 0.00348453)
(-0.000380074 0.00112802 -0.0033446)
(-0.000619872 -8.34839e-05 -0.00524197)
(0.00379235 0.00139289 -0.000608202)
(-0.000225194 -0.000608684 -0.00365628)
(-6.96151e-05 5.87541e-05 -0.00160769)
(-0.000400033 9.71294e-05 -0.00135337)
(-0.000356946 -6.6022e-05 0.000234907)
(-1.79483e-05 0.000689247 -0.00246615)
(-4.96682e-05 -0.000177109 -0.00216849)
(0.00230076 -0.00133402 0.000112759)
(-0.00109055 0.000287317 -0.00234419)
(-6.88874e-05 3.14568e-05 -0.000656617)
(-0.000319342 -0.000210535 -0.00156008)
(-0.000718541 0.000352135 0.000241384)
(-0.000274629 0.000180434 0.000177446)
(9.66187e-05 0.000380482 0.000378692)
(0.000289699 0.00101703 -0.000880704)
(-0.000680038 2.1829e-05 -3.83029e-05)
(-0.000714238 -0.000101266 0.000268034)
(-9.98575e-05 -5.12975e-05 0.00229178)
(-0.000278187 9.32253e-05 -0.00545913)
(-0.000457316 0.000352205 0.00322194)
(-0.00100582 -0.000244503 0.00095151)
(0.000164511 0.000853878 -0.000938749)
(0.000260268 -0.000107187 0.00024984)
(-0.000736249 0.000274025 0.00390782)
(0.000573149 -0.000525959 -0.00137975)
(-0.000237627 6.07657e-05 0.000291631)
(-0.000726392 0.000166037 0.000238331)
(-0.00406849 -0.00468562 -0.00458915)
(0.00017436 0.000108488 -0.0020654)
(-0.000558166 -1.62091e-05 0.000197276)
(-0.00065642 -5.6636e-05 -0.000138667)
(0.000173942 -3.13291e-05 0.00452786)
(-0.000306815 -0.000137574 -0.00300466)
(-0.000103993 0.000324999 0.000407745)
(-1.64256e-05 0.000602361 0.0017558)
(6.41775e-06 5.54268e-05 0.00525242)
(-0.00015244 -0.000100647 0.00761561)
(-0.000440904 0.000318663 -0.00193886)
(-0.000947363 0.000418216 0.00112997)
(-4.12244e-05 -0.000458503 0.000365924)
(0.000169563 0.000435461 0.000241351)
(5.89443e-05 6.16602e-06 0.000254698)
(0.000307149 0.00166016 8.22002e-05)
(-0.000444783 0.000129302 -0.00114106)
(5.44512e-05 -5.01842e-05 0.000244352)
(-0.00127688 -0.000541569 -0.00324627)
(0.000348679 0.000513186 2.18389e-05)
(-7.69755e-05 0.000418791 -7.75176e-05)
(-0.000319959 0.000182458 0.00581503)
(-8.33672e-05 7.12589e-05 0.000255344)
(-0.000633647 -9.76392e-05 0.00101826)
(-3.21857e-05 -0.000206572 0.000208681)
(0.000122236 -0.00065929 -0.00124034)
(-0.000143795 -0.000199379 0.00554567)
(-0.000597762 0.000460109 0.00201473)
(8.84895e-05 0.000715939 -0.000207098)
(-0.000437448 -0.00108035 -0.00192944)
(-0.000439771 -0.000133142 0.00648218)
(-0.000135687 3.60276e-05 0.00108617)
(-0.0008637 -0.000129081 -0.000879154)
(-1.4873e-05 0.000120042 0.00110517)
(-7.0523e-05 5.25084e-05 0.000182133)
(-0.00063374 -0.00282991 0.000196282)
(0.000128534 -0.000533166 0.000193796)
(-6.94496e-05 0.000409125 -0.00138418)
(-0.000645093 -0.000124329 0.000258926)
(-1.83933e-05 -0.000574337 0.000243136)
(-0.000569819 0.000868922 5.69745e-06)
(0.000497386 -0.000205519 0.000249541)
(-0.000439506 -0.000122321 0.00028176)
(0.000657807 0.000685809 0.000212592)
(-0.000382375 5.77953e-05 -0.00194467)
(-0.000942623 0.000279501 -0.00152637)
(-8.93022e-06 0.000445547 0.00279789)
(-0.00118465 -0.00111373 0.00201373)
(0.000418705 -0.000131489 -1.01198e-05)
(8.99786e-05 -0.00062734 0.000263722)
(-0.00064372 -0.000557299 0.000741243)
(0.00251039 0.00102177 0.000908539)
(-0.000517723 0.000446805 -0.00164294)
(-0.000820687 -0.000446766 -0.00333619)
(-8.48682e-05 0.000551071 0.000294829)
(-0.00012307 -9.749e-05 -0.0014941)
(-0.000371293 -0.00147505 -0.000867337)
(0.000397967 -0.000131634 0.00020982)