/*--------------------------------*- C++ -*----------------------------------*\
| =========                 |                                                 |
| \\      /  F ield         | OpenFOAM: The Open Source CFD Toolbox           |
|  \\    /   O peration     | Version:  plus.master.MPPICInterFoam            |
|   \\  /    A nd           | Web:      www.OpenFOAM.com                      |
|    \\/     M anipulation  |                                                 |
\*---------------------------------------------------------------------------*/
FoamFile
{
    version     2.0;
    format      ascii;
    class       labelField;
    location    "11.6/lagrangian/kinematicCloud";
    object      origId;
}
// * * * * * * * * * * * * * * * * * * * * * * * * * * * * * * * * * * * * * //


161
(
28453
4566
35572
16253
873
19655
6096
7690
48080
3945
73594
89349
28182
22630
73127
63753
88541
30220
14308
83484
89043
21507
89844
85098
91516
13502
73286
83777
21657
80155
3465
56216
80897
36192
83004
76804
21478
94196
40068
4736
5439
130
70144
72607
82606
77006
77029
67169
76741
83522
45302
86604
80333
39518
66663
18117
87562
53482
30179
73575
72697
2587
723
55936
18645
60412
90441
60258
88075
31122
62677
80895
67624
90938
73848
81645
72928
53393
2006
81339
79559
17747
70925
60917
74336
55631
45051
93497
63319
59340
88415
89139
51939
21930
71936
73203
29798
9797
80407
93737
56760
22252
68238
87889
77269
9440
54654
49145
78676
72739
70851
7540
40653
71261
7853
82311
69102
80488
68745
85394
6151
82578
87816
59847
77412
59293
49188
72631
91837
71268
40125
36583
69472
33316
35339
92109
67905
77840
93238
54328
81642
87200
36368
89852
77139
6909
18361
58781
77792
54779
37152
34804
64704
70921
82394
87117
71663
87793
50354
59787
66991
)


// ************************************************************************* //
