/*--------------------------------*- C++ -*----------------------------------*\
| =========                 |                                                 |
| \\      /  F ield         | OpenFOAM: The Open Source CFD Toolbox           |
|  \\    /   O peration     | Version:  plus.master.MPPICInterFoam            |
|   \\  /    A nd           | Web:      www.OpenFOAM.com                      |
|    \\/     M anipulation  |                                                 |
\*---------------------------------------------------------------------------*/
FoamFile
{
    version     2.0;
    format      ascii;
    class       vectorField;
    location    "11.6/lagrangian/kinematicCloud";
    object      U;
}
// * * * * * * * * * * * * * * * * * * * * * * * * * * * * * * * * * * * * * //


161
(
(-8.18167e-05 6.22543e-05 -0.0364811)
(-9.86712e-06 8.29041e-05 -0.0429492)
(0.00016783 6.72502e-05 -0.0403226)
(0.000192839 5.84756e-05 -0.0422357)
(0.000171717 6.55444e-05 -0.0407868)
(-5.40093e-05 0.000117435 -0.0453432)
(-2.85221e-07 -9.504e-08 -0.0232492)
(-4.12878e-05 0.000110823 -0.0470999)
(1.5975e-09 7.56911e-10 -0.0215066)
(2.47368e-06 1.55779e-05 -0.0226886)
(7.2224e-05 -0.000281849 -0.0536869)
(2.31105e-05 -0.000229795 -0.0532495)
(9.99782e-05 -0.000341994 -0.0547525)
(-0.000253962 0.000262742 -0.0514001)
(-0.000228151 0.000270114 -0.0514013)
(-0.000269721 0.000211773 -0.052028)
(-0.000103314 0.00026343 -0.0520921)
(-0.000239161 0.000219526 -0.0514134)
(-0.000284705 0.000175837 -0.0512924)
(-0.000322614 9.91956e-05 -0.0500823)
(-0.000150579 0.000287632 -0.0543492)
(-0.000142948 0.000289247 -0.0544818)
(-0.00010737 0.000254797 -0.0538063)
(-5.534e-05 5.005e-05 -0.0514951)
(-0.000212327 0.00025916 -0.0539239)
(-0.000270904 0.000185839 -0.0521752)
(-0.000314417 0.000108362 -0.0510521)
(-0.000317973 0.000111438 -0.0510958)
(-0.000250612 0.000197042 -0.0523909)
(-0.000227508 0.000265668 -0.0547093)
(-0.000331079 7.06841e-05 -0.050649)
(-0.00031496 0.000135097 -0.0523114)
(-4.57207e-05 -3.19798e-05 -0.0541483)
(0.000205607 -0.000214174 -0.0540005)
(-0.000324215 0.000123575 -0.0524905)
(0.000175675 -6.50966e-05 -0.0534959)
(0.000181793 -0.000201713 -0.0539704)
(-0.000141637 0.000206345 -0.0538914)
(0.000110731 -0.000167333 -0.0553962)
(-0.000106935 0.000148334 -0.0529393)
(-8.89816e-05 0.000235599 -0.0536662)
(-4.67871e-05 0.000382812 -0.0509814)
(-1.37125e-05 -0.000196192 -0.0534986)
(0.000181912 9.87618e-05 -0.0548158)
(-3.5318e-05 -0.000224194 -0.0537396)
(-5.70212e-05 -0.000188761 -0.0537982)
(9.22696e-05 0.000181971 -0.0550752)
(-0.00020556 -0.00013383 -0.0527986)
(-3.39531e-05 0.00049497 -0.0528554)
(-0.000153105 -0.000219935 -0.0545399)
(-0.000202527 -0.000168718 -0.05456)
(-0.000191144 -0.000371596 -0.050992)
(-0.000185828 -0.000187974 -0.0567573)
(-0.000162034 -8.19033e-05 -0.05832)
(-0.000310252 -0.000310603 -0.0561717)
(-0.000356889 -0.000203092 -0.0545223)
(-0.000356689 -0.000344547 -0.0540175)
(-0.000486265 -0.000351719 -0.0537895)
(0.000324536 0.000258069 -0.0559683)
(-0.000483934 -0.000356628 -0.0564777)
(0.000853692 0.000449244 -0.0486569)
(-0.000764737 -0.000617364 -0.0563069)
(0.000895981 0.000368322 -0.0530827)
(0.00120573 0.00136718 -0.0528482)
(0.00112227 0.00139989 -0.0571233)
(0.00259126 0.00190853 -0.0526339)
(0.00278561 0.00190808 -0.0546206)
(0.00271771 0.00246876 -0.0538624)
(0.00324831 0.00114791 -0.0529024)
(0.00346106 0.000690169 -0.0526424)
(0.00298559 0.00121446 -0.0532753)
(0.00287214 0.00134015 -0.0538758)
(0.00350705 0.00229112 -0.0539883)
(0.00309324 0.00270605 -0.0543279)
(0.00357444 0.00230639 -0.054507)
(0.00357535 0.00216869 -0.0548104)
(0.00323387 0.0029666 -0.0530301)
(0.003564 0.0018759 -0.0551136)
(0.00176391 -0.00290365 -0.052409)
(0.00318727 0.00117796 -0.0550355)
(0.00367572 0.00187997 -0.0547192)
(0.0033036 0.00288028 -0.0551439)
(0.00336474 0.00151711 -0.0549385)
(0.00331565 0.00268461 -0.0567554)
(0.00323093 0.00139865 -0.0573215)
(0.0033133 0.00266742 -0.0565831)
(0.00340534 0.0028056 -0.0573726)
(0.00224636 -0.00377885 -0.0551669)
(0.00361909 0.00288139 -0.0575812)
(0.00383997 0.00331456 -0.0555117)
(0.00394057 0.0033744 -0.054874)
(0.00340205 0.00349523 -0.0595333)
(0.00321576 0.00398082 -0.0585112)
(0.00360734 0.00347246 -0.058044)
(0.00360014 0.00361274 -0.0582173)
(0.00302554 0.00378854 -0.0624646)
(0.00449394 0.00247091 -0.0566605)
(0.00456135 0.00250863 -0.0569017)
(0.0045318 0.00223689 -0.0571681)
(0.00347678 0.00423623 -0.057881)
(0.00339749 0.00421771 -0.059024)
(0.00448282 0.00194242 -0.0580434)
(0.00431821 0.00275682 -0.0585042)
(0.00373376 0.00286172 -0.0605399)
(0.00419397 0.00278742 -0.0591209)
(0.00396981 0.00288326 -0.0596019)
(0.00444261 0.00275379 -0.0598449)
(0.00438687 0.002899 -0.0601878)
(0.00431841 0.00303959 -0.0601202)
(0.00357701 0.00440217 -0.0608673)
(0.00350977 0.00441475 -0.0612157)
(0.00424547 0.00323899 -0.0607637)
(0.00379075 0.0043281 -0.0606937)
(0.00412606 0.00392465 -0.0610149)
(0.00240103 -0.0054835 -0.0574877)
(0.00393941 0.00430927 -0.0626354)
(0.00349483 0.00452557 -0.0636154)
(0.00234762 -0.00559428 -0.0577572)
(0.00233987 -0.00560176 -0.0578368)
(0.00263986 0.00388211 -0.0662146)
(0.00325145 0.00422523 -0.0640938)
(-0.00424886 -0.00172647 -0.0660706)
(0.00321341 0.00438002 -0.0616252)
(-0.00438479 -0.0019218 -0.0645837)
(-0.00408007 -0.00200859 -0.0670203)
(0.00313137 0.00362832 -0.0645407)
(-0.00432736 -0.00217678 -0.0672931)
(0.00377687 0.00444457 -0.0647877)
(-0.000304259 -0.00357391 0.321531)
(0.00362314 0.0044373 -0.06606)
(-0.00475699 -0.00230691 -0.0666446)
(-0.00416312 0.00124788 0.461822)
(0.00452822 0.00347614 -0.0643455)
(-0.00546832 0.000903867 0.464294)
(-0.00144694 -0.00430811 0.326098)
(0.00389456 0.00425859 -0.0683583)
(0.00420639 0.00390656 -0.0667154)
(0.00358063 0.00429638 -0.0687731)
(0.00426244 0.00383428 -0.0660197)
(0.00431811 0.00348729 -0.0695689)
(0.00282547 -0.00541077 -0.0636989)
(-0.00165969 -0.00314975 0.328828)
(0.00390586 0.00415689 -0.068767)
(0.00290413 -0.00546926 -0.0643811)
(-0.00185681 -0.00263178 0.342716)
(0.00466944 0.00301267 -0.067218)
(0.00302305 -0.00559982 -0.0645165)
(0.00349844 0.00410546 -0.0705301)
(-0.0075095 -0.00264955 -0.0732497)
(-0.00768075 -0.00232492 -0.0729987)
(-0.00789287 -0.00218035 -0.0735559)
(-0.00388286 -0.00336786 0.347675)
(-0.0076512 -0.00281103 -0.0732713)
(-0.00173527 0.00577604 0.431663)
(0.00313943 -0.00573229 -0.0666655)
(0.00380898 0.00362869 -0.0713689)
(0.00318106 -0.00578385 -0.0674003)
(0.00349985 0.00386948 -0.0736847)
(0.00324068 0.00389092 -0.0735712)
(-0.00893816 -0.00193074 -0.0785941)
(0.00224576 0.00265758 -0.078733)
)


// ************************************************************************* //
