/*--------------------------------*- C++ -*----------------------------------*\
| =========                 |                                                 |
| \\      /  F ield         | OpenFOAM: The Open Source CFD Toolbox           |
|  \\    /   O peration     | Version:  plus.master.MPPICInterFoam            |
|   \\  /    A nd           | Web:      www.OpenFOAM.com                      |
|    \\/     M anipulation  |                                                 |
\*---------------------------------------------------------------------------*/
FoamFile
{
    version     2.0;
    format      ascii;
    class       volScalarField;
    location    "7.2";
    object      nut;
}
// * * * * * * * * * * * * * * * * * * * * * * * * * * * * * * * * * * * * * //

dimensions      [0 2 -1 0 0 0 0];

internalField   nonuniform List<scalar> 
11821
(
2.72962e-05
4.71517e-05
9.0639e-05
0.000102129
6.87265e-05
3.46551e-05
2.22391e-05
4.46489e-05
3.96015e-05
0.000114512
0.000121113
8.20255e-05
2.84238e-05
3.57534e-05
8.35836e-05
0.000104824
9.19386e-05
0.00012398
7.67208e-05
8.90232e-05
7.32382e-05
0.000106465
0.000121789
0.000141918
0.000118108
0.00011888
0.000103942
9.27991e-05
8.35536e-05
0.00010564
9.23931e-05
0.000126309
7.6112e-05
8.78583e-05
7.22549e-05
4.47498e-05
4.0628e-05
0.000117215
0.000122768
8.24489e-05
2.79885e-05
3.52282e-05
2.79977e-05
4.88519e-05
9.31633e-05
0.00010413
6.98625e-05
3.48896e-05
2.22164e-05
2.83008e-05
2.97389e-05
5.69769e-05
5.84859e-05
3.60588e-05
2.12487e-05
3.36772e-05
2.88253e-05
7.19071e-05
0.000131964
0.000141551
9.16295e-05
4.22956e-05
2.05735e-05
5.69071e-05
0.000132832
0.000141127
0.000193435
0.00010709
7.99807e-05
3.12598e-05
7.3515e-05
0.000165271
0.000199617
0.000203559
0.000193187
8.92248e-05
3.46194e-05
5.71154e-05
0.000134962
0.000143643
0.000193187
0.000109516
7.98899e-05
3.06803e-05
2.93549e-05
7.47645e-05
0.000136741
0.000147743
9.41561e-05
4.26739e-05
2.06111e-05
2.81359e-05
3.12253e-05
6.0033e-05
6.16947e-05
3.74003e-05
2.15084e-05
3.47818e-05
5.28729e-05
4.58937e-05
7.09171e-05
7.29416e-05
4.78875e-05
3.75781e-05
6.41682e-05
4.62773e-05
9.53165e-05
0.000149804
0.000160092
0.00010421
5.18795e-05
3.77429e-05
7.78824e-05
0.000162629
0.00020059
0.000208915
0.000154267
8.19847e-05
3.82888e-05
0.000100028
0.000205457
0.000222916
0.000223995
0.000225239
9.46587e-05
3.91614e-05
7.94439e-05
0.000166464
0.000205461
0.000209579
0.000160161
8.36895e-05
3.83036e-05
4.79166e-05
0.000100579
0.000158462
0.000171215
0.000111018
5.41989e-05
3.81922e-05
5.25985e-05
4.8876e-05
7.72125e-05
8.0724e-05
5.22093e-05
3.84854e-05
6.52178e-05
9.95994e-05
6.55971e-05
7.72255e-05
8.12771e-05
5.99421e-05
6.80941e-05
0.000112586
6.64783e-05
0.000101162
0.000156145
0.000169968
0.000113221
6.32277e-05
7.09218e-05
8.32053e-05
0.000172485
0.000231201
0.000220696
0.000179072
8.97992e-05
5.2537e-05
0.000106126
0.000224816
0.000246754
0.000234454
0.000237395
0.000107641
4.87991e-05
8.5083e-05
0.000176938
0.000237746
0.000223928
0.000185758
9.22372e-05
5.28553e-05
6.76278e-05
0.000107124
0.000166534
0.000183709
0.000121819
6.61538e-05
7.13378e-05
9.91468e-05
6.81318e-05
8.41979e-05
9.055e-05
6.49417e-05
6.89501e-05
0.000113613
0.00011985
7.74579e-05
7.53116e-05
8.05759e-05
6.52481e-05
8.44503e-05
0.000126997
7.82422e-05
9.24051e-05
0.0001448
0.000164928
0.000112894
6.80436e-05
8.72699e-05
7.62104e-05
0.000155579
0.000226727
0.000228012
0.000184168
9.18218e-05
6.04656e-05
9.45997e-05
0.00021245
0.000246228
0.000237335
0.000235683
0.000112541
5.34526e-05
7.78852e-05
0.000159992
0.000233208
0.000231279
0.000190314
9.42981e-05
6.0676e-05
7.82966e-05
9.75389e-05
0.000154685
0.000178069
0.000121096
7.05876e-05
8.7098e-05
0.000118895
7.86241e-05
8.11723e-05
8.89779e-05
6.95429e-05
8.46566e-05
0.000127379
1.99198e-05
1.95462e-05
1.92679e-05
1.90367e-05
1.88517e-05
1.86389e-05
1.84373e-05
1.82926e-05
2.37848e-05
2.04138e-05
1.93334e-05
1.8936e-05
1.86769e-05
1.84029e-05
1.81621e-05
1.79982e-05
3.93712e-05
2.42223e-05
2.00402e-05
1.90972e-05
1.86991e-05
1.83907e-05
1.81828e-05
1.80035e-05
5.06864e-05
2.81894e-05
2.05553e-05
1.88684e-05
1.84106e-05
1.80622e-05
1.7742e-05
1.76171e-05
3.86337e-05
2.39911e-05
1.99904e-05
1.90335e-05
1.86168e-05
1.82649e-05
1.80333e-05
1.78591e-05
2.34051e-05
2.02628e-05
1.94872e-05
1.89257e-05
1.8601e-05
1.83184e-05
1.80679e-05
1.79068e-05
1.98979e-05
1.9629e-05
1.94744e-05
1.91859e-05
1.89417e-05
1.8718e-05
1.85243e-05
1.83561e-05
5.85974e-05
7.15919e-05
7.58534e-05
7.72835e-05
7.7644e-05
7.75606e-05
7.71687e-05
7.64346e-05
3.40726e-05
5.96141e-05
7.17673e-05
7.60379e-05
7.73296e-05
7.75665e-05
7.73017e-05
7.66217e-05
1.97266e-05
4.30223e-05
6.49903e-05
7.37056e-05
7.64599e-05
7.71297e-05
7.70097e-05
7.63555e-05
1.62483e-05
3.53367e-05
6.105e-05
7.23472e-05
7.60212e-05
7.69755e-05
7.69227e-05
7.63096e-05
1.99371e-05
4.38443e-05
6.53994e-05
7.37699e-05
7.63921e-05
7.70092e-05
7.68752e-05
7.62066e-05
3.56564e-05
6.11768e-05
7.24683e-05
7.62823e-05
7.73835e-05
7.75273e-05
7.71966e-05
7.64547e-05
6.11774e-05
7.31641e-05
7.67588e-05
7.78857e-05
7.8125e-05
7.79734e-05
7.75042e-05
7.66524e-05
9.70534e-05
0.000111649
0.000115718
0.000114997
0.000111631
0.000106669
0.000100812
9.47126e-05
6.78944e-05
9.84974e-05
0.000111116
0.000113841
0.000111771
0.000107199
0.000101318
9.50256e-05
4.17427e-05
7.8828e-05
0.000103174
0.000111265
0.0001113
0.000107497
0.000101806
9.54486e-05
3.16141e-05
6.79136e-05
9.83175e-05
0.000109568
0.000110834
0.00010747
0.000101887
9.55006e-05
4.20965e-05
7.95341e-05
0.000103626
0.00011143
0.000111277
0.000107346
0.000101556
9.51158e-05
6.94461e-05
9.99511e-05
0.000111891
0.000114113
0.00011172
0.000106923
0.000100867
9.44347e-05
9.91935e-05
0.000112985
0.00011629
0.000115007
0.000111208
0.000105888
9.97297e-05
9.33828e-05
0.000143353
0.000152017
0.000150551
0.000144705
0.000137322
0.000129968
0.000123178
0.000116287
0.0001174
0.000142947
0.000148616
0.000145166
0.000138206
0.000130606
0.000123532
0.000116479
8.29514e-05
0.000126343
0.000143571
0.000144639
0.000139104
0.000131754
0.000124629
0.00011754
6.45964e-05
0.000115386
0.000139966
0.000143972
0.000139418
0.000132303
0.000125184
0.000118079
8.33777e-05
0.000127054
0.00014411
0.000144983
0.000139337
0.000131935
0.00012479
0.000117696
0.000118293
0.000143958
0.000149288
0.000145571
0.000138474
0.000130824
0.000123743
0.000116694
0.000144619
0.000152681
0.000150692
0.000144514
0.00013696
0.000129529
0.000122689
0.000115714
0.00014474
0.000142033
0.000130919
0.000117054
0.000102793
8.87399e-05
7.48836e-05
6.18463e-05
0.000128949
0.000140892
0.000134265
0.000120784
0.000105681
9.0685e-05
7.59984e-05
6.22253e-05
9.8903e-05
0.000131455
0.0001343
0.000123382
0.000108368
9.28076e-05
7.74212e-05
6.29517e-05
7.91405e-05
0.000123156
0.000133012
0.000124221
0.000109545
9.37954e-05
7.80894e-05
6.3289e-05
9.89254e-05
0.000131946
0.000134821
0.000123805
0.00010868
9.3003e-05
7.74969e-05
6.29211e-05
0.000129456
0.0001417
0.000134947
0.000121272
0.000105966
9.07615e-05
7.58777e-05
6.19573e-05
0.000145596
0.000142657
0.000131225
0.000117039
0.000102441
8.80581e-05
7.39396e-05
6.07728e-05
2.20274e-05
2.12297e-05
2.1031e-05
2.0881e-05
2.07428e-05
2.06347e-05
2.05435e-05
2.0478e-05
2.71579e-05
2.15624e-05
2.05863e-05
2.02751e-05
1.99448e-05
1.96907e-05
1.94808e-05
1.92914e-05
4.60261e-05
2.72632e-05
2.1278e-05
2.00115e-05
1.95689e-05
1.91342e-05
1.88803e-05
1.86233e-05
5.9942e-05
3.31062e-05
2.23755e-05
1.98882e-05
1.91559e-05
1.86025e-05
1.81279e-05
1.77679e-05
4.66461e-05
2.77451e-05
2.15579e-05
2.02062e-05
1.96765e-05
1.91894e-05
1.87167e-05
1.85516e-05
2.73482e-05
2.16796e-05
2.06143e-05
2.01374e-05
1.99185e-05
1.97592e-05
1.96661e-05
1.96063e-05
2.16533e-05
2.09161e-05
2.08141e-05
2.07349e-05
2.06011e-05
2.04953e-05
2.04073e-05
2.03115e-05
6.07611e-05
7.48684e-05
7.80385e-05
7.89302e-05
7.88439e-05
7.8222e-05
7.71748e-05
7.56767e-05
3.06597e-05
5.81983e-05
7.22514e-05
7.72798e-05
7.88756e-05
7.91688e-05
7.88348e-05
7.81023e-05
2.252e-05
3.48936e-05
6.04423e-05
7.23919e-05
7.6379e-05
7.73716e-05
7.72661e-05
7.65936e-05
2.44631e-05
2.46198e-05
5.18938e-05
6.75218e-05
7.25684e-05
7.36085e-05
7.32225e-05
7.22236e-05
2.27163e-05
3.46232e-05
6.00772e-05
7.22196e-05
7.64065e-05
7.76319e-05
7.77923e-05
7.74566e-05
3.10053e-05
5.84369e-05
7.23646e-05
7.7519e-05
7.93308e-05
7.97679e-05
7.96193e-05
7.89882e-05
6.1055e-05
7.46203e-05
7.76493e-05
7.85393e-05
7.85124e-05
7.79965e-05
7.71022e-05
7.57939e-05
9.47613e-05
0.000113964
0.000118526
0.000117697
0.000113626
0.000107418
9.99413e-05
9.20686e-05
5.61344e-05
9.49434e-05
0.000113295
0.000118564
0.000117732
0.000113569
0.000107407
0.00010028
3.70646e-05
6.31544e-05
9.93782e-05
0.00011454
0.000118236
0.000116724
0.000112452
0.000106724
3.52495e-05
4.3947e-05
8.73288e-05
0.000109404
0.000115625
0.000115083
0.000111253
0.000105707
3.68787e-05
6.35651e-05
9.96001e-05
0.000114661
0.000118327
0.00011678
0.000112458
0.00010669
5.70138e-05
9.57222e-05
0.000113592
0.000118772
0.000117923
0.000113718
0.000107499
0.00010033
9.55284e-05
0.000114066
0.000118679
0.000118101
0.000114319
0.000108385
0.000101142
9.3447e-05
0.000143399
0.000156991
0.000156605
0.000150696
0.000142585
0.00013413
0.000126064
0.000117801
0.000104941
0.000145137
0.000157208
0.000156485
0.000150627
0.000143274
0.000136088
0.000128899
6.43297e-05
0.00011501
0.000148859
0.000157814
0.000156204
0.000151164
0.000145872
0.000140873
4.96905e-05
8.99906e-05
0.000138766
0.000155015
0.000155805
0.000151427
0.000146277
0.00014138
6.46267e-05
0.000115853
0.000148994
0.000157446
0.000155495
0.00015018
0.000144612
0.000139269
0.000106294
0.00014562
0.000156998
0.000155863
0.000149629
0.00014187
0.000134222
0.000126488
0.000143758
0.000157084
0.000156853
0.000151087
0.000143017
0.000134528
0.000126407
0.000118123
0.000148986
0.000149313
0.000138291
0.000123376
0.00010746
9.1527e-05
7.58279e-05
6.12356e-05
0.000124834
0.000149299
0.000146719
0.000133944
0.000117937
0.000101133
8.40127e-05
6.74579e-05
8.24494e-05
0.000132632
0.000148424
0.000141634
0.000127299
0.0001109
9.34916e-05
7.59714e-05
5.95401e-05
0.000112932
0.000144374
0.000142494
0.000129299
0.000113344
9.65341e-05
7.96275e-05
8.32776e-05
0.000133112
0.000147893
0.000140629
0.000126055
0.000109468
9.19182e-05
7.43149e-05
0.000126027
0.000149167
0.00014588
0.000132741
0.000116513
9.95892e-05
8.24942e-05
6.61548e-05
0.000149257
0.000149447
0.000138527
0.000123698
0.000107851
9.19715e-05
7.62851e-05
6.16488e-05
2.16275e-05
2.046e-05
2.01951e-05
2.00178e-05
1.97985e-05
1.96033e-05
1.94181e-05
1.92631e-05
2.98106e-05
2.20892e-05
1.98466e-05
1.91645e-05
1.86704e-05
1.83482e-05
1.81038e-05
1.78733e-05
5.01037e-05
2.9006e-05
2.10919e-05
1.90899e-05
1.83912e-05
1.7795e-05
1.71591e-05
1.66206e-05
5.6642e-05
3.07783e-05
2.10521e-05
1.86545e-05
1.77787e-05
1.72181e-05
1.67253e-05
1.62627e-05
3.83422e-05
2.37407e-05
1.96209e-05
1.86003e-05
1.81239e-05
1.77506e-05
1.73178e-05
1.67874e-05
2.28227e-05
1.9763e-05
1.91208e-05
1.87086e-05
1.8355e-05
1.80443e-05
1.77015e-05
1.74656e-05
1.96532e-05
1.94236e-05
1.92336e-05
1.90711e-05
1.89395e-05
1.8766e-05
1.85734e-05
1.83784e-05
5.90377e-05
7.35364e-05
7.64465e-05
7.71639e-05
7.70435e-05
7.65416e-05
7.58025e-05
7.47896e-05
2.93875e-05
5.36094e-05
6.76015e-05
7.26027e-05
7.38338e-05
7.35628e-05
7.26352e-05
7.14632e-05
2.33714e-05
3.21317e-05
5.40973e-05
6.50509e-05
6.83926e-05
6.85373e-05
6.75013e-05
6.60278e-05
2.0803e-05
2.86548e-05
5.24856e-05
6.40847e-05
6.73556e-05
6.72468e-05
6.58494e-05
6.39227e-05
2.16342e-05
4.31645e-05
6.26368e-05
7.0161e-05
7.20271e-05
7.16449e-05
7.03956e-05
6.8785e-05
3.92671e-05
6.27199e-05
7.16848e-05
7.44479e-05
7.48554e-05
7.44065e-05
7.36165e-05
7.26371e-05
6.21246e-05
7.23316e-05
7.54148e-05
7.62499e-05
7.62124e-05
7.58822e-05
7.54131e-05
7.47725e-05
9.29857e-05
0.000112628
0.000117944
0.000117987
0.000114924
0.000109774
0.000103291
9.62433e-05
5.35386e-05
8.94229e-05
0.000108387
0.000114857
0.000115199
0.000112157
0.000107045
0.000100838
3.51804e-05
5.6871e-05
9.0068e-05
0.00010577
0.000110409
0.000109634
0.00010593
0.000100574
3.00285e-05
4.81035e-05
8.48575e-05
0.000102827
0.000108081
0.000107258
0.000103276
9.75767e-05
3.74108e-05
7.19145e-05
9.94594e-05
0.000110481
0.000112849
0.000110848
0.000106342
0.000100395
6.80674e-05
9.92747e-05
0.00011206
0.000115678
0.00011467
0.000110994
0.000105636
9.93956e-05
9.80698e-05
0.00011219
0.000116337
0.00011595
0.000112913
0.000108178
0.000102403
9.62328e-05
0.000141651
0.00015656
0.000157424
0.000152563
0.000145266
0.000137441
0.000129952
0.000122382
9.98259e-05
0.000139584
0.000154146
0.000155791
0.000151708
0.000145593
0.000139327
0.000133016
6.0749e-05
0.000105734
0.000139792
0.000151431
0.000151889
0.000147865
0.000142723
0.00013736
4.80867e-05
8.97535e-05
0.00013203
0.000147827
0.000149609
0.000145641
0.000139988
0.000133897
7.00628e-05
0.000118373
0.000145286
0.000153125
0.000151795
0.000146788
0.000140929
0.000134874
0.00011479
0.000145141
0.000154523
0.00015404
0.000149101
0.000142711
0.00013641
0.00013014
0.000144027
0.000154033
0.000153622
0.000148594
0.000141733
0.000134657
0.000128014
0.000121269
0.000148634
0.000149829
0.00013943
0.000125043
0.000109643
9.41784e-05
7.87236e-05
6.39911e-05
0.000120955
0.000146842
0.000146479
0.000135128
0.000120005
0.000103896
8.72012e-05
7.07428e-05
7.87681e-05
0.000125296
0.000143838
0.000139419
0.000125953
0.000109856
9.28408e-05
7.58889e-05
6.10023e-05
0.000110051
0.000139471
0.000139181
0.000126522
0.000110281
9.31934e-05
7.65498e-05
8.8526e-05
0.00013205
0.000144682
0.000137904
0.000123611
0.000107324
9.06138e-05
7.42812e-05
0.000129552
0.000146957
0.00014327
0.000130978
0.000115959
0.000100582
8.51129e-05
7.00524e-05
0.000146692
0.000144692
0.000133809
0.000120038
0.000105851
9.18514e-05
7.78839e-05
6.44972e-05
1.99444e-05
1.96756e-05
1.95543e-05
1.94648e-05
1.92951e-05
1.91264e-05
1.89585e-05
1.87504e-05
2.357e-05
2.04659e-05
1.9717e-05
1.93405e-05
1.89804e-05
1.8717e-05
1.85011e-05
1.82685e-05
4.00652e-05
2.50538e-05
2.05858e-05
1.95542e-05
1.90531e-05
1.85963e-05
1.81799e-05
1.78021e-05
5.89838e-05
3.26154e-05
2.23393e-05
1.98191e-05
1.90274e-05
1.84898e-05
1.79913e-05
1.75037e-05
5.265e-05
3.06525e-05
2.22284e-05
2.0071e-05
1.93363e-05
1.88413e-05
1.83939e-05
1.79827e-05
3.17009e-05
2.37121e-05
2.10427e-05
2.02885e-05
1.98834e-05
1.95022e-05
1.92536e-05
1.90713e-05
2.26785e-05
2.13539e-05
2.09231e-05
2.07348e-05
2.05649e-05
2.04123e-05
2.03056e-05
2.02282e-05
6.45965e-05
7.42767e-05
7.69384e-05
7.76643e-05
7.77052e-05
7.7482e-05
7.70585e-05
7.63413e-05
4.03353e-05
6.45445e-05
7.35425e-05
7.64397e-05
7.71471e-05
7.71037e-05
7.6715e-05
7.60712e-05
2.19008e-05
4.4006e-05
6.46674e-05
7.28837e-05
7.53022e-05
7.55643e-05
7.50565e-05
7.4198e-05
2.17494e-05
2.89705e-05
5.48815e-05
6.81933e-05
7.23484e-05
7.2823e-05
7.19505e-05
7.05548e-05
2.42723e-05
3.27215e-05
5.66804e-05
6.92067e-05
7.34995e-05
7.44004e-05
7.4076e-05
7.32727e-05
2.91037e-05
5.40461e-05
6.97516e-05
7.57081e-05
7.7608e-05
7.79231e-05
7.76205e-05
7.6953e-05
5.96895e-05
7.54459e-05
7.83713e-05
7.91645e-05
7.91027e-05
7.8556e-05
7.7605e-05
7.62021e-05
0.00010047
0.000113928
0.000117206
0.00011612
0.000112467
0.000107156
0.000100851
9.4228e-05
6.9096e-05
0.000101238
0.000113748
0.000116901
0.000115412
0.000111236
0.000105375
9.86758e-05
3.80722e-05
7.27892e-05
0.000101892
0.000113456
0.00011597
0.000114036
0.000109589
0.000103738
3.26474e-05
4.80116e-05
8.73809e-05
0.000107341
0.0001134
0.000113011
0.000109366
0.000103987
3.73545e-05
5.81598e-05
9.34965e-05
0.000110311
0.000115245
0.000114504
0.000110765
0.000105412
5.38381e-05
9.07024e-05
0.000110461
0.000116881
0.000116853
0.000113309
0.000107652
0.000100919
9.369e-05
0.000113744
0.000118475
0.000117819
0.000113975
0.000108002
0.000100722
9.29767e-05
0.000145629
0.000154582
0.000153111
0.000147303
0.000139907
0.000132466
0.000125509
0.000118364
0.00011612
0.000146597
0.000155009
0.000153592
0.000148035
0.000141362
0.000134997
0.00012864
7.08143e-05
0.000119899
0.000147579
0.000155239
0.000153806
0.000149218
0.000144406
0.000139873
5.09065e-05
9.04678e-05
0.00013507
0.000151717
0.000153702
0.000150213
0.000145616
0.000141105
6.31673e-05
0.000108093
0.000143088
0.000154412
0.000154404
0.000150348
0.000145739
0.000141307
0.000100692
0.000141021
0.000154893
0.000155442
0.000150404
0.000143596
0.000136812
0.000129942
0.000142281
0.000156627
0.000156499
0.000150775
0.000142811
0.000134478
0.000126527
0.000118395
0.000147571
0.000145159
0.000133865
0.000119678
0.000104937
9.02656e-05
7.56987e-05
6.19545e-05
0.000130343
0.000147867
0.000143818
0.000131391
0.000116261
0.000100432
8.41717e-05
6.82614e-05
8.89762e-05
0.000133237
0.000146218
0.00013969
0.000126094
0.000110445
9.37515e-05
7.67867e-05
6.3246e-05
0.000110811
0.000141325
0.00014125
0.000129198
0.000113908
9.75523e-05
8.09758e-05
8.045e-05
0.000126903
0.000145397
0.000140682
0.000127335
0.000111312
9.38898e-05
7.60431e-05
0.000121132
0.000147092
0.000146038
0.000134051
0.00011836
0.000101564
8.42309e-05
6.73606e-05
0.000148488
0.000149322
0.000138418
0.000123555
0.00010765
9.16919e-05
7.59355e-05
6.12622e-05
1.81721e-05
1.78563e-05
1.77677e-05
1.75361e-05
1.7611e-05
1.77827e-05
1.82218e-05
7.52867e-05
7.54789e-05
7.5208e-05
7.51269e-05
7.50425e-05
7.52351e-05
7.53437e-05
8.90389e-05
8.92684e-05
8.96305e-05
8.96434e-05
8.92387e-05
8.85763e-05
8.75061e-05
0.000107588
0.000107399
0.000108266
0.000108736
0.000108413
0.000107596
0.000106846
5.02199e-05
4.97301e-05
4.97154e-05
4.973e-05
4.96235e-05
4.94213e-05
4.92414e-05
2.04149e-05
1.9311e-05
1.81535e-05
1.74283e-05
1.83325e-05
1.94814e-05
2.02208e-05
7.36905e-05
7.69919e-05
7.5675e-05
7.09439e-05
7.67273e-05
7.79505e-05
7.4013e-05
8.46534e-05
9.33948e-05
0.00010102
0.00010004
0.000100982
9.34343e-05
8.61625e-05
0.000107574
0.000119638
0.000134129
0.00013499
0.000132055
0.000116628
0.000107966
4.89462e-05
5.2598e-05
5.88449e-05
6.23746e-05
5.73436e-05
5.17011e-05
4.92486e-05
1.91341e-05
1.76951e-05
1.62362e-05
1.58335e-05
1.63683e-05
1.738e-05
1.81797e-05
7.34223e-05
7.01585e-05
6.44101e-05
6.18616e-05
6.70686e-05
7.14247e-05
7.38823e-05
8.9456e-05
9.47306e-05
9.49423e-05
9.16432e-05
9.43175e-05
9.33226e-05
9.0352e-05
0.000113022
0.000124828
0.000130335
0.000126139
0.000127202
0.000122087
0.000112717
5.09936e-05
5.51306e-05
5.87893e-05
5.9702e-05
5.79729e-05
5.54307e-05
5.21672e-05
1.85276e-05
1.8138e-05
1.74801e-05
1.70387e-05
1.75747e-05
1.88664e-05
2.01528e-05
7.52305e-05
7.51221e-05
7.31305e-05
6.90323e-05
7.23024e-05
7.60403e-05
7.42857e-05
8.79848e-05
9.22128e-05
9.78696e-05
9.84393e-05
9.99521e-05
9.43326e-05
8.56041e-05
0.000109219
0.000120113
0.000133567
0.000134948
0.000135032
0.000120887
0.000108306
4.98868e-05
5.35593e-05
5.97894e-05
6.37401e-05
5.84585e-05
5.22537e-05
4.88851e-05
1.80499e-05
1.78453e-05
1.73878e-05
1.68132e-05
1.61159e-05
1.53398e-05
1.45063e-05
1.3608e-05
1.77295e-05
1.75209e-05
1.70615e-05
1.64506e-05
1.57417e-05
1.49589e-05
1.41204e-05
1.32203e-05
1.75826e-05
1.73186e-05
1.68817e-05
1.62035e-05
1.54678e-05
1.46918e-05
1.38649e-05
1.29783e-05
1.73615e-05
1.71009e-05
1.68244e-05
1.62545e-05
1.54697e-05
1.46012e-05
1.37432e-05
1.28614e-05
1.74205e-05
1.71912e-05
1.6809e-05
1.6141e-05
1.53995e-05
1.4628e-05
1.38079e-05
1.29306e-05
1.76525e-05
1.74468e-05
1.69828e-05
1.63495e-05
1.56338e-05
1.48513e-05
1.40196e-05
1.31326e-05
1.80949e-05
1.78974e-05
1.74374e-05
1.68089e-05
1.60651e-05
1.5257e-05
1.44085e-05
1.35117e-05
7.3433e-05
7.02024e-05
6.72717e-05
6.41152e-05
6.00648e-05
5.49012e-05
4.87314e-05
4.17901e-05
7.36682e-05
7.0478e-05
6.73365e-05
6.39236e-05
5.9611e-05
5.42397e-05
4.79502e-05
4.09974e-05
7.33911e-05
7.02563e-05
6.68541e-05
6.32819e-05
5.8898e-05
5.35266e-05
4.72969e-05
4.04462e-05
7.33063e-05
7.02937e-05
6.68257e-05
6.30633e-05
5.85169e-05
5.3104e-05
4.69168e-05
4.01484e-05
7.31895e-05
6.99995e-05
6.65345e-05
6.29614e-05
5.86285e-05
5.33204e-05
4.71608e-05
4.03799e-05
7.33084e-05
6.99599e-05
6.67644e-05
6.34085e-05
5.91802e-05
5.38992e-05
4.77033e-05
4.08478e-05
7.32158e-05
6.97458e-05
6.68571e-05
6.38533e-05
5.99247e-05
5.48372e-05
4.87257e-05
4.18549e-05
8.31137e-05
7.72505e-05
7.58097e-05
7.39769e-05
7.01219e-05
6.41417e-05
5.65293e-05
4.78994e-05
8.3542e-05
7.78258e-05
7.62794e-05
7.41864e-05
6.99929e-05
6.36706e-05
5.57773e-05
4.69857e-05
8.3975e-05
7.8186e-05
7.63413e-05
7.39867e-05
6.95812e-05
6.31206e-05
5.51686e-05
4.63925e-05
8.39956e-05
7.8223e-05
7.62317e-05
7.37545e-05
6.92457e-05
6.27235e-05
5.47617e-05
4.60224e-05
8.35314e-05
7.76968e-05
7.58382e-05
7.35222e-05
6.91767e-05
6.27818e-05
5.48988e-05
4.61961e-05
8.27486e-05
7.68983e-05
7.53434e-05
7.33175e-05
6.92155e-05
6.29762e-05
5.51641e-05
4.64712e-05
8.13963e-05
7.5706e-05
7.44898e-05
7.28747e-05
6.92149e-05
6.33547e-05
5.58105e-05
4.72617e-05
9.62268e-05
8.32413e-05
7.62953e-05
7.38174e-05
7.10123e-05
6.60653e-05
5.90776e-05
5.07469e-05
9.61553e-05
8.3512e-05
7.68512e-05
7.44382e-05
7.14083e-05
6.6045e-05
5.8591e-05
4.9881e-05
9.69804e-05
8.42039e-05
7.72842e-05
7.45895e-05
7.1284e-05
6.56769e-05
5.80461e-05
4.92484e-05
9.73913e-05
8.4473e-05
7.73605e-05
7.44967e-05
7.1054e-05
6.53389e-05
5.76416e-05
4.88281e-05
9.70475e-05
8.4075e-05
7.69788e-05
7.42062e-05
7.08868e-05
6.52861e-05
5.76773e-05
4.89254e-05
9.62281e-05
8.32526e-05
7.62843e-05
7.37209e-05
7.06195e-05
6.51935e-05
5.77012e-05
4.90211e-05
9.53428e-05
8.21581e-05
7.51501e-05
7.27298e-05
6.99411e-05
6.49015e-05
5.77793e-05
4.94022e-05
6.24405e-05
6.93826e-05
6.91434e-05
6.92271e-05
6.80926e-05
6.45962e-05
5.89019e-05
5.17431e-05
6.26262e-05
7.01519e-05
7.02747e-05
7.04127e-05
6.90399e-05
6.50687e-05
5.87937e-05
5.11161e-05
6.31813e-05
7.09253e-05
7.09371e-05
7.08209e-05
6.91441e-05
6.48743e-05
5.83555e-05
5.05257e-05
6.3414e-05
7.12273e-05
7.1154e-05
7.0898e-05
6.90707e-05
6.46618e-05
5.80384e-05
5.01535e-05
6.31071e-05
7.0864e-05
7.08175e-05
7.06282e-05
6.88828e-05
6.45509e-05
5.79953e-05
5.01714e-05
6.24744e-05
7.0138e-05
7.0184e-05
7.01642e-05
6.85858e-05
6.43787e-05
5.79108e-05
5.01618e-05
6.13419e-05
6.86456e-05
6.86459e-05
6.87602e-05
6.74339e-05
6.35485e-05
5.74344e-05
5.00359e-05
2.03039e-05
1.98903e-05
1.92291e-05
1.83769e-05
1.74528e-05
1.65072e-05
1.55578e-05
1.46027e-05
1.93164e-05
1.90758e-05
1.87249e-05
1.80849e-05
1.72705e-05
1.63658e-05
1.53989e-05
1.44096e-05
1.77697e-05
1.72714e-05
1.67297e-05
1.61197e-05
1.54689e-05
1.48247e-05
1.4119e-05
1.33311e-05
1.7095e-05
1.65069e-05
1.58769e-05
1.52069e-05
1.44946e-05
1.38226e-05
1.31868e-05
1.24167e-05
1.79812e-05
1.7515e-05
1.70109e-05
1.64201e-05
1.57813e-05
1.51509e-05
1.44415e-05
1.36151e-05
1.94405e-05
1.93085e-05
1.8969e-05
1.83077e-05
1.74958e-05
1.66057e-05
1.56347e-05
1.46254e-05
2.01084e-05
1.97044e-05
1.90921e-05
1.82926e-05
1.74109e-05
1.64931e-05
1.55557e-05
1.45987e-05
7.09047e-05
6.80838e-05
6.64063e-05
6.45695e-05
6.15098e-05
5.69319e-05
5.10245e-05
4.40943e-05
7.50861e-05
7.21134e-05
6.90271e-05
6.57212e-05
6.15314e-05
5.61928e-05
4.98656e-05
4.28208e-05
7.40745e-05
7.17252e-05
6.88956e-05
6.54712e-05
6.1337e-05
5.64193e-05
5.07429e-05
4.43763e-05
6.89289e-05
6.59632e-05
6.25705e-05
5.87884e-05
5.46405e-05
5.01804e-05
4.49758e-05
3.96198e-05
7.53431e-05
7.33189e-05
7.07946e-05
6.765e-05
6.36285e-05
5.86477e-05
5.27665e-05
4.61175e-05
7.61112e-05
7.31085e-05
7.02202e-05
6.71204e-05
6.30171e-05
5.76517e-05
5.12065e-05
4.39991e-05
7.1383e-05
6.85516e-05
6.676e-05
6.48032e-05
6.16601e-05
5.70504e-05
5.11286e-05
4.41775e-05
7.69727e-05
7.20107e-05
7.10933e-05
7.02245e-05
6.7554e-05
6.26062e-05
5.57734e-05
4.77279e-05
8.60796e-05
7.86431e-05
7.57293e-05
7.30492e-05
6.87926e-05
6.27701e-05
5.54564e-05
4.73748e-05
9.47139e-05
8.9139e-05
8.50409e-05
8.02535e-05
7.4573e-05
6.81261e-05
6.11279e-05
5.37208e-05
9.36393e-05
8.75874e-05
8.29216e-05
7.78755e-05
7.2072e-05
6.56884e-05
5.89501e-05
5.20372e-05
9.47787e-05
8.94309e-05
8.53477e-05
8.11198e-05
7.59582e-05
6.96376e-05
6.25377e-05
5.49762e-05
8.61621e-05
7.88387e-05
7.65432e-05
7.43142e-05
7.03412e-05
6.44304e-05
5.70636e-05
4.88257e-05
7.8526e-05
7.31798e-05
7.22256e-05
7.13107e-05
6.86039e-05
6.36738e-05
5.68737e-05
4.87996e-05
9.46267e-05
8.00867e-05
7.21532e-05
6.94306e-05
6.68838e-05
6.23245e-05
5.58228e-05
4.82006e-05
0.000106936
9.08813e-05
8.01266e-05
7.42912e-05
6.91392e-05
6.29447e-05
5.58473e-05
4.82659e-05
0.000123937
0.000108936
9.69112e-05
8.83477e-05
8.04821e-05
7.2307e-05
6.42457e-05
5.64918e-05
0.00012537
0.000109907
9.69648e-05
8.77706e-05
8.00348e-05
7.24057e-05
6.47963e-05
5.72518e-05
0.000121277
0.000106193
9.45519e-05
8.67425e-05
7.9709e-05
7.20929e-05
6.41592e-05
5.64083e-05
0.000103742
8.81624e-05
7.85797e-05
7.4046e-05
6.97623e-05
6.39092e-05
5.6783e-05
4.91214e-05
9.50818e-05
8.05967e-05
7.28888e-05
7.04113e-05
6.81193e-05
6.3837e-05
5.75275e-05
4.99088e-05
5.91317e-05
6.60118e-05
6.58767e-05
6.59586e-05
6.4576e-05
6.06525e-05
5.47759e-05
4.80185e-05
6.58869e-05
7.34155e-05
7.18807e-05
6.94705e-05
6.55373e-05
6.01423e-05
5.40528e-05
4.75582e-05
7.99532e-05
9.12322e-05
8.9956e-05
8.62232e-05
8.03162e-05
7.22384e-05
6.28043e-05
5.41801e-05
8.74597e-05
9.97329e-05
9.82749e-05
9.3522e-05
8.64774e-05
7.79726e-05
6.91096e-05
6.0499e-05
7.63242e-05
8.65293e-05
8.52543e-05
8.20132e-05
7.67634e-05
6.97374e-05
6.13437e-05
5.27204e-05
6.39152e-05
7.11105e-05
7.01884e-05
6.88141e-05
6.57581e-05
6.05716e-05
5.41883e-05
4.76396e-05
5.90876e-05
6.55183e-05
6.56017e-05
6.62217e-05
6.55135e-05
6.22035e-05
5.66536e-05
4.98999e-05
1.89944e-05
1.87709e-05
1.8326e-05
1.7672e-05
1.69024e-05
1.60844e-05
1.52288e-05
1.43263e-05
1.74722e-05
1.7102e-05
1.67813e-05
1.64528e-05
1.59649e-05
1.53471e-05
1.46597e-05
1.38918e-05
1.59344e-05
1.54584e-05
1.50389e-05
1.46173e-05
1.41372e-05
1.35975e-05
1.30274e-05
1.24193e-05
1.54917e-05
1.49438e-05
1.43851e-05
1.38337e-05
1.32834e-05
1.27002e-05
1.2111e-05
1.15011e-05
1.60919e-05
1.56258e-05
1.52355e-05
1.48156e-05
1.43262e-05
1.37461e-05
1.31209e-05
1.24826e-05
1.72149e-05
1.68758e-05
1.66063e-05
1.62562e-05
1.57895e-05
1.51745e-05
1.44787e-05
1.3709e-05
1.79648e-05
1.76406e-05
1.73632e-05
1.6888e-05
1.62603e-05
1.55415e-05
1.47538e-05
1.38937e-05
7.11973e-05
6.77585e-05
6.50717e-05
6.24949e-05
5.9146e-05
5.4675e-05
4.91021e-05
4.25693e-05
6.82775e-05
6.6053e-05
6.34098e-05
5.99977e-05
5.59678e-05
5.13626e-05
4.60963e-05
4.01046e-05
6.2133e-05
5.90435e-05
5.56856e-05
5.21458e-05
4.84995e-05
4.46956e-05
4.0623e-05
3.61326e-05
5.90657e-05
5.50432e-05
5.07652e-05
4.63214e-05
4.17797e-05
3.7312e-05
3.29423e-05
2.87297e-05
6.46504e-05
6.12054e-05
5.74224e-05
5.34344e-05
4.92677e-05
4.49405e-05
4.03021e-05
3.50525e-05
6.96211e-05
6.72734e-05
6.41323e-05
6.02824e-05
5.57044e-05
5.05983e-05
4.49559e-05
3.8756e-05
7.23981e-05
6.99991e-05
6.67869e-05
6.33166e-05
5.91301e-05
5.40213e-05
4.8033e-05
4.13018e-05
8.21541e-05
7.47948e-05
7.25983e-05
7.07838e-05
6.75037e-05
6.24292e-05
5.5848e-05
4.81787e-05
8.81326e-05
8.20036e-05
7.67604e-05
7.26115e-05
6.77332e-05
6.1715e-05
5.47737e-05
4.71849e-05
8.84912e-05
8.15627e-05
7.5684e-05
6.97858e-05
6.35728e-05
5.71241e-05
5.02895e-05
4.29216e-05
8.48096e-05
7.6851e-05
6.97728e-05
6.27568e-05
5.57344e-05
4.88837e-05
4.23528e-05
3.61991e-05
8.75294e-05
8.00866e-05
7.36045e-05
6.70992e-05
6.02976e-05
5.33136e-05
4.60913e-05
3.87244e-05
8.68845e-05
8.08763e-05
7.58074e-05
7.14291e-05
6.61911e-05
5.98297e-05
5.26514e-05
4.49742e-05
8.41036e-05
7.79453e-05
7.54462e-05
7.29871e-05
6.88424e-05
6.29051e-05
5.55933e-05
4.73844e-05
0.000100305
8.48191e-05
7.54508e-05
7.14098e-05
6.81695e-05
6.36531e-05
5.76309e-05
5.04637e-05
0.000113289
9.74072e-05
8.52726e-05
7.7583e-05
7.11868e-05
6.44379e-05
5.71604e-05
4.95301e-05
0.000120398
0.000106173
9.38821e-05
8.33808e-05
7.3321e-05
6.33161e-05
5.35582e-05
4.40631e-05
0.000115681
0.000100758
8.82663e-05
7.79516e-05
6.83579e-05
5.92528e-05
5.0733e-05
4.27086e-05
0.000116862
0.000102434
9.0201e-05
7.97469e-05
6.97236e-05
5.99933e-05
5.08465e-05
4.22613e-05
0.000111006
9.56681e-05
8.40953e-05
7.65979e-05
7.00286e-05
6.30072e-05
5.55485e-05
4.78846e-05
0.000100894
8.66611e-05
7.79059e-05
7.3775e-05
6.99646e-05
6.47094e-05
5.79848e-05
5.02329e-05
6.19291e-05
6.77432e-05
6.67276e-05
6.63666e-05
6.52505e-05
6.22757e-05
5.74895e-05
5.13926e-05
7.10314e-05
7.74666e-05
7.44826e-05
7.14417e-05
6.77234e-05
6.28065e-05
5.69412e-05
5.04545e-05
8.35171e-05
9.01842e-05
8.53245e-05
7.92787e-05
7.21484e-05
6.42258e-05
5.6097e-05
4.79585e-05
9.00439e-05
9.66169e-05
9.0118e-05
8.19782e-05
7.31474e-05
6.4534e-05
5.65966e-05
4.91626e-05
8.30047e-05
8.9776e-05
8.4449e-05
7.79035e-05
7.03687e-05
6.22557e-05
5.42788e-05
4.66455e-05
7.33103e-05
8.02158e-05
7.65761e-05
7.26345e-05
6.79828e-05
6.22726e-05
5.5898e-05
4.92336e-05
6.55783e-05
7.20405e-05
7.03363e-05
6.90161e-05
6.69162e-05
6.31114e-05
5.77354e-05
5.125e-05
1.83561e-05
1.81878e-05
1.78263e-05
1.7221e-05
1.6466e-05
1.56351e-05
1.47646e-05
1.38554e-05
1.80246e-05
1.77147e-05
1.74541e-05
1.70191e-05
1.63819e-05
1.56023e-05
1.47363e-05
1.38071e-05
1.72048e-05
1.67097e-05
1.62263e-05
1.56974e-05
1.51083e-05
1.4459e-05
1.37487e-05
1.29812e-05
1.66431e-05
1.60081e-05
1.53788e-05
1.47542e-05
1.41219e-05
1.34805e-05
1.28068e-05
1.21081e-05
1.72423e-05
1.67375e-05
1.62494e-05
1.57283e-05
1.51489e-05
1.45238e-05
1.38455e-05
1.30895e-05
1.86908e-05
1.83548e-05
1.81068e-05
1.76467e-05
1.69749e-05
1.61688e-05
1.52816e-05
1.43281e-05
2.00639e-05
1.97054e-05
1.90817e-05
1.82596e-05
1.73502e-05
1.64174e-05
1.54777e-05
1.45236e-05
7.33368e-05
7.00274e-05
6.70095e-05
6.39325e-05
5.99845e-05
5.48923e-05
4.87716e-05
4.18723e-05
7.34624e-05
7.08934e-05
6.74969e-05
6.37076e-05
5.92958e-05
5.40065e-05
4.78782e-05
4.10487e-05
7.1358e-05
6.88071e-05
6.57613e-05
6.22224e-05
5.80678e-05
5.31993e-05
4.75492e-05
4.11306e-05
6.6794e-05
6.36936e-05
6.02697e-05
5.64633e-05
5.22835e-05
4.77916e-05
4.28971e-05
3.75227e-05
7.07175e-05
6.86259e-05
6.60801e-05
6.29748e-05
5.92161e-05
5.4669e-05
4.92878e-05
4.30387e-05
7.44312e-05
7.2091e-05
6.89954e-05
6.55667e-05
6.14723e-05
5.63966e-05
5.03441e-05
4.34632e-05
7.14013e-05