/*--------------------------------*- C++ -*----------------------------------*\
| =========                 |                                                 |
| \\      /  F ield         | OpenFOAM: The Open Source CFD Toolbox           |
|  \\    /   O peration     | Version:  plus.master.MPPICInterFoam            |
|   \\  /    A nd           | Web:      www.OpenFOAM.com                      |
|    \\/     M anipulation  |                                                 |
\*---------------------------------------------------------------------------*/
FoamFile
{
    version     2.0;
    format      ascii;
    class       vectorField;
    location    "7.6/lagrangian/kinematicCloud";
    object      U;
}
// * * * * * * * * * * * * * * * * * * * * * * * * * * * * * * * * * * * * * //


93444
(
(-0.000258107 -0.00186086 3.25334e-05)
(-0.00063817 0.000106266 0.000289973)
(-0.000123143 0.000169252 0.00243114)
(-0.000213547 0.000591558 0.000334207)
(-0.000561389 7.16567e-05 0.000312036)
(0.000133571 8.6114e-05 0.000227228)
(-0.000329582 2.23177e-05 0.000311229)
(-0.000335995 -0.00159251 -0.00300581)
(-0.000638637 -0.000293929 0.000276392)
(-0.00010292 -3.86442e-06 9.26494e-05)
(-0.000377948 5.9294e-05 0.000480453)
(-0.000668032 0.000120682 0.000150893)
(6.85086e-05 0.000788593 0.00112901)
(-0.000431299 0.000349127 0.00601008)
(-0.000179834 3.03845e-05 -0.000133563)
(0.000716326 -0.000128153 0.000483456)
(-0.000624826 -0.0013752 0.000393393)
(0.000143452 -0.000279983 -0.000908906)
(-0.000724654 0.00019311 -0.00424765)
(-0.000464317 -2.77601e-05 0.00034943)
(0.000671908 -0.000680986 -0.000909122)
(-6.83497e-05 0.000262518 -0.000123094)
(0.000315264 0.000470895 -0.00226496)
(-0.00157781 0.0058184 -0.00231275)
(-0.000592486 3.42115e-05 0.00025617)
(0.000192735 0.000221568 -0.00618515)
(0.000371869 -0.00031332 -0.00334367)
(2.08672e-05 -0.000284338 -0.00175011)
(-2.99412e-05 0.000264638 0.00734393)
(-0.00102476 1.19091e-05 -0.00229144)
(0.000482328 -0.000548735 -0.00318461)
(-0.000890858 2.66577e-05 0.000339507)
(0.000659967 -0.00053689 0.000247562)
(0.000222541 -0.000176684 0.00586316)
(-0.00117167 -0.000116297 0.00037391)
(-0.000591498 0.000169983 0.000328716)
(-0.000156483 -0.000171924 -0.00175496)
(-0.000109996 2.19423e-06 0.000165733)
(0.000650978 -1.40499e-05 -0.00100057)
(-0.000204426 6.67337e-05 -0.00259968)
(-0.00107394 0.000572302 -0.00387015)
(0.000325966 0.000554077 0.000325682)
(-0.00103045 -0.000275642 0.000306643)
(3.3597e-05 -0.000203468 0.0073229)
(0.00032623 -0.000278245 -0.00187337)
(-0.000574747 3.07934e-06 -9.97641e-05)
(0.000284283 -0.000965706 -0.0125551)
(-5.77361e-05 -0.00049128 0.000542486)
(0.000266125 0.000447789 -0.00126532)
(0.000509882 -0.00070749 -0.00048162)
(-0.000684066 -8.15649e-05 0.000585374)
(0.000366517 -0.000512005 0.000257002)
(-0.000899912 0.000208734 0.000281452)
(-0.000197325 -6.7006e-05 0.000307962)
(-0.00111788 -5.48776e-05 -0.00042385)
(-0.00058493 -0.000276458 0.000174427)
(-0.000365217 0.000330082 0.00036142)
(-0.0006836 0.0022928 4.33655e-05)
(0.000437841 -0.000395546 -0.00108665)
(-0.000470272 -0.000133812 -0.000153582)
(-0.00125068 -0.000112109 -0.00494182)
(-0.00105056 5.69595e-05 0.0014247)
(-0.00112659 -3.66879e-05 -0.00467857)
(0.000269752 -0.000232048 6.0903e-05)
(-0.00120801 -6.93553e-05 -0.00134654)
(0.000222602 0.000410881 0.0004561)
(-2.45745e-05 -0.000146722 0.000513049)
(-0.000648106 -0.000663318 -0.00128906)
(0.000117785 9.98055e-05 0.000330556)
(-0.000652369 -7.10621e-05 0.000198472)
(-0.000819698 0.000166017 -0.000157057)
(-0.000389653 0.000385861 0.000388166)
(-0.000598049 -0.000266178 0.00020631)
(-0.000607727 -0.000409553 0.000156907)
(-0.000730096 -0.00019029 0.000304253)
(0.000108321 0.000233278 -0.00467854)
(-7.08147e-05 5.29295e-05 -0.00208412)
(-0.00219825 0.000353858 0.000188594)
(-0.000791429 -0.000278547 0.000530673)
(-0.000245316 -0.000416323 -0.00220927)
(-0.000559301 1.99648e-05 0.000974717)
(0.000598468 0.000391474 0.000378564)
(0.000487226 -0.000494753 -0.00106459)
(-0.00061046 -0.000111845 0.0004684)
(5.59808e-06 -1.72844e-05 -0.000455592)
(-0.00106694 -0.000816367 -0.000858859)
(-0.000879167 0.000478193 0.000210148)
(-0.000125268 0.000123053 -0.00244866)
(0.00108606 -0.000448934 0.000228095)
(-0.00113639 -0.000628463 0.000237993)
(0.000190155 -0.000541938 0.00274171)
(-0.00153105 -0.000662481 0.000220275)
(-0.000438206 9.6291e-06 0.00117237)
(-0.00116607 0.00434531 -0.00143575)
(-0.000438604 -0.000905039 -0.000629364)
(0.000518577 0.000484089 -0.00572857)
(-0.000994538 0.000194762 0.00170323)
(-0.000232194 7.69066e-05 0.000665992)
(0.000676143 -0.000407459 0.00167109)
(0.00231557 0.000492742 0.000132352)
(0.000463847 4.9255e-05 -0.00224788)
(-0.00130582 -0.000925629 0.000779798)
(-0.000263189 3.53454e-05 -0.000179343)
(-4.46418e-05 -0.00146322 -0.00589651)
(-0.00153646 -0.000988061 -0.00180459)
(0.00052558 -0.000427834 0.000181799)
(-0.000119156 0.000112269 -0.000241598)
(0.000367926 -0.000320677 0.000322168)
(-0.000379207 -0.000230834 -0.00398601)
(-1.88726e-05 -0.000367275 -0.00179578)
(0.000349279 -0.000129327 -0.00262789)
(-0.000717233 2.11262e-05 -0.00104058)
(-0.000183782 0.00022232 0.000303378)
(-0.000827835 0.000163242 0.000287798)
(-0.000970576 -0.000593652 -0.00174708)
(-0.000488869 0.000411574 -0.000122998)
(-0.00125464 -0.000239788 -0.000995696)
(2.41575e-05 0.000385778 0.00427197)
(-0.000991123 -0.000309192 0.000283044)
(-0.000674443 0.000566075 -0.00224745)
(-0.000395166 2.37136e-06 -0.00185426)
(-0.000218199 0.000586325 0.000372373)
(-0.000484148 0.000117747 0.00226527)
(0.000198936 0.000137842 0.000329171)
(-0.000945021 0.000240989 0.000541159)
(0.000219007 -0.00100418 -0.00114376)
(-0.000625164 0.000132746 0.00104718)
(-9.6486e-05 0.000707674 -0.00175653)
(-0.000509835 0.000149323 0.000320965)
(-0.000484088 4.59611e-06 0.000278635)
(-0.000618785 6.75928e-05 0.000345752)
(-0.000676953 0.000135037 -0.00169596)
(-0.000304498 6.08716e-05 -0.00462467)
(-0.000555276 -0.000101822 0.000275096)
(-0.000277107 -1.48706e-05 0.00648009)
(3.21589e-05 -0.000228026 -0.00204427)
(-0.000592115 -0.000387095 0.000401016)
(-4.09607e-05 -0.000868604 -0.00423588)
(-0.000123289 0.000116328 -0.00219883)
(0.00029658 -0.000262872 0.000254286)
(8.34218e-05 -0.00011245 0.00519261)
(-0.000385217 0.00039768 0.0016181)
(-0.0014687 0.00546844 -0.000233452)
(-0.0021255 -0.000688845 0.000174839)
(-0.000958385 0.000222226 -0.00105964)
(0.000189713 0.000289212 -0.00124125)
(0.000313712 -0.00100816 0.00322878)
(-0.000331003 -0.000431032 0.000295421)
(-0.00232143 0.00579745 -0.00428556)
(-0.000341623 0.000275504 0.000534396)
(-0.000910896 0.000359221 0.000353588)
(-0.000687285 -0.000131408 -0.000141272)
(-0.00077614 -0.000420354 0.000243638)
(-0.00063044 -0.000292168 0.000121768)
(-0.000518893 5.95765e-05 0.000233185)
(0.00171496 0.00112037 -0.000892269)
(-0.0010825 0.000410222 -0.000894186)
(-0.00112109 0.00420716 0.00048959)
(-0.000760809 7.59817e-05 -0.00100134)
(0.000751249 0.00149325 0.000253669)
(-0.000171564 0.000215376 0.00213846)
(-0.000295982 3.4814e-05 -0.00126624)
(0.000303982 -0.000415522 -0.00171516)
(-0.00246222 0.00184297 0.000211397)
(-0.00174366 0.00831931 0.000254307)
(0.000452952 3.09146e-05 0.000300975)
(-0.000728768 0.00232512 9.57632e-05)
(-0.000496463 0.000254314 0.000210029)
(-0.000817097 0.000225833 0.00191428)
(-0.000594964 7.19827e-05 0.000328706)
(-0.000713836 0.00230518 7.62768e-05)
(5.00984e-05 -0.00026779 -0.00114136)
(-0.000684801 -9.30512e-05 -0.00241963)
(-0.00140033 0.000121995 0.00186166)
(0.000359884 -0.000506277 0.000272659)
(0.00050466 0.000739262 -0.0016961)
(0.00227678 0.000505325 9.40536e-05)
(0.000206264 0.000148677 -0.0022822)
(3.91835e-05 0.000238742 0.000387045)
(-0.000743408 -0.000432756 -0.00104767)
(0.00629214 -0.0014259 0.00115161)
(0.000472322 -0.000471245 0.000223866)
(0.000483261 -0.000491888 0.00031616)
(-0.00146393 0.00539053 0.000253594)
(-6.77033e-05 -0.000292311 0.00028924)
(-0.000944001 0.000147252 0.000267533)
(-0.000383602 8.21543e-05 -0.000142205)
(-0.000192362 -0.000133864 0.000337669)
(0.000241493 6.32526e-05 0.000201555)
(-0.000312492 -0.000123842 0.0055122)
(-0.000806013 0.000112702 -5.63857e-05)
(-0.000337672 -1.95898e-05 0.000331319)
(-0.00114509 -0.000744715 0.000349667)
(-0.000754466 0.000134054 -0.00343103)
(-7.29927e-06 3.48082e-05 -0.0032627)
(-0.00108387 0.000804153 -0.00112136)
(-8.24104e-05 -0.000530936 -0.00153586)
(-0.000719942 -0.000144961 0.00259829)
(-0.000266678 -0.000589825 -0.000980107)
(-0.000573828 -0.000266025 0.000885887)
(-0.000958188 0.000193991 0.000920567)
(-8.94861e-05 -0.000341905 -0.00270942)
(-0.000681014 -0.000305501 0.00027014)
(8.35915e-05 -7.55775e-05 0.00348789)
(0.000300707 0.000503779 0.00027155)
(-0.000395449 0.000255822 -0.00045857)
(-0.000925075 0.000491098 0.000377377)
(-0.000122228 0.000169932 0.000293466)
(0.000136527 8.62748e-05 0.000311529)
(0.000219827 0.000403466 -0.000339074)
(-0.000536207 0.000611322 0.000526123)
(-0.000836564 -9.89649e-05 -0.0010005)
(-0.000738015 -0.000231365 0.00606881)
(0.000216995 0.000386637 0.000489327)
(-8.71206e-05 5.29818e-05 -0.00494418)
(0.000579628 -0.000628247 0.0034701)
(0.000642545 -0.000419566 -0.00134739)
(0.000468478 0.000858673 -0.00105227)
(-0.000683609 -0.00012083 -0.00285732)
(0.000334548 1.76668e-05 -0.00028683)
(-0.000755358 -0.000309003 -9.70481e-06)
(-1.58645e-05 0.000202615 0.00155801)
(4.25737e-05 0.000244642 -0.00635822)
(-0.000616601 0.000170919 0.000273017)
(0.000650857 -0.00052929 0.000264545)
(0.00226809 0.000541316 -0.00105213)
(-7.14416e-05 0.000272858 -0.000120986)
(0.000172797 0.000325774 -0.0010256)
(-0.00125166 -0.000223897 0.000303302)
(0.000617627 -0.000796732 -0.00408529)
(-0.000106569 -0.000530635 0.00155872)
(-0.00083825 -5.21334e-05 0.000339076)
(-0.000110283 -0.000469158 0.000272736)
(-0.000560072 0.00286055 -0.000337799)
(0.00188415 0.000360196 -0.00104272)
(-0.00113886 0.00034602 -0.00156111)
(-0.000434359 -0.000241026 -0.00570333)
(0.000549677 -0.000460519 -0.00793717)
(-0.000835782 0.000163437 -1.93663e-05)
(-0.000286425 -0.000600686 -0.0045448)
(9.4035e-05 -0.000666185 0.000254441)
(-0.000744979 -0.000306788 -0.0010047)
(0.000274506 0.000470284 -0.00174536)
(1.14275e-05 -0.000501646 -0.000141763)
(4.61615e-05 -0.000374779 0.000143523)
(0.000384861 -0.000340148 -0.00235007)
(-0.000787995 9.36023e-05 0.000253953)
(0.000337154 -0.00030333 0.000299132)
(0.00019266 0.000137605 0.000349001)
(-0.000834083 0.000162946 0.000324636)
(0.00244128 0.000284098 0.000242718)
(-6.22641e-06 5.49175e-05 0.00140126)
(0.0013527 0.000885505 0.000413141)
(0.000291482 -0.000395364 0.000397148)
(-8.77158e-05 0.000317659 0.00260483)
(0.0011656 -0.000512402 -0.001268)
(0.000215239 -7.8989e-05 -0.00372811)
(-0.000430421 -7.44663e-05 0.000488093)
(-0.00070557 0.000197233 0.00163763)
(0.0013251 -0.000992366 0.00081013)
(-1.72651e-05 0.000178297 -0.0044784)
(0.0013465 -0.000774431 0.00473236)
(-0.0013581 0.0049737 0.000411912)
(-0.000134545 2.48364e-05 0.000327658)
(-0.0007823 -0.000332514 -0.000143083)
(-8.67164e-05 8.77851e-05 -0.00127662)
(0.000694457 -0.000383556 -0.00262012)
(-0.000700106 -2.07397e-05 -0.00109616)
(9.58469e-05 -0.000147097 -0.00223382)
(-3.64942e-05 -0.000822183 -0.00185074)
(0.000483177 -0.00066159 -0.00298325)
(-0.000509386 4.68165e-06 0.00024159)
(-0.00162693 -0.000666442 -0.000323934)
(-0.00208206 0.000466732 -0.000289125)
(-0.000695212 -0.000448991 -0.00102882)
(-0.00126207 0.00115876 0.000324983)
(-0.000120575 0.00035845 0.000335165)
(-0.000910428 5.65788e-05 -0.0012782)
(0.000186791 -0.000338165 -0.00169274)
(-0.000830328 0.000416453 0.000446805)
(-0.000670498 -0.000436163 0.000339014)
(-0.000921288 -4.65947e-05 -0.00177354)
(-0.000584006 -0.000260645 0.00019516)
(0.000262023 -7.44321e-05 -0.00111612)
(-0.000295648 -0.000158682 0.000326422)
(0.000484448 -0.000497711 0.000268693)
(-0.000187889 0.00221154 -0.000684788)
(0.000826028 -0.000171233 -0.00104532)
(-0.00212507 0.00211071 -0.000392277)
(-0.000818813 -0.000138379 0.00029737)
(-0.000488523 8.52374e-05 0.00123707)
(0.000331605 -0.000185276 0.000297272)
(-0.000682193 0.000114399 -0.00478913)
(-8.42297e-05 0.000120258 -0.00114713)
(0.00035671 -0.000198438 0.00175694)
(-0.000470581 0.000353364 0.00174083)
(0.000194348 -0.000442316 0.000229033)
(-0.00109532 -0.00101836 -0.00101404)
(-0.000463379 0.00110287 0.000109768)
(4.82419e-06 0.000390766 0.00804407)
(-0.00142544 0.00014621 -0.0020078)
(0.000325975 0.000417295 0.00093346)
(-0.000257701 9.61483e-05 -4.73376e-05)
(0.00112844 0.0011474 -0.00125108)
(0.000384939 -0.000643991 -0.00205708)
(0.000279949 0.000434316 0.00027921)
(0.000329327 0.000554311 0.000290512)
(-0.000789863 -0.000179841 -0.00219502)
(-0.000708882 0.000202913 -0.000363904)
(-1.6123e-05 0.000351298 -0.00437884)
(0.000187427 0.000149794 0.000152687)
(-8.04336e-05 0.000274162 0.000242893)
(8.65268e-05 -0.000254684 0.000290497)
(-0.000603535 -0.000276403 -0.00170586)
(6.49558e-05 0.000132723 -0.00669006)
(-0.000643528 7.47411e-05 -0.00088145)
(-0.000628643 -0.000298882 0.000239444)
(0.000567372 -0.000338039 0.000382752)
(0.000491735 0.000631069 0.00335492)
(-0.000529692 0.000446422 0.000228737)
(0.000505365 -0.000511532 -0.00105581)
(-0.000995314 0.000343188 0.00818446)
(0.000218385 -0.000300976 0.00622894)
(0.000789279 0.000675064 -0.000455249)
(0.000287838 -0.000282505 -0.0018117)
(0.00458655 0.00156954 -0.00109539)
(-0.000955106 -0.000353047 0.000298063)
(-2.34016e-05 5.91934e-05 0.000325947)
(0.000764965 0.00106706 -4.79242e-05)
(-0.000336077 -0.000131407 -0.00190794)
(0.000180385 -0.000334311 -0.00011991)
(-7.48621e-05 0.000535888 0.000174661)
(-0.000938079 0.000142766 -0.00207773)
(5.76932e-05 -0.000293927 -0.00116239)
(0.000533725 0.000484494 -0.00262028)
(-0.00267589 0.00196001 0.000526195)
(0.000546137 0.00248805 0.000267314)
(0.000289833 -0.000255977 -0.00117556)
(0.00017514 -0.000910519 0.000197338)
(-0.000581024 -0.000262925 -9.68639e-05)
(-0.000219302 -0.000448025 0.000326091)
(8.79224e-05 -9.59951e-05 0.000293183)
(-0.000295828 1.27455e-05 -7.40865e-05)
(-2.17028e-05 -0.000343388 0.00328051)
(-0.00107115 -0.000479345 -0.000723051)
(-0.000549671 0.000135755 -0.00174415)
(0.000453845 -0.000455249 -0.000131144)
(0.000591706 0.000478798 0.000617374)
(0.000655862 0.000559239 0.000259373)
(-0.0007641 0.000327241 0.000197403)
(-0.000727932 -0.000387006 0.000226251)
(-0.000684453 0.00039578 0.000183267)
(0.000263172 0.00044713 -0.000368267)
(-7.47347e-05 -0.00030531 0.000200712)
(-0.000193759 3.34883e-05 0.000325364)
(0.00035056 -0.000316096 0.000334211)
(0.000307281 0.000514437 0.000329422)
(-0.000118305 0.000821519 0.00028102)
(-0.000862217 1.30689e-05 0.000272137)
(-0.000894094 -0.000336892 0.000357626)
(-0.000225182 -5.95346e-05 0.000893437)
(-0.000832723 0.000232222 -0.000925919)
(0.000461648 -0.000628797 0.000325176)
(-0.000480699 1.68825e-06 0.000296145)
(-9.29133e-05 0.000731054 -0.00135672)
(-1.05014e-05 -0.000382815 0.00238833)
(0.000344894 7.05374e-05 0.000189559)
(0.000302287 0.000514942 0.000323788)
(-0.000171422 7.74193e-05 -0.000698035)
(0.000357528 -0.000315228 0.000339089)
(-0.00128685 0.000240437 0.00023437)
(7.30389e-05 -0.000212766 0.00269796)
(-0.00076137 8.36313e-06 0.000384424)
(-0.000286572 9.55817e-05 0.000291019)
(0.000187301 0.000152285 0.000365309)
(-0.000510931 -0.000344128 0.000152067)
(0.00104244 -0.000233371 0.00147955)
(-0.000282461 -1.18165e-05 0.000582325)
(-0.000745146 0.000134639 0.000498976)
(-0.000822468 0.000413538 -0.00116187)
(-0.000488807 6.75556e-05 0.0023292)
(-0.000115148 -0.000626734 0.000474118)
(0.000356128 -0.000241609 0.000571812)
(-0.00054268 -8.46253e-05 0.000169061)
(0.000404916 0.000676433 0.000259456)
(0.000223659 0.00019052 -0.00233623)
(-0.000362031 0.000299236 -0.000971718)
(-0.000304392 -0.000653167 -0.00378587)
(-0.00048286 0.000149235 9.58086e-05)
(0.000335287 0.000566455 0.000277177)
(-0.000125652 0.000875831 0.00170166)
(-0.000631782 -9.90418e-05 0.000334352)
(-0.000665838 -0.000428842 0.000337574)
(0.000368188 -0.000326876 0.000287706)
(0.00345189 -0.00153254 -0.000883939)
(0.000270133 0.000451795 0.000257912)
(0.000466791 -0.000468407 0.000195123)
(-0.000157358 -1.53349e-05 -0.0063141)
(-1.12398e-05 0.000276811 0.0052635)
(0.000283324 0.000475348 0.000319593)
(-0.000685301 -0.000336557 0.000316279)
(-0.000864935 0.000158163 0.00046176)
(0.000477759 5.1469e-05 0.00167451)
(-0.00149779 0.000500312 0.000283188)
(-0.000523111 0.000107184 -0.00507112)
(0.00025328 0.000333715 -0.00653038)
(-0.000299516 1.74959e-05 0.00100488)
(0.000503888 3.16507e-05 0.000444328)
(-0.00242186 0.0010104 -0.00316028)
(-5.15782e-05 -0.000248789 -0.000403773)
(0.000633088 -0.000666162 -0.0037073)
(-0.00129239 -0.000717682 0.000282342)
(0.000412397 0.000670479 -0.0133634)
(0.000211819 -0.000397939 0.000253364)
(0.000597993 0.000371874 -0.000970868)
(-9.17856e-05 -0.000390432 -0.00227764)
(-0.00139871 0.00524184 0.000285663)
(0.000347836 -0.000194041 0.00247539)
(-0.000215277 0.000205278 0.000383209)
(8.88008e-05 0.000175764 0.00471886)
(0.000529597 -0.000725746 -0.00147082)
(-0.000786313 -0.000453194 0.000345262)
(0.000455372 0.000760893 -0.00119168)
(0.000328556 -0.00225433 6.05533e-05)
(-0.000203574 0.000247689 0.000295735)
(-0.000917703 0.000517201 0.00127634)
(-0.000966542 -0.000384077 -0.00180355)
(-0.000513337 0.00015932 0.000263685)
(0.000539131 0.000599872 0.00491967)
(0.000173255 0.000453511 0.000316963)
(-0.000221217 6.98725e-05 -0.000211034)
(-0.000602929 -0.000396488 -0.00175423)
(-0.000576115 0.000164699 0.000342546)
(0.000266491 -8.52759e-05 -0.00101194)
(6.54941e-05 6.79329e-05 0.000507943)
(-0.000136638 -0.000156136 -0.00240342)
(-0.000968643 -0.000284499 0.000354053)
(0.000453413 -0.000470926 0.0020345)
(-0.000228499 7.31316e-05 -0.00235997)
(0.000188538 0.00085429 0.00250979)
(-0.000270643 1.70794e-05 -0.00117647)
(0.000696392 0.000384925 -0.00529185)
(-0.000802362 0.000670329 0.00223663)
(-0.000237112 0.00020979 0.000197759)
(-0.00152126 0.00546151 0.000327926)
(-0.000630376 0.00312588 -0.00106868)
(-2.45325e-05 -2.5908e-05 -0.00166345)
(7.00674e-05 -0.000201223 -0.00174241)
(0.000960499 -0.00020403 -0.00294376)
(-0.000578689 0.000144173 0.000309849)
(-0.00070043 0.00206755 -0.000971395)
(-0.000141422 -0.00019495 -1.34599e-05)
(2.22776e-05 -1.82479e-05 -0.00397145)
(-0.00052461 -0.000341986 0.000325607)
(-0.000950782 0.000322623 -0.00014996)
(0.000635613 0.000935176 0.000281672)
(-0.000992375 -0.000305506 0.000295664)
(-0.000976099 0.000402827 -0.00404469)
(-0.00222785 0.000352488 0.000219693)
(-0.000468606 -5.80237e-05 -0.00016007)
(-0.000746471 -3.23588e-05 0.000276221)
(-0.000395178 0.000252517 0.000408922)
(0.000310996 -0.000811904 -2.48726e-05)
(-0.000373151 -0.000236187 -0.0023606)
(-0.000727459 -0.000403085 -0.00230716)
(-0.000644191 -0.000338667 0.000374454)
(0.000159231 0.000498443 0.00561539)
(-0.000476593 4.30621e-05 0.000334073)
(-0.000109269 0.000747667 -0.00118711)
(-5.97738e-05 0.000333639 0.00533253)
(0.000206549 0.00017028 0.000258899)
(-8.67068e-05 0.000624561 -0.000159403)
(0.000541631 0.000484648 0.00629404)
(0.000545305 0.000467336 0.00056656)
(-9.69385e-06 3.82432e-05 -7.41277e-05)
(-4.39701e-06 -0.000452928 0.0017289)
(-0.00115779 -0.00108148 -0.000425888)
(0.000161729 -0.000430244 -0.00112274)
(-0.000610118 3.70873e-05 0.00169403)
(0.000121555 -0.000308093 -0.00423355)
(-0.000968183 6.98535e-05 0.000823857)
(0.000250873 -0.000140186 0.000352203)
(0.000165549 -0.000300801 -0.00381977)
(-0.001952 -0.00140892 -0.000329424)
(-0.00200542 8.09852e-05 -0.00328915)
(-0.000264775 9.18226e-05 -0.00108736)
(-0.000518476 0.000154907 0.00265075)
(-0.000520488 3.25306e-06 0.000334343)
(-0.000844613 -4.21537e-05 0.000694897)
(0.00023714 -0.000264638 -0.00643256)
(-0.000707828 -0.000458361 0.000968653)
(-0.00114233 -0.000248123 0.000231194)
(-0.000276528 0.00079109 3.15175e-05)
(0.00025491 8.92187e-05 -0.000350032)
(-0.00034903 -0.000311731 -0.00103609)
(-0.000184376 0.000221636 -0.00109645)
(0.000154368 0.000458858 0.000349014)
(0.00031873 -0.000284053 -0.00164665)
(-0.000585894 7.74529e-05 0.000260064)
(-0.000688588 0.000677854 -0.000664916)
(-0.000599908 0.000171557 -0.00171192)
(0.000284805 0.000477733 -0.000816884)
(-0.000194543 3.3935e-05 0.000317044)
(0.000231625 0.000390206 -0.00171396)
(-1.14768e-05 -0.00305966 -0.00153758)
(0.000676311 -0.000657444 -0.00130957)
(-0.000475812 5.44864e-05 0.00030936)
(-0.000563181 0.000146201 -0.00216773)
(-0.000359951 2.06232e-05 -0.00680988)
(-0.00114562 -0.000212034 0.000303879)
(0.000254348 0.000378077 -0.000111521)
(0.000405093 0.000272038 -0.00406034)
(0.000554781 -0.00052084 0.00363829)
(-6.08992e-05 -0.000360452 -0.00100318)
(-0.00150489 0.00566046 -0.000834162)
(-0.000165919 7.55833e-05 -0.00196129)
(-0.000567466 0.000168611 0.000315222)
(-2.16927e-06 -0.000271133 -0.00203157)
(0.00215758 0.000486079 0.000119357)
(-0.000161832 4.66118e-05 0.000250471)
(0.000214235 -1.75283e-05 0.000440622)
(4.41064e-05 9.89785e-05 0.00514941)
(0.000134367 0.000149069 -0.00344016)
(-0.000651483 0.000437459 0.00271189)
(-0.000155535 2.92391e-05 0.000213177)
(-0.000611835 -7.50393e-05 -0.00180325)
(-0.000794391 0.000132472 0.000261363)
(0.000181577 -3.23271e-05 -0.00688059)
(-0.000131181 2.87124e-05 0.000470053)
(-0.000537401 -0.00015298 -0.00224195)
(-0.000249918 7.81761e-05 -0.00234196)
(0.000273881 0.000466539 -0.00174047)
(0.00103479 -0.00043255 0.000276682)
(-0.000903082 0.000165637 -0.000812838)
(-0.000621517 6.98443e-05 0.000321999)
(0.00070766 0.000604894 -0.00105751)
(0.00045503 -0.000604974 -0.00555454)
(-2.35431e-05 -0.000279673 -0.00169045)
(7.69609e-05 -0.000107307 0.000585783)
(0.0002021 0.0001651 -0.00258838)
(0.000588628 0.000756142 0.000303583)
(-0.000561251 -6.80133e-05 -9.93373e-05)
(0.000393339 0.000656737 0.000257478)
(-0.000790221 0.000373949 0.000303921)
(9.10071e-05 -0.000627146 0.000339608)
(-0.000987646 0.000325474 0.000284667)
(-0.000922241 0.000871315 -2.77626e-05)
(-0.000135729 -6.03752e-05 0.000328338)
(0.0020267 -0.000472059 0.000233347)
(-0.000230047 0.000842917 -0.0010884)
(1.34458e-05 -0.000181337 0.000501728)
(0.00040033 0.000827025 0.00274194)
(0.000684614 0.000581849 -0.000298686)
(0.000359493 -0.000306137 0.000303419)
(0.000487948 0.000437852 -0.0036439)
(-0.00145783 0.000507299 0.000245189)
(-0.000546044 0.000188928 0.000208917)
(-0.000128855 0.000125139 -0.000301786)
(-0.00199517 -0.000292648 -0.000476925)
(-0.000151355 0.000184459 0.0003293)
(0.000787976 0.000804773 -0.00686885)
(1.77548e-05 0.000361886 -0.00331421)
(0.00087715 0.00102918 0.00314119)
(-0.00021801 -0.000191312 -0.00320216)
(0.000191648 -9.58278e-06 0.00042412)
(-0.000458409 5.53279e-05 0.000295312)
(0.000437138 -0.000570329 0.00840492)
(0.000268192 0.000458479 0.00032551)
(0.000794968 -0.000147369 0.000473037)
(-0.000310975 -0.000103649 0.00448823)
(-0.000453829 -0.000198576 0.000536025)
(0.000309098 -0.000433299 0.00143264)
(0.000755001 0.000685539 0.00292256)
(0.000655593 -0.000529131 0.000249086)
(-7.42189e-05 -0.000473579 0.000299974)
(0.000254533 0.000457068 0.00027496)
(-0.000620205 -0.000279788 0.000230871)
(-0.000111122 0.000157125 -0.00174923)
(-0.00208048 0.000146333 0.000165217)
(0.000170334 0.000480819 0.00031815)
(0.000831595 -0.000678446 -0.00256638)
(-0.000440489 0.000120881 0.000486334)
(0.000326515 0.000554479 0.000300636)
(-0.000690336 0.00223953 0.00039948)
(0.00033428 -0.000228993 0.000206418)
(-9.38457e-05 0.000274927 0.000350081)
(-0.00155856 5.67339e-05 0.00076268)
(-7.99841e-05 -0.00038194 -3.82056e-05)
(0.000545529 -0.00076504 -0.00187943)
(1.05778e-06 -1.64034e-05 0.00225819)
(0.00017494 8.15563e-05 -0.00422467)
(-0.000295597 0.000384729 0.000493238)
(-0.000731047 0.0012897 0.00023428)
(-0.000562903 -0.000295186 0.00039508)
(-0.00055788 -0.000114237 0.000269735)
(0.000364305 -0.00264001 -0.00140097)
(1.87387e-05 -0.000110386 0.000298675)
(2.68721e-05 -1.81665e-05 0.00384269)
(0.000354962 -0.000143938 0.000324318)
(-0.000721588 -0.000335271 0.00161897)
(-0.00367871 0.00276854 -0.00187071)
(-0.00172994 -0.00081797 0.00248732)
(0.000320728 -0.000543153 -6.99086e-05)
(-0.000619404 -0.0003408 0.000225634)
(-6.59248e-05 0.0021836 -0.000966463)
(-0.000387715 6.46987e-05 0.000119075)
(0.000229446 0.000290581 0.00563778)
(0.000324458 -0.000189108 0.000390284)
(-0.000301755 -1.63999e-05 -0.00334666)
(-8.9107e-05 0.000264226 0.00178953)
(-0.000119212 0.00011093 0.000327507)
(0.000878362 -0.000229581 -0.00172563)
(-0.000609211 3.71193e-05 -0.0024014)
(-0.000530701 0.000442145 -0.00104084)
(-0.000320166 5.5004e-05 -0.0012505)
(-0.000223169 7.17416e-05 0.000286986)
(-0.000140779 -0.00032913 -0.00117922)
(0.000293714 -0.00011527 0.00211017)
(0.000126656 0.000802148 0.00152891)
(-0.00049598 -4.58146e-05 -0.0016283)
(0.000155621 0.000486547 0.000334887)
(-0.00085671 -0.000262521 0.00030786)
(-8.24586e-05 0.000281874 0.000280311)
(0.000272062 0.000463151 -0.00131168)
(-0.000509323 -0.000143741 0.00032594)
(-0.000744118 -0.000265462 -0.000246587)
(-0.000724847 0.000132095 0.000190285)
(0.0416607 -0.00482075 0.3733)
(-0.000765409 -0.000110727 0.000352039)
(-0.000117868 5.57632e-05 -0.0020062)
(0.000243371 -1.57056e-05 -0.00366571)
(-0.000106976 -0.000468861 0.00235173)
(8.49391e-05 -0.000393185 0.00314782)
(-0.000404993 0.000344276 -0.0020391)
(0.000326157 5.21565e-06 0.00039999)
(0.000349796 -0.000590449 0.00113432)
(0.00213399 0.000501529 9.91532e-05)
(-0.000398451 0.000151643 -0.00184486)
(-0.000329622 0.000555477 0.00021734)
(-0.00017818 5.70016e-05 -0.000403148)
(0.000198834 -0.000136702 0.00180461)
(-0.000531885 5.08901e-06 0.000275858)
(-0.000826979 3.02536e-05 0.000293704)
(0.000442319 -0.000300027 0.000308462)
(-0.000347715 9.18462e-05 -0.00689728)
(-0.000405536 -0.00022398 -0.00503328)
(0.000306323 -0.000414015 0.000305005)
(-0.000180732 0.00021252 0.000483496)
(0.000215754 -0.000411535 0.000267094)
(0.000133344 0.000395485 0.000317109)
(-0.000465449 0.000352412 -0.000104095)
(8.6241e-05 -0.0001065 0.00547758)
(0.000347428 7.03287e-05 0.000248879)
(0.000674605 -0.000587223 -0.00388886)
(0.000139917 0.000108837 -0.00021221)
(0.000137792 -0.000467217 -0.00114658)
(-9.04358e-05 -0.000460224 -0.0029678)
(-0.000822885 0.000168085 0.000313684)
(-0.000708566 0.000144156 -0.00143586)
(-0.00058935 8.5134e-05 0.000701478)
(-0.000487104 0.000105877 0.000486017)
(0.0002912 -0.000255955 0.000175732)
(-0.000348806 0.000130775 0.00158283)
(-0.00144801 -0.000452185 -0.00208976)
(0.00048908 -0.000499442 0.000306076)
(-0.000261714 8.9064e-06 -0.00316897)
(0.000550842 -0.00045061 -0.00133239)
(0.000178761 0.000123185 0.000243253)
(-0.000130702 5.48676e-05 0.000294936)
(0.000386833 0.000647591 0.00107598)
(-0.000693567 0.000171047 0.000201834)
(-0.000904571 0.00202114 2.90327e-05)
(-0.000884565 -0.000262778 -0.00229054)
(-0.000143169 0.000132674 -0.00175502)
(-0.000382484 0.000127324 -0.000956351)
(-0.00053981 -2.62911e-06 0.000481941)
(2.85114e-05 -0.000269119 0.00024528)
(0.000530822 -1.02632e-05 -0.000121591)
(0.00225807 0.000403236 -0.000949127)
(-0.000759477 0.000210591 -0.00431483)
(-0.000654964 3.9544e-05 0.000231781)
(-0.00117241 -0.000185292 -0.00132963)
(-0.00064206 0.000188148 0.000310181)
(-0.000146822 0.000180961 -0.000147502)
(0.000230982 0.000396005 -0.00170279)
(0.00040808 0.000682276 0.000298196)
(-0.000993402 0.000236192 -9.15072e-05)
(-0.000259673 0.000297269 0.000132667)
(-0.00151224 -0.00195339 -0.0153562)
(-0.000817206 -0.00039614 0.000287157)
(-0.000958017 0.000178328 -0.00224753)
(-0.000829205 2.23435e-05 0.000327396)
(0.000376275 0.000629545 -0.00170212)
(8.50123e-05 -0.000399293 0.000298516)
(0.000121677 -0.00010691 0.000588152)
(8.17484e-05 -0.000113114 -0.00486021)
(-0.000156373 -3.83689e-05 -0.00133488)
(-0.000288599 0.000424782 0.00107109)
(-0.000596191 0.00160476 -0.000637475)
(0.000182603 -0.000352903 0.000122908)
(-0.000707572 0.000144088 -0.00014313)
(-0.000657843 0.000160872 -0.000973425)
(-0.000157771 -0.000831595 -0.00135333)
(-0.000635309 0.000344784 0.000268483)
(0.000456632 -0.000753187 0.000312241)
(2.77466e-05 -0.000206641 -6.15335e-05)
(0.000536617 3.79542e-05 0.000734981)
(-0.00090236 4.33201e-05 -0.00183179)
(-0.00128277 1.05255e-05 -0.000875771)
(-0.000631692 0.000532618 0.000268227)
(0.00154987 -0.000492411 0.000467938)
(0.000638164 0.00054244 0.000307469)
(-1.26777e-05 -4.45871e-05 -0.00244706)
(0.000622033 0.000290832 -0.00162316)
(-0.000598997 -8.06514e-05 -0.000278294)
(-6.03169e-05 -8.82556e-05 -0.00177321)
(-0.00125759 -0.000314351 -0.00200202)
(0.000425383 0.000775902 0.00325905)
(0.0002548 0.000442701 0.000464445)
(0.000201361 0.000143889 0.00032508)
(-0.000105962 9.45727e-05 -0.00208694)
(-0.000454424 0.000332237 -0.00167076)
(-0.000191683 -0.000423719 -0.00177014)
(0.000305544 -0.000268926 0.000481207)
(-0.000777398 0.000196066 -0.0048358)
(-0.000679782 0.00034173 0.000317408)
(0.000610859 0.000912691 -0.000402418)
(-0.000802068 0.00323483 -0.000654868)
(-0.000873516 3.44097e-05 0.000352405)
(-0.00050944 0.000430509 -0.00187237)
(-0.000392708 0.000355707 0.000375267)
(-0.00175279 0.00155456 0.00105731)
(-0.000120659 0.000117586 0.000289043)
(-0.000687257 0.00220777 -0.000103629)
(0.000298992 -0.000507872 0.000220384)
(0.000141887 0.0001083 0.000271602)
(-7.6225e-05 0.00039021 -0.00513278)
(0.000506246 -0.000155917 0.000817009)
(-0.000646118 0.000541095 0.000354128)
(0.000562608 -0.000566764 -0.00146701)
(-0.000526641 -0.000124664 0.000313256)
(-0.0014477 0.00537401 0.000258021)
(-0.000177835 -6.31946e-05 0.000259181)
(-0.000675659 0.000322766 -0.000158293)
(0.000168632 0.000130578 0.000201852)
(0.00011238 -0.000714328 0.000308838)
(0.00028831 -0.000174504 0.00106846)
(0.000205254 -7.13394e-05 0.0060444)
(-0.000576937 -0.000259546 0.00017141)
(-0.00163959 0.000260918 0.00031819)
(-0.00132208 0.000318196 0.00440558)
(-0.000547819 -8.19202e-05 0.000291702)
(0.000348119 0.000587925 -0.00104715)
(-9.47754e-05 -0.000117563 -0.00131127)
(-0.000136955 3.18307e-05 -0.00143622)
(0.000241945 -0.000427508 -0.00102664)
(-0.00118651 8.02934e-06 0.0043559)