/*--------------------------------*- C++ -*----------------------------------*\
| =========                 |                                                 |
| \\      /  F ield         | OpenFOAM: The Open Source CFD Toolbox           |
|  \\    /   O peration     | Version:  plus.master                           |
|   \\  /    A nd           | Web:      www.OpenFOAM.com                      |
|    \\/     M anipulation  |                                                 |
\*---------------------------------------------------------------------------*/
FoamFile
{
    version     2.0;
    format      ascii;
    class       volScalarField;
    location    "11.2";
    object      k;
}
// * * * * * * * * * * * * * * * * * * * * * * * * * * * * * * * * * * * * * //

dimensions      [0 2 -2 0 0 0 0];

internalField   nonuniform List<scalar> 
47285
(
0.000530834
0.00180214
0.00593981
0.00699666
0.00269084
0.000679674
0.000242185
0.00131269
0.00693958
0.0258206
0.0347823
0.0157333
0.00427502
0.00083621
0.0038795
0.0205142
0.0293548
0.0572956
0.0232855
0.0177343
0.00360422
0.00813579
0.0383536
0.0634839
0.0566835
0.0633631
0.0310122
0.0067261
0.00493151
0.0236719
0.0299871
0.0531217
0.0264715
0.020858
0.00468487
0.0015792
0.00722608
0.0258051
0.037527
0.0156089
0.00607702
0.00134686
0.00059319
0.00185032
0.00591689
0.00724372
0.00270448
0.000997601
0.000378655
0.0011548
0.0049937
0.0130886
0.0143713
0.00474562
0.00117458
0.00062093
0.00426462
0.0188374
0.0509694
0.074113
0.0264516
0.00640792
0.00115112
0.0121099
0.0454963
0.0626483
0.135366
0.0488006
0.0232709
0.00406572
0.0217664
0.0868468
0.150733
0.141623
0.159789
0.0469476
0.00773456
0.0149358
0.0525062
0.0680642
0.144411
0.0547142
0.0326427
0.00658036
0.00536125
0.0213407
0.0565622
0.0920415
0.0347378
0.0106562
0.00216792
0.00147755
0.00598481
0.0164661
0.0202941
0.00776896
0.00210774
0.000691159
0.00286725
0.00889709
0.0193647
0.0232449
0.00773798
0.00226342
0.00161196
0.00920516
0.0299088
0.0744141
0.115111
0.0383005
0.00806745
0.00204862
0.0232097
0.0751878
0.10138
0.175919
0.107663
0.0281505
0.00428163
0.0392925
0.149933
0.208233
0.201382
0.336409
0.0615384
0.00785397
0.0272896
0.0846669
0.107939
0.199939
0.106027
0.0413043
0.00685671
0.0120194
0.0362006
0.0859508
0.150225
0.0556434
0.0145505
0.0030785
0.00396071
0.012399
0.0269891
0.0352576
0.0146822
0.00390997
0.00170229
0.00470485
0.010058
0.0201074
0.0241734
0.00861432
0.00393032
0.00343045
0.0113936
0.0332573
0.0763931
0.100119
0.0378623
0.00861759
0.00370553
0.0291519
0.0865475
0.0886752
0.160095
0.126596
0.0262617
0.00506605
0.050234
0.171016
0.220912
0.229155
0.397343
0.0546498
0.00739784
0.0347872
0.0950511
0.107047
0.195786
0.144681
0.0367754
0.00672406
0.0158338
0.0435771
0.0895499
0.142242
0.0564398
0.0147741
0.00434633
0.00625943
0.0156636
0.0317569
0.0398379
0.0169613
0.00531193
0.0035311
0.00526769
0.00916358
0.0166531
0.0190686
0.00787599
0.00454892
0.00412623
0.0106542
0.0293116
0.060896
0.0814539
0.0305446
0.0078782
0.00435851
0.0269826
0.0767228
0.0946756
0.110263
0.111849
0.021114
0.00524586
0.0485312
0.161168
0.196092
0.229402
0.288362
0.0412094
0.00682183
0.0339453
0.097744
0.0973639
0.15555
0.136946
0.0289737
0.00631053
0.0153212
0.0426921
0.088896
0.109605
0.0485223
0.0126364
0.00480466
0.00674813
0.0148373
0.0299461
0.035284
0.0148768
0.00564182
0.00426989
0.000155126
0.000147871
0.000146879
0.000141263
0.000137224
0.000133729
0.000130645
0.000128082
0.000295371
0.000179436
0.000149339
0.000138413
0.000132509
0.000127779
0.000123943
0.000120648
0.00103462
0.000320196
0.000170407
0.000141463
0.00013273
0.000127118
0.000122348
0.000118206
0.00199626
0.000563243
0.000207324
0.000144869
0.000132527
0.000126711
0.000122147
0.000118838
0.00137233
0.000407683
0.000185171
0.000145897
0.000136525
0.000131003
0.000126925
0.000123532
0.000489641
0.000231471
0.000166696
0.000148292
0.000140576
0.000135854
0.000132619
0.000130042
0.000212037
0.000165347
0.000155137
0.00014849
0.000144959
0.00014203
0.000139731
0.00013749
0.000543535
0.000501429
0.000461428
0.000427217
0.000398462
0.000373788
0.000351781
0.000331116
0.000583317
0.000517556
0.00047345
0.000435758
0.000404048
0.000377162
0.000353608
0.000331803
0.000750608
0.000516974
0.000469432
0.00043268
0.000401443
0.000374625
0.000351071
0.000329217
0.00100184
0.000517209
0.000464854
0.000430812
0.000400781
0.000374158
0.000350522
0.000328625
0.000976016
0.000517315
0.000463246
0.000430269
0.000401386
0.00037586
0.000353015
0.000331411
0.000639199
0.000497596
0.000458786
0.000427573
0.000400647
0.000377142
0.000356023
0.000335776
0.000522263
0.000479186
0.000447075
0.000418124
0.000393091
0.000371443
0.000351873
0.000333222
0.00149753
0.00141407
0.00130406
0.00117514
0.00103551
0.000892869
0.000755435
0.000632206
0.00152827
0.00143622
0.00133228
0.00120508
0.00106299
0.000914457
0.000768542
0.000635825
0.00159544
0.00141881
0.00133033
0.00121451
0.00107649
0.00092686
0.000776421
0.000637637
0.00169328
0.00139179
0.00132089
0.00121638
0.00108235
0.00093266
0.000780243
0.000638964
0.00175681
0.00140726
0.00131798
0.00120838
0.00107339
0.000924784
0.000774967
0.000637215
0.00155065
0.00139862
0.00130224
0.0011836
0.00104684
0.000901993
0.000759804
0.000631553
0.00144529
0.00136596
0.0012656
0.00114364
0.00100917
0.000871448
0.000739685
0.00062298
0.00324219
0.00302179
0.00273738
0.00244215
0.00217693
0.00195978
0.00178288
0.00160564
0.00330255
0.00312156
0.00284643
0.00253351
0.00223904
0.00199507
0.00180196
0.00161768
0.00329894
0.00313161
0.00290086
0.0025969
0.00228974
0.00202767
0.00182091
0.00162891
0.00329408
0.00310258
0.00291422
0.00262601
0.00231652
0.00204555
0.00183007
0.00163163
0.00338414
0.00312896
0.0029082
0.00261086
0.00230296
0.00203631
0.00182313
0.00162385
0.00331751
0.00311982
0.00285878
0.00255196
0.00225587
0.00200549
0.00180275
0.00160662
0.0032286
0.00302645
0.00275439
0.00246335
0.00219641
0.00197336
0.00178744
0.00159883
0.0038928
0.00362793
0.00332086
0.00300887
0.00269034
0.00231915
0.0018459
0.00133737
0.00398773
0.00374145
0.00342002
0.00308404
0.00275497
0.00239246
0.00192846
0.00140334
0.00399803
0.00378478
0.00349501
0.00315806
0.00282116
0.00245752
0.00199194
0.00145021
0.00398191
0.00377436
0.00352157
0.00319373
0.00285376
0.00248657
0.00201722
0.00146689
0.00404952
0.00378961
0.00350907
0.00317458
0.00283384
0.00246475
0.00199391
0.00144728
0.00402074
0.00377142
0.00346149
0.0031254
0.0027882
0.00241459
0.00193864
0.00140141
0.0039416
0.00369872
0.00340562
0.0030972
0.00277327
0.00238831
0.00189294
0.00135801
0.000237045
0.000170092
0.00016083
0.000156378
0.000153082
0.000150188
0.000148257
0.000146583
0.000532197
0.000224867
0.000164728
0.000146817
0.000138972
0.000132483
0.000129344
0.000127214
0.00158808
0.000535178
0.000223168
0.000149088
0.000131778
0.000123088
0.000117953
0.000112762
0.00237946
0.000727497
0.000253977
0.000148732
0.000125614
0.000116892
0.000109959
0.000103674
0.00116741
0.00039157
0.000189965
0.000144324
0.000132426
0.000125972
0.000119929
0.000114334
0.000401536
0.000192222
0.000159002
0.000143433
0.000138002
0.000133708
0.000129072
0.000125587
0.0002191
0.000163029
0.000153696
0.00014981
0.000148558
0.00014563
0.000143032
0.000141016
0.000686543
0.000568955
0.000519155
0.000477319
0.000440294
0.000407897
0.000379378
0.00035354
0.00122783
0.000650579
0.000563946
0.000517069
0.000474537
0.000434984
0.000399372
0.000366915
0.00328676
0.000897319
0.00061753
0.000561335
0.000515632
0.000468793
0.000423854
0.000381759
0.0042066
0.000944947
0.000605957
0.000551257
0.000506124
0.000458363
0.000412293
0.000370522
0.00226927
0.000709108
0.000566823
0.000522509
0.000480013
0.000436752
0.000395344
0.00035771
0.000923031
0.000573065
0.000514901
0.000474374
0.000436403
0.000401439
0.000370226
0.000342241
0.000606461
0.000526381
0.000485234
0.000448485
0.000415558
0.000387072
0.000362294
0.000339935
0.00185877
0.00154228
0.00143045
0.00131304
0.0011707
0.0010105
0.000846881
0.000696564
0.00324697
0.00169208
0.00146629
0.00136524
0.00124797
0.00110233
0.000937377
0.000770683
0.00712019
0.00209571
0.00144776
0.00134807
0.00125919
0.00113827
0.000988942
0.000824265
0.00930138
0.00220488
0.00138654
0.00129462
0.0012092
0.00108884
0.000941174
0.000779893
0.00540172
0.00179752
0.00141928
0.00133387
0.00123574
0.00110503
0.000948602
0.000780857
0.00246668
0.00154994
0.00140814
0.00130879
0.00118439
0.00103539
0.000873227
0.000714284
0.0016295
0.00145606
0.00136413
0.00125043
0.00111214
0.00095953
0.000806074
0.000666315
0.0038355
0.00337638
0.00307667
0.00276235
0.00245855
0.00219543
0.00197438
0.00175618
0.00543242
0.00359849
0.00319892
0.00291079
0.00261869
0.00235603
0.00214289
0.00194445
0.00977744
0.00393151
0.00314124
0.00288873
0.00262861
0.00237806
0.00218217
0.0020201
0.0131213
0.00402138
0.00300883
0.00278433
0.00252971
0.00226482
0.00204931
0.00187125
0.00767817
0.00362659
0.0031086
0.0028631
0.00258744
0.00232304
0.00211433
0.00193968
0.00441654
0.00340578
0.00311006
0.00282625
0.00253201
0.00227125
0.00206235
0.0018703
0.00350656
0.00323663
0.00296659
0.0026651
0.00237624
0.0021294
0.00192399
0.00172107
0.00463889
0.0041577
0.00380567
0.00344802
0.00307156
0.00262882
0.00206094
0.00144392
0.00610405
0.00447948
0.00404386
0.00371835
0.00337919
0.00296804
0.00239729
0.00171627
0.00979206
0.00484425
0.00412796
0.00386815
0.00361308
0.00328195
0.00275671
0.00206484
0.01273
0.00490531
0.00401699
0.00379201
0.00357109
0.00329302
0.00284523
0.00223191
0.00792205
0.00454612
0.00405556
0.00381181
0.00355536
0.00323094
0.00272774
0.0020683
0.00512922
0.00425248
0.00392856
0.00362874
0.00331069
0.00292656
0.00238796
0.00173925
0.00428214
0.00397713
0.0036663
0.00333495
0.00298679
0.00257434
0.00203801
0.00144811
0.000258896
0.000170547
0.000147398
0.000141458
0.000141333
0.0001409
0.000139977
0.000138461
0.000710952
0.000274978
0.000163894
0.000132441
0.00012322
0.000119696
0.000118015
0.00011665
0.00181622
0.000556726
0.000205577
0.000128867
0.000110703
0.000102397
9.55724e-05
8.9629e-05
0.00194733
0.000548344
0.000196664
0.000130717
0.000116
0.000107807
0.000100468
9.41451e-05
0.000736072
0.000250077
0.000155867
0.000134142
0.000125652
0.000119082
0.000114063
0.000109148
0.00022816
0.000152558
0.000147469
0.000138567
0.000132451
0.000127154
0.000123608
0.000121433
0.000149296
0.000143488
0.000145568
0.00014146
0.000137777
0.000135156
0.000132948
0.000130355
0.000629774
0.00052793
0.000492119
0.000460213
0.000430413
0.000403159
0.000377856
0.000353599
0.00114691
0.000591042
0.000518953
0.000479332
0.000444018
0.000412303
0.000384592
0.000359482
0.00221355
0.000662809
0.000523441
0.000475685
0.000432538
0.000392212
0.000356449
0.000324906
0.00190794
0.000612384
0.000515115
0.000469131
0.000422776
0.000378329
0.000338632
0.000303623
0.000853533
0.000559179
0.00050514
0.000458571
0.000414151
0.000374024
0.000339218
0.00030874
0.000605854
0.00053371
0.000485562
0.000442641
0.000406017
0.000375157
0.000348861
0.000325105
0.000557282
0.000510072
0.000465821
0.000428496
0.000397928
0.000372584
0.000350664
0.000330644
0.00160767
0.00142808
0.00134188
0.00123543
0.00110439
0.000958421
0.000810465
0.00067445
0.00236573
0.00147683
0.00134907
0.00126026
0.0011453
0.00100558
0.000853183
0.00070464
0.00381205
0.001471
0.00126221
0.00118728
0.00108793
0.00096147
0.00081821
0.00067315
0.00362439
0.00137226
0.00122076
0.00114024
0.0010276
0.000891317
0.00074428
0.000600718
0.00186494
0.00139671
0.00131195
0.0012168
0.00109336
0.000950092
0.000797688
0.000649699
0.00154529
0.00144838
0.00135619
0.00123909
0.00110151
0.000951181
0.000798082
0.00065517
0.00151041
0.00143223
0.00132354
0.0011939
0.00105204
0.000906233
0.00076534
0.000638934
0.00343577
0.00317121
0.00290608
0.00261359
0.00233413
0.0020948
0.00189415
0.00169328
0.00401841
0.00322676
0.00295586
0.00268157
0.00240039
0.00215278
0.00195059
0.00175571
0.00514554
0.00311226
0.00281567
0.0025788
0.00231788
0.00208585
0.0019074
0.00174578
0.00489888
0.00293114
0.00270581
0.00247719
0.00221183
0.00197999
0.00181299
0.00167577
0.00348004
0.00303268
0.00283275
0.00257069
0.00229169
0.00205282
0.00187207
0.00170975
0.0032949
0.00312651
0.00287681
0.00258173
0.00229591
0.00205494
0.00186303
0.0016798
0.00324391
0.00303444
0.00275335
0.00246048
0.00219642
0.00197936
0.001802
0.0016241
0.00418927
0.00388845
0.0035801
0.00325228
0.00290568
0.0024952
0.00196685
0.00139488
0.0046401
0.00397096
0.00364807
0.00332612
0.00298737
0.00259474
0.00207874
0.00148836
0.00541203
0.00390636
0.00358407
0.00330448
0.00300226
0.00264711
0.00215771
0.00156754
0.00515421
0.0037408
0.00348583
0.00322627
0.0029391
0.00260746
0.00214637
0.00157977
0.00417399
0.00377163
0.00352435
0.00323404
0.00292625
0.00257301
0.00209314
0.00151924
0.00400704
0.00378242
0.00348622
0.00316597
0.00284173
0.00247289
0.00199011
0.0014375
0.00388908
0.00363176
0.0033258
0.00301527
0.00269816
0.00232824
0.00185482
0.00134274
0.000184137
0.00015526
0.000150631
0.000145885
0.000142517
0.000139391
0.000136439
0.000134183
0.000299033
0.000172888
0.000157616
0.000147057
0.000139983
0.000133628
0.000127857
0.000123044
0.00078664
0.000282108
0.000176224
0.000147954
0.000137247
0.000128755
0.000121876
0.000115247
0.00205305
0.000626442
0.000237966
0.000154846
0.000133659
0.000122849
0.000114124
0.000107227
0.00197731
0.000638659
0.000242197
0.000153224
0.000130955
0.000121422
0.000114383
0.000108481
0.000758126
0.000322729
0.000184241
0.000149483
0.00013848
0.00013313
0.000129689
0.000125802
0.000278387
0.000188176
0.000165006
0.000156633
0.00015272
0.000149626
0.000147364
0.000145746
0.000550742
0.000504668
0.000463563
0.000426213
0.000394587
0.000368041
0.000345404
0.000325244
0.000674287
0.000551319
0.000505755
0.00046106
0.000420202
0.000384239
0.000352655
0.000324531
0.00129334
0.00063048
0.000567474
0.000520286
0.000471974
0.000425012
0.000381436
0.00034196
0.00332198
0.000818134
0.000630196
0.000580431
0.000528697
0.000474748
0.00042353
0.000377005
0.00347777
0.000941163
0.000660039
0.000599844
0.000545811
0.00048982
0.000436741
0.000389229
0.00158135
0.000733321
0.000612905
0.000557532
0.000506902
0.000459284
0.000416113
0.000377696
0.000728626
0.000587154
0.000536715
0.000494129
0.00045536
0.000420667
0.000389465
0.000360681
0.0014795
0.00140669
0.00130761
0.00118355
0.00104427
0.000899184
0.000758148
0.000631742
0.00167757
0.00144821
0.00135804
0.00124982
0.00111871
0.00097119
0.000816326
0.000667
0.00304439
0.00151559
0.00137175
0.0012899
0.0011806
0.00104399
0.000887497
0.000723682
0.00749559
0.0018416
0.00136116
0.00128753
0.00119559
0.00106995
0.000920032
0.000758785
0.00690979
0.00203311
0.00143845
0.00134699
0.00125743
0.00113427
0.000982561
0.000816006
0.00352015
0.00174376
0.00149135
0.00138768
0.00126919
0.00112127
0.000952824
0.000781467
0.00187738
0.00154971
0.00144027
0.00132451
0.00118261
0.00102151
0.000855678
0.000702255
0.00326568
0.00308635
0.00282084
0.00253205
0.0022652
0.00204246
0.00185916
0.0016763
0.00344607
0.00319137
0.00296741
0.00269112
0.0024114
0.00217203
0.00198448
0.00181088
0.00470126
0.00319893
0.00296779
0.002735
0.00245774
0.00220059
0.00200254
0.00183654
0.00983719
0.00346384
0.00289675
0.00270186
0.00244802
0.00218939
0.00198264
0.00181107
0.00896658
0.0037392
0.0030572
0.00281751
0.00256009
0.00231302
0.00212095
0.00196149
0.00539243
0.00356855
0.00317067
0.00288464
0.00259542
0.00233645
0.00212729
0.00193213
0.00381909
0.0033649
0.00306723
0.00275453
0.00245214
0.0021905
0.00197112
0.00175486
0.00400595
0.00378437
0.00350043
0.00320413
0.00289275
0.0025159
0.00201723
0.00146216
0.00424993
0.00400083
0.00376055
0.00349052
0.00320638
0.00285996
0.00236361
0.00175744
0.00527367
0.00409984
0.0038716
0.00365744
0.00341761
0.00311925
0.00265437
0.00204118
0.00915795
0.00434545
0.0038686
0.0036779
0.00346291
0.00319586
0.00276844
0.00218431
0.00874223
0.00461871
0.00402969
0.00378932
0.00354403
0.00322567
0.00271912
0.0020495
0.00596531
0.0044287
0.00400888
0.0036917
0.00336025
0.00295615
0.00239232
0.00171949
0.00462157
0.00414784
0.00379799
0.00344288
0.00306903
0.00262891
0.00206367
0.00144893
0.000125629
0.000118003
0.000115103
0.000117144
0.00012127
0.000127924
0.000134972
0.000310926
0.000310193
0.000307396
0.000306862
0.000309793
0.000315406
0.000314336
0.000531452
0.000527495
0.000524156
0.000523465
0.000525077
0.000527956
0.000529629
0.00136058
0.00135461
0.00135066
0.00134524
0.00133866
0.00133142
0.00134184
0.000857655
0.000858119
0.000855438
0.000852468
0.000849243
0.000846365
0.0008549
0.000144646
0.000123744
0.000106428
9.87891e-05
0.000109764
0.000123446
0.000139094
0.00032952
0.000337983
0.000344919
0.000334058
0.00032389
0.000316464
0.000319033
0.00057467
0.00062464
0.000668047
0.000629265
0.000625583
0.000577979
0.000552965
0.00146754
0.00166086
0.00178135
0.00161964
0.0016925
0.00159947
0.00144918
0.000864986
0.000999088
0.00125215
0.00145849
0.00128638
0.0010438
0.000887015
0.0001369
0.000115112
8.51001e-05
8.91888e-05
0.000103705
0.000118852
0.000127646
0.000330116
0.00033589
0.000296336
0.000273061
0.00028178
0.000302734
0.000311332
0.000562879
0.000578684
0.000546377
0.000478373
0.000522936
0.000536885
0.000535682
0.00142225
0.00147598
0.00149218
0.00145411
0.00145729
0.00141485
0.0013773
0.000858553
0.000878998
0.000910194
0.00092611
0.00088211
0.000861744
0.000856904
0.000131804
0.000119797
0.000109131
0.000101075
0.000103334
0.000121482
0.000143904
0.00030622
0.00029876
0.0003071
0.00033684
0.000348449
0.000343772
0.000333874
0.0005294
0.000539236
0.000573883
0.000609104
0.000658138
0.000630119
0.000576661
0.00142432
0.00155899
0.00159551
0.00156361
0.00172485
0.00165103
0.00146856
0.00092404
0.00109295
0.00130027
0.00144091
0.00125544
0.00100795
0.000870578
0.000122953
0.000115829
0.000106199
9.61555e-05
8.56964e-05
7.53714e-05
6.54967e-05
5.61029e-05
0.000115674
0.000110398
0.000102635
9.28505e-05
8.30268e-05
7.32053e-05
6.37145e-05
5.46129e-05
0.00011271
0.000107911
0.000100963
9.15964e-05
8.20408e-05
7.24453e-05
6.31179e-05
5.41248e-05
0.000115659
0.000110359
0.000102804
9.40006e-05
8.39473e-05
7.3233e-05
6.34467e-05
5.43705e-05
0.000119246
0.000113736
0.000105494
9.53255e-05
8.5204e-05
7.51068e-05
6.53767e-05
5.60585e-05
0.000125887
0.000120012
0.000111015
9.99688e-05
8.91277e-05
7.85625e-05
6.84024e-05
5.87011e-05
0.000132016
0.000124489
0.000114764
0.000103983
9.28127e-05
8.191e-05
7.14612e-05
6.15051e-05
0.000289501
0.000253546
0.000215368
0.000180431
0.000149993
0.000123543
0.000100469
8.0693e-05
0.000288743
0.000253638
0.00021505
0.000180463
0.000149917
0.000123359
0.000100226
8.04597e-05
0.000286511
0.000252387
0.000214161
0.000179898
0.000149579
0.000123169
0.000100117
8.03857e-05
0.000286384
0.000252724
0.000215488
0.000180767
0.000149599
0.000123034
0.000100123
8.05631e-05
0.000288946
0.000254506
0.000216362
0.000182117
0.000151738
0.000125211
0.00010199
8.20488e-05
0.000294629
0.000259588
0.000220794
0.000185839
0.000154935
0.000127954
0.000104347
8.40627e-05
0.000293984
0.000259273
0.000221152
0.000186213
0.0001557
0.000129136
0.000105867
8.57533e-05
0.00045231
0.000371534
0.000293181
0.000227285
0.000175571
0.000135602
0.000104849
8.16898e-05
0.000447734
0.000367765
0.000291354
0.000226517
0.000175231
0.000135428
0.000104768
8.17027e-05
0.000444413
0.000365726
0.000290336
0.000226056
0.000175026
0.000135331
0.000104714
8.16703e-05
0.000443943
0.000365676
0.000290139
0.00022602
0.000175137
0.000135489
0.000104923
8.19425e-05
0.000447957
0.000369658
0.000292184
0.000227115
0.000175956
0.000136285
0.000105689
8.26266e-05
0.000455191
0.000375517
0.000295357
0.000229026
0.000177384
0.00013755
0.000106895
8.37745e-05
0.00046058
0.000379344
0.000296955
0.000229623
0.000177747
0.00013805
0.000107656
8.47406e-05
0.0010775
0.000669996
0.000401885
0.000264933
0.000186727
0.000136892
0.000103173
8.01556e-05
0.00106865
0.000665322
0.000399955
0.000264152
0.000186454
0.000136873
0.00010333
8.04693e-05
0.00106132
0.000660873
0.000398048
0.000263373
0.000186137
0.000136756
0.000103311
8.05055e-05
0.00105422
0.000656224
0.000396087
0.000262692
0.000185941
0.000136764
0.000103442
8.07274e-05
0.00104786
0.000652284
0.000394772
0.000262563
0.000186172
0.000137073
0.000103727
8.09517e-05
0.00104256
0.000649735
0.000394346
0.000262898
0.000186667
0.000137606
0.000104275
8.14908e-05
0.00105475
0.000657996
0.000398657
0.000264998
0.000187779
0.000138342
0.0001049
8.20627e-05
0.000801538
0.000639396
0.00040943
0.000267454
0.000182555
0.000129908
9.64481e-05
7.53739e-05
0.000797864
0.000637674
0.000409285
0.000267648
0.000182838
0.000130243
9.6865e-05
7.59051e-05
0.000791929
0.000633987
0.000407595
0.000266771
0.000182359
0.000129995
9.6773e-05
7.59201e-05
0.000787613
0.000631403
0.000406465
0.000266273
0.000182153
0.000129948
9.68325e-05
7.60555e-05
0.000785347
0.000629958
0.000405575
0.000265802
0.000181881
0.000129752
9.66485e-05
7.58466e-05
0.000784664
0.000628936
0.00040444
0.000265125
0.000181549
0.000129626
9.66194e-05
7.58234e-05
0.000793496
0.000632456
0.000404558
0.000264803
0.000181519
0.000129952
9.71218e-05
7.62529e-05
0.000142135
0.000135402
0.000124945
0.000112647
0.000100152
8.81233e-05
7.685e-05
6.63798e-05
0.00012049
0.000114721
0.000109966
0.000102964
9.3944e-05
8.41216e-05
7.38867e-05
6.40745e-05
0.000101911
9.47789e-05
8.85433e-05
8.21573e-05
7.5549e-05
6.87879e-05
6.22408e-05
5.52486e-05
9.47559e-05
8.69173e-05
7.96239e-05
7.22686e-05
6.52957e-05
5.87345e-05
5.28249e-05
4.70435e-05
0.000104978
9.67826e-05
8.9928e-05
8.25803e-05
7.52482e-05
6.81235e-05
6.1188e-05
5.40375e-05
0.000120809
0.000114732
0.000108888
0.000100395
9.051e-05
8.02352e-05
6.99409e-05
6.02013e-05
0.000136372
0.000129343
0.000119676
0.000108174
9.62335e-05
8.46124e-05
7.3551e-05
6.32653e-05
0.000304646
0.000265926
0.000224648
0.00018762
0.000156209
0.000129806
0.000107339
8.81336e-05
0.000310678
0.000274319
0.000235446
0.000198112
0.000165062
0.000136748
0.000113053
9.34043e-05
0.000309553
0.000265152
0.000223887
0.000187717
0.000156176
0.000129242
0.000105333
8.47388e-05
0.000298646
0.000253503
0.000212894
0.000178115
0.000148815
0.000123612
0.000101631
8.30077e-05
0.000291756
0.000249463
0.000209256
0.000174277
0.00014395
0.000117602
9.47435e-05
7.5946e-05
0.000291829
0.000257188
0.000218916
0.000183037
0.00015116
0.000123635
0.000100576
8.23348e-05
0.000297036
0.000261357
0.00022164
0.000185261
0.00015385
0.000127113
0.000104331
8.50189e-05
0.000485373
0.000393147
0.000303833
0.000232382
0.000178784
0.000138788
0.000108715
8.61285e-05
0.000511414
0.000409792
0.000331618
0.000264193
0.000210369
0.000168988
0.00013695
0.000111386
0.000535437
0.000404647
0.000319072
0.000257871
0.000209387
0.000169229
0.000135538
0.000107663
0.000500863
0.000371504
0.000285838
0.00022583
0.00018039
0.000144512
0.000115655
9.23812e-05
0.000497761
0.000369487
0.000285114
0.000224979
0.000178056
0.000140191
0.000109852
8.61567e-05
0.000474325
0.000378168
0.000305422
0.000242055
0.000191028
0.000151623
0.000121263
9.73374e-05
0.000468363
0.000384478
0.000300383
0.000230859
0.000177607
0.000137369
0.000106973
8.42312e-05
0.00114068
0.000698168
0.000413355
0.000269259
0.000188602
0.000138364
0.000104935
8.21368e-05
0.00132575
0.000844409
0.000511788
0.000337373
0.000241435
0.000183053
0.000143982
0.000115749
0.00148846
0.00101827
0.000663835
0.000457823
0.000337475
0.000261624
0.000208163
0.000165869
0.00132159
0.000873122
0.000547343
0.000357911
0.000246427
0.000177265
0.000131946
0.0001009
0.00140111
0.000942623
0.000600936
0.000403835
0.00028828
0.000214461
0.000161828
0.000121645
0.00128331
0.000823279
0.000500361
0.00032977
0.000235557
0.000178124
0.000139226
0.000110077
0.00113782
0.000702155
0.000417488
0.000272453
0.000190853
0.000139782
0.000105644
8.2331e-05
0.000790491
0.00061941
0.000391677
0.000255336
0.000175229
0.000126213
9.51628e-05
7.52456e-05
0.000904709
0.000711939
0.000458934
0.00030725
0.000219162
0.000165606
0.000130863
0.000106802
0.00113825
0.000921558
0.00062741
0.000444976
0.000337257
0.000270161
0.00022379
0.000188341
0.00136194
0.00112201
0.000793949
0.000572094
0.000421036
0.000308983
0.000220385
0.000152318
0.00118
0.000963374
0.000662562
0.000473077
0.000357507
0.000280544
0.000221582
0.000171544
0.000951123
0.000753573
0.000489911
0.000330562
0.00023756
0.000180278
0.000141619
0.000112894
0.000813614
0.000640094
0.000406403
0.000265587
0.000182814
0.000132037
9.96006e-05
7.84848e-05
0.000135369
0.00012961
0.000119617
0.000107647
9.53912e-05
8.36744e-05
7.27317e-05
6.25017e-05
0.000114054
0.000111633
0.000108912
0.000102136
9.24183e-05
8.16902e-05
7.15905e-05
6.20508e-05
8.19422e-05
7.77206e-05
7.36157e-05
6.84338e-05
6.33507e-05
5.77754e-05
5.21449e-05
4.64452e-05
8.53086e-05
7.75304e-05
7.09286e-05
6.42888e-05
5.84886e-05
5.26482e-05
4.69607e-05
4.15257e-05
9.92082e-05
9.22236e-05
8.5892e-05
8.06666e-05
7.41525e-05
6.64293e-05
5.83785e-05
5.07475e-05
0.000116875
0.000112918
0.000105859
9.78213e-05
8.74326e-05
7.67231e-05
6.6694e-05
5.7478e-05
0.000124684
0.000118118
0.000109366
9.88947e-05
8.79353e-05
7.72295e-05
6.70794e-05
5.75022e-05
0.000305403
0.00026605
0.000224119
0.000186688
0.000154969
0.000128265
0.000105466
8.59613e-05
0.000313781
0.000281029
0.000240323
0.000201103
0.000166661
0.000138092
0.00011389
9.31015e-05
0.000270416
0.000236577
0.000203028
0.000174352
0.000148616
0.000126026
0.0001054
8.66001e-05
0.000245312
0.000207158
0.000170422
0.000139225
0.000112378
9.0788e-05
7.32918e-05
5.92549e-05
0.000257678
0.000224198
0.000191031
0.000160572
0.000133422
0.000110093
9.03419e-05
7.35307e-05
0.000281887
0.000247471
0.000211467
0.000176557
0.000146389
0.000120497
9.86291e-05
8.00282e-05
0.000290842
0.000255812
0.000217071
0.000181435
0.000150326
0.000123508
0.000100439
8.08103e-05
0.000478537
0.000391178
0.000304901
0.000234349
0.000180477
0.000139718
0.000108785
8.55203e-05
0.000485162
0.000399459
0.000320777
0.000252757
0.000198192
0.00015555
0.000122445
9.69209e-05
0.000452927
0.000367554
0.000311109
0.000260997
0.00021571
0.000177469
0.000146526
0.000121603
0.000389199
0.000302825
0.000243849
0.000198273
0.000160491
0.000127711
9.89106e-05
7.48917e-05
0.000431142
0.00034296
0.000283104
0.000227745
0.000180589
0.000143214
0.000114395
9.25653e-05
0.000450257
0.000367051
0.000292009
0.000227356
0.000175928
0.00013631
0.000106126
8.3526e-05
0.000454875
0.000373272
0.000294197
0.000227609
0.000175506
0.000135469
0.000104851
8.18676e-05
0.00111342
0.000685729
0.000408969
0.000268345
0.000188565
0.000138132
0.000104205
8.10303e-05
0.00116424
0.000725898
0.000435385
0.000286367
0.000202499
0.000149781
0.000114223
8.96142e-05
0.00119734
0.000768907
0.000468631
0.000310106
0.000222971
0.000169985
0.000134821
0.000109958
0.00119223
0.000791274
0.000504828
0.00034789
0.00025857
0.000204308
0.000168361
0.000140884
0.00116824
0.000746408
0.000447288
0.00029079
0.000205266
0.000153807
0.000120469
9.78963e-05
0.00111989
0.000697914
0.000414896
0.000270009
0.000189034
0.000138694
0.000105275
8.26406e-05
0.00109074
0.000677126
0.000404423
0.00026535
0.000186456
0.000136542
0.000102955
8.00764e-05
0.00079295
0.00062795
0.000400193
0.000261379
0.000178772
0.000127621
9.50045e-05
7.42148e-05
0.000808825
0.000640925
0.000409345
0.00026774
0.000183697
0.000131902
9.89886e-05
7.8014e-05
0.000835123
0.000661926
0.00042415
0.000279157
0.000194034
0.000142336
0.000109932
8.9398e-05
0.00084866
0.00067309
0.000432025
0.000286644
0.000204619
0.000158737
0.000133719
0.000121482
0.00081012
0.000639538
0.000405994
0.000264749
0.000182764
0.000133894
0.000104127
8.60546e-05
0.000796731
0.000631792
0.000402263
0.000261955
0.000179001
0.000128221
9.62811e-05
7.62262e-05
0.000799721
0.00063664
0.000406774
0.000265427
0.00018115
0.000129025
9.59353e-05
7.50624e-05
0.000128633
0.000122436
0.000113882
0.000103582
9.26479e-05
8.18766e-05
7.16633e-05
6.19804e-05
0.000116423
0.000108553
0.00010118
9.33451e-05
8.43327e-05
7.49613e-05
6.60868e-05
5.78339e-05
0.000103956
9.53368e-05
8.79156e-05
8.06606e-05
7.33335e-05
6.60082e-05
5.88357e-05
5.19944e-05
9.56839e-05
8.65433e-05
7.85249e-05
7.12915e-05
6.43723e-05
5.78572e-05
5.15339e-05
4.6009e-05
9.91169e-05
9.25782e-05
8.64786e-05
8.03985e-05
7.39016e-05
6.73516e-05
6.07538e-05
5.41725e-05
0.000117651
0.000111252
0.000105182
9.87804e-05
9.01965e-05
8.08272e-05
7.17326e-05
6.32192e-05
0.000141417
0.000134403
0.000123644
0.000111124
9.85509e-05
8.67067e-05
7.57476e-05
6.55332e-05
0.000286693
0.000254102
0.000216942
0.000182297
0.000151958
0.00012589
0.00010355
8.44646e-05
0.000274099
0.000238577
0.000201817
0.000167685
0.000138493
0.000114752
9.54738e-05
7.88686e-05
0.000274266
0.000230652
0.000190814
0.000156659
0.000127952
0.000104307
8.49576e-05
6.85334e-05
0.000298356
0.000250131
0.000207651
0.000171325
0.000141093
0.000115913
9.49141e-05
7.7223e-05
0.000310114
0.000263398
0.000220752
0.000183655
0.000152394
0.000125835
0.000103227
8.37708e-05
0.000311993
0.000270577
0.000230244
0.000192018
0.000159754
0.000134003
0.000113222
9.4949e-05
0.000306489
0.00026521
0.000222462
0.000184869
0.000153679
0.000127844
0.000106012
8.73091e-05
0.000452153
0.000375879
0.000298009
0.000231563
0.000179558
0.000139776
0.000109515
8.67634e-05
0.000442622
0.000349301
0.000287397
0.000231725
0.000185356
0.000148514
0.000119104
9.54956e-05
0.000453419
0.000331634
0.00025224
0.00019679
0.000154775
0.000121778
9.54206e-05
7.41859e-05
0.000483053
0.000355847
0.000271723
0.000213089
0.00016916
0.00013487
0.000107559
8.56954e-05
0.000524467
0.000393215
0.000307441
0.000246894
0.000200353
0.000162988
0.000132704
0.000107902
0.000511635
0.000405223
0.000329105
0.000263438
0.000211104
0.000170424
0.000137753
0.000110585
0.000483866
0.000391414
0.000302805
0.000231842
0.000178608
0.000138831
0.000108829
8.6237e-05
0.00113281
0.000712424
0.000430675
0.000284488
0.00020131
0.000148712
0.000113201
8.87362e-05
0.00126484
0.000829047
0.000512074
0.0003413
0.000245666
0.000185497
0.000143373
0.000112182
0.00131512
0.000881746
0.000560025
0.000373717
0.00026425
0.000194668
0.000146313
0.000110569
0.00127323
0.00083939
0.000525738
0.000343849
0.000236576
0.000169784
0.000125783