/*--------------------------------*- C++ -*----------------------------------*\
| =========                 |                                                 |
| \\      /  F ield         | OpenFOAM: The Open Source CFD Toolbox           |
|  \\    /   O peration     | Version:  plus.master.MPPICInterFoam            |
|   \\  /    A nd           | Web:      www.OpenFOAM.com                      |
|    \\/     M anipulation  |                                                 |
\*---------------------------------------------------------------------------*/
FoamFile
{
    version     2.0;
    format      ascii;
    class       volScalarField;
    location    "2.8";
    object      p;
}
// * * * * * * * * * * * * * * * * * * * * * * * * * * * * * * * * * * * * * //

dimensions      [1 -1 -2 0 0 0 0];

internalField   nonuniform List<scalar> 
11821
(
3943.16
3943.16
3943.16
3943.16
3943.16
3943.16
3943.16
3943.16
3943.14
3943.14
3943.14
3943.14
3943.14
3943.14
3943.14
3943.14
3943.13
3943.13
3943.13
3943.13
3943.13
3943.13
3943.13
3943.13
3943.13
3943.12
3943.12
3943.12
3943.12
3943.12
3943.12
3943.12
3943.12
3943.12
3943.12
3943.12
3943.12
3943.12
3943.12
3943.12
3943.12
3943.12
3943.12
3943.12
3943.11
3943.11
3943.11
3943.11
3943.12
3943.12
3943.12
3943.12
3943.12
3943.11
3943.11
3943.11
3846.17
3846.16
3846.17
3846.17
3846.17
3846.17
3846.17
3846.17
3846.15
3846.15
3846.15
3846.15
3846.15
3846.15
3846.15
3846.15
3846.14
3846.14
3846.14
3846.14
3846.14
3846.14
3846.14
3846.14
3846.14
3846.13
3846.13
3846.13
3846.13
3846.13
3846.13
3846.13
3846.13
3846.13
3846.13
3846.13
3846.13
3846.13
3846.13
3846.13
3846.13
3846.13
3846.13
3846.13
3846.13
3846.13
3846.13
3846.12
3846.13
3846.13
3846.13
3846.13
3846.13
3846.13
3846.13
3846.13
3749.18
3749.18
3749.18
3749.18
3749.18
3749.18
3749.18
3749.18
3749.17
3749.17
3749.17
3749.17
3749.17
3749.17
3749.17
3749.17
3749.16
3749.16
3749.16
3749.16
3749.16
3749.16
3749.16
3749.16
3749.15
3749.15
3749.15
3749.15
3749.15
3749.15
3749.15
3749.15
3749.14
3749.14
3749.14
3749.14
3749.14
3749.14
3749.14
3749.14
3749.14
3749.14
3749.14
3749.14
3749.14
3749.14
3749.14
3749.14
3749.14
3749.14
3749.14
3749.14
3749.14
3749.14
3749.14
3749.14
3652.19
3652.19
3652.19
3652.2
3652.2
3652.2
3652.2
3652.2
3652.18
3652.18
3652.18
3652.18
3652.18
3652.18
3652.18
3652.18
3652.17
3652.17
3652.17
3652.18
3652.18
3652.18
3652.18
3652.18
3652.17
3652.17
3652.17
3652.17
3652.17
3652.17
3652.17
3652.17
3652.16
3652.16
3652.16
3652.16
3652.16
3652.16
3652.16
3652.16
3652.16
3652.16
3652.16
3652.16
3652.16
3652.16
3652.16
3652.16
3652.16
3652.16
3652.16
3652.16
3652.16
3652.16
3652.16
3652.16
3555.21
3555.21
3555.21
3555.21
3555.21
3555.21
3555.21
3555.21
3555.2
3555.2
3555.2
3555.2
3555.2
3555.2
3555.2
3555.2
3555.2
3555.2
3555.2
3555.2
3555.2
3555.2
3555.2
3555.19
3555.19
3555.19
3555.19
3555.19
3555.19
3555.19
3555.19
3555.19
3555.18
3555.18
3555.18
3555.18
3555.18
3555.18
3555.18
3555.18
3555.18
3555.18
3555.18
3555.18
3555.18
3555.18
3555.18
3555.18
3555.18
3555.18
3555.18
3555.18
3555.18
3555.18
3555.18
3555.18
3458.24
3458.24
3458.24
3458.24
3458.23
3458.23
3458.23
3458.23
3458.23
3458.23
3458.23
3458.23
3458.23
3458.23
3458.22
3458.22
3458.22
3458.22
3458.22
3458.22
3458.22
3458.22
3458.22
3458.22
3458.21
3458.21
3458.21
3458.21
3458.21
3458.21
3458.21
3458.21
3458.21
3458.21
3458.21
3458.21
3458.21
3458.21
3458.21
3458.21
3458.21
3458.21
3458.21
3458.21
3458.21
3458.21
3458.21
3458.21
3458.21
3458.21
3458.21
3458.21
3458.21
3458.21
3458.21
3458.21
3361.26
3361.26
3361.26
3361.26
3361.26
3361.26
3361.26
3361.26
3361.25
3361.25
3361.25
3361.25
3361.25
3361.25
3361.25
3361.25
3361.25
3361.25
3361.25
3361.25
3361.24
3361.24
3361.24
3361.24
3361.24
3361.24
3361.24
3361.24
3361.24
3361.24
3361.24
3361.24
3361.24
3361.24
3361.24
3361.24
3361.24
3361.24
3361.23
3361.23
3361.24
3361.24
3361.24
3361.24
3361.24
3361.23
3361.23
3361.23
3361.24
3361.24
3361.24
3361.24
3361.24
3361.23
3361.23
3361.23
3264.29
3264.29
3264.29
3264.28
3264.28
3264.28
3264.28
3264.28
3264.28
3264.28
3264.28
3264.28
3264.28
3264.28
3264.28
3264.27
3264.27
3264.27
3264.27
3264.27
3264.27
3264.27
3264.27
3264.27
3264.27
3264.27
3264.27
3264.27
3264.27
3264.27
3264.26
3264.26
3264.27
3264.27
3264.27
3264.27
3264.27
3264.26
3264.26
3264.26
3264.27
3264.27
3264.27
3264.27
3264.26
3264.26
3264.26
3264.26
3264.27
3264.27
3264.27
3264.27
3264.27
3264.26
3264.26
3264.26
3167.32
3167.31
3167.31
3167.31
3167.31
3167.31
3167.31
3167.31
3167.31
3167.31
3167.31
3167.31
3167.31
3167.31
3167.31
3167.3
3167.3
3167.3
3167.3
3167.3
3167.3
3167.3
3167.3
3167.3
3167.3
3167.3
3167.3
3167.3
3167.3
3167.3
3167.3
3167.29
3167.3
3167.3
3167.3
3167.3
3167.3
3167.29
3167.29
3167.29
3167.3
3167.3
3167.3
3167.3
3167.3
3167.29
3167.29
3167.29
3167.3
3167.3
3167.3
3167.3
3167.3
3167.29
3167.29
3167.29
3070.35
3070.35
3070.35
3070.35
3070.35
3070.35
3070.35
3070.35
3070.34
3070.34
3070.34
3070.34
3070.34
3070.34
3070.34
3070.34
3070.34
3070.34
3070.34
3070.34
3070.34
3070.34
3070.33
3070.33
3070.34
3070.33
3070.33
3070.33
3070.33
3070.33
3070.33
3070.33
3070.33
3070.33
3070.33
3070.33
3070.33
3070.33
3070.33
3070.33
3070.33
3070.33
3070.33
3070.33
3070.33
3070.33
3070.33
3070.32
3070.34
3070.33
3070.33
3070.33
3070.33
3070.33
3070.33
3070.32
2973.39
2973.38
2973.38
2973.39
2973.39
2973.39
2973.39
2973.39
2973.38
2973.38
2973.38
2973.38
2973.38
2973.38
2973.38
2973.38
2973.37
2973.37
2973.37
2973.37
2973.37
2973.37
2973.37
2973.37
2973.37
2973.37
2973.37
2973.37
2973.37
2973.37
2973.37
2973.37
2973.37
2973.37
2973.37
2973.37
2973.37
2973.37
2973.37
2973.36
2973.37
2973.37
2973.37
2973.37
2973.37
2973.37
2973.36
2973.36
2973.37
2973.37
2973.37
2973.37
2973.37
2973.37
2973.36
2973.36
2876.43
2876.43
2876.43
2876.43
2876.43
2876.43
2876.43
2876.43
2876.42
2876.42
2876.42
2876.42
2876.42
2876.42
2876.42
2876.42
2876.41
2876.41
2876.41
2876.42
2876.42
2876.42
2876.42
2876.42
2876.41
2876.41
2876.41
2876.41
2876.41
2876.41
2876.41
2876.41
2876.41
2876.41
2876.41
2876.41
2876.41
2876.41
2876.41
2876.41
2876.41
2876.41
2876.41
2876.41
2876.41
2876.41
2876.41
2876.41
2876.41
2876.41
2876.41
2876.41
2876.41
2876.41
2876.41
2876.41
2779.48
2779.48
2779.48
2779.48
2779.48
2779.48
2779.48
2779.48
2779.47
2779.47
2779.47
2779.47
2779.47
2779.47
2779.47
2779.47
2779.46
2779.46
2779.46
2779.46
2779.46
2779.46
2779.46
2779.46
2779.46
2779.46
2779.46
2779.46
2779.46
2779.46
2779.46
2779.46
2779.45
2779.45
2779.45
2779.45
2779.46
2779.46
2779.46
2779.46
2779.45
2779.45
2779.45
2779.45
2779.45
2779.45
2779.45
2779.46
2779.45
2779.45
2779.45
2779.45
2779.45
2779.45
2779.45
2779.46
2682.53
2682.53
2682.53
2682.53
2682.53
2682.53
2682.53
2682.53
2682.52
2682.52
2682.52
2682.52
2682.52
2682.52
2682.52
2682.52
2682.51
2682.51
2682.51
2682.51
2682.52
2682.52
2682.52
2682.52
2682.51
2682.51
2682.51
2682.51
2682.51
2682.51
2682.51
2682.51
2682.5
2682.5
2682.5
2682.5
2682.51
2682.51
2682.51
2682.51
2682.5
2682.5
2682.5
2682.5
2682.5
2682.5
2682.51
2682.51
2682.5
2682.5
2682.5
2682.5
2682.5
2682.5
2682.5
2682.51
3943.14
3943.14
3943.14
3943.14
3943.14
3943.15
3943.15
3943.15
3943.15
3943.15
3943.15
3943.15
3943.15
3943.15
3943.16
3943.16
3943.16
3943.16
3943.16
3943.16
3943.16
3943.17
3943.16
3943.17
3846.16
3846.16
3846.16
3846.16
3846.16
3846.16
3846.16
3846.16
3846.16
3846.16
3846.17
3846.17
3846.17
3846.17
3846.17
3846.17
3846.17
3846.17
3846.17
3846.17
3846.17
3846.17
3846.17
3846.17
3846.18
3846.18
3846.18
3846.18
3846.18
3846.18
3846.19
3846.19
3846.19
3846.19
3846.19
3846.19
3846.19
3846.19
3846.19
3846.19
3846.19
3846.19
3846.19
3846.19
3846.2
3846.2
3846.2
3846.2
3846.2
3846.2
3846.2
3846.2
3846.2
3846.2
3846.2
3846.2
3749.17
3749.17
3749.18
3749.18
3749.18
3749.18
3749.18
3749.18
3749.18
3749.18
3749.18
3749.18
3749.18
3749.19
3749.19
3749.19
3749.19
3749.19
3749.19
3749.19
3749.19
3749.19
3749.19
3749.19
3749.2
3749.2
3749.2
3749.2
3749.2
3749.2
3749.2
3749.2
3749.2
3749.2
3749.2
3749.2
3749.2
3749.2
3749.21
3749.2
3749.21
3749.21
3749.21
3749.21
3749.21
3749.21
3749.21
3749.21
3749.21
3749.21
3749.22
3749.22
3749.22
3749.22
3749.22
3749.22
3652.2
3652.2
3652.2
3652.2
3652.2
3652.2
3652.2
3652.2
3652.2
3652.2
3652.2
3652.2
3652.21
3652.21
3652.21
3652.21
3652.21
3652.21
3652.21
3652.21
3652.21
3652.21
3652.21
3652.21
3652.22
3652.22
3652.22
3652.22
3652.22
3652.22
3652.22
3652.22
3652.22
3652.22
3652.22
3652.22
3652.22
3652.22
3652.22
3652.22
3652.23
3652.23
3652.23
3652.23
3652.23
3652.23
3652.23
3652.23
3652.23
3652.23
3652.23
3652.23
3652.23
3652.23
3652.23
3652.23
3555.22
3555.22
3555.22
3555.22
3555.22
3555.22
3555.22
3555.22
3555.23
3555.23
3555.23
3555.23
3555.23
3555.23
3555.23
3555.23
3555.23
3555.23
3555.23
3555.23
3555.23
3555.23
3555.23
3555.23
3555.24
3555.24
3555.24
3555.24
3555.24
3555.24
3555.24
3555.24
3555.25
3555.25
3555.25
3555.25
3555.25
3555.24
3555.24
3555.24
3555.25
3555.25
3555.25
3555.25
3555.25
3555.25
3555.25
3555.25
3555.25
3555.25
3555.25
3555.25
3555.25
3555.25
3555.25
3555.25
3458.25
3458.25
3458.25
3458.24
3458.24
3458.24
3458.24
3458.24
3458.25
3458.25
3458.25
3458.25
3458.25
3458.25
3458.25
3458.25
3458.26
3458.26
3458.26
3458.26
3458.26
3458.26
3458.26
3458.25
3458.26
3458.26
3458.26
3458.26
3458.26
3458.26
3458.26
3458.26
3458.27
3458.27
3458.27
3458.27
3458.27
3458.27
3458.27
3458.27
3458.27
3458.27
3458.27
3458.27
3458.27
3458.27
3458.27
3458.27
3458.27
3458.27
3458.27
3458.27
3458.27
3458.27
3458.27
3458.27
3361.27
3361.27
3361.27
3361.27
3361.27
3361.27
3361.27
3361.27
3361.28
3361.28
3361.28
3361.28
3361.28
3361.28
3361.27
3361.27
3361.28
3361.28
3361.28
3361.28
3361.28
3361.28
3361.28
3361.28
3361.29
3361.29
3361.29
3361.29
3361.29
3361.29
3361.29
3361.29
3361.29
3361.29
3361.29
3361.29
3361.29
3361.29
3361.29
3361.29
3361.3
3361.3
3361.3
3361.3
3361.3
3361.3
3361.3
3361.3
3361.3
3361.3
3361.3
3361.3
3361.3
3361.3
3361.3
3361.3
3264.3
3264.3
3264.3
3264.3
3264.3
3264.3
3264.3
3264.3
3264.3
3264.3
3264.3
3264.3
3264.3
3264.3
3264.3
3264.3
3264.31
3264.31
3264.31
3264.31
3264.31
3264.31
3264.31
3264.31
3264.31
3264.31
3264.31
3264.32
3264.32
3264.32
3264.32
3264.32
3264.32
3264.32
3264.32
3264.32
3264.32
3264.32
3264.32
3264.32
3264.32
3264.32
3264.32
3264.32
3264.32
3264.32
3264.32
3264.33
3264.32
3264.32
3264.32
3264.32
3264.33
3264.33
3264.33
3264.33
3167.33
3167.33
3167.33
3167.33
3167.33
3167.33
3167.33
3167.33
3167.33
3167.33
3167.33
3167.34
3167.34
3167.34
3167.34
3167.34
3167.34
3167.34
3167.34
3167.34
3167.34
3167.34
3167.34
3167.34
3167.35
3167.35
3167.35
3167.35
3167.35
3167.35
3167.35
3167.35
3167.35
3167.35
3167.35
3167.35
3167.35
3167.35
3167.35
3167.35
3167.35
3167.35
3167.35
3167.35
3167.36
3167.36
3167.36
3167.36
3167.35
3167.35
3167.35
3167.36
3167.36
3167.36
3167.36
3167.36
3070.36
3070.36
3070.36
3070.36
3070.37
3070.37
3070.37
3070.37
3070.37
3070.37
3070.37
3070.37
3070.37
3070.37
3070.37
3070.38
3070.38
3070.38
3070.38
3070.38
3070.38
3070.38
3070.38
3070.38
3070.38
3070.38
3070.38
3070.38
3070.38
3070.39
3070.39
3070.39
3070.38
3070.38
3070.39
3070.39
3070.39
3070.39
3070.39
3070.39
3070.39
3070.39
3070.39
3070.39
3070.39
3070.39
3070.39
3070.4
3070.39
3070.39
3070.39
3070.39
3070.39
3070.39
3070.4
3070.4
2973.4
2973.4
2973.4
2973.41
2973.41
2973.41
2973.41
2973.41
2973.41
2973.41
2973.41
2973.41
2973.41
2973.42
2973.42
2973.42
2973.42
2973.42
2973.42
2973.42
2973.42
2973.42
2973.42
2973.43
2973.42
2973.42
2973.42
2973.42
2973.43
2973.43
2973.43
2973.43
2973.42
2973.43
2973.43
2973.43
2973.43
2973.43
2973.43
2973.44
2973.43
2973.43
2973.43
2973.43
2973.43
2973.43
2973.44
2973.44
2973.43
2973.43
2973.43
2973.43
2973.43
2973.44
2973.44
2973.44
2876.45
2876.45
2876.45
2876.45
2876.45
2876.45
2876.45
2876.46
2876.45
2876.45
2876.46
2876.46
2876.46
2876.46
2876.46
2876.46
2876.46
2876.46
2876.46
2876.46
2876.47
2876.47
2876.47
2876.47
2876.47
2876.47
2876.47
2876.47
2876.47
2876.48
2876.48
2876.48
2876.47
2876.47
2876.47
2876.47
2876.48
2876.48
2876.48
2876.48
2876.47
2876.47
2876.47
2876.48
2876.48
2876.48
2876.48
2876.49
2876.47
2876.47
2876.48
2876.48
2876.48
2876.48
2876.49
2876.49
2779.5
2779.5
2779.5
2779.5
2779.5
2779.5
2779.51
2779.51
2779.51
2779.51
2779.51
2779.51
2779.51
2779.51
2779.51
2779.52
2779.51
2779.51
2779.51
2779.52
2779.52
2779.52
2779.52
2779.52
2779.52
2779.52
2779.52
2779.52
2779.53
2779.53
2779.53
2779.53
2779.52
2779.52
2779.52
2779.53
2779.53
2779.53
2779.54
2779.54
2779.52
2779.53
2779.53
2779.53
2779.53
2779.54
2779.54
2779.54
2779.52
2779.53
2779.53
2779.53
2779.53
2779.54
2779.54
2779.54
2682.55
2682.55
2682.55
2682.56
2682.56
2682.56
2682.56
2682.56
2682.56
2682.56
2682.56
2682.56
2682.57
2682.57
2682.57
2682.57
2682.57
2682.57
2682.57
2682.57
2682.57
2682.58
2682.58
2682.58
2682.57
2682.58
2682.58
2682.58
2682.58
2682.58
2682.59
2682.59
2682.58
2682.58
2682.58
2682.58
2682.59
2682.59
2682.59
2682.59
2682.58
2682.58
2682.58
2682.59
2682.59
2682.59
2682.59
2682.6
2682.58
2682.58
2682.58
2682.59
2682.59
2682.59
2682.59
2682.6
3943.19
3943.2
3943.2
3943.19
3943.19
3943.19
3943.19
3943.19
3943.18
3943.18
3943.18
3943.19
3943.19
3943.19
3943.19
3943.2
3943.17
3943.17
3943.17
3943.17
3943.17
3943.17
3943.17
3943.17
3846.2
3846.2
3846.2
3846.2
3846.21
3846.21
3846.21
3846.21
3846.21
3846.21
3846.21
3846.21
3846.21
3846.22
3846.22
3846.22
3846.2
3846.2
3846.21
3846.21
3846.21
3846.21
3846.21
3846.21
3846.21
3846.21
3846.21
3846.21
3846.22
3846.22
3846.22
3846.23
3846.2
3846.2
3846.2
3846.2
3846.2
3846.2
3846.2
3846.2
3846.19
3846.19
3846.19
3846.19
3846.19
3846.2
3846.2
3846.2
3846.18
3846.18
3846.18
3846.18
3846.18
3846.18
3846.18
3846.18
3749.22
3749.22
3749.22
3749.22
3749.22
3749.22
3749.22
3749.22
3749.22
3749.22
3749.22
3749.22
3749.23
3749.23
3749.23
3749.23
3749.22
3749.22
3749.22
3749.22
3749.22
3749.22
3749.22
3749.22
3749.22
3749.22
3749.22
3749.22
3749.22
3749.23
3749.23
3749.23
3749.21
3749.21
3749.21
3749.21
3749.21
3749.21
3749.21
3749.21
3749.2
3749.2
3749.2
3749.2
3749.2
3749.21
3749.21
3749.21
3749.19
3749.19
3749.19
3749.19
3749.19
3749.19
3749.19
3749.19
3652.24
3652.24
3652.24
3652.24
3652.24
3652.24
3652.24
3652.24
3652.24
3652.24
3652.24
3652.24
3652.24
3652.24
3652.24
3652.24
3652.23
3652.23
3652.23
3652.23
3652.24
3652.24
3652.24
3652.24
3652.23
3652.23
3652.23
3652.23
3652.24
3652.24
3652.24
3652.24
3652.22
3652.22
3652.22
3652.23
3652.23
3652.23
3652.23
3652.23
3652.22
3652.22
3652.22
3652.22
3652.22
3652.22
3652.22
3652.22
3652.21
3652.21
3652.21
3652.21
3652.21
3652.21
3652.21
3652.21
3555.26
3555.26
3555.26
3555.26
3555.26
3555.26
3555.25
3555.25
3555.26
3555.26
3555.26
3555.26
3555.26
3555.26
3555.26
3555.26
3555.25
3555.25
3555.25
3555.25
3555.25
3555.25
3555.25
3555.25
3555.25
3555.25
3555.25
3555.25
3555.25
3555.25
3555.25
3555.25
3555.24
3555.24
3555.24
3555.24
3555.24
3555.24
3555.24
3555.24
3555.23
3555.23
3555.23
3555.23
3555.23
3555.23
3555.23
3555.23
3555.22
3555.22
3555.22
3555.22
3555.22
3555.22
3555.22
3555.22
3458.28
3458.28
3458.28
3458.28
3458.28
3458.28
3458.28
3458.28
3458.28
3458.28
3458.28
3458.28
3458.28
3458.28
3458.28
3458.28
3458.27
3458.27
3458.27
3458.27
3458.27
3458.27
3458.27
3458.27
3458.27
3458.27
3458.27
3458.27
3458.27
3458.27
3458.27
3458.27
3458.26
3458.26
3458.26
3458.26
3458.26
3458.26
3458.26
3458.26
3458.25
3458.25
3458.25
3458.25
3458.25
3458.25
3458.25
3458.25
3458.24
3458.24
3458.24
3458.24
3458.24
3458.24
3458.24
3458.24
3361.3
3361.3
3361.3
3361.3
3361.3
3361.3
3361.3
3361.3
3361.3
3361.3
3361.3
3361.3
3361.3
3361.3
3361.3
3361.3
3361.29
3361.29
3361.29
3361.29
3361.29
3361.29
3361.29
3361.29
3361.29
3361.29
3361.29
3361.29
3361.29
3361.29
3361.29
3361.29
3361.28
3361.28
3361.28
3361.28
3361.28
3361.28
3361.28
3361.28
3361.27
3361.27
3361.27
3361.27
3361.27
3361.27
3361.27
3361.27
3361.27
3361.27
3361.27
3361.27
3361.27
3361.27
3361.27
3361.26
3264.32
3264.32
3264.32
3264.32
3264.33
3264.33
3264.33
3264.33
3264.32
3264.32
3264.32
3264.32
3264.32
3264.33
3264.33
3264.33
3264.32
3264.32
3264.32
3264.32
3264.32
3264.32
3264.32
3264.32
3264.31
3264.31
3264.31
3264.31
3264.32
3264.32
3264.32
3264.32
3264.31
3264.31
3264.31
3264.31
3264.31
3264.31
3264.31
3264.31
3264.3
3264.3
3264.3
3264.3
3264.3
3264.3
3264.3
3264.3
3264.29
3264.29
3264.29
3264.29
3264.29
3264.29
3264.29
3264.29
3167.35
3167.35
3167.35
3167.36
3167.36
3167.36
3167.36
3167.36
3167.35
3167.35
3167.35
3167.35
3167.35
3167.36
3167.36
3167.36
3167.35
3167.35
3167.35
3167.35
3167.35
3167.35
3167.35
3167.35
3167.34
3167.34
3167.34
3167.34
3167.34
3167.35
3167.35
3167.35
3167.34
3167.34
3167.34
3167.34
3167.34
3167.34
3167.34
3167.34
3167.33
3167.33
3167.33
3167.33
3167.33
3167.33
3167.33
3167.33
3167.32
3167.32
3167.32
3167.32
3167.32
3167.32
3167.32
3167.32
3070.39
3070.39
3070.39
3070.39
3070.39
3070.39
3070.39
3070.4
3070.38
3070.38
3070.39
3070.39
3070.39
3070.39
3070.39
3070.39
3070.38
3070.38
3070.38
3070.38
3070.38
3070.39
3070.39
3070.39
3070.38
3070.38
3070.38
3070.38
3070.38
3070.38
3070.38
3070.38
3070.37
3070.37
3070.37
3070.37
3070.37
3070.37
3070.37
3070.37
3070.36
3070.36
3070.36
3070.36
3070.36
3070.36
3070.37
3070.37
3070.35
3070.35
3070.35
3070.36
3070.36
3070.36
3070.36
3070.36
2973.43
2973.43
2973.43
2973.43
2973.43
2973.43
2973.44
2973.44
2973.42
2973.42
2973.43
2973.43
2973.43
2973.43
2973.43
2973.44
2973.42
2973.42
2973.42
2973.42
2973.42
2973.43
2973.43
2973.43
2973.41
2973.41
2973.42
2973.42
2973.42
2973.42
2973.42
2973.42
2973.41
2973.41
2973.41
2973.41
2973.41
2973.41
2973.41
2973.42
2973.4
2973.4
2973.4
2973.4
2973.4
2973.4
2973.41
2973.41
2973.39
2973.39
2973.39
2973.39
2973.39
2973.39
2973.4
2973.4
2876.47
2876.47
2876.47
2876.48
2876.48
2876.48
2876.48
2876.49
2876.47
2876.47
2876.47
2876.47
2876.48
2876.48
2876.48
2876.48
2876.46
2876.46
2876.47
2876.47
2876.47
2876.47
2876.48
2876.48
2876.46
2876.46
2876.46
2876.46
2876.46
2876.47
2876.47
2876.47
2876.45
2876.45
2876.45
2876.45
2876.46
2876.46
2876.46
2876.46
2876.44
2876.44
2876.44
2876.45
2876.45
2876.45
2876.45
2876.45
2876.43
2876.43
2876.44
2876.44
2876.44
2876.44
2876.44
2876.44
2779.52
2779.52
2779.53
2779.53
2779.53
2779.53
2779.54
2779.54
2779.52
2779.52
2779.52
2779.53
2779.53
2779.53
2779.53
2779.54
2779.52
2779.52
2779.52
2779.52
2779.52
2779.53
2779.53
2779.53
2779.51
2779.51
2779.51
2779.51
2779.52
2779.52
2779.52
2779.52
2779.5
2779.5
2779.5
2779.51
2779.51
2779.51
2779.51
2779.51
2779.49
2779.49
2779.49
2779.5
2779.5
2779.5
2779.5
2779.5
2779.48
2779.48
2779.49
2779.49
2779.49
2779.49
2779.49
2779.49
2682.58
2682.58
2682.58
2682.59
2682.59
2682.59
2682.59
2682.59
2682.58
2682.58
2682.58
2682.58
2682.58
2682.59
2682.59
2682.59
2682.57
2682.57
2682.57
2682.58
2682.58
2682.58
2682.58
2682.58
2682.57
2682.57
2682.57
2682.57
2682.57
2682.57
2682.57
2682.58
2682.56
2682.56
2682.56
2682.56
2682.56
2682.56
2682.57
2682.57
2682.55
2682.55
2682.55
2682.55
2682.55
2682.55
2682.55
2682.55
2682.54
2682.54
2682.54
2682.54
2682.54
2682.54
2682.54
2682.54
3943.12
3943.12
3943.12
3943.12
3943.12
3943.12
3943.12
3943.12
3943.12
3943.12
3943.12
3943.12
3943.12
3943.12
3943.12
3943.13
3943.12
3943.12
3943.12
3943.12
3943.12
3943.12
3943.12
3943.12
3943.13
3943.13
3943.13
3943.13
3943.13
3943.14
3943.14
3943.14
3943.13
3943.13
3943.13
3943.13
3943.13
3943.13
3943.13
3943.13
3943.14
3943.14
3943.14
3943.14
3943.14
3943.14
3943.14
3943.14
3943.14
3943.14
3943.14
3943.14
3943.14
3943.14
3943.14
3943.14
3846.13
3846.13
3846.13
3846.13
3846.13
3846.13
3846.13
3846.13
3846.13
3846.13
3846.13
3846.13
3846.13
3846.13
3846.13
3846.13
3846.13
3846.13
3846.13
3846.13
3846.13
3846.13
3846.13
3846.13
3846.14
3846.14
3846.14
3846.14
3846.14
3846.14
3846.15
3846.15
3846.14
3846.14
3846.14
3846.14
3846.14
3846.14
3846.14
3846.14
3846.15
3846.15
3846.15
3846.15
3846.15
3846.15
3846.15
3846.15
3846.15
3846.15
3846.15
3846.15
3846.15
3846.15
3846.15
3846.15
3749.14
3749.14
3749.14
3749.14
3749.14
3749.14
3749.14
3749.14
3749.14
3749.14
3749.14
3749.14
3749.14
3749.15
3749.15
3749.15
3749.15
3749.15
3749.15
3749.15
3749.15
3749.15
3749.15
3749.15
3749.15
3749.15
3749.15
3749.15
3749.16
3749.16
3749.16
3749.16
3749.16
3749.16
3749.16
3749.16
3749.16
3749.16
3749.16
3749.16
3749.16
3749.16
3749.16
3749.16
3749.16
3749.17
3749.17
3749.17
3749.17
3749.17
3749.17
3749.17
3749.17
3749.17
3749.17
3749.17
3652.16
3652.16
3652.16
3652.16
3652.16
3652.16
3652.16
3652.16
3652.16
3652.16
3652.16
3652.16
3652.16
3652.16
3652.16
3652.16
3652.16
3652.16
3652.17
3652.17
3652.17
3652.17
3652.17
3652.17
3652.17
3652.17
3652.17
3652.17
3652.17
3652.18
3652.18
3652.18
3652.18
3652.18
3652.18
3652.18
3652.18
3652.18
3652.18
3652.18
3652.18
3652.18
3652.18
3652.18
3652.18
3652.19
3652.19
3652.19
3652.19
3652.19
3652.19
3652.19
3652.19
3652.19
3652.19
3652.19
3555.18
3555.18
3555.18
3555.18
3555.18
3555.18
3555.18
3555.18
3555.18
3555.18
3555.18
3555.19
3555.19
3555.19
3555.19
3555.19
3555.19
3555.19
3555.19
3555.19
3555.19
3555.19
3555.19
3555.19
3555.19
3555.19
3555.19
3555.2
3555.2
3555.2
3555.2
3555.2
3555.2
3555.2
3555.2
3555.2
3555.2
3555.2
3555.2
3555.2
3555.21
3555.21
3555.21
3555.21
3555.21
3555.21
3555.21
3555.21
3555.21
3555.21
3555.21
3555.21
3555.21
3555.21
3555.21
3555.21
3458.21
3458.21
3458.21
3458.21
3458.21
3458.21
3458.21
3458.21
3458.21
3458.21
3458.21
3458.21
3458.21
3458.21
3458.21
3458.21
3458.22
3458.22
3458.22
3458.22
3458.22
3458.22
3458.22
3458.21
3458.22
3458.22
3458.22
3458.22
3458.22
3458.22
3458.22
3458.22
3458.23
3458.23
3458.23
3458.23
3458.23
3458.23
3458.22
3458.22
3458.23
3458.23
3458.23
3458.23
3458.23
3458.23
3458.23
3458.23
3458.24
3458.24
3458.24
3458.24
3458.24
3458.24
3458.24
3458.24
3361.24
3361.24
3361.24
3361.24
3361.24
3361.24
3361.24
3361.23
3361.24
3361.24
3361.24
3361.24
3361.24
3361.24
3361.24
3361.24
3361.25
3361.25
3361.25
3361.24
3361.24
3361.24
3361.24
3361.24
3361.25
3361.25
3361.25
3361.25
3361.25
3361.25
3361.25
3361.25
3361.25
3361.25
3361.25
3361.25
3361.25
3361.25
3361.25
3361.25
3361.26
3361.26
3361.26
3361.26
3361.26
3361.26
3361.26
3361.25
3361.27
3361.27
3361.26
3361.26
3361.26
3361.26
3361.26
3361.26
3264.27
3264.27
3264.27
3264.27
3264.27
3264.27
3264.26
3264.26
3264.27
3264.27
3264.27
3264.27
3264.27
3264.27
3264.27
3264.26
3264.28
3264.28
3264.28
3264.27
3264.27
3264.27
3264.27
3264.27
3264.28
3264.28
3264.28
3264.28
3264.28
3264.28
3264.27
3264.27
3264.28
3264.28
3264.28
3264.28
3264.28
3264.28
3264.28
3264.28
3264.29
3264.29
3264.29
3264.29
3264.29
3264.28
3264.28
3264.28
3264.29
3264.29
3264.29
3264.29
3264.29
3264.29
3264.29
3264.29
3167.3
3167.3
3167.3
3167.3
3167.3
3167.3
3167.29
3167.29
3167.31
3167.3
3167.3
3167.3
3167.3
3167.3
3167.3
3167.29
3167.31
3167.31
3167.31
3167.31
3167.3
3167.3
3167.3
3167.3
3167.31
3167.31
3167.31
3167.31
3167.31
3167.31
3167.3
3167.3
3167.31
3167.31
3167.31
3167.31
3167.31
3167.31
3167.31
3167.31
3167.32
3167.32
3167.32
3167.32
3167.32
3167.32
3167.32
3167.31
3167.32
3167.32
3167.32
3167.32
3167.32
3167.32
3167.32
3167.32
3070.34
3070.34
3070.34
3070.33
3070.33
3070.33
3070.33
3070.33
3070.34
3070.34
3070.34
3070.34
3070.33
3070.33
3070.33
3070.33
3070.34
3070.34
3070.34
3070.34
3070.34
3070.34
3070.34
3070.33
3070.34
3070.34
3070.34
3070.34
3070.34
3070.34
3070.34
3070.34
3070.35
3070.35
3070.35
3070.35
3070.35
3070.35
3070.35
3070.35
3070.35
3070.35
3070.35
3070.35
3070.35
3070.35
3070.35
3070.35
3070.36
3070.36
3070.36
3070.36
3070.36
3070.36
3070.36
3070.36
2973.37
2973.37
2973.37
2973.37
2973.37
2973.37
2973.37
2973.36
2973.38
2973.37
2973.37
2973.37
2973.37
2973.37
2973.37
2973.37
2973.38
2973.38
2973.38
2973.38
2973.38
2973.38
2973.38
2973.37
2973.38
2973.38
2973.38
2973.38
2973.38
2973.38
2973.38
2973.38
2973.39
2973.39
2973.39
2973.39
2973.39
2973.39
2973.39
2973.39
2973.39
2973.39
2973.39
2973.39
2973.39
2973.39
2973.39
2973.39
2973.4
2973.4
2973.4
2973.4
2973.4
2973.4
2973.4
2973.4
2876.41
2876.41
2876.41
2876.41
2876.41
2876.41
2876.41
2876.41
2876.41
2876.41
2876.41
2876.41
2876.41
2876.41
2876.41
2876.41
2876.42
2876.42
2876.42
2876.42
2876.42
2876.42
2876.42
2876.42
2876.42
2876.42
2876.42
2876.42
2876.43
2876.43
2876.43
2876.43
2876.43
2876.43
2876.43
2876.43
2876.43
2876.43
2876.43
2876.43
2876.44
2876.44
2876.44
2876.44
2876.44
2876.44
2876.44
2876.44
2876.44
2876.44
2876.44
2876.44
2876.44
2876.45
2876.45
2876.45
2779.45
2779.45
2779.45
2779.45
2779.45
2779.46
2779.46
2779.46
2779.46
2779.46
2779.46
2779.46
2779.46
2779.46
2779.46
2779.46
2779.46
2779.46
2779.46
2779.46
2779.47
2779.47
2779.47
2779.47
2779.47
2779.47
2779.47
2779.47
2779.47
2779.47
2779.47
2779.47
2779.48
2779.48
2779.48
2779.48
2779.48
2779.48
2779.48
2779.48
2779.48
2779.48
2779.48
2779.49
2779.49
2779.49
2779.49
2779.49
2779.49
2779.49
2779.49
2779.49
2779.49
2779.5
2779.5
2779.5
2682.5
2682.5
2682.5
2682.5
2682.5
2682.5
2682.51
2682.51
2682.5
2682.5
2682.5
2682.51
2682.51
2682.51
2682.51
2682.51
2682.51
2682.51
2682.51
2682.51
2682.51
2682.52
2682.52
2682.52
2682.52
2682.52
2682.52
2682.52
2682.52
2682.52
2682.52
2682.52
2682.53
2682.53
2682.53
2682.53
2682.53
2682.53
2682.53
2682.53
2682.54
2682.54
2682.54
2682.54
2682.54
2682.54
2682.54
2682.54
2682.54
2682.54
2682.55
2682.55
2682.55
2682.55
2682.55
2682.55
3891.54
3892.9
3894.18
3894.47
3893.91
3892.45
3890.97
3893.2
3895.39
3897.91
3898.34
3897.37
3894.73
3892.49
3894.85
3898.39
3904.05
3904.28
3903.33
3897.29
3893.91
3896.36
3902.79
3920.77
3922.54
3915.49
3900.16
3895.07
3895.65
3900.48
3912.11
3921.26
3908.73
3898.91
3894.6
3893.79
3896.58
3900.54
3902.87
3899.59
3895.82
3893.07
3891.9
3893.79
3895.7
3896.57
3895.33
3893.31
3891.36
3790.2
3790.63
3791.16
3791.24
3790.95
3790.46
3789.99
3790.59
3791.01
3791.84
3791.83
3791.42
3791.1
3790.48
3790.74
3790.6
3791.89
3791.36
3791.74
3790.86
3790.71
3791.04
3790.74
3801.06
3808.97
3796.91
3791.22
3790.97
3790.67
3789.87
3795.46
3805.92
3794.02
3791.07
3790.72
3789.99
3789.78
3789.68
3791.03
3790.52
3790.55
3790.13
3789.52
3790
3790.54
3791
3790.58
3790.11
3789.53
3686.39
3684.64
3683.45
3683.29
3684.12
3685.78
3687.5
3683.97
3680.63
3678.07
3677.96
3679.78
3683.13
3685.84
3680.81
3675.17
3669.59
3669.68
3677.09
3679.58
3684.07
3679.01
3672.08
3672.95
3683.19
3677
3678.22
3683.23
3679.42
3673.57
3670.4
3682.18
3675.84
3678.71
3683.31
3681.56
3676.92
3673.52
3673.79
3676.41
3680.84
3684.33
3684.15
3681.76
3679.72
3679.64
3681.27
3683.72
3685.81
3591.65
3589.93
3588.65
3588.53
3589.41
3590.73
3592.59
3589.32
3586.68
3584.58
3584.88
3586.46
3588.27
3590.88
3586.88
3584.75
3584.89
3585.56
3587.59
3585.93
3589.29
3585.44
3586.05
3588
3592.75
3589.21
3585.23
3588.61
3586.17
3586.68
3588.48
3592.69
3588.76
3586.1
3588.91
3587.77
3585.73
3586.36
3587.8
3586.04
3587.35
3589.83
3590
3588.02
3586.3
3586.47
3587.68
3589.38
3591.22
3506.83
3507.6
3508.43
3508.41
3507.26
3506.06
3505.24
3507.78
3509.94
3512.86
3513.21
3510.09
3507.16
3505.81
3509.46
3515.7
3523.14
3524.08
3517.78
3509.34
3506.46
3510.81
3520.62
3528.58
3528.74
3523
3510.98
3506.89
3510.53
3519.83
3529.29
3528.26
3520.91
3510.43
3506.65
3508.06
3511.87
3517.71
3518.74
3512.05
3507.6
3505.7
3506.7
3507.77
3509.1
3509.05
3507.31
3505.87
3504.94
3418.26
3420.13
3421.71
3421.71
3419.81
3417.58
3415.43
3420.58
3423.8
3427.97
3428.59
3423.81
3420.03
3417.09
3423.15
3429.76
3442.01
3443.69
3431.5
3422.89
3418.57
3425.67
3438.19
3456.99
3456.42
3438.86
3425.15
3419.37
3424.29
3434.25
3451.3
3453.6
3435.69
3424.03
3418.83
3421.07
3425.46
3432.19
3434.19
3425.46
3420.44
3417.12
3418.53
3420.62
3422.64
3422.93
3419.98
3417.52
3415.22
3321
3322.6
3323.58
3323.4
3321.98
3320.22
3318.41
3323.23
3325.19
3326.56
3326.34
3324.21
3321.97
3319.63
3325.22
3327.96
3330.46
3331.87
3326.44
3323.38
3320.64
3325.8
3330.37
3348
3354.87
3329.81
3324.4
3321.14
3324.81
3327.46
3337.85
3345.2
3328.32
3323.65
3320.58
3322.49
3324
3326.2
3327.51
3323.84
3321.47
3319.17
3320.3
3321.64
3322.6
3322.77
3321.15
3319.41
3317.61
3214.17
3213.76
3213.54
3213.49
3213.89
3214.5
3214.67
3212.71
3210.03
3207.63
3207.72
3210.64
3213.45
3214.28
3210.67
3204.45
3206.42
3204.14
3209.59
3212.16
3213.94
3208.3
3196.95
3205.88
3220.07
3205.71
3211.71
3213.86
3209.4
3203.6
3204.72
3212.25
3208.32
3212.39
3213.87
3211.79
3208.94
3207.12
3208.95
3210.95
3213.05
3213.84
3213.12
3212.41
3212.15
3212.6
3213.02
3213.58
3213.88
3107.82
3104.85
3102.66
3103.98
3106.38
3109.35
3111.73
3103.14
3098.1
3099.11
3098.56
3100.59
3105.56
3109.62
3099.33
3094.48
3087.07
3091.6
3100.63
3101.78
3107.88
3099.84
3096.42
3084.53
3099.75
3094.62
3101.56
3107.52
3101.69
3099.22
3097.72
3098.91
3099.45
3103.56
3108.44
3104.9
3100.66
3096.33
3099.84
3102.33
3106.47
3109.93
3108.46
3105.83
3103.91
3105.06
3106.9
3109.39
3111.62
3018
3016.62
3015.19
3015.99
3016.92
3018.3
3019.82
3016.37
3016.92
3016.74
3017.96
3016.11
3016.4
3018.41
3016.24
3019.55
3014.24
3018.37
3017.79
3014.92
3017.38
3016.71
3020.45
3011.52
3018.74
3017.27
3014.42
3017.02
3017.05
3020.68
3019.07
3019.28
3017.61
3015.49
3017.59
3016.85
3016.56
3014.6
3016.23
3015.63
3016.51
3018.43
3018.35
3017.09
3015.72
3016.13
3016.86
3018.12
3019.65
2937.54
2939.57
2940.45
2939.69
2937.39
2935.63
2934.52
2940.34
2947.33
2950.52
2949.02
2942.31
2937.39
2935.23
2945
2957.8
2960.78
2958.78
2949.99
2939.92
2936.07
2945.5
2956.41
2958.86
2958.08
2953.05
2940.86
2936.3
2942.66
2952.91
2957.02
2956.64
2948.35
2939.18
2935.86
2938.33
2942.72
2945.57
2945.23
2940.06
2936.47
2934.99
2936.49
2937.65
2938.33
2937.99
2936.24
2934.98
2934.39
2848.22
2850.26
2851.74
2850.81
2848.45
2846.37
2844.59
2850.8
2856.47
2862.03
2859.54
2853.01
2848.87
2846.2
2854.81
2868.82
2880.88
2876.69
2860.52
2851.58
2847.65
2857.63
2876.38
2889.45
2886.18
2868
2853.78
2848.33
2853.21
2864.12
2875.59
2874.28
2859.28
2851.08
2847.41
2849.51
2853.3
2857.69
2856.7
2851.44
2848.17
2845.83
2847.48
2848.93
2850
2849.53
2847.64
2845.83
2844.19
2750
2750.9
2751.64
2751.41
2750.47
2749.38
2748.02
2750.95
2752.21
2754.16
2753.87
2752.37
2751.02
2749.34
2751.86
2754.43
2762.45
2760.39
2754.42
2752.44
2750.61
2753.19
2760.52
2787.65
2777.28
2757.9
2753.57
2751.3