/*--------------------------------*- C++ -*----------------------------------*\
| =========                 |                                                 |
| \\      /  F ield         | OpenFOAM: The Open Source CFD Toolbox           |
|  \\    /   O peration     | Version:  plus.master.MPPICInterFoam            |
|   \\  /    A nd           | Web:      www.OpenFOAM.com                      |
|    \\/     M anipulation  |                                                 |
\*---------------------------------------------------------------------------*/
FoamFile
{
    version     2.0;
    format      ascii;
    class       volVectorField;
    location    "2.8";
    object      U;
}
// * * * * * * * * * * * * * * * * * * * * * * * * * * * * * * * * * * * * * //

dimensions      [0 1 -1 0 0 0 0];

internalField   nonuniform List<vector> 
11821
(
(0.000311924 0.000395954 -0.0263899)
(0.000277859 0.000369142 -0.0271672)
(0.000251724 0.000354806 -0.0272748)
(0.000229463 0.000344073 -0.0272882)
(0.000210746 0.000334079 -0.0272772)
(0.000195718 0.000323475 -0.0272588)
(0.000184272 0.000311429 -0.0272383)
(0.000176137 0.000297507 -0.0272183)
(0.000196138 0.000384309 -0.0264696)
(0.000181929 0.000349063 -0.0272495)
(0.000168531 0.000328047 -0.0273599)
(0.000155197 0.00031241 -0.027377)
(0.000142906 0.00029949 -0.0273705)
(0.000132529 0.000287887 -0.027357)
(0.000124326 0.000276755 -0.0273417)
(0.000118426 0.000265513 -0.0273267)
(8.51126e-05 0.000305591 -0.0265238)
(8.65587e-05 0.000275068 -0.0273048)
(8.17885e-05 0.000254903 -0.0274158)
(7.40138e-05 0.000238735 -0.0274332)
(6.49275e-05 0.000225019 -0.0274269)
(5.62028e-05 0.000212824 -0.0274134)
(4.88559e-05 0.000201586 -0.0273979)
(4.34035e-05 0.000190903 -0.0273824)
(1.76038e-05 0.000190334 -0.0265549)
(2.87854e-05 0.000171105 -0.0273366)
(3.02862e-05 0.000156791 -0.0274478)
(2.72654e-05 0.000144541 -0.0274656)
(2.1796e-05 0.000133824 -0.0274595)
(1.59066e-05 0.000124403 -0.0274463)
(1.08073e-05 0.000116069 -0.027431)
(7.16625e-06 0.000108633 -0.0274157)
(2.94283e-06 6.19891e-05 -0.0265623)
(1.49755e-05 5.60955e-05 -0.0273437)
(1.73365e-05 4.90722e-05 -0.0274545)
(1.52497e-05 4.18931e-05 -0.0274716)
(1.07083e-05 3.50717e-05 -0.0274649)
(5.7125e-06 2.90454e-05 -0.0274509)
(1.51015e-06 2.40134e-05 -0.0274348)
(-1.25379e-06 2.00584e-05 -0.0274189)
(4.05633e-05 -5.25642e-05 -0.026548)
(4.65174e-05 -4.77003e-05 -0.0273287)
(4.62692e-05 -4.92324e-05 -0.0274389)
(4.31201e-05 -5.28655e-05 -0.0274554)
(3.85586e-05 -5.7107e-05 -0.0274481)
(3.41045e-05 -6.09002e-05 -0.0274336)
(3.07474e-05 -6.3616e-05 -0.0274171)
(2.88902e-05 -6.49988e-05 -0.0274009)
(0.000107972 -0.000125818 -0.0265124)
(0.000101485 -0.000117992 -0.0272915)
(9.36775e-05 -0.000118317 -0.0273996)
(8.53625e-05 -0.000120848 -0.0274135)
(7.72813e-05 -0.000123545 -0.027403)
(7.04729e-05 -0.000125044 -0.027385)
(6.55121e-05 -0.000124609 -0.027365)
(6.26467e-05 -0.000121946 -0.0273452)
(0.000266247 0.000334217 -0.0263318)
(0.000240099 0.000308875 -0.0271095)
(0.000220632 0.000294344 -0.0272199)
(0.000204 0.000283306 -0.0272378)
(0.000189719 0.000273541 -0.0272326)
(0.000177785 0.00026394 -0.0272209)
(0.000168094 0.000253828 -0.0272075)
(0.000160454 0.000242796 -0.0271944)
(0.000169173 0.000327623 -0.0263989)
(0.00016012 0.000296024 -0.0271786)
(0.000151566 0.000276574 -0.0272915)
(0.000142662 0.000261891 -0.0273125)
(0.000133845 0.000249916 -0.027311)
(0.000125757 0.00023951 -0.0273032)
(0.000118686 0.000229933 -0.027294)
(0.000112727 0.00022069 -0.027285)
(7.59742e-05 0.000265676 -0.026446)
(8.07163e-05 0.000238363 -0.0272269)
(8.00419e-05 0.000220156 -0.0273403)
(7.62879e-05 0.000205588 -0.0273618)
(7.05834e-05 0.000193352 -0.0273607)
(6.42382e-05 0.000182691 -0.0273533)
(5.80664e-05 0.000173088 -0.0273441)
(5.24866e-05 0.000164193 -0.027335)
(1.74338e-05 0.000170697 -0.026474)
(3.0885e-05 0.000153584 -0.0272554)
(3.58349e-05 0.000140927 -0.0273692)
(3.63219e-05 0.000130139 -0.027391)
(3.38065e-05 0.000120714 -0.0273903)
(2.98837e-05 0.000112429 -0.0273832)
(2.55724e-05 0.000105081 -0.0273744)
(2.14297e-05 9.84999e-05 -0.0273656)
(2.88737e-06 6.32437e-05 -0.026482)
(1.74236e-05 5.83115e-05 -0.0272632)
(2.33336e-05 5.25978e-05 -0.0273766)
(2.47628e-05 4.66829e-05 -0.027398)
(2.31325e-05 4.09067e-05 -0.0273967)
(2.00411e-05 3.56064e-05 -0.027389)
(1.65203e-05 3.09385e-05 -0.0273796)
(1.31465e-05 2.69451e-05 -0.0273702)
(3.21471e-05 -3.33817e-05 -0.0264715)
(4.15818e-05 -2.82126e-05 -0.0272521)
(4.50844e-05 -2.83654e-05 -0.027365)
(4.54147e-05 -3.05043e-05 -0.0273858)
(4.36163e-05 -3.35286e-05 -0.0273839)
(4.09085e-05 -3.66029e-05 -0.0273756)
(3.80713e-05 -3.92405e-05 -0.0273657)
(3.55148e-05 -4.12123e-05 -0.027356)
(8.79581e-05 -9.67844e-05 -0.0264434)
(8.68138e-05 -8.77099e-05 -0.0272227)
(8.38725e-05 -8.57835e-05 -0.0273339)
(7.97068e-05 -8.61994e-05 -0.0273525)
(7.48418e-05 -8.74343e-05 -0.0273481)
(7.01164e-05 -8.83883e-05 -0.0273371)
(6.60147e-05 -8.84706e-05 -0.0273244)
(6.27745e-05 -8.73917e-05 -0.0273118)
(0.000227166 0.000282852 -0.0262922)
(0.000206705 0.000259644 -0.0270699)
(0.00019185 0.000245752 -0.0271821)
(0.000179091 0.000235115 -0.0272028)
(0.000167931 0.000225954 -0.0272013)
(0.000158298 0.000217377 -0.0271937)
(0.000150082 0.000208821 -0.0271847)
(0.000143138 0.000199925 -0.0271759)
(0.000145593 0.000279816 -0.0263483)
(0.000139669 0.000251877 -0.0271278)
(0.000134063 0.000234279 -0.027242)
(0.000127899 0.000220872 -0.0272652)
(0.000121366 0.000210002 -0.0272666)
(0.000114939 0.000200737 -0.0272622)
(0.000108861 0.000192449 -0.0272566)
(0.000103193 0.000184721 -0.0272512)
(6.70838e-05 0.000230904 -0.026389)
(7.32064e-05 0.000206725 -0.0271694)
(7.46787e-05 0.000190498 -0.0272842)
(7.32317e-05 0.000177531 -0.027308)
(6.96407e-05 0.000166719 -0.02731)
(6.49235e-05 0.00015742 -0.0273061)
(5.9736e-05 0.000149183 -0.0273007)
(5.44345e-05 0.000141689 -0.0272954)
(1.63119e-05 0.000152588 -0.0264138)
(3.01692e-05 0.000137399 -0.0271948)
(3.66463e-05 0.000126219 -0.0273099)
(3.89518e-05 0.000116714 -0.0273341)
(3.81562e-05 0.000108426 -0.0273364)
(3.55235e-05 0.000101149 -0.0273328)
(3.18964e-05 9.46831e-05 -0.0273278)
(2.77504e-05 8.88717e-05 -0.0273228)
(2.20372e-06 6.25632e-05 -0.0264219)
(1.7315e-05 5.82271e-05 -0.0272028)
(2.4794e-05 5.34105e-05 -0.0273177)
(2.80351e-05 4.84195e-05 -0.0273415)
(2.81193e-05 4.3466e-05 -0.0273434)
(2.62812e-05 3.87828e-05 -0.0273394)
(2.33636e-05 3.44978e-05 -0.0273339)
(1.99071e-05 3.06463e-05 -0.0273285)
(2.49354e-05 -1.91588e-05 -0.0264145)
(3.58507e-05 -1.42531e-05 -0.0271949)
(4.12805e-05 -1.37256e-05 -0.0273093)
(4.35102e-05 -1.49912e-05 -0.0273326)
(4.32843e-05 -1.72482e-05 -0.0273339)
(4.16493e-05 -1.98277e-05 -0.0273294)
(3.92826e-05 -2.23197e-05 -0.0273234)
(3.65257e-05 -2.45425e-05 -0.0273177)
(7.12377e-05 -7.41191e-05 -0.0263925)
(7.32748e-05 -6.49225e-05 -0.0271719)
(7.32239e-05 -6.18938e-05 -0.027285)
(7.16417e-05 -6.11584e-05 -0.0273065)
(6.88611e-05 -6.15585e-05 -0.0273059)
(6.55434e-05 -6.22157e-05 -0.0272991)
(6.2142e-05 -6.26307e-05 -0.027291)
(5.89075e-05 -6.25303e-05 -0.027283)
(0.000194099 0.000240147 -0.0262647)
(0.000177769 0.00021931 -0.0270424)
(0.000166127 0.000206477 -0.0271557)
(0.0001561 0.000196573 -0.0271781)
(0.000147182 0.000188179 -0.0271788)
(0.000139276 0.000180572 -0.0271737)
(0.000132278 0.000173277 -0.0271675)
(0.000126067 0.000165981 -0.0271615)
(0.000125284 0.000239608 -0.0263115)
(0.000121252 0.000215077 -0.0270907)
(0.000117442 0.000199378 -0.0272056)
(0.000113002 0.000187332 -0.02723)
(0.000107989 0.00017759 -0.027233)
(0.000102761 0.000169384 -0.0272306)
(9.75177e-05 0.000162184 -0.027227)
(9.23037e-05 0.000155632 -0.0272236)
(5.88565e-05 0.000200814 -0.0263463)
(6.52978e-05 0.000179536 -0.0271263)
(6.77759e-05 0.000165183 -0.0272418)
(6.75957e-05 0.000153723 -0.0272669)
(6.5306e-05 0.000144213 -0.0272705)
(6.17086e-05 0.000136106 -0.0272686)
(5.73358e-05 0.000129007 -0.0272654)
(5.24883e-05 0.000122632 -0.0272623)
(1.47785e-05 0.000136135 -0.0263682)
(2.80593e-05 0.000122656 -0.0271487)
(3.49691e-05 0.000112785 -0.0272645)
(3.80945e-05 0.000104419 -0.0272898)
(3.82459e-05 9.7133e-05 -0.0272938)
(3.64478e-05 9.07277e-05 -0.0272922)
(3.33992e-05 8.50312e-05 -0.0272894)
(2.95078e-05 7.99009e-05 -0.0272866)
(1.33079e-06 6.05799e-05 -0.0263762)
(1.59912e-05 5.66384e-05 -0.0271566)
(2.39489e-05 5.24635e-05 -0.0272723)
(2.7998e-05 4.8157e-05 -0.0272974)
(2.89612e-05 4.38395e-05 -0.027301)
(2.788e-05 3.96951e-05 -0.0272991)
(2.54887e-05 3.58113e-05 -0.027296)
(2.22237e-05 3.22022e-05 -0.0272928)
(1.89805e-05 -8.77994e-06 -0.0263711)
(3.02208e-05 -4.40083e-06 -0.0271512)
(3.64522e-05 -3.6101e-06 -0.0272665)
(3.9622e-05 -4.38986e-06 -0.0272911)
(4.03146e-05 -6.13529e-06 -0.0272943)
(3.93702e-05 -8.32338e-06 -0.027292)
(3.73589e-05 -1.06426e-05 -0.0272884)
(3.46218e-05 -1.29274e-05 -0.0272849)
(5.75276e-05 -5.65772e-05 -0.0263541)
(6.13723e-05 -4.7814e-05 -0.0271333)
(6.30118e-05 -4.43428e-05 -0.0272476)
(6.29768e-05 -4.30208e-05 -0.0272709)
(6.15111e-05 -4.29557e-05 -0.0272726)
(5.91738e-05 -4.34399e-05 -0.0272685)
(5.63596e-05 -4.40389e-05 -0.0272631)
(5.33084e-05 -4.45006e-05 -0.0272579)
(0.00016624 0.000204756 -0.0262452)
(0.000152959 0.000186254 -0.0270228)
(0.000143633 0.000174599 -0.0271367)
(0.000135569 0.000165557 -0.0271602)
(0.000128292 0.000157971 -0.0271622)
(0.000121703 0.000151245 -0.0271588)
(0.000115715 0.000144976 -0.0271543)
(0.000110213 0.000138897 -0.0271499)
(0.000107915 0.000205842 -0.0262842)
(0.000105035 0.00018441 -0.027063)
(0.000102324 0.000170515 -0.0271782)
(9.89832e-05 0.000159787 -0.0272033)
(9.50037e-05 0.000151119 -0.0272072)
(9.06623e-05 0.000143871 -0.0272058)
(8.61199e-05 0.000137592 -0.0272034)
(8.14164e-05 0.000131973 -0.0272011)
(5.14454e-05 0.000174918 -0.0263139)
(5.76368e-05 0.00015625 -0.0270934)
(6.04642e-05 0.000143604 -0.0272092)
(6.09298e-05 0.000133511 -0.0272348)
(5.9434e-05 0.000125162 -0.0272393)
(5.66189e-05 0.000118087 -0.0272384)
(5.29174e-05 0.000111941 -0.0272365)
(4.85828e-05 0.000106472 -0.0272346)
(1.31153e-05 0.000121338 -0.026333)
(2.53389e-05 0.000109371 -0.0271129)
(3.2081e-05 0.000100646 -0.027229)
(3.54545e-05 9.3276e-05 -0.0272549)
(3.6091e-05 8.6867e-05 -0.0272597)
(3.48316e-05 8.12328e-05 -0.0272592)
(3.22582e-05 7.62147e-05 -0.0272576)
(2.8721e-05 7.16797e-05 -0.027256)
(4.50224e-07 5.77517e-05 -0.0263406)
(1.4129e-05 5.40923e-05 -0.0271206)
(2.1941e-05 5.0402e-05 -0.0272365)
(2.6221e-05 4.66287e-05 -0.0272623)
(2.76238e-05 4.28324e-05 -0.0272669)
(2.70197e-05 3.91473e-05 -0.0272661)
(2.50218e-05 3.56335e-05 -0.0272642)
(2.20136e-05 3.22987e-05 -0.0272624)
(1.41604e-05 -1.36189e-06 -0.0263374)
(2.50962e-05 2.40948e-06 -0.027117)
(3.14853e-05 3.25011e-06 -0.0272327)
(3.50185e-05 2.73271e-06 -0.0272581)
(3.61687e-05 1.31557e-06 -0.0272623)
(3.56481e-05 -5.83995e-07 -0.0272612)
(3.39577e-05 -2.70964e-06 -0.0272589)
(3.13977e-05 -4.92587e-06 -0.0272568)
(4.64357e-05 -4.31078e-05 -0.0263243)
(5.12065e-05 -3.50243e-05 -0.0271033)
(5.37659e-05 -3.14756e-05 -0.0272182)
(5.46208e-05 -2.98946e-05 -0.0272426)
(5.39701e-05 -2.95826e-05 -0.0272456)
(5.22972e-05 -2.99536e-05 -0.0272431)
(4.99527e-05 -3.06401e-05 -0.0272395)
(4.71575e-05 -3.1421e-05 -0.027236)
(0.000142871 0.000175451 -0.026231)
(0.000131889 0.000159125 -0.0270085)
(0.00012424 0.000148663 -0.0271228)
(0.000117608 0.000140501 -0.0271469)
(0.00011156 0.000133692 -0.0271498)
(0.000106001 0.000127741 -0.0271474)
(0.000100846 0.000122311 -0.0271439)
(9.60071e-05 0.000117162 -0.0271406)
(9.31465e-05 0.000177556 -0.0262635)
(9.09708e-05 0.000158866 -0.0270419)
(8.89253e-05 0.000146619 -0.0271572)
(8.62983e-05 0.000137113 -0.0271826)
(8.30424e-05 0.000129427 -0.027187)
(7.93744e-05 0.000123024 -0.0271861)
(7.54258e-05 0.000117525 -0.0271843)
(7.12368e-05 0.000112658 -0.0271827)
(4.48733e-05 0.000152742 -0.0262887)
(5.05398e-05 0.000136376 -0.0270677)
(5.3351e-05 0.00012525 -0.0271835)
(5.41002e-05 0.00011637 -0.0272094)
(5.30852e-05 0.000109038 -0.0272143)
(5.08269e-05 0.000102847 -0.027214)
(4.76806e-05 9.74993e-05 -0.0272126)
(4.38605e-05 9.27691e-05 -0.0272113)
(1.14499e-05 0.000108159 -0.0263053)
(2.24317e-05 9.75174e-05 -0.0270846)
(2.86986e-05 8.97927e-05 -0.0272007)
(3.20048e-05 8.32887e-05 -0.0272269)
(3.28536e-05 7.76416e-05 -0.0272321)
(3.19423e-05 7.26777e-05 -0.0272321)
(2.97581e-05 6.82514e-05 -0.027231)
(2.66026e-05 6.42405e-05 -0.02723)
(-3.64785e-07 5.44335e-05 -0.0263124)
(1.21026e-05 5.09982e-05 -0.0270918)
(1.94388e-05 4.76888e-05 -0.0272079)
(2.36229e-05 4.43463e-05 -0.0272339)
(2.51921e-05 4.09846e-05 -0.027239)
(2.48808e-05 3.77002e-05 -0.0272388)
(2.32087e-05 3.4532e-05 -0.0272375)
(2.05081e-05 3.14801e-05 -0.0272363)
(1.03201e-05 3.79779e-06 -0.0263105)
(2.06106e-05 6.97202e-06 -0.0270897)
(2.67968e-05 7.75562e-06 -0.0272055)
(3.03628e-05 7.37673e-06 -0.0272313)
(3.17076e-05 6.18318e-06 -0.027236)
(3.14418e-05 4.51098e-06 -0.0272355)
(3.00023e-05 2.56777e-06 -0.027234)
(2.76595e-05 4.66104e-07 -0.0272325)
(3.75304e-05 -3.2843e-05 -0.0263006)
(4.26775e-05 -2.55231e-05 -0.0270793)
(4.56677e-05 -2.20901e-05 -0.0271944)
(4.69978e-05 -2.0437e-05 -0.0272194)
(4.68394e-05 -2.0003e-05 -0.0272232)
(4.56175e-05 -2.02997e-05 -0.0272217)
(4.3643e-05 -2.10146e-05 -0.0272191)
(4.11175e-05 -2.1956e-05 -0.0272166)
(0.000123379 0.000151229 -0.0262205)
(0.000114156 0.000136862 -0.0269978)
(0.000107725 0.000127541 -0.0271124)
(0.000102147 0.000120224 -0.0271369)
(9.70264e-05 0.000114135 -0.0271403)
(9.22736e-05 0.000108861 -0.0271385)
(8.7814e-05 0.000104116 -0.0271358)
(8.35761e-05 9.96882e-05 -0.0271332)
(8.06946e-05 0.000153939 -0.0262474)
(7.89421e-05 0.00013763 -0.0270255)
(7.72836e-05 0.000126851 -0.0271409)
(7.512e-05 0.000118443 -0.0271664)
(7.23797e-05 0.000111631 -0.027171)
(6.92349e-05 0.000105968 -0.0271704)
(6.57945e-05 0.000101126 -0.0271689)
(6.2098e-05 9.68694e-05 -0.0271676)
(3.91502e-05 0.000133853 -0.0262687)
(4.41819e-05 0.000119492 -0.0270472)
(4.67761e-05 0.000109699 -0.027163)
(4.75964e-05 0.000101879 -0.027189)
(4.68649e-05 9.54257e-05 -0.0271941)
(4.50085e-05 8.99901e-05 -0.027194)
(4.23228e-05 8.53099e-05 -0.0271929)
(3.89911e-05 8.11864e-05 -0.027192)
(9.88999e-06 9.65404e-05 -0.0262829)
(1.96052e-05 8.70594e-05 -0.0270618)
(2.52523e-05 8.02008e-05 -0.0271778)
(2.83241e-05 7.44429e-05 -0.027204)
(2.92257e-05 6.94519e-05 -0.0272094)
(2.85403e-05 6.50664e-05 -0.0272096)
(2.66794e-05 6.11522e-05 -0.0272088)
(2.39054e-05 5.75977e-05 -0.027208)
(-1.06089e-06 5.09026e-05 -0.0262895)
(1.01308e-05 4.76596e-05 -0.0270684)
(1.68254e-05 4.46605e-05 -0.0271844)
(2.07377e-05 4.16744e-05 -0.0272106)
(2.23144e-05 3.86807e-05 -0.0272158)
(2.21775e-05 3.57457e-05 -0.0272159)
(2.07704e-05 3.28924e-05 -0.027215)
(1.83837e-05 3.01164e-05 -0.0272141)
(7.30002e-06 7.27245e-06 -0.0262886)
(1.67936e-05 9.90057e-06 -0.0270674)
(2.25837e-05 1.05799e-05 -0.0271832)
(2.59956e-05 1.02693e-05 -0.0272091)
(2.73762e-05 9.23354e-06 -0.027214)
(2.72577e-05 7.74573e-06 -0.0272138)
(2.60233e-05 5.9756e-06 -0.0272127)
(2.39172e-05 4.01699e-06 -0.0272116)
(3.04289e-05 -2.50516e-05 -0.026281)
(3.56173e-05 -1.84967e-05 -0.0270594)
(3.87328e-05 -1.52851e-05 -0.0271747)
(4.02744e-05 -1.36669e-05 -0.0272)
(4.03976e-05 -1.31858e-05 -0.0272043)
(3.94794e-05 -1.34311e-05 -0.0272033)
(3.77972e-05 -1.41369e-05 -0.0272014)
(3.55352e-05 -1.51368e-05 -0.0271995)
(0.00010727 0.000131294 -0.0262127)
(9.93876e-05 0.000118643 -0.0269898)
(9.38279e-05 0.000110376 -0.0271045)
(8.90211e-05 0.00010384 -0.0271293)
(8.4601e-05 9.83998e-05 -0.0271331)
(8.04821e-05 9.37113e-05 -0.0271318)
(7.65986e-05 8.95283e-05 -0.0271295)
(7.28889e-05 8.56649e-05 -0.0271274)
(7.03275e-05 0.000134334 -0.0262348)
(6.88077e-05 0.000120049 -0.0270126)
(6.73439e-05 0.000110552 -0.027128)
(6.54708e-05 0.000103106 -0.0271535)
(6.30975e-05 9.70624e-05 -0.0271582)
(6.03622e-05 9.20365e-05 -0.0271579)
(5.73563e-05 8.77482e-05 -0.0271566)
(5.41147e-05 8.3991e-05 -0.0271554)
(3.42819e-05 0.000117885 -0.0262525)
(3.8655e-05 0.000105248 -0.0270308)
(4.09216e-05 9.66074e-05 -0.0271465)
(4.16855e-05 8.96987e-05 -0.0271725)
(4.1108e-05 8.39993e-05 -0.0271776)
(3.95436e-05 7.92037e-05 -0.0271776)
(3.72416e-05 7.50818e-05 -0.0271767)
(3.43586e-05 7.14576e-05 -0.0271759)
(8.52286e-06 8.64229e-05 -0.0262647)
(1.70297e-05 7.79504e-05 -0.0270432)
(2.19998e-05 7.18363e-05 -0.0271591)
(2.4752e-05 6.67165e-05 -0.0271853)
(2.56112e-05 6.22857e-05 -0.0271906)
(2.507e-05 5.83946e-05 -0.0271909)
(2.34805e-05 5.49199e-05 -0.0271902)
(2.10713e-05 5.176e-05 -0.0271895)
(-1.60963e-06 4.73894e-05 -0.0262706)
(8.34471e-06 4.43218e-05 -0.0270491)
(1.43318e-05 4.15767e-05 -0.027165)
(1.78833e-05 3.8886e-05 -0.0271911)
(1.93718e-05 3.62035e-05 -0.0271964)
(1.93306e-05 3.3572e-05 -0.0271966)
(1.81436e-05 3.10035e-05 -0.0271958)
(1.60669e-05 2.84899e-05 -0.0271951)
(4.97992e-06 9.53943e-06 -0.0262703)
(1.36263e-05 1.16844e-05 -0.0270488)
(1.89171e-05 1.22333e-05 -0.0271645)
(2.20747e-05 1.19485e-05 -0.0271904)
(2.34e-05 1.10275e-05 -0.0271955)
(2.3362e-05 9.69363e-06 -0.0271955)
(2.22999e-05 8.08669e-06 -0.0271945)
(2.04341e-05 6.28491e-06 -0.0271936)
(2.48219e-05 -1.91399e-05 -0.0262646)
(2.98554e-05 -1.3314e-05 -0.0270428)
(3.29013e-05 -1.03811e-05 -0.0271581)
(3.44851e-05 -8.85914e-06 -0.0271836)
(3.47498e-05 -8.37734e-06 -0.0271881)
(3.40333e-05 -8.58681e-06 -0.0271875)
(3.25858e-05 -9.25892e-06 -0.0271859)
(3.05748e-05 -1.0249e-05 -0.0271844)
(9.41139e-05 0.000115038 -0.0262068)
(8.72327e-05 0.000103846 -0.0269839)
(8.22801e-05 9.65125e-05 -0.0270987)
(7.8033e-05 9.06669e-05 -0.0271237)
(7.41371e-05 8.57956e-05 -0.0271277)
(7.05116e-05 8.16055e-05 -0.0271267)
(6.70971e-05 7.7883e-05 -0.0271248)
(6.38324e-05 7.4468e-05 -0.027123)
(6.18121e-05 0.000118214 -0.0262248)
(6.03911e-05 0.000105611 -0.0270025)
(5.89923e-05 9.72042e-05 -0.0271178)
(5.729e-05 9.05847e-05 -0.0271434)
(5.51748e-05 8.51995e-05 -0.0271482)
(5.27588e-05 8.0717e-05 -0.0271479)
(5.01185e-05 7.68928e-05 -0.0271467)
(4.72785e-05 7.35461e-05 -0.0271456)
(3.02302e-05 0.000104547 -0.0262395)
(3.39683e-05 9.33637e-05 -0.0270175)
(3.58573e-05 8.56982e-05 -0.0271331)
(3.6493e-05 7.95612e-05 -0.0271591)
(3.59849e-05 7.44979e-05 -0.0271642)
(3.46315e-05 7.02395e-05 -0.0271642)
(3.2646e-05 6.65823e-05 -0.0271634)
(3.01576e-05 6.33698e-05 -0.0271626)
(7.37843e-06 7.77604e-05 -0.0262497)
(1.47851e-05 7.01512e-05 -0.0270279)
(1.90794e-05 6.46652e-05 -0.0271437)
(2.14805e-05 6.0083e-05 -0.0271698)
(2.2244e-05 5.61246e-05 -0.0271751)
(2.17917e-05 5.26515e-05 -0.0271753)
(2.04288e-05 4.95506e-05 -0.0271746)
(1.83519e-05 4.67284e-05 -0.027174)
(-2.00468e-06 4.40776e-05 -0.0262548)
(6.80595e-06 4.11707e-05 -0.0270331)
(1.20807e-05 3.8632e-05 -0.0271489)
(1.52396e-05 3.61851e-05 -0.0271749)
(1.65897e-05 3.37638e-05 -0.0271802)
(1.65946e-05 3.13938e-05 -0.0271804)
(1.55915e-05 2.90785e-05 -0.0271797)
(1.38033e-05 2.68064e-05 -0.027179)
(3.2367e-06 1.09642e-05 -0.026255)
(1.1057e-05 1.26955e-05 -0.0270332)
(1.58083e-05 1.31047e-05 -0.0271488)
(1.86649e-05 1.28205e-05 -0.0271747)
(1.98848e-05 1.19842e-05 -0.0271798)
(1.98851e-05 1.07802e-05 -0.0271798)
(1.89701e-05 9.32486e-06 -0.0271789)
(1.73374e-05 7.68341e-06 -0.0271781)
(2.04427e-05 -1.46628e-05 -0.0262507)
(2.52167e-05 -9.50031e-06 -0.0270286)
(2.80749e-05 -6.86864e-06 -0.027144)
(2.95973e-05 -5.47382e-06 -0.0271696)
(2.99126e-05 -5.01795e-06 -0.0271743)
(2.93282e-05 -5.20076e-06 -0.0271738)
(2.80716e-05 -5.82336e-06 -0.0271724)
(2.62932e-05 -6.76063e-06 -0.0271712)
(8.34946e-05 0.000101966 -0.0262026)
(7.73514e-05 9.19672e-05 -0.0269796)
(7.28299e-05 8.54053e-05 -0.0270944)
(6.89881e-05 8.01385e-05 -0.0271194)
(6.54817e-05 7.57437e-05 -0.0271236)
(6.22328e-05 7.19672e-05 -0.0271228)
(5.91862e-05 6.86203e-05 -0.0271211)
(5.6274e-05 6.55665e-05 -0.0271196)
(5.48932e-05 0.000105132 -0.0262171)
(5.34945e-05 9.3898e-05 -0.0269946)
(5.20957e-05 8.63852e-05 -0.0271098)
(5.04902e-05 8.04498e-05 -0.0271354)
(4.85558e-05 7.56135e-05 -0.0271401)
(4.63843e-05 7.15841e-05 -0.0271399)
(4.40396e-05 6.81456e-05 -0.0271387)
(4.15316e-05 6.51388e-05 -0.0271378)
(2.6904e-05 9.35911e-05 -0.026229)
(3.00687e-05 8.36015e-05 -0.0270068)
(3.15895e-05 7.67367e-05 -0.0271223)
(3.20701e-05 7.12355e-05 -0.0271481)
(3.15804e-05 6.66972e-05 -0.0271532)
(3.03761e-05 6.28816e-05 -0.0271532)
(2.86409e-05 5.96067e-05 -0.0271524)
(2.64765e-05 5.67324e-05 -0.0271516)
(6.43469e-06 7.05058e-05 -0.0262374)
(1.2883e-05 6.36147e-05 -0.0270153)
(1.65589e-05 5.86455e-05 -0.027131)
(1.86193e-05 5.4506e-05 -0.027157)
(1.92652e-05 5.09378e-05 -0.0271622)
(1.8863e-05 4.78113e-05 -0.0271624)
(1.768e-05 4.5022e-05 -0.0271617)
(1.58818e-05 4.24832e-05 -0.027161)
(-2.28621e-06 4.11042e-05 -0.0262417)
(5.51839e-06 3.83414e-05 -0.0270197)
(1.01356e-05 3.59696e-05 -0.0271354)
(1.29149e-05 3.37216e-05 -0.0271613)
(1.41098e-05 3.15165e-05 -0.0271665)
(1.41292e-05 2.93667e-05 -0.0271667)
(1.32721e-05 2.72698e-05 -0.027166)
(1.17306e-05 2.52107e-05 -0.0271653)
(1.93601e-06 1.18133e-05 -0.0262421)
(9.00226e-06 1.32076e-05 -0.02702)
(1.32337e-05 1.34873e-05 -0.0271356)
(1.57872e-05 1.31928e-05 -0.0271614)
(1.68831e-05 1.24214e-05 -0.0271665)
(1.68968e-05 1.13268e-05 -0.0271665)
(1.61031e-05 1.00073e-05 -0.0271656)
(1.46764e-05 8.51627e-06 -0.0271648)
(1.70535e-05 -1.13099e-05 -0.0262389)
(2.15262e-05 -6.71532e-06 -0.0270166)
(2.41458e-05 -4.36785e-06 -0.027132)
(2.55553e-05 -3.10325e-06 -0.0271575)
(2.58694e-05 -2.68263e-06 -0.0271623)
(2.53704e-05 -2.84335e-06 -0.027162)
(2.42664e-05 -3.41033e-06 -0.0271607)
(2.26903e-05 -4.27615e-06 -0.0271596)
(7.50364e-05 9.16188e-05 -0.0261994)
(6.94391e-05 8.25508e-05 -0.0269762)
(6.52544e-05 7.65678e-05 -0.027091)
(6.1712e-05 7.17525e-05 -0.0271161)
(5.84937e-05 6.77354e-05 -0.0271204)
(5.55242e-05 6.42896e-05 -0.0271197)
(5.27512e-05 6.12451e-05 -0.0271181)
(5.00981e-05 5.84842e-05 -0.0271167)
(4.9337e-05 9.46811e-05 -0.026211)
(4.79401e-05 8.4535e-05 -0.0269882)
(4.65364e-05 7.77193e-05 -0.0271033)
(4.49897e-05 7.2326e-05 -0.0271288)
(4.31818e-05 6.79295e-05 -0.0271335)
(4.11904e-05 6.42664e-05 -0.0271332)
(3.9069e-05 6.11431e-05 -0.0271321)
(3.68139e-05 5.84168e-05 -0.0271312)
(2.42055e-05 8.47736e-05 -0.0262205)
(2.68904e-05 7.57356e-05 -0.026998)
(2.81054e-05 6.95011e-05 -0.0271133)
(2.84373e-05 6.45044e-05 -0.027139)
(2.79384e-05 6.03849e-05 -0.027144)
(2.68325e-05 5.69239e-05 -0.0271439)
(2.52793e-05 5.39564e-05 -0.0271431)
(2.33567e-05 5.13555e-05 -0.0271423)
(5.65316e-06 6.45825e-05 -0.0262272)
(1.13098e-05 5.82709e-05 -0.0270049)
(1.44749e-05 5.3713e-05 -0.0271203)
(1.62366e-05 4.99265e-05 -0.0271461)
(1.67643e-05 4.66703e-05 -0.0271512)
(1.63825e-05 4.38218e-05 -0.0271514)
(1.53272e-05 4.12836e-05 -0.0271506)
(1.37366e-05 3.89737e-05 -0.02715)
(-2.5012e-06 3.85505e-05 -0.0262308)
(4.46473e-06 3.59142e-05 -0.0270085)
(8.5324e-06 3.36792e-05 -0.0271239)
(1.09788e-05 3.15905e-05 -0.0271497)
(1.20247e-05 2.9559e-05 -0.0271548)
(1.20365e-05 2.75877e-05 -0.027155)
(1.12815e-05 2.56693e-05 -0.0271542)
(9.92467e-06 2.37853e-05 -0.0271536)
(9.59279e-07 1.22789e-05 -0.0262312)
(7.37947e-06 1.34153e-05 -0.0270088)
(1.11663e-05 1.35948e-05 -0.0271242)
(1.34485e-05 1.32905e-05 -0.02715)
(1.44238e-05 1.25704e-05 -0.0271549)
(1.44339e-05 1.15649e-05 -0.027155)
(1.3728e-05 1.0358e-05 -0.0271541)
(1.24588e-05 8.99266e-06 -0.0271533)
(1.44603e-05 -8.85223e-06 -0.0262289)
(1.86324e-05 -4.71013e-06 -0.0270063)
(2.10211e-05 -2.59287e-06 -0.0271215)
(2.23063e-05 -1.43932e-06 -0.0271471)
(2.25947e-05 -1.05072e-06 -0.0271518)
(2.21472e-05 -1.1931e-06 -0.0271516)
(2.1155e-05 -1.71024e-06 -0.0271505)
(1.97341e-05 -2.51011e-06 -0.0271494)
(6.84266e-05 8.35635e-05 -0.0261968)
(6.3245e-05 7.5175e-05 -0.0269734)
(5.93494e-05 6.95821e-05 -0.0270881)
(5.60335e-05 6.50948e-05 -0.0271131)
(5.30274e-05 6.136e-05 -0.0271174)
(5.02599e-05 5.81674e-05 -0.0271168)
(4.76784e-05 5.53609e-05 -0.0271154)
(4.52096e-05 5.28301e-05 -0.0271141)
(4.49669e-05 8.64869e-05 -0.0262058)
(4.35892e-05 7.71792e-05 -0.0269827)
(4.2204e-05 7.08768e-05 -0.0270977)
(4.06976e-05 6.58916e-05 -0.027123)
(3.89766e-05 6.18313e-05 -0.0271277)
(3.71112e-05 5.84523e-05 -0.0271274)
(3.51476e-05 5.55783e-05 -0.0271263)
(3.30744e-05 5.30764e-05 -0.0271253)
(2.20667e-05 7.78416e-05 -0.0262133)
(2.43831e-05 6.95357e-05 -0.0269904)
(2.53773e-05 6.37736e-05 -0.0271055)
(2.55837e-05 5.91592e-05 -0.027131)
(2.50614e-05 5.53593e-05 -0.0271359)
(2.40128e-05 5.21709e-05 -0.0271358)
(2.25794e-05 4.94415e-05 -0.027135)
(2.0823e-05 4.70538e-05 -0.0271341)
(5.01978e-06 5.98815e-05 -0.0262185)
(1.006e-05 5.40199e-05 -0.0269958)
(1.28429e-05 4.97757e-05 -0.027111)
(1.43623e-05 4.62579e-05 -0.0271367)
(1.47825e-05 4.324e-05 -0.0271416)
(1.43981e-05 4.06042e-05 -0.0271417)
(1.34203e-05 3.82579e-05 -0.027141)
(1.19672e-05 3.61226e-05 -0.0271403)
(-2.66808e-06 3.6447e-05 -0.0262213)
(3.63782e-06 3.39171e-05 -0.0269986)
(7.28809e-06 3.17939e-05 -0.0271139)
(9.46393e-06 2.9828e-05 -0.0271396)
(1.03781e-05 2.79296e-05 -0.0271446)
(1.03654e-05 2.60945e-05 -0.0271446)
(9.66769e-06 2.43113e-05 -0.0271439)
(8.42852e-06 2.25588e-05 -0.0271432)
(2.34966e-07 1.24966e-05 -0.0262218)
(6.13543e-06 1.34489e-05 -0.026999)
(9.58089e-06 1.35662e-05 -0.0271142)
(1.16402e-05 1.32575e-05 -0.0271398)
(1.25075e-05 1.25771e-05 -0.0271448)
(1.24987e-05 1.16387e-05 -0.0271447)
(1.18417e-05 1.05151e-05 -0.0271439)
(1.06713e-05 9.24104e-06 -0.0271431)
(1.25251e-05 -7.10342e-06 -0.0262201)
(1.64268e-05 -3.29524e-06 -0.0269972)
(1.86272e-05 -1.33565e-06 -0.0271122)
(1.97975e-05 -2.63689e-07 -0.0271377)
(2.00484e-05 1.00539e-07 -0.0271425)
(1.96232e-05 -2.98432e-08 -0.0271423)
(1.86979e-05 -5.13074e-07 -0.0271413)
(1.73746e-05 -1.26943e-06 -0.0271403)
(6.34275e-05 7.7436e-05 -0.0261944)
(5.85711e-05 6.95092e-05 -0.0269707)
(5.49137e-05 6.4162e-05 -0.0270852)
(5.17694e-05 5.98959e-05 -0.0271102)
(4.89196e-05 5.63582e-05 -0.0271145)
(4.63043e-05 5.33429e-05 -0.027114)
(4.38438e-05 5.07234e-05 -0.0271126)
(4.15228e-05 4.8352e-05 -0.0271114)
(4.16538e-05 8.02513e-05 -0.0262011)
(4.03175e-05 7.15506e-05 -0.0269777)
(3.89617e-05 6.5605e-05 -0.0270924)
(3.74832e-05 6.09079e-05 -0.0271177)
(3.58227e-05 5.70884e-05 -0.0271223)
(3.40478e-05 5.39167e-05 -0.027122)
(3.2195e-05 5.12251e-05 -0.0271209)
(3.02586e-05 4.88951e-05 -0.0271199)
(2.04403e-05 7.25623e-05 -0.0262067)
(2.24971e-05 6.47896e-05 -0.0269834)
(2.33393e-05 5.93618e-05 -0.0270983)
(2.34472e-05 5.50209e-05 -0.0271237)
(2.28992e-05 5.1452e-05 -0.0271285)
(2.18838e-05 4.8462e-05 -0.0271284)
(2.05295e-05 4.59068e-05 -0.0271275)
(1.88911e-05 4.36751e-05 -0.0271266)
(4.5366e-06 5.62824e-05 -0.0262106)
(9.12787e-06 5.07478e-05 -0.0269875)
(1.16393e-05 4.67278e-05 -0.0271025)
(1.29734e-05 4.34029e-05 -0.027128)
(1.33053e-05 4.05566e-05 -0.0271329)
(1.29093e-05 3.8074e-05 -0.0271329)
(1.19776e-05 3.58649e-05 -0.0271321)
(1.06164e-05 3.38532e-05 -0.0271313)
(-2.78353e-06 3.47897e-05 -0.0262128)
(3.03647e-06 3.23411e-05 -0.0269897)
(6.38745e-06 3.03031e-05 -0.0271047)
(8.35459e-06 2.84266e-05 -0.0271303)
(9.15907e-06 2.6624e-05 -0.0271352)
(9.11444e-06 2.48855e-05 -0.0271352)
(8.44295e-06 2.31965e-05 -0.0271344)
(7.27377e-06 2.15344e-05 -0.0271337)
(-2.7103e-07 1.25628e-05 -0.0262131)
(5.23914e-06 1.33915e-05 -0.02699)
(8.43826e-06 1.34775e-05 -0.027105)
(1.03222e-05 1.31691e-05 -0.0271305)
(1.10955e-05 1.25175e-05 -0.0271354)
(1.10568e-05 1.16252e-05 -0.0271354)
(1.04173e-05 1.05566e-05 -0.0271345)
(9.2984e-06 9.34058e-06 -0.0271338)
(1.11523e-05 -5.9067e-06 -0.0262119)
(1.48351e-05 -2.32518e-06 -0.0269887)
(1.68914e-05 -4.5774e-07 -0.0271037)
(1.79595e-05 5.61294e-07 -0.0271291)
(1.81635e-05 9.08158e-07 -0.0271338)
(1.77344e-05 7.8263e-07 -0.0271336)
(1.68359e-05 3.15898e-07 -0.0271327)
(1.55597e-05 -4.20942e-07 -0.0271317)
(5.98525e-05 7.3009e-05 -0.0261918)
(5.52493e-05 6.53751e-05 -0.0269679)
(5.17604e-05 6.01703e-05 -0.0270823)
(4.87444e-05 5.60347e-05 -0.0271073)
(4.5998e-05 5.26256e-05 -0.0271117)
(4.35445e-05 4.96856e-05 -0.0271113)
(4.1114e-05 4.72388e-05 -0.0271098)
(3.89726e-05 4.49276e-05 -0.0271089)
(3.92843e-05 7.57732e-05 -0.0261965)
(3.79894e-05 6.7468e-05 -0.0269728)
(3.66503e-05 6.17481e-05 -0.0270874)
(3.51906e-05 5.72338e-05 -0.0271126)
(3.35766e-05 5.35677e-05 -0.0271172)
(3.18824e-05 5.05344e-05 -0.0271169)
(3.01029e-05 4.79456e-05 -0.0271158)
(2.82893e-05 4.57603e-05 -0.0271148)
(1.92751e-05 6.87635e-05 -0.0262004)
(2.11597e-05 6.13433e-05 -0.0269769)
(2.1894e-05 5.61315e-05 -0.0270916)
(2.19328e-05 5.197e-05 -0.0271169)
(2.13714e-05 4.85547e-05 -0.0271216)
(2.03871e-05 4.56984e-05 -0.0271214)
(1.90961e-05 4.32597e-05 -0.0271205)
(1.75535e-05 4.11351e-05 -0.0271195)
(4.1944e-06 5.36887e-05 -0.0262032)
(8.4822e-06 4.83651e-05 -0.0269797)
(1.08036e-05 4.44889e-05 -0.0270946)
(1.20079e-05 4.12906e-05 -0.02712)
(1.22817e-05 3.85587e-05 -0.0271247)
(1.18847e-05 3.6178e-05 -0.0271246)
(1.09945e-05 3.40597e-05 -0.0271238)
(9.71e-06 3.21296e-05 -0.0271229)
(-2.84722e-06 3.35736e-05 -0.0262047)
(2.6418e-06 3.1177e-05 -0.0269813)
(5.78137e-06 2.91943e-05 -0.0270961)
(7.59678e-06 2.7377e-05 -0.0271216)
(8.32066e-06 2.56381e-05 -0.0271264)
(8.25252e-06 2.39631e-05 -0.0271263)
(7.59979e-06 2.23345e-05 -0.0271255)
(6.48257e-06 2.07298e-05 -0.0271246)
(-5.90806e-07 1.25594e-05 -0.0262049)
(4.65218e-06 1.33088e-05 -0.0269815)
(7.67238e-06 1.33785e-05 -0.0270964)
(9.42205e-06 1.30726e-05 -0.0271218)
(1.01189e-05 1.24411e-05 -0.0271265)
(1.00512e-05 1.15789e-05 -0.0271265)
(9.41718e-06 1.05444e-05 -0.0271256)
(8.32908e-06 9.36344e-06 -0.0271247)
(1.02564e-05 -5.13183e-06 -0.0262041)
(1.37807e-05 -1.68696e-06 -0.0269806)
(1.57229e-05 1.35071e-07 -0.0270954)
(1.66997e-05 1.12548e-06 -0.0271207)
(1.68516e-05 1.46289e-06 -0.0271254)
(1.64023e-05 1.33981e-06 -0.0271253)
(1.55063e-05 8.80073e-07 -0.0271243)
(1.42479e-05 1.50027e-07 -0.0271234)
(0.00013423 0.000151135 -0.0263033)
(0.000135385 0.000123855 -0.0270754)
(0.000140444 0.000103466 -0.0271812)
(0.00014511 8.76079e-05 -0.0271932)
(0.000147581 7.64126e-05 -0.027181)
(0.000147151 6.97345e-05 -0.0271616)