/*--------------------------------*- C++ -*----------------------------------*\
| =========                 |                                                 |
| \\      /  F ield         | OpenFOAM: The Open Source CFD Toolbox           |
|  \\    /   O peration     | Version:  plus.master.MPPICInterFoam            |
|   \\  /    A nd           | Web:      www.OpenFOAM.com                      |
|    \\/     M anipulation  |                                                 |
\*---------------------------------------------------------------------------*/
FoamFile
{
    version     2.0;
    format      ascii;
    class       vectorField;
    location    "5.8/lagrangian/kinematicCloud";
    object      U;
}
// * * * * * * * * * * * * * * * * * * * * * * * * * * * * * * * * * * * * * //


1058
(
(0.0061717 0.00645329 -0.018434)
(0.00827478 -0.00082478 -0.0181769)
(0.0138181 0.00247389 -0.0162071)
(0.0120266 0.00293971 -0.0168457)
(0.00353575 0.00622427 -0.0130077)
(0.00306757 0.00580857 -0.0102717)
(0.0126553 7.8605e-05 -0.0170984)
(0.00337477 0.00610856 -0.0110013)
(0.00344966 0.00795841 -0.0267062)
(0.00673098 0.0046508 -0.0180232)
(0.00589098 0.0019331 -0.0179573)
(0.00672595 -0.00118172 -0.0215879)
(0.0128217 -0.00031272 -0.0202346)
(0.00163771 0.00659591 -0.0141081)
(0.00804212 0.00351604 -0.0199147)
(0.00690317 0.00240844 -0.0185611)
(0.00800981 -0.00130036 -0.0233935)
(0.00474728 0.00793265 -0.0226829)
(0.00456271 0.00829259 -0.0159713)
(0.000205368 0.00717257 -0.0105945)
(0.00129799 0.00807886 -0.020548)
(0.0129097 -0.000354248 -0.0179958)
(0.00423052 0.00873076 -0.0143194)
(0.000809527 0.00702605 -0.0245323)
(0.00829449 -0.00122951 -0.0299115)
(0.0076979 0.000797985 -0.031936)
(0.00669057 0.00464038 -0.0171212)
(0.00437548 0.00724118 -0.0135387)
(0.00400812 0.00869698 -0.0199233)
(0.00792688 0.000973589 -0.016323)
(0.00330712 0.0157438 -0.0141287)
(0.00108396 0.00763437 -0.0232292)
(0.0012966 0.00806272 -0.0219659)
(0.00129701 0.00802807 -0.0219263)
(0.00837025 0.00137149 -0.0255644)
(0.0110482 0.00312012 -0.0164855)
(0.0118092 -0.00121279 -0.0162969)
(-5.35635e-05 0.00535075 -0.0205045)
(0.00424695 0.00836682 -0.0166849)
(0.00377838 0.00825813 -0.0265104)
(0.0128012 0.000342006 -0.020012)
(0.00930729 0.000322696 -0.0137038)
(0.00343996 0.00631552 -0.0150205)
(0.00207786 0.00747087 -0.011877)
(-0.000294704 0.00724465 -0.0125771)
(0.00824227 -0.00109548 -0.0305027)
(0.00443372 0.00786881 -0.0185131)
(0.00423941 0.00863813 -0.0224872)
(0.00831736 0.000590158 -0.0268683)
(0.00379249 0.0082307 -0.0261476)
(0.00692205 0.00248621 -0.0200768)
(0.000276637 0.00731659 -0.0117541)
(0.00026437 0.00767983 -0.0119891)
(0.00134261 0.00797665 -0.0207662)
(0.00404173 0.00832841 -0.0244783)
(0.00519983 0.00724644 -0.0263486)
(0.00284703 0.00716124 -0.0124861)
(0.00198022 0.00729391 -0.0126149)
(0.005168 0.00591584 -0.0163233)
(0.00390422 0.00810894 -0.0242738)
(0.00400926 0.00796969 -0.0235193)
(0.0009936 0.00728379 -0.0183798)
(0.00265112 0.00731744 -0.0173652)
(0.00813075 0.000507242 -0.0160936)
(0.000937552 0.00898214 -0.023617)
(-0.000375938 0.00752561 -0.0125791)
(0.00417061 0.00801951 -0.0271125)
(0.0105 0.000372383 -0.0164015)
(0.00734519 0.00260416 -0.0238421)
(0.00664683 0.00217396 -0.0189366)
(0.0100546 0.00292451 -0.0177819)
(0.00698499 0.00408577 -0.0264402)
(0.0036975 0.00677434 -0.017408)
(0.00601906 0.00548496 -0.0336419)
(0.00563233 0.00694916 -0.0215584)
(0.00397436 0.0111464 -0.0206807)
(0.0028086 0.00705686 -0.011781)
(0.00283716 0.00709107 -0.0124051)
(0.00736022 -0.00102213 -0.0234731)
(0.00844106 -0.000542904 -0.0285847)
(0.0126969 -0.00032339 -0.0188182)
(0.00586518 0.00686846 -0.0267489)
(-0.000128476 0.00724364 -0.0118374)
(0.00387969 0.00817387 -0.0269666)
(0.00457362 0.00612925 -0.0127576)
(0.000551567 0.00892696 -0.0235951)
(0.00165952 0.00733699 -0.010137)
(0.00601927 0.00369093 -0.022515)
(0.00720051 0.00522839 -0.0276029)
(0.00598556 0.00557383 -0.022253)
(0.00469523 0.00752338 -0.0289198)
(0.00203432 0.00625665 -0.0251089)
(0.00418382 0.00799303 -0.0274152)
(0.0041671 0.00676371 -0.0242937)
(0.00417995 0.00798128 -0.02781)
(0.00641057 0.00523497 -0.014483)
(0.00602363 0.00547162 -0.0164256)
(0.00347903 0.00826179 -0.0171306)
(-0.00026769 0.00741633 -0.0117962)
(0.00400467 0.0080766 -0.0279743)
(-0.000362477 -0.000188376 -0.0337921)
(0.00613826 0.00629972 -0.029013)
(0.00989983 0.00153799 -0.0231298)
(0.0107899 0.00212187 -0.0220315)
(0.0118632 -0.00109395 -0.0151777)
(0.00432078 0.00841956 -0.0183336)
(-0.000148606 0.00752068 -0.0141722)
(0.000290921 0.00839314 -0.017051)
(0.000425561 0.00877529 -0.023934)
(0.00306751 0.0073789 -0.0157641)
(0.00360421 0.0082992 -0.0166908)
(0.00399817 0.00846974 -0.0181038)
(0.00230838 0.00693063 -0.025234)
(-0.00023134 0.00749587 -0.013853)
(-0.00655712 0.00196989 -0.0232451)
(0.000149276 0.00828541 -0.0218861)
(0.00509205 0.00630061 -0.0161246)
(0.00274217 0.0102547 -0.0156095)
(0.00129204 0.00856249 -0.030093)
(0.0111901 0.00131911 -0.0174137)
(0.00799293 0.000485695 -0.0126529)
(0.00590278 0.0055635 -0.0169708)
(0.0053224 0.00718604 -0.0259261)
(0.00239995 0.00846313 -0.0187856)
(0.00152966 0.00828068 -0.0244148)
(0.00985233 -0.000384429 -0.0233412)
(0.00098537 0.00747105 -0.0246838)
(0.000137593 0.00742416 -0.013415)
(0.00186557 0.0123134 -0.0175919)
(0.000231647 0.00732961 -0.0126698)
(0.00278935 0.00740897 -0.0262753)
(0.0073963 0.000600736 -0.0184868)
(0.00598791 0.00554224 -0.0175773)
(0.00595769 0.00672038 -0.0271998)
(0.000146759 0.00777688 -0.0180001)
(0.00648634 -0.00404255 -0.0285286)
(0.00322222 0.00807208 -0.0205195)
(0.00694379 -0.0052714 -0.0239093)
(0.00274363 0.00826217 -0.0242752)
(0.00241784 -9.62358e-05 -0.024347)
(0.00792275 0.00367183 -0.0262156)
(-0.0066523 0.0018831 -0.0235383)
(0.0106476 0.00344287 -0.0196584)
(0.000987881 0.00888758 -0.0243858)
(0.00238835 -0.000924384 -0.0271103)
(0.0074658 0.00389361 -0.0204606)
(0.00209952 0.00756669 -0.0173107)
(0.00392968 0.00815034 -0.0279648)
(0.0107795 0.00111809 -0.0196731)
(0.00048926 0.00690864 -0.0212373)
(0.00102122 0.00799411 -0.0210519)
(0.00666216 -0.00418527 -0.0251344)
(0.00355071 0.0129044 -0.0207043)
(0.0035572 0.0128682 -0.0200513)
(0.00128897 0.00879229 -0.0281721)
(0.00313953 0.0118154 -0.0173145)
(0.00665799 -0.0041223 -0.0270557)
(0.00722695 0.00510423 -0.0290476)
(0.00770826 0.00421746 -0.027458)
(0.0112759 0.00172518 -0.0199629)
(0.000511886 0.00869534 -0.0165418)
(0.00514537 0.00589905 -0.017151)
(0.000962442 0.00769329 -0.0203427)
(0.0019419 0.0077759 -0.0157125)
(0.00500129 0.00537646 -0.0198785)
(0.00542452 0.00535927 -0.0238984)
(0.00590809 -0.00657024 -0.0225385)
(0.0105092 0.00348801 -0.0214346)
(0.00663354 -0.00106204 -0.024856)
(0.00625369 -0.00569617 -0.0286968)
(0.00792242 0.00383632 -0.0265865)
(0.00854513 0.000145383 -0.0271103)
(0.00153713 0.00841304 -0.0235988)
(-0.000247473 0.00823026 -0.027051)
(0.00321071 0.0120764 -0.0178238)
(-0.000381989 0.00824454 -0.0157662)
(0.00171453 0.00844055 -0.03062)
(0.0113965 -0.00135727 -0.020268)
(0.00797222 0.00246494 -0.0273103)
(0.00696483 -0.00419813 -0.0245983)
(-0.000551228 0.00826615 -0.0219453)
(-0.00136877 0.0101527 -0.0202182)
(0.00047196 0.00752772 -0.0154267)
(0.00297931 0.0073676 -0.0287901)
(-0.000567923 0.00820774 -0.0144323)
(0.000191668 0.00785193 -0.0124085)
(-0.000289107 0.00815851 -0.0205656)
(2.2389e-05 0.00865323 -0.0272578)
(0.00144759 0.00822246 -0.0251514)
(-0.000621537 0.00771133 -0.0229541)
(-0.000262514 0.00817099 -0.019068)
(-0.000372091 0.00824196 -0.0175865)
(0.00415712 0.0110724 -0.0243486)
(0.00571926 0.00346472 -0.025014)
(0.00645816 -0.00107003 -0.0255844)
(0.00433007 -0.00683924 -0.0230591)
(0.00357475 0.0134063 -0.0215828)
(0.00848454 0.000470904 -0.0281666)
(-0.000313539 0.00824132 -0.0152728)
(0.00808649 -0.00131486 -0.0186435)
(0.00684694 0.00060209 -0.0154099)
(0.0122486 0.000808114 -0.0217338)
(-0.00044217 0.00830323 -0.0177829)
(0.00600369 0.00590578 -0.0328339)
(0.00728743 0.00492782 -0.029851)
(0.000995352 0.00312155 -0.0281843)
(0.00571738 0.00360951 -0.0228048)
(0.00277291 -0.000954291 -0.0272631)
(0.00748229 -0.001354 -0.0157455)
(-0.000321747 0.00828481 -0.0146948)
(0.000560822 0.00718292 -0.0200774)
(0.00157681 0.00839422 -0.0263906)
(0.00126314 0.00807798 -0.0235889)
(-0.000248384 0.00827912 -0.0227206)
(0.00268673 0.00775535 -0.0259543)
(0.00159544 0.00851061 -0.0237293)
(0.00358653 0.00604538 -0.0232447)
(0.00010865 0.00855712 -0.0200402)
(0.000947847 0.00766556 -0.0289212)
(0.00672167 -0.00105507 -0.0258504)
(0.00150494 0.0036659 -0.0270965)
(0.000795183 0.00770158 -0.0216012)
(0.00698426 -0.00104101 -0.0251401)
(0.00710691 0.000719727 -0.0276712)
(0.00617823 -0.00124751 -0.025359)
(0.000804626 0.00737462 -0.0264501)
(0.00682604 0.00214829 -0.0237056)
(-0.000230613 0.00787274 -0.0135418)
(0.00723535 -0.00101258 -0.0246429)
(0.00650448 0.00396854 -0.0226999)
(0.002841 0.00437774 -0.0256266)
(0.00248351 0.00706196 -0.0249885)
(0.00589665 0.00678311 -0.028116)
(0.00274323 0.00735514 -0.0264656)
(0.00718389 0.000320152 -0.0248803)
(0.00719269 0.00413724 -0.0308996)
(0.000867847 0.00733686 -0.0248554)
(0.00728991 0.000744114 -0.0249206)
(0.00226215 -0.000961107 -0.0272959)
(0.00722436 0.00471388 -0.0320075)
(0.00407915 0.0064885 -0.0194114)
(0.00519506 0.00721782 -0.0270487)
(0.00824981 0.00119038 -0.0295093)
(-0.00448098 -0.00359428 -0.0365897)
(0.00532106 0.00718553 -0.0294623)
(0.00574089 0.00362387 -0.0216741)
(0.00140309 0.0035859 -0.0273043)
(0.00298604 0.00698164 -0.0325988)
(0.00399241 0.00632913 -0.0235667)
(0.00113701 0.00798868 -0.0336926)
(0.00656749 0.000290606 -0.0264124)
(0.00651717 0.000506762 -0.0239634)
(-0.000230618 0.00207555 -0.0285304)
(0.00259926 -0.00745537 -0.0192385)
(0.00274958 0.00779232 -0.0264251)
(0.007201 0.000322418 -0.0254077)
(0.0062997 0.00194866 -0.0265301)
(0.00672888 0.0042352 -0.0354634)
(0.00439147 6.41702e-05 -0.0268563)
(0.00481648 0.000134465 -0.0260762)
(-0.00470445 0.00175229 -0.0328813)
(0.00519801 0.00606682 -0.0193612)
(0.000249612 0.00766102 -0.0362272)
(0.00316482 -0.00772146 -0.022688)
(0.00482575 -0.00114309 -0.0268039)
(0.00463373 -0.00707059 -0.0252495)
(0.00744779 0.00410129 -0.032838)
(0.00413185 0.00634612 -0.024286)
(0.00190214 0.00557798 -0.0302625)
(-0.00154609 0.0074797 -0.0268121)
(-0.00157148 0.00745514 -0.026616)
(0.00672521 0.000562487 -0.0271244)
(0.00775684 -0.0012667 -0.0195691)
(0.00409122 0.00806708 -0.0256096)
(0.00667143 0.00206977 -0.0249037)
(0.00221878 0.00874276 -0.0299013)
(-0.00519685 0.00204646 -0.0335465)
(-0.00131819 0.00759034 -0.0345959)
(-0.000417018 0.00706685 -0.0265108)
(0.00681159 0.00207062 -0.0250729)
(0.00176444 -0.000653952 -0.0264231)
(0.00263628 0.00822472 -0.032861)
(-0.00136576 0.00167114 -0.0341448)
(0.00591454 0.00366288 -0.0212411)
(0.00692708 -0.00241255 -0.0303258)
(0.00343881 -9.81844e-05 -0.0280916)
(0.00708776 -0.00444872 -0.0297977)
(0.00243036 0.00824608 -0.0343306)
(0.0024637 0.00395849 -0.0250658)
(-0.0018245 0.00688516 -0.0266652)
(0.00401641 0.00617024 -0.0253)
(0.00157567 0.00796315 -0.0285417)
(0.00692126 0.000300217 -0.0286382)
(0.00506941 0.000213027 -0.0294216)
(-0.00171656 0.00562433 -0.0287648)
(-0.00184211 0.00566257 -0.0285753)
(-0.000733163 0.00302357 -0.0287733)
(0.0046723 -0.00671111 -0.0302634)
(0.00217336 0.00641254 -0.0250965)
(-0.00537914 0.000662059 -0.0335174)
(0.000738688 0.002626 -0.0311696)
(0.00538512 0.00163748 -0.0267306)
(0.00438372 0.00738061 -0.0316385)
(0.00294431 -0.0077249 -0.0229703)
(0.0122137 -0.000807219 -0.0211629)
(-0.00160221 0.00502423 -0.0282513)
(-0.00195371 0.0075253 -0.0323555)
(-0.00142081 0.00714928 -0.032559)
(0.0054236 0.00695828 -0.0314996)
(-0.000670503 0.00782572 -0.0271319)
(0.00610312 0.000316831 -0.0361608)
(0.00818574 0.000270464 -0.0317458)
(0.00577685 0.000332919 -0.0285728)
(-0.00558783 0.00227424 -0.0363051)
(0.000856839 0.00802424 -0.0289449)
(-0.00594987 0.000758328 -0.035718)
(-0.0023239 0.0119917 -0.0158923)
(-9.95399e-05 0.00269886 -0.028979)
(0.00185436 -0.00835745 -0.0290873)
(0.00353618 -0.000982712 -0.0301402)
(0.00268606 -0.000810878 -0.0338802)
(0.00703892 0.00241288 -0.0231426)
(-0.00689484 0.00489645 -0.0355068)
(0.00134767 0.00765052 -0.0289475)
(-0.00141589 0.00858279 -0.0198072)
(-0.000500817 0.00594281 -0.0341132)
(0.00165773 -0.00816398 -0.0281209)
(0.00266821 0.00788612 -0.0318462)
(-0.000375503 -0.00808188 -0.0328244)
(0.00119551 0.00713552 -0.0373284)
(0.00162425 0.00766024 -0.0303321)
(0.00189031 -0.00829663 -0.0299235)
(0.00543312 0.00562015 -0.0324863)
(0.0073408 0.000238139 -0.0265531)
(0.00571873 0.000299341 -0.030452)
(0.0023472 0.000290749 -0.0258084)
(-0.00251032 0.00682017 -0.0340179)
(0.00207393 0.00834762 -0.0318698)
(0.00670667 0.00453965 -0.0366876)
(0.00679509 0.000188804 -0.029297)
(0.00481228 0.00487412 -0.0246544)
(-0.00268993 0.00688524 -0.0274164)
(0.00561291 -0.00554536 -0.0289988)
(-0.00153966 0.00664643 -0.0293708)
(-0.00371074 0.0080857 -0.0320965)
(-0.00166824 0.00966331 -0.0246628)
(0.007311 0.00408965 -0.0340932)
(0.00326188 0.00513071 -0.0258152)
(0.00394394 0.00774162 -0.0337173)
(-0.00545141 0.000956523 -0.0345825)
(-0.00133989 0.00743749 -0.0271075)
(0.005085 0.00662147 -0.030807)
(0.00196579 0.00791107 -0.0328572)
(0.00670457 0.00196628 -0.0302487)
(0.00585348 0.00536649 -0.0326428)
(-0.000167602 0.00691713 -0.0295328)
(0.0023883 0.0073835 -0.0345368)
(0.0029383 0.00170733 -0.0337386)
(0.00192261 0.00494359 -0.0367689)
(-0.00489168 -0.00380429 -0.0352523)
(0.00228606 0.00795544 -0.0296425)
(-0.00397269 0.00846514 -0.0285983)
(-0.00021069 0.00138662 -0.0297932)
(0.00672471 0.000694628 -0.0308098)
(0.00408388 0.00569012 -0.0346901)
(0.00444593 -0.00688045 -0.0284535)
(0.00153601 -0.00547457 -0.0227717)
(0.00319786 0.00681353 -0.0369859)
(0.00407155 6.88062e-05 -0.0320986)
(0.00731182 0.000166378 -0.0249391)
(0.00445185 0.000138207 -0.0310751)
(0.00320935 -0.00792043 -0.0279673)
(0.00444407 0.00270845 -0.0273882)
(-0.00380768 0.00627346 -0.0324773)
(0.0017846 0.00499634 -0.0372907)
(0.00343048 -0.00738503 -0.0282351)
(0.00515446 0.00597635 -0.036916)
(0.00564979 0.000320582 -0.0301763)
(-0.00244141 0.00689018 -0.0311187)
(-0.00246501 0.00682623 -0.0252227)
(-0.00611569 -0.00055586 -0.0362919)
(-0.00582161 0.00233634 -0.0365599)
(0.0049536 0.00615171 -0.0344383)
(0.0074675 0.00290082 -0.0320301)
(0.00730224 4.49711e-05 -0.0348672)
(0.00125396 -0.00819319 -0.0331408)
(0.00388442 0.00669615 -0.0370718)
(0.00320113 0.000694439 -0.0356638)
(-0.000815619 0.00718088 -0.0361253)
(0.000242578 0.00438524 -0.0356352)
(0.00142173 0.00337245 -0.0387327)
(0.00343082 0.00681038 -0.0377458)
(0.00124331 0.00340274 -0.0296458)
(0.0057872 0.00365861 -0.0264765)
(0.0016169 0.00524433 -0.0248794)
(0.00661291 0.0022675 -0.0251176)
(0.00186091 0.00401323 -0.0402912)
(7.37683e-05 0.00732236 -0.0281736)
(-0.00217524 0.00680939 -0.035541)
(-0.00409221 0.0066472 -0.0331174)
(-0.00175485 0.00628176 -0.0346177)
(0.00264512 0.002418 -0.0279462)
(0.000849679 0.00610435 -0.0324642)
(0.00575583 -0.00243464 -0.0263809)
(0.00476898 0.00128048 -0.0313646)
(0.00608863 0.00188068 -0.028053)
(0.00479536 0.00652246 -0.0306582)
(0.00271115 -0.00757147 -0.0227951)
(0.00727868 0.000288744 -0.0269051)
(0.00112019 0.00299895 -0.0313496)
(-0.00453079 -0.00208233 -0.0353806)
(0.00092614 0.00626552 -0.0377279)
(0.00328341 -0.00750276 -0.0272618)
(0.00149324 -0.00762709 -0.0275932)
(0.00150097 -0.000288331 -0.0272238)
(0.00294838 -0.00710497 -0.0273465)
(0.00480786 0.000191261 -0.031565)
(0.00345027 -0.00591464 -0.0210434)
(-0.00315463 0.00587821 -0.0367233)
(0.00562181 0.00176984 -0.0340655)
(-0.000357621 0.00646945 -0.0208181)
(0.00173434 -0.00785338 -0.0270867)
(0.00207895 -0.00795647 -0.0276904)
(0.00308243 -0.000109589 -0.0342628)
(0.00210521 0.00190258 -0.0314213)
(0.00118443 -0.00716768 -0.0262501)
(0.00219012 -0.000494571 -0.0331841)
(-0.00428109 0.00156187 -0.0318088)
(-0.00202937 0.00952798 -0.0251449)
(0.00598015 0.00322246 -0.0303118)
(0.00554958 0.00649199 -0.0293279)
(0.00308312 -0.00727777 -0.0260595)
(0.000936281 -0.0006183 -0.0272486)
(-0.00574808 0.00226351 -0.0361186)
(-0.00495392 0.00185886 -0.0324647)
(0.00647718 -0.00479269 -0.0293246)
(0.000703794 0.00688148 -0.0337739)
(0.000381294 0.00514254 -0.0353571)
(0.00237638 -0.00768405 -0.0243801)
(0.00348776 0.00719948 -0.0339447)
(-9.5302e-05 0.00071468 -0.0351018)
(0.0110511 0.00183123 -0.0234767)
(0.00660435 0.00204572 -0.0213877)
(-0.00024709 0.0060071 -0.0301024)
(-0.000991417 -0.000627891 -0.0309625)
(0.00575995 -0.00583377 -0.0343069)
(0.0028685 0.00630631 -0.0254625)
(0.00357742 0.000900393 -0.0333967)
(-0.00368849 -0.00499324 -0.0337759)
(0.00383322 -0.00646062 -0.0253534)
(0.00371747 -0.0061596 -0.0292597)
(0.00154319 -0.00775016 -0.0231984)
(-0.00166861 0.00614358 -0.0245483)
(0.00144324 0.00437754 -0.039432)
(-9.56552e-05 0.0021707 -0.0311247)
(0.00239072 -0.00763975 -0.0355906)
(0.00156566 -0.00769042 -0.0277142)
(0.000598506 0.00639969 -0.0309683)
(0.00614465 -0.00144984 -0.0301236)
(0.00656359 0.000355112 -0.037511)
(0.00493931 -0.00673002 -0.0328228)
(0.00491306 -0.00121645 -0.0218061)
(0.00239528 -0.00699437 -0.0256661)
(-0.0069569 0.0045058 -0.0340247)
(-0.00232403 0.00687429 -0.030035)
(-0.00248785 0.0113251 -0.016575)
(0.000937487 -0.00648405 -0.0288222)
(0.0073955 -0.00215095 -0.0338057)
(0.00627124 0.000796567 -0.0361191)
(0.00677773 0.00154277 -0.0341711)
(0.00604765 0.00196022 -0.025877)
(0.00504315 0.00494741 -0.0345139)
(0.00225949 0.000230962 -0.0261168)
(0.0061636 0.00479111 -0.0374102)
(-0.0040609 0.00828417 -0.0280933)
(0.00577234 -0.000299395 -0.0376918)
(0.00195898 0.0016832 -0.0329681)
(-0.00188199 0.00922682 -0.0218562)
(0.00167951 -0.00765405 -0.0236164)
(0.00272053 -0.000763665 -0.0310846)
(0.00320435 0.00518433 -0.0223904)
(0.00717285 0.00290515 -0.0320916)
(0.00487125 -0.00565141 -0.0263663)
(-0.000745059 0.00669849 -0.0329719)
(-0.00405281 0.00220855 -0.0395745)
(-0.00594322 0.00192398 -0.0353329)
(0.00371395 -0.00655369 -0.0265966)
(0.00433212 -0.00109292 -0.0337958)
(-0.000134459 0.000129527 -0.0347702)
(0.00143326 0.00156173 -0.0314549)
(0.00716824 -0.00191375 -0.0303247)
(0.00143801 0.00412332 -0.0384488)
(0.00353391 -0.00664309 -0.0350211)
(-0.00468354 0.00515885 -0.032657)
(-0.00508991 0.000822503 -0.0345653)
(0.00107639 0.00329709 -0.0383931)
(0.00198004 -0.0072105 -0.0328207)
(0.0028886 -0.0068646 -0.0278723)
(0.00141835 -0.000612136 -0.0310679)
(0.00593942 0.00217222 -0.0344212)
(0.00807424 0.00188391 -0.03334)
(-0.00687207 0.00509423 -0.0340332)
(0.000349477 0.00610698 -0.0304398)
(-0.00241421 0.00681714 -0.0300005)
(0.00144533 -0.000326759 -0.0281241)
(0.00244673 -0.00759644 -0.0269274)
(0.00059096 0.00626875 -0.032042)
(0.00437952 -0.00624859 -0.0205343)
(0.00281396 -0.00327099 -0.0305919)
(0.00197479 0.00421063 -0.0278525)
(0.00652817 0.000155361 -0.0378421)
(0.00239029 0.00444808 -0.0272848)
(0.00682971 -0.00141165 -0.0318641)
(-8.69588e-05 -0.00748536 -0.0346942)
(-0.00512072 -0.00212918 -0.0364106)
(0.00452251 0.00502036 -0.0320892)
(-0.00393193 0.00806648 -0.0281038)
(0.00482244 -0.0040138 -0.0385575)
(-0.00418902 -0.000491043 -0.0371862)
(0.00310717 -0.00422416 -0.0366993)
(0.00564912 -0.00218093 -0.0283051)
(0.00622899 0.00132425 -0.0287272)
(0.00525321 -0.000685177 -0.0365783)
(0.00524709 0.00554511 -0.0380706)
(0.00274888 0.00248417 -0.0273852)
(0.000660475 -0.00579599 -0.0272706)
(-0.00352679 -0.00501741 -0.0343762)
(-0.00465797 0.00514956 -0.0334357)
(-0.00165697 0.00528401 -0.0314163)
(7.87117e-05 -0.00694127 -0.0318327)
(0.00419478 -0.00444364 -0.0264716)
(-0.00594784 0.00163512 -0.0358894)
(-0.00229421 0.00433991 -0.0334685)
(0.00194989 0.00685071 -0.0320235)
(0.00639907 0.00333733 -0.0335508)
(0.00252103 0.00654945 -0.0291338)
(0.00622128 0.00350565 -0.0251406)
(0.00313716 -0.00728563 -0.0268769)
(0.00802318 -0.00158227 -0.0332222)
(-0.00172951 0.00300309 -0.035156)
(-0.00184693 0.00836869 -0.0224801)
(-0.00431338 0.00170085 -0.0379478)
(0.00615076 0.00155561 -0.0339326)
(0.000730297 -0.000305037 -0.0339938)
(0.00413449 0.000542618 -0.0383203)
(-0.00198609 -0.00263541 -0.0374357)
(0.00461384 -0.00363384 -0.0381784)
(-0.00463407 0.00510027 -0.031088)
(-0.00404949 -0.00353438 -0.0364396)
(0.00658212 0.00272733 -0.0331516)
(0.00186149 -0.000944974 -0.0301731)
(0.00688768 0.00122277 -0.0356343)
(-0.00547534 0.000446321 -0.0404284)
(-0.00466964 0.00177106 -0.0342898)
(-0.00259045 0.0090863 -0.0184016)
(0.00237335 -0.00722732 -0.0271637)
(0.00136704 -0.000603199 -0.0322966)
(0.00208059 0.00250085 -0.0292317)
(0.000701087 0.00184207 -0.0284456)
(0.000851845 0.00283347 -0.0277959)
(-0.00297951 0.00340151 -0.0307745)
(-0.00831614 0.00476028 -0.0391268)
(-0.0032293 -0.0015612 -0.035378)
(-0.0032297 0.00179192 -0.0416048)
(4.18487e-06 0.0067934 -0.0306112)
(0.00251907 -0.00793456 -0.0302791)
(0.000932977 -0.00620592 -0.0303457)
(0.00392791 0.00520451 -0.0357532)
(0.00596477 -0.00170835 -0.0286406)
(0.00541422 -0.0021911 -0.0286642)
(0.000666299 -0.000436563 -0.0339214)
(0.000241459 -0.000636581 -0.0260269)
(0.00126249 -0.00802501 -0.0318852)
(0.00185595 0.00306907 -0.0281389)
(0.00567242 0.00487371 -0.0322962)
(0.00722746 -0.000133134 -0.0358728)
(0.00625448 -0.00428217 -0.0351659)
(-0.00559163 -0.00127204 -0.039297)
(-0.00327101 0.00545913 -0.035936)
(0.00507467 -0.00587322 -0.0366367)
(0.003932 -0.00656064 -0.0333238)
(0.000525758 0.0067269 -0.0317524)
(0.00564143 -0.00438328 -0.0331068)
(-0.000554086 -0.000540199 -0.0313326)
(0.00612734 0.00139914 -0.0356493)
(0.00199157 0.00720916 -0.034291)
(0.00207513 0.00566197 -0.024707)
(0.00545495 -0.00100488 -0.0372051)
(-0.00461363 0.00334303 -0.0387593)
(0.00142157 0.00270003 -0.0306763)
(-0.00414655 0.00476925 -0.0379199)
(0.00315659 -0.0123824 0.000525481)
(0.00124441 -0.000396864 -0.0347969)
(0.00203466 -0.00579814 -0.0297687)
(0.00544863 -0.00560376 -0.0316359)
(0.00362424 0.00526023 -0.0257995)
(-0.00860046 0.00435154 -0.0365828)
(-0.00257455 0.0110202 -0.0177667)
(0.00427261 -0.0020702 -0.0280981)
(-0.00522551 0.00183828 -0.0411111)
(0.00441812 -0.00605937 -0.0248254)
(-2.72687e-05 -0.000400392 -0.0359583)
(0.00386624 0.00063791 -0.038924)
(0.000845331 -0.000637825 -0.0281295)
(0.0042197 0.00260731 -0.0308235)
(0.00545802 0.00315652 -0.0263198)
(0.003363 -0.00724555 -0.0234929)
(-0.00454301 -0.00358195 -0.0375367)
(-0.00232975 0.0104337 -0.019925)
(0.00621144 -0.000418077 -0.0371371)
(0.00208266 -0.00599093 -0.0296585)
(0.00143377 -0.000901688 -0.0288143)
(0.00545949 -0.00507302 -0.029303)
(-0.00309424 0.00359242 -0.0308064)
(0.00181072 -0.00520801 -0.0302541)
(0.00111657 -0.00791728 -0.0339026)
(-0.00547737 7.56205e-05 -0.0409748)
(0.00111243 0.00336771 -0.0289864)
(0.00400234 -0.006839 -0.0268086)
(0.00662161 0.00171687 -0.0267044)
(0.00261425 0.0050917 -0.0243108)
(0.00431339 0.00594152 -0.0299731)
(0.00228387 0.0020924 -0.029162)
(0.00549246 -0.00652867 -0.0310337)
(-0.00333162 0.00424065 -0.038013)
(-0.00408731 0.0045605 -0.032363)
(0.00456686 0.00281114 -0.0333515)
(0.00204038 0.00636654 -0.0357261)
(0.0029719 -0.00687212 -0.0275354)
(-0.00394176 0.0066263 -0.0342053)
(-0.00452148 -0.00355001 -0.0378144)
(0.00190675 0.00670092 -0.0308628)
(-0.002066 0.00613543 -0.0334514)
(-0.00304634 0.00376266 -0.0372897)
(-0.00021433 0.00648026 -0.031085)
(-0.0039747 -0.00345774 -0.0373479)
(-0.00159292 -0.000504329 -0.0328389)
(-0.00371579 0.00598335 -0.0350755)
(-0.00403711 0.00441294 -0.0387981)
(-0.00432286 0.00225169 -0.0401198)
(0.00493768 -0.00569146 -0.027959)
(0.00591169 0.00225845 -0.0346666)
(0.00541503 0.00119446 -0.0373207)
(0.00306889 0.0066509 -0.0333909)
(0.000558962 0.00500912 -0.0336712)
(-0.00257645 0.00112758 -0.0344172)
(0.00413322 -0.00657697 -0.0344951)
(0.00221697 -0.00746478 -0.0312642)
(0.0073258 -0.000576616 -0.0323467)
(-0.0040543 -0.00495911 -0.0368788)
(-0.0036715 0.00441338 -0.0388133)
(0.00325077 0.00489441 -0.0279051)
(0.0010991 -0.00788192 -0.0295955)
(-0.00714584 0.00293339 -0.0370213)
(0.00454071 0.00334227 -0.0298039)
(0.00420603 0.00489287 -0.0374265)
(0.00596567 -0.000460402 -0.0359465)
(0.00422037 0.00386756 -0.0297976)
(0.000404471 0.00589895 -0.0325585)
(-0.00548456 0.00133331 -0.0350681)
(-0.000545692 -0.00771677 -0.0330731)
(-0.00200664 0.00542896 -0.0370344)
(0.00563477 0.00142628 -0.035725)
(0.00214635 -0.00600936 -0.0315268)
(0.0020105 -0.00687653 -0.0268529)
(0.00573513 -0.00460054 -0.0299203)
(0.00333631 0.0031425 -0.0336726)
(0.00714338 0.00140373 -0.0323587)
(0.0048027 -0.00557191 -0.0238322)
(0.00529281 0.00444866 -0.032785)
(0.000600032 0.000597977 -0.0350495)
(0.0038978 -0.00597042 -0.0257941)
(0.00294047 -0.00476046 -0.0324168)
(-0.0002968 0.00276965 -0.0297557)
(0.00635823 -0.00226891 -0.0281719)
(0.00550587 -0.00204577 -0.0326034)
(-0.00420515 0.00539679 -0.0358651)
(0.00366013 -0.00696522 -0.0328865)
(-0.00546425 0.0045152 -0.0341836)
(0.000570994 0.00521494 -0.0394574)
(0.00379339 -0.00564543 -0.0281236)
(0.00475064 -0.00408285 -0.0357722)
(0.00306595 -0.000363806 -0.0389629)
(0.00328557 -0.00711355 -0.0271393)
(0.00698853 -4.61036e-05 -0.0214296)
(0.00673167 -0.000222739 -0.035384)
(-0.000939728 -0.000344112 -0.0362224)
(0.00521171 -0.00455946 -0.0353023)
(-0.00391553 0.000251787 -0.0360704)
(0.00386943 0.00101283 -0.0321027)
(-0.00155901 0.00251219 -0.0362618)
(0.00124799 0.0035108 -0.0393399)
(0.00387745 0.00520352 -0.0353352)
(0.00465518 0.00384267 -0.0356595)
(-0.00448393 0.00422432 -0.0380244)
(0.00164603 0.0042237 -0.0286442)
(-4.33051e-05 0.00667671 -0.030735)
(-0.00250973 0.00577044 -0.0296105)
(0.00366245 -0.00560091 -0.0279363)
(-0.00381036 0.0021988 -0.0411102)
(0.0047178 -0.0046349 -0.0300237)
(0.00617193 -0.000521752 -0.0328982)
(0.000822966 0.00293794 -0.0283236)
(-0.0048409 0.00680244 -0.0353873)
(0.00646419 -0.000364549 -0.0354357)
(0.00175999 -0.00486047 -0.0340215)
(0.00247368 -0.0062058 -0.0367789)
(0.00142773 0.00331136 -0.0416557)
(0.00186676 -0.0035099 -0.0331087)
(0.00149729 0.00231048 -0.0314651)
(-0.00357148 0.00586881 -0.0361272)
(0.00487239 0.00129766 -0.029964)
(0.00353151 0.000267939 -0.0374105)
(0.00485831 -0.00541768 -0.0281743)
(-0.000695514 0.00606537 -0.0372288)
(-0.00705004 0.00518344 -0.0341174)
(0.00141285 -0.000931678 -0.0302153)
(0.00510118 -0.000839866 -0.0374585)
(0.00561033 0.0028895 -0.0308856)
(-0.0040801 0.00444516 -0.0336547)
(0.00397262 -0.00694956 -0.0292489)
(0.000994466 0.00561199 -0.0306711)
(-0.00331457 -0.00442908 -0.0356463)
(-0.00437976 -0.00407745 -0.0376191)
(0.00147216 -0.000656318 -0.0279255)
(0.00148896 -0.00718784 -0.0251701)
(-0.000506994 0.000664017 -0.0356468)
(0.00377989 -0.00296015 -0.0344018)
(0.00300394 0.00585297 -0.0356782)
(0.00583735 -0.00178435 -0.0344172)
(0.00431394 -0.006 -0.0264148)
(0.00453733 0.00483174 -0.0385666)
(-0.00562617 0.00349809 -0.0369732)
(0.000395983 -0.00764469 -0.0264887)
(0.00310352 -8.09372e-05 -0.0340686)
(0.00348461 -0.00537848 -0.0282558)
(0.00313257 -0.00677747 -0.0289751)
(0.00104748 0.00278477 -0.0421607)
(0.00219756 -0.00675432 -0.0276775)
(0.00115527 -0.000639953 -0.0295651)
(0.00332335 -0.00683258 -0.0290437)
(0.00402245 0.00430911 -0.0351785)
(0.00211796 -0.00624517 -0.028011)
(-0.00330129 0.00236 -0.0348307)
(0.00130688 0.00359923 -0.0401832)
(0.00301295 0.00579088 -0.0383452)
(0.00554715 -0.00132417 -0.0374505)
(0.00255068 -0.00304365 -0.0313763)
(-0.00365878 0.00440898 -0.0384688)
(0.00318676 0.00568309 -0.0371679)
(0.00265063 -0.00626646 -0.0312818)
(-0.000285373 0.00574154 -0.03472)
(0.00451708 0.00492151 -0.0399431)
(0.00085246 -0.000349692 -0.0449813)
(0.00222228 -0.00307864 -0.0315944)
(0.00338311 0.00317303 -0.0336938)
(-0.00491997 0.00737849 -0.034175)
(-1.89643e-05 5.12732e-05 -0.0227131)
(0.00258994 -0.00745468 -0.0321226)
(0.0029295 -0.00652843 -0.0299686)
(0.00589511 0.00220255 -0.0347452)
(0.0018171 0.00363169 -0.0308967)
(0.00545528 -0.00207187 -0.032441)
(0.0061143 0.000724622 -0.0369411)
(0.000578349 -0.00685675 -0.0331201)
(0.00898807 -0.00381748 -0.0425296)
(0.00525107 -0.0042359 -0.0351637)
(0.000672538 0.00399729 -0.0412995)
(0.00149175 -0.00211712 -0.0340808)
(0.000856378 -2.69423e-06 -0.035603)
(0.00347936 -0.00531966 -0.0377065)
(0.00234933 -0.00565332 -0.0326557)
(0.000711184 -0.000851834 -0.035607)
(0.00562237 -0.000128617 -0.0354647)
(-0.00485912 0.0019354 -0.0425133)
(0.00249491 -0.0065806 -0.0367957)
(0.00319411 -0.00500857 -0.0304126)
(0.00596975 -0.000473724 -0.0346194)
(8.87634e-05 0.00148646 -0.0356367)
(-0.00707587 0.00508536 -0.0338621)
(-5.39667e-05 0.000907543 -0.0356976)
(-0.000386133 -0.000546683 -0.0312426)
(-0.00464895 0.00301417 -0.0403095)
(0.0121027 -0.0210362 -0.0220357)
(-0.00355341 0.00436762 -0.0382548)
(0.000570076 0.00265072 -0.0426302)
(-6.58581e-05 -0.00094651 -0.0336443)
(0.00453902 -0.00493348 -0.0369537)
(0.0055581 0.00184158 -0.0375017)
(-0.000210652 0.000201403 -0.0368084)
(0.00149094 0.00562789 -0.0372148)
(0.00168142 0.00569635 -0.0355368)
(-0.000120347 0.000375805 -0.0310639)
(0.00109791 0.00284354 -0.0427805)
(-0.00502359 0.00198387 -0.03949)
(0.00316414 -0.000331332 -0.0387732)
(0.00436486 -0.0032425 -0.0347873)
(-0.00219948 -0.00754384 0.000254918)
(-0.00539092 -0.0064979 -0.0428019)
(0.0036036 -0.00576841 -0.0361754)
(0.000854451 -0.00331849 -0.0325419)
(-0.00523796 -0.000107885 -0.0417344)
(0.00128182 -0.00620947 -0.0313173)
(0.000754777 0.00012732 -0.0459238)
(0.00259563 -0.00749309 -0.0319213)
(-0.00493578 -0.00195202 -0.0397584)
(0.00113697 -0.00213893 -0.0175813)
(0.000419344 -0.006518 -0.0349188)
(0.00506098 -0.00454177 -0.0325754)
(0.000374263 -0.000433205 -0.0345389)
(0.000293852 -0.000576495 -0.0331207)
(0.00346486 0.00439192 -0.0411797)
(-1.41123e-05 1.16134e-05 -0.0213242)
(0.00550485 -0.00112754 -0.0360957)
(0.000651303 0.0024571 -0.041906)
(0.000825973 -0.00061762 -0.0325413)
(0.00396361 -0.00519596 -0.0368539)
(0.00246809 -0.00618434 -0.0370278)
(0.004393 -0.00398582 -0.0394559)
(0.00296422 0.00520466 -0.0381786)
(-0.00570552 0.00184572 -0.0364637)
(0.00187317 0.00324593 -0.0342458)