/*--------------------------------*- C++ -*----------------------------------*\
| =========                 |                                                 |
| \\      /  F ield         | OpenFOAM: The Open Source CFD Toolbox           |
|  \\    /   O peration     | Version:  plus.master.MPPICInterFoam            |
|   \\  /    A nd           | Web:      www.OpenFOAM.com                      |
|    \\/     M anipulation  |                                                 |
\*---------------------------------------------------------------------------*/
FoamFile
{
    version     2.0;
    format      ascii;
    class       vectorField;
    location    "5.8/lagrangian/kinematicCloud";
    object      UCorrect;
}
// * * * * * * * * * * * * * * * * * * * * * * * * * * * * * * * * * * * * * //


1058
(
(2.69654e-06 5.88751e-06 3.35837e-06)
(3.66662e-06 1.63905e-06 1.0439e-11)
(0.00158578 0.000360868 2.60927e-06)
(0.000872972 0.000198174 2.87735e-06)
(-4.68713e-07 1.75395e-06 0.000499827)
(1.52889e-06 3.83491e-06 0.000499827)
(0.000987896 9.14622e-07 -2.50194e-06)
(-4.97804e-07 1.77223e-06 0.000499827)
(-1.88083e-06 -3.37529e-06 7.98907e-06)
(1.48092e-06 1.01261e-06 1.70652e-06)
(5.83595e-08 2.05202e-08 3.80318e-11)
(5.55639e-08 3.81802e-07 4.67855e-11)
(0.000987896 9.14622e-07 -2.21359e-06)
(5.13904e-07 1.75601e-06 0.000282259)
(4.42569e-06 1.11624e-06 1.46512e-06)
(5.60908e-08 2.70036e-08 3.09268e-11)
(3.61947e-06 1.22056e-06 1.0439e-11)
(3.46605e-07 3.25911e-06 -2.74846e-07)
(1.54113e-06 5.73956e-06 6.10425e-07)
(-2.8942e-07 3.56076e-06 0.0004557)
(-5.23021e-07 5.63588e-06 -1.0271e-06)
(0.000987896 9.14622e-07 -1.2574e-06)
(1.66444e-06 6.75553e-06 2.08587e-06)
(1.59366e-06 -2.3455e-06 5.64584e-06)
(6.62451e-07 9.15717e-07 4.90359e-07)
(2.99141e-07 -1.80578e-06 1.01303e-05)
(1.47888e-06 1.01585e-06 1.70652e-06)
(-9.70142e-07 4.08647e-06 6.10425e-07)
(3.46605e-07 3.25911e-06 -3.4361e-07)
(3.09967e-06 5.07158e-07 2.31654e-06)
(0.000470642 0.00206267 -2.38568e-07)
(1.59366e-06 3.00925e-06 7.21373e-06)
(-5.72106e-07 5.64141e-06 -1.0271e-06)
(-5.53521e-07 5.63931e-06 -1.0271e-06)
(2.31226e-06 -7.26163e-08 1.01303e-05)
(0.000872972 0.000198174 2.37766e-06)
(0.000978329 -8.39903e-05 -1.66352e-07)
(-5.47441e-07 3.8071e-07 0.0004557)
(3.46605e-07 3.25911e-06 -3.39232e-07)
(-9.03278e-07 -3.71735e-06 1.35431e-05)
(0.000987896 9.14622e-07 -2.38764e-06)
(0.000249113 8.06746e-12 3.38269e-05)
(-4.15319e-07 1.7204e-06 0.000499827)
(5.56967e-07 1.94468e-06 0.000282259)
(-9.43883e-07 3.39579e-06 1.84163e-09)
(6.62451e-07 9.15717e-07 7.26895e-08)
(-2.73089e-07 3.64849e-06 6.10425e-07)
(3.46605e-07 3.25911e-06 -3.25351e-07)
(-2.47982e-06 -1.53798e-06 1.14964e-05)
(-9.03278e-07 -3.71735e-06 1.28925e-05)
(5.60908e-08 2.70036e-08 3.03195e-11)
(-2.8942e-07 3.30008e-06 0.0004557)
(-2.8942e-07 2.89591e-06 0.0004557)
(-5.47452e-07 5.63863e-06 -1.0271e-06)
(3.46605e-07 3.25911e-06 -4.20736e-07)
(1.30838e-06 -1.12769e-06 6.1694e-06)
(1.74179e-06 3.61687e-06 1.70881e-09)
(5.47229e-07 1.90201e-06 0.000282259)
(-2.07707e-07 1.2048e-06 2.25257e-06)
(-1.11286e-06 2.28503e-07 6.10425e-07)
(-9.1556e-07 6.38197e-07 6.10425e-07)
(-5.60512e-07 1.25041e-06 0.000282259)
(2.95508e-07 1.27376e-06 8.66241e-06)
(0.000246371 2.43309e-05 0.000138945)
(4.40487e-07 5.52731e-06 -3.64864e-06)
(5.80177e-08 3.90785e-07 0.0004557)
(-9.03278e-07 -3.71735e-06 1.39614e-05)
(0.000987896 9.14622e-07 2.1564e-06)
(7.71274e-06 3.01463e-06 6.69137e-06)
(2.92148e-06 1.01641e-06 1.17446e-06)
(0.000872972 0.000198174 2.34939e-06)
(7.26779e-07 -1.76984e-06 6.69137e-06)
(2.95508e-07 1.27376e-06 6.80245e-05)
(-3.58095e-06 -4.49033e-06 1.91137e-06)
(3.89594e-06 7.3915e-06 1.68823e-06)
(0.00033107 0.000957544 -2.38568e-07)
(1.63641e-06 3.39805e-06 1.70881e-09)
(1.72164e-06 3.57503e-06 1.70881e-09)
(-2.42227e-06 2.09808e-06 1.14964e-05)
(-2.65588e-06 2.46703e-08 2.05276e-05)
(0.000987896 9.14622e-07 -2.37546e-06)
(-6.41014e-07 9.71948e-08 6.53575e-06)
(-9.43883e-07 3.13002e-06 1.84163e-09)
(-9.03278e-07 -3.71735e-06 1.34352e-05)
(4.15189e-07 5.21188e-07 2.17222e-09)
(4.40487e-07 3.85691e-06 -1.0271e-06)
(3.16388e-07 1.38619e-06 1.65777e-06)
(-1.00079e-07 1.14202e-07 1.33977e-11)
(-6.23743e-07 3.86429e-07 8.91833e-06)
(1.29776e-06 1.23746e-06 1.70652e-06)
(-9.03278e-07 -3.71735e-06 1.3445e-05)
(2.28213e-07 5.04311e-07 0.000282259)
(-9.03278e-07 -3.71735e-06 1.36348e-05)
(7.31605e-08 -1.68975e-06 7.98907e-06)
(-9.03278e-07 -3.71735e-06 1.39409e-05)
(-9.53377e-08 1.17984e-07 3.31634e-11)
(-1.00079e-07 1.14202e-07 1.43835e-11)
(1.34802e-06 2.9087e-06 6.10425e-07)
(-9.43883e-07 3.30603e-06 1.84163e-09)
(-9.03278e-07 -3.71735e-06 1.37001e-05)
(1.98155e-09 -6.73463e-10 1.45313e-06)
(-6.41014e-07 9.71948e-08 6.55668e-06)
(0.000879842 0.000137203 2.60927e-06)
(0.000578929 0.000131061 2.60927e-06)
(0.000978116 -8.58834e-05 -1.66352e-07)
(8.15051e-07 4.23185e-06 6.10425e-07)
(-2.8942e-07 3.04953e-06 0.0004557)
(4.40487e-07 5.52731e-06 1.0684e-06)
(4.40487e-07 3.71781e-06 -1.0271e-06)
(2.95508e-07 1.27376e-06 2.38448e-05)
(3.46605e-07 3.25911e-06 1.20054e-06)
(8.15129e-07 3.09516e-06 6.10425e-07)
(9.80138e-06 4.35975e-05 -2.38568e-07)
(-2.8942e-07 3.02204e-06 0.0004557)
(-1.51239e-06 1.35381e-06 6.58545e-07)
(1.20729e-06 5.61371e-06 -1.0271e-06)
(2.69654e-06 5.88751e-06 -1.57668e-07)
(0.000226736 0.000994052 1.6382e-06)
(1.59366e-06 -2.3455e-06 8.48591e-06)
(0.000882175 0.000116499 2.60927e-06)
(0.000246258 2.53393e-05 0.000138945)
(-1.00079e-07 1.14202e-07 1.41499e-11)
(6.3708e-06 8.88973e-06 6.1694e-06)
(0.000226736 0.000994052 1.67941e-06)
(1.59366e-06 2.94971e-06 7.21373e-06)
(0.000334558 9.14622e-07 -1.66352e-07)
(1.59366e-06 2.07199e-06 7.21373e-06)
(-9.43883e-07 3.71492e-06 1.84163e-09)
(0.000120596 0.00100601 -2.38568e-07)
(-2.8942e-07 3.56761e-06 0.0004557)
(-6.57964e-07 3.17058e-07 5.52106e-06)
(3.15606e-06 6.67971e-09 1.17446e-06)
(1.41043e-06 1.12479e-06 2.83743e-08)
(-6.41014e-07 9.71948e-08 6.52289e-06)
(4.40487e-07 5.52731e-06 2.26709e-06)
(6.70501e-07 8.09789e-07 2.16638e-06)
(1.7459e-06 2.76947e-06 6.10425e-07)
(1.37551e-06 -1.09693e-06 1.07994e-10)
(3.16079e-05 0.000139138 -2.38568e-07)
(-0.00127438 -0.000129058 3.20411e-06)
(7.4404e-06 2.88348e-06 6.69137e-06)
(-2.46187e-06 1.19175e-06 6.58545e-07)
(0.000841715 0.000287501 2.60927e-06)
(4.40487e-07 4.52037e-06 -1.0271e-06)
(-0.00109283 0.000405727 1.22165e-06)
(4.17247e-06 1.51923e-06 8.15732e-07)
(3.74461e-07 1.14506e-06 5.43326e-05)
(-9.03278e-07 -3.71735e-06 1.3473e-05)
(0.000882966 0.000109478 2.60927e-06)
(-5.34052e-07 3.79202e-07 0.0004557)
(4.40487e-07 5.52731e-06 1.5899e-06)
(6.82794e-07 8.29354e-07 2.16638e-06)
(0.000226736 0.000994052 -1.09747e-06)
(0.000226736 0.000994052 -7.54799e-07)
(1.59366e-06 2.86691e-06 7.21373e-06)
(0.000226736 0.000994052 1.42331e-06)
(7.00228e-07 8.57099e-07 2.16638e-06)
(-6.23743e-07 3.86429e-07 8.94048e-06)
(4.17025e-08 -6.79548e-07 8.40441e-06)
(0.000872972 0.000198174 2.39625e-06)
(1.42671e-06 7.68156e-06 -7.55771e-09)
(-2.07707e-07 1.2048e-06 1.82296e-05)
(4.40487e-07 5.52731e-06 2.12352e-06)
(3.74461e-07 1.14506e-06 5.65481e-06)
(-2.07707e-07 1.2048e-06 1.99293e-05)
(-2.52581e-06 1.98199e-06 6.1694e-06)
(1.56007e-06 -1.95628e-06 7.05685e-12)
(0.000840184 0.000291877 2.60927e-06)
(-2.41564e-06 2.15691e-06 1.14964e-05)
(-6.25022e-07 -2.67092e-07 1.08517e-06)
(4.17025e-08 -6.79548e-07 8.4129e-06)
(-2.65588e-06 2.46703e-08 1.95268e-05)
(-5.30335e-07 5.6367e-06 -1.0271e-06)
(2.08548e-06 -2.34809e-06 -3.56357e-07)
(0.000226736 0.000994052 1.16877e-06)
(1.08877e-06 2.90428e-06 -9.29647e-07)
(1.59366e-06 -2.3455e-06 8.52136e-06)
(0.000977341 -9.27656e-05 -1.66352e-07)
(-1.81252e-07 4.09008e-07 1.01303e-05)
(2.79616e-06 -1.72969e-06 5.18149e-09)
(1.87324e-06 2.59824e-07 -9.29647e-07)
(-0.000167216 0.000736233 2.79772e-05)
(-2.8942e-07 2.08108e-06 0.0004557)
(-6.58336e-07 3.17189e-07 5.52106e-06)
(-3.60102e-07 1.58813e-06 -2.12505e-06)
(-9.43883e-07 1.93078e-06 5.03586e-10)
(1.95042e-06 2.6852e-07 -9.29647e-07)
(1.8246e-06 -1.2051e-06 7.80701e-07)
(1.59366e-06 3.03942e-06 7.21373e-06)
(2.09281e-06 -1.49468e-06 -9.29647e-07)
(1.96918e-06 2.70634e-07 -9.29647e-07)
(1.96076e-06 2.69685e-07 -9.29647e-07)
(0.000331853 0.00095727 -2.38568e-07)
(-6.23743e-07 3.86429e-07 2.24437e-06)
(-2.41188e-06 2.19031e-06 1.14964e-05)
(1.74137e-06 -3.01367e-06 1.88854e-07)
(0.000226736 0.000994052 -6.54253e-07)
(-2.65588e-06 2.46703e-08 1.99479e-05)
(1.02821e-06 3.16962e-06 -9.29647e-07)
(0.000246085 -2.68773e-05 0.000138945)
(3.15052e-06 5.58708e-08 1.17446e-06)
(0.000979535 7.51163e-05 -1.66352e-07)
(1.94558e-06 2.67975e-07 -9.29647e-07)
(-6.41014e-07 9.71948e-08 6.52343e-06)
(-6.23743e-07 3.86429e-07 8.53257e-06)
(-0.000187127 -0.000577397 2.23041e-06)
(-2.74094e-08 -1.45139e-09 3.31634e-11)
(-0.00108623 0.000424577 1.22165e-06)
(0.000246114 -2.66154e-05 0.000138945)
(-2.06922e-07 1.60539e-06 -1.09504e-06)
(-5.30671e-07 3.78821e-07 0.0004557)
(1.59366e-06 2.77586e-06 7.21373e-06)
(4.40487e-07 3.59887e-06 -1.0271e-06)
(1.94842e-06 2.68295e-07 -9.29647e-07)
(-3.06785e-07 2.87582e-06 5.52106e-06)
(-5.74085e-07 5.64163e-06 -1.0271e-06)
(-7.65799e-07 -9.30066e-07 0.000499827)
(1.36607e-06 5.6316e-06 -1.0271e-06)
(2.2576e-07 -2.19138e-06 7.21373e-06)
(-2.41771e-06 2.13856e-06 1.14964e-05)
(-0.000135554 -0.000595443 2.98206e-06)
(4.40487e-07 5.52731e-06 1.79441e-06)
(-2.42752e-06 2.05145e-06 1.14964e-05)
(2.82498e-07 -1.65807e-06 1.01303e-05)
(3.45133e-07 1.41556e-06 1.80459e-06)
(1.59366e-06 1.92067e-06 7.21373e-06)
(2.44981e-06 -4.1221e-08 1.01303e-05)
(-3.25915e-07 3.94087e-06 -7.55771e-09)
(5.67889e-06 2.46703e-08 1.14964e-05)
(3.68776e-06 2.29064e-06 8.15732e-07)
(-0.000276802 -0.000574392 2.20348e-05)
(3.74461e-07 1.14506e-06 4.4515e-06)
(-6.41014e-07 9.71948e-08 6.51067e-06)
(6.42279e-07 3.46886e-06 -2.38568e-07)
(-2.45497e-06 -1.75846e-06 1.14964e-05)
(7.41045e-07 -1.79254e-06 6.69137e-06)
(1.59366e-06 2.60183e-06 7.21373e-06)
(2.08065e-06 -1.2548e-07 1.01303e-05)
(-0.00108557 0.000426483 1.22165e-06)
(-6.23743e-07 3.86429e-07 8.54741e-06)
(-2.07707e-07 1.2048e-06 5.35699e-06)
(5.48852e-06 7.78339e-06 6.1694e-06)
(2.56427e-07 -1.42669e-06 1.01303e-05)
(1.20853e-17 6.68083e-18 1.15909e-18)
(-6.41014e-07 9.71948e-08 6.51048e-06)
(-2.60406e-08 -3.6298e-09 3.31634e-11)
(-0.000135554 -0.000595443 2.9444e-06)
(-7.95944e-06 -3.21622e-05 0.00061132)
(-1.03114e-06 4.1248e-06 6.10425e-07)
(1.59366e-06 -4.69e-06 7.21373e-06)
(-2.42838e-06 -1.9945e-06 1.14964e-05)
(3.1521e-06 4.18621e-08 1.17446e-06)
(0.000110186 -0.00070902 0.000398094)
(8.91391e-08 -3.90544e-07 1.43451e-10)
(-2.98286e-07 2.91306e-06 5.52106e-06)
(-2.45761e-06 -1.73504e-06 1.14964e-05)
(-4.25299e-07 6.55067e-07 6.69137e-06)
(-2.85661e-06 -1.39422e-06 5.45788e-06)
(4.05191e-08 -5.5309e-07 1.83624e-06)
(4.18613e-08 -5.65002e-07 1.83624e-06)
(4.57512e-08 -1.80957e-08 2.71401e-06)
(2.69654e-06 5.88751e-06 -1.88824e-07)
(1.11238e-06 1.68488e-07 8.80087e-07)
(1.81809e-06 -5.69679e-06 2.3127e-12)
(6.19333e-07 2.60516e-06 1.80459e-06)
(2.88187e-06 -5.9843e-06 1.88854e-07)
(4.17025e-08 -6.79548e-07 8.50737e-06)
(6.32272e-06 1.04346e-05 1.68823e-06)
(-8.73585e-07 3.92507e-07 3.3429e-06)
(-1.80445e-06 2.88127e-06 -2.97557e-13)
(-1.2347e-06 3.00958e-06 -2.86281e-09)
(2.85738e-07 -1.68683e-06 1.01303e-05)
(0.000246246 -2.54449e-05 0.000138945)
(-5.21551e-07 1.45637e-06 6.10425e-07)
(-2.72601e-07 6.70068e-07 1.01303e-05)
(-8.73585e-07 3.92507e-07 7.71796e-06)
(7.06146e-08 5.29598e-08 2.71401e-06)
(-3.02149e-07 -2.38299e-07 -1.78864e-06)
(3.82099e-06 -9.80162e-07 -3.56357e-07)
(-2.46812e-07 5.96366e-07 1.01303e-05)
(-0.00127274 0.000146003 3.20411e-06)
(-8.73585e-07 3.92507e-07 7.28617e-06)
(-0.00202088 0.000973895 1.22165e-06)
(5.25293e-08 3.26718e-08 3.80318e-11)
(3.44524e-07 7.13496e-09 1.82628e-06)
(3.94275e-08 -5.43402e-07 1.83624e-06)
(2.69893e-07 1.72225e-07 2.45137e-06)
(-8.73585e-07 3.92507e-07 7.78131e-06)
(-6.41014e-07 9.71948e-08 5.78421e-06)
(-8.83674e-07 -4.41783e-07 -2.97557e-13)
(1.7673e-06 -1.41605e-06 6.1694e-06)
(-1.13031e-06 4.21433e-07 5.52106e-06)
(-2.45871e-06 -1.72526e-06 1.14964e-05)
(5.07067e-08 -6.43507e-07 1.83624e-06)
(5.67851e-07 2.42365e-07 1.83334e-06)
(5.67851e-07 2.42365e-07 1.77921e-06)
(3.23223e-05 -0.000140792 0.000398094)
(-6.09617e-07 -8.461e-07 2.09468e-06)
(2.28829e-07 5.07011e-07 0.000282259)
(1.46935e-07 1.94658e-06 5.50891e-12)
(-0.000176417 -0.000581145 2.23041e-06)
(8.154e-07 -2.09128e-06 2.18674e-05)
(-9.03278e-07 -3.71735e-06 1.08679e-05)
(2.00893e-06 -8.80167e-06 2.3127e-12)
(0.000987896 9.14622e-07 1.63015e-06)
(6.55723e-07 3.15518e-07 2.1208e-10)
(-3.02149e-07 -2.38299e-07 -1.40943e-06)
(-9.97839e-07 -4.81731e-07 -2.97557e-13)
(-6.41014e-07 9.71948e-08 6.53662e-06)
(2.1955e-06 -1.94461e-06 -9.29647e-07)
(-5.59253e-06 9.21291e-07 4.08076e-06)
(-2.65588e-06 2.46703e-08 1.72107e-05)
(5.38117e-08 -6.71065e-07 1.83624e-06)
(3.09847e-07 7.36647e-07 2.55696e-06)
(1.59366e-06 1.61874e-06 7.21373e-06)
(1.29115e-07 1.78842e-06 5.50891e-12)
(-0.000284558 0.00125034 0.000422022)
(0.000160717 -0.000703326 0.000134053)
(2.26307e-06 2.11426e-07 -1.22008e-06)
(6.38287e-07 2.77338e-06 1.80459e-06)
(-0.00109714 0.000393395 1.22165e-06)
(4.83375e-06 -4.9943e-08 8.15732e-07)
(-0.000724919 0.000426126 3.46411e-12)
(-1.28731e-06 -2.02089e-06 7.21373e-06)
(-0.000111247 0.000742539 0.000422022)
(1.55671e-06 -3.14182e-08 -3.56357e-07)
(2.26307e-06 -4.56671e-06 4.7728e-07)
(-7.99833e-07 3.667e-07 5.52106e-06)
(1.10003e-06 -2.40762e-07 6.58872e-10)
(1.03249e-06 -0.000136661 6.52402e-07)
(-1.11429e-06 4.19628e-07 5.52106e-06)
(2.26307e-06 2.11426e-07 -1.47236e-06)
(-4.68354e-06 -4.97197e-06 6.1694e-06)
(-2.48887e-06 -1.4576e-06 1.14964e-05)
(1.59229e-07 -5.64032e-07 1.02827e-06)
(-0.00128906 1.1864e-06 2.3289e-06)
(4.10519e-07 2.095e-07 -2.97557e-13)
(-1.06699e-06 4.14299e-07 5.52106e-06)
(-1.28136e-06 -1.02185e-06 6.96709e-06)
(-2.47514e-06 -1.57948e-06 1.14964e-05)
(-6.41014e-07 9.71948e-08 5.83796e-06)
(-1.1761e-06 2.88788e-06 -2.86281e-09)
(-5.90403e-07 -2.32473e-07 1.75976e-06)
(-9.78274e-07 -4.74885e-07 -2.97557e-13)
(-0.000251653 0.000394327 6.35174e-14)
(-0.000167216 0.000736233 4.28982e-05)
(4.17025e-08 -6.79548e-07 8.64831e-06)
(-6.41014e-07 9.71948e-08 5.812e-06)
(-9.03278e-07 -3.71735e-06 1.32088e-05)
(4.44785e-07 1.93425e-06 2.71401e-06)
(2.23169e-06 -2.10315e-06 -9.29647e-07)
(6.47907e-07 -7.12688e-07 6.1694e-06)
(-1.05302e-06 4.12725e-07 5.52106e-06)
(-2.20622e-07 5.21521e-07 1.01303e-05)
(-2.40552e-06 2.1682e-06 5.45788e-06)
(4.56466e-06 -2.01075e-06 7.21373e-06)
(-3.06865e-05 -0.000131736 0.00061132)
(-3.72074e-08 -3.59011e-08 9.53987e-07)
(-0.000242586 -0.00106013 0.000149067)
(2.76344e-16 1.33941e-16 1.24648e-18)
(-3.6994e-07 2.59912e-06 5.52106e-06)
(-0.000249668 0.000395575 6.35174e-14)
(0.000103684 -0.000709753 0.000398094)
(2.74868e-07 -1.59035e-06 1.01303e-05)
(-7.61506e-06 -8.64798e-06 6.1694e-06)
(-7.20769e-07 -9.15941e-07 2.09468e-06)
(1.15543e-07 -3.81305e-07 4.43318e-10)
(-2.79384e-06 -2.1053e-06 9.19493e-06)
(5.22636e-08 -6.57325e-07 1.83624e-06)
(6.61581e-06 2.46703e-08 1.14964e-05)
(5.43411e-08 -6.75764e-07 1.83624e-06)
(1.25932e-06 -4.64914e-06 4.71098e-07)
(-3.70106e-08 -3.62144e-08 9.53987e-07)
(-0.000293151 0.000368252 9.13955e-07)
(-0.000242586 -0.00106013 0.000200531)
(-1.77861e-06 -2.94103e-07 4.71098e-07)
(-3.58095e-06 -4.49033e-06 1.85747e-06)
(1.40112e-07 -1.437e-06 5.43611e-07)
(1.94377e-07 7.36893e-08 -2.97557e-13)
(-5.76424e-07 1.64265e-06 -1.38482e-09)
(4.45033e-08 1.03747e-06 8.48927e-12)
(3.09847e-07 7.36647e-07 2.52541e-06)
(-5.77805e-06 -6.34445e-06 6.1694e-06)
(-3.62969e-06 -2.4476e-06 6.69137e-06)
(-1.13559e-05 2.46703e-08 1.14964e-05)
(2.26307e-06 2.11426e-07 -2.0223e-06)
(-3.22797e-06 -4.32242e-06 9.19493e-06)
(-0.000886065 -0.000294675 3.99168e-06)
(1.52628e-06 1.01897e-07 -3.56357e-07)
(2.43261e-07 -1.87775e-06 3.05629e-06)
(-0.000288549 -0.00104405 0.00061132)
(-2.25163e-06 -2.29503e-06 1.61127e-05)
(-0.000135554 -0.000595443 3.01092e-06)
(-6.23743e-07 3.86429e-07 2.45853e-06)
(1.28009e-06 9.2924e-07 0.000499827)
(4.17025e-08 -6.79548e-07 4.85949e-06)
(-0.000242586 -0.00106013 0.000237276)
(1.59366e-06 2.49848e-06 7.21373e-06)
(9.40365e-07 -2.8184e-06 -2.97557e-13)
(-0.000293151 0.000368252 5.64979e-07)
(7.25546e-07 -2.37233e-06 -2.97557e-13)
(-0.000269342 -0.000336901 5.66868e-06)
(-9.80327e-07 -2.05548e-06 7.21373e-06)
(4.22539e-09 -1.47991e-09 1.74765e-06)
(4.29968e-07 -2.26536e-06 1.83624e-06)
(-4.07844e-07 6.05181e-07 6.69137e-06)
(1.1223e-06 -1.01077e-06 6.1694e-06)
(1.33855e-06 -5.86459e-06 2.57138e-11)
(-2.47641e-06 -1.56824e-06 1.14964e-05)
(-0.000135554 -0.000595443 2.90749e-06)
(3.33031e-13 2.17598e-13 6.89962e-14)
(1.03249e-06 -0.000185947 6.52402e-07)
(2.57806e-06 -1.04269e-05 4.71098e-07)
(2.26307e-06 -3.77819e-06 4.7728e-07)
(-0.00127682 -0.000107463 3.20411e-06)
(2.72491e-06 -1.10703e-05 4.71098e-07)
(5.74332e-08 -7.03206e-07 1.83624e-06)
(3.05288e-12 -4.73178e-12 9.46271e-12)
(1.14468e-06 -1.43538e-06 1.02223e-09)
(-6.9264e-06 -4.25616e-06 1.81575e-06)
(-3.89642e-08 3.79858e-07 0.0004557)
(2.26307e-06 -4.41768e-06 4.7728e-07)
(2.10222e-06 5.92205e-07 4.71098e-07)
(4.88281e-08 -6.26834e-07 1.83624e-06)
(-0.000269342 -0.000336901 5.34783e-06)
(3.7718e-09 -5.65308e-06 5.39624e-07)
(-0.00105652 0.000509486 -4.83516e-07)
(2.40126e-10 1.02842e-09 8.60724e-12)
(-0.000167216 0.000736233 8.03188e-07)
(6.31049e-07 -1.61749e-06 6.69137e-06)
(2.42482e-06 3.94162e-06 6.1694e-06)
(-1.48906e-06 -1.92786e-07 4.71098e-07)
(-0.00127418 0.000133279 3.20411e-06)
(3.09847e-07 7.36647e-07 2.56541e-06)
(3.09847e-07 7.36647e-07 2.82842e-06)
(1.35424e-06 -6.9251e-07 2.16638e-06)
(1.59366e-06 -5.13873e-06 7.21373e-06)
(-1.16906e-07 -1.83717e-06 4.86074e-06)
(1.33855e-06 -5.86459e-06 2.50047e-11)
(-1.43299e-06 -3.53199e-06 7.98907e-06)
(-0.000183847 -0.000578545 2.23041e-06)
(0.000872972 0.000198174 2.36222e-06)
(2.94028e-06 9.62671e-07 1.17446e-06)
(4.3318e-06 -9.22608e-07 -3.56357e-07)
(-0.00127421 -0.000130577 3.20411e-06)
(-6.25022e-07 -2.67092e-07 1.10748e-06)
(-8.65897e-07 -1.13792e-06 0.000499827)
(8.2633e-07 -2.12251e-06 2.18674e-05)
(7.46798e-17 -8.13437e-17 1.67453e-19)
(2.72331e-06 -5.65503e-06 1.88854e-07)
(-9.53402e-07 -1.06211e-06 2.93789e-06)
(2.77637e-07 -2.95674e-06 5.39624e-07)
(1.30247e-06 5.05025e-07 2.1208e-10)
(-0.000242586 -0.00106013 0.000203215)
(0.000160717 -0.000703326 0.000185381)
(-2.3161e-06 1.10158e-05 4.71098e-07)
(2.26307e-06 -4.05566e-06 4.7728e-07)
(1.59366e-06 -2.3455e-06 5.7193e-06)
(6.62451e-07 9.15717e-07 3.20616e-06)
(-5.55335e-06 5.73601e-07 1.16916e-05)
(-9.53402e-07 -1.06211e-06 7.71232e-07)
(5.34944e-08 3.63435e-07 4.67855e-11)
(2.55441e-06 -1.03233e-05 4.71098e-07)
(-0.000725602 0.000425038 3.46411e-12)
(-7.01449e-07 5.90857e-07 -2.97557e-13)
(-0.000263555 0.00115832 0.000422022)
(1.52052e-07 9.0449e-09 2.7798e-06)
(-2.55999e-06 1.65122e-06 1.82628e-06)
(-0.000240985 -5.50032e-05 3.99168e-06)
(-1.16369e-06 -8.65981e-07 1.01303e-05)
(7.72692e-07 -1.96922e-06 2.18674e-05)
(-7.88513e-06 -8.98664e-06 6.1694e-06)
(-0.00128906 1.1864e-06 2.3413e-06)
(-1.28136e-06 -1.02185e-06 6.39778e-06)
(-0.000252142 0.00039402 6.35174e-14)
(-0.000326272 0.000211488 1.17032e-05)
(-0.000269342 -0.000336901 5.33031e-06)
(-0.000167216 0.000736233 0.000244684)
(6.76639e-07 -5.93917e-06 2.3127e-12)
(-0.00105652 0.000509486 -1.83217e-07)
(-6.37598e-07 1.47491e-06 0.000108825)
(-2.99869e-06 -2.14372e-06 6.69137e-06)
(1.92458e-06 -3.46419e-06 1.75976e-06)
(1.69335e-06 -6.30068e-07 -3.56357e-07)
(9.80506e-05 -3.48779e-05 5.75e-05)
(3.09847e-07 7.36647e-07 2.59592e-06)
(2.81348e-06 -5.84228e-06 1.88854e-07)
(4.81783e-07 1.38437e-06 3.47373e-06)
(-0.00182473 0.000879436 1.22165e-06)
(-0.000288231 -0.000318012 3.35092e-06)
(6.62451e-07 9.15717e-07 2.32358e-06)
(-0.000163341 -0.00106906 0.00061132)
(-2.34205e-05 4.86331e-05 0.000228339)
(-0.000259048 0.000229736 -0.000197191)
(4.42016e-07 1.90968e-06 2.71401e-06)
(-0.000144304 -0.0010712 0.00061132)
(2.25175e-06 2.10151e-07 4.7728e-07)
(-1.65609e-06 -2.51229e-07 4.71098e-07)
(-0.00105652 0.000509486 2.36466e-06)
(-6.56568e-06 -3.86149e-06 6.69137e-06)
(1.59229e-07 -5.64032e-07 1.76563e-05)
(-0.00071758 0.000437805 3.46411e-12)
(-1.16906e-07 -2.50804e-06 3.05629e-06)
(5.54553e-08 -1.36012e-08 -2.97557e-13)
(-0.00127801 -9.68581e-05 3.20411e-06)
(2.55607e-06 -1.03306e-05 4.71098e-07)
(1.59366e-06 -2.3455e-06 5.77042e-06)
(9.72987e-08 -1.22204e-07 3.28086e-11)
(-5.95471e-05 6.31287e-05 4.93836e-05)
(-0.000276802 -0.000574392 9.81744e-05)
(-5.55335e-06 5.73601e-07 1.18176e-05)
(-0.00010111 -0.000209563 0.000353014)
(7.24908e-07 1.47004e-06 1.82628e-06)
(1.10045e-06 -2.38879e-07 6.58872e-10)
(2.92288e-13 3.34035e-13 6.89962e-14)
(-6.41014e-07 9.71948e-08 5.93789e-06)
(-0.000251333 0.000394529 6.35174e-14)
(-0.000146081 4.99408e-05 1.56151e-05)
(4.45033e-08 1.03747e-06 2.60792e-12)
(-0.000195084 0.000358862 0.000228339)
(6.62451e-07 9.15717e-07 3.52081e-06)
(1.40112e-07 -1.437e-06 4.99307e-07)
(-0.000337196 0.000114533 0.00020985)
(-3.58095e-06 -4.49033e-06 1.91504e-06)
(-0.000269342 -0.000336901 5.72686e-06)
(5.54699e-13 -7.80325e-12 8.01994e-12)
(8.43545e-17 -9.10184e-17 1.67453e-19)
(-0.000259587 0.000229197 -0.000197191)
(-3.02149e-07 -2.38299e-07 1.7343e-06)
(1.77443e-06 -2.77635e-07 6.58872e-10)
(-4.34885e-06 5.45328e-06 4.93836e-05)
(3.09847e-07 7.36647e-07 2.64632e-06)
(6.39644e-10 -9.50516e-10 5.26589e-07)
(-8.73585e-07 3.92507e-07 4.14681e-06)
(-6.82503e-06 -3.98639e-06 6.69137e-06)
(-1.90446e-06 -3.36702e-06 7.98907e-06)
(7.95746e-06 3.13248e-06 6.69137e-06)
(-1.53264e-06 -2.08033e-07 4.71098e-07)
(6.62451e-07 9.15717e-07 5.41236e-07)
(6.41401e-10 -9.49412e-10 5.26589e-07)
(-0.000167216 0.000736233 0.000206426)
(4.01539e-06 -1.09119e-07 2.71401e-06)
(-1.35797e-06 -9.10324e-07 1.01303e-05)
(-0.00105652 0.000509486 2.74997e-06)
(-0.000916017 -0.000209075 5.00097e-06)
(1.98111e-07 -3.90757e-07 7.00054e-07)
(-0.000146081 4.99408e-05 4.80298e-05)
(-0.000256397 0.000232387 -0.000197191)
(3.44992e-17 1.74748e-17 1.15909e-18)
(-4.51724e-06 -2.87502e-06 6.69137e-06)
(-0.00107479 0.000457271 1.22165e-06)
(-0.000167435 -3.8216e-05 3.99168e-06)
(-4.33353e-10 4.58083e-12 1.36378e-06)
(3.09847e-07 7.36647e-07 2.84733e-06)
(-0.000227103 0.000715278 0.000422022)
(1.96195e-06 -7.72755e-06 4.71098e-07)
(-0.00105652 0.000509486 2.19924e-06)
(-0.000269342 -0.000336901 5.25037e-06)
(-0.000323797 -0.000544863 0.000353014)
(-0.000191128 -0.000575997 2.23041e-06)
(-3.69421e-10 -4.114e-10 4.24963e-07)
(-0.000762487 0.000366337 -2.14258e-06)
(-1.12146e-14 -3.54352e-15 1.3792e-17)
(9.78751e-05 -3.53792e-05 5.75e-05)
(3.71481e-06 -2.10651e-06 7.21373e-06)
(1.12823e-06 4.82462e-07 4.71098e-07)
(1.52052e-07 9.0449e-09 2.84824e-06)
(-6.7692e-06 -7.58731e-06 6.1694e-06)
(6.62451e-07 9.15717e-07 3.44685e-06)
(6.62451e-07 9.15717e-07 3.6004e-06)
(-1.84925e-17 1.63453e-15 1.50299e-13)
(-0.0012746 0.000129482 3.20411e-06)
(2.26307e-06 2.11426e-07 -3.80251e-07)
(-0.00033394 -0.000538489 0.000353014)
(-1.81949e-06 1.58217e-06 5.45788e-06)
(-1.02082e-05 5.73601e-07 4.08076e-06)
(-1.77291e-06 1.8013e-06 2.16638e-06)
(1.44281e-13 7.57013e-13 1.35966e-13)
(-0.000293151 0.000368252 8.98158e-07)
(-1.57049e-06 1.65832e-06 6.51986e-07)
(-2.27023e-06 1.67231e-06 2.09468e-06)
(1.59366e-06 -2.3455e-06 6.163e-06)
(-9.97837e-07 1.18321e-06 2.16638e-06)
(-0.00127491 0.000126765 3.20411e-06)
(-0.000916017 -0.000209075 5.14431e-06)
(-1.12333e-06 -7.01711e-07 5.52106e-06)
(-6.89629e-07 -7.71898e-07 0.000499827)
(-0.000326272 0.000211488 5.15683e-05)
(-0.000163729 7.79902e-05 3.46411e-12)
(-0.000314652 -0.000550609 0.000353014)
(-5.71311e-05 4.50341e-05 -0.000197191)
(6.74153e-18 3.04297e-18 1.83807e-19)
(4.59658e-08 -6.01431e-07 1.83624e-06)
(-3.35996e-09 1.47243e-08 5.5039e-06)
(-1.97766e-06 1.42906e-06 1.75976e-06)
(-1.34805e-07 1.29621e-06 0.000108825)
(-0.000779347 0.000318153 3.46411e-12)
(-0.000243686 0.00107127 0.000422022)
(-0.00032522 0.000157309 1.22165e-06)
(2.44133e-06 -4.90447e-07 1.5465e-06)
(1.56007e-06 -1.95628e-06 1.11212e-11)
(-0.000510538 -0.00105975 0.000353014)
(-0.000916017 -0.000209075 4.69882e-06)
(-0.00127869 9.32435e-05 3.20411e-06)
(-7.29075e-08 2.09152e-08 9.53987e-07)
(-4.14058e-08 -2.84563e-07 2.18674e-05)
(1.51868e-06 -3.15359e-06 4.68626e-08)
(1.06966e-16 5.23732e-17 1.15909e-18)
(-0.000203044 0.000893206 0.000422022)
(-8.95843e-06 5.73601e-07 4.08076e-06)
(-3.35996e-09 1.47243e-08 5.80948e-06)
(-0.00128906 1.1864e-06 2.67112e-06)
(-3.21041e-07 -4.18709e-07 2.16638e-06)
(-3.65984e-10 -4.14141e-10 4.24963e-07)
(-1.68172e-07 -4.29458e-08 3.17133e-06)
(2.26307e-06 2.11426e-07 -1.38969e-06)
(-4.33353e-10 4.58083e-12 1.40263e-06)
(-0.000222145 -0.000593517 0.000353014)
(1.0593e-06 -5.24154e-06 2.09468e-06)
(1.59229e-07 -5.64032e-07 4.51429e-07)
(-6.47147e-07 -6.83683e-07 0.000499827)
(9.90937e-07 -9.28228e-07 6.1694e-06)
(-0.000269342 -0.000336901 5.21112e-06)
(-6.25022e-07 -2.67092e-07 1.25673e-06)
(9.54967e-07 -8.44821e-07 6.98039e-10)
(-0.000272221 0.000216563 -2.46749e-05)
(-6.23743e-07 3.86429e-07 2.3712e-06)
(-1.27215e-06 -1.35372e-06 5.52106e-06)
(-1.78771e-06 -2.97286e-07 4.71098e-07)
(-0.000176329 0.000221761 6.35174e-14)
(7.90636e-17 3.89359e-17 1.15909e-18)
(-8.73585e-07 3.92507e-07 3.61198e-06)
(8.85399e-08 -1.04957e-06 -2.97557e-13)
(-3.57838e-05 2.80101e-05 -0.000197191)
(4.41704e-06 -2.02738e-06 7.21373e-06)
(2.60858e-16 1.58587e-16 1.15909e-18)
(-2.53521e-14 4.15543e-14 9.88761e-13)
(-0.000116325 0.000146519 6.35174e-14)
(4.58401e-07 -4.48823e-07 1.59497e-10)
(1.47543e-05 -7.10529e-06 5.75e-05)
(-6.25022e-07 -2.67092e-07 2.12533e-06)
(-5.68378e-06 -3.43679e-06 6.69137e-06)
(-0.000251034 -5.72969e-05 3.99168e-06)
(-1.53578e-06 -3.49602e-06 7.98907e-06)
(4.06809e-07 -1.89618e-06 3.05629e-06)
(-0.00199401 0.000960957 1.22165e-06)
(-6.72793e-06 1.39707e-05 0.000228339)
(1.63009e-06 5.39009e-07 4.71098e-07)
(-2.53401e-06 1.10633e-06 1.14964e-05)
(4.51903e-17 -5.18542e-17 6.47393e-20)
(7.89555e-07 -7.12909e-07 6.98039e-10)
(-1.12888e-07 1.32369e-06 0.000108825)
(2.26307e-06 -2.12798e-06 4.7728e-07)
(-0.000792312 0.000281101 3.46411e-12)
(-2.03263e-07 2.28375e-07 1.621e-06)
(-6.87476e-06 -8.62064e-06 5.44951e-07)
(-1.08337e-05 5.73601e-07 4.08076e-06)
(-2.03263e-07 2.28375e-07 1.80728e-06)
(-1.16906e-07 -1.83717e-06 4.7071e-06)
(3.6933e-07 1.26457e-06 2.71401e-06)
(6.54914e-07 -4.38315e-08 6.58872e-10)
(1.2701e-06 -2.63738e-06 1.67699e-09)
(-2.12655e-05 -4.85373e-06 3.99168e-06)
(1.14149e-07 3.68203e-07 5.74097e-06)
(2.41222e-06 -9.70032e-06 4.71098e-07)
(2.69893e-07 1.72225e-07 2.0492e-06)
(-4.25037e-07 4.50149e-07 9.53987e-07)
(1.59229e-07 -5.64032e-07 7.70967e-06)
(9.72987e-08 -1.22204e-07 1.52646e-11)
(-1.7356e-06 1.49828e-06 5.45788e-06)
(-0.000298015 -0.000308228 3.35092e-06)
(-4.80875e-07 -7.65206e-07 2.09468e-06)
(2.30242e-08 -2.60216e-07 3.52375e-06)
(0.000160717 -0.000703326 9.53418e-05)
(6.62451e-07 9.15717e-07 3.29983e-06)
(6.62451e-07 9.15717e-07 3.13044e-06)
(-0.000246408 0.000242376 -0.000197191)
(-1.3618e-06 -1.20502e-06 2.09468e-06)
(-0.000291388 0.00018606 -0.000197191)
(1.03249e-06 -0.000255158 6.52402e-07)
(-4.34908e-07 -7.36323e-07 2.09468e-06)
(-4.18836e-05 -3.31539e-05 8.34958e-05)
(-0.000341993 7.19633e-05 0.00020985)
(1.29824e-06 -5.73769e-06 2.09468e-06)
(0.000247156 1.73678e-05 0.000138945)
(-1.09237e-05 2.46703e-08 1.14964e-05)
(3.05113e-08 -6.2724e-07 7.00054e-07)
(-3.86872e-05 -3.57029e-05 8.34958e-05)
(-6.6641e-14 2.39391e-12 9.88761e-13)
(4.36446e-07 -2.28388e-06 1.83624e-06)
(6.48002e-10 -9.45264e-10 5.26589e-07)
(-0.000159301 -0.00106951 0.00061132)
(-6.36974e-06 -7.0864e-06 6.1694e-06)
(-2.77428e-06 -1.32857e-06 5.45788e-06)
(-4.85115e-05 3.81601e-05 -0.000197191)
(-0.000276802 -0.000574392 0.000106461)
(1.59366e-06 -2.3455e-06 5.74342e-06)
(-3.02149e-07 -2.38299e-07 1.77694e-06)
(-9.53402e-07 -1.06211e-06 3.62348e-06)
(9.71299e-05 -3.75089e-05 5.75e-05)
(-3.3244e-07 -4.30108e-07 2.16638e-06)
(-2.65588e-06 2.46703e-08 5.65428e-06)
(-0.000216783 -0.000595393 0.000353014)
(-0.000318619 0.000342785 6.35174e-14)
(-1.12348e-05 2.46703e-08 1.14964e-05)
(-3.35996e-09 1.47243e-08 4.94692e-06)
(-2.02068e-06 1.01458e-05 2.58188e-07)
(-0.000272895 -0.00104952 0.00061132)
(1.6856e-07 -1.6877e-07 1.84725e-06)
(-0.000235364 -0.000358251 3.35092e-06)
(-0.00010547 0.000132907 6.35174e-14)
(3.97765e-07 -2.17333e-06 1.83624e-06)
(-0.000922406 -0.000152373 3.99168e-06)
(-6.25022e-07 -2.67092e-07 2.14719e-06)
(5.88215e-07 1.31657e-07 8.80087e-07)
(-0.0007154 0.000441275 3.46411e-12)
(-0.00101152 0.000581109 1.22165e-06)
(-0.000326272 0.000211488 0.000157331)
(4.17025e-08 -6.79548e-07 4.77638e-06)
(-0.000272221 0.000216563 -2.97259e-05)
(-2.02865e-07 -2.62062e-06 2.09468e-06)
(-8.73585e-07 3.92507e-07 3.25204e-06)
(7.25151e-17 -7.91789e-17 1.67453e-19)
(1.32168e-17 -9.68722e-19 1.67453e-19)
(-0.00127796 9.97058e-05 3.20411e-06)
(4.49194e-08 -3.95526e-07 4.43318e-10)
(9.28905e-08 -3.53938e-07 1.38588e-06)
(5.34277e-08 -5.42866e-08 9.2968e-07)
(-1.60408e-06 -5.17257e-06 7.98907e-06)
(-2.87076e-06 1.72215e-06 1.82628e-06)
(1.77887e-06 -3.28148e-06 1.75976e-06)
(-5.204e-06 -6.52557e-06 5.44951e-07)
(-0.000762487 0.000366337 1.9155e-06)
(-2.50803e-07 -2.95892e-06 5.39624e-07)
(5.15245e-08 -6.50765e-07 1.83624e-06)
(2.19421e-07 -1.36812e-07 1.84725e-06)
(-1.43715e-06 -1.23139e-06 2.09468e-06)
(-0.000137009 -0.00107202 0.00061132)
(1.14149e-07 3.68203e-07 5.15282e-06)
(-0.0012802 7.97747e-05 3.20411e-06)
(-1.34669e-06 -1.19973e-06 2.09468e-06)
(-6.41014e-07 9.71948e-08 5.89389e-06)
(-3.35996e-09 1.47243e-08 5.67879e-06)
(-5.02449e-08 2.41954e-08 1.89808e-06)
(-0.000198146 -0.00106514 0.00061132)
(-3.17012e-06 -4.20229e-06 9.19493e-06)
(-3.44791e-06 1.85388e-06 1.82628e-06)
(-5.96294e-05 6.30464e-05 4.93836e-05)
(9.21318e-07 -8.17986e-07 6.98039e-10)
(-3.43187e-06 -4.74582e-06 9.19493e-06)
(-1.66151e-06 -2.53126e-07 4.71098e-07)
(4.52274e-06 -2.01547e-06 7.21373e-06)
(-4.43443e-06 -5.56056e-06 5.44951e-07)
(-0.000467032 -0.00204349 0.00061132)