/*--------------------------------*- C++ -*----------------------------------*\
| =========                 |                                                 |
| \\      /  F ield         | OpenFOAM: The Open Source CFD Toolbox           |
|  \\    /   O peration     | Version:  plus.master.MPPICInterFoam            |
|   \\  /    A nd           | Web:      www.OpenFOAM.com                      |
|    \\/     M anipulation  |                                                 |
\*---------------------------------------------------------------------------*/
FoamFile
{
    version     2.0;
    format      ascii;
    class       volScalarField;
    location    "4.8";
    object      p;
}
// * * * * * * * * * * * * * * * * * * * * * * * * * * * * * * * * * * * * * //

dimensions      [1 -1 -2 0 0 0 0];

internalField   nonuniform List<scalar> 
11821
(
5652.17
5654.81
5655.93
5656.47
5655.77
5654.32
5651.57
5654.92
5669.14
5665.49
5665.18
5664.82
5668.07
5653.64
5655.98
5665.22
5667.91
5664.07
5667.18
5664.5
5654.14
5656.78
5665.6
5665.02
5666.99
5663.54
5664.32
5654.18
5655.86
5665.23
5667.59
5664.28
5666.79
5664.36
5654.14
5654.69
5668.86
5665.14
5665.01
5664.52
5667.59
5653.69
5652.09
5654.15
5654.65
5654.88
5654.48
5653.81
5651.47
5517.49
5519.08
5520.45
5520.76
5520.08
5518.54
5516.92
5519.19
5523.66
5525.79
5526.73
5525.4
5522.12
5518.43
5520.59
5525.56
5537.49
5539.39
5537.41
5524.57
5519.49
5521.1
5526.26
5537.67
5550.12
5542.03
5526.56
5519.81
5520.65
5525.66
5537.87
5541.98
5537.9
5524.78
5519.64
5519.38
5523.47
5525.99
5528.09
5525.71
5522.4
5518.7
5517.84
5519.52
5520.87
5521.34
5520.56
5519.02
5517.31
5375.99
5375.36
5374.74
5374.18
5374.25
5374.97
5375.69
5375.59
5374.61
5373.15
5372.22
5372.56
5374.07
5375.32
5375.34
5373.62
5376.94
5380.08
5379.05
5373
5374.97
5375.32
5373.05
5376.31
5388.96
5384.65
5374.95
5375.17
5375.76
5374.3
5378.66
5383.69
5380.11
5374.16
5375.62
5376.48
5376.07
5375.5
5376.41
5375.41
5375.9
5376.39
5377.07
5376.94
5376.95
5377.16
5376.8
5376.76
5376.91
5231.19
5227.95
5224.7
5222.69
5224.58
5228.13
5231.46
5228.4
5222.61
5215.69
5213.35
5216.28
5223.35
5229.16
5226.03
5217.15
5216.42
5220.47
5220.76
5218.28
5227.19
5225.45
5215.77
5216.15
5226.74
5226.39
5218.66
5226.92
5227.21
5219.57
5217.81
5222.54
5220.87
5220.45
5228.25
5230.13
5225.83
5221.03
5219.53
5221.22
5226.35
5230.78
5233.02
5230.76
5228.92
5228.54
5229.03
5230.97
5233.32
5084.28
5080.57
5076.69
5074.87
5077.37
5081.36
5085.07
5080.88
5074
5066.52
5066.22
5068.15
5075.64
5082.32
5077.85
5067.82
5069.73
5075.3
5072.32
5069.43
5079.95
5076.81
5065.65
5068.63
5076.76
5076.43
5067.95
5079.44
5079.27
5070.77
5067.36
5071.41
5069.47
5072.18
5080.94
5082.65
5077.59
5072.18
5069.24
5072.71
5078.58
5083.73
5085.88
5083.24
5081.04
5080.34
5081.37
5083.78
5086.54
5649.74
5648.47
5647.28
5646.27
5645.42
5644.72
5644.16
5643.7
5650.79
5649.29
5647.83
5646.6
5645.6
5644.82
5644.2
5643.7
5651.54
5650.14
5648.24
5646.83
5645.71
5644.87
5644.21
5643.66
5651.77
5650.38
5648.37
5646.94
5645.78
5644.9
5644.24
5643.68
5651.65
5650.18
5648.31
5646.93
5645.8
5644.95
5644.32
5643.79
5650.92
5649.39
5647.97
5646.75
5645.78
5645.01
5644.4
5643.91
5649.73
5648.55
5647.44
5646.44
5645.63
5644.96
5644.42
5643.98
5515.74
5514.86
5514.14
5513.57
5513.13
5512.79
5512.53
5512.35
5516.61
5515.39
5514.46
5513.77
5513.25
5512.86
5512.58
5512.39
5517.33
5515.85
5514.74
5513.93
5513.35
5512.93
5512.63
5512.42
5517.68
5516.12
5514.92
5514.06
5513.45
5513.01
5512.7
5512.49
5517.49
5516.01
5514.89
5514.09
5513.5
5513.07
5512.77
5512.57
5516.9
5515.67
5514.75
5514.05
5513.53
5513.15
5512.86
5512.66
5516.11
5515.23
5514.53
5513.96
5513.52
5513.19
5512.93
5512.74
5376.27
5376.63
5377
5377.35
5377.67
5377.97
5378.27
5378.59
5376.03
5376.51
5376.91
5377.29
5377.64
5377.96
5378.29
5378.64
5375.99
5376.49
5376.88
5377.27
5377.63
5377.97
5378.31
5378.68
5376.29
5376.77
5377.07
5377.4
5377.74
5378.07
5378.41
5378.77
5376.46
5376.87
5377.22
5377.56
5377.88
5378.2
5378.51
5378.86
5376.86
5377.22
5377.54
5377.84
5378.12
5378.4
5378.68
5379
5377.28
5377.55
5377.82
5378.08
5378.33
5378.57
5378.82
5379.1
5233.81
5235.49
5237.1
5238.61
5240.11
5241.67
5243.39
5245.28
5232.53
5234.74
5236.59
5238.24
5239.83
5241.48
5243.3
5245.34
5231.65
5234.19
5236.18
5237.95
5239.63
5241.35
5243.24
5245.38
5231.91
5234.48
5236.37
5238.09
5239.75
5241.45
5243.35
5245.5
5232.33
5234.75
5236.66
5238.36
5239.98
5241.65
5243.52
5245.64
5233.73
5235.75
5237.45
5238.99
5240.49
5242.08
5243.86
5245.87
5235.35
5236.87
5238.32
5239.7
5241.1
5242.59
5244.25
5246.11
5087.59
5089.24
5090.62
5091.72
5092.49
5092.69
5092.2
5092.64
5086.17
5088.49
5090.21
5091.52
5092.44
5092.73
5092.18
5092.51
5084.96
5087.78
5089.79
5091.3
5092.34
5092.68
5092.11
5092.37
5085.18
5088.01
5089.95
5091.44
5092.47
5092.79
5092.18
5092.42
5085.52
5088.21
5090.13
5091.55
5092.52
5092.8
5092.19
5092.44
5087.1
5089.24
5090.79
5091.96
5092.76
5092.95
5092.32
5092.61
5088.77
5090.24
5091.42
5092.35
5092.97
5093.03
5092.41
5092.79
5650.41
5649.08
5647.86
5646.82
5645.98
5645.29
5644.72
5644.25
5651.85
5650.01
5648.4
5647.09
5646.05
5645.2
5644.5
5643.97
5652.88
5650.76
5648.84
5647.47
5646.35
5645.41
5644.65
5644.05
5653.29
5650.98
5649.08
5647.63
5646.51
5645.61
5644.88
5644.29
5652.93
5650.86
5648.92
5647.46
5646.35
5645.43
5644.68
5644.08
5651.84
5649.81
5648.24
5646.95
5645.95
5645.13
5644.39
5643.84
5650.29
5648.93
5647.7
5646.65
5645.79
5645.07
5644.47
5643.99
5516.61
5515.68
5514.93
5514.32
5513.85
5513.47
5513.18
5512.97
5517.5
5516.22
5515.23
5514.48
5513.91
5513.47
5513.15
5512.91
5518.28
5516.69
5515.51
5514.64
5513.99
5513.5
5513.14
5512.87
5518.56
5516.88
5515.61
5514.7
5514.03
5513.54
5513.17
5512.9
5518.19
5516.6
5515.42
5514.54
5513.9
5513.42
5513.06
5512.79
5517.31
5516
5515.01
5514.25
5513.68
5513.25
5512.93
5512.71
5516.28
5515.34
5514.57
5513.96
5513.48
5513.11
5512.82
5512.61
5377.45
5377.71
5377.98
5378.24
5378.48
5378.71
5378.95
5379.22
5376.99
5377.36
5377.68
5377.98
5378.25
5378.52
5378.8
5379.1
5376.6
5377.07
5377.43
5377.76
5378.07
5378.38
5378.69
5379.02
5376.33
5376.89
5377.26
5377.62
5377.95
5378.28
5378.61
5378.96
5376.24
5376.76
5377.16
5377.53
5377.87
5378.21
5378.54
5378.89
5376.31
5376.77
5377.15
5377.51
5377.84
5378.15
5378.46
5378.79
5376.59
5376.92
5377.26
5377.58
5377.88
5378.17
5378.45
5378.75
5235.12
5236.7
5238.2
5239.64
5241.09
5242.62
5244.31
5246.18
5233.25
5235.39
5237.17
5238.8
5240.38
5242.04
5243.87
5245.92
5231.67
5234.33
5236.35
5238.12
5239.81
5241.57
5243.52
5245.69
5230.77
5233.79
5235.93
5237.76
5239.5
5241.31
5243.29
5245.51
5230.95
5233.8
5235.9
5237.73
5239.48
5241.28
5243.25
5245.45
5232.06
5234.4
5236.31
5238.05
5239.72
5241.45
5243.34
5245.41
5233.64
5235.36
5237.01
5238.58
5240.12
5241.73
5243.49
5245.39
5088.16
5089.73
5091.03
5092.05
5092.77
5092.91
5092.36
5092.76
5086.19
5088.46
5090.14
5091.45
5092.39
5092.69
5092.16
5092.5
5084.39
5087.31
5089.33
5090.88
5092
5092.42
5091.93
5092.26
5083.3
5086.72
5088.93
5090.58
5091.79
5092.28
5091.83
5092.21
5083.66
5086.82
5088.98
5090.63
5091.83
5092.32
5091.88
5092.24
5085.11
5087.65
5089.53
5091.01
5092.09
5092.51
5092.08
5092.47
5086.92
5088.69
5090.21
5091.42
5092.31
5092.6
5092.2
5092.67
5650.32
5648.93
5647.69
5646.66
5645.81
5645.11
5644.53
5644.05
5651.84
5649.92
5648.26
5646.88
5645.85
5645.01
5644.32
5643.75
5652.88
5650.8
5648.93
5647.46
5646.27
5645.28
5644.49
5643.86
5653.18
5650.96
5649.07
5647.61
5646.48
5645.58
5644.84
5644.24
5652.62
5650.48
5648.66
5647.22
5646.05
5645.09
5644.32
5643.7
5651.51
5649.69
5648.08
5646.73
5645.67
5644.86
5644.21
5643.64
5649.92
5648.6
5647.42
5646.42
5645.61
5644.94
5644.4
5643.95
5516.26
5515.31
5514.55
5513.93
5513.45
5513.07
5512.78
5512.56
5517.22
5515.92
5514.92
5514.14
5513.55
5513.09
5512.74
5512.48
5518.06
5516.48
5515.31
5514.43
5513.78
5513.28
5512.89
5512.59
5518.27
5516.62
5515.42
5514.53
5513.87
5513.38
5513
5512.71
5517.78
5516.22
5515.08
5514.23
5513.59
5513.1
5512.74
5512.45
5516.8
5515.57
5514.63
5513.9
5513.33
5512.9
5512.58
5512.34
5515.8
5514.92
5514.2
5513.63
5513.18
5512.83
5512.57
5512.37
5376.51
5376.86
5377.2
5377.52
5377.82
5378.1
5378.38
5378.68
5376.08
5376.57
5376.98
5377.34
5377.67
5377.98
5378.28
5378.6
5375.8
5376.43
5376.91
5377.31
5377.66
5377.99
5378.31
5378.64
5375.51
5376.29
5376.84
5377.29
5377.69
5378.07
5378.43
5378.8
5375.49
5376.19
5376.71
5377.13
5377.51
5377.85
5378.18
5378.52
5375.77
5376.32
5376.77
5377.17
5377.52
5377.84
5378.16
5378.49
5376.24
5376.64
5377.01
5377.35
5377.66
5377.96
5378.25
5378.57
5233.5
5235.27
5236.92
5238.47
5240
5241.57
5243.28
5245.15
5231.55
5233.96
5235.9
5237.63
5239.27
5240.94
5242.75
5244.74
5229.96
5233.08
5235.31
5237.17
5238.89
5240.61
5242.44
5244.45
5229.16
5232.79
5235.2
5237.14
5238.93
5240.71
5242.61
5244.67
5229.9
5233.01
5235.23
5237.1
5238.82
5240.53
5242.36
5244.36
5231.6
5233.99
5235.91
5237.63
5239.25
5240.9
5242.69
5244.67
5233.65
5235.41
5237.02
5238.52
5239.99
5241.53
5243.22
5245.07
5086.93
5088.83
5090.37
5091.59
5092.45
5092.73
5092.33
5092.86
5084.76
5087.43
5089.4
5090.94
5092.05
5092.49
5092.16
5092.81
5082.94
5086.42
5088.75
5090.54
5091.89
5092.52
5092.31
5093.36
5082.26
5086.26
5088.7
5090.55
5091.97
5092.66
5092.49
5093.69
5083.29
5086.62
5088.89
5090.65
5091.97
5092.55
5092.31
5093.34
5085.23
5087.79
5089.69
5091.16
5092.21
5092.59
5092.2
5092.84
5087.54
5089.36
5090.79
5091.89
5092.66
5092.86
5092.4
5092.91
5649.88
5648.63
5647.51
5646.54
5645.74
5645.1
5644.58
5644.14
5651.36
5649.75
5648.15
5646.93
5645.96
5645.17
5644.53
5644
5652.36
5650.68
5648.63
5647.26
5646.19
5645.33
5644.63
5644.06
5652.69
5650.99
5648.94
5647.55
5646.45
5645.58
5644.87
5644.3
5652.37
5650.88
5648.86
5647.5
5646.4
5645.53
5644.83
5644.25
5651.58
5650.01
5648.4
5647.15
5646.1
5645.29
5644.66
5644.14
5650.35
5649.06
5647.83
5646.81
5645.97
5645.28
5644.71
5644.24
5516.19
5515.31
5514.61
5514.05
5513.61
5513.27
5513.02
5512.83
5517.24
5516.01
5515.07
5514.36
5513.82
5513.41
5513.1
5512.87
5518.22
5516.67
5515.51
5514.66
5514.03
5513.56
5513.21
5512.95
5518.77
5517.07
5515.79
5514.88
5514.22
5513.73
5513.37
5513.09
5518.44
5516.88
5515.69
5514.83
5514.18
5513.7
5513.34
5513.08
5517.61
5516.33
5515.34
5514.59
5514.02
5513.57
5513.25
5513
5516.62
5515.7
5514.94
5514.35
5513.87
5513.5
5513.22
5513.01
5377.38
5377.65
5377.93
5378.19
5378.44
5378.68
5378.92
5379.2
5377.25
5377.59
5377.88
5378.16
5378.42
5378.68
5378.94
5379.23
5377.36
5377.68
5377.94
5378.21
5378.47
5378.72
5378.99
5379.28
5377.6
5377.86
5378.07
5378.31
5378.55
5378.8
5379.06
5379.35
5377.47
5377.79
5378.06
5378.32
5378.57
5378.82
5379.08
5379.37
5377.41
5377.74
5378.02
5378.28
5378.53
5378.77
5379.02
5379.3
5377.53
5377.79
5378.06
5378.31
5378.56
5378.79
5379.03
5379.29
5235.45
5237
5238.46
5239.85
5241.24
5242.73
5244.4
5246.25
5233.95
5235.99
5237.69
5239.23
5240.74
5242.34
5244.13
5246.15
5232.99
5235.38
5237.23
5238.87
5240.45
5242.12
5243.98
5246.09
5232.78
5235.28
5237.14
5238.78
5240.36
5242.02
5243.89
5245.99
5232.94
5235.38
5237.24
5238.89
5240.48
5242.15
5244.02
5246.13
5233.84
5235.92
5237.64
5239.2
5240.74
5242.35
5244.15
5246.17
5235.24
5236.82
5238.32
5239.76
5241.2
5242.73
5244.42
5246.28
5088.86
5090.38
5091.57
5092.49
5093.12
5093.18
5092.57
5092.95
5087.12
5089.26
5090.82
5092
5092.84
5093.06
5092.47
5092.81
5085.85
5088.42
5090.23
5091.59
5092.56
5092.86
5092.29
5092.7
5085.36
5088.12
5089.99
5091.41
5092.42
5092.76
5092.23
5092.74
5085.63
5088.26
5090.1
5091.49
5092.49
5092.82
5092.27
5092.68
5086.74
5088.94
5090.56
5091.8
5092.69
5092.96
5092.41
5092.76
5088.3
5089.88
5091.17
5092.19
5092.9
5093.03
5092.47
5092.86
5643.33
5643.35
5643.29
5643.28
5643.42
5643.56
5643.62
5512.23
5512.29
5512.32
5512.39
5512.47
5512.56
5512.63
5378.97
5379.04
5379.09
5379.17
5379.26
5379.37
5379.45
5247.09
5247.24
5247.36
5247.5
5247.62
5247.78
5247.9
5097.73
5097.84
5097.9
5098.02
5098
5098.01
5097.93
5643.86
5643.59
5643.63
5643.88
5643.66
5643.48
5643.58
5512.83
5512.78
5512.72
5512.75
5512.64
5512.58
5512.47
5379.54
5379.45
5379.39
5379.35
5379.28
5379.16
5379.1
5247.96
5247.81
5247.69
5247.53
5247.45
5247.32
5247.18
5097.84
5097.84
5097.81
5097.92
5097.77
5097.75
5097.7
5643.66
5643.34
5643.4
5643.8
5643.25
5643.24
5643.57
5512.42
5512.31
5512.39
5512.52
5512.27
5512.19
5512.24
5379.02
5378.94
5378.98
5379.16
5378.87
5378.85
5378.93
5246.93
5246.57
5246.21
5246.44
5246.12
5246.49
5246.86
5097.94
5098.53
5100.18
5100.88
5100.13
5098.56
5098.02
5643.77
5643.62
5643.65
5643.9
5643.82
5643.75
5643.86
5512.71
5512.74
5512.79
5512.92
5512.9
5512.85
5512.87
5379.54
5379.57
5379.61
5379.67
5379.69
5379.62
5379.6
5248.03
5248.03
5248
5247.91
5248.04
5248.05
5248.05
5098.09
5098.22
5098.53
5098.85
5098.5
5098.14
5097.95
5642.8
5642.3
5641.97
5641.77
5641.65
5641.58
5641.53
5641.49
5642.92
5642.42
5642.08
5641.87
5641.74
5641.66
5641.61
5641.56
5642.9
5642.48
5642.13
5641.9
5641.77
5641.7
5641.64
5641.6
5642.86
5642.5
5642.22
5642.02
5641.85
5641.75
5641.69
5641.64
5642.98
5642.58
5642.25
5642
5641.86
5641.78
5641.72
5641.67
5643.09
5642.59
5642.26
5642.05
5641.91
5641.81
5641.75
5641.7
5643.09
5642.59
5642.26
5642.04
5641.9
5641.81
5641.74
5641.69
5512.09
5511.95
5511.84
5511.78
5511.75
5511.75
5511.75
5511.76
5512.17
5512.04
5511.94
5511.88
5511.85
5511.85
5511.85
5511.85
5512.22
5512.1
5512
5511.94
5511.91
5511.9
5511.9
5511.9
5512.29
5512.18
5512.09
5512.03
5511.99
5511.97
5511.96
5511.95
5512.36
5512.23
5512.13
5512.05
5512.01
5511.99
5511.98
5511.97
5512.43
5512.29
5512.17
5512.09
5512.04
5512.02
5512.01
5512
5512.48
5512.32
5512.18
5512.09
5512.04
5512.01
5511.99
5511.98
5379.59
5380.27
5380.81
5381.21
5381.5
5381.7
5381.85
5381.94
5379.67
5380.35
5380.91
5381.32
5381.61
5381.82
5381.96
5382.05
5379.72
5380.4
5380.96
5381.38
5381.67
5381.88
5382.02
5382.1
5379.8
5380.47
5381.03
5381.45
5381.74
5381.94
5382.08
5382.16
5379.87
5380.54
5381.08
5381.49
5381.77
5381.97
5382.1
5382.18
5379.96
5380.61
5381.14
5381.54
5381.81
5382
5382.13
5382.21
5380.02
5380.65
5381.16
5381.54
5381.81
5381.99
5382.11
5382.18
5249.15
5250.06
5250.68
5251.15
5251.51
5251.77
5251.97
5252.11
5249.33
5250.24
5250.86
5251.32
5251.66
5251.92
5252.11
5252.24
5249.46
5250.37
5250.97
5251.42
5251.75
5252
5252.18
5252.3
5249.59
5250.5
5251.09
5251.52
5251.84
5252.08
5252.25
5252.37
5249.7
5250.58
5251.15
5251.57
5251.88
5252.11
5252.27
5252.39
5249.83
5250.68
5251.23
5251.63
5251.93
5252.14
5252.31
5252.42
5249.91
5250.72
5251.24
5251.62
5251.9
5252.11
5252.26
5252.37
5108.53
5115.08
5118.26
5119.99
5121.01
5121.63
5122.03
5122.29
5108.57
5115.16
5118.36
5120.12
5121.15
5121.77
5122.17
5122.42
5108.61
5115.21
5118.42
5120.18
5121.2
5121.83
5122.22
5122.47
5108.7
5115.3
5118.5
5120.26
5121.28
5121.9
5122.29
5122.54
5108.73
5115.34
5118.54
5120.29
5121.3
5121.92
5122.31
5122.55
5108.78
5115.4
5118.6
5120.34
5121.35
5121.97
5122.35
5122.59
5108.79
5115.41
5118.6
5120.32
5121.32
5121.92
5122.3
5122.53
5643.28
5642.73
5642.35
5642.1
5641.92
5641.8
5641.71
5641.64
5643.15
5642.66
5642.29
5642.05
5641.87
5641.74
5641.64
5641.55
5643.08
5642.54
5642.15
5641.88
5641.68
5641.54
5641.41
5641.28
5643.33
5642.77
5642.35
5642.03
5641.77
5641.58
5641.46
5641.35
5643.1
5642.55
5642.16
5641.87
5641.65
5641.49
5641.35
5641.22
5643.01
5642.5
5642.12
5641.88
5641.73
5641.62
5641.52
5641.43
5642.97
5642.43
5642.08
5641.85
5641.69
5641.59
5641.51
5641.45
5512.65
5512.4
5512.21
5512.08
5511.98
5511.93
5511.89
5511.85
5512.62
5512.4
5512.22
5512.09
5511.98
5511.91
5511.85
5511.81
5512.53
5512.32
5512.13
5511.98
5511.85
5511.74
5511.63
5511.54
5512.55
5512.33
5512.16
5512
5511.87
5511.77
5511.69
5511.62
5512.45
5512.23
5512.05
5511.91
5511.78
5511.68
5511.57
5511.48
5512.42
5512.2
5512.03
5511.91
5511.83
5511.76
5511.72
5511.68
5512.28
5512.05
5511.89
5511.78
5511.71
5511.68
5511.66
5511.65
5380.05
5380.68
5381.15
5381.49
5381.72
5381.87
5381.97
5382.02
5379.99
5380.61
5381.1
5381.44
5381.67
5381.82
5381.91
5381.97
5379.97
5380.56
5381.03
5381.36
5381.56
5381.67
5381.71
5381.71
5379.95
5380.54
5381
5381.32
5381.52
5381.63
5381.67
5381.7
5379.87
5380.47
5380.95
5381.28
5381.49
5381.6
5381.65
5381.65
5379.72
5380.38
5380.89
5381.25
5381.49
5381.66
5381.76
5381.83
5379.68
5380.33
5380.83
5381.19
5381.44
5381.61
5381.73
5381.8
5249.94
5250.66
5251.15
5251.5
5251.76
5251.96
5252.1
5252.2
5249.83
5250.6
5251.09
5251.45
5251.71
5251.89
5252.02
5252.11
5249.74
5250.56
5251.07
5251.43
5251.67
5251.83
5251.93
5251.96
5249.65
5250.54
5251.04
5251.4
5251.63
5251.76
5251.84
5251.87
5249.52
5250.37
5250.92
5251.3
5251.57
5251.76
5251.88
5251.93
5249.37
5250.2
5250.76
5251.17
5251.47
5251.69
5251.85
5251.96
5249.19
5250.03
5250.62
5251.06
5251.4
5251.64
5251.83
5251.96
5108.66
5115.28
5118.47
5120.2
5121.2
5121.8
5122.17
5122.39
5108.58
5115.19
5118.39
5120.12
5121.1
5121.68
5122.03
5122.24
5108.51
5115.15
5118.39
5120.14
5121.14
5121.74
5122.08
5122.27
5108.56
5115.18
5118.4
5120.13
5121.11
5121.65
5121.94
5122.08
5108.44
5115.07
5118.3
5120.06
5121.07
5121.68
5122.05
5122.25
5108.44
5115.01
5118.2
5119.93
5120.93
5121.53
5121.89
5122.11
5108.45
5115
5118.17
5119.91
5120.92
5121.54
5121.93
5122.18
5643.06
5642.48
5642.09
5641.82
5641.65
5641.54
5641.47
5641.42
5642.87
5642.38
5641.99
5641.73
5641.51
5641.38
5641.29
5641.23
5642.81
5642.23
5641.83
5641.58
5641.38
5641.23
5641.1
5641
5643.21
5642.59
5642.15
5641.83
5641.58
5641.39
5641.26
5641.18
5642.66
5642.1
5641.74
5641.49
5641.31
5641.18
5641.07
5640.98
5642.74
5642.28
5641.94
5641.66
5641.48
5641.35
5641.26
5641.21
5642.99
5642.43
5642.05
5641.79
5641.62
5641.51
5641.45
5641.4
5512.22
5511.99
5511.82
5511.71
5511.64
5511.61
5511.6
5511.6
5512.1
5511.89
5511.73
5511.62
5511.54
5511.49
5511.47
5511.46
5512.13
5511.87
5511.69
5511.55
5511.45
5511.37
5511.31
5511.25
5512.26
5512
5511.81
5511.68
5511.58
5511.51
5511.45
5511.41
5512.03
5511.79
5511.62
5511.5
5511.4
5511.34
5511.28
5511.24
5511.99
5511.8
5511.68
5511.59
5511.52
5511.48
5511.47
5511.47
5512.07
5511.9
5511.77
5511.69
5511.65
5511.64
5511.64
5511.64
5379.57
5380.21
5380.7
5381.07
5381.33
5381.52
5381.66
5381.75
5379.49
5380.07
5380.52
5380.88
5381.14
5381.34
5381.48
5381.58
5379.51
5380.06
5380.48
5380.8
5381.03
5381.2
5381.33
5381.43
5379.71
5380.26
5380.68
5380.98
5381.18
5381.32
5381.4
5381.45
5379.41
5379.97
5380.4
5380.73
5380.97
5381.15
5381.29
5381.39
5379.42
5380.01
5380.48
5380.85
5381.12
5381.33
5381.48
5381.59
5379.53
5380.17
5380.69
5381.08
5381.36
5381.57
5381.72
5381.82
5248.94
5249.82
5250.44
5250.91
5251.27
5251.55
5251.76
5251.91
5248.65
5249.65
5250.28
5250.73
5251.07
5251.33
5251.53
5251.67
5248.26
5249.42
5250.19
5250.71
5251.09
5251.4
5251.65
5251.85
5248.44
5249.56
5250.24
5250.71
5251.04
5251.28
5251.45
5251.55
5248.18
5249.35
5250.11
5250.63
5251.01
5251.31
5251.56
5251.73
5248.58
5249.6
5250.25
5250.71
5251.06
5251.33
5251.54
5251.7
5248.9
5249.83
5250.48
5250.97
5251.34
5251.62
5251.84
5252
5108.58
5114.99
5118.11
5119.81
5120.81
5121.44
5121.84
5122.1
5108.84
5114.99
5117.97
5119.57
5120.52
5121.13
5121.54
5121.82
5110.12
5115.69
5118.37
5119.78
5120.6
5121.16
5121.6
5121.93
5110.66
5116
5118.54
5119.86
5120.62
5121.1
5121.42
5121.6
5110.08
5115.65
5118.3
5119.67
5120.48
5121.03
5121.48
5121.81
5108.89
5115.02
5117.98
5119.57
5120.52
5121.12
5121.54
5121.83
5108.67
5115.07
5118.18
5119.88
5120.89
5121.52
5121.92
5122.19
5643.22
5642.69
5642.33
5642.09
5641.92
5641.81
5641.73
5641.67
5643.16
5642.66
5642.28
5642.04
5641.86
5641.73
5641.63
5641.55
5643.1
5642.56
5642.18
5641.92
5641.73
5641.58
5641.45
5641.34
5643.37
5642.8
5642.38
5642.07
5641.84
5641.66
5641.53
5641.45
5643.25
5642.68
5642.28
5641.98
5641.77
5641.6
5641.46
5641.34
5643.21
5642.69
5642.33
5642.08
5641.89
5641.76
5641.65
5641.57
5643.29
5642.74
5642.37
5642.11
5641.93
5641.81
5641.72
5641.65
5512.54
5512.36
5512.21
5512.1
5512.03
5511.98
5511.96
5511.93
5512.57
5512.38
5512.21
5512.08
5511.99
5511.91
5511.87
5511.83
5512.59
5512.36
5512.2
5512.04
5511.9
5511.78
5511.69
5511.61
5512.7
5512.44
5512.24
5512.07
5511.94
5511.83
5511.75
5511.7
5512.68
5512.44
5512.25
5512.08
5511.93
5511.8
5511.7
5511.61
5512.66
5512.43
5512.25
5512.11
5512
5511.92
5511.87
5511.83
5512.69
5512.43
5512.24
5512.1
5512
5511.94
5511.9
5511.87
5380.09
5380.7
5381.19
5381.55
5381.79
5381.96
5382.07
5382.13
5380.1
5380.67
5381.13
5381.46
5381.69
5381.84
5381.94
5382
5380.14
5380.67
5381.06
5381.36
5381.54
5381.66
5381.73
5381.76
5380.19
5380.71
5381.09
5381.35
5381.52
5381.63
5381.71
5381.76
5380.21
5380.73
5381.12
5381.4
5381.57
5381.68
5381.74
5381.77
5380.14
5380.7
5381.15
5381.47
5381.68
5381.83
5381.92
5381.97
5380.1
5380.71
5381.18
5381.52
5381.74
5381.89
5381.99
5382.05
5250.02
5250.8
5251.29
5251.65
5251.92
5252.11
5252.25
5252.35
5250.02
5250.77
5251.22
5251.55
5251.78
5251.95
5252.07
5252.16
5250.06
5250.87
5251.32
5251.62
5251.82
5251.97
5252.06
5252.08
5250.03
5250.83
5251.25
5251.5
5251.65
5251.72
5251.79
5251.86
5250.09
5250.89
5251.34
5251.64
5251.84
5252
5252.1
5252.14
5250.01
5250.74
5251.18
5251.5
5251.73
5251.89
5252.02
5252.11
5250
5250.72
5251.2
5251.55
5251.81
5252
5252.14
5252.24
5108.9
5115.49
5118.66
5120.38
5121.37
5121.97
5122.33
5122.56
5108.96
5115.48
5118.6
5120.26
5121.2
5121.75
5122.07
5122.27
5109.16
5115.64
5118.77
5120.44
5121.41
5121.96
5122.26
5122.42
5109.34
5115.74
5118.81
5120.39
5121.2
5121.62
5121.75
5121.88
5109.12
5115.61
5118.75
5120.44
5121.41
5121.99
5122.3
5122.47
5108.88
5115.41
5118.54
5120.21
5121.16
5121.71
5122.04
5122.24
5108.76
5115.35
5118.53
5120.25
5121.25
5121.84
5122.21
5122.43
5641.46
5641.45
5641.43
5641.41
5641.4
5641.39
5641.38
5641.37
5641.53
5641.52
5641.5
5641.48
5641.47
5641.45
5641.44
5641.43
5641.57
5641.55
5641.53
5641.52
5641.5
5641.49
5641.48
5641.47
5641.61
5641.59
5641.57
5641.56
5641.54
5641.53
5641.52
5641.51
5641.64
5641.62
5641.6
5641.58
5641.57
5641.55
5641.54
5641.53
5641.66
5641.64
5641.62
5641.61
5641.59
5641.58
5641.57
5641.56
5641.65
5641.63
5641.61
5641.59
5641.57
5641.56
5641.55
5641.54
5511.76
5511.76
5511.77
5511.77
5511.76
5511.76
5511.75
5511.74
5511.85
5511.85
5511.85
5511.85
5511.85
5511.84
5511.83
5511.82
5511.9
5511.9
5511.9
5511.89
5511.89
5511.88
5511.87
5511.86
5511.95
5511.95
5511.95
5511.94
5511.94
5511.93
5511.92
5511.91
5511.97
5511.97
5511.96
5511.96
5511.95
5511.95
5511.94
5511.93
5511.99
5511.99
5511.99
5511.98
5511.98
5511.97
5511.96
5511.95
5511.97
5511.96
5511.96
5511.96
5511.95
5511.94
5511.94
5511.93
5381.99
5382.03
5382.05
5382.07
5382.08
5382.08
5382.08
5382.07
5382.1
5382.13
5382.15
5382.16
5382.17
5382.17
5382.17
5382.16
5382.15
5382.18
5382.2
5382.21
5382.22
5382.22
5382.21
5382.21
5382.21
5382.23
5382.25
5382.26
5382.27
5382.27
5382.27
5382.26
5382.22
5382.25
5382.27
5382.28
5382.29
5382.29
5382.28
5382.27
5382.25
5382.27
5382.29
5382.3
5382.31
5382.31
5382.3
5382.3
5382.21
5382.24
5382.26
5382.27
5382.27
5382.27
5382.27
5382.26
5252.2
5252.25
5252.3
5252.33
5252.35
5252.36
5252.36
5252.36
5252.32
5252.37
5252.41
5252.44
5252.46
5252.46
5252.47
5252.46
5252.38
5252.43
5252.46
5252.49
5252.5
5252.51
5252.51
5252.51
5252.44
5252.49
5252.52
5252.55
5252.56
5252.57
5252.57
5252.56
5252.46
5252.5
5252.54
5252.56
5252.57
5252.58
5252.58
5252.58
5252.49
5252.53
5252.56
5252.58
5252.6
5252.6
5252.61
5252.6
5252.44
5252.48
5252.51
5252.53
5252.55
5252.55
5252.55
5252.55
5122.43
5122.51
5122.58
5122.62
5122.65
5122.67
5122.68
5122.68
5122.56
5122.64
5122.7
5122.74
5122.77
5122.79
5122.79
5122.79
5122.6
5122.68
5122.74
5122.78
5122.81
5122.83
5122.83
5122.83
5122.67
5122.74
5122.8
5122.84
5122.87
5122.89
5122.89
5122.89
5122.68
5122.75
5122.81
5122.85
5122.88
5122.89
5122.9
5122.9
5122.71
5122.79
5122.84
5122.88
5122.91
5122.92
5122.93
5122.93
5122.65
5122.72
5122.78
5122.82
5122.84
5122.86
5122.86
5122.86
5641.59
5641.56
5641.53
5641.51
5641.48
5641.47
5641.45
5641.44
5641.49
5641.45
5641.42
5641.38
5641.35
5641.33
5641.31
5641.32
5641.21
5641.16
5641.12
5641.09
5641.07
5641.06
5641.07
5641.1
5641.31
5641.28
5641.27
5641.26
5641.25
5641.24
5641.23
5641.27
5641.14
5641.09
5641.05
5641.02
5641
5640.99
5641
5641.03
5641.38
5641.35
5641.32
5641.28
5641.25
5641.23
5641.21
5641.22
5641.42
5641.39
5641.37
5641.35
5641.33
5641.31
5641.29
5641.28
5511.83
5511.82
5511.82
5511.81
5511.8
5511.79
5511.78
5511.77
5511.78
5511.77
5511.76
5511.75
5511.74
5511.74
5511.73
5511.73
5511.48
5511.43
5511.4
5511.37
5511.35
5511.35
5511.36
5511.39
5511.58
5511.56
5511.55
5511.54
5511.54
5511.54
5511.55
5511.58
5511.41
5511.37
5511.33
5511.3
5511.28
5511.28
5511.28
5511.31
5511.66
5511.65
5511.65
5511.64
5511.64
5511.63
5511.63
5511.63
5511.64
5511.63
5511.63
5511.63
5511.63
5511.62
5511.61
5511.6
5382.04
5382.06
5382.07
5382.08
5382.08
5382.08
5382.07
5382.07
5381.99
5382.01
5382.03
5382.04
5382.05
5382.06
5382.06
5382.06
5381.68
5381.64
5381.6
5381.56
5381.53
5381.5
5381.49
5381.5
5381.72
5381.73
5381.74
5381.75
5381.76
5381.77
5381.79
5381.8
5381.63
5381.61
5381.56
5381.53
5381.5
5381.47
5381.46
5381.47
5381.86
5381.89
5381.91
5381.92
5381.94
5381.95
5381.95
5381.95
5381.84
5381.86
5381.88
5381.89
5381.9
5381.9
5381.9
5381.89
5252.26
5252.29
5252.32
5252.34
5252.35
5252.36
5252.36
5252.35
5252.16
5252.2
5252.22
5252.25
5252.26
5252.27
5252.28
5252.27
5251.94
5251.91
5251.87
5251.82
5251.78
5251.76
5251.74
5251.75
5251.89
5251.91
5251.92
5251.93
5251.94
5251.98
5251.95
5251.97
5251.94
5251.93
5251.91
5251.88
5251.85
5251.83
5251.81
5251.82
5252.02
5252.07
5252.1
5252.12
5252.14
5252.15
5252.16
5252.16
5252.04
5252.09
5252.13
5252.15
5252.17
5252.18
5252.18
5252.18
5122.51
5122.58
5122.63
5122.67
5122.69
5122.71
5122.71
5122.71
5122.34
5122.4
5122.44
5122.48
5122.5
5122.51
5122.52
5122.52
5122.33
5122.34
5122.34
5122.33
5122.31
5122.32
5122.34
5122.34
5122.09
5122.12
5122.15
5122.18
5122.2
5122.21
5122.26
5122.24
5122.33
5122.37
5122.4
5122.41
5122.41
5122.42
5122.44
5122.44
5122.22
5122.29
5122.34
5122.37
5122.39
5122.41
5122.42
5122.42
5122.31
5122.39
5122.45
5122.49
5122.52
5122.54
5122.55
5122.55
5641.39
5641.37
5641.35
5641.34
5641.32
5641.3
5641.29
5641.27
5641.2
5641.19
5641.17
5641.16
5641.15
5641.14
5641.13
5641.12
5640.94
5640.9
5640.86
5640.84
5640.81
5640.79
5640.78
5640.81
5641.13
5641.11
5641.1
5641.09
5641.09
5641.03
5641
5641.04
5640.93
5640.9
5640.87
5640.85
5640.83
5640.82
5640.81
5640.83
5641.19
5641.17
5641.16
5641.15
5641.14
5641.14
5641.13
5641.12
5641.38
5641.36
5641.35
5641.34
5641.33
5641.31
5641.3
5641.29
5511.6
5511.61
5511.61
5511.61
5511.61
5511.61
5511.6
5511.59
5511.46
5511.47
5511.47
5511.47
5511.48
5511.47
5511.47
5511.46
5511.21
5511.19
5511.18
5511.17
5511.15
5511.15
5511.14
5511.16
5511.39
5511.38
5511.37
5511.37
5511.35
5511.33
5511.34
5511.36
5511.22
5511.21
5511.2
5511.19
5511.19
5511.18
5511.18
5511.2
5511.47
5511.48
5511.49
5511.49
5511.49
5511.49
5511.49
5511.49
5511.65
5511.66
5511.67
5511.67
5511.67
5511.67
5511.66
5511.65
5381.81
5381.84
5381.87
5381.89
5381.9
5381.91
5381.91
5381.9
5381.63
5381.67
5381.7
5381.72
5381.73
5381.74
5381.74
5381.74
5381.5
5381.54
5381.57
5381.59
5381.63
5381.64
5381.65
5381.66
5381.48
5381.5
5381.52
5381.53
5381.54
5381.53
5381.52
5381.51
5381.47
5381.51
5381.55
5381.58
5381.61
5381.62
5381.63
5381.63
5381.65
5381.69
5381.72
5381.75
5381.76
5381.77
5381.77
5381.77
5381.88
5381.92
5381.95
5381.97
5381.98
5381.99
5381.99
5381.98
5252.01
5252.07
5252.12
5252.15
5252.17
5252.18
5252.19
5252.19
5251.76
5251.82
5251.86
5251.89
5251.92
5251.93
5251.94
5251.93
5251.97
5252.03
5252.1
5252.11
5252.15
5252.18
5252.19
5252.19
5251.58
5251.59
5251.59
5251.59
5251.59
5251.6
5251.59
5251.61
5251.84
5251.9
5251.96
5251.99
5252.03
5252.05
5252.06
5252.06
5251.8
5251.86
5251.91
5251.95
5251.97
5251.99
5252
5251.99
5252.1
5252.16
5252.21
5252.24
5252.26
5252.27
5252.28
5252.28
5122.25
5122.34
5122.4
5122.45
5122.49
5122.51
5122.52
5122.52
5121.98
5122.07
5122.15
5122.2
5122.24
5122.27
5122.28
5122.28
5122.12
5122.24
5122.35
5122.39
5122.43
5122.46
5122.47
5122.47
5121.68
5121.72
5121.75
5121.77
5121.79
5121.82
5121.84
5121.84
5121.99
5122.11
5122.2
5122.25
5122.29
5122.31
5122.33
5122.32
5121.99
5122.09
5122.17
5122.23
5122.27
5122.3
5122.32
5122.32
5122.34
5122.43
5122.5
5122.55
5122.59
5122.61
5122.62
5122.62
5641.63
5641.6
5641.58
5641.56
5641.55
5641.53
5641.52
5641.51
5641.5
5641.47
5641.44
5641.41
5641.39
5641.37
5641.36
5641.37
5641.27
5641.23
5641.19
5641.17
5641.15
5641.15
5641.15
5641.18
5641.4
5641.38
5641.37
5641.36
5641.35
5641.33
5641.33
5641.37
5641.27
5641.22
5641.18
5641.15
5641.13
5641.12
5641.12
5641.16
5641.52
5641.49
5641.46
5641.43
5641.4
5641.39
5641.37
5641.37
5641.61
5641.58
5641.55
5641.53
5641.51
5641.49
5641.48
5641.46
5511.92
5511.91
5511.91
5511.9
5511.9
5511.89
5511.88
5511.88
5511.81
5511.8
5511.79
5511.79
5511.78
5511.78
5511.78
5511.77
5511.56
5511.52
5511.48
5511.46
5511.45
5511.45
5511.46
5511.48
5511.68
5511.66
5511.65
5511.64
5511.64
5511.64
5511.66
5511.68
5511.55
5511.51
5511.47
5511.44
5511.42
5511.41
5511.41
5511.43
5511.81
5511.8
5511.79
5511.79
5511.78
5511.78
5511.77
5511.77
5511.86
5511.85
5511.84
5511.83
5511.83
5511.82
5511.81
5511.8
5382.17
5382.19
5382.2
5382.21
5382.21
5382.21
5382.21
5382.2
5382.03
5382.05
5382.06
5382.07
5382.08
5382.08
5382.08
5382.08
5381.75
5381.72
5381.69
5381.67
5381.64
5381.61
5381.61
5381.61
5381.78
5381.8
5381.81
5381.82
5381.83
5381.84
5381.85
5381.87
5381.77
5381.75
5381.73
5381.7
5381.68
5381.65
5381.64
5381.66
5382
5382.02
5382.04
5382.05
5382.06
5382.06
5382.06
5382.06
5382.08
5382.1
5382.11
5382.12
5382.12
5382.12
5382.12
5382.11
5252.41
5252.45
5252.48
5252.5
5252.51
5252.51
5252.52
5252.51
5252.21
5252.24
5252.27
5252.28
5252.3
5252.31
5252.31
5252.31
5252.07
5252.05
5252.02
5251.98
5251.94
5251.91
5251.89
5251.91
5251.9
5251.93
5251.95
5251.97
5251.99
5252.02
5252
5252.02
5252.15
5252.15
5252.15
5252.13
5252.11
5252.1
5252.1
5252.11
5252.17
5252.2
5252.23
5252.25
5252.26
5252.27
5252.27
5252.27
5252.3
5252.34
5252.37
5252.39
5252.4
5252.41
5252.41
5252.41
5122.68
5122.75
5122.8
5122.84
5122.86
5122.87
5122.88
5122.88