/*--------------------------------*- C++ -*----------------------------------*\
| =========                 |                                                 |
| \\      /  F ield         | OpenFOAM: The Open Source CFD Toolbox           |
|  \\    /   O peration     | Version:  plus.master.MPPICInterFoam            |
|   \\  /    A nd           | Web:      www.OpenFOAM.com                      |
|    \\/     M anipulation  |                                                 |
\*---------------------------------------------------------------------------*/
FoamFile
{
    version     2.0;
    format      ascii;
    class       surfaceScalarField;
    location    "12.8";
    object      alphaPhi;
}
// * * * * * * * * * * * * * * * * * * * * * * * * * * * * * * * * * * * * * //

dimensions      [0 3 -1 0 0 0 0];

internalField   nonuniform List<scalar> 
34319
(
-2.76755e-08
-2.63666e-07
6.36396e-06
8.1738e-08
2.24942e-07
1.45729e-08
-2.38466e-07
6.25603e-06
2.17502e-07
5.74066e-08
-2.2434e-07
5.89091e-06
2.00536e-07
8.59587e-08
-1.85923e-07
5.34471e-06
1.70311e-07
1.01221e-07
-1.49923e-07
4.69803e-06
1.40016e-07
1.05963e-07
-1.23559e-07
4.02306e-06
1.15909e-07
-1.03464e-07
3.35859e-06
1.01527e-07
9.64668e-08
-3.82758e-08
-1.90371e-07
6.6513e-06
1.20946e-07
4.57858e-09
-1.28736e-07
6.67337e-06
6.39702e-08
-1.79603e-07
6.32349e-06
1.13671e-07
-1.92274e-07
6.17208e-06
1.29721e-07
-1.47781e-07
5.45525e-06
1.31952e-07
-1.18961e-07
4.62089e-06
-9.93854e-08
3.84003e-06
1.24257e-07
-4.2412e-08
-6.79267e-08
4.10321e-06
1.37284e-07
1.90212e-09
-5.23728e-08
3.9547e-06
1.0336e-07
-1.08794e-07
4.6928e-06
1.78468e-07
-1.22475e-07
6.11949e-06
1.78025e-07
-1.04882e-07
6.08486e-06
1.68908e-07
-9.35175e-08
5.18202e-06
-8.03406e-08
4.27244e-06
1.53311e-07
-4.24485e-08
-1.88115e-08
3.82339e-06
1.16772e-07
-1.82994e-08
-1.01533e-08
4.95822e-06
1.04283e-07
9.44679e-09
5.18618e-06
1.94846e-07
-3.00162e-08
5.16423e-06
2.25663e-07
-5.01115e-08
6.29925e-06
2.04466e-07
-4.76184e-08
5.63521e-06
-4.77712e-08
4.61583e-06
1.80767e-07
-4.98152e-08
5.66718e-08
4.25183e-06
9.10994e-08
-1.45185e-08
2.43397e-08
6.30295e-06
4.25572e-08
5.22875e-09
4.85152e-06
1.76802e-07
1.02246e-08
4.75815e-06
2.47051e-07
1.11031e-08
6.59863e-06
2.23916e-07
5.68637e-09
5.90763e-06
-9.54063e-09
4.82663e-06
1.9736e-07
-8.90712e-08
8.3713e-08
4.16022e-06
1.50858e-07
-1.47074e-10
7.14845e-08
4.09667e-06
7.35169e-08
6.08722e-08
3.66113e-06
2.1137e-07
7.83273e-08
4.81462e-06
2.52505e-07
8.09408e-08
6.51227e-06
2.26117e-07
6.04094e-08
5.94376e-06
2.75701e-08
4.87653e-06
1.99419e-07
-3.53092e-08
4.05792e-06
1.66554e-07
2.14723e-07
2.39991e-08
3.78088e-06
1.85864e-07
1.06694e-07
4.05469e-06
1.95042e-07
2.07159e-07
5.73176e-06
1.97558e-07
2.17987e-07
6.51082e-06
1.41804e-07
2.028e-07
5.76097e-06
9.56258e-08
4.76651e-06
1.86713e-07
4.9112e-08
-2.81209e-08
-1.97147e-07
6.35575e-06
6.80353e-08
1.65309e-07
3.18008e-09
-1.77332e-07
6.24306e-06
1.58827e-07
3.2864e-08
-1.62551e-07
5.87721e-06
1.46235e-07
5.72744e-08
-1.41775e-07
5.33303e-06
1.28842e-07
7.27463e-08
-1.19284e-07
4.69122e-06
1.10588e-07
7.98159e-08
-1.02663e-07
4.02289e-06
9.55157e-08
-8.95382e-08
3.36609e-06
7.88668e-08
8.29596e-08
-2.83996e-08
-1.78494e-07
6.78158e-06
9.44622e-08
3.38618e-09
-1.20751e-07
6.79852e-06
3.80335e-08
-1.2766e-07
6.38731e-06
7.69672e-08
-1.53927e-07
6.16781e-06
9.36659e-08
-1.21043e-07
5.44042e-06
9.93579e-08
-1.00154e-07
4.61283e-06
-8.69021e-08
3.84041e-06
9.62852e-08
-1.05935e-08
-7.76331e-08
4.6568e-06
1.03609e-07
2.7205e-08
-8.19835e-08
4.21828e-06
8.90468e-08
-1.23481e-07
4.94906e-06
1.36165e-07
-1.19547e-07
6.20261e-06
1.35162e-07
-9.10736e-08
6.07618e-06
1.29513e-07
-7.99458e-08
5.16723e-06
-7.13515e-08
4.26657e-06
1.19927e-07
3.5286e-08
-1.17843e-07
3.76144e-06
7.23668e-08
9.96241e-08
-1.00757e-07
4.01225e-06
1.49135e-07
-1.55669e-07
5.30626e-06
1.61356e-07
-6.57507e-08
5.30518e-06
1.76266e-07
-4.75836e-08
6.31786e-06
1.58432e-07
-4.24637e-08
5.61569e-06
-4.41455e-08
4.6052e-06
1.41933e-07
1.48697e-08
1.3198e-08
4.05521e-06
6.65629e-08
5.73436e-08
3.30841e-08
6.53464e-06
1.23332e-07
-2.39183e-09
5.42069e-06
1.7007e-07
-8.47851e-09
5.21181e-06
1.92542e-07
-1.42666e-09
6.65386e-06
1.71763e-07
-6.82043e-11
5.8859e-06
-1.30276e-08
4.81354e-06
1.53793e-07
-2.52465e-08
7.31787e-08
4.00986e-06
1.44057e-07
9.02057e-08
5.19653e-08
4.01813e-06
1.04391e-07
6.11327e-08
3.61639e-06
2.03405e-07
6.74224e-08
5.30444e-06
1.96937e-07
6.30887e-08
6.54813e-06
1.71634e-07
4.62474e-08
5.92276e-06
1.76221e-08
4.86357e-06
1.53968e-07
-7.35594e-09
4.81283e-06
1.48653e-07
1.89664e-07
4.93039e-08
4.87129e-06
2.19291e-07
1.02834e-07
4.56419e-06
1.89614e-07
1.55543e-07
6.05961e-06
1.52617e-07
1.54181e-07
6.52599e-06
1.04434e-07
1.46723e-07
5.7442e-06
7.04221e-08
4.75621e-06
1.42671e-07
3.18728e-08
-4.23097e-08
-1.23728e-08
6.32101e-06
4.54806e-08
4.40157e-08
-3.38274e-08
-8.19698e-09
6.20456e-06
3.81287e-08
-1.69183e-08
-2.22431e-08
5.83833e-06
4.39947e-08
6.75373e-09
-4.24249e-08
5.29791e-06
5.36939e-08
2.95777e-08
-5.70038e-08
4.66403e-06
6.12387e-08
4.65088e-08
-6.60471e-08
4.00647e-06
6.56303e-08
-7.08467e-08
3.36178e-06
5.45649e-08
6.71169e-08
-5.6819e-08
1.19819e-08
6.76663e-06
5.74283e-08
-5.55725e-08
1.7487e-08
6.78127e-06
-4.24904e-08
3.06002e-09
6.35806e-06
-7.86793e-09
-3.30734e-08
6.12571e-06
2.47929e-08
-5.04218e-08
5.40106e-06
4.84944e-08
-6.13298e-08
4.58428e-06
-6.78925e-08
3.82529e-06
6.04783e-08
-3.41487e-08
6.42091e-09
4.70079e-06
4.75214e-08
-2.3862e-08
8.96732e-09
4.20395e-06
-2.43155e-08
3.78926e-09
4.86645e-06
2.37244e-09
-2.39417e-08
6.15537e-06
3.48715e-08
-3.22827e-08
6.03171e-06
5.88605e-08
-4.66108e-08
5.12847e-06
-5.61011e-08
4.24203e-06
7.15128e-08
-1.11497e-08
-1.36054e-08
3.88415e-06
8.02272e-08
4.43572e-08
-3.00844e-08
3.97346e-06
1.20692e-08
-6.93702e-08
4.03942e-06
2.33197e-08
-3.31459e-09
5.20754e-06
5.04616e-08
-4.47933e-09
6.27701e-06
6.97885e-08
-2.01526e-08
5.57e-06
-3.62837e-08
4.57344e-06
8.17213e-08
-4.01377e-08
-5.51447e-08
6.40993e-06
1.74006e-07
-2.53433e-08
-2.0116e-08
7.0548e-06
-1.17402e-08
-2.27947e-08
5.93207e-06
-6.02684e-09
-7.51132e-09
5.11383e-06
3.65296e-08
1.88745e-09
6.61793e-06
6.59709e-08
-7.16607e-10
5.83694e-06
-1.78975e-08
4.77755e-06
8.35169e-08
-3.04245e-08
-4.74073e-09
5.47371e-06
2.14596e-07
1.91564e-09
-1.00301e-08
3.99024e-06
-2.46394e-09
7.04968e-09
3.64193e-06
-6.89076e-10
7.89102e-09
5.31686e-06
2.89636e-08
2.19583e-08
6.50889e-06
5.8668e-08
1.82448e-08
5.8739e-06
-2.81547e-09
4.82685e-06
8.02544e-08
-3.23423e-08
5.16688e-06
7.34032e-08
-6.84118e-09
-4.01462e-08
5.12551e-06
3.55626e-08
-4.12086e-08
4.58841e-06
1.9396e-08
-4.44615e-08
6.03562e-06
8.06983e-09
-2.39424e-09
6.48683e-06
1.85003e-08
4.21384e-08
5.6985e-06
1.93892e-08
4.72209e-06
7.57286e-08
-2.36816e-09
-4.73231e-08
6.94283e-08
6.25647e-06
3.92124e-08
3.25156e-09
-4.72964e-08
6.96272e-08
6.13706e-06
-2.09801e-09
-3.22201e-08
3.40101e-08
5.77381e-06
1.55753e-08
-7.52024e-09
-7.94113e-09
5.24234e-06
3.88037e-08
1.95652e-08
-4.45864e-08
4.6225e-06
5.89952e-08
3.98685e-08
-6.66441e-08
3.98134e-06
7.16668e-08
-7.80655e-08
3.35284e-06
4.96635e-08
7.70693e-08
-7.61384e-08
9.88072e-08
6.63175e-06
4.80229e-08
-8.96414e-08
9.36109e-08
6.64211e-06
-8.30334e-08
6.53977e-08
6.24333e-06
-4.2572e-08
2.23106e-08
6.04671e-06
3.67229e-09
-2.9234e-08
5.33915e-06
3.78951e-08
-5.87778e-08
4.54199e-06
-7.44608e-08
3.80254e-06
5.70467e-08
-6.36214e-08
4.43977e-08
4.4289e-06
3.34192e-08
-6.47565e-08
3.68286e-08
4.03355e-06
-8.41079e-08
3.26613e-08
4.54228e-06
-6.37286e-08
2.51149e-08
5.9752e-06
-5.27725e-09
-1.4142e-08
5.95091e-06
4.08587e-08
-4.65591e-08
5.07019e-06
-6.4024e-08
4.20616e-06
6.61276e-08
-1.21507e-07
1.30872e-07
3.94097e-06
8.82966e-08
-1.4155e-08
3.2182e-08
3.85256e-06
-3.12151e-08
4.52818e-08
3.53656e-06
-5.0444e-08
2.06749e-08
4.86717e-06
-2.7587e-09
5.02109e-09
6.18079e-06
4.57013e-08
-2.48887e-08
5.49979e-06
-4.64299e-08
4.52726e-06
7.42546e-08
-1.82254e-07
2.7877e-08
4.26544e-06
1.27367e-07
-1.39722e-07
2.40618e-08
7.21606e-06
-5.82084e-08
-2.41671e-08
5.89778e-06
-7.7193e-08
1.16266e-08
4.74367e-06
-2.27762e-08
6.14299e-09
6.50545e-06
3.85231e-08
-9.10256e-09
5.75989e-06
-2.95496e-08
4.72501e-06
7.41358e-08
-1.27098e-07
-4.24498e-08
5.42384e-06
1.56938e-07
-6.82964e-08
-2.91523e-08
3.99402e-06
-4.20991e-08
-1.55855e-08
3.63196e-06
-8.87493e-08
-1.76047e-08
5.04257e-06
-4.04076e-08
2.74669e-10
6.39652e-06
2.73419e-08
7.05954e-10
5.79628e-06
-1.73187e-08
4.77253e-06
6.94416e-08
-9.02791e-08
5.03048e-06
4.9594e-08
-7.33017e-08
-1.16272e-07
4.53669e-06
-4.18835e-08
-1.18166e-07
4.31189e-06
-4.96626e-08
-1.3708e-07
5.79317e-06
-5.83985e-08
-6.44321e-08
6.3858e-06
-2.09195e-08
1.35999e-08
5.62397e-06
-2.71523e-09
4.66991e-06
6.53701e-08
-1.67795e-08
-4.28503e-08
-1.18623e-07
6.17261e-06
8.48622e-08
1.60524e-07
-7.57426e-10
-1.21106e-07
6.04859e-06
1.67604e-07
5.22844e-08
-1.51131e-07
5.6893e-06
1.82798e-07
1.0107e-07
-1.66276e-07
5.16767e-06
1.9219e-07
1.44473e-07
-1.8185e-07
4.55999e-06
2.00955e-07
1.79098e-07
-1.93456e-07
3.93217e-06
2.0802e-07
-2.002e-07
3.31911e-06
2.01012e-07
2.12003e-07
-7.04453e-08
-3.11556e-08
6.41144e-06
1.05871e-07
-3.89351e-08
-2.75887e-08
6.41302e-06
2.11866e-08
-8.70481e-08
6.06368e-06
8.92445e-08
-1.29766e-07
5.93804e-06
1.44587e-07
-1.5444e-07
5.25637e-06
1.86886e-07
-1.7002e-07
4.47642e-06
-1.78365e-07
3.75312e-06
2.14794e-07
-7.10387e-08
6.5052e-09
3.77893e-06
1.08139e-07
-3.85194e-08
2.2705e-08
3.59525e-06
5.18717e-09
-2.82058e-08
4.26034e-06
9.24485e-08
-6.36706e-08
5.76421e-06
1.55491e-07
-1.05411e-07
5.83812e-06
2.00789e-07
-1.33923e-07
4.98891e-06
-1.45109e-07
4.14388e-06
2.2981e-07
-1.1129e-07
4.70906e-08
3.80297e-06
1.6993e-07
-4.82302e-08
3.85057e-08
3.76201e-06
1.59437e-08
9.81172e-09
3.36776e-06
9.26584e-08
7.48198e-09
4.6022e-06
1.70883e-07
-4.88354e-08
6.03637e-06
2.15114e-07
-8.2543e-08
5.404e-06
-1.00308e-07
4.45465e-06
2.42903e-07
-1.2815e-07
1.08947e-07
4.12907e-06
1.71958e-07
-9.58799e-08
8.36017e-08
7.1485e-06
-2.23866e-08
4.80516e-08
3.67763e-06
3.84947e-08
1.70492e-09
4.19166e-06
1.53807e-07
-1.39121e-08
6.32898e-06
2.11408e-07
-3.42371e-08
5.65402e-06
-5.42376e-08
4.6455e-06
2.44873e-07
-1.48131e-07
5.38686e-08
4.09768e-06
1.92113e-07
-6.16399e-08
4.89528e-08
3.94919e-06
-7.95784e-09
4.38481e-08
3.51749e-06
4.01557e-08
2.51132e-08
4.49873e-06
1.4324e-07
2.47334e-08
6.23482e-06
2.02684e-07
1.36724e-08
5.68893e-06
-9.48481e-09
4.69136e-06
2.39193e-07
-1.02725e-07
4.04915e-06
1.51843e-07
4.48515e-08
-5.8017e-08
3.58786e-06
4.74197e-08
-3.74525e-08
3.6514e-06
3.7441e-08
1.19831e-08
5.41723e-06
4.89562e-08
1.13346e-07
6.24582e-06
5.59037e-08
1.80754e-07
5.52201e-06
4.83018e-08
4.59258e-06
2.24257e-07
2.44331e-08
-4.74174e-08
-3.70363e-07
1.75026e-07
3.4943e-07
6.06589e-06
5.23487e-08
-3.74186e-07
3.79282e-07
5.94364e-06
1.45992e-07
-3.86761e-07
3.93024e-07
5.58933e-06
2.20792e-07
-3.75176e-07
3.93409e-07
5.07483e-06
2.80506e-07
-3.63345e-07
3.909e-07
4.47284e-06
3.27684e-07
-3.56869e-07
3.90043e-07
3.85185e-06
-3.48264e-07
3.62797e-07
3.84875e-07
3.24751e-06
-5.52804e-08
-2.58696e-07
1.99123e-07
6.29685e-06
4.37631e-08
-2.30552e-07
6.29571e-06
1.52214e-07
-3.01578e-07
5.9557e-06
2.52408e-07
-3.51324e-07
5.83289e-06
3.11685e-07
-3.26638e-07
5.16056e-06
3.60201e-07
-3.14478e-07
4.38556e-06
-3.04676e-07
4.01364e-07
3.66823e-06
-7.15667e-08
-1.05531e-07
2.05811e-07
3.71099e-06
2.67799e-08
-8.78789e-08
3.58529e-06
1.81836e-07
-2.12012e-07
4.32963e-06
3.13193e-07
-2.28076e-07
5.66631e-06
3.54429e-07
-2.41448e-07
5.7245e-06
3.93255e-07
-2.51087e-07
4.8868e-06
-2.4367e-07
4.29569e-07
4.04668e-06
-1.07792e-07
-7.01046e-09
2.05383e-07
3.59725e-06
-2.96577e-09
2.80532e-08
3.52797e-06
1.9055e-07
-2.59833e-08
4.83243e-06
3.08828e-07
-7.49379e-08
4.67495e-06
3.9197e-07
-1.48872e-07
5.9162e-06
4.1993e-07
-1.64448e-07
5.28933e-06
-1.66447e-07
4.49962e-07
4.3474e-06
-1.77349e-07
9.89038e-08
1.86102e-07
4.01347e-06
-4.14122e-08
1.8951e-07
6.89108e-06
6.32585e-08
3.73358e-08
3.52116e-06
2.75383e-07
-2.08799e-09
4.15985e-06
3.95785e-07
-5.04105e-08
6.20675e-06
4.25281e-07
-6.81326e-08
5.52831e-06
-7.98284e-08
4.53638e-07
4.5306e-06
-1.31905e-07
1.34634e-07
2.01214e-07
4.0326e-06
-7.69433e-09
1.96481e-07
3.82906e-06
1.0338e-07
1.26278e-07
3.321e-06
2.88578e-07
8.08288e-08
4.41151e-06
3.84565e-07
6.00118e-08
6.12695e-06
4.12429e-07
3.62928e-08
5.55675e-06
1.17379e-08
4.40322e-07
4.57184e-06
-9.41866e-08
2.83602e-07
2.49197e-07
3.60987e-06
-9.25535e-09
1.94943e-07
3.51873e-06
1.05109e-07
2.16478e-07
3.50308e-06
2.69171e-07
2.24896e-07
5.29701e-06
3.32031e-07
1.72768e-07
6.1354e-06
3.68045e-07
1.34299e-07
5.38786e-06
3.96894e-07
1.05119e-07
4.47009e-06
1.13261e-07
-2.14358e-08
1.72448e-06
-2.17048e-09
1.16793e-07
-1.95337e-08
1.73489e-06
-2.56626e-09
1.12815e-07
-1.88657e-08
1.6634e-06
-3.05737e-09
1.01593e-07
-1.87625e-08
1.53063e-06
-3.63111e-09
8.37367e-08
-1.92167e-08
1.35165e-06
-4.18586e-09
6.00459e-08
-2.01054e-08
1.13263e-06
-4.66355e-09
3.11193e-08
-2.12865e-08
8.58145e-07
-4.46241e-09
-2.18553e-08
4.25271e-07
-3.15457e-09
1.33264e-07
-4.03387e-08
2.44684e-06
1.34371e-07
-3.88411e-08
2.33816e-06
1.28226e-07
-3.98493e-08
2.15693e-06
1.1483e-07
-4.17274e-08
1.92179e-06
9.45298e-08
-4.41985e-08
1.64723e-06
6.78189e-08
-4.68865e-08
1.33844e-06
3.53364e-08
-4.93095e-08
9.75536e-07
-4.96643e-08
4.33304e-07
1.5883e-07
-5.21476e-08
3.05288e-06
1.57319e-07
-5.30558e-08
2.86701e-06
1.48101e-07
-5.6436e-08
2.61137e-06
1.3126e-07
-6.09269e-08
2.30699e-06
1.07117e-07
-6.58639e-08
1.96863e-06
7.62357e-08
-7.06828e-08
1.60069e-06
3.94341e-08
-7.4697e-08
1.17964e-06
-7.53942e-08
5.62158e-07
1.82958e-07
-5.68904e-08
3.42803e-06
1.78744e-07
-6.12324e-08
3.22586e-06
1.66513e-07
-6.70771e-08
2.95421e-06
1.46443e-07
-7.41008e-08
2.63491e-06
1.18796e-07
-8.13813e-08
2.28282e-06
8.42401e-08
-8.82085e-08
1.90181e-06
4.36735e-08
-9.37362e-08
1.46597e-06
-9.48688e-08
8.20055e-07
1.98116e-07
-5.82444e-08
3.47531e-06
1.92162e-07
-6.49914e-08
3.33033e-06
1.78092e-07
-7.23876e-08
3.11259e-06
1.56049e-07
-8.10309e-08
2.84317e-06
1.26202e-07
-8.98055e-08
2.53658e-06
8.92128e-08
-9.79099e-08
2.19635e-06
4.61293e-08
-1.04433e-07
1.79594e-06
-1.06194e-07
1.17622e-06
2.00416e-07
-6.01806e-08
3.15816e-06
1.93739e-07
-6.66536e-08
3.1385e-06
1.79489e-07
-7.43028e-08
3.03921e-06
1.57217e-07
-8.31296e-08
2.87932e-06
1.2713e-07
-9.20794e-08
2.67314e-06
8.98833e-08
-1.00407e-07
2.42446e-06
4.65878e-08
-1.0715e-07
2.10808e-06
-1.0891e-07
1.5697e-06
1.91099e-07
2.50942e-06
-6.71522e-08
1.8719e-07
2.66439e-06
-7.04664e-08
1.74492e-07
2.72462e-06
-7.51224e-08
1.52782e-07
2.71314e-06
-8.13668e-08
1.22784e-07
2.64492e-06
-8.8412e-08
8.56867e-08
2.52428e-06
-9.56083e-08
4.33995e-08
2.3287e-06
-1.02208e-07
1.91538e-06
-1.0501e-07
9.02611e-08
-2.22501e-08
1.7332e-06
2.24162e-09
9.46708e-08
-2.10789e-08
1.74973e-06
1.94611e-09
9.24801e-08
-2.08666e-08
1.68506e-06
1.42756e-09
8.40688e-08
-2.10913e-08
1.55915e-06
8.63497e-10
7.03321e-08
-2.16771e-08
1.38656e-06
3.96809e-10
5.23029e-08
-2.25444e-08
1.17307e-06
1.14812e-10
3.01255e-08
-2.34899e-08
9.03465e-07
3.74138e-10
-2.3484e-08
4.77427e-07
1.59482e-09
1.06086e-07
-3.89211e-08
2.45351e-06
1.09139e-07
-3.86978e-08
2.35265e-06
1.05536e-07
-4.02006e-08
2.17986e-06
9.54326e-08
-4.22971e-08
1.95308e-06
7.95242e-08
-4.47369e-08
1.68621e-06
5.86617e-08
-4.72121e-08
1.38399e-06
3.32302e-08
-4.92549e-08
1.02675e-06
-4.88776e-08
4.91903e-07
1.27398e-07
-4.9256e-08
3.05584e-06
1.28512e-07
-5.1488e-08
2.87881e-06
1.22551e-07
-5.54739e-08
2.63267e-06
1.09663e-07
-6.01207e-08
2.33769e-06
9.05036e-08
-6.49044e-08
2.00797e-06
6.59964e-08
-6.94091e-08
1.64741e-06
3.68862e-08
-7.30154e-08
1.23252e-06
-7.31153e-08
6.23123e-07
1.46702e-07
-5.30184e-08
3.42715e-06
1.45786e-07
-5.84379e-08
3.23383e-06
1.37645e-07
-6.48595e-08
2.9718e-06
1.22399e-07
-7.19789e-08
2.66208e-06
1.00483e-07
-7.90351e-08
2.31885e-06
7.28798e-08
-8.54586e-08
1.94545e-06
4.04215e-08
-9.05173e-08
1.51594e-06
-9.12063e-08
8.78482e-07
1.57263e-07
-5.31068e-08
3.47205e-06
1.55128e-07
-6.07162e-08
3.33489e-06
1.45746e-07
-6.87029e-08
3.1258e-06
1.29202e-07
-7.73937e-08
2.86512e-06
1.05784e-07
-8.58527e-08
2.56672e-06
7.63538e-08
-9.34167e-08
2.23365e-06
4.17154e-08
-9.93203e-08
1.83926e-06
-1.00567e-07
1.22731e-06
1.56696e-07
-5.22739e-08
3.15459e-06
1.53554e-07
-5.99885e-08
3.14089e-06
1.4401e-07
-6.8412e-08
3.04845e-06
1.27525e-07
-7.7405e-08
2.8957e-06
1.04372e-07
-8.60503e-08
2.69637e-06
7.52446e-08
-9.37493e-08
2.45384e-06
4.08715e-08
-9.97145e-08
2.14278e-06
-1.00864e-07
1.61088e-06
1.47238e-07
2.50716e-06
-5.47332e-08
1.45292e-07
2.6659e-06
-5.97232e-08
1.36306e-07
2.73086e-06
-6.5797e-08
1.20081e-07
2.7246e-06
-7.28163e-08
9.72998e-08
2.66163e-06
-8.00579e-08
6.89031e-08
2.54586e-06
-8.70109e-08
3.62463e-08
2.35464e-06
-9.31042e-08
1.94618e-06
-9.5326e-08
6.78051e-08
-2.49981e-08
1.73851e-06
6.27095e-09
7.51408e-08
-2.57528e-08
1.7625e-06
5.50756e-09
7.53709e-08
-2.62056e-08
1.70627e-06
4.60853e-09
6.81365e-08
-2.68433e-08
1.58924e-06
3.81435e-09
5.39459e-08
-2.77022e-08
1.42525e-06
3.14715e-09
3.44122e-08
-2.89293e-08
1.21902e-06
2.55144e-09
1.38063e-08
-3.04919e-08
9.52273e-07
2.29703e-09
-3.14973e-08
5.21118e-07
1.5166e-09
7.59283e-08
-3.98508e-08
2.45262e-06
8.46789e-08
-4.33429e-08
2.36132e-06
8.55622e-08
-4.62749e-08
2.19896e-06
7.82812e-08
-4.93684e-08
1.98283e-06
6.33586e-08
-5.26217e-08
1.72599e-06
4.23333e-08
-5.60824e-08
1.4321e-06
1.96254e-08
-5.96892e-08
1.07853e-06
-6.22276e-08
5.42001e-07
8.80769e-08
-4.80072e-08
3.04735e-06
9.70035e-08
-5.45799e-08
2.88108e-06
9.7518e-08
-6.0827e-08
2.64664e-06
8.91687e-08
-6.69206e-08
2.36345e-06
7.23999e-08
-7.27996e-08
2.04472e-06
4.87369e-08
-7.84287e-08
1.69322e-06
2.24202e-08
-8.36518e-08
1.28257e-06
-8.68227e-08
6.69964e-07
9.80489e-08
-4.93472e-08
3.41214e-06
1.06528e-07
-5.88527e-08
3.22956e-06
1.06344e-07
-6.82459e-08
2.97931e-06
9.69523e-08
-7.71328e-08
2.68149e-06
7.8673e-08
-8.5305e-08
2.34938e-06
5.285e-08
-9.25842e-08
1.9852e-06
2.32493e-08
-9.86436e-08
1.56032e-06
-1.01103e-07
9.1605e-07
9.99177e-08
-4.7451e-08
3.45375e-06
1.08249e-07
-5.83138e-08
3.32593e-06
1.07732e-07
-6.94264e-08
3.12732e-06
9.79978e-08
-7.98444e-08
2.87737e-06
7.94146e-08
-8.92047e-08
2.58908e-06
5.31065e-08
-9.72123e-08
2.26447e-06
2.24472e-08
-1.03403e-07
1.87457e-06
-1.05003e-07
1.25364e-06
9.41672e-08
-4.40081e-08
3.13715e-06
1.0127e-07
-5.49751e-08
3.13028e-06
1.0032e-07
-6.61687e-08
3.0459e-06
9.09066e-08
-7.65396e-08
2.90163e-06
7.3414e-08
-8.57526e-08
2.71042e-06
4.88654e-08
-9.35313e-08
2.47472e-06
2.02453e-08
-9.93146e-08
2.16725e-06
-1.00182e-07
1.62628e-06
8.51346e-08
2.49409e-06
-4.04794e-08
8.97195e-08
2.65644e-06
-5.02456e-08
8.74256e-08
2.72645e-06
-5.96631e-08
7.77874e-08
2.72595e-06
-6.8366e-08
6.12868e-08
2.66867e-06
-7.627e-08
3.92189e-08
2.55771e-06
-8.32798e-08
1.4943e-08
2.36873e-06
-8.91673e-08
1.95202e-06
-9.08861e-08
6.72158e-08
-3.17437e-08
1.73885e-06
1.35583e-08
7.80831e-08
-3.29471e-08
1.77059e-06
1.38247e-08
7.97781e-08
-3.33228e-08
1.72356e-06
1.42548e-08
7.25403e-08
-3.38828e-08
1.6153e-06
1.51323e-08
5.78474e-08
-3.45674e-08
1.45818e-06
1.63937e-08
3.80571e-08
-3.53911e-08
1.25609e-06
1.8066e-08
1.19574e-08
-3.59882e-08
9.93325e-07
2.087e-08
-3.49485e-08
5.42767e-07
2.49393e-08
7.87666e-08
-4.74158e-08
2.44664e-06
9.16312e-08
-5.10378e-08
2.36659e-06
9.35804e-08
-5.29794e-08
2.2167e-06
8.4594e-08
-5.47053e-08
2.01264e-06
6.60517e-08
-5.61609e-08
1.76605e-06
4.04156e-08
-5.71961e-08
1.47939e-06
8.0128e-09
-5.70462e-08
1.13169e-06
-5.21085e-08
5.66959e-07
9.07586e-08
-5.69682e-08
3.03223e-06
1.05273e-07
-6.35646e-08
2.87908e-06
1.08452e-07
-6.85747e-08
2.65901e-06
9.97985e-08
-7.27205e-08
2.39006e-06
8.02998e-08
-7.60522e-08
2.08401e-06
5.23146e-08
-7.83957e-08
1.74229e-06
1.61844e-08
-7.88055e-08
1.34025e-06
-7.21904e-08
7.06256e-07
9.99517e-08
-5.89835e-08
3.38844e-06
1.15415e-07
-6.83724e-08
3.21885e-06
1.20034e-07
-7.6876e-08
2.98291e-06
1.131e-07
-8.39287e-08
2.69948e-06
9.53823e-08
-8.96239e-08
2.38057e-06
6.87329e-08
-9.38779e-08
2.02724e-06
3.25271e-08
-9.58787e-08
1.6135e-06
-9.04104e-08
9.66945e-07
1.00065e-07
-5.62829e-08
3.42508e-06
1.16151e-07
-6.67633e-08
3.30813e-06
1.22113e-07
-7.73113e-08
3.12179e-06
1.17475e-07
-8.62414e-08
2.88432e-06
1.02989e-07
-9.36393e-08
2.60768e-06
8.00194e-08
-9.94781e-08
2.29307e-06
4.6853e-08
-1.03171e-07
1.91502e-06
-1.00516e-07
1.31064e-06
9.22042e-08
-5.05036e-08
3.10863e-06
1.07486e-07
-6.08124e-08
3.10904e-06
1.13792e-07
-7.11523e-08
3.03343e-06
1.11086e-07
-8.00002e-08
2.89826e-06
9.9994e-08
-8.75414e-08
2.71563e-06
8.1573e-08
-9.3755e-08
2.48754e-06
5.33604e-08
-9.81483e-08
2.19051e-06
-9.77363e-08
1.67689e-06
8.03326e-08
2.47046e-06
-4.17275e-08
9.19531e-08
2.63547e-06
-5.1353e-08
9.69758e-08
2.71015e-06
-5.97831e-08
9.51024e-08
2.71489e-06
-6.68835e-08
8.66979e-08
2.66266e-06
-7.29849e-08
7.26685e-08
2.55632e-06
-7.82069e-08
5.07687e-08
2.37501e-06
-8.22729e-08
1.98673e-06
-8.15712e-08
2.55525e-07
-5.67718e-08
1.73438e-06
6.82632e-09
3.00518e-07
-5.79671e-08
1.77597e-06
7.7273e-09
3.31398e-07
-5.86612e-08
1.7428e-06
8.65907e-09
3.43131e-07
-5.94897e-08
1.65356e-06
9.66991e-09
3.3183e-07
-6.07231e-08
1.51988e-06
1.04207e-08
2.96043e-07
-6.25772e-08
1.344e-06
1.04454e-08
2.2885e-07
-6.49181e-08
1.11615e-06
9.27774e-09
-6.53464e-08
8.32379e-07
4.62809e-09
2.71272e-07
-9.142e-08
2.42522e-06
3.19174e-07
-9.43237e-08
2.35527e-06
3.54083e-07
-9.6496e-08
2.21972e-06
3.71001e-07
-9.88217e-08
2.03513e-06
3.65818e-07
-1.01914e-07
1.81247e-06
3.36027e-07
-1.06421e-07
1.55302e-06
2.69417e-07
-1.1295e-07
1.2463e-06
-1.19626e-07
8.90798e-07
2.85739e-07
-1.09903e-07
2.99486e-06
3.33961e-07
-1.14597e-07
2.85117e-06
3.70126e-07
-1.18658e-07
2.64507e-06
3.8884e-07
-1.22685e-07
2.39536e-06
3.85031e-07
-1.27351e-07
2.11345e-06
3.55052e-07
-1.3351e-07
1.79948e-06
2.85506e-07
-1.42262e-07
1.43916e-06
-1.53303e-07
1.02557e-06
2.94401e-07
-1.13344e-07
3.3404e-06
3.38907e-07
-1.1954e-07
3.17934e-06
3.72146e-07
-1.25423e-07
2.95656e-06
3.88251e-07
-1.30983e-07
2.69189e-06
3.81373e-07
-1.3676e-07
2.39717e-06
3.46912e-07
-1.43601e-07
2.07198e-06
2.7393e-07
-1.52667e-07
1.69696e-06
-1.64729e-07
1.25234e-06
2.90594e-07
-1.08103e-07
3.37414e-06
3.28869e-07
-1.13879e-07
3.26429e-06
3.56162e-07
-1.20254e-07
3.08958e-06
3.66624e-07
-1.26358e-07
2.86953e-06
3.54078e-07
-1.32455e-07
2.6162e-06
3.13626e-07
-1.39148e-07
2.32924e-06
2.38946e-07
-1.47364e-07
1.98451e-06
-1.57769e-07
1.54277e-06
2.75469e-07
-9.93499e-08
3.06376e-06
3.05194e-07
-1.03606e-07
3.06929e-06
3.24282e-07
-1.08693e-07
3.0031e-06
3.27052e-07
-1.13675e-07
2.88312e-06
3.07524e-07
-1.18761e-07
2.72156e-06
2.61602e-07
-1.24277e-07
2.51862e-06
1.8888e-07
-1.30886e-07
2.24692e-06
-1.38396e-07
1.84644e-06
2.50089e-07
2.43875e-06
-9.32632e-08
2.71159e-07
2.60622e-06
-9.51767e-08
2.82314e-07
2.68747e-06
-9.6872e-08
2.78096e-07
2.7043e-06
-9.86521e-08
2.53094e-07
2.6698e-06
-1.00895e-07
2.04265e-07
2.58486e-06
-1.03959e-07
1.36075e-07
2.42074e-06
-1.08228e-07
2.09559e-06
-1.11241e-07
4.77652e-07
-8.16286e-08
1.4038e-08
1.6873e-06
5.81088e-07
-8.00471e-08
2.03423e-08
1.73226e-06
6.63785e-07
-8.10755e-08
2.80213e-08
1.71321e-06
7.15139e-07
-8.29282e-08
3.74743e-08
1.64775e-06
7.19572e-07
-8.50999e-08
4.90243e-08
1.55166e-06
6.48592e-07
-8.73797e-08
6.32035e-08
1.43936e-06
4.43716e-07
-8.88031e-08
8.13171e-08
1.32883e-06
-8.53378e-08
1.05665e-07
1.25614e-06
5.18132e-07
-1.3436e-07
2.36123e-06
6.26259e-07
-1.28419e-07
2.29555e-06
7.14894e-07
-1.24045e-07
2.17414e-06
7.71472e-07
-1.1857e-07
2.01438e-06
7.77406e-07
-1.11494e-07
1.83318e-06
6.99864e-07
-1.02369e-07
1.64577e-06
4.78203e-07
-8.98052e-08
1.46925e-06
-6.64676e-08
1.3504e-06
5.40296e-07
-1.64867e-07
2.91463e-06
6.48557e-07
-1.58439e-07
2.77293e-06
7.41915e-07
-1.51059e-07
2.57881e-06
8.0631e-07
-1.41057e-07
2.35363e-06
8.19621e-07
-1.27815e-07
2.11671e-06
7.42188e-07
-1.10438e-07
1.88519e-06
5.08958e-07
-8.62173e-08
1.66906e-06
-4.67271e-08
1.51489e-06
5.4987e-07
-1.73123e-07
3.24876e-06
6.52008e-07
-1.681e-07
3.08695e-06
7.43851e-07
-1.59813e-07
2.87362e-06
8.11028e-07
-1.48107e-07
2.63201e-06
8.30548e-07
-1.32296e-07
2.38234e-06
7.60343e-07
-1.11231e-07
2.14314e-06
5.2444e-07
-8.1848e-08
1.9287e-06
-3.55332e-08
1.7655e-06
5.40324e-07
-1.64179e-07
3.27846e-06
6.30888e-07
-1.59509e-07
3.16511e-06
7.14441e-07
-1.50554e-07
2.99671e-06
7.78093e-07
-1.38406e-07
2.79622e-06
8.00738e-07
-1.2263e-07
2.5839e-06
7.41387e-07
-1.02404e-07
2.37988e-06
5.14328e-07
-7.54784e-08
2.20538e-06
-3.51682e-08
2.05677e-06
5.13384e-07
-1.46266e-07
2.97262e-06
5.89794e-07
-1.38444e-07
2.97176e-06
6.61251e-07
-1.27027e-07
2.90818e-06
7.16664e-07
-1.13119e-07
2.80235e-06
7.38426e-07
-9.67371e-08
2.6737e-06
6.90723e-07
-7.75048e-08
2.54134e-06
4.88974e-07
-5.41617e-08
2.42745e-06
-2.19109e-08
2.32217e-06
4.59083e-07
-1.298e-07
2.35991e-06
5.24247e-07
-1.1433e-07
2.51679e-06
5.86412e-07
-9.77975e-08
2.59604e-06
6.37512e-07
-8.03078e-08
2.62024e-06
6.63023e-07
-6.10642e-08
2.6084e-06
6.3155e-07
-3.91821e-08
2.5779e-06
4.6163e-07
-1.27581e-08
2.54906e-06
2.41911e-08
2.51125e-06
3.0405e-07
-2.31877e-08
4.27207e-06
3.51884e-08
3.18755e-07
-1.21718e-08
6.28017e-06
3.33547e-08
3.00534e-07
-1.67953e-08
6.7416e-06
2.71237e-08
2.68245e-07
-2.57728e-08
7.01751e-06
2.83213e-08
2.22873e-07
-3.78934e-08
7.21073e-06
3.44795e-08
1.62239e-07
-4.78481e-08
7.31698e-06
4.27122e-08
8.64779e-08
-5.78872e-08
7.27814e-06
5.17222e-08
-7.08469e-08
6.77168e-06
6.08736e-08
3.90104e-07
-4.75618e-09
3.61371e-06
6.15218e-07
2.94198e-08
6.47959e-06
5.79745e-07
3.32499e-08
8.5006e-06
5.13455e-07
1.59557e-08
8.58217e-06
4.22829e-07
7.81038e-11
8.60849e-06
3.08476e-07
-8.6823e-09
8.57222e-06
1.68174e-07
-1.26254e-08
8.40065e-06
-1.49547e-08
7.72017e-06
3.23683e-07
4.9286e-08
3.51239e-06
6.87725e-07
6.9123e-08
6.54338e-06
6.94176e-07
7.99546e-08
9.32593e-06
6.24854e-07
6.55026e-08
9.34927e-06
5.16288e-07
5.55344e-08
9.25641e-06
3.74891e-07
5.4526e-08
9.11717e-06
2.02456e-07
6.04513e-08
8.85118e-06
6.98194e-08
8.05719e-06
3.30437e-07
7.58808e-08
3.64205e-06
6.21408e-07
9.53417e-08
6.98328e-06
6.15338e-07
1.0666e-07
9.11765e-06
5.5934e-07
1.00114e-07
9.05368e-06
4.6427e-07
1.00595e-07
8.94715e-06
3.3736e-07
1.08535e-07
8.79033e-06
1.82161e-07
1.2304e-07
8.50794e-06
1.4189e-07
7.7108e-06
3.22759e-07
1.167e-07
5.202e-06
3.97814e-07
1.09221e-07
7.50498e-06
3.99005e-07
1.04952e-07
7.84204e-06
3.6584e-07
1.08014e-07
7.86702e-06
3.046e-07
1.16306e-07
7.82884e-06
2.20484e-07
1.29259e-07
7.72447e-06
1.17565e-07
1.46228e-07
7.49254e-06
1.64423e-07
6.78901e-06
1.84723e-07
9.95573e-08
5.39246e-06
2.1056e-07
8.7364e-08
5.90684e-06
2.14319e-07
8.92857e-08
6.11968e-06
1.98867e-07
9.76453e-08
6.23717e-06
1.66564e-07
1.09115e-07
6.28013e-06
1.20511e-07
1.22808e-07
6.24883e-06
6.37427e-08
1.37773e-07
6.09558e-06
1.50543e-07
5.53874e-06
1.16505e-07
3.74487e-06
6.59972e-08
1.30468e-07
4.11551e-06
6.67979e-08
1.31839e-07
4.38105e-06
7.31364e-08
1.22337e-07
4.55821e-06
8.33545e-08
1.03178e-07
4.66121e-06
9.50182e-08
7.59358e-08
4.69078e-06
1.07489e-07
4.15955e-08
4.61067e-06
1.203e-07
4.20267e-06
1.31609e-07
2.24623e-07
4.57373e-09
4.40879e-06
1.22808e-08
2.18922e-07
1.51869e-08
6.29109e-06
2.38262e-09
2.02652e-07
-4.67555e-10
6.75329e-06
5.24178e-09
1.87422e-07
-2.28952e-08
7.04317e-06
1.25211e-08
1.61592e-07
-3.61389e-08
7.25001e-06
2.23987e-08
1.20078e-07
-4.2806e-08
7.3694e-06
3.17198e-08
6.42696e-08
-5.05999e-08
7.34326e-06
4.1184e-08
-6.21966e-08
6.84731e-06
5.07559e-08
4.31265e-07
4.30496e-08
4.51014e-06
5.34345e-07
6.65914e-08
6.71211e-06
4.80598e-07
4.73546e-08
8.50022e-06
4.19779e-07
1.05801e-08
8.6095e-06
3.45516e-07
-7.35096e-09
8.65385e-06
2.52845e-07
-1.17553e-08
8.63359e-06
1.37975e-07
-1.23326e-08
8.47702e-06
-1.28455e-08
7.80868e-06
4.23316e-07
1.01717e-07
5.33608e-06
6.09605e-07
9.43333e-08
7.06461e-06
5.94964e-07
7.76611e-08
9.3214e-06
5.25094e-07
5.17366e-08
9.37768e-06
4.2899e-07
4.1177e-08
9.30401e-06
3.09696e-07
4.33153e-08
9.18125e-06
1.66295e-07
5.1319e-08
8.93095e-06
6.12137e-08
8.14935e-06
3.24151e-07
8.25901e-08
4.21413e-06
5.35879e-07
9.20126e-08
7.32089e-06
5.16624e-07
8.85174e-08
9.1258e-06
4.62958e-07
7.9201e-08
9.07967e-06
3.81026e-07
8.05255e-08
8.98977e-06
2.76015e-07
9.01396e-08
8.84846e-06
1.48665e-07
1.05507e-07
8.58088e-06
1.24507e-07
7.79615e-06
2.47234e-07
8.93728e-08
5.52638e-06
3.07529e-07
7.81462e-08
7.55662e-06
3.10007e-07
7.67338e-08
7.85116e-06
2.84999e-07
8.23679e-08
7.88876e-06
2.37616e-07
9.28587e-08
7.86367e-06
1.72077e-07
1.07284e-07
7.77256e-06
9.13733e-08
1.24834e-07
7.55384e-06
1.43225e-07
6.86155e-06
1.38555e-07
6.68177e-08
5.42081e-06
1.57204e-07
5.87185e-08
5.90865e-06
1.6033e-07
6.49127e-08
6.12827e-06
1.49392e-07
7.58015e-08
6.25479e-06
1.25347e-07
8.89425e-08
6.30794e-06
9.03785e-08
1.03534e-07
6.28727e-06
4.7219e-08
1.18785e-07
6.14454e-06
1.31779e-07
5.59677e-06
9.08833e-08
3.74343e-06
4.50245e-08
9.83632e-08
4.11807e-06
4.86534e-08
9.76513e-08
4.38923e-06
5.72364e-08
8.96863e-08
4.57331e-06
6.85656e-08
7.51259e-08
4.68391e-06
8.06616e-08
5.49069e-08
4.72126e-06
9.30893e-08
2.98129e-08
4.64885e-06
1.05535e-07
4.24759e-06
1.16487e-07
7.31135e-08
5.06536e-08
4.41425e-06
-3.89954e-08
7.75078e-08
3.37847e-08
6.29174e-06
-3.24526e-08
8.79143e-08
9.95428e-09
6.75086e-06
-1.82441e-08
9.61111e-08
-9.22988e-09
7.0476e-06
-3.42843e-09
8.97545e-08
-1.63452e-08
7.26472e-06
7.78121e-09
6.81448e-08
-2.27706e-08
7.39567e-06
1.78225e-08
3.54142e-08
-3.18711e-08
7.38004e-06
2.76698e-08
-4.5449e-08
6.8901e-06
3.80153e-08
2.5829e-07
5.5626e-08
4.81349e-06
2.53153e-07
4.14767e-08
6.69896e-06
2.48917e-07
1.86666e-08
8.49977e-06
2.36717e-07
-3.18737e-10
8.61247e-06
2.0889e-07
-2.22614e-09
8.66736e-06
1.59679e-07
-1.18697e-09
8.66082e-06
8.879e-08
-1.52825e-09
8.51711e-06
-4.56191e-09
7.85649e-06
2.23633e-07
1.87896e-08
5.80041e-06
2.34974e-07
7.22194e-09
7.05688e-06
2.64558e-07
4.85518e-09
9.33867e-06
2.57568e-07
9.00134e-09
9.37515e-06
2.30318e-07
1.81556e-08
9.3108e-06
1.77896e-07
2.94613e-08
9.20291e-06
9.96801e-08
4.05299e-08
8.96695e-06