/*--------------------------------*- C++ -*----------------------------------*\
| =========                 |                                                 |
| \\      /  F ield         | OpenFOAM: The Open Source CFD Toolbox           |
|  \\    /   O peration     | Version:  plus.master                           |
|   \\  /    A nd           | Web:      www.OpenFOAM.com                      |
|    \\/     M anipulation  |                                                 |
\*---------------------------------------------------------------------------*/
FoamFile
{
    version     2.0;
    format      ascii;
    class       surfaceScalarField;
    location    "13";
    object      alphaPhi;
}
// * * * * * * * * * * * * * * * * * * * * * * * * * * * * * * * * * * * * * //

dimensions      [0 3 -1 0 0 0 0];

internalField   nonuniform List<scalar> 
138768
(
5.17287e-07
2.04493e-06
4.53847e-07
-1.04296e-06
-1.97328e-06
4.10759e-07
7.49885e-07
8.64845e-07
-1.5079e-06
-8.25593e-07
1.55209e-06
1.31396e-06
-1.62942e-06
-2.15339e-06
1.54473e-06
1.34079e-06
-1.55752e-06
-2.5611e-06
8.82727e-07
9.00615e-07
-1.37448e-06
-2.01385e-06
1.12628e-07
5.37055e-07
-1.19688e-06
1.37623e-06
3.21755e-07
-2.1415e-06
-1.57213e-06
-2.1039e-07
2.40763e-06
8.66654e-07
-8.43252e-07
2.86719e-07
9.50574e-07
2.07957e-06
-2.53297e-07
8.05129e-07
3.24787e-06
-1.5881e-06
1.17596e-06
3.49093e-06
-1.05227e-06
2.55318e-07
2.54035e-06
-6.97664e-07
7.02091e-07
1.6629e-06
1.60039e-06
4.92876e-07
-1.41357e-06
5.08892e-07
1.4459e-06
1.42611e-06
-9.72974e-07
8.52309e-08
1.02877e-06
2.92341e-06
8.64217e-08
1.29944e-07
1.42451e-06
-1.56386e-07
1.04359e-07
1.70714e-06
-6.91883e-07
1.49195e-07
1.46125e-06
-1.42212e-06
1.00894e-06
2.29966e-06
1.03911e-06
7.94395e-07
-1.65577e-06
1.49325e-06
-3.84299e-07
1.85507e-06
-1.51726e-06
1.01019e-06
-5.73516e-07
3.9504e-06
6.28579e-08
-1.23558e-07
1.42965e-06
-1.22844e-07
-4.59548e-08
3.36092e-07
-1.3327e-06
-1.47059e-07
2.13503e-06
-1.56362e-06
-2.18516e-07
2.73216e-06
1.35625e-08
1.03831e-06
-1.57583e-06
9.42694e-07
-1.5631e-06
1.56301e-06
-1.32631e-06
2.8626e-07
-6.82301e-07
3.2074e-06
1.07689e-07
-5.14159e-07
1.41495e-06
-1.83177e-07
-9.08019e-07
1.2019e-06
-1.10323e-06
-4.77042e-08
1.68095e-06
-1.66547e-06
-4.693e-07
2.38082e-06
-7.67474e-07
9.31587e-07
-1.81521e-06
-6.47393e-08
-1.47052e-06
9.82378e-07
-9.53197e-07
3.87893e-07
-4.44009e-07
2.18628e-06
-1.48904e-07
-1.30464e-06
3.42966e-06
-1.30763e-06
-1.45615e-06
3.69038e-06
-1.17819e-06
-3.78086e-07
2.63348e-06
-1.09402e-06
1.95926e-07
1.82973e-06
-7.18552e-07
5.77117e-07
-1.72001e-06
7.52022e-07
5.17911e-07
-1.23195e-06
-1.50717e-06
4.74469e-07
9.97144e-07
-1.16292e-06
-9.09448e-07
1.56018e-06
-1.48065e-06
-2.57279e-06
1.64458e-06
-1.43727e-06
-3.04891e-06
1.11435e-06
-1.01593e-06
-2.48497e-06
6.34102e-07
-8.73576e-07
3.26247e-07
-2.29787e-06
-1.23014e-06
1.03897e-06
2.79439e-06
8.46041e-07
-1.51402e-06
-2.71184e-06
2.20522e-07
3.07533e-06
1.46963e-06
-2.86149e-06
-8.42385e-07
2.86879e-06
2.20055e-06
-2.69244e-06
-1.87063e-06
2.69141e-06
2.25009e-06
-2.57241e-06
-2.44126e-06
2.6179e-06
1.4108e-06
-2.55738e-06
-2.64119e-06
2.22106e-06
8.41582e-07
-2.3258e-06
1.68473e-06
6.43561e-07
-2.65525e-06
-1.99245e-06
1.59203e-06
2.47129e-06
1.49924e-06
-1.90129e-06
7.97414e-07
2.57763e-06
3.04269e-06
-5.89609e-07
1.95754e-06
4.79231e-06
-2.18482e-06
1.42851e-06
5.13768e-06
-3.07607e-06
1.76888e-06
3.61563e-06
-3.06408e-06
1.93679e-06
1.83537e-06
1.2078e-06
8.01092e-07
-2.89563e-06
2.18546e-06
1.37916e-06
2.49293e-06
-2.16001e-06
6.45281e-07
1.25718e-06
4.32792e-06
5.75613e-08
1.03417e-07
2.74477e-06
-3.22695e-07
8.29045e-08
2.3428e-06
-2.69486e-06
4.96691e-07
4.03214e-06
-2.98692e-06
1.29711e-06
3.12596e-06
7.0703e-07
1.17249e-06
-2.8641e-06
2.59458e-06
-2.97666e-07
3.25788e-06
-2.32055e-06
1.0149e-06
-5.49571e-07
5.99838e-06
1.17629e-08
-7.20201e-08
1.96769e-06
-3.21245e-07
1.10651e-08
7.58831e-07
-2.66654e-06
-2.07675e-07
3.72753e-06
-2.78412e-06
-3.71268e-08
4.18399e-06
2.06302e-07
1.51514e-06
-2.76016e-06
2.42561e-06
-1.58531e-06
2.75022e-06
-2.32494e-06
8.04923e-07
-1.84465e-06
4.73974e-06
3.89292e-08
-1.34201e-06
2.4655e-06
-1.1234e-07
-7.93949e-07
1.65299e-06
-2.68851e-06
-9.53488e-07
3.54888e-06
-3.01833e-06
-9.53202e-07
3.62664e-06
-3.63588e-07
1.40797e-06
-2.92487e-06
2.11264e-06
-2.19454e-06
1.733e-06
-2.25385e-06
1.15149e-06
-2.67999e-06
3.55348e-06
-3.41483e-07
-2.64403e-06
5.17337e-06
-2.09007e-06
-2.53059e-06
5.54068e-06
-3.53019e-06
-2.15349e-06
4.1353e-06
-3.42218e-06
-1.42435e-06
2.19263e-06
-9.83201e-07
9.25476e-07
-3.15082e-06
1.50839e-06
9.73203e-07
-1.89211e-06
-2.2659e-06
5.81799e-07
1.77618e-06
-2.53235e-06
-8.21125e-07
2.73925e-06
-2.41998e-06
-2.29389e-06
2.90532e-06
-2.31859e-06
-3.08415e-06
1.89478e-06
-2.14354e-06
-3.14241e-06
1.02556e-06
-1.76246e-06
6.54355e-07
-3.01544e-06
-1.43808e-06
1.34511e-06
3.04643e-06
1.46759e-06
-1.93717e-06
-3.07613e-06
4.25458e-07
3.5291e-06
2.10776e-06
-3.24798e-06
-6.36682e-07
3.4546e-06
2.93282e-06
-3.12499e-06
-1.71535e-06
3.30628e-06
3.05754e-06
-3.03523e-06
-2.41943e-06
3.28443e-06
2.01141e-06
-3.18105e-06
-2.82799e-06
2.79448e-06
1.4293e-06
-2.97373e-06
2.20006e-06
1.27836e-06
-3.01775e-06
-2.64503e-06
1.94324e-06
2.65029e-06
2.22272e-06
-2.27423e-06
1.13566e-06
3.4471e-06
3.93161e-06
-4.64034e-07
2.49082e-06
5.73206e-06
-2.34423e-06
1.78308e-06
5.97316e-06
-3.47049e-06
3.02382e-06
4.27339e-06
-3.4928e-06
2.49991e-06
2.15194e-06
1.49485e-06
1.39364e-06
-3.38066e-06
2.95794e-06
1.32875e-06
3.50095e-06
-2.64455e-06
1.03023e-06
1.33431e-06
5.40454e-06
8.47024e-08
1.15272e-07
3.35819e-06
-4.81617e-07
7.959e-08
2.72081e-06
-4.35456e-06
6.48985e-07
5.09137e-06
-3.72035e-06
1.40171e-06
3.5895e-06
7.57677e-07
1.67795e-06
-3.48861e-06
3.08637e-06
-3.49049e-07
4.51288e-06
-2.66385e-06
1.03259e-06
-6.11508e-07
7.02634e-06
-4.56131e-08
-7.23177e-08
2.21708e-06
-3.73282e-07
-1.03813e-09
1.10435e-06
-4.58079e-06
-2.87567e-07
4.679e-06
-3.74934e-06
-1.56599e-07
4.91075e-06
5.44061e-08
1.99406e-06
-3.52495e-06
3.06394e-06
-1.76011e-06
3.82123e-06
-2.72389e-06
1.07558e-06
-2.28324e-06
5.7338e-06
2.99219e-08
-1.61938e-06
2.98185e-06
-1.55114e-07
-8.74884e-07
1.8382e-06
-4.36942e-06
-1.73378e-06
4.3728e-06
-3.74905e-06
-1.43167e-06
4.28097e-06
-6.67829e-07
1.89544e-06
-3.51448e-06
2.53771e-06
-2.46696e-06
2.549e-06
-2.64696e-06
1.52828e-06
-3.09945e-06
4.48638e-06
-1.96758e-07
-3.17797e-06
6.09971e-06
-2.17793e-06
-3.10418e-06
6.0915e-06
-4.0123e-06
-2.82353e-06
5.05455e-06
-3.9051e-06
-2.025e-06
2.67849e-06
-1.50003e-06
1.49058e-06
-3.63816e-06
1.83264e-06
1.62536e-06
-2.31001e-06
-2.64204e-06
8.16413e-07
2.55864e-06
-2.86645e-06
-5.95841e-07
3.71457e-06
-2.74106e-06
-2.15061e-06
4.00584e-06
-2.65021e-06
-3.0872e-06
2.6828e-06
-2.6751e-06
-3.34356e-06
1.6261e-06
-2.3701e-06
1.28827e-06
-3.36438e-06
-2.11308e-06
1.5971e-06
2.90447e-06
2.85472e-06
-2.53431e-06
-3.35451e-06
5.45446e-07
3.14414e-06
3.33097e-06
-3.31608e-06
-4.55916e-07
2.89029e-06
4.0407e-06
-2.99703e-06
-1.28365e-06
2.53841e-06
4.19391e-06
-2.8471e-06
-2.04399e-06
2.84592e-06
3.24747e-06
-3.32134e-06
-2.83706e-06
2.8977e-06
2.81821e-06
-3.49336e-06
2.62543e-06
2.71043e-06
-3.48385e-06
-3.41015e-06
1.69699e-06
2.30028e-06
3.48285e-06
-2.35309e-06
8.35339e-07
2.95511e-06
4.98189e-06
-5.66735e-07
1.83371e-06
6.27989e-06
-2.05457e-06
9.05281e-07
5.95273e-06
-2.82473e-06
2.25232e-06
5.14016e-06
-3.29333e-06
2.2612e-06
3.2568e-06
1.66634e-06
2.78888e-06
-3.72962e-06
2.13361e-06
1.10487e-06
4.79953e-06
-2.23699e-06
6.60538e-07
7.36556e-07
5.84677e-06
-7.53974e-08
1.65492e-08
2.05082e-06
-3.04787e-07
2.54131e-08
1.45976e-06
-3.5302e-06
4.40628e-07
5.25855e-06
-3.42089e-06
1.26749e-06
4.47366e-06
7.4543e-07
2.96064e-06
-3.78268e-06
1.534e-06
-2.70272e-07
5.93212e-06
-1.92847e-06
1.57764e-07
-3.25907e-07
5.41322e-06
-1.02009e-07
-4.52187e-08
1.19368e-06
-2.33906e-07
-9.66346e-09
1.07807e-06
-4.09619e-06
-2.26575e-07
4.86813e-06
-3.53055e-06
-9.71238e-08
5.70982e-06
-1.36334e-07
3.17988e-06
-3.83443e-06
2.13253e-06
-1.52582e-06
5.15654e-06
-2.21222e-06
4.47417e-07
-1.76292e-06
5.52001e-06
-1.38783e-08
-7.66547e-07
1.29428e-06
-1.10848e-08
-1.64806e-07
9.2579e-07
-3.02521e-06
-1.24576e-06
4.02521e-06
-3.45806e-06
-1.3498e-06
5.08612e-06
-1.025e-06
3.10265e-06
-3.77653e-06
2.01971e-06
-2.32006e-06
3.82969e-06
-2.50645e-06
1.05026e-06
-2.49546e-06
5.64762e-06
-2.87622e-07
-2.31062e-06
5.77839e-06
-1.7256e-06
-1.6363e-06
4.78221e-06
-3.32546e-06
-2.05705e-06
5.90615e-06
-3.61707e-06
-2.09682e-06
3.71702e-06
-2.08272e-06
2.84387e-06
-3.91273e-06
1.84778e-06
2.99575e-06
-2.65837e-06
-2.8799e-06
7.92981e-07
3.80309e-06
-2.68617e-06
-4.75637e-07
4.94569e-06
-2.27299e-06
-1.77256e-06
5.28501e-06
-2.04111e-06
-2.5666e-06
3.90066e-06
-2.481e-06
-3.19042e-06
2.96599e-06
-2.81295e-06
2.71894e-06
-3.68587e-06
-3.01797e-06
1.61975e-06
2.28497e-06
-2.79381e-06
-3.00955e-06
4.75341e-06
5.2393e-07
2.1864e-06
-2.89132e-06
5.13241e-06
-2.42013e-07
1.48233e-06
-2.40291e-06
5.72763e-06
-7.46574e-07
1.03643e-06
-2.22962e-06
5.89185e-06
-1.49541e-06
1.92699e-06
-2.96493e-06
5.03493e-06
-2.43276e-06
2.48602e-06
-3.38804e-06
4.65829e-06
2.52499e-06
-3.32013e-06
-3.47105e-06
4.54429e-06
1.10071e-06
1.53973e-06
-2.1874e-06
5.31525e-06
1.69809e-07
1.55774e-06
6.54234e-06
-5.97169e-07
6.9673e-07
7.17379e-06
-1.34408e-06
1.84256e-07
6.37786e-06
-1.7773e-06
7.8293e-07
6.55021e-06
-2.60604e-06
1.592e-06
4.98055e-06
1.5267e-06
-3.43736e-06
4.61946e-06
4.45817e-07
7.56012e-07
-1.41558e-06
6.5534e-06
5.13746e-08
3.21345e-07
6.46086e-06
-8.87505e-08
-8.40201e-10
7.63655e-07
-2.66964e-07
3.30586e-10
5.82665e-07
-1.47831e-06
2.04501e-07
6.37991e-06
-2.44804e-06
9.9889e-07
6.03663e-06
6.51193e-07
-3.37647e-06
4.76483e-06
-1.00883e-07
-7.77372e-08
-7.80582e-07
7.50289e-06
-1.27637e-07
-8.45765e-09
4.45959e-06
-1.24226e-07
-7.58587e-09
5.12099e-07
3.06443e-08
-2.17198e-09
6.66898e-07
-2.09164e-06
-4.43033e-08
4.97412e-06
-2.52499e-06
-1.04291e-08
7.15269e-06
-2.64282e-07
-3.38445e-06
4.95517e-06
3.92958e-07
-9.78321e-07
-1.3069e-06
6.93712e-06
-1.30365e-09
-6.88966e-07
5.55007e-06
-3.71776e-08
-1.21346e-07
4.34743e-07
2.86279e-08
-2.4472e-09
4.27096e-07
-1.36702e-06
-6.09971e-08
3.94971e-06
-2.41362e-06
-8.37981e-07
6.55396e-06
-1.11921e-06
-3.33949e-06
4.8838e-06
1.12923e-06
-1.85574e-06
-2.11342e-06
5.69161e-06
2.03034e-07
-1.46772e-06
7.22029e-06
-3.69927e-07
-6.53063e-07
5.79712e-06
-1.20041e-06
-1.80994e-07
4.28014e-06
-2.041e-06
-8.50541e-07
7.11542e-06
-2.75981e-06
-1.78796e-06
5.38608e-06
-2.22499e-06
-3.49244e-06
4.68261e-06
1.61849e-06
-2.67069e-06
-2.73156e-06
4.92423e-06
5.59212e-07
-2.24288e-06
5.63779e-06
-3.48287e-07
-1.46412e-06
6.66445e-06
-1.16666e-06
-1.10645e-06
6.85942e-06
-1.77488e-06
-1.99873e-06
5.65722e-06
-2.55374e-06
-2.85597e-06
4.8131e-06
-3.30238e-06
-3.33426e-06
4.5772e-06
-2.53172e-06
-1.59693e-07
1.59262e-07
3.88868e-07
-2.70804e-06
-3.71375e-07
1.66448e-07
3.83167e-07
-2.98216e-06
-2.51575e-07
1.72131e-07
3.56614e-07
-3.29531e-06
-1.67032e-07
1.65355e-07
3.14788e-07
-3.61071e-06
-1.27574e-07
1.50682e-07
2.9018e-07
-3.90668e-06
-1.04695e-07
1.28745e-07
2.71882e-07
-4.17374e-06
-8.68258e-08
9.99516e-08
2.54977e-07
-7.27843e-08
6.57083e-08
2.40427e-07
-4.4071e-06
-1.96198e-06
1.68183e-07
2.22755e-07
-2.44658e-06
-1.16294e-07
2.28287e-07
-2.86174e-06
-7.28772e-08
2.33947e-07
-3.23423e-06
-2.15774e-08
2.26275e-07
-3.56697e-06
-1.75715e-09
2.0775e-07
-3.8569e-06
4.30896e-09
1.81694e-07
-4.10021e-06
6.78278e-09
1.48676e-07
7.73712e-09
1.0965e-07
-4.29043e-06
-2.01056e-06
2.46007e-07
2.76395e-07
-2.42459e-06
4.18075e-08
2.56506e-07
-2.84019e-06
7.76116e-08
2.67798e-07
-3.23726e-06
1.11741e-07
2.61547e-07
-3.58083e-06
1.00394e-07
2.38941e-07
-3.86892e-06
8.67536e-08
2.07946e-07
-4.10541e-06
7.43245e-08
1.68849e-07
6.36568e-08
1.23613e-07
-4.28504e-06
-1.81328e-06
1.66773e-07
3.16651e-07
-2.31129e-06
2.69063e-07
2.71126e-07
-2.75099e-06
2.39581e-07
2.76553e-07
-3.06989e-06
1.66164e-07
2.63276e-07
-3.35185e-06
1.45284e-07
2.3879e-07
-3.60273e-06
1.29834e-07
2.07515e-07
-3.81541e-06
1.15395e-07
1.7025e-07
1.02182e-07
1.275e-07
-3.98129e-06
-2.20693e-06
2.6768e-07
2.90974e-07
-2.64496e-06
4.4728e-07
2.58724e-07
-3.01356e-06
3.54e-07
2.53581e-07
-3.39111e-06
2.98926e-07
2.43857e-07
-3.72605e-06
2.63607e-07
2.17483e-07
-4.0155e-06
2.35803e-07
1.83722e-07
-4.25394e-06
2.11374e-07
1.42436e-07
1.93074e-07
9.41266e-08
-4.43848e-06
-2.20228e-06
5.29875e-07
2.19952e-07
-2.60776e-06
6.38249e-07
2.14358e-07
-3.01162e-06
5.41926e-07
2.16428e-07
-3.37996e-06
4.5971e-07
2.08275e-07
-3.70379e-06
4.02615e-07
1.8544e-07
-3.98884e-06
3.66814e-07
1.5482e-07
-4.23498e-06
3.38342e-07
1.16793e-07
3.1416e-07
7.25313e-08
-4.42975e-06
-2.64773e-06
1.52232e-07
7.25085e-07
-2.92638e-06
1.64619e-07
7.5238e-07
-3.18583e-06
1.6548e-07
6.37852e-07
-3.46668e-06
1.55205e-07
5.85398e-07
-3.75629e-06
1.35472e-07
5.57102e-07
-4.04284e-06
1.07648e-07
5.42779e-07
-4.30742e-06
7.22268e-08
5.31463e-07
3.02314e-08
5.16975e-07
-4.53923e-06
-3.08759e-06
-6.43507e-08
3.52543e-07
3.03235e-07
-3.51362e-06
-5.61138e-08
3.79313e-07
2.68933e-07
-3.91381e-06
-4.63089e-08
3.8263e-07
2.35685e-07
-4.28148e-06
-3.68363e-08
3.61683e-07
2.08114e-07
-4.60635e-06
-2.99801e-08
3.19988e-07
1.85461e-07
-4.88015e-06
-2.52008e-08
2.61258e-07
1.66362e-07
-5.0986e-06
-2.16091e-08
1.90011e-07
1.49897e-07
-1.84327e-08
1.09708e-07
1.35564e-07
-5.25976e-06
-3.28032e-06
6.23207e-08
4.80728e-07
-3.66885e-06
5.89913e-08
5.02023e-07
-4.04417e-06
5.929e-08
5.03651e-07
-4.38964e-06
5.79467e-08
4.76859e-07
-4.69025e-06
5.42427e-08
4.23997e-07
-4.9329e-06
4.92024e-08
3.49969e-07
-5.11061e-06
4.39153e-08
2.6088e-07
3.89648e-08
1.62075e-07
-5.2204e-06
-3.27684e-06
1.71724e-07
5.79503e-07
-3.68842e-06
1.46894e-07
5.79936e-07
-4.07643e-06
1.33753e-07
5.81307e-07
-4.42844e-06
1.20568e-07
5.5093e-07
-4.73056e-06
1.05717e-07
4.89375e-07
-4.96744e-06
9.12432e-08
4.02757e-07
-5.13162e-06
7.80208e-08
2.98914e-07
6.64988e-08
1.84546e-07
-5.22011e-06
-3.24792e-06
3.37525e-07
6.38669e-07
-3.69657e-06
2.6284e-07
6.03725e-07
-4.10421e-06
2.19459e-07
5.98614e-07
-4.47033e-06
1.86455e-07
5.63339e-07
-4.78284e-06
1.60157e-07
4.96818e-07
-5.02699e-06
1.38255e-07
4.04683e-07
-5.19372e-06
1.20162e-07
2.94852e-07
1.05188e-07
1.73815e-07
-5.2788e-06
-3.36652e-06
4.72216e-07
5.98091e-07
-3.7832e-06
3.74837e-07
5.63516e-07
-4.177e-06
3.10988e-07
5.55774e-07
-4.53241e-06
2.65824e-07
5.19927e-07
-4.83782e-06
2.29009e-07
4.53967e-07
-5.07832e-06
1.98617e-07
3.63871e-07
-5.24633e-06
1.73412e-07
2.57255e-07
1.52351e-07
1.39246e-07
-5.33859e-06
-3.48196e-06
5.52237e-07
4.71109e-07
-3.8527e-06
4.84594e-07
4.75237e-07
-4.22426e-06
4.29642e-07
4.69141e-07
-4.5676e-06
3.82322e-07
4.35241e-07
-4.86891e-06
3.40865e-07
3.74839e-07
-5.11422e-06
3.05064e-07
2.93742e-07
-5.29585e-06
2.73602e-07
1.98234e-07
2.45207e-07
9.05901e-08
-5.4068e-06
-3.3799e-06
3.43092e-07
7.25775e-07
-3.75714e-06
3.64643e-07
6.61575e-07
-4.12526e-06
3.61665e-07
6.01583e-07
-4.47152e-06
3.33162e-07
5.50601e-07
-4.78356e-06
2.82806e-07
5.05651e-07
-5.0512e-06
2.1516e-07
4.65221e-07
-5.2681e-06
1.34654e-07
4.28018e-07
4.10036e-08
3.93094e-07
-5.42683e-06
-3.69619e-06
1.32726e-07
7.45268e-07
1.52866e-07
-4.36536e-06
1.12447e-07
8.24986e-07
1.10687e-07
-5.03644e-06
1.12943e-07
8.62113e-07
7.81194e-08
-5.69836e-06
1.14022e-07
8.56077e-07
5.33614e-08
-6.3333e-06
1.12573e-07
8.07491e-07
3.48484e-08
-6.9192e-06
1.08765e-07
7.17034e-07
2.1395e-08
-7.43007e-06
1.03367e-07
5.85515e-07
1.2e-08
9.7258e-08
4.1684e-07
5.80998e-09
-7.84024e-06
-3.95184e-06
2.08801e-07
9.75497e-07
-4.57192e-06
1.83648e-07
1.05099e-06
-5.21069e-06
1.71602e-07
1.08389e-06
-5.84719e-06
1.61115e-07
1.06631e-06
-6.45808e-06
1.49768e-07
9.9763e-07
-7.01594e-06
1.37867e-07
8.78639e-07
-7.48793e-06
1.25809e-07
7.10386e-07
1.13797e-07
4.97788e-07
-7.84014e-06
-4.04597e-06
2.08536e-07
1.13686e-06
-4.6574e-06
1.77056e-07
1.19778e-06
-5.28916e-06
1.55482e-07
1.22927e-06
-5.92023e-06
1.37334e-07
1.20568e-06
-6.52471e-06
1.20042e-07
1.12368e-06
-7.07224e-06
1.04042e-07
9.8427e-07
-7.52586e-06
8.9544e-08
7.88979e-07
7.63722e-08
5.43646e-07
-7.8474e-06
-4.0916e-06
2.11403e-07
1.20219e-06
-4.70599e-06
1.53954e-07
1.24099e-06
-5.34035e-06
1.18909e-07
1.26967e-06
-5.97245e-06
8.96e-08
1.24316e-06
-6.57589e-06
6.4382e-08
1.15589e-06
-7.11947e-06
4.35077e-08
1.00881e-06
-7.5655e-06
2.67086e-08
8.03782e-07
1.35639e-08
5.47039e-07
-7.87593e-06
-4.10667e-06
2.59863e-07
1.14178e-06
-4.73955e-06
1.74617e-07
1.17594e-06
-5.38122e-06
1.16369e-07
1.19991e-06
-6.01401e-06
7.08968e-08
1.17155e-06
-6.61645e-06
3.55024e-08
1.08526e-06
-7.16024e-06
9.2156e-09
9.42007e-07
-7.60953e-06
-1.03735e-08
7.43729e-07
-2.42801e-08
4.96693e-07
-7.9291e-06
-4.16767e-06
2.99855e-07
9.60551e-07
-4.77693e-06
2.41484e-07
1.01746e-06
-5.40631e-06
1.74607e-07
1.04006e-06
-6.0315e-06
1.17969e-07
1.0133e-06
-6.63061e-06
7.36257e-08
9.35702e-07
-7.17685e-06
4.05499e-08
8.08551e-07
-7.6394e-06
1.67128e-08
6.33606e-07
-9.50105e-10
4.16576e-07
-7.98882e-06
-3.98543e-06
7.29653e-07
5.33963e-07
-4.61364e-06
7.99948e-07
4.34017e-07
-5.25667e-06
8.27431e-07
3.51599e-07
-5.89995e-06
8.10639e-07
2.83547e-07
-6.52238e-06
7.50723e-07
2.28019e-07
-7.09956e-06
6.49196e-07
1.83589e-07
-7.60499e-06
5.07786e-07
1.48888e-07
3.31553e-07
1.22852e-07
-8.01945e-06
-4.68536e-06
3.13835e-07
1.6213e-06
1.18536e-08
-5.95812e-06
2.91442e-07
1.83072e-06
-2.43742e-08
-7.28308e-06
2.91574e-07
1.94251e-06
-4.71017e-08
-8.5844e-06
2.86683e-07
1.9327e-06
-6.20125e-08
-9.75873e-06
2.75503e-07
1.77759e-06
-7.12013e-08
-1.06888e-05
2.59444e-07
1.46426e-06
-7.6466e-08
-1.12638e-05
2.39927e-07
9.99963e-07
-7.91544e-08
2.18817e-07
4.06411e-07
-8.01565e-08
-1.13919e-05
-4.84701e-06
3.30317e-07
2.07659e-06
-6.10194e-06
3.07096e-07
2.29059e-06
-7.42946e-06
2.98031e-07
2.40531e-06
-8.74736e-06
2.85322e-07
2.3858e-06
-9.94161e-06
2.6849e-07
2.19896e-06
-1.08745e-05
2.47913e-07
1.82305e-06
-1.14079e-05
2.23812e-07
1.25986e-06
1.96775e-07
5.30136e-07
-1.14182e-05
-4.89769e-06
2.11166e-07
2.37115e-06
-6.15183e-06
1.73292e-07
2.5859e-06
-7.48461e-06
1.50991e-07
2.70918e-06
-8.81608e-06
1.31602e-07
2.6909e-06
-1.0027e-05
1.1385e-07
2.48937e-06
-1.09673e-05
9.76661e-08
2.07485e-06
-1.14806e-05
8.25219e-08
1.44368e-06
6.79787e-08
6.15164e-07
-1.14232e-05
-4.94106e-06
4.29428e-08
2.4771e-06
-6.19383e-06
-1.48546e-08
2.68187e-06
-7.52524e-06
-5.55308e-08
2.80764e-06
-8.85788e-06
-8.3082e-08
2.79052e-06
-1.00717e-05
-1.01104e-07
2.58465e-06
-1.10124e-05
-1.09774e-07
2.15695e-06
-1.15175e-05
-1.10109e-07
1.50154e-06
-1.03638e-07
6.37481e-07
-1.14363e-05
-4.92368e-06
-4.07472e-08
2.3727e-06
-6.20403e-06
-1.28501e-07
2.57008e-06
-7.55006e-06
-1.96405e-07
2.68686e-06
-8.88464e-06
-2.41237e-07
2.66435e-06
-1.00939e-05
-2.66055e-07
2.45947e-06
-1.10297e-05
-2.74011e-07
2.0421e-06
-1.15365e-05
-2.68117e-07
1.40867e-06
-2.51337e-07
5.79999e-07
-1.1472e-05
-5.00793e-06
-4.88414e-08
2.06382e-06
-6.25176e-06
-1.31501e-07
2.26431e-06
-7.57179e-06
-2.06573e-07
2.37027e-06
-8.88163e-06
-2.61313e-07
2.34318e-06
-1.00668e-05
-2.9468e-07
2.14945e-06
-1.0989e-05
-3.10344e-07
1.76709e-06
-1.15093e-05
-3.12456e-07
1.19818e-06
-3.05043e-07
4.66529e-07
-1.15055e-05
-4.84202e-06
1.60972e-06
2.27169e-07
-6.09213e-06
1.81205e-06
1.0644e-07
-7.40824e-06
1.9169e-06
2.00373e-08
-8.70617e-06
1.89956e-06
-5.24009e-08
-9.88125e-06
1.7358e-06
-1.04717e-07
-1.0812e-05
1.41267e-06
-1.43126e-07
-1.13836e-05
9.38392e-07
-1.71518e-07
3.39302e-07
-1.91584e-07
-1.15048e-05
-4.72037e-06
3.87716e-07
-8.8764e-08
2.72338e-06
-6.3151e-06
3.91078e-07
-1.11059e-07
3.14617e-06
-8.10572e-06
3.97819e-07
-1.21329e-07
3.45715e-06
-1.00613e-05
3.96378e-07
-1.24377e-07
3.61655e-06
-1.21477e-05
3.9153e-07
-1.2227e-07
3.59503e-06
-1.43295e-05
3.84048e-07
-1.1684e-07
3.37913e-06
-1.65611e-05
3.66805e-07
-1.09295e-07
2.97442e-06
3.35565e-07
-1.00403e-07
-1.88647e-05
2.47502e-06
-4.80881e-06
3.63406e-07
3.47325e-06
-6.38707e-06
3.5961e-07
3.9008e-06
-8.16129e-06
3.60546e-07
4.21717e-06
-1.01056e-05
3.56297e-07
4.37049e-06
-1.21803e-05
3.49835e-07
4.31566e-06
-1.43374e-05
3.4088e-07
4.02342e-06
-1.65291e-05
3.25169e-07
3.49348e-06
2.97761e-07
-1.88085e-05
2.84745e-06
-4.77842e-06
1.75981e-07
3.96106e-06
-6.36007e-06
1.39487e-07
4.38802e-06
-8.1262e-06
1.20199e-07
4.71573e-06
-1.00619e-05
1.05766e-07
4.87726e-06
-1.21311e-05
9.63005e-08
4.81219e-06
-1.42824e-05
9.06414e-08
4.47645e-06
-1.64602e-05
8.62732e-08
3.86049e-06
7.9977e-08
-1.87339e-05
3.10673e-06
-4.7795e-06
-9.38281e-08
4.14235e-06
-6.35637e-06
-1.58444e-07
4.55687e-06
-8.1115e-06
-2.02938e-07
4.88593e-06
-1.00356e-05
-2.30699e-07
5.05118e-06
-1.20957e-05
-2.43524e-07
4.98455e-06
-1.42401e-05
-2.43294e-07
4.63532e-06
-1.64105e-05
-2.3155e-07
3.98984e-06
-2.0899e-07
-1.86817e-05
3.19759e-06
-4.76286e-06
-2.71154e-07
3.97368e-06
-6.35483e-06
-3.79716e-07
4.3835e-06
-8.11669e-06
-4.57373e-07
4.70338e-06
-1.00414e-05
-5.02905e-07
4.86136e-06
-1.20974e-05
-5.23248e-07
4.79535e-06
-1.42363e-05
-5.22637e-07
4.46042e-06
-1.64036e-05
-5.0137e-07
3.84585e-06
-4.58194e-07
-1.86673e-05
3.09304e-06
-4.83366e-06
-3.43032e-07
3.47726e-06
-6.38938e-06
-4.50315e-07
3.89105e-06
-8.13773e-06
-5.38242e-07
4.19986e-06
-1.00536e-05
-5.93161e-07
4.34948e-06
-1.20996e-05
-6.21044e-07
4.29352e-06
-1.42308e-05
-6.26032e-07
4.00191e-06
-1.64012e-05
-6.04869e-07
3.47216e-06
-5.56552e-07
-1.86624e-05
2.82625e-06
-4.66536e-06
-9.62898e-08
2.72667e-06
-6.22831e-06
-2.1961e-07
3.14493e-06
-7.99635e-06
-3.06776e-07
3.45393e-06
-9.93442e-06
-3.67488e-07
3.61225e-06
-1.20055e-05
-4.03162e-07
3.58928e-06
-1.41731e-05
-4.16855e-07
3.37133e-06
-1.63899e-05
-4.11786e-07
2.96237e-06
-3.90595e-07
-1.86757e-05
2.45945e-06
-1.64455e-06
4.5049e-07
2.21487e-07
-2.59096e-07
-1.8844e-06
2.73856e-07
2.20812e-07
-2.54706e-07
-2.15375e-06
2.21406e-07
2.19188e-07
-1.6953e-07
-2.51756e-06
2.93031e-07
2.03507e-07
-1.33208e-07
-2.88865e-06
3.00337e-07
1.78907e-07
-1.09322e-07
-3.2489e-06
3.12529e-07
1.45111e-07
-9.61887e-08
-3.5923e-06
3.26946e-07
1.034e-07
-8.67288e-08
3.40907e-07
5.45315e-08
-8.10382e-08
-3.90644e-06
-1.39397e-06
5.09107e-07
3.83187e-07
-1.56628e-06
1.33313e-07
3.13146e-07
-1.78555e-06
1.18063e-07
3.23037e-07
-2.03593e-06
2.31437e-07
3.12553e-07
-2.28402e-06
2.52237e-07
2.95686e-07
-2.5301e-06
2.87574e-07
2.7141e-07
-2.76418e-06
3.20568e-07
2.40499e-07
3.44219e-07
2.0461e-07
-2.97192e-06
-1.42848e-06
-1.23466e-08
6.23162e-07
-1.58787e-06
-1.11085e-07
4.03144e-07
-1.78781e-06
-9.29262e-08
4.12282e-07
-1.9199e-06
-4.49172e-08
4.09219e-07
-2.0633e-06
-1.62675e-08
4.13217e-07
-2.19649e-06
1.00538e-08
4.11029e-07
-2.31445e-06
3.95527e-08
3.98754e-07
7.16456e-08
3.76485e-07
-2.41821e-06
-1.55583e-06
-6.80094e-07
7.06242e-07
-1.81323e-06
-2.98032e-07
4.44865e-07
-1.97258e-06
-3.74702e-07
4.41569e-07
-2.09351e-06
-3.72386e-07
4.47748e-07
-2.19557e-06
-3.7613e-07
4.62629e-07
-2.27688e-06
-3.83312e-07
4.74899e-07
-2.31016e-06
-4.08926e-07
4.81947e-07
-4.21967e-07
4.78741e-07
-2.2951e-06
-1.04253e-06
-1.15407e-06
5.43433e-07
-1.21245e-06
-4.99492e-07
3.71014e-07
-1.47617e-06
-5.0145e-07
3.91087e-07
-1.67696e-06
-5.56976e-07
3.86021e-07
-1.87798e-06
-5.58427e-07
3.83406e-07
-2.08318e-06
-5.47448e-07
3.69356e-07
-2.29015e-06
-5.57341e-07
3.55592e-07
-5.77569e-07
3.33171e-07
-2.4675e-06
-1.4395e-06
-8.97606e-07
3.3923e-07
-1.64756e-06
-5.712e-07
2.80871e-07
-1.92862e-06
-5.25063e-07
3.06552e-07
-2.18715e-06
-5.91098e-07
2.93411e-07
-2.42787e-06
-5.96652e-07
2.78221e-07
-2.62745e-06
-6.03884e-07
2.55409e-07
-2.82016e-06
-5.87886e-07
2.24238e-07
-5.89326e-07
1.92298e-07
-3.00051e-06
-1.56423e-06
2.05489e-07
-5.79826e-07
-1.80759e-06
2.11337e-07
-5.38714e-07
-2.09991e-06
2.13209e-07
-4.47974e-07
-2.49802e-06
2.03957e-07
-3.97575e-07
-2.90746e-06
1.86294e-07
-3.7336e-07
-3.3045e-06
1.60455e-07
-3.65932e-07
-3.66013e-06
1.26392e-07
-3.58459e-07
8.57291e-08
-3.50206e-07
-3.98481e-06
-2.30471e-06
3.76071e-07
4.34051e-07
-1.75882e-07
-2.7267e-06
3.43877e-07
4.41557e-07
-1.42462e-07
-3.1436e-06
3.16455e-07
4.37124e-07
-1.17457e-07
-3.54841e-06
3.05176e-07
4.05082e-07
-1.01761e-07
-3.92411e-06
2.97924e-07
3.47209e-07
-9.03585e-08
-4.25827e-06
2.92966e-07
2.68502e-07
-8.19465e-08
-4.54261e-06
2.87971e-07
1.75259e-07
-7.54054e-08
2.82461e-07
6.93498e-08
-7.01464e-08
-4.76969e-06
-2.50131e-06
2.74078e-07
7.3295e-07
-2.74276e-06
2.47952e-07
6.50816e-07
-3.00549e-06
2.55066e-07
6.47641e-07
-3.28716e-06
2.69891e-07
6.30052e-07
-3.56326e-06
2.84633e-07
5.85564e-07
-3.81372e-06
3.01679e-07
5.13376e-07
-4.02197e-06
3.16969e-07
4.19911e-07
3.29756e-07
3.15034e-07
-4.17962e-06
-2.48172e-06
-1.44485e-07
1.1987e-06
-2.59738e-06
-1.23415e-07
8.90008e-07
-2.71407e-06
-7.86868e-08
8.62995e-07
-2.86309e-06
-4.46788e-08
8.72842e-07
-3.01251e-06
-1.6163e-08
8.63623e-07
-3.13494e-06
1.11304e-08
8.24706e-07
-3.21421e-06
3.54336e-08
7.60279e-07
5.76698e-08
6.80035e-07
-3.24646e-06
-2.47306e-06
-6.84167e-07
1.39917e-06
-2.56347e-06
-5.65302e-07
9.77152e-07
-2.6387e-06
-5.02484e-07
9.41055e-07
-2.74321e-06
-4.63251e-07
9.70728e-07
-2.84575e-06
-4.37323e-07
9.86468e-07
-2.91471e-06
-4.1895e-07
9.74119e-07
-2.92938e-06
-4.04271e-07
9.36503e-07
-3.90257e-07
8.82248e-07
-2.88475e-06
-2.38293e-06
-9.64506e-07
1.04697e-06
-2.56109e-06
-8.30806e-07
8.14618e-07
-2.73574e-06
-7.56477e-07
8.20119e-07
-2.93161e-06
-7.13253e-07
8.31978e-07
-3.12362e-06
-6.81046e-07
8.19359e-07
-3.29309e-06
-6.56278e-07
7.76523e-07
-3.41465e-06
-6.35256e-07
7.0887e-07
-6.16966e-07
6.26772e-07
-3.48143e-06
-2.28067e-06
-8.94089e-07
6.48383e-07
-2.64142e-06
-8.00957e-07
6.11498e-07
-2.97915e-06
-7.31263e-07
6.19299e-07
-3.31509e-06
-6.88287e-07
6.04487e-07
-3.62878e-06
-6.5156e-07
5.62994e-07
-3.90538e-06
-6.1964e-07
4.95965e-07
-4.13628e-06
-5.90102e-07
4.09818e-07
-5.61361e-07
3.13443e-07
-4.31325e-06
-2.05005e-06
4.09988e-07
-5.62272e-07
-2.5627e-06
4.29539e-07
-5.06023e-07
-3.05073e-06
4.31167e-07
-4.61201e-07
-3.51419e-06
4.05447e-07
-4.26106e-07
-3.93832e-06
3.55277e-07
-3.96338e-07
-4.31229e-06
2.85011e-07
-3.70196e-07
-4.63032e-06
2.00677e-07
-3.46399e-07
1.0685e-07
-3.24131e-07
-4.88871e-06
-2.99395e-06
4.60428e-07
7.99403e-07
-1.42325e-07
-3.67459e-06
3.83012e-07
8.47906e-07
-1.0898e-07
-4.366e-06
3.45618e-07
8.74339e-07
-9.21957e-08
-5.0508e-06
3.16124e-07
8.55627e-07
-8.21233e-08
-5.70898e-06
2.899e-07
7.90413e-07
-7.50841e-08
-6.31688e-06
2.64842e-07
6.81175e-07
-6.97864e-08
-6.84734e-06
2.40031e-07
5.31e-07
-6.5544e-08
2.16985e-07
3.46156e-07
-6.19604e-08
-7.2793e-06
-3.07659e-06
3.81655e-07
1.24052e-06
-3.57061e-06
3.53362e-07
1.17408e-06
-4.12277e-06
3.43891e-07
1.20154e-06
-4.70367e-06
3.2677e-07
1.20033e-06
-5.28605e-06
3.13114e-07
1.14517e-06
-5.8404e-06
2.9995e-07
1.03237e-06
-6.33014e-06
2.85198e-07
8.63556e-07
2.69072e-07
6.45374e-07
-6.71261e-06
-2.94635e-06
-7.80453e-08
1.88004e-06
-3.20243e-06
-3.10694e-08
1.53022e-06
-3.55153e-06
2.45036e-08
1.53155e-06
-3.9773e-06
5.30867e-08
1.57217e-06
-4.44057e-06
7.41145e-08
1.56578e-06
-4.90276e-06
9.26624e-08
1.49416e-06
-5.31821e-06
1.07768e-07
1.35492e-06
1.18943e-07
1.15289e-06
-5.63851e-06
-2.86343e-06
-6.78116e-07
2.19864e-06
-3.04802e-06
-5.52373e-07
1.68293e-06
-3.30586e-06
-4.49025e-07
1.67254e-06
-3.6501e-06
-3.74777e-07
1.74249e-06
-4.03913e-06
-3.22035e-07
1.77096e-06
-4.42656e-06
-2.80511e-07
1.73467e-06
-4.76465e-06
-2.45091e-07
1.62752e-06
-2.15246e-07
1.45374e-06
-5.00184e-06
-2.94224e-06
-1.04063e-06
1.70708e-06
-3.28447e-06
-8.57939e-07
1.46209e-06
-3.68507e-06
-7.32747e-07
1.5054e-06
-4.14237e-06
-6.40503e-07
1.55422e-06
-4.62636e-06
-5.68439e-07
1.54926e-06
-5.10434e-06
-5.06426e-07
1.47954e-06
-5.53129e-06
-4.52338e-07
1.34312e-06
-4.05397e-07
1.14568e-06
-5.85988e-06
-2.87319e-06
-9.44027e-07
1.1506e-06
-3.49015e-06
-7.82668e-07
1.15267e-06
-4.11746e-06
-6.85487e-07
1.19925e-06
-4.75042e-06
-6.09184e-07
1.20612e-06
-5.37162e-06
-5.4297e-07
1.15885e-06
-5.95404e-06
-4.83847e-07
1.05576e-06
-6.46354e-06
-4.31019e-07
8.97746e-07
-3.84553e-07
6.90248e-07
-6.86123e-06
-2.7539e-06
7.81759e-07
-4.99666e-07
-3.5295e-06
8.48661e-07
-4.26463e-07
-4.29329e-06
8.82753e-07
-3.73787e-07
-5.03703e-06
8.70956e-07
-3.30971e-07
-5.74346e-06
8.13532e-07
-2.94738e-07
-6.39137e-06
7.12477e-07
-2.63566e-07
-6.95527e-06
5.69877e-07
-2.36525e-07
3.90681e-07
-2.13144e-07
-7.41062e-06
-3.92923e-06
4.84872e-07
1.66913e-06
-8.39225e-08
-5.27963e-06
4.03579e-07
1.85429e-06
-6.01733e-08
-6.67536e-06
3.56579e-07
1.9606e-06
-4.77007e-08
-8.03176e-06
3.04058e-07
1.94696e-06
-3.91992e-08
-9.24319e-06
2.47849e-07
1.7864e-06
-3.26812e-08
-1.01906e-05
1.916e-07
1.46398e-06
-2.73303e-08
-1.07608e-05
1.37256e-07
9.86388e-07
-2.2721e-08
8.55958e-08
3.79913e-07
-1.86791e-08
-1.08615e-05
-3.54822e-06
4.59833e-07
2.3068e-06
-4.81522e-06
4.34558e-07
2.40974e-06
-6.17731e-06
3.95291e-07
2.52418e-06
-7.53999e-06
3.43227e-07
2.52356e-06
-8.78707e-06
2.87615e-07
2.35252e-06
-9.77679e-06
2.30536e-07
1.98278e-06
-1.03638e-05
1.73927e-07
1.41353e-06
1.17107e-07
6.66148e-07
-1.04161e-05
-2.93078e-06
1.87253e-08
3.03903e-06
-3.98148e-06
1.13283e-07
2.90189e-06
-5.22495e-06
1.52531e-07
3.01749e-06
-6.53605e-06
1.62136e-07
3.06572e-06
-7.77978e-06
1.6285e-07
2.93494e-06
-8.79153e-06
1.57529e-07
2.57831e-06
-9.3951e-06
1.47101e-07
1.98414e-06
1.3416e-07
1.16269e-06
-9.42318e-06
-2.59586e-06
-5.50966e-07
3.43547e-06
-3.53819e-06
-3.8205e-07
3.12045e-06
-4.69362e-06
-2.57323e-07
3.2376e-06
-5.94278e-06
-1.75457e-07
3.32874e-06
-7.14219e-06
-1.15811e-07
3.2487e-06
-8.11881e-06
-6.8418e-08
2.93703e-06
-8.68921e-06
-3.10447e-08
2.37604e-06
-2.49422e-09
1.56066e-06
-8.6595e-06
-3.06137e-06
-9.07943e-07
2.88839e-06
-4.15386e-06
-6.87737e-07
2.86005e-06
-5.38887e-06
-5.27955e-07
3.01059e-06
-6.68093e-06
-4.00567e-07
3.07063e-06
-7.90452e-06
-2.91814e-07
2.94804e-06
-8.89327e-06
-1.98602e-07
2.59843e-06
-9.47522e-06
-1.19083e-07
2.01317e-06
-5.06369e-08
1.19945e-06
-9.48075e-06
-3.54423e-06
-8.00896e-07
2.23453e-06
-4.8696e-06
-6.11137e-07
2.40111e-06
-6.25042e-06
-4.83764e-07
2.53558e-06
-7.61939e-06
-3.70633e-07
2.54499e-06
-8.86714e-06
-2.6915e-07
2.38377e-06