/*--------------------------------*- C++ -*----------------------------------*\
| =========                 |                                                 |
| \\      /  F ield         | OpenFOAM: The Open Source CFD Toolbox           |
|  \\    /   O peration     | Version:  plus.master                           |
|   \\  /    A nd           | Web:      www.OpenFOAM.com                      |
|    \\/     M anipulation  |                                                 |
\*---------------------------------------------------------------------------*/
FoamFile
{
    version     2.0;
    format      ascii;
    class       surfaceScalarField;
    location    "13";
    object      phi;
}
// * * * * * * * * * * * * * * * * * * * * * * * * * * * * * * * * * * * * * //

dimensions      [0 3 -1 0 0 0 0];

internalField   nonuniform List<scalar> 
138768
(
3.50155e-07
1.79391e-06
4.70088e-07
-8.45278e-07
-1.90015e-06
2.77722e-07
4.14409e-07
8.76538e-07
-1.30836e-06
-8.77741e-07
1.17557e-06
1.31703e-06
-1.50363e-06
-2.08874e-06
1.1186e-06
1.33916e-06
-1.40028e-06
-2.45466e-06
5.34661e-07
9.08315e-07
-1.1358e-06
-1.79064e-06
-3.16927e-07
5.55961e-07
-9.06999e-07
1.19156e-06
3.40297e-07
-1.98642e-06
-1.38386e-06
-8.40795e-07
2.29578e-06
8.82591e-07
-5.43516e-07
4.55026e-07
2.81173e-06
2.76094e-06
-5.65038e-07
5.12214e-06
3.52722e-06
-2.56385e-06
5.73716e-06
3.83409e-06
-2.78792e-06
4.13366e-06
3.07907e-06
-3.7121e-07
1.63996e-06
2.08008e-06
1.46959e-06
5.10758e-07
-1.33724e-06
1.39586e-07
1.3963e-06
1.42222e-06
-6.65684e-07
3.32687e-06
1.86644e-06
4.21201e-06
1.65667e-06
3.61696e-06
9.62954e-06
-4.40242e-06
7.20371e-06
1.10461e-05
-5.09024e-06
3.22769e-06
8.04659e-06
-1.04519e-06
1.3477e-06
2.70078e-06
9.83804e-07
8.05619e-07
-1.55076e-06
1.07283e-06
-3.19535e-07
1.84262e-06
-1.25069e-06
5.5627e-06
-8.16549e-07
4.64703e-06
5.86832e-06
-2.818e-06
1.25826e-05
-8.08576e-06
-5.32117e-06
3.29324e-05
-5.92523e-06
-2.11178e-06
9.62901e-06
-1.16325e-06
-1.84014e-07
3.22359e-06
5.9361e-08
1.04665e-06
-1.49939e-06
6.04957e-07
-1.45976e-06
1.55766e-06
-1.02545e-06
3.95894e-06
-1.94083e-06
4.22432e-06
2.0726e-06
-4.63241e-06
1.01534e-05
-4.66482e-06
-5.57072e-06
1.34369e-05
-5.45781e-06
-3.21465e-06
8.34963e-06
-1.28924e-06
-7.56439e-07
2.85786e-06
-6.50677e-07
9.41532e-07
-1.76523e-06
-5.62201e-07
-1.24342e-06
9.9412e-07
-6.52697e-07
8.99409e-07
-8.16279e-08
3.13307e-06
-3.92378e-07
-9.43953e-07
4.057e-06
-3.00251e-06
-1.04096e-06
4.53396e-06
-3.57117e-06
5.2247e-08
3.75575e-06
-7.41684e-07
7.35866e-07
2.13213e-06
-5.40252e-07
5.94573e-07
-1.65306e-06
5.50104e-07
5.32449e-07
-1.02714e-06
-1.419e-06
3.4196e-07
1.00656e-06
-9.75327e-07
-9.76796e-07
1.5573e-06
-1.29162e-06
-2.53175e-06
1.63318e-06
-1.22184e-06
-2.90734e-06
1.11739e-06
-6.90451e-07
-2.24502e-06
6.52934e-07
-5.82462e-07
3.45774e-07
-2.32314e-06
-1.03912e-06
8.501e-07
2.57549e-06
9.04628e-07
-1.33576e-06
-2.52438e-06
9.79819e-08
2.6938e-06
1.52719e-06
-2.59224e-06
-8.8218e-07
2.42164e-06
2.25558e-06
-2.38081e-06
-1.8026e-06
2.20885e-06
2.29622e-06
-2.2455e-06
-2.28788e-06
2.17262e-06
1.47372e-06
-2.25287e-06
-2.4508e-06
1.89817e-06
9.07047e-07
-2.08656e-06
1.51289e-06
6.99186e-07
-2.48912e-06
-1.83335e-06
1.24599e-06
2.28856e-06
1.55431e-06
-1.63064e-06
5.9093e-07
2.90072e-06
3.20903e-06
-7.40011e-07
2.32124e-06
4.9585e-06
-2.27709e-06
1.99484e-06
5.58493e-06
-3.04793e-06
2.33484e-06
3.68756e-06
-2.72227e-06
1.75371e-06
1.89894e-06
1.09131e-06
8.66377e-07
-2.65634e-06
1.66546e-06
1.32822e-06
2.53008e-06
-1.81296e-06
1.4115e-06
1.61681e-06
5.74975e-06
1.92946e-07
1.87977e-06
1.12891e-05
-2.81799e-06
1.16948e-06
1.48822e-05
-2.67295e-06
2.18274e-06
8.05259e-06
-2.57291e-06
1.19827e-06
3.15602e-06
6.65667e-07
1.23856e-06
-2.58019e-06
2.09451e-06
-2.43505e-07
3.28633e-06
-1.96661e-06
1.79824e-06
-5.87172e-07
7.14696e-06
-2.22268e-07
-9.57546e-07
1.74401e-05
-3.09935e-06
8.0079e-07
3.61765e-05
-2.56897e-06
-7.16785e-07
1.19968e-05
-2.35383e-06
4.09891e-08
4.16552e-06
2.39522e-07
1.58002e-06
-2.46108e-06
1.9317e-06
-1.42405e-06
2.78974e-06
-1.98379e-06
1.64958e-06
-2.17548e-06
6.09465e-06
3.83888e-07
-2.04813e-06
1.25085e-05
-2.3195e-06
-1.56558e-06
1.85052e-05
-2.58001e-06
-1.57521e-06
9.46821e-06
-2.60285e-06
-7.01098e-07
3.62261e-06
-2.53927e-07
1.47124e-06
-2.63923e-06
1.72489e-06
-1.97502e-06
1.78867e-06
-1.96847e-06
1.13668e-06
-2.28004e-06
3.82575e-06
-5.6559e-07
-2.17951e-06
5.89036e-06
-2.53416e-06
-1.99633e-06
6.93278e-06
-3.36904e-06
-1.66732e-06
4.68253e-06
-3.07452e-06
-1.11638e-06
2.25273e-06
-8.16892e-07
9.89173e-07
-2.90617e-06
1.29624e-06
1.03248e-06
-1.70072e-06
-2.07048e-06
4.37313e-07
1.832e-06
-2.24651e-06
-8.81031e-07
2.78503e-06
-2.08943e-06
-2.21691e-06
2.93589e-06
-1.96335e-06
-2.89876e-06
1.94483e-06
-1.81307e-06
-2.93552e-06
1.0892e-06
-1.51583e-06
7.12045e-07
-2.84131e-06
-1.27724e-06
1.30889e-06
2.99762e-06
1.55475e-06
-1.90916e-06
-3.04756e-06
4.02821e-07
3.42011e-06
2.20715e-06
-3.19415e-06
-6.41151e-07
3.31353e-06
3.04746e-06
-3.06141e-06
-1.69322e-06
3.16639e-06
3.16157e-06
-2.97976e-06
-2.38961e-06
3.16744e-06
2.12298e-06
-3.12045e-06
-2.7945e-06
2.71058e-06
1.52735e-06
-2.92602e-06
2.16781e-06
1.35465e-06
-2.99589e-06
-2.62193e-06
1.8427e-06
2.59696e-06
2.32164e-06
-2.20945e-06
1.03504e-06
3.40322e-06
4.03331e-06
-5.47724e-07
3.53341e-06
6.3215e-06
-2.38665e-06
3.34968e-06
7.24047e-06
-3.36137e-06
3.44811e-06
4.38124e-06
-3.40766e-06
2.3886e-06
2.2673e-06
1.47357e-06
1.48947e-06
-3.33668e-06
2.73987e-06
1.34292e-06
3.59662e-06
-2.55234e-06
2.54599e-06
1.86728e-06
7.47928e-06
5.25657e-07
2.71406e-06
1.41281e-05
-3.06606e-06
2.68322e-06
1.91394e-05
-4.08487e-06
2.56967e-06
9.94961e-06
-3.61035e-06
1.38022e-06
3.68972e-06
7.52618e-07
1.78738e-06
-3.43805e-06
2.94298e-06
-3.32278e-07
4.6124e-06
-2.59415e-06
2.7243e-06
-7.66709e-07
9.99932e-06
-1.92619e-07
-1.11908e-06
2.41891e-05
-4.89441e-06
2.86016e-07
4.3275e-05
-4.35932e-06
-1.02086e-06
1.50526e-05
-3.63484e-06
-1.34526e-07
4.95564e-06
5.90967e-08
2.10955e-06
-3.47075e-06
2.89614e-06
-1.71232e-06
3.92298e-06
-2.64948e-06
2.79478e-06
-2.6966e-06
8.12555e-06
6.37252e-07
-3.13772e-06
1.66844e-05
-3.27346e-06
-2.89094e-06
2.55906e-05
-4.09848e-06
-2.6663e-06
1.19383e-05
-3.63103e-06
-1.3187e-06
4.33916e-06
-6.43335e-07
2.0069e-06
-3.46432e-06
2.4311e-06
-2.41884e-06
2.64911e-06
-2.58489e-06
1.71006e-06
-2.98875e-06
4.83875e-06
-3.14295e-07
-3.04033e-06
7.81725e-06
-2.82425e-06
-2.9346e-06
9.48629e-06
-3.90389e-06
-2.68493e-06
5.78066e-06
-3.82123e-06
-1.93882e-06
2.79e-06
-1.46858e-06
1.589e-06
-3.59597e-06
1.79041e-06
1.71547e-06
-2.28116e-06
-2.61132e-06
7.83775e-07
2.6588e-06
-2.80912e-06
-6.19438e-07
3.82446e-06
-2.67653e-06
-2.13195e-06
4.10127e-06
-2.58778e-06
-3.04954e-06
2.78513e-06
-2.60783e-06
-3.30725e-06
1.72729e-06
-2.31922e-06
1.36894e-06
-3.34265e-06
-2.09e-06
1.86191e-06
3.21246e-06
2.88244e-06
-2.78046e-06
-3.62169e-06
7.72386e-07
3.61422e-06
3.36445e-06
-3.682e-06
-3.92732e-07
3.60456e-06
4.0902e-06
-3.4822e-06
-1.45769e-06
3.37818e-06
4.22934e-06
-3.38111e-06
-2.30752e-06
3.42679e-06
3.28338e-06
-3.73715e-06
-3.09345e-06
3.24895e-06
2.84775e-06
-3.78291e-06
2.84624e-06
2.73291e-06
-3.70346e-06
-3.61407e-06
2.1188e-06
2.60668e-06
3.51584e-06
-2.70719e-06
1.23013e-06
3.50211e-06
5.03383e-06
-5.9732e-07
4.32303e-06
7.43098e-06
-2.46694e-06
4.02383e-06
8.46455e-06
-3.27945e-06
3.41333e-06
5.20721e-06
-3.67814e-06
2.62115e-06
3.29393e-06
1.86566e-06
2.81753e-06
-4.02549e-06
2.85204e-06
1.26993e-06
4.82984e-06
-2.74856e-06
2.98448e-06
1.84681e-06
9.00236e-06
-2.07033e-07
3.03982e-06
1.8602e-05
-3.53857e-06
2.79102e-06
2.37061e-05
-4.3473e-06
2.62823e-06
1.1544e-05
-3.99689e-06
1.44739e-06
4.51318e-06
8.3781e-07
2.99305e-06
-4.17453e-06
2.81644e-06
-3.73418e-07
5.98284e-06
-2.54379e-06
2.77345e-06
-8.3049e-07
1.27196e-05
-2.61719e-06
-1.56103e-06
3.41827e-05
-5.72537e-06
-4.46944e-08
4.92245e-05
-5.05717e-06
-1.17078e-06
1.81863e-05
-4.18579e-06
-2.00661e-07
5.7324e-06
-1.83489e-07
3.21539e-06
-4.27022e-06
2.93176e-06
-1.81178e-06
5.18491e-06
-2.75517e-06
3.0714e-06
-2.70284e-06
9.85877e-06
-1.98811e-07
-3.63482e-06
2.20284e-05
-3.78899e-06
-3.50441e-06
3.26407e-05
-4.78757e-06
-2.74458e-06
1.45133e-05
-4.09826e-06
-1.69244e-06
5.14165e-06
-1.21077e-06
3.13572e-06
-4.19963e-06
2.5071e-06
-2.63486e-06
3.86034e-06
-2.89536e-06
1.74728e-06
-3.00305e-06
5.899e-06
-3.56791e-07
-3.10756e-06
9.39465e-06
-2.89398e-06
-2.97295e-06
1.14937e-05
-3.86306e-06
-2.71069e-06
6.7161e-06
-4.05301e-06
-2.46727e-06
3.75485e-06
-2.3094e-06
2.87269e-06
-4.2381e-06
2.14844e-06
3.02206e-06
-2.93031e-06
-3.15956e-06
1.05252e-06
3.83376e-06
-3.08234e-06
-4.04273e-07
4.9822e-06
-2.8083e-06
-1.96461e-06
5.3327e-06
-2.64419e-06
-2.87169e-06
3.92994e-06
-2.94847e-06
-3.47945e-06
2.99564e-06
-3.12791e-06
2.7421e-06
-3.92836e-06
-3.23366e-06
1.96006e-06
2.68161e-06
-3.10913e-06
-3.34958e-06
4.69947e-06
8.102e-07
2.81038e-06
-3.36714e-06
5.0708e-06
-1.97482e-07
2.45552e-06
-3.037e-06
5.67917e-06
-9.96741e-07
2.08299e-06
-2.89956e-06
5.84538e-06
-1.82633e-06
2.62605e-06
-3.48002e-06
4.96755e-06
-2.75617e-06
2.93199e-06
-3.75409e-06
4.60063e-06
2.80141e-06
-3.5959e-06
-3.72631e-06
4.49787e-06
1.67099e-06
1.92039e-06
-2.65192e-06
5.25765e-06
6.88786e-07
2.31008e-06
6.51632e-06
-7.84604e-07
2.7478e-06
8.61187e-06
-1.90261e-06
2.1087e-06
9.5564e-06
-2.36539e-06
1.75193e-06
6.54447e-06
-3.09939e-06
2.04715e-06
4.91274e-06
1.76795e-06
-3.81259e-06
4.56432e-06
1.40568e-06
8.93963e-07
-2.07205e-06
6.52244e-06
1.45171e-06
1.00165e-06
1.02655e-05
-2.36173e-06
7.74615e-08
2.50897e-05
-2.80905e-06
3.33511e-07
2.59331e-05
-2.50568e-06
1.31985e-06
1.16789e-05
-3.15713e-06
1.22352e-06
5.98817e-06
7.64528e-07
-3.86325e-06
4.7027e-06
8.98941e-07
-2.05188e-07
-1.51023e-06
7.69326e-06
4.29319e-07
-4.02946e-07
1.45937e-05
-4.44743e-06
-2.23237e-06
4.13784e-05
-4.79819e-06
-1.15181e-06
5.10616e-05
-3.28056e-06
-6.42828e-07
1.8641e-05
-3.3433e-06
-1.23961e-07
7.1428e-06
-3.23736e-07
-3.92925e-06
4.88974e-06
1.35919e-06
-1.32529e-06
-1.96253e-06
6.90884e-06
1.05868e-06
-1.50984e-06
1.12665e-05
-1.70694e-06
-1.86878e-06
2.44417e-05
-3.05527e-06
-1.40497e-06
3.42363e-05
-2.93699e-06
-1.088e-06
1.48452e-05
-3.18878e-06
-1.28043e-06
6.54992e-06
-1.3413e-06
-3.85599e-06
4.82074e-06
1.73556e-06
-2.24549e-06
-2.59581e-06
5.64112e-06
8.25236e-07
-2.09788e-06
7.39716e-06
-6.77199e-07
-1.64199e-06
1.06772e-05
-2.12598e-06
-1.25126e-06
1.27933e-05
-2.72221e-06
-1.64606e-06
7.87085e-06
-3.31004e-06
-2.25985e-06
5.32225e-06
-2.50503e-06
-3.89852e-06
4.62507e-06
1.98565e-06
-3.00379e-06
-3.07588e-06
4.87062e-06
8.69034e-07
-2.73415e-06
5.58589e-06
-2.98663e-07
-2.12133e-06
6.62953e-06
-1.38632e-06
-1.81377e-06
6.98291e-06
-2.14157e-06
-2.56385e-06
5.6031e-06
-2.91125e-06
-3.24805e-06
4.75358e-06
-3.60218e-06
-3.60099e-06
4.5289e-06
-2.61471e-06
-1.9386e-07
1.72624e-07
3.90673e-07
-3.01964e-06
-4.79532e-07
1.9473e-07
4.51152e-07
-3.2431e-06
-3.061e-07
1.98316e-07
4.07222e-07
-3.52743e-06
-1.96704e-07
1.892e-07
3.52047e-07
-3.80567e-06
-1.46686e-07
1.71794e-07
3.1849e-07
-4.06612e-06
-1.17852e-07
1.47078e-07
2.92901e-07
-4.2997e-06
-9.60019e-08
1.15888e-07
2.71331e-07
-7.93087e-08
7.96551e-08
2.52345e-07
-4.49365e-06
-2.23164e-06
2.02032e-07
2.64015e-07
-2.76356e-06
-1.63762e-07
2.71654e-07
-3.10368e-06
-9.47402e-08
2.69941e-07
-3.44438e-06
-3.01871e-08
2.57239e-07
-3.75201e-06
-5.81512e-09
2.34808e-07
-4.00619e-06
1.61944e-09
2.04664e-07
-4.21103e-06
4.8733e-09
1.68022e-07
6.22786e-09
1.25833e-07
-4.37533e-06
-2.27206e-06
3.15628e-07
3.24602e-07
-2.75131e-06
5.19011e-08
3.08964e-07
-3.07791e-06
9.12108e-08
3.09272e-07
-3.44997e-06
1.29102e-07
2.97915e-07
-3.76174e-06
1.13179e-07
2.69772e-07
-4.01892e-06
9.64378e-08
2.33945e-07
-4.21443e-06
8.10842e-08
1.90356e-07
6.82823e-08
1.41134e-07
-4.36244e-06
-2.12766e-06
2.24723e-07
3.78249e-07
-2.69822e-06
3.58759e-07
3.31528e-07
-3.04814e-06
2.94149e-07
3.22835e-07
-3.37115e-06
1.95417e-07
3.04401e-07
-3.67038e-06
1.67089e-07
2.75058e-07
-3.91508e-06
1.46725e-07
2.39345e-07
-4.09031e-06
1.28101e-07
1.96492e-07
1.11406e-07
1.48677e-07
-4.21162e-06
-2.51434e-06
3.53638e-07
3.46872e-07
-2.96787e-06
5.83619e-07
3.06278e-07
-3.29099e-06
4.3636e-07
2.95855e-07
-3.60683e-06
3.50925e-07
2.78963e-07
-3.89806e-06
2.99758e-07
2.46644e-07
-4.15656e-06
2.61756e-07
2.07991e-07
-4.36263e-06
2.31183e-07
1.62916e-07
2.07218e-07
1.11231e-07
-4.51542e-06
-2.51772e-06
6.60044e-07
2.60112e-07
-2.99487e-06
8.07615e-07
2.57602e-07
-3.3186e-06
6.48242e-07
2.52993e-07
-3.63214e-06
5.30292e-07
2.39474e-07
-3.9138e-06
4.53903e-07
2.11828e-07
-4.17181e-06
4.04888e-07
1.77031e-07
-4.38383e-06
3.67208e-07
1.35775e-07
3.351e-07
8.8493e-08
-4.55705e-06
-2.89544e-06
1.75423e-07
7.79767e-07
-3.19114e-06
1.90783e-07
8.56053e-07
-3.40525e-06
1.898e-07
7.2105e-07
-3.66622e-06
1.77412e-07
6.49552e-07
-3.93365e-06
1.55517e-07
6.09216e-07
-4.17768e-06
1.25179e-07
5.83285e-07
-4.39855e-06
8.74561e-08
5.61724e-07
4.38903e-08
5.40845e-07
-4.58787e-06
-2.92021e-06
-8.0059e-08
3.80363e-07
3.00432e-07
-3.35714e-06
-6.15807e-08
4.07361e-07
2.67524e-07
-3.76995e-06
-4.91014e-08
4.10116e-07
2.34891e-07
-4.15001e-06
-3.86715e-08
3.8803e-07
2.07631e-07
-4.48623e-06
-3.14046e-08
3.44919e-07
1.852e-07
-4.77017e-06
-2.63762e-08
2.84591e-07
1.66246e-07
-4.99751e-06
-2.26154e-08
2.11634e-07
1.49872e-07
-1.93658e-08
1.30045e-07
1.35587e-07
-5.16654e-06
-3.07479e-06
5.03555e-08
5.21776e-07
-3.48843e-06
5.20493e-08
5.40605e-07
-3.8844e-06
5.49235e-08
5.39533e-07
-4.24781e-06
5.51328e-08
5.09929e-07
-4.56405e-06
5.22808e-08
4.54312e-07
-4.82041e-06
4.77645e-08
3.77604e-07
-5.00987e-06
4.28321e-08
2.85872e-07
3.80998e-08
1.84843e-07
-5.13003e-06
-3.03816e-06
1.67221e-07
6.30248e-07
-3.48629e-06
1.43603e-07
6.26351e-07
-3.9031e-06
1.31577e-07
6.23362e-07
-4.27865e-06
1.1919e-07
5.88881e-07
-4.60014e-06
1.04833e-07
5.23529e-07
-4.8533e-06
9.06878e-08
4.33394e-07
-5.03103e-06
7.77043e-08
3.26194e-07
6.63753e-08
2.08989e-07
-5.13116e-06
-2.99698e-06
3.3839e-07
6.92884e-07
-3.48658e-06
2.63728e-07
6.53336e-07
-3.92564e-06
2.20246e-07
6.43038e-07
-4.31702e-06
1.86989e-07
6.03151e-07
-4.65032e-06
1.60628e-07
5.32429e-07
-4.91162e-06
1.38706e-07
4.36418e-07
-5.09226e-06
1.20623e-07
3.2291e-07
1.05685e-07
1.98885e-07
-5.18902e-06
-3.12688e-06
4.80013e-07
6.49129e-07
-3.57957e-06
3.79635e-07
6.10515e-07
-4.00213e-06
3.13839e-07
5.98229e-07
-4.38116e-06
2.67721e-07
5.58286e-07
-4.7061e-06
2.30402e-07
4.88503e-07
-4.96277e-06
1.99683e-07
3.94845e-07
-5.14395e-06
1.74189e-07
2.84798e-07
1.52855e-07
1.64153e-07
-5.24697e-06
-3.27318e-06
5.66277e-07
5.12862e-07
-3.66912e-06
4.88056e-07
5.14537e-07
-4.06178e-06
4.3107e-07
5.05659e-07
-4.42352e-06
3.83282e-07
4.6895e-07
-4.74092e-06
3.4178e-07
4.05779e-07
-5.00036e-06
3.05971e-07
3.21981e-07
-5.19412e-06
2.74501e-07
2.23805e-07
2.46174e-07
1.14741e-07
-5.31638e-06
-3.20556e-06
3.71774e-07
7.20796e-07
-3.59501e-06
3.93459e-07
6.59145e-07
-3.97687e-06
3.89874e-07
6.00062e-07
-4.33628e-06
3.60239e-07
5.49697e-07
-4.66042e-06
3.08453e-07
5.05144e-07
-4.93866e-06
2.39182e-07
4.64969e-07
-5.16446e-06
1.56999e-07
4.27895e-07
6.34919e-08
3.92988e-07
-5.33193e-06
-3.67601e-06
1.25989e-07
7.8099e-07
1.53622e-07
-4.35247e-06
1.1292e-07
8.59373e-07
1.11754e-07
-5.03006e-06
1.14017e-07
8.94415e-07
7.91059e-08
-5.69692e-06
1.14826e-07
8.85867e-07
5.42247e-08
-6.33522e-06
1.13093e-07
8.34644e-07
3.56011e-08
-6.92331e-06
1.09109e-07
7.41584e-07
2.20475e-08
-7.43549e-06
1.03637e-07
6.07557e-07
1.25627e-08
9.75132e-08
4.36437e-07
6.28426e-09
-7.84575e-06
-3.92705e-06
2.0777e-07
1.0303e-06
-4.55792e-06
1.85024e-07
1.09974e-06
-5.20447e-06
1.73215e-07
1.12703e-06
-5.84649e-06
1.62545e-07
1.10428e-06
-6.46104e-06
1.50935e-07
1.03094e-06
-7.02099e-06
1.38773e-07
9.07768e-07
-7.49386e-06
1.26496e-07
7.35744e-07
1.14296e-07
5.19678e-07
-7.84557e-06
-4.01762e-06
2.09767e-07
1.20776e-06
-4.64334e-06
1.78622e-07
1.25824e-06
-5.28462e-06
1.5696e-07
1.28087e-06
-5.92173e-06
1.38605e-07
1.24981e-06
-6.52988e-06
1.21095e-07
1.16149e-06
-7.07927e-06
1.04903e-07
1.01666e-06
-7.53342e-06
9.02366e-08
8.16649e-07
7.68922e-08
5.67128e-07
-7.85414e-06
-4.06114e-06
2.13012e-07
1.27995e-06
-4.69165e-06
1.55718e-07
1.30659e-06
-5.33637e-06
1.20076e-07
1.32486e-06
-5.97495e-06
9.04276e-08
1.28985e-06
-6.5821e-06
6.50833e-08
1.19551e-06
-7.1275e-06
4.42054e-08
1.04248e-06
-7.57412e-06
2.74662e-08
8.3234e-07
1.44616e-08
5.71126e-07
-7.8839e-06
-4.07966e-06
2.63033e-07
1.21448e-06
-4.72658e-06
1.75547e-07
1.23775e-06
-5.37746e-06
1.1664e-07
1.25242e-06
-6.01618e-06
7.10273e-08
1.21632e-06
-6.62195e-06
3.57236e-08
1.12347e-06
-7.16717e-06
9.6468e-09
9.74596e-07
-7.61632e-06
-9.86375e-09
7.71389e-07
-2.36617e-08
5.19929e-07
-7.93382e-06
-4.14535e-06
3.07787e-07
1.01741e-06
-4.7648e-06
2.41833e-07
1.06784e-06
-5.40157e-06
1.74533e-07
1.08444e-06
-6.03186e-06
1.18139e-07
1.05222e-06
-6.63412e-06
7.40055e-08
9.69682e-07
-7.18165e-06
4.10281e-08
8.38081e-07
-7.64393e-06
1.71867e-08
6.59062e-07
-4.85833e-10
4.38199e-07
-7.99047e-06
-3.96543e-06
7.66993e-07
5.35379e-07
-4.60178e-06
8.35707e-07
4.35809e-07
-5.2516e-06
8.60881e-07
3.53287e-07
-5.89964e-06
8.41362e-07
2.8511e-07
-6.52517e-06
7.7859e-07
2.29435e-07
-7.10398e-06
6.74222e-07
1.84864e-07
-7.6098e-06
5.30021e-07
1.50057e-07
3.50964e-07
1.23935e-07
-8.02162e-06
-4.90279e-06
3.30567e-07
1.63137e-06
1.85369e-08
-6.16386e-06
3.00285e-07
1.8397e-06
-1.94901e-08
-7.47235e-06
2.96644e-07
1.94987e-06
-4.36498e-08
-8.75497e-06
2.89875e-07
1.93803e-06
-5.93829e-08
-9.90986e-06
2.77625e-07
1.78111e-06
-6.91498e-08
-1.08216e-05
2.60866e-07
1.46738e-06
-7.48367e-08
-1.13821e-05
2.40899e-07
1.005e-06
-7.78328e-08
2.19564e-07
4.14429e-07
-7.90676e-08
-1.15006e-05
-5.11701e-06
3.60113e-07
2.09244e-06
-6.3448e-06
3.24057e-07
2.30398e-06
-7.6453e-06
3.08393e-07
2.41599e-06
-8.93661e-06
2.92104e-07
2.39352e-06
-1.0105e-05
2.73078e-07
2.20391e-06
-1.10141e-05
2.51046e-07
1.82668e-06
-1.15285e-05
2.25991e-07
1.26497e-06
1.98412e-07
5.38638e-07
-1.15262e-05
-5.23061e-06
2.32269e-07
2.39174e-06
-6.43713e-06
1.85984e-07
2.60281e-06
-7.72905e-06
1.58848e-07
2.72239e-06
-9.02428e-06
1.36738e-07
2.70042e-06
-1.02024e-05
1.17311e-07
2.49545e-06
-1.11136e-05
1.00038e-07
2.07893e-06
-1.16039e-05
8.41799e-08
1.44882e-06
6.91964e-08
6.23891e-07
-1.15314e-05
-5.3043e-06
4.67913e-08
2.4996e-06
-6.49986e-06
-1.21273e-08
2.70033e-06
-7.78372e-06
-5.41129e-08
2.82194e-06
-9.07559e-06
-8.22474e-08
2.8008e-06
-1.02534e-05
-1.00522e-07
2.59123e-06
-1.11627e-05
-1.09349e-07
2.16128e-06
-1.1643e-05
-1.09854e-07
1.50678e-06
-1.03659e-07
6.46353e-07
-1.15454e-05
-5.27632e-06
-5.5183e-08
2.39333e-06
-6.50155e-06
-1.3617e-07
2.58719e-06
-7.80294e-06
-2.0056e-07
2.70023e-06
-9.0992e-06
-2.43649e-07
2.67398e-06
-1.02745e-05
-2.6744e-07
2.46564e-06
-1.11807e-05
-2.74705e-07
2.04629e-06
-1.16647e-05
-2.68362e-07
1.414e-06
-2.51383e-07
5.89012e-07
-1.1586e-05
-5.2987e-06
-5.71872e-08
2.08e-06
-6.50998e-06
-1.34967e-07
2.27803e-06
-7.79956e-06
-2.07728e-07
2.38119e-06
-9.08043e-06
-2.61578e-07
2.35108e-06
-1.02381e-05
-2.94589e-07
2.15454e-06
-1.11356e-05
-3.10039e-07
1.77088e-06
-1.16364e-05
-3.12036e-07
1.20355e-06
-3.04657e-07
4.75387e-07
-1.16204e-05
-5.07789e-06
1.6201e-06
2.39258e-07
-6.31329e-06
1.8213e-06
1.14815e-07
-7.61027e-06
1.92448e-06
2.57029e-08
-8.88781e-06
1.90505e-06
-4.76923e-08
-1.0042e-05
1.73945e-06
-1.01159e-07
-1.09535e-05
1.41597e-06
-1.40313e-07
-1.151e-05
9.43737e-07
-1.69254e-07
3.47718e-07
-1.89788e-07
-1.16217e-05
-4.99712e-06
4.13172e-07
-8.00532e-08
2.69967e-06
-6.57525e-06
4.01183e-07
-1.05276e-07
3.12161e-06
-8.34305e-06
4.02928e-07
-1.1714e-07
3.43207e-06
-1.02742e-05
3.99469e-07
-1.21234e-07
3.59099e-06
-1.23364e-05
3.93532e-07
-1.19884e-07
3.56954e-06
-1.4495e-05
3.85262e-07
-1.14984e-07
3.35577e-06
-1.67066e-05
3.67474e-07
-1.07804e-07
2.95698e-06
3.36032e-07
-9.91752e-08
-1.8993e-05
2.46407e-06
-5.14697e-06
4.00606e-07
3.43968e-06
-6.68987e-06
3.79711e-07
3.86843e-06
-8.42887e-06
3.72364e-07
4.18577e-06
-1.03392e-05
3.63765e-07
4.33971e-06
-1.2382e-05
3.54684e-07
4.28556e-06
-1.45097e-05
3.4397e-07
3.99577e-06
-1.66765e-05
3.27067e-07
3.4724e-06
2.99068e-07
-1.89352e-05
2.83436e-06
-5.19211e-06
2.01803e-07
3.91944e-06
-6.71324e-06
1.54387e-07
4.34955e-06
-8.42715e-06
1.29262e-07
4.67954e-06
-1.03171e-05
1.11556e-07
4.84265e-06
-1.23458e-05
1.00111e-07
4.77887e-06
-1.44617e-05
9.31636e-08
4.44586e-06
-1.66105e-05
8.79425e-08
3.83685e-06
8.11775e-08
-1.88606e-05
3.09198e-06
-5.23151e-06
-9.33208e-08
4.09726e-06
-6.73477e-06
-1.57735e-07
4.51599e-06
-8.42921e-06
-2.0205e-07
4.84779e-06
-1.03018e-05
-2.29878e-07
5.015e-06
-1.23173e-05
-2.4278e-07
4.9499e-06
-1.44236e-05
-2.42595e-07
4.60355e-06
-1.65631e-05
-2.30861e-07
3.96521e-06
-2.08377e-07
-1.88093e-05
3.18217e-06
-5.19448e-06
-2.92451e-07
3.93118e-06
-6.71999e-06
-3.89417e-07
4.34444e-06
-8.42636e-06
-4.62022e-07
4.66665e-06
-1.03031e-05
-5.05308e-07
4.82625e-06
-1.23171e-05
-5.2446e-07
4.76157e-06
-1.44196e-05
-5.23055e-07
4.42943e-06
-1.65572e-05
-5.01236e-07
3.82196e-06
-4.57861e-07
-1.87969e-05
3.07814e-06
-5.19349e-06
-3.60071e-07
3.4426e-06
-6.7086e-06
-4.54181e-07
3.85782e-06
-8.41824e-06
-5.38804e-07
4.16767e-06
-1.02975e-05
-5.92891e-07
4.31793e-06
-1.23095e-05
-6.20554e-07
4.2627e-06
-1.441e-05
-6.25342e-07
3.97363e-06
-1.65545e-05
-6.03992e-07
3.45067e-06
-5.55696e-07
-1.87943e-05
2.81291e-06
-4.96273e-06
-8.17392e-08
2.70217e-06
-6.50531e-06
-2.09938e-07
3.11957e-06
-8.24783e-06
-2.99862e-07
3.42805e-06
-1.01594e-05
-3.62278e-07
3.58591e-06
-1.22044e-05
-3.99177e-07
3.56303e-06
-1.43475e-05
-4.13721e-07
3.34732e-06
-1.65432e-05
-4.09162e-07
2.94451e-06
-3.88248e-07
-1.88113e-05
2.44827e-06
-1.48591e-06
4.26525e-07
2.31751e-07
-2.73636e-07
-1.79657e-06
3.00424e-07
2.41193e-07
-2.79483e-07
-2.07679e-06
2.36546e-07
2.39222e-07
-1.85109e-07
-2.45764e-06
3.16765e-07
2.23035e-07
-1.41438e-07
-2.8344e-06
3.24594e-07
1.96939e-07
-1.15369e-07
-3.19753e-06
3.36551e-07
1.61471e-07
-1.00055e-07
-3.53232e-06
3.49509e-07
1.18209e-07
-8.93077e-08
3.60096e-07
6.82316e-08
-8.27627e-08
-3.82224e-06
-1.25546e-06
5.06366e-07
3.9783e-07
-1.57059e-06
1.61203e-07
3.61959e-07
-1.7522e-06
1.29684e-07
3.59017e-07
-2.04155e-06
2.56091e-07
3.45888e-07
-2.34017e-06
2.77645e-07
3.29221e-07
-2.61779e-06
3.12041e-07
3.02976e-07
-2.85996e-06
3.43128e-07
2.68591e-07
3.64766e-07
2.28497e-07
-3.10442e-06
-1.30774e-06
-1.6863e-08
6.3592e-07
-1.62877e-06
-1.50386e-07
4.75589e-07
-1.74136e-06
-1.07277e-07
4.56706e-07
-1.87313e-06
-5.17536e-08
4.50796e-07
-1.99471e-06
-1.91003e-08
4.5046e-07
-2.09884e-06
9.89801e-09
4.41079e-07
-2.20782e-06
4.05075e-08
4.23397e-07
7.34368e-08
3.98266e-07
-2.30792e-06
-1.46454e-06
-7.13856e-07
7.44277e-07
-1.82201e-06
-3.90532e-07
5.14671e-07
-1.89461e-06
-4.19831e-07
4.83404e-07
-2.02509e-06
-4.12076e-07
4.87814e-07
-2.11987e-06
-4.07587e-07
5.00521e-07
-2.17663e-06
-4.13286e-07
5.07609e-07
-2.20014e-06
-4.28409e-07
5.08317e-07
-4.37092e-07
5.03035e-07
-2.1863e-06
-8.7261e-07
-1.14891e-06
5.58079e-07
-1.18394e-06
-6.55697e-07
4.3918e-07
-1.40986e-06
-5.58634e-07
4.35974e-07
-1.61664e-06
-6.13661e-07
4.27603e-07
-1.83659e-06
-6.04679e-07
4.18837e-07
-2.05043e-06
-5.96266e-07
4.05647e-07
-2.22658e-06
-6.05104e-07
3.83774e-07
-6.15092e-07
3.56186e-07
-2.38763e-06
-1.3472e-06
-8.62808e-07
3.52846e-07
-1.69974e-06
-6.63724e-07
3.34112e-07
-1.86287e-06
-5.7231e-07
3.35815e-07
-2.14136e-06
-6.44745e-07
3.21202e-07
-2.40603e-06
-6.45136e-07
3.04492e-07
-2.67292e-06
-6.44592e-07
2.80722e-07
-2.91276e-06
-6.34324e-07
2.51076e-07
-6.2575e-07
2.14808e-07
-3.06492e-06
-1.40726e-06
2.16374e-07
-6.07133e-07
-1.74145e-06
2.32125e-07
-5.90326e-07
-2.07386e-06
2.35811e-07
-4.78474e-07
-2.50595e-06
2.2606e-07
-4.26164e-07
-2.91354e-06
2.06975e-07
-3.97827e-07
-3.29894e-06
1.77833e-07
-3.84038e-07
-3.65037e-06
1.42176e-07
-3.7209e-07
9.96647e-08
-3.58646e-07
-3.94833e-06
-2.11196e-06
3.5117e-07
4.65552e-07
-1.74209e-07
-2.54717e-06
3.35208e-07
4.73246e-07
-1.41703e-07
-2.97952e-06
3.12081e-07
4.68125e-07
-1.17034e-07
-3.39965e-06
3.02709e-07
4.34796e-07
-1.01626e-07
-3.78936e-06
2.96275e-07
3.75323e-07
-9.03515e-08
-4.13618e-06
2.91831e-07
2.94845e-07
-8.20094e-08
-4.43161e-06
2.87214e-07
1.99708e-07
-7.54939e-08
2.81992e-07
9.31902e-08
-7.02248e-08
-4.66927e-06
-2.2569e-06
2.57403e-07
7.77815e-07
-2.53035e-06
2.38694e-07
6.95013e-07
-2.81945e-06
2.49681e-07
6.88667e-07
-3.12423e-06
2.66733e-07
6.67875e-07
-3.42042e-06
2.82595e-07
6.20379e-07
-3.68765e-06
3.00257e-07
5.45117e-07
-3.91002e-06
3.15949e-07
4.48655e-07
3.28994e-07
3.40828e-07
-4.07938e-06
-2.1928e-06
-1.48246e-07
1.24881e-06
-2.35666e-06
-1.26364e-07
9.43522e-07
-2.51065e-06
-8.05743e-08
9.12016e-07
-2.68953e-06
-4.59071e-08
9.16977e-07
-2.86314e-06
-1.69743e-08
9.03345e-07
-3.00556e-06
1.05565e-08
8.60472e-07
-3.10139e-06
3.49833e-08
7.9248e-07
5.73558e-08
7.08878e-07
-3.14622e-06
-2.1703e-06
-6.78461e-07
1.44997e-06
-2.31303e-06
-5.59956e-07
1.03378e-06
-2.42925e-06
-4.99188e-07
9.93006e-07
-2.56618e-06
-4.61275e-07
1.01718e-06
-2.69449e-06
-4.36083e-07
1.028e-06
-2.78394e-06
-4.18143e-07
1.01127e-06
-2.81513e-06
-4.03804e-07
9.69714e-07
-3.90063e-07
9.11835e-07
-2.78409e-06
-2.09326e-06
-9.40013e-07
1.09727e-06
-2.32108e-06
-8.17311e-07
8.67554e-07
-2.53318e-06
-7.48977e-07
8.68155e-07
-2.75901e-06
-7.08895e-07
8.75291e-07
-2.97502e-06
-6.78355e-07
8.58371e-07
-3.16404e-06
-6.54695e-07
8.11654e-07
-3.30203e-06
-6.34281e-07
7.40501e-07
-6.165e-07
6.55016e-07
-3.38179e-06
-2.0458e-06
-8.64743e-07
6.92789e-07
-2.43611e-06
-7.90137e-07
6.54589e-07
-2.79792e-06
-7.25629e-07
6.5927e-07
-3.1553e-06
-6.8516e-07
6.41377e-07
-3.48799e-06
-6.49557e-07
5.96922e-07
-3.7813e-06
-6.18307e-07
5.27092e-07
-4.02598e-06
-5.89249e-07
4.38084e-07
-5.60744e-07
3.38874e-07
-4.21472e-06
-1.86654e-06
4.40853e-07
-5.5879e-07
-2.39016e-06
4.60459e-07
-5.04525e-07
-2.89193e-06
4.61352e-07
-4.60468e-07
-3.36957e-06
4.34385e-07
-4.25872e-07
-3.80677e-06
3.82682e-07
-3.96416e-07
-4.19247e-06
3.10722e-07
-3.70486e-07
-4.52092e-06
2.24564e-07
-3.46818e-07
1.29234e-07
-3.24604e-07
-4.78853e-06
-2.96818e-06
4.50523e-07
8.43368e-07
-1.41497e-07
-3.65947e-06
3.84176e-07
8.89752e-07
-1.08986e-07
-4.36014e-06
3.47777e-07
9.13099e-07
-9.25585e-08
-5.05186e-06
3.17918e-07
8.9097e-07
-8.26178e-08
-5.71455e-06
2.9128e-07
8.22307e-07
-7.55703e-08
-6.32506e-06
2.65903e-07
7.09712e-07
-7.02275e-08
-6.85667e-06
2.40849e-07
5.56283e-07
-6.59473e-08
2.176e-07
3.68185e-07
-6.23263e-08
-7.28716e-06
-3.04204e-06
3.77623e-07
1.30743e-06
-3.55214e-06
3.54032e-07
1.23512e-06
-4.11621e-06
3.45583e-07
1.25483e-06
-4.70565e-06
3.28512e-07
1.24658e-06
-5.2943e-06
3.14706e-07
1.18541e-06
-5.85197e-06
3.01268e-07
1.06733e-06
-6.34239e-06
2.86249e-07
8.93512e-07
2.69967e-07
6.71177e-07
-6.72533e-06
-2.9044e-06
-7.99368e-08
1.96079e-06
-3.18243e-06
-3.21167e-08
1.60718e-06
-3.54618e-06
2.40874e-08
1.59713e-06
-3.98146e-06
5.31145e-08
1.62739e-06
-4.45044e-06
7.42323e-08
1.61254e-06
-4.91536e-06
9.28243e-08
1.53374e-06
-5.33337e-06
1.0794e-07
1.3887e-06
1.19199e-07
1.18258e-06
-5.65649e-06
-2.81992e-06
-6.86379e-07
2.28191e-06
-3.02747e-06
-5.5692e-07
1.76578e-06
-3.30092e-06
-4.52422e-07
1.74293e-06
-3.65499e-06
-3.77411e-07
1.80138e-06
-4.04931e-06
-3.24031e-07
1.82025e-06
-4.43942e-06
-2.81995e-07
1.77601e-06
-4.77828e-06
-2.46227e-07
1.66258e-06
-2.16167e-07
1.48389e-06
-5.01515e-06
-2.89255e-06
-1.03748e-06
1.78828e-06
-3.25978e-06
-8.60378e-07
1.53795e-06
-3.67757e-06
-7.36332e-07
1.57005e-06
-4.14522e-06
-6.4378e-07
1.60885e-06
-4.63547e-06
-5.71191e-07
1.59552e-06
-5.11584e-06
-5.08712e-07
1.51865e-06
-5.54375e-06
-4.54143e-07
1.37626e-06
-4.06849e-07
1.17419e-06
-5.8723e-06
-2.83518e-06
-9.34953e-07
1.2161e-06
-3.46855e-06
-7.84595e-07
1.21173e-06
-4.10789e-06
-6.88516e-07
1.25088e-06
-4.74969e-06
-6.11895e-07
1.25109e-06
-5.37682e-06
-5.45217e-07
1.19796e-06
-5.96254e-06
-4.85687e-07
1.0897e-06
-6.47328e-06
-4.32524e-07
9.27126e-07
-3.85758e-07
7.15705e-07
-6.87127e-06
-2.72751e-06
8.23962e-07
-5.00126e-07
-3.51289e-06
8.88768e-07
-4.27713e-07
-4.28532e-06
9.20001e-07
-3.75155e-07
-5.03569e-06
9.05008e-07
-3.32281e-07
-5.7465e-06
8.44331e-07
-2.95933e-07
-6.39683e-06
7.40097e-07
-2.64637e-07
-6.9617e-06
5.94385e-07
-2.37483e-07
4.12127e-07
-2.1399e-07
-7.41642e-06
-4.2005e-06
5.19417e-07
1.68141e-06
-8.75237e-08
-5.53644e-06
4.23115e-07
1.86532e-06
-6.27078e-08
-6.91182e-06
3.6813e-07
1.96966e-06
-4.96815e-08
-8.24536e-06
3.11476e-07
1.95363e-06
-4.0797e-08
-9.4331e-06
2.52934e-07
1.79099e-06
-3.39466e-08
-1.03585e-05
1.95185e-07
1.46815e-06
-2.83472e-08
-1.09114e-05
1.39801e-07
9.92742e-07
-2.3559e-08
8.7462e-08
3.89524e-07
-1.93645e-08
-1.10011e-05
-3.90044e-06
5.05447e-07
2.32613e-06
-5.12974e-06
4.60479e-07
2.42686e-06
-6.45579e-06
4.10506e-07
2.53821e-06
-7.78396e-06
3.52529e-07
2.53355e-06
-8.99859e-06
2.93677e-07
2.35923e-06
-9.95862e-06
2.3446e-07
1.9879e-06
-1.05221e-05
1.76417e-07
1.42021e-06
1.18583e-07
6.76456e-07
-1.05587e-05
-3.38488e-06
3.3625e-08
3.0622e-06
-4.36261e-06
1.21374e-07
2.92383e-06
-5.54714e-06
1.56816e-07
3.03508e-06
-6.81114e-06
1.6449e-07
3.0793e-06
-8.01548e-06
1.64265e-07
2.94617e-06
-8.99229e-06
1.58316e-07
2.58648e-06
-9.56762e-06
1.47458e-07
1.99278e-06
1.34323e-07
1.17409e-06
-9.57504e-06
-3.09299e-06
-5.91095e-07
3.45593e-06
-3.94573e-06
-4.04904e-07
3.14526e-06
-5.03273e-06
-2.71106e-07
3.2577e-06
-6.22657e-06
-1.84078e-07
3.34366e-06
-7.3794e-06
-1.21421e-07
3.25858e-06
-8.31718e-06
-7.22446e-08
2.94415e-06
-8.85733e-06
-3.37319e-08
2.38376e-06
-4.34593e-09
1.57162e-06
-8.8065e-06
-3.49605e-06
-9.69025e-07
2.9137e-06
-4.52211e-06
-7.23961e-07
2.88284e-06
-5.70305e-06
-5.5007e-07
3.02998e-06
-6.94839e-06
-4.14666e-07
3.08457e-06
-8.13013e-06
-3.01258e-07
2.95692e-06
-9.08345e-06
-2.05104e-07
2.60472e-06
-9.63772e-06
-1.23583e-07
2.02034e-06
-5.37446e-08
1.21004e-06
-9.62418e-06
-3.87093e-06
-8.44031e-07
2.25486e-06
-5.16555e-06
-6.36302e-07
2.4185e-06
-6.51468e-06
-4.99487e-07
2.54942e-06
-7.85229e-06
-3.81188e-07
2.5551e-06
-9.06962e-06
-2.76665e-07