/*--------------------------------*- C++ -*----------------------------------*\
| =========                 |                                                 |
| \\      /  F ield         | OpenFOAM: The Open Source CFD Toolbox           |
|  \\    /   O peration     | Version:  plus.master.MPPICInterFoam            |
|   \\  /    A nd           | Web:      www.OpenFOAM.com                      |
|    \\/     M anipulation  |                                                 |
\*---------------------------------------------------------------------------*/
FoamFile
{
    version     2.0;
    format      ascii;
    class       surfaceScalarField;
    location    "6";
    object      alphaPhi;
}
// * * * * * * * * * * * * * * * * * * * * * * * * * * * * * * * * * * * * * //

dimensions      [0 3 -1 0 0 0 0];

internalField   nonuniform List<scalar> 
34319
(
-1.2499e-06
-8.56983e-07
5.64031e-06
1.21653e-06
1.00659e-06
-5.91834e-07
-7.85358e-07
5.20901e-06
1.47593e-06
-1.04231e-07
-3.16401e-07
3.5873e-06
1.45947e-06
1.86534e-07
-4.33929e-07
2.76566e-06
1.30402e-06
7.08205e-07
-3.20649e-07
3.53586e-06
1.41845e-06
1.38769e-06
-7.12293e-07
5.17234e-06
1.39735e-06
-8.06002e-07
5.74618e-06
1.30335e-06
9.45694e-07
-1.32285e-06
-3.93885e-07
5.74622e-06
1.72737e-06
-2.60287e-07
-2.63606e-07
3.5839e-06
-8.75877e-08
-1.70465e-07
1.73364e-06
1.46746e-07
-1.23634e-07
2.09422e-06
3.23691e-07
-2.03495e-07
1.75721e-06
1.44376e-06
-2.63453e-07
3.45555e-06
-3.78281e-07
5.85433e-06
1.82044e-06
-1.24793e-06
1.03535e-07
5.6092e-06
2.00449e-06
-3.42589e-07
3.37009e-08
2.63242e-06
-4.25545e-08
2.12446e-08
2.10197e-06
9.58713e-08
-2.48325e-08
2.52837e-06
5.30634e-07
-5.17446e-09
2.14821e-06
1.46664e-06
2.96669e-08
2.83963e-06
9.98345e-08
5.80707e-06
2.10042e-06
-1.09785e-06
5.8273e-07
5.37624e-06
1.9717e-06
-2.70319e-07
3.04816e-07
2.2758e-06
-7.09374e-08
1.94273e-07
1.95806e-06
7.84846e-08
1.38459e-07
2.01455e-06
4.18468e-07
2.08324e-07
2.12394e-06
1.3581e-06
3.11998e-07
2.56998e-06
5.63625e-07
5.64706e-06
2.06435e-06
-1.25666e-06
1.06695e-06
5.60656e-06
1.64284e-06
-2.60697e-07
1.0055e-06
3.29856e-06
-9.1175e-08
4.1218e-07
1.62256e-06
1.07079e-07
4.94415e-07
1.97152e-06
3.39507e-07
4.45196e-07
1.69696e-06
1.39304e-06
9.17975e-07
3.51876e-06
9.93267e-07
5.73462e-06
1.73741e-06
-1.20549e-06
1.1797e-06
5.52715e-06
1.17307e-06
-6.40394e-07
1.65459e-06
5.31611e-06
-1.3066e-07
1.78393e-06
4.07303e-06
2.18409e-07
1.69993e-06
3.54057e-06
7.68536e-07
1.74222e-06
4.14739e-06
1.32506e-06
1.56773e-06
5.30953e-06
1.1079e-06
5.60655e-06
1.26635e-06
-7.91871e-07
5.02148e-06
7.89131e-07
1.05146e-06
-5.74079e-07
5.48481e-06
1.39571e-06
-1.41647e-07
5.75474e-06
1.6994e-06
3.28463e-07
5.76983e-06
1.79359e-06
7.44413e-07
5.7615e-06
1.65783e-06
9.22861e-07
5.54163e-06
1.33012e-06
5.10474e-06
8.78983e-07
9.89812e-07
-1.12936e-06
-8.0043e-07
5.80089e-06
1.0136e-06
8.47971e-07
-8.71614e-07
-1.16761e-06
6.33857e-06
1.2764e-06
-2.27112e-07
-1.02468e-06
6.30483e-06
1.78053e-06
3.74325e-07
-9.02418e-07
5.83238e-06
1.89655e-06
1.01478e-06
-9.42195e-07
6.30709e-06
1.70626e-06
1.24871e-06
-1.03423e-06
6.39615e-06
1.19914e-06
-7.35054e-07
5.92475e-06
1.09011e-06
7.91911e-07
-1.77278e-06
-4.37842e-07
6.23482e-06
1.47342e-06
-8.9858e-07
-5.39209e-07
6.37441e-06
-1.52202e-07
-3.0468e-07
3.33701e-06
2.16288e-07
-1.89289e-07
2.4824e-06
1.02262e-06
-2.93662e-07
3.43999e-06
1.86385e-06
-4.51593e-07
6.20735e-06
-3.87609e-07
6.3736e-06
1.55408e-06
-1.99126e-06
1.29532e-07
6.45606e-06
1.7741e-06
-8.18183e-07
6.95419e-08
5.64765e-06
-1.42375e-07
3.5134e-08
2.10415e-06
1.60995e-07
1.66027e-08
1.94241e-06
1.09829e-06
4.15839e-08
2.68127e-06
2.08409e-06
9.23994e-08
5.62868e-06
1.37763e-07
6.61214e-06
1.84812e-06
-1.8162e-06
6.57e-07
6.38202e-06
1.72013e-06
-3.80274e-07
5.99242e-07
5.24842e-06
-2.12166e-07
2.55022e-07
1.65355e-06
3.01864e-07
4.56729e-07
3.50883e-06
1.03923e-06
4.93819e-07
3.03319e-06
1.93303e-06
5.88972e-07
5.36522e-06
6.15823e-07
6.54454e-06
1.79938e-06
-1.56651e-06
9.60711e-07
6.12839e-06
1.36223e-06
-7.2539e-07
1.32449e-06
6.13973e-06
-1.73881e-07
1.26496e-06
3.58333e-06
2.86146e-07
1.24434e-06
3.59992e-06
9.80581e-07
1.24016e-06
4.07922e-06
1.69236e-06
1.23847e-06
6.16505e-06
8.99413e-07
6.28513e-06
1.45743e-06
-1.02709e-06
9.76301e-07
5.68476e-06
9.36718e-07
-8.01603e-07
1.39415e-06
6.20691e-06
-2.00589e-07
1.87365e-06
6.34993e-06
3.93049e-07
1.98979e-06
6.22577e-06
9.7445e-07
1.80381e-06
6.41124e-06
1.16043e-06
1.32698e-06
6.3052e-06
9.17135e-07
5.81622e-06
1.03233e-06
-6.32188e-07
5.15888e-06
6.1977e-07
8.51932e-07
-4.85466e-07
5.5996e-06
1.13124e-06
-1.2014e-07
5.94058e-06
1.41305e-06
3.25924e-07
6.07804e-06
1.51364e-06
6.52501e-07
5.98294e-06
1.37459e-06
7.56324e-07
5.68342e-06
1.08071e-06
5.26543e-06
7.06513e-07
8.059e-07
-4.24027e-07
-3.09362e-07
5.7868e-06
4.143e-07
3.38289e-07
-3.39371e-07
-5.0011e-07
6.34005e-06
4.92053e-07
-6.89933e-08
-7.40013e-07
6.78478e-06
6.86369e-07
2.88424e-07
-6.31121e-07
6.95048e-06
7.68109e-07
5.07181e-07
-6.4601e-07
6.86156e-06
6.36506e-07
5.38399e-07
-4.2114e-07
6.47311e-06
4.38036e-07
-2.6656e-07
5.94355e-06
4.94587e-07
3.01718e-07
-6.84023e-07
-1.51884e-07
6.18917e-06
5.8975e-07
-5.89649e-07
-2.9652e-07
6.87542e-06
-1.26925e-07
-2.90405e-07
6.44815e-06
3.29688e-07
-2.35291e-07
5.95472e-06
7.36644e-07
-1.96202e-07
6.38015e-06
8.02613e-07
-2.034e-07
6.9127e-06
-1.22885e-07
6.3812e-06
6.75378e-07
-8.9293e-07
1.1009e-07
6.42044e-06
7.14091e-07
-5.14651e-07
1.00849e-07
7.10952e-06
-1.73535e-07
6.10239e-08
3.98408e-06
5.70121e-07
2.94646e-07
6.55582e-06
6.67576e-07
1.35477e-07
3.80084e-06
9.97538e-07
1.13679e-07
6.79859e-06
1.0831e-07
6.64113e-06
7.99006e-07
-8.43343e-07
3.42497e-07
6.39206e-06
6.81929e-07
-4.35819e-07
4.60625e-07
7.03871e-06
-2.92067e-08
3.8944e-07
3.47678e-06
4.89247e-07
5.32581e-07
4.88373e-06
6.33761e-07
4.18974e-07
3.76942e-06
9.46832e-07
3.66664e-07
6.50486e-06
3.11002e-07
6.61573e-06
7.73727e-07
-5.78844e-07
4.41049e-07
6.11667e-06
5.22363e-07
-4.24764e-07
6.12071e-07
6.79104e-06
-2.46941e-08
8.58512e-07
6.41314e-06
3.04082e-07
7.9357e-07
6.33775e-06
5.9504e-07
7.69844e-07
6.34534e-06
7.07117e-07
5.50821e-07
6.82254e-06
4.00257e-07
6.3167e-06
6.18943e-07
-3.56941e-07
4.44853e-07
5.68864e-06
3.55125e-07
-2.75606e-07
5.79642e-07
6.22486e-06
-2.21048e-08
7.39477e-07
6.66555e-06
2.60001e-07
7.81282e-07
6.86673e-06
4.52839e-07
6.99552e-07
6.7529e-06
4.83779e-07
5.37631e-07
6.36645e-06
4.09284e-07
5.84969e-06
4.48652e-07
-2.16009e-07
5.18769e-06
2.29851e-07
4.0272e-07
-1.43666e-07
5.6076e-06
5.00831e-07
6.3961e-09
5.92594e-06
6.03672e-07
1.73556e-07
6.0672e-06
6.31245e-07
2.92362e-07
5.9852e-06
5.80147e-07
3.30265e-07
5.71083e-06
4.71783e-07
5.31401e-06
3.138e-07
3.77287e-07
-3.32219e-08
-2.40378e-08
5.74359e-06
6.12086e-08
3.95125e-08
9.72153e-09
-4.26568e-08
6.27772e-06
6.2762e-08
6.78426e-08
-6.55907e-08
6.71119e-06
8.56368e-08
1.12593e-07
-5.54155e-08
6.91907e-06
8.94864e-08
1.41878e-07
-4.90486e-08
6.81489e-06
7.43593e-08
1.50298e-07
-1.8834e-08
6.43909e-06
4.48503e-08
-1.11632e-08
5.92632e-06
1.52276e-07
2.64351e-08
-6.02437e-08
1.12103e-08
6.12604e-06
8.85614e-08
-6.37105e-09
-3.49591e-09
6.78962e-06
6.66323e-08
1.53457e-09
7.11052e-06
1.20804e-07
3.42699e-08
6.80169e-06
1.49702e-07
1.69756e-08
6.82498e-06
1.84918e-07
1.76913e-08
6.94081e-06
1.31002e-08
6.35322e-06
1.88892e-07
-8.91222e-08
6.16651e-08
6.34519e-06
1.1392e-07
-1.84795e-08
4.97567e-08
7.11178e-06
7.5872e-08
3.33204e-08
4.74698e-06
1.2017e-07
8.40901e-08
6.10595e-06
1.05775e-07
3.44674e-08
3.59365e-06
2.30122e-07
3.57853e-08
6.89348e-06
5.08653e-08
6.61073e-06
2.22483e-07
-1.03859e-07
1.17065e-07
6.32761e-06
1.13442e-07
-5.62887e-08
1.25635e-07
7.10092e-06
3.78423e-08
8.94667e-08
4.47163e-06
1.71695e-07
-6.31413e-09
2.84027e-06
1.63762e-07
8.55088e-08
3.47759e-06
2.66524e-07
8.88902e-08
6.61259e-06
1.04653e-07
6.59665e-06
2.31705e-07
-3.90589e-08
1.32935e-07
6.07435e-06
6.53635e-08
1.39578e-08
1.36166e-07
6.73485e-06
1.0582e-07
1.45329e-07
6.99474e-06
9.21883e-08
1.04701e-07
6.449e-06
1.44442e-07
1.51941e-07
6.58087e-06
1.78597e-07
1.21592e-07
6.88516e-06
1.18368e-07
6.30728e-06
1.74949e-07
-4.32968e-09
1.3181e-07
5.66696e-06
2.65876e-08
2.98431e-08
1.37697e-07
6.1898e-06
7.7636e-08
1.45268e-07
6.62168e-06
9.54324e-08
1.33445e-07
6.83489e-06
1.27297e-07
1.46537e-07
6.73173e-06
1.29811e-07
1.29377e-07
6.3575e-06
1.2029e-07
5.85305e-06
1.2426e-07
1.52925e-08
5.17832e-06
-1.77165e-09
1.27756e-07
3.48566e-08
5.59415e-06
1.32307e-07
6.00357e-08
5.90548e-06
1.40324e-07
7.55631e-08
6.04751e-06
1.38035e-07
9.10977e-08
5.97703e-06
1.39305e-07
9.11758e-08
5.71492e-06
1.24983e-07
5.32434e-06
8.2981e-08
1.18287e-07
5.66721e-08
3.02107e-08
5.70956e-06
-3.02504e-08
-2.2385e-08
6.76994e-08
3.36261e-08
6.26507e-06
-3.17815e-08
7.38866e-08
2.67629e-08
6.70996e-06
-3.13049e-08
7.08452e-08
1.79373e-08
6.93069e-06
-2.59298e-08
7.23398e-08
7.77164e-09
6.82774e-06
-2.16909e-08
6.73689e-08
2.57753e-08
6.44648e-06
-2.76422e-08
2.47976e-08
5.91719e-06
7.38871e-08
-2.17308e-08
6.61354e-08
3.18609e-08
6.10333e-06
-4.4996e-08
7.85785e-08
2.9676e-08
6.78163e-06
8.26031e-08
2.76719e-08
7.31555e-06
6.12205e-08
1.82955e-08
6.85832e-06
6.25267e-08
1.4477e-08
6.99959e-06
6.87961e-08
1.83324e-08
7.01305e-06
1.7662e-08
6.35863e-06
7.09171e-08
6.4595e-08
3.30036e-08
6.32737e-06
-4.77336e-08
7.27681e-08
1.59079e-08
7.11774e-06
8.92136e-08
5.01164e-09
5.19295e-06
3.42034e-08
-3.7512e-08
4.34318e-06
3.64719e-08
-5.35892e-09
3.32974e-06
9.5726e-08
-5.00713e-09
7.01422e-06
1.79419e-08
6.62342e-06
8.29256e-08
4.75792e-08
4.38883e-08
6.3147e-06
-4.54948e-08
2.77656e-08
3.21133e-08
7.10558e-06
2.57375e-08
5.03788e-09
4.92707e-06
9.27031e-08
-5.08547e-08
2.55936e-06
1.001e-07
1.86139e-08
3.07438e-06
1.3986e-07
3.23496e-08
6.78614e-06
4.531e-08
6.61425e-06
9.52422e-08
7.82704e-08
3.99496e-08
6.06346e-06
-6.33842e-08
8.89539e-08
1.72359e-08
6.74009e-06
1.07162e-07
-1.14708e-09
7.23627e-06
4.31071e-08
-2.25737e-08
6.52261e-06
6.55951e-08
3.29233e-08
6.75527e-06
6.53808e-08
2.78112e-08
6.97997e-06
3.93419e-08
6.32404e-06
5.50489e-08
8.39782e-08
4.07277e-08
5.64715e-06
-6.48237e-08
8.81086e-08
1.08685e-08
6.19272e-06
8.12824e-08
-6.79541e-09
6.63521e-06
5.4161e-08
-1.66396e-08
6.85667e-06
5.14804e-08
1.00625e-08
6.75788e-06
3.99805e-08
1.75835e-08
6.38004e-06
3.66305e-08
5.85919e-06
3.67867e-08
7.17791e-08
5.13979e-06
-5.22208e-08
5.99812e-08
7.59107e-08
5.57897e-06
2.24855e-08
6.71437e-08
5.90672e-06
1.06292e-09
4.74347e-08
6.05753e-06
-6.56223e-09
3.90879e-08
5.98824e-06
7.65405e-09
3.30299e-08
5.71698e-06
2.1965e-08
5.30744e-06
3.61562e-08
5.07571e-08
8.33872e-08
1.05477e-08
-2.63107e-08
2.20257e-08
5.6199e-06
8.03981e-08
3.05298e-08
-2.6349e-08
6.26343e-06
8.19654e-08
4.78146e-08
-4.20788e-08
6.70295e-06
6.42076e-08
3.0929e-08
-4.52435e-08
6.96323e-06
6.22703e-08
2.20251e-08
-3.55111e-08
6.84344e-06
5.78176e-08
2.23983e-08
-2.40971e-08
6.45294e-06
9.50361e-09
9.1077e-08
1.00564e-08
5.86498e-06
1.12831e-07
1.15706e-08
-7.72549e-08
6.06615e-06
1.15808e-07
2.89562e-08
6.78133e-06
1.02663e-07
4.03183e-08
7.39906e-06
5.53185e-08
1.68738e-08
7.24365e-06
4.53084e-08
1.51857e-09
7.44075e-06
3.91434e-08
7.59752e-09
7.05164e-06
-9.48591e-10
5.06377e-08
6.35761e-06
1.37862e-07
1.06744e-08
-9.79733e-08
6.28932e-06
1.24717e-07
1.71387e-09
7.15884e-06
7.95512e-08
-7.93436e-09
6.2161e-06
9.11419e-09
-3.75575e-08
2.93122e-06
3.41341e-08
-8.07065e-09
3.83897e-06
3.73331e-08
-1.12031e-08
7.34269e-06
3.40232e-09
4.30203e-08
6.61297e-06
1.35882e-07
1.15361e-08
-1.01502e-07
6.27973e-06
1.09224e-07
-1.70849e-08
7.15153e-06
5.4945e-08
-5.40574e-08
5.95809e-06
3.36172e-08
-5.7456e-08
2.62305e-06
6.50933e-08
-1.0998e-08
3.40964e-06
5.05877e-08
1.16357e-09
7.28144e-06
1.60861e-08
4.14231e-08
6.61059e-06
1.33646e-07
4.67912e-09
-1.01246e-07
6.03813e-06
1.28177e-07
-3.28017e-08
6.76132e-06
1.21711e-07
-6.57339e-08
7.34103e-06
4.62013e-08
-8.11706e-08
7.05468e-06
3.3239e-08
-4.50669e-08
7.23086e-06
1.48059e-08
-3.07623e-08
7.04977e-06
2.88657e-10
1.81114e-08
6.33644e-06
1.19544e-07
2.64949e-08
-6.61619e-08
5.57239e-06
1.07959e-07
-3.73987e-08
6.20865e-06
8.70463e-08
-6.40996e-08
6.65366e-06
4.84234e-08
-7.55196e-08
6.88927e-06
3.37041e-08
-5.60248e-08
6.78297e-06
1.52659e-08
-4.20871e-08
6.40956e-06
7.21289e-09
3.77986e-08
5.83021e-06
7.38142e-08
-2.8583e-09
1.08934e-07
4.98627e-06
8.90476e-08
2.33692e-08
5.50351e-06
7.39548e-08
-2.88846e-08
5.88679e-06
4.85481e-08
-4.44384e-08
6.05168e-06
3.87875e-08
-2.82836e-08
5.97052e-06
4.19871e-08
7.53081e-09
5.66484e-06
9.08379e-08
7.58703e-08
5.19067e-06
1.25873e-06
9.31608e-08
3.22963e-06
-1.35209e-07
1.158e-06
7.19639e-08
3.51989e-06
-1.03042e-07
1.02471e-06
6.06446e-08
3.71612e-06
-8.84558e-08
8.67618e-07
5.87969e-08
3.8354e-06
-8.15243e-08
6.85225e-07
6.41991e-08
3.88953e-06
-7.4939e-08
4.79693e-07
6.88709e-08
3.88018e-06
-6.91151e-08
2.51072e-07
7.17256e-08
3.77826e-06
-6.36028e-08
7.03554e-08
3.4019e-06
-5.59401e-08
1.6953e-06
1.4912e-07
4.31756e-06
1.50209e-06
1.15897e-07
4.48188e-06
1.2811e-06
9.15196e-08
4.55888e-06
1.04756e-06
8.05381e-08
4.57018e-06
8.04771e-07
8.24214e-08
4.52528e-06
5.51775e-07
8.64154e-08
4.42395e-06
2.8452e-07
9.00069e-08
4.23186e-06
8.92926e-08
3.7408e-06
1.97233e-06
2.35646e-07
5.04044e-06
1.74529e-06
1.86719e-07
5.10762e-06
1.47659e-06
1.49829e-07
5.0922e-06
1.19301e-06
1.28834e-07
5.0221e-06
9.06084e-07
1.21081e-07
4.90421e-06
6.15054e-07
1.19381e-07
4.73621e-06
3.14291e-07
1.20277e-07
4.48001e-06
1.1826e-07
3.90914e-06
1.95135e-06
3.02251e-07
5.19665e-06
1.73446e-06
2.37467e-07
5.23578e-06
1.47084e-06
1.92831e-07
5.19192e-06
1.18824e-06
1.66789e-07
5.09345e-06
9.01862e-07
1.5162e-07
4.9512e-06
6.11255e-07
1.44624e-07
4.75951e-06
3.11375e-07
1.42273e-07
4.48113e-06
1.38329e-07
3.88645e-06
1.6547e-06
2.94488e-07
4.77361e-06
1.48344e-06
2.3048e-07
4.85143e-06
1.26917e-06
1.89114e-07
4.84587e-06
1.03556e-06
1.64564e-07
4.77971e-06
7.92742e-07
1.48974e-07
4.66279e-06
5.41264e-07
1.41262e-07
4.49481e-06
2.77601e-07
1.38042e-07
4.24011e-06
1.33513e-07
3.68163e-06
1.2394e-06
1.97202e-07
3.9329e-06
1.13699e-06
1.60289e-07
4.0885e-06
9.93838e-07
1.35122e-07
4.16049e-06
8.2774e-07
1.19962e-07
4.16435e-06
6.44825e-07
1.11217e-07
4.11158e-06
4.46741e-07
1.07705e-07
4.00367e-06
2.32179e-07
1.06794e-07
3.80967e-06
1.04065e-07
3.33735e-06
9.07047e-07
2.86406e-06
5.19835e-08
8.71323e-07
3.11809e-06
5.12048e-08
7.9025e-07
3.28265e-06
5.36935e-08
6.77633e-07
3.37359e-06
5.76432e-08
5.4016e-07
3.40332e-06
6.20594e-08
3.81509e-07
3.3744e-06
6.6698e-08
2.01802e-07
3.26125e-06
7.12224e-08
2.90167e-06
7.3925e-08
1.04352e-06
7.07222e-08
3.32154e-06
-1.15462e-07
9.5778e-07
5.99594e-08
3.63734e-06
-9.06606e-08
8.47542e-07
5.77175e-08
3.85043e-06
-8.21276e-08
7.14131e-07
6.27013e-08
3.9819e-06
-7.58779e-08
5.59828e-07
6.78652e-08
4.04621e-06
-6.99574e-08
3.87463e-07
7.09809e-08
4.04658e-06
-6.44954e-08
1.992e-07
7.21198e-08
3.95439e-06
-5.94347e-08
6.86968e-08
3.58474e-06
-5.26658e-08
1.39686e-06
1.19607e-07
4.42509e-06
1.2229e-06
9.70398e-08
4.6188e-06
1.03896e-06
8.20149e-08
4.71793e-06
8.47991e-07
8.03544e-08
4.74283e-06
6.49507e-07
8.32579e-08
4.70792e-06
4.41951e-07
8.67283e-08
4.61563e-06
2.23994e-07
8.93268e-08
4.43238e-06
8.72267e-08
3.94651e-06
1.64072e-06
2.14819e-07
5.15218e-06
1.42337e-06
1.66423e-07
5.25483e-06
1.19345e-06
1.35531e-07
5.26809e-06
9.61689e-07
1.20965e-07
5.21348e-06
7.28506e-07
1.15504e-07
5.1054e-06
4.91212e-07
1.14622e-07
4.94564e-06
2.46992e-07
1.15513e-07
4.69732e-06
1.13145e-07
4.13026e-06
1.61125e-06
2.80817e-07
5.31834e-06
1.40786e-06
2.13788e-07
5.3919e-06
1.18427e-06
1.75243e-07
5.37596e-06
9.54699e-07
1.5236e-07
5.29192e-06
7.22786e-07
1.40359e-07
5.15884e-06
4.86583e-07
1.35311e-07
4.97505e-06
2.44825e-07
1.3382e-07
4.7045e-06
1.30295e-07
4.11366e-06
1.34229e-06
2.6548e-07
4.90411e-06
1.193e-06
2.02255e-07
5.01097e-06
1.01875e-06
1.68763e-07
5.02596e-06
8.31349e-07
1.47359e-07
4.97157e-06
6.35171e-07
1.35546e-07
4.86322e-06
4.30584e-07
1.30306e-07
4.70361e-06
2.17848e-07
1.28498e-07
4.4577e-06
1.25033e-07
3.90453e-06
9.96307e-07
1.76073e-07
4.05708e-06
9.11859e-07
1.40482e-07
4.23559e-06
7.99009e-07
1.20996e-07
4.32209e-06
6.66683e-07
1.0848e-07
4.33625e-06
5.18907e-07
1.02301e-07
4.29275e-06
3.57291e-07
1.00339e-07
4.19469e-06
1.83032e-07
1.0029e-07
4.0112e-06
9.85511e-08
3.54658e-06
7.32407e-07
2.96544e-06
4.87337e-08
7.03604e-07
3.23736e-06
5.04647e-08
6.39217e-07
3.41459e-06
5.36281e-08
5.48154e-07
3.51641e-06
5.72535e-08
4.35899e-07
3.55697e-06
6.11415e-08
3.05793e-07
3.53959e-06
6.50245e-08
1.59595e-07
3.43863e-06
6.8583e-08
3.08889e-06
6.99849e-08
4.93414e-07
5.81275e-08
3.34539e-06
-8.0204e-08
4.67736e-07
5.97507e-08
3.67543e-06
-7.10098e-08
4.23386e-07
6.17507e-08
3.9e-06
-6.71933e-08
3.61836e-07
6.5574e-08
4.04145e-06
-6.36333e-08
2.85108e-07
6.81662e-08
4.11502e-06
-6.01684e-08
1.95693e-07
6.92591e-08
4.12371e-06
-5.69049e-08
9.73473e-08
6.86603e-08
4.03756e-06
-5.36228e-08
6.30553e-08
3.6673e-06
-4.85117e-08
6.37625e-07
7.9926e-08
4.44007e-06
5.81383e-07
7.8052e-08
4.65635e-06
5.11567e-07
7.53141e-08
4.77356e-06
4.29686e-07
7.76083e-08
4.81256e-06
3.35767e-07
8.08637e-08
4.78928e-06
2.30334e-07
8.37585e-08
4.70677e-06
1.15399e-07
8.52019e-08
4.5304e-06
8.13843e-08
4.04394e-06
7.45617e-07
1.27827e-07
5.15689e-06
6.7564e-07
1.11294e-07
5.29079e-06
5.89131e-07
1.01652e-07
5.32795e-06
4.90739e-07
9.89628e-08
5.29079e-06
3.8104e-07
9.99106e-08
5.19619e-06
2.60429e-07
1.02478e-07
5.04735e-06
1.30636e-07
1.04989e-07
4.80659e-06
1.03256e-07
4.23906e-06
7.32025e-07
1.58353e-07
5.32929e-06
6.69836e-07
1.31807e-07
5.43364e-06
5.86047e-07
1.19086e-07
5.44146e-06
4.88625e-07
1.13277e-07
5.3763e-06
3.7904e-07
1.12225e-07
5.25572e-06
2.58606e-07
1.13975e-07
5.08327e-06
1.30139e-07
1.16774e-07
4.82082e-06
1.16399e-07
4.23e-06
6.05121e-07
1.45039e-07
4.93106e-06
5.64293e-07
1.1996e-07
5.06257e-06
5.01369e-07
1.10805e-07
5.09666e-06
4.22308e-07
1.06037e-07
5.05716e-06
3.29977e-07
1.0547e-07
4.9615e-06
2.26038e-07
1.07535e-07
4.81309e-06
1.136e-07
1.10737e-07
4.57559e-06
1.11469e-07
4.02302e-06
4.54796e-07
9.91115e-08
4.09604e-06
4.33068e-07
8.64511e-08
4.29135e-06
3.92152e-07
8.24487e-08
4.39166e-06
3.35781e-07
8.07002e-08
4.41804e-06
2.65646e-07
8.1786e-08
4.38623e-06
1.8347e-07
8.45758e-08
4.29919e-06
9.22837e-08
8.79387e-08
4.12444e-06
8.94608e-08
3.66107e-06
3.40476e-07
3.00384e-06
3.43494e-08
3.37396e-07
3.28727e-06
4.01454e-08
3.14374e-07
3.47516e-06
4.4844e-08
2.74311e-07
3.5878e-06
4.93803e-08
2.1968e-07
3.6395e-06
5.36384e-08
1.52863e-07
3.63297e-06
5.75693e-08
7.71894e-08
3.54091e-06
6.09382e-08
3.19281e-06
6.20455e-08
1.60065e-07
5.56836e-08
3.33908e-06
-5.67876e-08
1.59807e-07
6.13298e-08
3.67047e-06
-5.55588e-08
1.53554e-07
6.36107e-08
3.89697e-06
-5.4497e-08
1.40642e-07
6.60529e-08
4.04163e-06
-5.35498e-08
1.19727e-07
6.75808e-08
4.12051e-06
-5.24813e-08
9.03116e-08
6.79374e-08
4.13624e-06
-5.13182e-08
5.23376e-08
6.64979e-08
4.05859e-06
-4.97548e-08
5.96024e-08
3.70577e-06
-4.58292e-08
1.95705e-07
5.8749e-08
4.42958e-06
1.94787e-07
6.61467e-08
4.65194e-06
1.88294e-07
6.96503e-08
4.7734e-06
1.74993e-07
7.41551e-08
4.81729e-06
1.5201e-07
7.8145e-08
4.80136e-06
1.17085e-07
8.09245e-08
4.72852e-06
6.87435e-08
8.16794e-08
4.56313e-06
7.66811e-08
4.096e-06
2.29117e-07
6.51189e-08
5.14323e-06
2.2844e-07
6.988e-08
5.2871e-06
2.20312e-07
7.43963e-08
5.33079e-06
2.04733e-07
8.00935e-08
5.30009e-06
1.78347e-07
8.58807e-08
5.21461e-06
1.37697e-07
9.10888e-08
5.07763e-06
8.09194e-08
9.49366e-08
4.84988e-06
9.38861e-08
4.30317e-06
2.34032e-07
7.08295e-08
5.32113e-06
2.31427e-07
7.09466e-08
5.43504e-06
2.22527e-07
7.50751e-08
5.44938e-06
2.06649e-07
8.06988e-08
5.39099e-06
1.80148e-07
8.71373e-08
5.28039e-06
1.39292e-07
9.37432e-08
5.12101e-06
8.25238e-08
9.98038e-08
4.8728e-06
1.02213e-07
4.30388e-06
1.8482e-07
5.97797e-08
4.93215e-06
1.87818e-07
5.94976e-08
5.07019e-06
1.85027e-07
6.46969e-08
5.10916e-06
1.75287e-07
7.07489e-08
5.07615e-06
1.55044e-07
7.75648e-08
4.99065e-06
1.21207e-07
8.47037e-08
4.85544e-06
7.23977e-08
9.16359e-08
4.63231e-06
9.57901e-08
4.10196e-06
1.3443e-07
4.25579e-08
4.1028e-06
1.39447e-07
4.43885e-08
4.30143e-06
1.40589e-07
4.94341e-08
4.40558e-06
1.35895e-07
5.48179e-08
4.43849e-06
1.21915e-07
6.0692e-08
4.41674e-06
9.65391e-08
6.67325e-08
4.34224e-06
5.86932e-08
7.25685e-08
4.18116e-06
7.63433e-08
3.73975e-06
9.82316e-08
3.00978e-06
2.15651e-08
1.06432e-07
3.29516e-06
2.84699e-08
1.09744e-07
3.48707e-06
3.39496e-08
1.06764e-07
3.60639e-06
3.88728e-08
9.5824e-08
3.66741e-06
4.33161e-08
7.62208e-08
3.67178e-06
4.73047e-08
4.74397e-08
3.59174e-06
5.06595e-08
3.26459e-06
5.18412e-08
8.88208e-08
4.86616e-08
3.32134e-06
-4.55284e-08
1.15183e-07
5.3939e-08
3.63798e-06
-4.75768e-08
1.46188e-07
5.78624e-08
3.85668e-06
-4.87295e-08
1.70369e-07
6.06325e-08
4.00581e-06
-4.94517e-08
1.74868e-07
6.22701e-08
4.10302e-06
-4.9782e-08
1.48606e-07
6.24974e-08
4.14942e-06
-4.96726e-08
9.09728e-08
6.06405e-08
4.10442e-06
-4.88778e-08
5.40572e-08
3.78808e-06
-4.54101e-08
8.68186e-08
4.46656e-08
4.41781e-06
1.20502e-07
5.30535e-08
4.61889e-06
1.63857e-07
6.07306e-08
4.72669e-06
2.01945e-07
6.69106e-08
4.77234e-06
2.1748e-07
7.14077e-08
4.77627e-06
1.94446e-07
7.40776e-08
4.73976e-06
1.26924e-07
7.43302e-08
4.61676e-06
6.96328e-08
4.2076e-06
9.56509e-08
3.80159e-08
5.13713e-06
1.29241e-07
4.87562e-08
5.25736e-06
1.77533e-07
5.9058e-08
5.28352e-06
2.23581e-07
6.81425e-08
5.25232e-06
2.46359e-07
7.56583e-08
5.18749e-06
2.25738e-07
8.15689e-08
5.09093e-06
1.51767e-07
8.55782e-08
4.91294e-06
8.51047e-08
4.43974e-06
9.99135e-08
3.64707e-08
5.31815e-06
1.30718e-07
4.52424e-08
5.40752e-06
1.79782e-07
5.51871e-08
5.40364e-06
2.28433e-07
6.49668e-08
5.34514e-06
2.53911e-07
7.38934e-08
5.25671e-06
2.34805e-07
8.1785e-08
5.1403e-06
1.6e-07
8.86562e-08
4.94529e-06
9.18117e-08
4.45715e-06
7.1018e-08
2.60126e-08
4.92663e-06
1.099e-07
3.56306e-08
5.04056e-06
1.63395e-07
4.58534e-08
5.06469e-06
2.1341e-07
5.59275e-08
5.03518e-06
2.38798e-07
6.51825e-08
4.9742e-06
2.20414e-07
7.36615e-08
4.88238e-06
1.49577e-07
8.1577e-08
4.71064e-06
8.61324e-08
4.25733e-06
5.81462e-08
1.85083e-08
4.08899e-06
9.96965e-08
2.64998e-08
4.2689e-06
1.50471e-07
3.51828e-08
4.36544e-06
1.94166e-07
4.33872e-08
4.40746e-06
2.13081e-07
5.07562e-08
4.41242e-06
1.92291e-07
5.75578e-08
4.37943e-06
1.27762e-07
6.40351e-08
4.26351e-06
6.80058e-08
3.88585e-06
6.29907e-08
2.99057e-06
1.09823e-08
1.00715e-07
3.26647e-06
1.74379e-08
1.41602e-07
3.45848e-06
2.26767e-08
1.72823e-07
3.59097e-06
2.72208e-08
1.81044e-07
3.67842e-06
3.12176e-08
1.55916e-07
3.71969e-06
3.4775e-08
9.84474e-08
3.6757e-06
3.78689e-08
3.39178e-06
3.92706e-08
1.85849e-07
4.30378e-08
-3.93666e-08
3.22274e-06
3.25917e-07
5.25443e-08
-4.3688e-08
3.48885e-06
4.87427e-07
6.01677e-08
-4.62817e-08
3.6817e-06
6.43008e-07
6.46297e-08
-4.75394e-08
3.83332e-06
7.60213e-07
6.8121e-08
-4.78691e-08
3.96574e-06
7.90077e-07
7.12958e-08
-4.74393e-08
4.09587e-06
6.23108e-07
7.47373e-08
-4.60211e-08
4.24271e-06
7.79176e-08
-4.16168e-08
4.37467e-06
1.39095e-07
3.30948e-08
4.33977e-06
2.97159e-07
4.54068e-08
4.46826e-06
4.90511e-07
5.91964e-08
4.53483e-06
6.81524e-07
6.82064e-08
4.57793e-06
8.29423e-07
7.43701e-08
4.62205e-06
8.76894e-07
7.87883e-08
4.68454e-06
6.98635e-07
8.20353e-08
4.78719e-06
8.33316e-08
4.90022e-06
1.18693e-07
2.27888e-08
5.0719e-06
2.75663e-07
3.61892e-08
5.1098e-06
4.85541e-07
5.02757e-08
5.08271e-06
7.01342e-07
6.09144e-08
5.04389e-06
8.73821e-07
6.8207e-08
5.02122e-06
9.37775e-07
7.28349e-08
5.03291e-06
7.5481e-07
7.526e-08
5.10264e-06
7.39519e-08
5.20336e-06
1.12366e-07
1.50147e-08
5.25517e-06
2.71572e-07
2.72425e-08
5.2575e-06
4.8837e-07
3.87378e-08
5.19829e-06
7.13221e-07
4.82788e-08
5.13292e-06
8.93968e-07
5.46774e-08
5.08959e-06
9.6262e-07
5.81168e-08
5.08659e-06
7.76036e-07
5.87805e-08
5.14849e-06
5.44986e-08
5.25252e-06
1.07541e-07
1.6745e-09
4.8506e-06
2.79693e-07
1.48455e-08
4.88132e-06
4.98227e-07
2.5311e-08
4.86004e-06
7.17001e-07
3.3821e-08
4.83129e-06
8.87852e-07
3.87149e-08
4.81967e-06
9.46796e-07
4.00679e-08
4.84189e-06
7.56589e-07
3.78909e-08
4.92179e-06
2.94578e-08
5.03897e-06
1.48698e-07
-3.54819e-09
3.98397e-06
3.23804e-07
6.922e-09
4.10195e-06
5.27174e-07
1.48137e-08
4.17298e-06
7.20693e-07
2.12825e-08
4.22694e-06
8.64103e-07
2.40705e-08
4.28404e-06
9.00942e-07
2.33445e-08
4.35972e-06
7.07723e-07
1.89582e-08
4.47595e-06
9.92061e-09
4.61317e-06
2.12394e-07
-3.40108e-09
2.86944e-06
3.7303e-07
2.57368e-09
3.1105e-06
5.46039e-07
6.90905e-09
3.29373e-06
7.04689e-07
9.64636e-09
3.444e-06
8.15891e-07
1.1295e-08
3.58004e-06
8.3018e-07
1.21407e-08
3.71678e-06
6.39191e-07
1.22458e-08
3.87368e-06
1.09162e-08
4.03031e-06
8.37781e-07
-2.71122e-07
2.80627e-06
1.19235e-07
8.17953e-07
-2.19605e-07
3.04982e-06
1.0718e-07
7.48547e-07
-1.8345e-07
3.20747e-06
9.91834e-08
6.45545e-07
-1.56939e-07
3.29448e-06
9.34604e-08
5.16537e-07
-1.38768e-07
3.32289e-06
8.97483e-08
3.65688e-07
-1.27539e-07
3.29476e-06
8.80025e-08
1.93765e-07
-1.20681e-07
3.1846e-06
8.73253e-08
-1.12895e-07
2.8334e-06
8.49114e-08
1.16457e-06
-3.60004e-07
3.84972e-06
1.07763e-06
-2.8096e-07
3.99005e-06
9.45389e-07
-2.2928e-07
4.05265e-06
7.88686e-07
-1.94499e-07
4.05178e-06
6.14025e-07
-1.70131e-07
3.99842e-06
4.25316e-07
-1.55786e-07
3.89315e-06
2.21359e-07
-1.47588e-07
3.70491e-06
-1.3897e-07
3.24562e-06
1.57749e-06
-3.41209e-07
4.67029e-06
1.4233e-06
-2.67506e-07
4.72868e-06
1.22057e-06
-2.15532e-07
4.71062e-06
9.96621e-07
-1.82799e-07
4.63854e-06
7.61772e-07
-1.61868e-07
4.52142e-06
5.19131e-07
-1.50596e-07
4.35764e-06
2.66077e-07
-1.45026e-07
4.11109e-06
-1.38527e-07
3.56964e-06
1.87929e-06
-2.35195e-07
5.08521e-06
1.67977e-06
-1.87558e-07
5.10311e-06
1.42826e-06
-1.48494e-07
5.04414e-06
1.15434e-06
-1.25169e-07
4.9392e-06
8.74445e-07
-1.15945e-07
4.79486e-06
5.91035e-07
-1.13312e-07
4.60733e-06
3.00131e-07
-1.13489e-07
4.33766e-06
-1.1121e-07
3.76179e-06
1.90323e-06
-1.15518e-07
4.93553e-06
1.69112e-06
-8.7157e-08
4.98117e-06
1.43422e-06
-6.67521e-08
4.94957e-06
1.15901e-06
-5.83005e-08
4.87033e-06
8.79392e-07
-6.28401e-08
4.7499e-06
5.95708e-07
-6.91715e-08
4.58446e-06
3.03345e-07
-7.45854e-08
4.33549e-06
-7.58987e-08
3.78226e-06
1.62301e-06
-3.97638e-08
4.22853e-06
1.44276e-06
-2.43385e-08
4.37367e-06
1.23442e-06
-2.20893e-08
4.43568e-06
1.01025e-06
-2.53955e-08
4.43784e-06
7.7586e-07
-3.63952e-08
4.38893e-06
5.31162e-07
-4.56293e-08
4.28791e-06
2.73436e-07
-5.21155e-08
4.10026e-06
-5.39039e-08
3.62315e-06
1.18179e-06
3.16258e-06
-7.06143e-08
1.09114e-06
3.43764e-06
-4.75065e-08
9.68087e-07
3.62179e-06
-4.34593e-08
8.21962e-07
3.73289e-06
-4.50945e-08
6.49854e-07
3.78221e-06
-4.5666e-08
4.54696e-07
3.77097e-06
-4.57429e-08
2.37896e-07
3.67024e-06
-4.5548e-08
3.30263e-06
-4.35762e-08
6.59742e-07
-2.36918e-07
2.8963e-06
1.06837e-07
6.45695e-07
-1.92892e-07
3.15907e-06
9.92778e-08
5.92531e-07
-1.61024e-07
3.32967e-06
9.14937e-08
5.10734e-07
-1.38469e-07
3.42771e-06
8.672e-08
4.07219e-07
-1.24488e-07
3.4668e-06
8.42183e-08
2.86019e-07
-1.16848e-07
3.44966e-06
8.35442e-08
1.49212e-07
-1.12649e-07
3.35075e-06
8.33889e-08
-1.07448e-07
3.00831e-06
8.09215e-08
9.16546e-07
-3.20662e-07
3.95168e-06
8.44754e-07
-2.47905e-07
4.11819e-06
7.41873e-07
-2.03161e-07
4.19709e-06
6.18681e-07
-1.72421e-07
4.20791e-06
4.80799e-07
-1.53491e-07
4.16469e-06
3.30741e-07
-1.43008e-07
4.0694e-06
1.69013e-07
-1.3731e-07
3.89109e-06
-1.30727e-07
3.43859e-06
1.26117e-06
-3.15238e-07
4.76556e-06
1.1239e-06
-2.41402e-07
4.85939e-06
9.59775e-07
-1.95256e-07
4.86639e-06
7.82982e-07
-1.66434e-07
4.80925e-06
5.9728e-07
-1.49533e-07
4.70277e-06
4.04054e-07
-1.40994e-07
4.54819e-06
2.03345e-07
-1.36805e-07
4.31022e-06
-1.30737e-07
3.77355e-06
1.53905e-06
-2.1343e-07
5.1635e-06
1.34508e-06
-1.67592e-07
5.22331e-06
1.13053e-06
-1.34773e-07
5.19885e-06
9.09941e-07
-1.19141e-07
5.1131e-06
6.86773e-07
-1.12542e-07
4.98085e-06
4.60432e-07
-1.10694e-07
4.80273e-06
2.30909e-07
-1.10583e-07
4.5412e-06
-1.07083e-07
3.96906e-06
1.57634e-06
-8.49068e-08
5.00546e-06
1.36689e-06
-7.12341e-08
5.09355e-06
1.14489e-06
-6.14213e-08
5.09704e-06
9.20359e-07
-6.3005e-08
5.03802e-06
6.95099e-07
-6.85027e-08
4.93042e-06
4.66591e-07
-7.34842e-08
4.77486e-06
2.34316e-07
-7.68892e-08
4.53431e-06
-7.54646e-08
3.985e-06
1.32913e-06
-1.85615e-08
4.30622e-06
1.16491e-06
-1.8436e-08
4.48472e-06
9.91022e-07
-2.39331e-08
4.57311e-06
8.08641e-07
-3.47147e-08
4.59203e-06
6.18195e-07
-4.4925e-08
4.55522e-06
4.19397e-07
-5.16536e-08
4.46428e-06
2.1225e-07
-5.53182e-08
4.28576e-06
-5.38425e-08
3.81398e-06
9.77912e-07
3.2378e-06
-5.76475e-08
9.00013e-07
3.53969e-06
-4.34318e-08
7.98899e-07
3.74273e-06
-4.37934e-08
6.74186e-07
3.86736e-06
-4.44459e-08
5.27982e-07
3.92777e-06
-4.41759e-08
3.64496e-07
3.92655e-06
-4.35905e-08
1.86683e-07
3.83552e-06
-4.26717e-08
3.47491e-06
-3.98936e-08
2.68033e-07
-1.47748e-07
2.92445e-06
8.20422e-08
2.76897e-07
-1.26745e-07
3.19862e-06
7.97047e-08
2.64004e-07
-1.14126e-07
3.37976e-06
7.66514e-08
2.33177e-07
-1.06066e-07
3.48849e-06
7.56423e-08
1.87614e-07
-1.02337e-07
3.53837e-06
7.60752e-08
1.30219e-07
-1.01609e-07
3.53137e-06
7.70931e-08
6.45332e-08
-1.02135e-07
3.44014e-06
7.78336e-08
-1.00844e-07
3.09751e-06
7.55449e-08
3.72778e-07
-1.87522e-07
3.97284e-06
3.62434e-07
-1.54839e-07
4.15703e-06
3.31433e-07
-1.37777e-07
4.2504e-06
2.84791e-07
-1.26762e-07
4.27413e-06
2.25661e-07
-1.21505e-07
4.24273e-06
1.55554e-07
-1.19897e-07
4.15793e-06
7.6965e-08
-1.20179e-07
3.98703e-06
-1.18145e-07
3.53365e-06
5.18265e-07
-1.84187e-07
4.76636e-06
4.87685e-07
-1.52332e-07
4.88716e-06
4.35393e-07
-1.34789e-07
4.91507e-06
3.67855e-07
-1.24379e-07
4.87436e-06
2.87619e-07
-1.19868e-07
4.7813e-06
1.96401e-07
-1.18781e-07
4.63776e-06
9.74067e-08
-1.19099e-07
4.40706e-06
-1.15976e-07
3.86891e-06
6.47185e-07
-1.27112e-07
5.14072e-06
5.91916e-07
-1.10163e-07
5.23631e-06
5.18426e-07
-1.00524e-07
5.23847e-06
4.32187e-07
-9.69078e-08
5.1724e-06
3.34286e-07
-9.66951e-08
5.05531e-06
2.26366e-07
-9.78417e-08
4.88884e-06
1.12793e-07
-9.87331e-08
4.63455e-06
-9.50526e-08
4.06045e-06
6.67257e-07