/*--------------------------------*- C++ -*----------------------------------*\
| =========                 |                                                 |
| \\      /  F ield         | OpenFOAM: The Open Source CFD Toolbox           |
|  \\    /   O peration     | Version:  plus.master.MPPICInterFoam            |
|   \\  /    A nd           | Web:      www.OpenFOAM.com                      |
|    \\/     M anipulation  |                                                 |
\*---------------------------------------------------------------------------*/
FoamFile
{
    version     2.0;
    format      ascii;
    class       surfaceScalarField;
    location    "6";
    object      phi;
}
// * * * * * * * * * * * * * * * * * * * * * * * * * * * * * * * * * * * * * //

dimensions      [0 3 -1 0 0 0 0];

internalField   nonuniform List<scalar> 
34319
(
-1.16759e-06
-8.01677e-07
5.70709e-06
1.1221e-06
9.17022e-07
-8.57421e-07
-1.14479e-06
6.55415e-06
1.33689e-06
-2.53117e-07
-1.19154e-06
7.6656e-06
1.69784e-06
4.89808e-07
-9.75179e-07
8.47606e-06
1.78063e-06
1.07158e-06
-1.1829e-06
7.69229e-06
1.66528e-06
1.31194e-06
-1.07702e-06
6.61071e-06
1.26505e-06
-7.48751e-07
5.79161e-06
1.21549e-06
8.60403e-07
-1.67133e-06
-4.03243e-07
6.31118e-06
1.58672e-06
-9.78158e-07
-5.79063e-07
7.87781e-06
-1.06895e-07
-3.78264e-07
1.09148e-05
3.82822e-07
-1.74432e-07
1.23652e-05
1.28164e-06
-4.64637e-07
1.08533e-05
1.84417e-06
-5.47955e-07
7.95223e-06
-3.75175e-07
6.39643e-06
1.68564e-06
-1.8679e-06
1.34898e-07
6.75438e-06
1.82937e-06
-7.96385e-07
1.45558e-07
9.21041e-06
1.74083e-07
2.77349e-08
1.31775e-05
1.301e-07
-4.07636e-07
1.55533e-05
1.23574e-06
-5.03233e-08
1.28283e-05
2.06711e-06
1.18155e-07
9.13733e-06
1.25455e-07
6.82714e-06
1.93039e-06
-1.82876e-06
6.6562e-07
6.7096e-06
1.80294e-06
-7.98764e-07
8.65363e-07
9.17573e-06
-1.40363e-07
6.75533e-07
1.30517e-05
3.04586e-07
4.30425e-07
1.40995e-05
1.17784e-06
7.13159e-07
1.24911e-05
2.01957e-06
7.98356e-07
9.05052e-06
6.21569e-07
6.78094e-06
1.89548e-06
-1.57986e-06
1.02307e-06
6.19895e-06
1.51015e-06
-9.5995e-07
1.4201e-06
7.6958e-06
-2.64202e-07
1.55687e-06
1.04612e-05
5.08882e-07
1.42954e-06
1.14147e-05
1.16098e-06
1.45715e-06
1.01488e-05
1.71589e-06
1.30331e-06
7.71539e-06
9.51218e-07
6.2876e-06
1.59908e-06
-1.11565e-06
1.10168e-06
5.57591e-06
1.0854e-06
-8.04593e-07
1.51674e-06
6.35482e-06
-2.00728e-07
1.84476e-06
7.27527e-06
4.31667e-07
1.90524e-06
7.81338e-06
9.84504e-07
1.78309e-06
7.29224e-06
1.23989e-06
1.4247e-06
6.41454e-06
1.02511e-06
5.664e-06
1.17374e-06
-7.25555e-07
4.9708e-06
7.36894e-07
9.9725e-07
-5.12613e-07
5.46612e-06
1.309e-06
-1.17204e-07
5.88719e-06
1.56943e-06
3.19355e-07
6.08119e-06
1.64315e-06
6.85648e-07
5.91262e-06
1.5238e-06
8.52155e-07
5.5199e-06
1.23832e-06
5.05115e-06
8.24298e-07
9.32395e-07
-1.27485e-06
-9.09504e-07
5.7844e-06
1.14737e-06
9.58999e-07
-1.10479e-06
-1.44238e-06
6.40537e-06
1.42307e-06
-3.87182e-07
-2.02656e-06
7.00788e-06
1.96538e-06
6.25396e-07
-2.11493e-06
7.38088e-06
2.19626e-06
1.28422e-06
-1.92017e-06
7.05512e-06
1.89917e-06
1.39585e-06
-1.33932e-06
6.49894e-06
1.33939e-06
-8.38707e-07
5.90608e-06
1.22277e-06
8.96781e-07
-1.98789e-06
-5.11422e-07
6.2514e-06
1.65102e-06
-1.81791e-06
-8.67417e-07
7.13228e-06
-5.78757e-07
-1.06641e-06
8.71684e-06
8.84997e-07
-1.17479e-06
9.96576e-06
2.02786e-06
-9.77051e-07
8.76769e-06
2.11401e-06
-7.5635e-07
7.28366e-06
-4.53248e-07
6.3947e-06
1.73204e-06
-2.40802e-06
1.44147e-07
6.54263e-06
1.96394e-06
-1.99982e-06
1.58345e-07
7.7787e-06
-7.85353e-07
2.08027e-07
1.06922e-05
1.00903e-06
1.18989e-07
1.2466e-05
2.2847e-06
2.04656e-07
1.03704e-05
2.52356e-06
1.89202e-07
7.95473e-06
1.54893e-07
6.70462e-06
2.03872e-06
-2.32019e-06
7.68342e-07
6.49831e-06
1.90819e-06
-1.85034e-06
1.13132e-06
7.73524e-06
-7.38705e-07
1.3843e-06
1.07634e-05
9.54016e-07
1.36694e-06
1.11609e-05
2.18356e-06
1.36815e-06
1.00989e-05
2.44046e-06
1.07316e-06
7.90934e-06
7.24066e-07
6.66431e-06
1.98674e-06
-1.80932e-06
1.08671e-06
6.15259e-06
1.53741e-06
-1.61044e-06
1.63459e-06
6.99362e-06
-4.5848e-07
2.28583e-06
8.40675e-06
8.50302e-07
2.35017e-06
9.12411e-06
1.83899e-06
2.15388e-06
8.37738e-06
1.93861e-06
1.54083e-06
7.14923e-06
1.02119e-06
6.30379e-06
1.62629e-06
-1.17469e-06
1.09899e-06
5.66652e-06
1.07039e-06
-9.9845e-07
1.55783e-06
6.25697e-06
-2.922e-07
2.04466e-06
6.8116e-06
5.70857e-07
2.20088e-06
7.1013e-06
1.18694e-06
1.96949e-06
6.86163e-06
1.3048e-06
1.47955e-06
6.35901e-06
1.0342e-06
5.79259e-06
1.16321e-06
-7.27399e-07
5.12801e-06
7.11302e-07
9.57889e-07
-5.57823e-07
5.57575e-06
1.28013e-06
-1.44455e-07
5.92829e-06
1.58996e-06
3.61339e-07
6.08207e-06
1.69454e-06
7.2975e-07
5.96868e-06
1.54518e-06
8.51466e-07
5.65443e-06
1.22156e-06
5.23105e-06
7.97436e-07
9.07458e-07
-6.15499e-07
-4.47468e-07
5.79294e-06
5.75896e-07
4.77741e-07
-5.2862e-07
-7.37924e-07
6.35623e-06
7.01288e-07
-1.5882e-07
-1.16342e-06
6.82013e-06
9.80623e-07
4.03712e-07
-1.31733e-06
7.03595e-06
1.09833e-06
7.02441e-07
-1.05903e-06
6.89417e-06
9.21163e-07
7.30908e-07
-6.49848e-07
6.4829e-06
6.37311e-07
-3.96922e-07
5.94462e-06
6.54818e-07
4.33396e-07
-9.87036e-07
-2.37416e-07
6.20478e-06
8.24531e-07
-1.0231e-06
-4.8576e-07
6.91564e-06
-3.84892e-07
-7.92715e-07
7.70701e-06
7.5915e-07
-7.17975e-07
8.22293e-06
1.20187e-06
-5.85919e-07
7.85282e-06
1.10001e-06
-3.7782e-07
7.113e-06
-2.00604e-07
6.39142e-06
9.07296e-07
-1.26593e-06
1.28592e-07
6.44435e-06
9.97004e-07
-1.41672e-06
1.45312e-07
7.29878e-06
-6.65454e-07
2.81813e-07
8.86696e-06
1.2527e-06
6.36593e-07
9.19431e-06
1.5753e-06
4.06011e-07
9.05582e-06
1.36637e-06
1.83544e-07
7.60274e-06
1.29305e-07
6.66311e-06
1.07789e-06
-1.18654e-06
4.50636e-07
6.41233e-06
9.50894e-07
-1.27008e-06
7.05463e-07
7.25877e-06
-2.72408e-07
1.12523e-06
8.92213e-06
9.69954e-07
1.04099e-06
9.5153e-06
1.43786e-06
9.70867e-07
9.06587e-06
1.29846e-06
6.29846e-07
7.60179e-06
4.15492e-07
6.6363e-06
1.03919e-06
-8.45239e-07
5.85492e-07
6.12606e-06
7.37101e-07
-8.18008e-07
8.53825e-07
6.81816e-06
-1.51029e-07
1.26214e-06
7.60246e-06
6.02817e-07
1.3356e-06
8.07527e-06
1.01535e-06
1.16269e-06
7.77367e-06
9.73073e-07
7.85092e-07
7.03708e-06
5.38725e-07
6.32111e-06
8.33004e-07
-5.30193e-07
5.86476e-07
5.6897e-06
5.04732e-07
-4.41804e-07
7.89443e-07
6.23344e-06
-8.39558e-08
1.02576e-06
6.69092e-06
3.51371e-07
1.09251e-06
6.90938e-06
6.25944e-07
9.75073e-07
6.7754e-06
6.5947e-07
7.3984e-07
6.37106e-06
5.44422e-07
5.84589e-06
5.99765e-07
-3.23435e-07
5.18376e-06
3.31662e-07
5.21837e-07
-2.31554e-07
5.60754e-06
6.66159e-07
-2.44573e-08
5.93064e-06
8.15829e-07
2.16953e-07
6.07324e-06
8.60242e-07
3.86972e-07
5.98712e-06
7.8652e-07
4.40892e-07
5.70697e-06
6.3139e-07
5.30653e-06
4.17137e-07
4.91937e-07
-1.0808e-07
-8.11374e-08
5.74364e-06
1.3484e-07
1.03663e-07
-5.02684e-08
-1.2584e-07
6.27722e-06
1.47375e-07
4.75935e-08
-1.84858e-07
6.71193e-06
1.94457e-07
1.4634e-07
-1.90962e-07
6.92031e-06
2.06963e-07
2.07725e-07
-1.55881e-07
6.81239e-06
1.75897e-07
2.26034e-07
-9.20287e-08
6.43424e-06
1.2235e-07
-6.30074e-08
5.92234e-06
2.25492e-07
8.54216e-08
-1.69811e-07
-1.98044e-08
6.12618e-06
1.8723e-07
-1.14e-07
-5.83923e-08
6.79163e-06
4.47233e-08
-8.64139e-08
7.4487e-06
2.1562e-07
8.31252e-09
7.85279e-06
2.75096e-07
-2.47163e-08
7.66219e-06
2.92994e-07
-2.41431e-08
7.02665e-06
-1.36454e-08
6.34861e-06
2.86703e-07
-2.2373e-07
7.12981e-08
6.3457e-06
2.30368e-07
-1.73251e-07
5.98282e-08
7.12938e-06
1.75459e-07
8.79141e-08
8.34359e-06
2.43755e-07
2.56724e-07
8.87794e-06
3.22649e-07
1.09322e-07
8.84267e-06
3.5774e-07
5.61378e-08
7.48738e-06
6.1819e-08
6.60755e-06
3.37242e-07
-2.29674e-07
1.61517e-07
6.32621e-06
2.25298e-07
-2.22243e-07
1.9948e-07
7.11139e-06
1.48889e-07
2.62999e-07
8.37599e-06
3.85405e-07
1.14986e-07
9.42159e-06
3.96353e-07
2.3747e-07
8.92656e-06
3.83406e-07
1.64008e-07
7.50661e-06
1.46334e-07
6.59278e-06
3.41836e-07
-1.37589e-07
1.95882e-07
6.07027e-06
1.58616e-07
-7.8657e-08
2.2603e-07
6.73226e-06
1.05628e-07
2.73472e-07
7.40746e-06
1.71917e-07
2.54141e-07
7.86965e-06
2.62239e-07
2.67724e-07
7.65332e-06
2.77659e-07
2.04152e-07
6.98185e-06
1.77795e-07
6.29898e-06
2.68675e-07
-7.49971e-08
2.0002e-07
5.66219e-06
9.76755e-08
-2.77939e-08
2.27623e-07
6.18398e-06
5.86296e-08
2.60682e-07
6.61757e-06
1.30268e-07
2.58315e-07
6.83362e-06
1.91981e-07
2.55579e-07
6.72605e-06
2.03798e-07
2.14802e-07
6.34851e-06
1.85116e-07
5.8446e-06
1.97172e-07
-3.47986e-08
5.17534e-06
5.14879e-08
1.91409e-07
-2.28294e-09
5.58865e-06
2.13866e-07
4.9305e-08
5.89912e-06
2.40108e-07
9.65531e-08
6.04042e-06
2.43708e-07
1.34814e-07
5.96876e-06
2.35506e-07
1.45225e-07
5.70668e-06
2.03518e-07
5.3183e-06
1.3817e-07
1.7984e-07
2.84125e-08
7.49597e-09
5.69736e-06
3.56919e-09
6.85756e-09
5.14021e-08
8.75817e-09
6.24237e-06
2.63294e-09
7.24769e-08
1.72063e-09
6.68249e-06
6.11463e-09
8.21469e-08
-6.226e-10
6.90047e-06
1.02066e-08
9.17685e-08
-6.12584e-09
6.79778e-06
1.06521e-08
9.53926e-08
7.92213e-09
6.42057e-06
2.08356e-09
5.97185e-09
5.90076e-06
1.06352e-07
4.60135e-09
3.33644e-08
2.0793e-08
6.08291e-06
-3.92377e-09
6.17225e-08
1.90313e-08
6.75216e-06
9.14529e-08
2.48816e-08
7.39505e-06
8.78016e-08
2.49532e-08
7.83048e-06
8.61579e-08
3.02818e-08
7.62716e-06
9.93166e-08
1.71914e-08
7.00361e-06
1.03919e-08
6.33339e-06
1.09872e-07
2.87454e-08
3.5956e-08
6.30297e-06
-1.70068e-09
6.81541e-08
1.97907e-08
7.08836e-06
2.07754e-07
1.92376e-08
8.20926e-06
7.93728e-08
-3.38285e-08
9.06542e-06
7.58002e-08
-3.98513e-09
8.88002e-06
1.23218e-07
-2.27949e-09
7.45866e-06
2.06255e-08
6.59512e-06
1.249e-07
9.41029e-09
6.14266e-08
6.28897e-06
1.83394e-09
1.19938e-08
5.17738e-08
7.07618e-06
1.46046e-07
3.23744e-08
8.22881e-06
2.74149e-07
-1.14334e-07
9.37433e-06
1.87967e-07
5.07201e-08
8.95708e-06
1.71669e-07
4.81646e-08
7.47183e-06
5.96041e-08
6.58537e-06
1.39782e-07
4.37157e-08
6.84921e-08
6.03922e-06
-2.02406e-08
7.17557e-08
4.93207e-08
6.70645e-06
1.24358e-07
3.20624e-08
7.35473e-06
6.46e-08
7.5055e-10
7.81343e-06
9.46269e-08
6.10582e-08
7.61229e-06
1.00926e-07
5.48658e-08
6.96862e-06
6.53253e-08
6.29542e-06
9.8624e-08
5.31906e-08
7.53386e-08
5.62969e-06
-2.8065e-08
6.98259e-08
5.16393e-08
6.16442e-06
7.96978e-08
3.75092e-08
6.60188e-06
6.48415e-08
2.62015e-08
6.82255e-06
7.50412e-08
5.22973e-08
6.72436e-06
7.28885e-08
5.61005e-08
6.34918e-06
7.00482e-08
5.83757e-06
7.47318e-08
4.6403e-08
5.1322e-06
-2.31181e-08
9.48543e-08
5.92374e-08
5.56156e-06
6.52638e-08
6.34382e-08
5.88236e-06
4.9717e-08
5.6549e-08
6.03014e-06
4.30536e-08
5.94035e-08
5.96278e-06
5.51908e-08
6.05086e-08
5.69732e-06
6.38943e-08
5.29666e-06
6.6457e-08
8.53721e-08
4.44195e-08
-1.62852e-08
1.56406e-08
5.65346e-08
5.59699e-06
6.97524e-08
3.18175e-09
2.17969e-08
6.19184e-06
7.42439e-08
7.70155e-09
2.98452e-09
6.66782e-06
7.0534e-08
-1.27692e-08
2.49522e-09
6.91461e-06
7.62492e-08
-2.60355e-08
1.27002e-08
6.80503e-06
9.18942e-08
-1.61751e-08
2.43973e-08
6.39652e-06
-2.05149e-08
1.31815e-07
4.88847e-08
5.83273e-06
7.21642e-08
1.98447e-09
-2.35356e-08
6.0158e-06
9.31061e-08
1.41072e-08
6.72072e-06
8.83333e-08
1.62619e-08
7.39121e-06
6.80241e-08
-2.53202e-09
7.83974e-06
6.78953e-08
-2.32571e-08
7.62346e-06
8.26877e-08
-1.08253e-08
6.98312e-06
-8.40676e-09
1.05709e-07
6.29841e-06
9.07022e-08
9.38156e-09
-4.30878e-08
6.24855e-06
9.64529e-08
-1.82597e-09
7.09833e-06
2.05401e-07
-1.77713e-08
8.13362e-06
2.00007e-08
-1.34704e-07
9.38117e-06
8.5939e-08
-3.21716e-08
8.81989e-06
9.47204e-08
-1.85976e-08
7.45567e-06
6.70957e-10
9.91921e-08
6.58095e-06
8.40084e-08
2.01201e-08
-4.37133e-08
6.23776e-06
7.61147e-08
-7.35947e-09
7.08878e-06
1.80563e-07
-3.47646e-08
8.13943e-06
1.13446e-07
-9.67303e-08
9.39988e-06
1.41412e-07
8.10727e-09
8.88569e-06
1.17607e-07
9.25001e-09
7.46609e-06
2.40548e-08
1.02508e-07
6.57667e-06
8.48643e-08
3.68675e-08
-4.10898e-08
5.97828e-06
1.08703e-07
-1.5327e-09
6.6762e-06
1.12909e-07
-3.32123e-08
7.34709e-06
5.69746e-08
-3.84868e-08
7.80833e-06
5.45014e-08
7.35239e-09
7.61346e-06
7.09283e-08
1.59118e-08
6.94444e-06
3.56323e-08
8.31101e-08
6.27111e-06
7.03903e-08
6.98334e-08
-1.61301e-08
5.54232e-06
8.9268e-08
1.90328e-08
6.12461e-06
8.54994e-08
-1.37869e-08
6.58504e-06
5.68787e-08
-2.94688e-08
6.84096e-06
5.0033e-08
-4.35911e-09
6.74182e-06
6.01488e-08
1.88928e-08
6.33556e-06
5.4508e-08
9.08324e-08
5.78802e-06
3.76811e-08
3.28858e-08
1.47149e-07
4.9842e-06
6.40084e-08
7.73736e-08
5.47696e-06
6.70671e-08
3.53111e-08
5.82987e-06
5.92884e-08
2.11007e-08
5.98659e-06
6.10528e-08
3.37446e-08
5.92255e-06
7.60759e-08
6.33355e-08
5.63838e-06
1.26236e-07
1.1835e-07
5.1833e-06
1.18554e-06
9.96609e-08
3.19927e-06
-1.34159e-07
1.09866e-06
7.68051e-08
3.47839e-06
-1.02549e-07
9.76825e-07
6.39754e-08
3.66932e-06
-8.7415e-08
8.30519e-07
5.97081e-08
3.78577e-06
-8.01968e-08
6.58215e-07
6.41172e-08
3.83831e-06
-7.38612e-08
4.62415e-07
6.862e-08
3.82759e-06
-6.83198e-08
2.43183e-07
7.15159e-08
3.72382e-06
-6.30219e-08
7.01635e-08
3.3457e-06
-5.54678e-08
1.59357e-06
1.53292e-07
4.29836e-06
1.42898e-06
1.18509e-07
4.43341e-06
1.22872e-06
9.39817e-08
4.50277e-06
1.01045e-06
8.10073e-08
4.51127e-06
7.79221e-07
8.19849e-08
4.46544e-06
5.35771e-07
8.57014e-08
4.36353e-06
2.76663e-07
8.92419e-08
4.17033e-06
8.85375e-08
3.67841e-06
1.84632e-06
2.28054e-07
5.03917e-06
1.65809e-06
1.83067e-07
5.05603e-06
1.41735e-06
1.48661e-07
5.03015e-06
1.15308e-06
1.28031e-07
4.95708e-06
8.80165e-07
1.20494e-07
4.83883e-06
6.00116e-07
1.18896e-07
4.671e-06
3.08136e-07
1.19854e-07
4.41437e-06
1.17899e-07
3.84327e-06
1.82606e-06
2.84622e-07
5.19421e-06
1.64795e-06
2.28366e-07
5.18139e-06
1.41202e-06
1.87679e-07
5.12683e-06
1.14891e-06
1.64251e-07
5.02849e-06
8.76321e-07
1.50518e-07
4.88469e-06
5.96585e-07
1.44373e-07
4.69352e-06
3.05632e-07
1.42585e-07
4.41504e-06
1.3898e-07
3.82032e-06
1.5529e-06
2.76398e-07
4.7477e-06
1.41132e-06
2.21615e-07
4.79579e-06
1.21857e-06
1.83587e-07
4.78372e-06
1.00041e-06
1.61632e-07
4.71621e-06
7.69105e-07
1.4742e-07
4.59958e-06
5.27034e-07
1.40576e-07
4.43194e-06
2.71333e-07
1.38048e-07
4.17681e-06
1.34029e-07
3.61796e-06
1.16868e-06
1.85827e-07
3.89278e-06
1.08376e-06
1.55157e-07
4.03763e-06
9.53516e-07
1.32183e-07
4.1062e-06
7.97833e-07
1.18709e-07
4.1091e-06
6.23655e-07
1.10708e-07
4.05608e-06
4.33528e-07
1.07571e-07
3.94766e-06
2.26223e-07
1.06946e-07
3.75238e-06
1.04404e-07
3.27883e-06
8.58239e-07
2.82907e-06
5.06617e-08
8.30857e-07
3.07757e-06
4.99891e-08
7.57112e-07
3.23939e-06
5.26299e-08
6.51547e-07
3.32884e-06
5.68792e-08
5.2082e-07
3.35739e-06
6.16047e-08
3.68966e-07
3.32702e-06
6.65184e-08
1.96061e-07
3.21178e-06
7.12671e-08
2.85015e-06
7.41906e-08
1.16821e-06
7.78883e-08
3.30086e-06
-1.25103e-07
1.06855e-06
6.33431e-08
3.61163e-06
-9.63331e-08
9.43478e-07
5.81791e-08
3.82203e-06
-8.53787e-08
7.94369e-07
6.16208e-08
3.95188e-06
-7.8831e-08
6.22426e-07
6.70442e-08
4.01502e-06
-7.25428e-08
4.30883e-07
7.06652e-08
4.01433e-06
-6.67677e-08
2.21673e-07
7.23029e-08
3.9212e-06
-6.13569e-08
6.94435e-08
3.55154e-06
-5.41586e-08
1.5713e-06
1.33352e-07
4.40315e-06
1.37336e-06
1.04961e-07
4.58914e-06
1.16343e-06
8.53966e-08
4.68454e-06
9.47108e-07
8.0967e-08
4.70756e-06
7.24033e-07
8.35049e-08
4.67166e-06
4.9245e-07
8.69886e-08
4.5787e-06
2.5019e-07
8.9715e-08
4.395e-06
8.78368e-08
3.90983e-06
1.84251e-06
2.36293e-07
5.13257e-06
1.59913e-06
1.8045e-07
5.22327e-06
1.33811e-06
1.44098e-07
5.2315e-06
1.07495e-06
1.26127e-07
5.17472e-06
8.12298e-07
1.19063e-07
5.06582e-06
5.47177e-07
1.17319e-07
4.90576e-06
2.75499e-07
1.1775e-07
4.65743e-06
1.15091e-07
4.09159e-06
1.81137e-06
3.08412e-07
5.29712e-06
1.58226e-06
2.32393e-07
5.35844e-06
1.32875e-06
1.87815e-07
5.33712e-06
1.06816e-06
1.61301e-07
5.25386e-06
8.06285e-07
1.4668e-07
5.11842e-06
5.42204e-07
1.40041e-07
4.93445e-06
2.72592e-07
1.37595e-07
4.66401e-06
1.33423e-07
4.07448e-06
1.51335e-06
2.92064e-07
4.8774e-06
1.34272e-06
2.21655e-07
4.97701e-06
1.14309e-06
1.8235e-07
4.98885e-06
9.29949e-07
1.57322e-07
4.93327e-06
7.08806e-07
1.42683e-07
4.82452e-06
4.80161e-07
1.35606e-07
4.66467e-06
2.43153e-07
1.326e-07
4.41862e-06
1.28204e-07
3.86634e-06
1.12358e-06
1.92706e-07
4.03008e-06
1.02532e-06
1.52794e-07
4.20462e-06
8.95047e-07
1.29704e-07
4.28919e-06
7.44609e-07
1.1502e-07
4.30241e-06
5.78259e-07
1.07145e-07
4.25824e-06
3.9787e-07
1.04048e-07
4.15946e-06
2.04175e-07
1.03211e-07
3.97523e-06
1.0072e-07
3.51072e-06
8.23487e-07
2.94385e-06
5.27796e-08
7.89108e-07
3.21287e-06
5.29251e-08
7.1474e-07
3.38841e-06
5.53648e-08
6.11508e-07
3.48897e-06
5.8689e-08
4.85406e-07
3.52829e-06
6.24731e-08
3.40278e-07
3.50955e-06
6.63748e-08
1.77621e-07
3.40718e-06
7.0009e-08
3.05674e-06
7.15166e-08
6.43012e-07
5.98693e-08
3.3426e-06
-9.03725e-08
6.01492e-07
5.92077e-08
3.67078e-06
-7.66774e-08
5.40258e-07
6.08232e-08
3.89432e-06
-7.18106e-08
4.58992e-07
6.53012e-08
4.03521e-06
-6.74441e-08
3.60244e-07
6.84543e-08
4.10837e-06
-6.33595e-08
2.47108e-07
6.99533e-08
4.11673e-06
-5.94721e-08
1.23656e-07
6.97271e-08
4.03045e-06
-5.56352e-08
6.46398e-08
3.66048e-06
-5.00061e-08
8.40305e-07
8.97351e-08
4.43955e-06
7.53356e-07
8.27656e-08
4.65189e-06
6.54124e-07
7.71336e-08
4.76678e-06
5.435e-07
7.87857e-08
4.80468e-06
4.21239e-07
8.18309e-08
4.78091e-06
2.8753e-07
8.47308e-08
4.69817e-06
1.44296e-07
8.63415e-08
4.52185e-06
8.28189e-08
4.03608e-06
9.85892e-07
1.54701e-07
5.15906e-06
8.76295e-07
1.27804e-07
5.28685e-06
7.52337e-07
1.11741e-07
5.32053e-06
6.1861e-07
1.0574e-07
5.28182e-06
4.75538e-07
1.0471e-07
5.18666e-06
3.22795e-07
1.06154e-07
5.03768e-06
1.61304e-07
1.08052e-07
4.79714e-06
1.05966e-07
4.23056e-06
9.64846e-07
1.95714e-07
5.32992e-06
8.66579e-07
1.56108e-07
5.42834e-06
7.47609e-07
1.35704e-07
5.43288e-06
6.15253e-07
1.24672e-07
5.3664e-06
4.7269e-07
1.20394e-07
5.24537e-06
3.2034e-07
1.20087e-07
5.07284e-06
1.60208e-07
1.21527e-07
4.81064e-06
1.2016e-07
4.22078e-06
7.97856e-07
1.80834e-07
4.92758e-06
7.31491e-07
1.44168e-07
5.05515e-06
6.41042e-07
1.27993e-07
5.08717e-06
5.33972e-07
1.18155e-07
5.04688e-06
4.13593e-07
1.14181e-07
4.95094e-06
2.81742e-07
1.13963e-07
4.80241e-06
1.41437e-07
1.15556e-07
4.56501e-06
1.14951e-07
4.01317e-06
5.97567e-07
1.21511e-07
4.09001e-06
5.61386e-07
1.01874e-07
4.28327e-06
5.02627e-07
9.35632e-08
4.38258e-06
4.26455e-07
8.87007e-08
4.40852e-06
3.35141e-07
8.76814e-08
4.37637e-06
2.30732e-07
8.9009e-08
4.28898e-06
1.16378e-07
9.12721e-08
4.11402e-06
9.17842e-08
3.65095e-06
4.46103e-07
2.99828e-06
3.91076e-08
4.37363e-07
3.28074e-06
4.36947e-08
4.04034e-07
3.46802e-06
4.76625e-08
3.50128e-07
3.58012e-06
5.1758e-08
2.79107e-07
3.63119e-06
5.57765e-08
1.94047e-07
3.62397e-06
5.95753e-08
9.83486e-08
3.53133e-06
6.2883e-08
3.18308e-06
6.39693e-08
2.35956e-07
5.54147e-08
3.33817e-06
-6.19187e-08
2.33655e-07
6.09573e-08
3.67147e-06
-5.94936e-08
2.21838e-07
6.34037e-08
3.9003e-06
-5.76583e-08
1.99667e-07
6.62276e-08
4.04724e-06
-5.61381e-08
1.6652e-07
6.80667e-08
4.12794e-06
-5.45039e-08
1.22663e-07
6.86914e-08
4.14493e-06
-5.2845e-08
6.88807e-08
6.75746e-08
4.06802e-06
-5.08531e-08
6.11631e-08
3.71524e-06
-4.66084e-08
2.91915e-07
6.20445e-08
4.42696e-06
2.84642e-07
6.83377e-08
4.65114e-06
2.68238e-07
7.0841e-08
4.77548e-06
2.4198e-07
7.4997e-08
4.82231e-06
2.03722e-07
7.89397e-08
4.80874e-06
1.51987e-07
8.18538e-08
4.73748e-06
8.62964e-08
8.28721e-08
4.57298e-06
7.82374e-08
4.10598e-06
3.40432e-07
7.7761e-08
5.1395e-06
3.31576e-07
7.86725e-08
5.28489e-06
3.11009e-07
8.04129e-08
5.33167e-06
2.79619e-07
8.44035e-08
5.30436e-06
2.35281e-07
8.91896e-08
5.22167e-06
1.75554e-07
9.38384e-08
5.08654e-06
9.9328e-08
9.74013e-08
4.85982e-06
9.62143e-08
4.31329e-06
3.43522e-07
8.97137e-08
5.31609e-06
3.34396e-07
8.4478e-08
5.43175e-06
3.13674e-07
8.51342e-08
5.44938e-06
2.82067e-07
8.82144e-08
5.39458e-06
2.37424e-07
9.28792e-08
5.28684e-06
1.77255e-07
9.82618e-08
5.12932e-06
1.00834e-07
1.03459e-07
4.88209e-06
1.0517e-07
4.31332e-06
2.80376e-07
7.91245e-08
4.9266e-06
2.7939e-07
7.35174e-08
5.06689e-06
2.66944e-07
7.54679e-08
5.10922e-06
2.43691e-07
7.88903e-08
5.07949e-06
2.07468e-07
8.37481e-08
4.99645e-06
1.56301e-07
8.9442e-08
4.86274e-06
8.98965e-08
9.52685e-08
4.64036e-06
9.84195e-08
4.11006e-06
2.11214e-07
5.55235e-08
4.09855e-06
2.14175e-07
5.40635e-08
4.29962e-06
2.08582e-07
5.6899e-08
4.40661e-06
1.93663e-07
6.04555e-08
4.44199e-06
1.67029e-07
6.49892e-08
4.42194e-06
1.2735e-07
7.00227e-08
4.34838e-06
7.43144e-08
7.50461e-08
4.18773e-06
7.80689e-08
3.7463e-06
1.59386e-07
3.00813e-06
2.44775e-08
1.67792e-07
3.29537e-06
3.10721e-08
1.67247e-07
3.48917e-06
3.62518e-08
1.56802e-07
3.61e-06
4.09287e-08
1.35712e-07
3.67198e-06
4.51814e-08
1.03987e-07
3.67683e-06
4.90355e-08
6.15913e-08
3.59696e-06
5.23119e-08
3.26975e-06
5.34573e-08
1.25513e-07
4.8292e-08
3.31841e-06
-4.80589e-08
1.52246e-07
5.35838e-08
3.64049e-06
-4.95397e-08
1.80683e-07
5.74389e-08
3.86451e-06
-5.03044e-08
1.99897e-07
6.04893e-08
4.01787e-06
-5.06744e-08
1.97857e-07
6.24479e-08
4.118e-06
-5.06946e-08
1.64153e-07
6.29961e-08
4.1661e-06
-5.03466e-08
9.87229e-08
6.14877e-08
4.1218e-06
-4.93687e-08
5.52478e-08
3.80481e-06
-4.58079e-08
1.31327e-07
4.55552e-08
4.4078e-06
1.64923e-07
5.38019e-08
4.61683e-06
2.04245e-07
6.08475e-08
4.73238e-06
2.35645e-07
6.70313e-08
4.78415e-06
2.43041e-07
7.17614e-08
4.79212e-06
2.11353e-07
7.47545e-08
4.75788e-06
1.35324e-07
7.53703e-08
4.63579e-06
7.10359e-08
4.22598e-06
1.45445e-07
4.2329e-08
5.12175e-06
1.80394e-07
5.23146e-08
5.251e-06
2.24313e-07
6.16727e-08
5.28672e-06
2.62466e-07
7.02131e-08
5.26319e-06
2.75604e-07
7.74636e-08
5.20343e-06
2.44859e-07
8.32843e-08
5.10969e-06
1.60907e-07
8.73117e-08
4.93287e-06
8.69079e-08
4.45902e-06
1.52343e-07
4.44652e-08
5.30115e-06
1.84473e-07
5.17342e-08
5.39994e-06
2.28856e-07
6.05047e-08
5.40609e-06
2.69136e-07
6.92541e-08
5.35555e-06
2.84468e-07
7.73811e-08
5.2723e-06
2.54703e-07
8.47009e-08
5.15869e-06
1.69469e-07
9.11513e-08
4.96481e-06
9.39414e-08
4.47594e-06
1.20974e-07
3.58758e-08
4.91261e-06
1.60196e-07
4.33108e-08
5.03572e-06
2.08943e-07
5.21469e-08
5.06869e-06
2.51114e-07
6.08938e-08
5.04589e-06
2.67206e-07
6.91061e-08
4.98911e-06
2.39058e-07
7.68047e-08
4.89947e-06
1.58738e-07
8.41229e-08
4.72854e-06
8.81471e-08
4.2745e-06
1.00855e-07
2.60626e-08
4.08174e-06
1.42009e-07
3.25773e-08
4.26895e-06
1.88741e-07
4.00582e-08
4.37193e-06
2.26076e-07
4.71259e-08
4.41853e-06
2.37463e-07
5.3654e-08
4.42619e-06
2.08585e-07
5.98519e-08
4.39452e-06
1.35803e-07
6.58799e-08
4.27902e-06
6.9549e-08
3.90074e-06
9.73531e-08
2.9899e-06
1.30602e-08
1.35234e-07
3.27034e-06
1.94347e-08
1.7358e-07
3.46621e-06
2.45224e-08
2.00174e-07
3.60138e-06
2.89161e-08
2.02466e-07
3.69041e-06
3.27875e-08
1.7057e-07
3.73244e-06
3.62542e-08
1.05749e-07
3.68869e-06
3.92995e-08
3.40436e-06
4.0701e-08
2.26461e-07
4.29376e-08
-4.04432e-08
3.22181e-06
3.6217e-07
5.24564e-08
-4.4393e-08
3.49722e-06
5.17716e-07
5.98284e-08
-4.67685e-08
3.6966e-06
6.67107e-07
6.45741e-08
-4.79489e-08
3.85219e-06
7.7834e-07
6.8427e-08
-4.82429e-08
3.98672e-06
8.02487e-07
7.19232e-08
-4.77768e-08
4.11781e-06
6.29679e-07
7.56183e-08
-4.63225e-08
4.26514e-06
7.89738e-08
-4.19272e-08
4.39684e-06
1.94285e-07
3.57929e-08
4.3268e-06
3.45468e-07
4.71537e-08
4.47138e-06
5.29403e-07
5.97553e-08
4.54884e-06
7.11111e-07
6.86396e-08
4.59832e-06
8.50823e-07
7.50275e-08
4.64556e-06
8.91242e-07
7.97787e-08
4.70929e-06
7.06295e-07
8.33603e-08
4.81252e-06
8.49502e-08
4.92575e-06
1.80647e-07
2.6288e-08
5.04961e-06
3.32354e-07
3.94584e-08
5.10707e-06
5.31716e-07
5.2588e-08
5.09447e-06
7.3641e-07
6.26531e-08
5.06431e-06
8.99007e-07
6.97255e-08
5.0458e-06
9.54477e-07
7.43371e-08
5.05916e-06
7.63543e-07
7.68379e-08
5.12976e-06
7.5644e-08
5.23111e-06
1.78844e-07
2.08588e-08
5.23009e-06
3.31486e-07
3.26166e-08
5.25408e-06
5.3688e-07
4.30523e-08
5.20998e-06
7.49889e-07
5.15912e-08
5.15342e-06
9.20252e-07
5.73026e-08
5.11415e-06
9.80011e-07
6.02682e-08
5.11267e-06
7.85261e-07
6.05879e-08
5.17539e-06
5.60085e-08
5.28004e-06
1.71488e-07
1.07336e-08
4.83426e-06
3.34963e-07
2.15604e-08
4.88341e-06
5.42253e-07
3.04881e-08
4.8741e-06
7.50249e-07
3.77338e-08
4.85183e-06
9.11999e-07
4.17375e-08
4.84291e-06
9.63151e-07
4.24597e-08
4.866e-06
7.6552e-07
3.98194e-08
4.94652e-06
3.09666e-08
5.06442e-06
1.99177e-07
4.97955e-09
3.97989e-06
3.67176e-07
1.23743e-08
4.11054e-06
5.61912e-07
1.92457e-08
4.18879e-06
7.4734e-07
2.45546e-08
4.24627e-06
8.8392e-07
2.6576e-08
4.30458e-06
9.14763e-07
2.53779e-08
4.38049e-06
7.15291e-07
2.06918e-08
4.49716e-06
1.13369e-08
4.6352e-06
2.47176e-07
-4.83333e-10
2.87482e-06
4.03433e-07
5.00645e-09
3.12164e-06
5.71623e-07
9.03017e-09
3.30839e-06
7.25362e-07
1.15974e-08
3.46034e-06
8.31948e-07
1.31506e-08
3.59689e-06
8.41724e-07
1.39526e-08
3.73375e-06
6.45649e-07
1.40062e-08
3.89111e-06
1.26213e-08
4.04854e-06
7.91057e-07
-2.59744e-07
2.7727e-06
1.1861e-07
7.79015e-07
-2.14374e-07
3.01022e-06
1.07102e-07
7.17566e-07
-1.8088e-07
3.16486e-06
9.98923e-08
6.2163e-07
-1.56286e-07
3.25013e-06
9.45138e-08
4.99019e-07
-1.38987e-07
3.27717e-06
9.08417e-08
3.54422e-07
-1.28047e-07
3.24748e-06
8.89704e-08
1.88567e-07
-1.21249e-07
3.13521e-06
8.81338e-08
-1.13337e-07
2.78198e-06
8.5495e-08
1.09813e-06
-3.40838e-07
3.81253e-06
1.0277e-06
-2.71566e-07
3.94162e-06
9.08356e-07
-2.23732e-07
4.00009e-06
7.61761e-07
-1.92037e-07
3.99765e-06
5.95131e-07
-1.69189e-07
3.94357e-06
4.13355e-07
-1.5562e-07
3.83749e-06
2.15555e-07
-1.47867e-07
3.64784e-06
-1.39413e-07
3.18731e-06
1.47956e-06
-3.20846e-07
4.65032e-06
1.35347e-06
-2.56665e-07
4.67744e-06
1.17218e-06
-2.09504e-07
4.65153e-06
9.63165e-07
-1.79681e-07
4.57705e-06
7.39426e-07
-1.60339e-07
4.45939e-06
5.05762e-07
-1.49927e-07
4.29535e-06
2.60214e-07
-1.44882e-07
4.048e-06
-1.38654e-07
3.50594e-06
1.75366e-06
-2.25489e-07
5.09376e-06
1.59249e-06
-1.81647e-07
5.05465e-06
1.37018e-06
-1.46076e-07
4.98355e-06
1.11571e-06
-1.23355e-07
4.87481e-06
8.4945e-07
-1.145e-07
4.72961e-06
5.76661e-07
-1.12075e-07
4.54193e-06
2.94532e-07
-1.12405e-07
4.27166e-06
-1.10289e-07
3.69537e-06
1.7733e-06
-1.18933e-07
4.94406e-06
1.60128e-06
-8.87254e-08
4.9349e-06
1.37317e-06
-6.84671e-08
4.89106e-06
1.11784e-06
-5.83063e-08
4.80747e-06
8.52391e-07
-6.19247e-08
4.68571e-06
5.79979e-07
-6.79364e-08
4.51969e-06
2.96873e-07
-7.32055e-08
4.26976e-06
-7.44884e-08
3.71587e-06
1.51629e-06
-4.58025e-08
4.21503e-06
1.36661e-06
-2.79941e-08
4.32881e-06
1.17911e-06
-2.39569e-08
4.3821e-06
9.70548e-07
-2.49372e-08
4.38057e-06
7.48601e-07
-3.49164e-08
4.33002e-06
5.14719e-07
-4.40657e-08
4.22781e-06
2.66335e-07
-5.07778e-08
4.03855e-06
-5.29287e-08
3.56006e-06
1.10322e-06
3.13518e-06
-6.90555e-08
1.02868e-06
3.39811e-06
-4.65522e-08
9.17182e-07
3.57631e-06
-4.16215e-08
7.81829e-07
3.68405e-06
-4.29946e-08
6.20165e-07
3.73127e-06
-4.36474e-08
4.35498e-07
3.71827e-06
-4.38937e-08
2.28966e-07
3.61537e-06
-4.39185e-08
3.24567e-06
-4.22776e-08
7.52547e-07
-2.57854e-07
2.87639e-06
1.12516e-07
7.31768e-07
-2.07347e-07
3.13587e-06
1.03535e-07
6.691e-07
-1.71991e-07
3.30453e-06
9.55219e-08
5.7534e-07
-1.46586e-07
3.40098e-06
8.99637e-08
4.57966e-07
-1.30401e-07
3.43851e-06
8.65744e-08
3.2136e-07
-1.21087e-07
3.41974e-06
8.52458e-08
1.67604e-07
-1.15651e-07
3.31925e-06
8.47013e-08
-1.09338e-07
2.97602e-06
8.20026e-08
1.04764e-06
-3.50038e-07
3.92817e-06
9.60589e-07
-2.68066e-07
4.08992e-06
8.39934e-07
-2.18012e-07
4.16629e-06
6.98257e-07
-1.83371e-07
4.17547e-06
5.41379e-07
-1.61305e-07
4.13097e-06
3.72132e-07
-1.48846e-07
4.03444e-06
1.90595e-07
-1.41827e-07
3.85505e-06
-1.34153e-07
3.4025e-06
1.43715e-06
-3.42147e-07
4.74451e-06
1.27701e-06
-2.60036e-07
4.82962e-06
1.0865e-06
-2.08351e-07
4.83241e-06
8.82642e-07
-1.7588e-07
4.77302e-06
6.71047e-07
-1.56193e-07
4.66526e-06
4.53371e-07
-1.45921e-07
4.50977e-06
2.28453e-07
-1.40671e-07
4.2712e-06
-1.33899e-07
3.73511e-06
1.74278e-06
-2.32254e-07
5.14937e-06
1.52333e-06
-1.80973e-07
5.19516e-06
1.27798e-06
-1.43063e-07
5.16461e-06
1.02498e-06
-1.24093e-07
5.07574e-06
7.71091e-07
-1.15872e-07
4.94193e-06
5.16278e-07
-1.13253e-07
4.76289e-06
2.58555e-07
-1.12784e-07
4.50092e-06
-1.09097e-07
3.92972e-06
1.78071e-06
-9.59469e-08
4.99267e-06
1.54503e-06
-7.73597e-08
5.06695e-06
1.29207e-06
-6.32658e-08
5.06412e-06
1.03543e-06
-6.25682e-08
5.00172e-06
7.79695e-07
-6.79742e-08
4.89235e-06
5.22946e-07
-7.32123e-08
4.73573e-06
2.62983e-07
-7.69748e-08
4.49462e-06
-7.59922e-08
3.94616e-06
1.50569e-06
-2.40059e-08
4.28889e-06
1.31753e-06
-2.01964e-08
4.45877e-06
1.11714e-06
-2.3165e-08
4.54246e-06
9.08823e-07
-3.24878e-08
4.55864e-06
6.932e-07
-4.32441e-08
4.52004e-06
4.69934e-07
-5.06565e-08
4.4278e-06
2.38435e-07
-5.49817e-08
4.24836e-06
-5.42126e-08
3.77691e-06
1.10425e-06
3.21961e-06
-6.47351e-08
1.01287e-06
3.5161e-06
-4.60279e-08
8.94939e-07
3.7159e-06
-4.54916e-08
7.53785e-07
3.83843e-06
-4.6263e-08
5.89884e-07
3.89717e-06
-4.58001e-08
4.07404e-07
3.89448e-06
-4.49635e-08
2.08941e-07
3.80217e-06
-4.38822e-08
3.4412e-06
-4.09921e-08
3.72115e-07
-1.73688e-07
2.92051e-06
8.91787e-08
3.75329e-07
-1.45964e-07
3.19356e-06
8.56115e-08
3.52801e-07
-1.276e-07
3.37381e-06
8.11595e-08
3.08694e-07
-1.15476e-07
3.48163e-06
7.89774e-08
2.46925e-07
-1.08896e-07
3.5305e-06
7.84733e-08
1.71176e-07
-1.06214e-07
3.52245e-06
7.89456e-08
8.56622e-08
-1.05308e-07
3.4304e-06
7.93782e-08
-1.02787e-07
3.0875e-06
7.69447e-08
5.15216e-07
-2.2607e-07
3.96974e-06
4.89675e-07
-1.81895e-07
4.15144e-06
4.40955e-07
-1.56587e-07
4.24325e-06
3.74648e-07
-1.39731e-07
4.26586e-06
2.94576e-07
-1.30737e-07
4.23349e-06
2.02489e-07
-1.26676e-07
4.1478e-06
1.0121e-07
-1.25214e-07
3.97633e-06
-1.21816e-07
3.52308e-06
7.12551e-07
-2.2354e-07
4.7672e-06
6.55172e-07
-1.78581e-07
4.88332e-06
5.74748e-07
-1.52496e-07
4.90836e-06
4.78598e-07
-1.36468e-07
4.86595e-06
3.70216e-07
-1.28321e-07
4.7718e-06
2.51429e-07
-1.25016e-07
4.62747e-06
1.24585e-07
-1.23903e-07
4.3964e-06
-1.19727e-07
3.85874e-06
8.83242e-07
-1.53682e-07
5.14679e-06
7.91436e-07
-1.2695e-07
5.23546e-06
6.81493e-07
-1.10814e-07
5.23345e-06
5.59604e-07
-1.03782e-07
5.16497e-06
4.27893e-07
-1.01595e-07
5.04645e-06
2.87901e-07
-1.01667e-07
4.87911e-06
1.42623e-07
-1.02031e-07
4.62451e-06
-9.80322e-08
4.05111e-06
9.11282e-07