/*--------------------------------*- C++ -*----------------------------------*\
| =========                 |                                                 |
| \\      /  F ield         | OpenFOAM: The Open Source CFD Toolbox           |
|  \\    /   O peration     | Version:  plus.master                           |
|   \\  /    A nd           | Web:      www.OpenFOAM.com                      |
|    \\/     M anipulation  |                                                 |
\*---------------------------------------------------------------------------*/
FoamFile
{
    version     2.0;
    format      ascii;
    class       vectorField;
    location    "13.2/lagrangian/kinematicCloud";
    object      UCorrect;
}
// * * * * * * * * * * * * * * * * * * * * * * * * * * * * * * * * * * * * * //


96597
(
(0.00024338 0.00373013 9.05012e-06)
(8.35629e-05 -9.55524e-05 3.49838e-05)
(-4.08694e-07 9.3602e-06 3.52657e-05)
(-8.86283e-07 4.25458e-05 3.94516e-05)
(2.92979e-05 -5.51092e-05 0.000422612)
(-2.54767e-05 -4.42305e-05 4.02536e-05)
(4.57548e-05 -4.71198e-05 3.94346e-05)
(-0.00011208 -9.63377e-05 0.00115637)
(1.67407e-05 -1.67393e-05 3.62094e-05)
(1.18071e-06 1.17518e-05 3.35249e-05)
(2.80082e-05 2.95297e-05 3.7221e-05)
(7.75073e-05 5.01179e-05 3.52736e-05)
(-0.000164304 -0.000528676 0.00113554)
(8.5477e-05 0.000113749 0.000921238)
(6.33661e-05 5.14185e-14 3.58507e-05)
(-4.06116e-05 7.27632e-05 0.000772148)
(0.000526151 0.00364485 4.51783e-05)
(-0.000100611 4.86873e-05 0.000935279)
(8.52676e-05 0.000113594 3.79642e-05)
(1.92475e-05 6.9971e-06 3.32876e-05)
(-4.78077e-05 0.000135203 0.000900568)
(1.88222e-12 8.1379e-05 0.000864159)
(-6.2894e-05 -3.02881e-05 3.2662e-05)
(4.70197e-05 2.79786e-05 4.32636e-05)
(8.35629e-05 -9.55524e-05 3.83591e-05)
(7.74393e-06 8.87341e-07 2.89874e-05)
(-3.92246e-05 0.000136813 0.000872153)
(-1.98981e-12 0.000100122 3.78145e-05)
(-6.2894e-05 -3.02881e-05 3.94155e-05)
(6.85058e-05 -9.26219e-05 3.88766e-05)
(-5.85459e-05 0.000162007 0.000917517)
(8.57731e-05 -4.41315e-05 4.0915e-05)
(-0.000192914 7.20388e-05 0.000972805)
(1.13273e-05 0.000184571 4.21505e-05)
(-2.452e-05 7.68986e-05 3.76679e-05)
(7.75073e-05 5.01179e-05 3.60754e-05)
(-1.58736e-06 -7.13893e-06 3.55573e-05)
(-4.40243e-07 1.8675e-05 3.86047e-05)
(4.151e-05 0.000122581 6.19e-06)
(-1.25847e-05 1.15554e-06 9.71598e-07)
(-2.69837e-05 -1.04897e-05 3.31825e-05)
(-5.21665e-05 -6.49608e-05 4.12244e-05)
(0.000145698 0.000114257 0.00099876)
(-5.5924e-05 2.69316e-05 3.91948e-05)
(-4.14657e-05 5.30009e-05 4.35921e-05)
(8.39636e-05 -0.000106167 3.91491e-05)
(1.88222e-12 1.13857e-06 0.000864159)
(-0.000420208 -0.000189641 5.26277e-05)
(-5.21665e-05 -6.49608e-05 3.56144e-05)
(-7.3509e-05 6.51572e-05 4.10797e-05)
(7.19282e-05 -3.76594e-05 3.72172e-05)
(-4.7075e-05 1.91521e-05 4.01517e-05)
(5.33449e-05 -0.000163265 3.62693e-05)
(-3.68109e-06 -1.82416e-05 3.67623e-05)
(0.000153572 -5.80013e-05 3.8897e-05)
(1.67407e-05 -1.67393e-05 3.35903e-05)
(6.94398e-05 8.09238e-05 3.89194e-05)
(0.000212921 9.26744e-06 0.00112128)
(-3.83073e-05 6.58409e-05 3.88666e-05)
(-8.24306e-07 -1.72539e-06 3.41425e-05)
(4.27188e-05 -3.88225e-05 3.88334e-05)
(8.57731e-05 -4.41315e-05 3.91382e-05)
(6.34251e-05 4.62988e-05 3.78335e-05)
(-4.14657e-05 5.30009e-05 4.04007e-05)
(0.00104027 -1.0514e-05 0.00110623)
(-6.2894e-05 -3.02881e-05 4.2543e-05)
(-1.98981e-12 0.000100122 4.18556e-05)
(0.000170331 -0.00536071 4.39164e-05)
(-9.62941e-05 -3.03577e-11 4.03045e-05)
(4.27188e-05 -3.88225e-05 3.33383e-05)
(5.33449e-05 -0.000163265 3.86664e-05)
(6.94398e-05 8.09238e-05 4.1029e-05)
(2.01361e-05 1.46975e-05 4.07224e-05)
(1.67407e-05 -1.67393e-05 3.33212e-05)
(0.000160807 0.000109682 4.1036e-05)
(8.51501e-05 -8.72433e-05 3.60972e-05)
(8.99437e-05 2.59976e-14 0.000762625)
(-4.60043e-05 0.000703579 5.0681e-05)
(0.000106254 6.73571e-05 4.13996e-05)
(-6.58992e-05 0.000260321 3.99468e-05)
(-2.452e-05 7.68986e-05 3.3117e-05)
(1.57865e-05 -2.35824e-05 3.44448e-05)
(2.22731e-05 -1.13204e-05 4.14039e-05)
(6.27418e-05 0.000103767 3.88787e-05)
(-5.84344e-05 0.000128417 0.000870483)
(0.000140866 0.000105714 0.000975823)
(0.000121008 -0.000189583 4.22752e-05)
(-4.08694e-07 9.3602e-06 3.55761e-05)
(0.00504207 -0.000732167 4.25096e-05)
(-9.01891e-05 3.65121e-05 0.000807683)
(-0.000151453 0.000606037 5.10809e-05)
(0.000170331 -0.00536071 4.17217e-05)
(-2.69837e-05 -1.04897e-05 3.2723e-05)
(-9.90671e-05 0.00010703 1.51939e-05)
(0.000178434 -8.31907e-05 0.000997757)
(-3.43705e-05 -0.000136995 0.000864738)
(0.000121701 6.04299e-05 4.09376e-05)
(-2.26868e-05 8.15228e-07 3.3045e-05)
(3.98489e-05 2.73717e-05 2.58986e-05)
(0.000440353 0.000132584 5.20995e-05)
(4.71553e-05 -9.13197e-07 3.69409e-05)
(2.07199e-05 0.000145563 3.98104e-05)
(6.33661e-05 5.14185e-14 3.58971e-05)
(-0.000180321 1.9111e-05 0.0009312)
(0.000443831 -0.000168861 4.70744e-05)
(2.22731e-05 -1.13204e-05 4.40439e-05)
(-4.40243e-07 1.8675e-05 3.57628e-05)
(-4.14657e-05 5.30009e-05 4.10819e-05)
(6.39794e-05 -7.38229e-05 2.618e-07)
(-4.64575e-05 2.84874e-05 3.72979e-05)
(-3.16595e-05 5.8339e-05 4.00358e-05)
(7.27881e-05 -0.000107713 4.02129e-05)
(-8.75282e-06 -3.11921e-05 3.93147e-05)
(8.41198e-05 3.86443e-05 3.99152e-05)
(1.89765e-05 0.000153142 4.05977e-05)
(-7.85222e-06 5.19652e-05 3.86362e-05)
(0.000153288 0.000103769 0.00102188)
(-5.53877e-05 -2.66734e-05 3.89026e-05)
(0.000339049 -0.000113521 0.00102765)
(-7.85222e-06 5.19652e-05 3.79596e-05)
(5.84433e-05 7.12133e-11 3.94375e-05)
(-8.86283e-07 4.25458e-05 3.8895e-05)
(7.50259e-05 -9.44231e-05 4.13148e-05)
(-2.54767e-05 -4.42305e-05 4.08628e-05)
(0.000289048 0.000138222 4.52192e-05)
(-9.76757e-05 3.4032e-05 0.000862243)
(9.4385e-05 0.000117867 0.000904612)
(1.13523e-17 2.16626e-06 0.000863953)
(0.000106254 6.73571e-05 4.02593e-05)
(9.88479e-05 1.67458e-06 3.67456e-05)
(8.35629e-05 -9.55524e-05 3.93085e-05)
(1.89765e-05 0.000153142 4.15144e-05)
(2.01361e-05 1.46975e-05 3.59547e-05)
(-1.27104e-05 -3.89796e-06 3.05206e-05)
(5.75831e-05 0.000179765 0.00100201)
(-1.98981e-12 0.000100122 3.89535e-05)
(7.30297e-05 6.05171e-05 3.79986e-05)
(0.000150102 -0.000799335 4.42102e-05)
(-4.40243e-07 1.8675e-05 3.51191e-05)
(-3.83073e-05 6.58409e-05 3.6926e-05)
(-5.96568e-05 0.000127194 0.000870483)
(0.000195916 8.64299e-05 0.00100423)
(4.70197e-05 2.79786e-05 4.19423e-05)
(6.20538e-05 0.000248795 0.000105882)
(5.33449e-05 -0.000163265 3.73387e-05)
(1.3911e-05 -0.000157593 3.77049e-05)
(1.21807e-05 5.83166e-06 0.000631146)
(-5.94606e-05 0.000299635 4.20823e-05)
(-6.2894e-05 -3.02881e-05 3.86629e-05)
(6.87424e-05 -7.46133e-05 3.69452e-05)
(0.000177658 -0.000343961 4.29752e-05)
(0.000118598 7.21117e-05 0.000948859)
(0.000537058 -0.000109814 5.16289e-05)
(2.01361e-05 1.46975e-05 3.57764e-05)
(8.91351e-05 -0.000103082 0.00091232)
(-3.25511e-05 -8.9561e-05 0.000976007)
(-1.60715e-05 -4.37764e-06 3.25901e-05)
(-6.2894e-05 -3.02881e-05 3.58374e-05)
(0.000155644 5.82848e-06 4.03971e-05)
(-0.000420208 -0.000189641 4.70737e-05)
(-5.41945e-06 6.36294e-06 3.25302e-05)
(-1.60715e-05 -4.37764e-06 3.34138e-05)
(-4.14657e-05 5.30009e-05 3.86934e-05)
(8.5111e-05 0.000485239 4.67102e-05)
(0.00262821 -0.00219348 0.00169127)
(4.71553e-05 -9.13197e-07 3.8988e-05)
(0.000413248 -0.00152277 6.94643e-05)
(1.9547e-05 -4.34155e-06 0.000831777)
(-4.50655e-05 0.000552137 4.1612e-05)
(9.41222e-05 -9.93668e-05 0.000883179)
(0.000413248 -0.00152277 6.81529e-05)
(-7.29342e-05 3.53589e-05 3.66251e-05)
(7.19282e-05 -3.76594e-05 3.87414e-05)
(0.00361584 -2.05441e-05 3.7145e-05)
(-4.7075e-05 1.91521e-05 3.72168e-05)
(-9.30334e-05 -0.000134647 0.00101071)
(0.000440353 0.000132584 5.5026e-05)
(-9.62941e-05 -3.03577e-11 3.98597e-05)
(-8.86864e-06 -0.000168933 0.000644444)
(0.000133477 -4.59724e-05 0.000951656)
(-0.00366542 -0.000103519 5.24536e-05)
(-5.5924e-05 2.69316e-05 3.56025e-05)
(2.22731e-05 -1.13204e-05 4.05307e-05)
(-8.21699e-05 -3.42359e-05 0.000983035)
(3.39045e-07 -1.64695e-05 3.32794e-05)
(7.12251e-05 0.000112813 0.000815678)
(6.27418e-05 0.000103767 3.44141e-05)
(5.34218e-07 -3.47834e-05 3.59084e-05)
(-3.59824e-05 -5.88741e-05 3.37859e-05)
(8.35629e-05 -9.55524e-05 3.85859e-05)
(7.12473e-05 0.000112831 0.000815678)
(1.92475e-05 6.9971e-06 3.21351e-05)
(0.000140886 0.000105708 0.000975823)
(2.22257e-05 3.173e-05 0.000641942)
(-3.48912e-05 -0.00013741 4.04634e-05)
(-0.000104622 -0.000429068 4.48903e-05)
(9.13056e-12 -3.77738e-05 3.64202e-05)
(8.18893e-05 0.000133826 3.67465e-05)
(4.29594e-05 -6.21938e-05 3.64745e-05)
(1.67407e-05 -1.67393e-05 3.58326e-05)
(8.41198e-05 3.86443e-05 4.31109e-05)
(6.67686e-07 2.7273e-05 3.49399e-05)
(6.73576e-05 -9.78476e-05 3.21048e-05)
(-5.98628e-05 0.00016069 0.000917517)
(-5.45841e-05 -5.3152e-05 3.91002e-05)
(0.000159335 -7.395e-05 0.000997221)
(0.000148308 -6.7288e-05 0.000972659)
(-4.08694e-07 9.3602e-06 3.58819e-05)
(-2.54767e-05 -4.42305e-05 4.00657e-05)
(2.09111e-05 6.93553e-07 3.72219e-05)
(6.8697e-05 -9.47597e-05 0.000935769)
(0.00011813 7.23773e-05 0.000948859)
(4.27188e-05 -3.88225e-05 3.70987e-05)
(-6.2894e-05 -3.02881e-05 3.97459e-05)
(8.9812e-05 2.59976e-14 0.000762625)
(4.3393e-05 7.19141e-05 0.000945484)
(-1.86975e-05 -0.000156736 3.49177e-05)
(1.37067e-05 3.63978e-05 2.53674e-05)
(8.51501e-05 -8.72433e-05 3.77823e-05)
(4.71553e-05 -9.13197e-07 3.66724e-05)
(2.64835e-05 1.50266e-05 0.00077631)
(-5.42176e-05 -9.64417e-05 3.8681e-05)
(-9.6389e-05 4.88711e-05 4.72422e-05)
(7.50259e-05 -9.44231e-05 3.9105e-05)
(-0.000112802 3.5892e-05 4.09639e-05)
(0.000440353 0.000132584 5.8095e-05)
(1.88222e-12 4.24623e-05 3.66403e-05)
(2.09111e-05 6.93553e-07 3.31674e-05)
(0.000160807 0.000109682 4.05691e-05)
(-3.40914e-05 0.000118148 0.000838129)
(0.000186006 -6.9829e-05 4.1231e-05)
(6.85058e-05 -9.26219e-05 4.27754e-05)
(-3.34009e-11 -4.16689e-05 3.60576e-05)
(0.000413248 -0.00152277 6.42994e-05)
(-0.00411094 -0.00019793 4.30615e-05)
(-0.00379135 6.34254e-06 4.70708e-05)
(5.92123e-05 -8.89855e-05 4.15502e-05)
(-5.82289e-05 0.000128622 0.000870483)
(5.33449e-05 -0.000163265 3.90361e-05)
(5.80261e-05 -1.91356e-05 0.000826023)
(-0.000222868 0.000275774 4.21963e-05)
(-2.51756e-05 2.08471e-05 3.08735e-05)
(-5.21665e-05 -6.49608e-05 4.11045e-05)
(-6.71735e-06 2.05683e-05 2.84689e-05)
(-1.98981e-12 0.000100122 3.9172e-05)
(-3.83073e-05 6.58409e-05 3.88422e-05)
(7.12868e-05 0.000112862 0.000815678)
(-3.83073e-05 6.58409e-05 3.77578e-05)
(-5.27015e-05 -6.21504e-05 4.15482e-05)
(8.52676e-05 0.000113594 3.9093e-05)
(-0.00411094 -0.00019793 4.56653e-05)
(-2.11681e-05 -1.08206e-05 0.000635214)
(-0.000143216 -5.69298e-05 3.91873e-05)
(-5.48302e-05 1.3565e-05 4.33353e-05)
(2.2853e-07 2.69278e-06 3.77211e-05)
(-0.000112802 3.5892e-05 4.01927e-05)
(-4.7075e-05 1.91521e-05 4.41695e-05)
(4.317e-05 -5.55458e-05 4.20474e-05)
(5.3904e-05 -0.000138918 4.07713e-05)
(-9.68818e-05 2.88937e-05 4.44944e-05)
(-3.48912e-05 -0.00013741 4.19867e-05)
(7.01027e-08 8.68958e-05 4.23189e-05)
(-8.60238e-05 -3.60918e-05 0.000983035)
(6.33661e-05 5.14185e-14 3.53889e-05)
(0.000443831 -0.000168861 4.27826e-05)
(-4.40243e-07 1.8675e-05 3.43335e-05)
(0.00024338 0.00373013 1.06907e-05)
(6.63228e-05 0.000119505 0.000895979)
(-5.94389e-05 0.000127412 0.000870483)
(-2.78203e-05 0.000172812 0.00090124)
(0.000236135 -0.000531231 3.21674e-05)
(9.88479e-05 1.67458e-06 3.67589e-05)
(-0.00303028 -0.000334174 3.91995e-05)
(0.00135941 -0.000545853 7.14689e-05)
(7.30297e-05 6.05171e-05 4.01999e-05)
(5.85547e-05 -4.03937e-05 4.17389e-05)
(-1.73807e-05 -1.56608e-05 3.32271e-05)
(0.000189151 -2.52288e-06 4.55988e-05)
(-5.5924e-05 2.69316e-05 3.72879e-05)
(1.498e-05 -5.76155e-06 0.000826484)
(1.67407e-05 -1.67393e-05 4.18968e-05)
(0.000130572 -5.55649e-05 3.60501e-05)
(1.67407e-05 -1.67393e-05 3.86236e-05)
(-3.83073e-05 6.58409e-05 4.3795e-05)
(-3.22757e-05 9.22241e-05 0.000879247)
(2.22731e-05 -1.13204e-05 4.28881e-05)
(0.00263438 -0.00219535 0.00169127)
(-0.00023663 -2.11189e-05 4.184e-05)
(5.90693e-05 4.50933e-05 3.2759e-05)
(0.000117844 7.25391e-05 0.000948859)
(8.06574e-05 0.00011868 3.55718e-05)
(-9.86773e-06 -1.09999e-05 3.01878e-05)
(0.000106254 6.73571e-05 4.26443e-05)
(-4.08694e-07 9.3602e-06 3.51172e-05)
(-9.86773e-06 -1.09999e-05 3.17295e-05)
(6.87424e-05 -7.46133e-05 3.64357e-05)
(-0.000151453 0.000606037 5.03487e-05)
(-4.04076e-05 -0.000115633 3.65042e-05)
(4.28732e-05 -0.000171294 4.71646e-05)
(-4.97686e-05 -2.88169e-05 3.93492e-05)
(0.000728153 -0.000287554 0.00121233)
(-5.42176e-05 -9.64417e-05 3.42956e-05)
(-3.93177e-05 9.48306e-05 4.03938e-05)
(0.00024338 0.00373013 9.00903e-06)
(2.22731e-05 -1.13204e-05 4.19837e-05)
(-5.53877e-05 -2.66734e-05 3.4495e-05)
(-5.27015e-05 -6.21504e-05 3.74921e-05)
(6.27418e-05 0.000103767 3.64916e-05)
(7.61988e-05 -9.63732e-05 0.000930232)
(-5.53877e-05 -2.66734e-05 3.84073e-05)
(-5.27015e-05 -6.21504e-05 3.66719e-05)
(1.88222e-12 4.24623e-05 3.23892e-05)
(5.69697e-05 3.64273e-05 0.000893121)
(1.67407e-05 -1.67393e-05 3.67084e-05)
(-2.01955e-05 7.07018e-06 4.54627e-05)
(0.000189151 -2.52288e-06 4.41964e-05)
(1.67407e-05 -1.67393e-05 3.24258e-05)
(1.99764e-05 6.0316e-06 2.23861e-05)
(1.3911e-05 -0.000157593 3.56897e-05)
(-7.85222e-06 5.19652e-05 4.11294e-05)
(2.22731e-05 -1.13204e-05 4.03967e-05)
(0.000110086 -0.000160851 4.27192e-05)
(-3.46199e-05 0.00011762 0.000838129)
(-0.000150819 -6.65301e-05 4.28055e-05)
(-8.76191e-05 -0.000116851 0.000968457)
(-0.00377642 0.000233327 4.10557e-05)
(0.000106254 6.73571e-05 4.05915e-05)
(0.000148593 -1.20933e-06 3.7049e-05)
(-0.000136325 -1.22585e-05 4.20252e-05)
(-9.57882e-06 7.67369e-05 0.00086412)
(-9.99759e-05 4.83815e-05 0.000935279)
(1.88222e-12 2.08245e-06 0.000864159)
(0.000102829 6.23124e-05 0.000898837)
(-7.29342e-05 3.53589e-05 3.63487e-05)
(-1.86975e-05 -0.000156736 3.70683e-05)
(-0.000875734 0.0050311 4.81247e-05)
(0.00024338 0.00373013 1.01983e-05)
(-3.83073e-05 6.58409e-05 3.70024e-05)
(-0.000366053 0.00013689 3.94438e-05)
(1.67407e-05 -1.67393e-05 3.7959e-05)
(-5.63059e-06 5.31591e-07 3.17528e-05)
(-0.000176118 4.65565e-05 1.26359e-05)
(2.68096e-05 -1.80745e-05 0.000926265)
(-0.000104622 -0.000429068 4.59431e-05)
(0.000443831 -0.000168861 4.93444e-05)
(0.0057526 -0.0017808 0.000992148)
(2.22731e-05 -1.13204e-05 3.7203e-05)
(-1.86975e-05 -0.000156736 3.86468e-05)
(-0.000150819 -6.65301e-05 3.91487e-05)
(0.000151858 -0.00027586 4.55702e-05)
(0.000130572 -5.55649e-05 3.36891e-05)
(5.73878e-05 8.78355e-06 0.00081583)
(-5.27015e-05 -6.21504e-05 3.83835e-05)
(6.67686e-07 2.7273e-05 3.68835e-05)
(6.33661e-05 5.14185e-14 3.69053e-05)
(-3.83073e-05 6.58409e-05 3.65799e-05)
(-5.45841e-05 -5.3152e-05 4.49021e-05)
(1.13523e-17 6.30391e-05 3.78488e-05)
(2.61216e-05 2.57842e-06 3.49435e-05)
(0.000206455 -7.42527e-05 0.00102765)
(-3.68109e-06 -1.82416e-05 3.66613e-05)
(0.000407771 0.000170237 0.00103379)
(-7.3509e-05 6.51572e-05 4.2039e-05)
(9.88479e-05 1.67458e-06 4.50711e-05)
(1.13523e-17 6.30391e-05 4.21924e-05)
(-5.29431e-05 0.000101215 0.000812056)
(5.3311e-05 3.95558e-06 3.80713e-05)
(-5.27015e-05 -6.21504e-05 3.99376e-05)
(-2.26868e-05 8.15228e-07 3.85251e-05)
(-4.14657e-05 5.30009e-05 3.99891e-05)
(0.000289048 0.000138222 4.25228e-05)
(5.69461e-05 3.62173e-05 0.000893121)
(6.85058e-05 -9.26219e-05 3.6117e-05)
(-3.87548e-06 4.71909e-06 3.52006e-05)
(-5.27015e-05 -6.21504e-05 3.65198e-05)
(1.67407e-05 -1.67393e-05 3.47327e-05)
(6.02597e-05 1.29724e-05 4.50767e-05)
(6.27418e-05 0.000103767 4.13703e-05)
(0.000121701 6.04299e-05 4.11801e-05)
(-2.69837e-05 -1.04897e-05 3.2934e-05)
(4.57548e-05 -4.71198e-05 4.05318e-05)
(-5.36393e-05 0.000100519 0.000812056)
(5.21342e-06 -1.37123e-05 2.98208e-05)
(8.46605e-05 0.000124609 0.000930303)
(-2.01955e-05 7.07018e-06 4.25563e-05)
(-2.54767e-05 -4.42305e-05 3.49821e-05)
(7.91984e-05 7.83538e-05 3.90306e-05)
(-5.63059e-06 5.31591e-07 3.38937e-05)
(-5.79454e-06 -7.19686e-06 3.22454e-05)
(-5.27015e-05 -6.21504e-05 3.96001e-05)
(1.13523e-17 6.30391e-05 3.9817e-05)
(8.06574e-05 0.00011868 4.18405e-05)
(5.10147e-05 1.62367e-05 4.01504e-05)
(-3.83073e-05 6.58409e-05 3.83885e-05)
(3.92861e-05 0.000195107 5.53073e-05)
(-6.2894e-05 -3.02881e-05 3.81918e-05)
(-5.5924e-05 2.69316e-05 3.71114e-05)
(0.000148476 3.11278e-06 4.44742e-05)
(-6.2894e-05 -3.02881e-05 3.90761e-05)
(-5.45841e-05 -5.3152e-05 4.18421e-05)
(9.20621e-05 -2.72462e-05 0.000870454)
(9.56563e-05 9.52625e-05 0.000921238)
(4.71553e-05 -9.13197e-07 3.80311e-05)
(-0.000875734 0.0050311 4.46635e-05)
(0.000118986 7.18919e-05 0.000948859)
(1.3911e-05 -0.000157593 4.05307e-05)
(0.000108382 0.000109704 0.000839672)
(3.16091e-05 -1.20933e-06 0.00090372)
(-0.000104622 -0.000429068 4.4763e-05)
(3.39045e-07 -1.64695e-05 3.58395e-05)
(-4.60773e-05 0.000136933 0.000900568)
(-4.93307e-05 3.09235e-05 0.000888262)
(-2.26868e-05 8.15228e-07 3.6549e-05)
(-5.5924e-05 2.69316e-05 4.06534e-05)
(1.57865e-05 -2.35824e-05 4.08956e-05)
(-3.34009e-11 -4.16689e-05 3.43319e-05)
(4.70197e-05 2.79786e-05 4.03938e-05)
(-9.86773e-06 -1.09999e-05 3.17213e-05)
(8.51501e-05 -8.72433e-05 3.6546e-05)
(2.92173e-06 -4.11666e-12 0.000816628)
(-0.000105668 0.000112572 4.42446e-05)
(0.000108037 -3.10621e-05 0.000927613)
(-2.01955e-05 7.07018e-06 3.67199e-05)
(-0.000282105 -0.000472454 5.04725e-05)
(-5.41945e-06 6.36294e-06 3.70258e-05)
(8.41198e-05 3.86443e-05 3.67332e-05)
(-0.00359106 -0.000464719 4.59144e-05)
(8.06574e-05 0.00011868 4.111e-05)
(3.83465e-05 -0.000141094 0.000916412)
(-5.53877e-05 -2.66734e-05 3.48986e-05)
(-4.71642e-05 1.15554e-06 2.49956e-05)
(6.61709e-05 4.77088e-05 0.00091791)
(1.25887e-05 -2.41358e-05 3.55779e-05)
(-2.70429e-05 4.50254e-05 4.09701e-05)
(-3.43726e-05 -0.000136996 0.000864738)
(-1.58736e-06 -7.13893e-06 3.46531e-05)
(0.000146137 0.000114125 0.00099876)
(2.22731e-05 -1.13204e-05 4.52772e-05)
(-1.25847e-05 1.15554e-06 1.04574e-06)
(-0.000491723 2.48575e-05 4.44224e-05)
(1.55177e-05 -5.02315e-06 2.76401e-05)
(-4.64262e-05 0.000136584 0.000900568)
(-7.85222e-06 5.19652e-05 4.43122e-05)
(8.51501e-05 -8.72433e-05 3.56459e-05)
(4.70197e-05 2.79786e-05 4.47383e-05)
(4.45402e-05 2.07685e-05 4.87812e-05)
(-5.42176e-05 -9.64417e-05 4.06126e-05)
(-6.81266e-06 4.40546e-05 0.000718209)
(6.02597e-05 1.29724e-05 4.31888e-05)
(5.3904e-05 -0.000138918 4.18808e-05)
(0.000413248 -0.00152277 7.50383e-05)
(7.91984e-05 7.83538e-05 3.76207e-05)
(-3.88789e-05 9.97777e-05 0.000749132)
(-5.15041e-06 0.000103959 3.85601e-05)
(0.000102751 6.22747e-05 0.000898837)
(-0.000104553 -0.000162325 4.51159e-05)
(0.000160807 0.000109682 3.9029e-05)
(5.90693e-05 4.50933e-05 3.51459e-05)
(-4.60043e-05 0.000703579 5.09017e-05)
(2.01361e-05 1.46975e-05 4.13601e-05)
(0.000165406 0.000216527 0.0010591)
(7.91984e-05 7.83538e-05 3.39285e-05)
(0.000717898 7.06582e-05 4.64945e-05)
(8.05103e-05 -8.49126e-05 3.84517e-05)
(5.0954e-05 -1.52875e-05 0.000834075)
(4.27188e-05 -3.88225e-05 3.41691e-05)
(-6.2894e-05 -3.02881e-05 4.54411e-05)
(0.000155644 5.82848e-06 4.60407e-05)
(1.51011e-05 -1.88726e-14 0.0011323)
(-6.2894e-05 -3.02881e-05 4.00875e-05)
(-5.27015e-05 -6.21504e-05 3.65108e-05)
(1.13523e-17 6.30391e-05 3.51543e-05)
(-3.4368e-05 -0.000136993 0.000864738)
(1.84531e-05 8.37672e-06 3.8894e-05)
(2.56595e-05 -2.26962e-07 3.37213e-05)
(-4.64575e-05 2.84874e-05 3.72336e-05)
(9.62737e-05 5.07749e-05 4.045e-05)
(-5.92462e-05 0.000407611 4.40188e-05)
(9.034e-05 2.59976e-14 0.000762625)
(-1.08296e-05 8.40362e-06 2.97833e-05)
(6.85951e-05 -0.000104369 0.000914469)
(-3.16595e-05 5.8339e-05 4.30882e-05)
(-5.5924e-05 2.69316e-05 3.69652e-05)
(0.000423789 0.000235878 5.13348e-05)
(0.000122925 8.22001e-06 4.14085e-05)
(-1.25847e-05 1.15554e-06 9.86141e-07)
(1.25887e-05 -2.41358e-05 3.30047e-05)
(9.88479e-05 1.67458e-06 4.1824e-05)
(9.42134e-05 -3.64768e-05 3.83258e-05)
(-4.73955e-05 0.000135615 0.000900568)
(5.10147e-05 1.62367e-05 4.00989e-05)
(0.000443831 -0.000168861 4.29099e-05)
(-8.81248e-05 -1.66202e-05 3.49884e-05)
(-3.59824e-05 -5.88741e-05 2.96768e-05)
(-6.32793e-05 0.000102564 0.000952253)
(-5.41945e-06 6.36294e-06 4.23078e-05)
(-4.97686e-05 -2.88169e-05 3.72481e-05)
(-4.14657e-05 5.30009e-05 3.91172e-05)
(8.35629e-05 -9.55524e-05 3.76094e-05)
(8.5111e-05 0.000485239 5.26615e-05)
(5.90693e-05 4.50933e-05 3.51036e-05)
(-0.000157865 2.32168e-06 3.35271e-05)
(6.33661e-05 5.14185e-14 3.72464e-05)
(-5.53877e-05 -2.66734e-05 3.95327e-05)
(-0.000282105 -0.000472454 5.11654e-05)
(-4.7575e-05 0.000135435 0.000900568)
(8.35629e-05 -9.55524e-05 3.85783e-05)
(6.91725e-05 -7.51526e-05 0.000847958)
(9.40235e-05 -9.92334e-05 0.000883179)
(0.000160807 0.000109682 4.02316e-05)
(-3.43694e-05 -0.000136994 0.000864738)
(5.11458e-06 -0.000110904 0.00093079)
(-5.38913e-05 0.000224488 0.000917517)
(-7.29342e-05 3.53589e-05 4.0817e-05)
(4.70197e-05 2.79786e-05 4.2588e-05)
(-2.26868e-05 8.15228e-07 3.70201e-05)
(1.25887e-05 -2.41358e-05 3.34436e-05)
(-1.98981e-12 0.000100122 4.07703e-05)
(-0.00411094 -0.00019793 5.64113e-05)
(-1.25847e-05 1.15554e-06 1.0457e-06)
(-1.87151e-05 4.76434e-06 3.31039e-05)
(-2.01955e-05 7.07018e-06 4.38454e-05)
(-9.62941e-05 -3.03577e-11 4.33191e-05)
(6.10361e-05 4.21858e-05 0.000898837)
(6.33661e-05 5.14185e-14 3.72311e-05)
(7.19282e-05 -3.76594e-05 3.58842e-05)
(6.34251e-05 4.62988e-05 3.64198e-05)
(-3.83073e-05 6.58409e-05 3.99069e-05)
(6.33661e-05 5.14185e-14 3.89628e-05)
(-8.24306e-07 -1.72539e-06 3.55289e-05)
(-1.25847e-05 1.15554e-06 1.10038e-06)
(-5.21665e-05 -6.49608e-05 3.88227e-05)
(1.38618e-06 -0.000176972 0.000915179)
(6.34251e-05 4.62988e-05 4.01751e-05)
(8.35629e-05 -9.55524e-05 3.91785e-05)
(-0.000144735 -7.02105e-05 0.00094311)
(-5.35477e-05 0.00010061 0.000812056)
(-7.29342e-05 3.53589e-05 3.26574e-05)
(-6.18522e-05 -0.000166948 0.000850691)
(-0.000176956 -6.29181e-05 0.00102961)
(9.01655e-05 -7.77899e-05 3.8552e-05)
(7.19282e-05 -3.76594e-05 3.49715e-05)
(-5.45841e-05 -5.3152e-05 3.65963e-05)
(0.00019592 8.64314e-05 0.00100423)
(-0.000352152 0.000197089 3.66632e-05)
(0.000151858 -0.00027586 4.37277e-05)
(-7.85222e-06 5.19652e-05 4.4357e-05)
(3.39045e-07 -1.64695e-05 3.87446e-05)
(1.07623e-12 -3.01151e-05 3.70553e-05)
(-1.69087e-05 -2.30449e-05 3.55479e-05)
(-1.98981e-12 0.000100122 3.83947e-05)
(-9.28345e-05 2.48575e-05 0.000991347)
(1.84531e-05 8.37672e-06 3.8358e-05)
(-4.14657e-05 5.30009e-05 4.36274e-05)
(-3.43688e-05 -0.000136993 0.000864738)
(0.000309538 0.000646363 0.00102072)
(7.75073e-05 5.01179e-05 3.89749e-05)
(-4.40243e-07 1.8675e-05 3.67283e-05)
(-4.60043e-05 0.000703579 4.82946e-05)
(-8.75282e-06 -3.11921e-05 3.53264e-05)
(-6.17808e-05 -0.000120096 3.93056e-05)
(-6.2894e-05 -3.02881e-05 4.23893e-05)
(-0.000104553 -0.000162325 4.43881e-05)
(6.33661e-05 5.14185e-14 4.09904e-05)
(-3.60114e-05 -5.82231e-05 3.82173e-05)
(3.40948e-05 -3.32022e-05 3.95814e-05)
(-5.98473e-05 0.000160706 0.000917517)
(-5.53877e-05 -2.66734e-05 3.90826e-05)
(-4.06482e-05 7.2759e-05 0.000772148)
(-2.452e-05 7.65227e-05 0.000898663)
(7.15688e-06 -1.2254e-05 0.00091967)
(-5.5924e-05 2.69316e-05 4.14085e-05)
(4.70197e-05 2.79786e-05 4.3172e-05)
(2.22731e-05 -1.13204e-05 3.87833e-05)
(9.13056e-12 -3.77738e-05 3.53628e-05)
(-6.2894e-05 -3.02881e-05 4.15041e-05)
(-1.27104e-05 -3.89796e-06 3.28626e-05)
(-4.08694e-07 9.3602e-06 3.72839e-05)
(0.00135941 -0.000545853 7.22665e-05)
(-4.97686e-05 -2.88169e-05 3.65923e-05)
(2.22731e-05 -1.13204e-05 4.55095e-05)
(9.4388e-05 0.000117871 0.000904612)
(-5.21665e-05 -6.49608e-05 4.07502e-05)
(0.000413248 -0.00152277 7.04818e-05)
(1.99764e-05 6.0316e-06 2.28445e-05)
(-3.42147e-05 -2.9349e-05 3.42788e-05)
(0.000186258 8.3269e-05 4.17867e-05)
(-3.34009e-11 -2.31306e-05 0.000856837)
(2.16584e-05 0.000181813 0.000900568)
(-5.33446e-05 0.000100813 0.000812056)
(-8.82616e-06 -0.0001689 0.000644444)
(7.91984e-05 7.83538e-05 4.25572e-05)
(5.85547e-05 -4.03937e-05 3.73645e-05)
(4.29594e-05 -6.21938e-05 3.26103e-05)
(-1.69363e-05 -0.000261594 0.00100554)
(-0.000282105 -0.000472454 5.09147e-05)
(-1.98981e-12 0.000100122 4.24168e-05)
(-8.69994e-06 -0.000168799 0.000644444)
(-3.16595e-05 5.8339e-05 3.53411e-05)
(1.67407e-05 -1.67393e-05 3.66331e-05)
(-1.86975e-05 -0.000156736 4.14037e-05)
(-0.00359106 -0.000464719 4.18172e-05)
(2.93841e-06 -3.40647e-05 3.58904e-05)
(4.29594e-05 -6.21938e-05 3.46526e-05)
(-0.00086329 -9.40515e-05 5.91367e-05)
(4.57548e-05 -4.71198e-05 3.69415e-05)
(1.3911e-05 -0.000157593 3.654e-05)
(-3.16595e-05 5.8339e-05 4.31581e-05)
(0.00010823 0.000109514 0.000839672)
(1.53749e-05 -5.71705e-06 0.000826484)
(-4.40243e-07 1.8675e-05 3.40412e-05)
(-5.42176e-05 -9.64417e-05 4.21492e-05)
(9.00545e-05 2.59976e-14 0.000762625)
(-7.85222e-06 5.19652e-05 4.30298e-05)
(3.40948e-05 -3.32022e-05 3.38722e-05)
(-1.25847e-05 1.15554e-06 9.85722e-07)
(-7.61294e-06 -1.91194e-05 3.83369e-05)
(-3.16595e-05 5.8339e-05 3.56965e-05)
(-0.000164117 -0.000526729 0.00113554)
(-1.69363e-05 -0.000264654 4.17684e-05)
(-4.97686e-05 -2.88169e-05 3.92495e-05)
(9.1314e-05 -2.82964e-05 0.000919731)
(2.2853e-07 2.69278e-06 3.49016e-05)
(-5.21665e-05 -6.49608e-05 4.02328e-05)
(-8.24306e-07 -1.72539e-06 3.36846e-05)
(8.42245e-05 -6.5277e-05 4.10818e-05)
(7.1306e-05 0.000112878 0.000815678)
(7.19282e-05 -3.76594e-05 3.93469e-05)
(-2.26868e-05 8.15228e-07 3.28127e-05)
(-3.48912e-05 -0.00013741 3.44052e-05)
(-4.05506e-05 2.71151e-05 3.59936e-05)
(-7.29342e-05 3.53589e-05 3.81509e-05)
(0.000102753 5.70327e-06 2.67279e-05)
(-1.97959e-05 2.40255e-05 2.66719e-05)
(2.93841e-06 -3.40647e-05 3.72439e-05)
(0.000440353 0.000132584 5.28606e-05)
(8.06574e-05 0.00011868 4.09599e-05)
(5.68931e-05 1.01973e-05 0.00081583)
(-1.25847e-05 1.15554e-06 9.57182e-07)
(-4.7075e-05 1.91521e-05 4.08259e-05)
(9.15362e-05 7.12133e-11 0.000907363)
(6.85058e-05 -9.26219e-05 3.43408e-05)
(-3.10916e-05 -2.17648e-05 0.000868839)
(2.01361e-05 1.46975e-05 4.06054e-05)
(8.05103e-05 -8.49126e-05 4.07465e-05)
(-4.11574e-05 5.23608e-05 0.000965958)
(-5.41945e-06 6.36294e-06 4.03475e-05)
(-7.29342e-05 3.53589e-05 4.07286e-05)
(-0.000174095 -4.97069e-05 3.98111e-05)
(6.99454e-05 1.40109e-05 0.00084714)
(-5.82367e-05 0.000128615 0.000870483)
(-1.95025e-05 4.74995e-06 3.83056e-05)
(-0.000189594 7.07256e-05 0.00100025)
(-9.62941e-05 -3.03577e-11 4.18921e-05)
(-4.98215e-05 3.97368e-05 3.35834e-05)
(-4.64575e-05 2.84874e-05 3.61639e-05)
(8.41198e-05 3.86443e-05 4.06272e-05)
(7.91984e-05 7.83538e-05 3.5762e-05)
(8.06574e-05 0.00011868 3.56119e-05)
(1.73423e-05 2.15895e-05 2.77395e-05)
(-4.4669e-05 7.9051e-05 0.000938765)
(-4.86094e-05 0.000118296 0.00091813)
(0.000226383 -0.00023792 4.80372e-05)
(2.22731e-05 -1.13204e-05 4.13234e-05)
(6.87424e-05 -7.46133e-05 3.49177e-05)
(9.06455e-06 -5.26482e-06 4.50203e-05)
(-9.62941e-05 -3.03577e-11 3.75204e-05)
(-4.30158e-07 8.15228e-07 0.000848127)
(-0.000157865 2.32168e-06 2.9586e-05)
(9.85119e-05 -0.000116933 0.000932794)
(0.00135941 -0.000545853 7.97487e-05)
(0.000108127 -0.000107153 0.000870454)
(-4.40243e-07 1.8675e-05 3.63174e-05)
(9.43216e-05 0.000117773 0.000904612)
(2.80082e-05 2.95297e-05 4.11313e-05)
(-1.98981e-12 0.000100122 4.0726e-05)
(4.18723e-06 -0.000170094 0.000940343)
(-0.00411094 -0.00019793 5.093e-05)
(5.3904e-05 -0.000138918 4.27428e-05)
(9.03181e-05 2.59976e-14 0.000762625)
(-2.452e-05 7.68986e-05 3.27236e-05)
(7.50259e-05 -9.44231e-05 3.67272e-05)
(-5.41945e-06 6.36294e-06 3.0219e-05)
(-5.53877e-05 -2.66734e-05 3.94132e-05)
(-2.01955e-05 7.07018e-06 4.14161e-05)
(0.000186258 8.3269e-05 4.17032e-05)
(7.91984e-05 7.83538e-05 3.88881e-05)
(3.39045e-07 3.83498e-05 0.000868431)
(5.10372e-05 -1.50499e-05 0.000834075)
(7.1259e-05 0.00011284 0.000815678)
(0.000186258 8.3269e-05 3.86725e-05)
(-5.45841e-05 -5.3152e-05 3.98248e-05)
(-7.29342e-05 3.53589e-05 3.71938e-05)
(-1.61352e-05 3.46354e-05 0.000889783)
(-7.77167e-05 1.52097e-05 0.00097955)
(-3.68109e-06 -1.82416e-05 3.17647e-05)
(0.000289048 0.000138222 4.3124e-05)
(0.000413248 -0.00152277 7.0126e-05)
(-0.000100136 4.84584e-05 0.000935279)
(7.75073e-05 5.01179e-05 3.81035e-05)
(8.06574e-05 0.00011868 4.07618e-05)
(-5.36513e-05 0.000100507 0.000812056)
(0.000101294 2.62466e-06 0.000864094)
(0.000236135 -0.000531231 3.21466e-05)
(-1.98981e-12 0.000100122 3.87718e-05)
(3.44603e-05 -1.20933e-06 0.00090372)
(0.000110623 -5.62937e-05 0.000877054)
(8.54769e-05 0.000113748 0.000921238)
(-7.21687e-05 -5.92974e-05 3.19189e-05)
(-0.00023663 -2.11189e-05 4.17886e-05)
(-0.000150819 -6.65301e-05 3.81611e-05)
(-1.69653e-07 -3.1528e-05 2.9886e-05)
(8.5111e-05 0.000485239 4.85075e-05)
(7.19282e-05 -3.76594e-05 3.74521e-05)
(-1.69653e-07 -3.27653e-05 2.9886e-05)
(0.000533631 -0.000420558 0.00117396)
(1.37067e-05 3.63978e-05 2.59144e-05)
(-5.21665e-05 -6.49608e-05 4.34442e-05)
(-3.65514e-05 -6.72273e-05 0.000913554)
(-4.40243e-07 1.8675e-05 3.20895e-05)
(7.91984e-05 7.83538e-05 3.73498e-05)
(-8.19837e-06 -7.54827e-06 3.64569e-05)
(-3.83073e-05 6.58409e-05 3.76439e-05)
(0.000160745 0.000109451 0.00099876)
(-2.69837e-05 -1.04897e-05 3.35191e-05)
(-4.62117e-05 -2.83565e-05 3.82627e-05)
(0.000244677 3.99821e-05 0.00118806)
(8.3907e-05 -0.000104904 0.000862802)
(6.87496e-05 -9.48689e-05 0.000935769)
(7.91984e-05 7.83538e-05 3.87338e-05)
(7.00724e-05 -4.48061e-05 0.000972349)
(-4.40243e-07 1.8675e-05 3.58047e-05)
(0.000413248 -0.00152277 7.3121e-05)
(2.93841e-06 -3.40647e-05 3.56673e-05)
(-5.27015e-05 -6.21504e-05 3.62952e-05)
(-5.56599e-05 0.000106733 3.94625e-05)
(-0.00023663 -2.11189e-05 4.14756e-05)
(-7.85222e-06 5.19652e-05 4.3277e-05)
(-5.5924e-05 2.69316e-05 3.99789e-05)
(1.55344e-05 8.02429e-06 3.3668e-05)
(4.70197e-05 2.79786e-05 4.15336e-05)
(-0.000107644 -2.54006e-05 6.66975e-06)
(5.15246e-05 -0.000159742 0.000968617)
(-2.54767e-05 -4.42305e-05 3.67124e-05)
(-0.000366053 0.00013689 4.26632e-05)
(1.15038e-05 -1.76339e-07 2.45008e-05)
(-3.83073e-05 6.58409e-05 3.76431e-05)
(1.67407e-05 -1.67393e-05 3.79154e-05)
(0.00135941 -0.000545853 6.6803e-05)
(7.11294e-05 0.000112737 0.000815678)
(2.01361e-05 1.46975e-05 3.93379e-05)
(-5.21665e-05 -6.49608e-05 4.14407e-05)
(-1.58736e-06 -7.13893e-06 3.62786e-05)
(6.33661e-05 5.14185e-14 4.10131e-05)
(-5.5924e-05 2.69316e-05 3.87462e-05)
(0.000170331 -0.00536071 4.24027e-05)
(-2.54767e-05 -4.42305e-05 3.38256e-05)