/*--------------------------------*- C++ -*----------------------------------*\
| =========                 |                                                 |
| \\      /  F ield         | OpenFOAM: The Open Source CFD Toolbox           |
|  \\    /   O peration     | Version:  plus.master.MPPICInterFoam            |
|   \\  /    A nd           | Web:      www.OpenFOAM.com                      |
|    \\/     M anipulation  |                                                 |
\*---------------------------------------------------------------------------*/
FoamFile
{
    version     2.0;
    format      ascii;
    class       labelField;
    location    "8.2/lagrangian/kinematicCloud";
    object      origId;
}
// * * * * * * * * * * * * * * * * * * * * * * * * * * * * * * * * * * * * * //


117
(
3945
10170
75303
86998
79866
3798
74585
43376
71603
53125
66542
932
86696
90189
51638
44248
49552
67421
799
44402
92908
37721
83995
47765
91226
31849
23604
83050
73594
77894
55896
65725
83880
80514
61079
56287
87926
81348
78494
39331
89470
1427
50085
76590
89349
73194
25927
91400
20231
26588
59632
64823
30088
18282
78790
88043
85803
13352
90561
76497
56953
77017
92804
41621
66281
41348
64174
89159
80961
28182
63753
42945
22630
92146
14308
88541
73247
73127
47406
30220
83484
56537
89844
85098
89043
21507
80897
13502
73286
83777
3465
56216
76804
36192
91516
21657
83004
77686
80155
94196
40068
21478
4736
5439
130
70144
82606
72607
77006
77029
76741
67169
72697
83522
45302
86604
39518
)


// ************************************************************************* //
