/*--------------------------------*- C++ -*----------------------------------*\
| =========                 |                                                 |
| \\      /  F ield         | OpenFOAM: The Open Source CFD Toolbox           |
|  \\    /   O peration     | Version:  plus.master.MPPICInterFoam            |
|   \\  /    A nd           | Web:      www.OpenFOAM.com                      |
|    \\/     M anipulation  |                                                 |
\*---------------------------------------------------------------------------*/
FoamFile
{
    version     2.0;
    format      ascii;
    class       vectorField;
    location    "8.2/lagrangian/kinematicCloud";
    object      UCorrect;
}
// * * * * * * * * * * * * * * * * * * * * * * * * * * * * * * * * * * * * * //


117
(
(-2.14095e-19 -1.27202e-19 1.54953e-18)
(-8.71147e-20 -3.81675e-19 9.32172e-20)
(0.0002687 -1.70646e-07 -5.63319e-07)
(0.000222148 -1.07239e-05 0.000116925)
(-3.6714e-07 8.39915e-08 9.47492e-07)
(-3.6714e-07 8.39915e-08 8.9877e-07)
(-4.95354e-07 5.1677e-08 1.23489e-08)
(-7.30794e-07 1.66993e-07 4.79781e-07)
(-1.1192e-11 -2.61406e-11 2.82258e-07)
(-5.01177e-07 -3.18293e-13 2.25147e-08)
(9.66935e-05 7.20218e-05 0.000116925)
(0.000103244 -1.70646e-07 2.89399e-14)
(0.000224378 9.07454e-06 0.000116925)
(0.00011756 6.72591e-05 0.000116925)
(0.000266744 1.71854e-05 2.89399e-14)
(0.000221188 -1.92355e-05 0.000116925)
(8.535e-06 -1.70646e-07 2.89399e-14)
(1.52218e-05 -1.70646e-07 2.89399e-14)
(4.11023e-05 8.47101e-05 0.000116925)
(3.04985e-05 8.71304e-05 0.000116925)
(-2.02809e-20 4.31905e-19 -1.43178e-35)
(-1.28898e-20 4.32738e-19 -1.43178e-35)
(-1.79239e-19 -1.20485e-19 2.27017e-35)
(-3.29449e-19 -4.49452e-20 2.40272e-35)
(6.60896e-05 7.90069e-05 0.000116925)
(-9.39078e-07 -3.18293e-13 1.23489e-08)
(0.000221457 -1.68494e-05 0.000116925)
(0.000266429 1.99844e-05 2.89399e-14)
(-7.09104e-20 -1.88757e-19 4.74487e-36)
(-6.01547e-20 -3.9157e-19 -9.28538e-20)
(6.01547e-20 1.694e-19 0)
(-9.66368e-07 -3.18293e-13 1.23489e-08)
(0.000265606 2.72864e-05 2.89399e-14)
(1.52815e-19 1.41473e-19 -1.43178e-35)
(-9.02847e-20 -3.95563e-19 1.27162e-20)
(8.92157e-05 -1.70646e-07 2.89399e-14)
(-6.01547e-20 -4.02896e-19 -2.10754e-20)
(1.22693e-21 2.31849e-19 -4.98135e-37)
(4.01435e-08 -2.23949e-07 9.48815e-09)
(0.0002687 -1.70646e-07 5.00243e-07)
(-1.1192e-11 -2.61406e-11 1.14468e-08)
(-1.67967e-19 -3.48517e-19 9.58259e-36)
(-1.80793e-19 5.25428e-19 -3.2162e-22)
(-1.48951e-12 -2.87816e-11 7.48713e-13)
(-6.82492e-20 -1.89688e-19 4.72278e-36)
(-2.10195e-14 -3.36976e-15 1.18622e-13)
(-5.6081e-29 -1.27856e-29 8.35628e-20)
(-1.15901e-22 7.4138e-22 -8.37264e-20)
(-1.48951e-12 -2.87816e-11 7.3821e-13)
(-2.25056e-29 -9.11205e-30 8.35628e-20)
(6.00372e-20 -1.21124e-20 1.8171e-22)
(-3.52472e-09 -7.00371e-10 2.90446e-07)
(1.2175e-21 -1.86839e-20 2.51426e-34)
(2.00406e-19 -2.18484e-20 0)
(-1.48951e-12 -2.87816e-11 7.10643e-13)
(-5.60829e-29 -1.27774e-29 8.35628e-20)
(-1.95665e-20 2.29507e-19 -4.98135e-37)
(-2.11169e-14 -2.50466e-15 6.06126e-14)
(-1.48951e-12 -2.87816e-11 7.71181e-13)
(-1.68618e-22 3.72613e-22 -8.37264e-20)
(-3.52772e-13 -2.87816e-11 3.99038e-13)
(-5.04597e-23 3.74047e-22 -8.37264e-20)
(-1.78651e-29 -8.58919e-30 8.35628e-20)
(-5.13531e-13 -2.87816e-11 3.99038e-13)
(-1.15901e-22 3.66674e-22 -1.41652e-19)
(-6.23284e-13 -2.87816e-11 3.99038e-13)
(-2.44349e-29 -9.32943e-30 8.35628e-20)
(-1.15901e-22 4.36425e-22 -8.37264e-20)
(-1.08993e-10 -2.27507e-08 2.90446e-07)
(5.9165e-20 -1.05861e-20 9.36565e-23)
(2.38989e-20 3.15362e-20 3.6342e-22)
(-1.15901e-22 6.13001e-22 -8.37264e-20)
(6.00372e-20 -1.51918e-20 1.8171e-22)
(-1.15901e-22 7.58998e-22 -8.37264e-20)
(1.61473e-20 3.06629e-20 3.6342e-22)
(9.06723e-20 -2.09164e-19 -1.55958e-51)
(-1.04024e-09 -2.27507e-08 3.4092e-08)
(6.00372e-20 -1.28932e-21 1.8171e-22)
(8.59315e-20 -2.0863e-19 -1.55958e-51)
(6.00372e-20 -2.05713e-19 -8.4148e-38)
(4.67019e-20 3.41055e-20 3.6342e-22)
(4.53466e-15 -3.1136e-14 2.42333e-14)
(6.00372e-20 -2.05713e-19 1.27145e-37)
(-2.86901e-19 -3.18471e-19 -3.70032e-19)
(6.00372e-20 -2.05713e-19 9.17293e-38)
(6.00372e-20 -2.05713e-19 1.13149e-37)
(-1.55503e-19 -3.22905e-19 3.91884e-35)
(6.02722e-20 -1.68606e-19 -4.17836e-35)
(3.23583e-20 -2.08847e-19 -4.17836e-35)
(3.26693e-20 -2.08812e-19 -4.17836e-35)
(3.1957e-20 -2.08892e-19 -4.17836e-35)
(2.7391e-20 -2.09406e-19 -4.17836e-35)
(1.98174e-20 -2.418e-19 1.04195e-19)
(1.89806e-18 -8.32843e-18 1.36282e-20)
(6.02722e-20 -2.05701e-19 -5.06165e-35)
(6.02722e-20 -2.05701e-19 -5.2531e-35)
(1.23213e-19 -8.09635e-19 -9.26721e-20)
(2.73038e-18 -2.05599e-17 2.76116e-17)
(6.02722e-20 -3.54499e-19 -4.17836e-35)
(-1.2184e-19 2.17744e-19 6.15004e-19)
(-1.21959e-19 -2.05209e-19 2.97579e-19)
(-4.1859e-19 -2.10542e-18 1.08852e-17)
(-1.18156e-19 2.98688e-20 2.08389e-19)
(6.88858e-20 2.98864e-19 -1.16461e-34)
(-5.40658e-20 -1.12547e-19 5.61675e-20)
(3.39319e-23 -4.2146e-22 -5.88747e-36)
(1.23267e-19 1.41957e-20 -1.05172e-34)
(-2.93693e-20 4.19016e-19 3.06368e-35)
(-2.41616e-19 -2.14532e-19 3.03078e-35)
(-4.15957e-19 2.6845e-19 -4.08541e-35)
(1.23761e-20 3.08014e-21 -2.09888e-19)
(9.23129e-20 4.66491e-19 1.96319e-19)
(4.56535e-20 -2.69944e-20 4.17823e-19)
(3.79909e-19 1.01327e-19 -1.84409e-19)
(-3.61985e-20 1.13309e-19 -2.82504e-37)
(2.24728e-19 3.03689e-22 -1.18789e-20)
(8.26814e-19 -6.83291e-20 1.79503e-19)
)


// ************************************************************************* //
