/*--------------------------------*- C++ -*----------------------------------*\
| =========                 |                                                 |
| \\      /  F ield         | OpenFOAM: The Open Source CFD Toolbox           |
|  \\    /   O peration     | Version:  plus.master.MPPICInterFoam            |
|   \\  /    A nd           | Web:      www.OpenFOAM.com                      |
|    \\/     M anipulation  |                                                 |
\*---------------------------------------------------------------------------*/
FoamFile
{
    version     2.0;
    format      ascii;
    class       surfaceScalarField;
    location    "9.4";
    object      phi;
}
// * * * * * * * * * * * * * * * * * * * * * * * * * * * * * * * * * * * * * //

dimensions      [0 3 -1 0 0 0 0];

internalField   nonuniform List<scalar> 
34018
(
2.32731e-07
6.16355e-06
4.9505e-07
6.74396e-07
6.03036e-07
7.4316e-06
3.79436e-07
5.9417e-06
4.52783e-07
6.19881e-07
8.10023e-06
9.70371e-07
4.88445e-07
6.77021e-06
6.45363e-07
5.45496e-06
3.62379e-07
4.09936e-07
-5.24554e-07
-4.08016e-07
7.86983e-06
5.21585e-07
2.99458e-07
-3.93211e-07
-5.59524e-07
8.15411e-06
3.61674e-07
-2.34839e-07
-5.5421e-07
7.96564e-06
3.62302e-07
-1.5639e-07
-3.81808e-07
7.34747e-06
2.73347e-07
-1.28339e-07
-2.39632e-07
6.44468e-06
1.86435e-07
-1.14184e-07
-1.58118e-07
5.41652e-06
1.3021e-07
-1.06211e-07
4.37196e-06
-9.8449e-08
8.43881e-08
-7.44299e-07
-5.72414e-07
9.4068e-06
7.2929e-07
-4.57467e-07
-8.57241e-07
9.79774e-06
-1.53875e-07
-8.22406e-07
9.58107e-06
-7.29891e-08
-4.86818e-07
8.74872e-06
-6.61952e-08
-2.70415e-07
7.58325e-06
-7.54365e-08
-1.6117e-07
6.31737e-06
-1.04044e-07
5.07318e-06
-7.94667e-08
-1.02328e-06
-5.69711e-07
1.08397e-05
1.09517e-06
-4.31182e-07
-7.24749e-07
1.18625e-05
6.80368e-08
-6.22018e-07
1.16961e-05
1.51189e-07
-3.89756e-07
1.01003e-05
8.40543e-08
-1.95159e-07
8.6062e-06
1.53218e-08
-8.93673e-08
7.09716e-06
-5.49085e-08
5.66045e-06
-2.47944e-08
-1.24024e-06
7.30635e-08
1.19571e-05
1.5692e-06
-3.45242e-07
6.88597e-09
1.48223e-05
2.77566e-07
-1.2045e-08
1.46571e-05
4.68249e-07
7.79299e-08
1.14076e-05
2.64382e-07
1.08967e-07
9.30263e-06
1.18923e-07
8.4791e-08
7.61486e-06
4.64233e-08
6.0441e-06
3.89448e-08
-1.26793e-06
7.4248e-07
1.22862e-05
1.61517e-06
-3.29057e-07
9.24558e-07
1.51002e-05
3.20732e-07
8.43729e-07
1.50561e-05
5.31748e-07
6.60917e-07
1.15682e-05
3.08305e-07
4.39809e-07
9.4602e-06
1.5442e-07
2.66843e-07
7.73794e-06
1.51576e-07
6.14178e-06
7.15645e-08
-1.10907e-06
8.86279e-07
1.12379e-05
1.22699e-06
-4.13876e-07
1.28649e-06
1.25281e-05
1.73484e-07
1.27422e-06
1.23947e-05
3.01604e-07
8.554e-07
1.06131e-05
1.94023e-07
5.41151e-07
9.02348e-06
1.10894e-07
3.49951e-07
7.4317e-06
2.06732e-07
5.93067e-06
6.64001e-08
-7.64103e-07
9.9462e-06
7.71876e-07
6.44584e-07
-4.0692e-07
1.04965e-05
9.12329e-07
-5.28514e-08
1.03426e-05
9.30889e-07
3.24509e-08
9.42561e-06
6.87823e-07
5.13467e-08
8.14698e-06
4.75564e-07
5.52595e-08
6.78763e-06
3.27988e-07
5.45419e-06
6.64009e-08
1.95909e-07
-3.33287e-07
4.41906e-07
7.84366e-06
1.75971e-07
-2.5847e-07
-4.28901e-07
4.66779e-07
8.11788e-06
-3.35625e-07
-4.50747e-07
3.8921e-07
7.91031e-06
-3.12518e-07
-4.58004e-07
3.52877e-07
7.27125e-06
-2.69633e-07
-4.1618e-07
2.43522e-07
6.35227e-06
-1.9296e-07
-3.46013e-07
1.41824e-07
5.32469e-06
-1.19248e-07
7.50595e-08
4.29614e-06
-2.68092e-07
-7.64271e-08
-4.73212e-07
4.44843e-07
9.68342e-06
1.92157e-07
-6.03621e-07
3.31347e-07
1.00637e-05
-6.04982e-07
1.87039e-07
9.78468e-06
-6.18879e-07
3.14072e-07
8.80232e-06
-5.45599e-07
2.37874e-07
7.51619e-06
-4.34901e-07
1.35699e-07
6.21294e-06
6.57308e-08
4.976e-06
-3.2825e-07
-7.92088e-07
1.52247e-07
1.16455e-05
2.79051e-07
-7.62452e-07
-3.5662e-07
1.25209e-05
-5.81927e-07
-4.19991e-07
1.21226e-05
-6.90246e-07
1.42591e-07
1.03812e-05
-6.31366e-07
1.76843e-07
8.60962e-06
-4.9399e-07
1.09628e-07
6.9865e-06
5.16804e-08
5.54427e-06
-3.63452e-07
-1.66846e-06
1.71574e-07
1.30058e-05
6.00234e-07
-9.11975e-07
2.94742e-07
1.34146e-05
-1.61889e-07
2.68402e-07
1.32202e-05
-5.85792e-07
2.50821e-07
1.17244e-05
-6.27912e-07
1.83417e-07
9.33891e-06
-5.04332e-07
1.0541e-07
7.49602e-06
4.57373e-08
5.91373e-06
-3.67865e-07
-1.60222e-06
3.86559e-07
1.29659e-05
7.0728e-07
-9.32245e-07
1.04955e-06
1.36747e-05
-1.31251e-07
1.1045e-06
1.34195e-05
-5.83169e-07
3.61387e-07
1.19101e-05
-6.2405e-07
1.70893e-07
9.51397e-06
-4.89657e-07
9.01641e-08
7.61902e-06
3.46196e-08
6.00797e-06
-3.44569e-07
-8.54277e-07
-6.74424e-08
1.22365e-05
3.10353e-07
-7.74157e-07
2.17093e-07
1.32797e-05
-5.29793e-07
3.35159e-07
1.29194e-05
-6.78149e-07
9.42619e-08
1.10288e-05
-6.09665e-07
3.10066e-08
9.09497e-06
-4.42751e-07
3.57266e-08
7.31928e-06
8.80849e-09
5.80461e-06
-2.90894e-07
-4.64686e-07
1.03514e-05
1.89111e-07
-1.96134e-07
-5.8187e-07
1.09952e-05
-1.65758e-07
-6.19795e-07
1.08333e-05
-1.1743e-07
-6.19521e-07
9.64749e-06
-1.28185e-07
-4.98362e-07
8.11261e-06
-5.60039e-08
-3.43927e-07
6.67579e-06
-6.79789e-09
5.34265e-06
-1.97351e-07
-2.64194e-08
-1.65649e-07
4.98396e-07
7.729e-06
4.80731e-08
-2.6632e-07
-3.4204e-07
7.43306e-07
7.99396e-06
-4.42996e-07
-4.51751e-07
6.86886e-07
7.77392e-06
-4.4076e-07
-4.71754e-07
5.14945e-07
7.12266e-06
-3.46207e-07
-4.19949e-07
3.27625e-07
6.20645e-06
-2.33159e-07
-3.3792e-07
1.80034e-07
5.20178e-06
-1.3853e-07
8.72904e-08
4.20676e-06
-2.5351e-07
-8.20777e-08
-1.91442e-07
5.69688e-07
9.78467e-06
1.78703e-08
-5.38412e-07
8.64624e-07
1.02902e-05
-7.11979e-07
7.1288e-07
9.9332e-06
-7.07456e-07
5.60601e-07
8.75304e-06
-5.94329e-07
3.6699e-07
7.36463e-06
-4.47869e-07
1.92203e-07
6.05525e-06
8.33005e-08
4.85336e-06
-3.21285e-07
-6.13656e-07
3.88486e-07
1.23841e-05
5.7581e-08
-6.67083e-07
3.19668e-07
1.31196e-05
-7.90932e-07
3.66565e-07
1.2594e-05
-8.99896e-07
3.45342e-07
1.07057e-05
-7.65104e-07
3.25623e-07
8.51688e-06
-5.48682e-07
1.58478e-07
6.80506e-06
6.07051e-08
5.39243e-06
-3.7372e-07
-9.63238e-07
1.88975e-07
1.40159e-05
1.54255e-07
-9.58709e-07
3.40349e-07
1.33887e-05
-8.29349e-07
3.28215e-07
1.31302e-05
-1.09688e-06
2.33415e-07
1.21053e-05
-9.13021e-07
1.54278e-07
9.32672e-06
-6.23747e-07
6.6872e-08
7.2986e-06
1.26813e-08
5.74138e-06
-4.03163e-07
-1.02379e-06
8.95506e-08
1.38742e-05
2.15743e-07
-9.88124e-07
2.74281e-07
1.37047e-05
-7.27589e-07
3.34512e-07
1.31526e-05
-1.13423e-06
1.6497e-07
1.23872e-05
-9.15785e-07
-6.76643e-08
9.51801e-06
-6.07708e-07
-3.91779e-08
7.41677e-06
-4.04819e-08
5.83027e-06
-3.76945e-07
-6.33772e-07
-2.53462e-07
1.31152e-05
9.84187e-08
-7.19844e-07
-3.40454e-07
1.39822e-05
-7.25381e-07
-2.43352e-07
1.35037e-05
-8.78921e-07
-2.45399e-07
1.15925e-05
-7.22878e-07
-1.65703e-07
9.03671e-06
-4.78778e-07
-8.82668e-08
7.1243e-06
-6.73582e-08
5.6391e-06
-2.86048e-07
-2.00702e-07
1.05202e-05
3.50633e-08
-2.55017e-07
-5.40888e-07
1.1423e-05
-4.30035e-07
-7.00801e-07
1.11871e-05
-4.36931e-07
-6.66385e-07
9.68563e-06
-3.18257e-07
-5.04113e-07
7.9624e-06
-1.77856e-07
-3.25854e-07
6.49869e-06
-8.88441e-08
5.20312e-06
-1.70181e-07
-8.30576e-08
-1.33945e-07
-1.05144e-07
7.65049e-06
1.68911e-07
1.48732e-07
-2.29047e-07
2.04705e-07
7.89108e-06
-6.40314e-09
-2.61772e-07
1.62998e-07
7.65996e-06
-1.58797e-08
-2.25583e-07
5.52318e-08
7.0127e-06
1.89115e-08
-1.77152e-07
1.16951e-08
6.11446e-06
3.20911e-08
-1.29568e-07
-2.74553e-08
5.13863e-06
4.28646e-08
-4.74844e-08
4.17237e-06
-8.92983e-08
4.1247e-08
-1.08889e-07
-6.64882e-08
9.62177e-06
2.33417e-07
-3.27105e-07
5.2173e-07
1.01922e-05
-3.88159e-07
3.63936e-07
9.79413e-06
-3.17231e-07
1.48511e-07
8.58945e-06
-2.34291e-07
6.91387e-08
7.22451e-06
-1.57821e-07
-1.70275e-09
5.95339e-06
-4.02409e-08
4.79176e-06
-1.03521e-07
-4.40058e-07
1.48084e-08
1.239e-05
3.54149e-07
-2.33376e-07
3.46773e-07
1.30884e-05
-4.426e-07
6.22034e-07
1.25462e-05
-3.90379e-07
1.89406e-07
1.06128e-05
-2.77598e-07
1.33854e-07
8.33968e-06
-1.73399e-07
3.00641e-08
6.66935e-06
-2.35962e-08
5.30552e-06
-1.03045e-07
-3.0086e-07
9.17024e-08
1.40413e-05
2.00124e-07
-6.11944e-07
4.3277e-08
1.4003e-05
-8.92134e-07
1.67976e-07
1.38648e-05
-6.51949e-07
2.81088e-08
1.20263e-05
-3.97445e-07
4.93493e-08
9.15661e-06
-2.11101e-07
2.34672e-09
7.14001e-06
-2.73135e-08
5.63656e-06
-1.02512e-07
-5.51272e-07
7.3824e-08
1.41927e-05
2.51497e-07
-4.69421e-07
1.55652e-08
1.36505e-05
-7.52526e-07
-2.17974e-07
1.38217e-05
-7.35153e-07
4.64241e-08
1.23521e-05
-4.02653e-07
-1.01718e-07
9.33673e-06
-1.92323e-07
-4.07498e-08
7.24934e-06
-3.84775e-08
5.72044e-06
-7.14618e-08
-4.89752e-07
1.88423e-07
1.30527e-05
4.38231e-07
-2.91373e-07
-9.2496e-08
1.38933e-05
-3.17032e-07
-1.53112e-07
1.34652e-05
-2.50474e-07
1.92901e-08
1.15532e-05
-1.51041e-07
2.01309e-08
8.81542e-06
-5.81229e-08
1.87275e-08
6.97194e-06
-7.36246e-09
5.54141e-06
8.76e-09
-1.79887e-07
1.03146e-05
3.18175e-07
2.55712e-07
-2.56819e-07
1.12805e-05
1.27068e-07
-2.54555e-07
1.09444e-05
8.7602e-08
-1.36819e-07
9.43442e-06
1.52988e-07
-4.85722e-08
7.78609e-06
1.08381e-07
1.88457e-08
6.37711e-06
7.33759e-08
5.12917e-06
7.43642e-08
1.14765e-08
-2.04432e-07
-4.61094e-07
7.60497e-06
2.99253e-07
4.11882e-07
-1.88809e-07
-2.91429e-07
7.81643e-06
3.50819e-07
-1.16827e-07
-3.38032e-07
7.57897e-06
3.47458e-07
-3.45512e-08
-3.30558e-07
6.94717e-06
3.1402e-07
1.15426e-08
-2.53774e-07
6.07712e-06
2.449e-07
3.20611e-08
-1.99849e-07
5.12789e-06
1.89375e-07
-1.58431e-07
4.18128e-06
4.01762e-08
1.40988e-07
-1.77791e-07
-4.04281e-07
9.34564e-06
3.98222e-07
-2.43318e-07
1.26908e-07
9.83972e-06
-1.37647e-07
-1.24523e-07
9.47474e-06
-8.19551e-09
-2.57837e-07
8.3866e-06
5.08119e-08
-2.10061e-07
7.12142e-06
6.79255e-08
-1.733e-07
5.90935e-06
-1.46136e-07
4.78157e-06
6.56557e-08
-1.69789e-07
-9.21895e-08
1.17053e-05
5.42242e-07
-1.37205e-07
3.68835e-07
1.28138e-05
-2.04765e-07
2.87399e-07
1.22016e-05
4.43112e-08
2.05964e-10
1.01053e-05
1.21323e-07
-8.29491e-08
8.13475e-06
1.25019e-07
-9.58262e-08
6.58753e-06
-1.01382e-07
5.27525e-06
1.10121e-07
9.56372e-08
-6.03811e-08
1.35886e-05
3.24629e-07
-4.21253e-07
1.9193e-07
1.46971e-05
-5.48664e-07
9.42363e-08
1.41843e-05
-9.19237e-08
-5.38238e-08
1.16226e-05
1.17941e-07
-3.66003e-09
8.86682e-06
1.52832e-07
-2.4155e-08
7.03312e-06
-5.00525e-08
5.59161e-06
1.46229e-07
7.73871e-08
7.08128e-08
1.37029e-05
2.81122e-07
-4.57311e-07
-2.55686e-07
1.4633e-05
-6.52203e-07
-3.41406e-07
1.4452e-05
-1.82258e-07
-5.59429e-08
1.18832e-05
1.1476e-07
1.45975e-08
9.02106e-06
1.76339e-07
2.88452e-08
7.13451e-06
-2.64611e-09
5.67068e-06
1.78557e-07
-2.17528e-07
3.80965e-07
1.23447e-05
6.14849e-07
-1.48092e-07
-6.44539e-08
1.36334e-05
-2.06255e-07
7.64878e-08
1.3105e-05
1.78364e-07
3.04617e-07
1.0808e-05
2.49603e-07
2.20097e-07
8.53853e-06
2.40863e-07
1.41808e-07
6.86766e-06
6.1569e-08
5.49788e-06
2.20151e-07
-1.94149e-07
9.94312e-06
4.54414e-07
4.91716e-07
-1.51458e-07
1.07077e-05
4.66811e-07
-7.35905e-09
1.03866e-05
4.9013e-07
1.76749e-07
9.08001e-06
4.75004e-07
2.32859e-07
7.62823e-06
3.22e-07
2.4038e-07
6.3077e-06
2.03682e-07
5.10281e-06
2.39429e-07
8.89528e-08
-2.69264e-07
-4.69377e-07
7.59644e-06
3.33814e-07
4.13446e-07
-1.90436e-07
-4.48786e-07
7.77754e-06
4.09013e-07
-8.64781e-08
-4.50838e-07
7.52769e-06
3.98312e-07
-5.08285e-09
-3.7947e-07
6.90605e-06
3.39059e-07
3.6608e-08
-2.86141e-07
6.05734e-06
2.63837e-07
5.52406e-08
-2.22752e-07
5.12598e-06
2.05485e-07
-1.75773e-07
4.19362e-06
6.29471e-08
1.55371e-07
-3.21476e-07
-4.72038e-07
9.21343e-06
4.57131e-07
-2.13857e-07
-3.2566e-07
9.60828e-06
-7.5794e-08
-3.67649e-07
9.25284e-06
4.07573e-08
-3.63736e-07
8.2533e-06
8.44749e-08
-2.67416e-07
7.05822e-06
9.31634e-08
-2.06919e-07
5.88413e-06
-1.68295e-07
4.77845e-06
8.85152e-08
-2.52946e-07
-2.51935e-07
1.10749e-05
6.62514e-07
-1.84491e-07
3.53609e-08
1.23835e-05
-3.21893e-08
-6.2195e-08
1.1743e-05
1.54902e-07
-1.68404e-07
9.72197e-06
1.80224e-07
-1.55254e-07
7.99656e-06
1.605e-07
-1.33495e-07
6.53304e-06
-1.2506e-07
5.25514e-06
1.36733e-07
-9.68922e-08
-4.08834e-09
1.27298e-05
7.06981e-07
-2.79647e-07
2.17124e-07
1.46977e-05
-1.67554e-07
6.84946e-08
1.39404e-05
1.64824e-07
-6.06706e-09
1.11269e-05
2.37969e-07
-1.24547e-08
8.6505e-06
2.13653e-07
-3.16623e-08
6.95517e-06
-6.04124e-08
5.5581e-06
1.82098e-07
2.40765e-08
1.56188e-07
1.28247e-05
6.93514e-07
-4.46357e-07
-1.34284e-07
1.54549e-05
-2.93201e-07
1.36293e-08
1.43528e-05
1.49888e-07
1.09567e-07
1.13232e-05
2.54508e-07
1.1774e-07
8.78556e-06
2.40629e-07
6.69506e-08
7.04956e-06
5.17677e-09
5.63185e-06
2.13649e-07
-2.18856e-07
4.24556e-07
1.15832e-05
7.11744e-07
-2.18408e-07
2.80719e-07
1.32174e-05
-1.75293e-08
3.79619e-07
1.25373e-05
2.48962e-07
4.05142e-07
1.02455e-05
2.78948e-07
2.70628e-07
8.35548e-06
2.58167e-07
1.6342e-07
6.79175e-06
6.40936e-08
5.46228e-06
2.34516e-07
-2.85571e-07
9.72713e-06
4.63653e-07
4.61356e-07
-1.66415e-07
1.03316e-05
5.38844e-07
1.98759e-08
1.00145e-05
5.65025e-07
1.6799e-07
8.8687e-06
4.68313e-07
2.21488e-07
7.52669e-06
3.18573e-07
2.37684e-07
6.25605e-06
1.9847e-07
5.07888e-06
2.46391e-07
7.90438e-08
-2.73295e-07
-2.10552e-07
7.57809e-06
2.59238e-07
2.42985e-07
-2.21024e-07
-2.41519e-07
7.73337e-06
2.33025e-07
-1.39875e-07
-2.54927e-07
7.47042e-06
2.30682e-07
-7.95626e-08
-2.03952e-07
6.85115e-06
1.98054e-07
-3.27684e-08
-1.74746e-07
6.01504e-06
1.70033e-07
3.05603e-09
-1.58179e-07
5.09952e-06
1.48537e-07
-1.40475e-07
4.18501e-06
2.92218e-08
1.22569e-07
-4.06607e-07
-2.1708e-07
9.26027e-06
3.6576e-07
-3.03163e-07
-2.94212e-07
9.55658e-06
-1.79399e-07
-3.16354e-07
9.18964e-06
-9.48674e-08
-2.15826e-07
8.17968e-06
-3.43981e-08
-1.70259e-07
6.99281e-06
8.06491e-09
-1.53637e-07
5.83689e-06
-1.40766e-07
4.75215e-06
3.42392e-08
-6.08225e-07
-1.87529e-07
1.10637e-05
5.89272e-07
-3.44306e-07
-2.78574e-07
1.21029e-05
-7.90971e-08
-2.64221e-07
1.14248e-05
-2.2746e-08
-1.7177e-07
9.62085e-06
1.62512e-08
-1.17984e-07
7.90488e-06
4.41672e-08
-1.12628e-07
6.46384e-06
-1.16237e-07
5.21168e-06
6.28229e-08
-8.38489e-07
-2.41973e-08
1.25548e-05
8.49519e-07
-4.02442e-07
-1.08908e-07
1.40911e-05
-5.76698e-08
-6.73764e-08
1.33982e-05
6.25978e-08
1.83847e-08
1.08161e-05
7.61421e-08
-7.48479e-09
8.52612e-06
8.82201e-08
-3.70541e-08
6.8671e-06
-7.03285e-08
5.50129e-06
9.8738e-08
-9.76841e-07
1.81491e-07
1.26884e-05
9.06667e-07
-3.85574e-07
3.79493e-07
1.4375e-05
-5.3514e-08
3.09526e-07
1.36428e-05
7.77539e-08
2.04899e-07
1.10046e-05
9.71634e-08
1.03354e-07
8.65491e-06
1.14364e-07
3.96515e-08
6.95536e-06
-2.20968e-08
5.56949e-06
1.28185e-07
-6.59885e-07
2.53132e-07
1.14777e-05
6.9308e-07
-3.01514e-07
4.15208e-07
1.28223e-05
8.99812e-09
4.48671e-07
1.20868e-05
6.04915e-08
2.66914e-07
1.01316e-05
9.48489e-08
1.69655e-07
8.25457e-06
1.27533e-07
9.40541e-08
6.70434e-06
1.25714e-08
5.40309e-06
1.51615e-07
-3.78503e-07
9.76142e-06
3.77557e-07
2.19505e-07
-2.54167e-07
1.02951e-05
3.26896e-07
-1.03635e-07
9.97645e-06
3.35706e-07
-1.17767e-08
8.79948e-06
2.43985e-07
7.2124e-08
7.43815e-06
1.73944e-07
1.34904e-07
6.18221e-06
1.04623e-07
5.02998e-06
1.81534e-07
1.43589e-08
-1.99923e-07
-8.43231e-08
7.5373e-06
1.62873e-07
1.62078e-07
-1.98817e-07
-5.19437e-08
7.67636e-06
1.07328e-07
-1.57883e-07
-7.96667e-08
7.40164e-06
1.06913e-07
-1.16123e-07
-7.68549e-08
6.78086e-06
1.04859e-07
-6.62618e-08
-1.01142e-07
5.95429e-06
1.11729e-07
-1.91943e-08
-1.18723e-07
5.05618e-06
1.15178e-07
-1.20374e-07
4.16494e-06
1.71087e-08
1.0425e-07
-3.44204e-07
-4.31025e-08
9.3115e-06
2.50522e-07
-3.27438e-07
-9.27439e-08
9.57992e-06
-2.51904e-07
-1.4377e-07
9.17781e-06
-1.78246e-07
-8.07167e-08
8.10989e-06
-1.00375e-07
-9.84319e-08
6.91212e-06
-3.32821e-08
-1.19175e-07
5.76998e-06
-1.24991e-07
4.71137e-06
1.18519e-08
-6.98048e-07
-1.16288e-07
1.14181e-05
4.16492e-07
-4.43827e-07
-2.81694e-07
1.2037e-05
-2.05318e-07
-3.28577e-07
1.13703e-05
-1.62494e-07
-1.04352e-07
9.60138e-06
-8.73692e-08
-8.44582e-08
7.8158e-06
-1.86518e-08
-1.0067e-07
6.37662e-06
-1.13233e-07
5.15336e-06
2.78261e-08
-1.11604e-06
3.13782e-08
1.28335e-05
6.89199e-07
-5.91468e-07
-1.69469e-08
1.33007e-05
-9.36784e-08
-3.30207e-08
1.26047e-05
-8.5257e-08
6.74182e-09
1.06967e-05
-4.56554e-08
-2.52706e-08
8.42717e-06
1.0832e-08
-5.52727e-08
6.76508e-06
-8.62118e-08
5.43051e-06
5.43619e-08
-1.18648e-06
1.57637e-07
1.30115e-05
7.36361e-07
-5.85202e-07
3.61816e-07
1.33937e-05
-5.8039e-08
3.82226e-07
1.26998e-05
-6.77253e-08
1.25895e-07
1.08953e-05
-2.46187e-08
3.43433e-08
8.55217e-06
3.68039e-08
-8.54695e-09
6.84706e-06
-5.6588e-08
5.49355e-06
8.29139e-08
-7.63031e-07
6.9053e-08
1.18281e-05
5.00765e-07
-3.63349e-07
1.59441e-07
1.2624e-05
-1.07824e-07
2.04075e-07
1.20088e-05
-9.24351e-08
9.14113e-08
1.01504e-05
-1.30402e-08
5.68512e-08
8.1524e-06
6.23348e-08
2.06357e-08
6.59949e-06
-3.55551e-08
5.33008e-06
1.14056e-07
-3.22346e-07
9.79182e-06
2.71283e-07
9.01481e-08
-2.92295e-07
1.03254e-05
9.69784e-08
-1.95502e-07
9.98106e-06
1.02305e-07
-9.82323e-08
8.72016e-06
7.2957e-08
7.62936e-09
7.32771e-06
6.09659e-08
9.35412e-08
6.08777e-06
2.88426e-08
4.96733e-06
1.55646e-07
-3.53982e-08
-8.79479e-08
-1.91432e-07
7.49139e-06
1.02835e-07
2.22339e-07
-1.22887e-07
-2.75822e-08
7.61581e-06
1.22775e-07
-1.13498e-07
-5.34039e-08
7.33222e-06
1.13115e-07
-7.65687e-08
-9.08858e-08
6.71273e-06
1.22111e-07
-2.95891e-08
-1.17923e-07
5.89721e-06
1.28069e-07
1.29498e-08
-1.32695e-07
5.01858e-06
1.27897e-07
-1.31711e-07
4.15179e-06
4.36034e-08
1.14253e-07
-1.28284e-07
-1.71553e-07
9.25071e-06
1.68558e-07
-2.2957e-07
1.0092e-07
9.55275e-06
-2.07207e-07
-5.71014e-09
9.10796e-06
-1.3111e-07
-7.46633e-08
8.01802e-06
-5.66092e-08
-1.0836e-07
6.82822e-06
4.80225e-09
-1.30859e-07
5.7068e-06
-1.35961e-07
4.67763e-06
4.26605e-08
-4.53132e-07
-1.90857e-07
1.15789e-05
3.11711e-07
-2.49958e-07
-7.66816e-08
1.20114e-05
-1.85312e-07
-7.80896e-08
1.13782e-05
-1.18603e-07
-6.82359e-08
9.52834e-06
-4.3103e-08
-8.21771e-08
7.71422e-06
2.06925e-08
-1.09412e-07
6.29157e-06
-1.24434e-07
5.10232e-06
6.03024e-08
-5.25734e-07
-5.72584e-09
1.28163e-05
3.57972e-07
-2.66276e-07
2.55324e-08
1.29389e-05
-1.52841e-07
-3.49606e-08
1.24482e-05
-1.14972e-07
-6.58855e-08
1.06567e-05
-3.05783e-08
-5.71482e-08
8.3178e-06
4.11469e-08
-8.01678e-08
6.66418e-06
-1.0387e-07
5.36723e-06
8.39325e-08
-5.0151e-07
1.39912e-07
1.29961e-05
3.717e-07
-2.97363e-07
6.68206e-08
1.31475e-05
-1.65594e-07
-1.69343e-08
1.25497e-05
-1.31745e-07
-2.96567e-08
1.08254e-05
-1.7091e-08
-4.90715e-08
8.42949e-06
6.57489e-08
-5.42185e-08
6.73821e-06
-8.16186e-08
5.42466e-06
1.1235e-07
-4.72454e-07
9.8115e-08
1.1978e-05
3.64261e-07
-2.02105e-07
-1.10606e-07
1.25309e-05
-1.20986e-07
-6.19741e-08
1.19728e-05
-4.67332e-08
-1.42307e-08
1.00606e-05
4.02867e-08
2.33122e-10
8.01592e-06
1.06151e-07
-1.51596e-08
6.4945e-06
-5.66374e-08
5.2638e-06
1.47448e-07
-1.21711e-07
9.67056e-06
2.0283e-07
1.37629e-07
-1.79063e-07
1.02318e-05
3.9842e-08
-1.18679e-07
9.82481e-06
3.37e-08
-2.30691e-08
8.56166e-06
4.84265e-08
6.82409e-08
7.201e-06
3.5494e-08
1.37336e-07
5.99559e-06
7.92946e-09
4.91117e-06
1.84915e-07
-4.8103e-08
-5.18559e-08
-2.86309e-07
7.45693e-06
9.49617e-08
2.77622e-07
-8.0025e-08
-1.20395e-07
7.57281e-06
1.91652e-07
-5.69378e-08
-1.68139e-07
7.28554e-06
1.91993e-07
-1.3765e-08
-1.82566e-07
6.66492e-06
1.87492e-07
2.72185e-08
-1.73968e-07
5.85837e-06
1.71939e-07
5.9352e-08
-1.67084e-07
4.99738e-06
1.56077e-07
-1.53437e-07
4.15156e-06
8.00098e-08
1.32939e-07
-3.54116e-08
-3.03709e-07
9.16183e-06
1.42017e-07
-1.4514e-07
5.64357e-08
9.48618e-06
-9.33647e-08
-1.42601e-07
9.03103e-06
-2.88999e-08
-1.70526e-07
7.94171e-06
2.56045e-08
-1.63561e-07
6.76334e-06
6.68431e-08
-1.64683e-07
5.6633e-06
-1.57074e-07
4.65988e-06
8.82863e-08
-1.28654e-07
-1.92157e-07
1.13125e-05
2.83799e-07
3.09682e-09
-3.04538e-08
1.1967e-05
-2.18575e-08
-3.90365e-08
1.13001e-05
1.80467e-08
-9.65878e-08
9.4148e-06
6.24963e-08
-1.19345e-07
7.62549e-06
9.7058e-08
-1.36374e-07
6.22865e-06
-1.4168e-07
5.06939e-06
1.14633e-07
1.22638e-08
-1.48912e-07
1.26232e-05
1.37723e-07
2.23746e-08
-1.16558e-07
1.30155e-05
-1.08398e-07
-1.42594e-07
1.26827e-05
-7.09421e-10
-1.20782e-07
1.05734e-05
8.05602e-08
-9.49918e-08
8.21219e-06
1.23359e-07
-1.02223e-07
6.58723e-06
-1.16636e-07
5.32316e-06
1.42482e-07
-8.62484e-09
1.83527e-08
1.26839e-05
1.53815e-07
3.09044e-08
-5.52297e-08
1.30471e-05
-9.62991e-08
-1.97003e-07
1.27316e-05
1.56398e-08
-9.72265e-08
1.06899e-05
1.04458e-07
-6.51085e-08
8.31073e-06
1.50621e-07
-6.41037e-08
6.65393e-06
-8.69836e-08
5.3749e-06
1.70816e-07
-1.49369e-07
1.46453e-07
1.16606e-05
3.38927e-07
3.65318e-08
-1.46764e-07
1.24368e-05
2.253e-08
-2.81026e-08
1.18183e-05
1.05343e-07
2.9497e-08
9.85118e-06
1.50579e-07
1.40608e-08
7.89154e-06
1.82288e-07
-1.13836e-08
6.41017e-06
-5.3773e-08
5.21443e-06
1.98601e-07
-2.27116e-08
9.50567e-06
1.71129e-07
1.62766e-07
-6.63796e-08
1.00493e-05
7.98615e-08
-4.77946e-10
9.62676e-06
1.04121e-07
8.35487e-08
8.40713e-06
1.00058e-07
1.48349e-07
7.09135e-06
5.90476e-08
1.93466e-07
5.92116e-06
1.81077e-08
4.86911e-06
2.22014e-07
-4.00327e-08
-7.27766e-08
-2.40059e-07
7.419e-06
9.45383e-08
2.56254e-07
-8.07089e-08
-1.53529e-07
7.52724e-06
2.07294e-07
-3.95023e-08
-2.05442e-07
7.23589e-06
2.14303e-07
9.66829e-09
-2.01897e-07
6.61528e-06
2.02604e-07
5.08781e-08
-1.86809e-07
5.82163e-06
1.82378e-07
8.11476e-08
-1.76351e-07
4.97964e-06
1.6365e-07
-1.59837e-07
4.15464e-06
9.92383e-08
1.38624e-07
-6.60277e-08
-2.29142e-07
9.09908e-06
1.18462e-07
-1.38702e-07
-2.44168e-08
9.43006e-06
-7.04308e-08
-1.96093e-07
8.95351e-06
-1.069e-09
-1.94646e-07
7.86491e-06
5.34384e-08
-1.7795e-07
6.7001e-06
9.20661e-08
-1.75227e-07
5.6236e-06
-1.64215e-07
4.64583e-06
1.10529e-07
-7.99889e-08
-1.48848e-07
1.10855e-05
2.26877e-07
-4.2575e-08
1.38944e-08
1.18915e-05
-9.76557e-09
-9.79674e-08
1.11693e-05
4.45293e-08
-1.28383e-07
9.29429e-06
9.32165e-08
-1.38054e-07
7.53701e-06
1.26033e-07
-1.48158e-07
6.16877e-06
-1.48604e-07
5.04014e-06
1.39613e-07
6.55376e-08
-1.65499e-07
1.23917e-05
1.82704e-07
-1.27741e-07
-1.16671e-07
1.33396e-05
-9.94929e-08
-1.64847e-07
1.27216e-05
4.28689e-08
-1.21891e-07
1.04244e-05
1.19703e-07
-1.08369e-07
8.10573e-06
1.57022e-07
-1.10811e-07
6.5126e-06
-1.20879e-07
5.28267e-06
1.69764e-07
9.85864e-08
-1.12694e-07
1.23014e-05
2.31414e-07
-9.79738e-08
-2.39997e-07
1.33675e-05
-9.49314e-08
-1.39607e-07
1.27037e-05
6.56612e-08
-1.0529e-07
1.05125e-05
1.44609e-07
-6.87145e-08
8.1921e-06
1.82578e-07
-6.67081e-08
6.57189e-06
-8.75403e-08
5.32853e-06
1.9564e-07
-9.62944e-08
6.82223e-09
1.13507e-05
2.86842e-07
-4.55986e-09
-1.68584e-07
1.22743e-05
6.27144e-08
3.07966e-08
1.15807e-05
1.28007e-07
3.25598e-08
9.64815e-06
1.736e-07
7.8287e-09
7.76951e-06
2.02859e-07
-1.42348e-08
6.32853e-06
-5.36499e-08
5.1682e-06
2.15326e-07
-4.52602e-08
9.35984e-06
1.28781e-07
6.90507e-08
-8.72992e-08
9.86885e-06
5.47273e-08
1.38742e-08
9.44774e-06
1.08778e-07
9.80308e-08
8.26519e-06
9.05343e-08
1.61353e-07
6.98574e-06
5.02557e-08
2.04886e-07
5.85002e-06
1.354e-08
4.82987e-06
2.30428e-07
-3.97106e-08
-9.36186e-08
-2.19098e-07
7.37815e-06
9.92032e-08
2.54425e-07
-7.1157e-08
-2.01004e-07
7.47698e-06
2.2893e-07
-1.76071e-08
-2.25525e-07
7.18059e-06
2.27428e-07
3.33765e-08
-2.08158e-07
6.5641e-06
2.0832e-07
7.22794e-08
-1.90581e-07
5.78653e-06
1.86774e-07
1.00269e-07
-1.79923e-07
4.9646e-06
1.66956e-07
-1.62009e-07
4.16039e-06
1.15252e-07
1.41209e-07
-1.73137e-07
-1.62525e-07
9.06967e-06
1.46122e-07
-1.39843e-07
-1.68574e-07
9.3641e-06
-5.24566e-08
-2.32624e-07
8.87309e-06
2.0535e-08
-2.04955e-07
7.78848e-06
7.56163e-08
-1.83556e-07
6.63797e-06
1.13157e-07
-1.80471e-07
5.58663e-06
-1.66984e-07
4.6347e-06
1.29205e-07
-3.21855e-07
-1.18612e-07
1.10765e-05
2.87011e-07
-1.86153e-07
-1.52467e-07
1.17394e-05
-9.1454e-09
-2.1741e-07
1.0977e-05
6.10511e-08
-1.69373e-07
9.18837e-06
1.16712e-07
-1.50409e-07
7.4483e-06
1.48785e-07
-1.54735e-07
6.11103e-06
-1.51744e-07
5.01366e-06
1.59982e-07
-4.1211e-07
-9.39417e-08
1.23687e-05
4.10468e-07
-2.92033e-07
-8.87331e-08
1.31558e-05
-9.20663e-09
-9.93744e-08
1.23208e-05
9.07349e-08
-8.70136e-08
1.02421e-05
1.54993e-07
-1.03721e-07
7.99488e-06
1.84729e-07
-1.1073e-07
6.43882e-06
-1.20646e-07
5.24457e-06
1.91667e-07
-4.20195e-07
-1.53909e-07
1.23565e-05
4.24964e-07
-3.10124e-07
-1.26634e-07
1.32955e-05
-4.71251e-08
-3.85107e-08
1.23797e-05
9.47703e-08
-5.6316e-08
1.034e-05
1.7198e-07
-5.88754e-08
8.07009e-06
2.05881e-07
-6.26837e-08
6.48992e-06
-8.46952e-08
5.2842e-06
2.14223e-07
-3.1296e-07
-6.78953e-08
1.12346e-05
3.43067e-07
-1.50596e-07
-6.19173e-08
1.20473e-05
3.39783e-08
2.13301e-08
1.13362e-05
1.15457e-07
1.25548e-08
9.4978e-06
1.79525e-07
-7.10652e-11
7.6467e-06
2.13988e-07
-1.67797e-08
6.24817e-06
-5.29075e-08
5.12416e-06
2.26272e-07
-1.28188e-07
9.24343e-06
1.41327e-07
3.55962e-08
-9.05918e-08
9.70835e-06
6.10471e-08
8.84535e-09
9.28637e-06
8.33046e-08
9.60973e-08
8.12705e-06
6.35283e-08
1.65518e-07
6.88069e-06
3.55846e-08
2.10976e-07
5.78062e-06
7.19196e-09
4.79287e-06
2.34922e-07
-3.98153e-08
-5.80172e-08
-2.87657e-07
7.34149e-06
8.43285e-08
2.98036e-07
-2.605e-08
-2.50558e-07
7.43067e-06
2.64825e-07
2.56462e-08
-2.54989e-07
7.13198e-06
2.51705e-07
7.13243e-08
-2.31977e-07
6.52365e-06
2.2653e-07
1.03415e-07
-2.06234e-07
5.76213e-06
1.9848e-07
1.24675e-07
-1.88606e-07
4.95842e-06
1.73621e-07
-1.66104e-07
4.1725e-06
1.33472e-07
1.45255e-07
-1.47379e-07
-2.42832e-07
9.017e-06
1.549e-07
-9.22996e-08
-2.13296e-07
9.27148e-06
-4.89554e-09
-2.56008e-07
8.7866e-06
6.96722e-08
-2.35504e-07
7.7175e-06
1.16435e-07
-2.03586e-07
6.58849e-06
1.44074e-07
-1.90677e-07
5.56094e-06
-1.71223e-07
4.63178e-06
1.51982e-07
-3.91423e-07
-2.13436e-07
1.1103e-05
3.35429e-07
-1.61831e-07
-2.82753e-07
1.15789e-05
5.00496e-08
-3.11987e-07
1.08208e-05
1.27723e-07
-2.15158e-07
9.09019e-06
1.67836e-07
-1.69173e-07
7.37357e-06
1.85472e-07
-1.64091e-07
6.06673e-06
-1.5492e-07
4.99691e-06
1.85938e-07
-5.7669e-07
-1.0337e-07
1.23664e-05
4.68872e-07
-2.57554e-07
-1.4658e-07
1.26999e-05
1.10295e-07
-1.12034e-07
1.17527e-05
1.75359e-07
-1.05226e-07
1.00671e-05
2.15527e-07
-1.09757e-07
7.89527e-06
2.25085e-07
-1.14167e-07
6.37933e-06
-1.20995e-07
5.21686e-06
2.18868e-07
-6.1756e-07
-3.56643e-08
1.24309e-05
4.75169e-07
-2.03201e-07
2.67907e-08
1.27072e-05
9.92143e-08
1.48394e-08
1.19501e-05
1.80483e-07
-1.92904e-08
1.0173e-05
2.32372e-07
-5.02153e-08
7.9588e-06
2.4549e-07
-5.9189e-08
6.42184e-06
-8.1516e-08
5.25026e-06
2.39945e-07
-4.02357e-07
1.83309e-08
1.11964e-05
3.86441e-07
-1.18195e-07
-2.28021e-08
1.18122e-05
7.57814e-08
2.14185e-08
1.11356e-05
1.75966e-07
2.51943e-08
9.35312e-06
2.25993e-07
9.33854e-09
7.53709e-06
2.45937e-07
-1.20779e-08
6.18108e-06
-4.83012e-08
5.09004e-06
2.46783e-07
-1.05112e-07
9.12027e-06
1.49652e-07
9.7026e-08
-4.42185e-08
9.53666e-06
8.74113e-08
5.28044e-08
9.12139e-06
8.93171e-08
1.38369e-07
7.99553e-06
7.10814e-08
1.99292e-07
6.78785e-06
4.11876e-08
2.33754e-07
5.7228e-06
1.11691e-08
4.76467e-06
2.47615e-07
-3.40887e-08
1.6929e-09
-3.6834e-07
7.31729e-06
5.49027e-08
3.35916e-07
2.59393e-08
-2.77624e-07
7.39673e-06
2.87148e-07
6.61797e-08
-2.76027e-07
7.09986e-06
2.67624e-07
1.02677e-07
-2.49141e-07
6.49987e-06
2.36433e-07
1.25718e-07
-2.13327e-07
5.75124e-06
2.01092e-07
1.39617e-07
-1.89592e-07
4.96155e-06
1.72566e-07
-1.6429e-07
4.18994e-06
1.4313e-07
1.4341e-07
-1.54842e-08
-3.62918e-07
8.91706e-06
1.09927e-07
-1.2029e-09
-1.77025e-07
9.15639e-06
5.74152e-08
-2.42334e-07
8.69416e-06
1.15985e-07
-2.4902e-07
7.65895e-06
1.47398e-07
-2.13029e-07
6.55662e-06
1.63405e-07
-1.9304e-07
5.5482e-06
-1.69572e-07
4.63672e-06
1.63729e-07
-1.57839e-07
-3.05915e-07
1.09448e-05
2.58539e-07
4.97747e-08
-2.12714e-07
1.1407e-05
1.08358e-07
-1.80992e-07
1.07006e-05
1.86971e-07
-1.98408e-07
8.96074e-06
2.0612e-07
-1.76611e-07
7.31776e-06
2.07991e-07
-1.66381e-07
6.03801e-06
-1.53391e-07
4.99002e-06
1.98678e-07
-1.66409e-07
-1.4918e-07
1.21074e-05
2.68297e-07
7.42749e-08
-1.57832e-07
1.24042e-05
1.02533e-07
-2.09234e-07
1.17522e-05
2.21944e-07
-1.59512e-07
9.90871e-06
2.51623e-07
-1.24873e-07
7.81378e-06
2.46964e-07
-1.19042e-07
6.33666e-06
-1.20527e-07
5.20007e-06
2.30943e-07
-1.82903e-07
2.45331e-08
1.21634e-05
2.76545e-07
3.28662e-08
-8.78277e-08
1.2421e-05
1.30285e-07
-1.22594e-07
1.1766e-05
2.43988e-07
-6.71295e-08
9.96666e-06
2.73718e-07
-5.87406e-08
7.86291e-06
2.68186e-07
-6.25511e-08
6.37095e-06
-8.08764e-08
5.2275e-06
2.51343e-07
-2.00779e-07
1.05789e-07
1.10063e-05
3.09372e-07
4.04478e-08
-8.12902e-08
1.1564e-05
1.43801e-07
-8.44948e-09
1.09179e-05
2.48752e-07
3.49916e-08
9.14601e-06
2.67836e-07
1.2315e-08
7.44694e-06
2.67778e-07
-1.15427e-08
6.13012e-06
-4.59587e-08
5.06653e-06
2.56291e-07
3.4979e-09
8.95806e-06
1.13228e-07
1.50816e-07
3.5498e-08
9.31976e-06
1.03586e-07
1.15555e-07
8.9264e-06
1.06279e-07
1.88277e-07
7.87177e-06
8.59693e-08
2.29122e-07
6.71293e-06
4.63378e-08
2.48231e-07
5.67939e-06
1.25922e-08
4.74559e-06
2.51754e-07
-3.05212e-08
2.27327e-08
-3.3791e-07
7.30665e-06
2.8244e-08
2.97532e-07
4.10078e-08
-2.65265e-07
7.38498e-06
2.58579e-07
7.51842e-08
-2.64472e-07
7.08922e-06
2.4096e-07
1.00376e-07
-2.21165e-07
6.49087e-06
2.05031e-07
1.16636e-07
-1.85262e-07
5.74814e-06
1.7205e-07
1.27907e-07
-1.65987e-07
4.96691e-06
1.49176e-07
-1.45797e-07
4.20612e-06
1.31595e-07
1.25854e-07
4.20002e-08
-3.58307e-07
8.84524e-06
5.04122e-08
3.81461e-08
-1.95553e-07
9.09045e-06
8.56453e-08
-2.63943e-07
8.64605e-06
1.16984e-07
-2.30281e-07
7.63654e-06
1.34726e-07
-1.88782e-07
6.5422e-06
1.46738e-07
-1.72202e-07
5.54231e-06
-1.52645e-07
4.64268e-06
1.47615e-07
4.86839e-08
-2.90544e-07
1.0668e-05
1.59964e-07
1.40197e-07
-1.66699e-07
1.12866e-05
1.66592e-07
-1.74954e-07
1.05853e-05
1.88714e-07
-1.71196e-07
8.87956e-06
1.87544e-07
-1.61058e-07
7.29098e-06
1.85522e-07
-1.5243e-07
6.02004e-06
-1.40938e-07
4.9862e-06
1.77538e-07
1.78518e-07
-2.02257e-07
1.17207e-05
1.1945e-07
2.19805e-07
-1.81357e-07
1.2378e-05
1.22219e-07
-2.06409e-07
1.18811e-05
2.1537e-07
-1.60623e-07
9.80481e-06
2.25336e-07
-1.24342e-07
7.76702e-06
2.18325e-07
-1.15986e-07
6.30717e-06
-1.15522e-07
5.18762e-06
2.05352e-07
1.69161e-07
-4.0127e-08
1.16898e-05
1.42237e-07
1.79279e-07
-1.38335e-07
1.23681e-05
1.46063e-07
-1.83136e-07
1.17758e-05
2.35325e-07
-9.1761e-08
9.808e-06
2.44425e-07