/*--------------------------------*- C++ -*----------------------------------*\
| =========                 |                                                 |
| \\      /  F ield         | OpenFOAM: The Open Source CFD Toolbox           |
|  \\    /   O peration     | Version:  plus.master.MPPICInterFoam            |
|   \\  /    A nd           | Web:      www.OpenFOAM.com                      |
|    \\/     M anipulation  |                                                 |
\*---------------------------------------------------------------------------*/
FoamFile
{
    version     2.0;
    format      ascii;
    class       volVectorField;
    location    "9.4";
    object      U;
}
// * * * * * * * * * * * * * * * * * * * * * * * * * * * * * * * * * * * * * //

dimensions      [0 1 -1 0 0 0 0];

internalField   nonuniform List<vector> 
11821
(
(0.0169455 0.00389922 0.457057)
(0.0231959 0.0143621 0.550906)
(0.015259 0.00897191 0.439956)
(0.0190316 0.0282227 0.59957)
(0.0155972 0.01849 0.500384)
(0.0117252 0.0118209 0.403309)
(-0.0155191 -0.00941512 0.58172)
(-0.0131693 -0.0124068 0.603885)
(-0.00848285 -0.0122998 0.591165)
(-0.0049115 -0.00866915 0.545872)
(-0.00383627 -0.00570216 0.479603)
(-0.00341865 -0.0039359 0.403691)
(-0.00295014 -0.00263858 0.326081)
(-0.0220537 -0.0140111 0.69001)
(-0.0173443 -0.019522 0.724724)
(-0.00791905 -0.0191801 0.710972)
(-0.00196603 -0.01276 0.648435)
(-0.00168896 -0.00742116 0.563405)
(-0.00216775 -0.00463978 0.47062)
(-0.00224368 -0.00305712 0.378524)
(-0.0310382 -0.0178437 0.794759)
(-0.0211966 -0.0242089 0.882816)
(-0.00357728 -0.022123 0.874212)
(0.00464082 -0.013611 0.751752)
(0.00393773 -0.00767767 0.639257)
(0.000981144 -0.00408563 0.528632)
(-0.000449181 -0.00251323 0.422551)
(-0.0397996 -0.00867877 0.885018)
(-0.0255663 -0.0140386 1.20467)
(0.00289069 -0.0120078 1.17547)
(0.0128165 -0.00557101 0.856508)
(0.010285 -0.00192158 0.693316)
(0.00491921 -0.00046318 0.567498)
(0.00164692 -0.000316185 0.451398)
(-0.0409194 0.0118782 0.902105)
(-0.0256825 0.0159123 1.22677)
(0.00373351 0.0139499 1.22497)
(0.0139771 0.0109965 0.870724)
(0.011798 0.00811941 0.704835)
(0.00606121 0.00514294 0.576543)
(0.00255068 0.00288313 0.458676)
(-0.0344081 0.0247386 0.823748)
(-0.0222064 0.0331855 0.929533)
(-0.00127438 0.0316044 0.922939)
(0.00845061 0.022495 0.788546)
(0.00763864 0.0148095 0.668758)
(0.00375985 0.00921976 0.553179)
(0.0020828 0.00529939 0.44277)
(-0.0236974 0.0230759 0.72686)
(-0.0169722 0.0314574 0.773086)
(-0.00550235 0.0314656 0.762901)
(0.00108967 0.0228498 0.694999)
(0.00136484 0.0147947 0.604087)
(0.00124851 0.0098199 0.505482)
(0.0015661 0.00589561 0.407163)
(-0.00693622 0.0107213 0.585587)
(-0.010941 0.0126309 0.605677)
(-0.0123286 0.0111328 0.590638)
(-0.01274 0.00942646 0.544243)
(-0.01237 0.00641144 0.476586)
(-0.0106068 0.00382896 0.399929)
(-0.00853858 0.00229877 0.322564)
(-0.0098652 0.0135035 0.705465)
(-0.0156714 0.0123308 0.729555)
(-0.0163987 0.00945954 0.711608)
(-0.0167172 0.0101406 0.650013)
(-0.0167312 0.00718938 0.56183)
(-0.0137646 0.00402468 0.466651)
(-0.0105141 0.00198046 0.374115)
(-0.0166323 0.00659847 0.813919)
(-0.0231678 -0.00533974 0.873935)
(-0.0177311 -0.00750976 0.858335)
(-0.0159496 0.00464934 0.748939)
(-0.0192783 0.00530988 0.638177)
(-0.0161455 0.0033602 0.524379)
(-0.0118023 0.00163756 0.417226)
(-0.0337676 0.00246551 0.887494)
(-0.0387696 -0.00376625 0.985739)
(-0.0123633 -0.00526936 0.992065)
(-0.00413434 0.00400954 0.835435)
(-0.0180989 0.00450019 0.687992)
(-0.0167181 0.00288535 0.562351)
(-0.0121141 0.0013416 0.445307)
(-0.034706 0.00936018 0.918816)
(-0.0381928 0.0202799 1.00449)
(-0.0120977 0.0216735 1.0009)
(-0.00346307 0.00987243 0.845109)
(-0.0180104 0.0053676 0.699841)
(-0.0165805 0.00285854 0.571562)
(-0.0116217 0.00114127 0.452502)
(-0.0181381 0.00644563 0.842814)
(-0.024416 0.0202323 0.923042)
(-0.0169597 0.0226961 0.91033)
(-0.0147767 0.00775474 0.787799)
(-0.0187582 0.00348246 0.670552)
(-0.0153202 0.00188267 0.549375)
(-0.0101739 0.000675837 0.437088)
(-0.00987664 -0.00449851 0.748562)
(-0.0154014 -0.000713391 0.785081)
(-0.0161199 0.00190073 0.772909)
(-0.0166597 -0.00137253 0.704109)
(-0.0162086 -0.000870989 0.604849)
(-0.0119449 0.000140716 0.501579)
(-0.00742185 -0.000402418 0.402073)
(-0.00234185 0.0107982 0.579878)
(-0.00704266 0.0168241 0.600241)
(-0.0113974 0.0158767 0.584203)
(-0.0132669 0.0120962 0.535667)
(-0.0125891 0.00785567 0.466828)
(-0.0104708 0.00452436 0.390859)
(-0.008154 0.0024825 0.315468)
(-0.00237052 0.0161233 0.733036)
(-0.0103495 0.0236184 0.76558)
(-0.0174964 0.0212007 0.741107)
(-0.020239 0.0159467 0.656875)
(-0.0184961 0.0101575 0.554362)
(-0.0143569 0.00534505 0.456011)
(-0.0104787 0.00239781 0.364865)
(-0.00981731 0.0132384 0.920355)
(-0.0189341 0.0166253 0.986504)
(-0.0201165 0.014751 0.942469)
(-0.0230549 0.0123807 0.793263)
(-0.0239192 0.010025 0.640113)
(-0.0181457 0.00517005 0.513113)
(-0.0124196 0.0021453 0.406137)
(-0.0185655 0.0068564 1.0497)
(-0.0282757 0.00711797 1.00916)
(-0.0233327 0.00777709 0.971359)
(-0.0263839 0.00755491 0.905632)
(-0.0289312 0.00657587 0.698413)
(-0.0213819 0.00332763 0.550721)
(-0.0137623 0.00114151 0.432895)
(-0.0199744 0.00510738 1.01527)
(-0.0298485 0.0102522 1.02842)
(-0.022526 0.0104696 0.992923)
(-0.0251895 0.00622991 0.924021)
(-0.0293799 0.00123607 0.712745)
(-0.0212526 0.000221349 0.559846)
(-0.0132125 -0.00048345 0.439729)
(-0.0110229 -0.00239846 0.981263)
(-0.0204886 0.000293268 1.05152)
(-0.0198452 0.00327097 1.01085)
(-0.0214962 -0.000226627 0.852888)
(-0.0232071 -0.00355713 0.67986)
(-0.0165868 -0.00209423 0.537669)
(-0.0102989 -0.00162956 0.425012)
(-0.00240882 -0.00896773 0.789524)
(-0.0108471 -0.0128332 0.849493)
(-0.0175873 -0.0118502 0.836134)
(-0.0192787 -0.00943982 0.727967)
(-0.0165813 -0.0054654 0.600133)
(-0.0114203 -0.0027485 0.489985)
(-0.00669421 -0.00223781 0.391482)
(-0.00376777 -0.00375327 0.571716)
(-0.00478814 0.00195673 0.590699)
(-0.00718226 0.00161381 0.573906)
(-0.00706019 0.000107209 0.525307)
(-0.00552898 -0.000516026 0.457452)
(-0.00414945 -0.00109802 0.383667)
(-0.00291881 -0.0012894 0.310803)
(-0.00395203 -0.00162801 0.724878)
(-0.00521328 0.0105077 0.767307)
(-0.0104713 0.0077964 0.738412)
(-0.0103837 0.00289163 0.647214)
(-0.00756551 0.000986313 0.542713)
(-0.00521054 -0.00048828 0.445781)
(-0.00342316 -0.00131154 0.357775)
(-0.0109034 -0.000221736 0.924849)
(-0.00866462 0.0140808 0.971509)
(-0.00980993 0.0161136 0.936261)
(-0.0124267 0.00563463 0.801248)
(-0.00925434 0.0032567 0.628796)
(-0.00587096 0.000653091 0.50056)
(-0.00353647 -0.000837874 0.396851)
(-0.00565717 0.00147619 1.03846)
(-0.0127893 0.00485976 0.99409)
(-0.0204485 0.0103252 0.994488)
(-0.0233965 0.00347941 0.898595)
(-0.0145924 0.00311887 0.690999)
(-0.00770019 0.000831801 0.536547)
(-0.00386618 -0.000586744 0.422089)
(-0.0112664 0.00170131 1.05253)
(-0.0141436 0.000384672 1.02246)
(-0.0166012 -0.00048229 0.97656)
(-0.02251 -0.000253358 0.92255)
(-0.0156798 -0.00133146 0.704996)
(-0.00747858 -0.000849334 0.544991)
(-0.003169 -0.00107118 0.428495)
(-0.0128546 0.00352698 0.973671)
(-0.0108736 -0.00254705 1.03761)
(-0.00904386 -0.00723435 1.00603)
(-0.00782702 0.000238859 0.874861)
(-0.00574869 -0.0019308 0.666636)
(-0.00247439 -0.000792648 0.523778)
(-0.000431083 -0.000784666 0.414798)
(-0.00649005 0.00534331 0.778305)
(-0.00569336 -0.000582289 0.853125)
(-0.00764682 -0.0019548 0.830354)
(-0.00567373 0.00200225 0.71539)
(-0.00236411 0.00182644 0.586373)
(-0.000183425 0.00142644 0.47807)
(0.00143846 0.000248734 0.383324)
(-0.00709302 -0.0125682 0.566828)
(-0.00529138 -0.00995771 0.58384)
(-0.00447209 -0.0103532 0.56639)
(-0.00202288 -0.00942785 0.518739)
(-5.15879e-05 -0.00720992 0.452964)
(0.000709951 -0.00559914 0.381531)
(0.00114051 -0.00431307 0.31053)
(-0.00773494 -0.0124677 0.705588)
(-0.00518793 -0.00333365 0.747279)
(-0.0058194 -0.00718646 0.718047)
(-0.00211853 -0.00880781 0.63112)
(0.0010851 -0.00689416 0.532863)
(0.00184641 -0.00545672 0.440708)
(0.00198254 -0.00440395 0.355805)
(-0.00883406 -0.00671308 0.91169)
(-0.00258076 0.00952385 0.972587)
(-0.00563637 0.0036664 0.928503)
(-0.00278955 -0.00300142 0.775322)
(0.00311792 -0.00397074 0.612395)
(0.00380027 -0.00382138 0.492462)
(0.00338991 -0.00355163 0.393206)
(0.00169582 -0.00140029 1.04585)
(-0.00240915 0.00888509 1.09205)
(-0.0156899 0.0075077 1.06754)
(-0.0095022 0.000343735 0.889803)
(0.00180193 -0.000715219 0.671351)
(0.00444973 -0.00152453 0.526582)
(0.00436963 -0.00208326 0.41726)
(0.00204672 -0.000888272 1.0516)
(-0.00326236 -0.00170322 1.00938)
(-0.0172979 -0.00475643 1.08105)
(-0.012962 -0.00299723 0.913239)
(0.000790527 -0.000308929 0.684025)
(0.0048639 -0.000113126 0.534413)
(0.00516229 -0.000798183 0.423329)
(-0.0110099 0.00615949 0.960911)
(-0.00357 -0.00787713 1.02538)
(-0.00609314 -0.00675609 0.993684)
(-0.0010328 0.00215252 0.838681)
(0.00683127 0.00286075 0.644856)
(0.00724612 0.00225501 0.514099)
(0.00648237 0.000841762 0.410305)
(-0.00920114 0.012672 0.754241)
(-0.00407309 0.00612677 0.820677)
(-0.00274588 0.00866138 0.794989)
(0.00237865 0.0116132 0.687599)
(0.00624535 0.00812505 0.572289)
(0.00678291 0.00527858 0.471268)
(0.00671457 0.00250694 0.380376)
(-0.00885161 -0.0124995 0.565002)
(-0.0064208 -0.0124222 0.579571)
(-0.00387691 -0.0121302 0.561572)
(-0.00105366 -0.010155 0.515126)
(0.000645285 -0.00777389 0.451446)
(0.00134801 -0.00607467 0.381628)
(0.00175758 -0.00472268 0.311767)
(-0.0110658 -0.01382 0.686353)
(-0.00727006 -0.0115357 0.718306)
(-0.00421074 -0.012189 0.692723)
(-0.000148742 -0.0110628 0.617172)
(0.00209707 -0.00809846 0.526923)
(0.00255055 -0.00621718 0.438726)
(0.00260531 -0.00493602 0.355822)
(-0.0127105 -0.0101712 0.832083)
(-0.00514264 -0.00371303 0.936604)
(-0.00327271 -0.00594357 0.888785)
(0.0017151 -0.00748262 0.729408)
(0.00534423 -0.00618871 0.598333)
(0.00485167 -0.00497818 0.487861)
(0.00414011 -0.00424433 0.391883)
(-0.00939585 -0.00338831 0.978486)
(-0.00224192 0.00496555 1.09367)
(-0.00808641 0.00177044 1.04198)
(6.21435e-05 -0.00204494 0.840751)
(0.00655576 -0.00226149 0.648383)
(0.00656181 -0.00233293 0.520021)
(0.00548773 -0.00262781 0.414908)
(-0.00713456 0.00178218 0.989391)
(-0.00243905 -0.000111416 1.17047)
(-0.0120313 -0.000347583 1.06696)
(-0.00208528 0.000989108 0.856223)
(0.0068285 0.00133228 0.658811)
(0.00724547 0.000484652 0.527286)
(0.00630485 -0.000745822 0.420607)
(-0.0131998 0.00808351 0.876957)
(-0.00471198 0.00020401 1.00461)
(-0.00374029 0.0041508 0.957621)
(0.00308095 0.00695406 0.770585)
(0.00822262 0.00548834 0.626065)
(0.00764781 0.00335025 0.507863)
(0.00679707 0.00110343 0.407889)
(-0.0110518 0.0134639 0.726409)
(-0.005896 0.0123459 0.77409)
(-0.00220093 0.0142237 0.752069)
(0.00297417 0.0130773 0.664164)
(0.00585128 0.00880441 0.562807)
(0.00645558 0.00548572 0.467367)
(0.00674753 0.00237372 0.379003)
(-0.00788101 -0.0061286 0.564225)
(-0.00707592 -0.00638842 0.576666)
(-0.00501479 -0.00647503 0.557605)
(-0.00290935 -0.00543495 0.511644)
(-0.00149219 -0.00477536 0.449187)
(-0.000345492 -0.00430014 0.380559)
(0.000559931 -0.00370382 0.311818)
(-0.0114877 -0.00616403 0.683638)
(-0.0101686 -0.00758656 0.71059)
(-0.00655616 -0.00821044 0.683578)
(-0.00342387 -0.00599977 0.610004)
(-0.00172634 -0.00493144 0.522483)
(-0.000318507 -0.00445121 0.436149)
(0.000704254 -0.00400778 0.354689)
(-0.0174805 -0.00610369 0.815103)
(-0.0138183 -0.00897488 0.903827)
(-0.00553674 -0.00890161 0.856469)
(-0.000557078 -0.00611081 0.717189)
(-6.44293e-06 -0.00439771 0.590695)
(0.000793293 -0.00392006 0.483464)
(0.00155617 -0.00369961 0.389489)
(-0.0239406 -0.00319123 0.91289)
(-0.018372 -0.00557569 1.08732)
(-0.00578669 -0.00523201 1.02838)
(0.00131954 -0.00239203 0.813132)
(0.0020688 -0.001895 0.638127)
(0.00219538 -0.00216688 0.514063)
(0.00261076 -0.00264666 0.411508)
(-0.026056 0.00239355 0.917661)
(-0.0204112 0.00398421 1.12456)
(-0.00569192 0.00358172 1.06397)
(0.00198999 0.00326433 0.827108)
(0.00254683 0.00145733 0.647792)
(0.00286767 0.000111719 0.520838)
(0.00336601 -0.00123445 0.416775)
(-0.0198761 0.00639918 0.846027)
(-0.0138954 0.0115201 0.961248)
(-0.00330406 0.0111152 0.906077)
(0.00196781 0.00714123 0.754324)
(0.00211925 0.00414433 0.616518)
(0.00300468 0.00205262 0.501962)
(0.00389103 1.45823e-05 0.404285)
(-0.0115047 0.00728565 0.720338)
(-0.00903038 0.0109673 0.763298)
(-0.00473757 0.011537 0.738247)
(-0.00115109 0.00756349 0.65489)
(0.000887258 0.00504586 0.556365)
(0.00291715 0.0030151 0.462838)
(0.00447088 0.000616102 0.376186)
(-0.00527832 -0.00321937 0.562454)
(-0.00571873 -0.00179224 0.573112)
(-0.00504557 -0.0021851 0.553086)
(-0.00383965 -0.00234524 0.506949)
(-0.00253449 -0.00292423 0.445088)
(-0.00110292 -0.00326981 0.37761)
(9.45848e-05 -0.00314438 0.310401)
(-0.00897263 -0.00126186 0.693054)
(-0.00974565 -0.00114426 0.710764)
(-0.00791418 -0.0025728 0.68298)
(-0.0057911 -0.00190348 0.606128)
(-0.00392335 -0.00272254 0.51719)
(-0.00176534 -0.0033436 0.431641)
(-0.000136167 -0.00347504 0.351835)
(-0.0171174 -0.00279663 0.831793)
(-0.0170472 -0.00607119 0.893747)
(-0.00834078 -0.007799 0.841849)
(-0.00413835 -0.00329202 0.713736)
(-0.00365483 -0.00278745 0.58466)
(-0.00147599 -0.00316839 0.477555)
(0.000284706 -0.00338058 0.38536)
(-0.0280076 -0.00192061 0.955148)
(-0.0252122 -0.0052971 1.00443)
(-0.00791702 -0.00628586 0.96145)
(-9.93921e-05 -0.00194337 0.795322)
(-0.00219215 -0.00166825 0.629777)
(-0.000591112 -0.00222478 0.506951)
(0.00104569 -0.00279898 0.406405)
(-0.0302055 0.00338686 0.970649)
(-0.0255337 0.00550602 1.00691)
(-0.00734777 0.00549051 0.963005)
(0.000857235 0.0022012 0.809609)
(-0.00181822 0.000274023 0.639319)
(2.66066e-05 -0.000832465 0.513303)
(0.00177217 -0.0019536 0.411279)
(-0.0194968 0.00376691 0.862218)
(-0.0169048 0.0081219 0.941982)
(-0.00568792 0.00959648 0.890201)
(-0.00157642 0.00383858 0.753187)
(-0.00179788 0.00150985 0.610822)
(0.000672791 0.000279557 0.494825)
(0.00255422 -0.00119059 0.399025)
(-0.00905009 0.00187195 0.730722)
(-0.00895542 0.00326364 0.767708)
(-0.00657311 0.0040799 0.745143)
(-0.00381214 0.0020145 0.6534)
(-0.00128963 0.00165691 0.549608)
(0.00151658 0.000808819 0.456332)
(0.00358183 -0.000841467 0.371667)
(-0.00260356 -0.00563632 0.558925)
(-0.00288974 -0.0020741 0.568659)
(-0.00347397 -0.0022977 0.547727)
(-0.00277762 -0.00297128 0.501568)
(-0.0014583 -0.00345963 0.440492)
(-0.000147346 -0.00367161 0.374389)
(0.000907309 -0.00345754 0.309032)
(-0.00413601 -0.00451768 0.692078)
(-0.00491243 0.00128446 0.713944)
(-0.00610097 -0.000384541 0.681535)
(-0.00483584 -0.00210254 0.600017)
(-0.00259949 -0.00313211 0.510864)
(-0.000588286 -0.00371977 0.426519)
(0.000817443 -0.00379031 0.348871)
(-0.0118362 -0.00584924 0.868267)
(-0.0100025 0.000443817 0.898077)
(-0.00556056 -0.00118538 0.85035)
(-0.00399751 -0.00198881 0.713694)
(-0.00231422 -0.00264752 0.577787)
(-0.000200072 -0.00336615 0.470826)
(0.00129589 -0.00366059 0.381079)
(-0.0136831 -0.0029624 0.955068)
(-0.0115376 -0.00148853 0.975198)
(-0.0051261 -0.00188166 0.914746)
(-0.00314306 -0.00204378 0.795975)
(-0.00216421 -0.00199568 0.623428)
(0.000246684 -0.00263736 0.499138)
(0.00191081 -0.00317774 0.401235)
(-0.0136886 0.0024843 0.964951)
(-0.0117114 0.00210073 0.986152)
(-0.00543897 -0.000331597 0.926974)
(-0.00374458 -0.00125669 0.810879)
(-0.00206228 -0.0015166 0.632347)
(0.000824268 -0.00189221 0.504944)
(0.00263527 -0.00258466 0.405722)
(-0.0132025 0.00402238 0.899634)
(-0.00943972 -0.000799931 0.936716)
(-0.00382493 -0.000912308 0.897128)
(-0.00206078 -0.000551117 0.755644)
(-0.000189359 -0.000660997 0.60157)
(0.00214591 -0.000952195 0.4867)
(0.00364385 -0.00187522 0.393693)
(-0.0046373 0.00264486 0.726053)
(-0.00408871 -0.00147417 0.767827)
(-0.00420209 -0.000869647 0.738641)
(-0.00197553 0.000361185 0.643406)
(0.000685986 0.000583885 0.540262)
(0.00296597 3.36002e-05 0.449114)
(0.00458134 -0.00130034 0.36712)
(-0.00192498 -0.00779 0.555813)
(-0.00173809 -0.00448751 0.564661)
(-0.00213541 -0.00518453 0.54345)
(-0.00106446 -0.00521636 0.497359)
(0.000239744 -0.00487994 0.437014)
(0.00126545 -0.0045537 0.372325)
(0.00205618 -0.00403899 0.308669)
(-0.00197493 -0.00793985 0.684534)
(-0.00195671 -0.000915906 0.707669)
(-0.00360985 -0.0041698 0.674145)
(-0.0019002 -0.00496149 0.593358)
(4.49616e-05 -0.00479216 0.50526)
(0.00138554 -0.00470688 0.42265)
(0.002282 -0.00439611 0.347105)
(-0.00576737 -0.00713542 0.85276)
(-0.00113452 0.00156404 0.89052)
(-7.82365e-05 -0.00165913 0.842804)
(-0.000459041 -0.00348188 0.704537)
(0.0011873 -0.00388418 0.57025)
(0.00231057 -0.00421732 0.465401)
(0.00306594 -0.00420678 0.378112)
(-0.000811282 -0.00492488 0.951192)
(0.000777359 -0.00220823 0.954573)
(-0.0010171 -0.00248477 0.941653)
(-0.00197887 -0.00292993 0.790872)
(0.0012968 -0.00295299 0.614482)
(0.00295782 -0.00330389 0.492577)
(0.0038278 -0.00360097 0.397388)
(-0.0013703 -0.00182325 0.967544)
(0.000696771 -0.00249036 0.974646)
(-0.000812062 -0.00467139 0.945192)
(-0.00181544 -0.0033452 0.80083)
(0.00194058 -0.00237025 0.622262)
(0.0036985 -0.00237524 0.497811)
(0.00458625 -0.00284608 0.401456)
(-0.00719188 0.00286049 0.881397)
(-0.000957054 -0.00348164 0.930238)
(0.00106442 -0.00357013 0.885206)
(0.00141832 -0.001155 0.741304)
(0.00364172 -0.000778331 0.591383)
(0.00472557 -0.00104225 0.479726)
(0.00536814 -0.00190607 0.389532)
(-0.00244668 0.00404136 0.712922)
(-0.000675268 -0.000901166 0.754423)
(-0.00125238 0.00129229 0.723315)
(0.00106835 0.00208223 0.630719)
(0.00331493 0.00122227 0.531271)
(0.0048382 0.000291319 0.443)
(0.00584695 -0.00111179 0.363601)
(-0.00237036 -0.00690071 0.553061)
(-0.00217689 -0.00519583 0.561533)
(-0.00184659 -0.00590435 0.540048)
(-0.000409119 -0.00564843 0.493873)
(0.000895068 -0.005171 0.434316)
(0.0018953 -0.00478493 0.370977)
(0.00263585 -0.0042143 0.308851)
(-0.00243835 -0.00668466 0.67768)
(-0.00275578 -0.00284178 0.702836)
(-0.00319633 -0.00574855 0.668585)
(-0.000964634 -0.00566836 0.587655)
(0.000824892 -0.005191 0.500605)
(0.00208899 -0.0049775 0.419674)
(0.00294572 -0.00458594 0.346008)
(-0.00389858 -0.0048552 0.82796)
(-0.00131112 0.00153178 0.88784)
(-0.00101405 -0.00363171 0.836808)
(0.000538187 -0.00444403 0.695293)
(0.00203966 -0.00443986 0.563733)
(0.00310575 -0.00456607 0.460976)
(0.00379837 -0.0044211 0.375899)
(-0.000125014 -0.00430765 0.925382)
(0.000360637 -0.00137538 0.980956)
(-0.00400797 -0.00352065 0.94208)
(-0.000952765 -0.00338569 0.780355)
(0.00259558 -0.00339127 0.606709)
(0.00394942 -0.00361218 0.487112)
(0.00464355 -0.00377114 0.394361)
(-0.000186103 -0.00421944 0.918154)
(0.00119846 -0.0049082 0.965092)
(-0.00337104 -0.00462655 0.945379)
(-0.000643638 -0.00349213 0.788096)
(0.0032653 -0.00258033 0.613593)
(0.00465647 -0.00250611 0.491806)
(0.00534511 -0.00289669 0.397993)
(-0.00528926 -0.0015777 0.850255)
(-0.000845355 -0.00672773 0.918014)
(0.000614522 -0.00191284 0.871099)
(0.00264899 -0.001065 0.723631)
(0.00434604 -0.0008572 0.582212)
(0.00529695 -0.00108182 0.473663)
(0.00587334 -0.0018901 0.386061)
(-0.00239219 0.00135299 0.700301)
(-0.00164955 -0.00117157 0.739745)
(-0.00125993 0.00234927 0.708414)
(0.00163371 0.00201509 0.619627)
(0.00370999 0.00103613 0.52339)
(0.00516354 0.000190621 0.437693)
(0.00612456 -0.00110334 0.360645)
(-0.00291146 -0.00661661 0.550333)
(-0.00242444 -0.00602691 0.558064)
(-0.00130722 -0.00624735 0.536187)
(0.000269411 -0.00574917 0.49005)
(0.00152475 -0.00527876 0.431562)
(0.00247249 -0.00488906 0.369683)
(0.00312769 -0.0042909 0.309119)
(-0.00466296 -0.00542433 0.675634)
(-0.00460552 -0.0053608 0.699691)
(-0.00275691 -0.00653006 0.663158)
(-0.000216174 -0.00586625 0.582141)
(0.00140394 -0.00528132 0.495909)
(0.00270562 -0.00509517 0.416745)
(0.00351025 -0.00465564 0.345003)
(-0.00884662 -0.00379408 0.821311)
(-0.00742199 -0.00419151 0.880191)
(-0.00264753 -0.00636782 0.824325)
(0.00134529 -0.00543442 0.687108)
(0.00261048 -0.00477523 0.557218)
(0.00373161 -0.00475743 0.456515)
(0.00441038 -0.00451582 0.373747)
(-0.0116076 -0.00261574 0.917011)
(-0.0100185 -0.00315994 1.00058)
(-0.00454561 -0.00429718 0.947764)
(0.00208049 -0.00350727 0.769717)
(0.00380025 -0.00355648 0.598822)
(0.00477887 -0.00372583 0.481519)
(0.00531825 -0.00382384 0.391356)
(-0.0118997 -0.0032615 0.911872)
(-0.0103914 -0.00272154 1.0226)
(-0.00531452 -0.00206135 0.940936)
(0.00168033 -0.00208538 0.775118)
(0.00411563 -0.0022707 0.604734)
(0.00531846 -0.00240722 0.485623)
(0.00591581 -0.00283522 0.394536)
(-0.00971098 -0.00346672 0.838031)
(-0.0066684 -0.00321218 0.906335)
(-0.00158161 -0.000251415 0.851045)
(0.00261939 -0.000488165 0.711297)
(0.00425329 -0.000764225 0.573215)
(0.00553449 -0.0010264 0.46756)
(0.00619672 -0.00182222 0.382617)
(-0.0039678 -0.000252808 0.691675)
(-0.00318763 0.000162205 0.728111)
(-0.00124043 0.00167045 0.696641)
(0.00166729 0.00122083 0.609521)
(0.00374302 0.000659662 0.515553)
(0.00531378 4.55246e-05 0.432381)
(0.00628707 -0.00110198 0.357723)
(-0.0022331 -0.00819532 0.547277)
(-0.0012435 -0.00718168 0.554194)
(-5.75841e-05 -0.00698756 0.531966)
(0.00138205 -0.0063744 0.486393)
(0.00249691 -0.0056806 0.429195)
(0.00323781 -0.00511687 0.368805)
(0.0037097 -0.00441626 0.309738)
(-0.00460746 -0.00728732 0.673452)
(-0.00359365 -0.00627882 0.693011)
(-0.00127957 -0.00704223 0.656693)
(0.00107635 -0.0065 0.576431)
(0.00267897 -0.00577561 0.49153)
(0.00371016 -0.00536512 0.414283)
(0.00423841 -0.00477419 0.344413)
(-0.011082 -0.00667033 0.827325)
(-0.00828431 -0.0073096 0.866949)
(-0.00103973 -0.00846767 0.809604)
(0.00299608 -0.0065362 0.679669)
(0.00421681 -0.00531587 0.550806)
(0.00498402 -0.00503586 0.452542)
(0.00525667 -0.00462237 0.372048)
(-0.015852 -0.00446008 0.923862)
(-0.0119552 -0.00584644 0.956289)
(-0.00177544 -0.00576485 0.886778)
(0.00497433 -0.00459338 0.75444)
(0.00571216 -0.00395491 0.59052)
(0.0061582 -0.00392172 0.476323)
(0.00623409 -0.00387946 0.388795)
(-0.0167524 -0.00171565 0.927888)
(-0.0115297 -0.00125562 0.954166)
(-0.00140829 -0.00118659 0.902924)
(0.00500944 -0.00160333 0.763593)
(0.00603842 -0.00219766 0.595818)
(0.00668987 -0.00239358 0.479822)
(0.00679855 -0.00279453 0.39151)
(-0.0121629 -0.000138272 0.834438)
(-0.00765839 0.000104412 0.886944)
(-7.89089e-05 0.00098801 0.836284)
(0.00404296 0.000238943 0.701479)
(0.00573746 -0.000465939 0.564348)
(0.00663541 -0.000894081 0.461906)
(0.006916 -0.00170914 0.379613)
(-0.00393488 0.00158324 0.683386)
(-0.00225388 0.000632245 0.715925)
(0.000120933 0.00136415 0.684717)
(0.00284232 0.00142529 0.599436)
(0.00481255 0.000849916 0.50801)
(0.00610062 0.000169105 0.427508)
(0.00677278 -0.000952539 0.355219)
(-0.000819804 -0.00981614 0.544957)
(0.000511154 -0.00798841 0.5511)
(0.00121291 -0.00765599 0.528898)
(0.00237229 -0.00681121 0.484007)
(0.00324313 -0.0058304 0.427942)
(0.00372131 -0.00511198 0.368788)
(0.00402836 -0.00436134 0.310945)
(-0.00174869 -0.01009 0.667781)
(-0.000108929 -0.00630492 0.68566)
(0.000674342 -0.00708403 0.649993)
(0.00245211 -0.00702235 0.571452)
(0.00378023 -0.00604259 0.488509)
(0.00437621 -0.00542473 0.412931)
(0.00463083 -0.00472413 0.344594)
(-0.00632972 -0.00969773 0.823805)
(-0.00149155 -0.00539883 0.855654)
(0.00271219 -0.00598467 0.799454)
(0.0041729 -0.00624572 0.67183)
(0.00564705 -0.00550826 0.546004)
(0.00580582 -0.00509531 0.449902)
(0.00569854 -0.00457733 0.371272)
(-0.00653055 -0.0064805 0.91574)
(-0.00140329 -0.0052838 0.932669)
(0.00313523 -0.00574208 0.862246)
(0.00468412 -0.00514385 0.742574)
(0.00675594 -0.00427531 0.583803)
(0.00697372 -0.00402529 0.472608)
(0.00666523 -0.00385258 0.387242)
(-0.00705381 -0.0016076 0.920037)
(-0.00204228 -0.00335921 0.935786)
(0.00294441 -0.00447146 0.875569)
(0.00530667 -0.00317561 0.749019)
(0.00745393 -0.00256973 0.588006)
(0.00757126 -0.00252441 0.475447)
(0.00723412 -0.00278761 0.3895)
(-0.00794854 0.002274 0.831011)
(-0.00215139 -0.00263113 0.870504)
(0.00309801 -0.00189742 0.819906)
(0.00558196 -0.000437649 0.689209)
(0.00740031 -0.000548698 0.556854)
(0.00750189 -0.000932634 0.457568)
(0.00730856 -0.00167379 0.377572)
(-0.00168947 0.00354752 0.673353)
(0.000844343 0.000286595 0.702278)
(0.00207153 0.0015207 0.671774)
(0.00430397 0.00191973 0.589893)
(0.00593207 0.00101605 0.501716)
(0.00668864 0.000212207 0.423798)
(0.00699948 -0.000868514 0.353566)
(-0.000147478 -0.00878097 0.543677)
(0.000945689 -0.00734906 0.549462)
(0.00154636 -0.00706203 0.5275)
(0.00247853 -0.00592805 0.483046)
(0.00304272 -0.00498489 0.427704)
(0.00339886 -0.00441593 0.369348)
(0.00368476 -0.00382778 0.312379)
(-2.23218e-05 -0.00975799 0.659135)
(0.00125529 -0.00650742 0.6772)
(0.00156288 -0.00744564 0.644)
(0.00285915 -0.00645258 0.568288)
(0.00355772 -0.00531641 0.486993)
(0.0039032 -0.00478379 0.412503)
(0.00414779 -0.00421191 0.345213)
(-0.00141086 -0.00917435 0.803676)
(0.00309687 -0.00487035 0.841734)
(0.00445377 -0.00589057 0.792457)
(0.00476356 -0.00556495 0.661821)
(0.00537883 -0.00493421 0.542847)
(0.00515102 -0.00460055 0.448406)
(0.00505999 -0.0041551 0.371102)
(0.00139782 -0.00699096 0.884972)
(0.00586195 -0.00498658 0.91427)
(0.0052294 -0.00566527 0.886685)
(0.0042653 -0.0046733 0.73193)
(0.00629737 -0.00402094 0.578884)
(0.00613379 -0.00377268 0.470126)
(0.00588776 -0.00360235 0.386379)
(0.00109427 -0.0034916 0.888302)
(0.0051978 -0.0045308 0.913842)
(0.00498373 -0.00538292 0.875897)
(0.00472749 -0.00363149 0.733887)
(0.00692148 -0.00281808 0.581946)
(0.00668516 -0.0026209 0.472374)
(0.00639379 -0.00276005 0.388198)
(-0.00294277 0.000882623 0.805602)
(0.00271687 -0.00323237 0.85034)
(0.00504711 -0.00257861 0.803734)
(0.00612665 -0.00102382 0.671956)
(0.00705196 -0.00106078 0.551162)
(0.00671055 -0.00129011 0.454428)
(0.00651493 -0.00182892 0.376176)
(-0.000118124 0.00263236 0.659414)
(0.0019637 0.000460967 0.684637)
(0.0026603 0.0018925 0.656621)
(0.00434896 0.00139582 0.581368)
(0.00543823 0.000348294 0.496995)
(0.00598412 -0.000297455 0.421129)
(0.0062738 -0.00114872 0.352422)
(0.000232691 -0.00496574 0.542913)
(0.000380172 -0.00403808 0.548863)
(0.000756765 -0.00386985 0.526866)
(0.00136602 -0.00321143 0.482331)
(0.00181813 -0.00309835 0.427222)
(0.00237565 -0.0031382 0.369384)
(0.00285066 -0.00295502 0.3132)
(0.000360301 -0.00560274 0.65675)
(-1.72017e-05 -0.00452642 0.675311)
(0.000209984 -0.00523611 0.642354)
(0.00104794 -0.00386365 0.567678)
(0.00148903 -0.00339146 0.486027)
(0.00230768 -0.00350764 0.411801)
(0.00297603 -0.0033661 0.345292)
(-0.00106501 -0.00561719 0.783392)
(0.000469513 -0.00443317 0.83687)
(0.00180055 -0.00598198 0.782111)
(0.00295075 -0.00428871 0.659571)
(0.00260803 -0.00355871 0.541594)
(0.00299112 -0.00362517 0.446947)
(0.00355273 -0.00347982 0.370491)
(-0.00134115 -0.00551976 0.858316)
(0.000540061 -0.00500841 0.927918)
(0.00123291 -0.00523196 0.880027)
(0.00293617 -0.00392661 0.726509)
(0.00355187 -0.00338508 0.576503)
(0.00370523 -0.0033072 0.46793)
(0.00417059 -0.00322712 0.385173)
(-0.00153162 -0.00457589 0.850877)
(0.000914637 -0.00455559 0.92628)
(0.00143311 -0.0034972 0.87524)
(0.00306516 -0.00333216 0.725211)
(0.00403699 -0.00303947 0.578858)
(0.00417201 -0.00273909 0.469586)
(0.00461857 -0.00273763 0.386569)
(-0.00189512 -0.00279835 0.781845)
(0.000808899 -0.00372843 0.838398)
(0.00252441 -0.00221539 0.784038)
(0.00405264 -0.00213741 0.666201)
(0.00396198 -0.00222998 0.547154)
(0.00436657 -0.00197153 0.451369)
(0.00483415 -0.00215184 0.374388)
(0.000346491 -0.00105167 0.652447)
(0.000783078 -0.0011965 0.677275)
(0.0012119 -0.000391202 0.650026)
(0.00234068 -0.00129763 0.576033)
(0.00322866 -0.00143042 0.492967)
(0.00418818 -0.00137129 0.418243)
(0.00488581 -0.00173752 0.350801)
(-0.00106257 -0.000850157 0.0375788)
(-0.000714784 -0.000500801 0.00481668)
(0.00182391 -0.00277035 0.197599)
(0.00047542 -0.00241751 0.146817)
(-0.00038063 -0.0023048 0.10437)
(-0.000859771 -0.00236124 0.0686462)
(-0.00107336 -0.00251253 0.0370587)
(-0.00101081 -0.00270328 0.0019938)
(0.00978573 -0.00152051 0.352623)
(0.00616815 -0.00150116 0.276713)
(0.00367258 -0.00167778 0.212394)
(0.00194293 -0.00206684 0.15854)
(0.000816882 -0.0026178 0.113737)
(0.00015976 -0.00327261 0.0762697)
(-0.000191305 -0.00400395 0.0434225)
(-0.000244388 -0.00477503 0.00713493)
(0.0109335 0.00259852 0.360156)
(0.00739223 0.00128694 0.285779)
(0.00493249 9.36836e-05 0.222579)
(0.00324905 -0.00113877 0.169496)
(0.00218426 -0.00238058 0.125225)
(0.00157995 -0.00362264 0.0881288)
(0.00130733 -0.00487001 0.0554874)
(0.00131825 -0.00613148 0.0190462)
(0.0102441 0.00625138 0.350771)
(0.00726398 0.003868 0.284194)
(0.00530276 0.00187712 0.227066)
(0.00406045 3.48901e-05 0.178521)
(0.00333141 -0.00168563 0.137606)
(0.00299003 -0.00331203 0.102947)
(0.00294038 -0.00487734 0.0719961)
(0.00316029 -0.00641986 0.0365391)
(0.00869392 0.00811078 0.327213)
(0.00685146 0.00539108 0.274732)
(0.00553853 0.00304203 0.227378)
(0.00479104 0.000915228 0.185987)
(0.00442518 -0.0010337 0.150394)
(0.0043777 -0.00284086 0.11965)
(0.00461014 -0.00456025 0.0914613)
(0.00513964 -0.00628813 0.0578503)
(-0.00268478 -0.00203779 0.26057)
(-0.00257023 -0.00135205 0.212371)
(-0.00236876 -0.000797589 0.169435)
(-0.00204143 -0.000295203 0.132057)
(-0.00158728 0.000151555 0.0998564)
(-0.0010059 0.000557047 0.0719283)
(-0.000324227 0.000990563 0.0463614)
(0.000606722 0.00154912 0.0167655)
(-0.00238404 -0.0023568 0.298732)
(-0.0025344 -0.00171046 0.236676)
(-0.0025474 -0.00139548 0.183717)
(-0.00245997 -0.00116629 0.138703)
(-0.00225448 -0.00101329 0.100553)
(-0.00192863 -0.000920712 0.0679421)
(-0.00153787 -0.00083694 0.038612)
(-0.000946091 -0.00071709 0.00546456)
(-0.00116323 -0.00200932 0.331671)
(-0.00161067 -0.00176426 0.260306)
(-0.00186933 -0.00178659 0.199774)
(-0.00199084 -0.00192487 0.148859)
(-0.00198399 -0.00215261 0.106186)
(-0.00184013 -0.00245408 0.07017)
(-0.00162572 -0.0027911 0.0382675)
(-0.00120729 -0.00310663 0.00281002)
(0.000308439 -0.000645494 0.354392)
(-0.000342613 -0.0010731 0.278621)
(-0.000737134 -0.00162555 0.214369)
(-0.000967121 -0.00228305 0.160494)
(-0.00103002 -0.00301142 0.115563)
(-0.000945396 -0.00378997 0.0778743)
(-0.000784674 -0.00460088 0.0447288)