/*--------------------------------*- C++ -*----------------------------------*\
| =========                 |                                                 |
| \\      /  F ield         | OpenFOAM: The Open Source CFD Toolbox           |
|  \\    /   O peration     | Version:  plus.master                           |
|   \\  /    A nd           | Web:      www.OpenFOAM.com                      |
|    \\/     M anipulation  |                                                 |
\*---------------------------------------------------------------------------*/
FoamFile
{
    version     2.0;
    format      ascii;
    class       scalarField;
    location    "5/lagrangian/kinematicCloud";
    object      age;
}
// * * * * * * * * * * * * * * * * * * * * * * * * * * * * * * * * * * * * * //


96597
(
5.00119
5.00117
5.00115
5.00113
5.00111
5.00109
5.00107
5.00106
5.00104
5.001
5.00098
5.00096
5.00095
5.00093
5.00091
5.00088
5.00086
5.00084
5.00083
5.00081
5.00079
5.00078
5.00076
5.00075
5.00073
5.00068
5.00067
5.00065
5.00064
5.00063
5.00061
5.0006
5.00058
5.00057
5.00056
5.00054
5.00053
5.00052
5.0005
5.00049
5.00048
5.00047
5.00045
5.00044
5.00043
5.00042
5.00041
5.00039
5.00038
5.00037
5.00036
5.00035
5.00034
5.00033
5.00032
5.0003
5.00029
5.00028
5.00027
5.00026
5.00025
5.00024
5.00023
5.00022
5.00022
5.0002
5.00018
5.00017
5.00017
5.00015
5.00015
5.00014
5.00013
5.00013
5.00012
5.00011
5.00011
5.0001
5.00009
5.00008
5.00008
5.00007
5.00007
5.00006
5.00006
5.00006
5.00005
5.00005
5.00004
5.00004
5.00004
5.00003
5.00003
5.00003
5.00002
5.00002
5.00002
5.00001
5.00001
5.00001
5.00001
5
5
5
5
5.00023
5.00021
5.00019
5.00015
5.00011
5.00008
5.00006
5.00004
5.00002
5
4.99998
4.99997
4.99993
4.99991
4.99989
4.99986
4.99984
4.99983
4.99981
4.99979
4.99978
4.99976
4.99974
4.99973
4.99971
4.9997
4.99968
4.99967
4.99965
4.99963
4.9996
4.99959
4.99958
4.99956
4.99953
4.99952
4.99949
4.99948
4.99944
4.99942
4.99941
4.9994
4.99938
4.99936
4.99934
4.99932
4.99931
4.9993
4.99929
4.99927
4.99925
4.99924
4.99922
4.9992
4.99919
4.99918
4.99917
4.99916
4.99915
4.99914
4.99913
4.99912
4.99911
4.9991
4.99909
4.99909
4.99907
4.99906
4.99905
4.99904
4.99904
4.99902
4.99901
4.999
4.999
4.99899
4.99898
4.99898
4.99897
4.99896
4.99894
4.99893
4.99892
4.99892
4.99891
4.9989
4.99889
4.99889
4.99889
4.99888
4.99887
4.99887
4.99886
4.99886
4.99886
4.99885
4.99885
4.99884
4.99884
4.99883
4.99883
4.99883
4.99883
4.99883
4.99882
4.99882
4.99882
4.99882
4.99882
4.99882
4.99881
4.99881
4.99881
4.99881
4.99881
4.99881
4.99881
4.99909
4.99907
4.99905
4.99903
4.99901
4.99899
4.99897
4.99895
4.99894
4.99892
4.9989
4.99888
4.99886
4.99884
4.99881
4.99879
4.99877
4.99875
4.99873
4.99872
4.9987
4.99868
4.99866
4.99865
4.99863
4.99861
4.9986
4.99858
4.99856
4.99855
4.99853
4.9985
4.99845
4.99843
4.99842
4.9984
4.99839
4.99837
4.99836
4.99834
4.99831
4.9983
4.99827
4.99826
4.99824
4.99823
4.99821
4.99819
4.99817
4.99816
4.99815
4.99813
4.99812
4.99809
4.99807
4.99806
4.99804
4.99803
4.99802
4.99801
4.99799
4.99797
4.99796
4.99795
4.99794
4.99793
4.99791
4.9979
4.99789
4.99788
4.99787
4.99786
4.99785
4.99784
4.99783
4.99781
4.9978
4.99779
4.99778
4.99777
4.99776
4.99775
4.99774
4.99773
4.99772
4.99771
4.99769
4.99768
4.99767
4.99767
4.99766
4.99765
4.99764
4.99763
4.99762
4.99761
4.99761
4.9976
4.99759
4.99759
4.99758
4.99757
4.99757
4.99756
4.99755
4.99755
4.99754
4.99753
4.99753
4.99752
4.99752
4.99751
4.99751
4.9975
4.9975
4.99749
4.99749
4.99748
4.99748
4.99747
4.99747
4.99746
4.99746
4.99746
4.99745
4.99745
4.99744
4.99744
4.99744
4.99743
4.99742
4.99742
4.99742
4.99742
4.99741
4.99741
4.99741
4.9974
4.9974
4.9974
4.9974
4.9974
4.9974
4.99739
4.99739
4.99739
4.99739
4.99773
4.99771
4.99769
4.99767
4.99765
4.99763
4.99761
4.99759
4.99757
4.99755
4.99753
4.99751
4.99747
4.99742
4.9974
4.99738
4.99736
4.99735
4.99733
4.99731
4.99729
4.99727
4.99726
4.99724
4.99722
4.99721
4.99719
4.99717
4.99715
4.99714
4.99712
4.99709
4.99707
4.99705
4.99704
4.99702
4.99701
4.99699
4.99697
4.99696
4.99694
4.99693
4.99691
4.9969
4.99688
4.99686
4.99685
4.99683
4.99682
4.9968
4.99679
4.99678
4.99676
4.99675
4.99673
4.99672
4.99669
4.99668
4.99666
4.99663
4.99662
4.99661
4.99659
4.99658
4.99657
4.99655
4.99652
4.9965
4.99649
4.99648
4.99647
4.99645
4.99644
4.99643
4.99642
4.9964
4.99639
4.99638
4.99637
4.99636
4.99635
4.99634
4.99632
4.9963
4.99629
4.99628
4.99627
4.99625
4.99624
4.99623
4.99622
4.99621
4.99619
4.99618
4.99617
4.99615
4.99614
4.99613
4.99612
4.99611
4.9961
4.99609
4.99608
4.99607
4.99606
4.99605
4.99604
4.99603
4.99603
4.99602
4.99601
4.99599
4.99598
4.99597
4.99596
4.99596
4.99595
4.99593
4.99593
4.99591
4.99591
4.9959
4.99589
4.99589
4.99588
4.99588
4.99587
4.99586
4.99586
4.99585
4.99585
4.99584
4.99584
4.99583
4.99582
4.99582
4.99581
4.99581
4.9958
4.9958
4.99579
4.99579
4.99578
4.99578
4.99577
4.99577
4.99577
4.99576
4.99576
4.99575
4.99575
4.99575
4.99574
4.99574
4.99574
4.99573
4.99573
4.99573
4.99573
4.99572
4.99572
4.99572
4.99572
4.99571
4.99571
4.99571
4.9957
4.9957
4.9957
4.9957
4.9957
4.99569
4.99569
4.99569
4.99569
4.99569
4.99569
4.99569
4.99569
4.99569
4.99569
4.99569
4.99607
4.99605
4.99603
4.99601
4.99599
4.99597
4.99595
4.99593
4.99591
4.99587
4.99586
4.99584
4.99582
4.9958
4.99578
4.99576
4.99574
4.99572
4.99571
4.99569
4.99567
4.99565
4.99563
4.99562
4.9956
4.99558
4.99556
4.99554
4.99553
4.99551
4.99549
4.99544
4.99542
4.99541
4.99539
4.99537
4.99536
4.99534
4.99532
4.99531
4.99529
4.99527
4.99524
4.99522
4.99521
4.99519
4.99518
4.99516
4.99514
4.99513
4.99511
4.9951
4.99508
4.99507
4.99505
4.99504
4.99502
4.99501
4.99499
4.99498
4.99496
4.99493
4.9949
4.99489
4.99488
4.99486
4.99485
4.99483
4.99482
4.99481
4.99479
4.99478
4.99477
4.99475
4.99474
4.99473
4.99471
4.9947
4.99469
4.99467
4.99466
4.99465
4.99463
4.99462
4.9946
4.99458
4.99457
4.99455
4.99454
4.99452
4.9945
4.99449
4.99448
4.99446
4.99445
4.99444
4.99443
4.99442
4.99441
4.9944
4.99439
4.99437
4.99436
4.99434
4.99433
4.99432
4.9943
4.99429
4.99426
4.99425
4.99424
4.99422
4.99421
4.9942
4.99419
4.99418
4.99417
4.99416
4.99415
4.99414
4.99413
4.99412
4.99411
4.99408
4.99408
4.99407
4.99405
4.99404
4.99404
4.99403
4.99402
4.99401
4.994
4.994
4.99399
4.99398
4.99397
4.99397
4.99396
4.99395
4.99395
4.99393
4.99393
4.99392
4.99391
4.9939
4.99389
4.99389
4.99388
4.99387
4.99386
4.99386
4.99385
4.99384
4.99384
4.99383
4.99383
4.99382
4.99382
4.99381
4.99381
4.9938
4.9938
4.99379
4.99379
4.99378
4.99377
4.99376
4.99376
4.99376
4.99375
4.99375
4.99374
4.99374
4.99373
4.99373
4.99373
4.99372
4.99372
4.99371
4.99371
4.99371
4.99371
4.9937
4.9937
4.99369
4.99369
4.99368
4.99368
4.99368
4.99368
4.99368
4.99367
4.99367
4.99367
4.99366
4.99366
4.99366
4.99366
4.99366
4.99366
4.99366
4.99366
4.99365
4.99365
4.99365
4.99365
4.99365
4.99365
4.99365
4.99365
4.99413
4.99411
4.99409
4.99407
4.99405
4.99403
4.99401
4.99399
4.99393
4.99391
4.99387
4.99385
4.99382
4.9938
4.99376
4.99374
4.99372
4.99367
4.99365
4.99363
4.99361
4.99359
4.99358
4.99356
4.99354
4.99352
4.9935
4.99349
4.99347
4.99345
4.99342
4.9934
4.99338
4.99336
4.99335
4.99333
4.99331
4.9933
4.99328
4.99326
4.99325
4.99323
4.99321
4.9932
4.99318
4.99316
4.99315
4.99313
4.99312
4.9931
4.99307
4.99305
4.99304
4.99302
4.993
4.99299
4.99297
4.99296
4.99294
4.99293
4.9929
4.99288
4.99287
4.99285
4.99284
4.99282
4.99281
4.99279
4.99278
4.99276
4.99275
4.99273
4.99272
4.99269
4.99268
4.99266
4.99265
4.99263
4.99262
4.99261
4.99259
4.99258
4.99257
4.99255
4.99254
4.99253
4.99251
4.9925
4.99249
4.99247
4.99246
4.99243
4.99242
4.99241
4.9924
4.99238
4.99237
4.99233
4.99232
4.99231
4.9923
4.99228
4.99226
4.99225
4.99224
4.99222
4.99221
4.9922
4.99219
4.99218
4.99216
4.99214
4.99213
4.99212
4.99211
4.9921
4.99207
4.99206
4.99205
4.99202
4.99201
4.992
4.99199
4.99198
4.99196
4.99193
4.99192
4.9919
4.99189
4.99188
4.99188
4.99187
4.99186
4.99185
4.99184
4.99182
4.99181
4.9918
4.99179
4.99178
4.99177
4.99176
4.99175
4.99174
4.99173
4.99172
4.99172
4.99171
4.99169
4.99168
4.99168
4.99165
4.99165
4.99163
4.99162
4.99162
4.99161
4.99159
4.99158
4.99157
4.99155
4.99154
4.99153
4.99153
4.99152
4.99151
4.99151
4.9915
4.9915
4.99149
4.99148
4.99148
4.99147
4.99147
4.99146
4.99145
4.99144
4.99144
4.99143
4.99143
4.99142
4.99141
4.99141
4.9914
4.9914
4.99139
4.99139
4.99138
4.99138
4.99137
4.99137
4.99136
4.99136
4.99135
4.99134
4.99133
4.99133
4.99133
4.99132
4.99131
4.99131
4.9913
4.9913
4.9913
4.9913
4.99129
4.99129
4.99128
4.99128
4.99128
4.99128
4.99127
4.99127
4.99127
4.99126
4.99126
4.99126
4.99126
4.99126
4.99125
4.99125
4.99125
4.99124
4.99124
4.99124
4.99124
4.99124
4.99124
4.99123
4.99123
4.99123
4.99123
4.99123
4.99123
4.99123
4.99123
4.99123
4.99123
4.99123
4.99123
4.99176
4.99174
4.99172
4.9917
4.99168
4.99164
4.99162
4.9916
4.99158
4.99156
4.99152
4.9915
4.99148
4.99146
4.99142
4.99139
4.99137
4.99135
4.99127
4.99125
4.99122
4.9912
4.99118
4.99116
4.99114
4.99113
4.99111
4.99109
4.99107
4.99105
4.99104
4.991
4.99098
4.99097
4.99095
4.99093
4.99091
4.99088
4.99086
4.99084
4.99083
4.99079
4.99078
4.99076
4.99074
4.99073
4.99071
4.99069
4.99068
4.99066
4.99061
4.99059
4.99056
4.99055
4.99053
4.9905
4.99048
4.99045
4.99043
4.99042
4.9904
4.99039
4.99037
4.99036
4.99034
4.99033
4.99028
4.99024
4.99022
4.99021
4.99019
4.99018
4.99016
4.99015
4.99012
4.9901
4.99009
4.99007
4.99006
4.99005
4.99003
4.99002
4.99
4.98999
4.98998
4.98995
4.98993
4.98992
4.98989
4.98988
4.98987
4.98985
4.98983
4.98981
4.9898
4.98979
4.98977
4.98976
4.98974
4.98972
4.9897
4.98968
4.98967
4.98966
4.98965
4.98962
4.98961
4.9896
4.98957
4.98956
4.98955
4.98954
4.98951
4.9895
4.98949
4.98948
4.98946
4.98944
4.98942
4.98941
4.98939
4.98938
4.98937
4.98936
4.98934
4.98933
4.98932
4.98931
4.9893
4.98929
4.98928
4.98927
4.98926
4.98925
4.98924
4.98923
4.98922
4.98921
4.9892
4.98919
4.98918
4.98917
4.98916
4.98915
4.98914
4.98913
4.98911
4.9891
4.98909
4.98908
4.98907
4.98905
4.98904
4.98903
4.98903
4.98902
4.98901
4.989
4.98899
4.98898
4.98897
4.98896
4.98895
4.98894
4.98893
4.98892
4.98891
4.98891
4.9889
4.98889
4.98887
4.98886
4.98886
4.98885
4.98884
4.98883
4.98883
4.98882
4.98881
4.9888
4.9888
4.98879
4.98877
4.98876
4.98875
4.98875
4.98874
4.98873
4.98873
4.98872
4.98871
4.98871
4.9887
4.98869
4.98868
4.98867
4.98867
4.98865
4.98865
4.98864
4.98864
4.98863
4.98862
4.98862
4.98861
4.98861
4.9886
4.9886
4.98859
4.98858
4.98858
4.98857
4.98857
4.98856
4.98855
4.98855
4.98854
4.98854
4.98853
4.98853
4.98852
4.98852
4.98851
4.98851
4.9885
4.9885
4.9885
4.98849
4.98848
4.98848
4.98847
4.98847
4.98847
4.98846
4.98846
4.98846
4.98845
4.98845
4.98844
4.98844
4.98844
4.98843
4.98843
4.98842
4.98842
4.98842
4.98841
4.98841
4.9884
4.9884
4.9884
4.9884
4.98839
4.98839
4.98839
4.98838
4.98838
4.98838
4.98838
4.98837
4.98837
4.98837
4.98837
4.98837
4.98836
4.98836
4.98836
4.98836
4.98835
4.98835
4.98835
4.98835
4.98835
4.98835
4.98835
4.98834
4.98834
4.98834
4.98834
4.98834
4.98834
4.98834
4.98834
4.98833
4.98833
4.98833
4.98833
4.98833
4.98833
4.98833
4.98833
4.98833
4.98833
4.98833
4.98891
4.98889
4.98887
4.98885
4.98883
4.98881
4.98879
4.98877
4.98875
4.98873
4.98871
4.98869
4.98867
4.98865
4.98863
4.98861
4.98859
4.98857
4.98856
4.98854
4.98852
4.98848
4.98846
4.98844
4.98842
4.98841
4.98839
4.98833
4.98831
4.98829
4.98828
4.98826
4.98824
4.98822
4.9882
4.98818
4.98813
4.98811
4.9881
4.98808
4.98804
4.98802
4.98801
4.98799
4.98797
4.98795
4.98794
4.98792
4.9879
4.98788
4.98787
4.98785
4.98783
4.98782
4.9878
4.98778
4.98777
4.98775
4.98773
4.9877
4.98768
4.98767
4.98765
4.98763
4.9876
4.98758
4.98757
4.98755
4.98753
4.98752
4.9875
4.98749
4.98747
4.98745
4.98744
4.98742
4.98738
4.98736
4.98734
4.98733
4.98731
4.9873
4.98728
4.98727
4.98725
4.98724
4.98722
4.98721
4.98719
4.98718
4.98716
4.98715
4.98713
4.98712
4.9871
4.98709
4.98707
4.98706
4.98704
4.98701
4.987
4.98698
4.98697
4.98696
4.98694
4.98693
4.98691
4.9869
4.98689
4.98687
4.98686
4.98684
4.98683
4.98682
4.9868
4.98679
4.98677
4.98676
4.98673
4.98672
4.98671
4.98667
4.98665
4.98664
4.98663
4.98661
4.9866
4.98658
4.98656
4.98655
4.98654
4.98652
4.98651
4.9865
4.98649
4.98647
4.98646
4.98645
4.98644
4.98642
4.98641
4.9864
4.98639
4.98638
4.98636
4.98635
4.98634
4.98633
4.98632
4.9863
4.98627
4.98626
4.98625
4.98623
4.98622
4.98621
4.9862
4.98619
4.98618
4.98617
4.98616
4.98614
4.98613
4.98612
4.98611
4.9861
4.98609
4.98608
4.98606
4.98605
4.98603
4.98601
4.986
4.98599
4.98598
4.98597
4.98596
4.98595
4.98594
4.98593
4.98592
4.98591
4.9859
4.98589
4.98588
4.98587
4.98586
4.98585
4.98584
4.98583
4.98582
4.98581
4.98581
4.9858
4.98579
4.98578
4.98577
4.98576
4.98575
4.98574
4.98573
4.98572
4.98571
4.9857
4.9857
4.98569
4.98568
4.98567
4.98566
4.98565
4.98564
4.98563
4.98563
4.98562
4.98561
4.9856
4.98559
4.98558
4.98558
4.98557
4.98556
4.98555
4.98553
4.98551
4.9855
4.98549
4.98548
4.98547
4.98547
4.98546
4.98544
4.98544
4.98543
4.98542
4.98542
4.98541
4.9854
4.98539
4.98539
4.98538
4.98537
4.98537
4.98536
4.98535
4.98535
4.98534
4.98533
4.98533
4.98532
4.98531
4.98531
4.9853
4.9853
4.98529
4.98528
4.98528
4.98527
4.98527
4.98525
4.98525
4.98524
4.98524
4.98523
4.98522
4.98522
4.98521
4.98521
4.9852
4.9852
4.98519
4.98519
4.98518
4.98518
4.98517
4.98517
4.98516
4.98516
4.98515
4.98515
4.98514
4.98514
4.98513
4.98513
4.98512
4.98512
4.98511
4.98511
4.9851
4.9851
4.9851
4.98509
4.98509
4.98508
4.98508
4.98507
4.98507
4.98507
4.98506
4.98505
4.98505
4.98505
4.98504
4.98504
4.98503
4.98503
4.98503
4.98502
4.98502
4.98501
4.98501
4.98501
4.985
4.985
4.98499
4.98499
4.98499
4.98499
4.98498
4.98498
4.98498
4.98497
4.98497
4.98497
4.98497
4.98496
4.98496
4.98496
4.98496
4.98495
4.98495
4.98495
4.98495
4.98495
4.98494
4.98494
4.98494
4.98494
4.98494
4.98493
4.98493
4.98493
4.98493
4.98493
4.98493
4.98493
4.98492
4.98492
4.98492
4.98492
4.98492
4.98492
4.98492
4.98491
4.98491
4.98491
4.98491
4.98491
4.98491
4.98491
4.98491
4.98491
4.98491
4.98491
4.98491
4.98491
4.98491
4.98565
4.98563
4.98561
4.98557
4.98555
4.98553
4.98551
4.98547
4.98545
4.98543
4.98539
4.98537
4.98535
4.98533
4.98531
4.98529
4.98526
4.98524
4.98522
4.9852
4.98518
4.98516
4.98514
4.98512
4.9851
4.98509
4.98507
4.98505
4.98503
4.98501
4.98499
4.98497
4.98494
4.98492
4.9849
4.98488
4.98486
4.98484
4.98481
4.98479
4.98477
4.98475
4.98474
4.98472
4.9847
4.98468
4.98466
4.98465
4.98463
4.98461
4.98459
4.98458
4.98456
4.98454
4.98452
4.98449
4.98444
4.98442
4.98437
4.98433
4.98432
4.9843
4.98428
4.98427
4.98425
4.98423
4.98422
4.98418
4.98417
4.98415
4.98413
4.98412
4.9841
4.98408
4.98407
4.98405
4.98402
4.984
4.98399
4.98397
4.98395
4.98394
4.98392
4.98391
4.98389
4.98387
4.98386
4.98384
4.98383
4.98381
4.98378
4.98376
4.98375
4.98373
4.98372
4.9837
4.98369
4.98367
4.98366
4.98364
4.98363
4.98361
4.9836
4.98358
4.98355
4.98354
4.98352
4.98351
4.98349
4.98348
4.98346
4.98345
4.98343
4.98342
4.9834
4.98339
4.98337
4.98334
4.98333
4.98332
4.9833
4.98329
4.98327
4.98326
4.98325
4.98323
4.98322
4.9832
4.98319
4.98318
4.98316
4.98315
4.98313
4.98312
4.98311
4.98309
4.98308
4.98307
4.98305
4.98304
4.983
4.98299
4.98297
4.98296
4.98295
4.98293
4.98292
4.98291
4.98289
4.98288
4.98287
4.98284
4.98282
4.9828
4.98279
4.98278
4.98277
4.98275
4.98274
4.98273
4.9827
4.98269
4.98268
4.98267
4.98263
4.98262
4.98261
4.98259
4.98255
4.98253
4.98252
4.98251
4.98249
4.98248
4.98246
4.98245
4.98244
4.98242
4.98241
4.9824
4.98239
4.98237
4.98236
4.98235
4.98234
4.98233
4.98232
4.98231
4.9823
4.98229
4.98226
4.98225
4.98223
4.98221
4.9822
4.98219
4.98218
4.98217
4.98216
4.98215
4.98214
4.98213
4.98212
4.9821
4.98209
4.98208
4.98207
4.98205
4.98204
4.98203
4.98202
4.98201
4.982
4.98199
4.98198
4.98197
4.98196
4.98195
4.98194
4.98193
4.98192
4.98191
4.9819
4.98189
4.98188
4.98186
4.98185
4.98184
4.98183
4.98182
4.98181
4.98181
4.9818
4.98178
4.98176
4.98175
4.98174
4.98173
4.98172
4.98171
4.9817
4.98169
4.98169
4.98168
4.98167
4.98166
4.98165
4.98165
4.98164
4.98163
4.98161
4.9816
4.98159
4.98158
4.98158
4.98157
4.98156
4.98155
4.98155
4.98152
4.98152
4.9815
4.98149
4.98149
4.98148
4.98147
4.98147
4.98146
4.98145
4.98145
4.98144
4.98143
4.98143
4.98142
4.98141
4.98141
4.98139
4.98139
4.98138
4.98137
4.98136
4.98135
4.98135
4.98134
4.98134
4.98133
4.98132
4.98132
4.98131
4.98131
4.98129
4.98128
4.98127
4.98126
4.98126
4.98125
4.98125
4.98124
4.98124
4.98123
4.98123
4.98122
4.98122
4.98121
4.98121
4.9812
4.9812
4.98119
4.98118
4.98118
4.98117
4.98117
4.98116
4.98116
4.98115
4.98115
4.98114
4.98114
4.98113
4.98113
4.98112
4.98112
4.98111
4.98111
4.98111
4.9811
4.9811
4.98109
4.98109
4.98109
4.98108
4.98108
4.98107
4.98107
4.98106
4.98105
4.98105
4.98105
4.98104
4.98104
4.98104
4.98103
4.98103
4.98103
4.98102
4.98102
4.98102
4.98101
4.98101
4.98101
4.981
4.981
4.98099
4.98099
4.98099
4.98098
4.98098
4.98097
4.98097
4.98096
4.98096
4.98096
4.98096
4.98095
4.98095
4.98095
4.98095
4.98094
4.98094
4.98094
4.98094
4.98094
4.98093
4.98093
4.98093
4.98093
4.98093
4.98092
4.98092
4.98092
4.98092
4.98091
4.98091
4.98091
4.98091
4.98091
4.98091
4.98091
4.9809
4.9809
4.9809
4.9809
4.9809
4.9809
4.9809
4.9809
4.9809
4.9809
4.98089
4.98089
4.98089
4.98089
4.98089
4.98089
4.98089
4.98089
4.98089
4.98089
4.98089
4.98089
4.98089
4.98089
4.98089
4.98089
4.98181
4.98179
4.98177
4.98175
4.98173
4.98171
4.98167
4.98165
4.98163
4.98161
4.98159
4.98157
4.98155
4.98151
4.98149
4.98147
4.98146
4.98144
4.98142
4.9814
4.98138
4.98136
4.98132
4.9813
4.98128
4.98126
4.98124
4.98121
4.98119
4.98117
4.98115
4.98111
4.98109
4.98108
4.98106
4.98104
4.98102
4.981
4.98098
4.98096
4.98093
4.98091
4.98089
4.98087
4.98085
4.98084
4.98082
4.9808
4.98078
4.98076
4.98073
4.98071
4.98069
4.98067
4.98066
4.98064
4.98062
4.98058
4.98057
4.98055
4.98053
4.98051
4.9805
4.98048
4.98046
4.98043
4.98041
4.98039
4.98038
4.98036
4.98034
4.98032
4.98031
4.98027
4.98026
4.98024
4.98022
4.9802
4.98019
4.98017
4.98015
4.98014
4.98012
4.9801
4.98009
4.98007
4.98005
4.98004
4.98
4.97999
4.97997
4.97995
4.97994
4.97992
4.97991
4.97989
4.97987
4.97986
4.97984
4.97982
4.97981
4.97978
4.97976
4.97974
4.97971
4.9797
4.97967
4.97965
4.97963
4.97962
4.9796
4.97959
4.97957
4.97956
4.97954
4.97952
4.97951
4.97949
4.97948
4.97946
4.97945
4.97943
4.97942
4.9794
4.97939
4.97937
4.97936
4.97934
4.97933
4.97931
4.97928
4.97927
4.97925
4.97924
4.97922
4.97921
4.97919
4.97918
4.97916
4.97915
4.97914
4.97912
4.97911
4.97909
4.97908
4.97905
4.97903
4.97901
4.97899
4.97896
4.97895
4.97894
4.97892
4.97891
4.97889
4.97888
4.97885
4.97884
4.97882
4.97881
4.9788
4.97878
4.97877
4.97876
4.97874
4.97873
4.97871
4.9787
4.97869
4.97867
4.97866
4.97865
4.97863
4.97862
4.97861
4.9786
4.97858
4.97857
4.97854
4.97852
4.9785
4.97849
4.97848
4.97847
4.97845
4.97844
4.97843
4.97841
4.9784
4.97839
4.97838
4.97836
4.97835
4.97833
4.9783
4.97828
4.97826
4.97825
4.97824
4.97823
4.97822
4.9782
4.97819
4.97818
4.97817
4.97816
4.97814
4.97813
4.97812
4.97811
4.97808
4.97807
4.97806
4.97805
4.97804
4.97803
4.97802
4.978
4.97799
4.97798
4.97797
4.97796
4.97795
4.97792
4.97791
4.97789
4.97788
4.97787
4.97786
4.97785
4.97784
4.97782
4.97779
4.97777
4.97775
4.97774
4.97773
4.97772
4.97771
4.97769
4.97768
4.97766
4.97765
4.97764
4.97763
4.97762
4.97761
4.9776
4.97759
4.97756
4.97755
4.97754
4.97753
4.97752
4.9775
4.97749
4.97748
4.97747
4.97746
4.97744
4.97744
4.97743
4.97741
4.9774
4.97738
4.97737
4.97736
4.97735
4.97734
4.97733
4.97732
4.97731
4.9773
4.9773
4.97729
4.97728
4.97727
4.97726
4.97725
4.97723
4.97722
4.97722
4.97721
4.9772
4.97719
4.97718
4.97717
4.97716
4.97715
4.97715
4.97713
4.97712
4.97711
4.9771
4.97709
4.97708
4.97707
4.97706
4.97706
4.97705
4.97704
4.97703
4.97702
4.97702
4.97701
4.977
4.97698
4.97698
4.97696
4.97695
4.97695
4.97694
4.97693
4.97692
4.97692
4.97691
4.97689
4.97689
4.97687
4.97686
4.97686
4.97685
4.97684
4.97684
4.97683
4.97682
4.97682
4.97681
4.9768
4.97679
4.97679
4.97678
4.97677
4.97676
4.97675
4.97674
4.97673
4.97673
4.97672
4.97671
4.97671
4.9767
4.97669
4.97668
4.97668
4.97667
4.97666
4.97665
4.97665
4.97664
4.97663
4.97663
4.97662
4.97661
4.97661
4.9766
4.97659
4.97659
4.97658
4.97657
4.97657
4.97656
4.97655
4.97655
4.97654
4.97654
4.97653
4.97653
4.97652
4.97652
4.97651
4.97651
4.9765
4.9765
4.97649
4.97649
4.97648
4.97648
4.97646
4.97646
4.97645
4.97645
4.97644
4.97643
4.97642
4.97642
4.97641
4.97641
4.97641
4.9764
4.9764
4.97639
4.97639
4.97638
4.97638
4.97638
4.97637
4.97637
4.97636
4.97636
4.97636
4.97635
4.97635
4.97634
4.97634
4.97633
4.97633
4.97632
4.97632
4.97631
4.97631
4.9763
4.9763
4.9763
4.97629
4.97629
4.97629
4.97628
4.97628
4.97627
4.97627
4.97626
4.97626
4.97625
4.97625
4.97625
4.97625
4.97624
4.97624
4.97624
4.97623
4.97623
4.97623
4.97622
4.97622
4.97622
4.97621
4.97621
4.9762
4.9762
4.9762
4.97619
4.97619
4.97619
4.97619
4.97619
4.97618
4.97618
4.97618
4.97618
4.97618
4.97617
4.97617
4.97617
4.97617
4.97617
4.97616
4.97616
4.97616
4.97616
4.97616
4.97616
4.97616
4.97615
4.97615
4.97615
4.97615
4.97615
4.97615
4.97615
4.97615
4.97614
4.97614
4.97614
4.97614
4.97614
4.97614
4.97614
4.97614
4.97613
4.97613
4.97613
4.97613
4.97613
4.97613
4.97613
4.97613
4.97613
4.97613
4.97613
4.97613
4.97613
4.97613
4.97613
4.97613
4.97613
4.97613
4.97613
4.977
4.97698
4.97694
4.97692
4.9769
4.97688
4.97684
4.97682
4.9768
4.97678
4.97676
4.97672
4.9767
4.97668
4.97661
4.97659
4.97655
4.97653
4.97645
4.97643
4.97641
4.97638
4.97636
4.97634
4.97632
4.9763
4.97628
4.97626
4.97624
4.97623
4.97621
4.97619
4.97617
4.97615
4.97613
4.97609
4.97608
4.97606
4.97604
4.97602
4.976
4.97598
4.97596
4.97595
4.97593
4.97591
4.97589
4.97587
4.97586
4.97584
4.97582
4.9758
4.97578
4.97576
4.97575
4.97573
4.97569
4.97568
4.97566
4.97564
4.97562
4.9756
4.97559
4.97557
4.97555
4.97553
4.97552
4.9755
4.97548
4.97545
4.97543
4.97541
4.97538
4.97536
4.97534
4.97532
4.97531
4.97529
4.97527
4.97524
4.97522
4.9752
4.97519
4.97517
4.97515
4.97514
4.97512
4.9751
4.97508
4.97507
4.97505
4.97503
4.97502
4.975
4.97498
4.97497
4.97495
4.97493
4.97492
4.97488
4.97487
4.97485
4.97484
4.97482
4.9748
4.97479
4.97477
4.97475
4.97474
4.97472
4.97471
4.97469
4.97467
4.97466
4.97464
4.97463
4.97461
4.97459
4.97458
4.97455
4.97453
4.9745
4.97448
4.97447
4.97445
4.97444
4.97442
4.9744
4.97439
4.97437
4.97436
4.97434
4.97433
4.97431
4.9743
4.97428
4.97427
4.97425
4.97424
4.97422
4.9742
4.97414
4.97413
4.97411
4.97408
4.97407
4.97405
4.97404
4.97403
4.97401
4.974
4.97398
4.97397
4.97395
4.97394
4.97392
4.97391
4.97389
4.97388
4.97386
4.97385
4.97384
4.97382
4.97381
4.97379
4.97376
4.97375
4.97374
4.97372
4.97371
4.97369
4.97368
4.97366
4.97365
4.97364
4.97362
4.97361
4.9736
4.97358
4.97357
4.97355
4.97354
4.97353
4.97351
4.9735
4.97349
4.97347
4.97346
4.97344
4.97343
4.97342
4.9734
4.97339
4.97338
4.97336
4.97335
4.97334
4.97331
4.9733
4.97328
4.97327
4.97326
4.97324
4.97323
4.97322
4.97321
4.97319
4.97318
4.97317
4.97315
4.97314
4.97312
4.97309
4.97305
4.97304
4.97303
4.97301
4.973
4.97299
4.97298
4.97296
4.97295
4.97294
4.97293
4.97292
4.9729
4.97289
4.97288
4.97285
4.97284
4.97283
4.97279
4.97277
4.97276
4.97275
4.97272
4.97271
4.9727
4.97269
4.97268
4.97266
4.97265
4.97264
4.97263
4.97262
4.97261
4.97259
4.97258
4.97257
4.97256
4.97255
4.97254
4.97253
4.97252
4.9725
4.97249
4.97248
4.97247
4.97246
4.97245
4.97244
4.97243
4.97242
4.9724
4.97239
4.97238
4.97237
4.97236
4.97235
4.97233
4.97231
4.9723
4.97228
4.97226
4.97225
4.97224
4.97223
4.97222
4.97221
4.9722
4.97219
4.97218
4.97217
4.97216
4.97215
4.97214
4.97213
4.97212
4.97211
4.9721
4.97208
4.97207
4.97206
4.97205
4.97203
4.97202
4.97201
4.972
4.97199
4.97198
4.97197
4.97196
4.97195
4.97194
4.97193
4.9719
4.9719
4.97189
4.97188
4.97187
4.97186
4.97185
4.97184
4.97183
4.97182
4.97181
4.9718
4.97179
4.97178
4.97178
4.97176
4.97175
4.97173
4.97172
4.9717
4.9717
4.97168
4.97167
4.97166
4.97165
4.97164
4.97164
4.97163
4.97162
4.97161
4.9716
4.97159
4.97158
4.97158
4.97157
4.97156
4.97155
4.97154
4.97154
4.97153
4.97151
4.9715
4.97149
4.97149
4.97147
4.97146
4.97145
4.97145
4.97144
4.97143
4.97142
4.97142
4.97141
4.9714
4.97139
4.97138
4.97137
4.97136
4.97136
4.97134
4.97133
4.97133
4.97132
4.97131
4.9713
4.9713
4.97129
4.97128
4.97128
4.97126
4.97125
4.97125
4.97124
4.97123
4.97123
4.97122
4.97121
4.97121
4.9712
4.97119
4.97119
4.97118
4.97117
4.97117
4.97116
4.97115
4.97115
4.97114
4.97113
4.97113
4.97112
4.97111
4.97111
4.97109
4.97109
4.97108
4.97108
4.97107
4.97106
4.97104
4.97104
4.97103
4.97103
4.97102
4.97101
4.97101
4.971
4.971
4.97099
4.97099
4.97098
4.97097
4.97097
4.97096
4.97095
4.97095
4.97094
4.97094
4.97093
4.97092
4.97091
4.9709
4.97089
4.97089
4.97088
4.97088
4.97087
4.97086
4.97086
4.97085
4.97085
4.97084
4.97084
4.97083
4.97083
4.97082
4.97081
4.97081
4.9708
4.9708
4.97079
4.97079
4.97078
4.97078
4.97078
4.97077
4.97076
4.97076
4.97075
4.97075
4.97074
4.97074
4.97073
4.97073
4.97072
4.97072
4.97072
4.97071
4.9707
4.9707
4.9707
4.97069
4.97069
4.97068
4.97068
4.97067
4.97067
4.97067
4.97066
4.97066
4.97065
4.97065
4.97064
4.97064
4.97064
4.97063
4.97063
4.97063
4.97062
4.97062
4.97061
4.97061
4.9706
4.9706
4.9706
4.9706
4.97059
4.97059
4.97059
4.97058
4.97058
4.97058
4.97058
4.97057
4.97057
4.97057
4.97056
4.97056
4.97056
4.97055
4.97055
4.97055
4.97054
4.97054
4.97054
4.97053
4.97053
4.97053
4.97053
4.97052
4.97052
4.97052
4.97052
4.97052
4.97051
4.97051
4.97051
4.97051
4.97051
4.9705
4.9705
4.9705
4.9705
4.9705
4.97049
4.97049
4.97049
4.97049
4.97049
4.97048
4.97048
4.97048
4.97048
4.97048
4.97048
4.97048
4.97047
4.97047
4.97047
4.97047
4.97047
4.97047
4.97047
4.97047
4.97046
4.97046
4.97046
4.97046
4.97046
4.97046
4.97046
4.97046
4.97046
4.97046
4.97045
4.97045
4.97045
4.97045
4.97045
4.97045
4.97045
4.97045
4.97045
4.97045
4.97045
4.97045
4.97045
4.97045
4.97045
4.97045
4.97045
4.97045
4.97045
4.97045
4.97169
4.97167
4.97165
4.97163
4.97161
4.97159
4.97157
4.97155
4.97154
4.97152
4.9715
4.97148
4.97144
4.97142
4.9714
4.97138
4.97136
4.97134
4.9713
4.97128
4.97126
4.97124
4.97122
4.9712
4.97118
4.97116
4.97114
4.97112
4.97111
4.97109
4.97107
4.97103
4.97101
4.97099
4.97097
4.97095
4.97093
4.97091
4.9709
4.97088
4.97086
4.97084
4.97082
4.9708
4.97074
4.97073
4.97071
4.97069
4.97067
4.97063
4.97061
4.9706
4.97058
4.97054
4.97052
4.9705
4.97048
4.97047
4.97045
4.97043
4.97041
4.97039
4.97037
4.97032
4.9703
4.97025
4.97023
4.97021
4.97019
4.97018
4.97016
4.97014
4.97012
4.9701
4.97009
4.97007
4.97005
4.97003
4.97002
4.97
4.96994
4.96993
4.96989
4.96987
4.96986
4.96984
4.96982
4.9698
4.96977
4.96973
4.96972
4.9697
4.96968
4.96965
4.96963
4.96961
4.9696
4.96958
4.96956
4.96955
4.96951
4.96949
4.96948
4.96946
4.96943
4.96941
4.96939
4.96938
4.96936
4.96934
4.96933
4.96929
4.96928
4.96926
4.96923
4.96921
4.96919
4.96916
4.96914
4.96913
4.96911
4.9691
4.96908
4.96901
4.969
4.96898
4.96897
4.96895
4.96893
4.96892
4.9689
4.96885
4.96882
4.96881
4.96879
4.96877
4.96876
4.96874
4.96873
4.96871
4.96868
4.96866
4.96863
4.96862
4.9686
4.96859
4.96857
4.96855
4.96854
4.96852
4.96851
4.96849
4.96846
4.96845
4.96843
4.96842
4.9684
4.96839
4.96837
4.96836
4.96833
4.9683
4.96828
4.96827
4.96825
4.96824
4.96822
4.96821
4.96819
4.96818
4.96816
4.96815
4.96813
4.96812
4.9681
4.96809
4.96807
4.96806
4.96804
4.96803
4.96801
4.968
4.96799
4.96797
4.96796
4.96794
4.96793
4.9679
4.96787
4.96786
4.96784
4.96783
4.96781
4.9678
4.96778
4.96777
4.96776
4.96774
4.96773
4.96771
4.9677
4.96769
4.96767
4.96766
4.96764
4.96763
4.96762
4.9676
4.96759
4.96756
4.96755
4.96752
4.96751
4.96749
4.96748
4.96747
4.96745
4.96744
4.96741
4.9674
4.96739
4.96737
4.96736
4.96735
4.96733
4.96732
4.96728
4.96727
4.96725
4.96724
4.96723
4.96719
4.96717
4.96715
4.96714
4.96712
4.96711
4.9671
4.96707
4.96706
4.96705
4.96703
4.96702
4.96701
4.967
4.96698
4.96696
4.96694
4.96693
4.96691
4.96688
4.96687
4.96686
4.96685
4.96683
4.96682
4.9668
4.96678
4.96677
4.96676
4.96675
4.96674
4.96671
4.9667
4.96669
4.96668
4.96666
4.96664
4.96663
4.96662
4.9666
4.96659
4.96657
4.96655
4.96653
4.9665
4.96646
4.96645
4.96643
4.96642
4.96641
4.9664
4.96638
4.96637
4.96636
4.96635
4.96634
4.96633
4.96632
4.96631
4.9663
4.96628
4.96627
4.96626
4.96625
4.96624
4.96623
4.96621
4.96619
4.96617
4.96616
4.96614
4.96613
4.96612
4.96611
4.9661
4.96609
4.96608
4.96607
4.96604
4.96603
4.96602
4.966
4.96599
4.96598
4.96597
4.96596
4.96595
4.96594
4.96593
4.96592
4.96591
4.9659
4.96589
4.96588
4.96587
4.96586
4.96585
4.96584
4.96583
4.96582
4.96581
4.9658
4.96579
4.96577
4.96576
4.96575
4.96574
4.96573
4.96572
4.96571
4.9657
4.96568
4.96567
4.96567
4.96566
4.96565
4.96563
4.96562
4.96561
4.9656
4.96559
4.96558
4.96557
4.96556
4.96555
4.96553
4.96552
4.96552
4.96551
4.9655
4.96549
4.96548
4.96547
4.96546
4.96545
4.96544
4.96543
4.96543
4.96541
4.9654
4.96539
4.96537
4.96536
4.96536
4.96535
4.96534
4.96533
4.96532
4.96531
4.9653
4.96529
4.96528
4.96527
4.96526
4.96525
4.96525
4.96524
4.96523
4.96522
4.96521
4.9652
4.96519
4.96517
4.96516
4.96515
4.96515
4.96514
4.96512
4.96511
4.9651
4.96509
4.96508
4.96508
4.96507
4.96506
4.96505
4.96504
4.96503
4.96502
4.96501
4.96501
4.965
4.96498
4.96497
4.96495
4.96494
4.96493
4.96492
4.96492
4.96491
4.9649
4.9649
4.96489
4.96488
4.96487
4.96487
4.96486
4.96485
4.96484
4.96483
4.96483
4.96482
4.96481
4.9648
4.9648
4.96479
4.96478
4.96478
4.96476
4.96476
4.96475
4.96474
4.96473
4.96472
4.96472
4.96471
4.9647
4.9647
4.96469
4.96469
4.96468
4.96467
4.96467
4.96466
4.96465
4.96465
4.96464
4.96464
4.96462
4.96462
4.96461
4.9646
4.96459
4.96458
4.96457
4.96457
4.96456
4.96456
4.96455
4.96455
4.96454
4.96453
4.96453
4.96452
4.96452
4.96451
4.96451
4.9645
4.96449
4.96449
4.96448
4.96448
4.96447
4.96446
4.96446
4.96445
4.96445
4.96444
4.96443
4.96443
4.96442
4.96441
4.96441
4.9644
4.96439
4.96439
4.96438
4.96438
4.96437
4.96436
4.96436
4.96435
4.96434
4.96434
4.96433
4.96433
4.96432
4.96432
4.96431
4.96431
4.9643
4.9643
4.96429
4.96429
4.96428
4.96428
4.96427
4.96427
4.96427
4.96426
4.96426
4.96425
4.96425
4.96424
4.96424
4.96424
4.96423
4.96423
4.96422
4.96422
4.96421
4.96421
4.9642
4.9642
4.96419
4.96419
4.96419
4.96418
4.96417
4.96417
4.96417
4.96416
4.96416
4.96415
4.96415
4.96415
4.96414
4.96414