/*--------------------------------*- C++ -*----------------------------------*\
| =========                 |                                                 |
| \\      /  F ield         | OpenFOAM: The Open Source CFD Toolbox           |
|  \\    /   O peration     | Version:  plus.master.MPPICInterFoam            |
|   \\  /    A nd           | Web:      www.OpenFOAM.com                      |
|    \\/     M anipulation  |                                                 |
\*---------------------------------------------------------------------------*/
FoamFile
{
    version     2.0;
    format      ascii;
    class       volScalarField;
    location    "9.2";
    object      p_rgh;
}
// * * * * * * * * * * * * * * * * * * * * * * * * * * * * * * * * * * * * * //

dimensions      [1 -1 -2 0 0 0 0];

internalField   nonuniform List<scalar> 
11821
(
5734.2
5741.88
5744.77
5745.8
5744.77
5740.78
5732.72
5742.89
5732.64
5747.53
5748.65
5739.29
5734.06
5740.36
5746.89
5739.75
5712.4
5707.09
5712.44
5747.16
5744.35
5747.69
5749.35
5708
5702.03
5708.78
5750.1
5745.73
5746.3
5744.03
5712.81
5706.4
5712.5
5749.21
5743.74
5742.67
5733.32
5744.43
5747.28
5734.64
5736.62
5740.69
5734.36
5742.37
5745.92
5746.95
5746.99
5742.39
5732.92
5704.43
5704.44
5703.71
5703.28
5703.85
5704.65
5704.92
5704.25
5684.73
5689.06
5667.39
5686.09
5700.1
5705.15
5703.75
5649.36
5554.35
5536.8
5585.49
5704.9
5705.1
5703.23
5666.77
5538.28
5526.83
5555.72
5704.44
5704.94
5703.7
5663.33
5549.4
5532.23
5566.86
5704.63
5704.86
5704.18
5668.37
5670.75
5648.41
5657.69
5704.6
5704.83
5704.39
5704.34
5703.73
5703.05
5703.63
5704.24
5704.67
5680.98
5675.64
5671.02
5669.73
5673.04
5678.42
5683.76
5674.6
5663.54
5616.22
5566.2
5653.1
5670.78
5679.41
5668.43
5561.3
5380.3
5357.35
5450.45
5662.57
5675.88
5666.44
5556.38
5358.06
5350.7
5396.86
5659.91
5674.47
5668.7
5574.45
5371.88
5353
5406.34
5658.14
5675.26
5674.21
5644.67
5582.69
5520.52
5603.83
5668.84
5678.45
5680.51
5674.64
5669.41
5667.45
5670.81
5676.86
5682.81
5676.12
5670.98
5666.71
5666.07
5669.14
5673.8
5678.49
5669.78
5659.37
5579.89
5495.51
5654.64
5666.75
5674.55
5663.78
5518.51
5225.04
5218.49
5408.24
5659.78
5671.43
5659.89
5428.24
5214.74
5218.75
5307.99
5655.34
5669.81
5663.6
5507.98
5216.82
5217.38
5311.07
5655
5670.94
5669.38
5652.38
5512.96
5403.66
5603.84
5664.73
5673.75
5675.78
5670.01
5664.6
5659.27
5667.38
5672.44
5677.65
5672.73
5670.91
5668.97
5667.89
5669.06
5670.8
5672.37
5670.45
5666.22
5602.03
5501.1
5663.92
5668.06
5671.07
5668.21
5542.49
5124.52
5101.41
5512.41
5665.71
5670.23
5665.45
5375.75
5098.85
5101.55
5347.06
5662.86
5669.43
5667.95
5504.73
5098.65
5100.04
5355.85
5664.68
5670.07
5670.26
5663.04
5508.06
5359.3
5637.72
5667.18
5670.8
5672.85
5670.24
5667.61
5663.67
5668.04
5670.09
5671.98
5726.59
5722.79
5719.42
5716.7
5714.51
5712.76
5711.38
5710.26
5731.24
5725.99
5721.28
5717.83
5715.21
5713.18
5711.59
5710.35
5733.1
5727.37
5722.67
5718.46
5715.51
5713.31
5711.61
5710.31
5734.3
5728.08
5722.95
5718.73
5715.55
5713.26
5711.54
5710.18
5733.12
5727.61
5722.39
5718.42
5715.47
5713.25
5711.54
5710.22
5730.96
5725.72
5721.23
5717.75
5715.11
5713.09
5711.49
5710.22
5726.61
5722.96
5719.49
5716.7
5714.47
5712.7
5711.29
5710.15
5705.09
5705.08
5705.06
5705.05
5705.04
5705.04
5705.04
5705.07
5705.06
5705.09
5705.08
5705.07
5705.07
5705.07
5705.08
5705.12
5705.04
5704.98
5704.98
5704.98
5705
5705.01
5705.03
5705.07
5704.97
5704.92
5704.9
5704.91
5704.93
5704.95
5704.98
5705.03
5704.83
5704.82
5704.81
5704.83
5704.85
5704.87
5704.9
5704.94
5704.76
5704.79
5704.8
5704.8
5704.81
5704.82
5704.84
5704.87
5704.78
5704.78
5704.77
5704.76
5704.75
5704.74
5704.75
5704.77
5687.85
5690.51
5692.67
5694.41
5695.81
5696.95
5697.9
5698.75
5685.09
5688.82
5691.61
5693.75
5695.41
5696.74
5697.82
5698.76
5682.98
5687.46
5690.72
5693.18
5695.06
5696.53
5697.72
5698.74
5682.1
5686.86
5690.32
5692.91
5694.88
5696.41
5697.64
5698.68
5682.62
5687.16
5690.47
5692.97
5694.89
5696.39
5697.59
5698.62
5684.41
5688.25
5691.13
5693.34
5695.07
5696.45
5697.57
5698.53
5687.02
5689.79
5692.06
5693.88
5695.35
5696.54
5697.53
5698.4
5682.13
5684.68
5686.94
5688.96
5690.84
5692.71
5694.67
5696.76
5679.68
5683.1
5685.85
5688.17
5690.26
5692.3
5694.43
5696.7
5677.84
5681.87
5685.01
5687.59
5689.84
5691.99
5694.23
5696.6
5677.01
5681.34
5684.63
5687.33
5689.66
5691.86
5694.13
5696.53
5677.61
5681.68
5684.83
5687.44
5689.71
5691.87
5694.1
5696.47
5679.15
5682.66
5685.48
5687.86
5689.97
5692.01
5694.14
5696.4
5681.37
5683.97
5686.3
5688.37
5690.28
5692.16
5694.12
5696.2
5673.57
5674.23
5674.68
5674.91
5674.86
5674.18
5672.68
5672.25
5672.88
5673.88
5674.52
5674.87
5674.91
5674.29
5672.72
5672.1
5672.41
5673.59
5674.39
5674.87
5675
5674.41
5672.78
5672.05
5672.12
5673.46
5674.36
5674.91
5675.08
5674.52
5672.88
5672.09
5672.36
5673.54
5674.36
5674.86
5675.02
5674.46
5672.86
5672.11
5672.69
5673.68
5674.35
5674.77
5674.89
5674.36
5672.86
5672.25
5673.06
5673.68
5674.2
5674.53
5674.61
5674.07
5672.73
5672.37
5728.14
5723.72
5720.06
5717.13
5714.79
5712.93
5711.45
5710.27
5732.86
5726.73
5721.91
5718.23
5715.41
5713.21
5711.45
5710.06
5735.72
5728.84
5723.14
5718.99
5715.86
5713.48
5711.67
5710.24
5736.46
5729.07
5723.44
5719.2
5716.01
5713.58
5711.73
5710.31
5735.56
5728.44
5723.05
5718.8
5715.64
5713.23
5711.37
5709.99
5732.76
5726.51
5721.84
5718.15
5715.35
5713.13
5711.38
5710
5727.95
5723.59
5720
5717.06
5714.72
5712.87
5711.41
5710.26
5704.64
5704.66
5704.65
5704.61
5704.57
5704.53
5704.5
5704.47
5704.39
5704.53
5704.6
5704.62
5704.58
5704.54
5704.5
5704.46
5704.15
5704.45
5704.62
5704.73
5704.76
5704.76
5704.73
5704.7
5703.99
5704.36
5704.59
5704.75
5704.83
5704.85
5704.84
5704.81
5704.16
5704.32
5704.46
5704.54
5704.57
5704.56
5704.53
5704.49
5704.41
5704.45
5704.51
5704.52
5704.52
5704.5
5704.47
5704.45
5704.65
5704.64
5704.63
5704.6
5704.57
5704.53
5704.51
5704.5
5685.28
5688.47
5691.03
5693.07
5694.72
5696.05
5697.13
5698.05
5681.45
5686.13
5689.52
5692.1
5694.07
5695.6
5696.85
5697.9
5678.39
5684.37
5688.55
5691.59
5693.85
5695.58
5696.94
5698.03
5677.11
5683.62
5688.12
5691.33
5693.69
5695.51
5696.95
5698.1
5678.28
5684.22
5688.36
5691.36
5693.61
5695.35
5696.71
5697.81
5681.62
5686.17
5689.51
5692.05
5694.03
5695.57
5696.8
5697.83
5685.49
5688.6
5691.1
5693.11
5694.72
5696.01
5697.08
5698
5679.89
5682.9
5685.5
5687.82
5689.92
5691.92
5693.94
5696.03
5676.32
5680.58
5683.88
5686.53
5688.87
5691.05
5693.24
5695.46
5673.48
5679.2
5683.06
5685.98
5688.49
5690.8
5693.1
5695.45
5672.71
5678.76
5682.79
5685.79
5688.32
5690.67
5692.98
5695.32
5673.46
5679.03
5682.8
5685.71
5688.22
5690.55
5692.82
5695.16
5676.45
5680.66
5683.83
5686.45
5688.65
5690.8
5692.97
5695.22
5680.03
5683
5685.57
5687.83
5689.88
5691.84
5693.84
5695.93
5673.97
5674.89
5675.64
5676.2
5676.41
5675.99
5674.79
5674.61
5672.68
5673.95
5674.95
5675.59
5675.77
5674.9
5673.68
5673.51
5671.79
5673.69
5674.64
5675.26
5675.35
5674.65
5673.44
5673.56
5671.49
5673.59
5674.49
5675.06
5675.45
5675.14
5673.88
5673.65
5671.69
5673.41
5674.27
5674.8
5675.12
5674.88
5673.62
5673.69
5672.54
5673.76
5674.54
5675.07
5675.22
5674.9
5673.64
5673.44
5673.71
5674.57
5675.2
5675.58
5675.67
5675.12
5673.8
5673.53
5727.74
5723.53
5719.91
5717
5714.68
5712.83
5711.34
5710.14
5732.03
5726.35
5721.6
5718.01
5715.25
5713.09
5711.43
5710.13
5734.49
5728.24
5722.64
5718.67
5715.69
5713.42
5711.66
5710.26
5735.44
5728.66
5722.86
5718.76
5715.69
5713.36
5711.57
5710.19
5734.4
5727.88
5722.41
5718.43
5715.42
5713.14
5711.4
5710.02
5731.9
5726.22
5721.41
5717.89
5715.19
5713.07
5711.39
5710.07
5727.05
5722.88
5719.41
5716.67
5714.51
5712.8
5711.44
5710.37
5704.64
5704.68
5704.68
5704.66
5704.64
5704.61
5704.59
5704.59
5704.48
5704.63
5704.72
5704.77
5704.77
5704.76
5704.74
5704.73
5704.15
5704.48
5704.68
5704.81
5704.87
5704.9
5704.9
5704.9
5704
5704.4
5704.62
5704.76
5704.84
5704.86
5704.87
5704.85
5704.29
5704.53
5704.66
5704.74
5704.77
5704.78
5704.77
5704.76
5704.71
5704.83
5704.86
5704.88
5704.88
5704.87
5704.86
5704.86
5705.05
5705.06
5705.04
5705.01
5704.99
5704.97
5704.97
5704.98
5685.66
5688.74
5691.22
5693.22
5694.83
5696.13
5697.2
5698.13
5682.49
5686.9
5690.12
5692.57
5694.47
5695.96
5697.16
5698.18
5680.02
5685.51
5689.35
5692.16
5694.29
5695.94
5697.26
5698.36
5679.37
5685.17
5689.16
5692.04
5694.19
5695.85
5697.17
5698.26
5681.11
5686.15
5689.75
5692.42
5694.44
5696.01
5697.26
5698.31
5684.2
5688.12
5691.03
5693.27
5695
5696.38
5697.49
5698.45
5687.66
5690.39
5692.58
5694.32
5695.73
5696.87
5697.82
5698.67
5680.22
5683.11
5685.66
5687.92
5689.99
5691.99
5694.04
5696.17
5677.49
5681.5
5684.54
5687.12
5689.43
5691.61
5693.83
5696.15
5675.35
5680.34
5683.8
5686.58
5689.03
5691.34
5693.68
5696.13
5674.95
5680.1
5683.62
5686.43
5688.9
5691.22
5693.56
5696.02
5676.3
5680.75
5684.07
5686.79
5689.18
5691.42
5693.71
5696.13
5678.87
5682.46
5685.32
5687.73
5689.89
5691.96
5694.1
5696.38
5682.01
5684.65
5686.93
5688.94
5690.82
5692.68
5694.63
5696.71
5673.6
5674.32
5674.92
5675.34
5675.48
5674.99
5673.7
5673.41
5672.92
5673.98
5674.68
5675.2
5675.44
5675.01
5673.63
5673.2
5672.12
5673.55
5674.3
5674.85
5675.12
5674.7
5673.28
5672.83
5671.74
5673.34
5674.1
5674.65
5674.92
5674.5
5673.06
5672.68
5671.73
5673.12
5673.98
5674.57
5674.8
5674.32
5672.83
5672.33
5672.55
5673.71
5674.45
5674.87
5674.99
5674.44
5672.95
5672.45
5673.59
5674.33
5674.79
5675.02
5674.97
5674.28
5672.8
5672.39
5727.09
5723.04
5719.56
5716.69
5714.44
5712.67
5711.29
5710.2
5732.23
5726.37
5721.93
5718.05
5715.26
5713.08
5711.38
5710.04
5735.4
5727.9
5723.14
5718.78
5715.65
5713.3
5711.49
5710.06
5736.48
5728.96
5723.27
5719.06
5715.9
5713.54
5711.75
5710.38
5735.06
5728.61
5723.02
5718.93
5715.83
5713.49
5711.68
5710.27
5732.51
5726.69
5721.9
5718.23
5715.43
5713.26
5711.56
5710.2
5728.03
5723.73
5720.09
5717.15
5714.81
5712.95
5711.46
5710.27
5704.83
5704.83
5704.81
5704.77
5704.73
5704.7
5704.67
5704.65
5704.6
5704.66
5704.73
5704.72
5704.7
5704.67
5704.62
5704.58
5704.22
5704.41
5704.61
5704.7
5704.73
5704.72
5704.69
5704.65
5703.9
5704.36
5704.64
5704.82
5704.9
5704.93
5704.92
5704.9
5704.19
5704.55
5704.76
5704.89
5704.94
5704.94
5704.91
5704.87
5704.52
5704.69
5704.78
5704.79
5704.76
5704.71
5704.66
5704.61
5704.7
5704.72
5704.7
5704.66
5704.61
5704.57
5704.53
5704.51
5686.82
5689.68
5691.96
5693.78
5695.23
5696.4
5697.38
5698.23
5683.15
5687.32
5690.4
5692.73
5694.53
5695.94
5697
5697.82
5679.76
5685.3
5689.2
5692.03
5694.15
5695.78
5697.06
5698.08
5677.99
5684.38
5688.76
5691.87
5694.17
5695.92
5697.3
5698.42
5679.02
5684.94
5689.06
5692.03
5694.24
5695.88
5697.15
5698.21
5681.88
5686.55
5689.9
5692.42
5694.37
5695.63
5696.54
5697.57
5685.39
5688.55
5691.08
5693.12
5694.77
5696.11
5697.19
5698.1
5681.12
5683.87
5686.2
5688.22
5690.05
5691.73
5693.53
5695.53
5677.83
5681.52
5684.22
5686.58
5688.84
5690.94
5692.9
5694.91
5675.19
5679.93
5683.25
5686.07
5688.56
5690.77
5692.96
5695.18
5673.85
5679.53
5683.31
5686.19
5688.66
5690.94
5693.2
5695.49
5674.28
5679.8
5683.38
5686.19
5688.7
5690.96
5693.21
5695.52
5676.86
5681
5683.66
5686.26
5688.78
5691.23
5693.26
5695.43
5679.96
5682.9
5685.5
5687.84
5689.94
5691.93
5693.95
5696.05
5673.14
5674.03
5674.54
5674.79
5674.72
5674.07
5672.82
5672.56
5671.72
5672.65
5673.63
5674.34
5674.55
5674.15
5672.85
5672.76
5671.07
5672.47
5673.51
5674.38
5674.8
5674.48
5673.24
5672.48
5671.12
5673.22
5674.2
5674.81
5674.99
5674.6
5673.71
5674.04
5671.53
5673.31
5674.22
5675.02
5675.45
5674.91
5672.32
5672.23
5672.71
5673.26
5673.49
5675.3
5675.82
5675.31
5673.96
5673.91
5673.89
5674.81
5675.6
5676.15
5676.41
5676.01
5674.82
5674.62
5709.4
5709.46
5709.41
5709.28
5709.31
5709.32
5709.25
5705.13
5705.19
5705.14
5705.11
5705.01
5704.93
5704.81
5699.57
5699.61
5699.62
5699.58
5699.53
5699.43
5699.24
5698.76
5698.79
5698.75
5698.68
5698.58
5698.45
5698.16
5677.26
5677.34
5677.41
5677.46
5677.4
5677.37
5677.32
5709.29
5709.06
5709.18
5709.35
5708.97
5709
5709.35
5704.5
5704.45
5704.66
5704.79
5704.47
5704.45
5704.51
5698.9
5698.76
5698.89
5699.01
5698.68
5698.7
5698.85
5697.95
5697.42
5697.47
5697.28
5697.17
5697.37
5697.89
5679.52
5679.06
5680.1
5680.67
5680.12
5679.01
5678.5
5709.19
5709.17
5709.27
5709.24
5709.03
5709.17
5709.52
5704.62
5704.73
5704.89
5704.85
5704.78
5704.9
5705.02
5698.99
5699.06
5699.27
5699.16
5699.2
5699.3
5699.48
5698.14
5698.24
5698.33
5698.2
5698.33
5698.49
5698.7
5678.34
5678.43
5678.41
5678.58
5677.95
5677.74
5677.41
5709.33
5709.08
5709.03
5709.42
5709.26
5709.2
5709.28
5704.67
5704.56
5704.61
5704.89
5704.83
5704.58
5704.52
5699.02
5698.64
5698.82
5699.29
5699.09
5698.43
5698.95
5697.6
5697.07
5696.42
5697.42
5697.49
5697.63
5697.97
5677.71
5678.69
5678.81
5681.25
5678.86
5679.4
5679.49
5708.22
5707.08
5706.36
5705.91
5705.61
5705.41
5705.25
5705.11
5708.28
5707.18
5706.45
5705.98
5705.67
5705.45
5705.28
5705.14
5708.23
5707.17
5706.46
5705.98
5705.67
5705.45
5705.28
5705.13
5708.14
5707.06
5706.4
5705.98
5705.66
5705.42
5705.26
5705.12
5708.12
5707.06
5706.36
5705.9
5705.6
5705.4
5705.24
5705.1
5708.13
5707.04
5706.33
5705.86
5705.56
5705.36
5705.2
5705.07
5707.99
5706.86
5706.16
5705.72
5705.44
5705.25
5705.11
5704.98
5705.17
5705.09
5705.01
5704.93
5704.88
5704.84
5704.8
5704.75
5705.24
5705.17
5705.08
5705.01
5704.95
5704.9
5704.85
5704.8
5705.22
5705.16
5705.08
5705.01
5704.96
5704.91
5704.86
5704.81
5705.18
5705.14
5705.08
5705.01
5704.95
5704.9
5704.85
5704.8
5705.08
5705.04
5704.98
5704.92
5704.88
5704.84
5704.81
5704.76
5704.99
5704.94
5704.88
5704.83
5704.8
5704.77
5704.74
5704.7
5704.83
5704.77
5704.72
5704.67
5704.65
5704.63
5704.61
5704.58
5700.84
5702.08
5702.95
5703.53
5703.91
5704.15
5704.29
5704.36
5700.87
5702.14
5703.01
5703.6
5703.98
5704.21
5704.35
5704.42
5700.87
5702.14
5703.02
5703.6
5703.98
5704.22
5704.36
5704.42
5700.87
5702.12
5702.99
5703.58
5703.96
5704.2
5704.34
5704.41
5700.84
5702.08
5702.95
5703.53
5703.91
5704.15
5704.29
5704.37
5700.76
5701.99
5702.86
5703.44
5703.82
5704.06
5704.21
5704.29
5700.56
5701.79
5702.66
5703.25
5703.64
5703.89
5704.06
5704.15
5701.05
5702.04
5702.7
5703.17
5703.5
5703.73
5703.89
5704
5701.1
5702.07
5702.73
5703.2
5703.53
5703.77
5703.94
5704.05
5701.06
5702.04
5702.7
5703.18
5703.52
5703.76
5703.93
5704.05
5700.96
5701.96
5702.64
5703.14
5703.48
5703.73
5703.91
5704.03
5700.82
5701.84
5702.54
5703.04
5703.4
5703.66
5703.85
5703.97
5700.66
5701.69
5702.39
5702.91
5703.28
5703.55
5703.75
5703.89
5700.38
5701.44
5702.17
5702.7
5703.09
5703.37
5703.58
5703.73
5688.99
5696.18
5699.57
5701.38
5702.41
5703.02
5703.39
5703.62
5688.99
5696.18
5699.58
5701.39
5702.43
5703.04
5703.42
5703.65
5688.99
5696.16
5699.56
5701.38
5702.42
5703.04
5703.42
5703.65
5688.99
5696.15
5699.54
5701.36
5702.39
5703.02
5703.4
5703.63
5688.95
5696.1
5699.49
5701.3
5702.34
5702.96
5703.34
5703.58
5688.96
5696.06
5699.43
5701.23
5702.26
5702.88
5703.27
5703.51
5688.97
5696.01
5699.34
5701.12
5702.13
5702.74
5703.13
5703.37
5707.92
5706.73
5705.98
5705.5
5705.19
5705
5704.86
5704.76
5707.76
5706.58
5705.81
5705.3
5704.97
5704.75
5704.58
5704.44
5707.84
5706.61
5705.79
5705.22
5704.84
5704.58
5704.38
5704.23
5708.11
5706.92
5706.1
5705.51
5705.08
5704.78
5704.57
5704.41
5707.63
5706.41
5705.61
5705.08
5704.72
5704.49
5704.32
5704.18
5707.71
5706.55
5705.8
5705.3
5704.97
5704.76
5704.6
5704.46
5707.99
5706.79
5706.03
5705.54
5705.21
5705
5704.85
5704.74
5704.49
5704.4
5704.31
5704.25
5704.21
5704.19
5704.18
5704.16
5704.46
5704.42
5704.29
5704.2
5704.12
5704.07
5704.03
5703.99
5704.6
5704.47
5704.35
5704.22
5704.1
5704
5703.92
5703.85
5704.74
5704.61
5704.48
5704.35
5704.24
5704.14
5704.07
5704.01
5704.43
5704.33
5704.22
5704.11
5704.02
5703.94
5703.87
5703.8
5704.45
5704.38
5704.3
5704.22
5704.15
5704.1
5704.06
5704.02
5704.53
5704.46
5704.38
5704.32
5704.28
5704.26
5704.24
5704.22
5700.19
5701.39
5702.23
5702.81
5703.19
5703.44
5703.6
5703.7
5699.98
5701.13
5702.01
5702.61
5703.01
5703.27
5703.44
5703.54
5700.08
5701.21
5702.01
5702.55
5702.92
5703.16
5703.31
5703.38
5700.23
5701.38
5702.18
5702.72
5703.07
5703.3
5703.44
5703.52
5699.89
5701.01
5701.82
5702.38
5702.77
5703.04
5703.21
5703.31
5699.92
5701.12
5702
5702.6
5703.01
5703.28
5703.45
5703.56
5700.17
5701.41
5702.28
5702.88
5703.27
5703.52
5703.69
5703.78
5700.11
5701.16
5701.87
5702.38
5702.74
5703
5703.19
5703.32
5699.73
5700.96
5701.73
5702.23
5702.59
5702.84
5703.02
5703.16
5699.84
5701.25
5702.07
5702.59
5702.91
5703.11
5703.23
5703.28
5699.56
5700.95
5701.78
5702.3
5702.64
5702.87
5703.03
5703.14
5699.57
5701
5701.82
5702.34
5702.68
5702.91
5703.04
5703.12
5699.73
5700.89
5701.65
5702.19
5702.57
5702.83
5703.02
5703.17
5700.12
5701.23
5701.97
5702.49
5702.85
5703.11
5703.29
5703.42
5690.33
5696.61
5699.54
5701.1
5701.98
5702.51
5702.84
5703.05
5690.31
5696.56
5699.44
5700.96
5701.85
5702.37
5702.68
5702.87
5690.54
5696.82
5699.74
5701.26
5702.12
5702.6
5702.88
5703.07
5690.86
5697.05
5699.7
5701.17
5701.99
5702.45
5702.72
5702.89
5690.27
5695.83
5699.35
5701.01
5701.9
5702.37
5702.64
5702.87
5689.6
5695.69
5699.15
5700.86
5701.78
5702.32
5702.62
5702.84
5689.63
5696.22
5699.34
5701.02
5701.97
5702.54
5702.9
5703.12
5707.85
5706.69
5705.96
5705.5
5705.21
5705.02
5704.9
5704.8
5707.9
5706.75
5706.03
5705.54
5705.17
5704.91
5704.74
5704.64
5708
5706.84
5706.07
5705.54
5705.16
5704.89
5704.69
5704.54
5708.03
5706.9
5706.13
5705.59
5705.21
5704.94
5704.74
5704.59
5707.78
5706.64
5705.9
5705.41
5705.07
5704.82
5704.63
5704.49
5707.96
5706.84
5706.15
5705.69
5705.36
5705.12
5704.95
5704.83
5708.26
5707.11
5706.37
5705.89
5705.56
5705.34
5705.18
5705.05
5704.62
5704.54
5704.46
5704.41
5704.37
5704.35
5704.34
5704.32
5704.73
5704.65
5704.55
5704.45
5704.33
5704.26
5704.22
5704.23
5704.87
5704.77
5704.67
5704.58
5704.48
5704.39
5704.3
5704.23
5704.83
5704.72
5704.6
5704.49
5704.4
5704.33
5704.26
5704.21
5704.78
5704.7
5704.61
5704.5
5704.4
5704.29
5704.15
5704.09
5704.95
5704.86
5704.77
5704.68
5704.61
5704.52
5704.45
5704.45
5705.07
5705
5704.91
5704.84
5704.78
5704.74
5704.7
5704.66
5700.32
5701.58
5702.45
5703.03
5703.42
5703.67
5703.83
5703.92
5700.32
5701.56
5702.44
5703.03
5703.38
5703.55
5703.73
5703.85
5700.54
5701.78
5702.66
5703.25
5703.61
5703.67
5703.67
5703.73
5700.4
5701.6
5702.45
5703.02
5703.39
5703.62
5703.75
5703.8
5700.43
5701.6
5702.48
5703.08
5703.47
5703.55
5703.5
5703.57
5700.51
5701.76
5702.65
5703.25
5703.63
5703.85
5703.96
5704.01
5700.73
5701.99
5702.86
5703.45
5703.83
5704.07
5704.21
5704.29
5700.38
5701.43
5702.14
5702.64
5703
5703.25
5703.44
5703.56
5700.55
5701.6
5702.29
5702.78
5703.11
5703.34
5703.49
5703.58
5700.71
5701.85
5702.53
5702.99
5703.29
5703.4
5703.59
5703.82
5700.69
5701.92
5702.65
5703.12
5703.41
5703.58
5703.64
5703.66
5700.72
5701.88
5702.55
5703.01
5703.33
5703.55
5703.65
5703.36
5700.84
5701.89
5702.57
5703.04
5703.35
5703.57
5703.71
5703.74
5701.01
5702
5702.66
5703.13
5703.45
5703.68
5703.84
5703.95
5689.59
5696.3
5699.46
5701.14
5702.1
5702.67
5703.03
5703.25
5689.62
5696.36
5699.54
5701.23
5702.2
5702.77
5703.12
5703.33
5689.61
5696.42
5699.63
5701.34
5702.33
5702.92
5703.29
5703.5
5689.74
5696.56
5699.78
5701.48
5702.46
5703.04
5703.13
5703.13
5689.37
5696.33
5699.62
5701.36
5702.36
5702.95
5703.32
5703.52
5689.25
5696.27
5699.59
5701.35
5702.36
5702.95
5703.31
5703.52
5689.09
5696.21
5699.58
5701.37
5702.39
5702.99
5703.36
5703.59
5708.08
5706.89
5706.12
5705.62
5705.3
5705.08
5704.93
5704.82
5707.83
5706.66
5705.89
5705.37
5705.02
5704.77
5704.6
5704.47
5707.73
5706.53
5705.75
5705.23
5704.87
5704.62
5704.43
5704.29
5708.19
5706.99
5706.17
5705.59
5705.18
5704.88
5704.67
5704.52
5707.97
5706.75
5705.93
5705.36
5704.97
5704.69
5704.48
5704.32
5707.9
5706.71
5705.92
5705.37
5705.02
5704.79
5704.63
5704.5
5707.91
5706.71
5705.95
5705.46
5705.16
5704.98
5704.86
5704.76
5704.66
5704.6
5704.53
5704.48
5704.44
5704.42
5704.4
5704.38
5704.53
5704.45
5704.38
5704.28
5704.21
5704.15
5704.11
5704.08
5704.55
5704.43
5704.31
5704.2
5704.11
5704.03
5703.96
5703.9
5704.83
5704.71
5704.59
5704.46
5704.36
5704.27
5704.2
5704.14
5704.75
5704.59
5704.43
5704.3
5704.18
5704.09
5704.01
5703.96
5704.52
5704.35
5704.23
5704.15
5704.15
5704.12
5704.09
5704.06
5704.5
5704.4
5704.31
5704.24
5704.21
5704.19
5704.19
5704.17
5700.23
5701.46
5702.32
5702.94
5703.36
5703.63
5703.82
5703.93
5699.81
5701.11
5701.94
5702.56
5702.98
5703.28
5703.47
5703.59
5699.89
5701.03
5701.98
5702.51
5702.87
5703.11
5703.27
5703.37
5700.47
5701.57
5702.35
5702.88
5703.22
5703.44
5703.57
5703.65
5700.29
5701.39
5702.06
5702.37
5702.89
5703.28
5703.42
5703.51
5699.73
5701.34
5702.18
5702.74
5703.11
5703.36
5703.52
5703.61
5700.24
5701.42
5702.26
5702.82
5703.2
5703.45
5703.61
5703.71
5699.93
5701.08
5701.85
5702.4
5702.81
5703.14
5703.37
5703.53
5699.48
5700.75
5701.49
5702.02
5702.49
5702.81
5703.02
5703.18
5698.25
5700.02
5701.73
5702.3
5702.68
5702.93
5703.1
5703.2
5699.67
5701.05
5701.86
5702.35
5702.69
5703.01
5703.18
5703.28
5699.83
5701.2
5701.68
5702.14
5702.78
5703.19
5703.32
5703.4
5699.93
5701.05
5701.66
5702.13
5702.51
5702.86
5703.08
5703.21
5700.12
5701.16
5701.87
5702.38
5702.74
5703.01
5703.2
5703.34
5689.19
5695.99
5699.15
5700.82
5701.82
5702.53
5702.95
5703.21
5689.51
5695.23
5697.95
5699.51
5700.55
5702.28
5702.66
5702.89
5689.53
5695.44
5698.49
5701.15
5701.72
5702.39
5702.79
5702.99
5691.44
5697.01
5699.8
5701.24
5702.03
5702.54
5702.82
5702.99
5689.43
5695.58
5699.24
5701.15
5702.09
5702.53
5702.98
5703.2
5690.15
5696.38
5699.21
5700.69
5701.61
5702.34
5702.73
5702.93
5690.32
5696.61
5699.55
5701.1
5701.98
5702.52
5702.86
5703.07
5705.02
5704.96
5704.9
5704.85
5704.81
5704.78
5704.76
5704.75
5705.04
5704.97
5704.92
5704.87
5704.83
5704.8
5704.78
5704.78
5705.04
5704.97
5704.91
5704.86
5704.83
5704.8
5704.78
5704.78
5705.02
5704.96
5704.9
5704.85
5704.82
5704.79
5704.77
5704.77
5705
5704.94
5704.88
5704.83
5704.79
5704.77
5704.75
5704.75
5704.97
5704.91
5704.85
5704.8
5704.76
5704.73
5704.71
5704.71
5704.9
5704.84
5704.78
5704.73
5704.69
5704.65
5704.63
5704.63
5704.71
5704.69
5704.67
5704.65
5704.63
5704.62
5704.6
5704.6
5704.76
5704.73
5704.71
5704.68
5704.67
5704.65
5704.64
5704.63
5704.77
5704.74
5704.71
5704.69
5704.67
5704.65
5704.64
5704.64
5704.76
5704.73
5704.7
5704.68
5704.66
5704.65
5704.63
5704.63
5704.72
5704.7
5704.67
5704.65
5704.63
5704.62
5704.6
5704.6
5704.66
5704.64
5704.62
5704.6
5704.58
5704.57
5704.56
5704.55
5704.55
5704.54
5704.52
5704.5
5704.49
5704.48
5704.47
5704.46
5704.39
5704.41
5704.42
5704.43
5704.44
5704.44
5704.44
5704.43
5704.45
5704.46
5704.47
5704.48
5704.48
5704.48
5704.48
5704.48
5704.45
5704.47
5704.48
5704.48
5704.49
5704.49
5704.48
5704.48
5704.44
5704.46
5704.47
5704.48
5704.48
5704.48
5704.48
5704.47
5704.4
5704.42
5704.43
5704.44
5704.44
5704.44
5704.44
5704.44
5704.33
5704.35
5704.37
5704.38
5704.39
5704.39
5704.39
5704.39
5704.2
5704.23
5704.25
5704.26
5704.27
5704.28
5704.28
5704.28
5704.06
5704.1
5704.13
5704.16
5704.17
5704.18
5704.18
5704.18
5704.11
5704.15
5704.18
5704.21
5704.22
5704.23
5704.23
5704.23
5704.11
5704.15
5704.19
5704.21
5704.22
5704.23
5704.24
5704.24
5704.1
5704.14
5704.17
5704.2
5704.22
5704.23
5704.23
5704.23
5704.04
5704.09
5704.13
5704.15
5704.17
5704.18
5704.19
5704.19
5703.96
5704.02
5704.06
5704.08
5704.1
5704.12
5704.12
5704.12
5703.82
5703.87
5703.92
5703.95
5703.98
5703.99
5704
5704
5703.74
5703.81
5703.86
5703.9
5703.93
5703.94
5703.95
5703.95
5703.77
5703.85
5703.9
5703.94
5703.97
5703.98
5703.99
5703.99
5703.77
5703.84
5703.9
5703.94
5703.97
5703.99
5704
5704
5703.76
5703.83
5703.89
5703.93
5703.96
5703.98
5703.99
5703.99
5703.7
5703.78
5703.84
5703.88
5703.91
5703.93
5703.94
5703.94
5703.63
5703.71
5703.77
5703.82
5703.85
5703.87
5703.88
5703.88
5703.5
5703.58
5703.64
5703.69
5703.72
5703.74
5703.75
5703.76
5704.69
5704.63
5704.58
5704.53
5704.48
5704.43
5704.4
5704.39
5704.36
5704.31
5704.26
5704.22
5704.18
5704.16
5704.15
5704.15
5704.13
5704.08
5704.04
5704.01
5703.99
5703.98
5703.97
5703.99
5704.33
5704.28
5704.25
5704.22
5704.21
5704.2
5704.19
5704.21
5704.1
5704.05
5704.01
5703.99
5703.97
5703.96
5703.96
5703.97
5704.38
5704.32
5704.27
5704.23
5704.19
5704.17
5704.16
5704.16
5704.66
5704.61
5704.56
5704.51
5704.46
5704.43
5704.4
5704.39
5704.15
5704.14
5704.13
5704.12
5704.11
5704.1
5704.1
5704.09
5703.97
5703.95
5703.94
5703.92
5703.91
5703.92
5703.89
5703.88
5703.8
5703.78
5703.76
5703.74
5703.74
5703.74
5703.73
5703.7
5703.98
5703.96
5703.95
5703.94
5703.94
5703.94
5703.94
5703.94
5703.76
5703.73
5703.72
5703.71
5703.71
5703.71
5703.7
5703.68
5704
5703.98
5703.97
5703.96
5703.95
5703.95
5703.92
5703.92
5704.2
5704.19
5704.18
5704.17
5704.16
5704.15
5704.14
5704.13
5703.75
5703.78
5703.8
5703.82
5703.83
5703.84
5703.84
5703.85
5703.6
5703.64
5703.62
5703.57
5703.59
5703.7
5703.73
5703.73
5703.41
5703.44
5703.45
5703.45
5703.45
5703.46
5703.43
5703.34
5703.56
5703.59
5703.62
5703.64
5703.65
5703.66
5703.66
5703.63
5703.35
5703.37
5703.38
5703.39
5703.41
5703.42
5703.37
5703.34
5703.61
5703.64
5703.63
5703.58
5703.66
5703.73
5703.74
5703.75
5703.83
5703.86
5703.88
5703.89
5703.9
5703.91
5703.91
5703.91
5703.4
5703.45
5703.49
5703.52
5703.54
5703.55
5703.56
5703.56
5703.24
5703.3
5703.22
5703.21
5703.24
5703.29
5703.42
5703.41
5703.28
5703.29
5703.3
5703.3
5703.3
5703.25
5703.13
5703.12
5703.21
5703.26
5703.3
5703.33
5703.35
5703.37
5703.34
5703.26
5703.16
5703.18
5703.18
5703.18
5703.19
5703.21
5703.13
5703.1
5703.25
5703.31
5703.26
5703.09
5703.18
5703.37
5703.44
5703.44
5703.49
5703.54
5703.58
5703.6
5703.62
5703.64
5703.65
5703.65
5703.16
5703.22
5703.27
5703.31
5703.33
5703.35
5703.36
5703.37
5702.99
5703.05
5702.98
5702.93
5702.96
5703.08
5703.1
5703.08
5703.15
5702.93
5702.73
5703.11
5703.17
5703.2
5703.04
5702.99
5702.97
5703.02
5703.06
5703.1
5703.13
5703.15
5703.08
5702.91
5702.99
5703.01
5702.59
5702.36
5702.93
5703.01
5703.03
5702.99
5702.99
5703.06
5702.96
5702.76
5702.9
5703.07
5703.11
5703.14
5703.23
5703.3
5703.36
5703.4
5703.42
5703.44
5703.45
5703.46
5704.73
5704.68
5704.63
5704.58
5704.53
5704.5
5704.47
5704.46
5704.57
5704.53
5704.49
5704.45
5704.42
5704.39
5704.37
5704.37
5704.45
5704.4
5704.35
5704.32
5704.3
5704.28
5704.28
5704.29
5704.52
5704.47
5704.44
5704.42
5704.4
5704.39
5704.39
5704.4
5704.42
5704.38
5704.35
5704.34
5704.32
5704.32
5704.31
5704.33
5704.76
5704.71
5704.66
5704.62
5704.59
5704.57
5704.55
5704.55
5704.96
5704.91
5704.85
5704.8
5704.76
5704.73
5704.71
5704.71
5704.31
5704.3
5704.28
5704.27
5704.26
5704.25
5704.24
5704.24
5704.22
5704.2
5704.19
5704.19
5704.19
5704.18
5704.18
5704.17
5704.19
5704.18
5704.16
5704.14
5704.13
5704.13
5704.13
5704.13
5704.2
5704.19
5704.17
5704.17
5704.17
5704.17
5704.17
5704.18
5704.14
5704.13
5704.13
5704.13
5704.13
5704.13
5704.13
5704.14
5704.43
5704.41
5704.4
5704.4
5704.39
5704.38
5704.38
5704.38
5704.63
5704.61
5704.6
5704.58
5704.56
5704.55
5704.54
5704.54
5703.97
5703.99
5704.01
5704.03
5704.04
5704.04
5704.04
5704.04
5703.86
5703.86
5703.88
5703.91
5703.91
5703.91
5703.93
5703.94
5703.74
5703.75
5703.74
5703.85
5703.99
5704.02
5704.01
5704.01
5703.79
5703.73
5703.83
5703.91
5703.92
5703.94
5703.94
5703.95
5703.6
5703.62
5703.72
5704
5704
5703.98
5703.98
5703.99
5704.07
5704.12
5704.14
5704.15
5704.16
5704.16
5704.17
5704.17
5704.32
5704.34
5704.36
5704.37
5704.37
5704.37
5704.37
5704.37
5703.64
5703.68
5703.72
5703.75
5703.77
5703.78
5703.79
5703.79
5703.62
5703.64
5703.65
5703.68
5703.69
5703.67
5703.65
5703.66
5703.88
5703.75
5703.6
5703.61
5703.64
5703.62
5703.61
5703.64
5703.67
5703.61
5703.67
5703.76
5703.76
5703.76
5703.75
5703.74
5703.34
5703.4
5703.74
5703.83
5703.83
5703.74
5703.69
5703.69
5703.76
5703.86
5703.91
5703.93
5703.94
5703.93
5703.93
5703.93
5704.01
5704.05
5704.08
5704.1
5704.12
5704.12
5704.13
5704.13
5703.36
5703.44
5703.49
5703.53
5703.55
5703.57
5703.58
5703.59
5703.44
5703.5
5703.54
5703.57
5703.59
5703.6
5703.58
5703.55
5703.61
5703.71
5703.77
5703.8
5703.83
5703.77
5703.58
5703.47
5703.22
5703.26
5703.53
5703.59
5703.7
5703.74
5703.73
5703.72
5703.57
5703.67
5703.71
5703.69
5703.69
5703.68
5703.55
5703.54
5703.63
5703.69
5703.73
5703.77
5703.78
5703.79
5703.78
5703.77
5703.7
5703.77
5703.82
5703.86
5703.89
5703.9
5703.91
5703.91
5704.74
5704.69
5704.64
5704.59
5704.55
5704.52
5704.5
5704.5
5704.39
5704.34
5704.29
5704.26
5704.23
5704.22
5704.21
5704.22
5704.2
5704.16
5704.12
5704.1
5704.08
5704.08
5704.08
5704.09
5704.44
5704.39
5704.36
5704.33
5704.32
5704.31
5704.3
5704.32
5704.23
5704.17
5704.13
5704.1
5704.07
5704.06
5704.06
5704.06
5704.42
5704.37
5704.32
5704.28
5704.25
5704.22
5704.21
5704.21
5704.69
5704.64
5704.59
5704.54
5704.49
5704.44
5704.41
5704.4
5704.36
5704.36
5704.35
5704.34
5704.33
5704.32
5704.31
5704.31
5704.06
5704.04
5704.03
5704.03
5704.02
5704.02
5704.02
5704.04
5703.87
5703.85
5703.84
5703.83
5703.83
5703.84
5703.84
5703.84
5704.11
5704.09
5704.08
5704.06
5704.06
5704.06
5704.06
5704.05
5703.91
5703.89
5703.87
5703.85
5703.84
5703.84
5703.83
5703.82
5704.03
5704.02
5704.01
5704
5703.98
5703.99
5703.98
5703.97
5704.16
5704.16
5704.15
5704.14
5704.13
5704.12
5704.12
5704.11
5703.98
5704.02
5704.05
5704.07
5704.09
5704.1
5704.11
5704.11
5703.65
5703.69
5703.71
5703.67
5703.68
5703.79
5703.82
5703.83
5703.42
5703.45
5703.47
5703.48
5703.49
5703.5
5703.49
5703.47
5703.69
5703.72
5703.74
5703.75
5703.77
5703.78
5703.77
5703.72
5703.54
5703.56
5703.57
5703.57
5703.57
5703.58
5703.55
5703.53
5703.67
5703.7
5703.69
5703.63
5703.68
5703.77
5703.79
5703.79
5703.77
5703.8
5703.82
5703.84
5703.86
5703.86
5703.87
5703.87
5703.63
5703.67
5703.7
5703.76
5703.8
5703.82
5703.83
5703.83
5703.28
5703.31
5703.19
5703.18
5703.22
5703.44
5703.49
5703.48
5703.25
5703.28
5703.29
5703.29
5703.28
5703.28
5703.26
5703.25
5703.34
5703.38
5703.41
5703.44
5703.46
5703.47
5703.46
5703.37
5703.42
5703.43
5703.43
5703.43
5703.44
5703.45
5703.44
5703.42
5703.3
5703.34
5703.23
5703.24
5703.35
5703.46
5703.47
5703.45
5703.42
5703.47
5703.51
5703.54
5703.56
5703.58
5703.59
5703.59
5703.34
5703.41
5703.45
5703.5
5703.57
5703.6
5703.61
5703.61
5703.03