/*--------------------------------*- C++ -*----------------------------------*\
| =========                 |                                                 |
| \\      /  F ield         | OpenFOAM: The Open Source CFD Toolbox           |
|  \\    /   O peration     | Version:  plus.master.MPPICInterFoam            |
|   \\  /    A nd           | Web:      www.OpenFOAM.com                      |
|    \\/     M anipulation  |                                                 |
\*---------------------------------------------------------------------------*/
FoamFile
{
    version     2.0;
    format      ascii;
    class       volScalarField;
    location    "1.6";
    object      epsilon;
}
// * * * * * * * * * * * * * * * * * * * * * * * * * * * * * * * * * * * * * //

dimensions      [0 2 -3 0 0 0 0];

internalField   nonuniform List<scalar> 
11821
(
0.00317666
0.00472289
0.00779237
0.00764664
0.00452057
0.00329722
0.00250652
0.00487243
0.0241491
0.0705459
0.0798795
0.0280596
0.0109731
0.00322764
0.0101141
0.090834
0.170944
0.166805
0.123596
0.028454
0.00476414
0.0132845
0.173199
0.235173
0.276781
0.288199
0.0445969
0.00548478
0.00616886
0.0447164
0.167348
0.253722
0.0602923
0.0188911
0.00426343
0.00397984
0.0142595
0.0392076
0.0436636
0.017909
0.00798148
0.00304605
0.00287173
0.00412506
0.00653301
0.00628664
0.0041932
0.00293851
0.00247291
0.0281191
0.0643684
0.0950898
0.074396
0.0490838
0.0233752
0.0100746
0.0693006
0.178535
0.323447
0.279174
0.146999
0.0548023
0.0194492
0.136007
0.414578
0.464515
0.507091
0.40023
0.11555
0.0320436
0.153263
0.552519
0.532745
0.576413
0.585358
0.132892
0.0333835
0.0799077
0.230442
0.568045
0.547963
0.203496
0.0643141
0.0224067
0.0344304
0.0783737
0.149043
0.1371
0.0660791
0.0284041
0.0131508
0.0152193
0.0292291
0.0452188
0.0419971
0.0262804
0.014337
0.00729971
0.0515753
0.118751
0.18785
0.150749
0.0885667
0.0403739
0.0181126
0.127401
0.328626
0.587232
0.463255
0.243417
0.0892516
0.0321983
0.244255
0.681515
0.686337
0.709885
0.546303
0.176608
0.0522761
0.254565
0.733878
0.755711
0.755957
0.652855
0.193584
0.0568959
0.139878
0.362626
0.751945
0.645211
0.291166
0.104041
0.0392524
0.0619016
0.133864
0.234881
0.206467
0.108822
0.0494856
0.0243167
0.0288647
0.0512376
0.0763446
0.070793
0.0460423
0.0266822
0.0147183
0.071763
0.155149
0.247446
0.200582
0.114028
0.0561682
0.0280838
0.166602
0.417026
0.744955
0.56398
0.284974
0.110851
0.047132
0.307964
0.828916
0.797407
0.778952
0.578649
0.199248
0.069992
0.310685
0.798146
0.83956
0.8008
0.628336
0.216705
0.0763397
0.179443
0.429823
0.798869
0.650066
0.323652
0.129364
0.0586701
0.0881621
0.171948
0.281406
0.242938
0.137743
0.0726359
0.0411941
0.0460739
0.0743364
0.102662
0.0956802
0.0680683
0.0444418
0.0269252
0.118635
0.203732
0.30119
0.244015
0.149657
0.0936253
0.0579071
0.218987
0.498607
0.893289
0.670167
0.321566
0.145794
0.0828936
0.369634
0.971587
0.880246
0.85769
0.633139
0.222532
0.100868
0.37455
0.934702
0.893645
0.818613
0.694094
0.239642
0.105833
0.227585
0.511938
0.931217
0.748111
0.360449
0.162151
0.0950986
0.135106
0.22006
0.327811
0.282035
0.175774
0.11446
0.0791128
0.0863059
0.117421
0.140836
0.131943
0.107833
0.0835415
0.0558858
0.00233371
0.00220053
0.00182399
0.00143847
0.00109581
0.000847582
0.000672062
0.000555582
0.00286524
0.00266322
0.00229751
0.00194079
0.00163464
0.00136843
0.00110859
0.000879626
0.00328548
0.00280128
0.00241662
0.00206868
0.00179123
0.00159498
0.00143997
0.0012553
0.00330647
0.00277338
0.00252262
0.00227312
0.00208438
0.00198579
0.00186521
0.00169011
0.00325637
0.00284926
0.00243668
0.00209396
0.00181649
0.00162213
0.00146515
0.00128298
0.00272628
0.00258455
0.00225092
0.00189398
0.00157889
0.00129339
0.00104804
0.000838063
0.00225637
0.00209514
0.00177379
0.00134504
0.00102008
0.000789882
0.000632889
0.000536122
0.00502452
0.00315848
0.00217062
0.00159192
0.0012263
0.000975919
0.000794693
0.000661565
0.00788991
0.0041966
0.00258723
0.0017659
0.00131708
0.0010419
0.000848746
0.000700413
0.0111235
0.00531017
0.00303318
0.00191792
0.00135772
0.00106852
0.000895965
0.000764392
0.0114719
0.00572394
0.00344486
0.00218781
0.00148932
0.00112842
0.00092045
0.000772828
0.00945803
0.00503677
0.00299667
0.00192618
0.00137293
0.00108305
0.000905894
0.000768037
0.00650067
0.00388184
0.00251559
0.00175665
0.0013225
0.00105335
0.000861712
0.000709857
0.00420213
0.00282998
0.00201206
0.00150277
0.00116927
0.000937739
0.000769827
0.00064651
0.00853603
0.00478079
0.0028584
0.00188442
0.0013837
0.00110625
0.000934093
0.000803908
0.0136116
0.00674315
0.00366767
0.00218072
0.00147229
0.00111871
0.000923779
0.000790742
0.0197127
0.00935492
0.00475004
0.00260434
0.00161541
0.00115571
0.000924479
0.000784154
0.0216496
0.0104725
0.00533613
0.0028657
0.0017018
0.00117231
0.000918009
0.000772901
0.0178164
0.00909141
0.00471229
0.00256174
0.00158217
0.00113513
0.000913602
0.000778561
0.0122004
0.00645834
0.00356987
0.00212321
0.00143753
0.00109982
0.000914216
0.000785383
0.00759501
0.00443991
0.00271744
0.00181696
0.00134707
0.00108505
0.000920824
0.00079474
0.0133298
0.00753035
0.00429564
0.00268495
0.00188117
0.00147724
0.0013055
0.00124747
0.0219272
0.011443
0.00617048
0.00343159
0.00215707
0.00156345
0.00131819
0.00124861
0.0313551
0.016119
0.00830903
0.00439016
0.00254624
0.00170412
0.00135301
0.00125278
0.0347699
0.0181049
0.00925615
0.00482317
0.00271733
0.00175425
0.00135653
0.00124361
0.0300312
0.0160532
0.00813268
0.0040782
0.0023315
0.00158502
0.00129239
0.00122216
0.0217552
0.0117244
0.00596957
0.00317382
0.00198087
0.0014612
0.00126215
0.00121615
0.0138149
0.00768478
0.00419419
0.00254493
0.00177547
0.00141086
0.00126559
0.00122232
0.0263413
0.013397
0.0066754
0.00365408
0.0021511
0.00139147
0.00110563
0.00132887
0.0444892
0.0239914
0.011274
0.00536429
0.00276898
0.00159072
0.00111897
0.00124912
0.0573906
0.0333679
0.0166903
0.00768518
0.00365239
0.00191152
0.0012071
0.0012329
0.0609869
0.0353944
0.0181272
0.00843866
0.0039462
0.00201969
0.00123844
0.00122836
0.0569086
0.0316639
0.0145089
0.0063449
0.0030528
0.00165664
0.00110187
0.00118891
0.0430844
0.021774
0.00944668
0.00436943
0.00229202
0.00136678
0.00101674
0.00119572
0.0256155
0.012222
0.00580561
0.00312803
0.00185405
0.00123165
0.00101579
0.00127077
0.00263907
0.00230715
0.00193224
0.00152079
0.00115511
0.000883401
0.000695627
0.000571876
0.00321494
0.0031156
0.00278054
0.00235709
0.0019894
0.00169211
0.00142219
0.00116331
0.00397318
0.00374568
0.00354927
0.00308651
0.00258052
0.00221541
0.00194439
0.0017317
0.00540253
0.00404113
0.00376978
0.00331548
0.00286923
0.0025332
0.00228558
0.00212656
0.00476427
0.00389759
0.00354869
0.00305804
0.00257988
0.00222717
0.00196782
0.00176397
0.0034398
0.00311744
0.00274873
0.00238073
0.00202317
0.00171167
0.00144331
0.00120038
0.00274219
0.00242296
0.002083
0.00164975
0.00127217
0.000984938
0.000767963
0.000614273
0.00772787
0.00450753
0.00284696
0.00193342
0.00140491
0.00107316
0.000849877
0.000693142
0.015323
0.00800831
0.00458399
0.00276224
0.0018007
0.00128956
0.000994861
0.000801616
0.029412
0.0140191
0.00761657
0.00427154
0.00247116
0.00158517
0.0011504
0.000916268
0.0472162
0.019372
0.00971859
0.00546705
0.00319678
0.00201094
0.00144575
0.00114867
0.0432045
0.017159
0.00817664
0.0043066
0.00245831
0.00159283
0.00117032
0.000941051
0.0238598
0.00995589
0.00492246
0.00277886
0.00179538
0.00129866
0.0010103
0.00081789
0.0110013
0.00542972
0.00311215
0.00203695
0.00147131
0.00112386
0.000885517
0.000714786
0.014409
0.00770851
0.00422197
0.00248452
0.00165963
0.00124977
0.00102055
0.000862647
0.0277768
0.0139154
0.0068866
0.00348522
0.00199078
0.00134866
0.00104461
0.000868046
0.0526053
0.0238792
0.0110972
0.0050762
0.00251017
0.00150549
0.00108218
0.000871548
0.0839771
0.0323046
0.0137932
0.00611257
0.00293764
0.00167886
0.00113501
0.000868292
0.0776221
0.0284758
0.0114251
0.00495832
0.0024848
0.00151694
0.00109219
0.000874365
0.0420446
0.0162103
0.00681385
0.00328838
0.00191215
0.00132437
0.00103454
0.000861886
0.0190524
0.00833811
0.00406444
0.00233521
0.00158363
0.00121039
0.000996755
0.000847247
0.0231019
0.0125266
0.00644111
0.00352453
0.00225609
0.00167909
0.00143528
0.00134766
0.0425377
0.0221794
0.0107671
0.00502276
0.00272256
0.00180849
0.00144768
0.00134042
0.073734
0.0355919
0.0165148
0.00727493
0.00349205
0.00206839
0.00150844
0.0013356
0.109869
0.0453973
0.019963
0.00905196
0.00455055
0.00259758
0.00172481
0.00139971
0.102771
0.0402344
0.0165315
0.0073718
0.00375453
0.00224961
0.00159843
0.00137344
0.0578689
0.0236454
0.0101727
0.00492578
0.00280989
0.00188648
0.001489
0.00135837
0.0263661
0.0118616
0.00586312
0.00337082
0.00224532
0.00168738
0.00143765
0.00134531
0.0426502
0.0210342
0.00912898
0.00450789
0.00253505
0.00158445
0.00121352
0.00141714
0.0756872
0.0417676
0.018004
0.00725806
0.00343224
0.00188238
0.0012635
0.0013501
0.112197
0.0642092
0.0306001
0.0118294
0.00495183
0.00245396
0.00145636
0.00137673
0.14603
0.0731723
0.0377227
0.0175787
0.00776083
0.00359022
0.00189129
0.00151132
0.141117
0.0700699
0.0338728
0.0140895
0.00601354
0.00291492
0.00164035
0.00144242
0.0945868
0.0476518
0.0204755
0.00839173
0.00398223
0.00215009
0.00138469
0.00140441
0.0496353
0.0226436
0.00973996
0.00491213
0.00280807
0.00173688
0.00129626
0.00146546
0.00285723
0.00260061
0.00215509
0.00168789
0.00130967
0.00102072
0.000804696
0.000646951
0.00349557
0.00319537
0.00280192
0.00236525
0.00198296
0.00170907
0.0014828
0.00125074
0.00424588
0.00345383
0.00327607
0.0030505
0.00271387
0.00238124
0.00207454
0.00183091
0.00423762
0.00347218
0.00320417
0.00294263
0.00281119
0.00264912
0.00242195
0.00221655
0.00335896
0.00309844
0.00303708
0.00288652
0.00265473
0.00239167
0.00214806
0.0019254
0.00299411
0.00290207
0.0025398
0.00220692
0.00192556
0.00169828
0.00152394
0.00131983
0.00251591
0.00231797
0.00197605
0.00161558
0.0012884
0.00102774
0.000826616
0.000672535
0.0115709
0.00580749
0.00331332
0.00215703
0.00155976
0.00119778
0.000946965
0.000762613
0.0250727
0.0119998
0.00624036
0.00345918
0.00212661
0.00147236
0.00111309
0.000884348
0.0344343
0.0182855
0.0108194
0.00638573
0.00365202
0.00220925
0.00150587
0.00115152
0.0252858
0.0135889
0.00951028
0.00727917
0.0051586
0.00327011
0.00219229
0.0016228
0.0209136
0.0124647
0.00814373
0.00531945
0.00334697
0.00216621
0.0015236
0.00117323
0.011671
0.00689593
0.00435567
0.00281697
0.00191357
0.00139871
0.00108683
0.000875468
0.00591993
0.0037501
0.00255641
0.00186128
0.0014354
0.00114794
0.000932587
0.000764406
0.0193672
0.00866011
0.00423658
0.00241462
0.00162414
0.00123376
0.00101171
0.000857393
0.0425624
0.0186475
0.00834782
0.00390982
0.00213633
0.00141157
0.0010721
0.000879368
0.0633979
0.0284506
0.0139731
0.00646674
0.00305228
0.00172378
0.00118642
0.000931995
0.0522459
0.0252687
0.0143753
0.00787402
0.00386997
0.00204443
0.0012982
0.000969059
0.03642
0.0193047
0.0105543
0.00538112
0.0027476
0.00162793
0.00114772
0.000913713
0.0196617
0.0106959
0.00575092
0.00311814
0.00188168
0.00131291
0.00102867
0.000858751
0.00956075
0.0053913
0.00316851
0.00203574
0.00146395
0.00115548
0.000969113
0.000831873
0.0262864
0.0119494
0.0059417
0.00339376
0.00224865
0.00168547
0.0014338
0.00134055
0.0557992
0.0241722
0.0106563
0.00506524
0.00283125
0.00187365
0.00146314
0.00132676
0.084818
0.0370235
0.0167472
0.00762966
0.00379895
0.00223146
0.00156919
0.001339
0.0742121
0.0353193
0.0179311
0.00890995
0.00449044
0.00250829
0.00165843
0.00134553
0.0498844
0.0259919
0.0130856
0.00635706
0.00327772
0.00199037
0.00145226
0.00127524
0.0277307
0.0145771
0.00745734
0.0038825
0.00231978
0.00161933
0.00132866
0.00124446
0.0138797
0.00776583
0.00437394
0.0027084
0.00188807
0.00147963
0.00130669
0.00125022
0.0493877
0.0228647
0.00991224
0.00495721
0.00280832
0.00173494
0.00129658
0.00146732
0.0872656
0.0437656
0.0191858
0.00817229
0.0039455
0.00212845
0.00137414
0.00139852
0.117213
0.0603542
0.0299562
0.0129578
0.00567892
0.00278922
0.00159397
0.00141953
0.104734
0.0579081
0.0318141
0.0153982
0.00693306
0.00326697
0.00177536
0.00147181
0.0797231
0.0461341
0.0228613
0.00992416
0.00460747
0.00235352
0.00142063
0.00134979
0.051288
0.0267997
0.0120376
0.00554135
0.00289368
0.00167614
0.00118022
0.00129549
0.0265725
0.0131772
0.00647726
0.00357105
0.00212757
0.00139043
0.00111378
0.00133804
0.00226999
0.00200482
0.00172274
0.00138584
0.0010982
0.000867758
0.0006942
0.000576816
0.00277582
0.00266373
0.00230731
0.0019271
0.00163536
0.00141124
0.00121689
0.00104659
0.0034238
0.00331047
0.00306515
0.00273907
0.00235813
0.00203149
0.00180403
0.00162861
0.00414703
0.00387769
0.00377772
0.00349988
0.00303913
0.00266833
0.00238456
0.00217095
0.00425319
0.00385866
0.00365128
0.00327709
0.00273812
0.00231679
0.00202241
0.00180979
0.00340953
0.00310894
0.00267079
0.00225419
0.00189412
0.00161279
0.00138328
0.00117813
0.00261948
0.00231902
0.00187135
0.00146647
0.00114585
0.000899314
0.000716481
0.000589949
0.00461613
0.00312374
0.00222817
0.0016609
0.00128725
0.00102421
0.000830686
0.000686753
0.00799856
0.00500822
0.00329832
0.00223787
0.00158943
0.00118914
0.000932145
0.000756917
0.0135342
0.00839216
0.00552499
0.00359169
0.00233764
0.00159863
0.00118238
0.00093776
0.0192859
0.0119843
0.00806342
0.00541121
0.00353029
0.00234003
0.00165887
0.00129351
0.0199904
0.0117651
0.00740395
0.00460552
0.00283076
0.00182886
0.00129132
0.000995545
0.0137798
0.00774416
0.00466515
0.00290331
0.00190343
0.00133937
0.00100647
0.000793899
0.00771358
0.00456887
0.00290207
0.00197444
0.00143589
0.00109796
0.000868055
0.000705079
0.00832012
0.00488904
0.00295016
0.0019288
0.00140397
0.00111787
0.000943034
0.000812366
0.0150149
0.00852265
0.00479643
0.00273307
0.00171818
0.00123276
0.00098297
0.000828557
0.0243277
0.0143465
0.00807023
0.00433498
0.00236695
0.00147371
0.00107004
0.000861935
0.032953
0.0191221
0.0110591
0.00599667
0.00309727
0.00174214
0.00115786
0.000885249
0.033488
0.0185824
0.0103098
0.00542885
0.00280869
0.00163693
0.0011342
0.000889971
0.0240811
0.0130971
0.00700306
0.00373821
0.00213743
0.00141217
0.00106798
0.000873595
0.0143887
0.00788517
0.00436492
0.00256289
0.00169725
0.00126821
0.00102986
0.000867463
0.0145678
0.00817796
0.00441515
0.00263357
0.00181245
0.00142785
0.00127503
0.00123006
0.0256599
0.0146516
0.00762614
0.00386077
0.002244
0.0015661
0.00130463
0.00123741
0.0390105
0.0234532
0.0128529
0.0062352
0.00311042
0.00186701
0.00139326
0.00125694
0.0495812
0.0296392
0.0167747
0.0085376
0.00403785
0.00220764
0.00150874
0.00128814
0.0499197
0.0289457
0.0159285
0.00777578
0.00368192
0.00208726
0.00149174
0.00131036
0.0374364
0.0210732
0.0111624
0.00544342
0.00288369
0.00185679
0.00145756
0.00133352
0.0230428
0.0127852
0.00666246
0.00362458
0.00229688
0.00169664
0.00144243
0.00134929
0.0262533
0.0125537
0.00591062
0.00316105
0.00187116
0.00124321
0.00102616
0.00128075
0.048726
0.0259183
0.0112908
0.00499188
0.00253622
0.00147723
0.00107355
0.00123651
0.0694423
0.0422446
0.0208145
0.00869453
0.00388888
0.00198204
0.00124242
0.00127372
0.0807564
0.0513098
0.028053
0.0124825
0.00544862
0.00258651
0.00146485
0.00135616
0.0816933
0.0507248
0.0262932
0.010941
0.00467342
0.00228199
0.00136147
0.00132917
0.0662619
0.0378525
0.0175181
0.00731979
0.0034388
0.00186258
0.00124768
0.00134023
0.0421587
0.0213259
0.00944974
0.00464364
0.00258476
0.00160315
0.0012203
0.00142242
0.000488485
0.000701717
0.0010622
0.00155433
0.00110509
0.000674454
0.000479737
0.00056671
0.000586971
0.000649138
0.000660938
0.000649207
0.000592014
0.000558033
0.000682786
0.000670539
0.000664907
0.000655348
0.00066185
0.000666858
0.000676146
0.00104347
0.00104475
0.00104483
0.00103696
0.00102995
0.00102709
0.00102992
0.000903792
0.00088251
0.000870308
0.000864927
0.00086504
0.00087053
0.000888452
0.000499651
0.000948606
0.00156187
0.00200584
0.00159911
0.000993277
0.00052363
0.000584029
0.00066486
0.000781215
0.000991774
0.000810254
0.000681323
0.000595442
0.000724003
0.000727929
0.000729729
0.000711589
0.000729451
0.000723965
0.000714035
0.00111338
0.00111052
0.0010936
0.00110023
0.00110581
0.00111255
0.00110396
0.000945541
0.000923228
0.000921012
0.000926071
0.000920729
0.000921209
0.000940405
0.000545135
0.0010532
0.00164466
0.00207168
0.00174746
0.00113714
0.000565197
0.0006277
0.000725478
0.000964919
0.00134662
0.000983874
0.000723661
0.0006342
0.000721051
0.000734088
0.000774
0.000801013
0.000765595
0.000724467
0.000705384
0.00109954
0.00108446
0.00107511
0.00106165
0.00104284
0.0010404
0.00104682
0.000940939
0.000918878
0.000913706
0.000936253
0.000912797
0.00090374
0.000910068
0.000504772
0.000892371
0.00149116
0.00202189
0.00164555
0.00100478
0.000512277
0.000582532
0.000635789
0.000793636
0.00110034
0.000831238
0.000653562
0.00059122
0.000690907
0.000702293
0.000720654
0.000728969
0.000734661
0.000727905
0.000726888
0.00103591
0.0010414
0.00104306
0.0010488
0.00107352
0.00110083
0.00111278
0.000894789
0.000892062
0.000906286
0.00092923
0.000918451
0.000926926
0.000948227
0.000443998
0.000411077
0.000393438
0.000383793
0.000378466
0.000374538
0.000370291
0.000364233
0.000509471
0.000420018
0.000393466
0.000380161
0.000373957
0.000370496
0.000367169
0.000362075
0.000770236
0.000553218
0.000449751
0.000402791
0.000380838
0.000372262
0.000367674
0.000362329
0.0012708
0.000969923
0.000749248
0.000573882
0.000448532
0.000390669
0.000372125
0.000363643
0.000821881
0.000601557
0.000472329
0.000408606
0.000382146
0.000372582
0.000367641
0.000362201
0.000510936
0.000426015
0.00039792
0.000382203
0.000374983
0.000371084
0.000367506
0.000362248
0.000441349
0.000410785
0.000393475
0.000383881
0.000378156
0.000373838
0.000369453
0.000363459
0.000482126
0.000427994
0.000398613
0.000382038
0.00037264
0.000366644
0.000361166
0.000353727
0.000482903
0.000421238
0.000394491
0.000379818
0.000371141
0.00036555
0.00036046
0.000353378
0.000526616
0.000434142
0.00040209
0.000385999
0.000374214
0.000366564
0.000360698
0.000353434
0.000543455
0.000457733
0.000428084
0.00040935
0.000387603
0.000372339
0.000362796
0.000354287
0.000525049
0.000434788
0.000404228
0.000387632
0.000374945
0.000366804
0.000360777
0.000353491
0.000484271
0.000422449
0.000395821
0.000380611
0.000371486
0.000365676
0.000360495
0.000353366
0.000479057
0.000427148
0.000398334
0.000381941
0.000372614
0.000366595
0.000361094
0.000353683
0.000539489
0.000450784
0.000412882
0.000395186
0.000385998
0.00038001
0.000374082
0.000365676
0.000533919
0.000447065
0.00041008
0.000393154
0.000384583
0.000379077
0.000373528
0.000365399
0.000534268
0.000449296
0.000412019
0.000393992
0.000384629
0.000378884
0.000373377
0.000365355
0.000529173
0.000448438
0.000416245
0.000398909
0.000387177
0.000379661
0.000373513
0.000365403
0.000533342
0.000449727
0.000412687
0.000394357
0.000384737
0.000378886
0.000373358
0.000365336
0.000532113
0.000446642
0.000410113
0.000393248
0.000384652
0.000379127
0.00037357
0.000365444
0.000536643
0.000449732
0.000412314
0.000394858
0.000385802
0.000379868
0.000373971
0.000365592
0.000685452
0.000477448
0.000414287
0.00039413
0.000386512
0.000382018
0.00037692
0.000368715
0.000689943
0.000477211
0.000412963
0.000392943
0.00038568
0.000381514
0.000376667
0.00036864
0.000697377
0.000480688
0.000413743
0.000392797
0.000385359
0.000381261
0.000376522
0.000368586
0.000699135
0.000484139
0.000415684
0.000393308
0.00038524
0.000381013
0.000376343
0.000368514
0.000691578
0.000479109
0.000413203
0.000392545
0.000385233
0.000381206
0.000376508
0.000368597
0.000682233
0.000474798
0.00041217
0.000392676
0.000385584
0.000381467
0.000376631
0.000368603
0.000678615
0.000474391
0.00041292
0.000393523
0.000386215
0.000381852
0.000376826
0.000368672
0.000962271
0.000525876
0.000407276
0.000382968
0.000379302
0.000378452
0.000375605
0.000368558
0.000971696
0.000529306
0.000407736
0.000382798
0.000379105
0.00037832
0.000375544
0.000368557
0.000983889
0.000535035
0.000408972
0.000382961
0.00037909
0.000378298
0.00037555
0.000368598
0.000986718
0.000536263
0.000408835
0.000382552
0.000378767
0.00037809
0.000375432
0.000368546
0.000968153
0.000527777
0.000406781
0.000382289
0.000378853
0.000378196
0.000375493
0.000368561
0.000951966
0.000520886
0.000405061
0.000381937
0.000378801
0.000378198
0.000375491
0.000368544
0.000943503
0.000517176
0.000404226
0.000381842
0.000378845
0.000378234
0.000375488
0.0003685
0.000451502
0.000415962
0.000397793
0.000386576
0.000378909
0.000373335
0.000368397
0.000362284
0.000655596
0.000494142
0.000435643
0.000414726
0.000398412
0.000385195
0.000375131
0.000366118
0.00127153
0.00109948
0.000984172
0.000805831
0.000599973
0.000482664
0.000432777
0.00039544
0.00178661
0.00166846
0.00163946
0.00175824
0.00188461
0.00192929
0.00150585
0.000821392
0.0013093
0.00115339
0.00109594
0.000960522
0.000706337
0.000514854
0.000437033
0.000396694
0.000694721
0.00051755
0.000447965
0.000421608
0.000404194
0.000388416
0.000376559
0.000366782
0.000463169
0.000422005
0.00040159
0.000389033
0.000380683
0.000374613
0.000369384
0.000363056
0.000493156
0.00043864
0.000410453
0.000392503
0.00038007
0.000371054
0.000363431
0.000354796
0.000541547
0.000456263
0.000422431
0.000408661
0.000395832
0.000382576
0.00037058
0.000358815
0.000650011
0.000538266
0.000479256
0.000459324
0.000453147
0.000436443
0.000413804
0.000387555
0.000829801
0.000728762
0.000696151
0.000741015
0.000803275
0.000768577
0.000651917
0.000538926
0.000677794
0.000559712
0.000493824
0.000472886
0.000465718
0.000445063
0.000418693
0.000390306
0.000554068
0.000462158
0.000424412
0.000412171
0.000400353
0.000386052
0.000372561
0.000359729
0.000495013
0.000437826
0.00041017
0.000392906
0.000380693
0.000371573
0.000363796
0.000355039
0.000567878
0.000469228
0.00042516
0.000403054
0.000390669
0.000382558
0.000375345
0.000366239
0.00057944
0.000480465
0.000434345
0.000410242
0.000395732
0.00038568
0.000377063
0.000367166
0.000590126
0.000494956
0.000451639
0.000429897
0.000414279
0.000399466
0.000386203
0.00037278
0.00057153
0.000488066
0.000458335
0.000459321
0.000467139
0.000455513
0.000431394
0.000401641
0.000588616
0.000494398
0.000452058
0.000431644
0.000416943
0.000401611
0.000387396
0.000373345
0.000576897
0.000479704
0.000434846
0.000411399
0.000396853
0.000386424
0.000377454
0.000367334
0.000561676
0.000466343
0.000424074
0.00040279
0.00039071
0.00038269
0.000375484
0.000366361
0.000723589
0.000491293
0.000420729
0.000397627
0.000388288
0.000382892
0.000377321
0.00036888
0.000738554
0.000500722
0.000425782
0.00040009
0.00038945
0.00038341
0.000377538
0.000368987
0.000749559
0.0005161
0.000436187
0.000405559
0.000392339
0.000385145
0.000378787
0.000369952
0.000755764
0.000526205
0.000446767
0.000416135
0.000403017
0.000393512
0.000384654
0.000373689
0.000756135
0.000520086
0.000438534
0.000406756
0.00039291
0.000385436
0.000378921
0.000370009
0.000740093
0.000502735
0.000427031
0.000400816
0.000389837
0.000383598
0.000377629
0.000369033
0.000720324
0.000492128
0.000421507
0.000398132
0.000388614
0.000383094
0.000377436
0.000368935
0.0010109
0.000538778
0.000410047
0.000383431
0.00037931
0.000378379
0.000375513
0.000368446
0.00103306
0.00054756
0.000412283
0.000383894
0.000379364
0.000378346
0.000375481
0.000368445
0.00106414
0.000560536
0.000415753
0.000384657
0.000379572
0.000378479
0.000375615
0.000368577
0.00111495
0.00058561
0.000422905
0.00038625
0.000380054
0.000378826
0.000375971
0.000368932
0.00108692
0.000571818
0.000418987
0.000385465
0.000379771
0.000378525
0.000375625
0.000368585
0.0010493
0.000556528
0.000415378
0.000384948
0.000379741
0.000378484
0.000375525
0.000368452
0.00101925
0.00054551
0.000412891
0.000384632
0.000379837
0.000378612
0.000375611
0.00036849
0.000473565
0.000427291
0.0004033
0.000388975
0.000381492
0.000376272
0.00037106
0.000364372
0.000795732
0.000595626
0.000475779
0.000422184
0.000400635
0.000388914
0.000379712
0.000370677
0.00138653
0.00120251
0.00104447
0.000852599
0.000654994
0.000516121
0.000446006
0.00042255
0.00184694
0.00170048
0.001612
0.00153529
0.0014607
0.00141773
0.00139769
0.00138133
0.00148474
0.00129825
0.00114917
0.000967565
0.000744455
0.000559797
0.000458387
0.000424244
0.000873791
0.000676922
0.000530634
0.000437744
0.000399587
0.000387094
0.000379055
0.000371125
0.000484063
0.000430647
0.000407152
0.000389509
0.000380686
0.000376005
0.000371619
0.000365532
0.000508307
0.000438302
0.000407721
0.000390329
0.000378986
0.000370916
0.000363789
0.000355215
0.000573181
0.00046564
0.000419419
0.000398807
0.000386517
0.00037786
0.000370476
0.000361457
0.000780399
0.000638869
0.000556016
0.000507284
0.000471934
0.000443119
0.000420929
0.000406115
0.001077
0.000926732
0.000870737
0.000896361
0.000952654
0.00100148
0.00099266
0.000902489
0.000793156
0.000656264
0.00057289
0.000524077
0.000488036
0.000452039
0.000423978
0.000407135
0.000573989
0.000468372
0.000422964
0.000402301
0.000388308
0.000378096
0.000370231
0.000361271
0.000512766
0.00043871
0.000407433
0.000389646
0.000377816
0.000369861
0.000363126
0.000354864
0.000564742
0.00046702
0.000424006
0.000402557
0.000390604
0.000382741
0.00037558
0.000366407
0.000579697
0.000478336
0.000433099
0.00041025
0.000396952
0.00038785
0.000379553
0.000369364
0.00061477
0.000504814
0.000455862
0.000432244
0.000417196
0.000405476
0.000394829
0.000382618
0.000651716
0.000561353
0.000533314
0.000538829
0.000556311
0.000556215
0.000537879
0.000498864
0.000613015
0.000505664
0.0004578
0.000434636
0.000419178
0.000406687
0.000395469
0.000383057
0.000576882
0.000478215
0.000433862
0.000410787
0.000396958
0.000387573
0.000379253
0.000369163
0.000556024
0.00046231
0.000421195
0.000400683
0.000389283
0.00038187
0.000375077
0.000366159
0.000717681
0.000491789
0.000421631
0.000398305
0.0003888
0.000383243
0.000377525
0.000368963
0.000727181
0.000502121
0.000429099
0.000403256
0.00039213
0.000385509
0.000379007
0.000369865
0.000733583
0.000512466
0.000436788
0.000408625
0.000396603
0.00038971
0.000383113
0.000373669
0.000735075
0.000529183
0.000460228
0.000431576
0.000420753
0.000414311
0.000406377
0.000393064
0.00072037
0.000509413
0.000436395
0.000408668
0.000396611
0.000389711
0.000383147
0.000373753
0.000707887
0.000496765
0.000426965
0.000402168
0.000391482
0.000385109
0.000378783
0.000369772
0.000692252
0.00048302
0.000417899
0.000396406
0.000387829
0.000382733
0.000377277
0.000368875
0.00101427
0.000543738
0.000412756
0.000384831
0.000380021
0.000378732
0.000375673
0.000368503
0.00103325
0.000552002
0.000415454
0.000385941
0.000380637
0.00037908
0.00037582
0.000368497
0.00105499
0.000562381
0.000418951
0.000387569
0.000381922
0.000380311
0.000377045
0.000369674
0.00109614
0.000576792
0.000422565
0.000389601
0.000384503
0.000383298
0.000380058
0.000372375
0.00103232
0.000552694
0.000416252
0.00038683
0.000381709
0.000380269
0.000377074
0.000369743
0.000992906
0.000536736
0.000411137
0.000384656
0.000380205
0.000378923
0.000375779
0.000368517
0.000967498
0.000527141
0.000407954
0.000383414
0.00037958
0.000378594
0.00037565
0.00036854
0.000453945
0.00041721
0.000398551
0.000386864
0.000379697
0.000374657
0.000369928
0.000363866
0.000668121
0.000510058
0.00044305
0.000412878
0.000395647
0.000385615
0.000377659
0.000368788
0.00127034
0.00110773
0.000970356
0.000790209
0.000603547
0.00049299
0.000444554
0.000420781
0.00179071
0.00164828
0.00158287
0.00155855
0.00150279
0.00154759
0.00158536
0.0014915
0.00139266
0.00120972
0.00106869
0.000886175
0.000666981
0.000510031
0.000440296
0.000414326
0.000750688
0.000552174
0.000451712
0.000412349
0.000395053
0.000384506
0.000376463
0.000367775
0.00045871
0.000419613
0.000399289
0.000386614
0.000378846
0.000373408
0.000368527
0.000362415
0.000491209
0.000435993
0.000407315
0.000389403
0.000377649
0.000369561
0.000362682
0.000354472
0.000523918
0.000448732
0.000417307
0.000402203
0.000390409
0.000380175
0.000370512
0.00035991
0.000649199
0.00054327
0.000489174
0.000464178
0.000449764
0.000434032
0.000417317
0.000398968
0.000892088
0.000769958
0.000751474
0.000822342
0.000901112
0.000898825
0.000805828
0.000673642
0.000670986
0.000556995
0.000498094
0.000470072
0.000455449
0.000435768
0.00041622
0.000397825
0.000528521
0.000448754
0.000417894
0.000404265
0.000392699
0.000381653
0.000371275
0.000360285
0.000495705
0.000439667
0.000411535
0.000393608
0.000380976
0.000371619
0.000363722
0.00035491
0.00054937
0.000459791
0.000419618
0.000399598
0.000388602
0.00038143
0.000374799
0.000366013
0.000566072
0.000475159
0.0004322
0.000409289
0.000395422
0.000385946
0.000377628
0.000367727
0.000579726
0.000486414
0.000445635
0.000425004
0.000411083
0.000399673
0.000388904
0.000376557
0.000586416
0.000499668
0.000470941
0.000480424
0.000491886
0.000483009
0.000461802
0.000432088
0.000584834
0.000488243
0.000447455
0.00042758
0.000413132
0.000400281
0.000388828
0.000376277
0.000578109
0.000481434
0.000436806
0.00041259
0.000397567
0.000387139
0.000378214
0.000367963
0.000569948
0.000471136
0.000426667
0.000404106
0.000391338
0.000382929
0.000375509
0.000366287
0.000685155
0.000478904
0.000415734
0.00039531
0.000387221
0.000382387
0.000377091
0.000368789
0.000703765
0.000490949
0.000422868
0.000399468
0.000389566
0.000383714
0.000377825
0.000369191
0.000718643
0.000504876
0.00043236
0.000405079
0.000393204
0.000386421
0.000380053
0.000371068
0.000728156
0.000516489
0.000444731
0.000417898
0.000406384
0.000398598
0.000390543
0.000379149
0.000734097
0.000510954
0.000435288
0.000406418
0.000393668
0.000386472
0.000379952
0.000370929
0.000732315
0.000500309
0.000426974
0.000401386
0.000390516
0.000384163
0.00037799
0.000369207
0.000722593
0.000491278
0.000421051
0.000397962
0.000388533
0.000383013
0.000377338
0.000368839
0.000947973
0.000517729
0.000404319
0.000381903
0.000378892
0.000378266
0.000375497
0.000368479
0.000970964
0.000524814
0.000406097
0.000382341
0.000379017
0.000378299
0.000375488
0.000368439
0.00100594
0.000536841
0.000409465
0.000383492
0.000379667
0.00037882
0.000375955
0.000368857
0.00105758
0.000554491
0.000413543
0.000384528
0.000380397
0.000379631
0.000376812
0.000369678
0.00103045
0.000546103
0.000412119
0.000384222
0.000379829
0.000378809
0.000375885
0.000368769
0.0010174
0.000540151
0.000410181