/*--------------------------------*- C++ -*----------------------------------*\
| =========                 |                                                 |
| \\      /  F ield         | OpenFOAM: The Open Source CFD Toolbox           |
|  \\    /   O peration     | Version:  plus.master.MPPICInterFoam            |
|   \\  /    A nd           | Web:      www.OpenFOAM.com                      |
|    \\/     M anipulation  |                                                 |
\*---------------------------------------------------------------------------*/
FoamFile
{
    version     2.0;
    format      ascii;
    class       volVectorField::DimensionedInternalField;
    location    "1.6";
    object      kinematicCloud:UTrans;
}
// * * * * * * * * * * * * * * * * * * * * * * * * * * * * * * * * * * * * * //

dimensions      [1 1 -1 0 0 0 0];

value           nonuniform List<vector> 
11821
(
(-1.43362e-10 6.43832e-11 -5.24211e-11)
(0 0 0)
(0 0 0)
(0 0 0)
(0 0 0)
(0 0 0)
(9.8131e-09 -1.25878e-08 -3.7375e-09)
(0 0 0)
(0 0 0)
(0 0 0)
(0 0 0)
(0 0 0)
(0 0 0)
(0 0 0)
(0 0 0)
(0 0 0)
(0 0 0)
(0 0 0)
(0 0 0)
(0 0 0)
(0 0 0)
(0 0 0)
(0 0 0)
(0 0 0)
(0 0 0)
(0 0 0)
(0 0 0)
(0 0 0)
(0 0 0)
(0 0 0)
(0 0 0)
(0 0 0)
(0 0 0)
(0 0 0)
(0 0 0)
(0 0 0)
(0 0 0)
(0 0 0)
(0 0 0)
(0 0 0)
(0 0 0)
(0 0 0)
(0 0 0)
(0 0 0)
(0 0 0)
(0 0 0)
(0 0 0)
(0 0 0)
(2.09037e-09 9.38983e-10 -2.02162e-10)
(0 0 0)
(0 0 0)
(0 0 0)
(0 0 0)
(0 0 0)
(0 0 0)
(0 0 0)
(0 0 0)
(0 0 0)
(0 0 0)
(0 0 0)
(0 0 0)
(0 0 0)
(0 0 0)
(0 0 0)
(0 0 0)
(0 0 0)
(0 0 0)
(0 0 0)
(0 0 0)
(0 0 0)
(0 0 0)
(0 0 0)
(0 0 0)
(0 0 0)
(0 0 0)
(0 0 0)
(0 0 0)
(0 0 0)
(0 0 0)
(0 0 0)
(0 0 0)
(0 0 0)
(0 0 0)
(0 0 0)
(0 0 0)
(0 0 0)
(0 0 0)
(0 0 0)
(0 0 0)
(0 0 0)
(7.40885e-10 1.64041e-10 -3.48292e-11)
(0 0 0)
(0 0 0)
(0 0 0)
(0 0 0)
(0 0 0)
(0 0 0)
(0 0 0)
(0 0 0)
(0 0 0)
(0 0 0)
(0 0 0)
(0 0 0)
(0 0 0)
(0 0 0)
(0 0 0)
(0 0 0)
(0 0 0)
(0 0 0)
(0 0 0)
(0 0 0)
(0 0 0)
(0 0 0)
(0 0 0)
(0 0 0)
(0 0 0)
(0 0 0)
(0 0 0)
(-4.85564e-10 -5.88699e-10 -6.02483e-10)
(0 0 0)
(0 0 0)
(0 0 0)
(0 0 0)
(0 0 0)
(0 0 0)
(-3.51284e-10 -1.56876e-11 -1.19998e-10)
(0 0 0)
(0 0 0)
(0 0 0)
(0 0 0)
(0 0 0)
(0 0 0)
(-1.28812e-09 3.02074e-09 -2.93502e-09)
(0 0 0)
(0 0 0)
(0 0 0)
(0 0 0)
(0 0 0)
(0 0 0)
(6.50509e-10 5.12942e-10 1.23629e-10)
(0 0 0)
(0 0 0)
(0 0 0)
(0 0 0)
(0 0 0)
(0 0 0)
(0 0 0)
(0 0 0)
(0 0 0)
(0 0 0)
(0 0 0)
(0 0 0)
(0 0 0)
(0 0 0)
(0 0 0)
(0 0 0)
(0 0 0)
(0 0 0)
(0 0 0)
(0 0 0)
(0 0 0)
(0 0 0)
(0 0 0)
(0 0 0)
(0 0 0)
(0 0 0)
(0 0 0)
(0 0 0)
(0 0 0)
(0 0 0)
(0 0 0)
(0 0 0)
(0 0 0)
(0 0 0)
(0 0 0)
(0 0 0)
(0 0 0)
(0 0 0)
(0 0 0)
(0 0 0)
(0 0 0)
(0 0 0)
(0 0 0)
(0 0 0)
(0 0 0)
(0 0 0)
(0 0 0)
(0 0 0)
(0 0 0)
(0 0 0)
(0 0 0)
(0 0 0)
(0 0 0)
(0 0 0)
(0 0 0)
(0 0 0)
(0 0 0)
(0 0 0)
(0 0 0)
(0 0 0)
(0 0 0)
(0 0 0)
(0 0 0)
(0 0 0)
(0 0 0)
(0 0 0)
(0 0 0)
(0 0 0)
(0 0 0)
(0 0 0)
(0 0 0)
(0 0 0)
(0 0 0)
(0 0 0)
(0 0 0)
(0 0 0)
(0 0 0)
(0 0 0)
(0 0 0)
(0 0 0)
(0 0 0)
(0 0 0)
(0 0 0)
(0 0 0)
(0 0 0)
(0 0 0)
(0 0 0)
(0 0 0)
(0 0 0)
(0 0 0)
(0 0 0)
(0 0 0)
(0 0 0)
(0 0 0)
(0 0 0)
(0 0 0)
(0 0 0)
(0 0 0)
(0 0 0)
(0 0 0)
(0 0 0)
(0 0 0)
(0 0 0)
(0 0 0)
(0 0 0)
(4.42822e-07 -1.41973e-07 -1.61679e-07)
(2.04345e-08 -5.38223e-08 -1.4639e-07)
(1.49918e-08 -3.46178e-08 -1.13114e-07)
(1.11505e-08 -2.60612e-08 -5.72416e-08)
(2.12083e-09 -1.84545e-08 -1.41587e-08)
(4.40537e-09 -1.532e-08 -1.48611e-08)
(9.49914e-10 -3.95204e-09 -9.23828e-09)
(-1.63331e-10 -7.23282e-10 -2.82107e-09)
(3.75031e-06 -2.57495e-06 -4.01716e-07)
(1.2218e-08 -7.13639e-07 -2.58733e-07)
(4.85946e-09 -3.65811e-07 -2.81728e-07)
(-5.92028e-08 -2.78677e-07 -3.01442e-07)
(1.28944e-09 6.13706e-08 -3.35609e-07)
(3.05883e-08 -1.52912e-08 -2.82497e-07)
(1.76318e-08 -6.3729e-08 -3.10254e-07)
(2.54444e-08 -5.33167e-08 -2.56228e-07)
(0 0 0)
(0 0 0)
(0 0 0)
(1.67796e-09 2.63086e-09 -6.65463e-09)
(-1.62118e-08 2.44172e-08 -9.81975e-08)
(-8.52431e-08 2.50675e-08 -1.92485e-07)
(-8.06593e-08 -2.20907e-08 -3.25365e-07)
(3.93555e-08 -4.77617e-09 -3.55649e-07)
(0 0 0)
(0 0 0)
(0 0 0)
(0 0 0)
(-8.05574e-09 7.39461e-10 -2.23825e-08)
(-1.91587e-07 7.44647e-10 -3.3258e-07)
(-1.74616e-08 -1.01722e-08 -3.57612e-07)
(-7.24041e-08 5.86874e-10 -4.13147e-07)
(0 0 0)
(1.04134e-10 1.33006e-09 -8.9119e-12)
(0 0 0)
(3.37469e-10 3.70583e-10 -3.00933e-10)
(-1.06648e-08 -1.54379e-08 -5.00872e-08)
(-1.15348e-07 -2.7006e-08 -2.30643e-07)
(-9.74744e-08 2.67728e-08 -3.27056e-07)
(4.29429e-08 1.92386e-08 -3.51395e-07)
(2.05266e-06 9.9631e-07 -1.25754e-07)
(2.01946e-07 2.92694e-06 -2.83713e-07)
(8.57319e-08 5.38697e-07 -3.3513e-07)
(1.1155e-08 4.02728e-07 -3.2211e-07)
(4.27646e-08 -3.81225e-08 -3.1571e-07)
(1.52146e-08 1.407e-08 -2.99089e-07)
(8.18259e-09 5.94112e-08 -2.3487e-07)
(2.72757e-08 4.64166e-08 -2.08284e-07)
(2.20371e-06 1.32646e-07 -1.60723e-07)
(3.4376e-07 6.54908e-07 -3.32987e-07)
(1.01748e-07 8.76229e-08 -1.23843e-07)
(7.71605e-09 3.14822e-08 -4.49656e-08)
(6.13333e-09 1.89804e-08 -2.24968e-08)
(3.89794e-09 8.63321e-09 -1.02691e-08)
(-5.05591e-10 2.41806e-09 -5.61768e-09)
(-3.50101e-10 5.48461e-10 -3.96719e-09)
(0 0 0)
(0 0 0)
(0 0 0)
(0 0 0)
(0 0 0)
(0 0 0)
(0 0 0)
(0 0 0)
(1.02446e-08 -1.81485e-09 -2.55279e-09)
(0 0 0)
(0 0 0)
(0 0 0)
(0 0 0)
(0 0 0)
(0 0 0)
(0 0 0)
(2.67232e-13 -5.03816e-12 5.14718e-12)
(-8.77283e-11 6.98067e-11 -9.18252e-10)
(0 0 0)
(3.32706e-09 -7.25002e-10 2.35643e-10)
(9.48112e-10 1.37933e-10 -8.49423e-10)
(0 0 0)
(0 0 0)
(0 0 0)
(0 0 0)
(0 0 0)
(2.18453e-11 1.62504e-11 1.43931e-09)
(3.33779e-09 -7.4642e-10 2.95001e-10)
(0 0 0)
(0 0 0)
(0 0 0)
(0 0 0)
(0 0 0)
(0 0 0)
(-4.55788e-12 -1.38888e-10 4.57332e-10)
(0 0 0)
(3.7401e-09 -3.45632e-11 -1.61343e-09)
(0 0 0)
(0 0 0)
(0 0 0)
(1.15184e-08 3.08512e-09 -2.77222e-09)
(0 0 0)
(0 0 0)
(0 0 0)
(0 0 0)
(0 0 0)
(0 0 0)
(0 0 0)
(0 0 0)
(0 0 0)
(0 0 0)
(0 0 0)
(0 0 0)
(0 0 0)
(0 0 0)
(0 0 0)
(0 0 0)
(-2.26782e-10 -8.28268e-11 -4.96834e-10)
(0 0 0)
(0 0 0)
(0 0 0)
(0 0 0)
(0 0 0)
(0 0 0)
(-6.18612e-10 1.7491e-12 -7.47095e-10)
(-1.45951e-09 -3.33957e-10 -4.06688e-09)
(-5.66873e-11 4.38471e-11 -1.15165e-09)
(0 0 0)
(0 0 0)
(0 0 0)
(0 0 0)
(0 0 0)
(-2.208e-09 -3.86182e-09 4.1505e-10)
(1.4681e-11 -9.25607e-11 -8.55022e-10)
(3.72165e-09 -5.03609e-10 -5.20906e-10)
(0 0 0)
(0 0 0)
(0 0 0)
(0 0 0)
(0 0 0)
(-6.90157e-10 -2.21191e-11 8.40197e-09)
(2.55739e-09 1.35483e-10 1.18514e-08)
(5.1486e-10 -6.69188e-11 -2.17875e-09)
(1.49516e-10 -2.5489e-11 -1.47694e-09)
(0 0 0)
(0 0 0)
(0 0 0)
(0 0 0)
(-2.34898e-09 8.35183e-09 -4.6869e-09)
(7.41616e-10 9.5557e-10 2.70457e-09)
(8.05323e-10 8.01253e-10 2.1278e-09)
(0 0 0)
(0 0 0)
(0 0 0)
(0 0 0)
(0 0 0)
(0 0 0)
(-7.44726e-10 -3.74958e-11 -2.32293e-09)
(0 0 0)
(0 0 0)
(0 0 0)
(0 0 0)
(0 0 0)
(0 0 0)
(0 0 0)
(0 0 0)
(0 0 0)
(0 0 0)
(0 0 0)
(0 0 0)
(0 0 0)
(0 0 0)
(-5.57276e-10 -5.18793e-11 -1.3692e-09)
(-3.72903e-09 -4.40118e-10 -1.26326e-08)
(-1.14484e-10 -3.46198e-10 -7.31553e-09)
(3.61761e-09 -3.24666e-09 -9.08668e-09)
(0 0 0)
(0 0 0)
(0 0 0)
(0 0 0)
(0 0 0)
(-2.95104e-09 7.05109e-10 -9.96671e-09)
(-1.026e-09 -9.98809e-10 -4.09954e-08)
(1.23358e-09 -7.58208e-10 -2.46817e-08)
(1.73315e-10 -3.77638e-11 -1.62391e-09)
(0 0 0)
(0 0 0)
(0 0 0)
(0 0 0)
(-2.25104e-10 3.66218e-11 -1.37066e-09)
(-6.35906e-09 -5.84973e-10 -1.16798e-07)
(1.06147e-09 -2.05805e-10 -3.58654e-08)
(2.72314e-08 -4.57583e-09 -4.05176e-08)
(0 0 0)
(0 0 0)
(0 0 0)
(-8.35366e-10 1.27725e-10 -9.64331e-10)
(-5.09627e-09 1.4582e-09 -1.18345e-08)
(-4.45538e-09 8.22375e-10 -5.5375e-08)
(1.46223e-09 7.58893e-10 -6.21895e-08)
(1.34784e-08 3.15006e-10 -4.25316e-08)
(1.00246e-09 3.72094e-11 -1.58877e-09)
(0 0 0)
(0 0 0)
(0 0 0)
(-5.45154e-10 1.4393e-11 -1.87566e-09)
(-4.02626e-09 -1.41253e-10 -2.50401e-08)
(3.07937e-10 4.01735e-10 -1.6512e-08)
(5.46554e-10 -1.03711e-11 -5.63278e-09)
(0 0 0)
(0 0 0)
(0 0 0)
(0 0 0)
(-3.96285e-11 1.41171e-12 -4.73922e-10)
(-2.45342e-10 -2.85051e-11 -3.01249e-09)
(-3.85874e-11 1.29787e-11 -1.6404e-09)
(0 0 0)
(0 0 0)
(0 0 0)
(0 0 0)
(0 0 0)
(0 0 0)
(-2.92677e-11 7.36408e-12 -1.29636e-09)
(0 0 0)
(0 0 0)
(0 0 0)
(0 0 0)
(0 0 0)
(0 0 0)
(-1.85012e-09 1.5709e-09 -1.87224e-08)
(1.93482e-09 -2.64665e-09 -1.9759e-08)
(1.67796e-09 -1.86635e-09 -7.27209e-09)
(9.27199e-10 -6.4947e-10 -1.57645e-09)
(0 0 0)
(0 0 0)
(0 0 0)
(0 0 0)
(-9.76618e-10 2.32193e-10 -9.36295e-09)
(9.57706e-10 -1.43991e-09 -4.05504e-08)
(4.39735e-09 -2.15913e-09 -3.96542e-08)
(1.53949e-09 -4.84962e-10 -5.0484e-09)
(0 0 0)
(0 0 0)
(0 0 0)
(0 0 0)
(0 0 0)
(-6.19069e-09 7.42051e-10 -2.85956e-08)
(5.49498e-09 -7.33529e-10 -4.3073e-08)
(1.10862e-09 -1.17922e-10 -3.74682e-09)
(0 0 0)
(0 0 0)
(0 0 0)
(0 0 0)
(-7.65051e-10 3.78966e-11 -2.78345e-09)
(-1.00742e-08 9.8158e-10 -9.32621e-08)
(1.9638e-09 1.46718e-10 -1.66846e-08)
(3.22911e-10 -2.0637e-11 -1.70075e-09)
(0 0 0)
(0 0 0)
(0 0 0)
(0 0 0)
(0 0 0)
(-5.33039e-09 -5.53586e-10 -1.99961e-08)
(2.6075e-09 9.15127e-10 -4.41276e-08)
(2.51819e-10 2.12351e-11 -1.72791e-09)
(0 0 0)
(0 0 0)
(0 0 0)
(0 0 0)
(-1.39373e-10 -2.3822e-11 -5.46004e-10)
(-8.75989e-10 1.89107e-10 -9.54438e-09)
(1.37238e-08 6.44832e-09 -3.09495e-08)
(1.59818e-09 6.37722e-10 -1.93639e-09)
(0 0 0)
(0 0 0)
(0 0 0)
(0 0 0)
(-1.84948e-10 5.03198e-10 -2.26182e-09)
(1.17366e-09 9.14921e-10 -1.43886e-08)
(9.28846e-09 8.10817e-09 -2.62961e-08)
(1.07119e-09 7.66547e-10 -1.75706e-09)
(0 0 0)
(0 0 0)
(0 0 0)
(-7.80901e-08 -1.02926e-08 -1.9816e-08)
(3.26387e-08 -5.32078e-09 -1.43026e-07)
(-4.6453e-09 1.17979e-08 -1.72097e-07)
(-2.36909e-08 2.82999e-08 -1.28439e-07)
(-9.4564e-09 2.02366e-08 -3.45912e-08)
(-4.3543e-09 1.80757e-08 -1.39567e-08)
(8.0766e-11 4.74172e-09 -4.07052e-09)
(5.41062e-10 8.61337e-10 -2.88599e-09)
(-9.3204e-07 -6.39389e-08 -2.63861e-07)
(-3.88823e-08 1.65431e-07 -3.14897e-07)
(4.71086e-09 3.16306e-07 -2.22203e-07)
(1.44105e-08 3.72704e-07 -2.44991e-07)
(1.99734e-08 3.85016e-07 -2.6302e-07)
(1.48591e-08 4.54588e-07 -3.23527e-07)
(-6.2822e-08 4.01111e-07 -3.97054e-07)
(-1.49496e-07 -1.27887e-08 -3.30261e-07)
(-2.2182e-08 2.41819e-09 -7.85046e-09)
(-4.57083e-09 5.92367e-09 -1.55247e-08)
(-3.98619e-10 2.53319e-09 -1.60527e-09)
(0 0 0)
(0 0 0)
(0 0 0)
(0 0 0)
(0 0 0)
(0 0 0)
(0 0 0)
(0 0 0)
(0 0 0)
(0 0 0)
(0 0 0)
(0 0 0)
(0 0 0)
(-1.20151e-08 -8.14356e-10 -3.56347e-09)
(-1.68955e-08 -6.00724e-09 -1.22128e-08)
(-4.8397e-10 -2.04407e-09 -1.09042e-09)
(0 0 0)
(0 0 0)
(0 0 0)
(0 0 0)
(0 0 0)
(-3.86264e-07 1.83188e-08 -1.86244e-07)
(2.43208e-08 -4.94586e-08 -2.09035e-07)
(4.96987e-08 -2.3493e-07 -2.62471e-07)
(6.93796e-09 -4.50382e-07 -2.81817e-07)
(-9.12025e-09 -4.2176e-07 -2.71246e-07)
(-4.09119e-08 -5.29707e-07 -3.31048e-07)
(-8.10941e-08 -4.30959e-07 -3.3211e-07)
(-1.27934e-07 -6.33006e-08 -3.33908e-07)
(-7.81473e-08 1.98082e-08 -1.42071e-08)
(2.57696e-08 4.4467e-08 -1.31689e-07)
(-1.25697e-08 -2.3796e-08 -1.22618e-07)
(-7.06398e-09 -2.56905e-08 -1.15949e-07)
(-2.47584e-09 -2.11817e-08 -3.55074e-08)
(-9.82647e-09 -2.68101e-08 -1.5753e-08)
(-2.02164e-09 -7.84745e-09 -9.57051e-09)
(3.48281e-10 -9.52141e-10 -1.36586e-09)
(-5.14239e-09 -1.11289e-10 -1.12461e-09)
(0 0 0)
(0 0 0)
(0 0 0)
(0 0 0)
(0 0 0)
(0 0 0)
(0 0 0)
(0 0 0)
(2.1399e-10 6.24914e-11 -7.33757e-10)
(0 0 0)
(0 0 0)
(0 0 0)
(0 0 0)
(0 0 0)
(0 0 0)
(6.81042e-10 2.5394e-12 -1.7934e-09)
(2.14014e-09 -1.2949e-09 -5.54272e-09)
(2.45733e-10 -1.42766e-10 -1.75514e-09)
(4.70644e-10 2.58992e-10 2.36916e-10)
(8.73512e-10 9.24435e-10 2.07364e-09)
(2.62358e-10 2.47435e-09 3.97949e-10)
(-2.96998e-10 5.00182e-10 6.59945e-10)
(-1.83043e-09 5.76545e-10 2.01755e-10)
(0 0 0)
(0 0 0)
(-2.12747e-10 1.64328e-11 -6.41223e-10)
(6.01896e-10 -2.77262e-09 8.03262e-09)
(3.88701e-10 1.54222e-10 3.09636e-09)
(4.72475e-10 -6.25335e-10 7.73792e-09)
(2.92634e-10 -2.357e-10 5.29928e-09)
(-5.47769e-11 4.50162e-11 1.15366e-10)
(0 0 0)
(1.1222e-09 -2.74633e-11 -1.07427e-09)
(0 0 0)
(0 0 0)
(1.30343e-09 -1.30823e-09 2.2067e-09)
(0 0 0)
(0 0 0)
(-2.39535e-09 -6.64143e-10 1.27337e-10)
(7.67285e-11 -1.9888e-10 -7.80425e-10)
(0 0 0)
(0 0 0)
(0 0 0)
(0 0 0)
(0 0 0)
(0 0 0)
(0 0 0)
(0 0 0)
(0 0 0)
(0 0 0)
(0 0 0)
(0 0 0)
(0 0 0)
(0 0 0)
(0 0 0)
(0 0 0)
(0 0 0)
(0 0 0)
(0 0 0)
(0 0 0)
(0 0 0)
(0 0 0)
(0 0 0)
(0 0 0)
(0 0 0)
(1.62511e-10 -3.83079e-11 -9.83528e-10)
(0 0 0)
(0 0 0)
(0 0 0)
(0 0 0)
(0 0 0)
(0 0 0)
(2.57417e-09 1.74191e-09 -5.00296e-09)
(4.95138e-10 1.81988e-10 -6.43583e-09)
(-2.88843e-10 1.66979e-10 -8.88962e-10)
(0 0 0)
(0 0 0)
(0 0 0)
(0 0 0)
(0 0 0)
(2.43079e-09 5.07376e-10 -6.66685e-09)
(5.20968e-10 2.54328e-10 -1.57533e-08)
(1.08394e-09 7.2065e-11 -2.29441e-08)
(5.53674e-11 -4.90175e-12 5.32311e-10)
(0 0 0)
(0 0 0)
(0 0 0)
(0 0 0)
(2.3971e-09 -1.44495e-09 -5.27728e-09)
(9.17815e-10 6.40535e-11 -1.25098e-08)
(-3.70446e-09 -6.06598e-09 -1.15654e-08)
(0 0 0)
(0 0 0)
(0 0 0)
(0 0 0)
(0 0 0)
(0 0 0)
(8.12815e-10 2.70346e-10 -2.48479e-09)
(0 0 0)
(0 0 0)
(0 0 0)
(0 0 0)
(0 0 0)
(0 0 0)
(0 0 0)
(0 0 0)
(0 0 0)
(0 0 0)
(0 0 0)
(0 0 0)
(0 0 0)
(0 0 0)
(0 0 0)
(5.82159e-11 -1.54149e-12 -1.16353e-09)
(0 0 0)
(0 0 0)
(0 0 0)
(0 0 0)
(0 0 0)
(0 0 0)
(0 0 0)
(4.262e-10 -1.20045e-10 -3.27852e-09)
(-4.46546e-11 2.34374e-10 -4.0073e-09)
(-5.62403e-10 3.59066e-10 -3.36801e-09)
(0 0 0)
(0 0 0)
(0 0 0)
(0 0 0)
(0 0 0)
(8.39999e-10 4.25682e-11 -6.97305e-09)
(7.35204e-10 1.86761e-10 -9.16729e-09)
(-4.05091e-09 1.17981e-09 -1.17986e-08)
(0 0 0)
(0 0 0)
(0 0 0)
(0 0 0)
(4.899e-10 1.02625e-10 -1.52896e-09)
(3.08855e-09 1.74462e-09 -2.32648e-08)
(6.86425e-09 1.11553e-09 -9.54002e-08)
(-5.81493e-09 7.32658e-12 -1.94178e-07)
(-2.36512e-08 8.14751e-10 -3.42507e-08)
(-4.36687e-10 5.23613e-11 -5.43497e-10)
(0 0 0)
(0 0 0)
(0 0 0)
(2.21837e-10 5.99775e-11 -2.6796e-09)
(2.03856e-09 -1.85952e-09 -8.99158e-08)
(-8.81244e-10 -1.48832e-09 -6.74736e-08)
(-4.46555e-09 -1.11056e-09 -3.31116e-08)
(-4.56871e-10 -2.21626e-10 -1.85341e-09)
(0 0 0)
(0 0 0)
(0 0 0)
(1.00554e-08 3.58562e-09 -4.50967e-08)
(-4.46778e-11 -6.37158e-10 -3.59799e-08)
(-2.68401e-09 -1.95305e-09 -5.20818e-08)
(-1.78737e-10 -6.65046e-12 -1.15789e-09)
(0 0 0)
(0 0 0)
(0 0 0)
(1.61052e-10 -4.42708e-11 -9.52747e-10)
(1.13015e-09 2.54749e-10 -1.80627e-08)
(1.06135e-10 -3.34392e-10 -6.96336e-09)
(-2.66253e-09 -2.30749e-09 -8.02466e-09)
(0 0 0)
(0 0 0)
(0 0 0)
(0 0 0)
(0 0 0)
(6.71048e-10 -7.91214e-10 -1.92171e-08)
(-2.09178e-09 1.82771e-09 -3.48693e-08)
(-3.24041e-09 2.20978e-09 -8.52401e-09)
(0 0 0)
(0 0 0)
(0 0 0)
(0 0 0)
(0 0 0)
(-1.48686e-09 -4.53666e-10 -2.79277e-08)
(-7.68165e-09 3.02749e-09 -4.18382e-08)
(-2.82845e-09 1.62208e-09 -9.73766e-09)
(0 0 0)
(0 0 0)
(0 0 0)
(0 0 0)
(0 0 0)
(1.15744e-09 -1.87603e-10 -1.11372e-08)
(5.68248e-10 8.71579e-11 -1.26995e-08)
(-4.51028e-09 1.13642e-09 -8.9218e-09)
(0 0 0)
(0 0 0)
(0 0 0)
(0 0 0)
(0 0 0)
(2.69235e-10 -1.54188e-12 -6.85445e-10)
(1.70386e-08 6.01067e-10 -5.8129e-08)
(-5.58927e-09 3.00151e-10 -2.31654e-08)
(-7.39278e-10 5.9256e-12 -1.97933e-09)
(0 0 0)
(0 0 0)
(0 0 0)
(0 0 0)
(3.6508e-10 4.71603e-11 -7.93294e-10)
(5.88514e-09 1.19666e-09 -1.86926e-08)
(-3.96711e-09 -6.63464e-10 -2.71963e-08)
(-2.72728e-11 -4.23685e-12 -1.13404e-10)
(0 0 0)
(0 0 0)
(0 0 0)
(0 0 0)
(6.42141e-10 1.57584e-09 -1.06977e-08)
(-3.94097e-10 -3.73059e-10 -8.59781e-09)
(-2.18362e-09 -9.82044e-10 -7.60071e-09)
(-8.84437e-10 -3.8359e-10 -1.87156e-09)
(0 0 0)
(0 0 0)
(0 0 0)
(0 0 0)
(4.61471e-11 -2.49548e-11 -3.32733e-09)
(-8.94278e-10 -1.16055e-09 -1.87882e-08)
(-1.22447e-09 -1.16386e-09 -5.49975e-09)
(0 0 0)
(0 0 0)
(0 0 0)
(-1.64879e-07 -6.1129e-07 -1.62468e-07)
(-1.14933e-07 4.18061e-09 -1.47118e-07)
(-7.52707e-09 -3.19865e-08 -1.56716e-07)
(-5.65286e-09 -1.25882e-08 -1.05778e-07)
(-1.04397e-08 -6.57351e-09 -5.81566e-08)
(-1.57585e-08 -5.03352e-09 -2.17452e-08)
(-1.35191e-08 -1.12518e-09 -1.33483e-08)
(-4.33633e-09 1.15736e-09 -1.11063e-08)
(-1.77452e-07 -2.2312e-07 -6.65121e-08)
(-1.57053e-07 1.31111e-08 -1.13709e-07)
(-1.67682e-07 -1.3694e-09 -2.29381e-07)
(-2.76902e-07 1.49384e-08 -2.37904e-07)
(-1.68591e-07 2.16685e-08 -2.41503e-07)
(-1.70045e-07 1.10146e-08 -2.99799e-07)
(-3.03884e-07 9.47394e-09 -3.46624e-07)
(-2.46419e-07 3.27992e-08 -3.91827e-07)
(0 0 0)
(0 0 0)
(0 0 0)
(0 0 0)
(0 0 0)
(0 0 0)
(-6.09254e-10 -5.27196e-12 -3.43195e-10)
(-4.4173e-09 1.72341e-09 -4.84842e-09)
(0 0 0)
(0 0 0)
(0 0 0)
(0 0 0)
(0 0 0)
(0 0 0)
(0 0 0)
(0 0 0)
(0 0 0)
(0 0 0)
(0 0 0)
(0 0 0)
(0 0 0)
(0 0 0)
(1.73556e-09 7.45043e-11 -6.70074e-10)
(5.41093e-09 1.69061e-09 -8.8429e-09)
(8.95647e-07 -8.5147e-07 -2.08253e-07)
(9.07942e-08 -5.20136e-09 -9.07843e-08)
(1.65935e-07 2.13538e-08 -1.19553e-07)
(1.77626e-07 2.02461e-08 -1.63634e-07)
(1.66653e-07 1.52392e-08 -1.74219e-07)
(6.80131e-08 3.2844e-08 -2.22513e-07)
(5.01039e-07 1.07424e-07 -3.67849e-07)
(2.17111e-07 -1.45966e-09 -3.66043e-07)
(-1.6194e-08 -2.96731e-07 -1.1728e-07)
(1.18997e-08 -2.92728e-08 -1.50447e-07)
(8.86943e-09 -2.12421e-08 -1.68645e-07)
(4.47853e-09 -1.79887e-08 -1.17959e-07)
(5.16705e-09 -8.17437e-09 -9.49436e-08)
(1.29067e-08 -4.70713e-09 -2.1074e-08)
(1.76743e-08 -2.47547e-10 -2.0414e-08)
(4.32589e-09 1.16973e-09 -9.52169e-09)
(0 0 0)
(0 0 0)
(0 0 0)
(0 0 0)
(0 0 0)
(0 0 0)
(0 0 0)
(0 0 0)
(0 0 0)
(-7.82822e-10 6.19023e-11 -3.96267e-10)
(-8.24888e-09 2.14159e-09 -5.24997e-09)
(-4.92974e-09 3.67551e-10 -2.57056e-09)
(0 0 0)
(0 0 0)
(0 0 0)
(0 0 0)
(0 0 0)
(0 0 0)
(0 0 0)
(0 0 0)
(-1.14042e-09 -5.02333e-09 -2.42417e-09)
(-4.75924e-10 -1.73189e-09 -5.36185e-10)
(-5.00386e-10 -6.6436e-10 1.19099e-11)
(0 0 0)
(0 0 0)
(0 0 0)
(0 0 0)
(0 0 0)
(0 0 0)
(7.17538e-11 -7.63989e-10 1.46694e-09)
(2.89039e-10 2.96099e-10 2.43555e-09)
(-4.91369e-10 -3.19909e-09 -6.25001e-10)
(0 0 0)
(0 0 0)
(0 0 0)
(0 0 0)
(1.70239e-09 -4.70264e-09 -5.86294e-10)
(2.50802e-09 -2.27106e-09 -4.60507e-09)
(2.89406e-09 -6.32974e-10 -1.8764e-10)
(0 0 0)
(0 0 0)
(0 0 0)
(4.15764e-09 6.85942e-10 -1.46782e-09)
(0 0 0)
(0 0 0)
(0 0 0)
(0 0 0)
(0 0 0)
(0 0 0)
(0 0 0)
(0 0 0)
(0 0 0)
(0 0 0)
(0 0 0)
(0 0 0)
(0 0 0)
(0 0 0)
(-8.62805e-10 2.89373e-10 -4.91287e-10)
(0 0 0)
(0 0 0)
(0 0 0)
(0 0 0)
(0 0 0)
(0 0 0)
(0 0 0)
(-1.54263e-09 2.71636e-10 -1.30546e-09)
(-1.09514e-08 -2.4513e-09 -6.97231e-09)
(0 0 0)
(0 0 0)
(0 0 0)
(0 0 0)
(0 0 0)
(0 0 0)
(0 0 0)
(-9.27792e-10 2.10785e-10 -2.12703e-09)
(-1.55587e-09 -3.19965e-09 -2.95351e-09)
(-4.42199e-09 -1.02205e-08 -3.65661e-09)
(-7.20894e-10 -2.48919e-09 -1.29948e-09)
(0 0 0)
(0 0 0)
(0 0 0)
(0 0 0)
(-5.03514e-10 -1.68335e-09 2.18669e-09)
(-1.11098e-09 -6.14275e-09 -8.76623e-10)
(-1.4818e-09 -2.51918e-08 -1.02102e-08)
(8.00571e-11 -7.88007e-09 -4.13768e-09)
(0 0 0)
(0 0 0)
(0 0 0)
(0 0 0)
(3.34682e-09 1.8761e-10 -1.7241e-09)
(2.78795e-09 -2.73907e-09 -1.67685e-09)
(6.37506e-09 -1.49935e-08 -1.68042e-09)
(1.18585e-09 -4.1552e-09 -3.0289e-09)
(0 0 0)
(0 0 0)
(0 0 0)
(0 0 0)
(4.51352e-09 1.07707e-09 -3.09692e-09)
(2.22423e-10 5.57099e-11 -1.58664e-09)
(0 0 0)
(0 0 0)
(0 0 0)
(0 0 0)
(0 0 0)
(0 0 0)
(0 0 0)
(0 0 0)
(0 0 0)
(0 0 0)
(0 0 0)
(0 0 0)
(0 0 0)
(3.5642e-10 7.52253e-10 -4.0655e-09)
(8.5075e-10 1.53016e-09 -1.56898e-08)
(-8.52569e-10 -1.13432e-09 -8.97259e-09)
(0 0 0)
(0 0 0)
(0 0 0)
(0 0 0)
(0 0 0)
(-5.29242e-12 6.79464e-10 -1.33135e-09)
(3.74924e-09 9.44534e-09 -5.40813e-08)
(-1.92885e-10 -1.60613e-10 -2.16018e-08)
(-5.4755e-09 -8.4348e-09 -2.87672e-08)
(-6.46514e-10 -1.04171e-09 -1.58142e-09)
(0 0 0)
(0 0 0)
(0 0 0)
(0 0 0)
(9.74e-10 3.6615e-09 -1.9456e-08)
(4.81458e-10 2.91676e-09 -6.16583e-08)
(-4.93427e-10 -1.29816e-09 -4.53206e-08)
(-2.61035e-09 -1.51772e-08 -2.18454e-08)
(0 0 0)
(0 0 0)
(0 0 0)
(0 0 0)
(-4.85902e-10 -6.76684e-10 -4.15492e-09)
(2.45769e-09 9.90723e-09 -1.2948e-07)
(8.18389e-10 -3.09597e-10 -1.07066e-07)
(-1.48749e-10 -3.22382e-09 -8.18304e-09)
(0 0 0)
(0 0 0)
(0 0 0)
(0 0 0)
(-9.58448e-11 2.30117e-10 -4.40533e-09)
(1.34613e-09 8.92873e-10 -3.45979e-08)
(1.19393e-08 9.84632e-10 -5.1184e-08)
(-9.08478e-12 -3.65517e-11 -1.89063e-09)
(0 0 0)
(0 0 0)
(0 0 0)
(-1.25388e-11 7.87096e-10 -2.48751e-09)
(-5.14613e-10 3.78001e-09 -2.20529e-08)
(8.83987e-10 -1.82079e-09 -7.4672e-09)
(0 0 0)
(0 0 0)
(0 0 0)
(0 0 0)
(0 0 0)
(1.37573e-10 -1.78857e-11 -1.16708e-09)
(-8.58488e-12 9.72088e-11 -5.71743e-09)
(1.63132e-10 -1.43819e-10 -3.02929e-09)
(0 0 0)
(0 0 0)
(0 0 0)
(0 0 0)
(0 0 0)
(0 0 0)
(4.49254e-10 -5.35888e-10 -1.30473e-08)
(-1.65858e-09 -3.61384e-09 -3.01553e-08)
(-2.45573e-09 -3.36993e-09 -9.14338e-09)
(0 0 0)
(0 0 0)
(0 0 0)
(0 0 0)
(0 0 0)
(3.33662e-10 2.29066e-10 -1.31378e-08)
(-2.84792e-09 -7.9411e-09 -4.53348e-08)
(-2.74454e-09 -5.95699e-09 -1.21405e-08)
(0 0 0)
(0 0 0)
(0 0 0)
(0 0 0)
(0 0 0)
(2.01744e-09 2.81507e-09 -1.97573e-08)
(-6.80268e-11 -8.79821e-11 -2.65993e-08)
(-9.44097e-10 -4.86572e-09 -2.96937e-08)
(-6.33746e-11 -4.2296e-10 -1.45526e-09)
(0 0 0)
(0 0 0)
(0 0 0)
(0 0 0)
(3.75819e-12 7.03822e-11 -1.77068e-10)
(2.61128e-10 2.2041e-08 -5.81102e-08)
(2.98245e-10 -1.92655e-08 -3.43162e-08)
(0 0 0)
(0 0 0)
(0 0 0)
(0 0 0)
(0 0 0)
(-6.32443e-10 1.75054e-09 -9.56961e-09)
(9.94914e-10 3.18692e-10 -3.47301e-08)
(3.85342e-09 -7.1034e-09 -2.58263e-08)
(2.04214e-10 -8.56126e-10 -1.5235e-09)
(0 0 0)
(0 0 0)
(0 0 0)
(0 0 0)
(3.79566e-11 -6.87364e-11 -1.08949e-09)
(1.40917e-09 -2.44127e-09 -1.22935e-08)
(3.99614e-10 -1.0187e-10 -2.2253e-09)
(0 0 0)
(0 0 0)
(0 0 0)
(0 0 0)
(1.06649e-10 -1.18782e-10 -8.63687e-10)
(1.69371e-10 4.38342e-11 -9.91754e-09)
(3.02491e-09 -2.98281e-09 -1.60539e-08)
(2.92882e-10 -4.1788e-10 -8.65942e-10)
(0 0 0)
(0 0 0)
(0 0 0)
(-3.97545e-11 1.22382e-07 -3.09391e-08)
(-3.44427e-08 2.16189e-08 -8.108e-08)
(2.97043e-09 1.22327e-08 -5.91714e-08)
(9.8017e-09 1.05869e-08 -4.71269e-08)
(1.59618e-08 6.83611e-09 -3.81266e-08)
(1.41195e-08 4.41527e-09 -1.19812e-08)
(3.64973e-09 -1.39494e-10 -1.49205e-09)
(5.45776e-10 -3.60905e-10 -1.5225e-09)
(6.82835e-08 1.27935e-06 -3.42058e-07)
(1.40188e-07 6.97935e-08 -2.41698e-07)
(-5.77058e-09 2.4781e-08 -1.70796e-07)
(-2.2884e-09 -1.03065e-08 -1.50229e-07)
(-2.11747e-08 -2.73158e-08 -2.34543e-07)
(-3.8396e-08 -9.59484e-09 -2.57734e-07)
(-3.01341e-08 -8.47024e-09 -2.83686e-07)
(-1.73208e-08 1.78205e-08 -3.16034e-07)
(8.32731e-08 1.33617e-07 -6.72621e-08)
(-5.74888e-09 7.26257e-09 -4.05909e-08)
(-4.98554e-08 -2.64646e-09 -1.23043e-07)
(-1.30687e-08 -5.31902e-09 -8.40827e-08)
(-1.17649e-08 1.5158e-09 -1.48507e-07)
(-1.09698e-08 3.1117e-09 -4.83204e-08)
(-7.67716e-09 6.03651e-10 -3.58766e-08)
(-1.74786e-09 2.08435e-10 -8.14762e-09)
(0 0 0)
(0 0 0)
(0 0 0)
(0 0 0)
(-1.78926e-11 3.64063e-10 -1.08308e-09)
(2.72085e-11 8.61209e-10 -5.19271e-09)
(-6.45866e-12 -7.92604e-11 -1.27175e-09)
(-4.93236e-11 -4.26009e-11 -1.24533e-09)
(0 0 0)
(-5.20976e-10 3.88552e-09 -4.38132e-09)
(2.793e-08 2.26755e-08 -1.50717e-07)
(2.40848e-08 4.98187e-10 -1.59452e-07)
(3.86863e-09 5.04823e-09 -7.53555e-08)
(1.55676e-08 2.59133e-09 -5.2854e-08)
(4.02889e-11 3.62673e-11 -1.75989e-09)
(2.6446e-10 1.71849e-11 -1.51038e-09)
(-3.04533e-08 4.1437e-07 -1.9582e-07)
(-3.19883e-08 3.28419e-08 -1.45532e-07)
(6.35907e-09 1.45947e-08 -1.47044e-07)
(2.25485e-09 -2.58411e-08 -1.6372e-07)
(2.3968e-08 -3.64146e-08 -2.19649e-07)
(7.18259e-08 -5.15287e-08 -2.97909e-07)
(1.47362e-08 1.23219e-08 -3.7486e-07)
(-1.95543e-08 7.27887e-08 -3.47942e-07)
(-5.73386e-09 3.93228e-07 -1.33543e-07)
(-1.59376e-08 2.56512e-08 -1.46953e-07)
(4.29052e-09 1.15112e-08 -8.30128e-08)
(-5.94922e-09 7.96436e-09 -3.05549e-08)
(-1.31067e-08 5.03523e-09 -1.82922e-08)
(-1.43226e-08 4.38662e-09 -1.57683e-08)
(-6.17611e-09 -1.04314e-09 -9.13608e-09)
(-1.17874e-09 -6.42979e-10 -2.78109e-09)
(0 0 0)
(0 0 0)
(0 0 0)
(0 0 0)
(0 0 0)
(0 0 0)
(0 0 0)
(0 0 0)
(1.67562e-10 3.28429e-10 -7.63129e-10)
(0 0 0)
(0 0 0)
(0 0 0)
(0 0 0)
(0 0 0)
(0 0 0)
(0 0 0)
(7.4496e-10 -8.56708e-10 -3.63023e-09)
(4.31644e-10 -1.7715e-10 -2.03892e-09)
(1.82242e-09 2.72112e-09 -7.9526e-09)
(1.10103e-11 2.04419e-11 -4.25289e-11)
(1.46255e-12 5.60542e-12 -1.46868e-10)
(0 0 0)
(2.5476e-10 -1.14708e-10 -9.85522e-10)
(2.8251e-10 -1.36917e-10 -1.02272e-09)
(0 0 0)
(4.37468e-11 7.55714e-10 -4.58094e-09)
(2.7364e-10 -4.90095e-10 -1.25264e-08)
(2.62479e-09 -1.22556e-09 -1.3415e-08)
(3.82874e-10 1.69843e-11 -8.43808e-09)
(6.3324e-11 -3.01209e-10 -4.3928e-09)
(1.50182e-09 -1.2122e-09 -8.95017e-09)
(6.92278e-10 -1.90036e-09 -1.28566e-08)
(0 0 0)
(7.57592e-11 -1.56977e-10 -2.7037e-09)
(9.06274e-11 1.01492e-10 -3.81026e-09)
(1.6097e-11 -2.44198e-10 -1.97707e-09)
(-6.79424e-11 4.12221e-11 -1.68222e-09)
(0 0 0)
(-2.29158e-11 -2.20077e-11 -2.60555e-10)
(-1.31716e-10 -1.11347e-10 -8.84926e-10)
(-4.2524e-10 3.85001e-09 -2.58653e-09)
(-6.70445e-10 5.24876e-10 -2.24407e-09)
(0 0 0)
(0 0 0)
(0 0 0)
(0 0 0)
(0 0 0)
(0 0 0)
(-1.55939e-10 1.69913e-09 -8.65117e-10)
(-8.50247e-11 -1.93742e-10 -8.92653e-10)
(0 0 0)
(0 0 0)
(0 0 0)
(0 0 0)
(0 0 0)
(0 0 0)
(0 0 0)
(0 0 0)
(0 0 0)
(0 0 0)
(0 0 0)
(0 0 0)
(0 0 0)
(0 0 0)
(0 0 0)
(0 0 0)
(3.07542e-10 -1.79098e-10 -9.00554e-10)
(0 0 0)
(0 0 0)
(0 0 0)
(0 0 0)
(0 0 0)
(1.34426e-10 -1.45752e-10 -9.29905e-10)
(7.01517e-11 -2.15715e-10 -1.90793e-09)
(1.57425e-09 -9.89938e-10 -7.47831e-09)
(4.21285e-11 -1.3221e-10 -2.22714e-09)
(5.1364e-10 4.98553e-10 -1.75687e-09)
(0 0 0)
(0 0 0)
(0 0 0)
(0 0 0)
(3.06907e-11 -6.97335e-11 -2.12901e-09)
(1.16038e-11 -9.55072e-11 -9.07744e-10)
(-2.52873e-10 -2.16993e-10 -4.52782e-09)
(3.87871e-10 3.55882e-09 -7.63719e-09)
(0 0 0)
(0 0 0)
(0 0 0)
(0 0 0)
(9.99464e-11 -5.92149e-11 -2.14147e-09)
(7.80512e-11 -8.06634e-11 -1.64485e-09)
(-5.92211e-10 3.39145e-09 -7.35298e-09)
(-6.11631e-10 5.63198e-10 -1.06084e-09)
(0 0 0)
(0 0 0)
(0 0 0)
(0 0 0)
(-1.72367e-10 -7.71275e-10 -3.13967e-09)
(-3.14878e-11 -1.47328e-10 -2.56883e-09)
(-1.63132e-09 6.85554e-10 -4.32005e-09)
(0 0 0)
(0 0 0)
(0 0 0)
(0 0 0)
(0 0 0)
(0 0 0)
(7.94018e-12 -1.39927e-10 -1.01466e-09)
(0 0 0)
(0 0 0)
(0 0 0)
(0 0 0)
(0 0 0)
(0 0 0)
(-3.56096e-11 -1.73881e-11 -9.16086e-10)
(2.12395e-11 3.49123e-12 -3.14874e-10)
(5.51385e-11 1.53934e-12 -7.51259e-10)
(0 0 0)
(0 0 0)
(0 0 0)
(0 0 0)
(0 0 0)
(0 0 0)
(7.18956e-11 -1.08902e-10 -2.86899e-09)
(1.52128e-11 1.1955e-09 -5.53153e-09)
(0 0 0)
(0 0 0)
(0 0 0)
(0 0 0)
(0 0 0)
(0 0 0)
(-4.97956e-11 -2.48267e-10 -2.45882e-09)
(0 0 0)
(4.87748e-10 -3.58327e-09 -1.3992e-08)
(3.22085e-11 5.85314e-11 -9.0695e-10)
(0 0 0)
(0 0 0)
(0 0 0)
(0 0 0)
(6.67313e-11 -3.17519e-10 -2.80962e-09)
(2.56058e-10 -4.8448e-10 -4.96927e-09)
(7.61157e-10 9.12976e-09 -4.35991e-08)
(8.89555e-12 7.55515e-10 -1.65664e-09)
(0 0 0)
(0 0 0)
(0 0 0)
(0 0 0)
(-3.45532e-11 -2.6075e-10 -1.26334e-09)
(-4.38321e-10 -3.81956e-10 -4.48009e-09)
(-1.18981e-09 1.87762e-09 -6.2694e-09)
(0 0 0)
(0 0 0)
(0 0 0)
(0 0 0)
(0 0 0)
(0 0 0)
(0 0 0)
(-2.30313e-10 5.73343e-10 -1.10901e-09)
(0 0 0)
(0 0 0)
(0 0 0)
(0 0 0)
(0 0 0)
(0 0 0)
(2.01073e-11 -3.775e-11 -1.96043e-09)
(0 0 0)
(0 0 0)
(0 0 0)
(0 0 0)
(0 0 0)
(-5.47503e-10 1.22124e-10 -7.217e-09)
(-3.46417e-12 1.86711e-10 -4.19582e-09)
(1.88414e-09 1.86096e-09 -6.5474e-09)
(0 0 0)
(0 0 0)
(0 0 0)
(0 0 0)
(0 0 0)
(0 0 0)
(1.987e-11 -1.79667e-10 -4.46197e-09)
(2.75104e-10 2.22495e-10 -1.06035e-08)
(3.83693e-11 6.65543e-11 -9.52916e-10)
(0 0 0)
(0 0 0)
(0 0 0)
(0 0 0)
(0 0 0)
(-3.81036e-11 -3.2798e-10 -6.95081e-09)
(5.82591e-10 -1.06726e-09 -4.96224e-08)
(2.20527e-09 9.35068e-09 -2.48638e-08)
(0 0 0)
(0 0 0)
(0 0 0)
(0 0 0)
(0 0 0)
(9.47238e-12 -3.29053e-10 -1.53594e-09)
(2.56898e-10 -1.72887e-09 -2.13302e-08)
(1.44527e-09 8.78459e-09 -1.69534e-07)
(-1.03759e-11 2.37321e-10 -1.18237e-09)
(0 0 0)
(0 0 0)
(0 0 0)
(0 0 0)
(5.1008e-10 -8.88347e-10 -1.01581e-08)
(9.58876e-11 8.79084e-10 -3.46641e-08)
(-1.50114e-09 4.33623e-09 -5.33075e-08)
(-2.94359e-10 6.5203e-10 -4.44431e-09)
(0 0 0)
(0 0 0)
(0 0 0)
(0 0 0)
(4.40236e-11 -8.68325e-11 -6.89446e-09)
(-1.39233e-09 3.75441e-09 -6.26154e-08)
(-5.58052e-09 1.35569e-08 -2.49989e-08)
(0 0 0)
(0 0 0)
(0 0 0)
(0 0 0)
(0 0 0)
(4.81715e-09 -5.34975e-09 -2.97859e-08)
(-1.93508e-09 2.82738e-09 -3.76856e-08)
(-1.29507e-09 1.70322e-09 -6.55782e-09)
(0 0 0)
(0 0 0)
(0 0 0)
(-4.25034e-11 -9.94274e-11 -8.59928e-10)
(2.91793e-08 -3.86721e-08 -1.94737e-07)
(4.42706e-08 -3.15204e-08 -2.65059e-07)
(-1.58957e-08 -1.78797e-09 -2.31823e-07)
(3.18355e-08 4.02232e-08 -2.62916e-07)
(1.20509e-08 1.91296e-08 -8.25932e-08)
(-9.06514e-11 -2.1891e-11 -4.63202e-10)
(0 0 0)
(0 0 0)
(0 0 0)
(0 0 0)
(0 0 0)
(0 0 0)
(0 0 0)
(0 0 0)
(0 0 0)
(0 0 0)
(0 0 0)
(0 0 0)
(0 0 0)
(0 0 0)
(0 0 0)
(0 0 0)
(0 0 0)
(0 0 0)
(0 0 0)
(0 0 0)
(0 0 0)
(0 0 0)
(0 0 0)
(0 0 0)
(0 0 0)
(0 0 0)
(0 0 0)
(0 0 0)
(3.50263e-10 1.8191e-10 -2.72949e-09)
(-1.07498e-07 -1.05437e-07 -2.58873e-07)
(0 0 0)
(0 0 0)
(0 0 0)
(-1.03871e-07 9.27885e-08 -2.68063e-07)
(2.81415e-10 -2.69534e-10 -2.18534e-09)
(0 0 0)
(0 0 0)
(-2.8998e-10 1.59677e-10 -2.60452e-09)
(-1.31205e-09 3.1618e-11 -4.61118e-09)
(-2.4368e-09 -1.87231e-10 -2.20865e-09)
(0 0 0)
(0 0 0)
(0 0 0)
(0 0 0)
(0 0 0)
(0 0 0)
(0 0 0)
(0 0 0)
(0 0 0)
(0 0 0)
(0 0 0)
(0 0 0)
(0 0 0)
(0 0 0)
(0 0 0)
(0 0 0)
(0 0 0)
(0 0 0)
(0 0 0)
(0 0 0)
(0 0 0)
(0 0 0)
(0 0 0)
(-1.42165e-09 8.03422e-10 -3.09111e-09)
(-6.22005e-08 -2.13914e-08 -2.99573e-07)
(-2.11055e-11 -1.0253e-09 -2.09864e-08)
(-4.5626e-11 -8.64603e-10 -6.63188e-10)
(-1.54309e-09 -9.1575e-09 -3.53317e-08)
(7.86332e-08 -2.52549e-08 -3.20741e-07)
(8.36431e-10 5.28632e-10 -2.57168e-09)
(0 0 0)
(0 0 0)
(5.07443e-11 -1.15069e-10 -8.51313e-10)
(-8.68897e-10 -2.01252e-08 -9.5442e-09)
(3.02733e-10 -3.47786e-09 -1.33217e-09)
(0 0 0)
(0 0 0)
(0 0 0)
(0 0 0)
(0 0 0)
(0 0 0)
(0 0 0)
(0 0 0)
(0 0 0)
(0 0 0)
(0 0 0)
(0 0 0)
(0 0 0)
(0 0 0)
(0 0 0)
(0 0 0)
(0 0 0)
(0 0 0)
(0 0 0)
(0 0 0)
(0 0 0)
(0 0 0)
(0 0 0)
(1.45483e-10 -1.01152e-10 -1.2374e-09)
(2.07563e-09 2.95745e-08 -2.62961e-07)
(-9.85656e-10 -1.73007e-11 -4.42872e-09)
(0 0 0)
(2.37884e-10 -5.2062e-11 -1.03519e-09)
(-3.84605e-09 6.12872e-08 -2.63822e-07)
(-9.15071e-11 -6.07908e-11 -3.22238e-11)
(0 0 0)
(0 0 0)
(-1.36335e-11 -7.16355e-10 -9.72714e-10)
(1.32563e-09 -1.66363e-09 -1.25297e-08)
(1.72158e-10 -4.56752e-10 -2.88341e-09)
(0 0 0)
(0 0 0)
(0 0 0)
(0 0 0)
(0 0 0)
(0 0 0)
(0 0 0)
(0 0 0)
(0 0 0)
(0 0 0)
(0 0 0)
(0 0 0)
(0 0 0)
(0 0 0)
(0 0 0)
(0 0 0)
(0 0 0)
(0 0 0)
(0 0 0)
(0 0 0)
(0 0 0)
(0 0 0)
(0 0 0)
(0 0 0)
(0 0 0)
(0 0 0)
(0 0 0)
(0 0 0)
(0 0 0)
(0 0 0)
(0 0 0)
(5.40454e-10 -5.13464e-09 -1.31845e-08)
(2.23928e-12 -3.89022e-11 -1.09516e-09)
(0 0 0)
(0 0 0)
(0 0 0)