/*--------------------------------*- C++ -*----------------------------------*\
| =========                 |                                                 |
| \\      /  F ield         | OpenFOAM: The Open Source CFD Toolbox           |
|  \\    /   O peration     | Version:  plus.master.MPPICInterFoam            |
|   \\  /    A nd           | Web:      www.OpenFOAM.com                      |
|    \\/     M anipulation  |                                                 |
\*---------------------------------------------------------------------------*/
FoamFile
{
    version     2.0;
    format      ascii;
    class       volScalarField;
    location    "1.6";
    object      p;
}
// * * * * * * * * * * * * * * * * * * * * * * * * * * * * * * * * * * * * * //

dimensions      [1 -1 -2 0 0 0 0];

internalField   nonuniform List<scalar> 
11821
(
5642.93
5643.23
5643.95
5643.7
5643.03
5642.47
5642.29
5643.08
5649.07
5645.46
5644.85
5647.26
5645.77
5641.46
5643.8
5645.78
5648.02
5650.7
5646.15
5645.04
5643.53
5643.65
5644.67
5650.73
5653.08
5642.49
5643.82
5643.9
5643.16
5648.43
5647
5644.78
5648.64
5644.55
5643.55
5642.92
5646.34
5645.72
5645.34
5645.25
5648.71
5642.01
5643.32
5643.66
5644.34
5644.08
5642.89
5641.67
5641.17
5516.72
5517.27
5518.09
5518.74
5517.64
5517.19
5516.71
5517.26
5518.89
5522.13
5523.57
5520.14
5518.52
5517.36
5517.86
5522.31
5536.84
5539.75
5524.15
5519.47
5517.82
5518.23
5524.25
5543.2
5545.15
5525.76
5519.84
5518.1
5517.68
5520.53
5526.83
5529.12
5522.89
5519.21
5517.74
5517.31
5518.49
5519.71
5520.16
5519.34
5518.56
5517.35
5516.88
5517.49
5518.05
5518.19
5517.81
5517.38
5516.77
5388.75
5389.91
5391.03
5391.42
5389.95
5388.9
5387.86
5389.96
5391.91
5395.94
5396.49
5392.22
5390.29
5388.78
5391.18
5396.73
5412
5411.04
5395.63
5391.65
5389.56
5391.85
5398.96
5416.3
5415.73
5397.21
5392.12
5389.79
5390.55
5392.9
5397.34
5398.93
5393.34
5390.94
5389.24
5389.31
5390.7
5392.11
5392.4
5391.04
5389.68
5388.42
5388.18
5389.15
5389.94
5390.03
5389.37
5388.45
5387.5
5257.51
5258.55
5259.4
5259.5
5258.75
5257.71
5256.59
5258.63
5260.23
5263.25
5263.55
5260.65
5258.99
5257.45
5259.7
5264
5280.21
5276.53
5263.21
5260.13
5258.18
5260.06
5265.78
5281.22
5279.48
5264.22
5260.5
5258.41
5259.03
5260.88
5263.55
5264.51
5261.59
5259.55
5257.89
5257.82
5259.02
5260.06
5260.33
5259.48
5258.28
5257.04
5256.7
5257.53
5258.2
5258.34
5257.87
5257.06
5256.18
5117.48
5116.66
5116.04
5116.25
5117.38
5118.13
5118.38
5116.56
5115.12
5114.67
5114.71
5116.4
5117.92
5118.41
5115.7
5114.9
5129.32
5122.35
5115.04
5117.57
5118.6
5115.69
5115.59
5128.33
5123.54
5114.99
5117.75
5118.88
5116.91
5115.37
5114.02
5114.52
5117.35
5118.69
5119.12
5117.94
5117.68
5117.01
5117.45
5119.04
5119.47
5119.25
5118.43
5118.4
5118.46
5118.83
5119.32
5119.45
5119.13
5644.02
5645.61
5645.43
5645.2
5644.92
5644.69
5644.46
5644.21
5644.15
5647.02
5646.32
5645.7
5645.21
5644.85
5644.55
5644.25
5643.69
5644.07
5644.52
5644.69
5644.64
5644.41
5644.14
5643.91
5644.71
5645.84
5644.3
5644.53
5644.57
5644.49
5644.04
5643.67
5643.89
5644.01
5644.43
5644.64
5644.67
5644.45
5644.2
5643.94
5644.52
5646.92
5646.44
5646.02
5645.58
5645.16
5644.82
5644.49
5643.85
5647.32
5646.72
5646.14
5645.6
5645.16
5644.77
5644.42
5516.34
5516.02
5515.72
5515.46
5515.22
5514.99
5514.77
5514.57
5516.82
5516.42
5516.02
5515.68
5515.36
5515.07
5514.8
5514.55
5517.01
5516.45
5515.99
5515.61
5515.29
5515.03
5514.79
5514.53
5517.38
5516.77
5516.21
5515.72
5515.34
5515.06
5514.79
5514.48
5516.98
5516.43
5515.98
5515.61
5515.29
5515.04
5514.8
5514.54
5516.8
5516.46
5516.07
5515.73
5515.4
5515.11
5514.84
5514.6
5516.44
5516.16
5515.85
5515.58
5515.31
5515.07
5514.83
5514.62
5387.12
5386.53
5386.05
5385.66
5385.34
5385.09
5384.87
5384.67
5387.64
5386.84
5386.22
5385.74
5385.35
5385.06
5384.82
5384.61
5388.11
5387.13
5386.39
5385.82
5385.38
5385.03
5384.76
5384.53
5388.26
5387.25
5386.46
5385.85
5385.37
5385
5384.7
5384.44
5387.92
5387.01
5386.31
5385.77
5385.35
5385.02
5384.75
5384.52
5387.42
5386.67
5386.09
5385.65
5385.32
5385.05
5384.83
5384.63
5386.85
5386.32
5385.9
5385.56
5385.3
5385.08
5384.89
5384.7
5255.82
5255.24
5254.79
5254.48
5254.28
5254.15
5254.06
5253.99
5256.23
5255.38
5254.84
5254.48
5254.24
5254.1
5254.02
5253.97
5256.67
5255.61
5254.91
5254.49
5254.23
5254.08
5253.99
5253.96
5256.84
5255.75
5254.98
5254.52
5254.23
5254.07
5253.98
5253.95
5256.53
5255.58
5254.95
5254.53
5254.26
5254.1
5254.02
5253.99
5256.03
5255.3
5254.82
5254.48
5254.27
5254.14
5254.06
5254.01
5255.58
5255.1
5254.73
5254.46
5254.29
5254.18
5254.11
5254.05
5118.29
5118.02
5117.76
5117.63
5117.68
5117.89
5118.27
5118.85
5118.32
5118.02
5117.76
5117.58
5117.54
5117.72
5118.11
5118.78
5118.61
5118.26
5117.94
5117.67
5117.56
5117.68
5118.06
5118.77
5118.87
5118.52
5118.18
5117.83
5117.64
5117.72
5118.08
5118.79
5118.97
5118.55
5118.15
5117.82
5117.69
5117.81
5118.18
5118.87
5118.91
5118.51
5118.1
5117.85
5117.8
5117.96
5118.33
5118.95
5118.88
5118.49
5118.14
5117.97
5118.01
5118.21
5118.57
5119.1
5644.16
5644.79
5644.96
5644.97
5644.82
5644.62
5644.36
5644.06
5643.86
5644.85
5644.67
5644.46
5644.27
5644.1
5643.92
5643.65
5643.87
5644.32
5644.43
5644.4
5644.29
5644.11
5643.87
5643.58
5644.37
5644.74
5644.83
5645
5644.91
5644.72
5644.38
5643.73
5644.24
5644.52
5644.54
5644.47
5644.37
5644.17
5643.92
5643.61
5643.84
5644.34
5644.3
5644.28
5644.23
5644.16
5644.06
5643.84
5643.78
5644.51
5644.94
5645.03
5644.94
5644.82
5644.63
5644.35
5516.45
5516.1
5515.76
5515.44
5515.15
5514.88
5514.63
5514.38
5516.72
5516.32
5515.92
5515.55
5515.21
5514.88
5514.57
5514.26
5516.96
5516.48
5516.02
5515.56
5515.09
5514.64
5514.21
5513.82
5517.29
5516.68
5516.22
5515.8
5515.32
5514.81
5514.29
5513.73
5517.04
5516.51
5516.03
5515.56
5515.09
5514.63
5514.19
5513.79
5516.66
5516.27
5515.89
5515.54
5515.19
5514.87
5514.55
5514.25
5516.3
5515.98
5515.66
5515.36
5515.09
5514.84
5514.59
5514.36
5387.34
5386.68
5386.13
5385.69
5385.34
5385.07
5384.83
5384.62
5388.06
5387.17
5386.45
5385.87
5385.4
5385.02
5384.72
5384.46
5388.85
5387.72
5386.84
5386.15
5385.59
5385.13
5384.76
5384.43
5389.46
5388.09
5387.09
5386.31
5385.7
5385.2
5384.78
5384.41
5389.17
5387.92
5386.97
5386.22
5385.63
5385.15
5384.76
5384.42
5388.48
5387.47
5386.66
5386
5385.48
5385.07
5384.74
5384.46
5387.74
5387.01
5386.39
5385.87
5385.45
5385.13
5384.85
5384.61
5255.94
5255.32
5254.82
5254.45
5254.2
5254.05
5253.97
5253.91
5256.6
5255.7
5255.01
5254.52
5254.18
5253.97
5253.86
5253.81
5257.41
5256.25
5255.33
5254.68
5254.22
5253.94
5253.78
5253.71
5257.94
5256.58
5255.47
5254.67
5254.18
5253.89
5253.72
5253.67
5257.76
5256.45
5255.4
5254.69
5254.21
5253.9
5253.73
5253.66
5257.13
5256.04
5255.18
5254.6
5254.2
5253.95
5253.8
5253.73
5256.48
5255.68
5255.05
5254.58
5254.25
5254.04
5253.91
5253.82
5118.32
5118.06
5117.74
5117.55
5117.57
5117.77
5118.15
5118.76
5117.99
5117.77
5117.5
5117.29
5117.23
5117.4
5117.82
5118.54
5117.52
5117.61
5117.4
5117.17
5117.04
5117.14
5117.55
5118.35
5117
5117.41
5117.3
5117.13
5116.97
5117.04
5117.42
5118.25
5116.84
5117.19
5117.08
5116.9
5116.79
5116.93
5117.35
5118.19
5117.1
5117.12
5116.97
5116.8
5116.79
5117.01
5117.47
5118.27
5117.57
5117.4
5117.14
5116.99
5117.05
5117.29
5117.72
5118.38
5643.99
5645.13
5645.19
5645.09
5644.88
5644.67
5644.45
5644.21
5643.74
5644.11
5644.32
5644.45
5644.41
5644.28
5644.18
5644.06
5644.33
5644.58
5644.63
5644.73
5644.74
5644.64
5644.46
5644.28
5643.8
5645.63
5646.41
5645.81
5644.95
5644.64
5644.68
5644.31
5643.78
5644.2
5644.36
5644.62
5644.67
5644.57
5644.36
5644.21
5643.83
5644.91
5644.77
5644.73
5644.63
5644.41
5644.31
5644.17
5644.27
5645.28
5645.4
5645.34
5645.15
5644.95
5644.79
5644.56
5516.29
5515.97
5515.66
5515.38
5515.11
5514.87
5514.63
5514.41
5516.63
5516.18
5515.82
5515.5
5515.21
5514.93
5514.67
5514.41
5517.04
5516.33
5515.89
5515.53
5515.17
5514.81
5514.47
5514.18
5518.72
5517.42
5516.37
5515.83
5515.37
5514.98
5514.56
5514.15
5516.73
5516.17
5515.8
5515.48
5515.15
5514.81
5514.48
5514.18
5516.54
5516.12
5515.79
5515.51
5515.24
5514.99
5514.75
5514.5
5516.33
5516.02
5515.74
5515.48
5515.24
5515.02
5514.8
5514.6
5387.72
5387.01
5386.4
5385.89
5385.48
5385.15
5384.88
5384.64
5388.48
5387.49
5386.74
5386.12
5385.6
5385.18
5384.84
5384.55
5389.1
5387.84
5386.97
5386.3
5385.76
5385.32
5384.95
5384.63
5389.35
5387.97
5387.09
5386.44
5385.9
5385.44
5385.02
5384.66
5388.45
5387.47
5386.73
5386.15
5385.67
5385.27
5384.92
5384.62
5387.8
5387.03
5386.43
5385.92
5385.49
5385.13
5384.83
5384.56
5387.16
5386.59
5386.11
5385.7
5385.38
5385.11
5384.89
5384.68
5256.47
5255.66
5255.06
5254.59
5254.26
5254.05
5253.92
5253.83
5257.16
5256.12
5255.3
5254.72
5254.32
5254.06
5253.9
5253.82
5257.65
5256.46
5255.52
5254.85
5254.36
5254.05
5253.86
5253.77
5257.75
5256.55
5255.59
5254.9
5254.41
5254.06
5253.85
5253.75
5257.29
5256.22
5255.36
5254.78
5254.34
5254.05
5253.86
5253.78
5256.6
5255.76
5255.13
5254.66
5254.32
5254.1
5253.96
5253.88
5255.91
5255.32
5254.85
5254.52
5254.28
5254.12
5254.02
5253.94
5117.56
5117.38
5117.15
5117.02
5117.08
5117.32
5117.76
5118.41
5117.25
5117.26
5117.09
5116.94
5116.94
5117.14
5117.58
5118.33
5117.08
5117.32
5117.22
5117.07
5116.98
5117.11
5117.53
5118.35
5117.32
5117.6
5117.49
5117.31
5117.15
5117.23
5117.61
5118.43
5117.81
5117.84
5117.63
5117.37
5117.24
5117.35
5117.75
5118.53
5118.19
5117.98
5117.7
5117.46
5117.4
5117.57
5117.98
5118.68
5118.31
5118.02
5117.75
5117.62
5117.66
5117.88
5118.26
5118.85
5642.71
5644.31
5645.06
5645.22
5645.14
5644.95
5644.72
5644.48
5643.7
5645.76
5645.55
5645.27
5644.99
5644.71
5644.39
5644.06
5643.89
5644.83
5645.22
5645.24
5645.09
5644.86
5644.58
5644.25
5644.87
5645.39
5645.73
5645.82
5645.72
5645.57
5645.27
5644.86
5644.93
5645.39
5645.61
5645.58
5645.37
5645.12
5644.79
5644.43
5644.67
5645.38
5645.37
5645.19
5644.91
5644.61
5644.22
5643.85
5644.24
5645.11
5645.09
5644.98
5644.82
5644.63
5644.4
5644.15
5516.46
5516.15
5515.86
5515.58
5515.32
5515.07
5514.84
5514.62
5516.89
5516.5
5516.11
5515.76
5515.42
5515.1
5514.8
5514.51
5517.18
5516.72
5516.3
5515.88
5515.45
5515.04
5514.64
5514.28
5517.47
5516.93
5516.47
5516.02
5515.54
5515.06
5514.57
5514.08
5517.36
5516.86
5516.4
5515.96
5515.5
5515.06
5514.64
5514.25
5516.95
5516.53
5516.13
5515.76
5515.4
5515.07
5514.76
5514.45
5516.47
5516.12
5515.8
5515.5
5515.22
5514.95
5514.69
5514.46
5386.88
5386.34
5385.91
5385.57
5385.3
5385.08
5384.88
5384.69
5387.47
5386.73
5386.16
5385.71
5385.35
5385.05
5384.79
5384.56
5388.08
5387.16
5386.45
5385.91
5385.49
5385.13
5384.84
5384.57
5388.5
5387.44
5386.64
5386.03
5385.56
5385.17
5384.83
5384.52
5388.43
5387.37
5386.58
5385.99
5385.53
5385.16
5384.85
5384.58
5387.92
5387.02
5386.33
5385.8
5385.38
5385.05
5384.78
5384.54
5387.31
5386.64
5386.11
5385.68
5385.35
5385.08
5384.85
5384.64
5255.63
5255.14
5254.75
5254.47
5254.28
5254.17
5254.09
5254.03
5256.11
5255.39
5254.9
5254.53
5254.28
5254.13
5254.04
5253.98
5256.62
5255.71
5255.04
5254.58
5254.25
5254.05
5253.94
5253.89
5256.89
5255.87
5255.09
5254.57
5254.23
5254.01
5253.89
5253.85
5256.77
5255.77
5255.03
5254.55
5254.21
5254
5253.88
5253.84
5256.36
5255.52
5254.92
5254.5
5254.21
5254.03
5253.94
5253.89
5255.89
5255.26
5254.79
5254.44
5254.21
5254.06
5253.98
5253.92
5118.94
5118.57
5118.22
5118.02
5118.04
5118.23
5118.57
5119.11
5119.14
5118.75
5118.32
5118.01
5117.92
5118.05
5118.4
5119.03
5119.2
5118.82
5118.41
5118.02
5117.84
5117.92
5118.25
5118.94
5118.97
5118.74
5118.38
5117.99
5117.78
5117.82
5118.15
5118.88
5118.65
5118.44
5118.15
5117.84
5117.67
5117.75
5118.11
5118.83
5118.46
5118.19
5117.91
5117.66
5117.6
5117.76
5118.13
5118.81
5118.39
5118.11
5117.82
5117.66
5117.68
5117.88
5118.26
5118.86
5643.96
5644.06
5643.74
5643.46
5643.76
5644.22
5644.13
5514.38
5514.35
5514.31
5514.24
5514.31
5514.4
5514.43
5384.47
5384.41
5384.33
5384.23
5384.33
5384.44
5384.5
5253.85
5253.84
5253.85
5253.84
5253.87
5253.88
5253.91
5118.76
5118.62
5118.52
5118.53
5118.58
5118.68
5118.84
5643.79
5643.38
5643.19
5643.14
5643.22
5643.54
5644.05
5514.16
5513.98
5513.5
5513.22
5513.45
5513.96
5514.14
5384.41
5384.23
5384.15
5384.09
5384.13
5384.22
5384.38
5253.75
5253.67
5253.57
5253.57
5253.53
5253.59
5253.67
5118.73
5118.55
5118.39
5118.27
5118.27
5118.38
5118.62
5643.97
5643.86
5644.08
5644.18
5644.04
5643.94
5644.32
5514.21
5514.17
5513.95
5513.81
5513.94
5514.27
5514.41
5384.41
5384.31
5384.37
5384.37
5384.36
5384.33
5384.47
5253.68
5253.68
5253.64
5253.62
5253.64
5253.74
5253.8
5118.67
5118.57
5118.45
5118.52
5118.58
5118.7
5118.79
5644.25
5643.76
5643.93
5644.39
5644.08
5643.57
5643.91
5514.42
5514.26
5513.99
5513.65
5513.94
5514.17
5514.24
5384.5
5384.35
5384.33
5384.24
5384.33
5384.32
5384.43
5253.89
5253.84
5253.75
5253.74
5253.7
5253.76
5253.77
5118.89
5118.88
5118.83
5118.81
5118.74
5118.76
5118.8
5643.6
5643.33
5643.11
5642.92
5642.74
5642.61
5642.5
5642.43
5643.74
5643.31
5643.09
5642.92
5642.79
5642.67
5642.57
5642.49
5643.5
5643.22
5643.05
5642.88
5642.74
5642.62
5642.53
5642.45
5643.14
5642.54
5642.4
5642.84
5642.93
5642.84
5642.72
5642.62
5643.42
5643.16
5643.09
5642.92
5642.77
5642.64
5642.54
5642.46
5643.75
5643.32
5643.09
5642.93
5642.8
5642.69
5642.59
5642.51
5643.73
5643.4
5643.15
5642.94
5642.77
5642.62
5642.53
5642.47
5514.08
5513.75
5513.49
5513.29
5513.13
5513.02
5512.93
5512.87
5514.08
5513.76
5513.51
5513.32
5513.18
5513.07
5512.98
5512.9
5513.99
5513.68
5513.47
5513.3
5513.16
5513.05
5512.97
5512.9
5513.88
5513.49
5513.25
5513.2
5513.17
5513.12
5513.04
5512.97
5513.98
5513.67
5513.47
5513.31
5513.17
5513.06
5512.97
5512.9
5514.11
5513.78
5513.53
5513.34
5513.2
5513.09
5513.01
5512.95
5514.12
5513.77
5513.5
5513.29
5513.14
5513.03
5512.95
5512.89
5384.14
5383.84
5383.64
5383.51
5383.41
5383.34
5383.28
5383.25
5384.11
5383.83
5383.64
5383.52
5383.43
5383.36
5383.31
5383.27
5384.04
5383.78
5383.61
5383.5
5383.41
5383.34
5383.29
5383.25
5383.93
5383.68
5383.56
5383.49
5383.44
5383.4
5383.36
5383.32
5384.04
5383.79
5383.63
5383.51
5383.42
5383.36
5383.31
5383.27
5384.14
5383.86
5383.67
5383.55
5383.45
5383.39
5383.33
5383.3
5384.18
5383.87
5383.67
5383.54
5383.44
5383.37
5383.32
5383.29
5253.64
5253.59
5253.58
5253.57
5253.55
5253.53
5253.53
5253.54
5253.65
5253.59
5253.58
5253.58
5253.57
5253.55
5253.54
5253.55
5253.65
5253.59
5253.58
5253.58
5253.57
5253.55
5253.55
5253.56
5253.64
5253.58
5253.57
5253.57
5253.58
5253.58
5253.59
5253.59
5253.66
5253.61
5253.59
5253.59
5253.58
5253.57
5253.56
5253.57
5253.68
5253.63
5253.61
5253.62
5253.6
5253.59
5253.58
5253.59
5253.69
5253.64
5253.62
5253.61
5253.59
5253.56
5253.55
5253.56
5120.44
5121.37
5122.18
5122.74
5123.17
5123.48
5123.69
5123.83
5120.38
5121.31
5122.15
5122.73
5123.16
5123.48
5123.7
5123.83
5120.34
5121.28
5122.13
5122.72
5123.15
5123.47
5123.68
5123.82
5120.34
5121.28
5122.14
5122.73
5123.16
5123.47
5123.69
5123.84
5120.38
5121.31
5122.16
5122.74
5123.17
5123.48
5123.7
5123.84
5120.45
5121.37
5122.21
5122.77
5123.19
5123.5
5123.72
5123.85
5120.54
5121.42
5122.23
5122.79
5123.2
5123.52
5123.72
5123.86
5643.4
5643.04
5642.86
5642.75
5642.57
5642.39
5642.3
5642.29
5642.93
5642.36
5641.93
5641.73
5641.6
5641.56
5641.82
5642.15
5642.49
5641.44
5640.51
5640.18
5640.36
5640.65
5640.87
5640.99
5642.19
5640.02
5637.27
5634.37
5632.35
5632.88
5637.81
5644.4
5642.51
5641.32
5640.19
5639.86
5640.15
5640.68
5641.04
5641.16
5643.01
5642.31
5641.85
5641.71
5641.63
5641.48
5641.71
5642.07
5643.57
5643.14
5642.96
5642.86
5642.65
5642.46
5642.35
5642.31
5513.8
5513.41
5513.14
5512.95
5512.83
5512.75
5512.72
5512.71
5513.53
5513.07
5512.75
5512.57
5512.48
5512.48
5512.57
5512.7
5513.03
5512.43
5511.93
5511.61
5511.53
5511.66
5511.79
5511.93
5512.48
5511.43
5510.52
5509.78
5509.19
5509.48
5510.68
5512.29
5512.99
5512.36
5511.76
5511.39
5511.28
5511.54
5511.8
5511.97
5513.52
5513.05
5512.69
5512.48
5512.39
5512.41
5512.49
5512.62
5513.79
5513.42
5513.15
5512.97
5512.85
5512.78
5512.74
5512.73
5384.04
5383.72
5383.51
5383.36
5383.27
5383.22
5383.2
5383.19
5383.87
5383.54
5383.32
5383.18
5383.12
5383.11
5383.14
5383.19
5383.73
5383.33
5383.05
5382.9
5382.83
5382.81
5382.82
5382.85
5383.61
5383.11
5382.74
5382.57
5382.72
5383.02
5383.33
5383.77
5383.7
5383.28
5382.99
5382.83
5382.79
5382.8
5382.81
5382.84
5383.85
5383.5
5383.28
5383.14
5383.08
5383.07
5383.09
5383.14
5384.01
5383.68
5383.47
5383.34
5383.25
5383.2
5383.18
5383.17
5253.54
5253.47
5253.47
5253.46
5253.45
5253.45
5253.46
5253.48
5253.46
5253.41
5253.4
5253.41
5253.41
5253.43
5253.47
5253.52
5253.35
5253.27
5253.23
5253.22
5253.21
5253.22
5253.26
5253.31
5253.37
5253.3
5253.32
5253.36
5253.45
5253.57
5253.74
5253.96
5253.32
5253.23
5253.2
5253.18
5253.19
5253.22
5253.26
5253.32
5253.4
5253.34
5253.34
5253.35
5253.36
5253.38
5253.42
5253.47
5253.47
5253.41
5253.42
5253.42
5253.42
5253.42
5253.44
5253.47
5120.36
5121.31
5122.11
5122.68
5123.11
5123.42
5123.64
5123.79
5120.24
5121.23
5122.05
5122.63
5123.07
5123.4
5123.64
5123.8
5120.11
5121.12
5121.96
5122.56
5123
5123.34
5123.56
5123.71
5120.06
5121.1
5121.98
5122.67
5123.18
5123.56
5123.84
5124.07
5120.02
5121.06
5121.92
5122.54
5123
5123.33
5123.56
5123.71
5120.09
5121.12
5121.97
5122.58
5123.03
5123.36
5123.61
5123.78
5120.21
5121.21
5122.03
5122.63
5123.07
5123.39
5123.61
5123.77
5643.61
5643.28
5643.06
5642.83
5642.6
5642.44
5642.33
5642.26
5643.52
5643.17
5642.95
5642.66
5642.31
5642.01
5641.83
5641.79
5643.77
5643.36
5643
5642.76
5642.57
5642.34
5642.06
5641.76
5643.95
5643.47
5642.75
5641.8
5640.55
5639.04
5637.51
5636.98
5643.75
5643.37
5643.03
5642.79
5642.65
5642.45
5642.16
5641.84
5643.46
5643.06
5642.94
5642.76
5642.46
5642.13
5641.91
5641.86
5643.92
5643.46
5643.13
5642.92
5642.74
5642.59
5642.47
5642.36
5513.87
5513.5
5513.22
5513.01
5512.87
5512.77
5512.7
5512.66
5513.8
5513.38
5513.06
5512.84
5512.68
5512.57
5512.52
5512.56
5513.65
5513.18
5512.87
5512.65
5512.5
5512.41
5512.34
5512.27
5513.3
5512.49
5511.79
5511.28
5510.87
5510.56
5510.54
5511.05
5513.62
5513.21
5512.87
5512.63
5512.47
5512.41
5512.36
5512.28
5513.89
5513.48
5513.15
5512.93
5512.76
5512.65
5512.59
5512.62
5514.09
5513.72
5513.44
5513.22
5513.06
5512.93
5512.83
5512.76
5384.04
5383.71
5383.5
5383.34
5383.24
5383.16
5383.12
5383.09
5383.96
5383.65
5383.44
5383.29
5383.2
5383.15
5383.14
5383.15
5384
5383.67
5383.45
5383.29
5383.16
5383.05
5382.98
5382.93
5383.94
5383.52
5383.17
5382.86
5382.75
5382.83
5383.03
5383.33
5383.99
5383.67
5383.46
5383.3
5383.17
5383.06
5382.98
5382.93
5384
5383.7
5383.5
5383.36
5383.27
5383.21
5383.19
5383.2
5384.13
5383.82
5383.61
5383.46
5383.35
5383.26
5383.2
5383.15
5253.49
5253.43
5253.42
5253.4
5253.39
5253.38
5253.38
5253.4
5253.49
5253.44
5253.44
5253.43
5253.44
5253.46
5253.49
5253.52
5253.44
5253.36
5253.34
5253.32
5253.29
5253.28
5253.28
5253.29
5253.43
5253.36
5253.33
5253.33
5253.39
5253.49
5253.65
5253.84
5253.44
5253.37
5253.35
5253.32
5253.29
5253.28
5253.28
5253.3
5253.55
5253.49
5253.49
5253.49
5253.48
5253.49
5253.52
5253.56
5253.6
5253.54
5253.53
5253.51
5253.48
5253.46
5253.46
5253.47
5120.25
5121.24
5122.05
5122.63
5123.06
5123.37
5123.58
5123.72
5120.22
5121.24
5122.07
5122.67
5123.11
5123.43
5123.65
5123.82
5120.17
5121.19
5122.02
5122.61
5123.03
5123.33
5123.53
5123.66
5120.21
5121.24
5122.09
5122.74
5123.24
5123.6
5123.87
5124.08
5120.25
5121.24
5122.06
5122.64
5123.05
5123.35
5123.55
5123.68
5120.36
5121.33
5122.15
5122.73
5123.16
5123.48
5123.7
5123.86
5120.42
5121.36
5122.15
5122.72
5123.14
5123.45
5123.65
5123.78
5643.85
5643.39
5643.08
5642.87
5642.71
5642.55
5642.41
5642.33
5643.37
5642.97
5642.61
5642.2
5641.91
5641.76
5641.76
5642.01
5643.46
5642.87
5642.37
5642.05
5641.82
5641.61
5641.41
5641.23
5643.69
5642.67
5641.22
5639.08
5636.89
5635.35
5634.4
5635.36
5643.56
5642.94
5642.41
5642.1
5641.92
5641.75
5641.53
5641.19
5643.21
5642.86
5642.55
5642.16
5641.83
5641.63
5641.55
5641.83
5643.51
5643.11
5642.85
5642.66
5642.49
5642.35
5642.24
5642.18
5514.09
5513.71
5513.42
5513.21
5513.06
5512.95
5512.86
5512.81
5513.86
5513.41
5513.07
5512.83
5512.69
5512.64
5512.68
5512.75
5513.59
5513.02
5512.65
5512.38
5512.23
5512.18
5512.14
5512.12
5513.02
5512.1
5511.26
5510.61
5510.23
5510
5510.05
5510.98
5513.52
5513
5512.58
5512.27
5512.09
5512.06
5512.06
5512.06
5513.75
5513.31
5512.97
5512.73
5512.58
5512.54
5512.57
5512.65
5513.88
5513.48
5513.19
5512.99
5512.86
5512.76
5512.7
5512.66
5384.16
5383.85
5383.64
5383.49
5383.39
5383.32
5383.27
5383.23
5384.03
5383.72
5383.5
5383.35
5383.27
5383.24
5383.25
5383.29
5383.97
5383.62
5383.36
5383.18
5383.05
5382.97
5382.92
5382.91
5383.82
5383.37
5382.99
5382.75
5382.69
5382.8
5383.08
5383.52
5383.95
5383.6
5383.34
5383.17
5383.04
5382.95
5382.9
5382.88
5383.98
5383.66
5383.43
5383.28
5383.2
5383.17
5383.19
5383.23
5384.07
5383.74
5383.52
5383.37
5383.27
5383.2
5383.16
5383.14
5253.68
5253.61
5253.6
5253.57
5253.55
5253.54
5253.53
5253.54
5253.63
5253.56
5253.55
5253.54
5253.54
5253.57
5253.59
5253.63
5253.53
5253.44
5253.39
5253.36
5253.34
5253.33
5253.33
5253.35
5253.52
5253.43
5253.38
5253.37
5253.44
5253.56
5253.72
5253.95
5253.49
5253.4
5253.35
5253.32
5253.31
5253.3
5253.3
5253.33
5253.55
5253.48
5253.47
5253.46
5253.47
5253.5
5253.53
5253.59
5253.56
5253.48
5253.47
5253.45
5253.44
5253.43
5253.43
5253.45
5120.56
5121.44
5122.23
5122.79
5123.2
5123.5
5123.7
5123.84
5120.54
5121.45
5122.23
5122.78
5123.19
5123.49
5123.72
5123.89
5120.49
5121.39
5122.16
5122.7
5123.09
5123.38
5123.6
5123.74
5120.47
5121.39
5122.2
5122.82
5123.3
5123.65
5123.92
5124.15
5120.42
5121.34
5122.12
5122.67
5123.07
5123.36
5123.58
5123.72
5120.41
5121.35
5122.15
5122.73
5123.15
5123.46
5123.71
5123.87
5120.42
5121.35
5122.13
5122.7
5123.12
5123.42
5123.64
5123.77
5642.39
5642.37
5642.35
5642.34
5642.32
5642.31
5642.31
5642.3
5642.44
5642.41
5642.39
5642.37
5642.36
5642.34
5642.34
5642.33
5642.4
5642.37
5642.34
5642.32
5642.31
5642.3
5642.29
5642.29
5642.55
5642.51
5642.48
5642.46
5642.44
5642.42
5642.41
5642.41
5642.42
5642.39
5642.37
5642.35
5642.34
5642.33
5642.33
5642.33
5642.46
5642.43
5642.41
5642.39
5642.37
5642.37
5642.36
5642.36
5642.44
5642.42
5642.41
5642.4
5642.39
5642.38
5642.38
5642.38
5512.84
5512.82
5512.8
5512.79
5512.78
5512.77
5512.76
5512.75
5512.86
5512.83
5512.81
5512.79
5512.77
5512.76
5512.75
5512.75
5512.87
5512.85
5512.83
5512.81
5512.8
5512.79
5512.78
5512.77
5512.92
5512.9
5512.88
5512.86
5512.85
5512.84
5512.84
5512.84
5512.86
5512.84
5512.82
5512.8
5512.79
5512.78
5512.78
5512.77
5512.91
5512.89
5512.87
5512.86
5512.85
5512.84
5512.83
5512.82
5512.86
5512.84
5512.82
5512.81
5512.8
5512.8
5512.79
5512.79
5383.23
5383.22
5383.21
5383.2
5383.2
5383.19
5383.19
5383.18
5383.25
5383.24
5383.23
5383.22
5383.21
5383.21
5383.2
5383.2
5383.23
5383.21
5383.2
5383.2
5383.19
5383.19
5383.18
5383.18
5383.31
5383.3
5383.29
5383.28
5383.28
5383.28
5383.28
5383.27
5383.25
5383.24
5383.23
5383.23
5383.22
5383.22
5383.21
5383.21
5383.27
5383.26
5383.25
5383.24
5383.23
5383.23
5383.23
5383.23
5383.27
5383.26
5383.25
5383.25
5383.24
5383.24
5383.24
5383.23
5253.56
5253.57
5253.58
5253.58
5253.59
5253.59
5253.59
5253.59
5253.56
5253.57
5253.58
5253.59
5253.59
5253.59
5253.6
5253.6
5253.57
5253.58
5253.59
5253.6
5253.6
5253.6
5253.61
5253.6
5253.6
5253.6
5253.61
5253.61
5253.62
5253.62
5253.62
5253.62
5253.58
5253.59
5253.59
5253.6
5253.6
5253.61
5253.61
5253.61
5253.6
5253.61
5253.62
5253.63
5253.63
5253.63
5253.64
5253.64
5253.58
5253.59
5253.59
5253.6
5253.61
5253.61
5253.61
5253.62
5123.9
5123.94
5123.97
5124
5124.01
5124.02
5124.03
5124.03
5123.91
5123.95
5123.98
5124
5124.02
5124.03
5124.03
5124.03
5123.89
5123.94
5123.97
5123.99
5124.01
5124.02
5124.02
5124.03
5123.92
5123.96
5124
5124.02
5124.03
5124.04
5124.05
5124.05
5123.91
5123.95
5123.98
5124.01
5124.02
5124.03
5124.04
5124.04
5123.92
5123.96
5123.99
5124.01
5124.03
5124.04
5124.04
5124.05
5123.93
5123.97
5124
5124.02
5124.03
5124.04
5124.05
5124.05
5642.3
5642.31
5642.31
5642.32
5642.32
5642.33
5642.33
5642.32
5642.37
5642.49
5642.56
5642.61
5642.63
5642.65
5642.66
5642.66
5641.36
5641.58
5641.73
5641.83
5641.91
5641.96
5642
5642.03
5648.4
5649.51
5649.23
5648.61
5648.14
5647.79
5647.58
5647.52
5641.45
5641.63
5641.76
5641.85
5641.92
5641.97
5642
5642.03
5642.3
5642.42
5642.5
5642.54
5642.56
5642.57
5642.58
5642.58
5642.3
5642.3
5642.29
5642.29
5642.29
5642.28
5642.28
5642.28
5512.72
5512.72
5512.73
5512.73
5512.73
5512.74
5512.74
5512.74
5512.8
5512.87
5512.92
5512.96
5512.98
5513
5513
5513
5512.07
5512.17
5512.25
5512.32
5512.37
5512.41
5512.44
5512.45
5513.88
5514.75
5515.22
5515.45
5515.56
5515.61
5515.64
5515.66
5512.11
5512.21
5512.29
5512.35
5512.4
5512.44
5512.46
5512.47
5512.71
5512.77
5512.82
5512.85
5512.87
5512.89
5512.9
5512.9
5512.73
5512.73
5512.73
5512.73
5512.73
5512.73
5512.73
5512.73
5383.18
5383.18
5383.19
5383.19
5383.19
5383.19
5383.18
5383.18
5383.23
5383.25
5383.28
5383.3
5383.31
5383.32
5383.32
5383.33
5382.88
5382.91
5382.93
5382.95
5382.97
5382.98
5382.98
5382.99
5384.14
5384.38
5384.55
5384.66
5384.73
5384.77
5384.8
5384.81
5382.88
5382.9
5382.93
5382.95
5382.96
5382.97
5382.98
5382.98
5383.18
5383.21
5383.23
5383.25
5383.26
5383.27
5383.27
5383.27
5383.16
5383.16
5383.16
5383.15
5383.15
5383.15
5383.15
5383.15
5253.51
5253.53
5253.55
5253.56
5253.57
5253.57
5253.58
5253.58
5253.57
5253.6
5253.63
5253.65
5253.66
5253.67
5253.68
5253.68
5253.35
5253.38
5253.4
5253.43
5253.44
5253.45
5253.46
5253.46
5254.12
5254.23
5254.32
5254.39
5254.44
5254.47
5254.49
5254.49
5253.36
5253.4
5253.42
5253.44
5253.46
5253.47
5253.47
5253.47
5253.51
5253.54
5253.57
5253.58
5253.6
5253.61
5253.61
5253.61
5253.49
5253.51
5253.53
5253.54
5253.55
5253.56
5253.56
5253.56
5123.87
5123.92
5123.95
5123.98
5124
5124.01
5124.01
5124.02
5123.89
5123.94
5123.99
5124.02
5124.04
5124.05
5124.06
5124.06
5123.79
5123.84
5123.88
5123.91
5123.93
5123.94
5123.94
5123.95
5124.21
5124.29
5124.37
5124.42
5124.46
5124.49
5124.51
5124.51
5123.79
5123.84
5123.88
5123.9
5123.92
5123.94
5123.94
5123.95
5123.87
5123.92
5123.96
5123.99
5124.01
5124.02
5124.03
5124.03
5123.85
5123.89
5123.93
5123.95
5123.97
5123.98
5123.99
5123.99
5642.21
5642.19
5642.17
5642.16
5642.15
5642.15
5642.14
5642.14
5641.86
5641.96
5642.07
5642.17
5642.27
5642.35
5642.4
5642.42
5641.59
5641.48
5641.43
5641.47
5641.53
5641.63
5641.69
5641.74
5637.67
5638.63
5639.41
5642.82
5646.07
5647.28
5647.89
5648.15
5641.62
5641.5
5641.42
5641.41
5641.45
5641.57
5641.63
5641.68
5641.91
5642.01
5642.11
5642.21
5642.31
5642.38
5642.43
5642.45
5642.28
5642.24
5642.2
5642.18
5642.16
5642.15
5642.14
5642.14
5512.64
5512.63
5512.62
5512.61
5512.61
5512.6
5512.6
5512.59
5512.6
5512.65
5512.69
5512.74
5512.78
5512.81
5512.83
5512.83
5512.23
5512.21
5512.22
5512.23
5512.26
5512.28
5512.29
5512.3
5511.53
5511.93
5512.31
5513.37
5514.48
5514.94
5515.22
5515.36
5512.23
5512.21
5512.2
5512.21
5512.23
5512.25
5512.27
5512.27
5512.65
5512.69
5512.73
5512.77
5512.81
5512.84
5512.86
5512.86
5512.72
5512.69
5512.67
5512.65
5512.64
5512.62
5512.62
5512.61
5383.07
5383.07
5383.06
5383.06
5383.05
5383.05
5383.04
5383.04
5383.18
5383.2
5383.23
5383.25
5383.26
5383.27
5383.28
5383.27
5382.9
5382.88
5382.87
5382.87
5382.87
5382.87
5382.87
5382.87
5383.57
5383.74
5383.88
5384.05
5384.24
5384.39
5384.47
5384.51
5382.9
5382.88
5382.87
5382.87
5382.87
5382.87
5382.87
5382.87
5383.22
5383.24
5383.26
5383.28
5383.3
5383.31
5383.31
5383.31
5383.12
5383.11
5383.09
5383.08
5383.07
5383.06
5383.06
5383.06
5253.41
5253.43
5253.43
5253.44
5253.45
5253.45
5253.45
5253.45
5253.56
5253.59
5253.62
5253.64
5253.65
5253.66
5253.67
5253.67
5253.3
5253.32
5253.33
5253.34
5253.35
5253.35
5253.35
5253.35
5253.98
5254.09
5254.18
5254.27
5254.34
5254.4
5254.42
5254.43
5253.31
5253.33
5253.34
5253.34
5253.35
5253.35
5253.36
5253.36
5253.6
5253.62
5253.65
5253.67
5253.68
5253.69
5253.7
5253.7
5253.48
5253.49
5253.49
5253.5
5253.5
5253.5
5253.5
5253.5
5123.79
5123.83
5123.86
5123.88
5123.89
5123.9
5123.91
5123.91
5123.92
5123.97
5124.02
5124.05
5124.07
5124.08
5124.09
5124.09
5123.73
5123.77
5123.8
5123.82
5123.84
5123.85
5123.85
5123.85
5124.21
5124.3
5124.38
5124.44
5124.49
5124.52
5124.54
5124.54
5123.74
5123.78
5123.81
5123.83
5123.85
5123.85
5123.86
5123.86
5123.95
5124.01
5124.04
5124.07
5124.09
5124.11
5124.12
5124.12
5123.84
5123.88
5123.91
5123.93
5123.94
5123.95
5123.95
5123.95
5642.3
5642.29
5642.29
5642.28
5642.28
5642.28
5642.27
5642.27
5642.24
5642.43
5642.59
5642.7
5642.77
5642.82
5642.84
5642.86
5641.19
5641.23
5641.46
5641.62
5641.74
5641.83
5641.88
5641.92
5642.33
5646.86
5649.24
5650.15
5650.17
5649.84
5649.66
5649.64
5641.11
5641.15
5641.38
5641.54
5641.66
5641.75
5641.81
5641.85
5642.1
5642.31
5642.48
5642.6
5642.68
5642.73
5642.76
5642.78
5642.17
5642.16
5642.16
5642.16
5642.16
5642.16
5642.16
5642.16
5512.79
5512.77
5512.77
5512.76
5512.75
5512.75
5512.74
5512.74
5512.84
5512.92
5512.99
5513.05
5513.1
5513.13
5513.14
5513.15
5512.15
5512.18
5512.24
5512.29
5512.33
5512.36
5512.38
5512.39
5512.19
5513.2
5514.42
5515.32
5515.83
5516.11
5516.26
5516.35
5512.09
5512.12
5512.17
5512.22
5512.27
5512.3
5512.32
5512.33
5512.75
5512.84
5512.92
5512.98
5513.03
5513.06
5513.08
5513.09
5512.65
5512.64
5512.64
5512.64
5512.63
5512.63
5512.63
5512.62
5383.21
5383.21
5383.2
5383.2
5383.2
5383.19
5383.19
5383.19
5383.34
5383.37
5383.41
5383.43
5383.45
5383.47
5383.47
5383.47
5382.91
5382.92
5382.93
5382.94
5382.95
5382.96
5382.96
5382.96
5383.94
5384.26
5384.54
5384.77
5384.93
5385.04
5385.11
5385.13
5382.88
5382.89
5382.9
5382.91
5382.92
5382.92
5382.92
5382.93
5383.28
5383.32
5383.35
5383.38
5383.4
5383.42
5383.42
5383.42
5383.12
5383.11
5383.1
5383.1
5383.09
5383.09
5383.09
5383.08
5253.55
5253.56
5253.57
5253.58
5253.58
5253.59
5253.59
5253.59
5253.67
5253.71
5253.73
5253.76
5253.78
5253.79
5253.8
5253.8
5253.38
5253.39
5253.41
5253.43
5253.44
5253.45
5253.45
5253.45
5254.15
5254.3
5254.43
5254.53
5254.62
5254.67
5254.7
5254.71
5253.35
5253.37
5253.38
5253.4
5253.41
5253.42
5253.42
5253.42
5253.64
5253.67
5253.7
5253.73
5253.75
5253.76
5253.77
5253.77
5253.47
5253.48
5253.49
5253.5
5253.5
5253.51
5253.51
5253.51