/*--------------------------------*- C++ -*----------------------------------*\
| =========                 |                                                 |
| \\      /  F ield         | OpenFOAM: The Open Source CFD Toolbox           |
|  \\    /   O peration     | Version:  plus.master.MPPICInterFoam            |
|   \\  /    A nd           | Web:      www.OpenFOAM.com                      |
|    \\/     M anipulation  |                                                 |
\*---------------------------------------------------------------------------*/
FoamFile
{
    version     2.0;
    format      ascii;
    class       volScalarField;
    location    "1.6";
    object      p_rgh;
}
// * * * * * * * * * * * * * * * * * * * * * * * * * * * * * * * * * * * * * //

dimensions      [1 -1 -2 0 0 0 0];

internalField   nonuniform List<scalar> 
11821
(
5707.67
5707.98
5708.69
5706.11
5707.77
5707.22
5707.03
5707.82
5687.07
5692.12
5687.61
5680.79
5693.48
5706.21
5708.54
5691.38
5662.5
5655.97
5672.29
5697.13
5708.28
5708.4
5689.13
5655.11
5654.15
5672.68
5694.84
5707.4
5707.9
5676.7
5668.1
5666.63
5664.92
5695.49
5708.29
5707.67
5696.52
5700.61
5698.63
5691.52
5688.44
5706.76
5708.06
5708.41
5709.09
5708.83
5707.64
5706.42
5705.91
5710.96
5711.5
5711.58
5698.21
5711.87
5711.43
5710.95
5711.5
5713.09
5673.48
5670.57
5714.38
5712.77
5711.6
5712.1
5673.07
5578.61
5575.6
5702.67
5713.71
5712.06
5712.47
5655.11
5558.51
5558.38
5676.3
5714.06
5711.61
5711.91
5703.39
5652.25
5639.44
5695.73
5713.45
5711.98
5711.54
5712.73
5713.95
5714.39
5713.58
5712.8
5711.59
5711.12
5711.73
5712.29
5712.43
5712.05
5711.62
5711.01
5712.45
5713.64
5714.76
5698.03
5713.68
5712.49
5711.57
5713.69
5715.32
5652.65
5647.11
5715.95
5714.01
5712.49
5714.91
5641.72
5474.34
5486.27
5719.34
5715.38
5713.29
5715.58
5609.61
5449.76
5455.44
5692.05
5715.85
5713.52
5714.28
5716.63
5663.85
5641.72
5717.06
5714.67
5712.97
5713.04
5714.43
5715.84
5716.13
5714.77
5713.41
5712.15
5711.9
5712.88
5713.67
5713.76
5713.1
5712.18
5711.23
5710.73
5711.77
5712.62
5712.72
5711.97
5710.89
5709.81
5711.85
5713.45
5651.96
5645.54
5713.87
5712.2
5710.67
5712.93
5620.21
5361.78
5409.11
5716.43
5713.35
5711.41
5713.28
5575.55
5353.9
5377.96
5717.44
5713.72
5711.63
5712.25
5714.1
5695.61
5669.16
5714.81
5712.77
5711.11
5711.04
5712.24
5713.29
5713.55
5712.7
5711.5
5710.26
5709.88
5710.75
5711.42
5711.57
5711.1
5710.29
5709.4
5700.19
5699.37
5698.76
5698.96
5700.09
5700.85
5701.09
5699.28
5697.83
5658.04
5653.11
5699.11
5700.63
5701.12
5698.41
5584.74
5231.03
5320.21
5697.76
5700.28
5701.32
5698.4
5531.09
5232.1
5279.28
5697.7
5700.46
5701.59
5699.62
5698.09
5677.94
5674.66
5700.06
5701.41
5701.83
5700.66
5700.39
5699.72
5700.17
5701.75
5702.19
5701.97
5701.15
5701.11
5701.17
5701.54
5702.03
5702.16
5701.84
5708.77
5710.35
5710.18
5709.94
5709.66
5709.44
5709.21
5708.95
5708.9
5711.76
5711.07
5710.44
5709.96
5709.59
5709.3
5708.99
5708.28
5708.81
5709.26
5709.44
5709.39
5709.15
5708.89
5708.66
5702.61
5703.73
5706.63
5709.28
5709.32
5709.24
5708.79
5708.41
5708.58
5708.76
5709.18
5709.39
5709.42
5709.19
5708.95
5708.69
5709.27
5711.67
5711.18
5710.77
5710.33
5709.91
5709.56
5709.24
5708.6
5712.07
5711.47
5710.88
5710.34
5709.91
5709.52
5709.17
5710.58
5710.26
5709.96
5709.7
5709.46
5709.23
5709.01
5708.81
5711.06
5710.65
5710.26
5709.91
5709.6
5709.31
5709.04
5708.79
5711.25
5710.69
5710.23
5709.85
5709.53
5709.27
5709.03
5708.77
5710.92
5711.01
5710.45
5709.96
5709.58
5709.3
5709.03
5708.72
5711.22
5710.67
5710.22
5709.84
5709.53
5709.27
5709.04
5708.77
5711.04
5710.69
5710.31
5709.97
5709.64
5709.35
5709.08
5708.84
5710.68
5710.4
5710.09
5709.81
5709.55
5709.3
5709.07
5708.86
5710.85
5710.26
5709.78
5709.39
5709.07
5708.82
5708.6
5708.4
5711.37
5710.57
5709.95
5709.47
5709.08
5708.79
5708.55
5708.34
5711.84
5710.86
5710.12
5709.55
5709.11
5708.76
5708.49
5708.26
5711.99
5710.98
5710.19
5709.58
5709.1
5708.73
5708.43
5708.17
5711.65
5710.74
5710.04
5709.5
5709.08
5708.75
5708.48
5708.25
5711.15
5710.4
5709.82
5709.38
5709.05
5708.78
5708.56
5708.36
5710.58
5710.05
5709.63
5709.29
5709.03
5708.81
5708.62
5708.43
5709.04
5708.46
5708.02
5707.71
5707.5
5707.37
5707.28
5707.21
5709.44
5708.58
5708.06
5707.7
5707.46
5707.32
5707.24
5707.19
5709.89
5708.81
5708.11
5707.71
5707.45
5707.3
5707.21
5707.18
5710.07
5708.95
5708.18
5707.74
5707.45
5707.29
5707.2
5707.17
5709.75
5708.79
5708.16
5707.75
5707.48
5707.32
5707.24
5707.21
5709.25
5708.5
5708.04
5707.71
5707.49
5707.36
5707.28
5707.23
5708.8
5708.32
5707.95
5707.68
5707.51
5707.4
5707.33
5707.27
5701
5700.7
5700.48
5700.35
5700.39
5700.6
5700.98
5701.56
5701.04
5700.7
5700.43
5700.29
5700.26
5700.44
5700.83
5701.5
5701.32
5700.95
5700.57
5700.39
5700.27
5700.39
5700.77
5701.48
5701.59
5701.23
5700.82
5700.55
5700.36
5700.43
5700.79
5701.5
5701.68
5701.24
5700.8
5700.54
5700.41
5700.52
5700.9
5701.58
5701.63
5701.19
5700.81
5700.56
5700.52
5700.68
5701.04
5701.66
5701.58
5701.18
5700.85
5700.69
5700.72
5700.93
5701.28
5701.81
5708.9
5709.54
5709.71
5709.72
5709.57
5709.37
5709.11
5708.81
5708.6
5709.6
5709.42
5709.2
5709.01
5708.85
5708.67
5708.4
5708.62
5709.06
5709.18
5709.15
5709.04
5708.85
5708.62
5708.32
5708.84
5709.42
5708.71
5707.82
5707.74
5707.55
5707.21
5707.52
5708.98
5709.26
5709.28
5709.22
5709.11
5708.91
5708.67
5708.36
5708.58
5709.09
5709.05
5709.03
5708.97
5708.9
5708.81
5708.59
5708.52
5709.26
5709.69
5709.77
5709.68
5709.57
5709.37
5709.09
5710.69
5710.34
5709.99
5709.68
5709.39
5709.12
5708.86
5708.62
5710.96
5710.56
5710.16
5709.79
5709.44
5709.12
5708.81
5708.5
5711.2
5710.72
5710.26
5709.8
5709.33
5708.87
5708.45
5708.06
5711.03
5710.92
5710.46
5710.03
5709.56
5709.05
5708.53
5707.97
5711.28
5710.75
5710.27
5709.8
5709.32
5708.87
5708.43
5708.03
5710.9
5710.51
5710.13
5709.77
5709.43
5709.1
5708.79
5708.49
5710.54
5710.21
5709.9
5709.6
5709.33
5709.08
5708.83
5708.6
5711.07
5710.41
5709.86
5709.42
5709.07
5708.8
5708.56
5708.35
5711.79
5710.9
5710.18
5709.6
5709.13
5708.75
5708.45
5708.19
5712.58
5711.44
5710.57
5709.88
5709.32
5708.86
5708.49
5708.16
5713.19
5711.82
5710.81
5710.04
5709.43
5708.93
5708.51
5708.14
5712.9
5711.64
5710.69
5709.95
5709.36
5708.88
5708.49
5708.15
5712.21
5711.19
5710.39
5709.73
5709.21
5708.8
5708.47
5708.19
5711.47
5710.74
5710.12
5709.6
5709.18
5708.86
5708.58
5708.34
5709.17
5708.54
5708.04
5707.67
5707.42
5707.27
5707.19
5707.13
5709.82
5708.91
5708.22
5707.74
5707.4
5707.19
5707.08
5707.03
5710.63
5709.46
5708.52
5707.9
5707.45
5707.16
5707
5706.93
5711.17
5709.8
5708.67
5707.86
5707.4
5707.11
5706.95
5706.89
5710.98
5709.66
5708.58
5707.91
5707.43
5707.12
5706.95
5706.88
5710.35
5709.25
5708.37
5707.82
5707.43
5707.17
5707.02
5706.96
5709.69
5708.89
5708.27
5707.8
5707.47
5707.26
5707.13
5707.04
5701.04
5700.76
5700.43
5700.26
5700.28
5700.48
5700.86
5701.47
5700.7
5700.48
5700.14
5700
5699.94
5700.11
5700.53
5701.26
5700.24
5700.32
5700.08
5699.86
5699.75
5699.86
5700.27
5701.06
5699.72
5700.12
5699.97
5699.79
5699.69
5699.75
5700.13
5700.97
5699.56
5699.91
5699.76
5699.56
5699.51
5699.64
5700.07
5700.9
5699.82
5699.84
5699.65
5699.5
5699.5
5699.72
5700.19
5700.98
5700.28
5700.11
5699.84
5699.71
5699.76
5700
5700.44
5701.09
5708.74
5709.87
5709.93
5709.83
5709.63
5709.42
5709.2
5708.96
5708.49
5708.85
5709.06
5709.2
5709.15
5709.02
5708.92
5708.8
5708.39
5709.33
5709.37
5709.48
5709.49
5709.38
5709.21
5709.01
5701.8
5702.98
5703.77
5703.78
5709.7
5708.25
5708.28
5708.59
5708.53
5708.85
5709.11
5709.36
5709.42
5709.31
5709.11
5708.96
5708.58
5709.66
5709.52
5709.47
5709.37
5709.16
5709.05
5708.92
5709.02
5710.03
5710.14
5710.08
5709.89
5709.69
5709.54
5709.31
5710.52
5710.21
5709.9
5709.62
5709.35
5709.1
5708.87
5708.65
5710.87
5710.42
5710.06
5709.74
5709.45
5709.17
5708.91
5708.65
5707.71
5710.57
5710.13
5709.77
5709.41
5709.05
5708.71
5708.41
5692.41
5696.98
5703.79
5708.36
5709.6
5709.22
5708.8
5708.39
5710.97
5710.41
5710.03
5709.72
5709.39
5709.05
5708.72
5708.41
5710.77
5710.36
5710.03
5709.75
5709.48
5709.23
5708.99
5708.74
5710.56
5710.26
5709.97
5709.71
5709.48
5709.25
5709.04
5708.84
5711.45
5710.74
5710.13
5709.62
5709.21
5708.88
5708.61
5708.37
5712.21
5711.22
5710.47
5709.85
5709.33
5708.91
5708.57
5708.28
5710.42
5711.57
5710.69
5710.03
5709.49
5709.05
5708.68
5708.36
5703.27
5711.13
5710.82
5710.17
5709.63
5709.17
5708.75
5708.39
5712.18
5711.19
5710.46
5709.88
5709.4
5709
5708.65
5708.35
5711.52
5710.76
5710.16
5709.65
5709.22
5708.86
5708.56
5708.29
5710.87
5710.32
5709.84
5709.43
5709.11
5708.84
5708.62
5708.41
5709.68
5708.87
5708.28
5707.81
5707.49
5707.27
5707.14
5707.06
5710.38
5709.33
5708.5
5707.95
5707.54
5707.28
5707.13
5707.05
5710.74
5709.66
5708.72
5708.07
5707.58
5707.27
5707.08
5706.99
5710.99
5709.77
5708.81
5708.12
5707.63
5707.28
5707.07
5706.98
5710.51
5709.43
5708.56
5708
5707.57
5707.27
5707.08
5707
5709.82
5708.98
5708.34
5707.88
5707.55
5707.32
5707.18
5707.11
5709.13
5708.54
5708.08
5707.74
5707.5
5707.35
5707.24
5707.17
5700.28
5700.08
5699.84
5699.73
5699.79
5700.04
5700.47
5701.13
5699.97
5699.97
5699.72
5699.66
5699.65
5699.85
5700.29
5701.04
5699.79
5700.03
5699.89
5699.76
5699.7
5699.83
5700.25
5701.06
5700.03
5700.31
5700.18
5699.96
5699.87
5699.94
5700.32
5701.14
5700.53
5700.55
5700.31
5700.05
5699.95
5700.07
5700.47
5701.24
5700.9
5700.67
5700.38
5700.17
5700.12
5700.29
5700.7
5701.39
5701.02
5700.7
5700.46
5700.33
5700.38
5700.59
5700.98
5701.56
5707.46
5709.05
5709.8
5709.97
5709.89
5709.7
5709.47
5709.23
5708.45
5710.5
5710.3
5710.02
5709.74
5709.46
5709.14
5708.8
5708.64
5709.57
5709.97
5709.99
5709.83
5709.61
5709.32
5709
5709.12
5710.12
5710.48
5710.48
5710.46
5710.31
5710.02
5709.6
5709.52
5710.14
5710.36
5710.32
5710.12
5709.86
5709.53
5709.18
5709.42
5710.12
5710.11
5709.94
5709.65
5709.36
5708.97
5708.59
5708.98
5709.86
5709.83
5709.72
5709.57
5709.37
5709.15
5708.9
5710.7
5710.39
5710.09
5709.82
5709.55
5709.31
5709.07
5708.86
5711.13
5710.74
5710.35
5709.99
5709.66
5709.34
5709.04
5708.75
5711.41
5710.96
5710.53
5710.12
5709.69
5709.27
5708.88
5708.52
5711.45
5711.17
5710.71
5710.26
5709.78
5709.3
5708.81
5708.32
5711.54
5711.1
5710.64
5710.19
5709.74
5709.3
5708.88
5708.49
5711.19
5710.77
5710.37
5709.99
5709.64
5709.31
5708.99
5708.69
5710.71
5710.36
5710.04
5709.74
5709.45
5709.19
5708.93
5708.69
5710.61
5710.07
5709.64
5709.3
5709.03
5708.81
5708.61
5708.42
5711.2
5710.46
5709.89
5709.44
5709.08
5708.78
5708.52
5708.29
5711.81
5710.89
5710.18
5709.64
5709.22
5708.86
5708.57
5708.3
5712.23
5711.17
5710.37
5709.76
5709.29
5708.9
5708.56
5708.25
5712.16
5711.1
5710.31
5709.72
5709.26
5708.89
5708.58
5708.31
5711.65
5710.75
5710.05
5709.53
5709.11
5708.78
5708.51
5708.27
5710.98
5710.37
5709.84
5709.41
5709.08
5708.81
5708.58
5708.37
5708.85
5708.36
5707.97
5707.69
5707.51
5707.39
5707.31
5707.25
5709.33
5708.61
5708.12
5707.76
5707.51
5707.35
5707.26
5707.2
5709.84
5708.93
5708.25
5707.8
5707.48
5707.28
5707.16
5707.11
5710.12
5709.09
5708.3
5707.79
5707.45
5707.24
5707.12
5707.07
5709.99
5708.98
5708.24
5707.78
5707.43
5707.22
5707.11
5707.06
5709.58
5708.74
5708.13
5707.72
5707.43
5707.25
5707.16
5707.12
5709.03
5708.48
5708.01
5707.66
5707.43
5707.29
5707.2
5707.14
5701.64
5701.26
5700.93
5700.74
5700.75
5700.94
5701.28
5701.82
5701.85
5701.45
5701.01
5700.72
5700.63
5700.77
5701.11
5701.74
5701.91
5701.54
5701.09
5700.73
5700.56
5700.63
5700.96
5701.65
5701.69
5701.45
5701.08
5700.68
5700.49
5700.54
5700.86
5701.59
5701.36
5701.15
5700.83
5700.55
5700.39
5700.47
5700.82
5701.54
5701.17
5700.88
5700.57
5700.38
5700.31
5700.47
5700.85
5701.52
5701.11
5700.81
5700.52
5700.38
5700.4
5700.6
5700.97
5701.57
5708.71
5708.8
5708.49
5708.21
5708.5
5708.97
5708.88
5708.62
5708.59
5708.55
5708.48
5708.55
5708.64
5708.66
5708.2
5708.14
5708.06
5707.96
5708.06
5708.17
5708.23
5707.07
5707.07
5707.07
5707.06
5707.09
5707.11
5707.14
5701.47
5701.33
5701.23
5701.25
5701.29
5701.4
5701.55
5708.54
5708.13
5707.93
5707.89
5707.96
5708.28
5708.8
5708.4
5708.22
5707.74
5707.45
5707.69
5708.2
5708.38
5708.14
5707.96
5707.88
5707.82
5707.86
5707.95
5708.11
5706.97
5706.89
5706.79
5706.79
5706.75
5706.81
5706.89
5701.44
5701.26
5701.11
5700.99
5700.98
5701.09
5701.34
5708.72
5708.61
5708.81
5708.93
5708.79
5708.68
5709.07
5708.44
5708.41
5708.19
5708.05
5708.18
5708.5
5708.64
5708.14
5708.04
5708.1
5708.1
5708.09
5708.06
5708.2
5706.91
5706.91
5706.86
5706.85
5706.86
5706.97
5707.03
5701.39
5701.29
5701.17
5701.23
5701.29
5701.42
5701.51
5708.99
5708.5
5708.68
5709.13
5708.83
5708.31
5708.65
5708.66
5708.49
5708.23
5707.88
5708.18
5708.41
5708.47
5708.23
5708.08
5708.06
5707.97
5708.06
5708.05
5708.16
5707.11
5707.06
5706.97
5706.96
5706.92
5706.98
5706.99
5701.61
5701.59
5701.54
5701.52
5701.46
5701.47
5701.52
5708.35
5708.08
5707.86
5707.66
5707.49
5707.35
5707.24
5707.18
5708.48
5708.06
5707.84
5707.67
5707.53
5707.41
5707.31
5707.24
5708.24
5707.97
5707.79
5707.63
5707.49
5707.37
5707.28
5707.2
5707.88
5707.28
5707.15
5707.58
5707.68
5707.59
5707.47
5707.36
5708.16
5707.91
5707.83
5707.67
5707.52
5707.39
5707.29
5707.21
5708.49
5708.07
5707.83
5707.68
5707.55
5707.43
5707.34
5707.26
5708.47
5708.15
5707.9
5707.69
5707.51
5707.37
5707.27
5707.21
5708.32
5707.98
5707.72
5707.52
5707.37
5707.26
5707.17
5707.11
5708.32
5707.99
5707.75
5707.56
5707.42
5707.3
5707.21
5707.14
5708.23
5707.92
5707.7
5707.53
5707.4
5707.29
5707.21
5707.14
5708.12
5707.73
5707.49
5707.44
5707.41
5707.36
5707.28
5707.2
5708.22
5707.91
5707.71
5707.54
5707.41
5707.29
5707.21
5707.14
5708.35
5708.01
5707.76
5707.58
5707.44
5707.33
5707.25
5707.19
5708.35
5708.01
5707.74
5707.53
5707.38
5707.27
5707.18
5707.13
5707.87
5707.57
5707.37
5707.24
5707.14
5707.07
5707.01
5706.98
5707.84
5707.56
5707.37
5707.25
5707.16
5707.09
5707.04
5707
5707.77
5707.51
5707.34
5707.23
5707.14
5707.07
5707.02
5706.98
5707.66
5707.41
5707.29
5707.22
5707.17
5707.13
5707.09
5707.05
5707.77
5707.52
5707.36
5707.24
5707.15
5707.09
5707.04
5707
5707.87
5707.59
5707.4
5707.28
5707.18
5707.12
5707.06
5707.03
5707.91
5707.6
5707.4
5707.27
5707.17
5707.1
5707.05
5707.02
5706.87
5706.81
5706.8
5706.79
5706.77
5706.75
5706.75
5706.76
5706.87
5706.82
5706.8
5706.8
5706.79
5706.77
5706.76
5706.77
5706.87
5706.81
5706.8
5706.8
5706.79
5706.78
5706.77
5706.78
5706.86
5706.81
5706.8
5706.79
5706.8
5706.8
5706.81
5706.81
5706.88
5706.83
5706.82
5706.81
5706.8
5706.79
5706.78
5706.79
5706.9
5706.85
5706.84
5706.84
5706.83
5706.81
5706.8
5706.81
5706.92
5706.86
5706.85
5706.83
5706.81
5706.78
5706.78
5706.79
5703.16
5704.08
5704.89
5705.46
5705.88
5706.2
5706.41
5706.54
5703.09
5704.03
5704.86
5705.44
5705.87
5706.19
5706.41
5706.55
5703.05
5703.99
5704.85
5705.43
5705.86
5706.18
5706.4
5706.54
5703.06
5703.99
5704.85
5705.44
5705.88
5706.19
5706.4
5706.55
5703.1
5704.02
5704.87
5705.45
5705.88
5706.2
5706.41
5706.55
5703.16
5704.08
5704.92
5705.48
5705.9
5706.22
5706.43
5706.57
5703.25
5704.14
5704.94
5705.5
5705.92
5706.23
5706.44
5706.57
5708.14
5707.78
5707.6
5707.5
5707.31
5707.13
5707.05
5707.04
5707.68
5707.1
5706.67
5706.47
5706.35
5706.31
5706.57
5706.9
5707.24
5706.19
5705.26
5704.93
5705.11
5705.39
5705.6
5705.74
5706.94
5704.42
5698.44
5695.08
5693.06
5693.58
5700.39
5709.14
5707.26
5706.06
5704.94
5704.6
5704.9
5705.43
5705.78
5705.9
5707.75
5707.06
5706.6
5706.45
5706.38
5706.23
5706.46
5706.81
5708.32
5707.89
5707.7
5707.6
5707.4
5707.2
5707.09
5707.05
5708.04
5707.65
5707.37
5707.19
5707.06
5706.99
5706.96
5706.95
5707.77
5707.31
5706.99
5706.81
5706.72
5706.72
5706.8
5706.94
5707.27
5706.66
5706.17
5705.85
5705.76
5705.89
5706.03
5706.17
5706.72
5705.67
5704.76
5703.95
5702.89
5703.17
5704.75
5706.52
5707.23
5706.6
5706
5705.62
5705.52
5705.78
5706.03
5706.2
5707.76
5707.28
5706.93
5706.72
5706.63
5706.64
5706.73
5706.86
5708.03
5707.65
5707.38
5707.21
5707.09
5707.01
5706.98
5706.97
5707.77
5707.45
5707.24
5707.09
5707
5706.95
5706.93
5706.92
5707.6
5707.27
5707.05
5706.91
5706.85
5706.84
5706.87
5706.92
5707.46
5707.06
5706.78
5706.63
5706.56
5706.54
5706.55
5706.58
5707.34
5706.84
5706.47
5706.3
5706.45
5706.75
5707.06
5707.5
5707.43
5707.01
5706.72
5706.56
5706.52
5706.53
5706.54
5706.57
5707.58
5707.23
5707.01
5706.87
5706.81
5706.8
5706.82
5706.87
5707.74
5707.41
5707.2
5707.07
5706.98
5706.93
5706.91
5706.9
5706.76
5706.69
5706.69
5706.68
5706.67
5706.67
5706.68
5706.71
5706.69
5706.63
5706.62
5706.63
5706.63
5706.65
5706.69
5706.75
5706.58
5706.49
5706.46
5706.44
5706.43
5706.44
5706.48
5706.53
5706.59
5706.53
5706.54
5706.58
5706.68
5706.79
5706.97
5707.18
5706.54
5706.45
5706.42
5706.41
5706.41
5706.44
5706.49
5706.54
5706.62
5706.56
5706.56
5706.57
5706.58
5706.61
5706.64
5706.69
5706.69
5706.63
5706.64
5706.64
5706.64
5706.65
5706.66
5706.69
5703.07
5704.02
5704.82
5705.4
5705.82
5706.13
5706.35
5706.5
5702.95
5703.94
5704.76
5705.35
5705.79
5706.11
5706.35
5706.52
5702.82
5703.84
5704.67
5705.27
5705.72
5706.05
5706.27
5706.42
5702.78
5703.82
5704.7
5705.38
5705.89
5706.27
5706.56
5706.78
5702.74
5703.77
5704.63
5705.26
5705.71
5706.05
5706.27
5706.42
5702.8
5703.84
5704.68
5705.29
5705.74
5706.07
5706.32
5706.49
5702.93
5703.92
5704.75
5705.34
5705.78
5706.1
5706.33
5706.48
5708.35
5708.02
5707.81
5707.57
5707.35
5707.19
5707.08
5707.01
5708.27
5707.92
5707.7
5707.41
5707.05
5706.75
5706.57
5706.54
5708.5
5708.11
5707.74
5707.5
5707.32
5707.08
5706.8
5706.49
5708.7
5708.22
5707.49
5706.54
5705.29
5703.79
5700.83
5695.29
5708.5
5708.11
5707.77
5707.54
5707.4
5707.2
5706.91
5706.58
5708.2
5707.8
5707.69
5707.5
5707.2
5706.88
5706.66
5706.61
5708.66
5708.2
5707.88
5707.67
5707.49
5707.34
5707.22
5707.1
5708.11
5707.74
5707.45
5707.25
5707.1
5707.01
5706.94
5706.9
5708.04
5707.62
5707.3
5707.08
5706.92
5706.81
5706.76
5706.79
5707.89
5707.4
5707.09
5706.88
5706.74
5706.64
5706.56
5706.47
5707.54
5706.73
5706.03
5705.3
5703.02
5701.02
5700.41
5701.34
5707.85
5707.44
5707.09
5706.86
5706.71
5706.65
5706.58
5706.49
5708.13
5707.72
5707.39
5707.16
5707
5706.89
5706.83
5706.85
5708.33
5707.96
5707.67
5707.46
5707.3
5707.17
5707.07
5707
5707.77
5707.44
5707.23
5707.07
5706.97
5706.89
5706.85
5706.82
5707.69
5707.38
5707.17
5707.02
5706.93
5706.88
5706.87
5706.88
5707.73
5707.4
5707.18
5707.02
5706.88
5706.78
5706.71
5706.66
5707.67
5707.25
5706.89
5706.52
5706.24
5706.34
5706.74
5707.06
5707.72
5707.4
5707.18
5707.03
5706.9
5706.79
5706.71
5706.66
5707.73
5707.43
5707.23
5707.09
5707
5706.94
5706.92
5706.93
5707.86
5707.55
5707.34
5707.19
5707.08
5706.99
5706.93
5706.88
5706.71
5706.65
5706.64
5706.62
5706.61
5706.6
5706.6
5706.62
5706.72
5706.66
5706.66
5706.66
5706.66
5706.68
5706.71
5706.75
5706.66
5706.59
5706.56
5706.54
5706.51
5706.5
5706.5
5706.51
5706.65
5706.59
5706.56
5706.56
5706.61
5706.71
5706.87
5707.06
5706.66
5706.59
5706.57
5706.54
5706.52
5706.5
5706.5
5706.52
5706.77
5706.71
5706.71
5706.71
5706.71
5706.72
5706.74
5706.78
5706.82
5706.76
5706.75
5706.73
5706.71
5706.68
5706.68
5706.69
5702.97
5703.95
5704.76
5705.34
5705.77
5706.08
5706.29
5706.43
5702.93
5703.95
5704.79
5705.39
5705.82
5706.14
5706.37
5706.54
5702.88
5703.9
5704.73
5705.33
5705.75
5706.04
5706.25
5706.38
5702.93
5703.95
5704.8
5705.45
5705.95
5706.31
5706.59
5706.79
5702.97
5703.95
5704.77
5705.35
5705.77
5706.06
5706.26
5706.39
5703.07
5704.04
5704.86
5705.45
5705.88
5706.19
5706.41
5706.58
5703.14
5704.08
5704.87
5705.44
5705.86
5706.16
5706.36
5706.49
5708.59
5708.14
5707.83
5707.62
5707.45
5707.3
5707.16
5707.08
5708.11
5707.71
5707.36
5706.95
5706.65
5706.51
5706.51
5706.75
5708.21
5707.61
5707.11
5706.8
5706.57
5706.35
5706.14
5705.95
5708.43
5707.42
5705.96
5703.82
5698.51
5695.5
5694.55
5695.99
5708.3
5707.69
5707.15
5706.85
5706.66
5706.49
5706.27
5705.92
5707.95
5707.6
5707.3
5706.91
5706.58
5706.37
5706.3
5706.58
5708.26
5707.85
5707.6
5707.41
5707.24
5707.09
5706.98
5706.93
5708.33
5707.95
5707.66
5707.45
5707.3
5707.18
5707.1
5707.05
5708.09
5707.65
5707.3
5707.07
5706.92
5706.88
5706.91
5706.99
5707.83
5707.25
5706.88
5706.62
5706.46
5706.4
5706.37
5706.36
5707.26
5706.34
5705.5
5704.79
5703.72
5702.92
5703.05
5704.66
5707.76
5707.23
5706.81
5706.5
5706.33
5706.29
5706.29
5706.29
5707.99
5707.55
5707.2
5706.96
5706.82
5706.77
5706.8
5706.89
5708.11
5707.72
5707.43
5707.23
5707.09
5707
5706.93
5706.9
5707.89
5707.58
5707.37
5707.22
5707.12
5707.05
5707
5706.96
5707.76
5707.45
5707.23
5707.08
5707
5706.97
5706.98
5707.02
5707.7
5707.35
5707.09
5706.91
5706.78
5706.7
5706.65
5706.64
5707.55
5707.1
5706.72
5706.48
5706.42
5706.53
5706.81
5707.25
5707.68
5707.33
5707.07
5706.9
5706.77
5706.68
5706.63
5706.61
5707.71
5707.39
5707.16
5707.01
5706.93
5706.9
5706.92
5706.96
5707.8
5707.47
5707.25
5707.1
5707
5706.93
5706.89
5706.87
5706.9
5706.84
5706.82
5706.8
5706.78
5706.76
5706.76
5706.76
5706.85
5706.78
5706.77
5706.76
5706.76
5706.79
5706.81
5706.85
5706.75
5706.66
5706.62
5706.58
5706.56
5706.55
5706.56
5706.57
5706.74
5706.65
5706.6
5706.59
5706.66
5706.78
5706.95
5707.17
5706.71
5706.62
5706.58
5706.54
5706.53
5706.52
5706.53
5706.55
5706.77
5706.71
5706.69
5706.69
5706.7
5706.72
5706.76
5706.81
5706.78
5706.71
5706.7
5706.67
5706.66
5706.65
5706.65
5706.67
5703.27
5704.16
5704.95
5705.51
5705.91
5706.21
5706.42
5706.55
5703.26
5704.16
5704.94
5705.5
5705.9
5706.2
5706.44
5706.61
5703.2
5704.1
5704.87
5705.41
5705.81
5706.1
5706.31
5706.45
5703.18
5704.11
5704.92
5705.54
5706.01
5706.36
5706.63
5706.86
5703.13
5704.05
5704.84
5705.39
5705.78
5706.08
5706.29
5706.44
5703.12
5704.07
5704.87
5705.44
5705.86
5706.17
5706.42
5706.59
5703.13
5704.06
5704.85
5705.42
5705.83
5706.14
5706.35
5706.49
5707.14
5707.11
5707.1
5707.08
5707.07
5707.06
5707.05
5707.05
5707.19
5707.16
5707.14
5707.12
5707.1
5707.09
5707.08
5707.08
5707.15
5707.11
5707.09
5707.07
5707.06
5707.05
5707.04
5707.03
5707.3
5707.26
5707.23
5707.2
5707.18
5707.17
5707.16
5707.16
5707.16
5707.13
5707.11
5707.1
5707.08
5707.08
5707.07
5707.07
5707.21
5707.18
5707.15
5707.13
5707.12
5707.11
5707.11
5707.1
5707.18
5707.17
5707.15
5707.14
5707.14
5707.13
5707.13
5707.12
5707.08
5707.06
5707.04
5707.03
5707.02
5707.01
5707
5706.99
5707.1
5707.07
5707.04
5707.03
5707.01
5707
5706.99
5706.99
5707.11
5707.08
5707.06
5707.05
5707.03
5707.02
5707.02
5707.01
5707.16
5707.14
5707.12
5707.1
5707.09
5707.08
5707.08
5707.08
5707.1
5707.07
5707.05
5707.04
5707.03
5707.02
5707.02
5707.01
5707.15
5707.13
5707.11
5707.1
5707.09
5707.08
5707.07
5707.06
5707.09
5707.08
5707.06
5707.05
5707.04
5707.04
5707.03
5707.03
5706.96
5706.95
5706.94
5706.93
5706.93
5706.92
5706.92
5706.91
5706.98
5706.97
5706.96
5706.95
5706.94
5706.94
5706.93
5706.93
5706.96
5706.94
5706.93
5706.93
5706.92
5706.92
5706.91
5706.91
5707.04
5707.03
5707.02
5707.01
5707.01
5707.01
5707.01
5707
5706.98
5706.97
5706.96
5706.96
5706.95
5706.95
5706.94
5706.94
5707
5706.99
5706.98
5706.97
5706.96
5706.96
5706.96
5706.96
5707
5706.99
5706.98
5706.98
5706.97
5706.97
5706.97
5706.96
5706.78
5706.79
5706.8
5706.81
5706.81
5706.81
5706.82
5706.82
5706.78
5706.79
5706.8
5706.81
5706.81
5706.82
5706.82
5706.82
5706.79
5706.8
5706.81
5706.82
5706.82
5706.83
5706.83
5706.83
5706.82
5706.82
5706.83
5706.84
5706.84
5706.84
5706.84
5706.84
5706.8
5706.81
5706.81
5706.82
5706.82
5706.83
5706.83
5706.83
5706.82
5706.83
5706.84
5706.85
5706.85
5706.86
5706.86
5706.86
5706.8
5706.81
5706.82
5706.82
5706.83
5706.83
5706.84
5706.84
5706.62
5706.66
5706.69
5706.71
5706.72
5706.73
5706.74
5706.74
5706.62
5706.66
5706.69
5706.72
5706.73
5706.74
5706.75
5706.75
5706.61
5706.65
5706.68
5706.71
5706.72
5706.73
5706.74
5706.74
5706.63
5706.68
5706.71
5706.73
5706.75
5706.76
5706.76
5706.77
5706.62
5706.67
5706.7
5706.72
5706.74
5706.75
5706.75
5706.75
5706.63
5706.67
5706.7
5706.72
5706.74
5706.75
5706.76
5706.76
5706.64
5706.68
5706.71
5706.73
5706.75
5706.76
5706.76
5706.77
5707.04
5707.05
5707.06
5707.06
5707.07
5707.07
5707.07
5707.07
5707.11
5707.23
5707.31
5707.35
5707.38
5707.39
5707.4
5707.41
5706.11
5706.32
5706.47
5706.58
5706.65
5706.71
5706.74
5706.77
5713.15
5714.25
5713.97
5713.36
5712.88
5712.54
5712.33
5712.26
5706.2
5706.38
5706.5
5706.6
5706.67
5706.71
5706.75
5706.78
5707.05
5707.17
5707.24
5707.28
5707.31
5707.32
5707.33
5707.33
5707.05
5707.04
5707.04
5707.04
5707.03
5707.03
5707.03
5707.03
5706.96
5706.96
5706.97
5706.97
5706.97
5706.97
5706.97
5706.97
5707.04
5707.11
5707.16
5707.2
5707.22
5707.24
5707.24
5707.24
5706.31
5706.41
5706.49
5706.56
5706.61
5706.65
5706.67
5706.69
5708.12
5708.99
5709.46
5709.69
5709.8
5709.85
5709.88
5709.9
5706.35
5706.44
5706.52
5706.59
5706.64
5706.67
5706.7
5706.71
5706.95
5707.01
5707.06
5707.09
5707.11
5707.13
5707.13
5707.14
5706.97
5706.97
5706.97
5706.97
5706.97
5706.97
5706.97
5706.96
5706.91
5706.91
5706.92
5706.92
5706.92
5706.92
5706.91
5706.91
5706.96
5706.98
5707.01
5707.03
5707.04
5707.05
5707.05
5707.06
5706.61
5706.64
5706.66
5706.68
5706.7
5706.71
5706.71
5706.72
5707.87
5708.11
5708.28
5708.39
5708.46
5708.5
5708.53
5708.54
5706.61
5706.63
5706.66
5706.68
5706.69
5706.7
5706.71
5706.71
5706.91
5706.94
5706.96
5706.98
5706.99
5707
5707
5707
5706.89
5706.89
5706.89
5706.88
5706.88
5706.88
5706.88
5706.88
5706.73
5706.75
5706.77
5706.78
5706.79
5706.8
5706.8
5706.8
5706.79
5706.82
5706.85
5706.87
5706.88
5706.89
5706.9
5706.9
5706.57
5706.6
5706.63
5706.65
5706.66
5706.68
5706.68
5706.68
5707.34
5707.45
5707.54
5707.61
5707.66
5707.69
5707.71
5707.72
5706.59
5706.62
5706.64
5706.66
5706.68
5706.69
5706.7
5706.7
5706.74
5706.76
5706.79
5706.81
5706.82
5706.83
5706.83
5706.84
5706.71
5706.74
5706.75
5706.76
5706.77
5706.78
5706.78
5706.78
5706.59
5706.63
5706.67
5706.69
5706.71
5706.72
5706.73
5706.73
5706.61
5706.66
5706.7
5706.73
5706.75
5706.77
5706.77
5706.78
5706.51
5706.56
5706.59
5706.62
5706.64
5706.65
5706.66
5706.66
5706.92
5707.01
5707.08
5707.14
5707.18
5707.21
5707.22
5707.23
5706.51
5706.56
5706.59
5706.62
5706.64
5706.65
5706.66
5706.66
5706.58
5706.63
5706.67
5706.7
5706.72
5706.73
5706.74
5706.74
5706.56
5706.61
5706.64
5706.67
5706.68
5706.69
5706.7
5706.7
5706.96
5706.93
5706.92
5706.91
5706.9
5706.89
5706.89
5706.88
5706.6
5706.71
5706.81
5706.92
5707.02
5707.09
5707.14
5707.16
5706.27
5706.15
5706.16
5706.21
5706.27
5706.38
5706.44
5706.48
5695.96
5696.92
5701.07
5707.57
5710.81
5712.03
5712.64
5712.9
5706.32
5706.18
5706.15
5706.16
5706.2
5706.31
5706.37
5706.42
5706.66
5706.75
5706.85
5706.95
5707.05
5707.13
5707.17
5707.2
5707.03
5706.98
5706.95
5706.93
5706.91
5706.9
5706.89
5706.88
5706.88
5706.87
5706.86
5706.85
5706.84
5706.84
5706.83
5706.83
5706.84
5706.89
5706.93
5706.98
5707.02
5707.05
5707.07
5707.07
5706.44
5706.44
5706.45
5706.47
5706.5
5706.52
5706.53
5706.53
5702.64
5704.52
5706.28
5707.6
5708.71
5709.18
5709.46
5709.6
5706.44
5706.43
5706.44
5706.45
5706.47
5706.49
5706.5
5706.51
5706.89
5706.93
5706.97
5707.01
5707.05
5707.08
5707.1
5707.1
5706.96
5706.93
5706.91
5706.89
5706.87
5706.86
5706.85
5706.85
5706.8
5706.8
5706.79
5706.79
5706.78
5706.78
5706.77
5706.77
5706.91
5706.93
5706.96
5706.98
5706.99
5707
5707.01
5707
5706.63
5706.61
5706.6
5706.6
5706.6
5706.6
5706.6
5706.6
5707.3
5707.47
5707.61
5707.78
5707.97
5708.12
5708.2
5708.24
5706.63
5706.61
5706.6
5706.6
5706.6
5706.6
5706.6
5706.6
5706.95
5706.97
5706.99
5707.01
5707.03
5707.04
5707.04
5707.04
5706.85
5706.84
5706.82
5706.81
5706.8
5706.79
5706.79
5706.79
5706.64
5706.65
5706.66
5706.66
5706.67
5706.67
5706.67
5706.67
5706.78
5706.81
5706.84
5706.86
5706.87
5706.89
5706.89
5706.89
5706.53
5706.54
5706.55
5706.56
5706.57
5706.57
5706.58
5706.58
5707.2
5707.31
5707.4
5707.49
5707.56
5707.62
5707.65
5707.65
5706.54
5706.55
5706.56
5706.57
5706.57
5706.58
5706.58
5706.58
5706.82
5706.85
5706.87
5706.89
5706.9
5706.91
5706.92
5706.92
5706.7
5706.71
5706.71
5706.72
5706.72
5706.72
5706.72
5706.72
5706.5
5706.54
5706.57
5706.59
5706.61
5706.62
5706.62
5706.62
5706.63
5706.69
5706.73
5706.76
5706.78
5706.8
5706.8
5706.8
5706.44
5706.48
5706.51
5706.54
5706.55
5706.56
5706.57
5706.57
5706.93
5707.02
5707.09
5707.15
5707.2
5707.23
5707.25
5707.25
5706.46
5706.5
5706.53
5706.55
5706.56
5706.57
5706.57
5706.58
5706.67
5706.72
5706.76
5706.79
5706.81
5706.82
5706.83
5706.83
5706.56
5706.59
5706.62
5706.64
5706.65
5706.66
5706.67
5706.67
5707.05
5707.04
5707.03
5707.03
5707.02
5707.02
5707.02
5707.02
5706.99
5707.18
5707.33
5707.44
5707.52
5707.56
5707.59
5707.6
5705.93
5705.97
5706.2
5706.37
5706.49
5706.57
5706.62
5706.66
5706.3
5711.61
5713.99
5714.89
5714.91
5714.59
5714.41
5714.39
5705.85
5705.9
5706.12
5706.29
5706.41
5706.5
5706.55
5706.59
5706.84
5707.06
5707.23
5707.35
5707.43
5707.48
5707.51
5707.52
5706.91
5706.91
5706.91
5706.91
5706.91
5706.91
5706.91
5706.91
5707.02
5707.01
5707
5707
5706.99
5706.99
5706.98
5706.98
5707.08
5707.16
5707.23
5707.29
5707.33
5707.36
5707.38
5707.39
5706.39
5706.42
5706.47
5706.52
5706.57
5706.6
5706.62
5706.63
5706.34
5707.43
5708.66
5709.56
5710.06
5710.35
5710.5
5710.58
5706.32
5706.36
5706.41
5706.46
5706.5
5706.54
5706.56
5706.57
5706.99
5707.08
5707.15
5707.22
5707.27
5707.3
5707.32
5707.32
5706.89
5706.88
5706.88
5706.87
5706.87
5706.87
5706.86
5706.86
5706.94
5706.94
5706.93
5706.93
5706.93
5706.92
5706.92
5706.92
5707.07
5707.1
5707.14
5707.16
5707.18
5707.2
5707.2
5707.2
5706.64
5706.65
5706.66
5706.67
5706.68
5706.69
5706.69
5706.69
5707.67
5707.99
5708.27
5708.5
5708.66
5708.77
5708.84
5708.86
5706.61
5706.62
5706.63
5706.64
5706.65
5706.65
5706.65
5706.66
5707.01
5707.05
5707.08
5707.11
5707.13
5707.15
5707.15
5707.15
5706.85
5706.84
5706.83
5706.83
5706.82
5706.82
5706.82
5706.81
5706.78
5706.79
5706.8
5706.8
5706.81
5706.81
5706.81
5706.81
5706.9
5706.93
5706.96
5706.98
5707
5707.01
5707.02
5707.02
5706.6
5706.62
5706.63
5706.65
5706.66
5706.67
5706.67
5706.67
5707.37
5707.52
5707.65
5707.76
5707.84
5707.89
5707.93
5707.94
5706.57
5706.59
5706.6
5706.62
5706.63
5706.64
5706.64
5706.64
5706.86
5706.9
5706.93
5706.95
5706.97
5706.98
5706.99
5706.99
5706.69
5706.7
5706.71
5706.72
5706.73
5706.73
5706.73
5706.73
5706.62
5706.66
5706.69
5706.71
5706.73
5706.74
5706.74
5706.74
5706.7