/*--------------------------------*- C++ -*----------------------------------*\
| =========                 |                                                 |
| \\      /  F ield         | OpenFOAM: The Open Source CFD Toolbox           |
|  \\    /   O peration     | Version:  plus.master.MPPICInterFoam            |
|   \\  /    A nd           | Web:      www.OpenFOAM.com                      |
|    \\/     M anipulation  |                                                 |
\*---------------------------------------------------------------------------*/
FoamFile
{
    version     2.0;
    format      ascii;
    class       surfaceScalarField;
    location    "12.8";
    object      phi;
}
// * * * * * * * * * * * * * * * * * * * * * * * * * * * * * * * * * * * * * //

dimensions      [0 3 -1 0 0 0 0];

internalField   nonuniform List<scalar> 
34004
(
-7.76205e-09
1.16403e-08
-1.57724e-06
-3.03604e-08
-2.12493e-08
2.04736e-08
-2.01229e-06
-3.89368e-08
-3.85895e-08
2.51175e-08
-2.37598e-06
-4.31158e-08
-6.0999e-08
2.79985e-08
-2.70845e-06
-4.66661e-08
-8.07246e-08
3.08089e-08
-3.05303e-06
-4.96308e-08
-9.93221e-08
3.33322e-08
-3.41468e-06
-5.24383e-08
-1.15626e-07
3.56411e-08
-3.79162e-06
-5.49582e-08
3.77256e-08
-4.17825e-06
-5.71307e-08
-1.28305e-07
-8.90886e-09
-6.69173e-09
-1.60138e-06
-2.40436e-08
6.41857e-10
-2.04582e-06
-4.52813e-08
4.57151e-09
-2.40545e-06
-6.69449e-08
6.93971e-09
-2.73771e-06
-8.68012e-08
9.06217e-09
-3.08351e-06
-1.04597e-07
1.10532e-08
-3.44577e-06
-1.19645e-07
1.29279e-08
-3.82327e-06
1.46638e-08
-4.211e-06
-1.30892e-07
-5.32674e-09
-2.74286e-08
-1.63449e-06
-2.32003e-08
-2.29122e-08
-2.1022e-06
-5.05462e-08
-2.01913e-08
-2.45601e-06
-7.64309e-08
-1.79148e-08
-2.78109e-06
-9.75591e-08
-1.5893e-08
-3.11938e-06
-1.1513e-07
-1.41561e-08
-3.47724e-06
-1.29104e-07
-1.26657e-08
-3.85267e-06
-1.13935e-08
-4.23995e-06
-1.38816e-07
-1.17169e-08
-4.36663e-08
-1.61279e-06
-2.96371e-08
-4.17375e-08
-2.05277e-06
-5.23361e-08
-4.05836e-08
-2.41828e-06
-7.47847e-08
-3.97061e-08
-2.7593e-06
-9.51838e-08
-3.89028e-08
-3.11031e-06
-1.1287e-07
-3.82323e-08
-3.4764e-06
-1.27333e-07
-3.77285e-08
-3.85765e-06
-3.7392e-08
-4.24959e-06
-1.37627e-07
-1.26333e-08
-5.91592e-08
-1.59846e-06
-3.12603e-08
-5.90653e-08
-2.02938e-06
-5.39557e-08
-5.92003e-08
-2.38859e-06
-7.56732e-08
-5.98188e-08
-2.73413e-06
-9.551e-08
-6.03396e-08
-3.09049e-06
-1.13107e-07
-6.08832e-08
-3.46188e-06
-1.27767e-07
-6.14709e-08
-3.84765e-06
-6.20968e-08
-4.24331e-06
-1.38408e-07
-1.29948e-08
-7.3712e-08
-1.58657e-06
-3.18593e-08
-7.5171e-08
-2.01299e-06
-5.53511e-08
-7.66746e-08
-2.36933e-06
-7.66223e-08
-7.82169e-08
-2.71401e-06
-9.64819e-08
-7.985e-08
-3.07106e-06
-1.14384e-07
-8.14464e-08
-3.44379e-06
-1.29441e-07
-8.2952e-08
-3.83082e-06
-8.43251e-08
-4.22739e-06
-1.4046e-07
-1.52247e-08
-1.57285e-06
-8.46804e-08
-3.6002e-08
-1.99452e-06
-8.73136e-08
-5.99318e-08
-2.3463e-06
-8.97442e-08
-8.27194e-08
-2.69098e-06
-9.22512e-08
-1.04334e-07
-3.04776e-06
-9.48338e-08
-1.23841e-07
-3.41955e-06
-9.7318e-08
-1.40128e-07
-3.805e-06
-9.95953e-08
-4.19931e-06
-1.01603e-07
-1.51837e-07
-6.93018e-09
1.5605e-08
-1.55257e-06
-3.33319e-08
-1.91037e-08
2.27237e-08
-1.98297e-06
-4.0042e-08
-3.85272e-08
2.58316e-08
-2.3391e-06
-4.31361e-08
-5.86448e-08
2.80802e-08
-2.67061e-06
-4.57465e-08
-7.70591e-08
3.00211e-08
-3.0167e-06
-4.78861e-08
-9.40327e-08
3.16665e-08
-3.37961e-06
-4.9715e-08
-1.09e-07
3.30598e-08
-3.75845e-06
-5.12109e-08
3.42384e-08
-4.14815e-06
-5.23772e-08
-1.20896e-07
-7.8166e-09
-2.68904e-09
-1.57523e-06
-2.23939e-08
3.20737e-09
-2.01163e-06
-4.2836e-08
5.91727e-09
-2.36467e-06
-6.27001e-08
7.62058e-09
-2.69732e-06
-8.08443e-08
9.13162e-09
-3.04442e-06
-9.71037e-08
1.0452e-08
-3.40824e-06
-1.10997e-07
1.16e-08
-3.78786e-06
1.26004e-08
-4.17866e-06
-1.21634e-07
-4.18627e-09
-2.38056e-08
-1.60944e-06
-2.17274e-08
-2.0247e-08
-2.0607e-06
-4.7097e-08
-1.80645e-08
-2.40586e-06
-6.96789e-08
-1.62898e-08
-2.73436e-06
-8.91738e-08
-1.48127e-08
-3.07588e-06
-1.05386e-07
-1.35814e-08
-3.43694e-06
-1.18471e-07
-1.26109e-08
-3.81532e-06
-1.18607e-08
-4.20606e-06
-1.27842e-07
-1.03014e-08
-4.01841e-08
-1.58607e-06
-2.67256e-08
-3.8803e-08
-2.01774e-06
-4.80587e-08
-3.7979e-08
-2.37669e-06
-6.76694e-08
-3.72587e-08
-2.7188e-06
-8.56873e-08
-3.67283e-08
-3.07032e-06
-1.01795e-07
-3.63654e-08
-3.43746e-06
-1.15255e-07
-3.61429e-08
-3.82061e-06
-3.60675e-08
-4.21542e-06
-1.25158e-07
-1.12804e-08
-5.5578e-08
-1.57175e-06
-2.82085e-08
-5.57677e-08
-1.99543e-06
-4.83764e-08
-5.60424e-08
-2.35015e-06
-6.78517e-08
-5.66354e-08
-2.69522e-06
-8.5807e-08
-5.71808e-08
-3.05203e-06
-1.01873e-07
-5.77207e-08
-3.4244e-06
-1.15453e-07
-5.82747e-08
-3.81188e-06
-5.88558e-08
-4.2103e-06
-1.25616e-07
-1.15031e-08
-7.01684e-08
-1.56045e-06
-2.87043e-08
-7.16047e-08
-1.9799e-06
-4.93866e-08
-7.29163e-08
-2.33146e-06
-6.88562e-08
-7.43247e-08
-2.6768e-06
-8.68952e-08
-7.57013e-08
-3.03445e-06
-1.03234e-07
-7.69835e-08
-3.40814e-06
-1.17187e-07
-7.81503e-08
-3.79693e-06
-7.91923e-08
-4.19645e-06
-1.27735e-07
-1.35645e-08
-1.54809e-06
-8.13386e-08
-3.23926e-08
-1.96363e-06
-8.36114e-08
-5.40671e-08
-2.31182e-06
-8.56799e-08
-7.47881e-08
-2.65673e-06
-8.78008e-08
-9.44364e-08
-3.01389e-06
-8.98789e-08
-1.12295e-07
-3.38683e-06
-9.17872e-08
-1.27462e-07
-3.77447e-06
-9.34574e-08
-4.17228e-06
-9.4872e-08
-1.38746e-07
-6.49244e-09
1.84681e-08
-1.52956e-06
-3.49643e-08
-1.9752e-08
2.35485e-08
-1.95341e-06
-3.95895e-08
-3.94942e-08
2.54297e-08
-2.30271e-06
-4.16349e-08
-5.78514e-08
2.68835e-08
-2.6357e-06
-4.33753e-08
-7.48232e-08
2.79697e-08
-2.98299e-06
-4.46554e-08
-9.02063e-08
2.87414e-08
-3.34741e-06
-4.55036e-08
-1.03708e-07
2.92259e-08
-3.72816e-06
-4.59632e-08
2.94904e-08
-4.12071e-06
-4.60978e-08
-1.14481e-07
-6.93989e-09
3.84683e-10
-1.55018e-06
-2.19458e-08
4.51047e-09
-1.97717e-06
-4.17862e-08
6.21231e-09
-2.3249e-06
-5.98384e-08
7.4169e-09
-2.65975e-06
-7.63243e-08
8.28156e-09
-3.00819e-06
-9.10819e-08
8.94304e-09
-3.37363e-06
-1.03721e-07
9.39066e-09
-3.75533e-06
9.67202e-09
-4.14903e-06
-1.13475e-07
-4.07643e-09
-2.08469e-08
-1.58424e-06
-2.12931e-08
-1.81665e-08
-2.02082e-06
-4.41381e-08
-1.65045e-08
-2.36063e-06
-6.46298e-08
-1.52398e-08
-2.69083e-06
-8.20449e-08
-1.41973e-08
-3.03593e-06
-9.68728e-08
-1.34402e-08
-3.39968e-06
-1.0898e-07
-1.29484e-08
-3.78081e-06
-1.26784e-08
-4.17483e-06
-1.17795e-07
-9.49892e-09
-3.72383e-08
-1.56015e-06
-2.50027e-08
-3.62723e-08
-1.98407e-06
-4.41034e-08
-3.5549e-08
-2.33849e-06
-6.14365e-08
-3.50043e-08
-2.68151e-06
-7.75029e-08
-3.46843e-08
-3.03371e-06
-9.20266e-08
-3.4525e-08
-3.4018e-06
-1.04474e-07
-3.45007e-08
-3.78655e-06
-3.46122e-08
-4.18407e-06
-1.13822e-07
-1.0231e-08
-5.25454e-08
-1.54618e-06
-2.56094e-08
-5.27579e-08
-1.96352e-06
-4.35764e-08
-5.29887e-08
-2.31474e-06
-6.09623e-08
-5.3438e-08
-2.65935e-06
-7.71826e-08
-5.38659e-08
-3.01658e-06
-9.18267e-08
-5.42828e-08
-3.38995e-06
-1.04324e-07
-5.46919e-08
-3.77914e-06
-5.51225e-08
-4.18021e-06
-1.13845e-07
-1.03331e-08
-6.71636e-08
-1.53546e-06
-2.58676e-08
-6.81932e-08
-1.94887e-06
-4.42183e-08
-6.91829e-08
-2.29687e-06
-6.17552e-08
-7.02168e-08
-2.64243e-06
-7.81735e-08
-7.1191e-08
-3.00065e-06
-9.30963e-08
-7.20343e-08
-3.37541e-06
-1.05937e-07
-7.27394e-08
-3.76599e-06
-7.33283e-08
-4.1683e-06
-1.15817e-07
-1.22867e-08
-1.52439e-06
-7.85357e-08
-2.94945e-08
-1.93455e-06
-8.00141e-08
-4.87553e-08
-2.28021e-06
-8.14793e-08
-6.7664e-08
-2.62494e-06
-8.30461e-08
-8.55308e-08
-2.98268e-06
-8.44794e-08
-1.01814e-07
-3.35684e-06
-8.56839e-08
-1.15756e-07
-3.74658e-06
-8.66274e-08
-4.14765e-06
-8.73321e-08
-1.26321e-07
-6.60208e-09
2.03301e-08
-1.50796e-06
-3.53106e-08
-2.14243e-08
2.31331e-08
-1.92373e-06
-3.77305e-08
-4.01793e-08
2.40184e-08
-2.26859e-06
-3.87706e-08
-5.71388e-08
2.46231e-08
-2.60357e-06
-3.97424e-08
-7.25928e-08
2.48831e-08
-2.95224e-06
-4.01255e-08
-8.64724e-08
2.48063e-08
-3.31827e-06
-4.00149e-08
-9.85084e-08
2.44212e-08
-3.70101e-06
-3.94787e-08
2.38123e-08
-4.09635e-06
-3.86146e-08
-1.08011e-07
-6.6567e-09
3.10619e-09
-1.52626e-06
-2.19183e-08
5.37804e-09
-1.94395e-06
-4.05984e-08
6.09186e-09
-2.28805e-06
-5.7077e-08
6.57248e-09
-2.62517e-06
-7.20684e-08
6.78604e-09
-2.97505e-06
-8.54334e-08
6.79822e-09
-3.34221e-06
-9.68216e-08
6.58328e-09
-3.72605e-06
6.19335e-09
-4.1226e-06
-1.05572e-07
-4.68598e-09
-1.874e-08
-1.5574e-06
-2.23416e-08
-1.68149e-08
-1.98036e-06
-4.2288e-08
-1.54214e-08
-2.31867e-06
-6.02839e-08
-1.44954e-08
-2.65171e-06
-7.5611e-08
-1.39025e-08
-2.99987e-06
-8.89758e-08
-1.3533e-08
-3.36593e-06
-1.00021e-07
-1.34536e-08
-3.74968e-06
-1.36005e-08
-4.14686e-06
-1.08136e-07
-8.92331e-09
-3.48075e-08
-1.53512e-06
-2.35224e-08
-3.40242e-08
-1.95221e-06
-4.0335e-08
-3.33106e-08
-2.30366e-06
-5.62895e-08
-3.28724e-08
-2.64719e-06
-6.99155e-08
-3.26034e-08
-3.0021e-06
-8.32454e-08
-3.25818e-08
-3.36937e-06
-9.46525e-08
-3.26642e-08
-3.75588e-06
-3.2872e-08
-4.1561e-06
-1.03296e-07
-9.35398e-09
-4.98335e-08
-1.52177e-06
-2.33179e-08
-4.98436e-08
-1.93368e-06
-3.92328e-08
-4.98986e-08
-2.28218e-06
-5.47938e-08
-5.00715e-08
-2.62654e-06
-6.93485e-08
-5.02703e-08
-2.98431e-06
-8.25982e-08
-5.04447e-08
-3.35878e-06
-9.39847e-08
-5.06032e-08
-3.74976e-06
-5.07856e-08
-4.15346e-06
-1.02752e-07
-9.37191e-09
-6.43059e-08
-1.51159e-06
-2.33975e-08
-6.46443e-08
-1.92e-06
-3.94027e-08
-6.51166e-08
-2.26559e-06
-5.51841e-08
-6.56828e-08
-2.61099e-06
-7.00431e-08
-6.61437e-08
-2.96987e-06
-8.35923e-08
-6.64428e-08
-3.34581e-06
-9.52968e-08
-6.65903e-08
-3.73824e-06
-6.66335e-08
-4.1433e-06
-1.04387e-07
-1.12194e-08
-1.50172e-06
-7.57309e-08
-2.68198e-08
-1.90745e-06
-7.6092e-08
-4.39834e-08
-2.25129e-06
-7.68228e-08
-6.10207e-08
-2.59584e-06
-7.76931e-08
-7.71777e-08
-2.95424e-06
-7.83779e-08
-9.19089e-08
-3.32971e-06
-7.8791e-08
-1.04556e-07
-3.72154e-06
-7.89288e-08
-4.12571e-06
-7.88461e-08
-1.14218e-07
-7.42269e-09
2.11626e-08
-1.4872e-06
-3.44831e-08
-2.20597e-08
2.18896e-08
-1.89624e-06
-3.46915e-08
-3.98211e-08
2.17725e-08
-2.23732e-06
-3.50981e-08
-5.54817e-08
2.15812e-08
-2.57434e-06
-3.51057e-08
-6.96151e-08
2.10534e-08
-2.92452e-06
-3.45998e-08
-8.21248e-08
2.01868e-08
-3.2923e-06
-3.3592e-08
-9.27747e-08
1.90123e-08
-3.67717e-06
-3.21439e-08
1.76187e-08
-4.0753e-06
-3.03702e-08
-1.01008e-07
-7.04515e-09
5.07972e-09
-1.5031e-06
-2.15241e-08
5.74514e-09
-1.91327e-06
-3.84216e-08
5.53334e-09
-2.25487e-06
-5.37461e-08
5.27682e-09
-2.59349e-06
-6.74852e-08
4.90232e-09
-2.94512e-06
-7.96066e-08
4.31448e-09
-3.31416e-06
-8.98178e-08
3.50571e-09
-3.70027e-06
2.52715e-09
-4.0997e-06
-9.75629e-08
-5.35994e-09
-1.6811e-08
-1.52998e-06
-2.24377e-08
-1.54181e-08
-1.94139e-06
-3.9966e-08
-1.43313e-08
-2.28084e-06
-5.55442e-08
-1.38716e-08
-2.61694e-06
-6.9348e-08
-1.35831e-08
-2.96753e-06
-8.13503e-08
-1.35895e-08
-3.33597e-06
-9.13415e-08
-1.38643e-08
-3.72226e-06
-1.43521e-08
-4.12256e-06
-9.87057e-08
-8.13905e-09
-3.25657e-08
-1.5112e-06
-2.14075e-08
-3.17824e-08
-1.92253e-06
-3.71966e-08
-3.10743e-08
-2.27091e-06
-5.04343e-08
-3.05871e-08
-2.6181e-06
-6.33941e-08
-3.04441e-08
-2.97222e-06
-7.5566e-08
-3.04234e-08
-3.34029e-06
-8.57998e-08
-3.0495e-08
-3.72896e-06
-3.06945e-08
-4.13192e-06
-9.35711e-08
-8.43436e-09
-4.71416e-08
-1.49873e-06
-2.08597e-08
-4.67731e-08
-1.90622e-06
-3.52937e-08
-4.6561e-08
-2.25199e-06
-4.90722e-08
-4.64003e-08
-2.5969e-06
-6.21361e-08
-4.62745e-08
-2.95535e-06
-7.40584e-08
-4.61038e-08
-3.33113e-06
-8.43289e-08
-4.59198e-08
-3.72401e-06
-4.57719e-08
-4.13037e-06
-9.2286e-08
-8.44199e-09
-6.1258e-08
-1.489e-06
-2.09353e-08
-6.07187e-08
-1.89351e-06
-3.50128e-08
-6.0579e-08
-2.23745e-06
-4.90718e-08
-6.05732e-08
-2.58271e-06
-6.24283e-08
-6.04409e-08
-2.9423e-06
-7.46289e-08
-6.01263e-08
-3.31953e-06
-8.51835e-08
-5.96553e-08
-3.7139e-06
-5.90965e-08
-4.12167e-06
-9.34241e-08
-1.02481e-08
-1.48017e-06
-7.25274e-08
-2.42648e-08
-1.88249e-06
-7.16045e-08
-3.95325e-08
-2.22506e-06
-7.14965e-08
-5.4753e-08
-2.56957e-06
-7.15801e-08
-6.92254e-08
-2.9287e-06
-7.14527e-08
-8.24112e-08
-3.30557e-06
-7.1031e-08
-9.37264e-08
-3.6995e-06
-7.03306e-08
-4.10665e-06
-6.94308e-08
-1.02398e-07
-8.20698e-09
2.0912e-08
-1.46727e-06
-3.26138e-08
-2.24409e-08
1.99296e-08
-1.87077e-06
-3.11139e-08
-3.83077e-08
1.89878e-08
-2.20977e-06
-3.0634e-08
-5.28644e-08
1.80123e-08
-2.54799e-06
-2.97625e-08
-6.57613e-08
1.67816e-08
-2.89991e-06
-2.84408e-08
-7.6984e-08
1.52343e-08
-3.26963e-06
-2.66375e-08
-8.63376e-08
1.33967e-08
-3.65676e-06
-2.44054e-08
1.13529e-08
-4.0577e-06
-2.18611e-08
-9.3378e-08
-7.27805e-09
6.04871e-09
-1.48092e-06
-2.07004e-08
5.38169e-09
-1.88526e-06
-3.57767e-08
4.5967e-09
-2.22536e-06
-4.98769e-08
3.75168e-09
-2.56509e-06
-6.24814e-08
2.8617e-09
-2.91854e-06
-7.34648e-08
1.7739e-09
-3.28967e-06
-8.25783e-08
4.75336e-10
-3.67819e-06
-9.68175e-10
-4.08052e-06
-8.93778e-08
-5.59605e-09
-1.46816e-08
-1.50363e-06
-2.04799e-08
-1.37355e-08
-1.90735e-06
-3.65766e-08
-1.31439e-08
-2.24696e-06
-5.04503e-08
-1.29804e-08
-2.58661e-06
-6.28691e-08
-1.30097e-08
-2.93939e-06
-7.38562e-08
-1.34068e-08
-3.30976e-06
-8.28842e-08
-1.39611e-08
-3.69875e-06
-1.46853e-08
-4.10216e-06
-8.95143e-08
-7.02344e-09
-3.02025e-08
-1.48862e-06
-1.86562e-08
-2.93463e-08
-1.89524e-06
-3.29159e-08
-2.87299e-08
-2.24086e-06
-4.5112e-08
-2.82614e-08
-2.59058e-06
-5.80784e-08
-2.80851e-08
-2.94347e-06
-6.86497e-08
-2.78849e-08
-3.3152e-06
-7.767e-08
-2.78321e-08
-3.70602e-06
-2.79316e-08
-4.11176e-06
-8.45345e-08
-7.43919e-09
-4.42007e-08
-1.47726e-06
-1.84906e-08
-4.33115e-08
-1.88116e-06
-3.12557e-08
-4.27441e-08
-2.22517e-06
-4.3636e-08
-4.22593e-08
-2.57047e-06
-5.54165e-08
-4.17413e-08
-2.92987e-06
-6.60967e-08
-4.11682e-08
-3.30712e-06
-7.52841e-08
-4.05806e-08
-3.70202e-06
-4.00462e-08
-4.11105e-06
-8.24333e-08
-7.43753e-09
-5.77576e-08
-1.46797e-06
-1.84864e-08
-5.62314e-08
-1.86949e-06
-3.08954e-08
-5.54198e-08
-2.21232e-06
-4.33812e-08
-5.47937e-08
-2.55765e-06
-5.52903e-08
-5.40281e-08
-2.91806e-06
-6.61698e-08
-5.30707e-08
-3.2967e-06
-7.55802e-08
-5.19605e-08
-3.69305e-06
-5.07823e-08
-4.1035e-06
-8.29619e-08
-9.22172e-09
-1.46001e-06
-6.86606e-08
-2.17319e-08
-1.85977e-06
-6.63941e-08
-3.52741e-08
-2.2015e-06
-6.53933e-08
-4.87733e-08
-2.54617e-06
-6.46522e-08
-6.15979e-08
-2.90616e-06
-6.36996e-08
-7.32514e-08
-3.28449e-06
-6.24477e-08
-8.32311e-08
-3.6805e-06
-6.09253e-08
-4.09048e-06
-5.92275e-08
-9.08955e-08
-8.61836e-09
1.97885e-08
-1.44846e-06
-2.99688e-08
-2.19615e-08
1.74682e-08
-1.84765e-06
-2.72076e-08
-3.61759e-08
1.58122e-08
-2.18564e-06
-2.56867e-08
-4.94247e-08
1.42061e-08
-2.52486e-06
-2.40463e-08
-6.11086e-08
1.23944e-08
-2.87856e-06
-2.20245e-08
-7.11051e-08
1.03076e-08
-3.25033e-06
-1.95641e-08
-7.92529e-08
7.96525e-09
-3.63982e-06
-1.67115e-08
5.43844e-09
-4.04355e-06
-1.35736e-08
-8.52173e-08
-7.2162e-09
6.34063e-09
-1.46023e-06
-1.94465e-08
4.68299e-09
-1.8602e-06
-3.29248e-08
3.4589e-09
-2.19949e-06
-4.57309e-08
2.24441e-09
-2.54028e-06
-5.71908e-08
9.27779e-10
-2.89558e-06
-6.70594e-08
-5.55019e-10
-3.2689e-06
-7.51448e-08
-2.17176e-09
-3.65992e-06
-3.93563e-09
-4.06516e-06
-8.10862e-08
-5.53263e-09
-1.26633e-08
-1.47906e-06
-1.81868e-08
-1.21303e-08
-1.87784e-06
-3.24363e-08
-1.19526e-08
-2.21715e-06
-4.52059e-08
-1.19363e-08
-2.55963e-06
-5.67158e-08
-1.23224e-08
-2.91458e-06
-6.66227e-08
-1.2878e-08
-3.28748e-06
-7.46836e-08
-1.35596e-08
-3.67926e-06
-1.43935e-08
-4.08575e-06
-8.05889e-08
-5.94534e-09
-2.76042e-08
-1.46771e-06
-1.61928e-08
-2.65806e-08
-1.8705e-06
-2.80976e-08
-2.59679e-08
-2.21491e-06
-4.11437e-08
-2.56075e-08
-2.56312e-06
-5.23573e-08
-2.51512e-08
-2.91938e-06
-6.19187e-08
-2.47746e-08
-3.2937e-06
-6.99057e-08
-2.45423e-08
-3.687e-06
-2.44707e-08
-4.09558e-06
-7.5958e-08
-6.44223e-09
-4.08541e-08
-1.45754e-06
-1.62321e-08
-3.93426e-08
-1.85856e-06
-2.73865e-08
-3.8366e-08
-2.20158e-06
-3.85729e-08
-3.75146e-08
-2.54733e-06
-4.9102e-08
-3.65839e-08
-2.90787e-06
-5.85916e-08
-3.55801e-08
-3.28678e-06
-6.67359e-08
-3.45646e-08
-3.68381e-06
-3.36178e-08
-4.09548e-06
-7.31095e-08
-6.4124e-09
-5.36451e-08
-1.44874e-06
-1.61394e-08
-5.10802e-08
-1.84799e-06
-2.70597e-08
-4.95789e-08
-2.19015e-06
-3.80733e-08
-4.83176e-08
-2.53579e-06
-4.85722e-08
-4.69182e-08
-2.89718e-06
-5.814e-08
-4.53286e-08
-3.27734e-06
-6.64138e-08
-4.35968e-08
-3.6757e-06
-4.1819e-08
-4.08871e-06
-7.29543e-08
-8.13413e-09
-1.4415e-06
-6.3997e-08
-1.92225e-08
-1.83933e-06
-6.03973e-08
-3.11652e-08
-2.18059e-06
-5.85045e-08
-4.30127e-08
-2.52564e-06
-5.69596e-08
-5.42137e-08
-2.88662e-06
-5.52159e-08
-6.43435e-08
-3.26646e-06
-5.31844e-08
-7.29999e-08
-3.66449e-06
-5.09002e-08
-4.0771e-06
-4.84678e-08
-7.96841e-08
-8.69278e-09
1.7965e-08
-1.43112e-06
-2.65949e-08
-2.09569e-08
1.46516e-08
-1.82724e-06
-2.27668e-08
-3.36616e-08
1.24512e-08
-2.16486e-06
-2.04901e-08
-4.54951e-08
1.03932e-08
-2.50515e-06
-1.82396e-08
-5.5895e-08
8.17298e-09
-2.86062e-06
-1.56806e-08
-6.46621e-08
5.72349e-09
-3.23451e-06
-1.27422e-08
-7.16615e-08
3.0575e-09
-3.62638e-06
-9.46112e-09
2.33779e-10
-4.03281e-06
-5.92893e-09
-7.66654e-08
-7.00746e-09
6.12689e-09
-1.44136e-06
-1.80444e-08
3.80978e-09
-1.83828e-06
-3.00281e-08
2.26954e-09
-2.17729e-06
-4.14864e-08
8.34773e-10
-2.51923e-06
-5.17368e-08
-7.25275e-10
-2.87639e-06
-6.04949e-08
-2.40517e-09
-3.25197e-06
-6.75748e-08
-4.22144e-09
-3.64552e-06
-6.15473e-09
-4.05358e-06
-7.2727e-08
-5.28132e-09
-1.07438e-08
-1.45689e-06
-1.61177e-08
-1.05294e-08
-1.85263e-06
-2.81992e-08
-1.0604e-08
-2.19216e-06
-4.01658e-08
-1.08545e-08
-2.53562e-06
-5.0768e-08
-1.12713e-08
-2.89321e-06
-5.95066e-08
-1.18083e-08
-3.2693e-06
-6.6624e-08
-1.24917e-08
-3.66383e-06
-1.33226e-08
-4.07331e-06
-7.18494e-08
-5.07016e-09
-2.46994e-08
-1.44866e-06
-1.40885e-08
-2.3428e-08
-1.84855e-06
-2.4847e-08
-2.27069e-08
-2.19202e-06
-3.62606e-08
-2.21723e-08
-2.54043e-06
-4.65558e-08
-2.15733e-08
-2.89865e-06
-5.5229e-08
-2.10132e-08
-3.27578e-06
-6.22765e-08
-2.05572e-08
-3.67185e-06
-2.02584e-08
-4.08328e-06
-6.76001e-08
-5.54441e-09
-3.69712e-08
-1.4397e-06
-1.41308e-08
-3.47819e-08
-1.83859e-06
-2.38958e-08
-3.33708e-08
-2.18112e-06
-3.37876e-08
-3.21222e-08
-2.52746e-06
-4.30667e-08
-3.07749e-08
-2.88935e-06
-5.13775e-08
-2.9344e-08
-3.2701e-06
-5.84901e-08
-2.79046e-08
-3.66931e-06
-2.65463e-08
-4.08352e-06
-6.41165e-08
-5.48037e-09
-4.87952e-08
-1.43141e-06
-1.39725e-08
-4.52209e-08
-1.82902e-06
-2.34856e-08
-4.30535e-08
-2.17092e-06
-3.30562e-08
-4.11832e-08
-2.51713e-06
-4.21317e-08
-3.91879e-08
-2.87966e-06
-5.03643e-08
-3.70123e-08
-3.26141e-06
-5.74937e-08
-3.47098e-08
-3.66173e-06
-3.23833e-08
-4.0771e-06
-6.32178e-08
-7.07542e-09
-1.42473e-06
-5.84642e-08
-1.67766e-08
-1.82118e-06
-5.36302e-08
-2.7157e-08
-2.16232e-06
-5.09102e-08
-3.73659e-08
-2.50796e-06
-4.86216e-08
-4.69268e-08
-2.87004e-06
-4.61733e-08
-5.55177e-08
-3.25139e-06
-4.34535e-08
-6.28594e-08
-3.65132e-06
-4.0506e-08
-4.06625e-06
-3.74376e-08
-6.86115e-08
-8.53645e-09
1.56302e-08
-1.41557e-06
-2.26332e-08
-1.96666e-08
1.16868e-08
-1.80972e-06
-1.80482e-08
-3.0907e-08
9.14157e-09
-2.14746e-06
-1.52794e-08
-4.12818e-08
6.81446e-09
-2.48895e-06
-1.26116e-08
-5.0311e-08
4.37336e-09
-2.84623e-06
-9.7055e-09
-5.78011e-08
1.74661e-09
-3.22225e-06
-6.48528e-09
-6.36743e-08
-1.05814e-09
-3.61644e-06
-2.97561e-09
-4.00541e-09
-4.02538e-06
7.49791e-10
-6.78148e-08
-6.73757e-09
5.61367e-09
-1.42458e-06
-1.66324e-08
2.94763e-09
-1.81962e-06
-2.71934e-08
1.25069e-09
-2.15881e-06
-3.72565e-08
-2.91772e-10
-2.50203e-06
-4.62158e-08
-1.9081e-09
-2.86113e-06
-5.37835e-08
-3.64242e-09
-3.23899e-06
-5.98399e-08
-5.4866e-09
-3.63501e-06
-7.43602e-09
-4.0457e-06
-6.42523e-08
-5.05021e-09
-8.83927e-09
-1.43737e-06
-1.43872e-08
-8.77589e-09
-1.83154e-06
-2.48046e-08
-8.92234e-09
-2.17155e-06
-3.53932e-08
-9.17899e-09
-2.51612e-06
-4.46137e-08
-9.57687e-09
-2.8763e-06
-5.23185e-08
-1.00624e-08
-3.25515e-06
-5.85036e-08
-1.06566e-08
-3.65245e-06
-1.13862e-08
-4.06475e-06
-6.30821e-08
-4.37595e-09
-2.14108e-08
-1.4317e-06
-1.22433e-08
-1.98255e-08
-1.8296e-06
-2.16313e-08
-1.89332e-08
-2.17259e-06
-3.19325e-08
-1.82097e-08
-2.52088e-06
-4.09085e-08
-1.73745e-08
-2.88195e-06
-4.84008e-08
-1.65695e-08
-3.26175e-06
-5.44852e-08
-1.58571e-08
-3.66054e-06
-1.52995e-08
-4.07468e-06
-5.91328e-08
-4.77568e-09
-3.24539e-08
-1.42387e-06
-1.22274e-08
-2.95926e-08
-1.82134e-06
-2.06672e-08
-2.77511e-08
-2.16384e-06
-2.92041e-08
-2.61036e-08
-2.511e-06
-3.71351e-08
-2.43528e-08
-2.87442e-06
-4.41833e-08
-2.25221e-08
-3.25707e-06
-5.02247e-08
-2.0685e-08
-3.65841e-06
-1.89384e-08
-4.07496e-06
-5.51176e-08
-4.65701e-09
-4.31409e-08
-1.41605e-06
-1.19532e-08
-3.86676e-08
-1.81262e-06
-2.0061e-08
-3.59058e-08
-2.15463e-06
-2.81374e-08
-3.34902e-08
-2.50164e-06
-3.57111e-08
-3.09693e-08
-2.86544e-06
-4.254e-08
-2.82837e-08
-3.24879e-06
-4.84922e-08
-2.54879e-08
-3.65095e-06
-2.2687e-08
-4.06839e-06
-5.34232e-08
-6.05276e-09
-1.40976e-06
-5.20454e-08
-1.43489e-08
-1.80535e-06
-4.61744e-08
-2.31251e-08
-2.14667e-06
-4.27524e-08
-3.16333e-08
-2.49308e-06
-3.98293e-08
-3.94853e-08
-2.85633e-06
-3.67977e-08
-4.64866e-08
-3.23913e-06
-3.35168e-08
-5.25075e-08
-3.64072e-06
-3.00329e-08
-4.05757e-06
-2.64508e-08
-5.73847e-08
-8.21738e-09
1.30108e-08
-1.40202e-06
-1.83305e-08
-1.81709e-08
8.80506e-09
-1.79515e-06
-1.33996e-08
-2.79685e-08
6.11571e-09
-2.13347e-06
-1.02928e-08
-3.68401e-08
3.6985e-09
-2.47636e-06
-7.40005e-09
-4.44062e-08
1.21166e-09
-2.83551e-06
-4.34514e-09
-5.0549e-08
-1.42062e-09
-3.21363e-06
-1.03785e-09
-5.52862e-08
-4.20497e-09
-3.60999e-06
2.51211e-09
-7.11345e-09
-4.02114e-06
6.25009e-09
-5.86403e-08
-6.4452e-09
5.01114e-09
-1.41012e-06
-1.52457e-08
2.29118e-09
-1.80429e-06
-2.44064e-08
5.93458e-10
-2.14411e-06
-3.30153e-08
-9.01768e-10
-2.48881e-06
-4.05493e-08
-2.45819e-09
-2.8499e-06
-4.68123e-08
-4.10157e-09
-3.23002e-06
-5.17861e-08
-5.84219e-09
-3.62838e-06
-7.68774e-09
-4.04142e-06
-5.54685e-08
-4.85251e-09
-6.80771e-09
-1.42068e-06
-1.29476e-08
-6.73468e-09
-1.8144e-06
-2.19059e-08
-6.83288e-09
-2.15515e-06
-3.07074e-08
-6.96795e-09
-2.50124e-06
-3.84711e-08
-7.26423e-09
-2.86371e-06
-4.49106e-08
-7.59791e-09
-3.24519e-06
-5.00627e-08
-8.01914e-09
-3.6451e-06
-8.57217e-09
-4.05992e-06
-5.39802e-08
-3.89298e-09
-1.76225e-08
-1.41698e-06
-1.07117e-08
-1.56854e-08
-1.81382e-06
-1.86727e-08
-1.45605e-08
-2.15689e-06
-2.75422e-08
-1.36087e-08
-2.5051e-06
-3.49069e-08
-1.25182e-08
-2.86932e-06
-4.11332e-08
-1.14631e-08
-3.25164e-06
-4.61691e-08
-1.04875e-08
-3.65301e-06
-9.66047e-09
-4.06959e-06
-5.015e-08
-4.12045e-09
-2.72319e-08
-1.41012e-06
-1.0456e-08
-2.37665e-08
-1.80691e-06
-1.75075e-08
-2.15304e-08
-2.1498e-06
-2.45365e-08
-1.95119e-08
-2.49805e-06
-3.09523e-08
-1.74079e-08
-2.86309e-06
-3.66018e-08
-1.52234e-08
-3.24764e-06
-4.14965e-08
-1.30359e-08
-3.65095e-06
-1.09433e-08
-4.06949e-06
-4.56605e-08
-3.89648e-09
-3.66816e-08
-1.40269e-06
-9.95868e-09
-3.14947e-08
-1.79881e-06
-1.65652e-08
-2.82537e-08
-2.14129e-06
-2.30054e-08
-2.53909e-08
-2.4893e-06
-2.8934e-08
-2.24435e-08
-2.85446e-06
-3.4243e-08
-1.93466e-08
-3.23933e-06
-3.89609e-08
-1.61534e-08
-3.64309e-06
-1.29667e-08
-4.06218e-06
-4.31239e-08
-5.01588e-09
-1.39659e-06
-4.48157e-08
-1.18132e-08
-1.79184e-06
-3.81937e-08
-1.88536e-08
-2.13362e-06
-3.42495e-08
-2.55099e-08
-2.48095e-06
-3.08489e-08
-3.1523e-08
-2.84537e-06
-2.73722e-08
-3.6846e-08
-3.22945e-06
-2.3676e-08
-4.15257e-08
-3.63238e-06
-1.97961e-08
-4.05061e-06
-1.58315e-08
-4.55944e-08
-7.78707e-09
1.03436e-08
-1.39071e-06
-1.38603e-08
-1.65357e-08
6.21267e-09
-1.78368e-06
-8.91842e-09
-2.48448e-08
3.57893e-09
-2.12299e-06
-5.74107e-09
-3.21139e-08
1.23364e-09
-2.46748e-06
-2.82682e-09
-3.8091e-08
-1.14611e-09
-2.82856e-06
1.90326e-10
-4.27844e-08
-3.64331e-09
-3.2087e-06
3.41947e-09
-4.63456e-08
-6.27602e-09
-3.607e-06
6.85526e-09
-9.03411e-09
-4.01995e-06
1.04653e-08
-4.89535e-08
-6.14513e-09
4.54671e-09
-1.39817e-06
-1.38634e-08
2.02493e-09
-1.79237e-06
-2.15804e-08
4.66577e-10
-2.13327e-06
-2.85858e-08
-8.80742e-10
-2.47967e-06
-3.45168e-08
-2.25708e-09
-2.84285e-06
-3.93171e-08
-3.70279e-09
-3.22515e-06
-4.31081e-08
-5.24534e-09
-3.6256e-06
-6.90209e-09
-4.04059e-06
-4.6055e-08
-4.68722e-09
-4.4809e-09
-1.40696e-06
-1.16551e-08
-4.26793e-09
-1.80113e-06
-1.90441e-08
-4.22888e-09
-2.14305e-06
-2.60162e-08
-4.22307e-09
-2.49091e-06
-3.20012e-08
-4.27207e-09
-2.8557e-06
-3.69233e-08
-4.3974e-09
-3.23957e-06
-4.09067e-08
-4.59996e-09
-3.64175e-06
-4.93319e-09
-4.05865e-06
-4.41359e-08
-3.56058e-09
-1.32432e-08
-1.40465e-06
-9.37127e-09
-1.09632e-08
-1.8013e-06
-1.59209e-08
-9.58549e-09
-2.14497e-06
-2.24931e-08
-8.35241e-09
-2.49439e-06
-2.83692e-08
-7.07242e-09
-2.86052e-06
-3.30159e-08
-5.77256e-09
-3.24561e-06
-3.68807e-08
-4.54553e-09
-3.64919e-06
-3.46129e-09
-4.06774e-06
-4.01899e-08
-3.50413e-09
-2.12847e-08
-1.39857e-06
-8.64507e-09
-1.73462e-08
-1.79537e-06
-1.41487e-08
-1.47906e-08
-2.13908e-06
-1.94144e-08
-1.24662e-08
-2.48866e-06
-2.40865e-08
-1.00724e-08
-2.85541e-06
-2.81484e-08
-7.60428e-09
-3.24174e-06
-3.17906e-08
-5.13037e-09
-3.64671e-06
-2.74813e-09
-4.06675e-06
-3.52297e-08
-3.10358e-09
-2.9487e-08
-1.39138e-06
-7.78707e-09
-2.38366e-08
-1.78763e-06
-1.2693e-08
-2.02694e-08
-2.13089e-06
-1.72711e-08
-1.70883e-08
-2.48009e-06
-2.13403e-08
-1.38327e-08
-2.84662e-06
-2.49695e-08
-1.04392e-08
-3.23286e-06
-2.83788e-08
-6.95456e-09
-3.63784e-06
-3.47567e-09
-4.05801e-06
-3.18094e-08
-3.8692e-09
-1.38526e-06
-3.6938e-08
-8.96993e-09
-1.78064e-06
-2.99215e-08
-1.40434e-08
-2.12313e-06
-2.56749e-08
-1.86207e-08
-2.47148e-06
-2.19689e-08
-2.2599e-08
-2.837e-06
-1.82157e-08
-2.61159e-08
-3.22211e-06
-1.42578e-08
-2.94216e-08
-3.62589e-06
-1.01238e-08
-4.04483e-06
-5.90319e-09
-3.27635e-08
-7.25393e-09
7.89505e-09
-1.38185e-06
-9.49847e-09
-1.47219e-08
4.1219e-09
-1.77546e-06
-4.86591e-09
-2.1421e-08
1.71658e-09
-2.11615e-06
-1.85076e-09
-2.69244e-08
-4.24446e-10
-2.46246e-06
9.07112e-10
-3.11458e-08
-2.58141e-09
-2.82551e-06
3.75073e-09
-3.4245e-08
-4.84607e-09
-3.20752e-06
6.76937e-09
-3.65547e-08
-7.24654e-09
-3.60742e-06
9.98639e-09
-9.78491e-09
-4.02165e-06
1.33811e-08
-3.84436e-08
-5.80644e-09
4.45688e-09
-1.38892e-06
-1.23726e-08
2.32538e-09
-1.784e-06
-1.85112e-08
1.01879e-09
-2.12643e-06
-2.37117e-08
-1.01711e-10
-2.47479e-06
-2.78055e-08
-1.22861e-09
-2.8401e-06
-3.09356e-08
-2.41715e-09
-3.22445e-06
-3.34155e-08
-3.70974e-09
-3.62666e-06
-5.13388e-09
-4.04304e-06
-3.56111e-08
-4.4811e-09
-1.69664e-09
-1.39632e-06
-1.02667e-08
-1.25813e-09
-1.79176e-06
-1.59475e-08
-1.02535e-09
-2.13532e-06
-2.09036e-08
-8.1244e-10
-2.48524e-06
-2.48335e-08
-6.31376e-10
-2.85236e-06
-2.79692e-08
-5.10383e-10
-3.23833e-06
-3.06098e-08
-4.75824e-10
-3.64233e-06
-5.77297e-10
-4.0607e-06
-3.31072e-08
-3.22005e-09
-8.22794e-09
-1.39489e-06
-7.86018e-09
-5.67294e-09
-1.79224e-06
-1.26592e-08
-4.07994e-09
-2.13711e-06
-1.70508e-08
-2.6164e-09
-2.48819e-06
-2.07523e-08
-1.12628e-09
-2.85632e-06
-2.36531e-08
3.80891e-10
-3.24359e-06
-2.61811e-08
1.81998e-09
-3.64895e-06
3.13188e-09
-4.06883e-06
-2.87906e-08
-2.80486e-09
-1.46534e-08
-1.38933e-06
-6.54825e-09
-1.04318e-08
-1.78686e-06
-1.02311e-08
-7.67407e-09
-2.13179e-06
-1.34388e-08
-5.1345e-09
-2.48293e-06
-1.60676e-08
-2.53704e-09
-2.85136e-06
-1.83018e-08
1.27488e-10
-3.23924e-06
-2.05664e-08
2.8183e-09
-3.64544e-06
5.43071e-09
-4.06631e-06
-2.32953e-08
-2.14455e-09
-2.16965e-08
-1.38219e-06
-5.18532e-09
-1.58844e-08
-1.77913e-06
-8.08462e-09
-1.21758e-08
-2.12349e-06
-1.04935e-08
-8.8224e-09
-2.47399e-06
-1.24268e-08
-5.39664e-09
-2.84182e-06
-1.4181e-08
-1.82851e-09
-3.22914e-06
-1.61996e-08
1.83999e-09
-3.63484e-06
5.52149e-09
-4.05533e-06
-1.89571e-08
-2.47749e-09
-1.37583e-06
-2.86516e-08
-5.57211e-09
-1.77178e-06
-2.16475e-08
-8.34901e-09
-2.11518e-06
-1.73439e-08
-1.05352e-08
-2.46456e-06
-1.3557e-08
-1.22315e-08
-2.83102e-06
-9.66591e-09
-1.37814e-08
-3.21678e-06
-5.59935e-09
-1.56743e-08
-3.6208e-06
-1.34724e-09
-4.0396e-06
3.01612e-09
-1.83935e-08
-6.59108e-09
5.91233e-09
-1.37566e-06
-5.51039e-09
-1.26264e-08
2.72153e-09
-1.77067e-06
-1.47903e-09
-1.75049e-08
6.69708e-10
-2.11312e-06
1.18467e-09
-2.10132e-08
-1.15979e-09
-2.46145e-06
3.65753e-09
-2.32385e-08
-3.02777e-09
-2.82647e-06
6.21608e-09
-2.45541e-08
-5.00664e-09
-3.21015e-06
8.95222e-09
-2.55142e-08
-7.13736e-09
-3.61122e-06
1.18958e-08
-9.43163e-09
-4.02606e-06
1.50397e-08
-2.67087e-08
-5.36704e-09
4.9518e-09
-1.3826e-06
-1.06061e-08
3.33041e-09
-1.77937e-06
-1.49287e-08
2.34085e-09
-2.12378e-06
-1.80422e-08
1.50325e-09
-2.47434e-06
-2.00121e-08
6.5373e-10
-2.84182e-06
-2.12265e-08
-2.58621e-10
-3.22798e-06
-2.22444e-08
-1.29216e-09
-3.63148e-06
-2.47909e-09
-4.04856e-06
-2.36757e-08
-4.12452e-09
1.65954e-09
-1.3889e-06
-8.5223e-09
2.35965e-09
-1.78639e-06
-1.22403e-08
2.79793e-09
-2.13206e-06
-1.49035e-08
3.2327e-09
-2.48431e-06
-1.65146e-08
3.64078e-09
-2.85392e-06
-1.75867e-08
3.98869e-09
-3.24151e-06
-1.86997e-08
4.24565e-09
-3.64676e-06
4.35876e-09
-4.06581e-06
-2.04271e-08
-2.71853e-09
-2.57288e-09
-1.38794e-06
-5.87735e-09
1.15601e-10
-1.78684e-06
-8.58756e-09
1.86256e-09
-2.13347e-06
-1.055e-08
3.49427e-09
-2.48649e-06
-1.17602e-08
5.1449e-09
-2.85661e-06
-1.25732e-08
6.80194e-09
-3.24559e-06
-1.35782e-08
8.41976e-09
-3.65212e-06
9.92338e-09
-4.07251e-06
-1.54697e-08
-1.86946e-09
-7.43884e-09
-1.3826e-06
-3.896e-09
-3.1749e-09
-1.78155e-06
-5.36078e-09
-3.66074e-10
-2.1281e-06
-6.14216e-09
2.27042e-09
-2.48092e-06
-6.37323e-09
4.97381e-09
-2.85096e-06
-6.52925e-09
7.76219e-09
-3.24005e-06
-7.28324e-09
1.05859e-08
-3.64685e-06
1.33622e-08
-4.06769e-06
-9.33729e-09
-8.68847e-10
-1.35193e-08
-1.37524e-06
-1.85389e-09
-7.88462e-09
-1.77344e-06
-2.35463e-09
-4.24234e-09
-2.11911e-06
-2.20825e-09
-8.81458e-10
-2.47098e-06
-1.67979e-09
2.57282e-09
-2.83995e-06
-1.32319e-09
6.19316e-09
-3.22793e-06
-1.8607e-09
9.94503e-09
-3.63366e-06
1.37534e-08
-4.05356e-06
-4.02836e-09
-6.96907e-10
-1.36838e-06
-2.02702e-08
-1.30109e-09
-1.76534e-06
-1.37131e-08
-1.39291e-09
-2.10973e-06
-9.60157e-09
-8.19201e-10
-2.46011e-06
-5.90653e-09