/*--------------------------------*- C++ -*----------------------------------*\
| =========                 |                                                 |
| \\      /  F ield         | OpenFOAM: The Open Source CFD Toolbox           |
|  \\    /   O peration     | Version:  plus.master.MPPICInterFoam            |
|   \\  /    A nd           | Web:      www.OpenFOAM.com                      |
|    \\/     M anipulation  |                                                 |
\*---------------------------------------------------------------------------*/
FoamFile
{
    version     2.0;
    format      ascii;
    class       vectorField;
    location    "13.6/lagrangian/kinematicCloud";
    object      U;
}
// * * * * * * * * * * * * * * * * * * * * * * * * * * * * * * * * * * * * * //


128
(
(1.61165e-07 -6.04775e-08 -0.0232534)
(5.66875e-08 6.09895e-08 -0.0215073)
(1.14348e-05 3.111e-05 -0.0227774)
(0.00171375 0.000734927 -0.0518113)
(0.0018403 0.000737518 -0.054715)
(0.00200197 0.0008563 -0.05263)
(0.00204395 0.000865319 -0.0519959)
(0.00187609 0.00108309 -0.0552802)
(0.0019985 0.000951262 -0.0546054)
(0.00202946 0.00108526 -0.054546)
(0.00215229 0.000894023 -0.0528825)
(0.00216424 0.000898887 -0.0529718)
(0.00215071 0.000890787 -0.0531582)
(0.00213042 0.00123068 -0.0537766)
(0.00200672 0.00118251 -0.0549702)
(0.00222067 0.000955162 -0.0534422)
(0.00204354 0.001012 -0.0536825)
(0.0020289 0.00110036 -0.0559934)
(0.00173848 0.00105248 -0.0543413)
(0.00154988 0.00109411 -0.0548623)
(0.00172112 0.00110535 -0.0542378)
(0.00188637 0.00112451 -0.0544567)
(0.00191156 0.00116675 -0.0543901)
(0.00166076 0.00130191 -0.0551189)
(0.00165614 0.0013195 -0.0553155)
(0.00175216 0.0011711 -0.0547823)
(0.00181278 0.00129234 -0.0543005)
(0.00182098 0.00115981 -0.0544023)
(0.00102279 -0.00131778 -0.0529685)
(0.0019633 0.00128558 -0.0550287)
(0.00168184 0.00139159 -0.0558038)
(0.00114547 -0.00137654 -0.0531239)
(0.0011856 -0.00138443 -0.0531591)
(0.0021122 0.00150779 -0.0575304)
(0.00180782 0.00147217 -0.0555511)
(-0.000712588 -0.000870942 -0.0570566)
(0.00260665 0.00166749 -0.0527042)
(-0.000736086 -0.00100507 -0.055333)
(-0.000683747 -0.000977103 -0.0576562)
(0.00244581 0.00151148 -0.0550906)
(-0.000666471 -0.00105154 -0.0577848)
(0.00262228 0.00148499 -0.0551915)
(0.00255425 0.0014865 -0.0560639)
(-0.000720846 -0.00114825 -0.0563968)
(0.00293387 0.00135195 -0.0525628)
(0.00270615 0.00150898 -0.0559485)
(0.00282334 0.00148277 -0.0541921)
(0.00269267 0.00158682 -0.0560142)
(0.00288655 0.00149749 -0.0532717)
(0.00272686 0.00129886 -0.0568031)
(0.00133975 -0.00234122 -0.0534777)
(0.00280179 0.00155377 -0.0554058)
(0.00143039 -0.00260739 -0.0535655)
(0.00296779 0.00126646 -0.0536097)
(0.00152727 -0.00307442 -0.0526606)
(0.0028068 0.00167054 -0.0556213)
(-0.00079665 -0.00135687 -0.0578232)
(-0.000843033 -0.00125097 -0.0574123)
(-0.00085761 -0.00119696 -0.0576189)
(-0.000803394 -0.00143734 -0.0574899)
(0.00147381 -0.00304361 -0.0531093)
(0.00295396 0.00164056 -0.0547198)
(0.00148268 -0.00303294 -0.0534594)
(0.00286421 0.00168228 -0.0563982)
(0.0029214 0.00178548 -0.0554202)
(-0.000932516 -0.00122615 -0.0588135)
(0.00277035 0.00185946 -0.0575589)
(-0.000998636 -0.00127448 -0.0593343)
(0.00246696 0.00215456 -0.0599318)
(0.0011865 -0.0028555 -0.0525687)
(0.00271078 0.00214395 -0.0579127)
(0.00269739 0.00213838 -0.0589372)
(0.000553365 -0.00334357 -0.0532284)
(0.00288633 0.00209216 -0.0586859)
(0.00265639 0.00217554 -0.0592165)
(0.00128573 -0.00399173 -0.0530956)
(0.00070851 -0.00343035 -0.0535631)
(0.00265835 0.00213839 -0.0579006)
(0.00082218 -0.00260458 -0.052659)
(8.03765e-05 -0.00389787 -0.0540252)
(0.000862172 -0.00303268 -0.0531627)
(-1.99904e-05 -0.00335841 -0.0539367)
(0.000739844 -0.00282304 -0.0533314)
(0.000254202 -0.00243095 -0.0541116)
(-7.17667e-05 -0.00365199 -0.0544052)
(0.00247912 0.00246101 -0.0595782)
(0.000147769 -0.00306065 -0.0544144)
(0.000580711 -0.00267266 -0.0536115)
(0.000701884 -0.00287861 -0.0542946)
(0.000573206 -0.00289982 -0.0542964)
(-0.00275094 -0.000483606 -0.0627467)
(0.000515023 -0.00260967 -0.0557265)
(0.00246753 0.00259416 -0.0607507)
(0.00257644 0.00290788 -0.0566681)
(0.000504395 -0.00258011 -0.05707)
(0.000826959 -0.00266209 -0.0563018)
(0.00215152 0.00290373 -0.0627758)
(0.000744959 -0.00263802 -0.056899)
(0.00153497 0.00349506 -0.0623611)
(0.000582234 -0.0030094 -0.0583146)
(0.000577375 -0.0030008 -0.0577015)
(-0.00458004 9.74541e-06 -0.0642922)
(-0.00502452 0.000577093 -0.0666928)
(-0.00499211 0.000574256 -0.0669188)
(-0.00452403 0.00649784 -0.0550175)
(0.000533401 -0.00324719 -0.0602694)
(-0.00440047 0.000322886 -0.0660329)
(0.000595004 -0.00303479 -0.0598973)
(-0.00402478 0.00026581 -0.0653552)
(0.000556467 -0.0031406 -0.0602605)
(0.000403963 -0.00318971 -0.0606534)
(0.000511198 0.00439725 -0.0682035)
(0.000329095 -0.00334077 -0.0616934)
(0.000195209 -0.00346944 -0.0641466)
(-6.6307e-05 -0.00346977 -0.062264)
(4.86802e-05 -0.00350597 -0.0659446)
(0.000263764 -0.0040973 -0.0688455)
(0.000151832 -0.00428424 -0.0674617)
(-0.00162526 0.00588129 -0.0766307)
(-0.00114519 -0.00487066 -0.0720443)
(-0.0021861 0.00579032 -0.0824164)
(-0.00141037 0.00587676 -0.0804151)
(-0.00682094 2.59029e-05 -0.0898812)
(-0.0068669 -9.6749e-05 -0.0901599)
(-0.00209829 0.00500525 -0.0913556)
(0.00130095 -0.00567532 -0.0807496)
(0.00151951 -0.00595623 -0.0789401)
(0.00157168 -0.0057727 -0.0826654)
)


// ************************************************************************* //
