/*--------------------------------*- C++ -*----------------------------------*\
| =========                 |                                                 |
| \\      /  F ield         | OpenFOAM: The Open Source CFD Toolbox           |
|  \\    /   O peration     | Version:  plus.master                           |
|   \\  /    A nd           | Web:      www.OpenFOAM.com                      |
|    \\/     M anipulation  |                                                 |
\*---------------------------------------------------------------------------*/
FoamFile
{
    version     2.0;
    format      ascii;
    class       vectorField;
    location    "11.8/lagrangian/kinematicCloud";
    object      U;
}
// * * * * * * * * * * * * * * * * * * * * * * * * * * * * * * * * * * * * * //


96597
(
(0.000638154 -0.00286572 0.000234454)
(-0.000541441 0.000249293 -0.00158396)
(-2.50846e-05 0.000218065 0.000284649)
(-4.73169e-05 0.000809301 0.000881304)
(1.06773e-05 5.37271e-05 0.000530783)
(0.000273822 0.000656574 0.00045961)
(-0.00054006 0.000536846 -0.000580336)
(-0.00130102 -0.000183626 -0.00027882)
(-0.000918473 -0.00063369 -0.00423953)
(6.71311e-05 7.09396e-05 -0.00211993)
(-0.000460022 3.52743e-05 0.000822743)
(-0.000624948 2.22281e-05 -0.00176646)
(0.00163519 -0.000683212 -0.00262179)
(-0.000520557 0.000524732 -0.00358896)
(-0.000326118 0.000971516 0.000328422)
(-6.66058e-05 5.61453e-05 -0.00222858)
(-0.000226296 -0.00258369 -0.000881552)
(0.000173861 -0.000426459 0.000310794)
(-0.000589653 -4.77526e-05 6.26729e-05)
(-0.000324297 5.30257e-05 -0.000162743)
(4.83174e-05 -7.61048e-05 -0.00409508)
(-6.70892e-05 0.000163446 -0.00163879)
(0.000248633 0.000569098 0.000208047)
(0.000317845 0.000666718 -0.000933215)
(-0.000442686 8.93023e-05 0.000138092)
(0.000614474 0.000483773 0.000299425)
(0.000160127 0.000298288 0.00640882)
(-1.2859e-05 0.00042084 0.000670528)
(0.000204013 0.000518192 0.000511394)
(-0.000383537 -1.03922e-05 0.000312659)
(6.43948e-05 -0.000151493 -0.000295786)
(-0.000146722 -6.87724e-05 -0.00510646)
(0.000785373 -0.000537768 0.000242792)
(2.86979e-05 -5.16462e-05 -0.00133708)
(-0.000367497 3.27943e-05 -0.00171794)
(-0.000773354 1.98607e-05 -0.00161295)
(0.000120539 -0.000232888 -0.000956664)
(0.000111926 0.00020131 -0.00362134)
(0.000661016 -0.000156084 -0.000446798)
(-0.000403631 -0.000106657 -0.000881537)
(-0.000695904 0.000403766 -0.000990101)
(0.00023844 0.001092 0.000309158)
(-2.50841e-06 0.000139376 -0.0034412)
(0.000292359 -0.00039255 3.44733e-06)
(0.000250031 -0.000281851 0.000250536)
(-0.000378826 3.09055e-07 0.000368303)
(-0.000201384 1.83788e-05 -0.00522067)
(0.000193752 -0.000392614 0.000430528)
(0.000209201 0.00069514 -0.000899403)
(0.000108121 -0.000518332 0.000440685)
(-0.000561955 0.000189322 0.000271826)
(0.000162767 -0.000274875 0.0020164)
(-0.000855185 0.000151513 0.000742424)
(5.91273e-05 0.000203538 0.000293382)
(-0.000556772 0.000172937 0.000277338)
(0.000265234 -0.000825397 9.32346e-05)
(-0.00094324 2.3399e-05 0.000305183)
(0.000582609 0.000564429 -0.00102503)
(0.000253133 -0.000199408 2.82922e-05)
(-0.000489443 -0.000115176 -0.00523436)
(-0.000453323 4.39706e-05 5.18056e-05)
(-0.000569852 0.000189761 0.00069957)
(-0.000857308 0.000416483 0.000162989)
(0.000283314 -0.000177525 1.28109e-05)
(-0.00106675 4.66113e-05 -0.00163164)
(0.000241192 0.00066913 0.00022263)
(-1.76324e-05 0.000522424 0.000732834)
(-0.00342253 0.00949546 0.000215754)
(-0.000389156 1.20804e-05 0.000377785)
(-0.00050549 6.94216e-05 0.000333333)
(-0.000793112 0.000280847 0.00036999)
(-0.00103168 -3.27914e-05 -0.00179399)
(0.000380101 -0.000875583 -0.00157846)
(-0.000543575 -0.000238027 -0.000207565)
(0.00118675 -0.000584539 -0.00231209)
(-0.000282206 0.000125826 0.000326923)
(-4.36516e-05 4.41595e-05 0.00397337)
(0.00135073 0.00204617 0.000475289)
(-0.000542458 -9.39772e-05 0.00028499)
(-0.000602283 -0.000198822 0.000241989)
(-0.000383337 -3.01653e-05 0.000237047)
(0.000632492 0.000199414 0.000289371)
(0.00041335 -0.000449374 0.000309171)
(-0.000940418 0.000282423 0.000233364)
(0.000106029 -0.0001051 -0.0015287)
(-0.000463895 7.3298e-05 0.000528099)
(-0.000784119 -8.76935e-05 0.000221113)
(0.000223645 0.000268555 -0.00472051)
(-2.29203e-05 0.000879323 -0.00146808)
(-0.000270841 -0.00114094 -0.00285291)
(-0.000372002 -0.000614416 0.00053512)
(-0.00442821 0.000795951 0.000292035)
(-0.00143025 0.000590193 -0.00390117)
(5.38367e-05 0.00100672 -0.00177694)
(-9.72919e-05 2.59656e-05 -0.0025871)
(0.000197258 -3.09099e-05 -0.00645705)
(-6.84938e-05 9.10974e-05 0.00510179)
(-0.000354854 5.16339e-07 -0.00187429)
(0.000413293 -0.000283591 0.000285498)
(-0.000279681 4.2166e-05 -0.00200696)
(-7.76188e-05 4.25475e-05 -0.000329398)
(-0.000645189 0.000157877 -0.00120042)
(-0.000260785 0.000869079 -0.0013479)
(-0.00045077 0.000141309 0.00102357)
(-0.000810752 -0.000189372 -0.00187875)
(0.000408149 -0.000440568 0.000267985)
(-7.34599e-07 0.000276776 0.000313195)
(0.000260721 -0.000296849 0.000246018)
(-0.000258861 -0.000138984 -0.000112836)
(0.000718927 -0.000796166 -0.000969379)
(0.000586818 -0.000879606 0.000303565)
(-0.000590561 1.57301e-05 -0.000987871)
(-4.94694e-05 0.000278953 -0.00136526)
(-0.000539613 2.80343e-05 -0.000109362)
(-0.00058969 0.000316334 0.000690097)
(-0.000586359 0.000653584 0.000194194)
(-0.000681246 -4.5346e-05 -0.000550621)
(0.00014208 0.000517891 0.000242398)
(-0.00196426 -0.000660259 0.000208463)
(-0.000625437 0.000692357 -0.000967227)
(-0.00046202 4.37518e-05 -0.000118077)
(-4.06972e-05 0.000468796 0.00033442)
(-0.000989987 0.000382247 -0.00101939)
(0.000455659 0.000955875 -0.00084132)
(-0.000165353 0.000257172 0.000458565)
(-0.000321987 -0.00061458 8.69146e-05)
(-0.000881142 4.51859e-05 9.10103e-05)
(-0.000216858 8.36215e-05 -0.00544734)
(-0.000671684 -0.000142298 -0.00317665)
(-0.000356535 1.53711e-05 -0.00255881)
(-0.00034466 0.000138457 -0.000221495)
(-0.000619495 0.000358441 -0.00176877)
(0.000239751 -0.000914942 0.000253724)
(-0.00065914 -0.000276226 0.000428792)
(-0.000821169 0.000320651 7.86117e-05)
(-8.0628e-06 0.000343492 -0.0014497)
(-0.000917551 -0.000639536 0.000298028)
(-0.000100986 -0.000621692 0.000458259)
(1.441e-05 0.000217312 0.000275453)
(0.000335968 -0.000288478 0.000332672)
(9.33228e-05 -6.7108e-05 -0.00446306)
(-0.000452161 3.60447e-05 -0.00300148)
(0.000269562 0.000552923 -0.00101691)
(-0.000798226 0.000683119 0.000476368)
(-0.000950455 0.000351739 -0.0011383)
(0.000255361 0.000318465 -0.00230696)
(0.000265188 -0.000102379 -0.000635037)
(-0.000563887 0.000567373 0.00029726)
(0.000212625 0.000482492 0.000470236)
(-0.000228156 0.000481034 0.000131868)
(-0.000218155 -0.000354282 0.00027306)
(-0.000937865 7.29935e-05 -0.00121365)
(-0.000881429 -0.00122172 -0.00110303)
(5.47373e-05 -0.000921199 -0.000206207)
(-0.000487426 0.00020826 -0.000788722)
(-0.00171063 -0.000415828 -0.000372352)
(-0.000501142 0.000457421 0.000163426)
(0.000262514 0.000574661 0.00028596)
(-0.000778428 8.6838e-05 -0.000856829)
(-5.30841e-05 -4.35189e-05 -0.00258421)
(-6.3713e-05 0.000361538 -0.000948533)
(-0.000663341 0.000514543 0.000242739)
(0.000242657 -0.000292545 0.000309808)
(-0.0002684 0.000632469 0.000567519)
(-0.00316323 0.00972081 -0.00225371)
(-1.44084e-05 3.36596e-05 0.00033)
(-0.000419758 0.000805695 5.86467e-06)
(-7.2652e-05 0.000273833 0.00589777)
(-0.000880182 0.000388456 -0.00183892)
(-0.000358288 0.000143643 0.000410029)
(-0.000260672 0.0100418 -0.00114298)
(0.000382385 -0.000607835 -0.00563716)
(-0.000545523 0.000177345 0.000313962)
(-0.0021009 -0.000242106 0.000348067)
(0.000166487 -0.0002638 -0.00111339)
(0.000808078 0.00131757 0.000482985)
(-0.000275667 -0.000288298 -0.00178877)
(-0.000470724 1.55402e-05 0.000259619)
(0.000526801 -0.000267884 -0.00550947)
(-0.000563918 3.7859e-05 0.00185616)
(0.00180174 -0.000677679 0.000129942)
(0.000250161 -0.000329973 -0.000198308)
(0.000312499 -0.000418931 0.000247813)
(0.000229152 0.000534544 4.75146e-05)
(-5.36933e-05 -0.000133226 -8.79766e-05)
(-0.000598467 0.000497111 -0.000849512)
(-0.000599536 0.00033305 -0.00249902)
(-5.98513e-05 -3.45878e-05 0.000269979)
(-0.00027666 -6.08637e-05 -0.00250665)
(-0.000559094 0.000129735 -0.00164194)
(-0.000812591 0.000199425 -0.000968102)
(-0.00038034 5.37211e-05 3.65815e-05)
(-2.03668e-05 0.000213135 0.0048808)
(-0.000433168 0.00019811 0.00035296)
(0.000480282 0.000680016 0.00157323)
(-0.000507947 -0.000816719 0.000159121)
(-0.0001643 -4.74641e-05 -0.00364828)
(-0.000686289 0.000339003 0.000189503)
(-0.000606817 -0.00012848 0.000305845)
(0.000238635 -0.000895949 0.000257218)
(-0.00096809 3.34237e-05 -0.00249243)
(-0.000108524 4.44185e-05 -0.000116353)
(-0.00053469 -0.000191394 -0.00183418)
(-6.83162e-05 4.80136e-05 0.0076202)
(-0.000369279 0.000450125 0.00699488)
(-0.000476324 0.000116711 -0.00559294)
(-0.00018168 6.94538e-05 0.000366807)
(-1.03503e-05 0.000202417 0.000134941)
(0.000177926 0.000663808 0.000438327)
(0.000328335 0.000550757 0.000241875)
(-0.000298006 9.52514e-06 -0.0023097)
(-0.000755972 0.000379656 -0.0030824)
(-0.000700987 9.74315e-05 -0.00136908)
(0.000216625 0.000562491 0.000271023)
(-5.66994e-05 4.29274e-05 0.00167921)
(-0.000883873 -0.00136279 0.0021491)
(0.000421952 0.00048361 0.00342839)
(0.000342876 0.000737173 0.000387796)
(-0.000463149 0.000209756 -0.00129543)
(-4.63498e-05 3.52901e-05 0.00100942)
(-0.000808445 -0.000141174 0.000318099)
(0.000390324 0.00022773 0.000440374)
(-0.000880703 0.000418121 0.000241926)
(-0.000304893 -0.000101311 -0.00464371)
(0.000797057 -0.000546511 0.000288584)
(-0.000271406 4.66629e-05 -0.00200286)
(-0.00017654 0.000715807 -0.00371575)
(0.000629286 0.000760376 -0.000820869)
(-0.00141887 0.000669579 -0.00124964)
(-0.00042905 -3.36097e-05 0.00396881)
(-0.000632147 0.000124028 -0.00114441)
(-0.000503677 -2.78369e-05 0.000330376)
(-4.01374e-05 -5.99364e-05 0.000459923)
(-0.000288055 0.000854196 -0.00159907)
(0.00279164 0.000234894 -0.00123817)
(0.00473435 -0.000852527 0.00121995)
(-0.000591604 0.00069118 0.000111698)
(0.000395991 -0.000399172 0.00259866)
(-0.00128386 0.000236906 -0.0051932)
(-0.000539334 -0.000114405 0.000445041)
(-0.000535182 -0.000725331 -0.00377461)
(-0.00110683 -0.000310713 -0.00136754)
(0.000133802 0.000773676 0.00019862)
(-0.00157035 0.00015641 -0.00317994)
(-1.22896e-05 0.000419649 -0.00193628)
(0.000251522 -0.000198742 -9.10821e-05)
(-0.000517322 0.000467707 -0.00254753)
(0.000316686 -0.000264888 0.000374364)
(0.000171627 0.000995765 -0.00178488)
(-0.000901117 -7.24895e-05 -0.00276826)
(0.00244387 -0.000110981 -0.00335511)
(-8.89936e-06 -0.000174544 0.00615167)
(-7.63135e-05 0.00046741 0.00042236)
(0.000239363 -0.000289258 0.0002071)
(-9.29975e-05 0.000148401 0.000394782)
(0.000837286 -0.000580653 -0.000936025)
(0.000151696 -7.73262e-05 -0.00596777)
(-0.000296707 8.47033e-05 0.000360466)
(-0.000882768 0.000339935 0.000136658)
(0.000880705 -0.000603492 0.000328095)
(0.000521108 0.000886307 -0.00699468)
(-0.000428044 0.000105441 0.0022663)
(0.000267278 0.000611823 -0.000316663)
(-0.000274614 0.000798572 0.000448407)
(-0.000608966 -0.000235815 -0.00184366)
(-7.25153e-06 0.000228534 0.000311801)
(0.000758184 -0.00662518 0.000251837)
(-0.0005656 0.000497641 -0.00567498)
(-7.78235e-05 -8.38838e-06 -0.00688829)
(0.000107139 -0.000179189 -0.00308468)
(0.0010533 -0.00219672 -0.00167227)
(-0.000536118 6.6882e-05 -0.000952834)
(-0.00558185 -0.00252179 -0.00370326)
(-0.00220617 -0.00279516 -0.00173343)
(-0.000690974 -0.000498992 -0.000826995)
(-0.000447072 0.000400574 0.000527505)
(-3.33789e-05 0.00036359 0.000235581)
(-0.00129718 -0.000880673 -0.00223816)
(0.000148539 -0.000342385 7.70658e-05)
(-0.000718592 0.000419567 -0.00127936)
(-0.000609275 -0.000260045 0.000474416)
(-0.000633744 0.000201758 0.000829061)
(0.000226984 -0.00118728 -0.00427814)
(0.000341372 -0.000306446 0.000291741)
(-0.000260139 -6.12599e-05 0.00016658)
(0.0003831 -0.000418498 -0.000998696)
(0.000344296 -0.00118078 0.00110542)
(-0.000374859 -0.000406584 -0.00303797)
(-0.000776751 0.000101267 -0.00212764)
(-0.00120456 0.00011394 0.000282651)
(-0.000907324 0.000154236 9.6986e-05)
(0.000636641 -0.000245777 0.000269559)
(-0.000474965 -8.06575e-05 1.89439e-05)
(-3.1859e-05 0.000286125 -0.000168063)
(0.000739312 -0.000258396 0.00361903)
(-0.000432777 0.000176345 0.00159438)
(-0.000327321 -0.000448267 0.00030865)
(-0.000655932 -0.000137568 0.000354606)
(-0.000440756 0.000236396 0.000500996)
(0.00243739 -0.00343129 0.000281777)
(-0.00060003 -0.00028082 -0.00183159)
(0.000383529 0.000436574 0.000271755)
(-0.000582964 -1.37032e-05 0.000852604)
(0.000316329 -0.00340196 -0.00216652)
(0.000388917 -0.000429145 0.000320414)
(0.000122885 0.000527932 -0.00208477)
(0.000259039 0.0010577 0.000272376)
(-0.000986034 4.73089e-05 -0.000800087)
(-0.00076459 0.000297879 0.000273623)
(9.65453e-05 0.000398902 1.33065e-05)
(0.000350918 0.000653097 -0.00018512)
(-0.000157435 0.00055974 0.000358991)
(0.000528367 -0.000417767 0.00518865)
(-0.000751148 -0.000358565 0.00294323)
(9.59869e-05 0.00107151 0.000106378)
(-0.00064162 0.00017059 0.00021366)
(-0.00053945 -0.000470799 -0.00383136)
(0.00063463 -0.000563166 0.000312672)
(0.000380373 0.000250897 0.00019967)
(-0.000547125 0.000615699 3.65911e-05)
(0.000340691 -0.000430921 0.000267504)
(-0.000717462 -4.22777e-05 0.000202209)
(6.55378e-05 -3.95884e-05 0.00462489)
(0.000908048 0.000828749 0.00072306)
(0.00057532 -0.000495254 0.000171657)
(0.00198966 0.000953558 -0.00016882)
(-0.000569603 -0.000114979 -0.00105497)
(-8.90579e-05 6.82196e-05 0.0034653)
(-0.000201122 0.000710764 0.000355498)
(-0.000460637 -0.000139647 -0.00276554)
(0.000177661 -0.000397605 0.000218265)
(-0.00021253 1.76221e-05 0.00597762)
(-0.000665224 1.94309e-05 -0.000206139)
(0.000164134 -0.000386615 -0.00103366)
(0.000381866 0.000386854 -0.000784555)
(-0.000673416 0.00110596 0.000375796)
(-0.000617989 -0.00187185 -0.00211492)
(0.000329612 -0.000242875 0.000264272)
(-0.000449263 -0.000509544 0.000285594)
(-0.000762532 -0.000351283 -0.000953722)
(0.000350105 -0.00152686 -0.00108191)
(0.000115367 -0.000259622 -0.00167075)
(-0.000373828 0.000372805 0.000300973)
(-0.000606869 -0.00102076 0.000279482)
(-0.0012206 -0.00116082 -0.00309634)
(-0.00799713 -0.00347501 -0.00178872)
(0.000266707 -0.000352889 -0.000219417)
(0.000488213 0.000604003 0.00224301)
(0.000877343 0.000806318 0.000311921)
(-0.000784946 -0.000115962 0.000221035)
(-0.000459275 0.00014459 -0.00119263)
(-0.000860497 -2.75593e-05 0.00243265)
(0.000274441 0.0010913 0.000301629)
(-6.76219e-05 -4.3373e-05 0.000309862)
(-0.000302702 0.000966586 0.000279408)
(0.000340431 -0.000271254 0.000264093)
(-0.000427613 0.000730869 -0.00432403)
(-0.000142497 0.000290776 -0.000916326)
(-0.000931073 -3.0991e-06 0.000271536)
(-0.000137374 -0.0001302 -0.00524839)
(-3.18011e-05 0.00022407 -0.000754711)
(-0.00030249 0.000196076 -0.00122403)
(0.000128689 -0.000531345 0.000274839)
(-0.000480334 3.48667e-05 0.00270824)
(-0.000229721 0.00046095 0.000119478)
(7.98426e-05 -2.12323e-05 -0.00206868)
(0.00073298 -0.000117091 0.000324727)
(0.000273706 0.0010625 0.000207768)
(-0.000236306 -6.37648e-05 -5.63265e-06)
(0.00032056 -0.000202652 0.000280068)
(-0.000191397 0.000104758 -0.00461542)
(0.000482387 -0.000286512 0.00539535)
(-0.00050196 2.66227e-05 0.000263294)
(-7.65991e-05 -0.000195687 0.000328089)
(0.000244654 0.000329686 -0.0024948)
(-0.000631078 -0.000276565 0.000339784)
(4.16531e-05 1.19909e-05 -0.00436953)
(-0.0011233 0.000225566 -0.000755658)
(-0.000841814 -3.80274e-05 -0.00183446)
(-0.000747612 0.00043398 0.000299698)
(-0.0004136 0.000412304 0.00019101)
(0.000147793 2.44364e-05 -0.00319807)
(0.000852731 -0.000760652 0.000343336)
(-0.000784267 4.59568e-05 -0.00100043)
(-6.68242e-05 0.000979153 0.00188182)
(0.000143614 0.000611815 0.000469066)
(-0.00106622 3.91731e-05 0.00133975)
(-0.000283598 -0.000266817 -0.00160456)
(-0.000627238 0.00040482 0.000233572)
(0.000301328 0.000806642 0.00154245)
(-0.000196204 0.000416344 0.000300849)
(-0.00104583 0.000240964 0.000307908)
(-0.000357871 0.000138907 -0.00614184)
(0.000343144 -0.00028675 0.000316428)
(0.000161687 0.00064143 -0.00105909)
(0.000241672 0.000605456 -0.00199793)
(0.000319568 -0.000415101 0.000399459)
(-0.000705476 7.601e-05 -0.000801302)
(0.000243889 0.000621815 0.000291828)
(-0.000430507 0.000556601 -0.00496044)
(-0.000458152 0.000135461 -0.00435123)
(-0.000543091 1.38702e-05 -0.00127437)
(-5.19853e-05 0.000386287 -0.000860963)
(0.000525795 -0.00184749 -0.0002921)
(-0.001205 0.000139315 0.000273689)
(0.00034501 0.000162463 0.000464256)
(-0.000289853 4.79836e-05 0.00157665)
(-2.10693e-05 0.000112917 -0.00595274)
(2.0423e-05 0.000195326 -0.00170739)
(-5.62773e-05 -0.000142198 -6.67485e-05)
(0.000342208 -0.000586427 -0.00478478)
(0.000152372 -8.46084e-05 0.0071391)
(-0.000300209 -5.33552e-06 0.000459766)
(-6.59595e-05 -0.000191847 -0.00345209)
(0.000493029 -0.000146096 0.000421687)
(-5.82054e-05 -7.72297e-05 -0.000838213)
(0.000296435 0.00061858 0.000238337)
(0.000646157 -0.000262001 0.0001978)
(-6.74796e-05 -2.6245e-05 -0.00154147)
(-2.93101e-05 0.000112786 0.000760701)
(7.96541e-05 -0.000501464 -0.000192866)
(-0.000340892 9.84007e-05 0.0014099)
(-7.58489e-06 0.00106267 -0.00179714)
(0.000724699 0.00132885 -0.00175214)
(-7.86769e-05 0.000375485 0.000274187)
(-0.000606933 -5.01149e-05 0.000440603)
(0.00398998 0.00212384 -0.000127774)
(-0.00100453 0.000213461 0.000123053)
(0.000457047 0.000293596 0.000216536)
(0.000158763 0.000456572 0.000129305)
(-0.000396354 -5.56798e-05 -0.00205924)
(-0.000798651 -0.000571015 0.00045945)
(-0.000403258 0.000162648 0.000302401)
(0.000770766 -0.00103823 0.000346132)
(0.000600823 0.000384178 -0.00331226)
(8.17906e-06 -0.00015351 0.000307599)
(-0.000240514 -7.97962e-06 0.000362765)
(0.000497654 -0.000544289 0.00140142)
(-0.000400268 -6.2894e-05 0.000714906)
(3.10139e-05 0.000859841 -0.00662369)
(-0.00033917 0.000175947 -0.0016606)
(0.000419176 -0.000354705 -0.00466962)
(-0.000585588 0.000664267 -0.00130048)
(-0.000324043 0.000157417 -0.000447753)
(0.000210051 0.000502907 -0.00174226)
(-0.00256206 -0.000491315 0.00291225)
(0.000418796 0.000279745 0.000241258)
(0.000375395 -0.000512205 -0.000917284)
(4.96458e-05 1.09193e-05 -0.000968294)
(-0.000649382 0.000240563 -0.000142768)
(-0.000274848 0.00182457 -0.00138027)
(-0.000293121 3.64149e-05 -0.00483044)
(0.000479847 -0.000403801 -0.00665753)
(-0.00122924 0.000328464 0.00683878)
(-0.00014924 0.000203894 -0.000802226)
(0.000177659 0.00117795 2.49196e-05)
(-0.000385408 -4.86668e-05 -0.00355149)
(-0.000747337 7.14402e-05 -0.000642718)
(-0.000480348 0.00122981 -0.00138368)
(0.0002246 -0.00111378 -0.0041729)
(0.000693663 -4.15951e-05 -0.00106388)
(-0.000835009 1.84854e-06 -0.00174211)
(0.00460018 0.00314797 -0.00312345)
(-0.000577803 0.000773316 0.000197155)
(-0.000461702 0.000160318 -0.000197795)
(-0.000535761 7.78025e-05 -0.000913199)
(0.000293213 0.000789882 -0.000955674)
(-0.000916739 2.29586e-05 0.000518762)
(-0.00124792 -0.00244707 -0.00137266)
(0.000224593 0.00054204 0.000176903)
(0.000165785 0.000744818 -0.000244638)
(-0.000175303 0.000359939 0.000265635)
(0.000232904 0.000106109 0.0020369)
(0.000708764 0.000651498 3.85505e-05)
(1.55805e-05 -2.03363e-05 -0.00158728)
(0.000595798 -0.000618527 0.000368846)
(-0.000462635 -0.000165044 0.000302713)
(-0.000497365 2.11437e-06 0.000393451)
(-4.85149e-06 2.78075e-05 -0.00520707)
(0.000504392 -0.000690923 0.000306305)
(-0.000669507 4.7056e-05 0.000298471)
(0.000512812 -0.000660532 0.000310947)
(0.000339114 -0.000438438 0.000209421)
(-0.000509763 0.000903207 -0.00228394)
(-0.000608587 0.000187387 0.00191676)
(-0.000137982 -0.00017597 0.000280355)
(-0.000350651 0.000150778 0.000270619)
(-0.000421544 3.35782e-05 -0.00638428)
(-0.000781758 0.000299608 -0.00359876)
(0.0001028 -0.000291027 -0.00414433)
(-0.000341693 0.000151711 -0.00262225)
(-0.000490362 -0.000141316 0.000261032)
(0.000334031 0.000557365 0.000244417)
(0.000155112 -7.96773e-06 -0.00321793)
(-0.000576026 0.000585365 0.000260617)
(-3.02595e-05 0.000402774 0.00267619)
(0.00192479 -0.00277153 -0.00122236)
(0.000194735 -0.000228884 0.000115147)
(-0.000421372 0.000180183 0.000289325)
(-0.000184652 0.00109533 0.000117433)
(-0.000608563 7.17234e-05 0.00252481)
(-0.000141562 0.00087542 0.000244995)
(-0.000313126 0.000964318 -0.00189093)
(0.000122741 0.000572763 -0.00212548)
(-0.000605482 0.00106081 -0.00102522)
(0.000339925 -0.000514065 -0.00308979)
(-0.000849045 0.000236257 -0.00427135)
(-8.77422e-05 -2.18409e-05 -0.000391911)
(-0.000386315 0.000166967 0.000234938)
(-0.000218925 -8.72367e-06 -0.00155109)
(-0.000164211 -0.000385616 -0.00639045)
(0.000710301 0.000762488 0.00461253)
(-1.31516e-05 -5.0322e-06 0.00668434)
(0.000203665 -0.000368151 0.000269829)
(0.000311536 0.000648915 0.000291942)
(-0.000358938 -1.1805e-05 -0.00132968)
(-0.000319306 0.000200671 0.000295363)
(-1.78067e-05 0.00051699 -0.00197466)
(0.00218425 0.000247733 0.000937601)
(-0.000258159 -0.000225265 0.000279378)
(0.000618978 -0.000118472 0.000306481)
(3.02028e-06 0.00122003 0.000426599)
(-0.000601943 1.98929e-05 0.000825268)
(-0.000633838 8.78169e-05 -0.00175021)
(-0.000322014 0.0010007 0.000337118)
(-0.000576876 0.000194948 -0.00191571)
(-0.000764889 1.78793e-05 0.000271574)
(0.0003766 -0.000341718 0.000315606)
(-0.000371463 0.00106691 0.000110157)
(-0.000705914 -0.00014841 0.000308166)
(-0.000294158 -0.000194129 0.000305346)
(0.000262095 0.00100934 -0.00218059)
(0.000243383 0.000532153 -0.00597273)
(-0.000171578 0.000186061 0.000702412)
(-0.000436377 0.00018696 -0.000195138)
(0.000958313 0.000885444 -0.000960089)
(-1.05497e-05 -0.000121386 -0.0031771)
(0.000184853 -0.000318452 0.000122778)
(0.000209003 0.000209864 -0.00512408)
(0.000490923 0.000304566 -0.0047928)
(0.000563565 0.00054628 0.00014782)
(-0.000669429 0.000225929 -0.00197993)
(-1.61734e-05 0.000736522 -0.000330977)
(-0.000102118 4.33648e-05 -0.00529566)
(-0.000216808 -0.000422321 0.000429824)
(-0.000821064 -9.68807e-05 0.000264935)
(-0.000597277 0.000673468 0.000375072)
(-4.33009e-05 -0.000148024 0.000417534)
(-7.60904e-05 -0.000578231 0.00013699)
(3.36716e-05 0.00111777 0.000311909)
(-1.20406e-05 0.000405006 0.000121698)
(9.74335e-05 0.000361196 0.00357909)
(0.00102272 0.000976282 -0.00149356)
(0.00027226 -0.000315348 -0.00164627)
(0.000463948 -0.000237166 -0.00174315)
(-0.00113535 0.000151846 -0.000748237)
(-0.00051284 0.000769557 -0.00160194)
(1.57839e-05 0.000275522 0.000854786)
(0.00146448 0.00176957 0.00043652)
(-0.000110622 0.00049883 -0.00094481)
(0.000201695 0.000438764 0.000427566)
(0.000230338 0.000644666 0.00031436)
(0.000435978 0.00159023 -0.00273043)
(-0.000250626 0.000975788 0.000241189)
(3.44881e-05 0.0002314 0.000101507)
(-0.00038486 0.000384562 0.00015149)
(8.11755e-05 -0.000115235 -0.00473726)
(0.000127931 0.000538688 0.000279015)
(6.62121e-05 -2.38302e-05 -0.00187731)
(-0.000368158 3.51293e-05 0.000360186)
(0.000338614 -0.000865349 0.000285291)
(0.000331874 -0.000454179 0.000309406)
(0.000310535 0.000673499 0.000294348)
(0.000335377 -0.000356675 -0.0013554)
(-8.48221e-05 -0.000662248 -0.00135705)
(0.000190365 0.000525689 0.000456247)
(-0.00069561 -0.000198211 -0.00130208)
(-9.74055e-06 0.000185999 0.00217304)
(-0.00132568 -0.00161681 0.000435748)
(0.002165 -0.00320877 0.000260383)
(0.00042067 -0.000459633 0.000420274)
(-0.00112426 2.7085e-05 -0.00212633)
(0.000125598 0.000539603 0.0010454)
(-0.000248583 0.000270454 -0.00186626)
(0.000466649 -0.000346865 -0.00170115)
(8.71435e-05 0.000406478 0.000497879)
(-0.000726053 -0.00012698 -0.00167029)
(-5.57942e-05 -7.80369e-05 0.000332357)
(0.000319816 -0.000521464 0.0035188)
(0.000136103 -5.16544e-05 -0.00656786)
(0.000565619 -0.000255125 -0.000795211)
(-0.000830879 6.70636e-05 0.00027513)
(-0.000471737 0.000634967 -0.000793016)
(-0.000498199 -8.84618e-05 0.000429013)
(-0.000260876 -0.000672231 -0.0054479)
(0.000853511 0.00138625 0.00158137)
(-1.33737e-05 0.000508178 -0.00215915)
(0.000505233 -1.51684e-05 0.00532505)
(0.000618732 -0.000807454 0.000227321)
(0.000279225 -0.000883004 0.00026172)
(0.000281626 0.000222107 -0.000178296)
(0.0027025 0.00264694 -0.000802079)
(0.00049336 -0.000748689 -0.00412789)
(-0.000648291 -0.00010294 -0.00218607)
(0.00177051 -0.0021771 -0.000857398)
(-0.000574348 0.000568492 -0.00102847)
(0.000400524 0.000259349 -0.00218364)
(0.000394558 -0.000501446 -0.00101342)
(-0.000500987 0.000168208 -0.00558597)
(-0.000196753 0.000398804 -0.000873476)
(-2.18417e-06 0.000188001 0.000132106)
(0.000396835 0.000388665 0.000326162)
(-5.37094e-05 4.26566e-05 -0.00305897)
(-0.000654911 0.000733148 0.00300916)
(-0.000463432 0.000454275 0.000249578)
(-0.000370949 -0.000119151 -0.000141657)
(1.96866e-05 -0.000270557 0.000427708)
(0.000637479 -0.000988131 0.0012503)
(0.000432564 -0.000587316 0.00221848)
(-0.00066326 -0.000600539 -0.00196784)
(0.00214491 -0.00317704 0.00024321)
(-0.000418624 0.000174497 0.00409191)
(-0.00011281 0.000179852 -0.000465079)
(0.000144136 0.000746374 0.000304012)
(-0.000557002 -0.000127274 -0.00128563)
(-0.000566945 -0.0001523 0.000269026)
(-0.000498045 0.000425185 0.000735768)
(-0.000518054 0.000167315 0.000199229)
(-0.000213458 -1.62994e-05 -0.00155619)
(0.000473915 0.00066386 -0.00364659)
(0.000593398 -0.000604337 -0.000301402)
(0.000216217 -0.00042169 -0.00362644)
(-0.000386034 0.000787297 -0.000767884)
(9.4513e-05 0.000344557 0.000305164)
(0.000339774 -0.000790293 -9.36549e-05)
(-9.08529e-05 -0.00034349 -0.00119667)
(-0.000831212 0.00019039 -8.49662e-05)
(-0.000703036 0.000244178 -0.000990221)
(-0.000341702 -3.40754e-05 0.000431798)
(0.000156493 -0.0002646 -0.00462569)
(-0.000443912 4.01456e-05 -0.00025652)
(-0.000584515 7.16089e-05 -0.000931943)
(0.000614921 -0.000504809 -0.00441198)
(0.000259831 -0.000991783 0.000310188)
(-0.00062513 0.000841189 0.000542092)
(0.000249649 -0.000297668 0.000373033)
(-5.29125e-06 0.000519388 0.0022077)
(0.000235946 -0.000466043 0.00089984)
(4.95943e-05 0.000373958 0.000233555)
(-0.000561026 -0.00012506 0.00247163)
(0.00016433 -0.000343554 0.00535295)
(0.000312735 -0.000161981 0.000275194)
(0.000697235 -0.000476374 -0.0012134)
(-0.000445281 1.43013e-05 0.000217099)
(0.000220775 -0.000392701 0.000206127)
(0.00110103 -0.000877112 0.000317278)
(-0.000757867 -0.000373365 -0.000558422)
(-0.00041975 0.000483719 0.0051943)
(-0.00115302 0.000167298 0.000633017)
(-0.00057171 0.000158812 -0.00252355)
(0.000325388 -0.000219255 0.000303223)
(-0.000175057 0.000609781 0.00039669)
(-0.000815524 0.000194998 -0.00166063)
(0.000343896 -0.000378526 -4.25323e-05)
(-0.000506846 0.00021603 -0.000393604)
(0.000333917 -0.000367168 0.000250934)
(-0.000491262 1.75847e-05 -0.00216088)
(-0.000364436 5.81884e-05 0.00299606)
(-0.00143681 0.00175341 0.00301488)
(-0.000420518 5.04169e-05 3.57732e-05)
(-0.00310372 -0.00260072 -0.00208746)
(-0.000625569 -0.000243794 0.000391795)
(6.78748e-06 0.000228102 0.000455381)
(-0.000864164 6.98828e-05 -5.99427e-05)
(-0.000519809 -3.00116e-05 0.000459452)
(-1.03455e-05 0.00039258 -0.00154428)
(-5.63293e-05 -0.000352144 6.86695e-05)
(0.00252024 9.9464e-05 -0.00151346)
(-0.000924244 0.000348621 -0.000938407)
(-4.53699e-05 3.72342e-05 -0.000399558)
(-0.00039699 -0.000101223 -0.00497374)
(-0.000737483 0.000295276 3.79653e-05)
(5.87453e-06 0.000494342 0.00266345)
(4.9937e-05 0.000510965 0.000227416)
(9.07573e-05 0.000967734 0.000245637)
(-0.0006398 0.000102759 -0.00156794)
(-0.000925959 4.28094e-05 0.00034198)
(-7.94976e-05 -0.000204465 0.000323461)
(9.05264e-05 -0.00056023 -0.00157368)
(-0.000541362 0.000537753 -0.00285204)
(-0.00072728 -2.02132e-06 0.00147729)
(-3.46522e-05 0.00114626 -0.00166662)
(0.000113267 -0.000219374 0.00142513)
(0.000278073 -0.000301358 0.00389035)
(0.000359777 0.000392625 -0.00372879)
(-1.2394e-05 0.000178054 0.000447531)
(-0.000586377 5.77096e-06 0.000418332)
(0.000864659 0.00196724 0.000112833)
(0.000166848 -0.000407698 0.000178383)
(-0.000660887 3.71989e-05 0.000298971)
(-0.000854724 0.000185936 0.000521)
(5.62722e-05 -7.75585e-05 0.0068875)
(-0.000285792 -8.94731e-05 0.002994)
(0.00134319 -0.00286917 -0.00255686)
(-1.19489e-05 0.000429826 -0.00203173)
(0.00083933 1.05635e-06 -0.00576307)
(-0.000136509 -5.22057e-05 -0.00405309)
(-0.000511783 0.000329289 0.000180595)
(-0.000517291 0.000580614 0.000419189)
(-0.000319005 -0.00026346 -0.000720441)
(0.000753 0.000692142 0.000588292)
(0.000477448 0.000101922 -0.00763083)
(-0.000559607 0.000561738 -0.00197021)
(-0.000728731 0.000110163 -0.000959697)
(-5.63599e-05 3.27598e-05 0.00482804)
(-0.000744253 -0.000332088 -0.00138648)
(0.000311031 0.000460839 0.000441645)
(0.000170001 0.00100383 -0.000894621)
(0.000313536 0.000623467 0.0002301)
(3.29691e-05 0.000172685 0.000283105)
(-0.000696531 3.09746e-05 -5.29827e-05)
(-0.000175476 -0.000249456 0.000720627)
(0.000254458 -0.000211144 0.000117668)
(-0.000594405 0.000128172 -0.00160142)
(-0.000758226 0.000436291 0.000282387)
(0.00017575 0.000713294 -0.00114207)
(-0.00233972 -0.000751797 0.00018799)
(-0.000500029 3.31972e-05 0.000356057)
(-0.000436167 0.000180886 0.000980748)
(-0.000853446 4.10617e-05 -0.00129172)
(-0.000181645 0.000352322 0.00276024)
(-7.70328e-06 0.00027433 0.000320149)
(-0.000257232 0.0108853 1.16451e-05)
(0.000388866 -0.000501118 0.00213175)
(0.000250088 0.000898728 0.000300143)
(-0.000558401 1.16439e-06 0.000285144)
(-0.000352921 -0.000292126 0.000457825)
(-0.000415488 0.000471237 0.000434938)
(0.000331934 -0.000442224 0.000296214)
(-5.24788e-05 -0.00046533 -0.00120684)
(0.000268827 0.000620001 0.000279739)
(-0.000265792 8.60541e-06 0.000222205)
(-0.000914265 0.000334257 0.000321727)
(0.000407286 0.000826644 -0.000619205)
(-0.000600578 -0.000654719 0.000307571)
(0.000494552 -9.20263e-05 0.00196018)
(0.000367069 -0.000341813 0.00229233)
(-0.000700464 -0.000333546 0.000239839)
(-0.00323568 -0.00044449 -0.00181836)
(-0.000683965 0.000606654 -0.00882653)
(0.000207064 -0.00105281 0.00131872)
(0.000326939 0.00124091 -0.00381499)
(-1.18653e-05 -0.000107773 0.000103075)
(-0.000281672 0.00102668 0.00265026)
(0.000385748 -0.00050672 -0.00254496)
(-0.00334143 0.00891188 0.000196137)
(0.000293089 0.000841788 -0.000711455)