/*--------------------------------*- C++ -*----------------------------------*\
| =========                 |                                                 |
| \\      /  F ield         | OpenFOAM: The Open Source CFD Toolbox           |
|  \\    /   O peration     | Version:  plus.master.MPPICInterFoam            |
|   \\  /    A nd           | Web:      www.OpenFOAM.com                      |
|    \\/     M anipulation  |                                                 |
\*---------------------------------------------------------------------------*/
FoamFile
{
    version     2.0;
    format      ascii;
    class       Cloud<basicKinematicMPPICParcel>;
    location    "9.2/lagrangian/kinematicCloud";
    object      positions;
}
// * * * * * * * * * * * * * * * * * * * * * * * * * * * * * * * * * * * * * //

16
(
(0.022835 0.0396907 0.528995) 2767
(-0.00262895 -0.0551245 0.508613) 2337
(-0.0496855 0.0061578 0.513081) 2048
(-0.0117205 0.0360054 0.561284) 7276
(-0.0526524 -0.00140174 0.510248) 2000
(-0.0516039 -0.00506521 0.515493) 2056
(-0.0524146 -0.000532331 0.514619) 2056
(-0.0569325 -0.0105149 0.515425) 2065
(-0.0567081 -0.00823369 0.517532) 2065
(0.0543962 -0.00860656 0.521567) 1769
(-0.0527686 -0.00434183 0.530188) 2112
(0.0477689 -0.00794912 0.551079) 1879
(-0.0495786 -0.00501315 0.554752) 2280
(0.00387225 0.047507 0.555424) 2951
(-0.00686547 0.0365607 0.573949) 7283
(-0.000256062 0.0221933 0.513635) 1385
)


// ************************************************************************* //
