/*--------------------------------*- C++ -*----------------------------------*\
| =========                 |                                                 |
| \\      /  F ield         | OpenFOAM: The Open Source CFD Toolbox           |
|  \\    /   O peration     | Version:  plus.master.MPPICInterFoam            |
|   \\  /    A nd           | Web:      www.OpenFOAM.com                      |
|    \\/     M anipulation  |                                                 |
\*---------------------------------------------------------------------------*/
FoamFile
{
    version     2.0;
    format      ascii;
    class       vectorField;
    location    "9.2/lagrangian/kinematicCloud";
    object      UCorrect;
}
// * * * * * * * * * * * * * * * * * * * * * * * * * * * * * * * * * * * * * //


16
(
(1.23855e-19 2.15231e-19 2.667e-34)
(-2.07603e-29 6.93089e-19 0)
(1.78816e-19 -4.59833e-20 -2.19456e-34)
(1.5083e-19 6.81012e-19 -1.98073e-23)
(-6.72063e-19 -1.02155e-30 1.13228e-37)
(-6.82745e-19 1.61109e-19 4.0701e-22)
(-6.78333e-19 1.21959e-19 2.56452e-22)
(2.14894e-23 1.23408e-19 1.86071e-19)
(-2.382e-19 3.44464e-19 1.86071e-19)
(1.97781e-19 -4.51423e-20 3.65875e-19)
(-2.49103e-19 -2.94909e-29 -3.69883e-19)
(4.13922e-20 2.44173e-19 4.69229e-19)
(-2.39918e-19 -3.65192e-20 -2.08389e-19)
(2.28452e-30 -1.95023e-31 -1.0714e-34)
(7.12531e-20 -3.1218e-19 1.08242e-19)
(-2.32017e-19 9.02292e-20 1.94351e-19)
)


// ************************************************************************* //
