/*--------------------------------*- C++ -*----------------------------------*\
| =========                 |                                                 |
| \\      /  F ield         | OpenFOAM: The Open Source CFD Toolbox           |
|  \\    /   O peration     | Version:  plus.master.MPPICInterFoam            |
|   \\  /    A nd           | Web:      www.OpenFOAM.com                      |
|    \\/     M anipulation  |                                                 |
\*---------------------------------------------------------------------------*/
FoamFile
{
    version     2.0;
    format      ascii;
    class       labelField;
    location    "10.8/lagrangian/kinematicCloud";
    object      origId;
}
// * * * * * * * * * * * * * * * * * * * * * * * * * * * * * * * * * * * * * //


352
(
2724
22250
1006
15785
4106
2114
30324
25851
9911
8912
12160
15237
858
27944
1655
7740
22432
25221
16297
175
4202
34208
10802
21842
2741
7056
9191
7648
22366
40490
35783
3971
28222
18727
15103
22503
22794
11006
8756
21003
536
4449
28453
9675
11821
43984
19503
19935
2979
5881
13843
16420
17780
24612
2869
2216
4566
13242
10145
8265
20113
22534
76
10656
17569
3896
35572
4257
3808
16253
11264
6528
873
44039
13125
41081
22052
11044
19655
6096
403
7690
36322
51635
10058
47999
52731
36468
2800
38354
31339
2615
14287
1466
48080
33533
20285
47902
11751
8353
29876
30523
37388
7272
5862
74730
165
89523
27932
53282
43958
30789
91401
12363
16008
33167
76130
27737
3506
15802
3992
16523
14349
64465
359
88832
2603
91283
2913
3645
66314
54231
88500
39158
32561
14074
51783
76063
49822
37893
83080
1188
30933
51251
76759
2765
36385
76956
35511
56392
77181
3432
55581
72678
24468
40678
1921
31164
26984
75144
5529
67956
83419
2041
79693
60138
49643
9665
68449
22084
47229
80081
76519
42429
45916
56602
42944
85733
84800
64016
75303
79866
3798
71603
53125
10170
43376
86998
3945
932
74585
66542
90189
67421
31849
86696
51638
799
44402
49552
91226
83995
47765
77894
44248
80514
56287
55896
65725
37721
92908
83050
87926
90561
61079
78494
39331
23604
83880
89470
20231
50085
73194
76590
78790
91400
66281
56953
13352
64823
41621
26588
73594
76497
81348
1427
59632
30088
85803
92804
77017
25927
88043
64174
18282
89159
41348
89349
80961
28182
42945
92146
22630
73127
73247
63753
88541
47406
30220
14308
83484
89043
21507
56537
89844
85098
91516
13502
73286
83777
21657
80155
3465
56216
80897
77686
36192
83004
76804
21478
94196
40068
4736
5439
130
70144
72607
82606
77006
77029
67169
76741
83522
45302
86604
80333
39518
66663
18117
87562
53482
30179
73575
72697
2587
723
55936
18645
60412
83211
82027
6479
90441
60258
88075
81833
78371
31122
76613
62677
80895
78313
67624
90938
65248
73848
81645
72928
53393
2006
81339
79559
49107
17747
70925
60917
74336
55631
45051
79987
93497
76669
90134
63319
59340
88415
57890
59762
89139
51939
21930
49916
)


// ************************************************************************* //
