/*--------------------------------*- C++ -*----------------------------------*\
| =========                 |                                                 |
| \\      /  F ield         | OpenFOAM: The Open Source CFD Toolbox           |
|  \\    /   O peration     | Version:  plus.master.MPPICInterFoam            |
|   \\  /    A nd           | Web:      www.OpenFOAM.com                      |
|    \\/     M anipulation  |                                                 |
\*---------------------------------------------------------------------------*/
FoamFile
{
    version     2.0;
    format      ascii;
    class       Cloud<basicKinematicMPPICParcel>;
    location    "10.8/lagrangian/kinematicCloud";
    object      positions;
}
// * * * * * * * * * * * * * * * * * * * * * * * * * * * * * * * * * * * * * //

352
(
(-0.0141461 -0.0390103 0.347674) 6302
(-0.0154808 -0.0390679 0.344557) 6302
(0.00448212 -0.041917 0.345098) 6318
(-0.015193 -0.0384519 0.357752) 6358
(-0.00972438 0.0427144 0.334554) 7223
(-0.00910088 0.0428338 0.335143) 7223
(0.00903063 -0.0419108 0.344095) 6326
(0.00918232 -0.0411287 0.344232) 6326
(-0.0447425 -0.00793281 0.344144) 5431
(0.0036903 -0.0431764 0.347743) 6318
(0.0022076 -0.0415261 0.347154) 6318
(-0.042715 -0.00795469 0.350874) 5430
(-0.0430011 0.00245342 0.348475) 5422
(0.00722306 -0.041033 0.361549) 6382
(-0.0413936 -0.0164483 0.343479) 5439
(0.00758624 -0.0413083 0.355986) 6382
(0.00651812 -0.0407237 0.368545) 6438
(-0.00927938 -0.0422535 0.346911) 6310
(-0.0302622 -0.0304763 0.345332) 6294
(-0.0134071 -0.0424148 0.345584) 6311
(-0.0425877 0.00230971 0.353746) 5478
(-0.0258198 -0.0342261 0.345313) 6294
(-0.041199 -0.0174374 0.345654) 5439
(-0.0402343 -0.0153238 0.353464) 5494
(-0.0407694 -0.0158841 0.350977) 5439
(-0.0424883 -0.00576875 0.350925) 5430
(-0.027529 -0.0337474 0.346967) 6295
(-0.0301746 -0.0307923 0.346866) 6294
(-0.044775 -0.00785277 0.348124) 5431
(-0.0101447 0.0413841 0.344058) 7270
(-0.0304704 -0.0298544 0.351117) 5446
(-0.00964266 -0.0420441 0.344368) 6310
(-0.0150885 -0.0402038 0.348598) 6302
(-0.00951438 -0.041546 0.355296) 6366
(-0.0081033 -0.0408907 0.358203) 6366
(-0.021567 -0.0373643 0.36044) 6358
(-0.0214074 0.0376205 0.336726) 7230
(-0.0419291 -0.00829285 0.354184) 5486
(-0.00544838 -0.0414768 0.371573) 6422
(-0.0413302 -0.0166048 0.346226) 5439
(-0.0416996 -0.0168429 0.349515) 5439
(0.00727631 -0.0407861 0.368541) 6438
(0.00500759 -0.0408545 0.379731) 6494
(-0.0432235 -0.00675755 0.351211) 5431
(-0.0422719 -0.00523323 0.360187) 5486
(-0.0115816 0.042779 0.347244) 7271
(-0.0325605 -0.0281731 0.347371) 5446
(0.00806046 -0.0447211 0.344173) 6327
(0.0153059 -0.0409471 0.347387) 6335
(-0.020655 -0.0378225 0.344781) 6302
(-0.0216108 -0.0379494 0.364501) 6415
(0.00515606 -0.0436646 0.360362) 6383
(0.00322405 -0.0434569 0.353786) 6374
(0.00365968 -0.0438312 0.354035) 6375
(0.0124474 -0.0411746 0.355371) 6382
(-0.0433784 0.00268021 0.351493) 5422
(0.00153481 -0.0404629 0.378996) 6486
(-0.0426565 -0.00803298 0.348457) 5430
(0.0102004 -0.0410217 0.366285) 6438
(-0.0252099 -0.0341776 0.359117) 6350
(-0.0106093 -0.0402846 0.376984) 6478
(0.0114074 -0.041227 0.3631) 6438
(-0.0106329 -0.0404294 0.373181) 6478
(0.000247647 -0.0441202 0.366604) 6431
(0.000307443 -0.0437305 0.359514) 6375
(-0.0119685 -0.0413544 0.35996) 6366
(-0.0154614 -0.0389247 0.37743) 6470
(0.0011349 -0.0427063 0.366674) 6430
(-0.00030865 -0.0455092 0.359361) 6375
(-0.0156786 -0.0387413 0.378453) 6470
(-0.0218707 -0.0374797 0.371676) 6414
(-0.0426327 -0.00673959 0.360214) 5486
(-0.0158442 -0.0387143 0.378167) 6470
(-0.000311451 -0.04488 0.36884) 6431
(-0.0220412 -0.0376007 0.371211) 6414
(-0.00576731 0.0501746 0.334515) 7224
(0.00284387 -0.042311 0.377007) 6486
(-0.0102588 -0.0402144 0.377139) 6478
(0.00289393 -0.042108 0.382465) 6486
(0.0116191 -0.0365918 0.418658) 6718
(0.0262687 -0.0412158 0.348982) 6343
(0.00131547 -0.0416932 0.383734) 6542
(0.000332493 0.0564817 0.340549) 7217
(0.00258818 0.0560174 0.34175) 7217
(0.00236836 0.0578032 0.344408) 7265
(0.00254829 0.057123 0.333808) 7217
(0.00448784 0.0538981 0.338071) 7216
(0.00576758 0.0585192 0.333599) 7217
(0.00694293 0.0574809 0.338254) 7209
(0.059402 0.000818916 0.336128) 4473
(0.0590444 -0.0020151 0.335943) 4473
(0.05856 0.000864096 0.335382) 4473
(-0.00176822 0.0568213 0.339211) 7217
(0.0614227 -0.00173483 0.345684) 4530
(0.0323013 -0.020857 0.43072) 4950
(0.0587773 -0.00174667 0.33538) 4473
(0.00314014 0.0561983 0.342551) 7217
(0.0568783 -0.00649772 0.344971) 4521
(0.012522 0.0553642 0.336809) 7209
(0.0130555 0.0555906 0.336247) 7209
(0.0040834 0.0580402 0.343376) 7265
(0.0160163 -0.0464249 0.367921) 6440
(0.0563351 -0.00638219 0.347992) 4521
(0.00483121 0.0577569 0.339) 7217
(-0.00568784 -0.0600117 0.353849) 6378
(-0.00503919 -0.0611972 0.346679) 6322
(0.060732 -0.00432435 0.334673) 4474
(-0.002736 -0.0643579 0.347805) 6322
(-0.00691367 0.0552797 0.34961) 7273
(-0.0007739 -0.0623784 0.343584) 6322
(0.0594225 -0.0042657 0.339748) 4473
(-0.00104793 0.0602709 0.34527) 7266
(0.00119296 -0.0638082 0.348118) 6322
(-0.00386856 -0.0472223 0.36459) 6431
(-0.057287 -0.00657409 0.352566) 5433
(0.00634942 0.0543506 0.351742) 7257
(0.00322457 -0.0589751 0.353374) 6377
(-0.000627699 0.0592585 0.341885) 7217
(0.0017092 -0.0574483 0.349308) 6321
(0.0596628 -0.00080911 0.344024) 4530
(0.0600657 -0.00749868 0.3476) 4522
(0.05821 -0.00428601 0.351427) 4529
(-0.0586735 -0.00791139 0.35403) 5489
(-0.00323329 -0.0622077 0.352921) 6322
(-0.00773015 -0.0594179 0.359639) 6370
(-0.007473 -0.0585098 0.358564) 6369
(-0.0589368 -0.00328229 0.359388) 5481
(0.00294073 -0.0618924 0.359178) 6378
(-0.060367 0.00205182 0.361395) 5482
(-0.00581231 -0.059806 0.363935) 6434
(-0.064934 -0.000289745 0.353728) 5482
(-0.0613443 -0.000233747 0.360246) 5482
(-0.063663 0.00262466 0.354624) 5482
(-0.0614576 0.00561524 0.355194) 5482
(-0.0636501 0.00268829 0.355661) 5482
(0.00150418 0.0633433 0.360226) 7322
(-0.0603705 0.0065661 0.356759) 5482
(-0.0582997 0.0161944 0.35493) 5474
(-0.0628765 0.0046643 0.35884) 5482
(0.00339458 0.0603484 0.358223) 7322
(0.00525717 -0.0603472 0.360446) 6378
(0.0585859 -0.00394812 0.358697) 4585
(-0.0624711 0.0059178 0.361136) 5482
(-0.0606366 -0.00984542 0.357994) 5490
(-0.0610812 -0.00846635 0.360368) 5490
(-0.0637992 -0.0122465 0.360756) 5490
(-0.0629176 0.00568092 0.363216) 5538
(-0.0584918 0.00997109 0.364045) 5529
(-0.0609344 -0.0108239 0.360441) 5490
(-0.0640941 -0.00268217 0.363524) 5538
(-0.0635652 0.016741 0.363262) 5531
(0.0611082 -0.00477859 0.369948) 4642
(-0.0588619 -0.00512334 0.366365) 5537
(-0.0609439 -0.00926743 0.36075) 5490
(-0.058057 0.0116012 0.362236) 5473
(-0.0584277 0.0124538 0.361796) 5474
(-0.0615371 -0.0099239 0.357431) 5490
(-0.0639111 0.0181882 0.360961) 5475
(0.0121485 0.0590538 0.357105) 7314
(-0.0593552 0.0204281 0.358817) 5474
(-0.0608045 0.0197097 0.359841) 5474
(-0.0580762 0.00856561 0.366607) 5529
(-0.0639889 0.0165165 0.363042) 5531
(-0.0599688 0.0136869 0.360907) 5474
(-0.0653122 -0.00257343 0.364015) 5539
(-0.060852 0.00605129 0.360362) 5482
(-0.0582224 0.0175587 0.36174) 5474
(-0.0647775 0.00570908 0.366649) 5538
(-0.0605465 -0.013508 0.362859) 5490
(-0.0624776 0.0134007 0.366131) 5530
(-0.063307 0.00470556 0.365404) 5538
(-0.0606702 0.0129334 0.365735) 5530
(-0.0613974 -0.00713846 0.366429) 5546
(-0.00562297 0.0553373 0.363694) 7377
(-0.0633948 -0.0079452 0.369388) 5546
(-0.0619337 0.00605019 0.365968) 5538
(-0.0577281 0.0149727 0.365178) 5530
(-0.00574518 -0.0596603 0.366157) 6434
(-0.0578333 -0.0152626 0.365712) 5546
(-0.0650571 0.0112695 0.373173) 5587
(-0.05912 -0.00488121 0.36698) 5537
(-0.0618212 0.00766091 0.369743) 5530
(-0.0584318 0.0160846 0.368405) 5530
(-0.0584227 -0.0137788 0.367321) 5546
(-0.0620571 -0.00203103 0.368933) 5538
(0.00790729 0.0593133 0.368617) 7370
(-0.0584588 0.01537 0.3702) 5530
(-0.0586796 0.00838986 0.375112) 5585
(0.0205936 -0.0327841 0.444642) 6894
(-0.0586428 0.00423567 0.368797) 5537
(-0.0608502 0.0067359 0.372484) 5538
(-0.0578294 0.0122995 0.371495) 5529
(-0.0570886 0.0138144 0.370806) 5529
(-0.0601437 0.00339283 0.368955) 5538
(-0.0612013 0.00320195 0.369216) 5538
(-0.056739 0.010074 0.372182) 5529
(-0.0582479 -0.00347052 0.373859) 5593
(-0.0594423 0.0120597 0.374925) 5586
(-0.0588741 0.0140154 0.369692) 5530
(-0.0608178 0.00637795 0.375628) 5594
(-0.0581954 0.0141986 0.369114) 5530
(0.0224862 0.0537129 0.366136) 7361
(0.0278538 0.052048 0.369377) 7361
(0.00515125 -0.0599423 0.372112) 6434
(-0.0585065 0.00772632 0.377122) 5585
(0.00909747 -0.0591852 0.373081) 6498
(-0.0596044 -0.000721542 0.370273) 5538
(-0.0016166 0.059716 0.371326) 7378
(-0.0618298 -0.00298258 0.375557) 5594
(0.00786662 -0.0577124 0.373552) 6497
(0.00748423 -0.0573624 0.374489) 6497
(-0.0586182 -0.00396949 0.375268) 5593
(0.00339301 -0.0601019 0.376171) 6490
(-0.0655581 0.00076098 0.364012) 5539
(0.00919493 0.0594707 0.373682) 7426
(-0.0604315 -0.00714028 0.373669) 5602
(-0.059169 0.00151617 0.371688) 5537
(-0.058596 0.00800908 0.374882) 5585
(-0.0587428 -0.00555324 0.375454) 5593
(-0.0625636 -0.00805246 0.37649) 5602
(-0.0663997 0.00383049 0.367327) 5539
(0.0117592 -0.0603998 0.377319) 6498
(-0.0623889 -0.011825 0.371948) 5546
(-0.0634799 0.00453316 0.371513) 5538
(-0.0677144 0.00370719 0.369745) 5539
(0.00355497 -0.0616118 0.377656) 6490
(-0.00216393 -0.0660541 0.368799) 6435
(-0.0684332 0.00102503 0.37183) 5539
(-0.0634574 -0.00734383 0.370675) 5546
(-0.0613589 -0.00627647 0.368296) 5538
(-0.0683101 0.000814165 0.373064) 5595
(0.0099241 -0.0642253 0.374525) 6498
(0.0196245 0.05465 0.378472) 7417
(-0.00547587 -0.0638321 0.374259) 6490
(0.00749391 -0.0588466 0.380189) 6497
(0.02201 0.0587763 0.375034) 7418
(0.00592329 -0.0617766 0.379295) 6490
(-0.00773715 -0.0636597 0.379666) 6482
(0.00689996 -0.0613652 0.374708) 6490
(0.00936967 -0.0643225 0.378421) 6498
(0.00620537 -0.0652198 0.379969) 6491
(0.00739367 -0.0624447 0.379534) 6498
(0.00734487 -0.0621271 0.378854) 6498
(0.0102166 -0.0639148 0.378502) 6498
(0.0582038 -0.00576293 0.371088) 4641
(-0.00148996 -0.0657226 0.377165) 6491
(-0.0636864 -0.000820939 0.377635) 5594
(0.0196598 0.0572854 0.380885) 7426
(-0.0626175 0.000747589 0.376768) 5594
(0.0123236 0.059387 0.37771) 7426
(0.000871157 -0.0647179 0.382483) 6490
(0.000417796 -0.0632619 0.382815) 6546
(0.00453597 -0.0634788 0.385515) 6546
(0.00224401 -0.0636317 0.385601) 6546
(-0.0610204 0.000800543 0.382614) 5594
(0.00761625 -0.0586192 0.389129) 6553
(-0.00564335 -0.0591859 0.38882) 6545
(-0.00466324 -0.0581187 0.385655) 6545
(0.00310868 -0.0606 0.389763) 6546
(0.00738763 -0.0587832 0.391369) 6553
(0.00880062 -0.0595816 0.395031) 6610
(-0.000516595 -0.0591022 0.38772) 6545
(-0.0011524 -0.0589877 0.387945) 6545
(-0.0584962 -0.00572192 0.386506) 5649
(-0.00495307 -0.0580711 0.390694) 6545
(0.0221965 0.0576442 0.39287) 7530
(-0.000256828 -0.0642365 0.388806) 6546
(0.00117547 -0.066057 0.39166) 6547
(0.00575606 -0.0627028 0.395609) 6602
(0.00575716 -0.0633105 0.395307) 6602
(-0.000387748 -0.0660073 0.391428) 6547
(0.00203778 -0.0620863 0.389456) 6546
(0.0061073 -0.0647977 0.396555) 6602
(0.00678328 -0.0623421 0.394499) 6602
(0.0220255 0.0574886 0.390817) 7474
(-0.0587748 -0.00542673 0.38732) 5649
(-0.0613497 -0.00600168 0.392817) 5706
(0.00854579 -0.0609109 0.395) 6610
(-0.00691883 0.0623944 0.392815) 7546
(-0.0634878 -0.00228913 0.392945) 5706
(-0.0052966 -0.0595348 0.394465) 6602
(0.000943036 0.0623593 0.389863) 7490
(-0.0129677 -0.0625219 0.396383) 6594
(0.0328344 0.0477953 0.401826) 7521
(0.0290514 0.0544759 0.406024) 7586
(-0.0571719 -0.00308364 0.405267) 5761
(-0.0027497 0.0595209 0.401859) 7545
(-0.0556673 -0.00485298 0.407638) 5761
(-0.0587427 -0.00320618 0.406935) 5761
(0.00920597 0.0591671 0.405521) 7594
(-0.0134811 -0.0668186 0.410254) 6651
(0.0349901 0.0496152 0.411499) 7578
(-0.0624029 -0.00828892 0.410736) 5770
(-0.0622939 -0.00262272 0.412021) 5762
(-0.00255491 -0.0581664 0.423915) 6769
(-0.0551868 -0.00118244 0.417952) 5817
(-0.0513945 0.00674109 0.419541) 5808
(-0.0618518 -0.0113334 0.419821) 5826
(-0.0551985 -0.000436341 0.424782) 5873
(-0.0541763 -0.0053425 0.426749) 5873
(-0.0618925 -0.00899188 0.42515) 5882
(0.0589846 -0.00861952 0.42389) 4969
(-0.0567422 -0.00515031 0.431166) 5873
(0.0241163 0.0393571 0.452333) 7863
(-0.0577783 -0.00719459 0.44294) 5993
(0.057775 -0.00909063 0.445064) 5081
(0.00819464 0.0574649 0.448005) 7817
(-0.00559654 0.0555833 0.449099) 7825
(0.01179 0.0540333 0.472116) 7985
(-0.0114911 -0.0185826 0.492431) 3472
(-0.0120853 -0.0179819 0.487722) 3408
(-0.0100434 -0.018697 0.481831) 3416
(0.00700125 0.055187 0.476622) 7985
(0.000476898 0.0550669 0.476985) 7993
(0.0108383 0.0545203 0.478018) 7985
(-0.0129639 -0.0177033 0.479125) 3352
(-0.0118448 -0.0179783 0.471886) 3304
(0.0124688 0.0529354 0.479685) 7985
(-0.0104383 -0.0185871 0.462627) 3304
(0.00580342 0.0555613 0.47994) 7993
(0.00451767 0.0563161 0.48053) 7993
(-0.0119589 -0.0177608 0.459155) 3248
(0.00574648 0.0561174 0.480778) 7993
(0.00571366 0.0567074 0.481591) 7993
(-0.0110398 -0.0179797 0.451317) 3192
(0.00812783 0.055686 0.481842) 8041
(0.00747433 0.0555678 0.482374) 8041
(0.00517963 0.0577499 0.483224) 8049
(0.00903695 0.0549456 0.482683) 8041
(0.00532618 -0.0573371 0.483791) 7105
(0.00622971 0.0551204 0.483874) 8041
(0.0087832 0.054789 0.484378) 8041
(-0.0117046 -0.0173485 0.427241) 3079
(0.00272291 0.0557405 0.486263) 8049
(0.00457486 0.0552461 0.487575) 8049
(0.000321853 0.0533963 0.489232) 8048
(0.00362658 0.0539774 0.489227) 8048
(-0.00111144 0.0526379 0.489658) 8048
(0.00191989 0.0543955 0.490462) 8049
(-0.00930531 0.0228787 0.415527) 3993
(0.00223633 -0.0554571 0.492807) 7161
(-0.0119139 -0.0167591 0.381973) 2791
(-0.0105928 -0.0175368 0.380531) 2799
(-0.00161061 0.0523645 0.495707) 8104
(0.000968045 0.0549304 0.495947) 8105
(0.00313249 0.0558084 0.496193) 8105
(-0.0105049 -0.0168677 0.365994) 2743
(-0.00838072 0.0227281 0.360915) 3649
(-0.00596082 0.0542465 0.498222) 8105
(-0.00843099 0.0559652 0.499016) 8113
(-0.00472392 0.0539659 0.500448) 8104
(-0.0261375 0.00476663 0.34853) 1746
)


// ************************************************************************* //
