/*--------------------------------*- C++ -*----------------------------------*\
| =========                 |                                                 |
| \\      /  F ield         | OpenFOAM: The Open Source CFD Toolbox           |
|  \\    /   O peration     | Version:  plus.master.MPPICInterFoam            |
|   \\  /    A nd           | Web:      www.OpenFOAM.com                      |
|    \\/     M anipulation  |                                                 |
\*---------------------------------------------------------------------------*/
FoamFile
{
    version     2.0;
    format      ascii;
    class       scalarField;
    location    "4/lagrangian/kinematicCloud";
    object      age;
}
// * * * * * * * * * * * * * * * * * * * * * * * * * * * * * * * * * * * * * //


93697
(
4.00119
4.00117
4.00115
4.00113
4.00111
4.00109
4.00107
4.00106
4.00104
4.00102
4.001
4.00098
4.00096
4.00095
4.00093
4.00091
4.00088
4.00086
4.00084
4.00083
4.00081
4.00079
4.00078
4.00076
4.00075
4.00073
4.00068
4.00067
4.00065
4.00064
4.00063
4.00061
4.0006
4.00058
4.00057
4.00056
4.00054
4.00053
4.00052
4.0005
4.00049
4.00048
4.00047
4.00045
4.00044
4.00043
4.00042
4.00041
4.00039
4.00038
4.00037
4.00036
4.00035
4.00034
4.00033
4.00032
4.0003
4.00029
4.00028
4.00027
4.00026
4.00025
4.00024
4.00023
4.00022
4.00022
4.0002
4.00018
4.00017
4.00017
4.00015
4.00015
4.00014
4.00013
4.00013
4.00012
4.00011
4.00011
4.0001
4.00009
4.00008
4.00008
4.00007
4.00007
4.00006
4.00006
4.00006
4.00005
4.00005
4.00004
4.00004
4.00004
4.00003
4.00003
4.00003
4.00002
4.00002
4.00002
4.00001
4.00001
4.00001
4.00001
4
4
4
4
4.00023
4.00021
4.00019
4.00015
4.00011
4.00008
4.00006
4.00004
4.00002
4
3.99998
3.99997
3.99993
3.99991
3.99989
3.99986
3.99984
3.99983
3.99981
3.99979
3.99978
3.99976
3.99974
3.99973
3.99971
3.9997
3.99968
3.99967
3.99965
3.99963
3.9996
3.99959
3.99958
3.99956
3.99953
3.99952
3.99949
3.99948
3.99944
3.99942
3.99941
3.9994
3.99938
3.99936
3.99934
3.99932
3.99931
3.9993
3.99929
3.99927
3.99925
3.99924
3.99922
3.9992
3.99919
3.99918
3.99917
3.99916
3.99915
3.99914
3.99913
3.99912
3.99911
3.9991
3.99909
3.99909
3.99907
3.99906
3.99905
3.99904
3.99904
3.99902
3.99901
3.999
3.999
3.99899
3.99898
3.99898
3.99897
3.99896
3.99894
3.99893
3.99892
3.99892
3.99891
3.9989
3.99889
3.99889
3.99889
3.99888
3.99887
3.99887
3.99886
3.99886
3.99886
3.99885
3.99885
3.99884
3.99884
3.99883
3.99883
3.99883
3.99883
3.99883
3.99882
3.99882
3.99882
3.99882
3.99882
3.99882
3.99881
3.99881
3.99881
3.99881
3.99881
3.99881
3.99881
3.99909
3.99907
3.99905
3.99903
3.99901
3.99899
3.99897
3.99895
3.99894
3.99892
3.9989
3.99888
3.99886
3.99884
3.99881
3.99879
3.99877
3.99875
3.99873
3.99872
3.9987
3.99868
3.99866
3.99865
3.99863
3.99861
3.9986
3.99858
3.99856
3.99855
3.99853
3.9985
3.99845
3.99843
3.99842
3.9984
3.99839
3.99837
3.99836
3.99834
3.99831
3.9983
3.99827
3.99826
3.99824
3.99823
3.99821
3.99819
3.99817
3.99816
3.99815
3.99813
3.99812
3.99809
3.99807
3.99806
3.99804
3.99803
3.99802
3.99801
3.99799
3.99797
3.99796
3.99795
3.99794
3.99793
3.99791
3.9979
3.99789
3.99788
3.99787
3.99786
3.99785
3.99784
3.99783
3.99781
3.9978
3.99779
3.99778
3.99777
3.99776
3.99775
3.99774
3.99773
3.99772
3.99771
3.99769
3.99768
3.99767
3.99767
3.99766
3.99765
3.99764
3.99763
3.99762
3.99761
3.99761
3.9976
3.99759
3.99759
3.99758
3.99757
3.99757
3.99756
3.99755
3.99755
3.99754
3.99753
3.99753
3.99752
3.99752
3.99751
3.99751
3.9975
3.9975
3.99749
3.99749
3.99748
3.99748
3.99747
3.99747
3.99746
3.99746
3.99746
3.99745
3.99745
3.99744
3.99744
3.99744
3.99743
3.99742
3.99742
3.99742
3.99742
3.99741
3.99741
3.99741
3.9974
3.9974
3.9974
3.9974
3.9974
3.9974
3.99739
3.99739
3.99739
3.99739
3.99773
3.99771
3.99769
3.99767
3.99765
3.99763
3.99761
3.99759
3.99757
3.99755
3.99753
3.99751
3.99747
3.99742
3.9974
3.99738
3.99736
3.99735
3.99733
3.99731
3.99729
3.99727
3.99726
3.99724
3.99722
3.99721
3.99719
3.99717
3.99715
3.99714
3.99712
3.99709
3.99707
3.99705
3.99704
3.99702
3.99701
3.99699
3.99697
3.99696
3.99694
3.99693
3.99691
3.9969
3.99688
3.99686
3.99685
3.99683
3.99682
3.9968
3.99679
3.99678
3.99676
3.99675
3.99673
3.99672
3.99669
3.99668
3.99666
3.99663
3.99662
3.99661
3.99659
3.99658
3.99657
3.99655
3.99652
3.9965
3.99649
3.99648
3.99647
3.99645
3.99644
3.99643
3.99642
3.9964
3.99639
3.99638
3.99637
3.99636
3.99635
3.99634
3.99632
3.9963
3.99629
3.99628
3.99627
3.99625
3.99624
3.99623
3.99622
3.99621
3.99619
3.99618
3.99617
3.99615
3.99614
3.99613
3.99612
3.99611
3.9961
3.99609
3.99608
3.99607
3.99606
3.99605
3.99604
3.99603
3.99603
3.99602
3.99601
3.99599
3.99598
3.99597
3.99596
3.99596
3.99595
3.99593
3.99593
3.99591
3.99591
3.9959
3.99589
3.99589
3.99588
3.99588
3.99587
3.99586
3.99586
3.99585
3.99585
3.99584
3.99584
3.99583
3.99582
3.99582
3.99581
3.99581
3.9958
3.9958
3.99579
3.99579
3.99578
3.99578
3.99577
3.99577
3.99577
3.99576
3.99576
3.99575
3.99575
3.99575
3.99574
3.99574
3.99574
3.99573
3.99573
3.99573
3.99573
3.99572
3.99572
3.99572
3.99572
3.99571
3.99571
3.99571
3.9957
3.9957
3.9957
3.9957
3.9957
3.99569
3.99569
3.99569
3.99569
3.99569
3.99569
3.99569
3.99569
3.99569
3.99569
3.99569
3.99607
3.99605
3.99603
3.99601
3.99599
3.99597
3.99595
3.99593
3.99591
3.99587
3.99586
3.99584
3.99582
3.9958
3.99578
3.99576
3.99574
3.99572
3.99571
3.99569
3.99567
3.99565
3.99563
3.99562
3.9956
3.99558
3.99556
3.99554
3.99553
3.99551
3.99549
3.99544
3.99542
3.99541
3.99539
3.99537
3.99536
3.99534
3.99532
3.99531
3.99529
3.99527
3.99524
3.99522
3.99521
3.99519
3.99518
3.99516
3.99514
3.99513
3.99511
3.9951
3.99508
3.99507
3.99505
3.99504
3.99502
3.99501
3.99499
3.99498
3.99496
3.99493
3.9949
3.99489
3.99488
3.99486
3.99485
3.99483
3.99482
3.99481
3.99479
3.99478
3.99477
3.99475
3.99474
3.99473
3.99471
3.9947
3.99469
3.99467
3.99466
3.99465
3.99463
3.99462
3.9946
3.99458
3.99457
3.99455
3.99454
3.99452
3.9945
3.99449
3.99448
3.99446
3.99445
3.99444
3.99443
3.99442
3.99441
3.9944
3.99439
3.99437
3.99436
3.99434
3.99433
3.99432
3.9943
3.99429
3.99426
3.99425
3.99424
3.99422
3.99421
3.9942
3.99419
3.99418
3.99417
3.99416
3.99415
3.99414
3.99413
3.99412
3.99411
3.99408
3.99408
3.99407
3.99405
3.99404
3.99404
3.99403
3.99402
3.99401
3.994
3.994
3.99399
3.99398
3.99397
3.99397
3.99396
3.99395
3.99395
3.99393
3.99393
3.99392
3.99391
3.9939
3.99389
3.99389
3.99388
3.99387
3.99386
3.99386
3.99385
3.99384
3.99384
3.99383
3.99383
3.99382
3.99382
3.99381
3.99381
3.9938
3.9938
3.99379
3.99379
3.99378
3.99377
3.99376
3.99376
3.99376
3.99375
3.99375
3.99374
3.99374
3.99373
3.99373
3.99373
3.99372
3.99372
3.99371
3.99371
3.99371
3.99371
3.9937
3.9937
3.99369
3.99369
3.99368
3.99368
3.99368
3.99368
3.99368
3.99367
3.99367
3.99367
3.99366
3.99366
3.99366
3.99366
3.99366
3.99366
3.99366
3.99366
3.99365
3.99365
3.99365
3.99365
3.99365
3.99365
3.99365
3.99365
3.99413
3.99411
3.99409
3.99407
3.99405
3.99403
3.99401
3.99399
3.99395
3.99393
3.99391
3.99387
3.99385
3.99382
3.9938
3.99376
3.99374
3.99372
3.99367
3.99365
3.99363
3.99361
3.99359
3.99358
3.99356
3.99354
3.99352
3.9935
3.99349
3.99347
3.99345
3.99342
3.9934
3.99338
3.99336
3.99335
3.99333
3.99331
3.9933
3.99328
3.99326
3.99325
3.99323
3.99321
3.9932
3.99318
3.99316
3.99315
3.99313
3.99312
3.9931
3.99307
3.99305
3.99304
3.99302
3.993
3.99299
3.99297
3.99296
3.99294
3.99293
3.9929
3.99288
3.99287
3.99285
3.99284
3.99282
3.99281
3.99279
3.99278
3.99276
3.99275
3.99273
3.99272
3.99269
3.99268
3.99266
3.99265
3.99263
3.99262
3.99261
3.99259
3.99258
3.99257
3.99255
3.99254
3.99253
3.99251
3.9925
3.99249
3.99247
3.99246
3.99243
3.99242
3.99241
3.9924
3.99238
3.99237
3.99233
3.99232
3.99231
3.9923
3.99228
3.99226
3.99225
3.99224
3.99222
3.99221
3.9922
3.99219
3.99218
3.99216
3.99214
3.99213
3.99212
3.99211
3.9921
3.99207
3.99206
3.99205
3.99202
3.99201
3.992
3.99199
3.99198
3.99196
3.99193
3.99192
3.9919
3.99189
3.99188
3.99188
3.99187
3.99186
3.99185
3.99184
3.99182
3.99181
3.9918
3.99179
3.99178
3.99177
3.99176
3.99175
3.99174
3.99173
3.99172
3.99172
3.99171
3.99169
3.99168
3.99168
3.99165
3.99165
3.99163
3.99162
3.99162
3.99161
3.99159
3.99158
3.99157
3.99155
3.99155
3.99154
3.99153
3.99153
3.99152
3.99151
3.99151
3.9915
3.9915
3.99149
3.99148
3.99148
3.99147
3.99147
3.99146
3.99145
3.99144
3.99144
3.99143
3.99143
3.99142
3.99141
3.99141
3.9914
3.9914
3.99139
3.99139
3.99138
3.99138
3.99137
3.99137
3.99136
3.99136
3.99135
3.99134
3.99133
3.99133
3.99133
3.99132
3.99131
3.99131
3.9913
3.9913
3.9913
3.9913
3.99129
3.99129
3.99128
3.99128
3.99128
3.99128
3.99127
3.99127
3.99127
3.99126
3.99126
3.99126
3.99126
3.99126
3.99125
3.99125
3.99125
3.99125
3.99124
3.99124
3.99124
3.99124
3.99124
3.99124
3.99123
3.99123
3.99123
3.99123
3.99123
3.99123
3.99123
3.99123
3.99123
3.99123
3.99123
3.99123
3.99176
3.99174
3.99172
3.9917
3.99168
3.99164
3.99162
3.9916
3.99158
3.99156
3.99152
3.9915
3.99148
3.99146
3.99142
3.99139
3.99137
3.99135
3.99127
3.99125
3.99122
3.9912
3.99118
3.99116
3.99114
3.99113
3.99111
3.99109
3.99107
3.99105
3.99104
3.991
3.99098
3.99097
3.99095
3.99093
3.99091
3.99088
3.99086
3.99084
3.99083
3.99079
3.99078
3.99076
3.99074
3.99073
3.99071
3.99069
3.99068
3.99066
3.99061
3.99059
3.99056
3.99055
3.99053
3.9905
3.99048
3.99045
3.99043
3.99042
3.9904
3.99039
3.99037
3.99036
3.99034
3.99033
3.99028
3.99024
3.99022
3.99021
3.99019
3.99018
3.99016
3.99015
3.99012
3.9901
3.99009
3.99007
3.99006
3.99005
3.99003
3.99002
3.99
3.98999
3.98998
3.98995
3.98993
3.98992
3.98989
3.98988
3.98987
3.98985
3.98983
3.98981
3.9898
3.98979
3.98977
3.98976
3.98974
3.98972
3.9897
3.98968
3.98967
3.98966
3.98965
3.98962
3.98961
3.9896
3.98957
3.98956
3.98955
3.98954
3.98951
3.9895
3.98949
3.98948
3.98946
3.98944
3.98942
3.98941
3.98939
3.98938
3.98937
3.98936
3.98934
3.98933
3.98932
3.98931
3.9893
3.98929
3.98928
3.98927
3.98926
3.98925
3.98924
3.98923
3.98922
3.98921
3.9892
3.98919
3.98918
3.98917
3.98916
3.98915
3.98914
3.98913
3.98911
3.9891
3.98909
3.98908
3.98907
3.98905
3.98904
3.98903
3.98903
3.98902
3.98901
3.989
3.98899
3.98898
3.98897
3.98896
3.98895
3.98894
3.98893
3.98892
3.98891
3.98891
3.9889
3.98889
3.98887
3.98886
3.98886
3.98885
3.98884
3.98883
3.98883
3.98882
3.98881
3.9888
3.9888
3.98879
3.98877
3.98876
3.98875
3.98875
3.98874
3.98873
3.98873
3.98872
3.98871
3.98871
3.9887
3.98869
3.98868
3.98867
3.98867
3.98865
3.98865
3.98864
3.98864
3.98863
3.98862
3.98862
3.98861
3.98861
3.9886
3.9886
3.98859
3.98858
3.98858
3.98857
3.98857
3.98856
3.98855
3.98855
3.98854
3.98854
3.98853
3.98853
3.98852
3.98852
3.98851
3.98851
3.9885
3.9885
3.9885
3.98849
3.98848
3.98848
3.98847
3.98847
3.98847
3.98846
3.98846
3.98846
3.98845
3.98845
3.98844
3.98844
3.98844
3.98843
3.98843
3.98842
3.98842
3.98842
3.98841
3.98841
3.9884
3.9884
3.9884
3.9884
3.98839
3.98839
3.98839
3.98838
3.98838
3.98838
3.98838
3.98837
3.98837
3.98837
3.98837
3.98837
3.98836
3.98836
3.98836
3.98836
3.98835
3.98835
3.98835
3.98835
3.98835
3.98835
3.98835
3.98834
3.98834
3.98834
3.98834
3.98834
3.98834
3.98834
3.98834
3.98833
3.98833
3.98833
3.98833
3.98833
3.98833
3.98833
3.98833
3.98833
3.98833
3.98833
3.98891
3.98889
3.98887
3.98885
3.98883
3.98881
3.98879
3.98877
3.98875
3.98873
3.98871
3.98869
3.98867
3.98865
3.98863
3.98861
3.98859
3.98857
3.98856
3.98854
3.98852
3.98848
3.98846
3.98844
3.98842
3.98841
3.98839
3.98833
3.98831
3.98829
3.98828
3.98826
3.98824
3.98822
3.9882
3.98818
3.98813
3.98811
3.9881
3.98808
3.98804
3.98802
3.98801
3.98799
3.98797
3.98795
3.98794
3.98792
3.9879
3.98788
3.98787
3.98785
3.98783
3.98782
3.9878
3.98778
3.98777
3.98775
3.98773
3.9877
3.98768
3.98767
3.98765
3.98763
3.9876
3.98758
3.98757
3.98755
3.98753
3.98752
3.9875
3.98749
3.98747
3.98745
3.98744
3.98742
3.98738
3.98736
3.98734
3.98733
3.98731
3.9873
3.98728
3.98727
3.98725
3.98724
3.98722
3.98721
3.98719
3.98718
3.98716
3.98715
3.98713
3.98712
3.9871
3.98709
3.98707
3.98706
3.98704
3.98701
3.987
3.98698
3.98697
3.98696
3.98694
3.98693
3.98691
3.9869
3.98689
3.98687
3.98686
3.98684
3.98683
3.98682
3.9868
3.98679
3.98677
3.98676
3.98673
3.98672
3.98671
3.98667
3.98665
3.98664
3.98663
3.98661
3.9866
3.98658
3.98656
3.98655
3.98654
3.98652
3.98651
3.9865
3.98649
3.98647
3.98646
3.98645
3.98644
3.98642
3.98641
3.9864
3.98639
3.98638
3.98636
3.98635
3.98634
3.98633
3.98632
3.9863
3.98627
3.98626
3.98625
3.98623
3.98622
3.98621
3.9862
3.98619
3.98618
3.98617
3.98616
3.98614
3.98613
3.98612
3.98611
3.9861
3.98609
3.98608
3.98606
3.98605
3.98603
3.98601
3.986
3.98599
3.98598
3.98597
3.98596
3.98595
3.98594
3.98593
3.98592
3.98591
3.9859
3.98589
3.98588
3.98587
3.98586
3.98585
3.98584
3.98583
3.98582
3.98581
3.98581
3.9858
3.98579
3.98578
3.98577
3.98576
3.98575
3.98574
3.98573
3.98572
3.98571
3.9857
3.9857
3.98569
3.98568
3.98567
3.98566
3.98565
3.98564
3.98563
3.98563
3.98562
3.98561
3.9856
3.98559
3.98558
3.98558
3.98557
3.98556
3.98555
3.98553
3.98551
3.9855
3.98549
3.98548
3.98547
3.98547
3.98546
3.98544
3.98544
3.98543
3.98542
3.98542
3.98541
3.9854
3.98539
3.98539
3.98538
3.98537
3.98537
3.98536
3.98535
3.98535
3.98534
3.98533
3.98533
3.98532
3.98531
3.98531
3.9853
3.9853
3.98529
3.98528
3.98528
3.98527
3.98527
3.98525
3.98525
3.98524
3.98524
3.98523
3.98522
3.98522
3.98521
3.98521
3.9852
3.9852
3.98519
3.98519
3.98518
3.98518
3.98517
3.98517
3.98516
3.98516
3.98515
3.98515
3.98514
3.98514
3.98513
3.98513
3.98512
3.98512
3.98511
3.98511
3.9851
3.9851
3.9851
3.98509
3.98509
3.98508
3.98508
3.98507
3.98507
3.98507
3.98506
3.98505
3.98505
3.98505
3.98504
3.98504
3.98503
3.98503
3.98503
3.98502
3.98502
3.98501
3.98501
3.98501
3.985
3.985
3.98499
3.98499
3.98499
3.98499
3.98498
3.98498
3.98498
3.98497
3.98497
3.98497
3.98497
3.98496
3.98496
3.98496
3.98496
3.98495
3.98495
3.98495
3.98495
3.98495
3.98494
3.98494
3.98494
3.98494
3.98494
3.98493
3.98493
3.98493
3.98493
3.98493
3.98493
3.98493
3.98492
3.98492
3.98492
3.98492
3.98492
3.98492
3.98492
3.98491
3.98491
3.98491
3.98491
3.98491
3.98491
3.98491
3.98491
3.98491
3.98491
3.98491
3.98491
3.98491
3.98491
3.98565
3.98563
3.98561
3.98557
3.98555
3.98553
3.98551
3.98547
3.98545
3.98543
3.98539
3.98537
3.98535
3.98533
3.98531
3.98529
3.98526
3.98524
3.98522
3.9852
3.98518
3.98516
3.98514
3.98512
3.9851
3.98509
3.98507
3.98505
3.98503
3.98501
3.98499
3.98497
3.98494
3.98492
3.9849
3.98488
3.98486
3.98484
3.98481
3.98479
3.98477
3.98475
3.98474
3.98472
3.9847
3.98468
3.98466
3.98465
3.98463
3.98461
3.98459
3.98458
3.98456
3.98454
3.98452
3.98449
3.98444
3.98442
3.98437
3.98433
3.98432
3.9843
3.98428
3.98427
3.98425
3.98423
3.98422
3.98418
3.98417
3.98415
3.98413
3.98412
3.9841
3.98408
3.98407
3.98405
3.98402
3.984
3.98399
3.98397
3.98395
3.98394
3.98392
3.98391
3.98389
3.98387
3.98386
3.98384
3.98383
3.98381
3.98378
3.98376
3.98375
3.98373
3.98372
3.9837
3.98369
3.98367
3.98366
3.98364
3.98363
3.98361
3.9836
3.98358
3.98355
3.98354
3.98352
3.98351
3.98349
3.98348
3.98346
3.98345
3.98343
3.98342
3.9834
3.98339
3.98337
3.98334
3.98333
3.98332
3.9833
3.98329
3.98327
3.98326
3.98325
3.98323
3.98322
3.9832
3.98319
3.98318
3.98316
3.98315
3.98313
3.98312
3.98311
3.98309
3.98308
3.98307
3.98305
3.98304
3.983
3.98299
3.98297
3.98296
3.98295
3.98293
3.98292
3.98291
3.98289
3.98288
3.98287
3.98284
3.98282
3.9828
3.98279
3.98278
3.98277
3.98275
3.98274
3.98273
3.9827
3.98269
3.98268
3.98267
3.98263
3.98262
3.98261
3.98259
3.98255
3.98253
3.98252
3.98251
3.98249
3.98248
3.98246
3.98245
3.98244
3.98242
3.98241
3.9824
3.98239
3.98237
3.98236
3.98235
3.98234
3.98233
3.98232
3.98231
3.9823
3.98229
3.98226
3.98225
3.98223
3.98221
3.9822
3.98219
3.98218
3.98217
3.98216
3.98215
3.98214
3.98213
3.98212
3.9821
3.98209
3.98208
3.98207
3.98205
3.98204
3.98203
3.98202
3.98201
3.982
3.98199
3.98198
3.98197
3.98196
3.98195
3.98194
3.98193
3.98192
3.98191
3.9819
3.98189
3.98188
3.98186
3.98185
3.98184
3.98183
3.98182
3.98181
3.98181
3.9818
3.98178
3.98176
3.98175
3.98174
3.98173
3.98172
3.98171
3.9817
3.98169
3.98169
3.98168
3.98167
3.98166
3.98165
3.98165
3.98164
3.98163
3.98161
3.9816
3.98159
3.98158
3.98158
3.98157
3.98156
3.98155
3.98155
3.98152
3.98152
3.9815
3.98149
3.98149
3.98148
3.98147
3.98147
3.98146
3.98145
3.98145
3.98144
3.98143
3.98143
3.98142
3.98141
3.98141
3.98139
3.98139
3.98138
3.98137
3.98136
3.98135
3.98135
3.98134
3.98134
3.98133
3.98132
3.98132
3.98131
3.98131
3.98129
3.98128
3.98127
3.98126
3.98126
3.98125
3.98125
3.98124
3.98124
3.98123
3.98123
3.98122
3.98122
3.98121
3.98121
3.9812
3.9812
3.98119
3.98118
3.98118
3.98117
3.98117
3.98116
3.98116
3.98115
3.98115
3.98114
3.98114
3.98113
3.98113
3.98112
3.98112
3.98111
3.98111
3.98111
3.9811
3.9811
3.98109
3.98109
3.98109
3.98108
3.98108
3.98107
3.98107
3.98106
3.98105
3.98105
3.98105
3.98104
3.98104
3.98104
3.98103
3.98103
3.98103
3.98102
3.98102
3.98102
3.98101
3.98101
3.98101
3.981
3.981
3.98099
3.98099
3.98099
3.98098
3.98098
3.98097
3.98097
3.98096
3.98096
3.98096
3.98096
3.98095
3.98095
3.98095
3.98095
3.98094
3.98094
3.98094
3.98094
3.98094
3.98093
3.98093
3.98093
3.98093
3.98093
3.98092
3.98092
3.98092
3.98092
3.98091
3.98091
3.98091
3.98091
3.98091
3.98091
3.98091
3.9809
3.9809
3.9809
3.9809
3.9809
3.9809
3.9809
3.9809
3.9809
3.9809
3.98089
3.98089
3.98089
3.98089
3.98089
3.98089
3.98089
3.98089
3.98089
3.98089
3.98089
3.98089
3.98089
3.98089
3.98089
3.98089
3.98181
3.98179
3.98177
3.98175
3.98173
3.98171
3.98167
3.98165
3.98163
3.98161
3.98159
3.98157
3.98155
3.98151
3.98149
3.98147
3.98146
3.98144
3.98142
3.9814
3.98138
3.98136
3.98132
3.9813
3.98128
3.98126
3.98124
3.98121
3.98119
3.98117
3.98115
3.98111
3.98109
3.98108
3.98106
3.98104
3.98102
3.981
3.98098
3.98096
3.98093
3.98091
3.98089
3.98087
3.98085
3.98084
3.98082
3.9808
3.98078
3.98076
3.98073
3.98071
3.98069
3.98067
3.98066
3.98064
3.98062
3.98058
3.98057
3.98055
3.98053
3.98051
3.9805
3.98048
3.98046
3.98043
3.98041
3.98039
3.98038
3.98036
3.98034
3.98032
3.98031
3.98027
3.98026
3.98024
3.98022
3.9802
3.98019
3.98017
3.98015
3.98014
3.98012
3.9801
3.98009
3.98007
3.98005
3.98004
3.98
3.97999
3.97997
3.97995
3.97994
3.97992
3.97991
3.97989
3.97987
3.97986
3.97984
3.97982
3.97981
3.97978
3.97976
3.97974
3.97971
3.9797
3.97967
3.97965
3.97963
3.97962
3.9796
3.97959
3.97957
3.97956
3.97954
3.97952
3.97951
3.97949
3.97948
3.97946
3.97945
3.97943
3.97942
3.9794
3.97939
3.97937
3.97936
3.97934
3.97933
3.97931
3.97928
3.97927
3.97925
3.97924
3.97922
3.97921
3.97919
3.97918
3.97916
3.97915
3.97914
3.97912
3.97911
3.97909
3.97908
3.97905
3.97903
3.97901
3.97899
3.97896
3.97895
3.97894
3.97892
3.97891
3.97889
3.97888
3.97885
3.97884
3.97882
3.97881
3.9788
3.97878
3.97877
3.97876
3.97874
3.97873
3.97871
3.9787
3.97869
3.97867
3.97866
3.97865
3.97863
3.97862
3.97861
3.9786
3.97858
3.97857
3.97854
3.97852
3.9785
3.97849
3.97848
3.97847
3.97845
3.97844
3.97843
3.97841
3.9784
3.97839
3.97838
3.97836
3.97835
3.97833
3.9783
3.97828
3.97826
3.97825
3.97824
3.97823
3.97822
3.9782
3.97819
3.97818
3.97817
3.97816
3.97814
3.97813
3.97812
3.97811
3.97808
3.97807
3.97806
3.97805
3.97804
3.97803
3.97802
3.978
3.97799
3.97798
3.97797
3.97796
3.97795
3.97792
3.97791
3.97789
3.97788
3.97787
3.97786
3.97785
3.97784
3.97782
3.97779
3.97777
3.97775
3.97774
3.97773
3.97772
3.97771
3.97769
3.97768
3.97766
3.97765
3.97764
3.97763
3.97762
3.97761
3.9776
3.97759
3.97756
3.97755
3.97754
3.97753
3.97752
3.9775
3.97749
3.97748
3.97747
3.97746
3.97744
3.97744
3.97743
3.97741
3.9774
3.97738
3.97737
3.97736
3.97735
3.97734
3.97733
3.97732
3.97731
3.9773
3.9773
3.97729
3.97728
3.97727
3.97726
3.97725
3.97723
3.97722
3.97722
3.97721
3.9772
3.97719
3.97718
3.97717
3.97716
3.97715
3.97715
3.97713
3.97712
3.97711
3.9771
3.97709
3.97708
3.97707
3.97706
3.97706
3.97705
3.97704
3.97703
3.97702
3.97702
3.97701
3.977
3.97698
3.97698
3.97696
3.97695
3.97695
3.97694
3.97693
3.97692
3.97692
3.97691
3.97689
3.97689
3.97687
3.97686
3.97686
3.97685
3.97684
3.97684
3.97683
3.97682
3.97682
3.97681
3.9768
3.97679
3.97679
3.97678
3.97677
3.97676
3.97675
3.97674
3.97673
3.97673
3.97672
3.97671
3.97671
3.9767
3.97669
3.97668
3.97668
3.97667
3.97666
3.97665
3.97665
3.97664
3.97663
3.97663
3.97662
3.97661
3.97661
3.9766
3.97659
3.97659
3.97658
3.97658
3.97657
3.97657
3.97656
3.97655
3.97655
3.97654
3.97654
3.97653
3.97653
3.97652
3.97652
3.97651
3.97651
3.9765
3.9765
3.97649
3.97649
3.97648
3.97648
3.97646
3.97646
3.97645
3.97645
3.97644
3.97643
3.97642
3.97642
3.97641
3.97641
3.97641
3.9764
3.9764
3.97639
3.97639
3.97638
3.97638
3.97638
3.97637
3.97637
3.97636
3.97636
3.97636
3.97635
3.97635
3.97634
3.97634
3.97633
3.97633
3.97632
3.97632
3.97631
3.97631
3.9763
3.9763
3.9763
3.97629
3.97629
3.97629
3.97628
3.97628
3.97627
3.97627
3.97626
3.97626
3.97625
3.97625
3.97625
3.97625
3.97624
3.97624
3.97624
3.97623
3.97623
3.97623
3.97622
3.97622
3.97622
3.97621
3.97621
3.9762
3.9762
3.9762
3.97619
3.97619
3.97619
3.97619
3.97619
3.97618
3.97618
3.97618
3.97618
3.97618
3.97617
3.97617
3.97617
3.97617
3.97617
3.97616
3.97616
3.97616
3.97616
3.97616
3.97616
3.97616
3.97615
3.97615
3.97615
3.97615
3.97615
3.97615
3.97615
3.97615
3.97614
3.97614
3.97614
3.97614
3.97614
3.97614
3.97614
3.97614
3.97613
3.97613
3.97613
3.97613
3.97613
3.97613
3.97613
3.97613
3.97613
3.97613
3.97613
3.97613
3.97613
3.97613
3.97613
3.97613
3.97613
3.97613
3.97613
3.977
3.97698
3.97696
3.97694
3.97692
3.9769
3.97688
3.97684
3.97682
3.9768
3.97678
3.97676
3.97672
3.9767
3.97668
3.97661
3.97659
3.97655
3.97653
3.97645
3.97643
3.97641
3.97638
3.97636
3.97634
3.97632
3.9763
3.97628
3.97626
3.97624
3.97623
3.97621
3.97619
3.97617
3.97615
3.97613
3.97609
3.97608
3.97606
3.97604
3.97602
3.976
3.97598
3.97596
3.97595
3.97593
3.97591
3.97589
3.97587
3.97586
3.97584
3.97582
3.9758
3.97578
3.97576
3.97575
3.97573
3.97569
3.97568
3.97566
3.97564
3.97562
3.9756
3.97559
3.97557
3.97555
3.97553
3.97552
3.9755
3.97548
3.97545
3.97543
3.97541
3.97538
3.97536
3.97534
3.97532
3.97531
3.97529
3.97527
3.97524
3.97522
3.9752
3.97519
3.97517
3.97515
3.97514
3.97512
3.9751
3.97508
3.97507
3.97505
3.97503
3.97502
3.975
3.97498
3.97497
3.97495
3.97493
3.97492
3.97488
3.97487
3.97485
3.97484
3.97482
3.9748
3.97479
3.97477
3.97475
3.97474
3.97472
3.97471
3.97469
3.97467
3.97466
3.97464
3.97463
3.97461
3.97459
3.97458
3.97455
3.97453
3.9745
3.97448
3.97447
3.97445
3.97444
3.97442
3.9744
3.97439
3.97437
3.97436
3.97434
3.97433
3.97431
3.9743
3.97428
3.97427
3.97425
3.97424
3.97422
3.9742
3.97414
3.97413
3.97411
3.97408
3.97407
3.97405
3.97404
3.97403
3.97401
3.974
3.97398
3.97397
3.97395
3.97394
3.97392
3.97391
3.97389
3.97388
3.97386
3.97385
3.97384
3.97382
3.97381
3.97379
3.97376
3.97375
3.97374
3.97372
3.97371
3.97369
3.97368
3.97366
3.97365
3.97364
3.97362
3.97361
3.9736
3.97358
3.97357
3.97355
3.97354
3.97353
3.97351
3.9735
3.97349
3.97347
3.97346
3.97344
3.97343
3.97342
3.9734
3.97339
3.97338
3.97336
3.97335
3.97334
3.97331
3.9733
3.97328
3.97327
3.97326
3.97324
3.97323
3.97322
3.97321
3.97319
3.97318
3.97317
3.97315
3.97314
3.97312
3.97309
3.97305
3.97304
3.97303
3.97301
3.973
3.97299
3.97298
3.97296
3.97295
3.97294
3.97293
3.97292
3.9729
3.97289
3.97288
3.97285
3.97284
3.97283
3.97279
3.97277
3.97276
3.97275
3.97272
3.97271
3.9727
3.97269
3.97268
3.97266
3.97265
3.97264
3.97263
3.97262
3.97261
3.97259
3.97258
3.97257
3.97256
3.97255
3.97254
3.97253
3.97252
3.9725
3.97249
3.97248
3.97247
3.97246
3.97245
3.97244
3.97243
3.97242
3.9724
3.97239
3.97238
3.97237
3.97236
3.97235
3.97233
3.97231
3.9723
3.97228
3.97226
3.97225
3.97224
3.97223
3.97222
3.97221
3.9722
3.97219
3.97218
3.97217
3.97216
3.97215
3.97214
3.97213
3.97212
3.97211
3.9721
3.97208
3.97207
3.97206
3.97205
3.97203
3.97202
3.97201
3.972
3.97199
3.97198
3.97197
3.97196
3.97195
3.97194
3.97193
3.9719
3.9719
3.97189
3.97188
3.97187
3.97186
3.97185
3.97184
3.97183
3.97182
3.97181
3.9718
3.97179
3.97178
3.97178
3.97176
3.97175
3.97173
3.97172
3.9717
3.9717
3.97168
3.97167
3.97166
3.97165
3.97164
3.97164
3.97163
3.97162
3.97161
3.9716
3.97159
3.97158
3.97158
3.97157
3.97156
3.97155
3.97154
3.97154
3.97153
3.97151
3.9715
3.97149
3.97149
3.97147
3.97146
3.97145
3.97145
3.97144
3.97143
3.97142
3.97142
3.97141
3.9714
3.97139
3.97138
3.97137
3.97136
3.97136
3.97134
3.97133
3.97133
3.97132
3.97131
3.9713
3.9713
3.97129
3.97128
3.97128
3.97126
3.97125
3.97125
3.97124
3.97123
3.97123
3.97122
3.97121
3.97121
3.9712
3.97119
3.97119
3.97118
3.97117
3.97117
3.97116
3.97115
3.97115
3.97114
3.97113
3.97113
3.97112
3.97111
3.97111
3.97109
3.97109
3.97108
3.97108
3.97107
3.97106
3.97104
3.97104
3.97103
3.97103
3.97102
3.97101
3.97101
3.971
3.971
3.97099
3.97099
3.97098
3.97097
3.97097
3.97096
3.97095
3.97095
3.97094
3.97094
3.97093
3.97092
3.97091
3.9709
3.97089
3.97089
3.97088
3.97088
3.97087
3.97086
3.97086
3.97085
3.97085
3.97084
3.97084
3.97083
3.97083
3.97082
3.97081
3.97081
3.9708
3.9708
3.97079
3.97079
3.97078
3.97078
3.97078
3.97077
3.97076
3.97076
3.97075
3.97075
3.97074
3.97074
3.97073
3.97073
3.97072
3.97072
3.97072
3.97071
3.9707
3.9707
3.9707
3.97069
3.97069
3.97068
3.97068
3.97067
3.97067
3.97067
3.97066
3.97066
3.97065
3.97065
3.97064
3.97064
3.97064
3.97063
3.97063
3.97063
3.97062
3.97062
3.97061
3.97061
3.9706
3.9706
3.9706
3.9706
3.97059
3.97059
3.97059
3.97058
3.97058
3.97058
3.97058
3.97057
3.97057
3.97057
3.97056
3.97056
3.97056
3.97055
3.97055
3.97055
3.97054
3.97054
3.97054
3.97053
3.97053
3.97053
3.97053
3.97052
3.97052
3.97052
3.97052
3.97052
3.97051
3.97051
3.97051
3.97051
3.97051
3.9705
3.9705
3.9705
3.9705
3.9705
3.97049
3.97049
3.97049
3.97049
3.97049
3.97048
3.97048
3.97048
3.97048
3.97048
3.97048
3.97048
3.97047
3.97047
3.97047
3.97047
3.97047
3.97047
3.97047
3.97047
3.97046
3.97046
3.97046
3.97046
3.97046
3.97046
3.97046
3.97046
3.97046
3.97046
3.97045
3.97045
3.97045
3.97045
3.97045
3.97045
3.97045
3.97045
3.97045
3.97045
3.97045
3.97045
3.97045
3.97045
3.97045
3.97045
3.97045
3.97045
3.97045
3.97045
3.97169
3.97167
3.97165
3.97163
3.97161
3.97159
3.97157
3.97155
3.97154
3.97152
3.9715
3.97148
3.97144
3.97142
3.9714
3.97138
3.97136
3.97134
3.9713
3.97128
3.97126
3.97124
3.97122
3.9712
3.97118
3.97116
3.97114
3.97112
3.97111
3.97109
3.97107
3.97103
3.97101
3.97099
3.97097
3.97095
3.97093
3.97091
3.9709
3.97088
3.97086
3.97084
3.97082
3.9708
3.97074
3.97073
3.97071
3.97069
3.97067
3.97063
3.97061
3.9706
3.97058
3.97054
3.97052
3.9705
3.97048
3.97047
3.97045
3.97043
3.97041
3.97039
3.97037
3.97032
3.9703
3.97025
3.97023
3.97021
3.97019
3.97018
3.97016
3.97014
3.97012
3.9701
3.97009
3.97007
3.97005
3.97003
3.97002
3.97
3.96994
3.96993
3.96989
3.96987
3.96986
3.96984
3.96982
3.9698
3.96977
3.96973
3.96972
3.9697
3.96968
3.96965
3.96963
3.96961
3.9696
3.96958
3.96956
3.96955
3.96951
3.96949
3.96948
3.96946
3.96943
3.96941
3.96939
3.96938
3.96936
3.96934
3.96933
3.96929
3.96928
3.96926
3.96923
3.96921
3.96919
3.96916
3.96914
3.96913
3.96911
3.9691
3.96908
3.96901
3.969
3.96898
3.96897
3.96895
3.96893
3.96892
3.9689
3.96885
3.96882
3.96881
3.96879
3.96877
3.96876
3.96874
3.96873
3.96871
3.96868
3.96866
3.96863
3.96862
3.9686
3.96859
3.96857
3.96855
3.96854
3.96852
3.96851
3.96849
3.96846
3.96845
3.96843
3.96842
3.9684
3.96839
3.96837
3.96836
3.96833
3.9683
3.96828
3.96827
3.96825
3.96824
3.96822
3.96821
3.96819
3.96818
3.96816
3.96815
3.96813
3.96812
3.9681
3.96809
3.96807
3.96806
3.96804
3.96803
3.96801
3.968
3.96799
3.96797
3.96796
3.96794
3.96793
3.9679
3.96787
3.96786
3.96784
3.96783
3.96781
3.9678
3.96778
3.96777
3.96776
3.96774
3.96773
3.96771
3.9677
3.96769
3.96767
3.96766
3.96764
3.96763
3.96762
3.9676
3.96759
3.96756
3.96755
3.96752
3.96751
3.96749
3.96748
3.96747
3.96745
3.96744
3.96741
3.9674
3.96739
3.96737
3.96736
3.96735
3.96733
3.96732
3.96728
3.96727
3.96725
3.96724
3.96723
3.96719
3.96717
3.96715
3.96714
3.96712
3.96711
3.9671
3.96707
3.96706
3.96705
3.96703
3.96702
3.96701
3.967
3.96698
3.96696
3.96694
3.96693
3.96691
3.96688
3.96687
3.96686
3.96685
3.96683
3.96682
3.9668
3.96678
3.96677
3.96676
3.96675
3.96674
3.96671
3.9667
3.96669
3.96668
3.96666
3.96664
3.96663
3.96662
3.9666
3.96659
3.96657
3.96655
3.96653
3.9665
3.96646
3.96645
3.96643
3.96642
3.96641
3.9664
3.96638
3.96637
3.96636
3.96635
3.96634
3.96633
3.96632
3.96631
3.9663
3.96628
3.96627
3.96626
3.96625
3.96624
3.96623
3.96621
3.96619
3.96617
3.96616
3.96614
3.96613
3.96612
3.96611
3.9661
3.96609
3.96608
3.96607
3.96604
3.96603
3.96602
3.966
3.96599
3.96598
3.96597
3.96596
3.96595
3.96594
3.96593
3.96592
3.96591
3.9659
3.96589
3.96588
3.96587
3.96586
3.96585
3.96584
3.96583
3.96582
3.96581
3.9658
3.96579
3.96577
3.96576
3.96575
3.96574
3.96573
3.96572
3.96571
3.9657
3.96568
3.96567
3.96567
3.96566
3.96565
3.96563
3.96562
3.96561
3.9656
3.96559
3.96558
3.96557
3.96556
3.96555
3.96553
3.96552
3.96552
3.96551
3.9655
3.96549
3.96548
3.96547
3.96546
3.96545
3.96544
3.96543
3.96543
3.96541
3.9654
3.96539
3.96537
3.96536
3.96536
3.96535
3.96534
3.96533
3.96532
3.96531
3.9653
3.96529
3.96528
3.96527
3.96526
3.96525
3.96525
3.96524
3.96523
3.96522
3.96521
3.9652
3.96519
3.96517
3.96516
3.96515
3.96515
3.96514
3.96512
3.96511
3.9651
3.96509
3.96508
3.96508
3.96507
3.96506
3.96505
3.96504
3.96503
3.96502
3.96501
3.96501
3.965
3.96498
3.96497
3.96495
3.96494
3.96493
3.96492
3.96492
3.96491
3.9649
3.9649
3.96489
3.96488
3.96487
3.96487
3.96486
3.96485
3.96484
3.96483
3.96483
3.96482
3.96481
3.9648
3.9648
3.96479
3.96478
3.96478
3.96476
3.96476
3.96475
3.96474
3.96473
3.96472
3.96472
3.96471
3.9647
3.9647
3.96469
3.96469
3.96468
3.96467
3.96467
3.96466
3.96465
3.96465
3.96464
3.96464
3.96462
3.96462
3.96461
3.9646
3.96459
3.96459
3.96458
3.96457
3.96457
3.96456
3.96456
3.96455
3.96455
3.96454
3.96453
3.96453
3.96452
3.96452
3.96451
3.96451
3.9645
3.96449
3.96449
3.96448
3.96448
3.96447
3.96446
3.96446
3.96445
3.96445
3.96444
3.96443
3.96443
3.96442
3.96441
3.96441
3.9644
3.96439
3.96439
3.96438
3.96438
3.96437
3.96436
3.96436
3.96435
3.96434
3.96434
3.96433
3.96433
3.96432
3.96432
3.96431
3.96431
3.9643
3.9643
3.96429
3.96429
3.96428
3.96428
3.96427
3.96427
3.96427
3.96426
3.96426
3.96425
3.96425
3.96424
3.96424
3.96424
3.96423
3.96423
3.96422
3.96422
3.96421
3.96421
3.9642
3.9642
3.96419
3.96419
3.96419
3.96418
3.96417
3.96417
3.96417