/*--------------------------------*- C++ -*----------------------------------*\
| =========                 |                                                 |
| \\      /  F ield         | OpenFOAM: The Open Source CFD Toolbox           |
|  \\    /   O peration     | Version:  plus.master.MPPICInterFoam            |
|   \\  /    A nd           | Web:      www.OpenFOAM.com                      |
|    \\/     M anipulation  |                                                 |
\*---------------------------------------------------------------------------*/
FoamFile
{
    version     2.0;
    format      ascii;
    class       Cloud<basicKinematicMPPICParcel>;
    location    "4/lagrangian/kinematicCloud";
    object      positions;
}
// * * * * * * * * * * * * * * * * * * * * * * * * * * * * * * * * * * * * * //

93697
(
(-0.00675323 -0.0156589 0.000274894) 814
(0.0234423 -0.0273827 0.000257236) 860
(0.00226212 0.0774649 0.000278627) 2376
(0.00510112 -0.0485294 0.000312624) 2090
(0.0280231 -0.0606658 0.000278519) 2110
(-0.023691 -0.046576 0.000293695) 2075
(0.0210438 -0.0458977 0.000281212) 2107
(-0.00223973 0.0188575 0.000271141) 1110
(0.0229824 0.0408665 0.000262595) 2354
(-0.0152603 0.0065584 0.0215397) 589
(-0.00162902 0.0694811 0.000252538) 2374
(0.0307298 0.0525259 0.000283217) 2357
(0.0413677 0.0149876 0.000264803) 1546
(-0.0154233 -0.00736505 0.000268566) 565
(0.0311485 0.0171874 0.000280999) 292
(0.0589997 -0.00294018 0.000267156) 1532
(-0.0104483 0.0398024 0.000268007) 2377
(0.00608409 -0.0155527 0.000270622) 837
(-0.045782 0.0235384 0.000292627) 1795
(0.036013 0.0166334 0.000273758) 1545
(0.0207711 0.0646214 0.000289581) 2366
(-0.0234812 0.0233864 0.000301872) 531
(-0.00359059 -0.0961431 0.000279274) 3213
(-0.0445879 -0.0242814 0.000228735) 1827
(-0.0407654 -0.0239577 0.000292265) 1826
(0.0245313 -0.024757 0.000294716) 860
(-0.0111692 -0.0590104 0.000245568) 2085
(-0.0233553 0.0234604 0.00032059) 1139
(0.000815156 0.10094 0.000264159) 3494
(-0.0422579 -0.0247252 0.000286356) 1827
(0.0364839 -0.0227261 0.000342514) 1513
(-0.0221474 0.0254849 0.000248289) 1139
(0.0383732 -0.0144869 0.000293379) 1513
(-0.0369437 0.0178104 0.000277749) 1793
(-0.0219268 0.0208991 0.000298799) 530
(0.0105765 0.0366201 0.000279525) 1472
(0.0425976 0.0154411 0.000267864) 1546
(-0.000842147 0.0608881 0.000265064) 2373
(-7.76332e-05 0.070309 0.000295766) 2374
(-0.0367517 0.0262427 0.00029358) 1786
(-0.078618 -0.000244014 0.000256545) 1816
(0.0186352 -0.050975 0.000283007) 2107
(-0.0227119 -0.0412514 0.000280402) 2074
(0.0131233 0.0245016 0.000284928) 1097
(-0.0442183 0.0220892 0.000270662) 1795
(-0.0210992 0.0397078 0.000301473) 2386
(0.0345749 -0.0193129 0.000275495) 1513
(-0.00730384 -0.104359 0.0394711) 3327
(-0.00758755 0.0158412 0.000303455) 1126
(-0.0197214 -0.042729 0.000242461) 2074
(-0.0165508 0.0335789 0.000275921) 1475
(0.0430382 -0.0133714 0.000279969) 1522
(-0.0178631 0.0347353 0.000269705) 2385
(0.0221511 -0.0221769 0.000271105) 858
(-0.00322413 -0.0600517 0.000280489) 2093
(0.0349412 -0.0114504 0.000264809) 1367
(0.0216321 0.0417892 0.000242544) 2354
(0.0241794 0.023774 0.000284162) 299
(0.00167035 0.015764 0.000248401) 1109
(-0.0201528 0.0441231 0.000274979) 2386
(0.013905 0.059889 0.000276907) 2365
(0.0470283 -0.0138269 0.000306606) 1523
(0.0395757 -0.016084 0.000283867) 1513
(0.0408969 0.0119994 0.000270113) 1537
(-0.0229086 0.040419 0.0002759) 2386
(0.0188464 -0.00173242 0.00029979) 270
(-0.043278 -0.0258183 0.000295581) 1827
(0.00515849 0.100334 0.00205995) 3494
(0.0195999 0.0120866 0.000289433) 287
(-0.100886 -0.000614182 0.000279781) 2934
(0.0458058 -0.0148048 0.000267197) 1522
(0.0222855 -0.0222099 0.000292513) 250
(0.0237441 0.0239161 0.000316969) 1091
(0.0203221 0.0441782 0.000290046) 2354
(0.0208963 0.0390442 0.000241632) 2354
(0.0135037 0.0235976 0.000271497) 1097
(0.025562 -0.0256611 0.000312834) 860
(0.061307 -0.00101635 0.000289576) 1533
(-0.0154077 -0.0075003 0.000297382) 565
(0.0181841 0.0313394 0.000285808) 1471
(0.00374932 0.0214525 0.000253298) 1103
(0.00935332 0.0357756 0.00024418) 1472
(-0.0161655 -0.050191 0.00027032) 2083
(-0.0403334 0.0209507 0.000283018) 1794
(0.0266651 0.0194315 0.000272269) 299
(-0.0277184 0.023709 0.000271822) 1400
(0.0160842 0.0295257 0.000317132) 1099
(0.0267299 -0.0154168 0.000275949) 258
(0.00585487 0.0750049 0.000279332) 2375
(-0.0185266 0.00835126 0.000252867) 535
(-0.0339214 0.0133896 0.000272655) 1401
(-0.00530623 0.0192304 0.000274457) 1119
(0.0181441 0.0188773 0.000271467) 1088
(0.020449 -0.0504171 0.000262367) 2108
(-0.0427411 -0.02126 0.000258342) 1826
(0.0288046 -0.0149554 0.000277608) 259
(-0.0263786 -0.0269573 0.000307651) 1435
(0.0355992 0.015051 0.000282476) 1545
(-0.0797924 0.00487289 0.000257733) 1816
(-0.013045 0.0517179 0.000263484) 2379
(0.0158085 -0.00210791 0.000266713) 269
(-0.093888 0.00245764 0.000281735) 2932
(0.0137692 0.031395 0.000266118) 1100
(0.055471 0.00249048 0.000268146) 1532
(-0.027955 0.0105446 0.000271923) 538
(0.0246524 -0.00689889 0.000281703) 265
(-0.0387979 0.0208816 0.000298688) 1794
(-0.00101529 0.0725857 0.000272032) 2375
(-0.0211008 0.039717 0.000281657) 2386
(0.0373249 -0.0232223 0.000320681) 1514
(-0.0545004 0.0287949 0.000282943) 1797
(-0.0269505 0.0485338 0.000293246) 2388
(0.0363553 -0.0186887 0.000294884) 1513
(0.00122018 0.0896465 0.0854426) 11287
(-0.00180228 -0.0554131 0.000301041) 2092
(0.0374084 0.0140733 0.000284012) 1545
(0.0135309 0.0318311 0.000278139) 1100
(0.0216998 -0.0408279 0.000262652) 2106
(0.0184311 0.0211228 0.000273005) 1089
(-0.0489386 -0.0252983 0.00027877) 1828
(0.0276293 -0.00707328 0.00026658) 266
(0.021674 -0.0402898 0.000261542) 2106
(0.0530963 0.00331914 0.000291252) 1531
(0.00498243 -0.0494982 0.000304567) 2091
(0.0232453 -0.023299 0.000312881) 859
(-0.0231918 -0.0464172 0.000295788) 2075
(0.0287192 0.00911555 0.000292963) 282
(-0.0334081 0.0135072 0.000279607) 540
(0.0273025 0.0223117 0.000264255) 300
(0.00498576 -0.0941731 0.000306056) 3212
(0.0190005 0.026166 0.000280168) 1091
(0.0517835 0.0015093 0.000259807) 1531
(0.0254268 -0.0256378 0.000340354) 860
(0.0129651 0.0320239 0.000284679) 1100
(0.0233561 0.0432296 0.000261779) 2355
(0.0205924 0.0483337 0.000257135) 2355
(0.0283599 0.0148462 0.00027352) 291
(-0.00221425 0.0985647 0.0123661) 3493
(0.018529 0.037388 0.000272221) 2353
(0.00831303 -0.0208722 0.000283008) 847
(-0.000375792 0.071903 0.000267649) 2375
(-0.021749 0.0438272 0.0002599) 2387
(-0.0260915 0.026092 0.000330013) 1476
(0.015578 0.00111135 0.0142652) 325
(0.0295525 0.00849022 0.000277237) 283
(-0.0413611 -0.0236253 0.000285442) 1826
(0.00180758 0.018848 0.00031217) 1110
(0.0222809 -0.0222894 0.000265389) 858
(-0.0253482 -0.0255161 0.000329724) 812
(-0.0544281 0.0142056 0.000264184) 1804
(0.00521066 0.0264093 0.000275801) 1105
(-0.0432997 -0.0245509 0.000268832) 1827
(0.0254632 -0.0329851 0.000290019) 2113
(0.0156708 -0.0196761 0.000281773) 856
(0.0217698 0.0221779 0.000236801) 1090
(0.023634 -0.00290634 0.000331351) 264
(0.0239748 0.0419046 0.000260479) 2354
(0.0240167 -0.0266005 0.000289316) 860
(-0.0281877 -0.0142619 0.000263518) 571
(0.0162362 -0.048269 0.000255263) 2099
(-0.0426598 -0.023958 0.000266485) 1827
(0.0415053 -0.000496121 0.000268953) 1529
(-0.0067721 0.0154912 0.000268994) 1125
(-0.000943185 -0.0567604 0.000251817) 2092
(0.0179747 -0.04532 0.000262238) 2106
(-0.0184744 0.0388178 0.000267424) 2385
(0.0172459 -0.0171383 0.000253189) 247
(0.0153866 0.016452 0.00026626) 1087
(-0.0953441 -0.00369241 0.000298174) 2932
(0.00240168 0.0157521 0.000271261) 1101
(0.00909901 -0.0587465 0.000249775) 2100
(0.0152957 0.00843022 0.000262433) 285
(0.0254344 -0.025388 0.000288313) 252
(0.00108912 0.0157601 0.000267244) 1109
(-0.0502009 0.0218066 0.000261099) 1796
(0.0432587 -0.0154848 0.000290958) 1514
(-0.0169106 0.00796484 0.000255648) 534
(-0.0149602 0.0361099 0.000257808) 2385
(-0.020132 -0.0342833 0.000294842) 2073
(0.0157921 -0.00208522 0.000280081) 269
(-0.100856 -0.00169422 0.000281542) 2934
(-0.0288846 -0.0253434 0.000310841) 1833
(0.0351141 -0.00791907 0.00026396) 268
(0.0173503 0.0124398 0.000288109) 295
(-0.0433907 0.02104 0.000242971) 1794
(-0.0427386 0.0206974 0.000275898) 1794
(-0.0418804 -0.0246395 0.000285806) 1826
(-0.000448579 -0.0974237 0.000253308) 3213
(0.0352345 0.0205272 0.000290562) 1545
(0.0205041 0.0223764 0.000238611) 1090
(0.00246903 -0.0656729 0.000279626) 2094
(-0.0297625 -0.0547542 0.000288534) 2077
(0.0242704 -0.0241656 0.000314195) 252
(0.0352423 0.0213591 0.000276973) 1545
(0.0204819 0.0639265 0.000282909) 2366
(0.0143411 0.0271618 0.000258489) 1098
(0.0311879 0.058552 0.000286524) 2358
(-0.0260831 -0.0258414 0.000324361) 1406
(0.00481288 -0.0160971 0.00028348) 838
(0.000382326 -0.100745 0.000272755) 3214
(0.0284785 0.0205417 0.000257155) 300
(0.0479391 -0.0104319 0.000291832) 1523
(0.022084 0.0418037 0.000260718) 2354
(0.0385424 0.0130546 0.000304765) 1537
(0.00802917 -0.101992 0.0206688) 3270
(0.0449682 -0.00888905 0.000243403) 1522
(-0.022612 0.0226211 0.000305587) 1139
(-0.0202205 -0.0382052 0.000266112) 2073
(0.0278676 -0.0153861 0.000263428) 259
(0.0298184 -0.0166076 0.000283502) 260
(-0.000468741 0.0757046 0.000282699) 2375
(-0.0252872 -0.0459355 0.000290015) 2075
(-0.0656335 -0.0167354 0.00031528) 1822
(0.0233167 -0.0416444 0.00027994) 2106
(0.022715 0.022598 0.000330517) 299
(0.045582 -0.0127789 0.000296275) 1522
(-0.0440087 -0.025064 0.000277053) 1827
(0.0596449 0.00126876 0.000294768) 1533
(-0.0207832 0.0206882 0.000337246) 529
(-0.026819 -0.0241436 0.000259474) 580
(-0.0601702 -0.0177917 0.000257801) 1821
(0.0255334 -0.0256349 0.000321218) 860
(-0.0954145 0.00191021 0.000277049) 2932
(0.0121955 0.0507657 0.000260447) 2363
(-0.0242326 -0.0244181 0.000333381) 812
(-0.013156 -0.0272519 0.000288555) 818
(0.0221627 -0.025284 0.000281135) 859
(-0.0367959 0.0187733 0.000279896) 1793
(0.0157971 -0.0020862 0.000295296) 269
(0.00513352 -0.0959678 0.000295896) 3212
(-0.0649673 -0.0183078 0.000277351) 1822
(0.0179166 0.0213942 0.000271633) 1089
(-0.0238284 0.0238845 0.000288308) 1139
(0.0297723 -0.00699217 0.0002731) 266
(0.0354422 -0.023905 0.000328364) 1505
(-0.000698557 0.0935737 0.000280834) 3492
(0.00382104 0.0156733 0.000252486) 1101
(0.0157511 0.00103025 0.000226486) 269
(0.0209942 -0.0126264 0.000264121) 256
(0.0178933 -0.0373007 0.000292974) 2105
(-0.0257175 0.0256995 0.00032485) 1400
(0.0216023 -0.0227863 0.000264874) 858
(0.048117 -0.0111851 0.000290975) 1523
(-0.010571 0.026757 0.000266356) 1130
(0.0179035 0.0480785 0.000262782) 2355
(-0.0210999 -0.0396913 0.000282681) 2074
(-0.0746645 0.0285181 0.000314999) 1800
(0.00021013 0.0998528 0.00902847) 3494
(-0.019867 0.0442751 0.000273942) 2386
(0.0350764 0.0202136 0.000271704) 1545
(-0.0243821 0.0425522 0.000262536) 2387
(-0.0247424 -0.0427043 0.000292356) 2075
(0.036173 0.0167972 0.000282326) 1545
(0.0156367 0.00408694 0.000240368) 277
(-0.00735693 -0.0665341 0.000291943) 2094
(-0.0143996 -0.0306045 0.000250264) 820
(-0.0186983 0.038044 0.000293314) 2385
(0.00121223 -0.0968648 0.000276659) 3213
(-0.036814 0.0187839 0.000273198) 1793
(-0.0183937 0.0353703 0.000298238) 2385
(0.0280921 -0.0527254 0.000312565) 2109
(0.023247 -0.023443 0.000325381) 859
(-0.0363613 0.0180196 0.000297139) 1793
(-0.0266707 -0.0268846 0.000355137) 1435
(-0.0306946 0.01391 0.000282627) 540
(-0.0417774 -0.0246535 0.000279826) 1826
(0.0573131 -0.00132556 0.000262701) 1532
(0.0228098 -0.00525421 0.000259037) 264
(0.000299539 0.0734278 0.000263449) 2375
(-0.0147221 -0.017158 0.000316293) 807
(0.0355942 0.0189353 0.000281708) 1545
(-0.0238133 0.0238075 0.000333202) 531
(-0.0183818 0.0243497 0.000229614) 1138
(-0.0653582 -0.0347125 0.0002985) 1831
(0.0516787 0.00118821 0.000262341) 1531
(0.0180804 0.0182977 0.000234408) 1088
(-0.0145714 -0.0138409 0.000274503) 573
(0.020865 0.0362149 0.000286656) 2353
(0.0196267 -0.035262 0.000285022) 2105
(-0.0686967 -0.0184074 0.000274078) 1823
(0.0305566 -0.00183282 0.000325022) 275
(-0.0464701 0.0210924 0.000254402) 1795
(0.0123223 -0.0545744 0.000276227) 2100
(0.0220538 0.0387929 0.000304184) 2354
(0.0351599 -0.0106209 0.000252039) 1367
(0.0237866 0.040709 0.000280648) 2354
(-0.0242874 0.0433492 0.000312481) 2387
(-0.00242198 0.0395736 0.00025556) 2369
(-0.0399703 0.0210934 0.000289052) 1794
(-0.00289357 0.0157119 0.000308689) 1117
(-0.0333734 0.0137455 0.000303486) 540
(0.046887 0.0147428 0.000255742) 1539
(0.0221004 0.0219954 0.000273563) 298
(0.022825 0.0230419 0.000255672) 1091
(-0.0123833 0.0635295 0.00025382) 2381
(0.017554 0.0317835 0.000296496) 1471
(-0.00149281 0.0763703 0.00027541) 2376
(-0.0144781 0.0631276 0.000266659) 2381
(0.0247928 -0.031366 0.000282138) 2113
(-0.00518377 0.0195266 0.000294906) 1119
(0.013962 -0.0310357 0.000269664) 852
(0.0134054 -0.0269516 0.000306234) 850
(-0.0531596 -0.0280391 0.000286646) 1829
(0.0177199 -0.00229714 0.000321309) 270
(-0.0260313 -0.0226072 0.000245534) 580
(0.00653793 0.0330665 0.000294927) 1108
(-0.0183446 -0.0169776 0.000265858) 576
(-0.000887101 -0.0152366 0.0112862) 829
(-0.0413649 0.0211612 0.000284407) 1794
(-0.0473802 -0.023766 0.000243605) 1827
(-0.023644 -0.0415985 0.000266753) 2074
(0.0247614 0.02048 0.000251989) 299
(0.0234029 -0.0233483 0.000290707) 251
(-0.048348 -0.0264916 0.000274712) 1828
(-0.0199529 -0.045242 0.000257503) 2075
(0.00716948 -0.0956318 0.000251077) 3212
(-0.0654745 0.00940164 0.000267346) 1806
(0.0231914 0.0403968 0.000265797) 2354
(-0.0183829 -0.0360851 0.000302187) 2073
(0.0305224 -0.000379013 0.000317615) 275
(0.0217564 0.0413204 0.000236574) 2354
(-0.0176906 0.0518586 0.000264146) 2380
(-0.0251426 -0.0250559 0.000303938) 580
(0.0190637 -0.0417139 0.000283599) 2106
(-0.0409199 0.0209759 0.000274266) 1794
(0.0283701 -0.0142769 0.000280955) 259
(-0.0234416 0.0235645 0.000308429) 1139
(-0.0372903 -0.0203604 0.000294929) 1825
(-0.0167688 0.0203658 0.000281513) 1136
(0.0186616 -0.0111624 0.000236444) 255
(0.0188965 0.0310309 0.000282068) 1471
(-0.0967651 0.00676876 0.00794851) 2933
(-0.0310306 -0.0152742 0.000286652) 572
(0.00795286 0.0378258 0.000282248) 2361
(-0.0465567 0.0223491 0.000267381) 1795
(0.00325489 -0.0940449 0.000264165) 3212
(0.0402489 0.0144635 0.000259294) 1545
(-0.0489379 0.0268063 0.000257545) 1796
(-0.0263919 -0.0266148 0.000286356) 1435
(0.0177054 -0.0175637 0.000299201) 247
(-0.0148962 -0.0175406 0.000302013) 807
(-0.0176242 0.0438237 0.000262164) 2386
(-0.0125969 0.0245311 0.000260878) 1129
(0.0218222 0.0397902 0.000274127) 2354
(-0.00118836 0.0481384 0.00024411) 2370
(-0.023973 -0.0944641 0.000298316) 3205
(0.0248679 -0.0450346 0.000277458) 2107
(0.00396166 -0.0164214 0.000294188) 838
(0.0205264 -0.00423897 0.000289501) 263
(-0.0186974 -0.00913619 0.000298889) 567
(-0.0423376 0.0209655 0.000253597) 1794
(-0.0262546 -0.0261911 0.000297145) 1406
(-0.0372657 -0.0202036 0.000269438) 1825
(0.0256317 -0.015467 0.000288054) 258
(0.035251 -0.0100367 0.000234161) 1367
(0.0466243 0.0106258 0.000285173) 1538
(-0.023666 -0.0421373 0.00027106) 2074
(-0.00177907 -0.104446 0.0215693) 3271
(0.0585083 0.00103363 0.000274357) 1532
(-0.0216834 0.0432326 0.000257685) 2386
(-0.0213574 -0.0371702 0.000301733) 2073
(0.00147831 -0.0929335 0.000290876) 3212
(0.045594 0.000624585 0.000237071) 1530
(0.029748 -0.00602815 0.000304374) 266
(0.000779015 -0.059929 0.00027766) 2093
(0.0249413 0.00781045 0.000256879) 281
(-0.0147076 0.0352763 0.000280976) 1475
(0.0518039 -0.000712755 0.000318431) 1531
(0.00387463 -0.0923226 0.000323223) 3211
(-0.026094 0.0261199 0.000320395) 1476
(-0.0678742 0.00425235 0.000282967) 1814
(-0.0234242 -0.0422443 0.000284525) 2074
(-0.0820064 -0.00132844 0.000297924) 2929
(-0.0237559 0.040116 0.000273897) 2386
(0.0294251 0.00892576 0.000302226) 282
(-0.066164 0.00857377 0.000285831) 1806
(0.0363629 -0.0231102 0.000286935) 1505
(-0.0723584 0.000528951 0.000271872) 1815
(-0.0196266 -0.0463759 0.000255812) 2075
(0.0191842 0.0398038 0.000250386) 2354
(-0.0338167 0.0134445 0.000296153) 1401
(0.0222754 0.0228467 0.000336766) 1091
(0.0371717 0.0114822 0.000285253) 1537
(0.015563 -0.0533329 0.000263037) 2100
(0.0201152 -0.045446 0.000285611) 2107
(-0.0233026 0.0305143 0.000260595) 2393
(-0.0168684 0.0580636 0.000290999) 2381
(0.0275638 0.0214836 0.000290731) 300
(-0.0194452 -0.0369759 0.000281616) 2073
(-0.0260091 -0.0455585 0.000254895) 2075
(0.0243169 0.0244967 0.000316284) 1092
(0.00694094 0.0502724 0.000264913) 2363
(0.0136313 -0.0593311 0.00025826) 2101
(-0.0197613 -0.0439522 0.000279429) 2074
(0.00227463 -0.0935529 0.00030517) 3212
(0.0256401 0.022394 0.000298849) 300
(0.0192027 0.0374305 0.000292693) 2353
(-0.0243394 0.0425922 0.000271691) 2387
(0.013986 0.0140331 0.000305483) 1085
(-0.0442169 -0.0249211 0.000265222) 1827
(-0.0433343 0.0213859 0.000253559) 1794
(0.0424218 0.000391975 0.00029791) 1529
(-0.0433388 -0.0247212 0.000269454) 1827
(-0.0206712 -0.037166 0.000282965) 2073
(0.0440002 -0.0106592 0.000264035) 1522
(0.0368564 0.0167127 0.000286895) 1545
(-0.0925981 0.0010011 0.000288516) 2931
(0.0187438 -0.0200486 0.000264581) 857
(0.0215803 0.0217518 0.000291097) 1090
(-0.0242752 -0.0242565 0.000322349) 580
(0.0255571 0.025761 0.000342308) 1470
(-0.0977332 -0.00512504 0.0107956) 2933
(0.00455268 -0.0158066 0.000316527) 838
(7.39905e-05 -0.0973557 0.000271176) 3213
(-0.0258757 0.0247407 0.000274354) 532
(-0.0335549 0.0132133 0.000273119) 540
(-0.101429 -8.72404e-05 0.0547066) 3158
(-0.0442265 0.0243866 0.000278173) 1795
(-0.0131815 -0.0497971 0.000317066) 2083
(0.00129258 0.0944451 0.000264131) 3492
(-0.0410312 -0.0239667 0.000274236) 1826
(-0.0116805 0.0635549 0.000265658) 2381
(0.0259479 -0.0259852 0.000282326) 1441
(-0.102174 -0.00156567 0.000266149) 2934
(-0.0178424 0.0320096 0.000289897) 1475
(0.0390735 -0.00856611 0.000273438) 1521
(-0.019227 -0.0365576 0.000244527) 2073
(-0.00914284 -0.0165878 0.000282395) 814
(0.00123068 -0.0584779 0.000278852) 2092
(0.0362864 0.0164329 0.000261453) 1545
(0.0224424 0.0127469 0.000269692) 288
(0.0241615 0.0230029 0.000292773) 299
(-0.0246342 -0.0247254 0.000315587) 812
(-0.051176 -0.0227568 0.000247542) 1828
(-0.079174 0.000577236 0.000279811) 1816
(0.0190153 0.0373904 0.000269996) 2353
(0.018812 -0.0626476 0.00029096) 2102
(-0.0245886 0.0540469 0.00031044) 2388
(-0.0257497 -0.0257636 0.000305335) 1435
(0.00319343 0.063002 0.0002574) 2373
(0.0133949 0.0239507 0.000268141) 1097
(-0.0402309 0.0213432 0.000308324) 1794
(-0.0790599 0.00088222 0.000276559) 1816
(-0.0164254 -0.00993069 0.000292089) 566
(0.0178721 0.0933493 0.000313945) 3484
(-0.0285754 0.0236394 0.000247766) 1400
(0.0197425 -0.0426083 0.000301996) 2106
(0.0259122 -0.0259414 0.000281754) 1441
(-0.041939 -0.0248552 0.000301351) 1826
(0.00562945 0.0155714 0.000271386) 1101
(-0.0248828 -0.0248609 0.000314558) 580
(-0.0655815 0.0100648 0.000296467) 1806
(-0.0349266 0.0132947 0.000286037) 1401
(0.0231121 -0.0230954 0.00029969) 251
(0.00305999 0.0157136 0.000296001) 1101
(0.0256093 0.0257719 0.000306125) 1470
(-0.0251587 0.0250906 0.000284343) 532
(0.0172077 0.0390657 0.000302962) 2353
(0.0405985 0.0106393 0.000294974) 1537
(-0.0200533 -0.0342266 0.000293903) 2073
(0.0136478 0.0248006 0.000261576) 1097
(0.0460916 0.0130684 0.000275832) 1538
(-0.0153955 -0.00757287 0.000295532) 565
(0.0227004 0.0455633 0.000298715) 2355
(0.0101125 0.0172897 0.000256319) 1094
(0.0244069 0.0246085 0.000286378) 1092
(-0.0175363 0.008164 0.000239618) 534
(0.0209042 -0.0350142 0.000266052) 2105
(0.0455496 -0.0111335 0.000302735) 1522
(0.0464508 -0.012771 0.000270817) 1522
(-0.0432559 -0.0253518 0.00031505) 1827
(0.0413305 0.00182511 0.000302414) 1529
(-0.0942731 0.00386958 0.0333517) 3044
(-0.0432177 -0.024647 0.000276281) 1827
(-0.0241956 -0.0435745 0.000255733) 2075
(-0.0044066 -0.0927786 0.000271391) 3212
(-0.0250309 -0.0276106 0.000257589) 1435
(-0.0380541 -0.0202486 0.000272555) 1825
(-0.0874026 -0.00820329 0.000265417) 2930
(-0.0534352 0.0320097 0.000281589) 1797
(0.0195661 0.0349296 0.000285258) 2353
(-0.00580316 0.0212034 0.000293976) 1119
(0.062501 0.00138699 0.000260181) 1533
(-0.0642584 0.0129593 0.000277775) 1806
(0.0352173 -0.0185354 0.000283355) 1513
(-0.026445 0.0462814 0.000311099) 2387
(-0.0447159 0.0206173 0.000255911) 1795
(0.0224816 0.00390719 0.000305898) 280
(0.0360002 -0.000441751 0.000280131) 276
(-0.073767 0.00233524 0.000261808) 1815
(0.0149774 -0.0607097 0.000271902) 2101
(0.0518459 -0.00077692 0.000292945) 1531
(0.0358414 -0.0167174 0.000274714) 1513
(-0.024667 0.0246446 0.000278169) 532
(0.0210636 0.0368295 0.000287718) 2353
(0.0261382 -0.006918 0.000263814) 265
(-0.0272198 -0.0106012 0.000236372) 570
(-0.0234262 -0.0582677 0.000251189) 2077
(0.00642334 0.0298903 0.00027471) 1106
(0.000336419 -0.0591133 0.000322084) 2092
(-0.0538985 -0.0257122 0.000270163) 1829
(-0.0169811 0.0418154 0.000269033) 2386
(0.025461 -0.0257072 0.000279143) 860
(0.00840656 -0.0211406 0.000271288) 848
(0.0466102 0.0152689 0.000283575) 1539
(-0.0210161 -0.0365213 0.000318857) 2073
(0.0580255 -0.0013269 0.000279822) 1532
(-0.047559 -0.0242574 0.000277859) 1827
(-0.00814745 -0.0166824 0.000284635) 814
(-0.0249816 0.0248908 0.0003119) 532
(0.025204 -0.0252695 0.000302251) 860
(0.025888 -0.027339 0.000291415) 1441
(0.0256067 -0.0255722 0.000290383) 252
(0.0163882 0.0221442 0.000266617) 1089
(-0.0269494 -0.0245468 0.00026875) 1406
(-0.0196246 -0.0214983 0.000273022) 809
(-0.022174 0.0223209 0.000305344) 1138
(-0.0478034 0.0258698 0.000288622) 1796
(-0.0405779 -0.023365 0.000289641) 1826
(-0.0826754 3.32116e-05 0.000295248) 2929
(0.0133943 -0.060642 0.000275429) 2101
(0.00488158 0.100854 0.00365187) 3494
(0.0156374 -0.000890565 0.000754669) 269
(-0.0755401 0.00567061 0.000275336) 1815
(-0.0111818 0.0676444 0.000279947) 2382
(-0.0171947 -0.0363877 0.000294505) 2073
(-0.100604 0.00400955 0.000298653) 2934
(0.04566 0.0123848 0.000293694) 1538
(0.058699 -0.00303911 0.000277248) 1532
(0.0434585 -0.015476 0.0002713) 1514
(0.0404678 0.0129768 0.000257774) 1537
(-0.020449 0.0449157 0.000283965) 2387
(0.0567252 -1.01139e-05 0.000292941) 1532
(0.0180674 0.0584767 0.000288745) 2365
(-0.0765862 -0.00186857 0.000290896) 1816
(-0.0224437 -0.0409135 0.000264477) 2074
(-0.0117812 -0.0295089 0.000249512) 819
(0.0387096 0.013674 0.000315398) 1545
(0.0254081 -0.0255118 0.000333418) 860
(-0.0383401 -0.0202006 0.000293955) 1825
(-0.0292306 0.0246186 0.00026078) 1400
(-0.0481513 0.0249623 0.000230982) 1796
(-0.0244042 -0.0243153 0.000269617) 580
(-0.0219289 -0.0098038 0.000266173) 568
(-0.0222465 -0.0182052 0.000263325) 577
(0.0441381 -0.014607 0.000262955) 1522
(-0.0189056 -0.0382403 0.000246996) 2073
(0.0292487 0.00671936 0.000272588) 282
(-0.0142602 0.0267658 0.000265272) 1130
(0.0259033 -0.0153967 0.000275022) 258
(0.0226542 -0.0389352 0.000302233) 2106
(-0.00308928 -0.0972093 0.000296238) 3213
(-0.00339199 -0.100045 0.000290129) 3214
(0.0037673 -0.0450615 0.00027275) 2090
(0.00168907 0.101109 0.000265526) 3494
(-0.0161108 -0.00963819 0.00029023) 566
(-0.0385263 -0.019209 0.00027138) 1825
(-0.022327 0.0399086 0.000303533) 2386
(-0.0262266 -0.0262751 0.000318353) 1435
(0.0199335 -0.0197827 0.000256636) 249
(0.0420928 0.016606 0.000289595) 1546
(0.00153463 0.0716577 0.000284268) 2375
(-0.015449 0.00664481 0.000281809) 533
(-8.6875e-05 -0.0556337 0.000272949) 2092
(-0.0229394 -0.0229621 0.000319473) 811
(-0.0430464 -0.0257542 0.000293504) 1827
(-0.0171937 -0.0328847 0.000294289) 1436
(0.0583167 -0.00212197 0.000308994) 1532
(-0.0239026 -0.0507458 0.000282391) 2076
(0.0270081 -0.0465646 0.000285194) 2107
(-0.0241329 0.0239592 0.000296935) 531
(-0.0482289 -0.0246378 0.000305759) 1828
(-0.0114893 0.039099 0.000267857) 2377
(0.0017016 0.0373372 0.000255293) 1473
(0.0223294 0.0422447 0.000283203) 2354
(-0.043392 0.0230286 0.000288666) 1795
(-0.0389878 -0.0220485 0.000289703) 1826
(-0.039035 0.0205465 0.000264433) 1794
(0.00187798 -0.100753 0.000264844) 3214
(-0.0433802 -0.0257913 0.000288497) 1827
(0.0162353 0.0542807 0.000274203) 2364
(0.00311048 0.0766456 0.000291857) 2376
(-0.015421 -0.00738677 0.00027964) 565
(-0.0523911 -0.0239658 0.000266015) 1828
(-0.0387779 0.0208015 0.000307503) 1794
(0.0237224 0.0238739 0.000269095) 1091
(-0.0212156 -0.041023 0.000283166) 2074
(0.00202591 0.0157633 0.000275331) 1109
(-0.0121242 0.0567601 0.000266296) 2380
(-0.0600355 -0.0316056 0.000265092) 1830
(0.0319073 0.0101204 0.000316961) 283
(0.00338586 0.0927436 0.000289341) 3492
(-0.0252108 0.0250228 0.000299661) 532
(-0.0254265 0.0254265 0.000321407) 1140
(-0.0290113 -0.0251124 0.000282422) 1833
(0.023675 0.0237564 0.000334825) 1091
(0.0201742 -0.0346414 0.00025407) 2105
(0.0470571 -0.00931616 0.000260938) 1522
(0.00718183 -0.0191751 0.000305037) 839
(-0.00931125 -0.016542 0.00028631) 814
(-0.0020881 0.0997214 0.00321293) 3494
(-0.0261051 -0.0260719 0.000321559) 1406
(-0.0223568 0.0512207 0.000257558) 2388
(0.024279 0.0407227 0.00026615) 2354
(-0.0259113 -0.0259091 0.000323137) 1406
(0.017025 0.0168701 0.000251329) 295
(-0.0617274 0.0159083 0.000288921) 1805
(0.0473169 -0.010134 0.000280991) 1522
(-0.00430202 0.0156332 0.000293281) 1117
(0.021757 -0.044628 0.000261181) 2107
(-0.0249645 -0.0250056 0.000286907) 812
(-0.0270801 0.0459085 0.000314066) 2387
(0.0231316 0.0280368 0.000295171) 1470
(0.00707199 -0.0550817 0.000276865) 2100
(0.00118188 0.0731796 0.000260503) 2375
(-0.0229778 -0.023017 0.000318633) 811
(0.063028 -0.000951249 0.000266148) 1533
(0.0225595 -0.0390623 0.00029377) 2106
(0.0257846 -0.0465005 0.000245465) 2107
(-0.0783597 -5.11699e-05 0.000264273) 1816
(0.000334415 0.0598094 0.000291029) 2373
(-0.0233403 0.0509465 0.000261254) 2388
(-0.0154187 -0.00738027 0.000278444) 565
(0.00288691 -0.0164405 0.00027493) 838
(-0.0539635 -0.0227132 0.000285268) 1828
(0.0396266 -0.00988295 0.000272252) 1521
(-0.000311567 -0.0962545 0.000256547) 3213
(-0.0197252 -0.0403115 0.000274962) 2074
(0.0159685 0.0588853 0.000272737) 2365
(0.0414805 -0.00751692 0.000296271) 1521
(0.0354051 0.0187895 0.000266869) 1545
(0.0239785 -0.000966149 0.00645269) 272
(0.0431465 -0.0172502 0.000294284) 1514
(-0.0813865 -0.000404038 0.000255887) 1816
(-0.0247075 -0.0293687 0.000263508) 2065
(-0.0641708 0.0291803 0.000288745) 1798
(-0.0500796 0.0219508 0.000272707) 1796
(0.0266754 -0.034458 0.000319953) 2114
(-0.0317515 0.0604382 0.000277737) 2390
(-0.0610186 0.0140632 0.000298712) 1805
(0.0157674 -0.00205125 0.000274844) 269
(0.0228333 0.022893 0.000304625) 1091
(0.0479141 0.0109575 0.000287201) 1539
(-0.0792332 0.0030556 0.000253755) 1816
(-0.0193205 0.0349996 0.00027442) 2385
(0.0524802 0.00337126 0.000263246) 1531
(0.0362037 -0.0230256 0.000263225) 1505
(-0.0101366 0.0581037 0.000264082) 2380
(0.0198288 0.0445766 0.000310511) 2355
(0.017808 -0.0369951 0.000282382) 2105
(-0.0189852 0.0384166 0.000301805) 2385
(-0.0012401 -0.0591966 0.000304341) 2092
(-0.0478652 0.0239517 0.000289484) 1795
(-0.0256755 -0.00972397 0.000261821) 569
(0.0480717 0.0128877 0.000280648) 1539
(-0.0252944 0.0252061 0.000324542) 532
(-0.0694089 0.00412355 0.000287187) 1814
(-0.0363234 0.0183476 0.000263716) 1793
(-0.100748 0.00594228 0.000288063) 2934
(-0.0501408 0.0274485 0.000245001) 1796
(-0.0591728 0.0288924 0.000273672) 1798
(0.037777 0.0139545 0.000289606) 1545
(0.0305502 0.0218377 0.00026654) 1371
(0.022553 0.0226502 0.000279672) 1091
(0.0320654 0.0621188 0.000285944) 2358
(-0.0232944 0.040914 0.000273561) 2386
(-0.00355678 0.0324035 0.000286359) 1115
(0.0194495 -0.00190397 0.00025993) 271
(-0.041098 0.0209468 0.000281578) 1794
(0.025914 -0.0283202 0.000285827) 2113
(-0.0388319 0.020222 0.000303874) 1794
(-0.101102 0.000994607 0.000256928) 2934
(-0.0837977 0.0060888 0.000289268) 2929
(-0.02168 -0.0363112 0.000279799) 2073
(0.0318253 -0.0207445 0.000294785) 1365
(-0.0183354 -0.00909663 0.000310133) 567
(0.0424084 -0.00826968 0.000283007) 1521
(0.000495014 0.0720838 0.000277064) 2375
(0.0232473 0.0233252 0.000331817) 1091
(0.0299366 0.0503248 0.000311623) 2356
(-4.843e-05 0.100023 0.00645948) 3494
(-0.00885226 -0.0228015 0.000249944) 816
(0.0156064 0.00442209 0.000269422) 277
(0.0229701 -0.0230832 0.00034476) 859
(0.062898 -0.00161973 0.000259207) 1533
(0.00846056 0.0367133 0.000240746) 1472
(0.0235981 -0.0236269 0.000270642) 859
(-0.00508583 -0.0590591 0.000227506) 2092
(-0.0456437 -0.0261884 0.000279685) 1827
(-0.0198556 -0.0358811 0.00027457) 2073
(0.0296135 0.00812765 0.000297068) 283
(0.0239363 0.0239584 0.000310524) 1091
(0.00186357 -0.105076 0.0285143) 3327
(0.0460377 -0.0115977 0.00028436) 1522
(-0.079351 0.0122985 0.0734515) 4384
(0.0364907 0.0183384 0.000297033) 1545
(0.0301718 0.00746244 0.000252533) 283
(-0.0210035 -0.0366385 0.000267107) 2073
(-0.0482469 0.0275653 0.000262017) 1796
(-0.0669709 0.00800505 0.000287186) 1806
(-0.0154548 0.00655765 0.000272776) 533
(-0.00125797 -0.059412 0.000239445) 2092
(0.0294319 0.00824443 0.000276944) 282
(0.00202118 0.0157663 0.00027481) 1109
(-0.0451028 0.0252366 0.000280554) 1795
(0.0395937 0.0177073 0.000298925) 1545
(0.024826 0.0227103 0.000295934) 299
(-0.0231195 0.0313934 0.000288654) 2393
(0.0443705 0.0105862 0.000261413) 1538
(-0.0658365 -0.0357917 0.000301546) 1831
(-0.000714047 0.101109 0.000267946) 3494
(-0.0987416 -0.00635796 0.00713511) 2933
(0.0401707 -0.0117909 0.00028837) 1521
(0.0335384 0.0171377 0.000287076) 1370
(0.0175824 -0.0419099 0.000260248) 2106
(-0.0299904 0.0124805 0.00028863) 539
(-0.037277 -0.0201934 0.000265983) 1825
(0.000897939 0.0986711 0.000298399) 3493
(0.00797913 -0.0181642 0.000249254) 846
(0.0451785 -0.0153927 0.000284733) 1522
(-0.00572965 0.0989398 0.000294494) 3493
(0.0224659 -0.00343993 0.000296293) 264
(-0.0619945 -0.0186189 0.000266964) 1821
(-0.0230289 -0.0392255 0.000298039) 2074
(-0.0229453 -0.0451352 0.000294857) 2075
(0.00439408 0.0704869 0.000244468) 2374
(0.0239306 0.0247889 0.000277388) 1092
(0.00429284 0.0569442 0.000279694) 2372
(-0.0242105 0.0426406 0.00026785) 2387
(0.0199529 0.0201368 0.000298302) 1089
(0.0168995 -0.054715 0.00027157) 2100
(-0.0202034 -0.0347647 0.000256832) 2073
(0.006075 0.0155455 0.000266647) 1101
(0.0374413 -0.0198404 0.000273839) 1513