/*--------------------------------*- C++ -*----------------------------------*\
| =========                 |                                                 |
| \\      /  F ield         | OpenFOAM: The Open Source CFD Toolbox           |
|  \\    /   O peration     | Version:  plus.master.MPPICInterFoam            |
|   \\  /    A nd           | Web:      www.OpenFOAM.com                      |
|    \\/     M anipulation  |                                                 |
\*---------------------------------------------------------------------------*/
FoamFile
{
    version     2.0;
    format      ascii;
    class       volScalarField;
    location    "2.8";
    object      alpha.water;
}
// * * * * * * * * * * * * * * * * * * * * * * * * * * * * * * * * * * * * * //

dimensions      [0 0 0 0 0 0 0];

internalField   nonuniform List<scalar> 
11822
(
0.982979
0.925468
0.857277
0.939672
0.989683
0.999944
0.934663
0.808837
0.348171
0.225463
0.439924
0.907963
0.999985
0.971141
0.488965
0.133665
0.133531
0.142967
0.742078
1
0.999708
0.581198
0.134574
0.133604
0.152191
0.775818
1
1
0.898663
0.488676
0.240633
0.517414
0.917145
1
0.999497
0.9766
0.937979
0.882776
0.980218
0.99223
0.999488
0.997912
0.99726
0.980367
0.984614
0.999706
0.999894
0.985931
0.895655
0.990881
0.962558
0.923045
0.971714
0.996531
0.997979
0.741129
0.888679
0.487726
0.337692
0.588282
0.945123
0.998396
0.957634
0.644444
0.133648
0.133518
0.212352
0.8414
0.999422
0.997123
0.71937
0.162596
0.133531
0.241515
0.86496
0.999663
0.999019
0.933192
0.613147
0.350805
0.661213
0.952971
0.999657
0.996997
0.99068
0.939867
0.925048
0.990347
0.997257
0.999468
0.999433
0.996454
0.973098
0.993032
0.999539
0.993924
0.938227
0.89188
0.997754
0.995015
0.989681
0.9963
0.996633
0.972304
0.631022
0.978031
0.793273
0.65842
0.86856
0.981985
0.993525
0.933876
0.90149
0.285893
0.13352
0.532054
0.970996
0.999019
0.98558
0.931743
0.424953
0.138114
0.601002
0.976692
0.999113
0.994375
0.979433
0.86399
0.70315
0.907524
0.984381
0.998692
0.978874
0.99162
0.949344
0.985657
0.997144
0.997347
0.993468
0.857706
0.996424
0.97816
0.9965
0.995449
0.970852
0.944804
0.913947
0.999132
0.999158
0.999135
0.998872
0.99491
0.884621
0.629048
0.998776
0.951036
0.89468
0.990505
0.996396
0.980418
0.892812
0.993976
0.626634
0.172333
0.867789
0.998717
0.998938
0.969276
0.992493
0.796029
0.349706
0.904145
0.998896
0.999019
0.980478
0.991179
0.969055
0.959663
0.984291
0.997112
0.985649
0.92167
0.995481
0.986952
0.996916
0.997111
0.997338
0.960723
0.82654
0.992407
0.988539
0.996659
0.963279
0.900384
0.941889
0.972563
0.999259
0.999219
0.999177
0.999111
0.981709
0.776517
0.628615
0.999418
0.98077
0.940542
0.99897
0.998301
0.936382
0.834793
0.999675
0.792338
0.358737
0.969329
0.998614
0.998536
0.973798
0.992515
0.910771
0.704241
0.957489
0.998697
0.998361
0.976999
0.992598
0.981892
0.996837
0.984734
0.997521
0.953574
0.896743
0.996463
0.996892
0.996873
0.996781
0.979644
0.909703
0.826556
0.968772
0.98551
0.994361
0.925565
0.856619
0.865421
0.999527
0.999181
0.999177
0.999129
0.998934
0.975385
0.777112
0.664465
0.998883
0.971031
0.921058
0.942547
0.998613
0.92185
0.835064
0.995097
0.774886
0.391561
0.973984
0.998613
0.998613
0.997254
0.973728
0.869068
0.764628
0.949018
0.998614
0.995886
0.982102
0.991791
0.980078
0.996814
0.972635
0.993922
0.890766
0.863944
0.996792
0.996946
0.996925
0.996753
0.944329
0.674435
0.861669
0.917855
0.972121
0.976614
0.938379
0.856747
0.820175
0.999998
0.726
0.977761
1
1
1
1
1
1
0.978324
1
1
1
1
1
1
1
1
1
1
1
1
1
1
1
1
1
1
1
1
1
1
1
0.985563
1
1
1
1
1
1
1
0.958538
1
1
1
1
1
1
1
0.978657
1
1
1
1
1
1
1
0.740078
0.997214
1
1
1
1
1
1
0.96507
1
1
1
1
1
1
1
0.998021
1
1
1
1
1
1
1
0.997599
1
1
1
1
1
1
1
0.959717
1
1
1
1
1
1
1
0.958542
1
1
1
1
1
1
1
0.980214
1
1
1
1
1
1
1
0.78443
1
1
1
1
1
1
1
0.937929
1
1
1
1
1
1
1
0.974093
1
1
1
1
1
1
1
0.962927
1
1
1
1
1
1
1
0.959876
1
1
1
1
1
1
1
0.982322
1
1
1
1
1
1
1
0.99255
1
1
1
1
1
1
1
0.822019
1
0.999989
1
1
1
1
1
0.946184
1
1
1
1
1
1
1
0.945811
1
1
1
1
1
1
1
0.946626
1
1
1
1
1
1
1
0.980133
1
1
1
1
1
1
1
0.995009
1
1
1
1
1
1
1
0.999845
1
1
1
1
1
1
1
0.923267
1
0.999987
1
1
1
1
1
0.985598
1
1
1
1
1
1
1
0.95924
1
1
1
1
1
1
1
0.959777
1
1
1
1
1
1
1
1
1
1
1
1
1
1
1
0.999675
1
1
1
1
1
1
1
1
1
1
1
1
1
1
1
1
1
0.999998
1
1
1
1
1
1
1
1
1
1
1
1
1
0.994846
1
1
1
1
1
1
1
0.992305
1
1
1
1
1
1
1
1
1
1
1
1
1
1
1
1
1
1
1
1
1
1
1
0.999999
1
1
1
1
1
1
1
0.999998
0.999997
0.994731
0.998834
1
1
1
1
0.999941
0.999968
0.97405
0.937545
1
1
1
1
0.999987
0.999925
0.959901
0.937384
1
1
1
1
0.999111
0.999931
0.96965
0.937442
1
1
1
1
0.984501
0.999914
0.969653
0.937527
1
1
1
1
0.999773
0.999309
0.973253
0.9623
1
1
1
1
0.997892
0.999994
0.99945
0.99489
1
1
1
1
0.969889
0.967541
0.985426
0.999998
1
1
1
1
0.999345
0.998808
0.985903
0.942123
1
1
1
1
0.999727
0.999536
0.951157
0.937392
1
1
1
1
0.999722
0.999769
0.968593
0.952631
1
1
1
1
0.996139
0.998757
0.947923
0.944583
1
1
1
1
0.999214
0.992048
0.94969
0.948656
1
1
0.999999
1
0.998485
0.999993
0.996159
0.995996
1
1
1
1
0.885223
0.770744
0.936976
0.998179
1
1
1
1
0.992904
0.983641
0.973482
0.97649
1
1
1
1
0.999517
0.998206
0.966745
0.964099
1
1
1
1
0.999615
0.999569
0.991044
0.994429
1
1
1
1
0.99962
0.99705
0.96336
0.98189
1
1
1
1
0.998548
0.985186
0.94982
0.956175
1
1
0.999998
1
0.972686
0.972625
0.986558
0.998851
1
1
1
1
0.801427
0.485281
0.775309
0.972546
1
1
1
1
0.973866
0.913566
0.875427
0.995363
1
1
1
1
0.999597
0.992033
0.971214
0.998167
1
1
1
1
0.999651
0.998906
0.999821
1
1
1
1
1
0.999676
0.997879
0.995226
0.999765
1
1
1
1
0.997151
0.988839
0.965074
0.977568
1
0.999993
1
1
0.923995
0.715086
0.948291
1
1
1
1
1
0.741521
0.397445
0.526919
0.901241
1
1
1
1
0.952042
0.75493
0.651096
0.995353
1
1
1
1
0.999642
0.961919
0.923214
1
1
1
1
1
0.999675
0.990981
0.967701
1
1
1
1
1
0.999679
0.999638
0.99997
1
1
1
1
1
0.99744
0.991541
0.99659
0.992089
1
0.999854
1
1
0.922051
0.6914
0.73282
0.997777
0.996485
0.999807
1
1
0.721803
0.392542
0.491132
0.88887
1
1
1
1
0.952332
0.675324
0.507209
0.984471
1
1
1
1
0.999629
0.941037
0.764347
1
1
1
1
1
0.999679
0.987562
0.906177
1
1
1
1
1
0.999676
0.999706
0.999998
1
1
1
1
1
0.998328
0.99605
0.998651
0.999916
1
0.999948
1
1
0.950451
0.716834
0.593506
0.960368
0.973805
1
1
1
0.999995
0.999994
0.999995
1
1
1
1
1
0.999997
0.999986
0.999162
1
1
1
1
1
0.999998
0.999993
0.999931
0.999987
0.999998
0.999986
1
1
0.999998
0.997055
0.96894
1
1
0.999999
1
1
0.999953
0.986863
0.960898
1
1
1
1
1
0.999488
0.999739
0.999745
1
1
1
1
1
0.963004
0.993258
1
1
1
1
1
1
0.998067
0.999994
0.999997
1
1
1
1
1
0.999994
0.999993
0.998943
0.999185
1
0.999999
0.999999
1
0.999825
0.998723
0.999999
1
0.999995
0.999976
1
1
0.99976
0.980417
0.94897
1
1
0.999999
1
1
0.999494
0.990151
0.971307
1
1
1
1
1
0.994317
0.999994
1
1
1
1
1
1
0.790123
0.971295
1
1
1
1
1
1
0.98456
0.986209
0.999993
0.993893
1
1
1
1
0.999153
0.99832
0.996781
0.99183
1
0.999999
0.999999
1
0.999286
0.985894
0.974078
1
0.999996
0.999976
1
1
0.997117
0.940677
0.948739
1
1
1
1
1
0.993813
0.947311
0.995281
1
1
1
1
1
0.944905
0.928
1
1
1
1
1
1
0.634132
0.959448
1
1
1
1
1
1
0.983047
0.872355
0.881985
0.985091
0.999817
1
1
1
0.997585
0.986753
0.981697
0.980552
0.999245
1
1
1
0.999208
0.967037
0.938234
1
0.999999
0.999976
1
1
0.994153
0.928137
0.95825
1
1
1
1
1
0.950937
0.903623
1
1
1
1
1
1
0.744269
0.725993
1
1
1
1
1
1
0.626907
0.969675
1
1
1
1
1
1
0.988958
0.822334
0.599242
0.960813
0.969047
1
1
1
0.998092
0.976953
0.951499
0.970548
0.992041
1
1
1
0.99915
0.969332
0.938294
1
1
0.999997
1
1
0.992055
0.926388
0.973318
1
1
1
1
1
0.843712
0.863252
1
1
1
1
1
1
0.592312
0.699349
0.994991
1
1
1
1
1
0.625185
0.997515
1
1
1
1
1
1
0.997757
0.863989
0.593506
0.728826
0.885127
0.998384
1
1
0.998944
0.984615
0.857623
0.969129
0.986921
1
1
1
0.999103
0.98542
0.958823
1
1
1
1
1
0.991401
0.902463
0.989099
1
1
1
1
1
0.815136
0.636468
0.999955
1
1
1
1
1
0.592312
0.723142
0.989071
1
1
1
1
1
0.742582
1
0.999939
1
1
1
1
1
0.948926
1
1
1
1
1
1
1
0.833605
0.94143
1
1
1
1
1
1
0.958118
0.88549
0.999992
1
1
1
1
1
0.994347
0.915813
0.999955
1
0.999999
1
1
1
0.998437
0.997407
0.999838
0.999997
0.999976
1
1
1
0.996541
0.980242
0.95768
1
0.999999
1
1
1
0.992178
0.999977
0.949563
1
1
1
1
1
0.963295
1
1
1
1
1
1
1
0.833605
0.973211
1
1
1
1
1
1
0.84436
0.886277
1
1
1
1
1
1
0.977827
0.886615
1
1
0.999999
1
1
1
0.991819
0.968221
1
0.999998
0.999985
1
1
1
0.992442
0.967921
0.958475
1
0.999999
1
1
1
0.943206
0.833251
0.912741
1
1
1
1
1
0.994191
1
1
1
1
1
1
1
0.833605
0.999768
1
1
1
1
1
1
0.83422
0.944925
1
1
1
1
1
1
0.940497
0.941855
1
1
0.999999
1
1
1
0.990621
0.967791
1
1
0.999996
1
1
1
0.977838
0.959083
0.975795
1
1
1
1
1
0.82882
0.445132
0.860478
0.998267
1
1
1
1
1
1
1
1
1
1
1
1
0.924628
1
1
1
1
1
1
1
0.83552
0.998643
1
1
1
1
1
1
0.879525
0.998551
1
1
1
1
1
1
0.995857
0.994718
1
1
0.999999
1
1
1
0.945588
0.91169
0.996277
1
1
1
1
1
0.690189
0.402996
0.744129
0.980963
1
1
1
1
0.999784
1
1
1
1
1
1
1
0.99952
1
1
1
1
1
1
1
0.897736
1
1
1
1
1
1
1
0.880855
0.999883
1
1
1
1
1
1
0.992682
1
1
0.999988
1
1
1
1
0.887327
0.80628
0.999486
1
1
1
1
1
0.569513
0.396072
0.66229
0.974593
1
1
1
1
0.999218
1
1
1
1
1
1
1
1
1
1
1
1
1
1
1
0.983464
1
1
1
1
1
1
1
0.92174
1
1
1
1
1
1
1
0.966368
1
1
0.999978
1
1
1
1
0.82302
0.794529
0.988426
1
1
1
1
1
0.468886
0.390035
0.697945
0.986439
1
1
1
1
1
1
1
1
1
1
1
1
1
1
1
1
1
1
1
1
1
1
1
1
1
1
1
1
1
1
1
1
1
1
1
1
1
1
1
1
1
1
1
1
1
1
1
1
1
1
1
1
1
1
1
1
1
1
1
1
1
1
1
1
1
1
1
1
1
1
1
1
1
1
1
1
1
1
1
1
1
1
1
1
1
1
1
1
1
1
1
1
1
1
1
1
1
1
1
1
1
1
1
1
1
1
1
1
1
1
1
1
1
1
1
1
1
1
1
1
1
1
1
1
1
1
1
1
1
1
1
1
1
1
1
1
1
1
1
1
1
1
1
1
1
1
1
1
1
1
1
1
1
1
1
1
1
1
1
1
1
1
1
1
1
1
1
1
1
1
1
1
1
1
1
1
1
1
1
1
1
1
1
1
1
1
1
1
1
1
1
1
1
1
1
1
1
1
1
1
1
1
1
1
1
1
1
1
1
1
1
1
1
1
1
1
1
1
1
1
1
1
1
1
1
1
1
1
1
1
1
1
1
1
1
1
1
1
1
1
1
1
1
1
1
1
1
1
1
1
1
1
1
1
1
1
1
1
1
1
1
1
1
1
1
1
1
1
1
1
1
1
1
1
1
1
1
1
1
1
1
1
1
1
1
1
1
1
1
1
1
1
1
1
1
1
1
1
1
1
1
1
1
1
1
1
1
1
1
1
1
1
1
1
1
1
1
1
1
1
1
1
1
1
1
1
1
1
1
1
1
1
1
1
1
1
1
1
1
1
1
1
1
1
1
1
1
1
1
1
1
1
1
1
1
1
1
1
1
1
1
1
1
1
1
1
1
1
1
1
1
1
1
1
1
1
1
1
1
1
1
1
1
1
1
1
1
1
1
1
1
1
1
1
1
1
1
1
1
1
1
1
1
1
1
1
1
1
1
1
1
1
1
1
1
1
1
1
1
1
1
1
1
1
1
1
1
1
1
1
1
1
1
1
1
1
1
1
1
1
1
1
1
1
1
1
1
1
1
1
1
1
1
1
1
1
1
1
1
1
1
1
1
1
1
1
1
1
1
1
1
1
1
1
1
1
1
1
1
1
1
1
1
1
1
1
1
1
1
1
1
1
1
1
1
1
1
1
1
1
1
1
1
1
1
1
1
1
1
1
1
1
1
1
1
1
1
1
1
1
1
1
1
1
1
1
1
1
1
1
1
1
1
1
1
1
1
1
1
1
1
1
1
1
1
1
1
1
1
1
1
1
1
1
1
1
1
1
1
1
1
1
1
1
1
1
1
1
1
1
1
1
1
1
1
1
1
1
1
1
1
1
1
1
1
1
1
1
1
1
1
1
1
1
1
1
1
1
1
1
1
1
1
1
1
1
1
1
1
1
1
1
1
1
1
1
1
1
1
1
1
1
1
1
1
1
1
1
1
1
1
1
1
1
1
1
1
1
1
1
1
1
1
1
1
1
1
1
1
1
1
1
1
1
1
1
1
1
1
1
1
1
1
1
1
1
1
1
1
1
1
1
1
1
1
1
1
1
1
1
1
1
1
1
1
1
1
1
1
1
1
1
1
1
1
1
1
1
1
1
1
1
1
1
1
1
1
1
1
1
1
1
1
1
1
1
1
1
1
1
1
1
1
1
1
1
1
1
1
1
1
1
1
1
1
1
1
1
1
1
1
1
1
1
1
1
1
1
1
1
1
1
1
1
1
1
1
1
1
1
1
1
1
1
1
1
1
1
1
1
1
1
1
1
1
1
1
1
1
1
1
1
1
1
1
1
1
1
1
1
1
1
1
1
1
1
1
1
1
1
1
1
1
1
1
1
1
1
1
1
1
1
1
1
1
1
1
1
1
1
1
1
1
1
1
1
1
1
1
1
1
1
1
1
1
1
1
1
1
1
1
1
1
1
1
1
1
1
1
1
1
1
1
1
1
1
1
1
1
1
1
1
1
1
1
1
1
1
1
1
1
1
1
1
1
1
1
1
1
1
1
1
1
1
1
1
1
1
1
1
1
1
1
1
1
1
1
1
1
1
1
1
1
1
1
1
1
1
1
1
1
1
1
1
1
1
1
1
1
1
1
1
1
1
1
1
1
1
1
1
1
1
1
1
1
1
1
1
1
1
1
1
1
1
1
1
1
1
1
1
1
1
1
1
1
1
1
1
1
1
1
1
1
1
1
1
1
1
1
1
1
1
1
1
1
1
1
1
1
1
1
1
1
1
1
1
1
1
1
1
1
1
1
1
1
1
1
1
1
1
1
1
1
1
1
1
1
1
1
1
1
1
1
1
1
1
1
1
1
1
1
1
1
1
1
1
1
1
1
1
1
1
1
1
1
1
1
1
1
1
1
1
1
1
1
1
1
1
1
1
1
1
1
1
1
1
1
1
1
1
1
1
1
1
1
1
1
1
1
1
1
1
1
1
1
1
1
1
1
1
1
1
1
1
1
1
1
1
1
1
1
1
1
1
1
1
1
1
1
1
1
1
1
1
1
1
1
1
1
1
1
1
1
1
1
1
1
1
1
1
1
1
1
1
1
1
1
1
1
1
1
1
1
1
1
1
1
1
1
1
1
1
1
1
1
1
1
1
1
1
1
1
1
1
1
1
1
1
1
1
1
1
1
1
1
1
1
1
1
1
1
1
1
1
1
1
1
1
1
1
1
1
1
1
1
1
1
1
1
1
1
1
1
1
1
1
1
1
1
1
1
1
1
1
1
1
1
1
1
1
1
1
1
1
1
1
1
1
1
1
1
1
1
1
1
1
1
1
1
1
1
1
1
1
1
1
1
1
1
1
1
1
1
1
1
1
1
1
1
1
1
1
1
1
1
1
1
1
1
1
1
1
1
1
1
1
1
1
1
1
1
1
1
1
1
1
1
1
1
1
1
1
1
1
1
1
1
1
1
1
1
1
1
1
1
1
1
1
1
1
1
1
1
1
1
1
1
1
1
1
1
1
1
1
1
1
1
1
1
1
1
1
1
1
1
1
1
1
1
1
1
1
1
1
1
1
1
1
1
1
1
1
1
1
1
1
1
1
1
1
1
1
1
1
1
1
1
1
1
1
1
1
1
1
1
1
1
1
1
1
1
1
1
1
1
1
1
1
1
1
1
1
1
1
1
1
1
1
1
1
1
1
1
1
1
1
1
1
1
1
1
1
1
1
1
1
1
1
1
1
1
1
1
1
1
1
1
1
1
1
1
1
1
1
1
1
1
1
1
1
1
1
1
1
1
1
1
1
1
1
1
1
1
1
1
1
1
1
1
1
1
1
1
1
1
1
1
1
1
1
1
1
1
1
1
1
1
1
1
1
1
1
1
1
1
1
1
1
1
1
1
1
1
1
1
1
1
1
1
1
1
1
1
1
1
1
1
1
1
1
1
1
1
1
1
1
1
1
1
1
1
1
1
1
1
1
1
1
1
1
1
1
1
1
1
1
1
1
1
1
1
1
1
1
1
1
1
1
1
1
1
1
1
1
1
1
1
1
1
1
1
1
1
1
1
1
1
1
1
1
1
1
1
1
1
1
1
1
1
1
1
1
1
1
1
1
1
1
1
1
1
1
1
1
1
1
1
1
1
1
1
1
1
1
1
1
1
1
1
1
1
1
1
1
1
1
1
1
1
1
1
1
1
1
1
1
1
1
1
1
1
1
1
1
1
1
1
1
1
1
1
1
1
1
1
1
1
1
1
1
1
1
1
1
1
1
1
1
1
1
1
1
1
1
1
1
1
1
1
1
1
1
1
1
1
1
1
1
1
1
1
1
1
1
1
1
1
1
1
1
1
1
1
1
1
1
1
1
1
1
1
1
1
1
1
1
1
1
1
1
1
1
1
1
1
1
1
1
1
1
1
1
1
1
1
1
1
1
1
1
1
1
1
1
1
1
1
1
1
1
1
1
1
1
1
1
1
1
1
1
1
1
1
1
1
1
1
1
1
1
1
1
1
1
1
1
1
1
1
1
1
1
1
1
1
1
1
1
1
1
1
1
1
1
1
1
1
1
1
1
1
1
1
1
1
1
1
1
1
1
1
1
1
1
1
1
1
1
1
1
1
1
1
1
1
1
1
1
1
1
1
1
1
1
1
1
1
1
1
1
1
1
1
1
1
1
1
1
1
1
1
1
1
1
1
1
1
1
1
1
1
1
1
1
1
1
1
1
1
1
1
1
1
1
1
1
1
1
1
1
1
1
1
1
1
1
1
1
1
1
1
1
1
1
1
1
1
1
1
1
1
1
1
1
1
1
1
1
1
1
1
1
1
1
1
1
1
1
1
1
1
1
1
1
1
1
1
1
1
1
1
1
1
1
1
1
1
1
1
1
1
1
1
1
1
1
1
1
1
1
1
1
1
1
1
1
1
1
1
1
1
1
1
1
1
1
1
1
1
1
1
1
1
1
1
1
1
1
1
1
1
1
1
1
1
1
1
1
1
1
1
1
1
1
1
1
1
1
1
1
1
1
1
1
1
1
1
1
1
1
1
1
1
1
1
1
1
1
1
1
1
1
1
1
1
1
1
1
1
1
1
1
1
1
1
1
1
1
1
1
1
1
1
1
1
1
1
1
1
1
1
1
1
1
1
1
1
1
1
1
1
1
1
1
1
1
1
1
1
1
1
1
1
1
1
1
1
1
1
1
1
1
1
1
1
1
1
1
1
1
1
1
1
1
1
1
1
1
1
1
1
1
1
1
1
1
1
1
1
1
1
1
1
1
1
1
1
1
1
1
1
1
1
1
1
1
1
1
1
1
1
1
1
1
1
1
1
1
1
1
1
1
1
1
1
1
1
1
1
1
1
1
1
1
1
1
1
1
1
1
1
1
1
1
1
1
1
1
1
1
1
1
1
1
1
1
1
1
1
1
1
1
1
1
1
1
1
1
1
1
1
1
1
1
1
1
1
1
1
1
1
1
1
1
1
1
1
1
1
1
1
1
1
1
1
1
1
1
1
1
1
1
1
1
1
1
1
1
1
1
1
1
1
1
1
1
1
1
1
1
1
1
1
1
1
1
1
1
1
1
1
1
1
1
1
1
1
1
1
1
1
1
1
1
1
1
1
1
1
1
1
1
1
1
1
1
1
1
1
1
1
1
1
1
1
1
1
1
1
1
1
1
1
1
1
1
1
1
1
1
1
1
1
1
1
1
1
1
1
1
1
1
1
1
1
1
1
1
1
1
1
1
1
1
1
1
1
1
1
1
1
1
1
1
1
1
1
1
1
1
1
1
1
1
1
1
1
1
1
1
1
1
1
1
1
1
1
1
1
1
1
1
1
1
1
1
1
1
1
1
1
1
1
1
1
1
1
1
1
1
1
1
1
1
1
1
1
1
1
1
1
1
1
1
1
1
1
1
1
1
1
1
1
1
1
1
1
1
1
1
1
1
1
1
1
1
1
1
1
1
1
1
1
1
1
1
1
1
1
1
1
1
1
1
1
1
1
1
1
1
1
1
1
1
1
1
1
1
1
1
1
1
1
1
1
1
1
1
1
1
1
1
1
1
1
1
1
1
1
1
1
1
1
1
1
1
1
1
1
1
1
1
1
1
1
1
1
1
1
1
1
1
1
1
1
1
1
1
1
1
1
1
1
1
1
1
1
1
1
1
1
1
1
1
1
1
1
1
1
1
1
1
1
1
1
1
1
1
1
1
1
1
1
1
1
1
1
1
1
1
1
1
1
1
1
1
1
1
1
1
1
1
1
1
1
1
1
1
1
1
1
1
1
1
1
1
1
1
1
1
1
1
1
1
1
1
1
1
1
1
1
1
1
1
1
1
1
1
1
1
1
1
1
1
1
1
1
1
1
1
1
1
1
1
1
1
1
1
1
1
1
1
1
1
1
1
1
1
1
1
1
1
1
1
1
1
1
1
1
1
1
1
1
1
1
1
1
1
1
1
1
1
1
1
1
1
1
1
1
1
1
1
1
1
1
1
1
1
1
1
1
1
1
1
1
1
1
1
1
1
1
1
1
1
1
1
1
1
1
1
1
1
1
1
1
1
1
1
1
1
1
1
1
1
1
1
1
1
1
1
1
1
1
1
1
1
1
1
1
1
1
1
1
1
1
1
1
1
0.942255
0.89037
0.893822
0.90111
0.9792
0.871761
0.632834
0.791924
0.685076
0.663213
0.576765
0.991596
0.956155
0.793188
0.759459
0.502651
0.261365
0.870828
0.987697
0.998532
0.968228
0.830712
0.54031
0.601889
0.803098
0.995943
0.996259
0.919508
0.967143
0.89085
0.921025
0.918617
0.994343
0.896848
0.651362
0.996948
0.996946
0.996946
0.996925
0.958612
0.63225
0.802037
0.924012
0.98515
0.97855
0.964254
0.839691
0.740572
0.990001
0.631022
0.415946
0.36948
0.476894
0.940504
0.972013
0.48019
0.280272
0.232001
0.235379
0.260256
0.80908
0.99647
0.546411
0.259257
0.22506
0.223913
0.388288
0.830114
0.998401
0.662349
0.442382
0.246141
0.24733
0.34343
0.880392
0.997021
0.677198
0.8312
0.545037
0.523715
0.652001
0.988364
0.953727
0.456041
0.996705
0.982017
0.973202
0.995157
0.991462
0.707401
0.46837
0.995636
0.991998
0.989185
0.988024
0.842008
0.384134
0.515727
0.503363
0.240963
0.271773
0.508848
0.955325
0.962552
0.480261
0.227535
0.225346
0.2239
0.31904
0.868949
0.908698
0.474985
0.225269
0.224001
0.225049
0.350896
0.8616
0.904975
0.475867
0.460883
0.29506
0.276875
0.36941
0.870444
0.941235
0.460378
0.8908
0.631163
0.544286
0.653761
0.970583
0.915913
0.416951
0.995636
0.992428
0.980178
0.99125
0.971184
0.669064
0.345883
0.993951
0.990224
0.963791
0.925682
0.66942
0.330349
0.325068
0.604875
0.465638
0.630373
0.822169
0.931076
0.878423
0.692595
0.354808
0.273345
0.545173
0.768669
0.913625
0.851003
0.643761
0.455398
0.455426
0.578459
0.751215
0.88491
0.822476
0.622171
0.785626
0.730033
0.72859
0.759817
0.83455
0.784546
0.593726
0.936342
0.880865
0.805558
0.75858
0.797228
0.743905
0.555319
0.945124
0.927469
0.865916
0.809496
0.768756
0.657552
0.470196
0.899185
0.840643
0.783322
0.724907
0.625074
0.495448
0.417801
0.226497
0.211626
0.221365
0.190011
0.120673
0.0110933
-9.99376e-06
0.20548
0.180852
0.232473
0.207262
0.148675
0.0437687
-3.65801e-05
0.226713
0.228049
0.225632
0.203322
0.157375
0.0731612
1.48051e-05
0.22405
0.229381
0.213648
0.194066
0.147272
0.0675572
-7.45715e-05
0.175875
0.185807
0.180064
0.164396
0.114327
0.0423628
-2.00374e-05
0.0901365
0.11022
0.112152
0.0971813
0.0640603
0.00491799
-1.07625e-06
0.000604038
0.0101961
0.0181487
0.00967408
0.000988507
-1.51258e-06
-3.39679e-08
-3.83841e-13
-6.2215e-11
-1.31678e-13
2.19879e-14
1.32861e-14
7.33952e-15
2.56639e-13
-7.71358e-11
0.000140617
-6.70245e-14
2.90398e-16
3.56845e-16
2.88421e-15
1.5471e-13
3.12897e-16
2.34028e-16
2.10935e-16
2.22734e-16
2.4134e-16
3.56053e-16
2.88422e-15
7.49186e-24
1.10085e-16
2.01698e-16
2.10935e-16
2.22734e-16
3.39672e-16
1.13937e-13
-5.9965e-14
8.36536e-25
1.00849e-16
2.01698e-16
2.68406e-16
5.12187e-16
1.11665e-13
-1.08576e-12
4.39411e-24
1.00849e-16
2.68406e-16
5.12186e-16
1.83412e-15
1.3294e-13
8.16462e-22
9.04828e-16
9.31816e-16
1.22185e-15
1.83412e-15
1.38393e-13
1.13332e-13
2.31945e-15
1.27529e-15
9.64684e-16
1.61215e-14
1.30097e-13
2.35944e-13
4.87137e-13
1.27529e-15
9.10479e-16
8.72435e-16
9.61287e-16
2.00595e-14
8.67895e-14
3.00049e-13
6.00017e-14
6.9405e-15
8.72415e-16
1.01547e-15
6.15885e-15
6.00114e-14
2.45908e-13
7.32796e-14
7.80405e-15
5.24656e-16
5.04052e-16
6.48966e-15
5.61856e-14
2.22756e-13
7.96893e-14
9.6751e-15
2.79794e-15
3.94926e-15
1.18839e-14
6.23676e-14
2.18442e-13
1.16193e-13
4.06995e-14
3.70175e-14
4.26051e-14
5.55368e-14
1.08298e-13
2.55459e-13
4.72721e-13
2.84747e-13
2.42892e-13
2.27755e-13
2.26811e-13
2.66407e-13
4.20619e-13
4.49e-14
1.79836e-14
1.20239e-14
1.05568e-14
1.15107e-14
1.85071e-14
4.48796e-14
1.88308e-14
3.34914e-15
1.40898e-15
1.29062e-15
1.82139e-15
5.25008e-15
2.12388e-14
1.18575e-14
1.04195e-15
5.80009e-17
9.60747e-17
4.50113e-16
2.81815e-15
1.53034e-14
1.02298e-14
9.67042e-16
3.86321e-17
4.72563e-17
3.21538e-16
2.33736e-15
1.33976e-14
1.09511e-14
1.50536e-15
3.43054e-16
2.75875e-16
5.29974e-16
2.599e-15
1.38406e-14
1.74113e-14
4.77155e-15
2.50365e-15
2.14183e-15
2.50202e-15
5.42984e-15
1.93818e-14
4.48816e-14
2.10902e-14
1.46544e-14
1.3065e-14
1.38371e-14
1.97969e-14
4.31562e-14
2.1298e-16
7.47331e-17
4.50603e-17
3.84854e-17
4.48352e-17
8.04174e-17
2.47472e-16
7.24488e-17
9.96134e-18
3.22272e-18
2.60653e-18
4.19656e-18
1.7451e-17
1.12139e-16
4.15733e-17
2.68015e-18
1.49287e-19
1.08609e-19
7.17838e-19
8.08903e-18
7.31031e-17
3.5011e-17
2.00769e-18
5.49987e-20
2.80769e-20
4.24537e-19
5.79115e-18
5.70087e-17
4.11003e-17
3.40458e-18
5.33249e-19
3.38992e-19
7.53536e-19
6.24772e-18
5.69707e-17
7.4676e-17
1.63232e-17
7.1096e-18
5.12185e-18
5.86931e-18
1.52712e-17
8.34551e-17
2.59978e-16
1.16051e-16
6.95205e-17
5.40856e-17
5.53774e-17
8.33264e-17
2.2183e-16
1.93195e-20
4.67857e-21
2.45017e-21
1.93664e-21
2.2138e-21
4.21355e-21
2.06869e-20
4.49027e-21
3.08226e-22
7.96038e-23
5.74606e-23
8.01028e-23
4.46727e-22
6.76895e-21
2.28415e-21
6.89255e-23
2.17796e-24
9.84025e-25
5.93904e-24
1.64996e-22
3.76236e-21
1.81902e-21
4.89169e-23
6.64874e-25
7.10781e-26
3.02659e-24
1.10268e-22
2.73978e-21
2.13925e-21
7.1183e-23
4.64487e-24
2.35428e-24
5.42609e-24
1.15711e-22
2.76444e-21
4.04724e-21
4.30909e-22
1.45138e-22
9.46603e-23
1.01824e-22
3.40011e-22
4.44905e-21
2.16433e-20
6.97234e-21
3.49617e-21
2.49634e-21
2.5137e-21
4.1564e-21
1.71477e-20
0.990774
1
1
1
1
1
0.999999
0.999997
1
1
1
1
1
1
0.999998
0.999997
1
1
1
1
1
1
0.999998
0.999998
0.994311
1
1
1
1
1
0.999998
0.999998
0.993127
1
1
1
1
1
0.999997
0.999998
1
1
1
1
1
0.999999
0.999997
0.999998
1
1
1
1
1
0.999999
0.999996
0.999998
0.54491
0.721382
0.939764
1
1
0.99469
0.965498
0.887876
0.696477
0.924572
1
1
0.999165
0.977991
0.919961
0.828359
0.69821
0.916154
1
1
0.995795
0.96175
0.891558
0.818706
0.687363
0.910222
1
1
0.992227
0.947584
0.872393
0.813463
0.622443
0.86844
1
1
0.987954
0.934036
0.85544
0.804651
0.620805
0.82294
0.999379
0.999976
0.983945
0.923489
0.835728
0.790969
0.697248
0.901371
1
0.999052
0.980797
0.922735
0.804661
0.769004
0.41554
0.405801
0.705945
0.87363
0.778003
0.580828
0.356661
0.166433
0.472269
0.767609
0.905139
0.824941
0.633763
0.403661
0.200502
0.0583641
0.511667
0.842219
0.888365
0.780835
0.563413
0.323806
0.134212
0.0329462
0.526348
0.859435
0.874965
0.751185
0.518451
0.276206
0.0972596
0.0298158
0.517831
0.848761
0.854703
0.717612
0.478584
0.241882
0.0687251
0.0292878
0.413529
0.777227
0.826605
0.686551
0.451608
0.224114
0.0540877
0.0246927
0.347476
0.67617
0.794845
0.6572
0.433007
0.222394
0.0607269
0.013836
0.488708
0.313438
0.0636033
-0.000753725
-5.10673e-05
-2.55056e-06
-4.96607e-08
-2.24346e-06
0.424131
0.172641
-0.000888565
-3.51437e-05
-1.7289e-06
-1.6756e-08
-2.04299e-09
-5.95287e-08
0.395483
0.130259
-0.000408104
-1.03163e-05
-2.59212e-07
-1.36949e-09
-6.21068e-08
-1.03917e-05
0.370947
0.108257
-0.000287925
-6.69675e-06
-7.84483e-08
-6.53347e-10
-2.69563e-08
-1.01733e-05
0.34019
0.0792521
-0.00023499
-6.44221e-06
-7.20139e-08
-1.48069e-09
-2.16622e-08
-9.85513e-06
0.276425
0.0405405
-0.000182277
-6.60513e-06
-1.04959e-07
-7.03896e-09
-1.02478e-08
-1.3987e-05
0.241298
0.00587585
-0.000158763
-7.93619e-06
-3.08607e-07
-2.06268e-08
-3.38197e-07
-2.46932e-05
-3.7844e-07
-4.65883e-09
-1.55525e-10
-3.57358e-07
-1.75001e-09
-1.00137e-11
2.53839e-11
1.78886e-11
-2.91516e-07
-3.07353e-08
-3.47409e-06
-7.79526e-08
-3.88441e-10
1.19995e-11
1.51643e-11
4.34812e-12
-3.9033e-07
-1.27167e-06
-2.72653e-06
-2.07644e-08
-4.8212e-11
1.14369e-11
-1.46602e-12
-1.12361e-08
-2.41216e-07
-1.00785e-06
-1.66728e-06
-8.62207e-09
-6.87256e-12
1.14012e-11
-2.37604e-12
-6.98761e-09
-7.94582e-08
-3.19486e-07
-9.45515e-07
-4.12223e-09
4.31947e-12
9.62498e-12
-3.24001e-11
-8.58125e-09
-7.58793e-09
-7.87913e-11
-3.22207e-07
-1.33445e-09
9.67783e-12
3.5636e-12
-1.60689e-09
-4.20537e-08
-1.02297e-09
-1.3524e-11
-1.32356e-07
-4.72636e-10
1.16208e-11
-6.75573e-13
-1.17309e-09
-8.72998e-08
2.66032e-13
5.66913e-14
6.81391e-18
1.14955e-16
3.52421e-15
5.86399e-13
2.69894e-11
1.99099e-11
4.63786e-13
2.58206e-13
5.55888e-14
8.99333e-14
3.05027e-13
2.27182e-11
2.57935e-11
1.83213e-11
3.87058e-13
2.71472e-13
1.00596e-13
1.46031e-13
4.6702e-13
2.02965e-11
1.38702e-11
1.41053e-11
2.86993e-13
1.77482e-13
1.45671e-13
2.02021e-13
2.62995e-12
2.00084e-11
1.23815e-11
1.23933e-11
1.29723e-13
1.32021e-13
1.37554e-13
2.14646e-13
1.58363e-11
1.85038e-11
1.05061e-11
1.05755e-11
1.17826e-13
1.20126e-13
1.32122e-13
2.38819e-13
1.39844e-11
1.01454e-11
1.01516e-11
1.27385e-11
1.127e-13
1.17619e-13
1.35296e-13
3.02329e-13
1.34933e-11
1.02064e-11
1.02776e-11
9.93756e-12
1.14128e-12
1.98758e-12
3.31922e-12
5.32629e-12
8.06647e-12
1.13298e-11
1.46335e-11
1.74261e-11
7.66433e-13
1.44941e-12
2.61265e-12
4.48838e-12
7.18622e-12
1.05509e-11
1.41178e-11
1.71945e-11
6.41028e-13
1.2495e-12
2.32113e-12
4.09638e-12
6.71807e-12
1.00855e-11
1.37614e-11
1.70315e-11
5.74958e-13
1.14087e-12
2.16038e-12
3.86983e-12
6.41811e-12
9.72374e-12
1.33565e-11
1.66143e-11
5.64344e-13
1.13126e-12
2.16932e-12
3.91167e-12
6.4949e-12
9.81796e-12
1.34513e-11
1.669e-11
6.05648e-13
1.20908e-12
2.32104e-12
4.16824e-12
6.85406e-12
1.02277e-11
1.38399e-11
1.69892e-11
8.28226e-13
1.54592e-12
2.79993e-12
4.77674e-12
7.51601e-12
1.08068e-11
1.41782e-11
1.70622e-11
1.37966e-13
3.40705e-13
7.73098e-13
1.59905e-12
2.99738e-12
5.08779e-12
7.85427e-12
1.11089e-11
8.38239e-14
2.37208e-13
5.92555e-13
1.31399e-12
2.59929e-12
4.61131e-12
7.38867e-12
1.07818e-11
6.6525e-14
1.98982e-13
5.15117e-13
1.17319e-12
2.37662e-12
4.31569e-12
7.07251e-12
1.05366e-11
5.93831e-14
1.8142e-13
4.76443e-13
1.09725e-12
2.24517e-12
4.11644e-12
6.80953e-12
1.02335e-11
6.10028e-14
1.85599e-13
4.87599e-13
1.12307e-12
2.29348e-12
4.1877e-12
6.89015e-12
1.02969e-11
7.45872e-14
2.15449e-13
5.49468e-13
1.24055e-12
2.48916e-12
4.46384e-12
7.21208e-12
1.0594e-11
1.21847e-13
3.07743e-13
7.10306e-13
1.49022e-12
2.82854e-12
4.85431e-12
7.56437e-12
1.07825e-11
1.13182e-15
3.95751e-15
1.29838e-14
3.91366e-14
1.06727e-13
2.61701e-13
5.77683e-13
1.15367e-12
6.97922e-16
2.88747e-15
1.04745e-14
3.35447e-14
9.53264e-14
2.41793e-13
5.5099e-13
1.13632e-12
5.17048e-16
2.3664e-15
9.11578e-15
3.02653e-14
8.81212e-14
2.27875e-13
5.28892e-13
1.11138e-12
4.2978e-16
2.07783e-15
8.28997e-15
2.81541e-14
8.32531e-14
2.17843e-13
5.1061e-13
1.08255e-12
4.27518e-16
2.06371e-15
8.27438e-15
2.82379e-14
8.37117e-14
2.19012e-13
5.12162e-13
1.08171e-12
5.31169e-16
2.36636e-15
9.08702e-15
3.02793e-14
8.83422e-14
2.27901e-13
5.25272e-13
1.09215e-12
9.31351e-16
3.468e-15
1.17931e-14
3.62179e-14
9.98528e-14
2.46971e-13
5.49768e-13
1.10723e-12
2.00845e-19
1.40602e-18
9.09304e-18
5.28373e-17
2.70647e-16
1.21259e-15
4.74918e-15
1.63199e-14
9.91097e-20
8.73526e-19
6.52557e-18
4.16888e-17
2.29005e-16
1.08672e-15
4.47735e-15
1.61241e-14
6.45009e-20
6.58724e-19
5.41099e-18
3.67954e-17
2.11229e-16
1.03695e-15
4.39797e-15
1.62583e-14
5.0776e-20
5.58519e-19
4.81745e-18
3.38423e-17
1.98735e-16
9.92479e-16
4.26723e-15
1.59547e-14
5.12749e-20
5.5912e-19
4.81351e-18
3.37676e-17
1.97739e-16
9.83129e-16
4.20332e-15
1.56212e-14
7.0152e-20
6.82145e-19
5.4665e-18
3.65696e-17
2.06779e-16
9.98702e-16
4.16107e-15
1.50999e-14
1.56653e-19
1.19236e-18
8.05258e-18
4.77025e-17
2.46422e-16
1.10881e-15
4.35624e-15
1.50161e-14
0.742508
0.375845
0.45878
0.888077
1
1
1
1
0.977479
0.719569
0.456672
0.941882
1
1
1
1
0.999092
0.973463
0.615623
0.999991
1
1
1
1
0.993697
0.99429
0.869041
0.999999
1
1
1
1
0.952214
0.998866
0.975134
0.999998
1
1
1
1
0.967126
0.996604
0.944612
0.989121
1
1
1
1
0.988339
0.917497
0.663176
0.577599
0.751535
0.999502
1
1
0.807673
0.430134
0.33071
0.429975
0.75708
0.999985
1
0.999988
0.99596
0.88895
0.463944
0.46784
0.682966
0.973637
1
0.999988
0.998833
0.996768
0.830632
0.55907
0.713151
0.975365
1
0.999993
0.903157
0.994906
0.97084
0.784911
0.803599
0.965971
1
0.999999
0.561948
0.958895
0.988703
0.922501
0.784876
0.904133
1
1
0.717219
0.993558
0.982912
0.955985
0.748062
0.69205
0.84851
0.999532
0.980056
0.99383
0.945798
0.528747
0.339056
0.444882
0.588032
0.704342
0.875717
0.517734
0.319282
0.307181
0.424123
0.822062
0.892814
0.778764
0.994643
0.994844
0.767107
0.350394
0.355993
0.472892
0.765217
0.696333
0.996733
0.994946
0.983661
0.580569
0.368844
0.620508
0.820385
0.696823
0.873995
0.994844
0.992623
0.787307
0.384865
0.649506
0.869611
0.775229
0.42767
0.951332
0.990899
0.897828
0.427577
0.566965
0.870107
0.854089
0.595057
0.986639
0.989798
0.98822
0.76168
0.293166
0.340477
0.721739
0.979739
0.992804
0.991537
0.834173
0.374258
0.287966
0.288572
0.290045
0.817979
0.667982
0.31588
0.359812
0.434474
0.209836
-0.00174525
-0.000144346
0.91978
0.857361
0.752111
0.67728
0.514795
0.103404
-0.00102537
-7.16756e-05
0.954699
0.952579
0.910654
0.79703
0.590366
0.132709
-0.000800882
-5.21859e-05
0.899548
0.975968
0.971814
0.896583
0.709433
0.300882
-0.00156143
-0.000123262
0.651302
0.943036
0.984471
0.942334
0.800107
0.560849
0.109798
-0.00086808
0.714023
0.986694
0.991274
0.980283
0.897639
0.737491
0.474367
0.0462869
0.952628
0.991545
0.991532
0.988331
0.888215
0.746157
0.61107
0.398195
-1.30143e-05
-2.8842e-07
0.00355337
-1.76797e-06
-3.7904e-08
-4.7525e-09
-1.16176e-06
-1.61849e-07
0.034364
-4.38893e-05
-1.10342e-06
-4.17359e-07
-4.24996e-09
-7.8327e-12
2.02138e-11
2.04463e-11
0.131166
0.0503982
-4.59586e-05
-8.86973e-07
-1.31278e-08
-1.31419e-10
-6.4878e-07
-3.05278e-09
0.196481
0.139078
0.0337689
-2.33323e-05
-2.13589e-07
-5.90246e-09
-3.7769e-06
-1.49404e-07
0.221812
0.185051
0.0990271
0.000255399
-3.23061e-06
-5.75543e-08
-3.27042e-07
-2.09117e-06
0.231742
0.214424
0.14449
0.0195406
-2.16692e-05
-4.89697e-07
-1.15424e-08
-5.42975e-09
0.22715
0.218669
0.163183
0.0464384
-8.17366e-05
-1.60984e-06
-2.95127e-08
-1.32821e-09
3.64799e-13
-2.56561e-12
-8.16526e-10
-1.13476e-08
-1.26244e-11
1.90091e-13
2.32936e-13
4.46993e-13
-4.78868e-11
-3.64446e-11
-1.84643e-08
-5.7388e-07
-1.11174e-08
-6.993e-11
8.36352e-16
5.28689e-13
-2.73291e-13
-4.68573e-11
-4.19109e-11
-6.34036e-09
-2.49971e-10
-4.37361e-12
1.6334e-16
2.9868e-13
3.73145e-19
1.39039e-20
-5.5279e-12
2.36463e-12
1.68551e-13
2.78566e-13
3.02174e-13
5.3663e-13
1.55543e-15
3.61927e-13
4.30254e-20
1.06918e-12
4.48811e-12
4.81845e-13
6.67872e-13
8.93901e-13
-2.04685e-13
1.47035e-14
2.56414e-13
1.75334e-12
5.13565e-12
8.59234e-13
9.24601e-13
1.30642e-12
-1.33437e-14
1.26247e-13
1.5091e-12
4.49369e-12
6.93931e-12
4.7366e-12
1.31278e-12
1.74534e-12
7.29552e-13
1.36739e-12
2.29719e-12
1.39282e-12
9.15339e-12
1.23335e-11
1.54001e-11
1.80031e-11
2.20303e-13
1.21869e-13
1.05425e-13
5.0771e-13
6.59363e-12
1.16332e-11
1.48473e-11
1.76697e-11
3.44649e-13
5.34271e-13
4.27948e-13
5.76754e-13
6.36039e-12
1.14362e-11
1.47903e-11
1.77916e-11
3.69752e-13
1.07053e-12
2.38979e-12
4.72915e-12
8.18544e-12
1.13406e-11
1.46801e-11
1.76979e-11
8.3074e-15
4.05776e-13
2.76386e-12
5.44899e-12
8.51855e-12
1.1704e-11
1.49328e-11
1.77794e-11
2.46232e-15
7.44698e-15
1.03331e-13
5.64326e-12
8.94542e-12
1.2212e-11
1.52492e-11
1.77554e-11
5.51982e-15
5.19575e-14
2.10825e-12
6.35011e-12
9.68257e-12
1.28741e-11
1.56726e-11
1.78669e-11
1.1941e-13
3.30587e-13
7.92106e-13
1.67583e-12
3.1578e-12
5.32033e-12
8.13268e-12
1.13948e-11
7.5081e-14
2.36543e-13
6.2521e-13
1.41067e-12
2.77592e-12
4.89576e-12
7.73606e-12
1.114e-11
5.89644e-14
1.99378e-13
5.51738e-13
1.29069e-12
2.61682e-12
4.70077e-12
7.59349e-12
1.11468e-11
5.69919e-14
1.91855e-13
5.2853e-13
1.24239e-12
2.54027e-12
4.59856e-12
7.48064e-12
1.10474e-11
6.51937e-14
2.10181e-13
5.61105e-13
1.29708e-12
2.63018e-12
4.72621e-12
7.62557e-12
1.11734e-11
8.6215e-14
2.54011e-13