/*--------------------------------*- C++ -*----------------------------------*\
| =========                 |                                                 |
| \\      /  F ield         | OpenFOAM: The Open Source CFD Toolbox           |
|  \\    /   O peration     | Version:  plus.master.MPPICInterFoam            |
|   \\  /    A nd           | Web:      www.OpenFOAM.com                      |
|    \\/     M anipulation  |                                                 |
\*---------------------------------------------------------------------------*/
FoamFile
{
    version     2.0;
    format      ascii;
    class       volScalarField;
    location    "2.8";
    object      epsilon;
}
// * * * * * * * * * * * * * * * * * * * * * * * * * * * * * * * * * * * * * //

dimensions      [0 2 -3 0 0 0 0];

internalField   nonuniform List<scalar> 
11822
(
0.280091
0.342722
0.375415
0.333505
0.280029
0.236207
0.209272
0.353662
0.447257
0.495771
0.429229
0.342577
0.268575
0.223213
0.426279
0.51934
0.51522
0.499219
0.411285
0.297829
0.233809
0.411064
0.496331
0.519236
0.48521
0.40059
0.293598
0.230839
0.332489
0.415634
0.456491
0.40268
0.326637
0.260152
0.215219
0.263095
0.310227
0.335578
0.305591
0.262227
0.22478
0.196892
0.216673
0.238827
0.249523
0.237815
0.217328
0.198404
0.181233
0.256686
0.297434
0.319068
0.292945
0.258691
0.231058
0.218437
0.30471
0.364459
0.395297
0.349882
0.297048
0.251076
0.225277
0.357149
0.397341
0.435364
0.391907
0.34052
0.270562
0.23105
0.344081
0.377458
0.432832
0.386025
0.335026
0.268175
0.227807
0.28828
0.34021
0.368863
0.334732
0.287987
0.245494
0.215883
0.24188
0.272786
0.291501
0.272506
0.245059
0.2211
0.201873
0.213182
0.227589
0.235991
0.228381
0.215224
0.203776
0.192319
0.243924
0.267385
0.281819
0.267517
0.246766
0.232893
0.23334
0.272464
0.309375
0.337048
0.305787
0.268052
0.242134
0.232604
0.29982
0.316149
0.345396
0.340134
0.29181
0.253269
0.233287
0.290096
0.31302
0.322984
0.33365
0.28832
0.251388
0.229272
0.25671
0.287105
0.314139
0.292214
0.261482
0.237447
0.221116
0.226802
0.244538
0.259211
0.250512
0.235523
0.223105
0.2134
0.212561
0.222177
0.229286
0.225817
0.219194
0.213411
0.20472
0.243422
0.257951
0.266927
0.259119
0.245947
0.240268
0.257263
0.2614
0.282609
0.297751
0.28107
0.257149
0.244258
0.246817
0.275668
0.297445
0.288381
0.302688
0.269453
0.250537
0.242308
0.267287
0.288838
0.285409
0.293931
0.266233
0.248328
0.237645
0.243965
0.261071
0.27567
0.266823
0.250634
0.23972
0.232545
0.222688
0.2347
0.245176
0.242773
0.236223
0.233401
0.228919
0.217506
0.226257
0.232607
0.231701
0.229712
0.229248
0.218709
0.255422
0.26781
0.274131
0.266904
0.253418
0.250526
0.2817
0.272941
0.286805
0.293486
0.284645
0.262234
0.254202
0.265325
0.282871
0.299052
0.30279
0.293167
0.270017
0.258484
0.25623
0.271943
0.287481
0.298342
0.284632
0.265204
0.25483
0.25066
0.247096
0.259595
0.268812
0.263806
0.251902
0.246867
0.248201
0.225708
0.237101
0.247285
0.24649
0.241954
0.244643
0.247268
0.225271
0.234977
0.242763
0.241914
0.241025
0.248906
0.234626
0.273431
0.290904
0.295663
0.280775
0.260571
0.257678
0.290988
0.301128
0.318147
0.318639
0.303573
0.272275
0.262041
0.274149
0.311394
0.325707
0.320583
0.30798
0.280193
0.265749
0.264014
0.292109
0.309114
0.311224
0.297786
0.271931
0.260112
0.258915
0.256779
0.272632
0.280837
0.271834
0.255206
0.2497
0.261901
0.229796
0.242862
0.253626
0.251505
0.244173
0.245019
0.262718
0.228974
0.239108
0.248308
0.248042
0.247821
0.260041
0.248847
0.191982
0.177876
0.158231
0.133882
0.104748
0.0722621
0.0410613
0.0295581
0.19539
0.175732
0.153764
0.127337
0.0963355
0.0624002
0.0300384
0.0153122
0.197595
0.172376
0.146895
0.118246
0.0862415
0.0528259
0.022501
0.00952964
0.193591
0.166563
0.139486
0.109782
0.0775798
0.045121
0.0170372
0.00615007
0.183828
0.158725
0.132334
0.102856
0.0707633
0.0386544
0.0123284
0.00351225
0.171888
0.150317
0.125803
0.0972815
0.0654288
0.0330492
0.00849345
0.00197365
0.160319
0.142174
0.119514
0.0921606
0.0612098
0.029601
0.00694979
0.00169893
0.211663
0.198213
0.174634
0.143748
0.106712
0.0664684
0.0286716
0.0116636
0.208532
0.190932
0.166054
0.133863
0.0960614
0.0561542
0.0205747
0.0062511
0.206135
0.183339
0.15542
0.121843
0.0843766
0.0467111
0.0154708
0.00435311
0.200647
0.175338
0.145662
0.111406
0.0745604
0.0389059
0.0114424
0.00296252
0.191194
0.166705
0.137072
0.102819
0.0662086
0.0314382
0.00759329
0.00175164
0.180716
0.157853
0.12904
0.095063
0.058355
0.0237699
0.00426107
0.00109146
0.16946
0.14814
0.120304
0.0870626
0.0512211
0.0182336
0.00270087
0.000990009
0.237326
0.220216
0.189688
0.149428
0.102776
0.0552184
0.0163125
0.0035784
0.224762
0.206853
0.176405
0.136411
0.0908812
0.045721
0.0118901
0.00241124
0.217186
0.194446
0.162028
0.122237
0.078981
0.0378748
0.00936832
0.00204908
0.209362
0.183829
0.149943
0.110276
0.0687571
0.0308197
0.00690972
0.00161016
0.200795
0.174166
0.139576
0.0997669
0.058877
0.0230688
0.00421324
0.00113296
0.190349
0.163398
0.128636
0.0886073
0.0477834
0.014529
0.00197151
0.000887433
0.176614
0.150027
0.115732
0.0764212
0.0370524
0.00867888
0.00104649
0.000898487
0.263967
0.238816
0.198023
0.146354
0.0901966
0.0383214
0.00725379
0.00155206
0.242814
0.220484
0.18168
0.132366
0.0794447
0.0319725
0.00585479
0.00137356
0.229579
0.204122
0.165192
0.118126
0.0693216
0.0271339
0.00513569
0.00134841
0.220279
0.191641
0.151762
0.105787
0.0597844
0.0217898
0.00394063
0.00120877
0.212054
0.180671
0.139484
0.093449
0.0488741
0.0150308
0.00237543
0.00101068
0.200449
0.166645
0.124429
0.0782888
0.0351931
0.00787364
0.00113591
0.000907374
0.181488
0.147562
0.105973
0.0615692
0.0223901
0.00361304
0.000681083
0.000956653
0.285604
0.25087
0.199482
0.137584
0.0750904
0.024562
0.00384578
0.00159524
0.25904
0.230124
0.182218
0.124374
0.0666816
0.0216632
0.00371668
0.00152028
0.243228
0.212472
0.166043
0.111901
0.0591888
0.0193783
0.00370446
0.00156923
0.233345
0.199624
0.152785
0.1004
0.0510086
0.0157728
0.00311281
0.00147786
0.225239
0.187849
0.139271
0.0871271
0.0401631
0.0106269
0.00206868
0.00128573
0.211736
0.170346
0.120535
0.0691989
0.0261251
0.00531947
0.00118536
0.00117412
0.186808
0.145277
0.0969874
0.0491735
0.0139075
0.00236022
0.000831669
0.00124142
0.287896
0.248618
0.188545
0.118056
0.0533378
0.0151196
0.00460822
0.00442867
0.264067
0.229435
0.172959
0.107719
0.0490009
0.014559
0.00446475
0.00378506
0.25041
0.214312
0.15968
0.0984672
0.044772
0.0138883
0.00444117
0.00351117
0.242199
0.203218
0.147998
0.088611
0.0386175
0.0119145
0.00401607
0.0032078
0.235521
0.191471
0.133882
0.0751934
0.0294498
0.00874483
0.00324988
0.00287321
0.220976
0.171218
0.112236
0.0560767
0.0183748
0.00551141
0.00250341
0.00267535
0.19071
0.140303
0.0841992
0.0353088
0.0101806
0.00371682
0.00215853
0.00281469
0.193614
0.180796
0.171733
0.162178
0.150576
0.138403
0.132296
0.176641
0.219975
0.194537
0.179136
0.168053
0.156166
0.143067
0.135319
0.174897
0.260442
0.217859
0.192669
0.177039
0.162975
0.148378
0.139605
0.179236
0.302612
0.240467
0.20485
0.183881
0.167494
0.152721
0.145264
0.190165
0.308382
0.242403
0.204171
0.181016
0.164692
0.151729
0.147479
0.199309
0.268782
0.219538
0.188477
0.168198
0.153599
0.143275
0.142647
0.202928
0.22636
0.194133
0.171028
0.153885
0.140717
0.131856
0.133488
0.203703
0.204352
0.203267
0.200214
0.191387
0.175811
0.156671
0.14256
0.178758
0.216605
0.20435
0.198085
0.190466
0.176594
0.157119
0.140726
0.169247
0.244003
0.218854
0.204776
0.194223
0.178814
0.158098
0.140475
0.167661
0.27367
0.235064
0.213037
0.197842
0.181607
0.161975
0.146838
0.180693
0.278291
0.235732
0.211053
0.195085
0.17988
0.163891
0.154312
0.198841
0.250122
0.218236
0.197815
0.18367
0.170837
0.159256
0.155855
0.2133
0.221179
0.19978
0.184176
0.17084
0.158973
0.149651
0.150023
0.220873
0.217011
0.234364
0.244064
0.232717
0.207017
0.17409
0.144716
0.161476
0.217965
0.220776
0.226643
0.221716
0.201022
0.169417
0.13807
0.145923
0.235357
0.226972
0.224012
0.215901
0.195529
0.164442
0.133233
0.140423
0.255118
0.238069
0.228259
0.216651
0.196073
0.167784
0.141013
0.157387
0.258572
0.237882
0.225325
0.213731
0.196512
0.174678
0.156763
0.189389
0.241731
0.225539
0.215113
0.205077
0.19219
0.177651
0.169858
0.222871
0.225834
0.218067
0.206881
0.196018
0.184364
0.173672
0.172307
0.245453
0.226642
0.25725
0.301128
0.285974
0.240417
0.184644
0.131263
0.114674
0.224166
0.241136
0.264508
0.261156
0.226753
0.175913
0.123127
0.101916
0.237798
0.242558
0.249503
0.242044
0.211833
0.165624
0.116714
0.0988873
0.254052
0.251108
0.248921
0.237132
0.209449
0.169058
0.127361
0.121183
0.258366
0.251806
0.247021
0.235761
0.213828
0.183268
0.153774
0.168842
0.247546
0.242257
0.239061
0.232054
0.217639
0.198446
0.184069
0.229471
0.23502
0.23313
0.237478
0.229946
0.218317
0.20544
0.201475
0.278114
0.235953
0.275595
0.346765
0.342239
0.269453
0.186886
0.107873
0.0637173
0.229303
0.252643
0.300016
0.305071
0.249956
0.17666
0.102631
0.0607256
0.246357
0.259233
0.278736
0.268859
0.226145
0.163552
0.0984014
0.0636522
0.265924
0.269593
0.273799
0.258492
0.221686
0.168596
0.112875
0.0884446
0.274055
0.273102
0.271158
0.258705
0.231663
0.191946
0.150191
0.146334
0.265612
0.265762
0.267379
0.262508
0.247091
0.223273
0.201382
0.236118
0.251168
0.256316
0.27035
0.272401
0.262501
0.247392
0.240092
0.319726
0.241522
0.285574
0.372692
0.372201
0.275215
0.167698
0.0693107
0.0258409
0.231532
0.253846
0.31107
0.331995
0.258821
0.165112
0.0751326
0.0341049
0.251946
0.26198
0.285784
0.285015
0.232423
0.156061
0.0787229
0.0441316
0.279848
0.279411
0.282576
0.269826
0.228477
0.166255
0.0991696
0.0692634
0.294955
0.289482
0.284972
0.272881
0.24492
0.199564
0.1467
0.129259
0.286401
0.283453
0.28491
0.28385
0.272326
0.24762
0.218769
0.243625
0.265454
0.268708
0.289193
0.303538
0.301545
0.290582
0.281143
0.362065
0.225905
0.19388
0.170307
0.152376
0.138395
0.128746
0.129414
0.197992
0.259751
0.213927
0.183836
0.162851
0.147003
0.135396
0.1327
0.186419
0.278194
0.226536
0.194025
0.171215
0.152584
0.136739
0.128046
0.166686
0.262379
0.221177
0.193537
0.171172
0.149507
0.128123
0.112046
0.136426
0.234153
0.206173
0.184927
0.163886
0.140043
0.114156
0.0919016
0.10358
0.20927
0.191159
0.173848
0.153287
0.128055
0.0993399
0.072827
0.0745266
0.192024
0.178746
0.161925
0.140319
0.113785
0.083631
0.0548397
0.0498153
0.22125
0.19955
0.182979
0.168991
0.156508
0.146783
0.146738
0.216885
0.244785
0.214754
0.194249
0.178471
0.16425
0.151919
0.147188
0.198697
0.258892
0.226108
0.204047
0.186021
0.167351
0.148259
0.134489
0.165945
0.249715
0.22478
0.20593
0.185783
0.161336
0.133972
0.110159
0.123163
0.232258
0.216777
0.200513
0.1787
0.149728
0.115963
0.0843439
0.0815662
0.21799
0.208574
0.192686
0.168401
0.136087
0.0982957
0.0616043
0.0479252
0.210799
0.200328
0.180813
0.153266
0.118735
0.0795739
0.0411398
0.0231595
0.224662
0.213976
0.203001
0.193955
0.182756
0.172422
0.171303
0.244509
0.238778
0.223109
0.211883
0.200916
0.187672
0.173338
0.164983
0.2124
0.249328
0.232824
0.22127
0.205959
0.185347
0.160777
0.13923
0.15887
0.245238
0.233939
0.223539
0.203644
0.174267
0.138655
0.104541
0.10148
0.236671
0.232387
0.221041
0.195665
0.159144
0.115653
0.0732868
0.0549291
0.233788
0.233242
0.216103
0.184313
0.142155
0.0941158
0.0477387
0.0237737
0.232687
0.226274
0.20076
0.163826
0.118879
0.0703851
0.0258875
0.0072152
0.23418
0.232473
0.237002
0.230574
0.219973
0.207708
0.204272
0.28055
0.244404
0.239036
0.236492
0.230404
0.217702
0.199623
0.184829
0.22348
0.252678
0.247205
0.242497
0.229633
0.205559
0.173165
0.14039
0.141966
0.251374
0.250585
0.245234
0.223151
0.186915
0.141087
0.0945419
0.0730876
0.247742
0.253674
0.24459
0.212886
0.166562
0.112156
0.0593302
0.0306107
0.25012
0.257775
0.240878
0.197796
0.143578
0.0851488
0.0326394
0.00918697
0.259125
0.251115
0.215698
0.166583
0.11017
0.053829
0.0126002
0.00225406
0.24832
0.24978
0.259621
0.272209
0.268746
0.25579
0.248585
0.325759
0.259189
0.258826
0.26378
0.264673
0.254312
0.232276
0.208913
0.233652
0.266725
0.266732
0.266937
0.25471
0.227528
0.187149
0.141876
0.123911
0.26488
0.269974
0.26752
0.242532
0.199692
0.14412
0.086038
0.0525042
0.259163
0.274917
0.268558
0.229511
0.173145
0.108592
0.048355
0.0184752
0.264465
0.285782
0.263177
0.208299
0.142196
0.0748888
0.0220204
0.00497722
0.281125
0.268399
0.223244
0.163001
0.0972313
0.0371123
0.00619321
0.00178303
0.260042
0.259339
0.27755
0.301479
0.311726
0.307489
0.297336
0.373023
0.274737
0.272125
0.28108
0.290724
0.287716
0.26505
0.232119
0.238849
0.281616
0.279729
0.279495
0.271089
0.245741
0.200091
0.141472
0.109034
0.274835
0.279608
0.278133
0.25441
0.209219
0.145337
0.0760931
0.0432427
0.262674
0.281459
0.281699
0.239103
0.17487
0.10061
0.0372849
0.0173049
0.271942
0.293401
0.27188
0.209018
0.131615
0.0574964
0.0149942
0.00745374
0.282986
0.268036
0.217303
0.147
0.0735544
0.0214555
0.00547324
0.00484977
0.161777
0.145389
0.123517
0.0964406
0.0654697
0.0337508
0.00905036
0.00227608
0.178257
0.163363
0.142923
0.116041
0.0839054
0.049304
0.0179433
0.00577303
0.191563
0.175242
0.156973
0.131794
0.100678
0.0654922
0.0313166
0.0155013
0.202075
0.182886
0.165491
0.143156
0.114958
0.0818039
0.0486151
0.0335183
0.207501
0.186232
0.170176
0.151808
0.128443
0.100344
0.0724212
0.0661055
0.202321
0.184919
0.172494
0.158546
0.140495
0.119374
0.100712
0.114165
0.194198
0.183844
0.174404
0.163135
0.148794
0.133481
0.123742
0.161159
0.170979
0.151314
0.123983
0.0908144
0.0548717
0.0215188
0.00363461
0.00110394
0.188501
0.17285
0.147454
0.114011
0.0756714
0.0374951
0.00934186
0.00198433
0.197448
0.186314
0.165364
0.134076
0.0961569
0.0556823
0.0198951
0.00571746
0.206358
0.194042
0.176827
0.149794
0.114823
0.0747353
0.0355884
0.0155992
0.210929
0.198992
0.185632
0.164564
0.134909
0.0983286
0.0605742
0.0408847
0.208069
0.201606
0.194774
0.17986
0.156137
0.126155
0.0964722
0.0930566
0.205831
0.211056
0.207637
0.193932
0.173388
0.149721
0.130887
0.157943
0.178205
0.152893
0.118778
0.0794704
0.0401783
0.0106121
0.00134934
0.000927366
0.198801
0.178476
0.145996
0.105651
0.0625502
0.0241013
0.0040748
0.00109011
0.209241
0.195721
0.168418
0.130014
0.085826
0.042407
0.0107759
0.002175
0.21529
0.205966
0.18525
0.151764
0.109461
0.063582
0.0228431
0.00597968
0.219701
0.214796
0.201549
0.175413
0.137685
0.0919814
0.0454764
0.0194198
0.220285
0.224898
0.221985
0.203602
0.171101
0.128769
0.0842435
0.0602235
0.217695
0.231044
0.254234
0.234152
0.201651
0.163538
0.128824
0.133799
0.182877
0.149881
0.108347
0.0639451
0.0247399
0.00443567
0.000760635
0.000966888
0.208543
0.179924
0.139401
0.0925206
0.0468409
0.0130646
0.00183028
0.000972577
0.221461
0.202217
0.166174
0.120243
0.0713157
0.0283557
0.00528514
0.0013211
0.228252
0.21788
0.189674
0.148006
0.0983643
0.0489233
0.0126792
0.00256567
0.23393
0.232629
0.21597
0.181924
0.134206
0.079554
0.0292772
0.00736309
0.239548
0.256621
0.253282
0.226683
0.181076
0.123271
0.0634167
0.0277582
0.237277
0.271949
0.309673
0.280621
0.228486
0.168771
0.111106
0.0841007
0.18782
0.146898
0.0985971
0.0508499
0.0151527
0.00261999
0.000849488
0.00124029
0.218823
0.181381
0.132891
0.080739
0.0344577
0.0078027
0.00146711
0.00121133
0.234067
0.206296
0.162409
0.110076
0.0585558
0.0189983
0.00348802
0.0014834
0.243034
0.226449
0.19072
0.141178
0.0861198
0.0360989
0.00781402
0.00221423
0.251065
0.249068
0.227005
0.183531
0.125731
0.0647321
0.017975
0.00415554
0.25977
0.287108
0.283812
0.244934
0.183344
0.110609
0.0426202
0.0118009
0.258843
0.314612
0.368368
0.324766
0.247739
0.163924
0.0844144
0.0399771
0.190946
0.141117
0.0850437
0.0360539
0.010376
0.00367554
0.00212753
0.0028047
0.224555
0.179865
0.122674
0.0651469
0.0226506
0.00632292
0.00263981
0.00273107
0.239929
0.206353
0.15451
0.0955104
0.0430174
0.0127756
0.00400613
0.00315549
0.249904
0.228397
0.185196
0.127509
0.0681498
0.023517
0.00636105
0.00399845
0.261375
0.257377
0.228567
0.173845
0.106306
0.0439518
0.0110517
0.00531066
0.269831
0.303878
0.299949
0.246256
0.166731
0.0826922
0.0227739
0.00799445
0.270238
0.339734
0.400761
0.340337
0.239859
0.135289
0.0477888
0.0161185
0.000170331
0.000105382
0.000107759
0.000113649
0.000117846
0.000119582
0.000118814
0.000115679
0.000170254
0.00010537
0.000107744
0.00011363
0.000117824
0.000119558
0.000118792
0.000115661
0.000170178
0.000105358
0.000107731
0.000113613
0.000117803
0.000119536
0.000118771
0.000115644
0.000170124
0.000105349
0.000107722
0.000113603
0.000117791
0.000119523
0.000118759
0.000115635
0.00017011
0.00010535
0.000107722
0.000113604
0.000117794
0.000119527
0.000118763
0.000115639
0.000170124
0.000105354
0.000107728
0.000113613
0.000117806
0.000119542
0.000118779
0.000115655
0.000170141
0.000105359
0.000107735
0.000113622
0.000117818
0.000119555
0.000118791
0.000115664
0.00018489
0.000114196
0.000116722
0.000122509
0.000126328
0.000127315
0.00012525
0.000120511
0.000184773
0.000114164
0.000116681
0.000122452
0.000126252
0.000127226
0.000125162
0.000120438
0.000184662
0.000114138
0.000116647
0.000122402
0.000126183
0.000127143
0.000125078
0.000120368
0.000184585
0.000114121
0.000116627
0.000122374
0.000126146
0.000127098
0.000125033
0.00012033
0.00018456
0.000114119
0.000116628
0.00012238
0.000126159
0.000127117
0.000125055
0.00012035
0.000184575
0.000114125
0.000116641
0.000122407
0.000126202
0.000127172
0.000125112
0.0001204
0.000184591
0.000114135
0.00011666
0.00012244
0.00012625
0.000127233
0.000125174
0.000120453
0.000206053
0.000131168
0.00013618
0.000144085
0.000149705
0.000151474
0.000147391
0.00013791
0.000205908
0.000131096
0.000136061
0.000143895
0.000149424
0.00015111
0.000147003
0.000137578
0.000205758
0.000131038
0.000135961
0.000143725
0.000149163
0.000150765
0.000146633
0.000137258
0.00020565
0.000130999
0.000135904
0.000143635
0.00014903
0.00015059
0.000146443
0.000137094
0.000205594
0.000130985
0.000135904
0.000143657
0.000149081
0.000150668
0.000146536
0.00013718
0.000205582
0.000130988
0.000135943
0.000143752
0.00014925
0.000150904
0.000146795
0.00013741
0.000205564
0.000131001
0.000135994
0.000143861
0.000149435
0.000151156
0.000147071
0.000137649
0.000314328
0.000180016
0.000176013
0.000189879
0.000212712
0.000230009
0.000227254
0.000203248
0.000313978
0.000179808
0.000175708
0.000189292
0.000211661
0.000228484
0.000225523
0.00020172
0.000313738
0.000179674
0.000175462
0.000188754
0.000210684
0.000227073
0.000223924
0.000200302
0.000313537
0.000179581
0.000175336
0.000188493
0.000210207
0.000226374
0.00022312
0.000199584
0.000313362
0.000179546
0.000175364
0.000188579
0.000210393
0.000226679
0.000223499
0.000199949
0.000313216
0.000179553
0.000175511
0.000188925
0.000211044
0.000227638
0.000224605
0.00020095
0.000313141
0.00017962
0.000175705
0.000189313
0.000211752
0.000228687
0.000225818
0.00020204
0.000414204
0.000250021
0.000271718
0.000319319
0.000405274
0.000485905
0.000502705
0.00043695
0.000414004
0.000249415
0.000270529
0.000317206
0.000401226
0.000479838
0.000495634
0.000430511
0.000414096
0.000248946
0.000269541
0.000315373
0.000397714
0.000474593
0.000489474
0.000424816
0.000413976
0.000248662
0.000269056
0.000314509
0.00039602
0.000472009
0.000486387
0.000421942
0.000413332
0.000248406
0.000269017
0.000314744
0.000396585
0.000472974
0.000487669
0.000423265
0.000412459
0.000248326
0.000269465
0.000315884
0.000398815
0.000476364
0.000491739
0.000427126
0.000411818
0.000248375
0.000270088
0.00031723
0.00040144
0.000480392
0.000496537
0.000431594
0.000562213
0.000369363
0.000448239
0.000626404
0.000928656
0.00120431
0.00130378
0.00115456
0.00055799
0.000366123
0.000443184
0.000617495
0.000912349
0.00118208
0.00127894
0.00113151
0.000555255
0.000364252
0.000439589
0.000610573
0.000899739
0.00116467
0.00125899
0.00111244
0.000553469
0.000363471
0.000438042
0.000607348
0.000893569
0.00115598
0.00124889
0.0011027
0.000551855
0.000363909
0.00043882
0.000608176
0.000894642
0.00115796
0.0012519
0.00110623
0.000551454
0.000365591
0.000441625
0.00061243
0.000901489
0.00116781
0.00126382
0.00111815
0.000552861
0.000368884
0.000445914
0.000618314
0.000911125
0.00118142
0.00127965
0.0011333
0.000170491
0.000105423
0.000107806
0.000113698
0.000117892
0.000119623
0.000118847
0.000115703
0.000170529
0.000105433
0.000107817
0.000113706
0.000117895
0.000119622
0.000118844
0.000115701
0.000170546
0.000105446
0.000107832
0.000113717
0.0001179
0.000119623
0.000118842
0.000115698
0.000170555
0.000105462
0.000107851
0.000113734
0.000117914
0.000119631
0.000118847
0.0001157
0.000170561
0.000105484
0.000107878
0.000113762
0.00011794
0.000119655
0.000118867
0.000115715
0.000170562
0.000105505
0.000107905
0.000113792
0.000117971
0.000119683
0.00011889
0.000115733
0.000170547
0.000105519
0.000107925
0.000113815
0.000117994
0.000119704
0.000118908
0.000115747
0.000185165
0.000114316
0.000116853
0.000122642
0.000126457
0.000127436
0.000125357
0.000120594
0.000185248
0.000114354
0.000116883
0.000122655
0.000126454
0.00012742
0.000125333
0.000120573
0.000185317
0.000114398
0.000116919
0.000122675
0.000126452
0.0001274
0.000125305
0.000120546
0.000185364
0.000114449
0.00011697
0.000122715
0.000126478
0.000127411
0.000125307
0.000120544
0.00018539
0.000114516
0.000117047
0.000122791
0.000126549
0.000127477
0.000125365
0.000120592
0.000185394
0.000114586
0.000117132
0.000122882
0.000126643
0.000127572
0.000125451
0.000120663
0.000185359
0.000114643
0.0001172
0.000122955
0.00012672
0.000127649
0.000125522
0.00012072
0.000206408
0.000131481
0.000136559
0.000144475
0.0001501
0.000151882
0.000147781
0.00013823
0.000206582
0.000131576
0.000136636
0.000144499
0.000150054
0.000151773
0.000147642
0.000138099
0.000206673
0.00013168
0.000136731
0.000144532
0.00015
0.000151644
0.000147478
0.000137948
0.000206696
0.000131806
0.000136878
0.00014464
0.000150051
0.000151642
0.000147446
0.00013791
0.000206615
0.000131966
0.000137101
0.000144864
0.000150267
0.000151856
0.000147652
0.000138088
0.000206473
0.000132143
0.000137367
0.000145156
0.000150583
0.000152196
0.000147989
0.000138378
0.000206267
0.000132298
0.000137597
0.000145404
0.000150849
0.000152483
0.000148277
0.000138626
0.000316489
0.000181211
0.000176929
0.000190785
0.000213966
0.00023163
0.000228985
0.000204711
0.000317383
0.000181527
0.000177017
0.000190702
0.000213706
0.000231168
0.000228389
0.000204124
0.000318367
0.000181965
0.000177201
0.000190626
0.000213396
0.000230631
0.000227715
0.000203473
0.000319374
0.000182551
0.000177593
0.0001908
0.000213457
0.000230583
0.000227583
0.000203314
0.00032035
0.00018344
0.000178325
0.000191326
0.000214065
0.000231336
0.000228412
0.000204069
0.000321241
0.000184606
0.000179344
0.000192128
0.000215062
0.000232597
0.0002298
0.000205322
0.00032189
0.000185915
0.000180423
0.000192876
0.000215924
0.000233679
0.000231004
0.000206419
0.000420301
0.000254098
0.000275417
0.000322949
0.000410633
0.000493411
0.000510905
0.000443966
0.000422986
0.000255354
0.00027602
0.000322886
0.000410061
0.000492195
0.00050912
0.000441994
0.00042629
0.00025695
0.00027686
0.000322871
0.000409481
0.000491016
0.000507357
0.000440006
0.000429666
0.000258954
0.00027833
0.000323722
0.000410142
0.000491557
0.000507578
0.000439905
0.000433056
0.000261946
0.000280797
0.000325819
0.00041251
0.000494751
0.000511177
0.000443225
0.00043655
0.000266417
0.000284456
0.00032916
0.000416174
0.000499674
0.00051677
0.000448442
0.000440277
0.000272318
0.000288757
0.000332704
0.000419385
0.000503989
0.000521719
0.00045309
0.000580233
0.000370118
0.000451477
0.000639496
0.000957286
0.00124089
0.0013404
0.00118557
0.000591531
0.000371608
0.000450595
0.000639882
0.000958932
0.00124103
0.00133824
0.00118179
0.000610896
0.000375427
0.000451004
0.000641532
0.000962536
0.00124348
0.00133806
0.0011793
0.000631434
0.000380153
0.00045301
0.000645976
0.000970745
0.00125158
0.00134393
0.00118267
0.000655917
0.000387487
0.000456961
0.000653432
0.000984403
0.00126741
0.00135936
0.0011963
0.000696043
0.000400624
0.000464105
0.000663804
0.00100229
0.00128828
0.00138031
0.00121554
0.000766878
0.000421531
0.000473902
0.000674215
0.00101988
0.00130853
0.00139996
0.0012332
0.000170535
0.000105516
0.000107921
0.000113811
0.00011799
0.000119702
0.000118906
0.000115745
0.000170528
0.000105494
0.000107893
0.000113781
0.00011796
0.000119673
0.000118882
0.000115726
0.00017051
0.000105466
0.000107857
0.000113741
0.000117921
0.000119638
0.000118852
0.000115704
0.000170488
0.000105437
0.000107822
0.000113705
0.000117887
0.000119609
0.000118829
0.000115686
0.000170468
0.000105417
0.000107797
0.000113682
0.000117869
0.000119595
0.00011882
0.000115681
0.000170438
0.000105402
0.00010778
0.000113668
0.00011786
0.000119592
0.00011882
0.000115682
0.000170389
0.000105391
0.000107769
0.000113659
0.000117856
0.000119591
0.000118821
0.000115684
0.000185334
0.000114635
0.000117192
0.000122946
0.000126711
0.00012764
0.000125514
0.000120713
0.000185331
0.000114561
0.000117103
0.000122854
0.000126616
0.000127545
0.000125427
0.000120642
0.000185294
0.000114468
0.000116994
0.000122739
0.0001265
0.000127433
0.000125325
0.000120559
0.000185239
0.00011438
0.000116896
0.000122643
0.00012641
0.000127349
0.000125253
0.000120501
0.000185175
0.000114313
0.000116827
0.000122586
0.000126369
0.000127324
0.00012524
0.000120494
0.000185097
0.000114263
0.000116783
0.000122557
0.00012636
0.000127333
0.000125258
0.000120512
0.000184985
0.000114226
0.000116754
0.000122541
0.000126361
0.000127348
0.000125279
0.000120533
0.000206228
0.000132279
0.000137575
0.000145379
0.000150821
0.000152452
0.000148247
0.000138601
0.000206378
0.00013208
0.000137294
0.00014508
0.000150503
0.00015211
0.000147905
0.000138306
0.000206488
0.000131845
0.000136959
0.000144723
0.000150127
0.000151713
0.000147514
0.000137972
0.000206537
0.000131632
0.000136674
0.000144442
0.000149857
0.000151448
0.000147261
0.000137756
0.000206502
0.000131468
0.000136478
0.000144284
0.000149761
0.000151407
0.000147254
0.000137761
0.000206402
0.00013134
0.000136352
0.000144217
0.000149778
0.000151496
0.000147378
0.000137879
0.000206218
0.000131246
0.000136272
0.000144186
0.000149815
0.000151593
0.000147504
0.000137998
0.000321699
0.000185852
0.000180387
0.000192822
0.000215825
0.000233533
0.000230844
0.000206288
0.000320705
0.000184407
0.000179199
0.000191961
0.000214808
0.000232243
0.000229408
0.000204983
0.000319418
0.000182988
0.000177988
0.000191002
0.000213629
0.000230764
0.000227792
0.000203536
0.000318122
0.000181872
0.000177078
0.000190338
0.000212862
0.000229823
0.000226769
0.000202619
0.000316895
0.000181096
0.000176537
0.000190049
0.000212662
0.000229703
0.000226728
0.000202633
0.000315797
0.00018055
0.000176265
0.000190043
0.000212859
0.000230097
0.000227243
0.000203139
0.000314927
0.000180241
0.00017618
0.000190116
0.000213094
0.000230521
0.000227789
0.000203674
0.000439856
0.000272308
0.000288692
0.000332511
0.000418824
0.00050318
0.000520846
0.000452373
0.000435179
0.000265928
0.000283945
0.000328564
0.000414918
0.000497835
0.000514747
0.000446701
0.000430344
0.000260492
0.000279509
0.000324607
0.000410491
0.000491882
0.000508046
0.000440537
0.000425912
0.000256705
0.000276346
0.00032194
0.000407455
0.000487808
0.000503519
0.000436437
0.000421793
0.000254043
0.00027431
0.000320594
0.000406214
0.000486502
0.000502481
0.00043585
0.000418188
0.000252118
0.000273139
0.000320251
0.000406417
0.000487168
0.000503639
0.000437263
0.000415586
0.000250877
0.000272538
0.000320291
0.000406988
0.000488334
0.000505314
0.000439091
0.00075405
0.000416858
0.000471608
0.000671794
0.00101598
0.00130403
0.00139563
0.00122972
0.000682189
0.000395868
0.000461031
0.000659189
0.000993978
0.00127816
0.00137041
0.00120729
0.000637705
0.000381385
0.00045302
0.00064644
0.000971525
0.00125171
0.00134408
0.00118361
0.000611544
0.000374692
0.00044887
0.0006373
0.000954375
0.0012315
0.00132439
0.00116642
0.000590555
0.000370524
0.000446968
0.000631608
0.000943355
0.00121982
0.00131491
0.00116001
0.000574285
0.000368364
0.000447183
0.000629873
0.000938577
0.00121557
0.0013131
0.00116057
0.000566028
0.000369196
0.000449162
0.000630407
0.000937608
0.00121579
0.00131533
0.00116418
0.000170158
0.000105362
0.000107737
0.000113625
0.000117821
0.000119558
0.000118795
0.000115667
0.000170172
0.00010536
0.000107734
0.00011362
0.000117813
0.000119548
0.000118783
0.000115655
0.000170179
0.00010536
0.000107733
0.000113616
0.000117806
0.000119539
0.000118774
0.000115646
0.000170209
0.000105364
0.000107739
0.000113621
0.000117809
0.00011954
0.000118773
0.000115645
0.000170272
0.000105377
0.000107753
0.000113637
0.000117826
0.000119556
0.000118788
0.000115656
0.00017035
0.000105392
0.000107771
0.000113659
0.00011785
0.000119581
0.00011881
0.000115674
0.000170419
0.000105407
0.00010779
0.000113681
0.000117875
0.000119606
0.000118833
0.000115692
0.000184616
0.000114139
0.000116664
0.000122446
0.000126257
0.00012724
0.000125181
0.000120458
0.000184649
0.000114141
0.000116658
0.000122426
0.000126223
0.000127195
0.000125133
0.000120415
0.000184678
0.000114149
0.000116659
0.000122414
0.000126196
0.000127155
0.000125089
0.000120377
0.000184732
0.000114166
0.000116673
0.000122423
0.000126197
0.000127149
0.000125078
0.000120364
0.000184824
0.000114198
0.000116711
0.000122468
0.000126249
0.000127205
0.000125132
0.000120408
0.000184938
0.000114238
0.000116761
0.000122532
0.000126329
0.000127297
0.000125222
0.000120482
0.000185038
0.000114281
0.000116815
0.0001226
0.000126413
0.000127392
0.000125316
0.00012056
0.000205607
0.000131016
0.00013601
0.000143883
0.000149463
0.00015119
0.000147105
0.000137678
0.000205703
0.000131034
0.000135994
0.000143814
0.000149326
0.000150994
0.000146886
0.000137484
0.000205778
0.000131066
0.000135996
0.00014376
0.0001492
0.000150804
0.000146671
0.000137291
0.000205873
0.000131119
0.000136041
0.000143783
0.000149191
0.000150765
0.000146615
0.000137233
0.000205986
0.000131199
0.000136149
0.000143919
0.000149363
0.000150975
0.000146834
0.000137421
0.000206119
0.000131294
0.000136296
0.000144129
0.000149654
0.000151341
0.000147219
0.000137749
0.000206249
0.000131394
0.000136449
0.000144349
0.000149957
0.000151722
0.00014762
0.000138092
0.000313258
0.000179651
0.000175731
0.000189368
0.000211851
0.000228828
0.000225974
0.000202174
0.000313573
0.00017966