/*--------------------------------*- C++ -*----------------------------------*\
| =========                 |                                                 |
| \\      /  F ield         | OpenFOAM: The Open Source CFD Toolbox           |
|  \\    /   O peration     | Version:  plus.master.MPPICInterFoam            |
|   \\  /    A nd           | Web:      www.OpenFOAM.com                      |
|    \\/     M anipulation  |                                                 |
\*---------------------------------------------------------------------------*/
FoamFile
{
    version     2.0;
    format      ascii;
    class       volVectorField;
    location    "2.8";
    object      U;
}
// * * * * * * * * * * * * * * * * * * * * * * * * * * * * * * * * * * * * * //

dimensions      [0 1 -1 0 0 0 0];

internalField   nonuniform List<vector> 
11822
(
(-0.000555584 -0.00168947 0.467472)
(0.00175672 -0.00644767 0.51265)
(0.00596966 -0.00807087 0.529076)
(0.00979217 -0.00704407 0.495375)
(0.0114096 -0.00401118 0.445595)
(0.00925281 -0.0026386 0.398624)
(0.00435483 -0.00366959 0.355923)
(-0.00493526 7.54988e-05 0.545088)
(-0.000236869 -0.00290033 0.677415)
(0.00608353 -0.00342195 0.743323)
(0.0125388 -0.00598443 0.631642)
(0.0152752 -0.00449042 0.506123)
(0.0118741 -0.00437474 0.430543)
(0.00483689 -0.0053184 0.371652)
(-0.00790283 0.00443807 0.624084)
(-0.00328112 0.00480004 0.880244)
(0.00469334 0.00726144 1.0199)
(0.0155765 -2.81394e-05 0.798241)
(0.0175807 -0.000506309 0.555794)
(0.013088 -0.00154617 0.447319)
(0.00526694 -0.00331693 0.376533)
(-0.00912963 0.0100161 0.606531)
(-0.0063996 0.0136022 0.838474)
(0.00336813 0.0106728 0.988375)
(0.013931 0.00972346 0.772759)
(0.0163557 0.00615979 0.546733)
(0.0118362 0.00308342 0.441967)
(0.00459159 -0.000203622 0.370754)
(-0.00556078 0.013113 0.528287)
(-0.00199373 0.0161514 0.635696)
(0.00462198 0.0155204 0.702854)
(0.0100545 0.0151054 0.602383)
(0.0120167 0.0105039 0.492613)
(0.00843906 0.00625773 0.417509)
(0.00264575 0.00179684 0.354468)
(-0.000358012 0.0120985 0.463466)
(0.00171045 0.0156454 0.503587)
(0.00534599 0.0171555 0.516177)
(0.00846003 0.0157227 0.483732)
(0.00876414 0.0110053 0.436183)
(0.00565004 0.00673085 0.384811)
(0.00130208 0.00202495 0.331046)
(0.00352027 0.00745288 0.409431)
(0.00365685 0.0105622 0.431012)
(0.00528624 0.0124503 0.433632)
(0.0067267 0.0116191 0.416888)
(0.00636234 0.00814868 0.387812)
(0.00388485 0.00540948 0.350313)
(0.00096164 0.000616811 0.301802)
(-0.00569515 -0.0107087 0.473518)
(-0.0023136 -0.0200406 0.507061)
(0.00616274 -0.0234836 0.517656)
(0.013752 -0.0200098 0.494483)
(0.0157129 -0.0132169 0.458821)
(0.0120582 -0.0106392 0.423137)
(0.00542658 -0.0124678 0.391609)
(-0.015004 -0.0106861 0.527767)
(-0.00897993 -0.02025 0.619685)
(0.00711152 -0.02236 0.66813)
(0.0204251 -0.0216934 0.583421)
(0.0233785 -0.0152584 0.502724)
(0.0160103 -0.0130903 0.446768)
(0.00514505 -0.0128533 0.394334)
(-0.0232735 -0.00194575 0.58092)
(-0.0192535 -0.00836585 0.820637)
(0.0063488 -0.00903778 0.918881)
(0.0261449 -0.0110801 0.716692)
(0.0288845 -0.00772662 0.534521)
(0.0191951 -0.00808852 0.456866)
(0.00680483 -0.00947409 0.393071)
(-0.0244985 0.01214 0.571106)
(-0.0203018 0.0202156 0.783902)
(0.0051763 0.0185682 0.893775)
(0.0238834 0.0132886 0.695257)
(0.0268941 0.00514404 0.527191)
(0.0174847 -0.000491944 0.450153)
(0.00632542 -0.00482215 0.38516)
(-0.0170774 0.0186737 0.522497)
(-0.0120249 0.0270009 0.597753)
(0.00374155 0.0268463 0.647298)
(0.0164648 0.0223934 0.564207)
(0.0185326 0.0126235 0.48913)
(0.0118966 0.0041621 0.428534)
(0.00378822 -0.00207696 0.369006)
(-0.00779138 0.0159471 0.477067)
(-0.00526511 0.0236552 0.507625)
(0.0027299 0.0259623 0.512572)
(0.00971196 0.0209213 0.485471)
(0.0103813 0.0122513 0.445779)
(0.00645629 0.00388362 0.399033)
(0.00177688 -0.00215939 0.345407)
(-0.00277288 0.00841971 0.436385)
(-0.00225148 0.0135102 0.449643)
(0.00172487 0.0161301 0.447351)
(0.00496679 0.0132049 0.430714)
(0.00490952 0.0083573 0.404011)
(0.00220432 0.00130249 0.365829)
(0.000125819 -0.00388933 0.312514)
(-0.0027677 -0.0085792 0.492833)
(-0.00225591 -0.0164652 0.517039)
(0.00325242 -0.0205031 0.523611)
(0.00819716 -0.0165847 0.507527)
(0.00778689 -0.0121031 0.481274)
(0.00307934 -0.012641 0.45309)
(-0.00348639 -0.0172403 0.423325)
(-0.0109033 -0.0113838 0.52903)
(-0.00831102 -0.0204747 0.575108)
(0.00412388 -0.0237626 0.598093)
(0.0136164 -0.0207293 0.556129)
(0.0134089 -0.0162701 0.512791)
(0.00507488 -0.0160679 0.468737)
(-0.00531344 -0.0164669 0.417745)
(-0.0215972 -0.00495389 0.555808)
(-0.0186381 -0.0117622 0.675965)
(0.00666607 -0.0189792 0.781941)
(0.0182313 -0.0128786 0.611875)
(0.0187534 -0.0112459 0.529236)
(0.00741488 -0.0126231 0.471963)
(-0.00400597 -0.0136845 0.411343)
(-0.0225956 0.00604989 0.552739)
(-0.0197489 0.0115196 0.644214)
(0.00417993 0.0161887 0.763914)
(0.0168441 0.00502515 0.599349)
(0.0168285 -0.00157732 0.522472)
(0.00606337 -0.00682492 0.463396)
(-0.00413037 -0.0102409 0.401324)
(-0.0157748 0.0104478 0.528516)
(-0.0134302 0.0187198 0.566558)
(-0.000796142 0.0208757 0.583984)
(0.00970893 0.0130925 0.542295)
(0.00841717 0.00330001 0.495723)
(0.00172584 -0.00401474 0.443734)
(-0.00517433 -0.00853832 0.385548)
(-0.0102021 0.0059869 0.500135)
(-0.00964392 0.0134908 0.519752)
(-0.00304173 0.0165233 0.516975)
(0.00223278 0.0095549 0.494435)
(0.00148412 0.00107962 0.459546)
(-0.00182434 -0.00566552 0.415298)
(-0.00501075 -0.00902369 0.361267)
(-0.00832658 -0.00298261 0.472375)
(-0.00879312 0.00377558 0.472882)
(-0.00596333 0.00569611 0.463735)
(-0.00334395 0.00208712 0.445911)
(-0.00372449 -0.00267636 0.418643)
(-0.00559015 -0.00843119 0.376801)
(-0.00618706 -0.0109536 0.31728)
(0.00199796 -0.00385175 0.520959)
(-0.00217727 -0.00638522 0.538163)
(-0.00269006 -0.00852634 0.541724)
(-0.00298846 -0.00744845 0.528326)
(-0.00585524 -0.00797676 0.508475)
(-0.011518 -0.0112616 0.488204)
(-0.0174159 -0.0140517 0.445516)
(-0.00336245 -0.00792227 0.546218)
(-0.00580122 -0.0119976 0.57849)
(-0.00313111 -0.015118 0.590222)
(-0.000701999 -0.0129011 0.56449)
(-0.0044947 -0.0127942 0.531167)
(-0.0116996 -0.0148002 0.492256)
(-0.0194381 -0.0148608 0.436874)
(-0.0108998 -0.00708818 0.562876)
(-0.0130815 -0.00900072 0.616318)
(-0.0035118 -0.0131764 0.6941)
(0.00144598 -0.0111435 0.590313)
(-0.00295423 -0.0123409 0.54043)
(-0.0119897 -0.0143297 0.488706)
(-0.0194659 -0.0144353 0.427008)
(-0.0123292 -0.00350984 0.56088)
(-0.0147784 -0.000545249 0.602824)
(-0.00563068 0.00370876 0.648446)
(0.00164929 -0.00482293 0.581109)
(-0.00415255 -0.00930984 0.532097)
(-0.012524 -0.01244 0.478616)
(-0.0189795 -0.0143459 0.415755)
(-0.0101134 -0.00321111 0.54498)
(-0.0125393 0.00192188 0.570157)
(-0.00805811 0.00551902 0.573779)
(-0.00406991 -0.00265912 0.54808)
(-0.007748 -0.00903863 0.508728)
(-0.0128785 -0.0129498 0.460689)
(-0.0175347 -0.015397 0.400078)
(-0.010422 -0.00790643 0.525996)
(-0.012074 -0.00340582 0.534905)
(-0.0103838 -0.00202484 0.528554)
(-0.00894121 -0.00729804 0.507495)
(-0.0110649 -0.012437 0.474865)
(-0.0144834 -0.0163328 0.430246)
(-0.0169851 -0.0179706 0.372024)
(-0.0107105 -0.0152479 0.508579)
(-0.0138354 -0.00913462 0.495247)
(-0.0135802 -0.00966333 0.478584)
(-0.0124297 -0.0124164 0.460328)
(-0.0134507 -0.0161956 0.430113)
(-0.0149594 -0.0191026 0.380583)
(-0.0155962 -0.0200163 0.314984)
(0.00164219 -0.00253739 0.553352)
(-0.00483609 -0.00105686 0.567405)
(-0.0103395 -0.000328119 0.5682)
(-0.0150798 -0.00177247 0.554504)
(-0.0200198 -0.00463646 0.538439)
(-0.0258334 -0.00798816 0.520375)
(-0.0291106 -0.00631489 0.456926)
(0.000607615 -0.00785276 0.572214)
(-0.00506537 -0.00622645 0.602212)
(-0.0102523 -0.00598993 0.609977)
(-0.0150597 -0.00717135 0.582349)
(-0.0208167 -0.00898226 0.555116)
(-0.0264048 -0.0107127 0.516809)
(-0.0304498 -0.00939015 0.451101)
(-0.00252677 -0.0112135 0.583587)
(-0.00857671 -0.00976678 0.630856)
(-0.0129626 -0.00867945 0.656036)
(-0.0162643 -0.0109155 0.60357)
(-0.0214043 -0.0121657 0.560011)
(-0.0271235 -0.0128748 0.50741)
(-0.0308416 -0.011629 0.439375)
(-0.00443991 -0.0132557 0.579205)
(-0.0101105 -0.0118486 0.616221)
(-0.0125633 -0.0099879 0.626448)
(-0.0146188 -0.0126766 0.593885)
(-0.0204493 -0.0140929 0.550379)
(-0.026298 -0.0144805 0.497153)
(-0.0300906 -0.0143735 0.428995)
(-0.00645548 -0.0156737 0.565775)
(-0.0114456 -0.0140788 0.586491)
(-0.013596 -0.0124822 0.58609)
(-0.0149341 -0.0154126 0.56328)
(-0.0187165 -0.0169459 0.528442)
(-0.0235545 -0.0173922 0.482583)
(-0.0277424 -0.0178874 0.414298)
(-0.00911035 -0.0190028 0.550491)
(-0.012736 -0.0169987 0.55344)
(-0.014869 -0.0176719 0.543496)
(-0.0156479 -0.0201259 0.523416)
(-0.0178716 -0.021413 0.494483)
(-0.0219106 -0.0221325 0.452729)
(-0.025289 -0.0225844 0.381631)
(-0.010326 -0.0233097 0.539116)
(-0.015128 -0.0190575 0.514796)
(-0.0170079 -0.0218407 0.491087)
(-0.0166827 -0.0242637 0.472043)
(-0.0169107 -0.0257383 0.446419)
(-0.0185455 -0.0256747 0.388574)
(-0.0214398 -0.0256064 0.312353)
(0.0034227 -0.00245812 0.581608)
(-0.00601096 0.00450042 0.594586)
(-0.0170277 0.00694026 0.594053)
(-0.0260697 0.00381333 0.581761)
(-0.0307028 -0.00125007 0.561007)
(-0.0313936 -0.00473692 0.536361)
(-0.0310406 -0.00251694 0.459221)
(0.00680268 -0.00940815 0.597983)
(-0.00353529 -0.00278034 0.629679)
(-0.0176819 0.000141763 0.641106)
(-0.028844 -0.00380075 0.615526)
(-0.0349707 -0.0054816 0.579147)
(-0.0341389 -0.00586392 0.532707)
(-0.0338799 -0.00521128 0.459966)
(0.00686266 -0.018907 0.606313)
(-0.00386683 -0.0154687 0.659775)
(-0.0222 -0.0129137 0.696176)
(-0.0334133 -0.0140956 0.631177)
(-0.0355421 -0.0120779 0.582055)
(-0.034479 -0.00980316 0.523032)
(-0.0338004 -0.00792698 0.447866)
(0.00449622 -0.0268717 0.601249)
(-0.00526192 -0.0267855 0.640226)
(-0.0184865 -0.0253985 0.65608)
(-0.0271132 -0.0216633 0.615308)
(-0.0305532 -0.0175866 0.571565)
(-0.0311997 -0.0137818 0.51517)
(-0.0325004 -0.0109697 0.441107)
(-0.000581726 -0.0301887 0.583168)
(-0.00754532 -0.0315036 0.60445)
(-0.0155044 -0.0298259 0.603009)
(-0.0205315 -0.026615 0.583362)
(-0.0228936 -0.0217293 0.549202)
(-0.0249178 -0.0174597 0.507253)
(-0.0293515 -0.0157449 0.431294)
(-0.00463377 -0.028086 0.563727)
(-0.00907299 -0.0286284 0.566658)
(-0.0138778 -0.0295948 0.556517)
(-0.0158986 -0.0288937 0.53713)
(-0.0159467 -0.0256235 0.513261)
(-0.0184537 -0.0215179 0.484012)
(-0.024673 -0.0219552 0.392727)
(-0.00721398 -0.0251165 0.553829)
(-0.0117336 -0.0234345 0.525773)
(-0.0144372 -0.0276455 0.498844)
(-0.0142981 -0.0296877 0.476835)
(-0.0130761 -0.0291039 0.451824)
(-0.0152197 -0.0255219 0.403359)
(-0.0212616 -0.0264534 0.315015)
(-0.00113664 -0.004046 0.308593)
(-0.00314859 -0.00179799 0.254487)
(-0.00456775 -0.00128801 0.206101)
(-0.00515202 -0.000717875 0.15775)
(-0.00499219 -0.00039381 0.109484)
(-0.004214 -0.000433059 0.0622286)
(-0.00284553 -0.00102783 0.01756)
(-0.00190036 -0.00148177 -0.0264524)
(-0.00169235 -0.00477138 0.31477)
(-0.00445855 -0.00282388 0.263402)
(-0.0057147 -0.00214123 0.211436)
(-0.00592371 -0.00121187 0.159271)
(-0.00514909 -0.000444416 0.107519)
(-0.00371742 -0.000178296 0.057143)
(-0.00179842 -0.000888892 0.00998097)
(-0.00112993 -0.00216377 -0.0315403)
(-0.00147982 -0.00405138 0.315459)
(-0.00510043 -0.00375568 0.261609)
(-0.00666393 -0.00341433 0.207689)
(-0.00664689 -0.00281022 0.153999)
(-0.00544006 -0.00210786 0.101238)
(-0.00347911 -0.00160618 0.0504742)
(-0.00102579 -0.00179455 0.0035877)
(-0.000259785 -0.00267311 -0.033819)
(-0.00158455 -0.00249842 0.309018)
(-0.00503403 -0.00388227 0.253799)
(-0.00639578 -0.00480615 0.199139)
(-0.00610693 -0.0051881 0.145191)
(-0.00461838 -0.0050044 0.0926309)
(-0.00241886 -0.00430633 0.0425448)
(3.04919e-05 -0.00329117 -0.00319599)
(0.000623286 -0.00258414 -0.0359362)
(-0.00225542 -0.00162829 0.295674)
(-0.00470682 -0.00439302 0.240936)
(-0.00514833 -0.00641827 0.187046)
(-0.00427759 -0.00768476 0.133844)
(-0.00254797 -0.0079499 0.0820086)
(-0.000417631 -0.00694467 0.0327531)
(0.00135051 -0.0045904 -0.0114472)
(0.00123249 -0.00253717 -0.0385833)
(-0.00198323 -0.00176869 0.275557)
(-0.00294406 -0.00517383 0.223057)
(-0.00254117 -0.00751373 0.171561)
(-0.001317 -0.00898628 0.120268)
(0.000340126 -0.0092592 0.0699021)
(0.00206248 -0.00791589 0.0218126)
(0.00283018 -0.00500663 -0.0198871)
(0.00202936 -0.00298229 -0.0407553)
(-0.000368091 -0.00296699 0.245974)
(-0.000107881 -0.00552713 0.199807)
(0.000357839 -0.0072146 0.152761)
(0.00132236 -0.00813205 0.1053)
(0.00253005 -0.00810367 0.0584414)
(0.00384838 -0.00686701 0.0135977)
(0.00444792 -0.00486209 -0.0241492)
(0.00356249 -0.00375485 -0.0414586)
(-0.00214055 -0.00989664 0.327336)
(-0.00385192 -0.00663922 0.266997)
(-0.00492537 -0.00438998 0.213487)
(-0.00500544 -0.00252758 0.15987)
(-0.00447546 -0.00136715 0.107082)
(-0.00344878 -0.000829093 0.056159)
(-0.00181259 -0.00121889 0.0087703)
(-0.00111702 -0.00153472 -0.0298964)
(-0.00307504 -0.0100422 0.33239)
(-0.00608912 -0.00691139 0.275447)
(-0.00674229 -0.00461071 0.218146)
(-0.00613641 -0.00229203 0.161169)
(-0.00463538 -0.00066765 0.105377)
(-0.00273416 -9.23996e-05 0.0519881)
(-0.000780984 -0.000994774 0.00298085)
(-0.000604772 -0.0023179 -0.0320496)
(-0.00199578 -0.00915262 0.330068)
(-0.0062198 -0.0076954 0.272138)
(-0.00743772 -0.00592247 0.213603)
(-0.0067317 -0.00396011 0.155717)
(-0.00478699 -0.00225857 0.0995483)
(-0.00226477 -0.001298 0.0464067)
(3.91115e-05 -0.00153118 -0.00143001)
(0.000178975 -0.00247074 -0.0325924)
(-0.00164935 -0.00710664 0.321979)
(-0.00565338 -0.00775967 0.262959)
(-0.0067314 -0.00760212 0.204102)
(-0.00588308 -0.00676312 0.146416)
(-0.00381584 -0.00542207 0.0909066)
(-0.00114535 -0.00383434 0.038877)
(0.000999487 -0.0023839 -0.00689328)
(0.000941898 -0.00180396 -0.0335108)
(-0.00224449 -0.00591477 0.30805)
(-0.00479776 -0.0083467 0.248452)
(-0.00491421 -0.009463 0.190464)
(-0.00365861 -0.00957423 0.133699)
(-0.00161993 -0.00847126 0.0791489)
(0.000699903 -0.00606692 0.0282606)
(0.00182411 -0.00291117 -0.0142246)
(0.00116517 -0.00131391 -0.0350122)
(-0.00195886 -0.00591704 0.285571)
(-0.00262312 -0.00891727 0.228187)
(-0.0020119 -0.0103413 0.172447)
(-0.000633223 -0.0106527 0.117568)
(0.00103311 -0.00945174 0.0645463)
(0.00258624 -0.00644493 0.015058)
(0.00254063 -0.00297783 -0.0219636)
(0.00151553 -0.00169841 -0.036162)
(-0.000575812 -0.00644991 0.251774)
(-0.000218899 -0.00830042 0.201331)
(0.00028048 -0.00908191 0.15031)
(0.00132142 -0.00898829 0.0994847)
(0.0025757 -0.00778845 0.0502289)
(0.00378475 -0.00536303 0.00440116)
(0.00386915 -0.00337215 -0.026182)
(0.00286378 -0.0028686 -0.036622)
(-0.008612 -0.0113191 0.341686)
(-0.00828178 -0.007024 0.276227)
(-0.00760809 -0.00381897 0.216661)
(-0.00654931 -0.00158846 0.157662)
(-0.0051895 -0.000399861 0.100594)
(-0.00350939 -0.000300332 0.046857)
(-0.00168013 -0.00116044 -0.00117056)
(-0.000936445 -0.00176319 -0.0303231)
(-0.0114615 -0.0121692 0.348565)
(-0.0122552 -0.00760582 0.284003)
(-0.0108501 -0.00382249 0.22088)
(-0.00837964 -0.000865025 0.159009)
(-0.00551366 0.000687997 0.0994443)
(-0.00271067 0.000449929 0.0437694)
(-0.000878091 -0.00136078 -0.00436311)
(-0.00069865 -0.00272355 -0.0306242)
(-0.0109375 -0.0123296 0.344488)
(-0.0131114 -0.00908829 0.279869)
(-0.0120044 -0.00591495 0.216108)
(-0.00924207 -0.00303894 0.153957)
(-0.00569957 -0.00108001 0.0945919)
(-0.00204239 -0.000560534 0.039568)
(0.000131762 -0.00148676 -0.00663216)
(0.000156065 -0.00251368 -0.0305012)
(-0.0103243 -0.011485 0.335122)
(-0.0123459 -0.010716 0.269511)
(-0.0111533 -0.00908062 0.205941)
(-0.00838008 -0.00692605 0.144465)
(-0.00479546 -0.00465511 0.0861714)
(-0.000980607 -0.00266863 0.0325809)
(0.00103759 -0.00142992 -0.0105366)
(0.000849695 -0.00119141 -0.0308223)
(-0.00957443 -0.0115401 0.31836)
(-0.00987783 -0.0126094 0.253146)
(-0.00834227 -0.0121295 0.190594)
(-0.00573859 -0.0105696 0.13025)
(-0.0026739 -0.00788382 0.0732229)
(0.000335729 -0.00427297 0.0213657)
(0.00118986 -0.00120582 -0.0164155)
(0.000751468 -0.000257411 -0.0316213)
(-0.00750358 -0.0123448 0.290914)
(-0.00650711 -0.0135609 0.2291)
(-0.0049 -0.0132938 0.169044)
(-0.00274108 -0.0118654 0.110755)
(-0.000507581 -0.00880591 0.0556062)
(0.00116295 -0.00433076 0.0065531)
(0.00107261 -0.00136823 -0.0222556)
(0.000661227 -0.000636083 -0.0321524)
(-0.00545586 -0.0127684 0.251514)
(-0.00432562 -0.0127376 0.197221)
(-0.00302372 -0.0119134 0.142402)
(-0.00129998 -0.0103349 0.0885676)
(0.000525796 -0.00761397 0.0376944)
(0.00189293 -0.00423329 -0.00529019)
(0.00222309 -0.0027173 -0.025267)
(0.00186439 -0.00222864 -0.0326022)
(-0.0175778 -0.0070016 0.348913)
(-0.0149966 -0.00298144 0.278154)
(-0.0129256 -0.000142797 0.212734)
(-0.0105774 0.00144287 0.149017)
(-0.00802902 0.00161454 0.0886721)
(-0.00527003 0.000366051 0.0336534)
(-0.00291413 -0.00134888 -0.00956952)
(-0.00147865 -0.00239832 -0.0289432)
(-0.0220106 -0.00947981 0.357327)
(-0.019615 -0.00439972 0.286201)
(-0.0160295 -0.000654853 0.217616)
(-0.0118439 0.00169911 0.151368)
(-0.00768703 0.00206115 0.0889143)
(-0.00396979 0.000217253 0.0323864)
(-0.00205429 -0.00239679 -0.0101882)
(-0.00115208 -0.00360303 -0.028742)
(-0.0222025 -0.0117914 0.353782)
(-0.0209076 -0.00740365 0.282189)
(-0.0172378 -0.00379502 0.213547)
(-0.0124476 -0.00104868 0.147526)
(-0.00736759 0.00016435 0.0856026)
(-0.00265852 -0.000515702 0.0299405)
(-0.00051567 -0.00219118 -0.0108773)
(1.3684e-05 -0.003149 -0.0286302)
(-0.021353 -0.0136486 0.343375)
(-0.0200703 -0.0112792 0.271475)
(-0.0164426 -0.00851461 0.203366)
(-0.0116673 -0.00570058 0.138348)
(-0.00649177 -0.0032786 0.0777534)
(-0.00157055 -0.00164302 0.0238416)
(0.000453596 -0.0010497 -0.0134054)
(0.000782463 -0.0010554 -0.0288319)
(-0.0190517 -0.0159399 0.323373)
(-0.01693 -0.0149978 0.253419)
(-0.0135623 -0.0129656 0.186445)
(-0.00936474 -0.0100665 0.122793)
(-0.00496468 -0.00639252 0.0639074)
(-0.00110826 -0.0023866 0.0129278)
(-5.69246e-06 -0.000127373 -0.0175427)
(0.000453032 0.000524064 -0.0293702)
(-0.0163486 -0.0184155 0.291653)
(-0.0136172 -0.0173721 0.225116)
(-0.0103901 -0.0154205 0.160946)
(-0.00689762 -0.0122394 0.0998239)
(-0.00359288 -0.00766383 0.0437216)
(-0.00134017 -0.00264599 -0.00118039)
(-0.000643927 -0.000537875 -0.0213024)
(0.000126983 0.00028095 -0.0297664)
(-0.0136365 -0.019521 0.245589)
(-0.011207 -0.0176705 0.18747)
(-0.00849471 -0.0153003 0.129341)
(-0.00556757 -0.0120619 0.0735083)
(-0.00276027 -0.00782191 0.0229263)
(-0.000564537 -0.00390882 -0.0114405)
(0.000491335 -0.00261499 -0.0233362)
(0.00124447 -0.00160684 -0.0304723)
(-0.0263578 -4.16374e-05 0.347243)
(-0.0227281 0.00228622 0.273404)
(-0.0191957 0.00393937 0.201767)
(-0.0152576 0.00415539 0.133108)
(-0.0111443 0.00268763 0.0694661)
(-0.00716803 -0.000368106 0.013568)
(-0.0044045 -0.00242384 -0.021764)
(-0.00205719 -0.00381445 -0.0351801)
(-0.0295286 -0.00377787 0.359297)
(-0.0253918 -0.000509603 0.282777)
(-0.0203552 0.00205203 0.208263)
(-0.01472 0.00301845 0.137249)
(-0.00918539 0.00170941 0.071644)
(-0.00457146 -0.00172069 0.0145091)
(-0.00286311 -0.00408533 -0.021009)
(-0.00128757 -0.0051854 -0.0350261)
(-0.0300417 -0.00798448 0.357794)
(-0.0261694 -0.00439746 0.280178)
(-0.0207081 -0.00150254 0.205818)
(-0.014214 0.000234273 0.135153)
(-0.00759971 0.000148569 0.0699788)
(-0.00192577 -0.00176217 0.0135964)
(-0.000311075 -0.00342953 -0.0209918)
(0.000656022 -0.00422636 -0.0350154)
(-0.0293428 -0.0122474 0.347737)
(-0.0255829 -0.00956494 0.26996)
(-0.0200534 -0.0067055 0.196206)
(-0.0133698 -0.00410747 0.126581)
(-0.00643258 -0.00219822 0.0626898)
(-0.000528758 -0.00123668 0.00839268)
(0.00091247 -0.00109691 -0.022637)
(0.00178559 -0.00114941 -0.0352118)
(-0.0270931 -0.0170957 0.32668)
(-0.0231311 -0.0150608 0.250588)
(-0.0177626 -0.0121801 0.177988)
(-0.011566 -0.00863045 0.109942)
(-0.00537248 -0.00458026 0.0481748)
(-0.000836145 -0.000882746 -0.00150593)
(-2.86234e-05 0.000638352 -0.0257451)
(0.00123052 0.00126528 -0.0357959)
(-0.0229676 -0.0212416 0.290764)
(-0.0189824 -0.0191182 0.218102)
(-0.0142007 -0.0159263 0.148853)
(-0.00916545 -0.0114371 0.0840784)
(-0.00461687 -0.00577906 0.0263602)
(-0.0018395 -0.00115896 -0.0135231)
(-0.00107474 0.00020181 -0.0285904)
(0.000498207 0.00125221 -0.0363025)
(-0.0191504 -0.0233786 0.237356)
(-0.0155669 -0.0205945 0.174335)
(-0.0116252 -0.0169749 0.112224)
(-0.00760713 -0.0122619 0.0538932)
(-0.00423318 -0.00682814 0.0041654)
(-0.00161562 -0.00309775 -0.0220548)
(-0.00021576 -0.00210622 -0.0306386)
(0.00136535 -0.000623458 -0.0372553)
(-0.0288685 0.00233239 0.340254)
(-0.0260217 0.00397843 0.2625)
(-0.0226408 0.00515732 0.183972)
(-0.0188434 0.00520888 0.109826)
(-0.0152256 0.00350795 0.0437314)
(-0.0115363 0.00060893 -0.00640237)
(-0.00829609 -0.000935196 -0.0296037)
(-0.00217703 -0.00554637 -0.0344321)
(-0.0323788 -0.000921057 0.356987)
(-0.0280909 0.00100411 0.273208)
(-0.0223715 0.00272063 0.191817)
(-0.0161782 0.00291001 0.115739)
(-0.0109478 0.00101451 0.0481683)
(-0.00710559 -0.00201176 -0.00301366)
(-0.00563309 -0.00311 -0.0268123)
(-0.000255272 -0.00629335 -0.0312627)
(-0.0322064 -0.00496053 0.35757)
(-0.0281336 -0.00251491 0.273045)
(-0.0218287 -0.000329016 0.19138)
(-0.0144667 0.000579192 0.115404)
(-0.00799718 -0.000208228 0.0482258)
(-0.00325556 -0.00206471 -0.00220818)
(-0.00279821 -0.00286029 -0.0255039)
(0.00197898 -0.00476952 -0.0294017)
(-0.032263 -0.0090479 0.349972)
(-0.0282753 -0.00695054 0.264415)
(-0.0216495 -0.00465459 0.18296)
(-0.0138301 -0.0026935 0.107877)
(-0.00696228 -0.00148166 0.0422345)
(-0.00169445 -0.000973339 -0.00521541)
(-0.00151204 -0.000889809 -0.0255214)
(0.00331398 -0.000990523 -0.0281236)
(-0.0310492 -0.0151425 0.330364)
(-0.0267496 -0.0131175 0.244746)
(-0.0201773 -0.0103532 0.164433)
(-0.0130433 -0.00703346 0.0913161)
(-0.00726114 -0.00353578 0.0290451)
(-0.00244755 -0.000592209 -0.0119623)
(-0.00237409 0.000254654 -0.0267422)
(0.00277081 0.00198845 -0.0275756)
(-0.025007 -0.0209153 0.291444)
(-0.0213871 -0.0186043 0.209624)
(-0.0163383 -0.0152896 0.133431)
(-0.0113297 -0.0107491 0.06483)
(-0.00752153 -0.0056386 0.00973685)
(-0.0036637 -0.00178139 -0.0198595)
(-0.00304486 -0.000961819 -0.0279912)
(0.00216206 0.00219097 -0.0273759)
(-0.0208709 -0.0246169 0.230644)
(-0.0176885 -0.0218975 0.16048)
(-0.0139772 -0.0182018 0.0932731)
(-0.0106168 -0.0134533 0.0336121)
(-0.00708579 -0.00794981 -0.00878693)
(-0.00343625 -0.00409565 -0.0257768)
(-0.00194811 -0.0032122 -0.0293193)
(0.00261419 0.00105989 -0.0279327)
(0.00660217 0.00460001 0.37608)
(0.00913172 0.00144892 0.342421)
(0.0106615 -0.00116126 0.305483)
(0.0107947 -0.00266689 0.264697)
(0.00961358 -0.0033192 0.222229)
(0.00755277 -0.00303896 0.179327)
(0.00489979 -0.00248248 0.134655)
(0.001889 -0.00244807 0.0767629)
(0.00205095 0.00981164 0.416304)
(0.00601385 0.00737145 0.375525)
(0.00904593 0.00512365 0.335606)
(0.010761 0.00345203 0.292144)
(0.0107684 0.0021931 0.241746)
(0.00927779 0.00174057 0.193025)
(0.0067849 0.00136888 0.142665)
(0.00367731 0.000248649 0.0777684)
(-0.00383792 0.0109209 0.455005)
(0.00031793 0.0090096 0.40401)
(0.00429162 0.00687408 0.358764)
(0.00697467 0.00509854 0.310721)
(0.00773182 0.00346345 0.255789)
(0.00694357 0.00226519 0.203306)
(0.00514777 0.00114657 0.149455)
(0.00283475 -0.000243281 0.0802803)
(-0.00848798 0.00806443 0.486056)
(-0.00457645 0.00670135 0.42439)
(-0.000221747 0.00495065 0.374412)
(0.00312347 0.00292046 0.324504)
(0.00459793 0.000778448 0.268949)
(0.00460843 -0.001283 0.216271)
(0.00365246 -0.00320222 0.162161)
(0.00217756 -0.00486488 0.0919413)
(-0.00841041 0.00326777 0.491129)
(-0.00450814 0.00233029 0.428635)
(-6.21366e-05 0.00123539 0.380076)
(0.00349135 -0.000723027 0.33237)
(0.0054195 -0.00310144 0.280553)
(0.00588438 -0.00572846 0.231381)
(0.00544484 -0.00825661 0.180172)
(0.00445693 -0.0102606 0.112211)
(-0.00351494 -4.75613e-05 0.462426)
(9.9756e-05 7.41851e-05 0.413028)
(0.00345077 -8.93943e-08 0.371978)
(0.0063906 -0.00141153 0.331166)
(0.00828007 -0.0037878 0.28798)
(0.00896405 -0.00665042 0.246113)
(0.00884232 -0.00958798 0.201605)
(0.00824419 -0.0120168 0.140712)
(0.00124026 -5.71489e-05 0.421251)
(0.00357046 0.000804565 0.385112)
(0.00562181 0.00128653 0.351722)
(0.00746306 0.000420321 0.319117)
(0.00877764 -0.00134238 0.28647)
(0.00943134 -0.00370158 0.253896)
(0.00957486 -0.00637804 0.218752)
(0.00957874 -0.00870532 0.16911)
(0.00339317 0.00419936 0.40669)
(0.00864898 -0.000370713 0.372091)
(0.0113974 -0.00415243 0.328605)
(0.0110763 -0.0057929 0.279201)
(0.00917839 -0.00617032 0.228635)
(0.00642239 -0.0056813 0.178469)
(0.00339815 -0.00501719 0.127751)
(0.000289746 -0.00468757 0.0643417)
(-0.00260656 0.01136 0.437222)
(0.00394847 0.00742565 0.397524)
(0.00879154 0.00496995 0.353459)
(0.0110338 0.00265834 0.303156)
(0.0107565 0.000563971 0.245307)
(0.00873854 -0.000738534 0.189565)
(0.00562733 -0.00183836 0.133381)
(0.00207411 -0.00337063 0.0637615)
(-0.0117042 0.0132608 0.46559)
(-0.00424347 0.00922314 0.418819)
(0.00200135 0.00655997 0.37133)
(0.00585979 0.0038496 0.316931)
(0.0071439 0.00134984 0.255304)
(0.00652171 -0.000704505 0.196499)
(0.00461365 -0.00243081 0.137515)
(0.00222203 -0.00390434 0.0647506)
(-0.0189982 0.00800108 0.487596)
(-0.0108506 0.0051922 0.433523)
(-0.00372617 0.0023493 0.382748)
(0.00121225 -0.000467386 0.327375)
(0.0037292 -0.00300246 0.266743)
(0.00442703 -0.00531945 0.208492)
(0.00372897 -0.0071337 0.149708)
(0.00236905 -0.00792169 0.0761959)
(-0.0182021 -0.0013339 0.489966)
(-0.00973139 -0.00210834 0.436981)
(-0.00241333 -0.00391691 0.388913)
(0.00253984 -0.00635362 0.336837)
(0.00525964 -0.00857022 0.2801)
(0.00637914 -0.0107609 0.225712)
(0.00618078 -0.0125077 0.169945)
(0.00512841 -0.0127814 0.0983279)
(-0.00943628 -0.00725381 0.468142)
(-0.001988 -0.0056744 0.424987)
(0.00367452 -0.00562745 0.384091)
(0.00763309 -0.00713047 0.339731)
(0.00986523 -0.00921416 0.291652)
(0.0106954 -0.0115466 0.245013)
(0.0104639 -0.0136737 0.196089)
(0.00942712 -0.0144852 0.131114)
(-0.00123721 -0.00606498 0.434696)
(0.0032648 -0.00363723 0.400895)
(0.00670047 -0.00245053 0.366317)
(0.00926594 -0.0029431 0.330892)
(0.0108229 -0.00437225 0.294734)
(0.0114116 -0.00639253 0.258374)
(0.0112526 -0.00858225 0.219527)
(0.0106881 -0.00983853 0.166183)
(-0.00241237 -0.00406854 0.453316)
(0.00456108 -0.00744894 0.419973)
(0.0107388 -0.00974217 0.358488)
(0.0110446 -0.0105388 0.294817)
(0.00876883 -0.00994258 0.233493)
(0.00554595 -0.0089845 0.174155)
(0.00209757 -0.00774551 0.116311)
(-0.000920432 -0.00648543 0.0474352)
(-0.00405855 0.003519 0.46722)
(0.00351773 0.00114431 0.428231)
(0.00990599 0.000481274 0.376565)
(0.0128081 -0.00172717 0.314113)
(0.0117304 -0.00381653 0.247615)
(0.008637 -0.00551762 0.183293)
(0.00453691 -0.00662166 0.120609)
(0.000521419 -0.00727948 0.0470043)
(-0.0092217 0.00584089 0.483907)
(-0.00161367 0.00312163 0.437901)
(0.00485451 0.00146679 0.384333)
(0.00869751 -0.000982371 0.321233)
(0.00936054 -0.00362455 0.253215)
(0.00787326 -0.00581312 0.18737)
(0.0049315 -0.00727106 0.123098)
(0.00178977 -0.00753232 0.0478751)
(-0.0143937 0.00253099 0.497529)
(-0.00578371 -0.000161356 0.446349)
(0.00102784 -0.00304976 0.390268)
(0.00544663 -0.0057798 0.328472)
(0.0073484 -0.00823548 0.263221)
(0.00717834 -0.010186 0.198776)
(0.00539954 -0.011184 0.135226)
(0.00307591 -0.0102732 0.0594525)
(-0.0129147 -0.00481663 0.498827)
(-0.00367104 -0.00595947 0.449656)
(0.00320818 -0.0087677 0.397735)
(0.00750864 -0.0112425 0.339696)
(0.00945278 -0.0132313 0.278849)
(0.00965182 -0.0148487 0.218816)
(0.00833304 -0.0155101 0.158304)
(0.00601939 -0.0137176 0.0834436)
(-0.00347309 -0.0084422 0.483971)
(0.00408786 -0.00799788 0.44347)
(0.0096168 -0.00957759 0.399606)
(0.0127396 -0.0114053 0.349861)
(0.0141225 -0.0132416 0.296314)
(0.0140072 -0.0149654 0.244184)
(0.012709 -0.0161744 0.190387)
(0.0102918 -0.0152434 0.121059)
(0.00322832 -0.00508134 0.459348)
(0.00847227 -0.0029099 0.425045)
(0.0127641 -0.00273539 0.387774)
(0.0146165 -0.00372555 0.347421)
(0.0150708 -0.00546356 0.306353)
(0.0144618 -0.0073333 0.265069)
(0.0131548 -0.00919507 0.221722)
(0.0112135 -0.00961833 0.163942)
(-0.00580191 -0.0146644 0.50744)
(0.00110649 -0.013613 0.492303)
(0.00819149 -0.0141691 0.3984)
(0.00939626 -0.0150689 0.309817)
(0.00720382 -0.0141607 0.233849)
(0.00395985 -0.0122709 0.16392)
(0.000532847 -0.01009 0.0985359)
(-0.0019156 -0.00727957 0.0261352)
(-0.00534237 -0.00697329 0.501251)
(0.00317813 -0.00534738 0.46694)
(0.0116971 -0.00560417 0.405743)
(0.0155791 -0.00907334 0.323457)
(0.0129808 -0.0109738 0.245762)
(0.00851496 -0.0120046 0.171824)
(0.00340579 -0.0119995 0.102597)
(-0.000764197 -0.0101349 0.0273473)
(-0.00439119 -0.00498107 0.505429)
(0.00279324 -0.00484038 0.458585)
(0.00980203 -0.00535119 0.397541)
(0.0136248 -0.0080787 0.323611)
(0.0131601 -0.0104224 0.247853)
(0.0101101 -0.0119942 0.174244)
(0.00569355 -0.0121695 0.104797)
(0.00159948 -0.00982081 0.0293615)
(-0.0046603 -0.00567269 0.512664)
(0.00233166 -0.00722698 0.460179)
(0.00822588 -0.00932462 0.398238)
(0.0119268 -0.0117555 0.328864)
(0.0127138 -0.0137584 0.256754)
(0.0109391 -0.014768 0.185723)
(0.00757646 -0.014255 0.117531)
(0.00378091 -0.0110623 0.0410518)
(-0.00251456 -0.00822461 0.513599)
(0.00463536 -0.00992854 0.463259)
(0.00994949 -0.0126187 0.405617)
(0.0131934 -0.0151941 0.341954)
(0.0142152 -0.0170265 0.275551)
(0.0131015 -0.0177727 0.209396)
(0.0104228 -0.0169531 0.14398)
(0.00659817 -0.0129937 0.0664117)
(0.00358166 -0.00882158 0.505185)
(0.0102169 -0.0102017 0.463913)
(0.0148233 -0.0121072 0.414986)
(0.0172563 -0.0141878 0.359017)
(0.0177556 -0.0159699 0.300354)
(0.0167383 -0.0172287 0.242294)
(0.0143764 -0.0173357 0.183133)
(0.0105048 -0.0146737 0.108971)
(0.00842913 -0.00394433 0.494704)
(0.0131103 -0.00263368 0.467674)
(0.0171661 -0.00275485 0.415062)
(0.018701 -0.0039345 0.367277)
(0.0181687 -0.00567233 0.320082)
(0.0166804 -0.00763093 0.272924)
(0.0143286 -0.00912072 0.2241)
(0.0110649 -0.00890836 0.160505)
(-0.00775856 -0.0216525 0.551041)
(-0.00457604 -0.0141095 0.549875)
(0.000738514 -0.0128636 0.447789)
(0.003123 -0.0161745 0.321336)
(0.00221752 -0.015554 0.228278)
(0.000197128 -0.0133609 0.148307)