/*--------------------------------*- C++ -*----------------------------------*\
| =========                 |                                                 |
| \\      /  F ield         | OpenFOAM: The Open Source CFD Toolbox           |
|  \\    /   O peration     | Version:  plus.master                           |
|   \\  /    A nd           | Web:      www.OpenFOAM.com                      |
|    \\/     M anipulation  |                                                 |
\*---------------------------------------------------------------------------*/
FoamFile
{
    version     2.0;
    format      ascii;
    class       scalarField;
    location    "3.2/lagrangian/kinematicCloud";
    object      age;
}
// * * * * * * * * * * * * * * * * * * * * * * * * * * * * * * * * * * * * * //


96597
(
3.20119
3.20117
3.20115
3.20113
3.20111
3.20109
3.20107
3.20106
3.20104
3.20102
3.201
3.20098
3.20096
3.20095
3.20093
3.20091
3.20088
3.20086
3.20084
3.20083
3.20081
3.20079
3.20078
3.20076
3.20075
3.20073
3.20068
3.20067
3.20065
3.20064
3.20063
3.20061
3.2006
3.20058
3.20057
3.20056
3.20054
3.20053
3.20052
3.2005
3.20049
3.20048
3.20047
3.20045
3.20044
3.20043
3.20042
3.20041
3.20039
3.20038
3.20037
3.20036
3.20035
3.20034
3.20033
3.20032
3.2003
3.20029
3.20028
3.20027
3.20026
3.20025
3.20024
3.20023
3.20022
3.20022
3.2002
3.20018
3.20017
3.20017
3.20015
3.20015
3.20014
3.20013
3.20013
3.20012
3.20011
3.20011
3.2001
3.20009
3.20008
3.20008
3.20007
3.20007
3.20006
3.20006
3.20006
3.20005
3.20005
3.20004
3.20004
3.20004
3.20003
3.20003
3.20003
3.20002
3.20002
3.20002
3.20001
3.20001
3.20001
3.20001
3.2
3.2
3.2
3.2
3.20023
3.20021
3.20019
3.20015
3.20011
3.20009
3.20008
3.20006
3.20004
3.20002
3.2
3.19998
3.19997
3.19993
3.19991
3.19989
3.19986
3.19984
3.19983
3.19981
3.19979
3.19978
3.19976
3.19974
3.19973
3.19971
3.1997
3.19968
3.19967
3.19965
3.19963
3.1996
3.19959
3.19958
3.19956
3.19953
3.19952
3.19949
3.19948
3.19944
3.19942
3.19941
3.1994
3.19938
3.19936
3.19934
3.19932
3.19931
3.1993
3.19929
3.19927
3.19925
3.19924
3.19922
3.1992
3.19919
3.19918
3.19917
3.19916
3.19915
3.19914
3.19913
3.19912
3.19911
3.1991
3.19909
3.19909
3.19907
3.19906
3.19905
3.19904
3.19904
3.19902
3.19901
3.199
3.199
3.19899
3.19898
3.19898
3.19897
3.19896
3.19894
3.19893
3.19892
3.19892
3.19891
3.1989
3.19889
3.19889
3.19889
3.19888
3.19887
3.19887
3.19886
3.19886
3.19886
3.19885
3.19885
3.19884
3.19884
3.19883
3.19883
3.19883
3.19883
3.19883
3.19882
3.19882
3.19882
3.19882
3.19882
3.19882
3.19881
3.19881
3.19881
3.19881
3.19881
3.19881
3.19881
3.19909
3.19907
3.19905
3.19903
3.19901
3.19899
3.19897
3.19895
3.19894
3.19892
3.1989
3.19888
3.19886
3.19884
3.19881
3.19879
3.19877
3.19875
3.19873
3.19872
3.1987
3.19868
3.19866
3.19865
3.19863
3.19861
3.1986
3.19858
3.19856
3.19855
3.19853
3.1985
3.19845
3.19843
3.19842
3.1984
3.19839
3.19837
3.19836
3.19834
3.19831
3.1983
3.19827
3.19826
3.19824
3.19823
3.19821
3.19819
3.19817
3.19816
3.19815
3.19813
3.19812
3.19809
3.19807
3.19806
3.19804
3.19803
3.19802
3.19801
3.19799
3.19797
3.19796
3.19795
3.19794
3.19793
3.19791
3.1979
3.19789
3.19788
3.19787
3.19786
3.19785
3.19784
3.19783
3.19781
3.1978
3.19779
3.19778
3.19777
3.19776
3.19775
3.19774
3.19773
3.19772
3.19771
3.19769
3.19768
3.19767
3.19767
3.19766
3.19765
3.19764
3.19763
3.19762
3.19761
3.19761
3.1976
3.19759
3.19759
3.19758
3.19757
3.19757
3.19756
3.19755
3.19755
3.19754
3.19753
3.19753
3.19752
3.19752
3.19751
3.19751
3.1975
3.1975
3.19749
3.19749
3.19748
3.19748
3.19747
3.19747
3.19746
3.19746
3.19746
3.19745
3.19745
3.19744
3.19744
3.19744
3.19743
3.19742
3.19742
3.19742
3.19742
3.19741
3.19741
3.19741
3.1974
3.1974
3.1974
3.1974
3.1974
3.1974
3.1974
3.19739
3.19739
3.19739
3.19739
3.19739
3.19773
3.19771
3.19769
3.19767
3.19765
3.19763
3.19761
3.19759
3.19757
3.19755
3.19753
3.19751
3.19749
3.19747
3.19746
3.19744
3.19742
3.1974
3.19738
3.19736
3.19735
3.19733
3.19731
3.19729
3.19727
3.19726
3.19724
3.19722
3.19721
3.19719
3.19717
3.19715
3.19714
3.19712
3.19709
3.19707
3.19705
3.19704
3.19702
3.19701
3.19699
3.19697
3.19696
3.19694
3.19693
3.19691
3.1969
3.19688
3.19686
3.19685
3.19683
3.19682
3.1968
3.19679
3.19678
3.19676
3.19675
3.19673
3.19672
3.19669
3.19668
3.19666
3.19663
3.19662
3.19661
3.19659
3.19658
3.19657
3.19655
3.19652
3.1965
3.19649
3.19648
3.19647
3.19645
3.19644
3.19643
3.19642
3.1964
3.19639
3.19638
3.19637
3.19636
3.19635
3.19634
3.19632
3.1963
3.19629
3.19628
3.19627
3.19625
3.19624
3.19623
3.19622
3.19621
3.19619
3.19618
3.19617
3.19615
3.19614
3.19613
3.19612
3.19611
3.1961
3.19609
3.19608
3.19607
3.19606
3.19605
3.19604
3.19603
3.19603
3.19602
3.19601
3.19599
3.19598
3.19597
3.19596
3.19596
3.19595
3.19593
3.19593
3.19591
3.19591
3.1959
3.19589
3.19589
3.19588
3.19588
3.19587
3.19586
3.19586
3.19585
3.19585
3.19584
3.19584
3.19583
3.19582
3.19582
3.19581
3.19581
3.1958
3.1958
3.19579
3.19579
3.19578
3.19578
3.19577
3.19577
3.19577
3.19576
3.19576
3.19575
3.19575
3.19575
3.19574
3.19574
3.19574
3.19573
3.19573
3.19573
3.19573
3.19572
3.19572
3.19572
3.19572
3.19571
3.19571
3.19571
3.1957
3.1957
3.1957
3.1957
3.1957
3.19569
3.19569
3.19569
3.19569
3.19569
3.19569
3.19569
3.19569
3.19569
3.19569
3.19569
3.19607
3.19605
3.19603
3.19601
3.19599
3.19597
3.19595
3.19593
3.19591
3.19587
3.19586
3.19584
3.19582
3.1958
3.19578
3.19576
3.19574
3.19572
3.19571
3.19569
3.19567
3.19565
3.19563
3.19562
3.1956
3.19558
3.19556
3.19554
3.19553
3.19551
3.19549
3.19544
3.19542
3.19541
3.19539
3.19537
3.19536
3.19534
3.19532
3.19531
3.19529
3.19527
3.19524
3.19522
3.19521
3.19519
3.19518
3.19516
3.19514
3.19513
3.19511
3.1951
3.19508
3.19507
3.19505
3.19504
3.19502
3.19501
3.19499
3.19498
3.19496
3.19493
3.1949
3.19489
3.19488
3.19486
3.19485
3.19483
3.19482
3.19481
3.19479
3.19478
3.19477
3.19475
3.19474
3.19473
3.19471
3.1947
3.19469
3.19467
3.19466
3.19465
3.19463
3.19462
3.1946
3.19458
3.19457
3.19455
3.19454
3.19452
3.1945
3.19449
3.19448
3.19446
3.19445
3.19444
3.19443
3.19442
3.19441
3.1944
3.19439
3.19437
3.19436
3.19434
3.19433
3.19432
3.1943
3.19429
3.19426
3.19425
3.19424
3.19422
3.19421
3.1942
3.19419
3.19418
3.19417
3.19416
3.19415
3.19414
3.19413
3.19412
3.19411
3.19408
3.19408
3.19407
3.19405
3.19404
3.19404
3.19403
3.19402
3.19401
3.194
3.194
3.19399
3.19398
3.19397
3.19397
3.19396
3.19395
3.19395
3.19393
3.19393
3.19392
3.19391
3.1939
3.19389
3.19389
3.19388
3.19387
3.19386
3.19386
3.19385
3.19384
3.19384
3.19383
3.19383
3.19382
3.19382
3.19381
3.19381
3.1938
3.1938
3.19379
3.19379
3.19378
3.19377
3.19376
3.19376
3.19376
3.19375
3.19375
3.19374
3.19374
3.19373
3.19373
3.19373
3.19372
3.19372
3.19371
3.19371
3.19371
3.19371
3.1937
3.1937
3.19369
3.19369
3.19368
3.19368
3.19368
3.19368
3.19368
3.19367
3.19367
3.19367
3.19366
3.19366
3.19366
3.19366
3.19366
3.19366
3.19366
3.19366
3.19365
3.19365
3.19365
3.19365
3.19365
3.19365
3.19365
3.19365
3.19365
3.19413
3.19411
3.19409
3.19407
3.19405
3.19403
3.19401
3.19399
3.19395
3.19393
3.19391
3.19387
3.19385
3.19382
3.1938
3.19376
3.19374
3.19372
3.19367
3.19365
3.19363
3.19361
3.19359
3.19358
3.19356
3.19354
3.19352
3.1935
3.19349
3.19347
3.19345
3.19342
3.1934
3.19338
3.19336
3.19335
3.19333
3.19331
3.1933
3.19328
3.19326
3.19325
3.19323
3.19321
3.1932
3.19318
3.19316
3.19315
3.19313
3.19312
3.1931
3.19307
3.19305
3.19304
3.19302
3.193
3.19299
3.19297
3.19296
3.19294
3.19293
3.1929
3.19288
3.19287
3.19285
3.19284
3.19282
3.19281
3.19279
3.19278
3.19276
3.19275
3.19273
3.19272
3.19269
3.19268
3.19266
3.19265
3.19263
3.19262
3.19261
3.19259
3.19258
3.19257
3.19255
3.19254
3.19253
3.19251
3.1925
3.19249
3.19247
3.19246
3.19243
3.19242
3.19241
3.1924
3.19238
3.19237
3.19233
3.19232
3.19231
3.1923
3.19228
3.19226
3.19225
3.19224
3.19222
3.19221
3.1922
3.19219
3.19218
3.19216
3.19214
3.19213
3.19212
3.19211
3.1921
3.19208
3.19207
3.19206
3.19205
3.19202
3.19201
3.192
3.19199
3.19198
3.19196
3.19193
3.19192
3.1919
3.19189
3.19188
3.19188
3.19187
3.19186
3.19185
3.19184
3.19182
3.19181
3.1918
3.19179
3.19178
3.19177
3.19176
3.19175
3.19174
3.19173
3.19172
3.19172
3.19171
3.19169
3.19168
3.19168
3.19165
3.19165
3.19163
3.19162
3.19162
3.19161
3.19159
3.19158
3.19157
3.19155
3.19155
3.19154
3.19153
3.19153
3.19152
3.19151
3.19151
3.1915
3.1915
3.19149
3.19148
3.19148
3.19147
3.19147
3.19146
3.19145
3.19144
3.19144
3.19143
3.19143
3.19142
3.19141
3.19141
3.1914
3.1914
3.19139
3.19139
3.19138
3.19138
3.19137
3.19137
3.19136
3.19136
3.19135
3.19134
3.19133
3.19133
3.19133
3.19132
3.19131
3.19131
3.1913
3.1913
3.1913
3.1913
3.19129
3.19129
3.19128
3.19128
3.19128
3.19128
3.19127
3.19127
3.19127
3.19126
3.19126
3.19126
3.19126
3.19126
3.19125
3.19125
3.19125
3.19125
3.19124
3.19124
3.19124
3.19124
3.19124
3.19124
3.19123
3.19123
3.19123
3.19123
3.19123
3.19123
3.19123
3.19123
3.19123
3.19123
3.19123
3.19123
3.19176
3.19174
3.19172
3.1917
3.19168
3.19164
3.19162
3.1916
3.19158
3.19156
3.19152
3.1915
3.19148
3.19146
3.19142
3.19139
3.19137
3.19135
3.19131
3.19127
3.19125
3.19122
3.1912
3.19118
3.19116
3.19114
3.19113
3.19111
3.19109
3.19107
3.19105
3.19104
3.191
3.19098
3.19097
3.19095
3.19093
3.19091
3.19088
3.19086
3.19084
3.19083
3.19079
3.19078
3.19076
3.19074
3.19073
3.19071
3.19069
3.19068
3.19066
3.19061
3.19059
3.19056
3.19055
3.19053
3.1905
3.19048
3.19045
3.19043
3.19042
3.1904
3.19039
3.19037
3.19036
3.19034
3.19033
3.19028
3.19024
3.19022
3.19021
3.19019
3.19018
3.19016
3.19015
3.19012
3.1901
3.19009
3.19007
3.19006
3.19005
3.19003
3.19002
3.19
3.18999
3.18998
3.18995
3.18993
3.18992
3.18989
3.18988
3.18987
3.18985
3.18983
3.18981
3.1898
3.18979
3.18977
3.18976
3.18974
3.18972
3.1897
3.18968
3.18967
3.18966
3.18965
3.18962
3.18961
3.1896
3.18957
3.18956
3.18955
3.18954
3.18951
3.1895
3.18949
3.18948
3.18946
3.18944
3.18942
3.18941
3.18939
3.18938
3.18937
3.18936
3.18934
3.18933
3.18932
3.18931
3.1893
3.18929
3.18928
3.18927
3.18926
3.18925
3.18924
3.18923
3.18922
3.18921
3.1892
3.18919
3.18918
3.18917
3.18916
3.18915
3.18914
3.18913
3.18911
3.1891
3.18909
3.18908
3.18907
3.18905
3.18904
3.18903
3.18903
3.18902
3.18901
3.189
3.18899
3.18898
3.18897
3.18896
3.18895
3.18894
3.18893
3.18892
3.18891
3.18891
3.1889
3.18889
3.18887
3.18886
3.18886
3.18885
3.18884
3.18883
3.18883
3.18882
3.18881
3.1888
3.1888
3.18879
3.18877
3.18876
3.18875
3.18875
3.18874
3.18873
3.18873
3.18872
3.18871
3.18871
3.1887
3.18869
3.18868
3.18867
3.18867
3.18865
3.18865
3.18864
3.18864
3.18863
3.18862
3.18862
3.18861
3.18861
3.1886
3.1886
3.18859
3.18858
3.18858
3.18857
3.18857
3.18856
3.18855
3.18855
3.18854
3.18854
3.18853
3.18853
3.18852
3.18852
3.18851
3.18851
3.1885
3.1885
3.1885
3.18849
3.18848
3.18848
3.18847
3.18847
3.18847
3.18846
3.18846
3.18846
3.18845
3.18845
3.18844
3.18844
3.18844
3.18843
3.18843
3.18842
3.18842
3.18842
3.18841
3.18841
3.1884
3.1884
3.1884
3.1884
3.18839
3.18839
3.18839
3.18839
3.18838
3.18838
3.18838
3.18838
3.18837
3.18837
3.18837
3.18837
3.18837
3.18836
3.18836
3.18836
3.18836
3.18835
3.18835
3.18835
3.18835
3.18835
3.18835
3.18835
3.18834
3.18834
3.18834
3.18834
3.18834
3.18834
3.18834
3.18834
3.18833
3.18833
3.18833
3.18833
3.18833
3.18833
3.18833
3.18833
3.18833
3.18833
3.18833
3.18891
3.18889
3.18887
3.18885
3.18883
3.18881
3.18879
3.18877
3.18875
3.18873
3.18871
3.18869
3.18867
3.18865
3.18863
3.18861
3.18859
3.18857
3.18856
3.18854
3.18852
3.1885
3.18848
3.18846
3.18844
3.18842
3.18841
3.18839
3.18833
3.18831
3.18829
3.18828
3.18826
3.18824
3.18822
3.1882
3.18818
3.18813
3.18811
3.1881
3.18808
3.18804
3.18802
3.18801
3.18799
3.18797
3.18795
3.18794
3.18792
3.1879
3.18788
3.18787
3.18785
3.18783
3.18782
3.1878
3.18778
3.18777
3.18775
3.18773
3.1877
3.18768
3.18767
3.18765
3.18763
3.18762
3.1876
3.18758
3.18757
3.18755
3.18753
3.18752
3.1875
3.18749
3.18747
3.18745
3.18744
3.18742
3.18738
3.18736
3.18734
3.18733
3.18731
3.1873
3.18728
3.18727
3.18725
3.18724
3.18722
3.18721
3.18719
3.18718
3.18716
3.18715
3.18713
3.18712
3.1871
3.18709
3.18707
3.18706
3.18704
3.18703
3.18701
3.187
3.18698
3.18697
3.18696
3.18694
3.18693
3.18691
3.1869
3.18689
3.18687
3.18686
3.18684
3.18683
3.18682
3.1868
3.18679
3.18677
3.18676
3.18673
3.18672
3.18671
3.18667
3.18665
3.18664
3.18663
3.18661
3.1866
3.18658
3.18656
3.18655
3.18654
3.18652
3.18651
3.1865
3.18649
3.18647
3.18646
3.18645
3.18644
3.18642
3.18641
3.1864
3.18639
3.18638
3.18636
3.18635
3.18634
3.18633
3.18632
3.1863
3.18627
3.18626
3.18625
3.18623
3.18622
3.18621
3.1862
3.18619
3.18618
3.18617
3.18616
3.18614
3.18613
3.18612
3.18611
3.1861
3.18609
3.18608
3.18606
3.18605
3.18603
3.18601
3.186
3.18599
3.18598
3.18597
3.18596
3.18595
3.18594
3.18593
3.18592
3.18591
3.1859
3.18589
3.18588
3.18587
3.18586
3.18585
3.18584
3.18583
3.18582
3.18581
3.18581
3.1858
3.18579
3.18578
3.18577
3.18576
3.18575
3.18574
3.18573
3.18572
3.18571
3.1857
3.1857
3.18569
3.18568
3.18567
3.18566
3.18565
3.18564
3.18563
3.18563
3.18562
3.18561
3.1856
3.18559
3.18558
3.18558
3.18557
3.18556
3.18555
3.18553
3.18551
3.1855
3.18549
3.18548
3.18547
3.18547
3.18546
3.18544
3.18544
3.18543
3.18542
3.18542
3.18541
3.1854
3.18539
3.18539
3.18538
3.18537
3.18537
3.18536
3.18535
3.18535
3.18534
3.18533
3.18533
3.18532
3.18531
3.18531
3.1853
3.1853
3.18529
3.18528
3.18528
3.18527
3.18527
3.18525
3.18525
3.18524
3.18524
3.18523
3.18522
3.18522
3.18521
3.18521
3.1852
3.1852
3.18519
3.18519
3.18518
3.18518
3.18517
3.18517
3.18516
3.18516
3.18515
3.18515
3.18514
3.18514
3.18513
3.18513
3.18512
3.18512
3.18511
3.18511
3.1851
3.1851
3.1851
3.18509
3.18509
3.18508
3.18508
3.18507
3.18507
3.18507
3.18506
3.18505
3.18505
3.18505
3.18504
3.18504
3.18503
3.18503
3.18503
3.18502
3.18502
3.18501
3.18501
3.18501
3.185
3.185
3.18499
3.18499
3.18499
3.18499
3.18498
3.18498
3.18498
3.18497
3.18497
3.18497
3.18497
3.18496
3.18496
3.18496
3.18496
3.18495
3.18495
3.18495
3.18495
3.18495
3.18494
3.18494
3.18494
3.18494
3.18494
3.18493
3.18493
3.18493
3.18493
3.18493
3.18493
3.18493
3.18492
3.18492
3.18492
3.18492
3.18492
3.18492
3.18492
3.18491
3.18491
3.18491
3.18491
3.18491
3.18491
3.18491
3.18491
3.18491
3.18491
3.18491
3.18491
3.18491
3.18491
3.18565
3.18563
3.18561
3.18557
3.18555
3.18553
3.18551
3.18547
3.18545
3.18543
3.18539
3.18537
3.18535
3.18533
3.18531
3.18529
3.18526
3.18524
3.18522
3.1852
3.18518
3.18516
3.18514
3.18512
3.1851
3.18509
3.18507
3.18505
3.18503
3.18501
3.18499
3.18497
3.18494
3.18492
3.1849
3.18488
3.18486
3.18484
3.18481
3.18479
3.18477
3.18475
3.18474
3.18472
3.1847
3.18468
3.18466
3.18465
3.18463
3.18461
3.18459
3.18458
3.18456
3.18454
3.18452
3.18449
3.18444
3.18442
3.18437
3.18433
3.18432
3.1843
3.18428
3.18427
3.18425
3.18423
3.18422
3.18418
3.18417
3.18415
3.18413
3.18412
3.1841
3.18408
3.18407
3.18405
3.18402
3.184
3.18399
3.18397
3.18395
3.18394
3.18392
3.18391
3.18389
3.18387
3.18386
3.18384
3.18383
3.18381
3.18378
3.18376
3.18375
3.18373
3.18372
3.1837
3.18369
3.18367
3.18366
3.18364
3.18363
3.18361
3.1836
3.18358
3.18355
3.18354
3.18352
3.18351
3.18349
3.18348
3.18346
3.18345
3.18343
3.18342
3.1834
3.18339
3.18337
3.18334
3.18333
3.18332
3.1833
3.18329
3.18327
3.18326
3.18325
3.18323
3.18322
3.1832
3.18319
3.18318
3.18316
3.18315
3.18313
3.18312
3.18311
3.18309
3.18308
3.18307
3.18305
3.18304
3.183
3.18299
3.18297
3.18296
3.18295
3.18293
3.18292
3.18291
3.18289
3.18288
3.18287
3.18285
3.18284
3.18282
3.1828
3.18279
3.18278
3.18277
3.18275
3.18274
3.18273
3.1827
3.18269
3.18268
3.18267
3.18263
3.18262
3.18261
3.18259
3.18255
3.18253
3.18252
3.18251
3.18249
3.18248
3.18246
3.18245
3.18244
3.18242
3.18241
3.1824
3.18239
3.18237
3.18236
3.18235
3.18234
3.18233
3.18232
3.18231
3.1823
3.18229
3.18226
3.18225
3.18223
3.18221
3.1822
3.18219
3.18218
3.18217
3.18216
3.18215
3.18214
3.18213
3.18212
3.1821
3.18209
3.18208
3.18207
3.18205
3.18204
3.18203
3.18202
3.18201
3.182
3.18199
3.18198
3.18197
3.18196
3.18195
3.18194
3.18193
3.18192
3.18191
3.1819
3.18189
3.18188
3.18186
3.18185
3.18184
3.18183
3.18182
3.18181
3.18181
3.1818
3.18178
3.18176
3.18175
3.18174
3.18173
3.18172
3.18171
3.1817
3.18169
3.18169
3.18168
3.18167
3.18166
3.18165
3.18165
3.18164
3.18163
3.18161
3.1816
3.18159
3.18158
3.18158
3.18157
3.18156
3.18155
3.18155
3.18152
3.18152
3.1815
3.18149
3.18149
3.18148
3.18147
3.18147
3.18146
3.18145
3.18145
3.18144
3.18143
3.18143
3.18142
3.18141
3.18141
3.18139
3.18139
3.18138
3.18137
3.18136
3.18135
3.18135
3.18134
3.18134
3.18133
3.18132
3.18132
3.18131
3.18131
3.18129
3.18129
3.18128
3.18127
3.18126
3.18126
3.18125
3.18125
3.18124
3.18124
3.18123
3.18123
3.18122
3.18122
3.18121
3.18121
3.1812
3.1812
3.18119
3.18118
3.18118
3.18117
3.18117
3.18116
3.18116
3.18115
3.18115
3.18114
3.18114
3.18113
3.18113
3.18112
3.18112
3.18111
3.18111
3.18111
3.1811
3.1811
3.18109
3.18109
3.18109
3.18108
3.18108
3.18107
3.18107
3.18106
3.18105
3.18105
3.18105
3.18104
3.18104
3.18104
3.18103
3.18103
3.18103
3.18102
3.18102
3.18102
3.18101
3.18101
3.18101
3.181
3.181
3.18099
3.18099
3.18099
3.18098
3.18098
3.18097
3.18097
3.18096
3.18096
3.18096
3.18096
3.18095
3.18095
3.18095
3.18095
3.18094
3.18094
3.18094
3.18094
3.18094
3.18093
3.18093
3.18093
3.18093
3.18093
3.18092
3.18092
3.18092
3.18092
3.18091
3.18091
3.18091
3.18091
3.18091
3.18091
3.18091
3.1809
3.1809
3.1809
3.1809
3.1809
3.1809
3.1809
3.1809
3.1809
3.1809
3.18089
3.18089
3.18089
3.18089
3.18089
3.18089
3.18089
3.18089
3.18089
3.18089
3.18089
3.18089
3.18089
3.18089
3.18089
3.18089
3.18181
3.18179
3.18177
3.18175
3.18173
3.18171
3.18167
3.18165
3.18163
3.18161
3.18159
3.18157
3.18155
3.18151
3.18149
3.18147
3.18146
3.18144
3.18142
3.1814
3.18138
3.18136
3.18132
3.1813
3.18128
3.18126
3.18124
3.18121
3.18119
3.18117
3.18115
3.18111
3.18109
3.18108
3.18106
3.18104
3.18102
3.181
3.18098
3.18096
3.18093
3.18091
3.18089
3.18087
3.18085
3.18084
3.18082
3.1808
3.18078
3.18076
3.18073
3.18071
3.18069
3.18067
3.18066
3.18064
3.18062
3.1806
3.18058
3.18057
3.18055
3.18053
3.18051
3.1805
3.18048
3.18046
3.18043
3.18041
3.18039
3.18038
3.18036
3.18034
3.18032
3.18031
3.18027
3.18026
3.18024
3.18022
3.1802
3.18019
3.18017
3.18015
3.18014
3.18012
3.1801
3.18009
3.18007
3.18005
3.18004
3.18
3.17999
3.17997
3.17995
3.17994
3.17992
3.17991
3.17989
3.17987
3.17986
3.17984
3.17982
3.17981
3.17978
3.17976
3.17974
3.17971
3.1797
3.17967
3.17965
3.17963
3.17962
3.1796
3.17959
3.17957
3.17956
3.17954
3.17952
3.17951
3.17949
3.17948
3.17946
3.17945
3.17943
3.17942
3.1794
3.17939
3.17937
3.17936
3.17934
3.17933
3.17931
3.17928
3.17927
3.17925
3.17924
3.17922
3.17921
3.17919
3.17918
3.17916
3.17915
3.17914
3.17912
3.17911
3.17909
3.17908
3.17905
3.17903
3.17901
3.17899
3.17896
3.17895
3.17894
3.17892
3.17891
3.17889
3.17888
3.17885
3.17884
3.17882
3.17881
3.1788
3.17878
3.17877
3.17876
3.17874
3.17873
3.17871
3.1787
3.17869
3.17867
3.17866
3.17865
3.17863
3.17862
3.17861
3.1786
3.17858
3.17857
3.17854
3.17853
3.17852
3.1785
3.17849
3.17848
3.17847
3.17845
3.17844
3.17843
3.17841
3.1784
3.17839
3.17838
3.17836
3.17835
3.17833
3.17831
3.1783
3.17828
3.17826
3.17825
3.17824
3.17823
3.17822
3.1782
3.17819
3.17818
3.17817
3.17816
3.17814
3.17813
3.17812
3.17811
3.17808
3.17807
3.17806
3.17805
3.17804
3.17803
3.17802
3.178
3.17799
3.17798
3.17797
3.17796
3.17795
3.17792
3.17791
3.17789
3.17788
3.17787
3.17786
3.17785
3.17784
3.17782
3.17779
3.17777
3.17775
3.17774
3.17773
3.17772
3.17771
3.17769
3.17768
3.17766
3.17765
3.17764
3.17763
3.17762
3.17761
3.1776
3.17759
3.17756
3.17755
3.17754
3.17753
3.17752
3.1775
3.17749
3.17748
3.17747
3.17746
3.17744
3.17744
3.17743
3.17741
3.1774
3.17739
3.17738
3.17737
3.17736
3.17735
3.17734
3.17733
3.17732
3.17731
3.1773
3.1773
3.17729
3.17728
3.17727
3.17726
3.17725
3.17723
3.17722
3.17722
3.17721
3.1772
3.17719
3.17718
3.17717
3.17716
3.17715
3.17715
3.17713
3.17712
3.17711
3.1771
3.17709
3.17708
3.17707
3.17706
3.17706
3.17705
3.17704
3.17703
3.17702
3.17702
3.17701
3.177
3.17698
3.17698
3.17696
3.17695
3.17695
3.17694
3.17693
3.17692
3.17692
3.17691
3.17689
3.17689
3.17688
3.17687
3.17686
3.17686
3.17685
3.17684
3.17684
3.17683
3.17682
3.17682
3.17681
3.1768
3.17679
3.17679
3.17678
3.17677
3.17676
3.17675
3.17674
3.17673
3.17673
3.17672
3.17671
3.17671
3.1767
3.17669
3.17668
3.17668
3.17667
3.17666
3.17665
3.17665
3.17664
3.17663
3.17663
3.17662
3.17661
3.17661
3.1766
3.17659
3.17659
3.17658
3.17658
3.17657
3.17657
3.17656
3.17655
3.17655
3.17654
3.17654
3.17653
3.17653
3.17652
3.17652
3.17651
3.17651
3.1765
3.1765
3.17649
3.17649
3.17648
3.17648
3.17646
3.17646
3.17645
3.17645
3.17644
3.17643
3.17642
3.17642
3.17641
3.17641
3.17641
3.1764
3.1764
3.17639
3.17639
3.17638
3.17638
3.17638
3.17637
3.17637
3.17636
3.17636
3.17636
3.17635
3.17635
3.17634
3.17634
3.17633
3.17633
3.17632
3.17632
3.17631
3.17631
3.1763
3.1763
3.1763
3.17629
3.17629
3.17629
3.17628
3.17628
3.17627
3.17627
3.17626
3.17626
3.17625
3.17625
3.17625
3.17625
3.17624
3.17624
3.17624
3.17623
3.17623
3.17623
3.17622
3.17622
3.17622
3.17621
3.17621
3.1762
3.1762
3.1762
3.1762
3.17619
3.17619
3.17619
3.17619
3.17619
3.17618
3.17618
3.17618
3.17618
3.17618
3.17617
3.17617
3.17617
3.17617
3.17617
3.17616
3.17616
3.17616
3.17616
3.17616
3.17616
3.17616
3.17615
3.17615
3.17615
3.17615
3.17615
3.17615
3.17615
3.17615
3.17614
3.17614
3.17614
3.17614
3.17614
3.17614
3.17614
3.17614
3.17614
3.17613
3.17613
3.17613
3.17613
3.17613
3.17613
3.17613
3.17613
3.17613
3.17613
3.17613
3.17613
3.17613
3.17613
3.17613
3.17613
3.17613
3.17613
3.17613
3.177
3.17698
3.17696
3.17694
3.17692
3.1769
3.17688
3.17684
3.17682
3.1768
3.17678
3.17676
3.17672
3.1767
3.17668
3.17661
3.17659
3.17655
3.17653
3.17645
3.17643
3.17641
3.17638
3.17636
3.17634
3.17632
3.1763
3.17628
3.17626
3.17624
3.17623
3.17621
3.17619
3.17617
3.17615
3.17613
3.17609
3.17608
3.17606
3.17604
3.17602
3.176
3.17598
3.17596
3.17595
3.17593
3.17591
3.17589
3.17587
3.17586
3.17584
3.17582
3.1758
3.17578
3.17576
3.17575
3.17573
3.17569
3.17568
3.17566
3.17564
3.17562
3.1756
3.17559
3.17557
3.17555
3.17553
3.17552
3.1755
3.17548
3.17545
3.17543
3.17541
3.17538
3.17536
3.17534
3.17532
3.17531
3.17529
3.17527
3.17524
3.17522
3.1752
3.17519
3.17517
3.17515
3.17514
3.17512
3.1751
3.17508
3.17507
3.17505
3.17503
3.17502
3.175
3.17498
3.17497
3.17495
3.17493
3.17492
3.17488
3.17487
3.17485
3.17484
3.17482
3.1748
3.17479
3.17477
3.17475
3.17474
3.17472
3.17471
3.17469
3.17467
3.17466
3.17464
3.17463
3.17461
3.17459
3.17458
3.17455
3.17453
3.1745
3.17448
3.17447
3.17445
3.17444
3.17442
3.1744
3.17439
3.17437
3.17436
3.17434
3.17433
3.17431
3.1743
3.17428
3.17427
3.17425
3.17424
3.17422
3.1742
3.17414
3.17413
3.17411
3.17408
3.17407
3.17405
3.17404
3.17403
3.17401
3.174
3.17398
3.17397
3.17395
3.17394
3.17392
3.17391
3.17389
3.17388
3.17386
3.17385
3.17384
3.17382
3.17381
3.17379
3.17376
3.17375
3.17374
3.17372
3.17371
3.17369
3.17368
3.17366
3.17365
3.17364
3.17362
3.17361
3.1736
3.17358
3.17357
3.17355
3.17354
3.17353
3.17351
3.1735
3.17349
3.17347
3.17346
3.17344
3.17343
3.17342
3.1734
3.17339
3.17338
3.17336
3.17335
3.17334
3.17331
3.1733
3.17328
3.17327
3.17326
3.17324
3.17323
3.17322
3.17321
3.17319
3.17318
3.17317
3.17315
3.17314
3.17312
3.17309
3.17305
3.17304
3.17303
3.17301
3.173
3.17299
3.17298
3.17296
3.17295
3.17294
3.17293
3.17292
3.1729
3.17289
3.17288
3.17285
3.17284
3.17283
3.17279
3.17277
3.17276
3.17275
3.17272
3.17271
3.1727
3.17269
3.17268
3.17266
3.17265
3.17264
3.17263
3.17262
3.17261
3.17259
3.17258
3.17257
3.17256
3.17255
3.17254
3.17253
3.17252
3.1725
3.17249
3.17248
3.17247
3.17246
3.17245
3.17244
3.17243
3.17242
3.1724
3.17239
3.17238
3.17237
3.17236
3.17235
3.17233
3.17231
3.1723
3.17228
3.17226
3.17225
3.17224
3.17223
3.17222
3.17221
3.1722
3.17219
3.17218
3.17217
3.17216
3.17215
3.17214
3.17213
3.17212
3.17211
3.1721
3.17208
3.17207
3.17206
3.17205
3.17203
3.17202
3.17201
3.172
3.17199
3.17198
3.17197
3.17196
3.17195
3.17194
3.17193
3.1719
3.1719
3.17189
3.17188
3.17187
3.17186
3.17185
3.17184
3.17183
3.17182
3.17181
3.1718
3.17179
3.17178
3.17178
3.17176
3.17175
3.17173
3.17172
3.1717
3.1717
3.17168
3.17167
3.17166
3.17165
3.17164
3.17164
3.17163
3.17162
3.17161
3.1716
3.17159
3.17158
3.17158
3.17157
3.17156
3.17155
3.17154
3.17154
3.17153
3.17151
3.1715
3.17149
3.17149
3.17147
3.17146
3.17145
3.17145
3.17144
3.17143
3.17142
3.17142
3.17141
3.1714
3.17139
3.17138
3.17137
3.17136
3.17136
3.17134
3.17133
3.17133
3.17132
3.17131
3.1713
3.1713
3.17129
3.17128
3.17128
3.17126
3.17125
3.17125
3.17124
3.17123
3.17123
3.17122
3.17121
3.17121
3.1712
3.17119
3.17119
3.17118
3.17117
3.17117
3.17116
3.17115
3.17115
3.17114
3.17113
3.17113
3.17112
3.17111
3.17111
3.17109
3.17109
3.17108
3.17108
3.17107
3.17106
3.17104
3.17104
3.17103
3.17103
3.17102
3.17101
3.17101
3.171
3.171
3.17099
3.17099
3.17098
3.17097
3.17097
3.17096
3.17096
3.17095
3.17095
3.17094
3.17094
3.17093
3.17092
3.17091
3.1709
3.17089
3.17089
3.17088
3.17088
3.17087
3.17086
3.17086
3.17085
3.17085
3.17084
3.17084
3.17083
3.17083
3.17082
3.17081
3.17081
3.1708
3.1708
3.17079
3.17079
3.17078
3.17078
3.17078
3.17077
3.17076
3.17076
3.17075
3.17075
3.17074
3.17074
3.17073
3.17073
3.17072
3.17072
3.17072
3.17071
3.1707
3.1707
3.1707
3.17069
3.17069
3.17068
3.17068
3.17067
3.17067
3.17067
3.17066
3.17066
3.17065
3.17065
3.17064
3.17064
3.17064
3.17063
3.17063
3.17063
3.17062
3.17062
3.17061
3.17061
3.1706
3.1706
3.1706
3.1706
3.17059
3.17059
3.17059
3.17058
3.17058
3.17058
3.17058
3.17057
3.17057
3.17057
3.17056
3.17056
3.17056
3.17056
3.17055
3.17055
3.17055
3.17054
3.17054
3.17054
3.17053
3.17053
3.17053
3.17053
3.17052
3.17052
3.17052
3.17052
3.17052
3.17051
3.17051
3.17051
3.17051
3.17051
3.1705
3.1705
3.1705
3.1705
3.1705
3.17049
3.17049
3.17049
3.17049
3.17049
3.17048
3.17048
3.17048
3.17048
3.17048
3.17048
3.17048
3.17047
3.17047
3.17047
3.17047
3.17047
3.17047
3.17047
3.17047
3.17046
3.17046
3.17046
3.17046
3.17046
3.17046
3.17046
3.17046
3.17046
3.17046
3.17045
3.17045
3.17045
3.17045
3.17045
3.17045
3.17045
3.17045
3.17045
3.17045
3.17045
3.17045
3.17045
3.17045
3.17045
3.17045
3.17045
3.17045
3.17045
3.17045
3.17169
3.17167
3.17165
3.17163
3.17161
3.17159
3.17157
3.17155
3.17154
3.17152
3.1715
3.17148
3.17144
3.17142
3.1714
3.17138
3.17136
3.17134
3.1713
3.17128
3.17126
3.17124
3.17122
3.1712
3.17118
3.17116
3.17114
3.17112
3.17111
3.17109
3.17107
3.17105
3.17103
3.17101
3.17099
3.17097
3.17095
3.17093
3.17091
3.1709
3.17088
3.17086
3.17084
3.17082
3.1708
3.17074
3.17073
3.17071
3.17069
3.17067
3.17063
3.17061
3.1706
3.17058
3.17054
3.17052
3.1705
3.17048
3.17047
3.17045
3.17043
3.17041
3.17039
3.17037
3.17032
3.1703
3.17025
3.17023
3.17021
3.17019
3.17018
3.17016
3.17014
3.17012
3.1701
3.17009
3.17007
3.17005
3.17003
3.17002
3.17
3.16994
3.16993
3.16989
3.16987
3.16986
3.16984
3.16982
3.1698
3.16977
3.16973
3.16972
3.1697
3.16968
3.16965
3.16963
3.16961
3.1696
3.16958
3.16956
3.16955
3.16951
3.16949
3.16948
3.16946
3.16943
3.16941
3.16939
3.16938
3.16936
3.16934
3.16933
3.16929
3.16928
3.16926
3.16923
3.16921
3.16919
3.16916
3.16914
3.16913
3.16911
3.1691
3.16908
3.16901
3.169
3.16898
3.16897
3.16895
3.16893
3.16892
3.1689
3.16885
3.16882
3.16881
3.16879
3.16877
3.16876
3.16874
3.16873
3.16871
3.16868
3.16866
3.16863
3.16862
3.1686
3.16859
3.16857
3.16855
3.16854
3.16852
3.16851
3.16849
3.16846
3.16845
3.16843
3.16842
3.1684
3.16839
3.16837
3.16836
3.16833
3.1683
3.16828
3.16827
3.16825
3.16824
3.16822
3.16821
3.16819
3.16818
3.16816
3.16815
3.16813
3.16812
3.1681
3.16809
3.16807
3.16806
3.16804
3.16803
3.16801
3.168
3.16799
3.16797
3.16796
3.16794
3.16793
3.1679
3.16787
3.16786
3.16784
3.16783
3.16781
3.1678
3.16778
3.16777
3.16776
3.16774
3.16773
3.16771
3.1677
3.16769
3.16767
3.16766
3.16764
3.16763
3.16762
3.1676
3.16759
3.16756
3.16755
3.16752
3.16751
3.16749
3.16748
3.16747
3.16745
3.16744
3.16741
3.1674
3.16739
3.16737
3.16736
3.16735
3.16733
3.16732
3.16728
3.16727
3.16725
3.16724
3.16723
3.16719
3.16717
3.16715
3.16714
3.16712
3.16711
3.1671
3.16707
3.16706
3.16705
3.16703
3.16702
3.16701
3.167
3.16698
3.16696
3.16694
3.16693
3.16691
3.16688
3.16687
3.16686
3.16685
3.16683
3.16682
3.1668
3.16678
3.16677
3.16676
3.16675
3.16674
3.16671
3.1667
3.16669
3.16668
3.16666
3.16664
3.16663
3.16662
3.1666
3.16659
3.16657
3.16655
3.16653
3.1665
3.16646
3.16645
3.16643
3.16642
3.16641
3.1664
3.16638
3.16637
3.16636
3.16635
3.16634
3.16633
3.16632
3.16631
3.1663
3.16628
3.16627
3.16626
3.16625
3.16624
3.16623
3.16621
3.16619
3.16617
3.16616
3.16614
3.16613
3.16612
3.16611
3.1661
3.16609
3.16608
3.16607
3.16604
3.16603
3.16602
3.166
3.16599
3.16598
3.16597
3.16596
3.16595
3.16594
3.16593
3.16592
3.16591
3.1659
3.16589
3.16588
3.16587
3.16586
3.16585
3.16584
3.16583
3.16582
3.16581
3.1658
3.16579
3.16578
3.16577
3.16576
3.16575
3.16574
3.16573
3.16572
3.16571
3.1657
3.16568
3.16567
3.16567
3.16566
3.16565
3.16563
3.16562
3.16561
3.1656
3.16559
3.16558
3.16557
3.16556
3.16555
3.16553
3.16552
3.16552
3.16551
3.1655
3.16549
3.16548
3.16547
3.16546
3.16545
3.16544
3.16543
3.16543
3.16541
3.1654
3.16539
3.16537
3.16536
3.16536
3.16535
3.16534
3.16533
3.16532
3.16531
3.1653
3.16529
3.16528
3.16527
3.16526
3.16525
3.16525
3.16524
3.16523
3.16522
3.16521
3.1652
3.1652
3.16519
3.16517
3.16516
3.16515
3.16515
3.16514
3.16512
3.16511
3.16511
3.1651
3.16509
3.16508
3.16508
3.16507
3.16506
3.16505
3.16504
3.16503
3.16502
3.16501
3.16501
3.165
3.16498
3.16497
3.16495
3.16494
3.16493
3.16492
3.16492
3.16491
3.1649
3.1649
3.16489
3.16488
3.16487
3.16487
3.16486
3.16485
3.16484
3.16483
3.16483
3.16482
3.16481
3.1648
3.1648
3.16479
3.16478
3.16478
3.16476
3.16476
3.16475
3.16474
3.16473
3.16472
3.16472
3.16471
3.1647
3.1647
3.16469
3.16469
3.16468
3.16467
3.16467
3.16466
3.16465
3.16465
3.16464
3.16464
3.16462
3.16462
3.16461
3.1646
3.16459
3.16459
3.16458
3.16457
3.16457
3.16456
3.16456
3.16455
3.16455
3.16454
3.16453
3.16453
3.16452
3.16452
3.16451
3.16451
3.1645
3.16449
3.16449
3.16448
3.16448
3.16447
3.16446
3.16446
3.16445
3.16445
3.16444
3.16443
3.16443
3.16442
3.16441
3.16441
3.1644
3.16439
3.16439
3.16438
3.16438
3.16437
3.16436
3.16436
3.16435
3.16434
3.16434
3.16433
3.16433
3.16432
3.16432
3.16431
3.16431
3.1643
3.1643