/*--------------------------------*- C++ -*----------------------------------*\
| =========                 |                                                 |
| \\      /  F ield         | OpenFOAM: The Open Source CFD Toolbox           |
|  \\    /   O peration     | Version:  plus.master                           |
|   \\  /    A nd           | Web:      www.OpenFOAM.com                      |
|    \\/     M anipulation  |                                                 |
\*---------------------------------------------------------------------------*/
FoamFile
{
    version     2.0;
    format      ascii;
    class       vectorField;
    location    "3.2/lagrangian/kinematicCloud";
    object      UCorrect;
}
// * * * * * * * * * * * * * * * * * * * * * * * * * * * * * * * * * * * * * //


96597
(
(0.000673716 -0.00132449 8.72426e-05)
(0.000609456 -7.79015e-05 7.64756e-05)
(4.09757e-07 7.88889e-05 9.41916e-07)
(-1.80618e-06 0.000135513 4.92645e-06)
(4.43531e-05 -6.9906e-05 5.34071e-05)
(-0.000174626 -0.000257073 9.20867e-05)
(0.000198027 -0.000307005 8.72033e-05)
(-9.51076e-05 0.000219707 0.00197049)
(0.000123065 0.00022538 8.2337e-05)
(1.7619e-05 -0.000184526 1.669e-06)
(1.45965e-06 5.42838e-05 7.44253e-05)
(7.66917e-05 9.92265e-05 8.01372e-05)
(0.000329481 0.000355783 8.04593e-05)
(0.00632695 0.0027757 2.50778e-05)
(0.000136744 0.000431283 8.80099e-05)
(0.000313841 -1.0191e-09 7.96119e-05)
(0.000280733 0.000198072 6.1534e-05)
(-0.000680773 -0.0010427 9.64416e-05)
(-0.000195366 9.40837e-05 9.36765e-05)
(0.000243424 0.000411304 7.91736e-05)
(4.28769e-05 2.18794e-05 7.66851e-05)
(-0.000263398 0.000243991 0.00198303)
(2.20014e-11 0.000208316 5.88203e-06)
(-0.000172626 -8.31323e-05 7.0988e-05)
(-0.000318768 -0.000153511 9.61044e-05)
(0.000351386 -0.000335971 0.00196571)
(-4.56232e-05 -3.99751e-05 6.31154e-05)
(-0.000263325 0.000244064 0.00198303)
(-3.91069e-11 0.000584827 -1.17291e-05)
(-0.000318768 -0.000153511 8.97544e-05)
(0.000311917 -0.000467778 9.1136e-05)
(-0.000421482 8.59062e-05 7.40048e-05)
(0.000332183 -0.000409859 0.00201367)
(-0.00130852 -0.00250719 9.71074e-05)
(-3.89668e-05 0.000411007 9.00044e-05)
(-0.000241224 0.000305838 8.12207e-05)
(0.000329481 0.000355783 8.34732e-05)
(-5.78818e-07 -6.97681e-06 7.84165e-05)
(1.45965e-06 5.42838e-05 9.09474e-05)
(0.000155634 0.000219769 5.61592e-07)
(-0.000116026 2.00729e-06 3.7133e-06)
(0.000198027 -0.000307005 8.29626e-05)
(-0.000163906 -0.000317091 9.17393e-05)
(-2.91502e-05 -7.97193e-05 9.42575e-05)
(-0.000195366 9.40837e-05 8.5076e-05)
(-0.000101916 0.000202551 9.6309e-05)
(0.000311917 -0.000467778 8.54081e-05)
(-2.96576e-15 -6.21182e-06 7.45082e-05)
(7.25925e-05 -8.51688e-05 9.86181e-05)
(-0.000163906 -0.000317091 8.04666e-05)
(-0.00011358 8.48193e-05 9.08882e-05)
(0.000372162 -0.000363307 8.47887e-05)
(-8.67234e-05 0.000132536 9.06801e-05)
(0.000270508 -0.000222924 0.00205486)
(-5.89679e-06 -0.00014903 5.70038e-05)
(0.000231659 -0.000203728 8.85607e-05)
(0.000123065 0.00022538 7.68746e-05)
(0.000120887 0.000329121 8.57771e-05)
(-4.24337e-05 -0.00593352 1.93725e-05)
(-0.000101916 0.000202551 8.78142e-05)
(2.53369e-05 1.87196e-06 7.41526e-05)
(0.000372162 -0.000363307 9.32921e-05)
(0.000311917 -0.000467778 8.66621e-05)
(0.000262732 0.00033856 8.67968e-05)
(-0.000101916 0.000202551 8.78362e-05)
(0.000816633 4.42089e-05 9.77394e-06)
(-0.000172626 -8.31323e-05 9.22377e-05)
(-0.00116443 0.000813614 0.000102581)
(4.52862e-06 0.000183131 0.00222901)
(9.45121e-05 -1.0338e-07 0.000105725)
(0.000372162 -0.000363307 8.08362e-05)
(6.9683e-05 -0.000362283 8.18905e-05)
(0.000419678 0.000196892 9.04852e-05)
(0.000123065 0.00022538 9.02499e-05)
(0.000123065 0.00022538 7.62868e-05)
(3.1249e-05 -9.91461e-05 8.79914e-05)
(0.000351968 -0.00033539 0.00196571)
(4.38624e-05 -4.09614e-10 6.87235e-05)
(0.00632695 0.0027757 2.76024e-05)
(0.000103681 -5.68865e-05 9.34941e-05)
(-0.000359639 0.000403074 8.24864e-05)
(-0.000241224 0.000305838 7.12769e-05)
(5.56546e-05 3.01864e-05 7.5179e-05)
(-0.00032587 0.000156937 9.13873e-05)
(0.000120887 0.000329121 8.18046e-05)
(0.000169576 0.000594277 4.92211e-05)
(6.22385e-05 -1.06287e-05 9.21194e-05)
(0.000232393 -0.000348873 9.1416e-05)
(-8.41061e-08 7.75563e-05 1.72927e-06)
(-0.000824863 -0.000646845 8.98313e-05)
(-0.000755607 -0.00310219 9.50025e-05)
(0.000318485 0.000306534 8.91868e-05)
(0.000156286 5.74767e-05 8.9094e-05)
(0.000145375 -0.000197672 0.00206162)
(-0.000318768 -0.000153511 8.4428e-05)
(0.000155556 -0.000291239 9.18112e-05)
(-0.000549221 0.000110053 8.6092e-05)
(0.000356616 0.000465814 0.00191611)
(-0.000116026 2.00729e-06 1.33736e-06)
(0.000109717 -1.56564e-05 5.88083e-05)
(-0.00716204 0.000722029 1.3488e-05)
(0.000335439 -1.96396e-07 -2.41254e-06)
(6.22385e-05 -1.06287e-05 8.77706e-05)
(0.000313841 -1.0191e-09 7.98294e-05)
(-0.000878522 -0.00417201 9.09688e-05)
(2.40171e-05 0.000180821 9.22641e-05)
(-0.000550401 0.000265065 0.00215058)
(-8.41061e-08 7.75563e-05 1.67093e-06)
(-0.000101916 0.000202551 8.99498e-05)
(0.000341874 -0.000482205 0.00201367)
(-0.000122468 8.89298e-05 8.29374e-05)
(-1.00916e-05 3.36163e-05 2.15272e-05)
(-8.82468e-05 0.000128219 8.76092e-05)
(0.000311917 -0.000467778 8.91766e-05)
(-6.06499e-07 0.00132163 1.21073e-05)
(-2.66882e-06 -0.000102245 4.15546e-06)
(0.000222411 0.000471356 0.00191611)
(6.22385e-05 -1.06287e-05 9.09946e-05)
(0.000180439 -0.000302943 8.9167e-05)
(0.000264391 0.00023321 8.63672e-05)
(-0.000114016 -5.49074e-05 8.52789e-05)
(4.945e-05 -3.86104e-05 8.97994e-05)
(0.000180439 -0.000302943 8.72428e-05)
(0.000313112 -7.21314e-06 9.09282e-05)
(-1.80618e-06 0.000135513 4.84509e-06)
(0.00027455 -0.000233303 0.0020195)
(-0.000174626 -0.000257073 9.33181e-05)
(0.000263682 0.000144151 0.00223072)
(-0.00140203 -0.00321381 9.18447e-05)
(0.000210182 0.000399747 7.60727e-05)
(5.56246e-07 0.000219316 8.70091e-05)
(0.000419678 0.000196892 8.43692e-05)
(0.000313112 -7.21314e-06 8.06171e-05)
(0.000357531 -0.000329827 0.00196571)
(6.22385e-05 -1.06287e-05 9.42411e-05)
(7.22988e-05 0.000114216 7.98227e-05)
(7.22988e-05 0.000114216 7.79603e-05)
(0.000191609 0.000348173 8.88029e-05)
(-0.00116443 0.000463272 0.000102581)
(9.12355e-05 8.97567e-05 8.93583e-05)
(-0.000507181 -0.000305581 9.62255e-05)
(-8.41061e-08 7.75563e-05 1.64335e-06)
(-8.99502e-05 0.000156274 8.031e-05)
(-0.000347012 0.000325746 0.00186912)
(-0.00663783 -0.000322257 0.000673261)
(0.000264826 0.00010079 0.00218895)
(-0.000318768 -0.000153511 9.25731e-05)
(-9.51076e-05 0.000216791 0.00197049)
(0.000232335 -0.000199632 0.00204477)
(-0.000313413 -0.000307322 0.00192432)
(-0.000190998 -0.00138845 5.04185e-05)
(-0.000361332 0.000306533 9.00661e-05)
(-0.000172626 -8.31323e-05 8.43754e-05)
(0.000434833 0.000188893 5.198e-05)
(0.000371192 -6.6145e-05 9.01459e-05)
(0.000372794 0.000145171 7.31131e-05)
(0.000156446 3.8689e-05 0.00221813)
(0.000123065 0.00022538 8.00065e-05)
(0.000609456 -7.79015e-05 8.55588e-05)
(-0.000914731 0.00383158 9.08313e-05)
(-3.7098e-05 1.41962e-05 7.13707e-05)
(-0.000318768 -0.000153511 8.22426e-05)
(0.000129954 2.02018e-05 8.91946e-05)
(0.00114091 -0.0061947 8.68486e-05)
(-2.66882e-06 -0.000102245 3.76046e-05)
(0.000180439 -0.000302943 8.89578e-05)
(-8.67234e-05 0.000132536 8.71115e-05)
(0.000399899 9.02532e-05 7.79939e-05)
(9.06153e-05 -0.000106509 8.16904e-05)
(0.00034382 -2.84761e-07 9.42246e-07)
(-3.93272e-05 -0.0068617 1.85772e-05)
(1.57106e-05 -2.8555e-05 6.84539e-05)
(-0.000530734 0.0003538 9.18103e-05)
(0.00031835 -0.000304042 0.00195859)
(-4.24337e-05 -0.00593352 2.07855e-05)
(-0.000171316 9.00349e-05 7.87581e-05)
(0.000372162 -0.000363307 8.92391e-05)
(-0.000824863 -0.000646845 9.10223e-05)
(-8.67234e-05 0.000132536 8.4139e-05)
(-0.000130902 -0.000230257 0.000102445)
(-0.00663783 -0.000322257 1.58445e-05)
(8.80886e-05 -1.0338e-07 0.000105725)
(0.000122421 -0.00051998 3.94351e-05)
(0.000231659 -0.000203728 8.6459e-05)
(7.28537e-05 0.000307791 9.43434e-05)
(-0.00032587 0.000156937 8.01687e-05)
(-0.00032587 0.000156937 8.97946e-05)
(-0.000318768 -0.000153511 9.38762e-05)
(2.05957e-10 -0.00786418 2.97351e-06)
(0.000243424 0.000411304 8.41886e-05)
(0.000372794 0.000145171 7.39542e-05)
(-2.26966e-06 -0.000117858 7.54761e-07)
(-7.97513e-05 -0.000125512 7.38668e-05)
(0.000237272 -0.000198752 0.00200623)
(0.000243424 0.000411304 8.13252e-05)
(4.28769e-05 2.18794e-05 7.56313e-05)
(7.2925e-05 0.000171372 0.00215215)
(5.44632e-05 7.0681e-05 6.78205e-05)
(-7.27302e-05 -0.000358593 8.60406e-05)
(-0.00310782 0.00677677 0.000111124)
(2.05957e-10 -0.0140043 1.44813e-05)
(0.000210182 0.000399747 7.65142e-05)
(0.000190213 -0.000218735 7.48996e-05)
(0.000123065 0.00022538 7.99988e-05)
(0.000262732 0.00033856 9.84764e-05)
(9.17411e-05 -8.61274e-06 6.87161e-05)
(0.000372162 -0.000363307 7.47654e-05)
(-0.000228907 0.000221068 0.00201033)
(-0.000130902 -0.000230257 9.10645e-05)
(0.000155556 -0.000291239 8.63878e-05)
(0.000116474 -0.000400109 9.23189e-05)
(-8.41061e-08 8.41901e-05 4.06367e-05)
(-0.000174626 -0.000257073 9.2235e-05)
(5.33414e-05 -4.94604e-05 8.90498e-05)
(0.000180439 -0.000302943 9.39101e-05)
(0.000273153 0.000244812 0.00204033)
(0.000372162 -0.000363307 9.06059e-05)
(-0.000172626 -8.31323e-05 8.62748e-05)
(4.38624e-05 -4.09614e-10 6.42801e-05)
(-0.000251041 0.00025635 0.00205834)
(-5.51864e-06 -0.000620753 7.53325e-05)
(8.96371e-05 9.89156e-05 4.68886e-05)
(0.000356922 -0.000330435 0.00196571)
(0.00034382 -2.84761e-07 9.01478e-07)
(-0.000101656 -8.27883e-06 6.08782e-05)
(-0.000351169 -0.000327965 0.0020147)
(0.000355112 8.82018e-05 0.000103013)
(0.000501218 -6.635e-06 8.63259e-05)
(-0.00130852 -0.00250719 9.80192e-05)
(-0.00663783 -0.000322257 1.68448e-05)
(2.20014e-11 0.000208316 2.85387e-06)
(5.33414e-05 -4.94604e-05 7.97738e-05)
(0.000264391 0.00023321 8.4941e-05)
(-0.000265271 0.000242118 0.00198303)
(0.000303865 -5.58541e-05 0.0021747)
(-1.65076e-05 -0.000167702 2.41295e-05)
(-1.8318e-06 -0.000382297 -1.74979e-06)
(-3.93272e-05 -0.0068617 1.70889e-05)
(-0.00663783 -0.000322257 1.31427e-05)
(-2.2433e-05 -0.000127212 9.00382e-05)
(4.81571e-05 -8.95811e-05 0.000101473)
(-0.00036294 0.000335373 0.00189174)
(0.000447771 -4.56607e-05 8.3609e-05)
(0.000190213 -0.000218735 7.42249e-05)
(3.71369e-05 9.96408e-08 8.7857e-05)
(7.22988e-05 0.000114216 8.07259e-05)
(-0.000163906 -0.000317091 9.29693e-05)
(5.22501e-05 0.000137524 9.10635e-06)
(-0.00116443 0.000792548 0.000102581)
(-0.000101916 0.000202551 8.81864e-05)
(0.000243424 0.000411304 7.98436e-05)
(-8.99502e-05 0.000156274 8.08748e-05)
(-0.000174626 -0.000257073 9.21485e-05)
(0.000243424 0.000411304 8.13774e-05)
(-0.00724686 -0.000334257 1.72908e-05)
(-3.09863e-05 -0.000114623 1.78312e-05)
(0.000136551 -0.000159767 8.78833e-05)
(-8.67234e-05 0.000132536 9.63043e-05)
(2.05957e-10 -0.00786418 6.48664e-07)
(-0.00130852 -0.00250719 9.56415e-05)
(-8.67234e-05 0.000132536 9.81733e-05)
(0.000126098 -0.000181823 9.36506e-05)
(0.000236688 -0.000199336 0.00200623)
(-0.00130852 -0.00250719 0.000104793)
(-0.000228488 -0.00021068 0.00184201)
(-0.0015233 -0.00351735 0.000101223)
(-0.000318768 -0.000153511 9.19843e-05)
(0.000313841 -1.0191e-09 7.93823e-05)
(0.000159458 7.00598e-05 8.76e-05)
(-8.41061e-08 7.75563e-05 1.61038e-06)
(-0.000360219 -0.000251529 0.000104329)
(0.000243424 0.000411304 8.24814e-05)
(-0.000261905 0.000245484 0.00198303)
(-0.000326381 8.26874e-05 7.07704e-05)
(0.000481074 -0.00112808 6.75866e-05)
(0.000313112 -7.21314e-06 8.14721e-05)
(0.000156286 5.74767e-05 7.63097e-05)
(0.000927439 -0.00117089 9.52969e-05)
(9.12355e-05 8.97567e-05 9.57816e-05)
(4.81571e-05 -8.95811e-05 9.8168e-05)
(-7.34851e-05 -6.85016e-05 7.33174e-05)
(0.000336699 -1.89534e-05 0.0021811)
(-0.000195366 9.40837e-05 8.08462e-05)
(1.57106e-05 -2.8555e-05 7.59753e-05)
(0.000123065 0.00022538 9.36414e-05)
(0.000231659 -0.000203728 8.36306e-05)
(0.000123065 0.00022538 8.75335e-05)
(-8.99502e-05 0.000156274 9.54856e-05)
(-1.66571e-05 -6.77814e-06 4.54441e-05)
(-0.00032587 0.000156937 9.51226e-05)
(-1.78256e-06 -0.00672392 0.000431415)
(-0.000330045 -0.00330713 0.00232173)
(0.000329481 0.000355783 7.98246e-05)
(0.00025543 0.000235762 0.00203375)
(0.00031758 0.000298991 0.00199847)
(-2.23697e-05 -6.13518e-06 6.83842e-05)
(0.000103681 -5.68865e-05 9.71253e-05)
(-8.41061e-08 7.75563e-05 1.71083e-06)
(-2.61464e-05 1.04114e-05 0.00178009)
(0.000434833 0.000188893 5.13581e-05)
(0.000318485 0.000306534 9.65035e-05)
(-0.000207844 -3.95522e-05 9.30599e-05)
(-0.00036293 -4.89216e-05 0.000109357)
(-0.00013547 -7.12836e-05 8.63359e-05)
(0.000218783 0.000171756 0.000109713)
(-5.51864e-06 -0.000620753 7.12557e-05)
(-0.000309414 0.000263994 8.82538e-05)
(-0.000109787 -0.000282971 8.68358e-05)
(0.0023701 0.00363332 4.92023e-05)
(-0.00032587 0.000156937 9.20373e-05)
(-0.000172626 -8.31323e-05 7.68499e-05)
(-0.000163906 -0.000317091 8.62286e-05)
(0.000120887 0.000329121 7.69696e-05)
(0.000234203 -0.000201821 0.00200623)
(-0.000114016 -5.49074e-05 8.39928e-05)
(-0.000174626 -0.000257073 8.2559e-05)
(2.20014e-11 0.000208316 2.16025e-06)
(-2.20007e-05 7.85384e-05 7.49143e-05)
(0.000123065 0.00022538 8.24555e-05)
(-0.000130902 -0.000230257 0.000106002)
(0.000339406 -1.89534e-05 0.0021811)
(0.000123065 0.00022538 7.38544e-05)
(3.06748e-05 -2.87624e-05 6.86559e-05)
(-0.0003028 -0.000323472 0.00193367)
(0.000180439 -0.000302943 9.47914e-05)
(-0.00032587 0.000156937 8.99053e-05)
(0.000155556 -0.000291239 9.37339e-05)
(-0.000266044 0.000241345 0.00198303)
(0.00016301 7.85138e-05 0.00010247)
(-0.000318733 0.000154512 9.06015e-05)
(-0.000105662 -0.000148408 8.2384e-05)
(0.000103681 -5.68865e-05 9.22785e-05)
(0.000241443 5.7886e-05 1.403e-05)
(-0.000586577 -8.94104e-05 9.92889e-05)
(-0.000274368 0.000259048 7.46011e-05)
(-0.000195366 9.40837e-05 8.62069e-05)
(5.56246e-07 0.000219316 7.6525e-05)
(0.000262732 0.00033856 8.31785e-05)
(-0.000171316 9.00349e-05 7.80903e-05)
(-0.000549221 0.000110053 7.71565e-05)
(4.50223e-05 -0.00035206 9.21137e-05)
(-0.000360219 -0.000251529 0.000100569)
(-0.000101916 0.000202551 8.24422e-05)
(-4.82569e-05 0.000227572 0.00215782)
(0.000123065 0.00022538 8.65878e-05)
(-7.68822e-06 -3.82774e-05 4.77064e-05)
(0.000984603 0.00260524 2.79144e-08)
(0.000198027 -0.000307005 8.79444e-05)
(-0.00310782 0.00677677 0.000113807)
(0.000481695 0.00033095 9.84309e-05)
(-0.00129129 0.00594184 0.000103141)
(-0.00032587 0.000156937 8.2745e-05)
(-0.00021613 -0.000215193 0.00182643)
(0.00016301 7.85138e-05 9.29577e-05)
(0.000232393 -0.000348873 9.66394e-05)
(0.000231659 -0.000203728 7.9076e-05)
(0.000329481 0.000355783 8.77637e-05)
(-0.000163906 -0.000317091 8.80526e-05)
(1.07783e-11 -0.000709112 6.87161e-05)
(0.000313841 -1.0191e-09 8.15958e-05)
(-0.000101916 0.000202551 8.1494e-05)
(-0.000130902 -0.000230257 0.000105652)
(5.56246e-07 0.000219316 8.50436e-05)
(0.000225924 -3.90694e-05 0.00101131)
(6.32053e-07 6.73371e-05 0.000424214)
(-7.34483e-05 1.93474e-05 0.000100551)
(-2.66882e-06 -0.000148195 9.0208e-05)
(-4.94504e-05 -7.72877e-05 8.56065e-05)
(-8.67234e-05 0.000132536 9.28232e-05)
(-3.2583e-14 -2.77369e-14 -1.33231e-16)
(0.000313112 -7.21314e-06 0.000100791)
(5.56246e-07 0.000219316 9.57168e-05)
(-0.000215129 0.000209573 0.00119851)
(0.000176546 8.54233e-06 8.71132e-05)
(-0.000163906 -0.000317091 9.21252e-05)
(-7.20412e-05 2.00729e-06 2.96678e-05)
(-0.000101916 0.000202551 8.73784e-05)
(0.000262988 0.000100424 0.00218895)
(-2.20007e-05 7.85384e-05 7.98193e-05)
(0.000311917 -0.000467778 8.55603e-05)
(-0.000189625 1.07336e-05 0.00196318)
(-0.000174626 -0.000257073 8.16175e-05)
(0.000123065 0.00022538 7.75675e-05)
(-0.000755607 -0.00310219 0.000104286)
(0.000349896 9.35461e-05 0.00199847)
(4.75851e-05 -0.000324754 -6.53975e-10)
(0.000262732 0.00033856 9.25533e-05)
(3.92156e-15 9.9202e-15 -1.82251e-21)
(4.75597e-12 0.000410888 -0.000431773)
(1.57106e-05 -2.8555e-05 7.23506e-05)
(0.000198027 -0.000307005 8.95726e-05)
(-0.000285095 -0.000172611 7.4545e-07)
(-2.23697e-05 -6.13518e-06 7.836e-05)
(0.000210182 0.000399747 8.27924e-05)
(-0.000130902 -0.000230257 9.91554e-05)
(-0.000174626 -0.000257073 7.99407e-05)
(0.000315553 0.000301018 0.00199847)
(-0.000101656 -8.27883e-06 6.15123e-05)
(3.10943e-05 -4.37345e-05 6.88916e-05)
(-0.000163906 -0.000317091 9.09938e-05)
(5.56246e-07 0.000219316 8.80078e-05)
(0.000130449 0.000336197 0.00199316)
(9.12355e-05 8.97567e-05 9.65987e-05)
(-8.99502e-05 0.000156274 8.36124e-05)
(5.82001e-05 -2.12966e-05 9.34301e-05)
(-0.000172626 -8.31323e-05 8.32528e-05)
(-0.00032587 0.000156937 8.36182e-05)
(0.000129954 2.02018e-05 0.000101347)
(-0.000172626 -8.31323e-05 8.46948e-05)
(-0.000130902 -0.000230257 9.75508e-05)
(0.000372162 -0.000363307 8.05163e-05)
(0.000243424 0.000411304 8.33259e-05)
(0.000335439 -1.96396e-07 -2.46534e-06)
(0.000456355 -6.97972e-05 8.36771e-05)
(0.000372794 0.000145171 8.3848e-05)
(-0.000309441 -0.000297621 0.00201069)
(0.00036281 0.000418314 0.00188667)
(0.000239979 -4.61939e-05 1.403e-05)
(-0.00310782 0.00677677 0.000112007)
(2.20014e-11 0.00029666 5.75337e-05)
(-0.000152245 0.000520514 7.74778e-05)
(-0.00140203 -0.00321381 8.95861e-05)
(-4.94972e-06 -3.61548e-07 -0.000789561)
(-0.000195366 9.40837e-05 8.84948e-05)
(5.56546e-05 3.01864e-05 8.74358e-05)
(-1.8318e-06 -0.000382297 -1.69399e-06)
(-0.000318768 -0.000153511 9.03136e-05)
(-2.23697e-05 -6.13518e-06 7.13309e-05)
(0.000316386 -0.000306006 0.00195859)
(-5.91729e-05 -1.0338e-07 0.000105725)
(-0.00011358 8.48193e-05 9.66661e-05)
(0.000306619 -0.000278522 8.7622e-05)
(-0.000130902 -0.000230257 8.47739e-05)
(0.000924833 -6.53351e-05 0.00217002)
(-2.66882e-06 -0.000102245 1.084e-05)
(0.000243424 0.000411304 7.55522e-05)
(0.000119443 0.000218921 8.92456e-05)
(0.000120887 0.000329121 8.88906e-05)
(-0.000305047 -0.000321224 0.00193367)
(-0.000114016 -5.49074e-05 7.73446e-05)
(-0.000116026 2.00729e-06 1.32409e-06)
(9.12355e-05 8.97567e-05 8.81909e-05)
(2.15276e-05 -4.20625e-05 4.93676e-07)
(-8.82468e-05 0.000128219 9.24923e-05)
(-0.000302773 -0.000323498 0.00193367)
(-5.78818e-07 -6.97681e-06 7.64014e-05)
(3.1249e-05 -9.91461e-05 8.6834e-05)
(-0.00032587 0.000156937 0.000100259)
(-0.000116026 2.00729e-06 9.65889e-06)
(0.00356051 0.00244597 5.21644e-06)
(0.000571857 -0.000140358 4.79986e-08)
(0.000169576 0.000594277 4.51834e-05)
(0.000180439 -0.000302943 0.00010246)
(0.00031825 -0.000304142 0.00195859)
(-0.000318768 -0.000153511 9.99638e-05)
(-3.93272e-05 -0.0068617 1.85724e-05)
(-0.000305247 -0.000321025 0.00193367)
(-2.20007e-05 7.85384e-05 8.25226e-05)
(-0.000755607 -0.00310219 0.000100685)
(0.000232971 -0.000203052 0.00200623)
(-3.93272e-05 -0.0068617 2.00755e-05)
(0.00036328 0.000417843 0.00188667)
(-0.000363493 0.000334821 0.00189174)
(9.12355e-05 8.97567e-05 0.000101823)
(0.000262732 0.00033856 9.4972e-05)
(-0.000130902 -0.000230257 0.00010325)
(-2.91502e-05 -7.97193e-05 8.60735e-05)
(0.000329481 0.000355783 8.63911e-05)
(0.00632695 0.0027757 2.78107e-05)
(7.22988e-05 0.000114216 9.16031e-05)
(4.65486e-05 -6.99459e-05 8.31873e-05)
(0.000317221 0.00029935 0.00199847)
(-0.000824863 -0.000646845 8.42707e-05)
(4.81571e-05 -8.95811e-05 9.12453e-05)
(0.000372162 -0.000363307 9.16578e-05)
(0.000372162 -0.000363307 8.32844e-05)
(-0.000172626 -8.31323e-05 9.96804e-05)
(0.000129954 2.02018e-05 0.00010239)
(4.49606e-06 -2.02108e-11 -7.21707e-07)
(-0.000172626 -8.31323e-05 8.82155e-05)
(-0.000174626 -0.000257073 8.08917e-05)
(5.56246e-07 0.000219316 7.76454e-05)
(-0.000549221 0.000110053 7.32332e-05)
(0.00016301 7.85138e-05 9.6195e-05)
(-7.47241e-05 3.83372e-11 6.49942e-07)
(-0.000122468 8.89298e-05 8.36657e-05)
(9.12355e-05 8.97567e-05 9.47342e-05)
(0.000318485 0.000306534 9.535e-05)
(4.38624e-05 -4.09614e-10 6.00375e-05)
(-2.20007e-05 7.85384e-05 7.94559e-05)
(0.000311917 -0.000467778 8.62406e-05)
(-8.99502e-05 0.000156274 9.62075e-05)
(-0.000195366 9.40837e-05 8.05099e-05)
(0.000219145 -1.13704e-05 0.000103249)
(0.000140085 -2.07853e-05 8.96967e-05)
(-0.000187838 1.07336e-05 7.79216e-05)
(3.10943e-05 -4.37345e-05 7.29015e-05)
(0.000313112 -7.21314e-06 9.19487e-05)
(0.000311917 -0.000467778 8.33889e-05)
(-0.000364886 0.000333427 0.00189174)
(9.12355e-05 8.97567e-05 9.53315e-05)
(-0.000179002 0.000217557 0.00218686)
(-0.0012651 0.00405857 7.82839e-05)
(-7.97513e-05 -0.000125512 6.54069e-05)
(-0.000347315 0.000480012 8.64352e-05)
(-2.66882e-06 -0.000145118 9.0208e-05)
(-0.000141387 -7.41331e-05 0.00197637)
(-0.000101916 0.000202551 8.58974e-05)
(0.000609456 -7.79015e-05 8.10377e-05)
(-0.000507181 -0.000305581 9.3027e-05)
(0.000329481 0.000355783 8.49424e-05)
(-0.000130902 -0.000230257 0.000109926)
(0.000313841 -1.0191e-09 8.56473e-05)
(-0.000172626 -8.31323e-05 8.86079e-05)
(0.000810126 1.08574e-05 0.00222028)
(-0.00036475 0.000333563 0.00189174)
(0.000318122 -0.00030427 0.00195859)
(0.0005838 1.82839e-05 7.90738e-05)
(0.000317971 -0.000304421 0.00195859)
(0.000264391 0.00023321 8.43815e-05)
(-7.27302e-05 -0.000358593 7.47364e-05)
(-0.000504582 -0.000146068 8.72809e-05)
(-0.000326381 8.26874e-05 8.75665e-05)
(-0.000195366 9.40837e-05 9.1545e-05)
(-0.000318768 -0.000153511 9.34539e-05)
(-6.74619e-05 2.00729e-06 2.96678e-05)
(3.10943e-05 -4.37345e-05 7.25838e-05)
(-0.00116443 0.0008203 0.000102581)
(-0.00663194 -0.000260908 0.000383635)
(-0.000187838 1.07336e-05 8.21804e-05)
(-4.013e-05 2.16429e-05 7.4177e-05)
(-0.000130902 -0.000230257 0.000102024)
(0.000117027 -2.84761e-07 2.13563e-05)
(0.000329481 0.000355783 9.09235e-05)
(0.000313841 -1.0191e-09 8.29114e-05)
(0.000372162 -0.000363307 8.23526e-05)
(0.000262732 0.00033856 8.41281e-05)
(-8.99502e-05 0.000156274 8.73227e-05)
(0.000313841 -1.0191e-09 8.63083e-05)
(2.53369e-05 1.87196e-06 7.83064e-05)
(-0.000192955 1.07336e-05 0.00196318)
(-0.000163906 -0.000317091 8.72716e-05)
(0.000355112 8.82018e-05 8.89044e-05)
(0.000262732 0.00033856 9.19805e-05)
(0.000352174 -0.000335183 0.00196571)
(0.00016301 7.85138e-05 0.000101926)
(0.000169576 0.000594277 4.76429e-05)
(-0.000195366 9.40837e-05 7.35007e-05)
(-0.000351982 -0.000327152 0.0020147)
(-0.00129129 0.00594184 9.28341e-05)
(-0.000169771 -0.000381761 8.31812e-05)
(0.000372162 -0.000363307 8.05019e-05)
(-0.000130902 -0.000230257 8.51007e-05)
(0.000266226 0.000101069 0.00218895)
(3.71369e-05 9.96408e-08 8.6665e-05)
(0.000232393 -0.000348873 9.24947e-05)
(0.000180439 -0.000302943 0.000102224)
(2.05957e-10 -0.0119104 1.44813e-05)
(2.05957e-10 -0.0131037 1.44813e-05)
(-1.45887e-05 0.000261685 7.45838e-05)
(-0.0010113 0.000368208 8.744e-07)
(0.00356051 0.00244597 9.01407e-06)
(0.00016301 7.85138e-05 9.33491e-05)
(-0.000101916 0.000202551 9.59706e-05)
(-0.000226665 -0.000212503 0.00184201)
(0.000305218 -0.000237948 0.00207931)
(5.03848e-06 0.000297631 3.47754e-06)
(-8.41061e-08 7.75563e-05 1.72454e-06)
(0.00672308 -0.0027125 0.000110448)
(-2.66882e-06 -0.000102245 0.000133624)
(-0.000307846 -0.000303023 0.0020547)
(-0.000172626 -8.31323e-05 9.25597e-05)
(5.18068e-05 -7.85016e-05 0.000103554)
(0.000313841 -1.0191e-09 9.14919e-05)
(-0.00015225 -0.000243753 8.42151e-05)
(0.000198027 -0.000307005 8.98257e-05)
(-0.000298864 0.000305078 0.00197723)
(-0.000106288 -5.11857e-05 0.00207166)
(0.000280733 0.000198072 6.14701e-05)
(-4.27738e-05 -2.20407e-06 3.74417e-05)
(0.000123065 0.00022538 8.76743e-05)
(-0.000179744 8.65602e-05 0.00209509)
(-0.000318768 -0.000153511 9.55672e-05)
(-0.00032587 0.000156937 8.6347e-05)
(2.05957e-10 -0.0144868 1.44813e-05)
(-0.000172626 -8.31323e-05 8.99867e-05)
(-2.00174e-05 -2.85817e-05 7.26386e-05)
(4.09757e-07 9.07216e-05 1.8795e-05)
(0.00632695 0.0027757 2.60894e-05)
(-0.000114016 -5.49074e-05 8.23408e-05)
(-0.00176582 -0.00228697 0.00231616)
(0.000317401 0.00029917 0.00199847)
(-0.000163906 -0.000317091 9.06005e-05)
(-0.000130463 -0.00592507 0.000514376)
(3.06748e-05 -2.87624e-05 6.98537e-05)
(-0.000126524 -0.000105602 7.55811e-05)
(-0.000105814 0.000199556 9.315e-05)
(-1.8318e-06 -0.000382297 -1.83113e-06)
(-0.000152245 0.000520514 8.2758e-05)
(-0.000365997 0.000332316 0.00189174)
(-7.27302e-05 -0.000358593 7.90032e-05)
(0.000231968 0.00021804 0.00199316)
(4.81571e-05 -8.95811e-05 8.69306e-05)
(0.000372162 -0.000363307 8.01919e-05)
(-0.00596426 -0.00160362 0.000106941)
(0.000673716 -0.00132449 9.48658e-05)
(-0.00116443 0.000783863 0.000102581)
(-0.000221401 -0.000209923 0.00182643)
(-8.82468e-05 0.000128219 7.65483e-05)
(0.000123065 0.00022538 8.34894e-05)
(-0.000299636 -0.000326635 0.00193367)
(9.73146e-05 4.97893e-06 0.00210586)
(5.51879e-05 -7.78781e-05 7.82212e-05)
(0.000372162 -0.000363307 8.42784e-05)
(-9.13302e-05 -0.00673252 1.89537e-05)
(0.000198027 -0.000307005 8.1311e-05)
(-0.000310296 -0.000310439 0.00192432)
(-8.99502e-05 0.000156274 9.65647e-05)
(0.000398154 2.07056e-05 3.8471e-05)
(1.57106e-05 -2.8555e-05 7.5937e-05)
(-8.41061e-08 7.75563e-05 1.61349e-06)
(-0.000346797 -0.000332337 0.0020147)
(4.38624e-05 -4.09614e-10 6.28575e-05)
(0.000180439 -0.000302943 9.91893e-05)
(0.000198027 -0.000307005 7.61252e-05)
(-0.000116026 2.00729e-06 1.33505e-06)
(-5.78818e-07 -6.97681e-06 8.61982e-05)
(-8.82468e-05 0.000128219 7.72258e-05)
(0.00632695 0.0027757 2.63386e-05)
(-0.00310782 0.00677677 0.000106744)
(-0.000114016 -5.49074e-05 8.84868e-05)
(0.000306619 -0.000278522 8.95449e-05)
(2.20014e-11 0.000208316 2.25737e-06)
(-0.000163906 -0.000317091 9.05123e-05)
(2.53369e-05 1.87196e-06 7.48411e-05)
(0.000306619 -0.000278522 9.67264e-05)
(0.000243424 0.000411304 7.77977e-05)
(0.000142127 2.02018e-05 0.00221346)
(0.000170333 -0.000221298 7.00749e-07)
(-0.000116026 2.00729e-06 6.25204e-06)
(-0.000549221 0.000110053 7.40344e-05)
(-0.000109602 8.80372e-05 7.97568e-05)
(-0.000171316 9.00349e-05 8.31896e-05)
(0.000280104 0.000187692 9.11578e-07)
(-5.67496e-05 7.20739e-05 6.86994e-05)
(5.51879e-05 -7.78781e-05 8.08763e-05)
(-0.00658383 0.000240219 0.000383635)
(0.000256254 0.000234938 0.00203375)
(0.000454407 0.000278016 0.00174398)
(-0.000116026 2.00729e-06 1.23187e-06)
(-8.67234e-05 0.000132536 9.02746e-05)
(0.000313112 -7.21314e-06 8.30908e-05)
(0.000311917 -0.000467778 7.99915e-05)
(3.06748e-05 -2.87624e-05 6.9337e-05)
(7.22988e-05 0.000114216 8.97332e-05)
(4.81571e-05 -8.95811e-05 9.63945e-05)
(-8.67234e-05 0.000132536 9.93763e-05)
(-2.66882e-06 -0.000102245 4.20401e-06)
(-0.000195366 9.40837e-05 9.19486e-05)
(-0.00161727 0.0044427 8.93292e-05)
(0.000260687 0.000233801 7.21136e-05)
(-0.000348873 0.000323885 0.00186912)
(0.000176546 8.54233e-06 8.77025e-05)
(-0.00130852 -0.00250719 9.40637e-05)
(0.000118265 -2.84761e-07 2.13563e-05)
(-0.000171316 9.00349e-05 7.42814e-05)
(-0.000109602 8.80372e-05 7.5458e-05)
(0.000262732 0.00033856 9.28377e-05)
(0.000112812 0.000352094 6.76063e-05)
(0.000372794 0.000145171 7.77705e-05)
(5.44632e-05 7.0681e-05 6.8423e-05)
(-0.000101916 0.000202551 8.62866e-05)
(-5.05521e-05 9.6886e-06 2.34361e-05)
(-0.000123839 -5.84222e-05 8.1733e-05)
(-0.00032587 0.000156937 9.18832e-05)
(0.0005838 1.82839e-05 7.67916e-05)
(-0.00130852 -0.00250719 0.000106531)
(-0.000332318 -1.0338e-07 4.12327e-06)
(-6.26907e-05 5.80219e-07 6.34637e-06)
(-0.000130902 -0.000230257 9.76884e-05)
(0.000189721 -0.000452624 9.31287e-05)
(-0.000279299 0.000707603 0.00226841)
(0.000306619 -0.000278522 9.21353e-05)
(-8.41061e-08 7.75563e-05 1.71437e-06)
(0.000232052 0.000217956 0.00199316)
(8.58764e-05 0.000119407 9.12035e-05)
(-0.00116443 0.000795281 0.000102581)
(0.000451516 -0.000210931 8.69472e-05)
(-0.00724686 -0.000334257 1.90861e-05)
(0.000278977 -0.000228876 0.0020195)
(4.38624e-05 -4.09614e-10 6.07284e-05)
(-0.000241224 0.000305838 7.04198e-05)
(0.000236356 -0.000199668 0.00200623)
(-2.66882e-06 -0.000102245 3.11075e-06)
(-0.000172626 -8.31323e-05 8.79787e-05)
(-0.000130902 -0.000230257 9.62387e-05)
(-5.38538e-05 3.72744e-05 9.20719e-05)
(0.000231185 0.000218823 0.00199316)
(-2.96576e-15 -6.21182e-06 0.000107266)
(0.000372162 -0.000363307 8.57228e-05)
(-0.0120042 -2.9281e-06 1.45803e-06)
(0.000243424 0.000411304 8.55201e-05)
(-5.38538e-05 3.72744e-05 8.3604e-05)
(-0.000130902 -0.000230257 9.32445e-05)
(-0.000171316 9.00349e-05 8.02626e-05)
(-2.20007e-05 7.85384e-05 8.06006e-05)
(0.00672308 -0.0027125 0.000107123)
(-2.66882e-06 -0.000143625 9.0208e-05)
(0.000261675 0.000100162 0.00218895)
(-4.24337e-05 -0.00593352 2.14944e-05)
(-0.000195366 9.40837e-05 8.87997e-05)
(0.000138458 0.000360754 0.00191611)
(0.000120887 0.000329121 8.81947e-05)
(-0.000285095 -0.000172611 8.1875e-07)
(0.000329481 0.000355783 8.30716e-05)
(0.000481074 -0.00112808 6.75006e-05)
(-0.0010113 0.000368208 8.66319e-07)
(0.000240543 -5.11948e-05 1.403e-05)
(0.000306619 -0.000278522 9.10624e-05)
(0.000183685 0.00048385 9.0314e-05)
(0.000180439 -0.000302943 8.74997e-05)
(-0.0015233 -0.00351735 0.000101623)
(0.00016301 7.85138e-05 9.0738e-05)
(-3.91069e-11 2.2747e-05 -5.26485e-07)
(-0.00596426 -0.00160362 8.83888e-05)
(0.000372162 -0.000363307 8.55307e-05)
(-3.91069e-11 2.2747e-05 -5.98546e-07)
(0.000159458 7.00598e-05 9.83318e-05)
(0.000171258 0.000117545 0.00119757)
(-0.000163906 -0.000317091 9.81778e-05)
(-0.000174626 -0.000257073 9.17975e-05)
(1.45965e-06 5.42838e-05 7.17975e-05)
(0.000419678 0.000196892 8.40168e-05)
(-2.04078e-06 -0.000108629 8.12998e-05)
(-8.99502e-05 0.000156274 8.14648e-05)
(0.000264391 0.00023321 8.97027e-05)
(1.57106e-05 -2.8555e-05 7.37055e-05)
(-0.000130902 -0.000230257 8.99852e-05)
(-0.000896419 -0.00625149 8.77107e-05)
(0.000311917 -0.000467778 8.42018e-05)
(0.000180439 -0.000302943 9.53912e-05)
(0.000319238 0.000297333 0.00199847)
(-0.000207844 -3.95522e-05 0.000101911)
(-8.41061e-08 7.75563e-05 1.67251e-06)
(-4.24337e-05 -0.00593352 2.23279e-05)
(5.51879e-05 -7.78781e-05 7.75792e-05)
(-0.000174626 -0.000257073 8.07869e-05)
(-0.000316839 0.000251211 8.72469e-05)
(-0.0015233 -0.00351735 0.000101572)
(0.000180439 -0.000302943 9.87317e-05)
(-0.00032587 0.000156937 8.9953e-05)
(2.53369e-05 1.87196e-06 7.50247e-05)
(-0.000318768 -0.000153511 9.18567e-05)
(-7.16449e-08 -7.86472e-09 1.1771e-12)
(8.79139e-05 -0.00034811 7.7034e-05)
(-0.000174626 -0.000257073 8.36344e-05)
(-3.13987e-05 6.88995e-05 9.35956e-05)
(-0.000190998 -0.00138845 4.90992e-05)
(-8.99502e-05 0.000156274 8.18824e-05)
(0.000123065 0.00022538 8.52918e-05)