/*--------------------------------*- C++ -*----------------------------------*\
| =========                 |                                                 |
| \\      /  F ield         | OpenFOAM: The Open Source CFD Toolbox           |
|  \\    /   O peration     | Version:  plus.master.MPPICInterFoam            |
|   \\  /    A nd           | Web:      www.OpenFOAM.com                      |
|    \\/     M anipulation  |                                                 |
\*---------------------------------------------------------------------------*/
FoamFile
{
    version     2.0;
    format      ascii;
    class       scalarField;
    location    "10/lagrangian/kinematicCloud";
    object      d;
}
// * * * * * * * * * * * * * * * * * * * * * * * * * * * * * * * * * * * * * //


1040
(
0.000546882
0.000547627
0.000538788
0.000533607
0.000551741
0.000549529
0.000563349
0.000517607
0.000591112
0.000549967
0.000545237
0.000560045
0.000565237
0.000544563
0.000536608
0.00051317
0.000512799
0.000588945
0.000541557
0.000564195
0.000529972
0.000519873
0.000596973
0.000541975
0.00056942
0.000499234
0.000521238
0.000577654
0.000579644
0.000522538
0.000512964
0.000540072
0.000522171
0.000523038
0.000552021
0.000537347
0.00052832
0.0005287
0.000565366
0.000527093
0.000528568
0.000560402
0.000537525
0.000570306
0.000592529
0.000510256
0.000530699
0.000489739
0.000516635
0.000547094
0.000541909
0.000503531
0.000522293
0.000502001
0.000501392
0.000546814
0.00051462
0.000514915
0.000557567
0.000549873
0.000559549
0.000585505
0.000520799
0.000592187
0.000485764
0.000504772
0.000542669
0.000525587
0.000520245
0.000541593
0.000558268
0.000530739
0.000551111
0.000531321
0.000510523
0.000570341
0.000516501
0.000558008
0.000568842
0.000492572
0.000571962
0.00054212
0.000508386
0.0005567
0.000522294
0.000566686
0.000552624
0.000525651
0.000524383
0.000535156
0.000601293
0.000557527
0.000537241
0.000514691
0.000512807
0.000516216
0.000508732
0.000543423
0.00051117
0.000573477
0.000582076
0.000518866
0.000578611
0.000514437
0.000548559
0.000523749
0.000557732
0.000550661
0.000573325
0.000522458
0.000525472
0.000551492
0.000509951
0.000507699
0.00053145
0.000538137
0.00054676
0.00051754
0.000601822
0.000600059
0.000561283
0.000507477
0.000509728
0.000538929
0.000540468
0.000549997
0.000529446
0.000521394
0.000481409
0.000526583
0.000525202
0.000449047
0.000599871
0.000509408
0.00054704
0.000566813
0.000539407
0.000509781
0.000525127
0.000566308
0.000575267
0.000540504
0.000535276
0.000572901
0.000560285
0.000538669
0.000537161
0.000539622
0.000594561
0.000569697
0.000527264
0.000587906
0.000575961
0.00053629
0.000590929
0.000543225
0.000592786
0.00051962
0.00053932
0.000546686
0.000559805
0.000576277
0.000604058
0.000543315
0.000576236
0.000530248
0.000568574
0.000597677
0.000598375
0.000538274
0.000527196
0.00050378
0.000543224
0.000572773
0.000508104
0.000564994
0.000541904
0.000542689
0.000547738
0.000497537
0.000547392
0.000534475
0.000498283
0.000586321
0.000600179
0.000548213
0.000548936
0.000483276
0.000566305
0.000616592
0.000545578
0.000546765
0.000540025
0.000561484
0.00055118
0.000541328
0.000578925
0.000550286
0.000544178
0.000536465
0.000546978
0.000559909
0.000531082
0.000597857
0.000550105
0.00055367
0.000553286
0.000575937
0.000562306
0.000555589
0.00054649
0.000616754
0.00062524
0.000554341
0.000547929
0.000559683
0.000598564
0.000558445
0.000539354
0.000605452
0.000611963
0.000518442
0.000590231
0.00053916
0.000593216
0.000580184
0.000588471
0.000542683
0.000569591
0.000567981
0.000536961
0.000556492
0.000594663
0.000539706
0.000542397
0.000544627
0.000510488
0.000600123
0.000559249
0.000524505
0.000541442
0.00053998
0.000575225
0.000558641
0.000574623
0.000548391
0.000541557
0.000558555
0.000601878
0.000506392
0.000540529
0.000447416
0.00050136
0.000526816
0.000548258
0.000557654
0.000549187
0.000535793
0.00056945
0.000602359
0.00053951
0.000535323
0.000529583
0.000559935
0.00054901
0.000518175
0.00053472
0.00055813
0.000562059
0.000565899
0.00056612
0.000581183
0.000551894
0.000528837
0.00056735
0.000565452
0.000611464
0.000531098
0.000616672
0.000565004
0.000601269
0.000584478
0.000524983
0.000569017
0.000547143
0.000543714
0.000639841
0.00056472
0.000538706
0.00055363
0.000606188
0.000590767
0.000522526
0.000564183
0.000563286
0.000588322
0.000540545
0.00059232
0.000567105
0.000623847
0.00059304
0.000562525
0.000545415
0.000506971
0.00051792
0.000624363
0.000597269
0.000548627
0.000588112
0.000619659
0.000590956
0.000576234
0.000533467
0.000571203
0.000572238
0.000541206
0.000508508
0.000606223
0.00051775
0.000570958
0.000550301
0.000606321
0.000564394
0.000540861
0.000563406
0.000545633
0.000536644
0.000527492
0.000510496
0.000560101
0.000556583
0.0006061
0.000595157
0.000555744
0.000593577
0.000578805
0.00059789
0.000564296
0.000550337
0.000534448
0.000574154
0.000562389
0.000615835
0.00055937
0.000522083
0.000552008
0.000554716
0.000548108
0.000573827
0.000554411
0.000547405
0.000533326
0.000514045
0.000554689
0.000517879
0.00055378
0.000571336
0.000557455
0.000540169
0.000551056
0.000534218
0.000556206
0.000553897
0.00055576
0.000552301
0.000570507
0.000539853
0.000561603
0.000558171
0.000561282
0.000508974
0.000541496
0.000544046
0.000516457
0.000545864
0.000545919
0.000560693
0.000565212
0.000630432
0.000550979
0.000524961
0.000569571
0.000564681
0.000636265
0.000563798
0.000552121
0.000530056
0.000525428
0.000566393
0.000554965
0.000553839
0.000548262
0.000555444
0.000513997
0.000584315
0.000623963
0.000594929
0.000585611
0.000517076
0.000592992
0.000541572
0.000511246
0.000495578
0.000585486
0.000556623
0.000526713
0.000591096
0.000534669
0.000522908
0.000591542
0.00052658
0.000590999
0.0005462
0.000590781
0.00053828
0.00059736
0.000594099
0.00057901
0.000504958
0.000546627
0.000569676
0.000524806
0.000598805
0.000506045
0.000509509
0.000561905
0.000602823
0.000543868
0.000578165
0.000605958
0.000546623
0.00057733
0.000597174
0.000568541
0.000581601
0.000630133
0.000498636
0.000567891
0.000538422
0.000593095
0.000555526
0.000569688
0.000567503
0.000591605
0.000574826
0.000536371
0.000554471
0.000523384
0.0005606
0.000550427
0.00052136
0.000579764
0.000526138
0.000586174
0.000595283
0.000510076
0.00053837
0.000575962
0.000589512
0.000563305
0.000536542
0.000553144
0.000534053
0.000554347
0.000544266
0.000528508
0.000536832
0.000542395
0.000532395
0.000592627
0.000561626
0.0005697
0.000525237
0.000557134
0.000562376
0.000524938
0.000533042
0.000551554
0.000611405
0.000540391
0.000519429
0.000574814
0.000544726
0.00053394
0.000526976
0.000531492
0.000618548
0.000574564
0.000553928
0.000606705
0.000605328
0.000560346
0.000553854
0.000520871
0.00054001
0.000554798
0.000588564
0.00061256
0.000611818
0.000554651
0.000567503
0.000569308
0.000525492
0.00056224
0.000539637
0.000575331
0.000592376
0.000565137
0.000501657
0.000617451
0.000558593
0.000549796
0.00052008
0.000562206
0.000566763
0.000551707
0.00058065
0.000548201
0.000563798
0.000601248
0.000556481
0.000503648
0.00055564
0.000574908
0.000568089
0.000544115
0.000604008
0.000548488
0.000597389
0.000585981
0.000565937
0.000569108
0.000565873
0.000549189
0.000574402
0.000540019
0.000581588
0.000563134
0.000564548
0.000560306
0.000565865
0.00050417
0.000615218
0.00058076
0.00055965
0.00059718
0.000571902
0.000587867
0.000551511
0.000532575
0.000564458
0.000525477
0.000573017
0.00058523
0.000556938
0.000588949
0.000644076
0.000639839
0.000615497
0.000602736
0.000542399
0.000562355
0.000568612
0.000546368
0.000563596
0.000564581
0.000563212
0.000563154
0.000581623
0.000594121
0.000539577
0.000594914
0.000547864
0.000542906
0.000590768
0.000593542
0.000582189
0.000529458
0.000552123
0.000579768
0.00054932
0.000612523
0.000586998
0.000521704
0.000584895
0.000623436
0.00062436
0.000563535
0.000561341
0.000574744
0.000583153
0.000546668
0.000606474
0.000568233
0.000562114
0.000550056
0.000588627
0.000571562
0.000573891
0.000584334
0.000625425
0.000574802
0.00062045
0.000575722
0.000528108
0.000585415
0.000628107
0.000570414
0.000624811
0.000521956
0.000566369
0.000617815
0.000542993
0.000602579
0.000553257
0.000554052
0.000519171
0.000576684
0.000550684
0.000572232
0.000564423
0.000561428
0.000594507
0.000581393
0.000578192
0.000591455
0.000565433
0.000567855
0.000556124
0.000522123
0.000580551
0.000576262
0.00060211
0.000531207
0.000638984
0.000564668
0.000589011
0.000561055
0.000566986
0.000588737
0.000565045
0.000585627
0.000522682
0.000582459
0.000568467
0.000571057
0.000570091
0.000578717
0.000578921
0.000613184
0.000609489
0.000550752
0.000570347
0.00057196
0.000575736
0.000580649
0.000599341
0.000629451
0.000604219
0.000508866
0.000492038
0.000556917
0.000572143
0.000618204
0.000563339
0.000577274
0.000588758
0.000579695
0.000566037
0.000600036
0.000530663
0.000561353
0.000599995
0.000601539
0.000597823
0.000635263
0.000561922
0.000604025
0.000606193
0.000591906
0.00059262
0.000641866
0.000583001
0.000565517
0.000621135
0.000560244
0.000591206
0.000627617
0.000542078
0.000620975
0.00056265
0.000601765
0.00064303
0.000576132
0.000580151
0.000575932
0.000571816
0.000546228
0.000568365
0.000569906
0.000636086
0.000509933
0.000553327
0.00058238
0.00058896
0.000546691
0.000607993
0.000587006
0.000617154
0.000578287
0.000583196
0.000621776
0.000601528
0.000555069
0.000571655
0.000567358
0.000545413
0.000620497
0.00056888
0.000603217
0.000566113
0.000575446
0.000632665
0.000541939
0.000577685
0.000532029
0.000549193
0.000593799
0.000587703
0.00057832
0.000599059
0.000555097
0.000614787
0.000638434
0.000628087
0.000588061
0.000608202
0.000560948
0.000587022
0.00057175
0.000532023
0.000564095
0.000576954
0.000611559
0.000588101
0.000582629
0.000575777
0.000544569
0.000585102
0.000545034
0.000559395
0.000607198
0.000635184
0.000587846
0.000519684
0.000613785
0.000572792
0.000527485
0.000548303
0.000559999
0.000555965
0.000587869
0.000568964
0.000609008
0.000559474
0.000568613
0.000647611
0.000593956
0.000578379
0.000486851
0.000494503
0.000457275
0.00053035
0.000555686
0.000507807
0.000541416
0.000522416
0.000546649
0.000526414
0.000524585
0.000583372
0.000525412
0.000569911
0.000533593
0.000537731
0.000544259
0.000608403
0.00055558
0.000543315
0.000467055
0.000608935
0.000575706
0.000552667
0.000543519
0.000587175
0.000587704
0.000578219
0.000578875
0.000530576
0.000540275
0.000546687
0.000574534
0.000546399
0.000564228
0.000471066
0.000510243
0.000592119
0.000467077
0.000560872
0.000530418
0.000590013
0.000527275
0.000488085
0.000595506
0.000621555
0.000547075
0.000588295
0.00054447
0.000608442
0.0005982
0.00059971
0.000570521
0.000569547
0.000555448
0.000524072
0.000537933
0.00056241
0.000543029
0.000520153
0.000516374
0.000514237
0.00053391
0.00052073
0.000543659
0.000567671
0.000540958
0.000493274
0.00057193
0.000581622
0.000532361
0.00055691
0.000560065
0.000583548
0.000525529
0.000568397
0.000552668
0.000520051
0.000511321
0.000543786
0.000554629
0.000502559
0.000488346
0.000477691
0.000548291
0.000561906
0.000570112
0.000570217
0.000588145
0.00051036
0.000600509
0.000567314
0.000546782
0.000564914
0.000503692
0.000571198
0.000506874
0.000589449
0.000577969
0.000495334
0.000564082
0.000510717
0.000527103
0.000540855
0.000544042
0.000634917
0.000496526
0.000543853
0.000580152
0.000575093
0.000574468
0.000441219
0.000577708
0.000518597
0.000552269
0.000567845
0.000531018
0.000548693
0.000546082
0.000523275
0.000607321
0.000585634
0.000527259
0.000563713
0.000577065
0.000580946
0.000567715
0.000589207
0.000569693
0.000531219
0.000579365
0.00052207
0.00059301
0.000629448
0.000590636
0.000569432
0.000541301
0.000567178
0.000595406
0.000572375
0.000525413
0.000591895
0.00059285
0.000573434
0.000549443
0.000597043
0.000558138
0.00056836
0.000602167
0.000576516
0.000574486
0.000518969
0.000561726
0.00052943
0.000555113
0.000558236
0.000529986
0.000529713
0.000563531
0.000508665
0.000574661
0.000622651
0.000504827
0.000530791
0.000562493
0.000546772
0.000545719
0.000535665
0.000523642
0.00050204
0.000574696
0.000505644
0.000488678
0.000523399
0.000533648
0.000513779
0.000643762
0.00052148
0.000543664
0.000537598
0.000564029
0.000568028
0.000497659
0.000513906
0.000489645
0.000489131
0.000546914
0.000528535
0.000529656
0.000574279
0.00050542
0.000512084
0.000479389
0.000578854
0.000582534
0.000604455
0.000573959
0.00049085
0.000542098
0.000494616
0.000486526
0.000484286
0.000499814
0.000569876
0.000466555
0.000516385
0.000550811
0.000637294
0.00054843
0.000525918
0.000529996
0.000534854
0.000568227
0.00057224
0.000525076
0.000559936
0.000475451
0.000558554
0.000574558
0.000572465
0.000553998
0.000579068
0.00050031
0.000521084
0.000547468
0.000547078
0.000508698
0.000636997
0.000697077
0.000578853
0.000578318
0.00057312
0.000521934
0.000577184
0.000489421
0.000493746
0.000494459
0.000607579
0.000513441
0.000502746
0.000532167
0.000520992
0.000569859
0.000527116
0.000518415
0.000518849
0.000454735
0.000511071
0.000536623
0.000517004
0.00051359
0.000499605
0.00057969
0.000488982
0.000517589
0.000467898
0.000455613
0.000495604
0.000513069
0.000519866
0.000475278
0.000494988
0.00050792
0.000496352
0.000480122
0.000564226
0.000516252
0.000533968
0.000619024
0.000520874
0.000531777
)


// ************************************************************************* //
