/*--------------------------------*- C++ -*----------------------------------*\
| =========                 |                                                 |
| \\      /  F ield         | OpenFOAM: The Open Source CFD Toolbox           |
|  \\    /   O peration     | Version:  plus.master.MPPICInterFoam            |
|   \\  /    A nd           | Web:      www.OpenFOAM.com                      |
|    \\/     M anipulation  |                                                 |
\*---------------------------------------------------------------------------*/
FoamFile
{
    version     2.0;
    format      ascii;
    class       labelField;
    location    "10/lagrangian/kinematicCloud";
    object      origId;
}
// * * * * * * * * * * * * * * * * * * * * * * * * * * * * * * * * * * * * * //


1040
(
13385
20232
8524
7919
13281
8078
173
990
8360
17440
4293
16067
23744
39605
26293
21896
9778
835
10191
13522
1389
15452
20508
10702
24218
13992
8313
16456
21727
13452
18946
10167
16441
17032
7434
9118
16379
6247
32436
25751
13058
42998
15538
6720
15567
14379
9418
26228
5662
7401
4974
5347
14213
25433
10633
36888
1147
1059
14672
15477
15826
24889
21122
32443
10597
5435
16837
31704
13552
4767
13974
12246
6507
18700
1240
17359
16062
1153
4192
11093
7644
18299
4479
2724
26639
36387
14545
123
1253
6455
19126
23234
11438
5449
72
44178
10773
28987
15296
18429
19748
6935
762
23343
22636
35650
30198
103
5554
25516
3126
119
2172
9946
6761
16610
11942
7731
13805
22373
7176
5004
22358
4374
29009
5577
12578
23756
615
14035
10000
4155
584
25897
7611
14601
40804
9286
771
13518
13082
37034
12841
13447
12923
5282
31735
19681
18099
5192
1424
2856
34975
6571
6339
21883
323
9571
4355
15281
3054
9519
11972
21846
2588
34918
20789
4429
7435
13427
12820
8661
316
1702
1513
3416
3440
11888
5338
4746
16
10007
2885
10440
10005
24742
26243
2987
1130
19486
27400
1236
15803
17884
43713
4195
27296
407
3449
9177
46900
6028
20163
22687
6880
56561
8086
18547
30206
848
37434
13806
24382
23000
12641
20436
5278
3663
5428
7461
19157
46707
13693
25055
5001
30575
11816
3121
22463
3786
9072
22250
9876
8411
1233
3224
11483
8799
12604
22406
1006
47322
7410
8872
2301
8001
4508
3762
14184
26627
21043
32112
20003
8453
16012
20656
33331
15474
15785
22623
4704
12724
16562
12630
2019
5129
9945
9388
20500
15012
18680
58965
15587
1355
48309
1407
11233
24384
13039
16751
12257
7025
14553
9357
31501
24132
880
2219
32057
7642
49244
18470
10595
32322
14756
6184
35811
44568
7539
7736
14079
2139
27811
5543
3880
12489
35461
18613
19727
17977
1073
17383
408
7732
8776
33411
9269
30173
18046
7227
5703
18936
38136
3931
1027
2107
7491
15417
4108
17752
31195
9343
3862
1978
10262
42030
12314
13743
31330
33992
1848
3806
12883
42423
9993
15044
6008
20188
12150
777
5141
9579
19738
34833
15515
5480
5806
22389
23665
10016
4357
2329
2186
560
24371
18538
14240
26315
705
34914
22685
42854
3886
27894
14013
14518
28152
9048
12521
7650
10543
24729
6875
27090
20718
45239
40488
20174
10979
11486
30379
16658
6823
31950
23490
29230
13332
10415
6316
25274
33639
14484
3835
15557
20024
8806
1302
8448
29987
32234
2421
8758
4106
6017
6400
17015
16355
1068
5436
9209
950
26635
46736
11858
14143
4036
1217
2072
7261
17982
35283
14172
7521
24005
11920
3321
22040
28665
17449
26785
4997
4321
433
18431
48633
15623
8544
13605
13013
42517
3350
5794
37975
23793
1923
7226
10158
9277
4133
32828
29953
15064
27314
4919
1189
15950
28593
10334
1901
15635
86
32163
3783
42968
25872
4564
41518
5405
23685
3075
49911
12735
7854
17797
6691
16760
17451
468
4556
6414
3772
26817
18245
11328
21412
2114
498
16727
5617
2650
8034
3674
9928
23163
50785
53376
13123
2323
7675
11693
12225
14501
38985
8437
30324
56723
11490
16680
11485
17034
12852
6428
6634
22684
10651
2943
18728
310
29236
39423
37408
42961
15712
36201
5350
31149
3771
29972
23326
35226
6526
7774
781
3909
23848
38964
8194
25851
851
30336
242
2405
17743
670
2672
39153
6363
29484
31582
9004
15403
27974
43368
29762
40624
13921
7246
38899
9969
31895
4799
12311
2215
21312
25296
10252
7068
20489
14538
9742
6092
18620
18115
9911
3355
12076
2828
24168
20192
34106
20869
5665
17764
14620
2605
8912
11039
16110
11659
57544
15259
9656
25280
1176
879
25273
12160
7225
10044
8198
1467
16041
14196
26591
2685
15237
42212
858
27848
27944
1014
1655
10015
2692
3648
7361
139
15072
33303
32362
14886
7740
21331
12795
16112
18586
16868
16408
20046
22368
4889
22432
43082
18443
25221
14239
37841
19410
187
16297
15910
175
43690
3603
1755
4202
34208
17931
15060
37377
13494
10802
21842
1306
2741
19591
7056
9191
4945
7648
22366
2551
14065
20575
40490
16755
34501
22504
35783
3971
28222
49370
28366
18727
683
7894
15103
2590
22503
22794
50137
20111
37801
50513
11006
8756
21003
11198
1144
25952
566
26992
536
34466
4449
6733
28453
21960
57470
9675
11086
12345
11821
43984
6716
5139
9888
19503
19935
2979
17291
1194
5881
11990
27374
13843
16420
35755
17780
24612
2869
1074
2216
4566
13242
10145
8265
20113
22534
76
10656
12428
17569
7700
3896
35572
4257
3808
16253
11264
28431
6528
14805
873
13570
4938
48887
44039
46798
13125
31607
41081
22052
11044
19655
7875
6096
403
7690
36322
51635
10058
47999
52731
64989
71568
36468
89174
2962
890
9
2800
33448
29768
38354
31339
1078
2615
14287
1466
48080
33533
20285
47902
11751
8353
2407
49725
29876
30523
37388
7272
69353
32531
5862
74730
165
89523
27932
53282
43958
30789
91401
9872
12363
16008
33167
76130
27737
3506
15802
3992
16523
14349
64465
359
88832
2603
91283
2913
3645
66314
54231
88500
39158
32561
14074
51783
76063
49822
37893
83080
1188
30933
51251
76759
2765
36385
76956
35511
56392
77181
3432
55581
72678
24468
40678
1921
31164
26984
75144
5529
67956
83419
2041
79693
60138
49643
9665
68449
22084
47229
80081
76519
42429
45916
56602
42944
85733
84800
64016
75303
79866
3798
71603
53125
10170
43376
86998
3945
932
74585
66542
90189
67421
31849
86696
51638
799
44402
49552
91226
83995
47765
77894
44248
80514
56287
55896
65725
37721
92908
83050
87926
90561
61079
78494
39331
23604
83880
89470
20231
50085
73194
76590
78790
91400
66281
56953
13352
64823
41621
26588
73594
76497
81348
1427
59632
30088
85803
92804
77017
25927
88043
64174
18282
89159
41348
89349
80961
28182
42945
92146
22630
73127
73247
63753
88541
47406
30220
14308
83484
89043
21507
56537
89844
85098
91516
13502
73286
83777
21657
80155
3465
56216
80897
77686
36192
83004
76804
21478
94196
40068
4736
5439
130
70144
72607
82606
77006
77029
67169
76741
83522
45302
86604
80333
39518
66663
18117
87562
53482
30179
7853
80488
68745
73575
71261
40653
69102
82311
85394
6151
59293
72697
87816
81642
71268
72631
89852
82578
2587
723
77412
69472
59847
18361
55936
49188
93238
6909
82394
67905
40125
54328
71663
92109
18645
36368
77840
)


// ************************************************************************* //
