/*--------------------------------*- C++ -*----------------------------------*\
| =========                 |                                                 |
| \\      /  F ield         | OpenFOAM: The Open Source CFD Toolbox           |
|  \\    /   O peration     | Version:  plus.master.MPPICInterFoam            |
|   \\  /    A nd           | Web:      www.OpenFOAM.com                      |
|    \\/     M anipulation  |                                                 |
\*---------------------------------------------------------------------------*/
FoamFile
{
    version     2.0;
    format      ascii;
    class       vectorField;
    location    "10/lagrangian/kinematicCloud";
    object      UCorrect;
}
// * * * * * * * * * * * * * * * * * * * * * * * * * * * * * * * * * * * * * //


1040
(
(-3.90572e-09 4.75424e-09 1.25769e-12)
(2.54851e-11 5.10025e-12 2.21945e-11)
(-5.5953e-07 -1.40747e-08 5.65821e-09)
(5.00954e-07 6.28183e-07 -8.21211e-08)
(4.09799e-11 8.63685e-12 1.1654e-11)
(4.05697e-11 8.54321e-12 1.1654e-11)
(-1.60585e-07 1.77289e-07 -8.08903e-13)
(5.06327e-07 1.42451e-06 1.01276e-12)
(3.91396e-12 2.37691e-12 8.73408e-12)
(-1.49884e-06 -3.421e-07 0.000173066)
(-3.57911e-07 -4.48802e-07 5.65821e-09)
(-1.75187e-12 -3.99857e-13 -1.23422e-07)
(4.11962e-11 8.68622e-12 1.1654e-11)
(5.00954e-07 6.28183e-07 -5.319e-08)
(1.17901e-11 -1.29879e-11 1.62692e-06)
(2.64309e-06 7.57029e-06 -6.20282e-12)
(3.19959e-06 1.40183e-05 -6.20282e-12)
(-3.94888e-09 4.71983e-09 1.25769e-12)
(8.13214e-07 1.27611e-06 1.01276e-12)
(-1.51446e-07 1.84578e-07 -7.1376e-13)
(-0.000218171 0.000224531 -6.37204e-08)
(2.99922e-06 1.31405e-05 -6.20282e-12)
(3.45752e-07 -2.55163e-08 3.79977e-11)
(-2.62494e-07 2.93508e-07 8.86117e-08)
(-1.21901e-06 -1.14181e-06 0.000385454)
(-2.47627e-06 2.92817e-06 2.51527e-07)
(-1.58067e-06 -4.79977e-07 -3.52014e-12)
(-1.75187e-12 -3.99857e-13 -1.54721e-07)
(-1.75187e-12 -3.99857e-13 -3.44384e-07)
(1.79556e-06 7.86685e-06 4.03012e-11)
(-1.54551e-08 6.77167e-08 -1.2115e-06)
(-0.000450037 0.00023916 -6.37204e-08)
(-1.43845e-06 -9.27837e-07 -7.24523e-13)
(1.17879e-06 3.78851e-06 3.30224e-11)
(4.52686e-07 6.58512e-07 -2.19538e-07)
(-0.000222378 0.000187199 -2.75556e-07)
(-1.31831e-06 -3.88171e-07 -3.52014e-12)
(7.37551e-07 -3.21983e-06 -2.37236e-09)
(-2.5449e-07 -3.19116e-07 3.89558e-07)
(4.67432e-13 1.12157e-12 2.46452e-12)
(6.58589e-07 -2.88546e-06 -3.52014e-12)
(1.72558e-06 -1.3761e-06 5.53601e-09)
(-0.000222378 0.000187199 -2.54131e-07)
(3.22075e-13 -4.25701e-13 2.19691e-07)
(2.54851e-11 5.10025e-12 1.50427e-12)
(-1.00761e-06 -1.71536e-06 5.37338e-07)
(2.64315e-06 -2.10784e-06 6.56541e-13)
(4.65653e-07 -2.98237e-07 4.06816e-06)
(-6.31697e-07 -6.45542e-07 -2.73927e-12)
(3.06607e-06 -2.44511e-06 8.70584e-10)
(1.17416e-12 -2.4382e-12 -2.75434e-12)
(-4.49204e-06 2.38404e-06 -1.07381e-06)
(1.23396e-06 2.54826e-06 1.01276e-12)
(4.10733e-07 -4.84814e-08 2.75934e-06)
(4.10733e-07 -4.84814e-08 2.86245e-06)
(5.86988e-07 -2.57176e-06 -3.52014e-12)
(-7.48594e-12 1.18745e-11 2.20521e-11)
(7.95847e-07 7.1175e-07 -5.25904e-08)
(2.11695e-12 -7.24111e-12 -6.06275e-12)
(5.05735e-13 -1.34535e-12 -2.75434e-12)
(1.17458e-06 -3.37368e-06 9.04273e-18)
(-3.84582e-09 4.80201e-09 1.25769e-12)
(-6.47965e-07 4.13884e-07 3.3347e-06)
(-1.49884e-06 -3.421e-07 2.79571e-05)
(-1.83462e-06 -3.01472e-07 1.81456e-06)
(-2.21977e-12 -1.15877e-12 -4.00569e-08)
(5.46037e-07 3.9288e-06 3.30224e-11)
(-2.40963e-06 3.06655e-06 2.51527e-07)
(5.01231e-07 6.36824e-07 3.79028e-06)
(3.20247e-06 -2.55389e-06 6.56541e-13)
(2.14104e-12 -7.23268e-12 -6.06275e-12)
(7.40804e-07 8.63346e-07 6.56541e-13)
(-9.14535e-07 -3.13118e-07 4.07865e-07)
(6.75517e-07 8.5253e-07 4.92313e-12)
(-5.51603e-14 2.01343e-13 -6.5056e-07)
(-4.41438e-07 -5.53542e-07 5.65821e-09)
(5.01231e-07 6.36824e-07 2.04131e-06)
(6.28661e-13 -7.76189e-12 -1.65301e-11)
(4.32242e-07 -1.21564e-06 -5.49043e-20)
(-1.6628e-06 -2.82112e-07 1.81456e-06)
(9.56068e-07 1.31264e-11 4.4191e-06)
(4.44938e-13 1.12944e-12 2.46452e-12)
(-8.80263e-08 2.13673e-06 1.81456e-06)
(1.42188e-14 -4.88804e-14 4.64281e-18)
(5.01231e-07 6.36824e-07 3.88898e-06)
(1.81726e-12 -1.29695e-11 -6.06275e-12)
(-5.04644e-07 -6.328e-07 5.65821e-09)
(2.47047e-06 1.26898e-06 2.1406e-06)
(1.11594e-06 1.23848e-06 6.56541e-13)
(3.31964e-08 -4.17234e-08 5.50503e-12)
(2.73489e-07 2.71694e-07 3.76115e-14)
(1.21311e-07 1.33138e-06 3.3347e-06)
(6.75517e-07 8.5253e-07 4.85632e-12)
(-2.32615e-06 1.62617e-06 -1.07381e-06)
(-3.99487e-06 2.21008e-06 -1.07381e-06)
(-6.7756e-13 3.77801e-13 -1.94385e-07)
(-2.46025e-12 7.59082e-12 7.17192e-12)
(-0.000222378 0.000187199 3.09452e-07)
(7.95847e-07 7.1175e-07 -3.37942e-08)
(6.59208e-07 -2.87659e-06 -2.37236e-09)
(3.97847e-14 -6.20779e-12 3.96674e-15)
(-0.000170992 -0.000115881 0.000109135)
(7.90805e-07 1.31264e-11 4.4191e-06)
(-1.18407e-06 1.98189e-06 7.62813e-07)
(1.19474e-06 2.4668e-06 1.01276e-12)
(4.65653e-07 -2.98237e-07 4.0749e-06)
(-5.80156e-07 3.63504e-07 3.3347e-06)
(5.86806e-12 1.82029e-12 1.56587e-13)
(-1.70629e-10 -3.72298e-10 6.85522e-07)
(-5.6179e-08 -3.484e-08 3.84501e-07)
(-1.60565e-06 -6.0582e-07 -1.0779e-06)
(7.10337e-12 2.7127e-13 1.42381e-12)
(6.8011e-12 9.95154e-13 1.33902e-06)
(-3.23877e-06 1.34483e-06 9.82686e-08)
(-6.81743e-08 5.43681e-08 -4.43572e-07)
(1.43185e-06 -1.14186e-06 6.56541e-13)
(-2.30555e-07 5.26225e-08 3.19941e-07)
(-2.37192e-12 7.20384e-12 7.17192e-12)
(-1.52121e-07 1.8404e-07 -7.1376e-13)
(-3.06889e-12 -7.00457e-13 -8.26984e-07)
(3.20066e-13 -7.09229e-13 -1.12969e-12)
(3.47012e-07 -5.348e-07 1.3654e-12)
(5.01231e-07 6.36824e-07 -4.39042e-06)
(1.59557e-06 6.99066e-06 3.30224e-11)
(1.5783e-06 6.91497e-06 3.30224e-11)
(8.18323e-07 6.83566e-07 -2.67139e-08)
(-6.81743e-08 5.43681e-08 -9.72126e-07)
(-1.29852e-06 -2.41068e-07 1.81456e-06)
(-5.00373e-14 5.12744e-14 2.13503e-12)
(-8.72285e-08 1.45751e-08 3.84501e-07)
(5.5684e-12 8.56262e-13 2.86673e-06)
(-2.51332e-06 -7.78341e-07 7.62813e-07)
(1.05375e-06 6.77962e-08 2.12312e-06)
(-1.91687e-06 -3.1074e-07 1.81456e-06)
(-8.79211e-14 1.5954e-13 3.74535e-12)
(-6.2705e-07 3.92969e-07 5.49177e-06)
(7.30168e-07 -5.82289e-07 6.56541e-13)
(-1.88914e-06 -3.07615e-07 1.81456e-06)
(-2.36363e-12 7.16752e-12 7.17192e-12)
(3.14609e-06 -2.50892e-06 8.70584e-10)
(-4.72538e-07 -5.9254e-07 5.65821e-09)
(5.16923e-13 1.10426e-12 2.46452e-12)
(-2.64179e-07 -4.14615e-07 -7.24523e-13)
(-1.02695e-06 4.52094e-06 1.06705e-11)
(2.62479e-13 -7.36961e-13 -2.05914e-12)
(1.01271e-11 -8.23526e-12 3.20838e-06)
(-9.33034e-07 2.50317e-06 7.62813e-07)
(-2.74313e-13 6.36401e-14 -6.5056e-07)
(-2.31208e-06 -5.27718e-07 0.000385454)
(-1.52821e-10 -3.80875e-10 1.36318e-06)
(-2.5019e-12 7.77332e-12 7.17192e-12)
(2.76612e-07 1.52613e-06 3.3347e-06)
(-1.03715e-06 4.56562e-06 1.06705e-11)
(-6.31697e-07 -6.45542e-07 -3.08923e-14)
(3.33674e-13 -4.32989e-13 2.19691e-07)
(-8.31749e-14 1.61826e-13 2.13503e-12)
(8.88156e-07 1.11372e-06 -2.19538e-07)
(-5.70582e-06 2.20809e-06 2.51527e-07)
(-9.8799e-08 3.29894e-08 3.84501e-07)
(-1.31026e-06 2.99035e-07 3.76038e-05)
(-5.16814e-07 -9.34272e-07 9.80322e-07)
(1.8632e-06 1.11158e-07 4.4191e-06)
(8.95322e-07 1.1227e-06 -2.19538e-07)
(8.26178e-14 9.22611e-12 1.15988e-11)
(-4.71142e-07 -9.56266e-07 5.37338e-07)
(-4.23045e-06 2.29251e-06 -1.07381e-06)
(1.85068e-06 1.31264e-11 6.09792e-06)
(-9.75e-07 4.29331e-06 1.06705e-11)
(2.13197e-12 1.04923e-12 -4.86473e-13)
(-2.40934e-12 7.36778e-12 7.17192e-12)
(-4.80194e-06 2.49248e-06 -1.07381e-06)
(-4.26023e-06 -7.7626e-07 2.51527e-07)
(1.85665e-06 5.79612e-06 4.03939e-06)
(1.1064e-06 1.31264e-11 4.4191e-06)
(-1.76048e-06 7.84953e-07 5.68991e-07)
(2.85755e-08 -4.46269e-08 5.60533e-11)
(1.13283e-11 -1.16681e-11 1.62692e-06)
(-3.22074e-06 1.9392e-06 -1.07381e-06)
(-7.48594e-12 1.18745e-11 2.12371e-11)
(4.27839e-07 -1.0367e-07 1.42551e-12)
(1.92728e-06 2.39986e-09 -1.27867e-06)
(-4.50321e-06 2.38795e-06 -1.07381e-06)
(4.27839e-07 -1.0367e-07 1.40094e-12)
(1.53586e-06 2.42508e-07 -3.52014e-12)
(2.39399e-07 1.47946e-06 3.3347e-06)
(1.37018e-07 3.73053e-05 3.76038e-05)
(-3.34292e-07 3.31223e-05 3.76038e-05)
(-1.40393e-06 -1.7847e-06 1.48314e-06)
(-7.9723e-14 1.63488e-13 2.13503e-12)
(6.95893e-07 -3.03731e-06 -2.37236e-09)
(3.43148e-06 -1.58144e-07 -1.27867e-06)
(1.01271e-11 -8.23526e-12 9.05398e-07)
(-4.61065e-06 2.42555e-06 -1.07381e-06)
(-0.000222378 0.000187199 2.08326e-07)
(2.72445e-18 1.02577e-17 3.82726e-17)
(-5.72854e-06 2.21604e-06 2.51527e-07)
(3.77879e-07 -8.1605e-07 3.34139e-10)
(-1.77232e-08 -1.98384e-08 2.20844e-06)
(-3.49155e-06 2.03396e-06 -1.07381e-06)
(4.10733e-07 -4.84814e-08 2.79623e-06)
(-5.13675e-07 -3.61606e-07 -4.49857e-08)
(-1.54551e-08 6.77167e-08 -1.56784e-06)
(-6.67017e-07 -2.73906e-09 8.83634e-08)
(-1.49884e-06 -3.421e-07 4.87275e-06)
(-4.89455e-06 2.52489e-06 -1.07381e-06)
(6.41365e-06 -3.77805e-07 2.1406e-06)
(2.53175e-08 -1.10924e-07 1.61459e-06)
(5.39545e-08 -6.77532e-08 5.60533e-11)
(-1.42925e-07 2.37725e-06 1.81456e-06)
(-1.54551e-08 6.77167e-08 1.46795e-06)
(4.67025e-06 1.67089e-07 -1.07381e-06)
(5.33572e-08 8.00218e-07 4.39534e-07)
(2.55121e-11 9.45172e-12 -7.08715e-12)
(5.16503e-06 1.1134e-07 -1.07381e-06)
(4.65653e-07 -2.98237e-07 4.06729e-06)
(5.63467e-07 4.10902e-05 3.76038e-05)
(-5.65002e-08 8.99927e-07 4.77201e-10)
(-4.88622e-06 2.52197e-06 -1.07381e-06)
(-3.23877e-06 1.34483e-06 6.73906e-08)
(-2.62851e-06 -5.99941e-07 0.000385454)
(3.14633e-06 -2.50911e-06 8.70584e-10)
(6.02481e-11 -6.95249e-11 1.80586e-07)
(2.82269e-07 -2.74307e-08 1.74696e-07)
(5.01231e-07 6.36824e-07 -4.43769e-06)
(2.20748e-12 1.04923e-12 -4.86473e-13)
(5.7474e-08 -7.21666e-08 5.60533e-11)
(-5.65002e-08 8.99927e-07 5.38046e-11)
(5.01231e-07 6.36824e-07 -5.38682e-06)
(1.19282e-12 8.83763e-12 1.15988e-11)
(-2.58014e-06 1.07176e-06 7.62813e-07)
(6.47308e-08 5.13636e-08 -3.05991e-07)
(7.70911e-14 -7.08804e-14 4.64281e-18)
(2.33134e-12 1.04923e-12 -4.86473e-13)
(1.19625e-06 -3.49007e-06 1.81456e-06)
(-1.76048e-06 7.84953e-07 5.96745e-07)
(-3.59068e-06 2.06865e-06 -1.07381e-06)
(1.94166e-16 5.16681e-16 -3.86213e-14)
(2.75539e-11 1.39716e-06 4.39534e-07)
(-3.23877e-06 1.34483e-06 6.20524e-08)
(-1.73688e-06 -9.16899e-06 -1.07381e-06)
(-4.93007e-13 4.75855e-12 8.97187e-12)
(8.49783e-07 4.6942e-08 3.03025e-13)
(-8.01869e-14 1.63265e-13 2.13503e-12)
(1.39967e-07 -1.24999e-07 2.85396e-12)
(-3.23877e-06 1.34483e-06 7.13608e-08)
(3.75621e-12 -4.38033e-07 -5.06329e-13)
(-1.02373e-07 4.50058e-07 1.37905e-17)
(-5.33357e-06 2.67851e-06 -1.07381e-06)
(1.85068e-06 1.31264e-11 5.71287e-06)
(-4.52641e-08 -2.17871e-08 1.81601e-07)
(1.47963e-06 8.05362e-07 2.124e-12)
(-1.99132e-07 5.84107e-07 1.6507e-10)
(3.12698e-12 2.46808e-10 -3.07039e-07)
(-5.03055e-07 2.90949e-06 -5.81133e-08)
(-2.4789e-07 3.05154e-07 3.84501e-07)
(1.39938e-06 1.08866e-07 -8.05441e-13)
(-3.01064e-06 2.40091e-06 2.73169e-09)
(4.26415e-13 1.01984e-12 -1.61186e-13)
(1.14472e-14 2.88181e-14 -4.71986e-14)
(-2.78171e-06 -6.34907e-07 0.000385454)
(1.58799e-11 -1.38889e-11 9.32636e-08)
(3.12698e-12 6.06119e-11 -2.23291e-07)
(2.53175e-08 -1.10924e-07 -2.43852e-06)
(-1.76048e-06 7.84953e-07 4.4932e-07)
(1.09194e-06 -3.03306e-06 1.81456e-06)
(-2.33886e-06 -9.67138e-06 2.25228e-06)
(3.12123e-07 -4.62351e-07 1.3654e-12)
(2.93443e-08 -1.09515e-07 -9.19717e-07)
(2.47047e-06 6.64842e-08 9.21819e-07)
(-2.43549e-08 -4.35288e-07 -1.70611e-12)
(-5.54489e-12 2.03787e-11 1.15988e-11)
(-1.18832e-06 -1.72834e-06 6.56541e-13)
(-7.76324e-07 -2.32793e-06 1.68074e-15)
(-2.21977e-12 -1.15877e-12 -1.05791e-06)
(3.75621e-12 -4.38033e-07 -2.86067e-12)
(-7.56664e-12 2.01291e-13 2.21581e-12)
(-1.00587e-06 -1.71261e-06 5.37338e-07)
(3.70312e-13 7.74036e-13 -1.61186e-13)
(-1.1641e-08 8.99927e-07 3.34075e-10)
(-3.96433e-06 9.0481e-07 7.12638e-05)
(-2.46393e-07 3.33029e-06 2.60477e-17)
(2.47047e-06 6.64842e-08 2.96797e-06)
(3.83563e-06 -2.05785e-06 5.02125e-14)
(8.32519e-07 6.65764e-07 -2.67139e-08)
(3.7153e-13 7.79372e-13 -1.61186e-13)
(-4.84325e-09 6.59851e-10 1.10676e-06)
(5.40317e-07 1.41262e-06 1.01276e-12)
(-1.90111e-05 2.38392e-05 6.76967e-05)
(3.93727e-06 -1.89609e-06 6.89553e-09)
(-1.86394e-07 2.33734e-07 6.76967e-05)
(-6.81743e-08 5.43681e-08 -1.54338e-06)
(-1.14011e-07 -2.12761e-07 -1.88566e-08)
(1.92728e-06 1.13391e-08 -2.69808e-06)
(-1.07934e-07 -5.71287e-08 1.3654e-12)
(-7.21301e-07 3.16023e-06 -3.52014e-12)
(-6.67017e-07 -2.73906e-09 6.58289e-07)
(1.92728e-06 8.93148e-08 -1.27867e-06)
(-7.09989e-05 9.97115e-05 6.76967e-05)
(-1.58225e-06 3.56416e-07 1.99948e-06)
(5.78902e-07 3.9251e-06 3.30224e-11)
(1.26113e-11 1.09053e-11 -1.69434e-11)
(1.21923e-06 4.92567e-07 3.77743e-12)
(8.13537e-12 -3.80378e-12 8.16e-14)
(6.75545e-12 -9.38353e-13 7.44985e-15)
(3.3253e-13 6.94574e-14 2.96969e-13)
(4.54363e-08 3.1789e-07 1.02815e-10)
(1.26113e-11 1.09053e-11 -1.72705e-11)
(1.42779e-12 -5.20283e-13 -7.40727e-13)
(1.24155e-06 2.09347e-07 -3.52014e-12)
(3.42305e-06 6.08574e-07 1.76829e-07)
(2.47047e-06 6.64842e-08 3.36945e-06)
(1.30027e-06 -5.66753e-06 9.04273e-18)
(1.88323e-07 -4.2675e-08 3.85689e-11)
(1.21923e-06 4.92567e-07 3.85537e-12)
(-6.60687e-07 -4.45387e-06 -1.07381e-06)
(1.73728e-06 -3.04325e-08 8.05438e-13)
(2.73932e-07 1.24566e-07 1.3654e-12)
(2.6005e-06 9.75894e-07 2.42665e-12)
(3.3253e-13 6.94574e-14 1.08793e-13)
(-1.12911e-07 -2.13291e-07 -1.88566e-08)
(-3.66557e-12 -1.66468e-12 -6.5056e-07)
(-6.18097e-08 2.7234e-07 -6.88915e-13)
(5.5684e-12 8.56262e-13 3.04089e-07)
(-2.2479e-07 1.22084e-06 6.92384e-07)
(-2.55293e-05 3.20128e-05 6.76967e-05)
(-7.66737e-05 9.61458e-05 0.000135536)
(5.72322e-07 3.1271e-07 1.35179e-06)
(4.90545e-07 -7.45895e-07 0.000114405)
(2.00192e-07 -5.17113e-08 1.85809e-12)
(5.01231e-07 6.36824e-07 3.07287e-06)
(6.39792e-06 6.15416e-07 6.92384e-07)
(3.60736e-12 1.48864e-13 2.59474e-11)
(1.93407e-06 7.42698e-07 2.42665e-12)
(-9.1155e-13 -1.46474e-12 9.05388e-12)
(3.72454e-12 -8.91139e-13 9.79221e-12)
(-2.9676e-06 2.36659e-06 6.56541e-13)
(3.46131e-07 -5.3297e-07 1.3654e-12)
(-1.93104e-07 1.5515e-06 -1.9671e-09)
(4.65653e-07 -2.98237e-07 4.03351e-06)
(1.2876e-07 -1.6146e-07 3.25797e-11)
(-1.1365e-07 -2.12935e-07 -1.88566e-08)
(2.00944e-06 -5.98371e-06 1.73115e-12)
(-2.02991e-06 1.80733e-05 3.76038e-05)
(-2.38475e-07 1.3423e-06 6.92384e-07)
(-6.70836e-10 2.94226e-09 3.08668e-06)
(-1.74465e-06 -4.98034e-07 1.73115e-12)
(4.22683e-07 -1.18404e-07 1.85809e-12)
(1.73728e-06 -4.0562e-08 -6.91361e-13)
(-4.03023e-07 -2.66733e-07 4.07865e-07)
(2.53175e-08 -1.10924e-07 -2.42412e-06)
(2.48912e-06 3.60471e-07 2.124e-12)
(-1.35007e-07 -1.40346e-07 -2.67164e-06)
(3.3253e-13 6.94574e-14 -2.79569e-13)
(-1.60565e-06 -6.0582e-07 8.1233e-07)
(-2.35614e-06 9.52584e-07 1.68074e-15)
(3.93727e-06 -1.89609e-06 7.30167e-09)
(2.12844e-13 -1.06995e-13 4.64281e-18)
(7.5361e-07 -2.50978e-06 2.21372e-07)
(-2.44573e-06 -6.69066e-06 2.25228e-06)
(4.90545e-07 -7.47158e-07 0.000114405)
(6.82628e-06 -3.28736e-06 5.02125e-14)
(-5.24468e-07 3.0033e-06 -5.81133e-08)
(4.65653e-07 -2.98237e-07 4.07881e-06)
(1.48948e-06 7.62213e-07 2.124e-12)
(-1.14502e-06 2.65363e-07 4.03939e-06)
(-4.42125e-07 1.38146e-06 -5.82732e-08)
(1.1657e-06 2.38392e-08 8.05438e-13)
(-5.13675e-07 -3.61606e-07 -3.07611e-08)
(6.98054e-11 -5.99676e-11 9.32636e-08)
(-1.32925e-06 -3.5268e-07 1.73115e-12)
(5.07206e-07 -7.52431e-07 0.000114405)
(-5.39478e-07 -3.2925e-07 1.28766e-12)
(1.27304e-08 2.64464e-08 1.75836e-07)
(-3.29614e-08 -1.62978e-08 1.84179e-12)
(6.72549e-07 -2.51891e-06 1.17058e-07)
(-6.9702e-07 -1.31452e-07 1.73115e-12)
(-7.19794e-08 -3.45371e-08 1.3654e-12)
(1.18987e-12 -3.04701e-12 -1.57839e-10)
(-5.16814e-07 -9.34272e-07 1.05711e-06)
(-4.24054e-07 2.56336e-06 -5.81133e-08)
(-2.3924e-06 -4.96785e-06 2.86002e-05)
(-5.49081e-07 -1.03107e-07 1.99948e-06)
(5.72322e-07 3.1271e-07 3.46854e-06)
(1.17523e-12 -5.14903e-12 1.87906e-11)
(2.16715e-07 1.48312e-06 1.29468e-07)
(-4.86043e-07 -5.76279e-08 1.73115e-12)
(-4.35007e-07 2.88192e-07 4.07865e-07)
(4.22059e-13 1.58986e-13 -9.26247e-14)
(2.24855e-07 -2.81959e-07 8.33257e-11)
(4.90545e-07 -7.47252e-07 0.000114405)
(-5.57591e-05 2.3584e-12 9.52402e-07)
(8.27647e-11 -6.78206e-12 1.39921e-07)
(-2.1213e-07 1.10848e-06 6.92384e-07)
(5.02308e-08 -7.24106e-07 0.000124216)
(3.00078e-09 6.24253e-09 5.39258e-07)
(-9.07417e-08 1.6426e-07 -3.08628e-13)
(5.5684e-12 8.56262e-13 6.55079e-08)
(5.01231e-07 6.36824e-07 1.73592e-06)
(-1.24856e-07 3.33904e-07 6.92384e-07)
(-6.25984e-08 -3.68717e-08 1.84179e-12)
(5.72322e-07 3.1271e-07 3.15518e-06)
(-1.71675e-06 -6.94574e-06 1.30169e-06)
(1.69694e-06 -1.46725e-07 2.124e-12)
(1.4737e-06 -6.42734e-06 9.04273e-18)
(4.90545e-07 -7.4624e-07 0.000114405)
(6.75545e-12 -9.38353e-13 3.59719e-14)
(1.48259e-06 -4.74461e-06 1.81456e-06)
(-1.28322e-13 -2.75073e-09 3.12814e-06)
(8.30803e-13 -2.02087e-12 -4.40955e-11)
(2.53175e-08 -1.10924e-07 5.79934e-07)
(-2.35924e-06 9.59025e-07 1.68074e-15)
(3.75071e-06 -2.19301e-06 5.02125e-14)
(-6.70836e-10 2.94226e-09 3.49531e-07)
(-1.69102e-06 -2.85293e-07 1.81456e-06)
(8.84058e-07 -2.25432e-06 1.10848e-06)
(1.78846e-07 8.03601e-07 1.29468e-07)
(2.47047e-06 6.64842e-08 3.37499e-06)
(1.4134e-11 2.92326e-11 1.23331e-12)
(-0.000154495 1.1306e-05 9.52402e-07)
(-0.000154564 1.06907e-05 9.52402e-07)
(-5.13675e-07 -3.61606e-07 2.67791e-08)
(2.91567e-08 -2.15597e-07 1.77865e-06)
(-4.43407e-07 1.39284e-06 -5.82732e-08)
(-4.9695e-07 1.03191e-06 3.31648e-10)
(-0.000155769 2.3584e-12 5.34204e-07)
(7.75983e-09 -8.43095e-07 2.26623e-06)
(1.78331e-07 8.03719e-07 1.29468e-07)
(1.92728e-06 2.25611e-07 -1.27867e-06)
(-0.000162419 -0.000129525 1.27601e-05)
(-6.85315e-05 0.000101262 6.76967e-05)
(3.73378e-06 -2.21995e-06 5.02125e-14)
(-1.35007e-07 3.36995e-06 4.7198e-12)
(1.04505e-12 -2.02286e-12 2.75739e-12)
(-0.000155769 2.3584e-12 1.54091e-06)
(-4.59656e-07 1.53705e-06 1.41499e-06)
(6.97541e-13 -4.38004e-13 -1.48053e-12)
(-1.35007e-07 -3.46625e-06 4.7198e-12)
(1.89398e-08 -1.2492e-07 3.54449e-06)
(-2.68402e-05 -4.70511e-05 2.86002e-05)
(1.7528e-07 8.04415e-07 1.29468e-07)
(-5.13675e-07 -3.61606e-07 5.34284e-08)
(2.0938e-06 4.84139e-07 1.73115e-12)
(3.93727e-06 -1.89609e-06 7.43022e-09)
(-2.48509e-07 3.04661e-07 3.84501e-07)
(3.92976e-09 4.20141e-07 1.29468e-07)
(-6.52333e-06 2.77132e-05 -5.31533e-12)
(4.31554e-07 -7.07012e-08 1.85809e-12)
(5.02308e-08 -3.12576e-07 0.000124216)
(-1.35007e-07 4.92694e-06 4.7198e-12)
(-1.09911e-07 2.01262e-07 6.92384e-07)
(4.90545e-07 -7.50554e-07 6.04498e-05)
(-2.18244e-06 -8.98607e-06 2.25228e-06)
(9.20696e-07 -2.35903e-06 1.10848e-06)
(-1.60565e-06 -6.0582e-07 1.27114e-06)
(-1.35007e-07 -1.40346e-07 -2.56768e-06)
(-1.35007e-07 -5.71056e-06 4.7198e-12)
(1.63415e-06 1.28398e-07 2.124e-12)
(7.66041e-12 1.07395e-12 9.79221e-12)
(2.17986e-12 -9.5506e-12 1.00244e-11)
(-1.53503e-09 9.55677e-09 6.65577e-12)
(-1.92895e-07 3.66535e-06 1.73115e-12)
(5.72322e-07 3.1271e-07 3.57445e-06)
(-1.60565e-06 -6.0582e-07 1.0239e-06)
(-1.76048e-06 7.84953e-07 1.02882e-06)
(-3.40648e-08 2.4438e-08 2.92793e-13)
(-1.04619e-10 -5.1371e-11 -1.76963e-13)
(-5.83822e-10 2.95206e-09 1.80234e-06)
(-3.3212e-08 2.55074e-08 -1.51188e-10)
(1.2348e-07 -1.64778e-07 8.33257e-11)
(4.90545e-07 -7.46275e-07 0.000114405)
(1.4272e-12 -3.72528e-12 -1.57839e-10)
(-2.738e-05 -4.67119e-05 2.86002e-05)
(-4.25475e-07 4.68435e-06 1.73115e-12)
(-4.92961e-07 -5.2906e-07 1.00163e-06)
(-1.60565e-06 -6.0582e-07 -9.3022e-07)
(-1.35007e-07 -5.68464e-06 4.7198e-12)
(-4.24765e-07 3.01035e-07 4.07865e-07)
(-1.12409e-07 2.23437e-07 6.92384e-07)
(5.82499e-06 1.1568e-06 2.12312e-06)
(1.73728e-06 -1.41935e-07 8.05438e-13)
(-4.14129e-10 7.08059e-10 6.50562e-07)
(1.31745e-06 -4.98011e-06 1.17058e-07)
(-3.30906e-08 -1.60296e-08 1.84179e-12)
(2.86568e-08 -2.11161e-07 1.77865e-06)
(2.85175e-08 -2.09924e-07 1.77865e-06)
(8.1632e-08 -1.02363e-07 8.33257e-11)
(8.49783e-07 6.54667e-09 -8.05441e-13)
(-1.05925e-12 1.22235e-12 -1.94385e-07)
(7.75983e-09 -8.43095e-07 2.9568e-06)
(4.28212e-15 -2.63978e-18 7.23503e-12)
(-8.67554e-07 -1.01074e-06 1.00163e-06)
(-1.93621e-06 -6.86895e-06 2.25228e-06)
(7.5361e-07 -2.50978e-06 2.09703e-07)
(-1.03613e-06 -1.02095e-06 3.09775e-07)
(-6.70836e-10 2.94226e-09 3.5908e-06)
(-6.70836e-10 2.94226e-09 3.66906e-08)
(-1.16085e-11 -8.4737e-12 4.70264e-08)
(3.25292e-06 1.09479e-06 2.12312e-06)
(3.03306e-07 2.41877e-07 9.47398e-13)
(1.3775e-12 -3.58323e-12 -1.57839e-10)
(2.80154e-08 1.22903e-07 6.2477e-11)
(-1.62861e-10 3.3236e-10 6.50562e-07)
(-8.68823e-07 -6.73544e-07 1.48314e-06)
(4.65653e-07 -2.98237e-07 4.00618e-06)
(-0.000154436 1.18298e-05 9.52402e-07)
(8.30803e-13 -2.02087e-12 -2.28442e-12)
(2.55227e-12 1.52739e-15 2.66536e-12)
(5.92514e-07 -1.42114e-06 2.06266e-06)
(-1.44296e-05 6.23528e-05 -5.74064e-08)
(1.68969e-12 -4.96902e-12 1.00244e-11)
(-1.90227e-12 3.13271e-12 7.26861e-14)
(-1.12032e-06 -7.24682e-06 4.03939e-06)
(5.63959e-08 1.12741e-08 6.4991e-12)
(5.02308e-08 -7.07083e-07 0.000124216)
(-3.36532e-13 3.99393e-13 -1.23974e-14)
(-1.63638e-06 -7.12427e-06 5.73949e-07)
(-7.92482e-14 1.63717e-13 2.13503e-12)
(2.55227e-12 1.02875e-14 2.66536e-12)
(-3.22398e-08 -1.77962e-08 4.91839e-15)
(2.47047e-06 -5.63242e-07 2.1406e-06)
(6.02481e-11 -6.95249e-11 6.40821e-09)
(-1.35007e-07 -5.69902e-06 4.7198e-12)
(7.75983e-09 -8.43095e-07 2.85429e-06)
(-1.22006e-06 -9.56591e-07 1.48314e-06)
(9.77653e-07 -2.5218e-06 1.10848e-06)
(-1.49243e-06 -6.49362e-06 5.73949e-07)
(-1.10033e-06 2.49723e-07 4.03939e-06)
(-2.363e-05 -4.90682e-05 5.41923e-05)
(-1.70515e-10 -1.10298e-10 -2.01278e-07)
(-1.28185e-06 -4.02361e-07 1.68074e-15)
(6.73162e-11 -6.24568e-11 9.32636e-08)
(-1.2459e-07 3.31545e-07 6.92384e-07)
(-1.13054e-07 2.29156e-07 6.92384e-07)
(1.73728e-06 -4.0562e-08 3.54289e-12)
(-4.56684e-07 1.56343e-06 -5.82732e-08)
(1.04478e-10 -1.24987e-10 9.32636e-08)
(4.31665e-07 -6.97154e-08 1.85809e-12)
(-3.67427e-06 1.52306e-05 -5.31533e-12)
(-2.70068e-05 -4.69464e-05 2.86002e-05)
(-2.40898e-07 1.3638e-06 6.92384e-07)
(-2.363e-05 -4.90682e-05 1.64635e-05)
(5.6719e-08 9.85855e-09 8.12728e-12)
(-4.9606e-06 1.94733e-06 2.51527e-07)
(-1.31301e-06 -1.59591e-06 1.48314e-06)
(-4.59656e-07 1.53705e-06 1.46719e-06)
(-4.59656e-07 1.53705e-06 -9.63604e-07)
(1.06625e-11 3.04473e-11 6.49961e-13)
(-2.89e-13 1.91142e-13 -6.5225e-13)
(3.44703e-11 -7.15946e-11 5.45919e-12)
(-5.89388e-07 5.40249e-06 1.73115e-12)
(-1.17571e-06 -2.30877e-08 4.7198e-12)
(7.5361e-07 -2.50978e-06 2.00146e-08)
(5.92514e-07 -1.42114e-06 9.84201e-08)
(-1.43997e-07 8.07297e-09 1.28766e-12)
(3.51409e-12 1.23473e-13 2.66536e-12)
(2.82405e-07 -2.62262e-08 1.74696e-07)
(2.85404e-07 3.93854e-10 2.55659e-08)
(1.42968e-05 0.000133179 -6.37204e-08)
(6.05246e-08 7.32992e-08 1.65435e-10)
(4.18072e-07 -1.31581e-07 1.85809e-12)
(5.02308e-08 -6.30033e-07 0.000124216)
(-7.59463e-06 6.31229e-05 -5.31533e-12)
(8.30803e-13 -2.02087e-12 -2.87124e-10)
(-4.4989e-07 1.62372e-06 -5.82732e-08)
(2.89632e-08 -2.1388e-07 1.77865e-06)
(-1.35007e-07 -1.40346e-07 -1.04419e-06)
(1.60394e-06 2.60736e-07 -2.51033e-07)
(3.11236e-08 -2.33054e-07 1.77865e-06)
(-2.8291e-06 -6.55651e-06 2.25228e-06)
(-1.86915e-12 -2.2284e-12 4.46272e-12)
(-0.00029828 2.3584e-12 9.52402e-07)
(-1.5978e-10 -1.27383e-10 -3.76111e-10)
(-1.02177e-06 2.1217e-06 1.42108e-09)
(-2.2794e-12 4.61923e-13 1.02118e-11)
(-4.4672e-07 1.65186e-06 -5.82732e-08)
(7.32032e-12 -3.22097e-11 2.67289e-08)
(-4.59656e-07 1.53705e-06 -1.27637e-06)
(-1.49231e-07 -2.62117e-09 0.000124216)
(-0.000305532 -0.000243653 0.000109135)
(-1.09007e-06 2.46135e-07 4.03939e-06)
(-1.66022e-06 -7.22876e-06 5.73949e-07)
(6.0053e-08 7.36754e-08 1.65435e-10)
(1.10938e-11 3.02964e-11 6.49961e-13)
(-4.78013e-07 -1.09103e-07 2.2126e-12)
(-1.32697e-06 -2.75547e-06 2.86002e-05)
(3.60736e-12 1.48864e-13 -2.57153e-12)
(-8.4709e-07 -1.13973e-06 1.48314e-06)
(6.27863e-13 -7.43282e-13 -7.40727e-13)
(-9.07417e-08 1.6426e-07 1.84947e-13)
(4.65653e-07 -2.98237e-07 4.00794e-06)
(-0.000154148 1.43838e-05 9.52402e-07)
(-2.12023e-12 1.19822e-12 6.81159e-13)
(1.47322e-07 1.17008e-07 7.19564e-13)
(-3.22398e-08 -1.77962e-08 4.22271e-13)
(-1.7413e-07 7.7122e-07 6.92384e-07)
(-5.66851e-13 -6.37405e-13 -1.8708e-07)
(1.24851e-07 5.16562e-08 9.97346e-12)
(-1.31353e-06 -7.55847e-09 4.7198e-12)
(-1.03613e-06 -1.02095e-06 1.78018e-07)
(-4.59656e-07 1.53705e-06 1.2432e-06)
(1.45097e-07 -1.18566e-07 1.62412e-12)
(-1.64147e-18 8.86577e-12 8.97187e-12)
(-6.2705e-07 3.92969e-07 9.37845e-07)
(-2.77352e-06 -6.57596e-06 2.25228e-06)
(6.56256e-07 -1.39044e-06 1.10848e-06)
(-8.7684e-07 -2.00133e-07 3.24801e-12)
(-1.64147e-18 4.8141e-12 -2.40665e-13)
(-2.26812e-12 5.11324e-13 5.27929e-12)
(3.3253e-13 6.94574e-14 2.94839e-13)
(-6.19466e-06 -1.41792e-06 4.92478e-09)
(7.09114e-10 3.00879e-09 1.87003e-14)
(8.28451e-07 6.70865e-07 -2.67139e-08)
(-4.35252e-11 1.32842e-10 5.2715e-12)
(7.75983e-09 -8.43095e-07 -2.02196e-06)
(-6.49063e-07 5.66395e-06 1.73115e-12)
(-8.75502e-13 -1.99771e-13 8.39714e-13)
(2.93165e-10 -7.48744e-07 6.80929e-13)
(-1.53435e-15 4.69263e-13 3.42753e-10)
(1.10041e-10 -1.26285e-10 1.62516e-07)
(-7.44036e-06 3.26017e-05 -5.69274e-07)
(6.47308e-08 5.13636e-08 2.40567e-07)
(-3.01026e-08 5.31279e-08 1.26592e-13)
(-0.000162419 -0.000129525 4.70354e-05)
(1.05686e-07 -3.46515e-08 7.56743e-13)
(-2.10891e-05 6.00225e-05 -5.31533e-12)
(-3.01026e-08 5.31279e-08 2.18713e-13)
(1.63677e-11 2.78291e-11 6.49961e-13)
(1.16264e-07 -5.08344e-07 2.60772e-10)
(-8.87797e-08 -1.84131e-07 -4.9028e-08)
(-3.25245e-08 3.35452e-08 4.79737e-11)
(-1.64147e-18 8.78359e-12 8.97187e-12)
(1.15262e-10 3.30118e-11 -8.51029e-07)
(-2.58173e-06 7.6809e-07 4.03939e-06)
(6.00628e-08 -5.5259e-08 1.73509e-13)
(-4.63725e-05 -3.69808e-05 0.000109135)
(-1.44296e-05 6.23528e-05 -9.77545e-08)
(-8.86906e-07 -6.22418e-06 4.03939e-06)
(2.55227e-12 1.51021e-14 1.30774e-12)
(-2.27348e-12 4.87855e-13 5.27929e-12)
(-0.000169218 -0.000118705 0.000109135)
(-4.6366e-07 -2.03142e-06 1.15149e-09)
(-0.000310737 -1.57162e-06 1.52711e-15)
(8.33812e-10 2.98032e-09 7.05878e-15)
(1.92728e-06 2.25485e-07 -1.27867e-06)
(1.49406e-14 -3.41635e-15 -4.56998e-13)
(-1.85772e-10 -4.22298e-11 -8.38784e-13)
(5.61104e-08 1.25246e-08 6.4991e-12)
(3.0884e-08 -1.48732e-08 4.58252e-10)
(-1.35007e-07 -3.86539e-06 4.7198e-12)
(8.6321e-08 8.58581e-08 7.19564e-13)
(-1.4271e-06 -3.25727e-07 -5.65547e-12)
(1.48181e-14 -3.95283e-15 -3.45113e-14)
(2.70553e-08 -1.96947e-07 1.77865e-06)
(1.66832e-06 -2.13302e-08 2.124e-12)
(1.47941e-10 7.21893e-11 2.82849e-07)
(-2.11163e-15 4.69263e-13 3.42753e-10)
(2.5743e-16 -8.02982e-17 4.04755e-13)
(2.13568e-11 -4.98109e-11 2.67289e-08)
(-1.76048e-06 7.84953e-07 9.97655e-07)
(1.97212e-08 -1.6532e-09 3.3985e-08)
(3.78635e-11 -1.31176e-11 1.03525e-13)
(-3.20301e-11 5.77718e-11 1.05021e-13)
(1.12601e-13 -2.41586e-13 3.4312e-10)
(-2.25748e-06 9.87985e-08 4.7198e-12)
(-2.90923e-11 5.91866e-11 8.78034e-14)
(5.02308e-08 -5.50222e-07 0.000124216)
(-4.9982e-13 3.8767e-13 2.69566e-07)
(5.12849e-11 -4.14911e-11 -8.04107e-14)
(1.4134e-11 2.92326e-11 4.32664e-13)
(4.30753e-16 -2.53621e-16 2.01473e-13)
(-4.23322e-13 -9.6564e-14 1.27313e-12)
(1.3112e-10 1.56096e-13 7.96201e-11)
(4.734e-08 -3.83601e-08 1.73509e-13)
(5.02308e-08 -7.84134e-07 0.000124216)
(3.72168e-13 -1.63058e-12 3.17618e-15)
(6.99956e-12 1.01751e-12 1.33902e-06)
(-1.71675e-06 -6.94574e-06 1.17758e-06)
(-6.15967e-10 6.39091e-11 7.22845e-18)
(9.45483e-11 9.18866e-11 3.18232e-13)
(-1.83078e-13 2.98453e-14 -3.97386e-15)
(2.31013e-14 4.79707e-14 -4.71986e-14)
(-2.14694e-06 -6.79521e-06 2.25228e-06)
(4.90545e-07 -7.50554e-07 3.88816e-05)
(-1.83078e-13 2.98453e-14 -3.61024e-13)
(-3.01026e-08 5.31279e-08 2.25763e-13)
(3.51344e-08 -1.18043e-08 1.93632e-13)
(-2.01194e-07 3.25653e-08 -3.70399e-13)
(-1.80455e-07 1.55293e-06 -5.81133e-08)
(-1.75137e-13 8.99586e-14 -5.09715e-08)
(-7.414e-13 -3.59751e-13 7.23944e-13)
(5.02308e-08 1.98528e-08 2.70054e-05)
(-6.17276e-10 5.22948e-11 7.22845e-18)
(1.52957e-08 2.48345e-08 5.39258e-07)
(3.86909e-08 2.99487e-11 3.3985e-08)
(-8.04676e-13 -1.83661e-13 2.69566e-07)
(5.32656e-08 -1.56917e-08 6.82165e-13)
(-3.20301e-11 5.77718e-11 1.01249e-13)
(7.75333e-13 -9.73628e-13 -4.63799e-13)
(1.7158e-11 3.82374e-11 -5.89684e-08)
(-1.3826e-06 5.79577e-06 6.34025e-08)
(-2.21494e-12 3.57711e-13 6.81159e-13)
(1.41875e-10 1.10201e-13 2.33992e-13)
(-1.85418e-11 1.92246e-11 8.78034e-14)
(1.73728e-06 -2.50961e-07 8.05438e-13)
(-7.44036e-06 3.26017e-05 7.50313e-07)
(3.67377e-08 -4.89004e-09 1.93632e-13)
(8.70769e-11 -5.73427e-10 4.90618e-07)
(7.53434e-08 -1.72299e-08 1.93632e-13)
(-1.44498e-06 -1.67065e-07 -8.38784e-13)
(-8.34284e-13 -1.90363e-13 8.39714e-13)
(-1.28322e-13 -2.75073e-09 9.67929e-07)
(1.60238e-10 -1.08721e-10 1.39921e-07)
(-2.61661e-16 2.39394e-17 2.4546e-13)
(1.7803e-18 -1.11336e-17 1.40292e-12)
(-4.13559e-09 -6.17965e-06 6.65303e-08)
(2.49219e-10 1.10201e-13 2.0497e-13)
(1.24368e-12 3.19842e-12 -1.73689e-14)
(1.88796e-10 1.50559e-10 3.18232e-13)
(2.03565e-13 -8.97238e-13 2.56563e-13)
(3.21752e-10 -6.6648e-10 -6.73447e-10)
(3.50485e-08 -1.20496e-08 1.93632e-13)
(-3.05281e-06 -4.67717e-07 4.92478e-09)
(2.4105e-14 5.00549e-14 -4.71986e-14)
(-1.1223e-08 -1.17288e-07 6.33736e-13)
(4.61691e-08 7.20278e-07 -2.50804e-10)
(-2.97485e-12 -5.53331e-12 -5.38501e-08)
(1.0296e-07 -8.58195e-07 1.0443e-09)
(-2.74493e-05 0.000119396 -5.31533e-12)
(-1.86533e-18 -6.13882e-13 1.83037e-12)
(-1.86533e-18 -2.94862e-13 -7.19695e-13)
(-7.44036e-06 3.26017e-05 -8.98274e-07)
(-8.88166e-07 1.68598e-09 -1.45635e-07)
(-1.14437e-15 -9.80063e-18 1.0622e-15)
(-5.05343e-13 -3.55758e-13 9.92057e-08)
(-8.82703e-13 -2.01415e-13 8.39714e-13)
(-7.44036e-06 3.26017e-05 8.92675e-07)
(-2.90477e-11 -1.80011e-11 -1.93922e-08)
(5.32656e-08 -1.56917e-08 1.8546e-11)
(-1.33425e-06 5.84907e-06 1.52711e-15)
(5.35821e-08 -1.43052e-08 1.22795e-11)
(-3.37446e-10 -3.40255e-07 1.14334e-12)
(3.42578e-11 -1.84026e-07 6.33736e-13)
(-3.37446e-10 -6.52559e-07 -4.28749e-17)
(-7.60648e-08 -2.88105e-07 5.73949e-07)
(-1.98689e-07 4.35399e-08 -5.52338e-14)
(-2.99178e-05 -4.48513e-05 3.00114e-05)
(-5.05343e-13 -3.55758e-13 3.56146e-07)
(-3.37446e-10 -3.40255e-07 -2.32435e-13)
(-5.37915e-05 -3.64975e-05 5.27314e-05)
(-7.546e-05 -8.14925e-05 3.00114e-05)