/*--------------------------------*- C++ -*----------------------------------*\
| =========                 |                                                 |
| \\      /  F ield         | OpenFOAM: The Open Source CFD Toolbox           |
|  \\    /   O peration     | Version:  plus.master.MPPICInterFoam            |
|   \\  /    A nd           | Web:      www.OpenFOAM.com                      |
|    \\/     M anipulation  |                                                 |
\*---------------------------------------------------------------------------*/
FoamFile
{
    version     2.0;
    format      ascii;
    class       volScalarField;
    location    "8.6";
    object      p;
}
// * * * * * * * * * * * * * * * * * * * * * * * * * * * * * * * * * * * * * //

dimensions      [1 -1 -2 0 0 0 0];

internalField   nonuniform List<scalar> 
11821
(
3938.66
3938.66
3938.66
3938.66
3938.66
3938.66
3938.66
3938.66
3938.66
3938.66
3938.66
3938.66
3938.66
3938.66
3938.66
3938.66
3938.66
3938.66
3938.66
3938.66
3938.66
3938.66
3938.66
3938.66
3938.66
3938.66
3938.66
3938.66
3938.66
3938.66
3938.66
3938.66
3938.67
3938.67
3938.67
3938.67
3938.67
3938.67
3938.67
3938.67
3938.68
3938.68
3938.68
3938.68
3938.68
3938.68
3938.68
3938.68
3938.7
3938.7
3938.7
3938.7
3938.7
3938.7
3938.7
3938.7
3841.55
3841.55
3841.55
3841.55
3841.55
3841.55
3841.55
3841.55
3841.54
3841.54
3841.54
3841.54
3841.54
3841.54
3841.54
3841.54
3841.54
3841.54
3841.54
3841.54
3841.54
3841.54
3841.54
3841.54
3841.55
3841.55
3841.55
3841.55
3841.55
3841.55
3841.55
3841.55
3841.55
3841.55
3841.55
3841.55
3841.55
3841.55
3841.55
3841.55
3841.56
3841.57
3841.57
3841.57
3841.57
3841.57
3841.56
3841.56
3841.58
3841.58
3841.58
3841.58
3841.58
3841.58
3841.58
3841.58
3744.44
3744.44
3744.44
3744.44
3744.44
3744.44
3744.44
3744.44
3744.43
3744.43
3744.44
3744.44
3744.44
3744.44
3744.44
3744.44
3744.43
3744.44
3744.44
3744.44
3744.44
3744.44
3744.44
3744.43
3744.44
3744.44
3744.44
3744.44
3744.44
3744.44
3744.44
3744.44
3744.44
3744.45
3744.45
3744.45
3744.45
3744.45
3744.44
3744.44
3744.45
3744.46
3744.46
3744.46
3744.46
3744.46
3744.45
3744.45
3744.47
3744.47
3744.47
3744.47
3744.47
3744.47
3744.47
3744.47
3647.33
3647.33
3647.33
3647.33
3647.34
3647.34
3647.34
3647.34
3647.33
3647.33
3647.33
3647.33
3647.33
3647.33
3647.33
3647.33
3647.33
3647.33
3647.33
3647.33
3647.33
3647.33
3647.33
3647.33
3647.34
3647.34
3647.33
3647.33
3647.33
3647.33
3647.33
3647.33
3647.34
3647.34
3647.34
3647.34
3647.34
3647.34
3647.34
3647.34
3647.35
3647.35
3647.35
3647.35
3647.35
3647.35
3647.35
3647.35
3647.36
3647.36
3647.36
3647.36
3647.36
3647.36
3647.36
3647.36
3550.24
3550.24
3550.24
3550.24
3550.24
3550.24
3550.24
3550.23
3550.23
3550.23
3550.23
3550.23
3550.23
3550.23
3550.23
3550.23
3550.23
3550.23
3550.23
3550.23
3550.23
3550.23
3550.23
3550.23
3550.24
3550.24
3550.24
3550.23
3550.23
3550.23
3550.23
3550.23
3550.24
3550.24
3550.24
3550.24
3550.24
3550.24
3550.24
3550.24
3550.25
3550.25
3550.25
3550.25
3550.25
3550.25
3550.25
3550.25
3550.26
3550.26
3550.26
3550.26
3550.26
3550.26
3550.26
3550.26
3453.14
3453.14
3453.14
3453.14
3453.14
3453.14
3453.14
3453.14
3453.14
3453.14
3453.14
3453.14
3453.14
3453.14
3453.13
3453.13
3453.14
3453.14
3453.14
3453.14
3453.14
3453.14
3453.13
3453.13
3453.14
3453.14
3453.14
3453.14
3453.14
3453.14
3453.14
3453.14
3453.15
3453.14
3453.14
3453.14
3453.14
3453.14
3453.14
3453.14
3453.15
3453.15
3453.15
3453.15
3453.15
3453.15
3453.15
3453.15
3453.16
3453.16
3453.16
3453.16
3453.16
3453.16
3453.16
3453.16
3356.05
3356.05
3356.05
3356.05
3356.04
3356.04
3356.04
3356.04
3356.05
3356.04
3356.04
3356.04
3356.04
3356.04
3356.04
3356.04
3356.05
3356.05
3356.04
3356.04
3356.04
3356.04
3356.04
3356.04
3356.05
3356.05
3356.05
3356.04
3356.04
3356.04
3356.04
3356.04
3356.05
3356.05
3356.05
3356.05
3356.05
3356.05
3356.05
3356.04
3356.06
3356.06
3356.06
3356.05
3356.05
3356.05
3356.05
3356.05
3356.07
3356.06
3356.06
3356.06
3356.06
3356.06
3356.06
3356.06
3258.96
3258.96
3258.95
3258.95
3258.95
3258.95
3258.95
3258.95
3258.96
3258.95
3258.95
3258.95
3258.95
3258.95
3258.95
3258.95
3258.96
3258.95
3258.95
3258.95
3258.95
3258.95
3258.95
3258.95
3258.96
3258.96
3258.95
3258.95
3258.95
3258.95
3258.95
3258.95
3258.96
3258.96
3258.96
3258.96
3258.95
3258.95
3258.95
3258.95
3258.97
3258.96
3258.96
3258.96
3258.96
3258.96
3258.96
3258.96
3258.97
3258.97
3258.97
3258.97
3258.97
3258.97
3258.96
3258.96
3161.87
3161.87
3161.86
3161.86
3161.86
3161.86
3161.86
3161.86
3161.87
3161.86
3161.86
3161.86
3161.86
3161.86
3161.86
3161.85
3161.87
3161.86
3161.86
3161.86
3161.86
3161.86
3161.86
3161.85
3161.87
3161.87
3161.86
3161.86
3161.86
3161.86
3161.86
3161.86
3161.87
3161.87
3161.87
3161.86
3161.86
3161.86
3161.86
3161.86
3161.88
3161.87
3161.87
3161.87
3161.87
3161.87
3161.86
3161.86
3161.88
3161.88
3161.88
3161.87
3161.87
3161.87
3161.87
3161.87
3064.78
3064.78
3064.77
3064.77
3064.77
3064.77
3064.77
3064.76
3064.78
3064.78
3064.77
3064.77
3064.77
3064.77
3064.76
3064.76
3064.78
3064.78
3064.77
3064.77
3064.77
3064.77
3064.76
3064.76
3064.78
3064.78
3064.77
3064.77
3064.77
3064.77
3064.76
3064.76
3064.78
3064.78
3064.78
3064.77
3064.77
3064.77
3064.77
3064.77
3064.79
3064.78
3064.78
3064.78
3064.77
3064.77
3064.77
3064.77
3064.79
3064.79
3064.78
3064.78
3064.78
3064.78
3064.78
3064.77
2967.69
2967.69
2967.68
2967.68
2967.68
2967.68
2967.67
2967.67
2967.69
2967.69
2967.68
2967.68
2967.68
2967.67
2967.67
2967.67
2967.69
2967.68
2967.68
2967.68
2967.68
2967.67
2967.67
2967.67
2967.69
2967.69
2967.68
2967.68
2967.68
2967.67
2967.67
2967.67
2967.69
2967.69
2967.68
2967.68
2967.68
2967.68
2967.67
2967.67
2967.7
2967.69
2967.69
2967.68
2967.68
2967.68
2967.68
2967.67
2967.7
2967.69
2967.69
2967.69
2967.69
2967.68
2967.68
2967.68
2870.6
2870.6
2870.59
2870.59
2870.59
2870.58
2870.58
2870.58
2870.6
2870.59
2870.59
2870.59
2870.58
2870.58
2870.58
2870.58
2870.6
2870.59
2870.59
2870.59
2870.58
2870.58
2870.58
2870.58
2870.6
2870.59
2870.59
2870.59
2870.58
2870.58
2870.58
2870.58
2870.6
2870.59
2870.59
2870.59
2870.58
2870.58
2870.58
2870.58
2870.6
2870.6
2870.59
2870.59
2870.59
2870.58
2870.58
2870.58
2870.61
2870.6
2870.6
2870.59
2870.59
2870.59
2870.58
2870.58
2773.51
2773.5
2773.5
2773.5
2773.49
2773.49
2773.49
2773.49
2773.51
2773.5
2773.5
2773.49
2773.49
2773.49
2773.49
2773.48
2773.51
2773.5
2773.5
2773.49
2773.49
2773.49
2773.48
2773.48
2773.51
2773.5
2773.5
2773.49
2773.49
2773.49
2773.48
2773.48
2773.51
2773.5
2773.5
2773.49
2773.49
2773.49
2773.48
2773.48
2773.51
2773.5
2773.5
2773.49
2773.49
2773.49
2773.49
2773.48
2773.51
2773.5
2773.5
2773.5
2773.49
2773.49
2773.49
2773.49
2676.42
2676.41
2676.41
2676.4
2676.4
2676.4
2676.39
2676.39
2676.41
2676.41
2676.4
2676.4
2676.4
2676.39
2676.39
2676.39
2676.41
2676.41
2676.4
2676.4
2676.39
2676.39
2676.39
2676.39
2676.41
2676.4
2676.4
2676.4
2676.39
2676.39
2676.39
2676.39
2676.41
2676.41
2676.4
2676.4
2676.39
2676.39
2676.39
2676.39
2676.41
2676.41
2676.4
2676.4
2676.39
2676.39
2676.39
2676.39
2676.42
2676.41
2676.4
2676.4
2676.4
2676.39
2676.39
2676.39
3938.79
3938.79
3938.79
3938.79
3938.8
3938.8
3938.8
3938.8
3938.8
3938.8
3938.8
3938.81
3938.81
3938.81
3938.81
3938.82
3938.79
3938.79
3938.79
3938.8
3938.8
3938.8
3938.8
3938.78
3841.67
3841.67
3841.67
3841.67
3841.67
3841.67
3841.67
3841.67
3841.67
3841.67
3841.67
3841.68
3841.68
3841.68
3841.69
3841.69
3841.67
3841.67
3841.67
3841.67
3841.67
3841.67
3841.68
3841.68
3841.67
3841.67
3841.68
3841.68
3841.69
3841.7
3841.71
3841.72
3841.66
3841.66
3841.66
3841.66
3841.66
3841.67
3841.67
3841.67
3841.65
3841.65
3841.65
3841.66
3841.66
3841.66
3841.67
3841.67
3841.63
3841.63
3841.64
3841.64
3841.64
3841.64
3841.64
3841.64
3744.55
3744.55
3744.55
3744.55
3744.55
3744.55
3744.55
3744.55
3744.55
3744.55
3744.55
3744.56
3744.56
3744.56
3744.56
3744.57
3744.55
3744.55
3744.55
3744.55
3744.55
3744.55
3744.56
3744.56
3744.55
3744.55
3744.56
3744.56
3744.57
3744.57
3744.58
3744.59
3744.54
3744.54
3744.54
3744.54
3744.55
3744.55
3744.55
3744.55
3744.53
3744.53
3744.53
3744.54
3744.54
3744.54
3744.55
3744.55
3744.52
3744.52
3744.52
3744.52
3744.52
3744.53
3744.53
3744.53
3647.43
3647.43
3647.43
3647.43
3647.43
3647.44
3647.44
3647.44
3647.44
3647.44
3647.44
3647.44
3647.44
3647.44
3647.45
3647.45
3647.43
3647.43
3647.43
3647.44
3647.44
3647.44
3647.44
3647.44
3647.44
3647.44
3647.44
3647.44
3647.45
3647.45
3647.46
3647.46
3647.43
3647.43
3647.43
3647.43
3647.43
3647.43
3647.44
3647.44
3647.42
3647.42
3647.42
3647.42
3647.43
3647.43
3647.43
3647.44
3647.41
3647.41
3647.41
3647.41
3647.41
3647.41
3647.42
3647.42
3550.32
3550.32
3550.32
3550.32
3550.32
3550.33
3550.33
3550.33
3550.33
3550.33
3550.33
3550.33
3550.33
3550.33
3550.34
3550.34
3550.32
3550.32
3550.32
3550.33
3550.33
3550.33
3550.33
3550.33
3550.32
3550.33
3550.33
3550.33
3550.33
3550.34
3550.34
3550.35
3550.32
3550.32
3550.32
3550.32
3550.32
3550.32
3550.33
3550.33
3550.31
3550.31
3550.31
3550.32
3550.32
3550.32
3550.32
3550.32
3550.3
3550.3
3550.3
3550.3
3550.31
3550.31
3550.31
3550.31
3453.22
3453.22
3453.22
3453.22
3453.22
3453.22
3453.22
3453.22
3453.22
3453.22
3453.22
3453.22
3453.22
3453.23
3453.23
3453.23
3453.22
3453.22
3453.22
3453.22
3453.22
3453.22
3453.22
3453.22
3453.22
3453.22
3453.22
3453.22
3453.23
3453.23
3453.23
3453.24
3453.21
3453.21
3453.21
3453.22
3453.22
3453.22
3453.22
3453.22
3453.21
3453.21
3453.21
3453.21
3453.21
3453.21
3453.22
3453.22
3453.2
3453.2
3453.2
3453.2
3453.2
3453.2
3453.21
3453.21
3356.12
3356.11
3356.12
3356.12
3356.12
3356.12
3356.12
3356.12
3356.12
3356.12
3356.12
3356.12
3356.12
3356.12
3356.12
3356.12
3356.12
3356.12
3356.12
3356.12
3356.12
3356.12
3356.12
3356.12
3356.12
3356.12
3356.12
3356.12
3356.12
3356.12
3356.13
3356.13
3356.11
3356.11
3356.11
3356.11
3356.11
3356.12
3356.12
3356.12
3356.11
3356.11
3356.11
3356.11
3356.11
3356.11
3356.11
3356.11
3356.1
3356.1
3356.1
3356.1
3356.1
3356.1
3356.1
3356.1
3259.02
3259.02
3259.02
3259.02
3259.02
3259.02
3259.02
3259.02
3259.02
3259.02
3259.02
3259.02
3259.02
3259.02
3259.02
3259.02
3259.02
3259.02
3259.02
3259.02
3259.02
3259.02
3259.02
3259.02
3259.02
3259.02
3259.02
3259.02
3259.02
3259.02
3259.02
3259.02
3259.01
3259.01
3259.01
3259.01
3259.01
3259.02
3259.02
3259.02
3259.01
3259.01
3259.01
3259.01
3259.01
3259.01
3259.01
3259.01
3259
3259
3259
3259
3259
3259
3259.01
3259.01
3161.92
3161.92
3161.92
3161.92
3161.92
3161.92
3161.92
3161.92
3161.92
3161.92
3161.92
3161.92
3161.92
3161.92
3161.92
3161.92
3161.92
3161.92
3161.92
3161.92
3161.92
3161.92
3161.92
3161.92
3161.92
3161.92
3161.92
3161.92
3161.92
3161.92
3161.92
3161.92
3161.92
3161.92
3161.92
3161.92
3161.92
3161.92
3161.92
3161.92
3161.91
3161.91
3161.91
3161.91
3161.91
3161.91
3161.91
3161.91
3161.91
3161.91
3161.91
3161.91
3161.91
3161.91
3161.91
3161.91
3064.82
3064.82
3064.82
3064.82
3064.82
3064.82
3064.82
3064.82
3064.82
3064.82
3064.82
3064.82
3064.82
3064.82
3064.82
3064.82
3064.83
3064.82
3064.82
3064.82
3064.82
3064.82
3064.82
3064.82
3064.82
3064.82
3064.82
3064.82
3064.82
3064.82
3064.82
3064.82
3064.82
3064.82
3064.82
3064.82
3064.82
3064.82
3064.82
3064.82
3064.82
3064.82
3064.82
3064.82
3064.82
3064.82
3064.82
3064.82
3064.82
3064.81
3064.81
3064.81
3064.81
3064.81
3064.81
3064.81
2967.73
2967.73
2967.72
2967.72
2967.72
2967.72
2967.72
2967.72
2967.73
2967.73
2967.73
2967.73
2967.72
2967.72
2967.72
2967.72
2967.73
2967.73
2967.73
2967.73
2967.73
2967.72
2967.72
2967.72
2967.73
2967.73
2967.73
2967.73
2967.73
2967.73
2967.72
2967.72
2967.73
2967.73
2967.73
2967.72
2967.72
2967.72
2967.72
2967.72
2967.73
2967.72
2967.72
2967.72
2967.72
2967.72
2967.72
2967.72
2967.72
2967.72
2967.72
2967.72
2967.72
2967.72
2967.71
2967.71
2870.63
2870.63
2870.63
2870.63
2870.63
2870.63
2870.62
2870.62
2870.64
2870.63
2870.63
2870.63
2870.63
2870.63
2870.63
2870.63
2870.64
2870.63
2870.63
2870.63
2870.63
2870.63
2870.63
2870.63
2870.64
2870.63
2870.63
2870.63
2870.63
2870.63
2870.63
2870.63
2870.64
2870.63
2870.63
2870.63
2870.63
2870.63
2870.63
2870.63
2870.63
2870.63
2870.63
2870.63
2870.63
2870.63
2870.62
2870.62
2870.63
2870.63
2870.63
2870.62
2870.62
2870.62
2870.62
2870.62
2773.54
2773.54
2773.54
2773.53
2773.53
2773.53
2773.53
2773.53
2773.54
2773.54
2773.54
2773.54
2773.53
2773.53
2773.53
2773.53
2773.54
2773.54
2773.54
2773.54
2773.54
2773.53
2773.53
2773.53
2773.55
2773.54
2773.54
2773.54
2773.54
2773.54
2773.53
2773.53
2773.54
2773.54
2773.54
2773.54
2773.54
2773.53
2773.53
2773.53
2773.54
2773.54
2773.54
2773.54
2773.53
2773.53
2773.53
2773.53
2773.54
2773.54
2773.53
2773.53
2773.53
2773.53
2773.53
2773.53
2676.45
2676.44
2676.44
2676.44
2676.44
2676.44
2676.44
2676.43
2676.45
2676.45
2676.45
2676.44
2676.44
2676.44
2676.44
2676.44
2676.45
2676.45
2676.45
2676.45
2676.44
2676.44
2676.44
2676.44
2676.45
2676.45
2676.45
2676.45
2676.44
2676.44
2676.44
2676.44
2676.45
2676.45
2676.45
2676.45
2676.44
2676.44
2676.44
2676.44
2676.45
2676.45
2676.45
2676.44
2676.44
2676.44
2676.44
2676.44
2676.45
2676.45
2676.44
2676.44
2676.44
2676.44
2676.44
2676.44
3938.64
3938.66
3938.65
3938.69
3938.68
3938.68
3938.69
3938.7
3938.68
3938.68
3938.68
3938.68
3938.68
3938.69
3938.69
3938.69
3938.67
3938.67
3938.67
3938.67
3938.67
3938.67
3938.67
3938.67
3841.62
3841.62
3841.62
3841.63
3841.63
3841.63
3841.63
3841.63
3841.59
3841.6
3841.61
3841.61
3841.61
3841.61
3841.62
3841.62
3841.57
3841.57
3841.58
3841.59
3841.59
3841.6
3841.6
3841.6
3841.58
3841.57
3841.57
3841.58
3841.58
3841.59
3841.59
3841.59
3841.57
3841.57
3841.57
3841.57
3841.58
3841.58
3841.58
3841.59
3841.56
3841.56
3841.56
3841.56
3841.56
3841.56
3841.57
3841.57
3841.55
3841.55
3841.55
3841.55
3841.55
3841.56
3841.56
3841.56
3744.51
3744.51
3744.51
3744.51
3744.51
3744.51
3744.51
3744.52
3744.49
3744.49
3744.5
3744.5
3744.5
3744.5
3744.5
3744.5
3744.48
3744.48
3744.48
3744.48
3744.49
3744.49
3744.49
3744.49
3744.47
3744.47
3744.47
3744.47
3744.47
3744.48
3744.48
3744.48
3744.46
3744.46
3744.46
3744.46
3744.46
3744.46
3744.46
3744.46
3744.45
3744.45
3744.45
3744.45
3744.45
3744.46
3744.46
3744.46
3744.44
3744.44
3744.44
3744.44
3744.45
3744.45
3744.45
3744.45
3647.4
3647.4
3647.4
3647.4
3647.4
3647.4
3647.4
3647.41
3647.38
3647.39
3647.39
3647.39
3647.39
3647.39
3647.39
3647.39
3647.37
3647.37
3647.38
3647.38
3647.38
3647.38
3647.38
3647.38
3647.36
3647.36
3647.37
3647.37
3647.37
3647.37
3647.37
3647.37
3647.35
3647.35
3647.36
3647.36
3647.36
3647.36
3647.36
3647.36
3647.35
3647.35
3647.35
3647.35
3647.35
3647.35
3647.35
3647.35
3647.34
3647.34
3647.34
3647.34
3647.34
3647.34
3647.34
3647.34
3550.29
3550.29
3550.29
3550.3
3550.3
3550.3
3550.3
3550.3
3550.28
3550.28
3550.28
3550.28
3550.29
3550.29
3550.29
3550.29
3550.27
3550.27
3550.27
3550.27
3550.27
3550.28
3550.28
3550.28
3550.26
3550.26
3550.26
3550.26
3550.27
3550.27
3550.27
3550.27
3550.25
3550.25
3550.25
3550.25
3550.26
3550.26
3550.26
3550.26
3550.25
3550.25
3550.25
3550.25
3550.25
3550.25
3550.25
3550.25
3550.24
3550.24
3550.24
3550.24
3550.24
3550.24
3550.24
3550.24
3453.19
3453.19
3453.19
3453.19
3453.19
3453.2
3453.2
3453.2
3453.18
3453.18
3453.18
3453.18
3453.18
3453.19
3453.19
3453.19
3453.17
3453.17
3453.17
3453.17
3453.18
3453.18
3453.18
3453.18
3453.16
3453.16
3453.17
3453.17
3453.17
3453.17
3453.17
3453.17
3453.16
3453.16
3453.16
3453.16
3453.16
3453.16
3453.16
3453.16
3453.15
3453.15
3453.15
3453.15
3453.15
3453.15
3453.15
3453.15
3453.14
3453.14
3453.14
3453.14
3453.14
3453.14
3453.14
3453.14
3356.09
3356.09
3356.09
3356.09
3356.1
3356.1
3356.1
3356.1
3356.09
3356.09
3356.09
3356.09
3356.09
3356.09
3356.09
3356.09
3356.08
3356.08
3356.08
3356.08
3356.08
3356.08
3356.08
3356.08
3356.07
3356.07
3356.07
3356.07
3356.07
3356.07
3356.07
3356.07
3356.06
3356.06
3356.06
3356.06
3356.06
3356.06
3356.06
3356.06
3356.06
3356.06
3356.06
3356.06
3356.05
3356.05
3356.05
3356.05
3356.05
3356.05
3356.05
3356.05
3356.05
3356.05
3356.05
3356.05
3259
3259
3259
3259
3259
3259
3259
3259
3258.99
3258.99
3258.99
3258.99
3258.99
3258.99
3258.99
3258.99
3258.98
3258.98
3258.98
3258.98
3258.98
3258.98
3258.98
3258.98
3258.98
3258.98
3258.98
3258.98
3258.97
3258.97
3258.97
3258.97
3258.97
3258.97
3258.97
3258.97
3258.97
3258.97
3258.97
3258.97
3258.96
3258.96
3258.96
3258.96
3258.96
3258.96
3258.96
3258.96
3258.96
3258.96
3258.96
3258.96
3258.96
3258.96
3258.95
3258.95
3161.9
3161.9
3161.9
3161.9
3161.9
3161.9
3161.9
3161.9
3161.9
3161.9
3161.9
3161.9
3161.89
3161.89
3161.89
3161.89
3161.89
3161.89
3161.89
3161.89
3161.89
3161.89
3161.89
3161.89
3161.88
3161.88
3161.88
3161.88
3161.88
3161.88
3161.88
3161.88
3161.88
3161.88
3161.88
3161.88
3161.87
3161.87
3161.87
3161.87
3161.87
3161.87
3161.87
3161.87
3161.87
3161.87
3161.87
3161.87
3161.87
3161.87
3161.87
3161.87
3161.86
3161.86
3161.86
3161.86
3064.81
3064.81
3064.81
3064.81
3064.81
3064.81
3064.81
3064.8
3064.8
3064.8
3064.8
3064.8
3064.8
3064.8
3064.8
3064.8
3064.8
3064.8
3064.8
3064.8
3064.79
3064.79
3064.79
3064.79
3064.79
3064.79
3064.79
3064.79
3064.79
3064.79
3064.79
3064.78
3064.79
3064.79
3064.79
3064.78
3064.78
3064.78
3064.78
3064.78
3064.78
3064.78
3064.78
3064.78
3064.78
3064.78
3064.77
3064.77
3064.78
3064.78
3064.78
3064.78
3064.77
3064.77
3064.77
3064.77
2967.72
2967.72
2967.71
2967.71
2967.71
2967.71
2967.71
2967.71
2967.71
2967.71
2967.71
2967.71
2967.71
2967.71
2967.7
2967.7
2967.71
2967.71
2967.7
2967.7
2967.7
2967.7
2967.7
2967.7
2967.7
2967.7
2967.7
2967.7
2967.7
2967.69
2967.69
2967.69
2967.7
2967.7
2967.69
2967.69
2967.69
2967.69
2967.69
2967.68
2967.69
2967.69
2967.69
2967.69
2967.69
2967.68
2967.68
2967.68
2967.69
2967.69
2967.69
2967.68
2967.68
2967.68
2967.68
2967.68
2870.63
2870.62
2870.62
2870.62
2870.62
2870.62
2870.62
2870.61
2870.62
2870.62
2870.62
2870.62
2870.61
2870.61
2870.61
2870.61
2870.62
2870.61
2870.61
2870.61
2870.61
2870.61
2870.6
2870.6
2870.61
2870.61
2870.61
2870.6
2870.6
2870.6
2870.6
2870.6
2870.61
2870.6
2870.6
2870.6
2870.6
2870.6
2870.59
2870.59
2870.6
2870.6
2870.6
2870.6
2870.59
2870.59
2870.59
2870.59
2870.6
2870.6
2870.59
2870.59
2870.59
2870.59
2870.58
2870.58
2773.54
2773.53
2773.53
2773.53
2773.53
2773.53
2773.52
2773.52
2773.53
2773.53
2773.53
2773.52
2773.52
2773.52
2773.52
2773.52
2773.53
2773.52
2773.52
2773.52
2773.52
2773.51
2773.51
2773.51
2773.52
2773.52
2773.52
2773.51
2773.51
2773.51
2773.51
2773.5
2773.52
2773.51
2773.51
2773.51
2773.51
2773.5
2773.5
2773.5
2773.51
2773.51
2773.51
2773.5
2773.5
2773.5
2773.5
2773.49
2773.51
2773.51
2773.5
2773.5
2773.5
2773.49
2773.49
2773.49
2676.45
2676.44
2676.44
2676.44
2676.44
2676.43
2676.43
2676.43
2676.44
2676.44
2676.43
2676.43
2676.43
2676.43
2676.43
2676.43
2676.44
2676.43
2676.43
2676.43
2676.43
2676.42
2676.42
2676.42
2676.43
2676.43
2676.42
2676.42
2676.42
2676.42
2676.42
2676.41
2676.43
2676.42
2676.42
2676.42
2676.41
2676.41
2676.41
2676.41
2676.42
2676.42
2676.41
2676.41
2676.41
2676.41
2676.4
2676.4
2676.42
2676.41
2676.41
2676.41
2676.4
2676.4
2676.4
2676.4
3938.72
3938.72
3938.72
3938.72
3938.72
3938.72
3938.72
3938.72
3938.74
3938.74
3938.74
3938.75
3938.75
3938.75
3938.75
3938.76
3938.76
3938.76
3938.76
3938.76
3938.76
3938.76
3938.77
3938.77
3938.78
3938.78
3938.79
3938.79
3938.8
3938.81
3938.81
3938.82
3938.78
3938.78
3938.78
3938.78
3938.78
3938.78
3938.78
3938.79
3938.79
3938.79
3938.79
3938.79
3938.8
3938.8
3938.8
3938.8
3938.79
3938.79
3938.79
3938.79
3938.79
3938.79
3938.79
3938.79
3841.6
3841.6
3841.6
3841.6
3841.6
3841.6
3841.6
3841.6
3841.62
3841.62
3841.62
3841.62
3841.62
3841.63
3841.63
3841.63
3841.63
3841.63
3841.63
3841.63
3841.64
3841.64
3841.64
3841.64
3841.65
3841.65
3841.65
3841.66
3841.66
3841.67
3841.68
3841.68
3841.65
3841.65
3841.65
3841.65
3841.66
3841.66
3841.66
3841.66
3841.66
3841.66
3841.66
3841.67
3841.67
3841.67
3841.67
3841.67
3841.66
3841.66
3841.66
3841.66
3841.67
3841.67
3841.67
3841.67
3744.48
3744.48
3744.48
3744.48
3744.48
3744.48
3744.49
3744.49
3744.5
3744.5
3744.5
3744.5
3744.5
3744.51
3744.51
3744.51
3744.51
3744.51
3744.51
3744.51
3744.52
3744.52
3744.52
3744.52
3744.53
3744.53
3744.53
3744.53
3744.54
3744.54
3744.55
3744.55
3744.53
3744.53
3744.53
3744.53
3744.53
3744.54
3744.54
3744.54
3744.54
3744.54
3744.54
3744.54
3744.55
3744.55
3744.55
3744.55
3744.54
3744.54
3744.54
3744.54
3744.55
3744.55
3744.55
3744.55
3647.37
3647.37
3647.37
3647.37
3647.37
3647.38
3647.38
3647.38
3647.39
3647.39
3647.39
3647.39
3647.39
3647.39
3647.4
3647.4
3647.4
3647.4
3647.4
3647.4
3647.4
3647.4
3647.4
3647.41
3647.41
3647.41
3647.41
3647.42
3647.42
3647.42
3647.43
3647.43
3647.42
3647.42
3647.42
3647.42
3647.42
3647.42
3647.42
3647.42
3647.43
3647.43
3647.43
3647.43
3647.43
3647.43
3647.43
3647.44
3647.43
3647.43
3647.43
3647.43
3647.43
3647.43
3647.43
3647.43
3550.27
3550.27
3550.27
3550.27
3550.27
3550.27
3550.27
3550.27
3550.28
3550.28
3550.28
3550.28
3550.28
3550.29
3550.29
3550.29
3550.29
3550.29
3550.29
3550.29
3550.29
3550.29
3550.3
3550.3
3550.3
3550.3
3550.3
3550.31
3550.31
3550.31
3550.31
3550.32
3550.31
3550.31
3550.31
3550.31
3550.31
3550.31
3550.31
3550.31
3550.32
3550.32
3550.32
3550.32
3550.32
3550.32
3550.32
3550.32
3550.32
3550.32
3550.32
3550.32
3550.32
3550.32
3550.32
3550.32
3453.17
3453.17
3453.17
3453.17
3453.17
3453.17
3453.17
3453.17
3453.18
3453.18
3453.18
3453.18
3453.18
3453.18
3453.18
3453.18
3453.19
3453.19
3453.19
3453.19
3453.19
3453.19
3453.19
3453.19
3453.2
3453.2
3453.2
3453.2
3453.2
3453.2
3453.21
3453.21
3453.2
3453.2
3453.2
3453.2
3453.2
3453.21
3453.21
3453.21
3453.21
3453.21
3453.21
3453.21
3453.21
3453.21
3453.22
3453.22
3453.21
3453.21
3453.21
3453.21
3453.22
3453.22
3453.22
3453.22
3356.07
3356.07
3356.07
3356.07
3356.07
3356.07
3356.07
3356.07
3356.08
3356.08
3356.08
3356.08
3356.08
3356.08
3356.08
3356.08
3356.09
3356.09
3356.09
3356.09
3356.09
3356.09
3356.09
3356.09
3356.1
3356.1
3356.1
3356.1
3356.1
3356.1
3356.1
3356.1
3356.1
3356.1
3356.1
3356.1
3356.1
3356.1
3356.1
3356.1
3356.11
3356.11
3356.11
3356.11
3356.11
3356.11
3356.11
3356.11
3356.11
3356.11
3356.11
3356.11
3356.11
3356.11
3356.11
3356.11
3258.98
3258.98
3258.98
3258.97
3258.97
3258.97
3258.97
3258.97
3258.99
3258.98
3258.98
3258.98
3258.98
3258.98
3258.98
3258.98
3258.99
3258.99
3258.99
3258.99
3258.99
3258.99
3258.99
3258.99
3259
3259
3259
3259
3259
3259
3259
3259
3259
3259
3259
3259
3259
3259
3259
3259
3259.01
3259.01
3259.01
3259.01
3259.01
3259.01
3259.01
3259.01
3259.01
3259.01
3259.01
3259.01
3259.01
3259.01
3259.01
3259.01
3161.89
3161.88
3161.88
3161.88
3161.88
3161.88
3161.88
3161.88
3161.89
3161.89
3161.89
3161.89
3161.89
3161.89
3161.89
3161.88
3161.9
3161.9
3161.89
3161.89
3161.89
3161.89
3161.89
3161.89
3161.9
3161.9
3161.9
3161.9
3161.9
3161.9
3161.9
3161.9
3161.91
3161.91
3161.91
3161.91
3161.9
3161.9
3161.9
3161.9
3161.91
3161.91
3161.91
3161.91
3161.91
3161.91
3161.91
3161.91
3161.92
3161.92
3161.91
3161.91
3161.91
3161.91
3161.91
3161.91
3064.79
3064.79
3064.79
3064.79
3064.78
3064.78
3064.78
3064.78
3064.8
3064.8
3064.79
3064.79
3064.79
3064.79
3064.79
3064.79
3064.8
3064.8
3064.8
3064.8
3064.8
3064.8
3064.79
3064.79
3064.81
3064.81
3064.81
3064.8
3064.8
3064.8
3064.8
3064.8
3064.81
3064.81
3064.81
3064.81
3064.81
3064.81
3064.81
3064.8
3064.82
3064.82
3064.81
3064.81
3064.81
3064.81
3064.81
3064.81
3064.82
3064.82
3064.82
3064.82
3064.82
3064.82
3064.81
3064.81
2967.7
2967.7
2967.69
2967.69
2967.69
2967.69
2967.69
2967.68
2967.71
2967.7
2967.7
2967.7
2967.7
2967.69
2967.69
2967.69
2967.71
2967.71
2967.7
2967.7
2967.7
2967.7
2967.7
2967.69
2967.71
2967.71
2967.71
2967.71
2967.71
2967.71
2967.7
2967.7
2967.72
2967.72
2967.71
2967.71
2967.71
2967.71
2967.71
2967.71
2967.72
2967.72
2967.72
2967.72
2967.72
2967.71
2967.71
2967.71
2967.73
2967.72
2967.72
2967.72
2967.72
2967.72
2967.72
2967.72
2870.61
2870.6
2870.6
2870.6
2870.59
2870.59
2870.59
2870.59
2870.61
2870.61
2870.6
2870.6
2870.6
2870.6
2870.59
2870.59
2870.62
2870.61
2870.61
2870.61
2870.6
2870.6
2870.6
2870.6
2870.62
2870.62
2870.61
2870.61
2870.61
2870.61
2870.61
2870.6
2870.62
2870.62
2870.62
2870.62
2870.61
2870.61
2870.61
2870.61
2870.63
2870.63
2870.62
2870.62
2870.62
2870.62
2870.62
2870.61
2870.63
2870.63
2870.63
2870.62
2870.62
2870.62
2870.62
2870.62
2773.51
2773.51
2773.5
2773.5
2773.5
2773.49
2773.49
2773.49
2773.52
2773.51
2773.51
2773.51
2773.5
2773.5
2773.5
2773.5
2773.52
2773.52
2773.51
2773.51
2773.51
2773.51
2773.5
2773.5
2773.53
2773.52
2773.52
2773.52
2773.51
2773.51
2773.51
2773.51
2773.53
2773.53
2773.52
2773.52
2773.52
2773.52
2773.52
2773.51
2773.53
2773.53
2773.53
2773.53
2773.52
2773.52
2773.52
2773.52
2773.54
2773.53
2773.53
2773.53
2773.53
2773.53
2773.53
2773.52
2676.42
2676.41
2676.41
2676.4
2676.4
2676.4
2676.4
2676.39
2676.42
2676.42
2676.41
2676.41
2676.41
2676.4
2676.4
2676.4
2676.43
2676.42
2676.42
2676.41
2676.41
2676.41
2676.41
2676.41
2676.43
2676.43
2676.42
2676.42
2676.42
2676.42
2676.41
2676.41
2676.44
2676.43
2676.43
2676.43
2676.42
2676.42
2676.42
2676.42
2676.44
2676.44
2676.43
2676.43
2676.43
2676.43
2676.43
2676.42
2676.45
2676.44
2676.44
2676.44
2676.43
2676.43
2676.43
2676.43
3884.15
3887.63
3889.6
3888.38
3885.02
3880.56
3875.58
3889.55
3893.45
3896.77
3894.35
3890.39
3885.5
3879.5
3893.2
3897.85
3909.87
3900.08
3892.9
3888.9
3882.53
3896.09
3910.45
3957.23
3926.97
3897.62
3891.32
3884.48
3893.59
3899.17
3921.66
3904.38
3893.18
3889.52
3883.23
3890.74
3893.88
3897.47
3894.44
3891.07
3886.57
3880.57
3886.14
3889.29
3891.09
3889.52
3886.49
3882.08
3876.91
3784.8
3789.75
3792
3790.61
3786.27
3780.54
3774.7
3793.06
3800.45
3803.93
3801.67
3795.18
3787.02
3779.18
3800.32
3810.07
3813.38
3809.97
3802.49
3792.33
3782.81
3803.99
3811.51
3851.59
3818.12
3805.85
3795.29
3784.75
3802.53
3811.73
3820.47
3811.36
3803.76
3793.48
3783.53
3796.69
3805.74
3809.03
3805.5
3798.17
3789.08
3780.54
3788.33
3794.38
3797.1
3794.9
3789.51
3782.83
3776.26
3668.59
3674.91
3678.33
3676.76
3671.46
3665.62
3660.66
3677.65
3687.06
3692.11
3688.89
3681.69
3672.28
3664.54
3686.34
3692.48
3702.04
3692.86
3690.77
3679.11
3668.24
3691.44
3705.04
3723.5
3703.5
3696.48
3682.5
3670.31
3690.25
3701.41
3707.66
3696.29
3693.44
3680.78
3669.1
3682.09
3692.56
3698.65
3693.14
3685.49
3674.59
3665.65
3672.01
3680.51
3684.35
3681.81
3674.95
3667.57
3661.6
3507.17
3500.08
3496.4
3499.22
3507.12
3515.94
3523.64
3490.17
3472.65
3459.87
3468.32
3487.91
3505.81
3517.77
3467.94
3443.29
3419.34
3439.47
3464.24
3494.87
3512.83
3455.97
3435.26
3425.16
3418.76
3452.67
3489.66
3510.64
3457.93
3425.11
3418.74
3431.83
3457.42
3491.53
3511.13
3475.48
3452.69
3445.98
3452.74
3475.98
3499.92
3514.56
3496.49
3484.29
3481.33
3485.05
3497.92
3510.35
3520.08
3373.71
3357.19
3347.89
3354.24
3370.7
3387.92
3403.59
3348.45
3335.45
3331.55
3333.75
3343.71
3367.75
3391.1
3333.53
3331.76
3333.43
3333.97
3332.34
3348.16
3379.69
3331.99
3325.85
3330.66
3330.73
3329.03
3338.99
3372.22
3331.02
3330.51
3323.84
3333
3329.99
3342.67
3376.12
3336.79
3329.63
3323.68
3328.16
3334.6
3358.03
3385.56
3357.97
3338.14
3331.61
3336.84
3355.82
3378.18
3397.55
3321.35
3316.67
3313.57
3317.24
3321.44
3326.71
3332.84
3316.1
3314.49
3314.74
3316.29
3317.06
3320.55
3327.76
3315.61
3314.45
3315.6
3316.95
3317.59
3316.22
3323.49
3314.24
3311.28
3316.93
3315.66
3317.58
3312.24
3320.6
3316.87
3316.16
3318.32
3316.42
3318.03
3315.33
3322.5
3318.6
3319.94
3315.4
3319.84
3319.07
3319.61
3326.31
3319.61
3316.09
3309.68
3317.06
3319.91
3324.6
3331.02
3284.87
3289.33
3290.81
3288.99
3284.57
3279.98
3276.04
3295
3309.52
3311.03
3309.74
3296.09
3285.36
3279.2
3311.46
3325.88
3319.28
3323.92
3313.03
3292.06
3281.96
3315.37
3321.18
3319.73
3322.24
3317.89
3296.51
3283.42
3318.43
3326.46
3323.05
3327.76
3319.62
3295.7
3283.42
3305.38
3325.03
3329.27
3325.92
3306.57
3289.9
3281.64
3291.34
3301.18
3307.81
3301.23
3291.28
3283.97
3278.68
3215.05
3219.66
3221.81
3218.09
3213.12
3207
3200.72
3224.22
3236.24
3247.35
3233.29
3222.15
3213.81
3205.88
3239.47
3277.83
3298.1
3271.73
3235.87
3219.81
3210.22
3262.21
3308.98
3305.37
3304.12
3253.64
3224.52
3212.82
3249.98
3300.38
3308.01
3292.18
3244.9
3222.82
3212.12
3231.15
3254.08
3278.39
3250.04
3229.04
3217.85
3208.92
3220.85
3226.95
3233.2
3224.95
3218.52
3211.39
3204.15
3117.12
3120.06
3121.1
3119.03
3115.7
3111.13
3106.1
3122
3125.6
3127.19
3123.79
3120.73
3116.09
3110.13
3124.8
3132.33
3146.69
3127.88
3123.29
3119.6
3113.33
3131.22
3161.7
3201.96
3148.72
3129.45
3122.47
3115.63
3126.23
3140.44
3174.13
3137.66
3126.89
3121.53
3114.88
3123.87
3127.06
3135.11
3126.67
3123.44
3118.7
3112.4
3120.73
3123.66
3125.25
3122.49
3119.18
3114.33
3108.75
3003.52
3005.82
3007.18
3005.93
3004
3001.4
2998.59
3005.73
3006.28
3008.2
3007.34
3007
3004.3
3000.83
3003.35
2995.33
3000.56
2999.51
3007.28
3006.48
3002.62
2999.13
2997.82
3023.91
2997.87
3007.59
3007.9
3003.72
2997.33
2993.12
2997.46
2994.82
3006.38
3006.95
3003.12
3001.42
2992.79
2995.56
3002.89
3006.71
3005.03
3001.6
3002.71
3003.27
3005.17
3005.67
3004.9
3002.5
2999.56
2871.58
2868.85
2868.88
2871.22
2875.09
2878.75
2881.62
2862.25
2854.84
2854.06
2859.43
2867.99
2875.19
2879.73
2853.2
2850.2
2846.29
2852.87
2860.02
2871.52
2878.12
2853.45
2849.88
2849.17
2848.28
2854.86
2869.65
2877.38
2855.09
2843.14
2842.02
2846.28
2855.72
2869.82
2877.34
2858.96
2860.29
2854.81
2851.72
2862.53
2872.68
2878.45
2867.48
2862.56
2861.68
2864.76
2871.05
2876.5
2880.32
2758.25
2752.33
2750.86
2755
2761.56
2768.39
2774.46
2750.24
2747.48
2747.38
2747.54
2752.3
2761.63
2770.17
2748.26
2750.69
2747.94
2747.51
2748.08
2755.56
2766.59
2753.96
2745.8
2745.69
2749.77
2746.53
2752.07
2764.42
2752.95
2747.95
2744.61
2749.36
2746.8
2753.57
2765.28
2752.62
2756.06
2754.31
2748.12
2749.83
2758.81
2768.36
2756.13
2752.08
2750.22
2751.44
2757.4
2765.47
2772.51
2686.94
2685.73
2685.08
2685.53
2686.19
2687.67
2689.76
2689.4
2690.84
2691.15
2688.67
2686.01
2686.06
2688.21
2692.42
2689.05
2687.09
2688.53
2687.85
2685.15
2687.05
2690.12
2687.14
2683.34
2687.8
2689.15
2684.51
2686.42
2691.49
2689.69
2690
2690.8
2689.68
2685.5
2687.01
2691.43
2691.25
2691.3
2693.42
2689
2686.68
2688.15
2687.84
2687.69
2687.93