/*--------------------------------*- C++ -*----------------------------------*\
| =========                 |                                                 |
| \\      /  F ield         | OpenFOAM: The Open Source CFD Toolbox           |
|  \\    /   O peration     | Version:  plus.master.MPPICInterFoam            |
|   \\  /    A nd           | Web:      www.OpenFOAM.com                      |
|    \\/     M anipulation  |                                                 |
\*---------------------------------------------------------------------------*/
FoamFile
{
    version     2.0;
    format      ascii;
    class       Cloud<basicKinematicMPPICParcel>;
    location    "7/lagrangian/kinematicCloud";
    object      positions;
}
// * * * * * * * * * * * * * * * * * * * * * * * * * * * * * * * * * * * * * //

144
(
(-0.0247066 -0.0408061 0.503035) 2319
(-0.00041246 -0.0480864 0.502604) 2335
(0.00308403 -0.0456214 0.50367) 2335
(-0.0176233 -0.0419116 0.50166) 2319
(0.00152391 -0.0454287 0.505236) 2335
(-0.0114815 -0.0438946 0.504108) 2327
(0.00320666 -0.0454193 0.503854) 2335
(0.0178867 -0.0509597 0.518355) 2408
(0.0116245 -0.0365927 0.50696) 2342
(0.0291601 -0.0456964 0.509449) 2360
(-0.00435736 -0.0525137 0.52371) 2448
(0.0208052 -0.0332255 0.526848) 2462
(0.0323019 -0.0208575 0.512435) 1694
(-0.00805948 0.0574462 0.506433) 2681
(0.00457786 -0.0610543 0.501923) 2338
(0.0577079 0.00220112 0.501686) 1665
(0.0575729 0.0104604 0.502933) 1673
(0.00149337 -0.0607627 0.502975) 2338
(0.00236504 0.0608942 0.50443) 2674
(0.00329052 0.0606624 0.505345) 2674
(-0.0609881 -0.0132528 0.510633) 2010
(-0.000728967 0.0627895 0.513147) 2730
(0.00172839 0.0621733 0.514257) 2730
(0.00360157 0.0603487 0.515503) 2730
(0.00162653 0.0632842 0.515471) 2730
(0.0014478 0.062926 0.516583) 2730
(-0.0610615 0.00802193 0.519034) 2050
(0.0048248 0.0633247 0.519189) 2730
(0.00618572 0.0617642 0.521261) 2730
(-0.00567756 -0.0638394 0.518349) 2394
(0.00969818 0.0628018 0.519491) 2722
(-0.00471576 -0.0635538 0.519475) 2394
(0.0635087 0.00424717 0.520478) 1722
(-0.00120476 -0.0643858 0.519518) 2394
(-0.00283616 0.0610208 0.523927) 2786
(-0.00810877 -0.0596207 0.52295) 2442
(0.0607103 0.00186659 0.523449) 1778
(0.0584529 -0.00611511 0.52672) 1777
(-0.00238652 -0.0620578 0.522092) 2450
(0.0610925 -0.00121958 0.523272) 1778
(0.0573605 -0.00606867 0.528976) 1777
(0.0017944 -0.0626976 0.522502) 2450
(0.0612947 0.0017928 0.523193) 1778
(0.00242474 0.0594899 0.527407) 2785
(0.0615083 -0.0011089 0.526328) 1778
(0.00337426 0.0598079 0.530373) 2786
(0.0118367 0.0580787 0.529393) 2777
(0.0595557 -0.00111665 0.528804) 1778
(0.0123247 0.0580218 0.530102) 2777
(-0.00773696 0.0562847 0.53458) 2849
(0.00561459 0.0541378 0.53809) 2841
(0.00393712 0.0586309 0.534016) 2841
(-0.00567439 -0.0598831 0.531605) 2506
(-0.0561761 -0.0058922 0.538597) 2169
(0.0599971 -0.0011431 0.533222) 1834
(-0.005019 -0.059586 0.535979) 2506
(0.059931 -0.00165951 0.533456) 1834
(-0.00397394 -0.059859 0.535511) 2506
(-0.00949357 -0.0589096 0.535199) 2498
(0.0572781 -0.00373192 0.5392) 1833
(-0.00266444 -0.0606472 0.537939) 2506
(-0.00153255 0.0569766 0.541194) 2841
(-0.00100465 -0.0584256 0.541314) 2561
(-0.0555275 -0.00898162 0.541735) 2233
(0.000911186 -0.0585749 0.542015) 2561
(0.0556437 -0.00391525 0.540957) 1833
(0.00269791 -0.0540452 0.546113) 2560
(0.0505917 -0.00420553 0.548892) 1888
(-0.0512428 -0.00699343 0.550383) 2232
(0.00110502 -0.052623 0.548069) 2560
(0.0496809 -0.00672871 0.552162) 1936
(-0.00111371 0.0494614 0.554212) 2952
(-0.00288313 -0.0508819 0.555526) 2616
(0.0495551 -0.00125067 0.552981) 1944
(-0.00604477 -0.0452538 0.561641) 8479
(-0.00443467 -0.0440117 0.563338) 8487
(-0.00578432 -0.0439522 0.563131) 8479
(-0.0438907 -0.00307134 0.563535) 7927
(-0.0431474 0.000699028 0.565514) 7926
(0.00155915 -0.0411497 0.569707) 8486
(-0.0393269 -0.00100888 0.569732) 7926
(-0.0332201 -0.0013975 0.57493) 5468
(-0.0300821 0.00213712 0.576798) 5467
(0.0284257 -0.00320259 0.575376) 4907
(-0.0299323 0.00162482 0.577284) 5467
(-0.029037 0.00282179 0.577503) 5467
(0.00023891 0.026466 0.575816) 6586
(0.0271301 -0.00343457 0.575276) 4898
(-0.0277765 5.42292e-06 0.57949) 5467
(-0.00295383 0.0244893 0.572438) 6593
(0.00106332 0.0247026 0.572716) 6585
(-0.0268408 9.37907e-06 0.579335) 5466
(-0.025615 0.000689854 0.579965) 5466
(-0.0270566 -0.00316194 0.575227) 5466
(0.00189957 -0.0268551 0.579884) 6026
(-0.0263732 0.00133482 0.574263) 5466
(-0.0252953 0.00536494 0.572513) 5458
(-0.0240379 0.000763353 0.578163) 5465
(-0.0237833 0.00200515 0.577102) 5465
(-0.0240438 -0.0049237 0.574249) 5473
(-0.0251064 -0.00450379 0.569863) 5418
(-0.02388 0.00253285 0.561268) 5409
(-0.0240633 -0.00252215 0.563451) 5409
(-0.0231064 -0.00584915 0.566018) 5417
(-0.0227712 -0.00564465 0.561363) 5417
(-0.023871 0.00489303 0.554039) 929
(-0.023045 0.00270295 0.557731) 937
(0.00406919 0.0216319 0.548007) 1544
(-0.024419 -0.00516879 0.553952) 945
(0.00248605 0.0196944 0.548193) 1552
(-0.0227939 0.000891711 0.546941) 881
(-0.02365 0.00443474 0.54264) 873
(-0.0239407 -0.00341618 0.540697) 833
(-0.0228631 0.00162073 0.541672) 881
(-0.0219178 -0.00478345 0.542311) 889
(-0.0223259 0.00178906 0.541698) 881
(-0.0221034 0.00209256 0.538113) 825
(-0.0232123 0.00454527 0.532815) 817
(-0.0248064 0.00291611 0.528991) 770
(-0.0224417 -0.004098 0.532533) 833
(-0.0213622 0.00205331 0.533315) 824
(-0.0244963 0.00486631 0.528087) 761
(-0.0237684 -0.00266117 0.530477) 769
(-0.00253062 -0.0226498 0.533086) 1161
(-0.0223613 0.00036845 0.530464) 769
(-0.0226033 0.00365048 0.529224) 761
(-0.0212333 0.00318584 0.530199) 760
(-0.0237031 0.00151541 0.52506) 769
(-0.0225316 -0.00434672 0.526843) 777
(-0.0211234 0.00277709 0.526525) 760
(-0.021167 0.000710434 0.526536) 768
(-0.0209753 -0.00592231 0.525577) 776
(-0.0237086 0.00035527 0.520959) 713
(-0.0214349 0.00313783 0.522031) 760
(-0.0211804 -0.0065652 0.521604) 776
(-0.0212642 0.000822433 0.520892) 712
(-0.0229642 0.00346195 0.517533) 705
(-0.0223905 -0.00649278 0.517135) 721
(-0.0239171 -0.00233506 0.515337) 713
(-0.0214587 0.00208069 0.516208) 712
(-0.0224009 -0.000232333 0.514376) 713
(-0.0255051 0.0022799 0.506345) 658
(-0.0234209 0.00332691 0.502923) 649
(-0.0237324 -0.00289085 0.5019) 665
)


// ************************************************************************* //
