/*--------------------------------*- C++ -*----------------------------------*\
| =========                 |                                                 |
| \\      /  F ield         | OpenFOAM: The Open Source CFD Toolbox           |
|  \\    /   O peration     | Version:  plus.master.MPPICInterFoam            |
|   \\  /    A nd           | Web:      www.OpenFOAM.com                      |
|    \\/     M anipulation  |                                                 |
\*---------------------------------------------------------------------------*/
FoamFile
{
    version     2.0;
    format      ascii;
    class       vectorField;
    location    "7/lagrangian/kinematicCloud";
    object      UCorrect;
}
// * * * * * * * * * * * * * * * * * * * * * * * * * * * * * * * * * * * * * //


144
(
(-1.21991e-10 1.20355e-10 2.94504e-07)
(-3.44219e-08 -1.95291e-09 3.96299e-07)
(-5.48415e-08 -4.25366e-09 2.20585e-07)
(-6.11545e-11 8.21292e-11 5.85246e-07)
(-4.4851e-08 -3.12799e-09 2.20585e-07)
(-9.06217e-12 -3.98252e-11 4.71877e-07)
(-5.57858e-08 -4.36005e-09 2.20585e-07)
(1.27879e-13 1.01289e-14 6.0246e-14)
(-2.29928e-11 1.01594e-10 1.40633e-07)
(9.20934e-14 4.17877e-14 1.11071e-16)
(2.50287e-17 -5.26405e-17 3.23732e-16)
(-1.01954e-17 1.88276e-17 1.4916e-16)
(1.56087e-19 1.96119e-19 1.56474e-34)
(1.55102e-17 2.04011e-18 4.80513e-14)
(1.15893e-16 -3.05131e-15 4.71615e-18)
(1.915e-19 -2.40384e-19 -1.82843e-19)
(3.95521e-19 9.05162e-20 -1.50793e-34)
(1.15893e-16 -3.05131e-15 4.19906e-18)
(-6.1497e-30 1.83535e-31 1.92571e-18)
(-6.1497e-30 1.52482e-31 1.92571e-18)
(-9.74571e-14 -2.27449e-14 1.6962e-14)
(-8.9639e-30 -3.93619e-31 -5.4424e-23)
(-8.9639e-30 -3.93619e-31 -9.10818e-23)
(-8.9639e-30 -1.1627e-31 -1.63528e-22)
(-8.9639e-30 -2.52819e-31 -1.63528e-22)
(-8.9639e-30 -3.04855e-31 -1.63528e-22)
(-1.35079e-18 2.14615e-18 4.83101e-17)
(-3.02076e-30 -1.06325e-30 -1.63528e-22)
(-8.9639e-30 -3.93619e-31 -3.2246e-22)
(7.15567e-19 -2.70593e-18 2.94351e-21)
(-2.82924e-20 -1.81958e-19 2.81573e-34)
(6.14787e-19 -2.69458e-18 2.94351e-21)
(3.62518e-19 -5.93412e-20 -3.93342e-36)
(1.18682e-19 -6.22012e-19 2.94351e-21)
(6.15035e-30 3.59203e-19 8.52383e-20)
(-2.39466e-28 6.79288e-29 8.371e-19)
(-4.82082e-21 -1.18682e-19 0)
(-4.3666e-19 -1.77181e-19 0)
(8.96378e-30 5.55437e-19 5.91498e-37)
(-4.82082e-21 -1.18682e-19 0)
(-4.36918e-19 -1.79469e-19 0)
(8.96378e-30 5.55437e-19 5.34511e-37)
(-4.82082e-21 -1.18682e-19 0)
(-3.54093e-30 1.10791e-21 9.26721e-20)
(-3.20748e-21 -1.18682e-19 0)
(6.15035e-30 3.51229e-20 1.67289e-19)
(-7.79371e-20 -3.41465e-19 4.03351e-46)
(6.97764e-22 -1.18682e-19 0)
(-7.96606e-20 -3.49016e-19 4.03351e-46)
(8.97513e-20 -3.66795e-19 -9.30355e-20)
(1.80112e-19 2.75482e-21 2.78743e-19)
(1.80112e-19 3.24057e-19 2.78743e-19)
(1.15901e-22 -5.06097e-24 1.20557e-35)
(3.61681e-20 -2.20204e-19 4.65177e-19)
(-6.23814e-22 -5.93412e-20 0)
(1.15901e-22 -1.11711e-25 2.06101e-34)
(-4.30318e-22 -5.93412e-20 0)
(1.15901e-22 -6.068e-25 2.06101e-34)
(2.58078e-19 1.13019e-18 1.67289e-19)
(-2.0815e-19 1.20309e-19 2.82907e-34)
(1.15901e-22 -2.03632e-24 2.06101e-34)
(1.80112e-19 1.94333e-19 5.57864e-19)
(3.88733e-30 -3.96226e-22 4.27081e-21)
(-5.76804e-19 -1.93354e-19 -2.01042e-20)
(3.88733e-30 -3.96226e-22 3.06497e-20)
(-2.0815e-19 1.20309e-19 3.45819e-34)
(-1.21959e-19 8.42055e-21 -2.08593e-19)
(-1.62839e-20 -2.10829e-19 -1.04398e-19)
(2.14516e-20 -1.20199e-19 1.78194e-19)
(-1.21959e-19 2.54328e-19 -2.08593e-19)
(-1.76036e-19 7.09774e-20 2.08389e-19)
(-7.23315e-31 -5.86724e-19 2.91948e-36)
(-2.43569e-19 5.2526e-20 -1.04398e-19)
(-2.0482e-19 2.43322e-19 2.08186e-19)
(1.18976e-19 -3.43247e-20 -2.20838e-35)
(1.1028e-19 1.21445e-18 7.92176e-35)
(1.70809e-20 -2.28439e-20 6.97701e-36)
(-8.10647e-19 7.11548e-31 -1.17801e-19)
(-2.97484e-14 4.66892e-30 -2.0656e-16)
(1.82667e-29 5.78037e-19 -1.03158e-34)
(-2.37678e-13 4.66892e-30 -1.69598e-16)
(-2.23695e-07 -3.79758e-11 2.51192e-14)
(8.87395e-06 -5.39693e-09 3.41676e-12)
(-4.09723e-19 4.65335e-20 1.46059e-34)
(1.41303e-05 -5.39693e-09 3.41676e-12)
(0.000133249 0.000944408 3.41676e-12)
(2.62114e-21 1.41367e-18 -2.69517e-19)
(1.83992e-20 4.17259e-19 -1.84409e-19)
(3.26111e-06 -5.39693e-09 3.41676e-12)
(4.52629e-20 -4.81516e-19 2.27008e-35)
(2.16428e-19 -6.42441e-20 -2.91526e-19)
(2.91364e-05 -0.00059085 0.000511397)
(2.91364e-05 -0.00059085 0.000603889)
(8.46274e-05 -0.00116887 5.40639e-10)
(-2.62114e-21 -8.53167e-19 -3.42723e-19)
(5.29853e-05 -0.000342431 5.40639e-10)
(1.36335e-05 -2.92149e-06 -2.24214e-09)
(4.62438e-06 1.06215e-05 -2.0633e-09)
(4.24017e-06 1.76818e-05 -2.0633e-09)
(1.41742e-05 2.75439e-06 2.74416e-08)
(-1.32731e-07 2.52556e-07 -6.87553e-07)
(5.03421e-07 1.16162e-08 -1.05566e-12)
(4.94944e-07 9.9911e-08 2.08132e-12)
(3.52278e-05 -1.42327e-05 -1.44796e-11)
(4.00378e-05 -1.3468e-05 -3.49154e-08)
(-2.33406e-11 5.60142e-12 6.92294e-13)
(3.06649e-10 -2.75288e-11 3.93884e-07)
(-1.62607e-19 -9.43429e-19 0)
(-4.85351e-11 -1.0444e-11 -1.8842e-08)
(3.71229e-21 3.32645e-20 1.06307e-19)
(0.000477492 1.70028e-13 9.69079e-13)
(9.58879e-06 -2.68692e-06 3.84211e-12)
(4.74556e-06 -0.000179166 2.92235e-07)
(-6.20038e-05 1.70028e-13 -7.12601e-07)
(1.19756e-05 3.00254e-06 1.62659e-07)
(-6.20038e-05 1.70028e-13 -7.0848e-07)
(-1.06144e-09 2.86865e-07 4.75934e-07)
(-5.55764e-07 9.32911e-08 9.6365e-11)
(-0.00247543 -1.39537e-08 6.03278e-07)
(4.74556e-06 -0.000179166 -2.44215e-07)
(2.90344e-07 -1.24328e-06 -7.64306e-07)
(8.5015e-06 -4.27134e-05 -5.92766e-12)
(-0.0012794 -0.000115979 6.03278e-07)
(-2.63343e-17 1.42013e-18 9.42601e-18)
(-0.00129053 -1.39537e-08 1.54773e-06)
(-7.10563e-07 -1.07039e-05 -5.92766e-12)
(0.00140695 2.03344e-05 9.22537e-08)
(-0.00128424 6.55663e-05 6.03278e-07)
(4.88187e-06 7.75388e-06 -1.62662e-07)
(0.00139589 -9.48451e-05 9.22537e-08)
(4.49991e-06 -1.36885e-06 1.38183e-07)
(0.00022951 -0.000298639 -2.21716e-07)
(-0.000985286 -1.32909e-12 -2.54728e-05)
(0.00146215 0.000595371 -0.000722977)
(0.000610713 -0.000248236 -0.000332233)
(0.000264285 -2.28736e-07 -7.72498e-06)
(1.66183e-05 -6.21554e-07 -5.71666e-11)
(1.60643e-05 6.32055e-06 -3.03519e-11)
(-0.000977904 -7.6886e-05 -0.000280781)
(0.000286606 0.000232282 -7.76235e-05)
(-0.000344333 -1.32909e-12 -0.000280781)
(-3.82859e-07 2.92933e-08 -1.11756e-06)
(3.56642e-08 3.76039e-07 4.5642e-12)
(3.89976e-08 -4.08642e-07 5.423e-08)
)


// ************************************************************************* //
