/*--------------------------------*- C++ -*----------------------------------*\
| =========                 |                                                 |
| \\      /  F ield         | OpenFOAM: The Open Source CFD Toolbox           |
|  \\    /   O peration     | Version:  plus.master.MPPICInterFoam            |
|   \\  /    A nd           | Web:      www.OpenFOAM.com                      |
|    \\/     M anipulation  |                                                 |
\*---------------------------------------------------------------------------*/
FoamFile
{
    version     2.0;
    format      ascii;
    class       surfaceScalarField;
    location    "5.4";
    object      alphaPhi;
}
// * * * * * * * * * * * * * * * * * * * * * * * * * * * * * * * * * * * * * //

dimensions      [0 3 -1 0 0 0 0];

internalField   nonuniform List<scalar> 
34319
(
5.0906e-07
7.34202e-07
5.88928e-06
-5.37021e-07
-6.812e-07
3.32036e-07
9.79598e-07
6.64961e-06
-9.04905e-07
6.38961e-08
1.06378e-06
7.14084e-06
-1.03891e-06
-1.88149e-07
1.02314e-06
7.24204e-06
-1.05201e-06
-4.22323e-07
9.81414e-07
7.04517e-06
-1.00494e-06
-5.59488e-07
9.08765e-07
6.63112e-06
-8.64193e-07
6.70524e-07
5.87604e-06
-5.49136e-07
-6.4767e-07
7.11295e-07
6.25806e-07
6.67327e-06
-7.46466e-07
4.13258e-07
7.51536e-07
6.75329e-06
3.37989e-08
7.57994e-07
7.78189e-06
-2.19403e-07
6.16864e-07
8.21053e-06
-5.19973e-07
6.40828e-07
7.80146e-06
-7.95659e-07
6.33734e-07
6.39555e-06
5.38774e-07
6.62769e-06
-7.57227e-07
8.06556e-07
3.83393e-07
7.15213e-06
-9.14038e-07
4.47415e-07
4.11129e-07
7.74326e-06
-6.87411e-08
2.23028e-07
6.18329e-06
-1.76634e-07
2.03265e-07
6.84553e-06
-5.57182e-07
1.86699e-07
6.56153e-06
-8.75552e-07
3.283e-07
7.81727e-06
3.06545e-07
7.07509e-06
-8.95457e-07
8.47771e-07
3.95342e-08
7.36457e-06
-9.97013e-07
4.06838e-07
1.20911e-07
8.50278e-06
2.73511e-09
-4.16498e-09
7.18547e-06
-1.32534e-07
-4.94746e-08
3.81297e-06
-4.94183e-07
4.48687e-08
5.94593e-06
-9.11458e-07
1.06883e-07
8.38955e-06
4.14218e-08
7.17965e-06
-9.46061e-07
8.95545e-07
-2.98318e-07
6.91047e-06
-9.85138e-07
4.0684e-07
-3.97957e-07
8.58458e-06
7.93632e-09
-3.99524e-07
8.52695e-06
-2.48793e-07
-3.84684e-07
8.35247e-06
-6.32737e-07
-3.3764e-07
8.26248e-06
-9.5985e-07
-3.28498e-07
8.27325e-06
-2.36779e-07
7.05795e-06
-9.45429e-07
8.08838e-07
-5.00447e-07
6.70296e-06
-8.40242e-07
4.50588e-07
-7.30523e-07
6.6205e-06
-4.38574e-09
-8.28798e-07
8.3867e-06
-2.4891e-07
-7.88374e-07
8.48511e-06
-6.38963e-07
-7.55627e-07
8.2672e-06
-8.82613e-07
-6.43391e-07
6.69624e-06
-4.31459e-07
6.62116e-06
-8.34115e-07
5.83907e-07
5.94369e-06
-6.07249e-07
-5.21849e-07
3.76915e-07
6.71016e-06
-7.41756e-07
5.40237e-08
7.04832e-06
-8.74661e-07
-2.43839e-07
7.44414e-06
-8.83959e-07
-5.11736e-07
7.02658e-06
-8.2177e-07
-6.4957e-07
6.63938e-06
-6.76259e-07
5.88762e-06
-6.2725e-07
-4.76508e-07
7.58484e-07
9.47855e-07
5.7027e-06
-7.05834e-07
-8.12916e-07
5.35509e-07
1.32197e-06
6.51571e-06
-1.1921e-06
1.26279e-07
1.47159e-06
6.76629e-06
-1.45782e-06
-2.63663e-07
1.4805e-06
6.82596e-06
-1.52476e-06
-6.31621e-07
1.39767e-06
6.68175e-06
-1.43309e-06
-8.02704e-07
1.24433e-06
6.50536e-06
-1.16487e-06
8.93328e-07
5.68339e-06
-7.16461e-07
-7.98403e-07
1.08702e-06
8.04777e-07
6.52395e-06
-1.06452e-06
6.82287e-07
9.88713e-07
5.11916e-06
1.62981e-07
8.11961e-07
6.96173e-06
-4.06308e-07
8.4964e-07
7.24611e-06
-7.89873e-07
8.21085e-07
6.59771e-06
-1.14947e-06
8.90952e-07
4.64763e-06
7.31086e-07
6.52691e-06
-1.06956e-06
1.15739e-06
4.04495e-07
6.60316e-06
-1.37473e-06
4.9844e-07
5.4492e-07
6.59796e-06
9.43889e-08
2.9043e-07
3.41161e-06
-2.88724e-07
2.47677e-07
7.24413e-06
-7.28843e-07
3.18701e-07
4.61077e-06
-1.31328e-06
4.9752e-07
6.58726e-06
3.59527e-07
6.78981e-06
-1.3277e-06
1.23511e-06
-6.46449e-08
5.30312e-06
-1.57246e-06
6.61881e-07
-1.67258e-07
7.60448e-06
7.9211e-08
-1.32256e-07
7.76582e-06
-2.21525e-07
-1.56365e-07
4.08762e-06
-8.29831e-07
-6.37196e-08
6.70337e-06
-1.38996e-06
-9.32355e-08
7.97188e-06
-3.89462e-08
6.50257e-06
-1.43575e-06
1.12808e-06
-5.35901e-07
6.30722e-06
-1.4816e-06
6.18939e-07
-5.40653e-07
3.09337e-06
7.49863e-08
-5.79061e-07
8.18307e-06
-2.67476e-07
-5.12948e-07
8.87127e-06
-8.34965e-07
-5.2575e-07
7.55734e-06
-1.39344e-06
-5.58305e-07
4.35674e-06
-4.66024e-07
6.92385e-06
-1.40211e-06
1.11434e-06
-7.56828e-07
6.52271e-06
-1.15263e-06
6.67224e-07
-1.03303e-06
4.89737e-06
1.9763e-07
-1.16204e-06
4.68702e-06
-4.10579e-07
-1.195e-06
7.6401e-06
-8.74334e-07
-1.11837e-06
4.51498e-06
-1.23317e-06
-1.00621e-06
5.58048e-06
-6.86356e-07
6.55554e-06
-1.13553e-06
8.19044e-07
5.81005e-06
-7.57945e-07
-6.84889e-07
5.79398e-07
6.56125e-06
-1.04861e-06
1.28579e-07
6.58309e-06
-1.3244e-06
-2.96516e-07
6.31034e-06
-1.38889e-06
-7.10949e-07
6.66717e-06
-1.27816e-06
-8.7653e-07
6.55082e-06
-9.95307e-07
5.75456e-06
-7.75121e-07
-6.54599e-07
4.03453e-07
4.70121e-07
5.46824e-06
-3.09235e-07
-3.51846e-07
2.97666e-07
6.2564e-07
5.85657e-06
-5.8245e-07
8.74091e-08
5.74815e-07
5.45724e-06
-7.75573e-07
-1.3692e-07
6.0378e-07
5.51248e-06
-8.51201e-07
-3.34312e-07
5.80718e-07
5.53793e-06
-7.80903e-07
-4.2453e-07
6.54087e-07
5.86934e-06
-6.06985e-07
4.91563e-07
5.44587e-06
-3.25095e-07
-3.84514e-07
5.37465e-07
3.76145e-07
5.84068e-06
-5.1827e-07
3.1727e-07
3.19261e-07
3.4182e-06
1.37075e-07
3.47696e-07
3.26428e-06
-2.04463e-07
3.51614e-07
3.06324e-06
-3.49177e-07
1.97965e-07
3.15277e-06
-5.88919e-07
4.02011e-07
3.65478e-06
4.08374e-07
5.92035e-06
-5.29898e-07
3.86362e-07
1.64304e-07
4.86717e-06
-7.32755e-07
2.30113e-07
1.70203e-07
2.84828e-06
1.25145e-07
2.75244e-07
3.13696e-06
-1.17606e-07
4.53236e-07
3.01304e-06
-1.60224e-07
2.87725e-07
2.86482e-06
-5.22354e-07
2.24405e-07
3.1768e-06
2.15786e-07
5.63725e-06
-6.88828e-07
3.9145e-07
-1.52232e-08
3.64601e-06
-7.6263e-07
4.59144e-07
-1.45111e-07
3.18101e-06
1.82717e-07
3.40335e-08
5.30753e-06
-1.84038e-07
1.30281e-07
4.37306e-06
-3.5998e-07
-1.91639e-08
5.15529e-06
-5.46659e-07
-9.90616e-08
3.5334e-06
2.54367e-08
5.29867e-06
-7.99259e-07
3.58745e-07
-2.65555e-07
4.40239e-06
-7.55052e-07
4.65414e-07
-9.81989e-08
2.78581e-06
2.79885e-07
-3.02107e-07
5.3506e-06
-3.0217e-07
-2.9995e-07
9.71882e-06
-4.54888e-07
-2.61337e-07
4.26643e-06
-5.64877e-07
-1.4929e-07
2.56388e-06
-2.62474e-07
5.51351e-06
-7.92451e-07
4.61285e-07
-3.57419e-07
5.61681e-06
-5.65168e-07
1.56699e-07
-3.8622e-07
2.86997e-06
1.18354e-07
-3.20382e-07
2.85732e-06
-1.14852e-07
-4.15477e-07
2.96495e-06
-2.02046e-07
-3.33442e-07
2.66655e-06
-5.73742e-07
-4.56854e-07
3.55474e-06
-3.5116e-07
5.9042e-06
-5.6684e-07
4.23751e-07
5.59716e-06
-3.2862e-07
-2.75369e-07
3.30413e-07
5.66956e-06
-4.5995e-07
9.49674e-08
4.7269e-06
-6.77076e-07
-1.24913e-07
4.24976e-06
-6.92904e-07
-3.53444e-07
4.89819e-06
-6.74335e-07
-4.37162e-07
5.86908e-06
-4.7033e-07
5.56966e-06
-3.41365e-07
-2.7928e-07
-2.8286e-07
-3.32839e-07
5.34571e-06
3.58741e-07
3.73878e-07
-1.2566e-07
-2.42785e-07
5.48413e-06
4.75279e-07
-2.14479e-08
-1.64429e-07
4.94606e-06
5.31917e-07
5.35237e-08
-1.39898e-07
4.99592e-06
5.3058e-07
1.73269e-07
-1.51733e-07
5.08026e-06
5.15841e-07
3.08718e-07
-2.24676e-07
5.54194e-06
4.31276e-07
-2.68516e-07
5.34528e-06
3.52037e-07
3.28094e-07
-2.15294e-07
-1.70517e-07
5.45364e-06
4.68051e-07
-1.16502e-08
-3.3254e-08
3.16069e-06
7.43106e-09
2.64975e-08
2.44443e-06
-9.86242e-10
2.05853e-08
2.62283e-06
3.9244e-08
3.32088e-08
2.59412e-06
2.76507e-07
-6.98674e-09
3.51291e-06
-1.30632e-07
5.58475e-06
4.75244e-07
-1.26606e-07
-1.64497e-08
4.34282e-06
5.06488e-07
3.51584e-08
1.07069e-08
2.54043e-06
3.44493e-08
1.02467e-07
2.82517e-06
-1.03518e-08
2.77249e-07
3.06819e-06
-1.62923e-09
1.07989e-07
3.01714e-06
2.06795e-07
3.52338e-08
2.60355e-06
7.82178e-09
5.13398e-06
5.6975e-07
-1.37661e-08
6.09735e-08
3.59115e-06
3.70445e-07
7.53861e-08
4.4191e-08
3.00477e-06
1.09718e-07
9.54982e-08
3.41685e-06
-4.16407e-08
3.62716e-07
3.6257e-06
-6.41788e-09
6.13904e-08
3.28826e-06
1.74409e-07
4.77413e-08
2.63444e-06
9.89944e-08
4.9115e-06
5.59042e-07
-1.91578e-08
1.45162e-07
3.97097e-06
4.12768e-07
1.12761e-07
4.64722e-08
2.74102e-06
1.72265e-07
2.82518e-08
3.33549e-06
-4.98148e-08
-6.11307e-09
4.15183e-06
-8.16267e-09
6.07552e-08
3.28986e-06
1.23965e-07
5.70731e-08
2.69267e-06
1.53942e-07
4.81909e-06
5.02887e-07
-1.47426e-07
3.24376e-07
5.17331e-06
4.50813e-07
1.36342e-08
2.17932e-07
2.62655e-06
1.81662e-08
1.2033e-07
2.77594e-06
3.20079e-08
9.95376e-08
2.91048e-06
4.30358e-08
1.435e-07
2.74521e-06
2.26319e-07
2.34122e-07
3.05156e-06
3.00071e-07
5.49059e-06
4.56356e-07
-2.73157e-07
5.44339e-06
3.56118e-07
3.84051e-07
-8.75102e-08
5.22733e-06
5.23357e-07
3.45993e-09
4.13333e-06
5.22784e-07
4.79375e-08
3.82117e-06
4.48533e-07
1.61741e-07
4.25821e-06
5.20489e-07
3.20845e-07
5.45539e-06
4.80367e-07
5.45877e-06
3.577e-07
3.63968e-07
-7.2325e-07
-8.35422e-07
5.33187e-06
7.70137e-07
8.15053e-07
-4.08539e-07
-9.13002e-07
5.55604e-06
1.12013e-06
-9.42499e-08
-7.15045e-07
5.23232e-06
1.35776e-06
1.88151e-07
-7.00609e-07
5.28838e-06
1.42038e-06
5.10478e-07
-7.47353e-07
5.39848e-06
1.32934e-06
7.58861e-07
-9.2568e-07
5.63966e-06
1.07161e-06
-7.73058e-07
5.35688e-06
7.58389e-07
7.85753e-07
-7.99139e-07
-5.44533e-07
5.52263e-06
1.06705e-06
-2.58666e-07
-3.13259e-07
3.86554e-06
-4.27919e-08
-2.21913e-07
2.55768e-06
9.9688e-08
-1.94755e-07
2.69782e-06
3.72292e-07
-1.94368e-07
2.76699e-06
9.39408e-07
-3.60473e-07
4.35938e-06
-5.1726e-07
5.63764e-06
1.07004e-06
-5.20445e-07
-1.76467e-07
4.88917e-06
1.31815e-06
-1.55039e-07
-9.42214e-08
2.46426e-06
-2.05119e-08
-5.26774e-08
2.79593e-06
8.72025e-08
-2.68006e-08
2.98928e-06
2.14402e-07
-4.60147e-08
2.72016e-06
7.80564e-07
-9.32199e-08
2.85287e-06
-1.83131e-07
5.37737e-06
1.34457e-06
-3.68842e-07
8.38415e-08
4.61592e-06
1.27098e-06
-1.16232e-07
6.08258e-08
2.56114e-06
1.10312e-08
6.50945e-08
3.28255e-06
1.07076e-07
7.20731e-08
3.25731e-06
2.3152e-07
6.38066e-08
3.04898e-06
7.72968e-07
6.42211e-08
2.84657e-06
1.02167e-07
5.26618e-06
1.43743e-06
-3.66364e-07
4.01558e-07
4.67997e-06
1.29815e-06
-1.77241e-07
2.10194e-07
2.37725e-06
-2.4778e-08
2.6807e-07
2.98539e-06
1.28648e-07
3.67484e-07
3.27378e-06
2.64581e-07
2.36424e-07
2.97194e-06
6.46514e-07
2.56891e-07
2.63366e-06
3.86337e-07
5.04236e-06
1.36178e-06
-7.11411e-07
7.58065e-07
5.37065e-06
1.13103e-06
-1.98028e-07
7.39027e-07
3.38185e-06
-3.96504e-08
4.42976e-07
2.47048e-06
1.10955e-07
4.18086e-07
2.68207e-06
2.61645e-07
4.23353e-07
2.4304e-06
8.45687e-07
7.57844e-07
3.53625e-06
7.23756e-07
5.51154e-06
1.12228e-06
-7.82289e-07
5.40601e-06
8.20343e-07
7.90656e-07
-4.10896e-07
5.38833e-06
1.14731e-06
-7.90892e-08
4.5397e-06
1.34186e-06
1.6713e-07
4.26213e-06
1.29691e-06
5.11432e-07
4.62356e-06
1.32442e-06
8.27607e-07
5.4775e-06
1.09083e-06
5.43999e-06
8.10051e-07
7.79282e-07
-7.5948e-07
-8.43493e-07
8.1591e-07
8.50699e-07
5.2881e-06
-5.19499e-07
-1.15549e-06
1.12277e-06
5.79367e-06
-1.45423e-07
-1.1935e-06
1.38926e-06
6.04847e-06
2.33434e-07
-1.20106e-06
1.47771e-06
6.15568e-06
5.67484e-07
-1.24554e-06
1.36629e-06
6.08416e-06
7.44101e-07
-1.12035e-06
1.1087e-06
5.802e-06
-8.34633e-07
7.78808e-07
8.72662e-07
5.31041e-06
-1.02355e-06
-6.53611e-07
1.06767e-06
5.80105e-06
-4.84599e-07
-6.29231e-07
5.69977e-06
-8.03046e-08
-3.77228e-07
4.44536e-06
2.08321e-07
-3.18048e-07
4.33368e-06
6.53324e-07
-3.83956e-07
4.84011e-06
1.05822e-06
-6.78367e-07
5.80937e-06
-6.44014e-07
1.04496e-06
5.77785e-06
-1.04183e-06
-2.84778e-07
1.35361e-06
6.0676e-06
-2.72463e-07
-2.17071e-07
4.2597e-06
-2.19548e-08
-1.70883e-07
2.47814e-06
1.44621e-07
-1.5108e-07
2.6546e-06
3.8477e-07
-1.53711e-07
2.43664e-06
1.23389e-06
-2.5291e-07
4.86889e-06
-3.00364e-07
1.33214e-06
6.02194e-06
-1.02372e-06
8.26151e-08
1.48356e-06
6.18223e-06
-2.24451e-07
7.20723e-08
4.1448e-06
3.59543e-08
5.89474e-08
2.77617e-06
1.62581e-07
4.62935e-08
2.93689e-06
3.51345e-07
3.08213e-08
2.67371e-06
1.26556e-06
5.23106e-08
4.59833e-06
8.41719e-08
1.47044e-06
6.08936e-06
-1.02592e-06
4.69418e-07
1.42608e-06
6.07108e-06
-2.86909e-07
4.37796e-07
3.97953e-06
-1.95394e-08
2.9176e-07
2.62215e-06
1.44926e-07
2.49239e-07
2.90293e-06
3.39693e-07
2.48487e-07
2.52624e-06
1.20268e-06
4.34558e-07
4.59965e-06
4.59844e-07
1.39737e-06
6.00124e-06
-1.10923e-06
7.3108e-07
1.15674e-06
5.85465e-06
-4.98181e-07
1.02647e-06
5.57959e-06
-7.89172e-08
9.50118e-07
3.66956e-06
1.63558e-07
9.1097e-07
3.26768e-06
6.07855e-07
9.68381e-07
3.94297e-06
1.13143e-06
9.71974e-07
5.516e-06
7.40202e-07
1.13069e-06
5.84689e-06
-8.42197e-07
8.79112e-07
7.8135e-07
5.35904e-06
-5.74837e-07
1.09455e-06
5.8583e-06
-1.56428e-07
1.41714e-06
5.95188e-06
2.2271e-07
1.50826e-06
5.84418e-06
6.14228e-07
1.38523e-06
5.96632e-06
8.25179e-07
1.0813e-06
5.84293e-06
8.39585e-07
8.17837e-07
5.37328e-06
-5.65927e-07
1.27966e-07
3.17958e-06
-4.50176e-08
-5.34978e-07
1.05134e-07
3.37986e-06
-4.04167e-08
-4.74273e-07
8.46577e-08
3.48943e-06
-3.55747e-08
-3.96509e-07
6.7286e-08
3.53531e-06
-3.07607e-08
-3.0885e-07
5.26584e-08
3.53157e-06
-2.61726e-08
-2.14818e-07
4.0427e-08
3.47843e-06
-2.1882e-08
-1.13975e-07
2.91806e-08
3.34399e-06
-1.71882e-08
1.61173e-08
2.95085e-06
-1.04178e-08
-7.50968e-07
1.59563e-07
4.4077e-06
-6.78591e-07
1.27706e-07
4.44362e-06
-5.76048e-07
1.04786e-07
4.4084e-06
-4.62992e-07
8.62172e-08
4.32814e-06
-3.48258e-07
6.98958e-08
4.21452e-06
-2.35059e-07
5.60225e-08
4.06378e-06
-1.2169e-07
4.3287e-08
3.8354e-06
2.80954e-08
3.32076e-06
-8.91962e-07
1.43589e-07
5.31687e-06
-8.05666e-07
1.17079e-07
5.22819e-06
-6.77271e-07
9.79392e-08
5.07595e-06
-5.34995e-07
8.29879e-08
4.8933e-06
-3.9412e-07
7.03197e-08
4.69243e-06
-2.59914e-07
6.00413e-08
4.46634e-06
-1.30942e-07
5.09342e-08
4.16777e-06
3.9553e-08
3.5645e-06
-9.48679e-07
1.01329e-07
5.6576e-06
-8.60896e-07
8.78733e-08
5.52068e-06
-7.236e-07
7.49182e-08
5.32233e-06
-5.70272e-07
6.42979e-08
5.09918e-06
-4.17123e-07
5.76892e-08
4.8646e-06
-2.72605e-07
5.36534e-08
4.60998e-06
-1.35604e-07
5.08375e-08
4.28575e-06
4.63793e-08
3.65107e-06
-9.31032e-07
5.39095e-08
5.31575e-06
-8.35071e-07
5.04899e-08
5.22823e-06
-6.99026e-07
4.60695e-08
5.0755e-06
-5.52108e-07
4.309e-08
4.89244e-06
-4.06662e-07
4.3008e-08
4.69123e-06
-2.68193e-07
4.43418e-08
4.46518e-06
-1.34916e-07
4.61992e-08
4.16715e-06
4.65471e-08
3.56546e-06
-8.05134e-07
3.33209e-08
4.40783e-06
-7.169e-07
3.09912e-08
4.44407e-06
-6.03434e-07
3.21412e-08
4.40865e-06
-4.8265e-07
3.39927e-08
4.32822e-06
-3.62132e-07
3.63237e-08
4.21476e-06
-2.43626e-07
3.88323e-08
4.06465e-06
-1.25328e-07
4.14188e-08
3.83752e-06
4.25787e-08
3.3254e-06
-6.17937e-07
3.18062e-06
6.42756e-08
-5.70181e-07
3.38107e-06
5.34408e-08
-4.98271e-07
3.49135e-06
4.58903e-08
-4.12833e-07
3.53806e-06
4.05997e-08
-3.19709e-07
3.53547e-06
3.68237e-08
-2.21326e-07
3.4839e-06
3.4177e-08
-1.16718e-07
3.35162e-06
3.21425e-08
2.96159e-06
2.9625e-08
-6.79329e-07
1.22957e-07
3.05621e-06
-3.66027e-08
-6.03462e-07
9.17511e-08
3.24347e-06
-3.11007e-08
-5.13989e-07
7.02159e-08
3.35549e-06
-2.50902e-08
-4.20998e-07
5.39926e-08
3.40882e-06
-1.99354e-08
-3.24451e-07
3.83457e-08
3.41269e-06
-1.5475e-08
-2.2466e-07
2.60771e-08
3.36445e-06
-1.16882e-08
-1.18868e-07
1.59667e-08
3.22969e-06
-7.69912e-09
5.30089e-09
2.82887e-06
-2.61424e-09
-9.56077e-07
1.51977e-07
4.26455e-06
-8.01268e-07
1.10738e-07
4.26943e-06
-6.45747e-07
8.72682e-08
4.23569e-06
-5.02319e-07
7.09099e-08
4.16797e-06
-3.71198e-07
5.36647e-08
4.06813e-06
-2.486e-07
3.97917e-08
3.92746e-06
-1.27686e-07
2.81256e-08
3.70235e-06
1.56287e-08
3.18229e-06
-1.18332e-06
1.33901e-07
5.19107e-06
-9.83251e-07
1.01007e-07
5.03844e-06
-7.77613e-07
7.98743e-08
4.87783e-06
-5.87708e-07
6.52443e-08
4.70888e-06
-4.21081e-07
5.27681e-08
4.5261e-06
-2.73379e-07
4.34465e-08
4.3144e-06
-1.36286e-07
3.59467e-08
4.02241e-06
2.73057e-08
3.41628e-06
-1.28534e-06
8.87736e-08
5.55235e-06
-1.06803e-06
7.14095e-08
5.33287e-06
-8.41145e-07
5.60856e-08
5.11927e-06
-6.28922e-07
4.44212e-08
4.90929e-06
-4.45201e-07
4.01018e-08
4.69361e-06
-2.85114e-07
3.8711e-08
4.45476e-06
-1.40317e-07
3.84166e-08
4.13806e-06
3.68324e-08
3.50113e-06
-1.23782e-06
3.06294e-08
5.20951e-06
-1.0206e-06
3.05851e-08
5.05203e-06
-8.04202e-07
2.6767e-08
4.88822e-06
-6.06973e-07
2.257e-08
4.71679e-06
-4.34843e-07
2.63578e-08
4.53247e-06
-2.82425e-07
3.13034e-08
4.32002e-06
-1.41028e-07
3.59205e-08
4.02789e-06
3.86035e-08
3.42257e-06
-9.9859e-07
9.86447e-09
4.29155e-06
-8.29188e-07
1.3091e-08
4.29181e-06
-6.64422e-07
1.64438e-08
4.25398e-06
-5.15341e-07
1.86272e-08
4.18339e-06
-3.80515e-07
2.44128e-08
4.08189e-06
-2.54834e-07
2.96117e-08
3.94057e-06
-1.31048e-07
3.39118e-08
3.7157e-06
3.59449e-08
3.19713e-06
-7.13667e-07
3.08003e-06
4.90659e-08
-6.24325e-07
3.26583e-06
3.8866e-08
-5.26738e-07
3.37645e-06
3.33297e-08
-4.29068e-07
3.42881e-06
3.00959e-08
-3.29789e-07
3.43238e-06
2.82181e-08
-2.28138e-07
3.38461e-06
2.72398e-08
-1.20243e-07
3.25099e-06
2.66716e-08
2.85202e-06
2.57197e-08
-2.71582e-07
6.76043e-08
2.95774e-06
-2.28736e-08
-2.12534e-07
4.20191e-08
3.15917e-06
-1.69898e-08
-1.63823e-07
2.95639e-08
3.28973e-06
-1.17687e-08
-1.2562e-07
1.9125e-08
3.35891e-06
-7.14485e-09
-9.27407e-08
9.07855e-09
3.3745e-06
-3.59384e-09
-6.28498e-08
2.05939e-09
3.33322e-06
-5.36131e-10
-3.28166e-08
-3.4087e-09
3.20057e-06
2.70037e-09
-8.47157e-09
2.79814e-06
6.56912e-09
-4.01264e-07
9.24372e-08
4.11051e-06
-2.85207e-07
5.64103e-08
4.13866e-06
-1.97661e-07
4.24494e-08
4.13515e-06
-1.35165e-07
3.11346e-08
4.09363e-06
-9.05796e-08
1.91522e-08
4.0133e-06
-5.70181e-08
1.0724e-08
3.88503e-06
-2.75463e-08
3.61107e-09
3.66597e-06
-2.14792e-09
3.14838e-06
-5.13144e-07
9.93169e-08
5.00891e-06
-3.58184e-07
6.62769e-08
4.87393e-06
-2.35077e-07
4.78608e-08
4.74926e-06
-1.46372e-07
3.63866e-08
4.61473e-06
-8.68427e-08
2.7208e-08
4.45827e-06
-4.72384e-08
2.12525e-08
4.26418e-06
-2.04947e-08
1.68787e-08
3.98206e-06
1.22542e-08
3.38147e-06
-5.90506e-07
7.2522e-08
5.37023e-06
-4.07861e-07
5.54692e-08
5.16055e-06
-2.62948e-07
3.90166e-08
4.9829e-06
-1.57289e-07
3.01987e-08
4.80837e-06
-8.78862e-08
2.87545e-08
4.62292e-06
-4.40294e-08
2.89589e-08
4.40364e-06
-1.71327e-08
2.96016e-08
4.09818e-06
2.88872e-08
3.46758e-06
-5.76823e-07
2.33412e-08
5.04283e-06
-3.96796e-07
2.99325e-08
4.89783e-06
-2.59641e-07
2.33164e-08
4.7668e-06
-1.61621e-07
2.06232e-08
4.62844e-06
-9.62606e-08
2.58805e-08
4.47001e-06
-5.30042e-08
3.06949e-08
4.27499e-06
-2.28104e-08
3.45716e-08
3.99261e-06
3.59711e-08
3.39249e-06
-4.21893e-07
1.03415e-08
4.15931e-06
-2.95713e-07
1.85548e-08
4.17653e-06
-2.02321e-07
1.81495e-08
4.16551e-06
-1.36911e-07
1.96359e-08
4.11945e-06
-9.07459e-08
2.53791e-08
4.03669e-06
-5.65339e-08
2.97466e-08
3.90744e-06
-2.74989e-08
3.28533e-08
3.68842e-06
3.35608e-08
3.17208e-06
-2.74084e-07
2.99789e-06
2.51231e-08
-2.06786e-07
3.19586e-06
2.10945e-08
-1.55405e-07
3.32325e-06
1.97541e-08
-1.17347e-07
3.39046e-06
1.98545e-08
-8.56993e-08
3.4054e-06
2.07396e-08
-5.77483e-08
3.36455e-06
2.19303e-08
-2.9976e-08
3.23308e-06
2.30566e-08
2.83261e-06
2.35874e-08
3.84676e-07
-1.69077e-08
2.94846e-06
-6.92723e-09
3.8743e-07
-2.18962e-08
3.17874e-06
-7.4881e-10
3.63493e-07
-2.19907e-08
3.3314e-06
4.31761e-09
3.21907e-07
-2.48969e-08
3.41762e-06
7.76244e-09
2.64163e-07
-2.46213e-08
3.44653e-06
1.03786e-08
1.92768e-07
-2.37542e-08
3.41598e-06
1.26882e-08
1.0814e-07
-2.29039e-08
3.29399e-06
1.48403e-08
-2.16435e-08
2.91218e-06
1.66727e-08
5.21557e-07
-5.93947e-09
4.05301e-06
5.15539e-07
-1.67717e-08
4.13934e-06
4.74366e-07
-1.7141e-08
4.17159e-06
4.11069e-07
-2.22325e-08
4.15449e-06
3.30461e-07
-2.24751e-08
4.09192e-06
2.36097e-07
-2.17883e-08
3.97764e-06
1.28927e-07
-2.11802e-08
3.77201e-06
-2.0794e-08
3.27689e-06
6.50049e-07
2.72143e-08
4.89517e-06
6.45106e-07
9.31106e-09
4.85262e-06
5.95344e-07
3.88741e-09
4.778e-06
5.13572e-07
-1.29875e-09
4.67561e-06
4.10928e-07
-2.65343e-09
4.54151e-06
2.92186e-07
-2.90463e-09
4.36461e-06
1.578e-07
-2.93934e-09
4.09844e-06
-3.26274e-09
3.52202e-06
6.76987e-07
3.97058e-08
5.23925e-06
6.85576e-07
2.9139e-08
5.13187e-06
6.41738e-07
2.10604e-08
5.00948e-06
5.55572e-07
2.19435e-08
4.8702e-06
4.45391e-07
2.20726e-08
4.70912e-06
3.16392e-07
2.20355e-08
4.50834e-06
1.70133e-07
2.18873e-08
4.21988e-06
2.07449e-08
3.61413e-06
6.16404e-07
3.42505e-08
4.93388e-06
6.27329e-07
3.71994e-08
4.8791e-06
5.87704e-07
3.0655e-08
4.79717e-06
5.11214e-07
3.5813e-08
4.6915e-06
4.11029e-07
3.67217e-08
4.55589e-06
2.92767e-07
3.66871e-08
4.37862e-06
1.58314e-07
3.63011e-08
4.11273e-06
3.43083e-08
3.53697e-06
5.16687e-07
3.02773e-08
4.10277e-06
5.17936e-07
3.42356e-08
4.17828e-06
4.79782e-07
3.08745e-08
4.20371e-06
4.17907e-07
3.45185e-08
4.18313e-06
3.3782e-07
3.49133e-08
4.1192e-06
2.42503e-07
3.47316e-08
4.00507e-06
1.3261e-07
3.41254e-08
3.80057e-06
3.15039e-08
3.30719e-06
3.92163e-07
2.9898e-06
3.89336e-09
3.97866e-07
3.21694e-06
7.57326e-09
3.74307e-07
3.36718e-06
1.07831e-08
3.33034e-07
3.45246e-06
1.39744e-08
2.74584e-07
3.48184e-06
1.71401e-08
2.01274e-07
3.45291e-06
1.99444e-08
1.12951e-07
3.33334e-06
2.21815e-08
2.95412e-06
2.31738e-08
7.97954e-07
-9.38736e-08
2.98641e-06
1.61916e-08
7.93772e-07
-8.11247e-08
3.24257e-06
2.11104e-08
7.57764e-07
-7.4067e-08
3.41682e-06
2.42254e-08
6.90002e-07
-6.83749e-08
3.52776e-06
2.5861e-08
5.81508e-07
-5.94216e-08
3.58732e-06
2.71549e-08
4.27535e-07
-5.24351e-08
3.59442e-06
2.83067e-08
2.30301e-07
-4.70762e-08
3.50987e-06
2.91694e-08
-4.11835e-08
3.15551e-06
2.88496e-08
1.06819e-06
-1.03204e-07
4.06449e-06
1.01488e-06
-8.57951e-08
4.19754e-06
9.33189e-07
-7.8578e-08
4.25809e-06
8.25858e-07
-7.43323e-08
4.26809e-06
6.8476e-07
-6.39067e-08
4.23794e-06
5.01208e-07
-5.53967e-08
4.16467e-06
2.72623e-07
-4.88962e-08
4.003e-06
-4.22493e-08
3.55069e-06
1.33726e-06
-6.17124e-08
4.86085e-06
1.25736e-06
-5.12141e-08
4.89772e-06
1.13779e-06
-4.41069e-08
4.86321e-06
9.87572e-07
-3.96217e-08
4.79142e-06
8.07305e-07
-3.29031e-08
4.6914e-06
5.86669e-07
-2.7613e-08
4.55807e-06
3.18866e-07
-2.36723e-08
4.34128e-06
-2e-08
3.81853e-06
1.44802e-06
-1.12425e-08
5.17816e-06
1.36453e-06
-5.25721e-09
5.16949e-06
1.23242e-06
3.64977e-09
5.09425e-06
1.06275e-06
1.28808e-08
4.98915e-06
8.6345e-07
1.4178e-08
4.8617e-06
6.24538e-07
1.40199e-08
4.70569e-06
3.38473e-07
1.34261e-08
4.46896e-06
1.17015e-08
3.92108e-06
1.36095e-06
3.49882e-08
4.8885e-06
1.27774e-06
3.57105e-08
4.92147e-06
1.15492e-06
4.18137e-08
4.88232e-06
1.00101e-06
5.04883e-08
4.8082e-06
8.17069e-07
4.69868e-08
4.70724e-06
5.92622e-07
4.27954e-08
4.57403e-06
3.21508e-07
3.9005e-08
4.35813e-06
3.34532e-08
3.83641e-06
1.11148e-06
4.56854e-08
4.10301e-06
1.04784e-06
4.61739e-08
4.2319e-06
9.57691e-07
4.76756e-08
4.28847e-06
8.44496e-07
5.05149e-08
4.29642e-06
6.98955e-07
4.60711e-08
4.26586e-06
5.11111e-07
4.21729e-08
4.1936e-06
2.77571e-07
3.87964e-08
4.0341e-06
3.35035e-08
3.58414e-06
8.32552e-07
3.02147e-06
-8.29542e-09
8.17748e-07
3.27661e-06
1.63893e-09
7.74859e-07
3.44995e-06
8.24828e-09
7.03774e-07
3.56103e-06
1.32779e-08
5.9259e-07
3.62183e-06
1.7437e-08
4.35819e-07
3.63126e-06
2.07332e-08
2.34625e-07
3.54998e-06
2.31186e-08
3.19847e-06
2.37168e-08
9.13371e-07
-1.4092e-07
4.6298e-08
2.94674e-06
1.02265e-06
-1.18992e-07
4.83283e-08
3.20401e-06
1.1123e-06
-1.07416e-07
4.77161e-08
3.38634e-06
1.16828e-06
-9.38463e-08
4.70721e-08
3.51824e-06
1.16926e-06
-8.04142e-08
4.64876e-08
3.62011e-06
1.07488e-06
-6.80229e-08
4.62328e-08
3.71051e-06
7.79061e-07
-5.47464e-08
4.57319e-08
3.8146e-06
-3.64381e-08
4.36432e-08
3.92698e-06
1.1223e-06
-1.61978e-07
4.00883e-06
1.18907e-06
-1.29983e-07
4.14214e-06
1.2472e-06
-1.18001e-07
4.21064e-06
1.28175e-06
-1.0218e-07
4.24185e-06
1.26936e-06
-8.63894e-08
4.25642e-06
1.16423e-06
-7.21458e-08
4.27408e-06
8.47087e-07
-5.79759e-08
4.32325e-06
-3.96089e-08
4.40083e-06
1.35522e-06
-1.13877e-07
4.78947e-06
1.38693e-06
-8.93457e-08
4.825e-06
1.40887e-06
-7.64896e-08
4.79966e-06
1.41412e-06
-6.42842e-08
4.74849e-06
1.37959e-06
-5.37996e-08
4.69359e-06
1.25547e-06
-4.49481e-08
4.65504e-06
9.12057e-07
-3.67089e-08
4.66338e-06
-2.65679e-08
4.71744e-06
1.47196e-06
-3.16977e-08
5.0945e-06
1.48569e-06
-2.19442e-08
5.08841e-06
1.4878e-06
-8.85786e-09
5.02457e-06
1.47557e-06
-3.03219e-09
4.94019e-06
1.42738e-06
-2.28471e-09
4.85821e-06
1.29192e-06
-2.87545e-09
4.79853e-06
9.3619e-07
-4.4205e-09
4.79221e-06
-7.6306e-09
4.83832e-06
1.39924e-06
4.10162e-08
4.81413e-06
1.41554e-06
3.68284e-08
4.84628e-06
1.42676e-06
4.4712e-08
4.81786e-06
1.42398e-06
4.36698e-08
4.76453e-06
1.38382e-06
3.64392e-08
4.70881e-06
1.25601e-06
2.84498e-08
4.67043e-06
9.10937e-07
1.9252e-08
4.67966e-06
5.63015e-09
4.7343e-06
1.17567e-06
5.70934e-08
4.04211e-06
1.22053e-06
5.25699e-08
4.17178e-06
1.26381e-06
5.34749e-08
4.23686e-06
1.28904e-06
4.89237e-08
4.26582e-06
1.2708e-06
4.08935e-08
4.27959e-06
1.16269e-06
3.2548e-08
4.29763e-06
8.45484e-07
2.25391e-08
4.3481e-06
8.96297e-09
4.42622e-06
9.45119e-07
-2.11149e-09
2.97544e-06
1.03526e-06
7.91813e-09
3.23158e-06
1.11309e-06
1.36538e-08
3.41258e-06
1.16214e-06
1.76119e-08
3.54364e-06
1.15917e-06
2.06874e-08
3.64526e-06
1.06394e-06
2.31628e-08
3.73601e-06
7.70447e-07
2.51742e-08
3.84079e-06
2.57929e-08
3.95194e-06
-5.99382e-07
-1.03256e-08
3.18835e-06
3.99942e-08
-5.48635e-07
-1.32153e-08
3.36665e-06
3.49304e-08
-4.73391e-07
-1.32228e-08
3.45302e-06
2.8697e-08
-3.86939e-07
-1.26401e-08
3.47754e-06
2.32891e-08
-2.95368e-07
-1.37305e-08
3.45602e-06
1.86645e-08
-2.01899e-07
-1.48311e-08
3.38967e-06
1.4397e-08
-1.05705e-07
-1.53561e-08
3.2472e-06
9.88562e-09
-1.36348e-08
2.85471e-06
3.48376e-09
-8.18215e-07
-4.02634e-08
4.44808e-06
-7.25425e-07
-3.96879e-08
4.44461e-06
-6.02919e-07
-3.12123e-08
4.36914e-06
-4.74006e-07
-2.30544e-08
4.25334e-06
-3.48077e-07
-2.07e-08
4.1111e-06
-2.2913e-07
-2.01052e-08
3.9394e-06
-1.15778e-07
-1.97868e-08
3.69808e-06
-1.77476e-08
3.18285e-06
-9.88402e-07
-1.07986e-07
5.39273e-06
-8.91935e-07
-8.90051e-08
5.24821e-06
-7.44021e-07
-6.92264e-08
5.03992e-06
-5.79652e-07
-5.31123e-08
4.80868e-06
-4.19535e-07
-4.33208e-08
4.56951e-06
-2.71092e-07
-3.67756e-08
4.31557e-06
-1.33693e-07
-3.1457e-08
3.99956e-06
-2.46216e-08
3.39377e-06
-1.02356e-06
-1.69241e-07
5.73727e-06
-9.41102e-07
-1.2925e-07
5.54298e-06
-7.93283e-07
-1.01751e-07
5.28357e-06
-6.19591e-07
-8.29591e-08
5.00783e-06
-4.47637e-07
-6.74087e-08
4.73142e-06
-2.88085e-07
-5.45878e-08
4.44632e-06
-1.41023e-07
-4.33201e-08
4.10241e-06
-3.0368e-08
3.4631e-06
-9.35103e-07
-1.89654e-07
5.36704e-06
-8.54631e-07
-1.43058e-07
5.2275e-06
-7.20191e-07
-1.12154e-07
5.02361e-06
-5.66437e-07
-9.11489e-08
4.79507e-06
-4.13644e-07
-7.29417e-08
4.55693e-06
-2.69659e-07
-5.76785e-08
4.30294e-06
-1.34285e-07
-4.42146e-08
3.98591e-06
-2.94014e-08
3.37802e-06
-7.58445e-07
-1.49035e-07
4.41613e-06
-6.91597e-07
-1.1637e-07
4.41696e-06
-5.87539e-07
-8.99349e-08
4.34534e-06
-4.70592e-07
-7.11896e-08
4.23153e-06
-3.52004e-07
-5.60242e-08
4.08955e-06
-2.35931e-07
-4.422e-08
3.91667e-06
-1.21503e-07
-3.42504e-08
3.67297e-06
-2.42336e-08
3.15426e-06
-5.61323e-07
3.16409e-06
-5.95744e-08
-5.32725e-07
3.34247e-06
-4.71599e-08
-4.71339e-07
3.4293e-06
-3.86045e-08
-3.92047e-07
3.45332e-06
-3.30677e-08
-3.03105e-07
3.43037e-06
-2.91584e-08
-2.09182e-07
3.36156e-06
-2.64087e-08
-1.10288e-07
3.21592e-06
-2.429e-08
2.82003e-06
-2.1993e-08
-6.90429e-07
1.04261e-08
3.08099e-06
2.9929e-08
-5.91747e-07
1.96516e-09
3.24281e-06
2.32295e-08
-4.88803e-07
3.33593e-09
3.33073e-06
1.67463e-08
-3.90916e-07
5.42101e-09
3.36372e-06
1.1431e-08
-2.95074e-07
1.38914e-09
3.35234e-06
7.05069e-09
-2.00732e-07
-1.55266e-09
3.29429e-06
2.85139e-09
-1.04378e-07
-3.06438e-09
3.15515e-06
-1.38979e-09
-1.85723e-09
2.75861e-06
-6.73379e-09
-1.00992e-06
-1.22491e-08
4.32808e-06
-8.28243e-07
-1.59358e-08
4.28008e-06
-6.50657e-07
-7.5297e-09
4.20217e-06
-4.936e-07
1.71888e-09
4.10003e-06
-3.55462e-07
-1.03959e-09
3.97525e-06
-2.3224e-07
-4.13999e-09
3.81866e-06
-1.16652e-07
-6.31783e-09
3.58568e-06
-6.16377e-09
3.06971e-06
-1.3199e-06
-7.87663e-08
5.29841e-06
-1.08358e-06
-6.36375e-08
5.06019e-06
-8.42106e-07
-4.48292e-08
4.83631e-06
-6.23643e-07
-2.86121e-08
4.62024e-06
-4.36722e-07
-2.33316e-08
4.40422e-06
-2.76996e-07
-2.00469e-08
4.17132e-06
-1.35245e-07
-1.71313e-08
3.86819e-06
-1.28336e-08
3.2648e-06
-1.41376e-06
-1.60569e-07
5.66023e-06
-1.17087e-06
-1.08619e-07
5.34518e-06
-9.13038e-07
-8.2121e-08
5.06332e-06
-6.71761e-07
-6.55308e-08
4.80345e-06
-4.658e-07
-5.07615e-08
4.5529e-06
-2.91988e-07
-3.85629e-08
4.29126e-06
-1.4108e-07
-2.83358e-08
3.96195e-06
-1.73416e-08
3.32637e-06
-1.24374e-06
-1.74742e-07
5.25038e-06
-1.03326e-06
-1.20163e-07
5.02827e-06
-8.12207e-07
-9.17648e-08
4.81214e-06
-6.06487e-07
-7.66745e-08
4.60023e-06
-4.28348e-07
-5.81443e-08
4.38599e-06
-2.73977e-07
-4.28801e-08
4.15296e-06
-1.3511e-07
-3.02533e-08
3.84849e-06
-1.75403e-08
3.24293e-06
-9.60323e-07
-1.33328e-07
4.27126e-06
-8.03334e-07
-9.55812e-08
4.23519e-06
-6.42737e-07
-7.16516e-08
4.16455e-06
-4.95631e-07
-5.80067e-08
4.06606e-06
-3.63038e-07
-4.33255e-08
3.94234e-06
-2.41471e-07
-3.25198e-08
3.78453e-06
-1.23962e-07
-2.40636e-08
3.54889e-06
-1.65232e-08
3.02918e-06
-6.70848e-07
3.03709e-06
-4.17731e-08
-5.93074e-07
3.20159e-06
-3.18769e-08
-5.0103e-07
3.29163e-06
-2.65167e-08
-4.07339e-07
3.32538e-06
-2.35412e-08
-3.11471e-07
3.31295e-06
-2.15646e-08
-2.14578e-07
3.25242e-06
-2.03874e-08
-1.13188e-07
3.10976e-06
-1.95179e-08
2.70903e-06
-1.84097e-08
-2.51865e-07
-1.98487e-09
2.98773e-06
1.83518e-08
-1.77885e-07
-3.04096e-09
3.1638e-06
7.68293e-09
-1.23992e-07
1.3425e-09
3.27254e-06
3.28814e-09
-8.71068e-08
3.84767e-09
3.32477e-06
-1.36467e-09
-5.93111e-08
1.33479e-09
3.32884e-06
-5.55449e-09
-3.75783e-08
9.29141e-10
3.28148e-06
-9.91453e-09
-1.86123e-08
2.33849e-09
3.14784e-06
-1.39662e-08
5.91011e-09
2.75234e-06
-1.81637e-08
-4.13773e-07
-1.64473e-09
4.17612e-06
-2.76258e-07
-1.04232e-08
4.14875e-06
-1.77121e-07
-2.06073e-10
4.10438e-06
-1.08944e-07
2.33446e-09
4.0336e-06
-6.50483e-08
-1.3536e-09
3.93386e-06
-3.64632e-08
-3.85059e-09
3.79464e-06
-1.6187e-08
-4.16264e-09
3.57197e-06
-2.1757e-09
3.06131e-06
-6.2412e-07
-4.33349e-08
5.0962e-06
-4.17845e-07
-3.86047e-08
4.88237e-06
-2.60359e-07
-2.11472e-08
4.70005e-06
-1.49934e-07