/*--------------------------------*- C++ -*----------------------------------*\
| =========                 |                                                 |
| \\      /  F ield         | OpenFOAM: The Open Source CFD Toolbox           |
|  \\    /   O peration     | Version:  plus.master.MPPICInterFoam            |
|   \\  /    A nd           | Web:      www.OpenFOAM.com                      |
|    \\/     M anipulation  |                                                 |
\*---------------------------------------------------------------------------*/
FoamFile
{
    version     2.0;
    format      ascii;
    class       surfaceScalarField;
    location    "5.4";
    object      phi;
}
// * * * * * * * * * * * * * * * * * * * * * * * * * * * * * * * * * * * * * //

dimensions      [0 3 -1 0 0 0 0];

internalField   nonuniform List<scalar> 
34319
(
3.94205e-07
6.16609e-07
5.90265e-06
-4.34409e-07
-5.83407e-07
2.43632e-07
7.94247e-07
6.61362e-06
-7.49857e-07
3.24445e-08
8.7354e-07
7.11903e-06
-8.40658e-07
-1.58216e-07
8.22767e-07
7.31198e-06
-8.37051e-07
-3.28137e-07
7.9445e-07
7.11644e-06
-8.00318e-07
-4.38376e-07
7.14614e-07
6.60128e-06
-7.03089e-07
5.52729e-07
5.9003e-06
-4.45054e-07
-5.45956e-07
5.43141e-07
5.26049e-07
6.64028e-06
-5.86949e-07
3.11571e-07
6.54883e-07
7.60659e-06
-7.60295e-09
7.70716e-07
8.25136e-06
-1.8598e-07
6.24901e-07
8.44712e-06
-3.95163e-07
6.10019e-07
8.20963e-06
-5.91652e-07
5.18508e-07
7.58707e-06
4.46603e-07
6.59709e-06
-5.9362e-07
6.29616e-07
3.4257e-07
7.18357e-06
-7.05822e-07
4.17319e-07
3.78497e-07
8.30679e-06
-1.1426e-07
2.84165e-07
9.652e-06
-2.83553e-07
3.35768e-07
9.79625e-06
-4.80449e-07
3.26972e-07
9.29145e-06
-6.60898e-07
2.97144e-07
8.16387e-06
2.75592e-07
7.09054e-06
-6.879e-07
6.42449e-07
7.9142e-08
7.42465e-06
-7.65974e-07
3.52402e-07
1.49617e-07
8.51742e-06
-2.13178e-08
2.15525e-08
9.7107e-06
-2.37201e-07
-4.14997e-08
1.0661e-05
-4.22153e-07
1.14978e-07
9.71798e-06
-6.67263e-07
1.35024e-07
8.35082e-06
7.62642e-08
7.27468e-06
-7.23248e-07
7.01685e-07
-2.0299e-07
7.23522e-06
-7.72577e-07
2.94821e-07
-2.91605e-07
8.4779e-06
-2.74258e-08
-3.11293e-07
9.139e-06
-2.56649e-07
-2.94046e-07
9.48015e-06
-4.86266e-07
-2.18601e-07
9.03394e-06
-7.20298e-07
-1.92909e-07
8.15704e-06
-1.4119e-07
7.07655e-06
-7.37157e-07
6.28117e-07
-3.74609e-07
6.68065e-06
-6.73245e-07
3.25377e-07
-5.40389e-07
7.66255e-06
-8.38446e-09
-5.99407e-07
8.22257e-06
-2.19273e-07
-5.57899e-07
8.3411e-06
-4.9801e-07
-5.21738e-07
8.15081e-06
-6.7929e-07
-4.46209e-07
7.51237e-06
-3.0963e-07
6.58228e-06
-6.71903e-07
4.62406e-07
5.94655e-06
-5.02402e-07
-4.15395e-07
2.82505e-07
6.65538e-06
-5.75825e-07
2.82792e-08
7.14848e-06
-6.65275e-07
-2.09173e-07
7.30072e-06
-6.63263e-07
-4.11571e-07
7.10277e-06
-6.13774e-07
-5.27663e-07
6.59213e-06
-5.12163e-07
5.89662e-06
-5.25394e-07
-3.70362e-07
7.3949e-07
9.46272e-07
5.76383e-06
-7.14106e-07
-8.32813e-07
5.19284e-07
1.39722e-06
6.62437e-06
-1.18853e-06
1.268e-07
1.61959e-06
7.32208e-06
-1.42911e-06
-2.70738e-07
1.61677e-06
7.57933e-06
-1.48579e-06
-6.20716e-07
1.55858e-06
7.30897e-06
-1.40145e-06
-7.91805e-07
1.32934e-06
6.59721e-06
-1.15367e-06
8.82997e-07
5.75801e-06
-7.24947e-07
-8.07003e-07
1.13557e-06
8.2225e-07
6.68127e-06
-1.05314e-06
7.71382e-07
1.16407e-06
8.20421e-06
1.70099e-07
1.30622e-06
9.16626e-06
-3.95152e-07
1.10854e-06
9.51944e-06
-9.57298e-07
1.19983e-06
9.13026e-06
-1.22515e-06
1.05011e-06
8.13445e-06
7.15689e-07
6.59932e-06
-1.05983e-06
1.35042e-06
4.62523e-07
7.53416e-06
-1.34081e-06
8.18447e-07
5.71972e-07
9.4303e-06
1.52982e-07
4.19186e-07
1.12044e-05
-4.28407e-07
3.18281e-07
1.11688e-05
-1.08165e-06
3.55746e-07
1.07891e-05
-1.42832e-06
4.71922e-07
9.08927e-06
3.73437e-07
7.30133e-06
-1.29686e-06
1.38445e-06
-7.53787e-08
8.08013e-06
-1.50215e-06
6.75821e-07
-1.17312e-07
9.91475e-06
1.2645e-07
-1.25553e-07
1.08055e-05
-3.83811e-07
-1.59427e-07
1.165e-05
-9.48691e-07
-1.85851e-08
1.06587e-05
-1.46345e-06
-1.00409e-08
9.34824e-06
-3.25506e-08
7.60882e-06
-1.39114e-06
1.45473e-06
-5.33338e-07
7.66788e-06
-1.42972e-06
7.10129e-07
-7.43582e-07
9.84882e-06
9.36769e-08
-5.9909e-07
1.02299e-05
-3.25943e-07
-5.27251e-07
1.0268e-05
-9.61071e-07
-5.76659e-07
1.02272e-05
-1.52243e-06
-6.78876e-07
9.38629e-06
-4.37391e-07
7.31824e-06
-1.35994e-06
1.21926e-06
-7.42532e-07
6.81469e-06
-1.14298e-06
8.13637e-07
-1.13793e-06
8.46309e-06
1.43784e-07
-1.32763e-06
9.62115e-06
-4.06003e-07
-1.24509e-06
9.60876e-06
-1.053e-06
-1.27071e-06
9.49126e-06
-1.29465e-06
-1.04767e-06
8.12277e-06
-6.67569e-07
6.64899e-06
-1.13171e-06
8.07248e-07
5.86592e-06
-7.70759e-07
-6.96744e-07
5.74708e-07
6.79357e-06
-1.0441e-06
1.3276e-07
7.55361e-06
-1.29034e-06
-3.24817e-07
7.8584e-06
-1.34554e-06
-7.1655e-07
7.46749e-06
-1.24381e-06
-8.75362e-07
6.68962e-06
-9.85161e-07
5.80845e-06
-7.93193e-07
-6.61004e-07
5.69127e-07
6.6957e-07
5.53594e-06
-4.76534e-07
-5.34169e-07
4.4158e-07
1.12992e-06
6.45987e-06
-8.38458e-07
1.3742e-07
1.39703e-06
7.30713e-06
-1.07691e-06
-2.14671e-07
1.49261e-06
7.6047e-06
-1.16527e-06
-5.03116e-07
1.42367e-06
7.25749e-06
-1.08422e-06
-6.06546e-07
1.13981e-06
6.41367e-06
-8.5264e-07
6.74667e-07
5.52834e-06
-4.95003e-07
-5.55457e-07
9.70311e-07
6.07988e-07
6.52833e-06
-7.56483e-07
8.32899e-07
1.06076e-06
8.41084e-06
2.61927e-07
1.18026e-06
9.95397e-06
-4.13977e-07
1.23772e-06
1.04493e-05
-9.89862e-07
1.26149e-06
9.86689e-06
-1.03804e-06
1.10833e-06
8.21406e-06
5.84914e-07
6.42576e-06
-7.75315e-07
1.19349e-06
3.53583e-07
7.61498e-06
-1.01962e-06
8.58191e-07
5.41983e-07
1.0283e-05
3.34276e-07
7.80552e-07
1.21277e-05
-3.92917e-07
6.76355e-07
1.24577e-05
-1.07139e-06
7.07097e-07
1.20226e-05
-1.27654e-06
5.27551e-07
9.87472e-06
3.19347e-07
7.28221e-06
-9.91956e-07
1.46367e-06
-5.55001e-08
8.26375e-06
-1.23864e-06
1.09258e-06
-3.27978e-07
1.11545e-05
2.26429e-07
-1.93776e-08
1.24721e-05
-3.30662e-07
1.37871e-07
1.27462e-05
-1.07629e-06
-1.05278e-07
1.22175e-05
-1.36018e-06
-2.34499e-07
1.03944e-05
2.27349e-09
7.67624e-06
-1.11005e-06
1.40556e-06
-4.55839e-07
7.79462e-06
-1.13189e-06
1.04479e-06
-6.00123e-07
1.04815e-05
2.11988e-07
-8.32987e-07
1.18771e-05
-3.58418e-07
-6.67041e-07
1.16433e-05
-1.144e-06
-8.43033e-07
1.17495e-05
-1.44623e-06
-6.40117e-07
1.00937e-05
-4.00568e-07
7.36738e-06
-1.09353e-06
9.76246e-07
-5.34145e-07
6.72814e-06
-8.09614e-07
8.42368e-07
-8.51469e-07
8.84774e-06
2.96495e-07
-1.20704e-06
1.05407e-05
-4.47778e-07
-1.21287e-06
1.08978e-05
-9.38901e-07
-1.15504e-06
1.02942e-05
-1.04242e-06
-8.6773e-07
8.45323e-06
-5.15076e-07
6.54441e-06
-8.23541e-07
6.03531e-07
5.67072e-06
-4.99076e-07
-4.41921e-07
5.32559e-07
6.7226e-06
-7.10256e-07
1.47013e-07
7.72662e-06
-9.94808e-07
-2.36013e-07
8.12956e-06
-1.10092e-06
-5.69822e-07
7.6185e-06
-9.72412e-07
-6.36596e-07
6.60184e-06
-7.11934e-07
5.62497e-06
-5.22688e-07
-4.44458e-07
-8.72382e-08
-1.06968e-07
5.38014e-06
1.72905e-07
1.77113e-07
-1.27112e-08
-2.295e-09
6.20451e-06
1.83307e-07
4.14464e-09
1.20551e-07
6.99762e-06
1.72816e-07
6.20675e-09
1.65854e-07
7.28347e-06
1.53775e-07
4.2164e-08
1.25499e-07
6.93399e-06
1.61747e-07
1.01359e-07
4.23238e-08
6.16549e-06
1.46413e-07
-5.34368e-08
5.38471e-06
1.63854e-07
1.34628e-07
-4.63853e-09
-2.09731e-08
6.25513e-06
1.9198e-07
2.00265e-07
2.03182e-07
7.99954e-06
4.85022e-08
4.04258e-07
9.8214e-06
-1.01012e-07
4.72219e-07
1.02921e-05
-1.73932e-07
4.24763e-07
9.6397e-06
3.39533e-08
2.7763e-07
7.77056e-06
2.54359e-08
6.18689e-06
1.93319e-07
1.20564e-07
7.19082e-08
7.23215e-06
1.69898e-07
3.66675e-07
1.75568e-07
1.00633e-05
1.86194e-07
6.06368e-07
1.21047e-05
-1.86985e-07
6.95547e-07
1.26063e-05
-2.28369e-07
5.96343e-07
1.18916e-05
-9.78052e-09
2.61143e-07
9.67139e-06
9.75347e-08
6.98381e-06
2.16589e-07
4.24405e-07
1.07359e-07
7.75491e-06
4.91856e-08
7.08316e-07
-1.27546e-08
1.10587e-05
3.29566e-07
2.00243e-07
1.32562e-05
-1.87348e-07
5.12966e-07
1.34441e-05
-4.01338e-07
7.10809e-08
1.29563e-05
-1.14693e-07
-4.48472e-08
1.04142e-05
1.18048e-07
7.37319e-06
1.68117e-07
4.46084e-07
7.90039e-09
7.3992e-06
4.8497e-08
6.28991e-07
-1.16051e-07
1.04008e-05
3.84131e-07
-3.15068e-07
1.26372e-05
-1.88215e-07
-1.20623e-07
1.28483e-05
-4.13635e-07
-2.34999e-07
1.22799e-05
-1.9744e-07
-7.61416e-08
9.90797e-06
3.19818e-08
7.13787e-06
1.17753e-07
3.08685e-08
1.12437e-07
6.43428e-06
1.58664e-07
2.02095e-07
7.65513e-08
8.48261e-06
6.38505e-08
-6.73007e-08
1.04303e-05
2.99211e-08
-1.39583e-07
1.09505e-05
-8.04419e-08
2.75311e-09
1.01667e-05
2.43557e-08
5.53755e-08
8.21671e-06
1.02499e-07
6.33379e-06
1.64833e-07
-7.27339e-08
5.50486e-06
1.61153e-07
1.89771e-07
3.09611e-08
6.45532e-06
2.39982e-07
3.5095e-08
7.458e-06
1.9677e-07
8.32454e-09
7.86217e-06
1.54264e-07
4.4899e-08
7.38222e-06
2.02434e-07
1.07825e-07
6.38656e-06
2.08978e-07
5.49438e-06
1.63336e-07
1.77978e-07
-6.57572e-07
-7.57579e-07
5.32868e-06
7.11557e-07
7.55062e-07
-4.32695e-07
-1.02953e-06
5.98708e-06
1.02293e-06
-1.05314e-07
-1.14612e-06
6.58888e-06
1.2272e-06
2.06923e-07
-1.13077e-06
6.82517e-06
1.27691e-06
5.15322e-07
-1.13602e-06
6.55681e-06
1.20484e-06
6.91285e-07
-9.69856e-07
5.9802e-06
9.78938e-07
-7.02035e-07
5.35203e-06
7.02413e-07
7.23553e-07
-9.11763e-07
-5.78143e-07
6.01379e-06
9.74438e-07
-5.11957e-07
-6.88213e-07
7.25841e-06
-9.38045e-08
-5.30055e-07
8.78805e-06
2.22268e-07
-4.60185e-07
9.30734e-06
6.54391e-07
-5.20963e-07
8.59287e-06
9.83934e-07
-6.54345e-07
7.12524e-06
-5.20813e-07
6.00696e-06
9.83087e-07
-9.95828e-07
-2.39844e-07
6.69911e-06
1.19101e-06
-3.66887e-07
-2.56272e-07
9.00361e-06
-1.79916e-08
-1.05088e-07
1.13305e-05
1.76454e-07
2.48998e-08
1.1926e-05
5.64695e-07
-1.16599e-07
1.10983e-05
1.18737e-06
-2.13057e-07
8.60751e-06
-1.97208e-07
6.61861e-06
1.22907e-06
-8.97393e-07
1.19209e-07
7.0582e-06
1.23533e-06
-2.30737e-07
1.76702e-07
9.96048e-06
1.21624e-07
1.87954e-07
1.26102e-05
1.3747e-07
3.51541e-07
1.30999e-05
5.56604e-07
2.72468e-07
1.21465e-05
1.19405e-06
2.13137e-07
9.3506e-06
1.37629e-07
6.93015e-06
1.30288e-06
-9.60183e-07
4.65104e-07
6.80978e-06
1.20364e-06
-3.5828e-07
5.82898e-07
9.39239e-06
1.20902e-07
6.00051e-07
1.17463e-05
2.19843e-07
5.84536e-07
1.25163e-05
5.89061e-07
5.90327e-07
1.15934e-05
1.13887e-06
5.71532e-07
9.00052e-06
4.47312e-07
6.73541e-06
1.23305e-06
-9.5529e-07
6.93566e-07
6.13542e-06
1.0253e-06
-4.93583e-07
1.00436e-06
7.59908e-06
-6.55781e-08
1.09343e-06
9.50843e-06
3.15738e-07
1.02949e-06
1.01257e-05
6.7424e-07
1.06687e-06
9.33341e-06
1.03134e-06
9.49801e-07
7.48308e-06
6.66535e-07
6.12094e-06
1.02555e-06
-7.0868e-07
5.4281e-06
7.50116e-07
7.28346e-07
-4.65983e-07
6.16643e-06
1.05148e-06
-9.62408e-08
6.90936e-06
1.27203e-06
2.39137e-07
7.25602e-06
1.30045e-06
5.71654e-07
6.87894e-06
1.2389e-06
7.52816e-07
6.15429e-06
1.00116e-06
5.44297e-06
7.49421e-07
7.21128e-07
-8.27303e-07
-9.29088e-07
8.85458e-07
9.31475e-07
5.26812e-06
-5.89477e-07
-1.31069e-06
1.22917e-06
5.83134e-06
-1.61048e-07
-1.62623e-06
1.49524e-06
6.29093e-06
2.72829e-07
-1.67265e-06
1.57729e-06
6.48634e-06
6.4667e-07
-1.58239e-06
1.47091e-06
6.29459e-06
8.23225e-07
-1.24618e-06
1.20477e-06
5.84494e-06
-9.05887e-07
8.5295e-07
9.39394e-07
5.28867e-06
-1.16686e-06
-7.60479e-07
1.16565e-06
5.84697e-06
-8.17174e-07
-1.09829e-06
6.69624e-06
-1.63532e-07
-1.17604e-06
7.68461e-06
4.11297e-07
-1.06602e-06
8.1279e-06
9.77749e-07
-1.1665e-06
7.61139e-06
1.18987e-06
-1.02853e-06
6.69532e-06
-7.25044e-07
1.14886e-06
5.86737e-06
-1.48327e-06
-3.62582e-07
1.45125e-06
6.33346e-06
-8.09414e-07
-5.40445e-07
7.77319e-06
-5.47403e-08
-6.05179e-07
1.00055e-05
4.612e-07
-4.98357e-07
1.08422e-05
1.14615e-06
-5.20867e-07
9.76772e-06
1.55653e-06
-4.80937e-07
7.65003e-06
-3.47476e-07
1.44394e-06
6.35378e-06
-1.55185e-06
1.12171e-07
1.56865e-06
6.56703e-06
-6.47972e-07
1.97731e-07
8.31995e-06
1.45002e-07
2.20789e-07
1.09909e-05
5.12103e-07
1.88811e-07
1.20447e-05
1.11647e-06
1.49101e-07
1.08713e-05
1.68237e-06
1.24221e-07
8.18023e-06
1.04752e-07
1.57603e-06
6.58488e-06
-1.55483e-06
5.7048e-07
1.51316e-06
6.39335e-06
-7.97686e-07
8.6889e-07
7.96502e-06
-1.75694e-08
8.94588e-07
1.02921e-05
4.50801e-07
7.83184e-07
1.14537e-05
1.12828e-06
8.57335e-07
1.02088e-05
1.62487e-06
7.9089e-07
7.83952e-06
5.51546e-07
1.50309e-06
6.41172e-06
-1.28777e-06
8.13827e-07
1.25427e-06
5.92489e-06
-9.12508e-07
1.22961e-06
6.86311e-06
-1.74406e-07
1.5469e-06
8.11884e-06
4.19798e-07
1.5551e-06
8.76116e-06
1.06533e-06
1.49914e-06
8.04871e-06
1.31128e-06
1.16605e-06
6.86277e-06
8.12595e-07
1.23581e-06
5.93605e-06
-9.12441e-07
9.49522e-07
8.58513e-07
5.3453e-06
-6.66424e-07
1.20313e-06
5.94822e-06
-1.92786e-07
1.51063e-06
6.47212e-06
3.00953e-07
1.60168e-06
6.71673e-06
7.26356e-07
1.48165e-06
6.47176e-06
9.10054e-07
1.18088e-06
5.9553e-06
9.19784e-07
8.88338e-07
5.35709e-06
-4.74961e-07
1.21383e-07
3.20441e-06
-4.58416e-08
-4.60342e-07
1.02272e-07
3.41436e-06
-4.14898e-08
-4.14261e-07
8.3649e-08
3.52834e-06
-3.67555e-08
-3.48921e-07
6.73222e-08
3.57589e-06
-3.19745e-08
-2.72331e-07
5.35806e-08
3.57272e-06
-2.74079e-08
-1.88944e-07
4.18591e-08
3.52003e-06
-2.30934e-08
-9.96477e-08
3.07642e-08
3.38696e-06
-1.83718e-08
1.7441e-08
2.99746e-06
-1.14665e-08
-6.14379e-07
1.53531e-07
4.42519e-06
-5.71698e-07
1.25759e-07
4.48038e-06
-4.94586e-07
1.04384e-07
4.45356e-06
-4.01696e-07
8.62767e-08
4.37609e-06
-3.03422e-07
7.08074e-08
4.26289e-06
-2.04503e-07
5.75416e-08
4.11211e-06
-1.05171e-07
4.50366e-08
3.88461e-06
2.96255e-08
3.37317e-06
-7.16833e-07
1.43038e-07
5.3187e-06
-6.68739e-07
1.1878e-07
5.26156e-06
-5.74365e-07
1.00114e-07
5.12382e-06
-4.59899e-07
8.51199e-08
4.94613e-06
-3.40984e-07
7.2573e-08
4.74598e-06
-2.24931e-07
6.23285e-08
4.51952e-06
-1.12791e-07
5.30793e-08
4.2214e-06
4.12618e-08
3.621e-06
-7.58628e-07
1.07147e-07
5.65054e-06
-7.11663e-07
9.31889e-08
5.55093e-06
-6.12029e-07
7.99653e-08
5.37027e-06
-4.89829e-07
6.92238e-08
5.15328e-06
-3.60851e-07
6.19517e-08
4.91972e-06
-2.35955e-07
5.71273e-08
4.66468e-06
-1.16936e-07
5.35422e-08
4.34075e-06
4.82979e-08
3.70886e-06
-7.54759e-07
6.45949e-08
5.31446e-06
-6.97394e-07
5.85521e-08
5.25958e-06
-5.95646e-07
5.29375e-08
5.12186e-06
-4.76981e-07
4.92049e-08
4.94407e-06
-3.53264e-07
4.79192e-08
4.74387e-06
-2.32805e-07
4.80901e-08
4.51764e-06
-1.16364e-07
4.89625e-08
4.22021e-06
4.84217e-08
3.62149e-06
-6.70044e-07
4.4112e-08
4.42146e-06
-6.11092e-07
3.91006e-08
4.47761e-06
-5.22354e-07
3.83408e-08
4.45124e-06
-4.21516e-07
3.88529e-08
4.37409e-06
-3.17019e-07
3.99631e-08
4.26141e-06
-2.12653e-07
4.15117e-08
4.1116e-06
-1.08463e-07
4.3388e-08
3.8857e-06
4.40484e-08
3.37711e-06
-5.29361e-07
3.20215e-06
6.70218e-08
-4.97008e-07
3.41246e-06
5.64054e-08
-4.38915e-07
3.52744e-06
4.86421e-08
-3.65564e-07
3.57613e-06
4.29252e-08
-2.83246e-07
3.57443e-06
3.87599e-08
-1.95449e-07
3.52367e-06
3.57387e-08
-1.02467e-07
3.39316e-06
3.33356e-08
3.0072e-06
3.03564e-08
-7.0465e-07
1.29012e-07
3.09233e-06
-3.68611e-08
-6.386e-07
9.87708e-08
3.28138e-06
-3.17302e-08
-5.52242e-07
7.59225e-08
3.39167e-06
-2.61078e-08
-4.56315e-07
5.80312e-08
3.4428e-06
-2.11021e-08
-3.5365e-07
4.19625e-08
3.44498e-06
-1.66601e-08
-2.45659e-07
2.92025e-08
3.39615e-06
-1.28821e-08
-1.30222e-07
1.83715e-08
3.26235e-06
-8.90544e-09
6.75458e-09
2.86413e-06
-3.63032e-09
-9.75666e-07
1.59118e-07
4.31054e-06
-8.36324e-07
1.18657e-07
4.32084e-06
-6.85397e-07
9.38791e-08
4.28444e-06
-5.39556e-07
7.56711e-08
4.21237e-06
-4.01907e-07
5.81269e-08
4.10877e-06
-2.70705e-07
4.38307e-08
3.96591e-06
-1.40164e-07
3.15129e-08
3.74063e-06
1.80437e-08
3.2222e-06
-1.19363e-06
1.37678e-07
5.23687e-06
-1.01698e-06
1.05848e-07
5.09786e-06
-8.20336e-07
8.49033e-08
4.93624e-06
-6.29979e-07
6.94508e-08
4.76161e-06
-4.56499e-07
5.6665e-08
4.57341e-06
-2.98818e-07
4.69055e-08
4.35809e-06
-1.49942e-07
3.88485e-08
4.06487e-06
2.94562e-08
3.45926e-06
-1.28737e-06
8.88543e-08
5.59556e-06
-1.09925e-06
7.3487e-08
5.39445e-06
-8.84437e-07
5.89733e-08
5.18087e-06
-6.73854e-07
4.77436e-08
4.96426e-06
-4.83216e-07
4.28136e-08
4.74315e-06
-3.12506e-07
4.08971e-08
4.50018e-06
-1.54689e-07
4.02287e-08
4.18187e-06
3.824e-08
3.5449e-06
-1.24306e-06
3.24116e-08
5.25317e-06
-1.05304e-06
3.16172e-08
5.11046e-06
-8.4707e-07
2.79603e-08
4.946e-06
-6.49981e-07
2.49249e-08
4.76907e-06
-4.7086e-07
2.79698e-08
4.57929e-06
-3.08109e-07
3.24333e-08
4.36316e-06
-1.5479e-07
3.69251e-08
4.06976e-06
3.96677e-08
3.46493e-06
-1.02369e-06
1.24459e-08
4.33427e-06
-8.691e-07
1.43255e-08
4.34122e-06
-7.07771e-07
1.72581e-08
4.30125e-06
-5.5537e-07
2.00217e-08
4.22654e-06
-4.12817e-07
2.53344e-08
4.12138e-06
-2.77298e-07
3.03376e-08
3.97791e-06
-1.43041e-07
3.47291e-08
3.75287e-06
3.71368e-08
3.23589e-06
-7.47656e-07
3.11372e-06
5.41711e-08
-6.66496e-07
3.30158e-06
4.31625e-08
-5.69587e-07
3.41077e-06
3.67382e-08
-4.67507e-07
3.46114e-06
3.26237e-08
-3.60934e-07
3.46316e-06
3.00388e-08
-2.50215e-07
3.41486e-06
2.84858e-08
-1.32222e-07
3.28222e-06
2.74308e-08
2.88581e-06
2.60228e-08
-4.4044e-07
8.54096e-08
2.97675e-06
-2.40717e-08
-3.69149e-07
5.76457e-08
3.17173e-06
-1.88424e-08
-3.03525e-07
4.16828e-08
3.29676e-06
-1.35767e-08
-2.44145e-07
2.94605e-08
3.36228e-06
-8.70173e-09
-1.86547e-07
1.67188e-08
3.3758e-06
-4.83544e-09
-1.29108e-07
7.37608e-09
3.33367e-06
-1.79049e-09
-6.86046e-08
1.90777e-11
3.20079e-06
1.45913e-09
-6.82073e-09
2.7975e-06
5.45058e-09
-6.38001e-07
1.11817e-07
4.14642e-06
-4.95949e-07
7.3474e-08
4.1628e-06
-3.7586e-07
5.59002e-08
4.14962e-06
-2.79587e-07
4.34046e-08
4.10147e-06
-2.00627e-07
2.89089e-08
4.01717e-06
-1.32677e-07
1.80736e-08
3.88686e-06
-6.80975e-08
9.1344e-09
3.66676e-06
4.36558e-10
3.14753e-06
-8.08813e-07
1.08763e-07
5.05712e-06
-6.22081e-07
7.6301e-08
4.90841e-06
-4.56645e-07
5.61599e-08
4.77052e-06
-3.22744e-07
4.3908e-08
4.62654e-06
-2.18503e-07
3.32548e-08
4.46417e-06
-1.35611e-07
2.59908e-08
4.26679e-06
-6.46908e-08
2.05127e-08
3.98278e-06
1.43689e-08
3.37999e-06
-9.05106e-07
7.74462e-08
5.42147e-06
-6.9184e-07
5.80121e-08
5.19873e-06
-5.03453e-07
4.12701e-08
5.0068e-06
-3.47774e-07
3.06309e-08
4.823e-06
-2.2932e-07
2.8683e-08
4.62947e-06
-1.38122e-07
2.89424e-08
4.40634e-06
-6.36744e-08
2.98198e-08
4.09859e-06
2.96687e-08
3.46566e-06
-8.7515e-07
2.18559e-08
5.08939e-06
-6.63915e-07
2.45202e-08
4.93177e-06
-4.84975e-07
1.91573e-08
4.78802e-06
-3.41402e-07
1.5167e-08
4.64012e-06
-2.3061e-07
2.1345e-08
4.47552e-06
-1.43073e-07
2.7463e-08
4.27696e-06
-6.90565e-08
3.26154e-08
3.99248e-06
3.56119e-08
3.38992e-06
-6.66254e-07
6.34223e-09
4.19322e-06
-5.12741e-07
1.2437e-08
4.20023e-06
-3.85026e-07
1.33271e-08
4.17968e-06
-2.84841e-07
1.45561e-08
4.12678e-06
-2.03548e-07
2.15921e-08
4.03968e-06
-1.33787e-07
2.73446e-08
3.90802e-06
-6.81744e-08
3.17314e-08
3.6876e-06
3.36931e-08
3.16917e-06
-4.51069e-07
3.016e-06
3.11316e-08
-3.71e-07
3.20778e-06
2.50742e-08
-2.99664e-07
3.32972e-06
2.26138e-08
-2.39116e-07
3.39305e-06
2.1722e-08
-1.81956e-07
3.40557e-06
2.18287e-08
-1.25881e-07
3.36347e-06
2.24462e-08
-6.66973e-08
3.23135e-06
2.3129e-08
2.82953e-06
2.32751e-08
2.06782e-07
5.35429e-09
2.93772e-06
-9.02296e-09
2.29536e-07
-6.70179e-09
3.15907e-06
-2.73673e-09
2.26728e-07
-9.93934e-09
3.30666e-06
2.36874e-09
2.07878e-07
-1.51711e-08
3.39006e-06
6.14892e-09
1.75397e-07
-1.79114e-08
3.41749e-06
8.93343e-09
1.31228e-07
-1.9331e-08
3.38603e-06
1.13022e-08
7.59388e-08
-2.0228e-08
3.26283e-06
1.35306e-08
-2.04209e-08
2.87888e-06
1.55952e-08
2.67429e-07
2.19887e-08
4.05572e-06
3.01941e-07
9.87347e-10
4.12063e-06
2.9983e-07
-2.48133e-09
4.14424e-06
2.72567e-07
-9.57745e-09
4.12291e-06
2.26375e-07
-1.33069e-08
4.05845e-06
1.65862e-07
-1.54662e-08
3.94321e-06
9.30647e-08
-1.70707e-08
3.73632e-06
-1.8513e-08
3.23896e-06
3.23733e-07
4.9577e-08
4.92258e-06
3.7137e-07
2.36693e-08
4.83802e-06
3.75122e-07
1.42184e-08
4.7496e-06
3.43723e-07
6.70296e-09
4.64104e-06
2.86566e-07
3.01289e-09
4.5043e-06
2.1015e-07
1.0063e-09
4.32628e-06
1.17487e-07
-3.22309e-10
4.05881e-06
-1.82904e-09
3.48003e-06
3.13781e-07
4.96551e-08
5.27554e-06
3.81226e-07
3.55465e-08
5.11926e-06
3.97902e-07
2.29152e-08
4.98101e-06
3.69782e-07
2.1022e-08
4.83652e-06
3.10611e-07
2.09279e-08
4.67044e-06
2.28465e-07
2.11948e-08
4.46832e-06
1.26978e-07
2.14831e-08
4.17846e-06
2.06817e-08
3.57023e-06
2.70303e-07
2.32222e-08
4.96288e-06
3.40537e-07
3.15335e-08
4.86514e-06
3.58141e-07
2.37792e-08
4.76898e-06
3.34472e-07
2.7584e-08
4.65668e-06
2.81792e-07
3.06259e-08
4.51813e-06
2.07729e-07
3.26031e-08
4.33945e-06
1.15714e-07
3.38388e-08
4.07197e-06
3.32751e-08
3.49359e-06
2.5292e-07
1.90169e-08
4.10977e-06
2.96374e-07
2.68136e-08
4.16121e-06
2.98902e-07
2.38324e-08
4.17695e-06
2.74155e-07
2.75313e-08
4.15136e-06
2.29339e-07
3.00649e-08
4.0849e-06
1.68955e-07
3.16613e-08
3.96925e-06
9.51618e-08
3.24742e-08
3.76295e-06
3.10719e-08
3.26675e-06
2.09864e-07
2.98088e-06
6.85222e-09
2.36149e-07
3.19836e-06
9.194e-09
2.34706e-07
3.3429e-06
1.15689e-08
2.16184e-07
3.42466e-06
1.42052e-08
1.82878e-07
3.45191e-06
1.69877e-08
1.36997e-07
3.42143e-06
1.9519e-08
7.95016e-08
3.29997e-06
2.15862e-08
2.9179e-06
2.25511e-08
7.48603e-07
-8.37924e-08
2.96209e-06
1.34843e-08
7.51823e-07
-7.44625e-08
3.21216e-06
1.87479e-08
7.21747e-07
-6.86148e-08
3.38356e-06
2.22575e-08
6.59873e-07
-6.48671e-08
3.49278e-06
2.41181e-08
5.57992e-07
-5.73767e-08
3.55101e-06
2.5555e-08
4.1143e-07
-5.13414e-08
3.55664e-06
2.69099e-08
2.22357e-07
-4.66211e-08
3.47012e-06
2.80201e-08
-4.11138e-08
3.11445e-06
2.804e-08
9.99154e-07
-8.91613e-08
4.04533e-06
9.61323e-07
-7.72068e-08
4.16144e-06
8.90627e-07
-7.11545e-08
4.21776e-06
7.92031e-07
-6.93142e-08
4.22599e-06
6.58982e-07
-6.10034e-08
4.19493e-06
4.83924e-07
-5.3946e-08
4.12069e-06
2.64499e-07
-4.84741e-08
3.95749e-06
-4.25799e-08
3.50451e-06
1.24367e-06
-4.72839e-08
4.86631e-06
1.18698e-06
-4.29246e-08
4.86041e-06
1.08525e-06
-3.83859e-08
4.81817e-06
9.48742e-07
-3.60185e-08
4.74393e-06
7.79354e-07
-3.0914e-08
4.64314e-06
5.68803e-07
-2.66857e-08
4.50924e-06
3.11024e-07
-2.34455e-08
4.29128e-06
-2.03256e-08
3.76822e-06
1.3373e-06
-3.80271e-09
5.19811e-06
1.28217e-06
-1.3592e-09
5.13326e-06
1.17286e-06
4.01405e-09
5.04779e-06
1.01976e-06
1.22112e-08
4.93966e-06
8.3353e-07
1.37186e-08
4.81139e-06
6.06082e-07
1.36841e-08
4.65493e-06
3.30371e-07
1.3148e-08
4.41714e-06
1.14891e-08
3.86905e-06
1.25554e-06
3.27374e-08
4.90421e-06
1.19966e-06
3.42854e-08
4.88576e-06
1.09736e-06
3.79253e-08
4.83748e-06
9.58639e-07
4.69903e-08
4.76045e-06
7.86694e-07
4.49261e-08
4.65851e-06
5.73361e-07
4.16993e-08
4.52462e-06
3.12804e-07
3.84866e-08
4.30742e-06
3.33936e-08
3.78532e-06
1.03523e-06
4.16229e-08
4.09122e-06
9.89673e-07
4.30286e-08
4.1975e-06
9.11629e-07
4.38669e-08
4.24854e-06
8.08031e-07
4.77183e-08
4.25402e-06
6.71146e-07
4.44668e-08
4.22213e-06
4.9235e-07
4.13055e-08
4.14862e-06
2.68985e-07
3.83935e-08
3.98733e-06
3.34054e-08
3.53648e-06
7.81017e-07
2.99921e-06
-8.0328e-09
7.74569e-07
3.24721e-06
6.14781e-10
7.37107e-07
3.41691e-06
7.02545e-09
6.71781e-07
3.52561e-06
1.20414e-08
5.67344e-07
3.5846e-06
1.62726e-08
4.18424e-07
3.59218e-06
1.96829e-08
2.26775e-07
3.50854e-06
2.22023e-08
3.15536e-06
2.30388e-08
9.84327e-07
-1.43108e-07
4.28835e-08
2.93076e-06
1.08569e-06
-1.21016e-07
4.57879e-08
3.18598e-06
1.16587e-06
-1.0945e-07
4.59674e-08
3.36724e-06
1.21156e-06
-9.63619e-08
4.55268e-08
3.49783e-06
1.20139e-06
-8.21393e-08
4.51312e-08
3.59768e-06
1.09605e-06
-6.90841e-08
4.51052e-08
3.6853e-06
7.89676e-07
-5.52545e-08
4.48927e-08
3.78626e-06
-3.65565e-08
4.31052e-08
3.89699e-06
1.22519e-06
-1.64258e-07
3.99047e-06
1.27814e-06
-1.32026e-07
4.11961e-06
1.31967e-06
-1.19979e-07
4.18699e-06
1.33797e-06
-1.05566e-07
4.21704e-06
1.31e-06
-8.90848e-08
4.22987e-06
1.19071e-06
-7.42892e-08
4.24516e-06
8.60608e-07
-5.96964e-08
4.29185e-06
-4.10548e-08
4.36885e-06
1.48355e-06
-1.14377e-07
4.77696e-06
1.50211e-06
-9.06063e-08
4.80024e-06
1.5046e-06
-7.76726e-08
4.77311e-06
1.48833e-06
-6.60925e-08
4.72074e-06
1.43332e-06
-5.53104e-08
4.66437e-06
1.29063e-06
-4.63009e-08
4.62387e-06
9.29386e-07
-3.79771e-08
4.6302e-06
-2.77538e-08
4.68424e-06
1.60721e-06
-3.50211e-08
5.08814e-06
1.61102e-06
-2.40601e-08
5.06354e-06
1.59461e-06
-1.04837e-08
4.99722e-06
1.5588e-06
-2.50851e-09
4.91151e-06
1.48769e-06
-1.70733e-09
4.82817e-06
1.33146e-06
-2.55843e-09
4.76673e-06
9.55591e-07
-4.46702e-09
4.75861e-06
-7.917e-09
4.80501e-06
1.52938e-06
3.83252e-08
4.80552e-06
1.5337e-06
3.61609e-08
4.82207e-06
1.52586e-06
4.40654e-08
4.79133e-06
1.50128e-06
4.60485e-08
4.73663e-06
1.44e-06
3.84068e-08
4.67945e-06
1.29288e-06
2.97723e-08
4.63924e-06
9.29471e-07
1.99164e-08
4.64663e-06
5.74575e-09
4.70156e-06
1.28417e-06
5.50792e-08
4.02574e-06
1.31534e-06
5.21504e-08
4.14968e-06
1.34072e-06
5.33645e-08
4.21313e-06
1.3492e-06
5.0666e-08
4.24068e-06
1.31487e-06
4.20512e-08
4.25266e-06
1.19189e-06
3.30712e-08
4.26843e-06
8.60704e-07
2.25028e-08
4.31665e-06
8.75571e-09
4.39471e-06
1.02156e-06
-6.67498e-09
2.96005e-06
1.10349e-06
4.23638e-09
3.21371e-06
1.16993e-06
1.05503e-08
3.39319e-06
1.20838e-06
1.51753e-08
3.52268e-06
1.19406e-06
1.87886e-08
3.62214e-06
1.0876e-06
2.16926e-08
3.71011e-06
7.83007e-07
2.40563e-08
3.81195e-06
2.50656e-08
3.92195e-06
-5.10029e-07
-1.8384e-08
3.20981e-06
4.11683e-08
-4.76428e-07
-1.95321e-08
3.39978e-06
3.64478e-08
-4.16229e-07
-1.88004e-08
3.49164e-06
3.06143e-08
-3.42461e-07
-1.7665e-08
3.51822e-06
2.52933e-08
-2.61701e-07
-1.77033e-08
3.49703e-06
2.06704e-08
-1.78152e-07
-1.78615e-08
3.43052e-06
1.63204e-08
-9.24905e-08
-1.77459e-08
3.28868e-06
1.16626e-08
-1.57319e-08
2.89911e-06
5.05276e-09
-6.79556e-07
-4.90251e-08
4.45727e-06
-6.18573e-07
-4.66896e-08
4.47884e-06
-5.23302e-07
-3.77891e-08
4.41476e-06
-4.15069e-07
-3.00649e-08
4.30268e-06
-3.05577e-07
-2.62328e-08
4.16066e-06
-2.00447e-07
-2.42281e-08
3.98802e-06
-1.00274e-07
-2.28604e-08
3.74645e-06
-2.00972e-08
3.23323e-06
-8.05204e-07
-1.13833e-07
5.38023e-06
-7.49018e-07
-9.41046e-08
5.27749e-06
-6.38254e-07
-7.42407e-08
5.08881e-06
-5.03986e-07
-5.83748e-08
4.86436e-06
-3.66922e-07
-4.78283e-08
4.62587e-06
-2.36993e-07
-4.03458e-08
4.37057e-06
-1.16168e-07
-3.42636e-08
4.05364e-06
-2.67431e-08
3.44934e-06
-8.23128e-07
-1.67421e-07
5.71588e-06
-7.82965e-07
-1.3044e-07
5.56905e-06
-6.76415e-07
-1.03746e-07
5.33375e-06
-5.36947e-07
-8.44e-08
5.06613e-06
-3.91031e-07
-6.90047e-08
4.79067e-06
-2.51884e-07
-5.63776e-08
4.504e-06
-1.22857e-07
-4.51714e-08
4.1589e-06
-3.19814e-08
3.52093e-06
-7.56252e-07
-1.82729e-07
5.35892e-06
-7.14482e-07
-1.41814e-07
5.25942e-06
-6.16212e-07
-1.12157e-07
5.07394e-06
-4.91669e-07
-9.08074e-08
4.85175e-06
-3.61289e-07
-7.32408e-08
4.61415e-06
-2.35336e-07
-5.85773e-08
4.35883e-06
-1.16284e-07
-4.54256e-08
4.04102e-06
-3.04888e-08
3.43478e-06
-6.23882e-07
-1.43892e-07
4.43088e-06
-5.86309e-07
-1.14976e-07
4.45438e-06
-5.07893e-07
-9.00052e-08
4.39297e-06
-4.1115e-07
-7.15234e-08
4.28253e-06
-3.08565e-07
-5.68894e-08
4.14066e-06
-2.06269e-07
-4.53509e-08
3.96699e-06
-1.05276e-07
-3.53678e-08
3.72331e-06
-2.4921e-08
3.20701e-06
-4.71921e-07
3.18922e-06
-6.25195e-08
-4.60033e-07
3.37851e-06
-5.01e-08
-4.13291e-07
3.47026e-06
-4.10354e-08
-3.46363e-07
3.49594e-06
-3.5016e-08
-2.68196e-07
3.47325e-06
-3.07581e-08
-1.84423e-07
3.40434e-06
-2.76731e-08
-9.64841e-08
3.25949e-06
-2.51877e-08
2.86676e-06
-2.24527e-08
-7.22187e-07
1.25457e-08
3.11726e-06
3.14484e-08
-6.3278e-07
3.83959e-09
3.28163e-06
2.58709e-08
-5.32292e-07
4.31652e-09
3.36781e-06
1.86644e-08
-4.31062e-07
5.30494e-09
3.39808e-06
1.32105e-08
-3.28189e-07
1.14952e-09
3.38424e-06
8.91298e-09
-2.24608e-07
-2.19468e-09
3.32471e-06
4.84032e-09
-1.17477e-07
-4.1731e-09
3.18558e-06
5.21607e-10
-3.51796e-09
2.79042e-06
-5.1148e-09
-1.03448e-06
-1.33067e-08
4.37347e-06
-8.69603e-07
-1.60413e-08
4.33373e-06
-6.95779e-07
-8.74529e-09
4.25361e-06
-5.35342e-07
3.46152e-10
4.14653e-06
-3.89141e-07
-1.91179e-09
4.01682e-06
-2.56424e-07
-4.39776e-09
3.85672e-06
-1.30532e-07
-6.54301e-09
3.62227e-06
-6.68313e-09
3.10624e-06
-1.32102e-06
-8.3027e-08
5.34098e-06
-1.116e-06
-6.66329e-08
5.12363e-06
-8.87817e-07
-4.78528e-08
4.89993e-06
-6.69287e-07
-3.15805e-08
4.67751e-06
-4.75145e-07
-2.52115e-08
4.45453e-06
-3.04682e-07
-2.13575e-08
4.21619e-06
-1.50184e-07
-1.81707e-08
3.91017e-06
-1.36685e-08
3.30537e-06
-1.40477e-06
-1.63437e-07
5.69928e-06
-1.19986e-06
-1.14688e-07
5.41178e-06
-9.59535e-07
-8.67362e-08
5.13152e-06
-7.20766e-07
-6.92475e-08
4.8649e-06
-5.07373e-07
-5.4039e-08
4.60651e-06
-3.21872e-07
-4.13924e-08
4.33876e-06
-1.56577e-07
-3.05951e-08
4.0061e-06
-1.89504e-08
3.36856e-06
-1.25406e-06
-1.86512e-07
5.2944e-06
-1.0709e-06
-1.31142e-07
5.09171e-06
-8.60515e-07
-9.99624e-08
4.8758e-06
-6.54118e-07
-8.19598e-08
4.6575e-06
-4.67606e-07
-6.27646e-08
4.43636e-06
-3.01656e-07
-4.67911e-08
4.19816e-06
-1.49961e-07
-3.31963e-08
3.89111e-06
-1.91989e-08
3.28429e-06
-9.82441e-07
-1.44473e-07
4.31869e-06
-8.42692e-07
-1.0557e-07
4.28991e-06
-6.86922e-07
-7.93104e-08
4.21689e-06
-5.36716e-07
-6.30507e-08
4.11339e-06
-3.96291e-07
-4.74367e-08
3.98489e-06
-2.64608e-07
-3.56933e-08
3.82379e-06
-1.3649e-07
-2.61972e-08
3.5869e-06
-1.73624e-08
3.06757e-06
-6.97575e-07
3.0749e-06
-4.67573e-08
-6.31644e-07
3.24149e-06
-3.54549e-08
-5.41976e-07
3.32973e-06
-2.90298e-08
-4.44611e-07
3.36086e-06
-2.53568e-08
-3.41808e-07
3.3462e-06
-2.29758e-08
-2.36089e-07
3.28438e-06
-2.15204e-08
-1.24899e-07
3.14194e-06
-2.0422e-08
2.7431e-06
-1.90922e-08
-4.18422e-07
5.63898e-09
3.01075e-06
2.01571e-08
-3.30125e-07
4.40068e-09
3.17997e-06
9.72492e-09
-2.57722e-07
7.45733e-09
3.28219e-06
5.06874e-09
-2.00731e-07
1.07793e-08
3.32946e-06
3.72338e-10
-1.49482e-07
6.29116e-09
3.33026e-06
-3.62158e-09
-1.01563e-07
3.77312e-09
3.28097e-06
-7.85074e-09
-5.34183e-08
3.18885e-09
3.1462e-06
-1.19397e-08
4.80439e-09
2.74905e-06
-1.64608e-08
-6.49983e-07
-2.24589e-09
4.21983e-06
-4.84962e-07
-7.17046e-09
4.18006e-06
-3.52895e-07
4.35181e-09
4.12409e-06
-2.50626e-07
9.93654e-09
4.04453e-06
-1.71995e-07
5.11881e-09
3.93895e-06
-1.09502e-07
1.28954e-09
3.7962e-06
-5.4783e-08
-7.71942e-10
3.57131e-06
-1.17306e-09
3.05817e-06
-9.15387e-07
-4.8084e-08
5.16931e-06
-6.85012e-07
-4.10122e-08
4.92761e-06
-4.86973e-07
-2.30312e-08
4.72887e-06