/*--------------------------------*- C++ -*----------------------------------*\
| =========                 |                                                 |
| \\      /  F ield         | OpenFOAM: The Open Source CFD Toolbox           |
|  \\    /   O peration     | Version:  plus.master.MPPICInterFoam            |
|   \\  /    A nd           | Web:      www.OpenFOAM.com                      |
|    \\/     M anipulation  |                                                 |
\*---------------------------------------------------------------------------*/
FoamFile
{
    version     2.0;
    format      ascii;
    class       surfaceScalarField;
    location    "3.8";
    object      alphaPhi;
}
// * * * * * * * * * * * * * * * * * * * * * * * * * * * * * * * * * * * * * //

dimensions      [0 3 -1 0 0 0 0];

internalField   nonuniform List<scalar> 
34018
(
5.36746e-07
6.32522e-06
7.16043e-07
4.9495e-07
8.4733e-07
6.66095e-06
5.9262e-07
5.75503e-06
4.18981e-07
7.10691e-08
6.39188e-06
8.69595e-07
1.8298e-07
5.79607e-06
6.96723e-07
5.04842e-06
1.89e-07
5.40981e-07
-2.99773e-07
-9.32835e-09
6.16354e-06
2.26441e-07
3.125e-09
-3.93534e-07
-5.63446e-08
6.89135e-06
2.64933e-08
-4.30335e-07
-2.27168e-07
7.34783e-06
1.31267e-07
-2.5678e-07
-5.68103e-07
7.33707e-06
3.05152e-07
-1.4027e-07
-4.17352e-07
6.99292e-06
2.75522e-07
-5.96517e-08
-2.43919e-07
6.26241e-06
1.97088e-07
-1.32562e-07
5.38181e-06
1.52216e-08
1.2407e-07
-3.64182e-07
-5.04302e-08
6.96542e-06
2.53891e-07
-4.88144e-07
-1.72778e-07
7.62046e-06
-4.99211e-07
-3.43851e-07
7.39504e-06
-1.68537e-07
-3.86349e-07
6.76871e-06
-7.95349e-08
-4.84194e-07
7.4045e-06
-2.52012e-08
-2.87468e-07
7.09945e-06
-1.25412e-07
6.03892e-06
2.72234e-08
-5.21186e-07
-3.97198e-08
7.47943e-06
3.15057e-07
-8.05405e-07
-1.26911e-07
8.31753e-06
-2.89109e-07
-1.33491e-07
6.92599e-06
-1.13503e-08
-5.17333e-08
1.51519e-06
1.65768e-07
-1.07225e-07
5.93312e-06
1.07331e-07
-1.59639e-07
7.58443e-06
-3.70716e-08
6.47035e-06
8.29186e-08
-5.22572e-07
-2.20289e-08
7.57022e-06
3.11723e-07
-7.62615e-07
-3.28914e-08
8.41195e-06
-7.39248e-08
1.02593e-08
6.80395e-06
-2.4996e-08
2.36319e-08
1.14405e-06
2.66772e-07
1.60818e-07
2.8841e-06
2.39844e-07
1.96632e-07
7.4994e-06
1.46601e-07
6.55486e-06
1.26531e-07
-4.1708e-07
-3.10379e-08
7.25725e-06
2.63227e-07
-5.92511e-07
-3.00702e-08
7.85514e-06
-3.11966e-07
9.53596e-08
7.05267e-06
-5.23694e-08
4.0458e-07
4.59053e-06
7.06505e-08
4.5582e-07
7.20765e-06
3.77815e-08
2.80268e-07
7.32473e-06
2.2631e-07
6.26796e-06
1.8527e-08
-3.11287e-07
-4.45866e-08
6.60278e-06
2.16943e-07
-4.37958e-07
-4.41761e-08
7.33907e-06
-4.93247e-07
5.86062e-08
7.70519e-06
-2.85397e-07
2.99863e-07
7.65356e-06
-1.63788e-07
3.15564e-07
7.40991e-06
-1.18153e-07
2.56887e-07
6.65556e-06
2.38601e-07
5.70668e-06
-8.14856e-08
-2.65889e-07
5.79138e-06
1.89177e-07
-2.84648e-08
-3.63788e-07
6.37106e-06
-2.96584e-08
-4.19678e-07
6.71812e-06
3.85146e-08
-3.36954e-07
6.73342e-06
1.81117e-07
-2.43885e-07
6.39097e-06
2.23929e-07
-1.84444e-07
5.77014e-06
2.23612e-07
5.01205e-06
-1.38388e-07
2.27857e-07
1.54715e-08
3.4505e-07
6.13208e-06
-4.14745e-08
-2.88002e-07
-1.22048e-07
5.30567e-07
6.91746e-06
-4.18641e-07
-3.04544e-07
5.71438e-07
7.42665e-06
-4.67976e-07
-3.90894e-07
3.51971e-07
7.37264e-06
-3.69571e-07
-4.06324e-07
3.59644e-07
6.94798e-06
-2.99242e-07
-3.28673e-07
2.62185e-07
6.13504e-06
-2.12198e-07
1.81542e-07
5.22863e-06
-2.04999e-07
-1.52154e-07
1.83691e-07
2.69398e-07
7.0335e-06
-1.75551e-07
-2.84439e-08
3.95667e-07
7.61537e-06
-2.84861e-07
2.03827e-07
6.3404e-06
-4.32298e-07
3.64593e-08
7.07506e-06
-5.94223e-07
1.67022e-07
7.51467e-06
-4.89272e-07
1.99492e-07
7.05708e-06
1.60686e-07
5.89406e-06
-3.24183e-07
2.6306e-07
8.43055e-08
7.63308e-06
-2.77108e-07
-2.34466e-07
6.22361e-08
7.7594e-06
-2.10722e-07
4.38308e-08
7.67174e-06
-2.08114e-07
-3.03376e-08
2.61762e-06
-5.8343e-07
-6.29801e-09
6.57493e-06
-5.83746e-07
5.43613e-08
7.6281e-06
1.07008e-07
6.34613e-06
-4.05964e-07
3.1984e-07
-1.39578e-07
7.71302e-06
-3.23169e-07
-1.35984e-07
-2.93983e-07
8.33368e-06
-7.54951e-08
-1.79855e-07
7.76938e-06
-1.07881e-07
-4.73685e-08
1.1806e-06
-4.33131e-07
-6.33156e-08
4.59407e-06
-5.81988e-07
-2.48223e-08
7.61305e-06
6.97701e-08
6.44412e-06
-4.34572e-07
2.8339e-07
-2.78727e-07
7.39183e-06
-2.7884e-07
2.89127e-08
-5.00792e-07
8.01175e-06
-2.19248e-07
-5.4274e-07
7.23369e-06
-4.11599e-07
-3.00497e-07
5.54846e-06
-6.53591e-07
-2.71242e-07
7.43048e-06
-6.13169e-07
-1.31989e-07
7.32876e-06
2.42242e-08
6.15743e-06
-4.56925e-07
1.39694e-07
-2.97767e-07
6.64618e-06
-1.64619e-07
-4.08258e-08
-4.7542e-07
7.48684e-06
-3.3652e-07
-5.5421e-07
7.93529e-06
-5.21373e-07
-4.27788e-07
7.84931e-06
-5.97971e-07
-2.9193e-07
7.47187e-06
-5.3906e-07
-1.37063e-07
6.60126e-06
8.63011e-09
5.60121e-06
-4.17446e-07
1.45566e-08
5.78143e-06
-6.7098e-08
-2.34844e-07
-1.25363e-07
6.39081e-06
-3.5582e-07
-3.12426e-07
6.75873e-06
-4.08193e-07
-4.28367e-07
6.75051e-06
-3.2904e-07
-4.64879e-07
6.35388e-06
-2.17988e-07
-4.31897e-07
5.69339e-06
-9.30447e-08
4.92398e-06
-3.56934e-07
2.15809e-08
9.35798e-08
4.64813e-07
6.02152e-06
-8.95295e-08
-3.57765e-07
-2.42759e-08
7.48931e-07
6.81668e-06
-5.2966e-07
-2.51165e-07
9.32561e-07
7.35862e-06
-6.57577e-07
-4.15555e-07
6.92007e-07
7.20222e-06
-5.90912e-07
-4.4913e-07
6.69478e-07
6.78772e-06
-4.76172e-07
-3.5592e-07
4.39494e-07
5.93612e-06
-3.34038e-07
2.92882e-07
5.04297e-06
-2.24411e-07
-2.38921e-07
3.55382e-07
4.27175e-07
6.98625e-06
-2.72289e-07
1.2246e-07
5.5917e-07
7.25919e-06
-1.37302e-07
5.4625e-07
5.32356e-06
-5.00104e-07
2.29068e-07
6.29559e-06
-7.17691e-07
4.09318e-07
6.91262e-06
-5.75212e-07
4.03942e-07
6.89697e-06
2.83228e-07
5.69745e-06
-3.69822e-07
5.08493e-07
1.94026e-07
7.56818e-06
-4.60544e-07
1.24253e-07
2.02857e-07
5.0497e-06
-2.05702e-07
1.6467e-07
7.73941e-06
-3.18691e-07
2.62803e-09
2.79826e-06
-8.14932e-07
1.06003e-07
6.28117e-06
-7.64322e-07
1.92662e-07
7.39662e-06
2.02612e-07
6.15951e-06
-4.97226e-07
6.14072e-07
-1.17294e-07
7.66237e-06
-5.51022e-07
1.82824e-07
-2.40488e-07
5.56744e-06
-3.91087e-08
-2.29979e-07
8.46031e-06
-1.56452e-07
-5.51152e-08
1.34795e-06
-7.28592e-07
-1.13085e-07
4.73963e-06
-8.2804e-07
-2.937e-08
7.42562e-06
1.0201e-07
6.27403e-06
-5.5799e-07
5.61881e-07
-3.07525e-07
7.43844e-06
-4.65817e-07
2.52882e-07
-6.15796e-07
7.37659e-06
-1.73125e-07
-7.6383e-07
5.56443e-06
-5.46943e-07
-5.04524e-07
5.41457e-06
-9.12838e-07
-4.56927e-07
6.87803e-06
-8.04795e-07
-2.0909e-07
7.19697e-06
1.16333e-08
6.00393e-06
-5.60666e-07
3.18293e-07
-3.22699e-07
6.62811e-06
-2.9251e-07
1.44349e-07
-5.728e-07
7.51948e-06
-2.76772e-07
-7.61857e-07
7.85177e-06
-6.18603e-07
-6.59933e-07
7.55373e-06
-7.41044e-07
-4.51329e-07
7.36115e-06
-6.43606e-07
-2.12611e-07
6.49809e-06
-1.97598e-08
5.47314e-06
-4.84091e-07
1.23148e-07
5.73962e-06
-1.56465e-07
-2.46732e-07
-1.88383e-08
6.3629e-06
-4.03334e-07
-2.59336e-07
6.74569e-06
-5.09223e-07
-4.42482e-07
6.7203e-06
-4.46645e-07
-5.10889e-07
6.28271e-06
-3.11449e-07
-4.77181e-07
5.59626e-06
-1.49355e-07
4.82967e-06
-3.91764e-07
-1.04929e-08
-7.11122e-08
3.08731e-07
5.91551e-06
7.29653e-08
-2.0306e-07
-9.86524e-08
4.67268e-07
6.65788e-06
-2.80696e-07
-2.34039e-07
5.6923e-07
7.10289e-06
-3.59528e-07
-2.77606e-07
4.34377e-07
6.9464e-06
-3.02683e-07
-2.41703e-07
4.00795e-07
6.56572e-06
-2.5388e-07
-1.59139e-07
3.01377e-07
5.74855e-06
-1.96891e-07
2.23077e-07
4.89937e-06
-7.61882e-08
-1.61943e-07
6.76305e-08
3.55909e-07
6.84915e-06
-1.9341e-08
3.58566e-08
3.47946e-07
6.8505e-06
-1.75966e-07
4.55363e-07
5.47222e-06
-3.05771e-07
1.22505e-07
5.23013e-06
-3.97981e-07
3.20632e-07
6.49194e-06
-2.81184e-07
3.48271e-07
6.6341e-06
2.63135e-07
5.52889e-06
-1.53369e-07
2.04893e-07
2.52974e-07
7.23253e-06
-1.46417e-07
1.01511e-07
1.99142e-07
4.40184e-06
-2.43989e-07
3.69014e-07
3.81684e-06
-1.72072e-07
9.8315e-09
2.21684e-06
-4.84039e-07
1.57652e-07
5.04602e-06
-4.12143e-07
2.63807e-07
7.02434e-06
2.57714e-07
5.98597e-06
-2.33586e-07
3.17171e-07
3.94074e-08
7.28794e-06
-2.54216e-07
1.63868e-07
-3.2962e-08
4.18795e-06
-1.5245e-07
-2.1348e-07
6.69468e-06
-2.26029e-07
-3.62737e-08
1.47733e-06
-5.08233e-07
-1.88561e-08
4.29182e-06
-5.10883e-07
1.0945e-07
6.93678e-06
2.08461e-07
6.11533e-06
-3.03179e-07
2.66889e-07
-7.13548e-08
7.29117e-06
-2.11727e-07
1.24117e-07
-2.42515e-07
6.19911e-06
-1.49541e-07
-3.96415e-07
3.65037e-06
-3.2334e-07
-2.05909e-07
3.54907e-06
-5.9679e-07
-1.59193e-07
5.64751e-06
-5.12361e-07
1.66027e-08
6.92921e-06
1.53697e-07
5.87985e-06
-3.33324e-07
1.4975e-07
-9.26379e-08
6.60616e-06
-1.33912e-07
6.07205e-08
-2.36084e-07
7.33945e-06
-2.45342e-07
-3.80156e-07
7.30489e-06
-4.57869e-07
-2.8255e-07
6.70009e-06
-5.2199e-07
-1.46059e-07
7.03796e-06
-4.29639e-07
1.09228e-09
6.39697e-06
1.17159e-07
5.39284e-06
-3.1308e-07
3.58713e-08
5.73855e-06
-6.57553e-08
-6.12362e-08
-5.25246e-08
6.36148e-06
-1.46051e-07
-2.2104e-07
6.73894e-06
-2.05775e-07
-3.28602e-07
6.69958e-06
-1.54344e-07
-3.58939e-07
6.24137e-06
-7.43022e-08
-3.27673e-07
5.5467e-06
1.90808e-08
4.78596e-06
-2.656e-07
9.91775e-08
-2.52981e-07
1.18123e-07
5.8576e-06
2.32443e-07
-3.8371e-08
-2.37183e-07
1.03539e-07
6.54615e-06
-7.89415e-09
-1.8515e-07
8.0792e-08
6.92124e-06
3.04473e-08
-8.77801e-08
4.12393e-08
6.79981e-06
5.25997e-08
-2.03431e-08
9.67229e-08
6.39661e-06
-6.31587e-09
2.73153e-08
1.24416e-07
5.62583e-06
-4.9421e-08
1.34531e-07
4.8121e-06
5.62122e-08
-7.60295e-08
-2.63697e-07
2.02307e-07
6.73299e-06
2.43285e-07
-1.88071e-07
1.64059e-07
6.70038e-06
-1.43352e-07
9.86459e-08
5.70484e-06
-9.60707e-08
5.28715e-08
5.07114e-06
-4.39545e-08
1.5379e-07
6.33169e-06
2.19718e-08
2.08302e-07
6.45717e-06
2.06152e-07
5.42623e-06
5.29438e-08
-2.23531e-07
2.54768e-07
7.02457e-06
2.42376e-07
-6.88736e-08
1.52916e-07
4.43514e-06
-5.7533e-08
1.19833e-07
1.90305e-06
-3.85693e-08
2.23488e-08
1.64732e-06
-4.30489e-08
1.5283e-07
4.76995e-06
1.43016e-08
2.87485e-07
6.85023e-06
2.81707e-07
5.88353e-06
4.11437e-08
-1.22794e-07
2.20052e-07
6.89309e-06
1.65793e-07
4.73023e-09
1.38486e-07
4.3503e-06
-1.13241e-07
-1.17761e-08
2.32837e-06
-1.0646e-07
1.27792e-08
1.53166e-06
-1.32519e-07
1.24662e-07
4.20211e-06
-6.98781e-08
2.723e-07
6.71943e-06
3.08816e-07
6.03446e-06
-1.5894e-08
-1.35486e-07
1.96081e-07
7.03645e-06
9.84304e-08
-1.01982e-07
2.19213e-07
5.6481e-06
-7.70086e-08
1.28795e-07
3.80495e-06
-9.43063e-08
1.88844e-07
3.0596e-06
-1.68566e-07
2.31531e-07
5.25289e-06
-1.37899e-07
2.83497e-07
6.78408e-06
2.96489e-07
5.83711e-06
-8.26562e-08
-7.13452e-08
1.43144e-07
6.62573e-06
4.45286e-08
-1.35753e-07
1.55972e-07
7.02482e-06
-1.78822e-07
1.96963e-07
6.82473e-06
-2.05457e-07
2.51577e-07
6.18888e-06
-2.31653e-07
2.16363e-07
6.72876e-06
-1.82082e-07
2.29662e-07
6.37424e-06
2.50296e-07
5.38432e-06
-1.27624e-07
-7.45493e-08
5.79697e-06
4.01875e-08
1.19348e-07
-1.23519e-07
6.44191e-06
1.25279e-07
-1.71153e-07
6.81387e-06
1.50765e-07
-1.77557e-07
6.75899e-06
1.82072e-07
-1.80655e-07
6.28189e-06
1.79013e-07
-1.62644e-07
5.5678e-06
1.90356e-07
4.7955e-06
-1.27402e-07
2.05735e-07
-2.5123e-07
1.02987e-07
5.78076e-06
2.40409e-07
-1.49484e-08
-2.29571e-07
6.59923e-08
6.43133e-06
2.67859e-08
-1.37156e-07
-2.20885e-08
6.81748e-06
8.91611e-08
-2.6498e-08
-2.32216e-08
6.74117e-06
8.92924e-08
2.43478e-08
9.32974e-08
6.24952e-06
3.56417e-09
5.91705e-08
1.29588e-07
5.50453e-06
-4.31455e-08
1.33816e-07
4.72535e-06
7.92698e-08
-6.72744e-08
-2.61567e-07
1.90098e-07
6.60457e-06
2.55522e-07
-2.24927e-07
1.26463e-07
6.64972e-06
-1.04548e-07
3.97327e-08
6.13821e-06
-3.06675e-08
2.97874e-08
5.48044e-06
1.21796e-08
1.47951e-07
6.40202e-06
6.46877e-08
2.14131e-07
6.30885e-06
2.09762e-07
5.3257e-06
8.9693e-08
-2.91303e-07
2.64179e-07
6.86355e-06
2.80116e-07
-1.43352e-07
1.55746e-07
4.60096e-06
-4.13113e-09
2.27692e-08
1.9812e-06
1.13239e-08
2.85787e-08
1.39883e-06
7.26947e-08
1.77949e-07
4.76507e-06
9.03496e-08
3.17838e-07
6.73957e-06
2.98268e-07
5.78885e-06
9.6957e-08
-2.37082e-07
2.82495e-07
6.45314e-06
2.18241e-07
-1.41843e-07
2.74352e-07
4.4296e-06
1.33444e-08
1.49712e-07
1.58867e-06
-3.54273e-08
9.1201e-08
1.54259e-06
-6.63574e-09
2.39521e-07
4.41866e-06
2.49713e-08
3.49658e-07
6.61268e-06
3.41085e-07
5.96593e-06
5.10438e-08
-1.08206e-07
2.50268e-07
6.65804e-06
9.62394e-08
-2.09854e-07
3.1447e-07
5.23726e-06
-3.51221e-08
4.81048e-07
4.79994e-06
-2.63092e-08
3.87106e-07
3.11525e-06
-9.8827e-08
3.03902e-07
5.11344e-06
-7.61747e-08
3.35303e-07
6.70805e-06
3.22543e-07
5.80121e-06
-2.15004e-08
-1.89589e-08
1.85693e-07
6.58355e-06
2.93302e-08
-1.02414e-07
2.06897e-07
6.30249e-06
-1.21575e-07
2.93864e-07
6.21772e-06
-1.34193e-07
3.19498e-07
5.77797e-06
-1.92609e-07
2.47001e-07
6.28256e-06
-1.32706e-07
2.57647e-07
6.34734e-06
2.69466e-07
5.37139e-06
-6.65953e-08
-4.75583e-08
5.8285e-06
3.77955e-08
1.64085e-07
-8.54506e-08
6.50184e-06
1.78369e-07
-1.13145e-07
6.8111e-06
2.19413e-07
-1.17464e-07
6.77444e-06
2.37547e-07
-1.28112e-07
6.32098e-06
2.16084e-07
-1.04455e-07
5.57966e-06
2.22077e-07
4.79841e-06
-6.30661e-08
2.25611e-07
-2.36889e-07
5.89343e-08
5.66671e-06
2.56744e-07
3.52082e-08
-1.9092e-07
4.90629e-08
6.25607e-06
7.99738e-08
-9.87667e-08
-4.65112e-09
6.61008e-06
1.2972e-07
9.38502e-10
6.82835e-09
6.5358e-06
1.19293e-07
5.55628e-08
1.07987e-07
6.04876e-06
3.85719e-08
9.74472e-08
1.08068e-07
5.36045e-06
-5.70057e-09
1.00251e-07
4.63816e-06
1.1347e-07
-2.84899e-08
-2.12384e-07
1.67686e-07
6.41761e-06
2.71373e-07
-1.42772e-07
1.44555e-07
6.37783e-06
-7.42621e-08
6.74668e-08
5.93392e-06
-3.91358e-08
4.96437e-08
5.35058e-06
1.81328e-08
1.86835e-07
6.17835e-06
1.06012e-07
2.13617e-07
6.10522e-06
1.83494e-07
5.20748e-06
1.41753e-07
-2.08522e-07
2.49963e-07
6.64414e-06
2.98025e-07
-8.63999e-08
1.65561e-07
4.50362e-06
-2.07175e-09
3.78759e-08
2.05962e-06
4.94253e-09
4.786e-08
1.3657e-06
6.16466e-08
2.02317e-07
4.49976e-06
1.42041e-07
3.18959e-07
6.53609e-06
2.81655e-07
5.66328e-06
1.70317e-07
-1.0211e-07
2.6979e-07
6.21343e-06
2.25402e-07
-2.95676e-08
2.39442e-07
4.06686e-06
8.9647e-09
2.35089e-07
1.60479e-06
-3.85517e-08
1.13225e-07
1.51672e-06
-5.60076e-09
2.37526e-07
4.16647e-06
9.12907e-08
3.53737e-07
6.39002e-06
3.36472e-07
5.86161e-06
1.41417e-07
1.86249e-08
2.44538e-07
6.36279e-06
1.08122e-07
9.19228e-09
2.03801e-07
3.94765e-06
-4.64846e-08
3.28322e-07
4.97948e-06
-4.51367e-08
2.68965e-07
3.08655e-06
-1.00839e-07
2.23884e-07
4.38731e-06
-5.32391e-10
3.2715e-07
6.46646e-06
3.26703e-07
5.72869e-06
8.20984e-08
1.60872e-08
2.33926e-07
6.43993e-06
6.69274e-08
8.88493e-09
2.40595e-07
5.46447e-06
-5.67199e-08
2.58993e-07
4.84621e-06
-9.99334e-08
3.00165e-07
4.74341e-06
-1.23643e-07
2.65487e-07
5.60609e-06
-2.90683e-08
2.92749e-07
6.22501e-06
2.94358e-07
5.33085e-06
4.40838e-08
-5.14772e-08
5.80387e-06
7.12627e-08
2.38685e-07
-4.33054e-08
6.44933e-06
2.71347e-07
-5.29629e-08
6.67674e-06
3.08014e-07
-4.69196e-08
6.66918e-06
3.24651e-07
-3.83558e-08
6.27728e-06
2.95535e-07
-2.63342e-09
5.55185e-06
2.84483e-07
4.79217e-06
3.56398e-08
2.62968e-07
-3.71767e-07
-1.88548e-07
5.62659e-06
3.87956e-07
2.12092e-07
-2.65035e-07
-3.37551e-07
6.13758e-06
3.49685e-07
-7.58261e-08
-4.55643e-07
6.42726e-06
4.50424e-07
1.28748e-07
-4.54791e-07
6.34818e-06
4.39142e-07
2.19394e-07
-2.53429e-07
5.91581e-06
2.9625e-07
2.36353e-07
-1.24737e-07
5.29875e-06
1.70266e-07
-4.47269e-08
4.62362e-06
2.06102e-07
9.04557e-08
-4.65908e-07
-7.36267e-08
6.28936e-06
5.09317e-07
-2.65178e-07
-1.02048e-07
6.1231e-06
-5.94818e-08
-6.77886e-08
5.59765e-06
1.23811e-07
-1.96565e-08
5.08665e-06
3.14927e-07
-2.49321e-08
5.92801e-06
3.52691e-07
-8.95302e-09
5.96535e-06
4.21863e-08
5.1647e-06
3.09847e-07
-5.64447e-07
1.46161e-07
6.44943e-06
6.6385e-07
-1.75428e-07
1.00312e-07
4.29447e-06
-8.33507e-09
4.0145e-08
2.08606e-06
5.2761e-08
7.86373e-08
1.19788e-06
4.75183e-07
1.40402e-07
4.1606e-06
5.09098e-07
2.21015e-07
6.33323e-06
1.97202e-07
5.6005e-06
4.1734e-07
-4.27805e-07
2.98015e-07
6.09662e-06
6.51492e-07
-5.42369e-08
1.98948e-07
3.58336e-06
1.17825e-09
2.86143e-07
1.55756e-06
2.14694e-08
1.30669e-07
1.43604e-06
3.7357e-07
2.22892e-07
3.36731e-06
5.177e-07
3.78769e-07
6.21233e-06
3.33304e-07
5.80809e-06
4.35994e-07
-2.49377e-07
4.17094e-07
6.23957e-06
5.18481e-07
-2.09967e-08
3.32585e-07
3.6166e-06
-2.02878e-08
4.61553e-07
3.28385e-06
3.62989e-08
3.69877e-07
1.92975e-06
2.79179e-07
3.62578e-07
3.77859e-06
4.28807e-07
4.84255e-07
6.31825e-06
4.02717e-07
5.70852e-06
3.79743e-07
-2.85059e-07
4.8328e-07
6.37163e-06
3.67543e-07
-9.67424e-08
6.38421e-07
5.34682e-06
-1.24962e-09
6.56904e-07
4.61305e-06
8.83039e-08
7.19005e-07
4.37305e-06
2.60143e-07
6.46522e-07
5.44224e-06
3.16775e-07
5.20872e-07
6.16808e-06
4.09119e-07
5.35298e-06
2.8853e-07
-2.31064e-07
5.82962e-06
2.39409e-07
4.47865e-07
-1.35143e-07
6.41474e-06
5.96988e-07
1.50778e-10
6.62441e-06
7.11636e-07
1.41962e-07
6.61106e-06
7.25868e-07
2.1365e-07
6.25538e-06
6.08998e-07
2.24774e-07
5.58144e-06
4.80645e-07
4.84908e-06
2.07069e-07
3.70322e-07
-3.91615e-07
-2.69315e-07
5.67932e-06
3.83434e-07
2.24127e-07
-2.86713e-07
-5.14053e-07
6.15168e-06
3.95914e-07
-6.35478e-08
-7.1537e-07
6.39451e-06
5.25998e-07
1.60176e-07
-6.96189e-07
6.31135e-06
5.10543e-07
2.39308e-07
-4.32481e-07
5.91968e-06
3.50016e-07
2.22064e-07
-2.19148e-07
5.33553e-06
1.99688e-07
-9.52458e-08
4.66677e-06
1.60479e-07
1.13465e-07
-5.85327e-07
-2.16094e-07
6.35283e-06
5.51224e-07
-3.84757e-07
-3.84646e-07
6.57597e-06
-5.73756e-08
-3.91222e-07
6.32602e-06
2.44261e-07
-2.76999e-07
6.07509e-06
4.2815e-07
-2.89705e-07
6.38445e-06
3.86233e-07
-1.61961e-07
5.99939e-06
-4.19562e-08
5.21012e-06
2.88986e-07
-8.17349e-07
1.61282e-08
6.69181e-06
7.80607e-07
-3.48269e-07
4.54837e-09
5.47005e-06
-1.89278e-08
6.39851e-08
3.45359e-06
2.0206e-07
9.80951e-08
2.43661e-06
6.91878e-07
4.289e-08
4.99521e-06
6.11254e-07
6.82793e-08
6.42612e-06
1.00546e-07
5.64026e-06
4.29062e-07
-8.07508e-07
2.96893e-07
6.68367e-06
8.87971e-07
-1.15033e-07
1.92595e-07
3.91205e-06
9.05814e-09
1.14393e-07
1.38398e-06
7.01581e-08
9.49289e-08
1.36951e-06
6.87414e-07
1.98654e-07
3.27511e-06
7.34261e-07
3.4535e-07
6.4377e-06
2.79007e-07
5.85773e-06
5.06932e-07
-6.83083e-07
5.27797e-07
6.68896e-06
7.55234e-07
-2.36635e-07
5.0342e-07
4.18791e-06
4.06245e-09
5.69664e-07
2.26972e-06
1.87783e-07
4.29779e-07
1.52333e-06
6.93216e-07
5.49094e-07
3.90688e-06
6.70547e-07
5.78731e-07
6.51031e-06
4.03175e-07
5.78749e-06
4.67385e-07
-5.08916e-07
5.78843e-07
6.52271e-06
4.92372e-07
-2.69386e-07
8.60169e-07
6.00331e-06
1.06713e-08
1.09682e-06
5.05603e-06
2.69663e-07
1.11388e-06
4.71618e-06
5.17534e-07
8.73551e-07
5.95186e-06
4.68421e-07
6.07234e-07
6.27749e-06
4.1838e-07
5.45979e-06
3.46859e-07
-3.16416e-07
5.95024e-06
2.81442e-07
4.93782e-07
-2.23877e-07
6.50276e-06
7.03093e-07
1.92589e-08
6.78047e-06
8.99056e-07
2.6256e-07
6.72303e-06
9.11602e-07
3.33446e-07
6.35167e-06
7.15897e-07
3.00179e-07
5.70658e-06
5.17328e-07
4.96217e-06
2.39742e-07
3.65595e-07
-1.50683e-07
6.40096e-08
5.7242e-06
1.16945e-07
-7.64953e-08
-1.50945e-07
-4.3864e-08
6.22083e-06
-2.23916e-08
-7.46273e-08
-1.89983e-07
6.46066e-06
4.98684e-08
-1.09155e-09
-1.8096e-07
6.37371e-06
4.79368e-08
-1.09574e-08
-2.08619e-08
5.97789e-06
-2.53917e-08
-4.84276e-08
6.10234e-08
5.37137e-06
-5.89504e-08
6.54808e-08
4.67454e-06
-8.31552e-08
-3.89765e-08
-2.35447e-07
4.21958e-08
6.46645e-06
1.55911e-07
-2.53461e-07
-1.03936e-07
6.91591e-06
-8.77577e-08
-3.38531e-07
7.18199e-06
8.03057e-08
-3.07548e-07
7.07245e-06
6.40593e-08
-6.67659e-08
6.69303e-06
-4.7731e-10
4.62094e-08
6.09104e-06
7.45451e-08
5.24772e-06
-4.6239e-08
-3.96817e-07
6.34313e-08
6.91236e-06
2.58531e-07
-3.81741e-07
-4.3578e-08
6.53615e-06
-6.48167e-08
-7.01185e-08
6.49583e-06
1.64825e-07
-1.82541e-08
5.76954e-06
2.35516e-07
-6.4119e-09
6.29522e-06
1.114e-07
7.63158e-08
6.59321e-06
1.08245e-07
5.70845e-06
9.9552e-09
-6.37518e-07
2.52044e-07
7.14593e-06
3.72528e-07
-2.80178e-07
2.14863e-07
5.84507e-06
-6.84683e-09
7.59867e-08
1.76436e-06
7.56159e-08
5.50098e-08
1.21115e-06
4.84061e-07
2.08159e-07
4.77691e-06
2.53033e-07
2.7487e-07
6.78482e-06
1.9218e-07
5.9495e-06
7.65413e-08
-4.63569e-07
3.37006e-07
7.08697e-06
2.65687e-07
-2.8286e-07
4.13134e-07
5.90783e-06
-1.21286e-08
5.38822e-07
3.23781e-06
1.96535e-07
5.00408e-07
2.67269e-06
4.07739e-07
4.62134e-07
5.46365e-06
2.02358e-07
3.62219e-07
6.80586e-06
2.26469e-07
5.89655e-06
5.91324e-08
-1.84277e-07
2.63645e-07
6.72788e-06
8.71537e-08
-1.96604e-07
4.23914e-07
6.71425e-06
-1.72415e-08
6.90045e-07
6.26503e-06
1.81421e-07
7.31394e-07
6.01878e-06
1.73602e-07
4.55345e-07
6.55409e-06
7.43387e-08
2.78493e-07
6.45793e-06
1.87445e-07
5.56368e-06
1.07223e-08
-5.14124e-08
6.08448e-06
-1.14028e-09
1.82566e-07
-8.76393e-08
6.67201e-06
2.60955e-07
2.63074e-09
6.9958e-06
3.88446e-07
1.09954e-07
6.93811e-06
4.0727e-07
7.61201e-08
6.51695e-06
2.75517e-07
2.62962e-08
5.84954e-06
1.86611e-07
5.0319e-06
8.95358e-09
1.35176e-07
1.67151e-07
5.501e-07
5.63718e-06
-2.02774e-07
-4.28724e-07
3.95453e-08
7.00924e-07
6.19847e-06
-5.49726e-07
-9.55676e-08
6.70722e-07
6.47215e-06
-5.7641e-07
-2.10125e-07
6.32295e-07
6.38235e-06
-5.49061e-07
-3.14101e-07
6.26747e-07
5.94631e-06
-4.90752e-07
-3.46959e-07
4.71512e-07
5.29188e-06
-3.58413e-07
2.63502e-07
4.57426e-06
-3.20375e-07
-1.90385e-07
3.3264e-07
5.18363e-07
6.44682e-06
-3.94372e-07
7.82455e-08
5.34343e-07
6.99033e-06
-1.23849e-07
3.95881e-07
7.28779e-06
-2.66036e-07
3.43421e-07
7.19416e-06
-4.69028e-07
4.96877e-07
6.76316e-06
-5.00995e-07
4.63779e-07
6.08796e-06
2.59285e-07
5.16428e-06
-4.13343e-07
3.67329e-07
3.0552e-07
6.8654e-06
-5.47695e-07
4.26158e-11
1.80451e-07
6.52503e-06
-1.47956e-07
-3.12595e-08
7.16826e-06
-1.73254e-07
-4.11617e-08
6.4976e-06
-4.92069e-07
1.70184e-07
6.38384e-06
-6.21436e-07
2.85423e-07
6.56555e-06
1.82003e-07
5.66272e-06
-4.98721e-07
2.42948e-07
1.56733e-07
7.29812e-06
-5.53156e-07
-2.67023e-07
1.60298e-07
6.30814e-06
-7.82097e-08
1.8045e-07
5.23233e-06
8.05415e-08
1.88173e-07
3.26362e-06
-2.89292e-07
1.91174e-07
5.3326e-06
-6.07936e-07
1.64663e-07
6.93191e-06
9.42337e-08
5.9406e-06
-5.12367e-07
3.47454e-07
-6.53441e-08
7.22831e-06
-5.95792e-07
-3.96485e-08
-5.14392e-08
6.10616e-06
-6.64149e-08
1.94373e-07
5.53142e-06
-1.82043e-08
2.79575e-07
5.32277e-06
-3.87449e-07
1.02757e-09
5.76091e-06
-6.31369e-07
-6.92359e-08
6.82895e-06
-3.0674e-08
5.89011e-06
-4.99325e-07
4.62323e-07
-2.55136e-07
6.64648e-06
-5.62168e-07
1.69687e-07
-3.47397e-07
6.85533e-06
-3.26737e-08
-2.86372e-07
6.39597e-06
-1.87299e-07
-2.40502e-07
6.20643e-06
-4.68803e-07
-3.09891e-07
6.49756e-06
-5.59756e-07
-2.66525e-07
6.33212e-06
-1.29013e-07
5.51959e-06
-4.16346e-07
3.87907e-07
6.06394e-06
-3.95285e-07
-2.43824e-07
2.08561e-07
6.53549e-06
-4.11419e-07
1.21198e-09
6.91927e-06
-4.72461e-07
-1.92016e-07
6.82235e-06
-4.56735e-07
-3.55187e-07
6.33874e-06
-4.08496e-07
-3.57013e-07
5.83915e-06
-2.76159e-07
4.9499e-06
-2.54295e-07
-1.4869e-07
1.83083e-07
4.79115e-07
5.45175e-06
-1.6677e-07
-3.11169e-07
8.57538e-08
6.34638e-07
6.00467e-06
-4.46245e-07
-7.21613e-08
6.73295e-07
6.16843e-06
-5.12835e-07
-2.14061e-07
6.3344e-07
6.10702e-06
-4.75177e-07
-2.86827e-07
5.5406e-07
5.79535e-06
-3.60359e-07
-2.83423e-07
3.59401e-07
5.12877e-06
-2.00415e-07
1.17937e-07
4.43671e-06
-2.36694e-07
-2.74649e-08
3.9115e-07
4.53487e-07
5.98528e-06
-3.93943e-07
1.91465e-07
3.51337e-07
5.41506e-06
-6.31806e-08
3.1489e-07
5.44155e-06
-2.88451e-07
2.85632e-07
5.52789e-06
-4.78162e-07
3.41973e-07
5.45016e-06
-4.57998e-07
3.79358e-07
5.80064e-06
1.42632e-07
4.99662e-06
-3.14989e-07
3.05699e-07
2.677e-07
5.33702e-06
-5.46415e-07
1.54602e-07
1.42489e-07
4.00162e-06
-4.50564e-08
5.39548e-08
4.20756e-06
-2.44556e-07
4.995e-08
4.25021e-06
-4.13382e-07
1.12365e-07
3.96605e-06
-6.26464e-07
2.11955e-07
5.35174e-06
8.95983e-08
5.49343e-06
-4.04821e-07
2.61125e-07
5.67979e-08
5.43863e-06
-5.98108e-07
2.90509e-08
6.27487e-08
4.23726e-06
-3.21956e-08
7.64864e-08
5.65524e-06
-7.99957e-08
6.7413e-08
5.50914e-06
-3.06668e-07
3.89276e-08
3.95518e-06
-6.15109e-07
5.37628e-09
5.12166e-06
-1.53088e-08
5.7026e-06
-4.36267e-07
2.63818e-07
-1.44992e-07
5.3754e-06
-5.83983e-07
6.53749e-08
-1.0992e-07
4.1635e-06
-1.56355e-09
-7.23941e-08
5.74092e-06
-8.83954e-08
-4.85512e-08
4.3559e-06
-2.80167e-07
-1.01862e-07
3.94562e-06
-5.65321e-07
-1.86453e-07
4.91734e-06
-1.15535e-07
5.66371e-06
-3.81379e-07
3.64761e-07
-2.71834e-07
5.58262e-06
-5.14172e-07
1.32811e-07
-3.20958e-07
4.32075e-06
6.49877e-09
-2.77251e-07
4.03681e-06
-1.24988e-07
-2.48284e-07
3.98574e-06
-3.33214e-07
-2.98109e-07
4.0195e-06
-4.71646e-07
-3.10061e-07
5.25177e-06
-1.51489e-07
5.34206e-06
-2.58334e-07
3.6107e-07
5.81932e-06
-3.19659e-07
-1.82978e-07
2.1657e-07
5.62556e-06
-3.68763e-07
2.46864e-08
5.32329e-06
-4.55455e-07
-1.62025e-07
5.05773e-06
-4.45555e-07
-2.81035e-07
5.31868e-06
-3.83946e-07
-2.32546e-07
5.58081e-06
-2.35853e-07
4.7818e-06
-9.84083e-08
-1.15616e-07
-1.90087e-07
-2.56859e-07
5.3192e-06
2.84245e-07
2.95726e-07
-7.56039e-08
-2.58582e-07
5.67785e-06
3.73833e-07
-1.53439e-08
-1.99721e-07
5.69947e-06
3.9388e-07
3.75055e-08
-2.30729e-07
5.64579e-06
4.19824e-07
1.20053e-07
-3.39212e-07
5.54974e-06
4.49676e-07
1.60509e-07
-3.75652e-07
5.02554e-06
4.37223e-07
-3.8251e-07
4.40556e-06
1.37654e-07
4.36342e-07
-1.13887e-07
-1.1854e-07
5.49018e-06
2.91846e-07
8.43451e-09
-1.0099e-07
4.31054e-06
2.03393e-08
-7.75045e-08
3.72345e-06
1.45438e-08
-1.09203e-07
3.65261e-06
1.21652e-07
-1.55553e-07
4.39113e-06
2.38591e-07
-2.32562e-07
5.41113e-06
-2.96173e-07
4.89266e-06
2.56245e-07
-8.07452e-08
-5.82869e-09
4.38053e-06
2.90132e-07
-2.94612e-09
-6.45129e-08
3.75528e-06
2.34717e-08
-3.29222e-08
4.00226e-06
3.66331e-08
-6.14743e-08
3.83304e-06
9.38254e-08
-1.17089e-07
3.54881e-06
2.72395e-07
-8.41084e-08
4.50829e-06
-1.76013e-07
5.29555e-06
3.38454e-07
-1.89053e-08
1.33561e-08
3.94335e-06
2.07014e-07
8.28291e-09
1.40654e-09
4.02394e-06
-1.85402e-09
-6.3462e-08
5.85305e-06
-3.86072e-09
-8.67488e-08
5.45519e-06
1.47665e-08
-3.41969e-08
3.75998e-06
2.23587e-07
-5.63464e-08
3.95955e-06
-8.68984e-08
5.37701e-06
3.77643e-07
-5.91779e-08
7.34636e-08
4.00443e-06
2.49796e-07
3.46102e-10
4.05338e-08
3.97195e-06
7.76673e-09
1.17443e-08
4.34206e-06
3.752e-08
1.02608e-08
4.17477e-06
1.07498e-07
1.76217e-08
3.76801e-06
3.03988e-07
2.45159e-08
3.93781e-06
3.64363e-08
5.34777e-06
4.41546e-07
-8.07164e-08
2.37766e-07
4.84862e-06
3.10084e-07
-7.00355e-09
1.62604e-07
3.35798e-06
2.77055e-08
1.03012e-07
3.83143e-06
6.48865e-08
9.94898e-08
3.79648e-06
1.57617e-07
1.39677e-07
3.31934e-06
4.07395e-07
2.03324e-07
4.61045e-06
1.67662e-07
5.16031e-06
4.58492e-07
-1.23572e-07
5.52041e-06
2.39148e-07
3.69255e-07
-4.16256e-09
5.02758e-06
4.49098e-07
4.20433e-08
4.41862e-06
4.2112e-07
1.055e-07
4.12599e-06
3.93258e-07
2.71754e-07
4.73035e-06
4.34715e-07
3.89255e-07
5.28623e-06
3.51862e-07
4.67646e-06
4.14646e-07
2.48349e-07
-5.72786e-07
-8.81391e-07
5.31741e-06
6.77845e-07
7.76333e-07
-2.88873e-07
-1.07409e-06
5.5643e-06
1.08686e-06
5.17414e-10
-1.00683e-06
5.53387e-06
1.24726e-06
2.66509e-07
-1.01014e-06
5.491e-06
1.26357e-06
4.68638e-07
-1.14758e-06
5.46786e-06
1.15606e-06
4.93092e-07
-1.003e-06
5.04746e-06
9.5652e-07
-7.92238e-07
4.5036e-06
3.855e-07
8.01889e-07
-6.16821e-07
-5.98425e-07
5.30647e-06
9.09712e-07
-2.06851e-07
-3.7852e-07
4.18806e-06
3.72211e-08
-3.64528e-07
3.78069e-06
2.69971e-07
-3.80917e-07
3.70345e-06
6.54309e-07
-4.17867e-07
4.26544e-06
8.0803e-07
-7.40804e-07
5.27141e-06
-6.7586e-07
4.91107e-06
6.7359e-07
-3.4678e-07
-2.38117e-07
4.30367e-06
1.077e-06
-1.10898e-07
-1.85121e-07
3.20209e-06
5.29006e-08
-2.1039e-07
3.64846e-06
2.02214e-07
-2.61729e-07
3.58764e-06
3.92864e-07
-2.25632e-07
3.08566e-06
1.04317e-06
-3.32454e-07
4.37839e-06
-4.1951e-07
5.22795e-06
9.24221e-07
-3.14554e-07
4.92095e-09
3.92391e-06
1.01113e-06
-7.41862e-08
-2.39986e-08
3.51974e-06
3.22785e-08
-8.16507e-08
4.29667e-06
2.50665e-07
-6.2568e-08
3.94475e-06
3.77902e-07
-5.25368e-08
3.39015e-06
1.0352e-06
-5.36142e-08
3.93696e-06
-1.18438e-07
5.27289e-06
1.0629e-06
-3.55652e-07
2.98769e-07
3.93694e-06
1.04617e-06
-9.98804e-08
1.99997e-07
3.41741e-06
7.15482e-08
1.49309e-07
3.89333e-06
1.91292e-07
1.1779e-07
3.83404e-06
4.16123e-07
1.57566e-07
3.28412e-06
1.08865e-06
2.41923e-07
3.98289e-06
1.85402e-07
5.24086e-06
1.10652e-06
-5.3261e-07
7.14682e-07
4.76278e-06
1.06541e-06
-1.46936e-07
6.58403e-07
3.41276e-06
4.97687e-08
4.43741e-07
3.26593e-06
2.32893e-07
4.23959e-07
3.25777e-06
6.30911e-07
6.09183e-07
3.31568e-06
1.11998e-06
6.56709e-07
4.6866e-06
4.216e-07
5.08774e-06
9.73684e-07
-5.85179e-07
5.39909e-06
7.27118e-07
8.11563e-07
-2.26993e-07
5.01298e-06
1.1697e-06
5.7135e-08
4.45667e-06
1.25843e-06
3.30914e-07
4.2295e-06
1.18456e-06
7.1305e-07
4.83238e-06
1.13243e-06
8.28233e-07
5.16693e-06
7.97091e-07
4.68835e-06
7.37209e-07
4.99506e-07
-6.22187e-07
-8.91651e-07
5.41647e-06
6.76203e-07
7.39436e-07
-3.85472e-07
-1.32308e-06
5.72179e-06
1.09217e-06
-5.51404e-08
-1.53316e-06
5.85829e-06
1.31718e-06
2.56186e-07
-1.53e-06
5.80512e-06
1.34332e-06
4.09535e-07
-1.37022e-06
5.57934e-06
1.18669e-06
3.86077e-07
-1.05651e-06
5.15672e-06
9.70658e-07
-8.25819e-07
4.64268e-06
2.60149e-07
8.12773e-07
-8.28855e-07
-7.69586e-07
5.77735e-06
9.45518e-07
-4.14236e-07
-9.25141e-07
5.84967e-06
6.14702e-09
-8.99973e-07
5.64938e-06
3.8905e-07
-5.83809e-07
5.43733e-06
7.4817e-07
-9.45107e-07
5.68633e-06
7.49509e-07
-8.97536e-07
5.52763e-06
-7.36057e-07
5.00735e-06
5.64168e-07
-9.47234e-07
-3.81595e-07
5.89825e-06
1.30226e-06
-3.35453e-07
-3.55617e-07
4.72243e-06
5.03521e-08
-3.23876e-07
3.84763e-06
2.88306e-07
-3.07015e-07
3.0492e-06
9.20437e-07
-3.71383e-07
4.53903e-06
1.12499e-06
-4.91668e-07
5.61219e-06
-4.99035e-07
5.29e-06
8.41121e-07
-9.36684e-07
2.0746e-08
5.82854e-06
1.45925e-06
-2.54882e-07
1.55196e-08
4.26536e-06
8.67248e-08
-1.38784e-09
3.57076e-06
2.91e-07
-1.42363e-08
3.40702e-06
9.23353e-07
-2.3687e-08
3.91088e-06
1.32856e-06
-6.49306e-08
5.60077e-06
-1.62201e-07
5.42105e-06
1.00309e-06
-9.33381e-07
4.2759e-07
5.78624e-06
1.40511e-06
-3.57762e-07
4.8925e-07
4.39794e-06
6.74288e-08
4.76341e-07
4.17643e-06
3.22714e-07
2.98541e-07
3.22546e-06
9.58205e-07
4.16319e-07
4.06694e-06
1.31165e-06