/*--------------------------------*- C++ -*----------------------------------*\
| =========                 |                                                 |
| \\      /  F ield         | OpenFOAM: The Open Source CFD Toolbox           |
|  \\    /   O peration     | Version:  plus.master.MPPICInterFoam            |
|   \\  /    A nd           | Web:      www.OpenFOAM.com                      |
|    \\/     M anipulation  |                                                 |
\*---------------------------------------------------------------------------*/
FoamFile
{
    version     2.0;
    format      ascii;
    class       volScalarField;
    location    "3.8";
    object      epsilon;
}
// * * * * * * * * * * * * * * * * * * * * * * * * * * * * * * * * * * * * * //

dimensions      [0 2 -3 0 0 0 0];

internalField   nonuniform List<scalar> 
11821
(
0.428278
0.471926
0.335098
0.403785
0.328936
0.250508
0.275243
0.340824
0.401632
0.439416
0.405422
0.336844
0.260127
0.334466
0.433049
0.554368
0.667231
0.575201
0.44662
0.33011
0.380618
0.526041
0.716769
0.749572
0.774486
0.570925
0.392718
0.394281
0.563544
0.821769
0.821274
0.808438
0.65067
0.42038
0.360016
0.490003
0.674828
0.813394
0.739253
0.541512
0.37778
0.304601
0.391227
0.493263
0.575137
0.519277
0.412678
0.308778
0.244353
0.300913
0.353931
0.385405
0.362017
0.304857
0.239373
0.292475
0.363253
0.421409
0.446458
0.407594
0.337419
0.258513
0.359154
0.457654
0.556427
0.625657
0.554008
0.437114
0.325811
0.40618
0.545299
0.678998
0.738901
0.708601
0.532827
0.379418
0.416069
0.572889
0.755011
0.748694
0.786549
0.5747
0.397259
0.379183
0.498765
0.643827
0.763155
0.654058
0.498563
0.361181
0.32096
0.403437
0.487386
0.537787
0.486022
0.394568
0.300132
0.255812
0.312653
0.359587
0.379433
0.353451
0.298874
0.235542
0.309853
0.394459
0.461487
0.480217
0.428417
0.344623
0.257536
0.394612
0.508271
0.580227
0.661184
0.579695
0.453712
0.328803
0.455344
0.566275
0.71494
0.749192
0.724087
0.549164
0.384266
0.466814
0.591673
0.758902
0.747493
0.785024
0.583733
0.399708
0.420756
0.54795
0.6629
0.767907
0.663594
0.50709
0.362778
0.348146
0.443655
0.529206
0.566021
0.502611
0.401832
0.300744
0.270568
0.334548
0.384332
0.398122
0.364009
0.302643
0.23557
0.318563
0.417808
0.501053
0.514433
0.443042
0.345287
0.252895
0.423566
0.571023
0.692177
0.727978
0.623214
0.46782
0.327739
0.508312
0.635617
0.760002
0.811564
0.779417
0.580336
0.388475
0.527505
0.648766
0.833928
0.79735
0.841105
0.615137
0.405034
0.466591
0.618853
0.670943
0.782796
0.702568
0.529279
0.36591
0.374431
0.492613
0.597808
0.622228
0.534482
0.413345
0.301999
0.28374
0.356551
0.41353
0.423538
0.37785
0.30761
0.236278
0.31461
0.417831
0.510077
0.518629
0.43673
0.33547
0.244516
0.429759
0.605933
0.798217
0.806093
0.641571
0.463084
0.319051
0.535288
0.766519
0.761152
0.893168
0.851019
0.588131
0.382146
0.571262
0.828622
0.769189
0.883745
0.930946
0.630549
0.400954
0.493745
0.696318
0.819691
0.842591
0.746676
0.536357
0.363003
0.389348
0.525642
0.653415
0.662439
0.550537
0.416518
0.300733
0.292102
0.370427
0.432698
0.438507
0.384768
0.309609
0.236269
0.302128
0.401184
0.489902
0.498201
0.418022
0.319888
0.23387
0.41638
0.595966
0.807168
0.827678
0.631635
0.445431
0.305868
0.525515
0.783819
0.877456
0.928244
0.868709
0.572673
0.368898
0.56974
0.882804
0.767157
0.947677
0.985192
0.6227
0.390713
0.494684
0.715554
0.912411
0.900669
0.762299
0.532899
0.357131
0.392663
0.531609
0.664472
0.672297
0.552173
0.414553
0.297865
0.295738
0.375947
0.438438
0.442587
0.386183
0.30938
0.2352
0.283801
0.374709
0.456913
0.465873
0.38975
0.299575
0.221535
0.392719
0.559763
0.755329
0.782355
0.594401
0.419341
0.290021
0.501011
0.745153
0.874133
0.909631
0.835954
0.547193
0.353119
0.548626
0.838291
0.83135
0.934924
0.9773
0.604995
0.378668
0.485543
0.67963
0.893231
0.902219
0.751459
0.52345
0.349137
0.388347
0.517124
0.636066
0.654016
0.541519
0.408467
0.292785
0.294702
0.376448
0.439878
0.444624
0.385347
0.306755
0.232587
0.261049
0.338135
0.407894
0.416662
0.350861
0.275113
0.208573
0.356983
0.495598
0.659809
0.691519
0.525534
0.380272
0.27024
0.458986
0.664288
0.791176
0.809635
0.754521
0.501086
0.330244
0.51496
0.750946
0.795314
0.857341
0.8841
0.567271
0.359457
0.465219
0.632377
0.833232
0.843101
0.706842
0.501518
0.336164
0.375186
0.50241
0.622811
0.643965
0.525812
0.39488
0.284788
0.28783
0.368893
0.43693
0.441999
0.377853
0.299982
0.228712
0.239187
0.298341
0.347042
0.352348
0.308732
0.252201
0.197902
0.3167
0.415857
0.517193
0.531785
0.436812
0.336295
0.250876
0.397801
0.544321
0.656726
0.632032
0.590861
0.430118
0.301871
0.456161
0.648015
0.67741
0.742421
0.728825
0.498033
0.331497
0.424562
0.576593
0.666481
0.687831
0.636022
0.458126
0.316753
0.351317
0.464735
0.58617
0.603161
0.488179
0.371761
0.274307
0.276505
0.349213
0.413108
0.418063
0.359251
0.289488
0.224492
0.225968
0.273896
0.308788
0.313044
0.283032
0.238301
0.191358
0.291778
0.369665
0.438003
0.449418
0.38644
0.309272
0.239066
0.35744
0.479691
0.607468
0.634711
0.514708
0.384453
0.28299
0.403027
0.569486
0.554962
0.630246
0.635743
0.440484
0.30945
0.385661
0.521449
0.543569
0.564566
0.568676
0.415991
0.300987
0.332683
0.429599
0.523933
0.540336
0.450679
0.352392
0.267234
0.269068
0.331813
0.380814
0.385857
0.341903
0.282083
0.222246
0.221228
0.265412
0.294445
0.297298
0.272596
0.2325
0.187561
0.284628
0.352014
0.400293
0.407083
0.36388
0.29928
0.234488
0.344167
0.436409
0.50481
0.530189
0.461427
0.366903
0.276691
0.380928
0.479281
0.497387
0.459975
0.530285
0.413601
0.302329
0.374361
0.466025
0.503341
0.525676
0.49991
0.402703
0.297861
0.331754
0.414114
0.473114
0.483122
0.432702
0.350459
0.267379
0.27076
0.331387
0.373351
0.377685
0.34049
0.283232
0.222374
0.218262
0.265577
0.29457
0.296134
0.270762
0.228973
0.183111
0.286505
0.35292
0.393998
0.399331
0.361971
0.298831
0.231407
0.346538
0.389884
0.427157
0.445358
0.424121
0.366631
0.276137
0.381657
0.40832
0.417993
0.446241
0.449333
0.409602
0.303599
0.37987
0.4114
0.422929
0.440325
0.443984
0.403835
0.300598
0.339458
0.405267
0.416086
0.427099
0.416703
0.355072
0.267859
0.273805
0.338672
0.379583
0.382553
0.345177
0.28494
0.219382
0.206086
0.252523
0.281285
0.283306
0.258833
0.218809
0.176007
0.269593
0.320238
0.338901
0.347387
0.333571
0.283806
0.221597
0.316841
0.353177
0.350405
0.368958
0.381775
0.339651
0.264579
0.334009
0.349318
0.350006
0.381257
0.391705
0.366018
0.290387
0.339416
0.365379
0.346207
0.369994
0.397732
0.365376
0.287543
0.317992
0.367021
0.380772
0.388952
0.384282
0.333464
0.25579
0.257249
0.318871
0.348015
0.348913
0.324538
0.26959
0.208373
0.185425
0.226836
0.253612
0.256709
0.236582
0.202467
0.166639
0.238437
0.28886
0.309646
0.317289
0.304137
0.258552
0.20583
0.284311
0.327518
0.331873
0.346801
0.352811
0.311087
0.243656
0.301886
0.330955
0.3106
0.322817
0.369132
0.334118
0.265851
0.303334
0.34388
0.324704
0.341554
0.374487
0.332084
0.262044
0.277739
0.330413
0.349433
0.361893
0.346428
0.29893
0.232598
0.224394
0.279643
0.31169
0.313178
0.288708
0.241126
0.191101
0.16221
0.193257
0.215395
0.220652
0.207238
0.183931
0.157465
0.199782
0.241215
0.269645
0.277838
0.259959
0.22608
0.188287
0.234494
0.268746
0.28398
0.294562
0.297093
0.268047
0.216578
0.253569
0.277166
0.276338
0.297397
0.309832
0.293267
0.233355
0.249831
0.277692
0.284382
0.307797
0.309684
0.288041
0.229246
0.225044
0.268888
0.290658
0.297918
0.292348
0.254297
0.20581
0.187419
0.227764
0.255721
0.261965
0.242952
0.209588
0.173491
0.146328
0.169698
0.186483
0.192756
0.186832
0.17227
0.152895
0.172898
0.203828
0.225931
0.234533
0.225831
0.204452
0.177986
0.196048
0.230094
0.244051
0.252861
0.258086
0.233481
0.199143
0.208651
0.23975
0.245957
0.246015
0.272045
0.250087
0.210672
0.206297
0.239404
0.254989
0.251941
0.269399
0.245992
0.206642
0.189285
0.225416
0.248666
0.256799
0.25007
0.222761
0.188739
0.162351
0.191788
0.212689
0.219768
0.210105
0.188763
0.162556
0.0486581
0.074147
0.142245
0.101492
0.0742205
0.0571796
0.0500062
0.07333
0.313412
0.213056
0.148237
0.105101
0.0766076
0.0588314
0.0511485
0.0739418
0.28335
0.197567
0.140179
0.101271
0.0751723
0.0586959
0.051763
0.0757769
0.232165
0.168717
0.124271
0.0929893
0.0713406
0.0574552
0.0522423
0.0793434
0.182317
0.140134
0.108167
0.0843861
0.0673152
0.0563262
0.0533601
0.0852661
0.18892
0.143697
0.108516
0.0824221
0.0641239
0.0527133
0.0497011
0.0805845
0.234384
0.171485
0.125278
0.0922921
0.0696839
0.0554915
0.0503653
0.0774177
0.272532
0.194948
0.139489
0.100798
0.0746882
0.0583046
0.0516349
0.0764205
0.28639
0.202754
0.14436
0.104063
0.0769548
0.0598859
0.0526988
0.0769723
0.263158
0.189525
0.13726
0.100694
0.0757214
0.059802
0.0532985
0.0788641
0.221373
0.164453
0.123009
0.0931596
0.0722002
0.0586654
0.0538132
0.0825787
0.177649
0.138495
0.108077
0.0850691
0.0683793
0.0576161
0.0549984
0.0887206
0.186822
0.142039
0.107714
0.0824894
0.0648548
0.0538977
0.051329
0.0838177
0.231146
0.169075
0.123953
0.0920541
0.0702386
0.0565491
0.0518461
0.0803694
0.266225
0.191213
0.137519
0.100237
0.075075
0.0592476
0.053005
0.0792161
0.27683
0.197906
0.142042
0.1034
0.0773011
0.0607793
0.0539974
0.079704
0.25565
0.185675
0.135578
0.100397
0.0762237
0.0607258
0.0545724
0.0816055
0.217069
0.162362
0.122359
0.0934031
0.0729323
0.0596565
0.0550969
0.085399
0.175744
0.137794
0.108211
0.0857033
0.0692769
0.0586719
0.0563348
0.0917076
0.184512
0.140056
0.106701
0.0823938
0.0653924
0.0548389
0.0526262
0.0864497
0.229312
0.166704
0.12253
0.0916957
0.0706324
0.0573932
0.0530349
0.0827759
0.264785
0.18865
0.135851
0.0997139
0.0753699
0.0600148
0.0541085
0.0815228
0.274837
0.1953
0.14044
0.102951
0.0776257
0.0615284
0.0550546
0.081997
0.253888
0.183758
0.134605
0.100324
0.0767119
0.0615134
0.0556175
0.0839408
0.216057
0.161556
0.122201
0.0937852
0.0736174
0.0605023
0.0561531
0.0878291
0.17559
0.137921
0.108688
0.0864155
0.0701025
0.059567
0.0574222
0.0942783
0.180879
0.137577
0.105465
0.0821092
0.0657416
0.0555768
0.0536672
0.0885623
0.225646
0.163702
0.120925
0.0912147
0.0708792
0.0580647
0.0540086
0.0847342
0.26197
0.185573
0.134106
0.0991639
0.0755824
0.060654
0.0550414
0.0834398
0.272649
0.192704
0.139016
0.102592
0.077925
0.0621895
0.0559819
0.0839714
0.252346
0.182183
0.133901
0.100352
0.0771829
0.0622306
0.0565604
0.0860237
0.215488
0.161169
0.122303
0.0942311
0.07426
0.0612692
0.0571104
0.0900498
0.175996
0.138419
0.109319
0.0871237
0.0708464
0.0603544
0.0583836
0.0966361
0.175824
0.134516
0.103905
0.081588
0.0658911
0.056137
0.0545307
0.0902402
0.219419
0.159887
0.118965
0.0905218
0.070971
0.0586088
0.0548617
0.0863932
0.255864
0.181617
0.132083
0.0984819
0.0756973
0.061215
0.0559039
0.0851291
0.267689
0.18948
0.137463
0.102158
0.0781661
0.062811
0.0568844
0.0857884
0.249237
0.180302
0.133132
0.100335
0.0776161
0.0629347
0.0575156
0.0880288
0.214377
0.160641
0.122275
0.0945707
0.0748393
0.0620154
0.0580804
0.0922173
0.176124
0.138733
0.109768
0.0876768
0.0714831
0.0610772
0.0593112
0.098888
0.169618
0.130843
0.102061
0.0809388
0.0659505
0.0566123
0.0552914
0.0917472
0.21148
0.155378
0.116762
0.0897377
0.0710121
0.0591069
0.0556608
0.0879848
0.247667
0.176993
0.129858
0.0977341
0.0758006
0.0617747
0.05676
0.0868106
0.261047
0.185723
0.135728
0.101703
0.078442
0.0634797
0.057829
0.087663
0.24519
0.178059
0.132211
0.10028
0.0781074
0.0637165
0.0585456
0.0901505
0.212419
0.159637
0.122043
0.0948449
0.0754574
0.0628139
0.0590964
0.0944638
0.175502
0.138564
0.109968
0.0881258
0.0720798
0.0617668
0.0601904
0.101052
0.163107
0.127235
0.100345
0.0803836
0.0660886
0.0571298
0.0560742
0.0932628
0.203006
0.150863
0.114698
0.0891087
0.0711669
0.0596751
0.0564961
0.089535
0.238779
0.172254
0.127758
0.0971432
0.0760545
0.0624444
0.0576904
0.0885107
0.254014
0.181979
0.13414
0.101426
0.0788975
0.0642803
0.0588627
0.0895453
0.240581
0.175705
0.131399
0.100508
0.0787881
0.0646194
0.0596491
0.0922758
0.209736
0.158529
0.121905
0.095362
0.0761853
0.0636673
0.0601212
0.0965922
0.174377
0.138286
0.110184
0.088611
0.0726701
0.0624273
0.0609977
0.102939
0.156909
0.124129
0.0989854
0.0800491
0.0663257
0.0577505
0.0570193
0.0948617
0.193893
0.14654
0.112912
0.0886849
0.0714314
0.0603378
0.0574763
0.0911388
0.228028
0.167288
0.125832
0.0968579
0.0764419
0.0632042
0.0587352
0.0901598
0.244731
0.177794
0.132669
0.101413
0.0794536
0.0651471
0.0599697
0.0912363
0.234475
0.173127
0.130675
0.100628
0.079411
0.0655194
0.0607648
0.0940202
0.206467
0.157421
0.121821
0.0956739
0.0767995
0.0644714
0.0611215
0.0982533
0.173149
0.138076
0.110421
0.089023
0.0731773
0.0630331
0.0617751
0.104332
0.151844
0.121593
0.0978456
0.0797489
0.0666105
0.0585043
0.058272
0.0971137
0.185606
0.142932
0.111432
0.0882854
0.0716804
0.0610712
0.0586879
0.093256
0.216642
0.162596
0.124055
0.0963521
0.0766988
0.0639458
0.0599066
0.0920761
0.233532
0.173307
0.13112
0.101023
0.0797849
0.0659159
0.0611137
0.092939
0.226818
0.170273
0.129803
0.100632
0.0798664
0.066291
0.0618472
0.0954921
0.202578
0.156141
0.121535
0.0958425
0.0772208
0.0651495
0.0621094
0.0996244
0.171722
0.137706
0.110374
0.0891104
0.073437
0.0635561
0.0626478
0.105626
0.148244
0.119504
0.0967964
0.0794603
0.0669451
0.0593667
0.0597383
0.100068
0.180233
0.140183
0.110042
0.0878078
0.0719011
0.0618337
0.0600051
0.0958591
0.209045
0.159341
0.122536
0.0958151
0.0768374
0.0646119
0.0610985
0.0944128
0.225421
0.170192
0.129733
0.100575
0.079931
0.0665325
0.0622145
0.0950611
0.221197
0.168187
0.128873
0.100308
0.080004
0.0668508
0.0628721
0.0973892
0.200003
0.155074
0.120907
0.0955617
0.0773131
0.0656685
0.0631219
0.101473
0.170571
0.1369
0.109676
0.0886742
0.0734372
0.0640582
0.0637423
0.10775
0.145342
0.117447
0.095688
0.0792503
0.0673889
0.0602723
0.0611406
0.103356
0.176963
0.137737
0.108639
0.0873718
0.072169
0.0625628
0.0611562
0.098598
0.205797
0.156992
0.120998
0.0951506
0.0768918
0.065142
0.0620316
0.0967591
0.222614
0.168244
0.128286
0.0998596
0.0798381
0.0669264
0.0630174
0.0971846
0.219784
0.166788
0.12762
0.0996345
0.0798891
0.0672108
0.0636569
0.0994447
0.199199
0.153667
0.119614
0.094781
0.0772194
0.0660912
0.0640184
0.103686
0.169193
0.135087
0.108183
0.0878997
0.073377
0.0645742
0.064835
0.110429
0.142233
0.115602
0.0951573
0.0795365
0.0681659
0.0612758
0.0623697
0.106679
0.173441
0.135237
0.107665
0.0873699
0.0727338
0.0633395
0.0620483
0.101157
0.202815
0.154148
0.119452
0.0947925
0.0771934
0.065687
0.0626641
0.0988983
0.220314
0.165453
0.126545
0.0992
0.0799424
0.0673146
0.0635062
0.0991435
0.217813
0.164068
0.125865
0.0989158
0.0799349
0.0675511
0.0641146
0.101307
0.196396
0.150771
0.117987
0.0943025
0.0773561
0.066497
0.0645648
0.105618
0.165646
0.132167
0.10657
0.0873397
0.0735114
0.0650661
0.0655836
0.112953
0.138979
0.114468
0.0953202
0.0804707
0.0693483
0.0624129
0.0634904
0.109625
0.168224
0.13291
0.107208
0.0879786
0.0736805
0.0642046
0.0627583
0.10308
0.196229
0.150794
0.118655
0.0950982
0.0778774
0.0662854
0.0630378
0.100061
0.212755
0.161441
0.125317
0.0992737
0.0804153
0.067704
0.0636457
0.099808
0.21021
0.159856
0.124434
0.0988446
0.080268
0.0678208
0.064132
0.101626
0.18928
0.146765
0.116379
0.0939216
0.0775418
0.0667229
0.0645746
0.105781
0.159597
0.128578
0.104921
0.0868832
0.0736446
0.0652974
0.0656416
0.113186
0.135297
0.113615
0.0959959
0.0816777
0.0705434
0.0633866
0.0642596
0.110953
0.160926
0.130427
0.107135
0.0887835
0.0745732
0.0648603
0.0631285
0.103556
0.185336
0.14624
0.117423
0.0953319
0.078418
0.0666239
0.0630268
0.0996522
0.199667
0.155385
0.123239
0.0990139
0.0806107
0.0677567
0.0633286
0.0986816
0.196589
0.153383
0.121956
0.0982078
0.0802085
0.0676941
0.0636432
0.10001
0.17729
0.140983
0.113995
0.0932287
0.0773946
0.0665438
0.0640413
0.103878
0.150801
0.124052
0.102903
0.0862522
0.0734872
0.0651176
0.0650836
0.11093
0.131982
0.113033
0.0966213
0.082625
0.0713726
0.0640068
0.0647211
0.111254
0.153541
0.128062
0.106975
0.0893297
0.0750721
0.065136
0.0631954
0.103172
0.173094
0.14164
0.116228
0.0953407
0.078522
0.0665232
0.0626858
0.0984003
0.184261
0.148924
0.121085
0.0984223
0.080308
0.0673454
0.0626707
0.0967073
0.180674
0.146402
0.119285
0.0972337
0.0796414
0.067104
0.0628313
0.0976452
0.164263
0.134958
0.111575
0.0922119
0.0767673
0.0659339
0.0632287
0.10141
0.141916
0.119713
0.10093
0.085328
0.0729071
0.0645672
0.0643037
0.108209
0.131093
0.113732
0.0977217
0.0835411
0.0719813
0.0643948
0.0650539
0.111786
0.150169
0.12772
0.107593
0.089905
0.0753377
0.0651522
0.0630975
0.102922
0.166251
0.139675
0.11606
0.0953477
0.0783158
0.0661424
0.0621933
0.0973971
0.174706
0.145554
0.120048
0.0978361
0.0796687
0.066617
0.0618683
0.095092
0.170687
0.14237
0.117699
0.0963217
0.0787872
0.0662293
0.0619097
0.0957755
0.156316
0.131469
0.109876
0.0912295
0.0758868
0.0650777
0.0623422
0.099496
0.136491
0.116891
0.0995999
0.0844868
0.0721397
0.063828
0.063525
0.106254
0.187259
0.149387
0.118168
0.0931745
0.0741614
0.0614012
0.0577907
0.0947954
0.229958
0.177749
0.136443
0.104196
0.0799503
0.0634137
0.0567719
0.088273
0.268294
0.204476
0.154085
0.114923
0.0856908
0.0657204
0.056616
0.0843474
0.290191
0.219596
0.163958
0.120661
0.0884538
0.0665306
0.0561484
0.0821124
0.282863
0.214964
0.160482
0.117809
0.0861158
0.0646681
0.0546832
0.080809
0.251402
0.192652
0.144861
0.107277
0.0793715
0.0606739
0.0526557
0.0809402
0.207763
0.162621
0.124533
0.0941536
0.0715506
0.0566685
0.0515338
0.083898
0.194936
0.154577
0.12174
0.0957464
0.0761254
0.0630414
0.0594804
0.0982528
0.241821
0.185444
0.141302
0.107368
0.0821789
0.0651572
0.0584729
0.0916725
0.284374
0.214955
0.160235
0.118545
0.0880257
0.0674661
0.0582969
0.0877442
0.309307
0.231976
0.170789
0.124334
0.0906682
0.0681667
0.0577769
0.0855528
0.302248
0.226626
0.166524
0.120905
0.0879707
0.0661189
0.0562489
0.0842784
0.266842
0.20104
0.148976
0.10941
0.0807976
0.0619713
0.0542208
0.0845106
0.216927
0.167266
0.126792
0.095476
0.072677
0.0579177
0.0532009
0.0877713
0.203376
0.159745
0.125119
0.0980989
0.0778368
0.0643859
0.0607974
0.101188
0.256337
0.193297
0.145783
0.110144
0.0840474
0.0665504
0.0597853
0.0945521
0.306714
0.22611
0.16578
0.121533
0.0898678
0.0688065
0.0595794
0.0906577
0.336975
0.245103
0.17666
0.127145
0.092277
0.0693638
0.0590097
0.0885397
0.327475
0.237942
0.171201
0.122994
0.0891722
0.0671263
0.0574349
0.0873113
0.283055
0.207725
0.15154
0.110557
0.0816281
0.062863
0.0554228
0.0876428
0.224211
0.169955
0.127734
0.0960234
0.0733305
0.058814
0.0545152
0.091192
0.210896
0.16438
0.128103
0.10004
0.0791567
0.0653666
0.0617444
0.103491
0.268776
0.199711
0.149363
0.112292
0.0854253
0.0675403
0.0607183
0.0967917
0.326308
0.23466
0.169749
0.123599
0.0911153
0.0697131
0.0604863
0.0929161
0.361779
0.254745
0.180459
0.128789
0.0932049
0.0700943
0.059851
0.0907941
0.347631
0.245007
0.173498
0.123813
0.0896812
0.0676749
0.0582282
0.0895991
0.293048
0.21056
0.152104
0.110651
0.0818257
0.0633073
0.0562306
0.0900179
0.226809
0.169986
0.127264
0.0957785
0.0734555
0.0592971
0.0554283
0.0938017
0.21588
0.167563
0.130084
0.101261
0.079934
0.065936
0.0623332
0.105106
0.275688
0.203433
0.151438
0.113465
0.0861398
0.0680557
0.0612786
0.0983679
0.335745
0.238465
0.171412
0.124424
0.0915964
0.0701136
0.0610239
0.0945574
0.373272
0.257803
0.181094
0.128865
0.0932502
0.070287
0.0603201
0.0924341
0.353302
0.245204
0.172631
0.123058
0.0893094
0.0676765
0.0586448
0.0912496
0.292274
0.208309
0.150121
0.10938
0.081233
0.0632596
0.0566814
0.0917496
0.223245
0.166906
0.125111
0.0945317
0.0729419
0.059344
0.0559839
0.0956899
0.217929
0.168852
0.130827
0.101714
0.0802046
0.0661271
0.0625813
0.106256
0.277204
0.204235
0.151812
0.113633
0.0862297
0.0681639
0.0615206
0.0995507
0.335033
0.237793
0.17084
0.124016
0.0913672
0.0700874
0.0612467
0.0958494
0.368709
0.254443
0.178817
0.127547
0.0925831
0.070068
0.0604901
0.0937655
0.345111
0.239595
0.169025
0.120969
0.0882414
0.0672897
0.05878
0.0925824
0.282916
0.201978
0.14612
0.107078
0.0800841
0.0628721
0.0568653
0.0931472
0.215082
0.16136
0.121611
0.0925366
0.0719888
0.0590906
0.0562732
0.0971752
0.217307
0.168492
0.130626
0.101599
0.0801429
0.0660644
0.0625825
0.106897
0.27477
0.202768
0.150904
0.113098
0.085917
0.0679975
0.0615003
0.100254
0.329718
0.234457
0.16881
0.122856
0.0907553
0.0697849
0.0612
0.0966338
0.358042
0.248156
0.175235
0.125557
0.0915414
0.0695771
0.0603901
0.0945605
0.331141
0.23114
0.164144
0.118288
0.0868378
0.0666701
0.0586703
0.0934115
0.269045
0.193515
0.141222
0.104391
0.0787208
0.0623044
0.0568344
0.09407
0.204365
0.154618
0.117609
0.0903195
0.0708915
0.0586907
0.0563628
0.0981871
0.213987
0.166882
0.129826
0.101106
0.0797378
0.0657623
0.0624156
0.106867
0.26767
0.199054
0.149054
0.112102
0.0852807
0.0675856
0.0613146
0.100312
0.318066
0.227934
0.165454
0.121098
0.0897508
0.0692167
0.0609735
0.0966932
0.340302
0.238356
0.170127
0.122909
0.0900931
0.0688125
0.0601101
0.0945887
0.309562
0.21956
0.158163
0.115187
0.0852101
0.0658505
0.0584111
0.0935168
0.250729
0.183618
0.135953
0.101578
0.0772187
0.0616063
0.0566912
0.0943449
0.192232
0.147623
0.113631
0.0881112
0.0697386
0.0582195
0.0563759
0.0986153
0.208841
0.164489
0.128426
0.100016
0.0788433
0.0651859
0.0622369
0.106642
0.256467
0.193976
0.146538
0.110501
0.0841327
0.0668744
0.0610985
0.100178
0.298109
0.218656
0.161068
0.118668
0.0881801
0.0683129
0.0607031
0.0965261
0.312434
0.225296
0.163901
0.119565
0.0881125
0.0677606
0.0598182
0.0944425
0.281922
0.206507
0.151751
0.111673
0.0831845
0.064834
0.0581859
0.0934848
0.231629
0.17401
0.130826
0.0986264
0.0755255
0.0608146
0.0566194
0.0945031
0.180909
0.141288
0.109938
0.0858787
0.0684746
0.0577174
0.0564989
0.0989689
0.205071
0.162193
0.126415
0.0980988
0.0773457
0.0643456
0.0621962
0.107372
0.248177
0.190086
0.143936
0.108304
0.082422
0.0658926
0.0609819
0.100933
0.281128
0.211182
0.157022
0.115826
0.0861527
0.067194
0.0605573
0.0973376
0.289197
0.214916
0.158499
0.116108
0.0858821
0.0665888
0.0596833
0.0953076
0.262397
0.197012
0.146436
0.108218
0.080979
0.0637707
0.0581443
0.0944192
0.218935
0.167072
0.126477
0.0956577
0.0736879
0.0600063
0.056766
0.095589
0.173134
0.136302
0.106487
0.0835488
0.0671164
0.0572352
0.0568708
0.100263
0.204072
0.159721
0.123298
0.0952574
0.0753299
0.0632753
0.0620793
0.108903
0.247407
0.188143
0.140916
0.105261
0.0801745
0.0646881
0.060822
0.102576
0.277519
0.208487
0.153671
0.112523
0.0837636
0.0659474
0.0604271
0.0992456
0.281926
0.210752
0.154614
0.112661
0.0834378
0.0653772
0.0596461
0.0974134
0.256277
0.192722
0.142348
0.104861
0.0787466
0.0627298
0.0582311
0.0965641
0.214209
0.162801
0.122563
0.0926474
0.0718564
0.0592855
0.0570607
0.0977985
0.168614
0.132161
0.103061
0.0811239
0.0657652
0.056864
0.0574387
0.10273
0.201089
0.154676
0.118461
0.0916958
0.0731009
0.0621116
0.0618073
0.111064
0.247508
0.183944
0.135857
0.101269
0.0776826
0.0634202
0.0605315
0.104811
0.280116
0.205384
0.148744
0.108393
0.0811812
0.0646775
0.0601979
0.101797
0.283671
0.207466
0.149669
0.108589
0.080949
0.0642343
0.0595336
0.100144
0.25625
0.188619
0.137423
0.101078
0.076598
0.0618259
0.058299
0.0993295
0.211165
0.157816
0.117982
0.0895488
0.0702222
0.0587262
0.0573559
0.100655
0.163872
0.127391
0.099421
0.0788943
0.06474
0.056699
0.0580283
0.10599
0.189382
0.145724
0.112343
0.0879154
0.0709805
0.0610207
0.0613729
0.112386
0.234162
0.173519
0.128585
0.0968186
0.0752342
0.062214
0.0600938
0.106154
0.26521
0.194293
0.141038
0.103723
0.0786818
0.0634906
0.0598053
0.103236
0.268476
0.196525
0.142154
0.104144
0.078663
0.0632169
0.0592685
0.101745
0.242736
0.178591
0.130749
0.0972246
0.0747113
0.0610889
0.0582594
0.101125
0.199707
0.149578
0.112794
0.0867155
0.068956
0.0583734
0.0576067
0.102799
0.155691
0.121745
0.0960196
0.0771875
0.064142
0.0567501
0.0585699
0.108608
0.169573
0.133237
0.104901
0.0837316
0.0687268
0.0598365
0.0607391
0.112117
0.207132
0.156494
0.118714
0.0914648
0.0724887
0.060884
0.0594801
0.105905
0.234874
0.174589
0.129673
0.0976471
0.0756814
0.062122
0.0592224
0.102898
0.238463
0.176957
0.131012
0.0982514
0.0758745
0.0620448
0.058854
0.101558
0.216755
0.16198
0.121467
0.0925385
0.0725887
0.0603203
0.058152
0.10147
0.17988
0.137777
0.106432
0.0836577
0.0677166
0.0581018
0.0578512
0.103744
0.143568
0.114736
0.0923658
0.0755846
0.0636922
0.0569153
0.0590842
0.109982
0.147823
0.120178
0.0973703
0.0795559
0.0664945
0.0587095
0.0601855
0.111197
0.174849
0.137765
0.108302
0.085915
0.0696989
0.0596022
0.0589853
0.105125
0.194829
0.151158
0.116884
0.0910746
0.0724868
0.060737
0.0587528
0.101993
0.198268
0.153362
0.118232
0.091822
0.0728772
0.0608427
0.0585756
0.100859
0.182796
0.142683
0.111294
0.0875668
0.0704427
0.0596642
0.058248
0.101402
0.157019
0.125061
0.0998774
0.0806401
0.0666136
0.0580291
0.0583443
0.104413
0.130324
0.107476
0.0887891
0.0741272
0.0634093
0.0572726
0.0598279
0.11104
0.132221
0.110623
0.091844
0.0764555
0.0648557
0.057977
0.0600418
0.11098
0.151929
0.12406
0.100678
0.081887
0.0677224
0.0588388
0.0589565
0.105161
0.165526
0.133871
0.107372
0.0861959
0.0702193
0.0599466
0.0588349
0.102132
0.168003
0.135792
0.108796
0.0871456
0.0708083
0.0602852
0.0589001
0.101314
0.15814
0.128624
0.103988
0.0841749
0.0691891
0.0596169
0.0589564
0.102468
0.14078
0.116144
0.0955473
0.0788934
0.0662863
0.058525
0.0594161
0.106131
0.121187
0.102714
0.0867351
0.0735915
0.0637252
0.058111
0.0611242
0.113143
0.208372
0.162406
0.123783
0.0931439
0.0705319
0.0557682
0.050702
0.0823043
0.255201
0.192872
0.142483
0.103616
0.0755774
0.0573563
0.0497871
0.0765418
0.294317
0.218114
0.157699
0.111948
0.0795762
0.0588129
0.0496244
0.0734766
0.311237
0.226261
0.161341
0.113307
0.0798705
0.0586978
0.0492928
0.0722501
0.289045
0.210016
0.14996
0.106042
0.0757281
0.0566646
0.0485562
0.0723396
0.242461
0.178044
0.129319
0.0938061
0.0692518
0.0538414
0.0480438
0.0743972
0.189487
0.143915
0.108356
0.081908
0.0633494
0.0517788
0.0486494
0.0790552
0.216986
0.166553
0.125674
0.0942433
0.0715464
0.0569777
0.0523611
0.0860499
0.267808
0.198661
0.144673
0.104575
0.0764174
0.0584566
0.0513632
0.0801332
0.307856
0.22441
0.159748
0.112599
0.0802032
0.059819
0.0511567
0.076987
0.319708
0.230323
0.162288
0.113404
0.0802784
0.0596385
0.0508049
0.075671
0.292501
0.210916
0.149512
0.105707
0.0760612
0.0576201
0.0500826
0.0756483
0.242405
0.176934
0.128285
0.0935012
0.0697268
0.0548998
0.0496194
0.0776085
0.187637
0.142222
0.107429
0.0818698
0.0640187
0.0529354
0.0502685
0.0822499
0.223398
0.168595
0.126166
0.0945226
0.0720579
0.0578074
0.0536326
0.0892875
0.279627
0.201959
0.14501
0.104491
0.0766848
0.0591758
0.0525821
0.0832617
0.323961
0.228746
0.159855
0.112142
0.0802495
0.0604576
0.0523528
0.0800422
0.333395
0.233158
0.161591
0.112587
0.0802002
0.0602545
0.0520017
0.0786249
0.298761
0.210734
0.147926
0.104742
0.0760279
0.0582899
0.0512949
0.0784467
0.242562
0.174923
0.126592
0.0928165
0.0699186
0.0556824
0.0508586
0.0802367
0.185371
0.1401
0.106262
0.0816582
0.0644813
0.053833
0.0515437
0.0848294
0.224769
0.167838
0.125192
0.0940086
0.0720734
0.0582691
0.0545566
0.0918753
0.284036
0.20099
0.143316
0.103454
0.0764392
0.0595379
0.0534706
0.0857231
0.332511
0.227898
0.15758
0.110644
0.0797841
0.0607476
0.0532215
0.0823943
0.339523
0.231023
0.15865
0.110843
0.0796708
0.0605503
0.0528829
0.0808811
0.298575
0.207006
0.144827
0.103149
0.0756503
0.0586793
0.0522172
0.0806278
0.238726
0.171051
0.124129
0.0917509
0.0698479
0.0562183
0.0518252
0.0823517
0.181528
0.137384
0.104818
0.0812127
0.0647291
0.0545211
0.052564
0.0869303
0.22033
0.164243
0.122809
0.0926721
0.0715525
0.0583506
0.0551567
0.0937635
0.278373
0.195792
0.139804
0.101503
0.0756438
0.0595236
0.0540467
0.0875248
0.326589
0.221322
0.153023
0.108146
0.0787662
0.0606767
0.0537979
0.0841388
0.331897
0.223588
0.153736
0.108221
0.0786424
0.0605176
0.0534947
0.0825733
0.289377
0.199826
0.140441
0.100958
0.0748991
0.0588116
0.0529161
0.0823331
0.23065
0.165579
0.121008
0.0903334
0.0695241
0.0565608
0.0526181
0.0841004
0.176125
0.134005
0.103026
0.0805477
0.0647931
0.0550403
0.0534257
0.0887355
0.211791
0.158515
0.119262
0.0906984
0.0706614
0.0581738
0.0555192
0.0952811
0.266106
0.187698
0.13496
0.0988949
0.0744766
0.0592632
0.0544075
0.0889969
0.311014
0.211092
0.147026
0.105025
0.0774211
0.0603909
0.05418
0.0855925
0.31557
0.21287
0.147526
0.105049
0.0773563
0.0603107
0.0539377
0.0840158
0.275108
0.190652
0.135246
0.0984113
0.0739728
0.0588108
0.0534774
0.0838514
0.220203
0.159108
0.117474
0.0887307
0.0690861
0.0568082
0.0533044
0.0857338
0.169562
0.130086
0.100991
0.0797638
0.0647781
0.0554823
0.0541992
0.0904263
0.200992
0.151795
0.115305
0.0885833
0.0696788
0.0578878
0.0557171
0.096395
0.250392
0.178303
0.129702
0.0961834
0.0732717
0.0589457
0.0546497
0.0901529
0.291271
0.199431
0.140659
0.10184
0.0760695
0.0600615
0.0544604
0.0867448
0.295497
0.200997
0.141117
0.101943
0.0761109
0.0600815
0.0543009
0.0852066
0.257981
0.180773
0.130061
0.0959974
0.0731247
0.0588067
0.0539788
0.0851759
0.208201
0.152427
0.114071
0.0872514
0.0687286
0.057068
0.0539636
0.0872567
0.162503
0.126156
0.0990767
0.0790769
0.0648209
0.0559482
0.0549817
0.0921261
0.188934
0.144927
0.111494
0.0865342
0.0686778
0.057562
0.0558712
0.0969888
0.231629
0.168342
0.12451
0.0935855
0.072097
0.0586023
0.0548737
0.0908801
0.266351
0.186538
0.134235
0.0987969
0.0747773
0.0597388
0.0547502
0.0875311
0.269931
0.187882
0.134723
0.0990077
0.074957
0.0598868
0.0547011
0.0861257
0.238055
0.17064
0.125199
0.0938638
0.0723781
0.0588586
0.0545449
0.0863459
0.195786
0.146162
0.111114
0.0860561
0.0684827
0.0573923
0.0547085
0.088732
0.155883
0.122779
0.0975508
0.0786144
0.0649765
0.056513
0.0559072
0.0939344
0.177743
0.13874
0.107961
0.084491
0.0676058
0.0572305
0.0561733
0.0976431
0.213088
0.15917
0.119772
0.0910675
0.0708863
0.0582877
0.0552602
0.0917345
0.239937
0.174349
0.12841
0.095933
0.0734938
0.0594552
0.0552087
0.0885078
0.24263
0.175491
0.128992
0.0963267
0.0738266
0.0597403
0.0552773
0.0873118
0.219048
0.161799
0.121026
0.0919117
0.0716882
0.0589745
0.0552927
0.0878535
0.184998
0.140972
0.108632
0.08499
0.0682725
0.0577908
0.0556524
0.0905976
0.150502
0.120083
0.0963095
0.0782325
0.0651819
0.0571964
0.0571006
0.0962627
0.170224
0.133998
0.10478
0.0823769