/*--------------------------------*- C++ -*----------------------------------*\
| =========                 |                                                 |
| \\      /  F ield         | OpenFOAM: The Open Source CFD Toolbox           |
|  \\    /   O peration     | Version:  plus.master.MPPICInterFoam            |
|   \\  /    A nd           | Web:      www.OpenFOAM.com                      |
|    \\/     M anipulation  |                                                 |
\*---------------------------------------------------------------------------*/
FoamFile
{
    version     2.0;
    format      ascii;
    class       volScalarField;
    location    "4.4";
    object      epsilon;
}
// * * * * * * * * * * * * * * * * * * * * * * * * * * * * * * * * * * * * * //

dimensions      [0 2 -3 0 0 0 0];

internalField   nonuniform List<scalar> 
11821
(
9.33202e-05
4.49302e-05
4.05442e-05
4.09922e-05
4.20572e-05
4.27428e-05
4.27164e-05
4.18688e-05
9.3462e-05
4.50119e-05
4.05478e-05
4.09719e-05
4.20339e-05
4.27259e-05
4.27098e-05
4.18737e-05
9.3594e-05
4.50429e-05
4.05435e-05
4.0958e-05
4.20197e-05
4.27153e-05
4.27041e-05
4.18726e-05
9.36828e-05
4.50573e-05
4.05392e-05
4.09492e-05
4.20109e-05
4.27084e-05
4.26998e-05
4.1871e-05
9.37367e-05
4.50433e-05
4.05334e-05
4.09476e-05
4.20107e-05
4.2708e-05
4.26984e-05
4.18683e-05
9.37456e-05
4.50178e-05
4.05292e-05
4.09516e-05
4.20162e-05
4.27117e-05
4.2699e-05
4.18659e-05
9.37341e-05
4.49444e-05
4.05175e-05
4.09614e-05
4.20302e-05
4.27216e-05
4.2701e-05
4.18588e-05
9.31938e-05
4.48791e-05
4.05205e-05
4.09772e-05
4.20453e-05
4.27322e-05
4.27065e-05
4.18596e-05
9.33206e-05
4.49524e-05
4.05264e-05
4.09623e-05
4.20276e-05
4.27197e-05
4.27028e-05
4.18655e-05
9.34369e-05
4.49849e-05
4.05253e-05
4.09516e-05
4.20161e-05
4.27113e-05
4.26985e-05
4.18655e-05
9.35159e-05
4.50017e-05
4.05235e-05
4.0945e-05
4.20092e-05
4.2706e-05
4.26956e-05
4.18651e-05
9.35624e-05
4.49926e-05
4.05193e-05
4.09436e-05
4.20088e-05
4.27054e-05
4.26944e-05
4.1863e-05
9.35678e-05
4.49714e-05
4.05157e-05
4.09466e-05
4.2013e-05
4.27082e-05
4.26948e-05
4.18609e-05
9.35511e-05
4.49111e-05
4.05056e-05
4.09539e-05
4.20237e-05
4.27156e-05
4.26958e-05
4.18546e-05
9.31141e-05
4.48434e-05
4.05053e-05
4.09684e-05
4.20387e-05
4.27261e-05
4.27004e-05
4.18534e-05
9.32287e-05
4.49068e-05
4.05116e-05
4.09572e-05
4.20249e-05
4.27166e-05
4.2698e-05
4.18589e-05
9.33322e-05
4.49383e-05
4.05122e-05
4.09489e-05
4.20157e-05
4.27099e-05
4.2695e-05
4.18596e-05
9.34032e-05
4.49554e-05
4.05118e-05
4.09437e-05
4.20101e-05
4.27056e-05
4.26928e-05
4.18597e-05
9.34438e-05
4.49498e-05
4.05088e-05
4.09425e-05
4.20096e-05
4.2705e-05
4.26919e-05
4.18582e-05
9.34471e-05
4.49325e-05
4.05058e-05
4.09448e-05
4.20128e-05
4.27072e-05
4.26921e-05
4.18565e-05
9.34276e-05
4.48838e-05
4.04974e-05
4.09503e-05
4.2021e-05
4.27127e-05
4.26926e-05
4.18512e-05
9.30645e-05
4.48183e-05
4.04954e-05
4.09635e-05
4.20352e-05
4.27227e-05
4.26965e-05
4.1849e-05
9.317e-05
4.48719e-05
4.05013e-05
4.09549e-05
4.20244e-05
4.27153e-05
4.26949e-05
4.18538e-05
9.32639e-05
4.4901e-05
4.05029e-05
4.09484e-05
4.2017e-05
4.27099e-05
4.26927e-05
4.18547e-05
9.33287e-05
4.49173e-05
4.05031e-05
4.09443e-05
4.20124e-05
4.27065e-05
4.2691e-05
4.18551e-05
9.33649e-05
4.49142e-05
4.0501e-05
4.09432e-05
4.20118e-05
4.27059e-05
4.26902e-05
4.18539e-05
9.33668e-05
4.49001e-05
4.04984e-05
4.09449e-05
4.20142e-05
4.27075e-05
4.26904e-05
4.18526e-05
9.33456e-05
4.48613e-05
4.04917e-05
4.0949e-05
4.20205e-05
4.27117e-05
4.26907e-05
4.18484e-05
9.30353e-05
4.48004e-05
4.04891e-05
4.09611e-05
4.20337e-05
4.27209e-05
4.26941e-05
4.18459e-05
9.31348e-05
4.48452e-05
4.04943e-05
4.09543e-05
4.20252e-05
4.27151e-05
4.26929e-05
4.18498e-05
9.32217e-05
4.48712e-05
4.04961e-05
4.09492e-05
4.20192e-05
4.27108e-05
4.26912e-05
4.18507e-05
9.3282e-05
4.48861e-05
4.04968e-05
4.09459e-05
4.20154e-05
4.2708e-05
4.26899e-05
4.18511e-05
9.33149e-05
4.48847e-05
4.04952e-05
4.09449e-05
4.20147e-05
4.27074e-05
4.26892e-05
4.18503e-05
9.33159e-05
4.48733e-05
4.0493e-05
4.09461e-05
4.20165e-05
4.27085e-05
4.26893e-05
4.18492e-05
9.32936e-05
4.48426e-05
4.04877e-05
4.09492e-05
4.20213e-05
4.27118e-05
4.26896e-05
4.1846e-05
9.30205e-05
4.47875e-05
4.04851e-05
4.096e-05
4.20333e-05
4.27202e-05
4.26926e-05
4.18435e-05
9.31163e-05
4.48244e-05
4.04894e-05
4.09547e-05
4.20266e-05
4.27156e-05
4.26917e-05
4.18466e-05
9.31987e-05
4.48472e-05
4.04912e-05
4.09506e-05
4.20217e-05
4.2712e-05
4.26902e-05
4.18473e-05
9.32561e-05
4.48605e-05
4.0492e-05
4.0948e-05
4.20186e-05
4.27097e-05
4.26891e-05
4.18477e-05
9.32867e-05
4.48603e-05
4.04908e-05
4.09471e-05
4.20179e-05
4.27091e-05
4.26886e-05
4.18471e-05
9.3287e-05
4.48511e-05
4.0489e-05
4.09478e-05
4.20192e-05
4.271e-05
4.26886e-05
4.18463e-05
9.32637e-05
4.4827e-05
4.04848e-05
4.09502e-05
4.20229e-05
4.27125e-05
4.26889e-05
4.1844e-05
9.30166e-05
4.47782e-05
4.04826e-05
4.09598e-05
4.20335e-05
4.272e-05
4.26916e-05
4.18418e-05
9.31106e-05
4.48084e-05
4.0486e-05
4.09557e-05
4.20283e-05
4.27164e-05
4.26908e-05
4.1844e-05
9.31907e-05
4.4828e-05
4.04878e-05
4.09525e-05
4.20244e-05
4.27135e-05
4.26896e-05
4.18445e-05
9.32466e-05
4.48397e-05
4.04885e-05
4.09504e-05
4.20219e-05
4.27116e-05
4.26887e-05
4.18447e-05
9.32758e-05
4.48402e-05
4.04877e-05
4.09495e-05
4.20212e-05
4.2711e-05
4.26882e-05
4.18443e-05
9.32756e-05
4.4833e-05
4.04861e-05
4.095e-05
4.20221e-05
4.27116e-05
4.26883e-05
4.18438e-05
9.32515e-05
4.48142e-05
4.04829e-05
4.09517e-05
4.20248e-05
4.27135e-05
4.26885e-05
4.18421e-05
9.30224e-05
4.47721e-05
4.04814e-05
4.09603e-05
4.20342e-05
4.27201e-05
4.2691e-05
4.18404e-05
9.3116e-05
4.47964e-05
4.0484e-05
4.09571e-05
4.20302e-05
4.27173e-05
4.26903e-05
4.18419e-05
9.31958e-05
4.48132e-05
4.04856e-05
4.09546e-05
4.20271e-05
4.2715e-05
4.26892e-05
4.18422e-05
9.32514e-05
4.48233e-05
4.04863e-05
4.09529e-05
4.2025e-05
4.27134e-05
4.26884e-05
4.18422e-05
9.32803e-05
4.48244e-05
4.04857e-05
4.09522e-05
4.20244e-05
4.27129e-05
4.2688e-05
4.18419e-05
9.32798e-05
4.48188e-05
4.04844e-05
4.09524e-05
4.2025e-05
4.27133e-05
4.2688e-05
4.18415e-05
9.32549e-05
4.48043e-05
4.0482e-05
4.09537e-05
4.2027e-05
4.27147e-05
4.26882e-05
4.18404e-05
9.30388e-05
4.47695e-05
4.04816e-05
4.09614e-05
4.20351e-05
4.27204e-05
4.26905e-05
4.18391e-05
9.31331e-05
4.47886e-05
4.04834e-05
4.0959e-05
4.20322e-05
4.27183e-05
4.26899e-05
4.18401e-05
9.32143e-05
4.48027e-05
4.04848e-05
4.09571e-05
4.20298e-05
4.27165e-05
4.26889e-05
4.184e-05
9.32712e-05
4.48115e-05
4.04854e-05
4.09558e-05
4.20282e-05
4.27151e-05
4.26881e-05
4.18399e-05
9.33004e-05
4.48131e-05
4.0485e-05
4.09551e-05
4.20276e-05
4.27146e-05
4.26877e-05
4.18396e-05
9.32999e-05
4.48089e-05
4.04841e-05
4.09552e-05
4.20279e-05
4.27148e-05
4.26877e-05
4.18394e-05
9.32743e-05
4.47979e-05
4.04823e-05
4.09561e-05
4.20293e-05
4.27158e-05
4.26879e-05
4.18387e-05
9.30679e-05
4.47711e-05
4.04833e-05
4.09631e-05
4.20363e-05
4.27208e-05
4.269e-05
4.1838e-05
9.3165e-05
4.47859e-05
4.04846e-05
4.09614e-05
4.20343e-05
4.27193e-05
4.26895e-05
4.18384e-05
9.32492e-05
4.47978e-05
4.04858e-05
4.09601e-05
4.20325e-05
4.27178e-05
4.26885e-05
4.1838e-05
9.33086e-05
4.48055e-05
4.04864e-05
4.09591e-05
4.20313e-05
4.27167e-05
4.26877e-05
4.18376e-05
9.33393e-05
4.48075e-05
4.04862e-05
4.09585e-05
4.20306e-05
4.27161e-05
4.26873e-05
4.18373e-05
9.33394e-05
4.48047e-05
4.04855e-05
4.09584e-05
4.20307e-05
4.27162e-05
4.26872e-05
4.18372e-05
9.33132e-05
4.47969e-05
4.04843e-05
4.0959e-05
4.20316e-05
4.27168e-05
4.26873e-05
4.18368e-05
9.31105e-05
4.47768e-05
4.04865e-05
4.09655e-05
4.20378e-05
4.27212e-05
4.26894e-05
4.18366e-05
9.32164e-05
4.47898e-05
4.0488e-05
4.09646e-05
4.20365e-05
4.27201e-05
4.26888e-05
4.18365e-05
9.33068e-05
4.48005e-05
4.04893e-05
4.09639e-05
4.20353e-05
4.27189e-05
4.26878e-05
4.18358e-05
9.33707e-05
4.48077e-05
4.049e-05
4.09632e-05
4.20343e-05
4.27179e-05
4.2687e-05
4.18352e-05
9.3405e-05
4.48106e-05
4.04901e-05
4.09627e-05
4.20337e-05
4.27173e-05
4.26864e-05
4.18347e-05
9.34075e-05
4.48098e-05
4.04897e-05
4.09625e-05
4.20335e-05
4.27172e-05
4.26863e-05
4.18347e-05
9.33818e-05
4.48053e-05
4.0489e-05
4.09627e-05
4.20339e-05
4.27175e-05
4.26864e-05
4.18346e-05
9.31668e-05
4.47867e-05
4.04913e-05
4.09687e-05
4.20396e-05
4.27217e-05
4.26888e-05
4.18351e-05
9.32921e-05
4.48019e-05
4.04941e-05
4.09687e-05
4.20389e-05
4.27208e-05
4.26879e-05
4.18344e-05
9.33964e-05
4.48142e-05
4.04963e-05
4.09687e-05
4.20382e-05
4.27197e-05
4.26867e-05
4.18332e-05
9.34689e-05
4.48224e-05
4.04975e-05
4.09684e-05
4.20374e-05
4.27188e-05
4.26857e-05
4.18323e-05
9.35066e-05
4.48259e-05
4.04977e-05
4.0968e-05
4.20369e-05
4.27182e-05
4.26851e-05
4.18318e-05
9.35063e-05
4.48247e-05
4.04971e-05
4.09676e-05
4.20366e-05
4.2718e-05
4.2685e-05
4.18319e-05
9.34717e-05
4.48192e-05
4.04958e-05
4.09673e-05
4.20366e-05
4.27182e-05
4.26853e-05
4.18322e-05
9.32357e-05
4.47997e-05
4.04979e-05
4.0973e-05
4.20422e-05
4.27226e-05
4.2688e-05
4.18331e-05
9.33839e-05
4.48182e-05
4.05021e-05
4.0974e-05
4.20421e-05
4.27218e-05
4.26869e-05
4.1832e-05
9.35058e-05
4.48332e-05
4.05054e-05
4.09747e-05
4.20417e-05
4.27208e-05
4.26855e-05
4.18304e-05
9.35898e-05
4.4843e-05
4.05073e-05
4.09748e-05
4.20412e-05
4.27198e-05
4.26843e-05
4.18293e-05
9.36314e-05
4.4847e-05
4.05078e-05
4.09745e-05
4.20406e-05
4.27192e-05
4.26837e-05
4.18287e-05
9.36283e-05
4.48452e-05
4.05068e-05
4.09739e-05
4.20402e-05
4.2719e-05
4.26836e-05
4.18288e-05
9.35834e-05
4.48382e-05
4.05049e-05
4.09732e-05
4.20401e-05
4.27192e-05
4.26841e-05
4.18294e-05
9.33212e-05
4.48172e-05
4.0507e-05
4.09791e-05
4.2046e-05
4.27241e-05
4.26873e-05
4.18307e-05
9.34953e-05
4.48395e-05
4.05128e-05
4.09811e-05
4.20463e-05
4.27233e-05
4.2686e-05
4.18293e-05
9.36372e-05
4.48572e-05
4.05173e-05
4.09825e-05
4.20463e-05
4.27223e-05
4.26843e-05
4.18273e-05
9.37343e-05
4.48689e-05
4.052e-05
4.0983e-05
4.2046e-05
4.27214e-05
4.26829e-05
4.18258e-05
9.37813e-05
4.48736e-05
4.05207e-05
4.09829e-05
4.20456e-05
4.27207e-05
4.26822e-05
4.18251e-05
9.37757e-05
4.48714e-05
4.05195e-05
4.09821e-05
4.2045e-05
4.27205e-05
4.26821e-05
4.18252e-05
9.37203e-05
4.48629e-05
4.05169e-05
4.0981e-05
4.20446e-05
4.27206e-05
4.26828e-05
4.18262e-05
9.31306e-05
4.4786e-05
4.05044e-05
4.09836e-05
4.2052e-05
4.27297e-05
4.26926e-05
4.18362e-05
9.33969e-05
4.47987e-05
4.05181e-05
4.09991e-05
4.20618e-05
4.27284e-05
4.26786e-05
4.18134e-05
9.32522e-05
4.47951e-05
4.05236e-05
4.10075e-05
4.20725e-05
9.41766e-05
4.4857e-05
9.29994e-05
9.29234e-05
4.47557e-05
4.04898e-05
4.09725e-05
4.20434e-05
4.2724e-05
4.26895e-05
4.1835e-05
9.30824e-05
4.47601e-05
4.04981e-05
4.09829e-05
4.20501e-05
4.27228e-05
4.26792e-05
4.1818e-05
9.29415e-05
4.47553e-05
4.05007e-05
4.09867e-05
4.20555e-05
4.27315e-05
4.26932e-05
4.18369e-05
9.35503e-05
4.47893e-05
4.0534e-05
4.10267e-05
4.2089e-05
4.2747e-05
4.26854e-05
4.18131e-05
9.27494e-05
4.47441e-05
4.04995e-05
4.09848e-05
4.20533e-05
4.27294e-05
4.26903e-05
4.18328e-05
9.29157e-05
4.47538e-05
4.05059e-05
4.09894e-05
4.20523e-05
4.27205e-05
4.26734e-05
4.181e-05
9.2598e-05
4.47499e-05
4.05029e-05
4.09825e-05
4.20481e-05
4.27236e-05
4.26851e-05
4.18273e-05
9.27914e-05
4.47366e-05
4.04811e-05
4.09663e-05
4.2039e-05
4.27213e-05
4.26885e-05
4.1835e-05
9.28752e-05
4.47358e-05
4.04859e-05
4.09731e-05
4.20434e-05
4.27204e-05
4.26813e-05
4.18234e-05
9.27471e-05
4.47305e-05
4.04868e-05
4.09745e-05
4.20458e-05
4.27251e-05
4.26891e-05
4.18338e-05
9.31438e-05
4.4749e-05
4.05068e-05
4.09988e-05
4.20645e-05
4.27302e-05
4.26774e-05
4.18102e-05
9.26052e-05
4.47232e-05
4.04873e-05
4.09742e-05
4.20444e-05
4.27229e-05
4.26864e-05
4.18305e-05
9.27392e-05
4.47308e-05
4.04937e-05
4.098e-05
4.20465e-05
4.27192e-05
4.26763e-05
4.18159e-05
9.25403e-05
4.47333e-05
4.04939e-05
4.09764e-05
4.20439e-05
4.27211e-05
4.2684e-05
4.18273e-05
9.27055e-05
4.47242e-05
4.04757e-05
4.09626e-05
4.20365e-05
4.272e-05
4.26882e-05
4.18353e-05
9.2737e-05
4.47201e-05
4.04782e-05
4.0967e-05
4.20394e-05
4.27192e-05
4.26831e-05
4.18272e-05
9.26239e-05
4.47149e-05
4.04785e-05
4.09674e-05
4.20402e-05
4.27216e-05
4.26876e-05
4.18335e-05
9.28761e-05
4.4724e-05
4.04904e-05
4.09825e-05
4.20513e-05
4.2723e-05
4.26772e-05
4.18145e-05
9.2515e-05
4.47098e-05
4.04799e-05
4.09682e-05
4.20399e-05
4.27203e-05
4.26856e-05
4.18308e-05
9.26178e-05
4.47152e-05
4.04852e-05
4.09736e-05
4.20427e-05
4.27187e-05
4.26791e-05
4.18208e-05
9.24995e-05
4.47209e-05
4.04871e-05
4.09722e-05
4.20413e-05
4.27199e-05
4.26838e-05
4.18278e-05
9.26471e-05
4.4716e-05
4.04722e-05
4.09603e-05
4.2035e-05
4.27194e-05
4.26883e-05
4.18359e-05
9.26416e-05
4.47096e-05
4.04732e-05
4.09631e-05
4.20369e-05
4.27188e-05
4.26848e-05
4.18303e-05
9.25419e-05
4.47043e-05
4.04731e-05
4.09632e-05
4.20372e-05
4.272e-05
4.26874e-05
4.18342e-05
9.26954e-05
4.47077e-05
4.04802e-05
4.09726e-05
4.20438e-05
4.272e-05
4.26792e-05
4.182e-05
9.2453e-05
4.47001e-05
4.04747e-05
4.09644e-05
4.20373e-05
4.27192e-05
4.26858e-05
4.18319e-05
9.25285e-05
4.47037e-05
4.04789e-05
4.09689e-05
4.20399e-05
4.27185e-05
4.26814e-05
4.18248e-05
9.24645e-05
4.47108e-05
4.04817e-05
4.09687e-05
4.20394e-05
4.27193e-05
4.26842e-05
4.1829e-05
9.2605e-05
4.47104e-05
4.04699e-05
4.09587e-05
4.2034e-05
4.2719e-05
4.26885e-05
4.18365e-05
9.25722e-05
4.47022e-05
4.04696e-05
4.09603e-05
4.20351e-05
4.27186e-05
4.26861e-05
4.18327e-05
9.24827e-05
4.46968e-05
4.04694e-05
4.09603e-05
4.20352e-05
4.27192e-05
4.26877e-05
4.18351e-05
9.25683e-05
4.46963e-05
4.04733e-05
4.09662e-05
4.20392e-05
4.27187e-05
4.26816e-05
4.18249e-05
9.24043e-05
4.46923e-05
4.04707e-05
4.09616e-05
4.20355e-05
4.27186e-05
4.26863e-05
4.18331e-05
9.24574e-05
4.46946e-05
4.04739e-05
4.0965e-05
4.20377e-05
4.27183e-05
4.26832e-05
4.1828e-05
9.24291e-05
4.47018e-05
4.04769e-05
4.09657e-05
4.20377e-05
4.27189e-05
4.26849e-05
4.18303e-05
9.25725e-05
4.47069e-05
4.04683e-05
4.09575e-05
4.20332e-05
4.27188e-05
4.26888e-05
4.18372e-05
9.25183e-05
4.46969e-05
4.04671e-05
4.09582e-05
4.20338e-05
4.27184e-05
4.26872e-05
4.18346e-05
9.24356e-05
4.46913e-05
4.04667e-05
4.09581e-05
4.20337e-05
4.27186e-05
4.2688e-05
4.1836e-05
9.24732e-05
4.46877e-05
4.04685e-05
4.09617e-05
4.20362e-05
4.27181e-05
4.26838e-05
4.1829e-05
9.23606e-05
4.46858e-05
4.04675e-05
4.09592e-05
4.20341e-05
4.27181e-05
4.26868e-05
4.18342e-05
9.23957e-05
4.46868e-05
4.04696e-05
4.09618e-05
4.20358e-05
4.27181e-05
4.26847e-05
4.18307e-05
9.23901e-05
4.46934e-05
4.04725e-05
4.09628e-05
4.20362e-05
4.27185e-05
4.26856e-05
4.18319e-05
9.25453e-05
4.47051e-05
4.04674e-05
4.09565e-05
4.20325e-05
4.27185e-05
4.2689e-05
4.18379e-05
9.24745e-05
4.46939e-05
4.04655e-05
4.09566e-05
4.20327e-05
4.27182e-05
4.2688e-05
4.18363e-05
9.23959e-05
4.46885e-05
4.04651e-05
4.09564e-05
4.20324e-05
4.27181e-05
4.26883e-05
4.1837e-05
9.2397e-05
4.46814e-05
4.0465e-05
4.09584e-05
4.20339e-05
4.27177e-05
4.26855e-05
4.18323e-05
9.23186e-05
4.46812e-05
4.0465e-05
4.09572e-05
4.20327e-05
4.27176e-05
4.26872e-05
4.18354e-05
9.23383e-05
4.46802e-05
4.04662e-05
4.09589e-05
4.2034e-05
4.27178e-05
4.2686e-05
4.18331e-05
9.23464e-05
4.46859e-05
4.04686e-05
4.09601e-05
4.20346e-05
4.27182e-05
4.26864e-05
4.18335e-05
9.25211e-05
4.47049e-05
4.04671e-05
4.09558e-05
4.20319e-05
4.27183e-05
4.26894e-05
4.18387e-05
9.24382e-05
4.46936e-05
4.0465e-05
4.09554e-05
4.20317e-05
4.2718e-05
4.26887e-05
4.18377e-05
9.23647e-05
4.46896e-05
4.04648e-05
4.09552e-05
4.20313e-05
4.27175e-05
4.26886e-05
4.1838e-05
9.23332e-05
4.46779e-05
4.04629e-05
4.0956e-05
4.20322e-05
4.27174e-05
4.26869e-05
4.1835e-05
9.22823e-05
4.46808e-05
4.0464e-05
4.09555e-05
4.20313e-05
4.2717e-05
4.26876e-05
4.18367e-05
9.22842e-05
4.4676e-05
4.04637e-05
4.09566e-05
4.20323e-05
4.27174e-05
4.2687e-05
4.18352e-05
9.23e-05
4.46804e-05
4.04657e-05
4.09578e-05
4.2033e-05
4.27177e-05
4.26871e-05
4.18352e-05
9.24985e-05
4.47064e-05
4.04674e-05
4.09553e-05
4.20314e-05
4.27182e-05
4.26897e-05
4.18395e-05
9.2408e-05
4.46964e-05
4.04656e-05
4.09546e-05
4.20308e-05
4.27176e-05
4.26892e-05
4.1839e-05
9.23334e-05
4.46925e-05
4.04653e-05
4.09543e-05
4.20302e-05
4.2717e-05
4.26889e-05
4.18391e-05
9.22813e-05
4.4679e-05
4.04626e-05
4.09543e-05
4.20306e-05
4.2717e-05
4.26879e-05
4.18372e-05
9.22458e-05
4.46833e-05
4.0464e-05
4.09542e-05
4.20299e-05
4.27164e-05
4.26879e-05
4.1838e-05
9.22387e-05
4.46775e-05
4.04631e-05
4.09547e-05
4.20307e-05
4.27167e-05
4.26876e-05
4.1837e-05
9.22585e-05
4.46806e-05
4.04646e-05
4.09559e-05
4.20314e-05
4.2717e-05
4.26876e-05
4.18368e-05
9.24744e-05
4.47085e-05
4.04681e-05
4.09551e-05
4.2031e-05
4.27181e-05
4.26901e-05
4.18403e-05
9.23772e-05
4.47003e-05
4.04666e-05
4.09542e-05
4.20301e-05
4.27173e-05
4.26895e-05
4.18401e-05
9.2298e-05
4.46958e-05
4.04661e-05
4.09537e-05
4.20293e-05
4.27166e-05
4.26891e-05
4.18401e-05
9.22408e-05
4.46857e-05
4.0464e-05
4.09533e-05
4.20292e-05
4.27163e-05
4.26884e-05
4.18389e-05
9.22052e-05
4.46873e-05
4.04648e-05
4.09532e-05
4.20287e-05
4.27157e-05
4.26882e-05
4.18392e-05
9.21958e-05
4.46824e-05
4.04639e-05
4.09535e-05
4.20291e-05
4.27159e-05
4.2688e-05
4.18386e-05
9.22156e-05
4.46838e-05
4.04647e-05
4.09544e-05
4.20299e-05
4.27163e-05
4.2688e-05
4.18383e-05
9.24486e-05
4.47115e-05
4.04694e-05
4.09553e-05
4.20309e-05
4.27181e-05
4.26904e-05
4.18411e-05
9.23431e-05
4.47043e-05
4.04681e-05
4.09541e-05
4.20297e-05
4.27171e-05
4.26899e-05
4.1841e-05
9.22578e-05
4.46998e-05
4.04675e-05
4.09534e-05
4.20286e-05
4.27162e-05
4.26894e-05
4.18411e-05
9.21961e-05
4.46922e-05
4.0466e-05
4.09528e-05
4.20281e-05
4.27157e-05
4.26887e-05
4.18403e-05
9.21583e-05
4.4692e-05
4.04662e-05
4.09525e-05
4.20276e-05
4.27151e-05
4.26885e-05
4.18404e-05
9.21482e-05
4.46884e-05
4.04655e-05
4.09527e-05
4.20278e-05
4.27152e-05
4.26883e-05
4.184e-05
9.21689e-05
4.46889e-05
4.04659e-05
4.09535e-05
4.20286e-05
4.27156e-05
4.26884e-05
4.18398e-05
9.24216e-05
4.47156e-05
4.04717e-05
4.09562e-05
4.20314e-05
4.27185e-05
4.26909e-05
4.18417e-05
9.23061e-05
4.47092e-05
4.04705e-05
4.09548e-05
4.20297e-05
4.27172e-05
4.26903e-05
4.18419e-05
9.22132e-05
4.47047e-05
4.04698e-05
4.09537e-05
4.20284e-05
4.27161e-05
4.26898e-05
4.1842e-05
9.21459e-05
4.46988e-05
4.04686e-05
4.09529e-05
4.20276e-05
4.27153e-05
4.26891e-05
4.18414e-05
9.21049e-05
4.46976e-05
4.04685e-05
4.09525e-05
4.20269e-05
4.27147e-05
4.26888e-05
4.18415e-05
9.20941e-05
4.4695e-05
4.04679e-05
4.09525e-05
4.2027e-05
4.27147e-05
4.26887e-05
4.18413e-05
9.21166e-05
4.46954e-05
4.04682e-05
4.09533e-05
4.20277e-05
4.27152e-05
4.26888e-05
4.18411e-05
9.23948e-05
4.47219e-05
4.04757e-05
4.09585e-05
4.20327e-05
4.27194e-05
4.26915e-05
4.18421e-05
9.22678e-05
4.47158e-05
4.04745e-05
4.09567e-05
4.20307e-05
4.27179e-05
4.26909e-05
4.18425e-05
9.21657e-05
4.47113e-05
4.04737e-05
4.09553e-05
4.2029e-05
4.27166e-05
4.26903e-05
4.18427e-05
9.20914e-05
4.47065e-05
4.04726e-05
4.09543e-05
4.20278e-05
4.27155e-05
4.26896e-05
4.18423e-05
9.20462e-05
4.47049e-05
4.04723e-05
4.09537e-05
4.2027e-05
4.27148e-05
4.26893e-05
4.18425e-05
9.2034e-05
4.47029e-05
4.04718e-05
4.09535e-05
4.20269e-05
4.27147e-05
4.26891e-05
4.18424e-05
9.20586e-05
4.47035e-05
4.04721e-05
4.09542e-05
4.20277e-05
4.27152e-05
4.26893e-05
4.18422e-05
9.33268e-05
9.45214e-05
4.50616e-05
9.36123e-05
4.49522e-05
4.06338e-05
4.10912e-05
4.21362e-05
9.36363e-05
4.49227e-05
4.05992e-05
4.10588e-05
4.21067e-05
4.27618e-05
4.27027e-05
4.18289e-05
9.31916e-05
4.48739e-05
4.05526e-05
4.10175e-05
4.20818e-05
4.27598e-05
4.27243e-05
4.18689e-05
9.26915e-05
4.47702e-05
4.05176e-05
4.09939e-05
4.20557e-05
4.27274e-05
4.26857e-05
4.18258e-05
9.30935e-05
4.48322e-05
4.05515e-05
4.10181e-05
4.20684e-05
4.27262e-05
4.26706e-05
4.18006e-05
9.30848e-05
4.48422e-05
4.05636e-05
4.10305e-05
4.20816e-05
4.27412e-05
4.26881e-05
4.18202e-05
9.39246e-05
4.49428e-05
4.06298e-05
4.10937e-05
4.21341e-05
4.2774e-05
4.26975e-05
4.18115e-05
9.33361e-05
4.48787e-05
4.05798e-05
4.10444e-05
4.20958e-05
4.27562e-05
4.27039e-05
4.18365e-05
9.33967e-05
4.48628e-05
4.05592e-05
4.10266e-05
4.20819e-05
4.27448e-05
4.2693e-05
4.1825e-05
9.30708e-05
4.48275e-05
4.05245e-05
4.09958e-05
4.20637e-05
4.27445e-05
4.27113e-05
4.18578e-05
9.26242e-05
4.47494e-05
4.05049e-05
4.09848e-05
4.20492e-05
4.27232e-05
4.26833e-05
4.18247e-05
9.29424e-05
4.47969e-05
4.05306e-05
4.10034e-05
4.20594e-05
4.2723e-05
4.26727e-05
4.18066e-05
9.2938e-05
4.48034e-05
4.05362e-05
4.10082e-05
4.20645e-05
4.27295e-05
4.26813e-05
4.1817e-05
9.35377e-05
4.48711e-05
4.05771e-05
4.10464e-05
4.2095e-05
4.2746e-05
4.26811e-05
4.18042e-05
9.31547e-05
4.48317e-05
4.05465e-05
4.10167e-05
4.20739e-05
4.27399e-05
4.26926e-05
4.18289e-05
9.32306e-05
4.48231e-05
4.05329e-05
4.10058e-05
4.20664e-05
4.27351e-05
4.26888e-05
4.18251e-05
9.29992e-05
4.47978e-05
4.05068e-05
4.09824e-05
4.20526e-05
4.2735e-05
4.2703e-05
4.18503e-05
9.25748e-05
4.47341e-05
4.04956e-05
4.09784e-05
4.20452e-05
4.27212e-05
4.26829e-05
4.18255e-05
9.2829e-05
4.47711e-05
4.0515e-05
4.09925e-05
4.2053e-05
4.27213e-05
4.26751e-05
4.18119e-05
9.28351e-05
4.47775e-05
4.05185e-05
4.09946e-05
4.20551e-05
4.27244e-05
4.26801e-05
4.18185e-05
9.32732e-05
4.48242e-05
4.05443e-05
4.10182e-05
4.20733e-05
4.27328e-05
4.26767e-05
4.18062e-05
9.30314e-05
4.48006e-05
4.0525e-05
4.09995e-05
4.2061e-05
4.27315e-05
4.26881e-05
4.18272e-05
9.31132e-05
4.47965e-05
4.05154e-05
4.09921e-05
4.20565e-05
4.27294e-05
4.26871e-05
4.18264e-05
9.29582e-05
4.47791e-05
4.04959e-05
4.09743e-05
4.2046e-05
4.27294e-05
4.26981e-05
4.18457e-05
9.25326e-05
4.47221e-05
4.04883e-05
4.09735e-05
4.20422e-05
4.272e-05
4.26832e-05
4.18267e-05
9.27384e-05
4.47512e-05
4.05031e-05
4.09841e-05
4.20483e-05
4.27203e-05
4.26776e-05
4.18168e-05
9.27579e-05
4.47583e-05
4.05058e-05
4.09853e-05
4.20492e-05
4.2722e-05
4.26807e-05
4.18212e-05
9.30874e-05
4.47922e-05
4.05228e-05
4.10003e-05
4.20604e-05
4.27264e-05
4.26769e-05
4.18111e-05
9.29451e-05
4.47793e-05
4.05105e-05
4.09883e-05
4.2053e-05
4.27269e-05
4.26865e-05
4.18276e-05
9.30301e-05
4.47786e-05
4.05037e-05
4.09828e-05
4.205e-05
4.27259e-05
4.26866e-05
4.18281e-05
9.29369e-05
4.47676e-05
4.04892e-05
4.09694e-05
4.2042e-05
4.2726e-05
4.26949e-05
4.18427e-05
9.2492e-05
4.47119e-05
4.04822e-05
4.09694e-05
4.20399e-05
4.27193e-05
4.26839e-05
4.18284e-05
9.26616e-05
4.47351e-05
4.04935e-05
4.09775e-05
4.20446e-05
4.27197e-05
4.26798e-05
4.18211e-05
9.26962e-05
4.47435e-05
4.04962e-05
4.09784e-05
4.20451e-05
4.27208e-05
4.26819e-05
4.18241e-05
9.29528e-05
4.47695e-05
4.05079e-05
4.09883e-05
4.20523e-05
4.27232e-05
4.26786e-05
4.18164e-05
9.28829e-05
4.47642e-05
4.05003e-05
4.09805e-05
4.20478e-05
4.27243e-05
4.26861e-05
4.18288e-05
9.29713e-05
4.47665e-05
4.04956e-05
4.09765e-05
4.20457e-05
4.27239e-05
4.26867e-05
4.18298e-05
9.2928e-05
4.47608e-05
4.04852e-05
4.09665e-05
4.20397e-05
4.27239e-05
4.2693e-05
4.18407e-05
9.24496e-05
4.47026e-05
4.04769e-05
4.09658e-05
4.20379e-05
4.27189e-05
4.26848e-05
4.18303e-05
9.25928e-05
4.47217e-05
4.04857e-05
4.0972e-05
4.20415e-05
4.27193e-05
4.26819e-05
4.18248e-05
9.26433e-05
4.47314e-05
4.04887e-05
4.09731e-05
4.20421e-05
4.27201e-05
4.26833e-05
4.18268e-05
9.28518e-05
4.47527e-05
4.04972e-05
4.09799e-05
4.20469e-05
4.27216e-05
4.26807e-05
4.18212e-05
9.28359e-05
4.47533e-05
4.0493e-05
4.0975e-05
4.20442e-05
4.27228e-05
4.26864e-05
4.18303e-05
9.29301e-05
4.47583e-05
4.04902e-05
4.09722e-05
4.20428e-05
4.27226e-05
4.26871e-05
4.18314e-05
9.29275e-05
4.47571e-05
4.04829e-05
4.09649e-05
4.20384e-05
4.27226e-05
4.26917e-05
4.18394e-05
9.24038e-05
4.46941e-05
4.04723e-05
4.09626e-05
4.20361e-05
4.27186e-05
4.26858e-05
4.18322e-05
9.25279e-05
4.47101e-05
4.04792e-05
4.09675e-05
4.2039e-05
4.27191e-05
4.26837e-05
4.18281e-05
9.25948e-05
4.47212e-05
4.04826e-05
4.09689e-05
4.20398e-05
4.27198e-05
4.26847e-05
4.18294e-05
9.27724e-05
4.47398e-05
4.04892e-05
4.09739e-05
4.20432e-05
4.27208e-05
4.26828e-05
4.18253e-05
9.27989e-05
4.4745e-05
4.04876e-05
4.09711e-05
4.20418e-05
4.2722e-05
4.2687e-05
4.18318e-05
9.29016e-05
4.47528e-05
4.04864e-05
4.09693e-05
4.20409e-05
4.2722e-05
4.26876e-05
4.18327e-05
9.29333e-05
4.47556e-05
4.04819e-05
4.09642e-05
4.20377e-05
4.2722e-05
4.26909e-05
4.18385e-05
9.23552e-05
4.46873e-05
4.04686e-05
4.09598e-05
4.20344e-05
4.27182e-05
4.26867e-05
4.18341e-05
9.24656e-05
4.47003e-05
4.0474e-05
4.09638e-05
4.20369e-05
4.27189e-05
4.26853e-05
4.18311e-05
9.25484e-05
4.47125e-05
4.04777e-05
4.09655e-05
4.2038e-05
4.27196e-05
4.2686e-05
4.18317e-05
9.2707e-05
4.47296e-05
4.04833e-05
4.09694e-05
4.20407e-05
4.27205e-05
4.26847e-05
4.18288e-05
9.27688e-05
4.47388e-05
4.04837e-05
4.09683e-05
4.20401e-05
4.27216e-05
4.26877e-05
4.18333e-05
9.28829e-05
4.47494e-05
4.04841e-05
4.09675e-05
4.20397e-05
4.27216e-05
4.26881e-05
4.18339e-05
9.29451e-05
4.4756e-05
4.04819e-05
4.09642e-05
4.20376e-05
4.27217e-05
4.26904e-05
4.18378e-05
9.23091e-05
4.46846e-05
4.04665e-05
4.09576e-05
4.20328e-05
4.27177e-05
4.26874e-05
4.18359e-05
9.24065e-05
4.4693e-05
4.04701e-05
4.09608e-05
4.20351e-05
4.27187e-05
4.26867e-05
4.18337e-05
9.25023e-05
4.47057e-05
4.0474e-05
4.09629e-05
4.20365e-05
4.27195e-05
4.26872e-05
4.18339e-05
9.2651e-05
4.47218e-05
4.0479e-05
4.09663e-05
4.20389e-05
4.27204e-05
4.26864e-05
4.18317e-05
9.27444e-05
4.47344e-05
4.0481e-05
4.09663e-05
4.20391e-05
4.27215e-05
4.26885e-05
4.18346e-05
9.28718e-05
4.47478e-05
4.04828e-05
4.09665e-05
4.20391e-05
4.27216e-05
4.26887e-05
4.18348e-05
9.29634e-05
4.47583e-05
4.04828e-05
4.09648e-05
4.20379e-05
4.27217e-05
4.26901e-05
4.18373e-05
9.2267e-05
4.46868e-05
4.04661e-05
4.0956e-05
4.20313e-05
4.27171e-05
4.2688e-05
4.18375e-05
9.23552e-05
4.4691e-05
4.04684e-05
4.09587e-05
4.20336e-05
4.27183e-05
4.26878e-05
4.18359e-05
9.24597e-05
4.47027e-05
4.04721e-05
4.09611e-05
4.20354e-05
4.27194e-05
4.26882e-05
4.18357e-05
9.2604e-05
4.47166e-05
4.04763e-05
4.09642e-05
4.20377e-05
4.27206e-05
4.26878e-05
4.1834e-05
9.27242e-05
4.47317e-05
4.04795e-05
4.09653e-05
4.20386e-05
4.27216e-05
4.26892e-05
4.18357e-05
9.28678e-05
4.47479e-05
4.04827e-05
4.09663e-05
4.20391e-05
4.27219e-05
4.26892e-05
4.18354e-05
9.29885e-05
4.47626e-05
4.04847e-05
4.0966e-05
4.20387e-05
4.27219e-05
4.26899e-05
4.18367e-05
9.22225e-05
4.46912e-05
4.0467e-05
4.0955e-05
4.203e-05
4.27165e-05
4.26884e-05
4.18391e-05
9.23118e-05
4.46948e-05
4.04688e-05
4.09575e-05
4.20324e-05
4.27179e-05
4.26885e-05
4.18377e-05
9.24249e-05
4.47053e-05
4.04723e-05
4.09602e-05
4.20345e-05
4.27193e-05
4.26889e-05
4.18372e-05
9.25671e-05
4.47156e-05
4.04756e-05
4.09632e-05
4.20371e-05
4.27208e-05
4.2689e-05
4.18359e-05
9.27098e-05
4.4732e-05
4.04796e-05
4.09652e-05
4.20386e-05
4.27219e-05
4.26898e-05
4.18365e-05
9.2871e-05
4.47499e-05
4.04838e-05
4.09671e-05
4.20397e-05
4.27224e-05
4.26896e-05
4.18358e-05
9.30207e-05
4.47687e-05
4.04878e-05
4.09681e-05
4.20399e-05
4.27224e-05
4.26897e-05
4.1836e-05
9.21745e-05
4.46977e-05
4.04693e-05
4.09549e-05
4.20292e-05
4.27161e-05
4.26889e-05
4.18404e-05
9.22683e-05
4.47012e-05
4.0471e-05
4.09574e-05
4.20317e-05
4.27177e-05
4.26892e-05
4.18393e-05
9.23913e-05
4.47105e-05
4.04742e-05
4.09604e-05
4.20343e-05
4.27194e-05
4.26896e-05
4.18385e-05
9.25429e-05
4.47206e-05
4.04775e-05
4.09637e-05
4.20372e-05
4.27212e-05
4.26899e-05
4.18372e-05
9.27044e-05
4.47365e-05
4.04818e-05
4.09664e-05
4.20394e-05
4.27226e-05
4.26904e-05
4.18371e-05
9.2883e-05
4.47546e-05
4.04866e-05
4.09691e-05
4.20411e-05
4.27233e-05
4.26901e-05
4.18359e-05
9.30626e-05
4.47777e-05
4.04926e-05
4.09713e-05
4.2042e-05
4.27234e-05
4.26896e-05
4.18351e-05
9.21223e-05
4.47062e-05
4.04732e-05
4.0956e-05
4.20293e-05
4.27162e-05
4.26895e-05
4.18416e-05
9.22242e-05
4.47103e-05
4.04751e-05
4.09588e-05
4.2032e-05
4.2718e-05
4.26899e-05
4.18405e-05
9.23589e-05
4.47187e-05
4.04782e-05
4.09621e-05
4.20351e-05
4.272e-05
4.26904e-05
4.18395e-05
9.25243e-05
4.47289e-05
4.04817e-05
4.09659e-05
4.20385e-05
4.27221e-05
4.26907e-05
4.18381e-05
9.27065e-05
4.47445e-05
4.04864e-05
4.09694e-05
4.20414e-05
4.27239e-05
4.26911e-05
4.18373e-05
9.29072e-05
4.47636e-05
4.04921e-05
4.0973e-05
4.20438e-05
4.27248e-05
4.26906e-05
4.18356e-05
9.31185e-05
4.4791e-05
4.05e-05
4.09765e-05
4.20454e-05
4.2725e-05
4.26896e-05
4.18339e-05
9.37066e-05
4.48908e-05
4.05143e-05
4.09751e-05
4.2046e-05
4.27327e-05
4.27055e-05
4.18571e-05
9.40694e-05
4.48737e-05
4.05322e-05
4.1004e-05
4.20666e-05
4.27348e-05
4.26862e-05
4.18217e-05
9.40376e-05
4.48886e-05
4.05496e-05
4.10207e-05
4.20828e-05
4.27519e-05
4.27061e-05
4.18453e-05
9.48538e-05
4.49533e-05
4.06096e-05
4.10891e-05
4.21426e-05
4.27882e-05
4.2713e-05
4.18326e-05
9.37465e-05
4.48618e-05
4.05434e-05
4.10158e-05
4.20769e-05
4.27449e-05
4.26981e-05
4.18356e-05
9.37804e-05
4.48506e-05
4.05352e-05
4.10071e-05
4.20639e-05
4.2725e-05
4.26705e-05
4.18022e-05
9.32108e-05
4.47976e-05
4.05091e-05
4.09867e-05
4.20542e-05
4.27311e-05
4.26931e-05
4.18359e-05
9.35113e-05
4.48647e-05
4.05017e-05
4.09642e-05
4.20358e-05
4.27241e-05
4.26988e-05
4.18523e-05
9.37171e-05
4.48282e-05
4.05077e-05
4.09838e-05
4.20515e-05
4.27266e-05
4.26852e-05
4.1826e-05
9.36619e-05
4.48365e-05
4.05193e-05
4.09942e-05
4.20604e-05
4.27349e-05
4.26945e-05
4.18368e-05
9.41967e-05
4.48736e-05
4.05546e-05
4.10342e-05
4.20927e-05
4.27489e-05
4.26859e-05
4.18121e-05
9.34214e-05
4.48161e-05
4.05161e-05
4.09916e-05
4.20563e-05
4.27294e-05
4.26878e-05
4.18289e-05
9.34408e-05
4.4806e-05
4.0512e-05
4.09892e-05
4.2052e-05
4.27208e-05
4.26737e-05
4.18104e-05
9.30018e-05
4.47667e-05
4.04934e-05
4.09744e-05
4.20446e-05
4.27247e-05
4.26898e-05
4.18349e-05
9.33825e-05
4.48441e-05
4.04934e-05
4.09581e-05
4.20304e-05
4.27192e-05
4.26946e-05
4.18489e-05
9.34837e-05
4.47998e-05
4.04929e-05
4.09716e-05
4.20425e-05
4.27222e-05
4.26856e-05
4.18297e-05
9.34208e-05
4.48041e-05
4.05011e-05
4.09789e-05
4.20481e-05
4.27267e-05
4.26902e-05
4.18348e-05
9.37626e-05
4.48247e-05
4.05225e-05
4.10032e-05
4.20664e-05
4.27314e-05
4.26785e-05
4.18111e-05
9.32129e-05
4.47871e-05
4.04997e-05
4.09781e-05
4.20459e-05
4.27229e-05
4.26851e-05
4.18287e-05
9.32111e-05
4.47771e-05
4.04973e-05
4.09781e-05
4.20451e-05
4.27191e-05
4.26774e-05
4.18177e-05
9.28706e-05
4.47473e-05