/*--------------------------------*- C++ -*----------------------------------*\
| =========                 |                                                 |
| \\      /  F ield         | OpenFOAM: The Open Source CFD Toolbox           |
|  \\    /   O peration     | Version:  plus.master.MPPICInterFoam            |
|   \\  /    A nd           | Web:      www.OpenFOAM.com                      |
|    \\/     M anipulation  |                                                 |
\*---------------------------------------------------------------------------*/
FoamFile
{
    version     2.0;
    format      ascii;
    class       volScalarField;
    location    "4.4";
    object      p;
}
// * * * * * * * * * * * * * * * * * * * * * * * * * * * * * * * * * * * * * //

dimensions      [1 -1 -2 0 0 0 0];

internalField   nonuniform List<scalar> 
11821
(
3938.56
3938.56
3938.56
3938.56
3938.55
3938.55
3938.55
3938.55
3938.54
3938.54
3938.54
3938.54
3938.54
3938.53
3938.53
3938.53
3938.53
3938.53
3938.53
3938.52
3938.52
3938.52
3938.52
3938.52
3938.52
3938.52
3938.52
3938.52
3938.51
3938.51
3938.51
3938.51
3938.51
3938.51
3938.51
3938.51
3938.51
3938.51
3938.51
3938.5
3938.51
3938.51
3938.51
3938.51
3938.51
3938.51
3938.51
3938.51
3938.52
3938.52
3938.52
3938.52
3938.52
3938.52
3938.52
3938.52
3841.47
3841.47
3841.47
3841.47
3841.47
3841.47
3841.47
3841.46
3841.45
3841.45
3841.45
3841.45
3841.45
3841.45
3841.45
3841.45
3841.44
3841.44
3841.44
3841.44
3841.44
3841.44
3841.44
3841.43
3841.44
3841.44
3841.43
3841.43
3841.43
3841.43
3841.43
3841.43
3841.43
3841.43
3841.43
3841.43
3841.43
3841.43
3841.42
3841.42
3841.43
3841.43
3841.43
3841.43
3841.43
3841.43
3841.42
3841.42
3841.44
3841.44
3841.44
3841.43
3841.43
3841.43
3841.43
3841.43
3744.38
3744.38
3744.38
3744.38
3744.38
3744.38
3744.38
3744.38
3744.37
3744.37
3744.37
3744.37
3744.37
3744.36
3744.36
3744.36
3744.36
3744.36
3744.36
3744.36
3744.36
3744.35
3744.35
3744.35
3744.35
3744.35
3744.35
3744.35
3744.35
3744.35
3744.34
3744.34
3744.35
3744.35
3744.35
3744.35
3744.34
3744.34
3744.34
3744.34
3744.35
3744.35
3744.35
3744.34
3744.34
3744.34
3744.34
3744.34
3744.35
3744.35
3744.35
3744.35
3744.35
3744.35
3744.35
3744.35
3647.29
3647.29
3647.29
3647.29
3647.29
3647.29
3647.29
3647.29
3647.28
3647.28
3647.28
3647.28
3647.28
3647.28
3647.28
3647.28
3647.27
3647.27
3647.27
3647.27
3647.27
3647.27
3647.27
3647.27
3647.27
3647.27
3647.26
3647.26
3647.26
3647.26
3647.26
3647.26
3647.26
3647.26
3647.26
3647.26
3647.26
3647.26
3647.26
3647.26
3647.26
3647.26
3647.26
3647.26
3647.26
3647.26
3647.26
3647.26
3647.26
3647.26
3647.26
3647.26
3647.26
3647.26
3647.26
3647.26
3550.2
3550.2
3550.2
3550.2
3550.21
3550.21
3550.21
3550.21
3550.19
3550.19
3550.19
3550.19
3550.19
3550.2
3550.2
3550.2
3550.18
3550.18
3550.19
3550.19
3550.19
3550.19
3550.19
3550.19
3550.18
3550.18
3550.18
3550.18
3550.18
3550.18
3550.18
3550.18
3550.18
3550.18
3550.18
3550.18
3550.18
3550.18
3550.18
3550.18
3550.17
3550.17
3550.17
3550.17
3550.17
3550.17
3550.17
3550.17
3550.18
3550.18
3550.18
3550.18
3550.18
3550.18
3550.18
3550.18
3453.12
3453.12
3453.12
3453.12
3453.12
3453.12
3453.13
3453.13
3453.11
3453.11
3453.11
3453.11
3453.11
3453.11
3453.12
3453.12
3453.1
3453.1
3453.1
3453.1
3453.1
3453.11
3453.11
3453.11
3453.09
3453.09
3453.09
3453.1
3453.1
3453.1
3453.1
3453.1
3453.09
3453.09
3453.09
3453.09
3453.09
3453.09
3453.09
3453.1
3453.09
3453.09
3453.09
3453.09
3453.09
3453.09
3453.09
3453.09
3453.09
3453.09
3453.09
3453.09
3453.09
3453.09
3453.1
3453.1
3356.04
3356.04
3356.04
3356.04
3356.04
3356.05
3356.05
3356.05
3356.03
3356.03
3356.03
3356.03
3356.03
3356.04
3356.04
3356.04
3356.02
3356.02
3356.02
3356.02
3356.03
3356.03
3356.03
3356.03
3356.01
3356.01
3356.02
3356.02
3356.02
3356.02
3356.02
3356.02
3356.01
3356.01
3356.01
3356.01
3356.01
3356.02
3356.02
3356.02
3356.01
3356.01
3356.01
3356.01
3356.01
3356.01
3356.01
3356.02
3356.01
3356.01
3356.01
3356.01
3356.01
3356.01
3356.02
3356.02
3258.96
3258.96
3258.97
3258.97
3258.97
3258.97
3258.97
3258.98
3258.95
3258.96
3258.96
3258.96
3258.96
3258.96
3258.96
3258.97
3258.95
3258.95
3258.95
3258.95
3258.95
3258.95
3258.96
3258.96
3258.94
3258.94
3258.94
3258.94
3258.94
3258.95
3258.95
3258.95
3258.94
3258.94
3258.94
3258.94
3258.94
3258.94
3258.94
3258.94
3258.93
3258.93
3258.93
3258.94
3258.94
3258.94
3258.94
3258.94
3258.93
3258.93
3258.93
3258.94
3258.94
3258.94
3258.94
3258.94
3161.9
3161.9
3161.9
3161.9
3161.9
3161.9
3161.91
3161.91
3161.89
3161.89
3161.89
3161.89
3161.89
3161.89
3161.9
3161.9
3161.88
3161.88
3161.88
3161.88
3161.88
3161.89
3161.89
3161.89
3161.87
3161.87
3161.87
3161.87
3161.88
3161.88
3161.88
3161.88
3161.87
3161.87
3161.87
3161.87
3161.87
3161.87
3161.87
3161.87
3161.86
3161.86
3161.86
3161.87
3161.87
3161.87
3161.87
3161.87
3161.86
3161.86
3161.86
3161.87
3161.87
3161.87
3161.87
3161.87
3064.84
3064.84
3064.84
3064.84
3064.84
3064.84
3064.84
3064.84
3064.83
3064.83
3064.83
3064.83
3064.83
3064.83
3064.83
3064.83
3064.82
3064.82
3064.82
3064.82
3064.82
3064.82
3064.82
3064.82
3064.81
3064.81
3064.81
3064.81
3064.81
3064.81
3064.82
3064.82
3064.81
3064.8
3064.81
3064.81
3064.81
3064.81
3064.81
3064.81
3064.8
3064.8
3064.8
3064.8
3064.8
3064.81
3064.81
3064.81
3064.8
3064.8
3064.8
3064.8
3064.8
3064.81
3064.81
3064.81
2967.78
2967.78
2967.78
2967.79
2967.79
2967.79
2967.79
2967.79
2967.77
2967.77
2967.77
2967.78
2967.78
2967.78
2967.78
2967.78
2967.76
2967.76
2967.76
2967.77
2967.77
2967.77
2967.77
2967.77
2967.76
2967.76
2967.76
2967.76
2967.76
2967.76
2967.76
2967.76
2967.75
2967.75
2967.75
2967.75
2967.75
2967.75
2967.75
2967.75
2967.75
2967.75
2967.75
2967.75
2967.75
2967.75
2967.75
2967.75
2967.75
2967.75
2967.75
2967.75
2967.75
2967.75
2967.75
2967.75
2870.74
2870.74
2870.74
2870.74
2870.74
2870.74
2870.74
2870.74
2870.73
2870.73
2870.73
2870.73
2870.73
2870.73
2870.73
2870.73
2870.72
2870.72
2870.72
2870.72
2870.72
2870.72
2870.72
2870.72
2870.71
2870.71
2870.71
2870.71
2870.71
2870.71
2870.71
2870.71
2870.71
2870.7
2870.7
2870.7
2870.7
2870.7
2870.7
2870.7
2870.7
2870.7
2870.7
2870.7
2870.7
2870.7
2870.7
2870.7
2870.7
2870.7
2870.7
2870.7
2870.7
2870.7
2870.7
2870.7
2773.7
2773.7
2773.7
2773.7
2773.7
2773.7
2773.7
2773.7
2773.69
2773.69
2773.69
2773.69
2773.69
2773.69
2773.68
2773.68
2773.68
2773.68
2773.68
2773.68
2773.68
2773.68
2773.67
2773.67
2773.67
2773.67
2773.67
2773.67
2773.67
2773.67
2773.66
2773.66
2773.67
2773.67
2773.66
2773.66
2773.66
2773.66
2773.66
2773.65
2773.66
2773.66
2773.66
2773.66
2773.66
2773.65
2773.65
2773.65
2773.66
2773.66
2773.66
2773.66
2773.66
2773.65
2773.65
2773.65
2676.67
2676.67
2676.67
2676.67
2676.67
2676.66
2676.66
2676.66
2676.66
2676.66
2676.66
2676.66
2676.65
2676.65
2676.65
2676.65
2676.65
2676.65
2676.65
2676.64
2676.64
2676.64
2676.64
2676.63
2676.64
2676.64
2676.64
2676.63
2676.63
2676.63
2676.63
2676.62
2676.63
2676.63
2676.63
2676.63
2676.62
2676.62
2676.62
2676.62
2676.63
2676.63
2676.62
2676.62
2676.62
2676.62
2676.61
2676.61
2676.63
2676.62
2676.62
2676.62
2676.62
2676.62
2676.61
2676.61
3938.58
3938.58
3938.58
3938.58
3938.57
3938.57
3938.58
3938.58
3938.59
3938.59
3938.59
3938.59
3938.59
3938.59
3938.6
3938.6
3938.58
3938.58
3938.57
3938.55
3938.52
3938.63
3938.62
3938.63
3841.49
3841.49
3841.49
3841.49
3841.49
3841.49
3841.49
3841.49
3841.5
3841.5
3841.51
3841.51
3841.51
3841.51
3841.52
3841.52
3841.5
3841.5
3841.5
3841.5
3841.48
3841.47
3841.47
3841.48
3841.53
3841.53
3841.53
3841.54
3841.54
3841.56
3841.57
3841.59
3841.52
3841.52
3841.51
3841.51
3841.5
3841.5
3841.5
3841.5
3841.53
3841.53
3841.53
3841.53
3841.53
3841.54
3841.54
3841.54
3841.52
3841.51
3841.51
3841.51
3841.51
3841.51
3841.51
3841.51
3744.4
3744.4
3744.4
3744.4
3744.4
3744.4
3744.4
3744.4
3744.41
3744.41
3744.41
3744.41
3744.42
3744.42
3744.42
3744.42
3744.41
3744.41
3744.41
3744.41
3744.41
3744.41
3744.41
3744.41
3744.43
3744.43
3744.44
3744.44
3744.45
3744.46
3744.47
3744.48
3744.42
3744.42
3744.42
3744.42
3744.42
3744.42
3744.42
3744.42
3744.43
3744.43
3744.44
3744.44
3744.44
3744.44
3744.45
3744.45
3744.42
3744.42
3744.42
3744.42
3744.42
3744.42
3744.42
3744.42
3647.31
3647.31
3647.31
3647.31
3647.31
3647.31
3647.31
3647.31
3647.32
3647.32
3647.32
3647.32
3647.32
3647.33
3647.33
3647.33
3647.32
3647.32
3647.32
3647.32
3647.32
3647.32
3647.32
3647.32
3647.34
3647.34
3647.34
3647.35
3647.35
3647.36
3647.36
3647.37
3647.33
3647.33
3647.33
3647.33
3647.33
3647.33
3647.33
3647.33
3647.34
3647.34
3647.34
3647.35
3647.35
3647.35
3647.35
3647.36
3647.33
3647.33
3647.33
3647.34
3647.34
3647.34
3647.34
3647.34
3550.22
3550.22
3550.22
3550.22
3550.22
3550.22
3550.22
3550.22
3550.23
3550.23
3550.23
3550.23
3550.23
3550.24
3550.24
3550.24
3550.23
3550.23
3550.23
3550.23
3550.23
3550.23
3550.24
3550.24
3550.24
3550.24
3550.25
3550.25
3550.26
3550.26
3550.27
3550.27
3550.24
3550.24
3550.24
3550.24
3550.24
3550.24
3550.24
3550.25
3550.25
3550.25
3550.25
3550.26
3550.26
3550.26
3550.26
3550.27
3550.25
3550.25
3550.25
3550.25
3550.25
3550.25
3550.25
3550.25
3453.13
3453.13
3453.13
3453.13
3453.14
3453.14
3453.14
3453.14
3453.14
3453.14
3453.14
3453.14
3453.15
3453.15
3453.15
3453.15
3453.14
3453.14
3453.14
3453.15
3453.15
3453.15
3453.15
3453.15
3453.16
3453.16
3453.16
3453.16
3453.17
3453.17
3453.18
3453.18
3453.15
3453.15
3453.16
3453.16
3453.16
3453.16
3453.16
3453.16
3453.16
3453.16
3453.17
3453.17
3453.17
3453.17
3453.18
3453.18
3453.16
3453.16
3453.16
3453.16
3453.17
3453.17
3453.17
3453.17
3356.05
3356.05
3356.05
3356.05
3356.06
3356.06
3356.06
3356.06
3356.06
3356.06
3356.06
3356.06
3356.07
3356.07
3356.07
3356.07
3356.06
3356.06
3356.07
3356.07
3356.07
3356.07
3356.07
3356.07
3356.07
3356.07
3356.08
3356.08
3356.08
3356.09
3356.09
3356.09
3356.07
3356.07
3356.08
3356.08
3356.08
3356.08
3356.08
3356.08
3356.08
3356.08
3356.08
3356.09
3356.09
3356.09
3356.1
3356.1
3356.08
3356.08
3356.08
3356.09
3356.09
3356.09
3356.09
3356.09
3258.98
3258.98
3258.98
3258.98
3258.98
3258.98
3258.99
3258.99
3258.98
3258.98
3258.99
3258.99
3258.99
3258.99
3259
3259
3258.99
3258.99
3258.99
3258.99
3259
3259
3259
3259
3259
3259
3259
3259.01
3259.01
3259.01
3259.01
3259.02
3259
3259
3259
3259.01
3259.01
3259.01
3259.01
3259.01
3259.01
3259.01
3259.01
3259.01
3259.02
3259.02
3259.02
3259.02
3259.01
3259.01
3259.01
3259.01
3259.01
3259.02
3259.02
3259.02
3161.91
3161.91
3161.91
3161.91
3161.92
3161.92
3161.92
3161.92
3161.92
3161.92
3161.92
3161.92
3161.92
3161.93
3161.93
3161.93
3161.93
3161.93
3161.93
3161.93
3161.93
3161.93
3161.93
3161.93
3161.93
3161.93
3161.94
3161.94
3161.94
3161.94
3161.95
3161.95
3161.94
3161.94
3161.94
3161.94
3161.94
3161.94
3161.95
3161.95
3161.94
3161.94
3161.94
3161.95
3161.95
3161.95
3161.95
3161.96
3161.94
3161.94
3161.95
3161.95
3161.95
3161.95
3161.95
3161.95
3064.85
3064.85
3064.85
3064.85
3064.85
3064.86
3064.86
3064.86
3064.86
3064.86
3064.86
3064.86
3064.86
3064.87
3064.87
3064.87
3064.87
3064.87
3064.87
3064.87
3064.87
3064.87
3064.87
3064.87
3064.88
3064.88
3064.88
3064.88
3064.88
3064.88
3064.89
3064.89
3064.88
3064.88
3064.88
3064.88
3064.88
3064.89
3064.89
3064.89
3064.89
3064.89
3064.89
3064.89
3064.89
3064.89
3064.89
3064.89
3064.89
3064.89
3064.89
3064.89
3064.89
3064.89
3064.89
3064.89
2967.8
2967.8
2967.8
2967.8
2967.8
2967.8
2967.8
2967.8
2967.81
2967.81
2967.81
2967.81
2967.81
2967.81
2967.81
2967.81
2967.82
2967.82
2967.82
2967.82
2967.82
2967.82
2967.82
2967.82
2967.83
2967.83
2967.83
2967.83
2967.83
2967.83
2967.83
2967.83
2967.83
2967.83
2967.83
2967.83
2967.83
2967.83
2967.83
2967.83
2967.84
2967.84
2967.84
2967.84
2967.84
2967.84
2967.84
2967.84
2967.84
2967.84
2967.84
2967.84
2967.84
2967.84
2967.84
2967.84
2870.75
2870.75
2870.75
2870.75
2870.76
2870.76
2870.75
2870.75
2870.76
2870.76
2870.76
2870.77
2870.77
2870.77
2870.77
2870.76
2870.77
2870.77
2870.77
2870.77
2870.77
2870.77
2870.77
2870.77
2870.78
2870.78
2870.78
2870.78
2870.78
2870.78
2870.78
2870.78
2870.79
2870.79
2870.79
2870.79
2870.79
2870.79
2870.79
2870.79
2870.79
2870.79
2870.79
2870.8
2870.8
2870.8
2870.8
2870.8
2870.8
2870.8
2870.8
2870.8
2870.8
2870.8
2870.8
2870.8
2773.72
2773.72
2773.72
2773.72
2773.72
2773.72
2773.71
2773.71
2773.73
2773.73
2773.73
2773.73
2773.73
2773.73
2773.73
2773.72
2773.74
2773.74
2773.74
2773.74
2773.74
2773.74
2773.74
2773.73
2773.75
2773.75
2773.75
2773.75
2773.75
2773.75
2773.75
2773.74
2773.75
2773.75
2773.75
2773.75
2773.75
2773.75
2773.75
2773.75
2773.76
2773.76
2773.76
2773.76
2773.76
2773.76
2773.76
2773.76
2773.76
2773.76
2773.76
2773.76
2773.76
2773.76
2773.76
2773.76
2676.69
2676.69
2676.69
2676.68
2676.68
2676.68
2676.68
2676.68
2676.7
2676.7
2676.7
2676.7
2676.7
2676.69
2676.69
2676.69
2676.71
2676.71
2676.71
2676.71
2676.71
2676.71
2676.71
2676.7
2676.72
2676.72
2676.72
2676.72
2676.72
2676.72
2676.72
2676.72
2676.72
2676.72
2676.73
2676.73
2676.73
2676.73
2676.72
2676.72
2676.73
2676.73
2676.73
2676.73
2676.73
2676.73
2676.73
2676.73
2676.73
2676.73
2676.73
2676.74
2676.74
2676.74
2676.73
2676.73
3938.68
3938.69
3938.7
3938.62
3938.63
3938.63
3938.63
3938.63
3938.6
3938.6
3938.6
3938.6
3938.61
3938.61
3938.61
3938.61
3938.58
3938.58
3938.58
3938.57
3938.57
3938.57
3938.57
3938.57
3841.52
3841.52
3841.52
3841.52
3841.52
3841.52
3841.52
3841.52
3841.55
3841.54
3841.53
3841.53
3841.53
3841.53
3841.53
3841.53
3841.54
3841.55
3841.54
3841.53
3841.52
3841.52
3841.52
3841.52
3841.54
3841.55
3841.56
3841.56
3841.56
3841.56
3841.56
3841.56
3841.51
3841.51
3841.52
3841.52
3841.52
3841.52
3841.52
3841.51
3841.51
3841.51
3841.51
3841.51
3841.51
3841.51
3841.51
3841.51
3841.49
3841.49
3841.48
3841.48
3841.48
3841.48
3841.48
3841.48
3744.43
3744.43
3744.43
3744.43
3744.43
3744.43
3744.43
3744.43
3744.43
3744.43
3744.43
3744.44
3744.44
3744.44
3744.44
3744.44
3744.43
3744.43
3744.43
3744.43
3744.43
3744.43
3744.43
3744.43
3744.43
3744.43
3744.44
3744.44
3744.44
3744.45
3744.45
3744.45
3744.42
3744.42
3744.42
3744.42
3744.42
3744.42
3744.42
3744.42
3744.41
3744.41
3744.41
3744.41
3744.41
3744.41
3744.42
3744.42
3744.39
3744.39
3744.39
3744.39
3744.39
3744.39
3744.39
3744.39
3647.34
3647.34
3647.34
3647.34
3647.34
3647.34
3647.34
3647.35
3647.34
3647.34
3647.34
3647.34
3647.34
3647.35
3647.35
3647.35
3647.34
3647.34
3647.34
3647.34
3647.34
3647.34
3647.34
3647.34
3647.34
3647.34
3647.34
3647.34
3647.35
3647.35
3647.35
3647.36
3647.33
3647.33
3647.33
3647.33
3647.33
3647.33
3647.33
3647.33
3647.32
3647.32
3647.32
3647.32
3647.32
3647.32
3647.32
3647.33
3647.3
3647.3
3647.3
3647.3
3647.3
3647.3
3647.3
3647.31
3550.25
3550.25
3550.25
3550.25
3550.25
3550.26
3550.26
3550.26
3550.25
3550.25
3550.25
3550.25
3550.26
3550.26
3550.26
3550.26
3550.25
3550.25
3550.25
3550.25
3550.25
3550.25
3550.25
3550.26
3550.24
3550.24
3550.25
3550.25
3550.25
3550.26
3550.26
3550.26
3550.23
3550.23
3550.23
3550.24
3550.24
3550.24
3550.24
3550.24
3550.23
3550.23
3550.23
3550.23
3550.23
3550.23
3550.24
3550.24
3550.21
3550.21
3550.21
3550.22
3550.22
3550.22
3550.22
3550.22
3453.16
3453.16
3453.17
3453.17
3453.17
3453.17
3453.17
3453.18
3453.16
3453.16
3453.17
3453.17
3453.17
3453.17
3453.18
3453.18
3453.16
3453.16
3453.16
3453.16
3453.16
3453.17
3453.17
3453.17
3453.16
3453.16
3453.16
3453.16
3453.16
3453.17
3453.17
3453.17
3453.15
3453.15
3453.15
3453.15
3453.15
3453.16
3453.16
3453.16
3453.14
3453.14
3453.14
3453.14
3453.15
3453.15
3453.15
3453.15
3453.13
3453.13
3453.13
3453.13
3453.13
3453.14
3453.14
3453.14
3356.08
3356.08
3356.09
3356.09
3356.09
3356.09
3356.09
3356.1
3356.08
3356.08
3356.08
3356.09
3356.09
3356.09
3356.09
3356.1
3356.08
3356.08
3356.08
3356.08
3356.09
3356.09
3356.09
3356.09
3356.07
3356.07
3356.08
3356.08
3356.08
3356.09
3356.09
3356.09
3356.07
3356.07
3356.07
3356.07
3356.07
3356.08
3356.08
3356.08
3356.06
3356.06
3356.06
3356.06
3356.07
3356.07
3356.07
3356.07
3356.05
3356.05
3356.05
3356.05
3356.05
3356.06
3356.06
3356.06
3259.01
3259.01
3259.01
3259.01
3259.02
3259.02
3259.02
3259.02
3259.01
3259.01
3259.01
3259.01
3259.02
3259.02
3259.02
3259.02
3259
3259.01
3259.01
3259.01
3259.01
3259.01
3259.01
3259.02
3259
3259
3259
3259.01
3259.01
3259.01
3259.01
3259.01
3258.99
3258.99
3258.99
3259
3259
3259
3259
3259
3258.98
3258.98
3258.99
3258.99
3258.99
3258.99
3259
3259
3258.97
3258.97
3258.98
3258.98
3258.98
3258.98
3258.98
3258.99
3161.94
3161.94
3161.95
3161.95
3161.95
3161.95
3161.95
3161.95
3161.94
3161.94
3161.94
3161.95
3161.95
3161.95
3161.95
3161.95
3161.94
3161.94
3161.94
3161.94
3161.94
3161.95
3161.95
3161.95
3161.93
3161.93
3161.94
3161.94
3161.94
3161.94
3161.94
3161.95
3161.93
3161.93
3161.93
3161.93
3161.93
3161.93
3161.93
3161.94
3161.92
3161.92
3161.92
3161.92
3161.92
3161.92
3161.93
3161.93
3161.91
3161.91
3161.91
3161.91
3161.91
3161.91
3161.92
3161.92
3064.89
3064.89
3064.89
3064.89
3064.89
3064.89
3064.89
3064.9
3064.88
3064.89
3064.89
3064.89
3064.89
3064.89
3064.89
3064.89
3064.88
3064.88
3064.88
3064.88
3064.89
3064.89
3064.89
3064.89
3064.88
3064.88
3064.88
3064.88
3064.88
3064.88
3064.88
3064.89
3064.87
3064.87
3064.87
3064.87
3064.87
3064.87
3064.87
3064.88
3064.86
3064.86
3064.86
3064.86
3064.86
3064.86
3064.87
3064.87
3064.85
3064.85
3064.85
3064.85
3064.85
3064.85
3064.85
3064.86
2967.84
2967.84
2967.84
2967.84
2967.84
2967.84
2967.84
2967.84
2967.83
2967.84
2967.84
2967.84
2967.84
2967.84
2967.84
2967.84
2967.83
2967.83
2967.83
2967.83
2967.83
2967.84
2967.84
2967.84
2967.82
2967.82
2967.83
2967.83
2967.83
2967.83
2967.83
2967.83
2967.82
2967.82
2967.82
2967.82
2967.82
2967.82
2967.82
2967.82
2967.81
2967.81
2967.81
2967.81
2967.81
2967.81
2967.81
2967.81
2967.79
2967.8
2967.8
2967.8
2967.8
2967.8
2967.8
2967.8
2870.8
2870.8
2870.8
2870.8
2870.8
2870.8
2870.8
2870.8
2870.79
2870.79
2870.79
2870.79
2870.8
2870.8
2870.8
2870.8
2870.79
2870.79
2870.79
2870.79
2870.79
2870.79
2870.79
2870.79
2870.78
2870.78
2870.78
2870.78
2870.78
2870.78
2870.78
2870.78
2870.77
2870.77
2870.77
2870.77
2870.77
2870.77
2870.77
2870.77
2870.76
2870.76
2870.76
2870.76
2870.76
2870.76
2870.76
2870.76
2870.75
2870.75
2870.75
2870.75
2870.75
2870.75
2870.75
2870.75
2773.76
2773.76
2773.76
2773.76
2773.76
2773.76
2773.76
2773.76
2773.76
2773.76
2773.76
2773.76
2773.76
2773.76
2773.76
2773.76
2773.75
2773.75
2773.75
2773.75
2773.75
2773.75
2773.75
2773.75
2773.75
2773.75
2773.75
2773.75
2773.75
2773.75
2773.75
2773.74
2773.74
2773.74
2773.74
2773.74
2773.74
2773.74
2773.73
2773.73
2773.73
2773.73
2773.73
2773.73
2773.73
2773.72
2773.72
2773.72
2773.71
2773.71
2773.71
2773.71
2773.71
2773.71
2773.71
2773.71
2676.73
2676.73
2676.74
2676.74
2676.74
2676.74
2676.73
2676.73
2676.73
2676.73
2676.73
2676.73
2676.73
2676.73
2676.73
2676.73
2676.73
2676.73
2676.73
2676.73
2676.73
2676.73
2676.72
2676.72
2676.72
2676.72
2676.72
2676.72
2676.72
2676.72
2676.72
2676.71
2676.71
2676.71
2676.71
2676.71
2676.71
2676.7
2676.7
2676.7
2676.7
2676.69
2676.69
2676.69
2676.69
2676.69
2676.69
2676.69
2676.68
2676.68
2676.68
2676.68
2676.68
2676.68
2676.68
2676.67
3938.53
3938.53
3938.53
3938.53
3938.53
3938.53
3938.52
3938.52
3938.55
3938.55
3938.55
3938.55
3938.55
3938.56
3938.56
3938.56
3938.55
3938.55
3938.55
3938.55
3938.55
3938.55
3938.55
3938.55
3938.58
3938.58
3938.59
3938.6
3938.61
3938.62
3938.64
3938.65
3938.56
3938.56
3938.56
3938.56
3938.56
3938.56
3938.55
3938.55
3938.58
3938.58
3938.58
3938.58
3938.59
3938.59
3938.59
3938.6
3938.57
3938.57
3938.57
3938.57
3938.57
3938.57
3938.57
3938.56
3841.44
3841.44
3841.44
3841.44
3841.44
3841.44
3841.44
3841.44
3841.46
3841.46
3841.46
3841.46
3841.46
3841.47
3841.47
3841.47
3841.46
3841.46
3841.46
3841.46
3841.46
3841.46
3841.46
3841.46
3841.48
3841.49
3841.49
3841.5
3841.5
3841.51
3841.52
3841.53
3841.47
3841.47
3841.47
3841.47
3841.47
3841.47
3841.47
3841.47
3841.49
3841.49
3841.49
3841.49
3841.49
3841.5
3841.5
3841.5
3841.48
3841.48
3841.48
3841.48
3841.48
3841.48
3841.48
3841.48
3744.36
3744.35
3744.35
3744.35
3744.35
3744.35
3744.35
3744.35
3744.37
3744.37
3744.37
3744.37
3744.37
3744.37
3744.37
3744.38
3744.37
3744.37
3744.37
3744.37
3744.37
3744.37
3744.37
3744.37
3744.39
3744.39
3744.39
3744.4
3744.4
3744.41
3744.42
3744.42
3744.38
3744.38
3744.38
3744.38
3744.38
3744.38
3744.38
3744.38
3744.39
3744.39
3744.39
3744.4
3744.4
3744.4
3744.4
3744.41
3744.39
3744.39
3744.39
3744.39
3744.39
3744.39
3744.39
3744.39
3647.27
3647.27
3647.27
3647.27
3647.27
3647.27
3647.27
3647.27
3647.28
3647.28
3647.28
3647.28
3647.28
3647.28
3647.28
3647.28
3647.28
3647.28
3647.28
3647.28
3647.28
3647.28
3647.28
3647.28
3647.29
3647.29
3647.3
3647.3
3647.3
3647.31
3647.31
3647.32
3647.29
3647.29
3647.29
3647.29
3647.29
3647.29
3647.29
3647.29
3647.3
3647.3
3647.3
3647.3
3647.31
3647.31
3647.31
3647.31
3647.3
3647.3
3647.3
3647.3
3647.3
3647.3
3647.3
3647.3
3550.18
3550.18
3550.18
3550.18
3550.18
3550.18
3550.18
3550.18
3550.19
3550.19
3550.19
3550.19
3550.19
3550.19
3550.19
3550.19
3550.19
3550.19
3550.19
3550.19
3550.19
3550.19
3550.19
3550.19
3550.2
3550.2
3550.2
3550.2
3550.21
3550.21
3550.22
3550.22
3550.2
3550.2
3550.2
3550.2
3550.2
3550.2
3550.2
3550.2
3550.21
3550.21
3550.21
3550.21
3550.21
3550.22
3550.22
3550.22
3550.21
3550.21
3550.21
3550.21
3550.21
3550.22
3550.22
3550.22
3453.09
3453.09
3453.09
3453.09
3453.1
3453.1
3453.1
3453.1
3453.1
3453.1
3453.1
3453.1
3453.1
3453.1
3453.11
3453.11
3453.1
3453.1
3453.1
3453.1
3453.11
3453.11
3453.11
3453.11
3453.11
3453.11
3453.11
3453.11
3453.12
3453.12
3453.13
3453.13
3453.11
3453.11
3453.11
3453.12
3453.12
3453.12
3453.12
3453.12
3453.12
3453.12
3453.12
3453.12
3453.13
3453.13
3453.13
3453.13
3453.12
3453.12
3453.13
3453.13
3453.13
3453.13
3453.13
3453.13
3356.01
3356.01
3356.01
3356.01
3356.02
3356.02
3356.02
3356.02
3356.02
3356.02
3356.02
3356.02
3356.02
3356.02
3356.02
3356.03
3356.02
3356.02
3356.02
3356.02
3356.02
3356.03
3356.03
3356.03
3356.03
3356.03
3356.03
3356.03
3356.03
3356.04
3356.04
3356.04
3356.03
3356.03
3356.03
3356.03
3356.04
3356.04
3356.04
3356.04
3356.04
3356.04
3356.04
3356.04
3356.04
3356.05
3356.05
3356.05
3356.04
3356.04
3356.05
3356.05
3356.05
3356.05
3356.05
3356.06
3258.93
3258.94
3258.94
3258.94
3258.94
3258.94
3258.94
3258.94
3258.94
3258.94
3258.94
3258.94
3258.94
3258.95
3258.95
3258.95
3258.94
3258.94
3258.94
3258.95
3258.95
3258.95
3258.95
3258.95
3258.95
3258.95
3258.95
3258.95
3258.96
3258.96
3258.96
3258.96
3258.96
3258.96
3258.96
3258.96
3258.96
3258.96
3258.96
3258.97
3258.96
3258.96
3258.96
3258.97
3258.97
3258.97
3258.97
3258.98
3258.97
3258.97
3258.97
3258.97
3258.98
3258.98
3258.98
3258.98
3161.86
3161.86
3161.87
3161.87
3161.87
3161.87
3161.87
3161.87
3161.87
3161.87
3161.87
3161.87
3161.87
3161.87
3161.88
3161.88
3161.87
3161.87
3161.87
3161.88
3161.88
3161.88
3161.88
3161.88
3161.88
3161.88
3161.88
3161.88
3161.89
3161.89
3161.89
3161.89
3161.89
3161.89
3161.89
3161.89
3161.89
3161.89
3161.89
3161.89
3161.89
3161.89
3161.9
3161.9
3161.9
3161.9
3161.9
3161.91
3161.9
3161.9
3161.9
3161.91
3161.91
3161.91
3161.91
3161.91
3064.8
3064.8
3064.8
3064.8
3064.8
3064.81
3064.81
3064.81
3064.81
3064.81
3064.81
3064.81
3064.81
3064.81
3064.81
3064.81
3064.81
3064.81
3064.81
3064.81
3064.81
3064.82
3064.82
3064.82
3064.82
3064.82
3064.82
3064.82
3064.82
3064.82
3064.82
3064.83
3064.83
3064.83
3064.83
3064.83
3064.83
3064.83
3064.83
3064.83
3064.83
3064.83
3064.83
3064.84
3064.84
3064.84
3064.84
3064.84
3064.84
3064.84
3064.84
3064.84
3064.85
3064.85
3064.85
3064.85
2967.75
2967.75
2967.75
2967.75
2967.75
2967.75
2967.75
2967.75
2967.75
2967.75
2967.75
2967.75
2967.75
2967.75
2967.75
2967.75
2967.76
2967.76
2967.76
2967.76
2967.76
2967.76
2967.76
2967.76
2967.76
2967.76
2967.76
2967.76
2967.77
2967.77
2967.77
2967.77
2967.77
2967.77
2967.77
2967.77
2967.77
2967.77
2967.77
2967.77
2967.78
2967.78
2967.78
2967.78
2967.78
2967.78
2967.78
2967.78
2967.79
2967.79
2967.79
2967.79
2967.79
2967.79
2967.79
2967.79
2870.7
2870.7
2870.7
2870.7
2870.7
2870.7
2870.7
2870.7
2870.7
2870.7
2870.7
2870.7
2870.7
2870.7
2870.7
2870.7
2870.71
2870.71
2870.71
2870.71
2870.71
2870.71
2870.71
2870.7
2870.72
2870.72
2870.72
2870.72
2870.72
2870.71
2870.71
2870.71
2870.72
2870.72
2870.72
2870.72
2870.72
2870.72
2870.72
2870.72
2870.73
2870.73
2870.73
2870.73
2870.73
2870.73
2870.73
2870.73
2870.74
2870.74
2870.74
2870.74
2870.74
2870.74
2870.74
2870.74
2773.66
2773.66
2773.66
2773.66
2773.66
2773.65
2773.65
2773.65
2773.66
2773.66
2773.66
2773.66
2773.66
2773.66
2773.65
2773.65
2773.67
2773.67
2773.67
2773.67
2773.66
2773.66
2773.66
2773.66
2773.68
2773.67
2773.67
2773.67
2773.67
2773.67
2773.67
2773.67
2773.68
2773.68
2773.68
2773.68
2773.68
2773.68
2773.68
2773.68
2773.69
2773.69
2773.69
2773.69
2773.69
2773.69
2773.69
2773.69
2773.71
2773.71
2773.71
2773.71
2773.7
2773.7
2773.7
2773.7
2676.63
2676.63
2676.62
2676.62
2676.62
2676.62
2676.61
2676.61
2676.63
2676.63
2676.63
2676.62
2676.62
2676.62
2676.62
2676.61
2676.63
2676.63
2676.63
2676.63
2676.63
2676.62
2676.62
2676.62
2676.64
2676.64
2676.64
2676.64
2676.63
2676.63
2676.63
2676.63
2676.65
2676.65
2676.65
2676.65
2676.65
2676.64
2676.64
2676.64
2676.66
2676.66
2676.66
2676.66
2676.66
2676.66
2676.65
2676.65
2676.67
2676.67
2676.67
2676.67
2676.67
2676.67
2676.67
2676.66
3873.56
3875.75
3878.18
3880.19
3879.36
3877.32
3875.23
3875.67
3879.13
3884.48
3890.62
3887.73
3881.92
3877.79
3877.87
3883.99
3897
3908.4
3903.71
3890.6
3880.95
3879.37
3888.05
3906.88
3911.01
3909.51
3898.28
3883.47
3879
3886.49
3902.18
3912.1
3911.8
3896.73
3883.44
3877.19
3881.82
3889.61
3901.33
3896.57
3886.43
3880.21
3875.02
3877.91
3881.12
3884.56
3883.47
3880.31
3877.28
3787.62
3791.4
3794.9
3797.52
3797.06
3794.6
3791.23
3790.89
3795.67
3800.91
3807.49
3805.6
3800.16
3795.36
3793.64
3799.64
3810.24
3830.58
3824.07
3808.08
3799.15
3795.24
3802.67
3821.6
3845.16
3843.26
3819.29
3802.54
3794.73
3801.7
3815.88
3844.73
3833.4
3811.26
3800.42
3792.03
3797.37
3803.94
3814.45
3809.44
3802.21
3796.73
3788.68
3792.95
3796.82
3800.1
3799.15
3796.31
3792.5
3691.16
3695.03
3698.62
3701.14
3700.9
3698.49
3694.95
3694.18
3699.05
3703.67
3707.57
3707.15
3703.59
3699.01
3696.55
3702.04
3707.67
3717.45
3714.54
3707.25
3702.02
3697.73
3703.84
3713.21
3746.75
3739.61
3712.54
3703.92
3696.74
3702.18
3707.91
3725.39
3715.87
3707.31
3701.91
3694.22
3698.8
3702.76
3706.61
3705.26
3702.56
3698.64
3691.17
3694.86
3698.08
3700.34
3699.95
3697.9
3694.68
3584.01
3585.82
3587.44
3588.66
3588.5
3587.14
3585.57
3585.31
3587.48
3588.38
3587.61
3587.55
3588.11
3587.29
3586.42
3588.75
3588.1
3588.7
3587.74
3587.49
3588.58
3586.89
3589.14
3588.96
3605.13
3599.15
3588.78
3589.12
3586.31
3588.51
3587.99
3591.49
3589.31
3587.82
3588.29
3585.2
3587.19
3588.31
3588.29
3588.15
3588.02
3586.97
3583.94
3585.59
3587.03
3588.06
3587.81
3586.72
3585.33
3470.03
3466.22
3461.66
3458.76
3459.17
3462.4
3466.84
3467.05
3460.82
3452.39
3447.61
3448.15
3453.72
3462.01
3464.87
3456.22
3444.05
3435.77
3437.52
3447.79
3457.71
3464.37
3455.01
3439.32
3446.2
3443.34
3443.13
3456.92
3465.45
3457.34
3446.84
3443.41
3443.09
3449.1
3459.1
3468.09
3462.72
3455.85
3450.82
3451.84
3457.07
3463.94
3471.07
3467.85
3464.27
3462.25
3462.47
3464.89
3468.46
3369.7
3364.45
3358.85
3354.25
3355.42
3360.14
3365.62
3365.66
3358.42
3353.47
3353.28
3352.68
3354.05
3359.91
3362.56
3353.15
3351.32
3351.17
3352.1
3352.45
3354.76
3361.54
3351.44
3348.89
3354.99
3353.24
3350.62
3352.75
3363.33
3354.35
3351.59
3352.76
3352.41
3352.33
3356.55
3366.77
3360.02
3354.22
3350.92
3351.69
3355.55
3361.97
3370.78
3366.21
3361.64
3358.48
3359.42
3363.01
3367.57
3288.83
3288.88
3289.8
3290.8
3290.91
3289.83
3289.17
3288.93
3290.15
3295.58
3300.98
3300.39
3294.44
3290.01
3289.34
3292.41
3302.6
3307.64
3307.84
3301.34
3291.69
3289.4
3293.01
3303.8
3308.96
3308.89
3303.31
3292.27
3289.35
3292.35
3302.17
3308.24
3307.47
3300.29
3291.64
3288.74
3289.57
3293.34
3297.05
3296.33
3292.44
3289.71
3288.63
3288.63
3289.36
3290.26
3290.3
3289.52
3289.05
3205.62
3208.52
3211.81
3214.83
3214.6
3211.55
3208.34
3207.86
3212.27
3219.78
3227.94
3226.99
3218.53
3211.78
3209.82
3216.62
3230.41
3243.43
3243.44
3228.37
3215.46
3210.09
3217.36
3232.24
3243.11
3242.92
3230.88
3216.26
3208.88
3214.72
3226.68
3239.18
3236.85
3224.15
3213.72
3206.5
3210.05
3215.39
3221.08
3219.83
3214.42
3209.8
3204.21
3206.55
3209.14
3211.3
3211.06
3208.98
3206.48
3110.26
3112.13
3113.37
3115.05
3114.89
3113.35
3111.87
3111.62
3113.61
3114.87
3117.35
3116.9
3114.57
3113.39
3112.85
3115.66
3118.52
3133.16
3130.19
3117.47
3115.19
3112.85
3115.43
3119.77
3135.94
3135.44
3118.79
3115.47
3111.86
3113.69
3116.06
3123.26
3121.1
3115.36
3113.73
3110.51
3112.15
3113.06
3114.73
3114.59
3113.31
3112.16
3109.08
3110.45
3111.53
3112.59
3112.58
3111.63
3110.39
3009.23
3008.81
3007.87
3007.83
3007.89
3008.17
3009.02
3008.78
3007.48
3005.72
3005.21
3005.51
3006.25
3008.06
3008.61
3006.8
3003.71
3009.01
3008.21
3005.07
3007.6
3008.54
3006.59
3002.76
3017.19
3016.43
3004.78
3007.54
3008.45
3006.61
3004.5
3004.52
3004.25
3004.9
3007.36
3008.79
3007.85
3006.11
3005.68
3005.96
3006.68
3008.41
3009.07
3008.66
3008.05
3008.01
3008.09
3008.28
3008.86
2912.11
2910.79
2909.26
2908.45
2908.67
2909.74
2911.27
2911.01
2909.05
2908.47
2909.25
2909.71
2908.87
2909.75
2910.28
2907.88
2908.18
2910.26
2910.78
2909.11
2908.56
2910.21
2908.01
2907.38
2918.08
2915.89
2908.88
2908.67
2910.51
2908.14
2908.24
2909.41
2909.63
2908.48
2908.82
2911.4
2909.72
2908.26
2908.51
2908.48
2908.79
2910.36
2912.38
2911.29
2910.25
2909.91
2910.04
2910.61
2911.73
2822.44
2822.75
2823.42
2824.09
2824.13
2823.36
2822.83
2822.65
2823.52
2827.14
2830.13
2830.07
2826.2
2823.41
2823.01
2824.86
2831.55
2835.28
2835.78
2830.64
2824.35
2823.1
2825.21
2831.83
2839.48
2838.67
2831.7
2824.82
2822.82
2824.24
2829.56
2834.21
2834.06
2828.74
2824.02
2822.41
2822.91
2824.52
2826.17
2826.14
2824.36
2823.05
2822.17
2822.36
2822.78
2823.27
2823.34
2822.87
2822.54
2732.21
2733.78
2735.63
2737.13
2736.94
2735.1
2733.37
2733.5
2735.93
2740.54
2744.49
2744
2738.78
2735.13
2734.68
2738.5
2747.2
2755.38
2754.87
2744.98
2737.37
2734.84
2738.63
2746.8
2758.07
2757.2
2745.68
2737.75
2734.13