/*--------------------------------*- C++ -*----------------------------------*\
| =========                 |                                                 |
| \\      /  F ield         | OpenFOAM: The Open Source CFD Toolbox           |
|  \\    /   O peration     | Version:  plus.master.MPPICInterFoam            |
|   \\  /    A nd           | Web:      www.OpenFOAM.com                      |
|    \\/     M anipulation  |                                                 |
\*---------------------------------------------------------------------------*/
FoamFile
{
    version     2.0;
    format      ascii;
    class       volScalarField;
    location    "12.8";
    object      epsilon;
}
// * * * * * * * * * * * * * * * * * * * * * * * * * * * * * * * * * * * * * //

dimensions      [0 2 -3 0 0 0 0];

internalField   nonuniform List<scalar> 
11821
(
0.00113571
0.00680781
0.0380617
0.049045
0.0139557
0.00211702
0.00036528
0.00489726
0.0953563
0.599653
1.03209
0.375946
0.0639469
0.00281145
0.0200956
0.408894
0.56889
1.71546
0.467659
0.435184
0.0218192
0.05958
1.20606
1.53442
1.64128
2.3311
0.845764
0.0504296
0.0277187
0.548445
0.574737
1.25902
0.549206
0.466032
0.0311376
0.00581058
0.095056
0.641692
1.23247
0.305332
0.0916855
0.00540845
0.00130688
0.00692381
0.0365437
0.049269
0.0127785
0.00364717
0.00075731
0.00769202
0.0634184
0.22306
0.320663
0.0757713
0.00995023
0.00126334
0.0563405
0.385634
1.76666
3.82149
0.840043
0.119397
0.0101508
0.232824
1.53284
2.49055
8.83165
2.73007
0.772798
0.0693225
0.55422
4.46558
11.1444
10.3965
28.9489
2.65674
0.189265
0.28408
1.76735
2.65424
10.2916
3.12178
1.13684
0.115318
0.0731687
0.45203
1.9872
4.87021
1.16376
0.208962
0.0255857
0.0109917
0.0821536
0.314252
0.511139
0.141466
0.0242337
0.002641
0.0224766
0.117347
0.356442
0.62209
0.12545
0.0162361
0.00378077
0.135082
0.587688
2.18823
4.76627
1.05567
0.135282
0.0134379
0.486151
2.23481
2.3835
11.3183
6.74792
0.866299
0.0652666
1.12787
6.15656
14.2253
20.5348
66.821
3.84273
0.20945
0.583411
2.37153
3.08006
14.7379
8.19066
1.35011
0.12259
0.187945
0.773958
2.40855
6.31262
1.68906
0.293797
0.0334694
0.0369896
0.190496
0.567823
1.01891
0.303627
0.0472611
0.0064278
0.0298973
0.120304
0.324001
0.497093
0.111345
0.0220768
0.00952262
0.150938
0.58833
1.63121
3.52133
0.872028
0.11789
0.0185129
0.539156
2.00055
3.07822
5.5566
5.68729
0.663478
0.0565738
1.27348
6.03096
11.8048
23.5569
38.7795
2.53708
0.146908
0.690599
2.65775
2.71488
11.0047
7.52525
1.02512
0.0965022
0.234979
0.886994
2.48696
4.85011
1.47997
0.263144
0.0333044
0.0534347
0.227971
0.620307
0.980894
0.304528
0.0487466
0.0125946
0.0292228
0.0964924
0.237326
0.291601
0.0856129
0.022389
0.0121928
0.12352
0.485574
1.19568
1.76955
0.557138
0.0891972
0.0194285
0.456705
1.67975
4.30486
5.31768
3.03845
0.405462
0.046362
1.08106
4.92287
6.30323
15.9994
16.324
1.36692
0.104272
0.591812
2.13539
2.82766
5.23811
5.1882
0.671173
0.0725125
0.204149
0.767643
1.90957
3.34029
1.13429
0.191546
0.0300188
0.0506894
0.193599
0.504682
0.739425
0.224701
0.042875
0.0149275
0.000113348
8.93273e-05
8.95093e-05
8.40001e-05
7.96757e-05
7.60504e-05
7.29355e-05
7.02232e-05
0.000524809
0.000153692
9.7406e-05
8.30972e-05
7.64585e-05
7.18263e-05
6.80234e-05
6.48803e-05
0.00371622
0.00055807
0.000138789
8.68993e-05
7.61974e-05
7.09374e-05
6.68929e-05
6.34482e-05
0.00915266
0.00139988
0.000227333
9.52612e-05
7.69864e-05
7.13622e-05
6.749e-05
6.39149e-05
0.00533919
0.000784409
0.000165497
9.3516e-05
8.03057e-05
7.47753e-05
7.12179e-05
6.83054e-05
0.0011205
0.0002605
0.000118446
9.28226e-05
8.41392e-05
7.94925e-05
7.63449e-05
7.3836e-05
0.000234329
0.000124869
0.000101518
9.10979e-05
8.73865e-05
8.46563e-05
8.22894e-05
8.01112e-05
0.00040744
0.000308341
0.00025984
0.000222673
0.000194441
0.000172383
0.000154507
0.000139277
0.00103586
0.000400786
0.000287738
0.000234902
0.000200716
0.00017557
0.000155891
0.000139462
0.00453694
0.000673778
0.000324545
0.000241542
0.000202019
0.000175461
0.000155185
0.00013836
0.0105492
0.00098429
0.000354802
0.000246908
0.000203997
0.000176801
0.000156373
0.000139585
0.00814871
0.00088965
0.000342252
0.000243174
0.000202271
0.000176049
0.000156277
0.000139841
0.00241675
0.000518578
0.000296838
0.000233073
0.00019996
0.00017695
0.00015905
0.000143779
0.000667529
0.000332022
0.000257442
0.000218881
0.000193185
0.000173908
0.000158325
0.000144766
0.00206113
0.00169074
0.00143582
0.0011976
0.000970978
0.000762572
0.000581055
0.000434216
0.00309697
0.00192311
0.0015353
0.00126308
0.00101988
0.000796504
0.000599632
0.000438948
0.00660523
0.00235394
0.00163684
0.00131254
0.0010557
0.000822101
0.000614254
0.000443475
0.0124156
0.00278138
0.00170607
0.00134004
0.00107363
0.000833817
0.000620481
0.000445505
0.0107849
0.00274291
0.00169871
0.00133102
0.0010649
0.000827394
0.000617717
0.000446757
0.00486209
0.00214821
0.001575
0.00127375
0.00102539
0.000800906
0.000604876
0.000446496
0.00239036
0.00172637
0.00143154
0.00118987
0.000965847
0.000761488
0.000584995
0.000443586
0.00692881
0.00589221
0.00500032
0.00421233
0.00357428
0.00309111
0.00271799
0.00234988
0.00839844
0.00648152
0.00538526
0.00448172
0.00374571
0.00319052
0.00277833
0.00239325
0.0119109
0.00719043
0.00572623
0.00472036
0.00390786
0.00329056
0.00283875
0.00243187
0.0170063
0.00779347
0.00592349
0.00484883
0.00399562
0.00334342
0.00286653
0.00244392
0.015448
0.00772005
0.00589461
0.00481914
0.00397583
0.00333477
0.0028622
0.002437
0.010124
0.00689865
0.00559668
0.00463639
0.00386302
0.00327283
0.00282679
0.00240954
0.00740892
0.00611598
0.00518047
0.00436961
0.00370521
0.00319175
0.00278652
0.00238542
0.0099096
0.00901142
0.00829502
0.00760441
0.00684903
0.00587036
0.00449942
0.00293986
0.0111584
0.0094206
0.00848605
0.00773756
0.00701226
0.00611674
0.0048106
0.00320583
0.0141106
0.0100628
0.00878239
0.0079582
0.00722733
0.00635902
0.00506533
0.00340701
0.0182286
0.0106413
0.00898433
0.00809554
0.00734566
0.00647416
0.00517425
0.00348687
0.0166997
0.0105291
0.00896301
0.00807209
0.00730402
0.00640731
0.00509072
0.00341254
0.0126102
0.00988676
0.00878036
0.00796279
0.00717769
0.0062266
0.00486937
0.00321793
0.0105118
0.00940474
0.00865107
0.00792819
0.00712292
0.00607512
0.00461745
0.00296946
0.000252663
0.0001173
9.99209e-05
9.4697e-05
9.19764e-05
8.95789e-05
8.70332e-05
8.5141e-05
0.00112894
0.000242311
0.000114563
8.82497e-05
8.06895e-05
7.63166e-05
7.20587e-05
6.80303e-05
0.00547154
0.00105289
0.000224553
9.76067e-05
7.6058e-05
6.76706e-05
6.14635e-05
5.65471e-05
0.0102385
0.00178264
0.000295982
9.9267e-05
7.07116e-05
6.15807e-05
5.53706e-05
5.03916e-05
0.00406941
0.000813857
0.000182734
9.14403e-05
7.4227e-05
6.69465e-05
6.17714e-05
5.65792e-05
0.000781321
0.000181488
0.000101963
8.26582e-05
7.66542e-05
7.28798e-05
6.99452e-05
6.65618e-05
0.000226754
0.000110859
9.36218e-05
8.90826e-05
8.5716e-05
8.51327e-05
8.28608e-05
7.96134e-05
0.00128034
0.000449966
0.000333463
0.000275602
0.000234926
0.000204071
0.000179997
0.000160256
0.00779076
0.00114444
0.000490104
0.0003477
0.000279323
0.000232177
0.000196133
0.000167548
0.0375385
0.00427163
0.000918772
0.00049146
0.000363594
0.000289992
0.000236077
0.000193932
0.0620665
0.00599807
0.00103949
0.000514946
0.000375122
0.000296846
0.000240048
0.000196496
0.0252629
0.00247963
0.000649575
0.000395199
0.000303397
0.000244425
0.000199091
0.000163563
0.00483309
0.000768545
0.000390561
0.000291365
0.000236696
0.000197546
0.000167473
0.000143597
0.00100336
0.000417932
0.000305688
0.00024817
0.000210411
0.000182727
0.000161896
0.000145135
0.00615264
0.00242513
0.00178956
0.00147199
0.00119817
0.000939234
0.000707024
0.0005181
0.0271619
0.00500302
0.00226305
0.00166219
0.00134386
0.00106739
0.000807234
0.000579965
0.101544
0.0133726
0.00323327
0.00185905
0.00144081
0.00115623
0.00089027
0.000641786
0.17547
0.0187611
0.00350442
0.00181067
0.00136363
0.00108312
0.000831476
0.000599402
0.0738781
0.00879472
0.00257775
0.00166803
0.00132356
0.00105864
0.000807137
0.000575184
0.0164867
0.00344971
0.00191664
0.00149107
0.00121112
0.000954838
0.000715584
0.000509864
0.00411473
0.00206177
0.00162467
0.00134594
0.00109281
0.000854758
0.000643665
0.000472901
0.013955
0.00784876
0.00613086
0.00505869
0.0042337
0.00360406
0.00311545
0.00265034
0.0421275
0.0121459
0.00715528
0.00553637
0.0045575
0.0038599
0.00336127
0.00292304
0.131094
0.0230535
0.00855342
0.00574692
0.00455353
0.00379437
0.00330299
0.00293182
0.228409
0.0308471
0.00893917
0.00554465
0.00427847
0.00349347
0.0029876
0.00261547
0.0937119
0.0171875
0.00753866
0.00539034
0.00431437
0.00358902
0.00311231
0.00274996
0.0264066
0.00944706
0.00641493
0.00514568
0.00426554
0.00362003
0.00315934
0.00275646
0.0101014
0.00689507
0.00566442
0.00473124
0.0039826
0.00341051
0.00296896
0.00254691
0.0169084
0.0115204
0.0100201
0.00902758
0.00804198
0.00681672
0.00512357
0.00319373
0.0422312
0.0157166
0.0111741
0.00980688
0.00890144
0.00781624
0.0061387
0.00398231
0.113921
0.0258425
0.0127441
0.0103811
0.0095714
0.00876707
0.00726293
0.00503696
0.188549
0.0330693
0.0130984
0.010091
0.00932708
0.00876061
0.00757311
0.00560597
0.0828248
0.0206087
0.0117077
0.00997039
0.0093031
0.00858585
0.00718423
0.00506428
0.0276019
0.0130231
0.0103751
0.0093975
0.00864387
0.00767391
0.00610229
0.00403919
0.0131252
0.0104268
0.00941906
0.00859325
0.00772315
0.0066032
0.00501307
0.00317103
0.000328985
0.000136725
9.67787e-05
8.48672e-05
8.02455e-05
7.90843e-05
7.81562e-05
7.74985e-05
0.00165649
0.000334692
0.000113493
7.76542e-05
7.03593e-05
6.68344e-05
6.37248e-05
6.27959e-05
0.00671082
0.00103484
0.000178211
7.47811e-05
5.83205e-05
5.10819e-05
4.56264e-05
4.10591e-05
0.00778671
0.00111188
0.000178601
7.87029e-05
6.33899e-05
5.62222e-05
5.12971e-05
4.717e-05
0.00214813
0.000339067
0.000112031
8.04087e-05
7.20524e-05
6.65556e-05
6.24021e-05
5.82924e-05
0.000315385
0.000107685
9.13315e-05
8.23202e-05
7.68206e-05
7.29582e-05
6.97799e-05
6.65217e-05
0.000105135
8.64151e-05
8.75631e-05
8.37545e-05
8.00701e-05
7.6924e-05
7.42484e-05
7.18701e-05
0.0015218
0.000467206
0.000314708
0.000256464
0.000221148
0.000194781
0.000173498
0.000155326
0.00711702
0.00102052
0.000414544
0.000290262
0.000237319
0.000203827
0.000179632
0.000160201
0.0208608
0.00194817
0.000512849
0.000312713
0.000242614
0.000200966
0.000170934
0.000147404
0.0207286
0.00162408
0.000469067
0.000300422
0.000234439
0.000192274
0.000161122
0.000136567
0.00485524
0.000721711
0.000363741
0.000270654
0.000221166
0.00018639
0.00015987
0.000138393
0.000991806
0.000405398
0.000300218
0.000246724
0.000210345
0.000183333
0.000162109
0.000144443
0.000411565
0.000317087
0.000266339
0.000227303
0.000197819
0.000175137
0.000157062
0.000141814
0.00450596
0.00207932
0.00158491
0.00130956
0.0010693
0.00084393
0.000642681
0.000478118
0.0153123
0.00334019
0.00181378
0.0013964
0.00113264
0.000895624
0.00067759
0.000493025
0.0383863
0.00513591
0.0019293
0.00135342
0.0010791
0.000851728
0.000642093
0.000460634
0.0430273
0.00463207
0.00181869
0.00129559
0.00102356
0.000795952
0.000590396
0.000415797
0.0107478
0.00268745
0.00169953
0.0013549
0.00109894
0.000861014
0.000641192
0.000454758
0.00328446
0.0019658
0.00159587
0.00133195
0.0010856
0.000851449
0.000640073
0.000465083
0.00207571
0.00172371
0.0014723
0.00122937
0.000996108
0.000781092
0.000593862
0.000442619
0.00994366
0.00677497
0.00553704
0.00462992
0.00390579
0.00334797
0.00291133
0.0024871
0.0213967
0.00856599
0.00601828
0.00486221
0.00404287
0.00343269
0.00297802
0.00255673
0.0446971
0.0107882
0.00611911
0.0047171
0.00386681
0.00326752
0.00285104
0.0024863
0.0466776
0.0101912
0.00586467
0.00452834
0.00368878
0.00310157
0.00271031
0.0023831
0.0172522
0.00768038
0.00569722
0.00463786
0.00383256
0.00323554
0.00281272
0.00244023
0.00878968
0.0065682
0.005469
0.00456918
0.00382688
0.00326106
0.00283919
0.00244654
0.00692266
0.00591511
0.00503031
0.004242
0.00360157
0.0031152
0.00273884
0.00236775
0.0128376
0.0102269
0.00919026
0.00836454
0.00748902
0.00636614
0.00480353
0.0030339
0.021817
0.0115709
0.00940385
0.00841072
0.00757223
0.00656345
0.00510619
0.00332449
0.0398753
0.0134183
0.00942415
0.00825718
0.00749514
0.00661718
0.00526775
0.00351141
0.040326
0.0129172
0.00909882
0.00798594
0.0072712
0.0064592
0.00518491
0.00349536
0.0187525
0.0106139
0.00884015
0.00798158
0.00727556
0.00642297
0.00511108
0.00341173
0.0115678
0.00954633
0.00860371
0.00786193
0.00713406
0.00622213
0.00487992
0.00322479
0.00988039
0.00900134
0.00828497
0.00759295
0.00683955
0.00586604
0.00449916
0.00293659
0.000166423
0.000103792
9.45724e-05
9.02227e-05
8.63393e-05
8.31771e-05
8.03742e-05
7.81807e-05
0.000486132
0.000140451
0.000102523
8.97292e-05
8.30111e-05
7.74074e-05
7.26417e-05
6.83214e-05
0.0022852
0.000425251
0.000134813
9.00386e-05
7.86596e-05
7.11891e-05
6.53855e-05
6.02393e-05
0.00818161
0.00131127
0.000228994
9.53653e-05
7.41752e-05
6.4822e-05
5.76502e-05
5.22834e-05
0.00710591
0.00124851
0.000240247
9.65612e-05
7.06384e-05
6.1927e-05
5.61424e-05
5.17935e-05
0.00189386
0.000430108
0.00014159
8.96345e-05
7.83657e-05
7.32191e-05
6.92487e-05
6.57009e-05
0.000338039
0.000144739
0.000105261
9.589e-05
9.10981e-05
8.86038e-05
8.64365e-05
8.45624e-05
0.000530049
0.000337026
0.000269542
0.000225751
0.000195176
0.000172707
0.000155395
0.000141168
0.00185742
0.000500336
0.000331895
0.000261913
0.000217292
0.000184501
0.000159217
0.000138894
0.0105952
0.0011792
0.000489936
0.000344244
0.000273176
0.00022274
0.000183709
0.000152778
0.0449551
0.00353599
0.000803805
0.000471411
0.000358042
0.000286736
0.000233572
0.000192144
0.0388312
0.00422473
0.000946771
0.000515471
0.000377438
0.000296899
0.000239155
0.0001952
0.0116277
0.001715
0.000611627
0.000393464
0.000302921
0.000246532
0.000205734
0.000174249
0.00172589
0.000484711
0.000345882
0.000286359
0.000244405
0.000211836
0.000185884
0.000164287
0.00229302
0.00175463
0.00149172
0.00124615
0.0010103
0.000792375
0.000602926
0.000451
0.00572727
0.00220167
0.00164805
0.00136288
0.00111661
0.000881709
0.000664092
0.000478746
0.0308035
0.00429585
0.00198252
0.00148913
0.00121248
0.000967532
0.000731018
0.000515986
0.133521
0.0114313
0.00267378
0.00162041
0.00126392
0.00100755
0.000771059
0.000554172
0.0939852
0.012019
0.00299565
0.00176296
0.00137231
0.00109969
0.000844348
0.000606706
0.0303576
0.00546295
0.00233591
0.00167785
0.00135202
0.001076
0.000814956
0.000584596
0.00643384
0.00240774
0.00177971
0.00146881
0.00119745
0.000939089
0.000706684
0.000517317
0.0074057
0.0061702
0.00525779
0.00444613
0.00377914
0.00326673
0.00286772
0.00247615
0.0119531
0.00712986
0.00573845
0.0047949
0.00403886
0.00346836
0.00305322
0.00267664
0.0391336
0.0102763
0.00627594
0.00491717
0.0040337
0.00340657
0.00299262
0.00266288
0.151692
0.0198
0.00728755
0.00500489
0.00395803
0.00327299
0.00283622
0.00251273
0.112576
0.0199125
0.00782757
0.00541902
0.00435922
0.00368604
0.00325337
0.00291141
0.0409788
0.0118916
0.0069935
0.00540944
0.004463
0.00379117
0.00330552
0.00286815
0.0138006
0.0077627
0.00605882
0.00500054
0.00418804
0.00356856
0.0030877
0.00262853
0.0105559
0.00950017
0.00876811
0.00806146
0.0072793
0.00624983
0.00478309
0.00308327
0.0147224
0.0105333
0.00940012
0.00870409
0.0080371
0.00713086
0.0056704
0.00377488
0.0375177
0.0137321
0.0101021
0.00911667
0.00856045
0.00785718
0.00651823
0.00455641
0.112261
0.0220586
0.0111614
0.00929186
0.00868599
0.00812101
0.00694598
0.00506928
0.0935272
0.0220801
0.0117283
0.00976884
0.0090017
0.00817815
0.00669413
0.00456548
0.0396838
0.0151062
0.0108127
0.0094717
0.00855697
0.00746558
0.00581959
0.00375308
0.0167309
0.0114233
0.00991458
0.00892686
0.00795018
0.00673627
0.00506095
0.00315656
6.78618e-05
6.2448e-05
6.08024e-05
6.08102e-05
6.58918e-05
7.16655e-05
7.79522e-05
0.000125544
0.00012458
0.000123119
0.000124411
0.000124955
0.000129755
0.000132131
0.000326357
0.000321309
0.000318743
0.000318295
0.00032266
0.000331191
0.000340341
0.00183606
0.00183277
0.00183113
0.00182451
0.0018219
0.00182144
0.00184067
0.00141883
0.00142766
0.00142767
0.00142612
0.00141998
0.00140582
0.00138358
8.35074e-05
6.54449e-05
5.25702e-05
4.65468e-05
5.21467e-05
6.23249e-05
7.64729e-05
0.000143435
0.00014439
0.00016069
0.00016299
0.000135453
0.000124292
0.000130901
0.000381455
0.000405872
0.000437392
0.000409392
0.000386701
0.000354195
0.000349575
0.00203762
0.00229022
0.002381
0.00207157
0.00221382
0.00217162
0.00197979
0.00134617
0.00158441
0.00216535
0.00275015
0.00226573
0.00169536
0.00138096
7.68946e-05
6.18935e-05
3.79e-05
4.31779e-05
5.42672e-05
6.35438e-05
6.94909e-05
0.000139204
0.000143105
0.000127837
0.000116362
0.000120132
0.000128635
0.000128184
0.000357427
0.000355743
0.000322748
0.000284769
0.000315976
0.000336262
0.000331708
0.00191682
0.0019524
0.00191656
0.00185272
0.00186874
0.00187588
0.00184993
0.00134288
0.00138052
0.0014125
0.00141358
0.00138538
0.00139486
0.00140675
7.59822e-05
6.49425e-05
5.55714e-05
4.7702e-05
4.84036e-05
6.29815e-05
8.24967e-05
0.000128667
0.000121852
0.000128069
0.00015996
0.000161142
0.000149288
0.000145682
0.00034071
0.000339011
0.000344619
0.000377918
0.000412545
0.000407298
0.000380187
0.00193458
0.00211205
0.00214211
0.00200973
0.00235722
0.00223141
0.00202126
0.00141482
0.00162399
0.00201871
0.00241633
0.00189113
0.00148602
0.0013368
6.55041e-05
6.00301e-05
5.27757e-05
4.53413e-05
3.79723e-05
3.11375e-05
2.50933e-05
1.98288e-05
6.03807e-05
5.631e-05
5.05854e-05
4.35228e-05
3.66889e-05
3.02409e-05
2.4462e-05
1.93824e-05
5.88531e-05
5.50688e-05
4.97324e-05
4.29715e-05
3.63368e-05
3.00174e-05
2.43194e-05
1.92881e-05
5.91541e-05
5.66495e-05
5.11211e-05
4.44528e-05
3.74545e-05
3.04757e-05
2.44915e-05
1.94118e-05
6.38652e-05
5.94878e-05
5.30094e-05
4.54271e-05
3.82111e-05
3.14503e-05
2.5432e-05
2.01627e-05
6.97379e-05
6.47263e-05
5.71533e-05
4.86013e-05
4.06467e-05
3.33792e-05
2.69497e-05
2.13528e-05
7.54141e-05
6.87503e-05
6.03969e-05
5.16814e-05
4.32074e-05
3.54861e-05
2.86659e-05
2.2731e-05
0.000112648
9.15015e-05
6.93541e-05
5.14393e-05
3.84338e-05
2.91831e-05
2.25284e-05
1.78198e-05
0.000111643
9.128e-05
6.94323e-05
5.19595e-05
3.89736e-05
2.96669e-05
2.29383e-05
1.81573e-05
0.000110387
9.05385e-05
6.90915e-05
5.18871e-05
3.90427e-05
2.98026e-05
2.30906e-05
1.83011e-05
0.000112022
9.15029e-05
6.99645e-05
5.22944e-05
3.90216e-05
2.97153e-05
2.30885e-05
1.83879e-05
0.000112452
9.20174e-05
6.98547e-05
5.22998e-05
3.9363e-05
3.0117e-05
2.34266e-05
1.86738e-05
0.000117142
9.54391e-05
7.19818e-05
5.35306e-05
4.01107e-05
3.05977e-05
2.37775e-05
1.89842e-05
0.000119739
9.74963e-05
7.33576e-05
5.42243e-05
4.0541e-05
3.08981e-05
2.40142e-05
1.91997e-05
0.000253148
0.000184209
0.000117782
7.30816e-05
4.67087e-05
3.1373e-05
2.23695e-05
1.72477e-05
0.000247903
0.000180491
0.00011648
7.28873e-05
4.69391e-05
3.17731e-05
2.28483e-05
1.7774e-05
0.000245182
0.000179247
0.000115924
7.27469e-05
4.69984e-05
3.19145e-05
2.30235e-05
1.79667e-05
0.000244879
0.000179615
0.000115869
7.27148e-05
4.70424e-05
3.19914e-05
2.31302e-05
1.81098e-05
0.000249907
0.000183948
0.000117072
7.27693e-05
4.68134e-05
3.17487e-05
2.2924e-05
1.79418e-05
0.000260066
0.000190996
0.000119757
7.36424e-05
4.69979e-05
3.16707e-05
2.27528e-05
1.775e-05
0.000271922
0.000199091
0.000123256
7.50036e-05
4.7434e-05
3.16713e-05
2.25209e-05
1.73785e-05
0.0012971
0.000586203
0.000228274
0.000101543
5.26577e-05
3.12437e-05
2.09804e-05
1.60446e-05
0.00128389
0.000580357
0.000226612
0.000101206
5.27879e-05
3.15831e-05
2.14441e-05
1.6602e-05
0.00127256
0.000574125
0.000224664
0.000100711
5.27456e-05
3.16955e-05
2.16196e-05
1.68107e-05
0.00126275
0.000568606
0.000222916
0.000100237
5.26257e-05
3.16969e-05
2.16824e-05
1.69157e-05
0.00126057
0.000565539
0.000221655
9.97294e-05
5.22771e-05
3.13786e-05
2.13667e-05
1.65956e-05
0.00126484
0.000566587
0.000222077
9.98459e-05
5.21185e-05
3.10648e-05
2.09726e-05
1.61549e-05
0.00128924
0.000579374
0.000227155
0.000101887
5.28588e-05
3.11622e-05
2.06881e-05
1.55959e-05
0.00111547
0.000653084
0.000264762
0.000111635
5.31243e-05
2.91757e-05
1.8694e-05
1.41468e-05
0.00110856
0.000649968
0.000264451
0.00011184
5.34657e-05
2.95799e-05
1.91477e-05
1.46567e-05
0.0010979
0.000644538
0.000262998
0.000111528
5.34951e-05
2.97224e-05
1.93362e-05
1.48698e-05
0.00109196
0.000641656
0.000262161
0.000111256
5.34137e-05
2.97305e-05
1.93925e-05
1.49541e-05
0.00109233
0.000641662
0.000261652
0.000110787
5.30148e-05
2.93797e-05
1.90623e-05
1.46166e-05
0.0010957
0.000642947
0.000261244
0.000110282
5.25384e-05
2.89228e-05
1.86029e-05
1.41278e-05
0.00110306
0.000645355
0.000260681
0.000109812
5.22003e-05
2.85858e-05
1.8182e-05
1.35643e-05
8.14879e-05
7.57015e-05
6.69522e-05
5.71262e-05
4.76057e-05
3.90389e-05
3.15648e-05
2.51295e-05
6.34407e-05
5.90249e-05
5.53382e-05
5.02532e-05
4.40375e-05
3.74737e-05
3.11364e-05
2.52558e-05
4.93093e-05
4.40391e-05
3.97292e-05
3.55152e-05
3.14805e-05
2.7244e-05
2.33755e-05
1.96245e-05
4.32068e-05
3.73773e-05
3.24803e-05
2.79902e-05
2.42058e-05
2.08337e-05
1.77564e-05
1.48786e-05
4.8265e-05
4.26415e-05
3.78728e-05
3.35095e-05
2.94006e-05
2.54548e-05
2.18393e-05
1.83483e-05
5.943e-05
5.53009e-05
5.0157e-05
4.51747e-05
3.93413e-05
3.34722e-05
2.78582e-05
2.25378e-05
7.41162e-05
6.88224e-05
6.13689e-05
5.27454e-05
4.41702e-05
3.63468e-05
2.93876e-05
2.33654e-05
0.000127908
0.000102534
7.51851e-05
5.38552e-05
3.90965e-05
2.9133e-05
2.23011e-05
1.76388e-05
0.000125263
0.00010191
7.92052e-05
6.03211e-05
4.54585e-05
3.4653e-05
2.68429e-05
2.13247e-05
0.000133275
0.000101633
7.61513e-05
5.7453e-05
4.34762e-05
3.3359e-05
2.55357e-05
1.94848e-05
0.000135381
0.00010361
7.8143e-05
5.91522e-05
4.5366e-05
3.46812e-05
2.65863e-05
2.0499e-05
0.000112677
8.57272e-05
6.44261e-05
4.8621e-05
3.69305e-05
2.8127e-05
2.14112e-05
1.63901e-05
0.000108649
8.71749e-05
6.82985e-05
5.21396e-05
3.96989e-05
3.0594e-05
2.3798e-05
1.88423e-05
0.000117883
9.64535e-05
7.23482e-05
5.28164e-05
3.88818e-05
2.92352e-05
2.24988e-05
1.78526e-05
0.00029389
0.000212834
0.000129753
7.7079e-05
4.74201e-05
3.07274e-05
2.11242e-05
1.56479e-05
0.000295081
0.000206211
0.000143012
9.43066e-05
6.29389e-05
4.35767e-05
3.15159e-05
2.40473e-05
0.000297781
0.000180005
0.000118825
8.5338e-05
6.50731e-05
5.07466e-05
3.90435e-05
2.94829e-05
0.000277774
0.000164844
0.000105066
7.18804e-05
5.12551e-05
3.72967e-05
2.75332e-05
2.06926e-05
0.000260971
0.000152671
9.66479e-05
6.60682e-05
4.77852e-05
3.60738e-05
2.74136e-05
2.10309e-05
0.000256141
0.000173453
0.000125366
8.47159e-05
5.72901e-05
3.98829e-05
2.87064e-05
2.15892e-05
0.00026944
0.000199948
0.000126191
7.69082e-05
4.82354e-05
3.17281e-05
2.20601e-05
1.64784e-05
0.00141505
0.000628616
0.000241748
0.00010555
5.32274e-05
3.04111e-05
1.94366e-05
1.39665e-05
0.00163323
0.000777946
0.000318823
0.000146312
7.81596e-05
4.75485e-05
3.21656e-05
2.391e-05
0.00179226
0.00095027
0.000450966
0.000233918
0.000137235
9.01928e-05
6.5364e-05
5.10148e-05
0.00150409
0.000756119
0.000338781
0.000162933
8.68601e-05
5.08717e-05
3.2259e-05
2.20096e-05
0.00165187
0.000863024
0.000399411
0.000200782
0.000113768
7.1291e-05
4.85689e-05
3.54412e-05
0.00156977
0.000769071
0.000321552
0.000149583
8.07276e-05
4.91261e-05
3.27481e-05
2.37153e-05
0.00139452
0.000631966
0.000247336
0.000109912
5.64879e-05
3.28222e-05
2.12228e-05
1.53258e-05
0.00108953
0.000625485
0.000248295
0.000103501
4.86529e-05
2.62504e-05
1.63395e-05
1.18205e-05
0.00123217
0.000713924
0.000295493
0.00013096
6.67464e-05
3.94688e-05
2.67435e-05
2.04988e-05
0.00155551
0.000935272
0.000425712
0.000209702
0.000119028
7.80061e-05
5.79698e-05
4.8173e-05
0.00190801
0.00118877
0.000602462
0.000329212
0.000197478
0.000126018
8.17472e-05
5.16327e-05
0.00162992
0.000990706
0.00046311
0.000234155
0.000134463
8.65474e-05
6.0525e-05
4.51181e-05
0.00131234
0.00077085
0.000327602
0.000149637
7.82426e-05
4.67371e-05
3.12548e-05
2.3085e-05
0.00112144
0.000649231
0.000261866
0.0001114
5.36069e-05
2.95418e-05
1.8628e-05
1.34903e-05
7.56344e-05
7.08868e-05
6.28885e-05
5.35188e-05
4.43632e-05
3.61563e-05
2.90788e-05
2.30078e-05
6.09248e-05
5.96852e-05
5.72805e-05
5.15491e-05
4.41072e-05
3.62944e-05
2.94337e-05
2.34844e-05
3.57187e-05
3.21898e-05
2.95921e-05
2.67685e-05
2.4332e-05
2.22607e-05
1.97198e-05
1.66404e-05
4.01248e-05
3.53046e-05
3.0877e-05
2.63553e-05
2.25567e-05
1.90666e-05
1.5894e-05
1.30819e-05
5.13756e-05
4.75029e-05
4.37654e-05
3.91945e-05
3.3875e-05
2.83064e-05
2.30634e-05
1.85e-05
6.21046e-05
6.05237e-05
5.47622e-05
4.78587e-05
4.01254e-05
3.26905e-05
2.62621e-05
2.08617e-05
6.71291e-05
6.19623e-05
5.50176e-05
4.7129e-05
3.92792e-05
3.20955e-05
2.58068e-05
2.03807e-05
0.000124252
9.95728e-05
7.33222e-05
5.292e-05
3.87199e-05
2.90822e-05
2.2425e-05
1.78449e-05
0.000128915
0.000107556
8.21792e-05
6.06192e-05
4.44803e-05
3.33958e-05
2.56917e-05
2.03817e-05
0.000112216
9.23886e-05
7.36932e-05
5.94455e-05
4.75423e-05
3.76076e-05
2.96003e-05
2.32416e-05
0.000100024
7.76994e-05
5.7608e-05
4.25514e-05
3.12069e-05
2.30546e-05
1.71545e-05
1.29372e-05
0.0001054
8.48856e-05
6.55667e-05
4.96046e-05
3.75162e-05
2.87478e-05
2.24545e-05
1.79142e-05
0.000115271
9.32939e-05
7.10819e-05
5.25213e-05
3.89158e-05
2.93088e-05
2.25882e-05
1.78444e-05
0.000115359
9.38407e-05
7.06766e-05
5.20267e-05
3.8529e-05
2.90233e-05
2.23068e-05
1.76177e-05
0.000277729
0.000202112
0.00012444
7.47378e-05
4.65116e-05
3.05349e-05
2.13304e-05
1.61329e-05
0.000270962
0.00019923
0.000130004
8.1967e-05
5.29868e-05
3.58797e-05
2.57321e-05
1.98452e-05
0.000239424
0.000169707
0.000126839
8.98431e-05
6.37245e-05
4.67679e-05
3.59777e-05
2.93415e-05
0.000206935
0.00014068
0.000104041
7.87049e-05
5.86137e-05
4.34901e-05
3.18364e-05
2.24096e-05
0.000234189
0.000163796
0.000114307
7.6529e-05
5.21834e-05
3.72643e-05
2.82129e-05
2.29502e-05
0.000256297
0.000184762
0.000119853
7.52403e-05
4.84844e-05
3.27474e-05
2.34005e-05
1.79682e-05
0.000256636
0.00018643
0.000118884
7.34735e-05
4.67283e-05
3.12149e-05
2.21301e-05
1.69589e-05
0.00133626
0.000593345
0.000228421
0.00010039
5.10394e-05
2.94451e-05
1.90894e-05
1.40439e-05
0.00136131
0.000612247
0.000237847
0.000105601
5.48617e-05
3.26982e-05
2.20408e-05
1.68321e-05
0.00135168
0.000628899
0.00024884
0.000112721
6.13393e-05
3.92242e-05
2.87736e-05
2.39039e-05
0.00132411
0.00063468
0.000267586
0.00013025
7.83535e-05
5.67402e-05
4.68551e-05
4.20179e-05
0.00131411
0.0006069
0.000239182
0.000108343
5.90024e-05
3.7846e-05
2.78584e-05
2.30932e-05
0.00131567
0.000596693
0.0002324
0.000103439
5.40033e-05
3.24163e-05
2.20186e-05
1.69118e-05
0.00130651
0.000590044
0.000229252
0.000101672
5.25576e-05
3.10674e-05
2.07526e-05
1.57528e-05
0.0010807
0.000626985
0.000251122
0.000104966
4.92402e-05
2.64035e-05
1.63448e-05
1.18644e-05
0.00108426
0.000629816
0.000253623
0.000106591
5.05965e-05
2.77064e-05
1.7673e-05
1.32842e-05
0.00109652
0.000638015
0.000258684
0.000110367
5.41119e-05
3.12698e-05
2.14497e-05
1.74606e-05
0.00109252
0.00063813
0.000262252
0.000116065
6.13257e-05
3.98208e-05
3.14495e-05
2.93021e-05
0.0010814
0.000629831
0.000254967
0.000108835
5.36265e-05
3.13317e-05
2.18126e-05
1.79763e-05
0.00109236
0.000637861
0.000258117
0.000109007
5.21873e-05
2.89657e-05
1.87937e-05
1.43635e-05
0.00110914
0.000648673
0.000262497
0.00011055
5.25327e-05
2.87834e-05
1.83712e-05
1.38269e-05
7.31659e-05
6.78535e-05
6.06502e-05
5.24244e-05
4.41333e-05
3.64725e-05
2.96651e-05
2.36967e-05
6.19913e-05
5.63043e-05
5.16751e-05
4.63433e-05
4.02359e-05
3.3968e-05
2.81045e-05
2.27662e-05
5.16487e-05
4.51305e-05
4.00207e-05
3.52542e-05
3.06829e-05
2.62636e-05
2.21377e-05
1.84065e-05
4.39496e-05
3.7702e-05
3.25637e-05
2.8118e-05
2.41194e-05
2.06281e-05
1.74071e-05
1.45661e-05
4.57355e-05
4.13306e-05
3.73412e-05
3.35432e-05
2.96548e-05
2.5876e-05
2.21911e-05
1.8719e-05
6.09324e-05
5.65778e-05
5.28787e-05
4.8787e-05
4.28907e-05
3.65128e-05
3.0402e-05
2.48084e-05
8.03037e-05
7.46759e-05
6.58518e-05
5.59541e-05
4.65141e-05
3.81448e-05
3.08938e-05
2.46286e-05
0.000117174
9.72773e-05
7.43479e-05
5.54303e-05
4.15533e-05
3.16851e-05
2.46369e-05
1.96782e-05
0.000107777
8.85706e-05
6.98744e-05
5.38778e-05
4.14132e-05
3.21461e-05
2.5282e-05
2.02308e-05
0.000108262
8.349e-05
6.2814e-05
4.72767e-05
3.57522e-05
2.71494e-05
2.06697e-05
1.58287e-05
0.000133666
0.00010209
7.65829e-05
5.73574e-05
4.31211e-05
3.26177e-05
2.47985e-05
1.89861e-05
0.000133866
0.000102703
7.7383e-05
5.82749e-05
4.41764e-05
3.35336e-05
2.54775e-05
1.93446e-05
0.000129178
0.000104342
8.13407e-05
6.08822e-05
4.55752e-05
3.47605e-05
2.71644e-05
2.17233e-05
0.000128735
0.000101836
7.40397e-05
5.27987e-05
3.8338e-05
2.8665e-05
2.2061e-05
1.7539e-05
0.00026826
0.000201414
0.000129076
8.02358e-05
5.13867e-05
3.4513e-05
2.44956e-05
1.8666e-05
0.00025245
0.000178076
0.000127758
8.63341e-05
5.87563e-05
4.13265e-05
3.02646e-05
2.33658e-05
0.000235288
0.000139894
9.03977e-05
6.37984e-05
4.8427e-05
3.69954e-05
2.82333e-05
2.17116e-05
0.000259279
0.000155614
9.97447e-05
6.80683e-05
4.80972e-05
3.47079e-05
2.55108e-05
1.92067e-05
0.000283688
0.000176878
0.00012125
9.08941e-05
7.14841e-05
5.60409e-05
4.39196e-05
3.45823e-05
0.000295664
0.000208309
0.0001414
9.18851e-05
6.08631e-05
4.19629e-05
3.0223e-05
2.29421e-05
0.000292016
0.000210997
0.000128597
7.64618e-05
4.71567e-05
3.06728e-05
2.11732e-05
1.57421e-05
0.00137185
0.000628522
0.000249766
0.000113098
5.94191e-05
3.54365e-05
2.35869e-05
1.754e-05
0.00152825
0.000744735
0.00031086
0.000145355
7.91449e-05
4.90369e-05
3.36277e-05
2.52266e-05
0.00159744
0.000825915
0.00037849
0.000190463
0.000108447
6.97475e-05
4.95344e-05
3.80063e-05
0.00147759
0.000752041
0.000342387
0.000168309
9.13466e-05
5.39746e-05
3.40093e-05
2.25779e-05
0.00175755
0.000906774
0.000412883
0.000204187
0.000114748
7.38354e-05
5.3035e-05
4.16393e-05
0.00157788
0.000738058
0.000297687
0.000135141
7.16306e-05
4.33803e-05
2.92377e-05
2.17045e-05
0.0014033
0.000621822
0.000238464
0.000103946
5.24052e-05
2.99768e-05
1.91944e-05
1.38271e-05
0.00113762
0.000663371
0.000269292
0.000115189
5.60035e-05
3.13986e-05
2.02743e-05
1.51046e-05
0.0012667
0.000742706
0.000311868
0.000140528
7.29901e-05
4.38483e-05
2.99572e-05
2.30035e-05
0.00148618
0.000895696
0.000405384