/*--------------------------------*- C++ -*----------------------------------*\
| =========                 |                                                 |
| \\      /  F ield         | OpenFOAM: The Open Source CFD Toolbox           |
|  \\    /   O peration     | Version:  plus.master.MPPICInterFoam            |
|   \\  /    A nd           | Web:      www.OpenFOAM.com                      |
|    \\/     M anipulation  |                                                 |
\*---------------------------------------------------------------------------*/
FoamFile
{
    version     2.0;
    format      ascii;
    class       volScalarField;
    location    "12.8";
    object      k;
}
// * * * * * * * * * * * * * * * * * * * * * * * * * * * * * * * * * * * * * //

dimensions      [0 2 -2 0 0 0 0];

internalField   nonuniform List<scalar> 
11821
(
0.000687553
0.00226964
0.00721189
0.00859743
0.0036874
0.00103121
0.000323933
0.00180098
0.00842984
0.0332386
0.0460653
0.0222077
0.00579638
0.00125296
0.00467923
0.0239112
0.0292675
0.0552223
0.0247168
0.0257979
0.00496603
0.00976301
0.0513661
0.0528635
0.0500007
0.0646358
0.0414044
0.00875175
0.00583129
0.0297545
0.0283328
0.0443659
0.0290639
0.0286185
0.00629395
0.00202706
0.00815091
0.033381
0.049804
0.0186671
0.00837419
0.00194706
0.000754205
0.00229072
0.00700538
0.00861569
0.00344748
0.00147808
0.000525907
0.00129915
0.00583447
0.0139344
0.015198
0.00574936
0.00143074
0.000603616
0.00529473
0.0215203
0.0615954
0.0918855
0.0331474
0.00838753
0.00146278
0.0147601
0.0556731
0.0704472
0.124681
0.0560664
0.031429
0.00549917
0.0259703
0.114879
0.180868
0.174985
0.261255
0.0615599
0.00972318
0.0176803
0.0642829
0.0779179
0.171856
0.0641755
0.0424761
0.0082116
0.00667265
0.0247239
0.0692485
0.118324
0.0424992
0.0131673
0.00283985
0.00172113
0.00724511
0.0185353
0.0230123
0.00935966
0.00265077
0.000709284
0.00304583
0.00937241
0.0191777
0.0231737
0.00810912
0.00232582
0.00152196
0.0104263
0.0297267
0.07004
0.104339
0.0364783
0.00888454
0.00211389
0.0253016
0.073541
0.0677162
0.152849
0.107038
0.0295092
0.00490502
0.0422334
0.142148
0.215397
0.254134
0.516568
0.0672064
0.00903683
0.0297072
0.0792344
0.0874687
0.210641
0.117054
0.0419054
0.00788515
0.0138616
0.0376378
0.0788631
0.138739
0.0532715
0.0160057
0.00348754
0.00443243
0.0139185
0.0283141
0.0369392
0.0161333
0.00440068
0.0016504
0.0045584
0.0100515
0.0188106
0.0214453
0.00816662
0.00372351
0.00320681
0.0119008
0.030925
0.0587579
0.087511
0.0330527
0.00843902
0.00350757
0.0284609
0.0705315
0.0774212
0.0976693
0.109499
0.0248488
0.00502144
0.0479012
0.143315
0.200641
0.279166
0.384041
0.0522511
0.0077216
0.03452
0.0881147
0.0845907
0.176682
0.132963
0.0349628
0.00702224
0.0168689
0.0427268
0.0830031
0.118223
0.0506671
0.0151941
0.00430823
0.00641772
0.0164029
0.0312285
0.0380355
0.0170357
0.00529779
0.0033236
0.00498686
0.00895501
0.0155953
0.016094
0.00731228
0.00425039
0.00386237
0.0107104
0.027522
0.0489355
0.0571324
0.0256612
0.00743401
0.00408517
0.0259637
0.0645402
0.10992
0.105067
0.0776622
0.0189518
0.00498874
0.0444535
0.129048
0.142613
0.22242
0.227167
0.0380336
0.00679652
0.0318439
0.0779859
0.0819528
0.116998
0.116834
0.0274033
0.00624085
0.0155648
0.0395086
0.0712195
0.0953267
0.043984
0.012513
0.00459389
0.0066295
0.014896
0.0278195
0.0325951
0.0143193
0.00540587
0.00398667
0.000150717
0.000129274
0.000129555
0.00012416
0.000119843
0.000116179
0.000112997
0.000110211
0.000413264
0.000185026
0.000137023
0.000123246
0.000116592
0.000111834
0.000107851
0.000104495
0.00151874
0.000433969
0.000173126
0.000126932
0.000116335
0.000110915
0.000106651
0.000102957
0.00278169
0.000799771
0.000240006
0.000134905
0.000117129
0.000111356
0.000107287
0.000103462
0.00193618
0.000544435
0.000194527
0.000133278
0.000120484
0.000114885
0.000111204
0.000108175
0.000683525
0.000262087
0.00015602
0.000132687
0.000124294
0.000119655
0.000116487
0.000113961
0.00024315
0.00016142
0.000140866
0.000131041
0.000127469
0.000124828
0.000122522
0.000120368
0.000505127
0.000461872
0.000421287
0.000386194
0.000357629
0.000333751
0.000312871
0.000293526
0.000564871
0.000477331
0.00043181
0.000393502
0.000362339
0.000336564
0.000314479
0.000294281
0.000874759
0.000483363
0.000427474
0.000390599
0.000360472
0.000335024
0.000313004
0.000292678
0.00127533
0.000493273
0.000424587
0.000389684
0.000360784
0.000335755
0.000313878
0.000293716
0.00120799
0.000490128
0.000421174
0.000387424
0.000359262
0.000334867
0.000313476
0.000293488
0.000667232
0.000456723
0.00041451
0.000383545
0.000357567
0.000335178
0.000315414
0.000296666
0.000481443
0.000431846
0.000400619
0.000372987
0.000349597
0.000329547
0.00031158
0.000294408
0.00139131
0.00130898
0.00120032
0.00107529
0.000941846
0.000806871
0.000677744
0.000562643
0.00143078
0.00133035
0.00122757
0.00110488
0.0009694
0.000828708
0.000691175
0.000566694
0.0015454
0.00131457
0.00122717
0.0011165
0.000985052
0.000842796
0.000700309
0.000569575
0.00169992
0.00128602
0.00121765
0.00111896
0.000991139
0.000848338
0.000703689
0.000570609
0.00179039
0.00131054
0.00121861
0.00111322
0.00098389
0.000841826
0.000699366
0.000569334
0.00148741
0.00130171
0.00120539
0.00109076
0.000959557
0.000821187
0.000686084
0.00056492
0.00134428
0.00126423
0.00116576
0.00104795
0.000919335
0.000788678
0.000664554
0.00055529
0.00301809
0.00280675
0.00253344
0.00225447
0.00200791
0.00180838
0.00164707
0.00148571
0.00307756
0.00290586
0.00264363
0.00234874
0.00207462
0.00184983
0.00167308
0.00150454
0.00308005
0.00291782
0.0027032
0.00241787
0.00213071
0.00188752
0.00169677
0.00151998
0.00308889
0.00288555
0.00271627
0.0024472
0.00215761
0.00190571
0.00170677
0.00152423
0.00320577
0.00292206
0.00271411
0.00243425
0.00214578
0.00189794
0.00170123
0.00151821
0.00311436
0.00291401
0.00266455
0.00237494
0.00209823
0.00186628
0.00167987
0.00150063
0.00300966
0.00281548
0.00255431
0.0022792
0.0020304
0.0018244
0.00165389
0.00148176
0.0036478
0.00340492
0.00312114
0.00283037
0.002535
0.00220145
0.00178006
0.00130415
0.00373462
0.00351276
0.00321967
0.00291102
0.00260675
0.00227768
0.00186278
0.00137386
0.00373929
0.00355471
0.00329583
0.00298832
0.00267678
0.00234415
0.0019258
0.00142293
0.003725
0.00354039
0.00331998
0.00302236
0.00270845
0.00237233
0.00195061
0.00144105
0.00380891
0.00356083
0.00330857
0.00300254
0.00268706
0.00234972
0.00192768
0.0014218
0.00377101
0.00353911
0.00325437
0.0029434
0.00263029
0.00229147
0.00186811
0.0013715
0.00367871
0.00345218
0.0031764
0.00288375
0.00257983
0.00223371
0.00179695
0.00130448
0.000255876
0.000154712
0.000139336
0.000134466
0.000131884
0.000129574
0.000127118
0.000125325
0.000685752
0.000249029
0.000152545
0.000128241
0.000120833
0.000116435
0.000112065
0.000107849
0.00196646
0.000658868
0.000237965
0.000137041
0.000116152
0.000107457
0.000100777
9.53309e-05
0.0030019
0.000937141
0.00028566
0.000138499
0.000110619
0.0001009
9.3996e-05
8.82733e-05
0.00161167
0.000554883
0.000207717
0.000131254
0.000114288
0.000106686
0.00010112
9.53667e-05
0.000536698
0.000205875
0.000141311
0.000122742
0.000116774
0.000112902
0.000109854
0.000106283
0.000238226
0.000148969
0.000133399
0.000129073
0.000125823
0.000125279
0.000123011
0.000119784
0.000640876
0.000498878
0.000452206
0.000414689
0.000382201
0.000354111
0.000329633
0.000307246
0.00140511
0.000598362
0.000494664
0.000449946
0.000411233
0.000375456
0.000343501
0.000315162
0.00404378
0.000961737
0.000561062
0.000496904
0.000452423
0.000407851
0.000365689
0.000327543
0.00537624
0.00108927
0.000561113
0.00049548
0.000450666
0.000403451
0.000358336
0.000318159
0.0028869
0.00071833
0.000506776
0.0004591
0.000417248
0.000374862
0.000334671
0.000298851
0.00100688
0.000518146
0.000453276
0.000413648
0.000376494
0.000342574
0.000312761
0.000286535
0.000556288
0.000462012
0.000423453
0.000388993
0.000358889
0.000332839
0.000310851
0.000291217
0.00179454
0.00139537
0.00127582
0.00116267
0.00102971
0.000882771
0.000734878
0.00060071
0.00360007
0.00159773
0.00131388
0.00121007
0.00109768
0.000961034
0.000809319
0.000658964
0.00839445
0.00221224
0.00132111
0.0012
0.00111229
0.000996286
0.000854215
0.000699834
0.0111945
0.00244333
0.00125309
0.00113664
0.00105588
0.000944388
0.000808239
0.000660911
0.00642528
0.00177256
0.00125218
0.00115968
0.00106621
0.000944467
0.000800835
0.000648893
0.00257064
0.00140982
0.00124643
0.00114974
0.00103286
0.000894948
0.000746844
0.000603538
0.00151145
0.00130684
0.00121504
0.00110679
0.000977632
0.000836974
0.000697325
0.000571547
0.00360943
0.00308545
0.00278463
0.00248728
0.00220769
0.00196964
0.0017719
0.00157814
0.00553606
0.00334741
0.0028991
0.00261684
0.00234244
0.00210024
0.00190664
0.00172775
0.0105776
0.00384273
0.002856
0.00259227
0.00234539
0.00211252
0.0019333
0.00178693
0.014137
0.00401452
0.00269745
0.00246341
0.00223
0.00199174
0.00180207
0.00164829
0.00824146
0.00339162
0.00275917
0.00251953
0.00226609
0.00202896
0.00184763
0.0017
0.00428193
0.00308811
0.00277977
0.00251238
0.00224306
0.00200954
0.0018265
0.0016597
0.00321421
0.00292942
0.00266806
0.00238566
0.00212115
0.00189908
0.00171683
0.00153834
0.00432228
0.00381364
0.00347517
0.00313791
0.00278977
0.00239892
0.00190894
0.00135346
0.00598736
0.00414769
0.00369154
0.00337608
0.00305338
0.00267965
0.00218157
0.00157193
0.0100139
0.00460839
0.0037773
0.00351387
0.00326685
0.00296045
0.00249817
0.00187455
0.0129457
0.00471716
0.00364884
0.00342912
0.00322979
0.00298465
0.00259696
0.00204006
0.00803573
0.00421846
0.00366726
0.00343783
0.00320363
0.00291628
0.00248071
0.00188584
0.00487053
0.0038877
0.0035695
0.00329058
0.00299603
0.00265189
0.00218194
0.00159692
0.00393571
0.00363554
0.00334595
0.00303794
0.00271827
0.00235404
0.00188828
0.001353
0.000303666
0.000171127
0.000136331
0.000124925
0.000120399
0.000119271
0.000118382
0.000117747
0.000885582
0.000308482
0.000151352
0.000117792
0.000110324
0.000106582
0.000103247
0.000102264
0.00225736
0.00065338
0.000204007
0.000114715
9.72805e-05
8.90705e-05
8.26106e-05
7.70094e-05
0.0025022
0.000685922
0.000204279
0.000118779
0.000102908
9.49851e-05
8.93575e-05
8.44887e-05
0.00105341
0.000311035
0.000150223
0.000120559
0.000112072
0.000106293
0.000101819
9.72975e-05
0.000294649
0.000146063
0.000131237
0.000122465
0.000116957
0.000113002
0.000109694
0.000106254
0.000143785
0.000126512
0.000127695
0.000123896
0.000120235
0.000117062
0.00011435
0.000111931
0.000589233
0.000460051
0.00042619
0.00039859
0.00037328
0.000349768
0.000327814
0.00030668
0.00121043
0.000523278
0.000445207
0.000410217
0.000380453
0.000354284
0.00033217
0.000312239
0.00240013
0.000612271
0.000452421
0.00040874
0.000371833
0.000338753
0.000310221
0.000285365
0.00207349
0.000562996
0.000449988
0.000407588
0.000367546
0.000330482
0.000298037
0.000269421
0.000911423
0.000504098
0.000447669
0.000405735
0.000368134
0.000335333
0.000307212
0.000282164
0.00057314
0.000486093
0.000439852
0.000400002
0.000366953
0.000339684
0.000316313
0.000295015
0.000515926
0.000469306
0.000425695
0.000388955
0.000359408
0.000335122
0.000314236
0.000295059
0.00149484
0.00128228
0.00119577
0.00109498
0.000973122
0.000839063
0.000704788
0.000582725
0.00234882
0.00133993
0.0012044
0.00111761
0.00100817
0.00087791
0.000738778
0.000605808
0.00384089
0.00136427
0.00114192
0.00106569
0.000968194
0.000847626
0.000714767
0.000583876
0.00352609
0.00127013
0.00111768
0.0010395
0.000932467
0.000804792
0.000668818
0.000537925
0.00181878
0.00129375
0.00120453
0.00110943
0.000988726
0.00085069
0.000706108
0.000568607
0.00145151
0.0013406
0.00124562
0.00112958
0.000996278
0.000853539
0.000710821
0.00057969
0.0014031
0.00132382
0.0012155
0.00108906
0.000953367
0.000815838
0.000684229
0.000566985
0.0031584
0.00288323
0.00262705
0.00235238
0.00209478
0.00187696
0.00169601
0.00151599
0.00379721
0.00295172
0.00268215
0.00241876
0.002154
0.00192415
0.0017378
0.00155917
0.00493643
0.00288017
0.00258363
0.00234946
0.00209634
0.00187335
0.00170051
0.00154288
0.00455158
0.0027312
0.00251404
0.00228944
0.00203359
0.00181067
0.00164517
0.00150158
0.00327013
0.00282602
0.00262265
0.00236124
0.00208841
0.00185579
0.00167692
0.00151458
0.00307557
0.00290134
0.00265138
0.00236417
0.00209196
0.00186576
0.00168678
0.00151659
0.00301825
0.00281284
0.00254017
0.00226131
0.00201439
0.00181407
0.00165181
0.00148963
0.00386158
0.00357174
0.0032863
0.00298136
0.00266149
0.00229689
0.00183623
0.00131562
0.00432704
0.00364624
0.0033408
0.0030388
0.00272283
0.00237061
0.0019231
0.00139501
0.00509878
0.00359978
0.00328985
0.00302061
0.00273
0.00240231
0.0019733
0.00144742
0.00475175
0.0034607
0.00322033
0.00296805
0.00268726
0.00237289
0.00195913
0.00144661
0.00388201
0.00349975
0.00325913
0.00297732
0.00268118
0.0023553
0.00193376
0.00142054
0.00373519
0.00351731
0.00323575
0.00293338
0.00262998
0.00229752
0.0018748
0.00137445
0.00363996
0.00340051
0.00311617
0.00282561
0.0025312
0.0021991
0.00177878
0.00130213
0.000194573
0.000142754
0.000134347
0.000130217
0.000126443
0.000123332
0.000120549
0.000118382
0.000392038
0.000173932
0.000141861
0.000129701
0.000123158
0.000117553
0.000112668
0.000108162
0.0010965
0.000360835
0.00016994
0.000129966
0.000118793
0.000111157
0.000105034
9.94481e-05
0.00258242
0.000764843
0.000240927
0.000134927
0.000114229
0.000104417
9.65621e-05
9.04755e-05
0.00234272
0.000740039
0.000248731
0.000136057
0.00011055
0.000101285
9.48799e-05
8.9918e-05
0.000967764
0.000364918
0.000175301
0.000129553
0.000118524
0.000113283
0.000109143
0.000105383
0.000309263
0.000177658
0.00014424
0.000135616
0.000131051
0.000128641
0.000126565
0.000124771
0.000500407
0.000451685
0.000411629
0.0003766
0.00034803
0.000324777
0.000305209
0.000287633
0.000652991
0.000491953
0.000443484
0.000400391
0.000363096
0.000331419
0.000304616
0.000281227
0.00144538
0.000567188
0.000490978
0.000444829
0.000400286
0.000357912
0.000319987
0.000286635
0.00381584
0.000786699
0.000544383
0.000495037
0.000447641
0.00039863
0.000353318
0.000313235
0.00396444
0.000927302
0.000570768
0.000505962
0.00045558
0.000406361
0.000361519
0.000322227
0.00177014
0.000665014
0.000520891
0.000468379
0.00042449
0.000385022
0.000350621
0.000320564
0.000686899
0.000510272
0.000462432
0.000424828
0.000391909
0.000362765
0.000336741
0.000312531
0.00136908
0.00129311
0.00119411
0.0010733
0.000940469
0.00080446
0.000674218
0.000559001
0.00159474
0.00131738
0.00122256
0.00111729
0.000993275
0.000856404
0.000715163
0.000581391
0.00320846
0.00137226
0.00120801
0.00112717
0.00102226
0.000893701
0.000749234
0.000601454
0.00834007
0.00175269
0.00118065
0.00110653
0.00101973
0.000903543
0.000767518
0.000624331
0.00763295
0.00199262
0.0012606
0.00116019
0.00107473
0.00095992
0.000820689
0.000670808
0.00377644
0.00160925
0.00130789
0.00120562
0.00109701
0.000963473
0.000812883
0.00066161
0.00180726
0.00139347
0.00127506
0.00116308
0.00103089
0.000884212
0.000736194
0.000601678
0.0030223
0.00284293
0.00258389
0.0023093
0.0020609
0.00185624
0.00168886
0.00152153
0.0032059
0.00291984
0.00269453
0.00243146
0.00217288
0.00195559
0.00178625
0.00162838
0.00454621
0.00289358
0.00264988
0.00242748
0.00217486
0.00195103
0.00178566
0.00164811
0.00988973
0.00316831
0.00254846
0.00235897
0.00212589
0.00189881
0.00172664
0.00158941
0.00921801
0.00349742
0.00273069
0.00249661
0.00226401
0.00204905
0.00188633
0.00174904
0.00536687
0.00327166
0.0028416
0.00256661
0.00229942
0.0020637
0.00187319
0.00169356
0.00357617
0.00306123
0.00276237
0.00246735
0.0021905
0.00195516
0.00175981
0.00156806
0.00370191
0.00348557
0.00321037
0.00292124
0.00262236
0.00227974
0.00184076
0.00133664
0.00392225
0.00365248
0.00341028
0.00314085
0.00285704
0.00252728
0.00208073
0.00153005
0.00495313
0.00370929
0.00347476
0.00326347
0.00302556
0.00273904
0.00231688
0.00175295
0.00868704
0.00394248
0.00345175
0.00326968
0.00306672
0.00281943
0.002437
0.00189869
0.00857068
0.00424454
0.00361208
0.00336664
0.00311682
0.002807
0.00234973
0.0017445
0.00572432
0.00403635
0.00360241
0.00328847
0.0029646
0.00259098
0.00209959
0.00150811
0.00428275
0.00378434
0.00344755
0.00311259
0.00276723
0.00237946
0.00189353
0.00134354
0.000107744
0.0001019
0.000100097
0.000100095
0.00010564
0.000111736
0.000118197
0.000274599
0.000274292
0.000272366
0.00027359
0.000273472
0.0002778
0.000277093
0.000469318
0.000465714
0.000463317
0.000462677
0.000464291
0.000467453
0.000467852
0.00125884
0.00125903
0.0012588
0.00125573
0.00125172
0.00124541
0.00124462
0.000817538
0.000821003
0.000821051
0.000820476
0.000818111
0.000812629
0.000803975
0.000123735
0.000105101
9.08073e-05
8.37246e-05
9.03139e-05
0.00010172
0.000116654
0.000286126
0.000289908
0.000294044
0.000283859
0.000267492
0.000263387
0.000272838
0.000492612
0.000529188
0.000555873
0.000524198
0.000509266
0.000481808
0.000470521
0.00131983
0.0014682
0.00156585
0.00142006
0.00147942
0.00141664
0.00129641
0.000789355
0.000879657
0.00108332
0.00127054
0.00111653
0.000920305
0.000802885
0.000117128
0.000101276
7.30165e-05
7.96367e-05
9.27611e-05
0.000103091
0.000109463
0.000285874
0.00029283
0.000262886
0.00024368
0.000258942
0.00027422
0.000276459
0.000483434
0.000494881
0.000471906
0.000427516
0.000453871
0.000472426
0.000472001
0.00127121
0.00130181
0.00129834
0.00127213
0.00126792
0.00126958
0.00126189
0.00078807
0.000802784
0.000815028
0.000815396
0.000804651
0.000808352
0.000812883
0.000116172
0.000104561
9.42407e-05
8.51059e-05
8.59492e-05
0.000102451
0.000122734
0.000270841
0.000260062
0.000257552
0.00027911
0.000288458
0.000294241
0.00028941
0.00046675
0.000468994
0.000469058
0.000493469
0.000532428
0.000530047
0.000493114
0.00128787
0.00139156
0.00143219
0.00137675
0.0015266
0.00143155
0.00131174
0.000815979
0.000894259
0.00103379
0.00116541
0.000989793
0.00084306
0.000785709
0.000105237
9.92544e-05
9.10719e-05
8.22967e-05
7.31149e-05
6.40524e-05
5.54679e-05
4.74091e-05
9.96633e-05
9.51156e-05
8.85372e-05
8.00832e-05
7.14594e-05
6.28179e-05
5.45345e-05
4.66956e-05
9.79688e-05
9.37151e-05
8.75404e-05
7.94063e-05
7.10021e-05
6.25085e-05
5.43228e-05
4.65445e-05
9.82946e-05
9.5502e-05
8.91637e-05
8.12212e-05
7.24508e-05
6.31431e-05
5.45788e-05
4.67432e-05
0.000103471
9.8659e-05
9.13421e-05
8.24017e-05
7.34221e-05
6.44814e-05
5.59666e-05
4.79406e-05
0.000109724
0.000104367
9.60407e-05
8.61952e-05
7.65087e-05
6.70907e-05
5.81707e-05
4.98081e-05
0.00011559
0.000108644
9.96391e-05
8.97988e-05
7.96884e-05
6.98844e-05
6.06142e-05
5.19283e-05
0.000254861
0.000221891
0.000186755
0.000154812
0.000127202
0.000103524
8.32176e-05
6.62073e-05
0.000254719
0.000222622
0.000187161
0.000155464
0.000127684
0.000103869
8.35012e-05
6.6515e-05
0.000253112
0.000221628
0.000186555
0.00015515
0.000127558
0.000103874
8.35796e-05
6.66301e-05
0.000254985
0.000223014
0.000188165
0.000156078
0.000127596
0.000103667
8.34864e-05
6.66982e-05
0.000254564
0.000222958
0.000187949
0.000156557
0.000128944
0.000105167
8.47305e-05
6.76225e-05
0.000259086
0.000227068
0.000191624
0.000159653
0.000131553
0.000107307
8.64529e-05
6.89793e-05
0.000258828
0.000227406
0.000192669
0.000160823
0.000133042
0.000108996
8.81793e-05
7.05633e-05
0.000397281
0.000323946
0.000254871
0.000196012
0.000149632
0.000114057
8.71504e-05
6.74233e-05
0.000393357
0.000321066
0.000253438
0.00019533
0.000149294
0.000113937
8.72367e-05
6.77305e-05
0.000390873
0.000319858
0.000252828
0.000195055
0.000149211
0.000113966
8.73507e-05
6.79176e-05
0.000390497
0.000320213
0.000253032
0.00019528
0.000149479
0.000114219
8.76055e-05
6.82076e-05
0.000393301
0.000323644
0.000254779
0.000196157
0.000150065
0.000114727
8.80389e-05
6.85302e-05
0.00039896
0.000329198
0.000258157
0.00019838
0.000151723
0.000116043
8.90823e-05
6.9324e-05
0.000402641
0.000332631
0.000259928
0.00019951
0.000152783
0.000117186
9.02503e-05
7.0378e-05
0.00099653
0.000616302
0.000364291
0.000236332
0.000163898
0.000118502
8.85306e-05
6.86977e-05
0.000992122
0.000614009
0.00036343
0.000236004
0.000163834
0.000118654
8.89164e-05
6.9312e-05
0.000987587
0.000610975
0.000362249
0.00023567
0.000163849
0.000118839
8.92135e-05
6.9691e-05
0.000983009
0.000607963
0.000361162
0.000235463
0.000163933
0.000119036
8.94836e-05
7.00215e-05
0.000979707
0.000605168
0.000360109
0.000235356
0.000164107
0.000119243
8.96225e-05
7.00669e-05
0.00097661
0.000603111
0.000359597
0.000235599
0.000164518
0.000119619
8.98835e-05
7.01888e-05
0.000979726
0.00060482
0.000360232
0.000235914
0.000164819
0.000119977
9.02212e-05
7.03833e-05
0.000767835
0.000609241
0.00038484
0.000247863
0.000166836
0.000117467
8.68431e-05
6.81062e-05
0.000767301
0.000610073
0.000386084
0.000248867
0.000167688
0.000118305
8.77699e-05
6.91581e-05
0.000764323
0.000608899
0.00038604
0.00024916
0.000168104
0.000118784
8.83114e-05
6.97541e-05
0.0007626
0.000608401
0.000386119
0.000249325
0.000168288
0.000119017
8.86077e-05
7.01015e-05
0.000761232
0.000607367
0.000385381
0.00024886
0.000167962
0.000118745
8.83313e-05
6.97946e-05
0.000758322
0.000604408
0.000383186
0.000247539
0.00016713
0.000118132
8.7768e-05
6.91969e-05
0.000752173
0.000597021
0.000377173
0.000243647
0.000164751
0.000116687
8.67752e-05
6.82991e-05
0.000121708
0.000115842
0.000106719
9.5996e-05
8.50057e-05
7.44723e-05
6.46333e-05
5.55184e-05
0.00010295
9.81167e-05
9.40157e-05
8.81486e-05
8.07123e-05
7.24734e-05
6.405e-05
5.57061e-05
8.70175e-05
8.07027e-05
7.53488e-05
6.99224e-05
6.45211e-05
5.85936e-05
5.29058e-05
4.70826e-05
7.96762e-05
7.23379e-05
6.58744e-05
5.9655e-05
5.41496e-05
4.89962e-05
4.40447e-05
3.91455e-05
8.57815e-05
7.8985e-05
7.2982e-05
6.72633e-05
6.16453e-05
5.5998e-05
5.05612e-05
4.50182e-05
9.85551e-05
9.39426e-05
8.80453e-05
8.21014e-05
7.4865e-05
6.72172e-05
5.94721e-05
5.16347e-05
0.000114255
0.000108716
0.000100702
9.10242e-05
8.08657e-05
7.10084e-05
6.16266e-05
5.28893e-05
0.000264685
0.000230987
0.000194396
0.000161475
0.000133521
0.000110013
9.00234e-05
7.30767e-05
0.000266358
0.000235754
0.000202042
0.000170533
0.000142038
0.000117671
9.68532e-05
7.92918e-05
0.000262596
0.000223062
0.000186779
0.000156143
0.000129724
0.000107694
8.82611e-05
7.10336e-05
0.000251801
0.000211948
0.000176287
0.000146333
0.000121768
0.00010023
8.1879e-05
6.64578e-05
0.000238592
0.000201455
0.000168118
0.00013984
0.000115936
9.53104e-05
7.72673e-05
6.16765e-05
0.000242361
0.000211914
0.000181863
0.000152927
0.000127566
0.00010594
8.70226e-05
7.06767e-05
0.00025405
0.000223152
0.000188553
0.000156915
0.000129757
0.000106723
8.70596e-05
7.04086e-05
0.000413273
0.000338098
0.0002628
0.000200778
0.000153475
0.000117891
9.11486e-05
7.13137e-05
0.000432638
0.000346437
0.000281685
0.000223782
0.000176375
0.000139311
0.000110677
8.88045e-05
0.000440113
0.000329753
0.000261392
0.000215222
0.000180583
0.000151497
0.000124537
9.95462e-05
0.000412547
0.000302432
0.000231216
0.000182072
0.000144914
0.000115293
9.14778e-05
7.24721e-05
0.000399322
0.000291438
0.00022365
0.000177621
0.000143454
0.000116905
9.42375e-05
7.48454e-05
0.000392531
0.000309734
0.000255069
0.00020455
0.000162118
0.000128363
0.000101665
8.08182e-05
0.000395459
0.000325651
0.000256186
0.000197123
0.000151255
0.000116452
9.01567e-05
7.05869e-05
0.00102945
0.000625236
0.000365237
0.000235187
0.000162584
0.000117647
8.81169e-05
6.83879e-05
0.00116789
0.000736446
0.000438355
0.0002835
0.000198128
0.000146315
0.00011263
8.98259e-05
0.00130234
0.000884021
0.000572717
0.000393403
0.000287365
0.000220891
0.000177226
0.000146519
0.00115351
0.000755777
0.000470111
0.000306044
0.000208656
0.000147265
0.000106782
7.93752e-05
0.00122177
0.000818904
0.000520028
0.000349153
0.000248904
0.000185139
0.000142251
0.000111769
0.00113791
0.000729431
0.000437422
0.00028373
0.000198863
0.000146825
0.00011229
8.85151e-05
0.00102056
0.000626047
0.000367385
0.000237142
0.000164506
0.000119552
8.99338e-05
7.00275e-05
0.000726603
0.000564505
0.000352085
0.000226419
0.00015296
0.00010844
8.06818e-05
6.33498e-05
0.000799109
0.000618781
0.000388615
0.000253297
0.000175412
0.000128944
0.000100087
8.17091e-05
0.00098371
0.000778295
0.000510922
0.000348631
0.000253712
0.000196697
0.000161214
0.000138994
0.0011848
0.000956041
0.000661594
0.000472474
0.000350014
0.000263796
0.000196931
0.000141707
0.00102239
0.000813446
0.000540827
0.000373233
0.000272807
0.000209339
0.000165926
0.00013442
0.00083924
0.000653787
0.00041434
0.000272671
0.000190566
0.000140798
0.000108949
8.77515e-05
0.000740514
0.000576628
0.000360634
0.000232628
0.000157961
0.00011274
8.44458e-05
6.65891e-05
0.000115812
0.00011088
0.000102357
9.19116e-05
8.1101e-05
7.07597e-05
6.11936e-05
5.2348e-05
0.000100216
9.88964e-05
9.61966e-05
8.96525e-05
8.07943e-05
7.09429e-05
6.16923e-05
5.30695e-05
7.01945e-05
6.5493e-05
6.19212e-05
5.79166e-05
5.43547e-05
5.1228e-05
4.72471e-05
4.21874e-05
7.58419e-05
6.96452e-05
6.36938e-05
5.73117e-05
5.16635e-05
4.61864e-05
4.09088e-05
3.59284e-05
8.94403e-05
8.49095e-05
8.03947e-05
7.46852e-05
6.77598e-05
6.01113e-05
5.24367e-05
4.52682e-05
0.000101549
9.98046e-05
9.33474e-05
8.53167e-05
7.58538e-05
6.6165e-05
5.71772e-05
4.90414e-05
0.000106965
0.000101372
9.36318e-05
8.44448e-05
7.47822e-05
6.53588e-05
5.65137e-05
4.82841e-05
0.000264582
0.000230145
0.000192851
0.000159553
0.000131309
0.000107603
8.7481e-05
7.05046e-05
0.000274652
0.000245524
0.000208302
0.000172584
0.000140931
0.000114783
9.30337e-05
7.51007e-05
0.000242805
0.000216245
0.000188437
0.00016453
0.000141717
0.000119651
9.94407e-05
8.15114e-05
0.000220214
0.000185994
0.00015175
0.000122688
9.78881e-05
7.7689e-05
6.13016e-05
4.82643e-05
0.000237815
0.000206361
0.000173514
0.000143573
0.000117778
9.61521e-05
7.82723e-05
6.35165e-05
0.000254441
0.000220994
0.000186255
0.000153865
0.000125833
0.000102152
8.24506e-05
6.60402e-05
0.000257052
0.000224174
0.000188201
0.000155556
0.000127368
0.000103358
8.30095e-05
6.60592e-05
0.000408689
0.000334727
0.000260739
0.00019938
0.000152243
0.000116588
8.97073e-05
6.98321e-05
0.000415322
0.000341016
0.000271313
0.000210579
0.000162168
0.000124954
9.69036e-05
7.63245e-05
0.000393101
0.000320972
0.000269428
0.000219492
0.000175711
0.000140607
0.000113656
9.37818e-05
0.000350975
0.000279354
0.000231453
0.000192432
0.000156647
0.000125312
9.8065e-05
7.39441e-05
0.000374979
0.000299908
0.000242519
0.000191297
0.000149341
0.000117035
9.30531e-05
7.59781e-05
0.000395672
0.000320544
0.000253071
0.000195191
0.000149372
0.000114315
8.79517e-05
6.8685e-05
0.000398803
0.000324722
0.000255157
0.00019597
0.000149431
0.000113834
8.69824e-05
6.73068e-05
0.000995925
0.000608249
0.000357994
0.000232391
0.000161406
0.000116861
8.72844e-05
6.7502e-05
0.00102163
0.000628769
0.00037064
0.000240273
0.000167113
0.000121561
9.15709e-05
7.16951e-05
0.00102758
0.000643876
0.000380242
0.000246067
0.000172715
0.000128359
0.000100072
8.19731e-05
0.00101729
0.000649349
0.000394612
0.000261501
0.000190781
0.000150881
0.000127205
0.00011231
0.00100072
0.000623171
0.00036603
0.000235696
0.000164581
0.000122021
9.52957e-05
7.83605e-05
0.00100012
0.000617914
0.000363472
0.000234578
0.000162411
0.00011772
8.85082e-05
6.92762e-05
0.000998412
0.000616628
0.000363697
0.000235479
0.00016309
0.000117827
8.79717e-05
6.81923e-05
0.000732193
0.000575231
0.000361825
0.00023347
0.000157572
0.000111079
8.19081e-05
6.37541e-05
0.000743759
0.000585364
0.000368715
0.000237701
0.000160373
0.00011323
8.38895e-05
6.58343e-05
0.000753621
0.0005927
0.000372876
0.000240294
0.000162892
0.000116545
8.84556e-05
7.17639e-05
0.000753091
0.000592313
0.000372341
0.000240926
0.000166223
0.000123823
0.000100406
8.87188e-05
0.000745798
0.000587088
0.000368226
0.000236331
0.000159667
0.000114212
8.70623e-05
7.11731e-05
0.000752983
0.000595148
0.000374754
0.000240877
0.000162049
0.0001143
8.48458e-05
6.68814e-05
0.000762779
0.000604202
0.000381159
0.000245326
0.000165033
0.000116115
8.57419e-05
6.71164e-05
0.000113284
0.000107702
9.99212e-05
9.06602e-05
8.08251e-05
7.11756e-05
6.20166e-05
5.33904e-05
0.00010137
9.50891e-05
8.98158e-05
8.35147e-05
7.6e-05
6.78834e-05
5.9826e-05
5.19867e-05
8.97565e-05
8.20357e-05
7.57209e-05
6.95813e-05
6.34285e-05
5.71808e-05
5.10231e-05
4.51154e-05
8.05898e-05
7.27613e-05
6.59914e-05
5.98387e-05
5.40218e-05
4.86737e-05
4.34658e-05
3.85958e-05
8.27651e-05
7.73604e-05
7.22989e-05
6.7308e-05
6.19997e-05
5.66136e-05
5.11021e-05
4.5622e-05
0.000100221
9.53858e-05
9.12079e-05
8.64232e-05
7.93033e-05
7.12288e-05
6.30398e-05
5.50474e-05
0.000120523
0.000114794
0.000105546
9.46782e-05
8.37011e-05
7.33308e-05
6.37142e-05
5.47783e-05
0.000253798
0.000224749
0.000191366
0.000160298
0.000133033
0.000109528
8.92819e-05
7.20528e-05
0.000240576
0.000212643
0.000182408
0.000153907
0.000128681
0.000106878
8.79836e-05
7.15853e-05
0.000231238
0.000195906
0.000162698
0.000134351
0.000110357
8.99082e-05
7.23052e-05
5.71821e-05
0.00024767
0.000207254
0.000171061
0.000140361
0.000114765
9.3545e-05
7.58535e-05
6.11473e-05
0.000257823
0.000220054
0.000185116
0.000154864
0.000129232
0.000107037
8.77119e-05
7.06099e-05
0.000270255
0.000238475
0.000204833
0.000171078
0.00014195
0.000117638
9.72902e-05
7.98364e-05
0.000266115
0.000230162
0.000192558
0.000159445
0.000131818
0.00010879
8.92693e-05
7.26554e-05
0.000398119
0.0003309
0.00026202
0.000202872
0.000156496
0.000121049
9.41628e-05
7.41409e-05
0.000388428
0.000312807
0.000257642
0.000206586
0.000163905
0.000130031
0.000103539
8.31893e-05
0.000369718
0.000272068
0.000210626
0.000169302
0.000139582
0.000114207
9.19205e-05
7.27215e-05
0.000389958
0.000286941
0.000219232
0.000171566
0.000135217
0.000106684
8.41753e-05
6.6586e-05
0.000424674
0.000325108
0.000263618
0.000222037
0.000189793
0.000160405
0.000133751
0.000109981
0.000432813
0.000347415
0.000280049
0.000221135
0.000173796
0.000136964
0.000108393
8.64459e-05
0.000413114
0.00033734
0.000262063
0.00020027
0.000153256
0.00011792
9.13263e-05
7.15503e-05
0.00102
0.000632191
0.000375187
0.000244535
0.000171052
0.000125373
9.52122e-05
7.49305e-05
0.00111885
0.000716649
0.000430901
0.000280875
0.000197702
0.00014698
0.000113646
9.08519e-05
0.00118142
0.000787706
0.000498625
0.000335428
0.000239543
0.000180473
0.000141667
0.00011445
0.0011266
0.000744285
0.000467526
0.000307886
0.000211705