/*--------------------------------*- C++ -*----------------------------------*\
| =========                 |                                                 |
| \\      /  F ield         | OpenFOAM: The Open Source CFD Toolbox           |
|  \\    /   O peration     | Version:  plus.master.MPPICInterFoam            |
|   \\  /    A nd           | Web:      www.OpenFOAM.com                      |
|    \\/     M anipulation  |                                                 |
\*---------------------------------------------------------------------------*/
FoamFile
{
    version     2.0;
    format      ascii;
    class       volScalarField;
    location    "5.2";
    object      p;
}
// * * * * * * * * * * * * * * * * * * * * * * * * * * * * * * * * * * * * * //

dimensions      [1 -1 -2 0 0 0 0];

internalField   nonuniform List<scalar> 
11821
(
5637.32
5636.5
5636.04
5636.01
5635.95
5636.31
5636.86
5636.43
5646.16
5639.33
5638.58
5638.81
5645.32
5635.56
5636.05
5638.89
5640.52
5638.01
5640.18
5638.52
5634.43
5636.62
5638.9
5637.61
5638.63
5636.03
5637.91
5634.23
5636.04
5638.75
5640.33
5636.22
5639.84
5638.37
5634.57
5636.38
5645.75
5638.9
5638.06
5638.56
5644.91
5635.66
5637.11
5635.76
5634.69
5634.58
5634.76
5635.8
5636.68
5511.53
5511.82
5512.27
5512.31
5511.81
5511.21
5510.87
5511.88
5514.75
5514.92
5515.54
5514.18
5512.67
5510.92
5512.33
5514.64
5527.59
5529.31
5526.82
5513.08
5510.83
5512.44
5514.75
5527.66
5535.01
5528.27
5513.66
5510.6
5511.97
5513.92
5526.61
5528.08
5525.13
5512.43
5510.58
5511.44
5513.47
5513.48
5513.82
5512.7
5511.83
5510.54
5511.09
5511.18
5511.19
5510.89
5510.75
5510.58
5510.47
5382.33
5383.17
5383.86
5384.09
5383.54
5382.75
5381.96
5383.17
5384.3
5385.35
5386.14
5385.11
5383.57
5382.68
5383.86
5385.25
5393.9
5397.94
5394.74
5384.08
5382.99
5383.98
5385.2
5394.7
5406.5
5400.42
5387.07
5383.41
5383.58
5384.89
5394.07
5400.23
5395.16
5384.21
5383
5382.86
5383.78
5384.42
5386.92
5384.45
5383.29
5382.52
5382.07
5382.83
5383.31
5383.62
5383.12
5382.53
5381.8
5247.82
5249.1
5250.22
5250.88
5250.58
5249.75
5248.51
5249.03
5250.41
5251.73
5253.38
5252.94
5251.59
5250.3
5249.97
5251.44
5257.92
5265.04
5262.86
5252.91
5251.5
5250.14
5251.4
5258.03
5274.73
5270.16
5257.12
5252.53
5250.02
5251.77
5259.68
5269.9
5263.85
5253.68
5251.76
5249.28
5250.95
5252.3
5255.9
5253.61
5252.19
5250.56
5248.16
5249.74
5251.04
5252.09
5251.47
5250.39
5248.86
5098.5
5100.17
5101.78
5102.88
5102.52
5101.36
5099.72
5099.94
5101.84
5103.8
5106.32
5105.73
5103.92
5101.95
5101.1
5103.21
5108.44
5117.77
5115.81
5105.76
5103.57
5101.4
5103.36
5107.93
5127.67
5124.27
5109.44
5104.71
5101.25
5103.73
5111.15
5123.92
5116.01
5106.35
5103.74
5100.3
5102.63
5104.82
5108.66
5106.51
5104.46
5102.14
5098.91
5100.93
5102.79
5104.3
5103.49
5101.97
5100.04
5637.75
5638.44
5638.89
5639.22
5639.45
5639.65
5639.83
5639.99
5636.84
5638.09
5638.69
5639.08
5639.37
5639.6
5639.8
5639.96
5636.47
5638.23
5638.63
5639.01
5639.29
5639.54
5639.76
5639.92
5636.35
5638.28
5638.64
5639
5639.28
5639.52
5639.74
5639.9
5636.48
5638.16
5638.67
5639.05
5639.31
5639.55
5639.78
5639.95
5636.86
5638.03
5638.69
5639.07
5639.37
5639.62
5639.82
5639.99
5637.66
5638.39
5638.87
5639.19
5639.45
5639.66
5639.84
5640
5510.73
5510.61
5510.54
5510.51
5510.51
5510.55
5510.6
5510.67
5510.79
5510.64
5510.52
5510.48
5510.48
5510.52
5510.59
5510.68
5510.86
5510.7
5510.54
5510.46
5510.46
5510.5
5510.57
5510.67
5510.83
5510.71
5510.54
5510.46
5510.45
5510.5
5510.57
5510.68
5510.71
5510.58
5510.46
5510.42
5510.43
5510.48
5510.57
5510.67
5510.55
5510.46
5510.4
5510.4
5510.43
5510.49
5510.58
5510.68
5510.45
5510.4
5510.39
5510.4
5510.44
5510.5
5510.58
5510.67
5381.24
5380.72
5380.34
5380.08
5379.9
5379.8
5379.78
5379.85
5381.83
5381.1
5380.56
5380.19
5379.96
5379.82
5379.79
5379.86
5382.32
5381.47
5380.76
5380.29
5380
5379.83
5379.78
5379.85
5382.65
5381.76
5380.92
5380.37
5380.04
5379.86
5379.8
5379.87
5382.25
5381.42
5380.73
5380.28
5380
5379.84
5379.79
5379.86
5381.73
5381.04
5380.53
5380.19
5379.97
5379.84
5379.81
5379.88
5381.14
5380.66
5380.32
5380.08
5379.92
5379.83
5379.81
5379.88
5247.09
5246.18
5245.69
5245.52
5245.66
5246.17
5247.08
5248.38
5248.46
5247.06
5246.17
5245.74
5245.73
5246.15
5247.06
5248.44
5249.7
5247.89
5246.58
5245.91
5245.76
5246.11
5247.01
5248.44
5250.54
5248.51
5246.92
5246.08
5245.85
5246.16
5247.04
5248.47
5249.78
5247.94
5246.66
5245.99
5245.84
5246.19
5247.08
5248.51
5248.63
5247.22
5246.34
5245.92
5245.9
5246.33
5247.24
5248.63
5247.41
5246.52
5246.03
5245.87
5246.02
5246.53
5247.46
5248.77
5098.02
5096.79
5095.89
5095.22
5094.63
5093.76
5092.41
5092.34
5099.67
5097.94
5096.65
5095.71
5094.96
5093.98
5092.44
5092.17
5101
5098.77
5097.12
5096
5095.14
5094.06
5092.4
5092.01
5102
5099.43
5097.5
5096.23
5095.3
5094.18
5092.47
5092.06
5101.07
5098.83
5097.19
5096.06
5095.19
5094.11
5092.45
5092.09
5099.78
5098.07
5096.8
5095.86
5095.1
5094.1
5092.54
5092.27
5098.36
5097.16
5096.26
5095.55
5094.92
5093.99
5092.57
5092.47
5638.13
5638.72
5639.1
5639.4
5639.65
5639.86
5640.03
5640.18
5637.7
5638.53
5638.91
5639.18
5639.45
5639.69
5639.82
5639.95
5637.67
5638.55
5638.97
5639.34
5639.6
5639.79
5639.93
5640.07
5637.85
5638.72
5639.19
5639.54
5639.84
5640.07
5640.26
5640.41
5637.73
5638.76
5639.16
5639.46
5639.73
5639.93
5640.08
5640.21
5637.76
5638.63
5639.02
5639.26
5639.49
5639.76
5639.94
5640.06
5638.23
5638.85
5639.2
5639.47
5639.7
5639.9
5640.05
5640.19
5510.99
5510.86
5510.79
5510.76
5510.75
5510.78
5510.82
5510.88
5511.26
5511.06
5510.91
5510.82
5510.79
5510.8
5510.84
5510.91
5511.69
5511.37
5511.13
5510.99
5510.92
5510.89
5510.91
5510.95
5512.01
5511.61
5511.32
5511.14
5511.05
5511.02
5511.03
5511.07
5511.93
5511.56
5511.28
5511.1
5511.02
5510.98
5510.98
5511.01
5511.57
5511.29
5511.1
5510.97
5510.91
5510.9
5510.92
5510.97
5511.3
5511.11
5510.98
5510.9
5510.86
5510.85
5510.87
5510.92
5381.4
5380.91
5380.55
5380.29
5380.12
5380.01
5379.98
5380.04
5381.97
5381.27
5380.75
5380.39
5380.15
5380.02
5379.97
5380.03
5382.57
5381.7
5381.02
5380.55
5380.25
5380.07
5380
5380.05
5382.88
5381.94
5381.2
5380.67
5380.33
5380.12
5380.04
5380.09
5382.75
5381.85
5381.14
5380.65
5380.32
5380.13
5380.06
5380.11
5382.2
5381.45
5380.88
5380.5
5380.24
5380.08
5380.03
5380.08
5381.59
5381.05
5380.65
5380.37
5380.17
5380.05
5380.01
5380.05
5246.95
5246.23
5245.85
5245.77
5246
5246.58
5247.55
5248.89
5247.7
5246.6
5245.92
5245.64
5245.75
5246.28
5247.28
5248.73
5248.39
5247.02
5246.07
5245.6
5245.6
5246.07
5247.08
5248.59
5248.61
5247.2
5246.15
5245.59
5245.53
5245.97
5246.96
5248.47
5248.36
5247.01
5246.04
5245.56
5245.55
5246.02
5247.02
5248.53
5247.57
5246.48
5245.79
5245.5
5245.6
5246.13
5247.12
5248.56
5246.65
5245.92
5245.55
5245.47
5245.7
5246.28
5247.25
5248.58
5097.49
5096.48
5095.71
5095.11
5094.58
5093.73
5092.38
5092.31
5098.37
5096.97
5095.91
5095.14
5094.53
5093.65
5092.19
5091.99
5099.11
5097.37
5096.03
5095.11
5094.41
5093.48
5091.94
5091.68
5099.32
5097.52
5096.08
5095.09
5094.36
5093.41
5091.86
5091.66
5099.02
5097.31
5095.98
5095.07
5094.39
5093.48
5091.96
5091.71
5098.16
5096.78
5095.74
5095.01
5094.44
5093.6
5092.18
5092
5097.11
5096.09
5095.35
5094.81
5094.34
5093.57
5092.29
5092.27
5638.25
5638.84
5639.22
5639.52
5639.77
5639.98
5640.16
5640.31
5637.83
5638.71
5639.13
5639.4
5639.61
5639.81
5639.97
5640.1
5637.63
5638.67
5639.21
5639.65
5639.91
5640.04
5640.17
5640.27
5637.76
5638.9
5639.34
5639.71
5640.04
5640.3
5640.5
5640.65
5637.56
5638.54
5639.05
5639.45
5639.71
5639.86
5639.99
5640.11
5637.66
5638.5
5638.96
5639.27
5639.46
5639.65
5639.87
5640.02
5637.95
5638.58
5639.01
5639.36
5639.64
5639.88
5640.09
5640.26
5511.32
5511.13
5511
5510.92
5510.88
5510.87
5510.89
5510.93
5511.6
5511.35
5511.16
5511.03
5510.95
5510.91
5510.9
5510.91
5512
5511.68
5511.43
5511.28
5511.2
5511.15
5511.13
5511.13
5512.08
5511.77
5511.53
5511.38
5511.3
5511.26
5511.25
5511.26
5511.67
5511.4
5511.19
5511.06
5510.99
5510.96
5510.95
5510.97
5511.16
5510.99
5510.86
5510.78
5510.73
5510.71
5510.73
5510.77
5510.82
5510.71
5510.64
5510.61
5510.61
5510.63
5510.68
5510.74
5381.61
5381.08
5380.68
5380.4
5380.19
5380.07
5380.02
5380.06
5382.25
5381.53
5380.97
5380.57
5380.29
5380.11
5380.02
5380.03
5382.89
5382.07
5381.4
5380.91
5380.57
5380.35
5380.25
5380.26
5383.09
5382.25
5381.54
5381.02
5380.66
5380.45
5380.36
5380.39
5382.63
5381.84
5381.18
5380.71
5380.38
5380.18
5380.09
5380.1
5381.94
5381.26
5380.74
5380.37
5380.11
5379.94
5379.87
5379.9
5381.3
5380.81
5380.45
5380.18
5379.99
5379.88
5379.84
5379.9
5246.65
5245.95
5245.56
5245.46
5245.65
5246.17
5247.08
5248.36
5247.6
5246.5
5245.74
5245.38
5245.39
5245.8
5246.66
5247.95
5248.68
5247.34
5246.31
5245.71
5245.57
5245.87
5246.68
5247.94
5249.25
5247.84
5246.64
5245.91
5245.68
5245.94
5246.73
5247.99
5248.85
5247.4
5246.28
5245.64
5245.47
5245.76
5246.54
5247.79
5247.95
5246.7
5245.85
5245.42
5245.38
5245.74
5246.56
5247.81
5247.05
5246.24
5245.74
5245.54
5245.65
5246.1
5246.95
5248.2
5097.25
5096.35
5095.62
5095.05
5094.53
5093.72
5092.44
5092.49
5098.29
5096.93
5095.88
5095.15
5094.57
5093.74
5092.41
5092.63
5099.62
5097.84
5096.43
5095.49
5094.85
5093.99
5092.62
5093.14
5100.45
5098.45
5096.82
5095.75
5095.06
5094.29
5092.82
5093.56
5100.07
5098.13
5096.62
5095.64
5094.96
5094.07
5092.67
5093.16
5099.04
5097.48
5096.31
5095.49
5094.83
5093.93
5092.54
5092.73
5098.11
5097.08
5096.22
5095.51
5094.88
5093.97
5092.62
5092.63
5637.81
5638.48
5638.93
5639.27
5639.53
5639.77
5639.98
5640.15
5637.42
5638.43
5638.86
5639.19
5639.44
5639.66
5639.85
5640
5637.27
5638.67
5638.89
5639.26
5639.53
5639.74
5639.9
5640.04
5637.16
5638.71
5638.99
5639.4
5639.73
5639.98
5640.17
5640.32
5637.15
5638.81
5639.05
5639.42
5639.7
5639.91
5640.08
5640.22
5637.43
5638.58
5638.99
5639.33
5639.53
5639.74
5639.95
5640.1
5638.09
5638.73
5639.11
5639.4
5639.64
5639.84
5640.01
5640.16
5510.48
5510.43
5510.41
5510.43
5510.47
5510.53
5510.61
5510.7
5510.64
5510.57
5510.52
5510.51
5510.53
5510.57
5510.64
5510.72
5510.91
5510.81
5510.7
5510.65
5510.65
5510.68
5510.72
5510.79
5511.14
5511.04
5510.89
5510.83
5510.82
5510.85
5510.9
5510.96
5511.21
5511.06
5510.91
5510.84
5510.82
5510.84
5510.87
5510.93
5511.06
5510.92
5510.8
5510.75
5510.73
5510.74
5510.79
5510.85
5510.94
5510.83
5510.76
5510.73
5510.73
5510.76
5510.8
5510.87
5381.15
5380.68
5380.35
5380.11
5379.95
5379.86
5379.84
5379.91
5381.73
5381.07
5380.59
5380.25
5380.02
5379.89
5379.86
5379.92
5382.36
5381.57
5380.91
5380.46
5380.16
5379.98
5379.91
5379.95
5382.8
5381.95
5381.19
5380.66
5380.32
5380.12
5380.03
5380.05
5382.54
5381.73
5381.07
5380.61
5380.3
5380.12
5380.04
5380.07
5381.97
5381.29
5380.77
5380.41
5380.17
5380.02
5379.97
5380.02
5381.38
5380.9
5380.54
5380.29
5380.11
5380.01
5379.98
5380.04
5247.4
5246.58
5246.1
5245.94
5246.09
5246.61
5247.53
5248.84
5248.43
5247.1
5246.26
5245.87
5245.88
5246.32
5247.24
5248.64
5249.51
5247.81
5246.6
5245.97
5245.84
5246.22
5247.12
5248.53
5250.12
5248.29
5246.86
5246.08
5245.87
5246.17
5247.03
5248.39
5249.29
5247.72
5246.58
5245.98
5245.88
5246.28
5247.2
5248.61
5248.08
5246.9
5246.15
5245.81
5245.87
5246.34
5247.29
5248.69
5246.99
5246.27
5245.9
5245.82
5246.04
5246.61
5247.57
5248.9
5098.4
5097.3
5096.41
5095.71
5095.08
5094.16
5092.76
5092.67
5099.54
5097.9
5096.69
5095.82
5095.12
5094.19
5092.72
5092.57
5100.73
5098.54
5096.93
5095.85
5095.05
5094.05
5092.51
5092.45
5101.41
5098.95
5097.08
5095.87
5095.01
5094
5092.46
5092.54
5100.28
5098.26
5096.73
5095.69
5094.93
5093.95
5092.43
5092.38
5098.89
5097.42
5096.31
5095.52
5094.89
5094.01
5092.58
5092.45
5097.59
5096.61
5095.85
5095.26
5094.72
5093.88
5092.53
5092.46
5640.13
5640.14
5640.08
5640.04
5640.11
5640.16
5640.15
5510.78
5510.8
5510.8
5510.81
5510.81
5510.81
5510.8
5380.03
5380.06
5380.06
5380.08
5380.07
5380.08
5380.07
5249.75
5249.88
5249.95
5249.99
5250.02
5250.09
5250.15
5097.64
5097.68
5097.71
5097.83
5097.82
5097.82
5097.74
5640.29
5640.13
5640.19
5640.54
5640.32
5640.17
5640.3
5510.98
5511.01
5511.02
5511.14
5511.08
5511.06
5510.99
5380.19
5380.2
5380.22
5380.28
5380.28
5380.24
5380.2
5250.26
5250.21
5250.13
5250.01
5250.07
5250.02
5249.93
5097.59
5097.56
5097.54
5097.75
5097.56
5097.56
5097.57
5640.43
5640.22
5640.36
5640.75
5640.2
5640.14
5640.39
5510.98
5510.95
5511.15
5511.28
5511
5510.83
5510.82
5380.19
5380.14
5380.36
5380.51
5380.22
5380.02
5380.05
5249.7
5249.29
5249.16
5249.19
5249.01
5249.13
5249.54
5097.9
5098.89
5100.51
5101.48
5100.48
5098.96
5098.02
5640.28
5640.14
5640.16
5640.45
5640.32
5640.22
5640.28
5510.82
5510.82
5510.87
5511.04
5511
5510.94
5510.96
5380.09
5380.08
5380.1
5380.19
5380.21
5380.17
5380.19
5250.21
5250.07
5249.96
5249.75
5250.05
5250.13
5250.26
5097.94
5098.2
5098.68
5099.22
5098.62
5098.07
5097.74
5640.32
5640.54
5640.73
5640.9
5641.05
5641.17
5641.26
5641.32
5640.41
5640.63
5640.8
5640.97
5641.11
5641.22
5641.3
5641.36
5640.39
5640.66
5640.82
5640.96
5641.1
5641.22
5641.3
5641.36
5640.31
5640.65
5640.87
5641.04
5641.14
5641.23
5641.31
5641.36
5640.38
5640.66
5640.85
5640.97
5641.11
5641.22
5641.3
5641.35
5640.41
5640.62
5640.8
5640.97
5641.1
5641.21
5641.29
5641.34
5640.34
5640.56
5640.75
5640.92
5641.06
5641.17
5641.25
5641.3
5510.95
5511.11
5511.25
5511.37
5511.47
5511.57
5511.65
5511.71
5510.99
5511.17
5511.31
5511.43
5511.54
5511.63
5511.71
5511.77
5511
5511.2
5511.34
5511.45
5511.56
5511.65
5511.73
5511.78
5511.02
5511.22
5511.38
5511.5
5511.59
5511.67
5511.74
5511.79
5511.01
5511.21
5511.35
5511.47
5511.57
5511.66
5511.73
5511.78
5511.01
5511.2
5511.34
5511.45
5511.56
5511.64
5511.71
5511.76
5510.99
5511.16
5511.3
5511.41
5511.51
5511.59
5511.66
5511.71
5380.38
5380.84
5381.22
5381.51
5381.72
5381.89
5382.01
5382.09
5380.42
5380.9
5381.29
5381.58
5381.8
5381.97
5382.08
5382.16
5380.43
5380.91
5381.3
5381.61
5381.83
5381.99
5382.11
5382.18
5380.45
5380.92
5381.32
5381.63
5381.85
5382.01
5382.13
5382.2
5380.45
5380.92
5381.32
5381.62
5381.84
5382
5382.11
5382.19
5380.45
5380.91
5381.31
5381.61
5381.83
5381.99
5382.1
5382.17
5380.42
5380.89
5381.28
5381.57
5381.78
5381.93
5382.04
5382.11
5251.15
5251.43
5251.63
5251.83
5252.02
5252.18
5252.32
5252.42
5251.31
5251.58
5251.77
5251.96
5252.14
5252.29
5252.42
5252.51
5251.39
5251.67
5251.85
5252.03
5252.19
5252.34
5252.45
5252.54
5251.45
5251.74
5251.91
5252.08
5252.24
5252.37
5252.49
5252.57
5251.48
5251.76
5251.92
5252.08
5252.23
5252.37
5252.48
5252.56
5251.52
5251.79
5251.93
5252.08
5252.23
5252.36
5252.47
5252.55
5251.54
5251.76
5251.89
5252.03
5252.17
5252.29
5252.4
5252.47
5108.91
5115.7
5118.91
5120.6
5121.56
5122.13
5122.48
5122.7
5108.89
5115.75
5118.99
5120.7
5121.67
5122.24
5122.58
5122.79
5108.89
5115.76
5119.01
5120.73
5121.7
5122.26
5122.61
5122.82
5108.95
5115.81
5119.06
5120.77
5121.74
5122.3
5122.64
5122.85
5108.96
5115.82
5119.06
5120.77
5121.73
5122.29
5122.63
5122.84
5108.99
5115.84
5119.08
5120.78
5121.74
5122.3
5122.63
5122.84
5108.99
5115.84
5119.06
5120.74
5121.69
5122.23
5122.56
5122.76
5640.45
5640.65
5640.82
5640.96
5641.07
5641.15
5641.22
5641.25
5640.38
5640.61
5640.79
5640.93
5641.03
5641.11
5641.15
5641.17
5640.37
5640.54
5640.68
5640.79
5640.87
5640.93
5640.95
5640.94
5640.7
5640.84
5640.93
5640.99
5641
5641.01
5641.05
5641.05
5640.49
5640.65
5640.77
5640.86
5640.92
5640.96
5640.98
5640.97
5640.44
5640.68
5640.82
5640.95
5641.07
5641.16
5641.21
5641.22
5640.44
5640.64
5640.82
5640.97
5641.09
5641.19
5641.26
5641.3
5511.12
5511.22
5511.3
5511.38
5511.44
5511.5
5511.55
5511.58
5511.16
5511.28
5511.36
5511.42
5511.47
5511.5
5511.53
5511.55
5511.13
5511.24
5511.31
5511.35
5511.37
5511.37
5511.36
5511.34
5511.23
5511.31
5511.37
5511.4
5511.42
5511.42
5511.43
5511.43
5511.18
5511.27
5511.35
5511.38
5511.4
5511.4
5511.39
5511.37
5511.2
5511.31
5511.39
5511.45
5511.5
5511.54
5511.57
5511.59
5511.1
5511.2
5511.28
5511.35
5511.43
5511.5
5511.56
5511.6
5380.49
5380.93
5381.27
5381.52
5381.69
5381.81
5381.89
5381.95
5380.51
5380.93
5381.27
5381.51
5381.68
5381.8
5381.88
5381.93
5380.56
5380.93
5381.25
5381.48
5381.62
5381.7
5381.74
5381.73
5380.62
5381
5381.3
5381.51
5381.63
5381.7
5381.73
5381.76
5380.61
5380.99
5381.3
5381.51
5381.65
5381.73
5381.76
5381.76
5380.54
5380.96
5381.28
5381.52
5381.69
5381.81
5381.89
5381.94
5380.5
5380.92
5381.24
5381.49
5381.66
5381.79
5381.88
5381.94
5251.63
5251.75
5251.83
5251.93
5252.04
5252.14
5252.23
5252.29
5251.61
5251.77
5251.85
5251.94
5252.04
5252.13
5252.2
5252.25
5251.58
5251.82
5251.9
5251.98
5252.05
5252.11
5252.12
5252.09
5251.55
5251.85
5251.95
5252.02
5252.07
5252.1
5252.12
5252.11
5251.52
5251.77
5251.86
5251.96
5252.05
5252.12
5252.14
5252.13
5251.42
5251.61
5251.72
5251.86
5251.98
5252.09
5252.18
5252.25
5251.29
5251.47
5251.61
5251.77
5251.93
5252.06
5252.17
5252.26
5108.88
5115.74
5118.96
5120.64
5121.57
5122.1
5122.42
5122.6
5108.81
5115.69
5118.92
5120.6
5121.53
5122.04
5122.34
5122.51
5108.77
5115.68
5118.95
5120.64
5121.57
5122.07
5122.33
5122.42
5108.91
5115.79
5119.05
5120.74
5121.64
5122.13
5122.36
5122.45
5108.78
5115.69
5118.94
5120.64
5121.57
5122.09
5122.37
5122.49
5108.82
5115.67
5118.88
5120.56
5121.49
5122.02
5122.33
5122.51
5108.87
5115.67
5118.86
5120.54
5121.48
5122.03
5122.37
5122.57
5640.57
5640.72
5640.86
5640.98
5641.08
5641.17
5641.24
5641.3
5640.47
5640.69
5640.81
5640.92
5640.97
5641.03
5641.08
5641.13
5640.48
5640.62
5640.73
5640.84
5640.9
5640.94
5640.95
5640.95
5640.88
5640.97
5641.03
5641.07
5641.08
5641.09
5641.09
5641.09
5640.33
5640.48
5640.63
5640.74
5640.83
5640.88
5640.91
5640.92
5640.34
5640.61
5640.77
5640.86
5640.94
5641
5641.06
5641.11
5640.54
5640.69
5640.83
5640.95
5641.05
5641.14
5641.21
5641.27
5511.08
5511.18
5511.25
5511.33
5511.4
5511.47
5511.54
5511.59
5511.02
5511.12
5511.2
5511.28
5511.33
5511.38
5511.44
5511.48
5511.18
5511.21
5511.25
5511.28
5511.31
5511.32
5511.32
5511.32
5511.31
5511.34
5511.37
5511.4
5511.43
5511.44
5511.45
5511.46
5511.05
5511.11
5511.16
5511.21
5511.25
5511.28
5511.29
5511.31
5510.92
5511.04
5511.15
5511.24
5511.31
5511.38
5511.44
5511.49
5510.95
5511.1
5511.22
5511.32
5511.41
5511.5
5511.57
5511.63
5380.46
5380.84
5381.16
5381.41
5381.6
5381.75
5381.86
5381.94
5380.4
5380.72
5381
5381.25
5381.44
5381.6
5381.71
5381.79
5380.59
5380.86
5381.09
5381.27
5381.42
5381.54
5381.64
5381.71
5380.75
5381.03
5381.25
5381.42
5381.54
5381.62
5381.67
5381.71
5380.46
5380.75
5380.99
5381.19
5381.34
5381.47
5381.58
5381.66
5380.3
5380.64
5380.94
5381.2
5381.42
5381.58
5381.71
5381.8
5380.37
5380.77
5381.12
5381.4
5381.62
5381.78
5381.91
5382
5251.05
5251.31
5251.49
5251.68
5251.86
5252.02
5252.16
5252.27
5250.84
5251.21
5251.41
5251.56
5251.7
5251.84
5251.95
5252.05
5250.5
5251.06
5251.38
5251.62
5251.84
5252.03
5252.19
5252.29
5250.47
5251.03
5251.35
5251.57
5251.73
5251.84
5251.91
5251.95
5250.37
5250.93
5251.26
5251.51
5251.72
5251.91
5252.05
5252.15
5250.69
5251.12
5251.33
5251.51
5251.68
5251.84
5251.98
5252.08
5250.91
5251.25
5251.47
5251.69
5251.89
5252.07
5252.22
5252.34
5109.03
5115.66
5118.79
5120.45
5121.39
5121.96
5122.32
5122.54
5109.53
5115.77
5118.71
5120.25
5121.13
5121.7
5122.08
5122.32
5110.88
5116.54
5119.14
5120.47
5121.27
5121.83
5122.23
5122.51
5111.55
5116.83
5119.23
5120.47
5121.22
5121.7
5121.98
5122.13
5110.81
5116.45
5119.02
5120.34
5121.13
5121.69
5122.09
5122.35
5109.55
5115.76
5118.68
5120.2
5121.09
5121.67
5122.06
5122.32
5109.09
5115.7
5118.82
5120.48
5121.44
5122.02
5122.39
5122.62
5640.45
5640.63
5640.8
5640.93
5641.04
5641.13
5641.2
5641.25
5640.37
5640.56
5640.71
5640.84
5640.95
5641.02
5641.07
5641.1
5640.31
5640.46
5640.59
5640.71
5640.8
5640.86
5640.89
5640.9
5640.61
5640.74
5640.83
5640.89
5640.94
5640.97
5640.99
5641.01
5640.46
5640.59
5640.7
5640.79
5640.86
5640.9
5640.92
5640.92
5640.4
5640.58
5640.75
5640.88
5640.98
5641.05
5641.1
5641.13
5640.44
5640.63
5640.8
5640.93
5641.05
5641.14
5641.2
5641.25
5511
5511.16
5511.28
5511.37
5511.46
5511.53
5511.59
5511.64
5510.98
5511.14
5511.24
5511.32
5511.38
5511.43
5511.47
5511.5
5510.99
5511.1
5511.17
5511.23
5511.28
5511.31
5511.32
5511.31
5511.13
5511.21
5511.27
5511.31
5511.34
5511.36
5511.38
5511.39
5511.1
5511.18
5511.24
5511.28
5511.31
5511.33
5511.34
5511.32
5511.07
5511.2
5511.29
5511.35
5511.4
5511.44
5511.48
5511.51
5511.11
5511.21
5511.29
5511.36
5511.43
5511.49
5511.54
5511.58
5380.43
5380.88
5381.25
5381.53
5381.73
5381.87
5381.97
5382.03
5380.41
5380.8
5381.14
5381.4
5381.59
5381.72
5381.82
5381.88
5380.4
5380.74
5381.04
5381.28
5381.45
5381.58
5381.64
5381.67
5380.47
5380.8
5381.08
5381.29
5381.45
5381.56
5381.63
5381.68
5380.5
5380.83
5381.1
5381.33
5381.49
5381.6
5381.67
5381.69
5380.47
5380.84
5381.16
5381.41
5381.59
5381.71
5381.8
5381.86
5380.48
5380.91
5381.25
5381.5
5381.68
5381.8
5381.89
5381.95
5251.58
5251.79
5251.9
5252.03
5252.15
5252.26
5252.35
5252.41
5251.47
5251.7
5251.78
5251.89
5251.99
5252.08
5252.16
5252.22
5251.48
5251.82
5251.96
5252.05
5252.1
5252.12
5252.12
5252.09
5251.23
5251.68
5251.82
5251.87
5251.89
5251.91
5251.94
5251.97
5251.57
5251.88
5252
5252.09
5252.15
5252.18
5252.18
5252.16
5251.51
5251.7
5251.77
5251.86
5251.95
5252.04
5252.12
5252.18
5251.61
5251.75
5251.83
5251.94
5252.05
5252.16
5252.24
5252.31
5109.13
5115.91
5119.1
5120.77
5121.69
5122.23
5122.55
5122.74
5109.27
5115.95
5119.06
5120.67
5121.55
5122.04
5122.32
5122.48
5109.6
5116.19
5119.26
5120.84
5121.69
5122.14
5122.37
5122.46
5110.06
5116.38
5119.34
5120.83
5121.57
5121.9
5122.06
5122.16
5109.56
5116.16
5119.27
5120.86
5121.73
5122.2
5122.44
5122.56
5109.18
5115.89
5119.01
5120.63
5121.51
5122
5122.29
5122.45
5108.99
5115.8
5118.99
5120.66
5121.59
5122.12
5122.43
5122.62
5641.35
5641.37
5641.38
5641.38
5641.38
5641.38
5641.37
5641.37
5641.38
5641.4
5641.41
5641.41
5641.41
5641.41
5641.41
5641.4
5641.38
5641.4
5641.41
5641.41
5641.41
5641.41
5641.41
5641.4
5641.39
5641.4
5641.41
5641.42
5641.42
5641.41
5641.41
5641.41
5641.38
5641.39
5641.4
5641.4
5641.4
5641.4
5641.4
5641.39
5641.37
5641.38
5641.39
5641.39
5641.39
5641.39
5641.38
5641.38
5641.33
5641.34
5641.35
5641.35
5641.35
5641.34
5641.34
5641.33
5511.75
5511.77
5511.79
5511.8
5511.81
5511.81
5511.81
5511.8
5511.8
5511.82
5511.84
5511.85
5511.85
5511.85
5511.85
5511.85
5511.81
5511.83
5511.85
5511.86
5511.86
5511.86
5511.86
5511.85
5511.82
5511.84
5511.86
5511.87
5511.87
5511.87
5511.87
5511.86
5511.81
5511.83
5511.84
5511.85
5511.86
5511.86
5511.85
5511.85
5511.79
5511.81
5511.83
5511.84
5511.84
5511.84
5511.84
5511.83
5511.74
5511.76
5511.77
5511.78
5511.79
5511.79
5511.78
5511.78
5382.14
5382.17
5382.2
5382.21
5382.22
5382.23
5382.22
5382.22
5382.21
5382.24
5382.26
5382.27
5382.28
5382.28
5382.28
5382.28
5382.22
5382.25
5382.27
5382.29
5382.3
5382.3
5382.3
5382.29
5382.24
5382.27
5382.29
5382.3
5382.31
5382.31
5382.31
5382.31
5382.23
5382.25
5382.27
5382.29
5382.29
5382.3
5382.29
5382.29
5382.21
5382.24
5382.26
5382.27
5382.28
5382.28
5382.28
5382.27
5382.15
5382.18
5382.2
5382.21
5382.22
5382.22
5382.22
5382.21
5252.48
5252.53
5252.56
5252.58
5252.6
5252.6
5252.61
5252.6
5252.57
5252.61
5252.64
5252.66
5252.67
5252.68
5252.68
5252.68
5252.6
5252.63
5252.66
5252.68
5252.69
5252.7
5252.7
5252.69
5252.62
5252.66
5252.68
5252.7
5252.71
5252.72
5252.72
5252.72
5252.61
5252.64
5252.67
5252.69
5252.7
5252.7
5252.7
5252.7
5252.6
5252.63
5252.66
5252.67
5252.68
5252.69
5252.69
5252.69
5252.52
5252.56
5252.58
5252.6
5252.61
5252.61
5252.62
5252.61
5122.81
5122.88
5122.93
5122.97
5123
5123.01
5123.02
5123.02
5122.9
5122.97
5123.02
5123.06
5123.08
5123.09
5123.1
5123.1
5122.93
5122.99
5123.04
5123.07
5123.1
5123.11
5123.12
5123.12
5122.96
5123.02
5123.07
5123.1
5123.12
5123.14
5123.14
5123.14
5122.94
5123
5123.05
5123.08
5123.11
5123.12
5123.12
5123.12
5122.94
5123
5123.05
5123.08
5123.1
5123.11
5123.12
5123.12
5122.86
5122.92
5122.96
5123
5123.02
5123.03
5123.03
5123.03
5641.27
5641.28
5641.28
5641.28
5641.27
5641.26
5641.25
5641.24
5641.18
5641.18
5641.17
5641.16
5641.15
5641.14
5641.13
5641.13
5640.94
5640.93
5640.93
5640.93
5640.93
5640.93
5640.94
5640.97
5641.06
5641.08
5641.09
5641.1
5641.11
5641.11
5641.1
5641.13
5640.96
5640.95
5640.94
5640.94
5640.94
5640.94
5640.95
5640.98
5641.23
5641.23
5641.22
5641.21
5641.2
5641.18
5641.17
5641.18
5641.32
5641.33
5641.33
5641.33
5641.32
5641.31
5641.3
5641.29
5511.6
5511.62
5511.63
5511.64
5511.64
5511.64
5511.64
5511.63
5511.57
5511.58
5511.58
5511.59
5511.59
5511.6
5511.6
5511.6
5511.32
5511.31
5511.3
5511.29
5511.29
5511.31
5511.32
5511.34
5511.44
5511.45
5511.46
5511.46
5511.47
5511.49
5511.5
5511.52
5511.34
5511.33
5511.31
5511.3
5511.3
5511.31
5511.33
5511.35
5511.61
5511.62
5511.62
5511.63
5511.64
5511.64
5511.64
5511.64
5511.63
5511.65
5511.66
5511.67
5511.67
5511.67
5511.67
5511.67
5381.97
5381.99
5382.01
5382.02
5382.02
5382.02
5382.02
5382.02
5381.95
5381.98
5381.99
5382.01
5382.02
5382.03
5382.03
5382.03
5381.7
5381.68
5381.65
5381.62
5381.61
5381.59
5381.6
5381.61
5381.78
5381.8
5381.81
5381.83
5381.85
5381.86
5381.87
5381.88
5381.73
5381.71
5381.67
5381.66
5381.63
5381.61
5381.61
5381.62
5381.98
5382
5382.02
5382.03
5382.05
5382.06
5382.06
5382.06
5381.98
5382
5382.02
5382.04
5382.04
5382.04
5382.04
5382.04
5252.33
5252.35
5252.37
5252.39
5252.4
5252.4
5252.4
5252.4
5252.29
5252.31
5252.33
5252.35
5252.36
5252.36
5252.37
5252.37
5252.04
5251.99
5251.94
5251.89
5251.85
5251.85
5251.83
5251.84
5252.12
5252.13
5252.14
5252.15
5252.16
5252.17
5252.17
5252.19
5252.1
5252.06
5252.02
5251.97
5251.94
5251.93
5251.91
5251.91
5252.29
5252.32
5252.34
5252.36
5252.37
5252.38
5252.39
5252.38
5252.31
5252.35
5252.37
5252.39
5252.4
5252.41
5252.41
5252.41
5122.69
5122.75
5122.79
5122.81
5122.83
5122.84
5122.85
5122.85
5122.59
5122.63
5122.67
5122.69
5122.71
5122.72
5122.73
5122.73
5122.42
5122.39
5122.35
5122.3
5122.29
5122.3
5122.31
5122.31
5122.45
5122.46
5122.48
5122.49
5122.49
5122.53
5122.5
5122.51
5122.51
5122.51
5122.49
5122.46
5122.44
5122.46
5122.47
5122.47
5122.59
5122.64
5122.68
5122.7
5122.72
5122.73
5122.74
5122.74
5122.68
5122.74
5122.79
5122.82
5122.84
5122.86
5122.86
5122.86
5641.33
5641.34
5641.35
5641.35
5641.35
5641.34
5641.33
5641.32
5641.16
5641.17
5641.19
5641.19
5641.2
5641.2
5641.19
5641.19
5640.94
5640.94
5640.93
5640.92
5640.92
5640.91
5640.91
5640.93
5641.1
5641.11
5641.12
5641.13
5641.14
5641.1
5641.1
5641.13
5640.92
5640.93
5640.93
5640.92
5640.92
5640.92
5640.92
5640.94
5641.14
5641.16
5641.17
5641.18
5641.19
5641.19
5641.19
5641.19
5641.3
5641.32
5641.34
5641.34
5641.34
5641.34
5641.33
5641.33
5511.63
5511.65
5511.67
5511.69
5511.69
5511.7
5511.69
5511.69
5511.51
5511.54
5511.55
5511.57
5511.58
5511.58
5511.58
5511.58
5511.32
5511.32
5511.32
5511.31
5511.3
5511.3
5511.29
5511.32
5511.47
5511.47
5511.48
5511.48
5511.47
5511.47
5511.47
5511.5
5511.31
5511.32
5511.32
5511.32
5511.32
5511.32
5511.32
5511.34
5511.52
5511.55
5511.57
5511.58
5511.59
5511.6
5511.6
5511.6
5511.67
5511.7
5511.72
5511.74
5511.74
5511.75
5511.75
5511.74
5381.99
5382.03
5382.05
5382.07
5382.08
5382.09
5382.09
5382.08
5381.84
5381.87
5381.9
5381.92
5381.93
5381.94
5381.94
5381.94
5381.76
5381.79
5381.81
5381.83
5381.84
5381.85
5381.85
5381.86
5381.73
5381.75
5381.77
5381.79
5381.77
5381.75
5381.75
5381.77
5381.71
5381.75
5381.78
5381.8
5381.81
5381.82
5381.83
5381.84
5381.86
5381.9
5381.93
5381.95
5381.96
5381.97
5381.97
5381.97
5382.06
5382.09
5382.12
5382.14
5382.15
5382.16
5382.16
5382.16
5252.33
5252.38
5252.41
5252.44
5252.46
5252.46
5252.47
5252.46
5252.11
5252.15
5252.18
5252.21
5252.23
5252.24
5252.24
5252.24
5252.36
5252.41
5252.44
5252.47
5252.49
5252.51
5252.52
5252.52
5251.96
5251.97
5251.97
5251.98
5251.97
5251.98
5252
5252
5252.2
5252.26
5252.28
5252.31
5252.34
5252.36
5252.37
5252.36
5252.15
5252.2
5252.24
5252.27
5252.29
5252.3
5252.3
5252.3
5252.41
5252.46
5252.49
5252.52
5252.54
5252.55
5252.55
5252.55
5122.66
5122.74
5122.79
5122.83
5122.86
5122.88
5122.88
5122.88
5122.45
5122.53
5122.59
5122.63
5122.66
5122.68
5122.69
5122.69
5122.66
5122.75
5122.81
5122.87
5122.91
5122.93
5122.96
5122.95
5122.2
5122.25
5122.29
5122.33
5122.35
5122.38
5122.39
5122.39
5122.5
5122.59
5122.65
5122.7
5122.74
5122.76
5122.77
5122.77
5122.46
5122.54
5122.61
5122.66
5122.69
5122.72
5122.73
5122.73
5122.74
5122.82
5122.88
5122.92
5122.95
5122.97
5122.97
5122.97
5641.27
5641.29
5641.29
5641.3
5641.29
5641.29
5641.28
5641.28
5641.11
5641.12
5641.12
5641.12
5641.11
5641.11
5641.11
5641.11
5640.91
5640.91
5640.9
5640.91
5640.91
5640.91
5640.92
5640.95
5641.03
5641.04
5641.06
5641.07
5641.09
5641.08
5641.08
5641.11
5640.91
5640.9
5640.9
5640.9
5640.9
5640.9
5640.91
5640.94
5641.14
5641.15
5641.15
5641.14
5641.14
5641.13
5641.12
5641.13
5641.27
5641.28
5641.28
5641.28
5641.27
5641.26
5641.25
5641.25
5511.66
5511.68
5511.69
5511.7
5511.71
5511.71
5511.71
5511.7
5511.52
5511.54
5511.55
5511.56
5511.56
5511.57
5511.57
5511.57
5511.3
5511.29
5511.28
5511.28
5511.29
5511.3
5511.31
5511.33
5511.41
5511.42
5511.43
5511.44
5511.45
5511.46
5511.48
5511.5
5511.3
5511.29
5511.28
5511.27
5511.27
5511.27
5511.28
5511.3
5511.53
5511.54
5511.55
5511.56
5511.57
5511.57
5511.57
5511.57
5511.6
5511.62
5511.63
5511.64
5511.64
5511.64
5511.64
5511.63
5382.07
5382.09
5382.11
5382.12
5382.12
5382.12
5382.12
5382.12
5381.91
5381.93
5381.95
5381.96
5381.97
5381.98
5381.98
5381.98
5381.65
5381.64
5381.62
5381.61
5381.59
5381.59
5381.59
5381.6
5381.7
5381.72
5381.74
5381.76
5381.77
5381.79
5381.81
5381.82
5381.67
5381.66
5381.64
5381.62
5381.59
5381.59
5381.58
5381.6
5381.89
5381.92
5381.93
5381.95
5381.96
5381.96
5381.96
5381.96
5381.98
5382
5382.02
5382.03
5382.04
5382.04
5382.04
5382.03
5252.45
5252.48
5252.5
5252.52
5252.53
5252.53
5252.53
5252.53
5252.25
5252.28
5252.3
5252.31
5252.32
5252.33
5252.33
5252.33
5252.05
5252.02
5251.97
5251.93
5251.9
5251.88
5251.87
5251.87
5251.99
5252.01
5252.02
5252.04
5252.05
5252.06
5252.08
5252.09
5252.14
5252.11
5252.08
5252.04
5252.02
5252
5252.01
5252.02
5252.22
5252.24
5252.26
5252.28
5252.29
5252.3
5252.3
5252.3
5252.35
5252.38
5252.4
5252.41
5252.42
5252.43
5252.43
5252.43
5122.83
5122.88
5122.93
5122.95
5122.97
5122.98
5122.99
5122.99
5122.55
5122.59
5122.63
5122.65