/*--------------------------------*- C++ -*----------------------------------*\
| =========                 |                                                 |
| \\      /  F ield         | OpenFOAM: The Open Source CFD Toolbox           |
|  \\    /   O peration     | Version:  plus.master.MPPICInterFoam            |
|   \\  /    A nd           | Web:      www.OpenFOAM.com                      |
|    \\/     M anipulation  |                                                 |
\*---------------------------------------------------------------------------*/
FoamFile
{
    version     2.0;
    format      ascii;
    class       vectorField;
    location    "12.8/lagrangian/kinematicCloud";
    object      U;
}
// * * * * * * * * * * * * * * * * * * * * * * * * * * * * * * * * * * * * * //


14
(
(0.00109285 -0.00410236 -0.0890675)
(0.00229871 -0.00652778 -0.104967)
(0.00210529 -0.00665466 -0.103744)
(-0.000401066 -0.00895443 -0.1188)
(-0.00412992 0.00348426 -0.119766)
(-0.0136138 0.0200492 -0.158436)
(-0.0159783 0.0496999 -0.1815)
(-0.0305331 -0.112314 -0.0239252)
(-0.0251141 -0.0973819 0.0941679)
(-0.0730441 0.02109 -0.145439)
(-0.0209548 -0.0676345 0.193115)
(-0.122045 0.0147851 -0.135559)
(-0.0272362 0.113338 0.0374229)
(-0.0023629 -0.00160754 0.344386)
)


// ************************************************************************* //
