/*--------------------------------*- C++ -*----------------------------------*\
| =========                 |                                                 |
| \\      /  F ield         | OpenFOAM: The Open Source CFD Toolbox           |
|  \\    /   O peration     | Version:  plus.master.MPPICInterFoam            |
|   \\  /    A nd           | Web:      www.OpenFOAM.com                      |
|    \\/     M anipulation  |                                                 |
\*---------------------------------------------------------------------------*/
FoamFile
{
    version     2.0;
    format      ascii;
    class       vectorField;
    location    "12.8/lagrangian/kinematicCloud";
    object      UCorrect;
}
// * * * * * * * * * * * * * * * * * * * * * * * * * * * * * * * * * * * * * //


14
(
(7.04885e-19 9.01536e-19 1.03991e-19)
(2.22871e-19 -1.07082e-19 2.04717e-34)
(2.22825e-19 -1.07178e-19 2.04716e-34)
(4.54505e-19 1.73355e-19 3.59956e-35)
(-4.62906e-20 -4.95758e-19 -1.04195e-19)
(3.55532e-19 -7.38269e-19 -3.16191e-35)
(1.3823e-19 -4.77408e-19 1.17801e-19)
(-7.35536e-19 -4.9921e-19 -1.85011e-19)
(2.71962e-20 -1.18612e-20 -1.99643e-19)
(2.71539e-20 4.57271e-20 1.34742e-19)
(-9.9137e-19 4.64631e-19 2.17761e-19)
(2.74491e-19 -6.26508e-20 1.57454e-20)
(4.02292e-19 -1.33641e-18 1.62908e-19)
(2.89184e-19 -9.22677e-20 1.4249e-19)
)


// ************************************************************************* //
