/*--------------------------------*- C++ -*----------------------------------*\
| =========                 |                                                 |
| \\      /  F ield         | OpenFOAM: The Open Source CFD Toolbox           |
|  \\    /   O peration     | Version:  plus.master.MPPICInterFoam            |
|   \\  /    A nd           | Web:      www.OpenFOAM.com                      |
|    \\/     M anipulation  |                                                 |
\*---------------------------------------------------------------------------*/
FoamFile
{
    version     2.0;
    format      ascii;
    class       volScalarField;
    location    "3.4";
    object      epsilon;
}
// * * * * * * * * * * * * * * * * * * * * * * * * * * * * * * * * * * * * * //

dimensions      [0 2 -3 0 0 0 0];

internalField   nonuniform List<scalar> 
11821
(
0.000163343
0.000219577
0.000912851
0.00196033
0.000793946
0.000196503
0.000144582
0.000241331
0.00396512
0.0389012
0.087215
0.0366517
0.0035024
0.000184311
0.00105563
0.0428169
0.0831164
0.841917
0.0897919
0.0433514
0.000954794
0.00258213
0.100022
0.624749
0.734823
0.692617
0.158927
0.00378877
0.00108674
0.0474898
0.0896371
0.667083
0.0934073
0.0463928
0.00103485
0.00024403
0.00449065
0.05328
0.170179
0.0415772
0.00349375
0.000187019
0.000160349
0.000225366
0.00118225
0.00339407
0.000813282
0.00018076
0.000139604
0.00108148
0.00405365
0.0187791
0.0469076
0.017579
0.00328959
0.000882127
0.00406837
0.0240022
0.12709
0.370449
0.168675
0.0291275
0.00332636
0.0165904
0.110394
0.423417
2.14451
0.742536
0.254127
0.024836
0.0331287
0.274857
2.51924
1.99623
1.73805
1.16802
0.118475
0.0162902
0.133137
0.666772
1.87938
1.12156
0.297868
0.023994
0.00378843
0.0234324
0.185324
0.985861
0.221751
0.0280572
0.00294475
0.0010304
0.00360857
0.0184494
0.0663325
0.0156306
0.00276857
0.000815723
0.00490521
0.0174449
0.0707912
0.153079
0.0686088
0.0130293
0.00357269
0.0162038
0.082745
0.339008
0.925369
0.519636
0.108566
0.0120887
0.0500281
0.260929
1.12266
3.00276
2.08698
0.709173
0.0789101
0.0821802
0.529086
3.97095
2.86202
2.49491
2.25277
0.317197
0.0414866
0.241213
1.42047
2.97339
2.93121
0.628777
0.0597542
0.0121909
0.0546939
0.295052
1.21389
0.405645
0.0681828
0.0086151
0.00418408
0.0110512
0.0378498
0.0950248
0.0341381
0.00804706
0.00307276
0.0138069
0.0405951
0.137507
0.264986
0.129301
0.0295997
0.0103586
0.0376027
0.16859
0.595595
1.4382
0.821153
0.181333
0.025758
0.0967683
0.44009
1.66326
3.23608
2.75113
0.867699
0.102715
0.13967
0.717647
4.07809
3.09048
3.04723
2.32006
0.291063
0.0738129
0.336704
1.47608
3.57741
2.9756
0.674251
0.0776902
0.0258881
0.0913568
0.329874
0.850597
0.436021
0.0932473
0.0178118
0.0112276
0.0230459
0.0563803
0.0983198
0.0505961
0.017069
0.00874671
0.0185359
0.0523175
0.168364
0.308088
0.143143
0.0344385
0.0136049
0.0497465
0.221703
0.744844
1.65839
0.855026
0.179958
0.0291373
0.127116
0.560435
1.94422
2.99093
2.85058
0.734666
0.0909641
0.175368
0.800287
3.68037
3.08109
2.63107
1.76449
0.202895
0.0935454
0.38425
1.36059
3.68135
2.36163
0.527172
0.0669021
0.0339851
0.112597
0.337838
0.669473
0.384644
0.0878552
0.0207413
0.0153146
0.0299966
0.0660591
0.09943
0.0545641
0.020736
0.0117892
0.000143286
0.000144127
0.000137774
0.000132435
0.000126826
0.000121004
0.000116148
0.000111906
0.000148959
0.000149652
0.000144599
0.000138126
0.000132561
0.000127707
0.000121808
0.000116931
0.00025969
0.000177853
0.000159503
0.000147586
0.000139195
0.000132723
0.000126897
0.000122416
0.000623611
0.000223872
0.000164511
0.000151702
0.000145889
0.000140239
0.000134888
0.000130402
0.000279613
0.00018173
0.000159274
0.000148584
0.000139819
0.000133588
0.000127894
0.000123328
0.000147121
0.00014761
0.000145127
0.000138305
0.000132035
0.000126166
0.000120921
0.000115892
0.000139428
0.000140902
0.000134882
0.000129838
0.000125558
0.00011995
0.000114975
0.000110702
0.000495514
0.000399817
0.000343901
0.000300395
0.000264654
0.000235213
0.000211105
0.000191359
0.000767278
0.000467188
0.000374347
0.000317967
0.000274874
0.000240132
0.000212096
0.000189527
0.00205703
0.000616597
0.00041893
0.000345412
0.000296163
0.00025671
0.000223799
0.000197457
0.00655296
0.000869994
0.00045729
0.00036359
0.000310798
0.00026983
0.000235165
0.000207044
0.00185868
0.000595732
0.000414758
0.000343683
0.000295199
0.000256127
0.000223358
0.000196989
0.000697166
0.000453606
0.000368965
0.000314711
0.000272716
0.000238711
0.000211075
0.000188682
0.000477526
0.000392091
0.000338671
0.000296499
0.00026159
0.000232704
0.000208984
0.000189375
0.00208314
0.00176725
0.00157659
0.00139868
0.00121614
0.0010291
0.000844623
0.000674052
0.00301522
0.00198109
0.00166639
0.00145564
0.00125861
0.00105942
0.000861299
0.000676228
0.00725082
0.00249404
0.00180242
0.00153016
0.00131611
0.00110437
0.000891823
0.000691633
0.0193775
0.00329638
0.00193184
0.00158385
0.00135454
0.00113483
0.000914018
0.000705066
0.0060977
0.00239079
0.00178339
0.00152215
0.00131156
0.00110192
0.000890692
0.000691136
0.00269519
0.00192903
0.00164703
0.00144297
0.00124959
0.00105316
0.000857
0.000673069
0.00201911
0.00174078
0.00155472
0.00137982
0.00120049
0.00101638
0.000834292
0.00066544
0.00681454
0.00588284
0.00521725
0.0045961
0.00403344
0.00356235
0.00318069
0.00282134
0.0088957
0.00644839
0.00549982
0.00478568
0.00415639
0.00362849
0.00320856
0.00282833
0.01546
0.00743499
0.00579627
0.00495561
0.00427439
0.0037042
0.0032524
0.00285244
0.0275772
0.00859946
0.00603202
0.00505961
0.00433919
0.00374406
0.00327408
0.002862
0.0134955
0.0071744
0.00572958
0.00492335
0.00425455
0.00369173
0.00324458
0.00284739
0.00799582
0.00624295
0.00540819
0.00472597
0.00411438
0.00359874
0.00318696
0.00281197
0.00651449
0.00573352
0.00510669
0.00450972
0.00396661
0.00351032
0.00313886
0.00278652
0.00978998
0.0089647
0.00856736
0.00824087
0.00783123
0.00714411
0.00600182
0.00454607
0.0119273
0.00937281
0.00861431
0.00820684
0.00783324
0.00725689
0.00622514
0.00479311
0.0179327
0.0102729
0.00879504
0.00825982
0.00788921
0.00737234
0.00640236
0.00497746
0.0261624
0.0111885
0.00897459
0.00832296
0.00793305
0.00742742
0.00647385
0.00504825
0.0159047
0.00999458
0.00872072
0.00821766
0.00785829
0.00735144
0.00639419
0.00498342
0.0109471
0.00914305
0.00850102
0.00812299
0.00776777
0.00721172
0.00620592
0.00480221
0.00943227
0.00877282
0.00841519
0.0081126
0.00772639
0.00706842
0.00596537
0.00455405
0.000160942
0.000160198
0.000153931
0.000145151
0.000137312
0.000130004
0.000123444
0.000117474
0.000202398
0.000198078
0.000189827
0.000182723
0.000172802
0.00016265
0.000156498
0.000149248
0.000342084
0.00023436
0.00021531
0.000208764
0.000203489
0.000198271
0.000193367
0.000189003
0.00052914
0.000268129
0.000227962
0.000219443
0.00021488
0.000210777
0.000207175
0.000204427
0.000346592
0.000242211
0.000222664
0.000216093
0.000210692
0.000205876
0.000201936
0.000198748
0.000216727
0.000211447
0.000198775
0.000192111
0.000182937
0.000171907
0.000165446
0.000158665
0.000169809
0.000171237
0.000162163
0.000154225
0.000146141
0.000137553
0.000130233
0.000123649
0.000568405
0.000441644
0.000377729
0.000329092
0.000289047
0.000255868
0.000228624
0.000206249
0.00103815
0.000602593
0.000479527
0.000412915
0.000362262
0.000318964
0.000281747
0.00024969
0.00250787
0.000907761
0.000601895
0.000491305
0.000424982
0.000373451
0.000330318
0.000294193
0.00436654
0.00116718
0.000663788
0.000519413
0.000447276
0.000397822
0.000359743
0.000329501
0.00259835
0.00092515
0.000612889
0.000501606
0.000434659
0.000382616
0.000339053
0.000302358
0.00107322
0.000618686
0.000493521
0.000426308
0.000374706
0.000331032
0.000293684
0.000261355
0.000582233
0.000455048
0.000390648
0.000341235
0.000300073
0.000265844
0.000237603
0.000214333
0.00243727
0.00192787
0.00167968
0.00147743
0.00127928
0.00107876
0.000881963
0.000700795
0.00407612
0.002439
0.00194098
0.00166753
0.00143842
0.00121168
0.000985285
0.000772759
0.00873943
0.00343426
0.00228026
0.00185885
0.00158766
0.00134012
0.00109236
0.000854205
0.0146492
0.00436352
0.00249028
0.00194385
0.00164948
0.0014018
0.00115828
0.000922556
0.00975895
0.00355171
0.00231131
0.00188133
0.00160778
0.00135741
0.00110638
0.000865015
0.0045057
0.00251835
0.00198246
0.00170219
0.00146796
0.00123584
0.00100422
0.00078706
0.00252522
0.00197172
0.00172171
0.00151559
0.00131133
0.00110438
0.000901819
0.000715943
0.00747012
0.00616913
0.00537869
0.00470575
0.00411511
0.00362501
0.00322899
0.00285689
0.0108087
0.00728214
0.00595398
0.00509876
0.00440193
0.00383082
0.00337975
0.00297376
0.0193575
0.00923723
0.0066382
0.00546981
0.0046515
0.00400096
0.00349094
0.00304237
0.0297613
0.0110081
0.00708345
0.00567003
0.0047933
0.00412509
0.00361312
0.00317076
0.022414
0.00967767
0.00674393
0.00552136
0.00468597
0.00402419
0.00350576
0.00305131
0.0123792
0.00760844
0.00608794
0.00518621
0.00446507
0.00387582
0.0034115
0.00299629
0.0079225
0.00636201
0.00551963
0.00481664
0.00419997
0.00368881
0.00327737
0.00289419
0.0106518
0.00931672
0.00874684
0.00834018
0.00787796
0.0071463
0.00596556
0.00448337
0.0147216
0.0104261
0.00912148
0.00850755
0.00802405
0.00735915
0.00623655
0.00471547
0.025456
0.0126991
0.00974668
0.00873703
0.00814868
0.00747379
0.00635515
0.00479967
0.0385558
0.014833
0.0102146
0.00889738
0.00823736
0.00754148
0.00639968
0.00479821
0.0296395
0.0132484
0.00986399
0.00879454
0.00819057
0.00750296
0.0063688
0.00479694
0.0166941
0.010797
0.00927031
0.00861176
0.00810449
0.00741433
0.00626063
0.00470695
0.0111722
0.00953751
0.00891658
0.00848179
0.00799079
0.00722437
0.00599946
0.00446959
0.000164226
0.000167033
0.000159764
0.00015162
0.000143476
0.000135422
0.000128352
0.000122091
0.000186318
0.000185178
0.00017172
0.000163118
0.000157545
0.000152982
0.000148907
0.000145867
0.000298891
0.000217207
0.000201024
0.000194971
0.000190162
0.000185467
0.000180836
0.000176488
0.000426571
0.000246318
0.000222411
0.000217452
0.000213918
0.000210094
0.000206093
0.000202128
0.000280498
0.00021297
0.000200053
0.000194646
0.000189828
0.000184824
0.000180269
0.000176057
0.000179148
0.000183343
0.000174026
0.000166276
0.000158436
0.000151233
0.00014621
0.000143184
0.00015473
0.000156372
0.000149856
0.000143663
0.000136931
0.000130396
0.000124859
0.000119879
0.00057172
0.000447825
0.000383645
0.000334462
0.000294134
0.000260994
0.000234027
0.000212035
0.00102223
0.000593178
0.000473401
0.000406587
0.000356369
0.000314174
0.000278778
0.000248916
0.00261765
0.000899493
0.000607496
0.000506934
0.000446437
0.000398444
0.000357168
0.000321281
0.00479844
0.00113511
0.000675732
0.000554709
0.000493247
0.000447884
0.000409775
0.000376729
0.00214357
0.000808606
0.000580773
0.000494929
0.000439069
0.000393053
0.000352771
0.000317356
0.000859684
0.00055175
0.000457484
0.000399001
0.000352107
0.000311715
0.000277131
0.000247542
0.000523546
0.000426086
0.00036869
0.000323115
0.000285243
0.000253616
0.000227396
0.000205743
0.00249157
0.00196377
0.0017223
0.00152044
0.00131944
0.00111475
0.000913205
0.000727166
0.00448359
0.00248725
0.00198682
0.00172375
0.00150015
0.00127451
0.0010452
0.000826088
0.0114848
0.00364417
0.00235302
0.00194993
0.00169706
0.00145822
0.0012103
0.000963937
0.0199814
0.00456032
0.00254273
0.00204819
0.00178818
0.00155668
0.00131627
0.00107307
0.00905099
0.00317772
0.00223532
0.0019088
0.00167768
0.00144687
0.00120302
0.00095918
0.00341909
0.00222313
0.00189558
0.0016822
0.00147675
0.00126003
0.00103621
0.00082061
0.00216171
0.00184432
0.00165644
0.00147563
0.0012868
0.00109086
0.000895883
0.000714591
0.00787559
0.00637215
0.00555289
0.00486067
0.00424981
0.00374119
0.00332988
0.00294442
0.0125748
0.00767296
0.00619817
0.00532212
0.00461392
0.00403105
0.00357008
0.00315494
0.0264416
0.0101191
0.00695624
0.00574898
0.00493249
0.00427921
0.00376507
0.00331307
0.0411661
0.0119345
0.00736295
0.00595951
0.00511409
0.00446251
0.00396389
0.00353928
0.0218364
0.00916415
0.0067138
0.00567234
0.00490406
0.00426916
0.00376442
0.00331835
0.0100093
0.0070041
0.0059704
0.00522152
0.00455885
0.00399718
0.0035482
0.00314135
0.00699116
0.00604378
0.00537918
0.00474697
0.00416835
0.00368072
0.00328402
0.00291031
0.0111309
0.00956758
0.00896944
0.00854424
0.00805438
0.00728098
0.00604138
0.00449108
0.0167703
0.0108849
0.00943384
0.00881965
0.00834197
0.00766129
0.0064793
0.00485402
0.0329117
0.013571
0.0101132
0.00911108
0.00855856
0.00789461
0.00673616
0.00508927
0.0488329
0.0155192
0.0105355
0.00934595
0.00882628
0.00826481
0.00721231
0.00560591
0.0265653
0.0123775
0.00982789
0.00902721
0.0085341
0.00789746
0.00675783
0.00512434
0.0132666
0.0100174
0.00914328
0.00869019
0.00827373
0.00763029
0.00648159
0.00488709
0.00996465
0.00913424
0.00873993
0.00839942
0.0079635
0.00723848
0.00604812
0.00454279
0.000144597
0.000146353
0.00014195
0.000137486
0.000133268
0.000127509
0.00012216
0.000116797
0.00016513
0.000166449
0.000160563
0.000155199
0.000149319
0.000144555
0.000140674
0.000136812
0.000281838
0.000221397
0.000200285
0.000192299
0.000189537
0.000185612
0.000179551
0.0001754
0.000617243
0.000287675
0.000227222
0.00021381
0.000206466
0.00020253
0.000199847
0.000197892
0.000348687
0.000244559
0.000216058
0.000207464
0.000202226
0.000196428
0.000190506
0.000183853
0.000184032
0.000179216
0.000170747
0.000162901
0.000157778
0.000151914
0.000145894
0.000142665
0.000157566
0.000158965
0.000151755
0.000143548
0.00013576
0.000128414
0.000122224
0.00011655
0.000502751
0.000412926
0.000358509
0.000315217
0.000278718
0.000247983
0.000222253
0.000200723
0.000779066
0.000519802
0.000431756
0.000376918
0.000333001
0.000295506
0.000262889
0.000235209
0.00174164
0.000713917
0.000526453
0.00045152
0.000401868
0.000360588
0.000324761
0.000293084
0.00406468
0.000962377
0.000604731
0.000504482
0.000451118
0.000410807
0.000376234
0.000345727
0.00223161
0.000807883
0.000558897
0.000470924
0.000417837
0.00037564
0.000339039
0.000306394
0.000971088
0.00057274
0.000455376
0.000392169
0.00034501
0.000305419
0.000271684
0.000243117
0.000556519
0.000433635
0.000371242
0.000324523
0.00028611
0.000254215
0.000227837
0.000205968
0.00209734
0.00180395
0.00161544
0.00143789
0.00125374
0.00106264
0.000872163
0.000694709
0.00292853
0.00211649
0.00182039
0.0016132
0.00141316
0.00120292
0.000986393
0.000778438
0.00550933
0.00268522
0.00207165
0.00179462
0.00157389
0.00134895
0.00111205
0.00087712
0.0097291
0.00330763
0.00226217
0.00190366
0.00166709
0.00144061
0.00120312
0.000964856
0.00684288
0.00298621
0.00215359
0.0018226
0.00158727
0.00135798
0.00111925
0.000883036
0.00371407
0.00232966
0.00189111
0.00164274
0.00142949
0.00121401
0.000994488
0.000784345
0.00238951
0.00190598
0.00166306
0.00146651
0.0012738
0.0010776
0.00088361
0.000703662
0.00666557
0.00585378
0.00521426
0.00460514
0.00404901
0.00357997
0.00319695
0.00283365
0.00834982
0.00655325
0.00568994
0.00499222
0.0043631
0.00382771
0.00339707
0.00300227
0.0126923
0.00763415
0.00618317
0.00532987
0.00462021
0.00401717
0.0035313
0.00309466
0.0180494
0.00866115
0.00653174
0.00553294
0.00478479
0.00416998
0.00368512
0.00325708
0.014832
0.00819468
0.00634917
0.00538836
0.00464718
0.00403388
0.00354406
0.00310538
0.00995976
0.00704724
0.00586878
0.00507318
0.00440981
0.00385999
0.00342201
0.00302219
0.00739497
0.00614389
0.00536187
0.00469815
0.00411577
0.00363168
0.00323932
0.00286879
0.00958697
0.00888959
0.00851374
0.0081919
0.00778302
0.00709855
0.00596632
0.00452932
0.0114082
0.00947447
0.00877196
0.00835469
0.00795724
0.00734396
0.0062592
0.00476574
0.0163124
0.0106312
0.00917201
0.00854409
0.00808095
0.00746281
0.00637862
0.00484735
0.022321
0.0118154
0.00952489
0.0087076
0.00819681
0.00756846
0.00646772
0.00489071
0.0192841
0.0113787
0.00939669
0.00863198
0.00812895
0.00749548
0.00640014
0.0048561
0.013652
0.0101541
0.00902874
0.00848136
0.00803364
0.00739001
0.00627663
0.00475363
0.0105979
0.00930446
0.00873483
0.00833314
0.0078769
0.00715044
0.00597356
0.00449315
0.000107375
0.000112682
0.000119155
0.000127206
0.000120273
0.000111228
0.000106194
0.000174976
0.000171484
0.000176672
0.000184525
0.00017624
0.000170631
0.000173034
0.000530539
0.00052185
0.000525469
0.000531711
0.000525086
0.000518974
0.000522915
0.00235579
0.00232956
0.00232602
0.0023224
0.00232297
0.0023177
0.00232795
0.00285338
0.00289482
0.00292171
0.00293272
0.00293777
0.00292444
0.00289525
0.000111442
0.00014232
0.000185728
0.000203184
0.000196645
0.000150378
0.000117742
0.000187636
0.00022407
0.000264789
0.000305126
0.000272133
0.000234511
0.000194945
0.000548813
0.000594832
0.000651994
0.000720109
0.000660096
0.000605527
0.000560537
0.00237568
0.00244095
0.00245937
0.00258304
0.00246403
0.00245585
0.00240285
0.00278671
0.00276028
0.00268778
0.00260063
0.00267397
0.0027288
0.00273843
0.000116578
0.000141756
0.000172715
0.000198393
0.000172042
0.000139624
0.000114588
0.000193921
0.0002244
0.000290661
0.000348216
0.000286929
0.000222709
0.000187567
0.000570639
0.000639514
0.000748112
0.000856475
0.000744993
0.000635982
0.000561191
0.00244648
0.00260302
0.00271792
0.00296872
0.0027279
0.00259864
0.00242626
0.0027394
0.00277562
0.00285512
0.0032446
0.00289092
0.00282556
0.00281598
0.000110928
0.000133428
0.000171895
0.000196839
0.000179245
0.000140067
0.000110647
0.000182596
0.000211827
0.00026566
0.000319348
0.00027803
0.000218745
0.000187566
0.000544245
0.000600923
0.000672893
0.000755667
0.000677638
0.000605207
0.000551536
0.00236204
0.00247484
0.00251533
0.00267442
0.00252335
0.00248772
0.00238693
0.00285824
0.00281755
0.00274305
0.00268965
0.00273824
0.0027841
0.00279449
0.000103251
9.99955e-05
0.000100233
0.000101087
9.97403e-05
9.66167e-05
9.20165e-05
8.59787e-05
0.000108659
0.000100619
9.60892e-05
9.62509e-05
9.49972e-05
9.22763e-05
8.82207e-05
8.27986e-05
0.000114889
0.000106233
9.79715e-05
9.4147e-05
9.16453e-05
8.89877e-05
8.54658e-05
8.07645e-05
0.000122953
0.0001154
0.000108007
0.000101551
9.39034e-05
8.66293e-05
8.10823e-05
7.62578e-05
0.000115716
0.000106707
9.87134e-05
9.3646e-05
9.08768e-05
8.83216e-05
8.49377e-05
8.03305e-05
0.00010681
9.89929e-05
9.55894e-05
9.56692e-05
9.42797e-05
9.14713e-05
8.73787e-05
8.19572e-05
0.000102306
9.9199e-05
9.8996e-05
9.96702e-05
9.82016e-05
9.50273e-05
9.04325e-05
8.44441e-05
0.000159713
0.000142006
0.000126986
0.000113376
0.000102328
9.35606e-05
8.62397e-05
7.97061e-05
0.000155963
0.000138029
0.000124189
0.000111283
0.000100816
9.23956e-05
8.52607e-05
7.8842e-05
0.00015965
0.000139879
0.000124559
0.000111514
0.000100801
9.22142e-05
8.49633e-05
7.84643e-05
0.000165906
0.000144405
0.000127361
0.000113275
0.000102002
9.3229e-05
8.57785e-05
7.90117e-05
0.000159062
0.000139812
0.000124116
0.000111363
0.000100609
9.19779e-05
8.47012e-05
7.82072e-05
0.000154914
0.000137189
0.000122942
0.000110368
0.000100069
9.17541e-05
8.46874e-05
7.8319e-05
0.000157731
0.00013986
0.000125107
0.000111933
0.000101142
9.24923e-05
8.52231e-05
7.87285e-05
0.000407193
0.000300737
0.000228518
0.000175076
0.000139637
0.000116721
0.000101252
9.00695e-05
0.000397498
0.00029064
0.000223301
0.000172859
0.000138806
0.000116427
0.000101105
8.9933e-05
0.000396869
0.000286914
0.000221906
0.000172748
0.000139158
0.000116843
0.00010141
9.00761e-05
0.00039907
0.000285786
0.000220992
0.000172536
0.000139426
0.000117389
0.000102071
9.07063e-05
0.00039617
0.000285164
0.000221223
0.000172502
0.000139019
0.000116709
0.000101262
8.99246e-05
0.000394246
0.000285624
0.000220692
0.000171489
0.000137963
0.000115819
0.000100613
8.95097e-05
0.000399917
0.000292014
0.000223884
0.000172731
0.000138274
0.000115756
0.000100446
8.93416e-05
0.00176407
0.000948946
0.000469666
0.000262813
0.000173995
0.000131553
0.000108263
9.37091e-05
0.00173925
0.000940147
0.000467308
0.000262475
0.0001743
0.000132
0.000108674
9.40531e-05
0.00173169
0.000938761
0.000467648
0.000263036
0.000174838
0.000132428
0.000108964
9.4213e-05
0.001725
0.00093471
0.000465676
0.000262253
0.000174713
0.00013264
0.000109325
9.46116e-05
0.00173088
0.000940128
0.000468374
0.000263249
0.00017487
0.000132394
0.000108905
9.41493e-05
0.00173322
0.000940407
0.0004675
0.000262233
0.000173978
0.000131703
0.000108418
9.38356e-05
0.00174749
0.000946004
0.000468933
0.000262266
0.000173549
0.000131168
0.000107907
9.33785e-05
0.00170584
0.00103642
0.000524708
0.000287401
0.000182606
0.000133203
0.000107259
9.19304e-05
0.00171358
0.00104312
0.00053021
0.000291213
0.000185115
0.000134837
0.000108329
9.26676e-05
0.00171752
0.00104603
0.000532379
0.00029255
0.000185876
0.000135251
0.000108541
9.27679e-05
0.00171827
0.00104649
0.000533025
0.000293175
0.000186426
0.000135727
0.000108952
9.31226e-05
0.00172686
0.00105155
0.000534708
0.000293503
0.000186282
0.00013543
0.000108622
9.28059e-05
0.00173052
0.00105294
0.000534204
0.000292771
0.000185731
0.000135076
0.000108412
9.26913e-05
0.00172903
0.00105032
0.000530942
0.000290207
0.000183919
0.00013381
0.000107508
9.20111e-05
0.000106599
0.000102912
0.000102725
0.0001031
0.000101366
9.78753e-05
9.28265e-05
8.62089e-05
0.000139092
0.000131834
0.000125588
0.000119657
0.000112954
0.000106423
9.9359e-05
9.17834e-05
0.000183358
0.000178652
0.000171221
0.000161798
0.000152166
0.000143172
0.000132833
0.000122427
0.000202895
0.000206338
0.000206673
0.000204506
0.000199989
0.000189425
0.000174904
0.000159283
0.000195428
0.000189922
0.000181479
0.000171429
0.000160114
0.000149058
0.000137794
0.000126762
0.000144408
0.000137635
0.000131864
0.000124703
0.000117095
0.000109405
0.000101483
9.3298e-05
0.000112636
0.000107427
0.000107253
0.000106778
0.000104409
0.000100393
9.48895e-05
8.78878e-05
0.000170216
0.000150211
0.000132602
0.000116822
0.000104145
9.42185e-05
8.61271e-05
7.91146e-05
0.000200613
0.000173178
0.000149899
0.000129547
0.0001138
0.000101344
9.11244e-05
8.22852e-05
0.000238364
0.000208774
0.000181829
0.000159311
0.000141761
0.000127698
0.000115675
0.000104927
0.00028284
0.000257341
0.000233192
0.000211895
0.000194282
0.000179193
0.00016337
0.000149737
0.000244661
0.000214055
0.000185946
0.000162518
0.000144456
0.000130344
0.000117823
0.000106555
0.000209758
0.000180369
0.000154766
0.000133154
0.000116398
0.000103531
9.29592e-05
8.38229e-05
0.000176749
0.000156061
0.000136392
0.000119287
0.000105895
9.56133e-05
8.73193e-05
8.01671e-05
0.000418966
0.000308592
0.000230712
0.000174487
0.000138064
0.000114925
9.95335e-05
8.85458e-05
0.000449867
0.000328059
0.000242909
0.000182412
0.000143426
0.000118633
0.000102114
9.0395e-05
0.000489213
0.000350128
0.000256518
0.000192454
0.00015231
0.000127623
0.000111954
0.000101705
0.000555714
0.000415176
0.000319424
0.00025213
0.00020944
0.000184626
0.000173436
0.000171517
0.000495022
0.000354208
0.000258537
0.000193406
0.000152863
0.000128159
0.000112703
0.000102805
0.000457732
0.000334444
0.000246021
0.000183895
0.000144391
0.000119507
0.000102997
9.1279e-05
0.000428148
0.000317236
0.000234763
0.000176105
0.000138778
0.00011537
9.99292e-05
8.89478e-05
0.00176685
0.000937444
0.000459787
0.000256721
0.000170202
0.000129034
0.000106519
9.24921e-05
0.0018052
0.000954077
0.000466695
0.000259935
0.00017195
0.000130178
0.000107481
9.35481e-05
0.00179871
0.000936721
0.000452495
0.000251422
0.000168663
0.000131602
0.000113623
0.000104908
0.00190921
0.00101939
0.000509772
0.000296492
0.000211504
0.000179096
0.000172667
0.000187783
0.00179928
0.000934534
0.000451244
0.000250951
0.000168615
0.000131889
0.000114279
0.000106047
0.00181131
0.000952457
0.000465266
0.000259353
0.000171832
0.000130304
0.000107743
9.38924e-05
0.00178029
0.000936947
0.000458098
0.000255706
0.000169629
0.000128718
0.000106364
9.24313e-05
0.00167111
0.00101243
0.000511189
0.000280415
0.000179007
0.000131306
0.00010625
9.14214e-05
0.00164159
0.000989795
0.00049827
0.000272985
0.000174609
0.000128795
0.000105108
9.14207e-05
0.00158293
0.000947509
0.000475939
0.000263127
0.000172618
0.000132755
0.000114722
0.000107465
0.0015289
0.000901746
0.000448498
0.000250649
0.000173666
0.000149887
0.00015606
0.000193585
0.0015749
0.000943221
0.000474452
0.00026273
0.000172656
0.000133051
0.000115255
0.000108287
0.00162355
0.000979228
0.000493903
0.000271307
0.000174017
0.00012866
0.000105178
9.15873e-05
0.00164394
0.000995892
0.000503542
0.000276799
0.000177182
0.000130349
0.000105743
9.11387e-05
0.000111975
0.000107235
0.000107692
0.000108501
0.000106941
0.000103395
9.81411e-05
9.11843e-05
0.00013841
0.000132292
0.000127895
0.000123258
0.000117019
0.00011063
0.000103881
9.58612e-05
0.00016964
0.000166044
0.00016104
0.00015426
0.000145055
0.000135047
0.000123538
0.00011213
0.000194879
0.000190506
0.000188627
0.000183128
0.000168353
0.000151008
0.000139053
0.000129778
0.000168582
0.000165317
0.000160982
0.000153639
0.000143914
0.000133371
0.000121911
0.000111009
0.000136162
0.000131555
0.000126789
0.000121028
0.000115041
0.000108567
0.000101909
9.44474e-05
0.000109846
0.000105532
0.000105362
0.000105918
0.000104139
0.000100662
9.57156e-05
8.92478e-05
0.000176993
0.000157946
0.000139055
0.000121722
0.000107802
9.71054e-05
8.85937e-05
8.13448e-05
0.000202238
0.000176724
0.000154117
0.000133456
0.000116965
0.000104081
9.37359e-05
8.49476e-05
0.00026156
0.000227934
0.00019884
0.000173536
0.000153352
0.000137014
0.000122676
0.000108608
0.000320392
0.000287762
0.000257938
0.000230308
0.000207013
0.000186521
0.000170338
0.000156569
0.000257937
0.000224329
0.000195255
0.000170404
0.000150447
0.000134373
0.000120346
0.000106669
0.000199976
0.000174221
0.000151432
0.000131861
0.000115811
0.000103369
9.3365e-05
8.47889e-05
0.00017059
0.000151115
0.000133779
0.000118002
0.000105275
9.53841e-05
8.74208e-05
8.05629e-05
0.000436754
0.00032493
0.000239985
0.000179342
0.000140782
0.000116714
0.000100971
8.98697e-05
0.000484506
0.000355159
0.000260285
0.00019292
0.000150016
0.000123384
0.000106327
9.47535e-05
0.000565016
0.000404489
0.000301393
0.000229896
0.000183898
0.000154727
0.000135048
0.000120315
0.000667447
0.000496163
0.000396507
0.000326202
0.000277954
0.000245309
0.000217818
0.000195083
0.000562795
0.000402449
0.000300612
0.000229479
0.000183346
0.000153764
0.000133524
0.000118169
0.000481442
0.000351062
0.000258842
0.000192792
0.000150316
0.000123703
0.000106469
9.46308e-05
0.000428991
0.00031636
0.000236455
0.000178517
0.000140939
0.000117143
0.000101422
9.02819e-05
0.00181232
0.000952102
0.000464301
0.000258415
0.00017113
0.000129852
0.000107434
9.35194e-05
0.00192702
0.00101444
0.000492927
0.000272011
0.000178975
0.000135923
0.00011356
0.000100512
0.00201604
0.00107804
0.000534596
0.000305345
0.000212679
0.000173543
0.000155886
0.000146118
0.00227895
0.0013232
0.000731743
0.000467935
0.000358266
0.000309146
0.000277076
0.000259898
0.00202912
0.00109092
0.000542788
0.000309822
0.000214764
0.000173743
0.00015423
0.000142622
0.00193204
0.00102519
0.000499737
0.000275297
0.00018046
0.000136428
0.000113382
9.97727e-05
0.00180889
0.000962649
0.000472322
0.000262804
0.000173647
0.000131468
0.000108566
9.4366e-05
0.00164168
0.000992615
0.000501889
0.000276523
0.000177812
0.000131536
0.00010726
9.28086e-05
0.00164287
0.000987142
0.000498136
0.000274922
0.000178548
0.000134946
0.000113609
0.000101754
0.00164213
0.000987795
0.000516489
0.000307739
0.000225121
0.000196182
0.000189376
0.000187382
0.00186806
0.00118697
0.000700226
0.000493135
0.000430741
0.000434859
0.000447238
0.000414025
0.00166195
0.00100142
0.000524437
0.000312158
0.000227203
0.000196255
0.000187421
0.000183252
0.00166909
0.00100322
0.000505829
0.000278252
0.000179842
0.000135296
0.000113312
0.000100951
0.00168157
0.00101792
0.000514805
0.00028293
0.00018117
0.000133446
0.000108426
9.35683e-05
0.000106648
0.00010396
0.000103999
0.000103989
0.000101858
9.80876e-05
9.29501e-05
8.6393e-05
0.000130985
0.000127115
0.000123132
0.000119413
0.000114049
0.000107911
0.000101016
9.33365e-05
0.000168251
0.000164487
0.00016088
0.000155159
0.000148035
0.000139817
0.000130102
0.000120315
0.000196553
0.000198998
0.000199113
0.000195325
0.000188459
0.000176964
0.000163698
0.000148712
0.000176579
0.000173068
0.000168708
0.000161604
0.000152986
0.000143231
0.000132409
0.000122135
0.000136351
0.00012983
0.000124984
0.000119465
0.000113212
0.000106624
9.98482e-05
9.23818e-05
0.00010583
0.000102026
0.000101523
0.00010232
0.000100962
9.772e-05
9.28338e-05
8.63099e-05
0.000165561
0.000145687
0.000129122
0.000114385
0.000102491
9.31189e-05
8.54243e-05
7.86993e-05
0.000190602
0.000165309
0.000144596
0.000126041
0.0001113
9.96157e-05
9.00422e-05
8.1666e-05
0.000239896
0.000210033
0.000183426
0.00016069
0.000142611
0.000128288
0.000116226
0.00010497
0.000294429
0.000265549
0.000239102
0.000215237
0.000194735
0.000177606
0.000161394
0.000148179
0.000250813
0.00021874
0.000190035
0.0001656
0.000146248
0.000130964
0.000118133
0.000106236
0.000196441
0.000170824
0.000148469
0.000129097
0.000113615
0.000101453
9.14358e-05
8.27097e-05
0.000170295
0.000150467
0.000133055
0.00011724
0.000104417
9.4379e-05
8.62292e-05
7.92006e-05
0.000414218
0.000301232
0.00022738
0.000173369
0.000137778
0.000114929
9.96401e-05
8.86959e-05
0.000453668
0.000327665
0.000243578
0.000183218
0.000143925
0.000118883
0.000102285
9.05999e-05
0.000504322
0.000357589
0.000263869
0.000199085
0.000157909
0.000132375
0.000116101
0.000105353
0.00058147
0.000430186
0.000334865
0.000267944
0.000225509
0.000201189
0.000189943
0.00018362
0.000508174
0.000361198
0.0002664
0.00020094
0.00015944
0.000133776
0.000117448
0.00010668
0.000457264
0.00033211
0.000246044
0.000184655
0.000144991
0.000119804
0.00010313
9.13936e-05
0.000420899
0.000309505
0.000231511
0.000175064
0.000138421
0.000115139
9.96781e-05
8.86709e-05
0.00176574
0.000947011
0.000465895
0.000259459
0.000171556
0.000129901
0.000107215
9.31248e-05
0.0018396
0.000979743
0.000478392
0.000264306
0.000173596
0.000130948
0.000108062
9.41798e-05
0.00185032
0.00097251
0.00046965
0.000259562
0.000173837
0.000136211
0.000118569
0.000110421
0.00199536
0.00108565
0.000551256
0.000325437
0.000236425
0.000203805
0.000199342
0.000215072
0.001855
0.000974384
0.000471431
0.000261369
0.000175549
0.000137847
0.000120176
0.000112065
0.00184367
0.000976102
0.000475773
0.000263391
0.000173441
0.000131043
0.000108219
9.434e-05
0.00177603
0.000942935
0.00046211
0.000257592
0.000170557
0.000129228