/*--------------------------------*- C++ -*----------------------------------*\
| =========                 |                                                 |
| \\      /  F ield         | OpenFOAM: The Open Source CFD Toolbox           |
|  \\    /   O peration     | Version:  plus.master.MPPICInterFoam            |
|   \\  /    A nd           | Web:      www.OpenFOAM.com                      |
|    \\/     M anipulation  |                                                 |
\*---------------------------------------------------------------------------*/
FoamFile
{
    version     2.0;
    format      ascii;
    class       surfaceScalarField;
    location    "12";
    object      alphaPhi;
}
// * * * * * * * * * * * * * * * * * * * * * * * * * * * * * * * * * * * * * //

dimensions      [0 3 -1 0 0 0 0];

internalField   nonuniform List<scalar> 
34319
(
-4.02348e-08
-1.43789e-07
6.31763e-06
7.55894e-08
1.39314e-07
-1.29068e-08
-1.15022e-07
6.20989e-06
1.25275e-07
2.12777e-08
-1.1579e-07
5.84718e-06
1.17384e-07
5.15946e-08
-1.05027e-07
5.30205e-06
1.04384e-07
7.24321e-08
-8.89916e-08
4.65687e-06
8.90624e-08
8.37375e-08
-7.65238e-08
3.98416e-06
7.5913e-08
-6.673e-08
3.32289e-06
8.55039e-08
6.48964e-08
-5.64645e-08
-9.48576e-08
6.62319e-06
1.10934e-07
-3.42096e-08
-3.81483e-08
6.66779e-06
1.37302e-08
-7.50333e-08
6.2926e-06
6.34731e-08
-1.01842e-07
6.13417e-06
8.80421e-08
-7.9093e-08
5.41557e-06
9.97311e-08
-6.66538e-08
4.5818e-06
-5.90321e-08
3.80353e-06
1.00824e-07
-6.54315e-08
-1.78248e-08
4.29481e-06
1.40132e-07
-1.80575e-08
6.01271e-09
3.9538e-06
5.47251e-08
-5.42919e-08
4.84798e-06
1.11189e-07
-5.06616e-08
6.1285e-06
1.21473e-07
-3.61119e-08
6.04554e-06
1.25145e-07
-3.9107e-08
5.14346e-06
-3.90294e-08
4.23566e-06
1.21398e-07
-2.82781e-08
3.26113e-08
3.75971e-06
1.76069e-07
-2.88467e-08
1.00158e-07
4.78471e-06
8.82618e-08
5.23601e-08
5.71218e-06
1.14547e-07
2.56726e-08
5.23216e-06
1.50175e-07
1.48864e-08
6.25637e-06
1.47906e-07
1.95967e-09
5.59731e-06
-9.51365e-09
4.57896e-06
1.39871e-07
-1.69938e-07
1.02594e-07
4.12238e-06
1.15065e-07
-5.98109e-08
1.22897e-07
6.80164e-06
-8.32514e-09
2.74235e-08
4.36541e-06
9.21215e-08
4.45801e-08
4.95207e-06
1.51451e-07
4.78672e-08
6.54137e-06
1.55576e-07
4.00733e-08
5.86915e-06
2.03729e-08
4.78986e-06
1.49086e-07
-1.78988e-07
1.14011e-07
3.98453e-06
2.16906e-07
-9.00136e-09
1.2048e-07
3.9991e-06
1.30505e-08
8.23562e-08
3.61162e-06
1.08668e-07
8.36143e-08
4.97898e-06
1.53383e-07
9.01987e-08
6.47417e-06
1.54826e-07
7.76506e-08
5.906e-06
4.72761e-08
4.84075e-06
1.49105e-07
-5.82646e-08
4.45103e-06
1.62907e-07
1.83758e-07
-2.71918e-09
4.08647e-06
1.81663e-07
4.20839e-08
4.28682e-06
1.67687e-07
1.00468e-07
5.84987e-06
1.65244e-07
1.29205e-07
6.47073e-06
1.29641e-07
1.37553e-07
5.72422e-06
9.92059e-08
4.73302e-06
1.40813e-07
5.91277e-08
-3.71359e-08
-1.19153e-07
6.29741e-06
6.68138e-08
1.09721e-07
-1.7202e-08
-9.03274e-08
6.18445e-06
9.57912e-08
1.25087e-08
-9.64383e-08
5.82087e-06
9.29887e-08
4.09867e-08
-9.16295e-08
5.27853e-06
8.67014e-08
6.11221e-08
-7.96488e-08
4.63923e-06
7.70352e-08
7.27065e-08
-7.07035e-08
3.97481e-06
6.84586e-08
-6.39192e-08
3.32311e-06
7.53699e-08
6.09694e-08
-4.2549e-08
-1.01539e-07
6.71282e-06
9.65829e-08
-3.02538e-08
-3.42627e-08
6.74709e-06
9.98048e-09
-7.10548e-08
6.34538e-06
5.27042e-08
-9.67538e-08
6.12042e-06
7.52283e-08
-7.55849e-08
5.3889e-06
8.66942e-08
-6.43063e-08
4.56374e-06
-5.83955e-08
3.79595e-06
8.84157e-08
-3.26455e-08
-4.66576e-08
4.6694e-06
1.12506e-07
-3.44284e-09
-3.82043e-09
4.15469e-06
5.79752e-08
-6.02808e-08
4.95192e-06
1.02413e-07
-5.92264e-08
6.18571e-06
1.08809e-07
-4.26953e-08
6.03129e-06
1.10652e-07
-4.10747e-08
5.11834e-06
-4.10397e-08
4.22158e-06
1.07263e-07
-4.66824e-09
-9.13279e-08
3.83027e-06
1.18585e-07
4.68757e-08
-1.27728e-09
4.72467e-06
9.53728e-08
-6.87361e-08
4.91753e-06
1.1561e-07
-6.51336e-09
5.18952e-06
1.3886e-07
1.35023e-09
6.27088e-06
1.31967e-07
-4.18457e-09
5.56741e-06
-1.43944e-08
4.56034e-06
1.23908e-07
-3.26442e-08
5.309e-08
6.78068e-06
1.04385e-07
-2.11805e-08
4.0585e-08
6.66572e-06
4.3813e-08
1.24239e-08
5.52803e-06
9.78815e-08
1.75053e-08
5.09004e-06
1.404e-07
2.88866e-08
6.5646e-06
1.3792e-07
2.9696e-08
5.83774e-06
1.2668e-08
4.76948e-06
1.31191e-07
-1.12154e-07
5.27062e-08
3.97952e-06
1.28076e-07
1.12042e-08
4.6634e-08
3.88319e-06
5.61927e-08
5.77025e-08
3.68825e-06
1.32316e-07
7.17738e-08
5.26671e-06
1.42996e-07
7.89474e-08
6.5069e-06
1.35458e-07
6.64913e-08
5.87677e-06
3.76315e-08
4.82164e-06
1.29653e-07
-4.20492e-08
4.90493e-06
1.40762e-07
1.58247e-07
5.9913e-09
4.84974e-06
1.89638e-07
4.34912e-08
4.58503e-06
1.59063e-07
8.95139e-08
6.01491e-06
1.40192e-07
1.06e-07
6.48459e-06
1.09963e-07
1.13022e-07
5.70083e-06
8.28756e-08
4.71777e-06
1.20156e-07
4.5828e-08
-4.30652e-08
-1.01176e-08
6.26213e-06
5.33324e-08
3.50687e-08
-3.29224e-08
6.57674e-09
6.14429e-06
2.33913e-08
-1.22613e-08
-7.39248e-09
5.77847e-06
2.90475e-08
1.41966e-08
-2.66262e-08
5.23915e-06
3.94958e-08
3.95107e-08
-4.23207e-08
4.60795e-06
4.8164e-08
5.79664e-08
-5.25265e-08
3.95507e-06
5.37169e-08
-5.84389e-08
3.31664e-06
6.6741e-08
5.6008e-08
-5.57684e-08
7.58598e-09
6.70035e-06
7.33734e-08
-5.23721e-08
2.99687e-08
6.72904e-06
-3.71227e-08
1.63298e-08
6.30871e-06
2.07616e-10
-1.57119e-08
6.07591e-06
3.49034e-08
-3.41428e-08
5.34591e-06
5.97111e-08
-4.61152e-08
4.53228e-06
-5.40412e-08
3.77883e-06
7.20482e-08
-2.69585e-08
7.26579e-09
4.67873e-06
6.32148e-08
-2.13254e-08
2.13764e-08
4.16832e-06
-2.32348e-08
1.64743e-08
4.89022e-06
1.14058e-08
-7.54834e-09
6.14298e-06
4.55439e-08
-1.59403e-08
5.98801e-06
7.02184e-08
-3.04086e-08
5.07775e-06
-4.07397e-08
4.19571e-06
8.26121e-08
5.72202e-09
-5.56673e-08
3.84855e-06
6.64055e-08
2.49862e-08
-3.71387e-08
3.90908e-06
-2.58792e-09
-8.48456e-08
3.62583e-06
3.15031e-08
-8.51199e-09
5.12312e-06
6.44078e-08
7.25369e-09
6.22588e-06
8.27523e-08
-3.11509e-09
5.52178e-06
-1.9184e-08
4.52847e-06
9.3025e-08
-3.00842e-08
-4.39335e-08
5.38532e-06
7.96417e-08
-3.93707e-08
-3.39262e-08
6.66867e-06
9.52472e-09
-2.51999e-08
5.31139e-06
2.62252e-08
9.76329e-09
4.94262e-06
6.37511e-08
2.85933e-08
6.53232e-06
8.33378e-08
2.33565e-08
5.79162e-06
2.8661e-09
4.73497e-06
9.57567e-08
-2.82889e-08
3.07534e-09
5.44293e-06
1.90025e-07
-4.68267e-09
-1.51713e-08
3.88129e-06
8.32569e-10
1.75692e-09
4.05415e-06
3.09758e-08
3.80394e-08
5.24439e-06
5.40507e-08
5.59552e-08
6.47888e-06
7.46357e-08
4.71513e-08
5.83233e-06
2.03483e-08
4.78751e-06
9.12178e-08
-4.27318e-08
5.11225e-06
9.48558e-08
3.84996e-08
-3.47453e-08
4.89384e-06
7.75335e-08
-3.30959e-08
4.66486e-06
4.93723e-08
-2.59376e-08
5.98209e-06
5.23994e-08
1.44011e-08
6.45406e-06
5.69011e-08
5.32421e-08
5.66012e-06
4.8915e-08
4.68682e-06
8.40208e-08
2.04446e-08
-4.72634e-08
7.21454e-08
6.19171e-06
5.01489e-08
-4.68054e-09
-4.03949e-08
7.88451e-08
6.06885e-06
-1.0404e-08
-1.98083e-08
4.57095e-08
5.70536e-06
6.75195e-09
9.20538e-09
4.56971e-09
5.1758e-06
2.96431e-08
3.98161e-08
-3.37165e-08
4.56019e-06
5.08751e-08
6.24903e-08
-5.77011e-08
3.92563e-06
6.44701e-08
-7.00945e-08
3.30545e-06
7.36183e-08
7.00748e-08
-7.3476e-08
9.12904e-08
6.57986e-06
6.53194e-08
-8.01343e-08
1.02339e-07
6.60314e-06
-6.99909e-08
7.65006e-08
6.17567e-06
-2.53119e-08
3.87499e-08
5.99028e-06
2.34844e-08
-1.34104e-08
5.27672e-06
5.97771e-08
-4.67119e-08
4.48502e-06
-6.4584e-08
3.7533e-06
7.98351e-08
-4.93042e-08
3.29592e-08
4.38677e-06
4.689e-08
-5.51439e-08
4.05039e-08
3.92934e-06
-7.55531e-08
5.60004e-08
4.64249e-06
-4.94894e-08
4.30985e-08
5.97994e-06
1.31874e-08
6.08468e-09
5.90159e-06
6.11272e-08
-3.11758e-08
5.01422e-06
-5.17497e-08
4.15676e-06
8.72207e-08
-8.56201e-08
8.22197e-08
3.83784e-06
6.85152e-08
-1.08508e-08
3.87483e-08
3.85866e-06
-4.76783e-08
2.92257e-08
3.69578e-06
-4.53316e-08
2.85634e-08
4.84612e-06
1.32354e-08
2.01412e-08
6.10499e-06
6.46757e-08
-7.42426e-09
5.44646e-06
-3.15499e-08
4.47924e-06
9.36562e-08
-6.61016e-08
-1.77673e-08
4.42361e-06
3.99414e-08
-5.7387e-08
-6.40276e-09
6.64772e-06
-4.40131e-08
-9.97356e-09
3.15102e-06
-6.27466e-08
1.71141e-08
4.5184e-06
-5.02376e-09
2.74141e-08
6.42152e-06
5.70327e-08
1.16905e-08
5.71039e-06
-1.19178e-08
4.67989e-06
9.24637e-08
-5.47518e-08
-1.22787e-08
5.5946e-06
1.6689e-07
-3.74263e-08
-1.81083e-08
3.91129e-06
-3.12347e-08
-8.40367e-09
3.96998e-06
-6.85943e-08
5.70863e-09
4.92174e-06
-1.78677e-08
3.14122e-08
6.37695e-06
4.62105e-08
2.71316e-08
5.75275e-06
3.55255e-09
4.7319e-06
8.62731e-08
-6.06185e-08
4.96314e-06
8.20372e-08
-3.61576e-08
-9.43591e-08
4.40684e-06
-2.00887e-08
-9.47133e-08
4.47206e-06
-2.22385e-08
-1.14359e-07
5.74337e-06
-1.31681e-08
-4.46017e-08
6.36184e-06
1.91802e-08
2.96922e-08
5.58603e-06
2.68811e-08
4.63481e-06
7.89473e-08
6.23481e-09
-4.84131e-08
-5.02156e-08
6.08578e-06
9.03172e-08
1.14207e-07
-2.55593e-09
-5.82857e-08
5.95643e-06
1.24872e-07
5.30358e-08
-9.43147e-08
5.5973e-06
1.46824e-07
1.10692e-07
-1.31804e-07
5.08079e-06
1.69098e-07
1.63547e-07
-1.61668e-07
4.48253e-06
1.86601e-07
2.04942e-07
-1.8003e-07
3.86663e-06
1.97685e-07
-1.90001e-07
3.26666e-06
2.3117e-07
2.02572e-07
-8.23392e-08
2.6611e-08
6.35747e-06
1.13694e-07
-4.50385e-08
2.36484e-08
6.38626e-06
9.32168e-09
-1.3316e-08
5.98186e-06
9.08071e-08
-8.33637e-08
5.86304e-06
1.57802e-07
-1.25482e-07
5.17352e-06
2.08188e-07
-1.51547e-07
4.40623e-06
-1.65907e-07
3.69681e-06
2.408e-07
-7.79171e-08
4.09563e-08
3.66065e-06
1.13243e-07
-3.88967e-08
4.2298e-08
3.35205e-06
-1.11378e-08
1.17367e-08
4.45014e-06
7.77599e-08
-1.79564e-08
5.78076e-06
1.56033e-07
-6.78826e-08
5.77321e-06
2.14305e-07
-1.11805e-07
4.91628e-06
-1.30347e-07
4.08535e-06
2.50212e-07
-1.07213e-07
9.4034e-08
3.77965e-06
1.36188e-07
-9.20737e-08
9.8489e-08
3.81682e-06
-1.13409e-08
6.47613e-08
4.86003e-06
4.3606e-08
2.3552e-08
4.70176e-06
1.53234e-07
-2.37367e-08
5.91401e-06
2.1847e-07
-6.25622e-08
5.33181e-06
-8.51137e-08
4.39599e-06
2.56465e-07
-1.23467e-07
1.19235e-07
4.42502e-06
1.26401e-07
-5.98048e-08
9.91617e-08
2.84555e-06
-3.06103e-08
5.56608e-08
3.74127e-06
9.43511e-09
2.46347e-08
3.98465e-06
1.38545e-07
1.14341e-08
6.22645e-06
2.12615e-07
-1.21977e-08
5.58603e-06
-3.67903e-08
4.58969e-06
2.54574e-07
-1.58668e-07
7.63577e-08
3.87511e-06
2.51097e-07
-5.63691e-08
7.83647e-08
3.87834e-06
-1.8042e-08
6.73628e-08
3.39158e-06
4.11253e-10
4.36621e-08
4.35132e-06
1.22337e-07
4.69873e-08
6.20211e-06
1.9905e-07
3.49798e-08
5.62892e-06
8.69005e-09
4.64118e-06
2.44346e-07
-1.18794e-07
4.09216e-06
1.78882e-07
3.89427e-08
-7.14309e-08
3.45368e-06
5.70881e-08
-5.67214e-08
3.76006e-06
4.60895e-08
-2.27986e-08
5.39709e-06
6.55764e-08
9.28796e-08
6.21392e-06
7.5275e-08
1.75111e-07
5.47089e-06
6.80558e-08
4.55029e-06
2.25556e-07
4.28437e-08
-5.6773e-08
-2.77518e-07
1.7864e-07
2.94404e-07
5.94712e-06
4.65761e-08
-3.00262e-07
3.35435e-07
5.81802e-06
1.5165e-07
-3.40527e-07
3.66243e-07
5.46664e-06
2.47347e-07
-3.63677e-07
3.86673e-07
4.96223e-06
3.23818e-07
-3.62452e-07
3.92628e-07
4.37603e-06
3.82082e-07
-3.57954e-07
3.93058e-07
3.77322e-06
-3.49826e-07
4.25016e-07
3.86361e-07
3.18706e-06
-8.16748e-08
-1.49631e-07
2.05963e-07
6.21274e-06
1.60075e-08
-1.41637e-07
6.23311e-06
1.39732e-07
-2.20112e-07
5.84784e-06
2.74033e-07
-3.41056e-07
5.73712e-06
3.52094e-07
-3.19183e-07
5.05219e-06
4.10472e-07
-3.08871e-07
4.29867e-06
-3.01734e-07
4.5674e-07
3.60243e-06
-1.03958e-07
-4.3062e-08
2.23984e-07
3.58779e-06
-1.16024e-08
-7.47723e-08
3.37495e-06
1.86535e-07
-2.20814e-07
4.52437e-06
3.36028e-07
-2.29539e-07
5.69551e-06
3.89069e-07
-2.14013e-07
5.64983e-06
4.3691e-07
-2.34666e-07
4.79426e-06
-2.34135e-07
4.77685e-07
3.97699e-06
-1.07862e-07
2.94857e-08
2.73967e-07
3.56907e-06
-5.89695e-08
4.91932e-08
3.94858e-06
2.08465e-07
2.26633e-08
5.75906e-06
2.63348e-07
-3.62484e-08
4.8839e-06
4.04797e-07
-1.12682e-07
5.76842e-06
4.50385e-07
-1.43521e-07
5.19499e-06
-1.5196e-07
4.87758e-07
4.27649e-06
-2.95205e-07
1.52947e-07
4.54328e-07
4.55992e-06
-6.5462e-08
1.41752e-07
5.44119e-06
7.06908e-08
5.35229e-08
4.2234e-06
2.31358e-07
4.00915e-08
4.06991e-06
3.94897e-07
-2.04026e-08
6.06376e-06
4.45475e-07
-4.50491e-08
5.43703e-06
-6.15279e-08
4.82305e-07
4.46252e-06
-2.3046e-07
1.81243e-07
3.39047e-07
3.78665e-06
-4.11374e-08
2.19587e-07
3.67063e-06
5.32647e-08
1.76631e-07
3.23367e-06
2.41548e-07
1.20663e-07
4.29845e-06
3.75494e-07
8.78636e-08
6.06983e-06
4.25229e-07
5.96587e-08
5.47456e-06
3.23514e-08
4.61705e-07
4.51092e-06
-1.54124e-07
3.24556e-07
2.46494e-07
3.49969e-06
-4.35014e-08
2.09344e-07
3.39607e-06
3.81857e-08
2.16207e-07
3.46916e-06
2.17583e-07
2.41626e-07
5.28295e-06
3.20179e-07
1.94786e-07
6.09309e-06
3.76297e-07
1.56226e-07
5.31819e-06
4.12356e-07
1.26384e-07
4.42011e-06
9.61519e-08
-7.41316e-09
1.70451e-06
-9.30694e-09
1.00399e-07
-7.55808e-09
1.71312e-06
-9.37482e-09
9.80558e-08
-8.29987e-09
1.64073e-06
-9.48812e-09
8.91067e-08
-9.50034e-09
1.50779e-06
-9.54017e-09
7.39372e-08
-1.11415e-08
1.32918e-06
-9.44264e-09
5.32881e-08
-1.32222e-08
1.11086e-06
-9.10962e-09
2.77096e-08
-1.56757e-08
8.37396e-07
-7.81648e-09
-1.82822e-08
4.06196e-07
-5.18785e-09
1.11157e-07
-1.9917e-08
2.4213e-06
1.14661e-07
-2.1915e-08
2.31165e-06
1.1133e-07
-2.52302e-08
2.13051e-06
1.01064e-07
-2.91036e-08
1.89628e-06
8.40858e-08
-3.33156e-08
1.62319e-06
6.08227e-08
-3.76233e-08
1.31629e-06
3.19733e-08
-4.1744e-08
9.55828e-07
-4.44747e-08
4.17913e-07
1.30674e-07
-2.64036e-08
3.024e-06
1.33191e-07
-3.1745e-08
2.83792e-06
1.28169e-07
-3.83431e-08
2.58334e-06
1.15485e-07
-4.54333e-08
2.28097e-06
9.5411e-08
-5.25817e-08
1.94531e-06
6.85342e-08
-5.9407e-08
1.58058e-06
3.57612e-08
-6.54648e-08
1.16339e-06
-6.89507e-08
5.51896e-07
1.48478e-07
-2.82225e-08
3.39823e-06
1.50164e-07
-3.70795e-08
3.19646e-06
1.43664e-07
-4.66612e-08
2.92663e-06
1.28842e-07
-5.66334e-08
2.61022e-06
1.06048e-07
-6.6397e-08
2.26181e-06
7.60069e-08
-7.54455e-08
1.88509e-06
3.97302e-08
-8.31819e-08
1.4543e-06
-8.72836e-08
8.15768e-07
1.58666e-07
-2.97304e-08
3.44713e-06
1.60327e-07
-4.01581e-08
3.30289e-06
1.53187e-07
-5.12259e-08
3.08732e-06
1.37231e-07
-6.27627e-08
2.82121e-06
1.1282e-07
-7.39774e-08
2.51879e-06
8.07467e-08
-8.42535e-08
2.18343e-06
4.21454e-08
-9.29225e-08
1.78873e-06
-9.76027e-08
1.17717e-06
1.5913e-07
-3.35529e-08
3.13411e-06
1.60749e-07
-4.31047e-08
3.115e-06
1.53753e-07
-5.3878e-08
3.01768e-06
1.3794e-07
-6.5211e-08
2.86093e-06
1.13578e-07
-7.63061e-08
2.6588e-06
8.14665e-08
-8.65596e-08
2.41489e-06
4.28094e-08
-9.53064e-08
2.10414e-06
-9.97857e-08
1.57369e-06
1.51572e-07
2.49148e-06
-4.1793e-08
1.54565e-07
2.6463e-06
-4.85994e-08
1.485e-07
2.70778e-06
-5.62594e-08
1.33158e-07
2.69876e-06
-6.48478e-08
1.09081e-07
2.63391e-06
-7.38259e-08
7.73168e-08
2.51725e-06
-8.26757e-08
3.95057e-08
2.32598e-06
-9.07834e-08
1.91785e-06
-9.73314e-08
8.57576e-08
-9.77452e-09
1.7098e-06
-6.17055e-09
9.00263e-08
-9.89972e-09
1.72459e-06
-6.12262e-09
8.82326e-08
-1.07231e-08
1.65924e-06
-6.20847e-09
8.0588e-08
-1.19241e-08
1.53349e-06
-6.26648e-09
6.77126e-08
-1.34306e-08
1.36163e-06
-6.2283e-09
5.06435e-08
-1.52141e-08
1.14918e-06
-6.08184e-09
2.94799e-08
-1.72232e-08
8.80891e-07
-5.09569e-09
-1.90396e-08
4.57208e-07
-2.49227e-09
9.87867e-08
-2.23618e-08
2.42325e-06
1.03053e-07
-2.45709e-08
2.32183e-06
1.00813e-07
-2.78051e-08
2.14969e-06
9.20871e-08
-3.14533e-08
1.92444e-06
7.73966e-08
-3.52818e-08
1.65967e-06
5.75537e-08
-3.90618e-08
1.35994e-06
3.29362e-08
-4.24715e-08
1.00568e-06
-4.40081e-08
4.75851e-07
1.16693e-07
-2.93615e-08
3.02144e-06
1.19979e-07
-3.48442e-08
2.84481e-06
1.16221e-07
-4.12548e-08
2.60049e-06
1.05331e-07
-4.79357e-08
2.30832e-06
8.77977e-08
-5.45063e-08
1.98207e-06
6.45415e-08
-6.06313e-08
1.62541e-06
3.6308e-08
-6.58456e-08
1.21499e-06
-6.80729e-08
6.12289e-07
1.32463e-07
-3.15021e-08
3.39174e-06
1.34813e-07
-4.02253e-08
3.19945e-06
1.29673e-07
-4.94884e-08
2.94001e-06
1.16905e-07
-5.89079e-08
2.63399e-06
9.69954e-08
-6.79473e-08
2.29521e-06
7.09004e-08
-7.61579e-08
1.92676e-06
3.95395e-08
-8.29651e-08
1.50282e-06
-8.59204e-08
8.73187e-07
1.4018e-07
-3.22957e-08
3.43894e-06
1.42345e-07
-4.2465e-08
3.303e-06
1.36648e-07
-5.31662e-08
3.09673e-06
1.22987e-07
-6.40729e-08
2.84007e-06
1.01804e-07
-7.44682e-08
2.5465e-06
7.40245e-08
-8.37957e-08
2.21884e-06
4.06785e-08
-9.14319e-08
1.83055e-06
-9.49932e-08
1.2269e-06
1.38181e-07
-3.35227e-08
3.12687e-06
1.40004e-07
-4.32421e-08
3.11403e-06
1.34394e-07
-5.38508e-08
3.02403e-06
1.21036e-07
-6.4682e-08
2.87495e-06
1.00243e-07
-7.50333e-08
2.68019e-06
7.28565e-08
-8.43714e-08
2.44286e-06
3.98391e-08
-9.20334e-08
2.13771e-06
-9.53783e-08
1.61384e-06
1.29106e-07
2.48699e-06
-3.78856e-08
1.31469e-07
2.6457e-06
-4.49313e-08
1.26172e-07
2.71218e-06
-5.29309e-08
1.1307e-07
2.70874e-06
-6.15704e-08
9.27151e-08
2.64951e-06
-7.02861e-08
6.61242e-08
2.53811e-06
-7.86256e-08
3.47846e-08
2.35161e-06
-8.62016e-08
1.94865e-06
-9.13422e-08
7.96119e-08
-1.33775e-08
1.71434e-06
-4.33093e-09
8.62999e-08
-1.46203e-08
1.73689e-06
-4.60061e-09
8.57527e-08
-1.5766e-08
1.6804e-06
-5.04876e-09
7.75231e-08
-1.70522e-08
1.56405e-06
-5.42117e-09
6.19889e-08
-1.85555e-08
1.40135e-06
-5.71767e-09
4.08015e-08
-2.04485e-08
1.19679e-06
-6.0106e-09
1.82479e-08
-2.2934e-08
9.32314e-07
-5.90298e-09
-2.57165e-08
5.05422e-07
-4.19046e-09
8.76255e-08
-2.74812e-08
2.42146e-06
9.63576e-08
-3.18589e-08
2.33013e-06
9.69281e-08
-3.58559e-08
2.1691e-06
8.88945e-08
-3.9929e-08
1.95528e-06
7.26923e-08
-4.41272e-08
1.70142e-06
4.97473e-08
-4.85202e-08
1.41094e-06
2.41222e-08
-5.31484e-08
1.06151e-06
-5.71722e-08
5.31465e-07
9.95178e-08
-3.53688e-08
3.01227e-06
1.08608e-07
-4.31645e-08
2.84691e-06
1.08858e-07
-5.0668e-08
2.615e-06
9.9766e-08
-5.79708e-08
2.33544e-06
8.16781e-08
-6.50188e-08
2.02105e-06
5.59861e-08
-7.17638e-08
1.67435e-06
2.66813e-08
-7.80963e-08
1.26923e-06
-8.27115e-08
6.64469e-07
1.09659e-07
-3.6999e-08
3.37669e-06
1.18148e-07
-4.76786e-08
3.19545e-06
1.17461e-07
-5.82884e-08
2.94831e-06
1.07086e-07
-6.8417e-08
2.65481e-06
8.73152e-08
-7.78231e-08
2.32777e-06
5.94435e-08
-8.63125e-08
1.96914e-06
2.71185e-08
-9.35848e-08
1.5506e-06
-9.76087e-08
9.15131e-07
1.12019e-07
-3.57695e-08
3.42142e-06
1.2002e-07
-4.76085e-08
3.29493e-06
1.18784e-07
-5.97372e-08
3.09944e-06
1.07827e-07
-7.12604e-08
2.85386e-06
8.74964e-08
-8.17606e-08
2.57073e-06
5.90607e-08
-9.09273e-08
2.25183e-06
2.58771e-08
-9.83433e-08
1.86844e-06
-1.01639e-07
1.25671e-06
1.05451e-07
-3.39622e-08
3.1108e-06
1.12499e-07
-4.54935e-08
3.10487e-06
1.11043e-07
-5.73833e-08
3.02313e-06
1.00487e-07
-6.86173e-08
2.88281e-06
8.12142e-08
-7.87907e-08
2.69642e-06
5.45115e-08
-8.76062e-08
2.46616e-06
2.34857e-08
-9.45669e-08
2.1649e-06
-9.7182e-08
1.63277e-06
9.4807e-08
2.47548e-06
-3.32777e-08
9.98406e-08
2.638e-06
-4.28593e-08
9.73802e-08
2.70979e-06
-5.25754e-08
8.69173e-08
2.71241e-06
-6.18954e-08
6.89012e-08
2.65919e-06
-7.05937e-08
4.47267e-08
2.55303e-06
-7.84634e-08
1.74949e-08
2.36905e-06
-8.53753e-08
1.95882e-06
-8.99123e-08
9.25973e-08
-1.85582e-08
1.71461e-06
-6.93275e-10
1.04123e-07
-2.01297e-08
1.74577e-06
-2.35994e-10
1.05601e-07
-2.10325e-08
1.69964e-06
3.01385e-10
9.67636e-08
-2.19836e-08
1.59356e-06
1.24832e-09
7.88896e-08
-2.30188e-08
1.43961e-06
2.57584e-09
5.42383e-08
-2.42232e-08
1.2413e-06
4.35643e-09
2.19995e-08
-2.5474e-08
9.82763e-07
7.33196e-09
-2.58986e-08
5.3944e-07
1.40033e-08
1.03653e-07
-3.58647e-08
2.41494e-06
1.17854e-07
-4.03291e-08
2.33611e-06
1.20207e-07
-4.33901e-08
2.18908e-06
1.10265e-07
-4.60561e-08
1.98928e-06
8.90643e-08
-4.83875e-08
1.74799e-06
5.87253e-08
-5.0256e-08
1.46734e-06
1.94866e-08
-5.09857e-08
1.1263e-06
-4.74159e-08
5.7249e-07
1.14183e-07
-4.6779e-08
2.99618e-06
1.30161e-07
-5.47343e-08
2.84529e-06
1.33602e-07
-6.11727e-08
2.62929e-06
1.23861e-07
-6.66738e-08
2.36575e-06
1.0169e-07
-7.1294e-08
2.06606e-06
6.92056e-08
-7.48367e-08
1.73133e-06
2.68588e-08
-7.64073e-08
1.33696e-06
-7.14241e-08
7.15238e-07
1.21486e-07
-4.97793e-08
3.35185e-06
1.37997e-07
-6.06321e-08
3.18481e-06
1.42199e-07
-7.03738e-08
2.95323e-06
1.33583e-07
-7.87493e-08
2.67538e-06
1.12848e-07
-8.5781e-08
2.36283e-06
8.19418e-08
-9.13381e-08
2.01638e-06
4.05274e-08
-9.46626e-08
1.61012e-06
-9.10968e-08
9.75193e-07
1.20004e-07
-4.78852e-08
3.39194e-06
1.36462e-07
-5.95268e-08
3.27728e-06
1.41306e-07
-7.08308e-08
3.09494e-06
1.34362e-07
-8.07084e-08
2.86261e-06
1.16515e-07
-8.91241e-08
2.59178e-06
8.94672e-08
-9.60133e-08
2.28342e-06
5.19458e-08
-1.00943e-07
1.9121e-06
-1.00151e-07
1.31766e-06
1.10204e-07
-4.3341e-08
3.08228e-06
1.25364e-07
-5.42204e-08
3.08433e-06
1.30503e-07
-6.49978e-08
3.01206e-06
1.25458e-07
-7.44937e-08
2.88147e-06
1.11112e-07
-8.27276e-08
2.70422e-06
8.87946e-08
-8.96898e-08
2.482e-06
5.64051e-08
-9.49744e-08
2.19125e-06
-9.66524e-08
1.68577e-06
9.55522e-08
2.45264e-06
-3.71952e-08
1.07469e-07
2.6184e-06
-4.6616e-08
1.11862e-07
2.69551e-06
-5.51722e-08
1.08295e-07
2.70408e-06
-6.26576e-08
9.72558e-08
2.65663e-06
-6.92971e-08
7.95727e-08
2.55608e-06
-7.51738e-08
5.30204e-08
2.38008e-06
-8.00879e-08
1.99736e-06
-8.20833e-08
2.8939e-07
-4.06641e-08
1.70892e-06
-1.16884e-08
3.37753e-07
-4.23007e-08
1.75123e-06
-1.14085e-08
3.70846e-07
-4.30968e-08
1.72082e-06
-1.10996e-08
3.82731e-07
-4.39122e-08
1.63635e-06
-1.07143e-08
3.6865e-07
-4.5146e-08
1.50935e-06
-1.04715e-08
3.26016e-07
-4.7127e-08
1.34178e-06
-1.06645e-08
2.46403e-07
-5.00197e-08
1.12408e-06
-1.1594e-08
-5.20735e-08
8.52044e-07
-1.40348e-08
3.02545e-07
-7.86698e-08
2.39132e-06
3.54551e-07
-8.31109e-08
2.32497e-06
3.92153e-07
-8.67782e-08
2.19515e-06
4.09642e-07
-9.05274e-08
2.01844e-06
4.0188e-07
-9.49467e-08
1.80564e-06
3.65166e-07
-1.00599e-07
1.55764e-06
2.85861e-07
-1.08064e-07
1.26379e-06
-1.15715e-07
9.21982e-07
3.11884e-07
-9.94531e-08
2.9553e-06
3.63825e-07
-1.06565e-07
2.81679e-06
4.01607e-07
-1.13017e-07
2.61772e-06
4.19654e-07
-1.19427e-07
2.37659e-06
4.12671e-07
-1.26331e-07
2.10442e-06
3.76654e-07
-1.3437e-07
1.80114e-06
2.97237e-07
-1.44431e-07
1.45283e-06
-1.56162e-07
1.05292e-06
3.13784e-07
-1.04157e-07
3.29926e-06
3.60962e-07
-1.12587e-07
3.14364e-06
3.94066e-07
-1.20578e-07
2.92763e-06
4.07789e-07
-1.2828e-07
2.67045e-06
3.96922e-07
-1.36131e-07
2.38345e-06
3.57652e-07
-1.44803e-07
2.06606e-06
2.78857e-07
-1.55325e-07
1.69981e-06
-1.68469e-07
1.26639e-06
3.04641e-07
-9.86881e-08
3.33641e-06
3.44109e-07
-1.06175e-07
3.23134e-06
3.69743e-07
-1.13797e-07
3.06245e-06
3.76603e-07
-1.21033e-07
2.84846e-06
3.597e-07
-1.28157e-07
2.60074e-06
3.15561e-07
-1.35792e-07
2.31864e-06
2.38394e-07
-1.44938e-07
1.97895e-06
-1.56414e-07
1.54413e-06
2.84461e-07
-9.02793e-08
3.03378e-06
3.15119e-07
-9.54463e-08
3.04292e-06
3.32863e-07
-1.01132e-07
2.98162e-06
3.32766e-07
-1.06516e-07
2.86703e-06
3.10032e-07
-1.11841e-07
2.71067e-06
2.61621e-07
-1.17516e-07
2.51222e-06
1.87435e-07
-1.24482e-07
2.24514e-06
-1.33447e-07
1.85039e-06
2.54621e-07
2.4189e-06
-8.5541e-08
2.7748e-07
2.58831e-06
-8.81687e-08
2.88933e-07
2.67318e-06
-9.01766e-08
2.83968e-07
2.69472e-06
-9.20854e-08
2.57824e-07
2.66544e-06
-9.43735e-08
2.07716e-07
2.58498e-06
-9.75273e-08
1.38107e-07
2.42689e-06
-1.02195e-07
2.11e-06
-1.07899e-07
5.51089e-07
-6.18875e-08
-1.44819e-08
1.65912e-06
6.6783e-07
-6.04398e-08
-1.07206e-08
1.7055e-06
7.64044e-07
-6.06784e-08
-5.95149e-09
1.6912e-06
8.25649e-07
-6.16187e-08
-3.40075e-11
1.6364e-06
8.29865e-07
-6.29418e-08
8.05374e-09
1.56005e-06
7.39245e-07
-6.42863e-08
1.81304e-08
1.47855e-06
4.91269e-07
-6.4506e-08
3.16174e-08
1.40493e-06
-5.97778e-08
5.11779e-08
1.3518e-06
5.85141e-07
-1.22716e-07
2.32372e-06
7.05682e-07
-1.19714e-07
2.26365e-06
8.06831e-07
-1.18282e-07
2.15154e-06
8.72621e-07
-1.16431e-07
2.00743e-06
8.77955e-07
-1.13474e-07
1.8508e-06
7.81598e-07
-1.08475e-07
1.69812e-06
5.19671e-07
-9.94284e-08
1.56055e-06
-7.84829e-08
1.46028e-06
5.97574e-07
-1.5753e-07
2.8703e-06
7.13704e-07
-1.55347e-07
2.73641e-06
8.13323e-07
-1.52942e-07
2.55287e-06
8.80032e-07
-1.48923e-07
2.34247e-06
8.88183e-07
-1.42395e-07
2.12527e-06
7.94749e-07
-1.31991e-07
1.91816e-06
5.31328e-07
-1.1483e-07
1.73167e-06
-8.11508e-08
1.58697e-06
5.94485e-07
-1.67138e-07
3.20224e-06
6.99466e-07
-1.65169e-07
3.04861e-06
7.9049e-07
-1.60756e-07
2.84457e-06
8.52179e-07
-1.53628e-07
2.61361e-06
8.60681e-07
-1.43078e-07
2.37576e-06
7.7396e-07
-1.2781e-07
2.14872e-06
5.1889e-07
-1.04785e-07
1.9449e-06
-6.55929e-08
1.76977e-06
5.73754e-07
-1.58108e-07
3.23603e-06
6.6378e-07
-1.5417e-07
3.13042e-06
7.41994e-07
-1.46549e-07
2.97014e-06
7.95275e-07
-1.35835e-07
2.77753e-06
8.03067e-07
-1.21713e-07
2.57173e-06
7.26726e-07
-1.03459e-07
2.37078e-06
4.88537e-07
-7.88005e-08
2.19129e-06
-4.16291e-08
2.0087e-06
5.38475e-07
-1.40877e-07
2.93978e-06
6.13959e-07
-1.32551e-07
2.9458e-06
6.79879e-07
-1.21017e-07
2.89018e-06
7.25408e-07
-1.06832e-07
2.79261e-06
7.33388e-07
-9.01197e-08
2.6712e-06
6.70577e-07
-7.06581e-08
2.54235e-06
4.62327e-07
-4.77139e-08
2.42242e-06
-1.69902e-08
2.28796e-06
4.77499e-07
-1.26625e-07
2.33937e-06
5.42958e-07
-1.10828e-07
2.50104e-06
6.01757e-07
-9.38299e-08
2.58713e-06
6.46003e-07
-7.57652e-08
2.61941e-06
6.61444e-07
-5.59984e-08
2.61589e-06
6.18179e-07
-3.35447e-08
2.59036e-06
4.42811e-07
-7.42947e-09
2.56244e-06
2.72773e-08
2.50848e-06
2.45677e-07
-6.08815e-09
4.45397e-06
1.44198e-08
2.52721e-07
-7.15087e-09
6.26062e-06
1.53986e-08
2.434e-07
-1.88421e-08
6.69045e-06
1.73415e-08
2.21491e-07
-2.94005e-08
6.96593e-06
2.33529e-08
1.8599e-07
-4.03979e-08
7.15904e-06
3.20463e-08
1.35795e-07
-5.00849e-08
7.26524e-06
4.16834e-08
7.2252e-08
-6.05589e-08
7.22681e-06
5.17613e-08
-7.39279e-08
6.72308e-06
6.18258e-08
3.49303e-07
-6.70368e-09
3.85212e-06
4.94769e-07
1.34461e-08
6.75794e-06
4.70568e-07
8.31825e-09
8.43836e-06
4.23484e-07
-5.62498e-09
8.51535e-06
3.54051e-07
-1.64986e-08
8.54339e-06
2.61678e-07
-2.21868e-08
8.50859e-06
1.44452e-07
-2.45941e-08
8.33851e-06
-2.53324e-08
7.66161e-06
3.14017e-07
8.20602e-09
3.86919e-06
5.51827e-07
2.16856e-08
6.98569e-06
5.52416e-07
2.7928e-08
9.31757e-06
5.07075e-07
2.29794e-08
9.27764e-06
4.26421e-07
2.13587e-08
9.18738e-06
3.14466e-07
2.60284e-08
9.05093e-06
1.72254e-07
3.57821e-08
8.78811e-06
4.92508e-08
7.999e-06
3.07264e-07
1.65822e-08
3.91933e-06
4.95356e-07
3.28417e-08
7.24709e-06
4.96177e-07
4.57584e-08
9.05864e-06
4.57736e-07
5.00088e-08
8.98934e-06
3.85754e-07
5.83484e-08
8.88383e-06
2.84739e-07
7.21646e-08
8.72914e-06
1.56566e-07
9.12392e-08
8.4505e-06
1.15501e-07
7.65873e-06
2.69201e-07
3.36559e-08
5.36275e-06
3.18616e-07
4.41186e-08
7.52133e-06
3.22556e-07
5.23461e-08
7.7903e-06
2.99105e-07
6.36057e-08
7.81242e-06
2.51575e-07
7.81609e-08
7.77417e-06
1.83631e-07
9.61325e-08
7.67152e-06
9.82114e-08
1.17354e-07
7.44228e-06
1.40616e-07
6.74605e-06
1.48663e-07
3.90726e-08
5.35885e-06
1.66735e-07
4.20697e-08
5.86729e-06
1.69721e-07
5.23e-08
6.07517e-06
1.577e-07
6.61186e-08
6.19045e-06
1.32012e-07
8.1944e-08
6.23265e-06
9.49991e-08
9.91498e-08
6.20201e-06
4.95743e-08
1.17078e-07
6.04942e-06
1.33873e-07
5.4984e-06
9.34088e-08
3.71613e-06
3.20917e-08
1.00076e-07
4.08201e-06
4.03004e-08
9.90406e-08
4.34426e-06
5.13253e-08
9.0838e-08
4.51914e-06
6.44901e-08
7.60014e-08
4.62079e-06
7.85748e-08
5.54715e-08
4.64987e-06
9.305e-08
3.00388e-08
4.57013e-06
1.07663e-07
4.16525e-06
1.21367e-07
2.00212e-07
9.61848e-09
4.47196e-06
9.55779e-10
1.94823e-07
1.08655e-08
6.26016e-06
-4.90595e-09
1.81758e-07
-6.86008e-09
6.70742e-06
2.91005e-09
1.68753e-07
-2.77229e-08
6.99431e-06
1.22593e-08
1.45176e-07
-3.97991e-08
7.19879e-06
2.36026e-08
1.07538e-07
-4.77247e-08
7.3164e-06
3.4171e-08
5.72927e-08
-5.67357e-08
7.2891e-06
4.46132e-08
-6.92385e-08
6.79436e-06
5.51155e-08
3.74673e-07
2.43249e-08
4.36185e-06
4.72822e-07
4.1171e-08
6.78244e-06
4.30392e-07
1.97966e-08
8.45238e-06
3.78949e-07
-7.8424e-09
8.5469e-06
3.14216e-07
-2.10858e-08
8.58935e-06
2.31624e-07
-2.45553e-08
8.56794e-06
1.27469e-07
-2.47973e-08
8.41068e-06
-2.43915e-08
7.74418e-06
3.60727e-07
5.69093e-08
5.12869e-06
5.23867e-07
4.77968e-08
7.11888e-06
5.09797e-07
3.15382e-08
9.30112e-06
4.5629e-07
1.59758e-08
9.30733e-06
3.77898e-07
1.2439e-08
9.23222e-06
2.76308e-07
1.82082e-08
9.1097e-06
1.50301e-07
2.89366e-08
8.86029e-06
4.24482e-08
8.08243e-06
2.88382e-07
3.1007e-08
4.12701e-06
4.59437e-07
3.63858e-08
7.33592e-06
4.48361e-07
3.72135e-08
9.0639e-06
4.05731e-07
3.69753e-08
9.01092e-06
3.37868e-07
4.4756e-08
8.91933e-06
2.47882e-07
5.90801e-08
8.77822e-06
1.35663e-07
7.84808e-08
8.51312e-06
1.02738e-07
7.73129e-06
2.29206e-07
2.99896e-08
5.52138e-06
2.72145e-07
2.92027e-08
7.52039e-06
2.72923e-07
3.52176e-08
7.79148e-06
2.50769e-07
4.65373e-08
7.82497e-06
2.09663e-07
6.17329e-08
7.79823e-06
1.52277e-07
8.02487e-08
7.70767e-06
8.08505e-08
1.01587e-07
7.49008e-06
1.24833e-07
6.80478e-06
1.27204e-07
2.59251e-08
5.37224e-06
1.3858e-07
2.59661e-08
5.85942e-06
1.38384e-07
3.64257e-08
6.07411e-06
1.27038e-07
5.10843e-08
6.19722e-06
1.05258e-07
6.75458e-08
6.2486e-06
7.47924e-08
8.50366e-08
6.22764e-06
3.82667e-08
1.02931e-07
6.08471e-06
1.19666e-07
5.54197e-06
7.89894e-08
3.70824e-06
2.1481e-08
8.07692e-08
4.07701e-06
2.90755e-08
7.72413e-08
4.34359e-06
4.05704e-08
6.90305e-08
4.52436e-06
5.40356e-08
5.64896e-08
4.63278e-06
6.80592e-08
4.0369e-08
4.66884e-06
8.21493e-08
2.13633e-08
4.59593e-06
9.61373e-08
4.19711e-06
1.09143e-07
1.22091e-07
2.46315e-08
4.45427e-06
-2.86486e-08
1.19751e-07
2.0002e-08
6.26351e-06
-2.76673e-08
1.19149e-07
5.02207e-10
6.72196e-06
-1.43229e-08
1.1799e-07
-1.82559e-08
7.01301e-06
8.11186e-10
1.05036e-07
-2.67622e-08
7.2254e-06
1.31356e-08
7.8401e-08
-3.39671e-08
7.35295e-06
2.4083e-08
4.09764e-08
-4.361e-08
7.33525e-06
3.4915e-08
-5.74469e-08
6.84642e-06
4.63621e-08
3.05795e-07
4.63492e-08
4.7375e-06
3.22595e-07
3.36873e-08
6.75977e-06
2.99221e-07
3.14985e-09
8.47061e-06
2.70705e-07
-1.32831e-08
8.57055e-06
2.31461e-07
-1.77113e-08
8.61952e-06
1.74498e-07
-1.76132e-08
8.60846e-06
9.69935e-08
-1.75403e-08
8.462e-06
-1.89458e-08
7.80262e-06
2.2598e-07
2.33784e-08
5.15785e-06
2.94043e-07
-1.68649e-09
7.07086e-06
3.02217e-07
-1.56756e-08
9.31537e-06
2.85057e-07
-1.40414e-08
9.32534e-06
2.49068e-07
-4.91401e-09
9.25547e-06
1.90037e-07
7.16714e-09
9.144e-06
1.06545e-07
1.96349e-08