/*--------------------------------*- C++ -*----------------------------------*\
| =========                 |                                                 |
| \\      /  F ield         | OpenFOAM: The Open Source CFD Toolbox           |
|  \\    /   O peration     | Version:  plus.master.MPPICInterFoam            |
|   \\  /    A nd           | Web:      www.OpenFOAM.com                      |
|    \\/     M anipulation  |                                                 |
\*---------------------------------------------------------------------------*/
FoamFile
{
    version     2.0;
    format      ascii;
    class       volScalarField;
    location    "12";
    object      nut;
}
// * * * * * * * * * * * * * * * * * * * * * * * * * * * * * * * * * * * * * //

dimensions      [0 2 -1 0 0 0 0];

internalField   nonuniform List<scalar> 
11822
(
0.000824285
0.000861749
0.000879126
0.000878666
0.000861937
0.000830876
0.000785999
0.000874213
0.000916165
0.000933275
0.000929528
0.000908734
0.000874169
0.000827846
0.000905187
0.000959394
0.000981389
0.000970931
0.000943463
0.000904101
0.000854811
0.000921539
0.000988918
0.00101688
0.000998011
0.000963205
0.000919026
0.000867092
0.000904739
0.000959795
0.000984532
0.000993408
0.000962168
0.000916601
0.000863744
0.000865509
0.000924935
0.000957663
0.000962671
0.000937249
0.000895211
0.000843898
0.000823016
0.000874104
0.000906884
0.000910401
0.000892081
0.000856129
0.000806684
0.000833402
0.00087105
0.000888157
0.000886977
0.00086932
0.000837302
0.000791474
0.000885613
0.000927316
0.000944201
0.000939368
0.000917284
0.000881492
0.000834044
0.000919565
0.00097221
0.00099494
0.000982352
0.000953134
0.000912253
0.000861625
0.000936605
0.000999905
0.00103354
0.00101117
0.000973829
0.000927845
0.000874384
0.000909146
0.000982982
0.00101492
0.00101063
0.000973886
0.000925919
0.000871315
0.000888714
0.000943262
0.000979157
0.000978226
0.000948922
0.000904505
0.000851416
0.000836615
0.000892094
0.000921338
0.000924235
0.000902966
0.000864882
0.000813756
0.000840092
0.000877517
0.00089403
0.00089248
0.00087445
0.000841989
0.000795688
0.000894337
0.000935036
0.000950129
0.000944986
0.000922719
0.000886538
0.000838585
0.000933162
0.000980741
0.000996767
0.000987115
0.000958638
0.00091757
0.000866436
0.000951285
0.00100354
0.0010237
0.00101316
0.000979343
0.000933401
0.000879418
0.000973309
0.00100289
0.00102872
0.00101807
0.000981024
0.000932008
0.000876569
0.000903278
0.000960178
0.000992958
0.000990508
0.000956989
0.000910867
0.000856735
0.00085735
0.000914197
0.000937624
0.000934999
0.000910749
0.000871047
0.000818875
0.000844043
0.000881157
0.000897469
0.000895843
0.000877787
0.000845334
0.000799102
0.000897724
0.000937529
0.000952615
0.000947662
0.000925695
0.000889676
0.000841867
0.000934889
0.000978817
0.000997557
0.000988902
0.000961064
0.000920493
0.000869625
0.000945654
0.000980579
0.00101128
0.00101409
0.00098133
0.000936147
0.000882549
0.000936616
0.000975371
0.00101886
0.00101805
0.000982772
0.000934729
0.000879707
0.000924108
0.000959239
0.000997356
0.000993112
0.000959594
0.000913876
0.000859983
0.000861884
0.000914063
0.000939692
0.000938242
0.000913813
0.00087433
0.000822253
0.000848344
0.000885625
0.000902451
0.000901448
0.00088422
0.000853
0.000808553
0.000898572
0.000939103
0.000955291
0.000951763
0.000930916
0.000896123
0.000849961
0.000930329
0.000977401
0.000997467
0.000990542
0.000964991
0.000925954
0.000876716
0.000944019
0.000988887
0.00100978
0.00101234
0.000983662
0.000940782
0.000888941
0.000918917
0.00097001
0.00100471
0.00100769
0.000982945
0.000938599
0.000885646
0.000911844
0.000947818
0.000987193
0.00098434
0.000959896
0.000917726
0.000865835
0.000852821
0.000899311
0.000935896
0.000933806
0.000915469
0.000878707
0.000828356
0.000859628
0.000897477
0.0009155
0.000916162
0.000901804
0.000875236
0.000837558
0.000907158
0.000948586
0.000966455
0.000964085
0.000945253
0.000914239
0.000874071
0.000935151
0.000990862
0.0010135
0.00100307
0.000977634
0.000941477
0.000897457
0.000951378
0.00101238
0.00105261
0.00102782
0.000995457
0.000954823
0.000907571
0.000926218
0.00097221
0.00102643
0.00102466
0.000994004
0.000951716
0.000903114
0.000886171
0.000952242
0.00098937
0.000992683
0.000969647
0.000930419
0.00088295
0.000837504
0.000899011
0.000930959
0.000940729
0.000925232
0.000891812
0.000846034
0.000732789
0.00068071
0.000618097
0.000542262
0.000448591
0.00032998
0.000177749
1.85446e-05
0.000773176
0.000718408
0.000654685
0.000578047
0.000482775
0.000360068
0.000198079
2.10072e-05
0.000799029
0.000743199
0.000678642
0.000601279
0.000504827
0.00037943
0.000211221
2.28047e-05
0.000810536
0.000754149
0.000689099
0.000611258
0.000514134
0.00038745
0.000216548
2.37093e-05
0.000806739
0.000750346
0.000685262
0.000607312
0.000510077
0.000383483
0.000213457
2.35785e-05
0.000787345
0.000731737
0.00066714
0.000589455
0.000492698
0.000367655
0.000202153
2.2427e-05
0.000751749
0.000698794
0.000635228
0.000558082
0.000462351
0.000340365
0.000183123
2.03973e-05
0.000737396
0.000684529
0.000621087
0.000544377
0.000449801
0.000330328
0.000177505
1.85479e-05
0.000778385
0.000722723
0.000658096
0.000580517
0.00048426
0.00036058
0.000197859
2.10081e-05
0.000804721
0.000747915
0.000682389
0.000604023
0.000506517
0.000380063
0.00021103
2.28029e-05
0.000816589
0.000759156
0.000693079
0.000614181
0.00051595
0.000388155
0.000216387
2.37042e-05
0.000812983
0.000755504
0.000689349
0.000610301
0.000511924
0.000384201
0.000213317
2.35703e-05
0.000793534
0.000736848
0.000671172
0.00059237
0.000494462
0.000368313
0.000202017
2.24165e-05
0.000757562
0.000703624
0.00063901
0.000560752
0.000463886
0.000340854
0.000182945
2.03851e-05
0.000741178
0.000687876
0.00062393
0.000546616
0.000451321
0.000331082
0.000177686
1.854e-05
0.000782457
0.000726333
0.000661197
0.000583011
0.000486006
0.00036148
0.000198071
2.10034e-05
0.00080901
0.000751704
0.000685643
0.00060665
0.000508372
0.000381025
0.000211228
2.27941e-05
0.00082104
0.000763063
0.000696411
0.000616848
0.000517818
0.000389106
0.000216542
2.36864e-05
0.000817543
0.000759466
0.000692686
0.000612931
0.000513727
0.000385086
0.000213418
2.35453e-05
0.000798088
0.000740771
0.000674429
0.000594884
0.000496134
0.000369092
0.000202067
2.23894e-05
0.000761925
0.000707375
0.000642073
0.000563047
0.000465342
0.000341471
0.000182939
2.03601e-05
0.000744724
0.000691411
0.00062731
0.000549586
0.000453541
0.000332211
0.000177558
1.85996e-05
0.000785943
0.000729898
0.000664719
0.00058623
0.000488531
0.000362872
0.000198037
2.10552e-05
0.000812418
0.000755223
0.000689166
0.000609938
0.000511029
0.000382566
0.00021129
2.28493e-05
0.000824399
0.000766536
0.000699882
0.000620095
0.000520468
0.000390692
0.000216691
2.37527e-05
0.000820895
0.000762906
0.000696081
0.000616065
0.00051627
0.00038663
0.000213641
2.36178e-05
0.000801474
0.000744179
0.000677716
0.00059785
0.000498502
0.000370538
0.000202349
2.24579e-05
0.000765331
0.000710706
0.00064519
0.000565774
0.000467467
0.00034277
0.000183259
2.04174e-05
0.000756146
0.000704395
0.000641459
0.000563927
0.000466557
0.000342211
0.000183501
1.92968e-05
0.00079607
0.000741963
0.000678483
0.000600812
0.000502287
0.000373699
0.000204448
2.19037e-05
0.000821439
0.000766187
0.000701983
0.000623887
0.000524531
0.000393391
0.000217655
2.37195e-05
0.000832606
0.000776514
0.000711572
0.000632894
0.000532972
0.000400805
0.000222578
2.45097e-05
0.000828572
0.000772099
0.00070666
0.000627475
0.000527309
0.000395515
0.000218732
2.41858e-05
0.000808885
0.000752766
0.000687254
0.000607802
0.000507878
0.000377943
0.000206477
2.28299e-05
0.000772704
0.000718811
0.000653765
0.000574331
0.000475235
0.000348735
0.000186459
2.06378e-05
0.000792747
0.000747167
0.00068939
0.00061418
0.000513892
0.000378512
0.000199608
2.31649e-05
0.000827871
0.000781251
0.000724687
0.00065144
0.000552041
0.000413578
0.000223018
2.63322e-05
0.000849354
0.000801725
0.000745113
0.00067261
0.000573855
0.000434149
0.000237235
2.84059e-05
0.000857754
0.000808798
0.000751252
0.000678399
0.000579803
0.0004402
0.000241779
2.90749e-05
0.000852013
0.000801842
0.000742949
0.000668971
0.000570045
0.00043156
0.000236194
2.82516e-05
0.000831522
0.00078061
0.000720323
0.000644841
0.000545475
0.000409315
0.000221392
2.61413e-05
0.000795316
0.000745128
0.000683614
0.000606514
0.000506893
0.000374395
0.000198093
2.31239e-05
0.000771302
0.000724322
0.000665148
0.000589692
0.000492603
0.000364721
0.000196656
2.60309e-05
0.000811611
0.00076169
0.000702317
0.000627907
0.000530914
0.00040009
0.000221187
2.96956e-05
0.000839179
0.000787311
0.000726891
0.000651702
0.000554073
0.000421413
0.00023635
3.18532e-05
0.000854384
0.000797032
0.00073439
0.000658315
0.000560047
0.000426777
0.000240279
3.20636e-05
0.000844786
0.000789054
0.000725435
0.00064777
0.000548791
0.000416055
0.000232699
3.03105e-05
0.000818468
0.000762902
0.000698423
0.000620191
0.000521371
0.000390993
0.000215337
2.70908e-05
0.000772262
0.000719597
0.000655727
0.000577654
0.000479845
0.000353776
0.000190146
2.3025e-05
0.000782952
0.000732577
0.00067101
0.000593528
0.000494515
0.000364948
0.000195983
2.59938e-05
0.000824986
0.000773125
0.00070988
0.000632797
0.000533415
0.00040048
0.000220375
2.9636e-05
0.000855079
0.000801978
0.000735633
0.00065727
0.00055697
0.000421927
0.000235456
3.17757e-05
0.000867391
0.000807748
0.000742348
0.000663894
0.00056322
0.000427625
0.000239603
3.19989e-05
0.00085751
0.000798864
0.000732983
0.000653211
0.000552053
0.000417166
0.000232317
3.02679e-05
0.000828581
0.000771221
0.000705043
0.000625051
0.000524353
0.000392122
0.000215169
2.70713e-05
0.000780335
0.000726354
0.000661113
0.000581546
0.000482156
0.000354597
0.000190004
2.30149e-05
0.00079549
0.00073966
0.000675765
0.000596609
0.000496104
0.000365198
0.000195429
2.59607e-05
0.000851553
0.000784853
0.000716006
0.000636431
0.000535128
0.000400561
0.000219523
2.95748e-05
0.000889612
0.000814153
0.000741798
0.000661024
0.000558755
0.000421949
0.000234445
3.16966e-05
0.000884174
0.00081746
0.000748405
0.000667968
0.000565447
0.000428077
0.000238865
3.19359e-05
0.000868149
0.00080641
0.000738745
0.000657375
0.000554566
0.000418004
0.000231932
3.02299e-05
0.000836292
0.000777615
0.000710218
0.000628917
0.000526776
0.000393064
0.000215016
2.70524e-05
0.000786489
0.000731657
0.000665431
0.000584736
0.000484114
0.00035535
0.000189919
2.30034e-05
0.000799544
0.000742665
0.000678559
0.000599071
0.000497963
0.000366174
0.000195453
2.59814e-05
0.000857556
0.000787954
0.000718204
0.000638579
0.000536826
0.00040143
0.000219417
2.95848e-05
0.000886774
0.000815221
0.000743187
0.000663025
0.000560548
0.000422972
0.000234417
3.17099e-05
0.000885324
0.000820629
0.000751225
0.000670749
0.00056775
0.00042948
0.000239079
3.19639e-05
0.00087185
0.000810157
0.000742361
0.000660669
0.000557221
0.000419654
0.000232338
3.02701e-05
0.000840237
0.00078169
0.000714114
0.000632343
0.00052944
0.00039469
0.000215467
2.70961e-05
0.000790646
0.000735732
0.000669162
0.000587901
0.000486513
0.000356801
0.000190351
2.3047e-05
0.000793884
0.000741739
0.000680015
0.000601555
0.000500652
0.000368298
0.000196226
2.60851e-05
0.000846549
0.000781715
0.000717743
0.000640409
0.000539497
0.000403867
0.00022045
2.97218e-05
0.000864716
0.000806712
0.000742742
0.000665167
0.000563695
0.000425958
0.000235844
3.18801e-05
0.000882702
0.000817775
0.000752152
0.000673717
0.000571473
0.000432879
0.000240779
3.2147e-05
0.000868732
0.000811006
0.000745471
0.000664813
0.000561536
0.000423294
0.000234142
3.04431e-05
0.000842692
0.000785752
0.000718914
0.000637341
0.000534132
0.0003984
0.000217268
2.72424e-05
0.000795545
0.00074116
0.000674775
0.000593376
0.000491416
0.000360515
0.000192133
2.316e-05
0.000786039
0.000742215
0.000683644
0.000606892
0.000507128
0.000374614
0.000198587
2.68819e-05
0.000826129
0.000775126
0.000719967
0.000645199
0.000545891
0.000410619
0.000223437
3.06157e-05
0.000864323
0.00080643
0.000747364
0.000671271
0.000571099
0.000433699
0.000239644
3.28838e-05
0.000877324
0.000815681
0.000757728
0.000681196
0.000580244
0.000441831
0.000245389
3.32502e-05
0.00087315
0.000817572
0.0007538
0.000674493
0.000572302
0.000433829
0.000239562
3.16403e-05
0.000851517
0.000795682
0.000730108
0.000649842
0.000547533
0.000410862
0.000223415
2.85275e-05
0.000807445
0.000754325
0.000689431
0.000609397
0.000507956
0.000374982
0.000198828
2.45264e-05
0.000769002
0.000715523
0.000651538
0.000573745
0.00047661
0.000351645
0.000189275
2.23762e-05
0.00080414
0.000747805
0.000682571
0.000604147
0.000506099
0.000378452
0.000208302
2.43694e-05
0.000821623
0.000764602
0.000698841
0.000620098
0.000521644
0.000392824
0.000218913
2.53026e-05
0.000822194
0.000765436
0.000699846
0.000621299
0.000523123
0.000394657
0.000220759
2.50736e-05
0.000806809
0.000750852
0.000685959
0.000608086
0.000510863
0.000384206
0.000213961
2.37325e-05
0.000777218
0.000722452
0.000658574
0.00058165
0.000485927
0.000362498
0.000199374
2.15007e-05
0.000733729
0.000681718
0.000619053
0.000543106
0.000449275
0.000330456
0.000177872
1.86567e-05
0.00077657
0.000721887
0.000656595
0.00057738
0.000478753
0.000352389
0.000189126
2.23633e-05
0.00081195
0.000754373
0.000687848
0.000608036
0.000508511
0.000379426
0.000208248
2.43583e-05
0.000829203
0.000770973
0.000703978
0.000623919
0.000524059
0.000393842
0.000218874
2.52916e-05
0.000829216
0.000771334
0.000704603
0.000624843
0.000525376
0.000395615
0.000220706
2.50627e-05
0.000813101
0.000756128
0.000690202
0.000611239
0.000512874
0.000385103
0.000213982
2.37274e-05
0.000782725
0.000727048
0.000662239
0.000584339
0.000487605
0.000363201
0.000199305
2.15021e-05
0.000738422
0.00068561
0.000622106
0.000545275
0.000450535
0.000330846
0.000177655
1.86629e-05
0.0007823
0.000726844
0.000660654
0.000580389
0.00048062
0.000353138
0.00018908
2.23488e-05
0.000817659
0.000759369
0.000692009
0.000611229
0.000510615
0.000380399
0.000208308
2.43429e-05
0.000834598
0.000775758
0.000708015
0.00062707
0.000526194
0.00039488
0.000218969
2.52733e-05
0.000834262
0.000775809
0.000708395
0.000627833
0.000527435
0.000396642
0.000220813
2.5042e-05
0.000817761
0.000760247
0.0006937
0.00061402
0.000514813
0.0003861
0.000214124
2.3709e-05
0.000786973
0.0007308
0.000665432
0.00058688
0.000489366
0.000364086
0.000199448
2.14872e-05
0.000742242
0.000688978
0.000624958
0.00054751
0.000452039
0.00033157
0.000177789
1.86508e-05
0.000786357
0.000730788
0.000664251
0.000583462
0.000482986
0.0003546
0.000189535
2.23943e-05
0.000821608
0.000763312
0.000695726
0.000614506
0.000513219
0.000382069
0.000208835
2.43981e-05
0.000838379
0.000779588
0.000711686
0.000630369
0.000528865
0.000396608
0.000219468
2.53404e-05
0.000837897
0.000779493
0.00071196
0.000631086
0.000530099
0.000398348
0.000221226
2.5121e-05
0.000821312
0.000763834
0.000697196
0.000617233
0.000517429
0.000387704
0.000214369
2.37941e-05
0.000790508
0.00073436
0.000668902
0.00059004
0.000491876
0.000365537
0.000199536
2.15742e-05
0.000745805
0.000692517
0.000628338
0.000550485
0.000454275
0.000332721
0.000177702
1.87273e-05
0.000791865
0.00073678
0.000670431
0.000589505
0.000488383
0.000358686
0.000191559
2.25065e-05
0.000827373
0.000769766
0.000702574
0.000621396
0.000519586
0.000387042
0.000211383
2.45696e-05
0.000844572
0.000786593
0.000719299
0.000638263
0.000536369
0.000402603
0.000222643
2.56067e-05
0.000844688
0.000787267
0.000720614
0.000640273
0.00053898
0.000405518
0.000225145
2.55111e-05
0.000829039
0.000772796
0.000707311
0.000628027
0.000527809
0.000395964
0.000218898
2.43111e-05
0.000799659
0.000744969
0.000680785
0.000602506
0.000503598
0.000374725
0.00020473
2.2165e-05
0.000756815
0.000704933
0.000641806
0.000564108
0.00046663
0.000342185
0.000183222
1.93387e-05
0.000805574
0.000752324
0.000687966
0.000608676
0.000507958
0.000375468
0.000199314
2.40899e-05
0.000841954
0.000787044
0.000722889
0.000644481
0.000543966
0.000408652
0.000222044
2.67168e-05
0.000860683
0.000806229
0.000743015
0.000665819
0.000565858
0.000428922
0.000235894
2.83792e-05
0.000863258
0.000810364
0.000748841
0.000673142
0.000573912
0.000436241
0.000240474
2.88595e-05
0.000851511
0.000800836
0.000741268
0.000666838
0.000567974
0.000430091
0.000235376
2.80648e-05
0.00082778
0.000779358
0.000721193
0.000647061
0.000547867
0.000410644
0.000221416
2.60421e-05
0.000792104
0.000746073
0.000687908
0.000612534
0.000512371
0.000377348
0.000198837
2.30618e-05
0.000755495
0.00070291
0.000639215
0.000561629
0.000465166
0.000342168
0.000183829
2.09124e-05
0.000803403
0.000747979
0.000683089
0.00060464
0.000506334
0.000378298
0.000207849
2.45962e-05
0.000836479
0.000779836
0.000713942
0.000634662
0.00053501
0.000403561
0.00022479
2.76128e-05
0.000851623
0.000794468
0.000728653
0.000649256
0.000549159
0.000416088
0.000233086
2.94966e-05
0.000845666
0.000789073
0.000724803
0.000646372
0.000546883
0.000414074
0.000231376
2.98599e-05
0.000819448
0.000765847
0.000703262
0.000626121
0.000527745
0.000396772
0.000219007
2.85622e-05
0.000776098
0.000726679
0.000666067
0.000589871
0.000492547
0.000364749
0.000196741
2.5785e-05
0.000761677
0.000708064
0.000643264
0.000564492
0.00046681
0.000342693
0.000183643
2.08971e-05
0.000811037
0.000754388
0.000688216
0.000608381
0.000508602
0.000379156
0.000207702
2.45723e-05
0.000845778
0.000787555
0.000720101
0.000639187
0.000537793
0.000404611
0.000224585
2.75831e-05
0.000862795
0.000803403
0.000735634
0.000654326
0.000552247
0.000417221
0.000232842
2.94564e-05
0.000858318
0.000798651
0.000732101
0.000651553
0.000549936
0.000415074
0.000230976
2.98179e-05
0.000833756
0.000775409
0.000710271
0.000630944
0.000530448
0.000397505
0.000218503
2.85203e-05
0.000787214
0.000734786
0.000672036
0.000593833
0.00049458
0.000365084
0.000196145
2.57473e-05
0.000766286
0.000712019
0.000646469
0.000566856
0.000468262
0.000343238
0.000183525
2.08729e-05
0.000816546
0.000759143
0.000692126
0.000611323
0.000510469
0.000379923
0.000207614
2.4545e-05
0.00085237
0.000793102
0.000724636
0.00064262
0.00053999
0.000405503
0.000224453
2.75535e-05
0.000870797
0.000809643
0.000740596
0.000658027
0.000554582
0.000418128
0.000232665
2.94152e-05
0.00086786
0.000805176
0.000737159
0.000655213
0.000552134
0.000415774
0.000230575
2.97809e-05
0.00084353
0.000781892
0.000715173
0.000634366
0.000532378
0.000397981
0.000217999
2.84785e-05
0.000797001
0.000741359
0.000676739
0.000596935
0.000496195
0.000365354
0.000195611
2.57096e-05
0.000769776
0.000715397
0.000649592
0.000569557
0.00047035
0.000344522
0.000183919
2.09151e-05
0.000820051
0.000762655
0.000695448
0.000614257
0.000512795
0.000381403
0.00020808
2.45825e-05
0.000855745
0.000796621
0.000728079
0.000645743
0.00054252
0.000407146
0.000224976
2.75899e-05
0.000874027
0.000812967
0.00074396
0.000661178
0.000557198
0.000419861
0.000233251
2.94476e-05
0.000871158
0.000808171
0.000740262
0.000658179
0.000554613
0.000417376
0.000231001
2.98133e-05
0.000846381
0.000784472
0.000717963
0.000637045
0.000534575
0.000399314
0.000218244
2.85032e-05
0.000800756
0.000744378
0.00067962
0.000599469
0.000498108
0.000366359
0.000195658
2.57253e-05
0.000776438
0.000722556
0.000657032
0.000576885
0.000476943
0.000349536
0.000186536
2.10707e-05
0.000825343
0.000768633
0.000701828
0.000620685
0.000518734
0.000386046
0.000210444
2.47371e-05
0.000859293
0.000801358
0.000733486
0.000651381
0.00054787
0.000411455
0.000227181
2.77427e-05
0.000874249
0.000815975
0.00074835
0.00066613
0.00056207
0.00042389
0.000235319
2.96012e-05
0.000867716
0.000809061
0.000743432
0.000662378
0.000558969
0.000421038
0.000232822
2.99634e-05
0.000839806
0.000783921
0.000720122
0.000640455
0.000538269
0.0004024
0.000219657
2.86335e-05
0.000796298
0.000744338
0.000681601
0.000602364
0.000501121
0.000368718
0.000196578
2.58229e-05
0.000796292
0.000745243
0.000682552
0.000604445
0.000504366
0.000372215
0.00019688
2.32019e-05
0.000840209
0.000785799
0.000721516
0.000642653
0.000541667
0.000406315
0.000220457
2.67087e-05
0.000870551
0.000814388
0.000748513
0.000668411
0.000566211
0.000428506
0.000236084
2.94846e-05
0.000882555
0.000826084
0.000760071
0.000679479
0.000576647
0.000437819
0.00024268
3.10886e-05
0.00087119
0.000816854
0.000752743
0.000673051
0.000570727
0.000432413
0.000238707
3.12034e-05
0.000838717
0.000788906
0.000727146
0.00064889
0.00054774
0.000411574
0.000224036
2.96579e-05
0.000793481
0.000747376
0.000686692
0.000608922
0.00050868
0.000375929
0.0001995
2.66589e-05
2.39022e-05
0.000128304
0.000184824
0.000221366
0.000244982
0.000258436
0.000263624
0.000261775
2.37317e-05
0.000126905
0.000182495
0.000218536
0.000241862
0.000255151
0.000260287
0.000258553
2.37848e-05
0.000127183
0.000182858
0.00021866
0.000241563
0.000254343
0.000258959
0.000256792
2.41168e-05
0.000129948
0.000186952
0.000223131
0.000245911
0.000258287
0.000262324
0.000259471
2.47041e-05
0.000135202
0.000194845
0.000232081
0.000255109
0.000267239
0.000270655
0.000266854
2.54937e-05
0.000142672
0.000206035
0.000244759
0.000268102
0.000279823
0.000282291
0.000277079
2.63591e-05
0.000151416
0.000219307
0.000259697
0.000283198
0.000294211
0.000295444
0.000288645
2.76368e-05
0.000144356
0.000208891
0.000250613
0.000275973
0.000288256
0.000290365
0.00028465
2.74506e-05
0.000142626
0.000206142
0.000247321
0.000272364
0.000284449
0.000286425
0.000280697
2.75317e-05
0.000143354
0.000206857
0.000247622
0.000272046
0.000283405
0.0002846
0.000278134
2.79151e-05
0.000146979
0.000211763
0.000252746
0.000276868
0.000287658
0.000288123
0.000280813
2.85536e-05
0.000153433
0.000220871
0.000262812
0.000287083
0.000297567
0.000297369
0.000289033
2.94158e-05
0.000162563
0.000233966
0.000277363
0.000301852
0.000311822
0.00031057
0.00030068
3.04566e-05
0.000173156
0.000250022
0.000295154
0.000319611
0.000328568
0.000325747
0.000314005
3.2776e-05
0.00016318
0.000239849
0.00028856
0.000315527
0.000325309
0.00032252
0.000311227
3.25645e-05
0.000160919
0.00023642
0.00028451
0.000311127
0.000320702
0.00031772
0.000306255
3.26263e-05
0.000161917
0.000237223
0.000284697
0.000310492
0.00031911
0.000315022
0.000302338
3.30245e-05
0.000166241
0.000242831
0.000290391
0.000315687
0.000323547
0.000318567
0.000304885
3.36612e-05
0.000173743
0.000253092
0.000301565
0.000326909
0.00033441
0.000328785
0.000314105
3.45223e-05
0.000184596
0.000268156
0.000318077
0.000343526
0.000350395
0.000343615
0.00032731
3.5636e-05
0.000197808
0.000287407
0.000339067
0.000364258
0.000369728
0.000360899
0.000342361
4.09218e-05
0.000186883
0.000281742
0.00033918
0.000366623
0.000371333
0.000360777
0.000341905
4.06804e-05
0.000183896
0.000277287
0.000333963
0.000360987
0.000365464
0.000354715
0.000335516
4.06344e-05
0.000184724
0.000277707
0.000333561
0.000359565
0.000362857
0.000350589
0.000329361
4.09789e-05
0.000189437
0.000283936
0.000339832
0.000365111
0.000367387
0.000353985
0.000331535
4.15298e-05
0.00019773
0.000295491
0.000352382
0.000377576
0.000379404
0.000365409
0.000342104
4.22307e-05
0.000210222
0.000312789
0.000371226
0.000396385
0.000397439
0.000382212
0.000357298
4.29346e-05
0.000226951
0.000335457
0.000395708
0.000420445
0.000419707
0.000401773
0.000373977
5.56948e-05
0.00022282
0.00034321
0.000409274
0.000433321
0.000427605
0.000404121
0.000375701
5.54134e-05
0.000218865
0.000337347
0.000402484
0.000426017
0.000419995
0.00039649
0.000367652
5.52354e-05
0.000219019
0.00033688
0.000401021
0.000423365
0.000415927
0.000390269
0.000358254
5.54775e-05
0.000224008
0.000343904
0.000408145
0.000429464
0.00042062
0.000393439
0.000359794
5.59164e-05
0.000233247
0.000357472
0.000422876
0.00044381
0.000434299
0.000406627
0.000372421
5.6296e-05
0.000247442
0.000377907
0.000444953
0.000465438
0.000454698
0.00042549
0.000389641
5.62073e-05
0.000265667
0.000403654
0.000473007
0.000492955
0.000480008
0.000447135
0.000407538
8.11967e-05
0.000296019
0.000443853
0.000509353
0.000519
0.000490707
0.000448191
0.000413715
8.06808e-05
0.00028987
0.000435693
0.000500608
0.000509953
0.000481125
0.000438367
0.00040439
8.04578e-05
0.000288856
0.000433847
0.000497804
0.000505859
0.000475451
0.00043045
0.00039374
8.07393e-05
0.00029473
0.000442284
0.000506447
0.000513094
0.000480773
0.000433675
0.000394799
8.12394e-05
0.000306361
0.000459659
0.000525009
0.000530781
0.000498052
0.000449777
0.000410285
8.14445e-05
0.00032413
0.000485605
0.000552158
0.000556179
0.000520884
0.000470398
0.000427066
8.05622e-05
0.000343664
0.000514489
0.000583961
0.000586509
0.00054737
0.000492032
0.000443518
3.33595e-05
0.000217545
0.000328187
0.000389997
0.000423681
0.000437943
0.000437243
0.000424051
3.33808e-05
0.000218667
0.00032987
0.000392159
0.000426285
0.000440965
0.000440652
0.000427785
3.29871e-05
0.00021659
0.000326084
0.000387627
0.000421519
0.000436297
0.000436333
0.000424018
3.23226e-05
0.00021132
0.000317273
0.000377022
0.000410089
0.000424695
0.000425068
0.000413478
3.14336e-05
0.000203648
0.000304671
0.000361811
0.000393626
0.000407874
0.000408557
0.00039777
3.03887e-05
0.000194371
0.000289113
0.000343008
0.000373212
0.000386843
0.000387615
0.000377479
2.93689e-05
0.00018442
0.000272158
0.000322592
0.000350996
0.000363775
0.000364409
0.00035482
3.82431e-05
0.000251945
0.000378092
0.00044708
0.000482807
0.000495475
0.000490511
0.000471363
3.82641e-05
0.000253092
0.000380022
0.000449451
0.000485616
0.000498704
0.000494126
0.000475286
3.78543e-05
0.00025059
0.000375779
0.000444271
0.000480083
0.000493188
0.000488917
0.00047065
3.71351e-05
0.000244536
0.000365713
0.000432069
0.000466791
0.000479545
0.000475576
0.000458183
3.61987e-05
0.000235672
0.00035124
0.00041461
0.000447791
0.00046002
0.000456411
0.000440091
3.50932e-05
0.000224907
0.000333346
0.000393152
0.000424513
0.000436002
0.000432497
0.000416943
3.40254e-05
0.000213419
0.000313929
0.00037009
0.000399543
0.000410033
0.000406239
0.000391155
4.40556e-05
0.000293658
0.000437677
0.000515039
0.000552578
0.00056251
0.000551366
0.000523752
4.40784e-05
0.000294893
0.000439681
0.000517509
0.000555508
0.00056588
0.00055514
0.000527821
4.36711e-05
0.000292018
0.000435037
0.000511746
0.000549278
0.000559557
0.000549026
0.000522229
4.29067e-05
0.000285029
0.000423822
0.000497948
0.000534021
0.000543604
0.00053317
0.000507356
4.19131e-05
0.000274665
0.00040735
0.000478021
0.000512074
0.000520704
0.000510519
0.000486151
4.07588e-05
0.000261875
0.000387015
0.000453782
0.000485656
0.000493226
0.000483112
0.000459806
3.96769e-05
0.000248487
0.000365068
0.000428248
0.000458134
0.000464462
0.000453796
0.000430837
5.08583e-05
0.000343582
0.000508955
0.000595266
0.000634032
0.000639798
0.000620239
0.000580997
5.08777e-05
0.000344734
0.00051074
0.000597561
0.000636871
0.000643158
0.000624068
0.000585151
5.0494e-05
0.000341706
0.000505751
0.000591376
0.000630115
0.000636167
0.000617147
0.000578659
4.97098e-05
0.000334063
0.000493552
0.000576279
0.000613159
0.000617972
0.000598536
0.00056093
4.8682e-05
0.000321916
0.000475112
0.000553999
0.000588168
0.000591114
0.000571291
0.000535394
4.76097e-05
0.00030693
0.000452415
0.000527504
0.000558849
0.000559852
0.000539678
0.000505411
4.67218e-05
0.000291198
0.000428597
0.000500459
0.000529565
0.000528773
0.000507448
0.000473311
5.7902e-05
0.000406201
0.000594397
0.000689161
0.000727766
0.000726851
0.000695239
0.000639067
5.77688e-05
0.00040676
0.000595231
0.000690618
0.000730094
0.000730022
0.000699024
0.000643303
5.74275e-05
0.000404133
0.000589874
0.000684202
0.000723011
0.000722497
0.000691444
0.000636152
5.68404e-05
0.000396791
0.000577017
0.000668627
0.000705175
0.000702709
0.000670385
0.000614969
5.6387e-05
0.000382564
0.000557106
0.000645016
0.000677889
0.000671994
0.000637955
0.000584267
5.64868e-05
0.000363761
0.000533822
0.000618233
0.000647046
0.000637456
0.000601704
0.000551626
5.71523e-05
0.000344028
0.000510307
0.000591952
0.000617555
0.000604976
0.000566582
0.000517095
7.31222e-05
0.000489978
0.000699802
0.000801001
0.000836214
0.000823042
0.000770624
0.000687351
7.26273e-05
0.00048835
0.000698105
0.0008003
0.000837258
0.000825937
0.000774368
0.000691001
7.25351e-05
0.000485601
0.000692741
0.000793799
0.000829868
0.000817633
0.000766086
0.000683549
7.28506e-05
0.000479129
0.000681212
0.000779262
0.00081214
0.000796993
0.000743599
0.000662074
7.40236e-05
0.000465896
0.000663286
0.000756574
0.00078406
0.00076303
0.000705202
0.000627263
7.66759e-05
0.000446655
0.000644601
0.000732839
0.000753214
0.000724821
0.000661715
0.000591167
7.90178e-05
0.000427283
0.000625905
0.000710374
0.000724481
0.000690475
0.000623743
0.000554362
2.84553e-05
0.000174289
0.000255472
0.000302641
0.000329364
0.000341375
0.000341959
0.000333054
2.75226e-05
0.000163947
0.000239014
0.000283193
0.00030853
0.000320137
0.000321088
0.000313267
2.65131e-05
0.000153595
0.000223007
0.000264474
0.000288698
0.000300251
0.00030195
0.000295523
2.55171e-05
0.000144386
0.000208952
0.000248172
0.000271629
0.000283414
0.000286082
0.000281165
2.47573e-05
0.00013749
0.000198566
0.000236343
0.000259498
0.000271685
0.000275212
0.000271466
2.43418e-05
0.000133537
0.000192505
0.000229628
0.000252907
0.000265632
0.000269932
0.000267056
2.40975e-05
0.000130646
0.000188322
0.000225194
0.000248746
0.000261972
0.000266868
0.000264655
3.30235e-05
0.000201861
0.000294711
0.000347434
0.000375176
0.000384829
0.000380883
0.000366463
3.19372e-05
0.000189915
0.000275449
0.000324944
0.000351229
0.000360426
0.000356834
0.000343619
3.07955e-05
0.000177433
0.000256363
0.000302814
0.000327822
0.000336907
0.000334131
0.000322516
2.96538e-05
0.000165998
0.000239316
0.000283189
0.000307308
0.000316672
0.000315069
0.000305317
2.8753e-05
0.000157166
0.000226531
0.00026892
0.000292895
0.000302936
0.000302528
0.00029428
2.82146e-05
0.000151757
0.000218808
0.000260717
0.000285159
0.000296149
0.00029697
0.000290056
2.78862e-05
0.000147656
0.000213362
0.000255256
0.000280321
0.000292155
0.000293835
0.00028774
3.86276e-05
0.000234731
0.000342989
0.000402871
0.000431156
0.000436641
0.000425723
0.000403355
3.74813e-05
0.00022005
0.000320445
0.000377134
0.000404006
0.000409024
0.000398427
0.00037734
3.62443e-05
0.000204889
0.000297833
0.000351253
0.000376739
0.000381623
0.000371955
0.000352734
3.50198e-05
0.000190875
0.000277386
0.00032787
0.000352359