/*--------------------------------*- C++ -*----------------------------------*\
| =========                 |                                                 |
| \\      /  F ield         | OpenFOAM: The Open Source CFD Toolbox           |
|  \\    /   O peration     | Version:  plus.master.MPPICInterFoam            |
|   \\  /    A nd           | Web:      www.OpenFOAM.com                      |
|    \\/     M anipulation  |                                                 |
\*---------------------------------------------------------------------------*/
FoamFile
{
    version     2.0;
    format      ascii;
    class       volVectorField;
    location    "12";
    object      U;
}
// * * * * * * * * * * * * * * * * * * * * * * * * * * * * * * * * * * * * * //

dimensions      [0 1 -1 0 0 0 0];

internalField   nonuniform List<vector> 
11822
(
(-0.0017513 -0.00401723 0.470792)
(-0.000715242 -0.00341701 0.462978)
(0.000113129 -0.00326408 0.435916)
(0.00105787 -0.00291539 0.395137)
(0.00178146 -0.00250076 0.34687)
(0.00221547 -0.00216352 0.296503)
(0.00242094 -0.00188023 0.246938)
(-0.00271448 -0.0039397 0.574436)
(-0.00145153 -0.00274743 0.566786)
(-0.000360133 -0.00310074 0.528112)
(0.00116502 -0.00292834 0.46793)
(0.00216222 -0.00239142 0.403735)
(0.00264905 -0.00205193 0.341308)
(0.00285018 -0.00179904 0.283001)
(-0.00537494 -0.00255182 0.737738)
(-0.00288779 -0.000955444 0.737092)
(0.000199578 -0.00290712 0.659651)
(0.00261739 -0.00247133 0.553307)
(0.00327034 -0.00174829 0.461161)
(0.00344521 -0.00154903 0.383404)
(0.00345833 -0.00142339 0.315399)
(-0.00904408 -0.000167317 0.909772)
(-0.00564694 0.004133 0.89871)
(-0.000552231 0.00195048 0.789679)
(0.00401708 -4.90671e-05 0.643444)
(0.0041433 -0.000283982 0.511933)
(0.00416186 -0.000528644 0.417442)
(0.00401132 -0.000701876 0.341116)
(-0.0105854 0.00605042 0.993317)
(-0.00767071 0.00794127 0.964146)
(-0.00318682 0.00511512 0.879844)
(0.001245 0.00219843 0.697356)
(0.00392409 0.00106663 0.541491)
(0.00432747 0.000605745 0.437792)
(0.00424926 0.000155416 0.356874)
(-0.0123423 0.00911855 0.964085)
(-0.00628327 0.00821722 0.977621)
(-0.00019969 0.00460857 0.876183)
(0.00217904 0.00301576 0.692586)
(0.00406805 0.00216303 0.542611)
(0.00433411 0.00167266 0.440449)
(0.0042486 0.000985236 0.360592)
(-0.00569007 0.00662143 0.815484)
(-0.00211435 0.00721718 0.855059)
(0.000927728 0.00569326 0.76613)
(0.00234148 0.00445215 0.630022)
(0.00334662 0.0033411 0.515502)
(0.00373824 0.00260541 0.426598)
(0.00391931 0.0016388 0.35237)
(-0.00152074 -0.0033581 0.469166)
(-0.000694039 -0.00276279 0.460939)
(-3.38078e-05 -0.00277963 0.433977)
(0.000834347 -0.00259474 0.393552)
(0.00153122 -0.00228019 0.345798)
(0.00194939 -0.0020192 0.296072)
(0.00215594 -0.00180039 0.247235)
(-0.00212866 -0.00355353 0.570014)
(-0.00108859 -0.00222336 0.561958)
(-0.000280991 -0.00272099 0.523941)
(0.00102739 -0.00279591 0.465165)
(0.00193848 -0.0023082 0.401866)
(0.00237506 -0.00199286 0.340199)
(0.00255504 -0.00177477 0.2827)
(-0.00344395 -0.00286542 0.724448)
(-0.00110959 -0.000466147 0.72602)
(0.00107295 -0.0022243 0.64941)
(0.00258428 -0.00249038 0.548181)
(0.00311372 -0.0018214 0.458333)
(0.00318367 -0.00157766 0.38171)
(0.00314746 -0.00145951 0.314607)
(-0.00368567 -0.0046394 0.892241)
(0.000465877 -0.000583908 0.880309)
(0.00307248 -0.00296816 0.7695)
(0.00376308 -0.00134548 0.634832)
(0.00393713 -0.000609358 0.507898)
(0.00388792 -0.000663022 0.415291)
(0.00366377 -0.000808967 0.339977)
(-0.00410039 -0.000450766 0.959457)
(-0.00193235 0.00187945 0.944772)
(-0.000393636 -0.000278779 0.858753)
(0.00318418 0.000332451 0.687007)
(0.00383263 0.000511869 0.536944)
(0.00398106 0.000343685 0.435429)
(0.00384151 -3.306e-05 0.355598)
(-0.00924042 0.00576627 0.954976)
(-0.00232221 0.00410781 0.963127)
(0.0022695 0.0026301 0.860959)
(0.0036535 0.00182396 0.681561)
(0.004167 0.00162213 0.538142)
(0.00399416 0.0013579 0.438258)
(0.00379904 0.000740145 0.359439)
(-0.00446309 0.00564908 0.806404)
(-0.00085514 0.0051249 0.83363)
(0.00152745 0.00508403 0.753708)
(0.00247406 0.00380903 0.622637)
(0.00296273 0.0029042 0.5122)
(0.00318596 0.00223261 0.424945)
(0.00339236 0.00131668 0.35158)
(-0.00139155 -0.000899215 0.46737)
(-0.00102595 -0.000531826 0.45878)
(-0.000610389 -0.000766483 0.431627)
(8.69463e-05 -0.00112038 0.391359)
(0.000858536 -0.00139102 0.344007)
(0.00146919 -0.00157006 0.294873)
(0.00184916 -0.00165399 0.246727)
(-0.00193561 -0.000161686 0.567151)
(-0.00164773 0.000545179 0.558705)
(-0.00129825 -7.58258e-06 0.520516)
(-0.000412413 -0.000812928 0.462258)
(0.000683816 -0.00122491 0.399454)
(0.0014925 -0.00149272 0.338376)
(0.00199569 -0.0016442 0.281629)
(-0.0020887 0.00108553 0.717114)
(-0.00149745 0.00302171 0.719014)
(-0.000972502 0.00165765 0.644497)
(-7.56733e-05 -0.000401962 0.544185)
(0.00106322 -0.000849654 0.455294)
(0.00184099 -0.00117996 0.379392)
(0.00231928 -0.00139532 0.313066)
(-0.00119261 -0.00147976 0.888119)
(0.0012303 1.90588e-05 0.881484)
(0.00141373 -0.00157501 0.779258)
(0.000185866 -0.000395085 0.629991)
(0.0015827 -0.000202711 0.504352)
(0.00227058 -0.00052105 0.412666)
(0.00264626 -0.000873633 0.338114)
(-0.00239036 -0.00397178 0.929536)
(-0.00135062 -0.00230998 0.932285)
(-0.000566534 -0.00265036 0.842864)
(0.00084274 -4.00392e-05 0.682847)
(0.00145091 0.00051045 0.5334)
(0.00226299 0.00026953 0.432793)
(0.00270107 -0.000225868 0.353616)
(-0.00537786 -0.00183235 0.931003)
(-0.000791736 -0.00228482 0.948361)
(-1.89777e-05 -0.00142434 0.848625)
(0.000855804 0.000829202 0.674167)
(0.00133519 0.00128183 0.534607)
(0.002005 0.00103366 0.435751)
(0.0025303 0.000388007 0.35752)
(-0.00284251 0.00168681 0.793996)
(-0.00202222 0.000904304 0.814927)
(-0.00208784 0.00131696 0.743462)
(-0.00116021 0.00170372 0.618132)
(-3.10582e-05 0.00178324 0.509393)
(0.00117896 0.00147955 0.422792)
(0.00215565 0.000704961 0.349902)
(-0.00142529 0.000924647 0.463815)
(-0.00127916 0.00110822 0.454846)
(-0.000918837 0.000452812 0.427683)
(-0.000197084 -0.000413898 0.387867)
(0.000698519 -0.00121011 0.341443)
(0.00147696 -0.00171867 0.293568)
(0.00196216 -0.00196231 0.246856)
(-0.00211425 0.00314738 0.563273)
(-0.00244699 0.00336338 0.554156)
(-0.00238158 0.00217039 0.515788)
(-0.00142333 0.000637492 0.457673)
(7.86409e-06 -0.000686031 0.395631)
(0.00124389 -0.00148528 0.335839)
(0.00203874 -0.0019045 0.280626)
(-0.00233067 0.00487497 0.713461)
(-0.00357487 0.00627015 0.714069)
(-0.0038917 0.00380702 0.640189)
(-0.00240932 0.00142794 0.539237)
(-0.00050239 -0.000161486 0.450618)
(0.00115746 -0.00112895 0.375867)
(0.00217891 -0.0016556 0.311122)
(-0.00369076 0.00676391 0.892056)
(-0.00342533 0.00625279 0.897152)
(-0.00346779 0.00392045 0.792054)
(-0.00259756 0.00177901 0.626324)
(-0.000607717 0.000366645 0.499403)
(0.0012136 -0.000541274 0.408533)
(0.00232713 -0.00116818 0.335511)
(-0.00214631 0.000788405 0.943834)
(-0.00470528 0.000933838 0.937859)
(-0.00484934 0.000557715 0.848698)
(-0.00355004 0.00117832 0.677487)
(-0.00128315 0.00073076 0.528299)
(0.000954548 9.19311e-05 0.428435)
(0.00223675 -0.000576046 0.350679)
(-0.00458866 -0.00232099 0.900764)
(-0.00365505 -0.00311114 0.944199)
(-0.00476454 -0.00126681 0.841893)
(-0.00329054 0.000578185 0.66956)
(-0.00164746 0.00095856 0.529862)
(0.000571226 0.000609682 0.431539)
(0.00200636 -4.15539e-05 0.354586)
(-0.00275644 -0.00196743 0.79079)
(-0.00491124 -0.00200804 0.809537)
(-0.00689706 -0.00141209 0.73976)
(-0.00503936 -0.000130703 0.614139)
(-0.00257807 0.000802932 0.505112)
(-5.73921e-05 0.000850284 0.418942)
(0.00167924 0.000238229 0.347259)
(-0.00210321 -0.00223035 0.456368)
(-0.000839238 -0.0024618 0.447083)
(0.000552136 -0.00327053 0.420181)
(0.00218205 -0.00406969 0.381175)
(0.00375488 -0.0047544 0.335895)
(0.00510037 -0.00520806 0.289184)
(0.0061026 -0.00545881 0.243433)
(-0.00319059 0.000113438 0.555881)
(-0.00221493 -0.000118468 0.545667)
(-0.000781519 -0.00145082 0.506982)
(0.00133775 -0.00281625 0.449001)
(0.00335396 -0.0038816 0.388467)
(0.00502627 -0.00456398 0.330301)
(0.00623787 -0.00494374 0.276436)
(-0.00526955 0.00225691 0.71531)
(-0.00449668 0.00194642 0.711772)
(-0.00235835 -0.000551814 0.634003)
(0.000829721 -0.00157026 0.52979)
(0.00310683 -0.00276799 0.441825)
(0.00505335 -0.00363889 0.369124)
(0.00641565 -0.00411129 0.30609)
(-0.00984296 0.00665022 0.89435)
(-0.00854276 0.00637991 0.895037)
(-0.0052852 0.00481333 0.792869)
(0.000980537 0.000710401 0.619282)
(0.00290416 -0.00130879 0.489866)
(0.00508745 -0.00237042 0.40081)
(0.0065473 -0.00296649 0.329755)
(-0.00892633 0.00868323 0.976469)
(-0.00798318 0.00766994 0.978833)
(-0.00526362 0.00572914 0.84638)
(-0.00131102 0.0016777 0.673513)
(0.00220972 -8.05044e-05 0.518083)
(0.00482307 -0.000964713 0.420162)
(0.00645744 -0.00163947 0.34447)
(-0.0110009 0.00588858 0.91719)
(-0.00921717 0.00619346 0.958968)
(-0.00511956 0.00450492 0.848555)
(-0.00134826 0.00179888 0.668555)
(0.00170462 0.00098881 0.520266)
(0.00441539 0.000399908 0.423329)
(0.00614635 -0.000307068 0.348283)
(-0.00693813 0.0015806 0.798273)
(-0.0076831 0.0033733 0.831029)
(-0.00623593 0.00255479 0.741507)
(-0.00281129 0.00181761 0.609324)
(0.000785988 0.0018448 0.495984)
(0.003655 0.00155326 0.411118)
(0.00557926 0.000859673 0.341137)
(-0.0033904 -0.00779648 0.45067)
(-0.000157679 -0.0086501 0.440691)
(0.00267839 -0.0095988 0.414158)
(0.00551173 -0.0101849 0.376256)
(0.00789265 -0.0103127 0.332623)
(0.00971675 -0.0102953 0.288016)
(0.0111255 -0.0101047 0.244947)
(-0.00466859 -0.00705188 0.546898)
(-0.0011326 -0.00756934 0.535882)
(0.00234476 -0.00896812 0.497886)
(0.00597359 -0.00962183 0.441322)
(0.00859775 -0.0093313 0.38277)
(0.0104433 -0.00918687 0.326881)
(0.0119176 -0.00899743 0.275579)
(-0.00963479 -0.00493778 0.706759)
(-0.00436129 -0.00644696 0.698049)
(0.002891 -0.00887577 0.620472)
(0.00793251 -0.00868526 0.519376)
(0.00990917 -0.00763988 0.433892)
(0.0112398 -0.00751771 0.363828)
(0.012516 -0.00742122 0.303466)
(-0.0168966 -0.000479694 0.877538)
(-0.00820947 -0.000443483 0.869298)
(0.00225867 -0.00321712 0.740563)
(0.00898044 -0.00473548 0.605253)
(0.0104777 -0.00485462 0.480077)
(0.0116099 -0.00519323 0.394043)
(0.0128053 -0.00533216 0.325905)
(-0.0185075 0.00871764 0.950542)
(-0.010869 0.0100046 0.929532)
(-0.000922441 0.00558071 0.841503)
(0.00658917 0.000558692 0.659167)
(0.00996271 -0.00190824 0.506981)
(0.0114041 -0.00257472 0.412533)
(0.0126674 -0.00294343 0.34)
(-0.0192637 0.0136487 0.933933)
(-0.0117922 0.0153518 0.944055)
(-0.00103932 0.0103273 0.835491)
(0.00561769 0.00398359 0.654589)
(0.00933727 0.00107921 0.509128)
(0.0108904 0.000221292 0.41577)
(0.0121314 -0.000400173 0.34393)
(-0.0132365 0.0104423 0.809698)
(-0.00864576 0.0131563 0.832697)
(-0.00128774 0.0103922 0.739382)
(0.00401712 0.0063185 0.597295)
(0.00760281 0.0041336 0.48609)
(0.00947178 0.00307766 0.404464)
(0.0108123 0.00225908 0.337672)
(0.00228045 -0.00168992 0.205199)
(0.00203505 -0.0014995 0.173128)
(0.00175968 -0.0012934 0.143642)
(0.00145333 -0.00107658 0.116915)
(0.00111684 -0.000856946 0.0927675)
(0.000761134 -0.000652121 0.070585)
(0.000390242 -0.00049206 0.0487292)
(-1.27189e-07 -0.000418177 0.0211828)
(0.00268405 -0.00171856 0.233114)
(0.00236752 -0.00164077 0.193056)
(0.00200392 -0.00156977 0.157811)
(0.00158886 -0.00149976 0.126634)
(0.00113143 -0.00143165 0.0989257)
(0.000650498 -0.00136895 0.0738413)
(0.000174814 -0.00131833 0.0495145)
(-0.000265199 -0.00127116 0.0193859)
(0.00321993 -0.00146668 0.258908)
(0.00286974 -0.00154131 0.213773)
(0.00245114 -0.00164539 0.174445)
(0.00196925 -0.00176192 0.140042)
(0.00143826 -0.0018829 0.109763)
(0.000883018 -0.00200231 0.0826045)
(0.000339664 -0.00211413 0.0565199)
(-0.000144926 -0.00217758 0.024446)
(0.00370895 -0.000922519 0.28049)
(0.0033567 -0.00118016 0.233096)
(0.00293314 -0.00147716 0.191954)
(0.00245016 -0.0017968 0.156096)
(0.00192211 -0.00212256 0.12464)
(0.0013734 -0.00243892 0.0964999)
(0.000839288 -0.00272592 0.0695104)
(0.00036285 -0.00290394 0.0361844)
(0.0039741 -0.000221515 0.295377)
(0.00366643 -0.000637521 0.249106)
(0.00329824 -0.00110667 0.208867)
(0.00288822 -0.00160938 0.173699)
(0.0024461 -0.00212 0.14274)
(0.0019892 -0.00261398 0.114911)
(0.00154358 -0.00306001 0.0880042)
(0.00112993 -0.00335264 0.0542136)
(0.00398196 0.000493376 0.302247)
(0.00372217 -2.74112e-05 0.260798)
(0.00344842 -0.000617218 0.22435)
(0.00317074 -0.00124546 0.192096)
(0.00288369 -0.00188056 0.163367)
(0.00259141 -0.00249151 0.13721)
(0.00230305 -0.00304003 0.111464)
(0.00200562 -0.00340176 0.0781217)
(0.00380234 0.000924409 0.300747)
(0.00364989 0.000347359 0.268453)
(0.00350888 -0.000283911 0.238334)
(0.00339097 -0.000946454 0.210858)
(0.0032796 -0.00161833 0.185838)
(0.00317572 -0.0022698 0.162546)
(0.00308007 -0.00286855 0.138925)
(0.00296385 -0.00331512 0.106778)
(0.0020436 -0.00164034 0.206172)
(0.00182726 -0.00147153 0.174642)
(0.0015738 -0.0012875 0.145647)
(0.00128732 -0.00109023 0.119351)
(0.000977753 -0.000890348 0.0955687)
(0.00065841 -0.000703568 0.0736886)
(0.000329929 -0.000552153 0.0520864)
(6.5168e-06 -0.000498228 0.024802)
(0.00241437 -0.00169774 0.233596)
(0.00213967 -0.0016312 0.194204)
(0.00181137 -0.00157597 0.159547)
(0.00142868 -0.00151799 0.128878)
(0.00100696 -0.00145803 0.101594)
(0.000568776 -0.00139924 0.0768572)
(0.000135184 -0.00134199 0.0528245)
(-0.000222331 -0.00128374 0.0230088)
(0.00292196 -0.00150439 0.258967)
(0.00261243 -0.00158711 0.214565)
(0.00223431 -0.0016962 0.175886)
(0.00179204 -0.00181177 0.142037)
(0.00130471 -0.0019265 0.112215)
(0.00079898 -0.00203519 0.0854222)
(0.000301666 -0.00212792 0.0596296)
(-0.000100801 -0.00215921 0.0278354)
(0.00337085 -0.00103384 0.280237)
(0.00306097 -0.00128933 0.233594)
(0.00268443 -0.00157822 0.193115)
(0.00224919 -0.00188287 0.157824)
(0.00177242 -0.00218781 0.12683)
(0.00127897 -0.00247883 0.09905)
(0.000794631 -0.00273565 0.0723326)
(0.000391235 -0.00287077 0.0392288)
(0.00358583 -0.000415779 0.294984)
(0.00332506 -0.000814096 0.249427)
(0.00301173 -0.00125785 0.209818)
(0.00265717 -0.00172765 0.175187)
(0.00227195 -0.00219913 0.144666)
(0.00187291 -0.00264922 0.117175)
(0.00147819 -0.00304947 0.0905126)
(0.00112581 -0.0032884 0.0568907)
(0.00354983 0.000229667 0.301908)
(0.00333551 -0.000267103 0.261083)
(0.00312063 -0.000816582 0.225185)
(0.00290169 -0.00139273 0.193405)
(0.00267222 -0.00196784 0.165068)
(0.00243501 -0.00251389 0.139213)
(0.00219311 -0.00299717 0.113682)
(0.00194211 -0.00329248 0.0804685)
(0.00333454 0.000609903 0.300634)
(0.00321994 6.80747e-05 0.268829)
(0.00313144 -0.000514461 0.239149)
(0.00306524 -0.00111476 0.212062)
(0.003005 -0.00171334 0.18737)
(0.00294953 -0.00228546 0.164334)
(0.00289504 -0.00280391 0.140893)
(0.00280607 -0.00315918 0.108845)
(0.00186058 -0.00163897 0.206294)
(0.00171107 -0.0015402 0.175225)
(0.00148965 -0.00137876 0.146597)
(0.00120285 -0.00117535 0.120554)
(0.000869445 -0.000947543 0.0968805)
(0.000515677 -0.000724776 0.0749363)
(0.000176397 -0.000558645 0.0530244)
(-0.000184558 -0.000476335 0.0249055)
(0.00207944 -0.0017397 0.233272)
(0.00193404 -0.0017909 0.194488)
(0.00166828 -0.00179244 0.160324)
(0.00130089 -0.00175971 0.130009)
(0.000856894 -0.001707 0.102919)
(0.000374544 -0.00165582 0.0781892)
(-8.71448e-05 -0.00163953 0.0539046)
(-0.000536055 -0.00164905 0.0232713)
(0.00242168 -0.00160955 0.258234)
(0.00230498 -0.00180602 0.214523)
(0.00203467 -0.00197604 0.176422)
(0.00164168 -0.00212716 0.14301)
(0.00115698 -0.00226597 0.113463)
(0.000625238 -0.00240194 0.0867579)
(0.000115927 -0.00254871 0.0608084)
(-0.000360076 -0.00267549 0.0283456)
(0.00273278 -0.00123083 0.279188)
(0.002654 -0.00156069 0.233254)
(0.00242049 -0.00189588 0.193387)
(0.00206645 -0.00222998 0.158576)
(0.0016218 -0.00255718 0.12791)
(0.00112929 -0.00287211 0.100289)
(0.000653898 -0.00316555 0.0735214)
(0.000215769 -0.00337111 0.0399681)
(0.002834 -0.000713158 0.293764)
(0.00281792 -0.00113589 0.248874)
(0.00267194 -0.00159828 0.209853)
(0.00242441 -0.00207617 0.175699)
(0.0020977 -0.00255073 0.145522)
(0.00172592 -0.00300332 0.11823)
(0.00135821 -0.00340629 0.091599)
(0.0010078 -0.00365991 0.0577247)
(0.0027036 -0.000194115 0.300675)
(0.00273786 -0.000666227 0.260429)
(0.00270317 -0.00119401 0.22505)
(0.00260512 -0.00174327 0.193704)
(0.00244993 -0.0022895 0.165694)
(0.0022567 -0.0028063 0.140049)
(0.00205175 -0.00325538 0.114597)
(0.00182703 -0.00351546 0.0812627)
(0.00248763 3.42309e-05 0.29954)
(0.00256875 -0.000444734 0.268183)
(0.00264622 -0.000968257 0.238923)
(0.00269495 -0.00150354 0.212201)
(0.0027129 -0.00203481 0.187797)
(0.00270917 -0.00253966 0.164959)
(0.00269407 -0.00298786 0.14162)
(0.00264593 -0.00326649 0.109519)
(0.00205385 -0.00201638 0.207775)
(0.00193277 -0.00196995 0.177814)
(0.00170445 -0.00182294 0.150276)
(0.00136685 -0.00160729 0.125299)
(0.000959602 -0.00135571 0.102689)
(0.000509417 -0.00109668 0.0818663)
(-3.19437e-06 -0.000832365 0.0613304)
(-0.000378145 -0.000786593 0.0356115)
(0.00231037 -0.00209118 0.233772)
(0.00225489 -0.00218773 0.196293)
(0.00200744 -0.00217227 0.163358)
(0.00160076 -0.00208379 0.134222)
(0.0010852 -0.00194602 0.108289)
(0.000504743 -0.00177487 0.0847585)
(-0.000144011 -0.00154628 0.0619299)
(-0.00050357 -0.00134019 0.0338927)
(0.00258787 -0.00197813 0.257873)
(0.00262487 -0.00221561 0.215536)
(0.00241218 -0.00236772 0.178718)
(0.0020072 -0.00246324 0.146513)
(0.00146455 -0.00251445 0.118122)
(0.000834282 -0.00252311 0.0925777)
(0.000117192 -0.00245539 0.0679844)
(-0.000296446 -0.00224663 0.037918)
(0.00281581 -0.00161928 0.278163)
(0.0029466 -0.00196879 0.233585)
(0.00281682 -0.00228205 0.194974)
(0.00249364 -0.00256336 0.161324)
(0.00202953 -0.00281208 0.131742)
(0.00147062 -0.00302033 0.105164)
(0.000814808 -0.00315505 0.0795493)
(0.000378582 -0.00304114 0.0479541)
(0.00282801 -0.00111148 0.292336)
(0.00305688 -0.00150895 0.248707)
(0.00305226 -0.00192849 0.21085)
(0.00287613 -0.00234372 0.177754)
(0.00257354 -0.00274149 0.148537)
(0.00218293 -0.00310857 0.122129)
(0.00169708 -0.00342163 0.0964135)
(0.00130911 -0.00347136 0.0639924)
(0.00263816 -0.000599436 0.299128)
(0.00291859 -0.000979978 0.259985)
(0.00304004 -0.00142129 0.225626)
(0.00303345 -0.00188028 0.195197)
(0.00292789 -0.00233655 0.168)
(0.0027488 -0.00277344 0.143073)
(0.00248349 -0.00317607 0.118313)
(0.00221213 -0.00336358 0.0859769)
(0.0023637 -0.000305044 0.29814)
(0.00262755 -0.000630596 0.267643)
(0.00284365 -0.0010078 0.239214)
(0.00297416 -0.00140421 0.213247)
(0.00303849 -0.00180848 0.189504)
(0.00304999 -0.0022095 0.167235)
(0.00299341 -0.00260126 0.144418)
(0.00287312 -0.00284616 0.112931)
(0.00639102 -0.00557707 0.204941)
(0.00627834 -0.00554917 0.175176)
(0.00600971 -0.00535964 0.147523)
(0.00554592 -0.00501694 0.121963)
(0.00487005 -0.004516 0.0980896)
(0.00403615 -0.00391377 0.0749795)
(0.00324955 -0.00340223 0.0504275)
(0.00166033 -0.00230941 0.0165884)
(0.00671553 -0.00525279 0.230529)
(0.00673436 -0.00543575 0.193555)
(0.006526 -0.00548673 0.160769)
(0.00606905 -0.00543829 0.131303)
(0.00533285 -0.00529864 0.104349)
(0.0043712 -0.00511289 0.0787315)
(0.00345684 -0.0050345 0.0519713)
(0.00144146 -0.00452397 0.0154695)
(0.00703578 -0.00449231 0.254041)
(0.00721049 -0.00479403 0.212406)
(0.0071106 -0.00501849 0.175925)
(0.00673075 -0.00519638 0.143592)
(0.00604201 -0.00534244 0.11442)
(0.00510472 -0.00549159 0.0870844)
(0.00424692 -0.00574464 0.0589439)
(0.00211148 -0.00580299 0.0209793)
(0.00723564 -0.00337912 0.273757)
(0.00750118 -0.00371435 0.229966)
(0.00748259 -0.00403611 0.191784)
(0.00718603 -0.00435968 0.158133)
(0.00658597 -0.00470265 0.127967)
(0.00574997 -0.0050892 0.0999352)
(0.00504078 -0.00555207 0.0713737)
(0.00302066 -0.00609328 0.0331569)
(0.00717529 -0.00204793 0.287498)
(0.00745372 -0.00234969 0.244624)
(0.00747466 -0.00270158 0.207194)
(0.0072465 -0.00309709 0.174144)
(0.00674385 -0.00355494 0.144483)
(0.00603779 -0.0040861 0.116935)
(0.00548901 -0.00464607 0.0889293)
(0.00375021 -0.00552965 0.0514247)
(0.00682712 -0.000698588 0.294072)
(0.00703607 -0.000941735 0.255554)
(0.00705407 -0.00128131 0.221556)
(0.00687177 -0.00170053 0.191176)
(0.00645919 -0.00222 0.163638)
(0.00588345 -0.00283187 0.137849)
(0.00546812 -0.00341642 0.111406)
(0.00410374 -0.00449244 0.0754491)
(0.00623441 0.000395712 0.293053)
(0.0063279 0.000191331 0.262954)
(0.00633791 -0.000106469 0.234778)
(0.0061974 -0.00051377 0.208835)
(0.0058876 -0.00106406 0.18483)
(0.00546526 -0.00172912 0.161935)
(0.00517318 -0.00232683 0.137912)
(0.00422356 -0.00345765 0.103895)
(0.0119255 -0.0102412 0.209604)
(0.0120853 -0.010509 0.183215)
(0.0120069 -0.0106054 0.159945)
(0.0115135 -0.010428 0.140044)
(0.0104784 -0.00989054 0.12361)
(0.00876519 -0.0089176 0.110754)
(0.00633715 -0.00754042 0.102154)
(0.00199322 -0.00481377 0.101053)
(0.0128638 -0.00905992 0.232644)
(0.0133411 -0.00921823 0.198981)
(0.0134933 -0.00929761 0.170391)
(0.0131732 -0.00919371 0.146375)
(0.0122154 -0.0088082 0.126688)
(0.0104494 -0.00803908 0.111263)
(0.00790106 -0.00685073 0.100712)
(0.00335365 -0.00445845 0.098946)
(0.0134206 -0.0074965 0.254278)
(0.0140255 -0.00762418 0.215725)
(0.0143198 -0.00769949 0.183136)
(0.0141539 -0.00765232 0.155892)
(0.0133302 -0.00740897 0.133576)
(0.0116362 -0.00688023 0.115987)
(0.00907903 -0.00597931 0.103619)
(0.00422445 -0.00410044 0.100363)
(0.0136673 -0.00539548 0.272762)
(0.0143 -0.00543028 0.231875)
(0.0146481 -0.00541319 0.197328)
(0.0145709 -0.00531492 0.168424)
(0.01387 -0.00510347 0.144669)
(0.0123191 -0.00472213 0.125792)
(0.0098522 -0.00404735 0.112165)
(0.00466171 -0.00275571 0.107112)
(0.0134652 -0.00296762 0.285932)
(0.0140145 -0.00285205 0.245849)
(0.0143068 -0.00267819 0.211876)
(0.0142156 -0.00245543 0.183308)
(0.0135694 -0.00219855 0.15966)
(0.0121572 -0.00190278 0.140654)
(0.00979326 -0.00148054 0.126547)
(0.0042985 -0.00110087 0.119599)
(0.0128377 -0.000441614 0.292652)
(0.0132041 -0.000167826 0.256839)
(0.0133563 0.000161217 0.226191)
(0.0131671 0.000493721 0.200123)
(0.0125016 0.000775558 0.17829)
(0.0111888 0.000955935 0.160464)
(0.00900696 0.00101684 0.146784)
(0.00365039 0.000111709 0.138556)
(0.0114531 0.00222289 0.292493)
(0.0114773 0.00279895 0.264863)
(0.0113932 0.00337345 0.239883)
(0.0110286 0.0038533 0.218053)
(0.0102888 0.00418266 0.199441)
(0.00903338 0.00429055 0.183991)
(0.00703181 0.00406639 0.171757)
(0.00239347 0.00217636 0.162857)
(-0.00619736 0.00560294 0.718051)
(-0.0050797 0.00502861 0.642975)
(-0.00404141 0.0046155 0.589422)
(-0.00296865 0.00420573 0.544699)
(-0.00187241 0.00387219 0.505669)
(-0.000734671 0.00356474 0.469901)
(0.000459986 0.00332444 0.432651)
(0.0016392 0.00328034 0.375728)
(-0.0117183 0.00586436 0.828939)
(-0.0107078 0.00454808 0.708665)
(-0.0091686 0.00424894 0.629069)
(-0.00739916 0.00405615 0.572899)
(-0.00553155 0.00379164 0.526252)
(-0.0037054 0.00342647 0.485183)
(-0.00190262 0.00303344 0.444092)
(-0.000244652 0.00275519 0.383772)
(-0.0110455 0.00250116 0.875034)
(-0.0118261 0.00155895 0.729136)
(-0.0110571 0.00148407 0.634778)
(-0.00947427 0.00148419 0.57309)
(-0.00752996 0.00134527 0.522887)
(-0.00549421 0.000986632 0.479372)
(-0.00347601 0.000462293 0.436626)
(-0.00168387 -0.000137139 0.375152)
(-0.010623 -0.00113873 0.795541)
(-0.0106813 -0.00118465 0.676782)
(-0.00995194 -0.00130178 0.596847)
(-0.0086067 -0.00137742 0.540101)
(-0.00689572 -0.00155176 0.492825)
(-0.00504061 -0.00192368 0.451359)
(-0.00316262 -0.00249206 0.410419)
(-0.00147748 -0.00323109 0.351577)
(-0.00668193 -0.00243866 0.656816)
(-0.00677191 -0.00286941 0.58284)
(-0.00619011 -0.00314321 0.528473)
(-0.00523125 -0.00331005 0.482665)
(-0.0039984 -0.00355529 0.442736)
(-0.00260185 -0.00394564 0.406621)
(-0.00113473 -0.00451386 0.370125)
(0.00022221 -0.0052911 0.316837)
(-0.00350794 -0.00311885 0.537117)
(-0.00324477 -0.00317783 0.492134)
(-0.0027764 -0.00336042 0.45249)
(-0.00208176 -0.00361904 0.416716)
(-0.00119042 -0.00392805 0.384312)
(-0.000169671 -0.00429619 0.354081)
(0.000914804 -0.00473658 0.322675)
(0.00191255 -0.00525565 0.275828)
(-0.00206482 -0.00341547 0.44898)
(-0.00155801 -0.00338793 0.414527)
(-0.000954451 -0.00351591 0.382901)
(-0.000231365 -0.00372566 0.353724)
(0.000587783 -0.00395517 0.326779)
(0.00147188 -0.00419931 0.301134)
(0.00239311 -0.0044655 0.273973)
(0.00325269 -0.0047727 0.233068)
(-0.00556341 0.00435207 0.713595)
(-0.00434613 0.00363851 0.642546)
(-0.00323156 0.00347186 0.590788)
(-0.00227376 0.00338384 0.547166)
(-0.00138659 0.00328004 0.508914)
(-0.000460607 0.00310472 0.47372)
(0.00055697 0.00295896 0.436899)
(0.00159525 0.00299676 0.380237)
(-0.011333 0.00372839 0.820576)
(-0.0109282 0.00348606 0.705222)
(-0.00877716 0.00363814 0.629342)
(-0.00678406 0.00379448 0.574925)
(-0.00495304 0.00363563 0.529352)
(-0.00328337 0.00324762 0.488998)
(-0.00165634 0.00283152 0.448413)
(-0.000151982 0.00255295 0.388407)
(-0.00898518 -0.00119297 0.845394)
(-0.0119466 5.26949e-05 0.720517)
(-0.0106416 0.000935621 0.634108)
(-0.00879275 0.0014215 0.574712)
(-0.00682121 0.00142095 0.525709)
(-0.00490848 0.00105267 0.482932)
(-0.00306846 0.000510321 0.4407)
(-0.00144812 -8.35871e-05 0.379561)
(-0.00874744 -0.00319964 0.784344)
(-0.0100876 -0.00193857 0.672287)
(-0.00925406 -0.00135802 0.596366)
(-0.00782982 -0.00111637 0.541369)
(-0.00618154 -0.00119626 0.495111)
(-0.00447671 -0.00156009 0.454344)
(-0.00278439 -0.00213139 0.413932)
(-0.00127315 -0.00286676 0.355533)
(-0.00557715 -0.00247667 0.650123)
(-0.00591793 -0.00251779 0.580854)
(-0.00539895 -0.00257838 0.528407)
(-0.00452713 -0.00267015 0.483687)
(-0.00343384 -0.00291414 0.444522)
(-0.00221126 -0.00333083 0.409005)
(-0.000925429 -0.00392506 0.372989)
(0.00027156 -0.00472681 0.320053)
(-0.0030542 -0.00257456 0.534884)
(-0.00284681 -0.00240474 0.491443)
(-0.00240266 -0.00254293 0.452674)
(-0.00177607 -0.0028339 0.417573)
(-0.000988978 -0.00319697 0.385741)
(-8.80692e-05 -0.00361965 0.355996)
(0.000872844 -0.0041047 0.324988)
(0.00176482 -0.00466099 0.278438)
(-0.00181408 -0.00271568 0.448181)
(-0.00135997 -0.00262629 0.41437)
(-0.000799979 -0.00277937 0.383267)
(-0.000139679 -0.00304083 0.354576)
(0.000599001 -0.00332425 0.328069)
(0.00138945 -0.00361662 0.302797)
(0.0022091 -0.00392095 0.275934)
(0.00297083 -0.00425286 0.235247)
(-0.00360737 0.0014863 0.710852)
(-0.00273393 0.00156218 0.643274)
(-0.00207806 0.00188319 0.592262)
(-0.00155372 0.00221727 0.549102)
(-0.000996171 0.00231414 0.511287)
(-0.000304454 0.00230374 0.476517)
(0.000532044 0.00231804 0.440067)
(0.0014276 0.00253241 0.383657)
(-0.00868531 0.000889826 0.801044)
(-0.0080678 0.00181631 0.70319)
(-0.00617522 0.00237647 0.630469)
(-0.00485695 0.00273508 0.576906)
(-0.00368372 0.00263169 0.531811)
(-0.002521 0.00236841 0.491883)
(-0.00128746 0.00212765 0.451678)
(-9.56804e-05 0.00206617 0.391942)
(-0.00555949 -0.00163375 0.824293)
(-0.00720176 0.000162705 0.718035)
(-0.00632801 0.00113672 0.634958)
(-0.0054678 0.00143373 0.57636)
(-0.00448054 0.00125944 0.527797)
(-0.00337993 0.000862968 0.485456)
(-0.00218476 0.000393074 0.443629)
(-0.00108961 -6.25931e-05 0.382812)
(-0.00509391 2.06147e-05 0.775947)
(-0.00626145 0.000504786 0.670663)
(-0.0057443 0.000488027 0.596782)
(-0.00503746 0.000208129 0.542368)
(-0.00414806 -0.0002522 0.496573)
(-0.0031259 -0.000834243 0.456278)
(-0.00200124 -0.0015066 0.416311)
(-0.000964284 -0.00227722 0.358312)
(-0.00320293 0.00095885 0.64704)
(-0.00339802 0.0003262 0.580024)
(-0.00322457 -0.000331248 0.528256)
(-0.00281671 -0.000908514 0.484002)
(-0.00220589 -0.00152622 0.445322)
(-0.00142779 -0.0022052 0.410302)
(-0.000526171 -0.00297198 0.374733)
(0.00033349 -0.0039005 0.32217)
(-0.00212129 0.000476291 0.533321)
(-0.00188116 2.01105e-05 0.490523)
(-0.00156528 -0.000618982 0.452156)
(-0.00113093 -0.00127842 0.417492)
(-0.000552826 -0.00192378 0.386146)
(0.000139553 -0.00255328 0.356859)
(0.000899895 -0.00318571 0.326233)
(0.00159476 -0.00386185 0.27999)
(-0.00136525 -0.000643735 0.44691)
(-0.000938111 -0.000992403 0.413419)
(-0.000455792 -0.00145749 0.38269)
(0.000100985 -0.001932 0.354431)
(0.000722744 -0.00237147 0.328345)
(0.00138268 -0.0027815 0.303435)
(0.00206316 -0.00317582 0.276855)
(0.00267704 -0.00359183 0.236382)
(-0.00263833 -0.00064787 0.711501)
(-0.00228921 0.00033193 0.644217)
(-0.00227358 0.00125431 0.592964)
(-0.00216988 0.00171115 0.550046)
(-0.00176376 0.00183653 0.512788)
(-0.00106973 0.00186429 0.478672)
(-0.00015616 0.00191447 0.442813)
(0.000889462 0.00215648 0.38686)
(-0.00535844 -0.000182317 0.796618)
(-0.00429076 0.000770527 0.70449)
(-0.00372626 0.00148178 0.63144)
(-0.00361984 0.00169958 0.577795)
(-0.00328192 0.00166072 0.533075)
(-0.00255957 0.00159458 0.493788)
(-0.00152511 0.00157002 0.454225)
(-0.000368086 0.00170364 0.395017)
(-0.00160368 0.00165446 0.822869)
(-0.00141838 0.0018915 0.719342)
(-0.00210309 0.00185652 0.635552)
(-0.00286666 0.00156513 0.576582)
(-0.00308817 0.00117145 0.528354)
(-0.00274985 0.00080155 0.486725)
(-0.00199176 0.000451433 0.445635)
(-0.00110236 0.000130743 0.385459)
(-0.00302728 0.00585083 0.774176)
(-0.00264256 0.0039759 0.669582)
(-0.00269053 0.00260253 0.595977)
(-0.00306533 0.00155408 0.541699)
(-0.00309113 0.000675658 0.496501)
(-0.0026786 -7.93371e-05 0.457016)
(-0.00191755 -0.000800419 0.417812)
(-0.00104105 -0.0015756 0.360473)
(-0.00170515 0.00492363 0.644366)
(-0.00166495 0.00328903 0.577911)
(-0.00193417 0.00178389 0.526418)
(-0.00212863 0.000612576 0.482726)
(-0.00198766 -0.000348898 0.444859)
(-0.00151796 -0.00120446 0.410666)
(-0.000795336 -0.00205013 0.375803)
(1.24884e-05 -0.00301346 0.323838)
(-0.00169884 0.00323717 0.53014)
(-0.00150247 0.00191026 0.487809)
(-0.00143177 0.000715119 0.450122)
(-0.00124751 -0.000235329 0.416288)
(-0.000869465 -0.00102782 0.385759)
(-0.000322909 -0.00172184 0.357193)
(0.000346034 -0.00236746 0.327122)
(0.0010247 -0.00302574 0.281333)
(-0.00127533 0.000801387 0.444003)
(-0.000951771 -5.90603e-05 0.411175)
(-0.000632042 -0.0007676 0.381238)
(-0.000241807 -0.00133671 0.353749)
(0.000224733 -0.00181679 0.328349)
(0.00075537 -0.00223297 0.303994)
(0.00134013 -0.0026089 0.277826)
(0.0019102 -0.00297393 0.237713)