/*--------------------------------*- C++ -*----------------------------------*\
| =========                 |                                                 |
| \\      /  F ield         | OpenFOAM: The Open Source CFD Toolbox           |
|  \\    /   O peration     | Version:  plus.master.MPPICInterFoam            |
|   \\  /    A nd           | Web:      www.OpenFOAM.com                      |
|    \\/     M anipulation  |                                                 |
\*---------------------------------------------------------------------------*/
FoamFile
{
    version     2.0;
    format      ascii;
    class       scalarField;
    location    "3.8/lagrangian/kinematicCloud";
    object      d;
}
// * * * * * * * * * * * * * * * * * * * * * * * * * * * * * * * * * * * * * //


1595
(
0.000489611
0.000507699
0.000453605
0.000522293
0.000505942
0.000538346
0.000495243
0.000558641
0.000538788
0.000546882
0.000494764
0.00053018
0.000531082
0.000471479
0.000559051
0.00053138
0.000508925
0.000563349
0.000507222
0.000538359
0.000524359
0.000489223
0.000481199
0.000530541
0.000469076
0.000476962
0.000499425
0.000465579
0.000492355
0.000575267
0.000540578
0.000485746
0.000500805
0.000504387
0.000518339
0.000481044
0.000507374
0.000534244
0.000521313
0.000550907
0.000533607
0.000527941
0.000561088
0.000513285
0.000487863
0.000508123
0.000467937
0.00050378
0.000565325
0.000475306
0.000563664
0.00052164
0.0005567
0.000473444
0.000551111
0.000529585
0.000560145
0.000443621
0.000488607
0.000511279
0.000596973
0.000552624
0.000554928
0.000449047
0.000505395
0.000438858
0.000508338
0.000518944
0.000570965
0.000493346
0.000474092
0.000421314
0.000541975
0.000495051
0.000493302
0.000496134
0.000481409
0.000591112
0.000542002
0.000585505
0.000482217
0.000537049
0.000576277
0.000549967
0.000527271
0.00052154
0.000518866
0.000564195
0.000513288
0.000480123
0.000488399
0.000523453
0.000493948
0.000577654
0.000590231
0.000462264
0.000441808
0.000589046
0.000494874
0.000529989
0.000579644
0.000530505
0.000526965
0.000550315
0.000531946
0.000563441
0.000512417
0.000559493
0.000557315
0.000520799
0.000425372
0.000570306
0.00052672
0.000592187
0.000505872
0.000494594
0.000471997
0.00050938
0.000478829
0.00048456
0.000493059
0.000472742
0.000492385
0.000493862
0.000483253
0.00053686
0.000540101
0.000547627
0.000544051
0.000507443
0.000536407
0.000526024
0.000592529
0.000594561
0.000597857
0.000506861
0.000513644
0.00056942
0.000560045
0.000533494
0.000500364
0.000551741
0.000548152
0.000486511
0.000545342
0.000505423
0.00050914
0.000487059
0.000560216
0.000602359
0.000560285
0.000522632
0.000537652
0.000616284
0.000605452
0.000520327
0.000543699
0.000522301
0.000544401
0.000554526
0.000515544
0.00051462
0.000598375
0.000488247
0.000533833
0.000518965
0.000481084
0.000601822
0.000545237
0.000559375
0.000539329
0.000497523
0.000498498
0.000532029
0.000513361
0.000547887
0.000548115
0.000567567
0.000502008
0.000523395
0.000529045
0.000546413
0.000491226
0.000483276
0.000507218
0.000482928
0.000585976
0.000499313
0.000578727
0.000524261
0.000558581
0.000601293
0.000493932
0.000590929
0.000559999
0.000483991
0.000493252
0.000497672
0.000546765
0.000541904
0.000529721
0.000537211
0.000501107
0.00050487
0.00051032
0.000523181
0.000517663
0.000554558
0.000497927
0.000580045
0.000506614
0.000549529
0.000486388
0.000472173
0.000516565
0.000543224
0.000598564
0.000536487
0.00047707
0.000599871
0.000514973
0.000550838
0.000545034
0.000525476
0.000524505
0.000543147
0.000530217
0.000516985
0.000537106
0.000508179
0.00051153
0.000499418
0.000516216
0.000565237
0.000497804
0.000611818
0.000457915
0.000578981
0.000531988
0.000487709
0.000523191
0.000501864
0.000510856
0.00051117
0.000570622
0.000498161
0.000526457
0.000547042
0.000553797
0.000565362
0.000479488
0.0005504
0.0004994
0.00051961
0.000600059
0.00055955
0.000547392
0.000531981
0.000578611
0.000508257
0.000485764
0.000534526
0.000513213
0.000557946
0.000490966
0.000536618
0.000483941
0.000553327
0.000538669
0.000524756
0.000526969
0.000467338
0.00049198
0.000531321
0.00056691
0.000593726
0.000546668
0.000482839
0.000594663
0.000556882
0.000544071
0.000526697
0.000505006
0.000504772
0.000523885
0.000588101
0.000504414
0.000531137
0.000517513
0.000475714
0.000575225
0.000544563
0.000510627
0.000536419
0.000531001
0.000476588
0.00051607
0.000510523
0.000541784
0.00048066
0.000530397
0.000536795
0.000545935
0.000556917
0.000517607
0.000483553
0.000464086
0.000501701
0.000487468
0.000576701
0.000516465
0.000589512
0.000574106
0.000446729
0.000492572
0.000561283
0.000526994
0.000509835
0.000565366
0.000507477
0.000588945
0.000508104
0.000575381
0.000537453
0.000477682
0.00045588
0.000459177
0.000586503
0.000535176
0.000624363
0.000555007
0.000499234
0.000487121
0.00056116
0.000536608
0.000542397
0.000511279
0.000522293
0.000467688
0.000519697
0.00054143
0.000501128
0.000558379
0.000509951
0.000570311
0.000526858
0.000518409
0.000512226
0.000510256
0.000512707
0.000536004
0.000528559
0.00049168
0.000528249
0.000476402
0.000542669
0.000531288
0.000543207
0.000571962
0.000516499
0.000537227
0.000604058
0.000475072
0.000543188
0.000533369
0.000571336
0.000492702
0.000460461
0.000541557
0.000494147
0.000522538
0.000523038
0.000541366
0.000489739
0.000527485
0.000514915
0.000503198
0.0005606
0.00054212
0.000514712
0.000544688
0.000616672
0.000463599
0.000516635
0.000570341
0.00050829
0.000514437
0.00056945
0.000512799
0.000557527
0.000578925
0.000522143
0.000504774
0.000519873
0.000503648
0.00052828
0.000571082
0.000467576
0.00053932
0.00053848
0.000632718
0.00052048
0.000480349
0.00044448
0.000518162
0.000532125
0.000498606
0.000486616
0.000516501
0.000512588
0.000559863
0.000506158
0.000492702
0.00053813
0.000563906
0.00051317
0.00052801
0.000528949
0.000539771
0.000501843
0.000467332
0.000527093
0.000506742
0.000522614
0.000562439
0.000545793
0.000527273
0.000529831
0.000606474
0.000518166
0.000413192
0.000547003
0.000542689
0.000542078
0.000517389
0.000537241
0.000522458
0.000571484
0.000525587
0.000474664
0.000542803
0.000569591
0.00052832
0.000543102
0.000503868
0.000550159
0.000552021
0.000525472
0.000496214
0.000580151
0.000496681
0.000522778
0.000516753
0.000526583
0.000575932
0.000498636
0.000515616
0.000508986
0.000547094
0.000464543
0.000561398
0.000564537
0.000471223
0.000514636
0.000543225
0.000479611
0.000469912
0.000514892
0.000472406
0.000512028
0.000559741
0.000595283
0.00057733
0.000527264
0.000525651
0.000598361
0.000532857
0.000587906
0.00059305
0.000514691
0.000509728
0.000572143
0.000541814
0.000593791
0.000576684
0.000563551
0.00051754
0.000506268
0.000571655
0.000502001
0.000493157
0.000556492
0.000548559
0.000544178
0.000540504
0.000478586
0.000550509
0.000539714
0.000528853
0.000464804
0.00053916
0.000523749
0.000566409
0.000526586
0.000546896
0.000489774
0.000547738
0.000488192
0.000531818
0.000555368
0.000523322
0.000499161
0.000543315
0.000436349
0.000495514
0.000466388
0.000593216
0.000512772
0.000541266
0.000509408
0.000532506
0.000560526
0.000468709
0.000525355
0.000566305
0.00054369
0.000522294
0.000539019
0.000467365
0.000501881
0.000538605
0.000574228
0.00054704
0.000601528
0.000516843
0.000487484
0.000538929
0.000632665
0.000557732
0.000560948
0.000538274
0.00053145
0.000568964
0.00052897
0.000539996
0.000520245
0.000571839
0.00055118
0.000540468
0.00052603
0.000565403
0.000601543
0.000567328
0.000556507
0.000530248
0.000592786
0.00052457
0.000538018
0.000544046
0.000567981
0.000556996
0.000548545
0.000537161
0.000508615
0.000560402
0.000538288
0.000566813
0.000543614
0.000542027
0.000521016
0.000508755
0.000512807
0.000559989
0.000492558
0.000553436
0.000489974
0.000600179
0.000544627
0.000483196
0.000591455
0.000544569
0.000538668
0.000501392
0.000532023
0.000489909
0.000559533
0.000534669
0.000495484
0.000558445
0.000523474
0.000451216
0.000523308
0.000492033
0.000541909
0.000559249
0.000503531
0.000539407
0.000574473
0.000550105
0.000540569
0.000506422
0.000534475
0.000569454
0.000582629
0.000525911
0.000498283
0.000508386
0.000525202
0.000527196
0.000514464
0.000529134
0.000554251
0.00057175
0.000579695
0.000578297
0.00051147
0.000495939
0.000505767
0.000497537
0.000510111
0.000482746
0.000486046
0.00051962
0.000540025
0.000558555
0.000559935
0.000618204
0.000550752
0.000575132
0.000578287
0.000493926
0.000508732
0.000541442
0.000551785
0.000549193
0.000523827
0.000533526
0.000513178
0.000480419
0.000528688
0.000562421
0.000541328
0.000539354
0.000507084
0.000555879
0.000588758
0.000500491
0.000565212
0.000571816
0.000497864
0.000563339
0.000505565
0.000541593
0.000548258
0.000566268
0.000566037
0.000505769
0.000496182
0.000530961
0.000518988
0.000509412
0.000503355
0.000476646
0.000521096
0.000512964
0.000431098
0.000507734
0.000537878
0.000562351
0.000456138
0.000526786
0.000528079
0.000555747
0.00049542
0.00045711
0.000588322
0.000542906
0.000587846
0.000585102
0.000553839
0.000537249
0.000590127
0.000507174
0.000501546
0.000524133
0.000588471
0.000463818
0.000516767
0.000496655
0.000516384
0.000489444
0.000513568
0.000518714
0.000558406
0.000517243
0.000577438
0.000578379
0.000528455
0.000542683
0.00055892
0.000536465
0.000555716
0.000538137
0.000502587
0.000499474
0.000487272
0.00055433
0.000520069
0.000523812
0.000502148
0.000568574
0.000513328
0.000522751
0.000608202
0.000506489
0.000558902
0.00049597
0.000541557
0.000609008
0.000533499
0.000552123
0.000526329
0.000559382
0.000551418
0.000489193
0.000522853
0.000535897
0.000509711
0.00054084
0.000530399
0.000525515
0.000496896
0.000517644
0.000535276
0.000499039
0.000530699
0.000546567
0.000514989
0.000504213
0.000524421
0.000565622
0.000591528
0.00054545
0.000573827
0.000540172
0.000574744
0.000525989
0.000526369
0.000485532
0.000548766
0.000524961
0.000508588
0.000521195
0.000583855
0.000511628
0.000518968
0.000545281
0.000620497
0.000553777
0.00058694
0.000526645
0.000532855
0.000506469
0.000519425
0.000543588
0.00051754
0.000529972
0.000567058
0.000529872
0.000503681
0.000511431
0.000532716
0.000545839
0.000606193
0.000571902
0.000559474
0.000557567
0.00055128
0.00055359
0.000529191
0.000523101
0.000589228
0.000509365
0.000553394
0.00049308
0.000540127
0.000495702
0.000594541
0.000513988
0.000523522
0.000499706
0.000492038
0.00052452
0.000500439
0.000567078
0.000537912
0.000533682
0.00051167
0.000526119
0.000510848
0.000456053
0.000524562
0.000509781
0.00054736
0.000546306
0.000510278
0.000525552
0.000505734
0.000565907
0.0006061
0.000619659
0.000469899
0.000574668
0.000546911
0.000468559
0.000580649
0.000547816
0.000568284
0.000549873
0.000549997
0.000584315
0.000587703
0.000578773
0.000550056
0.000525127
0.000488135
0.000540529
0.000541788
0.000497143
0.000505411
0.000525666
0.000510272
0.000512847
0.000513041
0.000554138
0.00059262
0.000485719
0.000522139
0.000539622
0.000514144
0.000586998
0.00057901
0.00056224
0.000521792
0.000477801
0.000493194
0.000511278
0.0004872
0.000552657
0.000584058
0.00054676
0.000546238
0.000553065
0.000480796
0.000537708
0.000518999
0.00057832
0.000546005
0.000615835
0.000547405
0.000599341
0.000565517
0.000540669
0.00049965
0.000517929
0.000563852
0.000556535
0.000494906
0.000519953
0.000558268
0.000488523
0.000501984
0.000567136
0.000549164
0.000583749
0.000521438
0.000487931
0.000537592
0.000575244
0.000528519
0.00054812
0.000546038
0.000515607
0.000579034
0.000529697
0.000566192
0.000579463
0.000471456
0.000538512
0.000551492
0.000556742
0.000561184
0.000577687
0.000554052
0.000544975
0.000607198
0.000538272
0.000497275
0.000600036
0.000558008
0.000560381
0.000574623
0.000521394
0.000566986
0.000534308
0.000476019
0.000522526
0.000574763
0.000572413
0.000510437
0.000518552
0.000507155
0.000509879
0.000568161
0.00049016
0.000546064
0.000571803
0.000542804
0.000516413
0.000572773
0.000601878
0.000510076
0.000531145
0.000565555
0.000511728
0.000575777
0.000574802
0.000576954
0.000550128
0.000553897
0.000568864
0.000540036
0.000559709
0.00047414
0.000504218
0.000602735
0.0005103
0.000535969
0.000512421
0.000524146
0.000530663
0.000521238
0.000537347
0.000535211
0.000489728
0.000499007
0.000469816
0.000505168
0.000538779
0.000521301
0.000565443
0.000540457
0.000530104
0.000562589
0.000484715
0.000492264
0.000541952
0.00049314
0.000465786
0.000520141
0.000540072
0.000521029
0.000527356
0.0005304
0.000539334
0.000517383
0.000613184
0.000516088
0.000577239
0.00050564
0.000520143
0.000580551
0.000479608
0.000500774
0.00050815
0.000554341
0.000549187
0.000568079
0.000589013
0.0004931
0.000571762
0.000525859
0.000523616
0.0004879
0.000475656
0.000616592
0.000486889
0.000569571
0.000567644
0.000550441
0.000611963
0.000577526
0.000512667
0.00052894
0.00050725
0.000550337
0.000575637
0.000563596
0.000605633
0.000514939
0.000515733
0.000551288
0.000592915
0.000569518
0.00055035
0.000575961
0.000485478
0.000527799
0.000519184
0.000487524
0.000545578
0.000552355
0.000546986
0.000550286
0.000512803
0.000513476
0.000526873
0.000503565
0.000539025
0.000524841
0.000524631
0.000523287
0.000565004
0.000518876
0.000573624
0.000462509
0.000561428
0.00051681
0.000543407
0.000492085
0.000549704
0.000601269
0.000563081
0.000500112
0.000572901
0.000547929
0.000565452
0.000514258
0.000542449
0.000524383
0.000487998
0.000623963
0.000585898
0.000577834
0.000521431
0.000552983
0.000534415
0.000539859
0.00052654
0.000507483
0.000633186
0.000546686
0.000537525
0.00054306
0.000591906
0.000548213
0.000511597
0.000565464
0.000520081
0.000539516
0.00053629
0.000531833
0.000528908
0.000521704
0.000533108
0.000543423
0.000511774
0.000525314
0.000512732
0.000459687
0.000559207
0.000582459
0.000487638
0.000564458
0.000563595
0.000603306
0.000559501
0.00052209
0.000510342
0.000525701
0.000519327
0.000525057
0.000543714
0.000548936
0.000573325
0.00056612
0.000516177
0.000567105
0.000493127
0.000557275
0.000514971
0.000507348
0.000588573
0.000600123
0.000552203
0.000568467
0.000581183
0.000602573
0.000515355
0.000539817
0.000617453
0.000538298
0.000561896
0.000548397
0.000595001
0.000553984
0.000539536
0.000561265
0.000605852
0.000572373
0.000515435
0.000558454
0.000586894
0.000522765
0.000551407
0.000537612
0.000480198
0.000499017
0.000494763
0.000530739
0.000574387
0.000585415
0.000506623
0.000565772
0.000628107
0.000547548
0.000599995
0.000544087
0.000571562
0.00055367
0.000591206
0.000565343
0.000546814
0.000512767
0.000554335
0.000526287
0.000523749
0.000509945
0.000532751
0.000522082
0.00057194
0.000500639
0.000525841
0.000526419
0.000548438
0.000492263
0.000492775
0.000502417
0.000507076
0.000569697
0.000529446
0.000518606
0.000559549
0.000529926
0.000534167
0.000519415
0.00052626
0.000513357
0.000531141
0.000506557
0.000585655
0.000529646
0.000571959
0.000491807
0.000553286
0.000515743
0.000537439
0.000523856
0.000526745
0.000593712
0.000529603
0.000521143
0.000559683
0.000546978
0.000507368
0.000531207
0.000559697
0.000530056
0.000530476
0.00054649
0.00050328
0.00053165
0.000533429
0.000580184
0.00054452
0.000544691
0.000561341
0.000538894
0.000575937
0.000500836
0.000467411
0.000509509
0.000561484
0.000529271
0.000518442
0.000521148
0.000592521
0.000464738
0.000606271
0.000597269
0.00054901
0.000518233
0.000570414
0.000576262
0.000561458
0.00049213
0.000543251
0.000533442
0.000466469
0.000521491
0.000546917
0.000498823
0.000533537
0.000444702
0.000536947
0.000537297
0.000524215
0.000569579
0.000545923
0.000502144
0.000519133
0.000514857
0.000529576
0.000484871
0.000522721
0.000556821
0.000484356
0.000576236
0.000558593
0.000523642
0.000499486
0.000514367
0.000575914
0.000559805
0.000529837
0.000611464
0.000526693
0.000476923
0.00054027
0.000562306
0.000594929
0.000550684
0.000558327
0.000583196
0.000461322
0.000478432
0.000555094
0.000542677
0.000524231
0.000498684
0.000561345
0.000573131
0.000493525
0.000546402
0.000518175
0.000539043
0.000523635
0.000526153
0.000538906
0.000556
0.000535156
0.000528141
0.000534533
0.000527906
0.000521142
0.000499171
0.000548568
0.000571757
0.00058896
0.000638434
0.00055576
0.000539706
0.000540545
0.00053837
0.000548262
0.000566763
0.000512209
0.000568879
0.000552301
0.000554885
0.00055946
0.000575979
0.000587421
0.000561037
0.000566265
0.00054236
0.000560225
0.000548467
0.000508549
0.0005341
0.000533854
0.000574564
0.000504958
0.000547634
0.000597174
0.000562407
0.000560072
0.000531995
0.000623847
0.000544301
0.000589459
0.000558242
0.000532253
0.000519493
0.000543099
0.000524525
0.000529553
0.000572232
0.000549804
0.000536608
0.000604025
0.000537014
0.000511148
0.000606741
0.000550587
0.000482804
0.000483505
0.000501506
0.000531083
0.000563525
0.000554141
0.000531293
0.000559495
0.000544765
0.000557137
0.000532447
0.000628087
0.000555773
0.000547964
0.000593577
0.000519765
0.000586321
0.000574198
0.000563168
0.000513767
0.000570438
0.000536538
0.000587867
0.000479887
0.000580636
0.000487344
0.000550793
0.000528986
0.00056017
0.000467563
0.00054374
0.000577395
0.000481703
0.000558808
0.000556725
0.000504962
0.000533797
0.000561249
0.000544651
0.000529784
0.000592426
0.00052451
0.00051517
0.000528913
0.000620667
0.000500111
0.000585775
0.000597512
0.000501921
0.000537282
0.000504495
0.000558701
0.000523612
0.0005013
0.000576453
0.00057432
0.000544115
0.000594507
0.000533447
0.000574367
0.000548878
0.000563139
0.000546713
0.000500078
0.000480865
0.000515515
0.000547354
0.000547307
0.00046613
0.000533749
0.000563613
0.00060419
0.000516381
0.000614787
0.000585627
0.000578921
0.000563322
0.000562059
0.000533326
0.00055985
0.000508932
0.000516997
0.000520727
0.000577965
0.000572354
0.000533434
0.000527878
0.000524938
0.00053919
0.000527097
0.000532976
0.000582968
0.000562451
0.000537085
0.00055601
0.000541779
0.000523926
0.000548258
0.000516321
0.00058348
0.000492714
0.000576603
0.000564394
0.000475516
0.000579337
0.000573984
0.000558585
0.000476677
0.000526037
0.000500676
0.000522988
0.000563586
0.000515464
0.0005287
0.000568791
0.000560101
0.000552505
0.000533696
0.000538482
0.000576488
0.000523923
0.000511155
0.000517577
0.000498766
0.000536638
0.000538681
0.000529224
0.000533669
0.000564994
0.000507009
0.00056586
0.000543909
0.000532425
0.000546852
0.00059304
0.000555589
0.000492191
0.000572165
0.000543639
0.000552037
0.000519309
0.000532195
0.000527747
0.000505007
0.000550626
0.000509915
0.000544827
0.000521459
0.000547087
0.000616754
0.000533879
0.000524896
0.000522088
0.000568321
0.00052817
0.000548629
0.000506501
0.000543011
0.000546955
0.000500139
0.000534838
0.000535611
0.000555678
0.000559562
0.000573477
0.000532438
0.000496794
0.000531798
0.000524566
0.000541765
0.00053126
0.000554685
0.000584895
0.000460983
0.000552093
0.000556303
0.000561079
0.000494478
0.000472068
0.000560177
0.000510622
0.000606321
0.000527492
0.000570943
0.000552658
0.000568842
0.000552474
0.00061166
0.000546627
0.000592159
0.000598572
0.000563677
0.000549796
0.00048328
0.000485656
0.000522171
0.000545961
0.000582629
0.000566994
0.00052906
0.000546134
0.000548231
0.000587036
0.000518595
0.000524711
0.000552859
0.000551231
0.000514842
0.000506842
0.00054005
0.000535764
0.000500934
0.000546258
0.000532106
0.000547102
0.000555058
0.000564581
0.000486578
0.000495763
0.000566686
0.000568541
0.000590035
0.00058081
0.000530248
0.000571354
0.000556583
0.000547398
0.000549367
0.00053043
0.000508072
0.000527484
0.000549431
0.0006056
0.000520118
0.000557272
0.000502883
0.000511342
0.000545577
0.000525172
0.000523181
0.000483469
0.000588949
0.000529792
0.000543868
0.000568612
0.000567349
0.000521358
0.000552462
0.000545391
0.000527975
0.00054066
0.000552526
0.000579254
0.000536277
0.00053086
0.000591018
0.000616724
0.000509286
0.000547084
0.00052239
0.000607993
0.00047997
0.000587862
0.000552347
0.000581601
0.000565039
0.000597677
0.000463222
0.000569512
0.00059804
0.000503249
0.00062524
0.00051807
0.000546583
0.000533995
0.00055082
0.000578165
0.000504169
0.000556403
0.000523505
)


// ************************************************************************* //
