/*--------------------------------*- C++ -*----------------------------------*\
| =========                 |                                                 |
| \\      /  F ield         | OpenFOAM: The Open Source CFD Toolbox           |
|  \\    /   O peration     | Version:  plus.master.MPPICInterFoam            |
|   \\  /    A nd           | Web:      www.OpenFOAM.com                      |
|    \\/     M anipulation  |                                                 |
\*---------------------------------------------------------------------------*/
FoamFile
{
    version     2.0;
    format      ascii;
    class       Cloud<basicKinematicMPPICParcel>;
    location    "3.8/lagrangian/kinematicCloud";
    object      positions;
}
// * * * * * * * * * * * * * * * * * * * * * * * * * * * * * * * * * * * * * //

1595
(
(-0.0142655 -0.0278509 0.577005) 6012
(-0.016889 -0.0280442 0.576104) 6012
(-0.0253383 -0.0288002 0.573661) 8518
(-0.0173238 -0.0273389 0.575867) 6012
(-0.0268825 -0.0311216 0.569857) 8462
(-0.0291619 -0.0321693 0.566567) 8462
(-0.0283656 -0.0326042 0.567519) 8462
(-0.0247148 -0.0247835 0.574887) 6005
(-0.0304241 -0.0279172 0.569323) 7950
(-0.0395173 -0.0293107 0.561471) 7952
(-0.0341364 -0.0302685 0.564607) 7951
(-0.0370878 -0.0272942 0.564009) 7951
(-0.0250386 -0.0246869 0.575009) 5493
(-0.0437052 -0.00921587 0.566369) 7935
(-0.0226783 -0.0265858 0.574767) 6005
(-0.0212965 -0.0269382 0.575432) 6005
(-0.0388663 -0.0203478 0.566586) 7943
(-0.0355293 -0.0250622 0.566343) 7950
(-0.0199667 -0.0272871 0.575983) 6005
(-0.0437727 0.00104127 0.566278) 7927
(-0.0413199 -0.00753741 0.569076) 7934
(-0.0419571 -0.00894314 0.568513) 7934
(-0.0240924 -0.0241139 0.576066) 6004
(-0.0321963 -0.0221525 0.571931) 8006
(-0.0338328 -0.0232118 0.570591) 7950
(-0.0240067 -0.0243069 0.576115) 6005
(-0.0400897 -0.0214301 0.564909) 7943
(-0.0409191 0.00159947 0.570906) 7982
(-0.0399164 0.00163923 0.571545) 7982
(-0.023338 -0.0240146 0.575274) 6004
(-0.036644 0.00246361 0.573842) 7142
(-0.0187892 -0.0270044 0.576191) 6004
(-0.0344611 0.00444558 0.574997) 5461
(-0.0392257 0.00162879 0.572135) 7982
(-0.0386975 -0.00786256 0.571883) 7990
(-0.0299926 -0.0252189 0.572514) 8006
(-0.0380537 -0.0171439 0.569536) 7942
(-0.0184055 -0.0263474 0.575745) 6004
(-0.036335 0.0066132 0.573678) 7141
(-0.0400557 -0.0172809 0.56647) 7943
(-0.0232239 -0.0242378 0.575538) 6004
(-0.0294634 -0.0201244 0.574754) 5493
(-0.0387797 0.000758528 0.572005) 7982
(-0.0306252 -0.0202091 0.574339) 7145
(-0.0326105 -0.025679 0.569836) 7950
(-0.039515 -0.000677649 0.571853) 7982
(-0.0392982 -0.00857891 0.571758) 7990
(-0.0167164 -0.0277673 0.576189) 6012
(-0.0373616 -0.000303042 0.573229) 7142
(-0.0369931 -0.0101079 0.573709) 7990
(-0.0396609 -0.0169164 0.567161) 7942
(-0.0346584 -0.0145502 0.573689) 7144
(-0.0117809 -0.0266621 0.576583) 6011
(-0.0330155 -0.0111753 0.575738) 5477
(-0.023275 -0.0238513 0.575371) 6004
(-0.0386143 -0.00752391 0.571901) 7990
(-0.0281611 -0.0211828 0.574753) 5493
(-0.0208968 -0.026866 0.576687) 6005
(-0.0136719 -0.0277322 0.577285) 6011
(-0.0362866 0.00248092 0.574393) 7142
(-0.0366214 0.00200532 0.573314) 7142
(-0.0245977 -0.0234267 0.575329) 5492
(-0.028122 -0.0190134 0.575235) 5493
(-0.0167275 -0.0272791 0.576754) 6012
(-0.0229648 -0.024494 0.575848) 6004
(-0.0370275 -0.00931738 0.574419) 7143
(-0.0309252 -0.0221889 0.573324) 7145
(-0.0205388 -0.0261766 0.576159) 6004
(-0.0277411 -0.0208674 0.574913) 5493
(-0.0292466 -0.0214675 0.574882) 7145
(-0.0286245 -0.0214942 0.57545) 5493
(-0.0374995 -0.00732312 0.574604) 7143
(-0.0298211 -0.0194466 0.574677) 5493
(-0.0389515 0.000101084 0.572625) 7982
(-0.0373243 0.00855216 0.573015) 7974
(-0.0332815 -0.00378916 0.575618) 5468
(-0.0321743 -0.0108385 0.576003) 5477
(-0.0365311 -0.0204327 0.568336) 7942
(-0.0278014 -0.0217505 0.574924) 5493
(-0.0268015 -0.0174454 0.575117) 5492
(-0.0134892 -0.0276399 0.577439) 6011
(-0.0352413 0.00247746 0.57462) 5469
(-0.0325361 0.00337585 0.575121) 5468
(-0.0356385 -0.0067402 0.574325) 7143
(-0.0192953 -0.0253779 0.576435) 6004
(-0.0333102 -0.00842843 0.575637) 5477
(-0.0306419 -0.0188053 0.574711) 5485
(-0.0289947 -0.0196923 0.574623) 5493
(-0.0374279 -0.00818833 0.57321) 7990
(-0.032169 -0.016385 0.575245) 7144
(-0.0228984 -0.0243519 0.576027) 6004
(-0.0323497 -0.00904528 0.576119) 5477
(-0.0329461 -0.00821533 0.576188) 5477
(-0.0312617 -0.00920585 0.576059) 5476
(-0.0322813 0.00322987 0.575158) 5468
(-0.022705 -0.0261814 0.576027) 6005
(-0.0212501 -0.0267423 0.576591) 6005
(-0.0323409 0.00472885 0.575138) 5460
(-0.0349052 -0.00613999 0.575354) 5477
(-0.0320944 0.00386257 0.575573) 5460
(-0.032512 -0.00489801 0.575688) 5476
(-0.0321819 -0.00387187 0.575816) 5476
(-0.0326104 0.00486276 0.575683) 5460
(-0.0324198 0.00451742 0.575405) 5460
(-0.0342575 0.00715121 0.574717) 5461
(-0.0259666 -0.0223834 0.575196) 5493
(-0.0378324 -0.0162863 0.569994) 7942
(-0.0362928 -0.00039069 0.574064) 7142
(-0.0296169 -0.0161375 0.575635) 5485
(-0.0238923 -0.02292 0.575758) 5492
(-0.0257129 0.0198595 0.576556) 5444
(-0.0187822 -0.0249031 0.576641) 6003
(-0.0271736 -0.0210376 0.575564) 5493
(-0.0325315 -0.0058251 0.575852) 5476
(-0.0322856 -0.00918919 0.57633) 5477
(-0.0332202 0.001852 0.57636) 5468
(-0.0339197 -0.0132287 0.574946) 7144
(-0.0365288 0.0076003 0.573509) 7141
(-0.0227562 -0.0259793 0.575774) 6005
(-0.0312161 0.0126192 0.575459) 5453
(-0.0212248 -0.0263935 0.576167) 6005
(-0.0329782 -0.0147328 0.575267) 7144
(-0.0344275 -0.00890907 0.575398) 5477
(-0.0117283 -0.027148 0.577335) 6011
(-0.0335947 -0.00887451 0.575895) 5477
(-0.0330229 -0.00932224 0.575442) 5477
(-0.0295944 -0.011087 0.575908) 5484
(-0.0332169 -0.00841545 0.575398) 5477
(-0.029734 -0.012777 0.576309) 5484
(-0.0342372 -0.00616825 0.575517) 5477
(-0.0260213 -0.0224985 0.575363) 5493
(-0.0227618 -0.0254973 0.575477) 6005
(-0.0315423 -0.00469848 0.575759) 5476
(-0.0330263 -0.00567366 0.575364) 5477
(-0.0330248 -0.00563405 0.575336) 5477
(-0.0343175 0.00230847 0.575364) 5469
(-0.0342676 -0.00703482 0.5754) 5477
(-0.0326617 -0.00855408 0.575482) 5477
(-0.0329524 -0.00844021 0.575408) 5477
(-0.0329256 -0.00887757 0.575628) 5477
(-0.0322602 -0.00969433 0.576199) 5477
(-0.0333841 -0.00610917 0.575489) 5477
(-0.0295307 0.0043133 0.576723) 5459
(-0.0227991 -0.0257965 0.575742) 6005
(-0.0187676 -0.0257737 0.576002) 6004
(-0.0270655 -0.0189441 0.575997) 5492
(-0.0112993 -0.0265668 0.577163) 6011
(-0.0204555 -0.0247224 0.576838) 6004
(-0.03075 -0.00379862 0.575999) 5476
(-0.0331248 -0.00567522 0.575185) 5477
(-0.0295874 -0.0109147 0.575585) 5484
(-0.0332128 0.00522976 0.575316) 5461
(-0.0311351 0.0021327 0.576418) 5468
(-0.0299203 -0.00385174 0.575957) 5475
(-0.0319508 -0.00798417 0.575892) 5476
(-0.029189 -0.0116124 0.576514) 5484
(-0.029802 0.00245852 0.577043) 5467
(-0.0365318 -0.0070679 0.573854) 7143
(-0.0361023 -0.000405045 0.57428) 7142
(-0.0353077 0.00828246 0.573769) 7141
(-0.0272202 -0.0211621 0.575556) 5493
(-0.00776374 -0.0266004 0.577834) 6018
(-0.0295413 0.00121176 0.577296) 5467
(-0.0214381 -0.0233051 0.576843) 6003
(-0.0305198 0.00342332 0.576099) 5467
(-0.0325218 -0.00522912 0.576335) 5476
(-0.0330652 -0.00617156 0.576466) 5477
(-0.0284645 -0.0192404 0.574456) 5493
(-0.022844 -0.02398 0.575301) 6004
(-0.0270507 -0.0207617 0.575356) 5493
(-0.0180258 -0.0256366 0.576194) 6003
(-0.0339873 -0.0104724 0.575014) 5477
(-0.020369 -0.0257608 0.576358) 6004
(-0.0159881 -0.0259757 0.576132) 6011
(-0.032309 0.00954755 0.575419) 5461
(-0.0324804 0.00830294 0.575408) 5461
(-0.0286217 -0.0116134 0.576616) 5483
(-0.029826 -0.00408226 0.576694) 5475
(-0.0300256 -0.0102528 0.5765) 5476
(-0.0306299 -0.00889781 0.576685) 5476
(-0.0262921 -0.0187744 0.576057) 5492
(-0.029544 -1.44248e-05 0.577569) 5467
(-0.0313841 0.00179264 0.576865) 5468
(-0.0160979 -0.0258864 0.57644) 6011
(-0.0344969 -0.00655378 0.57521) 5477
(-0.0174293 0.0206555 0.577747) 6610
(-0.0292665 -0.0159632 0.575624) 5484
(-0.0321456 -0.00926831 0.576417) 5477
(-0.0289112 -0.00341216 0.576592) 5475
(-0.0166208 -0.0236265 0.57764) 6002
(-0.0255384 -0.0179297 0.576195) 5491
(-0.0240357 -0.0210795 0.57587) 5492
(-0.0303517 -0.00794635 0.577156) 5476
(-0.0191567 -0.0250786 0.576042) 6004
(-0.015809 -0.0254954 0.57586) 6011
(-0.0351608 -0.00743934 0.5751) 5477
(-0.023596 -0.0225157 0.576064) 5492
(-0.0327887 0.00759414 0.57573) 5461
(-0.0305098 -0.0102827 0.5758) 5476
(-0.0307817 -0.0102478 0.575814) 5476
(-0.0334925 0.00159943 0.575601) 5469
(-0.0340489 0.000962071 0.575258) 5469
(-0.0273585 0.0130422 0.577039) 5451
(-0.0160239 -0.0233665 0.577922) 6002
(-0.0290086 0.00935776 0.576644) 5459
(-0.0298728 -0.00497089 0.577531) 5475
(-0.0300668 -0.00493311 0.577469) 5475
(-0.0302883 0.00193826 0.576934) 5467
(-0.0306489 -0.00672721 0.577065) 5476
(-0.0274301 0.00268449 0.577518) 5466
(-0.0345788 -0.00215682 0.57506) 5469
(-0.034125 -0.00661384 0.574956) 5477
(-0.0130473 -0.025244 0.577961) 6010
(-0.0244977 -0.0215839 0.576677) 5492
(-0.0208991 -0.0226033 0.576684) 6003
(-0.00760328 -0.0256688 0.577663) 6018
(-0.0294948 -0.000697374 0.577159) 5467
(-0.0294799 -0.0044594 0.577375) 5475
(-0.0311689 -0.00801963 0.577065) 5476
(-0.0289029 -0.00460079 0.577096) 5475
(-0.0264615 -0.0103616 0.577926) 5483
(-0.0270627 0.00202919 0.578339) 5466
(-0.015751 -0.0251763 0.575821) 6011
(-0.0306402 -0.00930062 0.576349) 5476
(-0.00592785 -0.0251534 0.577961) 6018
(-0.0302921 -0.00772127 0.576672) 5476
(-0.0300138 -0.00815561 0.576894) 5476
(-0.0296405 -0.00495771 0.577659) 5475
(-0.0264073 0.0100776 0.576697) 5451
(-0.0281043 0.00879981 0.577141) 5459
(-0.0207923 -0.0253341 0.575993) 6004
(-0.021937 -0.0253856 0.57586) 6004
(-0.0279513 -0.0164274 0.576004) 5484
(-0.032182 -0.00866209 0.575754) 5476
(-0.0321645 -0.0087348 0.576359) 5476
(-0.0242069 -0.0144741 0.577285) 5482
(-0.0304309 -0.00490567 0.577661) 5476
(-0.0290029 -0.00413917 0.576999) 5475
(-0.0296728 -0.00491747 0.577402) 5475
(-0.0283703 0.000638822 0.57819) 5467
(-0.0265151 -0.0199427 0.575691) 5492
(-0.0244402 -0.020036 0.576851) 5492
(-0.0296147 0.0092658 0.576063) 5460
(-0.0170157 0.0194697 0.577922) 6609
(-0.0297559 -0.00871699 0.576503) 5476
(-0.0286784 -0.0113967 0.576629) 5483
(-0.0203677 -0.0205681 0.577029) 6002
(-0.0234321 -0.0202336 0.576947) 5491
(-0.0266531 -0.00898631 0.577797) 5475
(-0.0249124 -0.00860096 0.578506) 5474
(-0.0299638 -6.5624e-05 0.577865) 5467
(-0.0306266 -0.013648 0.575465) 5484
(-0.032476 -0.0084302 0.575799) 5477
(-0.0302294 0.00673017 0.576342) 5460
(-0.0309398 -0.00433082 0.575362) 5476
(-0.0298664 -0.00836242 0.576504) 5476
(-0.00389769 -0.0240044 0.578634) 6017
(-0.0196959 -0.0214971 0.577204) 6002
(-0.0297984 0.00235876 0.576331) 5467
(-0.0243187 -0.0170267 0.576847) 5491
(-0.00272119 -0.0238906 0.578696) 6025
(-0.0298103 -0.00278135 0.576516) 5467
(-0.0291045 -0.00485701 0.577605) 5475
(-0.0288402 -0.00783985 0.577417) 5475
(-0.0316969 -0.00378237 0.575298) 5476
(-0.0324445 -0.0085191 0.575334) 5477
(-0.0209226 -0.0247832 0.575892) 6004
(-0.0292226 -0.00917324 0.576589) 5475
(-0.0278671 -0.00973789 0.576621) 5475
(-0.0253379 0.0114172 0.577536) 5450
(-0.0295366 -0.00733389 0.577636) 5475
(-0.0259573 -0.0137396 0.57796) 5483
(-0.0294196 -0.0048783 0.577547) 5475
(-0.0134903 -0.0234348 0.577803) 6010
(-0.0294378 -0.000937908 0.577227) 5467
(-0.0253668 0.00654544 0.577883) 5458
(-0.0279424 0.00399531 0.57656) 5459
(-0.014217 -0.0244073 0.577607) 6010
(-0.0253954 0.00126644 0.578431) 5466
(-0.0260678 -0.000486997 0.578601) 5466
(-0.0302743 0.00577295 0.575955) 5460
(-0.0214223 -0.0241589 0.575469) 6004
(-0.0260128 -0.0204536 0.575794) 5492
(-0.011856 0.0196769 0.578153) 6600
(-0.0246782 -0.0179626 0.576581) 5491
(-0.00549341 -0.0244146 0.577902) 6018
(-0.00437004 -0.0241923 0.578776) 6017
(-0.0296632 -0.0067186 0.577221) 5475
(-0.0293525 -0.00789163 0.577317) 5475
(-0.0168497 0.0186526 0.577754) 6609
(-0.0262157 -0.00961959 0.576583) 5482
(-0.0192231 -0.020654 0.57728) 6002
(-0.0261349 0.00982799 0.576453) 5450
(-0.0212828 -0.0194632 0.577593) 5490
(-0.0280953 0.0021428 0.577479) 5467
(-0.0252092 -0.00698206 0.579355) 5474
(-0.0328318 -0.00976075 0.57409) 5477
(-0.0120966 0.0191924 0.577782) 6600
(-0.0195862 -0.0214115 0.576784) 6002
(-0.0231503 0.0124477 0.578049) 5450
(-0.0233844 -0.0153192 0.576723) 5490
(-0.026566 0.0109448 0.576069) 5451
(-0.0298103 -0.00640367 0.57695) 5475
(-0.0276469 -0.00879652 0.577045) 5475
(-0.0130898 -0.0242498 0.577769) 6010
(-0.025474 -0.00583733 0.579273) 5474
(-0.0156516 -0.0243095 0.575896) 6011
(-0.0155351 -0.022462 0.577446) 6002
(-0.0209854 0.0146208 0.577059) 5441
(-0.0287057 -0.00629037 0.576973) 5475
(-0.0291756 -0.00722085 0.577177) 5475
(-0.0283087 -0.00627313 0.576931) 5475
(-0.0274219 -0.00375587 0.576621) 5474
(-0.0295631 -0.00443109 0.577132) 5475
(-0.00270458 -0.0234854 0.578037) 6025
(-0.0260847 -0.0109365 0.576946) 5483
(-0.0272213 -0.00680488 0.577892) 5475
(-0.0322427 -0.0036685 0.573303) 5468
(-0.0185059 -0.0231677 0.576168) 6003
(-0.0114536 0.0189182 0.578079) 6600
(-0.0254118 -0.0187074 0.575316) 5492
(-0.0144829 -0.0231922 0.576417) 6010
(-0.0245736 -0.0187239 0.575957) 5491
(-0.0280692 -0.0110779 0.575716) 5483
(-0.0288317 0.00684344 0.576347) 5459
(-0.00209681 -0.0236871 0.578215) 6025
(-0.00558205 -0.0245033 0.578593) 6018
(-0.0226497 -0.0140937 0.577085) 5482
(-0.0273841 -0.00656111 0.577595) 5475
(-0.0259329 0.00397993 0.57678) 5458
(-0.0269095 -0.00577912 0.577963) 5474
(-0.0140652 -0.02315 0.577208) 6010
(-0.0158925 -0.0219727 0.577968) 6002
(-0.0264163 -0.00530722 0.57817) 5474
(-0.0303736 -0.0115021 0.572494) 5484
(-0.0142307 -0.0228773 0.576239) 6010
(-0.015939 -0.0213313 0.578061) 6002
(-0.0208618 0.0149438 0.576717) 5441
(-0.0120541 -0.0233337 0.577936) 6010
(-0.022332 -0.0161317 0.577119) 5490
(-0.0206085 0.0143307 0.576444) 5441
(-0.0290689 -0.00751989 0.576771) 5475
(-0.0283694 -0.00590172 0.576667) 5475
(-0.00267718 -0.0232376 0.577605) 6025
(-0.0238394 -0.00664336 0.579008) 5473
(-0.0287304 -0.0110927 0.5741) 5483
(-0.0311062 -0.00396241 0.573435) 5476
(-0.0300433 -0.00887691 0.572929) 5476
(-0.022064 0.01223 0.577049) 5449
(-0.0297861 -0.00749664 0.573885) 5476
(-0.0236434 -0.0173876 0.575843) 5491
(-0.0289907 -0.00691184 0.57536) 5475
(-0.022422 -0.0161248 0.577059) 5490
(-0.0220039 -0.0151476 0.576688) 5490
(-0.0252434 0.0111947 0.576113) 5450
(-0.00489294 -0.0234445 0.578357) 6017
(-0.0285495 -0.00393427 0.575503) 5475
(-0.0269616 -0.00761751 0.576921) 5475
(-0.0280421 3.52151e-05 0.576785) 5467
(-0.0203402 -0.0181027 0.577784) 5490
(-0.0189418 -0.0198432 0.576691) 6002
(-0.0206837 -0.0177526 0.577425) 5490
(-0.0306032 0.000689061 0.57243) 5468
(-0.0288141 0.00343467 0.573873) 5459
(-0.0246033 0.0107029 0.575512) 5450
(-0.014035 -0.0230672 0.576009) 6010
(-0.0137834 -0.0232635 0.576228) 6010
(-0.0295822 -0.00354555 0.574111) 5475
(-0.0154957 -0.0197838 0.577415) 6001
(-0.0114395 -0.022222 0.578076) 6009
(-0.0103843 -0.0222429 0.577935) 6009
(-0.0108631 -0.0224281 0.577923) 6009
(-0.0212066 -0.0171793 0.576915) 5490
(-0.0079818 -0.0239384 0.576887) 6017
(-0.00309539 -0.022928 0.577463) 6017
(-0.0175632 0.0159921 0.577305) 5440
(-0.0254277 0.0102061 0.575407) 5450
(-0.00356762 -0.0227839 0.577589) 6017
(-0.0120535 -0.023087 0.577483) 6010
(-0.0265097 -0.00500301 0.577793) 5474
(-0.0256082 -0.00629387 0.577879) 5474
(-0.0243887 0.00098404 0.578467) 5465
(-0.0240874 -0.00743719 0.578912) 5473
(-0.0105996 0.0173024 0.577692) 6599
(-0.0182416 -0.0214737 0.57525) 6002
(-0.0272109 -0.00979128 0.573758) 5475
(-0.0138001 -0.0228822 0.57604) 6010
(-0.0118412 -0.0220798 0.577662) 6009
(-0.0109544 -0.0219086 0.577766) 6009
(-0.0186178 -0.0192359 0.576143) 6001
(-0.0270863 -0.010037 0.571018) 5483
(-0.0280042 -0.00614 0.572261) 5475
(-0.0283647 -0.00624348 0.572831) 5475
(-0.0108858 -0.0214607 0.576598) 6009
(-0.00343423 -0.0222548 0.577291) 6017
(-0.0196812 0.01164 0.576224) 5448
(-0.0256222 -0.00467846 0.576283) 5474
(-0.0267617 -0.00460852 0.576269) 5474
(-0.0224696 -0.0119648 0.577612) 5481
(-0.0246673 0.00558365 0.576644) 5458
(-0.0240569 0.00337108 0.576511) 5457
(-0.0236072 -0.00601424 0.57873) 5473
(-0.0255551 -0.00272011 0.576591) 5466
(-0.0253528 -0.00385299 0.577645) 5474
(-0.0243767 -0.00199492 0.577897) 5465
(-0.0245649 -0.00150654 0.577903) 5465
(-0.0204598 0.0110087 0.573159) 5449
(-0.0254058 -0.0109553 0.573406) 5482
(-0.00908025 -0.0221697 0.576349) 6009
(-0.0151898 -0.0191581 0.576199) 6001
(-0.0190606 -0.0158369 0.576174) 5489
(-0.0276645 -0.000986109 0.573144) 5466
(-0.02757 -0.00253384 0.572169) 5466
(-0.0204433 -0.0157554 0.576338) 5489
(-0.0199062 -0.0132743 0.575979) 5489
(-0.0121453 -0.0214532 0.576221) 6009
(-0.0251041 0.00729796 0.572937) 5458
(-0.0267015 -0.00293603 0.573386) 5466
(-0.026042 0.00486481 0.57409) 5458
(-0.0037963 -0.0218807 0.576765) 6017
(-0.00351484 -0.0220182 0.576854) 6017
(-0.012627 -0.0221175 0.57662) 6009
(-0.0142536 -0.0197175 0.575813) 6001
(-0.0223305 0.00797731 0.575858) 5457
(-0.023829 -0.00526944 0.578029) 5473
(-0.0234559 -0.00646067 0.577784) 5473
(-0.0241199 -0.00315966 0.576373) 5473
(-0.0282615 0.00201395 0.567358) 5411
(-0.0207323 -0.0124072 0.575148) 5481
(-0.016455 -0.0203177 0.573474) 6001
(-0.00895494 0.0162481 0.576962) 6599
(-0.027281 -0.000735795 0.57122) 5466
(-0.0086322 -0.0219721 0.575238) 6009
(-0.0139563 -0.0203318 0.574459) 6001
(-0.027075 -0.00180682 0.571503) 5466
(-0.0117917 -0.0207615 0.575467) 6009
(-0.0216028 -0.010901 0.576626) 5481
(-0.024098 -0.00546751 0.575878) 5473
(-0.014389 -0.0203582 0.576132) 6001
(-0.0232544 -0.00527299 0.577472) 5473
(-0.0282375 -0.00555063 0.564439) 5419
(-0.0094767 -0.0204928 0.573218) 6008
(-0.00963472 0.0156409 0.575145) 6599
(-0.0277093 -0.000117277 0.566808) 5411
(-0.019059 0.011779 0.570737) 5392
(-0.0210018 -0.0148151 0.572355) 5489
(-0.0158704 -0.0191249 0.571356) 6001
(-0.0122137 0.0158257 0.575555) 6607
(-0.0264684 -0.00201819 0.570627) 5410
(-0.0256344 -0.0023588 0.569692) 5410
(-0.0266628 -0.00346029 0.570817) 5418
(-0.026081 -0.00298604 0.570704) 5410
(-0.0252843 -0.00552406 0.571023) 5474
(-0.0218608 -0.0114609 0.573065) 5481
(-0.00454831 -0.0215946 0.575464) 6016
(-0.0037793 -0.021474 0.575399) 6016
(-0.0244997 -0.00676774 0.573942) 5474
(-0.0245036 -0.00679388 0.573876) 5474
(-0.0180771 0.0114305 0.573187) 5448
(-0.00222389 -0.0216829 0.574771) 6024
(-0.0185039 -0.0163349 0.575205) 5489
(-0.022806 -0.00452989 0.57712) 5473
(-0.0231211 -0.00445058 0.577321) 5473
(-0.0285673 -0.000757551 0.562943) 5411
(-0.0249454 -0.0093667 0.567898) 5426
(-0.0103472 -0.0209762 0.571356) 6009
(-0.0158979 0.0144065 0.571991) 5439
(-0.0261398 -0.0041358 0.567437) 5418
(-0.0202089 -0.0150735 0.573286) 5489
(-0.0166332 0.0137867 0.57228) 5439
(-0.0196261 -0.0139906 0.57315) 5489
(-0.00402645 -0.0213737 0.574504) 6016
(-0.00401355 -0.0213238 0.57443) 6016
(-0.00310959 -0.0214073 0.574502) 6016
(-0.00494781 -0.0212809 0.574335) 6016
(-0.0234373 -0.00513097 0.572466) 5473
(-0.0227728 -0.00542136 0.575194) 5473
(-0.018317 -0.0152986 0.573989) 5488
(-0.0223241 -0.00269568 0.573756) 5465
(-0.00905336 -0.0210902 0.5724) 6009
(-0.00853894 -0.0214556 0.573689) 6009
(-0.0215102 -0.00608229 0.575088) 5473
(-0.022425 -0.00325247 0.574992) 5473
(-0.0223628 0.00141569 0.576533) 5465
(-0.0261336 0.00314219 0.565435) 5402
(-0.0231032 0.00780763 0.567907) 5401
(-0.00288544 -0.021369 0.573458) 6016
(-0.0167814 -0.0168084 0.571441) 6000
(-0.00375639 -0.0212512 0.573332) 6016
(-0.00248885 -0.021357 0.573315) 6024
(-0.0234994 -0.00539339 0.571451) 5473
(-0.0120462 -0.0206449 0.572306) 6009
(-0.0139303 -0.0184302 0.573382) 6000
(-0.00862269 -0.0210222 0.571961) 6009
(-0.0120983 -0.0206768 0.572356) 6009
(-0.0213045 -0.00706888 0.575081) 5473
(-0.0220436 -0.00417576 0.576159) 5473
(-0.0219033 -0.00444653 0.576219) 5473
(-0.00817267 0.0151973 0.572803) 6598
(-0.0124438 0.0149769 0.570846) 6551
(-0.00832752 -0.0207782 0.57065) 5952
(-0.00951402 -0.0206401 0.570415) 5952
(-0.0216789 -9.13571e-05 0.574693) 5464
(-0.0218692 -0.00342655 0.57414) 5473
(-0.0215571 4.49772e-05 0.575344) 5464
(-0.0245305 -0.00775769 0.564743) 5418
(-0.00946796 -0.0205169 0.569535) 5952
(-0.0139091 -0.0171858 0.571503) 6000
(-0.0144883 -0.0163722 0.570897) 5943
(-0.0230162 -0.00612965 0.569802) 5417
(-0.0187094 0.0108547 0.568543) 5392
(-0.0179056 0.012859 0.569218) 5384
(-0.00974873 -0.0205184 0.56952) 5952
(-0.0209389 -0.00784166 0.573495) 5472
(0.0167031 -0.00796151 0.549902) 527
(0.0158079 -0.00710733 0.553509) 583
(-0.0253737 -0.000810942 0.562249) 5410
(-0.0254645 -0.00280558 0.563261) 5410
(-0.0152121 -0.0171875 0.5676) 5944
(-0.00336839 -0.0209757 0.571314) 6016
(-0.0240107 -0.00495075 0.565644) 5417
(-0.0181819 -0.0123706 0.570318) 5432
(-0.00295054 -0.0208938 0.571227) 6016
(-0.0236449 -0.00397098 0.567422) 5417
(-0.0200117 -0.00948001 0.571651) 5480
(-0.0224907 0.00189373 0.569141) 5409
(-0.00995916 -0.0204413 0.568264) 5952
(-0.0211336 0.00246635 0.571538) 5464
(-0.0215991 -0.00162908 0.574237) 5464
(-0.0255466 0.0059153 0.559019) 930
(-0.0262208 -0.00478158 0.559699) 946
(-0.0251444 -0.0028737 0.562279) 5410
(-0.022492 -0.00961369 0.564392) 5425
(-0.0251123 -0.0014173 0.562597) 5410
(-0.0236084 -0.00878588 0.564174) 5425
(-0.0256371 -0.00288151 0.561715) 5410
(-0.0104959 -0.0195435 0.568512) 5952
(-0.012855 -0.0166552 0.568169) 5943
(-0.0140649 -0.015764 0.568178) 5943
(-0.00703168 -0.0200975 0.568613) 5960
(-0.0028679 -0.0201079 0.568844) 5960
(-0.0182158 0.0113898 0.564369) 5392
(-0.0029337 -0.0201399 0.568839) 5960
(-0.0216885 -0.00715121 0.566848) 5417
(-0.0235599 -0.00498778 0.565422) 5417
(-0.010221 -0.0203061 0.566252) 5952
(-0.0221811 0.00325473 0.56773) 5401
(-0.0102471 -0.0195745 0.568598) 5952
(-0.0102891 -0.0202679 0.566231) 5952
(-0.0212421 -0.00334568 0.572383) 5472
(-0.0263221 0.000493452 0.558762) 938
(-0.00662914 0.0146964 0.567234) 6542
(-0.0185799 -0.0118384 0.565475) 5424
(-0.0186342 -0.0117704 0.565122) 5424
(-0.00973591 -0.0186179 0.567264) 5952
(-0.0146339 -0.015431 0.566481) 5943
(-0.0136994 -0.0159679 0.568175) 5943
(-0.0143355 -0.0156017 0.567495) 5943
(-0.0127711 -0.0192373 0.566169) 5952
(-0.0102613 -0.0186089 0.567644) 5952
(-0.0240281 -0.00143854 0.563853) 5409
(-0.0212546 -0.00700345 0.565557) 5416
(-0.0113667 -0.0183557 0.567535) 5952
(-0.0185713 -0.0133466 0.566121) 5432
(-0.017823 0.0123442 0.56411) 5384
(-0.0172085 -0.0124121 0.567472) 5431
(-0.0158623 -0.0154099 0.568317) 5431
(-0.0202458 -0.00351377 0.571079) 5472
(-0.0268171 1.34568e-05 0.555096) 938
(-0.021557 0.00915163 0.558177) 921
(-0.0254118 0.00489831 0.556691) 930
(-0.010261 -0.0201828 0.561742) 5952
(-0.014277 -0.0153388 0.565525) 5943
(-0.00911256 -0.0193498 0.565103) 5952
(-0.0177688 -0.0120553 0.565605) 5432
(-0.00948158 -0.0184105 0.566515) 5952
(-0.014154 -0.0153031 0.565257) 5943
(-0.00936675 -0.0179306 0.565432) 5951
(-0.0163574 -0.0133211 0.564864) 5431
(-0.0219903 -0.0069036 0.562132) 5417
(-0.00350523 -0.0184707 0.56587) 5959
(-0.0141092 -0.0153264 0.56418) 5943
(-0.00277097 -0.0192475 0.566998) 5960
(-0.00343855 -0.0186991 0.566505) 5959
(-0.0149073 0.0143835 0.562643) 5383
(-0.0209404 0.00713528 0.562271) 5400
(-0.00438873 -0.018537 0.565661) 5959
(-0.0222513 -0.0031312 0.564538) 5417
(-0.00977958 -0.0191627 0.565728) 5952
(-0.0165244 -0.01313 0.565196) 5431
(-0.0117832 -0.0171213 0.565993) 5943
(-0.0198159 -0.00475893 0.570453) 5416
(-0.0267977 -0.000116381 0.55508) 938
(-0.0103103 0.0148736 0.562424) 6542
(-0.0135974 -0.016885 0.560864) 1247
(-0.0108394 -0.0204683 0.559307) 1257
(-0.0181724 0.0113051 0.557629) 920
(-0.0170978 -0.0133304 0.562535) 5432
(-0.0099597 -0.0197273 0.562368) 5952
(-0.0227071 -0.00860533 0.558395) 953
(-0.0245512 -0.00378932 0.557846) 945
(-0.00987573 -0.0199125 0.561145) 5952
(-0.0227788 -0.0051931 0.559893) 945
(-0.00989506 -0.0173599 0.564008) 5951
(-0.00941394 -0.0176218 0.564513) 5951
(0.0161205 -0.00598448 0.549685) 535
(-0.00248376 -0.0186562 0.563401) 5959
(-0.00238682 -0.018878 0.563526) 5967
(-0.00991711 -0.0179477 0.565588) 5952
(-0.0179772 0.0098954 0.561671) 5392
(-0.0168995 -0.0114516 0.563538) 5423
(-0.0202176 0.00628952 0.562384) 5400
(-0.00743058 -0.0193138 0.561909) 5960
(-0.0154182 -0.0143445 0.564536) 5431
(-0.0165422 -0.0121319 0.564104) 5431
(-0.0201024 -0.00199035 0.566909) 5408
(-0.0192888 0.000568628 0.567368) 5408
(-0.0286617 -0.000281539 0.549337) 883
(0.0185655 -0.00657019 0.542397) 536
(-0.0274951 -0.00116839 0.550482) 882
(0.0172505 -0.00615778 0.546183) 535
(0.0173698 -0.00606014 0.545063) 535
(-0.0108121 -0.0201345 0.557279) 1256
(-0.00998829 -0.0198584 0.560679) 1256
(-0.00994201 -0.0197309 0.56033) 1256
(-0.0106738 -0.0169361 0.56298) 5951
(-0.00444868 -0.0180501 0.562976) 5959
(-0.00892575 -0.0172067 0.562003) 5951
(-0.0220882 -0.00553401 0.559751) 945
(-0.0236566 -0.00157629 0.556458) 937
(-0.0240508 -0.00422463 0.556679) 945
(-0.00314832 -0.0181529 0.562077) 5959
(-0.00344293 -0.0180599 0.563418) 5959
(-0.0206763 -0.00691688 0.561966) 5416
(-0.00252548 -0.018509 0.56194) 5959
(-0.0185342 -0.00706302 0.565884) 5416
(-0.0208472 -0.00254078 0.563169) 5408
(-0.0203292 -0.00386231 0.564059) 5416
(-0.0204803 -0.00235292 0.563494) 5408
(-0.0190606 -0.00181496 0.566497) 5408
(-0.0262932 -0.000226391 0.551413) 938
(-0.0108499 -0.0200119 0.556784) 1256
(-0.0103355 -0.0167406 0.561185) 5951
(-0.0194486 0.0101187 0.555469) 920
(-0.0170972 -0.0134078 0.559649) 960
(-0.0236269 -0.00138835 0.555804) 937
(-0.00388992 -0.0179606 0.561467) 5959
(-0.0204419 -0.00616124 0.560644) 944
(-0.0205401 -0.00589812 0.560193) 944
(-0.0142112 -0.016867 0.557273) 1248
(-0.020521 -0.00569662 0.560747) 944
(-0.0188815 0.0101042 0.556776) 920
(-0.0167426 0.0121791 0.557429) 911
(-0.0182064 -0.00945893 0.560963) 952
(-0.0205075 -0.00769246 0.558986) 944
(-0.0120954 -0.0164672 0.55936) 1247
(-0.0148853 0.0122549 0.558645) 910
(-0.0192424 -0.00891657 0.561519) 5424
(-0.0202529 -0.00328032 0.562734) 5416
(-0.0200903 -0.000531956 0.562941) 5408
(-0.0192982 -0.00023847 0.56448) 5408
(-0.0200481 -0.00318136 0.56193) 5416
(-0.0199509 -0.000370746 0.562358) 5408
(-0.0274282 -0.00341832 0.547664) 890
(-0.00870554 0.0147546 0.557798) 1622
(0.0156389 -0.00557701 0.546965) 534
(-0.0168772 -0.0142164 0.555462) 960
(-0.0231622 -0.00641395 0.552397) 945
(-0.0246397 0.000250004 0.552338) 937
(-0.00973592 -0.0196533 0.556709) 1256
(-0.0164972 -0.0123372 0.558871) 959
(-0.0136039 -0.0155334 0.558773) 1247
(-0.0207269 -0.00689094 0.557411) 944
(-0.0189483 0.0122725 0.550854) 864
(-0.0231314 -0.00326297 0.5561) 945
(-0.0145383 -0.0147561 0.559192) 1247
(-0.00887745 -0.0168794 0.559257) 1255
(-0.0102855 -0.0194144 0.554811) 1256
(-0.0102207 -0.019418 0.555281) 1256
(-0.0211595 0.00287455 0.556549) 928
(-0.0202716 -0.00385991 0.559413) 944
(-0.0199424 0.00165901 0.560305) 936
(-0.0197159 -6.34601e-05 0.560603) 936
(0.0197733 -0.00587063 0.53538) 480
(-0.0288369 -0.00229993 0.543666) 883
(-0.0264601 0.00133031 0.546809) 882
(0.0155506 -0.00553948 0.545819) 534
(-0.0248228 0.00823567 0.547167) 874
(-0.0262893 -0.00311754 0.547357) 882
(-0.0248112 0.00603014 0.548665) 874
(0.0156647 -0.00564172 0.545625) 534
(-0.0219166 -0.00827426 0.552495) 953
(-0.0250975 -0.000384378 0.548727) 882
(-0.0248665 -0.000362614 0.549092) 882
(-0.0248383 -0.00365345 0.549582) 890
(-0.014503 -0.0145111 0.556542) 1246
(-0.00375401 -0.0176542 0.557375) 1263
(-0.019266 0.0123057 0.54901) 864
(-0.0097271 -0.0192976 0.553088) 1256
(-0.0147399 -0.0144474 0.556161) 959
(-0.0029448 -0.0180703 0.556738) 1263
(-0.0236641 0.00163309 0.551669) 937
(-0.0173012 0.0110334 0.554803) 919
(-0.0178961 -0.00898873 0.558729) 951
(-0.0193575 0.00692818 0.555929) 928
(-0.0121026 -0.016558 0.555738) 1247
(-0.019251 0.000365562 0.559539) 936
(-0.0194293 0.000448456 0.559866) 936
(-0.0189279 0.0010366 0.560209) 936
(0.0198532 -0.00569096 0.53499) 480
(-0.0254832 0.00145831 0.545893) 882
(-0.0139864 0.014603 0.552559) 1630
(-0.0102634 -0.0161449 0.554876) 1255
(-0.0146441 -0.0150205 0.555283) 1247
(-0.0139613 0.0146904 0.552195) 1631
(-0.0163034 -0.0119073 0.554495) 959
(-0.0136409 -0.0152979 0.555874) 1247
(-0.00306574 -0.0179268 0.554804) 1263
(-0.00721306 -0.0185483 0.552727) 1264
(-0.0099823 -0.0161741 0.555076) 1255
(-0.0177165 -0.00914104 0.556236) 951
(-0.0100896 -0.0161756 0.555187) 1255
(-0.0184005 -0.0130238 0.551786) 960
(-0.0202403 0.00659371 0.553048) 928
(-0.0198962 -0.00741929 0.555586) 944
(-0.0207745 -0.000343923 0.554888) 936
(-0.0185912 -0.00498234 0.557928) 943
(-0.0201736 -0.00319694 0.55671) 944
(-0.0200479 -0.000500347 0.557256) 936
(-0.0190402 3.31248e-06 0.558973) 936
(-0.0162703 -0.0120305 0.554925) 959
(-0.0188131 -0.00390258 0.557934) 944
(0.0162974 -0.00464841 0.540004) 479
(-0.0114659 0.0144774 0.550737) 1574
(-0.00705275 0.0149032 0.554036) 1622
(-0.0176316 0.0145216 0.546557) 856
(-0.0253957 0.000304126 0.545031) 882
(0.016013 -0.00510636 0.541685) 535
(0.0162094 -0.00497174 0.540941) 479
(-0.00932879 -0.019124 0.549736) 1200
(-0.0160122 -0.0159931 0.549045) 903
(-0.018368 -0.0112535 0.55128) 952
(-0.0223612 -0.0054021 0.548599) 889
(-0.015894 -0.0125938 0.552295) 959
(-0.0117747 -0.0164777 0.552799) 1247
(-0.00850983 -0.0172813 0.553024) 1255
(-0.00994772 -0.0160029 0.553296) 1255
(-0.00994777 -0.0160189 0.553514) 1255
(-0.0237353 -0.00395182 0.547306) 889
(-0.0101014 -0.0159968 0.553636) 1255
(-0.012031 -0.0162267 0.551753) 1247
(-0.0101729 -0.016079 0.554061) 1255
(-0.0103191 -0.0159697 0.553216) 1255
(-0.0204695 0.006615 0.550427) 872
(-0.0199019 -0.00677967 0.553309) 944
(-0.0196219 -0.00732409 0.554396) 944
(-0.0100553 -0.0160518 0.553881) 1255
(-0.0166223 -0.0108257 0.553482) 951
(-0.0146299 -0.0132457 0.555063) 958
(-0.0197727 -0.00401 0.553512) 944
(-0.0204004 0.000796939 0.552961) 936
(-0.0187316 -0.00425386 0.557144) 944
(-0.0201535 -0.00210625 0.553866) 936
(-0.018973 -0.000784678 0.555805) 936
(-0.0194288 0.00196066 0.555295) 936
(0.0198662 -0.00468813 0.533228) 480
(0.0162573 -0.00472753 0.539602) 479
(-0.0253368 3.80267e-05 0.542992) 882