/*--------------------------------*- C++ -*----------------------------------*\
| =========                 |                                                 |
| \\      /  F ield         | OpenFOAM: The Open Source CFD Toolbox           |
|  \\    /   O peration     | Version:  plus.master.MPPICInterFoam            |
|   \\  /    A nd           | Web:      www.OpenFOAM.com                      |
|    \\/     M anipulation  |                                                 |
\*---------------------------------------------------------------------------*/
FoamFile
{
    version     2.0;
    format      ascii;
    class       Cloud<basicKinematicMPPICParcel>;
    location    "12.8/lagrangian/kinematicCloud";
    object      positions;
}
// * * * * * * * * * * * * * * * * * * * * * * * * * * * * * * * * * * * * * //

94927
(
(-0.00260693 -0.0157428 0.000265662) 821
(0.0214681 -0.0259419 0.000254249) 859
(0.00166084 0.0792313 0.000277763) 2376
(0.00326212 -0.0411018 0.000303561) 2089
(0.026781 -0.0593653 0.000281212) 2110
(-0.0234193 -0.0449205 0.000290475) 2075
(0.0178264 -0.0445504 0.000278186) 2106
(-0.006868 0.0175014 0.000258492) 1118
(0.0183421 0.0386222 0.000261847) 2353
(-0.00208942 0.0699064 0.00025209) 2374
(0.0292644 0.0513173 0.000280353) 2356
(0.0360944 0.0176317 0.000259471) 1545
(-0.0164707 0.00208952 0.000269906) 550
(0.0262497 0.0213096 0.000300201) 300
(0.0581052 -0.00251248 0.000263951) 1532
(-0.00447551 0.0393695 0.000281557) 2377
(0.00076122 -0.0157662 0.000266141) 829
(-0.0443102 0.0204749 0.000298374) 1795
(0.0291962 0.0184576 0.000293876) 300
(0.0171276 0.06441 0.000289446) 2366
(-0.0226869 0.0226465 0.000318379) 531
(-0.00428219 -0.0927178 0.000281399) 3212
(-0.042636 -0.0213588 0.000225695) 1826
(-0.0385287 -0.0155828 0.000291009) 1825
(0.0217919 -0.0239961 0.000277406) 859
(-0.00824012 -0.0570621 0.000245851) 2084
(-0.0211934 0.0211983 0.000316951) 1138
(0.00114956 0.101688 0.000261237) 3494
(-0.0411143 -0.0206343 0.000272234) 1826
(0.0306214 -0.0240965 0.000296921) 1505
(-0.0221259 0.0219498 0.000256872) 530
(0.0339665 -0.0167494 0.000295943) 1366
(-0.030998 0.0137321 0.000276979) 540
(-0.0206739 0.0205101 0.000314674) 529
(0.00371997 0.0378435 0.000276801) 1473
(0.0366755 0.0176887 0.000266449) 1545
(-0.00145316 0.0596866 0.000265644) 2373
(-0.000259894 0.0710574 0.000292442) 2375
(-0.0283783 0.0268577 0.000291863) 1785
(-0.0810545 -8.05157e-06 0.000256558) 1816
(0.0118128 -0.0481367 0.000264495) 2099
(-0.0216273 -0.0376801 0.00028052) 2073
(0.00848114 0.0226584 0.000301138) 1096
(-0.0419188 0.019203 0.000267009) 1794
(-0.0187357 0.036604 0.000298427) 2385
(0.0290995 -0.0213552 0.000291713) 252
(-0.00747711 -0.089163 0.000293247) 3211
(-0.00925065 0.0162535 0.000300278) 1126
(-0.0181999 -0.0392752 0.000242872) 2073
(-0.0138311 0.0283298 0.000274504) 1131
(0.0383506 -0.0151556 0.00027982) 1513
(-0.015694 0.030716 0.000270296) 1132
(0.0153551 -0.0208616 0.00024613) 856
(-0.00426713 -0.0610375 0.000279977) 2093
(0.0284654 -0.0120433 0.00027331) 258
(0.0171901 0.0395993 0.000242292) 2353
(0.0207717 0.0263756 0.000283703) 1091
(-0.0019445 0.0184344 0.000256586) 1110
(-0.0174398 0.0416541 0.000275149) 2386
(0.00959783 0.0584315 0.000274187) 2364
(0.0426469 -0.0164648 0.000306208) 1514
(0.0339684 -0.0174045 0.000280384) 1366
(0.0342106 0.0142148 0.000269267) 1370
(-0.0203232 0.0379181 0.000275702) 2385
(0.0189548 -0.0012675 0.000423241) 271
(-0.0408136 -0.0222862 0.000295504) 1826
(0.00481588 0.101716 0.000290112) 3494
(0.00834408 0.016151 0.000288842) 1094
(-0.102136 0.000407116 0.000276878) 2934
(0.0411072 -0.0168086 0.000263728) 1514
(0.015751 -0.021039 0.000265659) 856
(0.0202062 0.0263081 0.000297872) 1091
(0.0155951 0.0419443 0.000291156) 2354
(0.0161674 0.0367284 0.000242043) 2353
(0.00861621 0.021608 0.000271726) 1096
(0.0237988 -0.0250198 0.000272729) 860
(0.0596411 -0.000644611 0.000298508) 1533
(-0.0168852 -9.58404e-05 0.000294795) 550
(0.0118154 0.0269843 0.000286762) 1098
(-0.00115661 0.0223511 0.000252936) 1112
(0.00351692 0.0366142 0.000242938) 1473
(-0.0109572 -0.0462775 0.000266749) 2082
(-0.0367753 0.0175136 0.00028048) 1793
(0.0200781 0.020623 0.000270516) 1089
(-0.0255493 0.0254127 0.0002886) 532
(0.00970565 0.0261819 0.000280439) 1097
(0.0198018 -0.0154669 0.000272408) 248
(0.00527785 0.0764842 0.000278909) 2376
(-0.0158726 0.00694569 0.000251577) 534
(-0.0361042 0.00424736 0.000268977) 1402
(-0.00720015 0.0195614 0.000282322) 1119
(0.0106298 0.0157493 0.000271265) 1094
(0.016492 -0.049562 0.000261162) 2099
(-0.0412963 -0.0131367 0.000258707) 1817
(0.024165 -0.0155745 0.000296485) 257
(-0.0259308 -0.0253664 0.000331404) 1406
(0.0288662 0.0168481 0.000282008) 291
(-0.0822968 0.00507587 0.000257095) 2929
(-0.00728133 0.0483339 0.000275563) 2378
(0.0186714 0.00139193 0.000269571) 270
(-0.0904024 0.00261159 0.000278631) 2931
(0.00788556 0.0290361 0.000265743) 1106
(0.0545065 0.00297366 0.000265774) 1532
(-0.0285287 0.00326402 0.000291786) 554
(0.0182028 -0.0101131 0.000288125) 255
(-0.035029 0.0173628 0.00029962) 1793
(-0.0015452 0.0739852 0.000271075) 2375
(-0.0187703 0.0367318 0.000280866) 2385
(0.0356287 -0.0251424 0.000322091) 1506
(-0.053882 0.0264506 0.00028164) 1797
(-0.0248056 0.0468446 0.000290344) 2387
(0.0307194 -0.0206521 0.000291618) 1365
(-0.00297407 -0.0532435 0.000300431) 2091
(0.0305732 0.0158361 0.000282214) 292
(0.00718494 0.0318366 0.00027689) 1107
(0.0174406 -0.0372491 0.000262695) 2105
(0.0124153 0.0199289 0.000278876) 1095
(-0.0480505 -0.0218369 0.000274697) 1827
(0.0208656 -0.00936266 0.000283014) 256
(0.017393 -0.0367702 0.000259579) 2105
(0.0495958 0.00342751 0.000288333) 1531
(0.00330276 -0.0430105 0.000304235) 2089
(0.0197252 -0.0227622 0.000292302) 858
(-0.0228408 -0.0446444 0.000295219) 2075
(0.0222655 0.0121457 0.00028867) 288
(-0.033566 0.00409792 0.000278117) 548
(0.0208874 0.023768 0.000281245) 1091
(0.0036421 -0.0890519 0.000305839) 3210
(0.0159765 0.0263782 0.000278492) 1098
(0.0483748 0.00165238 0.000257333) 1530
(0.0229895 -0.0248346 0.000285316) 859
(0.00664564 0.0324605 0.000283419) 1107
(0.0198917 0.0421965 0.00025817) 2354
(0.0155748 0.0473909 0.000254779) 2363
(0.0208023 0.0173546 0.000273461) 297
(-0.000948241 0.101726 0.00026875) 3494
(0.0126336 0.0329003 0.000268047) 1100
(0.00587503 -0.0206738 0.000280121) 839
(-0.00096051 0.0733359 0.000267814) 2375
(-0.0192815 0.0416874 0.000260293) 2386
(-0.0256376 0.0255998 0.000306336) 532
(0.023279 0.0107359 0.000275398) 289
(-0.0392571 -0.0155729 0.000283046) 1825
(-0.00226869 0.0214333 0.000391973) 1111
(0.0156458 -0.0210934 0.000254394) 856
(-0.0240983 -0.0234509 0.000271771) 579
(-0.05175 0.00570542 0.000273559) 1811
(-0.000313359 0.0268715 0.000275313) 1113
(-0.0421184 -0.0172089 0.000267128) 1826
(0.0250359 -0.02897 0.00029984) 2113
(0.0104563 -0.0191073 0.000279363) 847
(0.0147913 0.0222028 0.000236741) 1089
(0.020245 -0.00697639 0.000317637) 263
(0.0194835 0.0397385 0.000259167) 2354
(0.0225332 -0.0253499 0.000303681) 860
(-0.0211512 -0.00805705 0.000271731) 567
(0.00892525 -0.043841 0.000254035) 2098
(-0.0409916 -0.0172651 0.000247281) 1826
(0.0324795 0.000288102 0.000264708) 275
(-0.0078189 0.0179956 0.00027028) 1126
(-0.00200513 -0.0548248 0.00024499) 2092
(0.0139081 -0.0435024 0.00026158) 2098
(-0.0161776 0.0351527 0.000266562) 2385
(0.00578378 -0.0170442 0.000237856) 838
(0.00672269 0.0168027 0.000268365) 1094
(-0.0917006 -0.00351992 0.000291405) 2931
(0.0028091 0.0166079 0.000272157) 1102
(0.00645218 -0.0563709 0.00025746) 2100
(0.0161861 0.0114247 0.000263055) 294
(0.0230407 -0.0249741 0.000303079) 860
(0.00438297 0.0179458 0.000265916) 1102
(-0.0497198 0.0194949 0.000258973) 1795
(0.0378982 -0.0165835 0.000292185) 1513
(-0.0157635 0.00180797 0.000255692) 549
(-0.012586 0.0317759 0.000251536) 1132
(-0.0161992 -0.0268545 0.000294963) 819
(0.0186683 0.0013942 0.000284583) 270
(-0.102109 -0.000536969 0.000274768) 2934
(-0.0276434 -0.0269154 0.000310277) 1833
(0.0304619 -0.0108284 0.000273943) 267
(0.015638 0.00434453 0.000277308) 277
(-0.0403735 0.0179977 0.00024223) 1794
(-0.0394555 0.0173047 0.000273816) 1793
(-0.040168 -0.0167704 0.000298517) 1826
(-0.00104872 -0.0977817 0.000253747) 3213
(0.0294158 0.0245691 0.000301795) 1553
(0.0158526 0.0236009 0.000239577) 1089
(0.00115204 -0.0676728 0.000279342) 2094
(-0.0284663 -0.0546139 0.000286442) 2077
(0.0217214 -0.0238714 0.000278133) 859
(0.0293722 0.0245859 0.000288198) 1553
(0.0168364 0.063663 0.000282604) 2366
(0.00919578 0.0249414 0.00027876) 1097
(0.0268726 0.0592872 0.000304348) 2358
(-0.0269165 -0.0260683 0.000309733) 1406
(-0.00121555 -0.0214418 0.00028343) 831
(-0.00157927 -0.102839 0.000289273) 3215
(0.0231345 0.0223815 0.000257871) 299
(0.0451965 -0.0149643 0.000291769) 1522
(0.0175223 0.0395387 0.000258277) 2353
(0.0320757 0.015784 0.00030406) 292
(0.00115966 -0.0997911 0.0002597) 3214
(0.0407155 -0.012498 0.000243983) 1521
(-0.021818 0.0218986 0.00030871) 1138
(-0.0182574 -0.0335539 0.000261718) 1436
(0.0237642 -0.0153285 0.000271346) 257
(0.0249997 -0.0160385 0.000303399) 258
(-0.000925342 0.07736 0.000282893) 2376
(-0.0251399 -0.0442434 0.000289839) 2075
(-0.0633609 -0.013402 0.000308828) 1821
(0.0195455 -0.0388557 0.000287531) 2106
(0.0159332 0.0240153 0.000291286) 1089
(0.0411936 -0.0158458 0.000293658) 1514
(-0.0417048 -0.0216463 0.000274905) 1826
(0.0596334 0.00157392 0.000283492) 1533
(-0.0185321 0.0183756 0.000286004) 528
(-0.0256243 -0.0248572 0.000257739) 580
(-0.0564985 -0.0110253 0.000257356) 1820
(0.0236774 -0.0250415 0.000282226) 860
(-0.0921806 0.00200021 0.000277342) 2931
(0.0054107 0.0478958 0.000270247) 2362
(-0.0226672 -0.0218115 0.000278249) 578
(-0.0106175 -0.0195489 0.000288554) 815
(0.0194874 -0.0242591 0.000279067) 858
(-0.0307759 0.0146012 0.000279439) 540
(0.0186717 0.00153569 0.000298521) 270
(0.00423351 -0.092236 0.000280683) 3211
(-0.0628062 -0.0151666 0.000276387) 1821
(0.0124927 0.0201841 0.000268522) 1096
(-0.022574 0.0226764 0.000285345) 1139
(0.0245602 -0.00963429 0.000273204) 257
(0.029417 -0.0253733 0.000325922) 1505
(-0.00134298 0.0897213 0.000277495) 3491
(0.00292389 0.0168236 0.000251366) 1102
(0.0157504 0.000177891 0.000226299) 269
(0.0153428 -0.00746546 0.000262677) 253
(0.0130663 -0.0337694 0.000317386) 1440
(-0.0245734 0.0243352 0.000280132) 532
(0.0152429 -0.0209575 0.000264959) 856
(0.0448712 -0.0154084 0.000290151) 1522
(-0.00986221 0.0202455 0.000265317) 1127
(0.0113548 0.0462095 0.000262937) 2362
(-0.0197847 -0.0363685 0.000279663) 2073
(-0.0750587 0.0257032 0.000311708) 1808
(0.000556137 0.101849 0.000269145) 3494
(-0.0171374 0.0417573 0.000273581) 2386
(0.029604 0.0243063 0.000285169) 1553
(-0.0219015 0.0405022 0.000266108) 2386
(-0.024788 -0.0404265 0.000291696) 2074
(0.0294127 0.0189441 0.000280779) 300
(0.0157735 0.00206433 0.000253235) 269
(-0.0077646 -0.0684105 0.000296105) 2086
(-0.00940914 -0.0227006 0.000247596) 816
(-0.0163141 0.0340501 0.000293709) 1475
(0.00040799 -0.0940501 0.000276977) 3212
(-0.0311454 0.0148843 0.000272103) 540
(-0.0164299 0.0313475 0.000297487) 1132
(0.0248914 -0.0535842 0.000309698) 2108
(0.0177783 -0.0224786 0.000284194) 857
(-0.0302787 0.0137924 0.000294283) 539
(-0.027356 -0.0265629 0.000322064) 1406
(-0.022627 0.0108779 0.000282073) 536
(-0.0401508 -0.0168473 0.00029943) 1826
(0.0563427 -0.00090205 0.000262115) 1532
(0.0196018 -0.00903311 0.000267311) 255
(-0.00024784 0.0747919 0.000261816) 2375
(-0.00577987 -0.0155304 0.000312619) 821
(0.0301911 0.0235587 0.000299724) 1553
(-0.0242658 0.0240873 0.000308074) 532
(-0.0196248 0.0196968 0.000233037) 1137
(-0.0641489 -0.0361401 0.000297063) 1831
(0.0481875 0.00131716 0.000257041) 1530
(0.0145938 0.0131325 0.000233113) 293
(-0.0161935 -0.00328501 0.000274443) 558
(0.015161 0.0321351 0.000285131) 1100
(0.0120781 -0.0274445 0.000283349) 850
(-0.0697974 -0.015992 0.000273289) 1823
(0.0232733 -0.0010133 0.000283539) 272
(-0.0449649 0.0183104 0.000255088) 1794
(0.0060025 -0.0513909 0.00029838) 2099
(0.0167005 0.0363434 0.000301516) 2353
(0.0291346 -0.0113425 0.000250214) 259
(0.0191352 0.038341 0.000279072) 2353
(-0.0220076 0.0416249 0.000309438) 2386
(-0.00428545 0.0382636 0.000261998) 2369
(-0.0364053 0.0175971 0.000288835) 1793
(0.00683867 0.0171352 0.000331681) 1094
(-0.0261909 0.00879066 0.000282063) 545
(0.0420641 0.02367 0.000256891) 1546
(0.0151654 0.0226996 0.000253989) 1089
(0.0176892 0.0241274 0.000252811) 1090
(-0.00926665 0.0617504 0.000253603) 2381
(0.0114509 0.0275838 0.000294292) 1098
(-0.00202045 0.0781771 0.000275004) 2376
(-0.011342 0.0613209 0.00026495) 2381
(0.0242657 -0.0285715 0.000281287) 1441
(-0.0070061 0.0201617 0.00031687) 1119
(0.00387285 -0.0326898 0.000268683) 843
(0.00503954 -0.0224886 0.0003072) 840
(-0.0520415 -0.0276288 0.000289418) 1828
(0.0186585 -0.00465131 0.000687618) 262
(-0.0220447 -0.0209785 0.000242517) 578
(0.00126765 0.0340511 0.000291902) 1116
(-0.00621847 -0.01553 0.000264789) 821
(-0.0379747 0.0176546 0.000282582) 1793
(-0.0455725 -0.0208268 0.000242833) 1827
(-0.0226567 -0.0380441 0.000262846) 2074
(0.0177657 0.0213837 0.000252315) 1089
(0.0188254 -0.0225438 0.000273915) 858
(-0.0471637 -0.022855 0.000270819) 1827
(-0.0192609 -0.0429476 0.000257851) 2074
(0.0063473 -0.0922879 0.000247161) 3211
(-0.0632914 0.00696216 0.00026741) 1813
(0.0181961 0.0383022 0.000265587) 2353
(-0.0158894 -0.0304452 0.000301375) 820
(0.0245453 0.000422721 0.000274501) 272
(0.0174093 0.0391524 0.000233232) 2353
(-0.0122953 0.0484132 0.000260559) 2379
(-0.0236138 -0.0227583 0.000257767) 579
(0.0146852 -0.0380664 0.000282268) 2105
(-0.0375407 0.017521 0.00027328) 1793
(0.0225696 -0.015624 0.000281065) 249
(-0.0225694 0.0226956 0.000310867) 1139
(-0.0325181 -0.0155103 0.000308403) 572
(-0.0164018 0.0162644 0.000281166) 527
(0.0156046 -0.00500435 0.000234878) 261
(0.0127953 0.0268127 0.00028039) 1098
(-0.0961229 0.00697286 0.000290472) 2933
(-0.0289564 -0.00675459 0.000283239) 562
(0.00239843 0.0383185 0.000281779) 2369
(-0.0450317 0.0193233 0.000266534) 1795
(0.00215543 -0.0891576 0.000283394) 3211
(0.0344122 0.0167374 0.000273271) 1545
(-0.0480865 0.0239845 0.00025562) 1795
(-0.0255933 -0.0246997 0.000273917) 580
(0.00792749 -0.0160203 0.000286239) 846
(-0.00595279 -0.0155349 0.000299152) 821
(-0.0149512 0.0413946 0.000259099) 2386
(-0.0134876 0.018605 0.000259586) 1135
(0.0165673 0.03757 0.000274067) 2353
(-0.00284537 0.0442863 0.000244192) 2370
(-0.0230473 -0.0955235 0.000296944) 3205
(0.0217632 -0.0439139 0.000277344) 2107
(-0.00152651 -0.021525 0.000290896) 831
(0.0186311 -0.00859055 0.000297336) 255
(-0.0170446 -0.00679693 0.000310444) 566
(-0.0391903 0.0176694 0.000250464) 1793
(-0.0257568 -0.0249091 0.000284142) 580
(-0.0325344 -0.0155271 0.000284799) 572
(0.0187471 -0.0153761 0.000286314) 247
(0.0298659 -0.0110343 0.000234194) 259
(0.0416264 0.0145027 0.000297762) 1538
(-0.0226597 -0.038596 0.000269664) 2074
(-0.0022376 -0.0999808 0.000275882) 3214
(0.0576324 0.00145118 0.000274593) 1532
(-0.0190834 0.0407902 0.00025635) 2386
(-0.0199359 -0.0326536 0.000300829) 1436
(0.000868008 -0.0875741 0.000289597) 3210
(0.0402743 0.000724208 0.000236544) 1529
(0.0237756 -0.00909597 0.000306452) 256
(-0.000457994 -0.0607823 0.000276743) 2093
(0.0205615 0.0106384 0.000257342) 288
(-0.0119869 0.0299103 0.000279939) 1131
(0.0483909 -0.000553691 0.000316489) 1530
(0.00325335 -0.0868249 0.000322308) 3210
(-0.0257285 0.0256775 0.000318376) 1400
(-0.0639809 0.00429283 0.000281473) 1813
(-0.0224022 -0.0385499 0.000280936) 2074
(-0.0836922 -0.0011596 0.000297812) 2929
(-0.021251 0.0376377 0.000273381) 2385
(0.0229399 0.0113873 0.000272188) 288
(-0.0644195 0.00702807 0.000285279) 1813
(0.0306539 -0.024114 0.000276976) 1505
(-0.0749813 0.000899728 0.000268478) 1815
(-0.0188439 -0.0445779 0.000256717) 2074
(0.0143102 0.0373811 0.000249417) 2353
(-0.0255827 0.0105555 0.000296272) 537
(0.0163695 0.0234554 0.000287115) 1089
(0.0298197 0.0128478 0.00028435) 291
(0.00912512 -0.050067 0.000261479) 2099
(0.0169239 -0.044127 0.00028425) 2106
(-0.0256701 0.0256681 0.000276011) 1400
(-0.012767 0.0551271 0.000288609) 2380
(0.0216212 0.0232692 0.000295098) 1091
(-0.0169015 -0.0309221 0.000282088) 820
(-0.0257339 -0.0439015 0.000253259) 2075
(0.0217954 0.0272737 0.000288838) 1092
(0.00394637 0.0464349 0.000261222) 2370
(0.00926331 -0.0576696 0.000255655) 2100
(-0.0181575 -0.0403059 0.000281997) 2074
(0.000856024 -0.0877762 0.000304552) 3210
(0.0182355 0.0238394 0.000296846) 1090
(0.0146156 0.0346721 0.000289942) 1471
(-0.0219896 0.0405109 0.000271489) 2386
(0.0160806 0.00890742 0.000289283) 286
(-0.0423569 -0.0218189 0.000262837) 1826
(-0.0403028 0.0182778 0.000253351) 1794
(0.0336261 0.00116097 0.000298792) 276
(-0.0409095 -0.0211311 0.000269216) 1826
(-0.019107 -0.032832 0.000279646) 1436
(0.0399645 -0.01394 0.000274157) 1521
(0.0302217 0.0189577 0.000292241) 292
(-0.0897619 0.00116441 0.000286721) 2931
(0.0105506 -0.0154727 0.000264808) 846
(0.0145856 0.0223766 0.000276467) 1089
(-0.0235096 -0.022516 0.00029184) 579
(0.0239906 0.0270558 0.00032577) 1470
(-0.0960808 -0.00394058 0.000292443) 2933
(-0.00135248 -0.0191987 0.000284232) 831
(-0.000538911 -0.0977171 0.000271282) 3213
(-0.0235399 0.0233215 0.00028529) 531
(-0.0357853 0.00399346 0.000285115) 556
(-0.0832888 0.00323662 0.000284403) 2929
(-0.0429978 0.0218348 0.000275874) 1794
(-0.00674097 -0.0452478 0.000315371) 2082
(0.000705765 0.0907243 0.000263822) 3491
(-0.0389944 -0.0161413 0.000271288) 1825
(-0.00843316 0.0617377 0.000265881) 2381
(0.025402 -0.0257237 0.000273598) 860
(-0.106063 -0.000684002 0.000279075) 2935
(-0.0152451 0.0269691 0.000289162) 1130
(0.033718 -0.0117777 0.000281059) 268
(-0.0169915 -0.0312066 0.000243941) 820
(-0.00589333 -0.01755 0.00028092) 822
(7.06144e-05 -0.0564752 0.000280751) 2092
(0.029691 0.0181719 0.000259066) 292
(0.0149898 0.0106734 0.000267062) 293
(0.0175247 0.0240865 0.000292024) 1090
(-0.0231013 -0.0221012 0.000277843) 579
(-0.050175 -0.0192377 0.000246795) 1827
(-0.0818206 0.000810885 0.000282435) 1816
(0.0137439 0.0337545 0.000266235) 1471
(0.0145294 -0.0618394 0.000293069) 2101
(-0.0221598 0.0526832 0.00030972) 2388
(-0.0261379 -0.0252868 0.000287483) 1406
(0.00250975 0.0618822 0.000257493) 2373
(0.00846357 0.0217875 0.00026859) 1096
(-0.0367503 0.0178189 0.000304976) 1793
(-0.081662 0.00111599 0.000279892) 1816
(-0.0218207 -0.00218021 0.000294716) 551
(0.0172139 0.0927191 0.000314166) 3484
(-0.0241885 0.0239845 0.000249932) 531
(0.015196 -0.0385357 0.000300979) 2105
(0.0242408 -0.0251473 0.000263971) 860
(-0.040279 -0.0165334 0.000318108) 1825
(-0.00256192 0.0186103 0.000309) 1118
(-0.0230458 -0.021999 0.000313056) 579
(-0.0639371 0.00732126 0.000304911) 1805
(-0.026245 0.0099212 0.000284306) 537
(0.0181484 -0.0224548 0.000294239) 857
(0.00271178 0.0165407 0.000292756) 1102
(0.0238653 0.0269283 0.000278476) 1092
(-0.0243073 0.0245128 0.000287608) 1140
(0.0113507 0.0367807 0.000303918) 2361
(0.0357547 0.0139509 0.000312554) 1545
(-0.0160029 -0.0267529 0.000293121) 818
(0.00870077 0.0225007 0.000257664) 1096
(0.0410489 0.0165752 0.000275122) 1546
(-0.0168996 -0.000644124 0.000296088) 550
(0.0179364 0.0446655 0.000296416) 2354
(0.00623659 0.0213555 0.000264102) 1103
(0.0216764 0.0268339 0.000252547) 1092
(-0.0171156 0.00464325 0.000235796) 542
(0.0146715 -0.0292455 0.00026532) 851
(0.0418967 -0.0147192 0.000332854) 1514
(0.0423328 -0.0155242 0.000272031) 1514
(-0.040549 -0.021557 0.000314595) 1826
(0.0319733 0.00276508 0.00030199) 275
(-0.108032 -0.000979673 0.0110618) 2936
(-0.0417874 -0.0190672 0.000276627) 1826
(-0.0242126 -0.0417616 0.000256042) 2074
(-0.00501655 -0.0881559 0.000269205) 3210
(-0.0259111 -0.0253777 0.000274864) 1406
(-0.0332818 -0.0155938 0.000273817) 1405
(-0.08738 -0.00800853 0.000262178) 2930
(-0.0529589 0.0298281 0.000282018) 1797
(0.0130442 0.0296133 0.000282467) 1099
(-0.00505901 0.0240255 0.000294002) 1120
(0.0596201 0.00175545 0.000270179) 1533
(-0.0617556 0.00916336 0.000274643) 1805
(0.0296487 -0.0206833 0.000295327) 1365
(-0.0239912 0.0444497 0.000311777) 2387
(-0.0423084 0.0176855 0.000253766) 1794
(0.0186373 0.00807218 0.000314857) 287
(0.0290167 0.000459253 0.000265689) 274
(-0.0763502 0.00273177 0.000260467) 1816
(0.0110156 -0.0596997 0.000268432) 2101
(0.048263 -0.000651351 0.000291969) 1530
(0.0295843 -0.0177243 0.00027332) 260
(-0.0241013 0.0240283 0.000265616) 531
(0.0164163 0.0339457 0.000287724) 1471
(0.0201589 -0.00939678 0.000262421) 255
(-0.0261575 -0.00406262 0.000236641) 561
(-0.0215227 -0.0581095 0.000249842) 2077
(2.80505e-05 0.0304647 0.000274353) 1114
(-0.000789535 -0.0571679 0.000321917) 2092
(-0.0521696 -0.02467 0.00026975) 1828
(-0.0145145 0.038944 0.000267486) 2385
(0.0230564 -0.0249598 0.00027598) 860
(0.00352538 -0.0161375 0.000271789) 838
(0.0419044 0.0178684 0.000273006) 1546
(-0.0191721 -0.0296202 0.000315035) 812
(0.0572055 -0.000857558 0.000277718) 1532
(-0.0458176 -0.0211197 0.000277844) 1827
(-0.00570891 -0.0176108 0.000284358) 822
(-0.0226272 0.0226397 0.000291698) 1139
(0.0225842 -0.0245607 0.000278441) 859
(0.0253985 -0.0258885 0.000307447) 1441
(0.0234359 -0.0249 0.000282987) 860
(0.0118738 0.0212431 0.000267146) 1096
(-0.0260078 -0.0254028 0.000269421) 1406
(-0.0178032 -0.0178047 0.000287) 807
(-0.0211754 0.0210866 0.000298383) 530
(-0.0474292 0.0232031 0.000288565) 1795
(-0.0383232 -0.0150858 0.000286671) 1825
(-0.0843462 0.000203541 0.000288292) 2929
(0.00950291 -0.0596798 0.000271808) 2101
(0.00452224 0.101804 0.000281249) 3494
(0.0157477 -0.00134185 0.000297866) 269
(-0.078365 0.00582551 0.000274415) 1816
(-0.00855986 0.0675396 0.000279565) 2382
(-0.0149702 -0.0313842 0.000290803) 820
(-0.102157 0.00447863 0.000299331) 2934
(0.0406289 0.0162329 0.000293619) 1546
(0.0578764 -0.00255903 0.000276771) 1532
(0.0381497 -0.0164148 0.000270391) 1513
(0.0342248 0.0149254 0.000257743) 1370
(-0.0180731 0.0432101 0.000281536) 2386
(0.0559869 0.000490695 0.000289593) 1532
(0.0131779 0.0567011 0.000288262) 2364
(-0.0792821 -0.00167796 0.000294148) 1816
(-0.0212384 -0.0374142 0.000263929) 2073
(-0.00362234 -0.0317572 0.000266268) 835
(0.0337636 0.0166089 0.000284963) 1370
(0.0230696 -0.0249362 0.000293545) 859
(-0.0333394 -0.0152682 0.000293121) 1405
(-0.0256756 0.0256663 0.000270538) 1400
(-0.0477237 0.0226265 0.000230697) 1795
(-0.0239106 -0.0239278 0.000263295) 811
(-0.0211455 -0.00784668 0.000279327) 559
(-0.0175375 -0.0147657 0.000260861) 575
(0.0391381 -0.0161009 0.000263598) 1513
(-0.0166445 -0.0333718 0.000245484) 1436
(0.023633 0.00962129 0.000287495) 289
(-0.0134826 0.0203184 0.000273181) 1136
(0.0188677 -0.0153674 0.00029208) 248
(0.0179713 -0.0351526 0.000301365) 2105
(-0.0039037 -0.0972336 0.000293677) 3213
(0.00500943 -0.106335 0.000290327) 3216
(0.00151242 -0.0368328 0.000268987) 1438
(0.00186848 0.101732 0.000265661) 3494
(-0.0218153 -0.00190275 0.000288589) 551
(-0.0341398 -0.0147061 0.000269523) 1405
(-0.0198634 0.0371001 0.000298645) 2385
(-0.0259828 -0.0253501 0.000275972) 1406
(0.0117914 -0.0172702 0.000250527) 854
(0.0361516 0.0191009 0.00028729) 1545
(0.000924593 0.0731474 0.000279571) 2375
(-0.0163737 0.000713843 0.000281303) 550
(-0.00127669 -0.053451 0.00026957) 2091
(-0.02068 -0.0189878 0.000273853) 577
(-0.0406937 -0.022225 0.000291784) 1826
(-0.0118731 -0.02585 0.000290906) 818
(0.0577118 -0.00168426 0.000305241) 1532
(-0.0245497 -0.0504238 0.000281874) 2076
(0.0236588 -0.0452156 0.000282063) 2107
(-0.0224184 0.0224518 0.000272584) 1138
(-0.0470318 -0.0211887 0.00027579) 1827
(-0.00435401 0.0384067 0.000274847) 2377
(-0.000942989 0.0361545 0.000253261) 1473
(0.0177481 0.0400167 0.000281204) 2354
(-0.040949 0.0200553 0.000282661) 1794
(-0.0351317 -0.0174319 0.000289627) 1825
(-0.0355085 0.0172777 0.000260988) 1793
(0.00367175 -0.104275 0.000261234) 3215
(-0.0409869 -0.0223578 0.000288769) 1826
(0.0102862 0.0514529 0.000273334) 2363
(0.00246344 0.0784847 0.000292247) 2376
(-0.0163625 -0.00353878 0.00027845) 558
(-0.0502065 -0.022641 0.000264782) 1828
(-0.0351512 0.0173194 0.000305754) 1793
(0.0190548 0.0250042 0.00027103) 1091
(-0.0197753 -0.0375394 0.000278608) 2073
(0.00256887 0.0163103 0.000276022) 1102
(-0.00764948 0.0536068 0.000267896) 2379
(-0.0608253 -0.028907 0.000264492) 1830
(0.0255025 0.0118028 0.000275514) 289
(1.7748e-05 0.0892494 0.000288239) 3491
(-0.0228354 0.0226068 0.000291113) 531
(-0.0257087 0.0256419 0.000306234) 1400
(-0.0275654 -0.0269239 0.000292877) 1833
(0.0212074 0.0271089 0.000318506) 1092
(0.0130876 -0.0273044 0.000253781) 850
(0.0429394 -0.012971 0.000260834) 1522
(-0.000861595 -0.02191 0.000314377) 832
(-0.00583896 -0.0175774 0.000283789) 822
(-0.00158057 0.101716 0.000292029) 3494
(-0.0275713 -0.0270421 0.000287384) 1833
(-0.0199397 0.0496218 0.000256466) 2387
(0.0197861 0.0385058 0.000266459) 2353
(-0.0258794 -0.0249547 0.000305421) 580
(0.0154389 0.00718829 0.000242747) 285
(-0.0577676 0.00994488 0.000287165) 1804
(0.0431922 -0.0139949 0.000276448) 1522
(0.00131275 0.01598 0.000307764) 1110
(0.0186417 -0.0432685 0.000259927) 2106
(-0.0234825 -0.0225886 0.000263264) 579
(-0.0245513 0.0441205 0.000317162) 2387
(0.0221336 0.0285352 0.000300584) 1470
(0.00594521 -0.0522347 0.000284503) 2099
(0.000617118 0.0745401 0.000259106) 2375
(-0.0220935 -0.0211689 0.000300998) 578
(0.0596295 -0.000720606 0.000274718) 1533
(0.0180022 -0.0353904 0.000293595) 2105
(0.0227384 -0.0452821 0.000241624) 2107
(-0.0808284 0.000153345 0.000260455) 1816
(-0.000643964 0.0569823 0.000293975) 2372
(-0.0209265 0.0492925 0.000258711) 2387
(-0.0165656 0.00210169 0.000290438) 550
(-0.00100875 -0.0220428 0.000272938) 832
(-0.051712 -0.0215412 0.00028501) 1828
(0.0349847 -0.0122147 0.000279849) 1367
(-0.00102492 -0.093214 0.000259902) 3212
(-0.0182364 -0.0370318 0.000274474) 2073
(0.0114109 0.0571528 0.000273196) 2364
(0.0354145 -0.0111406 0.00029835) 1367
(0.0304178 0.0232662 0.000280654) 1553
(0.0377691 -0.0185309 0.000294318) 1513
(-0.0831883 -0.000173393 0.000256169) 2929
(-0.0271825 -0.0264949 0.000262427) 1406
(-0.0645989 0.026648 0.000288952) 1798
(-0.0496251 0.0195631 0.000268799) 1795
(0.0259729 -0.0298154 0.000317109) 2113
(-0.0288857 0.0603061 0.000277909) 2390
(-0.0571314 0.00735751 0.000298009) 1804
(0.018615 -0.000729843 0.000282319) 270
(0.0180843 0.0247998 0.000290698) 1090
(0.0446241 0.0152578 0.000283897) 1538
(-0.081656 0.00329627 0.000252285) 1816
(-0.0173555 0.0309749 0.000275233) 1132
(0.0489563 0.00349148 0.000260299) 1531
(0.0305691 -0.0237259 0.000263352) 1505
(-0.00613666 0.0550605 0.000273756) 2372
(0.0165318 0.0439727 0.000292838) 2354
(0.0111839 -0.0301355 0.000279968) 851
(-0.016647 0.0346071 0.000300972) 2385
(-0.00229194 -0.0572688 0.000305131) 2092
(-0.0462617 0.0208782 0.000285893) 1795
(-0.0240376 -0.00420047 0.000260584) 560
(0.0447487 0.0158361 0.00029043) 1546
(-0.024938 0.0246952 0.000283912) 532
(-0.0662312 0.00412687 0.00028427) 1814
(-0.0304435 0.0142425 0.000263889) 540
(-0.102138 0.00589545 0.000287963) 2934
(-0.0492053 0.0246701 0.000243427) 1796
(-0.0591734 0.0262144 0.000274083) 1797
(0.0312213 0.0161935 0.000286497) 292
(0.0253532 0.0256421 0.000265151) 1092
(0.0177474 0.0240615 0.000252733) 1090
(0.0277783 0.0628885 0.000286778) 2358
(-0.0207542 0.0384391 0.000270814) 2386
(-0.00393255 0.0331716 0.000296054) 1123
(0.0184007 -0.00453083 0.000270176) 262
(-0.0377416 0.0174933 0.00027834) 1793
(0.0265728 -0.0271327 0.00027187) 1441
(-0.0349105 0.0166952 0.00030287) 1793
(-0.102099 0.00177959 0.000257178) 2934
(-0.0855014 0.00625183 0.000299159) 2929
(-0.0203709 -0.029564 0.000277578) 812
(0.0265815 -0.0212356 0.000291124) 252
(-0.016477 -0.0039248 0.000306327) 558
(0.0365089 -0.012128 0.000286523) 1521
(-0.000102417 0.0735449 0.000276476) 2375
(0.0189782 0.0250589 0.000289558) 1091
(0.0250907 0.0504072 0.000308986) 2356
(0.00052099 0.101787 0.000280847) 3494
(-0.0031482 -0.0280732 0.000247042) 834
(0.0157498 0.00201728 0.000268171) 269
(0.0176167 -0.0225051 0.000298113) 857
(0.0596179 -0.00134885 0.000274814) 1533
(0.00363994 0.0373237 0.000240464) 1473
(0.0192148 -0.0226525 0.000261459) 858
(-0.00600463 -0.0573086 0.000227239) 2092
(-0.0438823 -0.0229727 0.000277922) 1827
(-0.0173188 -0.0298629 0.000274566) 820
(0.0238328 0.010464 0.000274056) 289
(0.0213821 0.0269031 0.000289479) 1092
(-0.00441439 -0.0993954 0.000296634) 3213
(0.0424272 -0.0148674 0.000287394) 1514
(0.0307852 0.0228233 0.000296489) 1553
(0.0248482 0.00991148 0.000252998) 289
(-0.0192118 -0.0316188 0.000266449) 1436
(-0.0474116 0.024747 0.000261678) 1795
(-0.0656665 0.00715827 0.000305792) 1814
(-0.0218656 0.00267231 0.000282154) 551
(-0.00238389 -0.0600913 0.000238822) 2093
(0.0232298 0.0105332 0.00027429) 288
(0.00268706 0.0166386 0.00027525) 1102
(-0.0435511 0.0220676 0.000296804) 1795
(0.033465 0.020097 0.000280475) 1545
(0.0176719 0.0240089 0.000289367) 1090
(-0.0257035 0.0256455 0.000297712) 1400
(0.0399553 0.0139311 0.000274243) 1537
(-0.0647383 -0.0371035 0.000299849) 1831
(-0.000144644 0.101758 0.000265419) 3494
(-0.0961146 -0.00548946 0.000282664) 2933
(0.035817 -0.0138495 0.000301218) 1513
(0.0269309 0.0203921 0.000305296) 300
(0.0128062 -0.0387988 0.000259824) 2097
(-0.0254784 0.00699057 0.000285314) 545
(-0.0325369 -0.0155208 0.000275684) 572
(0.00115727 0.0960976 0.000318112) 3493
(0.00486669 -0.0166875 0.000248178) 838
(0.0399009 -0.0171949 0.000289326) 1513
(-0.00586439 0.0961296 0.000300816) 3493
(0.0184456 -0.00715884 0.000521222) 263
(-0.0580696 -0.0125604 0.00026611) 1820
(-0.0220144 -0.0357734 0.000295779) 2073
(-0.0225101 -0.0434887 0.00029018) 2075
(0.00406894 0.0714821 0.000243805) 2375
(0.0216813 0.0271353 0.000276088) 1092
(0.00313444 0.0534004 0.000280943) 2371
(-0.0218189 0.0404261 0.000265063) 2386
(0.0130833 0.0198402 0.000305175) 1096
(0.0110229 -0.0516202 0.000270205) 2099
(-0.0171166 -0.0281915 0.00025581) 819
(-0.0022363 0.0186262 0.000270316) 1110
(0.0321585 -0.0214039 0.000272182) 1505
(0.0200118 -0.0386403 0.00029043) 2106
(0.0219178 0.027275 0.00028578) 1092
(0.0089193 -0.0240794 0.000314823) 849
(-0.000855724 0.074856 0.000273117) 2375