/*--------------------------------*- C++ -*----------------------------------*\
| =========                 |                                                 |
| \\      /  F ield         | OpenFOAM: The Open Source CFD Toolbox           |
|  \\    /   O peration     | Version:  plus.master.MPPICInterFoam            |
|   \\  /    A nd           | Web:      www.OpenFOAM.com                      |
|    \\/     M anipulation  |                                                 |
\*---------------------------------------------------------------------------*/
FoamFile
{
    version     2.0;
    format      ascii;
    class       scalarField;
    location    "10.4/lagrangian/kinematicCloud";
    object      age;
}
// * * * * * * * * * * * * * * * * * * * * * * * * * * * * * * * * * * * * * //


2676
(
10.2003
10.12
10.3777
10.3128
10.3699
10.3823
10.3443
10.0286
10.0131
9.89559
10.3175
10.3105
10.3776
10.2329
10.1261
10.1219
10.2098
10.1624
10.0849
10.2981
10.3059
10.2398
10.281
10.3849
10.2401
10.3643
10.237
10.1946
10.0207
10.2304
10.3816
10.37
10.2183
10.2611
10.3639
10.2686
10.377
10.361
10.2663
10.2852
10.3807
10.2797
10.3937
10.0286
10.2703
10.2917
10.1183
9.93696
9.96411
10.2
10.3977
10.2274
10.0353
10.2067
10.3903
10.3199
10.0576
10.3939
10.0477
10.3767
10.3162
10.2714
10.2198
10.3981
10.2503
10.1096
10.1811
10.2991
10.2093
10.3193
10.2595
10.3674
9.94252
10.3186
10.2325
10.3276
10.2868
10.2492
10.1844
10.3172
10.3939
10.2001
10.3738
9.8788
10.3185
10.3874
10.3731
10.2851
10.1734
10.2704
10.1448
10.2099
10.3181
10.1526
10.2728
10.2707
10.0953
9.93775
10.3849
10.3447
9.93712
10.3649
10.2673
10.0215
10.068
10.3121
10.3705
10.1429
10.1027
10.3639
10.2688
10.1524
10.3766
10.1242
10.2921
10.1007
10.308
9.97038
10.3647
10.1974
10.2062
10.3667
10.2756
10.1524
10.2882
10.2515
10.3318
10.3243
10.2313
10.1502
10.3811
10.0251
10.1559
10.1442
10.2117
9.9347
10.1834
10.3404
10.1744
10.1778
10.3817
10.3761
10.3503
10.1798
10.3182
10.1172
10.2383
10.3645
10.2345
10.0962
10.3711
10.3207
10.2535
10.3849
10.1717
10.2672
10.3194
10.1981
10.2098
10.3499
10.3405
10.3705
10.0984
10.3764
10.324
10.2393
10.316
10.3603
10.1178
10.2955
10.385
10.2003
10.3203
9.93944
10.0676
10.2059
10.3769
10.1935
10.3894
10.2513
10.2605
10.2981
10.3901
10.3426
10.1666
10.379
10.098
10.1913
10.298
10.2805
10.1719
10.2738
10.2486
10.3692
10.2047
10.3809
9.98519
10.3473
10.3371
10.3617
10.318
10.0055
10.1907
10.2104
10.3477
10.3916
10.2498
10.2238
10.1232
9.94678
10.2788
10.1285
10.3895
10.162
10.2666
10.3368
10.3196
10.3398
10.3731
10.3108
10.4007
10.3388
10.2267
10.1715
10.352
10.2928
10.2959
10.3433
10.3562
10.3406
10.1441
10.3647
10.0682
10.2399
10.3985
9.9256
9.8294
10.2156
10.198
10.2591
10.1908
10.2004
10.3582
10.3861
10.3974
10.3576
10.3914
10.208
10.3382
10.3208
10.392
10.2002
10.3407
10.2135
10.2866
10.4001
10.3282
10.2735
10.2884
10.3669
9.88713
10.2248
10.3591
10.366
10.2774
10.3145
10.3913
10.2496
10.1367
10.3278
10.3319
10.3574
10.245
10.2223
10.1534
10.2594
9.9334
10.0988
10.2585
10.3566
10.2205
10.2204
10.1348
10.0578
10.362
10.333
10.3274
9.90032
10.1882
9.99287
10.3374
10.1552
10.3778
10.2006
10.3187
10.2107
10.3487
10.1811
10.3562
10.2798
10.3274
10.3961
10.2611
10.2098
10.3543
10.1461
10.3914
10.3357
10.2999
9.99524
10.2808
10.289
10.3754
10.3723
10.3477
10.0583
10.3194
10.2173
10.3639
10.3386
10.2584
10.1687
10.1787
10.2401
10.3828
10.221
10.2464
10.3078
10.367
10.0266
10.1339
9.81906
10.1386
9.96223
10.2925
10.2684
10.3706
10.032
10.2503
10.3976
10.2726
10.3733
10.0374
10.3965
10.3834
9.96544
10.1954
10.2409
10.3642
10.3043
9.88202
10.1321
10.1796
10.1811
10.3493
10.2974
10.3713
10.0673
9.94441
9.99048
10.3082
10.3641
10.0606
10.2198
10.2872
10.1051
10.3077
10.1056
10.39
10.3526
10.1429
10.249
10.2005
10.2155
10.3924
10.2103
10.0102
10.3475
10.3903
10.3395
10.039
9.943
10.3305
10.2416
10.2206
10.3721
10.1455
10.2085
9.963
10.3231
10.3563
10.24
10.3885
10.2947
10.3633
10.2591
10.2637
10.3384
10.0243
10.2456
10.2758
10.3231
10.1812
10.2606
10.0858
10.3959
10.249
10.2349
10.3945
10.2727
10.2864
10.3568
9.98935
10.1052
10.3414
10.2578
10.2394
10.0111
10.0982
10.1714
10.0887
10.0477
10.0774
10.3569
10.0191
10.1721
10.3095
10.0584
10.2497
10.3856
10.3959
10.36
10.1732
10.365
10.337
10.3277
10.3513
10.0746
10.2975
10.3974
10.364
10.2201
10.2806
10.1577
10.3627
10.27
9.84678
10.1856
10.3762
10.3623
10.3375
10.2594
10.2652
10.2107
10.1816
10.3765
10.1147
10.1527
10.1146
10.2394
10.381
9.98478
10.1338
10.0012
9.90493
10.1353
10.1632
10.1595
10.3863
10.3783
10.1333
10.0561
9.99228
10.2784
10.2788
10.1082
10.0773
10.1186
10.1862
10.3276
10.1942
10.311
10.2392
10.3766
10.0362
10.2826
10.2431
10.3341
10.3665
10.3913
10.1337
10.3002
10.1641
10.2716
10.14
10.3372
10.2991
10.2653
9.9537
10.3181
10.0801
10.3967
10.2206
10.2448
10.3524
10.3499
10.3694
10.3813
10.3522
10.323
10.3508
10.248
10.1987
10.3827
10.396
10.1242
9.89664
10.0317
10.324
10.1182
10.1218
10.2934
10.3177
10.2455
10.2198
10.2794
10.2817
10.2315
10.3524
10.2654
10.3989
10.1594
10.2469
9.99438
10.1789
10.2884
10.2298
10.2942
10.3385
10.344
10.2725
10.1714
10.399
10.3592
10.3039
10.0978
10.3767
10.2053
10.113
10.1453
10.2708
10.1838
10.1624
10.3276
10.1002
10.0003
10.293
10.2098
10.2678
10.1771
10.2789
10.3053
9.89134
10.2415
10.3163
10.398
10.2883
9.99119
10.184
10.3762
10.2687
10.3937
10.1194
10.0746
10.3568
10.1256
10.2317
10.1176
10.2889
10.3644
10.0827
10.3995
10.2881
10.3943
10.3641
10.3957
9.91463
10.3884
10.0479
10.2889
10.3471
10.32
10.3779
10.0112
10.1905
10.244
10.3572
10.31
10.3767
10.3375
10.0631
10.3232
10.2295
10.3414
10.2411
10.3196
10.27
10.2786
10.0407
10.357
10.0748
10.0018
10.2123
10.318
10.172
10.3937
10.3757
9.95508
10.0888
10.3079
10.3354
10.3177
10.1352
10.3401
10.1716
10.3134
10.3887
10.3938
10.2155
10.3809
10.2394
10.3434
10.2809
10.0548
10.2393
10.3055
10.0611
10.0697
10.3301
10.0763
9.87848
10.2919
10.3469
10.3092
10.365
10.0968
10.0527
10.1813
10.0343
10.1109
10.0552
10.3575
10.3242
10.2797
10.1616
10.3891
10.3354
10.3533
10.3822
10.2594
10.3495
10.2653
10.1604
10.3705
10.2199
10.3946
10.1913
10.3913
10.0764
9.96298
10.2992
10.1918
10.0144
10.3698
10.1238
10.3855
10.2846
10.3914
10.1619
10.3511
10.364
10.0555
10.3099
10.3867
10.2184
9.87932
9.90601
10.2
10.3974
10.3999
10.3719
10.3149
10.1317
10.2743
10.3519
10.3224
10.2478
10.1977
9.96196
10.3809
10.1242
10.3158
10.3471
9.93416
10.2554
10.3938
10.3816
10.3547
10.3201
10.3642
10.3273
10.3372
10.1915
10.2686
10.3196
10.3081
10.3708
10.2791
10.1224
10.1526
10.2999
10.3571
10.3728
10.4
10.1752
10.3897
10.3817
10.3912
10.3985
10.2112
10.3705
10.2298
10.2326
10.3781
10.3949
10.1719
10.1429
10.2215
10.169
10.3189
10.2978
10.2462
10.3437
10.191
10.3836
10.1919
10.2053
10.3793
10.2036
10.3267
10.3917
10.3469
10.1613
10.0995
10.0146
10.2307
10.3842
10.3766
10.2804
9.95249
10.3826
10.3579
10.3957
10.3518
10.0195
10.3372
10.1739
10.3562
10.3829
10.3698
9.91528
10.2787
10.3448
10.3551
10.0289
10.1642
10.3373
10.3664
10.2403
10.2942
9.90697
10.1313
10.3996
10.0865
10.3438
10.139
10.2553
10.3974
10.3078
10.251
10.3638
10.2394
10.2445
10.2421
10.1702
10.3867
10.3661
10.313
10.3845
10.4
10.0965
10.2794
10.3101
10.3913
10.3421
10.3707
10.3204
10.2392
10.3983
10.2588
10.3616
9.89185
10.0291
10.3919
10.3298
10.2845
10.3715
10.3898
10.2906
9.99048
10.3902
10.3364
10.3274
10.3011
10.2778
10.2395
10.3717
10.358
10.2583
10.2293
10.2925
10.3775
10.2111
10.3707
10.3729
10.2067
10.1333
10.2382
10.3915
10.1339
9.91453
10.3821
10.3586
10.3918
10.2499
10.3081
10.0192
9.98534
10.3532
10.3225
10.2703
10.1201
10.2481
10.3662
10.2517
10.3168
10.3704
10.2197
10.3562
10.0985
10.3989
10.181
10.3897
10.3342
10.1908
10.1294
10.3717
10.2644
10.2886
10.2652
10.31
10.1805
10.2197
10.2524
10.3719
10.2615
10.1161
10.0685
10.2791
10.3994
10.3028
10.26
10.1279
10.2314
9.94426
10.1192
10.032
10.1145
10.1416
10.3727
10.2721
10.2601
10.3084
10.1557
10.0893
10.2693
10.1056
10.2886
10.3889
10.2468
10.1265
10.3378
10.2388
10.2981
10.2392
10.3247
10.3446
10.3373
10.0866
10.2106
10.3923
10.234
10.3723
10.3226
10.0573
10.2816
10.3505
10.1313
10.2942
10.3474
10.3654
10.3803
10.0898
10.1662
9.87685
10.2797
9.89621
10.0859
10.3974
10.1538
10.3844
10.2771
10.1401
10.3104
10.2979
10.2623
10.35
10.1908
10.2142
10.3965
10.2941
10.3853
10.3988
10.347
10.3855
9.96084
10.3314
9.83858
10.2862
9.95364
10.0887
10.3625
10.3913
10.3665
10.3789
10.1177
10.3145
10.2984
10.3561
10.3779
10.1199
10.279
10.338
10.3574
10.127
10.0138
10.2037
10.3806
10.34
10.2844
10.2873
10.3653
10.2015
10.2028
10.0701
10.1672
10.1707
10.352
10.3562
10.3916
10.0384
10.3672
9.91429
10.0014
10.1715
10.249
10.3507
10.2409
10.3313
10.3877
10.3778
10.2882
9.98118
10.3101
10.3398
10.2985
10.3167
10.258
10.3404
10.203
10.3844
10.3918
10.1825
10.3746
10.1848
9.9728
10.3943
10.2993
10.2086
10.3408
10.3993
10.1387
10.2141
10.1791
10.3798
10.3818
10.1714
10.324
10.3923
10.3272
10.3755
10.3564
10.2126
10.1766
9.98975
10.3688
10.3472
10.3302
10.2839
10.1501
10.1238
10.3905
10.26
9.98191
10.3769
10.2884
10.3018
10.0721
10.3215
9.84821
10.1732
10.1048
10.2294
10.3881
9.9757
10.3116
10.0983
9.993
10.3014
10.3912
10.3882
10.1529
10.266
10.2563
10.3763
10.3853
10.3377
10.3581
10.3646
10.3313
9.95705
10.2733
10.0037
10.3992
10.2207
10.3281
10.3378
10.0292
10.3405
10.1621
10.3619
10.342
10.4001
10.391
10.1613
10.3089
10.387
10.1734
10.2543
10.383
10.3175
10.2801
10.3939
9.99049
10.3763
10.2364
10.3082
10.3133
10.2012
10.3153
10.2183
10.0477
10.0752
9.94989
10.1713
10.3418
10.3507
10.353
10.3439
9.98331
10.2888
10.3591
10.3642
10.1309
10.1708
10.2493
10.1527
10.2711
10.3704
10.124
10.1048
10.3995
10.2257
10.3957
10.298
10.1093
10.326
10.2229
10.0021
10.1322
10.2502
10.1018
10.0193
10.3605
10.3963
10.2305
10.249
10.2505
10.2954
10.2201
10.3809
10.349
10.3723
10.0152
10.3307
10.349
10.3884
10.31
10.2908
10.2107
10.2051
10.3717
10.162
10.3008
10.3582
10.2996
10.3582
10.3294
10.3125
10.2785
10.3666
10.3046
10.2133
10.3814
10.3202
10.124
10.0762
10.2687
9.88717
10.3584
10.3442
10.0233
10.1815
10.3078
10.2784
10.1541
10.181
10.1705
10.3708
10.0703
10.3991
10.3106
10.372
10.4
10.3666
10.3467
10.259
10.3175
10.3985
10.1402
10.2781
10.3201
10.1468
10.3706
10.3318
10.348
10.2688
10.0969
10.1181
10.2695
9.98096
10.3025
10.3018
10.1239
10.1252
10.1663
10.3888
10.3894
10.0897
10.3205
10.27
10.2884
10.394
10.2202
10.2784
10.2389
10.2886
10.347
10.2099
10.2728
9.95837
10.3629
10.2826
10.1539
10.2488
9.98143
10.2005
10.347
10.1781
10.2494
10.2396
10.2222
10.3559
10.3855
10.2595
10.2528
9.97184
10.0667
10.2911
10.1933
10.3026
10.3899
10.3652
9.94341
10.2707
10.2451
10.3562
10.277
10.0407
10.2392
10.2806
10.2383
10.1793
10.1957
10.1435
10.1979
10.3567
10.2836
10.261
10.3937
10.2697
10.348
10.385
10.3848
10.2129
10.3008
10.3397
10.0584
10.3762
10.2742
10.3943
10.2784
10.3372
10.1727
10.399
9.9775
10.3974
10.3375
10.3575
10.3409
9.8842
10.2731
10.2704
10.1828
10.347
10.2821
10.3697
10.2832
10.0002
10.2676
10.2542
10.3214
10.3691
10.3912
10.347
10.3906
10.3041
10.3266
10.1729
10.2297
10.3279
10.2746
10.1801
10.3484
10.1665
10.2004
10.2836
10.1714
10.3562
10.1634
10.2264
10.3027
10.3763
10.1353
10.2001
10.1412
10.3426
9.98201
10.3884
10.2
10.3827
10.0705
10.1864
10.3372
10.1627
10.1727
10.2528
10.3797
10.2403
10.275
10.3078
10.3099
10.2681
10.3576
10.3479
10.3299
9.95978
10.371
10.2993
10.381
10.3598
10.379
10.3287
10.3376
10.2208
10.0616
10.3672
10.14
10.3043
10.1238
10.0104
10.3709
10.1957
10.2896
10.3274
10.1658
10.2037
10.0572
10.324
10.3166
10.1378
10.2154
10.3035
10.3914
10.27
10.1256
10.3944
10.208
10.3593
10.3763
10.3318
10.3618
10.1718
10.3569
10.3656
10.3804
10.1696
10.0003
10.3241
10.1532
10.2595
10.358
10.0785
10.3407
10.3273
10.0538
10.081
10.3283
10.3276
10.3974
10.0594
10.2059
10.3707
10.3077
10.385
10.164
10.2394
10.3709
10.2613
10.3008
10.2865
10.0986
10.3692
10.1805
10.2881
10.0779
10.1527
10.2
10.2626
10.2002
10.1924
10.2686
10.2708
10.07
10.3855
10.2691
10.2525
10.385
10.3358
10.183
10.2638
10.2024
10.1053
10.208
10.3023
10.2176
10.3826
10.3762
10.1361
10.3147
9.85771
10.2983
10.3462
10.3863
10.3002
10.3321
10.2103
10.3579
10.3761
10.0286
10.1289
9.93635
10.1558
10.3162
10.2518
10.2196
10.3178
10.0205
10.2988
10.2042
10.3374
10.2782
10.2505
10.1558
10.1419
10.1868
10.3274
10.3011
10.2884
10.0103
10.3515
10.3707
10.1919
10.3585
10.1083
10.249
10.1905
10.3456
10.1364
10.191
10.3658
10.2207
10.3478
10.3501
10.389
10.3587
9.94398
10.3532
10.1143
10.3474
10.3714
10.2222
10.3258
10.1947
10.392
10.2392
10.1367
9.85016
10.2402
10.3178
10.1522
10.2896
10.3506
10.2897
10.369
10.135
10.2606
9.89848
10.3004
10.1094
10.1624
10.3883
10.3826
10.37
10.0868
10.3845
10.2109
10.3844
10.2326
10.3022
10.3469
10.2625
10.3325
10.3302
10.3742
10.3652
10.3125
10.0194
10.2982
10.3275
10.3543
10.3177
10.1532
10.0258
10.2098
10.0389
10.2769
10.3191
10.3018
10.3883
10.0774
10.38
10.3597
10.0953
10.3652
10.1956
10.3577
10.099
10.3395
10.2091
10.3567
10.2403
10.202
10.254
10.0995
10.0085
10.3639
10.3297
10.3577
10.1721
10.2589
10.3913
10.3916
10.3274
9.98293
10.1532
10.1779
10.2677
10.2792
10.2493
10.3273
10.0478
10.1621
10.2294
10.4007
10.2058
10.3184
10.291
10.1852
10.3668
10.236
10.3654
10.3988
10.2796
10.298
10.3242
10.2784
10.3103
10.2592
10.3536
10.2596
10.3593
10.3978
10.3665
10.1247
10.2
10.2522
10.3761
10.0393
10.2787
10.3883
10.0769
10.1261
10.0667
10.2889
10.3327
10.0346
10.2901
10.323
10.3456
10.243
10.2316
10.3695
10.3676
10.1475
10.0594
10.1495
10.3955
10.2608
10.2299
10.3558
10.3101
10.3195
10.2194
10.2308
10.1937
10.3255
10.2648
10.294
10.3731
9.99953
10.334
10.2001
10.2863
10.3778
10.0192
10.3559
9.91626
10.1741
10.2979
10.145
10.2302
10.0526
10.2223
9.8796
10.181
10.1153
10.3473
10.1925
10.3938
10.3768
10.2522
10.2814
10.3703
10.3263
10.1933
10.3705
9.89904
10.3809
10.2381
10.1477
10.3176
10.3962
10.3562
10.1967
10.3295
10.1525
10.3376
10.3765
10.3478
10.1727
10.384
10.2879
10.1634
10.2201
10.1524
10.3064
10.2512
10.2472
10.3934
10.3963
10.1497
10.3433
10.3478
10.0871
10.0762
10.1345
10.3202
10.0509
10.2294
10.3774
10.0778
10.3471
10.3079
10.2824
10.3084
10.1555
10.3639
10.3809
10.365
10.3274
10.2196
10.1886
10.188
10.3713
10.2123
10.0392
10.3288
10.2392
10.3742
10.104
10.2688
10.361
10.143
10.2211
10.3162
10.0291
10.306
10.3908
10.3851
10.1333
10.2885
10.0927
10.2789
10.0479
10.3483
10.3931
10.0953
10.0286
10.2688
9.84869
10.1968
10.1776
10.1339
10.2259
10.3813
10.1829
10.2403
10.2131
10.0819
10.3607
10.143
10.1722
10.1153
10.2005
10.3376
10.3639
10.3867
10.2874
10.2913
10.3641
9.86077
10.3109
10.3813
10.226
10.2706
10.2139
10.2397
10.3177
10.2743
10.2394
10.0213
9.89674
10.3077
10.2105
10.3316
10.3278
10.0778
10.2253
10.2493
10.2862
10.3472
10.2905
10.2295
10.1681
10.3913
10.2704
10.3913
10.2224
10.348
10.3488
10.3375
10.3679
10.1895
10.2009
10.3374
10.2982
10.2295
10.2924
9.94344
9.93334
10.3066
10.191
10.3481
10.3568
10.3765
10.3599
10.3939
10.3639
10.3042
10.2228
10.3075
10.3884
10.1814
10.3703
10.0493
10.1826
10.0585
10.3561
10.3469
10.3651
10.2691
10.2175
10.3481
10.2991
10.2076
10.3913
10.2397
10.4002
10.2714
10.3561
10.1144
10.3457
10.2937
10.249
10.1922
10.1819
10.1949
10.3471
10.0378
10.1647
10.094
10.0954
10.0655
10.3989
10.2396
10.2543
10.2686
10.1369
10.2393
10.3644
9.97202
10.1457
10.3989
10.3469
10.3092
10.3812
10.2926
10.3487
10.1639
10.2991
10.26
10.3162
10.2544
10.1337
10.3657
10.2314
10.3638
10.3586
10.3895
10.23
10.237
10.3731
10.2982
10.3561
10.2786
10.2749
9.90386
10.2577
10.1818
10.3265
10.0612
10.1365
10.0803
10.2084
10.0156
10.1481
10.2342
10.3685
10.1835
10.2417
10.1139
10.0211
10.0353
10.3885
10.1562
10.1429
10.3454
10.3072
10.1029
10.3089
10.1004
10.2592
9.92515
10.2784
10.2915
10.1979
10.0851
10.3598
10.1433
10.2256
10.2237
10.3707
9.97266
9.92433
10.3381
10.36
9.84835
10.3813
10.2208
10.3711
10.3475
9.94526
10.2944
10.26
10.2209
10.0297
10.3441
10.3728
10.3145
10.2893
10.2843
10.016
10.3772
10.392
10.2793
10.1449
10.2458
10.381
10.1686
10.169
10.3662
10.3761
10.3771
10.146
10.357
10.308
10.3854
10.3849
10.2657
10.3673
10.3608
10.3572
10.1048
10.3213
10.1421
10.0413
10.2515
10.2295
10.3034
10.203
10.3824
10.091
10.3084
10.313
10.3651
10.2359
10.2384
10.2607
10.3651
10.3584
10.2596
10.2588
10.3118
10.2005
10.3204
10.2941
10.1468
10.3703
9.97304
10.3765
10.3767
10.3705
10.3819
10.2588
10.3277
10.3814
10.1149
10.0987
10.0144
10.3881
9.9678
10.3148
10.3065
10.3622
10.104
10.3811
10.3341
10.3107
10.3627
10.2479
10.333
10.3583
10.3706
10.294
10.3705
10.3975
10.3374
10.1308
10.3639
9.95688
10.3565
10.3369
10.3641
10.3332
10.2252
10.2771
10.3646
10.3576
10.3602
10.3927
10.3874
10.3437
10.0286
10.3562
10.2609
10.344
10.249
10.3708
9.84222
10.3646
10.0381
10.2478
10.2001
10.3259
10.3175
10.3767
10.3977
10.1828
10.355
10.2739
10.3693
10.3938
10.0381
10.2691
10.2476
10.103
10.3988
10.3515
10.2533
9.9735
10.3333
10.1216
10.3253
10.3946
10.0477
10.4
10.3401
10.329
10.3013
10.0857
10.1318
10.3764
10.3201
10.1152
10.3617
10.2471
10.2499
10.2737
10.3745
10.1925
10.0612
10.1426
10.3273
10.2367
10.3283
10.2721
10.0267
10.0681
10.2195
10.3876
10.1821
10.1909
10.1534
10.2744
10.0393
10.1732
10.3713
10.2429
10.3762
10.3797
10.2615
10.3226
10.2196
10.2393
10.339
10.0964
10.0858
10.2352
10.0371
10.2827
10.1299
10.3652
10.2887
10.2858
10.2005
10.1805
10.0691
10.2294
10.2686
10.3917
10.0883
10.1074
10.32
10.2895
10.2559
10.2611
10.4003
10.364
10.2137
10.2949
10.191
10.154
10.1489
10.029
10.1273
10.302
10.2473
10.249
10.2181
10.2887
10.1627
10.3783
10.3506
10.1911
10.1875
10.2576
10.3975
10.0381
10.2917
10.1524
10.3488
10.235
10.2602
10.3769
10.1001
10.3624
10.3562
10.3474
10.2814
10.0114
10.3059
10.3562
10.3921
10.0683
10.3181
10.3082
10.3083
10.3941
10.3544
10.2439
10.2618
10.3995
10.3178
10.347
10.399
10.3639
10.2393
10.0777
10.25
10.2784
9.62404
10.3821
10.2693
9.5903
10.3469
10.3536
10.1236
9.93417
10.3094
10.3561
10.3562
10.2814
10.3673
10.2824
10.308
10.3545
10.3845
10.2701
10.1429
9.64155
10.3644
9.94221
10.3811
10.3916
10.2444
10.3476
10.3168
10.1833
10.3936
10.2614
10.381
10.3753
10.3742
10.3178
10.351
10.293
10.2227
10.2855
10.2511
10.2258
10.3273
10.2055
10.0112
10.3084
10.2006
10.3165
10.1716
10.3689
10.3375
10.3786
9.91515
10.3198
9.98541
10.2197
10.3958
10.3081
10.1243
9.62482
10.1715
10.157
10.3284
10.1836
10.3377
10.2106
10.0676
10.3083
10.3884
10.3913
10.3311
10.3571
10.3208
10.3709
10.3887
10.0858
10.3896
10.0191
10.2105
10.3667
10.3639
10.3077
10.3082
10.3311
10.2294
10.3909
9.75576
10.3177
10.0939
10.3224
10.3715
10.0708
10.3261
10.3521
10.2498
10.3244
10.1058
10.2929
9.97911
10.2432
10.2521
10.2817
10.2724
10.2003
10.0762
10.3601
10.0958
9.98825
10.2733
10.3765
10.2828
10.2984
10.3888
10.0906
10.26
10.3785
10.2759
10.2675
10.3152
10.3936
10.1299
10.3494
10.2401
10.3916
10.2795
10.249
9.96233
10.3913
10.197
10.3542
10.3119
10.3082
10.3728
10.0865
10.3549
10.2867
10.0332
10.3477
10.233
10.1102
10.3565
10.3815
10.2392
9.97899
10.0961
10.2064
10.0925
10.3764
10.0388
10.1056
10.3398
10.2687
10.1402
9.91456
10.1717
10.222
10.1543
10.1444
9.98299
10.3085
10.2392
10.3096
10.3937
10.3015
10.3525
10.0002
10.0564
10.3783
10.4002
10.3849
10.2686
10.0583
10.1813
9.98222
10.0287
10.1813
10.3709
10.1056
10.1831
10.2802
10.2619
10.3689
10.2021
10.3037
10.2504
10.3669
10.3838
10.3196
10.1257
10.2294
10.1407
10.356
10.3181
10.2213
10.2742
10.3341
10.3387
10.3142
10.3085
10.1634
10.2091
9.94166
9.92276
10.2404
10.1143
10.0579
10.3639
10.3649
10.3675
10.2232
10.2801
9.91617
10.3194
10.3237
10.2971
10.3009
10.358
10.3924
10.244
10.356
10.3464
10.2978
10.4002
10.2413
10.3421
10.3477
10.1715
10.2642
10.3942
10.1491
10.3126
10.2528
10.0341
10.2554
10.2793
10.3646
10.3949
10.3449
10.3941
10.3981
10.289
9.84173
10.2098
10.0336
10.2687
10.3077
10.3637
10.1784
10.0789
10.0571
10.0882
10.3371
10.3469
10.2784
10.386
10.3906
10.1596
10.1815
10.2105
10.3041
10.3655
10.1905
10.2531
10.3347
10.3903
10.175
10.2232
10.369
10.201
10.3917
10.3763
9.81913
10.331
10.249
10.3276
10.2696
10.3194
10.3921
9.90417
10.1528
10.2296
10.3919
10.385
10.4
10.267
10.3253
10.3413
9.83184
10.249
10.2171
10.3623
10.3596
10.3708
9.97709
10.2536
10.381
10.3762
10.2303
10.3392
10.2888
10.2954
10.0762
10.2517
10.2125
10.3815
10.2303
10.2908
10.3004
10.298
10.3937
10.2294
10.1708
10.1544
10.2885
10.0868
10.2628
10.3974
10.0629
10.3536
10.1221
10.2855
10.1174
10.3176
10.2022
10.3154
10.2793
10.4
10.3822
9.87548
10.1532
10.3526
9.93431
10.2811
10.3301
10.3818
10.3914
10.3937
10.3826
10.168
9.97846
10.272
10.3593
10.3276
10.0193
10.2216
10.2732
10.3011
10.1429
10.3974
9.90602
10.3917
10.2885
10.3544
10.3082
10.359
10.3088
10.1152
10.0507
10.0902
10.3573
9.93888
10.249
10.3439
10.1339
10.1073
10.1429
10.0862
10.1075
10.3304
10.2723
10.1835
10.281
10.347
10.086
9.89968
10.243
10.3175
10.3166
10.134
10.328
10.3971
10.3278
10.2205
10.3315
10.1442
10.3054
9.64114
10.1449
10.2887
10.3179
10.3428
9.61
9.50762
10.3226
10.3889
10.2029
10.3906
10.2512
10.3307
10.4001
10.371
10.0497
10.1908
10.2342
10.3974
10.2397
10.324
10.0172
9.98095
10.2109
10.1905
10.3711
10.3564
10.2001
10.3819
10.3941
10.0191
10.2528
10.1429
10.23
10.3406
10.1739
10.1448
10.2837
10.2714
10.3778
10.3296
10.3715
10.2997
10.3639
10.3646
10.233
10.1276
10.0492
10.3431
10.3341
10.1049
10.383
9.82904
10.2219
9.84001
10.3774
10.0442
10.33
10.1171
10.3761
10.2392
10.262
10.103
10.3067
10.4009
10.1619
10.3913
10.2589
10.2791
10.194
10.2556
10.3147
10.0012
9.9716
10.3905
10.1738
10.2705
10.2625
10.2402
10.0953
10.0857
10.0293
10.2213
10.3289
10.1545
10.1375
10.3544
10.31
10.2015
10.2736
10.1635
10.3982
10.3686
10.2396
10.3504
10.2881
10.3718
10.2492
10.3957
10.3089
10.1661
10.2023
10.2115
10.2696
10.3571
10.2538
10.3022
10.3473
10.2784
10.3886
10.3941
10.3929
9.92458
10.1657
10.2588
9.81015
10.0023
10.2882
10.3301
10.2418
10.3955
9.97354
10.3372
10.3891
10.0279
10.2683
10.3455
10.067
10.2612
10.2929
10.2134
10.3016
10.2231
10.275
10.1759
10.3994
10.364
10.2402
10.1287
10.3578
9.90814
10.3345
10.3983
10.2686
10.2929
10.2665
10.2066
10.0533
10.0877
9.9921
10.3855
)


// ************************************************************************* //
