/*--------------------------------*- C++ -*----------------------------------*\
| =========                 |                                                 |
| \\      /  F ield         | OpenFOAM: The Open Source CFD Toolbox           |
|  \\    /   O peration     | Version:  plus.master.MPPICInterFoam            |
|   \\  /    A nd           | Web:      www.OpenFOAM.com                      |
|    \\/     M anipulation  |                                                 |
\*---------------------------------------------------------------------------*/
FoamFile
{
    version     2.0;
    format      ascii;
    class       vectorField;
    location    "10.4/lagrangian/kinematicCloud";
    object      U;
}
// * * * * * * * * * * * * * * * * * * * * * * * * * * * * * * * * * * * * * //


2676
(
(-0.000958647 -9.89896e-05 -0.0565675)
(-0.000970219 -7.67195e-05 -0.0560873)
(-0.000929128 -0.000124772 -0.0572869)
(-0.000928465 -0.000130477 -0.0573234)
(-0.000740795 -0.000325866 -0.0555989)
(-0.000853487 -0.000883284 -0.0556601)
(-0.000909644 -0.000149445 -0.0569882)
(-0.000774285 -0.000344034 -0.0563489)
(0.000894099 -0.000137103 -0.0527946)
(-0.000851887 -0.000846928 -0.0559923)
(-0.00102459 -0.000957901 -0.0565418)
(-0.000867784 -5.87543e-05 -0.0571209)
(-0.000883649 -0.000887391 -0.0563979)
(0.000877308 -0.000315437 -0.052557)
(0.000963723 -0.00013061 -0.0526327)
(-0.000515334 -0.00107198 -0.058318)
(-0.000607191 -0.000974477 -0.0567499)
(-0.000673331 -0.000805663 -0.0540706)
(-0.000810669 -0.00102146 -0.0584744)
(-0.000837712 -0.000826433 -0.05554)
(-0.000859287 5.22334e-05 -0.0546754)
(0.000890534 -0.000328061 -0.0535013)
(-0.00086149 5.13281e-05 -0.0539148)
(-0.0010296 -0.000975483 -0.0586979)
(0.00082338 -0.000355945 -0.0534746)
(-0.000290362 -0.000202485 -0.0574532)
(-0.000806717 -0.000996989 -0.0585875)
(-0.000859398 -2.2482e-06 -0.0566318)
(-0.00080468 -0.0010163 -0.0589289)
(-0.00087035 1.75332e-05 -0.0541451)
(-0.000896121 -0.00013377 -0.0583103)
(0.000778069 -0.000382971 -0.0533021)
(0.000759134 -0.000141374 -0.0534263)
(0.000765553 -0.000136907 -0.0537611)
(0.000805735 -0.000295509 -0.0534144)
(0.000929319 -0.000110811 -0.05265)
(-0.00104917 -0.000940548 -0.0586117)
(-0.000849768 0.000151424 -0.0564123)
(-0.00091379 -0.000109994 -0.0576982)
(-0.0010121 -0.000222684 -0.0573042)
(-0.00104892 -0.000724635 -0.0562876)
(-0.000805588 -0.000289269 -0.0592393)
(0.000772657 -0.000310004 -0.0523426)
(-0.000783142 -9.37945e-06 -0.059111)
(0.000861462 -0.000367033 -0.0543708)
(-0.00158656 -0.000246898 -0.0558044)
(0.000982358 -9.37325e-05 -0.0516408)
(-0.000784095 5.83479e-05 -0.0547328)
(0.000866773 -0.00036732 -0.0541587)
(0.000855929 -0.00035826 -0.0545025)
(-0.000789594 6.91537e-05 -0.054642)
(-0.00100182 -0.000199529 -0.0574287)
(0.000875529 -0.000338543 -0.0539588)
(-0.000839354 0.000129496 -0.0563943)
(-0.00079905 3.28301e-05 -0.0545367)
(-0.000898992 -5.06497e-05 -0.0574156)
(-0.000755951 0.000114158 -0.0588849)
(0.000909253 -0.000100341 -0.0532959)
(-0.000880434 -6.93675e-05 -0.0575812)
(0.000882478 -0.000362933 -0.0539537)
(0.00108357 6.19907e-07 -0.0507345)
(-0.000856039 0.000280117 -0.0560187)
(-0.000933745 -0.000192222 -0.0585774)
(0.000946497 -0.000108896 -0.0529492)
(-0.00144971 -0.000153124 -0.054849)
(-0.00081613 8.43442e-05 -0.0587795)
(-0.000813739 0.000199182 -0.0563414)
(-0.000930862 -0.000125065 -0.0584861)
(0.00101965 -5.02164e-05 -0.0518768)
(0.000837675 -0.000157822 -0.0501484)
(0.000768159 -0.000320769 -0.0529402)
(-0.00100571 -0.000278682 -0.0575525)
(-0.000832907 -0.0001998 -0.0597196)
(0.000943088 -0.000100756 -0.0525132)
(-0.000983048 -0.000224728 -0.0544431)
(0.000983249 -9.33704e-05 -0.0520059)
(0.000808743 -0.000160803 -0.0505141)
(-0.00082824 0.00026392 -0.0564458)
(-0.000928272 -6.25827e-05 -0.0583583)
(0.000796912 -0.000196885 -0.0509762)
(-0.000861731 -4.13402e-06 -0.0538997)
(-0.000937046 -1.09203e-05 -0.0585936)
(-0.00051011 -0.00094404 -0.0582572)
(0.000913114 -9.7172e-05 -0.0542216)
(0.00113037 0.000145474 -0.0513317)
(0.000982098 -0.000230175 -0.0541602)
(0.000893267 -9.13595e-05 -0.0544972)
(-0.000774821 4.65269e-05 -0.0583699)
(-0.00149279 -0.000120856 -0.0545456)
(-0.00288069 0.000161168 -0.0560587)
(0.000979532 -7.3211e-05 -0.0517442)
(-0.000770674 0.000141034 -0.0561942)
(-0.000840691 0.000277164 -0.0564278)
(0.000752339 -0.000109642 -0.0535814)
(0.000759063 -0.000213586 -0.0518003)
(0.000941313 -0.000106241 -0.0537983)
(-0.000780316 0.000305575 -0.0562686)
(0.000879248 -8.17865e-05 -0.0526716)
(0.000781721 -0.000100136 -0.0541863)
(-0.000826141 0.00029212 -0.0565759)
(0.00128971 0.000439762 -0.0543304)
(0.00112756 0.000138891 -0.0510268)
(0.00111241 0.000151748 -0.0516381)
(0.000789225 -0.000102124 -0.0545918)
(0.00115067 0.000127645 -0.0515164)
(0.0010614 0.000111236 -0.0518838)
(0.0010804 0.000107096 -0.0514239)
(0.00109516 0.000174602 -0.0518778)
(0.000778667 -0.00020677 -0.0513938)
(0.000933347 -0.000250934 -0.0537579)
(0.00108098 8.92315e-05 -0.0518333)
(-0.000786379 0.000212197 -0.056537)
(-0.000815011 0.000358392 -0.0571447)
(0.000876463 -0.000105038 -0.0541958)
(-0.000762628 0.000200147 -0.0562467)
(-0.000873261 0.000202694 -0.0584499)
(0.000922779 -9.76773e-05 -0.0517454)
(0.00072102 -0.000224994 -0.0504967)
(0.000806124 -0.000458867 -0.0546366)
(0.000847102 -6.48184e-05 -0.0546144)
(0.00090257 -0.000107183 -0.052138)
(-0.000783764 0.000229541 -0.0565175)
(0.000903397 -0.00021609 -0.0530963)
(-0.000767314 0.000216549 -0.0563932)
(0.000878736 -0.000118013 -0.0540879)
(-0.00100877 -0.000293608 -0.0576209)
(0.00119372 0.000200816 -0.0495089)
(0.00112286 0.000103168 -0.0512345)
(-0.000719449 0.00016875 -0.0531882)
(0.00073025 -0.000205684 -0.0515758)
(-0.000734685 0.000220506 -0.056207)
(0.000743981 -9.2752e-05 -0.0539382)
(-0.00089202 8.72299e-05 -0.0583241)
(-0.000732498 0.000202195 -0.0560256)
(-0.00093093 0.000640316 -0.0586669)
(0.000781141 -0.000377893 -0.0546047)
(0.00081452 -6.91161e-05 -0.0546038)
(0.000883004 -7.60522e-05 -0.0543646)
(0.000752397 -0.000184633 -0.0515814)
(-0.00283482 0.000442752 -0.0539517)
(-0.000749999 0.000205238 -0.0561827)
(0.000768037 -7.93106e-05 -0.053287)
(-0.00091872 0.000454786 -0.0587375)
(0.00125458 0.000717036 -0.0565293)
(0.000761755 -0.000220414 -0.051548)
(0.000847109 -0.000125561 -0.0521483)
(-0.000915703 0.00052351 -0.0586752)
(0.00121408 0.000685561 -0.0535703)
(0.00119996 0.000673842 -0.0574375)
(0.000703791 -0.000198174 -0.0507615)
(-0.000787763 -0.000205531 -0.0578424)
(-0.00104715 -0.000392192 -0.0585751)
(0.00109301 0.000134179 -0.0511145)
(0.00105512 0.00011926 -0.052067)
(0.00118695 0.000190383 -0.0493387)
(0.000958053 -0.000100051 -0.0528921)
(0.000686321 -0.000222096 -0.0504873)
(-0.00175444 0.000316932 -0.0534346)
(-0.00145079 -4.86266e-05 -0.0560442)
(0.0011548 0.000617929 -0.0540837)
(-0.000913306 0.000517012 -0.0587678)
(-0.000816745 0.000326885 -0.0522991)
(0.000738003 -8.55784e-05 -0.0527069)
(0.000875832 -0.000224521 -0.0533457)
(0.000927683 -0.000213899 -0.0540444)
(0.00068597 -0.000241026 -0.0506355)
(0.000927084 -0.000104528 -0.0522202)
(0.000775269 -0.000279517 -0.0546373)
(0.000668113 -0.000204188 -0.0501039)
(0.000679978 -0.000224702 -0.0505591)
(-0.0008001 0.000531929 -0.0573491)
(0.000849495 -0.000229349 -0.0540136)
(0.00114512 0.00021255 -0.0510797)
(-0.00305323 0.000306749 -0.0552916)
(0.000863856 -0.000223881 -0.0532814)
(-0.000936408 0.000578052 -0.0587419)
(0.00092591 -0.000190779 -0.0544278)
(-0.000843624 3.08988e-05 -0.0589884)
(0.000962891 -7.81999e-05 -0.0531828)
(-0.000714425 0.000269031 -0.0563596)
(-0.000734999 0.000205165 -0.0563455)
(-0.000782135 0.000114849 -0.056996)
(0.000750324 -0.000231563 -0.0510398)
(-0.000670876 0.000148748 -0.0541354)
(-0.000719757 0.000218489 -0.0564505)
(0.000870885 -9.71898e-05 -0.0519574)
(0.000780456 -7.95425e-05 -0.0544906)
(-0.00206363 0.000433301 -0.0549022)
(0.000878764 -7.16116e-05 -0.0533507)
(0.00121231 5.88846e-05 -0.0535002)
(0.000649018 -0.000226917 -0.0499738)
(0.00338332 -7.15495e-05 -0.0519684)
(-0.000722711 0.00019526 -0.0564904)
(0.00073725 -8.76285e-05 -0.0525917)
(0.000840055 -0.000124038 -0.0519725)
(-0.000895063 0.000542783 -0.057012)
(0.00076327 -0.000185225 -0.0506629)
(0.000779236 -0.000175925 -0.0498827)
(-0.00298128 0.0003844 -0.0561108)
(-0.00076231 0.000108291 -0.0576555)
(0.000877339 -0.000214264 -0.0524169)
(0.000746455 -6.23977e-05 -0.0532132)
(0.000824279 -6.70003e-05 -0.0539412)
(-0.000627603 -2.66548e-05 -0.0549356)
(0.000839098 -0.000168258 -0.0535139)
(0.000744233 -7.49513e-05 -0.0540453)
(0.00106295 8.75658e-05 -0.0504784)
(0.000971558 -8.34614e-05 -0.0501582)
(0.000917966 -0.000110715 -0.0507222)
(0.000615379 -0.000181866 -0.050233)
(0.000693759 -0.000230707 -0.0518082)
(-0.000642114 0.000174744 -0.0558148)
(-0.00086418 0.000510437 -0.0568787)
(0.000861244 -8.31672e-05 -0.0535334)
(0.00447146 -8.27199e-05 -0.051388)
(-0.000671011 0.000155352 -0.05545)
(-0.000718651 0.000158483 -0.0566269)
(0.000733155 -7.34865e-05 -0.0528452)
(0.000678096 -0.000210495 -0.0521171)
(-0.000869373 0.000115829 -0.0556765)
(0.000822264 -6.18075e-05 -0.0525987)
(0.000927956 -0.000115452 -0.0530593)
(0.00126895 0.000408834 -0.0548563)
(0.000705369 -0.000235782 -0.0516346)
(0.000771996 -9.30676e-05 -0.0544985)
(0.00103195 0.000918137 -0.053702)
(0.00084994 -6.26798e-05 -0.0541434)
(0.000977994 4.38564e-05 -0.0517182)
(0.00100025 5.5505e-05 -0.0518756)
(0.00303917 -0.000318976 -0.0519531)
(-0.000613014 0.000142731 -0.0533212)
(0.00111284 0.000536281 -0.0537818)
(0.000836495 -6.67653e-05 -0.054254)
(0.0010744 9.68111e-05 -0.0501427)
(0.000685491 -0.000228603 -0.0508031)
(-0.00136878 0.000292624 -0.0560637)
(-0.00347855 0.000129409 -0.0591579)
(0.00109538 -3.66992e-05 -0.0526004)
(0.00123956 0.000773988 -0.0528988)
(0.000678634 -0.000208069 -0.0522025)
(-0.000648466 0.000201173 -0.0561731)
(0.00110662 0.000535037 -0.0539872)
(-0.000717058 0.000141093 -0.0566965)
(0.0008027 -9.4458e-05 -0.052076)
(0.000987691 -0.000154946 -0.0529466)
(0.00106817 -4.49473e-05 -0.0548015)
(0.00153799 -5.50239e-05 -0.0508502)
(0.000696056 -0.000206915 -0.0521759)
(-0.000618361 0.000158705 -0.0534499)
(-0.000741869 -0.0001809 -0.0589409)
(0.00110933 0.000118734 -0.049598)
(-0.000763096 8.08379e-05 -0.0568546)
(0.00111477 0.00052885 -0.0537799)
(0.00107806 -2.60466e-05 -0.0544095)
(0.000636201 -4.65255e-05 -0.0508812)
(-0.00062106 0.000131686 -0.0551119)
(0.00109374 -2.23402e-05 -0.0524386)
(0.000790556 0.00110852 -0.0528831)
(0.00095353 -9.09218e-05 -0.0515742)
(-0.000682117 0.000122329 -0.0570587)
(0.00106645 -4.05605e-05 -0.0534441)
(0.000807682 -0.000195746 -0.0528872)
(0.000874431 -0.000197096 -0.0551212)
(-0.000839783 0.000543907 -0.0586631)
(0.00294293 -0.000286903 -0.0507843)
(-0.000599251 7.44213e-05 -0.0552655)
(0.00114446 0.000570923 -0.0537946)
(0.000937273 -0.000168177 -0.0538044)
(0.00288771 -0.000180057 -0.0502122)
(0.000668455 -0.000201196 -0.05156)
(-0.000721996 6.7367e-05 -0.0572375)
(0.00111186 0.000589421 -0.0541254)
(0.00109058 0.000503871 -0.0536857)
(0.0011305 0.000577573 -0.0539652)
(0.000804168 -8.19798e-05 -0.0542137)
(-0.000707213 7.99204e-05 -0.0567833)
(0.000725262 -5.32386e-05 -0.0523052)
(-0.000798537 3.94224e-05 -0.0576077)
(0.000821273 -9.86128e-05 -0.0540746)
(0.000717585 -0.000155362 -0.048314)
(0.00299016 -6.02018e-05 -0.0512342)
(-0.000577078 0.000111011 -0.0532038)
(-0.000637141 0.000104381 -0.0562409)
(0.000877891 -0.000236909 -0.0524184)
(0.000835042 -0.000147914 -0.0516135)
(0.00298058 -5.15655e-05 -0.0510907)
(-0.000653753 5.0172e-05 -0.0567982)
(0.000634322 0.000957312 -0.0559741)
(0.000807295 -3.97925e-05 -0.054447)
(-0.000665426 0.000133296 -0.0570317)
(-0.000655926 3.81316e-05 -0.0568682)
(0.000714191 -5.95447e-05 -0.0524645)
(0.000729824 -6.39791e-05 -0.0542124)
(0.00126253 0.00044664 -0.0536789)
(0.0030163 -5.94115e-05 -0.051539)
(-0.000636173 0.00010284 -0.0563366)
(-0.000631728 0.000120329 -0.056426)
(-0.000629194 0.000130558 -0.0564914)
(0.000838321 -8.78717e-05 -0.0545937)
(0.00071967 -0.00019315 -0.0487278)
(0.00301878 -6.44283e-05 -0.0515857)
(0.000763515 -0.000184824 -0.0509988)
(0.000714033 -8.88039e-05 -0.0514635)
(0.00103755 -0.000483991 -0.0513177)
(0.00103222 -3.65454e-05 -0.0501069)
(0.000713825 -6.53253e-05 -0.0523656)
(0.00125852 0.000440784 -0.0534704)
(0.00129377 0.000445459 -0.0548115)
(0.000986745 -6.26044e-05 -0.050784)
(0.000771665 -0.00016474 -0.052535)
(0.000849759 -0.000135251 -0.0506757)
(-0.000626053 0.000143154 -0.0560392)
(0.00115917 0.000345398 -0.0531177)
(0.000719487 0.00107715 -0.0532418)
(-0.000841538 -1.08206e-05 -0.0577387)
(0.000933335 -8.73422e-05 -0.0537819)
(-0.000623851 0.00014873 -0.0541338)
(-0.00062032 0.000154965 -0.0567271)
(-0.000737621 -1.16294e-06 -0.0569968)
(0.000711925 -5.68415e-05 -0.0523703)
(0.000917336 -0.000160724 -0.0548162)
(-0.000632893 0.000100315 -0.0552433)
(-0.000637285 9.13894e-05 -0.0559795)
(0.00226472 0.0002227 -0.0501835)
(-0.000631604 0.000115637 -0.0561258)
(-0.000650049 0.000133458 -0.0564346)
(0.00103802 -2.80128e-05 -0.0543425)
(0.000711726 0.00104466 -0.0535684)
(-0.000873653 -0.000127986 -0.0564472)
(-0.000792351 0.000226874 -0.0570706)
(0.000608081 -3.16461e-05 -0.0510807)
(-0.000641999 0.000339955 -0.0564574)
(0.000750181 -7.53019e-05 -0.0529929)
(0.00124653 0.000441455 -0.0541314)
(0.0011779 0.000635223 -0.0534643)
(0.00127586 0.000383774 -0.0550834)
(0.000691235 -8.38348e-05 -0.0508861)
(-0.000632813 0.000130532 -0.0563551)
(0.00120134 0.000336904 -0.0530519)
(0.000818074 -7.18824e-05 -0.0521779)
(0.000809943 -0.000124436 -0.0514659)
(0.00225647 0.000216832 -0.0499884)
(0.000876614 -0.000329362 -0.0521931)
(0.00104235 -2.81496e-05 -0.0532845)
(0.000756915 -0.00018468 -0.0544682)
(0.000829563 0.00111753 -0.0528951)
(0.000664225 -0.000163462 -0.0520772)
(-0.00063854 0.000140435 -0.05631)
(-0.000646876 0.00013364 -0.056652)
(0.00117445 0.000350223 -0.0531521)
(0.001229 0.000315327 -0.0513712)
(0.000760267 -0.000185578 -0.0506195)
(-0.000587064 -6.18435e-05 -0.055204)
(-0.000637434 0.000156467 -0.0562275)
(0.00115611 0.000314505 -0.0530751)
(-0.000744859 -0.000139445 -0.0584308)
(0.000756912 -7.00201e-05 -0.0545898)
(0.000849876 -6.01905e-05 -0.0536084)
(0.000742779 -5.41672e-05 -0.0542739)
(0.00129847 0.000368154 -0.0546979)
(0.000931529 -0.000163539 -0.0537619)
(0.000708208 -0.000152415 -0.0501999)
(-0.000766074 0.000127203 -0.0549148)
(0.000840888 -0.000146943 -0.0516165)
(0.00123322 0.000441082 -0.05457)
(0.000777312 0.00105162 -0.0541079)
(0.00136192 0.000422913 -0.0542217)
(0.00074345 -0.000175645 -0.0505249)
(0.00113331 0.0010247 -0.0512577)
(0.00117502 0.000330293 -0.052233)
(0.000817467 -0.000231531 -0.0513778)
(0.00119252 0.000328125 -0.0529503)
(-0.000717671 -3.38355e-05 -0.0576894)
(0.0010055 -3.3802e-05 -0.0550137)
(0.000969708 0.0009765 -0.0532333)
(0.00100784 0.000110738 -0.0515905)
(-0.000609459 0.000173038 -0.0557308)
(0.00206644 -5.35724e-05 -0.0543074)
(0.00117349 0.000183386 -0.0528239)
(0.000851881 -0.000156427 -0.0532655)
(0.000855092 -6.53821e-05 -0.0535501)
(0.00108244 -3.71495e-05 -0.0553131)
(0.00110807 -0.000370899 -0.0550713)
(0.000764177 -0.000188802 -0.0536791)
(0.000550158 -3.38159e-05 -0.0517163)
(0.000660486 -0.000200482 -0.0519443)
(0.000845711 -0.000224724 -0.0505439)
(0.000985051 7.47979e-05 -0.0515349)
(0.000751767 -0.000153143 -0.0524625)
(0.0011813 0.000175752 -0.053105)
(0.000809824 -0.00018403 -0.0502842)
(0.00119148 0.000338462 -0.0517753)
(0.000723471 -6.18071e-05 -0.0532316)
(-0.000713697 -0.0004695 -0.0568067)
(0.00330226 -7.80527e-05 -0.0548864)
(0.000699521 -0.000183421 -0.051001)
(0.000876538 -0.000109044 -0.0519093)
(-0.000609194 0.000155776 -0.0570721)
(0.00105222 -0.000394528 -0.0507328)
(0.00066203 0.00104116 -0.0538969)
(0.000816796 -5.62681e-05 -0.0546156)
(0.00102832 0.000133756 -0.0497904)
(0.000683413 0.000932018 -0.0556511)
(0.000922543 -0.000107748 -0.0567725)
(0.000678045 -8.90851e-05 -0.0516001)
(0.00090159 -0.000593507 -0.050506)
(0.000767969 -0.000112981 -0.0509643)
(0.0011994 0.000351603 -0.0516547)
(0.000803044 -0.000252352 -0.0527795)
(0.000781534 -0.000655542 -0.0523835)
(0.000704367 -5.67721e-05 -0.0541632)
(0.000947558 -0.000135408 -0.049115)
(0.000678429 -5.87843e-05 -0.0526689)
(-0.000836764 1.54885e-05 -0.0560426)
(0.000683889 0.00104075 -0.0531925)
(0.00118258 6.98531e-05 -0.0550424)
(-0.000593126 0.00014015 -0.056301)
(-0.000627221 0.000131745 -0.0575852)
(0.00118885 0.000320706 -0.0530038)
(0.000771419 -0.00063891 -0.0532225)
(-0.000772011 -2.8718e-05 -0.0581826)
(0.00081785 -7.68192e-05 -0.0536847)
(0.000771662 -9.9485e-05 -0.0545668)
(0.00111182 0.00095977 -0.0556687)
(0.000919544 -9.57907e-05 -0.0515545)
(-0.000603532 0.000184082 -0.0558803)
(0.00111798 0.000310671 -0.0531112)
(0.00121059 0.000375864 -0.0544831)
(0.00105511 -2.31749e-06 -0.0551498)
(0.000822408 -0.000200087 -0.0526207)
(0.000700189 -6.34903e-05 -0.0546512)
(0.000990646 -0.00013137 -0.0544166)
(0.000853313 -7.25488e-05 -0.0533891)
(0.000550275 -2.26058e-05 -0.0504804)
(0.000692014 -0.000223359 -0.0505559)
(0.000934259 -0.000111913 -0.0516266)
(0.000774126 -0.000194434 -0.0505777)
(-0.000601214 0.000203667 -0.0563399)
(0.000843662 -0.000306267 -0.0509156)
(0.0011198 0.000298457 -0.0524542)
(0.000775103 -0.000209034 -0.0541356)
(0.000772764 -9.96974e-05 -0.054008)
(0.000803446 -0.000113884 -0.053589)
(-0.000682575 0.000458853 -0.0574844)
(0.000660442 -0.000152031 -0.0513591)
(-0.000732348 -0.000544177 -0.0540248)
(0.0011043 0.000107077 -0.0534182)
(0.000917527 -0.000339472 -0.0522809)
(0.000995266 0.000732201 -0.0547465)
(0.00096975 0.000808674 -0.0520626)
(0.000743282 -0.000332473 -0.0533726)
(0.00101456 -5.27543e-05 -0.052631)
(0.00196178 -5.10811e-05 -0.0544014)
(0.00111443 0.000297831 -0.0530757)
(0.000863329 -0.00012766 -0.0530102)
(-0.000731914 -0.000133251 -0.0578269)
(0.00123426 0.00026714 -0.0531632)
(0.00125018 0.000554213 -0.0549182)
(0.00128405 0.000183421 -0.0564042)
(0.000655435 -0.00017437 -0.052183)
(0.000850035 -0.000335746 -0.0505155)
(0.00087452 -0.000634443 -0.0509131)
(0.00116096 0.00107472 -0.0519166)
(0.00108777 0.000267722 -0.0527999)
(0.00110069 0.000277524 -0.0528234)
(0.000796829 -5.87872e-05 -0.0533417)
(0.000936775 -0.000153975 -0.0534984)
(0.00119792 0.000199998 -0.0533913)
(0.000898169 -8.95524e-05 -0.0525002)
(0.000823519 -7.01733e-05 -0.0539854)
(0.000946653 -9.58262e-05 -0.0525298)
(0.000712226 -0.000145733 -0.0489385)
(0.000571022 -4.11427e-05 -0.0502228)
(0.000546475 -2.76959e-05 -0.0507149)
(0.000662956 -0.000185543 -0.0521417)
(0.00084624 -0.000336143 -0.0504676)
(0.000943015 0.000857574 -0.0515533)
(0.000896516 -0.000268666 -0.0517358)
(0.000963672 -0.000445979 -0.0520162)
(0.000672699 -5.61122e-05 -0.0530844)
(0.000958612 0.000730469 -0.0541687)
(0.00055253 -2.53013e-05 -0.049993)
(0.000628672 -0.000167882 -0.052466)
(-0.000586398 0.000179922 -0.0539785)
(0.000689947 -0.000104554 -0.0525712)
(0.00106823 0.000256512 -0.0539486)
(-5.3302e-05 0.000892252 -0.0538747)
(0.000644506 -5.2142e-05 -0.0547603)
(0.000903522 0.000657259 -0.0548433)
(0.000995848 -0.000111417 -0.0552709)
(0.000709327 -0.000187589 -0.0512684)
(0.000531014 -2.65136e-05 -0.0517699)
(0.000597488 -6.73248e-05 -0.051825)
(0.00109094 0.000267693 -0.0527417)
(0.0018954 7.39422e-05 -0.0546259)
(0.00108146 0.000261624 -0.0529139)
(-0.000744264 0.000313823 -0.0549127)
(0.000818643 -8.50051e-05 -0.0520742)
(0.00116947 0.000296234 -0.0531366)
(0.00116226 0.000160077 -0.0539071)
(0.00194571 -4.89297e-05 -0.0551716)
(0.00100514 -5.77018e-05 -0.0555433)
(0.0012181 0.00019892 -0.0549968)
(0.000577438 -5.3529e-05 -0.0522659)
(-0.000542975 0.000220318 -0.056132)
(0.000920987 0.00083937 -0.0515426)
(0.0010595 -6.52353e-06 -0.0530884)
(0.000717971 -0.000165415 -0.0522928)
(0.00107914 0.000245578 -0.0530163)
(0.000829233 -0.000335723 -0.0535455)
(0.00085396 -0.000185645 -0.0532926)
(0.000722453 -0.000162531 -0.0533315)
(-0.000725455 -0.000109026 -0.0568682)
(0.00085871 -0.000227172 -0.0548783)
(0.0007827 -0.000189316 -0.0561979)
(0.000870368 -0.000137987 -0.0492286)
(-0.000547558 0.000110568 -0.0555543)
(0.000653067 -4.89497e-05 -0.0527898)
(0.00118192 0.000506893 -0.051756)
(0.00135058 0.000291356 -0.0545838)
(-0.000299109 0.000814943 -0.055045)
(0.000787425 -0.000154454 -0.0511704)
(0.000569328 -7.11996e-05 -0.0505613)
(0.00132979 -3.5914e-05 -0.0514539)
(-0.000552617 0.00016698 -0.0556174)
(0.0010351 0.000735344 -0.0502409)
(0.000953684 0.000864119 -0.0514348)
(0.000668533 -0.000127386 -0.0517679)
(0.00118214 0.000292155 -0.0532365)
(0.00115268 0.00028727 -0.0532435)
(0.00117208 0.000292736 -0.053313)
(0.000787197 -0.000641167 -0.0539508)
(0.000879778 -0.000185493 -0.0538202)
(0.000790734 -0.000112843 -0.0538935)
(0.000563048 -5.38518e-05 -0.0506192)
(0.00226573 0.000225397 -0.050189)
(0.000988183 3.894e-05 -0.0511177)
(0.00103876 0.000723696 -0.0503217)
(0.00141499 0.000328377 -0.0543805)
(-0.00019989 -0.000248617 -0.0553306)
(0.00112434 0.000534628 -0.053762)
(0.00071229 -0.000367851 -0.0544871)
(0.000533519 -6.04215e-05 -0.0507528)
(-0.000505948 0.000212527 -0.0561664)
(0.00103164 -0.000139812 -0.0523749)
(0.000689623 -0.000154346 -0.0540054)
(0.000807356 -0.000188793 -0.0521216)
(0.0012121 0.000409133 -0.0533441)
(0.00108266 0.000585335 -0.0548818)
(0.00103196 7.25738e-05 -0.0485631)
(0.000633403 -0.000166987 -0.0518826)
(0.0011447 0.000820798 -0.0511105)
(0.00115694 0.000306253 -0.0531155)
(0.00120567 0.000425735 -0.0532647)
(0.00109328 0.000582658 -0.0550099)
(-0.000668289 0.000484599 -0.0567655)
(0.000879831 -8.73921e-05 -0.0492401)
(0.00120845 0.000266885 -0.0494365)
(0.000809982 -0.000317228 -0.0504389)
(0.00100073 0.000807884 -0.0507206)
(0.000882892 -0.000426738 -0.0519671)
(0.000845711 -0.000187716 -0.0532179)
(0.00116753 0.000282595 -0.0536125)
(0.00119814 0.000206748 -0.0527348)
(0.00119519 0.000331894 -0.0551768)
(0.00120755 0.000329036 -0.0552691)
(0.00230439 0.00034901 -0.0507402)
(0.000654456 -0.000194727 -0.0521593)
(0.00112565 0.000285129 -0.0529504)
(-0.000662819 -0.000501592 -0.0564775)
(0.000972682 -9.02767e-05 -0.0540809)
(0.000665009 -9.56708e-05 -0.0541957)
(0.000723223 -0.00016077 -0.0531951)
(0.000907912 -0.000179281 -0.0528241)
(0.000868128 -0.000308079 -0.0540163)
(0.000768147 -0.000190386 -0.0559236)
(0.000588029 -8.57147e-05 -0.0496807)
(0.00101682 0.000809577 -0.0516471)
(0.00107548 0.00149503 -0.0518662)
(0.000718006 -0.000170462 -0.0512288)
(0.000770708 -0.000276799 -0.0512793)
(0.000943397 0.000248606 -0.0506509)
(-7.65897e-05 0.000880167 -0.0535771)
(0.00122289 0.000378119 -0.0518834)
(0.00109755 0.000263932 -0.0542344)
(-0.000756345 0.000138936 -0.0561153)
(-0.000702039 -0.000512745 -0.0550728)
(0.000716508 -0.000199702 -0.0536268)
(0.00107406 0.00027328 -0.0531434)
(0.00106794 0.000328119 -0.0537607)
(0.00107041 0.00041152 -0.0550409)
(0.00106111 9.00741e-05 -0.0539803)
(0.000887099 -0.000277219 -0.0537802)
(0.00122958 0.000363943 -0.0522426)
(0.00123906 0.000266909 -0.0538393)
(0.00113404 0.000120008 -0.05359)
(0.0011824 0.000332841 -0.0550363)
(0.000649352 -0.000200442 -0.0523492)
(-0.000565279 0.000102974 -0.0553569)
(0.000719463 -0.000154111 -0.0500001)
(0.000626499 -5.67306e-05 -0.0523011)
(0.000624018 -5.24884e-05 -0.052615)
(-0.000747846 -0.000518611 -0.0532374)
(0.000858435 -0.000308557 -0.0533606)
(0.000709899 -0.000185814 -0.0544587)
(0.000688001 -0.000219985 -0.0518047)
(0.00080742 -0.000154495 -0.0513549)
(0.000812781 -0.000213379 -0.0550002)
(0.00119354 0.000396479 -0.0543777)
(0.00087428 -0.000101195 -0.0531918)
(-0.000564391 0.000202677 -0.0540713)
(0.00118149 0.00031378 -0.0511152)
(0.00109919 0.000249363 -0.0534707)
(0.000796624 -0.000195515 -0.0551711)
(0.000839795 -0.000156535 -0.0543902)
(-0.00103891 0.000206022 -0.0518249)
(0.000657187 -9.78118e-05 -0.0492858)
(0.000672306 -0.000173074 -0.0513027)
(-0.000535047 0.000112108 -0.0552951)
(0.000968431 -0.000468461 -0.049182)
(0.000989788 -0.0011872 -0.0526642)
(0.00112774 0.0005946 -0.0503137)
(0.00086377 -0.000224814 -0.0540462)
(0.000730347 -0.000165495 -0.0527085)
(0.000557401 -4.03308e-05 -0.0488914)
(-0.000665732 -2.04092e-05 -0.0553846)
(0.000959969 0.00079882 -0.0511163)
(0.000879369 -0.000248983 -0.0507702)
(0.00080912 -0.000122309 -0.0508521)
(0.000829925 -0.000203779 -0.053605)
(0.000964606 0.000268907 -0.0512045)
(0.000637692 -8.76756e-05 -0.05512)
(0.00120026 0.000424929 -0.0537178)
(0.000669054 -0.000101342 -0.05467)
(0.00068382 -7.4783e-05 -0.0543317)
(0.00057175 -0.00116652 -0.0535298)
(0.000770628 -0.00011954 -0.0538244)
(1.1557e-05 0.00100768 -0.0543347)
(0.00056593 -2.9902e-05 -0.0519997)
(0.000965229 0.000865994 -0.0507976)
(0.00183039 5.04334e-05 -0.053303)
(0.00120969 0.000369112 -0.0510517)
(0.000841172 -0.000182493 -0.0530548)
(0.00109878 0.001477 -0.0534736)
(0.00119116 0.000348017 -0.0555814)
(-0.000672995 0.000201581 -0.0558843)
(0.000932543 0.000889934 -0.0509459)
(0.000926295 -0.000153667 -0.0527024)
(-6.49727e-05 0.000865514 -0.0540748)
(0.000663153 0.00101214 -0.0535607)
(-0.000719358 0.000248002 -0.0561341)
(0.000524507 -5.9044e-05 -0.0508757)
(0.0011392 -0.000963796 -0.0527176)
(0.00123507 -0.000197856 -0.0539763)
(0.000664125 -0.000220009 -0.0516612)
(0.000921903 -7.92021e-05 -0.0508893)
(0.00109779 0.000997271 -0.0512205)
(-0.000692402 -0.000551461 -0.0543739)
(0.00109084 0.000303973 -0.0533033)
(0.00105574 0.000235961 -0.0533028)
(0.000948566 -0.000159037 -0.0504105)
(0.000767812 -0.000434116 -0.0527393)
(0.0010511 0.000750103 -0.0547492)
(0.00115793 -0.00105046 -0.0521767)
(0.000642283 -4.1387e-05 -0.0527646)
(-0.000729316 -0.000483169 -0.0533596)
(0.00114693 -8.28862e-05 -0.0552342)
(0.000492561 -6.67475e-05 -0.0501063)
(-0.00112161 0.000204771 -0.0559926)
(0.000909193 0.000739694 -0.0511752)
(0.0010606 -0.000947126 -0.0543759)
(0.000604877 -7.81399e-05 -0.0557627)
(0.000815793 -0.000207754 -0.0526401)
(0.000768873 -0.00020944 -0.0540018)
(0.000722622 -0.000350313 -0.0549616)
(0.00110786 -0.000535369 -0.053741)
(0.000622003 -5.62469e-05 -0.0522338)
(0.00105036 0.00031951 -0.0536814)
(0.000835145 -0.000194434 -0.052802)
(0.000686191 -5.94095e-05 -0.0529031)
(0.000806019 -7.59431e-05 -0.0534266)
(5.09417e-05 0.000999371 -0.0551203)
(0.000475823 -7.35846e-05 -0.0502557)
(0.00097746 -0.00116341 -0.0522468)
(0.000774599 -0.000190813 -0.0515776)
(0.00114767 0.000977401 -0.0519184)
(0.000695913 -0.000727537 -0.0520539)
(0.000832993 -0.000660354 -0.0521279)
(0.000687781 -0.000204234 -0.0541777)
(0.000505868 -0.00133666 -0.0503155)
(0.00076842 -0.000277568 -0.0523041)
(0.000729785 -6.82227e-05 -0.0533058)
(0.000647186 -2.99547e-05 -0.0544678)
(0.000836341 -0.000212327 -0.0519979)
(0.00090638 -0.000391217 -0.0540185)
(0.000852541 -9.43062e-05 -0.053722)
(0.000911183 -0.00023056 -0.053767)
(0.00052112 -7.96026e-05 -0.0497568)
(0.00101376 0.000104172 -0.0507575)
(0.000998939 9.17655e-05 -0.0495999)
(0.00063753 -6.27713e-05 -0.051215)
(0.000585367 -5.88564e-05 -0.0544043)
(0.00114189 0.000306695 -0.0525138)
(0.00119061 0.000379404 -0.0529147)
(-0.000417965 -0.000856007 -0.0567123)
(0.00084551 -0.000245342 -0.0528618)
(0.00116248 0.000584405 -0.0534324)
(0.00113386 0.000551072 -0.0556154)
(0.000805655 -0.000295134 -0.0498659)
(0.000689201 -0.000147029 -0.0536578)
(-0.000718547 0.000293947 -0.0554245)
(0.000803935 -0.000163056 -0.054146)
(0.000780449 -0.000308488 -0.0541875)
(0.000917375 -0.000442877 -0.0498374)
(-0.000634505 -0.000463336 -0.0567101)
(0.0011958 0.000334283 -0.0511315)
(0.000660381 -7.6286e-05 -0.0543652)
(0.000812452 -0.000111158 -0.0531747)
(-0.000569467 0.00064544 -0.0560417)
(0.00114278 0.000523031 -0.0561902)
(0.000778313 -0.000302031 -0.0497963)
(0.00113015 0.000474221 -0.0533829)
(0.000771094 -0.000165722 -0.0527181)
(0.00115964 8.31394e-05 -0.0556462)
(0.000384507 -0.00152199 -0.0544866)
(0.000892288 -5.47269e-05 -0.0492171)
(0.00268283 0.000358718 -0.0491079)
(0.000898728 0.000728868 -0.0513575)
(0.000687061 -0.000196488 -0.0535416)
(-0.000608812 0.00022295 -0.0562346)
(0.0011541 0.000315446 -0.0522707)
(0.00119577 0.000262782 -0.0519049)
(0.000730787 -6.72114e-05 -0.0542352)
(0.000974232 -0.000447317 -0.0491631)
(0.000927201 0.000916517 -0.0504982)
(0.000535552 -2.72516e-06 -0.0508438)
(-0.000593714 7.47534e-05 -0.057694)
(0.00100117 -2.348e-05 -0.0534827)
(-0.000234541 -0.00100244 -0.0567055)
(0.00107827 0.00162213 -0.0538243)
(0.000653074 -6.7417e-05 -0.0544527)
(0.00093724 -9.16355e-05 -0.0556776)
(0.000549838 -7.86602e-05 -0.0491522)
(0.000464437 -7.17399e-05 -0.050748)
(0.000988665 3.75108e-05 -0.0505999)
(-0.00155861 0.000579587 -0.0552076)
(0.000905418 0.000852157 -0.0521303)
(-0.000642717 -0.000116557 -0.0574759)
(0.000819655 -0.000195207 -0.0530962)
(0.000673561 -0.000183381 -0.0541136)
(0.000808212 -0.000101121 -0.0528637)
(-0.000591198 0.000608954 -0.0561666)
(0.00091023 -0.000135771 -0.0551935)
(0.000789646 -0.000101563 -0.05142)
(-0.000510783 0.000107613 -0.0553093)
(0.000960385 -0.00105582 -0.0548578)
(0.000957198 -0.000444247 -0.0519346)
(0.000685435 -0.000275175 -0.0515357)
(0.000865612 -0.00060198 -0.0515881)
(0.000752826 -0.00034602 -0.052836)
(0.00105088 0.00169077 -0.0527353)
(0.000927411 -0.000439625 -0.0522544)
(0.000723668 -7.443e-05 -0.052898)
(0.00114588 -0.000504769 -0.0534831)
(0.000642315 -0.000143518 -0.051073)
(0.000859103 -0.000192776 -0.0514859)
(0.000879905 -0.000175305 -0.0519603)
(0.000729784 0.00100167 -0.0536862)
(0.000800388 -0.000101261 -0.0549602)
(0.000811886 -9.73053e-05 -0.0513089)
(0.00097711 5.82185e-05 -0.0508524)
(0.000857335 -0.000102983 -0.0512864)
(0.000889589 0.000749301 -0.0507506)
(0.0010381 -0.00110613 -0.0526397)
(0.00106447 0.000437816 -0.0516675)
(0.000971039 -5.61461e-05 -0.0520287)
(0.000645926 -5.98225e-05 -0.0522968)
(0.00112551 -0.000997029 -0.0535949)
(0.0010671 0.000880393 -0.0520384)
(0.00176853 4.81128e-05 -0.0522893)
(-0.000545152 6.00951e-05 -0.0591268)
(0.000808039 -8.58673e-05 -0.0556386)
(0.00258546 0.000331896 -0.0487337)
(0.000906094 7.4758e-06 -0.0496697)
(0.00274306 0.000383032 -0.0507763)