/*--------------------------------*- C++ -*----------------------------------*\
| =========                 |                                                 |
| \\      /  F ield         | OpenFOAM: The Open Source CFD Toolbox           |
|  \\    /   O peration     | Version:  plus.master.MPPICInterFoam            |
|   \\  /    A nd           | Web:      www.OpenFOAM.com                      |
|    \\/     M anipulation  |                                                 |
\*---------------------------------------------------------------------------*/
FoamFile
{
    version     2.0;
    format      ascii;
    class       volScalarField;
    location    "1.8";
    object      k;
}
// * * * * * * * * * * * * * * * * * * * * * * * * * * * * * * * * * * * * * //

dimensions      [0 2 -2 0 0 0 0];

internalField   nonuniform List<scalar> 
11821
(
0.00110468
0.00146494
0.00244719
0.00309726
0.00185902
0.00125769
0.00102447
0.0015459
0.00336334
0.00843254
0.0151153
0.00627131
0.00283017
0.00138346
0.00260157
0.00826684
0.0141521
0.0190824
0.0111878
0.0060208
0.00188855
0.0031945
0.0114423
0.0154977
0.0176267
0.0165057
0.00637171
0.0019281
0.00195577
0.0052836
0.00953679
0.0186134
0.00689092
0.00426944
0.00158334
0.00139145
0.00283775
0.00507038
0.00613284
0.00426253
0.00234373
0.00120572
0.00105979
0.00137584
0.00192256
0.0020251
0.00157813
0.00117537
0.00101033
0.00411187
0.00715264
0.0105285
0.0115647
0.00755588
0.0041701
0.00222601
0.00753557
0.0145656
0.0273775
0.0382406
0.0189778
0.00835477
0.00375938
0.0116564
0.0263844
0.0366102
0.0357366
0.0341211
0.0145309
0.00527072
0.01237
0.031007
0.0318504
0.0342401
0.0345253
0.0135413
0.00502721
0.00816017
0.0165244
0.029999
0.0340564
0.0168927
0.00800459
0.00372975
0.00464738
0.00813666
0.0129266
0.0126547
0.008082
0.00450502
0.00262838
0.00265731
0.00417203
0.00564489
0.00539982
0.00407293
0.00272245
0.00180934
0.00829753
0.0137224
0.0188452
0.0194966
0.0129993
0.00687507
0.00334744
0.0145002
0.0263147
0.0427659
0.0510316
0.0288742
0.0134519
0.00568903
0.0211599
0.0418486
0.0512586
0.0500591
0.0507177
0.0216264
0.00826628
0.0216319
0.045406
0.0465923
0.050674
0.0498492
0.0210809
0.00817743
0.0146457
0.027542
0.0463015
0.0478006
0.0276799
0.0133283
0.00577846
0.00828729
0.0141608
0.0206223
0.0201316
0.0132531
0.00700655
0.00357044
0.00440114
0.00681479
0.00894404
0.00850672
0.00611315
0.0037499
0.00229251
0.0126553
0.0194432
0.0252198
0.0251461
0.0175349
0.00983853
0.00477663
0.0207269
0.0342282
0.051245
0.0546922
0.0341602
0.0176594
0.00800315
0.028389
0.0501249
0.0568818
0.0566549
0.0559661
0.0259732
0.0110412
0.0284522
0.0512686
0.054716
0.0576665
0.0547514
0.0256221
0.0109387
0.0202624
0.0344944
0.0530513
0.0527606
0.0329978
0.0172288
0.00794404
0.0121069
0.01914
0.025744
0.0248774
0.0171485
0.00963502
0.00497233
0.00653064
0.00959853
0.011921
0.0112839
0.00827432
0.00516698
0.0030552
0.0156839
0.0231456
0.0289484
0.0277697
0.0200666
0.0118134
0.0059382
0.0245984
0.0385597
0.05451
0.0536571
0.035707
0.0199073
0.00960568
0.0323717
0.0536942
0.0596159
0.0585023
0.0544642
0.0276629
0.012735
0.0322375
0.0538398
0.0574935
0.0596809
0.0532798
0.0272108
0.0126335
0.0240065
0.0382182
0.0551386
0.0524426
0.0345419
0.0192852
0.00954407
0.0150368
0.0224315
0.0286274
0.0271474
0.0193505
0.0115001
0.00622247
0.00836771
0.0118025
0.014112
0.0132579
0.00995632
0.00643039
0.00381714
0.000913875
0.000832893
0.000745653
0.000662608
0.000583645
0.000513107
0.000451862
0.000401028
0.0011508
0.000969662
0.000848634
0.000765409
0.000698267
0.000634825
0.000571452
0.000509476
0.00119861
0.000963018
0.000845201
0.00077358
0.000724888
0.000687612
0.000645433
0.000594407
0.00118339
0.000968441
0.000868804
0.000803311
0.000765723
0.000740725
0.000706823
0.000668024
0.00114404
0.000964724
0.000852419
0.000775274
0.000726508
0.00068828
0.000646095
0.000597799
0.00107746
0.000978214
0.000861529
0.00076853
0.000693579
0.000624471
0.000559047
0.000497656
0.000935175
0.000859833
0.000757414
0.000662251
0.000575086
0.000499665
0.000437637
0.000389823
0.00149684
0.00121533
0.00106125
0.000961262
0.000886931
0.00082346
0.00076401
0.000706903
0.00193021
0.00135342
0.00111063
0.000981785
0.000900433
0.000837867
0.000780394
0.000722168
0.00228031
0.00144951
0.00113565
0.000983499
0.000898461
0.000841489
0.00079364
0.000743953
0.00226152
0.001476
0.00116471
0.00100524
0.000912099
0.000848071
0.000798172
0.000744524
0.00198629
0.00140187
0.00113702
0.000995089
0.000911851
0.000852859
0.000803198
0.000749238
0.00168046
0.00130141
0.00110752
0.000991454
0.000912592
0.000848953
0.00078892
0.000727476
0.00137878
0.00117594
0.00104706
0.000954035
0.00087936
0.000814555
0.000754637
0.000698361
0.00184706
0.00130417
0.00104488
0.000922371
0.000865149
0.000834193
0.000809748
0.000781009
0.0025897
0.00153275
0.00110447
0.000920495
0.000842144
0.000807889
0.000787168
0.000763413
0.00338068
0.00178021
0.0011822
0.000931729
0.00082581
0.000783219
0.000763933
0.000745247
0.00340698
0.00182344
0.00121782
0.000947943
0.000825775
0.000774711
0.000753025
0.000735249
0.00273085
0.00164034
0.00117018
0.000945093
0.000841023
0.000795762
0.000772951
0.000750901
0.00202498
0.00140247
0.0010938
0.000937336
0.000862262
0.000825323
0.000800575
0.000772628
0.00155741
0.00122719
0.00104038
0.000938784
0.000884296
0.000850757
0.000822218
0.000789392
0.00229883
0.00135878
0.000941688
0.000775303
0.000712869
0.000693294
0.00069595
0.000709186
0.0035229
0.0017892
0.00108361
0.000808145
0.000705873
0.000674609
0.000678153
0.000699271
0.00467056
0.00224026
0.0012572
0.000864206
0.000707714
0.000655409
0.000655438
0.000683102
0.00470443
0.00232527
0.0013244
0.000897421
0.000715461
0.00065059
0.000646361
0.000675181
0.00371242
0.00200519
0.00123038
0.000873495
0.000722097
0.000669889
0.000667306
0.000691214
0.00262162
0.00158823
0.00107501
0.000831984
0.000729624
0.000694034
0.000692783
0.000709363
0.00183125
0.00126938
0.000960925
0.000808951
0.0007409
0.000714742
0.000712182
0.000721339
0.0027572
0.00145279
0.000878042
0.000654841
0.000551913
0.000488223
0.000450351
0.000457183
0.00435184
0.00214249
0.00114067
0.000737931
0.000570089
0.000484928
0.000439919
0.000446628
0.00571283
0.00280137
0.00146182
0.000865339
0.000605682
0.00048701
0.000431604
0.000437546
0.00580299
0.0029239
0.00156454
0.00091721
0.000623239
0.00049002
0.000429604
0.00043491
0.00465241
0.00247672
0.00136534
0.000836846
0.000603352
0.000492954
0.000437268
0.000439665
0.00325138
0.00182003
0.0010761
0.000733705
0.000577898
0.000493196
0.000444603
0.000446733
0.00212097
0.00130685
0.000875826
0.00067082
0.000564298
0.000495628
0.000453003
0.000456046
0.00096009
0.000864846
0.000771473
0.000688335
0.000604882
0.000530427
0.000465277
0.000411903
0.00117677
0.00109306
0.000999018
0.000908206
0.000824437
0.00075358
0.000691709
0.000635982
0.00140936
0.00127474
0.001158
0.00105
0.000953602
0.00087169
0.000811861
0.000761722
0.00176864
0.00139899
0.00123675
0.00111722
0.00101207
0.000933616
0.000878602
0.00083642
0.00163323
0.0013596
0.00119807
0.00106693
0.000956028
0.000871876
0.000813846
0.000765909
0.00124446
0.0011351
0.0010193
0.000916088
0.000821613
0.000750168
0.000693291
0.000635535
0.000980557
0.000888568
0.000806978
0.000715534
0.000631368
0.00055925
0.000493844
0.000436634
0.00183942
0.00142431
0.00118356
0.00103142
0.000929777
0.000853907
0.000789138
0.000729577
0.00270066
0.00184444
0.00140728
0.00115348
0.0009995
0.000899915
0.00082619
0.000764017
0.00415461
0.00250176
0.00175349
0.00134132
0.00109451
0.000949983
0.000864246
0.000806632
0.00564866
0.00314489
0.00205787
0.00150893
0.00119294
0.00101432
0.000918776
0.000865278
0.00550731
0.00303012
0.00192596
0.00137704
0.00108685
0.000937819
0.000857988
0.000806762
0.00383898
0.00225012
0.00152689
0.00116847
0.000988288
0.00089112
0.000825465
0.000769305
0.00236221
0.00161333
0.00123815
0.00104171
0.00093202
0.000858167
0.00079645
0.000738445
0.00264997
0.0017614
0.00128101
0.00102712
0.000905748
0.000849917
0.000818148
0.000788662
0.00448674
0.00259311
0.00163139
0.0011442
0.000918671
0.000828224
0.000792358
0.000769202
0.00744248
0.00401499
0.00224539
0.00137533
0.000967402
0.000808866
0.000759529
0.000743686
0.010397
0.00538434
0.00283487
0.00157885
0.0010071
0.000789816
0.00072473
0.000710233
0.0103278
0.00530769
0.00268801
0.00145329
0.000945732
0.000778519
0.000736638
0.000728706
0.00736368
0.00383344
0.00199272
0.00117648
0.000878104
0.000789058
0.000764915
0.000751658
0.00441235
0.00245416
0.00145015
0.00101284
0.000857364
0.000807807
0.000787601
0.000767732
0.00376866
0.002236
0.00135966
0.000925932
0.000755203
0.000703079
0.000700212
0.000715329
0.00672573
0.00373267
0.00200919
0.001131
0.00077831
0.000674962
0.000666315
0.000691361
0.0109683
0.00596255
0.00307479
0.00152762
0.000861171
0.000654331
0.000625211
0.000657583
0.0149286
0.00799969
0.00402251
0.00186841
0.000947742
0.000648032
0.000591479
0.000626022
0.014975
0.00797669
0.00388016
0.00170983
0.000865703
0.00063144
0.000602923
0.000641334
0.0111775
0.00591939
0.0027524
0.00124369
0.000746958
0.000636375
0.000637115
0.000670892
0.00685236
0.00364988
0.00174667
0.000934837
0.000702423
0.000657647
0.000666718
0.000690718
0.00477687
0.00265391
0.00137947
0.000795045
0.000580699
0.00049369
0.000455483
0.000466512
0.00865342
0.00479174
0.00238292
0.00112007
0.000646068
0.000495036
0.000444641
0.000457297
0.0137174
0.007674
0.00391501
0.00174813
0.000804677
0.000513646
0.000436988
0.000450685
0.0180686
0.0100454
0.00513228
0.00232109
0.000991655
0.000544721
0.000430683
0.000445857
0.018113
0.0100278
0.00499673
0.00212362
0.00087801
0.000513905
0.000428933
0.000447226
0.0138704
0.00757069
0.00354175
0.00139648
0.00066557
0.000481735
0.000434994
0.000454534
0.00867734
0.00461463
0.00201175
0.00087957
0.000565667
0.000476597
0.00044623
0.000463551
0.000995911
0.000923173
0.000819091
0.00072105
0.00063764
0.000565592
0.00050062
0.000442127
0.00117592
0.00108527
0.000980729
0.000892626
0.00081705
0.000754722
0.000695082
0.000634428
0.00139282
0.0011406
0.00107818
0.00102489
0.000962359
0.000895969
0.000830845
0.000772337
0.00144004
0.00110467
0.00102243
0.000995615
0.000975676
0.000939861
0.000893136
0.00084912
0.00119765
0.00104267
0.000988969
0.000951898
0.000913406
0.000870006
0.000823845
0.000776988
0.00106972
0.000967875
0.000889327
0.00082446
0.000771418
0.000724389
0.000678866
0.000633967
0.000926809
0.000855954
0.000775927
0.000698292
0.000626878
0.000561196
0.000501678
0.000448662
0.00236433
0.00163633
0.00126244
0.00105996
0.000944229
0.000866719
0.000803259
0.000744359
0.00369087
0.00229757
0.00163993
0.00127365
0.00106369
0.000939837
0.000857695
0.000792938
0.00457754
0.00281357
0.00205536
0.00161073
0.00129545
0.00108522
0.000953923
0.000870311
0.00432086
0.00258031
0.00202467
0.00171797
0.00145946
0.00124171
0.00108137
0.000980092
0.0034484
0.00221871
0.00173324
0.00144543
0.00123192
0.0010742
0.000961109
0.000879353
0.00233031
0.0016735
0.00136076
0.00117033
0.00104021
0.000945046
0.000868568
0.000801253
0.00159896
0.00129808
0.00112785
0.00101749
0.000937696
0.00087181
0.000810698
0.000751222
0.00432645
0.0024433
0.00146524
0.00102865
0.000866838
0.000812363
0.000789503
0.000768499
0.00673605
0.0036361
0.00204396
0.00126164
0.000928727
0.000810996
0.00077282
0.000753866
0.00839386
0.00436943
0.00253298
0.00157561
0.00106901
0.000847231
0.000771789
0.000748719
0.00797471
0.00406865
0.00249806
0.00167234
0.00117649
0.000910143
0.000794696
0.000752727
0.00581401
0.00315928
0.00199024
0.00137018
0.00102839
0.000862997
0.000794192
0.000764915
0.00347058
0.00208045
0.00142545
0.00108684
0.000919533
0.000841797
0.000803303
0.000775804
0.00201086
0.00140589
0.00110356
0.000953161
0.00088126
0.000844015
0.000817508
0.000788859
0.00664703
0.0035288
0.00170425
0.000928986
0.000703852
0.000658681
0.000666466
0.000689426
0.00999688
0.00521539
0.0024902
0.00119141
0.000745465
0.000637244
0.000633826
0.000664092
0.0122402
0.0062363
0.00309326
0.00150483
0.000842971
0.000636727
0.000605332
0.00063821
0.0116151
0.00578656
0.00295904
0.00154196
0.000897414
0.000656119
0.000602303
0.000629931
0.00835515
0.00419987
0.00216886
0.00120168
0.000791744
0.000649952
0.000624464
0.000650235
0.00483439
0.00249707
0.00138363
0.000900937
0.000720662
0.000663718
0.000659424
0.000679897
0.00248524
0.0014459
0.000973416
0.000782839
0.000712217
0.000689966
0.000692127
0.000705742
0.0083924
0.0044172
0.00192362
0.000862544
0.000565807
0.000478227
0.00044721
0.000463561
0.012354
0.00643167
0.00288122
0.00117533
0.000627343
0.000478641
0.000435595
0.000454008
0.0148827
0.00764342
0.00359266
0.00154189
0.000739399
0.000494772
0.000427972
0.000445906
0.0139478
0.00703046
0.00338468
0.00156275
0.000785075
0.000512211
0.000431941
0.000449998
0.0101232
0.00506213
0.00241572
0.00115704
0.000668513
0.000495988
0.00043536
0.000447421
0.00591999
0.00290183
0.00139427
0.000791061
0.000577173
0.000485507
0.000442528
0.000452397
0.00294275
0.00151527
0.000889893
0.000655288
0.000551381
0.000488182
0.000451245
0.000458842
0.000900105
0.000818414
0.00073597
0.000659877
0.000588038
0.000521313
0.000462405
0.000412794
0.0010244
0.00094597
0.000855421
0.00077592
0.000712792
0.000655861
0.000603166
0.000557116
0.00120755
0.00110193
0.00101463
0.000937441
0.000872953
0.000808193
0.000755172
0.00071182
0.00138336
0.00122639
0.00114363
0.00107575
0.00100888
0.00094313
0.000892299
0.000851027
0.00137772
0.00122468
0.00113741
0.00106024
0.000973986
0.000887874
0.000823578
0.000776734
0.00117827
0.00107704
0.000967828
0.000869706
0.000788603
0.000719044
0.0006576
0.000603941
0.000942807
0.000858108
0.000762461
0.000676082
0.000599694
0.0005316
0.000471145
0.000418793
0.00143101
0.0012245
0.00109009
0.000993223
0.000917065
0.000851184
0.000789495
0.000730114
0.00184454
0.00146601
0.00125138
0.00110683
0.000999185
0.000911848
0.000836383
0.000768338
0.00242545
0.00181677
0.00150248
0.00129157
0.00113162
0.00100703
0.000912039
0.000836787
0.00295785
0.00213843
0.00174449
0.0014819
0.00127986
0.00112447
0.00101036
0.000931813
0.00305963
0.00216832
0.00172318
0.00142695
0.00121081
0.00105208
0.000937623
0.000854326
0.00249667
0.00181515
0.00144675
0.00121286
0.00105357
0.000939622
0.000852278
0.000778785
0.00182302
0.00143017
0.00119615
0.00104455
0.00094067
0.000862412
0.000795725
0.000734165
0.00163304
0.00128566
0.00107972
0.000962059
0.000897342
0.000858558
0.000828027
0.000795054
0.00229223
0.00163688
0.00126863
0.00104829
0.000923307
0.000855402
0.000815006
0.000782072
0.00326946
0.00214066
0.00156146
0.00120576
0.000987224
0.000867675
0.000807457
0.000772375
0.00419012
0.00259467
0.00182391
0.00135932
0.00106098
0.000890164
0.000805602
0.000763285
0.00436836
0.00264646
0.00181047
0.00132526
0.00103295
0.000877009
0.000804248
0.000767343
0.00357885
0.0022335
0.0015507
0.00116851
0.00096074
0.000858379
0.000808309
0.000775327
0.00254061
0.00173338
0.00128574
0.00104103
0.000918003
0.000857886
0.000822568
0.000790804
0.00191172
0.0013295
0.00099497
0.000823763
0.000745936
0.00071563
0.000711811
0.000720946
0.00292931
0.0018638
0.00126198
0.000927203
0.000765909
0.000701846
0.000689321
0.000703055
0.00428943
0.00258438
0.00166517
0.00112418
0.000828379
0.000699311
0.000665964
0.0006814
0.00553395
0.00319038
0.00199863
0.00130582
0.000899953
0.000707564
0.000652021
0.000666517
0.00583468
0.00330853
0.00200966
0.00127574
0.000875029
0.00070193
0.000658437
0.000675733
0.00491571
0.00283302
0.00170536
0.00109599
0.000807935
0.000701171
0.000681433
0.000698506
0.00352848
0.00214718
0.00134704
0.000938101
0.000767457
0.000710993
0.000704837
0.00071784
0.00218449
0.00134767
0.000893919
0.000676518
0.00056557
0.000496047
0.000453991
0.000457782
0.00356321
0.00209241
0.0012435
0.00080432
0.000600182
0.000499708
0.000448606
0.000452246
0.00525652
0.00305506
0.00179425
0.00106125
0.000684823
0.000516677
0.000447112
0.000450022
0.00672065
0.00380791
0.00223439
0.00128958
0.000768863
0.000535086
0.000448765
0.000454083
0.0071225
0.00395609
0.00222525
0.00123069
0.00072846
0.00052018
0.000444881
0.000450969
0.00611196
0.00337995
0.00180911
0.00099107
0.000639854
0.000502214
0.000448776
0.000457856
0.0044295
0.00250169
0.00134059
0.000795965
0.000586097
0.000497342
0.000457403
0.000467068
0.000363027
0.000453042
0.000545354
0.000633621
0.000552341
0.000443905
0.000355624
0.000654315
0.000664475
0.000691163
0.000692362
0.000694047
0.000667434
0.00064735
0.000744253
0.000730025
0.00071642
0.000708474
0.000719675
0.00073568
0.000749159
0.000714445
0.000711352
0.000703358
0.000698229
0.000708165
0.00071787
0.000723302
0.000517777
0.000517006
0.00051662
0.00051681
0.000516244
0.000515925
0.000516877
0.000372188
0.000577285
0.00071807
0.000804637
0.000723869
0.000577421
0.000391505
0.000674682
0.000708942
0.000763954
0.000832183
0.000768885
0.000717584
0.00068347
0.000752935
0.000741296
0.00072764
0.00070161
0.000718558
0.000730588
0.000739012
0.000721961
0.000708455
0.000686926
0.000664913
0.000676626
0.000694344
0.000703673
0.000528092
0.000528737
0.000530727
0.00053501
0.000530893
0.000527727
0.000525455
0.000394862
0.000580695
0.000726233
0.000815421
0.000737338
0.000589187
0.000404275
0.000688445
0.000735723
0.000814275
0.000919166
0.000820835
0.00074178
0.000693894
0.000739399
0.000730853
0.000732313
0.000732677
0.000743006
0.000745763
0.000752861
0.000701988
0.000686077
0.000670338
0.000663511
0.000676479
0.000694822
0.000711745
0.000524758
0.000525023
0.00052645
0.000534446
0.000525267
0.000521013
0.000518853
0.000374701
0.000516343
0.000676665
0.000817597
0.000736832
0.0005578
0.000378184
0.000674328
0.000709207
0.000779096
0.000879041
0.000794511
0.000716576
0.00067742
0.000755412
0.000746792
0.00074185
0.000734076
0.000738026
0.000742215
0.000753865
0.000723121
0.000712245
0.000698426
0.000687483
0.000695934
0.000711145
0.000723244
0.000518411
0.000521164
0.00052614
0.000534528
0.000528892
0.000527954
0.000528202
0.000328051
0.000304331
0.000292645
0.000286726
0.000283317
0.000281014
0.00027865
0.000275054
0.000369957
0.000313372
0.000294079
0.000286405
0.000281796
0.000279033
0.000276684
0.000273439
0.000464554
0.000388466
0.000336104
0.000306854
0.000290978
0.000282374
0.00027796
0.00027413
0.00057365
0.000502749
0.000441625
0.000398144
0.000352445
0.000311038
0.000287344
0.000277054
0.000474893
0.000403268
0.000349894
0.000313426
0.000292755
0.000282725
0.000277953
0.000274055
0.000368425
0.000314406
0.00029601
0.000287731
0.000282414
0.000279324
0.000276824
0.000273503
0.000324725
0.00030342
0.000292505
0.000286722
0.000283212
0.000280635
0.000278097
0.000274478
0.000587914
0.000528523
0.000496362
0.000479584
0.000470203
0.000463143
0.000455024
0.00044308
0.000588194
0.000517772
0.000484178
0.000469977
0.000463283
0.00045842
0.000452184
0.000441727
0.000615706
0.000530451
0.000481752
0.000464403
0.000458727
0.000455057
0.000449961
0.000440483
0.000616798
0.000536794
0.000486404
0.000463335
0.000452364
0.000445926
0.000441303
0.000434041
0.000616463
0.000530234
0.000480787
0.000463289
0.000457737
0.000454243
0.000449381
0.000440119
0.000589864
0.000519542
0.000486076
0.000471394
0.000464133
0.000458873
0.000452393
0.000441793
0.000583533
0.000527207
0.000496552
0.000480193
0.000470725
0.00046354
0.000455347
0.00044337
0.000681521
0.000605268
0.000561802
0.000540177
0.000528385
0.000519391
0.000508927
0.000493513
0.00067304
0.000599341
0.000557316
0.000536945
0.000526199
0.000518056
0.000508286
0.000493414
0.000666156
0.000597035
0.000556132
0.000535643
0.00052486
0.000517012
0.000507705
0.000493239
0.000661212
0.000594753
0.000554469
0.00053401
0.000522684
0.000514427
0.000505418
0.000491714
0.000667067
0.000597149
0.00055624
0.000535522
0.000524642
0.000516792
0.000507542
0.000493178
0.000674617
0.000599398
0.000557376
0.000537103
0.000526365
0.000518189
0.000508387
0.000493495
0.00068243
0.000604759
0.000561451
0.000540103
0.000528451
0.000519504
0.000509049
0.000493646
0.000689001
0.000610257
0.000564246
0.000545522
0.00053746
0.000531146
0.00052194
0.000506484
0.000690523
0.000610653
0.000563387
0.000544432
0.000536625
0.000530678
0.000521816
0.000506635
0.000689672
0.000611909
0.000563912
0.000544294
0.000536306
0.000530427
0.000521709
0.000506666
0.000687536
0.00061251
0.000564777
0.000544483
0.000536061
0.000530081
0.000521456
0.000506583
0.000691203
0.000611987
0.000563693
0.000544098
0.000536194
0.000530378
0.000521702
0.00050669
0.000692786
0.000610512
0.000562919
0.000544131
0.000536488
0.000530625
0.000521793
0.000506621
0.000693077
0.000610503
0.000563603
0.000544997
0.000537173
0.000531019
0.000521909
0.000506519
0.000531046
0.000533213
0.000519455
0.000520941
0.000525523
0.000526484
0.000521222
0.000507734
0.000533605
0.000534784
0.000519666
0.000520776
0.000525364
0.000526417
0.000521264
0.000507878
0.000536219
0.000536665
0.000520292
0.000520906
0.000525361
0.000526416
0.000521311
0.000507982
0.000537551
0.000537529
0.000520766
0.000521139
0.000525451
0.000526435
0.000521308
0.000507992
0.000535336
0.000534997
0.000519341
0.000520483
0.000525172
0.000526325
0.000521261
0.000507954
0.000532901
0.000532489
0.000518126
0.000520012
0.000525006
0.000526254
0.000521192
0.000507857
0.00053122
0.000530856
0.000517536
0.000519884
0.000524999
0.000526234
0.000521113
0.00050771
0.00033586
0.00030864
0.000296743
0.000290347
0.000285273
0.000281446
0.000278238
0.000274368
0.000472397
0.000392194
0.000345144
0.000316662
0.000300352
0.000290471
0.000284341
0.000279064
0.000640016
0.000575709
0.000533453
0.000497979
0.000454667
0.000400448
0.000351166
0.000319631
0.000748355
0.000705796
0.0006741
0.000653589
0.000642832
0.000636154
0.000635241
0.000629457
0.000647844
0.000585145
0.00054655
0.000520315
0.000490222
0.000439716
0.000378272
0.000330275
0.000478132
0.000403538
0.000358259
0.000326138
0.000306945
0.00029379
0.00028581
0.000279752
0.000346424
0.000313114
0.000298555
0.000292078
0.000286757
0.000282362
0.000278862
0.000274854
0.000606737
0.000541581
0.000504863
0.000484584
0.000472352
0.000463269
0.000453777
0.000440981
0.000637686
0.000561907
0.000516952
0.000493057
0.000478797
0.000466589
0.000454565
0.000440652
0.00070549
0.000637991
0.000585014
0.000546488
0.000518436
0.000497929
0.000479351
0.000462272
0.000787817
0.000741174
0.000704124
0.000681652
0.000685953
0.000709723
0.000711641
0.000668398
0.000715957
0.000652947
0.00059876
0.000556954
0.000525568
0.000503668
0.000482969
0.000462815
0.000647878
0.000571964
0.000524195
0.000497826
0.000482715
0.000469618
0.00045645
0.000441722
0.00061341
0.000544594
0.000506794
0.000486071
0.000473546
0.000464164
0.000454416
0.000441401
0.00069396
0.000619105
0.000573519
0.000548846
0.000534152
0.000522729
0.000510431
0.000493804
0.000694185
0.000625692
0.000580251
0.000554151
0.000538046
0.000525332
0.000511905
0.000494491
0.000695536
0.000637336
0.000592762
0.000565051
0.000548111
0.000534749
0.00052042
0.000502708
0.000681263
0.000637953
0.000601531
0.000578994
0.000572021
0.000571036
0.000559538
0.000539227
0.000692559
0.000638345
0.000594333
0.000565794
0.000548542
0.000535139
0.000520728
0.000502814
0.000690018
0.000625208
0.000580912
0.000555092
0.00053897
0.0005261
0.000512448
0.000494835
0.000687145
0.000616432
0.000572433
0.00054844
0.000534061
0.000522739
0.000510448
0.000493815
0.000698026
0.000618959
0.000570433
0.000549387
0.000539684
0.000532251
0.000522266
0.000506306
0.000694813
0.000622367
0.000574823
0.000552613
0.000541665
0.000533345
0.00052276
0.000506437
0.000686522
0.000626646
0.000582464
0.00055893
0.000546298
0.000536992
0.000526033
0.000509762
0.000674522
0.000626178
0.000587236
0.000565174
0.000553488
0.00054438
0.000533189
0.000517407
0.000682151
0.00062641
0.000583475
0.000559816
0.000546834
0.000537323
0.000526244
0.0005099
0.000687598
0.000620726
0.000575217
0.000553282
0.000542146
0.000533638
0.000522937
0.000506553
0.000687467
0.00061561
0.000569972
0.00054961
0.000539931
0.000532411
0.000522349
0.000506332
0.00053935
0.000540264
0.00052374
0.000522987
0.000526436
0.000526819
0.000521174
0.000507413
0.000542816
0.000544164
0.000526105
0.000524125
0.000526955
0.000527039
0.000521217
0.000507354
0.000546942
0.000549364
0.000529933
0.000526605
0.000528719
0.000528445
0.00052244
0.00050849
0.000554374
0.000556757
0.000534631
0.000529379
0.000530872
0.000530436
0.000524281
0.000510493
0.000548148
0.000551709
0.000531383
0.000527284
0.00052903
0.000528607
0.000522537
0.00050856
0.000542144
0.00054594
0.000527606
0.000524968
0.00052737
0.000527227
0.000521298
0.000507387
0.000536684
0.000541356
0.000525234
0.000523962
0.000526972
0.000527086
0.000521289
0.000507448
0.000348445
0.000315622
0.000299425
0.000290366
0.000285689
0.000282558
0.00027938
0.000275197
0.000498711
0.000420193
0.000361184
0.000321399
0.000300901
0.000293365
0.000288335
0.000282205
0.000654271
0.000592207
0.000539895
0.000488773
0.0004351
0.000384127
0.000344284
0.000318925
0.000762838
0.000709789
0.0006695
0.000642105
0.000613729
0.000585246
0.000563667
0.000555996
0.000669661
0.00061334
0.000566567
0.000519918
0.000468123
0.000412202
0.000362022
0.000326722
0.000510506
0.000443758
0.000389498
0.000341061
0.00030729
0.000291822
0.000286831
0.000281716
0.000355745
0.00031815
0.000300631
0.000291112
0.000284925
0.000281736
0.000279024
0.000275412
0.000616757
0.000545835
0.00050644
0.000485908
0.000474655
0.00046621
0.000456801
0.000443594
0.000659457
0.00057561
0.000523918
0.000496509
0.00048114
0.000469436
0.000457696
0.000443381
0.000742121
0.000664274
0.000610968
0.000574321
0.000547235
0.000522028
0.00049748
0.000475054
0.000841347
0.0007735
0.000722166
0.000693047
0.000688316
0.000691486
0.000688527
0.000670819
0.000743911
0.00066592
0.000613388
0.000578976
0.000553199
0.000526683
0.000500003
0.000476148
0.000661599
0.00057731
0.000526357
0.000498927
0.000482916
0.000470143
0.000457551
0.000442959
0.000618679
0.000544565
0.000504594
0.000484294
0.000473022
0.000465051
0.000456422
0.000443778
0.000687098
0.000615831
0.000571503
0.000547578
0.000533519
0.000522599
0.000510601
0.000494063
0.000688579
0.000622575
0.000577458
0.000551886
0.000536865
0.000525422
0.000512962
0.00049593
0.00070034
0.000642061
0.000596474
0.000569198
0.000553128
0.000540632
0.000527527
0.000510883
0.000702984
0.000656802
0.000620286
0.000603049
0.000599622
0.000600049
0.000595596
0.000581546
0.000705328
0.000644508
0.000597909
0.000570439
0.000554428
0.000541665
0.000528047
0.000511102
0.000695505
0.000625364
0.000578663
0.000552298
0.000536716
0.000524943
0.000512445
0.000495602
0.000691362
0.000615015
0.000569723
0.000545928
0.000532221
0.00052174
0.000510194
0.000494025
0.000685799
0.000614742
0.000569708
0.000549642
0.000540069
0.000532574
0.0005225
0.000506443
0.000679568
0.000616662
0.000574237
0.00055384
0.000543291
0.000534874
0.000523985
0.000507205
0.000674478
0.000620841
0.000581178
0.000560534
0.00054974
0.000541649
0.000531434
0.000515263
0.000670755
0.000626587
0.000592387
0.000573075
0.000562987
0.000556727
0.00054848
0.000533911
0.000675904
0.000621004
0.00058141
0.000560818
0.000549922
0.000541731
0.000531466
0.000515322
0.000681988
0.000616364
0.000573537
0.000553236
0.0005428
0.000534506
0.000523777
0.000507172
0.000688383
0.000613047
0.000567658
0.000548205
0.00053922
0.000532151
0.000522402
0.000506586
0.000535832
0.000540836
0.000525209
0.000524129
0.000527144
0.00052722
0.000521397
0.000507538
0.000539102
0.000544414
0.000527759
0.000525723
0.0005281
0.000527712
0.000521477
0.000507245
0.000543509
0.000549414
0.000531782
0.000529021
0.000531183
0.000530861
0.000524797
0.00051069
0.000552851
0.000555831
0.000536373
0.000532837
0.000535262
0.000535595
0.000529985
0.000515942
0.000541945
0.00054687
0.00053033
0.000528428
0.000530984
0.000530825
0.000524841
0.000510781
0.00053563
0.000539714
0.000524814
0.000524281
0.000527427
0.000527418
0.000521402
0.00050732
0.000531576
0.000534672
0.000521077
0.000522085
0.000526214
0.000526845
0.000521344
0.000507685
0.00033778
0.000309777
0.000296463
0.000289383
0.000284753
0.000281526
0.000278565
0.000274858
0.0004501
0.000388761
0.000346423
0.000317372
0.000300772
0.00029178
0.00028582
0.000280089
0.000617378
0.000566274
0.000525211
0.000484282
0.000437179
0.000387277
0.000346297
0.000319569
0.000759516
0.000711421
0.000674414
0.000646098
0.000622844
0.000602945
0.000589977
0.000590595
0.000667796
0.000608076
0.000559335
0.000514972
0.000465819
0.000409773
0.000357947
0.000321869
0.000482771
0.000412624
0.000358279
0.000321174
0.000300979
0.000290654
0.000284771
0.000279157
0.000340007
0.00031134
0.000298052
0.0002903
0.000284981
0.000281361
0.000278163
0.000274212
0.000603018
0.000538319
0.000504131
0.000485483
0.00047416
0.000465481
0.000456157
0.000443313
0.000632759
0.000558269
0.000516071
0.000493365
0.000479344
0.000467854
0.000456339
0.000442432
0.000702643
0.000629895
0.000581827
0.00055155
0.000529143
0.000508756
0.000487821
0.000468152
0.000808725
0.000747496
0.00070684
0.000685874
0.000692758
0.000711751
0.000711656
0.000679755
0.000716806
0.000642125
0.00059052
0.000556916
0.000533847
0.000511712
0.000488208
0.000466801
0.000637836
0.000560728
0.000517259
0.000494318
0.0004799
0.000467702
0.000455573
0.000441465
0.000607208
0.00054189
0.00050586
0.000485973
0.000473962
0.000464751
0.000454959
0.00044183
0.000690149
0.000613243
0.00056875
0.000545528
0.00053206
0.000521633
0.000510102
0.000493983
0.000691505
0.000621011
0.000576637
0.000551662
0.000536439
0.000524558
0.000511854
0.000494836
0.000694742
0.000630663
0.00058738
0.000562227
0.000547221
0.000535182
0.000522005
0.000505012
0.000691666
0.000636509
0.000600478
0.000584086
0.000580108
0.00057628
0.000567359
0.000550019
0.000693336
0.000630901
0.000588346
0.000563338
0.000548
0.000535372
0.00052167
0.000504459
0.00069099
0.000622673
0.000578648
0.00055349
0.000537765
0.000525322
0.00051216
0.000494832
0.000694012
0.000619345
0.00057402
0.000549381
0.000534589
0.000523043
0.000510647
0.000493959
0.0006939
0.000613338
0.000566563
0.000547211
0.000538571
0.00053178
0.00052222
0.000506536
0.000691286
0.000617561
0.000571995
0.000551399
0.000541267