/*--------------------------------*- C++ -*----------------------------------*\
| =========                 |                                                 |
| \\      /  F ield         | OpenFOAM: The Open Source CFD Toolbox           |
|  \\    /   O peration     | Version:  plus.master.MPPICInterFoam            |
|   \\  /    A nd           | Web:      www.OpenFOAM.com                      |
|    \\/     M anipulation  |                                                 |
\*---------------------------------------------------------------------------*/
FoamFile
{
    version     2.0;
    format      ascii;
    class       volScalarField;
    location    "10.4";
    object      k;
}
// * * * * * * * * * * * * * * * * * * * * * * * * * * * * * * * * * * * * * //

dimensions      [0 2 -2 0 0 0 0];

internalField   nonuniform List<scalar> 
11822
(
0.0571763
0.0604214
0.0605233
0.0580271
0.0536855
0.0482791
0.0423638
0.06717
0.0714258
0.0711686
0.0673378
0.0613696
0.0544276
0.0472901
0.0744349
0.0796676
0.0809668
0.0761818
0.068308
0.0596873
0.0512429
0.0740524
0.0798534
0.0844861
0.082581
0.073354
0.0632372
0.053745
0.069315
0.0747871
0.0832866
0.0840814
0.074981
0.0642248
0.0543161
0.0676143
0.072463
0.0804061
0.0807966
0.072219
0.0621687
0.0527146
0.0659143
0.0714619
0.0754615
0.0727748
0.065798
0.0574396
0.0490615
0.0569113
0.0601072
0.0601579
0.0576318
0.0532952
0.0479334
0.042089
0.0669879
0.0712253
0.0708682
0.0669364
0.0609242
0.0540063
0.0469391
0.0743213
0.0796281
0.0808457
0.0758713
0.0678546
0.0592191
0.0508349
0.0735472
0.0788377
0.0851005
0.0823137
0.0728949
0.0627439
0.0533043
0.072592
0.0736627
0.0808268
0.0835252
0.0744638
0.0637304
0.0538719
0.0697579
0.0726787
0.0797486
0.0804907
0.0717874
0.0617098
0.0522966
0.066406
0.071858
0.0751164
0.0724934
0.0654085
0.0570314
0.0486956
0.0565089
0.0596225
0.0596293
0.0571224
0.0528589
0.0475988
0.0418578
0.0665677
0.0706375
0.0701692
0.0662266
0.0603108
0.0535338
0.046615
0.0737904
0.0787055
0.079811
0.0749397
0.0670845
0.0586217
0.0504271
0.0719063
0.0763767
0.0836335
0.0810672
0.0720464
0.0620696
0.0528422
0.0676476
0.0721413
0.0803019
0.0821269
0.0736346
0.063042
0.0533967
0.0689785
0.0704371
0.0786046
0.0793009
0.0710485
0.0610769
0.0518564
0.0660334
0.0710915
0.0743029
0.0716976
0.0647646
0.0564896
0.0483245
0.0560647
0.0591387
0.0591535
0.0567073
0.0525271
0.047338
0.0416505
0.0656097
0.0696171
0.0692134
0.06549
0.0597924
0.0531705
0.0463529
0.0710001
0.0764672
0.0778112
0.0736917
0.0663327
0.0581457
0.0501129
0.0703354
0.0754207
0.0811972
0.0792764
0.0710771
0.0615032
0.0524912
0.0654056
0.0710173
0.0788089
0.0801468
0.0725645
0.0624374
0.0530354
0.0639675
0.0708586
0.0766799
0.0772057
0.0700629
0.0605188
0.0515227
0.0637115
0.0677696
0.071237
0.070328
0.0639981
0.0560295
0.0480456
0.0557853
0.0588737
0.0589437
0.0565514
0.0524309
0.0473052
0.0416994
0.0649666
0.0690078
0.0687414
0.0651435
0.0595744
0.0530561
0.0463296
0.0703644
0.0760011
0.077231
0.0730976
0.0659716
0.0579509
0.050036
0.0697547
0.0748447
0.0809127
0.0785181
0.0705846
0.0612416
0.052379
0.0641159
0.0716232
0.0782152
0.0793473
0.0719763
0.0621395
0.0529105
0.0642482
0.07092
0.0765595
0.0766366
0.0695568
0.060248
0.0514133
0.062724
0.0684754
0.0712189
0.0697516
0.0635911
0.0558103
0.0479716
0.0554931
0.0586204
0.0587743
0.056449
0.0524187
0.0474434
0.0420834
0.0642912
0.0684297
0.0683811
0.06489
0.0594178
0.053046
0.0465424
0.0699602
0.0755099
0.0770263
0.072795
0.0656857
0.057831
0.0501383
0.0687951
0.0758729
0.0803747
0.0785109
0.0701867
0.0610364
0.0524099
0.0667897
0.0689706
0.0792163
0.0797853
0.0715419
0.061885
0.0529032
0.0639349
0.0679593
0.07704
0.0767639
0.0690771
0.0599803
0.0513988
0.0615922
0.0674739
0.0712736
0.0694276
0.06315
0.0555868
0.0479905
0.0366869
0.0323066
0.0281431
0.0241973
0.020409
0.0166099
0.012298
0.00520979
0.0405576
0.0351837
0.0303141
0.025832
0.0216197
0.0174777
0.0128727
0.0053928
0.0437083
0.0376456
0.0322096
0.0272727
0.0226928
0.0182483
0.0133786
0.0055776
0.0457102
0.0392618
0.0335021
0.0282954
0.023489
0.0188491
0.0137968
0.00576732
0.0461721
0.0397321
0.0339683
0.0287417
0.0239005
0.0192108
0.0140874
0.00594996
0.0449752
0.0390031
0.0335814
0.0285908
0.0239073
0.0193142
0.014234
0.00612281
0.0423711
0.0373448
0.0325274
0.0279502
0.0235587
0.0191683
0.0142195
0.0062708
0.036501
0.0321805
0.0280659
0.0241579
0.0203971
0.0166162
0.0123139
0.00523761
0.0403083
0.0350133
0.0302068
0.0257723
0.0215939
0.0174743
0.0128822
0.00541834
0.0434039
0.0374329
0.0320728
0.0271934
0.0226546
0.0182374
0.013384
0.0056008
0.0453701
0.0390198
0.0333443
0.0282026
0.0234427
0.0188338
0.0138001
0.00578845
0.0458247
0.0394821
0.033804
0.0286447
0.0238524
0.0191954
0.0140912
0.00596933
0.0446498
0.0387667
0.0334247
0.0284985
0.0238628
0.019302
0.0142403
0.00614106
0.042087
0.0371344
0.0323854
0.0278662
0.0235196
0.0191603
0.0142291
0.0062891
0.0363629
0.0320941
0.0280195
0.0241418
0.0204032
0.0166366
0.0123401
0.00525179
0.040111
0.0348898
0.0301355
0.0257385
0.0215875
0.017487
0.0129051
0.00543284
0.0431487
0.0372712
0.0319758
0.0271418
0.0226355
0.0182409
0.0134009
0.00561353
0.0450742
0.0388304
0.0332287
0.028138
0.0234135
0.0188287
0.0138095
0.0057981
0.0455173
0.0392838
0.0336822
0.0285755
0.0238189
0.0191854
0.014095
0.00597601
0.0443641
0.0385793
0.033309
0.0284332
0.0238315
0.0192922
0.0142422
0.00614595
0.0418415
0.0369676
0.0322813
0.0278086
0.023494
0.0191543
0.0142326
0.00629503
0.0362125
0.0319744
0.0279304
0.024083
0.0203716
0.0166253
0.0123406
0.00530657
0.0399273
0.0347464
0.0300269
0.0256636
0.0215436
0.0174663
0.0128961
0.00547994
0.0429339
0.0371076
0.0318519
0.0270546
0.0225824
0.0182143
0.0133882
0.00565748
0.0448398
0.0386569
0.0330992
0.0280466
0.0233571
0.0188006
0.0137983
0.0058425
0.0452816
0.039114
0.0335585
0.0284894
0.0237662
0.0191602
0.0140887
0.00602073
0.0441484
0.0384256
0.0331999
0.0283597
0.0237881
0.0192736
0.0142421
0.00618856
0.0416547
0.0368327
0.0321875
0.0277482
0.0234608
0.0191429
0.0142377
0.00633427
0.0363696
0.0322272
0.0282974
0.0245728
0.0209748
0.0173064
0.0130171
0.00563579
0.0400106
0.0349316
0.0303364
0.0261141
0.0221339
0.0181654
0.0136207
0.00585957
0.0429633
0.0372362
0.0321033
0.0274496
0.023125
0.0188783
0.0140942
0.0060427
0.0448368
0.0387478
0.0333028
0.0283822
0.0238296
0.0193871
0.014427
0.00618841
0.045268
0.039187
0.0337294
0.0287715
0.0241614
0.0196473
0.0146056
0.00629792
0.044144
0.0384966
0.0333505
0.0285962
0.0241081
0.019657
0.0146377
0.00638694
0.0416742
0.0369126
0.0323281
0.0279493
0.0237158
0.0194335
0.0145239
0.00646292
0.0371185
0.0332832
0.0297135
0.0263795
0.0231653
0.019812
0.0156418
0.00796515
0.0405654
0.0358285
0.0316364
0.0278584
0.0243244
0.0207362
0.0163656
0.00833714
0.0433771
0.0379904
0.0332694
0.0290787
0.0252273
0.0213937
0.0168195
0.00855457
0.0451597
0.0393955
0.0343459
0.0298743
0.025786
0.0217543
0.0170139
0.00862239
0.0455425
0.0397614
0.0346645
0.0301153
0.0259283
0.0217889
0.0169475
0.00854532
0.0444054
0.0390207
0.0341837
0.0297768
0.0256465
0.0215105
0.0166565
0.0083646
0.0419487
0.0373922
0.0330478
0.0289374
0.0249785
0.0209353
0.0161475
0.00811206
0.0586895
0.0524447
0.045919
0.0394505
0.0332129
0.0270732
0.0203464
0.0101382
0.0636471
0.0572307
0.0497368
0.0424552
0.0354672
0.0286994
0.0214588
0.0106168
0.0673117
0.0603494
0.0521312
0.0442092
0.0366783
0.0294708
0.0218866
0.0107132
0.0682716
0.0606292
0.0520857
0.0439914
0.0363732
0.0291397
0.0215709
0.0104183
0.0658405
0.0574431
0.0492783
0.0415932
0.0344211
0.027593
0.0203903
0.00976142
0.0592321
0.0516164
0.04441
0.0376803
0.0313892
0.0253154
0.0187666
0.00890878
0.050705
0.0445918
0.0387445
0.0332131
0.0279468
0.0227344
0.0169428
0.0079993
0.0586753
0.0521946
0.0456365
0.0392013
0.0330161
0.0269324
0.0202591
0.0101255
0.0647765
0.0572223
0.0494387
0.0421356
0.0351922
0.0284938
0.0213281
0.0105872
0.068165
0.0603189
0.0518348
0.043858
0.0363565
0.0292291
0.0217389
0.0106713
0.0686219
0.0605278
0.0517749
0.0436629
0.0360869
0.028935
0.0214518
0.0103993
0.0657475
0.0572324
0.0490204
0.0413489
0.0342283
0.0274708
0.0203294
0.0097661
0.0590322
0.0514004
0.0442084
0.0375224
0.0312914
0.0252755
0.0187667
0.0089365
0.0504889
0.0444024
0.0386016
0.0331267
0.0279141
0.0227439
0.0169744
0.00803637
0.058268
0.0519348
0.0453704
0.0389495
0.0328101
0.0267821
0.0201651
0.0101139
0.0637693
0.0566429
0.0490698
0.041798
0.034921
0.0283076
0.0212251
0.0105852
0.0639277
0.0594334
0.0513945
0.0434687
0.0360657
0.0290531
0.0216682
0.0106931
0.0680928
0.0600875
0.0513712
0.0433046
0.0358358
0.0287967
0.0214036
0.0104323
0.0653314
0.0568935
0.0486643
0.0410676
0.0340577
0.0273983
0.0203244
0.00980492
0.0586863
0.051083
0.0439487
0.0373535
0.0312124
0.0252646
0.0187972
0.00897976
0.0501888
0.0441816
0.0384618
0.0330614
0.0279075
0.0227748
0.0170243
0.00808259
0.0568163
0.0512606
0.0448868
0.0385855
0.0325432
0.0265988
0.0200554
0.0101107
0.0595768
0.0552771
0.0484261
0.0413679
0.0346302
0.0281255
0.0211289
0.0106013
0.062293
0.0577931
0.0507407
0.0430656
0.0358233
0.0289291
0.0216259
0.0107392
0.0645279
0.0586584
0.0507698
0.0429617
0.0356542
0.028723
0.0213963
0.0104898
0.0638252
0.0560957
0.0482267
0.040831
0.033956
0.027383
0.0203551
0.00986038
0.0580313
0.050676
0.0437134
0.0372425
0.0311876
0.0252937
0.0188511
0.00903965
0.0498921
0.0440076
0.0383797
0.0330456
0.0279355
0.0228293
0.0170863
0.00814518
0.0559279
0.0504438
0.0442667
0.0381309
0.0322231
0.0263894
0.0199436
0.0101382
0.0589575
0.0543531
0.047669
0.0408381
0.0342777
0.0279021
0.0210116
0.0106414
0.0603709
0.0568485
0.049934
0.0425595
0.035524
0.0287566
0.0215463
0.0107979
0.0638301
0.0578177
0.0501808
0.0426116
0.035465
0.0286276
0.0213642
0.0105623
0.0630685
0.055491
0.0478645
0.0406537
0.0338913
0.027383
0.0203966
0.00994498
0.0575471
0.0503766
0.0435757
0.037212
0.0312215
0.0253645
0.018938
0.00912946
0.0497177
0.0439412
0.03839
0.0331064
0.0280285
0.0229397
0.0172003
0.00822743
0.0551731
0.0495826
0.043587
0.0376209
0.0318626
0.0261614
0.0198431
0.0107264
0.0597394
0.0536993
0.0469373
0.0402624
0.0338473
0.0276059
0.0208472
0.0112091
0.0632962
0.0566943
0.0492507
0.0420303
0.0351284
0.0284824
0.0213943
0.0113809
0.063661
0.0572752
0.0496438
0.0422357
0.0352109
0.028481
0.0213213
0.0111998
0.0624732
0.0549681
0.0475501
0.040482
0.0338335
0.0274283
0.0205363
0.0106615
0.0570415
0.050091
0.0434635
0.0372276
0.0313483
0.0255934
0.0192532
0.00992615
0.0495636
0.0439154
0.0384809
0.0333088
0.028343
0.0233612
0.017703
0.00911991
0.0493935
0.0434177
0.0376724
0.0322397
0.0270803
0.0219894
0.016343
0.00758443
0.0516192
0.0447243
0.0384064
0.0325967
0.0271799
0.0219186
0.0161749
0.00727837
0.0516989
0.0445376
0.038042
0.0321325
0.0266723
0.0214133
0.0157211
0.00690018
0.0497002
0.0428008
0.0365419
0.0308482
0.025586
0.0205175
0.0150316
0.00648861
0.0461596
0.0398716
0.0341547
0.0289283
0.0240689
0.0193539
0.0142009
0.006062
0.0417336
0.0362644
0.0312714
0.0266564
0.0223097
0.018032
0.013282
0.00566589
0.0368853
0.0324818
0.0283037
0.0243427
0.0205359
0.0167145
0.0123766
0.00527792
0.0491456
0.0432162
0.0375321
0.0321637
0.027061
0.0220113
0.0163857
0.00762494
0.0513303
0.0444978
0.0382587
0.0325236
0.0271685
0.0219494
0.0162246
0.00732223
0.0513782
0.0442973
0.0378905
0.0320611
0.0266622
0.0214432
0.0157689
0.00694294
0.049377
0.0425693
0.0364006
0.0307825
0.0255762
0.0205436
0.0150721
0.00652856
0.0458649
0.0396694
0.0340349
0.0288738
0.0240616
0.0193773
0.0142381
0.00609937
0.0414909
0.0361027
0.0311767
0.0266129
0.0223018
0.0180461
0.0133079
0.00569519
0.036706
0.0323631
0.0282348
0.0243127
0.020535
0.0167335
0.0124059
0.00530735
0.048846
0.0430079
0.0374123
0.0321188
0.0270705
0.0220536
0.0164401
0.00766931
0.0509855
0.044275
0.0381407
0.0324845
0.0271827
0.0219929
0.0162765
0.00736281
0.0510216
0.0440757
0.0377762
0.0320229
0.0266722
0.0214792
0.0158127
0.00697833
0.0490475
0.04237
0.036298
0.0307459
0.0255818
0.020572
0.0151039
0.00655957
0.0455949
0.0395086
0.0339519
0.0288434
0.0240651
0.0194
0.0142675
0.0061242
0.0412924
0.0359858
0.0311164
0.0265915
0.0223061
0.0180651
0.0133332
0.0057137
0.0365714
0.032281
0.0281934
0.0243023
0.0205473
0.0167602
0.0124371
0.00532625
0.0486042
0.0428721
0.037356
0.0321189
0.0271063
0.0221089
0.0165004
0.00772834
0.0507294
0.0441405
0.0380873
0.0324839
0.0272137
0.0220416
0.0163306
0.00742024
0.0507665
0.0439406
0.0377159
0.0320085
0.0266872
0.0215126
0.0158548
0.00703639
0.0488154
0.0422361
0.0362253
0.0307137
0.0255797
0.0205921
0.015138
0.00662012
0.0453963
0.0393796
0.0338699
0.0287974
0.024049
0.019408
0.0142913
0.00618637
0.0411254
0.035866
0.0310333
0.0265412
0.0222855
0.0180688
0.0133532
0.00577489
0.0364328
0.0321739
0.0281169
0.0242557
0.020528
0.0167623
0.0124527
0.00538861
0.0485073
0.0428637
0.0374089
0.032213
0.0272274
0.0222444
0.0166333
0.00780507
0.0506449
0.044148
0.0381536
0.0325927
0.0273545
0.0222041
0.0164953
0.00751899
0.0507051
0.0439611
0.0377935
0.0321341
0.0268573
0.021717
0.0160681
0.00716658
0.0487787
0.0422702
0.0363206
0.0308719
0.0258016
0.0208662
0.0154282
0.00678819
0.0453949
0.0394463
0.0340098
0.0290192
0.0243533
0.0197778
0.0146786
0.00640467
0.0411799
0.0359975
0.0312545
0.0268622
0.0227037
0.0185588
0.0138518
0.00603057
0.0365741
0.0324012
0.0284456
0.0246926
0.021064
0.0173652
0.013049
0.0056749
0.0484193
0.0429074
0.0375807
0.0325208
0.0276782
0.02283
0.0173129
0.00881264
0.0505995
0.0442542
0.0384177
0.0330361
0.0279905
0.0230222
0.0174349
0.00873191
0.0507076
0.0441278
0.0381527
0.0327208
0.027693
0.0227895
0.0172961
0.00861155
0.0488495
0.0425282
0.0368132
0.0316441
0.0268778
0.0222277
0.0169695
0.00846088
0.0455862
0.0398613
0.0347043
0.0300389
0.0257168
0.0214524
0.0165315
0.00828732
0.0415737
0.0366572
0.0322327
0.028198
0.0244062
0.0205824
0.0160358
0.0080894
0.0372727
0.0333823
0.0297591
0.0263673
0.023094
0.0196873
0.0154819
0.00786396
0.0433939
0.0382688
0.0333875
0.0287443
0.0242715
0.0197775
0.0146944
0.00656371
0.050579
0.0441606
0.0381617
0.0325592
0.0272622
0.0220541
0.0163089
0.00732097
0.057544
0.0500141
0.0429194
0.0363345
0.030192
0.0242664
0.017871
0.00809706
0.0632665
0.0547691
0.0468179
0.0394435
0.0326237
0.0261231
0.019217
0.00884211
0.0660543
0.0571162
0.0488716
0.0411806
0.034059
0.0272894
0.020133
0.00946162
0.0644806
0.056317
0.0485002
0.041102
0.0341778
0.0275372
0.0204478
0.0098456
0.0597935
0.0529298
0.0461002
0.0394514
0.0331084
0.0269089
0.0201501
0.0099426
0.0431151
0.0380619
0.0332489
0.0286641
0.0242367
0.0197748
0.0147096
0.00658256
0.0502294
0.0438795
0.0379583
0.0324307
0.0271969
0.0220357
0.0163178
0.00734088
0.0571805
0.04969
0.0426605
0.0361533
0.0300882
0.0242246
0.017868
0.00811157
0.0629273
0.0544291
0.0465203
0.0392161
0.032476
0.0260486
0.0191965
0.00885169
0.0657573
0.0567717
0.0485555
0.0409222
0.0338772
0.0271818
0.0200879
0.00946389
0.0642079
0.055983
0.0481877
0.0408383
0.0339825
0.0274129
0.0203843
0.00984086
0.05958
0.0526355
0.0458211
0.0392142
0.032927
0.0267848
0.0200773
0.00993361
0.0428622
0.0378916
0.0331432
0.0286065
0.0242126
0.0197716
0.0147157
0.0065897
0.0498274
0.0435963
0.0377759
0.0323264
0.0271503
0.0220268
0.0163273
0.00735322
0.0566503
0.0492834
0.0423804
0.0359865
0.0300084
0.024204
0.0178778
0.00813036
0.062334
0.0539382
0.0461598
0.0389877
0.0323612
0.0260135
0.0192022
0.00887441
0.0651716
0.0562868
0.0481705
0.040653
0.0337233
0.0271214
0.0200824
0.0094879
0.0638225
0.0556169
0.0478533
0.0405828
0.0338181
0.0273256
0.0203533
0.00985704
0.0594092
0.0523994
0.0455557
0.0389821
0.0327526
0.0266676
0.0200114
0.00993336
0.0426781
0.037763
0.0330567
0.0285531
0.0241858
0.0197652
0.0147245
0.00662287
0.0495112
0.0433887
0.0376466
0.0322532
0.0271177
0.0220212
0.0163383
0.00738368
0.0561359
0.0489552
0.0421862
0.0358807
0.0299691
0.0242013
0.0178929
0.0081623
0.0614786
0.053447
0.0458814
0.0388474
0.0323067
0.0260077
0.0192193
0.00890769
0.0638683
0.0556642
0.0478228
0.0404668
0.0336394
0.0271012
0.0200934
0.00952226
0.0623948
0.0549813
0.0474739
0.0403505
0.0336839
0.0272586
0.0203323
0.00988434
0.0584351
0.0518547
0.0451602
0.0386918
0.0325478
0.0265338
0.0199365
0.00994059
0.0426615
0.0378009
0.0331441
0.0286871
0.0243608
0.0199676
0.0149249
0.0067148
0.0493888
0.0433431
0.0376595
0.0323155
0.0272196
0.0221505
0.0164763
0.00746467
0.0558719
0.0488107
0.0421301
0.0358864
0.0300139
0.0242717
0.017978
0.00823216
0.0610528
0.0531934
0.0457476
0.0387921
0.0323003
0.026033
0.019263
0.00896572
0.063411
0.0553282
0.0476025
0.0403443
0.0335809
0.0270811
0.0201029
0.00957104
0.061841
0.0545313
0.0471338
0.0401168
0.0335342
0.027173
0.0203004
0.00992544
0.0576022
0.0511989
0.0446586
0.0383272
0.032296
0.0263727
0.0198551
0.0099663
0.0428527
0.0381533
0.0336873
0.029444
0.0253382
0.0211414
0.0162086
0.00813872
0.0493154
0.0434154
0.0378948
0.0327353
0.0278377
0.022955
0.0174095
0.00869375
0.0555992
0.0486834
0.042144
0.0360614
0.0303585
0.0247804
0.0186134
0.00927848
0.0607103
0.0529474
0.0456231
0.0388017
0.0324508
0.0263225
0.0196668
0.00985558
0.0629816
0.0549359
0.0473373
0.0402094
0.033576
0.0272015
0.0203229
0.010328
0.0612638
0.0539318
0.0466925
0.039825
0.0333806
0.0271452
0.0203791
0.0105904
0.0566105
0.0503805
0.0440497
0.037892
0.0320116
0.0262204
0.0198242
0.0105755
0.00160278
0.00384794
0.00496195
0.00560774
0.00587915
0.00583744
0.00554821
0.00508081
0.00158352
0.00381073
0.00492285
0.00557169
0.0058488
0.00581373
0.00553064
0.0050682
0.00157201
0.00378834
0.00489893
0.00554754
0.00582502
0.00579059
0.00550823
0.00504655
0.00157285
0.00380405
0.00492027
0.00557288
0.0058517
0.00581661
0.00553236
0.0050679
0.00159183
0.00386425
0.00499423
0.00565438
0.00593429
0.00589561
0.00560508
0.00513282
0.00162576
0.00395244
0.00509936
0.00576566
0.00604269
0.00599526
0.00569347
0.0052099
0.0016656
0.00403773
0.00519726
0.005863
0.00613073
0.00606918
0.00575232
0.0052554
0.00208687
0.00517894
0.0066441
0.00742554
0.00766968
0.00748209
0.00696963
0.00624216
0.00205518
0.00512022
0.00658176
0.00736786
0.00762124
0.00744464
0.00694202
0.00622099
0.00203961
0.00509176
0.00655114
0.00733695
0.0075911
0.00741574
0.00691415
0.00619319
0.00204406
0.00512619
0.00659451
0.00738473
0.00763828
0.00745932
0.0069531
0.00622713
0.00207892
0.00522815
0.00671806
0.00751644
0.00776695
0.00757809
0.00705931
0.0063205
0.00214227
0.00537631
0.0068922
0.00769516
0.00793494
0.00772624
0.00718505
0.00642631
0.0022159
0.00552224
0.00705886
0.00785809
0.00807919
0.00784385
0.00727492
0.00649225
0.00275983
0.0071194
0.00904069
0.00994626
0.0100811
0.00962696
0.0087532
0.00762715
0.00270405
0.00702671
0.00894113
0.00985393
0.0100038
0.00956823
0.00871172
0.00759571
0.0026791
0.00698914
0.00889919
0.0098121
0.00996465
0.0095333
0.00868081
0.00756552
0.00269333
0.0070519
0.00897611
0.00989267
0.0100407
0.00960064
0.00873957
0.00761765
0.00277026
0.00721143
0.00917094
0.0100941
0.0102312
0.00977066
0.0088872
0.00774617
0.00288914
0.00744904
0.00944523
0.0103672
0.0104797
0.0099806
0.00905513
0.0078795
0.00300584
0.00769639
0.00971883
0.0106306
0.0107097
0.0101642
0.00919062
0.007974
0.00403108
0.010052
0.0125344
0.0134753
0.0133297
0.0124053
0.0109617
0.0092369
0.00393761
0.00990776
0.0123785
0.01333
0.0132092
0.0123179
0.0109083
0.00920759
0.00389295
0.00984918
0.0123109
0.0132641
0.0131514
0.0122732
0.0108795
0.00918899
0.00394801
0.00994714
0.0124296
0.0133836
0.0132602
0.0123655
0.0109574
0.00926069
0.0040839
0.0101944
0.0127192
0.0136738
0.0135267
0.012595
0.011148
0.00942229
0.00425479
0.0105619
0.0131301
0.0140736
0.013882
0.0128835
0.0113602
0.00957221
0.00438993
0.0109448
0.0135486
0.014477
0.0142349
0.0131626
0.0115602
0.00970554
0.0075536
0.0149119
0.0177799
0.0184594
0.017688
0.0159442
0.0136064
0.0109869
0.00745828
0.0147042
0.0175472
0.018235
0.0175012
0.0158157
0.0135456
0.0109759
0.00741753
0.0146102
0.0174316
0.0181181
0.0173986
0.0157415
0.013522
0.0110071
0.00750897
0.0147628
0.017598
0.018276
0.0175349
0.015848
0.0136036
0.0110842
0.00766415
0.0151256
0.0180078
0.0186755
0.017891
0.0161406
0.013828
0.0112612
0.00780871
0.0156481
0.0185955
0.0192469
0.0183957
0.0165439
0.0141
0.0114253
0.00783533
0.0161451
0.0191716
0.0198247
0.0189149
0.0169563
0.0143838
0.0115996
0.0171116
0.0236101
0.0257705
0.0254465
0.0234076
0.0202265
0.0164086
0.0125155
0.0170057
0.0233288
0.0254503
0.0251106
0.023108
0.0200058
0.0162898
0.0124345
0.0169975
0.023232
0.0252992
0.0249262
0.0229242
0.0198505
0.0162469
0.0124362
0.0171241
0.0234665
0.0255335
0.0251304
0.0230837
0.019954
0.0163112
0.0124913
0.0173005
0.0239531
0.0260846
0.0256659
0.0235482
0.0203208
0.016591
0.0127472
0.0174028
0.0245762
0.0268463
0.0264481
0.0242481
0.0208874
0.0169731
0.0130155
0.0171974
0.0250346
0.0275143
0.0272128
0.0249834
0.0214948
0.0173819
0.0132476
0.00231149
0.00526876
0.00675942
0.00760266
0.00791711
0.00778167
0.00729447
0.00656754
0.00233495
0.0053141
0.00682176
0.00768652
0.00801888
0.0078953
0.00741217
0.00668124
0.00232315
0.00529114
0.00679591
0.00766461
0.00800546
0.00789301
0.00742138
0.00670023
0.00228664
0.00521565
0.00669837
0.00755185
0.00788744
0.00777939
0.0073199
0.0066161
0.00222915
0.0051019
0.006549
0.00737163
0.00769123
0.00758335
0.00713878
0.00646093
0.00216035
0.00497082
0.00637297
0.00716003
0.0074593
0.00734921
0.00691976
0.00627043
0.00208063
0.00481677
0.00616815
0.00691921
0.00719893
0.00708816
0.00667604
0.00605779
0.00317879
0.00728226
0.00930715
0.0103971
0.0107027
0.0103615
0.00953062
0.00838839
0.00320389
0.00733314
0.00938293
0.0105063
0.0108409
0.0105205
0.00969904
0.00855361
0.00317925
0.00728771
0.00933309
0.0104621
0.0108108
0.0105096
0.00970806
0.00857985
0.00312182
0.00716935
0.0091801
0.0102839
0.0106244
0.01033
0.00954682
0.00844395
0.00303301
0.00699274
0.00894704
0.00999796
0.0103113
0.0100162
0.0092554
0.00819234
0.00292828
0.0067938
0.00868733
0.00967444
0.00995139
0.00964968
0.0089108
0.00789189
0.00281234
0.00657521
0.00839763
0.00932366
0.00956515
0.00925762
0.00854278
0.00757179
0.00439699
0.0101705
0.0129145
0.0142797
0.0145093
0.0138296
0.012471
0.0107023
0.0044141
0.010219
0.0130015
0.0144165
0.0146899
0.0140437
0.0127036
0.0109352
0.00436515
0.0101374
0.0129119
0.014334
0.0146301
0.0140159
0.01271
0.010972
0.00427675
0.00995802
0.0126767
0.0140587
0.0143449
0.0137444
0.012468
0.0107661
0.00414295
0.00968996
0.0123177
0.0136162
0.013862
0.0132612
0.0120191
0.0103759
0.00399124
0.00940502
0.0119402
0.0131366
0.0133219
0.0127053
0.0114921
0.00991374
0.00383004
0.00911117
0.0115465
0.0126458
0.0127681
0.0121306
0.0109446
0.0094363
0.00621244
0.0142815
0.0179363
0.0195358
0.019581
0.018391
0.016266
0.0135865
0.00624331
0.0143196
0.0180399
0.019711
0.0198172
0.0186753
0.0165788
0.0139049
0.00618159
0.0141788
0.0178833
0.0195643
0.0197035
0.0186105
0.0165693
0.013948
0.00605144
0.0139035
0.0175123
0.0191356
0.0192666
0.0182022
0.0162146
0.0136471
0.00583366
0.0135062
0.0169683
0.0184721
0.0185487
0.0174858
0.0155524
0.0130691
0.00558743
0.0131383
0.0164591
0.01781
0.0177855
0.0166822
0.0147788
0.0123809
0.0053463
0.0128048
0.0159676
0.0171764
0.0170394
0.0158757
0.013986
0.0116796
0.00808881
0.0202254
0.0246747
0.0263427
0.0260818
0.0241841
0.0209875
0.0170211
0.00804803
0.020279
0.0248258
0.026582
0.0264047
0.0245722
0.0214072
0.0174489
0.00791546
0.020063
0.0245749
0.0263483
0.0262119
0.0244412
0.021355
0.0174838
0.00774039
0.0196278
0.0239792
0.0256906
0.025545
0.0238176
0.0208255
0.0170319
0.00756551
0.0190701
0.0231919
0.024761
0.0245335
0.0227909
0.0198727
0.0161968
0.00750077
0.0187007
0.022599
0.0239584
0.0235452
0.0216928
0.018782
0.015198
0.00755484
0.0183649
0.0220781
0.0232334
0.0226156
0.0206205
0.0176737
0.0141873
0.0132373
0.028477
0.0331719
0.0348134
0.034141
0.0312266
0.0263595
0.0204557
0.0132407
0.0285411
0.0333687
0.0351287
0.0345962
0.0317979
0.0269671
0.0210495
0.0129631
0.0282244
0.033047
0.034838
0.0343466
0.0316011
0.026863
0.0210741
0.0125489
0.0275918
0.0322357
0.0339499
0.0334058
0.0306787
0.0260751
0.0203954
0.0125345
0.0270446
0.0313385
0.0328244
0.0321042
0.0292664
0.0247362
0.019281
0.0136446
0.0269238
0.0309118
0.0320211
0.0309298
0.0278134
0.0232163
0.0179258
0.0147803
0.0267612
0.0304634
0.0312333
0.0297881
0.0264149
0.0217092
0.0165453
0.00198265
0.00462468
0.00591502
0.00662819
0.00688974
0.00678167
0.00639182
0.00581033
0.00187664
0.00441653
0.00564821
0.00632694
0.00657384
0.00647042
0.00610282
0.00555684
0.00178295
0.0042324
0.00541834
0.00607286
0.0063123
0.00621638
0.00586888
0.00535222
0.00171147
0.0040897
0.00524015
0.00587997
0.00611878
0.00603297
0.00570291
0.00520778
0.00166273
0.00398361
0.00510627
0.00573583
0.00597609
0.00589954
0.00558259
0.00510115
0.00163036
0.0039099
0.00501634
0.00564255
0.00588843
0.00582245
0.00551694
0.00504458
0.00161218
0.00387027
0.00497638
0.00561033
0.0058685
0.00581536
0.00551939
0.00505103
0.0026725
0.00630902
0.00803873
0.00890519
0.00911515
0.00880749
0.00812437
0.00721024
0.0025232
0.00602758
0.00766985
0.00848564
0.00867257
0.00836904
0.00771642
0.00685406
0.00239287
0.00578121
0.00735595
0.00813752
0.00831423
0.00802115
0.00739665
0.00657636
0.00228521
0.005575
0.00709952
0.00786297
0.00804272
0.00776865
0.00717363
0.00638832
0.00220306
0.00540598
0.00688956
0.00764187
0.00782977
0.00757648
0.00700793
0.00624823
0.00214416
0.00528241
0.00673951
0.00749005
0.00769203
0.0074618
0.00691803
0.00617806
0.00210782
0.00521499
0.00666969
0.00743317
0.00765646
0.00744971
0.00692494
0.00619476
0.00363502
0.00875148
0.0110503
0.0120599
0.0121282
0.0114799
0.0103335
0.00891072
0.00342846
0.00837508
0.0105463
0.0114852
0.0115196
0.0108726
0.00976538
0.00841606
0.00324672
0.00804521
0.0101177
0.011011
0.0110329
0.0104007
0.00933118
0.00804045
0.00309126
0.00774663
0.00975008
0.0106217
0.0106523
0.0100525
0.0090303
0.00779528
0.00296226
0.00747938
0.00942693
0.0102882
0.0103372
0.00977594
0.00880222
0.00761253
0.0028634
0.00727627
0.00918687
0.0100494
0.0101242
0.00960407
0.00867671
0.0075256
0.0027996
0.00717036
0.00907772
0.00995887
0.0100648
0.00958172
0.00868726
0.00755563
0.00506039
0.0123379
0.0153064
0.0163901
0.0161625
0.0149604
0.0131076
0.0109247
0.00477047
0.0118349
0.0146248
0.0156178
0.0153437
0.014139
0.0123328
0.0102516
0.00452625
0.0113935
0.0140434
0.0149781
0.0146896
0.0135087
0.011753
0.0097508
0.00437006
0.0109621
0.0135281
0.0144343
0.0141584
0.0130267
0.0113433
0.00942672
0.0042314
0.0105544
0.0130564
0.0139515
0.0137041
0.012633
0.011031
0.00919138
0.00410468
0.0102463
0.0127055
0.013602
0.0133896
0.0123787
0.0108515
0.00907983
0.00404258
0.0101077
0.0125673
0.013482
0.0133045
0.0123417
0.0108638
0.00912569
0.00753585
0.0177304
0.0212488
0.0222329
0.0214631
0.0193775
0.0164459
0.0131405
0.00752698
0.0170408
0.0203715
0.02123
0.0203845
0.0182942
0.0154232
0.0122645
0.00757933
0.0164586
0.019634
0.0204
0.0195207
0.0174702
0.0146769
0.011626
0.00759357
0.0159219
0.0189683
0.0196717
0.0187903
0.0168047
0.0141221
0.0112022
0.00750747
0.0153972
0.0183407
0.0190149
0.0181633
0.0162582
0.0136985
0.0109017
0.00738492
0.015014
0.0178904
0.0185537
0.0177369
0.0159039
0.013442
0.0107411
0.00741984
0.0149085
0.017769
0.0184357
0.0176429
0.0158585
0.0134599
0.0108023
0.0153397
0.0260998
0.0295351
0.0300075
0.0282859
0.0247504
0.0200484
0.0151712
0.015835
0.0254364
0.028557
0.0287722
0.0268527
0.0232872
0.0186953
0.0140816
0.0163297
0.0249373
0.0277628
0.0277628
0.0257214
0.0222042
0.0177586
0.0133141
0.0165503
0.0244037
0.02699
0.0268338
0.0247398
0.021303
0.0170462
0.0127801
0.0164885
0.0237981
0.0262187
0.0259855
0.0239103
0.0205692
0.0164765
0.0124027
0.016403
0.0233725
0.0256931
0.0254316
0.0233885
0.0201222
0.0161178
0.0121465
0.0166865
0.0234105
0.0256526
0.0253661
0.0233334
0.0201155
0.0161782
0.0121959
0.00171052
0.00412111
0.00529369
0.00595626
0.00621087
0.00613086
0.00579462
0.00528075
0.00177128
0.00423662
0.00543555
0.00610374
0.00634948
0.0062504
0.00588966
0.00535065
0.00185235
0.00439904
0.00564058
0.00632684
0.00657166
0.00645583
0.00606708
0.00549469
0.00195526
0.00460392
0.00589955
0.00661447
0.00686646
0.00673897
0.00632353
0.00571512
0.00206665
0.00481921
0.00617473
0.00692204
0.00718571
0.00704997
0.00660971
0.00596559
0.00216695
0.00500516
0.00641172
0.00718928
0.00746486
0.00732274
0.00686055
0.00618396
0.00225086
0.0051579
0.00660948
0.00741999
0.00771273
0.00756999
0.00709064
0.00638461
0.00229719
0.00566251
0.00722289
0.00801697
0.0082159
0.00794894
0.00734666
0.00653489
0.00239879
0.00584756
0.00745318
0.00825686
0.0084416
0.00814361
0.00750113
0.00664811
0.00252362
0.00608574
0.00776013
0.0085921
0.00877562
0.00845173
0.00776501
0.00685863
0.00267288
0.00636794
0.00812414
0.00899837
0.00919317
0.00885249
0.00812544
0.00716376
0.0028334
0.0066615
0.00850667
0.00943104
0.00964552
0.00929397
0.00852958
0.00751319
0.0029767
0.00691502
0.00883217
0.00980626
0.0100423
0.00968313
0.0088857
0.00781921
0.00309621
0.00712926
0.00910342
0.010137
0.0104048
0.0100483
0.00922585
0.00811348
0.00313764
0.00792823
0.00998454
0.0108885
0.010934
0.0103381
0.0093098
0.00804526
0.00329894
0.00822486
0.0103505
0.0112687
0.0112923
0.0106478
0.0095554
0.00822456
0.00348703
0.0085729
0.010807
0.0117672
0.0117888
0.0111059
0.00994601
0.00853102
0.00369796
0.00894925
0.011304
0.0123252
0.012367
0.0116644
0.0104475
0.00894913
0.00392724
0.00933786
0.0118209
0.0129179
0.0129945
0.0122826
0.0110135
0.00943283
0.00413442
0.00968669
0.0122593
0.0134388
0.013554
0.0128363
0.0115196
0.00986202
0.00429675
0.00997381
0.0126355
0.0139124
0.0140823
0.0133747
0.0120233
0.0102952
0.00449141
0.0112821
0.013922
0.0148507
0.0145727
0.0134312
0.0117452
0.00981621
0.00466173
0.0117359
0.0144629
0.0154169
0.0151137
0.0139026
0.012119
0.0100866
0.00493282
0.0122535
0.0151403
0.0161502
0.0158429
0.0145763
0.0126928
0.0105288
0.00522161
0.0127418
0.0157984
0.016892
0.0166229
0.0153411
0.0133847
0.011098
0.00554623
0.013226
0.0164576
0.0176581
0.017456
0.0161832
0.0141656
0.0117609
0.0058443
0.013667
0.0170301
0.0183523
0.0182205
0.0169563
0.014878
0.0123572
0.00607386
0.0140322
0.0175455
0.0190159
0.0189741
0.017739
0.0156186
0.0129924
0.00769306
0.0164406
0.0195633
0.0202709
0.0193621