/*--------------------------------*- C++ -*----------------------------------*\
| =========                 |                                                 |
| \\      /  F ield         | OpenFOAM: The Open Source CFD Toolbox           |
|  \\    /   O peration     | Version:  plus.master.MPPICInterFoam            |
|   \\  /    A nd           | Web:      www.OpenFOAM.com                      |
|    \\/     M anipulation  |                                                 |
\*---------------------------------------------------------------------------*/
FoamFile
{
    version     2.0;
    format      ascii;
    class       volScalarField;
    location    "10.4";
    object      p;
}
// * * * * * * * * * * * * * * * * * * * * * * * * * * * * * * * * * * * * * //

dimensions      [1 -1 -2 0 0 0 0];

internalField   nonuniform List<scalar> 
11822
(
759.989
759.867
759.553
759.152
758.759
758.368
758.009
761.513
761.335
760.854
759.927
759.297
758.784
758.31
766.227
766.149
764.41
761.89
760.092
759.265
758.628
769.159
769.309
767.489
764.227
761.12
759.732
758.893
770.767
765.712
765.323
765.139
761.446
759.878
758.987
771.316
770.349
768.196
764.775
761.292
759.784
758.943
768.647
767.817
766.074
762.959
760.372
759.36
758.734
665.223
665.321
665.453
665.439
665.392
665.312
665.206
664.823
665.071
665.563
665.447
665.473
665.424
665.311
666.606
667.373
666.863
665.975
665.605
665.574
665.427
668.276
666.532
667.577
666.691
665.738
665.694
665.516
665.487
664.583
670.737
666.117
665.655
665.711
665.538
667.156
669.761
669.666
666.823
665.895
665.747
665.552
667.623
667.534
667.261
666.47
665.676
665.611
665.471
570.737
570.846
571.133
571.361
571.582
571.808
571.983
569.579
569.822
570.578
570.849
571.245
571.592
571.861
569.944
570.939
571.153
570.816
571.011
571.46
571.772
571.128
572.592
570.914
570.957
570.801
571.385
571.723
566.466
569.614
573.056
569.749
570.321
571.268
571.678
566.175
572.343
572.186
570.374
570.638
571.359
571.723
568.437
568.934
570.08
570.528
570.806
571.445
571.781
479.207
479.165
479.389
479.545
479.8
480.092
480.375
478.702
478.675
479.301
479.191
479.445
479.843
480.189
480.516
481.097
481.032
479.834
479.36
479.702
480.058
480.736
481.814
481.246
480.761
479.425
479.663
479.988
480.297
483.807
482.029
480.099
479.063
479.574
479.94
479.204
481.531
481.928
480.488
479.31
479.654
479.993
480.034
481.126
481.588
480.056
479.36
479.752
480.098
390.083
389.838
389.62
389.265
388.962
388.641
388.288
391.476
391.111
390.841
389.828
389.284
388.958
388.58
396.221
396.081
394.706
391.779
389.9
389.3
388.839
397.617
397.003
396.155
393.916
390.536
389.602
389.043
397.354
395.865
396.545
393.759
390.443
389.639
389.121
397.646
393.552
396.464
394.005
390.572
389.665
389.162
396.805
396.248
396.463
392.906
390.201
389.518
389.111
303.88
303.671
303.298
302.689
302.105
301.535
301.132
305.5
305.342
304.924
303.621
302.775
302.102
301.483
310.966
310.653
308.913
305.756
303.665
302.723
301.915
314.823
311.492
312.351
308.084
304.529
303.253
302.299
316.032
311.482
313.956
308.886
304.817
303.504
302.541
313.728
312.691
312.858
309.261
305.049
303.58
302.66
313.039
312.325
311.769
307.43
304.373
303.301
302.634
757.695
757.537
757.425
757.357
757.327
757.329
757.356
757.396
757.915
757.679
757.513
757.403
757.342
757.327
757.353
757.401
758.143
757.828
757.605
757.455
757.368
757.339
757.362
757.411
758.327
757.959
757.701
757.529
757.426
757.384
757.396
757.44
758.405
758.031
757.77
757.597
757.492
757.445
757.451
757.488
758.416
758.063
757.821
757.658
757.559
757.513
757.514
757.543
758.25
757.987
757.805
757.681
757.61
757.582
757.586
757.607
665.09
665.057
665.039
665.038
665.046
665.068
665.103
665.145
665.19
665.125
665.083
665.059
665.053
665.07
665.109
665.158
665.295
665.195
665.125
665.081
665.066
665.081
665.122
665.175
665.378
665.26
665.176
665.125
665.104
665.113
665.148
665.197
665.414
665.304
665.222
665.17
665.146
665.149
665.177
665.219
665.412
665.319
665.256
665.214
665.194
665.194
665.212
665.244
665.233
665.178
665.171
665.178
665.19
665.207
665.227
665.249
572.051
572.156
572.258
572.349
572.437
572.539
572.651
572.746
572.006
572.136
572.248
572.345
572.44
572.547
572.669
572.776
571.981
572.122
572.24
572.344
572.446
572.559
572.688
572.803
571.975
572.128
572.254
572.365
572.472
572.587
572.713
572.826
571.961
572.136
572.276
572.393
572.499
572.611
572.73
572.833
571.951
572.141
572.296
572.418
572.524
572.63
572.733
572.82
571.834
572.006
572.193
572.352
572.486
572.603
572.7
572.776
480.559
480.722
480.855
480.97
481.076
481.167
481.235
481.297
480.412
480.608
480.767
480.905
481.033
481.147
481.237
481.32
480.318
480.528
480.701
480.851
480.99
481.113
481.211
481.301
480.277
480.491
480.669
480.823
480.962
481.082
481.175
481.258
480.256
480.479
480.665
480.818
480.947
481.055
481.136
481.204
480.277
480.498
480.683
480.827
480.941
481.032
481.096
481.145
480.277
480.473
480.651
480.792
480.904
480.99
481.043
481.087
387.873
387.629
387.429
387.285
387.245
387.376
387.698
387.967
388.146
387.856
387.612
387.424
387.337
387.426
387.738
388.013
388.39
388.084
387.822
387.613
387.5
387.565
387.862
388.131
388.584
388.278
388.024
387.819
387.701
387.755
388.04
388.293
388.689
388.406
388.18
387.997
387.894
387.955
388.239
388.471
388.752
388.482
388.282
388.128
388.053
388.136
388.418
388.633
388.743
388.539
388.359
388.222
388.175
388.281
388.56
388.775
300.974
300.89
300.844
300.958
301.251
301.72
302.32
302.775
301.05
300.777
300.645
300.711
300.992
301.504
302.23
302.836
301.315
300.949
300.756
300.769
301.005
301.491
302.219
302.846
301.598
301.191
300.968
300.943
301.133
301.557
302.203
302.741
301.853
301.456
301.231
301.191
301.342
301.68
302.173
302.529
302.078
301.711
301.487
301.431
301.538
301.779
302.092
302.244
302.402
302.201
301.972
301.85
301.851
301.931
302.037
302.029
763.673
760.337
759.564
759.061
758.7
758.504
758.462
758.513
768.331
763.55
760.776
759.706
759.109
758.823
758.805
758.912
768.987
764.584
761.214
760.067
759.446
759.128
759.062
759.212
767.486
763.387
760.916
759.959
759.391
759.087
759.021
759.126
763.687
760.895
759.919
759.384
759.026
758.822
758.796
758.87
760.325
759.554
759.189
758.878
758.646
758.521
758.553
758.565
759.41
759.114
758.866
758.605
758.402
758.329
758.282
758.326
664.979
664.157
664.582
664.766
664.88
664.987
665.087
665.184
664.907
664.831
664.819
664.99
665.081
665.166
665.274
665.402
662.662
664.783
664.755
665.081
665.246
665.33
665.427
665.573
664.925
664.98
665.111
665.287
665.372
665.406
665.473
665.586
665.431
664.705
665.099
665.291
665.361
665.408
665.475
665.57
664.599
664.913
665.197
665.293
665.339
665.393
665.446
665.498
665.157
665.278
665.312
665.325
665.34
665.411
665.406
665.459
568.578
569.309
570.256
570.923
571.406
571.744
571.977
572.132
566.537
569.401
569.848
570.708
571.223
571.558
571.802
571.998
568.322
568.401
569.308
570.396
570.987
571.359
571.686
571.872
568.087
569.16
569.875
570.697
571.157
571.471
571.717
571.929
569.596
569.622
570.529
571.103
571.474
571.746
571.954
572.155
569.788
570.53
571.15
571.529
571.817
572.053
572.196
572.34
570.941
571.3
571.574
571.847
572.073
572.273
572.38
572.492
479.328
478.39
478.822
479.241
479.574
479.82
480.025
480.19
479.39
478.979
478.408
478.865
479.168
479.406
479.675
479.911
480.332
478.659
477.91
478.433
478.778
479.079
479.458
479.71
479.886
478.746
478.164
478.592
478.896
479.178
479.48
479.768
479.387
478.326
478.629
479.001
479.294
479.549
479.796
480.059
478.477
478.708
479.158
479.491
479.745
479.948
480.121
480.272
479.146
479.41
479.692
479.935
480.122
480.271
480.393
480.489
393.846
390.564
389.576
388.971
388.538
388.343
388.464
388.689
397.578
393.494
390.326
389.2
388.502
388.186
388.329
388.61
398.965
393.856
390.379
389.113
388.381
388.073
388.23
388.573
397.5
393.37
390.231
389.09
388.436
388.159
388.312
388.644
393.879
390.729
389.452
388.844
388.455
388.303
388.481
388.756
390.266
389.33
388.973
388.683
388.464
388.409
388.599
388.831
389.336
389.031
388.823
388.6
388.441
388.446
388.673
388.902
307.872
304.211
302.58
301.065
299.712
298.534
297.635
297.253
311.693
307.332
303.608
301.472
299.699
298.211
297.148
296.733
313.864
308.781
304.16
301.822
299.921
298.305
297.101
296.659
312.681
307.632
303.884
301.833
300.109
298.599
297.433
296.976
307.95
304.438
302.721
301.399
300.152
298.986
298.05
297.583
304.094
302.877
302.052
301.194
300.341
299.529
298.863
298.443
303.04
302.493
301.921
301.308
300.736
300.226
299.831
299.508
759.32
758.842
758.481
758.244
758.106
758.052
758.048
758.078
759.154
758.635
758.284
758.073
757.946
757.885
757.883
757.915
758.865
758.416
758.106
757.907
757.784
757.726
757.729
757.767
758.591
758.21
757.94
757.76
757.651
757.605
757.618
757.657
758.312
758
757.779
757.632
757.549
757.565
757.544
757.576
758.023
757.786
757.616
757.506
757.446
757.429
757.442
757.516
757.734
757.568
757.465
757.407
757.382
757.387
757.422
757.477
665.013
665.045
665.122
665.189
665.241
665.294
665.336
665.374
665.301
665.299
665.29
665.281
665.277
665.291
665.323
665.361
665.391
665.327
665.272
665.24
665.225
665.234
665.268
665.314
665.369
665.288
665.226
665.187
665.174
665.186
665.221
665.268
665.301
665.217
665.166
665.137
665.13
665.19
665.178
665.219
665.211
665.138
665.104
665.09
665.09
665.108
665.153
665.2
665.111
665.062
665.051
665.054
665.066
665.094
665.151
665.179
570.884
571.279
571.67
571.972
572.195
572.368
572.495
572.579
571.315
571.734
572.031
572.224
572.369
572.498
572.614
572.704
571.59
571.887
572.104
572.27
572.408
572.532
572.661
572.76
571.73
571.969
572.154
572.3
572.432
572.561
572.682
572.787
571.847
572.034
572.196
572.324
572.439
572.599
572.678
572.78
571.964
572.093
572.224
572.34
572.449
572.565
572.696
572.798
572.056
572.147
572.248
572.347
572.443
572.562
572.666
572.756
479.409
479.704
479.971
480.181
480.345
480.479
480.59
480.668
479.586
479.921
480.176
480.356
480.496
480.614
480.719
480.802
479.764
480.05
480.275
480.442
480.577
480.689
480.802
480.873
479.909
480.172
480.372
480.528
480.656
480.789
480.886
480.95
480.094
480.314
480.492
480.635
480.753
480.902
480.942
481.013
480.306
480.486
480.64
480.77
480.888
480.989
481.078
481.141
480.526
480.669
480.792
480.903
481.005
481.113
481.164
481.219
389.571
389.206
388.86
388.602
388.465
388.509
388.764
388.992
389.332
388.967
388.701
388.518
388.424
388.485
388.753
388.982
389.122
388.825
388.6
388.426
388.333
388.394
388.679
388.894
388.885
388.614
388.396
388.228
388.137
388.232
388.528
388.747
388.613
388.345
388.122
387.954
387.872
388.001
388.262
388.504
388.298
388.044
387.832
387.677
387.621
387.738
388.071
388.325
387.936
387.695
387.5
387.363
387.329
387.468
387.802
388.058
303.358
302.764
302.128
301.609
301.208
300.878
300.605
300.355
302.804
302.115
301.604
301.255
301.011
300.818
300.647
300.457
302.401
301.809
301.391
301.116
300.96
300.888
300.855
300.762
301.953
301.434
301.075
300.874
300.814
300.904
301.043
301.089
301.523
301.09
300.795
300.679
300.734
300.988
301.29
301.502
301.157
300.85
300.66
300.651
300.836
301.203
301.712
302.081
300.97
300.837
300.772
300.86
301.125
301.56
302.119
302.52
758.408
758.217
758.032
757.878
757.777
757.717
757.708
757.745
758.81
758.495
758.238
758.046
757.929
757.831
757.817
757.844
759.376
758.909
758.546
758.382
758.103
757.986
757.951
757.98
760.485
759.407
758.888
758.514
758.266
758.13
758.094
758.135
762.483
760.059
759.222
758.717
758.408
758.233
758.236
758.278
763.364
760.588
759.443
758.842
758.492
758.325
758.31
758.367
762.675
760.094
759.377
758.877
758.567
758.412
758.348
758.376
665.401
665.356
665.307
665.278
665.262
665.253
665.263
665.284
665.444
665.391
665.355
665.339
665.307
665.284
665.283
665.3
665.482
665.481
665.436
665.509
665.352
665.33
665.321
665.35
665.552
665.45
665.452
665.397
665.349
665.321
665.327
665.368
666.14
665.352
665.373
665.334
665.314
665.281
665.341
665.374
665.59
664.996
665.108
665.155
665.168
665.191
665.258
665.308
664.38
663.952
664.486
664.753
664.908
665.033
665.098
665.162
571.94
572.099
572.234
572.371
572.489
572.591
572.675
572.737
571.622
571.868
572.094
572.321
572.421
572.531
572.62
572.682
571.167
571.62
571.945
572.259
572.325
572.454
572.549
572.641
570.492
571.11
571.642
571.949
572.156
572.308
572.448
572.54
570.244
570.545
571.305
571.694
571.948
572.143
572.344
572.434
569.061
569.999
571.01
571.52
571.823
572.034
572.212
572.316
568.237
569.025
570.275
570.993
571.495
571.838
572.036
572.162
480.232
480.44
480.592
480.723
480.823
480.899
480.949
480.992
479.875
480.13
480.352
480.555
480.649
480.744
480.821
480.871
479.45
479.815
480.13
480.381
480.468
480.588
480.683
480.764
479.187
479.407
479.817
480.065
480.248
480.391
480.533
480.639
479.877
479.192
479.621
479.86
480.031
480.197
480.413
480.531
479.451
479.063
479.497
479.766
479.938
480.099
480.287
480.42
478.852
478.33
479.014
479.411
479.732
479.972
480.148
480.286
388.782
388.667
388.531
388.408
388.352
388.44
388.706
388.923
389.137
388.97
388.814
388.67
388.585
388.628
388.873
389.076
389.456
389.233
389.135
388.897
388.765
388.767
388.982
389.188
390.45
389.554
389.274
389.016
388.832
388.801
388.999
389.226
392.708
390.201
389.544
389.107
388.817
388.724
388.97
389.191
393.017
390.56
389.648
389.102
388.738
388.618
388.824
389.062
392.81
390.342
389.636
389.056
388.686
388.536
388.659
388.876
302.329
302.124
301.886
301.701
301.601
301.566
301.546
301.433
302.792
302.363
301.93
301.572
301.311
301.071
300.867
300.63
303.341
302.761
302.247
301.623
301.144
300.691
300.271
299.908
304.585
303.295
302.489
301.723
301.017
300.355
299.742
299.295
307.128
304.136
302.827
301.762
300.825
299.972
299.284
298.801
307.961
304.531
302.782
301.526
300.453
299.504
298.764
298.338
306.918
303.983
302.679
301.375
300.211
299.15
298.325
297.947
735.752
735.825
735.945
736.078
736.188
736.265
736.311
736.334
735.723
735.794
735.912
736.044
736.151
736.225
736.266
736.28
735.689
735.759
735.878
736.009
736.116
736.189
736.228
736.242
735.647
735.72
735.839
735.969
736.074
736.145
736.184
736.197
735.607
735.685
735.803
735.93
736.032
736.103
736.142
736.156
735.572
735.654
735.768
735.889
735.988
736.056
736.094
736.109
735.545
735.626
735.732
735.845
735.937
736.001
736.037
736.054
638.032
638.19
638.423
638.661
638.842
638.949
638.989
638.986
637.992
638.149
638.382
638.619
638.797
638.901
638.934
638.92
637.95
638.107
638.342
638.579
638.756
638.86
638.893
638.877
637.903
638.064
638.299
638.534
638.71
638.813
638.846
638.831
637.862
638.028
638.262
638.493
638.665
638.766
638.8
638.79
637.834
638.003
638.229
638.452
638.618
638.715
638.751
638.744
637.816
637.978
638.188
638.397
638.551
638.64
638.671
638.662
539.921
540.284
540.772
541.22
541.523
541.666
541.672
541.612
539.87
540.23
540.72
541.169
541.476
541.621
541.629
541.561
539.822
540.179
540.673
541.122
541.428
541.574
541.584
541.516
539.774
540.132
540.628
541.074
541.376
541.521
541.534
541.471
539.736
540.101
540.592
541.031
541.326
541.47
541.491
541.442
539.711
540.08
540.558
540.988
541.278
541.421
541.449
541.41
539.694
540.051
540.506
540.92
541.197
541.328
541.348
541.306
441.254
442.179
443.141
443.939
444.415
444.575
444.488
444.276
441.179
442.099
443.07
443.878
444.372
444.556
444.501
444.32
441.113
442.034
443.01
443.816
444.305
444.488
444.442
444.286
441.061
441.991
442.961
443.757
444.236
444.415
444.375
444.239
441.021
441.965
442.924
443.705
444.172
444.346
444.315
444.207
440.983
441.923
442.88
443.66
444.131
444.32
444.316
444.236
440.923
441.834
442.786
443.558
444.016
444.186
444.168
444.084
342.306
344.391
346.043
347.338
348.047
348.167
347.778
347.442
342.211
344.3
345.942
347.245
347.981
348.153
347.844
347.582
342.102
344.215
345.86
347.146
347.85
347.977
347.632
347.3
341.971
344.112
345.768
347.042
347.724
347.822
347.475
347.139
341.858
343.991
345.675
346.948
347.606
347.672
347.321
346.999
341.771
343.815
345.555
346.874
347.564
347.672
347.414
347.349
341.704
343.554
345.346
346.707
347.4
347.476
347.172
347.019
229.446
243.735
249.579
252.319
253.319
253.164
252.786
254.62
229.104
243.594
249.383
252.082
253.071
252.933
252.513
254.12
228.763
243.423
249.275
251.966
252.878
252.674
252.23
252.98
228.543
243.164
249.102
251.813
252.684
252.43
252.037
252.747
228.561
242.838
248.897
251.662
252.502
252.181
251.789
252.376
228.923
242.395
248.606
251.526
252.413
252.075
251.741
252.392
229.531
241.697
248.082
251.286
252.274
251.889
251.552
252.232
735.614
735.593
735.629
735.697
735.757
735.797
735.816
735.82
735.61
735.584
735.617
735.687
735.752
735.798
735.823
735.831
735.605
735.58
735.615
735.69
735.76
735.814
735.846
735.862
735.605
735.586
735.628
735.709
735.786
735.846
735.885
735.908
735.608
735.602
735.656
735.743
735.825
735.891
735.936
735.966
735.616
735.626
735.689
735.781
735.865
735.93
735.975
736.005
735.631
735.658
735.731
735.825
735.91
735.974
736.016
736.045
638.006
637.965
638.031
638.178
638.303
638.375
638.39
638.368
637.981
637.935
637.999
638.15
638.286
638.37
638.397
638.383
637.951
637.913
637.982
638.142
638.288
638.385
638.424
638.421
637.935
637.91
637.992
638.163
638.319
638.425
638.472
638.478
637.928
637.925
638.027
638.207
638.372
638.486
638.541
638.557
637.926
637.949
638.074
638.26
638.423
638.532
638.583
638.599
637.933
637.981
638.126
638.316
638.474
638.576
638.62
638.635
540.099
539.972
540.173
540.526
540.808
540.941
540.935
540.857
540.073
539.914
540.107
540.469
540.768
540.923
540.935
540.87
540.037
539.875
540.075
540.446
540.757
540.926
540.952
540.899
540.002
539.866
540.089
540.47
540.791
540.969
541.003
540.957
539.959
539.884
540.148
540.542
540.87
541.057
541.104
541.076
539.905
539.914
540.229
540.627
540.943
541.114
541.149
541.12
539.851
539.943
540.301
540.7
541
541.153
541.176
541.145
440.486
440.878
441.758
442.693
443.33
443.566
443.486
443.284
440.237
440.637
441.555
442.542
443.228
443.508
443.463
443.289
440.047
440.482
441.449
442.469
443.18
443.478
443.441
443.267
440.004
440.48
441.478
442.507
443.222
443.523
443.483
443.278
440.088
440.618
441.642
442.657
443.36
443.668
443.638
443.415
440.225
440.825
441.879
442.849
443.49
443.746
443.68
443.416
440.378
441.037
442.067
442.983
443.559
443.764
443.669
443.395
341.695
341.933
343.674
345.35
346.463
346.742
346.244
345.387
341.487
341.676
343.372
345.091
346.27
346.615
346.186
345.357
341.33
341.531
343.238
344.987
346.188
346.548
346.126
345.303
341.284
341.615
343.336
345.085
346.278
346.646
346.234
345.344
341.295
341.801
343.6
345.345
346.507
346.882
346.525
345.73
341.326
342.001
343.912
345.645
346.705
346.973
346.531
345.811
341.313
342.165
344.113
345.787
346.746
346.924
346.441
345.921
233.633
232.974
242.006
248.255
251.568
251.888
250.341
250.624
232.983
232.207
241.255
247.642
251.134
251.588
250.087
250.271
232.671
232.052
241.04
247.45
250.974
251.489
250.009
250.049
232.693
232.457
241.44
247.737
251.143
251.687
250.406
250.889
232.757
233.591
242.372
248.369
251.46
251.97
250.94
252.248
232.327
235.392
243.566
249.153
251.77
251.969
250.938
252.864
231.839
236.745
244.432
249.532
251.694
251.688
250.89
253.183
735.658
735.699
735.779
735.876
735.96
736.022
736.062
736.089
735.698
735.758
735.843
735.944
736.028
736.087
736.125
736.15
735.738
735.814
735.905
736.014
736.102
736.163
736.201
736.226
735.762
735.839
735.94
736.056
736.149
736.214
736.253
736.277
735.773
735.849
735.961
736.084
736.182
736.251
736.293
736.318
735.776
735.854
735.969
736.094
736.194
736.263
736.304
736.328
735.768
735.846
735.962
736.089
736.191
736.261
736.301
736.321
637.956
638.031
638.189
638.382
638.536
638.631
638.672
638.685
638
638.103
638.276
638.475
638.627
638.717
638.755
638.766
638.046
638.172
638.361
638.571
638.728
638.822
638.86
638.87
638.069
638.209
638.411
638.628
638.791
638.886
638.924
638.93
638.075
638.221
638.438
638.661
638.828
638.926
638.965
638.972
638.072
638.225
638.446
638.67
638.836
638.93
638.963
638.962
638.059
638.216
638.443
638.671
638.84
638.936
638.968
638.962
539.844
540.01
540.391
540.794
541.081
541.22
541.241
541.216
539.881
540.11
540.522
540.932
541.212
541.341
541.357
541.335
539.924
540.206
540.647
541.073
541.361
541.496
541.516
541.496
539.944
540.263
540.722
541.153
541.444
541.58
541.596
541.567
539.956
540.293
540.762
541.195
541.485
541.619
541.633
541.6
539.963
540.306
540.777
541.205
541.486
541.605
541.599
541.543
539.955
540.308
540.785
541.219
541.503
541.623
541.609
541.537
440.568
441.296
442.3
443.166
443.684
443.851
443.765
443.55
440.79
441.587
442.582
443.414
443.895
444.037
443.953
443.786
440.975
441.842
442.829
443.652
444.135
444.291
444.235
444.13
441.099
441.989
442.969
443.779
444.255
444.412
444.355
444.249
441.167
442.073
443.04
443.835
444.299
444.446
444.371
444.227
441.216
442.124
443.076
443.854
444.293
444.406
444.286
444.064
441.261
442.171
443.124
443.905
444.35
444.464
444.329
444.07
341.521
342.571
344.504
346.081
346.919
347.008
346.513
346.158
341.789
343.08
344.983
346.471
347.204
347.182
346.666
346.451
341.976
343.512
345.381
346.821
347.533
347.528
347.003
346.881
342.053
343.787
345.594
346.986
347.686
347.705
347.181
347.023
342.114
343.959
345.701
347.047
347.726
347.738
347.254
347.095
342.225
344.102
345.788
347.098
347.751
347.733
347.246
347.083
342.325
344.284
345.944
347.245
347.917
347.946
347.463
347.211
231.696
238.517
245.715
250.236
251.87
251.446
251.166
253.161
231.387
240.15
247.015
250.995
252.272
251.643
251.53
253.467
230.744
241.318
247.983
251.558
252.661
252.121
251.947
253.822
230.122
242.021
248.477
251.763
252.782
252.38
252.134
253.989
229.815
242.49
248.719
251.808
252.788
252.41
252.226
254.132
229.847
242.943
248.956
251.923
252.916
252.539
252.417
254.271
229.825
243.463
249.351
252.218
253.263
252.989
252.799
254.629
735.523
735.596
735.691
735.792
735.872
735.923
735.948
735.953
735.511
735.574
735.659
735.752
735.824
735.87
735.893
735.899
735.516
735.569
735.645
735.73
735.796
735.837
735.854
735.856
735.533
735.574
735.642
735.72
735.779
735.815
735.828
735.827
735.561
735.589
735.649
735.721
735.778
735.811
735.821
735.817
735.589
735.601
735.651
735.719
735.774
735.806
735.818
735.815
735.609
735.604
735.646
735.713
735.769
735.805
735.819
735.82
637.807
637.95
638.14
638.335
638.477
638.554
638.576
638.562
637.808
637.926
638.096
638.277
638.407
638.474
638.488
638.467
637.83
637.926
638.081
638.252
638.375
638.438
638.446
638.421
637.871
637.941
638.077
638.237
638.353
638.409
638.41
638.379
637.931
637.974
638.093
638.243
638.356
638.409
638.407
638.371
637.985
637.992
638.09
638.232
638.344
638.399
638.399
638.365
638.015
637.994
638.071
638.215
638.333
638.396
638.402
638.373
539.688
540.006
540.435
540.831
541.093
541.209
541.216
541.168
539.693
539.964
540.362
540.739
540.986
541.089
541.082
541.021
539.74
539.959
540.331
540.699
540.941
541.038
541.02
540.944
539.829
539.985
540.322
540.676
540.913
541.003
540.973
540.885
539.951
540.025
540.336
540.681
540.922
541.014
540.978
540.877
540.055
540.048
540.306
540.646
540.893
540.992
540.959
540.862
540.107
540.034
540.258
540.604
540.869
540.984
540.961
540.869
440.85
441.722
442.661
443.423
443.864
444.011
443.969
443.874
440.757
441.587
442.507
443.262
443.691
443.817
443.75
443.626
440.707
441.463
442.396
443.172
443.614
443.737
443.644
443.474
440.704
441.387
442.319
443.115
443.574
443.696
443.577
443.355
440.743
441.335
442.27
443.095
443.59
443.729
443.602
443.37
440.754
441.255
442.148
442.993
443.524
443.683
443.564
443.336
440.684
441.116
441.987
442.876
443.462
443.66
443.554
443.331
341.745
343.353
345.164
346.533
347.207
347.229
346.889
346.699
341.734
343.089
344.912
346.301
346.976
346.986
346.616
346.348
341.68
342.82
344.695
346.16
346.896
346.945
346.527
346.089
341.729
342.665
344.567
346.099
346.896
346.973
346.504
345.912
341.876
342.583
344.474
346.068
346.952
347.065
346.527
345.768
341.954
342.446
344.294
345.898
346.841
346.997
346.439
345.62
341.914
342.232
344.04
345.684
346.718
346.939
346.392
345.522
230.492
241.16
247.681
251.122
252.151
251.648
251.368
252.297
231.309
240.375
247.03
250.769
251.871
251.283
250.93
252.095
231.801
239.242
246.235
250.456
251.802
251.279
250.756
252.075
232.361
238.022
245.516
250.288
252.003
251.652
250.965
252.21
233.033
236.775
244.812
250.135
252.383
252.33
251.342
251.951
233.813
235.262
243.948
249.675
252.318
252.406
251.225
251.763
233.99
234.038
243.01
249.065
252.126
252.395
250.995
251.364
833.816
833.74
833.828
736.351
736.362
736.375
736.397
736.437
736.5
736.587
736.685
736.287
736.289
736.293
736.308
736.341
736.401
736.491
736.612
736.246
736.246
736.248
736.26
736.29
736.349
736.439
736.555
736.201
736.201
736.201
736.21
736.238
736.295
736.387
736.502
736.162
736.162
736.161
736.167
736.192
736.248
736.338
736.463
736.115
736.115
736.116
736.124
736.151
736.208
736.303
736.434
736.066
736.071
736.079
736.094
736.127
736.189
736.282
736.416
638.987
638.985
638.987
639.006
639.057
639.139
639.237
639.334
638.903
638.888
638.872
638.864
638.914
638.997
639.098
639.224
638.856
638.835
638.813
638.802
638.84
638.918
639.019
639.143
638.809
638.787
638.766
638.753
638.774
638.842
638.947
639.071
638.772
638.752
638.731
638.717
638.736
638.808
638.943
639.059
638.726
638.705
638.682
638.667
638.676
638.736
638.85
638.992
638.646
638.629
638.612
638.6
638.608
638.67
638.778
638.936
541.583
541.566
541.537
541.548
541.641
541.777
541.896
541.969
541.521
541.5
541.482
541.588
541.56
541.731
541.968
541.966
541.47
541.439
541.405
541.441
541.414
541.545
541.841
541.852
541.426
541.396
541.362
541.371
541.377
541.43
541.713
541.76
541.405
541.386
541.371
541.377
541.429
541.531
541.805
541.866
541.365
541.337
541.317
541.31
541.355
541.417
541.714
541.744
541.267
541.251
541.249
541.252
541.287
541.331
541.652
541.694
444.249
444.333
444.431
444.826
444.54
444.591
444.706
444.786
444.237
444.366
444.661
444.816
444.892
444.789
444.947
445.028
444.199
444.311
444.567
444.69
444.961
444.807
444.847
444.905
444.155
444.259
444.514
444.685
444.75
445.03
444.742
444.798
444.138
444.197
444.393
444.704
445.043
445.009
444.966
445.025
444.162
444.133
444.268
444.557
444.716
444.876
444.705
444.776
444.025
444.024
444.247
444.567
444.668
445.016
444.714
444.828
347.911
348.488
348.902
348.985
348.634
348.462
348.478
348.55
348.435
349.209
349.237
349.534
349.294
348.909
348.902
348.818
347.97
349.06
349.065
349.394
349.052
348.908
348.694
348.631
347.681
348.865
348.856
349.271
348.876
349.047
348.57
348.54
347.284
348.208
348.641
349.459
349.204
348.93
348.753
348.81
347.521
348.138
348.976
348.77
348.767
348.474
348.218
348.163
347.172
348.235
348.389
349.1
348.882
349.099
348.629
348.611
255.382
255.425
256.349
256.463
255.291
255.339
255.401
255.259
255.37
255.242
256.296
255.96
255.455
255.303
255.407
255.184
254.885
254.835
255.641
255.918
255.22
255.1
255.082
254.954
254.75
254.877
255.491
255.853
255.07
254.9
254.994
254.904
254.21
254.902
255.086
255.817
255.319
255.208
255.398
255.281
253.902
255.245
254.922
255.559
254.831
254.641
254.705
254.73
254.53
254.865
255.087
255.627
254.927
254.838
254.873
255.003
735.826
735.829
735.837
735.856
735.893
735.955
736.043
736.142
735.839
735.844
735.852
735.872
735.909
735.971
736.06
736.161
735.876
735.886
735.9
735.924
735.965
736.029
736.117
736.218
735.929
735.945
735.965
735.994
736.037
736.101
736.189
736.289
735.994
736.015
736.038
736.069
736.113
736.178
736.265
736.366
736.036
736.058
736.083
736.116
736.16
736.225
736.313
736.413
736.076
736.099
736.124
736.156
736.201
736.266
736.354
736.455
638.358
638.348
638.341
638.348
638.388
638.474
638.58
638.678
638.376
638.368
638.361
638.367
638.405
638.49
638.598
638.7
638.422
638.42
638.421
638.439
638.489
638.574
638.679
638.783
638.492
638.502
638.516
638.547
638.6
638.68
638.782
638.886
638.584
638.603
638.625
638.659
638.71
638.785
638.883
638.987
638.631
638.656
638.683
638.721
638.774
638.849
638.946
639.048
638.666
638.692
638.72
638.759
638.813
638.888
638.983
639.086
540.827
540.814
540.813
540.819
540.907
540.999
541.123
541.192
540.845
540.832
540.828
540.825
540.914
541.003
541.134
541.209
540.88
540.873
540.872
540.9
540.969
541.096
541.216
541.301
540.962
540.974
540.993
541.024
541.107
541.237
541.354
541.442
541.103
541.128
541.157
541.186
541.269
541.382
541.489
541.573
541.159
541.196
541.236
541.274
541.361
541.471
541.574
541.654
541.185
541.224
541.272
541.319
541.408
541.513
541.611
541.689
443.219
443.307
443.496
443.666
443.934
443.715
443.791
443.87
443.23
443.314
443.5
443.64
444.005
443.698
443.777
443.868
443.199
443.251
443.415
443.712
443.753
443.73
443.808
443.916
443.231
443.369
443.56
443.858
443.826
443.895
443.998
444.095
443.451
443.637
443.797
444.04
443.985
444.069
444.165
444.236
443.518
443.739
443.896
444.124
444.1
444.196
444.296
444.347
443.527
443.735
443.857
444.069
444.115
444.214
444.318
444.36
345.685
346.36
347.038
347.541
347.611
347.325
347.216
347.348
345.577
346.21
346.807
347.439
347.539
347.176
347.039
347.203
345.349
345.971
346.565
347.359
347.397
347.018
346.951
347.123
345.809
346.264
346.781
347.436
347.502
347.122
347.114
347.258
346.354
346.709
347.025
347.596
347.612
347.261
347.261
347.353
346.494
346.922
347.116
347.78
347.7
347.481
347.504
347.557
346.47
346.976
347.272
347.762
347.617
347.535
347.582
347.595
252.12
252.309
252.935
254.624
254.306
253.825
254.15
254.059
252.12
252.169
252.958
254.306
254.292
253.313
253.719
253.604
252.192
252.046
252.727
254.489
254.267
253.581
253.765
253.748
252.625
252.631
253.134
254.891
254.419
253.814
253.809
253.893
253.025
253.109
253.877
255.05
254.422
253.765
253.733
253.816
253.194
253.426
254.237
255.283
254.391
254.005
254.038
254.059
253.389
253.33
254.171
255.224
254.066
253.925
254.073
254.031
736.116
736.138
736.161
736.193
736.238
736.302
736.39
736.491
736.176
736.195
736.217
736.247
736.29
736.354
736.441
736.541
736.248
736.264
736.282
736.309
736.351
736.415
736.503
736.604
736.298
736.312
736.33
736.356
736.398
736.461
736.55
736.652
736.34
736.355
736.373
736.399
736.439