/*--------------------------------*- C++ -*----------------------------------*\
| =========                 |                                                 |
| \\      /  F ield         | OpenFOAM: The Open Source CFD Toolbox           |
|  \\    /   O peration     | Version:  plus.master.MPPICInterFoam            |
|   \\  /    A nd           | Web:      www.OpenFOAM.com                      |
|    \\/     M anipulation  |                                                 |
\*---------------------------------------------------------------------------*/
FoamFile
{
    version     2.0;
    format      ascii;
    class       vectorField;
    location    "4.8/lagrangian/kinematicCloud";
    object      U;
}
// * * * * * * * * * * * * * * * * * * * * * * * * * * * * * * * * * * * * * //


28
(
(-0.00234916 0.00161389 0.287963)
(0.000482426 -7.32578e-05 0.279265)
(-0.00151456 0.000426248 0.309358)
(0.000180333 -0.000233914 0.280791)
(-0.00389327 0.00234443 0.294594)
(-0.00352007 -0.00105775 0.282941)
(-0.00405694 -0.00147448 0.296312)
(-0.00211825 -0.00332686 0.302677)
(-0.00383345 -0.00182029 0.290945)
(0.00381806 -0.000764744 0.316738)
(-0.000869167 -0.00320511 0.287689)
(-0.00522815 -0.00155382 0.285882)
(0.00372812 -0.000998116 0.313867)
(-0.00501121 -0.00159554 0.288527)
(-0.00419442 -0.00216414 0.287276)
(-0.00262176 0.00548783 0.292219)
(-0.0015667 -0.00190695 0.308014)
(-0.00109881 -0.00357887 0.305316)
(-0.005436 -0.00142384 0.283864)
(-0.000671792 -0.00621681 0.306012)
(0.00699072 -0.00224389 0.306821)
(-0.00740198 -0.00258418 0.281385)
(-0.00686919 -0.00177518 0.273271)
(0.00167593 -0.00890892 0.335343)
(0.00321138 -0.00772339 0.333359)
(-0.0024493 0.00232675 0.357104)
(0.0136328 0.00428632 0.341243)
(-0.0115278 0.00285559 0.359425)
)


// ************************************************************************* //
