/*--------------------------------*- C++ -*----------------------------------*\
| =========                 |                                                 |
| \\      /  F ield         | OpenFOAM: The Open Source CFD Toolbox           |
|  \\    /   O peration     | Version:  plus.master.MPPICInterFoam            |
|   \\  /    A nd           | Web:      www.OpenFOAM.com                      |
|    \\/     M anipulation  |                                                 |
\*---------------------------------------------------------------------------*/
FoamFile
{
    version     2.0;
    format      ascii;
    class       vectorField;
    location    "4.8/lagrangian/kinematicCloud";
    object      UCorrect;
}
// * * * * * * * * * * * * * * * * * * * * * * * * * * * * * * * * * * * * * //


28
(
(4.08456e-16 -2.31765e-17 6.74284e-17)
(1.89585e-21 2.1773e-19 3.04742e-16)
(9.57886e-19 3.42779e-19 -1.1432e-48)
(-6.93911e-16 -6.59901e-16 -1.13948e-14)
(-4.21936e-19 -1.50994e-19 0)
(2.92994e-12 -1.27456e-14 9.75889e-10)
(1.28131e-10 -1.81172e-10 2.44108e-07)
(5.76514e-07 -4.27965e-08 5.87813e-07)
(-2.82041e-10 -1.21571e-10 3.15178e-07)
(-5.07864e-19 8.69134e-21 4.05721e-19)
(0.000491788 -7.3769e-05 8.4224e-11)
(-1.63436e-05 6.78272e-10 4.26497e-07)
(-4.95504e-19 2.23219e-19 -3.02568e-19)
(-0.000496243 6.78272e-10 1.43251e-16)
(-2.8968e-10 -4.31551e-11 -3.15178e-07)
(-2.59696e-19 9.22792e-19 -1.99848e-19)
(5.43776e-05 0.00101198 8.4224e-11)
(5.03434e-07 -3.5774e-08 -5.87814e-07)
(1.42292e-10 -3.6642e-10 -6.39917e-08)
(2.47696e-10 -3.42314e-11 -1.55245e-07)
(1.067e-18 6.1038e-19 -2.19144e-19)
(-7.00922e-20 2.46269e-19 -5.42381e-17)
(-3.67352e-18 -4.66291e-19 -9.83337e-17)
(-4.35443e-19 5.3187e-19 5.90871e-19)
(7.59967e-20 -1.00642e-18 9.52723e-21)
(-4.2009e-19 -5.26114e-19 -1.95083e-19)
(6.68068e-19 -2.16459e-19 -2.12613e-19)
(-5.9705e-19 4.36301e-19 6.93573e-21)
)


// ************************************************************************* //
