/*--------------------------------*- C++ -*----------------------------------*\
| =========                 |                                                 |
| \\      /  F ield         | OpenFOAM: The Open Source CFD Toolbox           |
|  \\    /   O peration     | Version:  plus.master.MPPICInterFoam            |
|   \\  /    A nd           | Web:      www.OpenFOAM.com                      |
|    \\/     M anipulation  |                                                 |
\*---------------------------------------------------------------------------*/
FoamFile
{
    version     2.0;
    format      ascii;
    class       surfaceScalarField;
    location    "5.6";
    object      alphaPhi;
}
// * * * * * * * * * * * * * * * * * * * * * * * * * * * * * * * * * * * * * //

dimensions      [0 3 -1 0 0 0 0];

internalField   nonuniform List<scalar> 
34004
(
1.29415e-08
8.6053e-08
-1.67594e-06
-1.06118e-07
2.32494e-08
7.83205e-08
-2.06528e-06
-9.66378e-08
3.12844e-08
7.37669e-08
-2.38272e-06
-9.1239e-08
3.7254e-08
7.05455e-08
-2.69187e-06
-8.74825e-08
4.116e-08
6.77426e-08
-3.00462e-06
-8.42648e-08
4.29534e-08
6.51318e-08
-3.32438e-06
-8.12946e-08
4.25834e-08
6.2668e-08
-3.65205e-06
-7.84987e-08
6.0354e-08
-3.98683e-06
-7.58982e-08
4.00412e-08
1.75606e-08
5.72672e-08
-1.69259e-06
3.09523e-08
5.2247e-08
-2.08455e-06
4.10222e-08
4.9142e-08
-2.40483e-06
4.82256e-08
4.69148e-08
-2.71681e-06
5.27127e-08
4.49574e-08
-3.03244e-06
5.45603e-08
4.31315e-08
-3.35512e-06
5.38227e-08
4.14217e-08
-3.68578e-06
3.9856e-08
-4.02365e-06
5.05142e-08
1.91898e-08
2.42165e-08
-1.70392e-06
3.35957e-08
2.21148e-08
-2.09776e-06
4.40845e-08
2.08274e-08
-2.41978e-06
5.12527e-08
1.98987e-08
-2.73341e-06
5.53783e-08
1.90483e-08
-3.05061e-06
5.66598e-08
1.82255e-08
-3.37478e-06
5.52613e-08
1.74404e-08
-3.70686e-06
1.67148e-08
-4.0461e-06
5.1315e-08
1.99699e-08
-1.11253e-08
-1.70994e-06
3.47811e-08
-1.01762e-08
-2.10482e-06
4.5462e-08
-9.53538e-09
-2.42773e-06
5.27048e-08
-9.1001e-09
-2.7422e-06
5.68448e-08
-8.78268e-09
-3.06019e-06
5.81174e-08
-8.53125e-09
-3.38513e-06
5.67065e-08
-8.30464e-09
-3.71798e-06
-8.06872e-09
-4.058e-06
5.27299e-08
1.86478e-08
-4.57492e-08
-1.71014e-06
3.22918e-08
-4.20185e-08
-2.10515e-06
4.19887e-08
-3.96702e-08
-2.42795e-06
4.84693e-08
-3.81152e-08
-2.74222e-06
5.21056e-08
-3.68993e-08
-3.05994e-06
5.31568e-08
-3.58602e-08
-3.38454e-06
5.18091e-08
-3.49113e-08
-3.71699e-06
-3.4012e-08
-4.05657e-06
4.81817e-08
1.6485e-08
-7.81668e-08
-1.70537e-06
2.81934e-08
-7.18136e-08
-2.0995e-06
3.65081e-08
-6.8231e-08
-2.42127e-06
4.21758e-08
-6.60389e-08
-2.73447e-06
4.5558e-08
-6.43877e-08
-3.05104e-06
4.68779e-08
-6.29788e-08
-3.37445e-06
4.62534e-08
-6.16521e-08
-3.70567e-06
-6.03014e-08
-4.04405e-06
4.36714e-08
9.39879e-09
-1.69434e-06
-1.02527e-07
1.52637e-08
-2.08682e-06
-9.46585e-08
1.876e-08
-2.40616e-06
-9.06494e-08
2.06663e-08
-2.71662e-06
-8.86515e-08
2.14218e-08
-3.0301e-06
-8.74643e-08
2.13731e-08
-3.35003e-06
-8.67045e-08
2.06945e-08
-3.67746e-06
-8.60745e-08
-4.01174e-06
-8.54566e-08
1.94743e-08
1.06649e-08
6.91078e-08
-1.67043e-06
-8.52853e-08
1.91826e-08
6.28551e-08
-2.05906e-06
-7.76216e-08
2.58396e-08
5.93164e-08
-2.37539e-06
-7.3334e-08
3.07996e-08
5.68928e-08
-2.68332e-06
-7.04226e-08
3.40638e-08
5.48375e-08
-2.99476e-06
-6.79923e-08
3.55909e-08
5.29498e-08
-3.31309e-06
-6.57919e-08
3.53329e-08
5.11758e-08
-3.63926e-06
-6.37426e-08
4.95028e-08
-3.97247e-06
-6.1843e-08
3.32701e-08
1.482e-08
4.55818e-08
-1.68391e-06
2.62531e-08
4.15486e-08
-2.07471e-06
3.49822e-08
3.91936e-08
-2.39346e-06
4.13503e-08
3.75677e-08
-2.70388e-06
4.54461e-08
3.61732e-08
-3.0179e-06
4.72916e-08
3.48848e-08
-3.33893e-06
4.68876e-08
3.36781e-08
-3.66791e-06
3.25669e-08
-4.00407e-06
4.42026e-08
1.65242e-08
1.82334e-08
-1.69311e-06
2.91254e-08
1.66373e-08
-2.08548e-06
3.85009e-08
1.57644e-08
-2.40575e-06
4.50997e-08
1.5178e-08
-2.71765e-06
4.90977e-08
1.46533e-08
-3.03312e-06
5.06e-08
1.41425e-08
-3.35557e-06
4.96847e-08
1.36477e-08
-3.68595e-06
1.31822e-08
-4.02349e-06
4.64101e-08
1.74301e-08
-1.12525e-08
-1.6979e-06
3.05958e-08
-1.02571e-08
-2.09112e-06
4.03316e-08
-9.55482e-09
-2.41217e-06
4.71611e-08
-9.05019e-09
-2.72482e-06
5.12989e-08
-8.65763e-09
-3.04104e-06
5.28721e-08
-8.33364e-09
-3.36426e-06
5.19681e-08
-8.04484e-09
-3.69541e-06
-7.76257e-09
-4.03375e-06
4.86289e-08
1.63774e-08
-4.00937e-08
-1.69769e-06
2.86257e-08
-3.67189e-08
-2.09096e-06
3.75806e-08
-3.46003e-08
-2.41188e-06
4.37904e-08
-3.31745e-08
-2.72433e-06
4.74994e-08
-3.20529e-08
-3.04029e-06
4.88569e-08
-3.10968e-08
-3.36317e-06
4.79588e-08
-3.02324e-08
-3.69394e-06
-2.94236e-08
-4.03186e-06
4.48572e-08
1.45393e-08
-6.68953e-08
-1.69313e-06
2.5169e-08
-6.128e-08
-2.0856e-06
3.29687e-08
-5.81161e-08
-2.40558e-06
3.84938e-08
-5.61417e-08
-2.71705e-06
4.19795e-08
-5.46463e-08
-3.03196e-06
4.35444e-08
-5.33755e-08
-3.35376e-06
4.32303e-08
-5.21964e-08
-3.68343e-06
-5.10169e-08
-4.02024e-06
4.0982e-08
8.56989e-09
-1.68323e-06
-8.65922e-08
1.43227e-08
-2.0742e-06
-7.96789e-08
1.80906e-08
-2.39201e-06
-7.60611e-08
2.04214e-08
-2.70102e-06
-7.40916e-08
2.16206e-08
-3.01315e-06
-7.28187e-08
2.19077e-08
-3.33182e-06
-7.19032e-08
2.13946e-08
-3.65805e-06
-7.11297e-08
-3.99114e-06
-7.03921e-08
2.01335e-08
8.87896e-09
5.54945e-08
-1.66602e-06
-6.8794e-08
1.59679e-08
5.03699e-08
-2.05406e-06
-6.24862e-08
2.15026e-08
4.75596e-08
-2.3695e-06
-5.9001e-08
2.56214e-08
4.56885e-08
-2.67648e-06
-5.66763e-08
2.83299e-08
4.41433e-08
-2.98686e-06
-5.47784e-08
2.95984e-08
4.27493e-08
-3.30405e-06
-5.30931e-08
2.93886e-08
4.14504e-08
-3.62899e-06
-5.15439e-08
4.0226e-08
-3.9609e-06
-5.01175e-08
2.76817e-08
1.24613e-08
3.61596e-08
-1.67705e-06
2.21459e-08
3.28791e-08
-2.06693e-06
2.96068e-08
3.1058e-08
-2.38444e-06
3.51127e-08
2.98473e-08
-2.69357e-06
3.87201e-08
2.88382e-08
-3.00623e-06
4.04257e-08
2.79198e-08
-3.32583e-06
4.02061e-08
2.70636e-08
-3.65333e-06
2.62738e-08
-3.98795e-06
3.80109e-08
1.40722e-08
1.35545e-08
-1.68459e-06
2.49147e-08
1.23261e-08
-2.0758e-06
3.30937e-08
1.1731e-08
-2.39463e-06
3.89576e-08
1.13679e-08
-2.70506e-06
4.26214e-08
1.10569e-08
-3.01902e-06
4.41369e-08
1.07545e-08
-3.33995e-06
4.35334e-08
1.04574e-08
-3.66877e-06
1.01732e-08
-4.00471e-06
4.08272e-08
1.49617e-08
-1.0905e-08
-1.68842e-06
2.64023e-08
-9.93191e-09
-2.08032e-06
3.50022e-08
-9.22988e-09
-2.39983e-06
4.11656e-08
-8.71052e-09
-2.71093e-06
4.50326e-08
-8.29339e-09
-3.02559e-06
4.66662e-08
-7.94225e-09
-3.34722e-06
4.60973e-08
-7.63016e-09
-3.67678e-06
-7.3333e-09
-4.0135e-06
4.33233e-08
1.41119e-08
-3.47616e-08
-1.68796e-06
2.48229e-08
-3.17542e-08
-2.07988e-06
3.27988e-08
-2.98692e-08
-2.39924e-06
3.84583e-08
-2.85846e-08
-2.71014e-06
4.1964e-08
-2.75686e-08
-3.02454e-06
4.33985e-08
-2.6704e-08
-3.34587e-06
4.28033e-08
-2.59283e-08
-3.67508e-06
-2.52097e-08
-4.0114e-06
4.01912e-08
1.25475e-08
-5.67529e-08
-1.6837e-06
2.19028e-08
-5.1838e-08
-2.07489e-06
2.89105e-08
-4.90636e-08
-2.39342e-06
3.39903e-08
-4.73043e-08
-2.70343e-06
3.72966e-08
-4.59651e-08
-3.0169e-06
3.88863e-08
-4.48323e-08
-3.33725e-06
3.87584e-08
-4.37952e-08
-3.66546e-06
-4.27748e-08
-4.00079e-06
3.68393e-08
7.60567e-09
-1.67496e-06
-7.26468e-08
1.29527e-08
-2.0648e-06
-6.66093e-08
1.66399e-08
-2.38141e-06
-6.33721e-08
1.90587e-08
-2.68927e-06
-6.14995e-08
2.04215e-08
-3.00028e-06
-6.02194e-08
2.087e-08
-3.31788e-06
-5.92486e-08
2.04749e-08
-3.64306e-06
-5.8421e-08
-3.97509e-06
-5.76497e-08
1.9268e-08
7.44694e-09
4.44267e-08
-1.66243e-06
-5.54777e-08
1.3383e-08
4.01667e-08
-2.04998e-06
-5.01995e-08
1.80041e-08
3.7887e-08
-2.36472e-06
-4.73094e-08
2.14317e-08
3.64037e-08
-2.67092e-06
-4.54054e-08
2.36771e-08
3.52117e-08
-2.98045e-06
-4.38815e-08
2.47216e-08
3.41598e-08
-3.29671e-06
-4.25552e-08
2.45377e-08
3.31934e-08
-3.62066e-06
-4.13551e-08
3.22879e-08
-3.95152e-06
-4.02614e-08
2.31101e-08
1.0445e-08
2.85122e-08
-1.67159e-06
1.86007e-08
2.58032e-08
-2.06074e-06
2.49146e-08
2.43629e-08
-2.37725e-06
2.96041e-08
2.34383e-08
-2.68531e-06
3.27092e-08
2.26931e-08
-2.99683e-06
3.42176e-08
2.20302e-08
-3.31523e-06
3.40978e-08
2.14193e-08
-3.64146e-06
2.08584e-08
-3.97474e-06
3.22958e-08
1.18781e-08
9.88868e-09
-1.67786e-06
2.10921e-08
8.92033e-09
-2.06814e-06
2.81039e-08
8.50542e-09
-2.3858e-06
3.31909e-08
8.28229e-09
-2.69501e-06
3.6432e-08
8.10625e-09
-3.0077e-06
3.78509e-08
7.93842e-09
-3.32729e-06
3.7451e-08
7.77238e-09
-3.65474e-06
7.6113e-09
-3.98926e-06
3.52261e-08
1.26761e-08
-1.02654e-08
-1.68096e-06
2.24501e-08
-9.35954e-09
-2.07184e-06
2.98762e-08
-8.69685e-09
-2.39008e-06
3.52732e-08
-8.19763e-09
-2.69987e-06
3.87356e-08
-7.78835e-09
-3.01317e-06
4.0291e-08
-7.43899e-09
-3.33342e-06
3.99398e-08
-7.12797e-09
-3.66155e-06
-6.8357e-09
-3.99679e-06
3.76565e-08
1.19822e-08
-2.98512e-08
-1.68037e-06
2.11688e-08
-2.72031e-08
-2.07124e-06
2.80925e-08
-2.55455e-08
-2.38934e-06
3.30795e-08
-2.44052e-08
-2.69894e-06
3.62413e-08
-2.34995e-08
-3.01201e-06
3.76213e-08
-2.273e-08
-3.33198e-06
3.72307e-08
-2.20438e-08
-3.65979e-06
-2.14133e-08
-3.99468e-06
3.50602e-08
1.06496e-08
-4.77528e-08
-1.67646e-06
1.86994e-08
-4.34812e-08
-2.06668e-06
2.48094e-08
-4.10626e-08
-2.38403e-06
2.93028e-08
-3.95086e-08
-2.69284e-06
3.22834e-08
-3.83213e-08
-3.00508e-06
3.3774e-08
-3.73222e-08
-3.32417e-06
3.37528e-08
-3.64189e-08
-3.65109e-06
-3.55446e-08
-3.98507e-06
3.21425e-08
6.61899e-09
-1.6688e-06
-6.05424e-08
1.14173e-08
-2.05781e-06
-5.52876e-08
1.48292e-08
-2.37349e-06
-5.24134e-08
1.71416e-08
-2.68043e-06
-5.06777e-08
1.85036e-08
-2.99054e-06
-4.94455e-08
1.90087e-08
-3.30725e-06
-4.84846e-08
1.87014e-08
-3.63153e-06
-4.76629e-08
-3.96265e-06
-4.69103e-08
1.76023e-08
6.27178e-09
3.52949e-08
-1.6595e-06
-4.45007e-08
1.126e-08
3.17017e-08
-2.04667e-06
-4.00166e-08
1.513e-08
2.98146e-08
-2.36083e-06
-3.75802e-08
1.79898e-08
2.86089e-08
-2.66641e-06
-3.59888e-08
1.98552e-08
2.7667e-08
-2.97525e-06
-3.47397e-08
2.07167e-08
2.68583e-08
-3.29077e-06
-3.36763e-08
2.05556e-08
2.61309e-08
-3.61391e-06
-3.27327e-08
2.54584e-08
-3.94392e-06
-3.18853e-08
1.93609e-08
8.72268e-09
2.22334e-08
-1.66726e-06
1.55526e-08
1.99577e-08
-2.05584e-06
2.08522e-08
1.87902e-08
-2.37154e-06
2.48011e-08
1.80635e-08
-2.67873e-06
2.74315e-08
1.74999e-08
-2.98931e-06
2.87301e-08
1.70147e-08
-3.3067e-06
2.86658e-08
1.65776e-08
-3.63185e-06
1.6182e-08
-3.964e-06
2.7188e-08
9.94339e-09
6.98717e-09
-1.67256e-06
1.76894e-08
6.19791e-09
-2.06214e-06
2.36155e-08
5.89566e-09
-2.37884e-06
2.79474e-08
5.75581e-09
-2.68704e-06
3.07434e-08
5.66175e-09
-2.99867e-06
3.20136e-08
5.57887e-09
-3.31714e-06
3.17496e-08
5.4986e-09
-3.64341e-06
5.42102e-09
-3.9767e-06
2.99343e-08
1.06176e-08
-9.47256e-09
-1.67512e-06
1.88489e-08
-8.66089e-09
-2.06522e-06
2.51454e-08
-8.06053e-09
-2.38243e-06
2.97633e-08
-7.60243e-09
-2.69114e-06
3.27702e-08
-7.22084e-09
-3.00331e-06
3.4176e-08
-6.89119e-09
-3.32237e-06
3.39666e-08
-6.59641e-09
-3.64926e-06
-6.32065e-09
-3.98321e-06
3.21068e-08
1.0045e-08
-2.53997e-08
-1.6745e-06
1.77974e-08
-2.30903e-08
-2.06457e-06
2.36853e-08
-2.16476e-08
-2.38165e-06
2.79682e-08
-2.06482e-08
-2.69019e-06
3.0726e-08
-1.98519e-08
-3.00215e-06
3.19813e-08
-1.91764e-08
-3.32096e-06
3.173e-08
-1.85771e-08
-3.64757e-06
-1.80302e-08
-3.98121e-06
2.99522e-08
8.91213e-09
-3.98294e-08
-1.67095e-06
1.57126e-08
-3.61349e-08
-2.06045e-06
2.09169e-08
-3.40371e-08
-2.37685e-06
2.47788e-08
-3.26745e-08
-2.68469e-06
2.73715e-08
-3.16312e-08
-2.9959e-06
2.87011e-08
-3.07587e-08
-3.31393e-06
2.87384e-08
-2.99797e-08
-3.63974e-06
-2.92375e-08
-3.97256e-06
2.74106e-08
5.66748e-09
-1.66425e-06
-5.00586e-08
9.86051e-09
-2.05266e-06
-4.54925e-08
1.28987e-08
-2.36762e-06
-4.29581e-08
1.49991e-08
-2.67384e-06
-4.13797e-08
1.62687e-08
-2.98322e-06
-4.02317e-08
1.67713e-08
-3.2992e-06
-3.93235e-08
1.65356e-08
-3.62274e-06
-3.85482e-08
-3.95309e-06
-3.78489e-08
1.55751e-08
5.28625e-09
2.76283e-08
-1.65716e-06
-3.52571e-08
9.47994e-09
2.45524e-08
-2.04403e-06
-3.13948e-08
1.2723e-08
2.29607e-08
-2.35773e-06
-2.93117e-08
1.51117e-08
2.19582e-08
-2.66281e-06
-2.79608e-08
1.66653e-08
2.11984e-08
-2.97109e-06
-2.69225e-08
1.7381e-08
2.05685e-08
-3.286e-06
-2.60618e-08
1.72472e-08
2.0019e-08
-3.60849e-06
-2.53176e-08
1.9523e-08
-3.9378e-06
-2.46636e-08
1.62555e-08
7.24773e-09
1.6995e-08
-1.66388e-06
1.293e-08
1.50479e-08
-2.05202e-06
1.73412e-08
1.40768e-08
-2.36707e-06
2.06323e-08
1.34877e-08
-2.67356e-06
2.28321e-08
1.30507e-08
-2.98337e-06
2.39305e-08
1.26918e-08
-3.29993e-06
2.39007e-08
1.23809e-08
-3.6242e-06
1.21079e-08
-3.9554e-06
2.26982e-08
8.24959e-09
4.64745e-09
-1.66847e-06
1.46901e-08
3.97717e-09
-2.05752e-06
1.96312e-08
3.74126e-09
-2.37346e-06
2.32598e-08
3.64694e-09
-2.68084e-06
2.56232e-08
3.59983e-09
-2.99159e-06
2.67264e-08
3.56902e-09
-3.30913e-06
2.65576e-08
3.54432e-09
-3.63442e-06
3.52346e-09
-3.96666e-06
2.50952e-08
8.79209e-09
-8.62478e-09
-1.67065e-06
1.56282e-08
-7.92124e-09
-2.06017e-06
2.08773e-08
-7.39508e-09
-2.37655e-06
2.47488e-08
-6.98935e-09
-2.68438e-06
2.72955e-08
-6.64626e-09
-2.99562e-06
2.85205e-08
-6.34605e-09
-3.31369e-06
2.84052e-08
-6.0756e-09
-3.63954e-06
-5.82238e-09
-3.97238e-06
2.69125e-08
8.31475e-09
-2.14024e-08
-1.67004e-06
1.47553e-08
-1.94052e-08
-2.05954e-06
1.96684e-08
-1.81613e-08
-2.3758e-06
2.32643e-08
-1.72955e-08
-2.68349e-06
2.56049e-08
-1.66045e-08
-2.99454e-06
2.67034e-08
-1.60193e-08
-3.3124e-06
2.65497e-08
-1.55027e-08
-3.638e-06
-1.50341e-08
-3.97058e-06
2.51203e-08
7.35705e-09
-3.28717e-08
-1.66684e-06
1.3004e-08
-2.96869e-08
-2.05583e-06
1.73453e-08
-2.78752e-08
-2.37149e-06
2.05834e-08
-2.66885e-08
-2.67854e-06
2.27744e-08
-2.57798e-08
-2.98893e-06
2.39188e-08
-2.50258e-08
-3.30608e-06
2.39879e-08
-2.43614e-08
-3.63096e-06
-2.37386e-08
-3.96279e-06
2.29175e-08
4.77652e-09
-1.66095e-06
-4.09513e-08
8.35541e-09
-2.04895e-06
-3.69859e-08
1.0978e-08
-2.36336e-06
-3.47642e-08
1.28134e-08
-2.66902e-06
-3.33506e-08
1.39419e-08
-2.97783e-06
-3.23078e-08
1.44097e-08
-3.29322e-06
-3.14787e-08
1.42365e-08
-3.61616e-06
-3.07755e-08
-3.94589e-06
-3.01504e-08
1.34311e-08
4.44514e-09
2.10616e-08
-1.65537e-06
-2.72995e-08
7.9605e-09
1.83888e-08
-2.04201e-06
-2.39295e-08
1.06709e-08
1.70224e-08
-2.35535e-06
-2.21266e-08
1.26623e-08
1.6172e-08
-2.66001e-06
-2.09661e-08
1.39564e-08
1.55495e-08
-2.96785e-06
-2.00965e-08
1.45564e-08
1.50564e-08
-3.28227e-06
-1.94001e-08
1.44559e-08
1.46454e-08
-3.60423e-06
-1.88192e-08
1.42891e-08
-3.93296e-06
-1.83254e-08
1.36481e-08
5.9796e-09
1.25342e-08
-1.66134e-06
1.06656e-08
1.08355e-08
-2.04916e-06
1.42996e-08
1.00066e-08
-2.3637e-06
1.70101e-08
9.51393e-09
-2.66962e-06
1.8826e-08
9.167e-09
-2.97881e-06
1.97426e-08
8.90051e-09
-3.2947e-06
1.97393e-08
8.68447e-09
-3.61824e-06
8.50624e-09
-3.94867e-06
1.87784e-08
6.76989e-09
2.70882e-09
-1.66542e-06
1.20553e-08
2.11279e-09
-2.05409e-06
1.61122e-08
1.91153e-09
-2.36943e-06
1.90983e-08
1.83787e-09
-2.67616e-06
2.10561e-08
1.81507e-09
-2.9862e-06
2.19917e-08
1.81515e-09
-3.30299e-06
2.18945e-08
1.82655e-09
-3.62747e-06
1.84506e-09
-3.95886e-06
2.07428e-08
7.18554e-09
-7.78821e-09
-1.66734e-06
1.27738e-08
-7.19827e-09
-2.05645e-06
1.70691e-08
-6.75125e-09
-2.37219e-06
2.02456e-08
-6.40294e-09
-2.67933e-06
2.23498e-08
-6.10339e-09
-2.98982e-06
2.33854e-08
-5.83713e-09
-3.30708e-06
2.33355e-08
-5.59456e-09
-3.63208e-06
-5.36613e-09
-3.96401e-06
2.21652e-08
6.78303e-09
-1.78281e-08
-1.66679e-06
1.20402e-08
-1.61145e-08
-2.05589e-06
1.60554e-08
-1.50522e-08
-2.37153e-06
1.90031e-08
-1.43108e-08
-2.67854e-06
2.09362e-08
-1.37189e-08
-2.98887e-06
2.18666e-08
-1.32189e-08
-3.30596e-06
2.17848e-08
-1.27798e-08
-3.63075e-06
-1.23837e-08
-3.96245e-06
2.06677e-08
5.98167e-09
-2.67477e-08
-1.66391e-06
1.05831e-08
-2.40084e-08
-2.05254e-06
1.41243e-08
-2.24504e-08
-2.36764e-06
1.67709e-08
-2.14241e-08
-2.67409e-06
1.85707e-08
-2.06403e-08
-2.98382e-06
1.95261e-08
-1.99966e-08
-3.30027e-06
1.96139e-08
-1.94379e-08
-3.6244e-06
-1.89234e-08
-3.95543e-06
1.87805e-08
3.9546e-09
-1.65868e-06
-3.29803e-08
6.93514e-09
-2.04641e-06
-2.95364e-08
9.13053e-09
-2.36041e-06
-2.75992e-08
1.06769e-08
-2.66565e-06
-2.63494e-08
1.16391e-08
-2.97402e-06
-2.54225e-08
1.20543e-08
-3.28896e-06
-2.46879e-08
1.1938e-08
-3.61142e-06
-2.40721e-08
-3.94065e-06
-2.35342e-08
1.12965e-08
3.7185e-09
1.53083e-08
-1.65411e-06
-2.02889e-08
6.64426e-09
1.29497e-08
-2.04058e-06
-1.73111e-08
8.89157e-09
1.17571e-08
-2.35363e-06
-1.57334e-08
1.05379e-08
1.10231e-08
-2.65796e-06
-1.47271e-08
1.16088e-08
1.05078e-08
-2.96544e-06
-1.39973e-08
1.21138e-08
1.0124e-08
-3.27947e-06
-1.34399e-08
1.20522e-08
9.82594e-09
-3.60101e-06
-1.29993e-08
9.58555e-09
-3.92928e-06
-1.26451e-08
1.14179e-08
4.88416e-09
8.63995e-09
-1.65956e-06
8.6989e-09
7.12795e-09
-2.04717e-06
1.16471e-08
6.40183e-09
-2.3613e-06
1.38409e-08
5.9774e-09
-2.66678e-06
1.53124e-08
5.69628e-09
-2.97548e-06
1.60651e-08
5.5002e-09
-3.29084e-06
1.60865e-08
5.35897e-09
-3.61381e-06
5.25749e-09
-3.94361e-06
1.5346e-08
5.47573e-09
1.0353e-09
-1.6633e-06
9.7372e-09
4.78193e-10
-2.05172e-06
1.29997e-08
2.88611e-10
-2.36659e-06
1.53985e-08
2.19534e-10
-2.67281e-06
1.69781e-08
2.06521e-10
-2.9823e-06
1.77503e-08
2.24549e-10
-3.2985e-06
1.77101e-08
2.60846e-10
-3.62235e-06
3.09193e-10
-3.95306e-06
1.68377e-08
5.77497e-09
-7.00477e-09
-1.66508e-06
1.02478e-08
-6.52898e-09
-2.05393e-06
1.36755e-08
-6.16196e-09
-2.36918e-06
1.62084e-08
-5.87234e-09
-2.67578e-06
1.78931e-08
-5.61777e-09
-2.98569e-06
1.87402e-08
-5.38671e-09
-3.30233e-06
1.87404e-08
-5.17274e-09
-3.62666e-06
-4.96907e-09
-3.95787e-06
1.78637e-08
5.43094e-09
-1.46291e-08
-1.6646e-06
9.62299e-09
-1.31713e-08
-2.05345e-06
1.28144e-08
-1.22738e-08
-2.36862e-06
1.51546e-08
-1.16472e-08
-2.67511e-06
1.66958e-08
-1.11474e-08
-2.98489e-06
1.74553e-08
-1.07271e-08
-3.30139e-06
1.74295e-08
-1.036e-08
-3.62555e-06
-1.00311e-08
-3.95658e-06
1.65987e-08
4.77119e-09
-2.13187e-08
-1.662e-06
8.42914e-09
-1.89671e-08
-2.05042e-06
1.12336e-08
-1.76339e-08
-2.3651e-06
1.33246e-08
-1.67533e-08
-2.67108e-06
1.47502e-08
-1.60853e-08
-2.98032e-06
1.55204e-08
-1.55444e-08
-3.29623e-06
1.56219e-08
-1.50836e-08
-3.61979e-06
-1.46683e-08
-3.9502e-06
1.50121e-08
3.20225e-09
-1.65729e-06
-2.59224e-08
5.6093e-09
-2.04486e-06
-2.29307e-08
7.37752e-09
-2.35858e-06
-2.12502e-08
8.62183e-09
-2.6635e-06
-2.01581e-08
9.40094e-09
-2.97155e-06
-1.93506e-08
9.75049e-09
-3.28615e-06
-1.87184e-08
9.68713e-09
-3.60826e-06
-1.81985e-08
-3.9371e-06
-1.77551e-08
9.21558e-09
3.08594e-09
1.01393e-08
-1.65338e-06
-1.39592e-08
5.48758e-09
8.02471e-09
-2.03973e-06
-1.1294e-08
7.3169e-09
6.96686e-09
-2.35254e-06
-9.89918e-09
8.64704e-09
6.32348e-09
-2.65661e-06
-9.01981e-09
9.5114e-09
5.89438e-09
-2.96381e-06
-8.40888e-09
9.9296e-09
5.60167e-09
-3.27753e-06
-7.97317e-09
9.90969e-09
5.40001e-09
-3.59875e-06
-7.65798e-09
5.26028e-09
-3.92667e-06
-7.43044e-09
9.4472e-09
3.93264e-09
5.14918e-09
-1.65852e-06
6.97311e-09
3.77512e-09
-2.04598e-06
9.30092e-09
3.12278e-09
-2.3598e-06
1.10194e-08
2.74589e-09
-2.66493e-06
1.21698e-08
2.51337e-09
-2.97327e-06
1.27686e-08
2.37265e-09
-3.28823e-06
1.28149e-08
2.29279e-09
-3.61077e-06
2.25616e-09
-3.9401e-06
1.22859e-08
4.34826e-09
-4.53293e-10
-1.66205e-06
7.68672e-09
-9.80202e-10
-2.05032e-06
1.02171e-08
-1.16902e-09
-2.36484e-06
1.20639e-08
-1.24244e-09
-2.67068e-06
1.32784e-08
-1.25221e-09
-2.97977e-06
1.38856e-08
-1.22268e-09
-3.29553e-06
1.38914e-08
-1.16848e-09
-3.61891e-06
-1.09811e-09
-3.94911e-06
1.32812e-08
4.5244e-09
-6.2923e-09
-1.66378e-06
7.99193e-09
-5.92839e-09
-2.05247e-06
1.06205e-08
-5.64023e-09
-2.36735e-06
1.25463e-08
-5.4092e-09
-2.67356e-06
1.3826e-08
-5.19982e-09
-2.98304e-06
1.44847e-08
-5.00419e-09
-3.29923e-06
1.45264e-08
-4.8188e-09
-3.62307e-06
-4.63941e-09
-3.95375e-06
1.3929e-08
4.23346e-09
-1.17495e-08
-1.66339e-06
7.45662e-09
-1.05226e-08
-2.0521e-06
9.87965e-09
-9.77457e-09
-2.36692e-06
1.16384e-08
-9.25326e-09
-2.67304e-06
1.27935e-08
-8.839e-09
-2.98243e-06
1.3376e-08
-8.49268e-09
-3.2985e-06
1.33949e-08
-8.19268e-09
-3.62221e-06
-7.9261e-09
-3.95275e-06
1.2837e-08
3.70386e-09
-1.64495e-08
-1.66101e-06
6.50141e-09
-1.44351e-08
-2.04932e-06
8.61569e-09
-1.33015e-08
-2.3637e-06
1.01738e-08
-1.25536e-08
-2.66936e-06
1.12326e-08
-1.19928e-08
-2.97824e-06
1.18176e-08
-1.15481e-08
-3.29378e-06
1.19303e-08
-1.11789e-08
-3.61694e-06
-1.08555e-08
-3.9469e-06
1.1541e-08
2.51476e-09
-1.65668e-06
-1.95759e-08
4.36914e-09
-2.04419e-06
-1.69762e-08
5.7057e-09
-2.3577e-06
-1.55262e-08
6.62974e-09
-2.66241e-06
-1.45829e-08
7.2038e-09
-2.97024e-06
-1.38939e-08
7.47095e-09
-3.28461e-06
-1.33669e-08
7.45509e-09
-3.60649e-06
-1.29472e-08
-3.93509e-06
-1.26021e-08
7.16227e-09
2.53386e-09
5.36009e-09
-1.65319e-06
-8.09203e-09
4.45091e-09
3.43161e-09
-2.03943e-06
-5.67594e-09
5.87568e-09
2.47743e-09
-2.35203e-06
-4.43037e-09
6.88626e-09
1.90468e-09
-2.65589e-06
-3.65681e-09
7.53268e-09
1.54618e-09
-2.96287e-06
-3.14955e-09
7.85264e-09
1.33139e-09
-3.27638e-06
-2.82376e-09
7.86939e-09
1.21475e-09
-3.59738e-06
-2.62451e-09
1.16617e-09
-3.92506e-06
-2.51617e-09
7.58394e-09
3.09238e-09
1.91472e-09
-1.65818e-06
5.42088e-09
6.34268e-10
-2.04553e-06
7.16085e-09
2.99143e-11
-2.35912e-06
8.4104e-09
-3.06504e-10
-2.66399e-06
9.23503e-09
-5.01426e-10
-2.97207e-06
9.67357e-09
-5.97008e-10
-3.28676e-06
9.74398e-09
-6.24003e-10
-3.60903e-06
-6.02545e-10
-3.93805e-06
9.43445e-09
3.33951e-09
-1.83795e-09
-1.66165e-06
5.8254e-09
-2.37614e-09
-2.04981e-06
7.65192e-09
-2.57858e-09
-2.36408e-06
8.95188e-09
-2.66399e-09
-2.66965e-06
9.79119e-09
-2.67657e-09
-2.97846e-06
1.02184e-08
-2.64017e-09
-3.29394e-06
1.02603e-08
-2.57104e-09
-3.61703e-06
-2.47987e-09
-3.94692e-06
9.91279e-09
3.41799e-09
-5.66614e-09
-1.66338e-06
5.94582e-09
-5.41379e-09
-2.05198e-06
7.79972e-09
-5.20318e-09
-2.3666e-06
9.11706e-09
-5.0294e-09
-2.67253e-06
9.97581e-09
-4.86395e-09
-2.98173e-06
1.04273e-08
-4.7024e-09
-3.29764e-06
1.04983e-08
-4.54406e-09
-3.62119e-06
-4.38713e-09
-3.95156e-06
1.01804e-08
3.16182e-09
-9.1341e-09
-1.66309e-06
5.47494e-09
-8.11529e-09
-2.05173e-06
7.14671e-09
-7.50321e-09
-2.36631e-06
8.31524e-09
-7.07875e-09
-2.67219e-06
9.06264e-09
-6.74361e-09
-2.98132e-06
9.44572e-09
-6.46615e-09
-3.29714e-06
9.49623e-09
-6.22856e-09
-3.6206e-06
-6.02002e-09
-3.95086e-06
9.21346e-09
2.75042e-09
-1.20132e-08
-1.6609e-06
4.73693e-09
-1.0293e-08
-2.04915e-06
6.17265e-09
-9.33724e-09
-2.36332e-06
7.18773e-09
-8.71023e-09
-2.66876e-06
7.86075e-09
-8.24926e-09
-2.97743e-06
8.24372e-09
-7.89489e-09
-3.29276e-06
8.36254e-09
-7.61197e-09
-3.6157e-06
-7.37476e-09
-3.94542e-06
8.20419e-09
1.88083e-09
-1.65683e-06
-1.37594e-08
3.18421e-09
-2.04431e-06
-1.15e-08
4.06127e-09
-2.35768e-06
-1.02564e-08
4.62288e-09
-2.66226e-06
-9.45165e-09
4.9486e-09
-2.96996e-06
-8.87725e-09
5.10157e-09
-3.28423e-06
-8.45535e-09
5.12292e-09
-3.60601e-06
-8.13718e-09
-3.9345e-06
-7.89227e-09
5.02595e-09
2.04761e-09
7.87347e-10
-1.65353e-06
-2.50387e-09
3.47697e-09
-9.78186e-10
-2.03963e-06
-2.81355e-10
4.46184e-09
-1.84015e-09
-2.35204e-06
8.35675e-10
5.10032e-09
-2.3529e-09
-2.65572e-06
1.52049e-09
5.47398e-09
-2.64802e-09
-2.96256e-06
1.93706e-09
5.65293e-09
-2.78965e-09
-3.27596e-06
2.16378e-09
5.68843e-09
-2.82463e-09
-3.59687e-06
2.25639e-09
-2.78568e-09
-3.92447e-06
2.25244e-09
5.59491e-09
2.33109e-09
-1.18621e-09
-1.65855e-06
3.95771e-09
-2.39124e-09
-2.04577e-06
5.07827e-09
-2.95886e-09
-2.35914e-06
5.81475e-09
-3.28116e-09
-2.66383e-06
6.26355e-09
-3.44834e-09
-2.97174e-06
6.50328e-09
-3.50566e-09
-3.28631e-06
6.58667e-09
-3.48634e-09
-3.60848e-06
-3.4124e-09
-3.93739e-06
6.52254e-09
2.41682e-09
-3.20568e-09
-1.66207e-06
4.06388e-09
-3.76126e-09
-2.05012e-06
5.1598e-09
-3.98483e-09
-2.36418e-06
5.85269e-09
-4.08862e-09
-2.66956e-06
6.25285e-09
-4.10952e-09
-2.97822e-06
6.45081e-09
-4.07083e-09
-3.2936e-06
6.5093e-09
-3.99079e-09
-3.61662e-06
-3.88204e-09
-3.94641e-06
6.44567e-09
2.40184e-09
-5.13661e-09
-1.66387e-06
4.00343e-09
-4.99186e-09
-2.05238e-06
5.04807e-09
-4.85629e-09
-2.3668e-06
5.69601e-09
-4.73838e-09
-2.67255e-06
6.06719e-09
-4.61579e-09
-2.98162e-06
6.25832e-09
-4.48726e-09
-3.29744e-06
6.33606e-09
-4.35472e-09
-3.62093e-06
-4.21861e-09
-3.95123e-06
6.31695e-09
2.17413e-09
-6.72815e-09
-1.66369e-06
3.57745e-09
-5.89644e-09
-2.05226e-06
4.45272e-09
-5.40836e-09
-2.36666e-06
4.96093e-09
-5.07334e-09
-2.67238e-06
5.22712e-09
-4.81173e-09
-2.98141e-06
5.35349e-09
-4.59851e-09
-3.29719e-06
5.4118e-09
-4.41924e-09
-3.62063e-06
-4.26509e-09
-3.95086e-06
5.42588e-09
1.87242e-09
-7.89129e-09
-1.66162e-06
3.0402e-09
-6.42938e-09
-2.04981e-06
3.74856e-09
-5.63306e-09
-2.36383e-06
4.15029e-09
-5.11694e-09
-2.66915e-06
4.36723e-09
-4.74924e-09
-2.97773e-06
4.49659e-09
-4.48012e-09
-3.29303e-06
4.60477e-09
-4.27889e-09
-3.61597e-06
-4.12322e-09
-3.94569e-06
4.70617e-09
1.28312e-09
-1.65771e-06
-8.31065e-09
1.98925e-09
-2.04513e-06
-6.34632e-09
2.32905e-09
-2.3584e-06
-5.28715e-09
2.43489e-09
-2.66289e-06
-4.60995e-09
2.42478e-09
-2.97058e-06
-4.14484e-09
2.40066e-09
-3.28489e-06
-3.82604e-09
2.43807e-09
-3.60675e-06
-3.60919e-09
-3.93532e-06
-3.46547e-09
2.56946e-09
1.56474e-09
-3.62871e-09
-1.65441e-06
2.94012e-09
2.44669e-09
-5.29909e-09
-2.04024e-06
4.99839e-09
2.88218e-09
-6.11356e-09
-2.35242e-06
6.02739e-09
3.01898e-09
-6.58647e-09
-2.65595e-06
6.64126e-09
2.99497e-09
-6.83223e-09
-2.96272e-06
6.9813e-09
2.93961e-09
-6.91131e-09
-3.27615e-06
7.11936e-09
2.95699e-09
-6.8722e-09
-3.59717e-06
7.11296e-09
-6.7505e-09
-3.92489e-06
7.00186e-09
3.09227e-09
1.61554e-09
-4.24245e-09
-1.65958e-06
2.47824e-09
-5.40729e-09
-2.04656e-06
2.86017e-09
-5.95968e-09
-2.35971e-06
2.93789e-09
-6.27155e-09
-2.66425e-06
2.87438e-09
-6.41919e-09
-2.97213e-06
2.81447e-09
-6.4448e-09
-3.28675e-06
2.87136e-09
-6.38348e-09
-3.60906e-06
-6.25956e-09
-3.93814e-06
3.09328e-09
1.53429e-09
-4.60265e-09
-1.66326e-06
2.26306e-09
-5.18682e-09
-2.0511e-06
2.49496e-09
-5.44004e-09
-2.36496e-06
2.42488e-09
-5.56779e-09
-2.67022e-06
2.2375e-09
-5.60151e-09
-2.97888e-06
2.0957e-09
-5.56447e-09
-3.29437e-06
2.12645e-09
-5.47669e-09
-3.61759e-06
-5.35252e-09
-3.94762e-06
2.38964e-09
1.4233e-09
-4.7059e-09
-1.66521e-06
2.01019e-09
-4.66383e-09
-2.05352e-06
2.10762e-09
-4.60187e-09
-2.36776e-06
1.9231e-09
-4.53948e-09
-2.67343e-06
1.65094e-09
-4.45918e-09
-2.98252e-06
1.46562e-09
-4.36318e-09
-3.29849e-06
1.50268e-09
-4.25574e-09
-3.62222e-06
-4.13939e-09
-3.9528e-06
1.82567e-09
1.21296e-09
-4.47702e-09
-1.66515e-06
1.60766e-09
-3.81442e-09
-2.05353e-06
1.5353e-09
-3.43984e-09
-2.36778e-06
1.21227e-09
-3.18831e-09
-2.67344e-06
8.34815e-10
-2.99526e-09
-2.98253e-06
5.83468e-10
-2.8421e-09
-3.29849e-06
6.00104e-10
-2.71752e-09
-3.62221e-06
-2.6148e-09
-3.95278e-06
9.56272e-10
1.01421e-09
-3.97521e-09
-1.66316e-06
1.26086e-09
-2.73959e-09
-2.05117e-06
1.08797e-09
-2.08936e-09
-2.36504e-06
7.0834e-10
-1.67615e-09
-2.67031e-06
3.11454e-10
-1.39526e-09
-2.97897e-06
7.1924e-11
-1.20543e-09
-3.29446e-06
1.25941e-10
-1.08022e-09
-3.6177e-06
-1.001e-09
-3.94775e-06
5.36402e-10
6.59989e-10
-1.65929e-06
-3.07849e-09
6.57685e-10
-2.04653e-06
-1.3739e-09
2.84481e-10
-2.35966e-06
-4.84114e-10
-2.3603e-10
-2.66413e-06
5.01102e-11
-7.44785e-10
-2.97191e-06
4.06126e-10
-1.06483e-09
-3.28643e-06
6.21703e-10
-1.05915e-09
-3.60861e-06
7.40819e-10
-3.93755e-06
7.84656e-10
-6.51043e-10
1.04432e-09
-8.10036e-09
-1.65575e-06
8.37767e-09
1.20012e-09
-9.69698e-09
-2.04106e-06
1.03246e-08
8.42405e-10
-1.04734e-08
-2.3529e-06
1.12839e-08
2.06971e-10
-1.09178e-08
-2.65627e-06
1.1843e-08
-4.66055e-10
-1.11252e-08
-2.96307e-06
1.2118e-08
-9.40552e-10
-1.11516e-08
-3.27674e-06
1.21753e-08
-1.02329e-09
-1.10463e-08
-3.59815e-06
1.20757e-08
-1.08479e-08
-3.92637e-06
1.18601e-08
-5.99303e-10
8.55025e-10
-7.36398e-09
-1.66119e-06
7.5765e-10
-8.503e-09
-2.0477e-06
1.35267e-10
-9.05482e-09
-2.36054e-06
-7.28513e-10
-9.36619e-09
-2.66498e-06
-1.56888e-09
-9.50393e-09
-2.97294e-06
-2.12468e-09
-9.50627e-09
-3.28788e-06
-2.18029e-09
-9.40923e-09
-3.61068e-06
-9.23952e-09
-3.94036e-06
-1.61339e-09
5.86327e-10
-6.08369e-09
-1.66515e-06
1.87594e-10
-6.70081e-09
-2.05254e-06
-7.46488e-10
-6.9929e-09
-2.36612e-06
-1.87989e-09
-7.15208e-09
-2.67134e-06
-2.93798e-09
-7.20348e-09
-2.98016e-06
-3.63321e-09
-7.17279e-09
-3.29604e-06
-3.72457e-09
-7.08133e-09
-3.61986e-06
-6.94464e-09
-3.95061e-06
-3.06963e-09
3.61669e-10
-4.37525e-09
-1.6673e-06
-2.68902e-10
-4.43095e-09
-2.0552e-06
-1.43825e-09
-4.44014e-09
-2.36918e-06
-2.77957e-09
-4.4355e-09
-2.67484e-06
-3.99352e-09
-4.39812e-09
-2.98415e-06
-4.77947e-09
-4.33494e-09
-3.30058e-06
-4.88261e-09
-4.25288e-09
-3.62499e-06
-4.15618e-09
-3.95637e-06
-4.15024e-09
1.45158e-10
-2.32573e-09
-1.66737e-06
-6.81877e-10
-1.8184e-09
-2.05536e-06
-2.01927e-09
-1.54877e-09
-2.36937e-06
-3.51034e-09
-1.37619e-09
-2.67504e-06
-4.84018e-09
-1.24779e-09
-2.98439e-06
-5.70055e-09
-1.15127e-09
-3.30085e-06
-5.82806e-09
-1.07845e-09
-3.6253e-06
-1.02456e-09
-3.95672e-06
-5.06117e-09
4.26172e-11
-1.61294e-10
-1.66539e-06
-8.44993e-10
8.69867e-10
-2.053e-06
-2.21026e-09
1.39771e-09
-2.36665e-06
-3.70569e-09
1.7146e-09
-2.67194e-06
-5.02297e-09
1.91725e-09
-2.98085e-06
-5.85835e-09
2.03297e-09
-3.29685e-06
-5.95548e-09
2.08391e-09
-3.6208e-06
2.092e-09
-3.9517e-06
-5.16361e-09
-8.21707e-11
-1.66145e-06
2.06219e-09
-1.01292e-09
-2.04829e-06
3.52916e-09
-2.37821e-09
-2.3612e-06
4.27603e-09
-3.87335e-09
-2.66569e-06
4.73112e-09
-5.19288e-09
-2.97371e-06
5.00349e-09
-6.04289e-09
-3.28872e-06
5.13753e-09
-6.17385e-09
-3.6116e-06
5.17006e-09
-3.94137e-06
5.12525e-09
-5.42538e-09
3.74225e-10
-1.27285e-08
1.39546e-08
-1.65736e-06
-5.4992e-10
-1.42546e-08
1.5804e-08
-2.04173e-06
-2.16183e-09
-1.50106e-08
1.67147e-08
-2.35303e-06
-4.03883e-09
-1.54478e-08
1.72388e-08
-2.65622e-06
-5.79006e-09
-1.5632e-08
1.74641e-08
-2.96319e-06
-7.0138e-09
-1.56188e-08
1.74549e-08
-3.27739e-06
-7.35713e-09
-1.54587e-08
1.72729e-08
-3.59967e-06
-1.51922e-08
1.6959e-08
-6.57489e-09
-3.92896e-06
-1.14346e-10
-1.06316e-08
-1.6632e-06
-1.53653e-09
-1.17621e-08
-2.04881e-06
-3.6431e-09
-1.232e-08
-2.36117e-06
-5.96411e-09
-1.26487e-08
-2.66549e-06
-8.05179e-09