/*--------------------------------*- C++ -*----------------------------------*\
| =========                 |                                                 |
| \\      /  F ield         | OpenFOAM: The Open Source CFD Toolbox           |
|  \\    /   O peration     | Version:  plus.master.MPPICInterFoam            |
|   \\  /    A nd           | Web:      www.OpenFOAM.com                      |
|    \\/     M anipulation  |                                                 |
\*---------------------------------------------------------------------------*/
FoamFile
{
    version     2.0;
    format      ascii;
    class       volScalarField;
    location    "5.6";
    object      epsilon;
}
// * * * * * * * * * * * * * * * * * * * * * * * * * * * * * * * * * * * * * //

dimensions      [0 2 -3 0 0 0 0];

internalField   nonuniform List<scalar> 
11821
(
6.96161e-05
2.97665e-05
2.49932e-05
2.44246e-05
2.46323e-05
2.48219e-05
2.47291e-05
2.42732e-05
6.98345e-05
2.986e-05
2.50087e-05
2.44147e-05
2.46162e-05
2.48084e-05
2.47219e-05
2.42737e-05
7.00106e-05
2.99006e-05
2.50098e-05
2.44045e-05
2.46041e-05
2.47983e-05
2.47154e-05
2.42712e-05
7.01193e-05
2.99208e-05
2.50086e-05
2.43979e-05
2.45967e-05
2.47921e-05
2.47112e-05
2.42693e-05
7.01679e-05
2.99026e-05
2.50008e-05
2.4396e-05
2.45972e-05
2.4793e-05
2.47114e-05
2.42685e-05
7.0151e-05
2.98629e-05
2.49902e-05
2.43976e-05
2.46027e-05
2.47981e-05
2.47144e-05
2.42688e-05
7.0094e-05
2.97422e-05
2.49574e-05
2.4399e-05
2.46152e-05
2.48106e-05
2.47214e-05
2.42684e-05
6.95228e-05
2.9698e-05
2.49573e-05
2.44019e-05
2.46151e-05
2.48068e-05
2.47145e-05
2.42586e-05
6.97079e-05
2.97855e-05
2.49757e-05
2.43973e-05
2.46045e-05
2.47978e-05
2.47105e-05
2.42609e-05
6.98563e-05
2.98284e-05
2.49813e-05
2.43913e-05
2.45959e-05
2.47905e-05
2.4706e-05
2.42597e-05
6.99459e-05
2.98515e-05
2.49834e-05
2.43874e-05
2.45907e-05
2.4786e-05
2.47032e-05
2.42588e-05
6.99797e-05
2.98373e-05
2.49776e-05
2.43859e-05
2.45909e-05
2.47864e-05
2.4703e-05
2.42579e-05
6.99522e-05
2.98025e-05
2.49682e-05
2.43868e-05
2.4595e-05
2.47902e-05
2.47051e-05
2.42579e-05
6.98829e-05
2.9698e-05
2.4939e-05
2.43861e-05
2.46034e-05
2.47986e-05
2.4709e-05
2.42558e-05
6.94596e-05
2.96502e-05
2.49339e-05
2.43882e-05
2.46051e-05
2.47978e-05
2.47051e-05
2.42487e-05
6.9622e-05
2.9729e-05
2.49525e-05
2.43864e-05
2.45977e-05
2.47914e-05
2.47027e-05
2.42512e-05
6.9751e-05
2.97709e-05
2.49601e-05
2.4383e-05
2.45915e-05
2.47859e-05
2.46994e-05
2.42507e-05
6.98272e-05
2.97941e-05
2.49638e-05
2.43807e-05
2.45877e-05
2.47825e-05
2.46974e-05
2.42502e-05
6.98512e-05
2.9783e-05
2.49594e-05
2.43795e-05
2.45877e-05
2.47826e-05
2.46971e-05
2.42494e-05
6.98176e-05
2.97525e-05
2.49511e-05
2.43799e-05
2.45907e-05
2.47855e-05
2.46986e-05
2.42492e-05
6.97423e-05
2.96636e-05
2.49259e-05
2.43783e-05
2.45965e-05
2.47912e-05
2.47008e-05
2.42467e-05
6.94175e-05
2.96164e-05
2.49186e-05
2.438e-05
2.45994e-05
2.47923e-05
2.4699e-05
2.42417e-05
6.95657e-05
2.96863e-05
2.49361e-05
2.43799e-05
2.45942e-05
2.47876e-05
2.46973e-05
2.42439e-05
6.96821e-05
2.97256e-05
2.49445e-05
2.43781e-05
2.45895e-05
2.47834e-05
2.46948e-05
2.42435e-05
6.97498e-05
2.97478e-05
2.49489e-05
2.43768e-05
2.45867e-05
2.47807e-05
2.46932e-05
2.42432e-05
6.97678e-05
2.97391e-05
2.49455e-05
2.43759e-05
2.45866e-05
2.47807e-05
2.46928e-05
2.42424e-05
6.97312e-05
2.97124e-05
2.49383e-05
2.43759e-05
2.45889e-05
2.47828e-05
2.46939e-05
2.42422e-05
6.96534e-05
2.96375e-05
2.4917e-05
2.4374e-05
2.4593e-05
2.4787e-05
2.46953e-05
2.42399e-05
6.9392e-05
2.95928e-05
2.49089e-05
2.43755e-05
2.45964e-05
2.47892e-05
2.4695e-05
2.42367e-05
6.95329e-05
2.96545e-05
2.49251e-05
2.43764e-05
2.45927e-05
2.47856e-05
2.46936e-05
2.42382e-05
6.96422e-05
2.9691e-05
2.49336e-05
2.43757e-05
2.45893e-05
2.47822e-05
2.46915e-05
2.42377e-05
6.97054e-05
2.97116e-05
2.49382e-05
2.43752e-05
2.45872e-05
2.47801e-05
2.46901e-05
2.42373e-05
6.97202e-05
2.9705e-05
2.49358e-05
2.43744e-05
2.4587e-05
2.478e-05
2.46896e-05
2.42366e-05
6.96826e-05
2.96816e-05
2.49294e-05
2.43742e-05
2.45887e-05
2.47816e-05
2.46905e-05
2.42365e-05
6.96038e-05
2.96189e-05
2.49115e-05
2.43722e-05
2.45917e-05
2.47847e-05
2.46915e-05
2.42347e-05
6.93815e-05
2.9577e-05
2.49033e-05
2.43736e-05
2.45954e-05
2.47876e-05
2.46923e-05
2.42328e-05
6.95204e-05
2.9632e-05
2.49183e-05
2.43753e-05
2.45928e-05
2.47848e-05
2.4691e-05
2.42336e-05
6.96274e-05
2.96658e-05
2.49268e-05
2.43754e-05
2.45903e-05
2.47821e-05
2.46891e-05
2.42329e-05
6.96892e-05
2.9685e-05
2.49315e-05
2.43754e-05
2.45888e-05
2.47804e-05
2.46878e-05
2.42324e-05
6.97029e-05
2.96802e-05
2.49297e-05
2.43749e-05
2.45886e-05
2.47801e-05
2.46873e-05
2.42317e-05
6.96653e-05
2.96596e-05
2.49242e-05
2.43745e-05
2.45898e-05
2.47814e-05
2.4688e-05
2.42316e-05
6.95858e-05
2.9607e-05
2.49092e-05
2.43725e-05
2.4592e-05
2.47838e-05
2.46889e-05
2.42304e-05
6.9386e-05
2.95681e-05
2.49013e-05
2.43739e-05
2.45958e-05
2.47871e-05
2.46905e-05
2.42297e-05
6.95274e-05
2.96178e-05
2.49154e-05
2.43762e-05
2.45942e-05
2.47849e-05
2.46891e-05
2.42298e-05
6.96358e-05
2.96496e-05
2.49239e-05
2.43771e-05
2.45925e-05
2.47827e-05
2.46873e-05
2.42287e-05
6.9699e-05
2.96676e-05
2.49286e-05
2.43775e-05
2.45914e-05
2.47812e-05
2.4686e-05
2.42279e-05
6.97132e-05
2.96644e-05
2.49275e-05
2.43772e-05
2.45912e-05
2.47809e-05
2.46855e-05
2.42272e-05
6.9676e-05
2.96464e-05
2.49227e-05
2.43767e-05
2.45921e-05
2.47819e-05
2.46861e-05
2.42273e-05
6.95953e-05
2.9602e-05
2.491e-05
2.43748e-05
2.45936e-05
2.47838e-05
2.4687e-05
2.42267e-05
6.94066e-05
2.95658e-05
2.49027e-05
2.43764e-05
2.45976e-05
2.47876e-05
2.46894e-05
2.42271e-05
6.95548e-05
2.9612e-05
2.49165e-05
2.43794e-05
2.45969e-05
2.47859e-05
2.46879e-05
2.42265e-05
6.96682e-05
2.96425e-05
2.49251e-05
2.4381e-05
2.45959e-05
2.4784e-05
2.4686e-05
2.4225e-05
6.97352e-05
2.96599e-05
2.49301e-05
2.43818e-05
2.45952e-05
2.47828e-05
2.46847e-05
2.42239e-05
6.97511e-05
2.96583e-05
2.49296e-05
2.43818e-05
2.45951e-05
2.47825e-05
2.46842e-05
2.42232e-05
6.97144e-05
2.96425e-05
2.49254e-05
2.43812e-05
2.45957e-05
2.47832e-05
2.46847e-05
2.42233e-05
6.96315e-05
2.96044e-05
2.49144e-05
2.43793e-05
2.45967e-05
2.47847e-05
2.46856e-05
2.42233e-05
6.94462e-05
2.95711e-05
2.49084e-05
2.43815e-05
2.46013e-05
2.47893e-05
2.46889e-05
2.42249e-05
6.96055e-05
2.96155e-05
2.49223e-05
2.43854e-05
2.46014e-05
2.4788e-05
2.46873e-05
2.42235e-05
6.97275e-05
2.96457e-05
2.49315e-05
2.43878e-05
2.4601e-05
2.47864e-05
2.46854e-05
2.42216e-05
6.98007e-05
2.96631e-05
2.49369e-05
2.43892e-05
2.46007e-05
2.47854e-05
2.4684e-05
2.42202e-05
6.98197e-05
2.96631e-05
2.49371e-05
2.43894e-05
2.46007e-05
2.4785e-05
2.46834e-05
2.42194e-05
6.97831e-05
2.96491e-05
2.49333e-05
2.43887e-05
2.46011e-05
2.47856e-05
2.46838e-05
2.42196e-05
6.96965e-05
2.96158e-05
2.49235e-05
2.43866e-05
2.46016e-05
2.47868e-05
2.46848e-05
2.42202e-05
6.95099e-05
2.95858e-05
2.49195e-05
2.43904e-05
2.46077e-05
2.47928e-05
2.46897e-05
2.42232e-05
6.96854e-05
2.96303e-05
2.49344e-05
2.43955e-05
2.46087e-05
2.47919e-05
2.46879e-05
2.42211e-05
6.98201e-05
2.96614e-05
2.49446e-05
2.43989e-05
2.4609e-05
2.47907e-05
2.46858e-05
2.42187e-05
6.99023e-05
2.96797e-05
2.49507e-05
2.44008e-05
2.46091e-05
2.47897e-05
2.46843e-05
2.4217e-05
6.99256e-05
2.96814e-05
2.49516e-05
2.44013e-05
2.46091e-05
2.47894e-05
2.46836e-05
2.42161e-05
6.98886e-05
2.96689e-05
2.49482e-05
2.44006e-05
2.46093e-05
2.47898e-05
2.4684e-05
2.42164e-05
6.97964e-05
2.96389e-05
2.49391e-05
2.43982e-05
2.46093e-05
2.47907e-05
2.46851e-05
2.42174e-05
6.96059e-05
2.96132e-05
2.49387e-05
2.44053e-05
2.46186e-05
2.47997e-05
2.46928e-05
2.42231e-05
6.98035e-05
2.96597e-05
2.49553e-05
2.44119e-05
2.46207e-05
2.47993e-05
2.46909e-05
2.42204e-05
6.99559e-05
2.96934e-05
2.49673e-05
2.44165e-05
2.46217e-05
2.47984e-05
2.46887e-05
2.42175e-05
7.00505e-05
2.97136e-05
2.49745e-05
2.44193e-05
2.46223e-05
2.47976e-05
2.46871e-05
2.42155e-05
7.00795e-05
2.97172e-05
2.49762e-05
2.44201e-05
2.46224e-05
2.47972e-05
2.46863e-05
2.42145e-05
7.00412e-05
2.97059e-05
2.49729e-05
2.44192e-05
2.46223e-05
2.47974e-05
2.46867e-05
2.42149e-05
6.99408e-05
2.96777e-05
2.4964e-05
2.44163e-05
2.46218e-05
2.4798e-05
2.46878e-05
2.42163e-05
6.97465e-05
2.96579e-05
2.497e-05
2.443e-05
2.46378e-05
2.48136e-05
2.47017e-05
2.42277e-05
6.99731e-05
2.97092e-05
2.49895e-05
2.44387e-05
2.46412e-05
2.48139e-05
2.47e-05
2.42247e-05
7.01496e-05
2.97473e-05
2.5004e-05
2.4445e-05
2.46433e-05
2.48134e-05
2.46978e-05
2.42216e-05
7.02609e-05
2.97708e-05
2.50129e-05
2.44488e-05
2.46445e-05
2.48129e-05
2.46962e-05
2.42194e-05
7.02975e-05
2.97768e-05
2.50157e-05
2.44501e-05
2.46448e-05
2.48126e-05
2.46954e-05
2.42184e-05
7.02566e-05
2.9766e-05
2.50124e-05
2.44489e-05
2.46444e-05
2.48126e-05
2.46957e-05
2.42189e-05
7.01441e-05
2.9738e-05
2.50027e-05
2.44451e-05
2.46431e-05
2.48127e-05
2.46966e-05
2.42203e-05
6.99495e-05
2.97279e-05
2.50205e-05
2.44716e-05
2.46724e-05
2.48419e-05
2.47242e-05
2.42449e-05
7.02142e-05
2.97868e-05
2.50444e-05
2.44833e-05
2.4678e-05
2.48437e-05
2.47235e-05
2.42428e-05
7.04227e-05
2.98317e-05
2.50625e-05
2.4492e-05
2.46818e-05
2.48444e-05
2.47221e-05
2.42403e-05
7.05563e-05
2.98604e-05
2.5074e-05
2.44975e-05
2.46841e-05
2.48446e-05
2.4721e-05
2.42386e-05
7.06027e-05
2.98693e-05
2.50781e-05
2.44995e-05
2.46848e-05
2.48444e-05
2.47204e-05
2.42378e-05
7.05573e-05
2.98584e-05
2.50745e-05
2.44977e-05
2.46838e-05
2.4844e-05
2.47203e-05
2.42381e-05
7.04269e-05
2.98283e-05
2.50632e-05
2.44924e-05
2.46813e-05
2.48432e-05
2.47205e-05
2.42389e-05
7.02426e-05
2.98354e-05
2.51024e-05
2.45433e-05
2.4737e-05
2.49006e-05
2.47779e-05
2.42941e-05
7.05574e-05
2.99057e-05
2.5133e-05
2.45598e-05
2.47465e-05
2.49059e-05
2.47807e-05
2.42957e-05
7.08087e-05
2.99612e-05
2.51568e-05
2.45723e-05
2.47534e-05
2.49095e-05
2.47822e-05
2.42964e-05
7.09726e-05
2.99982e-05
2.51721e-05
2.45802e-05
2.47576e-05
2.49115e-05
2.47831e-05
2.42968e-05
7.10317e-05
3.00117e-05
2.51776e-05
2.4583e-05
2.4759e-05
2.49121e-05
2.47832e-05
2.42969e-05
7.09788e-05
2.99999e-05
2.51729e-05
2.45803e-05
2.47572e-05
2.49108e-05
2.47822e-05
2.42963e-05
7.08225e-05
2.99645e-05
2.51584e-05
2.45724e-05
2.47524e-05
2.49077e-05
2.47802e-05
2.42948e-05
6.91135e-05
2.9415e-05
2.48664e-05
2.43816e-05
2.46172e-05
2.48101e-05
2.47106e-05
2.42468e-05
6.94641e-05
2.94116e-05
2.48696e-05
2.43932e-05
2.46276e-05
2.48126e-05
2.47041e-05
2.42367e-05
6.94993e-05
2.94165e-05
2.4901e-05
2.445e-05
2.47098e-05
7.08155e-05
2.94861e-05
6.9253e-05
6.88486e-05
2.9379e-05
2.48481e-05
2.43651e-05
2.46013e-05
2.47952e-05
2.46971e-05
2.42345e-05
6.90659e-05
2.93671e-05
2.48457e-05
2.43698e-05
2.46048e-05
2.4792e-05
2.46861e-05
2.42198e-05
6.90259e-05
2.93621e-05
2.48589e-05
2.43953e-05
2.46418e-05
2.48407e-05
2.47467e-05
2.42905e-05
6.98834e-05
2.93869e-05
2.48964e-05
2.44615e-05
2.47223e-05
2.49246e-05
2.48329e-05
2.43952e-05
6.88559e-05
2.93359e-05
2.4847e-05
2.43848e-05
2.46305e-05
2.48285e-05
2.47333e-05
2.42758e-05
6.88354e-05
2.93438e-05
2.48393e-05
2.43639e-05
2.45973e-05
2.47829e-05
2.46759e-05
2.42086e-05
6.84447e-05
2.93399e-05
2.48394e-05
2.43584e-05
2.45938e-05
2.47871e-05
2.46887e-05
2.42249e-05
6.86775e-05
2.93556e-05
2.48371e-05
2.4356e-05
2.45929e-05
2.47876e-05
2.46904e-05
2.42284e-05
6.88017e-05
2.93393e-05
2.48321e-05
2.43574e-05
2.45938e-05
2.47838e-05
2.46808e-05
2.42161e-05
6.87251e-05
2.93295e-05
2.48364e-05
2.43682e-05
2.461e-05
2.48054e-05
2.47079e-05
2.42473e-05
6.9285e-05
2.93341e-05
2.48502e-05
2.43993e-05
2.46468e-05
2.48388e-05
2.4736e-05
2.42802e-05
6.86025e-05
2.931e-05
2.48283e-05
2.43615e-05
2.46029e-05
2.47977e-05
2.46995e-05
2.42382e-05
6.86331e-05
2.93198e-05
2.48276e-05
2.43545e-05
2.459e-05
2.47785e-05
2.46743e-05
2.42084e-05
6.83802e-05
2.93237e-05
2.48306e-05
2.43522e-05
2.45887e-05
2.47828e-05
2.46849e-05
2.42216e-05
6.85649e-05
2.93392e-05
2.48298e-05
2.43505e-05
2.45883e-05
2.47838e-05
2.46873e-05
2.42258e-05
6.86233e-05
2.93203e-05
2.48233e-05
2.435e-05
2.4588e-05
2.47802e-05
2.46796e-05
2.42161e-05
6.85297e-05
2.9308e-05
2.48232e-05
2.43539e-05
2.45947e-05
2.479e-05
2.46924e-05
2.42309e-05
6.88937e-05
2.93034e-05
2.48263e-05
2.43684e-05
2.46115e-05
2.48021e-05
2.46981e-05
2.42368e-05
6.84356e-05
2.9292e-05
2.4817e-05
2.43493e-05
2.45901e-05
2.47849e-05
2.46868e-05
2.42247e-05
6.84881e-05
2.93011e-05
2.48187e-05
2.43479e-05
2.45856e-05
2.47769e-05
2.46752e-05
2.42107e-05
6.83283e-05
2.93093e-05
2.4823e-05
2.43473e-05
2.45854e-05
2.47805e-05
2.46833e-05
2.42207e-05
6.84871e-05
2.93267e-05
2.48243e-05
2.43468e-05
2.45855e-05
2.47818e-05
2.4686e-05
2.42249e-05
6.8498e-05
2.93058e-05
2.48168e-05
2.4345e-05
2.45845e-05
2.47787e-05
2.46801e-05
2.42177e-05
6.83967e-05
2.9292e-05
2.48143e-05
2.43455e-05
2.45868e-05
2.4783e-05
2.46863e-05
2.42249e-05
6.86299e-05
2.92828e-05
2.48124e-05
2.43518e-05
2.45942e-05
2.47864e-05
2.46843e-05
2.42219e-05
6.83179e-05
2.92773e-05
2.48088e-05
2.43419e-05
2.45835e-05
2.47795e-05
2.46825e-05
2.42208e-05
6.83767e-05
2.92847e-05
2.48108e-05
2.43424e-05
2.45824e-05
2.47761e-05
2.46767e-05
2.42136e-05
6.82804e-05
2.92952e-05
2.48157e-05
2.43429e-05
2.45827e-05
2.4779e-05
2.46828e-05
2.42208e-05
6.84292e-05
2.93165e-05
2.482e-05
2.4344e-05
2.45837e-05
2.47808e-05
2.46856e-05
2.42249e-05
6.84044e-05
2.92936e-05
2.48115e-05
2.43413e-05
2.45821e-05
2.47781e-05
2.46811e-05
2.42196e-05
6.82997e-05
2.92785e-05
2.48076e-05
2.434e-05
2.45823e-05
2.47797e-05
2.46841e-05
2.42234e-05
6.84433e-05
2.92667e-05
2.48032e-05
2.4342e-05
2.45851e-05
2.47796e-05
2.46799e-05
2.4218e-05
6.82274e-05
2.92637e-05
2.48019e-05
2.43366e-05
2.45795e-05
2.4777e-05
2.46814e-05
2.42205e-05
6.82837e-05
2.92692e-05
2.48035e-05
2.43376e-05
2.45796e-05
2.47756e-05
2.46783e-05
2.42163e-05
6.82314e-05
2.9281e-05
2.48087e-05
2.43388e-05
2.45803e-05
2.47779e-05
2.46828e-05
2.42216e-05
6.83823e-05
2.9308e-05
2.48167e-05
2.43421e-05
2.45825e-05
2.47803e-05
2.46857e-05
2.42253e-05
6.83289e-05
2.92829e-05
2.48072e-05
2.43384e-05
2.45804e-05
2.47778e-05
2.46822e-05
2.42215e-05
6.82233e-05
2.92666e-05
2.48022e-05
2.43361e-05
2.45795e-05
2.47781e-05
2.46837e-05
2.42235e-05
6.83025e-05
2.92525e-05
2.47963e-05
2.43356e-05
2.458e-05
2.47766e-05
2.46794e-05
2.42183e-05
6.8151e-05
2.92505e-05
2.47959e-05
2.43326e-05
2.45768e-05
2.47758e-05
2.46815e-05
2.42215e-05
6.81997e-05
2.92541e-05
2.47967e-05
2.43334e-05
2.45772e-05
2.47752e-05
2.46797e-05
2.42189e-05
6.81789e-05
2.92668e-05
2.4802e-05
2.4335e-05
2.45781e-05
2.47771e-05
2.4683e-05
2.42227e-05
6.83419e-05
2.93013e-05
2.48146e-05
2.43411e-05
2.45821e-05
2.47803e-05
2.46861e-05
2.4226e-05
6.82633e-05
2.92736e-05
2.4804e-05
2.43365e-05
2.45794e-05
2.47779e-05
2.46833e-05
2.42232e-05
6.81588e-05
2.92563e-05
2.47981e-05
2.43335e-05
2.45778e-05
2.47774e-05
2.46839e-05
2.42244e-05
6.81886e-05
2.92397e-05
2.4791e-05
2.43315e-05
2.4577e-05
2.47756e-05
2.46802e-05
2.422e-05
6.80813e-05
2.92381e-05
2.47908e-05
2.43295e-05
2.4575e-05
2.47753e-05
2.46822e-05
2.42229e-05
6.81197e-05
2.92397e-05
2.47908e-05
2.43299e-05
2.45754e-05
2.4775e-05
2.4681e-05
2.42212e-05
6.81227e-05
2.92534e-05
2.47964e-05
2.43319e-05
2.45765e-05
2.47766e-05
2.46836e-05
2.4224e-05
6.83066e-05
2.92973e-05
2.48145e-05
2.43416e-05
2.45826e-05
2.4781e-05
2.4687e-05
2.42269e-05
6.82041e-05
2.92667e-05
2.48027e-05
2.43361e-05
2.45795e-05
2.47786e-05
2.46847e-05
2.42248e-05
6.81019e-05
2.92483e-05
2.4796e-05
2.43325e-05
2.45773e-05
2.47776e-05
2.46847e-05
2.42256e-05
6.8092e-05
2.92288e-05
2.47877e-05
2.43294e-05
2.45758e-05
2.47756e-05
2.46817e-05
2.42222e-05
6.80152e-05
2.92277e-05
2.47875e-05
2.43279e-05
2.45742e-05
2.47753e-05
2.46831e-05
2.42244e-05
6.80423e-05
2.92271e-05
2.47867e-05
2.43278e-05
2.45744e-05
2.47752e-05
2.46824e-05
2.42233e-05
6.80647e-05
2.92424e-05
2.47927e-05
2.43301e-05
2.45756e-05
2.47766e-05
2.46843e-05
2.42254e-05
6.82776e-05
2.92978e-05
2.48176e-05
2.43444e-05
2.45849e-05
2.47829e-05
2.46885e-05
2.42279e-05
6.81527e-05
2.92641e-05
2.48045e-05
2.43381e-05
2.45812e-05
2.47804e-05
2.46865e-05
2.42265e-05
6.80513e-05
2.92442e-05
2.4797e-05
2.43339e-05
2.45786e-05
2.47789e-05
2.46861e-05
2.42269e-05
6.80105e-05
2.92217e-05
2.47874e-05
2.43298e-05
2.45765e-05
2.4777e-05
2.46838e-05
2.42244e-05
6.79537e-05
2.92211e-05
2.47872e-05
2.43284e-05
2.4575e-05
2.47765e-05
2.46846e-05
2.4226e-05
6.79695e-05
2.92184e-05
2.47855e-05
2.43279e-05
2.4575e-05
2.47764e-05
2.46842e-05
2.42254e-05
6.80088e-05
2.92361e-05
2.47922e-05
2.43305e-05
2.45763e-05
2.47775e-05
2.46856e-05
2.42269e-05
6.82579e-05
2.93048e-05
2.48256e-05
2.43511e-05
2.45902e-05
2.4787e-05
2.46914e-05
2.42296e-05
6.81146e-05
2.92684e-05
2.48113e-05
2.43439e-05
2.4586e-05
2.47843e-05
2.46896e-05
2.42285e-05
6.80089e-05
2.92465e-05
2.48027e-05
2.43391e-05
2.45829e-05
2.47824e-05
2.46889e-05
2.42288e-05
6.79451e-05
2.92212e-05
2.4792e-05
2.43341e-05
2.45802e-05
2.47805e-05
2.46871e-05
2.4227e-05
6.79002e-05
2.9221e-05
2.47915e-05
2.43326e-05
2.45786e-05
2.47796e-05
2.46873e-05
2.42282e-05
6.79068e-05
2.92167e-05
2.47892e-05
2.43317e-05
2.45783e-05
2.47795e-05
2.46871e-05
2.42279e-05
6.79602e-05
2.92374e-05
2.47965e-05
2.43345e-05
2.45797e-05
2.47804e-05
2.46881e-05
2.4229e-05
6.82539e-05
2.93225e-05
2.48414e-05
2.43643e-05
2.46011e-05
2.47955e-05
2.46975e-05
2.42333e-05
6.80961e-05
2.92828e-05
2.48258e-05
2.43562e-05
2.45963e-05
2.47925e-05
2.46959e-05
2.42326e-05
6.79811e-05
2.92585e-05
2.48158e-05
2.43506e-05
2.45926e-05
2.47903e-05
2.46949e-05
2.42327e-05
6.79006e-05
2.92308e-05
2.48043e-05
2.43449e-05
2.45894e-05
2.47883e-05
2.46934e-05
2.42316e-05
6.78606e-05
2.92308e-05
2.48031e-05
2.43429e-05
2.45875e-05
2.4787e-05
2.46932e-05
2.42324e-05
6.78609e-05
2.92256e-05
2.48004e-05
2.43416e-05
2.45869e-05
2.47867e-05
2.4693e-05
2.42322e-05
6.79219e-05
2.92482e-05
2.48078e-05
2.43445e-05
2.45882e-05
2.47875e-05
2.46938e-05
2.4233e-05
6.82791e-05
2.93567e-05
2.48699e-05
2.4389e-05
2.46224e-05
2.48133e-05
2.47114e-05
2.4243e-05
6.8107e-05
2.93138e-05
2.48528e-05
2.43799e-05
2.46169e-05
2.48099e-05
2.47097e-05
2.42426e-05
6.7981e-05
2.92864e-05
2.48412e-05
2.43733e-05
2.46126e-05
2.48074e-05
2.47087e-05
2.42429e-05
6.78863e-05
2.92563e-05
2.48287e-05
2.43668e-05
2.46088e-05
2.4805e-05
2.47073e-05
2.42422e-05
6.78434e-05
2.92543e-05
2.48261e-05
2.43639e-05
2.46063e-05
2.48033e-05
2.47067e-05
2.42426e-05
6.78408e-05
2.925e-05
2.48234e-05
2.43622e-05
2.46052e-05
2.48025e-05
2.47061e-05
2.42421e-05
6.78997e-05
2.92701e-05
2.48299e-05
2.43648e-05
2.46064e-05
2.48032e-05
2.47066e-05
2.42425e-05
6.83456e-05
2.94125e-05
2.49189e-05
2.4434e-05
2.46634e-05
2.48496e-05
2.47426e-05
2.42684e-05
6.81592e-05
2.93664e-05
2.48999e-05
2.44235e-05
2.46569e-05
2.48458e-05
2.47409e-05
2.42684e-05
6.80194e-05
2.93341e-05
2.4886e-05
2.44156e-05
2.46521e-05
2.48431e-05
2.47401e-05
2.42692e-05
6.7915e-05
2.93039e-05
2.48729e-05
2.44083e-05
2.46475e-05
2.48403e-05
2.47387e-05
2.42688e-05
6.78604e-05
2.92963e-05
2.48677e-05
2.4404e-05
2.46441e-05
2.48379e-05
2.47374e-05
2.42686e-05
6.78529e-05
2.92922e-05
2.48645e-05
2.44015e-05
2.4642e-05
2.48361e-05
2.47357e-05
2.42669e-05
6.79097e-05
2.93105e-05
2.48704e-05
2.44038e-05
2.46429e-05
2.48362e-05
2.47353e-05
2.42662e-05
6.86857e-05
6.93781e-05
2.95293e-05
6.91281e-05
2.95384e-05
2.49616e-05
2.44558e-05
2.46762e-05
6.92412e-05
2.95476e-05
2.495e-05
2.44379e-05
2.46573e-05
2.48387e-05
2.47292e-05
2.42551e-05
6.93639e-05
2.96708e-05
2.49783e-05
2.44352e-05
2.46487e-05
2.48357e-05
2.47369e-05
2.42746e-05
6.84133e-05
2.93604e-05
2.48508e-05
2.43637e-05
2.45953e-05
2.4786e-05
2.46854e-05
2.42199e-05
6.86113e-05
2.93938e-05
2.48654e-05
2.43719e-05
2.45982e-05
2.47836e-05
2.46782e-05
2.42091e-05
6.86914e-05
2.94201e-05
2.48844e-05
2.43887e-05
2.46137e-05
2.47983e-05
2.46919e-05
2.42211e-05
6.92081e-05
2.94794e-05
2.49155e-05
2.44188e-05
2.46416e-05
2.48195e-05
2.47049e-05
2.4229e-05
6.90601e-05
2.94908e-05
2.49173e-05
2.44135e-05
2.46369e-05
2.48211e-05
2.47146e-05
2.42435e-05
6.91947e-05
2.95068e-05
2.49145e-05
2.44068e-05
2.46303e-05
2.48158e-05
2.47105e-05
2.42408e-05
6.93076e-05
2.96123e-05
2.49404e-05
2.44072e-05
2.46257e-05
2.48156e-05
2.47187e-05
2.42577e-05
6.83985e-05
2.93434e-05
2.484e-05
2.43566e-05
2.45902e-05
2.47823e-05
2.46827e-05
2.42179e-05
6.85877e-05
2.93756e-05
2.48531e-05
2.43637e-05
2.45933e-05
2.47813e-05
2.46781e-05
2.42108e-05
6.86729e-05
2.94007e-05
2.48674e-05
2.43741e-05
2.46018e-05
2.47889e-05
2.4685e-05
2.42167e-05
6.90759e-05
2.94459e-05
2.48876e-05
2.43919e-05
2.46172e-05
2.47995e-05
2.46898e-05
2.42184e-05
6.90076e-05
2.94613e-05
2.48919e-05
2.4391e-05
2.46172e-05
2.48042e-05
2.47006e-05
2.42325e-05
6.91527e-05
2.94814e-05
2.48934e-05
2.43888e-05
2.46151e-05
2.48033e-05
2.47007e-05
2.42336e-05
6.92687e-05
2.95742e-05
2.4917e-05
2.43905e-05
2.46123e-05
2.48037e-05
2.47075e-05
2.4247e-05
6.83782e-05
2.93286e-05
2.48312e-05
2.43512e-05
2.45869e-05
2.47802e-05
2.46816e-05
2.42178e-05
6.85503e-05
2.93589e-05
2.48432e-05
2.43576e-05
2.459e-05
2.47804e-05
2.4679e-05
2.42133e-05
6.86458e-05
2.93838e-05
2.48549e-05
2.43649e-05
2.45953e-05
2.47848e-05
2.4683e-05
2.42166e-05
6.89728e-05
2.94228e-05
2.48701e-05
2.43766e-05
2.46047e-05
2.47905e-05
2.46846e-05
2.42159e-05
6.89647e-05
2.94419e-05
2.48764e-05
2.4378e-05
2.46064e-05
2.47957e-05
2.46941e-05
2.42278e-05
6.91147e-05
2.94651e-05
2.48805e-05
2.43779e-05
2.46061e-05
2.47962e-05
2.46954e-05
2.42298e-05
6.92415e-05
2.95488e-05
2.49024e-05
2.43805e-05
2.46044e-05
2.47966e-05
2.47006e-05
2.424e-05
6.83498e-05
2.93143e-05
2.48233e-05
2.43465e-05
2.45842e-05
2.47791e-05
2.46816e-05
2.42186e-05
6.85065e-05
2.93432e-05
2.48344e-05
2.43523e-05
2.45873e-05
2.47798e-05
2.46803e-05
2.42158e-05
6.86143e-05
2.9369e-05
2.48452e-05
2.43584e-05
2.45913e-05
2.47828e-05
2.46828e-05
2.42178e-05
6.88886e-05
2.94053e-05
2.48584e-05
2.43672e-05
2.45977e-05
2.47864e-05
2.46833e-05
2.42166e-05
6.89275e-05
2.94282e-05
2.48663e-05
2.43699e-05
2.46001e-05
2.47911e-05
2.4691e-05
2.42259e-05
6.9084e-05
2.94554e-05
2.48728e-05
2.43714e-05
2.46007e-05
2.4792e-05
2.46924e-05
2.42279e-05
6.9224e-05
2.95321e-05
2.48934e-05
2.43747e-05
2.45998e-05
2.47923e-05
2.46961e-05
2.42353e-05
6.83126e-05
2.92999e-05
2.48158e-05
2.43422e-05
2.45819e-05
2.47783e-05
2.4682e-05
2.422e-05
6.84578e-05
2.93281e-05
2.48265e-05
2.43477e-05
2.4585e-05
2.47795e-05
2.46816e-05
2.42183e-05
6.85779e-05
2.93555e-05
2.48373e-05
2.43534e-05
2.45885e-05
2.47819e-05
2.46834e-05
2.42195e-05
6.88178e-05
2.93912e-05
2.485e-05
2.43609e-05
2.45935e-05
2.47846e-05
2.46836e-05
2.42184e-05
6.88958e-05
2.94184e-05
2.48596e-05
2.43648e-05
2.45964e-05
2.47886e-05
2.46895e-05
2.42253e-05
6.90644e-05
2.94523e-05
2.48689e-05
2.43677e-05
2.45976e-05
2.47897e-05
2.46908e-05
2.42269e-05
6.92158e-05
2.95216e-05
2.48884e-05
2.43718e-05
2.45975e-05
2.47899e-05
2.46933e-05
2.42321e-05
6.82669e-05
2.92856e-05
2.4809e-05
2.43384e-05
2.45799e-05
2.47777e-05
2.46827e-05
2.42216e-05
6.84055e-05
2.93137e-05
2.48195e-05
2.43438e-05
2.45831e-05
2.47793e-05
2.46828e-05
2.42206e-05
6.85378e-05
2.93432e-05
2.48308e-05
2.43496e-05
2.45865e-05
2.47815e-05
2.46843e-05
2.42214e-05
6.87575e-05
2.93797e-05
2.48438e-05
2.43567e-05
2.4591e-05
2.47839e-05
2.46846e-05
2.42205e-05
6.88705e-05
2.94125e-05
2.48557e-05
2.43619e-05
2.45943e-05
2.47874e-05
2.4689e-05
2.42254e-05
6.90532e-05
2.94528e-05
2.48678e-05
2.43662e-05
2.45962e-05
2.47885e-05
2.469e-05
2.42264e-05
6.92174e-05
2.95163e-05
2.48866e-05
2.43711e-05
2.45968e-05
2.47888e-05
2.46916e-05
2.42297e-05
6.82144e-05
2.92722e-05
2.48032e-05
2.43354e-05
2.45784e-05
2.47775e-05
2.46835e-05
2.42232e-05
6.83509e-05
2.93007e-05
2.48139e-05
2.43409e-05
2.45817e-05
2.47793e-05
2.46841e-05
2.42227e-05
6.84958e-05
2.93329e-05
2.48261e-05
2.43471e-05
2.45854e-05
2.47816e-05
2.46853e-05
2.42232e-05
6.87061e-05
2.93709e-05
2.484e-05
2.43544e-05
2.45899e-05
2.4784e-05
2.46859e-05
2.42225e-05
6.88553e-05
2.94121e-05
2.48548e-05
2.4361e-05
2.45937e-05
2.47871e-05
2.46892e-05
2.42258e-05
6.90509e-05
2.94563e-05
2.4869e-05
2.43667e-05
2.45963e-05
2.47884e-05
2.46898e-05
2.42261e-05
6.92302e-05
2.95162e-05
2.48878e-05
2.43725e-05
2.45977e-05
2.47889e-05
2.46906e-05
2.42279e-05
6.81582e-05
2.92612e-05
2.47995e-05
2.43337e-05
2.45778e-05
2.47778e-05
2.46846e-05
2.42249e-05
6.82969e-05
2.92907e-05
2.48106e-05
2.43395e-05
2.45814e-05
2.47799e-05
2.46855e-05
2.42247e-05
6.84558e-05
2.93264e-05
2.48241e-05
2.43464e-05
2.45855e-05
2.47823e-05
2.46867e-05
2.42249e-05
6.86646e-05
2.93663e-05
2.4839e-05
2.43543e-05
2.45904e-05
2.47851e-05
2.46875e-05
2.42243e-05
6.88484e-05
2.94157e-05
2.48568e-05
2.43624e-05
2.45948e-05
2.4788e-05
2.46899e-05
2.42263e-05
6.90594e-05
2.94637e-05
2.48733e-05
2.43695e-05
2.45981e-05
2.47895e-05
2.46902e-05
2.4226e-05
6.9257e-05
2.9522e-05
2.48926e-05
2.43765e-05
2.46005e-05
2.47902e-05
2.46905e-05
2.42264e-05
6.81044e-05
2.92556e-05
2.47993e-05
2.43344e-05
2.45787e-05
2.4779e-05
2.46861e-05
2.42267e-05
6.8249e-05
2.92868e-05
2.48111e-05
2.43407e-05
2.45828e-05
2.47815e-05
2.46873e-05
2.42266e-05
6.84247e-05
2.93272e-05
2.48264e-05
2.43486e-05
2.45875e-05
2.47843e-05
2.46886e-05
2.42267e-05
6.86377e-05
2.93689e-05
2.48424e-05
2.43573e-05
2.4593e-05
2.47875e-05
2.46898e-05
2.42262e-05
6.88525e-05
2.94246e-05
2.48628e-05
2.43669e-05
2.45982e-05
2.47905e-05
2.46915e-05
2.42271e-05
6.90826e-05
2.94767e-05
2.48816e-05
2.43756e-05
2.46025e-05
2.47924e-05
2.46917e-05
2.42261e-05
6.93025e-05
2.95354e-05
2.49023e-05
2.4384e-05
2.46059e-05
2.47933e-05
2.46914e-05
2.42255e-05
6.80606e-05
2.92589e-05
2.48045e-05
2.43388e-05
2.45825e-05
2.47822e-05
2.46889e-05
2.4229e-05
6.8215e-05
2.92932e-05
2.48175e-05
2.43459e-05
2.45871e-05
2.47851e-05
2.46904e-05
2.42291e-05
6.84054e-05
2.93365e-05
2.48342e-05
2.43549e-05
2.45927e-05
2.47885e-05
2.46919e-05
2.42291e-05
6.86318e-05
2.93825e-05
2.48522e-05
2.4365e-05
2.45992e-05
2.47924e-05
2.46935e-05
2.42287e-05
6.88726e-05
2.94411e-05
2.48746e-05
2.43762e-05
2.46055e-05
2.47959e-05
2.4695e-05
2.42288e-05
6.91265e-05
2.9498e-05
2.48962e-05
2.43868e-05
2.4611e-05
2.47983e-05
2.46952e-05
2.42275e-05
6.93739e-05
2.95593e-05
2.49191e-05
2.4397e-05
2.46156e-05
2.47997e-05
2.46947e-05
2.4226e-05
6.80288e-05
2.92717e-05
2.48167e-05
2.43494e-05
2.45914e-05
2.47896e-05
2.46948e-05
2.42332e-05
6.81932e-05
2.93084e-05
2.48311e-05
2.43575e-05
2.45969e-05
2.47932e-05
2.46967e-05
2.42336e-05
6.8401e-05
2.93551e-05
2.48497e-05
2.43681e-05
2.46038e-05
2.47976e-05
2.46989e-05
2.42339e-05
6.86475e-05
2.94065e-05
2.48705e-05
2.43801e-05
2.46117e-05
2.48024e-05
2.47011e-05
2.42338e-05
6.89168e-05
2.94689e-05
2.48955e-05
2.43934e-05
2.46196e-05
2.4807e-05
2.4703e-05
2.42338e-05
6.92009e-05
2.9532e-05
2.49207e-05
2.44065e-05
2.46269e-05
2.48103e-05
2.47036e-05
2.42324e-05
6.94821e-05
2.95983e-05
2.49469e-05
2.44193e-05
2.46331e-05
2.48127e-05
2.47033e-05
2.42307e-05
6.80143e-05
2.92959e-05
2.48399e-05
2.43705e-05
2.46102e-05
2.48057e-05
2.47079e-05
2.42429e-05
6.81921e-05
2.93359e-05
2.48562e-05
2.43802e-05
2.4617e-05
2.48104e-05
2.47107e-05
2.4244e-05
6.84214e-05
2.93873e-05
2.48777e-05
2.4393e-05
2.46257e-05
2.48163e-05
2.47141e-05
2.42453e-05
6.8695e-05
2.94455e-05
2.49023e-05
2.44078e-05
2.46359e-05
2.4823e-05
2.47178e-05
2.42464e-05
6.8998e-05
2.95142e-05
2.49312e-05
2.44243e-05
2.46464e-05
2.48294e-05
2.47211e-05
2.42475e-05
6.93205e-05
2.95855e-05
2.49613e-05
2.44411e-05
2.46563e-05
2.48349e-05
2.47232e-05
2.42474e-05
6.96434e-05
2.966e-05
2.49924e-05
2.44574e-05
2.46652e-05
2.48392e-05
2.47244e-05
2.42468e-05
6.80329e-05
2.93391e-05
2.48818e-05
2.44104e-05
2.46474e-05
2.48393e-05
2.47371e-05
2.42668e-05
6.82274e-05
2.93836e-05
2.4901e-05
2.44224e-05
2.46562e-05
2.48458e-05
2.47417e-05
2.42697e-05
6.84835e-05
2.94416e-05
2.49265e-05
2.44386e-05
2.46681e-05
2.48547e-05
2.4748e-05
2.42739e-05
6.87919e-05
2.95088e-05
2.49567e-05
2.44579e-05
2.46821e-05
2.48649e-05
2.47551e-05
2.42785e-05
6.91373e-05
2.95868e-05
2.49917e-05
2.44795e-05
2.4697e-05
2.48754e-05
2.47622e-05
2.42834e-05
6.95087e-05
2.96697e-05
2.5029e-05
2.45018e-05
2.47117e-05
2.48851e-05
2.47686e-05
2.42877e-05
6.98839e-05
2.97557e-05
2.50672e-05
2.45236e-05
2.47253e-05
2.48937e-05
2.4774e-05
2.42916e-05
7.00332e-05
2.96331e-05
2.49292e-05
2.44026e-05
2.46291e-05
2.48248e-05
2.47317e-05
2.4274e-05
7.03791e-05
2.95662e-05
2.49161e-05
2.44143e-05
2.46427e-05
2.48277e-05
2.47205e-05
2.42544e-05
7.04029e-05
2.95671e-05
2.49347e-05
2.44477e-05
2.46897e-05
2.4889e-05
2.47973e-05
2.43472e-05
7.13034e-05
2.95908e-05
2.49933e-05
2.45472e-05
2.48109e-05
2.50185e-05
2.49365e-05
2.45199e-05
6.9884e-05
2.95046e-05
2.49171e-05
2.44358e-05
2.46768e-05
2.48728e-05
2.4776e-05
2.43188e-05
6.97996e-05
2.9468e-05
2.48807e-05
2.43895e-05
2.4616e-05
2.47955e-05
2.46831e-05
2.42135e-05
6.91683e-05
2.94338e-05
2.48743e-05
2.43852e-05
2.46187e-05
2.481e-05
2.47092e-05
2.42439e-05
6.97936e-05
2.96064e-05
2.49151e-05
2.4388e-05
2.46134e-05
2.48087e-05
2.47159e-05
2.42587e-05
6.99831e-05
2.95252e-05
2.48939e-05
2.43917e-05
2.46205e-05
2.48079e-05
2.47037e-05
2.42389e-05
6.9919e-05
2.95162e-05
2.4901e-05
2.44069e-05
2.46416e-05
2.48348e-05
2.4737e-05
2.42785e-05
7.04889e-05
2.9508e-05
2.49199e-05
2.44515e-05
2.46953e-05
2.48857e-05
2.47829e-05
2.43326e-05
6.94853e-05
2.946e-05
2.48837e-05
2.43946e-05
2.46283e-05
2.48189e-05
2.47178e-05
2.42551e-05
6.94224e-05
2.94281e-05
2.48612e-05
2.43719e-05
2.46008e-05
2.47845e-05
2.46762e-05
2.42087e-05
6.89221e-05
2.93994e-05
2.48556e-05
2.43681e-05
2.46022e-05
2.47949e-05
2.46958e-05
2.42321e-05
6.96378e-05
2.95861e-05
2.49056e-05
2.43791e-05
2.46039e-05
2.47986e-05
2.47055e-05
2.42481e-05
6.97201e-05
2.95019e-05
2.48818e-05
2.43789e-05
2.4608e-05
2.47973e-05
2.46954e-05
2.42317e-05
6.961e-05
2.94876e-05
2.48834e-05
2.43859e-05
2.46177e-05
2.48094e-05
2.47102e-05
2.4249e-05
6.99586e-05
2.9466e-05
2.48849e-05
2.44047e-05
2.46405e-05
2.48268e-05
2.472e-05
2.42595e-05
6.92301e-05
2.94339e-05
2.48664e-05
2.43747e-05
2.46064e-05
2.47963e-05
2.46949e-05
2.42311e-05
6.91672e-05
2.94037e-05
2.48504e-05
2.43627e-05
2.45937e-05
2.47808e-05
2.4676e-05
2.42104e-05
6.87654e-05
2.93771e-05