/*--------------------------------*- C++ -*----------------------------------*\
| =========                 |                                                 |
| \\      /  F ield         | OpenFOAM: The Open Source CFD Toolbox           |
|  \\    /   O peration     | Version:  plus.master.MPPICInterFoam            |
|   \\  /    A nd           | Web:      www.OpenFOAM.com                      |
|    \\/     M anipulation  |                                                 |
\*---------------------------------------------------------------------------*/
FoamFile
{
    version     2.0;
    format      ascii;
    class       surfaceScalarField;
    location    "8.2";
    object      phi;
}
// * * * * * * * * * * * * * * * * * * * * * * * * * * * * * * * * * * * * * //

dimensions      [0 3 -1 0 0 0 0];

internalField   nonuniform List<scalar> 
34004
(
1.59424e-08
-2.48125e-09
-1.75827e-06
-2.63808e-08
2.69802e-08
-5.67792e-09
-2.22397e-06
-2.03245e-08
3.39619e-08
-6.55651e-09
-2.58701e-06
-1.72603e-08
3.79581e-08
-6.73149e-09
-2.9315e-06
-1.56372e-08
3.96093e-08
-6.5673e-09
-3.27554e-06
-1.46554e-08
3.94395e-08
-6.19677e-09
-3.62348e-06
-1.40687e-08
3.78706e-08
-5.67548e-09
-3.97564e-06
-1.37871e-08
-5.01607e-09
-4.32972e-06
-1.37956e-08
3.51716e-08
1.81314e-08
-3.41563e-08
-1.76661e-06
3.07338e-08
-3.39323e-08
-2.23397e-06
3.88044e-08
-3.23213e-08
-2.5988e-06
4.35644e-08
-3.08715e-08
-2.94515e-06
4.57226e-08
-2.94176e-08
-3.29122e-06
4.58283e-08
-2.79418e-08
-3.64139e-06
4.43134e-08
-2.64566e-08
-3.99594e-06
-2.49637e-08
-4.35253e-06
4.14312e-08
1.8988e-08
-6.70838e-08
-1.77014e-06
3.2108e-08
-6.30331e-08
-2.23834e-06
4.04462e-08
-5.87768e-08
-2.60409e-06
4.53183e-08
-5.56312e-08
-2.95139e-06
4.74784e-08
-5.28485e-08
-3.29852e-06
4.75171e-08
-5.02541e-08
-3.64987e-06
4.59023e-08
-4.78158e-08
-4.0057e-06
-4.55363e-08
-4.36358e-06
4.29178e-08
1.92174e-08
-1.00309e-07
-1.76834e-06
3.24398e-08
-9.21389e-08
-2.2363e-06
4.08941e-08
-8.52993e-08
-2.60201e-06
4.59332e-08
-8.05553e-08
-2.94934e-06
4.83116e-08
-7.6546e-08
-3.29663e-06
4.86113e-08
-7.29286e-08
-3.64826e-06
4.72839e-08
-6.96192e-08
-4.00446e-06
-6.66093e-08
-4.36277e-06
4.45785e-08
1.76463e-08
-1.31498e-07
-1.76009e-06
2.97059e-08
-1.19365e-07
-2.22674e-06
3.74161e-08
-1.10357e-07
-2.59118e-06
4.20707e-08
-1.0439e-07
-2.93729e-06
4.43601e-08
-9.95117e-08
-3.28343e-06
4.48219e-08
-9.52212e-08
-3.63393e-06
4.38537e-08
-9.13687e-08
-3.98902e-06
-8.79369e-08
-4.34617e-06
4.16581e-08
1.44237e-08
-1.58244e-07
-1.74517e-06
2.40113e-08
-1.4256e-07
-2.20938e-06
3.01983e-08
-1.32178e-07
-2.57122e-06
3.41351e-08
-1.25669e-07
-2.91474e-06
3.63803e-08
-1.20542e-07
-3.2583e-06
3.73692e-08
-1.16153e-07
-3.60621e-06
3.73795e-08
-1.12264e-07
-3.95869e-06
-1.08801e-07
-4.31323e-06
3.64559e-08
6.51878e-09
-1.72359e-06
-1.74923e-07
9.94597e-09
-2.18435e-06
-1.56979e-07
1.17608e-08
-2.54176e-06
-1.46582e-07
1.25856e-08
-2.88071e-06
-1.40382e-07
1.29464e-08
-3.21948e-06
-1.35925e-07
1.32429e-08
-3.56227e-06
-1.32387e-07
1.36961e-08
-3.90929e-06
-1.29423e-07
-4.25805e-06
-1.26926e-07
1.43315e-08
1.56056e-08
-9.32626e-09
-1.74845e-06
-1.60892e-08
2.64774e-08
-1.23902e-08
-2.2121e-06
-1.03562e-08
3.34713e-08
-1.31639e-08
-2.57325e-06
-7.58948e-09
3.75998e-08
-1.3316e-08
-2.9162e-06
-6.10721e-09
3.94812e-08
-1.31379e-08
-3.25903e-06
-5.22673e-09
3.96202e-08
-1.27322e-08
-3.6061e-06
-4.73966e-09
3.84246e-08
-1.21428e-08
-3.95765e-06
-4.56938e-09
-1.13786e-08
-4.31121e-06
-4.70015e-09
3.61464e-08
1.70967e-08
-3.65617e-08
-1.75647e-06
2.89216e-08
-3.63943e-08
-2.22179e-06
3.65253e-08
-3.49523e-08
-2.58462e-06
4.10695e-08
-3.36667e-08
-2.92936e-06
4.32436e-08
-3.23651e-08
-3.27419e-06
4.35904e-08
-3.1015e-08
-3.62348e-06
4.25436e-08
-2.96206e-08
-3.97747e-06
-2.81794e-08
-4.33361e-06
4.03442e-08
1.73677e-08
-6.40617e-08
-1.76001e-06
2.92332e-08
-6.0354e-08
-2.22625e-06
3.6727e-08
-5.65979e-08
-2.58993e-06
4.10963e-08
-5.3832e-08
-2.93559e-06
4.30831e-08
-5.13846e-08
-3.28148e-06
4.32797e-08
-4.90858e-08
-3.63198e-06
4.21642e-08
-4.68998e-08
-3.98729e-06
-4.48253e-08
-4.34477e-06
4.00224e-08
1.70682e-08
-9.09992e-08
-1.75848e-06
2.85942e-08
-8.35436e-08
-2.22465e-06
3.58349e-08
-7.75628e-08
-2.58829e-06
4.00689e-08
-7.34267e-08
-2.93399e-06
4.2047e-08
-6.99439e-08
-3.28005e-06
4.23637e-08
-6.67978e-08
-3.63084e-06
4.1491e-08
-6.39067e-08
-3.98653e-06
-6.12571e-08
-4.34445e-06
3.96901e-08
1.52196e-08
-1.15382e-07
-1.75094e-06
2.53463e-08
-1.04405e-07
-2.21602e-06
3.16175e-08
-9.65676e-08
-2.57846e-06
3.52524e-08
-9.13851e-08
-2.923e-06
3.69601e-08
-8.71777e-08
-3.26794e-06
3.73104e-08
-8.34954e-08
-3.61764e-06
3.67475e-08
-8.02031e-08
-3.97224e-06
-7.72834e-08
-4.32903e-06
3.55059e-08
1.21328e-08
-1.35386e-07
-1.7373e-06
1.99036e-08
-1.21326e-07
-2.20023e-06
2.4661e-08
-1.1228e-07
-2.56026e-06
2.74901e-08
-1.06585e-07
-2.90236e-06
2.89939e-08
-1.0213e-07
-3.24482e-06
2.96557e-08
-9.83415e-08
-3.59196e-06
2.98196e-08
-9.50131e-08
-3.94393e-06
-9.20803e-08
-4.29804e-06
2.95999e-08
5.34745e-09
-1.71774e-06
-1.46591e-07
7.88602e-09
-2.17756e-06
-1.30655e-07
8.86165e-09
-2.5336e-06
-1.21424e-07
8.9532e-09
-2.87154e-06
-1.15865e-07
8.7201e-09
-3.20958e-06
-1.11834e-07
8.62395e-09
-3.55193e-06
-1.08636e-07
8.98696e-09
-3.89876e-06
-1.05991e-07
-4.24739e-06
-1.03817e-07
9.93426e-09
1.47865e-08
-1.56998e-08
-1.74099e-06
-6.5529e-09
2.47742e-08
-1.86779e-08
-2.20235e-06
-1.07845e-09
3.09975e-08
-1.93825e-08
-2.56152e-06
1.41483e-09
3.4501e-08
-1.95299e-08
-2.90297e-06
2.77872e-09
3.59717e-08
-1.93523e-08
-3.24473e-06
3.56063e-09
3.59814e-08
-1.89253e-08
-3.59114e-06
3.93646e-09
3.50087e-08
-1.82825e-08
-3.94239e-06
3.96891e-09
-1.74312e-08
-4.29584e-06
3.66831e-09
3.33519e-08
1.55697e-08
-3.87485e-08
-1.749e-06
2.58838e-08
-3.87068e-08
-2.21209e-06
3.2189e-08
-3.74439e-08
-2.57287e-06
3.56923e-08
-3.63163e-08
-2.91607e-06
3.71541e-08
-3.51517e-08
-3.25984e-06
3.72022e-08
-3.39074e-08
-3.60853e-06
3.63593e-08
-3.25807e-08
-3.9623e-06
-3.11666e-08
-4.31842e-06
3.49395e-08
1.52928e-08
-6.12181e-08
-1.75283e-06
2.51681e-08
-5.7907e-08
-2.21693e-06
3.09612e-08
-5.46169e-08
-2.57856e-06
3.39686e-08
-5.21966e-08
-2.92272e-06
3.50167e-08
-5.00438e-08
-3.26764e-06
3.47966e-08
-4.7996e-08
-3.61768e-06
3.38909e-08
-4.60159e-08
-3.97295e-06
-4.40988e-08
-4.33062e-06
3.26669e-08
1.45326e-08
-8.24082e-08
-1.75182e-06
2.36678e-08
-7.56897e-08
-2.21601e-06
2.88565e-08
-7.04768e-08
-2.57763e-06
3.14328e-08
-6.68785e-08
-2.92189e-06
3.22468e-08
-6.38508e-08
-3.26706e-06
3.20101e-08
-6.1108e-08
-3.61751e-06
3.13196e-08
-5.85747e-08
-3.97331e-06
-5.62373e-08
-4.33157e-06
3.05353e-08
1.2534e-08
-1.00747e-07
-1.74514e-06
2.01229e-08
-9.08772e-08
-2.20843e-06
2.41792e-08
-8.40563e-08
-2.56894e-06
2.59856e-08
-7.95442e-08
-2.91214e-06
2.63663e-08
-7.589e-08
-3.25628e-06
2.60219e-08
-7.26968e-08
-3.60569e-06
2.55356e-08
-6.98461e-08
-3.96045e-06
-6.73227e-08
-4.31762e-06
2.52653e-08
9.70531e-09
-1.14991e-07
-1.73277e-06
1.51508e-08
-1.02416e-07
-2.19414e-06
1.78073e-08
-9.45252e-08
-2.55246e-06
1.88352e-08
-8.9538e-08
-2.89341e-06
1.89709e-08
-8.56487e-08
-3.23522e-06
1.88454e-08
-8.23617e-08
-3.5822e-06
1.89633e-08
-7.95032e-08
-3.93443e-06
-7.70215e-08
-4.28901e-06
1.95751e-08
4.02939e-09
-1.715e-06
-1.2176e-07
5.15693e-09
-2.17355e-06
-1.07562e-07
4.6756e-09
-2.52826e-06
-9.93873e-08
3.4087e-09
-2.86543e-06
-9.4389e-08
2.0422e-09
-3.20311e-06
-9.07398e-08
1.17879e-09
-3.54557e-06
-8.78386e-08
1.30804e-09
-3.89289e-06
-8.54639e-08
-4.2422e-06
-8.35548e-08
2.71505e-09
1.35879e-08
-2.18572e-08
-1.73525e-06
2.52374e-09
2.20433e-08
-2.47569e-08
-2.19389e-06
7.80928e-09
2.6735e-08
-2.53977e-08
-2.55093e-06
1.00893e-08
2.88763e-08
-2.55272e-08
-2.89091e-06
1.13129e-08
2.92845e-08
-2.53283e-08
-3.23179e-06
1.19772e-08
2.86757e-08
-2.48517e-08
-3.5779e-06
1.22214e-08
2.76796e-08
-2.41222e-08
-3.92936e-06
1.20966e-08
-2.31465e-08
-4.28333e-06
1.16129e-08
2.67246e-08
1.36516e-08
-4.09914e-08
-1.74354e-06
2.17943e-08
-4.10874e-08
-2.20392e-06
2.60271e-08
-3.99846e-08
-2.56254e-06
2.77101e-08
-3.89902e-08
-2.90431e-06
2.77624e-08
-3.79326e-08
-3.2473e-06
2.69848e-08
-3.67597e-08
-3.59585e-06
2.60793e-08
-3.54639e-08
-3.95007e-06
-3.40396e-08
-4.30697e-06
2.55131e-08
1.28333e-08
-5.8771e-08
-1.7479e-06
2.00282e-08
-5.58576e-08
-2.20937e-06
2.32997e-08
-5.29807e-08
-2.56884e-06
2.41127e-08
-5.08593e-08
-2.91167e-06
2.3471e-08
-4.8951e-08
-3.25598e-06
2.2259e-08
-4.71028e-08
-3.60613e-06
2.12616e-08
-4.5278e-08
-3.96214e-06
-4.34722e-08
-4.32096e-06
2.10229e-08
1.16591e-08
-7.46664e-08
-1.74759e-06
1.7723e-08
-6.86618e-08
-2.20927e-06
2.00331e-08
-6.4121e-08
-2.5688e-06
2.01042e-08
-6.09823e-08
-2.91184e-06
1.89793e-08
-5.83295e-08
-3.25656e-06
1.75834e-08
-5.59087e-08
-3.60731e-06
1.67374e-08
-5.36531e-08
-3.96409e-06
-5.15519e-08
-4.32376e-06
1.70045e-08
9.59862e-09
-8.75649e-08
-1.74184e-06
1.40247e-08
-7.87341e-08
-2.20278e-06
1.5091e-08
-7.28002e-08
-2.56134e-06
1.42703e-08
-6.88639e-08
-2.90345e-06
1.25979e-08
-6.56726e-08
-3.24727e-06
1.10017e-08
-6.2882e-08
-3.59713e-06
1.03016e-08
-6.03935e-08
-3.95303e-06
-5.81977e-08
-4.31176e-06
1.10665e-08
7.09272e-09
-9.67661e-08
-1.73066e-06
9.64436e-09
-8.55409e-08
-2.18989e-06
9.471e-09
-7.86499e-08
-2.54644e-06
7.95717e-09
-7.42764e-08
-2.88649e-06
6.04647e-09
-7.0858e-08
-3.22812e-06
4.60875e-09
-6.79813e-08
-3.57566e-06
4.39616e-09
-6.55036e-08
-3.92909e-06
-6.33872e-08
-4.28529e-06
5.88655e-09
2.50352e-09
-1.71445e-06
-9.98226e-08
1.61186e-09
-2.17107e-06
-8.71444e-08
-9.60717e-10
-2.52441e-06
-7.99442e-08
-4.28735e-09
-2.86094e-06
-7.54515e-08
-7.37326e-09
-3.19874e-06
-7.21571e-08
-9.40807e-09
-3.54199e-06
-6.95364e-08
-9.66683e-09
-3.89072e-06
-6.74175e-08
-4.24186e-06
-6.57599e-08
-7.65019e-09
1.19709e-08
-2.79876e-08
-1.73066e-06
1.14099e-08
1.82212e-08
-3.07713e-08
-2.18584e-06
1.6433e-08
2.06259e-08
-3.13182e-08
-2.54049e-06
1.8444e-08
2.06372e-08
-3.13927e-08
-2.87904e-06
1.94917e-08
1.92911e-08
-3.1127e-08
-3.21932e-06
1.99856e-08
1.75332e-08
-3.05479e-08
-3.56564e-06
2.00326e-08
1.62324e-08
-2.96736e-08
-3.91808e-06
1.96772e-08
-2.85147e-08
-4.27357e-06
1.89359e-08
1.60313e-08
1.13327e-08
-4.3472e-08
-1.73941e-06
1.65985e-08
-4.36598e-08
-2.19633e-06
1.79341e-08
-4.26685e-08
-2.55254e-06
1.69637e-08
-4.17587e-08
-2.89298e-06
1.48498e-08
-4.07531e-08
-3.23557e-06
1.2657e-08
-3.95902e-08
-3.58463e-06
1.13587e-08
-3.826e-08
-3.94019e-06
-3.67607e-08
-4.29906e-06
1.16733e-08
9.95786e-09
-5.68603e-08
-1.74448e-06
1.3716e-08
-5.42966e-08
-2.20251e-06
1.35851e-08
-5.17613e-08
-2.55963e-06
1.13132e-08
-4.98755e-08
-2.90129e-06
8.17324e-09
-4.81451e-08
-3.24546e-06
5.33599e-09
-4.64259e-08
-3.59646e-06
3.88633e-09
-4.46856e-08
-3.95428e-06
-4.29244e-08
-4.31557e-06
4.64517e-09
8.38427e-09
-6.78285e-08
-1.74501e-06
1.06111e-08
-6.24816e-08
-2.20332e-06
9.14117e-09
-5.85172e-08
-2.56058e-06
5.79834e-09
-5.57589e-08
-2.90262e-06
1.91128e-09
-5.34018e-08
-3.24743e-06
-1.28363e-09
-5.12251e-08
-3.59932e-06
-2.64847e-09
-4.91718e-08
-3.95824e-06
-4.72375e-08
-4.32076e-06
-1.33672e-09
6.30462e-09
-7.57402e-08
-1.74023e-06
6.82517e-09
-6.78701e-08
-2.19793e-06
4.01832e-09
-6.27098e-08
-2.55435e-06
-3.19029e-10
-5.92646e-08
-2.89561e-06
-4.84754e-09
-5.64509e-08
-3.23969e-06
-8.32473e-09
-5.39817e-08
-3.59089e-06
-9.5964e-09
-5.1779e-08
-3.94913e-06
-4.98416e-08
-4.31095e-06
-7.78948e-09
4.17047e-09
-8.04207e-08
-1.73015e-06
3.1014e-09
-7.04216e-08
-2.18629e-06
-6.93559e-10
-6.44504e-08
-2.54092e-06
-5.60779e-09
-6.0586e-08
-2.88025e-06
-1.03225e-08
-5.7576e-08
-3.22228e-06
-1.36551e-08
-5.50466e-08
-3.57125e-06
-1.45184e-08
-5.28914e-08
-3.92711e-06
-5.10889e-08
-4.28643e-06
-1.21201e-08
6.51069e-10
-1.71529e-06
-8.02421e-08
-2.9621e-09
-2.16894e-06
-6.89516e-08
-8.56576e-09
-2.52065e-06
-6.26147e-08
-1.4695e-08
-2.85677e-06
-5.86193e-08
-2.01971e-08
-3.19515e-06
-5.5651e-08
-2.39227e-08
-3.54e-06
-5.32992e-08
-2.48234e-08
-3.89128e-06
-5.14296e-08
-4.24564e-06
-5.00192e-08
-2.21063e-08
9.88324e-09
-3.42201e-08
-1.72652e-06
2.01827e-08
1.31767e-08
-3.67791e-08
-2.17722e-06
2.48323e-08
1.24309e-08
-3.71636e-08
-2.52913e-06
2.65277e-08
9.44125e-09
-3.71109e-08
-2.86629e-06
2.73368e-08
5.54701e-09
-3.66942e-08
-3.20632e-06
2.75802e-08
2.00972e-09
-3.5916e-08
-3.55353e-06
2.73331e-08
2.66808e-11
-3.47914e-08
-3.90795e-06
2.66382e-08
-3.33434e-08
-4.26629e-06
2.55277e-08
5.46119e-10
8.52574e-09
-4.62953e-08
-1.73588e-06
1.00974e-08
-4.64662e-08
-2.18824e-06
7.60755e-09
-4.55078e-08
-2.54173e-06
3.0552e-09
-4.4604e-08
-2.88096e-06
-2.06412e-09
-4.35642e-08
-3.2236e-06
-6.34163e-09
-4.23153e-08
-3.57398e-06
-8.43859e-09
-4.08487e-08
-3.93206e-06
-3.91735e-08
-4.29438e-06
-7.30122e-09
6.55023e-09
-5.55515e-08
-1.74179e-06
5.98467e-09
-5.32359e-08
-2.1952e-06
1.45548e-09
-5.09527e-08
-2.54968e-06
-4.88893e-09
-4.92188e-08
-2.89035e-06
-1.14176e-08
-4.75797e-08
-3.23494e-06
-1.65827e-08
-4.58978e-08
-3.58774e-06
-1.89131e-08
-4.41471e-08
-3.94867e-06
-4.23382e-08
-4.3141e-06
-1.72259e-08
4.56487e-09
-6.1887e-08
-1.74326e-06
2.01215e-09
-5.71093e-08
-2.19692e-06
-4.25052e-09
-5.36254e-08
-2.55167e-06
-1.20126e-08
-5.11611e-08
-2.89293e-06
-1.95682e-08
-4.90149e-08
-3.23845e-06
-2.52887e-08
-4.69944e-08
-3.59251e-06
-2.7624e-08
-4.50589e-08
-3.955e-06
-4.32166e-08
-4.32217e-06
-2.53265e-08
2.49525e-09
-6.51524e-08
-1.73948e-06
-1.86343e-09
-5.81602e-08
-2.19253e-06
-9.5348e-09
-5.37004e-08
-2.54661e-06
-1.83669e-08
-5.06556e-08
-2.88728e-06
-2.66396e-08
-4.81466e-08
-3.23229e-06
-3.26979e-08
-4.59302e-08
-3.58589e-06
-3.49718e-08
-4.39502e-08
-3.94796e-06
-4.22178e-08
-4.31471e-06
-3.21935e-08
7.73722e-10
-6.56889e-08
-1.7304e-06
-4.81275e-09
-5.68486e-08
-2.18201e-06
-1.32941e-08
-5.16887e-08
-2.53444e-06
-2.25331e-08
-4.83011e-08
-2.87336e-06
-3.08952e-08
-4.56392e-08
-3.21641e-06
-3.67881e-08
-4.34123e-08
-3.56786e-06
-3.87042e-08
-4.1543e-08
-3.92758e-06
-4.0025e-08
-4.29186e-06
-3.54505e-08
-1.78004e-09
-1.71662e-06
-6.25794e-08
-8.99901e-09
-2.16592e-06
-5.26392e-08
-1.85538e-08
-2.51567e-06
-4.70909e-08
-2.84664e-08
-2.85158e-06
-4.35651e-08
-3.72066e-08
-3.19111e-06
-4.09244e-08
-4.32549e-08
-3.5385e-06
-3.88513e-08
-4.51583e-08
-3.89366e-06
-3.72485e-08
-4.25296e-06
-3.61065e-08
-4.17472e-08
7.21301e-09
-4.05847e-08
-1.72202e-06
2.88603e-08
6.65837e-09
-4.27312e-08
-2.1669e-06
3.29833e-08
1.76346e-09
-4.28415e-08
-2.51563e-06
3.42583e-08
-5.21263e-09
-4.25431e-08
-2.85147e-06
3.47128e-08
-1.2547e-08
-4.18403e-08
-3.19171e-06
3.45686e-08
-1.85861e-08
-4.0707e-08
-3.54065e-06
3.38693e-08
-2.17293e-08
-3.91638e-08
-3.8983e-06
3.26616e-08
-3.72601e-08
-4.26111e-06
3.10079e-08
-2.06419e-08
5.08172e-09
-4.9478e-08
-1.73206e-06
1.96834e-09
-4.94441e-08
-2.17841e-06
-5.39656e-09
-4.84116e-08
-2.5288e-06
-1.45505e-08
-4.73984e-08
-2.86696e-06
-2.3598e-08
-4.61926e-08
-3.21021e-06
-3.0705e-08
-4.47116e-08
-3.56287e-06
-3.41025e-08
-4.2953e-08
-3.92488e-06
-4.09512e-08
-4.29246e-06
-3.2321e-08
2.46254e-09
-5.48296e-08
-1.73891e-06
-3.51737e-09
-5.25941e-08
-2.18609e-06
-1.35485e-08
-5.04783e-08
-2.53761e-06
-2.50186e-08
-4.8784e-08
-2.87752e-06
-3.58838e-08
-4.71144e-08
-3.22318e-06
-4.41513e-08
-4.53407e-08
-3.57886e-06
-4.78931e-08
-4.34481e-08
-3.94444e-06
-4.14686e-08
-4.31598e-06
-4.54926e-08
5.20338e-11
-5.6781e-08
-1.74138e-06
-8.36309e-09
-5.24607e-08
-2.18867e-06
-2.05835e-08
-4.93691e-08
-2.54058e-06
-3.38461e-08
-4.71019e-08
-2.88138e-06
-4.60311e-08
-4.50667e-08
-3.22833e-06
-5.50563e-08
-4.31035e-08
-3.58574e-06
-5.88974e-08
-4.11895e-08
-3.95342e-06
-3.93512e-08
-4.32733e-06
-5.58602e-08
-2.04631e-09
-5.56709e-08
-1.73856e-06
-1.22999e-08
-4.95304e-08
-2.18522e-06
-2.60289e-08
-4.56458e-08
-2.53661e-06
-4.04398e-08
-4.29432e-08
-2.87704e-06
-5.34084e-08
-4.06738e-08
-3.22371e-06
-6.28251e-08
-3.86513e-08
-3.58093e-06
-6.66376e-08
-3.6844e-08
-3.94849e-06
-3.52757e-08
-4.32229e-06
-6.31249e-08
-3.38588e-09
-5.23498e-08
-1.73034e-06
-1.45553e-08
-4.46839e-08
-2.17568e-06
-2.8785e-08
-4.02404e-08
-2.5256e-06
-4.34031e-08
-3.7287e-08
-2.86438e-06
-5.63425e-08
-3.49502e-08
-3.20918e-06
-6.55511e-08
-3.30128e-08
-3.56427e-06
-6.90365e-08
-3.14264e-08
-3.9295e-06
-3.01959e-08
-4.30082e-06
-6.51463e-08
-4.99582e-09
-1.7174e-06
-4.65674e-08
-1.69616e-08
-2.16066e-06
-3.79428e-08
-3.15253e-08
-2.50815e-06
-3.31675e-08
-4.62372e-08
-2.84402e-06
-3.01101e-08
-5.91325e-08
-3.18532e-06
-2.78218e-08
-6.8239e-08
-3.53632e-06
-2.60688e-08
-7.16332e-08
-3.89689e-06
-2.4786e-08
-4.2631e-06
-2.39697e-08
-6.77017e-08
3.81125e-09
-4.69918e-08
-1.71621e-06
3.73807e-08
-1.69906e-09
-4.84393e-08
-2.1536e-06
4.07084e-08
-1.18201e-08
-4.81375e-08
-2.49872e-06
4.13961e-08
-2.38304e-08
-4.74105e-08
-2.83333e-06
4.13223e-08
-3.55669e-08
-4.62083e-08
-3.17431e-06
4.05798e-08
-4.49202e-08
-4.44827e-08
-3.52596e-06
3.91858e-08
-4.98288e-08
-4.22693e-08
-3.88829e-06
3.7204e-08
-3.96657e-08
-4.25748e-06
3.47499e-08
-4.85135e-08
8.71671e-10
-5.29365e-08
-1.72696e-06
-8.05005e-09
-5.24414e-08
-2.16547e-06
-2.14425e-08
-5.11834e-08
-2.51234e-06
-3.6276e-08
-4.98894e-08
-2.84963e-06
-5.02186e-08
-4.83235e-08
-3.19414e-06
-6.09779e-08
-4.63961e-08
-3.55019e-06
-6.63086e-08
-4.41224e-08
-3.91768e-06
-4.15798e-08
-4.29256e-06
-6.42831e-08
-2.54817e-09
-5.45963e-08
-1.73471e-06
-1.50623e-08
-5.22864e-08
-2.17375e-06
-3.17691e-08
-5.01577e-08
-2.52194e-06
-4.9443e-08
-4.83614e-08
-2.86139e-06
-6.56138e-08
-4.65021e-08
-3.20884e-06
-7.78156e-08
-4.44654e-08
-3.5686e-06
-8.36278e-08
-4.2257e-08
-3.9405e-06
-3.99432e-08
-4.32028e-06
-8.09672e-08
-5.50535e-09
-5.24132e-08
-1.73807e-06
-2.09711e-08
-4.8462e-08
-2.17706e-06
-4.02437e-08
-4.56156e-08
-2.52588e-06
-6.00491e-08
-4.34374e-08
-2.86652e-06
-7.78185e-08
-4.14032e-08
-3.21568e-06
-9.09746e-08
-3.9386e-08
-3.57768e-06
-9.69897e-08
-3.73858e-08
-3.95229e-06
-3.54533e-08
-4.33512e-06
-9.36974e-08
-7.69739e-09
-4.72008e-08
-1.73609e-06
-2.50677e-08
-4.18684e-08
-2.17446e-06
-4.58856e-08
-3.84746e-08
-2.52295e-06
-6.68983e-08
-3.60492e-08
-2.86342e-06
-8.55066e-08
-3.39689e-08
-3.21255e-06
-9.90965e-08
-3.20998e-08
-3.57463e-06
-1.05108e-07
-3.04343e-08
-3.94944e-06
-2.9008e-08
-4.3325e-06
-1.01349e-07
-8.65068e-09
-4.03037e-08
-1.72859e-06
-2.65578e-08
-3.37992e-08
-2.16582e-06
-4.76004e-08
-3.00382e-08
-2.51298e-06
-6.8622e-08
-2.75078e-08
-2.85189e-06
-8.70753e-08
-2.55076e-08
-3.19918e-06
-1.00401e-07
-2.38885e-08
-3.55915e-06
-1.06099e-07
-2.26267e-08
-3.93161e-06
-2.17302e-08
-4.31216e-06
-1.02037e-07
-9.32219e-09
-1.71632e-06
-3.20438e-08
-2.71688e-08
-2.15182e-06
-2.47515e-08
-4.7865e-08
-2.49669e-06
-2.07708e-08
-6.8434e-08
-2.8327e-06
-1.82201e-08
-8.64369e-08
-3.17644e-06
-1.63537e-08
-9.94054e-08
-3.5322e-06
-1.50145e-08
-1.04915e-07
-3.89982e-06
-1.41609e-08
-4.27507e-06
-1.37816e-08
-1.00883e-07
-5.18833e-10
-5.32169e-08
-1.70798e-06
4.55325e-08
-1.20748e-08
-5.36458e-08
-2.13599e-06
4.76616e-08
-2.86193e-08
-5.26595e-08
-2.47703e-06
4.75646e-08
-4.67469e-08
-5.12512e-08
-2.8106e-06
4.66902e-08
-6.38705e-08
-4.92517e-08
-3.15293e-06
4.5039e-08
-7.74161e-08
-4.66029e-08
-3.50838e-06
4.26038e-08
-8.48392e-08
-4.33761e-08
-3.87695e-06
3.94846e-08
-3.97458e-08
-4.25453e-06
3.58809e-08
-8.38956e-08
-4.44966e-09
-5.64473e-08
-1.71925e-06
-2.03294e-08
-5.52325e-08
-2.14796e-06
-4.08054e-08
-5.3491e-08
-2.49101e-06
-6.23175e-08
-5.16797e-08
-2.82766e-06
-8.20916e-08
-4.9488e-08
-3.17411e-06
-9.73547e-08
-4.68254e-08
-3.53468e-06
-1.05379e-07
-4.37413e-08
-3.90927e-06
-4.03795e-08
-4.29352e-06
-1.03779e-07
-8.78585e-09
-5.47035e-08
-1.72766e-06
-2.90003e-08
-5.20892e-08
-2.15667e-06
-5.33559e-08
-4.97484e-08
-2.50132e-06
-7.81888e-08
-4.76567e-08
-2.84058e-06
-1.00562e-07
-4.54019e-08
-3.19055e-06
-1.17521e-07
-4.28852e-08
-3.55557e-06
-1.26169e-07
-4.01434e-08
-3.93545e-06
-3.72932e-08
-4.32556e-06
-1.23979e-07
-1.23916e-08
-4.86979e-08
-1.73169e-06
-3.59721e-08
-4.49553e-08
-2.16062e-06
-6.32616e-08
-4.22145e-08
-2.50613e-06
-9.05334e-08
-4.00014e-08
-2.84691e-06
-1.14743e-07
-3.78452e-08
-3.19904e-06
-1.32821e-07
-3.56522e-08
-3.56684e-06
-1.4177e-07
-3.34498e-08
-3.95004e-06
-3.13191e-08
-4.34388e-06
-1.38989e-07
-1.47015e-08
-3.96963e-08
-1.7304e-06
-4.02201e-08
-3.50968e-08
-2.15881e-06
-6.9104e-08
-3.21305e-08
-2.50415e-06
-9.76282e-08
-2.99367e-08
-2.84497e-06
-1.22712e-07
-2.80161e-08
-3.19731e-06
-1.41249e-07
-2.62846e-08
-3.56548e-06
-1.5021e-07
-2.47568e-08
-3.94918e-06
-2.34764e-08
-4.34358e-06
-1.4698e-07
-1.5225e-08
-2.95134e-08
-1.72355e-06
-4.09307e-08
-2.41815e-08
-2.15102e-06
-6.97831e-08
-2.11119e-08
-2.49514e-06
-9.81295e-08
-1.90369e-08
-2.83444e-06
-1.22938e-07
-1.74337e-08
-3.18495e-06
-1.41155e-07
-1.62167e-08
-3.55101e-06
-1.49806e-07
-1.5378e-08
-3.93234e-06
-1.49153e-08
-4.3242e-06
-1.46328e-07
-1.49171e-08
-1.71193e-06
-1.89648e-08
-3.97874e-08
-2.138e-06
-1.30972e-08
-6.76793e-08
-2.47991e-06
-9.97353e-09
-9.50826e-08
-2.81628e-06
-8.03335e-09
-1.1908e-07
-3.16313e-06
-6.73112e-09
-1.36711e-07
-3.52479e-06
-5.97666e-09
-1.45073e-07
-3.90109e-06
-5.73718e-09
-4.28743e-06
-5.97345e-09
-1.41648e-07
-5.98775e-09
-5.88958e-08
-1.69595e-06
5.28855e-08
-2.48255e-08
-5.78898e-08
-2.11268e-06
5.34433e-08
-4.87567e-08
-5.58911e-08
-2.44938e-06
5.2187e-08
-7.3947e-08
-5.34501e-08
-2.7821e-06
5.01544e-08
-9.73597e-08
-5.02622e-08
-3.12643e-06
4.71824e-08
-1.15953e-07
-4.62712e-08
-3.48677e-06
4.32586e-08
-1.26723e-07
-4.16103e-08
-3.86311e-06
3.85484e-08
-3.65643e-08
-4.25106e-06
3.33721e-08
-1.26993e-07
-1.10631e-08
-5.97292e-08
-1.70733e-06
-3.49245e-08
-5.73998e-08
-2.12457e-06
-6.33605e-08
-5.48824e-08
-2.46356e-06
-9.23886e-08
-5.22478e-08
-2.79982e-06
-1.18786e-07
-4.90944e-08
-3.14886e-06
-1.39326e-07
-4.5343e-08
-3.51505e-06
-1.50855e-07
-4.1098e-08
-3.89824e-06
-3.6596e-08
-4.29374e-06
-1.50585e-07
-1.63998e-08
-5.49377e-08
-1.71604e-06
-4.51971e-08
-5.16976e-08
-2.13355e-06
-7.79967e-08
-4.89192e-08
-2.47447e-06
-1.10713e-07
-4.63002e-08
-2.81379e-06
-1.39967e-07
-4.34048e-08
-3.16697e-06
-1.62372e-07
-4.01566e-08
-3.53834e-06
-1.74639e-07
-3.66381e-08
-3.92762e-06
-3.30321e-08
-4.32986e-06
-1.7388e-07
-2.06302e-08
-4.55087e-08
-1.72049e-06
-5.31704e-08
-4.177e-08
-2.13799e-06
-8.92002e-08
-3.89936e-08
-2.48001e-06
-1.24577e-07
-3.66134e-08
-2.82121e-06
-1.55822e-07
-3.42076e-08
-3.17698e-06
-1.79448e-07
-3.17178e-08
-3.55164e-06
-1.92091e-07
-2.92035e-08
-3.94482e-06
-2.67803e-08
-4.35138e-06
-1.90817e-07
-2.30359e-08
-3.31206e-08
-1.71975e-06
-5.75515e-08
-2.91886e-08
-2.13685e-06
-9.52055e-08
-2.66025e-08
-2.47888e-06
-1.31852e-07
-2.46187e-08
-2.82031e-06
-1.63977e-07
-2.28577e-08
-3.17652e-06
-1.88065e-07
-2.12824e-08
-3.55182e-06
-2.00732e-07
-1.99243e-08
-3.94578e-06
-1.88283e-08
-4.35321e-06
-1.9904e-07
-2.31094e-08
-2.00255e-08
-1.71352e-06
-5.75019e-08
-1.59286e-08
-2.12987e-06
-9.4902e-08
-1.35979e-08
-2.47073e-06
-1.31214e-07
-1.20628e-08
-2.81067e-06
-1.62971e-07
-1.09743e-08
-3.16507e-06
-1.86703e-07
-1.03055e-08
-3.53825e-06
-1.99068e-07
-1.00507e-08
-3.92985e-06
-1.01779e-08
-4.33474e-06
-1.97172e-07
-2.18374e-08
-1.70265e-06
-7.44925e-09
-5.47143e-08
-2.11782e-06
-3.20036e-09
-9.0635e-08
-2.45648e-06
-1.08098e-09
-1.25594e-07
-2.79341e-06
4.29739e-11
-1.56278e-07
-3.14401e-06
6.01718e-10
-1.79268e-07
-3.51263e-06
5.25218e-10
-1.91254e-07
-3.89902e-06
-1.3548e-10
-4.29825e-06
-1.20348e-09
-1.89405e-07
-1.2855e-08
-6.35536e-08
-1.6785e-06
5.89673e-08
-3.98215e-08
-6.05915e-08
-2.08256e-06
5.74058e-08
-7.18954e-08
-5.71886e-08
-2.41472e-06
5.45799e-08
-1.04843e-07
-5.3292e-08
-2.74682e-06
5.09392e-08
-1.35206e-07
-4.84589e-08
-3.09377e-06
4.61517e-08
-1.59532e-07
-4.26598e-08
-3.46001e-06
4.02273e-08
-1.74445e-07
-3.61213e-08
-3.8455e-06
3.34324e-08
-2.92681e-08
-4.24555e-06
2.62441e-08
-1.7691e-07
-1.89927e-08
-6.23558e-08
-1.68955e-06
-5.15434e-08
-5.84456e-08
-2.09418e-06
-8.85075e-08
-5.48189e-08
-2.42897e-06
-1.25539e-07
-5.10048e-08
-2.76508e-06
-1.59026e-07
-4.65131e-08
-3.11732e-06
-1.8538e-07
-4.12953e-08
-3.49005e-06
-2.01135e-07
-3.55363e-08
-3.88304e-06
-2.95859e-08
-4.2913e-06
-2.0321e-07
-2.52395e-08
-5.49709e-08
-1.69818e-06
-6.3202e-08
-5.07602e-08
-2.10326e-06
-1.04835e-07
-4.72918e-08
-2.44034e-06
-1.45723e-07
-4.3892e-08
-2.77999e-06
-1.82134e-07
-4.00977e-08
-3.13695e-06
-2.10374e-07
-3.58683e-08
-3.51549e-06
-2.2691e-07
-3.13464e-08
-3.91523e-06
-2.67915e-08
-4.33089e-06
-2.28615e-07
-3.00201e-08
-4.26683e-08
-1.70275e-06
-7.19996e-08
-3.87322e-08
-2.108e-06
-1.17028e-07
-3.57757e-08
-2.44647e-06
-1.60661e-07
-3.31033e-08
-2.78833e-06
-1.99093e-07
-3.03351e-08
-3.14827e-06
-2.28567e-07
-2.74513e-08
-3.53054e-06
-2.45511e-07
-2.45469e-08
-3.93462e-06
-2.17712e-08
-4.35506e-06
-2.46794e-07
-3.25005e-08
-2.746e-08
-1.70244e-06
-7.64658e-08
-2.41511e-08
-2.10744e-06
-1.23105e-07
-2.19213e-08
-2.44606e-06
-1.67982e-07
-2.01594e-08
-2.78835e-06
-2.07267e-07
-1.85976e-08
-3.14894e-06
-2.37182e-07
-1.72386e-08
-3.53207e-06
-2.54157e-07
-1.61241e-08
-3.93718e-06
-1.52894e-08
-4.35873e-06
-2.55064e-07
-3.21372e-08
-1.19697e-08
-1.69686e-06
-7.57199e-08
-9.20482e-09
-2.1012e-06
-1.21935e-07
-7.70177e-09
-2.43871e-06
-1.66376e-07
-6.84242e-09
-2.77953e-06
-2.05247e-07
-6.45159e-09
-3.13832e-06
-2.34806e-07
-6.53658e-09
-3.51937e-06
-2.51509e-07
-7.07911e-09
-3.92216e-06
-8.00038e-09
-4.34124e-06
-2.52256e-07
-2.99554e-08
-1.68688e-06
2.22787e-09
-7.14646e-08
-2.09017e-06
4.6722e-09
-1.15818e-07
-2.42545e-06
5.63625e-09
-1.58686e-07
-2.76317e-06
5.8012e-09
-1.9635e-07
-3.11806e-06
5.27396e-09
-2.25112e-07
-3.49444e-06
4.05235e-09
-2.41442e-07
-3.89195e-06
2.20505e-09
-4.30531e-06
-1.43165e-10
-2.42193e-07
-2.09947e-08
-6.66013e-08
-1.65409e-06
6.31672e-08
-5.6614e-08
-6.11235e-08
-2.04473e-06
5.88802e-08
-9.7168e-08
-5.5891e-08
-2.37232e-06
5.40236e-08
-1.38116e-07
-5.00905e-08
-2.70407e-06
4.82771e-08
-1.75663e-07
-4.31588e-08
-3.05422e-06
4.11601e-08
-2.06059e-07
-3.51268e-08
-3.42721e-06
3.27437e-08
-2.25682e-07
-2.63448e-08
-3.82292e-06
2.34325e-08
-1.73909e-08
-4.23641e-06
1.38809e-08
-2.31249e-07
-2.79931e-08
-6.37994e-08
-1.66438e-06
-6.95158e-08
-5.78529e-08
-2.05593e-06
-1.15057e-07
-5.27635e-08
-2.38656e-06
-1.60035e-07
-4.74118e-08
-2.72276e-06
-2.0057e-07
-4.12285e-08
-3.07868e-06
-2.32858e-07
-3.42226e-08
-3.45862e-06
-2.53277e-07
-2.66799e-08
-3.86223e-06
-1.90691e-08
-4.28426e-06
-2.58566e-07
-3.49794e-08
-5.44166e-08
-1.67258e-06
-8.21576e-08
-4.89113e-08
-2.065e-06
-1.32397e-07
-4.45032e-08
-2.39834e-06
-1.8112e-07
-4.0086e-08
-2.73856e-06
-2.24389e-07
-3.51727e-08
-3.09968e-06
-2.58379e-07
-2.97739e-08
-3.48589e-06
-2.79486e-07
-2.41016e-08
-3.89664e-06
-1.84892e-08
-4.32641e-06
-2.84474e-07
-4.01727e-08
-3.99844e-08
-1.677e-06
-9.14709e-08
-3.56713e-08
-2.0699e-06
-1.45085e-07
-3.24107e-08
-2.4049e-06
-1.96465e-07
-2.93512e-08
-2.74763e-06
-2.4164e-07
-2.61505e-08
-3.11205e-06
-2.76766e-07
-2.28303e-08
-3.50229e-06
-2.98247e-07
-1.95199e-08
-3.91765e-06
-1.63945e-08
-4.35245e-06
-3.02871e-07
-4.26925e-08
-2.27321e-08
-1.67697e-06
-9.59328e-08
-2.00248e-08
-2.06979e-06
-1.5109e-07
-1.81606e-08
-2.40511e-06
-2.03638e-07
-1.66706e-08
-2.74843e-06
-2.49601e-07
-1.5388e-08
-3.11368e-06
-2.8513e-07
-1.43461e-08
-3.50496e-06
-3.06638e-07
-1.35867e-08
-3.92154e-06
-1.31243e-08
-4.35764e-06
-3.10926e-07
-4.19415e-08
-5.55158e-09
-1.67207e-06
-9.46076e-08
-4.25478e-09
-2.06427e-06
-1.4924e-07
-3.71651e-09
-2.39849e-06
-2.01318e-07
-3.71916e-09
-2.74036e-06
-2.46884e-07
-4.24269e-09
-3.10386e-06
-2.82105e-07
-5.31345e-09
-3.49313e-06
-3.03408e-07
-6.88058e-09
-3.9075e-06
-8.80126e-09
-4.3413e-06
-3.07606e-07
-3.89981e-08
-1.66319e-06
9.77824e-09
-8.92312e-08
-2.05428e-06
1.01104e-08
-1.4183e-07
-2.3862e-06
9.65539e-09
-1.92288e-07
-2.72491e-06
8.50153e-09
-2.36672e-07
-3.08445e-06
6.56593e-09
-2.71155e-07
-3.46907e-06
3.83867e-09
-2.92124e-07
-3.87823e-06
4.31159e-10
-4.30646e-06
-3.30435e-09
-2.96398e-07
-3.00787e-08
-6.74171e-08
-1.62145e-06
6.48327e-08
-7.43615e-08
-5.89252e-08
-1.99875e-06
5.72437e-08
-1.23139e-07
-5.14634e-08
-2.32195e-06
4.9897e-08
-1.71711e-07
-4.33745e-08
-2.65367e-06
4.15859e-08
-2.16075e-07
-3.40064e-08
-3.00752e-06
3.17219e-08
-2.52335e-07
-2.34852e-08
-3.38789e-06
2.04814e-08
-2.76767e-07
-1.23011e-08
-3.79455e-06
8.43093e-09
-1.17313e-09
-4.22238e-06
-3.60776e-09
-2.85933e-07
-3.76288e-08
-6.35462e-08
-1.63061e-06
-8.77786e-08
-5.51779e-08
-2.0095e-06
-1.41261e-07
-4.8316e-08
-2.33618e-06
-1.9345e-07
-4.11433e-08
-2.67276e-06
-2.40349e-07
-3.30332e-08
-3.03271e-06
-2.78108e-07
-2.40755e-08
-3.42022e-06
-3.03097e-07
-1.46642e-08
-3.83482e-06
-5.36724e-09
-4.27113e-06
-3.11972e-07
-4.50788e-08
-5.29045e-08
-1.63813e-06
-1.00808e-07
-4.5846e-08
-2.01856e-06
-1.58686e-07
-4.02988e-08
-2.34843e-06
-2.14179e-07
-3.47007e-08
-2.68946e-06
-2.63323e-07
-2.85527e-08
-3.05497e-06
-3.02354e-07
-2.19269e-08
-3.44895e-06
-3.27747e-07
-1.51025e-08
-3.87075e-06
-8.46639e-09
-4.31475e-06
-3.36246e-07
-5.04582e-08
-3.72782e-08
-1.64214e-06
-1.10185e-07
-3.24563e-08
-2.02351e-06
-1.7121e-07
-2.88136e-08
-2.35531e-06
-2.29098e-07
-2.533e-08
-2.69906e-06
-2.79903e-07
-2.16996e-08
-3.06805e-06
-3.19869e-07
-1.79845e-08
-3.4662e-06
-3.4551e-07
-1.43405e-08
-3.89272e-06
-1.09526e-08
-4.34181e-06
-3.53611e-07
-5.29515e-08
-1.89714e-08
-1.64229e-06
-1.14506e-07
-1.68682e-08
-2.02377e-06
-1.76945e-07
-1.5413e-08
-2.35601e-06
-2.35886e-07
-1.42808e-08
-2.70048e-06
-2.87389e-07
-1.33913e-08
-3.07043e-06
-3.27706e-07
-1.2797e-08
-3.46978e-06
-3.53362e-07
-1.25289e-08
-3.89764e-06
-1.25712e-08
-4.34817e-06
-3.61156e-07
-5.18926e-08
-1.02384e-09
-1.63809e-06
-1.12764e-07
-1.3219e-09
-2.01889e-06
-1.7466e-07
-1.90565e-09
-2.35005e-06
-2.33173e-07
-2.97262e-09
-2.6931e-06
-2.84361e-07
-4.62974e-09
-3.06137e-06
-3.24476e-07
-6.90095e-09
-3.45885e-06
-3.50041e-07
-9.68744e-09
-3.88472e-06
-1.27816e-08
-4.3332e-06
-3.57859e-07
-4.84146e-08
-1.63049e-06
1.47163e-08
-1.06741e-07
-2.00993e-06
1.27007e-08
-1.66665e-07
-2.33871e-06
1.05633e-08
-2.23713e-07
-2.67856e-06
7.77749e-09
-2.73921e-07
-3.04292e-06
4.10694e-09
-3.13472e-07
-3.43588e-06
-4.66616e-10
-3.38897e-07
-3.85681e-06
-5.61104e-09
-4.30008e-06
-1.10427e-08
-3.46933e-07