/*--------------------------------*- C++ -*----------------------------------*\
| =========                 |                                                 |
| \\      /  F ield         | OpenFOAM: The Open Source CFD Toolbox           |
|  \\    /   O peration     | Version:  plus.master.MPPICInterFoam            |
|   \\  /    A nd           | Web:      www.OpenFOAM.com                      |
|    \\/     M anipulation  |                                                 |
\*---------------------------------------------------------------------------*/
FoamFile
{
    version     2.0;
    format      ascii;
    class       vectorField;
    location    "1.2/lagrangian/kinematicCloud";
    object      UCorrect;
}
// * * * * * * * * * * * * * * * * * * * * * * * * * * * * * * * * * * * * * //


96607
(
(-1.66697e-05 -3.5735e-05 9.49265e-05)
(0.0248524 -0.0147737 0.00410053)
(-0.000107076 0.00991437 0.0010326)
(0.00169153 0.0011552 0.00716497)
(-0.000190694 -0.00724851 0.000176498)
(-0.00379891 -0.00863548 0.000457435)
(0.00860438 -0.00933296 0.00358975)
(-0.000668316 -0.000288853 0.00159392)
(0.00799136 0.0268753 0.00403617)
(-0.000839651 0.000801536 2.39058e-06)
(4.80318e-06 0.00837291 0.00605776)
(0.00458072 0.00831559 0.00152004)
(0.00867217 0.00493274 0.00127637)
(-0.000568135 -0.00694722 0.000634084)
(0.000947567 0.00992381 0.00703103)
(0.00884281 1.59316e-05 0.00122211)
(0.000391023 -0.00108343 -4.11568e-07)
(-0.00340858 0.000616277 0.00373805)
(-0.00644648 0.0149195 0.00478742)
(-0.00711845 0.00423774 0.00294988)
(0.00486332 0.0115535 0.00394585)
(-0.000107076 0.0106547 4.59038e-05)
(-0.00530252 0.00292377 0.00430399)
(-0.00270422 -0.017267 0.00140303)
(-0.00613158 -0.002587 0.00404203)
(-0.00468901 -0.00290373 7.00713e-05)
(0.0128991 0.00190977 0.00445509)
(-0.000607865 -0.000165938 -4.33411e-07)
(0.000722624 0.000496285 2.43463e-07)
(-0.00844226 0.000252061 0.00395483)
(-0.00658912 0.00163717 0.000214433)
(-0.000107076 0.00984863 0.0010326)
(-0.00329924 -0.0114438 0.00398433)
(-0.000698458 -0.00917992 0.00396009)
(-0.0124361 0.00568976 0.00399475)
(0.0051254 -0.00205565 0.000781805)
(-0.00779786 0.00706123 0.0100568)
(-0.00690792 0.00863154 0.00504228)
(0.00804435 0.00839606 0.00143143)
(0.00510055 0.00209083 0.00395008)
(0.000231328 0.0140749 0.00637956)
(6.28503e-05 0.00467756 0.0058246)
(-0.00218681 0.00125107 0.000236791)
(-0.00184025 -0.000276135 0.00178374)
(0.00850064 0.000187018 0.0037891)
(-0.00861434 -0.00929515 0.000331856)
(-0.00265964 -0.0100928 8.8961e-05)
(-0.00247197 0.00529021 0.00405676)
(-0.00177387 0.00307417 8.46302e-05)
(0.00160151 -0.0102177 0.00644724)
(-3.41766e-06 -0.00633522 0.0051555)
(-8.31158e-05 -0.000581337 0.00591671)
(-0.00951814 -0.0135013 0.00196842)
(-0.0139347 0.000133616 0.00399475)
(0.00764615 -0.0025973 0.00397282)
(-0.00802107 0.00767386 0.000539635)
(0.0102937 -8.19338e-05 0.00445509)
(-2.18542e-06 -0.0207675 0.00283284)
(0.00678331 -0.00447434 0.00257947)
(0.000854853 -0.000671459 -2.99078e-07)
(0.00827623 0.0267891 0.00403617)
(0.00876967 0.0100338 0.000124448)
(0.00655769 0.0019693 0.00440447)
(-0.00563595 0.00908096 0.00304959)
(0.00746281 0.0101887 0.0030486)
(0.00821724 -0.00478246 0.0012905)
(0.00649834 -0.00541542 0.0012905)
(0.00701448 0.00457654 0.00254617)
(-0.00563595 0.00908096 0.00029066)
(-0.00384041 -0.00131655 0.00758844)
(-0.000485795 0.000822564 7.84364e-07)
(-0.0102627 -0.00343404 0.00404203)
(0.000391023 -0.000989075 -4.11568e-07)
(-0.000107076 0.00993355 0.0010326)
(0.00726555 0.00670054 0.00224365)
(-0.00957072 -9.23971e-07 0.00255962)
(-9.02025e-05 -0.00241325 0.00389552)
(0.00511536 -0.00208881 0.00397282)
(0.00238176 -0.00545122 0.000176977)
(0.00657364 0.00200018 0.000207498)
(0.00550172 0.00822717 0.00281117)
(0.00550172 0.00822717 0.000321872)
(0.00602896 0.00626853 0.000115312)
(0.0100626 0.000302234 0.00154137)
(0.00884281 1.59316e-05 0.00116039)
(0.00653942 0.0032356 0.00479769)
(-0.0023992 -3.12729e-05 0.00389722)
(0.0106326 0.00186084 0.000173241)
(7.58654e-05 -0.0019692 0.00621429)
(0.00771389 0.00760205 0.00285674)
(-0.00379891 -0.00863548 0.000558294)
(-0.00679299 0.00664301 0.00504228)
(0.00384037 0.00760213 0.000108094)
(-0.00119513 0.00650543 0.0013317)
(0.00175991 0.00281233 7.8843e-05)
(0.00388805 -0.00668762 9.90102e-05)
(-0.000107076 0.0106547 0.00196186)
(0.0150052 -0.0151308 0.00307679)
(-0.0043905 0.002947 7.2927e-05)
(-8.31158e-05 -0.000581337 0.00601762)
(0.0032668 0.0044886 0.00437428)
(0.0066674 -0.00636339 0.000670496)
(-0.00794095 -0.00764999 0.00133927)
(4.69877e-05 0.00127435 5.46017e-06)
(0.00642155 -0.00654557 0.00969599)
(-0.0114299 -1.47601e-05 0.00407714)
(0.00701448 0.00457654 5.49829e-05)
(-0.00825536 -8.88083e-05 0.00169522)
(0.000265472 8.21798e-05 4.84578e-06)
(-0.00340858 0.000616277 0.00406115)
(0.000239075 -0.000536422 0.00572837)
(-9.02025e-05 -0.00255263 0.00389552)
(-0.00863352 -8.88083e-05 0.000899497)
(0.0106326 0.00186084 0.00655023)
(-0.000873581 0.000355819 2.33065e-07)
(0.00872676 0.0012247 0.000672996)
(-0.0154056 0.00699264 0.00697488)
(0.0067138 -0.00266192 8.60643e-05)
(0.000184579 -0.000293528 7.46104e-07)
(0.000231946 0.00189319 4.27865e-05)
(-0.00662548 0.00586571 0.00156436)
(-0.000107076 0.0117649 0.0010326)
(-0.00563595 0.00908096 6.61457e-05)
(0.000742886 -0.000697018 -2.12373e-06)
(0.00160151 -0.0102177 0.00310552)
(0.000832227 0.000747699 2.42654e-06)
(-0.0047378 0.00023937 0.000937781)
(-0.002029 0.000653256 0.00389722)
(-0.00732966 0.0271769 6.518e-06)
(0.0068154 -0.00524492 0.00524791)
(-0.00049252 0.0100955 0.00491191)
(-0.000188604 -0.00423686 0.00845575)
(0.0051121 0.0020527 0.000480606)
(0.00771389 0.00760205 0.0023915)
(0.0137554 -0.0194111 0.00410053)
(5.90414e-06 -0.00242435 0.00402697)
(0.00643959 0.0017773 0.00440447)
(-0.00803198 -0.00461065 0.00309204)
(0.0067138 -0.00266192 8.60462e-05)
(-9.02025e-05 -0.00210666 0.00389552)
(0.0225765 -0.023197 0.00410053)
(0.00868866 0.00162157 0.000672996)
(0.00166391 0.00115255 0.00716497)
(0.0082548 -0.0015056 0.00445509)
(-0.00379891 -0.00863548 0.00049911)
(-0.00920462 0.00110453 0.000172187)
(0.00919385 -0.00134437 0.000121539)
(-0.0014038 0.0140728 0.00394585)
(0.00284021 -0.0172359 0.00140303)
(0.0153947 -0.000838022 0.00397268)
(0.00315326 -3.34927e-06 0.00490059)
(0.0100626 0.000302234 0.000954935)
(0.00771389 0.00760205 0.0026413)
(0.00732383 0.0270775 0.00250977)
(0.00550172 0.00822717 0.00303756)
(-0.000273486 -4.40334e-05 7.31939e-08)
(0.00726555 0.00670054 0.00228719)
(-0.00049252 0.0103079 0.00359054)
(0.00611479 0.00808627 0.00143143)
(0.0100626 0.000302234 0.00886221)
(-0.000348717 -0.000816334 -4.53945e-07)
(0.00261012 0.00989589 0.00208182)
(-0.00511857 0.0168868 0.000142305)
(0.000842693 -0.000858182 -2.12373e-06)
(-0.010091 0.0112456 0.000142461)
(0.000860827 0.000368585 2.43463e-07)
(0.000900722 -0.000375827 -2.99078e-07)
(-0.000809332 -0.000764499 -2.4863e-06)
(-0.00920462 0.00110453 0.000160063)
(-0.00236447 -0.0110548 0.00398433)
(-0.00186982 -0.00152119 0.000118089)
(0.00171652 -0.00618759 0.000994908)
(-0.00296203 -0.00452936 0.000142771)
(5.90414e-06 -0.00208957 0.00402697)
(6.42158e-05 0.0100617 0.00395973)
(0.000533142 -0.000858182 -2.12373e-06)
(0.00602896 0.00626853 0.00552346)
(-0.00612525 -0.0026079 0.00404203)
(0.0169989 -0.0102733 0.00410053)
(0.0103842 -0.000232386 0.00445509)
(0.00651571 0.00190386 0.00440447)
(-0.00253345 -3.12729e-05 0.00389722)
(-0.000645474 -0.00182449 0.00649448)
(0.00580138 0.00962175 0.00152004)
(0.0244849 -0.0149819 0.00410053)
(0.000336689 -0.00073729 -4.11568e-07)
(-0.00451467 -0.00665368 9.0918e-05)
(0.00092369 -0.000375827 -2.99078e-07)
(0.00850064 0.000187018 0.00392465)
(-0.00450028 -0.0119437 0.00398433)
(0.00415597 -0.000393998 0.00375211)
(-0.00658912 0.00163717 0.00860628)
(-3.41766e-06 -0.00633522 0.00717858)
(0.00850064 0.000187018 0.00386625)
(-0.00618884 0.00822867 0.00146275)
(0.00217546 -0.00534462 0.00439533)
(0.00159562 0.00602485 0.00437428)
(-0.00812423 -0.0014547 0.000899497)
(0.00656027 0.0019743 0.00440447)
(0.00850064 0.000187018 0.00393233)
(0.00214508 -0.000550353 0.00228889)
(0.000767542 -6.90857e-05 0.00402697)
(0.0100626 0.000302234 0.00222031)
(-0.00134985 -0.00245905 0.00401193)
(-0.00251804 0.00023937 3.76054e-05)
(0.00510866 -0.00211093 0.00397282)
(-0.000889098 0.00659339 0.00682615)
(-0.000485795 0.000907955 7.84364e-07)
(-0.0108511 0.00188122 0.00693978)
(-0.00942016 -0.00936942 0.00174748)
(-0.00234402 0.000886936 0.00799553)
(-0.00863978 -8.88083e-05 0.000899497)
(0.00107891 -0.00953315 0.00398433)
(0.0067138 -0.00266192 0.00357759)
(0.00726555 0.00670054 0.00213335)
(-1.26566e-05 0.0101008 0.00405676)
(-9.02025e-05 -0.00251208 0.00389552)
(-0.000894758 0.0104988 0.00640876)
(-0.00170431 -3.12729e-05 0.00389722)
(2.09198e-05 -0.000197547 7.31685e-07)
(-0.00468901 -0.00290373 6.79486e-05)
(-9.37559e-05 -0.0144601 0.00140303)
(5.90414e-06 0.00167625 0.00402697)
(0.00289333 0.0107336 0.00394585)
(0.00651215 0.00189794 0.00440447)
(-2.18542e-06 -0.0207675 0.00292705)
(3.0198e-05 -0.00133206 -2.39501e-06)
(-0.00861434 -0.00929515 8.49048e-05)
(0.00709296 -0.00266744 0.00445509)
(0.000947567 0.00992381 0.000172584)
(-0.000107076 0.0106547 4.62223e-05)
(-0.000887589 -0.000305195 -4.33411e-07)
(0.00175991 0.00281233 7.23531e-05)
(0.00325341 0.00437126 0.002995)
(-0.00679885 -0.00751117 0.00228045)
(0.00216146 -0.00533738 0.00439533)
(-3.41766e-06 -0.00897781 0.00388026)
(-0.000532317 0.0125351 0.00394585)
(0.00678331 -0.00447434 0.00257939)
(0.00808994 0.0268455 0.00403617)
(-9.02025e-05 -0.00250384 0.00389552)
(0.00768166 0.00302209 0.00294251)
(0.00107838 -6.90857e-05 0.00402697)
(-9.37559e-05 -0.0129785 0.00140303)
(0.00678331 -0.00447434 0.00257819)
(-0.00371202 0.00740896 0.0030916)
(-0.00941028 -0.00934567 0.00174748)
(0.00388805 -0.00668762 9.43823e-05)
(0.00642155 -0.00654557 0.000508768)
(-0.00049252 0.0100955 0.00607936)
(-0.00379891 -0.00863548 0.000432225)
(-0.00107526 -0.00306796 0.00333536)
(0.0102855 -0.00733875 1.42066e-05)
(0.00292785 0.00482755 0.00437428)
(0.00635509 -0.00231988 0.00397282)
(-0.00316176 -0.00186836 0.00404203)
(0.00884281 1.59316e-05 0.00115283)
(-9.61971e-05 0.00799248 0.00450151)
(0.00101434 -0.0150216 0.00398433)
(1.22311e-05 0.00219492 4.27865e-05)
(-0.00803198 -0.00461065 0.00317415)
(0.0100626 0.000302234 0.000191512)
(-0.0085114 -8.88083e-05 0.000899497)
(0.00348827 0.000942506 0.00428732)
(-0.00831596 -0.000657633 0.000205615)
(-0.00929606 -0.00907123 7.62902e-05)
(0.00337 -0.00691226 0.000231871)
(-0.00711845 0.00423774 0.000161634)
(0.00083427 0.00142917 0.00694938)
(0.00254012 -0.0172648 0.00140303)
(-0.00614313 -0.00254884 0.00773337)
(0.00657364 0.00200018 0.00270578)
(-0.00658912 0.00163717 0.000181543)
(0.0067138 -0.00266192 0.000234305)
(0.00160151 -0.0102177 0.00103062)
(-0.000107076 0.0106547 0.000488139)
(0.00168458 0.00607082 0.00628582)
(5.90414e-06 -0.00122516 0.00402697)
(-0.00254355 -0.00104945 0.00732466)
(0.00642155 -0.00654557 0.0104686)
(0.00979686 -0.0114445 0.00257957)
(-0.00658912 0.00163717 0.0002012)
(0.0127182 0.00180722 0.00445509)
(0.0087793 -0.00284079 0.00397282)
(-0.00802107 0.00767386 0.00289454)
(0.00348827 0.000942506 0.00401762)
(-0.00939712 -0.00905812 0.00196842)
(-0.00448094 0.00200495 0.00178838)
(-0.00049252 0.0106614 0.00359054)
(-0.0060193 0.00127309 0.00312864)
(0.00330453 0.0109048 0.00394585)
(-0.00443939 0.013726 0.000142305)
(-0.00379891 -0.00863548 1.28997e-05)
(0.00765536 0.00541323 0.00114553)
(0.00379325 0.00161329 0.00667588)
(0.000854853 -0.00060631 -2.99078e-07)
(-0.000190694 -0.00724851 0.000202692)
(-0.000871592 0.000692669 2.39058e-06)
(-0.002029 -0.000567945 0.00389722)
(-0.0016736 0.000770696 0.00564192)
(-0.00709281 0.00863982 0.00155545)
(-3.41766e-06 -0.0100614 0.00388026)
(-0.00779786 0.00706123 0.00209868)
(-0.00177387 0.00307417 8.80618e-05)
(0.0102855 -0.00733875 1.55924e-05)
(0.00238176 -0.00545122 0.000198536)
(-0.00664001 0.00657935 0.00504228)
(-0.000772862 0.000801536 2.39058e-06)
(-0.0124318 -0.00223527 0.000626789)
(-0.00412854 0.0028996 0.00178838)
(5.90414e-06 -0.00169957 0.00402697)
(-0.00468901 -0.00290373 6.6522e-05)
(0.00693714 6.01049e-07 0.00325901)
(-0.000619749 -0.00173953 0.00758844)
(0.00261012 0.00989589 0.0020886)
(-0.00831596 -0.000657633 0.0074341)
(0.00046227 -0.00073729 -4.11568e-07)
(0.00465506 0.0114668 0.00394585)
(-0.00658912 0.00163717 0.000207137)
(-0.00954222 0.00681178 0.00146275)
(-0.00577129 -0.00311943 0.00158495)
(0.000768379 -7.39548e-05 0.00133978)
(0.00168458 0.00607082 0.00310847)
(0.000255661 -0.000920869 -2.39501e-06)
(0.000535779 -0.00512522 0.00439637)
(-0.000809332 -0.000856211 -2.4863e-06)
(0.00550172 0.00822717 6.57426e-05)
(0.00860438 -0.00933296 0.000116442)
(-0.00614313 -0.00254884 0.00768873)
(0.00662574 -8.72052e-05 5.28283e-05)
(-0.000687265 0.00318974 0.00313174)
(-0.00010303 0.0101237 0.00149858)
(0.00732383 0.0270775 0.000186455)
(5.90414e-06 -0.00257928 0.00402697)
(0.00678331 -0.00447434 0.000225797)
(0.00482123 0.0154307 0.00403617)
(-0.00857652 0.0326397 0.000142305)
(0.000180957 -0.00786834 0.00588689)
(-0.00398334 0.0117843 0.00405676)
(-5.10868e-05 0.0169065 3.12086e-05)
(-0.00779786 0.00706123 0.000214837)
(0.001303 0.000699466 0.000200329)
(0.00168458 0.00607082 0.00149414)
(0.00168458 0.00607082 0.000170078)
(-0.00340858 0.000616277 0.00380107)
(0.00175991 0.00281233 8.26951e-05)
(0.00261012 0.00989589 0.00207246)
(-7.53542e-05 -0.000133239 0.000284501)
(0.00132876 2.58766e-05 -2.45766e-06)
(0.0230503 -0.0242471 0.00410053)
(-8.31158e-05 -0.000581337 0.00610522)
(0.00979686 -0.0114445 0.00266743)
(0.00337 -0.00691226 0.00020735)
(-0.00614313 -0.00254884 0.00686763)
(-0.00298055 0.00113797 0.00799553)
(0.000880207 -0.014785 0.00398433)
(0.00602896 0.00626853 0.00554513)
(-0.000532303 -0.00683083 0.00439637)
(0.00254173 7.12142e-05 0.00389674)
(-0.000277252 -0.00067682 -4.53945e-07)
(-0.0065724 0.00604103 0.00156436)
(0.000795678 0.000844107 2.42654e-06)
(-0.00614313 -0.00254884 0.00701051)
(-0.00478585 -0.0132285 0.000283973)
(0.00643889 0.00815919 0.00114553)
(0.00238176 -0.00545122 0.000467571)
(-0.00201808 -0.00160732 0.00404203)
(-0.00861434 -0.00929515 0.0038719)
(-9.37559e-05 -0.022994 0.00140303)
(-0.000921031 -0.000150302 -2.64745e-06)
(-0.00047761 0.000649825 0.00698226)
(0.00424593 0.0127534 0.00403617)
(-0.00942065 -0.00937058 0.00174748)
(0.00662574 -8.72052e-05 5.43385e-05)
(0.00451766 0.014018 0.00403617)
(-0.0060193 0.00127309 0.003121)
(-0.00831596 -0.000657633 0.000170336)
(0.0200133 -0.0175161 0.0073317)
(-0.00183343 0.0108895 0.00405676)
(0.0067138 -0.00266192 7.78984e-05)
(-0.00658912 0.00163717 0.00247041)
(-0.00795889 -0.00765746 0.00133927)
(-0.00771594 0.000998573 0.00430399)
(0.00642155 -0.00654557 0.0104877)
(0.0128629 0.000596858 0.00397268)
(-0.00808452 0.00169072 0.000899497)
(-0.00451467 -0.00665368 9.96493e-05)
(0.00348827 0.000942506 0.00371827)
(-0.00711845 0.00423774 0.00302374)
(-9.37559e-05 -0.0175176 0.000592237)
(0.00841356 0.0027621 0.00395008)
(-0.00596574 0.00251812 0.000285409)
(-0.0158701 -0.000286681 0.00407714)
(0.00191969 -0.00626656 0.00439533)
(-0.00831596 -0.000657633 0.00868571)
(-0.0060193 0.00127309 0.00312809)
(-0.00635262 0.00543021 0.000107445)
(0.00586774 0.00993059 0.00152004)
(3.22081e-06 -0.00788541 0.00588689)
(-0.00625674 -0.00666616 0.00422588)
(0.0102855 -0.00733875 0.000163725)
(-0.0106804 0.0204018 0.00636378)
(0.000239075 -0.000536422 0.0050091)
(0.00250386 7.12142e-05 0.00389674)
(0.00297414 0.000749179 0.00743656)
(-0.00254502 0.00504897 0.00405676)
(-0.00959168 -0.0112293 0.000131758)
(0.000460461 0.000645345 8.74393e-07)
(0.000468891 0.000345893 1.46039e-06)
(-0.00468901 -0.00290373 6.43184e-05)
(-0.00650694 -0.00190415 0.000137096)
(0.00027449 -0.00842916 0.00366662)
(0.00701448 0.00457654 0.00252469)
(-0.00376132 -0.00864686 0.000283973)
(-0.000193097 -0.00631385 0.00388026)
(0.00732527 6.01049e-07 0.00325901)
(-0.00211413 -3.12729e-05 0.00389722)
(-0.00732966 0.0271769 0.0002469)
(-0.00740534 -0.00964375 0.00174748)
(-0.000190694 -0.00724851 0.000375119)
(0.000310924 -7.39548e-05 0.00081313)
(0.00041148 0.00111428 5.46017e-06)
(-0.000642678 -0.00179536 0.00758844)
(-2.18542e-06 -0.0207675 0.00283334)
(0.00768166 0.00302209 5.93899e-05)
(3.0198e-05 -0.00110295 -2.39501e-06)
(-0.002029 -0.000534349 0.00389722)
(-0.0108511 0.00188122 0.00760637)
(-0.000211573 -0.000359837 -1.43097e-07)
(0.000832227 0.000744413 2.42654e-06)
(0.00415597 -0.000393998 0.00264139)
(-0.000190694 -0.00724851 0.000217986)
(-0.0095566 0.00711297 0.000131973)
(-0.00840438 8.25368e-06 2.2031e-05)
(-0.000847753 0.000716803 0.00698226)
(-0.00376125 -0.00864689 0.000283973)
(-0.00863738 -8.88083e-05 0.000899497)
(-0.00453401 0.0141664 0.000142305)
(0.00768166 0.00302209 6.32518e-05)
(-0.00251804 0.00023937 4.59648e-05)
(-8.00152e-05 -0.00945896 0.00396009)
(-0.00276663 0.000639574 0.00242362)
(-0.00861434 -0.00929515 0.00378307)
(0.00581203 0.00967134 0.00152004)
(-0.00779786 0.00706123 0.000227272)
(0.00985696 0.00390697 4.66676e-05)
(4.69877e-05 0.00123968 5.46017e-06)
(0.00172009 0.00168834 0.00306585)
(0.000855037 0.000844107 2.42654e-06)
(-9.02025e-05 -0.00212361 0.00389552)
(0.0066674 -0.00636339 0.000670725)
(0.00850064 0.000187018 0.00377723)
(-0.00388447 0.000211159 0.000255465)
(-0.00563595 0.00908096 0.00307219)
(0.00726555 0.00670054 5.28303e-05)
(-0.0016736 0.000770696 0.00559414)
(-0.00468662 -0.0127667 0.000283973)
(0.00168458 0.00607082 0.000573193)
(-3.65759e-05 -0.00182562 0.00621429)
(0.0066674 -0.00636339 0.000672205)
(-0.00861434 -0.00929515 0.00366014)
(-3.41766e-06 -0.0118387 0.00388026)
(0.00726555 0.00670054 5.17528e-05)
(0.00813898 0.00862343 0.00143143)
(-0.00602155 0.0108755 0.00155545)
(0.0028438 0.00936058 0.00263957)
(-0.00612497 -0.00260883 0.00404203)
(-0.00664571 0.00579891 0.00156436)
(-0.000436345 -0.00067682 -4.53945e-07)
(0.00415597 -0.000393998 0.00383938)
(0.010574 0.00128778 0.000152872)
(-0.0124318 -0.00223527 0.00296174)
(0.00678331 -0.00447434 0.00250698)
(0.00670637 0.00559406 0.00127637)
(-0.00825536 -8.88083e-05 0.000404238)
(0.00845334 -0.00130705 0.00445509)
(0.00539072 0.0031831 0.00440447)
(-0.00103803 -0.00593847 0.000194556)
(0.00876967 0.0100338 0.000130457)
(-0.00810397 -0.00166582 0.000899497)
(0.00418826 -0.00746484 0.00191895)
(-3.41766e-06 -0.00867295 0.00388026)
(0.00177602 0.0152115 0.00405676)
(-0.00779786 0.00706123 0.00967313)
(-0.00882685 -9.23971e-07 0.00350608)
(0.00919385 -0.00134437 0.000108883)
(-0.00844226 0.000252061 0.00439307)
(-0.000107076 0.0106547 0.000382306)
(-0.00803198 -0.00461065 6.64864e-05)
(-0.00340858 0.000616277 0.00398018)
(0.0112706 -0.00949974 0.000128671)
(-0.00863424 -8.88083e-05 0.000899497)
(-0.00802107 0.00767386 0.000267569)
(0.0051254 -0.00205565 0.000169275)
(-0.000105701 -7.90697e-05 5.07332e-06)
(-0.000861938 0.00572765 0.000101664)
(-0.00831596 -0.000657633 0.00849526)
(-9.37559e-05 -0.0175176 0.00265428)
(4.69877e-05 0.00124085 5.46017e-06)
(0.00765134 0.00542651 0.00114553)
(0.00726555 0.00670054 0.00228758)
(0.00168458 0.00607082 0.000209322)
(-0.00103803 -0.00593847 0.000186624)
(0.00236676 -0.00244512 0.00609904)
(-0.00825536 -8.88083e-05 0.0017947)
(0.0125919 0.00656849 0.00397268)
(-9.02025e-05 -0.00203064 0.00389552)
(0.00133362 -6.90857e-05 0.00402697)
(0.0102855 -0.00733875 0.000568593)
(-0.00563595 0.00908096 0.00282625)
(-0.00831596 -0.000657633 0.00019358)
(0.00301426 0.00187088 0.00637956)
(0.00602896 0.00626853 0.000113767)
(-0.00711845 0.00423774 0.000196521)
(-0.00880748 -9.23971e-07 0.00350608)
(-0.000871592 0.000736293 2.39058e-06)
(6.28503e-05 0.00467756 0.000142625)
(0.00143555 0.00944741 0.00405676)
(0.00864725 -0.0117926 0.00140719)
(0.0100626 0.000302234 0.00017862)
(-0.00468901 -0.00290373 7.20349e-05)
(0.00657364 0.00200018 0.00606092)
(-0.00831596 -0.000657633 0.000192452)
(-0.00251804 0.00023937 4.18857e-05)
(-0.00779786 0.00706123 0.000965399)
(-0.00182749 -6.90857e-05 0.00402697)
(0.00238176 -0.00545122 0.000194745)
(0.00657364 0.00200018 0.00707837)
(0.0128092 0.0111379 0.000140694)
(-0.00658912 0.00163717 0.000183312)
(5.90414e-06 -6.90857e-05 0.00439461)
(0.00625826 0.00804283 0.00143143)
(0.00768166 0.00302209 0.00304445)
(-0.000861938 0.00572765 0.000122581)
(0.00602896 0.00626853 0.000109466)
(0.0069992 0.00245819 0.00395008)
(-0.000607865 -0.000432614 -4.33411e-07)
(-0.00103803 -0.00593847 0.0065026)
(0.00732383 0.0270775 0.00781444)
(0.00645051 0.00179546 0.00440447)
(-0.00198478 -6.90857e-05 0.00402697)
(0.00657364 0.00200018 0.000810012)
(-0.00492918 0.00909605 0.00139179)
(0.0200133 -0.0175161 0.000178776)
(0.00901515 -0.00289146 0.00397282)
(0.00678331 -0.00447434 0.00225659)
(-0.00143693 -0.00162303 0.000358946)
(0.00884281 1.59316e-05 3.07621e-05)
(-0.00893245 -9.23971e-07 0.00350608)
(-0.00148309 -3.52898e-06 -2.64745e-06)
(-0.00338447 -0.00191919 0.00404203)
(-0.00273006 -0.00395253 0.000283973)
(-9.37559e-05 -0.0175176 0.000237978)
(-0.0106494 0.00171504 0.00407714)
(-0.00144959 -0.010674 0.000189487)
(-0.00623217 -0.00179295 0.00201947)
(-0.0085661 0.00307688 0.000243214)
(0.00175991 0.00281233 7.91254e-05)
(-0.00155022 -6.90857e-05 0.00402697)
(0.00693913 -0.00063431 0.00548672)
(0.0015256 -6.90857e-05 0.00402697)
(0.00728061 6.01049e-07 0.00325901)
(-0.00825536 -8.88083e-05 0.000280811)
(0.00684256 -0.00515523 0.00524791)
(-0.00953025 0.0368183 0.000142305)
(6.42158e-05 0.0100617 0.00365616)
(-0.000969895 0.000355819 2.33065e-07)
(-0.000178679 0.00708703 0.00531656)
(0.00197279 0.000130141 0.0087076)
(-0.000709662 0.000274729 2.33065e-07)
(-0.00276663 0.000639574 0.00257499)
(-9.37559e-05 -0.0175176 5.76512e-05)
(0.00735051 1.59316e-05 0.000672996)
(0.00692391 -0.00488658 0.00524791)
(-0.000889098 0.00659339 0.000877915)
(0.00657191 0.00790311 0.00152004)
(0.0067138 -0.00266192 7.21356e-05)
(-0.000912268 -0.000614598 0.00646501)
(-0.0077363 -0.00937945 0.00196842)
(0.00771389 0.00760205 0.00281176)
(-9.37559e-05 -0.0120471 0.00140303)
(-0.00614313 -0.00254884 0.00748933)
(-0.00219586 0.0049955 0.00292327)
(0.00979686 -0.0114445 6.04781e-05)
(-0.000970722 0.000801536 2.39058e-06)
(0.0134754 0.00223637 0.00445509)
(0.00153235 0.00123564 0.00395008)
(-0.00728372 -0.00968058 0.00174748)
(0.00884281 1.59316e-05 0.00126947)
(-0.00468901 -0.00290373 0.00316944)
(0.000190467 0.000906799 0.00491265)
(-0.00658912 0.00163717 0.00121026)
(0.00676272 -0.00299768 0.00445509)
(0.0242303 -0.0151262 0.00410053)
(0.0100626 0.000302234 0.000190893)
(0.00644005 0.00177806 0.00440447)
(-0.00739916 -0.0074245 6.77683e-05)
(-0.00930443 -9.74425e-05 0.00435685)
(-0.00831085 0.00100816 0.000983149)
(-0.00596574 0.00251812 0.000342959)
(-0.00736144 -0.00682508 0.00158723)
(-0.00957072 -9.23971e-07 0.00555262)
(0.00860438 -0.00933296 0.0037615)
(-0.00049252 0.00984604 0.00359054)
(0.000881958 2.58766e-05 -2.45766e-06)
(-0.013695 3.32969e-06 0.00573572)
(-0.00340858 0.000616277 0.00410237)
(-0.00495627 -0.0098416 0.00346666)
(-0.00810946 0.00143096 0.000899497)
(0.00701448 0.00457654 0.00231711)
(0.00884281 1.59316e-05 0.00125004)
(0.00510615 -0.00211924 0.00397282)
(0.00907587 0.00290442 0.00395008)
(-0.00563595 0.00908096 0.00310619)
(0.00687965 6.01049e-07 0.00325901)
(-0.00182409 -6.90857e-05 0.00402697)
(6.28503e-05 0.00467756 0.000131686)
(-0.00825536 -8.88083e-05 0.00173339)
(0.00200257 0.00021274 0.00389674)
(-0.00861434 -0.00929515 0.000624431)
(-0.00206377 -6.90857e-05 0.00402697)
(-0.00929606 -0.00907123 0.0034896)
(0.00870172 0.00282402 0.00395008)
(0.0100626 0.000302234 0.000192948)
(-0.00783215 -0.00599458 0.00133927)
(-0.0017684 0.0067641 0.0013317)
(-0.000709662 0.000290443 2.33065e-07)
(-0.0093168 0.00471011 0.00156436)
(-0.00103803 -0.00593847 0.000651224)
(0.0123788 0.00500122 0.00365607)
(-0.00651489 -0.00898479 0.00133927)
(0.0072635 -0.00251508 0.00397282)
(-0.0124318 -0.00223527 0.0067529)
(-0.00920462 0.00110453 0.000164874)
(-0.00802107 0.00767386 5.86156e-05)
(-0.00650694 -0.00190415 0.000131966)
(0.00963925 -0.00901959 0.00188751)
(-9.37559e-05 -0.0130248 0.00140303)
(-9.37559e-05 -0.0134433 0.00140303)
(-0.00113743 0.00255562 0.00431478)
(-0.000107076 0.0106547 0.000493933)
(-0.000607865 -0.000434652 -4.33411e-07)
(-0.00739916 -0.0074245 0.00266667)
(-0.00177387 0.00307417 9.06839e-05)
(-0.00723168 -0.00360039 0.000101602)
(0.00238176 -0.00545122 0.00289485)
(0.00510256 0.0020842 0.00395008)
(-0.000258636 -0.00067682 -4.53945e-07)
(-0.000107076 0.0117675 0.0010326)
(0.000829544 0.00612027 0.000723357)
(-3.41766e-06 -0.00633522 0.00615025)
(-0.00622072 -0.00275288 0.00435685)
(-0.00612939 -0.00259423 0.00404203)
(-0.000861938 0.00572765 0.000121145)
(0.00687218 6.01049e-07 0.00325901)
(-0.00379891 -0.00863548 0.000482357)
(0.0102855 -0.00733875 0.00014996)
(-0.00216629 0.00736156 0.00450151)
(-0.00468901 -0.00290373 7.21253e-05)
(-0.00219586 0.0049955 0.00292356)
(-0.000196618 -0.00191591 0.00621429)
(0.00798857 0.0268762 0.00403617)
(-0.003385 0.00192909 0.000243214)
(-0.00739916 -0.0074245 0.00245591)
(-0.00068073 0.00627334 0.0013317)
(-3.41766e-06 -0.01062 0.00388026)
(-0.0061304 -0.00259091 0.00404203)
(0.000154586 -0.00204353 1.46524e-05)
(-0.000107076 0.0106547 0.00186445)
(0.0425941 0.0118678 0.00479769)
(-0.000485795 0.000895922 7.84364e-07)
(0.000576888 0.00189319 4.27865e-05)
(-0.0087637 -0.0067786 0.0031751)
(-0.00711845 0.00423774 7.31501e-05)
(0.00168458 0.00607082 0.000755765)
(-0.0137627 -0.00543304 0.00407714)
(0.00168458 0.00607082 0.00860193)
(-0.000107076 0.0106547 4.16184e-05)
(-0.0102957 -0.00509707 0.00158723)
(0.00768166 0.00302209 0.00304841)
(-0.000107076 0.0106547 0.000200006)
(-0.0102929 0.0108896 0.0030916)
(-0.00606022 0.00129974 0.00281127)
(-0.00224465 -6.90857e-05 0.00402697)
(-0.000240576 -0.00389231 0.000249156)
(0.00168458 0.00607082 0.00021848)
(0.0200133 -0.0175161 0.000691326)
(0.00678331 -0.00447434 0.00257686)
(0.00856592 -0.00383744 0.00155689)
(0.0160468 0.00187353 0.00487907)
(-0.000107076 0.010037 0.0010326)
(-0.00831596 -0.000657633 0.000200463)
(-0.00732966 0.0271769 0.000251465)
(0.00732383 0.0270775 0.00200146)
(-0.00103803 -0.00593847 0.000211901)
(0.000940718 0.00738337 0.00437428)
(-0.00640797 3.83369e-05 0.000478804)
(0.00219518 -0.00151102 0.00258045)
(0.00904537 -0.0210905 0.00590452)
(0.00100044 0.0066599 0.000113355)
(-0.00831596 -0.000657633 0.00017401)
(-0.00416673 0.0124571 0.000142305)
(0.0137504 9.38495e-05 0.00397268)
(4.03659e-05 -1.86867e-05 8.71616e-06)
(0.00241299 -0.000397412 0.00604034)
(1.22311e-05 0.00214486 4.27865e-05)
(4.80318e-06 0.00837291 0.0060206)
(-0.00831596 -0.000657633 0.00299382)
(0.00677046 1.59316e-05 0.000672996)
(0.0159038 -0.00764201 0.00410053)
(0.0109899 -0.0106172 0.000333172)
(-0.00640797 3.83369e-05 0.00397081)
(0.000231328 0.0114988 0.00637956)
(-0.00732966 0.0271769 6.51894e-06)
(0.0146967 0.00904005 0.00571904)
(-0.0106804 0.0204018 0.00625174)
(-0.00468901 -0.00290373 0.003121)
(0.0067138 -0.00266192 0.00361267)
(-9.37559e-05 -0.0142177 0.00140303)
(-0.00861434 -0.00929515 0.0039364)
(0.00732383 0.0270775 0.00806794)
(0.0068942 -0.00331923 0.0012905)
(0.00231018 0.0104909 0.00394585)
(0.00884281 1.59316e-05 0.00126942)
(0.00144841 -0.00111481 0.000460903)
(-0.00825536 -8.88083e-05 0.00162102)
(-0.0145052 -0.00106023 0.00407714)
(-0.0072647 0.00271433 0.00156436)
(5.90414e-06 0.00224576 0.00402697)
(6.42158e-05 0.0100617 0.00391203)
(0.00217912 -0.00331694 0.00169918)
(-0.00430971 0.00920829 0.00155545)
(0.000391023 -0.00103561 -4.11568e-07)
(-0.00251804 0.00023937 4.24702e-05)
(-0.0150894 0.0159928 0.00347278)
(0.00495445 0.00361936 0.00440447)
(-0.000249216 -0.00067682 -4.53945e-07)
(0.00701448 0.00457654 0.00254387)
(-0.00825536 -8.88083e-05 0.00177673)
(-0.0122696 0.00528954 0.00399475)
(0.00315326 -3.34927e-06 0.00490841)
(-0.00156773 -0.0087877 0.00396009)
(-0.00340858 0.000616277 0.00448947)
(0.00348827 0.000942506 0.00392914)
(0.00979686 -0.0114445 0.0026552)
(-0.0127149 0.00635958 0.00399475)
(-0.000188604 -0.00423686 0.00847654)
(-0.00945716 0.00474027 0.00156436)
(0.00184416 -0.00830863 0.00646501)
(0.0051121 0.0020527 0.00698158)
(0.00249918 7.12142e-05 0.00389674)
(-0.00658912 0.00163717 0.00141433)
(-0.00825536 -8.88083e-05 0.000308926)
(-0.0043905 0.002947 7.15012e-05)
(-0.002029 0.000663706 0.00389722)
(-0.00802732 -8.88083e-05 0.000899497)
(-0.00596707 0.00250428 0.000243214)
(-0.000348717 -0.000772865 -4.53945e-07)
(-0.0012261 -3.52898e-06 -2.64745e-06)
(-0.00623207 0.00187064 0.00201947)
(0.0051121 0.0020527 0.000194379)
(-0.001275 0.00892099 0.00394585)
(-0.00081265 0.000801536 2.39058e-06)
(0.00657364 0.00200018 0.000169059)
(0.00419506 0.00835261 0.00152004)
(-0.00811374 0.0269395 0.000142305)
(-3.87418e-05 -0.00245297 0.00645259)
(-0.00342547 -0.0014111 0.0087076)
(-0.0065572 0.00609122 0.00156436)
(0.0239116 -0.0261561 0.00410053)
(-0.000894758 0.0104988 0.00178868)
(0.00237496 7.12142e-05 0.00389674)
(-0.00825536 -8.88083e-05 0.000382169)
(-0.00825536 -8.88083e-05 0.00161312)
(-0.00861434 -0.00929515 8.27014e-05)
(0.00160151 -0.0102177 0.00017594)
(5.90414e-06 0.00200378 0.00402697)
(0.000168688 0.00111428 5.46017e-06)
(0.00668409 0.00309094 0.00479769)
(0.0067138 -0.00266192 0.00362295)
(4.80318e-06 0.00837291 0.00599122)
(0.000178582 -5.04646e-05 1.14258e-05)
(0.00168458 0.00607082 0.000194688)
(0.00384776 0.0109003 0.00403617)
(-0.00224 0.0098986 0.00359054)
(-0.00804632 0.000125582 0.00699112)
(-0.0316369 -0.00747633 0.00388691)
(0.00238176 -0.00545122 0.000210001)
(0.00730106 6.01049e-07 0.00325901)
(0.000318491 0.00250942 0.00285857)
(0.0100626 0.000302234 0.000175702)
(-0.00227943 -0.000339586 0.00597112)
(-0.00614313 -0.00254884 0.000174746)
(-0.00861434 -0.00929515 0.000232714)
(0.00768166 0.00302209 6.70169e-05)
(0.00168458 0.00607082 0.000198791)
(-3.41766e-06 -0.00379646 0.00388026)
(0.00200257 0.00051468 0.00389674)
(0.00823656 -0.00272416 0.00397282)
(-0.00909091 -9.23971e-07 0.00350608)
(0.00465344 0.0114662 0.00394585)