/*--------------------------------*- C++ -*----------------------------------*\
| =========                 |                                                 |
| \\      /  F ield         | OpenFOAM: The Open Source CFD Toolbox           |
|  \\    /   O peration     | Version:  plus.master.MPPICInterFoam            |
|   \\  /    A nd           | Web:      www.OpenFOAM.com                      |
|    \\/     M anipulation  |                                                 |
\*---------------------------------------------------------------------------*/
FoamFile
{
    version     2.0;
    format      ascii;
    class       volVectorField;
    location    "10.6";
    object      U;
}
// * * * * * * * * * * * * * * * * * * * * * * * * * * * * * * * * * * * * * //

dimensions      [0 1 -1 0 0 0 0];

internalField   nonuniform List<vector> 
11821
(
(0.0244252 0.0523489 0.00179557)
(0.0109468 0.0411727 0.014936)
(-0.0106116 0.0372219 0.031977)
(-0.0335515 0.0276635 0.0322013)
(-0.0473294 0.0291828 0.0169874)
(-0.0522891 0.0286715 0.00389079)
(-0.0607104 0.0382901 -0.00360301)
(0.0210094 0.0481604 0.0176784)
(0.0591841 0.100674 0.122809)
(0.0207085 0.0698168 0.15397)
(-0.0441255 0.052348 0.171191)
(-0.101278 0.0639089 0.151173)
(-0.0892933 0.0645416 0.0913728)
(-0.050088 0.0277383 0.001703)
(0.0237124 0.0351673 0.0348543)
(0.0664916 0.0943834 0.216749)
(0.183694 0.205647 0.593901)
(-0.0416582 0.186537 0.839075)
(-0.226908 0.211788 0.512108)
(-0.0682744 0.0481869 0.111655)
(-0.0440183 0.0187942 0.0139934)
(0.0258574 0.0123327 0.0478694)
(0.0588332 0.0155087 0.204569)
(0.194525 0.0122203 0.871366)
(-0.0374398 0.0264114 2.31789)
(-0.187307 0.0181018 0.653816)
(-0.0488133 0.0123102 0.135791)
(-0.0322344 0.00907926 0.025052)
(0.0306466 -0.0174737 0.0368064)
(0.0684734 -0.0627864 0.188868)
(0.198995 -0.199575 0.616145)
(-0.0316116 -0.194241 0.970655)
(-0.209628 -0.174851 0.579874)
(-0.069174 -0.0267561 0.115636)
(-0.0443063 -0.00283481 0.0188966)
(0.0293447 -0.0342615 0.0182857)
(0.0761378 -0.0903002 0.136202)
(0.0407034 -0.0681162 0.179516)
(-0.0426473 -0.0578906 0.206006)
(-0.124203 -0.0641146 0.210941)
(-0.0912909 -0.044566 0.0940453)
(-0.0488837 -0.0146717 0.0052441)
(0.0329738 -0.0444326 0.0027399)
(0.019095 -0.0370917 0.0176652)
(-0.00365157 -0.0333524 0.0376501)
(-0.0340441 -0.0244467 0.0407764)
(-0.0520038 -0.0201201 0.0253357)
(-0.0579745 -0.0181121 0.00961845)
(-0.0621703 -0.0257462 -0.00265557)
(0.00485009 0.0296537 0.0337522)
(-0.00846612 0.0174519 0.0668725)
(-0.0196505 -0.00173228 0.102697)
(-0.028631 -0.0097141 0.100466)
(-0.0307661 0.000181228 0.0576395)
(-0.031593 0.0118359 0.0316756)
(-0.0348993 0.016905 0.0235911)
(0.000143124 0.0277612 0.0626143)
(-0.0139675 0.0199903 0.202121)
(-0.0180575 -0.00155794 0.267914)
(-0.0282629 -0.0124601 0.296565)
(-0.0307398 -0.0105065 0.214693)
(-0.0245742 0.00380031 0.125994)
(-0.0287438 0.00883203 0.0280451)
(-0.011425 0.0245296 0.108454)
(-0.0179636 0.0230801 0.317172)
(-0.0239507 -0.0158748 0.767906)
(-0.0200192 -0.0309118 0.967771)
(-0.00242786 0.000292999 0.536913)
(0.00201917 0.0116535 0.17734)
(-0.0146872 0.00618116 0.0441017)
(-0.013382 0.0120784 0.141573)
(-0.00938945 0.0101062 0.353912)
(-0.0283527 0.00720311 1.03442)
(-0.0422459 0.0144565 3.02808)
(-0.00883674 0.0121042 0.774379)
(0.00848012 0.0102439 0.226203)
(-0.00698864 0.00884817 0.0638514)
(-0.00850466 -0.00666991 0.119466)
(-0.0114733 -0.00918541 0.315236)
(-0.0268984 0.0205455 0.819244)
(-0.0134016 0.0431351 1.12787)
(0.00721097 0.00998472 0.615161)
(0.000123606 0.00612638 0.198717)
(-0.0125821 0.0108225 0.0583764)
(0.00715702 -0.0140332 0.0687401)
(-0.00436673 -0.0087212 0.225781)
(-0.00877164 0.00652107 0.30898)
(-0.025519 0.014323 0.354614)
(-0.0314834 0.0193031 0.271172)
(-0.0278477 0.0129535 0.143592)
(-0.0308166 0.00879883 0.0353797)
(0.0124253 -0.0201921 0.0362939)
(8.45553e-05 -0.0120624 0.0740538)
(-0.0141496 0.00827206 0.124623)
(-0.0307321 0.0173732 0.129696)
(-0.0382815 0.0125439 0.0827933)
(-0.0392905 0.00356775 0.0417228)
(-0.0410577 -0.00170021 0.0232596)
(0.00901719 0.0321895 0.0868886)
(-0.00535614 0.0223829 0.133122)
(-0.0167631 0.00532642 0.184531)
(-0.0212203 -0.00325526 0.184043)
(-0.0237475 0.0130323 0.123484)
(-0.0306999 0.0229754 0.0846552)
(-0.0379069 0.0277117 0.0714126)
(0.00262469 0.0279143 0.130866)
(-0.0119977 0.0184809 0.246805)
(-0.0213424 -0.00153003 0.343913)
(-0.0217254 -0.015199 0.375385)
(-0.021363 -0.000791394 0.254098)
(-0.0270952 0.0115806 0.137204)
(-0.0362784 0.0170102 0.0809164)
(-0.00551553 0.0215732 0.197391)
(-0.0159053 0.0119586 0.385154)
(-0.0286451 -0.017758 0.71799)
(-0.00733961 -0.046707 0.937555)
(-0.00649692 -0.000116158 0.488349)
(-0.0082063 0.010378 0.21535)
(-0.0290179 0.00902035 0.0995995)
(-0.0123387 0.0111329 0.248469)
(-0.0177598 0.00864396 0.472065)
(-0.0633554 0.00494299 1.11481)
(-0.0603585 0.0146062 2.31859)
(-0.0109296 0.00594683 0.711704)
(-0.00011278 0.00892407 0.279528)
(-0.0242814 0.00723849 0.121134)
(-0.00360476 -0.00350802 0.216351)
(-0.011922 0.00104783 0.403987)
(-0.0321303 0.0249827 0.784544)
(-0.00741294 0.0678497 1.12473)
(0.000997866 0.0134206 0.568895)
(-0.00501305 0.00780164 0.248807)
(-0.0263399 0.00822157 0.11489)
(0.00918112 -0.013637 0.147638)
(-0.00395925 -0.00720799 0.277996)
(-0.0164125 0.0079091 0.398654)
(-0.0211918 0.0223487 0.451509)
(-0.0229488 0.0144055 0.317726)
(-0.0299749 0.00864347 0.16975)
(-0.0398257 0.00237871 0.0884468)
(0.0152995 -0.0213402 0.0954743)
(0.00141698 -0.0135735 0.15333)
(-0.0144072 0.00422174 0.220996)
(-0.0258874 0.0157463 0.229394)
(-0.0326136 0.00448363 0.159101)
(-0.0389549 -0.00441719 0.0979073)
(-0.0446057 -0.0110391 0.0739543)
(0.0306084 0.0494108 0.175309)
(0.010661 0.039989 0.2156)
(-0.00634267 0.0240691 0.271024)
(-0.014364 0.0172389 0.274206)
(-0.0231911 0.0359612 0.21288)
(-0.0397319 0.0476821 0.176617)
(-0.0550731 0.0529968 0.161968)
(0.0196268 0.0377442 0.219743)
(0.000909303 0.0298717 0.321839)
(-0.0142586 0.0136408 0.427766)
(-0.0190308 0.00135936 0.448411)
(-0.0252822 0.0190288 0.326695)
(-0.0397696 0.0304573 0.21248)
(-0.0558979 0.0359379 0.172535)
(0.0095425 0.0252003 0.295575)
(-0.00256066 0.0176889 0.469158)
(-0.0202564 -0.00256076 0.745922)
(-0.0110625 -0.0246791 0.901309)
(-0.02266 0.0128918 0.516497)
(-0.0309974 0.0188334 0.286883)
(-0.0532595 0.0194633 0.188108)
(-0.000177474 0.0109175 0.357006)
(-0.00925811 0.00946942 0.580274)
(-0.0542817 0.00572529 1.17677)
(-0.0622705 0.0126507 1.80799)
(-0.0325505 0.00705563 0.6885)
(-0.0279364 0.00894429 0.349832)
(-0.0517352 0.00693606 0.204472)
(0.0100658 -0.0069003 0.319413)
(2.39467e-05 -0.00135898 0.502051)
(-0.0240741 0.0160507 0.845991)
(-0.0146861 0.0459729 1.09377)
(-0.021447 0.00422316 0.586215)
(-0.0291839 0.000678924 0.318307)
(-0.0526589 -0.00313031 0.197838)
(0.0231634 -0.0225312 0.241417)
(0.0072828 -0.0160437 0.362421)
(-0.0119285 -0.00351358 0.49416)
(-0.0218974 0.0110997 0.536249)
(-0.0314152 -0.00102077 0.38872)
(-0.0452965 -0.00783915 0.24211)
(-0.0608016 -0.0180963 0.177319)
(0.0335538 -0.0365437 0.18548)
(0.0143703 -0.0257103 0.243979)
(-0.00633051 -0.00940425 0.319212)
(-0.0217505 0.00124268 0.328303)
(-0.0336836 -0.013695 0.250818)
(-0.0482404 -0.0266874 0.188524)
(-0.0614377 -0.0375835 0.164331)
(0.0527404 0.0632439 0.328238)
(0.028753 0.0591142 0.357654)
(0.00578559 0.0485572 0.401331)
(-0.0111366 0.0438395 0.405789)
(-0.0273365 0.0599841 0.355036)
(-0.0488 0.0687147 0.326908)
(-0.0675581 0.0708933 0.312962)
(0.0416954 0.0479766 0.364542)
(0.0185707 0.0453362 0.448505)
(-0.00386687 0.0356413 0.544872)
(-0.0198858 0.0270789 0.558417)
(-0.0347808 0.0412439 0.447606)
(-0.0539781 0.0495936 0.352146)
(-0.0720962 0.0508845 0.32298)
(0.03078 0.0302862 0.435235)
(0.0159722 0.0301851 0.594448)
(-0.00836743 0.0204349 0.824724)
(-0.0216202 0.00744978 0.9051)
(-0.04347 0.0286071 0.611628)
(-0.0541887 0.0314788 0.411875)
(-0.0747841 0.0295286 0.334926)
(0.0206498 0.0100883 0.498917)
(0.00964812 0.0111489 0.713675)
(-0.0304988 0.0101336 1.3035)
(-0.0570947 0.0144859 1.51835)
(-0.0563545 0.0112961 0.749397)
(-0.0571405 0.0113371 0.46754)
(-0.0772805 0.00762771 0.346576)
(0.0296476 -0.0138372 0.459942)
(0.0175171 -0.0109771 0.636167)
(-0.00986297 -0.000565505 0.959813)
(-0.0264322 0.0185122 1.11972)
(-0.0477303 -0.0070999 0.671908)
(-0.0556036 -0.0106952 0.438671)
(-0.0763346 -0.0149966 0.341479)
(0.0422911 -0.0348167 0.385552)
(0.0225326 -0.029684 0.494663)
(-0.002247 -0.0213524 0.623617)
(-0.0249897 -0.00995189 0.650559)
(-0.0441345 -0.020736 0.507459)
(-0.0605237 -0.02863 0.375435)
(-0.0765611 -0.03745 0.327473)
(0.0524554 -0.0535555 0.338305)
(0.0297894 -0.0435654 0.385556)
(0.00438912 -0.0293939 0.453559)
(-0.0186742 -0.0212922 0.462984)
(-0.0361614 -0.0369603 0.389085)
(-0.0551852 -0.0509811 0.337779)
(-0.0708 -0.0610595 0.316624)
(-0.0572339 0.0250612 -0.00343101)
(-0.0550737 0.0190118 -0.00214233)
(-0.050601 0.0223157 -0.00135994)
(-0.0465311 0.0222813 -0.00123069)
(-0.0439321 0.0220054 -0.001508)
(-0.0419634 0.0219038 -0.00208272)
(-0.0403491 0.0217836 -0.00283617)
(-0.0389124 0.0215356 -0.00368515)
(-0.0469262 0.0164173 -0.00540153)
(-0.0603843 0.011122 -0.00196927)
(-0.052047 0.0118773 -0.000769353)
(-0.0479602 0.0144517 -0.000468764)
(-0.0459939 0.0150679 -0.000514925)
(-0.0443317 0.0151899 -0.000878322)
(-0.0426242 0.0150623 -0.00146629)
(-0.0410838 0.0148901 -0.00218878)
(-0.0555918 0.0147102 -0.00428797)
(-0.0475267 0.0062474 -0.00459324)
(-0.0569189 0.00760958 -0.0014003)
(-0.0498511 0.00933643 -0.000278075)
(-0.0474262 0.00986497 -5.27613e-05)
(-0.0457627 0.0100778 -0.000286542)
(-0.0440487 0.00983489 -0.000842642)
(-0.0424291 0.00954993 -0.00156995)
(-0.0460804 0.00488102 -0.00305585)
(-0.0412698 0.00352006 -0.00464277)
(-0.0532875 0.00466881 -0.00140688)
(-0.0471759 0.00419477 -0.000178693)
(-0.0464274 0.00388494 0.000133682)
(-0.046072 0.00346154 7.82949e-05)
(-0.0433561 0.00294452 -0.000137486)
(-0.0438991 0.00272118 -0.000481328)
(-0.0518628 0.000943844 -0.00358839)
(-0.0537117 0.00578333 -0.00383576)
(-0.0558051 0.00303507 -0.0013106)
(-0.0507859 0.000528074 -0.000338241)
(-0.0490346 -0.000232122 -0.000279978)
(-0.0475667 -0.000619902 -0.000625852)
(-0.0464281 -0.000608834 -0.00128885)
(-0.0451398 -0.000816981 -0.00207572)
(-0.0538112 -0.00686607 -0.00512046)
(-0.0576868 0.000724577 -0.00334452)
(-0.0562875 -0.00286161 -0.00137949)
(-0.0531412 -0.0044302 -0.000287754)
(-0.0500665 -0.00511441 -0.000287949)
(-0.0481183 -0.00600088 -0.000708171)
(-0.0461732 -0.00662741 -0.00135746)
(-0.0448044 -0.00710167 -0.0021551)
(-0.0615506 -0.0152565 -0.00365645)
(-0.0573497 -0.00741092 -0.00272567)
(-0.0580852 -0.0123166 -0.00140252)
(-0.0525281 -0.0128743 -0.00102585)
(-0.0497558 -0.0128538 -0.00119423)
(-0.0478741 -0.0126258 -0.00174307)
(-0.0465582 -0.0122767 -0.00258112)
(-0.0451794 -0.0120081 -0.00361283)
(-0.038124 0.0187321 0.0238753)
(-0.0401392 0.0216953 0.0237557)
(-0.0415782 0.0238809 0.0224135)
(-0.0424152 0.0252672 0.0203262)
(-0.0426697 0.0260368 0.0178393)
(-0.0424089 0.026328 0.0150803)
(-0.0417152 0.0262336 0.0121546)
(-0.0406254 0.0257879 0.00912131)
(-0.0362838 0.0115985 0.0249061)
(-0.0406733 0.014718 0.0256129)
(-0.0432339 0.0168166 0.0246058)
(-0.0449113 0.0182277 0.0227637)
(-0.0457458 0.0189671 0.0203678)
(-0.0458069 0.0192187 0.0175715)
(-0.0452206 0.01911 0.0145088)
(-0.0440749 0.0187075 0.0112628)
(-0.0312443 0.00665616 0.0224051)
(-0.0379744 0.00886822 0.0243436)
(-0.0428418 0.0103452 0.0252818)
(-0.0457461 0.011278 0.0239365)
(-0.047418 0.0117041 0.0216649)
(-0.0479493 0.0117699 0.0187822)
(-0.047578 0.0115816 0.0155491)
(-0.0464697 0.0112123 0.0121097)
(-0.0280231 0.00653811 0.0245977)
(-0.0367728 0.0059998 0.024603)
(-0.0427932 0.00565682 0.025191)
(-0.0464005 0.00526296 0.0236967)
(-0.0485925 0.00485935 0.0211885)
(-0.04944 0.00446657 0.0180573)
(-0.0492171 0.00410378 0.0147218)
(-0.0481785 0.00377864 0.0111401)
(-0.032064 0.00763681 0.0243522)
(-0.0398358 0.00378968 0.0237681)
(-0.04482 0.00133147 0.0240266)
(-0.0479423 -0.000425053 0.0226275)
(-0.0497218 -0.00167176 0.0201657)
(-0.0502864 -0.00253603 0.0171259)
(-0.0499127 -0.00309672 0.0137379)
(-0.0487777 -0.00341609 0.0101539)
(-0.0396288 0.00361847 0.0230631)
(-0.0444467 -0.00125295 0.0237348)
(-0.0475229 -0.00449073 0.0231317)
(-0.0494516 -0.00680074 0.0214719)
(-0.0503586 -0.00842348 0.018883)
(-0.0504097 -0.00951006 0.0158144)
(-0.0497541 -0.0101565 0.0124795)
(-0.0485008 -0.0104264 0.00895713)
(-0.043753 -0.00405301 0.0225767)
(-0.0461681 -0.00806731 0.0230704)
(-0.0479301 -0.0111524 0.022075)
(-0.0489196 -0.0133586 0.0199742)
(-0.049265 -0.0148908 0.0173347)
(-0.0490282 -0.0158889 0.0143521)
(-0.0482931 -0.0164643 0.0111452)
(-0.0471065 -0.0166677 0.00778288)
(-0.0439912 0.0305897 0.0637802)
(-0.0474108 0.0351146 0.0567564)
(-0.0504993 0.0385464 0.0486048)
(-0.0529424 0.041097 0.0396662)
(-0.0547169 0.0429089 0.0303433)
(-0.0558305 0.0440732 0.0210242)
(-0.0562523 0.0446169 0.0121326)
(-0.0558361 0.044453 0.00415103)
(-0.0443718 0.0203246 0.069369)
(-0.0501509 0.0243123 0.0619888)
(-0.0548669 0.0271606 0.0539112)
(-0.0586913 0.0292047 0.0448242)
(-0.061593 0.03058 0.035051)
(-0.0635702 0.0313862 0.0250321)
(-0.0645688 0.0316655 0.0152934)
(-0.0643989 0.0313713 0.00645854)
(-0.0413961 0.0116721 0.073434)
(-0.0498138 0.0141801 0.0650036)
(-0.0564184 0.0158337 0.0570716)
(-0.0616589 0.0169301 0.0479776)
(-0.0655767 0.0175738 0.0379244)
(-0.0682314 0.0178604 0.0274055)
(-0.0696232 0.0178387 0.0170408)
(-0.0695805 0.0174973 0.00756624)
(-0.0398183 0.00599259 0.0756284)
(-0.0497506 0.00568082 0.0655772)
(-0.0572966 0.0052597 0.0575018)
(-0.0631951 0.00475565 0.0483833)
(-0.0675449 0.00421913 0.0382249)
(-0.0704422 0.00370193 0.0275419)
(-0.0719364 0.00322742 0.0169972)
(-0.0718818 0.00279994 0.00735801)
(-0.0420424 0.00218465 0.0740583)
(-0.0516004 -0.00207587 0.063728)
(-0.0585918 -0.00501544 0.0554438)
(-0.0639447 -0.00734706 0.0462446)
(-0.0677988 -0.00918212 0.036101)
(-0.0702886 -0.0105592 0.0255155)
(-0.0714757 -0.0115042 0.0151279)
(-0.071219 -0.0120074 0.0056841)
(-0.0484004 -0.00527809 0.0687548)
(-0.054914 -0.0115298 0.0601558)
(-0.059759 -0.0160187 0.0517752)
(-0.0634714 -0.0195084 0.0424773)
(-0.0660893 -0.0221635 0.0324734)
(-0.0676935 -0.0240756 0.022248)
(-0.0682938 -0.0252928 0.012369)
(-0.0677306 -0.0257815 0.0034793)
(-0.0503128 -0.0161356 0.0639103)
(-0.0540897 -0.0224211 0.0564739)
(-0.0572049 -0.0274228 0.0480661)
(-0.0595114 -0.0313456 0.0387888)
(-0.0610319 -0.0343255 0.0290799)
(-0.0618306 -0.036464 0.0193834)
(-0.0619145 -0.0378021 0.0101684)
(-0.0611564 -0.0382679 0.00194099)
(-0.0670104 0.0565876 0.151443)
(-0.073678 0.0638204 0.141629)
(-0.0801443 0.0697672 0.130657)
(-0.0853873 0.0742614 0.118707)
(-0.0889589 0.0771531 0.105861)
(-0.0904402 0.0782386 0.092022)
(-0.0893469 0.0772117 0.0767298)
(-0.0850879 0.0736514 0.0590802)
(-0.0695967 0.0387017 0.158856)
(-0.0797811 0.0442633 0.148348)
(-0.088945 0.0488544 0.137121)
(-0.0967052 0.05236 0.124799)
(-0.102424 0.0546406 0.111389)
(-0.105463 0.0555135 0.0967956)
(-0.105098 0.0547215 0.0805161)
(-0.100523 0.0519302 0.0614528)
(-0.0694246 0.021398 0.164365)
(-0.0822688 0.0242634 0.152681)
(-0.0936911 0.026614 0.141258)
(-0.103424 0.0283381 0.128686)
(-0.110722 0.0293836 0.114855)
(-0.114852 0.029666 0.0996818)
(-0.114964 0.0290448 0.0826433)
(-0.11012 0.0273377 0.062518)
(-0.0695746 0.00544628 0.166826)
(-0.0836573 0.00474592 0.153746)
(-0.095922 0.00406502 0.142088)
(-0.106314 0.00335194 0.129342)
(-0.114076 0.0026599 0.115273)
(-0.11848 0.00204376 0.0998037)
(-0.118654 0.0015468 0.0824141)
(-0.113618 0.00115965 0.061844)
(-0.0708139 -0.0095153 0.164627)
(-0.0843932 -0.014691 0.151399)
(-0.0958856 -0.0189921 0.139415)
(-0.105447 -0.0224738 0.126439)
(-0.112463 -0.0249717 0.112246)
(-0.116288 -0.0263833 0.096746)
(-0.11611 -0.0266244 0.0794135)
(-0.111017 -0.0255643 0.0590289)
(-0.0743817 -0.0260579 0.157991)
(-0.084612 -0.0345349 0.146039)
(-0.09334 -0.0414793 0.133941)
(-0.100547 -0.046937 0.12083)
(-0.105677 -0.0507964 0.106669)
(-0.108124 -0.0529123 0.0913763)
(-0.107186 -0.0530662 0.0744615)
(-0.102094 -0.0509821 0.0548303)
(-0.0726367 -0.0456093 0.150639)
(-0.0790088 -0.0556956 0.139743)
(-0.0849138 -0.0638812 0.127801)
(-0.0894921 -0.070129 0.114877)
(-0.0923619 -0.0744591 0.101084)
(-0.0931029 -0.0767473 0.0863664)
(-0.0912724 -0.0766858 0.0702709)
(-0.0863141 -0.0738871 0.0518997)
(-0.0809127 0.0728343 0.299711)
(-0.0884072 0.0805003 0.28371)
(-0.0970698 0.0877879 0.261108)
(-0.105754 0.094567 0.230464)
(-0.114281 0.100937 0.190824)
(-0.123471 0.107697 0.141854)
(-0.134589 0.11587 0.0838301)
(-0.144277 0.122576 0.0180977)
(-0.0865921 0.0510768 0.308669)
(-0.097325 0.0562874 0.293905)
(-0.108469 0.0613418 0.273451)
(-0.119644 0.0660638 0.244792)
(-0.130533 0.0704342 0.206129)
(-0.14208 0.0749503 0.156484)
(-0.15614 0.0804904 0.095779)
(-0.168925 0.0852421 0.0252015)
(-0.08973 0.0283938 0.314647)
(-0.102482 0.0303336 0.300033)
(-0.115348 0.0324372 0.280985)
(-0.128088 0.0344413 0.253877)
(-0.140393 0.0363212 0.21616)
(-0.153334 0.038322 0.166269)
(-0.169155 0.040934 0.103811)
(-0.183865 0.0432568 0.0299037)
(-0.0916183 0.00468498 0.317516)
(-0.104899 0.00294338 0.30214)
(-0.118071 0.00142541 0.283404)
(-0.131063 0.000121516 0.256816)
(-0.143599 -0.000874012 0.219459)
(-0.156811 -0.00150838 0.169503)
(-0.173091 -0.00178644 0.106413)
(-0.188396 -0.00177111 0.0312812)
(-0.0911333 -0.019731 0.315553)
(-0.103637 -0.0253239 0.299781)
(-0.11588 -0.0303919 0.280279)
(-0.127913 -0.0348043 0.252934)
(-0.139565 -0.0384438 0.215091)
(-0.151986 -0.0415451 0.165129)
(-0.16748 -0.0446618 0.102607)
(-0.182095 -0.0470144 0.0286082)
(-0.0896931 -0.0432471 0.309295)
(-0.0992738 -0.0523448 0.293437)
(-0.108972 -0.0606869 0.272397)
(-0.118656 -0.0680066 0.243359)
(-0.128192 -0.0742113 0.204446)
(-0.13866 -0.0798009 0.154624)
(-0.152031 -0.0857363 0.0937395)
(-0.164591 -0.0903558 0.0229102)
(-0.0824445 -0.0679454 0.300947)
(-0.0882494 -0.079308 0.284452)
(-0.0950214 -0.0897152 0.261582)
(-0.10181 -0.0989136 0.230702)
(-0.108638 -0.10699 0.190757)
(-0.116468 -0.114739 0.14136)
(-0.126703 -0.123248 0.0827648)
(-0.136072 -0.129754 0.0163207)
(0.0338356 -0.0360411 -0.000922602)
(0.0285495 -0.0319556 -0.000878973)
(0.0269253 -0.0290461 -0.000576451)
(0.0248007 -0.028742 -0.000911143)
(0.0238847 -0.0293616 -0.00164326)
(0.0228643 -0.0298125 -0.00266299)
(0.0220645 -0.0301944 -0.00381869)
(0.0211592 -0.0303564 -0.00500885)
(0.0394399 -0.0248146 0.0019761)
(0.0303125 -0.0169985 -0.000765732)
(0.0306845 -0.0181383 0.00078981)
(0.025697 -0.0183345 0.0011663)
(0.0250256 -0.0186713 0.00126405)
(0.0232501 -0.0176357 0.000945775)
(0.0230524 -0.0175373 0.000652194)
(0.0227993 -0.017627 0.000314516)
(0.0407178 -0.00798912 0.00479344)
(0.0335071 -0.00529511 -0.000611144)
(0.0310189 -0.00674256 0.0012163)
(0.025863 -0.00883943 0.00278042)
(0.0226983 -0.00999463 0.00365808)
(0.0208486 -0.0117496 0.00410875)
(0.0179542 -0.0130358 0.00429799)
(0.0180689 -0.0155714 0.00488137)
(0.0381563 0.00814995 0.00760522)
(0.0364874 0.0109417 0.00140347)
(0.0315474 0.00994101 0.00249875)
(0.0287032 0.00881592 0.00524414)
(0.0253704 0.00927601 0.00696051)
(0.0233946 0.00918067 0.00808943)
(0.0221126 0.0086776 0.00888841)
(0.0202547 0.00892937 0.00905738)
(0.0428342 0.0260755 0.00618317)
(0.0248231 0.0135606 -0.00381147)
(0.0348894 0.0196125 0.000408133)
(0.023523 0.0185087 0.00137232)
(0.0224022 0.0183868 0.00203296)
(0.020505 0.0185199 0.00237463)
(0.0197495 0.0205062 0.00260685)
(0.0176886 0.0218397 0.0023446)
(0.0358924 0.0409226 0.00139818)
(0.0223405 0.0278384 -0.00198804)
(0.0282048 0.0300962 0.00117025)
(0.0209257 0.0296175 0.00127842)
(0.0209548 0.0294391 0.00121997)
(0.0210407 0.0289424 0.000904508)
(0.0202879 0.0268716 0.000367547)
(0.0205945 0.0258326 -0.000107672)
(0.0293062 0.0482409 -0.000680495)
(0.0242194 0.0420608 -0.000747648)
(0.0249891 0.0362738 -5.85172e-05)
(0.0225824 0.036525 -0.000199371)
(0.0215479 0.0360985 -0.000805981)
(0.0210901 0.036738 -0.00163286)
(0.019893 0.0368704 -0.00257503)
(0.0186041 0.0366768 -0.00357455)
(0.0176999 -0.0203214 0.030453)
(0.0201401 -0.0226109 0.0290928)
(0.0229105 -0.024362 0.027106)
(0.0251178 -0.0258113 0.0241757)
(0.0266921 -0.0268617 0.020702)
(0.0276485 -0.0274727 0.016908)
(0.0280721 -0.027662 0.0129504)
(0.0280134 -0.0274466 0.00887973)
(0.0171007 -0.0124847 0.0376159)
(0.0194846 -0.0147009 0.0341461)
(0.0221417 -0.016303 0.0332564)
(0.0241624 -0.0176226 0.0315252)
(0.0257562 -0.0187272 0.0291438)
(0.0267378 -0.0195366 0.0262563)
(0.0271879 -0.0200858 0.0229612)
(0.0270759 -0.0203378 0.0193796)
(0.0112463 -0.000825401 0.0553635)
(0.0153969 -0.00254795 0.0408674)
(0.0186059 -0.00459509 0.0397402)
(0.0209159 -0.00624121 0.0392886)
(0.022522 -0.00773297 0.038247)
(0.0233864 -0.00913045 0.0365184)
(0.0234818 -0.0103444 0.0343343)
(0.0229457 -0.0113479 0.031473)
(0.00882681 0.0109206 0.0613138)
(0.0137306 0.00993477 0.0410082)
(0.0176209 0.00923862 0.0402704)
(0.0203984 0.00872179 0.0404801)
(0.0221731 0.00848253 0.0402076)
(0.023065 0.00826862 0.0392634)
(0.0230964 0.00804256 0.0377209)
(0.0223318 0.0078089 0.0357987)
(0.00973739 0.01948 0.0445595)
(0.0134178 0.019128 0.0363901)
(0.0181752 0.0200273 0.0361572)
(0.0206004 0.0204896 0.0352771)
(0.0226435 0.0209318 0.0340103)
(0.0237928 0.0212771 0.0320075)
(0.0241803 0.0215451 0.0294482)
(0.0238494 0.0216632 0.0265997)
(0.012119 0.0265782 0.0334891)
(0.0154555 0.0281882 0.0325279)
(0.0190941 0.0295257 0.0316168)
(0.0214687 0.0305418 0.0296213)
(0.0233737 0.0311821 0.0270038)
(0.0245274 0.0314544 0.023879)
(0.0250244 0.0313984 0.0205097)
(0.0249549 0.031087 0.0169848)
(0.0117893 0.0307741 0.0299484)
(0.0148901 0.0329851 0.0293992)
(0.0180941 0.0345544 0.0276518)
(0.0205052 0.0357947 0.0248168)
(0.0222441 0.0365155 0.0215056)
(0.0233305 0.036792 0.0179354)
(0.0238465 0.0366477 0.0142394)
(0.0238745 0.0361149 0.0105002)
(0.0240669 -0.0243591 0.075181)
(0.0296861 -0.029117 0.0651409)
(0.0348642 -0.032802 0.0558346)
(0.0392492 -0.035722 0.0454832)
(0.0426829 -0.0378847 0.0344042)
(0.045191 -0.0393493 0.0231753)
(0.0467721 -0.0401451 0.0124181)
(0.0473197 -0.0402034 0.00278329)
(0.01985 -0.015073 0.0944808)
(0.0266759 -0.0192205 0.0777949)
(0.0324231 -0.0218662 0.0691384)
(0.0375482 -0.0239623 0.0604453)
(0.0419237 -0.0256193 0.0505754)
(0.0454241 -0.0267759 0.0398053)
(0.0479424 -0.0274059 0.0287677)
(0.049269 -0.0274543 0.0182793)
(0.0116096 -0.00219148 0.125877)
(0.0193856 -0.00551926 0.0929476)
(0.0255876 -0.00810093 0.0830669)
(0.0310462 -0.00999307 0.0762667)
(0.0357302 -0.0116599 0.0685118)
(0.0394938 -0.0130673 0.0593755)
(0.042182 -0.0141256 0.0493273)
(0.0436054 -0.0148117 0.039173)
(0.00731378 0.0104727 0.137325)
(0.0162759 0.00929836 0.0963998)
(0.0231155 0.00805297 0.0864683)
(0.0288808 0.00708591 0.0808813)
(0.0337764 0.00630602 0.0745172)
(0.0376761 0.0055821 0.066761)
(0.0404125 0.0048832 0.0579853)
(0.0417845 0.00425667 0.0489968)
(0.0111045 0.0207661 0.111633)
(0.0197582 0.0217535 0.0855263)
(0.0267319 0.0221606 0.0773521)
(0.0325917 0.0223728 0.0705461)
(0.0376174 0.0224971 0.0625445)
(0.0416438 0.0224455 0.0532294)
(0.0445531 0.0221925 0.0431527)
(0.0461503 0.0217195 0.033151)
(0.0157553 0.0296357 0.086313)
(0.0238107 0.0328086 0.0732282)
(0.0303406 0.0347584 0.0650697)
(0.0359265 0.0361829 0.0563113)
(0.0405913 0.0370943 0.0464492)
(0.0442607 0.0375014 0.0358505)
(0.0468684 0.0374185 0.0251368)
(0.0482374 0.0368033 0.0150702)
(0.0186336 0.0354702 0.0722004)
(0.0248321 0.0399866 0.0632673)
(0.03034 0.0433388 0.0542398)
(0.0349528 0.0458268 0.0441749)
(0.0385903 0.0475252 0.0334945)
(0.041295 0.048528 0.022735)
(0.0430736 0.0488674 0.0124558)
(0.0438233 0.0484684 0.00325574)
(0.0490662 -0.0432112 0.161604)
(0.0599747 -0.0519158 0.147548)
(0.0696451 -0.0588309 0.134409)
(0.0776417 -0.0640292 0.120514)
(0.083441 -0.0673945 0.105857)
(0.0866989 -0.0687959 0.0904111)
(0.0869731 -0.0679475 0.0737377)
(0.0837035 -0.0644403 0.0548846)
(0.039897 -0.0268819 0.185038)
(0.0543102 -0.0334807 0.164103)
(0.0666707 -0.0380727 0.150997)
(0.0776099 -0.0414999 0.138119)
(0.0864341 -0.0436769 0.124188)
(0.0923745 -0.0444066 0.109041)
(0.0946186 -0.0434358 0.0922756)
(0.092265 -0.0404229 0.0728472)
(0.027265 -0.0086268 0.219943)
(0.0427866 -0.0138492 0.183032)
(0.0566877 -0.0172745 0.168694)
(0.0691152 -0.0197851 0.157597)
(0.0796015 -0.0217102 0.145761)
(0.0870464 -0.0228828 0.132525)
(0.0903141 -0.0230886 0.117442)
(0.0883041 -0.0221094 0.0994158)
(0.0207201 0.00902777 0.236035)
(0.0373068 0.00661098 0.190123)
(0.0520084 0.00446895 0.17535)
(0.0649338 0.00289361 0.165473)
(0.0759129 0.00162187 0.155064)
(0.0838214 0.000573132 0.143153)
(0.0873966 -0.000258015 0.129164)
(0.0854368 -0.000867709 0.111853)
(0.0290088 0.0245016 0.206379)
(0.0454553 0.0254737 0.177291)
(0.0596111 0.025673 0.165099)
(0.0721562 0.0257468 0.154581)
(0.0826436 0.0256114 0.143032)
(0.0900099 0.0250609 0.13004)
(0.093185 0.0238982 0.115178)
(0.0910975 0.0218865 0.0973171)
(0.0388464 0.0401785 0.177097)
(0.0541192 0.0443766 0.16075)
(0.0670324 0.0471209 0.148885)
(0.0783466 0.0489247 0.13658)
(0.0874052 0.0496493 0.123143)
(0.0935129 0.0491415 0.108467)
(0.0958904 0.0471513 0.0921356)
(0.0936608 0.0433139 0.0730935)
(0.0465984 0.0538964 0.158544)
(0.0580391 0.0609885 0.146268)
(0.068193 0.0664794 0.133907)
(0.0766093 0.0703662 0.120658)
(0.0828238 0.0726009 0.106602)
(0.0864989 0.0730514 0.091687)
(0.0871943 0.0714149 0.0754639)
(0.0843355 0.0672552 0.0570003)
(0.0703756 -0.0593052 0.315062)
(0.0825617 -0.068399 0.296049)
(0.0942812 -0.0762498 0.272503)
(0.105171 -0.083071 0.241476)
(0.115129 -0.0891951 0.201495)
(0.125137 -0.0956128 0.151759)
(0.136617 -0.103484 0.0920559)
(0.146277 -0.109977 0.0233361)
(0.0622906 -0.0384119 0.337578)
(0.0795626 -0.0443141 0.315324)
(0.0955756 -0.0486664 0.293903)
(0.111194 -0.0522655 0.26556)
(0.125998 -0.0553478 0.227054)
(0.140759 -0.0586744 0.176696)
(0.157187 -0.0633415 0.113855)
(0.171259 -0.0678032 0.0392431)
(0.0492363 -0.0161022 0.367893)
(0.068629 -0.020575 0.334791)
(0.0873116 -0.023142 0.314404)
(0.105947 -0.0249052 0.289426)
(0.124404 -0.0261692 0.253885)
(0.143265 -0.0273187 0.204842)
(0.164284 -0.0290501 0.141063)
(0.182588 -0.0305211 0.063281)
(0.0417311 0.00629339 0.383748)
(0.0623623 0.00267073 0.343014)
(0.0821697 0.00019853 0.32357)
(0.101636 -0.00141784 0.301324)
(0.121197 -0.00246699 0.269035)
(0.141529 -0.00312213 0.223161)
(0.164461 -0.00346652 0.162)
(0.184592 -0.00354993 0.0857096)
(0.052455 0.0264404 0.356897)
(0.0722111 0.0252798 0.330103)
(0.0908347 0.0239291 0.311417)
(0.109458 0.0228819 0.286993)
(0.127845 0.0221276 0.251761)
(0.146573 0.022058 0.203064)
(0.167404 0.023155 0.139902)
(0.18548 0.0245941 0.0629253)
(0.0637383 0.0466473 0.330204)
(0.0817238 0.0486216 0.311666)
(0.0984363 0.0499111 0.291378)
(0.114709 0.0509941 0.263596)
(0.130058 0.0521528 0.225548)
(0.145214 0.0541959 0.175686)
(0.161853 0.0582236 0.11343)
(0.175961 0.0625185 0.039653)
(0.0716076 0.0646789 0.310574)
(0.084683 0.070633 0.292847)
(0.0974086 0.07594 0.269729)
(0.109377 0.080717 0.239001)
(0.120397 0.0852525 0.199402)
(0.131316 0.0905695 0.150169)
(0.14338 0.0979493 0.0910651)
(0.153253 0.104552 0.0231343)
(0.0146648 0.0486413 -0.00136677)
(0.011152 0.0457062 -0.00108777)
(0.0145701 0.0423149 -0.00077018)
(0.0162426 0.0390564 -0.00115171)
(0.0170418 0.0371162 -0.00202242)
(0.0178232 0.0357593 -0.0032188)
(0.0186108 0.0345366 -0.00458168)
(0.0196829 0.0331639 -0.00588992)
(0.00191484 0.0491681 -0.000919074)
(0.00184804 0.0451005 -0.00163732)
(0.0060987 0.0428598 9.5698e-05)
(0.00924579 0.0395983 0.00120293)
(0.0108479 0.0361791 0.001505)
(0.0127948 0.0361005 0.0016079)
(0.0128355 0.032859 0.00124078)
(0.0145959 0.0347317 0.00104975)
(-0.012063 0.042335 0.000150327)
(-0.0123313 0.0461809 -0.000674923)
(-0.00913686 0.0395173 0.00132842)
(-0.00578087 0.0359473 0.00337851)
(-0.00344931 0.0314049 0.0046306)
(-0.00122009 0.0286476 0.00543382)
(0.000360663 0.0259366 0.00566535)
(0.00137687 0.0244228 0.00547602)
(-0.0213107 0.0382913 9.98386e-05)
(-0.0175836 0.0380484 -0.00172962)
(-0.018477 0.0365718 0.000597977)
(-0.0194033 0.0346701 0.00255162)
(-0.0189388 0.0308779 0.00344698)
(-0.0186843 0.0299084 0.00401524)
(-0.0179323 0.0278257 0.00397422)
(-0.0160097 0.0266403 0.0036706)
(-0.0348143 0.0427161 -0.000717327)
(-0.0249066 0.0340464 -0.00206539)
(-0.0263572 0.0354857 -1.95213e-05)
(-0.0254293 0.0307486 0.00075032)
(-0.0251638 0.0292649 0.00109256)
(-0.0252546 0.0283714 0.00111745)
(-0.0262184 0.0261772 0.000850274)
(-0.0287654 0.0266251 0.000433138)
(-0.040735 0.0403321 -0.00215316)
(-0.0363382 0.0347238 -0.00150777)
(-0.0356131 0.0346629 -0.000129251)
(-0.035144 0.0301582 0.000246981)
(-0.0344152 0.0284641 0.000237289)
(-0.0333597 0.02822 3.05728e-06)
(-0.0306103 0.0267621 -0.000437446)
(-0.0296754 0.0279919 -0.000858663)
(-0.0550583 0.0398254 -0.00271574)
(-0.0495315 0.0319464 -0.00193316)
(-0.0456653 0.0315624 -0.00114263)
(-0.0437483 0.0287255 -0.00105328)
(-0.0422753 0.0267963 -0.0013683)
(-0.0419695 0.0255725 -0.00194162)
(-0.0414953 0.0239631 -0.00269953)
(-0.0403673 0.0225324 -0.00354986)
(0.00609937 0.0315111 0.0305712)
(0.0105688 0.0335668 0.029348)
(0.0137981 0.0354553 0.0275318)
(0.0162029 0.0369407 0.0247359)
(0.0179182 0.0378977 0.021358)
(0.0190599 0.0383274 0.0176458)
(0.0196951 0.0382794 0.0137686)
(0.0198584 0.0377952 0.00974097)
(-0.00532676 0.0261271 0.0377967)
(0.00121852 0.0296962 0.0348446)
(0.00521131 0.0323061 0.0341322)
(0.0079886 0.0343369 0.0325098)
(0.0100002 0.0356766 0.030028)
(0.0113812 0.0364069 0.0267043)
(0.0121734 0.0364779 0.0228669)
(0.0125215 0.0360635 0.0185681)
(-0.0156388 0.0182043 0.0466006)
(-0.00928786 0.0240865 0.0379454)
(-0.00525104 0.0275408 0.0382247)
(-0.00232851 0.030094 0.037985)
(6.9605e-05 0.0315147 0.0368984)
(0.00207842 0.0320103 0.0349637)
(0.00371487 0.0316751 0.0323571)
(0.00504236 0.0306854 0.0292854)
(-0.0209416 0.0149327 0.0425054)
(-0.0173386 0.0213826 0.0362309)
(-0.0154354 0.0260767 0.0368806)
(-0.0140204 0.0292379 0.0366848)