/*--------------------------------*- C++ -*----------------------------------*\
| =========                 |                                                 |
| \\      /  F ield         | OpenFOAM: The Open Source CFD Toolbox           |
|  \\    /   O peration     | Version:  plus.master.MPPICInterFoam            |
|   \\  /    A nd           | Web:      www.OpenFOAM.com                      |
|    \\/     M anipulation  |                                                 |
\*---------------------------------------------------------------------------*/
FoamFile
{
    version     2.0;
    format      ascii;
    class       volScalarField;
    location    "13.4";
    object      rho;
}
// * * * * * * * * * * * * * * * * * * * * * * * * * * * * * * * * * * * * * //

dimensions      [1 -3 0 0 0 0 0];

internalField   nonuniform List<scalar> 
11822
(
1000
1000
1000
1000
1000
1000
1000
884.981
896.397
901.596
981.331
1000
1000
1000
442.806
400.683
519.473
833.415
980.078
1000
1000
293.35
375.758
293.809
574.814
917.629
1000
1000
293.408
294.01
294.3
507.378
908.368
1000
1000
293.303
292.499
291.965
525.08
893.127
1000
1000
393.36
348.846
388.384
696.775
937.083
1000
1000
1000
1000
1000
1000
1000
1000
1000
887.583
899.495
904.853
982.352
1000
1000
1000
457.576
395.497
529.036
841.399
980.872
1000
1000
293.33
293.496
293.855
574.089
918.692
1000
1000
451.449
430.474
357.522
504.014
909.571
1000
1000
293.498
291.415
291.532
542.539
895.486
1000
1000
429.416
390.587
416.886
713.278
939.276
1000
1000
999.999
1000
1000
1000
1000
1000
1000
888.132
904.528
907.427
983.018
1000
1000
1000
457.605
394.191
537.201
846.129
981.176
1000
1000
293.446
293.545
293.785
575.487
919.439
1000
1000
447.379
544.494
542.864
499.369
911.463
1000
1000
392.528
291.416
293.089
555.337
897.109
999.999
1000
452.948
414.312
428.958
714.996
940.696
1000
1000
1000
1000
1000
1000
1000
1000
1000
882.114
902.483
904.278
982.964
1000
1000
1000
431.382
383.543
529.304
840.773
980.727
1000
1000
293.467
293.521
293.578
570.272
918.733
1000
1000
298.208
545.129
544.003
493.122
909.646
1000
1000
430.798
291.003
291.417
538.616
894.84
1000
1000
428.915
382.584
406.18
697.12
938.803
1000
1000
1000
1000
1000
1000
1000
1000
1000
879.323
900.943
901.645
983.237
1000
1000
1000
412.53
382.477
525.447
836.338
980.832
1000
1000
293.448
305.263
405.92
574.174
918.799
1000
1000
293.483
545.702
394.329
490.615
909.53
1000
1000
322.367
290.534
285.429
509.591
894.258
1000
1000
360.993
306.142
353.704
679.496
938.517
1000
1000
1000
1000
1000
1000
1000
1000
1000
890.008
910.251
906.919
984.042
1000
1000
1000
440.443
418.863
556.259
844.278
980.762
1000
1000
297.758
514.625
536.226
604.119
921.419
1000
1000
363.202
545.796
285.472
510.49
916.035
1000
1000
293.503
297.97
285.46
520.483
900.766
1000
1000
346.747
297.975
350.856
697.374
943.201
1000
1000
1000
1000
1000
1000
1000
1000
999.908
999.586
1000
1000
1000
1000
1000
1000
1000
1000
1000
1000
1000
1000
1000
1000
1000
1000
1000
1000
1000
1000
1000
1000
1000
1000
1000
1000
1000
1000
1000
1000
1000
999.979
1000
1000
1000
1000
1000
1000
1000
999.821
1000
1000
1000
1000
1000
1000
1000
1000
1000
1000
1000
1000
1000
1000
999.886
999.671
1000
1000
1000
1000
1000
1000
1000
1000
1000
1000
1000
1000
1000
1000
1000
1000
1000
1000
1000
1000
1000
1000
1000
1000
1000
1000
1000
1000
1000
1000
1000
999.989
1000
1000
1000
1000
1000
1000
1000
999.71
1000
1000
1000
1000
1000
1000
1000
999.932
1000
1000
1000
1000
1000
1000
999.846
999.735
1000
1000
1000
1000
1000
1000
1000
1000
1000
1000
1000
1000
1000
1000
1000
1000
1000
1000
1000
1000
1000
1000
1000
1000
1000
1000
1000
1000
1000
1000
1000
1000
1000
1000
1000
1000
1000
1000
1000
999.666
1000
1000
1000
1000
1000
1000
1000
999.225
1000
1000
1000
1000
1000
1000
999.772
999.839
1000
1000
1000
1000
1000
1000
1000
1000
1000
1000
1000
1000
1000
1000
1000
1000
1000
1000
1000
1000
1000
1000
1000
1000
1000
1000
1000
1000
1000
1000
1000
1000
1000
1000
1000
1000
1000
1000
1000
999.693
1000
1000
1000
1000
1000
1000
1000
998.833
1000
1000
1000
1000
1000
1000
999.777
999.838
1000
1000
1000
1000
1000
1000
1000
1000
1000
1000
1000
1000
1000
1000
1000
1000
1000
1000
1000
1000
1000
1000
1000
1000
1000
1000
1000
1000
1000
1000
1000
1000
1000
1000
1000
1000
1000
1000
1000
999.763
1000
1000
1000
1000
1000
1000
1000
998.833
1000
1000
1000
1000
1000
1000
999.869
999.919
1000
1000
1000
1000
1000
1000
1000
1000
1000
1000
1000
1000
1000
1000
1000
1000
1000
1000
1000
1000
1000
1000
1000
1000
1000
1000
1000
1000
1000
1000
1000
1000
1000
1000
1000
1000
1000
1000
1000
999.922
1000
1000
1000
1000
1000
1000
1000
998.833
749.81
992.252
1000
1000
999.982
999.971
999.994
1000
418.208
800.419
999.999
1000
999.975
999.642
999.944
1000
365.996
726.311
998.793
999.999
999.975
999.978
999.994
999.993
402.651
808.464
1000
1000
1000
1000
999.948
999.897
726.474
987.002
1000
1000
999.867
999.279
999.834
999.934
974.943
999.889
1000
1000
999.974
999.843
999.969
999.997
1000
999.997
999.981
999.987
1000
1000
999.999
1000
756.025
991.897
1000
1000
999.981
999.975
999.996
1000
492.323
810.833
999.999
1000
999.924
999.961
999.985
1000
476.713
747.593
997.57
999.999
999.903
999.955
999.994
999.993
425.154
812.555
1000
1000
1000
999.856
999.861
999.9
735.727
987.327
1000
1000
999.784
999.28
999.881
999.968
975.569
999.881
1000
1000
999.956
999.851
999.983
999.999
1000
999.995
999.981
999.996
1000
1000
999.999
1000
749.08
990.541
1000
1000
999.98
999.976
999.996
1000
556.53
802.558
999.76
1000
999.902
999.974
999.997
1000
526.614
745.968
997.31
999.999
999.902
999.949
999.994
999.994
430.36
809.171
1000
1000
999.994
999.317
999.789
999.927
735.49
987.035
1000
1000
999.631
999.28
999.925
999.991
975.704
999.874
1000
1000
999.927
999.878
999.992
1000
1000
999.992
999.987
999.999
1000
999.999
999.999
1000
719.32
988.187
1000
1000
999.981
999.979
999.996
1000
515.192
765.992
999.742
1000
999.902
999.963
999.998
1000
458.609
711.092
997.04
999.999
999.916
999.954
999.991
999.998
400.865
781.964
1000
1000
999.93
999.296
999.773
999.93
715.239
984.326
1000
1000
999.54
999.351
999.958
999.991
973.687
999.843
1000
1000
999.912
999.916
999.996
1000
1000
999.992
999.997
999.999
1000
999.995
1000
1000
694.149
986.888
1000
1000
999.984
999.988
999.996
1000
396.115
731.821
999.918
999.999
999.902
999.964
999.997
999.999
333.297
662.468
995.751
999.998
999.98
999.971
999.977
999.999
348.169
752.729
1000
999.999
999.752
999.297
999.799
999.916
697.679
980.834
1000
999.998
999.54
999.717
999.975
999.96
972.129
999.795
1000
1000
999.914
999.941
999.997
1000
1000
999.993
999.999
999.999
999.997
999.993
1000
1000
703.239
987.304
1000
1000
999.992
999.997
999.998
1000
358.976
736.945
999.984
1000
999.948
999.981
999.996
999.999
339.311
664.081
994.535
999.997
999.996
999.992
999.977
999.967
355.023
761.688
999.994
999.998
999.68
999.799
999.919
999.914
713.983
981.277
1000
999.999
999.541
999.891
999.995
999.932
973.993
999.777
1000
1000
999.922
999.951
999.999
1000
1000
999.994
999.995
999.997
999.995
999.993
1000
1000
1000
999.867
999.763
999.976
1000
1000
1000
1000
1000
999.789
999.834
999.994
1000
1000
1000
1000
1000
999.971
999.991
999.999
1000
999.993
999.998
999.999
1000
1000
1000
1000
1000
999.997
999.999
1000
1000
1000
1000
1000
999.991
1000
1000
1000
1000
1000
1000
999.998
1000
1000
999.749
998.81
1000
1000
1000
1000
1000
1000
999.232
997.497
1000
999.826
999.834
999.989
1000
1000
1000
1000
1000
999.789
999.945
999.996
1000
1000
1000
1000
1000
999.997
999.999
1000
1000
999.993
999.999
999.998
1000
1000
1000
1000
999.996
999.997
999.999
1000
1000
1000
1000
1000
999.991
1000
1000
1000
1000
1000
1000
999.998
1000
1000
999.795
999.813
1000
1000
1000
1000
1000
1000
999.246
997.497
1000
999.881
999.961
999.99
1000
1000
1000
1000
1000
999.882
999.988
999.996
1000
1000
999.999
1000
1000
1000
1000
1000
1000
999.993
999.999
999.998
1000
1000
1000
1000
999.957
999.998
1000
1000
1000
1000
1000
999.973
999.991
1000
1000
999.989
1000
1000
999.999
999.998
1000
1000
999.942
999.873
1000
1000
1000
1000
1000
1000
999.193
997.508
1000
999.99
999.991
999.988
1000
1000
1000
1000
1000
999.998
999.992
999.997
1000
1000
999.999
1000
1000
1000
1000
1000
1000
999.993
1000
1000
1000
1000
1000
999.971
999.949
999.999
1000
999.916
1000
1000
1000
999.95
999.993
1000
1000
999.902
1000
1000
999.996
999.998
1000
1000
999.67
999.84
1000
1000
1000
1000
1000
1000
998.999
997.509
1000
999.999
999.973
999.986
1000
1000
1000
1000
1000
1000
999.991
999.998
1000
999.997
999.999
1000
1000
1000
1000
1000
1000
999.994
1000
1000
1000
1000
1000
999.743
999.948
1000
1000
999.856
1000
1000
999.997
999.95
999.992
1000
1000
999.893
1000
1000
999.995
999.999
1000
1000
999.152
999.734
1000
1000
1000
1000
1000
1000
999.141
997.509
1000
999.99
999.967
999.986
1000
1000
1000
1000
1000
999.994
999.991
999.999
999.999
999.994
999.999
1000
1000
1000
1000
999.952
999.966
1000
1000
1000
1000
1000
999.942
999.738
999.928
1000
1000
999.856
1000
1000
999.964
999.941
999.994
1000
1000
999.934
1000
1000
999.996
999.999
1000
1000
999.415
999.189
1000
1000
1000
1000
1000
1000
999.823
997.834
1000
1000
999.992
999.842
999.951
1000
1000
999.636
1000
1000
999.864
998.919
999.626
1000
1000
999.939
996.234
1000
999.586
998.919
999.74
999.991
1000
999.898
932.366
1000
1000
999.063
998.879
999.863
999.948
999.951
715.507
994.681
1000
999.999
999.855
999.991
999.967
999.766
678.697
987.87
1000
1000
999.989
999.996
1000
999.999
815.732
1000
1000
1000
999.996
1000
1000
999.999
1000
1000
999.973
999.881
999.98
1000
1000
999.789
1000
1000
999.823
998.918
999.735
999.999
999.998
999.978
996.326
1000
999.579
998.918
999.793
999.988
1000
999.898
936.073
1000
1000
998.919
999.005
999.975
999.901
999.965
723.121
994.062
1000
999.985
999.826
999.994
999.717
999.768
685.709
986.799
1000
1000
999.997
999.998
1000
999.998
818.387
999.88
1000
1000
1000
1000
1000
999.999
1000
1000
999.943
999.945
999.996
1000
1000
999.971
1000
1000
999.735
998.99
999.814
999.997
999.997
999.998
996.33
1000
999.595
998.919
999.696
999.968
1000
999.898
936.881
999.999
999.998
998.918
999.581
999.996
999.922
999.973
719.9
993.495
999.999
999.907
999.788
999.992
999.625
999.85
674.726
985.19
1000
1000
999.997
999.999
1000
999.98
812.064
999.818
1000
1000
1000
1000
1000
999.999
1000
1000
999.929
999.99
1000
1000
1000
999.898
1000
1000
999.564
999.64
999.865
999.996
999.998
999.999
995.97
1000
999.687
999.429
999.329
999.937
999.992
999.924
933.096
999.999
999.984
999.258
999.952
999.996
999.96
999.973
694.639
992.262
999.997
999.786
999.818
999.991
999.625
999.91
630.673
981.721
1000
1000
999.996
1000
1000
999.927
788.233
999.953
1000
1000
1000
1000
1000
999.999
1000
999.999
999.927
999.997
1000
1000
1000
999.211
1000
999.998
999.551
999.832
999.904
999.996
1000
1000
995.807
999.999
999.872
999.386
999.286
999.914
999.963
999.983
929.563
999.997
999.936
999.946
999.969
999.968
999.859
999.973
673.509
991.189
999.995
999.788
999.912
999.995
999.625
999.941
598.016
978.567
1000
1000
999.996
1000
999.816
999.85
776.666
1000.01
1000
1000
1000
1000
999.999
999.998
1000
999.997
999.94
999.996
1000
1000
1000
998.845
1000
999.988
999.551
999.804
999.96
1000
1000
999.521
996.084
999.997
999.925
999.326
999.34
999.937
999.958
999.98
936.027
999.992
999.905
999.977
999.962
999.722
999.628
999.979
690.398
992.189
999.987
999.958
999.992
999.978
999.625
999.969
615.51
980.233
1000
1000
999.996
1000
999.626
999.871
793.294
1000
1000
1000
1000
1000
999.997
999.995
1000
1000
1000
1000
1000
1000
1000
1000
1000
1000
1000
1000
1000
1000
1000
1000
1000
1000
1000
1000
1000
1000
1000
1000
1000
1000
1000
1000
1000
1000
1000
1000
1000
1000
1000
1000
1000
1000
1000
1000
1000
1000
1000
1000
1000
1000
1000
1000
1000
1000
1000
1000
1000
1000
1000
1000
1000
1000
1000
1000
1000
1000
1000
1000
1000
1000
1000
1000
1000
1000
1000
1000
1000
1000
1000
1000
1000
1000
1000
1000
1000
1000
1000
1000
1000
1000
1000
1000
1000
1000
1000
1000
1000
1000
1000
1000
1000
1000
1000
1000
1000
1000
1000
1000
1000
1000
1000
1000
1000
1000
1000
1000
1000
1000
1000
1000
1000
1000
1000
1000
1000
1000
1000
1000
1000
1000
1000
1000
1000
1000
1000
1000
1000
1000
1000
1000
1000
1000
1000
1000
1000
1000
1000
1000
1000
1000
1000
1000
1000
1000
1000
1000
1000
1000
1000
1000
1000
1000
1000
1000
1000
1000
1000
1000
1000
1000
1000
1000
1000
1000
1000
1000
1000
1000
1000
1000
1000
1000
1000
1000
1000
1000
1000
1000
1000
1000
1000
1000
1000
1000
1000
995.985
1000
1000
1000
1000
1000
1000
1000
996.801
1000
1000
1000
1000
1000
1000
1000
994.412
1000
1000
1000
1000
1000
1000
1000
983.229
1000
1000
1000
1000
1000
1000
1000
979.037
1000
1000
1000
1000
1000
999.999
999.5
936.077
1000
1000
1000
1000
1000
999.999
1000
945.935
1000
1000
1000
1000
1000
999.999
1000
931.728
1000
1000
1000
1000
1000
999.999
1000
933.929
1000
1000
1000
1000
1000
999.999
1000
931.205
1000
1000
1000
1000
999.999
999.999
991.996
919.507
1000
1000
1000
1000
1000
999.999
1000
916.761
1000
1000
999.999
999.993
997.304
940.936
876.606
867.625
1000
1000
999.999
999.993
996.082
940.13
927.11
885.115
1000
1000
999.999
999.993
994.224
939.45
905.225
883.491
1000
1000
999.999
999.993
994.793
931.309
895.143
898.528
1000
1000
999.999
999.993
992.421
896.254
896.265
904
1000
1000
999.999
999.993
987.008
876.128
858.512
914.322
1000
1000
1000
999.993
990.883
912.184
874.443
914.64
1000
1000
1000
1000
1000
1000
1000
1000
999.98
1000
1000
1000
1000
1000
1000
1000
999.918
999.999
1000
1000
1000
1000
1000
1000
999.635
999.997
1000
1000
1000
1000
1000
1000
999.899
999.997
1000
1000
1000
1000
1000
1000
999.997
1000
1000
1000
1000
1000
1000
1000
999.999
1000
1000
1000
1000
1000
1000
1000
1000
1000
1000
1000
1000
1000
1000
1000
999.995
1000
1000
1000
1000
1000
1000
1000
1000
1000
1000
1000
1000
1000
1000
1000
1000
1000
1000
1000
1000
1000
1000
1000
1000
1000
1000
1000
1000
1000
1000
1000
999.983
1000
1000
1000
1000
1000
1000
1000
999.997
1000
1000
1000
1000
1000
1000
1000
1000
1000
1000
1000
1000
1000
1000
1000
1000
1000
1000
1000
1000
1000
1000
1000
1000
1000
1000
1000
1000
1000
1000
1000
1000
1000
1000
1000
1000
1000
1000
1000
1000
1000
1000
1000
1000
1000
1000
1000
999.98
1000
1000
1000
1000
1000
1000
1000
999.996
1000
1000
1000
1000
1000
1000
1000
1000
1000
1000
1000
1000
1000
1000
1000
1000
1000
1000
1000
1000
1000
1000
1000
1000
1000
1000
1000
1000
1000
1000
1000
999.998
1000
1000
1000
1000
1000
1000
1000
999.998
1000
1000
1000
1000
1000
1000
999.385
999.982
1000
1000
1000
1000
1000
1000
996.932
999.998
1000
1000
1000
1000
1000
1000
997.653
1000
1000
1000
1000
1000
1000
999.997
999.999
1000
1000
1000
1000
1000
1000
999.997
999.211
999.998
1000
1000
1000
1000
1000
999.997
999.999
999.991
1000
1000
1000
1000
1000
999.998
1000
999.996
1000
1000
1000
1000
999.998
999.999
939.239
999.998
1000
1000
1000
1000
999.998
999.999
926.878
1000
1000
1000
1000
1000
999.998
972.357
939.824
1000
1000
1000
1000
999.999
999.991
879.408
848.566
1000
1000
1000
1000
999.999
999.99
883.327
841.841
999.994
1000
1000
1000
999.999
999.99
882.205
838.17
999.981
1000
1000
1000
999.998
999.991
890.883
913
999.997
1000
1000
1000
999.994
961.167
851.303
862.53
1000
1000
1000
1000
999.993
931.383
840.873
874.712
1000
1000
1000
999.999
999.993
935.522
807.781
922.133
1000
1000
1000
1000
1000
1000
1000
1000
1000
1000
1000
1000
1000
1000
1000
1000
1000
1000
1000
1000
1000
1000
1000
1000
1000
1000
1000
1000
1000
1000
1000
1000
1000
1000
1000
1000
1000
1000
1000
1000
1000
1000
1000
1000
1000
1000
1000
1000
1000
1000
1000
1000
1000
1000
1000
1000
1000
1000
1000
1000
1000
1000
1000
1000
1000
1000
1000
1000
1000
1000
1000
1000
1000
1000
1000
1000
1000
1000
1000
1000
1000
1000
1000
1000
1000
1000
1000
1000
1000
1000
1000
1000
1000
1000
1000
1000
1000
1000
1000
1000
1000
1000
1000
1000
1000
1000
1000
1000
1000
1000
1000
1000
1000
1000
1000
1000
1000
1000
1000
1000
1000
1000
1000
1000
1000
1000
1000
1000
1000
1000
1000
1000
1000
1000
1000
1000
1000
1000
1000
1000
1000
1000
1000
1000
1000
1000
1000
1000
1000
1000
1000
1000
1000
1000
1000
1000
1000
1000
1000
1000
1000
1000
1000
1000
1000
1000
1000
1000
1000
1000
1000
1000
1000
1000
1000
997.092
1000
1000
1000
1000
1000
1000
1000
981.942
1000
1000
1000
1000
1000
1000
1000
986.612
1000
1000
1000
1000
1000
1000
1000
989.899
1000
1000
1000
1000
1000
1000
1000
990.509
1000
1000
1000
1000
1000
1000
1000
986.902
1000
1000
1000
1000
1000
1000
1000
992.116
1000
1000
1000
1000
1000
999.998
972.386
943.332
1000
1000
1000
1000
1000
999.998
956.64
927.69
1000
1000
1000
1000
1000
999.999
959.764
926.256
1000
1000
1000
1000
999.999
999.999
996.556
921.579
1000
1000
1000
1000
999.999
999.998
1000
928.214
1000
1000
1000
1000
1000
999.999
1000
931.924
1000
1000
1000
1000
1000
999.999
1000
915.894
1000
1000
1000
999.999
999.993
944.19
798.599
923.051
1000
1000
1000
999.997
999.991
915.864
806.256
924.39
1000
1000
1000
999.995
991.919
914.385
818.079
917.327
1000
1000
1000
999.993
975.746
880.613
874.439
901.174
1000
1000
999.999
999.994
980.974
879.563
896.109
907.864
1000
1000
999.999
999.994
995.104
933.001
899.914
926.591
1000
1000
999.999
999.994
996.695
930.117
877.015
880.863
999.961
999.999
1000
1000
1000
1000
1000
1000
999.611
999.996
1000
1000
1000
1000
1000
1000
999.316
999.997
1000
1000
1000
1000
1000
1000
999.973
999.999
1000
1000
1000
1000
1000
1000
1000
999.999
1000
1000
1000
1000
1000
1000
1000
1000
1000
1000
1000
1000
1000
1000
1000
1000
1000
1000
1000
1000
1000
1000
1000
1000
1000
1000
1000
1000
1000
1000
1000
1000
1000
1000
1000
1000
1000
1000
1000
1000
1000
1000
1000
1000
1000
1000
1000
1000
1000
1000
1000
1000
1000
1000
1000
1000
1000
1000
1000
1000
1000
1000
1000
1000
1000
1000
1000
1000
1000
1000
1000
1000
1000
1000
1000
1000
1000
1000
1000
1000
1000
1000
1000
1000
1000
1000
1000
1000
1000
1000
1000
1000
1000
1000
1000
1000
1000
1000
1000
1000
1000
1000
999.999
1000
1000
1000
1000
1000
1000
1000
1000
1000
1000
1000
1000
1000
1000
1000
1000
1000
1000
1000
1000
1000
1000
1000
1000
1000
1000
1000
1000
1000
1000
1000
1000
1000
1000
1000
1000
1000
1000
969.458
1000
1000
1000
1000
1000
1000
1000
969.663
1000
1000
1000
1000
1000
1000
1000
979.318
999.995
1000
1000
1000
1000
1000
1000
996.191
1000
1000
1000
1000
1000
1000
1000
990.416
1000
1000
1000
1000
1000
1000
1000
1000
1000
1000
1000
1000
1000
1000
1000
1000
1000
1000
1000
1000
1000
999.999
975.179
917.236
1000
1000
1000
1000
1000
999.998
981.596
935.26
1000
1000
1000
1000
1000
999.998
983.999
927.423
999.994
1000
1000
1000
1000
999.998
990.255
913.388
1000
1000
1000
1000
1000
999.998
999.999
920.282
999.992
1000
1000
1000
1000
1000
999.44
976.404
999.998
1000
1000
1000
1000
1000
997.391
999.943
1000
1000
1000
999.995
999.991
916.153
825.725
926.849
1000
1000
1000
999.998
999.992
899.829
822.354
941.884
1000
1000
1000
999.999
999.992
924.308
830.906
935.492
999.995
1000
1000
1000
999.993
940.846
852.563
875.649
999.908
1000
1000
1000
999.992
934.769
882.818
914.364
999.864
1000
1000
1000
999.996
998.372
845.308
916.313
999.978
1000
1000
1000
999.999
999.99
865.655
874.819
999.223
999.948
999.306
1000
1000
999.503
999.73
997.52
997.932
999.784
999.979
1000
1000
999.892
999.215
996.064
998.373
997.789
999.596
1000
1000
999.542
997.988
997.978
998.891
997.789
999.723
1000
1000
999.52
997.299
998.162
998.829
998.457
999.958
1000
1000
999.251
997.393
999.413
999.648
998.455
999.517
1000
1000
996.9
996.387
999.299
999.473
998.455
999.451
1000
999.208
992.476
995.425
999.922
999.733
999.061
999.194
1000
995.329
994.44
996.516
981.245
994.158
1000
1000
1000
997.138
994.812
996.338
982.71
994.276
999.081
1000
1000
996.055
994.534
997.456
985.893
994.935
999.686
1000
1000
996.839
993.839
995.461
987.222
995.378
999.993
1000
1000
994.498
993.655
991.795
990.835
996.843
999.867
1000
1000
994.02
990.518
990.494
989.469
997.722
999.957
1000
999.052
990.264
990.266
994.019
993.071
996.867
999.267
1000
995.088
981.5
994.401
994.388
979.875
985.061
999.098
1000
997.19
981.469
993.166
995.179
979.874
987.562
998.288
1000
999.215
980.408
995.029
998.788
979.874
992.002
999.842
1000
995.327
981.158
993.323
997.802
981.788
992.119
1000
1000
993.983
981.193
993.651
995.246
979.869
992.772
998.6
1000
980.751
984.701
996.381
996.546
979.869
992.448
999.356
1000
984.703
987.342
994.395
998.408
982.052
995.254
1000
1000
945.678
982.571
999.69
999.69
998.401
980.213
986.215
998.916
950.398
981.053
999.689
999.507
987.684
984.331
993.324
1000
957.072
980.288
999.515
999.161
984.098
982.707
994.784
1000
952.713
981.76
999.514
999.512
987.022
981.984
996.047
1000
952.306
984.593
999.511
999.511
985.823
977.748
983.224
999.539
958.276
999.508
999.509
999.51
991.896
977.738
987.754
999.981
981.316
999.506
999.508
999.509
998.54
977.731
995.303
1000
936.973
990.58
999.688
999.69
986.741
984.701
969.834
977.125
937.305
984.788
999.689
999.633
994.825
994.812
970.165
976.173
939.103
982.447
999.585
999.269
998.05
981.593
978.166
983.413
948.184
989.927
999.516
999.346
996.25
977.786
977.785
983.145
950.629
993.78
994.479
997.892
997.87
991.849
987.944
975.166
974.52
999.506
998.522
998.525
994.508
994.046
985.828
974.615
999.091
999.506
995.689
986.328
992.35
967.755
965.794
975.588
936.185
998.827
962.105
917.07
875.808
952.317
957.537
932.473
977.794
981.214
929.935
914.209
895.172
935.378
955.584
930.35
977.595
980.209
910.225
888.516
914.549
936.403
944.243
917.007
977.307
964.477
909.485
914.559
929.048
935.673
941.397
924.642
977.001
976.529
903.351
899.003
916.204
930.191
938.479
935.498
976.762
968.43
917.331
903.374
901.989
929.841
936.783
941.92
965.737
968.073
885.766
884.215
959.305
966.54
948.988
938.366
1000
1000
1000
1000
1000
987.317
995.079
1000
1000
1000
1000
1000
1000
989.376
994.338
999.989
1000
1000
1000
1000
1000
990.446
994.883
999.991
1000
1000
1000
1000
1000
990.899
996.569
1000
1000
1000
1000
1000
999.374
994.458
998.807
1000
1000
1000
1000
999.923
999.47
997.705
999.737
1000
1000
1000
1000
1000
999.091
999.344
999.942
1000
1000
1000
1000
995.52
986.092
986.791
996.344
1000
1000
1000
1000
995.075
987.835
986.793
994.608
1000
1000
1000
1000
999.604
994.727
986.795
995.262
1000
1000
1000
1000
998.966
992.842
986.798
997.139
1000
1000
1000
999.981
998.553
987.544
992.5
999.57
1000
1000
1000
994.544
996.244
988.944
996.193
1000
1000
1000
1000
999.919
997.842
993.533
999.773
1000
1000
1000
995.191
982.626
979.631
980.609
992.665
999.259
1000
1000
991.261
980.391
979.631
979.631
991.267
998.341
1000
1000
991.943
977.188
984.444
981.897
992.952
999.322
1000
1000
998.907
985.236
983.049
981.903
991.585
999.842
1000
1000
999.512
982.299
983.817
984.332
993.893
1000
1000
1000
985.605
982.517
992.714
984.866
996.14
1000
1000
1000
986.858
986.568
988.243
994.711
1000
1000
1000
983.024
941.857
939.404
986.659
998.564
997.742
999.126
1000
982.104
931.593
938.482
984.093
997.655
996.597
998.013
1000
986.922
934.811
938.032
984.002
998.745
996.418
998.408
1000
986.103
956.088
938.044
984.055
997.705
995.961
997.983
1000
990.056
974.162
961.493
998.94
997.795
994.646
997.695
1000
978.641
949.754
988.42
998.11
998.28
992.808
997.049
1000
968.079
949.754
979.449
992.025
997.511
1000
997.815
999.889
925.538
925.191
985.467
999.053
999.019
987.47
993.694
988.636
924.716
924.696
976.271
999.03
999.005
987.074
993.855
988.812
930.428
924.731
969.887
999.007
998.978
982.143
989.293
988.633
929.512
924.782
970.439
998.972
998.953
981.119
983.475
990.112
907.086
961.664
998.935
998.95
998.575
978.549
966.772
983.507
922.042
994.926
998.929
998.349
998.026
980.717
965.362
986.908
927.55
964.419
984.459
997.782
997.839
988.923
965.253
972.949
943.595
979.929
987.234
966.423
931.769
899.345
911.826
940.881
951.231
981.795
984.72
966.894
938.663
902.091
911.848
938.092
949.82
980.907
985.548
956.191
946.565
909.208
904.661
933.348
924.485
982.351
988.692
974.435
939.913
917.949
909.624
928.067
908.728
937.68
994.904
947.982
910.864
908.287
949.779
916.592
959.668
985.26
990.661
919.959
893.507
955.813
952.519
918.962
959.783
993.319
973.939
900.796
890.007
933.155
946.074
930.934
1000
1000
1000
999.604
997.698
999.502
999.998
1000
1000
1000
1000
999.098
997.87
999.51
999.989
1000
1000
1000
1000
999.695
998.494
999.13
999.934
1000
1000
1000
1000
999.547
998.441
999.137
999.947
1000
1000
1000
999.992
999.906
1000
999.896
999.99
1000
1000
1000
999.942
999.22
999.509
999.896
999.994
1000
1000
1000
999.979
999.457
998.508
999.385
999.997
1000
1000
999.11
997.981
991.788
993.861
999.774
1000
1000
1000
998.896
999.79
991.167
991.432
999.764
1000
1000
1000
1000
999.098
993.137
989.304
1000
1000
1000
1000
999.999
999.266
992.772
988.999
1000
1000
1000
1000
998.269
999.845
994.052
995.553
999.891
1000
1000
1000
996.656
997.201
985.752
991.706
999.434
1000
1000
1000
997.975
996.447
989.505
985.158
997.58
1000
1000
998.222
985.829
986.346
987.151
993.854
1000
1000
1000
997.745
994.529
997.385
987.012
990.395
999.994
1000
1000
999.466
996.584
995.126
987.008
988.683
1000
1000
1000
996.901
999.7
996.581
987.007
987.005
999.749
1000
1000
989.277
994.993
999.687
989.181
985.52
999.849
1000
1000
986.085
985.329
990.863
980.368
981.848
995.426
1000
1000
985.209
986.144
989.999
980.362
979.878
990.956
1000
1000
951.843
978.731
995.277
995.582
997.059
992.874
996.884
1000
950.37
995.289
999.137
992.477
992.242
994.625
1000
1000
957.349
982.412
998.22
996.387
995.974
999.895
999.71
1000
959.501
999.7
998.565
992.142
987.971
994.942
999.555
1000
953.463
996.725
999.687
994.198
978.918
988.17
999.059
1000
945.776
985.345
999.687
999.682
987.001
976.732
994.592
999.958
945.737
992.8
999.688
999.69
994.422
978.047
990.679
1000
933.855
999.446
999.452
991.719
986.743
972.516
965.336
979.572
930.024
996.686
999.502
992.098
980.522
970.639
975.988
980.169
926.263
965.661
999.56
997.656
996.107
983.496
969.832
974.875
943.329
991.632
999.621
999.437
987.219
973.127
969.919
973.929
959.845
999.63
999.687
995.896
980.595
966.27
965.546
972.135
976.663
999.642
997.048
980.6
987.507
976.952
955.326
973.212
974.232
999.648
999.687
984.843
986.24
986.234
959.405
977.986
921.897
997.647
948.503
881.862
905.327
965.376
943.188
925.438
935.146
966.785
946.601
889.509
899.622
953.357
926.404
921.2
935.335
978.916
965.301
899.395
883.205
927.759
936.674
924.897
980.257
980.348
911.085
903.155
910.445
948.944
931.438
926.049
980.09
957.785
908.267
899.612
963.164
962.938
932.382
936.14
980.313
975.922
900.36
890.503
987.507
968.125
952.584
942.227
980.595
999.216
981.348
898.272
902.529
961.256
960.339
928.378
999.888
999.028
999.601
1000
999.817
999.249
999.176
999.943
999.299
998.794
998.794
1000
999.124
996.492
998.171
999.961
999.753
999.43
999.762
1000
1000
994.674
994.565
998.145
999.827
999.982
999.981
1000
1000
999.638
993.053
994.289
998.61
999.97
999.992
1000
1000
1000
997.378
988.6
996.124
999.873
1000
1000
1000
1000
1000
991.461
992.121
999.357
1000
1000
1000
1000
1000
995.341
987.326
997.459
1000
996.787
987.459
997.426
991.402
993.054
998.792
999.52
1000
996.216
981.005
993.433
995.674
991.689
998.014
999.978
1000
999.988
990.337
982.054
991.528
995.187
997.583
999.51
1000
999.995
998.807
987.418
985.682
992.462
997.712
999.375
1000
1000
1000
992.035
985.682
987.875
996.391
999.743
1000
1000
1000
997.401
991.973
985.481
991.867
999.885
1000
1000
1000
1000
994.23
985.479
988.945
999.055
1000
972.775
980.598
998.796
988.828
982.37
998.615
1000
1000
968.403
975.838
997.36
996.405
982.371
993.801
1000
1000
983.095
975.837
982.05
995.493
994.469
994.468
997.555
1000
991.595
976.27
976.648
987.465
995.418
996.844
997.439
1000
994.866
986.869
976.801
985.787
995.52
997.289
997.598
1000
999.747
990.01
982.338
979.639
991.323
996.243
998.119
1000
1000
993.251
982.608
979.632
985.479
992.483
999.145
1000
968.247
991.729
999.505
999.163
993.928
978.059
992.705
999.582
968.249
989.34
999.5
999.495
996.282
979.526
996.478
1000
968.247
982.14
997.153
999.492
999.49
987.851
993.397
999.865
973.018
970.937
994.41
999.49
999.488
987.417
994.129
1000
962.395
967.861
993.512
999.488
999.487
985.137
990.306
1000
964.754
952.753
984.085
998.601
999.487
987.458
993.764
1000
987.826
942.137
958.77
992.327
999.485
987.469
992.491
1000
992.63
999.465
987.535
989.228
995.116
994.089
961.499
971.097
991.625
999.437
988.6
992.92
995.195
989.032
965.065
978.826
994.065
999.414
991.343
997.934
986.812
965.041
968.389
984.869
994.775
999.399
996.549
994.304
980.798
965.039
967.469
983.622
966.589
999.382
999.371
979.276
983.853
965.04
972.15
989.032
926.819
984.009
999.347
999.113
994.089
972.43
975.319
990.894
934.264
937.071
989.891
999.073
998.399
988.949
982.255
985.991
973.907
958.955
903.596
892.416
949.702
946.203
944.464
946.132
966.645
963.162
887.165
905.64
968.014
956.078
931.485
939.453
949.104
983.204
906.253
902.23
967.416
965.678
943.311
929.386
993.29
978.433
914.657
861.432
961.903
965.591
949.247
931.145
993.097
992.624
976.205
893.94
930.273
965.513
956.142
924.015
939.532
992.361
992.528
953.053
883.379
932.795
960.85
919.592
927.113
984.321
991.371
983.218
918.796
892.072
938.111
942.554
1000
1000
1000
1000
1000
1000
1000
893.454
909.506
907.582
982.093
1000
1000
1000
490.466
465.808
573.781
839.425
977.836
1000
1000
330.193
545.795
469.831
602.347
918.388
1000
1000
545.614
546.109
286.59
537.939
914.01
1000
1000
293.807
297.774
287.874
557.898
900.345
1000
1000
374.848
334.021
400.449
730.805
940.581
1000
1000
999.988
999.991
999.993
999.999
1000
1000
1000
878.781
892.586
896.439
971.063
999.996
1000
1000
471.369
424.539
527.037
796.119
966.67
999.998
1000
252.985
323.993
244.383
553.407
901.233
999.995
1000
340.376
546.409
440.033
546.355
882.324
999.996
1000
394.398
262.661
295.383
549.882
888.951
999.994
1000
422.677
385.553
438.385
718.831
931.816
999.996
1000
999.771
999.842
999.905
999.966
999.998
1000
1000
694.032
695.791
748.978
936.605
999.958
999.998
1000
264.81
225.707
316.193
621.376
968.245
999.981
999.999
224.368
227.071
230.979
387.213
824.069
999.921
999.997
227.089
362.079
432.054
421.094
762.105
999.899
999.996
385.766
218.061
215.476
368.375
810.003
999.918
999.996
321.364
270.639
297.306
526.791
900.408
999.956
999.997
544.733
622.528
711.661
911.476
820.235
428.404
417.791