/*--------------------------------*- C++ -*----------------------------------*\
| =========                 |                                                 |
| \\      /  F ield         | OpenFOAM: The Open Source CFD Toolbox           |
|  \\    /   O peration     | Version:  plus.master.MPPICInterFoam            |
|   \\  /    A nd           | Web:      www.OpenFOAM.com                      |
|    \\/     M anipulation  |                                                 |
\*---------------------------------------------------------------------------*/
FoamFile
{
    version     2.0;
    format      ascii;
    class       volScalarField;
    location    "6.2";
    object      epsilon;
}
// * * * * * * * * * * * * * * * * * * * * * * * * * * * * * * * * * * * * * //

dimensions      [0 2 -3 0 0 0 0];

internalField   nonuniform List<scalar> 
11822
(
0.241173
0.301019
0.356274
0.378339
0.371835
0.325218
0.261998
0.296161
0.370184
0.425809
0.446118
0.440081
0.404765
0.325426
0.338535
0.413857
0.440382
0.426813
0.439922
0.447879
0.372195
0.348556
0.426203
0.445169
0.427628
0.439226
0.454309
0.381424
0.322182
0.403382
0.462521
0.457724
0.468974
0.441909
0.354982
0.272941
0.342929
0.404685
0.429173
0.419444
0.372272
0.298567
0.220346
0.272404
0.320212
0.344754
0.33353
0.291842
0.237352
0.205761
0.247457
0.283151
0.300769
0.290467
0.258999
0.216553
0.243887
0.295935
0.328671
0.341299
0.335983
0.307832
0.25905
0.273321
0.32952
0.354153
0.358666
0.355746
0.335898
0.291283
0.281172
0.339565
0.363125
0.366836
0.360448
0.343461
0.30011
0.262899
0.31973
0.355251
0.368375
0.358686
0.32971
0.280919
0.229565
0.2803
0.323845
0.344415
0.331704
0.294815
0.243782
0.191438
0.228364
0.26045
0.276402
0.267236
0.238425
0.200246
0.181323
0.209077
0.230982
0.240902
0.23425
0.214002
0.185518
0.206734
0.242274
0.266834
0.275965
0.271406
0.24932
0.213637
0.225043
0.265574
0.281198
0.279133
0.288815
0.272307
0.233983
0.230561
0.273535
0.289956
0.292014
0.296974
0.279364
0.239973
0.220237
0.260964
0.288065
0.298433
0.291903
0.268138
0.228437
0.198712
0.23237
0.259484
0.27237
0.263542
0.238651
0.204249
0.171613
0.197176
0.217106
0.226006
0.219694
0.200834
0.174406
0.172741
0.192791
0.206752
0.212163
0.207312
0.19328
0.172404
0.1919
0.216122
0.232947
0.239606
0.234129
0.217257
0.192391
0.204903
0.232269
0.251878
0.255793
0.252653
0.234048
0.206016
0.209064
0.238486
0.259751
0.253919
0.260053
0.239877
0.21015
0.20245
0.230934
0.253841
0.260326
0.254819
0.231978
0.202952
0.186492
0.211052
0.229073
0.235893
0.229578
0.211514
0.186122
0.16422
0.184632
0.198891
0.204209
0.198913
0.1843
0.16312
0.179399
0.199264
0.211969
0.216142
0.210878
0.196962
0.176115
0.198621
0.221987
0.236565
0.240719
0.236761
0.219482
0.195132
0.2113
0.238028
0.254335
0.25963
0.259062
0.235332
0.207634
0.214969
0.243477
0.264722
0.273128
0.264728
0.240023
0.210938
0.208001
0.235849
0.259239
0.26233
0.256062
0.231922
0.203706
0.191234
0.215647
0.232281
0.237405
0.230261
0.212294
0.18715
0.167582
0.188381
0.202165
0.206552
0.200535
0.185546
0.164113
0.196223
0.221146
0.237017
0.242064
0.234375
0.21648
0.190556
0.219654
0.248781
0.272223
0.271573
0.266589
0.243731
0.213013
0.235013
0.271375
0.289789
0.284723
0.291991
0.264376
0.227968
0.238881
0.276229
0.299472
0.293374
0.299227
0.269001
0.230978
0.228283
0.263171
0.282177
0.292666
0.279452
0.255497
0.220329
0.206154
0.236269
0.256682
0.262149
0.252096
0.229877
0.199433
0.177175
0.201761
0.218424
0.223455
0.215492
0.197195
0.172304
0.203627
0.16391
0.133026
0.109891
0.0935838
0.0844889
0.0883754
0.165229
0.24648
0.190378
0.148777
0.118643
0.0975989
0.0850227
0.08553
0.153849
0.281306
0.212609
0.162136
0.126153
0.101227
0.0859254
0.0840169
0.146813
0.290207
0.218372
0.165363
0.127631
0.101501
0.0852803
0.0823825
0.142076
0.268121
0.203608
0.155855
0.121494
0.0974574
0.0825104
0.0802524
0.13905
0.227727
0.176958
0.138863
0.110851
0.0909479
0.0787256
0.0783598
0.138908
0.185423
0.149689
0.121629
0.100237
0.0848015
0.0757393
0.0780112
0.143125
0.175627
0.146559
0.12274
0.104031
0.0903677
0.0827627
0.0872406
0.161906
0.205239
0.165541
0.13443
0.110627
0.0932535
0.0827157
0.084107
0.150232
0.229053
0.181153
0.144097
0.116114
0.0957638
0.0829774
0.0821655
0.142419
0.235755
0.185245
0.146313
0.116967
0.095624
0.0820337
0.0802833
0.137283
0.220671
0.174804
0.139114
0.111969
0.0920839
0.0794362
0.0781711
0.134414
0.192849
0.155511
0.126092
0.10334
0.0865204
0.0760359
0.0763903
0.13454
0.161998
0.134794
0.112337
0.0944548
0.0811465
0.0733071
0.0760073
0.138535
0.156298
0.134772
0.115991
0.100405
0.0886093
0.0821061
0.0871413
0.160367
0.176642
0.148439
0.124759
0.105418
0.0906355
0.0815782
0.0837129
0.148432
0.192033
0.159092
0.131604
0.109308
0.0922272
0.0812843
0.0813849
0.140027
0.196368
0.161771
0.132932
0.109572
0.0916717
0.0800278
0.0792376
0.134537
0.187005
0.154555
0.127409
0.105357
0.0884345
0.0774857
0.07706
0.131652
0.168242
0.140514
0.117189
0.0981194
0.0834915
0.0743001
0.075289
0.131823
0.145622
0.124358
0.105795
0.0903671
0.0785914
0.0716988
0.074838
0.135568
0.148891
0.130748
0.114088
0.0997386
0.0886631
0.0826398
0.0881197
0.161914
0.164735
0.141947
0.121493
0.103976
0.0902131
0.0817667
0.0843569
0.149416
0.175875
0.150106
0.126868
0.106965
0.091221
0.0810591
0.0816779
0.140458
0.178834
0.151844
0.127517
0.106739
0.0902829
0.0794908
0.0792492
0.134591
0.17204
0.145902
0.122522
0.102648
0.086994
0.0768193
0.0769018
0.131527
0.157482
0.13406
0.113348
0.0958401
0.0821695
0.073598
0.0750175
0.131584
0.138504
0.119737
0.102796
0.0884164
0.077344
0.0709524
0.0744654
0.135212
0.152082
0.133524
0.116357
0.101525
0.0900786
0.0838903
0.0896454
0.165818
0.167612
0.144559
0.123634
0.105628
0.0914634
0.0828029
0.0855945
0.152952
0.178012
0.152182
0.128572
0.108247
0.0921567
0.0818094
0.0826225
0.143585
0.180265
0.153302
0.128698
0.107576
0.0908636
0.0799584
0.0799389
0.137335
0.173144
0.146903
0.123262
0.103137
0.0873033
0.0770735
0.0774074
0.133961
0.158412
0.134727
0.113754
0.0960509
0.0822657
0.0737004
0.0754018
0.133727
0.139085
0.120014
0.10286
0.0883601
0.0772578
0.0709532
0.074803
0.137114
0.162091
0.140759
0.121466
0.105262
0.0930452
0.0868077
0.0951634
0.2051
0.179803
0.153019
0.129428
0.109704
0.0945998
0.0857327
0.090718
0.189413
0.191498
0.161222
0.134607
0.112343
0.095263
0.0847031
0.0875962
0.178719
0.193258
0.161799
0.134284
0.111343
0.093775
0.0827719
0.0849054
0.172096
0.183906
0.153961
0.127917
0.106392
0.089945
0.079805
0.0825065
0.169179
0.166453
0.140082
0.117369
0.0987736
0.0846766
0.076441
0.0808648
0.170417
0.144662
0.123844
0.105647
0.0906761
0.0795607
0.0738891
0.0810333
0.176812
0.174189
0.142873
0.118065
0.098864
0.0847878
0.0765149
0.0792568
0.144862
0.209637
0.165636
0.132682
0.10813
0.0903748
0.0793927
0.0797414
0.140888
0.242973
0.187202
0.146494
0.116985
0.095997
0.082831
0.0815764
0.140924
0.26183
0.199084
0.15406
0.12195
0.0993896
0.085279
0.0835582
0.143645
0.254464
0.19462
0.151553
0.120779
0.0992063
0.0859073
0.085124
0.148226
0.225126
0.176514
0.14073
0.114629
0.0961863
0.0851846
0.0865919
0.155115
0.189326
0.154649
0.127635
0.10722
0.0926982
0.0847071
0.0892212
0.165974
0.156579
0.131974
0.111384
0.0946739
0.0820066
0.074464
0.0773064
0.140212
0.183441
0.1502
0.123812
0.103004
0.0872772
0.0773207
0.0779299
0.136568
0.206959
0.16651
0.135061
0.110733
0.0924936
0.0806881
0.0798391
0.136609
0.219551
0.175124
0.141075
0.115065
0.095713
0.083179
0.0819571
0.139421
0.214219
0.171821
0.139238
0.114345
0.0958699
0.0840971
0.0838014
0.144447
0.194078
0.158669
0.13099
0.109533
0.0935897
0.0838343
0.0856242
0.151988
0.16832
0.142187
0.120659
0.103516
0.0908162
0.0837469
0.0884866
0.163116
0.144562
0.124496
0.106686
0.0916051
0.0798911
0.0729038
0.0759133
0.136745
0.165406
0.139745
0.117787
0.0994253
0.0850237
0.0757789
0.0766279
0.133327
0.18208
0.152496
0.127386
0.106494
0.0900484
0.0791573
0.0786317
0.133447
0.190162
0.158816
0.132393
0.110488
0.0932489
0.0817675
0.0809265
0.136422
0.186324
0.156397
0.131145
0.11021
0.0937712
0.0830061
0.0830745
0.141858
0.172652
0.146764
0.124764
0.106434
0.0921199
0.0831816
0.0852697
0.149991
0.154121
0.134084
0.116374
0.10142
0.0899076
0.0834623
0.0884282
0.16144
0.140175
0.12163
0.104657
0.0900493
0.0786407
0.0718857
0.0750597
0.135529
0.158947
0.136154
0.115624
0.097939
0.0838807
0.0748467
0.0758213
0.132092
0.172962
0.14786
0.124961
0.105058
0.0890448
0.0783687
0.0779505
0.132293
0.179285
0.153552
0.129907
0.109226
0.0924858
0.0812191
0.080477
0.135524
0.176318
0.151747
0.129166
0.109388
0.0933932
0.0827976
0.0829483
0.141403
0.165571
0.143667
0.123658
0.106178
0.0921722
0.0833459
0.0855248
0.150184
0.150115
0.132451
0.115985
0.101576
0.0902743
0.0839397
0.089067
0.162308
0.142276
0.12272
0.104993
0.0898934
0.0782161
0.0713861
0.0747285
0.136203
0.16248
0.138375
0.116731
0.0982437
0.0836803
0.0744061
0.0754509
0.132886
0.177687
0.151202
0.126915
0.105919
0.0891666
0.0780857
0.0776537
0.133332
0.184811
0.157779
0.132614
0.110649
0.092994
0.0811889
0.0803589
0.13687
0.182295
0.156467
0.132365
0.11125
0.0942702
0.0830688
0.0830946
0.143113
0.171545
0.148368
0.12695
0.108238
0.0933057
0.083903
0.085984
0.152311
0.155486
0.136646
0.118992
0.103569
0.0915125
0.0847334
0.0898823
0.164881
0.148538
0.126728
0.10762
0.0918855
0.0801426
0.0739654
0.0806643
0.175821
0.172071
0.144395
0.120384
0.100677
0.085672
0.0767181
0.0805513
0.169534
0.190934
0.159556
0.131936
0.109003
0.0913898
0.0803337
0.0823197
0.168567
0.200824
0.168027
0.138848
0.114381
0.0955174
0.0834927
0.0848414
0.17169
0.198636
0.167205
0.139052
0.115315
0.0969912
0.0854398
0.087554
0.178273
0.186052
0.158122
0.133187
0.112195
0.0960275
0.0862996
0.0905735
0.188705
0.166985
0.144618
0.124243
0.107063
0.0940266
0.0871036
0.0948224
0.203802
0.190122
0.155237
0.128085
0.107614
0.0931039
0.0851922
0.0899241
0.167702
0.231377
0.181434
0.144347
0.11735
0.0984196
0.0873056
0.0891533
0.160993
0.270766
0.206806
0.16012
0.126864
0.103843
0.0899554
0.0896595
0.158305
0.290732
0.219834
0.168171
0.131646
0.106528
0.0912754
0.0900326
0.157789
0.280845
0.21318
0.163911
0.128939
0.104824
0.09028
0.0896289
0.158387
0.246215
0.190776
0.149859
0.120302
0.0997335
0.087622
0.0889125
0.160874
0.203261
0.163797
0.133158
0.110238
0.0941134
0.0851931
0.0893402
0.167199
0.16874
0.142529
0.120987
0.10389
0.0912768
0.0843406
0.0893487
0.165169
0.198142
0.162023
0.133721
0.111901
0.095843
0.0862164
0.0886173
0.158569
0.224498
0.17986
0.145419
0.119311
0.100231
0.0883965
0.0889215
0.15538
0.237608
0.188566
0.150999
0.122739
0.102191
0.0893403
0.0890884
0.154452
0.229722
0.183219
0.147319
0.120209
0.100501
0.0883095
0.0886531
0.155136
0.205794
0.166814
0.136325
0.113016
0.0960294
0.0858737
0.0880008
0.157936
0.175539
0.146701
0.123098
0.104576
0.0910708
0.0836202
0.0883486
0.164068
0.154263
0.134279
0.116669
0.101845
0.090479
0.0842077
0.0894775
0.163778
0.174986
0.148962
0.12695
0.108723
0.0946057
0.0859949
0.0888451
0.157415
0.191735
0.161211
0.135614
0.114585
0.0982642
0.0878771
0.0890625
0.154001
0.199291
0.166574
0.13927
0.116959
0.0996773
0.0885622
0.0891186
0.152859
0.193801
0.16236
0.136065
0.114585
0.0980169
0.087525
0.0886834
0.153658
0.177821
0.150385
0.127336
0.108457
0.0939975
0.0852531
0.0880838
0.156701
0.156405
0.135107
0.116531
0.10112
0.0894667
0.0831071
0.0883888
0.162697
0.150162
0.132663
0.116376
0.102152
0.0910296
0.0848924
0.0903521
0.164967
0.166938
0.145482
0.12592
0.108843
0.095206
0.0868117
0.0898663
0.158717
0.178978
0.155203
0.133349
0.114169
0.0986827
0.0886804
0.0901376
0.155254
0.183598
0.158845
0.13606
0.116056
0.099874
0.0892936
0.0902001
0.15408
0.179068
0.154945
0.13288
0.113622
0.0981582
0.0882323
0.0897804
0.155003
0.166695
0.144731
0.124891
0.107751
0.0942004
0.0859675
0.0892032
0.158268
0.149219
0.131292
0.114819
0.100626
0.0896788
0.0837848
0.0895028
0.164401
0.15565
0.137041
0.119601
0.104373
0.092492
0.0859028
0.0913908
0.167862
0.173139
0.150775
0.129986
0.111719
0.0971227
0.0880959
0.091041
0.161883
0.184892
0.160719
0.137795
0.117401
0.100876
0.0901601
0.0914482
0.158629
0.188795
0.164021
0.140402
0.119287
0.102117
0.0908474
0.0915972
0.157563
0.183725
0.159556
0.136766
0.116577
0.100277
0.0897701
0.091239
0.158619
0.170904
0.148644
0.128145
0.110265
0.096076
0.0874261
0.0907101
0.162002
0.152722
0.13434
0.117317
0.102599
0.0912392
0.0851334
0.0910799
0.168266
0.167485
0.145323
0.12513
0.108078
0.0951254
0.0882863
0.0962098
0.206462
0.189006
0.161903
0.137407
0.116538
0.100353
0.0906486
0.0953974
0.19776
0.203557
0.174042
0.146761
0.123129
0.104604
0.092928
0.0956672
0.193127
0.208074
0.177908
0.149811
0.125347
0.106048
0.0937456
0.095845
0.191635
0.201308
0.172179
0.145396
0.122232
0.104078
0.0926926
0.0956542
0.193235
0.18518
0.158845
0.135203
0.115073
0.0995052
0.0902936
0.0954349
0.198063
0.163182
0.141925
0.122694
0.106473
0.0942259
0.0879613
0.0963652
0.207028
0.184217
0.148778
0.120898
0.099588
0.0841592
0.0750327
0.0770885
0.141019
0.219506
0.170514
0.134094
0.107209
0.0879387
0.0759293
0.0751792
0.132188
0.247353
0.188143
0.144983
0.113715
0.091496
0.0773683
0.0747419
0.127645
0.255353
0.193319
0.148329
0.115848
0.0927867
0.07801
0.0747754
0.126335
0.239305
0.183393
0.142435
0.112539
0.0911156
0.0774132
0.075001
0.127988
0.208103
0.16376
0.130499
0.105622
0.0875362
0.0761776
0.0757777
0.133016
0.174094
0.142651
0.117684
0.0983132
0.0840757
0.0756394
0.0781207
0.142594
0.161253
0.134182
0.111769
0.0938667
0.0804982
0.0725541
0.0750094
0.136273
0.187299
0.151025
0.122474
0.100257
0.083689
0.0731926
0.0730301
0.127525
0.207379
0.164529
0.131301
0.105759
0.0867628
0.0743959
0.0724747
0.122814
0.213749
0.168927
0.13433
0.107798
0.0880219
0.0750128
0.0724753
0.121444
0.203278
0.162232
0.130233
0.105442
0.0868408
0.0746481
0.0727957
0.123243
0.181527
0.147883
0.121121
0.0999901
0.0839995
0.0737641
0.0737216
0.128491
0.15635
0.131598
0.110844
0.0939783
0.0811746
0.0734987
0.0761158
0.137939
0.145187
0.123914
0.105291
0.0897716
0.0778929
0.070871
0.0737486
0.133188
0.164759
0.137393
0.114287
0.0952981
0.0806413
0.0712754
0.0716473
0.124443
0.179333
0.148027
0.121671
0.100077
0.0833366
0.0722638
0.070955
0.119584
0.184388
0.15189
0.124512
0.102033
0.0845352
0.0728195
0.0708854
0.118113
0.178006
0.147527
0.121691
0.10035
0.0836835
0.0725894
0.0712285
0.119898
0.163098
0.136932
0.114563
0.0959254
0.0813573
0.0719391
0.0722294
0.125171
0.144192
0.123965
0.106001
0.090787
0.0789616
0.0718655
0.0746739
0.1345
0.138177
0.119307
0.102249
0.0877447
0.0765508
0.0700184
0.0732576
0.132689
0.155111
0.131477
0.110576
0.0928972
0.0790591
0.0702367
0.0709731
0.123667
0.167478
0.141023
0.117409
0.0973629
0.081542
0.0710596
0.0701291
0.118592
0.172194
0.144832
0.12025
0.0992903
0.0826817
0.071534
0.0699598
0.116962
0.167837
0.141599
0.118039
0.0979124
0.0819587
0.0713284
0.0702611
0.118641
0.155987
0.132632
0.111757
0.0939296
0.079852
0.0707693
0.0712745
0.12388
0.139621
0.120935
0.103835
0.0891193
0.077628
0.0707885
0.0737796
0.133299
0.138688
0.119486
0.102201
0.0875777
0.0763606
0.0699248
0.073508
0.134452
0.155978
0.131867
0.110592
0.0926884
0.0787568
0.0699822
0.0710343
0.125362
0.168767
0.141684
0.117516
0.0971139
0.0811299
0.0706623
0.0700407
0.120209
0.174018
0.145802
0.120488
0.0990491
0.0822062
0.0710407
0.0697623
0.118455
0.170121
0.142821
0.118388
0.0977109
0.081475
0.0708004
0.070009
0.12
0.158319
0.133836
0.112113
0.0937457
0.0793863
0.0702562
0.0710122
0.125055
0.141471
0.121841
0.104038
0.0888771
0.0771664
0.0703109
0.0735556
0.134321
0.144097
0.123203
0.104881
0.0898393
0.0786832
0.0729739
0.0799866
0.174702
0.163281
0.1366
0.113708
0.095107
0.081094
0.0729105
0.0770273
0.16312
0.177907
0.147348
0.121034
0.0996162
0.0834253
0.0734799
0.0757596
0.156724
0.184222
0.151979
0.124187
0.10155
0.0844383
0.0737737
0.0753536
0.154532
0.179875
0.148714
0.121897
0.100119
0.0836444
0.0734863
0.0755996
0.15634
0.166398
0.138787
0.115168
0.0959741
0.0814895
0.0729465
0.0767798
0.162553
0.147433
0.125637
0.106565
0.0908727
0.0791887
0.0730735
0.0797894
0.174448
0.00307079
0.00195732
0.00238941
0.00315898
0.0040727
0.00483372
0.00526739
0.00535666
0.00308758
0.00197264
0.00240182
0.00316353
0.00406526
0.0048135
0.0052361
0.00531637
0.00309727
0.0019833
0.00240845
0.00316013
0.00404802
0.004783
0.00519599
0.00526946
0.00310929
0.00198847
0.0024076
0.00314932
0.00402726
0.0047559
0.00516574
0.00523864
0.00312298
0.00199563
0.00241277
0.00315123
0.0040265
0.00475429
0.00516558
0.00524177
0.00313346
0.00200281
0.0024219
0.0031632
0.00404216
0.00477494
0.00519258
0.00527633
0.00313733
0.00200401
0.00242502
0.0031697
0.00405457
0.00479543
0.00522233
0.00531581
0.00480032
0.00327689
0.00421947
0.0057619
0.00730889
0.0082838
0.00855268
0.00827692
0.00481502
0.00328659
0.00421657
0.0057353
0.00726142
0.00822239
0.00848423
0.00820409
0.00481711
0.0032864
0.00420082
0.00569127
0.00719554
0.00814458
0.00840336
0.00812321
0.00482702
0.00328385
0.00418225
0.00564715
0.00713325
0.00807541
0.00833649
0.00806298
0.00484483
0.00328981
0.00418045
0.00563327
0.00710913
0.00804885
0.00831427
0.00804943
0.00486059
0.00329955
0.00419012
0.00564275
0.00711729
0.00805983
0.0083325
0.00807899
0.00486612
0.00330175
0.00419372
0.00564964
0.00712899
0.0080799
0.00836347
0.00812317
0.00832982
0.00624901
0.00842886
0.0115959
0.0138201
0.0145728
0.0141756
0.0130235
0.00831038
0.00622159
0.0083612
0.0114698
0.0136743
0.0144281
0.0140401
0.0128976
0.00826509
0.0061716
0.00826454
0.0113076
0.0134958
0.0142562
0.0138835
0.0127582
0.00823632
0.00612698
0.00817774
0.0111644
0.0133346
0.0141004
0.0137461
0.0126447
0.00823682
0.00611233
0.00814145
0.0110986
0.0132502
0.0140168
0.013676
0.0125949
0.00824629
0.00611687
0.00814332
0.0110956
0.0132328
0.0139986
0.013669
0.0126056
0.00823955
0.00611364
0.00814416
0.0111033
0.0132369
0.014008
0.0136921
0.0126469
0.0156835
0.0133161
0.0186988
0.0236027
0.0255922
0.0252526
0.0232754
0.0203579
0.015507
0.0131237
0.0183589
0.023216
0.0252246
0.024939
0.0230202
0.020147
0.0152693
0.0128711
0.0179237
0.0227465
0.0247944
0.0245787
0.0227276
0.0199078
0.0150768
0.0126688
0.0175951
0.022383
0.0244441
0.0242706
0.0224736
0.0197091
0.0149817
0.0125872
0.017481
0.0222233
0.0242642
0.0240969
0.0223275
0.0196016
0.0149461
0.0125944
0.017527
0.0222283
0.0242326
0.0240474
0.0222867
0.0195866
0.0148898
0.0126007
0.0175903
0.0222766
0.0242578
0.024058
0.0223029
0.0196246
0.0290288
0.0314247
0.0408797
0.0448281
0.0447458
0.0417437
0.0367565
0.0307501
0.02842
0.0307493
0.040098
0.0440005
0.0439883
0.0411384
0.0363138
0.0304257
0.0276656
0.0297287
0.0389168
0.0428585
0.0430328
0.0404197
0.0357967
0.0300318
0.0271106
0.0290788
0.0381546
0.0421051
0.0423671
0.0398775
0.0353784
0.0297164
0.0269015
0.029
0.0380108
0.0418926
0.0421082
0.0396101
0.035144
0.0295415
0.026944
0.0292972
0.038283
0.042074
0.0421714
0.0395795
0.0350824
0.029513
0.0269813
0.0295668
0.0385721
0.0423265
0.0423393
0.0396595
0.0351192
0.0295627
0.0775687
0.0769382
0.0791442
0.0778132
0.0727014
0.0646057
0.0545983
0.0437134
0.0764351
0.0765706
0.0785876
0.0769293
0.0716681
0.0636977
0.0539516
0.0433064
0.0738762
0.0747499
0.076679
0.0749556
0.0699404
0.0624235
0.0531395
0.0427706
0.0723392
0.0735546
0.0754084
0.0736846
0.0688272
0.0615554
0.0525227
0.0423292
0.0724506
0.0736927
0.0753866
0.0735465
0.0685839
0.0612524
0.0522252
0.0421029
0.073375
0.0742923
0.0759178
0.0740383
0.0689109
0.0613647
0.0521784
0.0420691
0.0740581
0.074663
0.0763022
0.0744998
0.069328
0.0616237
0.0522835
0.0421286
0.00292189
0.00183136
0.0022442
0.00297892
0.00389173
0.00469344
0.00519829
0.00537298
0.00285628
0.00179046
0.00220005
0.00292842
0.00384128
0.00464919
0.00516318
0.00534726
0.00281359
0.0017649
0.0021726
0.00289813
0.00381207
0.00462496
0.00514616
0.00533754
0.00280301
0.00175979
0.00216838
0.00289557
0.00381172
0.00462772
0.00515315
0.0053483
0.00281829
0.00176637
0.00217494
0.00290676
0.0038288
0.00464978
0.00517729
0.005373
0.00284799
0.00177938
0.00218792
0.00292516
0.00385249
0.0046768
0.00520412
0.00539726
0.00288373
0.00179948
0.00220956
0.00295243
0.00388273
0.00470558
0.00522733
0.00541289
0.00453305
0.00304706
0.00392691
0.00537054
0.00690061
0.00794306
0.00833016
0.00819572
0.00443472
0.00298309
0.00385969
0.00529847
0.0068381
0.00789429
0.00829345
0.00816873
0.00435388
0.00293474
0.00381098
0.0052503
0.00680217
0.00787246
0.00828222
0.00816466
0.00431292
0.00291557
0.00379712
0.00524561
0.00681014
0.00789047
0.00830446
0.00818802
0.00431955
0.00292122
0.00381036
0.00527727
0.00685654
0.00794287
0.00835478
0.00823311
0.00435982
0.00294439
0.00384212
0.00533025
0.00692194
0.00800891
0.00841373
0.00828143
0.00441369
0.00297888
0.00388539
0.00539248
0.00699167
0.00807389
0.00846674
0.0083192
0.00768772
0.00571614
0.00773803
0.0107054
0.0128917
0.0137634
0.0135772
0.0126775
0.00755227
0.00562833
0.00765482
0.0106334
0.012844
0.0137316
0.0135545
0.0126607
0.00742373
0.00555648
0.00759587
0.0105974
0.0128379
0.0137428
0.0135722
0.0126793
0.00735335
0.00553242
0.00759692
0.0106354
0.012901
0.0138144
0.0136395
0.0127367
0.00737274
0.00556299
0.00766176
0.010751
0.0130346
0.0139439
0.0137525
0.0128283
0.00746233
0.00563272
0.00776814
0.0109125
0.0132073
0.0141017
0.0138839
0.0129296
0.00757352
0.00571407
0.00787931
0.0110686
0.0133726
0.0142503
0.0140034
0.0130164
0.0139696
0.0119696
0.0169519
0.0216425
0.0236661
0.0235692
0.0219753
0.0195032
0.0138391
0.0118687
0.0168375
0.0215834
0.0236425
0.0235631
0.0219738
0.0195025
0.0137067
0.011794
0.01677
0.0215904
0.0236956
0.0236329
0.0220405
0.0195581
0.0136822
0.0118294
0.0168716
0.0217536
0.0238823
0.023811
0.0221919
0.0196768
0.0138326
0.0120004
0.0171678
0.0220863
0.0242034
0.0240926
0.022421
0.0198519
0.0141242
0.0122683
0.0176023
0.022547
0.0246231
0.0244422
0.0226932
0.0200516
0.0144313
0.0125195
0.0179763
0.0229547
0.0250061
0.0247662
0.0229445
0.0202308
0.025861
0.0289614
0.0378281
0.0413905
0.0413288
0.0387248
0.034382
0.0291135
0.0257272
0.0287194
0.0376091
0.0412264
0.041236
0.0386856
0.034366
0.0291017
0.0256149
0.0284442
0.0373955
0.0411353
0.0412596
0.0387726
0.0344644
0.0291824
0.025777
0.0285636
0.037624
0.0414414
0.0415937
0.0390852
0.0347229
0.0293767
0.0262938
0.0292244
0.0384049
0.0422039
0.0422568
0.0396189
0.035129
0.0296715
0.0270881
0.0302589
0.0396145
0.0433598
0.0432213
0.0403535
0.0356567
0.0300343
0.0277944
0.0309347
0.0404173
0.0442213
0.04402
0.0410079
0.0361448
0.03037
0.0741111
0.074843
0.075879
0.0734479
0.0678483
0.0600725
0.0509526
0.0411653
0.0729803
0.0744401
0.0754993
0.0730315
0.0675123
0.0598686
0.0508441
0.0410734
0.0714695
0.0734986
0.0747266
0.0724551
0.0672208
0.0598117
0.0509034
0.0411338
0.0715682
0.0734897
0.074865
0.0727428
0.0676127
0.0602223
0.0512573
0.0413902
0.0734305
0.0750264
0.076431
0.0742167
0.0688419
0.0611477
0.0519074
0.0418261
0.0762996
0.0771499
0.0786481
0.0764333
0.0707319
0.0625417
0.0528429
0.042423
0.0774496
0.0774232
0.0792353
0.0774459
0.0719214
0.0636023
0.0536443
0.0429682
0.0029258
0.00182503
0.00223772
0.0029873
0.00391765
0.00473447
0.00524626
0.0054197
0.0029672
0.00185196
0.00226751
0.00302216
0.00395015
0.00475783
0.00525622
0.00541363
0.00300145
0.0018736
0.00229031
0.00304795
0.00397454
0.00477299
0.00525629
0.0053959
0.00302453
0.00189226
0.00231171
0.00307259
0.00399601
0.00478554
0.00525505
0.00537913
0.0030354
0.00190683
0.00233037
0.00309602
0.0040209
0.00480429
0.00526383
0.00537641
0.00304323
0.00192201
0.00235
0.00312033
0.00404506
0.00482355
0.00527472
0.00537883
0.00305532
0.0019397
0.00237135
0.00314353
0.00406527
0.00483627
0.00527891
0.00537549
0.00447485
0.00301989
0.00393401
0.00545553
0.00705639
0.00812959
0.00850802
0.0083424
0.00453558
0.00306299
0.00398333
0.00551352
0.00711142
0.0081723
0.00853375
0.00834685
0.00459606
0.00310402
0.00402981
0.00556831
0.00716387
0.00821074
0.00855207
0.00834066
0.00465014
0.00314563
0.00407808
0.0056228
0.00721236
0.00824313
0.00856414
0.00833041
0.00469905
0.00318643
0.00412765
0.00568268
0.00726756
0.00828319
0.0085857
0.00833369
0.0047402
0.00322384
0.00417149
0.00573232
0.00730888
0.00831022
0.00859749
0.00833358
0.00477587
0.00325588
0.00420484
0.00576235
0.00732697
0.00831468
0.00859084
0.00831923
0.00767982
0.00579027
0.00797029
0.0111789
0.0134857
0.0143514
0.0140833
0.0130701
0.00777626
0.00586032
0.00804459
0.0112539
0.0135596
0.0144147
0.0141282
0.0130906
0.00788332
0.0059354
0.00812482
0.0113368
0.0136426
0.0144849
0.0141749
0.0131066
0.00799986
0.00602007
0.00821615
0.011429
0.0137267
0.0145482
0.0142109
0.0131112
0.00812922
0.00611444
0.00832342
0.011546
0.0138279
0.0146236
0.014257
0.0131273
0.00823808
0.00619536
0.0084108
0.0116354
0.0138949
0.0146649
0.014275
0.0131264
0.00831063
0.00624391
0.0084513
0.0116603
0.0139027
0.0146586
0.014258
0.0131011
0.0146571
0.01267
0.0181449
0.023119
0.025167
0.0249163
0.0230708
0.0203236
0.0148098
0.0127451
0.0181694
0.0231236
0.025184
0.0249502
0.0231076
0.0203478
0.0149764
0.0128325
0.018207
0.0231561
0.0252357
0.0250162
0.0231687
0.0203853
0.0151849
0.0129679
0.0183278
0.0232716
0.025348
0.0251149
0.0232385
0.0204149
0.0154428
0.0131657
0.0185755
0.0235075
0.025549
0.0252692
0.0233423
0.0204652
0.015653
0.0133422
0.0188223
0.0237444
0.0257363
0.025394
0.023411
0.0204886
0.0157496
0.0134056
0.0188826
0.0238069
0.0257863
0.0254221
0.0234172
0.0204763
0.0281133
0.031082
0.0405343
0.044353
0.0441743
0.0411766
0.0363042
0.030496
0.0281237
0.0308254
0.0401924
0.0440247
0.0439314
0.0410432
0.0362501
0.030477
0.0281356
0.0305611
0.0398469
0.0437237
0.0437472
0.0409781
0.0362549
0.0305032
0.0283255
0.0305926
0.0398542
0.0437639
0.0438337
0.0410913
0.0363588
0.0305682
0.028756
0.0311034
0.0404251
0.0443044
0.0442876
0.0414367
0.0366005
0.0307114
0.0291992
0.0317505
0.0411906
0.0450414
0.0448841
0.0418495
0.0368512
0.0308402
0.0293335
0.0318497
0.0413273
0.045241
0.0450956
0.0420195
0.0369625
0.0309011
0.077412
0.0772351
0.0791191
0.0774211
0.0719763
0.0637203
0.0537957
0.0431017
0.0763287
0.0764633
0.078458
0.0767536
0.0713682
0.0632883
0.05355
0.0429696
0.0751009
0.0756332
0.077737
0.0760443
0.0707919
0.0629418
0.0533895
0.0429091
0.0748755
0.0754539
0.0776223
0.0759663
0.0707943
0.0630276
0.0535034
0.0430083
0.0764581
0.0767392
0.0788209
0.077069
0.0717177
0.0637225
0.0539823
0.0433293
0.0785321
0.0782047
0.080211
0.0784831
0.0729849
0.0646707
0.0545903
0.0436876
0.0786004
0.0778482
0.0799446
0.0784942
0.0732445
0.0650015
0.0548622
0.0438743
0.00313497
0.00199471
0.00241169
0.00315104
0.00403387
0.00477677
0.00520866
0.00530867
0.00313176
0.0019792
0.00238788
0.00311598
0.00399077
0.00473126
0.00516571
0.00527056
0.00312692
0.00196275
0.00236383
0.00308204
0.00395009
0.00468958
0.00512847
0.00523978
0.00311861
0.00194864
0.00234706
0.00306264
0.00392997
0.00467247
0.00511836
0.00523782
0.00310066
0.00193386
0.00233491
0.00305544
0.00393144
0.0046846
0.00514196
0.00527246
0.00305961
0.00191022
0.00231715
0.00304609
0.00393665
0.00470709
0.00518045
0.00532542
0.00299504
0.00187474
0.00228714
0.00302336
0.00392937
0.00471875
0.00521015
0.00537165
0.00485508
0.00328347
0.00416627
0.00560989
0.00708513
0.00804038
0.00833359
0.00810507
0.00483567
0.00325065
0.00411568
0.00553447
0.00699902
0.00795652
0.0082606
0.00804417
0.00481092
0.00321508
0.0040636
0.00545989
0.00691646
0.00787859
0.00819592
0.00799312
0.00478474
0.0031876
0.00402974
0.00541784
0.00687463
0.00784444
0.00817461
0.00798488
0.00475604
0.00316857
0.00401681
0.00541502
0.00688426
0.00786767
0.00821056
0.00803342
0.0047065
0.00314467
0.00400681
0.00542544
0.00691577
0.00791849
0.00827563
0.00811265
0.00462856
0.00310518
0.00398142
0.00542025
0.00693473
0.00795982
0.00833307
0.00818574
0.00818993
0.00606477
0.00807737
0.011017
0.0131458
0.0139246
0.0136255
0.0126021
0.00810989
0.0059775
0.00794911
0.0108395
0.0129644
0.0137587
0.0134851
0.012491
0.00802124
0.00588568
0.00781866
0.0106644
0.0127918
0.0136052
0.0133591
0.0123947
0.00795016
0.00582393
0.00774147
0.0105708
0.0127028
0.0135309
0.0133058
0.0123644
0.00790873
0.00580369
0.00773595
0.0105853
0.0127246
0.0135632
0.013351
0.0124239
0.0078671
0.00579979
0.0077669
0.0106599
0.0128088
0.0136556
0.0134517
0.012535
0.0077955
0.00577846
0.00778299
0.0107246
0.012891
0.0137494
0.0135545
0.0126473
0.0147318
0.012481
0.0174535
0.0221291
0.0241053
0.0239123
0.0221797
0.0195346
0.0144798
0.0122221
0.0170589
0.021712
0.0237139
0.023574
0.0219053
0.0193247
0.0142292
0.0119567
0.0166465
0.0212963
0.0233386
0.023259
0.0216564
0.0191403
0.0140613
0.0118073
0.016442
0.0210875
0.0231477
0.023099
0.0215351
0.0190612
0.0140132
0.0118111
0.0164987
0.0211349
0.023186
0.0231364
0.0215812
0.0191243
0.0140285
0.0119064
0.0167174
0.0213482
0.0233739
0.0233002
0.0217306
0.0192714
0.0140306
0.0119898
0.0169258
0.0215781
0.0235912
0.0234957
0.0219078
0.0194403
0.0267185
0.0294776
0.0384841
0.0422029
0.0421757
0.0394725
0.0349406
0.0294189
0.0260674
0.0287435
0.0376328
0.0413288
0.0413841
0.0388206
0.0344351
0.0290394
0.025397
0.0277789
0.0365432
0.0403137
0.0405441
0.0381726
0.033955
0.0286988
0.0250498
0.0273529
0.0360436
0.0398347
0.0401314
0.0378415
0.0337048
0.0285286
0.0250997
0.0275704
0.0362521
0.0399751
0.0402092
0.0378828
0.0337385
0.0285814
0.0254255
0.0282198
0.0369501
0.0405642
0.0406462
0.0381925
0.0339678
0.0287718
0.0257611
0.0288079
0.0376221
0.0411853
0.0411508
0.0385787
0.0342647
0.0290187
0.0744605
0.0751213
0.0765809
0.0746098
0.0692937
0.0614841
0.0521016
0.041963
0.0729822
0.0743802
0.0756615
0.0734133
0.0680414
0.0604126
0.0512941
0.0413725
0.0698359
0.0719993
0.0733775
0.0712978
0.0663168
0.059151
0.0504188
0.0407795
0.0684543
0.0707844
0.072205
0.0702408
0.0654557
0.0585016
0.0499462
0.0404518
0.0691629
0.0714533
0.0727433
0.0706091
0.0656467
0.0585679
0.0499552
0.0404637
0.0718023
0.0732235
0.074309
0.0719355
0.0666043
0.0591761
0.050335
0.0407276
0.0737536
0.0744877
0.075508
0.0730959
0.0675645
0.0598676
0.0508049
0.0410616
0.00623575
0.00352021
0.0063431
0.00520522
0.00501231
0.00477825
0.00453863
0.00434105
0.0042799
0.00468996
0.00861587
0.00515926
0.00496257
0.00472514
0.00448228
0.00428106
0.00421447
0.0046115
0.00846239
0.00510809