/*--------------------------------*- C++ -*----------------------------------*\
| =========                 |                                                 |
| \\      /  F ield         | OpenFOAM: The Open Source CFD Toolbox           |
|  \\    /   O peration     | Version:  plus.master.MPPICInterFoam            |
|   \\  /    A nd           | Web:      www.OpenFOAM.com                      |
|    \\/     M anipulation  |                                                 |
\*---------------------------------------------------------------------------*/
FoamFile
{
    version     2.0;
    format      ascii;
    class       volScalarField;
    location    "6.2";
    object      p;
}
// * * * * * * * * * * * * * * * * * * * * * * * * * * * * * * * * * * * * * //

dimensions      [1 -1 -2 0 0 0 0];

internalField   nonuniform List<scalar> 
11822
(
766.868
771.144
775.024
776.331
775.692
772.59
768.506
769.772
777.359
779.593
779.84
780.028
778.559
772.758
771.906
779.201
779.735
779.649
780.365
780.505
776.392
772.23
779.372
779.228
778.86
779.884
780.988
777.656
770.819
778.08
779.462
778.645
779.738
779.979
775.137
767.847
773.519
777.796
778.257
777.954
775.705
770.306
765.916
767.603
769.715
770.483
770.229
768.679
766.81
686.382
691.526
697.915
700.686
698.973
693.566
688.037
690.094
701.198
711.28
712.79
712.443
704.956
693.255
693.292
707.201
714.777
714.989
715.748
711.369
698.006
693.477
707.425
714.403
714.067
715.347
711.554
698.763
690.731
703.169
711.638
713.212
713.073
708.065
695.049
686.677
693.248
700.872
704.12
702.895
696.582
688.932
684.075
686.441
689.283
690.869
690.269
687.795
685.109
593.222
594.716
597
598.781
597.176
595.2
593.706
594.429
598.172
605.799
611.204
606.169
599.444
595.089
595.683
603.124
617.008
624.665
616.214
605.542
596.701
595.903
604.419
619.57
631.973
618.234
607.304
597.132
594.522
599.577
609.184
614.779
610.368
601.806
595.428
593.141
595.27
598.744
601.296
599.296
596.081
593.681
592.046
593.213
594.398
595.116
594.61
593.597
592.483
496.235
496.516
496.721
497.037
496.912
496.831
496.617
496.499
496.707
497.178
498.397
497.516
497.057
496.911
496.709
497.18
499.44
504.535
499.762
497.631
497.114
496.806
497.649
501.274
516.949
500.925
498.057
497.182
496.508
496.94
497.862
499.713
497.952
497.108
496.869
496.18
496.747
497.203
497.655
497.231
496.973
496.59
495.705
496.315
496.782
497.058
496.876
496.581
496.101
398.592
399.366
399.954
400.132
400.071
399.696
399
399.224
400.196
400.536
400.206
400.466
400.402
399.716
399.651
400.418
400.137
399.651
400.098
400.666
400.135
399.663
400.132
399.722
400.032
400.045
400.676
400.19
399.344
399.964
400.472
399.589
401.448
400.266
399.842
398.774
399.677
400.037
400.206
400.091
399.989
399.253
397.892
398.797
399.374
399.607
399.51
399.123
398.364
301.888
302.328
302.399
302.704
302.752
302.88
302.473
302.269
302.019
300.141
301.465
300.943
302.632
302.876
302.367
300.747
297.645
297.488
299.1
301.416
302.99
302.368
300.237
296.227
295.189
297.037
301.515
303.08
302.409
301.637
305.187
297.278
303.8
302.647
303.143
302.194
302.694
302.34
302.098
302.935
303.448
302.909
301.472
302.235
302.629
302.824
302.993
302.849
302.223
765.439
764.882
764.651
764.596
764.713
765.003
765.425
765.827
767.019
765.24
764.651
764.51
764.628
764.945
765.407
765.859
768.545
765.639
764.678
764.441
764.539
764.864
765.372
765.885
769.078
765.757
764.721
764.463
764.551
764.867
765.371
765.886
767.901
765.497
764.715
764.523
764.62
764.92
765.388
765.858
766.09
764.98
764.628
764.56
764.678
764.957
765.367
765.77
764.887
764.678
764.673
764.713
764.835
765.082
765.439
765.784
683.643
681.914
680.577
679.562
678.908
678.616
678.629
678.789
685.914
682.833
680.933
679.66
678.899
678.558
678.564
678.744
687.821
683.632
681.366
679.896
679
678.579
678.554
678.743
688.175
683.727
681.418
679.899
678.968
678.514
678.473
678.658
686.437
682.951
680.933
679.583
678.739
678.329
678.295
678.466
683.958
681.709
680.182
679.115
678.443
678.123
678.109
678.257
682.068
680.803
679.757
678.903
678.322
678.041
678.03
678.155
591.672
590.545
589.518
588.635
587.993
587.61
587.472
587.483
592.555
590.921
589.614
588.629
587.939
587.535
587.39
587.41
593.236
591.41
589.942
588.816
588.021
587.54
587.356
587.368
593.357
591.497
590
588.826
587.983
587.466
587.261
587.265
592.592
590.973
589.606
588.527
587.744
587.261
587.067
587.068
591.646
590.248
589.059
588.116
587.436
587.02
586.854
586.853
590.778
589.783
588.808
587.942
587.291
586.893
586.733
586.723
495.831
495.167
494.506
493.908
493.412
493.047
492.825
492.727
496.217
495.386
494.612
493.943
493.402
493.003
492.763
492.664
496.458
495.629
494.801
494.064
493.453
492.998
492.722
492.611
496.5
495.672
494.817
494.062
493.413
492.93
492.638
492.519
496.201
495.409
494.587
493.846
493.226
492.768
492.488
492.37
495.811
495.018
494.226
493.525
492.968
492.559
492.308
492.2
495.368
494.704
493.992
493.34
492.812
492.43
492.197
492.095
398.231
397.529
396.904
396.344
395.871
395.547
395.425
395.365
398.973
398.192
397.432
396.722
396.103
395.664
395.473
395.382
399.349
398.54
397.714
396.932
396.238
395.728
395.488
395.371
399.388
398.561
397.726
396.923
396.208
395.68
395.428
395.302
399.078
398.254
397.432
396.663
395.99
395.5
395.275
395.162
398.487
397.69
396.924
396.226
395.627
395.215
395.047
394.967
397.705
396.985
396.32
395.739
395.26
394.946
394.847
394.806
302.273
301.783
301.303
300.848
300.384
299.904
299.492
299.288
302.81
302.375
301.789
301.143
300.479
299.829
299.298
299.043
303.019
302.605
301.973
301.261
300.524
299.795
299.198
298.914
303.064
302.598
301.945
301.209
300.473
299.748
299.162
298.893
302.992
302.443
301.781
301.087
300.39
299.725
299.209
298.991
302.613
302.041
301.431
300.821
300.233
299.69
299.299
299.162
302.064
301.505
301.019
300.586
300.169
299.792
299.545
299.494
764.565
764.487
764.437
764.439
764.55
764.788
765.13
765.461
765.084
764.43
764.22
764.208
764.353
764.635
765.023
765.399
766.062
764.623
764.176
764.104
764.242
764.545
764.982
765.415
766.608
764.73
764.151
764.041
764.17
764.482
764.948
765.414
766.482
764.702
764.126
764.015
764.157
764.48
764.947
765.407
765.586
764.466
764.111
764.048
764.196
764.509
764.941
765.356
764.431
764.181
764.126
764.171
764.332
764.624
765.018
765.387
681.473
680.273
679.194
678.333
677.759
677.478
677.458
677.575
682.76
680.792
679.356
678.351
677.73
677.44
677.43
677.567
684.462
681.713
679.914
678.691
677.93
677.563
677.531
677.684
685.667
682.344
680.315
678.954
678.108
677.697
677.656
677.819
685.639
682.346
680.325
678.985
678.165
677.774
677.744
677.913
684.311
681.735
680.014
678.845
678.146
677.827
677.822
677.979
682.536
681.011
679.791
678.861
678.254
677.974
677.977
678.121
590.351
589.293
588.263
587.378
586.714
586.297
586.12
586.1
591.064
589.572
588.334
587.382
586.704
586.287
586.111
586.1
591.937
590.222
588.803
587.713
586.931
586.443
586.233
586.221
592.66
590.728
589.169
587.988
587.141
586.614
586.39
586.38
592.585
590.694
589.18
588.036
587.226
586.723
586.516
586.511
591.986
590.299
588.948
587.935
587.228
586.801
586.629
586.628
591.226
590.074
588.993
588.065
587.383
586.973
586.811
586.805
494.89
494.193
493.45
492.768
492.207
491.795
491.537
491.419
495.229
494.347
493.518
492.804
492.222
491.787
491.515
491.396
495.612
494.699
493.822
493.045
492.397
491.908
491.602
491.475
495.902
494.955
494.045
493.235
492.557
492.042
491.724
491.591
495.862
494.948
494.067
493.287
492.635
492.142
491.835
491.703
495.674
494.799
493.978
493.26
492.672
492.231
491.954
491.83
495.414
494.741
494.024
493.349
492.795
492.387
492.133
492.013
397.14
396.369
395.62
394.962
394.409
394.066
393.952
393.903
397.851
396.957
396.108
395.337
394.663
394.203
394.011
393.924
398.414
397.489
396.58
395.72
394.949
394.396
394.136
394.013
398.719
397.776
396.837
395.941
395.14
394.543
394.251
394.11
398.704
397.778
396.854
395.979
395.201
394.625
394.344
394.207
398.348
397.48
396.633
395.842
395.147
394.65
394.422
394.314
397.724
396.953
396.238
395.596
395.059
394.686
394.536
394.461
301.228
300.643
300.038
299.494
299.019
298.622
298.38
298.342
301.764
301.11
300.393
299.669
298.974
298.362
297.952
297.822
302.137
301.484
300.694
299.853
299.023
298.263
297.713
297.507
302.249
301.625
300.824
299.948
299.065
298.239
297.619
297.365
302.289
301.666
300.869
300.013
299.151
298.337
297.711
297.437
302.038
301.444
300.73
299.977
299.219
298.503
297.948
297.697
301.548
300.97
300.387
299.85
299.316
298.789
298.359
298.158
764.402
764.192
764.159
764.209
764.373
764.668
765.067
765.444
766.114
764.772
764.32
764.208
764.333
764.646
765.097
765.535
767.954
765.376
764.465
764.222
764.324
764.658
765.176
765.698
768.757
765.649
764.545
764.249
764.347
764.692
765.243
765.808
768.458
765.612
764.605
764.341
764.435
764.772
765.307
765.85
767.022
765.269
764.644
764.466
764.566
764.884
765.366
765.842
765.459
764.983
764.761
764.672
764.756
765.026
765.441
765.85
682.585
681.123
679.932
679.017
678.415
678.134
678.14
678.29
685.112
682.382
680.594
679.372
678.632
678.299
678.304
678.481
687.948
683.802
681.459
679.923
678.991
678.561
678.545
678.748
689.382
684.476
681.897
680.244
679.238
678.762
678.741
678.964
688.511
684.125
681.713
680.158
679.216
678.778
678.773
678.992
686.198
683.112
681.162
679.838
679.04
678.688
678.702
678.901
683.699
682.107
680.777
679.717
679.022
678.704
678.708
678.874
591.222
590.132
589.102
588.213
587.551
587.15
586.996
586.997
592.242
590.671
589.379
588.395
587.714
587.313
587.168
587.188
593.357
591.51
590.013
588.867
588.065
587.595
587.423
587.448
594.09
592.002
590.399
589.183
588.329
587.813
587.626
587.649
593.509
591.681
590.214
589.081
588.284
587.811
587.646
587.678
592.638
591.093
589.8
588.805
588.113
587.709
587.571
587.602
591.764
590.741
589.699
588.78
588.102
587.7
587.559
587.576
495.456
494.84
494.163
493.52
492.98
492.582
492.335
492.22
495.805
495.063
494.327
493.677
493.143
492.745
492.5
492.392
496.171
495.45
494.694
494.006
493.429
492.995
492.726
492.613
496.467
495.739
494.949
494.233
493.633
493.175
492.897
492.781
496.364
495.651
494.888
494.202
493.627
493.195
492.934
492.83
496.123
495.386
494.665
494.03
493.508
493.123
492.893
492.8
495.907
495.317
494.648
494.014
493.49
493.114
492.893
492.799
397.898
397.175
396.477
395.847
395.312
394.939
394.792
394.719
398.644
397.889
397.132
396.416
395.785
395.32
395.105
394.997
399.219
398.464
397.682
396.921
396.227
395.689
395.42
395.278
399.465
398.734
397.966
397.182
396.471
395.902
395.618
395.468
399.388
398.654
397.884
397.134
396.454
395.93
395.674
395.543
398.964
398.239
397.513
396.828
396.228
395.793
395.603
395.509
398.377
397.701
397.043
396.451
395.961
395.621
395.5
395.44
301.858
301.314
300.729
300.169
299.62
299.081
298.633
298.413
302.474
302.027
301.402
300.702
299.966
299.236
298.63
298.324
302.921
302.571
301.937
301.187
300.372
299.533
298.807
298.419
303.105
302.837
302.209
301.449
300.603
299.729
298.965
298.545
303.169
302.841
302.223
301.479
300.684
299.866
299.148
298.751
302.936
302.515
301.927
301.27
300.584
299.893
299.297
298.973
302.534
302.038
301.467
300.963
300.466
299.958
299.516
299.283
765.026
764.8
764.709
764.712
764.83
765.084
765.444
765.784
765.692
764.865
764.594
764.56
764.697
764.977
765.368
765.743
766.303
765
764.581
764.509
764.638
764.922
765.336
765.742
766.352
764.989
764.558
764.473
764.598
764.881
765.3
765.715
765.962
764.831
764.474
764.419
764.552
764.835
765.242
765.638
765.221
764.613
764.414
764.404
764.547
764.82
765.195
765.55
764.601
764.5
764.46
764.476
764.596
764.838
765.175
765.493
682.146
680.823
679.704
678.821
678.232
677.947
677.927
678.041
683.488
681.344
679.833
678.795
678.149
677.833
677.802
677.923
684.593
681.936
680.139
678.92
678.165
677.787
677.732
677.857
684.809
682.035
680.175
678.915
678.128
677.728
677.664
677.789
684.02
681.536
679.831
678.674
677.95
677.591
677.547
677.674
682.776
680.787
679.361
678.381
677.769
677.474
677.451
677.572
681.48
680.235
679.162
678.303
677.737
677.464
677.445
677.554
590.793
589.725
588.701
587.819
587.166
586.764
586.595
586.575
591.528
589.998
588.746
587.783
587.091
586.658
586.47
586.448
592.149
590.404
588.978
587.89
587.106
586.611
586.389
586.359
592.43
590.552
589.046
587.915
587.089
586.564
586.326
586.289
591.927
590.159
588.751
587.687
586.912
586.421
586.204
586.175
591.172
589.597
588.351
587.398
586.717
586.291
586.105
586.083
590.363
589.259
588.21
587.319
586.663
586.26
586.09
586.065
495.301
494.588
493.862
493.214
492.692
492.313
492.078
491.967
495.676
494.783
493.951
493.238
492.666
492.244
491.979
491.857
495.92
494.963
494.072
493.299
492.661
492.184
491.884
491.749
496.032
495.025
494.109
493.299
492.626
492.12
491.802
491.658
495.776
494.787
493.898
493.117
492.469
491.982
491.677
491.541
495.39
494.451
493.601
492.876
492.287
491.85
491.576
491.453
494.876
494.127
493.383
492.714
492.172
491.778
491.531
491.416
397.566
396.825
396.164
395.593
395.128
394.825
394.732
394.686
398.262
397.419
396.625
395.909
395.299
394.888
394.72
394.636
398.623
397.744
396.882
396.079
395.375
394.879
394.657
394.545
398.696
397.79
396.908
396.066
395.325
394.794
394.551
394.428
398.455
397.55
396.666
395.838
395.117
394.609
394.385
394.275
397.913
397.033
396.197
395.435
394.798
394.362
394.189
394.109
397.05
396.249
395.539
394.926
394.431
394.11
394.007
393.962
301.902
301.382
300.912
300.503
300.121
299.777
299.557
299.518
302.453
301.873
301.251
300.638
300.058
299.554
299.234
299.166
302.676
302.09
301.392
300.675
299.984
299.373
298.976
298.883
302.595
302.028
301.308
300.552
299.818
299.166
298.741
298.642
302.372
301.798
301.09
300.353
299.641
299.016
298.615
298.528
301.881
301.309
300.665
300.012
299.398
298.873
298.552
298.499
301.109
300.519
300.025
299.584
299.175
298.817
298.603
298.582
732.911
732.789
732.753
732.8
732.895
733.021
733.166
733.321
733.008
732.891
732.861
732.912
733.013
733.146
733.297
733.457
733.083
732.97
732.941
732.996
733.101
733.24
733.398
733.565
733.135
733.024
732.999
733.059
733.17
733.313
733.475
733.645
733.155
733.046
733.024
733.087
733.2
733.345
733.51
733.682
733.145
733.036
733.016
733.081
733.196
733.342
733.508
733.683
733.106
732.997
732.977
733.042
733.158
733.306
733.473
733.651
635.36
635.234
635.236
635.37
635.569
635.802
636.058
636.314
635.465
635.343
635.349
635.49
635.697
635.939
636.202
636.466
635.543
635.424
635.434
635.579
635.794
636.044
636.316
636.587
635.592
635.475
635.491
635.642
635.865
636.122
636.4
636.677
635.606
635.491
635.511
635.668
635.895
636.156
636.439
636.72
635.585
635.472
635.494
635.654
635.884
636.148
636.434
636.719
635.53
635.418
635.442
635.604
635.836
636.104
636.394
636.684
537.462
537.378
537.494
537.78
538.164
538.59
539.016
539.409
537.569
537.489
537.612
537.907
538.303
538.74
539.176
539.58
537.649
537.573
537.699
538
538.408
538.856
539.304
539.715
537.695
537.622
537.754
538.062
538.485
538.941
539.398
539.818
537.698
537.628
537.767
538.084
538.513
538.977
539.441
539.869
537.659
537.593
537.739
538.065
538.495
538.967
539.438
539.872
537.584
537.523
537.674
538.004
538.437
538.916
539.395
539.838
438.739
438.815
439.204
439.913
440.703
441.463
442.119
442.653
438.842
438.924
439.324
440.046
440.851
441.629
442.301
442.846
438.932
439.018
439.421
440.145
440.962
441.759
442.449
443.007
438.979
439.069
439.478
440.209
441.039
441.851
442.557
443.128
438.963
439.059
439.478
440.222
441.066
441.89
442.608
443.191
438.896
439
439.43
440.189
441.045
441.878
442.607
443.199
438.8
438.91
439.347
440.116
440.982
441.824
442.562
443.168
340.249
340.928
341.583
342.624
343.769
344.787
345.574
346.125
340.333
341.008
341.692
342.764
343.935
344.98
345.788
346.351
340.444
341.134
341.82
342.889
344.07
345.139
345.972
346.569
340.509
341.202
341.894
342.968
344.16
345.249
346.105
346.728
340.491
341.18
341.883
342.976
344.189
345.296
346.17
346.808
340.416
341.096
341.808
342.924
344.16
345.283
346.171
346.809
340.337
341.011
341.72
342.846
344.097
345.228
346.127
346.774
235.867
237.529
242.214
245.444
247.411
248.7
249.547
250.084
235.877
237.588
242.327
245.604
247.608
248.941
249.822
250.316
236.056
237.841
242.574
245.82
247.813
249.174
250.055
250.397
236.145
237.997
242.711
245.935
247.926
249.305
250.197
250.504
236.014
237.927
242.666
245.919
247.944
249.355
250.288
250.636
235.805
237.741
242.483
245.778
247.861
249.316
250.325
250.849
235.71
237.674
242.368
245.66
247.771
249.236
250.272
250.901
732.144
732.015
731.977
732.023
732.121
732.254
732.41
732.58
732.024
731.896
731.856
731.897
731.989
732.118
732.268
732.432
731.926
731.798
731.753
731.787
731.872
731.995
732.142
732.303
731.858
731.726
731.675
731.703
731.785
731.906
732.049
732.206
731.828
731.692
731.638
731.663
731.741
731.856
731.994
732.146
731.84
731.701
731.645
731.67
731.743
731.853
731.985
732.132
731.892
731.748
731.691
731.713
731.784
731.89
732.018
732.162
634.412
634.294
634.307
634.455
634.667
634.921
635.201
635.483
634.28
634.159
634.17
634.312
634.518
634.765
635.038
635.313
634.171
634.051
634.058
634.193
634.392
634.632
634.898
635.167
634.098
633.978
633.979
634.108
634.299
634.532
634.792
635.055
634.073
633.95
633.948
634.07
634.254
634.479
634.73
634.986
634.098
633.97
633.964
634.082
634.26
634.476
634.72
634.97
634.168
634.034
634.023
634.137
634.309
634.52
634.758
635.002
536.283
536.232
536.386
536.716
537.135
537.601
538.07
538.505
536.137
536.086
536.238
536.563
536.972
537.429
537.886
538.312
536.026
535.976
536.122
536.437
536.835
537.28
537.726
538.143
535.96
535.91
536.047
536.352
536.737
537.17
537.606
538.014
535.947
535.892
536.021
536.314
536.688
537.11
537.535
537.933
535.991
535.928
536.049
536.333
536.698
537.109
537.523
537.912
536.09
536.018
536.129
536.403
536.759
537.161
537.565
537.944
437.285
437.439
437.901
438.675
439.54
440.373
441.099
441.696
437.127
437.283
437.743
438.508
439.363
440.183
440.893
441.476
437.022
437.173
437.622
438.372
439.213
440.017
440.71
441.279
436.968
437.113
437.549
438.283
439.108
439.895
440.572
441.128
436.965
437.103
437.528
438.248
439.056
439.825
440.486
441.029
437.039
437.17
437.579
438.284
439.073
439.824
440.468
440.996
437.183
437.298
437.688
438.378
439.15
439.883
440.51
441.024
338.585
339.399
340.1
341.244
342.497
343.617
344.502
345.144
338.353
339.166
339.916
341.065
342.306
343.409
344.273
344.9
338.21
339.008
339.793
340.931
342.152
343.23
344.067
344.674
338.148
338.948
339.72
340.838
342.038
343.093
343.906
344.494
338.138
338.934
339.686
340.788
341.967
342.998
343.789
344.36
338.261
339.091
339.743
340.813
341.969
342.975
343.746
344.301
338.485
339.277
339.888
340.92
342.049
343.03
343.776
344.311
233.116
235.2
240.219
243.694
245.89
247.384
248.391
248.986
232.879
235.01
240.069
243.549
245.717
247.164
248.109
248.674
232.937
235.093
240.081
243.498
245.604
246.987
247.852
248.366
232.997
235.104
240.038
243.417
245.486
246.823
247.636
248.129
232.931
234.967
239.919
243.309
245.365
246.673
247.459
247.939
232.91
234.767
239.787
243.22
245.287
246.581
247.354
247.828
233.362
235.123
240.014
243.365
245.38
246.631
247.364
247.792
731.98
731.833
731.773
731.793
731.864
731.969
732.095
732.237
732.095
731.946
731.883
731.904
731.975
732.08
732.207
732.348
732.232
732.081
732.021
732.042
732.116
732.223
732.35
732.491
732.377
732.227
732.169
732.194
732.271
732.381
732.511
732.652
732.526
732.382
732.328
732.359
732.439
732.552
732.683
732.827
732.667
732.532
732.485
732.521
732.606
732.722
732.857
733.004
732.796
732.668
732.628
732.67
732.761
732.882
733.021
733.171
634.28
634.142
634.126
634.237
634.406
634.614
634.848
635.086
634.421
634.279
634.26
634.369
634.539
634.745
634.977
635.213
634.583
634.437
634.419
634.529
634.701
634.908
635.139
635.374
634.753
634.607
634.59
634.705
634.881
635.09
635.323
635.559
634.928
634.786
634.772
634.892
635.071
635.284
635.52
635.758
635.091
634.955
634.949
635.073
635.258
635.476
635.717
635.959
635.237
635.106
635.103
635.233
635.424
635.65
635.897
636.145
536.24
536.163
536.269
536.535
536.884
537.277
537.671
538.04
536.418
536.336
536.438
536.699
537.044
537.432
537.82
538.182
536.616
536.529
536.628
536.886
537.23
537.616
538.002
538.36
536.814
536.726
536.826
537.085
537.431
537.82
538.208
538.567
537.006
536.917
537.021
537.285
537.638
538.034
538.427
538.79
537.181
537.094
537.204
537.477
537.839
538.244
538.645
539.016
537.336
537.249
537.362
537.642
538.015
538.43
538.843
539.224
437.392
437.499
437.884
438.563
439.317
440.031
440.639
441.133
437.618
437.716
438.095
438.766
439.508
440.212
440.808
441.289
437.861
437.95
438.324
438.988
439.722
440.419
441.008
441.482
438.09
438.175
438.547
439.211
439.947
440.646
441.237
441.713
438.286
438.368
438.749
439.425
440.17
440.879
441.479
441.959
438.463
438.545
438.934
439.623
440.383
441.106
441.72
442.214
438.621
438.704
439.09
439.789
440.561
441.3
441.934
442.447
338.772
339.522
340.163
341.183
342.278
343.223
343.935
344.435
339.035
339.767
340.409
341.42
342.498
343.428
344.123
344.603
339.327
340.055
340.694
341.693
342.755
343.671
344.352
344.81
339.598
340.325
340.956
341.949
343.009
343.927
344.609
345.064
339.794
340.488
341.156
342.172
343.249
344.181
344.872
345.331
339.968
340.634
341.319
342.357
343.459
344.415
345.13
345.613
340.159
340.841
341.502
342.532
343.646
344.626
345.373
345.887
233.902
235.669
240.515
243.806
245.737
246.911
247.571
247.928
234.238
235.945
240.803
244.101
246.019
247.173
247.797
248.132
234.648
236.328
241.198
244.486
246.374
247.5
248.088
248.442
235.036
236.686
241.544
244.812
246.687
247.81
248.404
248.765
235.271
236.96
241.801
245.065
246.949
248.092
248.734
249.073
235.477
237.172
241.966
245.224
247.136
248.315
249.017
249.383
235.778
237.473
242.209
245.429
247.34
248.549
249.314
249.772
733.045
732.933
732.913
732.979
733.096
733.244
733.413
733.591
732.963
732.846
732.823
732.888
733.005
733.155
733.325
733.505
732.858
732.734
732.707
732.77
732.886
733.036
733.206
733.386
732.731
732.601
732.57
732.629
732.744
732.893
733.064
733.244
732.587
732.453
732.419
732.474
732.587
732.737
732.907
733.085
732.434
732.301
732.266
732.319
732.427
732.571
732.737
732.914
732.282
732.153
732.117
732.167
732.27
732.41
732.571
732.745
635.452
635.339
635.364
635.528
635.762
636.033
636.326
636.619
635.35
635.233
635.259
635.425
635.661
635.934
636.229
636.524
635.225
635.103
635.126
635.291
635.528
635.802
636.097
636.391
635.077
634.953
634.974
635.136
635.372
635.644
635.939
636.231
634.912
634.787
634.807
634.967
635.199
635.47
635.763
636.055
634.739
634.617
634.635
634.791
635.018
635.284
635.575
635.866
634.57
634.448
634.464
634.616
634.836
635.097
635.384
635.672
537.487
537.429
537.585
537.921
538.357
538.84
539.322
539.768
537.367
537.308
537.467
537.808
538.25
538.735
539.22
539.667
537.223
537.162
537.319
537.66
538.104
538.589
539.072
539.518
537.053
536.992
537.149
537.489
537.931
538.415
538.896
539.34
536.857
536.799
536.957
537.298
537.736
538.22
538.701
539.146
536.652
536.597
536.758
537.097
537.53
538.011
538.491
538.936
536.455
536.402
536.56
536.896
537.324
537.8
538.276
538.718
438.684
438.802
439.248
440.027
440.902
441.748
442.489
443.097
438.537
438.662
439.119
439.906
440.789
441.642
442.386
442.994
438.378
438.503
438.96
439.744
440.628
441.481
442.223
442.828
438.19
438.314
438.77
439.554
440.437
441.289
442.028
442.631
437.942
438.08
438.546
439.335
440.219
441.071
441.811
442.416
437.692
437.838
438.314
439.106
439.987
440.837
441.576
442.182
437.475
437.63
438.095
438.875
439.753
440.598
441.333
441.938
340.228
340.907
341.624
342.762
344.026
345.164
346.062
346.71
340.006
340.713
341.47
342.638
343.918
345.065
345.967
346.622
339.824
340.548
341.317
342.48
343.755
344.9
345.795
346.438
339.614
340.341
341.117
342.275
343.547
344.689
345.58
346.214
339.325
340.069
340.855
342.024
343.299
344.443
345.337
345.972
339.021
339.78
340.567
341.742
343.019
344.162
345.058
345.703
338.828
339.629
340.335
341.483
342.747
343.881
344.777
345.423
235.564
237.577
242.282
245.578
247.705
249.178
250.214
250.828
235.037
237.171
242.041
245.431
247.606
249.098
250.125
250.669
234.943
237.102
241.962
245.337
247.493
248.969
249.968
250.503
234.738
236.908
241.754
245.123
247.277
248.75
249.737
250.283
234.292
236.498
241.404
244.804
246.972
248.454
249.449
250.033
233.769
235.952
240.916
244.367
246.568
248.072
249.083
249.653
233.47
235.567
240.55
244.004
246.204
247.714
248.739
249.354
831.086
831.042
831.067
733.444
733.536
733.622
733.703
733.777
733.844
733.905
733.975
733.583
733.677
733.765
733.847
733.921
733.989
734.049
734.118
733.695
733.792
733.882
733.964
734.039
734.107
734.166
734.233
733.778
733.876
733.967
734.051
734.127
734.195
734.254
734.319
733.818
733.918
734.011
734.095
734.172
734.241
734.301
734.367
733.821
733.924
734.019
734.105
734.184
734.255
734.317
734.386
733.792
733.896
733.993
734.082
734.162
734.235
734.297
734.368
636.511
636.653
636.786
636.911
637.032
637.154
637.281
637.425
636.668
636.815
636.951
637.078
637.199
637.321
637.446
637.586
636.794
636.943
637.081
637.208
637.33
637.451
637.575
637.711
636.887
637.039
637.179
637.308
637.431
637.552
637.674
637.808
636.935
637.089
637.231
637.362
637.487
637.61
637.733
637.869
636.936
637.094
637.239
637.373
637.5
637.625
637.752
637.892
636.905
637.066
637.214
637.352
637.482
637.611
637.74
637.884
539.692
539.889
540.069
540.238
540.408
540.599
540.821
541.077
539.87
540.074
540.26
540.432
540.603
540.794
541.013
541.263
540.014
540.221
540.406
540.577
540.747
540.936
541.151
541.394
540.124
540.336
540.524
540.697
540.869
541.059
541.272
541.51
540.179
540.394
540.585
540.761
540.936
541.127
541.343
541.584
540.184
540.402
540.597
540.777
540.955
541.15
541.371
541.619
540.157
540.38
540.582
540.769
540.951
541.15
541.375
541.628
443.004
443.236
443.44
443.628
443.828
444.084
444.417
444.804
443.209
443.453
443.667
443.86
444.062
444.319
444.649
445.025
443.383
443.632
443.84
444.024
444.222
444.476
444.801
445.167
443.516
443.772
443.983
444.169
444.371
444.626
444.95
445.31
443.585
443.845
444.059
444.249
444.452
444.709
445.035
445.401
443.593
443.854
444.078
444.275
444.482
444.742
445.073
445.449
443.57
443.841
444.079
444.291
444.508
444.775
445.112
445.492
346.444
346.657
346.841
346.981
347.126
347.405
347.852
348.392
346.688
346.932
347.148
347.285
347.412
347.695
348.15
348.688
346.952
347.193
347.352
347.441
347.548
347.849
348.309
348.84
347.139
347.382
347.532
347.611
347.734
348.057
348.512
349.03
347.224
347.473
347.63
347.713
347.828
348.147
348.608
349.134
347.201
347.462
347.662
347.784
347.898
348.186
348.647
349.191
347.163
347.439
347.681
347.841
347.991
348.291
348.747
349.281
250.086
250.317
250.851
250.866
250.769
251.261
251.888
252.343
250.361
250.861
251.482
251.346
251.302
251.738
252.331
252.816
250.726
251.341
251.629
251.371
251.542
251.91
252.477
252.997
251.038
251.644
251.765
251.529
251.743
252.068
252.672
253.181
251.135
251.755
251.918
251.678
251.914
252.209
252.781
253.312
251.019
251.612
252.095
251.88
251.977
252.355
252.88
253.414
250.979
251.495
252.137
252.023
251.926
252.31
252.96
253.452
732.715
732.816
732.911
732.999
733.079
733.151
733.214
733.288
732.563
732.662
732.755
732.842
732.921
732.993
733.056
733.13
732.432
732.529
732.621
732.707
732.785
732.857
732.92
732.994
732.333
732.429
732.519
732.603
732.681
732.752
732.815
732.889
732.27
732.363
732.452
732.535
732.612
732.682
732.745
732.819
732.252
732.344
732.43
732.512
732.587
732.657
732.719
732.793
732.279
732.369
732.454
732.534
732.609
732.677
732.738
732.813
635.7
635.858
636.005
636.143
636.275
636.408
636.544
636.7
635.525
635.68
635.825
635.962
636.093
636.225
636.361
636.516
635.375
635.528
635.671
635.805
635.936
636.068
636.204
636.359
635.259
635.409
635.55
635.683
635.812
635.943
636.079
636.235
635.186
635.333
635.472
635.604
635.732
635.862
635.998
636.155
635.165
635.309
635.446
635.576
635.703
635.832
635.968
636.125
635.193
635.335
635.469
635.597
635.722
635.851
635.986
636.143
538.82
539.039
539.239
539.426
539.614
539.821
540.061
540.337
538.621
538.836
539.031
539.216
539.402
539.609
539.849
540.125
538.446
538.658
538.85
539.032
539.217
539.423
539.663
539.941
538.312
538.52
538.71
538.891
539.074
539.279
539.518
539.797
538.226
538.43
538.617
538.796
538.978
539.182
539.422
539.702
538.198
538.399
538.583
538.759
538.94
539.143
539.383
539.664
538.224
538.421
538.602
538.775
538.953
539.156
539.395
539.675
442.092
442.354
442.58
442.789
443.009
443.285
443.643
444.064
441.865
442.119
442.337
442.541
442.759
443.034
443.39
443.813
441.664
441.914
442.127
442.327
442.543
442.816
443.172
443.599
441.504
441.75
441.96
442.158
442.372
442.643
442.999
443.429
441.398
441.639
441.845
442.041
442.255
442.525
442.881
443.314
441.357
441.593
441.797
441.99
442.201
442.471
442.829
443.262
441.374
441.605
441.804
441.994
442.203
442.472
442.829
443.263
345.533
345.772
345.949
346.103
346.284
346.583
347.037
347.606
345.272
345.496
345.656
345.798
345.98
346.274
346.726
347.293
345.041
345.259
345.41
345.546
345.726
346.016
346.461
347.025
344.851
345.064
345.213
345.347
345.527
345.814
346.254
346.815
344.709
344.918
345.065
345.2
345.38
345.667
346.107
346.67
344.642
344.847
344.994
345.128
345.306
345.59
346.032
346.601
344.64
344.839
344.98
345.109
345.284
345.569
346.014
346.587
249.104
249.281
249.625
249.71
249.725
250.197
250.878
251.371
248.916
248.976
249.117
249.276
249.393
249.863
250.494
250.99
248.706
248.769
248.783
248.947
249.12
249.59
250.191
250.687
248.487
248.534
248.519
248.711
248.903
249.366
249.951
250.446
248.292
248.328
248.318
248.535
248.723
249.176
249.763
250.26
248.167
248.194
248.215
248.451
248.608
249.044
249.64
250.143
248.129
248.165
248.158
248.374
248.536
248.973
249.574
250.079
732.352
732.439
732.523
732.602
732.675
732.743
732.803
732.877
732.461
732.548
732.631
732.709
732.781
732.847
732.907
732.978
732.604
732.691
732.773
732.851
732.922
732.988
733.046
733.115
732.767
732.854
732.936
733.013
733.085
733.151
733.209
733.277
732.943
733.03
733.113
733.19