/*--------------------------------*- C++ -*----------------------------------*\
| =========                 |                                                 |
| \\      /  F ield         | OpenFOAM: The Open Source CFD Toolbox           |
|  \\    /   O peration     | Version:  plus.master.MPPICInterFoam            |
|   \\  /    A nd           | Web:      www.OpenFOAM.com                      |
|    \\/     M anipulation  |                                                 |
\*---------------------------------------------------------------------------*/
FoamFile
{
    version     2.0;
    format      ascii;
    class       volScalarField;
    location    "6.2";
    object      p_rgh;
}
// * * * * * * * * * * * * * * * * * * * * * * * * * * * * * * * * * * * * * //

dimensions      [1 -1 -2 0 0 0 0];

internalField   nonuniform List<scalar> 
11822
(
5584.77
4523.89
3347.11
3014.46
3258.16
4274.35
5506.45
4894.44
2735.9
2208.99
2205.79
2208.16
2442.6
4174.67
4188.79
2266.68
2205.39
2205.57
2206.32
2208.63
3078.29
4065.29
2212.25
2204.56
2204.51
2206.71
2211.59
2886.71
4547.34
2477.87
2208.19
2204.39
2214.05
2217.73
3446.47
5382.05
3874.38
2764.24
2539.96
2627.03
3313.06
4890.95
5721.2
5502.21
5010.3
4773.54
4888.45
5352.99
5709.83
5699.11
5437.98
4923.02
4638.88
4878.49
5358.08
5676.82
5573.78
4583.86
3079.99
2639.61
3107.26
4186.41
5344.56
5386.6
3659.51
2248.01
2168.81
2383.16
3109.67
4912.8
5337.25
3455.23
2167.93
2167.86
2284.7
2913.38
4787.56
5520.36
4220.03
2804
2386.17
2724.07
3554.62
5166.1
5681.46
5343.06
4716.47
4264.77
4535.03
5131.99
5594.93
5744.08
5717.66
5664.76
5625.98
5646.51
5706.09
5742.9
5749.2
5754.19
5733.51
5710.8
5732.45
5752.32
5753.72
5755.98
5711.96
5253.8
4808.67
5302.35
5661
5753.58
5754.75
5519.12
4072.2
2895.38
4506.84
5339.5
5742.43
5754.33
5392.09
3518.46
2113.74
4063.71
5180.04
5735.18
5756.27
5633.04
5008.8
4158.27
4962.21
5526.82
5752.58
5756.07
5753.3
5731
5658.67
5713.7
5751.82
5756.75
5755.06
5756.48
5757.73
5758.38
5757.9
5756.93
5755.44
5753.28
5757.09
5757.24
5757.46
5757.4
5757.4
5757.22
5757.09
5756.97
5755.71
5740.02
5755.94
5754.75
5757.49
5757.28
5757.16
5675.73
5045.72
5724.5
5756.45
5757.64
5757.38
5735.34
5391.94
3559.02
5627.13
5756.48
5757.69
5757.1
5714.63
5742.53
5637.95
5714.68
5756.97
5757.43
5756.79
5747.54
5757.67
5758.02
5757.66
5757.5
5757.19
5756.32
5756.93
5757.39
5757.66
5757.48
5757.19
5756.71
5750.89
5757.09
5753.66
5757.85
5757.8
5757.42
5756.73
5756.95
5674.97
5755.49
5756.84
5705.85
5726.01
5757.45
5757.38
5758.11
5757.22
5664.39
5726.43
5748.42
5757.86
5757.39
5701.25
5500.44
5603.44
5735.32
5755.86
5757.91
5757.07
5674.54
5217.15
5753.1
5160.36
5757.94
5757.57
5756.51
5739.51
5757.76
5757.92
5757.81
5745.65
5756.98
5755.62
5756.53
5757.11
5757.34
5757.24
5756.85
5756.09
5750.98
5753.35
5724.77
5670.1
5748.87
5757.55
5757.32
5757.12
5498.24
5419.08
5752.78
5315.37
5641.06
5757.73
5757.22
5381.43
5491.14
5605.07
4325.83
5677.27
5757.84
5757.22
5485.26
4478.32
4818
4676.75
5721.44
5757.93
5757.26
5528.54
3657.15
5156.9
3985.55
5709.71
5757.99
5757.04
5721.89
5757.19
5756.95
5757.79
5720.84
5757.75
5756.32
5757.09
5757.48
5757.67
5757.84
5757.7
5757.06
5734.67
5734.14
5733.91
5733.85
5733.97
5734.26
5734.68
5735.08
5727.25
5734.5
5733.91
5733.77
5733.88
5734.2
5734.66
5735.11
5347.43
5734.85
5733.93
5733.7
5733.79
5734.12
5734.63
5735.14
5124.29
5734.95
5733.98
5733.72
5733.81
5734.12
5734.63
5735.14
5495.04
5734.73
5733.97
5733.78
5733.88
5734.18
5734.64
5735.11
5735.27
5734.23
5733.88
5733.82
5733.93
5734.21
5734.62
5735.03
5734.14
5733.93
5733.93
5733.97
5734.09
5734.34
5734.69
5735.04
5750.01
5748.29
5746.95
5745.94
5745.28
5744.99
5745
5745.16
5752.17
5749.21
5747.31
5746.03
5745.27
5744.93
5744.94
5745.12
5701.13
5750
5747.74
5746.27
5745.37
5744.95
5744.93
5745.12
5675.63
5750.09
5747.79
5746.27
5745.34
5744.89
5744.85
5745.03
5727.79
5749.32
5747.31
5745.96
5745.11
5744.7
5744.67
5744.84
5749.48
5748.08
5746.56
5745.49
5744.82
5744.5
5744.48
5744.63
5748.44
5747.18
5746.13
5745.28
5744.7
5744.42
5744.4
5744.53
5755.06
5754.04
5753.01
5752.13
5751.49
5751.1
5750.97
5750.98
5755.26
5754.41
5753.11
5752.12
5751.43
5751.03
5750.88
5750.9
5756.26
5754.87
5753.44
5752.31
5751.51
5751.03
5750.85
5750.86
5756.65
5754.92
5753.49
5752.32
5751.48
5750.96
5750.75
5750.76
5755.91
5754.46
5753.1
5752.02
5751.24
5750.75
5750.56
5750.56
5754.69
5753.74
5752.55
5751.61
5750.93
5750.51
5750.35
5750.35
5754.25
5753.28
5752.3
5751.44
5750.78
5750.39
5750.23
5750.22
5756.43
5755.78
5755.12
5754.52
5754.02
5753.66
5753.44
5753.34
5756.75
5756
5755.22
5754.56
5754.01
5753.62
5753.38
5753.28
5757.07
5756.24
5755.41
5754.68
5754.07
5753.61
5753.33
5753.22
5757.11
5756.28
5755.43
5754.67
5754.03
5753.54
5753.25
5753.13
5756.81
5756.02
5755.2
5754.46
5753.84
5753.38
5753.1
5752.98
5756.42
5755.63
5754.84
5754.14
5753.58
5753.17
5752.92
5752.81
5755.98
5755.32
5754.6
5753.95
5753.42
5753.04
5752.81
5752.71
5755.96
5755.26
5754.64
5754.08
5753.6
5753.28
5753.16
5753.1
5756.7
5755.92
5755.16
5754.45
5753.83
5753.4
5753.2
5753.11
5757.08
5756.27
5755.45
5754.66
5753.97
5753.46
5753.22
5753.1
5757.12
5756.29
5755.46
5754.65
5753.94
5753.41
5753.16
5753.03
5756.81
5755.99
5755.16
5754.39
5753.72
5753.23
5753.01
5752.89
5756.22
5755.42
5754.66
5753.96
5753.36
5752.95
5752.78
5752.7
5755.44
5754.72
5754.05
5753.47
5752.99
5752.68
5752.58
5752.54
5757.12
5756.63
5756.15
5755.7
5755.23
5754.75
5754.34
5754.14
5757.66
5757.23
5756.64
5755.99
5755.33
5754.68
5754.15
5753.89
5757.87
5757.46
5756.82
5756.11
5755.37
5754.65
5754.05
5753.76
5757.91
5757.45
5756.8
5756.06
5755.32
5754.6
5754.01
5753.74
5757.84
5757.29
5756.63
5755.94
5755.24
5754.58
5754.06
5753.84
5757.46
5756.89
5756.28
5755.67
5755.08
5754.54
5754.15
5754.01
5756.91
5756.36
5755.87
5755.44
5755.02
5754.64
5754.4
5754.34
5733.82
5733.74
5733.69
5733.69
5733.81
5734.04
5734.39
5734.72
5734.31
5733.69
5733.48
5733.46
5733.61
5733.89
5734.28
5734.65
5735.19
5733.88
5733.43
5733.36
5733.5
5733.8
5734.24
5734.67
5723.32
5733.99
5733.41
5733.3
5733.43
5733.74
5734.2
5734.67
5733.57
5733.96
5733.38
5733.27
5733.41
5733.74
5734.2
5734.66
5734.75
5733.72
5733.37
5733.3
5733.45
5733.76
5734.2
5734.61
5733.67
5733.44
5733.38
5733.43
5733.59
5733.88
5734.27
5734.64
5747.85
5746.65
5745.57
5744.71
5744.13
5743.85
5743.83
5743.95
5749.13
5747.17
5745.73
5744.73
5744.1
5743.81
5743.8
5743.94
5750.8
5748.09
5746.29
5745.07
5744.3
5743.94
5743.91
5744.06
5751.97
5748.72
5746.69
5745.33
5744.48
5744.07
5744.03
5744.19
5751.95
5748.72
5746.7
5745.36
5744.54
5744.15
5744.12
5744.29
5750.66
5748.11
5746.39
5745.22
5744.52
5744.2
5744.2
5744.35
5748.9
5747.39
5746.17
5745.23
5744.63
5744.35
5744.35
5744.5
5753.84
5752.79
5751.76
5750.87
5750.21
5749.79
5749.61
5749.59
5754.5
5753.07
5751.83
5750.88
5750.2
5749.78
5749.6
5749.59
5755.26
5753.72
5752.3
5751.21
5750.42
5749.94
5749.73
5749.71
5755.95
5754.22
5752.66
5751.48
5750.63
5750.11
5749.88
5749.87
5755.76
5754.19
5752.67
5751.53
5750.72
5750.22
5750.01
5750
5755.3
5753.79
5752.44
5751.43
5750.72
5750.29
5750.12
5750.12
5754.52
5753.57
5752.49
5751.56
5750.88
5750.47
5750.3
5750.3
5755.5
5754.81
5754.06
5753.38
5752.82
5752.41
5752.15
5752.03
5755.84
5754.96
5754.13
5753.42
5752.83
5752.4
5752.13
5752.01
5756.2
5755.31
5754.43
5753.66
5753.01
5752.52
5752.21
5752.09
5756.47
5755.57
5754.66
5753.85
5753.17
5752.65
5752.34
5752.2
5756.41
5755.56
5754.68
5753.9
5753.25
5752.75
5752.45
5752.32
5756.26
5755.41
5754.59
5753.87
5753.28
5752.84
5752.57
5752.44
5755.99
5755.35
5754.64
5753.96
5753.41
5753
5752.75
5752.63
5754.87
5754.1
5753.35
5752.69
5752.14
5751.8
5751.68
5751.63
5755.58
5754.69
5753.84
5753.07
5752.39
5751.93
5751.74
5751.66
5756.15
5755.22
5754.31
5753.45
5752.68
5752.13
5751.87
5751.74
5756.45
5755.51
5754.57
5753.67
5752.87
5752.27
5751.98
5751.84
5756.44
5755.51
5754.59
5753.71
5752.93
5752.36
5752.08
5751.94
5756.08
5755.21
5754.36
5753.57
5752.88
5752.38
5752.15
5752.05
5755.46
5754.68
5753.97
5753.33
5752.79
5752.42
5752.27
5752.19
5756.08
5755.49
5754.89
5754.34
5753.87
5753.47
5753.23
5753.19
5756.61
5755.96
5755.24
5754.52
5753.82
5753.21
5752.8
5752.67
5756.99
5756.33
5755.54
5754.7
5753.87
5753.11
5752.56
5752.36
5757.1
5756.48
5755.67
5754.8
5753.92
5753.09
5752.47
5752.22
5757.14
5756.52
5755.72
5754.86
5754
5753.19
5752.56
5752.29
5756.89
5756.29
5755.58
5754.83
5754.07
5753.35
5752.8
5752.55
5756.4
5755.82
5755.24
5754.7
5754.17
5753.64
5753.21
5753.01
5733.64
5733.44
5733.3
5733.41
5733.63
5733.92
5734.32
5734.7
5735.22
5733.99
5733.47
5733.44
5733.59
5733.9
5734.35
5734.79
5528.7
5734.6
5733.71
5733.47
5733.53
5733.88
5734.43
5734.95
5334.16
5734.85
5733.8
5733.5
5732.9
5733.53
5734.49
5735.06
5481.97
5734.83
5733.85
5733.59
5732.98
5733.71
5734.56
5735.11
5735.96
5734.47
5733.83
5733.69
5733.78
5734.12
5734.62
5735.1
5734.68
5734.22
5734
5733.92
5734.01
5734.28
5734.7
5735.11
5748.69
5747.49
5746.22
5745.36
5744.79
5744.51
5744.51
5744.66
5751.1
5748.74
5746.82
5745.7
5745.01
5744.67
5744.68
5744.86
5727.07
5750.15
5747.81
5746.27
5745.31
5744.91
5744.92
5745.12
5685.16
5750.83
5748.26
5746.58
5744.88
5744.81
5745.12
5745.34
5716.57
5750.48
5748.08
5746.51
5744.86
5744.97
5745.15
5745.37
5752.49
5749.47
5747.47
5746.19
5745.38
5745.05
5745.08
5745.28
5750.06
5748.48
5747.15
5746.09
5745.4
5745.08
5745.08
5745.25
5754.24
5753.62
5752.57
5751.7
5751.04
5750.64
5750.49
5750.49
5754.83
5754.11
5752.72
5751.85
5751.21
5750.81
5750.66
5750.68
5756.22
5754.99
5753.49
5752.31
5751.49
5751.07
5750.92
5750.94
5756.39
5755.46
5753.89
5752.57
5751.08
5751.02
5751.12
5751.14
5756.02
5755.16
5753.7
5752.51
5751.38
5751.24
5751.14
5751.17
5755.41
5754.58
5753.28
5752.29
5751.59
5751.2
5751.06
5751.1
5755.09
5754.23
5753.19
5752.27
5751.6
5751.19
5751.05
5751.07
5755.99
5755.45
5754.77
5754.13
5753.59
5753.19
5752.95
5752.83
5756.36
5755.63
5754.79
5754.27
5753.76
5753.36
5753.11
5753
5756.78
5756.06
5755.29
5754.57
5753.98
5753.6
5753.34
5753.23
5757.07
5756.34
5755.56
5754.59
5753.48
5753.57
5753.51
5753.39
5756.97
5756.26
5755.49
5754.73
5754.11
5753.79
5753.55
5753.44
5756.65
5756
5755.28
5754.64
5754.12
5753.73
5753.51
5753.41
5756.44
5755.93
5755.26
5754.63
5754.1
5753.73
5753.51
5753.41
5755.63
5754.91
5754.21
5753.58
5753.04
5752.67
5752.52
5752.45
5756.38
5755.61
5754.85
5754.15
5753.52
5753.05
5752.84
5752.73
5756.95
5756.2
5755.4
5754.61
5753.9
5753.42
5753.15
5753.01
5757.2
5756.47
5755.66
5754.24
5753.43
5753.51
5753.35
5753.2
5757.12
5756.39
5755.6
5754.73
5754.06
5753.66
5753.41
5753.27
5756.7
5755.97
5755.24
5754.56
5753.96
5753.52
5753.33
5753.24
5756.11
5755.43
5754.77
5754.18
5753.69
5753.35
5753.23
5753.17
5756.71
5756.16
5755.58
5755.02
5754.47
5753.93
5753.48
5753.26
5757.32
5756.88
5756.25
5755.55
5754.82
5754.09
5753.48
5753.17
5757.77
5757.42
5756.78
5756.01
5755.18
5754.38
5753.66
5753.27
5757.96
5757.69
5757.01
5755.51
5754.66
5754.53
5753.82
5753.4
5758.02
5757.69
5757.05
5756.11
5755.39
5754.71
5754
5753.6
5757.79
5757.37
5756.78
5756.12
5755.43
5754.74
5754.15
5753.82
5757.38
5756.89
5756.32
5755.81
5755.32
5754.81
5754.37
5754.13
5734.28
5734.06
5733.96
5733.97
5734.09
5734.34
5734.7
5735.04
5734.91
5734.12
5733.85
5733.82
5733.95
5734.23
5734.62
5735
5735.46
5734.26
5733.84
5733.76
5733.89
5734.18
5734.59
5735
5735.5
5734.25
5733.81
5733.73
5733.85
5734.14
5734.56
5734.97
5735.14
5734.09
5733.73
5733.67
5733.81
5734.09
5734.5
5734.89
5734.46
5733.87
5733.67
5733.66
5733.8
5734.08
5734.45
5734.81
5733.86
5733.76
5733.72
5733.73
5733.85
5734.09
5734.43
5734.75
5748.52
5747.2
5746.08
5745.2
5744.61
5744.32
5744.3
5744.42
5749.86
5747.72
5746.21
5745.17
5744.52
5744.21
5744.18
5744.3
5750.95
5748.31
5746.51
5745.29
5744.54
5744.16
5744.11
5744.23
5751.16
5748.41
5746.55
5745.29
5744.5
5744.1
5744.04
5744.16
5750.38
5747.91
5746.21
5745.05
5744.32
5743.97
5743.92
5744.05
5749.15
5747.16
5745.74
5744.76
5744.14
5743.85
5743.83
5743.95
5747.85
5746.61
5745.54
5744.68
5744.11
5743.84
5743.82
5743.93
5754.28
5753.22
5752.19
5751.31
5750.66
5750.26
5750.09
5750.07
5755.01
5753.49
5752.24
5751.28
5750.58
5750.15
5749.96
5749.94
5755.57
5753.9
5752.47
5751.38
5750.6
5750.1
5749.88
5749.85
5755.85
5754.04
5752.54
5751.41
5750.58
5750.06
5749.82
5749.78
5755.35
5753.65
5752.24
5751.18
5750.41
5749.91
5749.7
5749.67
5754.65
5753.09
5751.84
5750.89
5750.21
5749.78
5749.6
5749.58
5753.85
5752.75
5751.7
5750.81
5750.16
5749.75
5749.58
5749.56
5755.91
5755.2
5754.47
5753.83
5753.3
5752.93
5752.69
5752.58
5756.29
5755.4
5754.56
5753.85
5753.28
5752.86
5752.59
5752.47
5756.52
5755.58
5754.68
5753.91
5753.27
5752.8
5752.5
5752.36
5756.63
5755.64
5754.72
5753.91
5753.24
5752.73
5752.41
5752.27
5756.38
5755.4
5754.51
5753.73
5753.08
5752.59
5752.29
5752.15
5756
5755.06
5754.21
5753.49
5752.9
5752.46
5752.19
5752.07
5755.49
5754.74
5754
5753.33
5752.78
5752.39
5752.14
5752.03
5755.3
5754.56
5753.9
5753.32
5752.86
5752.56
5752.46
5752.42
5755.99
5755.15
5754.36
5753.64
5753.03
5752.62
5752.45
5752.37
5756.35
5755.48
5754.61
5753.81
5753.11
5752.61
5752.39
5752.28
5756.43
5755.52
5754.64
5753.8
5753.06
5752.53
5752.28
5752.16
5756.19
5755.28
5754.4
5753.57
5752.85
5752.34
5752.12
5752.01
5755.64
5754.76
5753.93
5753.17
5752.53
5752.09
5751.92
5751.84
5754.78
5753.98
5753.27
5752.66
5752.16
5751.84
5751.74
5751.69
5756.75
5756.23
5755.76
5755.35
5754.97
5754.63
5754.41
5754.37
5757.3
5756.72
5756.1
5755.49
5754.91
5754.4
5754.08
5754.02
5757.53
5756.94
5756.24
5755.53
5754.83
5754.22
5753.83
5753.73
5757.45
5756.88
5756.16
5755.4
5754.67
5754.02
5753.59
5753.49
5757.22
5756.65
5755.94
5755.2
5754.49
5753.87
5753.47
5753.38
5756.73
5756.16
5755.52
5754.86
5754.25
5753.72
5753.4
5753.35
5755.96
5755.37
5754.88
5754.43
5754.03
5753.67
5753.45
5753.43
5702.17
5702.04
5702.01
5702.06
5702.15
5702.28
5702.42
5702.58
5702.26
5702.15
5702.12
5702.17
5702.27
5702.4
5702.55
5702.71
5702.34
5702.23
5702.2
5702.25
5702.36
5702.5
5702.65
5702.82
5702.39
5702.28
5702.25
5702.31
5702.43
5702.57
5702.73
5702.9
5702.41
5702.3
5702.28
5702.34
5702.46
5702.6
5702.77
5702.94
5702.4
5702.29
5702.27
5702.34
5702.45
5702.6
5702.76
5702.94
5702.36
5702.25
5702.23
5702.3
5702.41
5702.56
5702.73
5702.91
5701.73
5701.61
5701.61
5701.74
5701.94
5702.18
5702.43
5702.69
5701.84
5701.72
5701.72
5701.86
5702.07
5702.31
5702.58
5702.84
5701.92
5701.8
5701.81
5701.95
5702.17
5702.42
5702.69
5702.96
5701.97
5701.85
5701.87
5702.02
5702.24
5702.5
5702.77
5703.05
5701.98
5701.87
5701.89
5702.04
5702.27
5702.53
5702.81
5703.09
5701.96
5701.85
5701.87
5702.03
5702.26
5702.52
5702.81
5703.09
5701.9
5701.79
5701.82
5701.98
5702.21
5702.48
5702.77
5703.06
5700.96
5700.87
5700.99
5701.27
5701.66
5702.08
5702.51
5702.9
5701.06
5700.98
5701.11
5701.4
5701.8
5702.23
5702.67
5703.07
5701.14
5701.07
5701.19
5701.49
5701.9
5702.35
5702.8
5703.21
5701.19
5701.12
5701.25
5701.56
5701.98
5702.43
5702.89
5703.31
5701.19
5701.12
5701.26
5701.58
5702.01
5702.47
5702.93
5703.36
5701.15
5701.09
5701.23
5701.56
5701.99
5702.46
5702.93
5703.37
5701.08
5701.02
5701.17
5701.5
5701.93
5702.41
5702.89
5703.33
5699.35
5699.43
5699.82
5700.53
5701.32
5702.08
5702.73
5703.27
5699.45
5699.54
5699.94
5700.66
5701.46
5702.24
5702.91
5703.46
5699.54
5699.63
5700.03
5700.76
5701.57
5702.37
5703.06
5703.62
5699.59
5699.68
5700.09
5700.82
5701.65
5702.46
5703.17
5703.74
5699.58
5699.67
5700.09
5700.83
5701.68
5702.5
5703.22
5703.8
5699.51
5699.61
5700.04
5700.8
5701.66
5702.49
5703.22
5703.81
5699.41
5699.52
5699.96
5700.73
5701.59
5702.44
5703.17
5703.78
5697.98
5698.66
5699.31
5700.36
5701.5
5702.52
5703.31
5703.86
5698.06
5698.74
5699.42
5700.5
5701.67
5702.71
5703.52
5704.08
5698.18
5698.87
5699.55
5700.62
5701.8
5702.87
5703.7
5704.3
5698.24
5698.93
5699.63
5700.7
5701.89
5702.98
5703.84
5704.46
5698.22
5698.91
5699.61
5700.71
5701.92
5703.03
5703.9
5704.54
5698.15
5698.83
5699.54
5700.66
5701.89
5703.01
5703.9
5704.54
5698.07
5698.74
5699.45
5700.58
5701.83
5702.96
5703.86
5704.51
5690.72
5692.38
5697.06
5700.29
5702.26
5703.55
5704.39
5704.93
5690.73
5692.44
5697.18
5700.45
5702.46
5703.79
5704.67
5705.16
5690.91
5692.69
5697.42
5700.67
5702.66
5704.02
5704.9
5705.24
5691
5692.85
5697.56
5700.78
5702.78
5704.16
5705.05
5705.35
5690.86
5692.78
5697.52
5700.77
5702.79
5704.2
5705.14
5705.48
5690.66
5692.59
5697.33
5700.63
5702.71
5704.17
5705.17
5705.7
5690.56
5692.52
5697.22
5700.51
5702.62
5704.09
5705.12
5705.75
5701.4
5701.27
5701.23
5701.28
5701.38
5701.51
5701.67
5701.84
5701.28
5701.15
5701.11
5701.15
5701.24
5701.37
5701.52
5701.69
5701.18
5701.05
5701.01
5701.04
5701.13
5701.25
5701.4
5701.56
5701.11
5700.98
5700.93
5700.96
5701.04
5701.16
5701.3
5701.46
5701.08
5700.95
5700.89
5700.92
5701
5701.11
5701.25
5701.4
5701.1
5700.96
5700.9
5700.93
5701
5701.11
5701.24
5701.39
5701.15
5701
5700.95
5700.97
5701.04
5701.15
5701.27
5701.42
5700.79
5700.67
5700.68
5700.83
5701.04
5701.3
5701.58
5701.86
5700.65
5700.53
5700.54
5700.69
5700.89
5701.14
5701.41
5701.69
5700.55
5700.43
5700.43
5700.57
5700.77
5701.01
5701.27
5701.54
5700.47
5700.35
5700.35
5700.48
5700.67
5700.91
5701.17
5701.43
5700.45
5700.32
5700.32
5700.44
5700.63
5700.85
5701.1
5701.36
5700.47
5700.34
5700.34
5700.46
5700.63
5700.85
5701.09
5701.34
5700.54
5700.41
5700.4
5700.51
5700.68
5700.89
5701.13
5701.38
5699.78
5699.73
5699.88
5700.21
5700.63
5701.09
5701.56
5702
5699.63
5699.58
5699.73
5700.06
5700.47
5700.92
5701.38
5701.81
5699.52
5699.47
5699.62
5699.93
5700.33
5700.77
5701.22
5701.64
5699.45
5699.4
5699.54
5699.85
5700.23
5700.66
5701.1
5701.51
5699.44
5699.39
5699.51
5699.81
5700.18
5700.6
5701.03
5701.43
5699.48
5699.42
5699.54
5699.83
5700.19
5700.6
5701.02
5701.41
5699.58
5699.51
5699.62
5699.9
5700.25
5700.65
5701.06
5701.44
5697.9
5698.05
5698.51
5699.29
5700.15
5700.99
5701.71
5702.31
5697.74
5697.9
5698.36
5699.12
5699.98
5700.8
5701.51
5702.09
5697.63
5697.79
5698.23
5698.98
5699.83
5700.63
5701.32
5701.89
5697.58
5697.73
5698.16
5698.9
5699.72
5700.51
5701.18
5701.74
5697.58
5697.72
5698.14
5698.86
5699.67
5700.44
5701.1
5701.64
5697.65
5697.78
5698.19
5698.9
5699.69
5700.44
5701.08
5701.61
5697.8
5697.91
5698.3
5698.99
5699.76
5700.5
5701.12
5701.64
5696.32
5697.13
5697.83
5698.98
5700.23
5701.35
5702.23
5702.88
5696.08
5696.9
5697.65
5698.8
5700.04
5701.14
5702
5702.63
5695.94
5696.74
5697.52
5698.66
5699.88
5700.96
5701.8
5702.41
5695.88
5696.68
5697.45
5698.57
5699.77
5700.82
5701.64
5702.23
5695.87
5696.67
5697.42
5698.52
5699.7
5700.73
5701.52
5702.09
5695.99
5696.82
5697.47
5698.54
5699.7
5700.71
5701.48
5702.03
5696.22
5697.01
5697.62
5698.65
5699.78
5700.76
5701.51
5702.04
5687.97
5690.05
5695.07
5698.54
5700.74
5702.23
5703.24
5703.83
5687.73
5689.86
5694.92
5698.4
5700.57
5702.01
5702.96
5703.52
5687.79
5689.94
5694.93
5698.35
5700.45
5701.84
5702.7
5703.21
5687.85
5689.95
5694.89
5698.27
5700.34
5701.67
5702.48
5702.97
5687.78
5689.82
5694.77
5698.16
5700.21
5701.52
5702.31
5702.78
5687.76
5689.62
5694.64
5698.07
5700.14
5701.43
5702.2
5702.67
5688.21
5689.97
5694.86
5698.22
5700.23
5701.48
5702.21
5702.64
5701.24
5701.09
5701.03
5701.05
5701.12
5701.22
5701.35
5701.49
5701.35
5701.2
5701.14
5701.16
5701.23
5701.34
5701.46
5701.6
5701.49
5701.34
5701.28
5701.3
5701.37
5701.48
5701.61
5701.75
5701.63
5701.48
5701.42
5701.45
5701.53
5701.64
5701.77
5701.91
5701.78
5701.64
5701.58
5701.61
5701.69
5701.81
5701.94
5702.08
5701.92
5701.79
5701.74
5701.78
5701.86
5701.98
5702.11
5702.26
5702.05
5701.92
5701.88
5701.93
5702.02
5702.14
5702.28
5702.43
5700.65
5700.52
5700.5
5700.61
5700.78
5700.99
5701.22
5701.46
5700.8
5700.65
5700.63
5700.74
5700.91
5701.12
5701.35
5701.59
5700.96
5700.81
5700.79
5700.9
5701.08
5701.28
5701.51
5701.75
5701.13
5700.98
5700.96
5701.08
5701.26
5701.46
5701.7
5701.93
5701.3
5701.16
5701.15
5701.27
5701.45
5701.66
5701.89
5702.13
5701.47
5701.33
5701.32
5701.45
5701.63
5701.85
5702.09
5702.33
5701.61
5701.48
5701.48
5701.61
5701.8
5702.02
5702.27
5702.52
5699.73
5699.66
5699.76
5700.03
5700.38
5700.77
5701.16
5701.53
5699.91
5699.83
5699.93
5700.19
5700.54
5700.93
5701.31
5701.68
5700.11
5700.02
5700.12
5700.38
5700.72
5701.11
5701.5
5701.85
5700.31
5700.22
5700.32
5700.58
5700.92
5701.31
5701.7
5702.06
5700.5
5700.41
5700.51
5700.78
5701.13
5701.53
5701.92
5702.28
5700.67
5700.59
5700.7
5700.97
5701.33
5701.74
5702.14
5702.51
5700.83
5700.74
5700.86
5701.14
5701.51
5701.92
5702.34
5702.72
5698
5698.11
5698.5
5699.18
5699.93
5700.64
5701.25
5701.75
5698.23
5698.33
5698.71
5699.38
5700.12
5700.82
5701.42
5701.9
5698.47
5698.56
5698.94
5699.6
5700.33
5701.03
5701.62
5702.09
5698.7
5698.79
5699.16
5699.82
5700.56
5701.26
5701.85
5702.33
5698.9
5698.98
5699.36
5700.04
5700.78
5701.49
5702.09
5702.57
5699.08
5699.16
5699.55
5700.24
5701
5701.72
5702.33
5702.83
5699.23
5699.32
5699.7
5700.4
5701.17
5701.91
5702.55
5703.06
5696.5
5697.25
5697.89
5698.91
5700.01
5700.95
5701.67
5702.17
5696.77
5697.5
5698.14
5699.15
5700.23
5701.16
5701.85
5702.33
5697.06
5697.79
5698.43
5699.42
5700.49
5701.4
5702.08
5702.54
5697.33
5698.06
5698.69
5699.68
5700.74
5701.66
5702.34
5702.8
5697.53
5698.22
5698.89
5699.9
5700.98
5701.91
5702.6
5703.06
5697.7
5698.37
5699.05
5700.09
5701.19
5702.15
5702.86
5703.34
5697.89
5698.57
5699.23
5700.26
5701.38
5702.36
5703.1
5703.62
5688.75
5690.52
5695.37
5698.66
5700.59
5701.76
5702.42
5702.77
5689.09
5690.8
5695.65
5698.95
5700.87
5702.02
5702.64
5702.98
5689.5
5691.18
5696.05
5699.34
5701.22
5702.35
5702.93
5703.29
5689.89
5691.54
5696.39
5699.66
5701.54
5702.66
5703.25
5703.61
5690.12
5691.81
5696.65
5699.92
5701.8
5702.94
5703.58
5703.92
5690.33
5692.02
5696.82
5700.07
5701.99
5703.16
5703.86
5704.23
5690.63
5692.32
5697.06
5700.28
5702.19
5703.4
5704.16
5704.62
5702.3
5702.19
5702.17
5702.23
5702.35
5702.5
5702.67
5702.85
5702.22
5702.1
5702.08
5702.14
5702.26
5702.41
5702.58
5702.76
5702.11
5701.99
5701.96
5702.03
5702.14
5702.29
5702.46
5702.64
5701.99
5701.86
5701.83
5701.88
5702
5702.15
5702.32
5702.5
5701.84
5701.71
5701.67
5701.73
5701.84
5701.99
5702.16
5702.34
5701.69
5701.56
5701.52
5701.57
5701.68
5701.83
5701.99
5702.17
5701.54
5701.41
5701.37
5701.42
5701.53
5701.67
5701.83
5702
5701.83
5701.71
5701.74
5701.9
5702.14
5702.41
5702.7
5702.99
5701.72
5701.61
5701.63
5701.8
5702.04
5702.31
5702.6
5702.9
5701.6
5701.48
5701.5
5701.67
5701.9
5702.18
5702.47
5702.77
5701.45
5701.33
5701.35
5701.51
5701.75
5702.02
5702.31
5702.61
5701.29
5701.16
5701.18
5701.34
5701.57
5701.84
5702.14
5702.43
5701.11
5700.99
5701.01
5701.17
5701.39
5701.66
5701.95
5702.24
5700.94
5700.82
5700.84
5700.99
5701.21
5701.47
5701.76
5702.05
5700.98
5700.92
5701.08
5701.41
5701.85
5702.33
5702.82
5703.26
5700.86
5700.8
5700.96
5701.3
5701.74
5702.23
5702.71
5703.16
5700.72
5700.66
5700.81
5701.15
5701.6
5702.08
5702.57
5703.01
5700.55
5700.49
5700.64
5700.98
5701.42
5701.91
5702.39
5702.83
5700.35
5700.29
5700.45
5700.79
5701.23
5701.71
5702.19
5702.64
5700.15
5700.09
5700.25
5700.59
5701.02
5701.5
5701.98
5702.43
5699.95
5699.9
5700.05
5700.39
5700.82
5701.29
5701.77
5702.21
5699.3
5699.41
5699.86
5700.64
5701.51
5702.36
5703.1
5703.71
5699.15
5699.27
5699.73
5700.52
5701.4
5702.25
5703
5703.61
5698.99
5699.12
5699.57
5700.36
5701.24
5702.09
5702.84
5703.44
5698.8
5698.93
5699.38
5700.17
5701.05
5701.9
5702.64
5703.24
5698.55
5698.69
5699.16
5699.95
5700.83
5701.68
5702.42
5703.03
5698.3
5698.45
5698.93
5699.72
5700.6
5701.45
5702.19
5702.79
5698.09
5698.24
5698.71
5699.49
5700.37
5701.21
5701.95
5702.55
5697.96
5698.64
5699.36
5700.49
5701.76
5702.9
5703.79
5704.44
5697.74
5698.44
5699.2
5700.37
5701.65
5702.8
5703.7
5704.35
5697.56
5698.28
5699.05
5700.21
5701.49
5702.63
5703.53
5704.17
5697.35
5698.07
5698.85
5700.01
5701.28
5702.42
5703.31
5703.95
5697.06
5697.8
5698.59
5699.76
5701.03
5702.17
5703.07
5703.7
5696.75
5697.51
5698.3
5699.47
5700.75
5701.89
5702.79
5703.43
5696.56
5697.36
5698.07
5699.21
5700.48
5701.61
5702.51
5703.15
5690.41
5692.43
5697.13
5700.43
5702.56
5704.03
5705.06
5705.68
5689.89
5692.02
5696.89
5700.28
5702.46
5703.95
5704.97
5705.51
5689.79
5691.95
5696.81
5700.19
5702.34
5703.82
5704.82
5705.35
5689.59
5691.76
5696.6
5699.97
5702.13
5703.6
5704.59
5705.13
5689.14
5691.35
5696.25
5699.65
5701.82
5703.3
5704.3
5704.88
5688.62
5690.8
5695.77
5699.22
5701.42
5702.92
5703.93
5704.5
5688.32
5690.42
5695.4
5698.85
5701.05
5702.56
5703.59
5704.2
5703.22
5703.18
5703.2
5702.7
5702.79
5702.88
5702.96
5703.03
5703.1
5703.16
5703.23
5702.84
5702.93
5703.02
5703.1
5703.18
5703.24
5703.3
5703.37
5702.95
5703.05
5703.14
5703.22
5703.29
5703.36
5703.42
5703.49
5703.03
5703.13
5703.22
5703.31
5703.38
5703.45
5703.51
5703.57
5703.07
5703.17
5703.27
5703.35
5703.43
5703.5
5703.56
5703.62
5703.08
5703.18
5703.27
5703.36
5703.44
5703.51
5703.57
5703.64
5703.05
5703.15
5703.25
5703.34
5703.42
5703.49
5703.55
5703.62
5702.89
5703.03
5703.16
5703.29
5703.41
5703.53
5703.66
5703.8
5703.04
5703.19
5703.33
5703.45
5703.57
5703.7
5703.82
5703.96
5703.17
5703.32
5703.46
5703.58
5703.7
5703.83
5703.95
5704.09
5703.26
5703.41
5703.55
5703.68
5703.81
5703.93
5704.05
5704.18
5703.31
5703.46
5703.61
5703.74
5703.86
5703.98
5704.11
5704.24
5703.31
5703.47
5703.61
5703.75
5703.87
5704
5704.13
5704.27
5703.28
5703.44
5703.59
5703.73
5703.86
5703.99
5704.11
5704.26
5703.19
5703.38
5703.56
5703.73
5703.9
5704.09
5704.31
5704.57
5703.36
5703.57
5703.75
5703.93
5704.1
5704.29
5704.51
5704.76
5703.51
5703.71
5703.9
5704.07
5704.24
5704.43
5704.64
5704.89
5703.62
5703.83
5704.02
5704.19
5704.36
5704.55
5704.77
5705
5703.67
5703.89
5704.08
5704.25
5704.43
5704.62
5704.84
5705.08
5703.68
5703.9
5704.09
5704.27
5704.45
5704.64
5704.86
5705.11
5703.65
5703.87
5704.08
5704.26
5704.44
5704.64
5704.87
5705.12
5703.62
5703.85
5704.05
5704.24
5704.44
5704.7
5705.03
5705.42
5703.82
5704.07
5704.28
5704.47
5704.67
5704.93
5705.26
5705.64
5704
5704.24
5704.45
5704.64
5704.83
5705.09
5705.41
5705.78
5704.13
5704.38
5704.6
5704.78
5704.98
5705.24
5705.56
5705.92
5704.2
5704.46
5704.67
5704.86
5705.06
5705.32
5705.65
5706.01
5704.21
5704.47
5704.69
5704.89
5705.09
5705.35
5705.69
5706.06
5704.18
5704.45
5704.69
5704.9
5705.12
5705.39
5705.72
5706.1
5704.17
5704.39
5704.57
5704.71
5704.86
5705.14
5705.58
5706.12
5704.42
5704.66
5704.88
5705.02
5705.14
5705.43
5705.88
5706.42
5704.68
5704.92
5705.08
5705.17
5705.28
5705.58
5706.04
5706.57
5704.87
5705.11
5705.26
5705.34
5705.46
5705.79
5706.24
5706.76
5704.96
5705.2
5705.36
5705.44
5705.56
5705.88
5706.34
5706.87
5704.93
5705.19
5705.39
5705.52
5705.63
5705.92
5706.38
5706.92
5704.89
5705.17
5705.41
5705.57
5705.72
5706.02
5706.48
5707.01
5662.26
5644.99
5700.39
5686.42
5609.49
5585.39
5595.92
5665.86
5623.17
5640.02
5705.18
5677.69
5571.07
5564.25
5589.79
5671.18
5673.96
5701.29
5706.48
5655.33
5537.11
5561.04
5589.71
5675.21
5691.8
5706.49
5706.61
5632.27
5533.48
5587.4
5601.61
5679.76
5688.17
5706.6
5706.77
5638.97
5524.33
5576.53
5599.68
5677.68
5648.15
5677.8
5706.94
5668.28
5554.34
5552.08
5587.04
5672.28
5626.93
5643.05
5705.36
5680.41
5584.33
5600.97
5604.7
5675.15
5701.97
5702.07
5702.17
5702.25
5702.33
5702.41
5702.47
5702.54
5701.82
5701.92
5702.01
5702.1
5702.18
5702.25
5702.31
5702.39
5701.69
5701.78
5701.88
5701.96
5702.04
5702.11
5702.18
5702.25
5701.59
5701.68
5701.77
5701.86
5701.94
5702.01
5702.07
5702.14
5701.53
5701.62
5701.71
5701.79
5701.87
5701.94
5702
5702.07
5701.51
5701.6
5701.69
5701.77
5701.84
5701.91
5701.97
5702.05
5701.53
5701.62
5701.71
5701.79
5701.86
5701.93
5701.99
5702.07
5702.07
5702.23
5702.38
5702.52
5702.65
5702.78
5702.92
5703.07
5701.9
5702.05
5702.2
5702.34
5702.47
5702.6
5702.74
5702.89
5701.75
5701.9
5702.05
5702.18
5702.31
5702.44
5702.58
5702.73
5701.63
5701.78
5701.92
5702.06
5702.19
5702.32
5702.45
5702.61
5701.56
5701.71
5701.85
5701.98
5702.11
5702.24
5702.37
5702.53
5701.54
5701.68
5701.82
5701.95
5702.08
5702.21
5702.34
5702.5
5701.57
5701.71
5701.84
5701.97
5702.1
5702.23
5702.36
5702.52
5702.31
5702.53
5702.73
5702.92
5703.11
5703.31
5703.55
5703.83
5702.11
5702.33
5702.52
5702.71
5702.9
5703.1
5703.34
5703.62
5701.94
5702.15
5702.34
5702.53
5702.71
5702.92
5703.16
5703.43
5701.81
5702.01
5702.2
5702.38
5702.57
5702.77
5703.01
5703.29
5701.72
5701.92
5702.11
5702.29
5702.47
5702.68
5702.92
5703.2
5701.69
5701.89
5702.08
5702.25
5702.43
5702.64
5702.88
5703.16
5701.72
5701.91
5702.1
5702.27
5702.45
5702.65
5702.89
5703.17
5702.7
5702.97
5703.19
5703.4
5703.62
5703.9
5704.26
5704.68
5702.48
5702.73
5702.95
5703.15
5703.37
5703.65
5704
5704.43
5702.28
5702.53
5702.74
5702.94
5703.16
5703.43
5703.78
5704.21
5702.12
5702.36
5702.57
5702.77
5702.98
5703.26
5703.61
5704.04
5702.01
5702.25
5702.46
5702.65
5702.87
5703.14
5703.49
5703.93
5701.97
5702.21
5702.41
5702.6
5702.81
5703.08
5703.44
5703.87
5701.99
5702.22
5702.42
5702.61
5702.82
5703.08
5703.44
5703.88
5703.26
5703.5
5703.68
5703.83
5704.02
5704.31
5704.77
5705.34
5703
5703.23
5703.39
5703.53
5703.71
5704.01
5704.46
5705.02
5702.77
5702.99
5703.14
5703.28
5703.46
5703.75
5704.19
5704.76
5702.58
5702.8
5702.94
5703.08
5703.26
5703.55
5703.98
5704.55
5702.44
5702.65
5702.8
5702.93
5703.11
5703.4
5703.84
5704.4
5702.37
5702.58
5702.73
5702.86
5703.04
5703.32
5703.76
5704.33
5702.37
5702.57
5702.71
5702.84
5703.02
5703.3
5703.75
5704.32
5697.19
5697.28
5704.47
5697.05
5661.53
5636.83
5614.05
5655.41
5703.76
5700.22
5701.91
5699.72
5665.24
5625.85
5617.95
5650.73
5703.55
5703.61
5697.53
5698.82
5665.45
5629.44
5617.89
5640.15
5703.33
5702.92
5694.13
5699.33
5665.14
5633.51
5618.68
5632.26
5703.14
5701.48
5692.55
5700.1
5665.22
5634.61
5619.88
5631.28
5703.01
5699.29
5693.41
5701.81
5665.14
5633.45
5620.6
5635.56
5702.98
5702.03
5693.87
5701.34
5666.43
5631.56
5620.17
5641.69
5701.61
5701.69
5701.78
5701.86
5701.93
5702
5702.06
5702.13
5701.72
5701.8
5701.89
5701.96
5702.04
5702.1
5702.16
5702.23
5701.86
5701.95
5702.03
5702.11
5702.18
5702.24
5702.3
5702.37
5702.02
5702.11
5702.19
5702.27
5702.34
5702.41
5702.46
5702.53
5702.2
5702.29
5702.37
5702.45
5702.52
5702.58
5702.64
5702.71
5702.38