/*--------------------------------*- C++ -*----------------------------------*\
| =========                 |                                                 |
| \\      /  F ield         | OpenFOAM: The Open Source CFD Toolbox           |
|  \\    /   O peration     | Version:  plus.master                           |
|   \\  /    A nd           | Web:      www.OpenFOAM.com                      |
|    \\/     M anipulation  |                                                 |
\*---------------------------------------------------------------------------*/
FoamFile
{
    version     2.0;
    format      ascii;
    class       Cloud<passiveParticle>;
    location    "14/lagrangian/kinematicCloud";
    object      positions;
}
// * * * * * * * * * * * * * * * * * * * * * * * * * * * * * * * * * * * * * //

96597
(
(-0.00134693 -0.0157738 0.000264846) 829
(0.0208695 -0.0257186 0.000253108) 859
(0.00157224 0.0792693 0.000277602) 2376
(0.00309205 -0.039923 0.000304302) 2089
(0.0265086 -0.0595 0.000286451) 2110
(-0.023411 -0.0444709 0.000290643) 2075
(0.0174534 -0.0441161 0.000278314) 2106
(-0.00704708 0.0171239 0.000248303) 1126
(0.0175042 0.0379257 0.00026185) 2353
(-0.00220467 0.0699368 0.000251248) 2374
(0.0286311 0.0511997 0.000281061) 2356
(0.0354069 0.0176513 0.0002589) 1545
(-0.016359 0.00400083 0.000269178) 542
(0.0257286 0.021719 0.00027876) 299
(0.0577384 -0.00417007 0.000264263) 1532
(-0.00435182 0.038721 0.000278111) 2369
(0.00110288 -0.0161284 0.000265841) 830
(-0.0441954 0.0206307 0.000312191) 1795
(0.0284649 0.0186769 0.00027238) 300
(0.016674 0.0643464 0.000289117) 2366
(-0.0227248 0.0227559 0.00030016) 1139
(-0.00432793 -0.0923038 0.000280304) 3211
(-0.042512 -0.0207932 0.00022664) 1826
(-0.0376476 -0.0148033 0.000290159) 1825
(0.021178 -0.023782 0.000279615) 859
(-0.00798635 -0.0568989 0.000245306) 2084
(-0.0213976 0.021397 0.000312924) 530
(0.00113251 0.102428 0.000261587) 3494
(-0.0409867 -0.0200482 0.000271988) 1826
(0.030076 -0.0241347 0.000297047) 1505
(-0.0219381 0.0217682 0.000247827) 530
(0.0333837 -0.0165931 0.000293678) 1366
(-0.0306982 0.0133999 0.000291455) 539
(-0.0203809 0.0203604 0.00031053) 529
(0.00328736 0.0376641 0.000275457) 1473
(0.0360084 0.0177205 0.000265607) 1545
(-0.00159458 0.0597342 0.000264996) 2373
(-0.000371392 0.0711993 0.000292125) 2375
(-0.0274433 0.0269521 0.000291675) 1785
(-0.0811762 -6.8925e-06 0.000256922) 1816
(0.0111276 -0.0476569 0.000265261) 2099
(-0.021672 -0.0370376 0.000281471) 2073
(0.00854376 0.0227653 0.000309165) 1096
(-0.0413902 0.0189491 0.000267172) 1794
(-0.0186655 0.036019 0.000298203) 2385
(0.0285254 -0.0213379 0.000275693) 252
(-0.00762115 -0.089126 0.000291888) 3211
(-0.0101045 0.0159028 0.000300382) 1126
(-0.0182013 -0.0386254 0.000242024) 2073
(-0.0137277 0.0277532 0.000288869) 1130
(0.0377848 -0.014998 0.000279525) 1513
(-0.0154942 0.0300468 0.000269973) 1132
(0.0143047 -0.0207936 0.000246998) 856
(-0.0045583 -0.0610417 0.000278025) 2093
(0.0279703 -0.0118568 0.000264799) 258
(0.0164113 0.0389417 0.000242521) 2353
(0.019896 0.0262984 0.000284541) 1091
(-0.00243931 0.0188331 0.000253816) 1118
(-0.0173457 0.0410368 0.00027328) 2386
(0.00899649 0.0581228 0.000276923) 2364
(0.0419817 -0.0163877 0.00030666) 1514
(0.033361 -0.0172565 0.000280884) 1366
(0.0333862 0.0141692 0.000268417) 1370
(-0.0203078 0.037388 0.000276175) 2385
(0.0189719 -0.000930805 0.000297755) 271
(-0.0407023 -0.0216579 0.000292902) 1826
(0.00479121 0.102499 0.000288582) 3494
(0.00675504 0.0169513 0.000306652) 1094
(-0.102901 0.00042023 0.000277211) 2935
(0.0405553 -0.0167594 0.000264137) 1514
(0.0146809 -0.0210509 0.000263963) 856
(0.0193467 0.0262595 0.00029835) 1091
(0.0148434 0.041545 0.000290221) 2354
(0.0154053 0.0360924 0.000239914) 2353
(0.00823944 0.0212996 0.000271506) 1096
(0.0232815 -0.0248009 0.000284429) 860
(0.0596202 -0.000636326 0.000291845) 1533
(-0.0161919 0.00110458 0.00029509) 550
(0.0113269 0.0266983 0.000286274) 1098
(-0.00185886 0.0224932 0.000252821) 1112
(0.00303725 0.0363803 0.000242184) 1473
(-0.0106892 -0.0456667 0.000266665) 2082
(-0.0357639 0.016953 0.000279256) 1793
(0.0190958 0.0205739 0.000270462) 1089
(-0.02533 0.0250942 0.000293016) 532
(0.00954014 0.0260842 0.000286852) 1097
(0.0189556 -0.0156395 0.000271851) 248
(0.00518897 0.0765489 0.000280071) 2376
(-0.0160101 0.00661887 0.000252273) 534
(-0.0361328 0.00411743 0.000280996) 1402
(-0.0079682 0.0198205 0.000273782) 1127
(0.00889172 0.0155064 0.000271575) 1094
(0.015738 -0.0490729 0.000261522) 2099
(-0.0415678 -0.0119044 0.000258192) 1817
(0.0240421 -0.0155135 0.000293457) 257
(-0.025727 -0.0256403 0.000320323) 1406
(0.0281412 0.0169353 0.000281381) 291
(-0.0824107 0.00504159 0.000257596) 2929
(-0.00635298 0.047899 0.000260016) 2378
(0.0186048 0.00207084 0.000266456) 270
(-0.0902404 0.00257235 0.000278158) 2931
(0.00717746 0.0290984 0.00026731) 1106
(0.0540892 0.00130179 0.000279624) 1531
(-0.029364 0.00341959 0.000272982) 554
(0.017871 -0.0104698 0.000278857) 255
(-0.0339909 0.0167916 0.000297419) 1401
(-0.00163949 0.0740763 0.000271129) 2375
(-0.018704 0.0361867 0.000282143) 2385
(0.0354619 -0.025324 0.000319786) 1506
(-0.0539008 0.0263817 0.000281124) 1797
(-0.0247138 0.0465813 0.000290675) 2387
(0.0301322 -0.0207331 0.000291361) 1365
(-0.00318579 -0.052976 0.000300533) 2091
(0.0297372 0.0157274 0.000288247) 292
(0.00648245 0.0319905 0.000276499) 1107
(0.0167483 -0.0361696 0.000262168) 2105
(0.0120938 0.0200039 0.000273028) 1095
(-0.047993 -0.0213535 0.000278642) 1827
(0.0208508 -0.00942342 0.00028423) 256
(0.0167243 -0.0357227 0.000257853) 2105
(0.0490987 0.00345906 0.000288815) 1531
(0.00311252 -0.0419197 0.000299812) 2089
(0.018978 -0.0225462 0.000292466) 858
(-0.0228331 -0.0441651 0.000296163) 2075
(0.0219253 0.0126165 0.000289274) 288
(-0.0335612 0.00381921 0.000297548) 556
(0.0205423 0.0240104 0.000260567) 1091
(0.00340982 -0.089202 0.000305919) 3211
(0.0155216 0.0261274 0.000279668) 1098
(0.0479448 0.00169446 0.000257242) 1530
(0.0223369 -0.0246169 0.00028633) 859
(0.00596006 0.0326228 0.000283874) 1107
(0.0191657 0.0418027 0.000258158) 2354
(0.0148428 0.0470384 0.000254948) 2363
(0.0195299 0.0178566 0.000273053) 296
(-0.000964534 0.10248 0.000267828) 3494
(0.0121193 0.0326652 0.000267385) 1100
(0.00542059 -0.0214809 0.000291698) 839
(-0.00106347 0.0734338 0.0002674) 2375
(-0.0192018 0.0411585 0.000259695) 2386
(-0.025669 0.0256675 0.000323118) 1400
(0.0231678 0.0110283 0.000273207) 289
(-0.038414 -0.0148005 0.000282038) 1825
(-0.00244564 0.0217152 0.000488842) 1111
(0.0145656 -0.0210066 0.000254599) 856
(-0.0234554 -0.0232576 0.000290184) 579
(-0.0508236 0.00545269 0.000264546) 1811
(-0.0010339 0.0275723 0.000276285) 1113
(-0.0419941 -0.0166064 0.000266885) 1826
(0.0246015 -0.0288126 0.000287878) 1441
(0.0103689 -0.0196256 0.000278246) 847
(0.0144282 0.022094 0.00025386) 1089
(0.0198478 -0.00717042 0.000306908) 263
(0.0187302 0.0393536 0.000256939) 2354
(0.0222818 -0.0254371 0.000286492) 859
(-0.02112 -0.00809354 0.000264835) 567
(0.00826828 -0.043232 0.000254471) 2098
(-0.0408407 -0.0166931 0.000246968) 1826
(0.0319239 0.000354931 0.000264614) 275
(-0.00887596 0.0168208 0.000269438) 1126
(-0.00217363 -0.0544846 0.000245071) 2092
(0.0131379 -0.0428527 0.000262897) 2098
(-0.016059 0.034497 0.000263952) 1475
(0.0055815 -0.0168684 0.000237748) 838
(0.00666868 0.0167112 0.000256093) 1102
(-0.091539 -0.00349774 0.00029289) 2931
(0.00418692 0.0162277 0.000271835) 1102
(0.00631811 -0.0559143 0.000249185) 2100
(0.0155144 0.0130158 0.000261654) 294
(0.0227449 -0.0250018 0.000281458) 859
(0.00355632 0.0179662 0.000265484) 1102
(-0.0494552 0.0193944 0.00025969) 1795
(0.0373771 -0.0164582 0.000291485) 1513
(-0.0157925 0.00113506 0.000254927) 549
(-0.012315 0.0311245 0.000252487) 1131
(-0.01642 -0.0262601 0.000292126) 818
(0.0186028 0.00206773 0.000276096) 270
(-0.102829 -0.000524144 0.000277399) 2935
(-0.0271478 -0.027171 0.000327848) 1435
(0.0303903 -0.0108288 0.000268159) 259
(0.0156683 0.00367849 0.000277314) 277
(-0.0398169 0.0176763 0.000257179) 1794
(-0.038441 0.0167929 0.000273694) 1793
(-0.0396566 -0.0161037 0.000283842) 1825
(-0.00109495 -0.0979452 0.000253167) 3213
(0.0289301 0.0250941 0.000300387) 1553
(0.0152022 0.023512 0.000259826) 1097
(0.000898422 -0.067693 0.000278848) 2094
(-0.0284807 -0.0545703 0.000284775) 2077
(0.021073 -0.0236658 0.000289591) 859
(0.0288807 0.0251537 0.000277877) 1553
(0.0163833 0.0636108 0.000279746) 2366
(0.00918131 0.0249857 0.000259622) 1097
(0.0266309 0.0593485 0.000293223) 2358
(-0.0265983 -0.0260312 0.000309585) 1406
(-0.00207161 -0.021802 0.000286067) 831
(-0.00167538 -0.103478 0.000270266) 3215
(0.022496 0.0226912 0.000272182) 1091
(0.044574 -0.0152369 0.000291639) 1522
(0.0167113 0.0388596 0.000257043) 2353
(0.0312129 0.0157065 0.00030422) 292
(0.00107816 -0.0999005 0.000260701) 3214
(0.040032 -0.0128425 0.00024341) 1521
(-0.022062 0.0220703 0.000303834) 1138
(-0.0182031 -0.0326818 0.000261832) 1436
(0.0235165 -0.0152997 0.000269416) 249
(0.024926 -0.0159926 0.000289496) 258
(-0.00101156 0.0774214 0.000283956) 2376
(-0.0251183 -0.0437332 0.000288891) 2075
(-0.0630318 -0.0130413 0.000309571) 1821
(0.0194377 -0.03889 0.000280957) 2106
(0.0154304 0.0238264 0.000293058) 1089
(0.0405806 -0.0157914 0.000313321) 1513
(-0.0415948 -0.0210724 0.000274822) 1826
(0.059615 0.00159658 0.000278706) 1533
(-0.0178325 0.0178196 0.000299149) 528
(-0.0251971 -0.0248187 0.000256524) 580
(-0.056155 -0.010451 0.000258053) 1820
(0.023188 -0.0248633 0.00030388) 860
(-0.0920869 0.00202267 0.000275963) 2931
(0.00544689 0.0475791 0.000277501) 2362
(-0.0223108 -0.0213247 0.000276637) 578
(-0.0110996 -0.0181875 0.000288576) 815
(0.0187946 -0.0240327 0.000277538) 858
(-0.0303624 0.0141956 0.000285888) 539
(0.0186114 0.00219734 0.000297773) 270
(0.00407622 -0.0919192 0.000277253) 3211
(-0.0624773 -0.0147613 0.00027643) 1821
(0.0122475 0.0199797 0.00027331) 1095
(-0.0225698 0.0225844 0.000289589) 1138
(0.0240395 -0.00949339 0.000271764) 257
(0.0289081 -0.025509 0.00032636) 1505
(-0.00144244 0.0894692 0.000277719) 3491
(0.00371001 0.0156987 0.000254163) 1101
(0.0157565 -0.000598475 0.000226179) 269
(0.0155519 -0.00606292 0.000262237) 261
(0.0126359 -0.0334583 0.000291915) 852
(-0.0242324 0.0240544 0.000284601) 532
(0.0141945 -0.0209056 0.000265036) 856
(0.0442156 -0.0153616 0.000297081) 1522
(-0.0106648 0.0199406 0.000264931) 1127
(0.0106042 0.0459485 0.000263075) 2362
(-0.0198244 -0.0357102 0.000280382) 2073
(-0.0749315 0.0253426 0.000311535) 1808
(0.000538039 0.102605 0.000269295) 3494
(-0.0170441 0.0411237 0.00027349) 2386
(0.0291381 0.024831 0.000287893) 1553
(-0.0218383 0.0400818 0.000262599) 2386
(-0.0251161 -0.0396018 0.000308466) 2066
(0.0286912 0.0192003 0.000280298) 300
(0.0157579 0.0010957 0.000240776) 269
(-0.0078551 -0.0683301 0.000287661) 2086
(-0.00965543 -0.0218027 0.000246267) 816
(-0.0162068 0.0332279 0.000292088) 1475
(0.000311792 -0.093912 0.000277282) 3212
(-0.0306117 0.0144426 0.000274882) 540
(-0.0162725 0.0307214 0.000296867) 1132
(0.0252726 -0.0530176 0.000309168) 2108
(0.0168158 -0.0224166 0.000284296) 857
(-0.0298039 0.0133176 0.000294409) 539
(-0.0270136 -0.026558 0.000319688) 1406
(-0.0215481 0.0108037 0.000283674) 536
(-0.039949 -0.0163521 0.00027655) 1825
(0.0559573 -0.00256136 0.000262364) 1532
(0.0194625 -0.00940164 0.000255678) 255
(-0.000344544 0.0748742 0.000261876) 2375
(-0.00404281 -0.0156645 0.000312173) 821
(0.029491 0.0239423 0.000284848) 1371
(-0.0242183 0.0241648 0.000312447) 532
(-0.0195747 0.0195688 0.000241067) 529
(-0.0641671 -0.0359808 0.000297875) 1831
(0.0477672 0.00134215 0.000257267) 1530
(0.0146031 0.0127044 0.000233368) 293
(-0.0160631 -0.00445349 0.00027463) 558
(0.0145906 0.0318654 0.000286631) 1100
(0.0115184 -0.0266712 0.000282871) 850
(-0.0698972 -0.0156832 0.000273178) 1823
(0.022533 -0.000892898 0.000282811) 272
(-0.0444213 0.0180703 0.000254048) 1794
(0.00575118 -0.0507418 0.00028457) 2099
(0.0158414 0.0356055 0.000301211) 2353
(0.0287745 -0.0113019 0.000262862) 258
(0.018311 0.0376398 0.000279408) 2353
(-0.0220072 0.041133 0.000308851) 2386
(-0.00422599 0.0376503 0.000258045) 1473
(-0.0354091 0.0170506 0.000287835) 1793
(0.00674027 0.0168846 0.000321485) 1094
(-0.0267347 0.00823882 0.000296325) 545
(0.0414628 0.0236969 0.00025646) 1546
(0.0147022 0.0225716 0.000267916) 1089
(0.0168437 0.0241391 0.000252603) 1090
(-0.00895898 0.0617647 0.000252724) 2381
(0.0109344 0.0274043 0.000294207) 1098
(-0.00210505 0.0782322 0.000275044) 2376
(-0.0110588 0.0613432 0.000265137) 2381
(0.0237333 -0.0283884 0.000281012) 1441
(-0.00751058 0.0205617 0.000302204) 1119
(0.00316087 -0.0325495 0.000265933) 835
(0.00454281 -0.0222782 0.000306435) 840
(-0.0520273 -0.0271488 0.000285766) 1828
(0.0187628 -0.00495843 0.000856642) 263
(-0.021778 -0.0204312 0.000241804) 578
(0.000613411 0.0337843 0.000292226) 1116
(-0.00470821 -0.0156185 0.000262767) 821
(-0.036954 0.0171358 0.000283394) 1793
(-0.045489 -0.0203687 0.000241526) 1827
(-0.0227183 -0.0375188 0.000263732) 2074
(0.0167842 0.0213235 0.000251605) 1089
(0.0180574 -0.0225286 0.000273353) 857
(-0.0470937 -0.0223588 0.000271348) 1827
(-0.0193201 -0.042398 0.000257125) 2074
(0.00618437 -0.0920192 0.000247823) 3211
(-0.0631184 0.00709546 0.000281746) 1813
(0.0173818 0.0376111 0.000265713) 2353
(-0.01598 -0.0295942 0.000310072) 820
(0.0238618 0.000544459 0.00027379) 272
(0.0166573 0.0385232 0.000232961) 2353
(-0.0117717 0.0480711 0.000261576) 2379
(-0.023045 -0.0226207 0.000257565) 579
(0.0139365 -0.0369303 0.000279974) 2105
(-0.0365311 0.0169735 0.000272555) 1793
(0.0217842 -0.0158011 0.000280855) 249
(-0.0226243 0.0226405 0.000311777) 1139
(-0.0323097 -0.0148872 0.000292802) 572
(-0.0144882 0.0146203 0.000281801) 1134
(0.0156892 -0.00360018 0.000233536) 261
(0.0123363 0.0265554 0.000281711) 1098
(-0.0961591 0.00698557 0.000271741) 2933
(-0.0290583 -0.00623224 0.000282415) 562
(0.00233238 0.0383221 0.000291266) 2369
(-0.0448093 0.0193346 0.00027987) 1795
(0.00194345 -0.0891953 0.000262454) 3211
(0.0339228 0.0168474 0.000257424) 1370
(-0.0479008 0.0238948 0.000257192) 1795
(-0.0251645 -0.0247029 0.00027379) 580
(0.00826286 -0.0159415 0.000283898) 846
(-0.00434968 -0.0156425 0.000298496) 821
(-0.0148178 0.0406401 0.000259758) 2385
(-0.0147584 0.0179017 0.000257702) 1135
(0.0157453 0.0368491 0.000277183) 2353
(-0.00284918 0.0435873 0.000244317) 2370
(-0.0240189 -0.0954446 0.00029655) 3205
(0.0213382 -0.0434138 0.000277417) 2106
(-0.002307 -0.0218022 0.000295727) 831
(0.0182908 -0.00896518 0.000290203) 255
(-0.0174486 -0.00690284 0.000306094) 566
(-0.0382375 0.0171763 0.000251154) 1793
(-0.0253168 -0.024909 0.000285198) 580
(-0.0323436 -0.0149756 0.000268225) 572
(0.017788 -0.0159804 0.000285296) 247
(0.0293776 -0.0109084 0.000234031) 259
(0.0412564 0.0145205 0.000297531) 1546
(-0.0227279 -0.0380548 0.000269544) 2074
(-0.00228324 -0.100092 0.00027422) 3214
(0.0572502 -0.000280438 0.00027467) 1532
(-0.0190052 0.0402838 0.000256828) 2386
(-0.0202737 -0.0314728 0.000301352) 1435
(0.000660154 -0.0871866 0.00028897) 3210
(0.0393733 0.000768653 0.000235936) 1529
(0.0235421 -0.00916584 0.000301096) 256
(-0.000724414 -0.0607248 0.00027607) 2093
(0.020376 0.011164 0.000259229) 288
(-0.0118302 0.0293837 0.000280418) 1131
(0.0480012 -0.0005134 0.000315628) 1530
(0.00300497 -0.0863363 0.000325219) 3210
(-0.0256682 0.025668 0.000302461) 1400
(-0.0638076 0.004259 0.000281837) 1813
(-0.0224796 -0.0380153 0.000280098) 2074
(-0.0838533 -0.00118611 0.000297193) 2929
(-0.0212619 0.0371366 0.000273564) 2385
(0.0226098 0.0117591 0.000270399) 288
(-0.0643117 0.00725376 0.000304594) 1805
(0.0301197 -0.0241291 0.000278784) 1505
(-0.0751888 0.000994483 0.000269702) 1815
(-0.0189036 -0.0440288 0.000255625) 2074
(0.0135167 0.0367177 0.000249006) 2353
(-0.0242558 0.0101056 0.000296784) 537
(0.0153773 0.0234118 0.000287374) 1089
(0.0291482 0.0129153 0.000283265) 291
(0.00847625 -0.0495842 0.000261069) 2099
(0.0165287 -0.0436776 0.00028406) 2106
(-0.0256681 0.025668 0.000268939) 1400
(-0.0123652 0.0550975 0.000289327) 2380
(0.0211854 0.0235833 0.000296737) 1091
(-0.0167835 -0.0298989 0.000281468) 820
(-0.0256854 -0.0434193 0.000253285) 2075
(0.0210423 0.027264 0.000287885) 1092
(0.00386552 0.0460134 0.000260698) 2370
(0.00876151 -0.0572645 0.000255766) 2100
(-0.0182332 -0.0396504 0.000277755) 2074
(0.000644887 -0.0873751 0.000304579) 3210
(0.0173046 0.0238973 0.000297464) 1090
(0.0139969 0.0341375 0.00028866) 1471
(-0.0219584 0.0401051 0.000271056) 2386
(0.0176145 0.00909767 0.000292164) 286
(-0.0422546 -0.0212215 0.000263122) 1826
(-0.0397176 0.0179587 0.000253089) 1794
(0.0333197 0.00119228 0.000306096) 276
(-0.0407959 -0.0205365 0.000272495) 1826
(-0.0190691 -0.0319675 0.000279803) 1436
(0.0397894 -0.0138707 0.000273056) 1521
(0.0294601 0.0192202 0.000284849) 300
(-0.0895828 0.00112421 0.000289241) 2931
(0.0111131 -0.0150439 0.000267189) 853
(0.0145483 0.022306 0.000294428) 1089
(-0.0228916 -0.0224284 0.000290823) 579
(0.0235462 0.0273877 0.000316804) 1470
(-0.0960673 -0.00384431 0.000264563) 2933
(-0.00225982 -0.0196773 0.000431192) 831
(-0.000584057 -0.09789 0.000271301) 3213
(-0.0231801 0.0229727 0.000275582) 531
(-0.0353898 0.00399897 0.000294716) 548
(-0.083427 0.00319284 0.000285092) 2929
(-0.0425296 0.0216378 0.000276479) 1794
(-0.00629916 -0.044537 0.000316003) 2082
(0.000609181 0.090498 0.000264326) 3491
(-0.0381606 -0.0153788 0.000272056) 1825
(-0.00812673 0.0617678 0.000265427) 2381
(0.0248873 -0.025511 0.000274201) 860
(-0.106149 -0.000557412 0.000269434) 2936
(-0.0152913 0.0264564 0.000289206) 1130
(0.0333796 -0.0117143 0.000283888) 268
(-0.0168376 -0.0302318 0.000243388) 820
(-0.00693944 -0.0177356 0.000282987) 822
(-0.000131318 -0.0561017 0.000278729) 2092
(0.0288675 0.018055 0.000261811) 292
(0.0152644 0.00888651 0.000266739) 285
(0.0165996 0.0241209 0.000291718) 1090
(-0.022644 -0.0217377 0.00027795) 578
(-0.050112 -0.0187969 0.000246975) 1827
(-0.0820855 0.000811511 0.000280671) 2929
(0.0133532 0.0335207 0.000266629) 1100
(0.0141133 -0.0616321 0.000290032) 2101
(-0.02205 0.0527427 0.000308958) 2388
(-0.0258388 -0.0254834 0.00030222) 1406
(0.00236649 0.0617644 0.000257938) 2373
(0.00818111 0.0215176 0.000268047) 1096
(-0.0356879 0.0172488 0.000304833) 1793
(-0.081759 0.00109613 0.000276591) 1816
(-0.0217021 -0.00168385 0.000293395) 551
(0.0170865 0.0932046 0.000314442) 3484
(-0.0238231 0.0236272 0.0002561) 531
(0.0144425 -0.037352 0.000301439) 2105
(0.0237445 -0.0249367 0.000264821) 860
(-0.0397258 -0.015855 0.000300361) 1825
(-0.00315419 0.0188104 0.000277818) 1118
(-0.0226351 -0.0216004 0.000290127) 578
(-0.0644053 0.00736617 0.000305629) 1805
(-0.0249463 0.0094241 0.000285179) 537
(0.0171491 -0.0223841 0.000291529) 857
(0.00199111 0.0167991 0.000382185) 1110
(0.0231267 0.0269213 0.000279197) 1092
(-0.024108 0.0241786 0.000279338) 1140
(0.0105 0.0370342 0.000302307) 2361
(0.0354527 0.014117 0.000290177) 1370
(-0.0162632 -0.0262256 0.000293213) 818
(0.00839579 0.0221524 0.000280696) 1096
(0.0404523 0.0166252 0.000273979) 1546
(-0.0164306 0.000660112 0.000297696) 550
(0.0171657 0.0442495 0.000296916) 2354
(0.0057044 0.0214218 0.000254076) 1103
(0.0209562 0.026783 0.000253172) 1092
(-0.0178767 0.00428241 0.00023574) 542
(0.0142631 -0.0287535 0.000265636) 851
(0.0414971 -0.0145832 0.000306957) 1514
(0.0417395 -0.0154224 0.000270931) 1514
(-0.0404577 -0.0209342 0.000315985) 1826
(0.031406 0.00283829 0.000302559) 275
(-0.108426 -0.00129785 0.00297697) 2936
(-0.041678 -0.0184746 0.000275612) 1826
(-0.0242669 -0.0412166 0.000255426) 2074
(-0.00518707 -0.0877393 0.000268866) 3210
(-0.025702 -0.0256461 0.000261184) 1406
(-0.0328356 -0.0149525 0.000284909) 572
(-0.0872556 -0.00799409 0.000262505) 2930
(-0.0529744 0.0297305 0.000281486) 1797
(0.0125651 0.0292855 0.000283209) 1099
(-0.00513595 0.0244975 0.000304948) 1121
(0.0596013 0.0017726 0.000257964) 1533
(-0.0618637 0.00873019 0.000276644) 1805
(0.0292963 -0.0211227 0.000285619) 1365
(-0.0239578 0.0441081 0.000310604) 2387
(-0.0417236 0.0173868 0.000252004) 1794
(0.0181837 0.00873027 0.000322019) 287
(0.0282204 0.000595527 0.000264988) 274
(-0.0765575 0.00275217 0.000261931) 1816
(0.0106572 -0.0594964 0.000268769) 2101
(0.0478408 -0.000613226 0.000292504) 1530
(0.0290128 -0.0175134 0.000272632) 260
(-0.0240019 0.0239631 0.000256983) 531
(0.0157436 0.0334192 0.000289985) 1471
(0.0203858 -0.00975481 0.000262695) 255
(-0.0259094 -0.00365368 0.000236519) 561
(-0.0215449 -0.0581605 0.000249591) 2077
(-0.00100969 0.0304597 0.000266111) 1114
(-0.00102851 -0.0568382 0.000318509) 2092
(-0.0521495 -0.0242168 0.000270096) 1828
(-0.0143626 0.0381762 0.000266661) 2385
(0.0224495 -0.0248274 0.000271894) 859
(0.00344112 -0.0164084 0.000269243) 838
(0.0412953 0.0179253 0.000273058) 1546
(-0.0198935 -0.028488 0.000314357) 812
(0.0568589 -0.00251324 0.000276818) 1532
(-0.0457617 -0.0206467 0.000278745) 1827
(-0.00679139 -0.0177837 0.000284516) 822
(-0.0226824 0.0225854 0.000286112) 531
(0.0219415 -0.0243429 0.000278549) 859
(0.0252411 -0.0260173 0.000299085) 1441
(0.0231794 -0.0248653 0.000294987) 860
(0.0114685 0.0209723 0.000266372) 1096
(-0.0257438 -0.025599 0.000283109) 1406
(-0.0178128 -0.0178182 0.000273125) 807
(-0.0211234 0.0209578 0.000291425) 530
(-0.0472358 0.0231466 0.000287281) 1795
(-0.0374103 -0.0142654 0.00028493) 1825
(-0.0845066 0.000171065 0.000288467) 2929
(0.00912004 -0.0594751 0.000272616) 2101
(0.0045047 0.102563 0.00028111) 3494
(0.0157544 -0.00186996 0.000297436) 269
(-0.0785626 0.00583552 0.000277111) 1816
(-0.00832306 0.0676101 0.00028057) 2382
(-0.0148444 -0.0303118 0.000293133) 820
(-0.10306 0.00449937 0.000298232) 2935
(0.0399512 0.0162752 0.000292602) 1545
(0.0574952 -0.00433225 0.000277074) 1532
(0.0375791 -0.0162868 0.000270707) 1513
(0.0334291 0.014913 0.000257127) 1370
(-0.0180298 0.042697 0.000280448) 2386
(0.055622 -0.00131234 0.000289758) 1532
(0.0125231 0.0563808 0.000288512) 2364
(-0.0794892 -0.00165589 0.00029047) 1816
(-0.0212668 -0.0367789 0.000264106) 2073
(-0.00369337 -0.0316372 0.000264184) 827
(0.0329222 0.0165609 0.000285418) 1370
(0.0224406 -0.0247178 0.00028322) 859
(-0.0329546 -0.0146487 0.000314158) 572
(-0.025668 0.0256679 0.000265784) 532
(-0.0475082 0.0224971 0.000231224) 1795
(-0.023628 -0.0238023 0.000266356) 811
(-0.0211685 -0.00763571 0.000267583) 559
(-0.0167338 -0.0139779 0.000261617) 574
(0.0385492 -0.0159418 0.000265612) 1513
(-0.0165691 -0.032504 0.000245903) 1436
(0.0234837 0.00996609 0.000281926) 288
(-0.014977 0.0201919 0.000263393) 1136
(0.0179757 -0.0159702 0.000275212) 247
(0.0171598 -0.0338882 0.000301759) 1440
(-0.00390983 -0.0973389 0.000294001) 3213
(0.00490746 -0.106667 0.000287747) 3216
(0.00117573 -0.0361678 0.000270406) 1438
(0.00185211 0.102458 0.000263934) 3494
(-0.0216917 -0.00152214 0.000288806) 551
(-0.0333241 -0.0139553 0.000275467) 1405
(-0.0198409 0.0365541 0.000298263) 2385
(-0.02575 -0.0256479 0.000290539) 1406
(0.0110768 -0.0160911 0.000253508) 854
(0.0354633 0.0191379 0.000286325) 1545
(0.000827323 0.0732492 0.000279875) 2375
(-0.0157915 0.00155252 0.000280418) 549
(-0.00146302 -0.0531813 0.000269214) 2091
(-0.0203963 -0.0185729 0.000274414) 577
(-0.0406003 -0.0216241 0.000291533) 1826
(-0.012182 -0.0254531 0.000290806) 817
(0.057339 -0.00355016 0.000304808) 1532
(-0.0246037 -0.0502813 0.000280536) 2076
(0.0232645 -0.0448165 0.000283063) 2107
(-0.0226001 0.0225973 0.000275609) 530
(-0.046977 -0.0207429 0.00027635) 1827
(-0.004225 0.0377052 0.000264873) 1473
(-0.00139375 0.0356898 0.000252688) 1116
(0.0168676 0.0393008 0.000281501) 2353
(-0.04043 0.0198047 0.000282017) 1794
(-0.034168 -0.0165741 0.000288204) 1405
(-0.0345746 0.0167384 0.00026147) 1793
(0.00358129 -0.10477 0.000261984) 3215
(-0.0408633 -0.0217255 0.000286947) 1826
(0.00961958 0.0510452 0.000272006) 2363
(0.0023707 0.0785366 0.000292375) 2376
(-0.0159845 -0.0026832 0.000276872) 558
(-0.0502178 -0.0221928 0.000265503) 1828
(-0.0340944 0.0167005 0.000305543) 1401
(0.0187023 0.0252526 0.000264662) 1091
(-0.0198172 -0.036894 0.000279065) 2073
(0.00446102 0.0176503 0.000275445) 1102
(-0.00703512 0.0535818 0.000266459) 2379
(-0.0609082 -0.0285131 0.000267609) 1830
(0.0249026 0.0119615 0.00027498) 289
(-8.09345e-05 0.0890352 0.00028837) 3490
(-0.0226636 0.0226237 0.000293321) 531
(-0.0256679 0.0256681 0.000284256) 1476
(-0.027132 -0.0271568 0.000297059) 1435
(0.0203762 0.0271429 0.00031527) 1092
(0.0125446 -0.0265489 0.000253151) 850
(0.0422738 -0.0131934 0.000262728) 1522
(-0.00141829 -0.0218158 0.000357435) 831
(-0.00684369 -0.017786 0.000284063) 822
(-0.00159753 0.102533 0.00029158) 3494
(-0.0271311 -0.0271573 0.000302547) 1435
(-0.0198421 0.0495132 0.00025573) 2387
(0.0189991 0.0378217 0.000264425) 2353
(-0.0254645 -0.0250058 0.00030447) 580
(0.0155766 0.00631066 0.000247614) 277
(-0.0574894 0.00916559 0.000287376) 1804
(0.0425648 -0.0142445 0.000275762) 1522
(0.000448047 0.0177865 0.000295744) 1110
(0.0182368 -0.0428149 0.000260102) 2106
(-0.0228593 -0.0224054 0.000263335) 579
(-0.0245304 0.0438284 0.000313473) 2387
(0.0216141 0.0289278 0.000313233) 1470
(0.00584189 -0.0517445 0.000277392) 2099
(0.000525714 0.0746177 0.000258779) 2375
(-0.0218025 -0.0207151 0.000301606) 578
(0.0596071 -0.000699445 0.000279739) 1533
(0.0171948 -0.0341321 0.000297021) 1440
(0.0223602 -0.0448974 0.000242436) 2107
(-0.0809597 0.000146795 0.000260413) 1816
(-0.000790609 0.056848 0.000290889) 2372
(-0.0208327 0.0491772 0.000257897) 2387
(-0.0162597 0.00425793 0.00028065) 542
(-0.00158641 -0.0220013 0.000280173) 832
(-0.0517369 -0.0211329 0.00028484) 1828
(0.0348104 -0.0121738 0.000284447) 1367
(-0.0010873 -0.0931185 0.000256792) 3212
(-0.0182824 -0.0363634 0.000274732) 2073
(0.0107993 0.0568496 0.000273499) 2364
(0.034712 -0.0113562 0.000297041) 1367
(0.0298862 0.0236906 0.00026415) 1371
(0.0372077 -0.0184018 0.000293882) 1513
(-0.0833344 -0.000193276 0.00025571) 2929
(-0.0268097 -0.0264129 0.000262231) 1406
(-0.064831 0.0264236 0.000289577) 1798
(-0.0493645 0.0194814 0.000268804) 1795
(0.0257901 -0.0289994 0.00031851) 2113
(-0.0286083 0.0603319 0.000274569) 2390
(-0.0567568 0.00638559 0.000316064) 1812
(0.0185751 -0.000107903 0.000272343) 270
(0.0172033 0.0248654 0.000290516) 1090
(0.0438896 0.0152825 0.000292028) 1538
(-0.0817358 0.00327522 0.000253104) 1816
(-0.0171961 0.0303216 0.000274154) 1132
(0.0487521 0.00348029 0.000265847) 1531
(0.0300164 -0.023777 0.00026425) 1505
(-0.00623012 0.0550901 0.000265527) 2380
(0.0157807 0.0435686 0.000291303) 2354
(0.0107884 -0.0296784 0.000282757) 851
(-0.0165439 0.0338282 0.000298387) 1475
(-0.00253465 -0.056925 0.000304195) 2092
(-0.0460069 0.0207915 0.000287381) 1795
(-0.0241709 -0.00394444 0.000260926) 560
(0.0439155 0.0156537 0.000273029) 1546
(-0.0246222 0.0243884 0.000287082) 532
(-0.0666647 0.00416427 0.000284535) 1814
(-0.0300802 0.0138322 0.000263577) 539
(-0.103004 0.00591774 0.000288286) 2935
(-0.0490743 0.0246356 0.000242919) 1796
(-0.059291 0.0260737 0.00027304) 1797
(0.0303503 0.0161057 0.000287803) 292
(0.0246253 0.0256433 0.000265928) 1092
(0.0168785 0.0240501 0.000252012) 1090
(0.0272416 0.0628956 0.000285697) 2358
(-0.0207766 0.0380246 0.0002712) 2385
(-0.003806 0.0332434 0.000293439) 1123
(0.0182997 -0.00475671 0.000262918) 262
(-0.0367103 0.0169447 0.000279146) 1793
(0.0260579 -0.0269643 0.000271482) 1441
(-0.0338474 0.0161384 0.000303372) 1401
(-0.102724 0.00178905 0.0002744) 2934
(-0.0855013 0.00615035 0.000316394) 2929
(-0.0208895 -0.0285106 0.000278538) 812
(0.0259422 -0.0212713 0.000291679) 251
(-0.0160891 -0.00286602 0.00030811) 558
(0.0362597 -0.0126943 0.000294686) 1366
(-0.000201878 0.0736425 0.000275668) 2375
(0.0185746 0.025347 0.000285684) 1091
(0.0244283 0.0502849 0.000311118) 2356
(0.00050294 0.102571 0.000280386) 3494
(-0.00336036 -0.0281393 0.000263721) 826
(0.0157605 0.00100706 0.000268692) 269
(0.0166618 -0.0224979 0.000299555) 857
(0.0595996 -0.00133065 0.00026872) 1533
(0.00317908 0.0371078 0.000239149) 1473
(0.0185842 -0.0225127 0.000269376) 858
(-0.00625981 -0.0570324 0.0002348) 2092
(-0.0438119 -0.0225073 0.000278187) 1827
(-0.0172786 -0.0289793 0.000285473) 819
(0.0232991 0.0106724 0.000287624) 289
(0.0206062 0.0268856 0.000290735) 1092
(-0.00453577 -0.0994165 0.000289532) 3213
(0.0421363 -0.0147592 0.000300213) 1514
(0.0302998 0.0233802 0.0003112) 1553
(0.0242592 0.0100546 0.000252688) 289
(-0.0191931 -0.0307299 0.000280333) 820
(-0.047254 0.0246632 0.000261983) 1795
(-0.0662866 0.0074099 0.000286006) 1814
(-0.0219383 0.00261339 0.000276619) 552
(-0.0026297 -0.060039 0.000239594) 2093
(0.022874 0.0109549 0.000274793) 288
(0.00170459 0.017487 0.000282267) 1110
(-0.0434528 0.0221725 0.000304409) 1795
(0.0328126 0.0201385 0.000302127) 1545
(0.0167882 0.0240451 0.000289551) 1090
(-0.0256679 0.0256681 0.000293325) 1476
(0.0396612 0.0138022 0.000281245) 1537
(-0.0647386 -0.0369483 0.000297039) 1831
(-0.000164997 0.102501 0.000265231) 3494
(-0.0960567 -0.00545382 0.000277355) 2933
(0.0355438 -0.0139137 0.000279498) 1366
(0.0265574 0.0208933 0.000298478) 300
(0.0116523 -0.038429 0.000258712) 2097
(-0.0260514 0.00648849 0.000284504) 545
(-0.0323534 -0.0149872 0.000260308) 572
(0.00121028 0.0961271 0.000295932) 3493
(0.00463457 -0.0166351 0.000248583) 838
(0.039325 -0.0170142 0.000281546) 1513
(-0.00576657 0.0960523 0.000297612) 3492
(0.0182676 -0.0079872 0.000650902) 254
(-0.0577086 -0.01194 0.000263058) 1820
(-0.0223985 -0.0347537 0.0002977) 2065
(-0.0227475 -0.0431684 0.000310314) 2075
(0.0039659 0.0715828 0.000244689) 2375
(0.0209148 0.0271061 0.00027719) 1092
(0.00304262 0.0530988 0.000279761) 2371
(-0.0217768 0.0400009 0.000265106) 2386
(0.0130255 0.0198349 0.000302179) 1096
(0.0103309 -0.0511227 0.000267977) 2099
(-0.0171805 -0.0274189 0.000257114) 819
(-0.0028427 0.0189087 0.000276083) 1119
(0.0317296 -0.0216213 0.000292948) 1505
(0.0198267 -0.038603 0.000287463) 2105
(0.0211827 0.0272702 0.000288959) 1092
(0.00884763 -0.0238716 0.000298736) 849
(-0.000955908 0.0749423 0.000271297) 2375
(0.00350448 0.0180189 0.000285187) 1102
(-0.0581157 0.0103393 0.000285143) 1804