/*--------------------------------*- C++ -*----------------------------------*\
| =========                 |                                                 |
| \\      /  F ield         | OpenFOAM: The Open Source CFD Toolbox           |
|  \\    /   O peration     | Version:  plus.master                           |
|   \\  /    A nd           | Web:      www.OpenFOAM.com                      |
|    \\/     M anipulation  |                                                 |
\*---------------------------------------------------------------------------*/
FoamFile
{
    version     2.0;
    format      ascii;
    class       vectorField;
    location    "14/lagrangian/kinematicCloud";
    object      U;
}
// * * * * * * * * * * * * * * * * * * * * * * * * * * * * * * * * * * * * * //


96597
(
(0.00193871 -0.00285254 0.00127963)
(-0.000653846 0.000350967 -0.000704047)
(-8.35158e-05 -2.89062e-05 -0.000272075)
(-0.000232086 0.000773057 0.000634517)
(-0.000296544 1.16544e-05 -0.00317149)
(0.000156862 0.000398723 -0.000725684)
(-0.000409745 0.000514415 -0.000186604)
(-0.000174979 0.00118645 0.000798161)
(-0.000757545 -0.000740148 0.000642238)
(-7.18533e-05 -6.67267e-05 -0.000307805)
(-0.000529728 -0.000162215 -0.00163973)
(-0.000484871 -3.68322e-05 0.000155424)
(0.00238581 -0.000693385 -0.00070892)
(-0.000781326 6.19777e-05 0.00065584)
(-0.00027626 6.18665e-06 0.000673593)
(0.00035182 -0.000642076 0.000559063)
(-0.00128717 0.000520426 0.00135335)
(0.000139215 0.000141226 -0.000373558)
(-0.000756576 3.57083e-05 0.000582772)
(-0.000345366 -7.16831e-05 0.000192902)
(0.000104363 -0.000214126 0.00462997)
(-2.82286e-05 0.000299264 0.000643979)
(0.000289525 0.000449323 0.00059289)
(0.000595002 0.000533373 -0.000392097)
(-0.000678101 0.000352107 0.000710372)
(0.000192443 0.000303381 0.000191164)
(-7.40149e-05 1.53264e-05 -0.00283164)
(-2.34583e-05 0.000598158 -0.00154474)
(0.000267646 0.00043574 -0.00197279)
(-0.000465624 5.57885e-05 -0.000663711)
(0.000535006 -0.000596593 -0.00358498)
(-0.000578697 0.000203869 -0.000636385)
(0.000639879 -0.00038144 -0.00400365)
(0.000226165 -0.000249689 0.000970666)
(-5.21717e-05 -0.000216344 0.000100683)
(-0.000659427 -5.98328e-05 -0.000794818)
(-0.000101108 -0.00014617 -0.00062612)
(-7.84692e-05 2.55217e-05 -0.00110929)
(0.000463212 0.000396751 -0.000412657)
(-6.66753e-07 -2.72776e-05 -0.000850614)
(-0.000684414 0.000547413 0.000829033)
(0.000152936 0.000655834 -0.000972051)
(-0.00026677 -0.000412936 -0.00170568)
(0.000431447 -0.000136022 -0.0007032)
(-3.3731e-05 -0.000865847 -0.000350396)
(-0.000593127 0.000128755 0.000520074)
(-8.01375e-05 3.95078e-05 -0.00540709)
(-0.000586741 -0.0015563 -0.000408274)
(0.000128593 0.000520376 -0.000713249)
(0.000399521 -0.0010655 -0.000906392)
(-0.000504662 0.000155605 -0.000309753)
(0.000288166 -0.00099424 -0.000192198)
(-0.00098556 0.000303305 0.000498878)
(-0.000221737 0.000240098 -0.000707043)
(-0.000661295 0.000249195 0.000555138)
(-0.000677863 -0.000659418 -0.00069525)
(-0.000953911 -0.00026783 0.000499941)
(-0.000298862 -0.000204788 -0.00232679)
(-2.96115e-05 -0.000102895 -0.000439995)
(-0.000655857 -0.000298793 0.000410686)
(-0.000508156 9.9407e-05 -0.000291495)
(-0.000626212 0.000223161 0.000589277)
(-0.000825591 -0.000101096 -0.000710771)
(1.30393e-06 -0.000538022 0.00064891)
(-0.000742474 0.000313367 -0.00269425)
(0.000198754 0.000352371 0.000141703)
(-1.67435e-05 0.000602112 0.000580177)
(-0.00204122 -0.00672921 -0.00182755)
(-0.0002203 1.47137e-05 -0.00035738)
(-0.000535957 0.000124217 -0.000409551)
(-0.00100736 0.000293549 -0.000866324)
(-0.000702306 -0.000166983 0.000677938)
(-0.000744519 -0.000477112 -0.000182315)
(-0.000506053 -0.000493213 1.14287e-06)
(-0.000467941 -0.000490511 -0.000290714)
(-0.000385668 0.000221899 -0.00186016)
(-0.000120077 1.96514e-06 0.00522143)
(0.000957542 -0.000388313 -0.00027213)
(-0.00047985 -0.00034043 -0.000447071)
(-0.000538663 -0.000211404 -0.000428715)
(-0.000168598 -0.000352431 -0.00144929)
(0.00021579 0.000384874 -0.00034655)
(0.000687623 -0.000205028 -0.000969731)
(-0.000793158 -0.000249251 -0.000615767)
(0.000490512 -0.000727058 -0.00284483)
(-0.000136952 -8.87261e-05 0.00362939)
(-0.000776702 9.55269e-05 0.000200323)
(-9.09548e-05 -3.05912e-05 -0.00108556)
(0.00257133 -0.00210213 -0.000245429)
(0.00140769 -0.00027178 -0.00231011)
(-0.000376856 -0.000921468 -0.000386035)
(-0.000939854 -0.00600118 -0.000903742)
(-0.000510628 0.000408452 -0.000394773)
(3.01049e-06 0.000651227 0.000210813)
(-0.0010836 0.000663306 -0.000586652)
(2.61769e-05 0.000126659 0.0012426)
(-0.000699489 -4.203e-05 -0.00042726)
(-2.33456e-05 -6.3477e-05 0.0006026)
(0.000425519 0.000168589 -0.000840331)
(-0.000450769 0.000381797 -0.00199629)
(0.000101669 -4.08462e-05 0.00036101)
(-0.000707461 -0.000400257 -0.00207068)
(-0.000318815 -2.73461e-05 0.00162114)
(-0.000528868 -4.15257e-06 -0.00535981)
(-0.00105103 -0.000196949 -0.00095904)
(0.000810173 -0.000212231 0.000305535)
(-8.25002e-05 2.28536e-05 -0.000415433)
(6.21766e-06 -0.000868329 0.000681867)
(-0.000162969 -8.69863e-05 -0.000880939)
(5.57095e-05 -0.000275071 0.000546077)
(0.000339515 -0.000186371 -0.00355538)
(-0.000614989 8.77642e-05 -0.000770345)
(-0.000228818 0.000335533 -0.000344301)
(-0.000906726 -0.000103159 -0.00290411)
(-0.000505369 -0.000167961 0.000124714)
(-0.00051217 0.000820109 -0.00050003)
(-0.000247589 -0.000629615 -0.00244217)
(5.96835e-05 0.000368979 -0.000618942)
(-0.00054603 0.00019848 -0.00231743)
(-0.000471088 0.000749236 -4.63011e-05)
(-0.000535546 1.38328e-05 0.000282735)
(-0.000281969 0.000735209 -0.000395551)
(-0.000661063 0.000317978 -0.000699035)
(0.000163698 0.000417066 -0.000732786)
(-0.000958701 0.000120963 -0.000202926)
(0.00093601 -3.04491e-05 -0.00118754)
(-0.000438267 4.30012e-05 0.00656295)
(-0.000143912 -0.000187838 0.00519781)
(-0.000596142 -0.000439026 -0.00137785)
(-0.000486961 2.03115e-05 0.000121594)
(-0.000821893 0.000411366 -0.000836468)
(-0.000562296 -0.000188954 -0.000720679)
(-0.000568183 -0.000366699 0.000604649)
(-0.000665578 -0.000373816 0.00112599)
(-0.00117381 0.000167559 0.000383547)
(-2.64964e-05 0.000584437 -0.000386715)
(-0.000526832 -0.000325891 0.000199339)
(-0.000305586 0.000737082 0.00140723)
(-9.19313e-05 2.55832e-05 -0.000568042)
(3.05578e-05 -0.000150262 0.00018476)
(2.64665e-05 -0.000122893 -0.00232229)
(-0.000447589 5.74897e-05 -0.00544631)
(0.000541216 0.000495113 -0.000764444)
(-0.000300158 -0.000553955 -0.000876729)
(-0.000979278 0.000293392 6.45897e-05)
(0.000746805 0.000773147 0.00256838)
(0.000120205 -3.80488e-05 -0.000411567)
(-0.000591376 -0.000104567 0.00060719)
(0.000179535 0.00028274 8.25233e-05)
(-0.000453244 0.000285762 -0.000665242)
(-0.000416997 0.000313861 0.000271666)
(-0.000212748 -0.0002623 -0.00281117)
(-0.000720761 5.23887e-05 0.000211866)
(-0.000558916 -0.00035976 -0.000353104)
(-0.000781544 0.000383688 0.00103198)
(0.000639413 -0.000103346 0.0040298)
(-0.00241599 -0.00216737 -0.00128762)
(0.000255486 0.000380916 0.000672157)
(-0.00070295 3.43412e-05 -0.00142626)
(-0.00139226 -0.00178034 -0.000122628)
(-0.000200318 0.00035726 0.000360006)
(-0.000771686 0.000631403 0.00220104)
(-5.75608e-05 -0.000691138 0.00136651)
(-0.000370569 0.00204957 0.000254223)
(-0.00114942 -0.00239231 0.000312045)
(0.000167697 1.56438e-06 -0.00195326)
(-0.0014663 -0.00318473 -0.00323089)
(-0.00025402 0.00296328 -0.00580714)
(0.000223692 0.00094163 -0.0015923)
(-0.000895607 0.000451308 -0.00296166)
(-0.00120314 -0.00246583 -0.000635191)
(0.000144705 -0.000174474 -0.000128174)
(-0.000557028 0.000168737 -0.00131821)
(-0.00201971 8.92955e-05 -0.00084803)
(0.000413496 -0.00158557 0.00109307)
(-0.000169931 0.000736421 0.000126278)
(-0.000475343 -0.000105677 -0.00189346)
(-0.000115654 5.65231e-05 0.00417497)
(0.000413664 0.00037467 0.00287324)
(-0.000180163 8.8944e-05 0.00245309)
(0.00392053 -0.000427212 -0.000602938)
(0.000596712 -0.000170528 0.0015545)
(0.000654452 -0.000182873 -0.000607491)
(0.000664373 0.000631747 -0.000783285)
(-2.49354e-05 -5.16947e-05 -0.000599826)
(-0.000418851 0.000308932 -0.00553727)
(-0.000175339 -0.000167507 0.000283649)
(-0.000170364 0.000108107 0.000104632)
(5.40909e-05 0.00010149 -0.000465804)
(-0.000766651 0.000353493 -0.00388917)
(-0.00038927 0.000289308 -0.00600533)
(-0.000360359 -7.5683e-05 -0.000383161)
(-8.49672e-06 -3.16713e-05 0.00519253)
(-0.000190324 3.3606e-05 0.00243165)
(0.000291205 0.00010455 0.000607164)
(-0.000598276 0.00051102 -0.00266918)
(-8.83256e-05 -0.000653132 -0.00221316)
(-0.000465066 3.57685e-05 -0.00185475)
(-0.000512822 -0.000172768 -0.000833561)
(-0.000477689 -0.000473082 -3.89514e-05)
(0.000358094 -0.000375391 -0.0016645)
(-5.45498e-05 -0.00013764 0.000666593)
(-0.000664035 -0.000205374 -0.000914765)
(-0.000101128 0.000564761 -0.000466485)
(7.73722e-05 0.000625655 -0.000661362)
(-0.000717663 0.00044148 -0.00364154)
(-0.000216408 9.05853e-05 -0.00420112)
(-8.95667e-05 -4.92684e-06 -0.0020254)
(0.000179337 0.000452611 -0.00188731)
(0.000265715 0.000424883 0.000619831)
(-0.000117502 7.78582e-05 0.00519486)
(-0.000285988 -0.000238536 0.00550965)
(-0.00072087 0.000172215 -0.00120022)
(0.000243585 0.000405387 -6.44193e-05)
(-0.000121084 6.60402e-07 -0.00630519)
(0.000513627 0.000161919 -0.00373515)
(0.000494573 0.000234598 -0.00092577)
(0.000319056 0.000536272 0.000582998)
(-0.000256591 0.000119409 -0.0022536)
(3.68553e-05 3.18185e-06 -0.00240607)
(-0.000192894 -0.000342114 -0.00251933)
(0.000439487 0.00059609 0.00056975)
(-0.000274873 0.00148334 -0.000288166)
(-0.000609993 0.00030113 0.00138446)
(0.000393406 -0.00022981 -0.00454141)
(-0.000436581 0.000187173 -0.0020556)
(-0.000128864 0.000229577 -0.000180244)
(0.000240145 0.000383692 0.000658775)
(-0.000574686 -0.000205295 -0.00205568)
(0.000119176 -0.000209689 -0.00130563)
(-0.000511959 0.000170605 -0.000680061)
(-0.000485837 3.03538e-05 -0.00035952)
(-8.70112e-05 -0.000207216 -0.000690026)
(0.0063902 0.00611213 0.00468076)
(0.00435513 -0.000450814 -0.000797157)
(0.00368458 0.000924501 -0.000870747)
(-0.000500164 0.00059902 0.00058754)
(0.000732844 0.00019134 0.00486568)
(-0.00117978 0.000366891 0.00138081)
(-0.000515902 9.38181e-05 -0.0047914)
(-0.000299965 -0.000593916 -0.000542159)
(-0.000649782 -0.000304339 -0.000887693)
(8.21609e-05 0.000602229 0.00056355)
(0.000230202 -0.000296934 -8.7432e-05)
(-2.57164e-05 0.000575691 -0.00111343)
(-3.27695e-05 -5.48349e-05 -0.000820806)
(-0.000386777 0.000277293 -0.00456015)
(5.2676e-05 -0.000253634 0.000442429)
(-6.38325e-05 0.00154532 0.00400832)
(-0.000743839 5.39952e-05 -0.000719394)
(0.0042777 -0.000698345 -0.000402657)
(-2.85846e-05 0.000208989 -0.00407746)
(-2.01101e-05 0.000959285 0.00104583)
(7.5183e-06 -0.00100864 0.00128842)
(-6.70752e-05 0.000146097 0.000577737)
(0.000684433 -0.000435251 -0.00179731)
(0.000110122 -0.000745212 0.000230586)
(0.00401392 0.00267973 0.00020511)
(-0.000742469 0.000172934 -5.92806e-05)
(0.000714242 -0.000387654 0.000481185)
(0.000275648 8.30862e-05 -0.00011478)
(0.000828957 -9.33972e-05 -9.68468e-05)
(0.000607781 0.000582915 -0.00167272)
(-0.000278638 5.22571e-06 -0.000415867)
(-0.00135437 0.000948194 0.00152479)
(-8.57301e-05 4.90595e-06 -0.00165023)
(0.00263505 -0.00286251 -0.0010137)
(-0.000957344 8.44634e-05 0.00166385)
(0.000104654 -0.000294842 -0.00496484)
(0.000169962 -0.000214877 -0.0031504)
(-5.68088e-05 0.000464079 0.000864785)
(-0.00046378 1.97914e-05 0.000667804)
(0.0118741 -0.00217917 0.000818886)
(0.00259694 0.0016458 -0.000617367)
(-0.000539974 -0.000333019 -0.000136124)
(-0.000565078 0.000793356 -0.000362301)
(-8.78671e-06 0.000370709 0.000837833)
(-0.00107725 7.54256e-05 -0.000468325)
(0.000339388 -0.000125525 -0.000331419)
(-0.000169192 0.000419443 -0.00566489)
(-0.000728 -0.000737729 0.00059045)
(-0.000432631 4.4691e-05 0.0015037)
(-0.000855178 -0.000837372 0.000832656)
(4.55612e-05 -0.000230895 0.000589983)
(0.000232426 -0.00104809 -0.00124572)
(0.000773707 -0.000227621 -5.05748e-05)
(-0.00237015 -0.00776401 0.000150973)
(2.92805e-05 -0.000409164 -0.00175275)
(-0.000635932 -6.76654e-05 7.89901e-05)
(-0.000191096 -0.000232558 0.000508265)
(-0.000653738 -0.00012446 -0.000657736)
(0.000296164 -0.000239303 -0.000354351)
(-0.000531362 -0.000365921 -0.000901894)
(-7.21123e-05 -1.24606e-06 -0.00070151)
(0.000274279 -0.000226667 0.000584264)
(-0.000371841 0.000235161 0.000138592)
(0.00132483 0.000474556 -0.000879442)
(-0.000146641 0.000249081 -0.000822965)
(-0.000546281 0.000523439 -0.000403742)
(0.000115421 0.000443638 -0.000440431)
(-0.000856434 -6.09632e-05 -0.00174794)
(0.000416534 0.0006074 -0.000713563)
(-0.000374784 -0.000959603 0.000577167)
(0.00155175 -0.00338321 -0.0013943)
(0.000835035 -0.000252343 0.000643293)
(0.000164022 0.000351264 -0.000690448)
(0.000137286 0.000506346 0.000577745)
(-0.000830747 -0.000291501 -0.000701975)
(-0.00109283 0.000331775 -0.000168661)
(0.000203186 0.000462728 -0.000395741)
(0.000112092 0.0004182 -0.000679583)
(-0.000126813 0.000176559 -0.00050471)
(0.000183108 0.000120688 0.00205501)
(-0.000813014 -0.000791978 -0.00125836)
(-0.000553957 0.000450857 -0.00618381)
(-0.00141772 0.000246768 0.000408819)
(-0.000630191 -0.000604122 -0.000934086)
(0.000327419 0.000120029 0.00063399)
(0.000629716 0.000471305 -0.000337761)
(-0.000588207 0.00095401 -0.000722078)
(0.000744928 -0.000227471 -0.000345583)
(-0.000871188 0.000107364 -0.000602712)
(-0.00108351 0.00193963 0.000345314)
(0.000706475 0.000768162 0.000814344)
(-0.000453618 -0.00160453 0.00131491)
(0.00365751 0.000902455 -7.62086e-06)
(-0.000491779 -0.00035661 0.000356779)
(-0.000307441 2.84276e-05 0.000474692)
(3.70561e-05 0.000511441 0.00216905)
(0.000337255 4.8478e-05 0.000112677)
(0.000131837 0.000129927 -0.00547413)
(-0.000111362 1.50742e-05 -0.00246757)
(-0.00082142 -0.000114041 0.00056753)
(0.000245818 -0.000228696 -0.00118053)
(0.00044326 0.000160034 -0.000510795)
(-0.00124246 0.00245733 0.00113943)
(0.000123909 -0.0039892 -0.000741025)
(-2.6246e-05 -0.000236085 0.000508798)
(-0.000684137 -0.000594973 -0.00100502)
(-0.000932926 -0.000905523 -0.000654236)
(-7.06438e-05 2.21737e-05 -0.0013229)
(-0.000483263 5.72379e-05 0.000253529)
(-0.000291672 0.000367979 0.000433729)
(-9.53677e-05 0.000636747 -0.00258595)
(-0.00102944 -0.000695154 -0.0013517)
(0.0135026 0.00412268 -0.00208274)
(0.000745217 -0.000242325 -0.000217019)
(0.000589226 0.000238374 0.000872475)
(0.000559015 0.000607761 -0.000586137)
(-0.00113788 -6.64657e-05 0.000111298)
(-0.000529932 0.00019958 -0.000648697)
(-0.000330822 0.00010006 -0.001796)
(0.000163743 0.000596848 -0.00218144)
(-3.57588e-05 -0.000159443 1.19616e-05)
(-0.000307465 6.11261e-06 0.000594634)
(1.28476e-06 -0.000149819 -0.000695851)
(-0.00036681 0.00149956 0.00122769)
(-0.00012586 0.000207185 -0.000521354)
(-0.000736018 2.1976e-05 -0.000552426)
(-0.000513711 0.000154909 9.84125e-05)
(-0.000237436 0.000258089 -0.000921189)
(-0.000839733 0.000144021 0.00336857)
(0.000265071 -0.000975483 -0.000365783)
(-0.000530311 2.72358e-05 -0.000314307)
(-0.000211731 0.00031711 -0.00167786)
(5.50014e-05 -6.84723e-05 0.00661441)
(0.000195474 6.61436e-05 -0.000416129)
(0.000132575 0.000514245 -0.0018802)
(-5.55711e-05 -4.26492e-05 0.000598039)
(9.38264e-06 -0.000585648 0.000295112)
(-0.000413546 7.7153e-05 -0.000440542)
(-0.000139449 0.000166999 -0.000449246)
(-0.000666563 0.000127363 -0.00205948)
(3.94958e-05 1.13917e-05 -0.00111529)
(0.000110025 0.000404586 -0.000308001)
(-0.000567724 -0.000551146 0.00134196)
(0.00103097 -0.000435939 0.000600459)
(-0.00063743 -0.000290576 -0.000378738)
(0.000104724 -0.00107679 -0.00123847)
(-0.000497193 0.000400686 0.000418001)
(-0.000423662 0.000536585 -0.00315635)
(7.66349e-05 -8.36465e-05 -0.00514324)
(0.000375181 -0.000265683 0.0013485)
(-0.000542209 5.73101e-05 -2.20691e-05)
(0.000497635 0.000856385 -0.00246584)
(0.000179293 0.000440017 0.000571431)
(-0.000656864 -0.000181796 -0.00028783)
(-6.26791e-05 -0.000205848 0.000341136)
(-0.000463052 0.000396064 -0.00034994)
(6.56119e-05 0.000263037 0.000282971)
(-0.000135701 0.000228216 0.000564446)
(-0.000812482 -0.000119385 -0.000429194)
(-0.000433889 -0.000457682 0.000261492)
(9.07667e-05 -0.000387571 -0.00351106)
(-0.000301815 -2.43281e-05 -0.00194341)
(0.000239699 0.000401616 -0.000846984)
(0.000499122 -0.000139301 -0.000364868)
(-0.000227478 -3.77751e-05 -0.00573753)
(0.000380008 0.000607951 -0.00177175)
(0.000121753 0.00113204 -0.00365764)
(-0.000386648 8.34135e-05 -0.00576516)
(-0.000925936 4.62756e-05 -0.00218618)
(0.000168189 -5.10212e-05 -0.00172618)
(0.00315914 0.000365179 0.000341883)
(-0.000142955 -0.000227073 -0.00186324)
(0.000477566 0.000299679 -0.000300847)
(-0.000459013 0.000100298 -0.00387352)
(-1.70753e-05 0.000111783 0.00556349)
(-0.000678164 0.000652296 -0.00142762)
(-1.92914e-05 -4.45246e-05 -0.000673806)
(0.000508001 -0.000710877 0.00532014)
(0.00115129 -0.000120055 0.000660643)
(-3.50918e-05 -7.7744e-05 -0.000949562)
(0.000405858 -0.000150748 -0.000418752)
(0.000206262 0.000250983 0.000556325)
(-9.33797e-05 -0.000201591 -0.00068301)
(0.000701646 0.000656799 0.000796571)
(0.000257305 -0.000211705 0.000627826)
(-0.00049636 0.000347444 8.0721e-05)
(-0.000151567 -7.58392e-06 -0.000324566)
(0.000246592 -0.000775417 -0.000582905)
(-0.000151609 5.69176e-05 0.00314723)
(1.39219e-05 0.000780515 3.0089e-07)
(-0.000108119 0.000362253 0.00342451)
(-0.000182104 0.000324417 -0.000401223)
(-0.00107312 -0.000190361 -0.00179879)
(0.00342146 -0.00102679 -0.000814077)
(-0.000952029 -0.000167792 0.000804851)
(0.00044757 0.000585318 -0.000426626)
(0.000215412 0.000444967 0.000580685)
(-6.39652e-05 -6.70021e-05 -0.00185702)
(-0.00049064 -0.000310215 -0.000837021)
(-0.000283205 0.00020471 0.000701301)
(0.00023397 -9.57729e-05 -0.000264282)
(0.000271454 -9.62544e-05 0.00019328)
(-0.000125722 -0.000191605 -0.000418117)
(0.000104487 -0.000781137 -0.00371643)
(0.000664465 -0.000184792 0.00127653)
(1.11408e-05 -5.4522e-05 -0.000180629)
(0.00103668 0.000350654 -0.00145533)
(8.54279e-05 0.00056529 -0.000351658)
(0.000608738 -0.000659711 -0.000208865)
(-0.000693192 0.00112664 -0.000172431)
(-0.000646791 0.000438472 0.00158551)
(0.000553411 0.000518392 -0.000802935)
(0.000277854 -0.000477061 -0.00271923)
(0.000425246 0.000554435 0.000640043)
(-0.000121412 -3.00761e-06 -0.00542401)
(0.00108142 -0.000458773 0.000572111)
(-0.000863816 0.000211715 -0.000798031)
(0.000238374 0.000561864 -0.00130659)
(-0.000906144 -0.000262706 -0.00188183)
(-0.000552564 -0.00085721 -0.00463503)
(-0.000395415 7.34978e-05 0.000268991)
(-0.000841954 -0.000102595 0.000889334)
(-0.000207889 0.000923612 -0.000411062)
(-0.000684103 -0.000698281 0.000601865)
(-0.000631677 -5.38168e-05 -0.000731584)
(0.00145672 0.000434394 -0.00112654)
(-0.000625283 -0.000404716 -0.000721059)
(-0.000864225 -0.000210094 -0.00251775)
(-0.000770075 -0.000245389 0.000927657)
(0.00226472 -0.000611063 -0.000397593)
(-0.000466711 0.00061563 0.000666131)
(-0.000371063 0.000158716 0.0044269)
(-0.000659772 0.000149999 0.000820917)
(0.000347317 0.000604965 -0.00078366)
(-0.000975281 4.87451e-05 -0.00232652)
(-0.000363099 -2.11455e-05 -0.0110463)
(0.000191862 0.000309605 -0.000696708)
(0.000130749 0.000461269 -2.73963e-05)
(-0.000124655 0.000283791 -0.000425801)
(6.62701e-05 0.000129509 0.00332041)
(-6.07492e-05 0.00030662 -0.00023271)
(0.000104711 1.00918e-05 0.000650873)
(0.000175084 -0.000344714 -0.00109934)
(-0.000425098 -0.000340606 0.000655624)
(0.000822581 0.000907035 -0.00401722)
(-0.00011443 -2.54178e-06 -0.00581928)
(-9.32941e-05 -0.00043064 0.000430461)
(-0.000432456 -0.000231621 -0.00565774)
(0.000138697 -9.08392e-05 0.000447971)
(0.000488112 -0.000147143 -0.00069989)
(-0.00074774 0.000168244 -0.00177933)
(-0.000962263 6.33346e-05 -0.000650503)
(-3.64651e-06 -3.54435e-05 9.41432e-05)
(-0.000332613 0.000207351 0.000560009)
(-0.00041776 2.04101e-05 0.000699117)
(-0.000658471 0.000242771 0.000561514)
(0.000139112 -0.000279814 -0.00408311)
(-0.000712965 -0.000702228 -0.000801326)
(-0.000212296 -0.000142765 -0.00132468)
(0.000461422 0.000467141 -0.0018481)
(9.63563e-05 0.000189056 0.00089154)
(-0.000768094 -0.000513356 0.000472131)
(-0.000227751 0.000403013 -0.000679623)
(0.000173338 0.000567123 -0.00313225)
(6.27469e-06 -0.000617913 -0.000266052)
(-0.000748656 0.000377833 0.000394014)
(-0.000471788 0.00175574 -0.000816181)
(-0.000575472 -4.46275e-05 -0.000725395)
(-0.000369158 0.000769066 -0.00144498)
(-0.000335214 7.1403e-06 -0.000352917)
(0.000180498 0.000412727 0.000663219)
(-0.0002286 5.84137e-05 0.000390916)
(0.000292249 -0.000434557 0.00386098)
(-0.000593042 0.000292719 -0.000471124)
(-0.000196171 5.21299e-05 0.000469731)
(0.0011272 0.00231726 -0.00298181)
(-0.000583089 -0.000624835 -0.000438521)
(0.000261596 -8.43082e-05 -0.00321195)
(-0.000637735 -0.000654905 -0.00621156)
(0.000703496 -0.000111821 0.00592454)
(0.000166003 -0.000138266 0.000233407)
(0.000526713 0.000473788 -0.0016313)
(-5.9166e-05 -5.26235e-05 0.000599608)
(-0.000312626 0.000188656 0.000619464)
(-1.77873e-05 0.000557717 0.000582155)
(0.00426242 -0.000634132 0.000243872)
(2.41863e-05 -6.84753e-05 -0.00161432)
(0.000287506 -0.000113544 -0.00187071)
(-3.94766e-05 0.00113437 -0.000433582)
(-0.000182835 1.90585e-05 -0.000538123)
(-0.000715068 -4.88207e-05 -0.00035248)
(-0.000287464 6.51019e-06 -0.00042161)
(-0.000564524 0.000175961 -0.000353653)
(-0.000654391 -8.51927e-05 0.000206868)
(2.46478e-05 -6.14302e-05 0.00057603)
(-0.000297093 6.24002e-06 -0.000718111)
(-0.000689613 -0.000318368 0.00150886)
(-1.23851e-05 -1.48638e-05 0.000142911)
(0.000126764 0.000580085 -0.000370788)
(8.50411e-05 0.000113795 -0.00125751)
(-0.000744899 -8.55427e-05 0.000659252)
(-0.000713376 0.000350029 -0.000346062)
(0.000119978 0.000518639 -0.00378109)
(3.9503e-05 -6.22275e-05 -0.00365863)
(0.000197432 -0.000191472 0.000605404)
(0.000294962 0.000446705 0.00263978)
(-0.000364813 -0.000228364 0.00217487)
(0.0107304 0.00309401 -0.00513078)
(-0.000729579 0.000229062 0.00113058)
(6.38125e-05 0.000756064 -1.95462e-05)
(-0.000607603 0.000131037 -0.00288403)
(-0.000581851 -9.03716e-05 0.000295776)
(-0.00140479 -1.14211e-05 0.000842185)
(-0.000607634 0.000909731 0.000618224)
(1.15583e-05 4.51141e-05 -0.00354493)
(-6.64026e-05 -0.000224635 -0.000515631)
(-0.00173088 9.48458e-05 -0.000452259)
(-1.79331e-05 0.000487319 7.269e-05)
(0.0011964 0.000372975 -0.000651986)
(1.35504e-05 0.000298042 0.0043289)
(-1.80254e-05 -0.000839527 -0.00124314)
(7.63105e-05 0.000208122 0.00340709)
(-0.000390336 0.00396138 -0.0042865)
(-0.000436834 -2.0201e-05 0.00025941)
(-6.72709e-05 2.43527e-05 -0.000837556)
(-0.00323431 0.000341263 0.00212814)
(-0.000245094 0.000372073 -0.000713078)
(0.000508063 0.000495994 0.000553241)
(0.000158479 0.000291611 0.000258839)
(-0.000410119 0.00113519 -0.000693109)
(-0.000283483 6.92528e-06 0.000596887)
(9.62826e-05 0.000235934 -0.000307)
(-0.000305628 0.000317712 0.000663346)
(0.00164358 -0.00231343 0.00500691)
(0.000170304 0.000389399 0.000593838)
(0.000217648 -0.000979338 -0.00123597)
(-9.65973e-05 -0.00129363 -0.000413634)
(-0.00073967 -0.000739942 -0.000527023)
(0.000437575 -0.000134914 0.000876163)
(0.000625868 0.000612422 -0.00140512)
(0.000853304 -0.000275316 -0.000656143)
(-6.88525e-05 -0.000417988 0.000588934)
(0.00026896 0.000460813 -0.000372461)
(-0.000402264 -0.000215904 0.000266854)
(-8.9986e-05 -2.57214e-05 -0.000801616)
(0.00214734 0.00184946 0.000182971)
(0.000133105 0.000421791 0.00194691)
(0.000710816 -0.00017086 -0.0002798)
(-0.000497655 4.48481e-05 -0.00602837)
(0.000110433 0.000585087 -0.000202133)
(-0.00132809 -0.00277667 -0.000704945)
(0.000399272 -0.000136211 0.000568917)
(-1.28788e-05 0.000479004 -0.0017597)
(-0.000725818 -4.55088e-06 -0.00138734)
(-0.000148189 -0.000115262 -0.000180149)
(7.58546e-05 -0.000303901 0.00411655)
(0.000131868 -2.12261e-05 0.00589308)
(0.000383588 0.000369153 0.00215362)
(-0.000797574 -0.000208371 9.53738e-05)
(-0.000576004 0.000791418 0.000546251)
(-0.000730472 -0.000171596 -0.000850461)
(-0.000335712 0.000733327 -0.00235807)
(0.00259717 -0.00159968 0.000450035)
(-2.36603e-05 0.000535254 0.000652088)
(0.000394108 0.000381927 0.00196391)
(0.000200398 -8.49909e-05 0.000117062)
(-0.000840083 -0.000813552 -0.000187201)
(0.000470277 0.00011859 -0.00049393)
(0.00250684 -0.00046565 0.000108717)
(-0.0001018 -0.000463034 -0.000661547)
(-0.000581999 -0.000161128 0.00136606)
(-0.00108529 -0.0004762 -0.00240972)
(-0.000374172 0.000472474 -0.000364035)
(0.000499784 0.000338987 -0.000884056)
(0.000246743 -0.000206331 -0.00128372)
(-0.000445729 7.6575e-05 -0.000776689)
(-0.00011705 0.000378136 -0.00683723)
(-6.09013e-05 7.08051e-06 0.000199302)
(0.000520529 0.000750504 -0.00187981)
(-0.0001228 -7.34836e-07 0.00113728)
(-0.0012069 0.00202558 -0.00583212)
(-0.000343268 0.000360168 0.000560908)
(8.53165e-07 -2.63324e-05 0.000148354)
(-0.000153335 -0.000223903 0.000674562)
(0.000242006 -0.000120008 -0.000478)
(0.00314065 -0.000376638 -0.000550464)
(-2.02347e-05 0.000788915 -0.00227037)
(0.000104543 0.000347244 0.000143231)
(-0.000125663 8.47539e-05 0.000220511)
(-5.01286e-05 9.88284e-05 -0.00135112)
(7.25516e-05 0.00053298 -0.00166913)
(-0.000543548 -0.000249432 0.000635653)
(-0.000808312 -0.000182437 0.00219721)
(-0.000749946 6.62756e-05 -0.00040476)
(-0.000557833 0.000170798 0.000334876)
(-4.87109e-05 -3.72958e-05 0.000575808)
(0.000339776 0.000202223 -0.000651572)
(0.000119129 -0.000326417 0.000707554)
(0.000120277 -0.000144969 0.00126869)
(-0.000305565 0.000837871 -0.00185974)
(0.000318287 -0.000142007 0.00090952)
(-3.78769e-06 -0.000279987 -0.00195152)
(-0.000381502 0.000620228 -0.00151466)
(-0.0010375 -0.0001727 -0.00188999)
(-0.000453035 -0.000103956 0.00327253)
(2.05412e-05 -6.01714e-05 -0.00167052)
(0.000105849 -0.000641339 -0.000986125)
(-9.94536e-05 -3.4326e-05 -0.00440636)
(-0.000330121 -0.000148063 0.00363416)
(-5.52924e-05 -0.000109527 -0.00481757)
(-0.000655866 -0.000424177 -0.000467255)
(-0.000663434 0.000877249 -0.00176369)
(-8.39863e-05 -0.00108862 0.000628447)
(-0.000227815 0.000407429 0.000613597)
(0.00025799 -0.000148623 -0.00218556)
(0.000275351 0.000285551 0.000487348)
(-0.000690333 -6.4226e-05 -0.000336813)
(0.000462113 -0.000725543 0.00395601)
(-0.000100399 4.70516e-05 -0.000406432)
(0.000728945 -0.000426226 0.00057454)
(-0.000192838 2.22278e-05 0.000634672)
(5.65399e-07 -8.83296e-05 -0.00032535)
(0.000138869 -0.000372829 -0.000723387)
(-0.00101245 -0.0001685 -0.00219309)
(-0.00064685 -0.000178146 0.000667459)
(-0.00067413 -0.000139942 -0.000131162)
(-0.000484744 -1.24238e-05 0.000326327)
(-8.5052e-06 -0.000381989 -0.000562633)
(0.000164911 -0.00105064 0.00219901)
(-0.000180177 0.000359187 -0.00138264)
(0.000806888 -0.000244481 0.000376351)
(-0.000333701 0.00021354 0.000107854)
(0.00100034 -0.000280623 -0.000355175)
(-0.000119363 3.65081e-05 0.00238944)
(2.07775e-05 -0.000140253 -0.00358453)
(-0.000337884 0.00108321 -0.00116367)
(-0.000824689 0.000119878 -0.00172605)
(0.00438224 -2.56295e-05 -0.00298167)
(-0.000234622 0.000132476 0.000834648)
(-7.94842e-05 2.3488e-05 -0.000387643)
(-0.000615329 6.24327e-05 -0.00681011)
(-0.000664331 -0.000195672 -0.00170756)
(-2.82561e-05 0.000657325 -0.000306514)
(0.000150673 0.000469397 -0.0012479)
(0.0036236 -0.000818717 -0.000255277)
(-0.00095787 0.000227347 -4.66178e-05)
(-0.000115811 -2.31202e-06 -0.00203093)
(-0.000137861 -0.000365186 -2.93499e-06)
(-0.00035091 -2.31093e-05 -0.00350886)
(-0.000298961 0.000483678 0.0028305)
(0.000191973 0.000450824 0.000614089)
(-0.000514443 0.000397611 -0.00319268)
(-0.000472618 0.000140746 0.000384164)
(-0.00093913 -0.000265598 -0.00174804)
(-9.64672e-05 -3.47505e-05 0.00424057)
(-0.000292717 0.000116781 -0.00192256)
(-0.000395026 0.000307784 0.0027024)
(-0.000846734 -3.5419e-05 0.00052785)
(-0.00112251 0.00135664 -0.00170242)
(0.000195518 -0.00017 -0.000278894)
(-0.000158154 0.000128394 -0.00653198)
(0.00050419 3.02985e-06 0.00390342)
(-0.000220068 0.000244937 0.00109488)
(-0.000763262 9.10617e-05 -0.000383845)
(-1.07699e-05 -4.54693e-05 -0.00150096)
(0.000160386 9.5959e-05 -0.00178036)
(-0.00051655 2.25928e-05 -0.00392265)
(-0.000948523 -0.000172222 -0.00220091)
(6.48824e-05 -6.66358e-05 0.00375066)
(-0.00044006 -0.000153195 0.000119352)
(-4.25842e-05 0.000501502 -0.00187614)
(-2.73494e-05 0.000614018 0.000316926)
(5.74421e-06 0.000129838 -0.00079055)
(-0.000555078 0.000196212 -0.000628881)
(-0.000403737 0.000248766 0.000315416)
(-0.000736195 0.000378071 4.37123e-05)
(-4.306e-05 -0.000369987 0.000673933)
(0.000432053 0.000474698 3.28978e-05)
(8.82971e-05 8.4842e-05 0.00197586)
(-0.000400091 0.00195781 -0.00058194)
(-0.00039939 0.000119869 -0.00020446)
(0.00022773 -6.60608e-05 -0.00448071)
(-0.000160632 -0.000157934 -0.00323031)
(0.000269423 0.000493346 0.000172127)
(-6.21432e-05 0.00106934 -0.000122085)
(-3.71999e-05 0.000187059 -0.00269807)
(-8.54914e-05 2.36107e-05 0.00188962)
(-0.000646758 -0.00018328 0.000656075)
(-0.00028211 -0.00026935 -0.000439873)
(4.47459e-05 -0.000247885 -0.000557264)
(-0.000174116 -0.000409196 -0.00134701)
(-0.000504922 0.000405117 0.000331622)
(-0.000158074 0.000834918 -0.00129656)
(-0.000243816 -0.00056356 -0.00199547)
(-0.000353803 -0.000190607 -0.00285198)
(-0.000456567 0.000555037 -0.0059445)
(-0.000943718 -0.000270727 -0.00175988)
(-3.85415e-05 9.7554e-05 0.00449752)
(-6.4382e-05 7.77265e-06 -0.000327586)
(-0.00130642 -0.00275994 0.000386807)
(-9.71957e-05 -0.000563021 -0.000196086)
(0.000105719 0.000392666 0.00108004)
(-0.000465252 -0.000654508 -0.000399368)
(-7.73099e-05 -0.000312731 -0.000384872)
(-0.000718259 0.00115763 -0.000819558)
(0.000571294 -0.000123438 -0.00192719)
(-0.000432452 -0.000153349 -0.000456269)
(0.0006113 0.000571082 0.00055856)
(-0.000409772 7.76145e-05 -0.000852718)
(-0.000895641 0.000260438 -0.000550449)
(2.56495e-05 0.0002655 -0.000766033)
(-0.000870523 -0.000701114 -0.00151613)
(3.14102e-05 1.51861e-05 0.000636365)
(7.62798e-05 -0.000170289 -0.000438319)
(-0.000534628 -0.000536287 6.36505e-05)
(0.00462613 -0.00302653 -0.00132051)
(-0.000454191 0.000391782 -0.00369754)
(-0.000551698 -0.000355082 0.000189999)
(0.000112078 0.000537489 0.000608616)