/*--------------------------------*- C++ -*----------------------------------*\
| =========                 |                                                 |
| \\      /  F ield         | OpenFOAM: The Open Source CFD Toolbox           |
|  \\    /   O peration     | Version:  plus.master.MPPICInterFoam            |
|   \\  /    A nd           | Web:      www.OpenFOAM.com                      |
|    \\/     M anipulation  |                                                 |
\*---------------------------------------------------------------------------*/
FoamFile
{
    version     2.0;
    format      ascii;
    class       volScalarField;
    location    "6.2";
    object      epsilon;
}
// * * * * * * * * * * * * * * * * * * * * * * * * * * * * * * * * * * * * * //

dimensions      [0 2 -3 0 0 0 0];

internalField   nonuniform List<scalar> 
11821
(
0.524974
0.599955
0.427531
0.546481
0.432645
0.320394
0.439066
0.55067
0.641247
0.661154
0.586805
0.472328
0.358077
0.568024
0.73153
0.818349
0.810651
0.782794
0.627301
0.454382
0.683505
0.84602
0.792094
0.73132
0.85909
0.774533
0.53838
0.714023
0.853561
0.846574
0.740529
0.889946
0.826446
0.566138
0.65806
0.842226
0.886243
0.865211
0.904874
0.744723
0.517065
0.530011
0.694485
0.829229
0.863516
0.756957
0.584212
0.421549
0.392169
0.497577
0.582838
0.600789
0.530666
0.423869
0.319417
0.445632
0.552964
0.634824
0.650079
0.580556
0.473573
0.363725
0.567999
0.728904
0.851678
0.857729
0.775651
0.614429
0.452702
0.673651
0.878471
0.860889
0.816202
0.886972
0.743874
0.52523
0.708829
0.916854
0.830681
0.785278
0.906705
0.790258
0.547
0.642932
0.855536
0.934006
0.928903
0.902566
0.70778
0.499815
0.516408
0.675315
0.81991
0.851883
0.724891
0.560523
0.411629
0.383508
0.481697
0.558444
0.572495
0.508147
0.412098
0.315962
0.45088
0.558634
0.630442
0.640325
0.57681
0.476227
0.366854
0.571355
0.720253
0.819005
0.838707
0.751354
0.604774
0.452317
0.665347
0.844057
0.874309
0.814351
0.872585
0.712105
0.516056
0.693295
0.893102
0.823536
0.804887
0.908828
0.746629
0.530846
0.622972
0.82225
0.925386
0.930237
0.855978
0.673281
0.484119
0.499462
0.647314
0.77543
0.798352
0.686482
0.538135
0.400706
0.371475
0.463657
0.532521
0.543617
0.486678
0.399457
0.310121
0.444641
0.561878
0.635111
0.633797
0.578167
0.47389
0.363635
0.570208
0.703141
0.754569
0.781917
0.711151
0.596987
0.448769
0.663013
0.794788
0.782398
0.780822
0.795262
0.685152
0.510511
0.677728
0.863478
0.784617
0.769015
0.851136
0.705564
0.519767
0.600583
0.786623
0.883069
0.87953
0.802182
0.64015
0.469828
0.476303
0.617532
0.732933
0.748144
0.65102
0.514445
0.387478
0.355264
0.442336
0.507405
0.517042
0.465176
0.384034
0.30205
0.420661
0.535759
0.618213
0.624695
0.558941
0.454994
0.352867
0.538172
0.66776
0.701145
0.67573
0.656564
0.572038
0.433181
0.628307
0.733252
0.668856
0.664712
0.692566
0.652134
0.491794
0.639991
0.765275
0.730477
0.697442
0.733469
0.668782
0.498366
0.556587
0.719956
0.797553
0.783658
0.718044
0.599429
0.447724
0.442686
0.569212
0.673814
0.687189
0.602853
0.482024
0.370833
0.336095
0.414772
0.475454
0.48503
0.438487
0.366338
0.293849
0.38531
0.482628
0.561282
0.571296
0.512748
0.424184
0.337716
0.481156
0.604173
0.66642
0.648018
0.618539
0.526183
0.407087
0.556987
0.679285
0.651904
0.612386
0.654434
0.605136
0.45871
0.560337
0.695228
0.648819
0.645872
0.680367
0.614308
0.463666
0.492757
0.628798
0.714833
0.697969
0.651099
0.544599
0.418164
0.403253
0.504827
0.590544
0.609005
0.542396
0.444694
0.352978
0.316336
0.382441
0.433059
0.443753
0.406981
0.34812
0.286541
0.355003
0.433556
0.492327
0.508178
0.464712
0.396507
0.324918
0.430387
0.533728
0.593672
0.606685
0.562364
0.480842
0.382592
0.483555
0.591172
0.632635
0.585385
0.610595
0.54446
0.422609
0.486692
0.601248
0.657733
0.604647
0.605861
0.550632
0.42613
0.441311
0.549642
0.618522
0.626408
0.580055
0.493881
0.391915
0.37266
0.453827
0.515286
0.533635
0.487378
0.414547
0.339563
0.300839
0.356755
0.396454
0.406264
0.380414
0.33455
0.281695
0.335867
0.404444
0.453051
0.46471
0.435489
0.381461
0.318602
0.400206
0.49172
0.542663
0.551407
0.523252
0.452472
0.370285
0.444099
0.54527
0.574185
0.536454
0.560126
0.499917
0.403741
0.447931
0.550449
0.580988
0.549039
0.568404
0.504715
0.407033
0.411863
0.504804
0.558918
0.571434
0.539179
0.464552
0.379798
0.354671
0.425424
0.476495
0.4891
0.457474
0.399753
0.334366
0.290933
0.34229
0.377463
0.386946
0.367725
0.328984
0.280394
0.326185
0.392665
0.440758
0.454952
0.430533
0.380787
0.319494
0.386631
0.472242
0.51779
0.521672
0.507198
0.449354
0.371844
0.427656
0.522762
0.537056
0.513763
0.522945
0.495462
0.405452
0.432927
0.5312
0.542361
0.526583
0.550168
0.498293
0.409098
0.400681
0.489447
0.537795
0.549906
0.522717
0.462411
0.38327
0.347548
0.417365
0.469393
0.483476
0.456331
0.402425
0.338134
0.28647
0.338136
0.374483
0.385793
0.369134
0.331908
0.283252
0.322258
0.390779
0.442207
0.457471
0.43719
0.387748
0.324349
0.383395
0.468586
0.498308
0.489294
0.503761
0.454668
0.380899
0.42487
0.51219
0.48721
0.477513
0.496221
0.499768
0.417954
0.431298
0.51914
0.492555
0.48055
0.488128
0.50454
0.423377
0.400102
0.489876
0.520193
0.504894
0.520455
0.473656
0.395731
0.347335
0.420877
0.478703
0.497379
0.471069
0.415475
0.347688
0.286328
0.340556
0.380665
0.394714
0.379112
0.340561
0.289718
0.320822
0.392706
0.450148
0.468053
0.450013
0.397308
0.330797
0.383985
0.475229
0.515251
0.511981
0.507806
0.473399
0.392778
0.427587
0.524705
0.517642
0.500374
0.504114
0.517926
0.434462
0.435376
0.532983
0.523092
0.514114
0.50979
0.519376
0.441774
0.404542
0.502561
0.540877
0.528037
0.532662
0.49942
0.41326
0.351102
0.43053
0.496132
0.516831
0.494844
0.434675
0.36143
0.289185
0.346975
0.391813
0.40864
0.394111
0.353345
0.299381
0.320053
0.393357
0.453698
0.480004
0.459387
0.40562
0.337358
0.384226
0.481041
0.541529
0.550316
0.53752
0.489988
0.40381
0.429758
0.54288
0.565601
0.541899
0.57312
0.543292
0.450328
0.439373
0.554127
0.579476
0.518867
0.570007
0.555522
0.461849
0.410265
0.518198
0.57746
0.591537
0.579871
0.532337
0.433577
0.356845
0.441511
0.514806
0.545988
0.521862
0.457617
0.378032
0.29332
0.354734
0.403768
0.425057
0.410874
0.368388
0.310731
0.320601
0.396825
0.459839
0.488862
0.470507
0.416351
0.344802
0.387546
0.490533
0.571897
0.589547
0.57635
0.512084
0.41786
0.435694
0.561409
0.598793
0.565217
0.621781
0.579173
0.471016
0.448138
0.581677
0.61656
0.55606
0.61599
0.603972
0.487815
0.419986
0.536595
0.624661
0.621575
0.632144
0.567464
0.45925
0.364143
0.456178
0.532954
0.570178
0.547099
0.484641
0.396576
0.296884
0.363296
0.41705
0.442617
0.429182
0.384462
0.321525
0.319717
0.401862
0.469727
0.502447
0.485676
0.429387
0.350739
0.391801
0.501323
0.579784
0.614713
0.591836
0.533204
0.433811
0.443802
0.569552
0.623312
0.599932
0.633645
0.598518
0.49381
0.458658
0.586073
0.629481
0.588526
0.620389
0.598996
0.517057
0.430215
0.555155
0.625953
0.646269
0.625558
0.586042
0.482905
0.368709
0.469663
0.553779
0.592125
0.573871
0.506562
0.411817
0.294875
0.368384
0.429622
0.458049
0.446307
0.396797
0.325283
0.306923
0.393274
0.463792
0.49812
0.485702
0.427106
0.341697
0.383276
0.481367
0.552261
0.594569
0.570694
0.521328
0.430664
0.434073
0.544173
0.583044
0.553868
0.552248
0.55753
0.484048
0.446104
0.566579
0.579778
0.551661
0.572081
0.592911
0.481034
0.419549
0.504248
0.561675
0.584362
0.573568
0.521146
0.465354
0.354717
0.449929
0.5103
0.531806
0.516588
0.481557
0.401785
0.278655
0.354359
0.41914
0.446976
0.437738
0.386473
0.310059
0.278299
0.354969
0.412971
0.438699
0.431462
0.386842
0.309268
0.347966
0.426825
0.479623
0.489166
0.497762
0.475804
0.390093
0.396521
0.475151
0.482277
0.479764
0.483653
0.496344
0.436428
0.409299
0.485437
0.489876
0.478196
0.482762
0.482936
0.442647
0.382459
0.479778
0.499956
0.508662
0.49791
0.510509
0.428092
0.321052
0.413518
0.473892
0.501101
0.495652
0.450349
0.362185
0.252276
0.320646
0.383521
0.413506
0.401718
0.349484
0.278519
0.068547
0.102368
0.182302
0.132969
0.0994288
0.0777079
0.0680952
0.097909
0.380019
0.263167
0.185571
0.133792
0.0991392
0.0769001
0.0668416
0.0947767
0.35054
0.244312
0.173338
0.125792
0.0939183
0.0735144
0.0645731
0.0926293
0.29014
0.207409
0.150946
0.112189
0.0857132
0.0687047
0.0619837
0.0920931
0.224892
0.168925
0.128023
0.0985112
0.0777433
0.0644333
0.0603933
0.0943569
0.261025
0.202092
0.156798
0.122481
0.097375
0.0809314
0.0762332
0.121741
0.318966
0.235327
0.175838
0.133153
0.102859
0.0829217
0.0752339
0.114025
0.367502
0.262749
0.190932
0.141139
0.106722
0.0842417
0.0745975
0.109022
0.381887
0.269316
0.19334
0.141554
0.106231
0.0833094
0.0732184
0.105603
0.351415
0.249668
0.18048
0.13312
0.100753
0.0797829
0.0708756
0.103385
0.292362
0.21303
0.15783
0.119155
0.0922594
0.0748169
0.0682683
0.10304
0.229062
0.174954
0.134693
0.105116
0.0839936
0.070393
0.0667
0.105621
0.267969
0.209362
0.16374
0.128929
0.103361
0.0866665
0.0824651
0.133502
0.323134
0.241553
0.18249
0.139591
0.108874
0.0885998
0.0812525
0.125104
0.366861
0.26695
0.196765
0.147307
0.112656
0.089861
0.0804685
0.119636
0.377731
0.271696
0.198362
0.147374
0.112021
0.0888495
0.0789985
0.115973
0.347331
0.251639
0.185135
0.138712
0.106412
0.0852526
0.0766213
0.113718
0.291069
0.215882
0.162642
0.124667
0.0978136
0.0802357
0.0740485
0.113583
0.230535
0.178794
0.139698
0.110527
0.0894074
0.0757573
0.07258
0.116573
0.271707
0.213684
0.168462
0.133829
0.108236
0.0915102
0.0878888
0.144699
0.325242
0.245143
0.186989
0.144502
0.1138
0.0934207
0.0864952
0.135673
0.365541
0.269004
0.200643
0.152026
0.117552
0.0946643
0.0856152
0.129827
0.373101
0.272225
0.201601
0.151867
0.116848
0.0936246
0.0840949
0.125954
0.342158
0.251773
0.188207
0.143136
0.1112
0.0900082
0.0817181
0.123673
0.287889
0.21694
0.1661
0.129202
0.102608
0.084996
0.079213
0.123749
0.230053
0.181077
0.143577
0.115112
0.0941595
0.0805297
0.0778912
0.12719
0.272061
0.215826
0.171834
0.137767
0.112259
0.0954747
0.0922834
0.154473
0.324337
0.246625
0.190199
0.148509
0.117923
0.0974132
0.090779
0.144942
0.362858
0.269447
0.203446
0.155971
0.121729
0.0987018
0.0898642
0.138805
0.368128
0.271671
0.204033
0.155723
0.121036
0.0976872
0.0883423
0.134782
0.336207
0.251077
0.190696
0.147034
0.115405
0.0940884
0.0860028
0.13253
0.283647
0.217425
0.169165
0.133292
0.106848
0.0891003
0.083587
0.132855
0.228948
0.183027
0.147162
0.119306
0.0983897
0.0846626
0.0824193
0.136753
0.26933
0.216458
0.174235
0.140798
0.115316
0.0984105
0.0954672
0.161548
0.318753
0.246094
0.192326
0.151602
0.121097
0.100415
0.093933
0.15173
0.354895
0.267745
0.205212
0.159075
0.125016
0.101796
0.0930403
0.145409
0.358759
0.269425
0.205698
0.158884
0.124414
0.100859
0.0915674
0.141344
0.327575
0.249552
0.192764
0.150383
0.118876
0.0973311
0.0893116
0.13924
0.278688
0.217828
0.172024
0.136889
0.110387
0.0923973
0.0870109
0.139896
0.228146
0.185167
0.150579
0.123004
0.101925
0.0879968
0.085991
0.144245
0.264167
0.21556
0.175236
0.142408
0.117019
0.100136
0.0974646
0.165682
0.308642
0.243388
0.192872
0.153219
0.122902
0.10222
0.0959586
0.155805
0.340739
0.263382
0.20532
0.160711
0.126944
0.103708
0.0951239
0.149413
0.343883
0.264951
0.205919
0.160689
0.126506
0.102899
0.0937455
0.145431
0.316215
0.246903
0.193825
0.152581
0.121179
0.0995166
0.0916182
0.143578
0.273187
0.217747
0.174056
0.139429
0.11284
0.0946983
0.089461
0.144617
0.227235
0.186823
0.153142
0.125666
0.10442
0.0903694
0.0885887
0.149384
0.258891
0.213655
0.17476
0.142484
0.11738
0.100782
0.0985525
0.168019
0.298807
0.239964
0.192055
0.153327
0.123368
0.102953
0.0970985
0.15821
0.326358
0.258468
0.204191
0.160867
0.12754
0.104553
0.0963429
0.151851
0.329258
0.260213
0.205076
0.161148
0.127333
0.10391
0.0950856
0.148025
0.306446
0.244277
0.193933
0.153512
0.122294
0.100723
0.0931036
0.146426
0.268863
0.217311
0.175016
0.140737
0.114175
0.0960675
0.0910941
0.147794
0.22632
0.187624
0.154504
0.127117
0.105848
0.0918405
0.0903623
0.1529
0.255813
0.211983
0.173678
0.141752
0.116986
0.100763
0.0990248
0.169754
0.293888
0.237971
0.191116
0.152815
0.123153
0.103049
0.0976321
0.160042
0.319368
0.256067
0.203388
0.160591
0.127521
0.104792
0.096977
0.153798
0.32259
0.258292
0.204716
0.161225
0.12758
0.104334
0.0958468
0.150129
0.302617
0.243577
0.194186
0.153982
0.122814
0.10133
0.0939877
0.148693
0.267659
0.217586
0.175697
0.141464
0.114882
0.0968123
0.0920847
0.150238
0.226421
0.188297
0.1553
0.127899
0.106614
0.0926615
0.0914533
0.155552
0.256063
0.211662
0.173045
0.141072
0.116418
0.100383
0.0989432
0.170915
0.295297
0.238625
0.191201
0.152611
0.122877
0.102825
0.097624
0.161316
0.321526
0.257518
0.204093
0.160852
0.127555
0.104762
0.0970911
0.155234
0.325436
0.260361
0.205948
0.161888
0.127895
0.10449
0.0960778
0.15168
0.305862
0.24588
0.195668
0.154879
0.12331
0.101608
0.0942932
0.150295
0.270605
0.219683
0.177124
0.14238
0.115424
0.0971353
0.0924253
0.151852
0.228631
0.18991
0.156435
0.128656
0.107093
0.0929805
0.0918231
0.157202
0.258621
0.212683
0.173147
0.14066
0.115751
0.0996365
0.0982276
0.17065
0.30049
0.241361
0.192403
0.152869
0.122562
0.102235
0.0969786
0.161199
0.32895
0.261753
0.206298
0.161772
0.127643
0.10439
0.0965655
0.155283
0.333913
0.265423
0.208812
0.163273
0.128285
0.10429
0.0956426
0.1518
0.313782
0.25087
0.198611
0.156349
0.123772
0.101458
0.0938828
0.150398
0.276979
0.223847
0.179605
0.143594
0.115756
0.096933
0.0919858
0.151863
0.233151
0.192885
0.158172
0.129446
0.10722
0.0927009
0.0913531
0.157102
0.262303
0.214309
0.173317
0.139909
0.114558
0.0983448
0.0969458
0.168665
0.307562
0.245225
0.193949
0.152841
0.121665
0.10102
0.0957136
0.159376
0.338994
0.267707
0.209259
0.162578
0.127164
0.103352
0.0953797
0.153606
0.345557
0.272606
0.212632
0.164613
0.128088
0.103381
0.0945094
0.150178
0.325033
0.257896
0.202348
0.157659
0.123575
0.100549
0.0927291
0.148713
0.286079
0.22946
0.182421
0.144378
0.115315
0.095927
0.0907722
0.150032
0.239416
0.196568
0.159789
0.129603
0.106524
0.0916228
0.0901071
0.1551
0.265587
0.215126
0.172333
0.137956
0.112388
0.0964517
0.095469
0.166284
0.314408
0.248472
0.194348
0.151477
0.119619
0.099054
0.0941306
0.157005
0.349422
0.273552
0.211275
0.162029
0.125424
0.101449
0.0937947
0.151331
0.358686
0.280167
0.215649
0.164571
0.126564
0.101535
0.0929249
0.147951
0.337909
0.265154
0.205116
0.157468
0.121972
0.0986592
0.0910858
0.146351
0.296126
0.234638
0.183881
0.143534
0.113472
0.0939736
0.089075
0.147471
0.245529
0.199154
0.159799
0.128138
0.104527
0.089696
0.0884488
0.152463
0.26759
0.213787
0.169055
0.13415
0.109036
0.09402
0.0940869
0.165204
0.32108
0.249924
0.192301
0.14794
0.116119
0.0963762
0.0925194
0.155824
0.360815
0.278093
0.210805
0.159033
0.121969
0.0986664
0.0920874
0.150239
0.373365
0.286483
0.21602
0.16186
0.123121
0.0986862
0.0911409
0.146823
0.351145
0.270431
0.204797
0.154423
0.118426
0.0957671
0.0892181
0.14495
0.304961
0.236917
0.182001
0.139951
0.109866
0.0911275
0.0871819
0.145725
0.248965
0.198325
0.156622
0.124295
0.101055
0.0870317
0.0866547
0.150603
0.265772
0.208423
0.162687
0.128526
0.104852
0.0913036
0.0927289
0.165965
0.324556
0.246813
0.186253
0.141888
0.111424
0.0932626
0.090853
0.156319
0.369642
0.277585
0.205513
0.152873
0.116967
0.0952931
0.0902416
0.150792
0.384336
0.286509
0.21076
0.155539
0.11795
0.095177
0.0891665
0.147236
0.359008
0.268848
0.198807
0.147939
0.113274
0.0922616
0.0871562
0.14491
0.306879
0.232343
0.17513
0.133555
0.104995
0.0878
0.0851241
0.145176
0.245268
0.191705
0.149674
0.118452
0.0967061
0.0840199
0.0847223
0.149932
0.253773
0.197055
0.153761
0.122318
0.100848
0.0888523
0.0914531
0.167957
0.313948
0.234637
0.175942
0.134587
0.10673
0.0903858
0.0892355
0.157771
0.362351
0.265562
0.194398
0.144839
0.111813
0.0921365
0.0883975
0.152104
0.376113
0.274033
0.199215
0.147189
0.112611
0.0918856
0.0871711
0.148268
0.347998
0.255308
0.187214
0.139767
0.108035
0.0889736
0.085073
0.145416
0.292611
0.218614
0.164421
0.126168
0.100193
0.0846826
0.0830396
0.145175
0.230964
0.17968
0.140736
0.112284
0.0925732
0.0811953
0.0827164
0.149777
0.232357
0.182052
0.143981
0.116277
0.0972299
0.0866398
0.0899742
0.167976
0.287106
0.215683
0.163641
0.127083
0.102309
0.0877257
0.087434
0.157122
0.330604
0.243594
0.180235
0.136299
0.106842
0.0891444
0.0862976
0.150893
0.343757
0.251208
0.184446
0.138321
0.107442
0.0887443
0.0848959
0.146631
0.316377
0.233188
0.173062
0.13125
0.103009
0.0858435
0.0827469
0.143531
0.265264
0.19981
0.152393
0.118791
0.0956767
0.0817332
0.0807495
0.143161
0.210423
0.165541
0.131501
0.106382
0.0887346
0.0784818
0.080428
0.147572
0.280732
0.210926
0.158
0.11901
0.0914783
0.0738894
0.0679587
0.106262
0.372571
0.269395
0.194372
0.140766
0.103696
0.0799993
0.070028
0.103856
0.459149
0.32688
0.231105
0.163202
0.116651
0.086958
0.073341
0.10467
0.501997
0.356857
0.25155
0.176548
0.124906
0.0918212
0.0762236
0.10737
0.480023
0.34473
0.245973
0.174708
0.124903
0.0926504
0.0776259
0.110973
0.406657
0.299812
0.219675
0.160262
0.117787
0.0899388
0.0778125
0.115933
0.322644
0.247731
0.18814
0.142151
0.108443
0.0862904
0.0782943
0.123474
0.277455
0.210646
0.159851
0.122261
0.0955543
0.0784908
0.0734121
0.116755
0.365983
0.266829
0.194635
0.143016
0.107193
0.0842477
0.0751646
0.113729
0.451148
0.323207
0.230334
0.164616
0.119592
0.0908692
0.0782339
0.114141
0.49745
0.355053
0.251507
0.178061
0.127729
0.0955935
0.0810029
0.116707
0.478204
0.345641
0.247628
0.177004
0.128016
0.0965001
0.0824286
0.120393
0.410097
0.303547
0.222944
0.163511
0.121385
0.0940166
0.0827681
0.125667
0.328489
0.252648
0.192254
0.146029
0.112449
0.0906423
0.0835348
0.133861
0.271487
0.208416
0.160405
0.124618
0.0989224
0.0824482
0.0782358
0.12686
0.355904
0.261441
0.193071
0.144132
0.109894
0.0878187
0.0796544
0.123232
0.43922
0.315919
0.227063
0.164543
0.121596
0.0940509
0.0824531
0.123266
0.48854
0.349156
0.24839
0.177712
0.129434
0.0985587
0.0850683
0.125698
0.475053
0.342878
0.245989
0.177248
0.129886
0.0994735
0.0864793
0.129451
0.41139
0.3032
0.222857
0.164618
0.123659
0.0971584
0.0869317
0.134974
0.330138
0.253292
0.193232
0.147888
0.115156
0.0940459
0.0879604
0.143771
0.263985
0.20548
0.160538
0.126533
0.101729
0.085717
0.0822108
0.135798
0.342266
0.254398
0.190794
0.144765
0.112044
0.0907125
0.0833066
0.131582
0.422826
0.305731
0.222478
0.163802
0.123009
0.0965413
0.0858139
0.131201
0.475635
0.339332
0.243218
0.176351
0.130415
0.100773
0.0882317
0.133441
0.466854
0.335289
0.241737
0.176185
0.130894
0.101631
0.0895865
0.137226
0.40446
0.297563
0.220062
0.16432
0.124986
0.0994328
0.0901166
0.14297
0.324608
0.249642
0.191914
0.148441
0.116918
0.0965564
0.0913597
0.152286
0.2555
0.202203
0.160297
0.127853
0.103772
0.0881345
0.0851786
0.142479
0.324981
0.246206
0.188006
0.14481
0.113436
0.0927556
0.0859698
0.137693
0.397502
0.292213
0.216671
0.162274
0.123595
0.0981411
0.0881619
0.136794
0.44879
0.323446
0.235652
0.173757
0.13039
0.102012
0.0903301
0.138709
0.443041
0.320823
0.234649
0.173639
0.130779
0.102759
0.0915893
0.14244
0.385096
0.28643
0.214828
0.162633
0.12521
0.10068
0.092179
0.148388
0.311682
0.242532
0.188853
0.147824
0.117647
0.0980455
0.0935805
0.158056
0.24624
0.198189
0.159074
0.128056
0.104727
0.0895745
0.0871804
0.146739
0.305612
0.23713
0.184273
0.14373
0.113701
0.0937949
0.0876817
0.141441
0.364952
0.276252
0.209496
0.159453
0.122943
0.0986711
0.0895445
0.139988
0.406275
0.302027
0.225673
0.169484
0.128952
0.102099
0.0914328
0.141491
0.402864
0.299964
0.22465
0.169196
0.129162
0.102698
0.092573
0.145082
0.355179
0.270901
0.207266
0.159232
0.124017
0.100774
0.0932145
0.151167
0.293455
0.232839
0.18405
0.145709
0.11705
0.0984035
0.0947289
0.160974
0.237723
0.193654
0.156805
0.127135
0.104685
0.0901839
0.0884367
0.149501
0.289372
0.228576
0.179839
0.141595
0.112964
0.0940042
0.0886809
0.143815
0.337701
0.261999
0.202062
0.155666
0.121277
0.0983653
0.0902483
0.141933
0.368287
0.282571
0.215598
0.164269
0.126485
0.101346
0.09188
0.14308
0.36476
0.280196
0.214257
0.163718
0.126486
0.101788
0.0928989
0.146495
0.327792
0.255919
0.199003
0.154703
0.121754
0.100018
0.0935768
0.15262
0.27638
0.222885
0.178227
0.142376
0.115355
0.0978906
0.0951696
0.162415
0.231401
0.189643
0.154369
0.125814
0.104177
0.0902918
0.0891396
0.151613
0.278575
0.221918
0.175783
0.139286
0.111875
0.0937899
0.0892012
0.145702
0.320694
0.251773
0.195862
0.152054
0.119427
0.0977419
0.0905634
0.143607
0.34578
0.269241
0.207575
0.159554
0.123985
0.100367
0.0920107
0.144558
0.341694
0.26643
0.205899
0.158729
0.123775
0.100659
0.0929251
0.147828
0.309751
0.244689
0.191912
0.150346
0.119331
0.0989852
0.0936053
0.153909
0.264025
0.214627
0.172712
0.138849
0.113334
0.0970207
0.0952402
0.163644
0.227988
0.18714
0.152656
0.124751
0.1036
0.0900794
0.0892955
0.152977
0.273145
0.217914
0.173029
0.137563
0.11092
0.0933883
0.0892828
0.147031
0.312664
0.245859
0.191765
0.149471
0.117974
0.0970951
0.0905498
0.144917
0.33541
0.261698
0.202346
0.156232
0.122093
0.0994909
0.0918962
0.145822
0.330721
0.258464
0.20034
0.155139
0.121698
0.099658
0.0927293
0.149007
0.300355
0.237683
0.186919
0.147047
0.117357
0.0979933
0.0933714
0.154979
0.256655
0.208873
0.168482
0.135974
0.111562
0.0960982
0.0950043
0.16463
0.227348
0.186326
0.151814
0.123954
0.102894
0.0894952
0.0888533
0.152986
0.271834
0.216416
0.171674
0.136437
0.110035
0.0927377
0.088863
0.147185
0.310345
0.243355
0.189655
0.147869
0.116841
0.0963386
0.0901223
0.145176
0.331994
0.258213
0.199499
0.154155
0.120699
0.0986085
0.0914323
0.146125
0.326655
0.254517
0.197142
0.152818
0.120139
0.0986747
0.0922059
0.149252
0.29631
0.23385
0.183797
0.14474
0.115773
0.0969685
0.0927871
0.15507
0.252745
0.205318
0.165587
0.133804
0.110046
0.0950926
0.0943841
0.16456
0.228398
0.18634
0.151114
0.122864
0.101709
0.0884187
0.0879234
0.151636
0.273135
0.216472
0.170941
0.135277
0.10879
0.0916426
0.0879922
0.146079
0.311388
0.243052
0.188653
0.146538
0.115494
0.0952094
0.0892897
0.144234
0.332287
0.257225
0.198023
0.152537
0.119196
0.0974158
0.0906044
0.14526
0.326058
0.252886
0.195226
0.150939
0.118488
0.0974103
0.0913427
0.148319
0.294864
0.23177
0.181609
0.142698
0.114049
0.0956686
0.0918747
0.153953
0.250633
0.202973
0.163314
0.131776
0.108379
0.0938341
0.0934476
0.163213
0.229438
0.185623
0.149316
0.12068
0.0996745
0.0868252
0.0868278
0.150107
0.275428
0.216495
0.169459
0.133145
0.106705
0.0900118
0.0869249
0.144755
0.313816
0.243278
0.187292
0.144415
0.113373
0.0935642
0.0882703
0.143081
0.33369
0.256882
0.196368
0.150257
0.116995
0.0957513
0.0896214
0.14419
0.32616
0.251661
0.193057
0.148394
0.116178
0.0957237
0.0903707
0.147202
0.293821
0.229777
0.179003
0.139983
0.111714
0.0940008
0.0909076
0.152706
0.248812
0.200515
0.160541
0.129104
0.106167
0.0922812
0.0925424
0.161848
0.228342
0.182375
0.145267
0.116873
0.0966607
0.0847607
0.0856864
0.149341
0.276731
0.214345
0.165663
0.129225
0.103522
0.0878542
0.0857975
0.144237
0.316745
0.242112
0.183867
0.140512
0.110115
0.0913775
0.0872168
0.14292
0.336428
0.255766
0.19299
0.146343
0.113718
0.0935874
0.0886537
0.144266
0.327267
0.249685
0.189294
0.144347
0.1129
0.0936059
0.0894747
0.147308
0.293112
0.226718
0.174806
0.135885
0.108507
0.0919713
0.0900798
0.152682
0.246368
0.196629
0.156185
0.125169
0.103186
0.0904352
0.0918428
0.161751
0.222176
0.17524
0.138846
0.11192
0.0932082
0.0825284
0.0844417
0.149666
0.273103
0.207663
0.158828
0.123755
0.0997376
0.0854895
0.084563
0.144811
0.315866
0.236576
0.177118
0.134787
0.106119
0.0889464
0.0860663
0.143982
0.336295
0.250876
0.186445
0.140598
0.109686
0.0911855
0.0876246
0.145728
0.326104
0.24439
0.182681
0.138653
0.108935
0.0912854
0.0885592
0.148896
0.289961
0.220498
0.168075
0.130367
0.104738
0.0898012
0.0892867
0.154211
0.24099
0.189834
0.149737
0.120116
0.0997786
0.0885019
0.091236
0.163418
0.209127
0.165095
0.131721
0.107236
0.0901965
0.0805279
0.0830845
0.150386
0.258787
0.19579
0.150377
0.118304
0.0963924
0.0834162
0.0832658
0.145771
0.302844
0.224343
0.167934
0.128831
0.102559
0.0868588
0.0848779
0.145434
0.325301
0.239166
0.177179
0.134514
0.106097
0.0891637
0.0865846
0.147643
0.315076
0.232834
0.173568
0.132685
0.10544
0.0893695
0.0876784
0.151169
0.277536
0.208967
0.159414
0.124768
0.101472
0.0880455
0.0885824
0.156748
0.228514
0.179351
0.142137
0.115217
0.0969051
0.0869809
0.090761
0.166466
0.192938
0.15442
0.125045
0.103133
0.08757
0.0786075
0.0813392
0.148905
0.237309
0.181881
0.141945
0.113387
0.0934856
0.0814924
0.0816556
0.144579
0.278884
0.208226
0.158139
0.12327
0.0994536
0.0849604
0.0833894
0.14453
0.300549
0.222358
0.166921
0.128748
0.102975
0.0873549
0.0852435
0.147084
0.291238
0.216702
0.163748
0.127176
0.102502
0.0877338
0.0865527
0.151151
0.255664
0.19452
0.150703
0.119887
0.0988817
0.086644
0.087709
0.157337
0.210924
0.167687
0.135046
0.111202
0.0947595
0.0858336
0.0901232
0.16772
0.317287
0.243531
0.18506
0.140016
0.106991
0.0853171
0.0776318
0.122509
0.388742
0.286236
0.210446
0.154466
0.114284
0.0878831
0.076764
0.115113
0.443891
0.318537
0.229017
0.164795
0.119591
0.0900111
0.0767444
0.111234
0.454437
0.322785
0.23046
0.165247
0.119877
0.0903702
0.0768818
0.109999
0.408509
0.294015
0.21253
0.154457
0.113773
0.0872303
0.0755902
0.109963
0.335592
0.247869
0.184164
0.13781
0.104768
0.0831386
0.0746679
0.112863
0.261379
0.202014
0.156363
0.121766
0.0964777
0.0799694
0.0751886
0.119586
0.323973
0.24932
0.189876
0.144384
0.111332
0.089899
0.0830192
0.133023
0.39573
0.293637
0.216732
0.159858
0.119291
0.0928947
0.0823582
0.125555
0.448618
0.3265
0.236497
0.171227
0.12534
0.0955147
0.0826243
0.121819
0.457542
0.330649
0.238388
0.172256
0.126118
0.0961424
0.0828739
0.120715
0.413359
0.302093
0.220464
0.161566
0.120167
0.0932037
0.0817817
0.121001
0.342563
0.255957
0.191799
0.144741
0.111095
0.0890984
0.0809085
0.124112
0.268913
0.209664
0.163547
0.128386
0.102605
0.0858214
0.081508
0.131432
0.326541
0.250812
0.191483
0.146684
0.114344
0.0935128
0.0875858
0.143085
0.401037
0.297184
0.219535
0.162883
0.122804
0.0968738
0.0870772
0.135504
0.454173
0.331709
0.240631
0.175159
0.129497
0.0999274
0.0876009
0.132026
0.461608
0.335905
0.243057
0.176805
0.130732
0.100801
0.087966
0.130971
0.417917
0.307073
0.225209
0.166388
0.125061
0.0981033
0.0870797
0.13149
0.347092
0.260534
0.196547
0.149694
0.116094
0.094056
0.086299
0.134881
0.27309
0.214222
0.168414
0.133398
0.107587
0.0907591
0.0870072
0.142735
0.32221
0.247959
0.190729
0.147636
0.116384
0.096212
0.0911182
0.151793
0.399632
0.295303
0.219192
0.164171
0.125175
0.0998396
0.0907107
0.14409
0.457228
0.331874
0.241361
0.177216
0.132429
0.103301
0.0914781
0.140748
0.464554
0.33681
0.244613
0.179517
0.134115
0.104413
0.0919543
0.139801
0.418712
0.307642
0.227174
0.169588
0.128828
0.101994
0.0912887
0.140579
0.346131
0.261388
0.199149
0.153332
0.12009
0.0980584
0.090647
0.144361
0.273582
0.216418
0.171817
0.137374
0.111664
0.0947807
0.0914622
0.15263
0.310282
0.241536
0.188164
0.147375
0.117364
0.0978689
0.093458
0.157771
0.384703
0.287043
0.215861
0.163773
0.126279
0.101623
0.0931197
0.150006
0.44384
0.323748
0.238174
0.177146
0.133865
0.105385
0.0940335
0.14656
0.452718
0.329788
0.24237
0.18016
0.136029
0.106757
0.0946519
0.145806
0.40702
0.302247
0.226368
0.171184
0.131329
0.1047
0.0942401
0.146947
0.337854
0.258922
0.200097
0.155806
0.122998
0.100958
0.0937823
0.151254
0.270675
0.216928
0.174151
0.140386
0.114741
0.0977524
0.0946954
0.159842
0.292766
0.232366
0.183759
0.145557
0.116979
0.0983657
0.0946986
0.160858
0.357533
0.273456
0.209724
0.161397
0.125784
0.102147
0.0943798
0.15304
0.410085
0.306829
0.230861
0.174497
0.133399
0.105991
0.0953464
0.149421
0.42055
0.314041
0.236023
0.178247
0.136025
0.107606
0.096093
0.148847
0.382532
0.291314
0.222683
0.170705
0.132116
0.10598
0.0959521
0.150441
0.323842
0.253749
0.199229
0.156666
0.124429
0.102582
0.0957022
0.155209
0.265105
0.215789
0.175022
0.141947
0.116443
0.0995021
0.0967346
0.164115
0.27613
0.222793
0.178243
0.142453
0.115441
0.0979495
0.0951989
0.162414
0.331617
0.259802
0.202528
0.157623
0.12399
0.101635
0.0948375
0.154554
0.374002
0.289077
0.222182
0.170219
0.131441
0.105425
0.0958147
0.150904
0.385069
0.297104
0.228168
0.174572
0.134419
0.107234
0.0966406
0.150357
0.357702
0.279918
0.217708
0.168584
0.13136
0.106064
0.0967449
0.152342
0.310688
0.248147
0.19707
0.155964
0.124423
0.103042
0.0966849
0.157415
0.259415
0.213646
0.174422
0.141974
0.116797
0.100166
0.0978631
0.166595
0.264153
0.214857
0.172977
0.139098
0.113527
0.0971401
0.0953088
0.163735
0.314786
0.249678
0.196265
0.153784
0.121832
0.100706
0.0948909
0.155875
0.352194
0.277022
0.215198
0.166101
0.129192
0.104469
0.0958767
0.152325
0.363226
0.285843
0.221908
0.170915
0.132397
0.106383
0.0967496
0.151787
0.343117
0.27252
0.213605
0.166159
0.13003
0.10556
0.0970039
0.153932
0.303306
0.244409
0.194913
0.154629
0.123669
0.102838
0.0970886
0.159156
0.256107
0.211822
0.173259
0.141206
0.116394
0.100162
0.0983839
0.168489
0.257175
0.209371
0.168916
0.136325
0.111815
0.0962507
0.0951069
0.164823
0.306985
0.24375
0.191865
0.150765
0.119966
0.0997307
0.0946599
0.157031
0.344469
0.271359
0.210932
0.163118
0.127318
0.103498
0.0956578
0.153633
0.357067
0.281387
0.218411
0.168359
0.130737
0.105496
0.0965801
0.153203
0.340072
0.270105
0.211406
0.164377
0.128795
0.104869
0.0968974
0.155352
0.302624
0.243378
0.19368
0.153502
0.122832
0.102343
0.0970431
0.160545
0.25607
0.211283
0.172472
0.140433
0.115783
0.0997885
0.098373
0.169863
0.253571
0.205991
0.16612
0.134203
0.110318
0.0952705
0.0945289
0.164876
0.304335
0.240696
0.189089
0.148563
0.118378
0.0987012
0.0940993
0.15728
0.344057
0.269444
0.208664
0.161129
0.125833
0.1025
0.0951218
0.154042
0.358593
0.280787
0.216892
0.166743
0.1294
0.104565
0.0960815
0.153743
0.343426
0.270697
0.210703
0.163288
0.127742
0.104056
0.0964085
0.155824
0.30571
0.244224
0.193393
0.152749
0.121974
0.101594
0.0965197
0.160842
0.258241
0.211981
0.172319
0.139852
0.115048
0.0990735
0.0977824
0.169932
0.251611
0.203727
0.163894
0.132208
0.108685
0.0940502
0.0936456
0.163669
0.303725
0.238976
0.187038
0.146563
0.116676
0.0974322
0.0932471
0.156359
0.346315
0.269048
0.207225
0.15939
0.124205
0.101238
0.0942822
0.153254
0.363222
0.281794
0.216236
0.165396
0.127952
0.103365