/*--------------------------------*- C++ -*----------------------------------*\
| =========                 |                                                 |
| \\      /  F ield         | OpenFOAM: The Open Source CFD Toolbox           |
|  \\    /   O peration     | Version:  plus.master.MPPICInterFoam            |
|   \\  /    A nd           | Web:      www.OpenFOAM.com                      |
|    \\/     M anipulation  |                                                 |
\*---------------------------------------------------------------------------*/
FoamFile
{
    version     2.0;
    format      ascii;
    class       volScalarField;
    location    "6.2";
    object      k;
}
// * * * * * * * * * * * * * * * * * * * * * * * * * * * * * * * * * * * * * //

dimensions      [0 2 -2 0 0 0 0];

internalField   nonuniform List<scalar> 
11821
(
0.0540311
0.0583402
0.0479667
0.0551749
0.0482325
0.0404857
0.0503935
0.0578333
0.063151
0.0640882
0.0597772
0.0526757
0.0447178
0.058997
0.0683142
0.072092
0.0711877
0.0701615
0.0621595
0.0515575
0.0658044
0.0738492
0.0707883
0.0659589
0.0732793
0.0699475
0.0568622
0.0674565
0.0746158
0.075558
0.0681646
0.0751272
0.0725508
0.0584923
0.064178
0.0736032
0.0758192
0.073232
0.0757649
0.0683643
0.0554675
0.0564102
0.0659229
0.072581
0.0739473
0.0687433
0.0594748
0.0492599
0.0470349
0.0541993
0.0593132
0.0602429
0.056115
0.0493341
0.0418312
0.0520952
0.0596986
0.0650678
0.0658901
0.0615687
0.0544663
0.0464801
0.0606458
0.0709747
0.0781759
0.0777817
0.0734336
0.0637619
0.0531152
0.0672506
0.0793215
0.0776392
0.0751005
0.0785522
0.0712121
0.0579663
0.0691585
0.0809063
0.0757761
0.0732136
0.0792311
0.0735662
0.0592967
0.0651297
0.0773268
0.0808925
0.0802001
0.0793174
0.0689279
0.0562279
0.0570977
0.0670594
0.0750929
0.0766874
0.0698265
0.0600998
0.0501839
0.0477002
0.0547524
0.0597096
0.0605694
0.0565765
0.0501292
0.0428935
0.0533541
0.0610611
0.0660988
0.0668862
0.0627208
0.0558686
0.047807
0.0618789
0.0720613
0.0788091
0.0799277
0.0744633
0.0647948
0.0543665
0.0680183
0.0795497
0.0820893
0.0779407
0.0816554
0.0715329
0.0588487
0.0695813
0.0814138
0.0774889
0.0770881
0.0830353
0.0733306
0.0598126
0.065229
0.0772304
0.0830355
0.0832941
0.0794734
0.0688408
0.0566729
0.0572036
0.0668962
0.074463
0.0757873
0.0694893
0.0602798
0.0507418
0.0479168
0.0548189
0.0595219
0.0602997
0.0566479
0.050566
0.0435797
0.0536477
0.0616746
0.0663858
0.066621
0.0632565
0.0565546
0.048502
0.062258
0.0704819
0.0742959
0.0771583
0.0721302
0.0647743
0.0551136
0.0681877
0.0764057
0.0769743
0.0778222
0.0780702
0.0704571
0.0595493
0.0691936
0.0804313
0.0760612
0.0761873
0.0809222
0.0716713
0.0602342
0.0646753
0.076022
0.0817102
0.0817219
0.0776392
0.0677539
0.0568786
0.0566428
0.0660536
0.073146
0.0741353
0.0684844
0.0598755
0.0509067
0.0476766
0.0544304
0.0590698
0.0598283
0.0564098
0.0505799
0.0439425
0.0529416
0.0610042
0.0662142
0.0669083
0.0630669
0.0563669
0.0486956
0.0611948
0.0686089
0.0702889
0.0687502
0.0682043
0.0642207
0.0551851
0.0669359
0.0722641
0.0682534
0.0693521
0.070427
0.0691431
0.0595481
0.0679243
0.0742812
0.0733967
0.0719558
0.0730913
0.0703301
0.0601253
0.0630245
0.0725988
0.0770548
0.0764435
0.072649
0.066426
0.056638
0.0554544
0.0641987
0.0707081
0.0716416
0.0666974
0.0589955
0.0508314
0.0472163
0.0536391
0.058202
0.0590145
0.0558321
0.0504222
0.0442708
0.0515567
0.0590187
0.0645281
0.0654178
0.0617766
0.0555949
0.0485875
0.058922
0.0668611
0.0706831
0.0696882
0.0683566
0.0630955
0.0546379
0.0642281
0.0715222
0.0699569
0.0674389
0.0704973
0.0684256
0.0588194
0.0647051
0.0726958
0.0690411
0.070426
0.0726753
0.0691203
0.0593391
0.0604063
0.0692854
0.0744771
0.0736555
0.0710232
0.0648744
0.0559838
0.0539455
0.0616527
0.0675505
0.0688941
0.0647423
0.0579954
0.0506944
0.0466963
0.0525446
0.0567039
0.0576692
0.054996
0.0502491
0.044643
0.0503485
0.0572194
0.0620383
0.0634868
0.0603731
0.0548886
0.0484698
0.056979
0.0652251
0.0697976
0.0705308
0.0678876
0.0621346
0.0539823
0.0613352
0.0695644
0.0731209
0.0693359
0.0711675
0.0671932
0.0576049
0.0618396
0.0706899
0.0753896
0.0712186
0.070738
0.0678252
0.0580849
0.0585106
0.0671969
0.0724415
0.0725344
0.0697666
0.0637596
0.0553378
0.0528718
0.0599148
0.0648952
0.0664476
0.0631679
0.05736
0.0507017
0.0463214
0.0517235
0.0553526
0.0563388
0.0542945
0.0502394
0.0450516
0.0494933
0.0559373
0.0603514
0.061518
0.059222
0.0545101
0.0485422
0.0556088
0.0638523
0.0686238
0.0694329
0.0672815
0.0611519
0.0537628
0.0596684
0.0688835
0.0720626
0.0686893
0.0708837
0.0654881
0.0570517
0.0602212
0.069542
0.0727485
0.0700754
0.0720076
0.0662607
0.0575819
0.0572567
0.065601
0.070687
0.0720197
0.0695241
0.0629305
0.0552514
0.0522246
0.0588232
0.0634553
0.0647549
0.0622479
0.0571921
0.0510031
0.0461037
0.0513228
0.0547588
0.0557849
0.0541579
0.0505129
0.0455271
0.0490871
0.0553563
0.0597305
0.0611852
0.0592662
0.0548376
0.0489854
0.0548954
0.0625539
0.0668785
0.0678097
0.0663743
0.0613952
0.0542838
0.0587126
0.0671523
0.0697479
0.0684939
0.0685877
0.065659
0.0576306
0.0593999
0.068096
0.0704166
0.0699642
0.0717427
0.0663869
0.0582093
0.0568016
0.0647587
0.0694034
0.0713161
0.0688444
0.0633269
0.0559809
0.0521137
0.0586555
0.0633916
0.0649
0.0627231
0.0578941
0.051775
0.0461695
0.0514695
0.0550264
0.0562182
0.0547784
0.0512356
0.0462134
0.049137
0.0554556
0.0598502
0.0613255
0.059742
0.0555636
0.0497193
0.0549663
0.0621346
0.0645699
0.0643604
0.0657693
0.0614992
0.0552578
0.0587484
0.0658035
0.0641583
0.0647852
0.0657331
0.0655559
0.0587696
0.0595154
0.0666135
0.0649353
0.0652056
0.0650047
0.0662643
0.059474
0.0571027
0.0646066
0.0671599
0.0663579
0.067854
0.0638339
0.0572621
0.0525374
0.0592417
0.0641353
0.0658989
0.0638251
0.0591859
0.0529861
0.0465943
0.0521301
0.0559569
0.0573398
0.0559972
0.0524018
0.0472049
0.0495271
0.0561833
0.0610392
0.0626429
0.0612112
0.0568612
0.0507433
0.0556036
0.0632297
0.0665613
0.0671352
0.0660017
0.0635064
0.0567909
0.0595894
0.0674035
0.0679252
0.0675782
0.0667033
0.0672756
0.0606956
0.0604807
0.0682975
0.0687695
0.0694953
0.0676689
0.0675573
0.0615399
0.0581034
0.0662255
0.0693939
0.0689935
0.0688346
0.0664111
0.0593222
0.0534525
0.0606977
0.0661751
0.0679565
0.0662944
0.0613908
0.054739
0.0473351
0.0532695
0.0575305
0.0591283
0.0578797
0.0540765
0.048544
0.0500245
0.0570285
0.0621996
0.0643978
0.0628201
0.0582993
0.0518331
0.0563882
0.0647164
0.0693756
0.0705961
0.0695342
0.0658208
0.0584449
0.0606477
0.069795
0.0723114
0.0718781
0.0735355
0.0705616
0.0628906
0.0617088
0.0709399
0.0737758
0.0696243
0.0735097
0.0716651
0.064108
0.0594319
0.0686166
0.0732163
0.0750164
0.0738386
0.0702485
0.0619071
0.0546104
0.0625682
0.0687844
0.0713178
0.0695817
0.0642977
0.0568534
0.0481526
0.0545734
0.0593135
0.0613018
0.0600719
0.0560167
0.0499985
0.0504634
0.0580183
0.0637438
0.0662
0.0647211
0.0598227
0.0527921
0.0573117
0.0667816
0.0736324
0.074867
0.0743739
0.0688858
0.060194
0.0619762
0.0729311
0.075944
0.0735132
0.0789553
0.0751213
0.06542
0.0633164
0.0749058
0.0779117
0.0733316
0.0785956
0.0773695
0.0671857
0.060979
0.0715951
0.0789277
0.078381
0.0798603
0.0747039
0.0648782
0.0556767
0.0646703
0.0715086
0.0745854
0.0728984
0.0674945
0.0588516
0.0486773
0.0556909
0.0610075
0.0634353
0.062184
0.0577424
0.0510956
0.050328
0.0585445
0.0648661
0.0676494
0.0661451
0.0608926
0.0531103
0.05772
0.0681329
0.0747465
0.0775723
0.0758515
0.0707511
0.0613975
0.0628691
0.0741072
0.0789284
0.0774713
0.080327
0.0768975
0.0673502
0.0643961
0.0756322
0.0798194
0.0772863
0.0795336
0.0769743
0.0699964
0.0618098
0.0737812
0.079871
0.0817954
0.0800731
0.076759
0.0664768
0.0558177
0.0657163
0.0738336
0.0771582
0.075709
0.0689166
0.059549
0.0482526
0.0558012
0.0617824
0.0645041
0.0632502
0.0582593
0.0509743
0.048592
0.0566586
0.0630515
0.0662029
0.0648121
0.0593733
0.0515026
0.0559119
0.0646954
0.0714846
0.0752191
0.0726123
0.0675457
0.0595493
0.0606458
0.0707448
0.0750554
0.072744
0.071859
0.0714519
0.064305
0.0618332
0.0729365
0.0749925
0.0732847
0.0746812
0.0760979
0.064128
0.0593834
0.0663997
0.0728381
0.0751112
0.0744954
0.0677755
0.0624416
0.0536273
0.0618485
0.0669373
0.0693006
0.0672777
0.0639028
0.0571614
0.0462811
0.0536384
0.0593883
0.0617765
0.0608122
0.0561663
0.048926
0.0458274
0.0526659
0.0573267
0.0593516
0.0586889
0.0550662
0.0483586
0.0523445
0.0584488
0.0628827
0.0637074
0.0643505
0.0623182
0.0552811
0.056628
0.06273
0.0640731
0.0650427
0.0645501
0.0642342
0.058995
0.0578674
0.0637325
0.0653631
0.0655021
0.06504
0.0630742
0.059577
0.0557142
0.0637628
0.06559
0.0673078
0.0654518
0.0659856
0.058717
0.0504635
0.0583331
0.0630873
0.0655388
0.0650214
0.0609344
0.0534944
0.0437431
0.0505206
0.0561124
0.0586317
0.057492
0.0527948
0.0459694
0.0107615
0.00466015
0.0290586
0.0237606
0.0192419
0.0151752
0.0110455
0.00472232
0.0447414
0.0361608
0.0293937
0.0239157
0.0193011
0.0151857
0.0110327
0.00468775
0.0426846
0.034626
0.0282365
0.0230404
0.0186452
0.0147069
0.0107053
0.00455083
0.0382557
0.0314657
0.025977
0.0214098
0.0174663
0.0138671
0.0101418
0.0043425
0.0329207
0.0277953
0.0233764
0.0195293
0.0160988
0.0128852
0.00947413
0.0041111
0.0370441
0.0316888
0.0269033
0.0226017
0.0186807
0.0149688
0.0110247
0.00487606
0.0418478
0.0349248
0.0291487
0.0241904
0.019807
0.0157514
0.0115327
0.00501076
0.0454572
0.037332
0.0307561
0.0252688
0.0205308
0.0162275
0.0118257
0.0050763
0.046455
0.0378877
0.0310402
0.0254014
0.0205815
0.0162356
0.0118124
0.00504118
0.0442592
0.0362534
0.029809
0.0244747
0.0198938
0.0157385
0.011475
0.00489926
0.0397696
0.033019
0.0274704
0.0227754
0.0186625
0.0148638
0.0108918
0.00468241
0.0344056
0.0292726
0.0247801
0.0208107
0.0172251
0.0138283
0.0101869
0.00443393
0.0386743
0.0331952
0.0282575
0.023799
0.0197188
0.015836
0.011683
0.00518514
0.0434333
0.0364422
0.0305385
0.0254307
0.0208852
0.0166504
0.0122141
0.00533011
0.0468519
0.0387787
0.0321281
0.0265183
0.0216266
0.0171437
0.012518
0.00540028
0.0476572
0.0392283
0.0323661
0.0266334
0.0216742
0.0171538
0.0125072
0.00536564
0.0453852
0.0375195
0.0310811
0.0256743
0.0209678
0.016646
0.0121638
0.00522004
0.0409245
0.0342554
0.028699
0.0239341
0.0197048
0.0157494
0.0115671
0.00499618
0.0355857
0.0304797
0.0259575
0.0219141
0.0182174
0.0146745
0.0108357
0.00473488
0.0398912
0.0343373
0.0293271
0.0247883
0.0206071
0.0165942
0.0122664
0.00547067
0.0446446
0.0376025
0.0316419
0.0264612
0.0218129
0.0174402
0.0128191
0.00562573
0.0479329
0.0398908
0.0332248
0.0275618
0.0225747
0.0179529
0.0131368
0.00570224
0.0485541
0.0402531
0.0334275
0.0276692
0.0226256
0.017969
0.0131307
0.00566873
0.0461898
0.0384818
0.0321107
0.0266945
0.0219103
0.0174556
0.0127838
0.00551997
0.0417465
0.0352124
0.0297157
0.0249376
0.0206299
0.0165439
0.0121768
0.00528964
0.0364671
0.0314476
0.0269551
0.0228836
0.0191073
0.0154407
0.0114263
0.00501781
0.0407294
0.0352169
0.0302184
0.025644
0.0213799
0.0172462
0.0127595
0.00571874
0.0454795
0.0384995
0.0325721
0.0273641
0.022629
0.0181255
0.0133339
0.00588365
0.0487216
0.0407669
0.0341626
0.0284891
0.0234193
0.0186625
0.013668
0.00596688
0.0492258
0.0410802
0.0343522
0.0286012
0.0234809
0.018689
0.0136693
0.00593521
0.0467626
0.0392746
0.0330257
0.027622
0.0227622
0.0181733
0.0133216
0.00578473
0.0423507
0.0360362
0.0306415
0.0258582
0.0214676
0.017249
0.0127069
0.00554986
0.0371979
0.0323182
0.0278775
0.0237785
0.0199155
0.016122
0.0119414
0.00526971
0.0413204
0.0359435
0.0309847
0.0263676
0.0220077
0.0177506
0.0131216
0.00590095
0.0459936
0.0392244
0.0333787
0.0281394
0.0233027
0.0186643
0.0137183
0.00607493
0.0491688
0.0414722
0.0349877
0.0292998
0.0241286
0.0192291
0.0140701
0.00616389
0.049612
0.0417693
0.0351879
0.0294309
0.0242093
0.0192712
0.014082
0.00613531
0.0471439
0.0399858
0.0338758
0.0284583
0.0234942
0.0187595
0.0137392
0.00598669
0.0428847
0.0368295
0.0315157
0.0266897
0.022188
0.0178273
0.0131227
0.00575176
0.0379284
0.0331753
0.0287475
0.0245816
0.0206068
0.0166798
0.0123467
0.00546732
0.0416854
0.0364809
0.0315517
0.0268778
0.0224245
0.0180665
0.0133345
0.00600783
0.0461664
0.0397243
0.0339762
0.0286975
0.0237631
0.0190133
0.0139533
0.00618992
0.0491958
0.0419293
0.0356032
0.0298959
0.0246253
0.0196054
0.0143218
0.00628328
0.0496241
0.0422443
0.0358314
0.0300559
0.0247324
0.0196682
0.0143481
0.0062595
0.0473178
0.0405593
0.0345699
0.0291102
0.0240346
0.019171
0.0140177
0.00611653
0.0433477
0.0375268
0.0322462
0.0273455
0.0227269
0.018241
0.0134075
0.00588616
0.0386004
0.0339269
0.0294671
0.0252101
0.0211231
0.0170806
0.0126273
0.00560168
0.0418865
0.0368006
0.0318738
0.0271502
0.022637
0.0182242
0.0134392
0.00606456
0.0461788
0.0400139
0.0343284
0.0290133
0.0240147
0.0192012
0.0140783
0.00625383
0.0489983
0.0421766
0.035977
0.0302468
0.0249096
0.0198177
0.0144623
0.00635157
0.0494459
0.0425313
0.036248
0.0304498
0.0250503
0.0199054
0.0145053
0.00633379
0.0474286
0.040983
0.0350549
0.0295425
0.0243805
0.0194302
0.0141911
0.0061975
0.0437469
0.0380609
0.0327675
0.0277916
0.0230834
0.0185114
0.0135917
0.0059728
0.039137
0.034486
0.0299746
0.0256374
0.0214671
0.0173461
0.0128122
0.00569012
0.0420767
0.0370098
0.0320508
0.027287
0.0227429
0.0183074
0.0134987
0.00610316
0.04632
0.0402598
0.0345624
0.0292025
0.0241615
0.0193135
0.0141558
0.00629897
0.0490611
0.0424416
0.036259
0.0304827
0.0250921
0.0199552
0.0145558
0.00640241
0.0495678
0.0428599
0.0365872
0.0307319
0.0252689
0.0200689
0.0146157
0.00639051
0.0477364
0.0413984
0.035442
0.0298602
0.0246271
0.0196144
0.0143151
0.0062588
0.0441951
0.0385189
0.0331689
0.0281192
0.0233404
0.0187053
0.0137234
0.00603677
0.0396116
0.0349258
0.0303506
0.0259458
0.0217135
0.0175361
0.0129442
0.00575451
0.042439
0.0372766
0.0322348
0.0274128
0.0228304
0.0183675
0.0135351
0.00613011
0.0468143
0.0406499
0.0348463
0.0294011
0.0242983
0.0194038
0.0142079
0.00633165
0.0496445
0.0429296
0.0366241
0.0307459
0.0252746
0.0200753
0.0146251
0.00644154
0.0502241
0.0434175
0.037015
0.0310446
0.0254871
0.0202133
0.0146995
0.00643408
0.0484357
0.0419796
0.0358925
0.0301943
0.0248626
0.0197706
0.014406
0.00630381
0.0448692
0.0390695
0.0335994
0.0284426
0.0235713
0.0188599
0.013814
0.00608056
0.0401924
0.0354009
0.0307259
0.0262317
0.0219221
0.0176795
0.0130309
0.00579616
0.0429942
0.037661
0.0324827
0.0275571
0.0228985
0.0183835
0.0135199
0.00612696
0.0476051
0.0412219
0.0352312
0.0296385
0.0244217
0.0194475
0.0142034
0.00633212
0.0506168
0.0436564
0.0371263
0.0310673
0.0254529
0.0201503
0.0146357
0.00644682
0.0512959
0.0442323
0.0375909
0.0314199
0.0257015
0.0203093
0.0147202
0.0064417
0.0495085
0.0427988
0.0364748
0.0305731
0.0250794
0.0198684
0.0144278
0.00631102
0.0458383
0.0398051
0.0341204
0.0287791
0.0237615
0.0189434
0.0138297
0.00608509
0.0409757
0.0359926
0.0311429
0.0265003
0.0220728
0.017744
0.0130399
0.00579785
0.0436985
0.0381048
0.0327157
0.0276317
0.0228692
0.0182993
0.0134215
0.00608263
0.0486748
0.0419274
0.0356383
0.0298143
0.0244407
0.0193801
0.0141072
0.00628811
0.0519853
0.0445904
0.0376978
0.0313461
0.0255273
0.0201074
0.0145475
0.00640458
0.0528158
0.0452916
0.0382532
0.0317566
0.025807
0.0202803
0.0146363
0.00640014
0.051001
0.0438363
0.0371179
0.0308966
0.0251771
0.0198347
0.0143413
0.00626819
0.0471111
0.040676
0.0346431
0.0290252
0.0238168
0.0188906
0.0137366
0.00604022
0.0419247
0.0366257
0.0315051
0.0266518
0.022082
0.0176742
0.0129436
0.00575216
0.0443361
0.0384089
0.0327621
0.0275121
0.0226731
0.0180958
0.0132559
0.00602224
0.049743
0.0425229
0.0358569
0.0297759
0.0242687
0.0191738
0.0139323
0.0062234
0.0534556
0.0454741
0.0380987
0.0314037
0.0253937
0.0199098
0.0143709
0.00633918
0.0545554
0.0463491
0.0387552
0.0318647
0.0256946
0.0200868
0.0144578
0.00633461
0.0526833
0.0448364
0.0375746
0.0309745
0.0250453
0.0196306
0.0141566
0.0061997
0.0484352
0.041417
0.0349318
0.0290106
0.0236439
0.0186727
0.0135486
0.00596949
0.0427722
0.0370512
0.0316073
0.0265464
0.021878
0.0174539
0.0127615
0.00568433
0.0446679
0.0383563
0.0324665
0.0271213
0.0223032
0.0178126
0.0130841
0.00598856
0.0505773
0.042762
0.0356933
0.029415
0.0238808
0.0188615
0.0137377
0.00618425
0.0547879
0.0460216
0.0380922
0.0310964
0.025007
0.0195831
0.014165
0.00630032
0.0562219
0.0470619
0.038822
0.0315784
0.0253016
0.0197483
0.014243
0.00629428
0.0541285
0.0454058
0.0375472
0.030635
0.0246293
0.0192813
0.0139338
0.00615267
0.0493576
0.0416555
0.0347247
0.0285984
0.0232114
0.0183246
0.0133261
0.0059158
0.0431269
0.0369616
0.0312517
0.0260966
0.0214574
0.0171285
0.0125564
0.00563232
0.0443336
0.0377291
0.0317521
0.0264897
0.02184
0.0175326
0.0129666
0.00599753
0.0506328
0.0422891
0.0349787
0.028717
0.0233456
0.0185276
0.0135872
0.0061879
0.0552531
0.0457188
0.0374139
0.0303675
0.0244275
0.0192168
0.0139985
0.00630602
0.0568263
0.046743
0.0381112
0.0308127
0.0246921
0.0193621
0.0140649
0.0062966
0.0543205
0.0449235
0.0367554
0.0298416
0.0240122
0.018888
0.0137447
0.00614298
0.049091
0.0409459
0.0338591
0.0278128
0.0226207
0.0179465
0.0131363
0.00589349
0.0424856
0.0361131
0.0303978
0.0253793
0.0209323
0.0167934
0.0123873
0.00560879
0.042806
0.0363973
0.0307239
0.0257857
0.0214111
0.0173103
0.0128922
0.00604288
0.048927
0.04077
0.0337641
0.0278717
0.0228249
0.0182497
0.0134795
0.00622484
0.0535096
0.0440906
0.0360757
0.0294258
0.0238486
0.0189088
0.013877
0.00634287
0.0548029
0.0450139
0.0367084
0.029825
0.0240849
0.0190356
0.0139307
0.00632714
0.0522738
0.0431602
0.0353559
0.0288661
0.0234048
0.0185496
0.0135929
0.00615805
0.0471042
0.0392687
0.0325713
0.0269207
0.0220534
0.0176156
0.0129747
0.00589331
0.0407406
0.0346739
0.0293156
0.0246283
0.020445
0.0164996
0.0122381
0.00560489
0.0406658
0.0348435
0.0296747
0.0251191
0.0210074
0.0170748
0.0127696
0.00605397
0.0462875
0.0388573
0.0324711
0.027053
0.0223304
0.0179584
0.0133202
0.00621978
0.0503447
0.041914
0.0346103
0.0285059
0.0232983
0.0185836
0.0136933
0.00632387
0.0515922
0.0427781
0.0351855
0.0288679
0.0235083
0.0186903
0.0137295
0.00629626
0.0492484
0.0409686
0.0338698
0.027923
0.0228246
0.0181901
0.0133767
0.00611869
0.0444786
0.0373428
0.0312599
0.0260683
0.0215067
0.0172612
0.0127544
0.00585007
0.0386586
0.033149
0.0282598
0.0239165
0.0199651
0.0161717
0.0120255
0.00556016
0.0384901
0.0323395
0.0269158
0.0221757
0.0180121
0.0142231
0.0103411
0.00445805
0.0456673
0.0375367
0.030645
0.0248011
0.019814
0.0154235
0.0110978
0.00471528
0.0517428
0.042129
0.0340012
0.0271719
0.0214286
0.0164814
0.0117486
0.00495003
0.0546224
0.0444006
0.0357468
0.0284617
0.0223384
0.017093
0.0121338
0.00510897
0.0532171
0.0434901
0.0352277
0.0282053
0.0222345
0.0170682
0.0121454
0.005149
0.0481759
0.0399393
0.0328048
0.0266066
0.0212228
0.016458
0.011806
0.00507836
0.041733
0.0353814
0.0295944
0.0243896
0.0197419
0.0155094
0.0112383
0.00493277
0.039247
0.0331498
0.0277628
0.0230315
0.0188366
0.0149665
0.0109352
0.00474507
0.0463796
0.0382819
0.0314248
0.0256057
0.0206095
0.0161561
0.0116912
0.00500734
0.0525353
0.0428934
0.0347572
0.0279368
0.02219
0.0171926
0.0123314
0.00524162
0.0557032
0.0453288
0.0365774
0.0292452
0.0230934
0.0177922
0.0127069
0.00539821
0.0544385
0.0445757
0.0361655
0.0290371
0.0230028
0.0177636
0.0127098
0.00543358
0.0495803
0.0411438
0.0338176
0.0274861
0.0220113
0.0171545
0.012363
0.00535632
0.0431522
0.036595
0.0306245
0.025287
0.0205376
0.0162018
0.0117859
0.00520358
0.0396563
0.0336958
0.0284207
0.0237524
0.0195594
0.0156293
0.0114695
0.00501335
0.0466393
0.0386733
0.0319576
0.0262459
0.0212906
0.0168024
0.0122219
0.00528033
0.0527753
0.0432205
0.0351998
0.0284989
0.0228203
0.017812
0.0128501
0.00551467
0.0561454
0.0457691
0.0370451
0.0297917
0.0236996
0.0183924
0.0132137
0.00566901
0.0551834
0.0451945
0.0367208
0.0296166
0.0236119
0.0183547
0.013206
0.00569959
0.0505354
0.0418782
0.0344524
0.0281092
0.0226347
0.017742
0.0128492
0.00561453
0.0440781
0.0373513
0.031303
0.0259423
0.021173
0.0167867
0.012264
0.00545453
0.0398452
0.0341148
0.0289955
0.0243985
0.0202008
0.0162056
0.0119252
0.00524878
0.046498
0.0388438
0.0323736
0.0268051
0.0218913
0.0173626
0.0126727
0.00551891
0.0525157
0.0432197
0.0354689
0.0289613
0.0233669
0.0183448
0.0132875
0.00575178
0.0560885
0.0458071
0.0372819
0.0302092
0.0242109
0.0189017
0.0136367
0.00590263
0.0553455
0.0453456
0.0370017
0.0300431
0.0241143
0.0188501
0.0136171
0.00592868
0.0507492
0.0421177
0.0348063
0.0285695
0.0231424
0.0182291
0.0132495
0.00583689
0.044366
0.037689
0.0317312
0.0264407
0.0216919
0.0172709
0.0126573
0.00567047
0.0399448
0.0344828
0.0295056
0.0249481
0.0207208
0.0166528
0.0122653
0.00542593
0.0461047
0.0389147
0.0327237
0.0272756
0.0223744
0.0177928
0.0130045
0.0056953
0.0517239
0.0429843
0.0356268
0.0293248
0.0237929
0.0187433
0.0136001
0.00592173
0.0552897
0.0454537
0.0373287
0.0304953
0.0245869
0.0192677
0.0139283
0.00606526
0.0546819
0.0450595
0.0370648
0.0303182
0.0244711
0.0191977
0.013895
0.00608643
0.0502524
0.0419827
0.0349556
0.028878
0.0235033
0.01857
0.0135199
0.00599145
0.0441595
0.0377515
0.0319872
0.0267954
0.0220669
0.0176115
0.0129227
0.00582069
0.0399432
0.0347307
0.029858
0.0253167
0.0210596
0.0169384
0.0124777
0.00553778
0.0455548
0.0388738
0.0329296
0.0275688
0.0226725
0.0180553
0.0132033
0.00580261
0.0504842
0.0425438
0.0356163
0.0294996
0.0240221
0.018963
0.0137719
0.00601811
0.0535501
0.0446923
0.0371318
0.0305611
0.0247486
0.0194437
0.0140721
0.00615082
0.0530715
0.0443149
0.036847
0.0303545
0.0246053
0.0193517
0.0140232
0.0061664
0.049107
0.0415048
0.0348592
0.0289605
0.0236508
0.0187244
0.0136453
0.00607101
0.0435664
0.0375681
0.0320306
0.0269387
0.0222376
0.017771
0.0130454
0.00589726
0.039853
0.0348074
0.0300076
0.0254895
0.0212317
0.0170946
0.0126003
0.0056063
0.0450702
0.0387292
0.0329517
0.0276646
0.0227972
0.0181835
0.0133103
0.00586613
0.0494371
0.0420696
0.0354449
0.0294754
0.02407
0.0190429
0.0138507
0.0060716
0.0519146
0.043899
0.0367775
0.0304238
0.0247233
0.0194766
0.0141226
0.00619402
0.0513978
0.0434753
0.0364492
0.0301815
0.024551
0.0193622
0.0140581
0.0062036
0.0479682
0.0409107
0.0345704
0.0288339
0.023615
0.0187397
0.0136792
0.00610761
0.0429016
0.0372268
0.0318698
0.0268751
0.0222293
0.0177936
0.0130768
0.00593059
0.0397655
0.034806
0.0300558
0.0255675
0.0213262
0.0171918
0.0126827
0.00565625
0.0447381
0.0385737
0.0328981
0.0276753
0.0228496
0.018257
0.0133811
0.00591379
0.0487442
0.0416887
0.035242
0.0293852
0.0240569
0.0190781
0.0139022
0.00611449
0.0509054
0.0433127
0.0364385
0.0302408
0.0246488
0.0194744
0.0141539
0.00623084
0.0503279
0.0428363
0.0360679
0.0299629
0.0244485
0.0193397
0.0140758
0.00623519
0.0471307
0.0403965
0.0342522
0.0286474
0.0235262
0.018719
0.0136936
0.00613648
0.0423525
0.0368694
0.0316363
0.0267329
0.0221592
0.0177759
0.0130872
0.00595533
0.0398352
0.0348829
0.0301367
0.025651
0.0214067
0.0172617
0.0127344
0.00568967
0.0446923
0.0385646
0.0329171
0.0277187
0.022907
0.018316
0.0134296
0.00594856
0.0485121
0.0415481
0.0351655
0.0293644
0.0240754
0.0191184
0.0139441
0.00614976
0.0504862
0.0430467
0.0362719
0.0301575
0.0246279
0.0194936
0.0141864
0.00626459
0.049844
0.042521
0.0358614
0.0298469
0.0244048
0.019343
0.0140985
0.00626547
0.0467364
0.040123
0.0340669
0.0285395
0.0234805
0.018716
0.0137094
0.00616227
0.0420723
0.0366533
0.0314815
0.0266386
0.0221158
0.0177687
0.0130974
0.00597676
0.0401454
0.0351065
0.0302875
0.0257432
0.0214539
0.0172771
0.0127292
0.00569214
0.0449931
0.038775
0.0330581
0.0278061
0.0229543
0.0183349
0.0134287
0.00595469
0.0487352
0.0416997
0.0352656
0.0294281
0.024114
0.0191361
0.0139457
0.00615889
0.050602
0.0431207
0.0363167
0.0301863
0.0246488
0.0195038
0.0141865
0.00627486
0.0498971
0.0425437
0.0358661
0.0298479
0.0244069
0.0193417
0.0140925
0.00627381
0.0467772
0.0401242
0.0340508
0.028522
0.0234671
0.0187031
0.0136951
0.00616606
0.0420842
0.0366311
0.0314471
0.026606
0.0220905
0.0177475
0.0130773
0.00597644
0.0406104
0.0353826
0.0304122
0.0257587
0.0214033
0.0171975
0.0126488
0.00566012
0.0455713
0.0391246
0.0332297
0.0278486
0.0229188
0.0182641
0.0133547
0.00592643
0.0493508
0.0420722
0.0354549
0.0294847
0.0240884
0.0190726
0.0138776
0.00613393
0.0511745
0.0434568
0.0364834
0.0302319
0.024619
0.0194403
0.0141207
0.0062518
0.0503774
0.042811
0.0359855
0.0298659
0.0243612
0.0192703
0.0140231
0.00624933
0.0471319
0.0403054
0.0341116
0.0285016
0.0234005
0.0186207
0.0136192
0.0061379
0.0422946
0.0367209
0.0314519
0.0265555
0.0220108
0.0176599
0.0129977
0.00594513
0.0409958
0.0354983
0.0303395
0.0255835
0.0211992
0.0170139
0.0125139
0.00561884
0.0461994
0.0393927
0.0332416
0.0277126
0.0227291
0.0180861
0.013224
0.00588722
0.0501077
0.0424365
0.0355298
0.0293828
0.0239148
0.0189032
0.0137531
0.00609768
0.0518969
0.0438112
0.0365601
0.0301349
0.0244503
0.0192755
0.0140012
0.00621759
0.05097
0.043077
0.0360106
0.0297417
0.024181
0.0191024
0.013903
0.00621427
0.0475379
0.0404463
0.034062
0.0283422
0.0232076
0.0184486
0.0134958
0.00610077
0.0425006
0.0367401
0.0313396
0.0263734
0.0218154
0.0174903
0.0128747
0.00590774
0.0409861
0.035214
0.0299237
0.0251597
0.0208468
0.016767
0.0123763
0.00559415
0.0465163
0.0392744
0.0328879
0.0272976
0.0223682
0.017832
0.0130852
0.00586743
0.050697
0.0424802
0.0352554
0.0289957
0.0235604
0.0186524
0.0136211
0.00608637
0.052551
0.0439086
0.0363219
0.0297675
0.0241067
0.0190336
0.0138778
0.00621213
0.0514712
0.0430969
0.0357398
0.0293652
0.0238408
0.0188658
0.0137832
0.00620937
0.0477925
0.0403265
0.033731
0.0279532
0.0228712
0.0182175
0.0133774
0.00609268
0.0424865
0.0364881
0.0309663
0.0259894
0.0214981
0.0172751
0.0127638
0.00589805
0.0402347
0.0343838
0.0291693
0.024572
0.0204477
0.0165369
0.0122821
0.00559633
0.0459811
0.0384909
0.0320979
0.0266577
0.0219319
0.0175851
0.012989
0.00587655
0.0504302
0.0418218
0.0344925
0.0283431
0.0231103
0.0184039
0.0135341
0.0061091
0.0524212
0.0433453
0.0356036
0.0291302
0.0236645
0.0187956
0.013804
0.00624585
0.0512841
0.0425186
0.0350296
0.0287445
0.023413
0.0186392
0.0137176
0.00624541
0.0474264
0.0396704
0.0330146
0.0273549
0.0224676
0.0180065
0.0133191
0.0061249
0.0419241
0.0357849
0.0302847
0.0254475
0.021141
0.0170932
0.0127212
0.00592997
0.0387001
0.0331885
0.0283193
0.0240173
0.0201134
0.0163545
0.0122058
0.00561491
0.0442146
0.0370969
0.0311036
0.0260186
0.0215604
0.0173942
0.0129171
0.00590333
0.0486365
0.0403683
0.033427
0.0276595
0.0227261
0.0182222
0.0134802
0.00615168
0.0507681
0.0419391
0.0345407
0.028446
0.0232898
0.0186322
0.0137708
0.00630225
0.0496733
0.0411473
0.033995
0.0280829
0.0230567
0.018492
0.0136997
0.00630924
0.045819
0.0383409
0.0320402
0.0267404
0.0221404
0.0178764
0.0133123
0.00619015
0.0404691
0.0346081
0.0294405
0.0249209
0.0208657
0.0169932
0.0127335
0.00600009
0.0370315
0.0320271
0.0275562
0.0235276
0.019794
0.0161366
0.0120608
0.0055892
0.0421075
0.0356539
0.0301835
0.0254576
0.021219
0.0171776
0.0127804
0.00588304
0.046358
0.0387562
0.0324007
0.0270553
0.0223821
0.0180212
0.0133617
0.00613982
0.0483951
0.0402805
0.0334902
0.027841
0.0229619
0.018454
0.0136738
0.00630105
0.0473758
0.0395541
0.0329963
0.0275142
0.0227579
0.0183402
0.0136264
0.00632285
0.043689
0.0368929
0.0311459
0.026236
0.0218803
0.0177516
0.013261
0.00621789
0.0387167
0.0334138
0.0287029
0.0245063
0.020656
0.0169
0.0127057
0.00604134
0.0412665
0.0349749
0.0292628
0.0241341
0.0195521
0.0153766
0.011158
0.00490726
0.0467581
0.038718
0.0318545
0.0259154
0.0207404
0.0161422
0.0116361
0.00505303
0.0505814
0.0413082
0.0336013
0.0270888
0.0215164
0.0166372
0.011948
0.0051541
0.051232
0.0416512
0.0337922
0.027223
0.0216418
0.0167668
0.012054
0.00518775
0.0481496
0.0394824
0.0322815
0.0262013
0.0209814
0.0163614
0.0118252
0.00511058
0.0429342
0.0357545
0.0296819
0.0244431
0.019841
0.01566
0.0114167
0.00497973
0.0370244
0.0316278
0.0268043
0.022473
0.0185362
0.0148276
0.0109062
0.00481917
0.0427698
0.036278
0.030371
0.0250915
0.0203918
0.0160992
0.0117222
0.00518223
0.0484837
0.0402658
0.0331733
0.0270354
0.0217037
0.0169576
0.0122635
0.00535273
0.0523918
0.043025
0.0351018
0.0283628
0.0225986
0.0175438
0.0126364
0.0054748
0.0530443
0.0434339
0.0353778
0.028582
0.0227954
0.0177182
0.0127689
0.00551865
0.0499866
0.0412534
0.0338571
0.0275628
0.0221441
0.017327
0.0125498
0.0054467
0.0447402
0.0374387
0.0311778
0.0257491
0.0209664
0.0165981
0.0121221
0.00530511
0.0387038
0.0331728
0.0281874
0.0236934
0.0195939
0.0157107
0.0115755
0.00513225
0.0437799
0.0371181
0.031118
0.0257992
0.0210658
0.0167107
0.0122153
0.00543755
0.0497558
0.0413429
0.0340937
0.0278705
0.022478
0.0176505
0.0128104
0.00562938
0.0537724
0.0443017
0.0361956
0.0293296
0.0234757
0.0183131
0.0132335
0.0057743
0.0544345
0.0447778
0.036556
0.0296313
0.0237352
0.0185284
0.0133928
0.00582531
0.0514021
0.0425766
0.0350363
0.0286307
0.0231056
0.0181547
0.0131848
0.00575583
0.0461095
0.0386845
0.0323153
0.0267958
0.0219115
0.0174078
0.0127423
0.00560659
0.0399556
0.0343388
0.029274
0.0246973
0.0204961
0.0164809
0.0121678
0.00542177
0.0441675
0.0375318
0.0316055
0.0263432
0.0216185
0.0172182
0.0126225
0.0056586
0.0503763
0.0419064
0.0346872
0.028504
0.0231101
0.0182235
0.0132599
0.00586796
0.0546852
0.0450741
0.036933
0.0300788
0.0241996
0.0189569
0.0137297
0.00603038
0.0554062
0.0456526
0.0373951
0.0304612
0.0245183
0.0192093
0.0139105
0.00608902
0.0522967
0.0434324
0.0359013
0.0294957
0.0239182
0.0188565
0.0137157
0.00602269
0.0469069
0.0395256
0.0331944
0.0276685
0.0227199
0.0180975
0.0132639
0.00587034
0.0408026
0.0352222
0.0301684
0.0255576
0.0212753
0.0171393
0.0126668
0.00567366
0.0440432
0.0376571
0.0319115
0.0267369
0.0220229
0.0175791
0.0129008
0.0058141
0.0502251
0.0420221
0.0350208
0.0289502
0.0235727
0.0186285
0.0135702
0.00603619
0.054781
0.0453074
0.0373533
0.0306075
0.0247317
0.01942
0.0140702
0.00620544
0.0556484
0.0460032
0.0379183
0.0310715
0.0251099
0.0197091
0.0142728
0.0062727
0.0524988
0.0438663
0.0365184
0.0301761
0.0245571
0.019387
0.014097
0.00621329
0.0472238
0.0400959
0.0338995
0.0283886
0.0233696
0.0186266
0.0136483
0.00606501
0.0413769
0.0359352
0.0309269
0.0262791
0.0219053
0.0176477
0.0130334
0.00585971
0.0435071
0.03752
0.0319935
0.0269117
0.0222178
0.0177552
0.0130337
0.00589503
0.0493006
0.041714
0.0350608
0.0291401
0.0237989
0.0188357
0.0137242
0.0061233