/*--------------------------------*- C++ -*----------------------------------*\
| =========                 |                                                 |
| \\      /  F ield         | OpenFOAM: The Open Source CFD Toolbox           |
|  \\    /   O peration     | Version:  plus.master.MPPICInterFoam            |
|   \\  /    A nd           | Web:      www.OpenFOAM.com                      |
|    \\/     M anipulation  |                                                 |
\*---------------------------------------------------------------------------*/
FoamFile
{
    version     2.0;
    format      ascii;
    class       volScalarField;
    location    "6.2";
    object      p_rgh;
}
// * * * * * * * * * * * * * * * * * * * * * * * * * * * * * * * * * * * * * //

dimensions      [1 -1 -2 0 0 0 0];

internalField   nonuniform List<scalar> 
11821
(
5658.38
5527.07
5659.23
5636.14
5659.36
5660.18
5662.89
5586.64
5377.7
5233.15
5493.75
5648.67
5666
5554.11
4835.5
3941.09
3668.2
4430.95
5365.66
5666.27
5288.76
3916.75
3235.06
3216.84
3436.96
4888.18
5666.58
5120.28
3908.45
4115.74
3298.2
3316.47
4696.41
5664.8
5436.87
4125.63
3312
3297.65
3741.26
5067.29
5666.72
5649.68
5215.43
4584.22
4364.73
4879.35
5534.89
5666.32
5666.31
5666.48
5641.29
5601.38
5652.72
5666.38
5666.25
5667.02
5538.2
5367.75
5248.77
5452.55
5638.78
5673.98
5525.88
4944.49
4532.53
4088.45
4747.37
5351.8
5675.11
5290.57
4340.35
3340.69
3151.7
3692.42
4976.8
5671.33
5148.81
4086.55
3584.27
3144.52
3432.57
4767.12
5659.62
5448.33
4448.43
3376.92
3282.36
4037.55
5136.64
5675.83
5657.7
5344.12
4956.64
4802.49
5113.3
5551.97
5674.5
5673.82
5674.81
5672.71
5665.9
5674.06
5674.47
5673.47
5662.84
5425.16
5154.06
5070.67
5272.32
5602.83
5676.25
5454.19
4720.84
4649.51
4579.64
4699.24
5185.57
5676.68
5187.18
4406.37
3938.42
3236.04
4214.44
4881.37
5658.09
5068.95
4131.65
3270.7
3071.44
3899.46
4694.85
5635.19
5416.78
4480.78
3584.91
3469.74
4201.54
5050.49
5677.14
5657.65
5346.44
5023.89
4935.82
5130.44
5535.32
5676.72
5676.49
5676.93
5677.49
5677.76
5677.25
5676.69
5676.21
5651.19
5242
4665.57
4586.29
4948.53
5532.5
5675.26
5304.83
3947
3777.4
4188.46
3921.73
4783.47
5673.93
4862.71
3732.79
3794.72
3619.66
3921.76
4378.77
5623.35
4808.03
3755.05
2984.67
2984.31
3786.79
4291.99
5598.22
5308.63
4126.45
3458.39
3386.38
3863.31
4729.55
5673.61
5647.04
5241.81
4792.98
4745.26
4949.21
5465.24
5675.42
5676.14
5675.24
5674.77
5674.67
5674.81
5675.57
5676.41
5652.8
5162.48
4422.74
4391.61
4816.94
5494.49
5680.88
5245.64
3456.47
2992.48
3117.05
3144.91
4590.82
5679.86
4666.08
3002.2
2935.41
3245.9
3041.58
3987.13
5613.37
4675.14
3025.17
2917.59
2919.01
3073.85
3941.93
5593.57
5271.19
3687.3
3042.09
3002.09
3220.06
4543.96
5677.75
5650.35
5179.69
4524.83
4481.56
4802.43
5440.07
5680.38
5681.28
5680.24
5679.62
5679.48
5679.71
5680.49
5681.48
5676.68
5283.03
4612.01
4609.18
4980.16
5530.71
5695.24
5379.19
3659.76
2976.28
2949.44
3221.03
4774.27
5696.37
4859.75
2976.32
2883.16
2881.09
2889.05
4156.92
5657.36
4872.63
3026.42
2883.59
2881.46
2879.6
4064.17
5640.63
5405.27
3853.42
3040.73
2879.93
3212.83
4723.56
5695.9
5677.47
5304.83
4661.65
4615.4
4963.53
5505.35
5694.63
5694.98
5695.9
5696.79
5696.71
5695.88
5694.64
5693.87
5702.75
5543.41
5145.85
5195.86
5364.36
5601.87
5706.15
5628.74
4546.27
3635.77
3472.23
3980.55
5242.84
5708.31
5381.77
3651.31
3555.26
2836.37
3173.73
4840.87
5690.28
5383.37
3818.23
3708.37
2836.85
3117.92
4770.89
5677.43
5636.48
4626
3759.92
3388.24
3920
5191.29
5707.55
5703.88
5541.82
5144.53
5161.81
5354.93
5601.18
5705.59
5705.57
5707.28
5708.72
5709.01
5707.76
5705.83
5704.23
5708.58
5641.26
5414.46
5431.15
5458.07
5621.78
5708.41
5707.1
5121.45
4233.8
4140.99
4704.29
5330.52
5707.51
5675.05
4488.3
4529.15
3244.66
3718.87
5148.91
5666.7
5656.1
4600.15
4574.92
3275.27
4150.53
5166.92
5652.57
5706.91
5034.29
4267.42
4329.75
4666.93
5252.36
5702.75
5708.49
5615.12
5376.04
5415.21
5447.09
5613.83
5707.54
5707.68
5708.4
5708.93
5709.26
5708.83
5708.04
5707.24
5706.85
5630.36
5359.76
5348.64
5344.24
5602
5706.77
5706.44
5055.65
3985.55
3865.51
4583.5
5055.46
5696.38
5681.4
4405.72
3889.05
4045.31
3426.02
4959.88
5575.23
5655.37
4457.77
3746
4078.93
4163.25
4920.13
5563.25
5705.22
4903.21
3918.43
4106.53
4442.72
4919.41
5683.45
5706.55
5595.79
5286.39
5323.58
5318.78
5583.39
5704.09
5706.69
5706.5
5706.21
5706.07
5706.14
5706.31
5706.44
5707.02
5594.4
5170.48
5014.98
5077.28
5552.64
5706.55
5702.89
4803.95
3279.47
3168.64
3834.56
4502.17
5664.92
5629.1
3984.44
2755.65
4026.34
2849.65
4249.7
5427.89
5590.31
3838.14
2753.78
4046.26
3013.79
3951.58
5436.76
5677.39
4579.27
3071.17
3047.34
3496.34
4414.6
5650.25
5706.69
5552.15
5030.5
4950.63
5021.33
5538.39
5698.1
5707.03
5706.62
5706.28
5705.83
5705.97
5706.21
5706.59
5709.5
5587.35
5138.66
4862.08
5039.57
5548.58
5709.39
5693.51
4773.09
3034.24
3047.98
3113.97
4408.61
5650.48
5591.88
3872.94
2691.5
3995.94
2689.24
3835.72
5399.64
5551.63
3590.24
2691.62
3995.26
2677.26
3319.79
5435.05
5657.08
4578.9
2710.74
2729.19
2810.32
4431.28
5656.75
5709.22
5556.94
5006.59
4724.78
4992.18
5558.41
5693.74
5709.73
5709.7
5709.13
5706.25
5708.11
5709.41
5709.3
5712.09
5616.98
5310.94
5051.1
5242.19
5604.14
5713.31
5693
5053.97
3404.38
3059.11
3250.7
4683.34
5660.03
5617.09
4258.67
2632.32
3383.9
3228.26
4036.81
5464.54
5592.69
3942.64
2632.18
3123.88
2618.17
3527.72
5578.26
5666.06
4999.94
2976.9
2688.86
2956.7
4963.48
5691.62
5712.7
5598.85
5247.27
4878.23
5240.72
5636.5
5685.7
5713.3
5713.64
5702.94
5700.23
5701.48
5712.48
5713.14
5711.11
5625.36
5520.37
5404.28
5505.59
5641.79
5715.3
5684.48
5358.97
4427.35
3591.65
4052.3
5104.25
5657.54
5642.85
4992.1
2750.78
2486.34
3690.66
4649.47
5512.25
5645.19
4812.24
2593.94
2484.79
2552.84
4418.49
5694.7
5654.78
5399.61
4078.02
2794.07
3880.87
5461.74
5609.92
5710
5531.99
5420.55
5202.7
5456
5508.29
5645.51
5715.57
5712.88
5652.78
5639.3
5638
5705.59
5715.52
5687.53
5457.72
5313.5
5304.06
5344.2
5480.74
5696.43
5548.92
4969.94
4592.54
4006.91
4227.2
4854.69
5436.27
5390.06
4950.58
3152.48
2378.45
3573.26
4604.38
5099.67
5371.64
4897.88
2753.51
2390.72
2761.48
4683.39
4956.17
5408.33
4764.91
4461.98
3528.57
4321.62
4387.76
4896.55
5642.63
4942.59
4615.88
4944.96
4694.34
4586.95
5447.98
5711.17
5661.1
5402.82
5231.64
5330.28
5612.96
5710.33
5603.46
4766.6
4081.44
4146.09
4135.84
4662.49
5588.64
5016.47
3323.18
3436.08
3561.43
3254.41
3318.65
4501.66
4368.83
3615.61
3046.76
2288.02
2729.89
3106.19
3530.13
4220.07
3889.7
2722.95
2311
2847.54
4286.72
2971.48
4558.59
2741.83
3098.83
3550.11
3359.11
2369.12
3365.77
5371.37
3665.21
2784.37
3104
2707.21
3019.51
4834.57
5703.19
5445.7
4753.31
4408.28
4596.11
5248.89
5697.51
5528.08
4178.67
2993.9
2791.83
2925.44
3904.29
5444.6
4578.61
2330.7
2243.69
2299.14
2238.64
2293.82
3758.81
3716.83
2301.25
2275.34
2236.26
2237.34
2241.48
2566.72
3581.71
2329.17
2292.8
2255.91
2382.73
2320.08
2400.94
4044.42
2285.19
2246.32
2768.43
2254.1
2265.61
2769.25
5197.18
3173.58
2287.2
2322.93
2291.24
2573.18
4488.63
5701.79
5325.72
4511.99
4176.69
4329.98
5054.81
5682.66
5662.59
5662.74
5661.13
5661.66
5662.05
5662.36
5662.59
5662.77
5659.51
5660.47
5661.17
5661.7
5662.1
5662.4
5662.63
5662.81
5659.76
5660.66
5661.32
5661.82
5662.19
5662.47
5662.68
5662.84
5660.28
5661.03
5661.59
5662
5662.31
5662.55
5662.73
5662.86
5660.94
5661.48
5661.89
5662.21
5662.45
5662.65
5662.79
5662.89
5665.82
5665.9
5666.04
5666.19
5666.31
5666.41
5666.52
5666.71
5666.02
5666.05
5666.12
5666.22
5666.33
5666.46
5666.59
5666.73
5666.14
5666.1
5666.14
5666.22
5666.33
5666.45
5666.6
5666.76
5666.27
5666.16
5666.18
5666.25
5666.35
5666.47
5666.62
5666.78
5666.26
5666.19
5666.22
5666.3
5666.39
5666.51
5666.64
5666.78
5666.15
5666.18
5666.26
5666.34
5666.43
5666.54
5666.66
5666.77
5666.21
5666.29
5666.36
5666.43
5666.51
5666.6
5666.7
5666.79
5672.81
5672.21
5671.81
5671.54
5671.35
5671.27
5671.24
5671.36
5673.64
5672.73
5672.1
5671.68
5671.42
5671.29
5671.29
5671.37
5674.24
5673.08
5672.29
5671.77
5671.46
5671.3
5671.28
5671.37
5674.37
5673.15
5672.33
5671.79
5671.46
5671.29
5671.27
5671.36
5674.02
5672.94
5672.2
5671.72
5671.42
5671.28
5671.26
5671.34
5673.26
5672.49
5671.95
5671.58
5671.35
5671.25
5671.24
5671.3
5672.66
5672.17
5671.78
5671.51
5671.33
5671.25
5671.25
5671.3
5675.75
5675.46
5675.29
5675.2
5675.16
5675.17
5675.24
5675.36
5676.17
5675.75
5675.47
5675.29
5675.19
5675.18
5675.25
5675.38
5676.6
5676
5675.6
5675.35
5675.21
5675.18
5675.24
5675.39
5676.73
5676.08
5675.65
5675.37
5675.22
5675.18
5675.24
5675.39
5676.54
5675.97
5675.59
5675.35
5675.22
5675.19
5675.25
5675.38
5676.16
5675.76
5675.48
5675.3
5675.2
5675.19
5675.25
5675.36
5675.89
5675.64
5675.43
5675.29
5675.22
5675.22
5675.27
5675.36
5676.35
5677.05
5677.66
5678.15
5678.56
5678.91
5679.21
5679.47
5675.69
5676.7
5677.47
5678.04
5678.49
5678.87
5679.21
5679.5
5675.38
5676.5
5677.32
5677.94
5678.43
5678.84
5679.2
5679.52
5675.48
5676.56
5677.36
5677.97
5678.45
5678.85
5679.22
5679.54
5675.92
5676.85
5677.56
5678.11
5678.55
5678.92
5679.26
5679.55
5676.51
5677.28
5677.85
5678.32
5678.69
5679.01
5679.3
5679.55
5677.23
5677.77
5678.2
5678.54
5678.85
5679.11
5679.36
5679.56
5681.87
5682.7
5683.38
5683.93
5684.39
5684.81
5685.21
5685.52
5681.11
5682.18
5683.03
5683.69
5684.24
5684.71
5685.14
5685.5
5680.68
5681.83
5682.77
5683.52
5684.11
5684.62
5685.09
5685.48
5680.64
5681.8
5682.76
5683.5
5684.09
5684.6
5685.07
5685.46
5680.96
5682.05
5682.93
5683.61
5684.17
5684.64
5685.07
5685.43
5681.55
5682.49
5683.24
5683.82
5684.3
5684.71
5685.09
5685.4
5682.36
5683.07
5683.63
5684.08
5684.46
5684.81
5685.13
5685.39
5694.01
5693.6
5693.27
5693.04
5692.93
5692.96
5693.14
5693.35
5694.43
5693.63
5693.16
5692.89
5692.77
5692.81
5693
5693.23
5694.73
5693.7
5693.13
5692.82
5692.68
5692.7
5692.89
5693.14
5694.65
5693.61
5693.05
5692.72
5692.58
5692.6
5692.78
5693.03
5694.13
5693.32
5692.85
5692.59
5692.47
5692.5
5692.67
5692.9
5693.47
5692.97
5692.64
5692.45
5692.38
5692.42
5692.59
5692.79
5693.08
5692.82
5692.59
5692.43
5692.37
5692.41
5692.55
5692.73
5704.2
5702.98
5701.97
5701.17
5700.61
5700.29
5700.22
5700.27
5705.27
5703.44
5702.1
5701.15
5700.51
5700.15
5700.05
5700.12
5706.1
5703.9
5702.34
5701.22
5700.48
5700.05
5699.92
5699.98
5706.04
5703.82
5702.22
5701.09
5700.34
5699.9
5699.75
5699.81
5705.02
5703.14
5701.76
5700.76
5700.08
5699.69
5699.57
5699.62
5703.68
5702.25
5701.15
5700.35
5699.8
5699.49
5699.4
5699.46
5702.54
5701.56
5700.73
5700.08
5699.62
5699.37
5699.3
5699.35
5707.48
5706.68
5705.94
5705.31
5704.86
5704.56
5704.44
5704.43
5708.06
5706.96
5706.05
5705.34
5704.8
5704.45
5704.3
5704.29
5708.52
5707.27
5706.23
5705.4
5704.78
5704.37
5704.18
5704.16
5708.44
5707.19
5706.13
5705.29
5704.65
5704.23
5704.03
5704.01
5707.83
5706.72
5705.76
5704.99
5704.42
5704.04
5703.87
5703.85
5707.05
5706.11
5705.29
5704.64
5704.16
5703.85
5703.71
5703.69
5706.29
5705.57
5704.91
5704.37
5703.97
5703.71
5703.6
5703.58
5707.07
5706.98
5706.83
5706.66
5706.54
5706.46
5706.42
5706.44
5706.92
5706.91
5706.79
5706.63
5706.48
5706.37
5706.32
5706.34
5706.78
5706.85
5706.74
5706.57
5706.41
5706.28
5706.23
5706.25
5706.62
5706.73
5706.63
5706.47
5706.31
5706.18
5706.13
5706.15
5706.58
5706.62
5706.51
5706.35
5706.19
5706.08
5706.03
5706.05
5706.58
5706.53
5706.38
5706.22
5706.08
5705.98
5705.94
5705.95
5706.54
5706.41
5706.25
5706.1
5705.99
5705.91
5705.88
5705.88
5707.21
5707.46
5707.61
5707.7
5707.77
5707.84
5707.9
5707.94
5706.81
5707.22
5707.47
5707.61
5707.7
5707.76
5707.82
5707.88
5706.53
5707.03
5707.32
5707.5
5707.61
5707.69
5707.76
5707.83
5706.37
5706.91
5707.24
5707.44
5707.56
5707.64
5707.71
5707.78
5706.49
5706.96
5707.25
5707.43
5707.54
5707.61
5707.67
5707.74
5706.76
5707.11
5707.32
5707.45
5707.53
5707.59
5707.64
5707.7
5707.06
5707.24
5707.37
5707.47
5707.54
5707.59
5707.63
5707.67
5709.5
5709.6
5709.65
5709.69
5709.73
5709.78
5709.82
5709.86
5709.39
5709.48
5709.55
5709.62
5709.67
5709.72
5709.78
5709.84
5709.35
5709.39
5709.48
5709.56
5709.63
5709.7
5709.77
5709.83
5709.38
5709.38
5709.47
5709.56
5709.63
5709.69
5709.76
5709.82
5709.4
5709.43
5709.51
5709.58
5709.65
5709.7
5709.76
5709.81
5709.34
5709.44
5709.53
5709.6
5709.66
5709.7
5709.75
5709.79
5709.43
5709.5
5709.57
5709.63
5709.68
5709.71
5709.75
5709.78
5712.87
5712.62
5712.41
5712.24
5712.12
5712.04
5712
5711.98
5713.18
5712.77
5712.49
5712.29
5712.15
5712.06
5712.01
5712
5713.47
5712.94
5712.61
5712.38
5712.22
5712.11
5712.04
5712.03
5713.6
5713.04
5712.7
5712.45
5712.28
5712.15
5712.08
5712.06
5713.45
5712.99
5712.68
5712.45
5712.29
5712.16
5712.09
5712.07
5713.07
5712.77
5712.54
5712.37
5712.24
5712.14
5712.08
5712.06
5712.8
5712.6
5712.43
5712.3
5712.2
5712.12
5712.07
5712.05
5715.22
5714.76
5714.38
5714.1
5713.89
5713.72
5713.6
5713.53
5715.7
5715.14
5714.66
5714.29
5714.01
5713.8
5713.65
5713.57
5715.49
5715.49
5714.92
5714.48
5714.14
5713.88
5713.7
5713.6
5695.75
5715.63
5715.04
5714.58
5714.22
5713.94
5713.74
5713.64
5716.02
5715.49
5714.95
5714.53
5714.2
5713.95
5713.77
5713.68
5715.64
5715.15
5714.72
5714.39
5714.13
5713.93
5713.79
5713.71
5715.24
5714.81
5714.47
5714.23
5714.04
5713.9
5713.78
5713.72
5711.82
5712.56
5713.1
5713.52
5713.84
5714.05
5714.16
5714.22
5710.79
5712.23
5712.99
5713.5
5713.85
5714.07
5714.19
5714.26
5658.77
5711.91
5712.84
5713.42
5713.8
5714.04
5714.17
5714.25
5555.88
5711.8
5712.81
5713.41
5713.82
5714.07
5714.21
5714.3
5678.72
5711.91
5712.89
5713.51
5713.91
5714.17
5714.32
5714.4
5711.01
5712.4
5713.18
5713.72
5714.09
5714.34
5714.48
5714.55
5712.33
5713
5713.49
5713.89
5714.22
5714.44
5714.57
5714.64
5707.78
5710.32
5712.2
5713.67
5714.81
5715.64
5716.22
5716.63
5703.48
5708.76
5711.34
5713.21
5714.56
5715.52
5716.19
5716.66
5363.49
5707.41
5710.51
5712.65
5714.18
5715.29
5716.06
5716.62
5040.2
5707.01
5710.32
5712.53
5714.15
5715.31
5716.12
5716.7
5448.62
5708.28
5711.11
5713.1
5714.56
5715.63
5716.38
5716.92
5706.85
5710.06
5712.29
5713.94
5715.17
5716.08
5716.71
5717.16
5709.9
5711.86
5713.41
5714.68
5715.68
5716.44
5716.97
5717.36
5715.64
5717.6
5719.2
5720.54
5721.66
5722.6
5723.36
5723.9
5685.36
5716.51
5718.46
5720.06
5721.36
5722.43
5723.3
5723.92
5107.57
5715.66
5717.8
5719.58
5721.05
5722.25
5723.23
5723.95
4732.31
5715.41
5717.63
5719.49
5721.01
5722.26
5723.28
5724.03
5283.25
5716.46
5718.41
5720.06
5721.43
5722.56
5723.49
5724.17
5715.77
5717.71
5719.44
5720.87
5722.04
5723.01
5723.79
5724.36
5717.45
5719.02
5720.41
5721.58
5722.55
5723.36
5724.03
5724.52
5666.2
5666.26
5666.31
5666.38
5666.47
5666.57
5666.68
5666.78
5666.24
5666.22
5666.27
5666.34
5666.43
5666.55
5666.68
5666.81
5666.52
5666.32
5666.29
5666.34
5666.42
5666.54
5666.69
5666.85
5666.47
5666.25
5666.24
5666.31
5666.4
5666.53
5666.69
5666.87
5666.52
5666.29
5666.28
5666.34
5666.43
5666.56
5666.73
5666.9
5666.22
5666.19
5666.25
5666.34
5666.45
5666.58
5666.75
5666.91
5665.94
5666.02
5666.08
5666.23
5666.41
5666.56
5666.73
5666.87
5672.91
5672.37
5671.93
5671.62
5671.42
5671.32
5671.31
5671.36
5673.62
5672.79
5672.19
5671.77
5671.5
5671.37
5671.36
5671.42
5674.63
5673.41
5672.58
5672.01
5671.65
5671.46
5671.43
5671.51
5675.04
5673.71
5672.79
5672.16
5671.75
5671.53
5671.49
5671.58
5675.08
5673.76
5672.85
5672.21
5671.8
5671.59
5671.55
5671.63
5674.32
5673.32
5672.59
5672.08
5671.76
5671.6
5671.57
5671.65
5673.38
5672.69
5672.15
5671.83
5671.64
5671.54
5671.54
5671.62
5676.1
5675.8
5675.55
5675.38
5675.3
5675.28
5675.33
5675.43
5676.48
5676.05
5675.71
5675.48
5675.34
5675.31
5675.35
5675.47
5677.02
5676.41
5675.93
5675.6
5675.41
5675.33
5675.38
5675.52
5677.13
5676.57
5676.03
5675.67
5675.45
5675.36
5675.4
5675.55
5676.99
5676.46
5675.99
5675.66
5675.46
5675.38
5675.42
5675.57
5676.51
5676.15
5675.82
5675.58
5675.44
5675.39
5675.44
5675.58
5676.16
5675.85
5675.57
5675.45
5675.38
5675.37
5675.42
5675.55
5676.99
5677.6
5678.07
5678.46
5678.8
5679.1
5679.36
5679.59
5676.26
5677.13
5677.77
5678.27
5678.67
5679.02
5679.33
5679.6
5675.57
5676.66
5677.44
5678.03
5678.5
5678.9
5679.26
5679.59
5675.03
5676.32
5677.2
5677.86
5678.38
5678.81
5679.21
5679.56
5674.82
5676.2
5677.12
5677.81
5678.34
5678.79
5679.18
5679.53
5675.28
5676.52
5677.35
5677.97
5678.45
5678.85
5679.21
5679.52
5676.23
5677.03
5677.64
5678.14
5678.55
5678.91
5679.22
5679.5
5682.14
5682.94
5683.57
5684.09
5684.52
5684.91
5685.26
5685.55
5681.28
5682.36
5683.19
5683.84
5684.37
5684.82
5685.24
5685.58
5680.59
5681.82
5682.8
5683.57
5684.19
5684.72
5685.2
5685.6
5680.23
5681.49
5682.55
5683.4
5684.07
5684.65
5685.17
5685.6
5680.3
5681.52
5682.57
5683.41
5684.08
5684.65
5685.17
5685.6
5680.79
5681.96
5682.89
5683.63
5684.22
5684.74
5685.21
5685.6
5681.52
5682.47
5683.24
5683.86
5684.38
5684.84
5685.25
5685.6
5693.82
5693.42
5693.12
5692.91
5692.81
5692.84
5692.98
5693.16
5694.61
5693.83
5693.34
5693.03
5692.9
5692.91
5693.07
5693.28
5695.81
5694.43
5693.69
5693.25
5693.04
5693.03
5693.19
5693.42
5696.76
5694.9
5693.96
5693.44
5693.18
5693.14
5693.3
5693.55
5696.72
5694.92
5694.01
5693.5
5693.25
5693.22
5693.38
5693.64
5695.85
5694.6
5693.9
5693.48
5693.29
5693.28
5693.45
5693.69
5694.64
5694.07
5693.69
5693.43
5693.31
5693.33
5693.5
5693.72
5703.55
5702.39
5701.44
5700.71
5700.21
5699.91
5699.82
5699.86
5705.13
5703.38
5702.06
5701.11
5700.47
5700.11
5699.99
5700.04
5706.97
5704.58
5702.88
5701.66
5700.85
5700.38
5700.22
5700.26
5708.37
5705.45
5703.49
5702.1
5701.17
5700.63
5700.44
5700.48
5708.34
5705.48
5703.56
5702.2
5701.29
5700.76
5700.58
5700.62
5706.97
5704.73
5703.13
5701.99
5701.23
5700.79
5700.65
5700.7
5705.16
5703.76
5702.64
5701.77
5701.16
5700.8
5700.72
5700.76
5706.67
5705.96
5705.32
5704.78
5704.37
5704.11
5703.99
5703.98
5707.48
5706.55
5705.74
5705.09
5704.6
5704.29
5704.14
5704.13
5708.24
5707.21
5706.26
5705.48
5704.9
5704.51
5704.33
5704.31
5708.75
5707.66
5706.64
5705.79
5705.14
5704.71
5704.52
5704.49
5708.79
5707.72
5706.71
5705.88
5705.25
5704.83
5704.64
5704.62
5708.38
5707.39
5706.49
5705.76
5705.22
5704.87
5704.71
5704.7
5707.74
5706.99
5706.27
5705.67
5705.19
5704.88
5704.77
5704.76
5706.77
5706.7
5706.57
5706.43
5706.31
5706.23
5706.2
5706.21
5706.86
5706.85
5706.74
5706.59
5706.45
5706.35
5706.3
5706.31
5706.83
5706.93
5706.86
5706.72
5706.56
5706.45
5706.4
5706.42
5706.8
5707
5706.96
5706.82
5706.66
5706.54
5706.49
5706.51
5706.94
5707.11
5707.04
5706.88
5706.73
5706.61
5706.57
5706.59
5707.08
5707.14
5707.05
5706.9
5706.76
5706.66
5706.62
5706.63
5707.17
5707.14
5707.03
5706.89
5706.75
5706.68
5706.66
5706.67
5707.43
5707.61
5707.73
5707.82
5707.88
5707.92
5707.96
5708
5707.3
5707.62
5707.8
5707.9
5707.95
5707.99
5708.02
5708.06
5707.16
5707.55
5707.78
5707.9
5707.96
5708.01
5708.06
5708.12
5707.05
5707.52
5707.77
5707.9
5707.98
5708.04
5708.09
5708.15
5707.17
5707.6
5707.82
5707.95
5708.02
5708.07
5708.12
5708.18
5707.37
5707.71
5707.9
5708
5708.06
5708.1
5708.14
5708.19
5707.55
5707.77
5707.91
5708
5708.05
5708.11
5708.16
5708.2
5709.78
5709.83
5709.88
5709.93
5709.96
5709.99
5710.02
5710.04
5709.86
5709.9
5709.94
5709.97
5710
5710.02
5710.05
5710.08
5710.04
5709.99
5709.98
5709.99
5710.02
5710.04
5710.08
5710.12
5710.03
5709.98
5709.97
5709.99
5710.02
5710.05
5710.09
5710.13
5710.07
5710
5710
5710.02
5710.03
5710.06
5710.1
5710.14
5710.02
5709.99
5710
5710.02
5710.04
5710.07
5710.1
5710.13
5709.91
5709.95
5709.98
5710
5710.02
5710.06
5710.09
5710.11
5712.99
5712.77
5712.58
5712.44
5712.33
5712.25
5712.19
5712.16
5713.25
5712.95
5712.71
5712.51
5712.37
5712.27
5712.21
5712.18
5713.61
5713.16
5712.84
5712.6
5712.43
5712.31
5712.24
5712.21
5713.74
5713.24
5712.88
5712.63
5712.45
5712.32
5712.24
5712.22
5713.7
5713.2
5712.85
5712.6
5712.43
5712.31
5712.24
5712.21
5713.49
5713.05
5712.75
5712.54
5712.39
5712.28
5712.22
5712.19
5713.08
5712.82
5712.61
5712.45
5712.33
5712.25
5712.19
5712.15
5715.21
5714.79
5714.47
5714.25
5714.08
5713.94
5713.83
5713.76
5715.64
5715.1
5714.68
5714.38
5714.15
5713.97
5713.84
5713.77
5716.08
5715.44
5714.91
5714.51
5714.22
5714
5713.84
5713.76
5716.3
5715.59
5715
5714.56
5714.24
5714
5713.83
5713.75
5716.27
5715.54
5714.96
5714.52
5714.21
5713.98
5713.81
5713.72
5715.94
5715.29
5714.78
5714.42
5714.15
5713.94
5713.78
5713.7
5715.42
5714.93
5714.53
5714.25
5714.04
5713.87
5713.73
5713.65
5712.67
5713.23
5713.71
5714.11
5714.42
5714.63
5714.75
5714.81
5711.9
5712.86
5713.51
5714
5714.34
5714.56
5714.69
5714.76
5711.34
5712.58
5713.32
5713.85
5714.21
5714.45
5714.59
5714.67
5710.99
5712.49
5713.25
5713.77
5714.13
5714.36
5714.5
5714.58
5711.18
5712.56
5713.27
5713.77
5714.11
5714.33
5714.45
5714.52
5711.81
5712.79
5713.4
5713.85
5714.15
5714.34
5714.44
5714.48
5712.54
5713.11
5713.52
5713.86
5714.12
5714.29
5714.38
5714.4
5710.34
5712.25
5713.8
5715.03
5715.99
5716.71
5717.21
5717.58
5707.94
5710.83
5712.9
5714.47
5715.63
5716.46
5717.04
5717.46
5705.92
5709.53
5712.01
5713.82
5715.16
5716.13
5716.8
5717.28
5690.28
5708.87
5711.51
5713.45
5714.86
5715.89
5716.6
5717.12
5704.06
5708.9
5711.52
5713.42
5714.81
5715.81
5716.5
5716.99
5706.28
5709.7
5712.04
5713.75
5714.99
5715.87
5716.48
5716.91
5708.63
5711.02
5712.76
5714.1
5715.14
5715.9
5716.42
5716.8
5717.74
5719.32
5720.65
5721.77
5722.7
5723.48
5724.11
5724.56
5716.13
5718.14
5719.81
5721.17
5722.27
5723.17
5723.9
5724.43
5713.76
5717.07
5718.96
5720.52
5721.79
5722.83
5723.66
5724.28
5658.87
5716.4
5718.41
5720.09
5721.46
5722.58
5723.49
5724.15
5687.34
5716.29
5718.35
5720.02
5721.37
5722.48
5723.37
5724.01
5714.39
5716.8
5718.75
5720.31
5721.55
5722.55
5723.35
5723.92
5715.7
5717.72
5719.33
5720.65
5721.73
5722.61
5723.32
5723.81
5666.04
5666.14
5665.93
5666.31
5666.43
5663.87
5664.09
5666.83
5665.98
5666.01
5665.73
5666.21
5666.33
5659.41
5650.96
5666.46
5666.01
5665.96
5665.8
5665.83
5666.15
5664.11
5648.22
5665.19
5665.89
5665.87
5665.96
5666.08
5662.16
5665.27
5664.76
5666.57
5665.92
5665.9
5665.84
5665.19
5665.83
5661.33
5652.91
5666.3
5665.79
5665.89
5666
5666.12
5666.23
5652.26
5658.83
5666.69
5665.94
5666.04
5666
5666.21
5666.32
5656.37
5665.34
5666.71
5673.51
5672.84
5672.29
5671.9
5671.66
5668.16
5670.46
5671.62
5674.23
5673.23
5672.49
5671.98
5671.65
5654.79
5663.91
5671.57
5674.91
5673.67
5672.72
5671.9
5671.69
5665.24
5652.55
5670.56
5675.09
5673.75
5672.76
5672.09
5671.39
5671.27
5669.7
5671.34
5674.61
5673.42
5672.4
5671.83
5671.56
5659.27
5662.82
5671.36
5673.7
5672.82
5672.17
5671.73
5671.04
5656.81
5667.83
5671.38
5672.99
5672.38
5671.91
5671.59
5671.15
5663.95
5670.75
5671.36
5676.27
5675.99
5675.71
5675.51
5675.39
5672.05
5674.95
5675.54
5676.31
5675.99
5675.68
5675.46
5675.23
5657.89
5671.96
5675.48
5676.33
5676.13
5675.76
5675.46
5675.29
5659.83
5660.51
5675.21
5676.43
5676.21
5675.76
5675.43
5675.25
5675.04
5673.83
5675.3
5676.31
5676
5675.6
5675.36
5675.2
5660.23
5670.94
5675.35
5676.11
5675.77
5675.48
5675.29
5673.02
5660.25
5673.25
5675.34
5675.91
5675.61
5675.38
5675.24
5673.76
5671.53
5675.02
5675.35
5676.29
5677.13
5677.72
5678.18
5678.43
5676.28
5678.96
5679.48
5675.02
5676.31
5677.19
5677.84
5677.52
5660.87
5677.33
5679.41
5674.02
5675.71
5676.76
5677.54
5678.12
5660.7
5672.15
5679.36
5672.64
5675.56
5676.66
5677.44
5678.05
5676.79
5678.03
5679.29
5674.29
5675.82
5676.85
5677.59
5678.04
5663.29
5676.21
5679.33
5675.33
5676.48
5677.29
5677.9
5672.71
5663.42
5677.94
5679.37
5676.38
5677.13
5677.7
5678.15
5675.22
5676.96
5679.13
5679.43
5681.6
5682.58
5683.32
5683.9
5683.91
5683.42
5685.16
5685.59
5680.73
5681.93
5682.87
5683.61
5680.09
5670.49
5684.5
5685.54
5680.33
5681.45
5682.47
5683.31
5683.43
5666.25
5681.39
5685.52
5679.34
5681.28
5682.35
5683.21
5683.9
5681.47
5684.56
5685.46
5680.36
5681.53
5682.55
5683.36
5682.61
5668.85
5683.08
5685.46
5680.88
5682.07
5682.96
5683.66
5674.34
5672.59
5684.71
5685.48
5681.8
5682.71
5683.39
5683.92
5680.76
5683.79
5685.19
5685.5
5694.74
5694.19
5693.78
5693.5
5692.33
5692.81
5693.52
5693.74
5695.99
5694.71
5694.01
5693.59
5685.76
5689.11
5693.45
5693.73
5697.36
5695.3
5694.28
5693.71
5689.36
5674.59
5691.31
5693.75
5697.4
5695.24
5694.22
5693.64
5692.7
5690.66
5693.29
5693.68
5696.38
5694.75
5693.93
5693.47
5687.11
5677.29
5692.49
5693.59
5694.87
5694.05
5693.55
5693.24
5681.97
5688.33
5693.25
5693.49
5693.96
5693.64
5693.34
5693.11
5689.76
5692.6
5693.2
5693.41
5705.26
5703.88
5702.74
5701.85
5699.63
5700.63
5700.77
5700.81
5707.12
5704.91
5703.33
5702.17
5693.16
5700.2
5700.8
5700.83
5709.04
5706.04
5704.05
5702.64
5691.45
5682.29
5700.14
5700.91
5709.36
5706.18
5704.12
5702.65
5695.27
5698.9
5700.79
5700.86
5707.93
5705.33
5703.55
5702.27
5689.98
5692.38
5700.57
5700.73
5705.83
5704.05
5702.7
5701.69
5689.63
5699.34
5700.5
5700.54
5704.18
5703.05
5702.07
5701.07
5698.7
5700.3
5700.34
5700.4
5707.82
5707.08
5706.36
5705.73
5703.52
5704.85
5704.83
5704.81
5708.52
5707.59
5706.71
5705.98
5701.31
5704.93
5704.88
5704.85
5709.13
5708.12
5707.12
5706.23
5693.93
5697.64
5704.87
5704.91
5709.59
5708.4
5707.3
5706.37
5702.37
5703.24
5704.87
5704.89
5709.07
5708
5706.99
5706.06
5693.69
5702.83
5704.83
5704.8
5708.23
5707.33
5706.47
5705.55
5697.46
5704.6
5704.68
5704.65
5707.47
5706.72
5706.02
5704.68
5704.2
5704.66
5704.55
5704.53
5707.25
5707.24
5707.12
5706.72
5705.84
5706.7
5706.7
5706.7
5707.01
5707.19
5707.15
5706.96
5706.23
5706.75
5706.71
5706.7
5706.72
5707.13
5707.16
5707
5694.99
5706.18
5706.71
5706.7
5706.68
5707.15
5707.18
5707.05
5706.81
5705.88
5706.58
5706.67
5706.75
5707.12
5707.11
5706.71
5694.75
5706.21
5706.62
5706.63
5706.92
5707.08
5707.01
5706.01
5705.4
5706.58
5706.56
5706.56
5707.07
5707
5706.86
5705.77
5706.38
5706.52
5706.49
5706.49
5707.59
5707.82
5707.95
5707.33
5707.85
5708.12
5708.16
5708.19
5707.23
5707.64
5707.86
5707.38
5707.62
5708.09
5708.13
5708.16
5706.92
5707.46
5707.75
5707.79
5705.89
5708.02
5708.08
5708.12
5706.58
5707.27
5707.6
5707.03
5707.81
5707.94
5707.85
5708.07
5706.69
5707.3
5707.61
5706.94
5704.25
5707.82
5707.97
5708.04
5706.88
5707.37
5707.62
5706.51
5707.61
5707.92
5707.96
5708.01
5707.23
5707.45
5707.6
5706.92
5707.73
5707.88
5707.93
5707.97
5709.93
5709.95
5709.96
5709.15
5709.89
5710.04
5710.06
5710.08
5709.9
5709.91
5709.9
5709.07
5709.41
5709.99
5710.02
5710.04
5710.04
5709.9
5709.88
5709.68
5709.9
5709.93
5709.97
5710.01
5709.54
5709.63
5709.69
5708.52
5709.71
5709.57
5709.7
5709.95
5709.87
5709.75
5709.73
5708.48
5709.75
5709.78
5709.85
5709.93
5709.58
5709.64
5709.68
5708.45
5709.6
5709.82
5709.86
5709.9
5709.5
5709.57
5709.63
5709.41
5709.72
5709.79
5709.83
5709.87
5713.1
5712.82
5712.57
5711.93
5712.24
5712.22
5712.16
5712.12
5713.48
5713.02
5712.64
5711.59
5711.69
5712.21
5712.13
5712.09
5713.99
5713.31
5712.86
5712.42
5712.34
5712.2
5712.12
5712.08
5713.88
5713.24
5712.78
5711.88
5712.2
5711.57
5711.87
5712.05
5713.85
5713.16
5712.68
5711.15
5712.21
5712.06
5712.02
5712.02
5713.26
5712.83
5712.51
5711.26
5712.07
5712.08
5712.01
5711.98
5712.77
5712.55
5712.36
5712.17
5712.11
5712.03
5711.98
5711.96
5715.44
5714.91
5714.49
5714.12
5713.96
5713.83
5713.69
5713.6
5715.93
5715.26
5714.65
5713.44
5713.53
5713.84
5713.68
5713.58
5716.48
5715.63
5714.97
5714.43
5714.11
5713.84
5713.66
5713.56
5716.63
5715.69
5714.99
5714.47
5713.99
5713.23
5713.44
5713.53
5716.29
5715.48
5714.83
5713.98
5714.02
5713.67
5713.57
5713.51
5715.67
5715.06
5714.56
5714.07
5713.92
5713.74
5713.58
5713.49
5715.08
5714.62
5714.22
5713.99
5713.84
5713.68
5713.56
5713.49
5712.54
5713.07
5713.46
5713.76
5714.04
5714.22
5714.3
5714.33
5711.42
5712.54
5713.12
5712.81
5713.67
5714.11
5714.21
5714.24
5708.79
5712.12
5712.9
5713.4
5713.74
5713.95
5714.09
5714.15
5690.68
5711.92
5712.76
5713.3
5713.46
5713.27
5713.86
5714.09
5703.86
5711.87
5712.7
5713.28
5713.63
5713.62
5713.98
5714.09
5710.76
5712.07
5712.8
5713.34
5713.71
5713.93
5714.06
5714.13
5711.77
5712.44
5712.89
5713.37
5713.76
5713.98
5714.1
5714.16
5708.54
5710.92
5712.65
5713.98
5715.04
5715.8
5716.31
5716.69
5705.21
5708.9
5711.38
5713.12
5714.5
5715.46
5716.09
5716.54
5591.1
5707.35
5710.33
5712.46
5713.97
5715.07
5715.85
5716.39
5470.72
5706.77
5709.92
5712.15
5713.39
5714.3
5715.64
5716.32
5560.58
5707.14
5710.18
5712.33
5713.76
5714.66
5715.77
5716.36
5704.59
5708.46
5711.02
5712.91
5714.3
5715.29
5715.98
5716.47
5707.79
5710.28
5712.04
5713.54
5714.72
5715.57
5716.15
5716.57
5715.56
5717.61
5719.14
5720.51
5721.65
5722.54
5723.25
5723.75
5713.41
5716.18
5718.21
5719.87
5721.18
5722.24
5723.08
5723.67
5408.85
5715.04
5717.31
5719.18
5720.65
5721.87
5722.89
5723.61
5177
5714.56
5716.92
5718.87
5719.88
5721.18
5722.8
5723.61
5348.63
5715.05
5717.27
5719.13
5720.1
5721.53
5722.91
5723.67
5706.43
5716.18
5718.13
5719.76
5721.09
5722.19
5723.1
5723.75
5715.68
5717.64
5719.15
5720.48
5721.62
5722.55
5723.31
5723.86
5660.89
5661.4
5661.83
5662.16
5662.42
5662.61
5662.75
5662.85
5660.44
5661.16
5661.7
5662.09
5662.38
5662.59
5662.74
5662.85
5660.04
5660.89
5661.51
5661.96
5662.29
5662.54
5662.71
5662.83
5659.84
5660.74
5661.4
5661.75
5662.19
5662.5
5662.68
5662.81
5661.44
5661.88
5662.22
5662.48
5662.67
5662.79
5662.7
5662.78
5666.11
5666.18
5666.27
5666.36
5666.45
5666.55
5666.65
5666.73
5666.2
5666.23
5666.3
5666.37
5666.45
5666.54
5666.63
5666.72
5666.33
5666.27
5666.3
5666.33
5666.41
5666.51
5666.61
5666.71
5666.34
5666.25
5666.27
5666.19
5666.34
5666.49
5666.6
5666.7
5666.29
5666.25
5666.24
5666.29
5666.39
5666.49
5666.6
5666.7
5666.24
5666.24
5666.29
5666.36
5666.45
5666.53
5666.61
5666.7
5666.11
5666.17
5666.26
5666.35
5666.45
5666.55
5666.66
5666.75
5672.54
5672.04
5671.68
5671.43
5671.27
5671.2
5671.19
5671.23
5673.24
5672.47
5671.93
5671.57
5671.33
5671.21
5671.19
5671.22
5673.93
5672.89
5672.17
5671.65
5671.37
5671.23
5671.18
5671.22
5674.28
5673.1
5672.26
5671.62
5671.35
5671.24
5671.19
5671.23
5674.02
5672.96
5672.22
5671.71
5671.41
5671.25
5671.2
5671.24
5673.48
5672.63
5672.04
5671.64
5671.39
5671.26
5671.23
5671.27
5672.79
5672.23
5671.83
5671.54
5671.36
5671.27
5671.27
5671.31
5675.78
5675.51
5675.33
5675.22
5675.17
5675.17
5675.22
5675.31
5676.16
5675.77
5675.49
5675.31
5675.21
5675.18
5675.21
5675.3
5676.55
5676.01
5675.61
5675.32
5675.2
5675.17
5675.2
5675.29
5676.84
5676.19
5675.61
5675.28
5675.17
5675.18
5675.2