/*--------------------------------*- C++ -*----------------------------------*\
| =========                 |                                                 |
| \\      /  F ield         | OpenFOAM: The Open Source CFD Toolbox           |
|  \\    /   O peration     | Version:  plus.master.MPPICInterFoam            |
|   \\  /    A nd           | Web:      www.OpenFOAM.com                      |
|    \\/     M anipulation  |                                                 |
\*---------------------------------------------------------------------------*/
FoamFile
{
    version     2.0;
    format      ascii;
    class       volVectorField;
    location    "6.2";
    object      U;
}
// * * * * * * * * * * * * * * * * * * * * * * * * * * * * * * * * * * * * * //

dimensions      [0 1 -1 0 0 0 0];

internalField   nonuniform List<vector> 
11821
(
(0.00249625 -0.00668127 0.562317)
(0.00158219 -0.00793462 0.607418)
(0.00396767 -0.00543648 0.500362)
(0.00227764 -0.00454503 0.564231)
(0.00398198 -0.00428472 0.499627)
(0.00483278 -0.00344655 0.425796)
(-0.00679661 -0.0113003 0.530162)
(-0.00510842 -0.0148168 0.613341)
(-0.00210389 -0.0167288 0.677927)
(0.00135342 -0.0165119 0.694766)
(0.00516988 -0.0152538 0.646295)
(0.00803544 -0.0112379 0.567979)
(0.00900916 -0.00785709 0.483724)
(-0.0103091 -0.0106539 0.60612)
(-0.00849959 -0.0130551 0.738418)
(-0.00321502 -0.0100862 0.882056)
(0.000860143 -0.0089211 0.926825)
(0.00579025 -0.0131579 0.807457)
(0.0104942 -0.0110379 0.660276)
(0.0108929 -0.00847658 0.542341)
(-0.0132417 -0.00751002 0.66491)
(-0.0086007 -0.00758542 0.875295)
(-0.000907756 -0.000670122 1.08952)
(-0.000795547 -0.00536333 1.13692)
(0.00333404 -0.00962072 0.984187)
(0.0120958 -0.00893113 0.741486)
(0.0128881 -0.00746676 0.581826)
(-0.0119121 -0.00474607 0.674971)
(-0.00372267 -0.00576175 0.896395)
(0.00223327 -0.00747211 1.03819)
(0.00158323 -0.00906169 1.17077)
(0.00353431 -0.00796359 1.02473)
(0.0125142 -0.00646944 0.758352)
(0.0137904 -0.00525634 0.587409)
(-0.0125028 -0.0014097 0.624982)
(-0.00877604 -0.00312985 0.802681)
(-0.00302233 -0.0107786 0.976642)
(0.000119794 -0.00670884 1.05504)
(0.00644375 -0.00354084 0.902211)
(0.0134258 -0.00269388 0.69561)
(0.0135705 -0.00226612 0.554725)
(-0.00881722 0.00285425 0.542175)
(-0.00701904 0.00325303 0.647821)
(-0.0037081 0.000709711 0.7443)
(0.00101548 0.00138139 0.774083)
(0.00741457 0.00330007 0.700496)
(0.011316 0.00147053 0.591931)
(0.011439 0.00041274 0.49402)
(-0.005482 0.00522972 0.453963)
(-0.00419928 0.00652168 0.520833)
(-0.00164393 0.0076626 0.568686)
(0.00233477 0.00834574 0.58076)
(0.00676968 0.00674929 0.548966)
(0.00922542 0.0036761 0.490601)
(0.00929305 0.00205379 0.422395)
(-0.00593731 -0.0100818 0.531677)
(-0.00514281 -0.0143483 0.613013)
(-0.0027473 -0.0186836 0.671459)
(0.00192908 -0.0197521 0.685926)
(0.00648875 -0.0158638 0.643409)
(0.00822846 -0.0103371 0.570272)
(0.00869853 -0.00693524 0.487834)
(-0.0094018 -0.0107588 0.604253)
(-0.0106174 -0.0159163 0.720709)
(-0.00672514 -0.0180623 0.818168)
(0.00127996 -0.0181048 0.856876)
(0.009509 -0.0175747 0.769353)
(0.0118895 -0.0119649 0.654326)
(0.0103782 -0.00807211 0.54449)
(-0.0139513 -0.00808885 0.657128)
(-0.0141987 -0.009771 0.820571)
(-0.00849633 -0.00527933 1.04126)
(-9.09688e-05 -0.0100163 1.11283)
(0.00990961 -0.0118815 0.920802)
(0.0161868 -0.00965165 0.722139)
(0.0130809 -0.00709803 0.580899)
(-0.0137585 -0.00407115 0.665569)
(-0.0106954 -0.00427117 0.853675)
(-0.00793987 -0.00226118 1.09483)
(-0.00477297 -0.00520135 1.15321)
(0.00692333 -0.00542814 0.972248)
(0.0167672 -0.00553465 0.737216)
(0.0139723 -0.00447666 0.584476)
(-0.0123017 2.76031e-05 0.615459)
(-0.011496 -0.000183838 0.761677)
(-0.00803511 -0.00284469 0.937707)
(0.000321263 0.00101035 0.988595)
(0.0110717 0.00112326 0.832008)
(0.015688 -0.00103063 0.677193)
(0.0132128 -0.00127834 0.551342)
(-0.00784094 0.0037169 0.535806)
(-0.00729947 0.00511278 0.629559)
(-0.00438209 0.00618601 0.705017)
(0.00202083 0.00791939 0.725158)
(0.00912403 0.00626435 0.670615)
(0.0115746 0.00243038 0.582568)
(0.010634 0.00118435 0.492261)
(-0.00471666 0.00546032 0.450632)
(-0.00392219 0.00677804 0.513966)
(-0.0014569 0.00872698 0.557683)
(0.00299001 0.00964947 0.567934)
(0.00733603 0.00709884 0.54019)
(0.00896932 0.00376893 0.487027)
(0.00855631 0.00246684 0.422331)
(0.0010626 -0.00243634 0.530635)
(0.00200732 -0.00183859 0.616601)
(0.000838815 -0.00369846 0.678661)
(0.00104695 -0.00550036 0.692883)
(0.00160525 -0.00194049 0.6491)
(0.00151036 -0.000864754 0.57274)
(0.00334408 -0.00150759 0.488129)
(0.00302269 -0.00425303 0.605303)
(0.00114912 -0.00682398 0.724169)
(-0.00302234 -0.0125727 0.808708)
(-0.000891456 -0.0140183 0.83495)
(0.00232291 -0.00890103 0.764213)
(-0.00013228 -0.00389478 0.658818)
(0.00135061 -0.00315415 0.545227)
(0.00069036 -0.00636649 0.655618)
(-0.00436684 -0.0108606 0.808628)
(-0.00786928 -0.0143288 0.957817)
(-0.0019153 -0.0160139 1.04225)
(0.00507184 -0.012199 0.873896)
(0.003119 -0.00718943 0.719086)
(0.00187257 -0.00470279 0.580031)
(-0.00166536 -0.00591434 0.660324)
(-0.00538221 -0.0100448 0.838402)
(-0.00948249 -0.0109342 1.05462)
(-0.00521816 -0.0102094 1.11209)
(0.00241526 -0.0105375 0.912637)
(0.00483954 -0.00808068 0.729789)
(0.00297918 -0.00480124 0.58168)
(-0.00133311 -0.00354382 0.607908)
(-0.00327523 -0.00633314 0.746924)
(-0.00367168 -0.00678119 0.89574)
(0.00156268 -0.00483442 0.930317)
(0.00580261 -0.00659388 0.809964)
(0.00457731 -0.00686324 0.669896)
(0.00380056 -0.00374266 0.547237)
(-0.000421141 -0.000785765 0.528738)
(-0.000213568 -0.00297628 0.619293)
(-0.000200116 -0.0017998 0.690352)
(0.00218061 -0.000945108 0.708372)
(0.00411987 -0.00420327 0.659014)
(0.00372826 -0.00469882 0.576384)
(0.00413533 -0.00220531 0.488444)
(-0.000522282 0.00171182 0.444717)
(2.25823e-05 0.000310115 0.506347)
(0.000943651 0.000345999 0.548237)
(0.00299584 0.000348645 0.558243)
(0.00455693 -0.0014381 0.53255)
(0.00465475 -0.00174264 0.482012)
(0.00459669 -0.00042569 0.419468)
(0.00167065 -0.000337198 0.519681)
(0.00438005 0.00246903 0.615279)
(0.00325961 0.00452493 0.694318)
(0.00143021 0.00466337 0.70987)
(0.000226509 0.00462137 0.656027)
(0.000894641 0.00192665 0.56737)
(0.0039188 -0.000367249 0.48061)
(0.00571134 -8.06299e-05 0.601631)
(0.00989378 0.00232624 0.766699)
(0.0048156 -0.000828816 0.889618)
(-0.000653384 -0.00367296 0.877291)
(-0.00487886 0.00174859 0.818864)
(-0.00490211 0.00177423 0.67133)
(0.00127806 -0.000607375 0.537921)
(0.00732116 -0.00311224 0.660847)
(0.0082664 -0.00600732 0.868553)
(6.03551e-06 -0.0126002 1.01534)
(-0.00182103 -0.013328 1.01187)
(-0.00260605 -0.00786615 0.913272)
(-0.00619326 -0.00365853 0.74404)
(0.000120063 -0.00232163 0.573952)
(0.0051389 -0.00496751 0.660248)
(0.00415796 -0.0107319 0.857474)
(-0.00047614 -0.0166809 1.06755)
(-0.000459668 -0.0159008 1.09803)
(-0.000872062 -0.0134031 0.912854)
(-0.00434205 -0.00830823 0.746228)
(0.000797527 -0.00353914 0.574171)
(0.0031998 -0.00355946 0.59825)
(0.00474169 -0.00998007 0.754354)
(0.00244577 -0.0124035 0.889882)
(0.00137771 -0.0116831 0.915831)
(-0.000486515 -0.0136267 0.8159)
(-0.00219278 -0.00881954 0.672709)
(0.00204669 -0.00317075 0.537342)
(0.0014826 -0.00045771 0.514766)
(0.0036375 -0.00493491 0.609699)
(0.00303565 -0.00654373 0.685134)
(0.00214445 -0.00714084 0.701801)
(0.000960839 -0.00903161 0.654083)
(0.000857131 -0.0056815 0.566604)
(0.00330744 -0.00155338 0.478516)
(-1.53358e-05 0.00276608 0.433277)
(0.00141685 0.000596218 0.492603)
(0.00223422 -0.00069414 0.533532)
(0.00312912 -0.00142931 0.543415)
(0.0035457 -0.00230153 0.51917)
(0.00370452 -0.00120651 0.470843)
(0.00442821 0.000670457 0.411869)
(-0.00891305 -0.00928103 0.503232)
(-0.00424713 -0.0115662 0.594538)
(0.0006221 -0.0119056 0.674914)
(0.00463253 -0.0103469 0.69177)
(0.00812585 -0.0102087 0.637047)
(0.011698 -0.00876167 0.55193)
(0.0139315 -0.0071377 0.4716)
(-0.0102197 -0.00569501 0.580152)
(-0.00201507 -0.00505067 0.753092)
(0.00380667 -0.00490393 0.907068)
(0.00422089 -0.00545709 0.942979)
(0.00523336 -0.00362726 0.829351)
(0.0113176 -0.00478364 0.653301)
(0.0158412 -0.00476318 0.52574)
(-0.00963913 -0.00244114 0.638733)
(0.000306405 -0.00236852 0.877332)
(0.00354285 -0.00633945 1.05496)
(0.00254166 -0.00837453 1.07003)
(0.00371648 -0.0035512 0.957628)
(0.00954521 -0.00299413 0.7316)
(0.0164704 -0.00228738 0.560276)
(-0.00995397 0.00108402 0.637045)
(-0.00184679 -0.00154867 0.881783)
(0.00272297 -0.00735458 1.06726)
(0.00419752 -0.00789874 1.09201)
(0.00720515 -0.00562843 0.965052)
(0.00987846 -0.00171253 0.732821)
(0.0162838 0.000536872 0.559862)
(-0.00988518 0.00587237 0.575094)
(-0.00312521 0.00350392 0.740024)
(0.00217576 0.00011863 0.899504)
(0.00390819 -1.02862e-05 0.931356)
(0.0058281 -0.00161086 0.826051)
(0.0103458 0.00181661 0.652713)
(0.0148187 0.00376298 0.523513)
(-0.00794904 0.00996572 0.496794)
(-0.00341385 0.0102346 0.586281)
(0.00107691 0.00958941 0.664409)
(0.00438297 0.00814838 0.682101)
(0.00708035 0.00665141 0.632373)
(0.010137 0.00648129 0.548289)
(0.0124273 0.00646214 0.467745)
(-0.00615848 0.0118597 0.422738)
(-0.00311086 0.0133059 0.477565)
(0.000658703 0.0138881 0.516415)
(0.00443272 0.0131229 0.526193)
(0.0074758 0.0113547 0.503767)
(0.00950218 0.00939404 0.459586)
(0.0104297 0.0080458 0.40614)
(-0.019085 -0.0183877 0.492175)
(-0.0145686 -0.0269173 0.570166)
(-0.0044634 -0.0330677 0.640376)
(0.00818481 -0.0327823 0.656093)
(0.0179646 -0.0286686 0.610478)
(0.0228959 -0.0204827 0.53939)
(0.0228312 -0.0138647 0.469699)
(-0.0265631 -0.0138456 0.556121)
(-0.0213797 -0.0214643 0.704183)
(-0.00580874 -0.0270524 0.861394)
(0.0115319 -0.0241298 0.882979)
(0.0245141 -0.0220018 0.782273)
(0.030797 -0.0158447 0.625045)
(0.029816 -0.0103377 0.518401)
(-0.0305462 -0.00482887 0.605539)
(-0.0242723 -0.00882551 0.831531)
(0.000591101 -0.0110288 1.03862)
(0.0149677 -0.00921525 1.03239)
(0.0265842 -0.00838777 0.925599)
(0.0345584 -0.00654089 0.694104)
(0.0339035 -0.00380478 0.549092)
(-0.0305081 0.00672112 0.602505)
(-0.0246058 0.00886752 0.822988)
(0.000968871 0.00702496 1.07369)
(0.0164932 0.00417003 1.03812)
(0.0270535 0.00566885 0.926508)
(0.0341617 0.0053397 0.696508)
(0.033438 0.00426692 0.548098)
(-0.0257877 0.0160808 0.550007)
(-0.0212143 0.0228162 0.689147)
(-0.00579297 0.0264662 0.8415)
(0.0113572 0.0228484 0.88299)
(0.023474 0.0205871 0.781835)
(0.0294391 0.0153295 0.622646)
(0.0285565 0.0110091 0.515088)
(-0.0180086 0.0200902 0.485043)
(-0.0138337 0.0272207 0.560718)
(-0.00415023 0.032107 0.62937)
(0.00765391 0.0311934 0.646866)
(0.0168202 0.0271854 0.604036)
(0.0215903 0.0199336 0.533506)
(0.0214553 0.0141894 0.464679)
(-0.0119461 0.0195549 0.420223)
(-0.00853569 0.0252376 0.469537)
(-0.00204809 0.0292862 0.504887)
(0.00583053 0.0292278 0.514732)
(0.0123016 0.0255012 0.4953)
(0.0155933 0.0193569 0.456368)
(0.0158039 0.0143462 0.408147)
(-0.0160071 -0.0152848 0.490272)
(-0.0131956 -0.0235766 0.554472)
(-0.00485239 -0.0304617 0.605558)
(0.00761004 -0.0323545 0.620251)
(0.0174259 -0.0269727 0.590477)
(0.020892 -0.0179036 0.536955)
(0.0195065 -0.0113868 0.475102)
(-0.0235179 -0.0123974 0.541442)
(-0.0210806 -0.0211137 0.637846)
(-0.0084211 -0.0288948 0.734812)
(0.011734 -0.0305898 0.772091)
(0.0256677 -0.0244718 0.698809)
(0.0299514 -0.0156233 0.60161)
(0.0263496 -0.00909159 0.519929)
(-0.0287163 -0.00405733 0.574755)
(-0.0272109 -0.0090425 0.714166)
(-0.00715545 -0.0128194 0.838896)
(0.0189522 -0.0161384 0.968065)
(0.0347268 -0.0127186 0.812245)
(0.0365863 -0.00686717 0.648978)
(0.0315556 -0.00322158 0.546834)
(-0.0284616 0.0071287 0.572691)
(-0.027691 0.0109203 0.704351)
(-0.00808841 0.0117141 0.815736)
(0.0189987 0.0117299 0.959953)
(0.0341807 0.00955236 0.824552)
(0.036248 0.00665654 0.648266)
(0.0311631 0.00477777 0.545596)
(-0.0226987 0.0151697 0.536671)
(-0.0212948 0.0232827 0.630094)
(-0.00966158 0.0300426 0.720447)
(0.0103217 0.0302468 0.767645)
(0.0249759 0.0245571 0.693658)
(0.0290685 0.0163746 0.597655)
(0.0252454 0.0106603 0.516321)
(-0.0147662 0.0174223 0.483826)
(-0.0125318 0.0247682 0.54654)
(-0.00496056 0.0307501 0.596256)
(0.00691944 0.0323626 0.611359)
(0.0166398 0.0270743 0.58264)
(0.0198879 0.0184844 0.530371)
(0.0181824 0.0124425 0.470076)
(-0.00925179 0.0160441 0.424072)
(-0.00691313 0.0210541 0.470395)
(-0.00185404 0.0253357 0.502428)
(0.00527085 0.0263723 0.51219)
(0.0112256 0.0223883 0.496138)
(0.0135195 0.0163192 0.46134)
(0.0130773 0.0118672 0.41548)
(-0.0034516 -0.00356407 0.488874)
(-0.00173766 -0.00526862 0.551033)
(0.000553343 -0.00672091 0.598029)
(0.00479577 -0.00916507 0.612525)
(0.00823282 -0.00657965 0.589269)
(0.00840965 -0.00308573 0.539567)
(0.00753849 -0.00183194 0.478933)
(-0.00506914 -0.00267927 0.537846)
(-0.00341504 -0.00501469 0.624266)
(-0.000835795 -0.00685598 0.70449)
(0.00616007 -0.0122236 0.726104)
(0.0115784 -0.00711324 0.679333)
(0.0116174 -0.00334455 0.60198)
(0.00924532 -0.00132357 0.523637)
(-0.00637116 -2.00044e-05 0.566816)
(-0.00503213 -0.00141378 0.678437)
(-0.00387963 -0.00203899 0.767437)
(0.00639984 -0.00648045 0.819545)
(0.0179802 -0.00501912 0.75257)
(0.0150208 -0.00128175 0.643008)
(0.0111963 0.000207993 0.549877)
(-0.00586736 0.00352968 0.56574)
(-0.00483825 0.00463723 0.674728)
(-0.00547978 0.00481801 0.758819)
(0.0022611 0.00512773 0.802674)
(0.0146738 0.00341792 0.739587)
(0.0148482 0.0030467 0.641081)
(0.0106672 0.00248915 0.54889)
(-0.00391622 0.0057131 0.534113)
(-0.0027644 0.00742916 0.620432)
(-0.00177087 0.00845558 0.696759)
(0.00444923 0.0123 0.71318)
(0.0107346 0.00904234 0.672737)
(0.0106937 0.00523983 0.598231)
(0.00798384 0.00364546 0.520742)
(-0.0018583 0.00605746 0.483741)
(-0.000524216 0.00693203 0.544839)
(0.000976035 0.00763878 0.591098)
(0.00439807 0.00993865 0.605211)
(0.00737736 0.00747921 0.582593)
(0.00715794 0.00430022 0.534149)
(0.00599973 0.00349696 0.475097)
(-0.00095385 0.00573024 0.425062)
(0.000317864 0.00624923 0.471043)
(0.00174767 0.00676698 0.502698)
(0.00383492 0.00722482 0.513039)
(0.00548486 0.00568357 0.49896)
(0.00550664 0.00394344 0.465605)
(0.00487552 0.00337323 0.41998)
(0.00469099 0.00393414 0.481661)
(0.00644429 0.00678562 0.544496)
(0.00588365 0.00940271 0.59341)
(0.00399461 0.0101581 0.609814)
(0.00145045 0.00992237 0.58916)
(-0.000868621 0.00860263 0.539153)
(-0.00117996 0.00548281 0.47706)
(0.00710343 0.00398974 0.530382)
(0.00988778 0.00689418 0.61884)
(0.00832761 0.00932759 0.70723)
(0.00512132 0.00832806 0.737312)
(0.000842761 0.00936781 0.685068)
(-0.00306721 0.00798781 0.607723)
(-0.00357697 0.00511489 0.523878)
(0.00900035 0.0030997 0.559466)
(0.012407 0.00475709 0.675621)
(0.00772609 0.00527461 0.798451)
(0.00681723 0.00463669 0.83043)
(0.00316383 0.00700142 0.783117)
(-0.00415486 0.00497221 0.649888)
(-0.00501377 0.00330488 0.552373)
(0.010057 0.00128103 0.558945)
(0.0140694 0.000327733 0.674271)
(0.0090441 -0.000408802 0.799361)
(0.00492333 -0.000434956 0.825471)
(0.000577341 0.000281591 0.74603)
(-0.00538656 -7.49934e-05 0.647978)
(-0.00607682 0.000516532 0.551915)
(0.00885587 -0.000603993 0.528181)
(0.0120328 -0.00409074 0.61825)
(0.00999827 -0.00657348 0.705083)
(0.00477082 -0.00614034 0.721899)
(-0.00101334 -0.00673861 0.681283)
(-0.00527147 -0.00540196 0.607495)
(-0.00524312 -0.00219352 0.522758)
(0.00670379 -0.00127876 0.478397)
(0.00839513 -0.00495483 0.541017)
(0.00719533 -0.00824644 0.589969)
(0.00395377 -0.00992669 0.605647)
(0.000200517 -0.0091834 0.585475)
(-0.00261157 -0.00710892 0.536578)
(-0.00293387 -0.00335054 0.475281)
(0.00454876 -0.000861329 0.420351)
(0.00542256 -0.00317032 0.466628)
(0.0049421 -0.00544963 0.499246)
(0.00338435 -0.00691823 0.510792)
(0.00140441 -0.00656354 0.497923)
(-0.000270562 -0.00507755 0.464843)
(-0.000990095 -0.00280619 0.418911)
(0.00431821 0.00389114 0.472792)
(0.00597165 0.0064055 0.537558)
(0.0062679 0.00828689 0.592962)
(0.00393878 0.0120618 0.615069)
(0.000486026 0.0103138 0.593497)
(-0.00134306 0.00861677 0.537333)
(-0.00147 0.00559039 0.472452)
(0.00611737 0.00416482 0.521927)
(0.00849022 0.00716365 0.62056)
(0.00678044 0.00723293 0.735528)
(0.00553878 0.0107478 0.774057)
(0.0015794 0.00900269 0.719632)
(-0.00398496 0.00915257 0.623394)
(-0.00359138 0.00547039 0.522371)
(0.00810657 0.00328027 0.552718)
(0.0117726 0.00530703 0.687174)
(0.00856492 0.00418371 0.835221)
(0.00700812 0.00625571 0.849478)
(0.00182782 0.00646842 0.822188)
(-0.00560683 0.00607897 0.68141)
(-0.00557069 0.00364636 0.555227)
(0.0089523 0.00116325 0.553251)
(0.0128994 0.000245079 0.692412)
(0.00937546 0.00246788 0.843957)
(0.00790846 0.00352289 0.855927)
(0.00288804 0.00100271 0.84352)
(-0.0071282 -0.000600277 0.687391)
(-0.00643002 0.000401745 0.555095)
(0.00749055 -0.000619028 0.521852)
(0.0100711 -0.00379822 0.624431)
(0.00809761 -0.00201193 0.745832)
(0.00620004 -0.00603298 0.790318)
(0.000803761 -0.00592767 0.730871)
(-0.00556512 -0.006259 0.624699)
(-0.00472633 -0.0022869 0.522759)
(0.00603703 -0.00101486 0.471633)
(0.00763912 -0.00387135 0.537204)
(0.00769311 -0.00600112 0.594734)
(0.00416737 -0.0111095 0.616883)
(-0.000498346 -0.00832963 0.59443)
(-0.00263565 -0.00626102 0.537548)
(-0.00274362 -0.00305267 0.472948)
(0.00434769 -0.000811312 0.414512)
(0.00516067 -0.00253753 0.460824)
(0.00512078 -0.00426861 0.494455)
(0.00329371 -0.006941 0.507177)
(0.000857711 -0.00566249 0.494854)
(-0.000519748 -0.00439392 0.461775)
(-0.00113858 -0.00262194 0.415938)
(0.000522537 0.000907789 0.466912)
(0.00168063 0.000933099 0.531151)
(0.00374023 0.000645409 0.587976)
(0.00315267 0.00553474 0.611841)
(0.0018826 0.00227227 0.590714)
(0.00249945 0.00258401 0.534423)
(0.00226771 0.00209355 0.46995)
(-0.000137086 0.00184122 0.515691)
(0.00148461 0.00268952 0.616098)
(0.00334179 0.002385 0.73451)
(0.00452199 0.00835441 0.768627)
(0.00388808 0.00228146 0.737554)
(0.00251896 0.00424215 0.624159)
(0.00285137 0.00271749 0.521009)
(0.000746157 0.00241494 0.546645)
(0.00538374 0.00364259 0.684046)
(0.00915896 0.00344996 0.838251)
(0.0042571 0.00707326 0.832018)
(-0.00191144 0.00461246 0.847552)
(0.000727906 0.00400178 0.690868)
(0.00200637 0.00254394 0.554868)
(0.00147063 0.00182409 0.547552)
(0.00684367 0.00127596 0.690282)
(0.010308 0.00288264 0.848548)
(0.00503225 0.00338761 0.824688)
(2.31963e-05 0.00368047 0.853179)
(0.000237979 0.000494574 0.700492)
(0.00176146 0.00142131 0.555391)
(0.00090374 0.00163526 0.517252)
(0.00265732 0.000767517 0.622534)
(0.00312058 0.00303343 0.749657)
(0.00461384 -0.00594162 0.790569)
(0.00451196 0.0025933 0.74958)
(0.00194662 -0.000637569 0.628969)
(0.00247818 0.000868507 0.523402)
(0.00188148 0.00188033 0.467939)
(0.00301064 0.0020939 0.534098)
(0.00523495 0.00225211 0.594175)
(0.00345348 -0.0042404 0.618439)
(0.00111329 0.00105634 0.59619)
(0.0019268 0.000891529 0.538104)
(0.00166677 0.000815648 0.473149)
(0.00204511 0.0013611 0.412165)
(0.0027426 0.00166044 0.458398)
(0.00373482 0.00177338 0.492738)
(0.00288573 -0.000711148 0.505765)
(0.00163132 0.00109426 0.494472)
(0.00161417 0.000668058 0.461692)
(0.00114274 0.000347645 0.416202)
(-1.65613e-05 0.000458081 0.465752)
(0.000145823 -0.000732107 0.526747)
(0.00192587 -0.00233312 0.579726)
(0.00277441 -0.000344127 0.605119)
(0.00314805 -0.00104161 0.584177)
(0.00385614 0.000440869 0.532803)
(0.0028423 0.00130943 0.471838)
(-0.00191052 0.00105949 0.513114)
(-0.00160978 0.000525991 0.602251)
(0.0026261 0.00171334 0.715686)
(0.00337078 0.00641535 0.776498)
(0.00347443 0.00178826 0.727844)
(0.00603541 0.00178822 0.61732)
(0.0050796 0.00188425 0.522919)
(-0.00243288 0.00208925 0.543336)
(0.000806537 0.00248608 0.666063)
(0.00688504 0.00478456 0.840348)
(0.00150452 0.00927615 0.889183)
(-0.00174459 0.0054838 0.823167)
(0.00544596 0.00341462 0.684757)
(0.00560696 0.00245842 0.556675)
(-0.00204499 0.00245955 0.544952)
(0.00170621 0.00307402 0.6754)
(0.00845373 0.00386029 0.852009)
(0.00395544 0.00392404 0.938401)
(-0.00141492 0.00396932 0.861999)
(0.00355973 0.00303237 0.697832)
(0.00551491 0.00255284 0.557899)
(-0.000814593 0.00263667 0.516689)
(-0.00013683 0.00383257 0.610327)
(0.00455423 0.00302415 0.741117)
(0.00402436 -0.000755126 0.8043)
(0.00284622 0.00290134 0.749175)
(0.00507558 0.00317565 0.622073)
(0.00468593 0.00258945 0.527605)
(0.00135881 0.00216862 0.469436)
(0.00152482 0.00407223 0.533349)
(0.00343456 0.00554113 0.590572)
(0.00350651 0.00302529 0.619616)
(0.00295213 0.00471301 0.595546)
(0.00346154 0.00355728 0.540974)
(0.00227727 0.00181408 0.478774)
(0.00209238 0.000730428 0.414346)
(0.00227173 0.00180089 0.461057)
(0.00296457 0.00294929 0.496155)
(0.00283402 0.00227433 0.51039)
(0.0022402 0.00238783 0.499604)
(0.00187006 0.00118543 0.467089)
(0.00090689 0.000230331 0.421251)
(0.00583303 0.00552574 0.468245)
(0.004549 0.00613317 0.529232)
(0.00367706 0.0052858 0.579018)
(0.00310598 0.00544666 0.601592)
(0.00206476 0.00655441 0.584623)
(-1.38364e-05 0.00750753 0.538065)
(-0.00283298 0.00658478 0.477016)
(0.00582012 0.00459888 0.516506)
(0.00392139 0.00519514 0.599402)
(0.00449146 0.00678386 0.686297)
(0.0041541 0.00869908 0.742288)
(0.00310828 0.00810596 0.701438)
(0.00163026 0.00734541 0.617183)
(-0.00206378 0.00624997 0.53019)
(0.00536544 0.00363033 0.547176)
(0.00479395 0.00482891 0.653772)
(0.00696522 0.00762723 0.812738)
(0.00538036 0.00795134 0.902042)
(0.00332959 0.00768977 0.809207)
(0.00236898 0.00727 0.679378)
(-0.00126728 0.00535041 0.565063)
(0.00576454 0.00231521 0.549755)
(0.0052271 0.00417548 0.660007)
(0.00614218 0.00599116 0.835326)
(0.00719116 0.00419829 0.941076)
(0.00630198 0.0056375 0.853574)
(0.00236441 0.00589401 0.683709)
(-0.00140073 0.00328316 0.565597)
(0.00764645 0.000169273 0.522793)
(0.00548437 0.00211599 0.610121)
(0.00663269 0.00200976 0.710882)
(0.00655047 0.000318173 0.79836)
(0.00474961 0.00128316 0.724448)
(0.0019057 0.00197889 0.624841)
(-0.00382476 -0.000105352 0.538781)
(0.00867032 -0.00284643 0.475244)
(0.0074493 -0.00198377 0.540428)
(0.00611325 -2.02821e-05 0.595519)
(0.00458913 -0.000576162 0.623997)
(0.00219748 -0.00125198 0.602894)
(-0.0014516 -0.00333026 0.55268)
(-0.00569098 -0.00417694 0.489476)
(0.00697483 -0.00511325 0.417886)
(0.0065089 -0.00630692 0.467462)
(0.00525322 -0.0062905 0.504882)
(0.00318831 -0.00637415 0.520887)
(0.000465946 -0.00725961 0.510536)
(-0.00237261 -0.00787923 0.476618)
(-0.00463186 -0.00638307 0.42795)
(0.016061 0.0137875 0.466601)
(0.0144002 0.0194571 0.532866)
(0.00912424 0.0206791 0.58427)
(0.00367654 0.0202652 0.606631)
(-0.00245586 0.0219998 0.59034)
(-0.00928679 0.020951 0.54312)
(-0.0131775 0.0152483 0.477741)
(0.0208616 0.0111121 0.520056)
(0.0170575 0.0149075 0.609171)
(0.0108436 0.015821 0.694075)
(0.00565993 0.0161434 0.745474)
(-0.000926552 0.0184318 0.712673)
(-0.0101233 0.0176446 0.629199)
(-0.0168175 0.0135539 0.538909)
(0.0214939 0.00600699 0.554819)
(0.0162344 0.00813419 0.660568)
(0.0123524 0.0101728 0.80932)
(0.00973395 0.00718439 0.911547)
(0.00409671 0.00858501 0.817665)
(-0.00707843 0.00932297 0.694351)
(-0.0170306 0.00820927 0.583127)
(0.0215186 0.000205052 0.559811)
(0.0158395 0.00217012 0.673272)
(0.00983322 0.00448217 0.836095)
(0.00760869 -0.000256086 0.94889)
(0.00444846 0.00224248 0.861419)
(-0.00569378 0.00288879 0.727124)
(-0.0160985 0.000985192 0.597067)
(0.0231334 -0.00633516 0.531742)
(0.0181588 -0.00595926 0.633308)
(0.0101896 -0.00437392 0.735264)
(0.00602972 -0.00604133 0.796349)
(0.00212923 -0.00430482 0.763413)
(-0.00869796 -0.00535526 0.680755)
(-0.019783 -0.00782204 0.565438)
(0.0198688 -0.0118902 0.478307)
(0.0187925 -0.0164564 0.558915)
(0.0119344 -0.015383 0.626523)
(0.0048933 -0.0132772 0.648709)
(-0.00266304 -0.0154869 0.638801)
(-0.0126541 -0.0183782 0.585286)
(-0.0181788 -0.0149181 0.500089)
(0.012906 -0.0129456 0.414438)
(0.0123786 -0.0191322 0.47029)
(0.00863463 -0.0223397 0.515771)
(0.0031341 -0.0227549 0.537098)
(-0.00310755 -0.0235793 0.524496)
(-0.00880808 -0.0215672 0.483156)
(-0.011661 -0.0153399 0.427181)
(0.013173 0.0104847 0.456135)
(0.0145231 0.0177398 0.542921)
(0.00983326 0.0201063 0.618926)
(0.00307572 0.0189956 0.646002)
(-0.00429672 0.0196782 0.626467)
(-0.0108191 0.0176476 0.557925)
(-0.011462 0.0105799 0.469782)
(0.0191925 0.00887728 0.524834)
(0.021245 0.0164654 0.665411)
(0.0131947 0.0151933 0.772649)
(0.00431413 0.0116334 0.800934)
(-0.00502949 0.0155805 0.794045)
(-0.0150387 0.0170891 0.696048)
(-0.0173284 0.0100793 0.556886)
(0.0206303 0.00353755 0.577285)
(0.0182045 0.0063454 0.733392)
(0.0108673 0.00567245 0.863747)
(0.00636025 0.00370993 0.959577)
(0.00140757 0.00531921 0.926174)
(-0.0112617 0.00690194 0.797089)
(-0.0197354 0.00393573 0.634926)
(0.01996 -0.00214525 0.586588)
(0.0155598 -0.003558 0.73818)
(0.00786357 -0.00327987 0.887105)
(0.00451041 -0.00100343 0.969572)
(0.0014701 -0.0030734 0.907701)
(-0.00830626 -0.00269562 0.772278)
(-0.0212979 -0.00334044 0.662767)
(0.0189432 -0.00761744 0.544755)
(0.0209576 -0.0134678 0.715242)
(0.00992948 -0.0106125 0.826734)
(0.00199487 -0.00800203 0.832156)
(-0.00427196 -0.0100726 0.83591)
(-0.0152083 -0.0119377 0.775291)
(-0.0182234 -0.00954292 0.606192)
(0.0132006 -0.0102394 0.472163)
(0.016419 -0.0182805 0.588032)
(0.0116902 -0.0208932 0.694978)
(0.00208806 -0.0198076 0.731336)
(-0.00745454 -0.0219109 0.721562)
(-0.01416 -0.0186284 0.632815)
(-0.0130087 -0.0119312 0.5041)
(0.0066803 -0.00813663 0.399355)
(0.00754482 -0.0134878 0.461791)
(0.00551595 -0.0172297 0.519804)
(0.00140066 -0.0192757 0.548906)
(-0.00343674 -0.0185164 0.532043)
(-0.00675818 -0.0141361 0.478767)
(-0.0067223 -0.00908122 0.412981)
(-0.00956979 -0.00941526 0.438355)
(-0.00501155 -0.0105943 0.526702)
(-0.001656 -0.0107046 0.6172)
(-4.65363e-05 -0.011699 0.659177)
(0.00137085 -0.0123657 0.630351)
(0.00430574 -0.0131053 0.545233)
(0.00921982 -0.0119892 0.45171)
(-0.011342 -0.00657896 0.506888)
(-0.00182065 -0.00437606 0.672055)
(0.00188385 -0.00622701 0.795003)
(0.000518398 -0.0102411 0.853424)
(-0.00104834 -0.00856737 0.815958)
(0.000999142 -0.0073946 0.704776)
(0.00958994 -0.00899148 0.542489)
(-0.0122422 -0.0043953 0.561991)
(-0.00421772 -0.00378402 0.759007)
(-0.00138428 -0.00606023 0.912097)
(-0.000113152 -0.0071464 0.966979)
(0.0014056 -0.00617915 0.935269)
(0.00143992 -0.00530534 0.818986)
(0.00767215 -0.00701381 0.630629)
(-0.013304 -0.00165324 0.57038)
(-0.00689587 -0.00565723 0.774548)
(-0.00227724 -0.00701083 0.925331)
(0.000515952 -0.00234813 0.977905)
(0.00269117 -0.00501419 0.949651)
(0.00271002 -0.00578459 0.840579)
(0.00490614 -0.00337344 0.662002)
(-0.0147914 0.00235408 0.525644)
(-0.0054228 -0.0038352 0.710174)
(-0.00074251 -0.00520229 0.850953)
(-0.00113983 -0.00220937 0.901306)
(-0.002744 -0.0049514 0.872218)
(-0.000412999 -0.00510558 0.769783)
(0.00957144 0.00201514 0.589371)
(-0.0146541 0.00727812 0.451573)
(-0.00918519 0.00575228 0.568263)
(-0.00374754 0.00328902 0.695027)
(-0.00171918 0.000858402 0.74059)
(4.43731e-06 0.00210452 0.715493)
(0.00530359 0.00539843 0.613964)
(0.0125253 0.00819045 0.48187)
(-0.0125568 0.011402 0.383598)
(-0.00977249 0.0140738 0.440795)
(-0.00582299 0.0160403 0.496448)
(-0.00153368 0.0158712 0.524636)
(0.00273568 0.0164933 0.50871)
(0.0071053 0.0157812 0.456807)
(0.0111572 0.0127492 0.395133)
(0.00266554 0.0031159 0.157186)
(0.00225588 0.00352253 0.113922)
(0.00383112 -0.00200354 0.33127)
(0.0035392 -0.00057942 0.275767)
(0.00301766 0.000646533 0.228938)
(0.00239188 0.00166252 0.188741)
(0.00176591 0.00245872 0.151893)
(0.00128189 0.00297374 0.1071)
(0.00353966 -0.00544199 0.480833)
(0.00427513 -0.00394067 0.39729)
(0.0040744 -0.00248843 0.328656)
(0.003508 -0.00118577 0.271692)
(0.00273353 -8.17436e-05 0.223954)
(0.00191281 0.000818339 0.183211)
(0.00113979 0.00155094 0.146078)
(0.000571118 0.00213537 0.101254)
(0.00440307 -0.00492891 0.457005)
(0.00467436 -0.00359417 0.378414)
(0.00424522 -0.00243457 0.313612)
(0.00346078 -0.00145822 0.259643)
(0.0025602 -0.00065151 0.214261)
(0.00166301 4.60722e-06 0.175368)
(0.000843243 0.000562907 0.139708)
(0.000225147 0.00113741 0.0963782)
(0.00494711 -0.00398707 0.412858)
(0.00484112 -0.00288263 0.345771)
(0.00422441 -0.00212607 0.289591)
(0.00341097 -0.00153766 0.242065)
(0.00254645 -0.00108535 0.201558)
(0.0017223 -0.000733221 0.166376)
(0.000982145 -0.000428268 0.133599)
(0.000386574 -2.34048e-05 0.0930861)
(0.00490931 -0.00257443 0.359492)
(0.00457491 -0.0018704 0.307729)
(0.00403694 -0.00143387 0.26222)
(0.00336994 -0.00115895 0.222553)
(0.00267392 -0.000992844 0.188028)
(0.00200744 -0.00088744 0.157459)
(0.0013909 -0.000787428 0.128332)
(0.000813666 -0.000543732 0.0914662)
(0.00853422 -0.00538373 0.412154)
(0.00783285 -0.00347387 0.359119)
(0.00716441 -0.00177668 0.311387)
(0.00646411 -0.000319735 0.269063)
(0.00573609 0.000940967 0.231785)
(0.00500152 0.00202473 0.198525)
(0.0042836 0.00289911 0.166581)
(0.00354007 0.00337573 0.125507)
(0.0098191 -0.00609004 0.452449)
(0.00861827 -0.00404617 0.384785)
(0.00754352 -0.00213456 0.326987)
(0.00648987 -0.000488381 0.27732)
(0.00543644 0.000893693 0.23452)
(0.00438705 0.00204102 0.197103)
(0.00339793 0.00293832 0.16206)
(0.00251752 0.00341123 0.118386)
(0.0113592 -0.00554962 0.477631)
(0.0096934 -0.00374832 0.400268)
(0.00811747 -0.00199007 0.335399)
(0.00662111 -0.000458812 0.280638)
(0.00518906 0.000816947 0.234116)
(0.00383736 0.00184859 0.193984)
(0.0026092 0.00265607 0.157008)
(0.00159759 0.00312563 0.111802)
(0.0121078 -0.00396044 0.479453)
(0.0101592 -0.00263222 0.399114)
(0.00827933 -0.00134154 0.332318)
(0.00648805 -0.000196793 0.276299)
(0.00481558 0.000755172 0.228987)
(0.00327976 0.00152055 0.188367)
(0.00191619 0.0021277 0.151133)
(0.000848852 0.00256227 0.105918)
(0.011671 -0.00171597 0.4552)
(0.00967834 -0.00102543 0.379804)
(0.00774124 -0.000374419 0.316835)
(0.005928 0.000221676 0.263846)
(0.0042515 0.000716334 0.218936)
(0.00273358 0.00111123 0.180196)
(0.0013988 0.00144365 0.14445)
(0.000349352 0.0017797 0.100748)
(0.00998677 0.000181515 0.411636)
(0.00827539 0.000275142 0.347147)
(0.00665714 0.000371496 0.292464)
(0.00511403 0.000472372 0.245763)
(0.00367501 0.00053778 0.205665)
(0.00237244 0.000567791 0.170627)
(0.00122762 0.000596244 0.137781)
(0.000296241 0.000722822 0.0969203)