/*--------------------------------*- C++ -*----------------------------------*\
| =========                 |                                                 |
| \\      /  F ield         | OpenFOAM: The Open Source CFD Toolbox           |
|  \\    /   O peration     | Version:  plus.master.MPPICInterFoam            |
|   \\  /    A nd           | Web:      www.OpenFOAM.com                      |
|    \\/     M anipulation  |                                                 |
\*---------------------------------------------------------------------------*/
FoamFile
{
    version     2.0;
    format      ascii;
    class       volScalarField;
    location    "10.2";
    object      epsilon;
}
// * * * * * * * * * * * * * * * * * * * * * * * * * * * * * * * * * * * * * //

dimensions      [0 2 -3 0 0 0 0];

internalField   nonuniform List<scalar> 
11821
(
4.80244e-05
1.5378e-05
1.09812e-05
1.02638e-05
1.03163e-05
1.05017e-05
1.05996e-05
1.05242e-05
4.89134e-05
1.57396e-05
1.13315e-05
1.06413e-05
1.07248e-05
1.09367e-05
1.10509e-05
1.09783e-05
4.96115e-05
1.60179e-05
1.16233e-05
1.09578e-05
1.10697e-05
1.13063e-05
1.14371e-05
1.13704e-05
4.99631e-05
1.61764e-05
1.17983e-05
1.11498e-05
1.12808e-05
1.15341e-05
1.16767e-05
1.16151e-05
4.9888e-05
1.61743e-05
1.18183e-05
1.11772e-05
1.13131e-05
1.15702e-05
1.17156e-05
1.1656e-05
4.93768e-05
1.5998e-05
1.16758e-05
1.1032e-05
1.1158e-05
1.14057e-05
1.15456e-05
1.14859e-05
4.853e-05
1.5667e-05
1.13944e-05
1.07403e-05
1.08428e-05
1.10676e-05
1.11921e-05
1.11287e-05
4.91438e-05
1.62853e-05
1.2016e-05
1.14288e-05
1.16032e-05
1.18879e-05
1.20487e-05
1.19874e-05
5.02197e-05
1.67411e-05
1.24652e-05
1.19047e-05
1.21135e-05
1.24281e-05
1.26072e-05
1.25498e-05
5.10974e-05
1.71222e-05
1.28425e-05
1.23064e-05
1.25467e-05
1.28894e-05
1.30878e-05
1.30379e-05
5.15725e-05
1.73559e-05
1.30703e-05
1.25516e-05
1.2814e-05
1.31766e-05
1.3389e-05
1.33457e-05
5.15506e-05
1.73766e-05
1.31035e-05
1.25923e-05
1.28612e-05
1.32292e-05
1.34458e-05
1.34055e-05
5.10129e-05
1.71744e-05
1.29332e-05
1.24186e-05
1.26774e-05
1.3036e-05
1.32475e-05
1.32076e-05
5.00783e-05
1.67815e-05
1.25892e-05
1.20615e-05
1.22941e-05
1.26276e-05
1.28223e-05
1.2778e-05
5.07271e-05
1.74694e-05
1.33353e-05
1.28905e-05
1.32055e-05
1.36079e-05
1.38459e-05
1.38081e-05
5.20384e-05
1.80616e-05
1.3897e-05
1.34761e-05
1.3827e-05
1.4261e-05
1.45184e-05
1.44849e-05
5.31437e-05
1.85755e-05
1.43727e-05
1.39731e-05
1.43568e-05
1.4821e-05
1.50997e-05
1.50751e-05
5.37642e-05
1.88782e-05
1.46593e-05
1.42776e-05
1.46863e-05
1.51731e-05
1.54677e-05
1.54509e-05
5.38005e-05
1.89171e-05
1.47076e-05
1.43347e-05
1.4752e-05
1.52461e-05
1.55463e-05
1.55335e-05
5.32236e-05
1.86829e-05
1.45073e-05
1.41321e-05
1.45402e-05
1.5026e-05
1.53222e-05
1.53107e-05
5.2172e-05
1.82171e-05
1.40943e-05
1.37058e-05
1.40866e-05
1.45465e-05
1.48255e-05
1.48097e-05
5.28742e-05
1.90083e-05
1.49817e-05
1.46897e-05
1.51643e-05
1.57035e-05
1.60349e-05
1.60322e-05
5.44718e-05
1.97631e-05
1.56669e-05
1.53924e-05
1.59014e-05
1.64718e-05
1.68223e-05
1.68233e-05
5.58478e-05
2.04066e-05
1.62505e-05
1.59917e-05
1.65321e-05
1.71327e-05
1.75052e-05
1.75161e-05
5.66292e-05
2.07813e-05
1.65997e-05
1.63593e-05
1.69271e-05
1.75526e-05
1.79424e-05
1.79619e-05
5.67258e-05
2.08393e-05
1.66646e-05
1.6435e-05
1.70142e-05
1.76494e-05
1.80464e-05
1.8071e-05
5.60968e-05
2.05701e-05
1.64339e-05
1.62047e-05
1.67771e-05
1.74061e-05
1.78007e-05
1.78281e-05
5.49014e-05
2.00231e-05
1.59483e-05
1.57082e-05
1.62543e-05
1.68582e-05
1.72367e-05
1.72602e-05
5.5697e-05
2.09599e-05
1.69964e-05
1.68653e-05
1.75182e-05
1.82148e-05
1.86582e-05
1.87062e-05
5.76169e-05
2.18722e-05
1.78105e-05
1.7687e-05
1.83696e-05
1.90943e-05
1.95543e-05
1.96027e-05
5.93109e-05
2.26597e-05
1.85106e-05
1.83924e-05
1.91e-05
1.98521e-05
2.03337e-05
2.03927e-05
6.02584e-05
2.31086e-05
1.89231e-05
1.88234e-05
1.95611e-05
2.03398e-05
2.08392e-05
2.09072e-05
6.04111e-05
2.31851e-05
1.90047e-05
1.89189e-05
1.9672e-05
2.04635e-05
2.09718e-05
2.10457e-05
5.97181e-05
2.2879e-05
1.87442e-05
1.86636e-05
1.94137e-05
2.02023e-05
2.0711e-05
2.07898e-05
5.83578e-05
2.22458e-05
1.81859e-05
1.80997e-05
1.88269e-05
1.95931e-05
2.00879e-05
2.01641e-05
5.92965e-05
2.33538e-05
1.94171e-05
1.94541e-05
2.03047e-05
2.11814e-05
2.17602e-05
2.18768e-05
6.15714e-05
2.44321e-05
2.03619e-05
2.03915e-05
2.12625e-05
2.21608e-05
2.27496e-05
2.28632e-05
6.36381e-05
2.5383e-05
2.11868e-05
2.12025e-05
2.20852e-05
2.30048e-05
2.3614e-05
2.37368e-05
6.47408e-05
2.5902e-05
2.16584e-05
2.16937e-05
2.26104e-05
2.3558e-05
2.41844e-05
2.43159e-05
6.49365e-05
2.59926e-05
2.17538e-05
2.18089e-05
2.27473e-05
2.37113e-05
2.43482e-05
2.44866e-05
6.41675e-05
2.56482e-05
2.14654e-05
2.15326e-05
2.24739e-05
2.34399e-05
2.40809e-05
2.42268e-05
6.26285e-05
2.49273e-05
2.08379e-05
2.09081e-05
2.18323e-05
2.27805e-05
2.3411e-05
2.35566e-05
6.37785e-05
2.6237e-05
2.22817e-05
2.24927e-05
2.35621e-05
2.46472e-05
2.53872e-05
2.55942e-05
6.64381e-05
2.74892e-05
2.33557e-05
2.35372e-05
2.46124e-05
2.57066e-05
2.64495e-05
2.66498e-05
6.89484e-05
2.86272e-05
2.43137e-05
2.44494e-05
2.55123e-05
2.66195e-05
2.73796e-05
2.75872e-05
7.01786e-05
2.92018e-05
2.48336e-05
2.49942e-05
2.60988e-05
2.72341e-05
2.8009e-05
2.82232e-05
7.03933e-05
2.92964e-05
2.49364e-05
2.51274e-05
2.62637e-05
2.742e-05
2.82067e-05
2.84285e-05
6.95332e-05
2.89129e-05
2.46228e-05
2.48359e-05
2.59832e-05
2.71478e-05
2.79434e-05
2.81763e-05
6.78061e-05
2.81072e-05
2.39338e-05
2.41616e-05
2.53002e-05
2.64534e-05
2.72434e-05
2.7479e-05
6.92647e-05
2.9661e-05
2.56309e-05
2.60214e-05
2.73365e-05
2.86608e-05
2.95928e-05
2.99166e-05
7.23512e-05
3.10923e-05
2.68292e-05
2.71599e-05
2.84577e-05
2.97771e-05
3.07038e-05
3.10161e-05
7.54049e-05
3.24497e-05
2.79289e-05
2.81646e-05
2.94157e-05
3.07362e-05
3.16773e-05
3.19953e-05
7.67363e-05
3.305e-05
2.84809e-05
2.87536e-05
3.00576e-05
3.14057e-05
3.23565e-05
3.26768e-05
7.69397e-05
3.31311e-05
2.85791e-05
2.89025e-05
3.02532e-05
3.1627e-05
3.25903e-05
3.2919e-05
7.59571e-05
3.27085e-05
2.82437e-05
2.86023e-05
2.99752e-05
3.13652e-05
3.23434e-05
3.26879e-05
7.4022e-05
3.1826e-05
2.75051e-05
2.78929e-05
2.92676e-05
3.06544e-05
3.16331e-05
3.19844e-05
7.59398e-05
3.36827e-05
2.95108e-05
3.00915e-05
3.16823e-05
3.32829e-05
3.44438e-05
3.4916e-05
7.95453e-05
3.52946e-05
3.08259e-05
3.13058e-05
3.28521e-05
3.44321e-05
3.55774e-05
3.60315e-05
8.32584e-05
3.6912e-05
3.20707e-05
3.2381e-05
3.38664e-05
3.5425e-05
3.65747e-05
3.70301e-05
8.45893e-05
3.74839e-05
3.26396e-05
3.30186e-05
3.45407e-05
3.61308e-05
3.72898e-05
3.77442e-05
8.47344e-05
3.75281e-05
3.27153e-05
3.31735e-05
3.4763e-05
3.63873e-05
3.75609e-05
3.80252e-05
8.36576e-05
3.707e-05
3.23619e-05
3.28723e-05
3.4498e-05
3.61482e-05
3.73441e-05
3.783e-05
8.15237e-05
3.61264e-05
3.15898e-05
3.21459e-05
3.37858e-05
3.54426e-05
3.66463e-05
3.71442e-05
8.40829e-05
3.8363e-05
3.39815e-05
3.47675e-05
3.66711e-05
3.85933e-05
4.00272e-05
4.06842e-05
8.80386e-05
4.014e-05
3.53977e-05
3.6038e-05
3.78688e-05
3.97519e-05
4.11576e-05
4.17876e-05
9.21985e-05
4.20303e-05
3.677e-05
3.71972e-05
3.89445e-05
4.07703e-05
4.21628e-05
4.27848e-05
9.33984e-05
4.25106e-05
3.73455e-05
3.78551e-05
3.96353e-05
4.14995e-05
4.28999e-05
4.35194e-05
9.34556e-05
4.25e-05
3.73898e-05
3.79971e-05
3.98624e-05
4.17813e-05
4.32071e-05
4.38407e-05
9.23385e-05
4.20149e-05
3.70228e-05
3.77036e-05
3.96213e-05
4.15775e-05
4.30349e-05
4.36975e-05
9.0166e-05
4.10384e-05
3.62372e-05
3.69814e-05
3.89273e-05
4.09006e-05
4.23742e-05
4.3055e-05
9.34543e-05
4.37522e-05
3.91195e-05
4.01334e-05
4.2398e-05
4.46981e-05
4.64573e-05
4.73399e-05
9.75972e-05
4.5658e-05
4.0615e-05
4.14444e-05
4.3605e-05
4.58452e-05
4.75612e-05
4.84055e-05
0.000102034
4.77598e-05
4.214e-05
4.27099e-05
4.47216e-05
4.68708e-05
4.85571e-05
4.93827e-05
0.000103082
4.81586e-05
4.26671e-05
4.33455e-05
4.54205e-05
4.76131e-05
4.93071e-05
5.01286e-05
0.000103057
4.8087e-05
4.26688e-05
4.34592e-05
4.5651e-05
4.79216e-05
4.96513e-05
5.04936e-05
0.000101933
4.75836e-05
4.22937e-05
4.31798e-05
4.54447e-05
4.7766e-05
4.95384e-05
5.04189e-05
9.9797e-05
4.65994e-05
4.15158e-05
4.24854e-05
4.47929e-05
4.71423e-05
4.89401e-05
4.98458e-05
0.00010405
4.9932e-05
4.5025e-05
4.63023e-05
4.89912e-05
5.17389e-05
5.38847e-05
5.50378e-05
0.000108276
5.1918e-05
4.65715e-05
4.7641e-05
5.01937e-05
5.28575e-05
5.49425e-05
5.60439e-05
0.000112792
5.42045e-05
4.82335e-05
4.89448e-05
5.13094e-05
5.38763e-05
5.59161e-05
5.69868e-05
0.00011374
5.44972e-05
4.86846e-05
4.95839e-05
5.20245e-05
5.46245e-05
5.66718e-05
5.77388e-05
0.000113646
5.43656e-05
4.86434e-05
4.96883e-05
5.22738e-05
5.49627e-05
5.70577e-05
5.81541e-05
0.000112553
5.3856e-05
4.82797e-05
4.94236e-05
5.21064e-05
5.48671e-05
5.70193e-05
5.81647e-05
0.000110518
5.28926e-05
4.75258e-05
4.8777e-05
5.15202e-05
5.43205e-05
5.65078e-05
5.7686e-05
0.000116055
5.70196e-05
5.18306e-05
5.34368e-05
5.6627e-05
5.99038e-05
6.25064e-05
6.39789e-05
0.00012025
5.90406e-05
5.33879e-05
5.47729e-05
5.78096e-05
6.09801e-05
6.35035e-05
6.49092e-05
0.000124693
6.14651e-05
5.50732e-05
5.60607e-05
5.89116e-05
6.1982e-05
6.44473e-05
6.58106e-05
0.000125581
6.16182e-05
5.55028e-05
5.67201e-05
5.96378e-05
6.27335e-05
6.52065e-05
6.65683e-05
0.000125433
6.14463e-05
5.54608e-05
5.68368e-05
5.99079e-05
6.31063e-05
6.56417e-05
6.70441e-05
0.000124407
6.09573e-05
5.51122e-05
5.66032e-05
5.9797e-05
6.30844e-05
6.56926e-05
6.71562e-05
0.000122546
6.00447e-05
5.44109e-05
5.60196e-05
5.92925e-05
6.26356e-05
6.52899e-05
6.67941e-05
0.000129742
6.51798e-05
5.96977e-05
6.17448e-05
6.55397e-05
6.94392e-05
7.25787e-05
7.44238e-05
0.000133795
6.71661e-05
6.12249e-05
6.30306e-05
6.66733e-05
7.04588e-05
7.35051e-05
7.5269e-05
0.000138021
6.94879e-05
6.28721e-05
6.4311e-05
6.77601e-05
7.14389e-05
7.44174e-05
7.61293e-05
0.000138927
6.9689e-05
6.33034e-05
6.49419e-05
6.84761e-05
7.21905e-05
7.51832e-05
7.68984e-05
0.000138734
6.94998e-05
6.32926e-05
6.5099e-05
6.87868e-05
7.26105e-05
7.56796e-05
7.74487e-05
0.000137807
6.90504e-05
6.2989e-05
6.49294e-05
6.87494e-05
7.26786e-05
7.58351e-05
7.76775e-05
0.000136193
6.82293e-05
6.23622e-05
6.44277e-05
6.83479e-05
7.23462e-05
7.55596e-05
7.74499e-05
4.21653e-05
1.30899e-05
9.10873e-06
8.34262e-06
8.2629e-06
8.3276e-06
8.3584e-06
8.2934e-06
4.19771e-05
1.29743e-05
9.03718e-06
8.28792e-06
8.21618e-06
8.28633e-06
8.32389e-06
8.27035e-06
4.19942e-05
1.29584e-05
9.0278e-06
8.28815e-06
8.2283e-06
4.19849e-05
1.28391e-05
4.21325e-05
4.27684e-05
1.35998e-05
9.70521e-06
9.03698e-06
9.05214e-06
9.19573e-06
9.27733e-06
9.22348e-06
4.25817e-05
1.34862e-05
9.62937e-06
8.97673e-06
9.00092e-06
9.15215e-06
9.24277e-06
9.20172e-06
4.25604e-05
1.34655e-05
9.61381e-06
8.96931e-06
9.00493e-06
9.17029e-06
9.27595e-06
9.24762e-06
4.25585e-05
1.33735e-05
9.56866e-06
8.94408e-06
8.98482e-06
9.14821e-06
9.25304e-06
9.23704e-06
4.26642e-05
1.34542e-05
9.59894e-06
8.95653e-06
8.99324e-06
9.15896e-06
9.26505e-06
9.23829e-06
4.28041e-05
1.35e-05
9.62459e-06
8.97405e-06
9.00403e-06
9.16175e-06
9.25772e-06
9.21914e-06
4.30474e-05
1.36089e-05
9.69186e-06
9.03001e-06
9.05815e-06
9.21704e-06
9.31312e-06
9.26943e-06
4.36631e-05
1.43051e-05
1.05131e-05
9.96851e-06
1.01063e-05
1.03541e-05
1.05063e-05
1.04753e-05
4.34699e-05
1.41882e-05
1.04301e-05
9.90158e-06
1.00512e-05
1.03106e-05
1.04761e-05
1.04611e-05
4.34115e-05
1.416e-05
1.04087e-05
9.88967e-06
1.00529e-05
1.03295e-05
1.05132e-05
1.0514e-05
4.3419e-05
1.40906e-05
1.03717e-05
9.86591e-06
1.00304e-05
1.03015e-05
1.04791e-05
1.0482e-05
4.34804e-05
1.41493e-05
1.03953e-05
9.87808e-06
1.00423e-05
1.0319e-05
1.05022e-05
1.05026e-05
4.36041e-05
1.41884e-05
1.04194e-05
9.89586e-06
1.00536e-05
1.03217e-05
1.04939e-05
1.04819e-05
4.3819e-05
1.42898e-05
1.0488e-05
9.9563e-06
1.01131e-05
1.03822e-05
1.05541e-05
1.05369e-05
4.49313e-05
1.52635e-05
1.15882e-05
1.11957e-05
1.1488e-05
1.18699e-05
1.21166e-05
1.21236e-05
4.47186e-05
1.51372e-05
1.14945e-05
1.11205e-05
1.1429e-05
1.18283e-05
1.20941e-05
1.21221e-05
4.46247e-05
1.50996e-05
1.14675e-05
1.11061e-05
1.14322e-05
1.18532e-05
1.21422e-05
1.21905e-05
4.46401e-05
1.50485e-05
1.1439e-05
1.10871e-05
1.14135e-05
1.18287e-05
1.21103e-05
1.21562e-05
4.4665e-05
1.50901e-05
1.14572e-05
1.10985e-05
1.14267e-05
1.18484e-05
1.21368e-05
1.21834e-05
4.47783e-05
1.51274e-05
1.14827e-05
1.11182e-05
1.1439e-05
1.18503e-05
1.21255e-05
1.21574e-05
4.4976e-05
1.52274e-05
1.15567e-05
1.11859e-05
1.15056e-05
1.19168e-05
1.21899e-05
1.22153e-05
4.66868e-05
1.65438e-05
1.29943e-05
1.27844e-05
1.3267e-05
1.3817e-05
1.4186e-05
1.42497e-05
4.64378e-05
1.64013e-05
1.28863e-05
1.26988e-05
1.32037e-05
1.37783e-05
1.4174e-05
1.42652e-05
4.63093e-05
1.63535e-05
1.2854e-05
1.26836e-05
1.32111e-05
1.3813e-05
1.42374e-05
1.4354e-05
4.63318e-05
1.63179e-05
1.28349e-05
1.26726e-05
1.32011e-05
1.37989e-05
1.42173e-05
1.43307e-05
4.63323e-05
1.63485e-05
1.28509e-05
1.26853e-05
1.32168e-05
1.38211e-05
1.42458e-05
1.43603e-05
4.64433e-05
1.63888e-05
1.28815e-05
1.271e-05
1.32331e-05
1.38249e-05
1.42337e-05
1.43304e-05
4.66398e-05
1.64948e-05
1.29658e-05
1.27887e-05
1.33096e-05
1.3899e-05
1.4303e-05
1.43907e-05
4.90762e-05
1.82257e-05
1.48028e-05
1.48066e-05
1.55184e-05
1.62744e-05
1.67975e-05
1.69404e-05
4.87706e-05
1.80597e-05
1.46764e-05
1.47082e-05
1.54494e-05
1.62384e-05
1.67969e-05
1.6975e-05
4.86085e-05
1.80021e-05
1.46401e-05
1.46939e-05
1.5463e-05
1.62851e-05
1.68779e-05
1.70867e-05
4.86414e-05
1.79821e-05
1.46329e-05
1.46945e-05
1.54664e-05
1.62874e-05
1.68772e-05
1.70842e-05
4.86325e-05
1.80084e-05
1.46507e-05
1.4712e-05
1.54887e-05
1.63161e-05
1.69111e-05
1.71181e-05
4.87517e-05
1.80564e-05
1.46905e-05
1.47465e-05
1.55139e-05
1.63269e-05
1.69032e-05
1.70891e-05
4.89689e-05
1.81775e-05
1.47912e-05
1.48409e-05
1.5604e-05
1.64116e-05
1.69795e-05
1.71529e-05
5.22768e-05
2.03991e-05
1.70915e-05
1.73393e-05
1.83214e-05
1.93245e-05
2.00373e-05
2.02858e-05
5.18908e-05
2.02021e-05
1.69424e-05
1.72247e-05
1.82439e-05
1.92892e-05
2.00467e-05
2.03386e-05
5.16974e-05
2.01367e-05
1.69045e-05
1.72129e-05
1.82644e-05
1.93478e-05
2.0145e-05
2.04729e-05
5.17528e-05
2.01371e-05
1.6914e-05
1.723e-05
1.82858e-05
1.93714e-05
2.01697e-05
2.04985e-05
5.17516e-05
2.0166e-05
1.69376e-05
1.72566e-05
1.83202e-05
1.94131e-05
2.02153e-05
2.05423e-05
5.18901e-05
2.02258e-05
1.69911e-05
1.73064e-05
1.83611e-05
1.94383e-05
2.02191e-05
2.05216e-05
5.21566e-05
2.03726e-05
1.71153e-05
1.74218e-05
1.84694e-05
1.95375e-05
2.03057e-05
2.05917e-05
5.64928e-05
2.3164e-05
1.99445e-05
2.04636e-05
2.1758e-05
2.30528e-05
2.3995e-05
2.438e-05
5.59982e-05
2.2928e-05
1.97682e-05
2.03284e-05
2.16673e-05
2.30133e-05
2.40093e-05
2.44459e-05
5.578e-05
2.28602e-05
1.97325e-05
2.03204e-05
2.16932e-05
2.30808e-05
2.41215e-05
2.45992e-05
5.58831e-05
2.28918e-05
1.97674e-05
2.03596e-05
2.17362e-05
2.31288e-05
2.41748e-05
2.46568e-05
5.59081e-05
2.29302e-05
1.97991e-05
2.03987e-05
2.1789e-05
2.31909e-05
2.42396e-05
2.47175e-05
5.60729e-05
2.3003e-05
1.98691e-05
2.04696e-05
2.18534e-05
2.32391e-05
2.4264e-05
2.47141e-05
5.6425e-05
2.31882e-05
2.00242e-05
2.06115e-05
2.19847e-05
2.33572e-05
2.4365e-05
2.47942e-05
6.19548e-05
2.66313e-05
2.34527e-05
2.42652e-05
2.59147e-05
2.75495e-05
2.87658e-05
2.93233e-05
6.13164e-05
2.63477e-05
2.32443e-05
2.41038e-05
2.58035e-05
2.74974e-05
2.87759e-05
2.93926e-05
6.10874e-05
2.62879e-05
2.32175e-05
2.40997e-05
2.583e-05
2.75671e-05
2.88942e-05
2.95566e-05
6.12819e-05
2.63711e-05
2.32916e-05
2.41666e-05
2.58954e-05
2.76385e-05
2.89751e-05
2.9645e-05
6.13538e-05
2.64253e-05
2.33291e-05
2.42195e-05
2.59727e-05
2.77281e-05
2.90655e-05
2.97287e-05
6.15392e-05
2.65045e-05
2.34143e-05
2.43162e-05
2.60683e-05
2.78079e-05
2.91193e-05
2.97515e-05
6.20204e-05
2.67429e-05
2.36076e-05
2.44888e-05
2.62263e-05
2.79489e-05
2.92388e-05
2.98457e-05
6.8937e-05
3.09258e-05
2.77161e-05
2.88372e-05
3.0886e-05
3.29144e-05
3.44559e-05
3.52275e-05
6.81057e-05
3.05845e-05
2.74716e-05
2.86422e-05
3.07443e-05
3.28384e-05
3.44487e-05
3.52856e-05
6.78881e-05
3.05513e-05
2.7464e-05
2.86401e-05
3.07626e-05
3.2899e-05
3.45608e-05
3.54467e-05
6.8243e-05
3.07204e-05
2.75952e-05
2.87399e-05
3.08478e-05
3.29883e-05
3.46625e-05
3.55585e-05
6.83881e-05
3.07973e-05
2.763e-05
2.88039e-05
3.09529e-05
3.31087e-05
3.47808e-05
3.56673e-05
6.85662e-05
3.08607e-05
2.77222e-05
2.89285e-05
3.10857e-05
3.32266e-05
3.48705e-05
3.57231e-05
6.92236e-05
3.11688e-05
2.79581e-05
2.91326e-05
3.1272e-05
3.33929e-05
3.50113e-05
3.58347e-05
7.78282e-05
3.61901e-05
3.28468e-05
3.4286e-05
3.67819e-05
3.92657e-05
4.11907e-05
4.22232e-05
7.67214e-05
3.57774e-05
3.25603e-05
3.40532e-05
3.66006e-05
3.91529e-05
4.11501e-05
4.22516e-05
7.65377e-05
3.57996e-05
3.25835e-05
3.40534e-05
3.66035e-05
3.91913e-05
4.12396e-05
4.23909e-05
7.71559e-05
3.61073e-05
3.27815e-05
3.41915e-05
3.67125e-05
3.92916e-05
4.13495e-05
4.25112e-05
7.74178e-05
3.62159e-05
3.28181e-05
3.42481e-05
3.68257e-05
3.94334e-05
4.14905e-05
4.26409e-05
7.75377e-05
3.622e-05
3.28978e-05
3.43978e-05
3.6997e-05
3.95909e-05
4.16175e-05
4.27315e-05
7.84157e-05
3.66058e-05
3.31819e-05
3.46317e-05
3.72101e-05
3.97826e-05
4.17805e-05
4.2862e-05
8.90715e-05
4.25771e-05
3.89726e-05
4.0739e-05
4.37399e-05
4.67506e-05
4.91251e-05
5.04694e-05
8.76494e-05
4.20768e-05
3.86234e-05
4.04732e-05
4.35196e-05
4.65895e-05
4.90335e-05
5.04468e-05
8.75186e-05
4.21829e-05
3.86852e-05
4.04799e-05
4.35032e-05
4.65927e-05
4.90808e-05
5.05405e-05
8.85059e-05
4.27056e-05
3.89848e-05
4.06376e-05
4.36169e-05
4.6689e-05
4.91803e-05
5.06475e-05
8.89285e-05
4.2833e-05
3.90338e-05
4.06917e-05
4.37232e-05
4.68349e-05
4.933e-05
5.07855e-05
8.89155e-05
4.27345e-05
3.90652e-05
4.08439e-05
4.3922e-05
4.70248e-05
4.94884e-05
5.09065e-05
8.99585e-05
4.31732e-05
3.93934e-05
4.11136e-05
4.41621e-05
4.72395e-05
4.96712e-05
5.10541e-05
0.000102457
5.01932e-05
4.62443e-05
4.83738e-05
5.19425e-05
5.55589e-05
5.84556e-05
6.01655e-05
0.000100735
4.96106e-05
4.58166e-05
4.80504e-05
5.16659e-05
5.53345e-05
5.82939e-05
6.00691e-05
0.000100653
4.98224e-05
4.59298e-05
4.80658e-05
5.16226e-05
5.52866e-05
5.82765e-05
6.00891e-05
0.000102052
5.06065e-05
4.63312e-05
4.82585e-05
5.17291e-05
5.53536e-05
5.83397e-05
6.01541e-05
0.000102682
5.07855e-05
4.63933e-05
4.83088e-05
5.18312e-05
5.5494e-05
5.84797e-05
6.02804e-05
0.000102482
5.05226e-05
4.63553e-05
4.84213e-05
5.20251e-05
5.56968e-05
5.8655e-05
6.04195e-05
0.000103543
5.09561e-05
4.66999e-05
4.87276e-05
5.22927e-05
5.59298e-05
5.88507e-05
6.05777e-05
0.000118023
5.91569e-05
5.48107e-05
5.74075e-05
6.16315e-05
6.59369e-05
6.94339e-05
7.1565e-05
0.00011605
5.84973e-05
5.43149e-05
5.6985e-05
6.12704e-05
6.56285e-05
6.9182e-05
7.1372e-05
0.000115954
5.88323e-05
5.44814e-05
5.69911e-05
6.11801e-05
6.55086e-05
6.90743e-05
7.12874e-05
0.000117737
5.9887e-05
5.49956e-05
5.72113e-05
6.12557e-05
6.55286e-05
6.90737e-05
7.1277e-05
0.000118639
6.01474e-05
5.50448e-05
5.7254e-05
6.13376e-05
6.56359e-05
6.91777e-05
7.13642e-05
0.000118231
5.96878e-05
5.4941e-05
5.73263e-05
6.1519e-05
6.58317e-05
6.9348e-05
7.15011e-05
0.000119161
6.00452e-05
5.52562e-05
5.7629e-05
6.17904e-05
6.60666e-05
6.9543e-05
7.16579e-05
4.39139e-05
4.45349e-05
1.39119e-05
4.52941e-05
1.42492e-05
9.97149e-06
9.19939e-06
9.17739e-06
4.61433e-05
1.4587e-05
1.02732e-05
9.5186e-06
9.51861e-06
9.66016e-06
9.73503e-06
9.66413e-06
4.70766e-05
1.49966e-05
1.06254e-05
9.88207e-06
9.90576e-06
1.00678e-05
1.01531e-05
1.00785e-05
4.33791e-05
1.37697e-05
9.79133e-06
9.12087e-06
9.1499e-06
9.31066e-06
9.40628e-06
9.35806e-06
4.38297e-05
1.39895e-05
9.9442e-06
9.2647e-06
9.29983e-06
9.4682e-06
9.56827e-06
9.5189e-06
4.44046e-05
1.42423e-05
1.01518e-05
9.47271e-06
9.52021e-06
9.70054e-06
9.80728e-06
9.7567e-06
4.51137e-05
1.45237e-05
1.04075e-05
9.74503e-06
9.81219e-06
1.0008e-05
1.01224e-05
1.00703e-05
4.59746e-05
1.49176e-05
1.07479e-05
1.00943e-05
1.01837e-05
1.03996e-05
1.0525e-05
1.04714e-05
4.69507e-05
1.53351e-05
1.11297e-05
1.04966e-05
1.0611e-05
1.08464e-05
1.09816e-05
1.0925e-05
4.80245e-05
1.58144e-05
1.15631e-05
1.09484e-05
1.10908e-05
1.13496e-05
1.14961e-05
1.14355e-05
4.41449e-05
1.44481e-05
1.0599e-05
1.00626e-05
1.02217e-05
1.0493e-05
1.06641e-05
1.06417e-05
4.46097e-05
1.46894e-05
1.07756e-05
1.02364e-05
1.04039e-05
1.06839e-05
1.08596e-05
1.08357e-05
4.52342e-05
1.49846e-05
1.1026e-05
1.04903e-05
1.06724e-05
1.09655e-05
1.11483e-05
1.11229e-05
4.6036e-05
1.53379e-05
1.13484e-05
1.08279e-05
1.10305e-05
1.134e-05
1.15308e-05
1.15033e-05
4.70163e-05
1.58019e-05
1.1763e-05
1.12547e-05
1.14812e-05
1.18117e-05
1.20142e-05
1.19856e-05
4.81448e-05
1.631e-05
1.22361e-05
1.17482e-05
1.20008e-05
1.23519e-05
1.25644e-05
1.25327e-05
4.93911e-05
1.68817e-05
1.27681e-05
1.22998e-05
1.25821e-05
1.29573e-05
1.31806e-05
1.31444e-05
4.53038e-05
1.53822e-05
1.16829e-05
1.13105e-05
1.16329e-05
1.20456e-05
1.23166e-05
1.23354e-05
4.57936e-05
1.56429e-05
1.18882e-05
1.15168e-05
1.18488e-05
1.22699e-05
1.25449e-05
1.25612e-05
4.64785e-05
1.59862e-05
1.21847e-05
1.18197e-05
1.21667e-05
1.26007e-05
1.28819e-05
1.28957e-05
4.73856e-05
1.64151e-05
1.25778e-05
1.22254e-05
1.25923e-05
1.30424e-05
1.3331e-05
1.33419e-05
4.85118e-05
1.69624e-05
1.30744e-05
1.27339e-05
1.31245e-05
1.35952e-05
1.38949e-05
1.39043e-05
4.98154e-05
1.75738e-05
1.36482e-05
1.33232e-05
1.37384e-05
1.42293e-05
1.45386e-05
1.45448e-05
5.12742e-05
1.82644e-05
1.4291e-05
1.39818e-05
1.44253e-05
1.49381e-05
1.52566e-05
1.52576e-05
4.69812e-05
1.66609e-05
1.31121e-05
1.29345e-05
1.34573e-05
1.40464e-05
1.44459e-05
1.45248e-05
4.75033e-05
1.69336e-05
1.335e-05
1.3175e-05
1.37063e-05
1.43022e-05
1.47036e-05
1.4778e-05
4.82596e-05
1.73249e-05
1.36962e-05
1.35268e-05
1.40716e-05
1.46781e-05
1.50833e-05
1.51534e-05
4.92868e-05
1.78329e-05
1.416e-05
1.3999e-05
1.45612e-05
1.51815e-05
1.55921e-05
1.56579e-05
5.05783e-05
1.84735e-05
1.47416e-05
1.45882e-05
1.51712e-05
1.58098e-05
1.62297e-05
1.62931e-05
5.20813e-05
1.92069e-05
1.54179e-05
1.52724e-05
1.58761e-05
1.65326e-05
1.69605e-05
1.702e-05
5.37916e-05
2.00454e-05
1.61768e-05
1.60389e-05
1.66654e-05
1.73396e-05
1.77744e-05
1.78277e-05
4.93401e-05
1.83686e-05
1.49627e-05
1.50106e-05
1.57734e-05
1.65774e-05
1.71375e-05
1.72989e-05
4.9909e-05
1.867e-05
1.52357e-05
1.52846e-05
1.60528e-05
1.68599e-05
1.74182e-05
1.7572e-05
5.07426e-05
1.91056e-05
1.56305e-05
1.56815e-05
1.64587e-05
1.7272e-05
1.783e-05
1.79763e-05
5.18981e-05
1.96929e-05
1.61607e-05
1.62133e-05
1.70028e-05
1.78256e-05
1.83853e-05
1.8525e-05
5.33646e-05
2.04332e-05
1.68235e-05
1.68758e-05
1.76805e-05
1.8517e-05
1.90826e-05
1.92187e-05
5.50882e-05
2.1299e-05
1.75982e-05
1.76469e-05
1.84663e-05
1.93162e-05
1.9887e-05
2.00184e-05
5.70677e-05
2.22805e-05
1.84709e-05
1.85145e-05
1.93475e-05
2.02099e-05
2.07842e-05
2.09081e-05
5.25748e-05
2.05958e-05
1.73156e-05
1.76176e-05
1.86609e-05
1.9721e-05
2.04769e-05
2.07467e-05
5.3208e-05
2.09395e-05
1.76248e-05
1.79224e-05
1.89653e-05
2.00226e-05
2.07711e-05
2.1029e-05
5.41253e-05
2.14276e-05
1.80631e-05
1.83557e-05
1.94007e-05
2.04573e-05
2.11994e-05
2.14454e-05
5.54037e-05
2.20864e-05
1.86496e-05
1.89344e-05
1.99837e-05
2.1043e-05
2.17816e-05
2.20179e-05
5.70358e-05
2.29155e-05
1.93821e-05
1.96558e-05
2.0712e-05
2.17782e-05
2.25182e-05
2.27491e-05
5.89708e-05
2.38927e-05
2.02412e-05
2.04991e-05
2.15615e-05
2.2635e-05
2.33764e-05
2.36018e-05
6.12167e-05
2.50072e-05
2.12166e-05
2.14521e-05
2.25184e-05
2.35976e-05
2.43384e-05
2.4555e-05
5.69076e-05
2.34482e-05
2.02562e-05
2.08346e-05
2.21982e-05
2.3557e-05
2.45468e-05
2.49548e-05
5.76193e-05
2.38364e-05
2.05994e-05
2.11649e-05
2.25195e-05
2.38674e-05
2.48426e-05
2.5233e-05
5.86139e-05
2.437e-05
2.10709e-05
2.16221e-05
2.29691e-05
2.43071e-05
2.5268e-05
2.56406e-05
5.99909e-05
2.50848e-05
2.16971e-05
2.22285e-05
2.357e-05
2.4902e-05
2.58528e-05
2.62119e-05
6.17594e-05
2.59843e-05
2.24799e-05
2.2988e-05
2.43259e-05
2.56566e-05
2.66034e-05
2.69552e-05
6.38747e-05
2.70502e-05
2.34032e-05
2.38821e-05
2.52163e-05
2.6547e-05
2.7491e-05
2.78368e-05
6.63687e-05
2.82826e-05
2.44603e-05
2.49005e-05
2.62277e-05
2.75561e-05
2.8495e-05
2.88312e-05
6.25838e-05
2.70417e-05
2.38724e-05
2.47398e-05
2.64612e-05
2.81629e-05
2.94279e-05
3.0008e-05
6.33898e-05
2.74744e-05
2.42458e-05
2.50885e-05
2.67893e-05
2.84701e-05
2.9712e-05
3.02675e-05
6.44449e-05
2.80386e-05
2.47348e-05
2.55532e-05
2.72352e-05
2.88949e-05
3.01129e-05
3.06434e-05
6.58796e-05
2.87856e-05
2.53783e-05
2.61637e-05
2.78292e-05
2.94735e-05
3.06738e-05
3.1186e-05
6.77364e-05
2.97275e-05
2.61849e-05
2.69354e-05
2.85862e-05
3.022e-05
3.14107e-05
3.19141e-05
6.99786e-05
3.08497e-05
2.71447e-05
2.78543e-05
2.94918e-05
3.1118e-05
3.23019e-05
3.27992e-05
7.26975e-05
3.21712e-05
2.82574e-05
2.89136e-05
3.05329e-05
3.21487e-05
3.33232e-05
3.38106e-05
6.98854e-05
3.15043e-05
2.82558e-05
2.94119e-05
3.15267e-05
3.36182e-05
3.52041e-05
3.59941e-05
7.08113e-05
3.19804e-05
2.86548e-05
2.97703e-05
3.18505e-05
3.39097e-05
3.54627e-05
3.62199e-05
7.19094e-05
3.25538e-05
2.91412e-05
3.02245e-05
3.22737e-05
3.42993e-05
3.58174e-05
3.6541e-05
7.33491e-05
3.33009e-05
2.97748e-05
3.08121e-05
3.28349e-05
3.48358e-05
3.63282e-05
3.70283e-05
7.52426e-05
3.42457e-05
3.0573e-05
3.15686e-05
3.35659e-05
3.55471e-05
3.70246e-05
3.77146e-05
7.75578e-05
3.538e-05
3.1535e-05
3.24836e-05
3.44606e-05
3.64276e-05
3.78949e-05
3.85793e-05
8.05006e-05
3.67492e-05
3.26718e-05
3.35572e-05
3.55068e-05
3.74555e-05
3.89097e-05
3.95849e-05
7.92078e-05
3.69719e-05
3.35066e-05
3.49377e-05
3.74822e-05
4.0015e-05
4.19719e-05
4.30133e-05
8.02985e-05
3.74936e-05
3.39243e-05
3.52957e-05
3.77894e-05
4.02783e-05
4.21918e-05
4.3191e-05
8.14377e-05
3.80497e-05
3.43829e-05
3.57185e-05
3.81711e-05
4.06136e-05
4.24802e-05
4.34356e-05
8.28277e-05
3.87545e-05
3.49767e-05
3.6262e-05
3.86772e-05
4.1085e-05
4.29175e-05
4.38434e-05
8.47087e-05
3.96515e-05
3.57312e-05
3.697e-05
3.93544e-05
4.17361e-05
4.35501e-05
4.44653e-05
8.69078e-05
4.07327e-05
3.66562e-05
3.7854e-05
4.02156e-05
4.25776e-05
4.43789e-05
4.52902e-05
8.98103e-05
4.20897e-05
3.778e-05
3.89164e-05
4.12442e-05
4.35808e-05
4.53665e-05
4.62703e-05
9.08673e-05
4.35588e-05
3.97414e-05
4.14347e-05
4.44427e-05
4.74718e-05
4.98541e-05
5.11901e-05
9.20839e-05
4.4129e-05
4.01647e-05
4.17814e-05
4.47236e-05
4.7696e-05
5.00234e-05
5.13064e-05
9.31835e-05
4.46445e-05
4.05644e-05
4.21496e-05
4.5044e-05
4.79593e-05
5.02275e-05
5.14551e-05
9.43194e-05
4.52386e-05
4.10946e-05
4.26281e-05
4.54759e-05
4.83461e-05
5.05718e-05
5.17637e-05
9.59796e-05
4.60405e-05
4.17593e-05
4.32498e-05
4.60709e-05
4.89158e-05
5.11223e-05
5.23043e-05
9.77948e-05
4.69781e-05
4.26091e-05
4.40857e-05
4.68828e-05
4.97023e-05
5.18947e-05
5.30758e-05
0.000100481
4.8262e-05
4.36792e-05
4.51029e-05
4.78706e-05
5.06622e-05
5.28394e-05
5.40166e-05
0.000104567
5.13609e-05
4.70585e-05
4.90424e-05
5.25634e-05
5.61491e-05
5.90151e-05
6.06894e-05
0.000105844
5.19428e-05
4.75039e-05
4.93932e-05
5.28181e-05
5.63263e-05
5.91226e-05
6.07312e-05
0.000106886
5.24149e-05
4.78332e-05
4.96904e-05
5.30624e-05
5.65022e-05
5.92264e-05
6.0767e-05
0.000107641
5.2832e-05
4.82443e-05
5.00612e-05
5.33926e-05
5.67864e-05
5.94627e-05
6.09616e-05
0.000108986
5.3493e-05
4.878e-05
5.05796e-05
5.38922e-05
5.72611e-05
5.99196e-05
6.14113e-05
0.000110265
5.42128e-05
4.9509e-05
5.13272e-05
5.46328e-05
5.79793e-05
6.06267e-05
6.2123e-05
0.000112657
5.53836e-05
5.05002e-05
5.22657e-05
5.55529e-05
5.88805e-05
6.15185e-05
6.30177e-05
0.000120325
6.04717e-05
5.5587e-05
5.79294e-05
6.20428e-05
6.62616e-05
6.96766e-05
7.17332e-05
0.000121583
6.10312e-05
5.60439e-05
5.82782e-05
6.22637e-05
6.63822e-05
6.97104e-05
7.16873e-05
0.000122556
6.14848e-05
5.63086e-05
5.84784e-05
6.24079e-05
6.64536e-05
6.96997e-05
7.15955e-05
0.000122905
6.16426e-05
5.65548e-05
5.87415e-05
6.26388e-05
6.66284e-05
6.98188e-05
7.1667e-05
0.00012388
6.21266e-05
5.69486e-05
5.91273e-05
6.30207e-05
6.69983e-05
7.01772e-05
7.20233e-05
0.000124539
6.25923e-05
5.75335e-05
5.97513e-05
6.36625e-05
6.76356e-05
7.08153e-05
7.26766e-05
0.000126598
6.36154e-05
5.84205e-05
6.06029e-05
6.45101e-05
6.84726e-05
7.16525e-05
7.35265e-05
4.74643e-05
1.52357e-05
1.10196e-05
1.03484e-05
1.04183e-05
1.0612e-05
1.07157e-05
1.06473e-05
4.63284e-05
1.47364e-05
1.05907e-05
9.90187e-06
9.93218e-06
1.00855e-05
1.01602e-05
1.00838e-05
4.52213e-05
1.42798e-05
1.01846e-05
9.47576e-06
9.47312e-06
9.59739e-06
9.65538e-06
9.57935e-06
4.42325e-05
1.38123e-05
9.79156e-06
9.07321e-06
9.0392e-06
9.13092e-06
9.16907e-06
9.09976e-06
4.34321e-05
1.35695e-05
9.53122e-06
8.77679e-06
8.71351e-06
8.78572e-06
8.8115e-06
8.72916e-06
4.279e-05
1.3319e-05
9.31204e-06
8.54808e-06
8.46897e-06
8.52749e-06
8.54568e-06
8.46493e-06
4.24071e-05
1.31905e-05
9.18834e-06
8.41647e-06
8.33226e-06
8.39076e-06
8.41331e-06
8.33863e-06
4.88799e-05
1.62645e-05
1.21272e-05
1.15774e-05
1.17715e-05
1.20688e-05
1.22388e-05
1.21867e-05
4.75982e-05
1.56736e-05
1.16003e-05
1.10242e-05
1.117e-05
1.14193e-05
1.15541e-05
1.14887e-05
4.63254e-05
1.51172e-05
1.10918e-05
1.04873e-05
1.05906e-05
1.08019e-05
1.09124e-05
1.08416e-05
4.51975e-05
1.45696e-05
1.06075e-05
9.98206e-06
1.00431e-05
1.02119e-05
1.0293e-05
1.0218e-05
4.42524e-05
1.42203e-05
1.02586e-05
9.60106e-06
9.63255e-06
9.78147e-06
9.85264e-06
9.77286e-06
4.35149e-05
1.39071e-05
9.9784e-06
9.3092e-06
9.32186e-06
9.45456e-06
9.51687e-06
9.43891e-06
4.30563e-05
1.37248e-05
9.8082e-06
9.13328e-06
9.14203e-06
9.27646e-06
9.34611e-06
9.2787e-06
5.07999e-05
1.75973e-05
1.3534e-05
1.3121e-05
1.34595e-05
1.38796e-05
1.41309e-05
1.41046e-05
4.93228e-05
1.68929e-05
1.28941e-05
1.24493e-05
1.27332e-05
1.30992e-05
1.33103e-05
1.32663e-05
4.78398e-05
1.62132e-05
1.22661e-05
1.17879e-05
1.20218e-05
1.23425e-05
1.2523e-05
1.24686e-05
4.65259e-05
1.55617e-05
1.16737e-05
1.11667e-05
1.13502e-05
1.1621e-05
1.17655e-05
1.16996e-05
4.54094e-05
1.50933e-05
1.12221e-05
1.06852e-05
1.08369e-05
1.10854e-05
1.12194e-05
1.11521e-05
4.45546e-05
1.47046e-05
1.08683e-05
1.03178e-05
1.04478e-05
1.06779e-05
1.08021e-05
1.0737e-05
4.40051e-05
1.44611e-05
1.06446e-05
1.0091e-05
1.0219e-05