/*--------------------------------*- C++ -*----------------------------------*\
| =========                 |                                                 |
| \\      /  F ield         | OpenFOAM: The Open Source CFD Toolbox           |
|  \\    /   O peration     | Version:  plus.master.MPPICInterFoam            |
|   \\  /    A nd           | Web:      www.OpenFOAM.com                      |
|    \\/     M anipulation  |                                                 |
\*---------------------------------------------------------------------------*/
FoamFile
{
    version     2.0;
    format      ascii;
    class       volVectorField;
    location    "10.2";
    object      U;
}
// * * * * * * * * * * * * * * * * * * * * * * * * * * * * * * * * * * * * * //

dimensions      [0 1 -1 0 0 0 0];

internalField   nonuniform List<vector> 
11821
(
(-0.000279667 -0.000486575 -0.0359695)
(-0.000327159 -0.00049173 -0.0401422)
(-0.000367355 -0.00041154 -0.0414542)
(-0.000410203 -0.000309027 -0.0420687)
(-0.000435121 -0.000204783 -0.0424432)
(-0.000436184 -0.000106562 -0.04269)
(-0.000410488 -2.26367e-05 -0.0428291)
(-0.000359296 3.99399e-05 -0.0428343)
(-0.000327995 -0.000855976 -0.0362613)
(-0.000369422 -0.000809243 -0.0404264)
(-0.000428171 -0.000705282 -0.0417426)
(-0.00049556 -0.000594072 -0.0423738)
(-0.000543399 -0.000484513 -0.0427733)
(-0.0005638 -0.000380545 -0.043049)
(-0.000552335 -0.000288346 -0.0432178)
(-0.000508936 -0.000214114 -0.0432503)
(-0.000213509 -0.00119973 -0.0364552)
(-0.000280531 -0.00110027 -0.040614)
(-0.00037577 -0.000983477 -0.0419316)
(-0.000476334 -0.000876452 -0.042579)
(-0.000553601 -0.000774128 -0.0430015)
(-0.000598529 -0.000676416 -0.0433031)
(-0.000606095 -0.000586966 -0.0434982)
(-0.000575196 -0.000510594 -0.0435548)
(4.49682e-05 -0.00145049 -0.0365091)
(-6.6474e-05 -0.00131613 -0.0406598)
(-0.000200705 -0.00120511 -0.0419784)
(-0.000331152 -0.00111753 -0.0426377)
(-0.000433633 -0.00103547 -0.0430769)
(-0.000499264 -0.000955003 -0.0433978)
(-0.000523085 -0.000877356 -0.0436127)
(-0.00050369 -0.000805674 -0.0436875)
(0.000390136 -0.00157134 -0.0363998)
(0.00022354 -0.00142598 -0.0405432)
(5.46953e-05 -0.00133915 -0.041861)
(-9.63065e-05 -0.00128404 -0.0425241)
(-0.000214504 -0.00123307 -0.0429687)
(-0.000292486 -0.00117875 -0.0432957)
(-0.000326195 -0.00112011 -0.0435165)
(-0.000314573 -0.00105861 -0.0435962)
(0.000774812 -0.00156375 -0.0361212)
(0.000552961 -0.00143017 -0.0402618)
(0.000363141 -0.00138075 -0.041575)
(0.000207571 -0.00136648 -0.0422324)
(8.94056e-05 -0.0013539 -0.0426701)
(1.30235e-05 -0.00133219 -0.0429893)
(-1.93872e-05 -0.00129828 -0.0432021)
(-7.88638e-06 -0.00125205 -0.043274)
(0.00109412 -0.00138551 -0.0357038)
(0.000820099 -0.001299 -0.0398348)
(0.000617675 -0.00130185 -0.0411323)
(0.000467062 -0.00133123 -0.0417706)
(0.000357648 -0.00135506 -0.0421844)
(0.000290364 -0.00136078 -0.0424767)
(0.000265183 -0.00134433 -0.0426611)
(0.000280583 -0.00130486 -0.0427049)
(-0.000373032 -0.000586289 -0.0357106)
(-0.000407706 -0.000538318 -0.0397416)
(-0.000446236 -0.000420983 -0.0410292)
(-0.000484433 -0.000289795 -0.0416696)
(-0.000502783 -0.000159956 -0.0420944)
(-0.000494476 -3.93629e-05 -0.0424059)
(-0.000457687 6.38223e-05 -0.0426181)
(-0.000394732 0.00014159 -0.042699)
(-0.000377379 -0.000917293 -0.0360059)
(-0.000428339 -0.00082121 -0.0400249)
(-0.000501815 -0.000686494 -0.0413152)
(-0.000574351 -0.00055181 -0.0419759)
(-0.000624237 -0.000420831 -0.0424286)
(-0.000642404 -0.000297949 -0.0427716)
(-0.000625953 -0.000189375 -0.0430159)
(-0.000575855 -0.000102054 -0.0431266)
(-0.000236649 -0.00118854 -0.0362145)
(-0.000331659 -0.00105833 -0.0402187)
(-0.000454318 -0.000924866 -0.0415126)
(-0.000566998 -0.000804385 -0.0421933)
(-0.000652045 -0.000689181 -0.0426719)
(-0.000699667 -0.000579821 -0.0430431)
(-0.000706641 -0.000480126 -0.0433157)
(-0.000672777 -0.000395465 -0.0434524)
(1.41983e-05 -0.00135 -0.0362838)
(-0.000132751 -0.00121338 -0.040271)
(-0.000300221 -0.0011053 -0.0415684)
(-0.000446468 -0.00101745 -0.0422624)
(-0.000560126 -0.000933942 -0.0427593)
(-0.000631295 -0.000851827 -0.0431515)
(-0.000656692 -0.000772703 -0.0434456)
(-0.000635863 -0.000699996 -0.0436021)
(0.000313053 -0.00138513 -0.0361935)
(0.000118228 -0.00126851 -0.0401701)
(-8.01893e-05 -0.00120564 -0.0414674)
(-0.000245163 -0.00116442 -0.0421654)
(-0.000373195 -0.00112419 -0.0426679)
(-0.000455591 -0.0010787 -0.0430665)
(-0.000489737 -0.00102761 -0.0433668)
(-0.000475541 -0.000972498 -0.0435283)
(0.000618328 -0.00131255 -0.0359386)
(0.000388827 -0.00123127 -0.0399142)
(0.000181559 -0.00122241 -0.0412072)
(1.88465e-05 -0.00123323 -0.0418989)
(-0.000103875 -0.00124083 -0.0423936)
(-0.000180454 -0.00123583 -0.0427835)
(-0.000209712 -0.00121599 -0.0430748)
(-0.000192636 -0.00118116 -0.0432275)
(0.000846615 -0.00111245 -0.0355493)
(0.000594661 -0.00108661 -0.0395225)
(0.000392878 -0.00113714 -0.0408023)
(0.000245491 -0.00119715 -0.0414743)
(0.000139469 -0.0012463 -0.0419444)
(7.79458e-05 -0.00127339 -0.0423067)
(6.04704e-05 -0.00127507 -0.042569)
(8.47447e-05 -0.00125017 -0.0426929)
(-0.000450888 -0.000654539 -0.0354496)
(-0.000476371 -0.000543486 -0.0393213)
(-0.00051714 -0.000383261 -0.0405821)
(-0.00055182 -0.000219947 -0.0412524)
(-0.000564287 -6.15335e-05 -0.0417311)
(-0.000547032 8.3702e-05 -0.0421109)
(-0.000499556 0.000207552 -0.0424001)
(-0.000425422 0.000301474 -0.0425614)
(-0.0004221 -0.00095058 -0.0357487)
(-0.00048679 -0.000799933 -0.0396003)
(-0.00057835 -0.000630253 -0.040867)
(-0.000657418 -0.000469671 -0.0415609)
(-0.000709947 -0.000315296 -0.0420697)
(-0.000726583 -0.000171782 -0.0424823)
(-0.000705941 -4.5563e-05 -0.0428046)
(-0.000650104 5.58069e-05 -0.0429966)
(-0.000265399 -0.00115959 -0.0359714)
(-0.000391733 -0.000996207 -0.039799)
(-0.000543579 -0.000843151 -0.0410754)
(-0.000669558 -0.000707582 -0.0417933)
(-0.00076241 -0.000578536 -0.0423305)
(-0.000813399 -0.000456802 -0.0427722)
(-0.000821141 -0.000346343 -0.0431231)
(-0.000786101 -0.000252997 -0.0433418)
(-2.5463e-05 -0.00124859 -0.0360488)
(-0.000210204 -0.00110789 -0.0398564)
(-0.000411444 -0.00100034 -0.0411374)
(-0.000575029 -0.000911059 -0.0418696)
(-0.000700296 -0.000825572 -0.0424265)
(-0.000778122 -0.000741725 -0.0428913)
(-0.000806802 -0.000661273 -0.0432657)
(-0.000786725 -0.000587747 -0.0435058)
(0.000233057 -0.00122008 -0.0359733)
(7.38722e-06 -0.00113036 -0.0397695)
(-0.000220896 -0.00108925 -0.0410504)
(-0.000401351 -0.00106133 -0.0417866)
(-0.000539663 -0.0010317 -0.0423497)
(-0.000627485 -0.000995362 -0.0428219)
(-0.000663601 -0.000952413 -0.0432033)
(-0.000648875 -0.000904364 -0.043449)
(0.000474024 -0.00110147 -0.03574)
(0.000232852 -0.00107195 -0.0395369)
(7.31013e-06 -0.00110203 -0.0408137)
(-0.000164036 -0.00113803 -0.0415433)
(-0.000291729 -0.00116617 -0.0420984)
(-0.00036935 -0.00117869 -0.042562)
(-0.00039679 -0.00117397 -0.0429346)
(-0.000375993 -0.00115168 -0.0431718)
(0.000632827 -0.000891523 -0.035378)
(0.000396864 -0.00092847 -0.0391784)
(0.000194182 -0.00102633 -0.0404431)
(4.88124e-05 -0.00111805 -0.0411529)
(-5.38751e-05 -0.00119362 -0.0416835)
(-0.000109781 -0.00124339 -0.0421197)
(-0.000120068 -0.00126456 -0.0424639)
(-8.79779e-05 -0.00125562 -0.042673)
(-0.000509218 -0.000686531 -0.0351598)
(-0.000527292 -0.000508428 -0.0388575)
(-0.000571714 -0.000302381 -0.0400974)
(-0.000602965 -0.00010583 -0.0408033)
(-0.000609571 8.17625e-05 -0.0413407)
(-0.000583897 0.000251962 -0.0417929)
(-0.000526871 0.000396537 -0.042163)
(-0.000443234 0.000506421 -0.0424096)
(-0.000460878 -0.00095247 -0.0354593)
(-0.00053959 -0.000746224 -0.0391308)
(-0.000648677 -0.000540763 -0.0403827)
(-0.000734079 -0.000353879 -0.0411151)
(-0.000788755 -0.000176067 -0.0416837)
(-0.000804224 -1.17596e-05 -0.0421686)
(-0.0007807 0.000132164 -0.0425711)
(-0.000721215 0.000247772 -0.0428479)
(-0.000298118 -0.00111074 -0.03569)
(-0.000455141 -0.000913079 -0.0393388)
(-0.000633818 -0.000740127 -0.040607)
(-0.000771341 -0.000589636 -0.041368)
(-0.00086966 -0.00044751 -0.0419664)
(-0.000923495 -0.00031413 -0.0424777)
(-0.000933483 -0.000193473 -0.0429062)
(-0.000899791 -9.17847e-05 -0.0432078)
(-7.11577e-05 -0.00114383 -0.035768)
(-0.000292159 -0.000997478 -0.0393972)
(-0.000524021 -0.00088928 -0.04067)
(-0.000703359 -0.000798334 -0.0414453)
(-0.000838568 -0.000711433 -0.0420645)
(-0.000922909 -0.000627008 -0.0426022)
(-0.000956191 -0.000546504 -0.0430569)
(-0.000939208 -0.000473306 -0.0433819)
(0.000152756 -0.00107401 -0.0357027)
(-0.000102595 -0.00100878 -0.0393205)
(-0.000357636 -0.000987218 -0.0405926)
(-0.000552249 -0.000972026 -0.0413716)
(-0.000699533 -0.000953149 -0.041998)
(-0.000792685 -0.000926687 -0.0425452)
(-0.0008319 -0.000892908 -0.0430088)
(-0.000818804 -0.000853082 -0.0433411)
(0.000343623 -0.000928632 -0.0354893)
(9.03986e-05 -0.000948695 -0.0391087)
(-0.000151145 -0.00101492 -0.0403764)
(-0.000330085 -0.00107537 -0.0411487)
(-0.000461611 -0.00112391 -0.0417677)
(-0.000540115 -0.00115438 -0.0423073)
(-0.000566653 -0.0011656 -0.0427633)
(-0.000544028 -0.001157 -0.0430881)
(0.000452892 -0.000721032 -0.0351557)
(0.000230164 -0.000819945 -0.0387814)
(2.73575e-05 -0.000962773 -0.0400372)
(-0.000115376 -0.00108582 -0.0407899)
(-0.000213735 -0.00118777 -0.0413852)
(-0.000263673 -0.00126067 -0.041899)
(-0.000267275 -0.00130216 -0.0423285)
(-0.000228702 -0.00131041 -0.0426271)
(-0.000546081 -0.000678522 -0.0348165)
(-0.000556239 -0.000434815 -0.0383361)
(-0.00060344 -0.000184809 -0.0395658)
(-0.000631093 4.34736e-05 -0.0403138)
(-0.000631804 0.00025825 -0.0409147)
(-0.000598828 0.000451358 -0.0414432)
(-0.000534559 0.000614518 -0.0418979)
(-0.00044497 0.000738446 -0.0422346)
(-0.000491469 -0.000922651 -0.0351084)
(-0.000582009 -0.000662699 -0.0386065)
(-0.000705798 -0.000424584 -0.0398541)
(-0.000795769 -0.000213777 -0.0406311)
(-0.00085106 -1.47223e-05 -0.0412625)
(-0.00086536 0.000168917 -0.0418208)
(-0.000840541 0.000329242 -0.0423049)
(-0.000779648 0.000457863 -0.0426687)
(-0.00033189 -0.00104061 -0.0353448)
(-0.000517098 -0.000809839 -0.0388295)
(-0.000717755 -0.000619175 -0.0401037)
(-0.00086158 -0.00045629 -0.0409161)
(-0.000959873 -0.000304034 -0.0415767)
(-0.00101461 -0.000161437 -0.0421521)
(-0.00102854 -3.23676e-05 -0.0426543)
(-0.000999133 7.63404e-05 -0.0430379)
(-0.000119338 -0.00103267 -0.0354153)
(-0.000372418 -0.000880552 -0.0388822)
(-0.000629003 -0.000771542 -0.0401588)
(-0.000819358 -0.000679662 -0.0409831)
(-0.000960518 -0.000593162 -0.0416656)
(-0.00104998 -0.000510794 -0.0422742)
(-0.00108869 -0.00043275 -0.0428073)
(-0.00107688 -0.000361984 -0.0432172)
(7.52374e-05 -0.000944246 -0.0353556)
(-0.000205444 -0.000901097 -0.0388104)
(-0.000481344 -0.000896839 -0.0400838)
(-0.000686187 -0.000893738 -0.0409103)
(-0.000839444 -0.000885966 -0.0416019)
(-0.000936628 -0.000870434 -0.0422243)
(-0.000979223 -0.000847121 -0.0427701)
(-0.000969262 -0.000816881 -0.0431898)
(0.000229404 -0.000791676 -0.0351605)
(-3.32736e-05 -0.000857534 -0.0386162)
(-0.000286149 -0.000956043 -0.0398845)
(-0.000469545 -0.00103924 -0.0407045)
(-0.000602534 -0.00110729 -0.0413902)
(-0.000680926 -0.0011555 -0.0420072)
(-0.000706912 -0.00118294 -0.0425478)
(-0.000683898 -0.0011887 -0.0429621)
(0.000308066 -0.000598752 -0.0348567)
(9.81373e-05 -0.000755761 -0.0383183)
(-0.000102376 -0.000939124 -0.0395743)
(-0.000240531 -0.00109127 -0.0403753)
(-0.000333006 -0.00121809 -0.041039)
(-0.000376452 -0.00131322 -0.0416327)
(-0.000373928 -0.00137469 -0.0421497)
(-0.000330302 -0.00140037 -0.0425408)
(-0.000558474 -0.00063088 -0.0343967)
(-0.000559789 -0.000327227 -0.0377516)
(-0.000608388 -3.93975e-05 -0.038983)
(-0.000632036 0.000215829 -0.0397798)
(-0.000627071 0.000452926 -0.0404485)
(-0.000588709 0.000664173 -0.0410562)
(-0.000521118 0.000841207 -0.0415988)
(-0.000429586 0.000975594 -0.042029)
(-0.000510924 -0.00086295 -0.0346761)
(-0.000610446 -0.000555212 -0.038022)
(-0.000744989 -0.000291157 -0.0392788)
(-0.000836141 -6.17096e-05 -0.0401068)
(-0.000889687 0.000154446 -0.0408024)
(-0.000902689 0.000354427 -0.041434)
(-0.000877975 0.000528058 -0.0419995)
(-0.00081839 0.000666286 -0.042452)
(-0.000364379 -0.000948914 -0.0349192)
(-0.000575016 -0.000689303 -0.0382697)
(-0.000789928 -0.000485799 -0.0395717)
(-0.000930233 -0.000315894 -0.0404466)
(-0.0010202 -0.000158548 -0.0411672)
(-0.00107339 -1.04446e-05 -0.0417915)
(-0.00109333 0.000124227 -0.0423598)
(-0.00107146 0.000237563 -0.0428231)
(-0.000166828 -0.000912527 -0.0349735)
(-0.000446182 -0.000756473 -0.0383069)
(-0.000719257 -0.000647285 -0.0396035)
(-0.000912554 -0.000556434 -0.0404842)
(-0.00105307 -0.000473754 -0.0412285)
(-0.00114521 -0.000397564 -0.0419022)
(-0.00118979 -0.000325646 -0.0425098)
(-0.0011847 -0.000260279 -0.0430032)
(3.54284e-06 -0.000828164 -0.0349147)
(-0.000295409 -0.000804849 -0.038233)
(-0.000584063 -0.00081544 -0.0395197)
(-0.000793212 -0.000823649 -0.0403985)
(-0.00094803 -0.000827586 -0.0411562)
(-0.00104693 -0.000824319 -0.0418529)
(-0.00109227 -0.000812864 -0.0424797)
(-0.00108597 -0.000793505 -0.042987)
(0.000133697 -0.0006877 -0.0347365)
(-0.000133276 -0.00079394 -0.0380533)
(-0.000391033 -0.0009198 -0.0393336)
(-0.00057439 -0.00102301 -0.0402062)
(-0.0007056 -0.00110881 -0.0409605)
(-0.000782221 -0.00117363 -0.0416554)
(-0.000807359 -0.00121657 -0.0422805)
(-0.000784663 -0.0012364 -0.0427854)
(0.000199683 -0.000521485 -0.0344638)
(3.8146e-06 -0.000729515 -0.0377829)
(-0.000190945 -0.000946992 -0.03905)
(-0.000321977 -0.00112419 -0.0399047)
(-0.000406855 -0.00127265 -0.0406396)
(-0.00044331 -0.00138744 -0.0413147)
(-0.000435239 -0.0014669 -0.04192)
(-0.000387863 -0.0015087 -0.0424054)
(-0.000543711 -0.000546342 -0.0338863)
(-0.000536409 -0.000193298 -0.0371029)
(-0.000585177 0.000122783 -0.0383495)
(-0.000604381 0.000397053 -0.0392018)
(-0.00059469 0.000648802 -0.0399417)
(-0.000554643 0.000870455 -0.0406316)
(-0.000487947 0.00105472 -0.0412637)
(-0.00039885 0.00119383 -0.0417895)
(-0.000517033 -0.000776505 -0.0341506)
(-0.000622781 -0.000431225 -0.0373776)
(-0.000762765 -0.00015107 -0.0386602)
(-0.000850259 9.02708e-05 -0.0395465)
(-0.000899722 0.000318755 -0.0403053)
(-0.000911898 0.000529588 -0.0410074)
(-0.000889108 0.000710274 -0.0416536)
(-0.000833341 0.000852605 -0.0421954)
(-0.000394416 -0.000836883 -0.0344025)
(-0.000626838 -0.000556023 -0.0376651)
(-0.000842612 -0.000347696 -0.0390292)
(-0.000964319 -0.000178991 -0.0399913)
(-0.00104127 -2.20439e-05 -0.0407723)
(-0.001095 0.000127851 -0.0413979)
(-0.00112229 0.00026403 -0.0420195)
(-0.00111014 0.000377691 -0.0425601)
(-0.000211057 -0.000783018 -0.0344332)
(-0.000509373 -0.000626817 -0.0376726)
(-0.000788405 -0.000519272 -0.0390112)
(-0.000974397 -0.000433743 -0.0399597)
(-0.00110728 -0.000360436 -0.0407593)
(-0.00119987 -0.000294474 -0.0414864)
(-0.00125009 -0.000232352 -0.042163)
(-0.00125219 -0.000175449 -0.0427382)
(-5.95559e-05 -0.000724371 -0.0343718)
(-0.000367766 -0.000718958 -0.0375884)
(-0.000659575 -0.000741966 -0.038902)
(-0.000865857 -0.000760739 -0.0398379)
(-0.00101704 -0.000777092 -0.0406615)
(-0.00111482 -0.000787127 -0.0414307)
(-0.00116151 -0.000788451 -0.0421371)
(-0.00115834 -0.000780727 -0.0427318)
(5.84023e-05 -0.000613585 -0.0342096)
(-0.000206022 -0.00075344 -0.0374205)
(-0.000461163 -0.000900776 -0.0387252)
(-0.000639339 -0.00102028 -0.0396549)
(-0.000765179 -0.00112109 -0.0404792)
(-0.000838045 -0.00120027 -0.0412518)
(-0.000861532 -0.00125677 -0.0419611)
(-0.000839125 -0.00128907 -0.0425572)
(0.000128219 -0.000484893 -0.0339687)
(-5.14441e-05 -0.00073402 -0.0371758)
(-0.000236581 -0.000977391 -0.0384662)
(-0.000357959 -0.00117386 -0.0393798)
(-0.000433808 -0.00133901 -0.040188)
(-0.000463068 -0.00146912 -0.0409451)
(-0.000450168 -0.00156275 -0.0416391)
(-0.000400254 -0.00161752 -0.0422198)
(-0.000500833 -0.000429394 -0.0332803)
(-0.000486637 -4.19313e-05 -0.0363945)
(-0.000534357 0.000290013 -0.0376711)
(-0.000549318 0.00057277 -0.0385854)
(-0.000538351 0.000828805 -0.0393999)
(-0.000500867 0.00105154 -0.0401731)
(-0.000439477 0.0012342 -0.0408954)
(-0.000357472 0.00137029 -0.0415181)
(-0.0005078 -0.000666128 -0.033529)
(-0.000616548 -0.0002968 -0.0366799)
(-0.000755387 -1.08804e-05 -0.038009)
(-0.000834914 0.000236133 -0.0389663)
(-0.000880036 0.000468762 -0.0397783)
(-0.000892558 0.000681891 -0.0405464)
(-0.000873779 0.000860775 -0.0412714)
(-0.000824258 0.000999471 -0.0419025)
(-0.000419166 -0.000707966 -0.0337913)
(-0.000663666 -0.000416986 -0.0370312)
(-0.000861735 -0.000213865 -0.0385266)
(-0.000958602 -5.29252e-05 -0.0395945)
(-0.00102451 9.83875e-05 -0.0404426)
(-0.00108281 0.000245178 -0.0409792)
(-0.00111968 0.000376914 -0.0416371)
(-0.00111686 0.000484452 -0.0422531)
(-0.000248243 -0.000648966 -0.0337926)
(-0.000555298 -0.000498522 -0.0369878)
(-0.000827704 -0.000397349 -0.0384077)
(-0.000998893 -0.000324048 -0.0394595)
(-0.00112286 -0.000263846 -0.0402883)
(-0.00121565 -0.000211229 -0.0410347)
(-0.00126916 -0.00016117 -0.0417727)
(-0.00127636 -0.000114921 -0.042428)
(-0.000110609 -0.000634174 -0.0337272)
(-0.000418266 -0.000645573 -0.0368835)
(-0.000703301 -0.000679575 -0.0382389)
(-0.000899513 -0.000708777 -0.0392374)
(-0.00104257 -0.000737501 -0.0401252)
(-0.0011369 -0.000760078 -0.0409643)
(-0.00118315 -0.000773479 -0.0417489)
(-0.0011817 -0.000776871 -0.0424306)
(5.20951e-06 -0.000566196 -0.0335818)
(-0.000249401 -0.000732331 -0.0367257)
(-0.000494347 -0.000894651 -0.0380677)
(-0.000662331 -0.00102585 -0.0390587)
(-0.0007796 -0.00113794 -0.0399534)
(-0.000847012 -0.00122797 -0.0408035)
(-0.000867973 -0.00129471 -0.0415965)
(-0.000845437 -0.00133649 -0.042284)
(9.27448e-05 -0.000483109 -0.0333729)
(-6.85348e-05 -0.000761586 -0.0365049)
(-0.000240432 -0.00102123 -0.037831)
(-0.000350211 -0.0012298 -0.038808)
(-0.000416351 -0.00140529 -0.0396911)
(-0.000438841 -0.00154482 -0.0405305)
(-0.000422215 -0.00164716 -0.0413131)
(-0.000371128 -0.00171004 -0.0419898)
(-0.000430945 -0.000286903 -0.0325831)
(-0.000412507 0.000117573 -0.0356375)
(-0.00045881 0.000451628 -0.0369601)
(-0.000472523 0.000730139 -0.0379438)
(-0.000464276 0.000978763 -0.038834)
(-0.000433959 0.00119163 -0.0396901)
(-0.00038278 0.00136258 -0.0405023)
(-0.000312561 0.00148654 -0.0412223)
(-0.000479323 -0.000533706 -0.0328171)
(-0.000586904 -0.000154207 -0.0359437)
(-0.000719654 0.000129665 -0.0373449)
(-0.000790025 0.000373951 -0.0383744)
(-0.000832204 0.000601148 -0.039227)
(-0.000848427 0.000803595 -0.0400597)
(-0.000836361 0.000969189 -0.0408624)
(-0.000795254 0.00109417 -0.0415826)
(-0.000428373 -0.000568832 -0.0330915)
(-0.00066819 -0.000281502 -0.0364021)
(-0.000840363 -9.14435e-05 -0.0381566)
(-0.000912488 5.51662e-05 -0.0393163)
(-0.000978605 0.000195579 -0.0398803)
(-0.00105601 0.000337153 -0.0405043)
(-0.00109794 0.000456142 -0.0412214)
(-0.00109998 0.000549929 -0.041915)
(-0.000271617 -0.000521728 -0.0330606)
(-0.000575573 -0.000385798 -0.0362677)
(-0.000835516 -0.000299035 -0.0377991)
(-0.00099065 -0.000242173 -0.0389943)
(-0.00110579 -0.000199496 -0.0398135)
(-0.00119858 -0.00015782 -0.0405567)
(-0.00125293 -0.000119492 -0.0413515)
(-0.00126144 -8.48404e-05 -0.0420859)
(-0.000144678 -0.000561793 -0.0329907)
(-0.000442821 -0.000590161 -0.0361319)
(-0.000713025 -0.000635017 -0.0375453)
(-0.000894142 -0.000673033 -0.0386136)
(-0.00102636 -0.000712264 -0.0395603)
(-0.00111566 -0.000745232 -0.0404664)
(-0.00115978 -0.000768262 -0.041328)
(-0.00115825 -0.000780764 -0.0420967)
(-2.33567e-05 -0.000542602 -0.0328623)
(-0.000262199 -0.000727823 -0.0359828)
(-0.000490954 -0.000898525 -0.0373754)
(-0.000644814 -0.00103601 -0.0384308)
(-0.000751584 -0.00115468 -0.0393958)
(-0.000812783 -0.001251 -0.0403227)
(-0.000830809 -0.00132348 -0.0411993)
(-0.000807873 -0.00137057 -0.0419785)
(9.16997e-05 -0.000508178 -0.0326844)
(-5.00118e-05 -0.000803878 -0.0357835)
(-0.000206484 -0.00106973 -0.0371575)
(-0.000303969 -0.00128247 -0.0382016)
(-0.00036098 -0.00146118 -0.0391608)
(-0.000378126 -0.00160333 -0.0400827)
(-0.000359575 -0.00170786 -0.040954)
(-0.000309161 -0.00177282 -0.041727)
(-0.000336257 -0.000128408 -0.0318059)
(-0.000317993 0.000275584 -0.0348489)
(-0.000365683 0.000597739 -0.0362354)
(-0.000381767 0.000859047 -0.0372946)
(-0.000380655 0.00108768 -0.0382586)
(-0.000362753 0.00127951 -0.0391958)
(-0.000326721 0.00142863 -0.0400968)
(-0.000272699 0.00153133 -0.0409138)
(-0.000426957 -0.000380228 -0.0320363)
(-0.000530721 -4.08868e-06 -0.0351886)
(-0.000655537 0.000267972 -0.0366876)
(-0.000719189 0.000502543 -0.0377703)
(-0.000763408 0.000713822 -0.0386621)
(-0.000787764 0.00088934 -0.0395597)
(-0.000785124 0.00102847 -0.0404405)
(-0.000754119 0.00112922 -0.0412497)
(-0.000411431 -0.000426913 -0.0323358)
(-0.00063963 -0.000155707 -0.0358178)
(-0.000776532 1.39125e-05 -0.037899)
(-0.000838155 0.000143896 -0.0386535)
(-0.000944544 0.00027716 -0.039327)
(-0.00103437 0.000401635 -0.0399981)
(-0.00106994 0.000497973 -0.040789)
(-0.0010684 0.000570083 -0.0415645)
(-0.000276568 -0.000415151 -0.0322705)
(-0.00056366 -0.0003037 -0.0355271)
(-0.0008045 -0.000236588 -0.0371603)
(-0.0009505 -0.000199709 -0.0383431)
(-0.00107125 -0.000172646 -0.0391647)
(-0.00116418 -0.000139088 -0.0400455)
(-0.00121132 -0.000110435 -0.0409147)
(-0.00121582 -8.74096e-05 -0.04173)
(-0.000159241 -0.000512551 -0.032193)
(-0.000439685 -0.000558003 -0.0353531)
(-0.000689346 -0.000614185 -0.0368425)
(-0.000854265 -0.000660538 -0.0379934)
(-0.000976397 -0.000706388 -0.0389809)
(-0.00105979 -0.000743836 -0.039953)
(-0.00110003 -0.000772324 -0.0408916)
(-0.0010966 -0.000790862 -0.0417473)
(-2.65822e-05 -0.000541849 -0.0320809)
(-0.000245703 -0.000738407 -0.0352105)
(-0.000454694 -0.000911179 -0.0366706)
(-0.000592547 -0.00104927 -0.0377895)
(-0.00068862 -0.00116861 -0.0388223)
(-0.000744015 -0.0012656 -0.0398252)
(-0.000759488 -0.00133851 -0.0407854)
(-0.000736416 -0.00138602 -0.0416565)
(0.00012241 -0.000553139 -0.0319279)
(-8.52494e-07 -0.000853665 -0.0350285)
(-0.000141753 -0.00111576 -0.0364617)
(-0.000227919 -0.00132446 -0.0375755)
(-0.00027793 -0.0014991 -0.0386117)
(-0.000292293 -0.00163685 -0.0396165)
(-0.000274424 -0.00173676 -0.0405769)
(-0.000227161 -0.0017974 -0.0414463)
(-0.000221859 3.61893e-05 -0.0309797)
(-0.000210858 0.000422143 -0.0340503)
(-0.00026493 0.000719382 -0.0355222)
(-0.000287859 0.000951899 -0.0366646)
(-0.000298632 0.00114904 -0.0376908)
(-0.000297781 0.00130986 -0.038705)
(-0.000281066 0.00142851 -0.0396931)
(-0.000246771 0.00150229 -0.0406059)
(-0.000351027 -0.000207397 -0.0312207)
(-0.000450132 0.000150625 -0.0344293)
(-0.000566164 0.000406674 -0.0360179)
(-0.000631691 0.000619024 -0.0371778)
(-0.000687731 0.00079387 -0.0381043)
(-0.000723001 0.000930906 -0.0390633)
(-0.000731 0.00103424 -0.0400214)
(-0.000710732 0.00110283 -0.0409189)
(-0.000365996 -0.000290631 -0.0315592)
(-0.000560175 -5.20992e-05 -0.0352225)
(-0.000676947 9.56779e-05 -0.0370434)
(-0.000794271 0.000221983 -0.038098)
(-0.000926562 0.000338653 -0.0388115)
(-0.00100651 0.000431121 -0.0395138)
(-0.00103424 0.000498502 -0.0403658)
(-0.00102681 0.000543965 -0.0412206)
(-0.000265188 -0.000340867 -0.0314561)
(-0.000523083 -0.0002616 -0.0347839)
(-0.000743399 -0.00022191 -0.0365053)
(-0.000895809 -0.000199611 -0.0378083)
(-0.00102887 -0.000174909 -0.0386753)
(-0.00111383 -0.000149075 -0.0395471)
(-0.001151 -0.000130615 -0.0404819)
(-0.00114844 -0.00011942 -0.0413786)
(-0.000155956 -0.000487828 -0.0313637)
(-0.000412497 -0.000549043 -0.0345702)
(-0.00064084 -0.000616538 -0.0361635)
(-0.000789902 -0.000669058 -0.0374059)
(-0.000904344 -0.00071535 -0.0384086)
(-0.000981666 -0.000752909 -0.039442)
(-0.00101663 -0.000783061 -0.0404577)
(-0.00100972 -0.00080446 -0.0414007)
(-7.82799e-06 -0.000562847 -0.031265)
(-0.000206011 -0.000762748 -0.0344302)
(-0.000392735 -0.000930689 -0.0359882)
(-0.000515379 -0.00106344 -0.037159)
(-0.000603087 -0.00117805 -0.0382505)
(-0.000653886 -0.0012698 -0.0393278)
(-0.00066764 -0.00133755 -0.0403718)
(-0.000645122 -0.00138041 -0.041335)
(0.000178439 -0.000612742 -0.031132)
(7.03897e-05 -0.000905512 -0.0342587)
(-5.67502e-05 -0.00115427 -0.0357634)
(-0.000133974 -0.00135156 -0.0369462)
(-0.000180491 -0.00151513 -0.0380593)
(-0.00019549 -0.00164174 -0.0391477)
(-0.000181424 -0.00173061 -0.0401977)
(-0.000140172 -0.0017809 -0.0411638)
(-9.95618e-05 0.000196381 -0.0301338)
(-0.000105637 0.000547306 -0.0332651)
(-0.00016869 0.000808466 -0.0348541)
(-0.000202721 0.00100192 -0.0360994)
(-0.000230904 0.00116058 -0.0371477)
(-0.000250848 0.00128411 -0.0382312)
(-0.000255668 0.00136642 -0.0393044)
(-0.000242671 0.00140615 -0.0403117)
(-0.000261297 -2.85133e-05 -0.0303973)
(-0.000354776 0.000292085 -0.0336777)
(-0.000467766 0.000525157 -0.0353619)
(-0.000548486 0.000695383 -0.0365767)
(-0.000620286 0.000826938 -0.037554)
(-0.000666036 0.000923085 -0.0385819)
(-0.000684449 0.000987122 -0.0396191)
(-0.000674598 0.00101972 -0.0406047)
(-0.00030571 -0.000168271 -0.0307878)
(-0.000444689 2.32498e-05 -0.034564)
(-0.000602312 0.000155009 -0.0366934)
(-0.000769381 0.000269716 -0.0376187)
(-0.000897086 0.000358462 -0.038207)
(-0.000966477 0.000419862 -0.039022)
(-0.000991225 0.000457981 -0.0399581)
(-0.000980008 0.000475571 -0.0408967)
(-0.000243297 -0.000298332 -0.0306454)
(-0.000469647 -0.000249569 -0.0340528)
(-0.000678307 -0.000236881 -0.0358677)
(-0.000837918 -0.000217408 -0.0371735)
(-0.000971718 -0.000196221 -0.038088)
(-0.00104802 -0.000180509 -0.0390556)
(-0.00107825 -0.000173249 -0.0400673)
(-0.00106893 -0.000173866 -0.041047)
(-0.00013794 -0.000481897 -0.0305305)
(-0.000367682 -0.000555135 -0.0338008)
(-0.00057419 -0.00062914 -0.0354982)
(-0.00071472 -0.000684483 -0.0367271)
(-0.000827278 -0.000730851 -0.0378395)
(-0.000895457 -0.000767211 -0.0389481)
(-0.000923407 -0.000796487 -0.0400432)
(-0.000911872 -0.00081796 -0.0410735)
(2.85613e-05 -0.000600475 -0.0304393)
(-0.000147562 -0.000794876 -0.0336575)
(-0.00031665 -0.00095399 -0.0352943)
(-0.000428339 -0.00107859 -0.036561)
(-0.000509722 -0.00118157 -0.0376955)
(-0.000557799 -0.0012626 -0.0388465)
(-0.000570773 -0.00132004 -0.0399747)
(-0.000549469 -0.00135364 -0.0410297)
(0.00025077 -0.000680835 -0.0303207)
(0.000153123 -0.000955012 -0.0334933)
(3.67712e-05 -0.0011835 -0.0350894)
(-3.63497e-05 -0.00136223 -0.0363298)
(-8.36054e-05 -0.00150873 -0.0375188)
(-0.000102841 -0.00161829 -0.0386916)
(-9.55861e-05 -0.00169055 -0.0398318)
(-6.29785e-05 -0.00172546 -0.0408943)
(1.71541e-05 0.000336331 -0.0292948)
(-9.73047e-06 0.000636739 -0.0325081)
(-8.77983e-05 0.000856139 -0.034195)
(-0.000140676 0.00100788 -0.0355417)
(-0.000191822 0.00112708 -0.0366346)
(-0.000233146 0.00121003 -0.0377857)
(-0.000258593 0.00125324 -0.0389429)
(-0.000265531 0.00125684 -0.0400427)
(-0.000168326 0.000134089 -0.0295873)
(-0.000258792 0.000402152 -0.0329511)
(-0.000380902 0.000590261 -0.0347253)
(-0.00048343 0.000720874 -0.0359457)
(-0.000572102 0.000812977 -0.0370163)
(-0.000626587 0.000868225 -0.0381248)
(-0.000653476 0.00089336 -0.0392447)
(-0.000652512 0.00089039 -0.0403182)
(-0.000228901 -6.98646e-05 -0.0300351)
(-0.000364644 8.02968e-05 -0.0338978)
(-0.000554874 0.000189333 -0.0360328)
(-0.000729268 0.000278016 -0.0368214)
(-0.000856746 0.000338774 -0.0375929)
(-0.000923955 0.000371819 -0.0385408)
(-0.000946717 0.000382256 -0.0395741)
(-0.000933162 0.000373595 -0.0406016)
(-0.000214804 -0.000278327 -0.0298562)
(-0.000412924 -0.000256324 -0.0333308)
(-0.000611878 -0.000253008 -0.0351695)
(-0.00077765 -0.000239809 -0.0364537)
(-0.00090923 -0.000230445 -0.0374974)
(-0.000977536 -0.0002263 -0.0385781)
(-0.00100112 -0.000230135 -0.0396795)
(-0.000986111 -0.000241554 -0.040746)
(-0.000110111 -0.000487449 -0.0297161)
(-0.00031152 -0.000567605 -0.0330501)
(-0.000499707 -0.000643119 -0.034803)
(-0.000643391 -0.000702903 -0.0361458)
(-0.000751899 -0.000747234 -0.0372959)
(-0.000810915 -0.000780967 -0.0384832)
(-0.000831386 -0.000807588 -0.0396611)
(-0.000815122 -0.000826987 -0.0407788)
(7.61186e-05 -0.000646283 -0.0296255)
(-8.00459e-05 -0.000826997 -0.0329086)
(-0.00023554 -0.00097447 -0.0346771)
(-0.000344167 -0.00108683 -0.0359228)
(-0.000425229 -0.00117677 -0.0371597)
(-0.000470458 -0.0012425 -0.0383937)
(-0.000482776 -0.00128569 -0.0396078)
(-0.000463054 -0.00130657 -0.040754)
(0.000329791 -0.000749282 -0.0295155)
(0.000236318 -0.000995844 -0.0327467)
(0.000124781 -0.00119949 -0.0344376)
(5.04976e-05 -0.00135756 -0.0357357)
(-1.89408e-06 -0.0014814 -0.0370032)
(-2.82425e-05 -0.00156906 -0.0382616)
(-2.9877e-05 -0.00162051 -0.0394924)
(-7.61212e-06 -0.00163646 -0.0406503)
(0.000115043 0.00044225 -0.0284839)
(6.32195e-05 0.000682056 -0.0317959)
(-3.06432e-05 0.000853105 -0.0336491)
(-0.000111752 0.000968164 -0.0349259)
(-0.000191885 0.00105507 -0.0361373)
(-0.000250614 0.00109758 -0.037375)
(-0.000292373 0.0011025 -0.038618)
(-0.000315381 0.00107163 -0.0398079)
(-8.59159e-05 0.000261199 -0.0288044)
(-0.000183887 0.000467093 -0.0322529)
(-0.000317307 0.0006063 -0.0341123)
(-0.000441382 0.000698135 -0.0353657)
(-0.000544379 0.000752816 -0.0365061)
(-0.000607366 0.000772099 -0.0376999)
(-0.000640925 0.000763141 -0.038906)
(-0.000646737 0.00072903 -0.0400673)
(-0.000154949 5.03461e-07 -0.0293098)
(-0.000302762 0.000110044 -0.0331905)
(-0.00050389 0.000190902 -0.0350004)
(-0.000693841 0.000253299 -0.0360349)
(-0.000820962 0.000287395 -0.0370041)
(-0.000883541 0.000294349 -0.0380846)
(-0.000904053 0.000280737 -0.0392215)
(-0.000889431 0.000250059 -0.0403417)
(-0.000187013 -0.000273026 -0.0290966)
(-0.000362722 -0.00027092 -0.0326364)
(-0.000555562 -0.000274164 -0.0345216)
(-0.000722718 -0.000272793 -0.0358324)
(-0.00084548 -0.000272641 -0.0369565)
(-0.000907341 -0.000278738 -0.0381322)
(-0.00092559 -0.000292215 -0.0393271)
(-0.000906526 -0.000312366 -0.0404833)
(-7.92095e-05 -0.000497971 -0.028935)
(-0.000253434 -0.00057906 -0.0323253)
(-0.000435724 -0.00065492 -0.0341507)
(-0.000580065 -0.000714269 -0.0355275)
(-0.000680751 -0.000757134 -0.0367866)
(-0.000733329 -0.00078808 -0.0380573)
(-0.000748059 -0.000811058 -0.0393203)
(-0.000727998 -0.000826817 -0.0405255)