/*--------------------------------*- C++ -*----------------------------------*\
| =========                 |                                                 |
| \\      /  F ield         | OpenFOAM: The Open Source CFD Toolbox           |
|  \\    /   O peration     | Version:  plus.master                           |
|   \\  /    A nd           | Web:      www.OpenFOAM.com                      |
|    \\/     M anipulation  |                                                 |
\*---------------------------------------------------------------------------*/
FoamFile
{
    version     2.0;
    format      ascii;
    class       Cloud<passiveParticle>;
    location    "1.4/lagrangian/kinematicCloud";
    object      positions;
}
// * * * * * * * * * * * * * * * * * * * * * * * * * * * * * * * * * * * * * //

96597
(
(-0.0020048 -0.023975 0.0367211) 944
(0.0197552 -0.0292207 0.00510863) 860
(0.00136212 0.0564713 0.0134672) 2428
(0.00721978 -0.0385907 0.0241055) 2153
(0.010843 -0.0622441 0.000288329) 2101
(-0.0214207 -0.0439511 0.0109437) 2075
(0.0200626 -0.0387144 0.0120042) 2106
(-0.00271919 0.0236043 0.0370905) 1224
(0.0180846 0.0404075 0.00407488) 2354
(-0.00561421 0.00150941 0.0492688) 169
(-0.00272675 0.0536704 0.0159112) 2427
(0.00947271 0.0514964 0.00414249) 2363
(0.0373676 0.0117167 0.00377875) 1537
(-0.0185384 -0.0159482 0.00645882) 575
(0.0322103 0.0163629 0.0110166) 1370
(0.045283 -0.00173692 0.0122063) 1530
(0.00320897 -0.00713036 0.0509644) 158
(-0.0160964 0.033561 0.0112931) 1475
(0.017063 -0.0174982 0.0128825) 855
(-0.0398711 0.0131684 0.0116561) 1801
(0.0335587 0.0123956 0.00426166) 292
(0.00451417 0.0509893 0.00029328) 2371
(-0.02117 0.0218104 0.00192283) 1138
(-0.00298669 -0.0723347 0.00527086) 2095
(-0.0436345 -0.0138533 0.00972206) 1818
(-0.0369757 -0.0132875 0.000292519) 1825
(0.0206032 -0.0236303 0.00114737) 858
(-0.00884733 -0.00162558 0.0496553) 169
(0.00700116 0.00352274 0.0524452) 180
(-0.0140809 -0.0511388 0.0182843) 2139
(-0.0205831 0.0212505 0.000297583) 1137
(-0.00102157 0.058079 0.00447327) 2372
(-0.0353893 -0.0177747 0.0056664) 1825
(0.0335709 -0.017824 0.00748398) 1366
(-0.0190388 0.027125 0.0031014) 1139
(0.0356421 -0.0108777 0.000293942) 1367
(-0.0312111 0.0160188 0.0118512) 540
(-0.0258236 0.0184537 0.00633756) 531
(0.0172838 0.0322404 0.0096746) 1471
(0.0384443 0.0120401 0.00325673) 1537
(-0.0012592 0.0502967 0.0186566) 2427
(-0.000261157 0.0554642 0.0145816) 2428
(-0.0406253 0.0144575 0.000462473) 1793
(-0.048986 -0.00126513 0.0132657) 1867
(0.0190053 -0.0434515 0.0150726) 2162
(-0.0205228 -0.0383807 0.00028089) 2074
(0.0154048 0.0266381 0.000309614) 1098
(-0.0361585 0.0157096 0.00670502) 1793
(-0.0182509 0.0370028 0.000308504) 2385
(0.033637 -0.0154079 0.0102041) 1366
(-0.00176408 -0.0718903 0.0121999) 2095
(-0.0152852 0.0234855 0.010346) 1137
(-0.0186095 -0.0384759 0.0058787) 2073
(-0.0188435 0.0319677 0.00898102) 1475
(0.0392173 -0.0097166 0.00149411) 1521
(-0.0180587 0.0323625 0.00132765) 1475
(0.0210584 -0.0222611 0.00247338) 858
(-0.00349756 -0.0610062 0.0250466) 2149
(0.0356324 -0.0114178 0.0119639) 1367
(0.00611799 -0.00553604 0.0523717) 159
(0.0178116 0.0392418 0.00718347) 2353
(0.0245633 0.0197635 0.000307369) 299
(0.0148601 0.0191774 0.00876277) 1088
(-0.0161519 0.0419899 0.0132826) 2442
(0.0102713 0.050009 0.0147063) 2419
(0.040737 -0.0106404 0.00967979) 1521
(0.0364407 -0.0119537 0.00636605) 1367
(0.0369854 0.010521 0.0121493) 1537
(-0.0162644 0.0395469 0.00027682) 2385
(0.0258854 -0.0134372 0.0121082) 258
(-0.000885172 0.00526104 0.0510554) 178
(-0.042043 -0.012214 0.000978847) 1818
(0.00304652 -0.00775305 0.0493952) 158
(0.00175372 0.0586416 0.00575727) 2372
(0.0284927 0.0154772 0.012049) 291
(-0.0517038 -2.42239e-05 0.00383488) 1811
(0.000590013 -0.00468685 0.0511181) 164
(0.0407129 -0.0116421 0.00629569) 1521
(0.0227059 -0.0185282 0.000267501) 250
(0.0196346 0.0222018 0.000310155) 1090
(0.0156436 0.0408327 0.0117634) 2354
(0.0173341 0.0372859 0.000250631) 2353
(0.0156626 0.0256459 0.00027749) 1098
(0.0219362 -0.0226891 0.000339435) 858
(0.0464207 0.000205419 0.0112065) 1530
(-0.0150998 -0.0142167 0.00503956) 574
(-0.00414702 -0.000378995 0.0511602) 170
(0.0185764 0.031698 0.000285605) 1471
(0.0146705 0.0254978 0.0113253) 1098
(0.0160874 0.0321605 0.0114237) 1100
(-0.0170149 -0.0482099 0.0166086) 2131
(-0.0348477 0.0155538 0.00462922) 1401
(0.0260857 0.0159007 0.00027077) 290
(-0.0326559 0.0198578 0.0077858) 1401
(0.0165782 0.0304989 0.000311292) 1100
(0.0264746 -0.0131429 0.000277799) 258
(0.0045054 0.0559384 0.0144508) 2428
(-0.0150993 0.0136127 0.00444332) 526
(-0.029031 0.015616 0.000268941) 539
(-0.0123842 0.0220265 0.00906189) 1128
(0.0197187 0.0188613 0.00343839) 296
(0.019985 -0.0432902 0.0144033) 2162
(-0.0323705 -0.0175897 0.0117451) 1405
(-2.05223e-05 0.00622784 0.0532314) 234
(0.0316537 -0.0134555 0.0115727) 260
(-0.0207856 -0.0311418 0.00379101) 1435
(0.0339932 0.0111487 0.000280792) 284
(-0.0500513 0.00365127 0.0131002) 1811
(0.0164712 0.0113811 0.0452801) 462
(-0.0118268 0.0454262 0.0161402) 2434
(0.0219173 -0.0134171 0.0114728) 256
(-6.69519e-05 -0.00406844 0.0519048) 164
(-0.0489889 0.000231961 0.00132762) 1811
(0.0181342 0.0313494 0.0095053) 1471
(-0.00770957 0.000101897 0.0506837) 169
(0.0453017 0.00208169 0.00488586) 1530
(-0.0279061 0.0167605 0.0122171) 539
(0.029561 -0.0095345 0.000324275) 267
(-0.000127741 -0.0113351 0.0489273) 150
(-0.00115964 0.00371702 0.0502505) 178
(-0.0346292 0.0155431 0.00212884) 1401
(-0.0013485 0.0550191 0.0144417) 2428
(-0.0179237 0.0373355 0.000282488) 2385
(0.0037727 -0.00393594 0.0493904) 165
(0.0339624 -0.0172878 0.00318092) 1366
(0.00339569 0.0018336 0.0516358) 179
(-0.0439954 0.00469075 0.00366736) 1810
(-0.00452344 0.000343997 0.0520858) 170
(-0.0110497 0.0490418 0.000290334) 2379
(0.0333426 -0.0134184 0.00300007) 260
(-0.00110886 0.0591153 0.0100368) 2372
(-0.00228197 -0.0613093 0.025498) 2149
(0.0353559 0.0103329 0.000281669) 1369
(0.0170717 0.0316463 0.00943467) 1100
(0.020257 -0.0360107 0.00481513) 2105
(-0.000172819 -0.00379665 0.0509233) 164
(0.0204212 0.0213495 0.00499932) 1089
(-0.0434335 -0.0122148 0.0126121) 1818
(0.0307809 -0.00741283 0.000267314) 267
(-0.00107886 -0.00646838 0.0484413) 157
(0.0205499 -0.0354287 0.0063934) 2105
(0.0439476 0.00309442 0.00501305) 1530
(0.00710859 -0.0407715 0.0226383) 2153
(0.0216207 -0.022103 0.00312478) 858
(-0.0215968 -0.0433665 0.011926) 2074
(0.0315751 0.0082924 0.000289559) 283
(-0.027626 0.0153947 0.000279575) 539
(0.027662 0.0186325 0.00111898) 299
(0.00334079 -0.07324 0.00473766) 2095
(0.0189651 0.0272288 0.00667125) 1091
(0.0417828 0.00207197 0.0128686) 1529
(0.0226456 -0.0224287 0.000300771) 250
(0.0170951 0.031733 0.0106399) 1100
(0.0153535 0.0436827 0.0032029) 2354
(0.013208 0.0461129 0.0138191) 2418
(-0.0152063 -0.00101564 0.045367) 717
(0.0321043 0.01434 0.0125662) 292
(-0.00149163 0.0593753 0.0068375) 2372
(0.0177594 0.034914 0.00460684) 2353
(0.0190132 -0.0235102 0.00945678) 858
(-0.00163883 -0.00844803 0.0497139) 157
(-0.000576547 0.0548695 0.0150036) 2428
(-0.0176834 0.0413113 0.00992305) 2386
(0.00485564 -0.00370234 0.0495203) 165
(-0.0232301 0.0218185 0.000323514) 531
(0.00637542 0.000941973 0.0543059) 222
(0.00700718 -0.00303905 0.0515731) 166
(-0.0064371 -0.00295072 0.0501965) 162
(0.0317107 0.0077564 0.000268084) 283
(-0.0345313 -0.0184311 0.00505858) 1825
(0.0130105 0.0246109 0.0146196) 1153
(0.0218963 -0.0187913 0.00025683) 249
(-0.0195312 -0.0252448 0.000274279) 811
(-0.00250899 -0.00401342 0.05175) 163
(-0.0436515 0.00877394 0.0132116) 1858
(0.00126363 -0.00515427 0.0517841) 164
(0.0143038 0.0273271 0.00987119) 1098
(-0.0395517 -0.015285 0.0069235) 1825
(0.0206982 -0.0345049 0.0035051) 2105
(0.0194257 -0.0221805 0.00580017) 858
(0.020391 0.0215676 0.00254391) 1090
(-0.00399063 -3.27067e-06 0.0516591) 170
(0.030199 -0.00843829 0.0105581) 267
(0.0152184 0.041709 0.0012858) 2354
(0.019897 -0.0283918 0.00488489) 860
(-0.000119065 -0.00870982 0.0504766) 157
(-0.0240371 -0.0146294 0.000263231) 569
(0.00549764 -0.00285884 0.0522909) 165
(0.0185866 -0.0415386 0.0143816) 2162
(-0.0353608 -0.0167336 0.00587649) 1825
(0.0362984 -0.000474447 0.0126419) 1368
(-0.0174782 0.0227721 0.00948133) 1137
(-0.00144613 -0.0620248 0.0233545) 2149
(0.0194142 -0.0374538 0.0125108) 2105
(-0.0185445 0.0348721 0.00479265) 2385
(0.019591 -0.0187668 0.00426252) 248
(0.0192966 0.0172541 0.00419146) 296
(-0.0492255 -0.00190019 0.0022659) 1811
(0.017009 0.0173353 0.00703675) 1087
(0.012227 -0.0534663 0.02155) 2156
(0.0280982 0.0153722 0.0121377) 291
(0.000897041 -0.000653399 0.0510339) 171
(0.0223246 -0.0224278 0.00114092) 858
(0.0215963 0.014 0.0143966) 344
(-0.0426206 0.00307401 0.00026253) 1809
(0.0389874 -0.011884 0.00298802) 1521
(-0.019082 0.017716 0.00744008) 528
(-0.00408817 0.00407003 0.0514533) 177
(-0.0181677 0.0332896 0.0106859) 1475
(-0.0182419 -0.03248 0.000293363) 1436
(0.0200876 -0.0121339 0.0107514) 256
(-0.0508868 -0.00065081 0.00355559) 1811
(-0.0331439 -0.0198803 0.00646284) 1825
(0.0344487 -0.00757561 0.0110543) 268
(0.0289681 0.0162055 0.0119814) 291
(-0.0351142 0.0177458 0.00608632) 1793
(0.000703166 -0.00415494 0.0513464) 164
(-0.0326226 0.017599 0.0096008) 1401
(-0.00717222 -0.000646687 0.0498672) 169
(0.000653614 -0.0170824 0.0455406) 998
(-0.0399044 -0.0109355 0.000283561) 1817
(-0.000951631 -0.0717739 0.00459943) 2095
(-0.000865746 0.000840432 0.0521005) 171
(0.0331222 0.0161245 0.00422964) 1370
(0.0197505 0.0219578 0.00273977) 1090
(0.00435698 -0.0586463 0.0266057) 2204
(-0.00048034 -0.00760528 0.0498274) 157
(-0.0167994 -0.0565003 0.000284123) 2084
(0.0219508 -0.0219686 0.00172895) 858
(0.0336696 0.0155894 0.000278759) 1370
(0.00495068 0.0510045 0.000279457) 2371
(-0.00763913 -0.00253424 0.050139) 162
(0.0157063 0.0281506 0.000258444) 1099
(0.00633601 0.0518877 0.00550126) 2363
(-0.0254895 -0.018779 0.000309955) 579
(0.0186598 -0.0169327 0.00749983) 248
(0.000342911 -0.0734821 0.00720483) 2095
(0.0309598 0.0186133 0.00874749) 292
(0.0406615 -0.00815182 0.0130209) 1521
(0.0179544 0.0399803 0.00670576) 2354
(-0.00152389 -0.0044005 0.0505486) 164
(0.0359376 0.0110106 0.0112311) 1369
(0.000876289 -0.000695732 0.0525464) 171
(0.00419323 -0.0721159 0.010097) 2095
(0.0389003 -0.0070691 0.0124989) 1521
(-0.0235437 0.0189055 0.00240537) 530
(-0.0187605 -0.0359512 0.00330674) 2073
(0.0275349 -0.012767 0.000260711) 258
(0.0293824 -0.0122306 0.000286176) 259
(-0.000972871 0.0574787 0.0129213) 2372
(-0.0215221 -0.0443807 0.0101611) 2075
(-0.0455803 -0.00884328 0.0128255) 1818
(0.0212537 -0.0389998 0.000278529) 2106
(0.0208758 0.0201128 0.00113875) 297
(0.0412814 -0.00898345 0.00299907) 1521
(-0.0407268 -0.0155099 0.00722571) 1825
(0.0465446 0.00173039 0.0114519) 1530
(-0.0224115 0.0190353 0.00455214) 530
(-0.0278538 -0.0193794 0.00474309) 580
(-0.00176624 0.00285594 0.0511027) 178
(-0.045491 -0.0103502 0.0129673) 1818
(0.0205186 -0.02441 0.0002844) 859
(-0.049122 0.000471759 0.00203404) 1811
(0.0114306 0.044954 0.0158619) 2418
(-0.0211293 -0.0219939 0.000276193) 810
(-0.0158794 -0.0275073 0.000337137) 819
(0.0176478 -0.0250418 0.000280478) 858
(-0.0324321 0.015263 0.000278294) 540
(0.0215409 -0.0131439 0.0130509) 256
(0.00313519 -0.0725733 0.00554321) 2095
(-0.0473183 -0.010392 0.0126603) 1818
(0.0179622 0.020863 0.00191266) 1089
(-0.0209945 0.021879 0.000270514) 1138
(0.0315651 -0.00640018 0.000271904) 267
(0.0320673 -0.0179656 0.00032837) 1366
(-0.000655852 0.0553362 0.0021925) 2372
(0.0193998 0.0170471 0.00701519) 296
(-0.000756369 -0.00267018 0.0517438) 164
(0.0182785 0.011278 0.00995002) 287
(0.0305318 -0.0144561 0.0125999) 260
(0.0167257 -0.0329028 0.0104507) 1440
(-0.0203956 0.0239578 0.000280582) 1138
(0.019909 -0.0233699 0.00242552) 858
(0.0415554 -0.00903995 0.0123848) 1521
(-0.0171832 0.0297779 0.0117799) 1132
(0.0123573 0.0450286 0.0146655) 2418
(-0.0193151 -0.0364499 0.00356653) 2073
(-0.0464199 0.00560216 0.00222289) 1802
(-0.00107726 0.0593617 0.00634593) 2372
(-0.0157371 0.0422662 0.013464) 2442
(0.0328993 0.0160319 0.00324479) 1370
(-0.0161335 0.0420975 0.00110332) 2386
(-0.0217796 -0.0398821 0.000292052) 2074
(0.0338025 0.0126159 0.00611716) 292
(0.0240062 0.0132548 0.0107781) 289
(0.0048121 -0.00398825 0.0515825) 165
(-0.000960671 -0.0625176 0.000279377) 2093
(-0.00581361 -0.000183902 0.050677) 169
(-0.00527486 -0.00254348 0.0499842) 163
(-0.018105 -0.0319689 0.0123245) 1436
(-0.018195 0.0344362 0.0046869) 2385
(0.00035924 -0.0725245 0.00488762) 2095
(-0.0323873 0.0164934 0.0017117) 1401
(-0.0174044 0.0331507 0.000296903) 1475
(0.0200516 -0.052325 0.000308769) 2108
(0.0219506 -0.0201674 0.0002905) 250
(-0.0312649 0.0178595 0.0100253) 540
(-0.00288813 0.0034438 0.0521846) 177
(-0.0204881 -0.0279193 0.00041717) 812
(-0.0267405 0.0152719 0.000281974) 538
(0.000409858 -0.00307959 0.0521471) 164
(-0.040192 -0.0105573 0.00027698) 1817
(0.0473115 -0.00041334 0.00583909) 1530
(0.0302272 -0.0110368 0.011261) 259
(-0.000255743 0.0552376 0.0146883) 2428
(-0.0166562 -0.0214326 0.00814043) 809
(0.00485359 -0.00869047 0.0518106) 158
(0.0332804 0.0147985 0.00408265) 1370
(-0.0200078 0.0217899 0.000320224) 1138
(-0.0188727 0.0267364 0.00429625) 1139
(-0.0464786 -0.00597266 0.00328966) 1818
(0.0425067 0.00177796 0.0129143) 1529
(0.0201386 0.0179841 0.00279241) 296
(4.09355e-05 -0.00808874 0.0505558) 157
(-0.0214187 -0.0162381 0.00794539) 577
(-0.00446317 -0.00648418 0.0471071) 156
(0.0184585 0.035084 0.000287621) 2353
(0.0172109 -0.0338514 0.000291283) 1440
(-0.0484509 -0.00964614 0.0127172) 1819
(0.0319264 -0.00132881 0.000289167) 275
(-0.0377944 0.0129083 0.0124186) 1801
(0.00525171 -0.0602733 0.00027521) 2093
(0.019184 0.0363665 0.000301811) 2353
(-3.11901e-05 -0.00410098 0.0518149) 164
(0.0340204 -0.00921974 0.000252764) 268
(0.0175741 0.0402992 0.00297152) 2354
(-0.018231 0.0428378 0.00739257) 2386
(-0.00254705 0.0338579 0.0289278) 1228
(-0.034863 0.0164587 0.00374694) 1793
(-0.0131412 0.0176267 0.0433152) 1303
(-0.0283789 0.0174317 0.00028085) 539
(0.0418459 0.0117298 0.00875758) 1537
(0.0216476 0.0184948 0.000333923) 297
(0.0221228 0.0192141 0.000264635) 297
(-0.00922491 0.0522142 0.0149128) 2435
(0.0171801 0.0323548 0.000294547) 1471
(-0.00183718 0.055771 0.0143658) 2428
(-0.0110428 0.0518023 0.0144003) 2435
(0.0071647 -0.000629838 0.0519272) 173
(0.0205461 -0.0337573 0.00307445) 2105
(-0.0124756 0.0222059 0.00904726) 1128
(0.0159921 -0.0313085 0.0107705) 852
(0.0167479 -0.028085 0.000306364) 851
(-0.0471836 -0.0119248 0.0111804) 1818
(0.0202293 -0.0121065 0.0104021) 256
(-0.0271255 -0.0191741 0.00423204) 579
(0.0149557 0.0296741 0.0107923) 1099
(-0.0228173 -0.0183715 0.00542574) 578
(0.00292581 -0.00106494 0.0518565) 172
(-0.00112515 -0.00946644 0.049474) 150
(-0.0354357 0.0157921 0.00433796) 1793
(0.00130321 0.00319949 0.053028) 227
(-0.0422653 -0.0138697 0.0112077) 1818
(-0.0213601 -0.0389456 0.00196804) 2074
(0.0264981 0.01794 0.00379436) 299
(0.0222939 -0.0201304 0.000295592) 250
(-0.0453217 -0.0140266 0.010331) 1818
(-0.01924 -0.0406499 0.0138127) 2130
(0.0045185 -0.0701508 0.00464846) 2094
(-0.0106482 -0.00107716 0.0487761) 168
(-0.0437587 0.00626425 0.0191544) 1858
(0.017325 0.0399098 0.00327862) 2354
(-0.0173519 -0.0335659 0.0096961) 1436
(0.0319255 0.000110922 0.000273949) 275
(0.0167383 0.0400152 0.00511959) 2353
(-0.0126717 0.047679 0.0146248) 2435
(-0.0217885 -0.0223706 0.000257755) 810
(0.0192118 -0.0350439 0.0104295) 2105
(-0.0350223 0.0173863 0.00424701) 1793
(0.0277952 -0.0112664 0.000290671) 258
(-0.0200519 0.0223917 0.00078261) 1138
(-0.0328693 -0.0168244 0.00117287) 1405
(-0.0187173 0.0224762 0.00394258) 1138
(0.0309214 -0.0137208 0.0125974) 260
(0.0194387 0.032654 0.00748938) 1471
(-0.0509701 0.00313652 0.00700173) 1811
(-0.0262296 -0.0160112 0.000282557) 570
(0.0149192 0.0328902 0.010747) 1471
(-0.0393203 0.0127003 0.0121726) 1801
(0.00244297 -0.0711734 0.00343416) 2095
(0.0376072 0.0109078 0.00107056) 1537
(-0.0459372 0.0118231 0.00705991) 1802
(-0.020663 -0.0296589 0.00241279) 812
(0.0212325 -0.0162888 0.00438997) 249
(-0.0181168 -0.0230055 0.00956211) 810
(-0.0179294 0.0379562 0.0121794) 2385
(-0.0154282 0.0263425 0.000257133) 1130
(0.0179993 0.0378979 0.00236196) 2353
(-0.000720912 0.0391367 0.0262686) 2425
(-0.00691907 -0.0686693 0.00621022) 2094
(0.022467 -0.0416204 0.00239433) 2106
(0.015291 -0.0160411 0.00600263) 854
(0.0260601 -0.0127132 0.0109676) 258
(0.00331686 -0.000761743 0.0527453) 172
(-0.0216069 -0.0142022 0.0115592) 576
(-0.0350293 0.014996 0.00529533) 1401
(-0.0230076 -0.0226778 0.000283965) 579
(0.000135653 0.00646842 0.0535275) 234
(0.00436062 0.00515365 0.0542018) 228
(-0.0333727 -0.0150687 0.000270709) 1405
(0.0255424 -0.0122545 0.000288978) 257
(0.0351349 -0.00974347 0.0117764) 1367
(0.0388035 0.00814344 0.0121002) 1537
(-0.02134 -0.0391662 0.00344128) 2074
(-0.000836234 -0.0730063 0.00995893) 2095
(0.047739 0.00166002 0.00697418) 1530
(-0.00682629 -0.00115508 0.0475953) 169
(-0.0154736 0.0450701 0.0115448) 2378
(-0.01977 -0.0352193 0.00184356) 2073
(0.0019168 -0.0666388 0.000328968) 2094
(0.0418845 0.00135622 0.0129212) 1529
(0.000286298 0.00883337 0.0537323) 234
(0.0331792 -0.00588639 0.0153331) 324
(0.00237893 -0.0610431 0.0249995) 2149
(0.0295978 0.00960478 0.000259634) 283
(-0.000247782 -0.00891777 0.0488955) 157
(-0.00569459 -0.00239859 0.0504433) 162
(-0.0182196 0.0334599 0.0113003) 1475
(-0.00154749 -0.0154105 0.0477628) 997
(0.00487233 0.000891335 0.0519193) 172
(0.039955 -0.000507752 0.0120186) 1529
(0.00313227 -0.0679746 0.000479667) 2094
(-0.0224563 0.0228893 0.000300754) 1139
(0.0225591 0.00244692 0.0346817) 384
(-0.0436057 0.00554399 0.0213747) 1858
(-0.021056 -0.039064 0.00446272) 2074
(-0.0527241 -0.00197239 0.0115035) 1811
(-0.0176933 0.0393509 0.00143922) 2385
(0.0313381 0.00821788 0.000270477) 283
(-0.042981 -3.42861e-05 0.000333098) 1809
(0.0338639 -0.0175244 0.00435173) 1366
(-0.0484012 -0.000478624 0.0135537) 1866
(-0.019226 -0.0425958 0.0141935) 2130
(0.0176606 0.0366349 0.00430962) 2353
(-0.0285891 0.0172003 0.000296188) 539
(0.0188436 0.021834 0.000287812) 1089
(-0.000216169 0.00660337 0.053472) 234
(0.0355403 0.0104519 0.0116169) 1369
(0.00553231 0.00104461 0.0522922) 173
(-0.000628051 -0.00630632 0.0481266) 157
(0.0169808 -0.0483508 0.0170393) 2163
(0.0202412 -0.0380557 0.0119408) 2105
(-0.0211524 0.0337617 0.000262013) 2385
(-0.0113298 0.050669 0.0146598) 2435
(0.0270001 0.0167704 0.000285302) 291
(-0.0199029 -0.0347297 0.0127295) 2073
(-0.0217346 -0.0449033 0.00428727) 2075
(0.0213288 0.0211705 0.000332103) 298
(0.00862257 0.0426291 0.0204123) 2418
(0.0154156 -0.052876 0.0191045) 2156
(-0.0194475 -0.0384628 0.011121) 2073
(0.00134504 -0.0737138 0.00414477) 2095
(0.0259147 0.0177639 0.000350636) 299
(0.0185543 0.0352641 0.00415288) 2353
(-0.0156812 0.0422516 0.000686904) 2386
(0.0216603 0.016085 0.00763169) 297
(-0.040445 -0.0151395 0.0084173) 1825
(-0.0368407 0.0143936 0.00501608) 1793
(-0.00492065 -0.00700116 0.0500662) 156
(0.0362703 0.000656359 0.0126056) 1368
(-0.0407806 -0.00960343 0.000269164) 1817
(-0.0191823 -0.0349138 0.00318272) 2073
(0.0374945 -0.00876344 0.012018) 1521
(0.0344636 0.0117298 0.00182198) 1369
(-0.0483736 -0.00080104 0.00131259) 1810
(0.020626 -0.0218019 0.00472797) 858
(0.0202207 0.0208023 0.00183995) 1089
(-0.0220894 -0.0204119 0.00029818) 578
(0.0232037 0.0219313 0.00030099) 299
(-0.0515409 -0.00287918 0.00711001) 1811
(0.0212169 -0.015452 0.00978806) 248
(0.000112839 -0.073727 0.00762147) 2095
(-0.0280613 0.0187509 0.00335616) 531
(-0.0290951 0.0167408 0.0113701) 539
(-0.0534828 -0.000338929 0.00770292) 1811
(-0.0408807 0.00923224 0.000276912) 1801
(-0.0159199 -0.0461124 0.0186729) 2138
(0.000218138 0.0537262 0.0015789) 2371
(-0.038154 -0.0122415 0.000328928) 1817
(-0.00869542 0.0521545 0.015661) 2435
(0.0234236 -0.0233652 0.000294178) 251
(-0.0523036 -0.000648371 0.00472627) 1811
(-0.0182618 0.0306027 0.000290134) 1132
(0.0367085 -0.00577115 0.000269352) 1367
(-0.00819469 -0.0117801 0.0508067) 148
(-0.0177755 -0.0350051 0.000260732) 2073
(-0.0166798 -0.0212281 0.00924224) 809
(0.00235199 -0.0633672 0.0236681) 2149
(-8.25674e-05 0.00658764 0.0536362) 234
(0.0341324 0.0129817 0.00731689) 1370
(0.0302407 0.0154738 0.0125346) 292
(0.0239464 0.01838 0.000291253) 298
(-0.0219575 -0.0209823 0.000278634) 578
(-0.0426448 -0.010512 0.0140968) 1874
(-0.0494509 -0.000741003 0.0132235) 1867
(0.0184898 0.0351512 0.00406725) 2353
(-0.00114404 -0.00682637 0.048082) 157
(0.0010785 -0.00123809 0.0527524) 171
(0.0150305 -0.0593525 0.0172771) 2157
(-0.0125409 0.0512846 0.0126389) 2379
(-0.0214562 -0.0228057 0.000287663) 810
(0.00442044 0.0477412 0.020563) 2426
(0.0155788 0.0259066 0.000275499) 1098
(-0.0356487 0.0143342 0.000377438) 1793
(-0.0521318 -0.000325431 0.0124404) 1811
(-0.00681767 -0.000760239 0.0498536) 169
(0.000305955 0.0507097 0.000313853) 2371
(-0.0324708 0.0196412 0.00543036) 1401
(0.0188585 -0.0363218 0.00906632) 2105
(0.0222489 -0.0235245 0.000263733) 859
(-0.0401154 -0.0109028 0.000302471) 1817
(0.0177036 0.0197002 0.00634441) 1088
(-0.0208383 -0.0228852 0.00028928) 810
(-0.0432854 -7.31535e-05 0.000294298) 1809
(-0.0294109 0.0165032 0.000290893) 540
(-0.00317186 0.000199926 0.0526611) 170
(0.0215452 -0.0204485 0.000307934) 250
(0.0171769 0.0194902 0.00743531) 1088
(0.0216437 0.0235749 0.000278307) 1091
(-0.0216524 0.0218403 0.000279529) 1138
(-0.000471739 -0.00114384 0.0521048) 171
(0.0170796 0.0349871 0.00863623) 2353
(0.0362532 0.00840217 0.0113005) 1369
(-0.0180475 -0.0324392 0.000293225) 1436
(0.0157392 0.0265895 0.000257713) 1098
(0.0413709 0.00886343 0.0047883) 1537
(-0.00571391 -0.00507233 0.0506586) 162
(-0.0205918 -0.0180298 0.00703387) 577
(0.0146985 0.0452201 0.0134073) 2418
(0.0194871 0.0217523 0.00658182) 1089
(-0.00358361 -0.00259088 0.0509917) 163
(0.0212845 0.0218322 0.00025439) 1090
(-0.0192712 0.0141652 0.008307) 527
(0.0197188 -0.0336151 0.000265475) 2105
(0.0407359 -0.00732056 0.00335281) 1521
(0.03975 -0.0107573 0.0113205) 1521
(-0.0409475 -0.0158214 0.0034763) 1826
(0.0397108 0.00175123 0.000301585) 1529
(-0.053015 0.000907713 0.00773749) 1811
(-0.0074179 -0.000424616 0.0501463) 169
(-0.0407932 -0.0146114 0.00539614) 1825
(-0.0208864 -0.0405003 0.00687592) 2074
(-0.00337487 -0.0695582 0.00278983) 2094
(-0.0205744 -0.0314614 0.00489395) 1435
(-0.0342453 -0.0172874 0.000278745) 1825
(-0.0481498 -0.0046702 0.00938613) 1810
(-0.0467036 0.00966763 0.00399253) 1802
(0.0172627 0.0338484 0.000282213) 1471
(-0.00247283 -0.00121673 0.0522182) 170
(-0.0128283 0.0251175 0.00933772) 1129
(0.00150289 -0.000257223 0.0526138) 171
(0.0475583 0.00169919 0.0111423) 1530
(-0.0455779 0.00143176 0.000757158) 1810
(0.0324188 -0.013393 0.00155578) 260
(-0.0160466 0.0466392 0.00815709) 2379
(-0.034681 0.0143869 0.0123466) 1401
(-0.00701245 0.000345002 0.052476) 169
(0.0311352 0.010914 0.0108905) 283
(0.0345306 0.000231078 0.0132841) 332
(-0.00818767 -0.000481494 0.0500634) 169
(-0.047779 0.00180743 0.013831) 1866
(0.00573579 -0.0621537 0.00026834) 2093
(0.0451341 -0.000706544 0.00283232) 1530
(0.0343485 -0.0127466 0.00878612) 1366
(-0.0219542 0.0214542 0.00025554) 530
(0.018895 0.0355023 0.00150778) 2353
(0.0301111 -0.0082887 0.000262786) 267
(-0.0264017 -0.0159583 0.0129068) 570
(-0.0158911 -0.0580482 0.011994) 2085
(0.0159243 0.0286399 0.0111812) 1099
(0.000804877 -0.069409 0.0167095) 2150
(-0.0469366 -0.0115318 0.0128299) 1818
(-0.0178766 0.0351532 0.0116644) 2385
(0.0192734 -0.0260766 0.000271697) 859
(-0.00729302 -7.53125e-05 0.0514842) 169
(0.0182209 -0.0230984 0.00669534) 858
(0.041407 0.0123203 0.00972433) 1537
(-0.0192814 -0.0345531 0.00112957) 2073
(0.0445403 -0.000361966 0.0125548) 1530
(-0.0402836 -0.0111668 0.0131306) 1817
(-0.0159275 -0.0221493 0.00912463) 809
(-0.0212203 0.0223014 0.000281848) 1138
(0.0223483 -0.0218152 0.000396569) 250
(0.0202118 -0.0296784 0.00215773) 860
(0.0218789 -0.0225746 0.000287012) 858
(0.0181723 0.0228356 0.00438178) 1090
(-0.026623 -0.0183214 0.000268118) 579
(-0.0183675 -0.0230922 0.00418674) 810
(-0.0191922 0.0219699 0.000284073) 1137
(-0.0446597 0.0128588 0.00844633) 1802
(-0.0352598 -0.0159351 0.00347516) 1825
(-0.0529153 -0.0012391 0.0111871) 1811
(0.0146512 -0.0540511 0.0193942) 2156
(0.00160456 0.0590784 0.00605116) 2372
(0.0106854 -8.18443e-05 0.0513108) 174
(-0.0483691 0.00375522 0.0137262) 1866
(-0.00847935 0.0526211 0.0155632) 2435
(-0.0152611 -0.0335418 0.00990077) 1436
(-0.0505625 0.00266636 0.00460769) 1811
(0.0387026 0.00983063 0.0109416) 1537
(0.0451922 -0.00157893 0.0124707) 1530
(0.0388693 -0.0123815 0.00745568) 1521
(0.0376556 0.00961854 0.00129686) 1537
(-0.0148313 0.0445004 0.0139811) 2434
(0.0472509 0.00104388 0.00528658) 1530
(-0.00330843 -0.00228264 0.0509437) 163
(0.00357325 0.0496713 0.00028852) 2371
(-0.0501202 -0.00271026 0.0131801) 1811
(0.00552661 -0.000963484 0.0499909) 173
(-0.0205173 -0.0376813 0.00103733) 2073
(-0.00341314 -0.00108787 0.0516309) 170
(-0.0152923 -0.0314644 0.0110106) 820
(0.0361091 0.00993396 0.000287682) 1369
(0.0218333 -0.0224657 0.000282679) 858
(-0.0336764 -0.016679 0.00271087) 1405
(-0.0332426 0.0200619 0.00417662) 1793
(-0.0106151 -0.000530903 0.0485891) 168
(-0.0433061 0.008456 0.00221254) 1802
(-0.0220412 -0.0211812 0.00025601) 578
(-0.0243191 -0.0141387 0.0129878) 569
(-0.0261678 -0.0186885 0.00777037) 579
(0.0395369 -0.0114952 0.00378268) 1521
(-0.0182377 -0.0345027 0.00988751) 2073
(0.0323715 0.00614293 0.000269687) 283
(-0.0163414 0.0286077 0.000307639) 1131
(0.0256048 -0.0123708 0.000412562) 258
(0.0208367 -0.0353377 0.00192647) 2105
(-0.00227185 -0.0739898 0.00649455) 2095
(-0.00253313 -0.0735924 0.00741024) 2095
(0.00514139 -0.0324547 0.027064) 955
(0.000343842 0.0558912 0.0027508) 2372
(-0.00968926 -0.00429972 0.0510085) 161
(-0.0308731 -0.0174086 0.0118276) 572
(-0.0164417 0.038426 0.000298252) 2385
(-0.0206698 -0.0251275 0.000274888) 811
(0.0207307 -0.0182623 0.0026063) 249
(0.0397813 0.0130279 0.00736221) 1537
(-0.000794373 -0.0110066 0.0487161) 150
(0.00119737 0.0553431 0.0146413) 2428
(-0.0175938 0.0160185 0.00675463) 527
(-0.000164281 -0.0677718 0.0168667) 2150
(-0.0205451 -0.0221421 0.00199366) 810
(-0.0418186 -0.0134623 0.00203987) 1818
(-0.0165874 -0.0324114 0.000290061) 1436
(0.0480359 -0.000974101 0.00616119) 1530
(-0.0194841 -0.0491617 0.0137552) 2131
(0.0231483 -0.0445462 0.00183428) 2107
(-0.0235727 0.018733 0.000656708) 530
(-0.0429729 -0.0075485 0.000316246) 1818
(-0.0176771 0.0332092 0.0117941) 1475
(0.00443301 0.0331517 0.0273875) 1219
(0.018593 0.040228 0.00812524) 2354
(-0.0402508 0.0149422 0.0045331) 1793
(-0.0310644 -0.0173171 0.0109683) 572
(-0.0335109 0.0193692 0.00813044) 1793
(0.00123824 -0.0731332 0.00656183) 2095
(-0.0423109 -0.0128128 0.00224857) 1818
(0.00369057 0.0492904 0.000273369) 2371
(0.00195157 0.0563858 0.0133299) 2428
(-0.0150272 -0.0142971 0.0046304) 574
(-0.000816119 0.00523496 0.0528584) 227
(0.00109939 0.00319081 0.0514363) 178
(-0.0432414 -0.0104948 0.012904) 1818
(-0.0348429 0.0151068 0.000334021) 1401
(0.0215064 0.0206305 0.000259022) 298
(-0.0193309 -0.0363663 0.00527211) 2073
(0.0208715 0.0165085 0.0101512) 296
(-0.00271422 0.0501933 0.000265798) 2371
(-0.0477072 -0.00844344 0.00597156) 1818
(0.0345019 0.0106414 0.0115094) 284
(-0.000562752 0.0520949 0.000675359) 2371
(-0.0254352 0.0187043 0.00154636) 531
(-0.0198435 0.0242973 0.000283954) 1138
(-0.00426502 -0.00198134 0.0518531) 163
(-0.0313532 -0.0203823 0.000445625) 1406
(0.0221156 0.0198012 0.000322166) 298
(0.018797 -0.0333167 0.000252556) 1440
(0.0401156 -0.00739291 0.013021) 1521
(0.0176072 -0.0204443 0.00804962) 857
(-0.0143911 -0.020527 0.00821667) 808
(-0.00250812 0.0584805 0.00552932) 2372
(-0.0209367 -0.0240963 0.00029455) 811
(-0.0132158 0.0490016 0.0124807) 2379
(0.0173859 0.0403062 0.00163651) 2354
(-0.0220675 -0.021894 0.000313879) 578
(0.0205325 0.0164992 0.00381787) 296
(-0.0450506 0.00250056 0.00069159) 1810
(0.0402201 -0.00809487 0.0130488) 1521
(-0.0140069 0.0193947 0.0073519) 1135
(0.0195595 -0.0417852 0.000263145) 2106
(-0.0215121 -0.0225664 0.00026349) 810
(-0.0139338 0.0462496 0.000314426) 2378
(0.0201982 0.0308795 0.00321322) 1470
(0.0166507 -0.00926088 0.0439448) 422
(0.00847649 -0.0505917 0.026721) 2211
(-0.00118275 0.00307566 0.0508639) 178
(0.00101763 0.0545355 0.0149553) 2428
(-0.0200637 -0.0226767 0.00220137) 810
(0.047878 0.00013945 0.00875825) 1530
(0.0204329 -0.0350154 0.00352045) 2105
(0.0219015 -0.0445314 0.00357741) 2107
(-0.04917 -0.00101253 0.0133242) 1867
(0.000281387 0.0496803 0.0196413) 2427
(-0.00856882 0.0494355 0.000259919) 2379
(-0.01955 -0.0155665 0.0119909) 576
(0.0147853 -0.0166101 0.00614293) 854
(-0.0435669 -0.00969415 0.0127043) 1818
(0.0361531 -0.00870593 0.0115587) 1367
(-0.00105734 -0.0713489 0.00397895) 2095
(-0.0201921 -0.0364518 0.0122923) 2073
(0.0108145 0.0504697 0.0141924) 2419
(0.0375941 -0.00480222 0.00497936) 1367
(0.0332199 0.01587 0.00616239) 1370
(0.044242 -0.000546044 0.0131389) 1530
(0.0416747 -0.0127554 0.00446863) 1522
(-0.0514421 -0.00125607 0.0129878) 1811
(-0.0193645 -0.0325523 0.00680093) 1436
(-0.0485336 0.00813969 0.00976142) 1803
(0.00149432 0.00101718 0.0529361) 220
(-0.0421526 0.00901948 0.0130185) 1801
(0.0233468 -0.0384265 0.00365849) 2106
(-0.00829529 0.0535683 0.00631416) 2379
(0.00280781 -0.00762226 0.0498789) 158
(-0.0432823 0.000635424 0.000327553) 1809
(0.0151735 -0.0123596 0.00404925) 246
(0.0206591 0.0208195 0.00184929) 1089
(-0.00145547 -0.00879742 0.0499807) 157
(0.0406638 0.00870144 0.0128105) 1537
(-0.0489714 0.00209673 0.0132623) 1867
(-0.0191877 0.0327618 0.000838067) 1475
(0.0421021 0.00366329 0.0128942) 1529
(0.0339531 -0.0179907 0.00632427) 1513
(-0.00894798 0.0496818 0.0173228) 2435
(0.0149486 0.0421706 0.013507) 2410
(0.0168672 -0.0323067 0.010901) 1440
(-0.0197249 0.033761 0.00872519) 2385
(-0.00147858 -0.0591578 0.0274203) 2204
(-0.0426629 0.0115494 0.0122332) 1802
(-0.024622 -0.0149899 0.0127119) 570
(0.0417004 0.0100516 0.0113057) 1537
(0.00304887 -0.000321506 0.0529219) 221
(-0.0217151 0.0217552 0.000322686) 1138