/*--------------------------------*- C++ -*----------------------------------*\
| =========                 |                                                 |
| \\      /  F ield         | OpenFOAM: The Open Source CFD Toolbox           |
|  \\    /   O peration     | Version:  plus.master.MPPICInterFoam            |
|   \\  /    A nd           | Web:      www.OpenFOAM.com                      |
|    \\/     M anipulation  |                                                 |
\*---------------------------------------------------------------------------*/
FoamFile
{
    version     2.0;
    format      ascii;
    class       vectorField;
    location    "4.2/lagrangian/kinematicCloud";
    object      UCorrect;
}
// * * * * * * * * * * * * * * * * * * * * * * * * * * * * * * * * * * * * * //


93691
(
(0.0012644 0.0057768 7.98984e-06)
(0.000495958 -2.20178e-05 7.14429e-05)
(2.29342e-07 6.26003e-05 9.84735e-07)
(-1.33343e-05 0.00021752 1.67457e-06)
(4.17371e-05 -6.5436e-05 5.31886e-05)
(-0.000153594 -0.000221546 8.72668e-05)
(0.000173079 -0.000258236 8.1824e-05)
(0.000218069 0.000136892 0.0019382)
(0.00011126 0.00020379 7.74654e-05)
(2.66696e-07 -7.57326e-08 0.000116017)
(1.35879e-06 3.37945e-05 6.8489e-05)
(7.10951e-05 9.28103e-05 7.44243e-05)
(7.41694e-05 0.000198129 3.5677e-05)
(0.00548592 0.00429327 0.00176174)
(0.000121734 0.000285363 8.18717e-05)
(0.000276737 -9.40484e-10 7.36499e-05)
(0.000238226 0.000163338 5.691e-05)
(-0.001093 0.00609933 8.3698e-05)
(-0.000183882 8.8553e-05 8.82333e-05)
(0.000183031 0.000334814 7.61293e-05)
(3.63323e-05 2.00344e-05 7.12474e-05)
(-0.000227157 0.000245013 0.00184295)
(6.34625e-07 0.000305577 1.96915e-06)
(-0.000135817 -6.54059e-05 6.69012e-05)
(-0.000218589 -0.000105267 8.91044e-05)
(0.000281046 -0.00023693 0.00185441)
(-3.72768e-05 -3.86155e-05 5.96538e-05)
(-0.000202151 0.000204111 0.00183786)
(-1.04156e-10 0.000442554 6.92761e-06)
(-0.000164324 -7.91342e-05 0.00195748)
(-1.03718e-05 -0.000260273 0.00147158)
(-0.000324424 8.18376e-05 6.90326e-05)
(0.000233138 -0.000362028 8.38695e-05)
(-0.000132416 6.37615e-05 8.99371e-05)
(-9.81451e-06 0.000431466 8.4757e-05)
(-0.000187893 0.000267286 7.59377e-05)
(7.41694e-05 0.000198129 3.59675e-05)
(3.4189e-07 -2.11459e-06 7.27565e-05)
(1.35879e-06 3.37945e-05 7.91642e-05)
(0.000148884 0.000210176 4.78315e-07)
(-0.000101722 2.0271e-06 1.1706e-06)
(0.000134618 -0.000178372 0.0019371)
(-0.000153638 -0.000291713 8.56608e-05)
(0.000120842 0.000103096 8.82092e-05)
(-0.000183882 8.8553e-05 7.98156e-05)
(-7.9103e-05 0.000154911 8.92541e-05)
(0.000233138 -0.000362028 7.86703e-05)
(-2.04742e-13 2.76208e-06 6.96146e-05)
(-3.62628e-05 -2.9685e-05 9.37678e-05)
(-0.000153638 -0.000291713 7.46718e-05)
(-9.68987e-05 0.000134787 8.49943e-05)
(0.000295183 -0.00031123 7.97048e-05)
(-7.33957e-05 0.000108736 8.29358e-05)
(0.000238393 -0.000153293 0.00193871)
(-4.57148e-06 -0.00011673 7.60253e-05)
(0.00010344 -0.000144503 8.22637e-05)
(0.00011126 0.00020379 7.14207e-05)
(0.0001265 0.000243741 8.13032e-05)
(4.24984e-05 -0.00587841 2.0713e-05)
(-7.9103e-05 0.000154911 8.28709e-05)
(1.78238e-05 3.31409e-06 6.96077e-05)
(0.000177835 -0.000199478 7.66668e-05)
(0.000233138 -0.000362028 8.11416e-05)
(0.000192685 0.000285728 8.08924e-05)
(-7.9103e-05 0.000154911 8.31197e-05)
(0.000272217 0.000142324 0.00214273)
(-0.000135817 -6.54059e-05 8.777e-05)
(-1.04156e-10 0.000442554 7.57648e-06)
(0.000198241 0.000484659 9.2437e-05)
(-0.000378976 -2.33115e-11 6.86645e-06)
(0.000295183 -0.00031123 7.55218e-05)
(0.000185819 -0.000103974 0.00191635)
(0.000304563 0.000280623 0.00188418)
(0.00011126 0.00020379 8.60452e-05)
(0.00011126 0.00020379 7.02925e-05)
(0.000120842 0.000103096 8.31766e-05)
(0.000208718 -0.000177481 0.00177561)
(3.70976e-05 -2.72419e-10 6.73058e-05)
(0.00560903 0.00231462 1.99281e-05)
(0.000155503 0.000138651 0.00198166)
(-0.000142964 8.03325e-05 7.7428e-05)
(-0.000187893 0.000267286 6.6924e-05)
(5.85742e-05 2.28931e-05 7.01558e-05)
(-0.000245302 0.000118131 8.55357e-05)
(0.0001265 0.000243741 7.74376e-05)
(0.000104476 0.000470155 6.62842e-05)
(-1.39256e-06 2.86794e-06 8.51934e-05)
(6.28153e-05 -0.000308965 8.406e-05)
(-2.07803e-07 5.44991e-05 1.64825e-06)
(-0.000388035 -1.92269e-05 7.72392e-05)
(7.76313e-06 -5.42015e-05 8.73215e-05)
(0.00016883 0.000360606 8.50352e-05)
(0.000156906 -5.24358e-05 8.19077e-05)
(0.000120167 -0.000174453 7.44366e-05)
(-0.000218589 -0.000105267 7.86833e-05)
(0.000133416 -0.000285767 8.47833e-05)
(-0.000279258 -0.000219373 0.00178481)
(0.000183031 0.000334814 7.76448e-05)
(-0.000101722 2.0271e-06 1.17005e-06)
(0.000101495 -1.40686e-05 5.68626e-05)
(-0.00671386 -1.20473e-05 0.000560747)
(0.000353577 -1.47365e-06 1.88785e-06)
(7.36854e-05 4.29955e-05 8.1339e-05)
(0.000276737 -9.40484e-10 7.43197e-05)
(-8.43716e-05 -0.000256477 8.74955e-05)
(6.50884e-06 9.23986e-06 8.71934e-05)
(-0.000245302 0.000118131 9.2249e-05)
(-2.07803e-07 5.44991e-05 1.60322e-06)
(-7.9103e-05 0.000154911 8.36614e-05)
(0.000197603 -0.000128402 0.000277779)
(-0.000119102 8.54367e-05 7.80018e-05)
(-8.17868e-05 0.000118561 8.12085e-05)
(0.000233138 -0.000362028 8.38332e-05)
(-7.11837e-08 -3.52765e-05 6.87675e-08)
(-2.60485e-06 -8.95374e-05 3.58285e-06)
(0.000183031 0.000334814 7.84149e-05)
(7.36854e-05 4.29955e-05 8.52398e-05)
(0.000145768 -0.000231914 8.1851e-05)
(0.00025604 0.000123093 8.10364e-05)
(-0.000125634 -6.05023e-05 8.05877e-05)
(4.53061e-05 -0.000108683 8.46706e-05)
(0.000145768 -0.000231914 8.10783e-05)
(0.000262038 -5.76942e-06 8.56522e-05)
(-2.79853e-06 9.76785e-05 4.26635e-06)
(0.00027994 -0.000192965 0.00191036)
(-0.000153594 -0.000221546 8.80095e-05)
(-7.23677e-05 0.000141318 9.23645e-05)
(2.90899e-05 -0.000160101 9.00529e-05)
(0.000159175 0.000307232 7.25728e-05)
(6.34625e-07 0.000305577 2.1031e-06)
(0.000372303 0.000212884 7.9315e-05)
(0.000262038 -5.76942e-06 7.54454e-05)
(0.000280234 -0.000237742 0.00185441)
(7.36854e-05 4.29955e-05 8.61421e-05)
(7.23772e-05 0.000114713 7.37501e-05)
(7.23772e-05 0.000114713 7.37019e-05)
(0.000109759 0.000308001 8.38279e-05)
(-1.89719e-06 -0.000469428 0.000103792)
(5.13063e-05 9.48946e-06 8.31157e-05)
(-2.07083e-05 -0.000191205 8.42007e-05)
(-2.07803e-07 5.44991e-05 1.59996e-06)
(-8.63271e-05 0.000147355 7.55808e-05)
(-0.000176437 0.000189242 0.00160787)
(0.00156102 0.00486416 0.00142304)
(0.000235533 0.000202685 0.00210488)
(-0.000218589 -0.000105267 8.68407e-05)
(0.000218069 0.00147219 8.36062e-05)
(0.00023992 -0.000151766 0.00193871)
(-0.000215382 -0.000174081 0.0018512)
(-0.000176933 -0.0012885 4.62963e-05)
(-0.000335865 0.00018343 8.54472e-05)
(-0.000135817 -6.54059e-05 7.96101e-05)
(0.000409535 8.4536e-05 5.42802e-05)
(0.000133986 -0.00018334 8.43771e-05)
(0.000278613 0.000137291 6.99909e-05)
(0.000187799 -7.00784e-06 0.0021067)
(0.00011126 0.00020379 7.53181e-05)
(0.000495958 -2.20178e-05 8.10357e-05)
(0.000246299 0.000342532 8.51443e-05)
(-4.26582e-05 8.54101e-06 6.69979e-05)
(-0.000164147 -7.90492e-05 0.00195748)
(2.64304e-05 1.29712e-05 8.43754e-05)
(0.000626057 -0.00599141 8.43702e-05)
(-2.60485e-06 -8.95374e-05 2.97307e-06)
(0.00021754 -0.00038095 0.00205979)
(-7.33957e-05 0.000108736 8.09029e-05)
(0.000323688 -3.11892e-05 0.00197873)
(0.000266859 0.000309127 0.00196785)
(0.000353577 -1.47365e-06 1.96466e-06)
(0.000109319 -0.0060377 2.16048e-05)
(4.98437e-06 -3.12897e-05 6.42681e-05)
(-0.00665213 -0.000624265 7.993e-05)
(0.000271346 -0.000246629 0.00185441)
(4.24984e-05 -0.00587841 2.2056e-05)
(-0.000177894 9.2507e-05 7.37536e-05)
(0.000151078 -0.000202446 1.24131e-05)
(0.000837058 -0.000218546 8.07842e-05)
(-7.33957e-05 0.000108736 7.77702e-05)
(-4.91201e-05 -6.08769e-05 9.52572e-05)
(-0.00671401 -1.36383e-05 0.000560747)
(-0.000378976 -2.33115e-11 6.8772e-06)
(0.000135082 -0.000406565 1.31767e-06)
(3.9592e-05 -0.000103714 8.09217e-05)
(0.000304858 0.000395904 0.00193076)
(-0.000245302 0.000118131 7.42486e-05)
(-0.000245302 0.000118131 8.44523e-05)
(-0.000218589 -0.000105267 8.66551e-05)
(9.74185e-07 0.000163242 3.39177e-06)
(0.000183031 0.000334814 7.97905e-05)
(0.000278613 0.000137291 6.93773e-05)
(-2.50096e-06 -9.93685e-05 7.1337e-05)
(-7.67355e-05 -0.000120827 7.09726e-05)
(0.000273091 -0.000244885 0.00185441)
(0.000183031 0.000334814 7.65594e-05)
(3.63323e-05 2.00344e-05 6.91783e-05)
(3.10948e-05 7.46126e-05 7.86315e-05)
(5.11054e-05 6.61102e-05 6.41353e-05)
(-0.000256344 -0.000238244 0.00174695)
(-0.000395023 -0.000236977 8.89337e-05)
(5.86351e-11 -0.000390242 3.31902e-06)
(0.000159175 0.000307232 7.19833e-05)
(0.000177835 -0.000199478 7.30601e-05)
(0.00011126 0.00020379 7.60718e-05)
(0.000192685 0.000285728 9.10621e-05)
(0.00113276 0.000174289 9.02737e-05)
(0.000295183 -0.00031123 6.9648e-05)
(-0.000197326 0.000208936 0.00183786)
(-4.91201e-05 -6.08769e-05 8.52382e-05)
(0.000133416 -0.000285767 8.03248e-05)
(0.000127548 -0.000302077 8.58684e-05)
(-2.07803e-07 5.44991e-05 1.68039e-06)
(-0.000153594 -0.000221546 8.53035e-05)
(4.59796e-05 -4.16647e-05 8.32643e-05)
(0.000145768 -0.000231914 8.69235e-05)
(0.000193359 0.000176882 0.00187739)
(0.000295183 -0.00031123 8.38416e-05)
(-0.000135817 -6.54059e-05 8.15758e-05)
(3.70976e-05 -2.72419e-10 6.68811e-05)
(-0.000175322 0.00018952 0.00192264)
(-2.4337e-05 -0.000506112 0.00174695)
(8.46175e-05 9.30808e-05 4.62121e-05)
(0.000277554 -0.000240421 0.00185441)
(0.000353577 -1.47365e-06 1.85758e-06)
(-9.00288e-05 -1.08642e-05 5.85167e-05)
(-0.000213395 -0.000176068 0.0018512)
(0.000335815 -5.13157e-05 9.52071e-05)
(0.000411976 -6.09297e-05 8.04108e-05)
(-0.000132416 6.37615e-05 9.10979e-05)
(-0.00671398 -1.33375e-05 0.000560747)
(6.34625e-07 0.000305577 1.94484e-06)
(4.59796e-05 -4.16647e-05 7.49406e-05)
(0.00025604 0.000123093 7.9753e-05)
(-0.000198289 0.000207973 0.00183786)
(4.53061e-05 -0.000108683 8.69263e-05)
(3.66997e-05 -0.000185359 7.35774e-05)
(-2.5876e-06 -0.000336271 1.71615e-06)
(0.000109319 -0.0060377 1.99488e-05)
(-0.00673095 -0.000190107 1.94478e-05)
(0.000163223 -0.000308941 8.43343e-05)
(2.9724e-05 -5.65844e-05 9.35746e-05)
(-0.000176671 0.000189007 0.00160787)
(0.00039056 -1.12628e-06 7.77365e-05)
(0.000177835 -0.000199478 7.21178e-05)
(-5.60573e-05 0.000162572 8.20895e-05)
(7.23772e-05 0.000114713 7.55053e-05)
(-0.000153638 -0.000291713 8.64216e-05)
(4.94232e-05 0.000129032 8.45847e-06)
(-1.04156e-10 0.000274844 0.000171843)
(-7.9103e-05 0.000154911 8.17325e-05)
(0.000183031 0.000334814 7.55758e-05)
(-8.63271e-05 0.000147355 7.57028e-05)
(-0.000153594 -0.000221546 8.73395e-05)
(0.000183031 0.000334814 7.74628e-05)
(-0.00673397 0.000292806 8.72622e-05)
(-4.23011e-05 -9.48841e-05 0.00168346)
(0.000111645 -0.000225568 8.00584e-05)
(-7.33957e-05 0.000108736 8.95063e-05)
(9.74185e-07 0.000163242 3.70407e-06)
(-0.000132416 6.37615e-05 8.86608e-05)
(-7.33957e-05 0.000108736 9.0952e-05)
(9.22004e-05 -0.00014196 8.11988e-05)
(0.000284387 -0.000188518 0.00191036)
(-0.000132416 6.37615e-05 9.65131e-05)
(-0.000273359 -0.000225272 0.00178481)
(0.000134217 -0.000207535 0.00213952)
(-0.000218589 -0.000105267 8.4213e-05)
(0.000276737 -9.40484e-10 7.33624e-05)
(0.000182932 -5.77056e-05 8.16315e-05)
(-2.07803e-07 5.44991e-05 1.54503e-06)
(-0.000290075 -7.55091e-06 9.65753e-05)
(0.000183031 0.000334814 7.79931e-05)
(-0.000229743 0.000242427 0.00184295)
(-0.0003487 7.71079e-05 6.58538e-05)
(-7.7103e-05 -5.75617e-05 6.49707e-05)
(0.000262038 -5.76942e-06 7.74169e-05)
(7.12215e-05 3.32486e-05 0.00198446)
(0.000770079 -0.000693539 8.76541e-05)
(5.13063e-05 9.48946e-06 8.93551e-05)
(2.9724e-05 -5.65844e-05 9.12251e-05)
(-6.90468e-05 -6.18573e-05 6.83427e-05)
(0.000270046 -1.9139e-05 0.00206505)
(-0.000183882 8.8553e-05 7.63607e-05)
(4.98437e-06 -3.12897e-05 7.18657e-05)
(0.00011126 0.00020379 8.92407e-05)
(0.00010344 -0.000144503 7.82358e-05)
(0.00011126 0.00020379 8.16269e-05)
(-8.63271e-05 0.000147355 9.00689e-05)
(-1.71117e-05 -5.8357e-06 4.70843e-05)
(-0.000245302 0.000118131 8.93467e-05)
(-7.61499e-05 -0.00646378 2.55459e-05)
(2.90899e-05 -0.000160101 9.15175e-05)
(0.000228972 0.000210513 6.67011e-05)
(0.000194863 0.000164329 0.00191085)
(0.00030486 0.000280327 0.00188418)
(-1.39674e-05 -4.8591e-06 6.43318e-05)
(0.000154649 0.000136878 0.00198166)
(2.29342e-07 6.26003e-05 9.7826e-07)
(-1.39674e-05 -4.8591e-06 6.71147e-05)
(0.000409535 8.4536e-05 5.30421e-05)
(0.00016883 0.000360606 9.14835e-05)
(-0.000212217 9.69405e-06 8.73549e-05)
(-0.000300253 -0.000147633 9.8165e-05)
(-0.000126562 -6.73103e-05 8.05051e-05)
(0.000906614 0.000142324 9.89987e-05)
(3.5884e-05 -0.000461141 6.71986e-05)
(-0.000247825 0.000242379 8.32256e-05)
(4.00944e-05 -9.38091e-05 0.00198295)
(-0.000119785 0.00524483 6.88119e-05)
(-0.000245302 0.000118131 8.6579e-05)
(-0.000135817 -6.54059e-05 7.26931e-05)
(-0.000153638 -0.000291713 8.02924e-05)
(0.0001265 0.000243741 7.24812e-05)
(0.000278679 -0.000194227 0.00191036)
(-0.000125634 -6.05023e-05 7.91065e-05)
(-0.000153594 -0.000221546 7.70555e-05)
(6.34625e-07 0.000305577 1.74123e-06)
(-2.05321e-05 6.68099e-05 7.10772e-05)
(0.00011126 0.00020379 7.77679e-05)
(-4.91201e-05 -6.08769e-05 9.89583e-05)
(0.000270498 -1.9139e-05 0.00206505)
(0.00011126 0.00020379 6.86892e-05)
(2.92185e-05 -2.51009e-05 6.45027e-05)
(-0.000224984 -0.000200273 0.00183766)
(0.000145768 -0.000231914 8.76668e-05)
(-0.000245302 0.000118131 8.41665e-05)
(0.000133416 -0.000285767 8.5809e-05)
(-0.000198647 0.000207614 0.00183786)
(-0.000183967 -8.85811e-05 9.4527e-05)
(-0.000275177 0.000153493 8.35939e-05)
(0.000149393 -0.000319219 7.59064e-05)
(0.00015502 0.000137647 0.00198166)
(0.000428342 4.98669e-05 0.000111154)
(-4.75911e-05 0.000184694 9.16105e-05)
(-0.000244133 0.000233505 7.01644e-05)
(-0.000183882 8.8553e-05 8.05491e-05)
(6.34625e-07 0.000305577 1.84893e-06)
(0.000183031 0.000334814 7.12886e-05)
(-0.000177894 9.2507e-05 7.34311e-05)
(-0.00027843 -0.0002202 0.00178481)
(0.000322295 -3.25822e-05 0.00197873)
(-0.000290075 -7.55091e-06 9.16841e-05)
(-7.9103e-05 0.000154911 7.76125e-05)
(6.28778e-05 -0.00011442 8.0176e-05)
(0.00011126 0.00020379 8.11994e-05)
(-6.47715e-06 -3.58583e-05 4.63871e-05)
(-5.87048e-05 8.30192e-06 1.1379e-07)
(0.000173079 -0.000258236 8.21014e-05)
(-0.000395023 -0.000236977 8.958e-05)
(0.000309607 1.68791e-05 9.29526e-05)
(-0.00101786 0.00540747 9.28641e-05)
(-0.000245302 0.000118131 7.66981e-05)
(-0.000266867 -0.000227721 0.00174695)
(-0.000183967 -8.85811e-05 8.672e-05)
(6.28153e-05 -0.000308965 8.87596e-05)
(0.00010344 -0.000144503 7.21154e-05)
(0.000266774 0.000302835 8.22442e-05)
(-0.000153638 -0.000291713 8.20429e-05)
(-2.84735e-13 9.88419e-06 -3.81221e-05)
(0.000276737 -9.40484e-10 7.73425e-05)
(-7.9103e-05 0.000154911 7.66493e-05)
(-4.91201e-05 -6.08769e-05 9.86808e-05)
(6.34625e-07 0.000305577 2.04376e-06)
(0.000213632 -2.83916e-05 7.27005e-05)
(4.53061e-05 -0.000108683 9.71458e-05)
(-4.57148e-06 -0.00011673 7.59538e-05)
(-3.61358e-05 9.40202e-06 8.00222e-05)
(-9.68987e-05 0.000134787 8.85251e-05)
(0.000262038 -5.76942e-06 9.34299e-05)
(2.20399e-11 0.000173842 7.5475e-05)
(-0.000180224 0.000181646 0.00158605)
(0.000159292 6.84493e-06 8.14102e-05)
(-0.000153638 -0.000291713 8.54449e-05)
(-4.36306e-05 1.27989e-06 2.20868e-05)
(-7.9103e-05 0.000154911 8.2817e-05)
(0.000235593 0.000202697 0.00210488)
(-2.05321e-05 6.68099e-05 7.61443e-05)
(3.66997e-05 -0.000185359 6.21051e-05)
(-0.0001591 8.87109e-06 2.74277e-06)
(-0.000153594 -0.000221546 7.60762e-05)
(0.00011126 0.00020379 7.36608e-05)
(7.76313e-06 -5.42015e-05 9.58333e-05)
(0.000292612 9.48649e-05 0.00188418)
(0.000192685 0.000285728 8.53037e-05)
(4.98437e-06 -3.12897e-05 6.82613e-05)
(0.000173079 -0.000258236 8.3278e-05)
(-0.000294979 -8.20301e-05 1.37685e-05)
(-1.39674e-05 -4.8591e-06 7.31388e-05)
(0.000159175 0.000307232 7.92642e-05)
(-4.91201e-05 -6.08769e-05 9.27708e-05)
(-0.000153594 -0.000221546 7.47278e-05)
(0.000429577 0.000225981 7.82097e-05)
(-9.00288e-05 -1.08642e-05 6.03562e-05)
(2.62214e-05 -4.0581e-05 6.37926e-05)
(-0.000153638 -0.000291713 8.53531e-05)
(6.34625e-07 0.000305577 2.19256e-06)
(0.000159175 0.000307232 8.35902e-05)
(5.13063e-05 9.48946e-06 9.03536e-05)
(-8.63271e-05 0.000147355 8.0832e-05)
(-0.00039431 -0.000442944 0.00198017)
(-0.000135817 -6.54059e-05 7.89427e-05)
(-0.000245302 0.000118131 7.74865e-05)
(2.64304e-05 1.29712e-05 9.47085e-05)
(-0.000135817 -6.54059e-05 7.98096e-05)
(-4.91201e-05 -6.08769e-05 9.11956e-05)
(0.000295183 -0.00031123 7.4791e-05)
(0.000183031 0.000334814 7.90719e-05)
(9.79159e-05 -1.19476e-10 5.59961e-07)
(0.000399323 -2.97837e-05 7.91041e-05)
(0.000226496 0.000189408 0.0019202)
(-0.000224755 -0.000200502 0.00183766)
(0.000143044 0.000213131 0.00153195)
(0.000382668 -4.80718e-07 0.000111154)
(-0.000393484 -0.000264286 0.0020313)
(9.74185e-07 0.000163242 3.66438e-06)
(3.24567e-05 0.000531111 7.45265e-05)
(2.90899e-05 -0.000160101 8.91132e-05)
(0.00106808 0.000172483 0.000195137)
(-0.000183882 8.8553e-05 8.27439e-05)
(5.85742e-05 2.28931e-05 8.29014e-05)
(-2.5876e-06 -0.000336271 1.61629e-06)
(-0.000218589 -0.000105267 8.30936e-05)
(-1.39674e-05 -4.8591e-06 6.81537e-05)
(0.000256597 -0.000220226 0.00179883)
(-0.000378976 -2.33115e-11 6.56454e-06)
(-9.68987e-05 0.000134787 8.99683e-05)
(0.000245233 -0.000253392 8.17065e-05)
(-4.91201e-05 -6.08769e-05 7.9495e-05)
(0.000248488 0.000184837 9.19036e-05)
(-2.60485e-06 -8.95374e-05 3.37102e-06)
(0.000183031 0.000334814 7.25417e-05)
(0.000176427 0.000284102 8.49517e-05)
(0.0001265 0.000243741 8.32929e-05)
(-0.000210848 -0.000178615 0.0018512)
(-0.000125634 -6.05023e-05 7.15432e-05)
(-0.000101722 2.0271e-06 1.28221e-06)
(5.13063e-05 9.48946e-06 8.27389e-05)
(2.57584e-05 -3.66784e-05 6.41945e-05)
(-8.17868e-05 0.000118561 8.65663e-05)
(-0.000267694 -0.000226894 0.00174695)
(3.4189e-07 -2.11459e-06 7.09167e-05)
(0.000120842 0.000103096 8.2855e-05)
(-0.000245302 0.000118131 9.34042e-05)
(-0.000101722 2.0271e-06 1.257e-06)
(-0.000905282 0.000435302 9.09134e-05)
(2.25813e-05 -1.46501e-05 1.83916e-07)
(0.000104476 0.000470155 6.0449e-05)
(0.000145768 -0.000231914 9.50323e-05)
(0.000255129 -0.000221694 0.00179883)
(-0.000218589 -0.000105267 9.12935e-05)
(0.000109319 -0.0060377 2.13711e-05)
(-0.000225847 -0.00019941 0.00183766)
(-2.05321e-05 6.68099e-05 7.75878e-05)
(7.76313e-06 -5.42015e-05 9.27056e-05)
(0.000279304 -0.000193601 0.00191036)
(0.000109319 -0.0060377 2.33876e-05)
(0.000379239 0.000145382 0.00153195)
(-0.000248453 0.000250202 0.00176964)
(5.13063e-05 9.48946e-06 9.35111e-05)
(0.000192685 0.000285728 8.71585e-05)
(-4.91201e-05 -6.08769e-05 9.62249e-05)
(0.000120842 0.000103096 8.0411e-05)
(0.000266774 0.000302835 8.04013e-05)
(0.00560903 0.00231462 1.99526e-05)
(7.23772e-05 0.000114713 8.60588e-05)
(-0.000125197 0.000127791 7.85734e-05)
(0.000429577 0.000225981 6.89946e-05)
(0.000837058 -0.000218546 7.49593e-05)
(2.9724e-05 -5.65844e-05 8.42739e-05)
(0.000295183 -0.00031123 8.63488e-05)
(0.000295183 -0.00031123 7.72917e-05)
(-0.000135817 -6.54059e-05 9.36938e-05)
(2.64304e-05 1.29712e-05 9.53157e-05)
(-6.12774e-06 1.06305e-06 9.85491e-10)
(-0.000135817 -6.54059e-05 8.17596e-05)
(-0.000153594 -0.000221546 7.61137e-05)
(2.20399e-11 0.000233448 0.00154851)
(-0.000459487 -3.91433e-05 6.98293e-05)
(-0.000183967 -8.85811e-05 8.74579e-05)
(-2.46172e-05 -7.69371e-07 6.58535e-07)
(-0.000119102 8.54367e-05 7.79931e-05)
(5.13063e-05 9.48946e-06 8.80223e-05)
(0.00016883 0.000360606 9.0239e-05)
(3.70976e-05 -2.72419e-10 6.0348e-05)
(-2.05321e-05 6.68099e-05 7.28824e-05)
(0.000233138 -0.000362028 8.10628e-05)
(-8.63271e-05 0.000147355 9.09904e-05)
(-0.000183882 8.8553e-05 7.71446e-05)
(0.000302454 9.64834e-05 9.83523e-05)
(6.82484e-05 2.32776e-05 8.21422e-05)
(-0.0001591 8.87109e-06 2.68405e-06)
(2.62214e-05 -4.0581e-05 6.75151e-05)
(0.000262038 -5.76942e-06 8.63945e-05)
(0.000233138 -0.000362028 7.83009e-05)
(-0.000241484 0.000231517 0.00177604)
(5.13063e-05 9.48946e-06 9.16808e-05)
(6.50884e-06 9.23986e-06 8.37438e-05)
(0.000177056 0.000387234 7.36193e-05)
(-7.67355e-05 -0.000120827 6.28018e-05)
(-0.000305256 0.000298111 0.00193142)
(-2.60485e-06 -8.95374e-05 3.84032e-06)
(-0.000126562 -6.73103e-05 7.63567e-05)
(-7.9103e-05 0.000154911 8.01933e-05)
(0.000495958 -2.20178e-05 7.71523e-05)
(-2.44514e-05 -0.000177324 0.0019829)
(0.000228972 0.000210513 7.0363e-05)
(-4.91201e-05 -6.08769e-05 0.000103163)
(0.000276737 -9.40484e-10 7.72896e-05)
(-0.000135817 -6.54059e-05 8.28073e-05)
(0.000248488 0.000184837 9.30227e-05)
(-0.000245655 0.000252999 0.00176964)
(0.000276469 -0.000241506 0.00185441)
(0.000460609 -1.6215e-05 7.92077e-05)
(0.000209231 -0.000186951 0.00184347)
(0.00025604 0.000123093 7.89145e-05)
(-4.3862e-06 -0.000490202 7.09369e-05)
(-0.000443365 -6.98383e-05 8.14556e-05)
(-0.000214003 0.000211804 0.00188244)
(-0.000177894 9.2507e-05 8.24081e-05)
(-0.000218589 -0.000105267 8.7889e-05)
(-3.2757e-05 1.27989e-06 9.75075e-07)
(2.62214e-05 -4.0581e-05 6.85891e-05)
(-1.04156e-10 0.000442554 2.04919e-05)
(-0.00673095 -0.000190107 2.52404e-05)
(-0.0001591 8.87109e-06 2.80257e-06)
(-3.44611e-05 2.21603e-05 7.05132e-05)
(-4.91201e-05 -6.08769e-05 9.59534e-05)
(-0.000378976 -2.33115e-11 7.53894e-06)
(0.000266774 0.000302835 8.52687e-05)
(0.000276737 -9.40484e-10 7.86342e-05)
(0.000151078 -0.000202446 1.14241e-05)
(0.000192685 0.000285728 7.81883e-05)
(-8.63271e-05 0.000147355 8.17491e-05)
(0.000276737 -9.40484e-10 8.11112e-05)
(1.78238e-05 3.31409e-06 7.29874e-05)
(-0.000101722 2.0271e-06 1.32733e-06)
(-0.000153638 -0.000291713 8.05229e-05)
(0.000203031 -0.000139422 8.06352e-05)
(0.000183031 0.000334814 7.97992e-05)
(0.000277588 -0.000240387 0.00185441)
(-0.000183967 -8.85811e-05 9.41145e-05)
(0.000104476 0.000470155 6.31052e-05)
(-0.000177894 9.2507e-05 6.62423e-05)
(-0.000223577 -0.00020168 0.00183766)
(-0.00010317 0.000320005 8.32729e-05)
(-0.000111448 -0.00028844 7.72e-05)
(0.000295183 -0.00031123 7.57022e-05)
(-4.91201e-05 -6.08769e-05 8.01356e-05)
(-7.23677e-05 0.000141318 8.58022e-05)
(-5.60573e-05 0.000162572 8.19329e-05)
(6.28153e-05 -0.000308965 8.48234e-05)
(0.000145768 -0.000231914 9.43655e-05)
(9.74185e-07 0.000163242 3.9703e-06)
(5.86351e-11 -0.000390242 3.56891e-06)
(-1.33343e-05 0.00021752 1.48135e-06)
(-1.04156e-10 0.000442554 6.96173e-06)
(-0.000905282 0.000435302 8.95049e-05)
(-0.000183967 -8.85811e-05 8.68666e-05)
(-7.9103e-05 0.000154911 8.94051e-05)
(-0.000275596 -0.000223034 0.00178481)
(0.000217602 -6.28247e-05 0.00193162)
(7.41694e-05 0.000198129 3.91165e-05)
(-2.07803e-07 5.44991e-05 1.65177e-06)
(-0.000621348 -0.00662058 0.00201515)
(-2.60485e-06 -8.95374e-05 3.23336e-06)
(-0.000224105 -0.000189459 0.00187479)
(-0.000135817 -6.54059e-05 8.73712e-05)
(0.00011866 2.33108e-05 9.22509e-05)
(0.000276737 -9.40484e-10 8.61846e-05)
(-0.000139842 -0.000223 7.8077e-05)
(0.000173079 -0.000258236 8.3661e-05)
(-9.88686e-06 0.000482632 0.00184295)
(-0.000140701 -6.77583e-05 0.00190921)
(0.000238226 0.000163338 5.69856e-05)
(-4.41715e-05 -8.19776e-06 3.94217e-05)
(0.00011126 0.00020379 8.36022e-05)
(-0.000183882 8.8553e-05 8.48536e-05)
(-0.000218589 -0.000105267 8.79661e-05)
(-0.000245302 0.000118131 8.06727e-05)
(5.86351e-11 -0.000390242 3.21138e-06)
(-0.000135817 -6.54059e-05 8.57888e-05)
(-2.01424e-05 -2.31313e-05 6.87664e-05)
(2.29342e-07 6.26003e-05 1.04001e-06)
(0.00507503 0.00407811 0.000445692)
(-0.000125634 -6.05023e-05 7.82782e-05)
(-0.000245302 0.000118131 9.39632e-05)
(0.000304304 0.000280883 0.00188418)
(-0.000153638 -0.000291713 8.45446e-05)
(4.24984e-05 -0.00587841 2.27274e-05)
(2.92185e-05 -2.51009e-05 6.60857e-05)
(-0.00011746 -9.87273e-05 7.13561e-05)
(0.00024711 0.000171114 8.64283e-05)
(-0.000976289 -0.000204289 1.19416e-05)
(-0.000245155 0.000253499 0.00176964)
(-0.000251431 0.000247224 0.00176964)
(0.000135082 -0.000406565 1.20147e-06)
(0.000303434 0.000281752 0.00188418)
(2.9724e-05 -5.65844e-05 8.05204e-05)
(0.000295183 -0.00031123 7.44186e-05)
(-0.000363758 -0.00056695 9.20265e-05)
(0.000248488 0.000184837 9.39569e-05)
(-1.04156e-10 0.000442554 8.86526e-06)
(-0.000267691 -0.000226897 0.00174695)
(-8.17868e-05 0.000118561 7.23903e-05)
(0.00011126 0.00020379 7.72906e-05)
(-0.000270729 -0.000227902 0.00178481)
(0.000179115 -9.64614e-06 0.00193076)
(5.59205e-05 -7.34516e-05 7.36973e-05)
(0.000295183 -0.00031123 7.88734e-05)
(-7.61499e-05 -0.00646378 2.39958e-05)
(0.000173079 -0.000258236 7.6546e-05)
(-0.000211317 -0.000178146 0.0018512)
(-8.63271e-05 0.000147355 9.11112e-05)
(0.000304506 5.1669e-05 6.82558e-05)
(4.98437e-06 -3.12897e-05 7.22522e-05)
(-2.07803e-07 5.44991e-05 1.55987e-06)
(-0.000226855 -0.000186709 0.00187479)
(3.70976e-05 -2.72419e-10 6.26551e-05)
(0.000145768 -0.000231914 9.11284e-05)
(0.000173079 -0.000258236 7.20112e-05)
(-0.000101722 2.0271e-06 1.18594e-06)
(3.4189e-07 -2.11459e-06 8.08171e-05)
(-8.17868e-05 0.000118561 7.23824e-05)
(0.00547359 0.00433399 0.00176174)
(-0.000395023 -0.000236977 8.40089e-05)
(-0.000125634 -6.05023e-05 8.2332e-05)
(0.000245233 -0.000253392 8.24201e-05)
(9.74185e-07 0.000163242 3.44525e-06)
(-0.000153638 -0.000291713 8.42856e-05)
(1.78238e-05 3.31409e-06 6.95773e-05)
(0.000245233 -0.000253392 8.98842e-05)
(0.000183031 0.000334814 7.2804e-05)
(0.000212362 -3.88719e-05 0.00210804)
(0.000151078 -0.000202446 1.24064e-05)
(-0.000101722 2.0271e-06 1.17794e-06)
(-0.000558348 4.02838e-05 0.000611934)
(-0.000101552 8.3425e-05 7.69576e-05)
(-0.000177894 9.2507e-05 7.74223e-05)
(0.000254081 0.000162647 1.43578e-05)
(-5.41579e-05 6.93138e-05 6.41971e-05)
(5.59205e-05 -7.34516e-05 7.66897e-05)
(-0.00671416 -1.5187e-05 0.000560747)
(0.000303051 0.000282136 0.00188418)
(0.000228972 0.000210513 7.23541e-05)
(-0.000101722 2.0271e-06 1.16093e-06)
(-7.33957e-05 0.000108736 8.43064e-05)
(0.000262038 -5.76942e-06 7.75237e-05)
(3.66997e-05 -0.000185359 5.93423e-05)
(2.92185e-05 -2.51009e-05 6.50034e-05)
(7.50775e-05 0.000120321 0.00188782)
(2.9724e-05 -5.65844e-05 8.93945e-05)
(-7.33957e-05 0.000108736 9.1083e-05)
(-2.60485e-06 -8.95374e-05 3.63067e-06)
(-0.000183882 8.8553e-05 8.55712e-05)
(-0.000103087 0.000193581 8.15993e-05)
(0.000228972 0.000210513 7.02126e-05)
(-0.000249201 0.000249454 0.00176964)
(0.000159292 6.84493e-06 8.33231e-05)
(-0.000132416 6.37615e-05 8.57638e-05)
(-0.000378976 -2.33115e-11 7.12389e-06)
(-0.000177894 9.2507e-05 6.95593e-05)
(-0.000101552 8.3425e-05 7.10757e-05)
(0.000183031 0.000334814 7.9341e-05)
(0.0001237 0.000287709 6.96467e-05)
(0.000302918 0.000282269 0.00188418)
(5.11054e-05 6.61102e-05 6.43005e-05)
(-7.9103e-05 0.000154911 8.09548e-05)
(0.000240206 4.1662e-05 0.000422654)
(0.000134142 -3.88719e-05 8.27786e-05)
(-0.000245302 0.000118131 8.57488e-05)
(0.000487316 -1.29982e-05 0.0012467)
(-0.000245302 0.000118131 9.37306e-05)
(-0.000378976 -2.33115e-11 6.42487e-06)
(-3.2757e-05 1.27989e-06 9.68121e-07)
(-4.91201e-05 -6.08769e-05 9.13748e-05)
(0.000127972 -0.000258226 7.87213e-05)
(-0.00101786 0.00540747 9.59472e-05)
(0.000245233 -0.000253392 8.55703e-05)
(-2.07803e-07 5.44991e-05 1.62933e-06)
(0.000303303 0.000281884 0.00188418)
(7.72688e-05 0.000104309 8.54132e-05)
(-1.04156e-10 0.000442554 9.49608e-05)
(0.000372275 1.89784e-05 7.88059e-05)
(-0.00673397 0.000292806 9.74896e-05)
(0.000282351 -0.000190555 0.00191036)
(3.70976e-05 -2.72419e-10 5.96398e-05)
(-0.000187893 0.000267286 6.62969e-05)
(0.000279578 -0.000193328 0.00191036)
(-2.60485e-06 -8.95374e-05 2.75008e-06)
(-0.000135817 -6.54059e-05 8.25061e-05)
(-4.91201e-05 -6.08769e-05 9.03248e-05)
(0.00024385 0.000170464 0.00206586)
(0.00030255 0.000282637 0.00188418)
(-2.04742e-13 -0.000223755 1.12198e-05)
(0.000295183 -0.00031123 7.9776e-05)
(0.000459389 5.07292e-05 6.05763e-07)
(0.000183031 0.000334814 8.09228e-05)
(0.00024711 0.000171114 7.97283e-05)
(-4.91201e-05 -6.08769e-05 8.79331e-05)
(-0.000177894 9.2507e-05 7.49501e-05)
(-2.05321e-05 6.68099e-05 7.49353e-05)
(-0.000629663 -0.00617491 0.00197604)
(-2.60485e-06 -0.000122805 7.88593e-05)
(-7.23677e-05 0.000141318 8.80088e-05)
(4.24984e-05 -0.00587841 2.24933e-05)
(-0.000183882 8.8553e-05 8.46724e-05)
(0.000183031 0.000334814 7.74736e-05)
(0.0001265 0.000243741 8.29371e-05)
(-0.000266374 -0.0001179 6.13223e-07)
(0.000266774 0.000302835 7.59511e-05)
(-7.7103e-05 -5.75617e-05 6.45627e-05)
(-1.04156e-10 0.000442554 6.92673e-06)
(0.000363597 -4.80718e-07 0.000111154)
(0.000245233 -0.000253392 8.4485e-05)
(0.000132676 0.000355692 8.27843e-05)
(0.000145768 -0.000231914 8.12707e-05)
(7.86899e-05 -0.000257174 9.18901e-05)
(-0.000183967 -8.85811e-05 8.42989e-05)
(-1.89719e-06 -0.000467066 4.66957e-06)
(-0.000105086 0.000174271 7.56304e-05)
(0.000284204 -0.000342608 0.0018811)
(-1.89719e-06 -0.000467066 4.60582e-06)
(0.000182932 -5.77056e-05 9.36801e-05)
(8.46175e-05 9.30808e-05 4.73349e-05)
(-0.000153638 -0.000291713 9.13224e-05)
(-0.000153594 -0.000221546 8.62774e-05)
(1.35879e-06 4.04262e-05 0.0017872)
(0.000429577 0.000225981 7.48191e-05)
(-2.37889e-06 -8.32177e-05 2.0405e-06)
(-8.63271e-05 0.000147355 7.62152e-05)
(0.000223625 0.000155507 0.00196001)
(4.98437e-06 -3.12897e-05 7.00993e-05)
(-4.91201e-05 -6.08769e-05 8.35587e-05)
(0.000109319 -0.0060377 2.10705e-05)
(0.000233138 -0.000362028 7.78848e-05)
(0.000145768 -0.000231914 8.79819e-05)
(0.000291172 0.000364385 0.00177712)
(-0.000212217 9.69405e-06 9.52389e-05)
(-2.07803e-07 5.44991e-05 1.60763e-06)
(4.24984e-05 -0.00587841 2.34522e-05)
(5.59205e-05 -7.34516e-05 7.22207e-05)
(-0.000153594 -0.000221546 7.53409e-05)
(-0.00026686 0.000266114 7.99605e-05)
(7.86899e-05 -0.000257174 9.01292e-05)
(0.000145768 -0.000231914 9.19866e-05)
(-0.000245302 0.000118131 8.36941e-05)
(1.78238e-05 3.31409e-06 6.96241e-05)
(-0.000218589 -0.000105267 8.60965e-05)
(-6.15112e-05 -1.35297e-05 3.66029e-08)
(0.000107231 -0.000250849 7.22692e-05)
(-0.000153594 -0.000221546 7.92386e-05)
(6.28778e-05 -0.00011442 8.75431e-05)
(-0.000176933 -0.0012885 4.51333e-05)
(-8.63271e-05 0.000147355 7.69544e-05)
(0.00011126 0.00020379 8.06543e-05)
(0.000770079 -0.000693539 8.19484e-05)
(0.000183031 0.000334814 8.89046e-05)
(7.23772e-05 0.000114713 8.16411e-05)
(-0.000153638 -0.000291713 8.73318e-05)
(3.4189e-07 -2.11459e-06 7.42203e-05)
(0.000276737 -9.40484e-10 8.51092e-05)