/*--------------------------------*- C++ -*----------------------------------*\
| =========                 |                                                 |
| \\      /  F ield         | OpenFOAM: The Open Source CFD Toolbox           |
|  \\    /   O peration     | Version:  plus.master.MPPICInterFoam            |
|   \\  /    A nd           | Web:      www.OpenFOAM.com                      |
|    \\/     M anipulation  |                                                 |
\*---------------------------------------------------------------------------*/
FoamFile
{
    version     2.0;
    format      ascii;
    class       Cloud<basicKinematicMPPICParcel>;
    location    "13.8/lagrangian/kinematicCloud";
    object      positions;
}
// * * * * * * * * * * * * * * * * * * * * * * * * * * * * * * * * * * * * * //

403
(
(-0.011353 -0.0408203 0.176371) 1536
(-0.0224547 0.0351245 0.188072) 2392
(-0.0315402 0.026874 0.178794) 784
(-0.0222244 0.035605 0.189958) 2384
(-0.00281948 -0.041749 0.191936) 1584
(-0.0213781 0.036184 0.186439) 2384
(-0.012717 0.040121 0.178451) 2320
(-0.0234404 0.0345969 0.177995) 2336
(-0.00971136 -0.0411444 0.175682) 1536
(0.0105182 -0.0413128 0.176061) 1539
(-0.0315057 -0.0266731 0.186903) 856
(-0.023828 -0.0338185 0.190279) 1560
(-0.0107326 0.0404545 0.179125) 2320
(-0.0108407 0.0404888 0.179556) 2320
(-0.00995689 0.0405276 0.179904) 2320
(-0.013194 -0.0399777 0.197593) 1632
(-0.00231578 -0.0413436 0.192315) 1584
(-0.0404854 -0.00932424 0.181855) 807
(-0.00787387 -0.0416967 0.181384) 1536
(-0.0121468 -0.0404351 0.194279) 1576
(-0.02188 -0.0351491 0.209922) 1680
(-0.0410097 -0.00925795 0.17668) 807
(-0.00381816 -0.0424856 0.181625) 1537
(0.0108567 -0.0418915 0.176353) 1539
(-0.0211743 -0.0361664 0.196704) 1624
(-0.0402205 -0.00929043 0.193892) 840
(0.00491865 -0.0414692 0.202263) 1648
(0.00152137 -0.0474897 0.175483) 1538
(-0.0122311 0.0394651 0.202431) 2432
(-0.0130192 -0.0397503 0.214888) 1744
(-0.0211962 -0.0356963 0.213356) 1680
(0.000947604 -0.0463873 0.179386) 1538
(-0.0133381 -0.0398581 0.204173) 1632
(0.0125121 -0.0415956 0.177991) 1539
(0.00909247 -0.0413365 0.186008) 1592
(0.00962752 -0.0432156 0.17689) 1540
(-0.028423 -0.0306369 0.202849) 1616
(-0.0412847 -0.00259093 0.191655) 832
(0.000430549 -0.043364 0.175943) 1537
(-0.0442778 0.00153595 0.177841) 806
(-0.0102547 -0.0407153 0.192492) 1576
(-0.0130147 -0.04146 0.175871) 1536
(-0.0393567 -0.0124198 0.209243) 952
(-0.0123849 0.0392172 0.210092) 2488
(-0.0127691 -0.0399379 0.213579) 1688
(-0.0108397 -0.0406205 0.19225) 1576
(-2.39549e-05 -0.0437693 0.18248) 1538
(-0.00781162 0.0407362 0.182761) 2320
(-0.00263254 0.0422841 0.180034) 2312
(0.0114706 -0.0417792 0.185003) 1592
(-0.0421008 -0.00987335 0.17907) 807
(-0.0434478 0.00263069 0.177971) 805
(-0.0436333 0.00177781 0.177567) 806
(0.00527729 0.0435791 0.175427) 2305
(0.0122318 -0.0431928 0.182794) 1540
(-0.0114884 0.0407581 0.183029) 2320
(-0.00571599 0.0446558 0.175949) 2321
(0.00188179 0.0436788 0.175338) 2313
(-0.0185117 0.0372694 0.184115) 2328
(-0.0179947 0.0394183 0.174988) 2328
(-0.0276286 -0.0357633 0.187387) 1561
(0.00574193 -0.0424436 0.19261) 1592
(0.00133512 -0.0442393 0.179756) 1538
(-0.00096669 -0.0427841 0.185998) 1584
(0.0041023 0.0438677 0.176855) 2313
(-0.0212346 0.0396394 0.18242) 2329
(-0.0322045 -0.0264367 0.194142) 856
(-0.0162241 -0.0393134 0.190828) 1568
(-0.0065289 -0.0425119 0.187019) 1576
(-0.0118117 -0.0403107 0.209389) 1688
(-0.0398908 -0.0177136 0.188538) 849
(0.0108579 -0.0411764 0.193585) 1592
(-0.0434178 -0.00936026 0.193168) 841
(0.00988776 -0.0436504 0.186075) 1593
(0.0109157 -0.0405869 0.198055) 1648
(-0.00726397 -0.0420387 0.187339) 1576
(-0.00718365 0.0428962 0.183943) 2320
(-0.0139606 -0.0393999 0.214699) 1736
(-0.00650808 0.0430053 0.183455) 2320
(-0.0239992 -0.0354008 0.190068) 1560
(0.00535856 -0.0414159 0.225283) 1816
(-0.0286678 -0.0315803 0.195118) 1616
(-0.0110179 -0.0423967 0.191395) 1577
(-0.039636 -0.0186543 0.191479) 849
(-0.039825 -0.0178523 0.190256) 849
(-0.0196593 0.0375594 0.179745) 2328
(-0.00307227 -0.0593309 0.1862) 1587
(-0.00703568 -0.0421631 0.1932) 1576
(-0.0257436 -0.0349803 0.191646) 1560
(-0.0285089 -0.0319799 0.194086) 1560
(-0.0307355 -0.0291748 0.19157) 856
(0.0167885 -0.0398764 0.189617) 1600
(0.00344476 -0.0410906 0.211129) 1696
(-0.00110852 -0.0624084 0.192009) 1588
(0.00740078 0.0515958 0.17556) 2306
(0.00532635 -0.0426463 0.202751) 1648
(0.00969177 0.0549069 0.177548) 2307
(0.00270405 -0.0618034 0.189639) 1588
(-0.0434597 -0.00927032 0.196528) 897
(-0.041602 -0.00949547 0.186756) 840
(-0.0423152 0.000920613 0.198144) 888
(-0.0132447 -0.0407732 0.200405) 1632
(0.0269896 -0.0397975 0.186372) 1609
(0.0010698 0.054515 0.176636) 2315
(-0.0132195 -0.0389901 0.23737) 1856
(-0.0401622 -0.0180313 0.196104) 905
(0.00295662 0.0542248 0.186248) 2371
(-0.0421966 -0.00951461 0.199652) 896
(-0.0394033 -0.0171256 0.198656) 904
(-0.0420018 -0.00729321 0.199738) 896
(-0.0424457 -0.00829555 0.19597) 896
(-0.0426425 0.00114715 0.194023) 832
(0.00516431 0.0537549 0.186762) 2370
(-0.0290475 -0.0304027 0.21507) 1728
(0.005833 0.0538535 0.179321) 2314
(-0.0548283 -0.00787651 0.189452) 843
(-0.00162227 -0.0603455 0.190443) 1588
(0.00664405 0.055632 0.182141) 2307
(0.00462514 -0.0571077 0.189671) 1587
(-0.062547 -0.0016251 0.188561) 836
(-0.0561103 -0.00917001 0.188927) 843
(-0.0613739 0.0012569 0.188748) 836
(-0.0390024 -0.0165244 0.204242) 904
(0.00482418 -0.0427604 0.199934) 1648
(-0.00414007 -0.058305 0.200031) 1643
(-0.0562242 0.0148704 0.186509) 827
(0.00534304 -0.0433072 0.19897) 1648
(0.0558706 -0.00701932 0.180648) 19
(-0.0593059 0.0042517 0.187318) 835
(-0.00791189 0.0410361 0.195055) 2432
(-0.0419538 0.000813788 0.20703) 944
(0.00145863 0.0578872 0.183248) 2315
(0.00470885 0.0555535 0.193603) 2371
(-0.0414665 -0.00978233 0.203633) 896
(-0.0614519 0.00132979 0.190211) 836
(0.0603792 -0.00252539 0.189475) 84
(0.0137164 -0.040427 0.204984) 1704
(-0.0582694 0.00521009 0.188995) 835
(-0.058845 -0.0111224 0.186316) 844
(-0.00773848 -0.0415397 0.207747) 1688
(0.0589248 -0.00796886 0.177548) 19
(-0.0580329 -0.0110265 0.190154) 843
(0.0553842 -0.00689518 0.183926) 19
(0.0086775 -0.0406779 0.215195) 1760
(-0.00576715 -0.0569052 0.192939) 1587
(-0.0574105 0.0191581 0.191563) 828
(-0.00926211 0.0422192 0.195823) 2432
(-0.0608834 0.00334806 0.195168) 892
(0.00397263 -0.0600882 0.197793) 1644
(-0.05616 -0.00456425 0.19646) 891
(-0.058876 0.0184487 0.194647) 828
(-0.0044266 0.0533703 0.186218) 2370
(-0.058903 0.00473895 0.190021) 835
(-0.00614606 -0.0578113 0.197061) 1643
(0.00627423 -0.0585522 0.194392) 1587
(-0.0586153 -0.00964804 0.194744) 899
(-0.0584143 -0.0119538 0.194418) 844
(-0.0584546 -0.0104316 0.193864) 843
(-0.0593012 -0.0015117 0.199077) 891
(-0.0579551 0.0124481 0.19333) 827
(-0.00679908 -0.0406605 0.22206) 1744
(-0.0235357 -0.0346081 0.212014) 1672
(-0.0613277 -0.0133347 0.197956) 900
(0.00182382 -0.0430943 0.20495) 1696
(0.00112946 -0.0446897 0.206474) 1697
(0.0572251 -0.00493385 0.183146) 27
(-0.0619768 0.0169289 0.199165) 884
(-0.0606057 0.00462768 0.198794) 892
(-0.0561232 0.0164387 0.19401) 827
(-0.0101592 -0.0414321 0.206751) 1688
(0.00871486 0.0521989 0.185242) 2362
(-0.0421232 -0.0082627 0.204488) 896
(-0.0559863 0.0113149 0.195428) 883
(-0.0578121 0.000770783 0.201578) 891
(-0.0554499 0.0104426 0.196218) 883
(0.00640931 -0.0429121 0.210064) 1704
(-0.0580455 -0.0145532 0.195623) 900
(-0.0635653 -0.000485639 0.190252) 836
(-0.0142329 -0.0384394 0.240357) 1848
(-0.0197401 -0.0376372 0.214897) 1736
(-0.0621117 0.0152839 0.202274) 884
(-0.0414928 -0.00642265 0.219708) 1008
(-0.0609511 0.00441349 0.202737) 892
(-0.061738 0.0155204 0.204803) 940
(-0.0619277 -0.00388795 0.20352) 892
(-0.0548817 0.00887489 0.201766) 883
(-0.0631379 -0.00375793 0.202821) 892
(-0.00458078 -0.0582404 0.204847) 1699
(-0.0548406 0.0140618 0.197863) 883
(-0.00231272 -0.0463472 0.199223) 1641
(0.0123642 -0.0405399 0.213898) 1704
(-0.0554317 -0.016225 0.198474) 899
(-0.0613115 0.0034596 0.202565) 892
(-0.0588604 0.0117323 0.202107) 884
(-0.00443336 -0.0580816 0.19874) 1643
(0.00796507 -0.0405211 0.228519) 1816
(0.0140955 0.0566971 0.185306) 2363
(-0.0599992 0.00480062 0.201657) 892
(-0.0643368 0.00262208 0.198115) 892
(-0.0606979 0.0122244 0.205582) 940
(-0.059195 -0.00827558 0.202179) 900
(-0.0554488 -0.00629608 0.203375) 899
(-0.0543691 0.0072644 0.201941) 883
(-0.0557878 -0.00606732 0.199707) 891
(-0.0591437 -0.00746224 0.193376) 843
(-0.0561452 -0.0147627 0.200876) 899
(-0.0628647 0.00450491 0.207401) 948
(-0.0198552 -0.0381341 0.21835) 1736
(0.00535453 0.0581927 0.19254) 2371
(0.0576663 -0.00455485 0.188846) 83
(-0.00125957 -0.064419 0.199753) 1644
(-0.0552381 0.00286923 0.201021) 891
(-0.0562932 0.0155164 0.204401) 883
(-0.0574619 0.00213856 0.200688) 891
(-0.0550153 0.0135583 0.19996) 883
(-0.0592422 0.0019905 0.202081) 891
(-0.0600521 -0.00319288 0.206247) 948
(-0.0564708 0.0135728 0.201917) 883
(-0.065746 0.00254603 0.204211) 893
(-0.0564338 -0.00201137 0.20039) 891
(0.0109651 -0.0404316 0.221688) 1760
(0.00219955 -0.0421379 0.219126) 1752
(0.00136037 -0.043469 0.218813) 1753
(-0.0612954 -0.00843465 0.2012) 900
(0.016395 -0.045383 0.214099) 1713
(-0.0613496 -0.00898307 0.210597) 956
(-0.0600888 0.00649013 0.208998) 948
(-0.0563908 0.0146671 0.207112) 939
(-0.053837 0.0129901 0.204721) 939
(-0.0559621 0.000209679 0.201253) 891
(0.003195 0.0612877 0.201603) 2428
(-0.0616055 0.00335843 0.20439) 892
(-0.055106 0.0114197 0.206834) 939
(-0.0602449 -0.0127942 0.205327) 956
(-0.0532923 0.00900444 0.205101) 938
(0.00572366 -0.0584269 0.205644) 1699
(-0.0665243 -7.39961e-05 0.208848) 949
(-0.00350261 0.0535995 0.190857) 2370
(0.000714151 -0.0441811 0.220751) 1753
(0.00947097 -0.0577212 0.207224) 1707
(-0.0592062 0.00558919 0.211198) 947
(0.00834988 -0.056256 0.20531) 1707
(-0.0664536 -0.000259609 0.210657) 949
(-0.0584722 -0.00819627 0.206799) 955
(-0.0555648 -0.00468957 0.208563) 947
(0.00795708 -0.0559411 0.206438) 1707
(-0.00466781 -0.0623744 0.208945) 1700
(0.00729586 -0.0598957 0.206835) 1708
(0.0239018 0.0516565 0.192253) 2355
(-0.0563611 0.00685707 0.20836) 939
(0.0100465 -0.0628115 0.210892) 1708
(-0.0204469 -0.0378055 0.222247) 1736
(-0.0560951 -0.00516517 0.209228) 947
(0.00772753 -0.0403688 0.238098) 1872
(-0.0563532 -0.00671201 0.209189) 955
(-0.0635625 0.0102384 0.220737) 996
(-0.0579715 0.010979 0.213485) 939
(-0.0203281 -0.0376801 0.225604) 1792
(-0.060073 -0.00402998 0.21383) 948
(-0.0608661 -0.000336895 0.209308) 948
(-0.0572454 0.00728748 0.215667) 995
(0.00383604 -0.0587295 0.21262) 1699
(-0.0592902 0.00528915 0.215069) 1003
(0.00684923 -0.0403752 0.245488) 1928
(-0.0607638 -0.0090069 0.215143) 1012
(-0.00104828 -0.064367 0.214435) 1700
(-0.0619612 -0.00185924 0.212329) 948
(-0.057107 0.00664107 0.215416) 995
(0.0117613 -0.0591298 0.215946) 1764
(0.0288905 0.0502521 0.200393) 2411
(0.00385654 -0.0602692 0.21602) 1756
(0.0573969 -0.00617063 0.193997) 83
(0.00935638 0.0575334 0.204917) 2475
(0.0101555 -0.06266 0.217548) 1764
(0.00931934 -0.0630689 0.218461) 1764
(0.00746414 -0.0608436 0.216451) 1764
(-0.00961946 -0.0402326 0.237439) 1856
(0.00606306 -0.0605104 0.21851) 1756
(0.00746018 -0.0611977 0.218398) 1764
(-1.42793e-05 0.0580456 0.204408) 2427
(0.00763508 -0.0576228 0.218057) 1763
(-0.00713993 -0.0624314 0.220882) 1748
(-0.00492012 -0.0412115 0.250859) 1912
(0.00618132 -0.0640153 0.222097) 1756
(0.0603529 -0.00511705 0.213977) 196
(-0.0595883 -0.000169625 0.218461) 1004
(0.0033288 -0.0418705 0.238379) 1864
(0.0104513 0.0578658 0.208543) 2475
(0.001006 -0.0635579 0.223773) 1756
(0.000616028 -0.0620764 0.222658) 1756
(-0.00941466 -0.0400165 0.24134) 1856
(-0.0572937 -0.00638528 0.212417) 947
(0.022823 0.0573209 0.211348) 2468
(-0.0570643 -0.00666737 0.216273) 1011
(-0.00977098 -0.0400894 0.245534) 1912
(-0.00411161 -0.0570183 0.220479) 1755
(-0.0146109 -0.0388806 0.248346) 1904
(-0.0149518 -0.0386859 0.246515) 1904
(0.0133855 0.0579278 0.210905) 2475
(-0.0148291 -0.0387077 0.24878) 1904
(0.0044441 -0.0624427 0.22867) 1812
(-0.00020191 -0.0580265 0.221296) 1755
(-0.000809602 -0.0579125 0.221101) 1755
(0.00223324 -0.0625827 0.228748) 1812
(0.0205407 0.0533372 0.214567) 2523
(-0.000156562 -0.0631961 0.224395) 1756
(0.00212342 -0.0610286 0.222438) 1756
(-0.00525754 -0.0582303 0.229369) 1811
(0.00746456 -0.0577141 0.229913) 1819
(-0.00453724 -0.057122 0.225888) 1811
(0.00174023 -0.0402439 0.257705) 1976
(0.00314908 -0.0417499 0.248638) 1920
(0.02041 0.0561092 0.218629) 2523
(0.00304381 -0.0597034 0.232635) 1812
(-0.000465863 -0.06514 0.23192) 1813
(-0.0602545 -0.00680881 0.228331) 1068
(-0.0624449 -0.00307127 0.228864) 1060
(0.00159125 -0.0413666 0.249541) 1920
(0.00102399 -0.0652125 0.232822) 1813
(0.00716108 -0.0579813 0.234445) 1875
(-0.00499867 -0.0586894 0.229583) 1811
(0.00647484 -0.061609 0.234842) 1868
(0.00819637 -0.060202 0.234696) 1876
(0.00494632 -0.0406736 0.268806) 2040
(-0.0125983 -0.0618459 0.235011) 1860
(0.00540194 -0.0626526 0.239501) 1868
(0.00195722 0.0614114 0.221465) 2540
(0.00540804 -0.0620551 0.239877) 1868
(0.00839696 -0.0589814 0.241975) 1875
(0.00567502 -0.0642304 0.242293) 1868
(0.0225083 0.056796 0.226038) 2580
(-0.00581555 0.061787 0.230208) 2596
(0.0225733 0.0572427 0.23618) 2636
(-0.0567241 -0.00381951 0.242007) 1115
(-0.0583709 -0.00391646 0.243072) 1115
(-0.0552715 -0.00563232 0.243648) 1115
(-0.0621818 -0.00903398 0.245078) 1180
(-0.00168828 0.0592863 0.235065) 2651
(-0.0622201 -0.00325215 0.246381) 1172
(-0.0135047 -0.0667948 0.249911) 1917
(0.0330088 0.0478115 0.238325) 2627
(-0.0513981 0.00628479 0.241734) 1106
(0.00998396 0.059081 0.237951) 2644
(-0.0551483 -0.001873 0.244997) 1171
(-0.0619881 -0.0122283 0.249457) 1180
(0.0292586 0.0549414 0.251125) 2692
(0.0351533 0.0503364 0.25093) 2684
(-0.0556349 -0.00110071 0.258902) 1227
(-0.0625434 -0.00998641 0.262048) 1236
(-0.0545998 -0.00630646 0.262399) 1235
(-0.0573936 -0.00611507 0.259812) 1227
(-0.00270598 -0.0587122 0.268309) 2035
(0.0595542 -0.00802434 0.25437) 468
(-0.0591063 -0.00867611 0.272716) 1292
(-0.00268808 0.0584684 0.276121) 2875
(0.0596605 -0.00801732 0.285105) 636
(0.0112684 0.0603104 0.288145) 2924
(0.0261972 0.0403372 0.304143) 3017
(0.0139755 0.0601508 0.312004) 3036
(0.0183525 0.0582495 0.313646) 11158
(0.00729239 0.0603975 0.315527) 11158
(0.0173496 0.0605701 0.315713) 11158
(0.00893839 -0.0632774 0.326765) 11062
(-0.0251592 0.00373898 0.308258) 5290
(0.0157951 0.0617583 0.316417) 11158
(0.0119951 0.0589796 0.315949) 11158
(0.0164582 0.062021 0.316869) 11158
(0.0123637 0.0628252 0.317243) 11158
(0.0138741 0.0625626 0.317272) 11158
(0.0145805 0.0607576 0.317297) 11158
(0.0189111 0.0595109 0.318317) 11158
(0.006908 -0.0628275 0.328029) 11054
(-0.00436209 0.0613898 0.316838) 11166
(0.0138517 0.0612602 0.318644) 11158
(-0.0078219 0.021446 0.288504) 6761
(0.0139107 0.0638634 0.318984) 11159
(0.0174262 0.0604835 0.319048) 11158
(0.0106303 0.0607743 0.319225) 11158
(0.0201934 0.0569397 0.320338) 11150
(0.00840897 0.0591483 0.319999) 11158
(0.00706472 0.0584426 0.321196) 11157
(0.0110218 0.0627971 0.321699) 11158
(0.0132928 0.0616765 0.321678) 11158
(0.00242038 0.0616694 0.321588) 11166
(0.0133422 0.0648718 0.324681) 11215
(0.00729486 0.058426 0.325228) 11213
(-0.000284041 0.0647942 0.325674) 11222
(-0.0628088 0.00139377 0.336341) 10942
(-0.0638546 -0.000152306 0.336883) 10942
(-0.0640023 0.00343386 0.336998) 10942
(0.00432863 0.0615793 0.328596) 11222
(0.000706969 0.0628655 0.329563) 11222
(0.00187876 0.0638165 0.329753) 11222
(-0.000233399 0.0651782 0.33034) 11223
(0.0104513 0.0619954 0.331476) 11214
(0.0189103 -0.000827772 0.184138) 3784
(0.0172751 0.000417771 0.182169) 3783
(0.0179135 -0.00564871 0.178969) 3775
(-0.0641984 0.00207406 0.342336) 10942
(0.00225696 0.0627932 0.33289) 11222
(-0.0644013 -0.000413652 0.342814) 10942
(0.0167561 -0.0029669 0.175286) 3775
(0.0168554 -0.00287651 0.175117) 3775
)


// ************************************************************************* //
