/*--------------------------------*- C++ -*----------------------------------*\
| =========                 |                                                 |
| \\      /  F ield         | OpenFOAM: The Open Source CFD Toolbox           |
|  \\    /   O peration     | Version:  plus.master.MPPICInterFoam            |
|   \\  /    A nd           | Web:      www.OpenFOAM.com                      |
|    \\/     M anipulation  |                                                 |
\*---------------------------------------------------------------------------*/
FoamFile
{
    version     2.0;
    format      ascii;
    class       surfaceScalarField;
    location    "11.2";
    object      alphaPhi;
}
// * * * * * * * * * * * * * * * * * * * * * * * * * * * * * * * * * * * * * //

dimensions      [0 3 -1 0 0 0 0];

internalField   nonuniform List<scalar> 
34004
(
-2.20771e-09
-3.61027e-08
-1.66164e-06
1.89311e-08
-1.7088e-08
-2.84176e-08
-2.10859e-06
1.21604e-08
-3.64461e-08
-2.12209e-08
-2.46563e-06
5.03561e-09
-5.70512e-08
-1.39893e-08
-2.81365e-06
-2.34529e-09
-7.7058e-08
-6.33216e-09
-3.16964e-06
-1.0057e-08
-9.4587e-08
1.5762e-09
-3.53759e-06
-1.80602e-08
-1.07919e-07
9.48276e-09
-3.9165e-06
-2.5928e-08
1.66668e-08
-4.30079e-06
-3.31532e-08
-1.15246e-07
-6.09376e-09
-4.97682e-08
-1.67812e-06
-2.38894e-08
-4.1527e-08
-2.12699e-06
-4.45861e-08
-3.47858e-08
-2.48864e-06
-6.58537e-08
-2.83184e-08
-2.84084e-06
-8.6428e-08
-2.14808e-08
-3.20047e-06
-1.0473e-07
-1.44094e-08
-3.57203e-06
-1.18559e-07
-7.55683e-09
-3.95532e-06
-1.24316e-09
-4.34476e-06
-1.26117e-07
-1.33561e-08
-5.5264e-08
-1.69305e-06
-3.55518e-08
-4.73556e-08
-2.14572e-06
-5.63509e-08
-4.13259e-08
-2.51666e-06
-7.53381e-08
-3.64565e-08
-2.87597e-06
-9.34924e-08
-3.17624e-08
-3.23882e-06
-1.11812e-07
-2.72155e-08
-3.60621e-06
-1.26863e-07
-2.27228e-08
-3.98912e-06
-1.85099e-08
-4.38118e-06
-1.35485e-07
-1.44402e-08
-6.08143e-08
-1.69376e-06
-3.83244e-08
-5.3808e-08
-2.14347e-06
-6.26892e-08
-4.91152e-08
-2.51071e-06
-8.49034e-08
-4.58816e-08
-2.87065e-06
-1.06752e-07
-4.3357e-08
-3.23355e-06
-1.26431e-07
-4.10268e-08
-3.60946e-06
-1.41187e-07
-3.87568e-08
-3.99911e-06
-3.66552e-08
-4.39606e-06
-1.48889e-07
-1.52266e-08
-6.55316e-08
-1.68808e-06
-3.98788e-08
-6.02287e-08
-2.13466e-06
-6.64196e-08
-5.74768e-08
-2.49728e-06
-9.2235e-08
-5.61533e-08
-2.85371e-06
-1.15959e-07
-5.54613e-08
-3.21963e-06
-1.35876e-07
-5.50496e-08
-3.59911e-06
-1.5014e-07
-5.48059e-08
-3.99091e-06
-5.46959e-08
-4.38912e-06
-1.56987e-07
-1.56485e-08
-6.87884e-08
-1.67559e-06
-4.09197e-08
-6.49931e-08
-2.12015e-06
-6.83604e-08
-6.40308e-08
-2.48024e-06
-9.50736e-08
-6.45336e-08
-2.83432e-06
-1.19209e-07
-6.56888e-08
-3.19847e-06
-1.39012e-07
-6.71918e-08
-3.57618e-06
-1.52786e-07
-6.88659e-08
-3.96598e-06
-7.05335e-08
-4.36187e-06
-1.58922e-07
-1.71787e-08
-1.6575e-06
-6.87554e-08
-4.37998e-08
-2.09962e-06
-6.63208e-08
-7.26036e-08
-2.45631e-06
-6.68615e-08
-1.00527e-07
-2.80643e-06
-6.8948e-08
-1.25516e-07
-3.16614e-06
-7.17887e-08
-1.45738e-07
-3.53887e-06
-7.50425e-08
-1.59475e-07
-3.92309e-06
-7.84422e-08
-4.31275e-06
-8.17063e-08
-1.65082e-07
-4.63117e-09
-3.5634e-08
-1.64116e-06
1.97536e-08
-2.09719e-08
-2.58381e-08
-2.07667e-06
1.02225e-08
-4.10521e-08
-1.76585e-08
-2.42955e-06
1.62688e-09
-6.23496e-08
-9.4652e-09
-2.77614e-06
-6.79046e-09
-8.31999e-08
-1.00244e-09
-3.13239e-06
-1.54506e-08
-1.0209e-07
7.7912e-09
-3.50234e-06
-2.41997e-08
-1.17185e-07
1.61558e-08
-3.88498e-06
-3.26429e-08
2.36983e-08
-4.27474e-06
-4.03103e-08
-1.26685e-07
-9.25538e-09
-4.74251e-08
-1.6571e-06
-2.85361e-08
-3.78489e-08
-2.09575e-06
-4.93401e-08
-3.06473e-08
-2.45489e-06
-7.05708e-08
-2.34673e-08
-2.80566e-06
-9.19171e-08
-1.60207e-08
-3.16416e-06
-1.11428e-07
-8.41394e-09
-3.53637e-06
-1.2704e-07
-1.18536e-09
-3.92243e-06
5.21302e-09
-4.31664e-06
-1.36761e-07
-1.85764e-08
-4.90632e-08
-1.67287e-06
-4.23732e-08
-4.07017e-08
-2.11912e-06
-6.02075e-08
-3.46123e-08
-2.49491e-06
-7.71798e-08
-2.9964e-08
-2.85255e-06
-9.51839e-08
-2.55345e-08
-3.21136e-06
-1.15411e-07
-2.12597e-08
-3.5732e-06
-1.32642e-07
-1.69478e-08
-3.95619e-06
-1.28784e-08
-4.35186e-06
-1.43948e-07
-1.83916e-08
-5.23646e-08
-1.6721e-06
-4.38844e-08
-4.58784e-08
-2.11284e-06
-6.74121e-08
-4.16773e-08
-2.48015e-06
-8.89458e-08
-3.91012e-08
-2.84002e-06
-1.11007e-07
-3.72602e-08
-3.19981e-06
-1.31768e-07
-3.5531e-08
-3.57448e-06
-1.48358e-07
-3.38027e-08
-3.96573e-06
-3.21574e-08
-4.36679e-06
-1.58412e-07
-1.84114e-08
-5.56402e-08
-1.66641e-06
-4.43733e-08
-5.18987e-08
-2.10271e-06
-7.11086e-08
-5.02263e-08
-2.46203e-06
-9.70123e-08
-4.97863e-08
-2.81715e-06
-1.21288e-07
-4.99577e-08
-3.1827e-06
-1.42299e-07
-5.03357e-08
-3.56334e-06
-1.58243e-07
-5.0801e-08
-3.95802e-06
-5.13051e-08
-4.36096e-06
-1.6733e-07
-1.84719e-08
-5.77512e-08
-1.65503e-06
-4.50355e-08
-5.63884e-08
-2.08912e-06
-7.3055e-08
-5.69252e-08
-2.44555e-06
-1.00287e-07
-5.85513e-08
-2.79835e-06
-1.25221e-07
-6.06973e-08
-3.16283e-06
-1.46266e-07
-6.30965e-08
-3.54242e-06
-1.61825e-07
-6.55728e-08
-3.9357e-06
-6.79348e-08
-4.33685e-06
-1.70283e-07
-1.92892e-08
-1.63877e-06
-5.72109e-08
-4.69431e-08
-2.07056e-06
-5.78268e-08
-7.6357e-08
-2.42373e-06
-6.01193e-08
-1.04912e-07
-2.77302e-06
-6.34442e-08
-1.30811e-07
-3.13367e-06
-6.7317e-08
-1.52403e-07
-3.50896e-06
-7.14681e-08
-1.6808e-07
-3.89739e-06
-7.56411e-08
-4.29309e-06
-7.95442e-08
-1.76198e-07
-7.59683e-09
-3.29484e-08
-1.6185e-06
1.78749e-08
-2.54962e-08
-2.14365e-08
-2.04338e-06
6.02141e-09
-4.63207e-08
-1.25268e-08
-2.39257e-06
-3.65291e-09
-6.82909e-08
-3.59502e-09
-2.73779e-06
-1.28057e-08
-9.01714e-08
5.5241e-09
-3.09404e-06
-2.20204e-08
-1.10409e-07
1.45629e-08
-3.46559e-06
-3.11106e-08
-1.27193e-07
2.30045e-08
-3.85149e-06
-3.97452e-08
3.05595e-08
-4.24632e-06
-4.75102e-08
-1.38719e-07
-1.27264e-08
-4.34934e-08
-1.63385e-06
-3.34143e-08
-3.2873e-08
-2.06365e-06
-5.40472e-08
-2.52133e-08
-2.4216e-06
-7.55585e-08
-1.74259e-08
-2.77035e-06
-9.7788e-08
-9.68544e-09
-3.12676e-06
-1.18504e-07
-2.00965e-09
-3.49912e-06
-1.35598e-07
5.02071e-09
-3.8874e-06
1.13362e-08
-4.28584e-06
-1.47223e-07
-2.35497e-08
-4.24135e-08
-1.65042e-06
-4.74738e-08
-3.38735e-08
-2.09423e-06
-6.17423e-08
-2.80375e-08
-2.47772e-06
-7.87013e-08
-2.39716e-08
-2.82908e-06
-9.7876e-08
-1.99025e-08
-3.182e-06
-1.20547e-07
-1.58433e-08
-3.53673e-06
-1.39495e-07
-1.17968e-08
-3.92047e-06
-7.97235e-09
-4.31944e-06
-1.52659e-07
-2.19455e-08
-4.46955e-08
-1.64789e-06
-4.84996e-08
-3.89128e-08
-2.08127e-06
-7.19925e-08
-3.53523e-08
-2.44937e-06
-9.21608e-08
-3.33113e-08
-2.81055e-06
-1.14929e-07
-3.22718e-08
-3.16471e-06
-1.36966e-07
-3.11088e-08
-3.53722e-06
-1.54926e-07
-2.98682e-08
-3.92974e-06
-2.86593e-08
-4.33432e-06
-1.66763e-07
-2.14001e-08
-4.75846e-08
-1.64214e-06
-4.83528e-08
-4.53105e-08
-2.06939e-06
-7.49017e-08
-4.46382e-08
-2.42622e-06
-1.00606e-07
-4.50215e-08
-2.77977e-06
-1.2535e-07
-4.59707e-08
-3.14429e-06
-1.47288e-07
-4.70322e-08
-3.52552e-06
-1.64634e-07
-4.81118e-08
-3.92247e-06
-4.91553e-08
-4.32955e-06
-1.75597e-07
-2.11152e-08
-4.95843e-08
-1.63193e-06
-4.86475e-08
-5.03339e-08
-2.05659e-06
-7.68144e-08
-5.21391e-08
-2.40991e-06
-1.04274e-07
-5.47457e-08
-2.76119e-06
-1.29787e-07
-5.77452e-08
-3.12557e-06
-1.51836e-07
-6.0894e-08
-3.50654e-06
-1.6889e-07
-6.40265e-08
-3.90277e-06
-6.69538e-08
-4.30866e-06
-1.79331e-07
-2.1392e-08
-1.61753e-06
-4.94508e-08
-4.98576e-08
-2.03979e-06
-5.26564e-08
-7.96059e-08
-2.38973e-06
-5.64092e-08
-1.0855e-07
-2.73806e-06
-6.07824e-08
-1.35127e-07
-3.09934e-06
-6.55166e-08
-1.5783e-07
-3.47678e-06
-7.03949e-08
-1.75143e-07
-3.86897e-06
-7.51765e-08
-4.27023e-06
-7.9578e-08
-1.85423e-07
-1.06867e-08
-2.79321e-08
-1.59324e-06
1.3354e-08
-2.99101e-08
-1.51649e-08
-2.00872e-06
-2.76674e-10
-5.12323e-08
-5.80819e-09
-2.35506e-06
-1.03814e-08
-7.36292e-08
3.49164e-09
-2.69905e-06
-1.9841e-08
-9.6359e-08
1.26855e-08
-3.0549e-06
-2.90967e-08
-1.17671e-07
2.13536e-08
-3.42761e-06
-3.80336e-08
-1.35818e-07
2.93822e-08
-3.81635e-06
-4.63926e-08
3.6534e-08
-4.21585e-06
-5.38366e-08
-1.48997e-07
-1.58647e-08
-3.7755e-08
-1.60817e-06
-3.75189e-08
-2.63653e-08
-2.0308e-06
-5.82236e-08
-1.83734e-08
-2.38833e-06
-8.00771e-08
-1.03663e-08
-2.73464e-06
-1.02973e-07
-2.78679e-09
-3.08839e-06
-1.24409e-07
4.20983e-09
-3.46055e-06
-1.42506e-07
1.07207e-08
-3.85065e-06
1.66007e-08
-4.25293e-06
-1.55501e-07
-2.66554e-08
-3.57818e-08
-1.62574e-06
-4.97111e-08
-2.74793e-08
-2.07006e-06
-6.24774e-08
-2.21142e-08
-2.46121e-06
-7.90614e-08
-1.8382e-08
-2.80449e-06
-1.04658e-07
-1.52572e-08
-3.14394e-06
-1.27312e-07
-1.1324e-08
-3.49856e-06
-1.46401e-07
-7.58772e-09
-3.88309e-06
-4.13839e-09
-4.285e-06
-1.6013e-07
-2.42096e-08
-3.82619e-08
-1.62121e-06
-5.07364e-08
-3.34506e-08
-2.04878e-06
-7.41698e-08
-3.07689e-08
-2.4173e-06
-9.52106e-08
-2.92723e-08
-2.77863e-06
-1.19149e-07
-2.87996e-08
-3.12724e-06
-1.41378e-07
-2.79739e-08
-3.49836e-06
-1.59711e-07
-2.70934e-08
-3.89192e-06
-2.6266e-08
-4.29954e-06
-1.72385e-07
-2.37914e-08
-4.15037e-08
-1.61512e-06
-5.11321e-08
-4.06021e-08
-2.0349e-06
-7.72217e-08
-4.08637e-08
-2.39004e-06
-1.02398e-07
-4.19446e-08
-2.74193e-06
-1.2731e-07
-4.34569e-08
-3.10473e-06
-1.49734e-07
-4.50223e-08
-3.48606e-06
-1.67914e-07
-4.65645e-08
-3.88484e-06
-4.80296e-08
-4.29561e-06
-1.80113e-07
-2.32769e-08
-4.41113e-08
-1.60605e-06
-5.12342e-08
-4.65991e-08
-2.02264e-06
-7.89364e-08
-4.94056e-08
-2.37367e-06
-1.06094e-07
-5.27867e-08
-2.7232e-06
-1.31768e-07
-5.64356e-08
-3.08693e-06
-1.54367e-07
-6.01264e-08
-3.46885e-06
-1.72396e-07
-6.37141e-08
-3.86761e-06
-6.70277e-08
-4.27783e-06
-1.84245e-07
-2.31364e-08
-1.59343e-06
-4.50739e-08
-5.19443e-08
-2.00727e-06
-5.0315e-08
-8.14777e-08
-2.35444e-06
-5.51654e-08
-1.10359e-07
-2.70165e-06
-6.03239e-08
-1.37177e-07
-3.0633e-06
-6.567e-08
-1.60521e-07
-3.44255e-06
-7.10279e-08
-1.78946e-07
-3.83809e-06
-7.61801e-08
-4.24453e-06
-8.08697e-08
-1.90814e-07
-1.35353e-08
-2.0706e-08
-1.56549e-06
6.49531e-09
-3.38817e-08
-7.24318e-09
-1.97327e-06
-7.84481e-09
-5.52394e-08
2.21013e-09
-2.31788e-06
-1.80211e-08
-7.75742e-08
1.13717e-08
-2.6609e-06
-2.71704e-08
-1.00667e-07
1.97334e-08
-3.01562e-06
-3.59074e-08
-1.22597e-07
2.7483e-08
-3.38898e-06
-4.4168e-08
-1.41593e-07
3.46072e-08
-3.78018e-06
-5.17617e-08
4.09267e-08
-4.18406e-06
-5.84401e-08
-1.55861e-07
-1.81998e-08
-3.02449e-08
-1.58042e-06
-4.02466e-08
-1.84181e-08
-1.99755e-06
-6.17678e-08
-1.03894e-08
-2.35419e-06
-8.36487e-08
-2.65921e-09
-2.69871e-06
-1.06726e-07
3.90897e-09
-3.04947e-06
-1.28271e-07
9.77719e-09
-3.42128e-06
-1.46698e-07
1.53753e-08
-3.81298e-06
2.04511e-08
-4.21882e-06
-1.60323e-07
-2.69228e-08
-2.96697e-08
-1.59939e-06
-4.89504e-08
-2.21284e-08
-2.04429e-06
-6.17928e-08
-1.73234e-08
-2.44153e-06
-8.46551e-08
-1.41816e-08
-2.77009e-06
-1.11989e-07
-1.12651e-08
-3.10142e-06
-1.33456e-07
-7.77741e-09
-3.45952e-06
-1.51606e-07
-4.52777e-09
-3.84502e-06
-1.60921e-09
-4.24966e-06
-1.64867e-07
-2.49323e-08
-3.32878e-08
-1.59265e-06
-5.02764e-08
-2.96616e-08
-2.01588e-06
-7.34518e-08
-2.81407e-08
-2.38329e-06
-9.86561e-08
-2.73701e-08
-2.74022e-06
-1.22613e-07
-2.67196e-08
-3.08782e-06
-1.4379e-07
-2.59975e-08
-3.45895e-06
-1.61612e-07
-2.54037e-08
-3.85321e-06
-2.49273e-08
-4.2636e-06
-1.7423e-07
-2.53419e-08
-3.73826e-08
-1.58568e-06
-5.25555e-08
-3.77128e-08
-1.99962e-06
-7.73265e-08
-3.87553e-08
-2.35465e-06
-1.02565e-07
-4.03909e-08
-2.70366e-06
-1.2703e-07
-4.22049e-08
-3.06477e-06
-1.49248e-07
-4.40503e-08
-3.44578e-06
-1.67507e-07
-4.5875e-08
-3.8461e-06
-4.76178e-08
-4.26027e-06
-1.80142e-07
-2.47689e-08
-4.10664e-08
-1.5776e-06
-5.25265e-08
-4.48781e-08
-1.9877e-06
-7.90729e-08
-4.83982e-08
-2.33747e-06
-1.05518e-07
-5.22881e-08
-2.68485e-06
-1.30788e-07
-5.63085e-08
-3.04755e-06
-1.5334e-07
-6.02765e-08
-3.43007e-06
-1.71671e-07
-6.40707e-08
-3.83107e-06
-6.75475e-08
-4.24536e-06
-1.84203e-07
-2.43275e-08
-1.56659e-06
-4.35792e-08
-5.2885e-08
-1.97335e-06
-5.02264e-08
-8.15389e-08
-2.31842e-06
-5.57556e-08
-1.09813e-07
-2.66428e-06
-6.13739e-08
-1.36339e-07
-3.02605e-06
-6.70167e-08
-1.59735e-07
-3.40687e-06
-7.25434e-08
-1.7861e-07
-3.80551e-06
-7.77685e-08
-4.21686e-06
-8.24765e-08
-1.91348e-07
-1.59548e-08
-1.18587e-08
-1.53565e-06
-2.02476e-09
-3.68128e-08
1.53997e-09
-1.93776e-06
-1.61452e-08
-5.80772e-08
1.0977e-08
-2.28182e-06
-2.57365e-08
-7.97931e-08
1.87823e-08
-2.62395e-06
-3.39836e-08
-1.02628e-07
2.5813e-08
-2.97691e-06
-4.1652e-08
-1.24612e-07
3.22352e-08
-3.35044e-06
-4.87501e-08
-1.43829e-07
3.80568e-08
-3.74385e-06
-5.51307e-08
4.31678e-08
-4.15189e-06
-6.06269e-08
-1.58493e-07
-1.9749e-08
-2.15047e-08
-1.55101e-06
-4.16301e-08
-1.00637e-08
-1.96402e-06
-6.35238e-08
-1.87888e-09
-2.31939e-06
-8.55745e-08
4.15567e-09
-2.66199e-06
-1.08488e-07
9.32671e-09
-3.01003e-06
-1.29602e-07
1.40633e-08
-3.38195e-06
-1.47662e-07
1.84852e-08
-3.7753e-06
2.24664e-08
-4.18459e-06
-1.61137e-07
-2.44626e-08
-2.43489e-08
-1.57205e-06
-4.20464e-08
-1.76591e-08
-2.01907e-06
-6.4499e-08
-1.42345e-08
-2.40683e-06
-9.12626e-08
-1.11882e-08
-2.72794e-06
-1.15974e-07
-8.23542e-09
-3.0591e-06
-1.36753e-07
-5.3515e-09
-3.41928e-06
-1.53711e-07
-2.75626e-09
-3.80678e-06
-4.98989e-10
-4.21447e-06
-1.65896e-07
-2.47081e-08
-2.95722e-08
-1.56269e-06
-4.87079e-08
-2.7114e-08
-1.98238e-06
-7.30651e-08
-2.65175e-08
-2.34661e-06
-9.8787e-08
-2.59908e-08
-2.69965e-06
-1.2256e-07
-2.53802e-08
-3.04686e-06
-1.4311e-07
-2.48937e-08
-3.41882e-06
-1.60005e-07
-2.46048e-08
-3.81443e-06
-2.44805e-08
-4.22767e-06
-1.71914e-07
-2.5752e-08
-3.49599e-08
-1.55452e-06
-5.20213e-08
-3.63211e-08
-1.96411e-06
-7.66634e-08
-3.80247e-08
-2.31846e-06
-1.00581e-07
-3.98418e-08
-2.66585e-06
-1.24605e-07
-4.17948e-08
-3.0243e-06
-1.45954e-07
-4.37477e-08
-3.40554e-06
-1.63515e-07
-4.56844e-08
-3.80742e-06
-4.75532e-08
-4.22489e-06
-1.75784e-07
-2.53896e-08
-4.00532e-08
-1.5471e-06
-5.23564e-08
-4.47694e-08
-1.95225e-06
-7.74377e-08
-4.86644e-08
-2.30172e-06
-1.02731e-07
-5.27716e-08
-2.64659e-06
-1.27144e-07
-5.68568e-08
-3.00804e-06
-1.48985e-07
-6.0804e-08
-3.39114e-06
-1.66886e-07
-6.45272e-08
-3.79429e-06
-6.79157e-08
-4.21251e-06
-1.79335e-07
-2.48524e-08
-1.53744e-06
-4.43382e-08
-5.25399e-08
-1.93867e-06
-5.17357e-08
-7.98029e-08
-2.28227e-06
-5.7526e-08
-1.0695e-07
-2.62665e-06
-6.32209e-08
-1.32638e-07
-2.98839e-06
-6.87972e-08
-1.55464e-07
-3.37067e-06
-7.41448e-08
-1.74088e-07
-3.77227e-06
-7.91111e-08
-4.18836e-06
-8.3531e-08
-1.86939e-07
-1.78325e-08
-2.41112e-09
-1.5044e-06
-1.09942e-08
-3.89147e-08
1.03088e-08
-1.90275e-06
-2.41744e-08
-5.89183e-08
1.86383e-08
-2.24791e-06
-3.24919e-08
-8.0238e-08
2.49543e-08
-2.58812e-06
-3.9412e-08
-1.02487e-07
3.02572e-08
-2.93923e-06
-4.56315e-08
-1.23936e-07
3.50377e-08
-3.31278e-06
-5.11838e-08
-1.42651e-07
3.92806e-08
-3.70836e-06
-5.59918e-08
4.29086e-08
-4.12047e-06
-5.99662e-08
-1.56943e-07
-2.03304e-08
-1.25291e-08
-1.52052e-06
-4.14512e-08
-2.09758e-09
-1.93042e-06
-6.28494e-08
4.84956e-09
-2.28415e-06
-8.62002e-08
9.30883e-09
-2.62293e-06
-1.08272e-07
1.31688e-08
-2.97081e-06
-1.28374e-07
1.66146e-08
-3.34336e-06
-1.45433e-07
1.97164e-08
-3.73861e-06
2.24301e-08
-4.15141e-06
-1.58069e-07
-2.075e-08
-1.97375e-08
-1.54406e-06
-3.81757e-08
-1.41653e-08
-1.98951e-06
-6.75221e-08
-1.15185e-08
-2.36106e-06
-9.30668e-08
-8.49545e-09
-2.68452e-06
-1.17054e-07
-6.17487e-09
-3.01571e-06
-1.36761e-07
-4.05507e-09
-3.37884e-06
-1.52265e-07
-2.2448e-09
-3.76925e-06
-7.70697e-10
-4.18042e-06
-1.63038e-07
-2.35136e-08
-2.6773e-08
-1.53211e-06
-4.63466e-08
-2.53689e-08
-1.94828e-06
-7.05772e-08
-2.52792e-08
-2.30856e-06
-9.67712e-08
-2.50424e-08
-2.65685e-06
-1.19995e-07
-2.46481e-08
-3.0051e-06
-1.39495e-07
-2.44482e-08
-3.37886e-06
-1.55076e-07
-2.44763e-08
-3.77655e-06
-2.4699e-08
-4.19294e-06
-1.65807e-07
-2.48568e-08
-3.37583e-08
-1.52264e-06
-4.97916e-08
-3.58948e-08
-1.92858e-06
-7.36694e-08
-3.79465e-08
-2.28186e-06
-9.77462e-08
-3.99183e-08
-2.62684e-06
-1.20386e-07
-4.1805e-08
-2.98444e-06
-1.40265e-07
-4.37049e-08
-3.36634e-06
-1.56493e-07
-4.56064e-08
-3.77e-06
-4.74562e-08
-4.19081e-06
-1.67747e-07
-2.48023e-08
-4.05241e-08
-1.51549e-06
-5.02886e-08
-4.57176e-08
-1.91689e-06
-7.43222e-08
-4.97915e-08
-2.26578e-06
-9.84626e-08
-5.37287e-08
-2.60859e-06
-1.21546e-07
-5.75461e-08
-2.96916e-06
-1.42029e-07
-6.11743e-08
-3.35312e-06
-1.58813e-07
-6.45526e-08
-3.7585e-06
-6.76007e-08
-4.18062e-06
-1.70495e-07
-2.4573e-08
-1.50677e-06
-4.6584e-08
-5.09767e-08
-1.9038e-06
-5.41197e-08
-7.64616e-08
-2.24679e-06
-5.97345e-08
-1.02268e-07
-2.58936e-06
-6.51564e-08
-1.26628e-07
-2.95123e-06
-7.02995e-08
-1.48295e-07
-3.33501e-06
-7.51177e-08
-1.66016e-07
-3.73954e-06
-7.94958e-08
-4.1603e-06
-8.33186e-08
-1.78296e-07
-1.85719e-08
6.50794e-09
-1.47266e-06
-1.96479e-08
-3.88501e-08
1.754e-08
-1.86888e-06
-3.10536e-08
-5.90339e-08
2.4291e-08
-2.21421e-06
-3.77287e-08
-7.88572e-08
2.90271e-08
-2.55448e-06
-4.27628e-08
-1.00954e-07
3.24754e-08
-2.90219e-06
-4.73421e-08
-1.21268e-07
3.55171e-08
-3.27679e-06
-5.11185e-08
-1.38746e-07
3.80692e-08
-3.67474e-06
-5.4122e-08
4.008e-08
-4.09094e-06
-5.63525e-08
-1.51919e-07
-1.98108e-08
-4.47545e-09
-1.48967e-06
-3.95361e-08
4.49525e-09
-1.89757e-06
-6.11345e-08
9.54885e-09
-2.24773e-06
-8.48653e-08
1.27949e-08
-2.58289e-06
-1.05981e-07
1.52039e-08
-2.93234e-06
-1.2477e-07
1.72535e-08
-3.30623e-06
-1.40422e-07
1.89789e-08
-3.70378e-06
2.03645e-08
-4.12026e-06
-1.51751e-07
-1.70318e-08
-1.56131e-08
-1.51584e-06
-3.73286e-08
-1.13532e-08
-1.95328e-06
-6.517e-08
-8.99345e-09
-2.31447e-06
-9.28691e-08
-6.77432e-09
-2.63718e-06
-1.15422e-07
-5.18962e-09
-2.97268e-06
-1.33532e-07
-3.88241e-09
-3.33951e-06
-1.4746e-07
-2.91083e-09
-3.73334e-06
-2.27888e-09
-4.14843e-06
-1.56714e-07
-2.1543e-08
-2.45259e-08
-1.50161e-06
-4.28183e-08
-2.39995e-08
-1.91428e-06
-6.6818e-08
-2.43319e-08
-2.26914e-06
-9.37059e-08
-2.44628e-08
-2.6122e-06
-1.15237e-07
-2.43191e-08
-2.96436e-06
-1.3318e-07
-2.44078e-08
-3.34031e-06
-1.47284e-07
-2.47502e-08
-3.74052e-06
-2.52999e-08
-4.16043e-06
-1.56676e-07
-2.27827e-08
-3.32865e-08
-1.49105e-06
-4.59103e-08
-3.58706e-08
-1.8935e-06
-6.93662e-08
-3.80807e-08
-2.24458e-06
-9.37679e-08
-4.00847e-08
-2.58675e-06
-1.14439e-07
-4.17817e-08
-2.94623e-06
-1.32534e-07
-4.35204e-08
-3.32905e-06
-1.47124e-07
-4.52669e-08
-3.73481e-06
-4.69708e-08
-4.15914e-06
-1.57027e-07
-2.30137e-08
-4.18506e-08
-1.48387e-06
-4.67441e-08
-4.70631e-08
-1.88188e-06
-6.9931e-08
-5.09681e-08
-2.22964e-06
-9.32838e-08
-5.45332e-08
-2.57071e-06
-1.14508e-07
-5.78092e-08
-2.93183e-06
-1.33213e-07
-6.08789e-08
-3.31698e-06
-1.48434e-07
-6.36877e-08
-3.72478e-06
-6.61791e-08
-4.15086e-06
-1.58894e-07
-2.33135e-08
-1.47571e-06
-4.95564e-08
-4.80862e-08
-1.86938e-06
-5.6636e-08
-7.22005e-08
-2.21183e-06
-6.17416e-08
-9.64331e-08
-2.55309e-06
-6.65058e-08
-1.19073e-07
-2.91543e-06
-7.0891e-08
-1.39111e-07
-3.3009e-06
-7.48764e-08
-1.55422e-07
-3.70846e-06
-7.83806e-08
-4.13386e-06
-8.13357e-08
-1.66615e-07
-1.81037e-08
1.40253e-08
-1.44153e-06
-2.70247e-08
-3.71099e-08
2.27093e-08
-1.83649e-06
-3.59895e-08
-5.6457e-08
2.74047e-08
-2.18147e-06
-4.07029e-08
-7.80192e-08
3.0148e-08
-2.51894e-06
-4.40408e-08
-9.87056e-08
3.21837e-08
-2.867e-06
-4.65953e-08
-1.17278e-07
3.36117e-08
-3.24327e-06
-4.8456e-08
-1.32937e-07
3.45146e-08
-3.64391e-06
-4.95866e-08
3.49193e-08
-4.06425e-06
-5.0008e-08
-1.44422e-07
-1.84633e-08
2.01479e-09
-1.45913e-06
-3.72845e-08
8.91102e-09
-1.86485e-06
-5.89889e-08
1.24467e-08
-2.21097e-06
-8.18032e-08
1.41691e-08
-2.544e-06
-1.01927e-07
1.52317e-08
-2.89516e-06
-1.19289e-07
1.59939e-08
-3.27114e-06
-1.33358e-07
1.64294e-08
-3.67152e-06
1.65428e-08
-4.09198e-06
-1.43146e-07
-1.42823e-08
-1.1973e-08
-1.48751e-06
-3.3622e-08
-8.85395e-09
-1.91608e-06
-6.25856e-08
-7.46738e-09
-2.26531e-06
-8.98119e-08
-6.12896e-09
-2.58956e-06
-1.10649e-07
-5.18814e-09
-2.93133e-06
-1.27335e-07
-4.67359e-09
-3.30206e-06
-1.39873e-07
-4.52324e-09
-3.69974e-06
-4.69589e-09
-4.11919e-06
-1.47753e-07
-1.94669e-08
-2.26998e-08
-1.47135e-06
-4.01629e-08
-2.28692e-08
-1.87947e-06
-6.29713e-08
-2.33021e-08
-2.23041e-06
-8.77806e-08
-2.38359e-08
-2.56959e-06
-1.08107e-07
-2.40996e-08
-2.92503e-06
-1.24717e-07
-2.45144e-08
-3.30376e-06
-1.37446e-07
-2.51461e-08
-3.70706e-06
-2.59703e-08
-4.13093e-06
-1.45557e-07
-2.01959e-08
-3.31237e-08
-1.46037e-06
-4.13417e-08
-3.58156e-08
-1.85932e-06
-6.53536e-08
-3.79647e-08
-2.20582e-06
-8.75347e-08
-3.97604e-08
-2.54855e-06
-1.0686e-07
-4.13371e-08
-2.90957e-06
-1.23278e-07
-4.28604e-08
-3.29419e-06
-1.36242e-07
-4.43535e-08
-3.70254e-06
-4.58014e-08
-4.13069e-06
-1.44749e-07
-2.04465e-08
-4.34224e-08
-1.45307e-06
-4.21333e-08
-4.81496e-08
-1.84777e-06
-6.52708e-08
-5.15913e-08
-2.19279e-06
-8.7026e-08
-5.45469e-08
-2.53409e-06
-1.0638e-07
-5.71542e-08
-2.89657e-06
-1.23229e-07
-5.95161e-08
-3.28338e-06
-1.36745e-07
-6.15972e-08
-3.69392e-06
-6.33715e-08
-4.12412e-06
-1.45801e-07
-2.12438e-08
-1.44526e-06
-5.2575e-08
-4.41187e-08
-1.83596e-06
-5.86092e-08
-6.75374e-08
-2.177e-06
-6.29197e-08
-8.99798e-08
-2.5184e-06
-6.67034e-08
-1.1066e-07
-2.88174e-06
-7.00793e-08
-1.28804e-07
-3.26917e-06
-7.30077e-08
-1.43411e-07
-3.67993e-06
-7.54295e-08
-4.11e-06
-7.73188e-08
-1.5322e-07
-1.68592e-08
1.95542e-08
-1.4119e-06
-3.22927e-08
-3.48097e-08
2.54218e-08
-1.80552e-06
-3.83241e-08
-5.41362e-08
2.79598e-08
-2.14903e-06
-4.09806e-08
-7.71891e-08
2.90166e-08
-2.48212e-06
-4.2677e-08
-9.58012e-08
2.9662e-08
-2.83463e-06
-4.33051e-08
-1.12377e-07
2.96179e-08
-3.21285e-06
-4.33534e-08
-1.25952e-07
2.90122e-08
-3.61651e-06
-4.27232e-08
2.79408e-08
-4.04111e-06
-4.14416e-08
-1.35458e-07
-1.68693e-08
6.88673e-09
-1.42952e-06
-3.53259e-08
1.12021e-08
-1.83205e-06
-5.66451e-08
1.29872e-08
-2.17458e-06
-7.83049e-08
1.34914e-08
-2.50671e-06
-9.70583e-08
1.35104e-08
-2.86015e-06
-1.12837e-07
1.31646e-08
-3.2388e-06
-1.2521e-07
1.24658e-08
-3.64248e-06
1.14538e-08
-4.06722e-06
-1.3336e-07
-1.23898e-08
-9.12286e-09
-1.45905e-06
-3.15066e-08
-7.21763e-09
-1.87843e-06
-5.88887e-08
-6.64351e-09
-2.21838e-06
-8.43563e-08
-6.20243e-09
-2.5443e-06
-1.03955e-07
-5.99343e-09
-2.89212e-06
-1.19374e-07
-6.18862e-09
-3.26718e-06
-1.30647e-07
-6.74695e-09
-3.66915e-06
-7.60894e-09
-4.09334e-06
-1.37309e-07
-1.70682e-08
-2.14502e-08
-1.44189e-06
-3.71012e-08
-2.21527e-08
-1.8444e-06
-5.95114e-08
-2.27901e-08
-2.19176e-06
-8.13647e-08
-2.33702e-08
-2.53047e-06
-1.00125e-07
-2.39177e-08
-2.88824e-06
-1.15322e-07
-2.45726e-08
-3.27007e-06
-1.26717e-07
-2.54006e-08
-3.6769e-06
-2.64002e-08
-4.10509e-06
-1.33643e-07
-1.78805e-08
-3.30052e-08
-1.43087e-06
-3.77546e-08
-3.5524e-08
-1.82597e-06
-5.99567e-08
-3.72927e-08
-2.16902e-06
-8.04534e-08
-3.89147e-08
-2.51241e-06
-9.83712e-08
-4.02662e-08
-2.87521e-06
-1.13296e-07
-4.1487e-08
-3.26225e-06
-1.24786e-07
-4.2636e-08
-3.6737e-06
-4.37314e-08
-4.10601e-06
-1.32014e-07
-1.77747e-08
-4.46843e-08
-1.42355e-06
-3.74834e-08
-4.85006e-08
-1.81498e-06
-6.00139e-08
-5.12241e-08
-2.15623e-06
-7.99416e-08
-5.34348e-08
-2.49954e-06
-9.76665e-08
-5.52935e-08
-2.86372e-06
-1.12789e-07
-5.68483e-08
-3.2528e-06
-1.24665e-07
-5.80978e-08
-3.66647e-06
-5.90541e-08
-4.101e-06
-1.32346e-07
-1.88914e-08
-1.41603e-06
-5.49587e-08
-3.9804e-08
-1.80401e-06
-5.94343e-08
-6.24702e-08
-2.14276e-06
-6.27028e-08
-8.30645e-08
-2.48583e-06
-6.53236e-08
-1.01842e-07
-2.85061e-06
-6.75455e-08
-1.18092e-07
-3.24038e-06
-6.9292e-08
-1.30938e-07
-3.65455e-06
-7.05181e-08
-4.08935e-06
-7.12366e-08
-1.39282e-07
-1.57874e-08
2.28592e-08
-1.38403e-06
-3.49e-08
-3.26669e-08
2.59584e-08
-1.77666e-06
-3.78237e-08
-5.39752e-08
2.64039e-08
-2.1155e-06
-3.8518e-08
-7.46983e-08
2.61582e-08
-2.44897e-06
-3.84825e-08
-9.22932e-08
2.53857e-08
-2.80459e-06
-3.77234e-08
-1.06963e-07
2.40341e-08
-3.18584e-06
-3.62616e-08
-1.18419e-07
2.21478e-08
-3.59296e-06
-3.41207e-08
1.98336e-08
-4.02198e-06
-3.13799e-08
-1.25882e-07
-1.51027e-08
9.7279e-09
-1.40121e-06
-3.34691e-08
1.16364e-08
-1.79925e-06
-5.50109e-08
1.19319e-08
-2.13845e-06
-7.49607e-08
1.13991e-08
-2.47189e-06
-9.21401e-08
1.05231e-08
-2.828e-06
-1.06198e-07
9.25779e-09
-3.20985e-06
-1.16808e-07
7.6334e-09
-3.61724e-06
5.71408e-09
-4.04647e-06
-1.23309e-07
-1.10197e-08
-7.3378e-09
-1.43089e-06
-3.02421e-08
-6.7214e-09
-1.84075e-06
-5.62643e-08
-6.77762e-09
-2.17374e-06
-7.86311e-08
-6.97302e-09
-2.50346e-06
-9.6987e-08
-7.37883e-09
-2.85576e-06
-1.10997e-07
-8.11059e-09
-3.23569e-06
-1.20964e-07
-9.18858e-09
-3.64224e-06
-1.05574e-08
-4.07143e-06
-1.26484e-07
-1.49088e-08
-2.06527e-08
-1.4136e-06
-3.35014e-08
-2.1678e-08
-1.81074e-06
-5.62598e-08
-2.25088e-08
-2.15317e-06
-7.52175e-08
-2.29432e-08
-2.49545e-06
-9.2133e-08
-2.35751e-08
-2.85503e-06
-1.05863e-07
-2.43384e-08
-3.24001e-06
-1.15991e-07
-2.52388e-08
-3.65061e-06
-2.62886e-08
-4.08336e-06
-1.21864e-07
-1.59054e-08
-3.27946e-08
-1.40276e-06
-3.44376e-08
-3.48782e-08
-1.79413e-06
-5.4639e-08
-3.62365e-08
-2.13499e-06
-7.34234e-08
-3.74471e-08
-2.47903e-06
-8.98367e-08
-3.84112e-08
-2.84386e-06
-1.0338e-07
-3.92306e-08
-3.23371e-06
-1.13561e-07
-3.99523e-08
-3.6487e-06
-4.06166e-08
-4.08545e-06
-1.19675e-07
-1.55639e-08
-4.52318e-08
-1.39549e-06
-3.38264e-08
-4.78296e-08
-1.78366e-06
-5.42371e-08
-4.96251e-08
-2.12234e-06
-7.26744e-08
-5.10343e-08
-2.46742e-06
-8.89093e-08
-5.20719e-08
-2.83372e-06
-1.02505e-07
-5.27636e-08
-3.22556e-06
-1.12914e-07
-5.31364e-08
-3.64277e-06
-5.32363e-08
-4.08182e-06
-1.19356e-07
-1.67611e-08
-1.38829e-06
-5.61439e-08
-3.6016e-08
-1.77377e-06
-5.87144e-08
-5.69681e-08
-2.11065e-06
-6.06885e-08
-7.59718e-08
-2.45562e-06
-6.21421e-08
-9.30426e-08
-2.82234e-06
-6.31712e-08
-1.07537e-07
-3.21484e-06
-6.37018e-08
-1.18712e-07
-3.6327e-06
-6.37127e-08
-4.07228e-06
-6.32522e-08
-1.25653e-07
-1.47013e-08
2.38619e-08
-1.35844e-06
-3.47103e-08
-3.23997e-08
2.42101e-08
-1.74841e-06
-3.46484e-08
-5.37938e-08
2.31268e-08
-2.0835e-06
-3.36363e-08
-7.25835e-08
2.17048e-08
-2.41934e-06
-3.24382e-08
-8.85555e-08
1.9833e-08
-2.77784e-06
-3.05055e-08
-1.01306e-07
1.74567e-08
-3.1626e-06
-2.78411e-08
-1.10702e-07
1.45949e-08
-3.57353e-06
-2.45203e-08
1.13497e-08
-4.00704e-06
-2.06575e-08
-1.16216e-07
-1.35333e-08
1.10088e-08
-1.37474e-06
-3.21742e-08
1.07206e-08
-1.76701e-06
-5.35886e-08
9.65194e-09
-2.10347e-06
-7.17966e-08
8.39343e-09
-2.44028e-06
-8.72515e-08
6.76427e-09
-2.79938e-06
-9.9603e-08
4.81155e-09
-3.18475e-06
-1.08525e-07
2.52362e-09
-3.59614e-06
-6.98883e-11
-4.02999e-06
-1.13467e-07
-1.02671e-08
-6.85276e-09
-1.4027e-06
-3.04399e-08
-7.25392e-09
-1.8025e-06
-5.40121e-08
-7.67084e-09
-2.13257e-06
-7.4035e-08
-8.13975e-09
-2.46681e-06
-9.02413e-08
-8.91185e-09
-2.82378e-06
-1.02763e-07
-9.99893e-09
-3.20826e-06
-1.11449e-07
-1.13984e-08
-3.61954e-06
-1.30672e-08
-4.05383e-06
-1.15937e-07
-1.37385e-08
-2.01145e-08
-1.38654e-06
-3.17792e-08
-2.1167e-08
-1.77869e-06
-5.17341e-08
-2.17519e-08
-2.11904e-06
-6.95986e-08
-2.22562e-08
-2.46337e-06
-8.46523e-08
-2.28339e-08
-2.82596e-06
-9.68811e-08
-2.35498e-08
-3.21413e-06
-1.05836e-07
-2.43903e-08
-3.62857e-06
-2.53618e-08
-4.06602e-06
-1.10777e-07
-1.43472e-08
-3.22369e-08
-1.37622e-06
-3.14968e-08
-3.36473e-08
-1.7644e-06
-4.9964e-08
-3.45108e-08
-2.10368e-06
-6.69861e-08
-3.51643e-08
-2.449e-06
-8.1917e-08
-3.56339e-08
-2.81603e-06
-9.41334e-08
-3.59704e-08
-3.20898e-06
-1.03103e-07
-3.62003e-08
-3.62782e-06
-3.63787e-08
-4.06921e-06
-1.08222e-07
-1.38554e-08
-4.47857e-08
-1.36902e-06
-3.07646e-08
-4.59549e-08
-1.75435e-06
-4.89692e-08
-4.67579e-08
-2.0918e-06
-6.58853e-08
-4.7276e-08
-2.4383e-06
-8.06827e-08
-4.74451e-08
-2.80702e-06
-9.28733e-08
-4.72638e-08
-3.20198e-06
-1.01946e-07
-4.6768e-08
-3.62303e-06
-4.60299e-08
-4.06673e-06
-1.07276e-07
-1.50646e-08
-1.36218e-06
-5.57751e-08
-3.29617e-08
-1.74544e-06
-5.62893e-08
-5.16977e-08
-2.08173e-06
-5.68543e-08
-6.92432e-08
-2.4281e-06
-5.71637e-08
-8.47042e-08
-2.79721e-06
-5.7022e-08
-9.75468e-08
-3.19279e-06
-5.63732e-08
-1.07146e-07
-3.61454e-06
-5.52287e-08
-4.0589e-06
-5.36649e-08
-1.12779e-07
-1.39071e-08
2.27907e-08
-1.33517e-06
-3.21127e-08
-3.26739e-08
2.06085e-08
-1.72072e-06
-2.94348e-08
-5.31041e-08
1.85077e-08
-2.05408e-06
-2.74116e-08
-7.01284e-08
1.629e-08
-2.39331e-06
-2.52185e-08
-8.4286e-08
1.36564e-08
-2.75491e-06
-2.23538e-08
-9.52308e-08
1.05674e-08
-3.14331e-06
-1.88227e-08
-1.0277e-07
7.05836e-09
-3.55827e-06
-1.4696e-08
3.22482e-09
-3.99629e-06
-1.00952e-08
-1.06562e-07
-1.28986e-08
1.10012e-08
-1.34999e-06
-3.11315e-08
8.94313e-09
-1.73702e-06
-5.13191e-08
6.86419e-09
-2.07156e-06
-6.8195e-08
4.97648e-09
-2.41201e-06
-8.21462e-08
2.82833e-09
-2.77452e-06
-9.29305e-08
4.0153e-10
-3.16372e-06
-1.00323e-07
-2.24656e-09
-3.57936e-06
-5.14439e-09
-4.01791e-06
-1.03946e-07
-1.02398e-08
-6.94475e-09
-1.37445e-06
-3.10862e-08
-7.9284e-09
-1.7647e-06
-5.16295e-08
-8.43114e-09
-2.09665e-06
-6.96178e-08
-9.13053e-09
-2.43464e-06
-8.3881e-08
-1.01611e-08
-2.79645e-06
-9.49105e-08
-1.14081e-08
-3.18534e-06
-1.02341e-07
-1.29336e-08
-3.60134e-06
-1.47e-08
-4.04071e-06
-1.05814e-07
-1.29565e-08
-1.95614e-08
-1.36091e-06
-3.01999e-08
-2.03782e-08
-1.74891e-06
-4.80888e-08
-2.07314e-08
-2.08878e-06
-6.49699e-08
-2.10699e-08
-2.4343e-06
-7.78703e-08
-2.14245e-08
-2.80172e-06
-8.87845e-08
-2.1981e-08
-3.19256e-06
-9.65669e-08
-2.26354e-08
-3.611e-06
-2.34067e-08
-4.0532e-06
-1.00584e-07
-1.32525e-08
-3.1066e-08
-1.35141e-06
-2.94171e-08
-3.16401e-08
-1.73689e-06
-4.5893e-08
-3.18473e-08
-2.07601e-06
-6.15872e-08
-3.19378e-08
-2.42237e-06
-7.50292e-08
-3.18616e-08
-2.79207e-06
-8.58571e-08
-3.16516e-08
-3.1884e-06
-9.35821e-08
-3.13437e-08
-3.6113e-06
-3.10047e-08
-4.05738e-06
-9.77215e-08
-1.26103e-08
-4.31189e-08
-1.3443e-06
-2.82578e-08
-4.27858e-08
-1.72747e-06
-4.46361e-08
-4.2564e-08
-2.06463e-06
-5.9995e-08
-4.218e-08
-2.41262e-06
-7.3327e-08
-4.148e-08
-2.78399e-06
-8.4095e-08
-4.04485e-08
-3.18234e-06
-9.18434e-08
-3.91307e-08
-3.60741e-06
-3.76168e-08
-4.05576e-06
-9.61095e-08
-1.37509e-08
-1.33781e-06
-5.36737e-08
-3.0275e-08
-1.71947e-06
-5.21435e-08
-4.72711e-08
-2.05585e-06