/*--------------------------------*- C++ -*----------------------------------*\
| =========                 |                                                 |
| \\      /  F ield         | OpenFOAM: The Open Source CFD Toolbox           |
|  \\    /   O peration     | Version:  plus.master                           |
|   \\  /    A nd           | Web:      www.OpenFOAM.com                      |
|    \\/     M anipulation  |                                                 |
\*---------------------------------------------------------------------------*/
FoamFile
{
    version     2.0;
    format      ascii;
    class       volScalarField;
    location    "8.8";
    object      p_rgh;
}
// * * * * * * * * * * * * * * * * * * * * * * * * * * * * * * * * * * * * * //

dimensions      [1 -1 -2 0 0 0 0];

internalField   nonuniform List<scalar> 
47285
(
5720.99
5726.35
5727.42
5727.04
5727.44
5725.62
5720.02
5727.29
5711.95
5720.75
5718.28
5714.42
5713.76
5725.17
5729.24
5714.5
5680.84
5674.21
5681.01
5721.78
5727.41
5728.22
5719.26
5675.11
5669.49
5675.31
5720
5727.42
5728.36
5717.66
5680.81
5673.79
5680.53
5722.38
5726.33
5726.67
5712.2
5717.76
5716.36
5708.88
5714.65
5724.98
5720.76
5726.09
5727.4
5726.43
5727.18
5725.93
5719.66
5692
5688
5684.49
5683.03
5685.32
5689.4
5693.45
5687.52
5656.25
5656.28
5633.34
5651.07
5676.5
5690.15
5683.46
5614.29
5511.03
5500.85
5529.5
5677.44
5687.44
5682.12
5636.84
5502.88
5495.58
5511.51
5671.51
5686.31
5683.5
5626.87
5508.53
5498.22
5520.03
5675.44
5686.94
5687.22
5639.1
5638.56
5616.44
5623.35
5678.31
5689.43
5691.68
5687.32
5683.55
5681.86
5683.93
5688.41
5692.79
5683.11
5677.23
5672.69
5671.48
5674.61
5679.91
5685.38
5676.58
5663.94
5616.34
5566.73
5649.92
5671.59
5680.73
5671.02
5569.03
5361.57
5350.97
5422.18
5661.55
5677.02
5668.66
5563.61
5352.27
5351.52
5378.84
5654.24
5675.54
5671.24
5578.17
5356.31
5350.03
5390.95
5655.1
5676.56
5676.42
5651.56
5589.2
5525.15
5609.2
5669.73
5679.91
5682.93
5676.78
5671.88
5669.63
5673.35
5678.77
5684.67
5692.63
5690.7
5688.86
5688.17
5689.2
5690.75
5692.4
5690.16
5685.58
5630.34
5545.68
5681.8
5688.06
5691.09
5687.71
5587
5265.54
5250.09
5458.56
5685.43
5690.28
5686.31
5499.32
5248.36
5250.71
5337.18
5682.48
5689.68
5687.77
5580.1
5251.71
5248.95
5369.06
5681.96
5690.19
5690.16
5683.54
5588.49
5470.39
5655.27
5687.43
5690.96
5692.66
5690.34
5687.99
5686.36
5688.41
5690.32
5692.18
5688.97
5689.26
5688.92
5688.81
5687.79
5687.42
5686.88
5688.94
5687.63
5656.09
5570.86
5686
5687.07
5687.2
5688.24
5617.88
5200.57
5132.64
5574.74
5686.58
5687.52
5687.61
5459.39
5124.59
5126.71
5413.61
5683.99
5687.01
5688.04
5597.11
5159.4
5123.3
5454.54
5684.99
5687.19
5688.78
5686.28
5603.29
5451.27
5675.84
5685.68
5686.78
5689.13
5688.64
5687.32
5686.09
5686.11
5686.51
5686.47
5715.85
5713.58
5711.79
5710.33
5709.25
5708.46
5707.9
5707.51
5718.7
5715.74
5712.86
5710.9
5709.56
5708.64
5707.99
5707.55
5719.04
5715.71
5713.56
5711.04
5709.55
5708.59
5707.92
5707.5
5719.53
5716.08
5713.55
5711.04
5709.47
5708.51
5707.83
5707.31
5718.79
5716.11
5713.2
5710.87
5709.4
5708.45
5707.8
5707.36
5717.93
5715.08
5712.55
5710.59
5709.29
5708.41
5707.77
5707.33
5715.67
5713.53
5711.59
5710.12
5709.04
5708.26
5707.7
5707.3
5696.5
5698.44
5699.96
5701.16
5702.11
5702.88
5703.52
5704.07
5694.39
5697.19
5699.22
5700.71
5701.85
5702.75
5703.48
5704.09
5692.77
5696.11
5698.51
5700.26
5701.57
5702.58
5703.39
5704.05
5692.15
5695.7
5698.22
5700.06
5701.43
5702.48
5703.31
5703.99
5692.51
5695.9
5698.32
5700.09
5701.41
5702.44
5703.25
5703.92
5693.89
5696.75
5698.83
5700.37
5701.56
5702.49
5703.24
5703.86
5695.95
5697.97
5699.55
5700.79
5701.77
5702.56
5703.21
5703.77
5689.53
5692.31
5694.57
5696.39
5697.86
5699.05
5700.05
5700.94
5686.68
5690.55
5693.46
5695.7
5697.45
5698.83
5699.97
5700.95
5684.53
5689.18
5692.58
5695.14
5697.1
5698.63
5699.86
5700.92
5683.67
5688.64
5692.21
5694.9
5696.94
5698.53
5699.8
5700.88
5684.29
5688.99
5692.41
5695
5696.98
5698.53
5699.78
5700.86
5686.17
5690.14
5693.11
5695.41
5697.2
5698.62
5699.78
5700.78
5688.94
5691.8
5694.13
5696.01
5697.52
5698.75
5699.77
5700.67
5693.67
5694.68
5695.72
5696.75
5697.83
5699.06
5700.5
5702.17
5692.85
5694.09
5695.23
5696.33
5697.47
5698.76
5700.3
5702.1
5692.4
5693.71
5694.91
5696.06
5697.23
5698.56
5700.14
5702.02
5692.2
5693.58
5694.78
5695.96
5697.15
5698.48
5700.08
5701.97
5692.42
5693.7
5694.86
5696.01
5697.18
5698.49
5700.07
5701.92
5692.75
5693.96
5695.1
5696.2
5697.33
5698.59
5700.11
5701.89
5693.38
5694.37
5695.41
5696.43
5697.51
5698.72
5700.14
5701.79
5686.31
5685.69
5685.03
5684.28
5683.36
5681.88
5679.64
5678.56
5686.76
5686.1
5685.36
5684.56
5683.62
5682.11
5679.72
5678.38
5687.08
5686.37
5685.62
5684.82
5683.86
5682.32
5679.82
5678.3
5687.09
5686.47
5685.76
5684.98
5684.03
5682.49
5679.94
5678.36
5687.03
5686.36
5685.64
5684.87
5683.93
5682.42
5679.94
5678.4
5686.56
5685.96
5685.29
5684.56
5683.68
5682.25
5679.92
5678.56
5685.91
5685.31
5684.71
5684.06
5683.27
5681.92
5679.8
5678.73
5716.82
5714.11
5711.98
5710.39
5709.23
5708.39
5707.79
5707.36
5719.84
5715.93
5712.99
5710.95
5709.5
5708.44
5707.69
5707.2
5721.28
5717.03
5713.55
5711.28
5709.71
5708.61
5707.89
5707.38
5721.57
5717.15
5713.67
5711.41
5709.85
5708.76
5708.01
5707.52
5721.41
5716.74
5713.46
5711.18
5709.56
5708.42
5707.61
5707.14
5719.93
5715.79
5712.96
5710.92
5709.49
5708.46
5707.69
5707.16
5716.89
5714.16
5712.05
5710.46
5709.29
5708.44
5707.85
5707.45
5695.22
5697.44
5699.14
5700.46
5701.5
5702.32
5703
5703.57
5692.55
5695.86
5698.21
5699.91
5701.18
5702.14
5702.9
5703.51
5690.52
5694.72
5697.6
5699.64
5701.12
5702.22
5703.06
5703.72
5689.74
5694.26
5697.35
5699.53
5701.11
5702.28
5703.17
5703.85
5690.52
5694.62
5697.47
5699.49
5700.95
5702.04
5702.88
5703.53
5692.7
5695.9
5698.2
5699.88
5701.15
5702.12
5702.88
5703.49
5695.37
5697.54
5699.21
5700.51
5701.53
5702.35
5703.01
5703.57
5687.73
5690.98
5693.58
5695.66
5697.32
5698.65
5699.72
5700.64
5683.94
5688.69
5692.13
5694.72
5696.45
5697.86
5699.09
5700.11
5680.99
5687.04
5691.25
5694.28
5696.53
5698.24
5699.56
5700.51
5679.64
5686.3
5690.85
5694.08
5696.46
5698.28
5699.69
5700.85
5680.86
5686.86
5691.04
5694.07
5696.34
5698.06
5699.41
5700.48
5683.96
5688.64
5692.06
5694.65
5696.65
5698.19
5699.27
5700.29
5687.77
5690.98
5693.56
5695.62
5697.27
5698.58
5699.67
5700.6
5693.77
5694.83
5695.91
5696.99
5698.08
5699.26
5700.62
5702.16
5692.58
5694.01
5695.14
5696.2
5696.95
5698.15
5700.05
5701.66
5691.64
5693.75
5695.04
5696.13
5697.26
5698.53
5699.99
5701.27
5691.12
5693.66
5695.06
5696.18
5697.31
5698.56
5700.01
5701.67
5691.48
5693.45
5694.53
5695.73
5697.04
5698.29
5699.73
5701.4
5692.47
5693.88
5694.8
5695.32
5697.26
5698.49
5699.88
5701.47
5693.67
5694.74
5695.82
5696.87
5697.94
5699.1
5700.46
5702.01
5688.35
5687.85
5687.35
5686.77
5685.99
5684.63
5682.37
5681.39
5688.67
5688.06
5687.36
5686.46
5685.4
5684.49
5682.24
5680
5688.88
5688.51
5687.62
5686.79
5685.94
5684.4
5680.8
5679.87
5689.08
5688.91
5687.88
5686.87
5685.88
5684.09
5681.4
5681.48
5688.77
5688.22
5687.17
5686.07
5683.27
5681.05
5679.11
5680.84
5688.46
5687.6
5685.93
5685
5685.32
5683.81
5680.59
5679.32
5688.06
5687.5
5686.89
5686.17
5685.27
5683.81
5681.64
5680.6
5716.71
5714.11
5712
5710.43
5709.28
5708.43
5707.82
5707.39
5719.23
5715.64
5712.84
5710.9
5709.51
5708.48
5707.78
5707.34
5720.41
5716.68
5713.32
5711.19
5709.73
5708.73
5708.01
5707.5
5720.73
5716.83
5713.37
5711.17
5709.65
5708.63
5707.92
5707.44
5720.55
5716.66
5713.21
5711.01
5709.49
5708.44
5707.74
5707.23
5719.6
5715.98
5712.94
5710.94
5709.52
5708.49
5707.77
5707.3
5716.44
5713.78
5711.75
5710.28
5709.22
5708.48
5707.96
5707.61
5695.45
5697.62
5699.3
5700.6
5701.61
5702.43
5703.08
5703.63
5693.05
5696.27
5698.54
5700.2
5701.44
5702.4
5703.14
5703.75
5691.16
5695.19
5697.95
5699.92
5701.35
5702.43
5703.27
5703.93
5690.5
5694.82
5697.73
5699.79
5701.27
5702.38
5703.22
5703.88
5691.64
5695.45
5698.07
5699.94
5701.31
5702.34
5703.14
5703.78
5693.9
5696.84
5698.93
5700.47
5701.64
5702.54
5703.26
5703.86
5696.43
5698.41
5699.93
5701.13
5702.07
5702.83
5703.46
5704
5687.91
5691.1
5693.65
5695.7
5697.34
5698.65
5699.74
5700.68
5684.61
5689.2
5692.5
5695.01
5696.94
5698.45
5699.66
5700.67
5682.14
5687.82
5691.73
5694.59
5696.75
5698.42
5699.74
5700.84
5681.47
5687.43
5691.48
5694.41
5696.6
5698.28
5699.6
5700.69
5683.02
5688.22
5691.91
5694.65
5696.73
5698.32
5699.59
5700.65
5685.97
5690.02
5693.05
5695.37
5697.17
5698.58
5699.73
5700.71
5689.39
5692.24
5694.52
5696.35
5697.82
5699.01
5700.01
5700.89
5693.75
5694.76
5695.81
5696.87
5697.96
5699.18
5700.59
5702.21
5692.96
5694.25
5695.32
5696.42
5697.57
5698.84
5700.35
5702.1
5692.22
5693.92
5695.04
5696.13
5697.3
5698.62
5700.19
5702.03
5691.95
5693.7
5694.8
5695.87
5697.04
5698.37
5699.94
5701.78
5691.86
5693.4
5694.62
5695.8
5697.01
5698.35
5699.92
5701.78
5692.47
5693.82
5695.02
5696.16
5697.32
5698.61
5700.13
5701.93
5693.65
5694.75
5695.79
5696.81
5697.88
5699.08
5700.5
5702.16
5687.89
5687.2
5686.55
5685.85
5685.01
5683.62
5681.5
5680.48
5688.61
5687.72
5686.85
5686.06
5685.17
5683.75
5681.48
5680.26
5688.88
5687.96
5686.87
5685.93
5684.97
5683.48
5681.11
5679.86
5688.93
5687.93
5686.71
5685.67
5684.66
5683.19
5680.82
5679.67
5687.58
5686.81
5686
5685.16
5684.22
5682.77
5680.37
5679.13
5686.91
5686.35
5685.66
5684.91
5684.02
5682.57
5680.25
5679.03
5686.46
5685.93
5685.27
5684.51
5683.58
5682.1
5679.88
5678.82
5716.15
5713.63
5711.62
5710.1
5709.01
5708.24
5707.73
5707.37
5719.5
5715.65
5712.81
5710.81
5709.38
5708.34
5707.63
5707.15
5720.97
5716.91
5713.25
5711.03
5709.5
5708.44
5707.68
5707.15
5720.23
5716.8
5713.29
5711.11
5709.62
5708.62
5707.95
5707.51
5720.22
5716.66
5713.29
5711.09
5709.59
5708.56
5707.85
5707.36
5719.21
5715.68
5712.83
5710.82
5709.44
5708.49
5707.8
5707.3
5716.71
5714.14
5712.01
5710.41
5709.24
5708.4
5707.79
5707.34
5695.89
5697.94
5699.52
5700.75
5701.72
5702.49
5703.13
5703.66
5693.27
5696.33
5698.52
5700.12
5701.32
5702.23
5702.95
5703.53
5690.82
5694.9
5697.7
5699.67
5701.1
5702.16
5702.97
5703.6
5689.7
5694.3
5697.4
5699.57
5701.13
5702.28
5703.16
5703.84
5690.53
5694.78
5697.68
5699.74
5701.22
5702.33
5703.17
5703.82
5692.58
5695.93
5698.32
5700.03
5701.29
5702.25
5703
5703.6
5695.31
5697.53
5699.2
5700.5
5701.53
5702.35
5703.02
5703.58
5688.8
5691.73
5694.09
5695.97
5697.47
5698.68
5699.69
5700.58
5685.27
5689.5
5692.63
5695.01
5696.84
5698.27
5699.42
5700.39
5682.25
5687.75
5691.62
5694.46
5696.6
5698.24
5699.53
5700.59
5680.68
5687.02
5691.33
5694.4
5696.69
5698.44
5699.81
5700.93
5681.59
5687.54
5691.64
5694.59
5696.79
5698.47
5699.79
5700.86
5684.26
5689.02
5692.41
5694.96
5696.92
5698.45
5699.68
5700.7
5687.87
5691.06
5693.63
5695.71
5697.36
5698.68
5699.76
5700.67
5693.28
5694.39
5695.39
5696.27
5697.27
5698.47
5699.87
5701.37
5692.11
5693.43
5694.58
5695.66
5696.75
5697.95
5699.02
5699.3
5691.44
5693.19
5694.44
5695.59
5696.77
5697.99
5699.4
5701.11
5691.24
5693.6
5694.91
5695.98
5697.11
5698.39
5699.87
5701.55
5691.82
5693.86
5695.07
5696.12
5697.24
5698.49
5699.93
5701.62
5692.79
5694.17
5695.25
5696.33
5697.46
5698.7
5700.06
5701.33
5693.79
5694.82
5695.89
5696.93
5698
5699.2
5700.6
5702.22
5686.09
5685.74
5685.14
5684.26
5683.41
5682.12
5679.97
5679
5686.25
5685.76
5685.18
5684.64
5683.83
5682.4
5680.03
5679.34
5686.81
5686.47
5685.82
5685.19
5684.4
5683
5680.84
5680.17
5687.98
5687.78
5686.88
5686
5685.13
5683.73
5681.51
5680.8
5688.23
5687.87
5686.87
5686.23
5685.39
5684.01
5681.78
5681
5688.42
5687.8
5687.1
5686.44
5685.64
5684.28
5682.06
5680.99
5688.23
5687.73
5687.23
5686.63
5685.82
5684.58
5682.54
5681.55
5707.27
5707.31
5707.27
5707.08
5707.12
5707.1
5707.04
5704.56
5704.61
5704.59
5704.54
5704.45
5704.38
5704.24
5701.8
5701.84
5701.83
5701.81
5701.8
5701.71
5701.54
5703.81
5703.83
5703.79
5703.74
5703.64
5703.55
5703.37
5683.12
5683.14
5683.18
5683.24
5683.2
5683.18
5683.19
5707.06
5706.9
5707.03
5707.26
5706.84
5706.87
5707.17
5704.03
5703.98
5704.21
5704.35
5704.02
5703.99
5704.05
5701.49
5701.03
5701.29
5701.75
5701.28
5701.16
5701.46
5703.62
5703.04
5702.38
5703.1
5702.82
5702.98
5703.52
5685.93
5684.67
5686
5688.28
5687.12
5684.38
5685
5707.06
5707.05
5707.18
5707.17
5706.91
5707.04
5707.37
5704.11
5704.24
5704.42
5704.38
5704.27
5704.35
5704.48
5701.55
5701.54
5701.74
5701.58
5701.54
5701.57
5701.72
5703.75
5703.76
5703.75
5703.5
5703.53
5703.67
5703.8
5684.87
5684.95
5685
5685.18
5684.36
5683.88
5683.4
5707.11
5706.86
5706.81
5707.25
5707.06
5706.99
5707.03
5704.13
5703.98
5704.07
5704.34
5704.3
5704.06
5704.05
5701.4
5701.21
5701.44
5701.82
5701.71
5701.55
5701.51
5702.86
5700.35
5702.66
5703.04
5703.15
5702.77
5703.69
5683.52
5684.91
5686.5
5687.37
5687.01
5685.9
5685.84
5707
5706.81
5706.82
5706.93
5707.06
5707.17
5707.26
5707.31
5707.06
5706.91
5706.91
5706.99
5707.11
5707.21
5707.28
5707.32
5707.02
5706.9
5706.92
5706.99
5707.1
5707.2
5707.27
5707.31
5706.88
5706.76
5706.84
5706.98
5707.09
5707.17
5707.25
5707.29
5706.86
5706.76
5706.8
5706.9
5707.03
5707.14
5707.23
5707.27
5706.86
5706.74
5706.76
5706.86
5706.99
5707.1
5707.19
5707.24
5706.72
5706.55
5706.59
5706.72
5706.86
5707
5707.1
5707.17
5705.24
5705.81
5706.22
5706.52
5706.75
5706.93
5707.06
5707.14
5705.29
5705.88
5706.28
5706.59
5706.81
5706.98
5707.11
5707.18
5705.28
5705.87
5706.29
5706.59
5706.81
5706.99
5707.11
5707.18
5705.24
5705.85
5706.28
5706.59
5706.81
5706.97
5707.09
5707.17
5705.15
5705.76
5706.19
5706.5
5706.74
5706.92
5707.05
5707.13
5705.06
5705.67
5706.1
5706.42
5706.66
5706.85
5706.99
5707.08
5704.91
5705.5
5705.93
5706.26
5706.52
5706.72
5706.87
5706.97
5703.14
5704.44
5705.38
5706.03
5706.47
5706.76
5706.95
5707.07
5703.14
5704.49
5705.43
5706.09
5706.53
5706.82
5707.01
5707.12
5703.13
5704.48
5705.43
5706.09
5706.53
5706.82
5707.01
5707.12
5703.12
5704.46
5705.41
5706.07
5706.51
5706.8
5706.99
5707.11
5703.17
5704.46
5705.38
5706.03
5706.46
5706.76
5706.95
5707.06
5703.09
5704.38
5705.3
5705.94
5706.38
5706.68
5706.87
5707
5702.92
5704.2
5705.12
5705.77
5706.22
5706.52
5706.73
5706.87
5705.58
5706.07
5706.37
5706.59
5706.76
5706.88
5706.98
5707.05
5705.64
5706.09
5706.39
5706.61
5706.78
5706.91
5707.01
5707.09
5705.61
5706.06
5706.36
5706.59
5706.76
5706.9
5707.01
5707.08
5705.53
5705.99
5706.3
5706.55
5706.73
5706.87
5706.98
5707.06
5705.35
5705.86
5706.2
5706.45
5706.65
5706.8
5706.92
5707.01
5705.23
5705.72
5706.07
5706.33
5706.54
5706.71
5706.84
5706.93
5705.01
5705.52
5705.88
5706.16
5706.37
5706.55
5706.69
5706.79
5694.19
5700.71
5703.66
5705.18
5706.01
5706.48
5706.76
5706.92
5694.14
5700.67
5703.65
5705.17
5706.01
5706.49
5706.78
5706.94
5694.12
5700.65
5703.62
5705.15
5706
5706.48
5706.77
5706.93
5694.12
5700.63
5703.6
5705.13
5705.98
5706.46
5706.75
5706.92
5694.09
5700.59
5703.56
5705.09
5705.93
5706.41
5706.7
5706.87
5694.12
5700.58
5703.53
5705.04
5705.87
5706.35
5706.64
5706.81
5694.19
5700.59
5703.48
5704.96
5705.77
5706.23
5706.51
5706.68
5706.69
5706.52
5706.53
5706.64
5706.77
5706.91
5707.03
5707.11
5706.55
5706.37
5706.37
5706.45
5706.56
5706.67
5706.75
5706.8
5706.65
5706.41
5706.35
5706.36
5706.41
5706.49
5706.55
5706.58
5706.97
5706.77
5706.7
5706.68
5706.68
5706.71
5706.75
5706.78
5706.44
5706.21
5706.17
5706.21
5706.29
5706.4
5706.48
5706.53
5706.54
5706.37
5706.38
5706.45
5706.56
5706.68
5706.77
5706.82
5706.8
5706.61
5706.6
5706.68
5706.8
5706.91
5707.01
5707.08
5704.68
5705.26
5705.67
5705.99
5706.25
5706.45
5706.61
5706.72
5704.61
5705.23
5705.63
5705.95
5706.17
5706.34
5706.47
5706.56
5704.82
5705.36
5705.72
5705.97
5706.15
5706.27
5706.36
5706.41
5704.97
5705.52
5705.89
5706.15
5706.32
5706.43
5706.53
5706.6
5704.66
5705.22
5705.61
5705.88
5706.07
5706.2
5706.3
5706.36
5704.65
5705.24
5705.67
5705.98
5706.2
5706.37
5706.5
5706.59
5704.72
5705.32
5705.74
5706.07
5706.31
5706.51
5706.66
5706.76
5702.81
5704.03
5704.91
5705.54
5705.96
5706.25
5706.46
5706.59
5702.58
5703.76
5704.7
5705.35
5705.8
5706.1
5706.31
5706.44
5702.69
5703.91
5704.72
5705.29
5705.69
5705.97
5706.16
5706.27
5702.96
5704.12
5704.95
5705.52
5705.9
5706.16
5706.33
5706.45
5702.41
5703.59
5704.53
5705.13
5705.54
5705.84
5706.06
5706.2
5702.38
5703.74
5704.71
5705.35
5705.79
5706.1
5706.31
5706.45
5702.8
5704.06
5704.96
5705.59
5706.02
5706.32
5706.52
5706.65
5705.12
5705.53
5705.82
5706.05
5706.22
5706.36
5706.47
5706.56
5704.44
5704.88
5705.69
5705.96
5706.1
5706.22
5706.32
5706.4
5704.55
5705.56
5706
5706.28
5706.4
5706.48
5706.52
5706.52
5704.69
5705.43
5705.83
5706.06
5706.2
5706.28
5706.35
5706.41
5704.44
5705.2
5705.76
5706.01
5706.17
5706.27
5706.31
5706.37
5704.61
5705.17
5705.59
5705.87
5706.06
5706.21
5706.32
5706.41
5705.08
5705.56
5705.88
5706.12
5706.3
5706.44
5706.55
5706.63
5695.96
5701.46
5703.94
5705.17
5705.82
5706.19
5706.4
5706.53
5694.52
5700.26
5703.84
5705
5705.55
5706.02
5706.23
5706.35
5695.55
5700.47
5703.06
5705.28
5705.74
5706.27
5706.47
5706.57
5697.44
5701.97
5704.24
5705.27
5705.77
5706.03
5706.21
5706.34
5696.79
5701.45
5703.12
5704.15
5705.41
5706.04
5706.25
5706.36
5695.39
5700.95
5702.85
5704.36
5705.55
5705.96
5706.19
5706.32
5695.33
5701.13
5703.71
5705.06
5705.78
5706.19
5706.43
5706.58
5706.68
5706.5
5706.52
5706.63
5706.78
5706.92
5707.04
5707.12
5706.72
5706.55
5706.58
5706.66
5706.72
5706.8
5706.87
5706.93
5706.83
5706.64
5706.6
5706.64
5706.69
5706.75
5706.79
5706.81
5706.89
5706.72
5706.68
5706.7
5706.74
5706.78
5706.82
5706.85
5706.57
5706.38
5706.37
5706.46
5706.55
5706.63
5706.68
5706.72
5706.74
5706.58
5706.64
5706.74
5706.83
5706.91
5706.99
5707.05
5707.05
5706.85
5706.85
5706.92
5707.02
5707.12
5707.2
5707.26
5704.78
5705.38
5705.81
5706.13
5706.39
5706.58
5706.73
5706.84
5704.91
5705.47
5705.88
5706.16
5706.36
5706.51
5706.59
5706.68
5705.04
5705.59
5705.98
5706.26
5706.45
5706.58
5706.66
5706.7
5704.99
5705.53
5705.9
5706.16
5706.35
5706.49
5706.6
5706.68
5704.92
5705.48
5705.87
5706.13
5706.32
5706.46
5706.53
5706.55
5705.02
5705.6
5706.01
5706.3
5706.51
5706.67
5706.77
5706.83
5705.15
5705.73
5706.14
5706.44
5706.67
5706.85
5706.98
5707.07
5702.9
5704.18
5705.09
5705.73
5706.16
5706.45
5706.64
5706.77
5702.78
5704.1
5705.03
5705.67
5706.1
5706.37
5706.48
5706.6
5703
5704.27
5705.23
5705.87
5706.29
5706.56
5706.57
5706.52
5702.82
5704.05
5704.95
5705.58
5706.01
5706.3
5706.49
5706.59
5702.77
5704
5704.96
5705.62
5706.07
5706.36
5706.44
5706.32
5702.81
5704.14
5705.1
5705.77
5706.22
5706.51
5706.67
5706.75
5703.01
5704.35
5705.3
5705.96
5706.4
5706.7
5706.89
5707.01
5705.35
5705.78
5706.07
5706.28
5706.45
5706.58
5706.68
5706.76
5705.49
5705.93
5706.2
5706.4
5706.53
5706.63
5706.71
5706.75
5705.56
5706.15
5706.42
5706.61
5706.74
5706.83
5706.72
5706.68
5705.43
5706.13
5706.49
5706.7
5706.81
5706.86
5706.87
5706.84
5705.4
5706.05
5706.35
5706.54
5706.67
5706.76
5706.84
5706.67
5705.5
5706.02
5706.32
5706.52
5706.66
5706.76
5706.84
5706.87
5705.6
5706.06
5706.36
5706.57
5706.73
5706.85
5706.94
5707.01
5695.3
5701.21
5703.85
5705.18
5705.9
5706.31
5706.55
5706.69
5695.34
5701.27
5703.92
5705.26
5705.99
5706.4
5706.63
5706.76
5695.38
5701.35
5704.01
5705.36
5706.1
5706.52
5706.78
5706.93
5695.5
5701.47
5704.15
5705.49
5706.21
5706.62
5706.84
5706.74
5694.99
5701.13
5703.9
5705.29
5706.05
5706.49
5706.74
5706.89
5694.68
5700.96
5703.79
5705.23
5706.01
5706.45
5706.71
5706.85
5694.38
5700.81
5703.71
5705.2
5706.01
5706.47
5706.74
5706.9
5706.77
5706.57
5706.55
5706.62
5706.73
5706.84
5706.94
5707.01
5706.54
5706.34
5706.31
5706.37
5706.45
5706.54
5706.62
5706.68
5706.45
5706.23
5706.2
5706.25
5706.34
5706.42
5706.48
5706.53
5706.95
5706.74
5706.66
5706.66
5706.68
5706.72
5706.76
5706.8
5706.72
5706.49
5706.43
5706.44
5706.48
5706.53
5706.57
5706.6
5706.66
5706.45
5706.42
5706.47
5706.55
5706.64
5706.73
5706.8
5706.66
5706.48
5706.49
5706.59
5706.73
5706.87
5707
5707.09
5704.77
5705.35
5705.76
5706.07
5706.32
5706.52
5706.68
5706.79
5704.61
5705.17
5705.57
5705.85
5706.09
5706.27
5706.41
5706.51
5704.67
5705.21
5705.58
5705.84
5706.04
5706.18
5706.28
5706.35
5704.96
5705.51
5705.88
5706.14
5706.32
5706.46
5706.56
5706.63
5704.9
5705.42
5705.77
5706
5706.15
5706.27
5706.37
5706.44
5704.69
5705.27
5705.65
5705.86
5706.02
5706.26
5706.48
5706.58
5704.68
5705.25
5705.66
5705.98
5706.23
5706.44
5706.6
5706.71
5702.69
5703.92
5704.82
5705.47
5705.94
5706.27
5706.5
5706.66
5702.39
5703.38
5703.75
5704.6
5705.57
5705.93
5706.18
5706.35
5702.61
5703.74
5704.35
5704.74
5705.36
5705.83
5706.02
5706.15
5703.02
5704.17
5704.99
5705.55
5705.91
5706.16
5706.36
5706.48
5702.87
5703.99
5704.77
5705.28
5705.54
5705.77
5706.13
5706.32
5702.69
5703.58
5704.38
5704.99
5705.69
5706.16
5706.35
5706.48
5702.82
5704.06
5704.93
5705.54
5705.96
5706.25
5706.45
5706.59
5704.49
5705.04
5705.5
5705.85
5706.08
5706.29
5706.47
5706.6
5702.18
5702.95
5703.41
5704.81
5705.85
5706.07
5706.2
5706.3
5704.39
5705.11
5705.23
5705.09
5705.64
5706.16
5706.25
5706.3
5704.7
5705.46
5705.87
5706.11
5706.24
5706.29
5706.36
5706.46
5704.87
5705.64
5706.08
5706.3
5706.27
5706.1
5706.48
5706.56
5704.39
5704.87
5705.16
5705.45
5706.02
5706.26
5706.35
5706.43
5705.14
5705.53
5705.8
5706.03
5706.21
5706.35
5706.47
5706.56
5694.19
5700.33
5703.2
5704.67
5705.51
5706.01
5706.32
5706.52
5695.2
5699.32
5700.98
5702.19
5704.21
5705.58
5706.02
5706.15
5696.39
5700.6
5702.51
5704.77
5705.51
5705.89
5706.16
5706.29
5697.09
5702.07
5704.34
5705.34
5705.82
5706.08
5706.25
5706.39
5696.86
5702
5703.92
5704.59
5705.14
5705.74
5706.21
5706.58
5695.92
5701.25
5703.54
5704.9
5705.6
5705.89
5706.08
5706.36
5695.94
5701.5
5703.95
5705.17
5705.82
5706.19
5706.4
5706.53
5707.33
5707.33
5707.33
5707.32
5707.31
5707.3
5707.29
5707.3
5707.34
5707.34
5707.34
5707.33
5707.32
5707.31
5707.31
5707.31
5707.33
5707.33
5707.33
5707.32
5707.31
5707.3
5707.3
5707.3
5707.31
5707.31
5707.31
5707.3
5707.3
5707.29
5707.29
5707.29
5707.29
5707.29
5707.29
5707.28
5707.27
5707.27
5707.27
5707.27
5707.26
5707.27
5707.26
5707.25
5707.24
5707.23
5707.23
5707.23
5707.19
5707.2
5707.2
5707.19
5707.18
5707.17
5707.16
5707.17
5707.18
5707.21
5707.23
5707.24
5707.24
5707.24
5707.24
5707.24
5707.22
5707.24
5707.26
5707.26
5707.27
5707.27
5707.26
5707.26
5707.22
5707.24
5707.26
5707.26
5707.27
5707.26
5707.26
5707.26
5707.21
5707.23
5707.24
5707.25
5707.26
5707.25
5707.25
5707.25
5707.17
5707.2
5707.21
5707.22
5707.23
5707.23
5707.22
5707.22
5707.12
5707.15
5707.17
5707.18
5707.18
5707.18
5707.18
5707.18
5707.02
5707.05
5707.08
5707.09
5707.1
5707.1
5707.1
5707.1
5707.13
5707.17
5707.2
5707.22
5707.23
5707.24
5707.24
5707.24
5707.18
5707.21
5707.24
5707.26
5707.27
5707.27
5707.28
5707.28
5707.18
5707.21
5707.24
5707.26
5707.27
5707.27
5707.27
5707.27
5707.16
5707.2
5707.23
5707.25
5707.26
5707.26
5707.26
5707.26
5707.13
5707.16
5707.19
5707.21
5707.22
5707.23
5707.23
5707.23
5707.06
5707.1
5707.14
5707.16
5707.17
5707.18
5707.18
5707.18
5706.94
5706.99
5707.03
5707.05
5707.07
5707.08
5707.09
5707.09
5707.09
5707.12
5707.14
5707.16
5707.17
5707.18
5707.18
5707.18
5707.13
5707.16
5707.19
5707.2
5707.22
5707.22
5707.23
5707.22
5707.13
5707.16
5707.18
5707.2
5707.21
5707.22
5707.22
5707.22
5707.11
5707.15
5707.17
5707.19
5707.2
5707.21
5707.22
5707.21
5707.06
5707.1
5707.13
5707.15
5707.16
5707.17
5707.18
5707.18
5706.99
5707.03
5707.06
5707.09
5707.11
5707.12
5707.12
5707.12
5706.86
5706.91
5706.94
5706.97
5706.99
5707
5707.01
5707.01
5706.99
5707.04
5707.08
5707.1
5707.12
5707.13
5707.13
5707.13
5707.02
5707.07
5707.11
5707.13
5707.15
5707.16
5707.17
5707.17
5707.01
5707.07
5707.1
5707.13
5707.15
5707.16
5707.16
5707.16
5707
5707.05
5707.09
5707.12
5707.14
5707.15
5707.16
5707.15
5706.95
5707.01
5707.05
5707.08
5707.1
5707.11
5707.11
5707.11
5706.89
5706.95
5706.99
5707.02
5707.04
5707.05
5707.06
5707.06
5706.77
5706.83
5706.87
5706.9
5706.92
5706.94
5706.95
5706.95
5707.15
5707.17
5707.17
5707.16
5707.14
5707.12
5707.1
5707.09
5706.83
5706.85
5706.86
5706.86
5706.85
5706.85
5706.84
5706.85
5706.6
5706.61
5706.62
5706.63
5706.64
5706.65
5706.66
5706.68
5706.81
5706.83
5706.85
5706.87
5706.88
5706.9
5706.89
5706.92
5706.56
5706.57
5706.59
5706.61
5706.62
5706.63
5706.64
5706.66
5706.84
5706.86
5706.87
5706.86
5706.86
5706.85
5706.85
5706.86
5707.12
5707.13
5707.14
5707.13
5707.11
5707.09
5707.07
5707.07
5706.79
5706.83
5706.86
5706.88
5706.89
5706.9
5706.9
5706.9
5706.61
5706.65
5706.68
5706.7
5706.71
5706.72
5706.7
5706.69
5706.44
5706.46
5706.48
5706.5
5706.51
5706.53
5706.53
5706.49
5706.64
5706.67
5706.69
5706.71
5706.73
5706.74
5706.76
5706.76
5706.4
5706.42
5706.44
5706.46
5706.48
5706.49
5706.49
5706.47
5706.64
5706.67
5706.7
5706.72
5706.73
5706.74
5706.72
5706.71
5706.82
5706.86
5706.88
5706.9
5706.92
5706.92
5706.92
5706.92
5706.66
5706.71
5706.75
5706.78
5706.8
5706.81
5706.82
5706.82
5706.52
5706.58
5706.62
5706.63
5706.62
5706.67
5706.71
5706.72
5706.33
5706.36
5706.39
5706.41
5706.42
5706.43
5706.39
5706.31
5706.51
5706.55
5706.58
5706.61
5706.63
5706.65
5706.65
5706.61
5706.27
5706.31
5706.33
5706.36
5706.37
5706.39
5706.34
5706.3
5706.53
5706.58
5706.62
5706.64
5706.66
5706.7
5706.72
5706.72
5706.72
5706.77
5706.8
5706.83
5706.84
5706.86
5706.86
5706.86
5706.61
5706.65
5706.67
5706.7
5706.71
5706.72
5706.73
5706.73
5706.46
5706.5
5706.54
5706.45
5706.42
5706.44
5706.59
5706.6
5706.5
5706.49
5706.49
5706.49
5706.48
5706.45
5706.3
5706.28
5706.45
5706.47
5706.5
5706.52
5706.54
5706.55
5706.53
5706.39
5706.38
5706.39
5706.4
5706.4
5706.39
5706.4
5706.32
5706.25
5706.47
5706.51
5706.54
5706.44
5706.37
5706.52
5706.61
5706.61
5706.68
5706.71
5706.74
5706.76
5706.78
5706.79
5706.79
5706.79
5706.59
5706.63
5706.66
5706.68
5706.69
5706.7
5706.71
5706.71
5706.41
5706.46
5706.48
5706.35
5706.33
5706.35
5706.46
5706.47
5706.6
5706.51
5706.38
5706.51
5706.55
5706.58
5706.43
5706.35
5706.39
5706.42
5706.45
5706.47
5706.49
5706.5
5706.45
5706.28
5706.42
5706.44
5706.37
5706.17
5706.19
5706.37
5706.4
5706.36
5706.4
5706.45
5706.47
5706.3
5706.26
5706.33
5706.48
5706.5
5706.65
5706.69
5706.72
5706.75
5706.76
5706.77
5706.78
5706.78
5707.16
5707.18
5707.18
5707.18
5707.16
5707.15
5707.13
5707.13
5706.98
5707
5707.02
5707.02
5707.02
5707.01
5707.01
5707.01
5706.83
5706.84
5706.84
5706.85
5706.86
5706.87
5706.87
5706.89
5706.89
5706.91
5706.93
5706.95
5706.96
5706.98
5706.99
5707
5706.75
5706.78
5706.8
5706.82
5706.84
5706.86
5706.87
5706.89
5707.09
5707.1
5707.11
5707.12
5707.11
5707.11
5707.11
5707.12
5707.28
5707.29
5707.29
5707.29
5707.28
5707.26
5707.26
5707.26
5706.9
5706.94
5706.97
5706.99
5707
5707
5707
5707
5706.78
5706.84
5706.86
5706.88
5706.9
5706.91
5706.92
5706.92
5706.72
5706.75
5706.77
5706.79
5706.8
5706.81
5706.82
5706.82
5706.73
5706.76
5706.79
5706.81
5706.83
5706.85
5706.86
5706.88
5706.59
5706.66
5706.7
5706.73
5706.75
5706.77
5706.78
5706.79
5706.92
5706.96
5706.98
5707
5707.02
5707.03
5707.04
5707.04
5707.11
5707.14
5707.17
5707.18
5707.19
5707.19
5707.19
5707.19
5706.84
5706.89
5706.92
5706.94
5706.96
5706.97
5706.98
5706.98
5706.73
5706.75
5706.76
5706.79
5706.81
5706.82
5706.84
5706.85
5706.56
5706.58
5706.59
5706.61
5706.78
5706.88
5706.87
5706.88
5706.63
5706.62
5706.6
5706.72
5706.76
5706.79
5706.8
5706.81
5706.37
5706.41
5706.44
5706.56
5706.8
5706.81
5706.82
5706.81
5706.82
5706.88
5706.91
5706.95
5706.97
5706.98
5706.99
5707
5707.07
5707.11
5707.14
5707.16
5707.18
5707.18
5707.19
5707.19
5706.81
5706.84
5706.87
5706.89
5706.9
5706.91
5706.92
5706.92
5706.77
5706.76
5706.76
5706.78
5706.78
5706.77
5706.76
5706.77
5707.02
5706.97
5706.72
5706.68
5706.67
5706.67
5706.66
5706.68
5706.81
5706.79
5706.72
5706.78
5706.8
5706.8
5706.8
5706.79
5706.42
5706.44
5706.45
5706.62
5706.79
5706.8
5706.76
5706.75
5706.84
5706.84
5706.9
5706.94
5706.95
5706.96
5706.95
5706.95
5707.05
5707.08
5707.1
5707.12
5707.13
5707.14
5707.14
5707.14
5706.76
5706.81
5706.84
5706.86
5706.88
5706.89
5706.89
5706.89
5706.81
5706.84
5706.87
5706.88
5706.88
5706.88
5706.85
5706.83
5706.99
5707.04
5707.09
5707.12
5707.13
5707.02
5706.88
5706.71
5706.41
5706.42
5706.83
5706.73
5706.8
5706.95
5706.93
5706.93
5706.88
5706.81
5706.92
5706.99
5706.96
5706.92
5706.77
5706.76
5706.91
5706.95
5706.97
5706.99
5707
5707
5706.98
5706.97
5706.97
5707.02
5707.05
5707.08
5707.09
5707.1
5707.11
5707.11
5707.05
5707.07
5707.07
5707.07
5707.06
5707.05
5707.05
5707.05
5706.72
5706.74
5706.75
5706.76
5706.77
5706.77
5706.78
5706.8
5706.55
5706.57
5706.59
5706.61
5706.62
5706.64
5706.65
5706.67
5706.82
5706.85
5706.87
5706.88
5706.9
5706.91
5706.91
5706.93
5706.62
5706.63
5706.64
5706.65
5706.66
5706.67
5706.68
5706.69
5706.84
5706.86
5706.87
5706.87
5706.87
5706.87
5706.87
5706.87
5707.13
5707.15
5707.16
5707.15
5707.13
5707.11
5707.09
5707.09
5706.85
5706.89
5706.92
5706.94
5706.95
5706.96
5706.96
5706.97
5706.57
5706.61
5706.64
5706.66
5706.68
5706.69
5706.7
5706.71
5706.4
5706.43
5706.45
5706.47
5706.49
5706.52
5706.52
5706.52
5706.67
5706.7
5706.73
5706.75
5706.76
5706.78
5706.79
5706.77
5706.48
5706.51
5706.52
5706.54
5706.55
5706.57
5706.56
5706.55
5706.64
5706.68
5706.71
5706.73
5706.74
5706.75
5706.75
5706.74
5706.78
5706.83
5706.86
5706.88
5706.89
5706.9
5706.9
5706.9
5706.74
5706.8
5706.84
5706.88
5706.9
5706.92
5706.93
5706.93
5706.44
5706.51
5706.56
5706.59
5706.6
5706.62
5706.67
5706.68
5706.22
5706.27
5706.3
5706.33
5706.35
5706.36
5706.34
5706.33
5706.55
5706.59
5706.62
5706.64
5706.66
5706.68
5706.67
5706.62
5706.38
5706.42
5706.44
5706.46
5706.47
5706.48
5706.46
5706.42
5706.56
5706.61
5706.65
5706.67
5706.65
5706.67
5706.72
5706.73
5706.67
5706.72
5706.75
5706.78
5706.8
5706.82
5706.83
5706.83
5706.67
5706.72
5706.76
5706.79
5706.82
5706.84
5706.85
5706.85
5706.36
5706.42
5706.47
5706.46
5706.37
5706.39
5706.5
5706.57
5706.33
5706.35
5706.36
5706.37
5706.37
5706.34
5706.3
5706.29
5706.5
5706.52
5706.54
5706.56
5706.57
5706.58
5706.56
5706.48
5706.57
5706.57
5706.56
5706.56
5706.55
5706.55
5706.54
5706.53
5706.49
5706.53
5706.56
5706.48
5706.44
5706.55
5706.61
5706.61
5706.61
5706.65
5706.68
5706.71
5706.72
5706.74
5706.74
5706.74
5706.62
5706.68
5706.71
5706.74
5706.78
5706.81
5706.82
5706.82
5706.3
5706.37
5706.3