/*--------------------------------*- C++ -*----------------------------------*\
| =========                 |                                                 |
| \\      /  F ield         | OpenFOAM: The Open Source CFD Toolbox           |
|  \\    /   O peration     | Version:  plus.master                           |
|   \\  /    A nd           | Web:      www.OpenFOAM.com                      |
|    \\/     M anipulation  |                                                 |
\*---------------------------------------------------------------------------*/
FoamFile
{
    version     2.0;
    format      ascii;
    class       surfaceScalarField;
    location    "8.8";
    object      phi;
}
// * * * * * * * * * * * * * * * * * * * * * * * * * * * * * * * * * * * * * //

dimensions      [0 3 -1 0 0 0 0];

internalField   nonuniform List<scalar> 
138768
(
1.67855e-06
2.89808e-06
2.41522e-07
-2.10251e-06
-3.01477e-06
1.05586e-06
3.06715e-06
5.15655e-07
-3.19109e-06
-5.115e-07
3.76834e-06
8.66513e-07
-3.51644e-06
-2.20908e-06
3.83365e-06
8.90883e-07
-3.48297e-06
-3.1809e-06
3.24984e-06
4.90633e-07
-3.17069e-06
-3.37825e-06
2.38491e-06
2.3386e-07
-2.78447e-06
2.27384e-06
1.34991e-07
-3.43819e-06
-2.58407e-06
2.1539e-06
2.7588e-06
4.79168e-07
-2.54558e-06
3.22609e-06
5.19106e-06
2.12917e-06
3.31288e-07
8.88329e-06
3.10458e-06
-3.75245e-06
9.52337e-06
3.7186e-06
-5.65991e-06
7.89979e-06
2.58208e-06
-3.23857e-06
3.90391e-06
1.3842e-06
1.80188e-06
1.94687e-07
-3.4518e-06
3.35947e-06
1.47609e-06
8.88229e-07
-3.17487e-06
7.69079e-06
2.58573e-06
3.59879e-06
4.39515e-06
6.16861e-06
1.13347e-05
-7.32885e-06
9.79613e-06
1.67756e-05
-8.90194e-06
5.51892e-06
9.27751e-06
-3.76851e-06
2.05575e-06
2.0389e-06
9.45833e-07
3.74107e-07
-3.53492e-06
3.97014e-06
-5.63583e-07
1.18817e-06
-3.52457e-06
9.41667e-06
-1.55743e-06
4.02124e-06
9.89228e-06
-5.09089e-06
1.6108e-05
-1.09748e-05
-8.68038e-06
4.46693e-05
-9.36891e-06
-4.21812e-06
1.34565e-05
-3.74414e-06
-9.49908e-07
2.70547e-06
-1.16418e-07
5.60855e-07
-3.52234e-06
3.60299e-06
-2.16349e-06
9.59233e-07
-3.36231e-06
8.27654e-06
-4.42366e-06
3.51713e-06
5.22624e-06
-8.33682e-06
1.16199e-05
-7.18469e-06
-9.41844e-06
1.84698e-05
-9.13231e-06
-7.40443e-06
1.04582e-05
-3.83891e-06
-3.17299e-06
2.25427e-06
-1.31121e-06
4.6852e-07
-3.59492e-06
2.53411e-06
-2.52859e-06
5.20211e-07
-2.87039e-06
3.90789e-06
-2.78047e-06
2.30802e-06
9.31239e-07
-3.56922e-06
3.53345e-06
-3.67959e-06
-3.85625e-06
4.37293e-06
-6.06337e-06
-3.03342e-06
3.33737e-06
-3.42124e-06
-2.02888e-06
1.53847e-06
-1.70068e-06
2.51535e-07
-3.63561e-06
2.11484e-06
2.4712e-07
-2.44426e-06
-2.76347e-06
1.52556e-06
5.47739e-07
-3.00843e-06
-1.99221e-07
1.02775e-06
-3.32021e-06
-2.3091e-06
1.16664e-06
-3.38582e-06
-3.61247e-06
6.89326e-07
-2.87763e-06
-3.57207e-06
3.0522e-07
-2.55967e-06
1.36332e-07
-3.68795e-06
-2.14054e-06
1.11838e-06
2.59811e-06
6.10124e-07
-1.54965e-06
-2.53552e-06
1.44305e-07
3.13887e-06
1.0731e-06
-2.72269e-06
-9.15983e-07
2.73239e-06
1.68343e-06
-2.48928e-06
-1.91128e-06
2.38208e-06
1.8096e-06
-2.30584e-06
-2.50762e-06
2.42715e-06
9.84749e-07
-2.32501e-06
-2.81663e-06
2.11847e-06
5.72951e-07
-2.14863e-06
1.51748e-06
4.7947e-07
-2.84853e-06
-1.83008e-06
1.99021e-06
2.15545e-06
9.95028e-07
-2.06385e-06
1.22667e-06
3.45853e-06
2.57249e-06
-6.33018e-07
3.28564e-06
4.41076e-06
-2.45731e-06
2.36671e-06
5.55784e-06
-3.6003e-06
3.02454e-06
3.1273e-06
-3.31374e-06
1.88326e-06
1.33251e-06
9.52411e-07
5.27064e-07
-3.08112e-06
2.53437e-06
1.03544e-06
1.77524e-06
-2.30162e-06
2.9474e-06
1.61849e-06
5.02547e-06
4.50452e-07
2.39398e-06
1.47231e-05
-3.56347e-06
9.74828e-07
2.21807e-05
-3.54892e-06
2.11173e-06
1.01744e-05
-3.01232e-06
9.54796e-07
2.43056e-06
5.329e-07
7.26825e-07
-2.94568e-06
2.39536e-06
-2.87817e-07
2.40008e-06
-2.28438e-06
2.46302e-06
-8.26775e-07
6.39818e-06
-5.70928e-08
-1.7261e-06
2.27472e-05
-3.2101e-06
-4.6155e-07
4.92569e-05
-3.03806e-06
-1.39992e-06
1.67955e-05
-2.67488e-06
-1.43278e-07
3.44021e-06
2.389e-07
9.80663e-07
-2.80073e-06
2.55596e-06
-1.45467e-06
1.93308e-06
-2.36304e-06
2.94827e-06
-2.80319e-06
5.10078e-06
5.87778e-07
-3.14967e-06
1.54028e-05
-2.83129e-06
-2.33212e-06
2.37569e-05
-3.31679e-06
-2.71163e-06
1.22548e-05
-2.98002e-06
-1.1076e-06
2.88175e-06
-2.0908e-07
8.87442e-07
-2.95112e-06
2.48247e-06
-2.13961e-06
1.09306e-06
-2.37054e-06
1.98116e-06
-2.85833e-06
2.86406e-06
-1.53048e-07
-2.56108e-06
5.0787e-06
-2.4712e-06
-2.24826e-06
6.60667e-06
-3.77576e-06
-2.19431e-06
4.12455e-06
-3.49758e-06
-1.52305e-06
1.67568e-06
-8.44844e-07
6.01534e-07
-3.21207e-06
1.62763e-06
6.26596e-07
-1.92088e-06
-2.22611e-06
6.87829e-07
1.17075e-06
-2.54197e-06
-5.85698e-07
2.04623e-06
-2.30627e-06
-1.94175e-06
2.35359e-06
-2.07928e-06
-2.85664e-06
1.40921e-06
-1.9994e-06
-3.10714e-06
6.88704e-07
-1.65618e-06
4.8301e-07
-3.0639e-06
-1.23502e-06
5.15775e-07
1.91179e-06
1.43533e-06
-1.11935e-06
-2.13345e-06
-2.93175e-07
1.81474e-06
1.94313e-06
-1.87597e-06
-9.3173e-07
1.0279e-06
2.66882e-06
-1.37476e-06
-1.38012e-06
4.37186e-07
2.89976e-06
-1.07906e-06
-1.76091e-06
1.02484e-06
1.88619e-06
-1.54547e-06
-2.20001e-06
1.37584e-06
1.42683e-06
-1.79057e-06
1.36183e-06
1.30216e-06
-2.52551e-06
-1.85903e-06
6.81471e-07
1.48773e-06
1.91816e-06
-1.18069e-06
3.97313e-09
1.64586e-06
3.41868e-06
-1.08137e-06
1.13582e-06
5.38822e-06
-1.49982e-06
-1.94909e-07
6.60845e-06
-2.04741e-06
8.7981e-07
3.82002e-06
-2.35013e-06
1.0765e-06
1.93477e-06
7.77196e-07
1.37024e-06
-2.6086e-06
6.46952e-07
7.73552e-07
2.92821e-06
-1.08581e-06
5.08974e-07
7.43618e-07
6.06565e-06
-1.22271e-06
8.31299e-07
1.67593e-05
-1.85113e-06
-8.23813e-07
2.34388e-05
-1.66021e-06
9.00951e-07
9.96309e-06
-1.92037e-06
6.95166e-07
3.07199e-06
4.37809e-07
1.54818e-06
-2.40228e-06
3.84939e-07
-1.19468e-07
3.80172e-06
-8.93593e-07
-4.45421e-07
-2.06726e-07
8.17898e-06
-2.93642e-06
-2.75336e-07
2.63457e-05
-3.35182e-06
8.38271e-07
4.80129e-05
-1.71842e-06
-4.52321e-07
1.65169e-05
-1.71217e-06
7.59185e-08
4.05328e-06
2.22934e-07
1.76568e-06
-2.28231e-06
6.63387e-07
-8.65132e-07
3.13639e-06
-1.12105e-06
4.04387e-07
-1.15723e-06
6.31053e-06
-1.38607e-06
-8.68876e-07
1.77872e-05
-1.77234e-06
2.92642e-07
2.46894e-05
-1.52131e-06
-5.5732e-07
1.21096e-05
-1.79513e-06
-3.11644e-07
3.54322e-06
-6.83178e-09
1.67926e-06
-2.35727e-06
1.06464e-06
-1.45215e-06
2.06702e-06
-1.45161e-06
4.47463e-07
-1.45599e-06
3.78021e-06
-7.68127e-07
-7.36489e-07
6.16268e-06
-1.46162e-06
-1.78164e-07
7.77145e-06
-2.1407e-06
-5.27348e-07
4.7737e-06
-2.47e-06
-6.53233e-07
2.34655e-06
-5.85494e-07
1.42879e-06
-2.71869e-06
9.47957e-07
1.47664e-06
-1.48506e-06
-1.76504e-06
1.23746e-07
2.13575e-06
-1.59667e-06
-6.96176e-07
3.17887e-06
-1.04918e-06
-1.44547e-06
3.58622e-06
-6.61453e-07
-2.01811e-06
2.40991e-06
-9.55432e-07
-2.45714e-06
1.5574e-06
-1.08298e-06
1.31294e-06
-2.76158e-06
-1.11114e-06
5.30697e-07
1.71999e-06
3.07954e-06
-1.46386e-06
-2.43102e-06
-3.06346e-07
1.03892e-06
3.49996e-06
-1.75864e-06
-7.78755e-07
-1.16415e-07
4.15095e-06
-8.93244e-07
-7.81725e-07
-8.87078e-07
4.33458e-06
-5.4486e-07
-1.29603e-06
3.91117e-07
3.49297e-06
-1.48364e-06
-2.09109e-06
1.34175e-06
3.10005e-06
-2.22007e-06
1.8105e-06
2.93957e-06
-2.87236e-06
-2.66674e-06
9.35682e-09
1.05465e-06
3.52833e-06
-9.54142e-07
-7.78009e-07
4.41859e-07
4.80305e-06
-1.11488e-06
-8.47378e-07
6.45611e-06
-7.81828e-07
-1.95602e-06
7.34414e-06
-1.12993e-06
-4.27611e-07
4.98682e-06
-1.96008e-06
6.43546e-07
3.46323e-06
1.01533e-06
3.03916e-06
-2.83398e-06
-6.97612e-07
5.16321e-07
4.50853e-06
-3.44302e-07
-1.64804e-06
2.99851e-07
7.15815e-06
-1.48735e-06
3.89656e-07
1.53616e-05
-9.69871e-07
-1.81454e-06
2.278e-05
-2.59891e-07
1.29334e-07
8.69589e-06
-1.43647e-06
5.29662e-07
4.36226e-06
5.28619e-07
3.1895e-06
-2.59114e-06
-1.41624e-06
1.29229e-07
5.44155e-06
1.63603e-07
-2.62456e-06
2.93184e-07
9.39412e-06
-4.91963e-06
5.52521e-07
2.84782e-05
-3.80046e-06
2.56225e-06
4.25202e-05
-5.96858e-07
3.60097e-07
1.30832e-05
-1.33161e-06
1.8958e-07
5.12793e-06
1.21143e-07
3.34276e-06
-2.50116e-06
-7.12749e-07
-4.30789e-07
4.7347e-06
-3.25556e-07
-1.70025e-06
8.23741e-08
7.50921e-06
-1.82412e-06
1.36288e-06
1.7099e-05
-1.49208e-06
2.13637e-06
2.47829e-05
-2.29886e-07
1.0234e-06
1.01847e-05
-1.35828e-06
1.33642e-07
4.72761e-06
-2.51143e-07
3.27172e-06
-2.5785e-06
2.539e-07
-1.18683e-06
3.68922e-06
-1.12012e-06
-5.23006e-07
-5.52637e-07
5.19233e-06
-8.42068e-07
5.85947e-07
7.25891e-06
-8.6428e-07
1.38633e-06
8.54372e-06
-1.20871e-06
3.61679e-07
5.77991e-06
-2.08429e-06
-4.22059e-07
3.77781e-06
-9.80743e-07
3.07866e-06
-3.00453e-06
8.48492e-07
3.12576e-06
-1.7546e-06
-1.92985e-06
-5.5323e-08
3.71309e-06
-1.2259e-06
-6.81995e-07
4.68337e-06
-2.91792e-07
-9.45051e-07
5.04917e-06
1.86568e-07
-1.54754e-06
3.93344e-06
-5.59359e-07
-2.34839e-06
3.21282e-06
-1.27673e-06
2.95844e-06
-3.13221e-06
-1.84249e-06
1.05158e-06
1.82672e-06
-2.18763e-06
-2.70337e-06
5.0923e-06
1.00519e-07
1.15436e-06
-2.15939e-06
5.45604e-06
-4.40516e-07
1.59029e-09
-1.29872e-06
5.98909e-06
-5.08177e-07
-6.7067e-07
-1.01275e-06
6.0855e-06
-1.21015e-06
8.08185e-07
-2.02713e-06
5.41366e-06
-2.12844e-06
1.79433e-06
-2.82656e-06
5.05024e-06
2.27113e-06
-3.05513e-06
-3.27648e-06
4.87158e-06
2.74118e-07
1.04397e-06
-1.47768e-06
5.51463e-06
-6.80259e-07
3.61391e-07
6.5502e-06
-1.02196e-06
-1.021e-06
7.82026e-06
-5.22518e-07
-2.15182e-06
8.32583e-06
-1.09258e-06
-1.5599e-07
6.52109e-06
-2.07753e-06
9.0087e-07
5.34123e-06
1.35854e-06
-3.1026e-06
4.97678e-06
-6.35259e-07
4.34407e-07
-6.28634e-07
6.38196e-06
-1.80092e-06
1.66994e-07
8.51823e-06
-1.72936e-06
6.99427e-07
1.35693e-05
1.24098e-07
2.30578e-07
1.85439e-05
-3.71224e-07
1.54757e-07
8.88239e-06
-1.73834e-06
5.94453e-07
6.03584e-06
6.62603e-07
-2.97249e-06
5.11959e-06
-1.58398e-06
1.46058e-07
9.28405e-08
7.22086e-06
-2.89837e-06
4.15463e-07
1.046e-05
-4.54446e-06
7.23931e-07
3.00993e-05
-1.89052e-06
4.04423e-06
3.60451e-05
-6.44322e-07
4.97174e-07
1.14966e-05
-1.73447e-06
1.53017e-07
6.6596e-06
-2.87875e-08
-2.95099e-06
5.25081e-06
-6.89538e-07
-4.81947e-07
-5.55037e-07
6.60736e-06
-1.85735e-06
1.93923e-07
8.89883e-06
-9.19229e-07
1.62079e-06
1.5267e-05
-2.94238e-07
2.50231e-06
2.56971e-05
-3.94551e-07
8.78578e-07
9.90302e-06
-1.72786e-06
-1.20479e-07
6.33448e-06
-6.81455e-07
-2.99388e-06
5.19048e-06
4.22761e-07
-1.37288e-06
-1.52697e-06
5.68422e-06
-5.24569e-07
-6.12925e-07
6.94619e-06
-8.14569e-07
5.87466e-07
8.58287e-06
-5.93462e-07
1.45167e-06
9.37472e-06
-1.20447e-06
9.31183e-08
7.17643e-06
-2.21675e-06
-9.16198e-07
5.5859e-06
-1.61656e-06
-3.22834e-06
5.02554e-06
1.2292e-06
-2.30115e-06
-2.32938e-06
5.15412e-06
2.21425e-07
-1.56906e-06
5.67679e-06
-4.51315e-07
-5.36816e-07
6.48042e-06
-6.69651e-07
-1.58456e-08
6.73518e-06
-1.38503e-06
-1.03572e-06
5.77764e-06
-2.27913e-06
-1.97628e-06
5.16702e-06
-3.13128e-06
-2.71574e-06
4.90988e-06
-4.08869e-06
-2.25209e-07
7.91747e-08
4.87331e-07
-4.40428e-06
-5.10464e-07
9.48797e-08
5.47151e-07
-4.53847e-06
-3.76601e-07
9.92394e-08
5.25402e-07
-4.73444e-06
-2.83405e-07
9.43587e-08
4.80116e-07
-4.9709e-06
-2.41175e-07
8.26236e-08
4.51232e-07
-5.20566e-06
-2.11665e-07
6.41785e-08
4.34769e-07
-5.41012e-06
-1.86188e-07
4.01598e-08
4.18416e-07
-1.64759e-07
9.91781e-09
4.03821e-07
-5.59451e-06
-4.24725e-06
1.94681e-07
1.09158e-07
-4.48884e-06
-1.0624e-07
1.26154e-07
-4.6927e-06
-2.03325e-07
1.31171e-07
-4.91548e-06
-9.54053e-08
1.25655e-07
-5.13684e-06
-6.57552e-08
1.13067e-07
-5.32328e-06
-5.23673e-08
9.3841e-08
-5.47293e-06
-3.74824e-08
6.79065e-08
-2.72918e-08
3.72666e-08
-5.62113e-06
-4.2623e-06
2.1868e-07
8.76811e-08
-4.73825e-06
6.87149e-08
1.18684e-07
-4.817e-06
8.78143e-08
1.4593e-07
-5.02124e-06
1.00573e-07
1.48543e-07
-5.20788e-06
9.74916e-08
1.37377e-07
-5.35535e-06
9.13847e-08
1.1799e-07
-5.49791e-06
9.17094e-08
9.11558e-08
9.40963e-08
5.76986e-08
-5.60158e-06
-4.18597e-06
2.34085e-07
1.20609e-07
-4.587e-06
2.43697e-07
1.23924e-07
-4.68584e-06
3.20532e-07
1.47092e-07
-4.92241e-06
2.70749e-07
1.49512e-07
-5.18272e-06
2.44984e-07
1.3956e-07
-5.36522e-06
2.34027e-07
1.19747e-07
-5.47536e-06
2.17525e-07
9.04025e-08
1.94801e-07
5.44456e-08
-5.64851e-06
-4.32729e-06
2.78833e-07
1.09088e-07
-4.67158e-06
6.13482e-07
1.2085e-07
-4.76961e-06
5.61421e-07
1.36124e-07
-4.97433e-06
4.64845e-07
1.39656e-07
-5.17313e-06
4.18922e-07
1.27671e-07
-5.32531e-06
3.86178e-07
1.06303e-07
-5.44766e-06
3.56567e-07
7.73132e-08
3.32855e-07
4.17002e-08
-5.55409e-06
-4.43809e-06
5.88402e-07
9.39622e-08
-4.70291e-06
8.10336e-07
1.18187e-07
-4.74286e-06
7.06696e-07
1.24232e-07
-4.92503e-06
5.99308e-07
1.18882e-07
-5.11424e-06
5.51861e-07
1.066e-07
-5.24677e-06
5.16391e-07
8.59845e-08
-5.38218e-06
4.8099e-07
5.80145e-08
4.56037e-07
2.48526e-08
-5.54371e-06
-4.1885e-06
8.03234e-08
7.78884e-07
-4.3108e-06
9.5895e-08
8.46902e-07
-4.48035e-06
1.01165e-07
7.75737e-07
-4.63049e-06
9.73211e-08
7.28381e-07
-4.81816e-06
8.56486e-08
7.08167e-07
-5.00267e-06
6.62446e-08
6.99635e-07
-5.1605e-06
4.02565e-08
6.87293e-07
6.94798e-09
6.77523e-07
-5.31263e-06
-3.33312e-06
-1.78811e-07
2.79823e-07
4.59935e-07
-3.79628e-06
-1.80183e-07
3.09921e-07
4.20748e-07
-4.24705e-06
-1.56354e-07
3.15071e-07
3.84671e-07
-4.67389e-06
-1.32685e-07
2.95777e-07
3.52986e-07
-5.06109e-06
-1.14456e-07
2.54791e-07
3.25692e-07
-5.3967e-06
-1.00103e-07
1.96021e-07
3.01172e-07
-5.67293e-06
-8.83561e-08
1.24867e-07
2.78467e-07
-7.84034e-08
4.50385e-08
2.57072e-07
-5.88699e-06
-3.48977e-06
-3.03687e-08
3.55869e-07
-3.9379e-06
-7.55323e-09
3.92266e-07
-4.38134e-06
7.62787e-09
4.02469e-07
-4.80193e-06
2.50169e-08
3.82102e-07
-5.17537e-06
3.26805e-08
3.34448e-07
-5.48638e-06
3.65353e-08
2.64667e-07
-5.72692e-06
3.81393e-08
1.79892e-07
3.81661e-08
8.60643e-08
-5.89322e-06
-3.43242e-06
1.42759e-07
3.95583e-07
-3.92478e-06
1.48843e-07
4.37923e-07
-4.3956e-06
1.50611e-07
4.60167e-07
-4.82664e-06
1.4894e-07
4.44546e-07
-5.20346e-06
1.43414e-07
3.94567e-07
-5.50872e-06
1.36233e-07
3.17321e-07
-5.73362e-06
1.28407e-07
2.21768e-07
1.20338e-07
1.16401e-07
-5.87677e-06
-3.35728e-06
3.85305e-07
4.25714e-07
-3.88378e-06
3.3212e-07
4.51394e-07
-4.3752e-06
3.01305e-07
4.74428e-07
-4.82181e-06
2.75207e-07
4.58769e-07
-5.20896e-06
2.53405e-07
4.06509e-07
-5.52001e-06
2.34595e-07
3.24384e-07
-5.74673e-06
2.17857e-07
2.22388e-07
2.02914e-07
1.09725e-07
-5.88725e-06
-3.4448e-06
5.72602e-07
4.02044e-07
-3.92951e-06
4.95725e-07
4.26289e-07
-4.39339e-06
4.44277e-07
4.445e-07
-4.81936e-06
4.03866e-07
4.2652e-07
-5.1918e-06
3.71181e-07
3.74084e-07
-5.49399e-06
3.43648e-07
2.93796e-07
-5.7171e-06
3.19724e-07
1.952e-07
2.98551e-07
8.642e-08
-5.8589e-06
-3.55767e-06
6.57623e-07
3.46395e-07
-3.96438e-06
6.32245e-07
3.76855e-07
-4.37811e-06
5.8939e-07
3.85055e-07
-4.77292e-06
5.49469e-07
3.62197e-07
-5.12677e-06
5.15525e-07
3.11168e-07
-5.42287e-06
4.85529e-07
2.36936e-07
-5.65218e-06
4.58072e-07
1.47275e-07
4.3231e-07
4.8025e-08
-5.80975e-06
-3.44668e-06
2.76268e-07
8.37909e-07
-3.82563e-06
3.06812e-07
7.94198e-07
-4.20719e-06
3.12309e-07
7.53051e-07
-4.57646e-06
2.91878e-07
7.18652e-07
-4.91613e-06
2.47896e-07
6.88678e-07
-5.21283e-06
1.8464e-07
6.60869e-07
-5.45787e-06
1.08109e-07
6.33857e-07
2.19947e-08
6.0695e-07
-5.6477e-06
-3.25438e-06
-2.37245e-08
7.58329e-07
2.74203e-07
-4.009e-06
6.816e-09
8.37368e-07
2.20412e-07
-4.78173e-06
4.06692e-08
8.70778e-07
1.76374e-07
-5.54917e-06
6.49266e-08
8.58878e-07
1.39405e-07
-6.28667e-06
8.08757e-08
8.02624e-07
1.08809e-07
-6.9678e-06
9.0288e-08
7.02842e-07
8.39675e-08
-7.56264e-06
9.49334e-08
5.60464e-07
6.42593e-08
9.63209e-08
3.80597e-07
4.90569e-08
-8.04358e-06
-3.33813e-06
8.096e-08
9.80703e-07
-4.11317e-06
1.16549e-07
1.05755e-06
-4.90013e-06
1.4303e-07
1.08697e-06
-5.67389e-06
1.571e-07
1.06363e-06
-6.40844e-06
1.62093e-07
9.87742e-07
-7.07482e-06
1.61077e-07
8.6016e-07
-7.63803e-06
1.56092e-07
6.81893e-07
1.48431e-07
4.59278e-07
-8.06337e-06
-3.23476e-06
1.79528e-07
1.1295e-06
-4.07373e-06
1.92145e-07
1.20124e-06
-4.90064e-06
1.96603e-07
1.23341e-06
-5.6987e-06
1.93039e-07
1.20655e-06
-6.44556e-06
1.841e-07
1.11929e-06
-7.11249e-06
1.72517e-07
9.7275e-07
-7.66277e-06
1.59753e-07
7.68359e-07
1.46556e-07
5.13624e-07
-8.05818e-06
-3.17179e-06
3.07877e-07
1.18675e-06
-4.04621e-06
2.72496e-07
1.24533e-06
-4.89459e-06
2.42426e-07
1.2769e-06
-5.70522e-06
2.14228e-07
1.24808e-06
-6.45829e-06
1.87896e-07
1.15562e-06
-7.12631e-06
1.64095e-07
1.00077e-06
-7.67283e-06
1.43161e-07
7.85447e-07
1.25132e-07
5.17954e-07
-8.05966e-06
-3.23548e-06
4.58963e-07
1.12904e-06
-4.09379e-06
3.72472e-07
1.18448e-06
-4.92724e-06
3.0991e-07
1.21031e-06
-5.72567e-06
2.60697e-07
1.17833e-06
-6.46976e-06
2.20504e-07
1.08545e-06
-7.13245e-06
1.87612e-07
9.32964e-07
-7.67819e-06
1.61071e-07
7.23001e-07
1.40077e-07
4.63895e-07
-8.07063e-06
-3.42586e-06
5.43477e-07
9.68935e-07
-4.19021e-06
4.819e-07
1.03158e-06
-4.96607e-06
4.19191e-07
1.05146e-06
-5.72789e-06
3.66673e-07
1.01794e-06
-6.45033e-06
3.23371e-07
9.30736e-07
-7.10457e-06
2.87709e-07
7.9107e-07
-7.65578e-06
2.58477e-07
6.01062e-07
2.34652e-07
3.68744e-07
-8.07111e-06
-3.41575e-06
7.50311e-07
7.23413e-07
-4.11301e-06
8.2196e-07
6.63842e-07
-4.8404e-06
8.46337e-07
6.12423e-07
-5.57179e-06
8.22585e-07
5.67267e-07
-6.27976e-06
7.52063e-07
5.27118e-07
-6.9351e-06
6.36436e-07
4.91173e-07
-7.50544e-06
4.78002e-07
4.589e-07
2.84064e-07
4.29967e-07
-7.96282e-06
-4.11437e-06
2.23028e-07
1.7338e-06
4.33512e-08
-5.48538e-06
2.85856e-07
1.94285e-06
-2.04162e-08
-6.92645e-06
3.30506e-07
2.05095e-06
-6.97568e-08
-8.35149e-06
3.54743e-07
2.03648e-06
-1.07352e-07
-9.65226e-06
3.62703e-07
1.87592e-06
-1.35222e-07
-1.07059e-05
3.58716e-07
1.55308e-06
-1.55441e-07
-1.13884e-05
3.45929e-07
1.06688e-06
-1.69869e-07
3.27085e-07
4.28843e-07
-1.79293e-07
-1.15844e-05
-4.1335e-06
2.72979e-07
2.2302e-06
-5.55455e-06
3.323e-07
2.43205e-06
-7.03808e-06
3.67731e-07
2.53315e-06
-8.50197e-06
3.80843e-07
2.50131e-06
-9.83415e-06
3.78127e-07
2.30447e-06
-1.08972e-05
3.63826e-07
1.91801e-06
-1.15438e-05
3.40658e-07
1.33372e-06
3.10544e-07
5.57103e-07
-1.16252e-05
-4.00296e-06
2.58475e-07
2.55576e-06
-5.49659e-06
2.75e-07
2.7521e-06
-7.03194e-06
2.81066e-07
2.85542e-06
-8.53841e-06
2.74271e-07
2.81955e-06
-9.90504e-06
2.59476e-07
2.60447e-06
-1.09866e-05
2.39929e-07
2.17822e-06
-1.16212e-05
2.173e-07
1.5263e-06
1.92535e-07
6.49148e-07
-1.16389e-05
-3.95676e-06
2.27569e-07
2.67313e-06
-5.48396e-06
1.89071e-07
2.85845e-06
-7.03941e-06
1.52121e-07
2.96132e-06
-8.55924e-06
1.18482e-07
2.92372e-06
-9.93488e-06
8.90969e-08
2.70156e-06
-1.10199e-05
6.58698e-08
2.25985e-06
-1.16481e-05
4.92092e-08
1.58169e-06
3.86114e-08
6.66399e-07
-1.16427e-05
-4.03965e-06
2.62545e-07
2.55513e-06
-5.55505e-06
1.51569e-07
2.73735e-06
-7.09404e-06
6.81154e-08
2.83327e-06
-8.5948e-06
6.93477e-09
2.79062e-06
-9.9527e-06
-3.57057e-08
2.56813e-06
-1.10238e-05
-6.38184e-08
2.13382e-06
-1.16466e-05
-7.86637e-08
1.47362e-06
-8.22723e-08
5.90795e-07
-1.16527e-05
-4.2965e-06
3.03688e-07
2.21976e-06
-5.70608e-06
1.85329e-07
2.40728e-06
-7.17196e-06
8.90178e-08
2.49633e-06
-8.61547e-06
1.71216e-08
2.45123e-06
-9.92946e-06
-3.05694e-08
2.23953e-06
-1.09757e-05
-6.34348e-08
1.8368e-06
-1.16038e-05
-8.53239e-08
1.23577e-06
-9.92663e-08
4.47615e-07
-1.16657e-05
-4.31659e-06
1.72611e-06
5.12178e-07
-5.64495e-06
1.92603e-06
4.09525e-07
-7.05702e-06
2.02343e-06
3.23915e-07
-8.46304e-06
1.99552e-06
2.50207e-07
-9.74859e-06
1.81858e-06
1.88436e-07
-1.07872e-05
1.47627e-06
1.35298e-07
-1.14524e-05
9.68401e-07
8.94541e-08
3.1367e-07
4.90122e-08
-1.16303e-05
-4.47952e-06
4.18308e-07
-1.52867e-07
2.89285e-06
-6.13791e-06
4.95165e-07
-2.19082e-07
3.3253e-06
-8.01004e-06
5.40753e-07
-2.63265e-07
3.64563e-06
-1.00617e-05
5.6213e-07
-2.92097e-07
3.81827e-06
-1.2262e-05
5.67706e-07
-3.06422e-07
3.81513e-06
-1.458e-05
5.61195e-07
-3.0794e-07
3.61781e-06
-1.69782e-05
5.37391e-07
-2.99168e-07
3.22689e-06
4.92807e-07
-2.82237e-07
-1.94843e-05
2.72451e-06
-4.575e-06
4.2099e-07
3.70004e-06
-6.24455e-06
4.73546e-07
4.12341e-06
-8.10822e-06
5.01245e-07
4.43641e-06
-1.01453e-05
5.07528e-07
4.59301e-06
-1.23251e-05
5.00534e-07
4.55152e-06
-1.46088e-05
4.84169e-07
4.27875e-06
-1.69621e-05
4.57094e-07
3.7673e-06
4.15417e-07
-1.94486e-05
3.12102e-06
-4.52006e-06
2.96845e-07
4.22759e-06
-6.22545e-06
2.8912e-07
4.64196e-06
-8.09918e-06
2.72772e-07
4.95774e-06
-1.01343e-05
2.47062e-07
5.11514e-06
-1.23073e-05
2.19032e-07
5.05889e-06
-1.45798e-05
1.92777e-07
4.74214e-06
-1.69145e-05
1.69429e-07
4.14861e-06
1.47421e-07
-1.93953e-05
3.39765e-06
-4.51552e-06
1.14104e-07
4.4204e-06
-6.22599e-06
3.49411e-08
4.82326e-06
-8.09002e-06
-4.0251e-08
5.1385e-06
-1.01093e-05
-1.06404e-07
5.2966e-06
-1.22655e-05
-1.59019e-07
5.23579e-06
-1.45224e-05
-1.93971e-07
4.90344e-06
-1.68423e-05
-2.08646e-07
4.27953e-06
-2.01661e-07
-1.93161e-05
3.48908e-06
-4.54208e-06
-1.92734e-08
4.23673e-06
-6.23382e-06
-1.7517e-07
4.63927e-06
-8.07903e-06
-3.10003e-07
4.94827e-06
-1.00798e-05
-4.15671e-07
5.10065e-06
-1.22181e-05
-4.92724e-07
5.04006e-06
-1.44588e-05
-5.38741e-07
4.71935e-06
-1.67666e-05
-5.49142e-07
4.12177e-06
-5.19783e-07
-1.92238e-05
3.36597e-06
-4.64393e-06
-8.69151e-08
3.70309e-06
-6.25545e-06
-2.7108e-07
4.1148e-06
-8.05788e-06
-4.30195e-07
4.41903e-06
-1.00324e-05
-5.58125e-07
4.5682e-06
-1.21505e-05
-6.5485e-07
4.51978e-06
-1.43754e-05
-7.17477e-07
4.24038e-06
-1.66744e-05
-7.3588e-07
3.72159e-06
-7.03945e-07
-1.91097e-05
3.06703e-06
-4.46858e-06
7.94926e-08
2.89708e-06
-6.04476e-06
-9.41941e-08
3.32536e-06
-7.84491e-06
-2.49048e-07
3.64241e-06
-9.83487e-06
-3.84051e-07
3.81144e-06
-1.19795e-05
-4.94689e-07
3.80303e-06
-1.42442e-05
-5.74786e-07
3.59817e-06
-1.65888e-05
-6.19466e-07
3.19661e-06
-6.24773e-07
-1.90358e-05
2.68152e-06
-2.80865e-06
3.60854e-07
1.19372e-07
-1.93411e-07
-3.03434e-06
3.01495e-07
1.27256e-07
-1.90094e-07
-3.33575e-06
3.36669e-07
1.26572e-07
-1.3908e-07
-3.65522e-06
3.47119e-07
1.1605e-07
-1.08348e-07
-3.97534e-06
3.59885e-07
9.65479e-08
-9.20757e-08
-4.29204e-06
3.72926e-07
6.89832e-08
-8.0189e-08
-4.5769e-06
3.7788e-07
3.46672e-08
-6.91196e-08
3.81327e-07
-7.92702e-09
-5.94254e-08
-4.81991e-06
-3.14633e-06
3.25471e-07
2.01209e-07
-3.15489e-06
1.77909e-07
1.9635e-07
-3.25411e-06
2.57154e-07
2.03878e-07
-3.41463e-06
2.75233e-07
2.07026e-07
-3.5404e-06
2.94187e-07
2.03486e-07
-3.70037e-06
3.03855e-07
1.92846e-07
-3.89983e-06
3.1738e-07
1.75729e-07
3.52839e-07
1.54182e-07
-4.06229e-06
-3.55448e-06
-2.1112e-08
3.26511e-07
-3.33908e-06
-7.47027e-08
2.59348e-07
-3.23146e-06
-7.80291e-08
2.70849e-07
-3.16609e-06
-6.55831e-08
2.91194e-07
-3.12735e-06
-3.63551e-08
3.08377e-07
-3.15773e-06
-1.62867e-09
3.19653e-07
-3.14372e-06
2.78216e-08
3.27764e-07
5.66672e-08
3.28792e-07
-3.08141e-06
-3.63342e-06
-4.74547e-07
3.91025e-07
-3.4378e-06
-3.30541e-07
2.82613e-07
-3.37521e-06
-4.16947e-07
3.012e-07
-3.25695e-06
-4.26445e-07
3.38416e-07
-3.17518e-06
-4.21101e-07
3.72452e-07
-3.13337e-06
-4.14524e-07
3.96795e-07
-3.10077e-06
-4.16282e-07
4.10114e-07
-4.46776e-07
4.16844e-07
-3.03157e-06
-3.28884e-06
-8.50952e-07
2.83708e-07
-3.27966e-06
-6.22455e-07
2.32629e-07
-3.22856e-06
-6.17795e-07
2.46071e-07
-3.17771e-06
-6.30194e-07
2.62675e-07
-3.19535e-06
-6.41729e-07
2.70032e-07
-3.22969e-06
-6.38881e-07
2.67895e-07
-3.35666e-06
-6.22833e-07
2.5889e-07
-6.09122e-07
2.47266e-07
-3.39384e-06
-2.91688e-06
-7.92192e-07
1.81413e-07
-3.1784e-06
-6.66819e-07
1.81336e-07
-3.35729e-06
-6.11365e-07
1.87785e-07
-3.53417e-06
-6.01688e-07
1.90227e-07
-3.72151e-06
-6.02003e-07
1.82246e-07
-3.8833e-06
-6.04691e-07
1.65755e-07
-4.09183e-06
-6.05262e-07
1.42428e-07
-5.91253e-07
1.15709e-07
-4.31789e-06
-2.63988e-06
1.19998e-07
-4.92834e-07
-3.0083e-06
1.33036e-07
-4.38575e-07
-3.3652e-06
1.35465e-07
-3.5672e-07
-3.73507e-06
1.28138e-07
-3.20097e-07
-4.09991e-06
1.11692e-07
-2.99742e-07
-4.45482e-06
8.78729e-08
-2.87468e-07
-4.77429e-06
5.77588e-08
-2.7989e-07
2.25649e-08
-2.72825e-07
-5.03644e-06
-2.34602e-06
3.62508e-07
3.27221e-07
-1.50496e-07
-2.77086e-06
3.19057e-07
3.55265e-07
-1.27583e-07
-3.20975e-06
3.06667e-07
3.60827e-07
-1.06857e-07
-3.64729e-06
3.04654e-07
3.36527e-07
-9.14693e-08
-4.06514e-06
3.07109e-07
2.84061e-07
-7.94711e-08
-4.44648e-06
3.09864e-07
2.08293e-07
-6.95105e-08
-4.77897e-06
3.11121e-07
1.16132e-07
-6.07707e-08
3.105e-07
1.48016e-08
-5.2976e-08
-5.0591e-06
-2.5445e-06
2.25419e-07
5.00632e-07
-2.77096e-06
2.1823e-07
5.14101e-07
-3.0449e-06
2.28569e-07
5.48727e-07
-3.34245e-06
2.40787e-07
5.6017e-07
-3.64157e-06
2.59393e-07
5.42184e-07
-3.9213e-06
2.80212e-07
4.95458e-07
-4.16953e-06
3.00784e-07
4.25713e-07
3.20218e-07
3.42353e-07
-4.37605e-06
-2.50784e-06
-1.13246e-07
7.74114e-07
-2.61427e-06
-1.02312e-07
6.71262e-07
-2.76122e-06
-9.2668e-08
7.25273e-07
-2.93723e-06
-8.18598e-08
7.77467e-07
-3.11796e-06
-6.60297e-08
8.01361e-07
-3.27573e-06
-4.69432e-08
7.93934e-07
-3.39475e-06
-2.60273e-08
7.59315e-07
-4.01371e-09
7.06747e-07
-3.45267e-06
-2.48125e-06
-4.82488e-07
9.15044e-07
-2.57666e-06
-4.55316e-07
7.18937e-07
-2.70814e-06
-4.50844e-07
7.76709e-07
-2.85928e-06
-4.45762e-07
8.43852e-07
-2.9992e-06
-4.42422e-07
8.83345e-07
-3.1029e-06
-4.39695e-07
8.91639e-07
-3.1554e-06
-4.37506e-07
8.72945e-07
-4.36103e-07
8.36274e-07
-3.14325e-06
-2.44705e-06
-7.57318e-07
6.86516e-07
-2.59976e-06
-7.09908e-07
6.22063e-07
-2.80674e-06
-6.9045e-07
6.75642e-07
-3.03334e-06
-6.82405e-07
7.1412e-07
-3.25475e-06
-6.79499e-07
7.2033e-07
-3.45179e-06
-6.77363e-07
6.95222e-07
-3.60629e-06
-6.74595e-07
6.45324e-07
-6.71104e-07
5.8064e-07
-3.71513e-06
-2.33493e-06
-7.77583e-07
4.69072e-07
-2.66243e-06
-7.03474e-07
4.92443e-07
-3.02753e-06
-6.69925e-07
5.21472e-07
-3.40056e-06
-6.50765e-07
5.21771e-07
-3.75922e-06
-6.37019e-07
4.90378e-07
-4.08433e-06
-6.24685e-07
4.31654e-07
-4.3624e-06
-6.1218e-07
3.53382e-07
-5.98997e-07
2.64853e-07
-4.58923e-06
-2.06747e-06
3.33026e-07
-4.78405e-07
-2.57048e-06
3.66928e-07
-4.41176e-07
-3.07679e-06
3.75582e-07
-4.09656e-07
-3.57318e-06
3.54278e-07
-3.85861e-07
-4.0413e-06
3.05686e-07
-3.66673e-07
-4.46519e-06
2.34889e-07
-3.50454e-07
-4.83363e-06
1.48813e-07
-3.36143e-07
5.55262e-08
-3.22924e-07
-5.14302e-06
-2.18361e-06
3.46305e-07
8.05695e-07
-1.26239e-07
-2.93e-06
3.31083e-07
8.75672e-07
-1.05099e-07
-3.71018e-06
3.28706e-07
9.0292e-07
-9.05267e-08
-4.49602e-06
3.25017e-07
8.77097e-07
-7.96983e-08
-5.25893e-06
3.18777e-07
7.99192e-07
-7.08703e-08
-5.9688e-06
3.09277e-07
6.72124e-07
-6.32672e-08
-6.59355e-06
2.97656e-07
4.99596e-07
-5.63209e-08
2.83371e-07
2.90648e-07
-4.97496e-08
-7.10287e-06
-1.99554e-06
2.30472e-07
1.16044e-06
-2.61369e-06
2.54901e-07
1.20849e-06
-3.27436e-06
2.66366e-07
1.27173e-06
-3.95507e-06
2.75429e-07
1.2904e-06
-4.63177e-06
2.84237e-07
1.25356e-06
-5.27544e-06
2.91344e-07
1.15708e-06
-5.84634e-06
2.94127e-07
1.0002e-06
2.94227e-07
7.9176e-07
-6.30651e-06
-1.61523e-06
-9.60668e-08
1.59496e-06
-2.11384e-06
-8.07468e-08
1.50556e-06
-2.65117e-06
-6.69779e-08
1.59603e-06
-3.21382e-06
-5.43719e-08
1.66984e-06
-3.77646e-06
-3.99013e-08
1.68821e-06
-4.30856e-06
-2.46992e-08
1.64209e-06
-4.77299e-06
-9.89304e-09
1.52786e-06
3.51638e-09
1.35124e-06
-5.12671e-06
-1.42926e-06
-4.85883e-07
1.84062e-06
-1.91365e-06
-4.84357e-07
1.60693e-06
-2.43022e-06
-4.74512e-07
1.70083e-06
-2.97236e-06
-4.64433e-07
1.79603e-06
-3.51322e-06
-4.51785e-07
1.83617e-06
-4.02023e-06
-4.35174e-07
1.8091e-06
-4.45043e-06
-4.15633e-07
1.70894e-06
-3.94735e-07
1.53999e-06
-4.75581e-06
-1.61878e-06
-7.56849e-07
1.49044e-06
-2.17571e-06
-7.54604e-07
1.44916e-06
-2.76926e-06
-7.47035e-07
1.54164e-06
-3.38564e-06
-7.37653e-07
1.60369e-06
-4.00011e-06
-7.23901e-07
1.60693e-06
-4.58189e-06
-7.04726e-07
1.54658e-06
-5.09033e-06
-6.81199e-07
1.4194e-06
-6.54633e-07
1.23088e-06
-5.4806e-06
-1.82191e-06
-7.6483e-07
1.11822e-06
-2.52892e-06
-7.38609e-07
1.18336e-06
-3.26942e-06
-7.27856e-07
1.24271e-06
-4.02296e-06
-7.14404e-07
1.25209e-06
-4.76188e-06
-6.96465e-07
1.20193e-06
-5.45652e-06
-6.74506e-07
1.09615e-06
-6.07006e-06
-6.49243e-07
9.35071e-07
-6.2152e-07
7.23314e-07
-6.56157e-06
-1.88593e-06
8.09843e-07
-4.75273e-07
-2.69506e-06
8.88701e-07
-4.51338e-07
-3.53711e-06
9.21221e-07
-4.31529e-07
-4.38325e-06
9.01405e-07
-4.1544e-07
-5.20392e-06
8.30823e-07
-4.00898e-07
-5.96901e-06
7.12183e-07
-3.86684e-07
-6.64562e-06
5.48378e-07
-3.7211e-07
3.469e-07
-3.56851e-07
-7.20158e-06
-3.00651e-06
3.35694e-07
1.79191e-06
-6.98744e-08
-4.4206e-06
3.55659e-07
1.9894e-06
-5.54386e-08
-5.91691e-06
3.5352e-07
2.09101e-06
-4.50643e-08
-7.39861e-06
3.28992e-07
2.06716e-06
-3.72338e-08
-8.75294e-06
2.91558e-07
1.89312e-06
-3.09386e-08
-9.8534e-06
2.47157e-07
1.55101e-06
-2.55286e-08
-1.05676e-05
1.98488e-07
1.03636e-06
-2.10377e-08
1.48332e-07
3.64781e-07
-1.66999e-08
-1.07733e-05
-2.30865e-06
2.50134e-07
2.4345e-06
-3.66264e-06
3.01254e-07
2.61701e-06
-5.10627e-06
3.13423e-07
2.75554e-06
-6.5668e-06
3.07176e-07
2.77279e-06
-7.93328e-06
2.88625e-07
2.62316e-06
-9.06481e-06
2.62653e-07
2.27313e-06
-9.80429e-06
2.30933e-07
1.70725e-06
1.95162e-07
9.23814e-07
-9.98315e-06
-1.42029e-06
-9.89571e-08
3.03886e-06
-2.67667e-06
-5.60301e-08
3.11938e-06
-4.03937e-06
-2.51161e-08
3.29746e-06
-5.44378e-06
-1.26497e-09
3.38272e-06
-6.78007e-06
1.37231e-08
3.29958e-06
-7.90353e-06
2.79807e-08
3.0002e-06
-8.64238e-06
3.93104e-08
2.45836e-06
4.66981e-08
1.64167e-06
-8.78437e-06
-9.63912e-07
-4.80771e-07
3.35006e-06
-2.2417e-06
-4.76828e-07
3.30565e-06
-3.60864e-06
-4.51943e-07
3.49485e-06
-5.00768e-06
-4.20421e-07
3.61427e-06
-6.34562e-06
-3.81549e-07
3.56959e-06
-7.47485e-06
-3.39892e-07
3.30628e-06
-8.21499e-06
-2.99967e-07
2.78839e-06
-2.63909e-07
1.971e-06
-8.33538e-06
-1.51448e-06
-7.67364e-07
2.94737e-06
-2.83339e-06
-7.80826e-07
3.07217e-06
-4.24166e-06
-7.58345e-07
3.25646e-06
-5.68274e-06
-7.14027e-07
3.33858e-06
-7.05352e-06
-6.55131e-07
3.25142e-06
-8.20613e-06
-5.8719e-07
2.94667e-06
-8.96406e-06
-5.15609e-07
2.39311e-06
-4.43888e-07
1.56265e-06
-9.11577e-06
-2.24068e-06
-7.58679e-07
2.39625e-06
-3.6738e-06
-7.62594e-07
2.59835e-06
-5.18692e-06
-7.41757e-07
2.73937e-06
-6.70556e-06
-6.9647e-07
2.75342e-06
-8.1185e-06
-6.35383e-07
2.59523e-06