/*--------------------------------*- C++ -*----------------------------------*\
| =========                 |                                                 |
| \\      /  F ield         | OpenFOAM: The Open Source CFD Toolbox           |
|  \\    /   O peration     | Version:  plus.master                           |
|   \\  /    A nd           | Web:      www.OpenFOAM.com                      |
|    \\/     M anipulation  |                                                 |
\*---------------------------------------------------------------------------*/
FoamFile
{
    version     2.0;
    format      ascii;
    class       surfaceScalarField;
    location    "8.6";
    object      phi;
}
// * * * * * * * * * * * * * * * * * * * * * * * * * * * * * * * * * * * * * //

dimensions      [0 3 -1 0 0 0 0];

internalField   nonuniform List<scalar> 
138768
(
2.15513e-06
3.30469e-06
7.85326e-08
-2.52398e-06
-3.36106e-06
1.20675e-06
4.16325e-06
2.7838e-07
-3.75893e-06
-4.93164e-07
4.68138e-06
5.70543e-07
-4.05416e-06
-2.00806e-06
4.3345e-06
5.96719e-07
-3.93081e-06
-3.26252e-06
4.3035e-06
2.47981e-07
-3.7822e-06
-3.74415e-06
3.4125e-06
4.96189e-08
-3.40452e-06
2.66464e-06
6.61013e-09
-3.80294e-06
-2.91355e-06
3.32173e-06
2.85564e-06
2.3643e-07
-3.1823e-06
4.39796e-06
6.52342e-06
1.83467e-06
3.76093e-07
1.12477e-05
2.72656e-06
-3.7925e-06
1.04836e-05
3.29075e-06
-6.90457e-06
1.03735e-05
2.31331e-06
-4.26384e-06
4.90176e-06
1.14159e-06
1.95482e-06
1.89316e-08
-4.13763e-06
4.48589e-06
1.2145e-06
5.7814e-07
-3.80232e-06
1.04167e-05
2.61007e-06
3.25363e-06
5.35478e-06
7.11138e-06
1.44697e-05
-8.83328e-06
1.07643e-05
1.91811e-05
-1.1108e-05
6.75967e-06
1.11622e-05
-4.65794e-06
1.97042e-06
1.75357e-06
8.50848e-07
1.48071e-07
-4.26974e-06
4.4754e-06
-5.55773e-07
8.32058e-07
-4.00716e-06
1.04317e-05
-1.60743e-06
3.53264e-06
1.0425e-05
-6.04427e-06
1.84362e-05
-1.18389e-05
-9.46258e-06
4.77753e-05
-1.00258e-05
-5.22855e-06
1.54527e-05
-4.19491e-06
-1.04774e-06
2.4585e-06
-2.40648e-07
3.22577e-07
-4.01835e-06
4.63401e-06
-2.30154e-06
6.40649e-07
-3.99431e-06
1.07886e-05
-5.64945e-06
3.15853e-06
6.22262e-06
-1.08298e-05
1.46258e-05
-8.33334e-06
-1.04803e-05
2.0854e-05
-1.1121e-05
-9.86296e-06
1.26954e-05
-4.66649e-06
-4.19754e-06
1.96653e-06
-1.47705e-06
2.2878e-07
-4.22858e-06
3.64852e-06
-2.96928e-06
2.73769e-07
-3.47228e-06
5.12792e-06
-3.86415e-06
2.00679e-06
9.27219e-07
-4.5307e-06
3.17446e-06
-3.884e-06
-4.34738e-06
3.95032e-06
-7.34242e-06
-4.13063e-06
2.9973e-06
-4.44901e-06
-3.13108e-06
1.31105e-06
-2.19687e-06
5.66139e-08
-4.21632e-06
2.56162e-06
8.13018e-08
-2.80275e-06
-3.14182e-06
1.66023e-06
3.0109e-07
-3.60175e-06
-1.93441e-07
7.13818e-07
-3.94094e-06
-2.07824e-06
8.45698e-07
-3.86428e-06
-3.65954e-06
4.16268e-07
-3.55618e-06
-3.98818e-06
9.35277e-08
-3.20803e-06
9.78781e-10
-4.07043e-06
-2.58025e-06
6.80645e-07
1.94231e-06
5.85072e-07
-1.13144e-06
-1.99806e-06
-1.98591e-07
2.15894e-06
9.90021e-07
-1.99132e-06
-9.42343e-07
1.31073e-06
1.53898e-06
-1.53538e-06
-1.53802e-06
8.36241e-07
1.65355e-06
-1.29744e-06
-1.9678e-06
1.20928e-06
9.46884e-07
-1.47836e-06
-2.32018e-06
1.39665e-06
5.5609e-07
-1.55066e-06
1.06638e-06
4.65636e-07
-2.44314e-06
-1.40254e-06
1.21663e-06
1.48656e-06
9.01364e-07
-1.4258e-06
4.92919e-07
2.35946e-06
2.3578e-06
-7.48072e-07
1.43198e-06
3.84643e-06
-1.65405e-06
2.20186e-07
4.81292e-06
-2.6085e-06
1.55917e-06
2.91778e-06
-2.51962e-06
1.14077e-06
1.30857e-06
5.80449e-07
5.08017e-07
-2.52268e-06
1.07858e-06
7.31469e-07
1.57129e-06
-1.31658e-06
1.3277e-06
1.05487e-06
4.3092e-06
7.94659e-07
2.13588e-06
1.42992e-05
-2.62495e-06
7.00051e-07
2.21213e-05
-1.71946e-06
1.97664e-06
9.84072e-06
-1.86621e-06
6.9508e-07
2.34597e-06
3.77453e-07
7.15189e-07
-2.23033e-06
8.07534e-07
-1.03301e-07
2.05967e-06
-1.20043e-06
4.96119e-07
-3.73217e-07
5.27224e-06
7.4358e-07
-1.22902e-06
2.15535e-05
-3.00871e-06
6.54494e-07
5.15765e-05
-1.20441e-06
-1.01915e-06
1.66456e-05
-1.46447e-06
-6.98099e-09
3.42068e-06
2.60947e-07
9.92712e-07
-2.0181e-06
1.12256e-06
-9.06753e-07
1.70649e-06
-1.38486e-06
1.28106e-06
-1.78559e-06
4.41253e-06
1.00923e-06
-1.35182e-06
1.50222e-05
-2.4992e-06
-9.24172e-08
2.51071e-05
-1.52797e-06
-1.23868e-06
1.19445e-05
-1.79521e-06
-5.34391e-07
2.76135e-06
4.12718e-08
8.59506e-07
-2.20623e-06
1.63522e-06
-1.5657e-06
9.84378e-07
-1.68685e-06
1.1726e-06
-1.93865e-06
2.62255e-06
-3.33924e-07
-1.14408e-06
4.47356e-06
-1.61878e-06
-6.79111e-07
5.82155e-06
-2.68675e-06
-9.32563e-07
3.75917e-06
-2.64163e-06
-8.94121e-07
1.62573e-06
-5.05975e-07
5.70224e-07
-2.60795e-06
1.11211e-06
5.88815e-07
-1.44245e-06
-1.74303e-06
2.77667e-07
1.06852e-06
-1.8717e-06
-6.4212e-07
1.86791e-06
-1.37834e-06
-1.56268e-06
2.16673e-06
-1.07957e-06
-2.22987e-06
1.32536e-06
-1.17441e-06
-2.54479e-06
6.48575e-07
-1.13417e-06
4.58668e-07
-2.61149e-06
-8.96963e-07
3.47066e-08
1.22057e-06
1.54573e-06
-6.56222e-07
-1.55978e-06
-6.28323e-07
7.34945e-07
1.99518e-06
-1.07717e-06
-9.82291e-07
-3.51256e-07
2.65125e-06
-4.0718e-07
-1.03451e-06
-1.08418e-06
2.84309e-06
-5.31913e-08
-1.28703e-06
-1.74031e-07
2.00448e-06
-6.31143e-07
-1.68508e-06
4.66722e-07
1.56011e-06
-1.07286e-06
7.84376e-07
1.40971e-06
-2.07601e-06
-1.33754e-06
-1.82192e-07
8.35143e-07
1.94484e-06
-4.75966e-07
-7.91467e-07
4.55341e-07
3.24649e-06
-1.04888e-06
-1.05836e-06
4.81079e-06
-7.39145e-07
-2.40817e-06
5.82698e-06
-1.02557e-06
-7.09235e-07
3.73933e-06
-1.48483e-06
1.51611e-07
2.0829e-06
2.75287e-07
1.49722e-06
-1.96494e-06
-7.01301e-07
4.61831e-07
2.744e-06
-9.81874e-08
-1.39089e-06
2.89176e-07
5.1648e-06
-5.93839e-07
3.95561e-07
1.20481e-05
-3.75907e-07
-2.29745e-07
1.97248e-05
2.96022e-07
2.94291e-07
8.16454e-06
-6.76502e-07
2.66897e-07
3.2033e-06
1.66153e-07
1.69991e-06
-1.55205e-06
-1.08153e-06
6.40126e-08
3.41194e-06
1.26974e-07
-2.33226e-06
1.78246e-07
6.63363e-06
-1.94264e-06
5.54907e-07
2.10045e-05
-1.71526e-06
3.65264e-06
4.74645e-05
6.70394e-07
3.19903e-07
1.42283e-05
-1.72296e-07
2.38614e-07
4.2919e-06
3.04375e-07
1.95522e-06
-1.27309e-06
-6.91038e-07
-3.44398e-07
2.92445e-06
-1.18582e-07
-1.45324e-06
-5.88423e-08
5.41161e-06
-3.7371e-07
1.30416e-06
1.31928e-05
-6.72357e-07
2.61984e-06
2.64465e-05
6.42594e-07
1.13394e-06
9.81338e-06
-4.59489e-07
4.80673e-07
3.62129e-06
3.37561e-07
1.82057e-06
-1.45385e-06
9.67344e-08
-8.50949e-07
2.06718e-06
-6.73198e-07
-4.63959e-07
-4.33609e-07
3.5577e-06
-7.8923e-07
6.3888e-07
5.4625e-06
-6.51113e-07
1.47197e-06
6.83075e-06
-9.66415e-07
6.81405e-07
4.52687e-06
-1.4749e-06
1.60047e-07
2.45477e-06
-1.25974e-07
1.54742e-06
-1.98855e-06
3.51341e-07
1.56814e-06
-9.36147e-07
-1.24563e-06
-3.21493e-07
2.14914e-06
-8.41218e-07
-8.23401e-07
3.09024e-06
-8.16874e-08
-1.03119e-06
3.49208e-06
3.54356e-07
-1.41321e-06
2.45345e-06
-6.4763e-08
-1.83372e-06
1.66639e-06
-4.37305e-07
1.411e-06
-2.22619e-06
-6.85864e-07
4.2186e-07
1.51478e-06
3.21507e-06
-1.35318e-06
-2.2529e-06
-3.85378e-07
7.26059e-07
3.59005e-06
-1.51372e-06
-8.40364e-07
-4.84069e-07
4.18315e-06
-5.92969e-07
-7.24005e-07
-1.41201e-06
4.34101e-06
-2.02301e-07
-1.20402e-06
-6.84536e-08
3.64361e-06
-1.09075e-06
-1.93967e-06
8.9631e-07
3.26276e-06
-1.86371e-06
1.49576e-06
3.08202e-06
-2.71454e-06
-2.39324e-06
-1.8211e-07
8.63403e-07
3.58396e-06
-8.05666e-07
-9.66083e-07
1.07184e-07
4.64919e-06
-1.22126e-06
-1.47205e-06
6.0537e-06
-4.02503e-07
-3.1801e-06
6.77611e-06
-8.52891e-07
-8.76101e-07
4.99756e-06
-1.67842e-06
1.72186e-07
3.63265e-06
7.04311e-07
3.19804e-06
-2.5876e-06
-9.01366e-07
3.50997e-07
4.31978e-06
-1.62115e-07
-1.92239e-06
-1.06976e-07
6.39985e-06
-1.44016e-06
-8.17842e-07
1.09117e-05
5.47901e-07
-1.45169e-06
1.6008e-05
2.41901e-07
-3.068e-07
7.90092e-06
-1.00073e-06
9.29103e-08
4.52544e-06
2.73569e-07
3.3651e-06
-2.23499e-06
-1.78448e-06
1.2245e-07
5.03493e-06
3.89869e-07
-3.68548e-06
4.73686e-07
7.95379e-06
-3.6543e-06
1.00006e-06
1.91555e-05
-1.03675e-06
4.41229e-06
3.89799e-05
7.01696e-07
4.27559e-07
1.17402e-05
-5.36094e-07
2.56659e-07
5.36604e-06
1.33174e-07
3.54508e-06
-1.98562e-06
-9.94275e-07
-3.60924e-07
4.50917e-06
-1.07141e-07
-2.15819e-06
3.38e-07
6.71059e-06
-1.83307e-06
1.8259e-06
1.2042e-05
8.92972e-07
4.07467e-06
2.40801e-05
6.65048e-07
1.45741e-06
9.00705e-06
-7.72943e-07
4.64126e-07
4.85172e-06
-1.06829e-07
3.44089e-06
-2.15336e-06
-5.55091e-08
-1.07273e-06
3.71247e-06
-8.78008e-07
-8.29943e-07
-3.08668e-07
4.97829e-06
-1.17922e-06
9.26886e-07
6.70855e-06
-2.82536e-07
2.20188e-06
7.80726e-06
-7.57583e-07
7.80156e-07
5.67901e-06
-1.65514e-06
-9.48855e-08
3.91125e-06
-7.92193e-07
3.23187e-06
-2.65419e-06
6.2056e-07
3.24567e-06
-1.55368e-06
-1.81709e-06
-2.61023e-07
3.75561e-06
-1.03314e-06
-8.40888e-07
4.61718e-06
-2.06279e-08
-7.48698e-07
4.97793e-06
6.23803e-07
-1.30967e-06
4.01348e-06
-2.1896e-07
-2.07285e-06
3.35511e-06
-1.02043e-06
3.09296e-06
-2.87601e-06
-1.67097e-06
1.17121e-06
1.92576e-06
-2.30291e-06
-2.81588e-06
5.23678e-06
1.93058e-07
1.26536e-06
-2.26816e-06
5.57102e-06
-4.67387e-07
2.05931e-07
-1.43597e-06
6.07353e-06
-6.43896e-07
-5.4675e-07
-1.1124e-06
6.17658e-06
-1.3464e-06
7.76096e-07
-2.01869e-06
5.58864e-06
-2.22674e-06
1.70228e-06
-2.78584e-06
5.22617e-06
2.20606e-06
-3.12795e-06
-3.25493e-06
5.03214e-06
4.65216e-07
1.11633e-06
-1.6636e-06
5.59179e-06
-5.25006e-07
4.41058e-07
6.46361e-06
-1.01939e-06
-8.85735e-07
7.63954e-06
-5.12099e-07
-2.3189e-06
8.04065e-06
-1.21447e-06
-1.53116e-07
6.62923e-06
-2.16435e-06
7.60274e-07
5.52436e-06
1.25011e-06
-3.16131e-06
5.15134e-06
-3.20177e-07
3.84578e-07
-8.96474e-07
6.26808e-06
-1.40879e-06
-8.18954e-08
8.01127e-06
-1.56408e-06
-1.158e-06
1.13392e-05
1.59402e-07
-2.00781e-06
1.39735e-05
-5.59811e-07
-2.42765e-07
8.70895e-06
-1.80605e-06
2.99585e-07
6.23158e-06
5.00007e-07
-3.00017e-06
5.30914e-06
-1.34657e-06
2.42526e-08
-2.12007e-07
6.95366e-06
-3.31521e-06
4.09436e-07
9.43091e-06
-4.19507e-06
9.2979e-07
1.79467e-05
-4.52458e-07
1.06117e-06
3.21676e-05
-2.60341e-07
2.73087e-07
1.10425e-05
-1.55102e-06
6.74428e-08
6.8891e-06
-8.9482e-08
-2.87709e-06
5.46067e-06
-4.55272e-07
-6.79065e-07
-7.86505e-07
6.45419e-06
-1.69409e-06
1.63803e-08
8.34165e-06
-2.50017e-06
1.29657e-06
1.24797e-05
8.76865e-07
3.52075e-06
1.82228e-05
-1.65621e-07
8.39261e-07
9.48429e-06
-1.64007e-06
-1.06669e-07
6.50018e-06
-7.13028e-07
-2.95302e-06
5.37733e-06
4.94977e-07
-1.54746e-06
-1.63946e-06
5.72565e-06
-5.07935e-07
-7.97111e-07
6.79493e-06
-1.12954e-06
3.65177e-07
8.26269e-06
-3.51337e-07
1.5394e-06
9.01068e-06
-1.13134e-06
8.31983e-08
7.21491e-06
-2.15767e-06
-9.18649e-07
5.74951e-06
-1.63855e-06
-3.19846e-06
5.19824e-06
1.25629e-06
-2.36016e-06
-2.48258e-06
5.28464e-06
2.15227e-07
-1.7433e-06
5.74283e-06
-5.62136e-07
-7.19169e-07
6.47905e-06
-6.6876e-07
-1.16493e-07
6.74038e-06
-1.39765e-06
-1.0787e-06
5.90426e-06
-2.27943e-06
-2.01211e-06
5.33038e-06
-3.14387e-06
-2.74539e-06
5.06432e-06
-4.38222e-06
-2.72607e-07
1.67885e-08
5.07809e-07
-4.61222e-06
-5.2783e-07
3.40621e-08
5.55303e-07
-4.68643e-06
-3.61572e-07
4.58164e-08
5.24512e-07
-4.84067e-06
-2.94496e-07
4.97975e-08
4.84231e-07
-5.03625e-06
-2.5711e-07
4.65891e-08
4.57864e-07
-5.22523e-06
-2.27951e-07
3.62686e-08
4.43087e-07
-5.40512e-06
-2.02085e-07
1.99194e-08
4.27722e-07
-1.80794e-07
-1.07632e-09
4.13833e-07
-5.57161e-06
-4.73573e-06
1.20656e-08
6.53813e-09
-4.75657e-06
-2.38575e-07
3.5648e-08
-4.88441e-06
-1.64115e-07
5.4374e-08
-5.03613e-06
-1.08373e-07
6.39831e-08
-5.21049e-06
-8.60695e-08
6.45111e-08
-5.35149e-06
-7.20791e-08
5.63577e-08
-5.47123e-06
-5.64272e-08
4.01971e-08
-4.55676e-08
1.82043e-08
-5.60882e-06
-4.90767e-06
1.21168e-07
-2.12253e-08
-4.96632e-06
2.56189e-08
1.93958e-08
-4.99738e-06
5.49833e-08
5.18999e-08
-5.14408e-06
6.56949e-08
7.2554e-08
-5.30163e-06
6.97334e-08
7.84248e-08
-5.41563e-06
6.78246e-08
7.322e-08
-5.5083e-06
7.48697e-08
5.84113e-08
8.06566e-08
3.4737e-08
-5.5754e-06
-4.66775e-06
3.03209e-07
2.73281e-09
-4.70832e-06
3.67433e-07
1.82599e-08
-4.80762e-06
2.77722e-07
4.88512e-08
-5.02413e-06
2.45349e-07
7.16095e-08
-5.24997e-06
2.26685e-07
7.88915e-08
-5.36839e-06
2.18905e-07
7.4357e-08
-5.44856e-06
2.02275e-07
5.71367e-08
1.79634e-07
3.17249e-08
-5.61161e-06
-4.83023e-06
3.63017e-07
-1.93015e-08
-4.87896e-06
6.1057e-07
1.43966e-08
-4.93605e-06
4.9299e-07
4.31267e-08
-5.0819e-06
4.37624e-07
6.54165e-08
-5.23088e-06
3.97944e-07
7.06628e-08
-5.33983e-06
3.67843e-07
6.40398e-08
-5.43017e-06
3.41567e-07
4.72682e-08
3.19194e-07
2.22903e-08
-5.50399e-06
-4.81999e-06
5.51891e-07
-7.04167e-09
-4.89734e-06
7.76213e-07
2.71669e-08
-4.89632e-06
6.6729e-07
4.76503e-08
-5.02617e-06
5.7833e-07
5.7398e-08
-5.16316e-06
5.3165e-07
5.78721e-08
-5.25356e-06
4.95366e-07
4.87203e-08
-5.37895e-06
4.61206e-07
3.10544e-08
4.38442e-07
8.65043e-09
-5.52261e-06
-4.49631e-06
1.35139e-08
7.39149e-07
-4.54045e-06
3.22513e-08
7.88168e-07
-4.6486e-06
4.40975e-08
7.33141e-07
-4.74801e-06
4.89712e-08
6.94792e-07
-4.88437e-06
4.59018e-08
6.79164e-07
-5.01631e-06
3.48548e-08
6.72889e-07
-5.14767e-06
1.70222e-08
6.62022e-07
-7.43984e-09
6.53096e-07
-5.28191e-06
-2.9356e-06
-2.38669e-07
2.75564e-07
4.71688e-07
-3.42734e-06
-2.21824e-07
3.08405e-07
4.36579e-07
-3.91396e-06
-1.89255e-07
3.16305e-07
4.025e-07
-4.37614e-06
-1.62414e-07
2.99659e-07
3.72171e-07
-4.79683e-06
-1.41388e-07
2.60973e-07
3.45499e-07
-5.1627e-06
-1.24529e-07
2.03977e-07
3.21139e-07
-5.46499e-06
-1.10635e-07
1.33899e-07
2.98214e-07
-9.8857e-08
5.65623e-08
2.76285e-07
-5.70006e-06
-2.9902e-06
-1.11658e-07
3.46314e-07
-3.49803e-06
-6.64636e-08
3.85478e-07
-4.00148e-06
-3.3287e-08
3.9845e-07
-4.47334e-06
-1.14624e-08
3.81585e-07
-4.89229e-06
2.28512e-09
3.36978e-07
-5.2428e-06
1.05407e-08
2.69565e-07
-5.5163e-06
1.56898e-08
1.86146e-07
1.87234e-08
9.46928e-08
-5.71088e-06
-2.83408e-06
8.45143e-08
3.88914e-07
-3.41392e-06
1.00722e-07
4.29821e-07
-3.96395e-06
1.10783e-07
4.5344e-07
-4.4642e-06
1.14635e-07
4.41569e-07
-4.89828e-06
1.14247e-07
3.95468e-07
-5.25112e-06
1.1128e-07
3.21228e-07
-5.51448e-06
1.07111e-07
2.27553e-07
1.02108e-07
1.24691e-07
-5.68922e-06
-2.70366e-06
3.55611e-07
4.16795e-07
-3.33113e-06
3.04292e-07
4.40326e-07
-3.91299e-06
2.71266e-07
4.66158e-07
-4.43564e-06
2.4806e-07
4.55901e-07
-4.88595e-06
2.29099e-07
4.08361e-07
-5.24804e-06
2.13008e-07
3.29793e-07
-5.51574e-06
1.98773e-07
2.2986e-07
1.86115e-07
1.20386e-07
-5.68999e-06
-2.81947e-06
5.6369e-07
3.88248e-07
-3.39481e-06
4.77275e-07
4.15138e-07
-3.94172e-06
4.20161e-07
4.37355e-07
-4.43792e-06
3.80093e-07
4.24805e-07
-4.86853e-06
3.48642e-07
3.77099e-07
-5.21846e-06
3.2286e-07
3.00614e-07
-5.48015e-06
3.0106e-07
2.04503e-07
2.82252e-07
9.91783e-08
-5.65402e-06
-3.02613e-06
6.42243e-07
3.3319e-07
-3.4956e-06
6.0369e-07
3.67725e-07
-3.96941e-06
5.58805e-07
3.79945e-07
-4.41675e-06
5.205e-07
3.61546e-07
-4.81597e-06
4.88604e-07
3.14441e-07
-5.15058e-06
4.60852e-07
2.43505e-07
-5.41135e-06
4.35839e-07
1.56117e-07
4.12809e-07
6.0673e-08
-5.59422e-06
-3.00956e-06
2.67362e-07
7.85481e-07
-3.42481e-06
3.00227e-07
7.49053e-07
-3.84628e-06
3.08337e-07
7.13238e-07
-4.25275e-06
2.90685e-07
6.82589e-07
-4.62556e-06
2.49357e-07
6.55648e-07
-4.95032e-06
1.88447e-07
6.30552e-07
-5.21764e-06
1.13605e-07
6.06003e-07
3.12518e-08
5.81416e-07
-5.42475e-06
-2.7959e-06
-1.24275e-07
8.11746e-07
3.07828e-07
-3.57853e-06
-5.48531e-08
8.92047e-07
2.5383e-07
-4.39115e-06
-4.17386e-09
9.25273e-07
2.07879e-07
-5.19979e-06
2.70313e-08
9.12131e-07
1.69153e-07
-5.97756e-06
4.8395e-08
8.5365e-07
1.36683e-07
-6.69648e-06
6.24251e-08
7.5062e-07
1.09822e-07
-7.32527e-06
7.09574e-08
6.03694e-07
8.80315e-08
7.55155e-08
4.1778e-07
7.06739e-08
-7.83268e-06
-2.76146e-06
-3.80272e-08
1.05643e-06
-3.60051e-06
4.02128e-08
1.12926e-06
-4.44699e-06
8.55917e-08
1.15508e-06
-5.27898e-06
1.12698e-07
1.12782e-06
-6.06819e-06
1.27057e-07
1.04749e-06
-6.78415e-06
1.33144e-07
9.14749e-07
-7.39086e-06
1.3364e-07
7.30128e-07
1.30167e-07
4.99786e-07
-7.85062e-06
-2.51209e-06
8.65929e-08
1.22436e-06
-3.45559e-06
1.26417e-07
1.28709e-06
-4.37607e-06
1.47074e-07
1.31234e-06
-5.25625e-06
1.54548e-07
1.27977e-06
-6.0746e-06
1.53904e-07
1.18686e-06
-6.80336e-06
1.48813e-07
1.0342e-06
-7.40605e-06
1.41202e-07
8.22567e-07
1.32091e-07
5.59236e-07
-7.84257e-06
-2.34721e-06
2.87415e-07
1.28996e-06
-3.36226e-06
2.4571e-07
1.33598e-06
-4.32437e-06
2.14888e-07
1.36031e-06
-5.22921e-06
1.894e-07
1.32584e-06
-6.06164e-06
1.66921e-07
1.22773e-06
-6.79686e-06
1.47075e-07
1.0667e-06
-7.39971e-06
1.29871e-07
8.4398e-07
1.15352e-07
5.67626e-07
-7.83025e-06
-2.46956e-06
4.68256e-07
1.22299e-06
-3.44054e-06
3.6103e-07
1.27075e-06
-4.37104e-06
2.91441e-07
1.29119e-06
-5.25295e-06
2.4135e-07
1.2547e-06
-6.06889e-06
2.0268e-07
1.15719e-06
-6.79287e-06
1.72162e-07
9.99471e-07
-7.38959e-06
1.48173e-07
7.82901e-07
1.29655e-07
5.15442e-07
-7.82018e-06
-2.78125e-06
5.5058e-07
1.04359e-06
-3.6162e-06
4.59623e-07
1.10396e-06
-4.45883e-06
3.92215e-07
1.12177e-06
-5.28269e-06
3.40577e-07
1.08608e-06
-6.06166e-06
2.99754e-07
9.96291e-07
-6.76615e-06
2.66968e-07
8.53209e-07
-7.36078e-06
2.40616e-07
6.58328e-07
2.19527e-07
4.19173e-07
-7.80916e-06
-2.88412e-06
8.00646e-07
6.7511e-07
-3.62029e-06
8.73812e-07
6.22086e-07
-4.39344e-06
8.98716e-07
5.74965e-07
-5.17013e-06
8.74733e-07
5.3314e-07
-5.92031e-06
8.0327e-07
4.96014e-07
-6.61367e-06
6.85816e-07
4.62984e-07
-7.21719e-06
5.24164e-07
4.33603e-07
3.25007e-07
4.07521e-07
-7.69895e-06
-3.93938e-06
1.33234e-07
1.80956e-06
9.35369e-08
-5.31936e-06
2.2717e-07
2.02298e-06
2.20982e-08
-6.78061e-06
2.86986e-07
2.13361e-06
-3.39485e-08
-8.23251e-06
3.21579e-07
2.1212e-06
-7.87196e-08
-9.56702e-06
3.37526e-07
1.96294e-06
-1.1227e-07
-1.06605e-05
3.40032e-07
1.64139e-06
-1.3723e-07
-1.13836e-05
3.32571e-07
1.14982e-06
-1.55612e-07
3.17977e-07
4.90562e-07
-1.68826e-07
-1.16055e-05
-3.90109e-06
1.68368e-07
2.33452e-06
-5.34248e-06
2.61196e-07
2.53655e-06
-6.85378e-06
3.16817e-07
2.63653e-06
-8.35145e-06
3.43702e-07
2.60331e-06
-9.72339e-06
3.51057e-07
2.40592e-06
-1.0832e-05
3.44371e-07
2.019e-06
-1.15246e-05
3.27006e-07
1.4283e-06
3.01181e-07
6.27704e-07
-1.16357e-05
-3.68332e-06
1.59205e-07
2.6821e-06
-5.2191e-06
2.08827e-07
2.87535e-06
-6.79922e-06
2.3415e-07
2.97509e-06
-8.35169e-06
2.40213e-07
2.93565e-06
-9.76668e-06
2.34737e-07
2.71813e-06
-1.09005e-05
2.22126e-07
2.29021e-06
-1.15869e-05
2.04664e-07
1.63133e-06
1.83666e-07
7.28512e-07
-1.16387e-05
-3.54497e-06
1.98663e-07
2.80982e-06
-5.14729e-06
1.57234e-07
2.98979e-06
-6.76495e-06
1.23363e-07
3.08859e-06
-8.34088e-06
9.49589e-08
3.04705e-06
-9.77152e-06
7.10997e-08
2.82205e-06
-1.09138e-05
5.2678e-08
2.37843e-06
-1.15981e-05
3.97764e-08
1.69323e-06
3.19763e-08
7.51601e-07
-1.16303e-05
-3.66566e-06
2.51638e-07
2.68217e-06
-5.23217e-06
1.31583e-07
2.86289e-06
-6.82192e-06
4.77883e-08
2.95646e-06
-8.37354e-06
-9.95187e-09
2.91125e-06
-9.78395e-06
-4.85437e-08
2.68725e-06
-1.09113e-05
-7.26729e-08
2.25213e-06
-1.15902e-05
-8.40858e-08
1.58567e-06
-8.46699e-08
6.77151e-07
-1.16352e-05
-3.9791e-06
2.95572e-07
2.32463e-06
-5.42143e-06
1.63591e-07
2.51421e-06
-6.9242e-06
6.85534e-08
2.60383e-06
-8.40625e-06
-8.99879e-10
2.55906e-06
-9.76608e-06
-4.07679e-08
2.34838e-06
-1.08624e-05
-6.97849e-08
1.94673e-06
-1.15406e-05
-8.82049e-08
1.34068e-06
-9.87941e-08
5.28601e-07
-1.16359e-05
-4.05911e-06
1.79991e-06
4.79369e-07
-5.40964e-06
2.0042e-06
3.83691e-07
-6.8499e-06
2.10431e-06
3.03279e-07
-8.28941e-06
2.07887e-06
2.34427e-07
-9.60938e-06
1.9051e-06
1.77367e-07
-1.06873e-05
1.56518e-06
1.28835e-07
-1.13914e-05
1.05308e-06
8.69401e-08
3.7715e-07
5.00502e-08
-1.15924e-05
-4.55192e-06
3.65866e-07
-1.14668e-07
2.98228e-06
-6.22525e-06
4.67456e-07
-1.94806e-07
3.4239e-06
-8.12143e-06
5.27933e-07
-2.51229e-07
3.75318e-06
-1.02069e-05
5.60331e-07
-2.90051e-07
3.93642e-06
-1.24526e-05
5.74382e-07
-3.1267e-07
3.94691e-06
-1.48305e-05
5.7413e-07
-3.20189e-07
3.76539e-06
-1.73091e-05
5.54399e-07
-3.15168e-07
3.38923e-06
5.11471e-07
-2.99939e-07
-1.99206e-05
2.89052e-06
-4.64079e-06
3.5949e-07
3.82041e-06
-6.32328e-06
4.37263e-07
4.24934e-06
-8.20889e-06
4.82339e-07
4.56782e-06
-1.02783e-05
5.01369e-07
4.73178e-06
-1.2503e-05
5.03534e-07
4.70159e-06
-1.48474e-05
4.93488e-07
4.44409e-06
-1.72836e-05
4.70466e-07
3.94849e-06
4.30533e-07
-1.98808e-05
3.30592e-06
-4.55717e-06
2.26649e-07
4.37204e-06
-6.28195e-06
2.48829e-07
4.78869e-06
-8.18289e-06
2.51375e-07
5.10704e-06
-1.02543e-05
2.39273e-07
5.26921e-06
-1.24755e-05
2.20764e-07
5.22221e-06
-1.48122e-05
2.00658e-07
4.91984e-06
-1.7234e-05
1.80712e-07
4.34296e-06
1.59713e-07
-1.98306e-05
3.59603e-06
-4.49685e-06
7.873e-08
4.5775e-06
-6.24779e-06
9.57797e-09
4.97997e-06
-8.15152e-06
-5.24988e-08
5.29618e-06
-1.0215e-05
-1.08003e-07
5.45798e-06
-1.24251e-05
-1.52466e-07
5.4056e-06
-1.47507e-05
-1.82356e-07
5.08717e-06
-1.71616e-05
-1.95041e-07
4.48e-06
-1.88625e-07
-1.97549e-05
3.69345e-06
-4.5339e-06
-4.10438e-08
4.38273e-06
-6.25914e-06
-1.90252e-07
4.78806e-06
-8.14184e-06
-3.13226e-07
5.10001e-06
-1.01874e-05
-4.08423e-07
5.25741e-06
-1.23811e-05
-4.77552e-07
5.20613e-06
-1.4692e-05
-5.18878e-07
4.89967e-06
-1.70918e-05
-5.28057e-07
4.31849e-06
-5.00449e-07
-1.96694e-05
3.56657e-06
-4.6462e-06
-9.32453e-08
3.82468e-06
-6.29042e-06
-2.74103e-07
4.24235e-06
-8.12939e-06
-4.22471e-07
4.55219e-06
-1.0148e-05
-5.39394e-07
4.70867e-06
-1.23211e-05
-6.27369e-07
4.67134e-06
-1.46156e-05
-6.84448e-07
4.4069e-06
-1.70059e-05
-7.00867e-07
3.90384e-06
-6.70366e-07
-1.95603e-05
3.2529e-06
-4.50039e-06
7.92005e-08
2.98406e-06
-6.10741e-06
-8.31336e-08
3.42032e-06
-7.94163e-06
-2.28559e-07
3.74473e-06
-9.97075e-06
-3.54249e-07
3.92282e-06
-1.21632e-05
-4.56814e-07
3.927e-06
-1.44896e-05
-5.30393e-07
3.73745e-06
-1.69171e-05
-5.71097e-07
3.3509e-06
-5.76005e-07
-1.94742e-05
2.83982e-06
-3.12058e-06
3.90451e-07
4.32277e-08
-2.06063e-07
-3.28422e-06
3.00913e-07
5.68437e-08
-2.01289e-07
-3.51148e-06
3.32704e-07
6.54882e-08
-1.43757e-07
-3.76295e-06
3.41696e-07
6.50633e-08
-1.12613e-07
-4.03195e-06
3.55623e-07
5.52168e-08
-9.71583e-08
-4.30723e-06
3.72253e-07
3.67194e-08
-8.68498e-08
-4.55528e-06
3.74354e-07
1.19833e-08
-7.6283e-08
3.77058e-07
-2.41471e-08
-6.69442e-08
-4.78028e-06
-3.56105e-06
2.88287e-07
7.48797e-08
-3.42847e-06
1.60076e-07
8.95811e-08
-3.45246e-06
2.54741e-07
1.15412e-07
-3.53594e-06
2.72942e-07
1.34171e-07
-3.58158e-06
2.90318e-07
1.44239e-07
-3.72665e-06
2.95653e-07
1.44654e-07
-3.90482e-06
3.10273e-07
1.36278e-07
3.49101e-07
1.24505e-07
-3.99932e-06
-4.02123e-06
-6.14271e-08
1.46276e-07
-3.62308e-06
-9.71202e-08
1.21983e-07
-3.421e-06
-6.09836e-08
1.60072e-07
-3.29029e-06
-4.9896e-08
2.02976e-07
-3.18785e-06
-2.5903e-08
2.3847e-07
-3.17749e-06
5.75869e-09
2.64305e-07
-3.13862e-06
3.63324e-08
2.82846e-07
5.83597e-08
2.94291e-07
-3.04557e-06
-4.09363e-06
-3.66919e-07
1.88674e-07
-3.7311e-06
-3.14476e-07
1.39119e-07
-3.55396e-06
-3.71331e-07
1.87428e-07
-3.37712e-06
-3.88432e-07
2.49763e-07
-3.23332e-06
-4.00342e-07
3.04961e-07
-3.1381e-06
-4.02823e-07
3.45838e-07
-3.07e-06
-4.05421e-07
3.70491e-07
-4.37264e-07
3.85991e-07
-2.97783e-06
-3.83824e-06
-7.01492e-07
1.15929e-07
-3.57401e-06
-5.31372e-07
1.02811e-07
-3.38751e-06
-5.81375e-07
1.40115e-07
-3.28774e-06
-5.88645e-07
1.78071e-07
-3.23257e-06
-6.05989e-07
2.06369e-07
-3.21911e-06
-6.1646e-07
2.19239e-07
-3.32858e-06
-6.0785e-07
2.20247e-07
-5.94032e-07
2.14782e-07
-3.35816e-06
-3.35638e-06
-7.25167e-07
6.30079e-08
-3.45155e-06
-6.07632e-07
7.84689e-08
-3.53217e-06
-5.88185e-07
1.00249e-07
-3.66028e-06
-5.76839e-07
1.17095e-07
-3.78798e-06
-5.75271e-07
1.23261e-07
-3.908e-06
-5.80069e-07
1.18611e-07
-4.09626e-06
-5.84418e-07
1.04738e-07
-5.70494e-07
8.54151e-08
-4.28048e-06
-2.99019e-06
4.42605e-08
-4.39757e-07
-3.26344e-06
6.20198e-08
-4.03161e-07
-3.55096e-06
7.31818e-08
-3.33581e-07
-3.86324e-06
7.52243e-08
-2.9875e-07
-4.16935e-06
6.79312e-08
-2.79066e-07
-4.47848e-06
5.24796e-08
-2.67662e-07
-4.77182e-06
2.99932e-08
-2.60923e-07
4.04438e-09
-2.54439e-07
-5.01268e-06
-1.87418e-06
3.06961e-07
3.16579e-07
-1.5012e-07
-2.33232e-06
2.97464e-07
3.47656e-07
-1.32363e-07
-2.81096e-06
3.00246e-07
3.56456e-07
-1.15e-07
-3.28758e-06
3.06052e-07
3.35524e-07
-1.02011e-07
-3.74117e-06
3.13004e-07
2.86176e-07
-9.18115e-08
-4.154e-06
3.18817e-07
2.13186e-07
-8.32565e-08
-4.51206e-06
3.22188e-07
1.23162e-07
-7.55396e-08
3.228e-07
2.42703e-08
-6.81983e-08
-4.81486e-06
-1.93057e-06
1.45663e-07
4.75845e-07
-2.2328e-06
1.85056e-07
5.00316e-07
-2.57787e-06
2.17396e-07
5.3947e-07
-2.93768e-06
2.4022e-07
5.54421e-07
-3.28758e-06
2.63665e-07
5.3818e-07
-3.60776e-06
2.86444e-07
4.92656e-07
-3.88961e-06
3.07353e-07
4.25225e-07
3.26182e-07
3.46585e-07
-4.12231e-06
-1.69724e-06
-1.22944e-07
7.11702e-07
-1.95382e-06
-9.496e-08
6.51859e-07
-2.2214e-06
-7.54005e-08
7.12844e-07
-2.49211e-06
-6.28657e-08
7.68116e-07
-2.74612e-06
-4.78611e-08
7.94019e-07
-2.96158e-06
-3.02825e-08
7.87798e-07
-3.12678e-06
-1.09372e-08
7.53789e-07
6.65145e-09
7.01192e-07
-3.21807e-06
-1.59846e-06
-3.81975e-07
8.25275e-07
-1.87294e-06
-3.88551e-07
7.00852e-07
-2.13921e-06
-3.97801e-07
7.68039e-07
-2.39406e-06
-4.03375e-07
8.38186e-07
-2.61352e-06
-4.08146e-07
8.80083e-07
-2.77815e-06
-4.10939e-07
8.9e-07
-2.87943e-06
-4.12439e-07
8.72248e-07
-4.13691e-07
8.35536e-07
-2.90935e-06
-1.64874e-06
-5.89683e-07
6.45173e-07
-1.95057e-06
-6.02992e-07
6.11268e-07
-2.26657e-06
-6.16506e-07
6.671e-07
-2.58259e-06
-6.25393e-07
7.08159e-07
-2.87377e-06
-6.33596e-07
7.17099e-07
-3.12489e-06
-6.39855e-07
6.94419e-07
-3.32346e-06
-6.43261e-07
6.46226e-07
-6.44155e-07
5.8161e-07
-3.46898e-06
-1.75752e-06
-6.49085e-07
4.52866e-07
-2.14902e-06
-6.1998e-07
4.82808e-07
-2.57526e-06
-6.08226e-07
5.13538e-07
-3.00451e-06
-6.0117e-07
5.16204e-07
-3.41211e-06
-5.95866e-07
4.87474e-07
-3.77891e-06
-5.90324e-07
4.30885e-07
-4.09124e-06
-5.83416e-07
3.53522e-07
-5.7477e-07
2.65608e-07
-4.34538e-06
-1.6412e-06
3.26413e-07
-4.23214e-07
-2.16856e-06
3.61989e-07
-3.9574e-07
-2.70827e-06
3.72594e-07
-3.71055e-07
-3.23872e-06
3.53591e-07
-3.52142e-07
-3.73904e-06
3.07077e-07
-3.36962e-07
-4.19211e-06
2.37957e-07
-3.24215e-07
-4.58614e-06
1.52969e-07
-3.13087e-07
6.03084e-08
-3.02872e-07
-4.91442e-06
-1.63453e-06
2.92992e-07
8.63559e-07
-1.41749e-07
-2.42547e-06
3.27772e-07
9.35257e-07
-1.24633e-07
-3.25984e-06
3.40624e-07
9.61976e-07
-1.11784e-07
-4.10104e-06
3.43657e-07
9.34806e-07
-1.01724e-07
-4.91694e-06
3.40217e-07
8.54558e-07
-9.27617e-08
-5.67517e-06
3.31858e-07
7.23739e-07
-8.43243e-08
-6.34149e-06
3.19937e-07
5.45566e-07
-7.61618e-08
3.0591e-07
3.28746e-07
-6.82796e-08
-6.88366e-06
-1.31402e-06
1.76444e-07
1.23315e-06
-2.01868e-06
2.40584e-07
1.29186e-06
-2.76162e-06
2.69212e-07
1.35363e-06
-3.52118e-06
2.8683e-07
1.37069e-06
-4.27226e-06
2.99821e-07
1.32959e-06
-4.98297e-06
3.08618e-07
1.22644e-06
-5.61337e-06
3.13203e-07
1.06219e-06
3.13971e-07
8.45804e-07
-6.12074e-06
-7.78619e-07
-8.24394e-08
1.63039e-06
-1.42436e-06
-6.21294e-08
1.60026e-06
-2.08386e-06
-4.7382e-08
1.68879e-06
-2.74821e-06
-3.54505e-08
1.75455e-06
-3.39696e-06
-2.26043e-08
1.76505e-06
-4.00251e-06
-8.84231e-09
1.71059e-06
-4.52612e-06
4.0294e-09
1.58634e-06
1.38234e-08
1.39774e-06
-4.92264e-06
-5.48698e-07
-3.97716e-07
1.81602e-06
-1.19198e-06
-4.2158e-07
1.70346e-06
-1.84112e-06
-4.28323e-07
1.79796e-06
-2.49114e-06
-4.28689e-07
1.88125e-06
-3.12102e-06
-4.22954e-07
1.91019e-06
-3.70155e-06
-4.11277e-07
1.87281e-06
-4.19251e-06
-3.95371e-07
1.76247e-06
-3.77565e-07
1.58295e-06
-4.54862e-06
-7.96509e-07
-6.04335e-07
1.5499e-06
-1.49404e-06
-6.6019e-07
1.54724e-06
-2.20189e-06
-6.82713e-07
1.62906e-06
-2.91104e-06
-6.90677e-07
1.67909e-06
-3.60225e-06
-6.88244e-07
1.67342e-06
-4.248e-06
-6.77509e-07
1.60625e-06
-4.81052e-06
-6.60772e-07
1.47404e-06
-6.39776e-07
1.27753e-06
-5.24428e-06
-1.19484e-06
-6.31545e-07
1.1987e-06
-1.971e-06
-6.6525e-07
1.264e-06
-2.77803e-06
-6.77012e-07
1.3146e-06
-3.59215e-06
-6.7694e-07
1.31646e-06
-4.3879e-06
-6.68812e-07
1.2637e-06
-5.13579e-06
-6.54586e-07
1.15577e-06
-5.79648e-06
-6.35429e-07
9.8881e-07
-6.12556e-07
7.69232e-07
-6.32737e-06
-1.40344e-06
8.70541e-07
-4.28719e-07
-2.24041e-06
9.4873e-07
-4.15091e-07
-3.12157e-06
9.79114e-07
-4.02532e-07
-4.00946e-06
9.56659e-07
-3.92182e-07
-4.8715e-06
8.82651e-07
-3.82415e-07
-5.67537e-06
7.59418e-07
-3.7225e-07
-6.38622e-06
5.89488e-07
-3.61157e-07
3.80189e-07
-3.48915e-07
-6.9698e-06
-2.80635e-06
3.55653e-07
1.8702e-06
-1.09681e-07
-4.24603e-06
3.9212e-07
2.07394e-06
-9.14006e-08
-5.77477e-06
3.89926e-07
2.17778e-06
-7.69517e-08
-7.29263e-06
3.62885e-07
2.1551e-06
-6.52358e-08
-8.69069e-06
3.24949e-07
1.98203e-06
-5.44059e-08
-9.83695e-06
2.74259e-07
1.63968e-06
-4.40679e-08
-1.0596e-05
2.21387e-07
1.11766e-06
-3.45415e-08
1.67472e-07
4.21532e-07
-2.59093e-08
-1.08303e-05
-2.10573e-06
2.85771e-07
2.53078e-06
-3.48829e-06
3.33015e-07
2.73324e-06
-4.96425e-06
3.40464e-07
2.87899e-06
-6.46065e-06
3.30655e-07
2.89931e-06
-7.86151e-06
3.07048e-07
2.74832e-06
-9.03878e-06
2.82733e-07
2.39515e-06
-9.82398e-06
2.50806e-07
1.81789e-06
2.14691e-07
1.00222e-06
-1.00276e-05
-1.22816e-06
-6.22899e-08
3.09927e-06
-2.5133e-06
-2.63698e-08
3.24473e-06
-3.9081e-06
-6.72392e-09
3.43074e-06
-5.34405e-06
3.85303e-09
3.51717e-06
-6.72245e-06
1.27739e-08
3.43765e-06
-7.89182e-06
2.433e-08
3.13824e-06
-8.66969e-06
3.49277e-08
2.57997e-06
4.20975e-08
1.72503e-06
-8.82442e-06
-7.95581e-07
-4.12227e-07
3.35127e-06
-2.10253e-06
-4.43866e-07
3.42781e-06
-3.49944e-06
-4.36259e-07
3.62428e-06
-4.9356e-06
-4.1421e-07
3.73529e-06
-6.31235e-06
-3.81726e-07
3.68138e-06
-7.48079e-06
-3.44109e-07
3.40962e-06
-8.25565e-06
-3.05971e-07
2.87816e-06
-2.7024e-07
2.03132e-06
-8.39171e-06
-1.34869e-06
-7.01725e-07
3.02578e-06
-2.69514e-06
-7.42608e-07
3.19232e-06
-4.1367e-06
-7.36287e-07
3.37039e-06
-5.60998e-06
-7.01856e-07
3.43987e-06
-7.00919e-06
-6.49657e-07
3.34044e-06
-8.18725e-06
-5.88046e-07
3.02814e-06
-8.96601e-06
-5.21513e-07
2.46827e-06
-4.55479e-07
1.61819e-06
-9.12149e-06
-2.10479e-06
-6.9857e-07
2.4944e-06
-3.55122e-06
-7.34411e-07
2.70227e-06
-5.08542e-06
-7.26422e-07
2.83867e-06
-6.63198e-06
-6.90128e-07
2.85124e-06
-8.08e-06
-6.3721e-07
2.69923e-06
-9.28777e-06