/*--------------------------------*- C++ -*----------------------------------*\
| =========                 |                                                 |
| \\      /  F ield         | OpenFOAM: The Open Source CFD Toolbox           |
|  \\    /   O peration     | Version:  plus.master.MPPICInterFoam            |
|   \\  /    A nd           | Web:      www.OpenFOAM.com                      |
|    \\/     M anipulation  |                                                 |
\*---------------------------------------------------------------------------*/
FoamFile
{
    version     2.0;
    format      ascii;
    class       volScalarField;
    location    "0.8";
    object      k;
}
// * * * * * * * * * * * * * * * * * * * * * * * * * * * * * * * * * * * * * //

dimensions      [0 2 -2 0 0 0 0];

internalField   nonuniform List<scalar> 
11821
(
0.00113356
0.00114174
0.00111937
0.00113356
0.00111937
0.00109267
0.00109239
0.00111899
0.001133
0.00113739
0.00113302
0.00111903
0.00109251
0.00111899
0.0011412
0.00115309
0.00115681
0.00115312
0.00114126
0.0011191
0.00113301
0.00115309
0.00116372
0.00116703
0.00116375
0.00115316
0.00113312
0.0011374
0.00115682
0.00116703
0.00117021
0.00116707
0.00115689
0.00113751
0.00113303
0.00115312
0.00116375
0.00116707
0.00116379
0.00115318
0.0011331
0.00111905
0.00114126
0.00115316
0.00115689
0.00115318
0.00114128
0.00111906
0.00109252
0.00111911
0.00113312
0.00113751
0.0011331
0.00111906
0.00109245
0.00109249
0.00111905
0.00113303
0.00113739
0.00113299
0.00111898
0.00109243
0.00111905
0.00114124
0.0011531
0.0011568
0.00115308
0.0011412
0.00111902
0.00113303
0.0011531
0.00116371
0.001167
0.0011637
0.00115308
0.00113302
0.00113739
0.00115681
0.001167
0.00117016
0.00116699
0.00115679
0.00113739
0.001133
0.00115309
0.0011637
0.00116699
0.00116369
0.00115306
0.00113299
0.00111899
0.0011412
0.00115308
0.00115679
0.00115306
0.00114116
0.00111896
0.00109245
0.00111903
0.00113303
0.00113739
0.00113299
0.00111895
0.00109237
0.00109257
0.0011191
0.00113306
0.0011374
0.00113299
0.00111897
0.00109242
0.0011191
0.00114127
0.00115313
0.00115681
0.00115308
0.00114119
0.00111901
0.00113306
0.00115313
0.00116373
0.00116701
0.0011637
0.00115307
0.00113301
0.0011374
0.00115682
0.00116701
0.00117016
0.00116699
0.00115678
0.00113738
0.001133
0.00115309
0.0011637
0.00116699
0.00116368
0.00115305
0.00113298
0.00111899
0.0011412
0.00115308
0.00115678
0.00115306
0.00114116
0.00111896
0.00109244
0.00111902
0.00113302
0.00113738
0.00113298
0.00111896
0.00109239
0.00109258
0.00111911
0.00113307
0.00113741
0.00113301
0.001119
0.00109246
0.00111911
0.00114128
0.00115314
0.00115682
0.0011531
0.00114121
0.00111903
0.00113307
0.00115314
0.00116374
0.00116702
0.00116371
0.00115309
0.00113302
0.00113742
0.00115683
0.00116702
0.00117017
0.001167
0.00115679
0.0011374
0.00113302
0.0011531
0.00116371
0.001167
0.0011637
0.00115307
0.00113301
0.00111901
0.00114121
0.00115309
0.0011568
0.00115308
0.00114119
0.001119
0.00109247
0.00111904
0.00113303
0.0011374
0.00113301
0.001119
0.00109245
0.00109255
0.00111909
0.00113305
0.00113741
0.00113302
0.00111902
0.00109247
0.00111908
0.00114126
0.00115312
0.00115682
0.0011531
0.00114121
0.00111903
0.00113305
0.00115312
0.00116372
0.00116701
0.0011637
0.00115308
0.00113302
0.0011374
0.00115681
0.00116701
0.00117016
0.001167
0.00115679
0.0011374
0.00113301
0.00115309
0.0011637
0.001167
0.0011637
0.00115308
0.00113302
0.00111901
0.0011412
0.00115308
0.00115679
0.00115308
0.0011412
0.00111903
0.00109246
0.00111902
0.00113301
0.00113739
0.00113302
0.00111903
0.00109249
0.0010925
0.00111904
0.00113301
0.00113738
0.00113299
0.00111899
0.00109244
0.00111904
0.00114122
0.00115308
0.00115678
0.00115306
0.00114117
0.00111899
0.00113301
0.00115308
0.00116369
0.00116698
0.00116367
0.00115305
0.00113298
0.00113737
0.00115678
0.00116697
0.00117013
0.00116696
0.00115676
0.00113736
0.00113297
0.00115305
0.00116367
0.00116696
0.00116366
0.00115305
0.00113299
0.00111897
0.00114116
0.00115304
0.00115675
0.00115305
0.00114118
0.00111901
0.00109241
0.00111897
0.00113297
0.00113735
0.00113299
0.00111901
0.00109248
0.00109249
0.00111903
0.00113299
0.00113735
0.00113296
0.00111896
0.00109242
0.00111903
0.0011412
0.00115306
0.00115675
0.00115303
0.00114115
0.00111897
0.00113299
0.00115306
0.00116366
0.00116695
0.00116364
0.00115302
0.00113295
0.00113735
0.00115676
0.00116695
0.0011701
0.00116693
0.00115672
0.00113732
0.00113296
0.00115304
0.00116364
0.00116693
0.00116363
0.00115301
0.00113294
0.00111897
0.00114115
0.00115302
0.00115673
0.00115301
0.00114113
0.00111895
0.00109243
0.00111898
0.00113296
0.00113733
0.00113295
0.00111895
0.00109241
0.0010925
0.00111903
0.00113299
0.00113734
0.00113295
0.00111896
0.00109243
0.00111903
0.00114119
0.00115305
0.00115674
0.00115302
0.00114114
0.00111898
0.00113299
0.00115305
0.00116364
0.00116693
0.00116363
0.00115301
0.00113296
0.00113735
0.00115674
0.00116693
0.00117008
0.00116691
0.00115671
0.00113732
0.00113296
0.00115303
0.00116363
0.00116692
0.00116361
0.00115298
0.00113292
0.00111897
0.00114115
0.00115302
0.00115671
0.00115299
0.00114109
0.00111891
0.00109245
0.00111899
0.00113297
0.00113733
0.00113293
0.00111891
0.00109235
0.00109244
0.00111899
0.00113297
0.00113733
0.00113294
0.00111895
0.00109242
0.00111898
0.00114117
0.00115303
0.00115673
0.00115302
0.00114114
0.00111898
0.00113296
0.00115303
0.00116363
0.00116692
0.00116362
0.00115301
0.00113297
0.00113732
0.00115673
0.00116692
0.00117008
0.00116692
0.00115672
0.00113733
0.00113293
0.00115301
0.00116362
0.00116692
0.00116361
0.00115299
0.00113294
0.00111894
0.00114113
0.00115301
0.00115671
0.00115299
0.00114111
0.00111892
0.0010924
0.00111897
0.00113296
0.00113733
0.00113294
0.00111893
0.00109236
0.00109239
0.00111896
0.00113296
0.00113734
0.00113296
0.00111896
0.00109243
0.00111895
0.00114115
0.00115304
0.00115675
0.00115304
0.00114116
0.00111899
0.00113295
0.00115303
0.00116365
0.00116695
0.00116365
0.00115303
0.00113298
0.00113733
0.00115675
0.00116695
0.00117011
0.00116695
0.00115674
0.00113735
0.00113296
0.00115303
0.00116365
0.00116695
0.00116365
0.00115303
0.00113296
0.00111896
0.00114115
0.00115303
0.00115674
0.00115303
0.00114114
0.00111896
0.00109241
0.00111898
0.00113297
0.00113734
0.00113296
0.00111896
0.00109241
0.00109245
0.00111903
0.00113303
0.00113742
0.00113305
0.00111905
0.0010925
0.00111903
0.00114123
0.00115311
0.00115683
0.00115312
0.00114123
0.00111904
0.00113304
0.00115312
0.00116373
0.00116703
0.00116373
0.0011531
0.00113302
0.00113743
0.00115684
0.00116703
0.00117019
0.00116702
0.00115681
0.00113739
0.00113306
0.00115313
0.00116373
0.00116702
0.00116372
0.00115309
0.00113301
0.00111907
0.00114124
0.00115311
0.00115681
0.00115309
0.0011412
0.00111901
0.00109251
0.00111905
0.00113303
0.0011374
0.00113302
0.00111902
0.00109246
0.00109256
0.00111914
0.00113315
0.00113754
0.00113317
0.00111917
0.0010926
0.00111915
0.00114135
0.00115323
0.00115695
0.00115323
0.00114134
0.00111914
0.00113316
0.00115324
0.00116385
0.00116715
0.00116384
0.00115321
0.00113312
0.00113755
0.00115695
0.00116715
0.0011703
0.00116713
0.00115692
0.0011375
0.00113317
0.00115324
0.00116384
0.00116713
0.00116383
0.00115321
0.00113313
0.00111917
0.00114135
0.00115321
0.00115692
0.00115321
0.00114133
0.00111915
0.00109261
0.00111914
0.00113312
0.00113751
0.00113314
0.00111916
0.00109262
0.00109262
0.00111922
0.00113323
0.00113762
0.00113325
0.00111925
0.00109268
0.00111922
0.00114143
0.00115332
0.00115704
0.00115332
0.00114143
0.00111923
0.00113323
0.00115332
0.00116393
0.00116723
0.00116393
0.0011533
0.00113321
0.00113762
0.00115703
0.00116723
0.00117038
0.00116722
0.00115701
0.0011376
0.00113325
0.00115332
0.00116392
0.00116721
0.00116392
0.0011533
0.00113323
0.00111924
0.00114142
0.00115329
0.001157
0.00115329
0.00114142
0.00111925
0.00109266
0.00111921
0.0011332
0.00113759
0.00113323
0.00111925
0.00109273
0.00109265
0.00111924
0.00113325
0.00113763
0.00113325
0.00111925
0.00109268
0.00111924
0.00114145
0.00115333
0.00115704
0.00115332
0.00114143
0.00111923
0.00113325
0.00115333
0.00116394
0.00116723
0.00116392
0.00115329
0.00113321
0.00113763
0.00115704
0.00116723
0.00117038
0.00116721
0.00115699
0.00113758
0.00113325
0.00115332
0.00116392
0.0011672
0.0011639
0.00115328
0.00113321
0.00111924
0.00114142
0.00115328
0.00115699
0.00115328
0.0011414
0.00111922
0.00109266
0.00111921
0.00113319
0.00113757
0.0011332
0.00111922
0.00109268
0.00109262
0.00111919
0.00113318
0.00113756
0.00113317
0.00111917
0.00109261
0.00111919
0.00114139
0.00115325
0.00115696
0.00115323
0.00114135
0.00111916
0.00113318
0.00115325
0.00116385
0.00116714
0.00116383
0.00115321
0.00113314
0.00113756
0.00115695
0.00116714
0.00117029
0.00116712
0.00115691
0.00113751
0.00113317
0.00115323
0.00116383
0.00116712
0.00116381
0.0011532
0.00113313
0.00111917
0.00114134
0.0011532
0.00115691
0.00115319
0.00114132
0.00111914
0.00109261
0.00111915
0.00113313
0.00113751
0.00113313
0.00111914
0.0010926
0.00109256
0.00111911
0.0011331
0.00113748
0.0011331
0.00111911
0.00109258
0.00111912
0.0011413
0.00115317
0.00115688
0.00115317
0.00114129
0.00111912
0.00113311
0.00115317
0.00116378
0.00116707
0.00116378
0.00115316
0.00113311
0.00113748
0.00115688
0.00116707
0.00117023
0.00116707
0.00115687
0.00113749
0.00113311
0.00115317
0.00116378
0.00116707
0.00116378
0.00115316
0.00113311
0.00111912
0.0011413
0.00115317
0.00115687
0.00115317
0.00114129
0.00111913
0.00109259
0.00111912
0.00113311
0.00113749
0.00113311
0.00111913
0.0010926
0.00053197
0.000230218
0.00100924
0.000937159
0.00084279
0.000718937
0.000547326
0.000236965
0.00110809
0.00106944
0.00101607
0.000944453
0.000850041
0.000725508
0.000552452
0.000239196
0.00110254
0.00106297
0.0010089
0.000936883
0.000842528
0.000718675
0.000547084
0.000236799
0.00108559
0.00104356
0.000987607
0.000914557
0.000820498
0.000698727
0.000531459
0.000230006
0.00105421
0.00100989
0.00095175
0.000877657
0.000784454
0.000666052
0.000505375
0.000218895
0.00105416
0.00100991
0.000951802
0.00087772
0.000784511
0.00066609
0.000505388
0.000218896
0.00108549
0.00104357
0.0009877
0.00091471
0.000820696
0.00069895
0.000531673
0.000230122
0.00110232
0.00106288
0.00100891
0.000936957
0.000842656
0.00071884
0.000547263
0.000236918
0.00110768
0.00106913
0.00101587
0.000944317
0.000849947
0.00072544
0.000552405
0.000239172
0.00110225
0.00106277
0.00100876
0.000936784
0.000842455
0.000718618
0.000547042
0.000236775
0.00108538
0.00104341
0.000987491
0.000914459
0.00082041
0.000698643
0.000531383
0.000229971
0.00105405
0.00100976
0.000951628
0.000877535
0.000784326
0.000665916
0.000505241
0.000218832
0.00105408
0.00100982
0.000951707
0.000877626
0.000784419
0.000666004
0.000505314
0.000218855
0.00108539
0.00104347
0.0009876
0.000914612
0.000820601
0.000698859
0.000531599
0.000230071
0.0011022
0.00106276
0.0010088
0.000936856
0.00084256
0.000718748
0.000547178
0.000236858
0.00110756
0.00106903
0.00101577
0.00094423
0.000849864
0.000725362
0.000552333
0.000239121
0.00110214
0.00106267
0.00100868
0.000936708
0.000842381
0.000718546
0.000546974
0.000236737
0.00108529
0.00104334
0.000987422
0.000914392
0.000820342
0.000698575
0.000531317
0.000229935
0.00105398
0.00100969
0.000951567
0.000877475
0.000784264
0.000665853
0.000505179
0.000218797
0.00105407
0.00100982
0.000951714
0.000877648
0.00078446
0.000666065
0.00050539
0.000218892
0.00108538
0.00104346
0.000987585
0.000914599
0.00082059
0.000698852
0.000531594
0.000230061
0.00110218
0.00106274
0.00100877
0.00093682
0.000842516
0.000718696
0.000547121
0.000236803
0.00110755
0.00106901
0.00101575
0.000944195
0.000849819
0.000725306
0.000552271
0.000239058
0.00110214
0.00106267
0.00100867
0.000936692
0.000842357
0.000718513
0.000546933
0.0002367
0.0010853
0.00104335
0.00098744
0.000914413
0.000820362
0.000698591
0.000531327
0.000229925
0.001054
0.00100973
0.000951616
0.000877535
0.000784334
0.000665929
0.000505254
0.000218825
0.00105411
0.00100986
0.000951774
0.000877721
0.000784546
0.00066616
0.000505483
0.000218935
0.0010854
0.00104348
0.000987603
0.000914615
0.000820603
0.000698861
0.000531598
0.000230056
0.0011022
0.00106274
0.00100877
0.000936813
0.0008425
0.000718671
0.00054709
0.000236768
0.00110757
0.00106902
0.00101576
0.000944205
0.000849823
0.000725305
0.000552264
0.000239036
0.00110217
0.00106271
0.00100872
0.000936744
0.000842412
0.00071857
0.000546986
0.000236706
0.00108536
0.00104342
0.000987523
0.000914509
0.000820468
0.000698702
0.000531431
0.000229957
0.00105408
0.00100982
0.000951725
0.000877658
0.000784466
0.000666063
0.000505375
0.000218874
0.00105412
0.00100988
0.00095179
0.00087774
0.000784566
0.000666177
0.000505494
0.000218943
0.00108539
0.00104346
0.000987574
0.000914571
0.000820542
0.000698784
0.000531513
0.000230003
0.00110218
0.00106272
0.00100873
0.000936763
0.000842433
0.000718591
0.000547006
0.000236716
0.00110757
0.00106902
0.00101575
0.000944193
0.000849807
0.000725288
0.000552248
0.000239022
0.00110219
0.00106273
0.00100875
0.00093679
0.000842469
0.000718635
0.000547054
0.000236736
0.0010854
0.00104348
0.000987602
0.000914607
0.000820584
0.000698829
0.000531558
0.000230013
0.00105414
0.00100991
0.00095183
0.000877781
0.000784602
0.000666203
0.000505506
0.00021893
0.00105407
0.00100982
0.000951732
0.000877677
0.000784497
0.000666105
0.000505424
0.000218908
0.00108533
0.00104339
0.000987488
0.000914466
0.000820417
0.000698642
0.000531365
0.000229923
0.00110213
0.00106266
0.00100865
0.000936661
0.000842313
0.000718457
0.000546868
0.000236638
0.00110752
0.00106897
0.00101569
0.00094412
0.000849725
0.000725198
0.000552158
0.00023897
0.00110216
0.0010627
0.00100872
0.000936756
0.000842434
0.0007186
0.000547021
0.00023671
0.00108538
0.00104347
0.000987597
0.000914611
0.000820597
0.000698852
0.000531586
0.000230038
0.00105414
0.00100992
0.000951852
0.00087782
0.00078466
0.000666281
0.000505595
0.000218995
0.00105406
0.00100982
0.000951735
0.000877685
0.00078451
0.00066612
0.000505439
0.000218904
0.00108533
0.0010434
0.000987508
0.000914503
0.00082047
0.000698708
0.000531435
0.000229934
0.00110211
0.00106265
0.00100866
0.000936689
0.000842358
0.000718515
0.00054693
0.000236642
0.00110749
0.00106894
0.00101567
0.000944106
0.000849717
0.000725194
0.000552154
0.000238947
0.00110211
0.00106265
0.00100866
0.00093669
0.000842362
0.000718522
0.00054694
0.00023666
0.00108531
0.00104339
0.000987507
0.00091451
0.000820487
0.000698736
0.000531473
0.000229974
0.00105406
0.00100982
0.000951748
0.000877708
0.000784544
0.000666166
0.000505496
0.000218952
0.0010541
0.00100987
0.000951806
0.000877772
0.000784611
0.000666231
0.000505551
0.000218966
0.00108536
0.00104346
0.000987611
0.000914646
0.000820656
0.000698933
0.000531677
0.000230087
0.00110214
0.00106271
0.00100876
0.000936824
0.000842536
0.000718732
0.000547164
0.000236788
0.0011075
0.00106897
0.00101572
0.000944184
0.000849823
0.000725323
0.000552294
0.000239024
0.00110209
0.00106263
0.00100865
0.000936687
0.000842367
0.000718535
0.00054696
0.00023666
0.00108526
0.00104332
0.00098743
0.000914417
0.00082038
0.000698619
0.000531358
0.000229915
0.00105398
0.00100972
0.000951617
0.000877549
0.000784357
0.000665958
0.000505284
0.000218852
0.0010541
0.00100987
0.000951806
0.000877772
0.000784611
0.000666234
0.000505557
0.000218989
0.00108537
0.00104348
0.000987635
0.000914682
0.000820705
0.000698995
0.00053175
0.000230161
0.00110216
0.00106273
0.00100879
0.000936874
0.000842599
0.000718806
0.000547245
0.00023686
0.00110752
0.001069
0.00101576
0.000944235
0.000849885
0.000725395
0.000552369
0.000239083
0.00110211
0.00106266
0.00100869
0.000936733
0.000842421
0.000718597
0.000547027
0.000236703
0.00108528
0.00104335
0.000987457
0.000914447
0.000820413
0.000698654
0.000531394
0.000229927
0.00105399
0.00100974
0.000951634
0.000877562
0.000784365
0.00066596
0.000505278
0.000218835
0.00105408
0.00100984
0.000951757
0.000877705
0.000784528
0.000666138
0.000505459
0.000218934
0.00108536
0.00104344
0.000987569
0.000914582
0.000820571
0.00069883
0.000531572
0.000230035
0.00110215
0.0010627
0.00100873
0.000936778
0.000842468
0.000718643
0.000547067
0.000236732
0.00110752
0.00106898
0.00101572
0.000944172
0.000849795
0.000725282
0.000552245
0.000238992
0.00110213
0.00106267
0.00100868
0.000936714
0.000842388
0.000718551
0.000546972
0.000236666
0.00108532
0.00104338
0.000987489
0.000914479
0.000820442
0.00069868
0.000531414
0.000229934
0.00105404
0.00100979
0.000951695
0.000877633
0.000784445
0.000666046
0.000505365
0.000218873
0.00105412
0.00100987
0.000951772
0.000877707
0.000784516
0.000666112
0.00050542
0.000218911
0.00108537
0.00104341
0.000987498
0.000914459
0.000820393
0.0006986
0.000531311
0.000229886
0.00110216
0.00106266
0.00100864
0.000936631
0.000842264
0.000718391
0.000546792
0.000236577
0.00110753
0.00106896
0.00101566
0.000944064
0.000849646
0.000725099
0.000552047
0.000238882
0.00110216
0.00106267
0.00100866
0.000936668
0.000842315
0.000718453
0.000546857
0.000236595
0.00108536
0.00104342
0.000987516
0.000914495
0.000820446
0.000698668
0.000531385
0.000229904
0.0010541
0.00100985
0.000951752
0.00087769
0.000784501
0.000666098
0.000505407
0.000218885
0.00105421
0.00100995
0.000951832
0.000877748
0.000784537
0.000666112
0.000505402
0.000218895
0.00108545
0.00104348
0.000987536
0.000914472
0.000820379
0.000698563
0.000531258
0.000229842
0.00110224
0.00106273
0.00100869
0.000936664
0.000842279
0.000718393
0.000546784
0.000236548
0.00110764
0.00106906
0.00101575
0.000944145
0.00084972
0.000725166
0.000552103
0.000238881
0.00110228
0.0010628
0.0010088
0.000936807
0.000842456
0.000718593
0.000546983
0.000236628
0.00108551
0.00104358
0.000987696
0.000914688
0.00082065
0.000698877
0.000531579
0.000229974
0.00105427
0.00101004
0.000951961
0.000877915
0.000784737
0.000666336
0.000505624
0.000218974
0.00105429
0.00101001
0.000951876
0.000877773
0.000784542
0.000666099
0.000505373
0.000218864
0.00108555
0.00104357
0.000987632
0.00091457
0.000820483
0.000698675
0.00053137
0.000229882
0.00110235
0.00106285
0.00100881
0.000936799
0.00084243
0.000718556
0.000546947
0.000236609
0.00110774
0.00106917
0.00101588
0.00094429
0.000849878
0.000725331
0.000552261
0.00023894
0.00110239
0.00106292
0.00100893
0.000936949
0.000842609
0.000718752
0.000547135
0.000236694
0.00108562
0.0010437
0.000987822
0.000914822
0.000820789
0.000699019
0.000531713
0.000230049
0.00105439
0.00101016
0.000952084
0.000878038
0.000784859
0.000666452
0.000505726
0.000219032
0.00105429
0.00101001
0.000951872
0.000877768
0.000784538
0.000666097
0.000505372
0.000218844
0.00108556
0.00104358
0.000987648
0.000914589
0.000820505
0.000698697
0.000531387
0.000229873
0.00110235
0.00106286
0.00100883
0.00093682
0.000842454
0.000718578
0.00054696
0.000236599
0.00110774
0.00106917
0.00101588
0.000944291
0.00084988
0.000725331
0.000552255
0.000238925
0.00110237
0.0010629
0.0010089
0.000936909
0.000842562
0.000718697
0.000547074
0.000236653
0.00108558
0.00104365
0.00098775
0.00091473
0.000820677
0.000698887
0.000531572
0.000229961
0.00105432
0.00101007
0.000951975
0.000877902
0.000784696
0.000666266
0.000505533
0.000218925
0.00105423
0.00100997
0.000951856
0.000877774
0.000784565
0.000666143
0.00050543
0.000218853
0.0010855
0.00104355
0.000987641
0.000914608
0.000820548
0.00069876
0.000531459
0.000229886
0.00110229
0.00106282
0.00100882
0.000936835
0.000842491
0.000718635
0.000547027
0.000236612
0.00110768
0.00106913
0.00101585
0.000944286
0.000849894
0.000725364
0.000552303
0.000238946
0.0011023
0.00106284
0.00100885
0.000936884
0.000842552
0.000718704
0.000547096
0.000236661
0.00108551
0.00104358
0.000987698
0.000914691
0.000820651
0.000698876
0.000531574
0.000229943
0.00105425
0.00101001
0.00095192
0.000877859
0.000784665
0.00066625
0.000505531
0.000218901
0.00105423
0.00100999
0.000951915
0.000877871
0.000784702
0.000666313
0.000505618
0.00021897
0.00108549
0.00104357
0.00098769
0.000914696
0.000820675
0.000698923
0.000531645
0.000230016
0.00110228
0.00106283
0.00100885
0.000936895
0.00084258
0.00071875
0.000547161
0.000236731
0.00110766
0.00106913
0.00101587
0.000944327
0.000849955
0.000725445
0.000552397
0.000239035
0.00110229
0.00106285
0.00100888
0.000936928
0.000842617
0.000718787
0.000547193
0.00023675
0.00108551
0.0010436
0.000987738
0.000914757
0.000820746
0.000699
0.000531719
0.000230071
0.00105427
0.00101005
0.000951985
0.000877958
0.000784801
0.000666422
0.000505727
0.000219051
0.00105412
0.00100984
0.000951705
0.000877596
0.000784357
0.000665912
0.000505204
0.000218804
0.00108539
0.00104343
0.000987503
0.00091446
0.000820395
0.000698614
0.000531347
0.000229958
0.00110219
0.00106272
0.00100872
0.00093675
0.000842434
0.000718617
0.000547063
0.00023682
0.00110757
0.00106902
0.00101576
0.000944224
0.000849877
0.000725401
0.000552401
0.000239208
0.00110217
0.00106271
0.00100873
0.000936776
0.000842481
0.000718682
0.000547135
0.00023686
0.00108534
0.00104339
0.000987477
0.000914457
0.000820417
0.000698659
0.000531404
0.000229969
0.00105403
0.00100973
0.000951586
0.000877471
0.00078423
0.000665787
0.00050509
0.000218729
0.00105404
0.00100976
0.00095162
0.000877508
0.000784271
0.00066583
0.000505131
0.000218765
0.00108533
0.00104335
0.000987405
0.000914342
0.000820258
0.000698462
0.000531191
0.000229881
0.00110215
0.00106266
0.00100864
0.00093664
0.000842296
0.000718454
0.000546891
0.000236715
0.00110756
0.001069
0.00101573
0.000944168
0.000849794
0.000725292
0.000552276
0.000239105
0.00110221
0.00106274
0.00100876
0.000936806
0.000842498
0.000718683
0.00054712
0.00023683
0.00108542
0.00104349
0.000987599
0.000914596
0.000820566
0.000698809
0.000531539
0.000230015
0.00105416
0.0010099
0.000951787
0.000877704
0.000784489
0.000666059
0.000505345
0.000218829
0.00105404
0.00100976
0.000951632
0.000877535
0.000784315
0.000665891
0.000505203
0.000218795
0.00108531
0.00104333
0.000987374
0.000914302
0.000820209
0.000698404
0.000531128
0.000229834
0.00110214
0.00106262
0.00100858
0.000936556
0.00084218
0.00071831
0.00054673
0.000236616
0.00110756
0.00106898
0.00101569
0.000944097
0.000849689
0.000725155
0.000552117
0.000238996
0.00110223
0.00106276
0.00100877
0.000936804
0.000842478
0.000718641
0.000547058
0.000236761
0.00108548
0.00104356
0.000987686
0.000914695
0.000820675
0.000698919
0.00053164
0.000230071
0.00105425
0.00101002
0.000951952
0.000877911
0.000784737
0.000666338
0.00050563
0.000218983
0.00105408
0.00100982
0.000951709
0.000877634
0.000784436
0.000666029
0.000505344
0.000218862
0.00108535
0.00104338
0.000987448
0.0009144
0.000820331
0.000698546
0.000531274
0.000229886
0.00110216
0.00106266
0.00100863
0.00093661
0.000842244
0.00071838
0.000546798
0.000236622
0.00110757
0.001069
0.0010157
0.000944106
0.000849691
0.00072515
0.000552105
0.000238964
0.00110224
0.00106277
0.00100877
0.000936797
0.000842459
0.000718608
0.000547013
0.000236718
0.00108549
0.00104357
0.000987698
0.000914707
0.000820685
0.000698927
0.000531643
0.000230068
0.00105427
0.00101005
0.000951986
0.000877956
0.000784794
0.000666405
0.000505699
0.000219043
0.00105409
0.00100983
0.000951732
0.000877671
0.000784487
0.000666093
0.000505413
0.000218899
0.00108536
0.00104341
0.000987502
0.000914482
0.000820441
0.000698681
0.000531421
0.000229954
0.00110217
0.00106268
0.00100867
0.000936677
0.000842335
0.000718491
0.000546919
0.00023667
0.00110757
0.001069
0.00101571
0.000944124
0.00084972
0.000725189
0.00055215
0.000238974
0.00110222
0.00106274
0.00100875
0.000936763
0.000842423
0.000718571
0.000546979
0.000236694
0.00108546
0.00104353
0.000987647
0.000914648
0.000820618
0.000698854
0.000531569
0.000230019
0.00105423
0.00101
0.000951928
0.000877892
0.000784725
0.000666336
0.000505635
0.000219009
0.00105405
0.0010098
0.000951707
0.000877654
0.000784481
0.0006661
0.000505431
0.000218909
0.00108533
0.00104338
0.000987477
0.000914462
0.000820427
0.000698671
0.000531412
0.000229946
0.00110213
0.00106265
0.00100864
0.000936649
0.000842307
0.000718463
0.000546889
0.000236648
0.00110753
0.00106896
0.00101567
0.000944085
0.000849681
0.000725149
0.000552111
0.000238946
0.00110217
0.0010627
0.0010087
0.000936712
0.000842369
0.000718515
0.000546924
0.000236657
0.00108541
0.00104348
0.000987591
0.000914589
0.000820557
0.000698793
0.000531513
0.000229984
0.00105418
0.00100994
0.000951868
0.000877832
0.000784668
0.000666285
0.000505596
0.000218991
0.00105407
0.00100983
0.000951746
0.000877697
0.000784525
0.00066614
0.000505464
0.000218923
0.00108533
0.00104338
0.000987479
0.00091446
0.000820417
0.000698651
0.000531384
0.000229923
0.00110213
0.00106264
0.00100863
0.000936643
0.000842298
0.000718449
0.00054687
0.000236624
0.00110752
0.00106896
0.00101568
0.000944099
0.000849699
0.00072517
0.000552129
0.000238936
0.00110217
0.00106271
0.00100872
0.00093675
0.000842421
0.000718579
0.000546989
0.000236671
0.00108541
0.00104349
0.000987619
0.000914634
0.000820621
0.000698874
0.000531603
0.000230034
0.00105418
0.00100995
0.000951892
0.000877868
0.000784715
0.000666341
0.000505657
0.00021904
0.00105408
0.00100984
0.000951744
0.000877681
0.000784488
0.00066608
0.000505386
0.00021889
0.00108533
0.00104338
0.000987468
0.000914439
0.000820383
0.000698606
0.000531334
0.000229901
0.00110212
0.00106265
0.00100864
0.000936653
0.000842313
0.000718471
0.000546899
0.000236635
0.00110752
0.00106897
0.0010157
0.000944139
0.000849757
0.000725244
0.000552213
0.000238974
0.00110217
0.00106272
0.00100875
0.000936798
0.00084249
0.000718669
0.000547095
0.000236749
0.00108541
0.0010435
0.000987643
0.000914669
0.000820667
0.000698931
0.000531667
0.000230094
0.00105419
0.00100997
0.000951906
0.000877881
0.000784725
0.000666345
0.000505655
0.000219048
0.00105402
0.00100976
0.000951645
0.000877558
0.000784342
0.000665916
0.000505218
0.000218804
0.00108528
0.00104332
0.000987397
0.000914353
0.000820283
0.000698494
0.000531219
0.000229842
0.00110209
0.0010626
0.00100859
0.000936603
0.000842262
0.00071842
0.000546852
0.00023661
0.00110749
0.00106893
0.00101566
0.000944097
0.00084972
0.000725215
0.000552193
0.000238966
0.00110213
0.00106267
0.00100868
0.000936724
0.00084241
0.000718589
0.000547024
0.000236712
0.00108535
0.00104342
0.000987539
0.000914538
0.000820508
0.000698749
0.00053148
0.000229978
0.00105411
0.00100986
0.000951772
0.00087771
0.000784515
0.000666102
0.0005054
0.000218909
0.00105404
0.00100978
0.000951678
0.000877605
0.000784405
0.000665995
0.000505306
0.00021883
0.00108531
0.00104336
0.000987457
0.000914431
0.000820379
0.000698604
0.00053133
0.000229874
0.00110212
0.00106264
0.00100863
0.000936649
0.000842312
0.000718469
0.00054689
0.000236607
0.0011075
0.00106893
0.00101565
0.000944083
0.000849696
0.000725181
0.000552152
0.000238929
0.00110211
0.00106263
0.00100863
0.000936645
0.000842311
0.000718472
0.000546899
0.000236625
0.0010853
0.00104334
0.000987433
0.000914404
0.00082035
0.000698573
0.0005313
0.00022988
0.00105402
0.00100975
0.000951635
0.000877551
0.000784342
0.000665922
0.00050523
0.000218813
0.00105417
0.00100994
0.000951867
0.000877827
0.000784662
0.00066628
0.000505596
0.000218991
0.00108545
0.00104353
0.000987653
0.000914665
0.000820649
0.000698901
0.000531627
0.000230026
0.00110224
0.00106278
0.00100879
0.000936824
0.000842497
0.000718653
0.000547054
0.000236666
0.0011076
0.00106904
0.00101576
0.00094419
0.000849789
0.000725249
0.000552186
0.000238921
0.0011022
0.00106272
0.00100871
0.000936724
0.000842375
0.000718515
0.000546914
0.000236609
0.00108538
0.00104343
0.000987524
0.000914504
0.000820461
0.000698693
0.000531419
0.000229922
0.0010541
0.00100983
0.000951731
0.000877668
0.000784487
0.000666099
0.000505426
0.000218905
0.00105427
0.00101003
0.000951948
0.0008779
0.000784725
0.000666333
0.000505635
0.000219014
0.00108556
0.00104364
0.000987762
0.000914774
0.000820758
0.000699004
0.000531715
0.000230071
0.00110235
0.00106289
0.00100891
0.000936948
0.000842622
0.000718775
0.000547161
0.000236715
0.00110772
0.00106916
0.00101589
0.000944317
0.000849918
0.000725374
0.000552295
0.000238956
0.00110232
0.00106284
0.00100883
0.000936845
0.000842496
0.000718632
0.000547018
0.000236644
0.0010855
0.00104354
0.000987637
0.000914614
0.000820568
0.000698796
0.000531512
0.000229962
0.00105421
0.00100994
0.000951833
0.000877763
0.000784573
0.000666176
0.000505489
0.000218944
0.00105431
0.00101005
0.000951933
0.000877853
0.000784645
0.000666221
0.0005055
0.000218931
0.00108562
0.00104368
0.000987788
0.00091478
0.000820746
0.000698976
0.000531673
0.000230025
0.00110243
0.00106295
0.00100896
0.000936997
0.000842671
0.000718825
0.00054721
0.000236742
0.0011078
0.00106923
0.00101595
0.000944387
0.000849995
0.000725463
0.000552391
0.000239011
0.00110239
0.0010629
0.00100889
0.000936899
0.000842552
0.000718693
0.000547079
0.000236668
0.00108556
0.00104359
0.000987658
0.000914613
0.000820545
0.000698752
0.000531451
0.000229922
0.00105426
0.00100996
0.000951815
0.000877707
0.000784476
0.000666036
0.000505318
0.000218843
0.00105431
0.00101004
0.000951921
0.000877835
0.000784623
0.000666198
0.000505481
0.000218904
0.00108562
0.00104368
0.000987778
0.000914764
0.000820724
0.000698952
0.000531649
0.000230002
0.00110243
0.00106296
0.00100896
0.000936989
0.000842659
0.000718809
0.000547191
0.000236721
0.00110781
0.00106924
0.00101596
0.00094439
0.000849997
0.000725462
0.000552386
0.000238997
0.00110241
0.00106292
0.00100891
0.000936912
0.000842562
0.000718699
0.000547079
0.000236657
0.00108559
0.00104361
0.00098768
0.000914631
0.000820559
0.000698762
0.000531455
0.000229906
0.00105429
0.00100999
0.000951842
0.000877731
0.000784497
0.000666056
0.000505334
0.000218823
0.00105425
0.00101
0.000951897
0.000877826
0.000784628
0.000666213
0.000505502
0.000218895
0.00108555
0.00104361
0.000987722
0.000914714
0.000820677
0.000698907
0.000531611
0.000229969
0.00110235
0.00106289
0.0010089
0.00093693
0.000842603
0.000718757
0.000547148
0.000236694
0.00110773
0.00106918
0.00101591
0.000944343
0.000849957
0.00072543
0.000552365
0.000238988
0.00110235
0.00106287
0.00100887
0.000936892
0.000842553
0.000718699
0.000547089
0.000236653
0.00108554
0.00104359
0.000987677
0.000914647
0.000820591
0.000698804
0.000531502
0.000229912
0.00105427
0.00100999
0.000951873
0.000877786
0.000784575