/*--------------------------------*- C++ -*----------------------------------*\
| =========                 |                                                 |
| \\      /  F ield         | OpenFOAM: The Open Source CFD Toolbox           |
|  \\    /   O peration     | Version:  plus.master.MPPICInterFoam            |
|   \\  /    A nd           | Web:      www.OpenFOAM.com                      |
|    \\/     M anipulation  |                                                 |
\*---------------------------------------------------------------------------*/
FoamFile
{
    version     2.0;
    format      ascii;
    class       vectorField;
    location    "8.4/lagrangian/kinematicCloud";
    object      U;
}
// * * * * * * * * * * * * * * * * * * * * * * * * * * * * * * * * * * * * * //


93436
(
(-0.000367216 -0.00270355 -9.08776e-05)
(-0.000540659 0.000211962 0.000316698)
(-7.61914e-05 0.000158481 0.000247685)
(-0.00027931 0.00059568 0.000122427)
(-0.00059934 0.000145976 -0.00225156)
(0.000129744 0.000203642 0.00033782)
(-0.00038313 0.000121736 0.000325717)
(-0.000387627 -0.000361796 -0.002962)
(-0.000626734 -0.000200089 -0.000162255)
(-8.56181e-05 -7.46014e-06 0.000277626)
(-0.000505799 9.70332e-05 -0.00107484)
(-0.000899833 0.000184566 -0.00366221)
(-0.000447856 0.000777623 -0.00475101)
(-0.000444296 0.000444022 0.00806454)
(-0.000238013 6.11699e-05 0.000311821)
(0.00085088 -7.24445e-05 0.000400958)
(-0.000738201 -0.00186263 -1.46927e-05)
(0.000165507 -0.000386627 -0.000363127)
(-0.000699492 0.000126098 0.000513572)
(-0.000385274 -1.41619e-05 0.0019851)
(8.27748e-05 3.75238e-06 0.00254898)
(-0.000126453 0.000247634 0.00317381)
(0.000248392 0.000586105 -0.00170551)
(0.0003105 0.000463098 0.000327711)
(-0.000482405 0.000194356 -0.0015016)
(0.000295274 0.000304922 0.00029064)
(0.000365571 -0.000398881 0.0091778)
(1.8728e-05 1.14236e-05 0.000106494)
(0.000555236 0.000811246 -0.00320975)
(-0.000796311 1.94207e-05 -0.00116238)
(0.000367307 -0.00038976 0.00142757)
(-0.000647073 5.77962e-05 -0.00186459)
(0.000544142 -0.000484133 0.00336)
(0.000757187 -0.000844054 0.00224996)
(-0.00099855 -1.66767e-05 0.000521373)
(-0.000702987 0.00016288 -0.000741417)
(-0.000116937 -9.62548e-05 3.1552e-05)
(-5.82821e-05 8.91721e-06 0.000127324)
(0.000738328 -8.47633e-05 0.000423462)
(-0.000168463 6.99794e-05 0.000483229)
(-0.00101215 0.000482832 0.000339895)
(0.000242241 0.000568812 -0.00242442)
(-0.000660836 1.25681e-05 0.000473355)
(0.000246962 -0.000424353 0.00390576)
(0.000440322 -0.000488023 -0.00695254)
(-0.000627909 9.36877e-05 5.1489e-05)
(-0.00190942 3.55646e-05 -0.0165996)
(-0.0010557 -0.000330598 -0.0014049)
(0.000223851 0.00050531 0.000240927)
(0.000333025 -0.000514622 -0.00118567)
(-0.000880227 -1.19894e-05 0.000215239)
(0.000315768 -0.000465497 0.000377028)
(-0.000690516 -0.000187435 -0.00557869)
(-0.000244551 -3.47515e-05 -0.000146177)
(-0.00114825 0.000126641 0.000327648)
(-0.0007979 -0.000265694 -0.00255239)
(-0.000364421 0.000347047 0.000725523)
(-0.00083146 0.0018354 0.000294199)
(0.000313131 -0.000208595 0.000868676)
(-0.000525238 -0.000119014 0.000983578)
(-0.000560671 -4.98272e-05 -0.00106365)
(-0.000705242 7.07072e-05 0.000380681)
(-0.000892872 0.000187499 0.000488308)
(0.000378973 -0.00026248 0.000295244)
(0.00027768 0.000110046 -0.00336428)
(2.79311e-05 0.000567721 -0.00710716)
(3.66834e-06 8.805e-05 0.000473321)
(-0.000120882 -0.00134643 0.000287398)
(7.01176e-06 9.18457e-05 -0.000115157)
(-0.000725676 -2.5032e-05 0.00032685)
(-0.00119185 9.99307e-05 -0.0017514)
(-0.000399254 0.000399924 -0.00122638)
(-0.000709271 -0.000223249 0.000323863)
(-0.000713191 -0.000329187 0.000251709)
(-0.000580448 1.908e-05 4.7553e-05)
(3.45213e-05 0.000159577 0.00420039)
(-0.000115247 9.5556e-05 -0.000533935)
(-0.00194896 4.13593e-05 0.000328837)
(-0.00123638 -0.000907632 0.000468956)
(-0.000113973 -0.000392691 -0.00135985)
(-0.00107902 0.000264564 -0.00307098)
(0.000502659 0.00034909 0.000428261)
(0.000417575 -0.000470388 -0.00126699)
(-0.000683105 9.29666e-05 0.000194608)
(9.77735e-05 -7.3522e-05 -0.000375857)
(-0.00130509 -0.00107886 0.000284317)
(-0.0009704 0.000439789 -0.00209145)
(-9.03096e-05 0.000111394 -0.000357771)
(-0.000302414 0.000106481 -0.00132206)
(-0.000187136 -0.00115203 0.000316216)
(-0.000778479 0.000807894 0.00038562)
(-0.00136959 0.000358629 0.00820779)
(-0.000528303 3.65837e-05 -0.00367162)
(0.000432607 0.000619519 0.000267814)
(-0.00065603 -0.000432865 -0.00106316)
(0.000422698 0.000523329 -0.00410154)
(-0.000858978 0.000148172 0.000420583)
(-0.000216382 9.80027e-05 0.000324169)
(0.000557103 -0.000288428 -0.00284348)
(0.00250176 0.000147512 0.000511163)
(0.000357529 5.89844e-05 0.000574557)
(-5.02069e-05 0.00052409 1.54089e-05)
(-0.000218648 5.42571e-05 0.000392764)
(-0.000711936 -0.000537348 -0.00543148)
(-0.000722855 -0.00029592 0.000334995)
(0.000593192 -0.000540684 -0.00186801)
(-6.13401e-05 0.000109833 -0.000210913)
(0.000341485 -0.00033382 -0.00104845)
(-0.000255565 -0.000185641 0.00236032)
(1.83768e-05 -0.000498061 0.000498986)
(0.000476403 -0.00013071 0.00158847)
(-0.00074279 0.000436296 -0.00178013)
(-0.000347689 0.000376936 -0.00111034)
(-0.000824923 0.000138006 1.10537e-05)
(-0.000777051 0.000564912 0.000478277)
(-0.000531046 0.000428682 0.000196892)
(-0.00139041 -0.00028785 -0.00191461)
(-7.20602e-05 0.000376195 0.0066283)
(-0.000901057 -0.000186787 0.000240823)
(-0.000605456 0.000543148 -0.000111361)
(-0.000580437 3.31869e-05 -0.00194414)
(-0.000274662 0.000588275 0.000460403)
(-0.000619756 0.000354727 -0.00199856)
(0.000173195 0.000269677 -0.000958319)
(-0.000920836 0.000319981 0.000582791)
(-0.000401107 -0.00108785 0.000339852)
(-0.000813987 -0.00046624 4.07133e-05)
(-0.000125308 0.00068334 0.000370984)
(-0.000579226 0.000217552 -0.00115553)
(-0.000463491 2.54669e-05 -0.00180089)
(-0.000473155 0.000179614 0.000274482)
(-0.000980506 0.000670704 0.00182614)
(-0.000354536 7.77807e-05 -0.00436323)
(-0.000651734 -3.37445e-05 0.000279078)
(-0.000978214 -0.00021049 -0.00375585)
(2.51816e-05 4.06778e-06 -0.00193611)
(-0.000747085 -0.000340296 0.000296618)
(-0.00242682 0.000590714 -0.00527011)
(-5.54112e-05 9.24015e-05 0.000464255)
(0.000374704 -0.000263591 0.000279894)
(0.000195635 -0.000125368 0.0019738)
(-0.00129623 0.000343763 -0.00173579)
(0.000350742 0.000510359 -0.00111584)
(-0.000163609 0.000385609 -0.00277374)
(-0.00067247 -0.000184179 0.00538474)
(0.0011819 -8.52891e-05 -0.000573541)
(0.000239948 -0.000901561 0.000408327)
(-0.000428329 -0.000218465 0.000152076)
(0.000430632 0.000614714 -0.00182423)
(-0.000517092 0.000360733 -0.000233317)
(-0.00255105 0.000969913 -0.00212459)
(-0.00100323 0.000159569 -0.000232518)
(-0.00046587 -0.000446921 0.000891485)
(-0.000706302 -0.000224673 0.000345502)
(-0.00047033 0.000177073 0.000298775)
(0.000980573 0.000791436 -0.00110181)
(-0.00113908 0.000478761 -0.00191857)
(0.000409409 0.000582076 0.000340691)
(-0.0016158 0.000114478 -0.00118035)
(-0.000306719 0.00197547 -0.00107624)
(-0.00020253 0.000216895 0.000419417)
(-0.000432738 0.000154552 0.000530519)
(0.000386209 -0.000496042 -0.00163829)
(-0.00336539 -0.00292333 0.000221251)
(-0.000243975 0.00187264 -0.000264068)
(0.00065259 7.79656e-05 7.68832e-05)
(-0.00137572 0.00220855 3.51834e-05)
(-0.000413139 0.000416015 0.00458686)
(-0.000445504 0.000777114 -0.00162378)
(-0.000458327 0.000172705 0.000251237)
(-0.00140631 0.00208384 0.000102373)
(0.000117297 -0.000461262 0.000304281)
(-0.000746324 -4.60953e-05 0.000415058)
(-0.00280794 -0.000226139 -0.00127683)
(0.000329047 -0.000482667 0.000249514)
(0.000482712 0.000915405 0.000222814)
(0.00295277 0.000163613 6.66862e-05)
(2.11854e-05 9.52214e-05 -0.0022322)
(1.59883e-05 0.000117188 -0.00353643)
(-0.000763055 -0.000131856 -0.00172839)
(0.00372812 -0.00113053 -0.00112009)
(0.000374717 -0.000419778 -0.000858951)
(0.00051607 -0.000577405 0.00136437)
(0.000386026 0.000562024 0.000278731)
(-7.02754e-05 -0.000333615 0.000156752)
(-0.000794858 0.00023371 0.000483125)
(-0.000657079 0.000340468 -0.00192402)
(-0.000305358 -0.000120481 -0.00112509)
(0.000220423 9.94997e-05 -0.000366136)
(-0.000100499 8.85168e-05 -0.00614645)
(-0.000783447 0.00020948 0.002466)
(-0.00044893 -1.69559e-05 1.98021e-05)
(-0.000783087 -5.07962e-05 0.000901963)
(-0.00054761 0.000140606 -0.000179965)
(-1.66372e-05 -6.77245e-05 -0.00688975)
(-0.000953671 0.000563864 -0.00159925)
(-0.000163097 -3.92239e-05 -0.00563356)
(-0.000581835 4.15358e-05 -0.00182967)
(-0.00027555 -0.000526928 0.000668467)
(-0.000854836 -0.000283557 -0.00408637)
(-0.000814497 0.000216319 0.000354279)
(-7.95651e-05 -0.000366337 0.00101819)
(-0.00050663 -0.00018244 -0.000264537)
(0.000266361 -0.000256577 -0.000666329)
(0.000302011 0.00065448 -0.000955543)
(-0.000384106 0.000208401 0.0053145)
(-0.000841189 0.00048245 -0.00126808)
(-3.80284e-05 0.000136997 0.000363949)
(0.000143944 0.000225171 0.000331405)
(0.000258872 0.000521572 -0.00113909)
(-0.000529979 0.000481406 0.000339895)
(-0.00101341 0.000192034 -0.00188489)
(-0.000777624 -4.01766e-05 -0.00113438)
(0.000185052 0.000534421 0.000400598)
(-7.1843e-05 8.67601e-05 0.00289997)
(0.000173365 -0.000567589 -0.004251)
(1.30252e-05 6.42418e-05 0.00457844)
(0.000515987 0.00096129 -0.0031228)
(-0.000539814 0.000238691 -0.00120317)
(0.000302762 3.8413e-05 0.000124151)
(-0.000884643 -0.000287778 0.000310084)
(0.000327983 0.000379247 -0.00336078)
(-0.000127353 0.000591562 -0.00123962)
(-0.000590713 0.000340084 -0.00117336)
(0.000271591 -0.000357996 -0.00465619)
(0.00268789 0.000167796 0.000223719)
(-9.79547e-05 0.000248958 5.77749e-05)
(0.000204979 0.000418384 0.000400521)
(-0.00151384 -0.000320455 0.000268805)
(0.000438844 -0.000632235 -0.00469401)
(-0.000149326 0.000152759 -0.00537653)
(-0.000774016 -3.01143e-05 0.000359449)
(-9.37274e-05 -0.000325177 2.13824e-05)
(-0.000894336 0.00214296 8.234e-06)
(0.00217156 7.75979e-05 0.000232838)
(-0.00263862 -0.000264089 0.000295743)
(-0.000448295 -0.000116911 0.000448763)
(5.33297e-05 -6.10408e-05 -0.00592283)
(-0.000652898 -0.000241893 0.00132105)
(-0.000256175 -0.000511257 0.00484842)
(0.000231025 -0.00118776 -0.00166085)
(-0.000881262 -0.000291056 -0.00194877)
(0.000180998 0.000437583 0.000310313)
(-3.73348e-05 -0.000509616 0.000455012)
(3.65049e-05 -8.49173e-05 -0.00158636)
(0.000335883 -0.0002276 0.000473692)
(-0.000821485 0.000214277 0.000435328)
(0.000443181 -0.00032441 -0.00120195)
(9.1902e-05 0.000147172 0.000448185)
(-0.000945732 0.000157144 -0.00208613)
(0.00316516 -0.00017611 -0.00127245)
(-1.47966e-05 9.56713e-05 -0.0073675)
(0.000540993 0.00134182 -0.00211933)
(0.00032618 -0.000419545 0.000325518)
(-9.70196e-05 0.000232533 0.000246417)
(0.000332376 -0.000408934 -0.00414457)
(0.000264653 -0.000393353 0.000591502)
(-0.000508597 -6.13654e-05 -0.00114405)
(-0.00123007 3.41546e-05 0.00208914)
(0.000463413 -0.000412841 0.000270781)
(0.000112464 0.000134387 0.00171878)
(0.00156402 -0.000763284 0.000484388)
(0.000331123 0.000486236 -9.38591e-06)
(-0.000173994 4.94134e-05 0.00021066)
(-0.000406413 -0.000324466 -0.000910691)
(-4.45908e-05 8.62711e-05 -5.4299e-05)
(0.000485121 -0.000144176 -0.00149242)
(-0.000840707 0.000230723 -0.0019037)
(0.00011704 -0.000210109 -0.00107745)
(-0.000887109 -0.00300529 -0.0031568)
(-0.0001777 0.000550132 0.000359281)
(-0.00042165 2.33846e-05 0.000316992)
(-0.00124286 0.000255305 0.00137512)
(-0.00241378 0.00133421 -0.00111834)
(-0.000760356 -0.000346086 0.000312297)
(-0.00129225 0.000813706 0.00142107)
(-0.000101108 0.000435897 0.000357965)
(-0.00131904 9.65799e-05 0.000327762)
(0.000234113 -0.000468129 -6.44627e-06)
(-0.000638401 0.000335045 0.00119504)
(-0.000665714 -0.000301137 -0.000202083)
(-0.00114664 0.000131992 0.000281858)
(-0.000737003 -0.000235138 -0.000303857)
(0.000197819 1.37845e-05 0.00771468)
(-0.000285479 4.91959e-05 0.00030377)
(0.000759592 -0.000667552 -0.000800403)
(-7.26682e-05 0.00190284 -0.00407683)
(0.00188172 -0.000924407 -0.00340169)
(-0.00196227 0.0023924 -0.00113163)
(-0.000880458 0.000136217 -0.00159276)
(-0.000599186 0.000177655 -0.00118278)
(0.000368191 -0.00022293 -0.00189806)
(-0.0013968 -0.00102054 0.000318222)
(-5.45363e-05 0.000168169 -0.000842939)
(0.000445519 -0.00028428 -0.00188926)
(-0.000468996 0.000333181 0.000370004)
(-0.000247171 0.000244965 0.000216666)
(-0.00129705 -0.00062147 0.00225137)
(-0.00101572 -0.0016402 0.00046788)
(-4.74315e-05 0.000453247 -0.00896796)
(-0.000725933 -0.000210108 -0.00262302)
(0.000340124 0.000453164 0.000299248)
(-0.000264462 5.65702e-05 0.000300625)
(0.000371032 0.000664255 -0.000351939)
(0.00045458 -0.000515502 0.000292896)
(0.000207947 0.000536111 0.000235505)
(0.000245538 0.000564541 -0.00195562)
(-0.000827818 5.30507e-05 -0.00168327)
(-0.00061123 0.000334709 -0.000640417)
(0.000177867 0.000511311 0.000455611)
(0.000132462 0.000205695 -0.00191812)
(-0.000102517 0.000238649 0.000286999)
(0.000135787 -0.000289014 -0.0031118)
(-0.000788523 -0.0002566 -0.000282204)
(-8.10338e-05 8.64147e-05 -0.00721298)
(-0.000546245 9.38391e-05 0.000501178)
(-0.000699939 -0.000231481 0.00024233)
(0.000470637 -0.000242006 0.0006108)
(0.000558933 0.000555139 -0.0064936)
(-0.000704962 0.000635699 0.000291842)
(0.000362439 -0.000411205 -8.8807e-05)
(-0.000291227 0.000218846 -0.00611485)
(0.000361628 -0.00032537 -0.00322024)
(0.000530077 0.000664382 0.000371134)
(-0.001061 -0.00154404 -0.00534213)
(-0.00185683 -0.000997817 -0.002467)
(-0.00154238 -0.00111344 -0.0019849)
(8.30464e-06 0.000158794 0.00339435)
(9.28654e-05 0.000770533 0.000180147)
(-0.000298999 8.86607e-05 0.000377066)
(0.000181224 -0.000389108 -0.00176363)
(-0.000110941 0.000546564 0.000164476)
(-0.000783081 0.00017068 0.000271002)
(0.000110006 -0.000437606 0.000318626)
(0.000465005 0.000566715 -0.00547596)
(-0.00379816 -0.00247015 0.000295746)
(0.000278609 -2.85539e-06 0.000321692)
(0.000369333 -0.000265356 -0.00180389)
(0.000174156 -0.000979419 0.000311938)
(-0.00073298 -0.000234363 0.000364721)
(-0.000218983 -0.000318518 1.33069e-06)
(9.36565e-05 -7.91944e-05 0.000585023)
(-0.000520762 0.000185458 0.000324346)
(8.5613e-05 -0.000409981 -0.000930728)
(-0.00417372 9.79417e-05 -0.00519056)
(-0.00143981 0.000179906 0.000317225)
(0.000363229 -0.000409474 -0.00141927)
(0.000415608 0.00060395 -0.000889661)
(0.000424416 0.000531451 0.000694428)
(-0.000676144 0.000338828 9.41918e-07)
(-0.000962131 -0.000132362 -0.00499501)
(-0.000807713 0.00043976 0.000331214)
(0.00015175 0.000424341 0.000216543)
(-8.21897e-05 -0.000401544 0.000367662)
(-0.00022744 6.01392e-05 0.00352294)
(0.000373427 -0.000265171 0.000303971)
(0.0002849 0.000616176 -0.00110518)
(-0.000124286 0.000620837 -0.000291897)
(-0.000639611 6.62009e-05 -0.000437143)
(-0.000994587 -0.000529263 0.000280758)
(-0.000333379 -1.89048e-05 -0.00415322)
(-0.00122826 0.000411786 -0.00097865)
(0.000275029 -0.000424848 5.03387e-05)
(-0.000579766 3.3005e-05 0.000343756)
(-0.000205348 0.000543894 -0.00151481)
(0.000193199 -0.000288262 -0.00421635)
(0.00033776 9.35801e-05 -0.000199901)
(0.000226976 0.000535848 0.000349573)
(-0.000125333 6.1181e-05 0.000311629)
(0.0003032 -0.000288713 -0.00131119)
(-0.00115101 0.00034174 0.000274009)
(9.98814e-05 -0.000285424 0.000425646)
(-0.000760471 3.65037e-05 -0.00112829)
(-0.000286476 0.000135414 -0.00115229)
(0.000146971 0.000227236 0.000299622)
(-0.00054492 -0.000248667 0.00030869)
(0.00196838 -0.000540325 0.000338029)
(-0.00113129 0.000189163 -0.000175)
(-0.00158482 -5.9365e-05 0.00051634)
(-0.000968177 0.000467502 0.000636124)
(-0.000516651 0.000178979 0.0003209)
(-6.89333e-05 -0.000692441 0.00037913)
(0.000489946 -0.000311211 0.000354796)
(-0.000581406 6.2271e-05 -4.42072e-05)
(0.000220618 0.000477405 0.00245097)
(0.000130888 0.000202717 8.3679e-05)
(-0.000478534 0.000426515 0.00411104)
(-0.000215334 -0.000325192 -0.00047885)
(-0.000648546 0.000193181 -0.00227138)
(0.000209438 0.00049585 0.00227473)
(-0.000134826 0.000694533 -0.000214363)
(-0.000577647 0.00036731 0.00420132)
(-0.000748288 -0.000337887 0.0003468)
(0.000378376 -0.000261326 0.0002932)
(0.00192469 -0.00219437 -0.00108904)
(0.000215824 0.000578531 0.000217776)
(0.000416971 -0.000469771 0.000364658)
(-0.00152075 0.000110514 -0.0014921)
(0.000296939 0.00055752 -0.00130527)
(0.000267289 0.000576245 0.000363728)
(-0.000582823 -0.000228302 0.000140757)
(-0.000849863 0.000209595 0.000504199)
(0.000453571 8.44433e-05 -0.000844128)
(-0.00133892 0.000638504 0.000847547)
(-0.0012733 -5.51014e-05 0.000459314)
(0.0002499 0.000381093 0.00488937)
(-0.000555641 0.000128101 -0.00762333)
(0.000591073 4.51919e-05 0.000367927)
(-0.000807658 -0.000386846 0.00647192)
(-8.67655e-05 -0.000413688 0.000313737)
(0.00054085 -0.000551975 0.00259145)
(-0.000133083 -0.00148423 0.00157636)
(-0.000673631 0.00257497 -0.0169122)
(0.000215384 -0.000454962 0.000783829)
(0.000532349 0.000363052 -0.00120095)
(-0.000106119 -0.000360934 0.000324259)
(0.00037462 0.000541942 -0.00176582)
(0.000333131 -0.000199302 -0.00114361)
(-0.000272592 0.000160102 0.000329333)
(4.37151e-05 0.00013074 0.000249918)
(0.00016435 -0.000414626 0.000449779)
(-0.000580948 -0.0003238 -0.00157113)
(0.000263414 0.000560652 0.000299448)
(-0.000764636 -0.00273854 -0.00160141)
(-0.000293617 0.000312465 -0.00246465)
(-0.000881861 0.000129154 0.000307868)
(-0.00143437 -8.1939e-05 0.000941851)
(-0.000681085 0.000259185 -0.00409723)
(0.00053756 0.000448704 0.00402502)
(0.000120649 0.000545637 0.000231075)
(-0.000264691 0.000116077 -0.00154457)
(-0.000554147 -0.000250015 0.000358249)
(-0.000792751 0.000235461 -0.00376018)
(0.000405828 -9.73608e-05 -0.00124752)
(-1.26739e-05 5.73145e-05 -0.00588426)
(-0.000132572 -0.000111126 0.000700745)
(-0.00127807 -0.000426046 -0.00133656)
(0.000386002 -0.000443292 0.000162226)
(-0.000202069 8.21465e-05 0.00047645)
(0.000701937 0.000759385 -0.00396504)
(-0.000283089 5.58702e-05 0.000185964)
(6.74422e-05 -9.11817e-05 -0.00181866)
(-0.000801014 0.000725018 0.000518768)
(-0.000379263 0.000210118 -0.00194497)
(0.000451517 0.000656055 7.89668e-05)
(-0.00119333 0.00171022 0.00202634)
(0.000257995 0.000244024 0.00300958)
(9.94245e-05 -0.000282645 -2.43442e-05)
(0.00210001 -0.000619772 -0.00132869)
(-4.57839e-05 0.000125395 -0.00266)
(-0.0014398 0.00160353 1.09001e-05)
(-0.000777072 0.000209285 -0.0010861)
(5.88215e-05 -6.56498e-05 0.00289169)
(-0.000849361 -0.000386111 0.00187465)
(-0.000884723 0.000145093 -0.00479753)
(0.00064329 0.000866094 0.000209503)
(-0.000650467 -1.13175e-05 0.000106998)
(-0.000771611 0.000212238 0.000301119)
(-0.00170203 0.000221567 0.000718426)
(-0.000656359 -5.01793e-06 0.00034784)
(0.000114136 0.00082873 -0.00163055)
(-0.00038851 0.000307305 -0.00193712)
(-0.00225272 -6.44792e-05 6.72233e-05)
(-0.000834666 0.000563902 0.000634636)
(-0.000684254 -0.000322286 0.000360293)
(-0.000522935 -0.000160949 0.00204871)
(0.000174855 0.00055982 0.00671158)
(-0.00139285 0.000106269 0.000586313)
(-0.000316299 0.000782836 -0.00136233)
(0.00043304 0.000621908 -0.00242468)
(0.000132502 0.00020649 0.000713459)
(-0.000131306 0.000563878 -0.000310809)
(0.000372998 0.000453586 0.0015729)
(0.000543212 0.000673389 0.000308339)
(2.8212e-05 8.38343e-05 -0.000380603)
(1.18533e-05 -0.000433164 -0.000216241)
(-0.000911315 -0.000340005 0.000316049)
(-0.000139354 0.000208318 -0.00338821)
(-0.000472973 5.18911e-05 0.000463881)
(0.000238507 -0.0004352 -0.00124464)
(-0.000855539 0.000155698 -0.00177576)
(-0.00129221 -9.2041e-05 -0.00242856)
(6.44356e-05 -0.000751048 -0.000263884)
(-0.00178535 -0.00017681 -0.00170873)
(-0.000622689 0.000118634 0.000259076)
(-0.000212073 9.11165e-05 0.000173343)
(-0.00056855 0.000162704 -0.00235656)
(-0.000584039 3.31334e-05 0.000336515)
(-0.00109014 9.19817e-05 -0.00353974)
(0.000165969 -0.000172626 -0.00298574)
(-0.000677658 -0.000306859 -0.00195206)
(-0.000923422 -0.00019864 0.00026147)
(-0.000529364 0.000812621 0.00024352)
(0.000243711 0.00013281 0.00032421)
(-0.000428453 -4.62791e-05 0.000303459)
(-0.000263353 0.000278695 -0.00290546)
(8.79359e-05 0.000456613 -0.000503939)
(0.000210127 -0.000138527 -0.00333843)
(-0.000476354 0.000138029 0.000215439)
(0.000340607 -2.90374e-05 -0.00372875)
(-0.000939999 0.000223931 0.000207458)
(0.000280224 0.000612635 0.000327844)
(-0.000215869 6.04149e-05 0.000328646)
(0.000172723 0.000509688 0.00047395)
(-9.42431e-05 -0.00252243 -0.0012722)
(0.000310719 -0.000520249 -0.00610162)
(-0.00059853 0.000238502 0.000491643)
(-0.000220498 0.000136161 0.00284276)
(-0.000453109 0.000174083 -0.000152948)
(-0.000868659 -4.65481e-05 -0.00192518)
(0.000186019 0.000234017 -0.00691631)
(0.000249475 0.00022296 -0.00528728)
(0.000273858 -0.00024975 0.00503057)
(-2.07687e-05 -0.000354085 -0.00112148)
(0.000470077 0.000678033 -0.00145105)
(-0.000156665 8.5635e-05 -0.00224424)
(-0.000457703 0.00012674 -0.000641865)
(1.40473e-05 2.01986e-05 0.000199486)
(0.00287257 0.000156755 0.000154131)
(-0.000203112 8.29011e-05 0.000707011)
(0.000355312 -0.000107297 0.000334079)
(-6.77905e-05 1.27338e-05 -0.0013705)
(-1.99037e-05 0.00010297 0.000126509)
(-0.000536993 0.000291158 -0.000466303)
(-0.000221532 6.18325e-05 0.000319033)
(-0.000550276 -3.30648e-05 -7.00272e-05)
(-0.000694714 0.000152055 6.79707e-06)
(0.000310619 -0.000117231 0.0080022)
(-0.000202807 6.10342e-05 0.000328718)
(-0.000651643 -0.000138415 0.00190708)
(-0.00027901 0.000120169 -0.00110965)
(0.000234487 0.000543428 0.000355373)
(0.000854809 -0.000429913 0.000289864)
(-0.000802897 0.000198754 -0.00190903)
(-0.000454052 0.000173806 -0.001293)
(0.000547923 0.000683294 0.00348021)
(0.000421782 -0.000644822 -0.0061927)
(3.55293e-05 -0.000343687 -0.00387008)
(0.000207772 0.000172563 1.36769e-05)
(0.000380463 0.00205989 -0.00457244)
(0.000534363 0.000598822 0.000273842)
(-0.00070884 -2.09804e-05 0.000394812)
(0.000302791 0.000638016 -0.00226342)
(-0.00103161 0.000652264 -0.00165202)
(0.000140708 -0.000943336 -0.00115864)
(-0.000754386 0.00037212 0.000380768)
(-0.000698716 0.000579518 0.000537627)
(-8.18208e-05 -0.000409539 -0.00148138)
(0.00290503 -0.00056447 -0.000981771)
(-0.000335271 0.000899938 0.000344414)
(3.49613e-05 -6.22132e-06 -0.00125828)
(0.000331683 0.00066336 0.00332187)
(0.000415109 0.00051935 0.000578537)
(0.00037773 -0.000249667 -0.00256699)
(4.1555e-05 8.05218e-05 -0.00106529)
(-0.00141348 0.000364241 0.000295105)
(-0.000677425 0.000207494 0.00151576)
(-7.59468e-05 0.00011253 0.00340483)
(-0.00140608 0.000209685 -0.000750918)
(-0.000277211 0.00029946 -0.000306451)
(0.000545483 0.0008741 -0.00685998)
(-8.59635e-05 0.000422087 -0.00394865)
(0.000248247 4.47358e-05 0.00187792)
(-0.000108358 4.21983e-05 -0.0010119)
(0.000125152 2.83971e-05 0.000330404)
(-0.000491889 0.00016828 0.000415499)
(0.000851478 -0.000214665 0.00228963)
(0.000198857 0.000567755 0.000325241)
(0.00104445 -0.000130122 -0.00408598)
(-0.000327799 -5.77238e-05 0.00445052)
(-0.00056428 -0.000174421 0.000357544)
(0.000458002 -0.000521649 0.000336769)
(0.000429799 0.000537967 0.000404174)
(0.000573377 -0.000519686 0.00027107)
(-0.000174813 -1.82221e-05 -0.00407336)
(5.95021e-05 0.000577984 -0.00368415)
(-0.000721635 -0.000258072 0.00033892)
(-7.10272e-05 0.000154451 -0.00019307)
(-0.00194851 0.000208986 0.000175288)
(9.12625e-05 0.00046504 0.00117642)
(0.000487689 -0.000447092 0.000219788)
(-0.000655194 0.000466536 -0.0023614)
(0.00023085 0.000541572 0.00280106)
(-0.00145914 0.00231619 -0.00120378)
(0.00042895 -0.00026746 0.000549439)
(-7.47752e-05 0.000499036 0.000337647)
(-0.000259954 0.000387466 -0.00180354)
(-7.9984e-05 -0.000302369 -0.000347011)
(2.99492e-05 -0.000752494 -0.0031496)
(8.2438e-05 -8.03328e-05 -0.00607515)
(-4.58852e-06 8.64608e-05 0.00038845)
(-0.000253726 0.000387684 -0.00196112)
(-0.000971942 0.000637898 0.00027614)
(-0.000674253 -0.0002563 0.000333803)
(-0.000665613 -0.000138921 0.000392067)
(0.000680158 -0.00243593 -0.00166254)
(1.15865e-05 8.14876e-05 0.0005133)
(-5.39547e-05 -1.88517e-05 0.00764753)
(0.000294587 -7.37031e-05 0.000309868)
(-0.000744049 -0.000237587 0.000322455)
(0.000281909 0.000625346 0.00715023)
(-0.000245966 -0.00230451 -0.00180398)
(0.000340484 -0.000599778 0.000518064)
(-0.000675128 -0.000281634 0.000322915)
(-0.00026377 0.002264 -0.000925266)
(-0.000521804 0.000198564 0.000285576)
(0.000403374 0.000624117 0.00392671)
(0.000348309 -0.000128012 -0.000258327)
(-0.00047019 0.000136635 0.000119395)
(-0.000112278 0.000412602 0.00176527)
(-4.93045e-05 8.664e-05 -0.00155941)
(1.78047e-05 -0.000147818 -0.00703413)
(-0.0004669 5.17256e-05 0.0001767)
(-0.000653803 0.000545712 -0.00108961)
(-0.000505751 0.000206837 -0.00174729)
(-0.000222991 9.75096e-05 -5.58916e-05)
(-0.000197637 -0.000358897 0.000318989)
(0.000365631 -9.87391e-05 0.000456274)
(0.000686109 0.00409179 -0.000649912)
(-0.000620228 -0.000139115 0.000390924)
(0.000110893 0.000572546 0.000443459)
(-0.000478364 -0.000450499 0.00641993)
(-0.000109938 0.00022491 0.000306133)
(0.000205165 0.000482986 -0.000200011)
(-0.000641169 -0.000136771 0.000483799)
(-0.000755013 -0.000281605 0.000154142)
(-0.000971514 0.00039661 -0.00358069)
(-0.000895279 -3.61454e-05 0.0042081)
(-0.000159266 8.99077e-05 -0.000327019)
(5.70592e-05 7.2193e-05 0.00290469)
(-0.000106531 -0.00034234 0.000521392)
(9.71898e-05 -0.000418834 -2.59864e-05)
(-0.000634107 0.00045249 -0.00472945)
(0.00052739 -0.000239138 0.000839787)
(0.000361633 -0.000641916 -0.00120975)
(0.00249212 0.00016799 -0.00171875)
(-0.000530121 0.000232157 -0.00114572)
(-0.000262407 0.000560192 -0.00839361)
(-0.000186957 8.10999e-05 -0.000115473)
(0.000236768 -0.000349948 0.000330654)
(-0.000478186 2.6701e-05 -0.00124283)
(-0.000673725 3.61989e-05 0.000372889)
(0.000354592 -0.000220686 0.000400644)
(-0.00040835 7.99016e-05 0.00303813)
(-0.000897759 0.00057412 0.000257728)
(0.00035418 -0.000456257 0.000348082)
(-0.000225174 0.000237527 -0.00140748)
(0.000208056 -0.000438541 0.00235322)
(-0.000286252 0.000630341 0.000179925)
(-0.000493721 0.00035852 -0.000173951)
(4.15679e-05 -6.63636e-05 -0.00588494)
(0.000349992 9.83865e-05 -0.00263081)
(0.000495087 -0.000440098 0.000269849)
(-2.14559e-05 5.26352e-05 -0.00108763)
(0.000125246 -0.000445601 -0.00247925)
(-6.12819e-05 -0.000524295 -0.00115843)
(-0.000758747 0.000296403 0.00379804)
(-0.000761636 0.000318988 0.000436157)
(-0.000517917 0.000180046 0.0003384)
(-0.000425476 0.000108414 -7.95247e-05)
(0.000408664 -0.000292678 -0.000102697)
(-5.27037e-05 0.000122858 -0.005967)
(-0.000376044 -0.000160132 -0.0037207)
(0.000400451 -0.000454494 0.000179925)
(-0.000200823 -5.73015e-06 0.000387862)
(0.000514106 -0.000470706 -8.2082e-05)
(3.21789e-05 0.000100977 0.000716261)
(-0.000180173 9.63339e-05 0.00265376)
(0.00028229 0.000607363 0.000525227)
(-0.000771232 0.000109764 0.000368167)
(-0.00247674 0.00111467 -0.00133237)
(-0.000666391 -0.000247626 -0.00186947)
(-4.79333e-05 8.87637e-05 0.000190521)
(-0.000592627 0.00024053 0.00043015)
(-0.000658588 6.65756e-05 0.000345329)
(2.15039e-05 2.6689e-06 -0.000145196)
(0.000336714 -0.000180483 0.000299759)
(0.00300448 -0.000275083 -0.00162444)
(-0.00133074 6.51776e-05 -0.000900733)
(-0.000593966 6.46199e-05 0.000318213)
(-5.82315e-05 0.000196879 0.00116114)
(-0.000447826 0.000247698 -0.000219678)
(-0.000217183 0.000230514 -0.0016477)
(0.000176711 0.000518307 0.000275772)
(-0.000440479 -0.00016185 -0.000626532)
(-0.000173677 0.00115321 0.00417853)
(-0.000306567 0.000356168 0.000383471)
(-7.28877e-05 -0.0003639 0.00185133)
(-0.000833308 -0.000247075 -0.00180797)
(-0.00048748 0.000162087 0.000728685)
(-0.00071808 0.000516802 -0.00196246)
(0.000272494 0.00058488 0.00025935)
(1.76921e-06 -0.000565521 0.000422847)
(0.000138381 -0.00013007 0.00513758)
(0.000912626 0.000456504 -0.00533258)
(-0.000235406 -7.3566e-06 -0.000714104)
(-0.00126846 0.000364731 -0.00226808)
(-0.0014614 0.00219357 -0.00116721)
(0.000212983 -0.000458299 0.000313971)
(-0.000972109 0.000209214 -0.00310664)
(-0.000751586 0.000245939 -0.00366606)
(-0.000126333 -0.000675282 3.56629e-05)
(-0.000701011 0.000366862 -0.00195251)
(-0.000156205 0.000449515 0.000217473)
(2.72348e-05 -1.73799e-05 -0.00260043)
(0.000579844 4.65683e-05 0.000379382)
(-0.00083622 0.000150679 -0.00211767)
(-0.000697211 0.000250827 0.00231244)
(-0.000503333 0.000454205 -0.000147607)
(0.00116431 -0.000551894 -0.00140065)
(0.000617153 0.000745144 -0.00174464)
(-3.35728e-05 1.71526e-05 0.0018151)
(-0.000635077 0.00159747 -0.000321116)
(-0.000757503 -2.98746e-05 -0.0011274)
(-1.09615e-05 -1.01794e-06 -9.96957e-06)
(-0.000721185 -0.000332104 -0.00166982)
(0.000413205 0.000746833 -7.39312e-05)
(0.000311482 0.000715463 -0.000787236)
(0.000143091 0.000224916 0.000337159)
(-0.000113081 0.000107431 -0.00244686)
(-0.00042544 0.000383876 0.000343107)
(-0.000221231 -0.000389402 -0.00262006)
(0.000349947 -0.000241881 -0.00179473)
(-0.00155027 -0.000319741 0.000304574)
(-0.000757615 0.000395468 -0.0011752)
(0.000447604 0.000848299 0.00048695)
(-0.00205403 0.00295732 0.000607591)
(-0.000639697 7.62581e-05 -0.00569864)
(-0.000727678 0.000655602 -0.00112172)
(-0.000294571 0.000348807 0.000533545)
(-0.000830464 8.1583e-05 0.00356793)
(-5.29919e-05 0.000103689 -0.00246088)
(-0.0015085 0.00212574 -0.00116782)
(0.000316184 -0.000560488 -0.00122615)
(0.000161049 0.000249239 -0.00185083)
(-0.000171823 0.000112829 -0.00362602)
(0.00038267 -0.00011374 0.000801754)
(-0.00069013 0.000624793 0.000273316)
(0.000392121 -0.000446743 0.000106789)
(-0.000596743 -0.000127036 0.000360951)
(0.000430716 0.000622473 0.000245089)
(-0.000305722 -6.5623e-05 0.000432363)
(-0.000685319 0.000233139 0.000782585)
(0.000156999 0.000244077 0.00029343)
(0.000164308 -0.00101527 -0.00265253)
(0.000293201 -9.10533e-05 -0.00229885)
(0.000167292 9.53713e-06 -0.00163628)
(-0.000743345 -0.000237463 0.000298346)
(-0.0023413 5.60356e-05 -0.000186088)
(-0.000976016 0.000374903 0.00297708)
(-0.000661591 -1.66932e-05 -7.20318e-05)
(0.000225624 0.000534766 0.000465089)
(-0.000177564 -0.00014517 -0.00113597)
(-0.000217984 6.47667e-05 0.00325868)
(9.70377e-06 -0.000204568 0.00546658)
(-0.000646777 -0.000131552 -0.00234869)
(0.00016503 0.000253074 -0.00177112)
(0.00188584 -0.000709253 0.00102748)
(0.000289525 -0.000487828 0.00591956)