/*--------------------------------*- C++ -*----------------------------------*\
| =========                 |                                                 |
| \\      /  F ield         | OpenFOAM: The Open Source CFD Toolbox           |
|  \\    /   O peration     | Version:  plus.master                           |
|   \\  /    A nd           | Web:      www.OpenFOAM.com                      |
|    \\/     M anipulation  |                                                 |
\*---------------------------------------------------------------------------*/
FoamFile
{
    version     2.0;
    format      ascii;
    class       scalarField;
    location    "8.4/lagrangian/kinematicCloud";
    object      age;
}
// * * * * * * * * * * * * * * * * * * * * * * * * * * * * * * * * * * * * * //


96597
(
8.40119
8.40117
8.40115
8.40113
8.40111
8.40109
8.40107
8.40106
8.40104
8.401
8.40098
8.40096
8.40095
8.40093
8.40091
8.40088
8.40086
8.40084
8.40083
8.40081
8.40079
8.40078
8.40076
8.40075
8.40073
8.40068
8.40067
8.40065
8.40064
8.40063
8.40061
8.4006
8.40058
8.40057
8.40056
8.40054
8.40053
8.40052
8.4005
8.40049
8.40048
8.40047
8.40045
8.40044
8.40043
8.40042
8.40041
8.40039
8.40038
8.40037
8.40036
8.40035
8.40034
8.40033
8.40032
8.4003
8.40029
8.40028
8.40027
8.40026
8.40025
8.40024
8.40023
8.40022
8.40022
8.4002
8.40018
8.40017
8.40017
8.40015
8.40015
8.40014
8.40013
8.40013
8.40012
8.40011
8.40011
8.4001
8.40009
8.40008
8.40008
8.40007
8.40007
8.40006
8.40006
8.40006
8.40005
8.40005
8.40004
8.40004
8.40004
8.40003
8.40003
8.40003
8.40002
8.40002
8.40002
8.40001
8.40001
8.40001
8.40001
8.4
8.4
8.4
8.4
8.40023
8.40021
8.40019
8.40015
8.40011
8.40008
8.40006
8.40002
8.4
8.39998
8.39997
8.39993
8.39991
8.39989
8.39986
8.39984
8.39983
8.39981
8.39979
8.39978
8.39976
8.39974
8.39973
8.39971
8.3997
8.39968
8.39967
8.39965
8.39963
8.3996
8.39959
8.39958
8.39956
8.39953
8.39952
8.39949
8.39944
8.39942
8.39941
8.3994
8.39938
8.39936
8.39934
8.39932
8.39931
8.3993
8.39929
8.39927
8.39925
8.39924
8.39922
8.3992
8.39919
8.39918
8.39917
8.39916
8.39915
8.39914
8.39913
8.39912
8.39911
8.3991
8.39909
8.39909
8.39907
8.39906
8.39905
8.39904
8.39904
8.39902
8.39901
8.399
8.399
8.39899
8.39898
8.39898
8.39897
8.39896
8.39894
8.39893
8.39892
8.39892
8.39891
8.3989
8.39889
8.39889
8.39889
8.39888
8.39887
8.39887
8.39886
8.39886
8.39886
8.39885
8.39885
8.39884
8.39884
8.39883
8.39883
8.39883
8.39883
8.39883
8.39882
8.39882
8.39882
8.39882
8.39882
8.39882
8.39881
8.39881
8.39881
8.39881
8.39881
8.39881
8.39881
8.39909
8.39907
8.39905
8.39903
8.39901
8.39899
8.39897
8.39895
8.39894
8.39892
8.3989
8.39888
8.39886
8.39884
8.39881
8.39879
8.39877
8.39875
8.39873
8.39872
8.3987
8.39868
8.39866
8.39865
8.39863
8.39861
8.3986
8.39858
8.39856
8.39855
8.39853
8.3985
8.39845
8.39843
8.39842
8.3984
8.39839
8.39837
8.39836
8.39834
8.39831
8.3983
8.39827
8.39826
8.39824
8.39823
8.39821
8.39819
8.39817
8.39816
8.39815
8.39813
8.39812
8.39809
8.39807
8.39806
8.39804
8.39803
8.39802
8.39801
8.39799
8.39797
8.39796
8.39795
8.39794
8.39793
8.39791
8.3979
8.39789
8.39788
8.39787
8.39786
8.39785
8.39784
8.39783
8.39781
8.3978
8.39779
8.39778
8.39777
8.39776
8.39775
8.39774
8.39773
8.39771
8.39769
8.39768
8.39767
8.39767
8.39766
8.39765
8.39764
8.39763
8.39762
8.39761
8.39761
8.3976
8.39759
8.39759
8.39758
8.39757
8.39757
8.39756
8.39755
8.39755
8.39754
8.39753
8.39753
8.39752
8.39752
8.39751
8.39751
8.3975
8.3975
8.39749
8.39749
8.39748
8.39748
8.39747
8.39747
8.39746
8.39746
8.39746
8.39745
8.39745
8.39744
8.39744
8.39744
8.39743
8.39742
8.39742
8.39742
8.39742
8.39741
8.39741
8.39741
8.3974
8.3974
8.3974
8.3974
8.3974
8.3974
8.39739
8.39739
8.39739
8.39739
8.39773
8.39771
8.39769
8.39767
8.39765
8.39763
8.39761
8.39759
8.39757
8.39755
8.39753
8.39751
8.39747
8.39742
8.3974
8.39738
8.39736
8.39735
8.39733
8.39731
8.39729
8.39727
8.39726
8.39724
8.39722
8.39721
8.39719
8.39717
8.39715
8.39714
8.39712
8.39709
8.39707
8.39705
8.39704
8.39702
8.39701
8.39699
8.39697
8.39696
8.39694
8.39693
8.39691
8.3969
8.39688
8.39686
8.39685
8.39683
8.39682
8.3968
8.39679
8.39678
8.39676
8.39675
8.39673
8.39672
8.39669
8.39668
8.39666
8.39663
8.39662
8.39661
8.39659
8.39658
8.39657
8.39655
8.39652
8.3965
8.39649
8.39648
8.39647
8.39645
8.39644
8.39643
8.39642
8.3964
8.39639
8.39638
8.39637
8.39636
8.39635
8.39634
8.39632
8.3963
8.39629
8.39628
8.39627
8.39625
8.39624
8.39623
8.39622
8.39621
8.39619
8.39618
8.39617
8.39615
8.39614
8.39613
8.39612
8.39611
8.3961
8.39609
8.39608
8.39607
8.39606
8.39605
8.39604
8.39603
8.39603
8.39602
8.39601
8.39599
8.39598
8.39597
8.39596
8.39596
8.39595
8.39593
8.39593
8.39591
8.39591
8.3959
8.39589
8.39589
8.39588
8.39588
8.39587
8.39586
8.39586
8.39585
8.39585
8.39584
8.39584
8.39583
8.39582
8.39582
8.39581
8.39581
8.3958
8.3958
8.39579
8.39579
8.39578
8.39578
8.39577
8.39577
8.39577
8.39576
8.39576
8.39575
8.39575
8.39575
8.39574
8.39574
8.39574
8.39573
8.39573
8.39573
8.39573
8.39572
8.39572
8.39572
8.39572
8.39571
8.39571
8.39571
8.3957
8.3957
8.3957
8.3957
8.3957
8.39569
8.39569
8.39569
8.39569
8.39569
8.39569
8.39569
8.39569
8.39569
8.39569
8.39569
8.39607
8.39605
8.39603
8.39601
8.39599
8.39597
8.39595
8.39593
8.39591
8.39587
8.39586
8.39584
8.39582
8.3958
8.39578
8.39576
8.39574
8.39572
8.39571
8.39569
8.39567
8.39565
8.39563
8.39562
8.3956
8.39558
8.39556
8.39554
8.39553
8.39551
8.39549
8.39544
8.39542
8.39541
8.39539
8.39537
8.39536
8.39534
8.39532
8.39531
8.39529
8.39527
8.39524
8.39522
8.39521
8.39519
8.39518
8.39516
8.39514
8.39513
8.39511
8.3951
8.39508
8.39507
8.39505
8.39504
8.39502
8.39501
8.39499
8.39498
8.39496
8.39493
8.3949
8.39489
8.39488
8.39486
8.39485
8.39483
8.39482
8.39481
8.39479
8.39478
8.39477
8.39475
8.39474
8.39473
8.39471
8.3947
8.39469
8.39466
8.39465
8.39463
8.39462
8.3946
8.39458
8.39457
8.39455
8.39454
8.39452
8.3945
8.39449
8.39448
8.39446
8.39445
8.39444
8.39443
8.39442
8.39441
8.3944
8.39439
8.39437
8.39436
8.39434
8.39433
8.39432
8.3943
8.39429
8.39426
8.39425
8.39424
8.39422
8.39421
8.3942
8.39419
8.39418
8.39417
8.39416
8.39415
8.39414
8.39413
8.39412
8.39411
8.39408
8.39408
8.39407
8.39405
8.39404
8.39404
8.39403
8.39402
8.39401
8.394
8.394
8.39399
8.39398
8.39397
8.39397
8.39396
8.39395
8.39395
8.39393
8.39392
8.39391
8.3939
8.39389
8.39389
8.39388
8.39387
8.39386
8.39386
8.39385
8.39384
8.39384
8.39383
8.39383
8.39382
8.39382
8.39381
8.39381
8.3938
8.3938
8.39379
8.39379
8.39378
8.39377
8.39376
8.39376
8.39376
8.39375
8.39375
8.39374
8.39374
8.39373
8.39373
8.39373
8.39372
8.39372
8.39371
8.39371
8.39371
8.39371
8.3937
8.3937
8.39369
8.39369
8.39368
8.39368
8.39368
8.39368
8.39368
8.39367
8.39367
8.39367
8.39366
8.39366
8.39366
8.39366
8.39366
8.39366
8.39366
8.39366
8.39365
8.39365
8.39365
8.39365
8.39365
8.39365
8.39365
8.39365
8.39413
8.39411
8.39409
8.39407
8.39405
8.39403
8.39401
8.39399
8.39393
8.39391
8.39387
8.39385
8.39382
8.3938
8.39376
8.39374
8.39372
8.39367
8.39365
8.39363
8.39361
8.39359
8.39358
8.39356
8.39354
8.39352
8.3935
8.39349
8.39347
8.39345
8.39342
8.3934
8.39338
8.39336
8.39335
8.39333
8.39331
8.3933
8.39328
8.39326
8.39325
8.39323
8.39321
8.39318
8.39316
8.39315
8.39313
8.39312
8.3931
8.39307
8.39305
8.39304
8.39302
8.393
8.39299
8.39297
8.39296
8.39294
8.39293
8.3929
8.39288
8.39287
8.39285
8.39284
8.39282
8.39281
8.39279
8.39278
8.39276
8.39275
8.39273
8.39272
8.39269
8.39268
8.39266
8.39265
8.39263
8.39262
8.39261
8.39259
8.39258
8.39257
8.39255
8.39254
8.39253
8.39251
8.3925
8.39249
8.39247
8.39246
8.39243
8.39242
8.39241
8.3924
8.39238
8.39237
8.39233
8.39232
8.39231
8.3923
8.39228
8.39226
8.39225
8.39224
8.39222
8.39221
8.3922
8.39219
8.39218
8.39216
8.39214
8.39213
8.39212
8.39211
8.3921
8.39207
8.39206
8.39205
8.39202
8.39201
8.392
8.39199
8.39198
8.39196
8.39193
8.39192
8.3919
8.39189
8.39188
8.39188
8.39187
8.39186
8.39185
8.39184
8.39182
8.39181
8.3918
8.39179
8.39178
8.39177
8.39176
8.39175
8.39174
8.39173
8.39172
8.39172
8.39171
8.39169
8.39168
8.39168
8.39165
8.39165
8.39163
8.39162
8.39162
8.39161
8.39159
8.39158
8.39157
8.39155
8.39154
8.39153
8.39152
8.39151
8.39151
8.3915
8.3915
8.39149
8.39148
8.39148
8.39147
8.39147
8.39146
8.39145
8.39144
8.39144
8.39143
8.39143
8.39142
8.39141
8.39141
8.3914
8.3914
8.39139
8.39139
8.39138
8.39138
8.39137
8.39137
8.39136
8.39136
8.39135
8.39134
8.39133
8.39133
8.39133
8.39132
8.39131
8.39131
8.3913
8.3913
8.3913
8.3913
8.39129
8.39129
8.39128
8.39128
8.39128
8.39128
8.39127
8.39127
8.39127
8.39126
8.39126
8.39126
8.39126
8.39126
8.39125
8.39125
8.39125
8.39124
8.39124
8.39124
8.39124
8.39124
8.39124
8.39123
8.39123
8.39123
8.39123
8.39123
8.39123
8.39123
8.39123
8.39123
8.39123
8.39123
8.39123
8.39176
8.39174
8.39172
8.3917
8.39168
8.39164
8.39162
8.3916
8.39158
8.39156
8.39152
8.3915
8.39148
8.39146
8.39139
8.39137
8.39135
8.39127
8.39125
8.39122
8.3912
8.39118
8.39116
8.39114
8.39113
8.39111
8.39109
8.39107
8.39105
8.39104
8.391
8.39098
8.39097
8.39095
8.39093
8.39091
8.39088
8.39086
8.39084
8.39083
8.39079
8.39078
8.39076
8.39074
8.39073
8.39071
8.39069
8.39068
8.39066
8.39061
8.39059
8.39056
8.39055
8.39053
8.3905
8.39048
8.39045
8.39043
8.39042
8.3904
8.39039
8.39037
8.39036
8.39034
8.39033
8.39028
8.39024
8.39022
8.39021
8.39019
8.39018
8.39016
8.39015
8.39012
8.3901
8.39009
8.39007
8.39006
8.39005
8.39003
8.39002
8.39
8.38999
8.38998
8.38995
8.38993
8.38992
8.38989
8.38988
8.38987
8.38985
8.38983
8.38981
8.3898
8.38979
8.38977
8.38976
8.38974
8.38972
8.3897
8.38968
8.38967
8.38966
8.38965
8.38962
8.38961
8.3896
8.38957
8.38956
8.38955
8.38954
8.38951
8.3895
8.38949
8.38948
8.38946
8.38944
8.38942
8.38941
8.38939
8.38938
8.38937
8.38936
8.38934
8.38933
8.38932
8.38931
8.3893
8.38929
8.38928
8.38927
8.38926
8.38925
8.38924
8.38923
8.38922
8.38921
8.3892
8.38919
8.38918
8.38917
8.38916
8.38915
8.38914
8.38913
8.38911
8.3891
8.38909
8.38908
8.38907
8.38905
8.38904
8.38903
8.38903
8.38902
8.38901
8.389
8.38899
8.38898
8.38897
8.38896
8.38895
8.38894
8.38893
8.38892
8.38891
8.38891
8.3889
8.38889
8.38887
8.38886
8.38886
8.38885
8.38884
8.38883
8.38883
8.38882
8.38881
8.3888
8.3888
8.38879
8.38877
8.38876
8.38875
8.38875
8.38874
8.38873
8.38873
8.38872
8.38871
8.38871
8.3887
8.38869
8.38868
8.38867
8.38867
8.38865
8.38865
8.38864
8.38864
8.38863
8.38862
8.38862
8.38861
8.38861
8.3886
8.3886
8.38859
8.38858
8.38858
8.38857
8.38857
8.38856
8.38855
8.38854
8.38854
8.38853
8.38853
8.38852
8.38852
8.38851
8.38851
8.3885
8.3885
8.3885
8.38849
8.38848
8.38848
8.38847
8.38847
8.38847
8.38846
8.38846
8.38846
8.38845
8.38845
8.38844
8.38844
8.38844
8.38843
8.38843
8.38842
8.38842
8.38842
8.38841
8.38841
8.3884
8.3884
8.3884
8.38839
8.38839
8.38839
8.38838
8.38838
8.38838
8.38838
8.38837
8.38837
8.38837
8.38837
8.38837
8.38836
8.38836
8.38836
8.38836
8.38835
8.38835
8.38835
8.38835
8.38835
8.38835
8.38835
8.38834
8.38834
8.38834
8.38834
8.38834
8.38834
8.38834
8.38834
8.38833
8.38833
8.38833
8.38833
8.38833
8.38833
8.38833
8.38833
8.38833
8.38833
8.38833
8.38891
8.38889
8.38887
8.38885
8.38883
8.38881
8.38879
8.38877
8.38875
8.38873
8.38871
8.38869
8.38867
8.38865
8.38863
8.38861
8.38859
8.38857
8.38856
8.38854
8.38852
8.38848
8.38846
8.38844
8.38842
8.38841
8.38839
8.38833
8.38831
8.38829
8.38828
8.38826
8.38824
8.38822
8.3882
8.38818
8.38813
8.38811
8.3881
8.38808
8.38804
8.38802
8.38801
8.38799
8.38797
8.38795
8.38794
8.38792
8.3879
8.38788
8.38787
8.38785
8.38783
8.38782
8.3878
8.38778
8.38777
8.38775
8.38773
8.3877
8.38768
8.38767
8.38765
8.38763
8.3876
8.38758
8.38757
8.38755
8.38753
8.38752
8.3875
8.38749
8.38747
8.38745
8.38744
8.38742
8.38738
8.38736
8.38734
8.38733
8.38731
8.3873
8.38728
8.38727
8.38725
8.38724
8.38722
8.38721
8.38719
8.38718
8.38716
8.38715
8.38713
8.38712
8.3871
8.38709
8.38707
8.38706
8.38704
8.38701
8.387
8.38698
8.38697
8.38696
8.38694
8.38693
8.38691
8.3869
8.38689
8.38687
8.38686
8.38684
8.38683
8.38682
8.3868
8.38679
8.38677
8.38676
8.38673
8.38672
8.38671
8.38667
8.38665
8.38664
8.38663
8.38661
8.3866
8.38658
8.38656
8.38655
8.38654
8.38652
8.38651
8.3865
8.38649
8.38647
8.38646
8.38645
8.38644
8.38642
8.38641
8.3864
8.38639
8.38638
8.38636
8.38635
8.38634
8.38633
8.38632
8.3863
8.38627
8.38626
8.38625
8.38623
8.38622
8.38621
8.3862
8.38619
8.38618
8.38617
8.38616
8.38614
8.38613
8.38612
8.38611
8.3861
8.38609
8.38608
8.38606
8.38605
8.38603
8.38601
8.386
8.38599
8.38598
8.38597
8.38596
8.38595
8.38594
8.38593
8.38592
8.38591
8.3859
8.38589
8.38588
8.38587
8.38586
8.38585
8.38584
8.38583
8.38582
8.38581
8.38581
8.3858
8.38579
8.38578
8.38577
8.38576
8.38575
8.38574
8.38573
8.38572
8.38571
8.3857
8.3857
8.38569
8.38568
8.38567
8.38566
8.38565
8.38564
8.38563
8.38563
8.38562
8.38561
8.3856
8.38559
8.38558
8.38558
8.38557
8.38556
8.38555
8.38553
8.38551
8.3855
8.38549
8.38548
8.38547
8.38547
8.38546
8.38544
8.38544
8.38543
8.38542
8.38542
8.38541
8.3854
8.38539
8.38539
8.38538
8.38537
8.38537
8.38536
8.38535
8.38535
8.38534
8.38533
8.38533
8.38532
8.38531
8.38531
8.3853
8.3853
8.38529
8.38528
8.38528
8.38527
8.38527
8.38525
8.38525
8.38524
8.38524
8.38523
8.38522
8.38522
8.38521
8.38521
8.3852
8.3852
8.38519
8.38519
8.38518
8.38518
8.38517
8.38517
8.38516
8.38516
8.38515
8.38515
8.38514
8.38514
8.38513
8.38513
8.38512
8.38512
8.38511
8.38511
8.3851
8.3851
8.3851
8.38509
8.38509
8.38508
8.38508
8.38507
8.38507
8.38507
8.38506
8.38505
8.38505
8.38505
8.38504
8.38504
8.38503
8.38503
8.38503
8.38502
8.38502
8.38501
8.38501
8.38501
8.385
8.385
8.38499
8.38499
8.38499
8.38499
8.38498
8.38498
8.38498
8.38497
8.38497
8.38497
8.38497
8.38496
8.38496
8.38496
8.38496
8.38495
8.38495
8.38495
8.38495
8.38495
8.38494
8.38494
8.38494
8.38494
8.38494
8.38493
8.38493
8.38493
8.38493
8.38493
8.38493
8.38493
8.38492
8.38492
8.38492
8.38492
8.38492
8.38492
8.38492
8.38491
8.38491
8.38491
8.38491
8.38491
8.38491
8.38491
8.38491
8.38491
8.38491
8.38491
8.38491
8.38491
8.38491
8.38565
8.38563
8.38561
8.38557
8.38555
8.38551
8.38547
8.38545
8.38543
8.38539
8.38537
8.38535
8.38533
8.38531
8.38529
8.38526
8.38524
8.38522
8.3852
8.38518
8.38516
8.38514
8.38512
8.3851
8.38509
8.38507
8.38505
8.38503
8.38501
8.38499
8.38497
8.38494
8.38492
8.3849
8.38488
8.38486
8.38484
8.38481
8.38479
8.38477
8.38475
8.38474
8.38472
8.3847
8.38468
8.38466
8.38465
8.38463
8.38461
8.38459
8.38458
8.38456
8.38454
8.38452
8.38449
8.38444
8.38442
8.38437
8.38433
8.38432
8.3843
8.38428
8.38427
8.38425
8.38423
8.38422
8.38418
8.38417
8.38415
8.38413
8.38412
8.3841
8.38408
8.38407
8.38405
8.38402
8.384
8.38399
8.38397
8.38395
8.38394
8.38392
8.38391
8.38389
8.38387
8.38386
8.38384
8.38383
8.38381
8.38378
8.38376
8.38375
8.38373
8.38372
8.3837
8.38369
8.38367
8.38366
8.38364
8.38363
8.38361
8.3836
8.38358
8.38355
8.38354
8.38352
8.38351
8.38349
8.38348
8.38345
8.38343
8.38342
8.3834
8.38339
8.38337
8.38334
8.38333
8.38332
8.3833
8.38329
8.38327
8.38326
8.38325
8.38323
8.38322
8.3832
8.38319
8.38318
8.38316
8.38315
8.38313
8.38312
8.38311
8.38309
8.38308
8.38307
8.38305
8.38304
8.383
8.38299
8.38297
8.38296
8.38295
8.38293
8.38292
8.38291
8.38289
8.38288
8.38287
8.38284
8.38282
8.3828
8.38279
8.38278
8.38277
8.38275
8.38274
8.38273
8.3827
8.38269
8.38268
8.38267
8.38263
8.38262
8.38261
8.38259
8.38255
8.38253
8.38252
8.38251
8.38249
8.38248
8.38246
8.38245
8.38244
8.38242
8.38241
8.3824
8.38239
8.38237
8.38236
8.38235
8.38234
8.38233
8.38232
8.38231
8.3823
8.38229
8.38226
8.38225
8.38223
8.38221
8.3822
8.38219
8.38218
8.38217
8.38216
8.38215
8.38214
8.38213
8.38212
8.3821
8.38209
8.38208
8.38207
8.38205
8.38204
8.38203
8.38202
8.38201
8.382
8.38199
8.38198
8.38197
8.38196
8.38195
8.38194
8.38193
8.38192
8.38191
8.3819
8.38189
8.38188
8.38186
8.38185
8.38184
8.38183
8.38182
8.38181
8.38181
8.3818
8.38178
8.38176
8.38175
8.38174
8.38173
8.38172
8.38171
8.3817
8.38169
8.38169
8.38168
8.38167
8.38166
8.38165
8.38165
8.38164
8.38163
8.38161
8.3816
8.38159
8.38158
8.38158
8.38157
8.38156
8.38155
8.38155
8.38152
8.38152
8.3815
8.38149
8.38149
8.38148
8.38147
8.38147
8.38146
8.38145
8.38145
8.38144
8.38143
8.38143
8.38142
8.38141
8.38141
8.38139
8.38139
8.38138
8.38137
8.38136
8.38135
8.38135
8.38134
8.38134
8.38133
8.38132
8.38132
8.38131
8.38131
8.38129
8.38128
8.38127
8.38126
8.38126
8.38125
8.38125
8.38124
8.38124
8.38123
8.38123
8.38122
8.38122
8.38121
8.38121
8.3812
8.3812
8.38119
8.38118
8.38118
8.38117
8.38117
8.38116
8.38116
8.38115
8.38115
8.38114
8.38114
8.38113
8.38113
8.38112
8.38112
8.38111
8.38111
8.38111
8.3811
8.3811
8.38109
8.38109
8.38109
8.38108
8.38108
8.38107
8.38107
8.38106
8.38105
8.38105
8.38105
8.38104
8.38104
8.38104
8.38103
8.38103
8.38103
8.38102
8.38102
8.38102
8.38101
8.38101
8.38101
8.381
8.381
8.38099
8.38099
8.38099
8.38098
8.38098
8.38097
8.38097
8.38096
8.38096
8.38096
8.38096
8.38095
8.38095
8.38095
8.38095
8.38094
8.38094
8.38094
8.38094
8.38094
8.38093
8.38093
8.38093
8.38093
8.38093
8.38092
8.38092
8.38092
8.38092
8.38091
8.38091
8.38091
8.38091
8.38091
8.38091
8.38091
8.3809
8.3809
8.3809
8.3809
8.3809
8.3809
8.3809
8.3809
8.3809
8.3809
8.38089
8.38089
8.38089
8.38089
8.38089
8.38089
8.38089
8.38089
8.38089
8.38089
8.38089
8.38089
8.38089
8.38089
8.38089
8.38089
8.38181
8.38179
8.38177
8.38175
8.38173
8.38171
8.38167
8.38165
8.38163
8.38161
8.38159
8.38157
8.38155
8.38151
8.38147
8.38146
8.38144
8.38142
8.3814
8.38138
8.38136
8.38132
8.3813
8.38128
8.38126
8.38124
8.38121
8.38119
8.38117
8.38115
8.38111
8.38109
8.38108
8.38106
8.38104
8.38102
8.381
8.38098
8.38096
8.38093
8.38091
8.38089
8.38087
8.38085
8.38084
8.38082
8.3808
8.38078
8.38076
8.38073
8.38071
8.38069
8.38067
8.38066
8.38064
8.38062
8.38058
8.38057
8.38055
8.38053
8.38051
8.3805
8.38048
8.38046
8.38043
8.38041
8.38039
8.38038
8.38036
8.38034
8.38032
8.38031
8.38027
8.38026
8.38024
8.38022
8.3802
8.38019
8.38017
8.38015
8.38014
8.38012
8.3801
8.38009
8.38007
8.38005
8.38004
8.38
8.37999
8.37997
8.37995
8.37994
8.37992
8.37991
8.37989
8.37987
8.37986
8.37984
8.37982
8.37981
8.37978
8.37976
8.37974
8.37971
8.3797
8.37967
8.37965
8.37963
8.37962
8.3796
8.37959
8.37957
8.37956
8.37954
8.37952
8.37951
8.37949
8.37948
8.37946
8.37945
8.37943
8.37942
8.3794
8.37939
8.37937
8.37936
8.37934
8.37933
8.37931
8.37928
8.37927
8.37925
8.37924
8.37922
8.37921
8.37919
8.37918
8.37916
8.37915
8.37914
8.37912
8.37911
8.37909
8.37908
8.37905
8.37903
8.37901
8.37899
8.37896
8.37895
8.37894
8.37892
8.37891
8.37889
8.37888
8.37885
8.37884
8.37882
8.37881
8.3788
8.37878
8.37877
8.37876
8.37874
8.37873
8.37871
8.3787
8.37869
8.37867
8.37866
8.37865
8.37863
8.37862
8.37861
8.3786
8.37858
8.37854
8.37852
8.3785
8.37849
8.37848
8.37847
8.37845
8.37844
8.37843
8.37841
8.3784
8.37839
8.37838
8.37835
8.37833
8.3783
8.37828
8.37826
8.37825
8.37824
8.37823
8.3782
8.37819
8.37818
8.37817
8.37816
8.37814
8.37813
8.37812
8.37811
8.37808
8.37807
8.37806
8.37805
8.37804
8.37803
8.37802
8.378
8.37799
8.37798
8.37797
8.37796
8.37795
8.37792
8.37791
8.37789
8.37788
8.37787
8.37786
8.37785
8.37784
8.37782
8.37779
8.37777
8.37775
8.37774
8.37773
8.37772
8.37771
8.37769
8.37768
8.37766
8.37765
8.37764
8.37763
8.37762
8.37761
8.3776
8.37759
8.37756
8.37755
8.37754
8.37753
8.37752
8.3775
8.37749
8.37748
8.37747
8.37746
8.37744
8.37744
8.37743
8.37741
8.3774
8.37738
8.37737
8.37736
8.37735
8.37734
8.37733
8.37732
8.37731
8.3773
8.3773
8.37729
8.37728
8.37727
8.37726
8.37725
8.37723
8.37722
8.37722
8.37721
8.3772
8.37719
8.37718
8.37717
8.37716
8.37715
8.37715
8.37713
8.37712
8.37711
8.3771
8.37709
8.37708
8.37707
8.37706
8.37706
8.37705
8.37704
8.37703
8.37702
8.37702
8.37701
8.377
8.37698
8.37698
8.37696
8.37695
8.37695
8.37694
8.37693
8.37692
8.37692
8.37691
8.37689
8.37689
8.37687
8.37686
8.37686
8.37685
8.37684
8.37684
8.37683
8.37682
8.37682
8.37681
8.3768
8.37679
8.37678
8.37677
8.37676
8.37675
8.37674
8.37673
8.37673
8.37672
8.37671
8.37671
8.3767
8.37669
8.37668
8.37668
8.37667
8.37666
8.37665
8.37665
8.37664
8.37663
8.37663
8.37662
8.37661
8.37661
8.3766
8.37659
8.37659
8.37658
8.37657
8.37657
8.37656
8.37655
8.37655
8.37654
8.37654
8.37653
8.37653
8.37652
8.37652
8.37651
8.37651
8.3765
8.3765
8.37649
8.37649
8.37648
8.37648
8.37646
8.37646
8.37645
8.37645
8.37644
8.37643
8.37642
8.37642
8.37641
8.37641
8.37641
8.3764
8.3764
8.37639
8.37639
8.37638
8.37638
8.37638
8.37637
8.37637
8.37636
8.37636
8.37636
8.37635
8.37635
8.37634
8.37634
8.37633
8.37633
8.37632
8.37632
8.37631
8.37631
8.3763
8.3763
8.3763
8.37629
8.37629
8.37629
8.37628
8.37628
8.37627
8.37627
8.37626
8.37626
8.37625
8.37625
8.37625
8.37625
8.37624
8.37624
8.37624
8.37623
8.37623
8.37623
8.37622
8.37622
8.37622
8.37621
8.37621
8.3762
8.3762
8.3762
8.37619
8.37619
8.37619
8.37619
8.37619
8.37618
8.37618
8.37618
8.37618
8.37618
8.37617
8.37617
8.37617
8.37617
8.37616
8.37616
8.37616
8.37616
8.37616
8.37616
8.37616
8.37615
8.37615
8.37615
8.37615
8.37615
8.37615
8.37615
8.37615
8.37614
8.37614
8.37614
8.37614
8.37614
8.37614
8.37614
8.37614
8.37613
8.37613
8.37613
8.37613
8.37613
8.37613
8.37613
8.37613
8.37613
8.37613
8.37613
8.37613
8.37613
8.37613
8.37613
8.37613
8.37613
8.37613
8.37613
8.377
8.37698
8.37694
8.37692
8.3769
8.37688
8.37684
8.37682
8.3768
8.37678
8.37676
8.37672
8.3767
8.37668
8.37661
8.37659
8.37655
8.37653
8.37645
8.37643
8.37641
8.37638
8.37636
8.37634
8.37632
8.3763
8.37628
8.37626
8.37624
8.37623
8.37621
8.37619
8.37617
8.37615
8.37613
8.37609
8.37608
8.37606
8.37604
8.37602
8.376
8.37598
8.37596
8.37595
8.37593
8.37591
8.37589
8.37587
8.37586
8.37584
8.37582
8.3758
8.37578
8.37576
8.37575
8.37573
8.37569
8.37568
8.37566
8.37564
8.37562
8.3756
8.37559
8.37557
8.37555
8.37553
8.37552
8.3755
8.37548
8.37545
8.37543
8.37541
8.37538
8.37536
8.37534
8.37532
8.37531
8.37529
8.37527
8.37524
8.37522
8.3752
8.37519
8.37517
8.37515
8.37514
8.37512
8.3751
8.37508
8.37507
8.37505
8.37503
8.37502
8.375
8.37498
8.37497
8.37495
8.37493
8.37492
8.37488
8.37487
8.37485
8.37484
8.37482
8.3748
8.37479
8.37477
8.37475
8.37474
8.37472
8.37471
8.37469
8.37467
8.37466
8.37464
8.37463
8.37461
8.37459
8.37458
8.37455
8.37453
8.3745
8.37448
8.37447
8.37445
8.37444
8.37442
8.3744
8.37439
8.37437
8.37436
8.37434
8.37433
8.37431
8.3743
8.37428
8.37427
8.37425
8.37424
8.37422
8.3742
8.37414
8.37413
8.37411
8.37408
8.37407
8.37405
8.37404
8.37403
8.37401
8.374
8.37398
8.37397
8.37395
8.37394
8.37392
8.37391
8.37389
8.37388
8.37386
8.37385
8.37384
8.37382
8.37381
8.37379
8.37376
8.37375
8.37374
8.37372
8.37371
8.37369
8.37368
8.37366
8.37365
8.37364
8.37362
8.37361
8.3736
8.37358
8.37357
8.37355
8.37354
8.37353
8.37351
8.3735
8.37349
8.37347
8.37346
8.37344
8.37343
8.37342
8.3734
8.37339
8.37338
8.37336
8.37335
8.37334
8.37331
8.3733
8.37328
8.37327
8.37326
8.37324
8.37323
8.37322
8.37321
8.37319
8.37318
8.37317
8.37315
8.37314
8.37312
8.37309
8.37305
8.37304
8.37303
8.37301
8.373
8.37299
8.37298
8.37296
8.37295
8.37294
8.37293
8.37292
8.3729
8.37289
8.37288
8.37285
8.37284
8.37283
8.37279
8.37277
8.37276
8.37275
8.37272
8.37271
8.3727
8.37269
8.37268
8.37266
8.37265
8.37264
8.37263
8.37262
8.37261
8.37259
8.37258
8.37257
8.37256
8.37255
8.37254
8.37253
8.37252
8.3725
8.37249
8.37248
8.37247
8.37246
8.37245
8.37244
8.37243
8.37242
8.3724
8.37239
8.37238
8.37237
8.37236
8.37235
8.37233
8.37231
8.3723
8.37228
8.37226
8.37225
8.37224
8.37223
8.37222
8.37221
8.3722
8.37219
8.37218
8.37217
8.37216
8.37215
8.37214
8.37213
8.37212
8.37211
8.3721
8.37208
8.37207
8.37206
8.37205
8.37203
8.37202
8.37201
8.372
8.37199
8.37198
8.37197
8.37196
8.37195
8.37194
8.37193
8.3719
8.3719
8.37189
8.37188
8.37187
8.37186
8.37185
8.37184
8.37183
8.37182
8.37181
8.3718
8.37179
8.37178
8.37178
8.37176
8.37175
8.37173
8.37172
8.3717
8.3717
8.37168
8.37167
8.37166
8.37165
8.37164
8.37164
8.37163
8.37162
8.37161
8.3716
8.37159
8.37158
8.37158
8.37157
8.37156
8.37155
8.37154
8.37154
8.37153
8.37151
8.3715
8.37149
8.37149
8.37147
8.37146
8.37145
8.37145
8.37144
8.37143
8.37142
8.37142
8.37141
8.3714
8.37139
8.37138
8.37137
8.37136
8.37136
8.37134
8.37133
8.37133
8.37132
8.37131
8.3713
8.3713
8.37129
8.37128
8.37128
8.37126
8.37125
8.37125
8.37124
8.37123
8.37123
8.37122
8.37121
8.37121
8.3712
8.37119
8.37119
8.37118
8.37117
8.37117
8.37116
8.37115
8.37115
8.37114
8.37113
8.37113
8.37112
8.37111
8.37111
8.37109
8.37109
8.37108
8.37108
8.37107
8.37106
8.37104
8.37104
8.37103
8.37103
8.37102
8.37101
8.37101
8.371
8.371
8.37099
8.37099
8.37098
8.37097
8.37097
8.37095
8.37095
8.37094
8.37094
8.37093
8.37092
8.37091
8.3709
8.37089
8.37089
8.37088
8.37088
8.37087
8.37086
8.37086
8.37085
8.37085
8.37084
8.37084
8.37083
8.37083
8.37082
8.37081
8.37081
8.3708
8.3708
8.37079
8.37078
8.37078
8.37078
8.37077
8.37076
8.37076
8.37075
8.37075
8.37074
8.37074
8.37073
8.37073
8.37072
8.37072
8.37072
8.37071
8.3707
8.3707
8.3707
8.37069
8.37069
8.37068
8.37068
8.37067
8.37067
8.37067
8.37066
8.37066
8.37065
8.37065
8.37064
8.37064
8.37064
8.37063
8.37063
8.37062
8.37062
8.37061
8.37061
8.3706
8.3706
8.3706
8.3706
8.37059
8.37059
8.37059
8.37058
8.37058
8.37058
8.37058
8.37057
8.37057
8.37057
8.37056
8.37056
8.37056
8.37055
8.37055
8.37055
8.37054
8.37054
8.37054
8.37053
8.37053
8.37053
8.37053
8.37052
8.37052
8.37052
8.37052
8.37052
8.37051
8.37051
8.37051
8.37051
8.37051
8.3705
8.3705
8.3705
8.3705
8.3705
8.37049
8.37049
8.37049
8.37049
8.37049
8.37048
8.37048
8.37048
8.37048
8.37048
8.37048
8.37048
8.37047
8.37047
8.37047
8.37047
8.37047
8.37047
8.37047
8.37047
8.37046
8.37046
8.37046
8.37046
8.37046
8.37046
8.37046
8.37046
8.37046
8.37046
8.37045
8.37045
8.37045
8.37045
8.37045
8.37045
8.37045
8.37045
8.37045
8.37045
8.37045
8.37045
8.37045
8.37045
8.37045
8.37045
8.37045
8.37045
8.37045
8.37045
8.37169
8.37167
8.37165
8.37163
8.37161
8.37159
8.37157
8.37155
8.37154
8.37152
8.3715
8.37148
8.37144
8.37142
8.3714
8.37138
8.37136
8.37134
8.3713
8.37128
8.37126
8.37124
8.37122
8.3712
8.37118
8.37116
8.37114
8.37112
8.37109
8.37107
8.37103
8.37101
8.37099
8.37097
8.37095
8.37093
8.37091
8.3709
8.37088
8.37086
8.37084
8.37082
8.3708
8.37074
8.37073
8.37071
8.37069
8.37067
8.37063
8.37061
8.3706
8.37058
8.37054
8.37052
8.3705
8.37048
8.37047
8.37045
8.37043
8.37041
8.37039
8.37037
8.37032
8.3703
8.37025
8.37023
8.37021
8.37019
8.37018
8.37016
8.37014
8.37012
8.3701
8.37009
8.37007
8.37005
8.37003
8.37002
8.37
8.36994
8.36993
8.36989
8.36987
8.36986
8.36984
8.36982
8.3698
8.36977
8.36973
8.36972
8.3697
8.36968
8.36965
8.36963
8.36961
8.3696
8.36958
8.36956
8.36955
8.36951
8.36949
8.36948
8.36946
8.36943
8.36941
8.36939
8.36938
8.36936
8.36934
8.36933
8.36929
8.36928
8.36926
8.36923
8.36921
8.36919
8.36916
8.36914
8.36913
8.36911
8.3691
8.36908
8.36901
8.369
8.36898
8.36897
8.36895
8.36893
8.36892
8.3689
8.36885
8.36882
8.36881
8.36879
8.36877
8.36876
8.36874
8.36873
8.36871
8.36868
8.36866
8.36863
8.36862
8.3686
8.36859
8.36857
8.36855
8.36854
8.36852
8.36851
8.36849
8.36845
8.36843
8.36842
8.3684
8.36839
8.36837
8.36836
8.36833
8.3683
8.36828
8.36827
8.36825
8.36824
8.36822
8.36821
8.36819
8.36818
8.36816
8.36815
8.36813
8.36812
8.3681
8.36809
8.36807
8.36806
8.36804
8.36803
8.36801
8.368
8.36799
8.36797
8.36796
8.36794
8.36793
8.3679
8.36787
8.36786
8.36784
8.36783
8.36781
8.3678
8.36778
8.36777
8.36776
8.36774
8.36773
8.36771
8.3677
8.36769
8.36767
8.36766
8.36764
8.36763
8.36762
8.3676
8.36759
8.36756
8.36755
8.36752
8.36751
8.36749
8.36748
8.36747
8.36745
8.36744
8.36741
8.3674
8.36739
8.36737
8.36736
8.36735
8.36733
8.36732
8.36728
8.36727
8.36725
8.36724
8.36723
8.36719
8.36717
8.36715
8.36714
8.36712
8.36711
8.3671
8.36707
8.36706
8.36705
8.36703
8.36702
8.36701
8.367
8.36698
8.36696
8.36694
8.36693
8.36691
8.36688
8.36687
8.36686
8.36685
8.36683
8.36682
8.3668
8.36678
8.36677
8.36676
8.36675
8.36674
8.36671
8.3667
8.36669
8.36668
8.36666
8.36664
8.36663
8.36662
8.3666
8.36659
8.36657
8.36655
8.36653
8.3665
8.36646
8.36645
8.36643
8.36642
8.36641
8.3664
8.36638
8.36637
8.36636
8.36635
8.36634
8.36633
8.36632
8.36631
8.3663
8.36628
8.36627
8.36626
8.36625
8.36624
8.36623
8.36621
8.36619
8.36617
8.36616
8.36614
8.36613
8.36612
8.36611
8.3661
8.36609
8.36608
8.36607
8.36604
8.36603
8.36602
8.366
8.36599
8.36598
8.36596
8.36595
8.36594
8.36593
8.36592
8.36591
8.3659
8.36589
8.36588
8.36587
8.36586
8.36585
8.36584
8.36583
8.36582
8.36581
8.3658
8.36579
8.36577
8.36576
8.36575
8.36574
8.36573
8.36572
8.36571
8.3657
8.36568
8.36567
8.36567
8.36566
8.36565
8.36563
8.36562
8.36561
8.3656
8.36559
8.36558
8.36557
8.36556
8.36555
8.36553
8.36552
8.36552
8.36551
8.3655
8.36549
8.36548
8.36547
8.36546
8.36545
8.36544
8.36543
8.36543
8.36541
8.3654
8.36539
8.36537
8.36536
8.36536
8.36535
8.36534
8.36533
8.36532
8.36531
8.3653
8.36529
8.36528
8.36527
8.36526
8.36525
8.36525
8.36524
8.36523
8.36522
8.36521
8.3652
8.36519
8.36517
8.36516
8.36515
8.36515
8.36514
8.36512
8.36511
8.3651
8.36509
8.36508
8.36508
8.36507
8.36506
8.36505
8.36504
8.36503
8.36502
8.36501
8.36501
8.365
8.36498
8.36497
8.36495
8.36494
8.36493
8.36492
8.36492
8.36491
8.3649
8.3649
8.36489
8.36488
8.36487
8.36487
8.36486
8.36485
8.36484
8.36483
8.36483
8.36482
8.36481
8.3648
8.3648
8.36479
8.36478
8.36478
8.36476
8.36476
8.36475
8.36474
8.36473
8.36472
8.36472
8.36471
8.3647
8.3647
8.36469
8.36469
8.36468
8.36467
8.36467
8.36466
8.36465
8.36465
8.36464
8.36464
8.36462
8.36462
8.36461
8.3646
8.36459
8.36458
8.36457
8.36457
8.36456
8.36456
8.36455
8.36455
8.36454
8.36453
8.36453
8.36452
8.36452
8.36451
8.36451
8.3645
8.36449
8.36449
8.36448
8.36448
8.36447
8.36446
8.36446
8.36445
8.36445
8.36444
8.36443
8.36443
8.36442
8.36441
8.36441
8.3644
8.36439
8.36439
8.36438
8.36438
8.36437
8.36436
8.36436
8.36435
8.36434
8.36434
8.36433
8.36433
8.36432
8.36432
8.36431
8.36431
8.3643
8.3643
8.36429
8.36429
8.36428
8.36428
8.36427
8.36427
8.36427
8.36426
8.36426
8.36425
8.36425
8.36424
8.36424
8.36424
8.36423
8.36423
8.36422
8.36422
8.36421
8.36421
8.3642
8.3642
8.36419
8.36419
8.36419
8.36418
8.36417
8.36417
8.36417
8.36416
8.36416
8.36415
8.36415
8.36415
8.36414
8.36414
8.36413
8.36413
8.36412
8.36412
8.36412
8.36411
8.36411
8.3641
8.3641
8.36409
8.36409
8.36409
8.36408
8.36408
8.36408
8.36407
8.36407
8.36407
8.36406
8.36406
8.36405
8.36405