/*--------------------------------*- C++ -*----------------------------------*\
| =========                 |                                                 |
| \\      /  F ield         | OpenFOAM: The Open Source CFD Toolbox           |
|  \\    /   O peration     | Version:  plus.master.MPPICInterFoam            |
|   \\  /    A nd           | Web:      www.OpenFOAM.com                      |
|    \\/     M anipulation  |                                                 |
\*---------------------------------------------------------------------------*/
FoamFile
{
    version     2.0;
    format      ascii;
    class       scalarField;
    location    "11.4/lagrangian/kinematicCloud";
    object      age;
}
// * * * * * * * * * * * * * * * * * * * * * * * * * * * * * * * * * * * * * //


197
(
11.1829
11.3198
11.124
11.3622
11.2075
11.4002
11.0517
11.2459
11.2965
11.3937
11.1878
11.2982
11.211
11.3473
11.3305
10.9264
11.371
10.7698
11.3077
10.54
11.3665
11.3939
10.9139
10.9308
10.9648
10.8486
10.7508
10.5301
10.7986
10.5129
10.9064
10.4937
10.6717
10.5943
11.3885
10.811
11.1064
10.4804
10.6398
11.1487
10.5293
10.7669
11.2252
10.5172
10.9938
10.5143
10.6
11.1254
10.9794
10.4874
11.1815
10.6777
10.6758
10.7706
10.5222
10.9338
11.1055
11.2653
10.5727
10.5193
11.1922
10.842
10.5103
10.5583
10.4924
11.2726
10.6752
10.5705
11.1911
10.6073
11.3708
10.8472
10.6001
10.631
11.0476
10.58
10.6404
11.1924
10.4666
11.0083
11.3597
11.3543
11.4
10.7074
10.6816
10.5816
10.64
10.6396
10.737
10.6407
10.5724
10.9542
10.5416
10.6045
11.012
10.7412
11.228
10.532
10.8736
11.1057
10.6719
10.681
11.3786
11.3947
10.8483
11.2211
10.8035
10.5032
10.8056
10.5287
11.0963
10.7811
10.6001
10.7315
10.5
10.6703
10.5913
10.6801
10.8752
11.384
10.5945
10.612
11.2303
10.7001
10.8001
10.6645
10.851
10.9571
10.4726
10.7747
10.8142
10.5235
10.5175
10.8878
11.1901
10.6901
10.6765
11.1096
11.3095
10.6036
10.4707
10.8397
11.1849
10.7259
10.5301
10.6354
11.3138
10.4851
10.8608
10.9159
10.6211
10.6807
10.7002
11.3325
11.001
10.6666
10.6956
10.6667
11.3289
11.3003
10.5848
10.7182
10.6027
10.8378
10.7207
10.5538
11.3471
10.5818
10.5304
10.8098
10.6335
10.8149
10.9155
10.6507
10.6814
10.4903
10.6955
11.0073
10.7676
10.8335
11.0414
10.7129
11.0762
11.0553
10.4881
10.7301
10.6303
10.4759
10.866
10.5913
10.5365
11.0445
10.5102
10.6375
11.3385
11.2241
10.8198
)


// ************************************************************************* //
