/*--------------------------------*- C++ -*----------------------------------*\
| =========                 |                                                 |
| \\      /  F ield         | OpenFOAM: The Open Source CFD Toolbox           |
|  \\    /   O peration     | Version:  plus.master.MPPICInterFoam            |
|   \\  /    A nd           | Web:      www.OpenFOAM.com                      |
|    \\/     M anipulation  |                                                 |
\*---------------------------------------------------------------------------*/
FoamFile
{
    version     2.0;
    format      ascii;
    class       volScalarField;
    location    "4.2";
    object      epsilon;
}
// * * * * * * * * * * * * * * * * * * * * * * * * * * * * * * * * * * * * * //

dimensions      [0 2 -3 0 0 0 0];

internalField   nonuniform List<scalar> 
11821
(
0.5011
0.535431
0.390075
0.442005
0.371291
0.286118
0.319727
0.421901
0.52313
0.584179
0.546645
0.447721
0.332689
0.402336
0.551972
0.708454
0.817861
0.771456
0.614137
0.438487
0.464326
0.670783
0.891797
1.1131
0.995786
0.789766
0.529786
0.477257
0.715817
1.06423
1.03864
1.05661
0.902098
0.562783
0.424182
0.603527
0.836769
1.05405
0.968727
0.718814
0.487968
0.344337
0.46296
0.599329
0.710327
0.656905
0.520988
0.379869
0.264761
0.33818
0.410644
0.455487
0.433076
0.363221
0.279742
0.328868
0.440971
0.556884
0.625399
0.569745
0.450888
0.326603
0.422421
0.59379
0.774858
0.884015
0.825707
0.632467
0.435759
0.495199
0.73582
0.917856
1.14981
1.01533
0.816902
0.530233
0.506875
0.772629
1.09408
1.05224
1.07951
0.898118
0.556047
0.443049
0.635259
0.864611
1.07408
0.958607
0.711685
0.478186
0.35487
0.478457
0.617921
0.723496
0.655656
0.51395
0.371122
0.271109
0.345173
0.417241
0.458765
0.430798
0.357894
0.274441
0.332052
0.448566
0.573903
0.653914
0.574852
0.441139
0.314843
0.434575
0.622205
0.843067
1.03463
0.878734
0.631987
0.422931
0.518595
0.785034
1.04133
1.08567
1.11272
0.838801
0.5198
0.532089
0.824758
1.15464
1.09427
1.13056
0.905486
0.543563
0.459596
0.664255
0.902138
1.14371
0.965296
0.704951
0.464323
0.364938
0.492681
0.63793
0.744361
0.657626
0.505194
0.360946
0.277985
0.352675
0.42458
0.46389
0.429431
0.3527
0.269391
0.329171
0.443465
0.566785
0.641996
0.552598
0.418917
0.298914
0.435899
0.626516
0.866962
1.0849
0.860173
0.602492
0.400855
0.528039
0.800535
1.11129
1.07997
1.14716
0.808411
0.494688
0.547615
0.846061
1.17939
1.11127
1.10919
0.883592
0.520139
0.471285
0.680759
0.916272
1.16153
0.954353
0.680218
0.444824
0.373721
0.503677
0.650972
0.756334
0.649088
0.490253
0.349272
0.285147
0.36043
0.431466
0.467461
0.425984
0.346536
0.264667
0.320862
0.427388
0.538431
0.598787
0.509851
0.388509
0.280824
0.427027
0.607447
0.833797
1.01464
0.789842
0.55261
0.372507
0.523176
0.798328
1.07816
1.18997
1.07868
0.740838
0.457141
0.551988
0.870002
1.11552
1.07768
1.03463
0.828084
0.48448
0.477192
0.69
0.926185
1.12199
0.913839
0.640873
0.420618
0.380831
0.511399
0.653931
0.742802
0.625599
0.469927
0.337282
0.292138
0.367657
0.436017
0.465268
0.418496
0.339589
0.260862
0.309464
0.406046
0.499694
0.540952
0.462963
0.358892
0.264281
0.411629
0.577285
0.785265
0.923893
0.706013
0.499965
0.345549
0.504953
0.760507
1.00622
1.11144
0.979816
0.651321
0.41761
0.542312
0.854212
1.02702
1.02816
1.01501
0.72084
0.442954
0.477281
0.692043
0.899097
1.03281
0.846922
0.590415
0.397241
0.386167
0.51673
0.652
0.717498
0.593514
0.449918
0.327905
0.298471
0.37397
0.4385
0.459397
0.409718
0.334277
0.258804
0.297828
0.387492
0.469457
0.498187
0.430349
0.337283
0.251427
0.397101
0.548936
0.72935
0.833379
0.645619
0.464442
0.326671
0.488319
0.717005
0.931445
0.989502
0.903683
0.595248
0.392903
0.531641
0.817631
0.942762
0.995852
1.07204
0.658407
0.419607
0.479704
0.686537
0.901815
0.98857
0.808093
0.56411
0.385586
0.392709
0.521801
0.655208
0.693797
0.579355
0.441436
0.324301
0.304462
0.382031
0.444709
0.4584
0.408364
0.333988
0.258754
0.284797
0.371034
0.44794
0.471301
0.407505
0.320606
0.240607
0.384179
0.53036
0.695017
0.777831
0.608013
0.442597
0.313493
0.478827
0.695039
0.87203
0.917338
0.842113
0.569531
0.380047
0.526152
0.7909
0.898972
0.946473
1.0033
0.637681
0.410479
0.483211
0.659285
0.869776
0.977982
0.790237
0.559713
0.382901
0.397824
0.520375
0.633103
0.686364
0.576652
0.443709
0.324296
0.306692
0.390519
0.456637
0.469322
0.415967
0.337271
0.259055
0.267674
0.347444
0.421994
0.444465
0.382226
0.302642
0.230548
0.361175
0.496011
0.647645
0.710728
0.56541
0.417849
0.299813
0.458033
0.651187
0.806553
0.842333
0.767667
0.548063
0.367996
0.516392
0.731759
0.827663
0.869859
0.913224
0.624394
0.404566
0.480277
0.622617
0.787371
0.927598
0.719294
0.556436
0.379867
0.389129
0.518313
0.606848
0.637932
0.564593
0.441035
0.321423
0.299513
0.386913
0.464517
0.478611
0.418288
0.335667
0.257369
0.247402
0.312763
0.373144
0.394141
0.344326
0.281112
0.221078
0.325414
0.431465
0.550914
0.616859
0.49174
0.377865
0.282118
0.407211
0.560277
0.67918
0.664419
0.661722
0.490361
0.343065
0.463781
0.653496
0.727942
0.737344
0.753165
0.570941
0.380859
0.435186
0.582456
0.664818
0.723517
0.666732
0.522347
0.362993
0.360607
0.476248
0.587217
0.638227
0.537589
0.419765
0.311439
0.284381
0.363209
0.438606
0.461834
0.401608
0.324951
0.253311
0.232052
0.283504
0.324797
0.338365
0.310129
0.264787
0.21538
0.295276
0.373077
0.4446
0.47634
0.418126
0.341834
0.268571
0.356384
0.468811
0.551147
0.565521
0.536552
0.423349
0.318061
0.398243
0.543028
0.597067
0.637202
0.60965
0.486231
0.349145
0.383971
0.516697
0.597027
0.580771
0.593861
0.464331
0.339934
0.332936
0.43091
0.526273
0.577742
0.490742
0.390551
0.300838
0.271707
0.337355
0.395134
0.418498
0.373762
0.31279
0.250563
0.226407
0.27272
0.306894
0.318235
0.298754
0.261049
0.215389
0.284244
0.350993
0.406997
0.430593
0.392707
0.331097
0.266834
0.337036
0.434207
0.51671
0.571942
0.505474
0.402013
0.312336
0.369837
0.486177
0.571982
0.535848
0.594648
0.453008
0.340462
0.363255
0.473063
0.560323
0.522476
0.560782
0.438342
0.335015
0.324148
0.409815
0.485868
0.530064
0.467827
0.382492
0.301689
0.269308
0.32969
0.377535
0.394787
0.364665
0.312494
0.253706
0.228602
0.277516
0.312004
0.322826
0.30587
0.267963
0.219126
0.290687
0.359452
0.411447
0.429161
0.40227
0.343889
0.275778
0.346367
0.436505
0.50313
0.527785
0.499525
0.418247
0.326195
0.379859
0.483607
0.544355
0.49523
0.556876
0.468838
0.357215
0.376458
0.478066
0.54615
0.540043
0.54583
0.457292
0.35281
0.33671
0.423848
0.490797
0.515021
0.478072
0.404037
0.316437
0.277281
0.343197
0.392944
0.407481
0.382259
0.327682
0.262568
0.230789
0.289007
0.33128
0.342754
0.322528
0.276553
0.220449
0.303843
0.385482
0.440434
0.453029
0.433133
0.366291
0.2855
0.373189
0.425203
0.461936
0.50174
0.447235
0.446872
0.346706
0.414139
0.461462
0.473753
0.484083
0.464345
0.460772
0.384768
0.408572
0.475868
0.437585
0.463183
0.453112
0.481651
0.378536
0.358884
0.450956
0.481453
0.476395
0.460419
0.429854
0.333585
0.285171
0.365285
0.422818
0.44022
0.410732
0.345432
0.267542
0.221735
0.282032
0.328524
0.342071
0.318984
0.269972
0.21335
0.293767
0.367727
0.399734
0.408616
0.406455
0.358099
0.277927
0.358078
0.419311
0.408538
0.38914
0.440531
0.415312
0.340069
0.390172
0.417781
0.388328
0.417714
0.407132
0.438147
0.375597
0.388988
0.43293
0.414246
0.431739
0.423271
0.431617
0.371951
0.346068
0.414612
0.443366
0.433685
0.45282
0.408359
0.323191
0.271434
0.351917
0.401834
0.412492
0.391713
0.33283
0.256095
0.202097
0.255712
0.299863
0.313953
0.292666
0.247747
0.198748
0.263548
0.337382
0.380243
0.394618
0.38147
0.326249
0.254099
0.325962
0.394469
0.421554
0.411967
0.450459
0.390655
0.309569
0.359431
0.41607
0.386106
0.380565
0.421671
0.415396
0.343328
0.355129
0.418099
0.405974
0.37064
0.434745
0.409246
0.335509
0.306028
0.386904
0.427212
0.430861
0.426546
0.375537
0.290165
0.240102
0.311575
0.368562
0.383734
0.359062
0.297438
0.231613
0.0512876
0.0780357
0.165898
0.114939
0.0817936
0.0615024
0.0528547
0.0774892
0.372258
0.251347
0.170821
0.117991
0.0839668
0.0631964
0.0542289
0.0786169
0.332821
0.228924
0.158728
0.112101
0.0816683
0.062881
0.0550606
0.0809619
0.267729
0.190962
0.137884
0.101469
0.076926
0.061506
0.055846
0.0852631
0.204731
0.154784
0.117915
0.0911481
0.0723391
0.060438
0.0573985
0.0921288
0.230474
0.169676
0.12477
0.0926121
0.0704909
0.0567387
0.0526087
0.0854102
0.294871
0.206567
0.145745
0.104414
0.0769039
0.0598693
0.0534202
0.0823949
0.348508
0.237505
0.163267
0.114375
0.0826143
0.0631066
0.0550424
0.0818873
0.363664
0.245321
0.167823
0.117431
0.08491
0.0649238
0.0565086
0.0830786
0.324049
0.223533
0.156544
0.112167
0.0830037
0.0648308
0.0574695
0.0855612
0.261459
0.187848
0.137288
0.102467
0.0787369
0.0636876
0.0583909
0.090077
0.201749
0.154021
0.118721
0.0928738
0.074492
0.0627829
0.0600716
0.0972457
0.225217
0.166054
0.122982
0.0922561
0.0710994
0.0579705
0.0544166
0.0893288
0.288636
0.201778
0.143293
0.103795
0.0774618
0.0611205
0.0552267
0.0862141
0.341747
0.231714
0.160251
0.113585
0.083191
0.0644268
0.0569029
0.0857153
0.354846
0.238932
0.164796
0.11683
0.085684
0.0663877
0.0584538
0.0869582
0.315527
0.218307
0.154537
0.11227
0.0841908
0.0665153
0.0595336
0.0895797
0.255737
0.185136
0.136881
0.10344
0.0803605
0.0655777
0.0605688
0.0942869
0.199412
0.153633
0.119632
0.094485
0.0763983
0.0648031
0.0623503
0.10172
0.218046
0.161639
0.120784
0.0916084
0.0714409
0.0589365
0.0559273
0.0926589
0.279121
0.195839
0.140348
0.102866
0.0777425
0.0620937
0.0567298
0.0894551
0.33101
0.224742
0.156861
0.112568
0.0835216
0.0654681
0.0584413
0.0889336
0.343536
0.232051
0.161732
0.116148
0.0862665
0.0675826
0.0600666
0.0902209
0.305812
0.213216
0.152763
0.112376
0.0852031
0.0679228
0.0612483
0.0929708
0.249958
0.182787
0.136715
0.104388
0.0817731
0.06716
0.0623687
0.0978371
0.197455
0.153538
0.120625
0.0959785
0.0780406
0.0664784
0.0642159
0.105478
0.209331
0.156632
0.118286
0.0907244
0.071551
0.0596642
0.0571629
0.0953569
0.266659
0.188972
0.13705
0.101697
0.0777835
0.0628178
0.0579522
0.0920798
0.316087
0.216655
0.153146
0.11135
0.0836253
0.0662518
0.0596798
0.0915039
0.329281
0.224591
0.15859
0.115367
0.0866496
0.068514
0.0613622
0.0928223
0.295272
0.208325
0.151171
0.112448
0.0860157
0.0690454
0.0626175
0.0956715
0.244552
0.180941
0.136743
0.105254
0.0829383
0.0684179
0.0637844
0.100647
0.19601
0.15379
0.121665
0.0972858
0.0793717
0.0677843
0.0656538
0.108419
0.199804
0.151333
0.115606
0.0896566
0.0714689
0.0601972
0.0581814
0.0975239
0.252344
0.181621
0.133563
0.100355
0.077632
0.0633386
0.0589492
0.0941687
0.297702
0.207783
0.149239
0.109975
0.0835311
0.0668147
0.0606739
0.0935246
0.311755
0.216579
0.155394
0.114474
0.0868294
0.0692012
0.0623871
0.0948487
0.283967
0.203638
0.149699
0.112416
0.0865924
0.069885
0.0636768
0.0977439
0.239627
0.179486
0.136826
0.105929
0.0838016
0.0693426
0.0648435
0.102753
0.195075
0.154212
0.122576
0.0982883
0.0803316
0.0687093
0.0666904
0.110569
0.190813
0.146252
0.112968
0.0885469
0.0713041
0.0606201
0.0590666
0.099484
0.23897
0.174771
0.130247
0.0990189
0.0774084
0.0637431
0.0597977
0.0960245
0.280158
0.199675
0.145647
0.108644
0.0833573
0.067242
0.0615024
0.0953191
0.294907
0.209495
0.152577
0.113609
0.0868909
0.0697147
0.0632154
0.0966238
0.274356
0.199905
0.148485
0.112301
0.0869677
0.0704922
0.064495
0.0995028
0.236143
0.178538
0.136878
0.106359
0.0843702
0.0699756
0.0656156
0.104466
0.194722
0.154626
0.123195
0.098915
0.0809243
0.0692971
0.0674048
0.112258
0.183486
0.141972
0.110766
0.0876904
0.071259
0.0610494
0.0598736
0.101507
0.229033
0.169419
0.127621
0.0980291
0.0773351
0.0641556
0.0605545
0.097916
0.268574
0.193966
0.143039
0.107732
0.0833445
0.0676675
0.0622217
0.0971498
0.285048
0.205057
0.150746
0.113112
0.0870619
0.0701881
0.0639034
0.0984095
0.269461
0.197844
0.147806
0.112336
0.0873324
0.0709926
0.0651332
0.101234
0.234745
0.178149
0.136976
0.106707
0.0848115
0.0704369
0.0661702
0.106105
0.194818
0.154931
0.12357
0.0993136
0.0813107
0.0696674
0.0678732
0.113841
0.177703
0.138819
0.109395
0.0873769
0.071503
0.0615678
0.060604
0.103377
0.221706
0.165555
0.126022
0.0976826
0.0775879
0.0646611
0.0612279
0.0996451
0.261473
0.190241
0.141586
0.107529
0.0836805
0.0681814
0.0628356
0.0987742
0.280211
0.202533
0.14992
0.113235
0.0875391
0.0707188
0.0644546
0.0999461
0.267498
0.196812
0.147697
0.112752
0.0878937
0.0714966
0.0656046
0.102702
0.234293
0.178028
0.137295
0.107242
0.0853341
0.0708446
0.0665301
0.107469
0.194962
0.155192
0.12399
0.0997778
0.0817015
0.0699407
0.0681136
0.115109
0.17348
0.137011
0.10894
0.0875798
0.0719849
0.0621666
0.0612846
0.104575
0.215746
0.163117
0.125444
0.0979051
0.0780811
0.0652292
0.0618379
0.100697
0.255635
0.187887
0.141177
0.107907
0.0842442
0.0687296
0.0633514
0.0996214
0.276697
0.2013
0.150096
0.113899
0.0882014
0.0712444
0.0648722
0.100633
0.265863
0.196664
0.148405
0.113625
0.0885885
0.0719628
0.0659191
0.103294
0.233667
0.178531
0.13823
0.108105
0.0859267
0.0711852
0.0667182
0.107956
0.195206
0.155961
0.124854
0.100462
0.0821165
0.0701273
0.0681552
0.115424
0.17007
0.135934
0.108841
0.0878523
0.0724366
0.0627778
0.0620612
0.105318
0.209354
0.161181
0.125194
0.0981625
0.0784905
0.065757
0.0625079
0.101272
0.246412
0.185138
0.140854
0.108213
0.0846376
0.0691701
0.0638843
0.0999064
0.267814
0.198884
0.150055
0.114351
0.0886043
0.0716036
0.0652742
0.100702
0.260003
0.195571
0.148884
0.114234
0.0889795
0.0722346
0.0661992
0.103219
0.231035
0.178664
0.139004
0.108678
0.0862019
0.0713323
0.0668726
0.107762
0.194839
0.15666
0.125574
0.100851
0.0822281
0.0701399
0.0681721
0.115011
0.167912
0.135169
0.108555
0.0878049
0.0726653
0.0633633
0.0630809
0.106709
0.204945
0.159959
0.124849
0.0980467
0.0785942
0.0661945
0.0633663
0.10241
0.238544
0.183143
0.140428
0.108055
0.0846284
0.0694555
0.0645813
0.100779
0.25818
0.196665
0.149718
0.114229
0.0885177
0.0717541
0.0658259
0.101378
0.253377
0.194455
0.148919
0.114165
0.0888208
0.0722678
0.0666198
0.103718
0.228561
0.178684
0.139176
0.108507
0.0859182
0.0712512
0.0671816
0.10812
0.194562
0.156965
0.125551
0.100476
0.081808
0.0699635
0.0683949
0.115211
0.167641
0.134617
0.107938
0.0874073
0.0726918
0.0638967
0.0642417
0.109004
0.205059
0.159894
0.124375
0.0975658
0.0784589
0.0665545
0.0643413
0.104442
0.238339
0.183568
0.140224
0.10756
0.0843401
0.0696427
0.0654062
0.102663
0.257753
0.197505
0.149776
0.113735
0.0880996
0.0717879
0.066524
0.103175
0.254333
0.195736
0.149039
0.113584
0.0882693
0.0721677
0.067203
0.105401
0.230641
0.179719
0.138916
0.107675
0.0852135
0.0710416
0.0676764
0.109684
0.196022
0.157081
0.124719
0.0993809
0.0809884
0.0696954
0.0688664
0.116743
0.167996
0.133689
0.106882
0.086779
0.0726083
0.0642859
0.0651487
0.111649
0.208221
0.159952
0.123409
0.0967477
0.0781672
0.0667719
0.0650814
0.106847
0.24491
0.185199
0.139608
0.106614
0.0838359
0.069689
0.0660295
0.105043
0.266537
0.200289
0.149459
0.112694
0.087414
0.0716842
0.0670539
0.105571
0.26318
0.198378
0.148542
0.112367
0.0874216
0.0719329
0.0676438
0.107755
0.236815
0.180801
0.137761
0.106211
0.0842437
0.0707159
0.0680479
0.11195
0.198307
0.156372
0.12295
0.0977531
0.0799652
0.0693351
0.069233
0.119062
0.166753
0.132035
0.105776
0.0864
0.0727319
0.0646573
0.0657311
0.114393
0.209325
0.158464
0.121948
0.0960325
0.0780813
0.0670207
0.065554
0.109374
0.250215
0.184655
0.138009
0.105588
0.0835435
0.0698316
0.0664608
0.10773
0.274774
0.200531
0.147769
0.111428
0.0869302
0.0717199
0.0674491
0.108411
0.270589
0.198171
0.146573
0.110888
0.0867706
0.0718581
0.0679906
0.110661
0.239945
0.179133
0.135419
0.104605
0.0835008
0.0705545
0.0683367
0.114815
0.197288
0.153646
0.120477
0.0961745
0.0792133
0.0691202
0.0694869
0.122002
0.162973
0.130037
0.105156
0.0865868
0.0732123
0.0651015
0.0660559
0.115913
0.203822
0.155085
0.120504
0.0958339
0.0784133
0.0674116
0.0658376
0.110747
0.244132
0.180276
0.135817
0.104989
0.0837225
0.0701859
0.0667468
0.109181
0.26874
0.195668
0.14508
0.11049
0.0869397
0.0720098
0.0677213
0.109922
0.26405
0.192849
0.143534
0.109689
0.0866132
0.0720579
0.0682496
0.112308
0.232229
0.173696
0.132397
0.103351
0.0832405
0.0706387
0.0685256
0.116492
0.190346
0.148986
0.11791
0.095064
0.0788607
0.0690668
0.0695524
0.123606
0.155933
0.126932
0.104206
0.0866145
0.0735025
0.0652999
0.0659756
0.11533
0.191224
0.149113
0.118217
0.0953132
0.0785324
0.0675736
0.0657682
0.110149
0.226163
0.171022
0.131888
0.103778
0.0836032
0.0702912
0.0666744
0.108521
0.247642
0.184213
0.139919
0.108672
0.0865732
0.0720299
0.0676301
0.109207
0.242127
0.181002
0.138063
0.107669
0.086108
0.0720038
0.0681607
0.111762
0.213566
0.163727
0.12769
0.101541
0.0826327
0.070477
0.0683737
0.116029
0.177381
0.141909
0.114452
0.0935688
0.0782711
0.0687951
0.0692482
0.122924
0.198254
0.156628
0.124188
0.0989097
0.0797952
0.0669518
0.0636124
0.1042
0.248764
0.187739
0.143269
0.110146
0.0856289
0.0688965
0.0623313
0.0967536
0.298766
0.219093
0.16238
0.121263
0.0914588
0.0711704
0.0619904
0.092207
0.330379
0.238484
0.173826
0.127535
0.0944056
0.0720092
0.061419
0.0896028
0.32356
0.234625
0.17111
0.125236
0.0923777
0.0702644
0.0599383
0.088135
0.284182
0.209842
0.155326
0.115086
0.0859203
0.0663655
0.0578858
0.0881629
0.230724
0.176708
0.134366
0.101889
0.0779972
0.0621728
0.0565327
0.0908286
0.203873
0.161418
0.128214
0.102189
0.0824123
0.0690983
0.065681
0.108288
0.256217
0.193482
0.14781
0.113666
0.0883065
0.0709833
0.0642442
0.100469
0.309335
0.225989
0.167312
0.124856
0.0940684
0.0731326
0.0637484
0.0956462
0.34454
0.246397
0.178842
0.130917
0.0967546
0.073751
0.0630049
0.0928316
0.337482
0.241906
0.175365
0.127978
0.0942637
0.0717119
0.0613538
0.0912134
0.29356
0.21474
0.158159
0.116919
0.0872656
0.0675314
0.0591877
0.0911966
0.235429
0.179156
0.13581
0.102937
0.0789442
0.0631811
0.0578296
0.0939668
0.209774
0.166223
0.131979
0.105015
0.0844833
0.0706696
0.0671324
0.111331
0.263725
0.199169
0.15204
0.116687
0.0903998
0.0724785
0.0655537
0.103203
0.319051
0.232419
0.171735
0.127842
0.0960384
0.0744856
0.0649184
0.0981671
0.356487
0.25312
0.182955
0.133494
0.0983815
0.0748637
0.0640203
0.0951984
0.347953
0.247295
0.178396
0.129754
0.095363
0.0725265
0.0622238
0.0934745
0.299279
0.217544
0.159622
0.117753
0.0878544
0.068112
0.0599908
0.0934676
0.237195
0.1798
0.136052
0.103125
0.0792458
0.063683
0.0586793
0.0963856
0.215661
0.170761
0.135225
0.10718
0.0858677
0.071592
0.0679395
0.11322
0.270661
0.204372
0.155642
0.118967
0.0917531
0.0733075
0.0662414
0.104868
0.326849
0.237785
0.175249
0.129944
0.0972
0.0751561
0.065493
0.0997043
0.364477
0.257804
0.185689
0.134981
0.0991222
0.0752871
0.0644725
0.0966586
0.352801
0.249877
0.179697
0.130285
0.0955541
0.0726796
0.0625738
0.0948918
0.300181
0.217721
0.159432
0.117444
0.0876311
0.06811
0.0603313
0.0949573
0.235767
0.178501
0.135003
0.102402
0.0788882
0.0636963
0.0591171
0.0980566
0.220886
0.174489
0.137531
0.108407
0.0864296
0.0718461
0.068171
0.114065
0.276383
0.208504
0.158128
0.12018
0.0922081
0.0734463
0.0663811
0.105589
0.331677
0.241328
0.177306
0.130805
0.0973828
0.0751214
0.0655532
0.100404
0.366862
0.259462
0.18646
0.135025
0.0988302
0.0750159
0.064451
0.0973669
0.35083
0.248795
0.178723
0.129329
0.0947554
0.0721985
0.0625044
0.0956281
0.295845
0.214908
0.157337
0.115868
0.0865764
0.0675777
0.0603126
0.0958213
0.231076
0.175146
0.13257
0.100732
0.0778903
0.0632836
0.0592441
0.0991336
0.224745
0.176752
0.138449
0.108496
0.0861626
0.0715296
0.0679975
0.114394
0.280427
0.210983
0.159025
0.120095
0.0917508
0.0729976
0.0661445
0.105894
0.333216
0.242637
0.17751
0.130221
0.0965938
0.0745002
0.0652763
0.100803
0.363098
0.257843
0.18503
0.133511
0.0975627
0.0741917
0.0641346
0.097843
0.342734
0.244329
0.175562
0.126942
0.0931018
0.0712481
0.0621927
0.0961796
0.287519
0.209502
0.153482
0.113167
0.0848626
0.0666832
0.0601016
0.0965227
0.223891
0.170015
0.128906
0.0982704
0.0764191
0.0625982
0.0592132
0.100051
0.227076
0.177274
0.13793
0.107647
0.0853454
0.0708775
0.0675868
0.114752
0.283652
0.211753
0.158353
0.118946
0.0907054
0.0722291
0.0657119
0.106328
0.334859
0.242586
0.176176
0.128562
0.095235
0.0735989
0.0648459
0.101421
0.358721
0.25482
0.182145
0.131027
0.0958141
0.073149
0.0637051
0.0985735
0.334343
0.238663
0.17122
0.12378
0.0910954
0.070152
0.0618095
0.0970031
0.278403
0.202903
0.148685
0.109969
0.0829509
0.0657115
0.0598488
0.0974844
0.21572
0.163934
0.124656
0.0955434
0.0748573
0.0618748
0.0591534
0.101229
0.226281
0.175672
0.136404
0.106421
0.0843978
0.0701283
0.0670034
0.11495
0.28346
0.20964
0.1562
0.117323
0.0895518
0.0714108
0.0651641
0.106718
0.334487
0.239752
0.173226
0.126426
0.0938315
0.0727037
0.0643349
0.102021
0.354785
0.249966
0.178032
0.128294
0.0941367
0.072174
0.0632278
0.0992984
0.326305
0.231649
0.166207
0.120648
0.0892754
0.0691768
0.0614153
0.0978587
0.268362
0.195418
0.143773
0.106997
0.0812875
0.0648832
0.0596056
0.0985024
0.206807
0.15769
0.120635
0.0931494
0.0735627
0.0612938
0.0591057
0.102481
0.222104
0.172882
0.134603
0.10519
0.0834596
0.0693482
0.06629
0.114248
0.276772
0.205185
0.153485
0.115651
0.0884219
0.0705883
0.0645337
0.106326
0.326718
0.233671
0.169458
0.124205
0.0924661
0.0718212
0.0637548
0.101808
0.344314
0.242209
0.17325
0.125551
0.0925469
0.0712447
0.0627073
0.0992394
0.312284
0.222636
0.160927
0.117704
0.0876401
0.0683035
0.0610208
0.0980254
0.25503
0.187353
0.139145
0.104414
0.0798898
0.0642033
0.0594014
0.0989512
0.197349
0.151837
0.11719
0.0912124
0.072556
0.060882
0.059116
0.103221
0.214963
0.169189
0.132438
0.103652
0.0822699
0.0684751
0.065654
0.112865
0.263025
0.198502
0.150055
0.113572
0.0869978
0.0696548
0.0639882
0.105312
0.305103
0.22313
0.164308
0.12139
0.0907404
0.0708029
0.0632599
0.100962
0.318217
0.229277
0.166946
0.122214
0.0906248
0.0702051
0.0622953
0.0985921
0.287629
0.21047
0.154882
0.114462
0.0858262
0.0674042
0.0607779
0.0976981
0.237626
0.178473
0.134465
0.101808
0.0784596
0.0635896
0.0594047
0.0990398
0.187045
0.14612
0.113943
0.0893598
0.0716045
0.0606075
0.059374
0.103669
0.208491
0.165581
0.129844
0.10153
0.0806779
0.0675514
0.065403
0.112309
0.250267
0.192374
0.146452
0.110982
0.0851718
0.0686563
0.0638011
0.105066
0.282575
0.213043
0.159121
0.118136
0.0886317
0.0697262
0.0631303
0.100899
0.290039
0.216801
0.160759
0.118558
0.0883973
0.0691501
0.0622688
0.0987668
0.264787
0.199761
0.149249
0.111072
0.0838252
0.066559
0.0609449
0.0981941
0.223161
0.17102
0.130142
0.099114
0.0769475
0.0631091
0.0598448
0.0999364
0.17861
0.141184
0.11085
0.0874452
0.07065
0.0605209
0.0601036
0.104978
0.20616
0.163106
0.127132
0.0990688
0.0789486
0.066778
0.0656885
0.11368
0.246171
0.189519
0.143564
0.108326
0.0832943
0.0678311
0.0641228
0.106624
0.274113
0.2087
0.1557
0.115219
0.0866285
0.0688887
0.0635334
0.102703
0.278524
0.211185
0.156839
0.115482
0.0863958
0.0683909
0.0627935
0.100813
0.255725
0.194684
0.145479
0.108193
0.0820783
0.0660322
0.0616541
0.100466
0.217143
0.166902
0.126875
0.0967382
0.075655
0.062929
0.0607971
0.102474
0.174368
0.137822
0.108226
0.0856955
0.0698769
0.0607181
0.0613405
0.107921
0.20728
0.161086
0.124066
0.0964076
0.0772657
0.0661435
0.0661233
0.116322
0.250726
0.189082
0.140841
0.105549
0.08148
0.06716
0.0645964
0.10938
0.280188
0.209377
0.153351
0.112456
0.0847857
0.0682484
0.0641058
0.105766
0.283753
0.211654
0.154456
0.112763
0.0846474
0.067873
0.0635055
0.10414
0.259522
0.19413
0.142851
0.105683
0.0806074
0.0657467
0.0625387
0.10395
0.218297
0.165041
0.124155
0.0946146
0.0746282
0.0629672
0.0618953
0.106119
0.173066
0.135311
0.105854
0.0841704
0.0693478
0.0610929
0.0626815
0.111918
0.206147
0.157148
0.12028
0.093849
0.0759708
0.0658023
0.0666255
0.12002
0.255246
0.186604
0.137028
0.102726
0.0800269
0.0667992
0.0651405
0.113147
0.2904
0.209022
0.149976
0.10964
0.0833322
0.0679467
0.0647597
0.109887
0.295476
0.21189
0.15132
0.110119
0.0833552
0.0677199
0.0642992
0.108508
0.266709
0.192923
0.139687
0.103382
0.0796272
0.0658154
0.063486
0.108421
0.21962
0.162287
0.121251
0.0928796
0.074092
0.0633024
0.0630028
0.110628
0.17103
0.132419
0.10369
0.0831388
0.0692697
0.0616851
0.0639595
0.11666
0.196764
0.150275
0.116074
0.0917454
0.0752356
0.0658361
0.067194
0.123018
0.245285
0.178651
0.131969
0.100168
0.0791321
0.0668335
0.065783
0.116261
0.282238
0.201421
0.144808
0.107001
0.0824628
0.0680633
0.0654896
0.113187
0.287794
0.204731
0.146496
0.107754
0.0826861
0.0679842
0.0651293
0.111931
0.258991
0.186256
0.135525
0.101502
0.0792927
0.0662729
0.0644353
0.111945
0.211779
0.1567
0.118176
0.0917448
0.0741351
0.0639409
0.0640505
0.114195
0.165289
0.128758
0.101965
0.0827773
0.069685
0.0624779
0.0650687
0.120288
0.179236
0.140167
0.110814
0.0893882
0.0744772
0.0659041
0.0676565
0.124174
0.220407
0.16423
0.124541
0.0968724
0.078067
0.0668644
0.0663271
0.11758
0.254695
0.184382
0.135946
0.103104
0.0812083
0.0680728
0.0660503
0.114422
0.260934
0.187925
0.137821
0.104029
0.0815754
0.0680953
0.0657445
0.113151
0.234896
0.172126
0.128547
0.0986974
0.0786421
0.0665884
0.0651471
0.113292
0.193871
0.146992
0.113661
0.0901756
0.0740484
0.0644956
0.0648538
0.115712
0.154756
0.12334
0.0997003
0.0822795
0.0700465
0.0631739
0.0658661
0.121742
0.232926
0.177432
0.134142
0.101097
0.0769553
0.0610767
0.0553818
0.0888237
0.298781
0.216899
0.156922
0.113425
0.0827773
0.0628388
0.0542443
0.0823683
0.362073
0.254794
0.178208
0.124546
0.0879739
0.064661
0.0539809
0.0788516
0.395315
0.272896
0.187209
0.12853
0.0893933
0.0648559
0.0535632
0.0774203
0.370412
0.256324
0.176417
0.12173
0.0853146
0.0626213
0.0525339
0.0773098
0.305754
0.215418
0.151719
0.107497
0.0776832
0.0590669
0.0515689
0.079271
0.23236
0.171059
0.125622
0.0929091
0.0703277
0.0562424
0.0518661
0.0842837
0.236759
0.179154
0.135056
0.101836
0.0777649
0.0620585
0.0567272
0.0920892
0.305023
0.218629
0.157325
0.113739
0.0833387
0.0637084
0.0555455
0.0855534
0.372004
0.256577
0.177931
0.124309
0.0882264
0.0654081
0.0552589
0.0820253
0.406308
0.273885
0.186064
0.127713
0.0893569
0.0655121
0.0548496
0.0806276
0.374067
0.254411
0.174118
0.120456
0.0851564
0.0632988
0.0538989
0.080613
0.302719
0.21158
0.149092
0.106366
0.0777366
0.0599281
0.0530972
0.0827882
0.227423
0.167382
0.123628
0.0923413
0.070766
0.0573525
0.053589
0.0880879
0.237456
0.179084
0.134865
0.101795
0.0779835
0.0625754
0.0576604
0.0946923
0.305646
0.217669
0.156358
0.113192
0.0832949
0.064129
0.0564686
0.0881471
0.373228
0.254494
0.175867
0.123089
0.0878569
0.0657212
0.0561829
0.0846443
0.407496
0.270319
0.182868
0.125866
0.0887243
0.0657674
0.0558086
0.0833022
0.368822
0.248461
0.170006
0.118328
0.0845052
0.0636323
0.0549668
0.0834087
0.294079
0.20529
0.145385
0.104685
0.0774324
0.0605041
0.054349
0.0857984
0.22005
0.162678
0.12114
0.0914525
0.0709334
0.0582047
0.055032
0.0913543
0.235118
0.177206
0.133481
0.100923
0.0776027
0.062648
0.058216
0.0965975
0.301009
0.214115
0.153926
0.111735
0.0826447
0.0641263
0.0570502
0.0901178
0.365351
0.248509
0.171982
0.120869
0.0868812
0.0656343
0.0567934
0.0866834
0.395688
0.261792
0.177568
0.123006
0.0875313
0.0656641
0.0564832
0.0854227
0.353615
0.238678
0.164351
0.11547
0.0834385
0.0636773
0.0557816
0.0856795
0.280582
0.197149
0.140913
0.102602
0.0768484
0.0608444
0.0553605
0.0882834
0.210978
0.15731
0.11833
0.0903278
0.0708784
0.0588342
0.0562219
0.0940482
0.229611
0.173383
0.130817
0.0991858
0.0766446
0.0623363
0.0584855
0.0979285
0.291135
0.207888
0.149971
0.109351
0.0814195
0.0637621
0.0573754
0.0915796
0.348807
0.238762
0.166278
0.117686
0.0853548
0.0652167
0.0571759
0.0882587
0.372431
0.248859
0.170452
0.119283
0.0858709
0.0652807
0.0569568
0.0871047
0.330788
0.226106
0.157589
0.112083
0.0820627
0.0635109
0.0564191
0.08753
0.264089
0.187961
0.136005
0.100262
0.0760639
0.0610103
0.0561947
0.090329
0.20096
0.151595
0.115321
0.0890268
0.0706482
0.0592877
0.0572146
0.0962443
0.221811
0.167945
0.127054
0.0967539
0.075275
0.0617847
0.0586094
0.0991097
0.278361
0.199896
0.144888
0.106289
0.0798159
0.0631863
0.0575731
0.0929165
0.328207
0.22714
0.159531
0.113903
0.083515
0.0646298
0.0574554
0.0897402
0.344776
0.23432
0.162599
0.115182
0.084015
0.0647821
0.0573476
0.0887034
0.306961
0.213297
0.150682
0.108589
0.0806082
0.0632729
0.0569818
0.0892864
0.248085
0.179037
0.131172
0.0979137
0.0752369
0.0611063
0.0569358
0.092225
0.191441
0.146093
0.112365
0.0877028
0.0703556
0.0596488
0.0580881
0.0982363
0.213371
0.161802
0.122847
0.0941403
0.0738567
0.0612095
0.0586982
0.100507
0.266278
0.191744
0.139578
0.103173
0.0782412
0.0626268
0.0577492
0.0944615
0.310882
0.216463
0.153018
0.110318
0.0818274
0.0641142
0.0577319
0.0914371
0.323121
0.222012
0.155563
0.111505
0.082417
0.0643989
0.0577473
0.090511
0.288734
0.202708
0.144719
0.105598
0.0794363
0.063151
0.0575442
0.0912154
0.235431
0.171585
0.12706
0.0959762
0.0746307
0.0612746
0.0576445
0.0942237
0.183644
0.14147
0.10989
0.086661
0.0702035
0.0600315
0.0588935
0.100284
0.20425
0.155561
0.11894
0.0918993
0.0727194
0.0607749
0.0587829
0.101901
0.254222
0.183671
0.134779
0.100578
0.0770269
0.0622419
0.0579351
0.0959962
0.296157
0.206809
0.147494
0.107488
0.0806115
0.0638158
0.0580248
0.0931027
0.306659
0.211755
0.149944
0.108807
0.0813834
0.0642649
0.0581672
0.0922769
0.274203
0.193832
0.140069
0.103531
0.0787954
0.063257
0.0581146
0.0930878
0.224914
0.165429
0.12401
0.0947849
0.0744453
0.0616106
0.058331
0.0961341
0.17727
0.137895
0.108256
0.086186
0.0703611
0.0605188
0.0596351
0.102201
0.194853
0.149838
0.115659
0.0901329
0.071872
0.0605037
0.0589123
0.102724
0.240878
0.175973
0.130648
0.0985131
0.076125
0.062021
0.0581653
0.0969655
0.280295
0.19769
0.142776
0.105276
0.0797498
0.0636883
0.0583487
0.0941536
0.290403
0.202647
0.145462
0.106867
0.0807504
0.0643082
0.0586082
0.0934083
0.260087
0.186456
0.136692
0.102264
0.0785602
0.0635341
0.0586987
0.0943493
0.215579
0.160887
0.122157
0.0942972
0.0746047
0.0620884
0.0590182
0.0974759
0.172517
0.13575
0.107585
0.0862608
0.0707819
0.0611069
0.060343
0.103494
0.184731
0.144321
0.11261
0.0884652
0.0710826
0.0603646
0.0592804
0.10322
0.224452
0.167884
0.126633
0.0965128
0.0752474
0.0618952
0.0585981
0.0975847
0.257654
0.187131
0.13795
0.103103
0.0788922
0.0636264
0.0588403
0.0947919
0.266999
0.192115
0.140923
0.104972