/*--------------------------------*- C++ -*----------------------------------*\
| =========                 |                                                 |
| \\      /  F ield         | OpenFOAM: The Open Source CFD Toolbox           |
|  \\    /   O peration     | Version:  plus.master.MPPICInterFoam            |
|   \\  /    A nd           | Web:      www.OpenFOAM.com                      |
|    \\/     M anipulation  |                                                 |
\*---------------------------------------------------------------------------*/
FoamFile
{
    version     2.0;
    format      ascii;
    class       volScalarField;
    location    "4.2";
    object      nut;
}
// * * * * * * * * * * * * * * * * * * * * * * * * * * * * * * * * * * * * * //

dimensions      [0 2 -1 0 0 0 0];

internalField   nonuniform List<scalar> 
11821
(
0.000528312
0.000540091
0.0005087
0.000521342
0.000507079
0.00048296
0.000511371
0.000540021
0.00055736
0.000563249
0.000553284
0.000531067
0.000497477
0.000541338
0.000575359
0.00060043
0.000614052
0.000598217
0.000567499
0.000528012
0.000558127
0.000601291
0.000641892
0.000673203
0.000642486
0.000595253
0.000545454
0.000560228
0.000603494
0.000647258
0.000649544
0.000634991
0.000601247
0.000547965
0.000551611
0.000585428
0.000618017
0.000638372
0.000619632
0.000581795
0.000540416
0.000534157
0.000559188
0.000577081
0.000585573
0.000576788
0.000553942
0.000523221
0.000509432
0.000530738
0.000542145
0.000544442
0.000539064
0.000523774
0.00049901
0.000523064
0.000551213
0.000566673
0.000569321
0.000560935
0.000539355
0.000506463
0.000554664
0.000585636
0.000599543
0.000603456
0.000597262
0.000574075
0.000536819
0.000573519
0.000612538
0.000624537
0.000675054
0.000631694
0.00059857
0.000554419
0.000577621
0.00061786
0.000647373
0.000650298
0.000634509
0.000604817
0.000558146
0.00056974
0.000601467
0.000624445
0.000633417
0.000621623
0.000589945
0.000552442
0.000552515
0.000577862
0.000593692
0.000599057
0.000589644
0.000567501
0.000537481
0.000527084
0.000549604
0.000560979
0.000562241
0.000555899
0.000539906
0.000514717
0.00053317
0.000560713
0.0005752
0.000576467
0.000568023
0.000546746
0.000515117
0.000566048
0.00059418
0.000604155
0.000603831
0.000602336
0.00058116
0.000545131
0.000586573
0.000617559
0.000623947
0.000617252
0.000619732
0.000605412
0.000563276
0.000592883
0.000627232
0.000646753
0.000646722
0.000636846
0.000612199
0.000568733
0.000586256
0.000615054
0.000629065
0.000638505
0.000624132
0.000600262
0.000564937
0.000569721
0.000595478
0.000610287
0.000614018
0.000603831
0.000581725
0.000552084
0.000543751
0.000567632
0.000579246
0.000579756
0.000572712
0.000556183
0.000530474
0.00054274
0.000570028
0.000584177
0.000584172
0.000575102
0.000554611
0.000524706
0.000577168
0.000604715
0.000617052
0.000617212
0.000609311
0.000588569
0.000554419
0.000599301
0.000622581
0.000638627
0.000595853
0.000624892
0.000613692
0.000573173
0.000607769
0.000632559
0.00065066
0.000655006
0.000631788
0.00062379
0.000580513
0.000602945
0.000628871
0.000634543
0.000643594
0.000631528
0.000613057
0.000578807
0.000587051
0.000614147
0.000628916
0.000632048
0.000620358
0.000597662
0.000567794
0.00056007
0.000585994
0.000598351
0.000598541
0.00059083
0.00057346
0.000546603
0.000552498
0.000580541
0.00059466
0.000594194
0.00058456
0.000564964
0.000536093
0.000589457
0.000618412
0.00063058
0.000631182
0.000619723
0.000599481
0.000566444
0.000615153
0.000646224
0.000650594
0.000657291
0.000637212
0.000627292
0.000586313
0.000626292
0.000657707
0.000654035
0.000670473
0.000636728
0.000643087
0.000595747
0.000622543
0.00065395
0.000660314
0.000658918
0.000651596
0.000632304
0.000595726
0.000605855
0.000637785
0.000654714
0.000655379
0.000641836
0.000617035
0.000585307
0.000576283
0.000606001
0.000620424
0.000620607
0.000611623
0.000592269
0.00056307
0.000561469
0.000591935
0.000607926
0.000608341
0.000598043
0.000577756
0.000548321
0.000601523
0.00063706
0.000660688
0.00066359
0.000644598
0.000615448
0.000580698
0.000630498
0.000671688
0.000683442
0.000686125
0.000671733
0.000645485
0.000602382
0.000645346
0.000691853
0.000687825
0.000696425
0.000663708
0.000661831
0.000613294
0.000642635
0.00068834
0.000695953
0.000692139
0.000685513
0.000655492
0.000614401
0.000623782
0.000665301
0.000688203
0.000688331
0.00066845
0.000638776
0.000603046
0.000590226
0.000625409
0.000644115
0.00064517
0.000633559
0.000610871
0.000578292
0.000567167
0.000599572
0.000617505
0.000619334
0.000609298
0.00058845
0.000558505
0.000609014
0.000648844
0.000680271
0.000689771
0.000663166
0.000628986
0.000592759
0.000640257
0.000689713
0.00071542
0.000712412
0.000713437
0.000662213
0.00061664
0.000657765
0.00071622
0.000728812
0.000741188
0.000749069
0.000680824
0.000629151
0.000656144
0.000719457
0.000757799
0.000745732
0.000727698
0.000677618
0.000630306
0.00063435
0.000685132
0.000725476
0.000721622
0.000696159
0.000657846
0.000617159
0.000598219
0.000637314
0.000661942
0.000664477
0.000650667
0.000625004
0.00058971
0.000569186
0.000601748
0.000620146
0.000622577
0.000614117
0.000595016
0.000565994
0.000610225
0.000650015
0.000680507
0.000688268
0.000664854
0.000635057
0.000600623
0.000640464
0.000691368
0.000715322
0.000714999
0.000711328
0.000668262
0.000625064
0.000655769
0.000719195
0.000747811
0.00075706
0.00074601
0.000689317
0.000638141
0.000653123
0.000704656
0.000770131
0.000783089
0.000742216
0.000687838
0.000639145
0.00063271
0.000672419
0.000712012
0.000729364
0.000700382
0.000664595
0.00062494
0.000599676
0.00063731
0.000661883
0.000668836
0.000656329
0.00063177
0.000596673
0.00057059
0.00060142
0.00061958
0.000623045
0.000616285
0.000600495
0.000573544
0.000608154
0.000638539
0.000658731
0.000661353
0.000651219
0.000636271
0.000607319
0.000635128
0.000661008
0.000682735
0.000685635
0.000675234
0.000664061
0.000630974
0.000649596
0.000674393
0.000711544
0.000732867
0.000708887
0.000678413
0.000643471
0.000646689
0.000655586
0.000719964
0.00075566
0.00068855
0.000676343
0.000643875
0.000629088
0.000652568
0.000657488
0.000670072
0.000668068
0.000661328
0.000630175
0.000600108
0.000635363
0.000656677
0.000662281
0.000655004
0.000635447
0.000602562
0.00057666
0.000607688
0.000626203
0.000632021
0.000626526
0.000611949
0.000584623
0.000613199
0.000641066
0.000657096
0.000663515
0.000656713
0.000646979
0.000619447
0.000639311
0.000656739
0.00065018
0.000632048
0.00066517
0.000673391
0.000643615
0.000654007
0.000669177
0.000669584
0.00068632
0.000669268
0.00068818
0.000656545
0.000651933
0.000660181
0.000642045
0.000646005
0.000672769
0.00068774
0.000656514
0.000635531
0.000660313
0.000669398
0.000677951
0.000678985
0.000673665
0.000641645
0.000605733
0.000643078
0.000667054
0.000674427
0.000666763
0.000646098
0.000611875
0.000586087
0.000622181
0.000643287
0.000650502
0.000646329
0.000628344
0.000596431
0.000627438
0.00066732
0.000689286
0.000695701
0.00069131
0.000670591
0.000635644
0.000658375
0.0007027
0.000703619
0.000684899
0.000716991
0.00070261
0.000663074
0.000675164
0.000718034
0.000695023
0.000715273
0.000707904
0.000719615
0.000676671
0.000673292
0.000722076
0.000708006
0.000677827
0.000721825
0.000719927
0.000675448
0.000651899
0.000701175
0.000726307
0.000724631
0.000723663
0.000699373
0.00065698
0.000614268
0.000658609
0.000687008
0.000695975
0.000686417
0.000661171
0.000621624
0.000591496
0.000633596
0.000661295
0.000671287
0.000663808
0.000639931
0.000603308
0.000638032
0.000692339
0.000730916
0.000743486
0.000728701
0.000692221
0.00064672
0.000675619
0.000750456
0.000798564
0.0008113
0.000796087
0.000738107
0.000679379
0.000693957
0.000772878
0.000807156
0.000772685
0.000818518
0.000762481
0.000696162
0.000689002
0.000766766
0.000808352
0.000759833
0.000810835
0.000755357
0.000691887
0.000661373
0.000727196
0.000773474
0.000787158
0.000771049
0.000723069
0.000667352
0.000617044
0.00066807
0.000703085
0.000714475
0.000703421
0.000671282
0.000626062
0.000591096
0.000635159
0.000666597
0.00067827
0.000668383
0.000642444
0.000604605
0.000638483
0.000700085
0.000746765
0.000760165
0.000742431
0.00069979
0.000648818
0.000678748
0.000764619
0.000819809
0.000826615
0.000821808
0.000754912
0.000684188
0.000700285
0.000791647
0.000845347
0.000798257
0.000847107
0.000790887
0.000704626
0.000692943
0.000779043
0.000847574
0.000845681
0.000844768
0.000776263
0.000698097
0.000660406
0.000733546
0.00078774
0.000805219
0.000790053
0.000734787
0.000667965
0.000613038
0.000667491
0.000708909
0.000722534
0.000709347
0.000671566
0.000623982
0.000585663
0.000626174
0.000656923
0.0006695
0.000659658
0.000635755
0.000601561
0.000625571
0.000676995
0.00072273
0.000743355
0.000720249
0.000683923
0.0006407
0.000656936
0.00068815
0.000746545
0.000797676
0.000717311
0.000720517
0.000670329
0.000677561
0.000722619
0.000773056
0.00080799
0.000747814
0.000720887
0.000684925
0.000670131
0.000714753
0.000709554
0.000764795
0.000720737
0.000733743
0.000679957
0.000641275
0.000695109
0.00071979
0.000737573
0.000707169
0.000698721
0.000653277
0.000600936
0.000647033
0.00068203
0.000698278
0.000682081
0.000653376
0.000614519
0.000580962
0.000613806
0.000636138
0.000647184
0.000643404
0.0006278
0.000599941
0.000607237
0.000625528
0.000632936
0.000643554
0.000651096
0.000651275
0.000631686
0.000617723
0.000638481
0.000646559
0.000647338
0.000669831
0.00065131
0.000649542
0.000620792
0.000630835
0.000663372
0.000724483
0.00067598
0.000661253
0.00065515
0.000619012
0.000631971
0.00067923
0.000733527
0.000680193
0.000647722
0.0006518
0.000611413
0.000618818
0.000644573
0.000666329
0.000662592
0.000643784
0.000636157
0.000588324
0.000616791
0.000631051
0.000641534
0.000639929
0.000632085
0.000606641
0.000587116
0.000619135
0.000640909
0.000651739
0.00064873
0.000633428
0.000606376
0.000611997
0.000630997
0.00063976
0.000651882
0.000655643
0.000656268
0.000637178
0.000623502
0.00063434
0.000672048
0.00067667
0.000691657
0.000657138
0.000655477
0.000625421
0.000650956
0.000672556
0.000689057
0.000691437
0.000662495
0.000661675
0.000623565
0.000639707
0.000669997
0.000650251
0.000684557
0.000652868
0.000656766
0.000614128
0.000623947
0.000647811
0.000662852
0.000654792
0.000650527
0.000640665
0.000590831
0.000619578
0.000635937
0.000646554
0.000646369
0.000636037
0.000610475
0.00014291
1.75392e-05
0.000415856
0.000375344
0.000325638
0.000256585
0.000152478
1.90442e-05
0.000493023
0.000456951
0.000420933
0.000381239
0.00033166
0.000261984
0.000156379
1.96721e-05
0.000487589
0.000454407
0.000420307
0.000381191
0.00033097
0.000260128
0.000154142
1.92818e-05
0.000473945
0.000444856
0.000412777
0.000373748
0.000322437
0.000250625
0.000146028
1.79863e-05
0.000453641
0.000428432
0.000397289
0.000357606
0.000305165
0.00023325
0.000132404
1.60055e-05
0.000460123
0.000429123
0.000394206
0.000353211
0.000301454
0.000230972
0.000130831
1.5691e-05
0.000485821
0.000450934
0.000414701
0.000373638
0.000322095
0.000250776
0.00014593
1.78484e-05
0.000500908
0.000464448
0.000427758
0.000386894
0.000335555
0.000263657
0.000155857
1.93852e-05
0.000504819
0.00046958
0.000433915
0.000393567
0.000342084
0.000269378
0.00015995
2.00245e-05
0.000500972
0.000468384
0.000434161
0.000393869
0.000341424
0.000267483
0.000157732
1.96303e-05
0.000488924
0.000459822
0.000426911
0.000386195
0.000332467
0.000257642
0.000149477
1.83133e-05
0.000469451
0.000443498
0.000410941
0.000369297
0.000314443
0.000239686
0.000135546
1.62951e-05
0.000469936
0.000439308
0.000404268
0.000362373
0.000308857
0.000235911
0.000133016
1.59239e-05
0.000495609
0.000461554
0.000425628
0.000383896
0.000330592
0.000256597
0.000148585
1.81201e-05
0.000511054
0.000475668
0.000439516
0.000398059
0.000344881
0.000270136
0.000158891
1.96862e-05
0.000516287
0.000482024
0.000446654
0.000405426
0.000351866
0.000276172
0.00016318
2.03365e-05
0.000514191
0.000482182
0.000447603
0.000405908
0.000351155
0.000274232
0.000160991
1.994e-05
0.000503705
0.000474421
0.000440406
0.000397846
0.000341734
0.000264068
0.000152608
1.86032e-05
0.00048481
0.000457907
0.000423779
0.000380129
0.000322965
0.000245575
0.000138396
1.65518e-05
0.000479775
0.000449478
0.000414078
0.000371016
0.000315586
0.000240216
0.000134835
1.61227e-05
0.000505487
0.000472377
0.000436478
0.000393694
0.000338388
0.000261723
0.000150827
1.83518e-05
0.000521357
0.000487239
0.000451335
0.000408809
0.000353487
0.00027588
0.000161478
1.99427e-05
0.000528004
0.000494779
0.000459358
0.000416769
0.000360871
0.000282223
0.000165972
2.06044e-05
0.000527717
0.000496048
0.000460698
0.000417233
0.000360037
0.000280243
0.000163829
2.02074e-05
0.000518569
0.000488668
0.000453204
0.000408617
0.000350117
0.000269779
0.00015534
1.8854e-05
0.000499796
0.000471576
0.00043568
0.000390005
0.000330623
0.000250791
0.000140873
1.67735e-05
0.000490327
0.000459884
0.000423636
0.000379033
0.000321514
0.000243779
0.000136223
1.62847e-05
0.000516534
0.000483856
0.000447302
0.000402918
0.000345334
0.000266031
0.000152581
1.85411e-05
0.000533162
0.000499827
0.00046329
0.000419009
0.000361205
0.000280752
0.000163531
2.0151e-05
0.00054119
0.000508458
0.00047207
0.000427448
0.000368922
0.000287377
0.00016822
2.08233e-05
0.000542326
0.000510283
0.000473402
0.000427685
0.000367901
0.000285364
0.00016614
2.04273e-05
0.00053384
0.000502628
0.000465209
0.00041835
0.000357455
0.000274626
0.000157568
1.90605e-05
0.00051443
0.000484438
0.000446539
0.000398768
0.000337244
0.000255174
0.000142873
1.69552e-05
0.000501735
0.000470356
0.000432669
0.000386179
0.000326491
0.000246553
0.000137171
1.64047e-05
0.000529251
0.000495849
0.000457748
0.000411253
0.000351245
0.000269456
0.000153826
1.86798e-05
0.000547257
0.000513267
0.000474951
0.000428264
0.000367797
0.000284659
0.000165015
2.03023e-05
0.000556678
0.00052288
0.000484329
0.000437053
0.000375768
0.000291524
0.000169871
2.09826e-05
0.00055843
0.00052461
0.000485275
0.00043691
0.000374524
0.000289479
0.000167851
2.0588e-05
0.000549476
0.000515958
0.000476049
0.000426754
0.00036355
0.000278486
0.000159211
1.92114e-05
0.000528455
0.000496183
0.000456056
0.000406171
0.000342641
0.000258595
0.00014431
1.70865e-05
0.00051295
0.000480067
0.000440663
0.000392279
0.000330635
0.000248827
0.000137909
1.649e-05
0.000542353
0.00050717
0.00046703
0.000418366
0.00035617
0.000272277
0.000154807
1.8777e-05
0.000562205
0.000526068
0.000485287
0.000436108
0.000373251
0.000287863
0.000166184
2.04062e-05
0.000572816
0.000536409
0.000495041
0.000445096
0.000381381
0.000294906
0.000171171
2.1091e-05
0.0005743
0.000537565
0.00049542
0.000444529
0.000379906
0.000292805
0.000169176
2.06957e-05
0.000563916
0.000527537
0.000485089
0.000433584
0.000368438
0.000281559
0.000160446
1.93103e-05
0.000540707
0.000506056
0.000463821
0.000412081
0.000346894
0.000261257
0.000145348
1.71703e-05
0.000522331
0.000488225
0.000447441
0.000397595
0.000334465
0.000251181
0.000138844
1.65735e-05
0.000553128
0.000516452
0.000474716
0.000424419
0.000360596
0.000275074
0.000155957
1.88699e-05
0.000574427
0.000536309
0.000493628
0.000442628
0.000378052
0.000290976
0.00016752
2.05059e-05
0.000585836
0.000546991
0.000503494
0.000451657
0.000386244
0.000298139
0.00017261
2.11934e-05
0.00058677
0.000547534
0.000503332
0.000450693
0.00038452
0.000295932
0.000170584
2.07937e-05
0.000574922
0.000536335
0.00049208
0.000439066
0.000372597
0.000284402
0.000161706
1.93957e-05
0.000549886
0.00051351
0.000469793
0.000416801
0.000350503
0.000263717
0.000146399
1.72409e-05
0.000529915
0.000495213
0.000453559
0.000402661
0.000338331
0.000253734
0.000140013
1.66807e-05
0.000561211
0.000524032
0.000481438
0.000430042
0.000364944
0.000277997
0.000157318
1.89891e-05
0.000582903
0.000544221
0.000500648
0.000448541
0.00038269
0.000294181
0.000169069
2.06357e-05
0.000594439
0.000554835
0.000510377
0.000457462
0.000390868
0.00030142
0.000174239
2.13264e-05
0.000594943
0.000554868
0.000509696
0.000456042
0.000388834
0.000299056
0.000172147
2.092e-05
0.00058229
0.000542872
0.000497692
0.000443781
0.000376423
0.000287194
0.000163074
1.95039e-05
0.000556349
0.00051913
0.000474579
0.000420832
0.000353796
0.000266131
0.00014755
1.73307e-05
0.000537808
0.000502432
0.00045971
0.00040751
0.000341722
0.000255653
0.000140754
1.67835e-05
0.000569439
0.000531963
0.000488302
0.000435489
0.000368805
0.000280235
0.000158193
1.91035e-05
0.000591054
0.000552473
0.000507901
0.000454316
0.000386822
0.000296633
0.00017005
2.07578e-05
0.000602205
0.000562866
0.000517507
0.000463139
0.000394956
0.000303885
0.000175235
2.14488e-05
0.000602191
0.000562229
0.00051614
0.000461175
0.000392558
0.00030133
0.00017307
2.10363e-05
0.000589072
0.000549322
0.000503191
0.000448135
0.000379577
0.000289105
0.000163814
1.96034e-05
0.000562367
0.00052445
0.000479016
0.000424339
0.000356328
0.000267634
0.000148089
1.74106e-05
0.00054715
0.000509886
0.000465317
0.000411303
0.000343727
0.000256082
0.000140446
1.68236e-05
0.000580467
0.000540784
0.000494836
0.000439908
0.000371255
0.000280919
0.000157922
1.9147e-05
0.000603184
0.000562304
0.000515082
0.000459069
0.00038944
0.000297366
0.000169704
2.07929e-05
0.000614534
0.00057283
0.000524653
0.000467763
0.000397441
0.000304516
0.000174789
2.14747e-05
0.000613596
0.000571179
0.000522434
0.000465179
0.000394634
0.000301738
0.000172538
2.10566e-05
0.000598703
0.000556529
0.000508153
0.000451219
0.000381044
0.000289159
0.000163156
1.96159e-05
0.000569588
0.000529692
0.000482575
0.000426445
0.000357102
0.000267246
0.000147269
1.741e-05
0.000555278
0.000515649
0.000469255
0.000413663
0.000344605
0.000255686
0.000139608
1.68146e-05
0.000591244
0.000547869
0.000499384
0.000442606
0.000372384
0.000280684
0.000157059
1.91316e-05
0.000616316
0.000570583
0.00052001
0.000461799
0.000390509
0.000297016
0.000168643
2.07556e-05
0.000628424
0.000581369
0.000529454
0.000470243
0.000398268
0.000303958
0.000173544
2.14202e-05
0.000625949
0.00057852
0.000526426
0.000467077
0.000395054
0.000300914
0.000171153
2.09931e-05
0.000607952
0.000561792
0.000510888
0.000452338
0.000380946
0.000288007
0.000161658
1.95508e-05
0.000575321
0.00053292
0.000484132
0.000426778
0.000356382
0.000265631
0.000145604
1.73381e-05
0.000559637
0.000518883
0.000471821
0.000415651
0.000345973
0.000256347
0.000139642
1.68829e-05
0.000597017
0.000551328
0.000501804
0.0004445
0.000373805
0.00028146
0.000157118
1.91997e-05
0.000623945
0.000574351
0.000522146
0.00046335
0.000391691
0.000297643
0.000168555
2.08144e-05
0.000637061
0.000585121
0.0005312
0.000471349
0.000399101
0.00030434
0.000173277
2.14666e-05
0.000632934
0.000581281
0.000527507
0.000467679
0.000395491
0.000300976
0.000170669
2.10228e-05
0.000611981
0.000563141
0.000511255
0.000452479
0.000380986
0.000287714
0.000160969
1.9565e-05
0.000576845
0.000533237
0.00048402
0.00042654
0.000355987
0.000264899
0.000144685
1.73388e-05
0.000561009
0.000520888
0.000474438
0.000418747
0.000349299
0.000259429
0.000141595
1.69934e-05
0.000597669
0.000552341
0.000503678
0.000447185
0.000376998
0.000284606
0.000159204
1.93169e-05
0.000624463
0.00057446
0.0005231
0.000465425
0.000394599
0.000300743
0.000170697
2.09364e-05
0.000637643
0.000584528
0.00053139
0.000472828
0.000401641
0.000307262
0.000175353
2.15871e-05
0.000632576
0.00058008
0.0005272
0.000468745
0.000397673
0.000303576
0.000172493
2.11299e-05
0.000610215
0.000561613
0.000510851
0.000453389
0.000382888
0.000289935
0.000162457
1.96514e-05
0.00057481
0.000532018
0.000483891
0.000427484
0.000357678
0.000266758
0.000145865
1.74075e-05
0.000561021
0.000523005
0.000477979
0.000423232
0.000354212
0.0002641
0.000144672
1.71185e-05
0.000594524
0.000552535
0.000506198
0.000451193
0.000381729
0.000289306
0.000162445
1.94506e-05
0.000617854
0.000572496
0.000524428
0.000468856
0.000399195
0.000305564
0.000174164
2.10909e-05
0.000628115
0.000580904
0.000531635
0.000475678
0.000405968
0.000312008
0.000178825
2.17568e-05
0.000623036
0.000576087
0.00052704
0.000471233
0.00040167
0.000308023
0.000175713
2.12937e-05
0.000602752
0.000558577
0.000511063
0.000455823
0.000386597
0.000293963
0.000165275
1.97915e-05
0.00057026
0.000530562
0.000484788
0.000430061
0.00036125
0.000270451
0.000148317
1.75265e-05
0.000563209
0.000527094
0.000482885
0.000428204
0.000358815
0.000267946
0.000146965
1.73065e-05
0.000593388
0.000555237
0.000510684
0.000456134
0.000386372
0.000293211
0.000164847
1.96588e-05
0.000612737
0.000573407
0.000528291
0.000473762
0.000404038
0.000309711
0.000176787
2.13369e-05
0.000620756
0.000580538
0.000534864
0.000480368
0.0004108
0.000316221
0.000181536
2.20237e-05
0.000615485
0.000575347
0.000529904
0.000475585
0.000406233
0.000311999
0.000178244
2.15565e-05
0.000597527
0.000558595
0.000513903
0.000459821
0.000390754
0.000297461
0.00016742
2.00225e-05
0.000568255
0.00053167
0.000487711
0.000433746
0.000364829
0.00027345
0.000150109
1.77221e-05
0.000569921
0.000533125
0.000487706
0.000431618
0.000360913
0.000269034
0.000147354
1.73836e-05
0.000600052
0.000561893
0.000516165
0.000459992
0.000388734
0.000294354
0.000165228
1.97397e-05
0.000619171
0.00058015
0.000534209
0.000478065
0.00040665
0.000310915
0.000177177
2.14285e-05
0.000627018
0.000587059
0.000540879
0.000484864
0.000413528
0.00031739
0.000181871
2.21205e-05
0.000621006
0.000581369
0.000535532
0.000479923
0.000408775
0.00031292
0.000178465
2.16596e-05
0.000602577
0.000563977
0.000518703
0.000463483
0.000392466
0.000297901
0.000167426
2.01181e-05
0.000572882
0.000536116
0.000491394
0.000436194
0.000365942
0.000273626
0.000149948
1.78002e-05
0.000480531
0.000452618
0.00041763
0.000373979
0.00031813
0.000243092
0.000137882
1.67416e-05
0.000502893
0.000472789
0.000436999
0.000393145
0.000337386
0.000261874
0.000152599
1.88518e-05
0.000517253
0.000485164
0.000448224
0.000403871
0.000348173
0.00027282
0.000161773
2.0245e-05
0.000522948
0.000489043
0.000450951
0.000406078
0.000350499
0.000275705
0.00016468
2.06666e-05
0.00051904
0.00048392
0.000445023
0.000399851
0.000344545
0.00027052
0.000160945
2.00017e-05
0.000503286
0.000468639
0.000430019
0.000385281
0.000330578
0.000257565
0.000150876
1.83818e-05
0.000476077
0.000443959
0.000406611
0.000362765
0.00030881
0.000237086
0.000135097
1.61178e-05
0.000496388
0.000466697
0.000429785
0.000384171
0.000326261
0.000248861
0.000140706
1.69875e-05
0.000519603
0.000487646
0.000449817
0.000403865
0.000345932
0.000267966
0.000155612
1.91229e-05
0.000533957
0.000500096
0.000461151
0.000414702
0.000356814
0.000278987
0.000164815
2.05267e-05
0.000538808
0.000503245
0.000463348
0.00041654
0.000358895
0.000281696
0.000167592
2.09428e-05
0.000533268
0.000496745
0.000456296
0.000409529
0.000352391
0.0002761
0.000163577
2.02581e-05
0.000515744
0.000479969
0.000440125
0.000394027
0.00033768
0.000262532
0.000153108
1.86073e-05
0.000486964
0.000453946
0.000415589
0.000370557
0.000315086
0.000241354
0.000136922
1.63105e-05
0.000511077
0.000479517
0.000440643
0.000393099
0.000333247
0.000253702
0.000142979
1.71838e-05
0.000535172
0.000501294
0.000461335
0.00041326
0.000353234
0.000273026
0.000157998
1.93369e-05
0.000549334
0.000513785
0.000472779
0.000424193
0.000364174
0.000284068
0.000167181
2.07486e-05
0.000553077
0.00051612
0.000474414
0.000425669
0.000366016
0.000286591
0.000169806
2.11596e-05
0.000545841
0.000508253
0.000466383
0.000417967
0.000359015
0.000280605
0.000165519
2.04579e-05
0.00052673
0.000490042
0.000449041
0.000401591
0.000343639
0.000266495
0.000154703
1.87835e-05
0.000496531
0.000462735
0.000423441
0.000377268
0.000320337
0.000244733
0.000138199
1.64631e-05
0.000524782
0.000491025
0.000450035
0.000400545
0.000338844
0.000257379
0.000144544
1.73238e-05
0.00055014
0.000513824
0.000471431
0.000421131
0.00035907
0.000276828
0.000159592
1.94871e-05
0.000564336
0.000526556
0.00048309
0.000432186
0.00037005
0.000287847
0.000168701
2.09031e-05
0.000566904
0.000528148
0.000484257
0.000433386
0.000371699
0.000290194
0.000171164
2.13099e-05
0.000557975
0.00051897
0.000475334
0.000425062
0.000364271
0.000283866
0.000166629
2.05951e-05
0.000537143
0.00049924
0.000456855
0.000407924
0.000348346
0.000269313
0.000155547
1.89059e-05
0.000505361
0.000470613
0.000430257
0.000382865
0.000324458
0.000247089
0.000138834
1.65719e-05
0.000537275
0.000500873
0.000457628
0.000406223
0.000342822
0.00025971
0.000145284
1.73975e-05
0.000564632
0.000524938
0.00047974
0.000427174
0.000363215
0.000279204
0.000160274
1.9562e-05
0.000579629
0.000538284
0.00049175
0.000438379
0.000374224
0.000290166
0.000169254
2.09775e-05
0.000581404
0.000539428
0.000492667
0.000439426
0.00037575
0.000292369
0.000171559
2.1381e-05
0.0005706
0.000528917
0.000482868
0.000430603
0.000368006
0.000285774
0.000166827
2.06589e-05
0.000547434
0.000507566
0.000463409
0.000412865
0.000351672
0.000270899
0.000155582
1.89663e-05
0.000513673
0.000477575
0.000435942
0.000387234
0.000327351
0.000248355
0.000138786
1.66307e-05
0.000547103
0.000508185
0.00046297
0.000409994
0.000345269
0.000260927
0.000145393
1.74098e-05
0.000576639
0.000533336
0.000485581
0.000431156
0.000365738
0.000280405
0.00016027
1.95681e-05
0.00059295
0.00054737
0.000497883
0.000442452
0.000376753
0.000291305
0.000169115
2.09806e-05
0.00059433
0.000548371
0.000498761
0.000443432
0.000378207
0.0002934
0.000171284
2.13824e-05
0.000581661
0.000536791
0.000488359
0.000434355
0.00037031
0.000286638
0.000166415
2.06603e-05
0.000556321
0.000514143
0.000468236
0.000416282
0.000353758
0.000271573
0.000155095
1.89744e-05
0.000520662
0.000483112
0.000440238
0.000390348
0.000329198
0.000248859
0.000138323
1.66477e-05
0.000552694
0.000512412
0.000466075
0.000412244
0.000346822
0.000261771
0.000145436
1.74051e-05
0.000583145
0.000537876
0.000488806
0.000433437
0.000367304
0.000281234
0.000160226
1.95595e-05
0.000600261
0.000552135
0.000501157
0.000444751
0.000378336
0.000292134
0.000169015
2.09751e-05
0.000601451
0.000553093
0.000502011
0.000445716
0.000379784
0.00029418
0.000171098
2.13793e-05
0.000587967
0.000541174
0.000491538
0.000436631
0.000371867
0.000287317
0.000166113
2.06599e-05
0.000561569
0.000518068
0.000471237
0.000418569
0.000355292
0.00027215
0.000154735
1.89817e-05
0.000525147
0.000486801
0.000443238
0.00039266
0.000330684
0.000249362
0.000138004
1.66655e-05
0.000554472
0.000514183
0.000467742
0.000413771
0.000348113
0.000262644
0.000145651
1.74285e-05
0.000583896
0.000539193
0.00049027
0.000434954
0.000368673
0.000282172
0.00016043
1.95907e-05
0.000600386
0.000553158
0.000502484
0.000446282
0.000379817
0.000293188
0.000169265
2.10219e-05
0.000601896
0.000554182
0.000503317
0.000447333
0.000381358
0.000295262
0.000171307
2.14334e-05
0.000588994
0.000542526
0.000493148
0.000438452
0.000373513
0.000288331
0.000166211
2.07147e-05
0.000563158
0.00051992
0.00047331
0.000420645
0.000356985
0.000273057
0.000154736
1.90355e-05
0.000527446
0.000489283
0.000445753
0.000394945
0.000332392
0.000250204
0.000138018
1.67223e-05
0.000555946
0.000515886
0.000469323
0.000415013
0.000348836
0.000262734
0.000145309
1.74513e-05
0.000584237
0.000540715
0.000492052
0.000436504
0.000369683
0.000282431
0.000160093
1.96284e-05
0.000599947
0.000554473
0.000504422
0.000448132
0.000381127
0.000293637
0.000168965
2.10783e-05
0.000601629
0.000555595
0.000505453
0.000449431
0.000382871
0.000295799
0.000170981
2.1498e-05
0.000588979
0.000544292
0.00049554
0.000440749
0.000375119
0.000288849
0.000165838
2.07823e-05
0.000564408
0.000522376
0.000476079
0.000423088
0.00035859
0.000273489
0.000154326
1.91026e-05
0.000530185
0.000492414
0.000448792
0.000397432
0.000333913
0.000250562
0.00013768
1.67898e-05
0.000559944
0.000518395
0.0004706
0.000415208
0.000347971
0.000260922
0.000143524
1.73945e-05
0.000589505
0.000544397
0.000494197
0.000437309
0.000369255
0.000280845
0.000158264
1.95795e-05
0.00060565
0.000558966
0.000507339
0.000449516
0.000381084
0.000292211
0.000167062
2.10348e-05
0.000607327
0.000560444
0.000508864
0.000451251
0.00038314
0.000294514
0.000169069
2.1461e-05
0.000594495
0.000549153
0.000499076
0.000442755
0.000375564
0.000287676
0.000164021
2.07606e-05
0.00056996
0.000527029
0.00047948
0.000425112
0.000359071
0.000272379
0.000152694
1.91018e-05
0.000535522
0.000496717
0.000451958
0.000399295
0.000334262
0.000249481
0.000136292
1.68025e-05
0.000563745
0.00051959
0.000470271
0.000413856
0.000345693
0.000257819
0.000140811
1.72672e-05
0.000597017
0.000547365
0.000494683
0.000436425
0.000367364
0.000277996
0.000155509
1.94536e-05
0.000615855
0.000563594
0.000508708
0.000449109
0.000379487
0.00028948
0.000164201
2.09038e-05
0.000618242
0.000565894
0.000510902
0.000451348
0.000381901
0.00029198
0.000166258
2.13388e-05
0.00060475
0.000554431
0.000501336
0.000443248
0.000374677
0.000285399
0.000161431
2.06665e-05
0.000577984
0.000531448
0.000481709
0.000425861
0.000358446
0.00027039
0.000150495
1.90474e-05
0.000541215
0.000500301
0.000454066
0.00040011
0.000333699
0.000247661
0.000134445
1.67739e-05
0.000563314
0.000518002
0.000468486
0.000412173
0.000343931
0.000255706
0.000138886
1.72179e-05
0.000598955
0.000546399
0.000492929
0.000434791
0.000365851
0.000276172
0.000153644
1.94145e-05
0.000620575
0.000563676
0.000507277
0.000447632
0.00037818
0.000287855
0.000162366
2.08707e-05
0.000624605
0.000566899
0.000510069
0.000450326
0.000380962
0.000290618
0.000164556
2.13207e-05
0.000610488
0.000555694
0.000501159
0.000442868
0.000374213
0.000284346
0.000159962
2.06722e-05
0.000581803
0.000532761
0.000482236
0.000426208
0.000358439
0.000269634
0.000149337
1.90766e-05
0.0005438
0.000501915
0.00045528
0.000400974
0.000333955
0.000247118
0.000133591
1.68199e-05
0.000559334
0.000515146
0.000467079
0.000412146
0.000344702
0.000256582
0.000139343
1.72739e-05
0.000594809
0.000542701
0.000490785
0.00043445
0.000366763
0.00027737
0.000154295
1.94942e-05
0.000617388
0.000559878
0.000504883
0.000447242
0.000379323
0.000289419
0.000163266
2.09776e-05
0.000622395
0.000563651
0.000508109
0.000450341
0.000382479
0.0002925
0.000165661
2.14498e-05
0.000608198
0.000553249
0.00050014
0.000443713
0.000376205
0.000286443
0.000161169
2.08123e-05
0.000580206
0.000531846
0.000482678
0.000427964
0.000360855
0.000271842
0.000150584
1.92174e-05
0.000543577
0.000502722
0.000457108
0.000403533