/*--------------------------------*- C++ -*----------------------------------*\
| =========                 |                                                 |
| \\      /  F ield         | OpenFOAM: The Open Source CFD Toolbox           |
|  \\    /   O peration     | Version:  plus.master.MPPICInterFoam            |
|   \\  /    A nd           | Web:      www.OpenFOAM.com                      |
|    \\/     M anipulation  |                                                 |
\*---------------------------------------------------------------------------*/
FoamFile
{
    version     2.0;
    format      ascii;
    class       volVectorField;
    location    "4.2";
    object      U;
}
// * * * * * * * * * * * * * * * * * * * * * * * * * * * * * * * * * * * * * //

dimensions      [0 1 -1 0 0 0 0];

internalField   nonuniform List<vector> 
11821
(
(0.00334634 0.00202428 0.529344)
(-0.000325048 0.00464335 0.558038)
(0.000574588 0.00387052 0.477821)
(-0.00463412 0.00567921 0.521287)
(-0.00222964 0.00496558 0.476217)
(-0.000369768 0.00497411 0.415595)
(0.00101464 0.00515084 0.442898)
(0.00074252 0.00829732 0.507432)
(-0.00215043 0.0109469 0.558761)
(-0.00682804 0.00941654 0.579388)
(-0.0089291 0.00475848 0.554863)
(-0.00741737 0.00181324 0.497581)
(-0.00450819 -0.000213107 0.426292)
(0.00415233 0.00460886 0.505329)
(0.00591016 0.00782767 0.593953)
(0.00204024 0.0113907 0.689027)
(-0.00853113 0.00783877 0.740938)
(-0.0143007 0.0031841 0.6893)
(-0.0116907 0.00129637 0.586918)
(-0.00707162 -0.000561224 0.489157)
(0.00608884 0.00127322 0.548404)
(0.00828524 0.00168434 0.655941)
(0.00199859 0.00234193 0.798498)
(-0.0107189 0.00222049 0.886793)
(-0.0166539 -0.00688662 0.832549)
(-0.0130722 -0.00385599 0.663114)
(-0.00778108 -0.0024897 0.53409)
(0.00534253 -0.00265625 0.55964)
(0.00623472 -0.00559548 0.671637)
(0.00160254 -0.00994519 0.833647)
(0.000413243 -0.00378023 1.1272)
(-0.00134416 -0.00736387 0.961812)
(-0.0052282 -0.0049348 0.694606)
(-0.00444093 -0.0024525 0.546153)
(0.00348097 -0.00503263 0.535807)
(0.00403601 -0.00968345 0.631686)
(-0.000927397 -0.0151167 0.742095)
(-0.0082115 -0.0109151 0.84315)
(-0.00937162 -0.00287469 0.766559)
(-0.00854132 -0.00314748 0.635299)
(-0.00589383 -0.000549982 0.520065)
(0.00097488 -0.00530229 0.487635)
(0.000614045 -0.00935389 0.5591)
(-0.00350323 -0.012381 0.620474)
(-0.00784393 -0.00763816 0.64874)
(-0.0089427 -0.00395387 0.619528)
(-0.00776516 -0.00241627 0.550521)
(-0.00538055 0.000421305 0.468703)
(-0.00117163 -0.00416062 0.428962)
(-0.00235286 -0.00642745 0.480988)
(-0.00501423 -0.00778507 0.519644)
(-0.00745005 -0.00522323 0.5332)
(-0.00745847 -0.00242275 0.514323)
(-0.00612704 -0.000406172 0.468291)
(-0.00442933 0.00123166 0.408294)
(0.00119189 0.00581511 0.438647)
(0.00089723 0.00953781 0.503584)
(-0.00175026 0.0121431 0.556924)
(-0.00647703 0.0112042 0.57818)
(-0.00887325 0.00649095 0.547955)
(-0.00706125 0.00316584 0.487032)
(-0.00399313 0.000898441 0.415863)
(0.00461029 0.00608271 0.503358)
(0.0065513 0.0112061 0.601162)
(0.00386645 0.017059 0.715906)
(-0.00847823 0.0177059 0.779889)
(-0.0161082 0.00917341 0.701047)
(-0.0121963 0.00441465 0.580256)
(-0.0068936 0.00144391 0.477543)
(0.00742331 0.00305735 0.54958)
(0.0100314 0.00515187 0.678221)
(0.00848811 0.00918019 0.879033)
(-0.0108765 0.00639872 0.947593)
(-0.0254595 -0.000397129 0.876135)
(-0.0169233 0.000228663 0.66473)
(-0.00913203 6.48403e-05 0.522498)
(0.00742869 -0.00143576 0.56111)
(0.00915297 -0.00478988 0.694217)
(0.00599574 -0.00997476 0.894376)
(-0.00232591 -0.0121925 1.17523)
(-0.0147146 -0.0114718 0.9729)
(-0.0130456 -0.00440981 0.691957)
(-0.00776011 -0.000834662 0.533804)
(0.00551679 -0.00459039 0.535073)
(0.00701883 -0.0107101 0.640893)
(0.00272889 -0.0184705 0.770762)
(-0.00945256 -0.0184881 0.865513)
(-0.0158835 -0.00907046 0.772021)
(-0.0135107 -0.00491468 0.628035)
(-0.00848974 -0.000509189 0.507737)
(0.00245472 -0.00521957 0.484986)
(0.00234479 -0.0102177 0.557697)
(-0.00175607 -0.0144712 0.621948)
(-0.00805472 -0.0118722 0.6491)
(-0.0111721 -0.00738845 0.614297)
(-0.0101811 -0.00388318 0.540279)
(-0.00718398 -0.000114105 0.457849)
(-7.87763e-05 -0.00421551 0.426086)
(-0.00110917 -0.00684001 0.477043)
(-0.00390484 -0.00874834 0.51461)
(-0.00701457 -0.00720591 0.526521)
(-0.00813186 -0.00415446 0.505818)
(-0.00728722 -0.00159925 0.459111)
(-0.00545065 0.000611144 0.400328)
(-0.00166295 0.00353789 0.433545)
(-0.00214121 0.00587199 0.496476)
(-0.00366122 0.00658787 0.548422)
(-0.00586484 0.00486333 0.568302)
(-0.00601122 0.00182899 0.534878)
(-0.00330336 0.00033312 0.473678)
(-0.000606803 -0.00051647 0.405193)
(0.000278441 0.00488769 0.499259)
(0.00136254 0.00953362 0.600668)
(9.46866e-05 0.0140666 0.725977)
(-0.00801394 0.0148602 0.799601)
(-0.0116721 0.00635894 0.694935)
(-0.00662667 0.00269884 0.565115)
(-0.00212744 0.00086079 0.463848)
(0.00238787 0.00378168 0.54831)
(0.0038373 0.00710394 0.700096)
(0.00469157 0.0130638 0.931821)
(-0.0119188 0.0084713 1.14082)
(-0.0221896 0.0035515 0.91155)
(-0.010528 0.00209692 0.652898)
(-0.00377315 0.00148311 0.507624)
(0.00337715 0.000814955 0.560773)
(0.00468719 -0.00147685 0.71681)
(0.00333376 -0.0041869 0.960502)
(-0.00582594 -0.0134443 1.25902)
(-0.0178281 -0.00652789 0.985162)
(-0.0111426 -0.000835958 0.680726)
(-0.00433093 0.00168862 0.518822)
(0.00258417 -0.00169169 0.533286)
(0.00413936 -0.00694768 0.647525)
(0.00158378 -0.0131861 0.79635)
(-0.00996688 -0.0146175 0.887448)
(-0.0165894 -0.00604519 0.778291)
(-0.0116647 -0.00161549 0.61458)
(-0.00584556 0.00196864 0.494182)
(0.000621332 -0.00231641 0.482451)
(0.000598114 -0.00620488 0.555136)
(-0.00242159 -0.00938059 0.620188)
(-0.00781627 -0.00783334 0.646426)
(-0.010544 -0.00373326 0.605344)
(-0.00868282 -0.000727142 0.528421)
(-0.00535286 0.0021549 0.447443)
(-0.00109324 -0.00178312 0.423931)
(-0.00187211 -0.0035018 0.473534)
(-0.00399938 -0.00469494 0.509567)
(-0.00645399 -0.00355687 0.519734)
(-0.00723523 -0.00102247 0.497555)
(-0.00609187 0.000881229 0.450772)
(-0.00420198 0.00232327 0.393496)
(-0.00600603 -0.000601432 0.42939)
(-0.00655268 -0.000803291 0.488786)
(-0.00656536 -0.0026036 0.53622)
(-0.00502122 -0.00538052 0.553336)
(-0.00156459 -0.00604198 0.519896)
(0.00202236 -0.00459057 0.46117)
(0.00394355 -0.00327191 0.396904)
(-0.00660328 0.00159038 0.494696)
(-0.00667867 0.00324795 0.591583)
(-0.00679619 0.00461759 0.709623)
(-0.00726093 0.00170109 0.77467)
(-0.00378847 -0.00209496 0.671044)
(0.00197264 -0.00207929 0.54602)
(0.00466649 -0.00137941 0.451879)
(-0.00660185 0.00330377 0.545835)
(-0.00641978 0.0062638 0.707197)
(-0.0086763 0.0118644 0.94637)
(-0.0126657 0.00906779 1.2055)
(-0.00692449 0.00275004 0.888644)
(0.00150786 0.00148064 0.629358)
(0.00500774 0.00149367 0.493378)
(-0.00504413 0.00345233 0.5605)
(-0.00382476 0.00365445 0.735985)
(-0.00563162 0.00473548 1.00854)
(-0.00812683 -1.62652e-05 1.31676)
(-0.00989724 0.00346975 0.997876)
(-0.00146707 0.00388868 0.656816)
(0.00353405 0.00434031 0.50479)
(-0.00400828 0.00273303 0.53233)
(-0.003083 0.00058995 0.650829)
(-0.00394203 -0.00234929 0.814576)
(-0.00980885 -0.00146004 0.910464)
(-0.0112171 0.00385526 0.76788)
(-0.00403445 0.00501692 0.596473)
(0.000471417 0.00587129 0.482238)
(-0.00365019 0.00240513 0.481734)
(-0.00382571 0.00142734 0.553068)
(-0.00510905 0.000870048 0.617227)
(-0.0072238 0.00262628 0.642353)
(-0.00706336 0.00506614 0.595606)
(-0.00387684 0.0055151 0.517572)
(-0.0010374 0.00597882 0.439591)
(-0.00361193 0.00222578 0.423985)
(-0.00412428 0.00247927 0.472406)
(-0.005119 0.00297706 0.506938)
(-0.00571347 0.00435489 0.51563)
(-0.00489382 0.005624 0.491912)
(-0.00307888 0.0056453 0.445117)
(-0.00132944 0.00544761 0.389334)
(-0.00939586 -0.00434577 0.427923)
(-0.0101295 -0.00699663 0.483377)
(-0.00874027 -0.0112596 0.525797)
(-0.00368507 -0.0147344 0.538603)
(0.00274746 -0.0128774 0.506379)
(0.00650251 -0.0084731 0.452018)
(0.00734591 -0.00529765 0.392303)
(-0.0125051 -0.00198265 0.491659)
(-0.0139783 -0.00369323 0.580852)
(-0.0130941 -0.0059227 0.685883)
(-0.00611516 -0.00988418 0.743763)
(0.00420945 -0.0107119 0.638172)
(0.00968356 -0.00645564 0.528281)
(0.0100102 -0.0033579 0.443679)
(-0.0149252 0.00186975 0.543447)
(-0.0165863 0.0028041 0.692853)
(-0.0200877 0.00463325 0.938281)
(-0.0127208 0.0014324 1.14532)
(0.0048959 -0.00311606 0.848536)
(0.0127353 -0.000716883 0.601249)
(0.0123477 0.00080985 0.482589)
(-0.0139966 0.00547016 0.56027)
(-0.0145073 0.00791822 0.73109)
(-0.0187081 0.0137679 1.0588)
(-0.0143279 0.0127989 1.34288)
(0.000316781 0.0116494 0.985982)
(0.0109902 0.00720759 0.628102)
(0.011251 0.00609401 0.494523)
(-0.0108359 0.00702698 0.533854)
(-0.0115448 0.00895807 0.64674)
(-0.0111277 0.0109678 0.807142)
(-0.0106308 0.0144447 0.905541)
(-0.00343214 0.0158279 0.746747)
(0.00528483 0.0114885 0.578379)
(0.0067214 0.00916766 0.475151)
(-0.00781829 0.00686176 0.484667)
(-0.0086799 0.00940642 0.55371)
(-0.00839283 0.0121033 0.613966)
(-0.00651925 0.01439 0.636366)
(-0.00240098 0.014641 0.587163)
(0.0017203 0.0114558 0.510729)
(0.00317667 0.00918217 0.436614)
(-0.00598243 0.00580903 0.427553)
(-0.00642882 0.0082035 0.475386)
(-0.00631149 0.0107348 0.50854)
(-0.00475643 0.0125345 0.515393)
(-0.00202389 0.0121779 0.490418)
(0.000245459 0.00985023 0.44378)
(0.00142846 0.00795548 0.389189)
(-0.00822047 -0.00405118 0.428878)
(-0.00929308 -0.00694851 0.48123)
(-0.00787582 -0.0119211 0.518062)
(-0.00204019 -0.0152843 0.525436)
(0.00410998 -0.011435 0.497028)
(0.00638652 -0.00647299 0.447481)
(0.00633149 -0.00364457 0.390825)
(-0.0116364 -0.00215361 0.491637)
(-0.0143112 -0.00495349 0.569804)
(-0.013285 -0.00914039 0.644757)
(-0.00350038 -0.012777 0.676991)
(0.00710995 -0.0106856 0.599232)
(0.0100577 -0.00518564 0.516292)
(0.00883105 -0.00198023 0.440051)
(-0.0150742 0.00164574 0.543361)
(-0.0191079 0.00119911 0.673913)
(-0.0230212 -0.0027022 0.889966)
(-0.00799571 -0.0104066 1.05571)
(0.00926488 -0.00493467 0.750776)
(0.014437 -8.87197e-05 0.575993)
(0.0114171 0.00165789 0.47678)
(-0.0151086 0.00621122 0.563617)
(-0.0194083 0.00951264 0.719305)
(-0.0274379 0.0152035 1.03686)
(-0.0196638 0.0140992 1.28139)
(0.00197636 0.0120011 0.859997)
(0.0139067 0.00796152 0.598174)
(0.0105169 0.00646179 0.489377)
(-0.0106706 0.00825855 0.54001)
(-0.0147025 0.0126424 0.645861)
(-0.0149294 0.0170778 0.800439)
(-0.00894477 0.020702 0.889609)
(0.00178486 0.018622 0.702333)
(0.00720509 0.0122764 0.566547)
(0.00617173 0.00902837 0.473808)
(-0.0067154 0.00728931 0.492033)
(-0.00914586 0.0115013 0.560342)
(-0.00920252 0.016752 0.615338)
(-0.00536845 0.0192101 0.633569)
(-0.000232262 0.0162052 0.582404)
(0.00228053 0.0113655 0.510299)
(0.00256666 0.00846096 0.438482)
(-0.00498397 0.00540237 0.434132)
(-0.00579757 0.00819584 0.482893)
(-0.00577207 0.0117539 0.515196)
(-0.00363658 0.0135847 0.520358)
(-0.000899252 0.0117053 0.493791)
(0.000486599 0.00878163 0.447065)
(0.00104591 0.0068968 0.392175)
(-0.00224408 0.0010334 0.428038)
(-0.00331021 0.00126281 0.480058)
(-0.00366983 -0.00089875 0.515494)
(-0.00131378 -0.00279496 0.521078)
(0.00092775 0.00017227 0.492912)
(0.00113601 0.00162856 0.444074)
(0.00123115 0.00136729 0.387958)
(-0.00250211 0.00293309 0.491862)
(-0.00497818 0.00330343 0.568851)
(-0.00649169 0.00027287 0.633062)
(-0.00251103 -0.002385 0.650383)
(0.00134393 0.00140322 0.590842)
(0.00106145 0.00326591 0.512319)
(0.00102941 0.00296574 0.437064)
(-0.00345737 0.00483385 0.54549)
(-0.00801132 0.00628918 0.669091)
(-0.0121094 0.00238376 0.836443)
(-0.00359794 -0.00622088 0.947186)
(0.00277224 0.00400293 0.711788)
(0.00267091 0.00555195 0.570203)
(0.00114109 0.00475141 0.47423)
(-0.00292913 0.00623482 0.570673)
(-0.00901438 0.0101303 0.721539)
(-0.0163309 0.0124971 1.00452)
(-0.0138753 0.00870114 1.16468)
(-0.00340367 0.00974478 0.767708)
(0.00152591 0.00788585 0.593529)
(-0.000434942 0.00620602 0.488397)
(0.00122214 0.00510984 0.549907)
(-0.00574809 0.00937826 0.660004)
(-0.00897571 0.0128144 0.771788)
(-0.00789926 0.0126552 0.831902)
(-0.00315978 0.010651 0.69074)
(-0.00329986 0.00726193 0.567689)
(-0.00317508 0.00577781 0.475313)
(0.00270673 0.00186761 0.500795)
(-0.000309808 0.00372573 0.57691)
(-0.00458672 0.00970484 0.624695)
(-0.00561466 0.01098 0.635883)
(-0.0051044 0.00628214 0.587125)
(-0.00562579 0.00394756 0.51473)
(-0.00421953 0.00375949 0.440748)
(0.000749546 -0.000271733 0.439198)
(-0.000333686 -0.000572959 0.491762)
(-0.00232061 0.000965766 0.525236)
(-0.00313849 0.00240077 0.528413)
(-0.00351011 0.00138328 0.499748)
(-0.003833 0.00149378 0.450754)
(-0.00312727 0.00219856 0.39365)
(0.00206309 0.00427895 0.420037)
(0.00205159 0.00762012 0.472172)
(0.000603525 0.00946362 0.507862)
(-0.000996757 0.00952794 0.512692)
(-0.00237121 0.00989026 0.483913)
(-0.00287546 0.00724042 0.434678)
(-0.00190172 0.00428391 0.379561)
(0.00523885 0.00702817 0.485916)
(0.00553236 0.0120548 0.5683)
(0.00191921 0.0131768 0.634205)
(-0.00295538 0.0119419 0.648535)
(-0.00666522 0.0146292 0.588124)
(-0.00727837 0.0105001 0.505369)
(-0.00446351 0.00619677 0.428448)
(0.00806454 0.00809625 0.54609)
(0.0070028 0.0139014 0.67794)
(0.00159888 0.0158508 0.847054)
(-0.00426722 0.0124124 0.937316)
(-0.00733199 0.0164266 0.712517)
(-0.00982995 0.0113848 0.568518)
(-0.00680747 0.00693541 0.467126)
(0.0111698 0.00627238 0.580267)
(0.00819786 0.0112234 0.73932)
(0.00224104 0.0145869 0.990776)
(-0.00795367 0.0101098 1.12225)
(-0.00976654 0.0118321 0.779178)
(-0.0125638 0.00837606 0.598297)
(-0.0093413 0.00587031 0.483812)
(0.0141656 0.00100442 0.558478)
(0.0121472 0.00164084 0.700415)
(0.0017512 0.00708444 0.803119)
(-0.00753568 0.00580755 0.834574)
(-0.0123384 0.00239462 0.707994)
(-0.0157027 0.00201817 0.576073)
(-0.010819 0.00291334 0.472174)
(0.0109071 -0.00390907 0.503467)
(0.0120759 -0.00798851 0.605998)
(0.00397303 -0.0044256 0.676869)
(-0.00563111 -0.00248176 0.672105)
(-0.0120955 -0.00625793 0.611691)
(-0.0132094 -0.00355319 0.519463)
(-0.00882436 -2.83153e-05 0.437171)
(0.00511059 -0.00464645 0.435954)
(0.00532314 -0.00824641 0.494645)
(0.00199002 -0.0103214 0.53556)
(-0.00269744 -0.00955978 0.538955)
(-0.00627726 -0.00801753 0.503525)
(-0.00715274 -0.00410268 0.448927)
(-0.00545556 -0.000806191 0.389157)
(-0.00292432 -0.00287955 0.408023)
(-0.00102665 -0.00203761 0.456907)
(0.00040793 -0.000958154 0.492146)
(0.000842032 -0.000125014 0.497513)
(0.00122876 0.00088492 0.467978)
(0.00208582 5.46653e-05 0.420777)
(0.00309536 -0.000811014 0.369787)
(-0.00193091 -0.000301669 0.470513)
(0.00180069 0.00240039 0.55722)
(0.00294869 0.00482279 0.643246)
(-0.000386331 0.00611655 0.668774)
(-0.00224739 0.00682854 0.58532)
(-3.80536e-05 0.00351365 0.490654)
(0.00279788 0.00117155 0.415888)
(-0.00137752 0.00274523 0.532608)
(0.00434086 0.00840468 0.69779)
(0.00620894 0.0146236 0.900008)
(-0.000381185 0.0162901 0.990218)
(-0.0025968 0.0149788 0.759226)
(-0.00046403 0.00696245 0.564326)
(0.00277842 0.00333444 0.454756)
(0.00115466 0.00394456 0.570695)
(0.00924083 0.00745463 0.794514)
(0.013005 0.0153463 1.04837)
(0.000179464 0.0144635 1.15922)
(-0.00423232 0.0119522 0.852162)
(-0.00339688 0.00700622 0.609762)
(0.00155875 0.00457396 0.473164)
(0.00249267 0.00211829 0.552117)
(0.0150327 -0.000187047 0.779624)
(0.0114317 0.00598667 0.909642)
(-0.00150249 0.00695423 0.890836)
(-0.0107472 0.00166324 0.802427)
(-0.00586573 0.00339871 0.585816)
(0.000277614 0.00408009 0.462458)
(0.000323095 0.00105381 0.491878)
(0.00630925 -0.00168096 0.612762)
(0.007595 -0.00502372 0.744987)
(0.000156347 -0.00413011 0.751471)
(-0.00521573 -0.00266166 0.641138)
(-0.00246013 0.00143103 0.514443)
(0.000999333 0.00356389 0.427875)
(-0.00178993 0.00250211 0.425069)
(0.00076624 0.00256655 0.484708)
(0.00167973 0.00206311 0.531799)
(0.000517354 0.00133864 0.538923)
(-0.000537087 0.00239327 0.497482)
(0.000203552 0.00343316 0.439976)
(0.00155096 0.00429389 0.381893)
(-0.0127943 -0.0146368 0.404475)
(-0.0105627 -0.0206591 0.446596)
(-0.00471502 -0.0252633 0.477492)
(0.00352165 -0.025794 0.482155)
(0.0100415 -0.0206755 0.45595)
(0.012334 -0.0145273 0.414803)
(0.0117048 -0.00960595 0.369107)
(-0.0187339 -0.0144679 0.458277)
(-0.0158818 -0.0212316 0.53047)
(-0.00742594 -0.0265547 0.606438)
(0.00540921 -0.0269408 0.630604)
(0.0153272 -0.0210088 0.555361)
(0.0186147 -0.0140277 0.475532)
(0.0171166 -0.00878032 0.411058)
(-0.0262501 -0.00913301 0.511493)
(-0.0235434 -0.0129549 0.653543)
(-0.0106256 -0.0123044 0.870237)
(0.0130489 -0.00839825 1.03159)
(0.0254604 -0.00925852 0.722874)
(0.0271739 -0.00734987 0.541932)
(0.0233661 -0.00461454 0.446742)
(-0.0287721 6.05365e-05 0.545348)
(-0.0222972 0.00107622 0.751567)
(0.000647186 0.012248 1.05939)
(0.0150914 0.0222657 1.18919)
(0.0247877 0.00866342 0.861276)
(0.0287074 0.00361754 0.588347)
(0.0256163 0.00234334 0.465507)
(-0.0269396 0.00889247 0.529085)
(-0.0190772 0.0139801 0.714986)
(0.0045803 0.0218469 0.954544)
(0.0143102 0.0276374 1.03218)
(0.0185218 0.0181338 0.787959)
(0.0260127 0.0123938 0.565963)
(0.0235805 0.00857558 0.456196)
(-0.0212863 0.0143354 0.477599)
(-0.0172046 0.0221511 0.578901)
(-0.00441034 0.0272446 0.701352)
(0.00949879 0.0258622 0.72753)
(0.0168171 0.0240827 0.615709)
(0.0207074 0.017488 0.501345)
(0.0186597 0.0122776 0.424733)
(-0.0148945 0.0156298 0.420929)
(-0.0120817 0.0237522 0.472542)
(-0.00473406 0.0300795 0.516452)
(0.00447956 0.0304481 0.524653)
(0.011087 0.0260948 0.48705)
(0.0137284 0.0190156 0.435614)
(0.012712 0.0134983 0.382882)
(-0.0115837 -0.0129596 0.412741)
(-0.0107354 -0.0201824 0.449812)
(-0.00566241 -0.0271184 0.474225)
(0.00328311 -0.0287625 0.477559)
(0.010091 -0.0221621 0.457178)
(0.0113932 -0.0142833 0.421857)
(0.00985935 -0.00860117 0.377993)
(-0.0188249 -0.0147814 0.460139)
(-0.0190447 -0.0244651 0.509107)
(-0.0108263 -0.0336538 0.548791)
(0.00591702 -0.0360337 0.557832)
(0.018318 -0.0271977 0.521901)
(0.0200348 -0.0166478 0.472994)
(0.0159434 -0.0090449 0.418767)
(-0.0290828 -0.0114205 0.49953)
(-0.030635 -0.0188659 0.568615)
(-0.0193482 -0.0248403 0.667437)
(0.012956 -0.0220604 0.73529)
(0.0309214 -0.0199349 0.601255)
(0.0318691 -0.0123529 0.518856)
(0.0238076 -0.00629787 0.450841)
(-0.0352373 -0.00147509 0.522187)
(-0.0364664 -0.00189972 0.625585)
(-0.0191811 0.0016458 0.859198)
(0.0220468 0.0175183 1.015)
(0.034313 0.00020492 0.727431)
(0.0377237 -1.74859e-05 0.550251)
(0.0285448 0.000736232 0.467498)
(-0.0326971 0.0097985 0.511734)
(-0.033286 0.0178039 0.601158)
(-0.0190707 0.0308196 0.7757)
(0.0220409 0.0480658 0.967158)
(0.0345978 0.0242469 0.681932)
(0.0354435 0.0140355 0.538369)
(0.0266807 0.00849609 0.460596)
(-0.0238294 0.0153918 0.47673)
(-0.0244231 0.0265371 0.536297)
(-0.01453 0.0373625 0.600687)
(0.00832308 0.0421071 0.640956)
(0.0237607 0.0322519 0.56279)
(0.025212 0.0208471 0.494965)
(0.0193593 0.0126404 0.433395)
(-0.0152089 0.0149676 0.429851)
(-0.0148396 0.0249787 0.473287)
(-0.00862454 0.0348612 0.505029)
(0.00385314 0.0383238 0.512465)
(0.0133218 0.0300036 0.485554)
(0.0146548 0.019897 0.443438)
(0.0119622 0.0129113 0.394093)
(0.000376398 0.00151198 0.421525)
(-0.000585527 0.000348096 0.460089)
(-0.000758448 -0.00190639 0.484149)
(0.000706713 -0.00297547 0.487593)
(0.00120112 -8.32889e-05 0.468238)
(-0.000324893 0.00184506 0.431936)
(-0.00167977 0.00240877 0.385228)
(-0.000552862 -0.000102212 0.471382)
(-0.0030358 -0.00270446 0.518774)
(-0.00291049 -0.00721323 0.550255)
(0.00195828 -0.00949114 0.556082)
(0.00468253 -0.00389542 0.530503)
(0.00202909 4.29965e-06 0.485557)
(-0.000818243 0.00176028 0.42947)
(-0.00392323 -0.00153688 0.51033)
(-0.0090544 -0.00503466 0.567032)
(-0.00783432 -0.00861043 0.614788)
(0.00396143 -0.00900398 0.635822)
(0.0114831 -0.00656057 0.585498)
(0.00698184 -0.00164383 0.528556)
(0.00146821 0.00100006 0.463549)
(-0.00829408 9.6979e-05 0.530742)
(-0.0150973 -0.000219342 0.600998)
(-0.0130669 -0.000424314 0.697349)
(0.00895943 -0.00405334 0.885303)
(0.0155753 -0.0008112 0.640828)
(0.0131006 0.00100954 0.552007)
(0.00438717 0.00180583 0.480304)
(-0.00722863 0.00282627 0.522802)
(-0.0137315 0.0071573 0.592798)
(-0.0140801 0.0144016 0.670819)
(0.00593203 0.0237941 0.801213)
(0.0171309 0.0107171 0.627425)
(0.0118284 0.00572744 0.545796)
(0.00367508 0.00324089 0.474518)
(-0.00329394 0.0025749 0.490458)
(-0.00722573 0.00764055 0.546644)
(-0.00798233 0.0151747 0.591717)
(0.00210711 0.0201636 0.604214)
(0.00962078 0.0127007 0.565616)
(0.00519124 0.00630621 0.509309)
(0.00044704 0.00301752 0.447464)
(-0.00124572 0.000448401 0.441996)
(-0.00305166 0.00365635 0.487477)
(-0.00343761 0.00896386 0.517208)
(0.000568515 0.0128396 0.523654)
(0.00324818 0.00694567 0.499815)
(0.000890601 0.00299076 0.45816)
(-0.0014915 0.0015299 0.405398)
(0.012919 0.0172443 0.420239)
(0.0102578 0.0236386 0.463132)
(0.00449962 0.0268146 0.489444)
(-0.00162342 0.0265396 0.493735)
(-0.00762396 0.0254831 0.473111)
(-0.0123196 0.0206041 0.433162)
(-0.0133355 0.0144594 0.381762)
(0.0204693 0.0175386 0.476428)
(0.016144 0.0252727 0.529213)
(0.0066808 0.0268421 0.560895)
(-0.00163676 0.0249673 0.568026)
(-0.0101461 0.0273995 0.543107)
(-0.0184009 0.0224505 0.495176)
(-0.01956 0.0151084 0.43167)
(0.0272492 0.0120166 0.52027)
(0.0194498 0.0163656 0.587073)
(0.00576585 0.0167004 0.628836)
(-0.00107333 0.014484 0.651207)
(-0.00917498 0.0178593 0.609876)
(-0.0236599 0.0170025 0.545162)
(-0.0255053 0.0116641 0.471154)
(0.0279664 0.00357144 0.5419)
(0.0182704 0.00492476 0.614145)
(0.00215659 0.00781066 0.696264)
(-0.000494977 0.0096865 0.791778)
(-0.00419476 0.00717751 0.654068)
(-0.0213523 0.00617675 0.568901)
(-0.0278628 0.00474319 0.491093)
(0.0271 -0.00536228 0.533774)
(0.0199928 -0.00680536 0.60799)
(0.0030718 -0.00311345 0.678261)
(-0.00178077 0.000617472 0.726853)
(-0.00628276 -0.00422338 0.63931)
(-0.0230306 -0.00514501 0.56317)
(-0.0270183 -0.00298625 0.48538)
(0.0233684 -0.0130477 0.499272)
(0.0192177 -0.0178989 0.562855)
(0.007706 -0.0177994 0.60737)
(-0.00143022 -0.0123754 0.619378)
(-0.011054 -0.017127 0.587017)
(-0.0224885 -0.0145333 0.526113)
(-0.0237665 -0.00918348 0.454636)
(0.0157811 -0.0162372 0.444469)
(0.0132247 -0.022673 0.496759)
(0.00574988 -0.0252553 0.529464)
(-0.00193794 -0.0243371 0.53652)
(-0.00961004 -0.0247449 0.512916)
(-0.0164074 -0.019394 0.466719)
(-0.0172124 -0.0120159 0.406362)
(0.0141219 0.0190761 0.407694)
(0.0123858 0.0276556 0.457575)
(0.00568487 0.0329052 0.491457)
(-0.00264995 0.0330175 0.496208)
(-0.0100257 0.0296787 0.471192)
(-0.0141832 0.0226093 0.423612)
(-0.0136572 0.0144492 0.367168)
(0.0252969 0.0212916 0.47583)
(0.0236966 0.0321697 0.558912)
(0.0114236 0.0353813 0.613888)
(-0.00302912 0.0329881 0.618287)
(-0.0164432 0.0336965 0.583101)
(-0.0244716 0.0273079 0.508027)
(-0.0221662 0.0165074 0.422894)
(0.0346447 0.0157304 0.540481)
(0.0348502 0.0254379 0.698949)
(0.0154733 0.0229549 0.769745)
(-0.00319292 0.0163349 0.737222)
(-0.0224288 0.0251489 0.755202)
(-0.0331947 0.0218063 0.597205)
(-0.0305629 0.0134811 0.474714)
(0.0371208 0.00408737 0.575275)
(0.0317905 0.00681339 0.744497)
(0.00876917 0.00561768 0.829589)
(-0.0029993 0.0040788 0.828464)
(-0.0138556 0.00675189 0.81744)
(-0.0355061 0.00731355 0.67765)
(-0.034528 0.00480921 0.506153)
(0.0347043 -0.00848074 0.564255)
(0.0302584 -0.0121602 0.725385)
(0.00730614 -0.0118438 0.876232)
(-0.00431851 -0.00769042 0.837544)
(-0.0144075 -0.0117428 0.821977)
(-0.0320669 -0.00942889 0.641927)
(-0.0325183 -0.00520524 0.498024)
(0.0285623 -0.0170825 0.508808)
(0.0265361 -0.0258123 0.623623)
(0.0122093 -0.028103 0.729366)
(-0.00372632 -0.0248582 0.749747)
(-0.0188128 -0.0285767 0.710888)
(-0.028334 -0.0215168 0.571844)
(-0.0259709 -0.0115579 0.453528)
(0.0180143 -0.0183095 0.43598)
(0.0167669 -0.0278555 0.506965)
(0.00825505 -0.0324304 0.563271)
(-0.00261045 -0.0325184 0.571573)
(-0.0127446 -0.0301296 0.540483)
(-0.0186276 -0.0225789 0.46955)
(-0.0173319 -0.0127163 0.395158)
(-0.00152021 0.000536497 0.390888)
(0.000402027 0.00197184 0.441962)
(0.000364789 0.00355362 0.482545)
(-0.0015872 0.00408771 0.489152)
(-0.00243865 0.000970949 0.458414)
(-0.000783502 -0.000879729 0.406021)
(0.00161296 -0.00209616 0.351059)
(0.00258208 0.00333587 0.461613)
(0.00743043 0.00757323 0.574974)
(0.00559535 0.0103484 0.676349)
(-0.00180826 0.0116737 0.693302)
(-0.00675953 0.00616944 0.624877)
(-0.00461512 0.00329595 0.504209)
(6.18943e-05 0.000468974 0.405041)
(0.00631699 0.00447532 0.544397)
(0.013204 0.00828594 0.718343)
(0.0098285 0.00841613 0.837166)
(-0.00161644 0.00604167 0.864781)
(-0.0109184 0.00522068 0.795305)
(-0.00861556 0.00437466 0.639429)
(-0.00196323 0.00209641 0.4624)
(0.0100029 0.00108489 0.595109)
(0.0159304 0.00200785 0.797808)
(0.0111527 0.000134721 0.902603)
(4.62201e-05 0.00185832 0.843242)
(-0.00985105 0.000413355 0.865626)
(-0.0117713 0.0015087 0.709783)
(-0.00416621 0.00146064 0.500984)
(0.00721727 -0.00331587 0.576656)
(0.0112913 -0.00536263 0.779452)
(0.00692622 -0.0076786 0.896637)
(-0.00109702 -0.00454544 0.833509)
(-0.00884373 -0.00435327 0.854512)
(-0.00912563 -0.00249662 0.704988)
(-0.00258193 -5.4771e-06 0.490237)
(0.00290657 -0.00340997 0.500238)
(0.00760208 -0.00821416 0.66475)
(0.00306423 -0.00882696 0.771356)
(-0.00220747 -0.0135819 0.777541)
(-0.00531819 -0.00602513 0.723083)
(-0.00455208 -0.00357026 0.584903)
(0.000889218 0.000860199 0.437883)
(-1.93804e-05 -0.000181446 0.41802)
(0.00266825 -0.0023315 0.497561)
(0.00301628 -0.00465899 0.571079)
(-0.00113897 -0.00834674 0.585629)
(-0.00376063 -0.00111615 0.541002)
(-0.000953788 0.00177629 0.454614)
(0.00217563 0.00365623 0.378112)
(-0.020822 -0.0214757 0.382897)
(-0.0159874 -0.0297223 0.425466)
(-0.00794676 -0.0343949 0.4602)
(0.000687744 -0.0347836 0.465932)
(0.00915357 -0.0339416 0.438372)
(0.0160608 -0.0278988 0.39321)
(0.0186636 -0.0200279 0.34623)
(-0.0268626 -0.0195722 0.441194)
(-0.0202616 -0.0267375 0.538274)
(-0.00859645 -0.0278399 0.636532)
(0.00184671 -0.0261082 0.651102)
(0.0130657 -0.0301417 0.586507)
(0.0229944 -0.0260699 0.474659)
(0.0262287 -0.0178836 0.391211)
(-0.0322068 -0.0125769 0.51177)
(-0.0193413 -0.0145789 0.710842)
(-0.00267926 -0.00863101 0.824196)
(0.00253671 -0.005458 0.846439)
(0.00978116 -0.0140711 0.771466)
(0.0262904 -0.0172035 0.599273)
(0.0325787 -0.0114086 0.438939)
(-0.0327452 -0.00348513 0.560135)
(-0.0134025 -0.003396 0.789434)
(0.00426296 -0.00151163 0.904064)
(0.00308162 -0.000788954 0.900358)
(0.00268647 -0.00350983 0.856575)
(0.0221655 -0.00412763 0.684744)
(0.0343188 -0.00224822 0.472402)
(-0.033782 0.00669817 0.540896)
(-0.016605 0.00543878 0.773849)
(0.001181 0.00109821 0.88729)
(0.00107526 -0.00199563 0.925327)
(0.00319354 0.00380114 0.840272)
(0.024938 0.00938731 0.662279)
(0.0350311 0.00784867 0.461727)
(-0.0305092 0.0167221 0.471901)
(-0.0214355 0.0215766 0.623615)
(-0.00555912 0.0177171 0.770108)
(0.00219313 0.0122045 0.788061)
(0.0122777 0.0217368 0.722382)
(0.0266755 0.0231564 0.542272)
(0.0314161 0.0168543 0.417486)
(-0.0219934 0.0225415 0.404028)
(-0.0166193 0.0309203 0.46905)
(-0.0066738 0.0348594 0.534939)
(0.00264816 0.0335244 0.550184)
(0.0117834 0.0350749 0.505161)
(0.0204093 0.0299626 0.43156)
(0.0234717 0.0221627 0.368737)
(0.000396979 -0.00163611 0.149527)
(-0.000220036 -0.0014859 0.112363)
(0.00310196 -0.00204884 0.311595)
(0.00304897 -0.0015823 0.26064)
(0.0025076 -0.00133151 0.218474)
(0.00175381 -0.00122032 0.182956)
(0.000945872 -0.00117782 0.150702)
(0.000251432 -0.00116732 0.111275)
(0.00467256 -0.00174258 0.456186)
(0.00428432 -0.000675896 0.380097)
(0.00420915 -7.71801e-05 0.31649)
(0.00365351 9.68576e-05 0.264017)
(0.00294944 3.31561e-05 0.220663)
(0.00210887 -0.000124597 0.184155)
(0.00125704 -0.000284141 0.151036)
(0.000533972 -0.00037702 0.110667)
(0.0030266 0.00202449 0.438594)
(0.0033708 0.00234243 0.367671)
(0.0031836 0.00221966 0.308263)
(0.00285852 0.00189469 0.258845)
(0.00230606 0.00143551 0.217589)
(0.00164198 0.00098187 0.182421)
(0.000950445 0.000616871 0.150091)
(0.000349915 0.000410446 0.110203)
(0.0015315 0.00391777 0.401771)
(0.00168117 0.00370977 0.341752)
(0.00176163 0.00339741 0.29082)
(0.00160202 0.00284531 0.247615)
(0.00128267 0.00222699 0.210785)
(0.000860027 0.0016454 0.178715)
(0.000390903 0.00116488 0.148551)
(-3.32595e-05 0.000836932 0.110475)
(0.000412604 0.00458853 0.356659)
(0.000529185 0.00426938 0.310693)
(0.00056735 0.00376311 0.269739)
(0.000491973 0.00314556 0.233803)
(0.000312332 0.00251261 0.202309)
(5.76627e-05 0.00192615 0.174161)
(-0.000236963 0.00142672 0.146931)
(-0.000510052 0.00106045 0.111536)
(-0.00201339 -0.000873055 0.361819)
(-0.00069508 -0.00125213 0.313415)
(1.95039e-05 -0.00146162 0.270969)
(0.000271176 -0.00153711 0.234432)
(0.000207576 -0.00152471 0.20305)
(-4.17314e-05 -0.00146651 0.175557)
(-0.000389527 -0.00139796 0.149357)
(-0.000710323 -0.00139704 0.115441)
(-0.00309556 -0.000789006 0.406494)
(-0.000836089 -0.00095909 0.34406)
(0.000341538 -0.00104076 0.291922)
(0.000800805 -0.00108035 0.248339)
(0.00079813 -0.00109456 0.211666)
(0.000534581 -0.00108568 0.180139)
(0.000157746 -0.0010636 0.150782)
(-0.000157456 -0.00105662 0.113827)
(-0.00355751 -0.00140356 0.438126)
(-0.0009239 -0.000780379 0.36639)
(0.000517324 -0.000487741 0.307261)
(0.00110203 -0.000386698 0.25849)
(0.00115517 -0.000405184 0.217938)
(0.000914057 -0.000469645 0.183458)
(0.000537645 -0.000532648 0.151785)
(0.000223887 -0.000587007 0.112591)
(-0.00227081 -0.00067382 0.446927)
(-0.000275709 0.000231598 0.372873)
(0.000768057 0.000635778 0.31186)
(0.00122788 0.000689863 0.261676)
(0.00124061 0.000571828 0.219967)
(0.00100165 0.000409288 0.184496)
(0.000647454 0.000282981 0.151946)
(0.000354613 0.000239706 0.111809)
(-0.00286936 0.000914542 0.429613)
(-0.00110163 0.00162448 0.361047)
(-8.84018e-06 0.00183494 0.304205)
(0.000485768 0.00170457 0.256823)
(0.000603796 0.00144064 0.217)
(0.000490802 0.00117964 0.182721)
(0.000250857 0.00100061 0.150878)
(4.11356e-05 0.000968377 0.111189)
(-0.00308652 0.00152959 0.394276)
(-0.00164694 0.00220994 0.336631)
(-0.000791931 0.00231653 0.287834)
(-0.000341049 0.0021388 0.246217)
(-0.00016636 0.00185065 0.21045)
(-0.000178509 0.00157187 0.179043)
(-0.000311136 0.00136714 0.149244)
(-0.000438081 0.00129673 0.11131)