/*--------------------------------*- C++ -*----------------------------------*\
| =========                 |                                                 |
| \\      /  F ield         | OpenFOAM: The Open Source CFD Toolbox           |
|  \\    /   O peration     | Version:  plus.master.MPPICInterFoam            |
|   \\  /    A nd           | Web:      www.OpenFOAM.com                      |
|    \\/     M anipulation  |                                                 |
\*---------------------------------------------------------------------------*/
FoamFile
{
    version     2.0;
    format      ascii;
    class       volScalarField;
    location    "10.8";
    object      epsilon;
}
// * * * * * * * * * * * * * * * * * * * * * * * * * * * * * * * * * * * * * //

dimensions      [0 2 -3 0 0 0 0];

internalField   nonuniform List<scalar> 
11821
(
0.000845027
0.00551694
0.0297919
0.0316936
0.00880528
0.00126095
0.000238732
0.00396662
0.077125
0.537198
0.990095
0.278435
0.0453355
0.0016695
0.0172975
0.376893
0.511108
1.53558
0.34001
0.333303
0.0138956
0.0452459
1.18441
1.34703
2.33167
2.57522
0.683151
0.0316346
0.0243751
0.499483
0.522965
1.00129
0.388383
0.377416
0.0204142
0.0048691
0.0814635
0.578472
1.26351
0.277109
0.06741
0.00334484
0.000992529
0.00585704
0.0310038
0.0368104
0.0104268
0.00247877
0.000472742
0.00574583
0.0479146
0.149814
0.207886
0.0483735
0.00636917
0.00105489
0.0408824
0.260869
0.926399
1.82407
0.413305
0.0674079
0.0061079
0.16522
0.870563
1.73815
9.77628
1.7116
0.360059
0.0363725
0.351547
2.30742
9.64282
8.89836
18.8975
1.2286
0.096819
0.198466
1.0274
1.60884
4.60084
2.16236
0.523497
0.0640651
0.050711
0.305248
1.09974
2.46337
0.594799
0.127428
0.0162514
0.00773981
0.0592322
0.212714
0.331064
0.0993722
0.016847
0.00209211
0.016729
0.088349
0.226919
0.295262
0.0789268
0.0127395
0.00366723
0.089124
0.383933
1.00377
1.82161
0.511551
0.0850717
0.0103307
0.28769
1.11044
2.66737
8.96801
2.3652
0.368167
0.0402558
0.572229
2.64887
7.63381
10.9266
15.1237
1.12044
0.101063
0.343415
1.27947
2.66553
4.23394
3.16045
0.537422
0.0716849
0.120789
0.482813
1.26281
2.53825
0.793522
0.169519
0.0220072
0.0259895
0.127069
0.33775
0.490326
0.166398
0.0291262
0.00545997
0.0269285
0.100827
0.25388
0.290655
0.0931494
0.021122
0.00988824
0.113966
0.444961
1.01683
1.50884
0.522422
0.0935014
0.0175991
0.359109
1.25209
2.94991
5.98773
2.09827
0.365284
0.0454255
0.688553
2.64402
5.33171
7.4557
8.25328
0.904014
0.0956663
0.44128
1.4634
3.05541
4.13814
2.7439
0.502844
0.0692206
0.170316
0.599474
1.37339
2.15402
0.817455
0.173602
0.0273831
0.0431439
0.167975
0.404868
0.51479
0.187865
0.0384073
0.0121708
0.0286611
0.0922796
0.230782
0.254607
0.085018
0.0230913
0.0128933
0.111511
0.432284
0.936882
1.14968
0.462199
0.0848169
0.0198687
0.374191
1.25071
2.68696
3.66722
1.62783
0.322765
0.0438347
0.721622
2.57015
3.79537
4.1238
4.51319
0.731199
0.0848958
0.476361
1.52332
2.87725
3.2903
2.17908
0.44509
0.0616609
0.176683
0.632996
1.37372
1.82485
0.753014
0.155114
0.0278216
0.0457366
0.168878
0.410333
0.478497
0.178451
0.0387258
0.0152195
0.00012243
0.000114428
0.000112344
0.000106375
0.000102025
9.82453e-05
9.48995e-05
9.21732e-05
0.000313794
0.000146133
0.00011364
0.0001028
9.66536e-05
9.17042e-05
8.76142e-05
8.43545e-05
0.00208404
0.000338081
0.000138309
0.000106384
9.72971e-05
9.14297e-05
8.63699e-05
8.19961e-05
0.00551474
0.000801238
0.000182382
0.000108918
9.54423e-05
8.89585e-05
8.571e-05
8.34177e-05
0.00319557
0.000483624
0.000154523
0.000110768
0.0001008
9.5142e-05
9.07057e-05
8.69972e-05
0.000681691
0.000212115
0.000133527
0.00011331
0.000104989
9.99071e-05
9.64102e-05
9.35966e-05
0.00019121
0.000131522
0.000120968
0.000113785
0.000109339
0.000106205
0.000103683
0.000101053
0.000446625
0.000352689
0.000301178
0.000262257
0.000231566
0.000206798
0.000186313
0.000168697
0.000851988
0.000423477
0.000325894
0.000274061
0.000237511
0.0002093
0.000186617
0.000167399
0.00279939
0.000607779
0.000353623
0.000278836
0.00023761
0.000207992
0.000184662
0.000165115
0.00626708
0.000825203
0.000378343
0.000283848
0.000239441
0.000208771
0.00018512
0.000165186
0.00506248
0.000764801
0.000369861
0.000281773
0.000239625
0.000210537
0.000187757
0.000168502
0.00176848
0.000518809
0.000335928
0.000273948
0.000238546
0.000212752
0.000192108
0.000174231
0.000644114
0.00037867
0.000303349
0.000261608
0.000232429
0.000209973
0.000191602
0.000175474
0.00223671
0.00188514
0.0016255
0.00137294
0.00112596
0.000894591
0.000690439
0.00052341
0.00304881
0.00208036
0.00171196
0.00143033
0.00116823
0.000922679
0.000703761
0.000523218
0.00555173
0.00242139
0.00179149
0.00146791
0.00119563
0.000942396
0.000714302
0.000524705
0.00931815
0.00276702
0.00185139
0.00149178
0.00121227
0.000954209
0.000721128
0.000527339
0.00824667
0.0027035
0.00183431
0.00147805
0.00120071
0.000946461
0.00071849
0.00053006
0.00426995
0.00224114
0.00172428
0.0014213
0.00116009
0.000919311
0.000706173
0.000532113
0.00249987
0.00190405
0.00160346
0.00134838
0.00110774
0.00088507
0.000690512
0.000533344
0.00744336
0.00640594
0.00550907
0.0046985
0.00402714
0.00350679
0.00309264
0.00267428
0.00879599
0.006952
0.00585575
0.00492981
0.00416096
0.00357036
0.0031207
0.00269014
0.0117777
0.0075705
0.00614167
0.00512451
0.00428877
0.0036439
0.00316107
0.00271385
0.0156349
0.00809605
0.00632344
0.00524538
0.00437265
0.0036944
0.00318653
0.00272268
0.014242
0.00797953
0.00628444
0.00521487
0.0043538
0.00368671
0.00318213
0.00271367
0.0100708
0.00726825
0.00601344
0.00504599
0.00425023
0.00363191
0.00315158
0.00268772
0.00780719
0.00655115
0.00562078
0.00479861
0.00411162
0.00356973
0.00312933
0.00268112
0.0106339
0.00969802
0.00896356
0.00820702
0.00731486
0.00617607
0.00473898
0.00320212
0.0118446
0.0100694
0.00910772
0.00830167
0.0074592
0.00640816
0.00501989
0.00344213
0.0145912
0.0106435
0.00934617
0.00848026
0.0076547
0.00664258
0.00526012
0.00362772
0.0180238
0.0111747
0.00954376
0.00862095
0.00778177
0.0067661
0.00536943
0.00370182
0.0165536
0.0110479
0.00953527
0.00861619
0.00775372
0.00670559
0.00528926
0.0036273
0.0130332
0.0105125
0.00942842
0.00857252
0.00767238
0.00655208
0.00509228
0.0034495
0.0112109
0.0101406
0.0094136
0.00865915
0.00772978
0.00650798
0.00495273
0.0032885
0.000230709
0.000140765
0.000129636
0.000124576
0.000120892
0.000117673
0.000115208
0.000112947
0.000829434
0.000210029
0.000130723
0.000111596
0.00010333
9.77653e-05
9.45935e-05
9.11646e-05
0.00446787
0.000800619
0.000205579
0.000114766
9.524e-05
8.63699e-05
8.14796e-05
7.60241e-05
0.00790502
0.00136721
0.000261035
0.000115056
8.89997e-05
7.98791e-05
7.30664e-05
6.70561e-05
0.00281889
0.000517291
0.000166077
0.000109903
9.67154e-05
8.93343e-05
8.29576e-05
7.74978e-05
0.000575869
0.000174235
0.00012489
0.000108885
0.000101638
9.59972e-05
9.2119e-05
8.9327e-05
0.000207714
0.000131137
0.000119945
0.000112995
0.000109399
0.000109827
0.000109901
0.000107154
0.00117733
0.000548039
0.000425454
0.000355089
0.000302947
0.000262568
0.000230788
0.000205057
0.00557282
0.00108762
0.000576494
0.000435201
0.000356377
0.000298835
0.000253283
0.000216111
0.025958
0.00327064
0.000928672
0.000570713
0.000443222
0.000362565
0.000300404
0.000249164
0.041649
0.00436531
0.000986078
0.000565175
0.000433744
0.000354158
0.000293642
0.000245401
0.0167402
0.00197572
0.000684382
0.000463892
0.000371111
0.000307086
0.00025571
0.000214081
0.00364549
0.000779369
0.000458243
0.000359775
0.000300295
0.000255471
0.000219801
0.000190766
0.000947195
0.000485992
0.00037576
0.000313039
0.000268395
0.00023433
0.000207874
0.000186583
0.00541076
0.00270145
0.00213814
0.00180276
0.00149101
0.00118533
0.000904572
0.000672182
0.0194545
0.00462851
0.00254424
0.00198814
0.00164862
0.00133486
0.00102902
0.000753586
0.0629055
0.0102757
0.00327381
0.00213649
0.00172452
0.00141725
0.00111975
0.000833959
0.0983619
0.0134896
0.00344836
0.00207534
0.00163497
0.00132709
0.00103942
0.000768216
0.0447715
0.00723634
0.00279035
0.00198497
0.00162807
0.00133043
0.00103707
0.000759772
0.0127739
0.00351674
0.00221545
0.00179175
0.00148617
0.00119361
0.00091306
0.000666489
0.00400109
0.00234402
0.00192177
0.00162442
0.00133952
0.00106308
0.000812781
0.000607342
0.0134042
0.00849687
0.00691309
0.00582351
0.00494571
0.00425301
0.00369595
0.00314826
0.0347132
0.0120402
0.00786278
0.00631311
0.00530552
0.00456178
0.0040118
0.00351131
0.0935356
0.0203493
0.00900511
0.00646746
0.00526914
0.00447057
0.00393403
0.00351209
0.140103
0.0257494
0.00934694
0.00630024
0.00500733
0.00415562
0.00357728
0.00312828
0.0685153
0.0161078
0.00826648
0.00623008
0.005111
0.00431639
0.00376428
0.00332163
0.0235947
0.00996453
0.0072137
0.00593401
0.00500091
0.00429144
0.00376337
0.00328519
0.0105093
0.00763255
0.00641679
0.00545118
0.00465135
0.00402033
0.00351433
0.00301439
0.017138
0.0125689
0.0111975
0.0101689
0.00901786
0.00755215
0.00569226
0.0036791
0.0386125
0.0162581
0.0123255
0.0110468
0.01008
0.00882211
0.00698632
0.00473355
0.0997836
0.0249358
0.0136807
0.0115595
0.0107723
0.00988643
0.00830494
0.0060536
0.15102
0.0308397
0.0139502
0.0112023
0.0104151
0.00975196
0.0085291
0.00663684
0.0735036
0.0206195
0.0128179
0.0111935
0.0104854
0.00963618
0.00813644
0.00600593
0.02678
0.0139503
0.0115298
0.0105616
0.00971729
0.00857335
0.00686944
0.00474734
0.0140012
0.0114985
0.0105103
0.00962384
0.00859137
0.00726112
0.00554362
0.00365261
0.000283051
0.000142918
0.000116872
0.000111807
0.000109811
0.000107399
0.00010412
0.000101999
0.00123906
0.000282519
0.000122298
9.44218e-05
8.88552e-05
8.61493e-05
8.388e-05
8.17916e-05
0.00510212
0.000761032
0.000169609
9.27742e-05
7.54838e-05
6.71078e-05
6.06689e-05
5.48358e-05
0.00525759
0.000753997
0.000167856
9.64909e-05
8.00095e-05
7.1179e-05
6.4063e-05
5.84895e-05
0.00125755
0.000236464
0.000120699
9.85153e-05
8.95476e-05
8.27489e-05
7.78873e-05
7.3132e-05
0.000218236
0.00011998
0.000112854
0.000103533
9.6785e-05
9.06263e-05
8.72166e-05
8.50537e-05
0.000115549
0.000109385
0.000110782
0.000106649
0.000103212
0.000100574
9.79137e-05
9.49239e-05
0.00133754
0.000527044
0.000386997
0.000322853
0.000279921
0.000246584
0.000219405
0.000196118
0.00576913
0.00104977
0.00050372
0.000369661
0.000305397
0.000261541
0.000228582
0.00020123
0.0164758
0.0018663
0.000608784
0.000399289
0.000315664
0.000262023
0.000221772
0.000189349
0.0153229
0.00156173
0.000557185
0.000380775
0.000302719
0.000249
0.000207635
0.000174269
0.00356748
0.000741059
0.000432888
0.000334861
0.000274582
0.000228788
0.000192548
0.000162853
0.000877479
0.000451362
0.000352017
0.000293705
0.000250716
0.000217246
0.000190896
0.000168768
0.000454953
0.000364421
0.000310075
0.000267598
0.000234543
0.000208643
0.000187937
0.000170592
0.00424134
0.00232267
0.00186627
0.00157551
0.00130499
0.00104302
0.000804346
0.000606394
0.0132072
0.00349025
0.00209284
0.00166698
0.00138089
0.00111214
0.000855135
0.000630592
0.0322121
0.00516833
0.00218584
0.001593
0.00129666
0.00104303
0.00080129
0.000584572
0.0319713
0.00471109
0.00205264
0.00150243
0.00120784
0.000957044
0.000724745
0.000520106
0.00934777
0.00283646
0.00189817
0.00153629
0.00125665
0.000993931
0.000750583
0.000541588
0.00328142
0.00215526
0.00180163
0.00153087
0.00126833
0.0010109
0.000771831
0.000568637
0.0022622
0.00193387
0.0016791
0.00142226
0.00116745
0.000926922
0.000713853
0.000539344
0.0102429
0.00741336
0.00621223
0.00528628
0.00452354
0.00391912
0.00342906
0.00293724
0.0205077
0.00911792
0.00666352
0.00549748
0.00465432
0.00401297
0.00352091
0.0030478
0.0422941
0.0112882
0.00666659
0.00523305
0.00436547
0.00375535
0.00333269
0.00295511
0.0427563
0.0107231
0.00631127
0.00492215
0.00406385
0.00347251
0.00308862
0.00277184
0.0172787
0.00812976
0.00611682
0.0050374
0.00422262
0.00363102
0.00322603
0.0028685
0.00921353
0.00706877
0.0059882
0.00508919
0.00433409
0.00374853
0.00330237
0.00287446
0.00744787
0.00645249
0.0055689
0.00476428
0.00409511
0.00357434
0.00315867
0.00273757
0.0136104
0.0111601
0.0101532
0.00927645
0.00825278
0.00693335
0.00525687
0.00345316
0.0223106
0.0124956
0.0103693
0.00936277
0.00843006
0.00724622
0.00564783
0.00380755
0.0410132
0.0143923
0.010302
0.00912682
0.00833248
0.00734774
0.00589352
0.00409122
0.0418134
0.0139039
0.00985255
0.00872304
0.00800468
0.0071392
0.00581862
0.00412961
0.019807
0.0113769
0.00955005
0.00870198
0.00798019
0.00705263
0.00566875
0.00394903
0.0123509
0.0103084
0.0093867
0.00864138
0.00783511
0.00677586
0.00532079
0.00363071
0.0106302
0.00972491
0.00899515
0.00824183
0.007356
0.00622585
0.00479064
0.00323888
0.000154214
0.000121903
0.000115547
0.000110188
0.000106274
0.000102836
0.00010016
9.79699e-05
0.000337831
0.000142805
0.000123604
0.000111362
0.000103578
9.68075e-05
9.06665e-05
8.58906e-05
0.00152808
0.000300203
0.000143945
0.000112176
0.000100405
9.16656e-05
8.46537e-05
7.77791e-05
0.00595618
0.000994105
0.000225529
0.000120295
9.65717e-05
8.54111e-05
7.70666e-05
7.03052e-05
0.00598388
0.00100976
0.000234332
0.000120066
9.54102e-05
8.54683e-05
7.83614e-05
7.25489e-05
0.00139741
0.00035609
0.00015598
0.000115957
0.000104231
9.85389e-05
9.46027e-05
9.02407e-05
0.000299616
0.000163554
0.000135709
0.000124585
0.00012006
0.000116884
0.000114544
0.00011241
0.000571982
0.000395861
0.000324074
0.000274952
0.00023857
0.000210632
0.000188745
0.000170858
0.00154514
0.00055623
0.000401559
0.000327598
0.000275329
0.000234649
0.000201928
0.000175157
0.00758065
0.00115971
0.000581643
0.000435754
0.000354863
0.000294058
0.000244465
0.000203488
0.0309607
0.00303608
0.000910874
0.000587759
0.000462417
0.000378434
0.000312545
0.000259095
0.0284306
0.00362177
0.00106367
0.000658381
0.000505942
0.000406702
0.000330938
0.000270798
0.00870389
0.00165432
0.00075018
0.000524761
0.000413731
0.000337879
0.000279805
0.000233851
0.00153931
0.000592711
0.000451463
0.000377965
0.000322031
0.000277673
0.000242021
0.000212795
0.00246809
0.00196898
0.00169653
0.00143653
0.00118026
0.00093743
0.000721674
0.000545365
0.00500935
0.0024058
0.00189446
0.00159854
0.0013294
0.00106461
0.000812936
0.000592771
0.0201642
0.00418275
0.00228652
0.00179549
0.00149522
0.00121888
0.000944681
0.000687309
0.0708674
0.00932148
0.00298431
0.0019891
0.00160234
0.00130609
0.00102382
0.000756764
0.0615593
0.0100982
0.00330632
0.00217681
0.00175684
0.00144265
0.001139
0.000847045
0.0225854
0.00524871
0.0027366
0.00209245
0.00172406
0.00139326
0.00107207
0.000781526
0.00561316
0.00271608
0.00216075
0.00183081
0.0015184
0.00120826
0.000920774
0.00068099
0.00789826
0.00671444
0.00579823
0.00496615
0.00426794
0.0037196
0.00328088
0.00284183
0.0117585
0.00768364
0.00634887
0.00538068
0.00457946
0.00396072
0.00350178
0.00308048
0.0321912
0.010649
0.00704999
0.00566693
0.00470619
0.00398432
0.00347714
0.00306307
0.0917914
0.0182415
0.00817247
0.00592845
0.00479616
0.00400818
0.00346731
0.00303878
0.083887
0.0187273
0.00864422
0.00629133
0.00513901
0.00436521
0.0038462
0.00343554
0.0346709
0.0121281
0.00786633
0.0062908
0.00528198
0.00454527
0.00400403
0.00350989
0.0133943
0.00847876
0.00689103
0.00580491
0.00493051
0.00424103
0.00368731
0.00314331
0.0114594
0.0104613
0.00977396
0.00906511
0.0081947
0.00701921
0.00545175
0.00368774
0.0152273
0.0115443
0.0105493
0.00993806
0.00928661
0.00831855
0.00679216
0.00483106
0.0351061
0.0146871
0.0113567
0.0104591
0.00995252
0.0092469
0.00791306
0.0059628
0.0921675
0.0223038
0.0124746
0.0106428
0.0100283
0.00943694
0.00829279
0.00650458
0.0842382
0.0224747
0.0131161
0.0112855
0.0105751
0.00973951
0.0082121
0.00601661
0.0372133
0.016073
0.0122355
0.0109802
0.0100339
0.0087937
0.00697129
0.00473391
0.0171152
0.0125596
0.011173
0.0101477
0.00900346
0.00754505
0.00569276
0.00368709
8.96206e-05
8.17587e-05
7.87396e-05
8.09589e-05
8.43827e-05
9.11148e-05
9.82096e-05
0.000152554
0.00014996
0.000147371
0.000147479
0.000150854
0.000157377
0.000160085
0.000398789
0.000388893
0.00038371
0.000383679
0.000390716
0.000403744
0.0004176
0.00209261
0.00206552
0.00205178
0.00203979
0.00203286
0.00203116
0.00207007
0.00159376
0.00159191
0.00158351
0.00157413
0.00156189
0.00154789
0.00156789
0.000110569
8.73984e-05
6.97329e-05
6.24406e-05
7.28286e-05
8.67373e-05
0.000103445
0.000182819
0.000185813
0.000208397
0.000207106
0.00018001
0.000166325
0.000168308
0.00050183
0.000535688
0.000589776
0.000541158
0.000528982
0.000475299
0.000456771
0.00242108
0.0027785
0.00288209
0.00248906
0.00268627
0.00259589
0.00234114
0.00159561
0.00201555
0.00285008
0.00355925
0.00292835
0.00213109
0.00166133
0.000100855
7.88963e-05
5.0264e-05
5.41098e-05
6.79849e-05
8.27994e-05
9.19037e-05
0.000175039
0.000178026
0.000162223
0.000147097
0.000138511
0.000149917
0.000154912
0.000459336
0.000458333
0.000413174
0.000359551
0.000380838
0.000414798
0.000409297
0.0022709
0.00235477
0.00233354
0.00222871
0.00227374
0.00223692
0.00214754
0.00158571
0.00165612
0.00176945
0.00184066
0.00172763
0.00163263
0.00160024
9.50465e-05
8.26368e-05
7.17161e-05
6.43684e-05
6.75915e-05
8.6003e-05
0.000110201
0.000155182
0.000152472
0.000170321
0.000216824
0.000223664
0.000197087
0.000187483
0.00041489
0.000421125
0.000474183
0.000532334
0.000597381
0.000550158
0.000503916
0.00223538
0.0024543
0.0024555
0.00241052
0.00281392
0.00277755
0.00242039
0.00177913
0.00232539
0.00304987
0.00355415
0.00286667
0.00203351
0.00160589
8.68978e-05
7.97967e-05
7.02499e-05
6.0676e-05
5.11737e-05
4.23163e-05
3.43593e-05
2.72935e-05
7.92482e-05
7.40276e-05
6.64911e-05
5.73733e-05
4.86137e-05
4.03335e-05
3.28107e-05
2.60729e-05
7.61094e-05
7.14372e-05
6.48014e-05
5.60829e-05
4.76265e-05
3.96e-05
3.22603e-05
2.5647e-05
7.89893e-05
7.36297e-05
6.65108e-05
5.8347e-05
4.92897e-05
4.02277e-05
3.24943e-05
2.58031e-05
8.21472e-05
7.70881e-05
6.91602e-05
5.95413e-05
5.04122e-05
4.18132e-05
3.40175e-05
2.70393e-05
8.89242e-05
8.33881e-05
7.45691e-05
6.39347e-05
5.39913e-05
4.4804e-05
3.64784e-05
2.90397e-05
9.53443e-05
8.79584e-05
7.83423e-05
6.78927e-05
5.74932e-05
4.78262e-05
3.90762e-05
3.12597e-05
0.000137196
0.00011191
8.55444e-05
6.41986e-05
4.86467e-05
3.74652e-05
2.93046e-05
2.34108e-05
0.000134404
0.000110444
8.47647e-05
6.42047e-05
4.88579e-05
3.77079e-05
2.95075e-05
2.35425e-05
0.000132184
0.000109147
8.40492e-05
6.39486e-05
4.88293e-05
3.77753e-05
2.9596e-05
2.36121e-05
0.000132584
0.000109622
8.49383e-05
6.44168e-05
4.88634e-05
3.7768e-05
2.96738e-05
2.37747e-05
0.00013573
0.000111666
8.56176e-05
6.49976e-05
4.96621e-05
3.85264e-05
3.03163e-05
2.43224e-05
0.000142207
0.000116498
8.87405e-05
6.69345e-05
5.09376e-05
3.94438e-05
3.10594e-05
2.50042e-05
0.00014531
0.000119051
9.06151e-05
6.79353e-05
5.15731e-05
3.99248e-05
3.1508e-05
2.54947e-05
0.000311621
0.000228145
0.000145786
9.10587e-05
5.87844e-05
3.9846e-05
2.8542e-05
2.19212e-05
0.000302207
0.000221189
0.000143094
9.0408e-05
5.89268e-05
4.02763e-05
2.90636e-05
2.2464e-05
0.000297368
0.00021828
0.000141943
9.01294e-05
5.89818e-05
4.04338e-05
2.92367e-05
2.26238e-05
0.000297354
0.00021843
0.000141666
8.99989e-05
5.89938e-05
4.0508e-05
2.93614e-05
2.27963e-05
0.00030559
0.000224186
0.00014341
9.02617e-05
5.88799e-05
4.03673e-05
2.926e-05
2.27408e-05
0.000321286
0.000233562
0.000146841
9.13271e-05
5.90953e-05
4.03099e-05
2.91542e-05
2.26731e-05
0.00033849
0.000244292
0.000151887
9.3481e-05
5.98771e-05
4.04365e-05
2.89761e-05
2.23684e-05
0.00147714
0.00067374
0.000268848
0.000122269
6.44492e-05
3.84793e-05
2.56596e-05
1.92245e-05
0.00144742
0.000660892
0.000264776
0.000121148
6.43478e-05
3.87635e-05
2.61157e-05
1.97845e-05
0.00142794
0.000651844
0.00026202
0.000120421
6.42281e-05
3.88269e-05
2.62337e-05
1.99185e-05
0.00141273
0.000643609
0.000259289
0.000119586
6.39574e-05
3.87525e-05
2.62533e-05
1.99974e-05
0.00140567
0.000638647
0.000257574
0.000118936
6.35325e-05
3.83861e-05
2.59146e-05
1.96754e-05
0.001407
0.00063923
0.000258269
0.000119204
6.34222e-05
3.80987e-05
2.55668e-05
1.93137e-05
0.00144773
0.00066287
0.000268579
0.000123612
6.52911e-05
3.87682e-05
2.55967e-05
1.89515e-05
0.00123802
0.000729828
0.000301205
0.000128986
6.19887e-05
3.39791e-05
2.14105e-05
1.57407e-05
0.00122297
0.000722782
0.000299727
0.000128849
6.21923e-05
3.42792e-05
2.17576e-05
1.61412e-05
0.00120718
0.000714816
0.000297295
0.000128087
6.19582e-05
3.42276e-05
2.17771e-05
1.61928e-05
0.00119637
0.000709207
0.000295383
0.000127397
6.16835e-05
3.41155e-05
2.17408e-05
1.61974e-05
0.00119467
0.000708203
0.000294377
0.000126683
6.11496e-05
3.36819e-05
2.13581e-05
1.5824e-05
0.00120353
0.000712375
0.000294796
0.00012644
6.08096e-05
3.33429e-05
2.10212e-05
1.54598e-05
0.00124546
0.000733617
0.000302119
0.000129604
6.24555e-05
3.42548e-05
2.14573e-05
1.55019e-05
0.000108056
0.000100828
8.97176e-05
7.7073e-05
6.48175e-05
5.3651e-05
4.38273e-05
3.52575e-05
8.40065e-05
7.81742e-05
7.35031e-05
6.71615e-05
5.90383e-05
5.03359e-05
4.16221e-05
3.35819e-05
6.52851e-05
5.86417e-05
5.31182e-05
4.76675e-05
4.21986e-05
3.68308e-05
3.17804e-05
2.66475e-05
5.86328e-05
5.16797e-05
4.54595e-05
3.94644e-05
3.40014e-05
2.91101e-05
2.4909e-05
2.09849e-05
6.80193e-05
6.05454e-05
5.45461e-05
4.82948e-05
4.22696e-05
3.66739e-05
3.1423e-05
2.61695e-05
8.3712e-05
7.79507e-05
7.28479e-05
6.51963e-05
5.64218e-05
4.76136e-05
3.90657e-05
3.10795e-05
0.000100282
9.36667e-05
8.39096e-05
7.24629e-05
6.10824e-05
5.05645e-05
4.11147e-05
3.28698e-05
0.000162785
0.000130219
9.57172e-05
6.88558e-05
5.02756e-05
3.77474e-05
2.91839e-05
2.33234e-05
0.000160482
0.000129799
0.000101694
7.73928e-05
5.85261e-05
4.45982e-05
3.45531e-05
2.74532e-05
0.000173568
0.000133958
0.000101917
7.75372e-05
5.91149e-05
4.54184e-05
3.46778e-05
2.65383e-05
0.000173857
0.000134994
0.000103738
7.99135e-05
6.20038e-05
4.82919e-05
3.75265e-05
2.92944e-05
0.000151327
0.000117206
8.88044e-05
6.736e-05
5.1363e-05
3.92895e-05
2.98567e-05
2.28193e-05
0.000145499
0.000118824
9.22363e-05
6.98045e-05
5.25816e-05
3.97991e-05
3.02865e-05
2.36068e-05
0.000151467
0.000123706
9.28574e-05
6.80015e-05
5.02455e-05
3.792e-05
2.93134e-05
2.33665e-05
0.000388867
0.000273769
0.000164989
9.76126e-05
6.01402e-05
3.92277e-05
2.72355e-05
2.03231e-05
0.000389327
0.000270608
0.000186525
0.000123449
8.31503e-05
5.84115e-05
4.30541e-05
3.33518e-05
0.000410404
0.000252956
0.000166387
0.000116477
8.45235e-05
6.22894e-05
4.57961e-05
3.39298e-05
0.000374418
0.000227213
0.00014658
0.000100864
7.23208e-05
5.31401e-05
3.96962e-05
3.01789e-05
0.000365552
0.000221101
0.000142274
9.77479e-05
7.01972e-05
5.10343e-05
3.66502e-05
2.66631e-05
0.000349212
0.000243162
0.000167093
0.000110026
7.35278e-05
5.09977e-05
3.69311e-05
2.80541e-05
0.000355122
0.000259191
0.000161078
9.75798e-05
6.11207e-05
4.02355e-05
2.80147e-05
2.09056e-05
0.0016714
0.000750166
0.000294882
0.000130713
6.68968e-05
3.87692e-05
2.50326e-05
1.79776e-05
0.0019926
0.000967925
0.000409472
0.000193047
0.000106124
6.65763e-05
4.62973e-05
3.48717e-05
0.00218531
0.00118393
0.000576212
0.000303674
0.000181174
0.000120275
8.54757e-05
6.22106e-05
0.00181228
0.000924663
0.000422443
0.000205522
0.000111345
6.71569e-05
4.44518e-05
3.18626e-05
0.002012
0.00106613
0.000503918
0.000257425
0.000147872
9.38546e-05
6.34349e-05
4.35333e-05
0.00187114
0.000916992
0.000390986
0.000185402
0.000101876
6.356e-05
4.38699e-05
3.26292e-05
0.00163976
0.000747649
0.000298676
0.000134653
6.98687e-05
4.08246e-05
2.64218e-05
1.89568e-05
0.00126034
0.000726179
0.000293337
0.000124587
5.9924e-05
3.30942e-05
2.09413e-05
1.51352e-05
0.00149621
0.000877046
0.000378158
0.000175438
9.418e-05
5.85402e-05
4.1053e-05
3.14443e-05
0.00193179
0.0011767
0.000564527
0.000295015
0.000178797
0.000124615
9.58624e-05
7.75577e-05
0.00234934
0.00147728
0.00076939
0.000424217
0.000250359
0.000152267
9.15414e-05
5.47758e-05
0.0019947
0.00122652
0.000595296
0.00031278
0.000187783
0.000127024
9.22307e-05
6.74675e-05
0.00157489
0.000932392
0.000409217
0.000192825
0.000104582
6.52341e-05
4.55066e-05
3.4088e-05
0.00130388
0.000759607
0.000313061
0.000135655
6.65064e-05
3.7262e-05
2.37197e-05
1.70607e-05
9.98233e-05
9.40528e-05
8.36969e-05
7.17174e-05
6.00274e-05
4.94675e-05
4.01928e-05
3.20905e-05
7.72365e-05
7.47697e-05
7.25351e-05
6.61802e-05
5.71136e-05
4.75069e-05
3.90196e-05
3.14689e-05
4.73411e-05
4.37765e-05
4.07204e-05
3.68239e-05
3.28865e-05
2.8641e-05
2.45639e-05
2.06332e-05
5.07524e-05
4.42432e-05
3.85055e-05
3.29253e-05
2.85187e-05
2.44392e-05
2.06383e-05
1.72127e-05
6.38376e-05
5.6528e-05
4.97385e-05
4.41989e-05
3.93742e-05
3.37379e-05
2.80161e-05
2.28397e-05
8.12476e-05
7.59062e-05
6.88965e-05
6.16327e-05
5.2235e-05
4.31102e-05
3.50657e-05
2.81384e-05
8.86646e-05
8.20245e-05
7.34063e-05
6.32932e-05
5.32132e-05
4.39239e-05
3.56558e-05
2.83696e-05
0.000155796
0.000124973
9.26649e-05
6.74483e-05
4.98418e-05
3.78272e-05
2.94749e-05
2.36445e-05
0.000158573
0.000132408
0.000102714
7.71515e-05
5.78281e-05
4.44321e-05
3.48841e-05
2.79906e-05
0.000139747
0.000112039
8.73655e-05
6.87456e-05
5.41624e-05
4.28688e-05
3.35533e-05
2.58117e-05
0.000124613
9.57673e-05
7.17339e-05
5.42893e-05
4.11043e-05
3.13797e-05
2.41867e-05
1.88743e-05
0.00011868
9.31926e-05
7.21098e-05
5.68624e-05
4.46757e-05
3.49636e-05
2.75227e-05
2.18782e-05
0.000133907
0.000110153
8.60233e-05
6.46832e-05
4.90814e-05
3.77444e-05
2.96177e-05
2.3718e-05
0.000140042
0.000115097
8.77722e-05
6.55008e-05
4.92204e-05
3.76176e-05
2.93098e-05
2.33986e-05
0.000358429
0.000257897
0.00015899
9.61731e-05
6.04393e-05
4.00909e-05
2.82196e-05
2.13171e-05
0.000347415
0.000255025
0.000169687
0.000109951
7.31459e-05
5.07756e-05
3.69243e-05
2.82481e-05
0.000302877
0.000210435
0.000159093
0.00011985
8.97801e-05
6.82577e-05
5.33514e-05
4.30405e-05
0.000256625
0.000165784
0.000114536
8.26251e-05
6.01491e-05
4.36432e-05
3.13828e-05
2.24623e-05
0.00028003
0.000192249
0.000144285
0.000104831
7.45189e-05
5.37645e-05
4.00527e-05
3.1121e-05
0.000316427
0.000229351
0.000152417
9.79372e-05
6.41798e-05
4.37769e-05
3.13223e-05
2.37904e-05
0.000319022
0.000233965
0.000149641
9.31907e-05
5.98421e-05
4.03164e-05
2.86981e-05
2.18941e-05
0.00157942
0.000710587
0.000280793
0.000125791
6.50365e-05
3.80095e-05
2.47564e-05
1.80401e-05
0.00165271
0.000762924
0.00030852
0.000141721
7.61195e-05
4.66522e-05
3.18372e-05
2.39664e-05
0.001679
0.000817022
0.000347852
0.000166804
9.55381e-05
6.37291e-05
4.75694e-05
3.86488e-05
0.00164672
0.000839638
0.000390011
0.000209311
0.000132977
9.54212e-05
7.31074e-05
5.72594e-05
0.00165072
0.000816184
0.000348841
0.000166102
9.31097e-05
6.00812e-05
4.31294e-05
3.37e-05
0.00158596
0.000740986
0.000299788
0.000136911
7.28155e-05
4.40774e-05
2.97208e-05
2.22238e-05
0.00151884
0.000694946
0.00027713
0.000125519
6.58812e-05
3.91732e-05
2.59865e-05
1.93157e-05
0.00124384
0.000725702
0.000296
0.000125643
5.98367e-05
3.24575e-05
2.01542e-05
1.44753e-05
0.00126608
0.000740406
0.000305445
0.000131726
6.4348e-05
3.61553e-05
2.33734e-05
1.74182e-05
0.0013233
0.000778801
0.000328439
0.000146898
7.6052e-05
4.62302e-05
3.26771e-05
2.64227e-05
0.00136745
0.000816415
0.000358019
0.000172368
0.000100037
7.04124e-05
5.82473e-05
5.46378e-05
0.00131074
0.000771487
0.000323528
0.000144108
7.45617e-05
4.55468e-05
3.24921e-05
2.65942e-05
0.00125805
0.000738686
0.000305159
0.000131745
6.44869e-05
3.63652e-05
2.36452e-05
1.77746e-05
0.00124526
0.000732659
0.000301793
0.00012919
6.21487e-05
3.41333e-05
2.15337e-05
1.58022e-05
9.15251e-05
8.57401e-05
7.75611e-05
6.77371e-05
5.7573e-05
4.79633e-05
3.93012e-05
3.16044e-05
7.91124e-05
7.18564e-05
6.52538e-05
5.85738e-05
5.0834e-05
4.27389e-05
3.51013e-05
2.83552e-05
6.67801e-05
5.88685e-05
5.24923e-05
4.65487e-05
4.06593e-05
3.49194e-05
2.94437e-05
2.43643e-05
5.92869e-05
5.11678e-05
4.43984e-05
3.85783e-05
3.32627e-05
2.84497e-05
2.39736e-05
2.02333e-05
6.35511e-05
5.74698e-05
5.20742e-05
4.69294e-05
4.15637e-05
3.62779e-05
3.1087e-05
2.60823e-05
8.23891e-05
7.6137e-05
7.04248e-05
6.47e-05
5.68669e-05
4.83229e-05
4.00327e-05
3.26008e-05
0.000107786
0.000100376
8.89247e-05
7.60212e-05
6.36619e-05
5.26344e-05
4.30319e-05
3.46698e-05
0.000140786
0.000117742
9.10078e-05
6.85091e-05
5.17599e-05
3.97516e-05
3.11714e-05
2.51528e-05
0.000133064
0.000107451
8.38273e-05
6.41157e-05
4.85132e-05
3.69105e-05
2.87662e-05
2.33575e-05
0.000142408
0.000109057
8.23832e-05
6.23445e-05
4.73678e-05
3.6081e-05
2.76602e-05
2.15501e-05
0.000180396
0.000138708
0.000105575
8.03109e-05
6.13632e-05
4.70877e-05
3.62621e-05
2.80256e-05
0.000184091
0.000140452
0.000105945
7.98407e-05
6.05076e-05
4.5957e-05
3.49402e-05
2.67012e-05
0.000166545
0.000130742
0.000100907
7.59796e-05
5.69159e-05
4.32737e-05
3.39474e-05
2.77311e-05
0.000165036
0.000130448
9.49266e-05
6.771e-05
4.92317e-05
3.69666e-05
2.86863e-05
2.30498e-05
0.000326994
0.00024551
0.000159054
9.98781e-05
6.4437e-05
4.34428e-05
3.08171e-05
2.33591e-05
0.000307746
0.000207772
0.000151083
0.000103859
7.1235e-05
5.03431e-05
3.7013e-05
2.84779e-05
0.000325808
0.000193909
0.000122851
8.28691e-05
5.82073e-05
4.18661e-05
3.06627e-05
2.30371e-05
0.000368332
0.000223247
0.000143579
9.83014e-05
7.00451e-05
5.11283e-05
3.7961e-05
2.87045e-05
0.000413857
0.000254155
0.000166311
0.000115499
8.2984e-05
6.05993e-05
4.47864e-05
3.37227e-05
0.000393319
0.000266491
0.00018551
0.00012299
8.25858e-05
5.78987e-05
4.27418e-05
3.31015e-05
0.000385805
0.000271811
0.00016405
9.70578e-05
5.98005e-05
3.90464e-05
2.71558e-05
2.02938e-05
0.00159492
0.000751792
0.000311062
0.000144969
7.76546e-05
4.66608e-05
3.07857e-05
2.22669e-05
0.00179617
0.000910936
0.000399892
0.000193468
0.000108328
6.86803e-05
4.74202e-05
3.4555e-05
0.00182038
0.000960331
0.000454246
0.00023051
0.00013068
8.14451e-05
5.42054e-05
3.77655e-05
0.00174996
0.000892981
0.000409481
0.000200326
0.000108926
6.56412e-05
4.32147e-05
3.06922e-05
0.00212678
0.00114924
0.000555893
0.000287721
0.00016743
0.000108915
7.70176e-05
5.76971e-05
0.0019909
0.000968889
0.000408427
0.000191146
0.000104434
6.52592e-05
4.49758e-05
3.31002e-05
0.00167399
0.000752299
0.000295979
0.000131338
6.73431e-05
3.91137e-05
2.5273e-05
1.81155e-05
0.00139148
0.000817829
0.000343219
0.00015182
7.61279e-05
4.35056e-05
2.79736e-05
2.00664e-05
0.00170027
0.00101531
0.000452996
0.000216262
0.000118026
7.32634e-05
4.99733e-05
3.61768e-05