/*--------------------------------*- C++ -*----------------------------------*\
| =========                 |                                                 |
| \\      /  F ield         | OpenFOAM: The Open Source CFD Toolbox           |
|  \\    /   O peration     | Version:  plus.master.MPPICInterFoam            |
|   \\  /    A nd           | Web:      www.OpenFOAM.com                      |
|    \\/     M anipulation  |                                                 |
\*---------------------------------------------------------------------------*/
FoamFile
{
    version     2.0;
    format      ascii;
    class       volScalarField;
    location    "10.8";
    object      nut;
}
// * * * * * * * * * * * * * * * * * * * * * * * * * * * * * * * * * * * * * //

dimensions      [0 2 -1 0 0 0 0];

internalField   nonuniform List<scalar> 
11821
(
3.54603e-05
6.40113e-05
0.000116762
0.000124174
7.6532e-05
3.91148e-05
2.33253e-05
5.72012e-05
5.38357e-05
0.00015146
0.000169568
9.65046e-05
3.67786e-05
4.34451e-05
9.46116e-05
0.000115899
0.000138742
0.000119037
0.000102269
0.000117635
9.06432e-05
0.000139648
0.000193118
0.000144091
0.000139651
0.000128419
0.000152104
0.000120794
0.000107381
0.000136321
0.000134006
0.000140224
0.000120281
0.000137332
0.000103386
6.10467e-05
5.43754e-05
0.000147765
0.000182101
9.22135e-05
5.30061e-05
5.49368e-05
3.73538e-05
6.55679e-05
0.000117722
0.000132019
7.95815e-05
4.90505e-05
2.92797e-05
1.98508e-05
4.26646e-05
7.12441e-05
6.00505e-05
3.2688e-05
1.81013e-05
3.35316e-05
3.81416e-05
9.69814e-05
0.000162236
0.000157229
9.51077e-05
4.20283e-05
1.81354e-05
7.34493e-05
0.000158182
0.000143168
0.000196394
0.000108483
9.03421e-05
2.99654e-05
9.55247e-05
0.000205682
0.000221613
0.000250555
0.000266282
0.000108289
3.93319e-05
8.64416e-05
0.000180762
0.000166503
0.000176715
0.000124828
0.000113625
4.21057e-05
4.62961e-05
0.000108808
0.000181421
0.000205122
0.000115791
6.17743e-05
2.29434e-05
2.33537e-05
4.98878e-05
8.68366e-05
8.03002e-05
4.80765e-05
2.22126e-05
2.05521e-05
3.83666e-05
6.02363e-05
8.64501e-05
7.63909e-05
4.30775e-05
3.31711e-05
6.57029e-05
6.12767e-05
0.00012274
0.000170671
0.000165747
0.000104306
4.45396e-05
3.45137e-05
0.000102283
0.000187337
0.000198012
0.00022587
0.000162644
8.05384e-05
2.96373e-05
0.000126735
0.000232523
0.000237694
0.000274403
0.000292363
0.000102388
3.48344e-05
0.000116829
0.000206522
0.000210642
0.00018279
0.000188488
0.000103155
3.91456e-05
7.58037e-05
0.000144835
0.000199224
0.000217423
0.000137301
6.68765e-05
3.11478e-05
4.46459e-05
7.6951e-05
0.000111342
0.000105539
6.5873e-05
3.39816e-05
4.65435e-05
6.94465e-05
7.19986e-05
9.44611e-05
8.51101e-05
5.4043e-05
6.40301e-05
0.000108593
7.70797e-05
0.000134694
0.000181906
0.000176513
0.00011033
5.30947e-05
6.95131e-05
0.000119327
0.00020978
0.000254459
0.000243241
0.000184434
8.10644e-05
4.35402e-05
0.000149034
0.000259116
0.000265995
0.000261443
0.000269854
0.000102739
3.88701e-05
0.000136327
0.000231106
0.000269006
0.000231671
0.000213708
9.93895e-05
4.52856e-05
9.48415e-05
0.000164279
0.000218855
0.000223706
0.000146814
7.00744e-05
5.63943e-05
7.11882e-05
9.36534e-05
0.000126375
0.000119485
7.60082e-05
5.51757e-05
9.07801e-05
8.49532e-05
7.49609e-05
9.10543e-05
8.25096e-05
5.84573e-05
8.03807e-05
0.000119787
8.07926e-05
0.000131359
0.000176427
0.000169275
0.000105762
5.7584e-05
8.66223e-05
0.000120454
0.000211553
0.000269527
0.000241312
0.000178131
7.81717e-05
5.36741e-05
0.000152508
0.000267101
0.00028233
0.000239829
0.000239233
9.958e-05
4.2867e-05
0.000139163
0.00023755
0.000287091
0.000250204
0.00020845
9.30782e-05
5.08628e-05
9.81443e-05
0.000165835
0.000222248
0.000219643
0.000141554
6.87143e-05
7.17451e-05
8.31376e-05
9.61013e-05
0.000126939
0.000118538
7.67019e-05
6.77299e-05
0.000106819
1.87164e-05
1.83113e-05
1.82033e-05
1.78668e-05
1.76188e-05
1.7393e-05
1.71907e-05
1.70225e-05
2.55898e-05
1.99003e-05
1.82708e-05
1.76655e-05
1.73024e-05
1.70026e-05
1.67443e-05
1.65311e-05
4.83356e-05
2.63912e-05
1.95234e-05
1.78692e-05
1.73412e-05
1.69843e-05
1.6663e-05
1.63762e-05
6.66387e-05
3.5185e-05
2.1429e-05
1.80093e-05
1.72331e-05
1.68361e-05
1.66223e-05
1.64671e-05
5.56793e-05
2.97453e-05
2.02596e-05
1.81129e-05
1.75486e-05
1.72112e-05
1.69397e-05
1.67021e-05
3.32587e-05
2.25574e-05
1.92911e-05
1.82499e-05
1.77855e-05
1.74955e-05
1.72863e-05
1.71119e-05
2.17187e-05
1.92055e-05
1.86542e-05
1.8273e-05
1.80323e-05
1.78544e-05
1.77087e-05
1.7553e-05
6.0899e-05
6.69757e-05
6.74041e-05
6.69375e-05
6.62494e-05
6.54242e-05
6.44037e-05
6.31034e-05
3.69192e-05
5.90417e-05
6.52641e-05
6.64459e-05
6.62639e-05
6.56633e-05
6.48132e-05
6.36482e-05
1.75979e-05
4.12759e-05
5.90513e-05
6.43348e-05
6.535e-05
6.5165e-05
6.45265e-05
6.35005e-05
1.34819e-05
3.06984e-05
5.44548e-05
6.29468e-05
6.48957e-05
6.49543e-05
6.4368e-05
6.33082e-05
1.56301e-05
3.28405e-05
5.51353e-05
6.30411e-05
6.48821e-05
6.49361e-05
6.43363e-05
6.32555e-05
2.07123e-05
4.48474e-05
5.9503e-05
6.39515e-05
6.48569e-05
6.46348e-05
6.39136e-05
6.27683e-05
3.90903e-05
5.71387e-05
6.27661e-05
6.41949e-05
6.4169e-05
6.3585e-05
6.26553e-05
6.13821e-05
9.41336e-05
0.000100737
0.000100263
9.70713e-05
9.23991e-05
8.68406e-05
8.08761e-05
7.5018e-05
7.11568e-05
9.34253e-05
9.86903e-05
9.74355e-05
9.33883e-05
8.79315e-05
8.18113e-05
7.56839e-05
4.15485e-05
7.80349e-05
9.36441e-05
9.60295e-05
9.32102e-05
8.81345e-05
8.20364e-05
7.57706e-05
2.71359e-05
6.56435e-05
8.91667e-05
9.45418e-05
9.27017e-05
8.79319e-05
8.18932e-05
7.55982e-05
3.25935e-05
6.83269e-05
8.93156e-05
9.38802e-05
9.17857e-05
8.69471e-05
8.0933e-05
7.47126e-05
5.08207e-05
8.13303e-05
9.25214e-05
9.34487e-05
9.01391e-05
8.49352e-05
7.89346e-05
7.29117e-05
7.74366e-05
9.18842e-05
9.43631e-05
9.21978e-05
8.78274e-05
8.23335e-05
7.63974e-05
7.05999e-05
0.000129549
0.000131484
0.000126765
0.000119754
0.000112416
0.000105718
9.98187e-05
9.39009e-05
0.000113601
0.000128632
0.000127991
0.000121808
0.000114148
0.000106853
0.000100495
9.43248e-05
8.40668e-05
0.00011854
0.000126068
0.000122324
0.000115097
0.000107596
0.000100951
9.45789e-05
6.27394e-05
0.000108839
0.000123356
0.000121851
0.000115206
0.000107733
0.000100963
9.44565e-05
7.18252e-05
0.000111624
0.000123178
0.000120864
0.000114119
0.000106758
0.000100094
9.36176e-05
9.84064e-05
0.000121376
0.000124129
0.000119178
0.000111968
0.000104803
9.83871e-05
9.20305e-05
0.000120373
0.000126585
0.000123316
0.000116851
0.000109707
0.000103022
9.69975e-05
9.08427e-05
0.000129986
0.000124094
0.000113039
0.000100808
8.88028e-05
7.71745e-05
6.55806e-05
5.43162e-05
0.000122474
0.000126624
0.000117624
0.000104932
9.19483e-05
7.94497e-05
6.71256e-05
5.51564e-05
9.98336e-05
0.000122304
0.000119206
0.000107529
9.41741e-05
8.10663e-05
6.81431e-05
5.56082e-05
7.99335e-05
0.000115953
0.000118404
0.000108082
9.48314e-05
8.15318e-05
6.83839e-05
5.56466e-05
8.92744e-05
0.000117677
0.000117387
0.00010661
9.35452e-05
8.05442e-05
6.76948e-05
5.52417e-05
0.000111898
0.000122173
0.000115428
0.00010355
9.08848e-05
7.85335e-05
6.63291e-05
5.44875e-05
0.00012472
0.000121725
0.000111801
0.000100099
8.83416e-05
7.68016e-05
6.5225e-05
5.39473e-05
2.31495e-05
1.96107e-05
1.90849e-05
1.8832e-05
1.86402e-05
1.84702e-05
1.83387e-05
1.82126e-05
3.53208e-05
2.24533e-05
1.91599e-05
1.81559e-05
1.76979e-05
1.73681e-05
1.71735e-05
1.69666e-05
6.21031e-05
3.52318e-05
2.23331e-05
1.83351e-05
1.72215e-05
1.66667e-05
1.63436e-05
1.597e-05
7.53148e-05
4.18891e-05
2.41814e-05
1.83555e-05
1.6836e-05
1.62383e-05
1.57617e-05
1.5316e-05
5.32461e-05
3.04257e-05
2.07806e-05
1.80655e-05
1.73133e-05
1.68531e-05
1.6441e-05
1.60723e-05
3.13058e-05
2.10938e-05
1.88434e-05
1.79884e-05
1.75904e-05
1.7267e-05
1.70299e-05
1.68533e-05
2.23559e-05
1.91605e-05
1.85797e-05
1.82167e-05
1.80302e-05
1.80692e-05
1.80678e-05
1.79008e-05
3.65158e-05
5.6142e-05
6.13351e-05
6.25779e-05
6.24793e-05
6.1794e-05
6.07182e-05
5.92639e-05
2.29235e-05
3.61023e-05
5.25354e-05
5.92195e-05
6.11899e-05
6.14162e-05
6.09894e-05
6.02218e-05
3.29773e-05
2.16468e-05
3.8251e-05
5.21541e-05
5.71814e-05
5.81398e-05
5.75816e-05
5.64028e-05
3.56033e-05
1.8631e-05
3.45081e-05
5.01743e-05
5.56483e-05
5.6387e-05
5.53979e-05
5.38102e-05
2.52221e-05
2.33189e-05
4.39211e-05
5.59229e-05
5.96168e-05
6.00441e-05
5.92948e-05
5.81208e-05
2.05622e-05
3.90884e-05
5.47511e-05
6.03663e-05
6.18195e-05
6.17979e-05
6.12135e-05
6.03071e-05
3.50563e-05
5.32274e-05
5.9893e-05
6.22095e-05
6.26868e-05
6.23341e-05
6.15214e-05
6.03306e-05
5.74381e-05
8.40331e-05
9.26171e-05
9.3253e-05
9.00758e-05
8.47232e-05
7.82173e-05
7.14521e-05
4.17765e-05
5.6895e-05
8.0772e-05
9.05939e-05
9.18941e-05
8.90626e-05
8.40658e-05
7.81133e-05
5.20478e-05
3.60619e-05
6.03357e-05
8.15289e-05
8.88368e-05
8.8951e-05
8.56054e-05
8.05533e-05
5.46585e-05
3.00525e-05
5.25623e-05
7.72501e-05
8.61852e-05
8.6727e-05
8.33889e-05
7.82186e-05
4.33162e-05
3.95093e-05
6.8235e-05
8.57772e-05
9.05033e-05
8.92146e-05
8.49838e-05
7.93104e-05
3.89882e-05
6.34926e-05
8.50019e-05
9.18298e-05
9.14502e-05
8.76075e-05
8.19629e-05
7.56125e-05
6.06572e-05
8.55513e-05
9.28083e-05
9.31335e-05
8.99147e-05
8.46788e-05
7.84197e-05
7.19841e-05
9.77648e-05
0.0001226
0.00012674
0.00012296
0.000116308
0.000109125
0.000102286
9.532e-05
6.91138e-05
9.71176e-05
0.000119967
0.000125372
0.000122599
0.000117191
0.000111549
0.000105785
6.91566e-05
6.61806e-05
0.000100907
0.000120249
0.000123923
0.00012141
0.000117585
0.000113735
6.99309e-05
5.34081e-05
8.97114e-05
0.000115172
0.000121257
0.000119107
0.000114813
0.00011025
6.20368e-05
7.31272e-05
0.000107915
0.000122754
0.000124055
0.000120407
0.000115902
0.000111494
7.10668e-05
0.000105854
0.000123324
0.000125368
0.000121192
0.000115274
0.000109508
0.000103794
0.000105621
0.000125112
0.000126443
0.000121766
0.000115017
0.000108081
0.00010162
9.50708e-05
0.000112188
0.000124489
0.000118172
0.000106535
9.36496e-05
8.07006e-05
6.77111e-05
5.50694e-05
8.29149e-05
0.000111236
0.000121265
0.000114881
0.000103024
8.96738e-05
7.55024e-05
6.10338e-05
7.56756e-05
8.4035e-05
0.000113613
0.000118532
0.000110329
9.82293e-05
8.42802e-05
6.91526e-05
7.3999e-05
6.89825e-05
0.000105679
0.000117397
0.000111239
9.99859e-05
8.70275e-05
7.30432e-05
7.02657e-05
9.0596e-05
0.00011715
0.000118795
0.000109593
9.73819e-05
8.37611e-05
6.91904e-05
8.74249e-05
0.000117298
0.000122079
0.000113955
0.000101994
8.91107e-05
7.55666e-05
6.17081e-05
0.000118211
0.000124625
0.000116657
0.000105001
9.26317e-05
8.03129e-05
6.78624e-05
5.56053e-05
2.47659e-05
1.97415e-05
1.8435e-05
1.81658e-05
1.80582e-05
1.79115e-05
1.7722e-05
1.76045e-05
4.05188e-05
2.48295e-05
1.87436e-05
1.71897e-05
1.68359e-05
1.66552e-05
1.65017e-05
1.63624e-05
6.48579e-05
3.45862e-05
2.09183e-05
1.70769e-05
1.5935e-05
1.53203e-05
1.48129e-05
1.43207e-05
6.57709e-05
3.4454e-05
2.08438e-05
1.72964e-05
1.62443e-05
1.56224e-05
1.50838e-05
1.46326e-05
4.06716e-05
2.33981e-05
1.86552e-05
1.7413e-05
1.6869e-05
1.64283e-05
1.60973e-05
1.57626e-05
2.2664e-05
1.85859e-05
1.82407e-05
1.77061e-05
1.73114e-05
1.69333e-05
1.67183e-05
1.65793e-05
1.83603e-05
1.8028e-05
1.81111e-05
1.78804e-05
1.76844e-05
1.75306e-05
1.73736e-05
1.7191e-05
2.67314e-05
4.90963e-05
5.90911e-05
6.27027e-05
6.37966e-05
6.37892e-05
6.31406e-05
6.19341e-05
1.90125e-05
3.01069e-05
4.92604e-05
5.81339e-05
6.1085e-05
6.18634e-05
6.19003e-05
6.14682e-05
2.31803e-05
2.11083e-05
4.14614e-05
5.30261e-05
5.61103e-05
5.61232e-05
5.5229e-05
5.40358e-05
1.79511e-05
2.20216e-05
4.46386e-05
5.49476e-05
5.68988e-05
5.60031e-05
5.42591e-05
5.21956e-05
1.75447e-05
3.9336e-05
5.58763e-05
6.04922e-05
6.06993e-05
5.95654e-05
5.80395e-05
5.62981e-05
3.83986e-05
5.92221e-05
6.38103e-05
6.41921e-05
6.35074e-05
6.25537e-05
6.14949e-05
6.01871e-05
6.23777e-05
6.68805e-05
6.6713e-05
6.59794e-05
6.51599e-05
6.42928e-05
6.32998e-05
6.20723e-05
5.54346e-05
8.28555e-05
9.21056e-05
9.32407e-05
9.04982e-05
8.56546e-05
7.97432e-05
7.35918e-05
3.49372e-05
5.74857e-05
8.16574e-05
9.04703e-05
9.11366e-05
8.80343e-05
8.30397e-05
7.7305e-05
3.38105e-05
3.81662e-05
6.85865e-05
8.3832e-05
8.70229e-05
8.50572e-05
8.0808e-05
7.56916e-05
2.74241e-05
3.68538e-05
6.89177e-05
8.28714e-05
8.47091e-05
8.15746e-05
7.63069e-05
7.02707e-05
3.19396e-05
6.44016e-05
8.5279e-05
9.04845e-05
8.90148e-05
8.46799e-05
7.90456e-05
7.30668e-05
6.76886e-05
9.16937e-05
9.68407e-05
9.58224e-05
9.20565e-05
8.67535e-05
8.05962e-05
7.4245e-05
9.46003e-05
0.000100757
0.000100043
9.68197e-05
9.21327e-05
8.65347e-05
8.05023e-05
7.45586e-05
0.000103716
0.000123346
0.000125086
0.000120581
0.000114008
0.000107259
0.000100952
9.44989e-05
6.84273e-05
0.000103196
0.000119875
0.000121244
0.000116648
0.00011052
0.000104536
9.84343e-05
5.15431e-05
7.7678e-05
0.000108823
0.000117416
0.000115374
0.00011034
0.000105327
0.000100413
4.35241e-05
7.29907e-05
0.000106519
0.000115484
0.000113258
0.00010807
0.000103225
9.89139e-05
6.25312e-05
0.000103104
0.000119615
0.000120245
0.000115117
0.00010896
0.000103562
9.86031e-05
0.000107729
0.000126555
0.000127486
0.000122358
0.000115382
0.000108524
0.000102475
9.65673e-05
0.000129726
0.000131798
0.000127078
0.000120152
0.000112892
0.000106241
0.000100366
9.44591e-05
0.000115916
0.000122362
0.000114889
0.000103439
9.11771e-05
7.89357e-05
6.66274e-05
5.4632e-05
8.6022e-05
0.00011367
0.000116623
0.000107693
9.54529e-05
8.25907e-05
6.94501e-05
5.64775e-05
6.3047e-05
9.5651e-05
0.000113056
0.00010891
9.78474e-05
8.52623e-05
7.20003e-05
5.85306e-05
5.46577e-05
9.10398e-05
0.000111843
0.000108684
9.78865e-05
8.56019e-05
7.26848e-05
5.94409e-05
7.95032e-05
0.000112999
0.00011776
0.000109156
9.69383e-05
8.4249e-05
7.11674e-05
5.79624e-05
0.000118271
0.000126107
0.00011856
0.000106572
9.38218e-05
8.12219e-05
6.85326e-05
5.60207e-05
0.000130005
0.000124198
0.000113157
0.000101006
8.90662e-05
7.74673e-05
6.58513e-05
5.4495e-05
2.02222e-05
1.86807e-05
1.83706e-05
1.8078e-05
1.78583e-05
1.76646e-05
1.75097e-05
1.73777e-05
2.62583e-05
1.97149e-05
1.87929e-05
1.81434e-05
1.77092e-05
1.73137e-05
1.69383e-05
1.66355e-05
4.33735e-05
2.53231e-05
1.97876e-05
1.81916e-05
1.75274e-05
1.70013e-05
1.65553e-05
1.60942e-05
6.89987e-05
3.77625e-05
2.30117e-05
1.86326e-05
1.73029e-05
1.66062e-05
1.6045e-05
1.55606e-05
6.83867e-05
3.80203e-05
2.32951e-05
1.86102e-05
1.72302e-05
1.6607e-05
1.61326e-05
1.57222e-05
4.21727e-05
2.68403e-05
2.03221e-05
1.8389e-05
1.77428e-05
1.74129e-05
1.7177e-05
1.69089e-05
2.52358e-05
2.06484e-05
1.93852e-05
1.88309e-05
1.85993e-05
1.84328e-05
1.83039e-05
1.81837e-05
4.81959e-05
5.98852e-05
6.29113e-05
6.34507e-05
6.30394e-05
6.22692e-05
6.1302e-05
6.01216e-05
2.62422e-05
5.08058e-05
6.00931e-05
6.22371e-05
6.20682e-05
6.11861e-05
6.00667e-05
5.87936e-05
1.77468e-05
3.14401e-05
5.15533e-05
5.90875e-05
6.04844e-05
5.97125e-05
5.81938e-05
5.63789e-05
2.6123e-05
1.95292e-05
4.05071e-05
5.40176e-05
5.78613e-05
5.76584e-05
5.60021e-05
5.38285e-05
3.24326e-05
2.14942e-05
3.84688e-05
5.21824e-05
5.69589e-05
5.75706e-05
5.66345e-05
5.51631e-05
2.35808e-05
3.00051e-05
4.79934e-05
5.76296e-05
6.09237e-05
6.15126e-05
6.10845e-05
6.0231e-05
3.16989e-05
5.56249e-05
6.19853e-05
6.33035e-05
6.32522e-05
6.25878e-05
6.14878e-05
5.99644e-05
8.18135e-05
9.41289e-05
9.53596e-05
9.3025e-05
8.87119e-05
8.32394e-05
7.72185e-05
7.1241e-05
4.93419e-05
8.13591e-05
9.20974e-05
9.34831e-05
9.0932e-05
8.63294e-05
8.05739e-05
7.44082e-05
3.08204e-05
5.00299e-05
7.80618e-05
8.90497e-05
9.05554e-05
8.77911e-05
8.28181e-05
7.67121e-05
4.13899e-05
2.99492e-05
5.90028e-05
8.05671e-05
8.71583e-05
8.65219e-05
8.25253e-05
7.69199e-05
4.85701e-05
3.43442e-05
5.96185e-05
8.10318e-05
8.84076e-05
8.84915e-05
8.50773e-05
7.99468e-05
4.11571e-05
5.31542e-05
7.83674e-05
9.00262e-05
9.22481e-05
8.98396e-05
8.5046e-05
7.91825e-05
5.63685e-05
8.46537e-05
9.32404e-05
9.38524e-05
9.07333e-05
8.54303e-05
7.89268e-05
7.211e-05
0.000122167
0.000129014
0.000125988
0.000119905
0.000113041
0.000106547
0.000100716
9.48205e-05
9.03496e-05
0.000120721
0.000127493
0.000125335
0.00011999
0.00011411
0.000108827
0.000103708
5.29601e-05
8.76249e-05
0.000116009
0.000124083
0.000122616
0.000117978
0.000113156
0.000108636
5.48975e-05
5.65749e-05
9.61628e-05
0.000116816
0.000120455
0.000117373
0.000112757
0.000108067
6.38145e-05
6.52464e-05
0.000100792
0.000119462
0.000122779
0.000120131
0.000116273
0.000112425
6.77013e-05
9.51978e-05
0.00011878
0.000124822
0.00012233
0.00011703
0.000111435
0.000105693
9.70424e-05
0.000122269
0.000126681
0.000122989
0.000116363
0.000109181
0.000102339
9.53793e-05
0.000126936
0.000124353
0.000114439
0.000102928
9.13544e-05
7.98866e-05
6.81688e-05
5.64724e-05
0.000106859
0.000125783
0.000122758
0.000112726
0.000100959
8.8862e-05
7.61512e-05
6.29774e-05
6.69041e-05
0.000104168
0.000121272
0.000118119
0.000107941
9.60642e-05
8.31795e-05
6.94187e-05
6.10232e-05
7.55329e-05
0.000110465
0.000117471
0.000110051
9.88013e-05
8.61942e-05
7.26516e-05
7.09462e-05
8.51019e-05
0.000113983
0.000117882
0.000109552
9.76515e-05
8.39807e-05
6.91101e-05
8.19711e-05
0.000110377
0.000120743
0.000114647
0.000102969
8.97326e-05
7.5622e-05
6.1193e-05
0.000111495
0.000124108
0.000118093
0.000106548
9.3704e-05
8.07814e-05
6.78114e-05
5.51844e-05
1.68615e-05
1.63561e-05
1.61544e-05
1.63048e-05
1.65269e-05
1.69544e-05
1.73934e-05
6.1468e-05
6.21084e-05
6.20354e-05
6.18285e-05
6.17075e-05
6.12089e-05
5.9746e-05
6.97896e-05
7.02941e-05
7.02665e-05
7.00665e-05
6.92311e-05
6.7606e-05
6.54626e-05
8.62858e-05
8.62924e-05
8.62134e-05
8.59207e-05
8.51391e-05
8.37855e-05
8.29656e-05
4.41538e-05
4.41359e-05
4.40574e-05
4.39706e-05
4.38582e-05
4.37298e-05
4.39176e-05
1.80928e-05
1.67294e-05
1.5517e-05
1.49561e-05
1.57434e-05
1.66893e-05
1.76875e-05
5.74383e-05
5.92529e-05
5.50847e-05
5.20712e-05
5.67414e-05
5.91262e-05
5.87925e-05
6.52351e-05
7.23929e-05
7.53084e-05
7.28761e-05
7.36338e-05
6.96697e-05
6.61323e-05
8.66438e-05
9.79656e-05
0.000108122
0.000103901
0.00010538
9.61414e-05
8.68183e-05
4.41892e-05
4.77674e-05
5.36062e-05
5.77173e-05
5.40894e-05
4.86583e-05
4.47779e-05
1.7551e-05
1.6166e-05
1.39101e-05
1.4258e-05
1.53835e-05
1.64289e-05
1.70012e-05
6.02091e-05
6.06812e-05
5.27263e-05
5.00288e-05
5.4477e-05
5.8643e-05
6.05472e-05
6.79276e-05
7.19102e-05
7.09879e-05
6.4756e-05
6.77866e-05
6.85252e-05
6.92497e-05
8.63195e-05
9.03037e-05
9.32935e-05
9.26841e-05
9.15763e-05
8.87109e-05
8.68244e-05
4.40914e-05
4.47301e-05
4.57361e-05
4.63291e-05
4.53592e-05
4.45035e-05
4.42119e-05
1.72002e-05
1.64226e-05
1.56649e-05
1.51098e-05
1.53547e-05
1.66389e-05
1.80738e-05
5.86937e-05
5.7362e-05
5.4499e-05
5.16066e-05
5.36106e-05
5.91766e-05
5.80187e-05
6.58808e-05
6.87504e-05
7.07132e-05
7.1233e-05
7.46163e-05
7.34925e-05
6.57941e-05
8.71676e-05
9.66414e-05
0.000102413
0.000101607
0.000106811
9.78701e-05
8.67271e-05
4.5798e-05
5.00723e-05
5.48073e-05
5.76749e-05
5.37073e-05
4.79106e-05
4.42846e-05
1.66957e-05
1.62269e-05
1.55514e-05
1.48097e-05
1.3992e-05
1.31329e-05
1.22517e-05
1.13465e-05
1.61845e-05
1.5826e-05
1.52692e-05
1.45363e-05
1.37551e-05
1.29249e-05
1.20653e-05
1.11753e-05
1.5968e-05
1.56388e-05
1.51388e-05
1.44268e-05
1.36617e-05
1.28464e-05
1.19978e-05
1.11144e-05
1.61688e-05
1.57975e-05
1.52707e-05
1.46182e-05
1.38188e-05
1.2914e-05
1.20268e-05
1.1137e-05
1.63844e-05
1.60418e-05
1.54712e-05
1.47175e-05
1.39231e-05
1.30815e-05
1.22118e-05
1.13121e-05
1.68258e-05
1.64678e-05
1.58648e-05
1.50712e-05
1.4245e-05
1.33861e-05
1.24993e-05
1.15842e-05
1.72225e-05
1.67643e-05
1.61284e-05
1.5376e-05
1.45464e-05
1.36803e-05
1.27889e-05
1.18718e-05
5.92044e-05
5.57889e-05
5.28267e-05
4.9616e-05
4.54999e-05
4.03392e-05
3.4349e-05
2.79271e-05
5.99839e-05
5.64698e-05
5.307e-05
4.95278e-05
4.51494e-05
3.98427e-05
3.3824e-05
2.74834e-05
6.0001e-05
5.65396e-05
5.30206e-05
4.93798e-05
4.49413e-05
3.9619e-05
3.36194e-05
2.73212e-05
5.98323e-05
5.65274e-05
5.32115e-05
4.95464e-05
4.49794e-05
3.95931e-05
3.35735e-05
2.72757e-05
5.9624e-05
5.63492e-05
5.32615e-05
4.99112e-05
4.55877e-05
4.02511e-05
3.41535e-05
2.77084e-05
5.91297e-05
5.61795e-05
5.3535e-05
5.05177e-05
4.63878e-05
4.11037e-05
3.49412e-05
2.83398e-05
5.75842e-05
5.48654e-05
5.26748e-05
5.00666e-05
4.63417e-05
4.13912e-05
3.54467e-05
2.89092e-05
6.46897e-05
5.94954e-05
5.8066e-05
5.603e-05
5.20238e-05
4.60511e-05
3.86849e-05
3.07433e-05
6.52791e-05
6.00339e-05
5.83554e-05
5.60149e-05
5.16833e-05
4.54394e-05
3.79187e-05
2.99758e-05
6.53121e-05
6.01231e-05
5.84058e-05
5.59687e-05
5.15328e-05
4.52151e-05
3.76672e-05
2.97404e-05
6.51544e-05
6.00643e-05
5.84675e-05
5.60725e-05
5.16275e-05
4.52707e-05
3.76807e-05
2.97257e-05
6.43816e-05
5.97326e-05
5.85164e-05
5.64136e-05
5.21986e-05
4.59725e-05
3.83918e-05
3.03352e-05
6.28669e-05
5.89667e-05
5.82199e-05
5.65473e-05
5.27314e-05
4.67987e-05
3.93501e-05
3.12503e-05
6.06897e-05
5.71913e-05
5.6625e-05
5.53014e-05
5.2034e-05
4.67563e-05
3.9916e-05
3.22062e-05
7.65471e-05
6.50939e-05
5.89954e-05
5.66438e-05
5.36568e-05
4.85505e-05
4.15362e-05
3.35337e-05
7.65308e-05
6.52159e-05
5.91787e-05
5.67527e-05
5.35667e-05
4.81994e-05
4.09555e-05
3.28405e-05
7.64134e-05
6.52e-05
5.92313e-05
5.67846e-05
5.3524e-05
4.80775e-05
4.07842e-05
3.26602e-05
7.61221e-05
6.50543e-05
5.92459e-05
5.68864e-05
5.36527e-05
4.81983e-05
4.08785e-05
3.27247e-05
7.54288e-05
6.46074e-05
5.91127e-05
5.70411e-05
5.40733e-05
4.88359e-05
4.16323e-05
3.34658e-05
7.42015e-05
6.3652e-05
5.84899e-05
5.67646e-05
5.4211e-05
4.94028e-05
4.25272e-05
3.44988e-05
7.33321e-05
6.2481e-05
5.69716e-05
5.50753e-05
5.27544e-05
4.85927e-05
4.25974e-05
3.53701e-05
5.07621e-05
5.48511e-05
5.44354e-05
5.43322e-05
5.28791e-05
4.90746e-05
4.30793e-05
3.58088e-05
5.08408e-05
5.5035e-05
5.46561e-05
5.45017e-05
5.29291e-05
4.89582e-05
4.27995e-05
3.54239e-05
5.07471e-05
5.50174e-05
5.46756e-05
5.45088e-05
5.29006e-05
4.88901e-05
4.27076e-05
3.53312e-05
5.06218e-05
5.49759e-05
5.47107e-05
5.45985e-05
5.30273e-05
4.90338e-05
4.28506e-05
3.54623e-05
5.02607e-05
5.46531e-05
5.45193e-05
5.45916e-05
5.32389e-05
4.94611e-05
4.34399e-05
3.61195e-05
4.95177e-05
5.38199e-05
5.3788e-05
5.40821e-05
5.30538e-05
4.96651e-05
4.40121e-05
3.69424e-05
4.8696e-05
5.24664e-05
5.20345e-05
5.21021e-05
5.11293e-05
4.81828e-05
4.33189e-05
3.71546e-05
1.79543e-05
1.75432e-05
1.68727e-05
1.60389e-05
1.51389e-05
1.42138e-05
1.32868e-05
1.2357e-05
1.65092e-05
1.61169e-05
1.57879e-05
1.53197e-05
1.46747e-05
1.39143e-05
1.30594e-05
1.21574e-05
1.51793e-05
1.46456e-05
1.417e-05
1.36672e-05
1.31226e-05
1.25402e-05
1.19381e-05
1.1257e-05
1.46453e-05
1.40412e-05
1.34531e-05
1.28331e-05
1.22109e-05
1.15941e-05
1.10062e-05
1.03952e-05
1.53889e-05
1.48022e-05
1.42956e-05
1.37265e-05
1.31294e-05
1.25215e-05
1.1892e-05
1.11878e-05
1.64908e-05
1.6099e-05
1.57412e-05
1.51686e-05
1.4454e-05
1.36577e-05
1.27849e-05
1.18457e-05
1.75157e-05
1.71189e-05
1.65011e-05
1.5713e-05
1.48426e-05
1.39359e-05
1.30068e-05
1.20714e-05
5.50527e-05
5.25822e-05
5.12202e-05
4.98365e-05
4.74851e-05
4.38378e-05
3.89368e-05
3.29998e-05
5.77705e-05
5.57641e-05
5.29758e-05
4.98108e-05
4.61486e-05
4.17487e-05
3.66348e-05
3.09447e-05
5.32021e-05
5.07045e-05
4.78315e-05
4.46246e-05
4.09961e-05
3.69364e-05
3.23555e-05
2.73678e-05
4.97143e-05
4.64281e-05
4.29694e-05
3.94296e-05
3.58398e-05
3.20874e-05
2.80603e-05
2.40153e-05
5.4781e-05
5.2032e-05
4.88597e-05
4.53895e-05
4.14512e-05
3.69448e-05
3.18571e-05
2.63602e-05
5.74037e-05
5.49042e-05
5.17814e-05
4.8506e-05
4.4677e-05
4.00313e-05
3.45662e-05
2.85787e-05
5.66239e-05
5.37981e-05
5.17884e-05
4.97111e-05
4.67076e-05
4.25022e-05
3.71866e-05
3.10313e-05
5.93224e-05
5.51244e-05
5.45717e-05
5.39237e-05
5.18364e-05
4.80062e-05
4.26347e-05
3.61143e-05
6.6689e-05
6.12713e-05
5.84577e-05
5.61782e-05
5.27505e-05
4.808e-05
4.25058e-05
3.63445e-05
6.97511e-05
6.48171e-05
6.14751e-05
5.78242e-05
5.31886e-05
4.76252e-05
4.13775e-05
3.47109e-05
6.71309e-05
6.12736e-05
5.6525e-05
5.15467e-05
4.61056e-05
4.04235e-05
3.47291e-05
2.9187e-05
6.78107e-05
6.24701e-05
5.87739e-05
5.47529e-05
4.96649e-05
4.36703e-05
3.70243e-05
3.0101e-05
6.39457e-05
5.85187e-05
5.57837e-05
5.3457e-05
4.99016e-05
4.50538e-05
3.92819e-05
3.29587e-05
6.0566e-05
5.59055e-05
5.5065e-05
5.39101e-05
5.1183e-05
4.67207e-05
4.08232e-05
3.39624e-05
7.5775e-05
6.3055e-05
5.61546e-05
5.36993e-05
5.15487e-05
4.80725e-05
4.31275e-05
3.71101e-05
8.72833e-05
7.339e-05
6.38853e-05
5.87206e-05
5.43794e-05
4.9499e-05
4.40995e-05
3.84068e-05
9.98422e-05
8.71878e-05
7.72613e-05
7.04812e-05
6.44284e-05
5.79895e-05
5.10366e-05
4.36075e-05
9.49436e-05
8.15217e-05
7.06163e-05
6.23975e-05
5.47626e-05
4.70657e-05
3.957e-05
3.26007e-05
9.67388e-05
8.35907e-05
7.31887e-05
6.58926e-05
5.92352e-05
5.21226e-05
4.44413e-05
3.62813e-05
8.58211e-05
7.22311e-05
6.26854e-05
5.72334e-05
5.25761e-05
4.74729e-05
4.19483e-05
3.61789e-05
7.63595e-05
6.37722e-05
5.66263e-05
5.36704e-05
5.09238e-05
4.69127e-05
4.15708e-05
3.53126e-05
4.78747e-05
5.08344e-05
5.00619e-05
5.00981e-05
4.93038e-05
4.6731e-05
4.24623e-05
3.71222e-05
5.39975e-05
5.68874e-05
5.46322e-05
5.27251e-05
5.00572e-05
4.62548e-05
4.17275e-05
3.69348e-05
6.69839e-05
7.181e-05
6.91536e-05
6.6214e-05
6.24975e-05
5.78408e-05
5.24919e-05
4.65876e-05
7.8075e-05
8.38114e-05
7.99203e-05
7.46038e-05
6.77726e-05
5.94275e-05
5.00585e-05
4.04088e-05
6.8253e-05
7.33613e-05
7.04137e-05
6.70399e-05
6.28902e-05
5.76987e-05
5.14517e-05
4.40549e-05
5.58691e-05
5.89249e-05
5.61713e-05
5.36248e-05
5.04397e-05
4.63347e-05
4.16614e-05
3.67254e-05
4.91732e-05
5.21555e-05
5.08075e-05
5.00223e-05
4.84122e-05
4.52428e-05
4.07143e-05
3.54218e-05
1.74884e-05
1.71422e-05
1.64874e-05
1.56592e-05
1.47569e-05
1.38348e-05
1.29094e-05
1.19758e-05
1.605e-05
1.58753e-05
1.5719e-05
1.52449e-05
1.45141e-05
1.36499e-05
1.2783e-05
1.18987e-05
1.36347e-05
1.32845e-05
1.29679e-05
1.25392e-05
1.20745e-05
1.15306e-05
1.0955e-05
1.03363e-05
1.39569e-05
1.33303e-05
1.2726e-05
1.20795e-05
1.15153e-05
1.09377e-05
1.03383e-05
9.73111e-06
1.50629e-05
1.44645e-05
1.38616e-05
1.33279e-05
1.28265e-05
1.21817e-05
1.14492e-05
1.06949e-05
1.63204e-05
1.59587e-05
1.5452e-05
1.48881e-05
1.40891e-05
1.32155e-05
1.23359e-05
1.1463e-05
1.6808e-05
1.63767e-05
1.5781e-05
1.50198e-05
1.41756e-05
1.32972e-05
1.24039e-05
1.14936e-05
5.78125e-05
5.48644e-05
5.27228e-05
5.04699e-05
4.72656e-05
4.28643e-05
3.73845e-05
3.11292e-05
5.93935e-05
5.72496e-05
5.43134e-05
5.09491e-05
4.68578e-05
4.20827e-05
3.66581e-05
3.07739e-05
5.09914e-05
4.87058e-05
4.59758e-05
4.31544e-05
4.00154e-05
3.64842e-05
3.23726e-05
2.77507e-05
4.73565e-05
4.33775e-05
3.90329e-05
3.47488e-05
3.04495e-05
2.63211e-05
2.24773e-05
1.89795e-05
5.2229e-05
4.9088e-05
4.57423e-05
4.21547e-05
3.78079e-05
3.31241e-05
2.83354e-05
2.35321e-05
5.66078e-05
5.32402e-05
5.00118e-05
4.65187e-05
4.24969e-05
3.77558e-05
3.24931e-05
2.6892e-05
5.84122e-05
5.51469e-05
5.22482e-05
4.91304e-05
4.51346e-05
4.01217e-05
3.42977e-05
2.80095e-05
6.24413e-05
5.79872e-05
5.72431e-05
5.60568e-05
5.31056e-05
4.82297e-05
4.18014e-05
3.44183e-05
6.66871e-05
6.14477e-05
5.96686e-05
5.73301e-05
5.31935e-05
4.7472e-05
4.07864e-05
3.37321e-05
6.66468e-05
6.33084e-05
6.0092e-05
5.65736e-05
5.18036e-05
4.60234e-05
3.99448e-05
3.40281e-05
5.97104e-05
5.52212e-05
5.11767e-05
4.64009e-05
4.09428e-05
3.52448e-05
2.96201e-05
2.42667e-05
6.30456e-05
5.88981e-05
5.48096e-05
5.07353e-05
4.55757e-05
3.96996e-05
3.36991e-05
2.79497e-05
6.32045e-05
5.77266e-05
5.54227e-05
5.26994e-05
4.83751e-05
4.26978e-05
3.62563e-05
2.96134e-05
6.40749e-05
5.87792e-05
5.72404e-05
5.51766e-05
5.12793e-05
4.5565e-05
3.85558e-05
3.09622e-05
7.60332e-05
6.414e-05
5.79916e-05
5.59737e-05
5.37398e-05
4.96539e-05
4.36833e-05
3.64666e-05
8.00114e-05
6.76937e-05
6.05808e-05
5.73466e-05
5.37281e-05
4.83647e-05
4.16465e-05
3.4424e-05
8.37432e-05
7.14791e-05
6.31408e-05
5.80832e-05
5.27738e-05
4.63562e-05
3.95092e-05
3.29128e-05
8.42517e-05
7.27138e-05
6.41854e-05
5.79639e-05
5.16897e-05
4.5304e-05
3.92541e-05
3.35891e-05
8.22413e-05
6.98939e-05
6.08036e-05
5.47548e-05
4.87815e-05
4.22826e-05
3.5831e-05
2.98716e-05
7.86892e-05
6.62374e-05
5.84591e-05
5.43788e-05
5.012e-05
4.45475e-05
3.80416e-05
3.12968e-05
7.696e-05
6.51303e-05
5.85762e-05
5.58603e-05
5.27142e-05
4.76976e-05
4.09967e-05
3.34098e-05
4.91574e-05
5.28371e-05
5.24784e-05
5.27861e-05
5.20721e-05
4.92426e-05
4.42699e-05
3.78324e-05
5.08421e-05
5.46538e-05
5.39569e-05
5.36165e-05
5.19718e-05
4.81156e-05
4.23523e-05
3.55959e-05
5.27634e-05
5.6437e-05
5.49796e-05
5.34037e-05
5.02269e-05
4.50431e-05
3.86782e-05
3.21431e-05
5.377e-05
5.7101e-05
5.44521e-05
5.09547e-05
4.58808e-05
4.00175e-05
3.46786e-05
3.04986e-05
5.16483e-05
5.48127e-05
5.27297e-05
5.04175e-05
4.66437e-05
4.12815e-05
3.52367e-05
2.94097e-05
5.0544e-05
5.41217e-05
5.29549e-05
5.19548e-05
4.96424e-05
4.53406e-05
3.94866e-05
3.29787e-05
5.05906e-05
5.45126e-05
5.39137e-05
5.36478e-05
5.20951e-05
4.83137e-05
4.24867e-05
3.54792e-05
1.69871e-05
1.66228e-05
1.60749e-05
1.53642e-05
1.45529e-05
1.36929e-05
1.28131e-05
1.19152e-05
1.61841e-05
1.56722e-05
1.51734e-05
1.4637e-05
1.39601e-05
1.31746e-05
1.23376e-05
1.14915e-05
1.52962e-05
1.4666e-05
1.41151e-05
1.35598e-05
1.29609e-05
1.23188e-05
1.16373e-05
1.09253e-05
1.47005e-05
1.39956e-05
1.33485e-05
1.2737e-05
1.21221e-05
1.15057e-05
1.08674e-05
1.02699e-05
1.50419e-05
1.45458e-05
1.4075e-05
1.35947e-05
1.30548e-05
1.24754e-05
1.18492e-05
1.11757e-05
1.64004e-05
1.59739e-05
1.55615e-05
1.51277e-05
1.44897e-05
1.37235e-05
1.28889e-05
1.20374e-05
1.79385e-05
1.75162e-05
1.6822e-05
1.59647e-05
1.50474e-05
1.41226e-05
1.32053e-05
1.22875e-05
5.67398e-05
5.36827e-05
5.09615e-05
4.8051e-05
4.43205e-05
3.96248e-05
3.41092e-05
2.8048e-05
5.54557e-05
5.27828e-05
4.94403e-05
4.54019e-05
4.08784e-05
3.58654e-05
3.05178e-05
2.5048e-05
5.20415e-05
4.85438e-05
4.4653e-05
4.04767e-05
3.60744e-05
3.14417e-05
2.66695e-05
2.19015e-05
4.87667e-05
4.49032e-05
4.09864e-05
3.70482e-05
3.31506e-05
2.92927e-05
2.54945e-05
2.17487e-05
5.15602e-05
4.90093e-05
4.61511e-05
4.29057e-05
3.93575e-05
3.54476e-05
3.11843e-05
2.6571e-05
5.75822e-05
5.55162e-05
5.27438e-05
4.92665e-05
4.54063e-05
4.09992e-05
3.60688e-05
3.0695e-05