/*--------------------------------*- C++ -*----------------------------------*\
| =========                 |                                                 |
| \\      /  F ield         | OpenFOAM: The Open Source CFD Toolbox           |
|  \\    /   O peration     | Version:  plus.master.MPPICInterFoam            |
|   \\  /    A nd           | Web:      www.OpenFOAM.com                      |
|    \\/     M anipulation  |                                                 |
\*---------------------------------------------------------------------------*/
FoamFile
{
    version     2.0;
    format      ascii;
    class       volVectorField;
    location    "10.8";
    object      U;
}
// * * * * * * * * * * * * * * * * * * * * * * * * * * * * * * * * * * * * * //

dimensions      [0 1 -1 0 0 0 0];

internalField   nonuniform List<vector> 
11821
(
(0.0413817 0.0707089 -0.00656671)
(0.0252398 0.0683153 0.00357662)
(-0.00334987 0.0670001 0.0205966)
(-0.032547 0.0582451 0.0212633)
(-0.0551489 0.0575286 0.00570232)
(-0.0669425 0.053012 -0.0064291)
(-0.0764481 0.0542506 -0.0116614)
(0.0465935 0.0648857 0.00587907)
(0.0896316 0.132807 0.0663564)
(0.041378 0.110037 0.12813)
(-0.0492824 0.0927773 0.1619)
(-0.129005 0.110187 0.108446)
(-0.123967 0.0976592 0.0398772)
(-0.0757653 0.0424659 -0.00875738)
(0.0504969 0.044416 0.0242088)
(0.114474 0.125797 0.171236)
(0.223775 0.246496 0.530638)
(-0.0574311 0.251938 1.01714)
(-0.271212 0.251392 0.454717)
(-0.106966 0.0704589 0.0859037)
(-0.0735465 0.0253902 0.00262228)
(0.0534218 0.0122136 0.0391735)
(0.101221 0.0182993 0.200716)
(0.255771 0.0213442 1.02649)
(-0.0442156 0.0127414 2.56619)
(-0.251 0.021115 0.685049)
(-0.0829515 0.0137554 0.12072)
(-0.0626356 0.00871564 0.0135004)
(0.0586935 -0.0263096 0.0266191)
(0.113775 -0.0902621 0.157211)
(0.24078 -0.247481 0.593838)
(-0.0577145 -0.246258 0.981655)
(-0.246772 -0.214839 0.435658)
(-0.105186 -0.0448153 0.0928088)
(-0.0736414 -0.00865601 0.00740738)
(0.054287 -0.0499968 0.00785213)
(0.103243 -0.117197 0.0735938)
(0.0638324 -0.111181 0.150958)
(-0.0500201 -0.100813 0.200778)
(-0.154033 -0.115434 0.157604)
(-0.129131 -0.0779288 0.0501074)
(-0.0756136 -0.0279008 -0.00562612)
(0.0494792 -0.0610304 -0.00507898)
(0.034536 -0.0637324 0.00689049)
(0.00463616 -0.0636416 0.0264822)
(-0.0336395 -0.0535686 0.0304877)
(-0.0607063 -0.047866 0.013691)
(-0.0741838 -0.0433976 -0.00174523)
(-0.0800533 -0.0419084 -0.0110993)
(0.00834164 0.0334987 0.0202287)
(-0.00691865 0.0227576 0.053396)
(-0.0197911 0.00116885 0.0891644)
(-0.0282484 -0.00807172 0.0907279)
(-0.0309895 0.00410477 0.0434976)
(-0.0337838 0.0170672 0.0163123)
(-0.0379107 0.0194769 0.0106264)
(0.00582019 0.0310069 0.0497842)
(-0.00791128 0.0277932 0.195458)
(-0.0183926 0.00246861 0.276982)
(-0.028353 -0.0102956 0.320262)
(-0.0328885 -0.00481858 0.216912)
(-0.0316801 0.00955219 0.113392)
(-0.0339274 0.00977054 0.012599)
(-0.00771679 0.024987 0.102617)
(-0.00931385 0.0275442 0.341813)
(-0.0219618 -0.0121687 0.994175)
(-0.031514 -0.0307648 1.36644)
(-0.00642972 0.00970038 0.677032)
(-0.00107214 0.0131057 0.173426)
(-0.0182994 0.00568705 0.0284626)
(-0.0122604 0.0115507 0.138445)
(-0.00673752 0.0101833 0.391028)
(-0.0312718 0.0118497 1.42796)
(-0.0412517 0.0631278 4.14631)
(-0.0198237 0.0180364 1.01412)
(0.00641664 0.00977593 0.22767)
(-0.0111417 0.00861788 0.048064)
(-0.00585815 -0.00662235 0.113926)
(-0.00528822 -0.0110158 0.338858)
(-0.017894 0.0169037 1.03307)
(-0.0216808 0.045227 1.71296)
(0.00448183 0.00498223 0.79204)
(-0.00249289 0.00477879 0.196945)
(-0.0158361 0.0106536 0.0425295)
(0.0124348 -0.016466 0.0565458)
(0.00380418 -0.0177194 0.224866)
(-0.00837376 0.0018493 0.326051)
(-0.0262565 0.0114966 0.396182)
(-0.0364939 0.0113575 0.284154)
(-0.0341182 0.00801437 0.132503)
(-0.0356248 0.00750605 0.0201891)
(0.016003 -0.0239701 0.0233954)
(0.00184196 -0.0171322 0.062314)
(-0.0143238 0.00564935 0.115337)
(-0.0299449 0.0158825 0.124834)
(-0.038777 0.00830109 0.0730748)
(-0.0422185 -0.0018754 0.0271149)
(-0.0443426 -0.00449828 0.00968112)
(0.00334897 0.0257855 0.0790769)
(-0.0113553 0.0125922 0.126901)
(-0.0201387 -0.00902016 0.177458)
(-0.0195685 -0.0192914 0.181799)
(-0.0182015 0.00137142 0.115984)
(-0.0247091 0.0158352 0.0761227)
(-0.0326242 0.0227841 0.0639275)
(-0.00639261 0.020513 0.126312)
(-0.0223595 0.00636363 0.245325)
(-0.0282193 -0.0190087 0.346209)
(-0.0183138 -0.0337868 0.39139)
(-0.010416 -0.0162418 0.255663)
(-0.0169559 0.00305264 0.131009)
(-0.0288845 0.0116916 0.072432)
(-0.0194447 0.0151423 0.198855)
(-0.0315106 0.0012655 0.400128)
(-0.0496014 -0.0387629 0.83004)
(-0.00475645 -0.0743937 1.15927)
(0.0116594 -0.0134461 0.539298)
(0.00888697 0.00442309 0.212351)
(-0.0182263 0.00509219 0.0913451)
(-0.0295347 0.00991237 0.25295)
(-0.0376887 0.00672063 0.5036)
(-0.10114 0.0029204 1.42697)
(-0.0719349 0.0169517 3.27746)
(0.00261182 0.00477843 0.842472)
(0.0166727 0.00725678 0.278132)
(-0.0127013 0.00625066 0.11255)
(-0.0189107 0.00211584 0.2179)
(-0.0293332 0.0101099 0.418846)
(-0.0574559 0.0470286 0.916153)
(-0.00885472 0.106023 1.62838)
(0.0201172 0.025237 0.640062)
(0.0125409 0.0116963 0.246295)
(-0.0142965 0.0103407 0.10626)
(-0.000831487 -0.00635235 0.143105)
(-0.0157264 0.0050355 0.282238)
(-0.02494 0.0254338 0.404634)
(-0.0179396 0.0412794 0.476784)
(-0.0105268 0.0284999 0.323095)
(-0.0180802 0.0165407 0.16432)
(-0.0310212 0.00700863 0.0802193)
(0.00887291 -0.0148709 0.0881326)
(-0.00570075 -0.00321267 0.148486)
(-0.018981 0.019175 0.217233)
(-0.0236505 0.0329758 0.230607)
(-0.0255363 0.0168121 0.155302)
(-0.031675 0.00284573 0.0897624)
(-0.0384013 -0.00647659 0.0660123)
(0.0228635 0.0400032 0.171905)
(0.00349901 0.0271254 0.213235)
(-0.0103624 0.00707156 0.267122)
(-0.0120217 -0.00190372 0.270009)
(-0.0163452 0.021971 0.209614)
(-0.0319917 0.0379108 0.172972)
(-0.0475641 0.0459276 0.158577)
(0.0080672 0.0279572 0.217679)
(-0.0115317 0.01417 0.32195)
(-0.0224461 -0.00841305 0.423628)
(-0.0150352 -0.0229017 0.454772)
(-0.0121356 0.00147515 0.323253)
(-0.0278047 0.0196904 0.209382)
(-0.0458586 0.029201 0.168798)
(-0.00725361 0.0169604 0.295486)
(-0.0228589 0.00294092 0.476857)
(-0.0393769 -0.0259663 0.795385)
(-0.0040824 -0.053346 1.00188)
(-0.00123194 -0.0039496 0.529645)
(-0.0126811 0.0107037 0.283414)
(-0.0397777 0.0147727 0.184452)
(-0.0211108 0.0095485 0.359171)
(-0.0349533 0.00685369 0.597343)
(-0.093655 0.00121997 1.35201)
(-0.0664993 -0.00185627 2.24545)
(-0.0101885 0.00378893 0.732073)
(-0.00674231 0.00699566 0.344666)
(-0.0366207 0.00568945 0.200785)
(-0.00801512 7.62616e-05 0.319251)
(-0.0220938 0.0106353 0.510661)
(-0.047425 0.0376794 0.894894)
(-0.00898098 0.0787064 1.2655)
(0.00185984 0.0176209 0.609249)
(-0.00884713 0.00635405 0.31455)
(-0.0378803 -0.000325447 0.194149)
(0.0102265 -0.0131813 0.239993)
(-0.00714405 -0.00072197 0.363101)
(-0.0221711 0.018732 0.494542)
(-0.0172421 0.0357055 0.545603)
(-0.0154452 0.0163317 0.38685)
(-0.0309117 0.0020382 0.238762)
(-0.0494343 -0.0125794 0.173592)
(0.0246419 -0.0271382 0.182472)
(0.00582049 -0.0124563 0.242005)
(-0.0118673 0.00856321 0.315612)
(-0.0188827 0.0214471 0.327368)
(-0.0248895 0.00068974 0.246844)
(-0.0387944 -0.0175293 0.184574)
(-0.0525961 -0.0314208 0.160698)
(0.0444486 0.0532113 0.327313)
(0.021384 0.0456173 0.356647)
(0.00173167 0.0309584 0.398405)
(-0.0084372 0.0250664 0.401269)
(-0.0203771 0.0450998 0.353547)
(-0.0405303 0.0579494 0.325857)
(-0.0592488 0.0629887 0.312398)
(0.0295935 0.0377886 0.363502)
(0.00603147 0.0295157 0.444225)
(-0.0117614 0.012955 0.53351)
(-0.01551 0.00216622 0.545302)
(-0.022299 0.0234241 0.439938)
(-0.041473 0.0379791 0.350463)
(-0.0610233 0.0434397 0.321916)
(0.0136476 0.022365 0.431355)
(-0.00441956 0.0151431 0.584566)
(-0.0246451 -0.00302854 0.833531)
(-0.0149712 -0.0222041 0.9447)
(-0.0214107 0.0103072 0.596078)
(-0.0359954 0.0217141 0.406877)
(-0.0601114 0.0241141 0.333545)
(0.00020044 0.00883809 0.490222)
(-0.0149684 0.00852025 0.706494)
(-0.0561589 0.00811267 1.34418)
(-0.0410774 0.00748949 1.66839)
(-0.0285702 0.0074533 0.735233)
(-0.0342595 0.00894595 0.45888)
(-0.0600098 0.00625681 0.345079)
(0.0115312 -0.00740203 0.454923)
(-0.00433139 0.00114101 0.626714)
(-0.0308959 0.0217329 0.971223)
(-0.0195009 0.0463017 1.16303)
(-0.0228793 0.00786026 0.660743)
(-0.0352938 -0.00340903 0.432535)
(-0.0603533 -0.0115977 0.339873)
(0.0287203 -0.0253221 0.38428)
(0.00810641 -0.0144647 0.487774)
(-0.0126354 0.00141287 0.609438)
(-0.0195471 0.0154997 0.638952)
(-0.0281631 -0.00303507 0.495309)
(-0.0459044 -0.0179893 0.372521)
(-0.0640885 -0.0312909 0.326139)
(0.0430176 -0.043569 0.337335)
(0.0211591 -0.0296561 0.383916)
(-0.00061847 -0.011 0.447152)
(-0.0152177 -0.00102796 0.454332)
(-0.0275647 -0.022036 0.385415)
(-0.0453499 -0.0408217 0.336127)
(-0.061237 -0.0539516 0.3157)
(-0.073531 0.0381833 -0.010136)
(-0.0666321 0.0283956 -0.00781259)
(-0.0617994 0.0304917 -0.00599192)
(-0.0547419 0.0286151 -0.00503056)
(-0.0504059 0.0270726 -0.00463981)
(-0.0472829 0.0260495 -0.00466032)
(-0.0448504 0.0253161 -0.00498286)
(-0.0425107 0.024456 -0.00546819)
(-0.0686541 0.0267061 -0.0118959)
(-0.0759912 0.0181079 -0.00876777)
(-0.065243 0.0181541 -0.00615945)
(-0.0584378 0.0190699 -0.00459361)
(-0.0539485 0.0185881 -0.00382679)
(-0.0506723 0.0180228 -0.00355218)
(-0.0476517 0.0173506 -0.0036396)
(-0.0452216 0.0168035 -0.0039862)
(-0.0770869 0.0182407 -0.0126077)
(-0.0681683 0.0103189 -0.010013)
(-0.0713004 0.0112452 -0.00684951)
(-0.0608101 0.0116922 -0.0046315)
(-0.0560205 0.0116737 -0.00351806)
(-0.0523046 0.0114303 -0.00305768)
(-0.0494129 0.0109802 -0.0030744)
(-0.0465602 0.0104551 -0.0034057)
(-0.0681854 0.00510467 -0.0107856)
(-0.06427 0.00436942 -0.00979064)
(-0.0684757 0.00480346 -0.00695649)
(-0.0596023 0.00422844 -0.00468284)
(-0.0559181 0.00388289 -0.00344613)
(-0.0532313 0.00346185 -0.0027925)
(-0.0493689 0.00293806 -0.00245301)
(-0.0485905 0.00267805 -0.00238289)
(-0.0741471 -0.00281508 -0.011445)
(-0.0744189 0.00234273 -0.0101389)
(-0.0702676 -0.000255345 -0.00677255)
(-0.0622597 -0.00173396 -0.00477108)
(-0.0577915 -0.00203398 -0.00381886)
(-0.0544944 -0.00210902 -0.00346175)
(-0.0518012 -0.00193359 -0.00357556)
(-0.0493912 -0.00195189 -0.00395124)
(-0.076234 -0.0161801 -0.0121857)
(-0.0738965 -0.00701616 -0.00928914)
(-0.0701461 -0.00913491 -0.00653498)
(-0.0632656 -0.0091221 -0.00456385)
(-0.0579729 -0.00888595 -0.00373592)
(-0.0544638 -0.00907198 -0.00348905)
(-0.0511824 -0.00914129 -0.00362525)
(-0.0489459 -0.00923363 -0.00402866)
(-0.0771906 -0.0277961 -0.0106638)
(-0.0710062 -0.01736 -0.00817537)
(-0.0685026 -0.0204244 -0.00614339)
(-0.0610414 -0.0195319 -0.00497723)
(-0.0566468 -0.0182891 -0.00447166)
(-0.0533341 -0.0170678 -0.00447448)
(-0.0510001 -0.0160132 -0.00486265)
(-0.0489282 -0.015144 -0.00552502)
(-0.0405594 0.0204963 0.0131135)
(-0.0420681 0.0229436 0.0147943)
(-0.0431607 0.024916 0.015116)
(-0.0437346 0.0261696 0.0142714)
(-0.0438025 0.0268481 0.0127851)
(-0.0433913 0.0270622 0.0108393)
(-0.0425546 0.0268874 0.00857371)
(-0.0413142 0.0263488 0.00608653)
(-0.0397747 0.0125604 0.0113414)
(-0.0429222 0.0152972 0.0150396)
(-0.0449651 0.0173044 0.0163088)
(-0.0463444 0.01866 0.0161841)
(-0.0469642 0.0193697 0.0150177)
(-0.0468672 0.0195955 0.0131751)
(-0.0461446 0.0194521 0.010864)
(-0.0448709 0.0190038 0.00821836)
(-0.0342625 0.00645474 0.00836481)
(-0.0402725 0.00883096 0.0131922)
(-0.0444106 0.0103429 0.0164899)
(-0.0470372 0.0112824 0.0170574)
(-0.0485534 0.0117289 0.0161349)
(-0.048972 0.0118071 0.0142933)
(-0.0485003 0.0116231 0.0118668)
(-0.047293 0.0112509 0.00905616)
(-0.0310345 0.00628112 0.0101587)
(-0.0390967 0.0057417 0.0129353)
(-0.0443243 0.0053859 0.0161231)
(-0.047688 0.00500646 0.016585)
(-0.0497179 0.00461772 0.0154893)
(-0.0504524 0.00424178 0.0134473)
(-0.0501253 0.00389591 0.0109333)
(-0.0489742 0.00358931 0.00800548)
(-0.0351328 0.00718028 0.0100701)
(-0.0420505 0.00322887 0.0125628)
(-0.0463545 0.000764406 0.0152739)
(-0.0491732 -0.000953881 0.0156334)
(-0.0507816 -0.00218321 0.0145153)
(-0.0512256 -0.00302522 0.0125312)
(-0.0507322 -0.00355454 0.00997294)
(-0.0494634 -0.00382928 0.00704773)
(-0.0430216 0.00221651 0.00961215)
(-0.0466366 -0.00234599 0.0129905)
(-0.0490793 -0.00543121 0.0146822)
(-0.0506667 -0.00766293 0.0146671)
(-0.0513821 -0.00923864 0.0133307)
(-0.0512867 -0.0102752 0.0112385)
(-0.0504957 -0.010859 0.00867925)
(-0.0490981 -0.0110459 0.00578831)
(-0.0461851 -0.00619289 0.0114021)
(-0.0480545 -0.00972549 0.0136591)
(-0.0493429 -0.0125454 0.0143365)
(-0.050049 -0.0146104 0.0135435)
(-0.0501902 -0.0160335 0.0119484)
(-0.049786 -0.0169309 0.00980144)
(-0.0488895 -0.017393 0.00728516)
(-0.0475467 -0.0174768 0.00450058)
(-0.0397915 0.02708 0.0575732)
(-0.0441449 0.0323951 0.0514636)
(-0.047893 0.0364032 0.0440742)
(-0.0508293 0.0393676 0.0357693)
(-0.0529845 0.041493 0.026979)
(-0.0543987 0.0429013 0.0181045)
(-0.055058 0.043634 0.00957548)
(-0.0548334 0.0436178 0.00188706)
(-0.0388699 0.0168456 0.0622702)
(-0.0459123 0.0217389 0.0560924)
(-0.0515363 0.0252004 0.0489845)
(-0.0560431 0.0276652 0.0406765)
(-0.0594581 0.0293451 0.0315317)
(-0.0618348 0.0303838 0.0220228)
(-0.0631477 0.030843 0.0126921)
(-0.0632243 0.0306858 0.00418221)
(-0.0341148 0.00909153 0.0659399)
(-0.0444008 0.0123254 0.0587832)
(-0.0522519 0.0144305 0.0519026)
(-0.0584225 0.0158384 0.0436645)
(-0.0630222 0.0167067 0.0342935)
(-0.0661914 0.0171614 0.0243238)
(-0.0679791 0.0172674 0.0143962)
(-0.0682347 0.0170214 0.00526731)
(-0.0317276 0.0052496 0.0679813)
(-0.043796 0.0050982 0.0591752)
(-0.0527267 0.00478423 0.0521985)
(-0.0596594 0.00435698 0.0439718)
(-0.0647689 0.00387809 0.0345246)
(-0.0682363 0.00340626 0.0244118)
(-0.0701661 0.00296863 0.0143175)
(-0.0704404 0.00257314 0.00503138)
(-0.0341486 0.0034456 0.0664844)
(-0.0457805 -0.00128963 0.0574109)
(-0.0540989 -0.00450502 0.0502069)
(-0.0604343 -0.00701875 0.0418731)
(-0.0650131 -0.00897988 0.0324231)
(-0.0680488 -0.0104452 0.0223941)
(-0.0696529 -0.0114509 0.0124461)
(-0.0697132 -0.0119907 0.00334335)
(-0.0420225 -0.00269408 0.0615281)
(-0.0500107 -0.00978758 0.0541246)
(-0.0558644 -0.0147975 0.0467247)
(-0.0603328 -0.0186379 0.0382128)
(-0.0635205 -0.0215368 0.0288489)
(-0.0655674 -0.0236261 0.0191447)
(-0.0665142 -0.0249729 0.00968233)
(-0.0662293 -0.0255568 0.00111812)
(-0.0453635 -0.0132278 0.0573943)
(-0.0501264 -0.020334 0.050881)
(-0.0539359 -0.0258953 0.0432445)
(-0.0567799 -0.0302127 0.0346145)
(-0.0587191 -0.0334785 0.0254514)
(-0.059854 -0.0358319 0.0162122)
(-0.0602099 -0.0373311 0.00737116)
(-0.059685 -0.0379259 -0.000556321)
(-0.0605997 0.0512214 0.148589)
(-0.0684007 0.0594813 0.139174)
(-0.0757595 0.0662 0.128561)
(-0.0817558 0.0713061 0.116937)
(-0.0859773 0.0747108 0.104391)
(-0.0880059 0.0762233 0.0908243)
(-0.0873244 0.0755127 0.0757663)
(-0.0833342 0.0721499 0.0583037)
(-0.061513 0.0338701 0.155628)
(-0.0732365 0.0405107 0.145618)
(-0.0835684 0.0458507 0.134843)
(-0.0922858 0.0499123 0.122916)
(-0.0988199 0.0526432 0.10985)
(-0.102553 0.053892 0.0955612)
(-0.102719 0.0533879 0.0795427)
(-0.0984813 0.0507802 0.0606842)
(-0.0594682 0.0180784 0.160949)
(-0.0743318 0.0217074 0.149787)
(-0.0872746 0.02458 0.138867)
(-0.09823 0.0266967 0.126733)
(-0.106536 0.0280544 0.113278)
(-0.11151 0.0285914 0.0984334)
(-0.112273 0.0281655 0.0816747)
(-0.107841 0.0265864 0.061766)
(-0.0587713 0.00451712 0.163348)
(-0.0750323 0.00398882 0.150784)
(-0.0889554 0.00343184 0.139658)
(-0.100695 0.00280655 0.127375)
(-0.109565 0.00217215 0.113699)
(-0.114896 0.00162417 0.0985743)
(-0.115783 0.00118863 0.0814789)
(-0.111198 0.000856308 0.0611371)
(-0.0602072 -0.00779797 0.161228)
(-0.0759139 -0.0134898 0.148522)
(-0.0890032 -0.018125 0.137052)
(-0.0998734 -0.021831 0.124532)
(-0.107969 -0.0244909 0.110736)
(-0.112694 -0.0260525 0.0955794)
(-0.113209 -0.0264054 0.0785395)
(-0.108559 -0.0254026 0.0583815)
(-0.0653502 -0.0224079 0.154773)
(-0.0772287 -0.0318149 0.143332)
(-0.0872283 -0.0393988 0.131713)
(-0.0954983 -0.0453162 0.119029)
(-0.101523 -0.0495354 0.105246)
(-0.104731 -0.0519424 0.090288)
(-0.104383 -0.0523056 0.0736592)
(-0.0996759 -0.0503273 0.0542533)
(-0.0651303 -0.0410976 0.147692)
(-0.0727745 -0.0521452 0.137221)
(-0.0796962 -0.0610084 0.125685)
(-0.0851072 -0.0678022 0.113131)
(-0.08868 -0.0725942 0.099679)
(-0.0900232 -0.0752546 0.0852664)
(-0.088666 -0.0754458 0.0694302)
(-0.0840282 -0.0727716 0.0512665)
(-0.0736826 0.0667358 0.299725)
(-0.0823895 0.0755777 0.284173)
(-0.0920379 0.0837258 0.262036)
(-0.101552 0.0911686 0.231837)
(-0.110777 0.098076 0.192366)
(-0.12057 0.105303 0.142872)
(-0.132192 0.113867 0.0834971)
(-0.142201 0.120809 0.0165723)
(-0.0775085 0.0456196 0.308285)
(-0.0899085 0.0520843 0.294068)
(-0.102338 0.0579933 0.274141)
(-0.114568 0.0633417 0.245995)
(-0.126333 0.0682031 0.207647)
(-0.138631 0.0731318 0.157691)
(-0.153326 0.0790174 0.0957376)
(-0.166503 0.0839799 0.0238015)
(-0.0785274 0.0246277 0.313993)
(-0.0934587 0.0274841 0.300004)
(-0.108028 0.0302156 0.281538)
(-0.122139 0.0326874 0.254978)
(-0.135549 0.0349278 0.217646)
(-0.149415 0.0372192 0.167569)
(-0.166012 0.040065 0.103945)
(-0.181198 0.0425293 0.0285942)
(-0.0792437 0.00372296 0.316729)
(-0.0950059 0.00218442 0.302009)
(-0.110114 0.000847387 0.283895)
(-0.124659 -0.000305688 0.257876)
(-0.138431 -0.00117679 0.22093)
(-0.152665 -0.00171183 0.170834)
(-0.169795 -0.00192244 0.106612)
(-0.185621 -0.0018707 0.0300135)
(-0.079251 -0.0175884 0.314812)
(-0.0940897 -0.0237185 0.299705)
(-0.108167 -0.0291164 0.280815)
(-0.121687 -0.0337421 0.254041)
(-0.134535 -0.0375327 0.2166)
(-0.147952 -0.0407682 0.166463)
(-0.164271 -0.0440182 0.102772)
(-0.179388 -0.0464633 0.0273289)
(-0.0796422 -0.0389183 0.308768)
(-0.0910717 -0.0490313 0.29352)
(-0.102233 -0.057999 0.273058)
(-0.113139 -0.0657368 0.244571)
(-0.123694 -0.0722563 0.206003)
(-0.13503 -0.0781274 0.155882)
(-0.149123 -0.0843321 0.0937309)
(-0.162123 -0.0891372 0.0215324)
(-0.0742488 -0.06249 0.30078)
(-0.0814504 -0.0748564 0.284776)
(-0.0893981 -0.0859427 0.2624)
(-0.0971953 -0.0956383 0.231986)
(-0.104881 -0.104116 0.19222)
(-0.113449 -0.112235 0.142292)
(-0.124285 -0.121091 0.0823115)
(-0.134025 -0.127838 0.0146702)
(0.0480081 -0.0492029 -0.00735316)
(0.0405297 -0.0416324 -0.00636132)
(0.0370515 -0.0365363 -0.00505352)
(0.0327375 -0.0346035 -0.00458909)
(0.0302132 -0.0340194 -0.00468699)
(0.0279963 -0.033657 -0.00520606)
(0.0262422 -0.0333736 -0.00594325)
(0.0246674 -0.0329166 -0.00675781)
(0.0594378 -0.0367565 -0.00562443)
(0.0461064 -0.0246973 -0.00707165)
(0.0441289 -0.0237833 -0.00436845)
(0.0357503 -0.0227498 -0.00292377)
(0.0326963 -0.0219992 -0.00200425)
(0.0300714 -0.0207536 -0.00163652)
(0.0280353 -0.0196362 -0.00155245)
(0.0271773 -0.0193919 -0.0014979)
(0.0669034 -0.0160699 -0.00327458)
(0.052505 -0.00910084 -0.00770016)
(0.0485117 -0.00911359 -0.00447796)
(0.0377691 -0.0111399 -0.00171954)
(0.032014 -0.0118577 0.000148138)
(0.0281362 -0.0129674 0.00135456)
(0.0237803 -0.0141058 0.00205581)
(0.0226052 -0.0164382 0.00309596)
(0.0663724 0.00855565 0.00207738)
(0.0521525 0.0101023 -0.0076358)
(0.0510699 0.0100526 -0.00350063)
(0.0404256 0.00930088 0.000772744)
(0.0342023 0.00922854 0.00335516)
(0.0305 0.0091802 0.00528334)
(0.0277286 0.00875061 0.00669836)
(0.0246826 0.00901048 0.0072632)
(0.068743 0.0338267 -0.00254839)
(0.0372 0.0162401 -0.00702753)
(0.0529607 0.0217501 -0.00490491)
(0.0345302 0.019985 -0.00296683)
(0.0311747 0.0196258 -0.00132338)
(0.0272371 0.019723 -0.000272769)
(0.0252719 0.021404 0.000485264)
(0.0222644 0.0226755 0.000599408)
(0.0549502 0.0533694 -0.00685663)
(0.0399239 0.0392113 -0.00810329)
(0.041399 0.0357101 -0.00390837)
(0.0314849 0.0339928 -0.00292323)
(0.0297992 0.0331738 -0.00222303)
(0.0276687 0.0318252 -0.00191194)
(0.0263952 0.0298394 -0.0018558)
(0.0253027 0.0277791 -0.0019806)
(0.0439222 0.0614488 -0.00786536)
(0.036081 0.0499669 -0.00666844)
(0.0350498 0.0437655 -0.00484193)
(0.0309189 0.0429044 -0.00414488)
(0.0287765 0.0409879 -0.00405493)
(0.0271683 0.0398501 -0.00415664)
(0.0250659 0.039355 -0.00452101)
(0.0230384 0.0397339 -0.00521606)
(0.0207245 -0.022945 0.0193212)
(0.0225724 -0.0244228 0.0198119)
(0.0248388 -0.02578 0.0194446)
(0.0266983 -0.0269923 0.0178277)
(0.0280214 -0.0278708 0.0154206)
(0.0287808 -0.0283418 0.0124832)
(0.0290253 -0.0283935 0.00921907)
(0.0288001 -0.0280374 0.00572936)
(0.0216674 -0.013937 0.0248075)
(0.0226347 -0.0158146 0.0232798)
(0.0244467 -0.0172067 0.0246308)
(0.0259829 -0.0184296 0.0245099)
(0.0272734 -0.0194509 0.0233956)
(0.0280414 -0.0201868 0.0214579)
(0.0282925 -0.0206409 0.0189405)
(0.0280399 -0.0208123 0.0160086)
(0.015696 -0.000912152 0.0422182)
(0.0182009 -0.00276898 0.0287498)
(0.0209259 -0.00489412 0.0302985)
(0.0227485 -0.00665898 0.0317359)
(0.0241064 -0.00817798 0.0321425)
(0.0247648 -0.00955256 0.0315196)
(0.0246785 -0.0107382 0.0302001)
(0.0239822 -0.0117017 0.0280345)
(0.0131687 0.0108773 0.046902)
(0.0158579 0.00979271 0.0286467)
(0.0200147 0.00915763 0.0307973)
(0.0222018 0.0086499 0.0328601)
(0.0237489 0.00836668 0.0340927)
(0.0244787 0.00813889 0.0343068)
(0.024343 0.00790101 0.0336461)
(0.0234129 0.00765111 0.0324121)
(0.0147438 0.0199052 0.0304324)
(0.0165541 0.0196349 0.0228906)
(0.0204442 0.0202256 0.0268963)
(0.022478 0.0206488 0.0279072)
(0.0242487 0.0210419 0.0280396)
(0.0251857 0.0213576 0.0271337)
(0.0254018 0.0215992 0.0254405)
(0.0249113 0.0216852 0.0232481)
(0.0167175 0.0282958 0.0201796)
(0.018674 0.029366 0.0212116)
(0.0214776 0.0303693 0.0226556)
(0.0234099 0.0311918 0.0223039)
(0.0250316 0.031714 0.0209887)
(0.0259698 0.031897 0.0189373)
(0.0262935 0.0317729 0.0163948)
(0.0260453 0.0313764 0.0135204)
(0.0148097 0.0332009 0.0184366)
(0.0174426 0.0346861 0.0196484)
(0.0201838 0.0359133 0.0194851)
(0.0222967 0.0369048 0.0179658)
(0.0238173 0.0374477 0.0157756)
(0.0247204 0.0375835 0.013181)
(0.0250588 0.0373219 0.0103061)
(0.0249011 0.0366701 0.00718776)
(0.0190293 -0.0198975 0.0678766)
(0.0258135 -0.0257375 0.0586718)
(0.0317518 -0.030169 0.0502888)
(0.0367546 -0.0336466 0.0407375)
(0.0406656 -0.036221 0.0303273)
(0.0435455 -0.0380006 0.0196555)
(0.0454179 -0.039041 0.00935533)
(0.0462035 -0.0392948 9.13394e-05)
(0.012931 -0.0104709 0.0870681)
(0.021539 -0.0161419 0.0705656)
(0.0283996 -0.0196522 0.0628872)
(0.0343722 -0.0223053 0.0551114)
(0.0394159 -0.0243505 0.0459895)
(0.043434 -0.025785 0.0358143)
(0.0463534 -0.0266184 0.0252545)
(0.047989 -0.0268128 0.0151603)
(0.00174619 0.000979581 0.119965)
(0.012308 -0.00352079 0.0855922)
(0.0203802 -0.00686784 0.0763971)
(0.0270551 -0.0091867 0.0705587)
(0.0326569 -0.0111137 0.0636324)
(0.0371141 -0.0126847 0.0551591)
(0.0403285 -0.0138618 0.0456283)
(0.0421475 -0.0146255 0.0358866)
(-0.00403483 0.0098898 0.132945)
(0.00843405 0.00880216 0.089095)
(0.0174817 0.00760274 0.0797485)
(0.0245836 0.00665425 0.0751818)
(0.0304719 0.00587667 0.0697086)
(0.0351234 0.00514206 0.0626535)
(0.0384272 0.00444401 0.0544227)
(0.0402198 0.00382168 0.045861)
(0.00188277 0.0170884 0.105008)
(0.0132199 0.0192016 0.0779351)
(0.0218735 0.0202235 0.0708196)
(0.0288691 0.0208143 0.065049)
(0.0347489 0.0211982 0.057888)
(0.0394182 0.0213359 0.0492395)
(0.0428132 0.0212246 0.0396873)
(0.0447699 0.0208547 0.0301065)
(0.00943097 0.0249133 0.0784446)
(0.0191287 0.0294134 0.066031)
(0.0267055 0.0320992 0.0589388)
(0.0331005 0.0340193 0.0511065)
(0.0383928 0.0352852 0.0419882)
(0.0425437 0.035955 0.0319948)
(0.0455237 0.0360764 0.0217744)
(0.0471744 0.0356193 0.0121156)
(0.0142048 0.0308647 0.0648206)
(0.0214712 0.0364121 0.0567885)
(0.0276991 0.0404663 0.048656)
(0.032899 0.0434767 0.0393734)
(0.0369827 0.0455618 0.0293604)
(0.0400279 0.0468607 0.0191617)
(0.0420646 0.0474302 0.00934563)
(0.0430152 0.0472186 0.000521602)
(0.0413931 -0.0363011 0.158293)
(0.053719 -0.0465169 0.144507)
(0.0644457 -0.0545097 0.131802)
(0.0733592 -0.0605423 0.118327)
(0.0799266 -0.064575 0.104055)
(0.0838115 -0.0665151 0.0889572)
(0.0845439 -0.0660643 0.0725856)
(0.0815583 -0.0628084 0.0539816)
(0.0296612 -0.0205478 0.181939)
(0.0462846 -0.0289382 0.160652)
(0.0601528 -0.0346108 0.147882)
(0.0723253 -0.0387888 0.135423)
(0.0821845 -0.0415383 0.12187)
(0.0889695 -0.0427174 0.107055)
(0.091839 -0.042083 0.0905707)
(0.0898842 -0.0392939 0.0713524)
(0.0139149 -0.00436586 0.217727)
(0.032596 -0.0111075 0.179608)
(0.0487156 -0.0153847 0.165314)
(0.0627793 -0.0183791 0.154597)
(0.0745995 -0.0206276 0.143146)
(0.083119 -0.0220277 0.130247)
(0.0871837 -0.0223851 0.115441)
(0.0856931 -0.021487 0.0975901)
(0.00571583 0.00827456 0.234011)
(0.025887 0.00593323 0.186856)
(0.0433296 0.00384824 0.172037)
(0.0580946 0.00233854 0.162546)
(0.0705253 0.00112838 0.152548)
(0.0795849 0.00013398 0.141011)
(0.084003 -0.000643595 0.127342)
(0.0825852 -0.00120151 0.110255)
(0.0163831 0.0192272 0.203743)
(0.0357921 0.0217135 0.173806)
(0.0519772 0.0227769 0.16186)
(0.0660573 0.0234098 0.151779)
(0.0778061 0.0236855 0.140638)
(0.0861863 0.0234499 0.128008)
(0.0901082 0.0225222 0.113442)
(0.0884985 0.0206711 0.0957705)
(0.0295667 0.0332605 0.173694)
(0.0467929 0.0391466 0.157377)
(0.0610466 0.0429391 0.14594)
(0.073485 0.045506 0.134071)
(0.0834895 0.0468284 0.121021)
(0.0903711 0.0468092 0.106693)
(0.0933185 0.0452032 0.0906599)
(0.091445 0.0416455 0.0718397)
(0.0398399 0.046686 0.155201)
(0.0525365 0.0552109 0.143295)
(0.0636488 0.061752 0.131372)
(0.0728936 0.0664486 0.118529)
(0.0798039 0.0693341 0.104845)
(0.084049 0.0703162 0.0902673)
(0.0851566 0.0690793 0.0743373)
(0.0825454 0.0651846 0.0561153)
(0.0619981 -0.0517639 0.314446)
(0.0755878 -0.0623982 0.295898)
(0.0884137 -0.0713742 0.272921)
(0.100254 -0.0790612 0.242412)
(0.110992 -0.0858825 0.202619)
(0.121665 -0.0929036 0.152292)
(0.133699 -0.101276 0.0910891)
(0.143713 -0.108079 0.0211775)
(0.0513336 -0.0317872 0.336691)
(0.0707823 -0.0394146 0.314655)
(0.0883076 -0.0448546 0.293747)
(0.10517 -0.0492514 0.265932)
(0.120974 -0.052961 0.227715)
(0.136556 -0.0568147 0.176953)
(0.153652 -0.0619086 0.112723)
(0.168111 -0.0666044 0.0368039)
(0.0352831 -0.0121226 0.366903)
(0.057772 -0.0178099 0.333913)
(0.0786145 -0.0210768 0.313856)
(0.0989041 -0.0232801 0.289321)
(0.118675 -0.0248688 0.254024)
(0.138575 -0.0262769 0.204586)
(0.160401 -0.0282218 0.139413)
(0.17915 -0.0298264 0.0602347)
(0.0265642 0.00551438 0.382403)
(0.0506172 0.0020187 0.342412)
(0.0728668 -0.000318653 0.323051)
(0.0941266 -0.00179326 0.301153)
(0.115129 -0.00269849 0.269031)
(0.136598 -0.00324027 0.222683)
(0.160401 -0.00349242 0.160004)
(0.181005 -0.00350946 0.0821742)
(0.0391192 0.021275 0.355921)
(0.0617898 0.0214856 0.329271)
(0.0824098 0.0210281 0.31098)
(0.102602 0.0206477 0.287022)
(0.122229 0.0204403 0.25205)
(0.141933 0.0208156 0.202967)
(0.163539 0.0222726 0.138416)
(0.182053 0.0239399 0.0600377)
(0.0537669 0.0393341 0.329319)
(0.073621 0.0430808 0.311125)
(0.0916515 0.0455599 0.291383)
(0.109025 0.0475614 0.264121)
(0.125255 0.0494553 0.22635)
(0.141144 0.0521277 0.176076)
(0.158398 0.0566595 0.112441)
(0.172874 0.0612422 0.0373539)
(0.0641092 0.0568993 0.310072)
(0.0783825 0.0644275 0.292845)
(0.0920602 0.0709189 0.270282)
(0.104829 0.076611 0.240055)
(0.116504 0.0818858 0.200636)
(0.127984 0.087847 0.150811)
(0.140533 0.0957366 0.0902393)
(0.150733 0.102626 0.021115)
(0.0272835 0.0637728 -0.00831771)
(0.0208459 0.0588349 -0.00685458)
(0.0217214 0.0519197 -0.00571239)
(0.0218201 0.0474143 -0.00531439)
(0.0211067 0.0435291 -0.00558885)
(0.0216778 0.0408395 -0.00628546)
(0.0222175 0.038394 -0.00716748)
(0.0226385 0.0362119 -0.00788871)
(0.0131529 0.0707357 -0.00901645)
(0.0105761 0.0626313 -0.0078878)
(0.0131986 0.0573864 -0.00516167)
(0.0148976 0.0509855 -0.00326243)
(0.0147333 0.0441659 -0.0022196)
(0.0156437 0.0429628 -0.00138784)
(0.0147046 0.0382225 -0.00115209)
(0.0150996 0.036684 -0.000989473)
(-0.00588349 0.0662653 -0.00758448)
(-0.00720797 0.0663322 -0.00764661)
(-0.00537752 0.0547725 -0.00414789)
(-0.00324872 0.047338 -0.00094212)
(-0.00187406 0.0402166 0.00116737)
(-0.000750104 0.0356989 0.00263183)
(-7.09402e-05 0.0318814 0.00345812)
(0.000842893 0.0295788 0.00378855)
(-0.0204964 0.0641815 -0.00799473)
(-0.0168187 0.0591632 -0.00855458)
(-0.0179125 0.0527694 -0.0049473)
(-0.0188905 0.046217 -0.00189199)
(-0.0185213 0.0398721 -7.38855e-05)
(-0.0182912 0.0369269 0.0011632)
(-0.0174925 0.0336076 0.00160781)
(-0.0155167 0.0314743 0.00169872)
(-0.0396839 0.067886 -0.00961338)
(-0.0290458 0.0533461 -0.00870318)
(-0.0293361 0.0513262 -0.00549935)
(-0.0276932 0.0424316 -0.00354129)
(-0.027032 0.0384012 -0.00223419)
(-0.0268038 0.0355702 -0.00147748)
(-0.0276346 0.0321156 -0.0011887)
(-0.0298002 0.0312487 -0.0011532)
(-0.0534018 0.0619295 -0.00996874)
(-0.0415804 0.0482128 -0.00776849)
(-0.0418116 0.0486982 -0.00522166)
(-0.0394576 0.0401275 -0.00382704)
(-0.0375639 0.0363301 -0.00303205)
(-0.0360316 0.0347151 -0.00263292)
(-0.0326445 0.0320153 -0.00261367)
(-0.0313051 0.0320958 -0.00268114)
(-0.0672631 0.0535522 -0.0093923)
(-0.0597612 0.0438907 -0.0074989)
(-0.053219 0.0415997 -0.00571388)
(-0.0497127 0.0367344 -0.00480811)
(-0.0472901 0.033404 -0.00447031)
(-0.045824 0.0308984 -0.00451867)
(-0.0446136 0.0284884 -0.00485073)
(-0.0429128 0.0263695 -0.00535559)
(0.00860938 0.0345088 0.0191464)
(0.0125369 0.0360189 0.0197474)
(0.0154638 0.0374144 0.0194282)
(0.0176883 0.0385896 0.0179606)
(0.0192391 0.0393092 0.0157089)
(0.0202245 0.039551 0.012902)
(0.0206963 0.0393223 0.00968177)
(0.0207031 0.0386665 0.00621816)
(-0.0037154 0.0304611 0.0246733)
(0.00258683 0.0326904 0.0239498)
(0.00641593 0.0345777 0.02524)
(0.00906578 0.036217 0.0250505)
(0.0109639 0.0373092 0.0236569)
(0.0122263 0.0378794 0.0211671)
(0.0129072 0.0378029 0.0180854)
(0.0131448 0.0372472 0.0146421)
(-0.0154285 0.0219808 0.0324725)
(-0.00870824 0.0266189 0.0265716)
(-0.00463618 0.0295319 0.0292598)
(-0.00178477 0.0317734 0.0307745)
(0.00055579 0.0330399 0.0309862)
(0.00249287 0.033428 0.0301172)
(0.004071 0.0330265 0.0284213)
(0.00536048 0.0319778 0.026089)
(-0.0207595 0.0185818 0.0278063)
(-0.0170617 0.0236481 0.0245023)
(-0.0151741 0.0278675 0.0278672)