/*--------------------------------*- C++ -*----------------------------------*\
| =========                 |                                                 |
| \\      /  F ield         | OpenFOAM: The Open Source CFD Toolbox           |
|  \\    /   O peration     | Version:  plus.master.MPPICInterFoam            |
|   \\  /    A nd           | Web:      www.OpenFOAM.com                      |
|    \\/     M anipulation  |                                                 |
\*---------------------------------------------------------------------------*/
FoamFile
{
    version     2.0;
    format      ascii;
    class       Cloud<basicKinematicMPPICParcel>;
    location    "10.6/lagrangian/kinematicCloud";
    object      positions;
}
// * * * * * * * * * * * * * * * * * * * * * * * * * * * * * * * * * * * * * //

93316
(
(-0.00349575 -0.0156859 0.000267938) 821
(0.0222856 -0.026401 0.000255161) 860
(0.00170392 0.0788503 0.000277718) 2376
(0.00375871 -0.0427864 0.000305479) 2089
(0.027456 -0.0592208 0.000275893) 2110
(-0.023271 -0.0457324 0.000291446) 2075
(0.0187547 -0.0455938 0.000278085) 2107
(-0.00368661 0.0187965 0.000267646) 1119
(0.0194556 0.039597 0.000262381) 2354
(-0.00207309 0.0697104 0.000251034) 2374
(0.0305322 0.0514053 0.00029019) 2357
(0.0375297 0.0175406 0.000259711) 1545
(-0.0188033 0.00224694 0.000270044) 550
(0.0271668 0.020099 0.000307337) 300
(0.0586742 -0.00290533 0.000263655) 1532
(-0.00442128 0.0391177 0.000281308) 2377
(0.000481508 -0.0157701 0.000266342) 829
(-0.0449182 0.0214313 0.000291454) 1795
(0.0308195 0.0185157 0.000272473) 292
(0.0180178 0.0644606 0.000289346) 2366
(-0.022737 0.0226647 0.000304856) 531
(-0.00411241 -0.093137 0.000279375) 3212
(-0.0432751 -0.0224517 0.000244605) 1826
(-0.0396988 -0.0171591 0.000290268) 1825
(0.022968 -0.024357 0.000278556) 859
(-0.00905768 -0.0575329 0.000245789) 2084
(-0.0213987 0.0211631 0.000293917) 530
(0.00117627 0.100726 0.000259917) 3494
(-0.0418925 -0.0218734 0.000272858) 1826
(0.0316912 -0.0240562 0.000299936) 1505
(-0.0225169 0.0224817 0.000267761) 530
(0.0344501 -0.0166521 0.000297015) 1513
(-0.0327111 0.0149801 0.000278193) 540
(-0.0207659 0.0207018 0.000309545) 529
(0.00423278 0.0374395 0.000296736) 1472
(0.0381158 0.0175803 0.000265271) 1545
(-0.00147803 0.0600866 0.000264635) 2373
(-0.000376086 0.070638 0.000312056) 2375
(-0.0301451 0.0270335 0.000294422) 1785
(-0.08047 4.83184e-05 0.000256764) 1816
(0.0133373 -0.0488707 0.000264048) 2099
(-0.0212212 -0.0387598 0.000280336) 2074
(0.00845059 0.0223431 0.000298012) 1096
(-0.0429587 0.0201004 0.000267042) 1794
(-0.0191913 0.0374884 0.000297675) 2385
(0.0302201 -0.021175 0.000275191) 1365
(-0.00704673 -0.0893497 0.000288696) 3211
(-0.00946275 0.016386 0.000301767) 1126
(-0.0181759 -0.0403694 0.000242425) 2074
(-0.0141937 0.0298285 0.000274842) 1131
(0.0395614 -0.0155256 0.000281045) 1513
(-0.0160413 0.0318093 0.000271641) 1132
(0.0174051 -0.0212292 0.000246079) 857
(-0.00403881 -0.0609126 0.000277568) 2093
(0.0296872 -0.0123319 0.000264135) 259
(0.0182127 0.0405585 0.000244782) 2354
(0.0226567 0.0262535 0.000284151) 1092
(0.00182976 0.0170845 0.000263207) 1110
(-0.0181492 0.0423219 0.000273234) 2386
(0.0107939 0.0589032 0.00028024) 2365
(0.043896 -0.0165343 0.000306255) 1514
(0.0351599 -0.0177019 0.000281401) 1513
(0.0358083 0.0140972 0.000268913) 1545
(-0.0209454 0.0386954 0.000276751) 2386
(0.0196035 -0.00178169 0.00029431) 271
(-0.0416047 -0.0235893 0.000293752) 1826
(0.00484681 0.100638 0.000287971) 3494
(0.0116911 0.0171302 0.000292161) 1086
(-0.100872 0.000363886 0.000278786) 2934
(0.0423504 -0.0169022 0.000264237) 1514
(0.0178357 -0.0215365 0.000263184) 857
(0.0222326 0.0262193 0.000300534) 1092
(0.0166799 0.0429191 0.000290335) 2354
(0.0175852 0.037427 0.000243316) 2353
(0.00896429 0.0216285 0.000273828) 1096
(0.0246041 -0.0254493 0.000271298) 860
(0.0596468 -0.000761933 0.000295038) 1533
(-0.0169631 -0.00240669 0.000295385) 558
(0.0129394 0.0272935 0.000286091) 1098
(0.000661675 0.0218567 0.0002706) 1111
(0.00411279 0.0365596 0.000262078) 1473
(-0.0117792 -0.047351 0.000269778) 2083
(-0.0378589 0.0185035 0.00027932) 1793
(0.0220792 0.019898 0.000272027) 298
(-0.0256705 0.0256679 0.000289715) 1400
(0.0104947 0.0260428 0.000279959) 1097
(0.0216349 -0.0151684 0.000279626) 248
(0.00524978 0.0760215 0.000280372) 2375
(-0.0170972 0.00697061 0.000252915) 534
(-0.0355251 0.00663227 0.000272414) 1402
(-0.0057756 0.0199572 0.000273303) 1119
(0.0136425 0.0149637 0.000272488) 1086
(0.0180842 -0.0504191 0.000261387) 2107
(-0.0417397 -0.0152144 0.000258448) 1826
(0.0244264 -0.0156928 0.000291367) 258
(-0.0256334 -0.0253404 0.000317435) 580
(0.0300758 0.0168407 0.000282543) 292
(-0.0816297 0.00513458 0.000257492) 1816
(-0.00868592 0.0491423 0.00026027) 2379
(0.0186398 0.000644959 0.000278547) 270
(-0.0904367 0.00255295 0.0002799) 2931
(0.00921429 0.0287422 0.00026581) 1106
(0.0551017 0.00258357 0.000265858) 1532
(-0.0277151 0.00319192 0.000294712) 554
(0.0191317 -0.00954556 0.000279029) 255
(-0.0361449 0.018411 0.000297714) 1793
(-0.00152382 0.0735718 0.000270974) 2375
(-0.0192505 0.0376203 0.000281046) 2385
(0.0359844 -0.0247223 0.000319253) 1506
(-0.0545449 0.0273541 0.000281729) 1797
(-0.0254286 0.0475628 0.000290234) 2387
(0.031999 -0.0205971 0.000292178) 1365
(-0.00277243 -0.0537708 0.000301642) 2091
(0.0321647 0.0159861 0.000281393) 292
(0.00841772 0.0309801 0.000277069) 1107
(0.0185862 -0.0386805 0.000263917) 2105
(0.0130677 0.0199511 0.000280973) 1096
(-0.0483754 -0.0229035 0.00027888) 1827
(0.0217595 -0.00919927 0.000266655) 256
(0.0185595 -0.0382169 0.000261502) 2105
(0.0507311 0.00332521 0.000287405) 1531
(0.0036055 -0.0444086 0.000299831) 2090
(0.0213826 -0.0234295 0.000304627) 859
(-0.0227101 -0.0454604 0.00029534) 2075
(0.0226129 0.0116342 0.000289499) 288
(-0.0324426 0.00610507 0.000279632) 547
(0.022952 0.0236098 0.000260668) 1091
(0.00419093 -0.0891919 0.000320028) 3211
(0.0170624 0.0269144 0.000299968) 1099
(0.0494327 0.00154111 0.000256227) 1531
(0.0237445 -0.0251974 0.000284589) 860
(0.00789686 0.0315379 0.000285109) 1107
(0.0208959 0.0431233 0.000259071) 2354
(0.0173152 0.0478541 0.000253703) 2355
(0.0227742 0.0165838 0.000274394) 297
(-0.000929115 0.100726 0.00026726) 3494
(0.0145203 0.0343346 0.000268759) 1471
(0.0066376 -0.018876 0.000279773) 839
(-0.000929202 0.0729129 0.000267828) 2375
(-0.0199559 0.0423951 0.000260797) 2386
(-0.0256705 0.0256747 0.000312783) 1476
(0.0239103 0.0105881 0.000268008) 289
(-0.0404417 -0.0171225 0.00028206) 1826
(-0.000440488 0.019066 0.00127085) 1111
(0.0177201 -0.0215977 0.000256183) 857
(-0.0241694 -0.0241251 0.00028127) 580
(-0.0525251 0.00607203 0.000269964) 1803
(0.00118665 0.025797 0.000275366) 1113
(-0.0428978 -0.0184551 0.000267916) 1826
(0.0251243 -0.0301217 0.000287457) 2113
(0.0106586 -0.0181878 0.0002787) 847
(0.0171742 0.021975 0.00023675) 1089
(0.021337 -0.00634237 0.000317325) 263
(0.0205097 0.0406577 0.000257646) 2354
(0.0231273 -0.0255874 0.000285952) 860
(-0.0217519 -0.00893498 0.000263915) 568
(0.0101761 -0.0449311 0.000254882) 2098
(-0.0417496 -0.0184635 0.000246666) 1826
(0.034383 6.98616e-05 0.000264957) 276
(-0.00575389 0.0178364 0.000268559) 1118
(-0.00177976 -0.0554886 0.00024565) 2092
(0.0152102 -0.0446444 0.000262813) 2098
(-0.0166625 0.0360344 0.000264263) 2385
(0.00637526 -0.0157421 0.000251408) 838
(0.00891323 0.0160215 0.000250755) 1094
(-0.0918468 -0.00356695 0.000292249) 2931
(0.00325044 0.0158804 0.000285872) 1102
(0.00645958 -0.0568557 0.000258961) 2100
(0.0167152 0.0102001 0.000262185) 286
(0.0237138 -0.0252591 0.000281836) 860
(0.00207349 0.0158414 0.000278733) 1109
(-0.0502877 0.0202687 0.000269338) 1796
(0.0391636 -0.0169172 0.000291205) 1513
(-0.0165304 0.000869417 0.000255408) 550
(-0.0129563 0.0328876 0.000250741) 1132
(-0.016036 -0.029159 0.000293084) 819
(0.0186422 0.000671113 0.000280865) 270
(-0.10088 -0.000576095 0.000274259) 2934
(-0.0274346 -0.0270024 0.000318911) 1833
(0.0313798 -0.010543 0.000261036) 267
(0.0155617 0.00573894 0.000277613) 277
(-0.0412342 0.0187613 0.000243467) 1794
(-0.0404828 0.0183165 0.000273747) 1794
(-0.0409439 -0.0180711 0.000284735) 1826
(-0.000893014 -0.0974048 0.000253167) 3213
(0.0306955 0.0234571 0.000288909) 1553
(0.0176801 0.0230687 0.000262966) 1090
(0.00152077 -0.0673662 0.000280596) 2094
(-0.0282898 -0.0547618 0.000285556) 2077
(0.0228417 -0.0242382 0.000279775) 859
(0.0307593 0.0237206 0.000277246) 1553
(0.0177565 0.0637473 0.000280031) 2366
(0.00907829 0.0244519 0.000274117) 1097
(0.0280455 0.0590555 0.000285208) 2358
(-0.0268919 -0.0264715 0.00031045) 1406
(-0.000265455 -0.0194962 0.000283566) 831
(-0.00120843 -0.102766 0.000290295) 3214
(0.0245305 0.0215769 0.000256695) 299
(0.0464608 -0.0145855 0.000292084) 1522
(0.0185574 0.0405339 0.000257612) 2354
(0.0337958 0.0157218 0.000302843) 1370
(0.00135087 -0.0997244 0.000259777) 3214
(0.0421502 -0.0119288 0.000243704) 1522
(-0.0218815 0.0219897 0.000298925) 1138
(-0.0178731 -0.0342152 0.000261834) 2073
(0.0242902 -0.0156098 0.000263671) 258
(0.0253654 -0.0162525 0.000306463) 258
(-0.000905536 0.0769344 0.000282457) 2376
(-0.024931 -0.0451018 0.000289991) 2075
(-0.0639322 -0.0145529 0.000310078) 1822
(0.0200143 -0.0390135 0.000279692) 2106
(0.0178118 0.0229928 0.000300997) 1090
(0.0424551 -0.0159353 0.000294778) 1514
(-0.0425084 -0.0229402 0.000274758) 1826
(0.0596408 0.00145124 0.000283974) 1533
(-0.0189173 0.0188293 0.00029253) 528
(-0.025469 -0.02528 0.000259412) 580
(-0.0572148 -0.012831 0.000260418) 1820
(0.0244646 -0.0254345 0.000283489) 860
(-0.0922038 0.0019351 0.000275813) 2931
(0.00690939 0.0483685 0.000278106) 2362
(-0.0227156 -0.0224969 0.000284478) 579
(-0.00952688 -0.0209562 0.000289877) 816
(0.0203206 -0.0243666 0.000278231) 859
(-0.0325896 0.0158409 0.000280027) 1401
(0.0186352 0.000799932 0.000297653) 270
(0.00454435 -0.0929441 0.000278145) 3212
(-0.0634168 -0.0162591 0.000277888) 1822
(0.0129927 0.0203531 0.000268592) 1096
(-0.0226479 0.0226396 0.000277391) 531
(0.0257325 -0.00982775 0.000272978) 257
(0.030593 -0.0252677 0.000326511) 1505
(-0.00122938 0.0899803 0.000278897) 3491
(0.00360338 0.0171628 0.000264067) 1102
(0.015761 -1.30542e-05 0.000226776) 269
(0.0151083 -0.00958792 0.000262437) 253
(0.0141629 -0.0353004 0.000292087) 1440
(-0.0254082 0.0251652 0.000299271) 532
(0.0174646 -0.0214424 0.000264403) 857
(0.0461474 -0.0150691 0.000289986) 1522
(-0.00907301 0.0210859 0.000265464) 1128
(0.0133497 0.0466602 0.000264197) 2362
(-0.0195787 -0.0373677 0.000280282) 2073
(-0.0742258 0.0262916 0.000311413) 1800
(0.000575782 0.100845 0.000269819) 3494
(-0.0178569 0.042461 0.000274666) 2386
(0.0306778 0.0230972 0.000272493) 1553
(-0.0224934 0.0412187 0.00026359) 2386
(-0.024339 -0.0416175 0.000293094) 2074
(0.0309707 0.0187602 0.000287969) 292
(0.015759 0.0019556 0.000240894) 269
(-0.00762385 -0.0678024 0.000288746) 2094
(-0.00993911 -0.0249605 0.000247663) 817
(-0.0168209 0.0351473 0.000292185) 2385
(0.000628291 -0.0944218 0.00027796) 3212
(-0.0329289 0.0160697 0.000273918) 1401
(-0.0166584 0.0323513 0.000297528) 1475
(0.0254741 -0.0536529 0.000309545) 2108
(0.0197132 -0.0230201 0.000284453) 858
(-0.0317204 0.0148386 0.000294573) 540
(-0.0272726 -0.0269021 0.0003227) 1406
(-0.0235304 0.0104921 0.000282567) 537
(-0.0408983 -0.0180844 0.000277534) 1826
(0.0569327 -0.00127463 0.000265408) 1532
(0.0203155 -0.00833334 0.000255933) 255
(-0.000205755 0.0743801 0.000261612) 2375
(-0.00845806 -0.0152268 0.000312573) 813
(0.0312405 0.0222705 0.000316568) 1553
(-0.0241948 0.024146 0.000318422) 532
(-0.0198547 0.0199712 0.000237169) 1137
(-0.0642469 -0.0361613 0.000298631) 1831
(0.0492643 0.00120188 0.000257377) 1531
(0.0145445 0.0144977 0.000236775) 294
(-0.0173095 -0.0035496 0.000283238) 558
(0.0171193 0.0336189 0.000286613) 1471
(0.0134531 -0.0297322 0.000284184) 851
(-0.0696761 -0.0166919 0.000272383) 1823
(0.0245234 -0.00140848 0.000283367) 272
(-0.0455506 0.0191112 0.000253703) 1795
(0.00743793 -0.0521437 0.000274554) 2099
(0.018285 0.0371123 0.000302335) 2353
(0.0303654 -0.0117335 0.000250645) 259
(0.0201612 0.0394162 0.000279215) 2354
(-0.0226791 0.0424426 0.000308788) 2386
(-0.00373573 0.0382929 0.000262228) 2369
(-0.0374694 0.0185963 0.000289192) 1793
(-0.00089634 0.0157727 0.000309797) 1109
(-0.0254658 0.00938416 0.000301641) 537
(0.0428305 0.0234598 0.000265749) 1547
(0.0176385 0.0224609 0.000254575) 1089
(0.0199682 0.0237561 0.00025271) 1090
(-0.0102014 0.0622519 0.000252582) 2381
(0.0125702 0.0279841 0.000294532) 1098
(-0.00200333 0.0777592 0.000275847) 2376
(-0.012271 0.0618483 0.00026876) 2381
(0.0249799 -0.0290116 0.000301156) 1441
(-0.00541427 0.0204271 0.000294826) 1119
(0.00564098 -0.0327532 0.000265966) 843
(0.00625131 -0.0231644 0.000306636) 840
(-0.0534623 -0.0261896 0.000310793) 1829
(0.0195027 -0.00398907 0.000315375) 263
(-0.0222336 -0.0219428 0.000241429) 578
(0.00231709 0.0341212 0.000293421) 1116
(-0.0100768 -0.015065 0.000265133) 813
(-0.0390684 0.0186549 0.000284508) 1793
(-0.0459225 -0.0218807 0.000241735) 1827
(-0.0222175 -0.0390904 0.000265011) 2074
(0.0202229 0.0211072 0.000251152) 1089
(0.020629 -0.0231774 0.000274352) 858
(-0.0474897 -0.0239921 0.000271292) 1827
(-0.0191828 -0.0441176 0.000257345) 2074
(0.00665947 -0.0929136 0.000251346) 3212
(-0.0647043 0.00794441 0.0002685) 1805
(0.0196739 0.0391117 0.000266194) 2354
(-0.0163664 -0.0325915 0.000301729) 1436
(0.0257547 3.78078e-05 0.000273544) 273
(0.0184593 0.0400753 0.000233479) 2354
(-0.0136245 0.0492977 0.000262084) 2379
(-0.0236014 -0.0233272 0.00025767) 579
(0.0157917 -0.0395261 0.000279993) 2105
(-0.0386008 0.018509 0.000272619) 1793
(0.024034 -0.0155486 0.00030974) 249
(-0.0226561 0.0226478 0.000324538) 531
(-0.0338056 -0.0171201 0.000293452) 1405
(-0.0174707 0.0174206 0.000301929) 527
(0.0153239 -0.00766156 0.000233804) 253
(0.0138224 0.0271138 0.00028132) 1098
(-0.096047 0.00677432 0.000273812) 2932
(-0.0283336 -0.00854142 0.000283147) 562
(0.00315111 0.0383729 0.000304512) 2369
(-0.0456313 0.0203151 0.000267935) 1795
(0.00253203 -0.0896134 0.000263978) 3211
(0.0357436 0.0165706 0.000257849) 1545
(-0.0487386 0.0248688 0.000261685) 1796
(-0.0253648 -0.0250689 0.000274233) 580
(0.00823253 -0.0160019 0.000284442) 846
(-0.008725 -0.0152048 0.000299825) 813
(-0.0156675 0.042017 0.0002608) 2386
(-0.0118583 0.0198672 0.000258741) 1127
(0.0181309 0.0383435 0.000275027) 2353
(-0.00235208 0.0449963 0.000243659) 2370
(-0.0232185 -0.0951133 0.000298342) 3205
(0.0226799 -0.0448859 0.000278193) 2107
(-0.00048838 -0.0195034 0.000289915) 831
(0.0195147 -0.00786904 0.000288997) 255
(-0.0171603 -0.00689007 0.000300623) 566
(-0.0401796 0.0186659 0.000250703) 1794
(-0.0255184 -0.0252506 0.000287552) 580
(-0.0338275 -0.0170577 0.000267841) 1405
(0.0204967 -0.0149133 0.000286522) 248
(0.0310256 -0.0113836 0.00023379) 259
(0.0430281 0.014284 0.000283813) 1538
(-0.0222448 -0.0396718 0.000270019) 2074
(-0.0020933 -0.0999137 0.000275095) 3214
(0.0582012 0.00106528 0.000275199) 1532
(-0.0197245 0.0414585 0.000256922) 2386
(-0.019096 -0.0333278 0.000310212) 2073
(0.00132573 -0.0885227 0.000289092) 3210
(0.0417247 0.000613019 0.000237243) 1529
(0.0243567 -0.00878803 0.000301986) 265
(-0.000196059 -0.0607547 0.000276067) 2093
(0.0210026 0.010129 0.000256553) 288
(-0.0123439 0.0314351 0.000279892) 1132
(0.0494908 -0.000704056 0.000316556) 1531
(0.00372817 -0.0878682 0.000324468) 3210
(-0.0257859 0.0257101 0.000306855) 1400
(-0.0652375 0.00454436 0.000283205) 1814
(-0.0219575 -0.0396677 0.000279781) 2074
(-0.0831966 -0.0010651 0.000296373) 2929
(-0.0218163 0.0383837 0.000273711) 2386
(0.0234476 0.0110187 0.000271199) 289
(-0.0655428 0.00747208 0.000307096) 1806
(0.0317865 -0.024066 0.000276956) 1505
(-0.0746781 0.000993328 0.000268934) 1815
(-0.0188372 -0.0454545 0.000255998) 2075
(0.0157783 0.0381065 0.000249323) 2353
(-0.0267793 0.0109487 0.00029783) 538
(0.0188449 0.0229853 0.000288043) 1090
(0.0310248 0.0128137 0.000287647) 292
(0.010585 -0.0507856 0.000261775) 2099
(0.0177434 -0.0450592 0.000285298) 2106
(-0.025442 0.0258491 0.000265951) 1476
(-0.0139832 0.0561205 0.000290253) 2380
(0.0234235 0.0225718 0.000282432) 299
(-0.0171497 -0.0329044 0.00028243) 1436
(-0.0255923 -0.0447154 0.000253542) 2075
(0.0235379 0.0270518 0.000289955) 1092
(0.00456355 0.047226 0.00026078) 2370
(0.0102967 -0.058345 0.000256645) 2100
(-0.0180722 -0.0414441 0.00027945) 2074
(0.00128888 -0.0887447 0.000307291) 3210
(0.0207229 0.0233345 0.000297329) 1090
(0.0156149 0.0349471 0.00030696) 2353
(-0.0226041 0.0412372 0.000270458) 2386
(0.0161435 0.00796669 0.000289196) 286
(-0.0430154 -0.0229976 0.000270292) 1826
(-0.041199 0.0191253 0.000252982) 1794
(0.0355296 0.000956757 0.000298153) 276
(-0.0417221 -0.0223846 0.00026936) 1826
(-0.0184827 -0.0336213 0.000290566) 2073
(0.0410307 -0.0140827 0.000262949) 1521
(0.0318482 0.0189598 0.000283733) 1370
(-0.0897956 0.00113341 0.000286696) 2931
(0.010891 -0.0157963 0.000268968) 854
(0.0168987 0.0221108 0.000271706) 1089
(-0.0232696 -0.0231002 0.000307861) 579
(0.0247236 0.0264722 0.000303849) 1470
(-0.0961188 -0.00402417 0.000283605) 2933
(-0.0010154 -0.0186721 0.000284162) 830
(-0.000383253 -0.0973272 0.000272368) 3213
(-0.0241037 0.0240286 0.000299899) 531
(-0.0358269 0.00521767 0.000279921) 1402
(-0.0827745 0.00333035 0.000284779) 2929
(-0.0433696 0.0223212 0.000295892) 1795
(-0.0080712 -0.04635 0.00031577) 2082
(0.00079024 0.091012 0.000265721) 3491
(-0.0401227 -0.0176887 0.000275619) 1826
(-0.00948059 0.0622782 0.000264489) 2381
(0.02564 -0.0257048 0.000281123) 1441
(-0.105493 -0.000876536 0.000266531) 2935
(-0.0155199 0.0282683 0.000290782) 1131
(0.0347758 -0.0117397 0.000269131) 1367
(-0.0172212 -0.032974 0.000244997) 1436
(-0.00603095 -0.0155423 0.000282288) 821
(0.000253801 -0.0571772 0.000279894) 2092
(0.0313097 0.0183415 0.000262282) 1370
(0.0164231 0.0154415 0.000277142) 295
(0.0200624 0.0236224 0.000293302) 1090
(-0.0231522 -0.0228739 0.000277863) 579
(-0.0503595 -0.0202553 0.000268852) 1828
(-0.081161 0.000885164 0.000279935) 1816
(0.0155076 0.0349943 0.000285556) 1471
(0.0153867 -0.0621513 0.000291192) 2101
(-0.0229498 0.0532812 0.000308593) 2388
(-0.0260566 -0.0257404 0.000287579) 1406
(0.00261355 0.062139 0.000258109) 2373
(0.00895217 0.021985 0.000268702) 1096
(-0.0378348 0.0188389 0.000306828) 1793
(-0.0810256 0.00117979 0.000276061) 1816
(-0.0217761 -0.00304232 0.000308959) 559
(0.017695 0.0924165 0.000314181) 3484
(-0.0250688 0.0248569 0.000258843) 532
(0.0163755 -0.0400561 0.000302487) 2105
(0.025066 -0.0255912 0.000263486) 860
(-0.0410955 -0.0178972 0.000300124) 1826
(0.00156807 0.0186858 0.000274097) 1110
(-0.0230342 -0.0227722 0.000289862) 579
(-0.0649809 0.0087061 0.000295091) 1806
(-0.0269164 0.0102175 0.000285064) 538
(0.0200083 -0.0229846 0.000292088) 858
(0.0033814 0.0171126 0.000299429) 1102
(0.0246941 0.0264868 0.000297625) 1470
(-0.0249916 0.025202 0.000287908) 1140
(0.0132663 0.036202 0.000318446) 2353
(0.0360337 0.0133632 0.000302462) 1545
(-0.0159256 -0.0291371 0.000292774) 819
(0.0091099 0.0224695 0.000257814) 1096
(0.0424541 0.0163246 0.000275213) 1546
(-0.0170516 -0.00264946 0.000295914) 558
(0.0192648 0.0452534 0.0002983) 2355
(0.0069505 0.0212534 0.000255123) 1103
(0.0233183 0.0267055 0.000251945) 1092
(-0.0157434 0.00303122 0.00023608) 541
(0.0158847 -0.0309043 0.000264681) 852
(0.0427146 -0.0148776 0.000331338) 1522
(0.0435809 -0.015624 0.00027016) 1514
(-0.0413754 -0.0229166 0.000315472) 1826
(0.0336989 0.00249466 0.000302035) 276
(-0.104518 0.00259237 0.0132038) 2991
(-0.0425525 -0.0203226 0.000277075) 1826
(-0.0237616 -0.0426677 0.000270315) 2075
(-0.00462052 -0.0889968 0.000268277) 3210
(-0.0256786 -0.025606 0.00026878) 580
(-0.0343483 -0.0170193 0.000292872) 1825
(-0.0875114 -0.00798681 0.000261742) 2930
(-0.0534656 0.0305777 0.000281038) 1797
(0.0145533 0.0306041 0.000283548) 1100
(-0.00443202 0.022807 0.000293212) 1120
(0.0596338 0.00157514 0.000273417) 1533
(-0.0627969 0.0106411 0.000274692) 1805
(0.0307248 -0.0203583 0.000283337) 1365
(-0.024646 0.0451748 0.000312669) 2387
(-0.0432646 0.0185379 0.000252147) 1794
(0.0192195 0.00677681 0.000317579) 279
(0.030643 6.05278e-05 0.000266139) 275
(-0.0759834 0.00280018 0.000260978) 1815
(0.0117599 -0.0599695 0.000269757) 2101
(0.0493425 -0.000773512 0.00029152) 1531
(0.0309846 -0.0182515 0.00027211) 260
(-0.0241527 0.024152 0.00025631) 532
(0.0172688 0.0341546 0.000293555) 2353
(0.0205445 -0.00886564 0.000262401) 255
(-0.0266524 -0.00528476 0.000237513) 561
(-0.0216337 -0.0580576 0.000249505) 2077
(0.00159349 0.0297986 0.000265358) 1114
(-0.000596752 -0.0578202 0.000318557) 2092
(-0.0535579 -0.023385 0.00027018) 1828
(-0.0150535 0.0397488 0.000267311) 2385
(0.0237276 -0.0252876 0.000273129) 860
(0.00389785 -0.0173373 0.000270711) 838
(0.0431876 0.0176145 0.000272727) 1546
(-0.0187522 -0.0320219 0.000316146) 1436
(0.0577862 -0.00125912 0.000277156) 1532
(-0.0461511 -0.0222385 0.000278103) 1827
(-0.00578212 -0.0155536 0.000284908) 821
(-0.0232941 0.0230754 0.000288661) 531
(0.0234485 -0.024905 0.00027989) 860
(0.0256934 -0.0259456 0.000297078) 1441
(0.0242167 -0.0253362 0.000283827) 860
(0.0123408 0.021388 0.000266585) 1096
(-0.0256712 -0.0255592 0.000272948) 580
(-0.0186491 -0.0186298 0.000282456) 576
(-0.0210475 0.0210445 0.000286528) 530
(-0.0481759 0.0242348 0.000287392) 1795
(-0.0394709 -0.0166307 0.000286536) 1825
(-0.0838437 0.000282416 0.000287983) 2929
(0.0101928 -0.0599573 0.000273282) 2101
(0.00455335 0.100742 0.000281247) 3494
(0.0157512 -0.00159769 0.000297134) 269
(-0.0777276 0.00601266 0.000273528) 1816
(-0.00939014 0.0675195 0.00028157) 2382
(-0.0155212 -0.0334258 0.000291024) 1436
(-0.100804 0.00445672 0.000297696) 2934
(0.0420434 0.0159386 0.000292224) 1546
(0.058458 -0.00296341 0.000276549) 1532
(0.0394046 -0.0167876 0.000270786) 1513
(0.0356627 0.0148284 0.000257874) 1545
(-0.0188139 0.0439853 0.000280039) 2386
(0.0565319 7.63099e-05 0.000290879) 1532
(0.0145701 0.0572349 0.000288563) 2364
(-0.078662 -0.00156906 0.000290801) 1816
(-0.0208934 -0.0383883 0.000263705) 2074
(-0.00417627 -0.0314923 0.000248202) 827
(0.0346384 0.0162519 0.000315356) 1545
(0.023735 -0.0252222 0.000284595) 860
(-0.0344649 -0.0167419 0.000301444) 1825
(-0.0256694 0.0256686 0.000267693) 1400
(-0.0484257 0.0235568 0.000231425) 1795
(-0.0237805 -0.0237823 0.000273494) 811
(-0.0209893 -0.00807537 0.000266065) 567
(-0.018419 -0.0167533 0.000260607) 576
(0.0404396 -0.0164743 0.000267422) 1514
(-0.0166583 -0.0344944 0.000258189) 2073
(0.0241104 0.00947819 0.000270612) 289
(-0.0130372 0.0214057 0.000264987) 1128
(0.0206121 -0.0150093 0.000276212) 248
(0.019146 -0.0367329 0.000302612) 2105
(-0.00377549 -0.0968543 0.0002934) 3213
(0.00519452 -0.104802 0.000287714) 3215
(0.00228519 -0.0386921 0.000270437) 2089
(0.00189048 0.100742 0.000264026) 3494
(-0.0218038 -0.00284404 0.000297403) 559
(-0.0348215 -0.015938 0.000291286) 1825
(-0.0203548 0.0380448 0.000298053) 2385
(-0.0256928 -0.0254942 0.000279692) 580
(0.013575 -0.0176241 0.000247738) 855
(0.0375597 0.018925 0.00028678) 1545
(0.000963424 0.0727139 0.000282835) 2375
(-0.0157524 -0.000973609 0.000293404) 549
(-0.00106396 -0.0541883 0.000294581) 2092
(-0.0208717 -0.020446 0.000273867) 577
(-0.041493 -0.0235352 0.00029201) 1826
(-0.0125764 -0.0285077 0.000290733) 819
(0.0582763 -0.00208451 0.000305055) 1532
(-0.0243449 -0.0507228 0.000284867) 2076
(0.0246049 -0.0461904 0.000282743) 2107
(-0.0226587 0.0225448 0.000285139) 531
(-0.0473802 -0.022321 0.000277457) 1827
(-0.00476929 0.0384424 0.00026542) 2377
(-0.000233812 0.0362293 0.000254324) 1473
(0.0187258 0.0409592 0.000280842) 2354
(-0.0419735 0.020985 0.000282507) 1794
(-0.0361794 -0.0189699 0.000290848) 1825
(-0.0365289 0.0182346 0.000262889) 1793
(0.00382133 -0.102906 0.000261772) 3215
(-0.0417339 -0.0235916 0.000288355) 1826
(0.0119164 0.0520335 0.000273346) 2363
(0.00251413 0.0780743 0.000292327) 2376
(-0.0162772 -0.00416396 0.000277723) 558
(-0.0516184 -0.0214486 0.000265024) 1828
(-0.0362203 0.0183485 0.00030551) 1793
(0.0211261 0.02483 0.000260532) 1091
(-0.019618 -0.0385352 0.000278669) 2073
(0.00317093 0.016888 0.000287001) 1102
(-0.00893511 0.0545503 0.000268738) 2380
(-0.0606681 -0.0298062 0.000267713) 1830
(0.0270391 0.011969 0.000276023) 290
(0.000164537 0.0895277 0.000289632) 3491
(-0.0236869 0.0234862 0.000305514) 531
(-0.0256852 0.0257099 0.000287764) 1476
(-0.0275011 -0.0270964 0.000282506) 1833
(0.0230237 0.0268657 0.00031557) 1092
(0.0143589 -0.0294244 0.000253083) 851
(0.0442224 -0.0126559 0.000260618) 1522
(0.000337061 -0.0208929 0.000303217) 831
(-0.006041 -0.0155314 0.000285732) 821
(-0.00155685 0.100621 0.000291844) 3494
(-0.0273133 -0.0270524 0.000289727) 1406
(-0.0207578 0.0503271 0.000255762) 2388
(0.0207879 0.0394878 0.000263946) 2354
(-0.0256275 -0.0252118 0.00030568) 580
(0.0150109 0.0103195 0.000303765) 285
(-0.0589823 0.0117004 0.000287613) 1805
(0.0444906 -0.013614 0.000277747) 1522
(-0.00353354 0.0156912 0.000290739) 1117
(0.0194605 -0.0442037 0.000259747) 2106
(-0.0233715 -0.0231336 0.000262993) 579
(-0.0252252 0.0448153 0.000312867) 2387
(0.022866 0.0279511 0.000314114) 1470
(0.00591495 -0.052749 0.000290116) 2091
(0.000667219 0.0741334 0.000260198) 2375
(-0.0221539 -0.0221337 0.000310832) 578
(0.0598856 -0.00080248 0.000266081) 1533
(0.0192063 -0.036957 0.000293255) 2105
(0.0236321 -0.0461875 0.000243341) 2107
(-0.0802272 0.000234204 0.000263805) 1816
(-0.000449408 0.0577524 0.000290867) 2372
(-0.0217372 0.050018 0.000258799) 2388
(-0.0187608 0.00230483 0.000282254) 550
(-0.000111748 -0.0210273 0.000274849) 831
(-0.0532387 -0.0201829 0.000285226) 1828
(0.0356076 -0.012494 0.000302364) 1366
(-0.000828721 -0.0935861 0.000256557) 3212
(-0.0181648 -0.0380386 0.000275968) 2073
(0.0127175 0.0576519 0.000272847) 2364
(0.0366958 -0.010611 0.000295377) 1367
(0.0313887 0.0220719 0.000286485) 1553
(0.0390683 -0.0189074 0.00030519) 1513
(-0.082741 -0.000118851 0.00025656) 2929
(-0.0272515 -0.0269035 0.000262718) 1406
(-0.0648242 0.0273699 0.000289158) 1798
(-0.0502296 0.020393 0.000279025) 1796
(0.0263819 -0.0312184 0.000321245) 2113
(-0.0294871 0.0605077 0.00027615) 2390
(-0.0582211 0.00936286 0.000302541) 1804
(0.018259 -0.00130925 0.000277203) 270
(0.0204657 0.0243358 0.000291148) 1091
(0.0460501 0.0146512 0.000284603) 1538
(-0.0810497 0.00336321 0.000252568) 1816
(-0.0176474 0.0320489 0.000274676) 1475
(0.0501154 0.00339013 0.000259148) 1531
(0.0317378 -0.023823 0.000262715) 1505
(-0.00701022 0.0560016 0.000264804) 2380
(0.0175469 0.0449395 0.000292734) 2354
(0.012351 -0.032183 0.000281361) 852
(-0.0171297 0.0355631 0.000298522) 2385
(-0.00211962 -0.0578687 0.000304595) 2092
(-0.0470177 0.0219034 0.00028643) 1795
(-0.0239405 -0.00527796 0.000261737) 560
(0.0458613 0.016045 0.000298011) 1538
(-0.0253396 0.0252878 0.000307976) 532
(-0.0667527 0.00443764 0.000284655) 1814
(-0.0321441 0.0154435 0.000263356) 540
(-0.100834 0.00585749 0.000287755) 2934
(-0.0498749 0.0255194 0.000242896) 1796
(-0.0598461 0.0271058 0.000274281) 1798
(0.0329076 0.016275 0.000290113) 1370
(0.0266452 0.0244685 0.000273153) 1371
(0.0200096 0.0236975 0.000251934) 1090
(0.0289361 0.0626646 0.000285957) 2358
(-0.0213657 0.0391351 0.000272144) 2386
(-0.00384021 0.0329319 0.000286474) 1123
(0.0184585 -0.00382576 0.000264724) 262
(-0.0388203 0.0185145 0.00027781) 1793
(0.0270937 -0.0273421 0.000287494) 2113
(-0.0359412 0.0177334 0.000302944) 1793
(-0.100915 0.00174317 0.000257448) 2934
(-0.0849743 0.00629377 0.00029019) 2929
(-0.0192864 -0.0320605 0.000277863) 1436
(0.0278228 -0.0213528 0.00029222) 252
(-0.0173306 -0.00400812 0.000305851) 558
(0.0376226 -0.0111453 0.000282175) 1521
(-5.98201e-05 0.0731461 0.000276039) 2375
(0.0209673 0.0247322 0.000286697) 1091
(0.0264821 0.0504733 0.00030887) 2356
(0.000542557 0.100734 0.000280196) 3494
(-0.00340107 -0.0275945 0.00024887) 825
(0.0157596 0.00197358 0.000268308) 269
(0.0196319 -0.023072 0.00029872) 858
(0.0597708 -0.00146733 0.000255317) 1533
(0.00418608 0.0372394 0.000257607) 1473
(0.0209436 -0.0233068 0.000261766) 858
(-0.0057776 -0.0578481 0.000228422) 2092
(-0.0441997 -0.0241146 0.000278948) 1827
(-0.0176018 -0.0318939 0.000274078) 1436
(0.0249689 0.0103505 0.000274502) 289
(0.0231241 0.0266985 0.000287475) 1092
(-0.00421779 -0.0989573 0.000282607) 3213
(0.0430885 -0.0149848 0.000287164) 1522
(0.0319621 0.0213774 0.000310591) 1553
(0.0259939 0.00986512 0.000253217) 289
(-0.019003 -0.0331028 0.00026775) 1436
(-0.0480937 0.0256196 0.000263817) 1796
(-0.0662346 0.007546 0.000303414) 1806
(-0.0189204 0.00237966 0.000288128) 551
(-0.00214612 -0.0600673 0.000238878) 2093
(0.0242487 0.0104163 0.000276094) 289
(0.00321691 0.0158967 0.000286983) 1102
(-0.0442054 0.0231211 0.000279296) 1795
(0.0349227 0.0199667 0.000280409) 1545
(0.0201229 0.0235257 0.00028866) 1090
(-0.0255327 0.026422 0.00028804) 1476
(0.0407158 0.014084 0.000286897) 1537
(-0.0648188 -0.0371318 0.000296662) 1831
(-0.000118018 0.100761 0.00026433) 3494
(-0.0961201 -0.00559344 0.000276756) 2933
(0.0359599 -0.0135112 0.000302393) 1513
(0.0281185 0.0193869 0.000288288) 300
(0.0143952 -0.0397803 0.000259392) 2105
(-0.0246086 0.00812185 0.000284312) 545
(-0.033817 -0.0170366 0.000262176) 1405
(0.000977387 0.0960457 0.000306966) 3492
(0.00533786 -0.0172611 0.000248813) 838
(0.0412281 -0.0172928 0.000281776) 1514
(-0.00581597 0.0961314 0.000292284) 3493
(0.018931 -0.00620428 0.000304665) 263
(-0.0588762 -0.0139826 0.000264387) 1821
(-0.0215401 -0.0367674 0.000297152) 2073
(-0.0223876 -0.044274 0.000290788) 2075
(0.00414904 0.0711074 0.000243871) 2375
(0.0234349 0.0269589 0.000277899) 1092
(0.0034261 0.0542759 0.000279927) 2372
(-0.0224176 0.0411279 0.000265009) 2386
(0.0148017 0.0196793 0.000283871) 1088
(0.0125477 -0.0523481 0.000268796) 2099
(-0.0170755 -0.0299784 0.000255823) 820
(0.0018315 0.0186172 0.000272946) 1110
(0.0333039 -0.0213784 0.00027525) 1505
(0.0206206 -0.0392386 0.000283672) 2106
(0.0236745 0.0270708 0.000290426) 1092
(0.00920042 -0.0252211 0.000301295) 841
(-0.000829061 0.0744312 0.000273068) 2375