/*--------------------------------*- C++ -*----------------------------------*\
| =========                 |                                                 |
| \\      /  F ield         | OpenFOAM: The Open Source CFD Toolbox           |
|  \\    /   O peration     | Version:  plus.master.MPPICInterFoam            |
|   \\  /    A nd           | Web:      www.OpenFOAM.com                      |
|    \\/     M anipulation  |                                                 |
\*---------------------------------------------------------------------------*/
FoamFile
{
    version     2.0;
    format      ascii;
    class       scalarField;
    location    "11/lagrangian/kinematicCloud";
    object      age;
}
// * * * * * * * * * * * * * * * * * * * * * * * * * * * * * * * * * * * * * //


65
(
10.4264
10.9289
10.2956
10.601
10.2027
10.3207
10.1538
10.3182
10.1848
10.9471
10.4149
10.1304
10.1818
10.2335
10.4098
10.2955
10.2814
10.5155
10.6073
10.1913
10.3129
10.1102
10.0759
10.8241
10.3301
10.0881
10.2303
10.9385
10.6445
10.466
10.4198
10.1838
10.2912
10.638
10.4594
10.1379
10.2305
10.3609
10.1305
10.5049
10.6797
10.41
10.34
10.1753
10.8243
10.0945
10.6571
10.2815
10.6218
10.3701
10.1701
10.6809
10.606
10.2648
10.7336
10.6708
10.1763
10.1896
10.9435
10.1903
10.224
10.2416
10.2248
10.3558
10.21
)


// ************************************************************************* //
