/*--------------------------------*- C++ -*----------------------------------*\
| =========                 |                                                 |
| \\      /  F ield         | OpenFOAM: The Open Source CFD Toolbox           |
|  \\    /   O peration     | Version:  plus.master.MPPICInterFoam            |
|   \\  /    A nd           | Web:      www.OpenFOAM.com                      |
|    \\/     M anipulation  |                                                 |
\*---------------------------------------------------------------------------*/
FoamFile
{
    version     2.0;
    format      ascii;
    class       Cloud<basicKinematicMPPICParcel>;
    location    "11/lagrangian/kinematicCloud";
    object      positions;
}
// * * * * * * * * * * * * * * * * * * * * * * * * * * * * * * * * * * * * * //

65
(
(-0.0111916 0.0369785 0.528175) 2790
(-0.0061791 -0.0529293 0.506598) 2328
(-0.00585486 0.0532837 0.502893) 2672
(-0.00812598 0.0547262 0.502057) 2681
(-0.00790582 -0.0521547 0.508818) 2328
(-0.00808279 -0.0520575 0.509183) 2328
(-0.0183907 0.0492487 0.509922) 2688
(-0.0114489 0.0536069 0.508098) 2681
(-0.00781209 0.0539106 0.507787) 2681
(-0.0138155 0.0516887 0.509799) 2680
(-0.015366 0.0490645 0.513353) 2736
(-0.013752 0.0522764 0.511277) 2680
(-0.0565063 0.0069303 0.511839) 2049
(-0.0555829 0.00547461 0.513426) 2057
(-0.0564805 0.00606896 0.51275) 2057
(-0.0109146 0.0528987 0.517692) 2736
(-0.00980766 0.0533082 0.516224) 2737
(-0.0562176 0.00430668 0.514759) 2057
(-0.0559906 0.00432503 0.518093) 2057
(-0.0113196 -0.0495509 0.527977) 2440
(-0.00539268 0.0512698 0.523326) 2784
(-0.0111625 -0.0493918 0.52992) 2440
(-0.00707262 0.0519966 0.527318) 2792
(-0.0109086 -0.0492394 0.532413) 2496
(-0.00747631 0.0521198 0.527072) 2792
(-0.00924426 0.0526326 0.527667) 2792
(-0.0109286 0.0523413 0.528791) 2792
(-0.00497809 0.0503576 0.53096) 2784
(-0.00902453 0.0523525 0.530685) 2792
(-0.00686453 0.0511771 0.529441) 2792
(-0.0109802 0.0517718 0.535785) 2848
(-0.0116626 -0.0480495 0.53885) 2496
(-0.0117739 -0.0476056 0.540845) 2496
(-0.0526755 0.00586902 0.540458) 2168
(-0.0530406 0.00513913 0.539503) 2168
(-0.00889319 0.0511591 0.542227) 2904
(-0.053225 0.0035144 0.53963) 2168
(-0.0529619 0.00287804 0.540966) 2168
(-0.0100108 0.0510932 0.545787) 2904
(-0.0110026 0.0507548 0.547678) 2904
(-0.0121496 -0.0365608 0.569421) 8478
(-0.0500143 0.00607768 0.555562) 2272
(-0.014563 0.0455288 0.559998) 2959
(-0.0129522 0.0365167 0.578225) 9118
(-0.0134672 -0.0283262 0.576402) 6012
(-0.00926097 -0.0263381 0.577557) 6018
(-0.0438433 0.00510074 0.571528) 7975
(-0.012341 0.0333092 0.582044) 6661
(-0.0120571 -0.0256134 0.576255) 6010
(-0.0119663 0.0305679 0.584508) 6660
(-0.0106774 -0.0242326 0.577405) 6010
(-0.0142077 0.0337064 0.581958) 7291
(-0.0104952 -0.0216127 0.573148) 6009
(-0.010593 -0.0209361 0.571536) 6009
(-0.0112678 0.0298505 0.584537) 6660
(-0.00979579 0.0286998 0.583363) 6651
(-0.0115657 -0.0190956 0.554579) 1256
(-0.0123045 -0.0184386 0.552201) 1256
(-0.00995242 -0.0192152 0.54309) 1200
(-0.0130043 -0.0182358 0.544531) 1192
(-0.0118438 -0.0184921 0.536025) 1144
(-0.0104406 -0.0190628 0.524426) 1088
(-0.0121995 -0.0181832 0.524356) 1080
(-0.0110987 -0.0185243 0.515454) 1032
(-0.00946077 0.0233494 0.508836) 1345
)


// ************************************************************************* //
