/*--------------------------------*- C++ -*----------------------------------*\
| =========                 |                                                 |
| \\      /  F ield         | OpenFOAM: The Open Source CFD Toolbox           |
|  \\    /   O peration     | Version:  plus.master.MPPICInterFoam            |
|   \\  /    A nd           | Web:      www.OpenFOAM.com                      |
|    \\/     M anipulation  |                                                 |
\*---------------------------------------------------------------------------*/
FoamFile
{
    version     2.0;
    format      ascii;
    class       vectorField;
    location    "11/lagrangian/kinematicCloud";
    object      U;
}
// * * * * * * * * * * * * * * * * * * * * * * * * * * * * * * * * * * * * * //


65
(
(0.000257056 6.46867e-05 -0.0188419)
(0.00334426 -0.00587472 -0.0718241)
(0.00335817 0.00462412 -0.072741)
(0.00288918 0.00557807 -0.0729023)
(0.00334869 -0.00571903 -0.0733205)
(0.00335569 -0.00572512 -0.0735204)
(0.0015739 0.00356252 -0.080466)
(0.00230256 0.00530933 -0.0788999)
(0.00290976 0.00512196 -0.0775962)
(0.00204765 0.00439571 -0.0792624)
(0.00202017 0.00286146 -0.0793228)
(0.00193616 0.00470506 -0.0775091)
(-0.0084693 -0.000778863 -0.0835935)
(-0.00826647 -0.00120704 -0.0854083)
(-0.00811809 -0.00105319 -0.0823014)
(0.00202464 0.00489463 -0.0870961)
(0.0022589 0.00504658 -0.0848482)
(-0.00889378 -0.00138281 -0.0871147)
(-0.0096798 -0.00136337 -0.0879288)
(0.00354907 -0.00978852 -0.0921053)
(0.00296367 0.0034899 -0.0850681)
(0.00360435 -0.0107694 -0.0937902)
(0.00233559 0.004724 -0.0922178)
(0.00363731 -0.0122149 -0.0972392)
(0.00226179 0.00479103 -0.0933619)
(0.00173352 0.00550837 -0.0975725)
(0.00123181 0.0056087 -0.0991442)
(0.00261229 0.00310758 -0.0925799)
(0.00149851 0.00572574 -0.0998401)
(0.00225398 0.0038789 -0.0965957)
(0.000209884 0.00735268 -0.108469)
(0.00333006 -0.0164565 -0.106451)
(0.00327196 -0.0181667 -0.109447)
(-0.0136375 -0.000164344 -0.112454)
(-0.0141603 -0.000272652 -0.112826)
(-0.000280159 0.0112985 -0.115487)
(-0.0150318 -0.000652236 -0.114395)
(-0.0142814 -0.000974992 -0.114881)
(-0.00149611 0.0154449 -0.127186)
(-0.00262985 0.0178268 -0.130551)
(-0.0259171 -0.125279 -0.15728)
(-0.0351504 0.00331568 -0.146634)
(-0.0177777 0.0550516 -0.145465)
(-0.0257333 0.0835636 -0.175325)
(-0.026796 -0.112044 -0.080571)
(-0.005355 -0.117938 -0.0576537)
(-0.090474 0.0146287 -0.119889)
(-0.0321136 0.0883292 -0.0468225)
(-0.0168453 -0.101044 0.0179627)
(-0.0334237 0.0343635 0.00682631)
(-0.00952606 -0.105185 0.0388499)
(-0.0363896 0.12795 -0.0970078)
(-0.00944549 -0.0656841 0.208933)
(-0.00940635 -0.0565536 0.231072)
(-0.0301265 0.0283513 0.0269878)
(-0.01716 0.0889734 0.122178)
(-0.00247911 -0.00910777 0.302152)
(-0.00316736 -0.00687457 0.313207)
(0.000603144 -0.00286069 0.297359)
(-0.000110057 -0.00324885 0.317197)
(0.000262627 -0.000534667 0.31344)
(0.000666572 -0.000990372 0.305018)
(-0.000129655 -0.000925394 0.322166)
(0.000524767 -0.00348887 0.315574)
(0.000923687 0.00281418 0.463152)
)


// ************************************************************************* //
