/*--------------------------------*- C++ -*----------------------------------*\
| =========                 |                                                 |
| \\      /  F ield         | OpenFOAM: The Open Source CFD Toolbox           |
|  \\    /   O peration     | Version:  plus.master.MPPICInterFoam            |
|   \\  /    A nd           | Web:      www.OpenFOAM.com                      |
|    \\/     M anipulation  |                                                 |
\*---------------------------------------------------------------------------*/
FoamFile
{
    version     2.0;
    format      ascii;
    class       Cloud<basicKinematicMPPICParcel>;
    location    "12.4/lagrangian/kinematicCloud";
    object      positions;
}
// * * * * * * * * * * * * * * * * * * * * * * * * * * * * * * * * * * * * * //

94030
(
(-0.0027135 -0.0157482 0.000265201) 821
(0.0216512 -0.0259922 0.000276369) 859
(0.00169814 0.079181 0.000278298) 2376
(0.00339514 -0.0413774 0.00030379) 2089
(0.0268767 -0.0593178 0.000280055) 2110
(-0.0234112 -0.0450559 0.000290807) 2075
(0.0179792 -0.0447145 0.000278086) 2106
(-0.00647483 0.0180088 0.000249245) 1118
(0.0185857 0.0387562 0.0002607) 2353
(-0.00205665 0.0698209 0.000251961) 2374
(0.0295 0.0513572 0.000281256) 2356
(0.0363332 0.0176201 0.000259608) 1545
(-0.0168911 0.00215803 0.000282447) 550
(0.0263897 0.0211365 0.000288337) 300
(0.0582117 -0.00235716 0.000263937) 1532
(-0.00451875 0.0393322 0.000269801) 2377
(0.000543288 -0.0157815 0.000265762) 829
(-0.0445472 0.0206905 0.000290694) 1795
(0.0295025 0.0184015 0.000273433) 292
(0.0172749 0.0644304 0.00028917) 2366
(-0.022684 0.0226234 0.000314748) 531
(-0.0042634 -0.0927793 0.000280439) 3212
(-0.0427729 -0.021532 0.000225908) 1826
(-0.0389204 -0.0159285 0.000291015) 1825
(0.0220083 -0.0240752 0.000278874) 859
(-0.00838552 -0.0572492 0.000246198) 2084
(-0.0210544 0.0210497 0.000318496) 530
(0.00115999 0.101469 0.000260505) 3494
(-0.0412943 -0.0208463 0.000272666) 1826
(0.0308028 -0.0240851 0.000297334) 1505
(-0.0222356 0.0220824 0.00025071) 530
(0.0341632 -0.0168038 0.000294103) 1366
(-0.0313594 0.0139816 0.000276507) 540
(-0.0207423 0.0206272 0.000308099) 529
(0.0039049 0.0378591 0.000276048) 1473
(0.0369047 0.0176757 0.000265258) 1545
(-0.00147484 0.0597436 0.000264739) 2373
(-0.000228642 0.0709256 0.000292451) 2375
(-0.0286133 0.026888 0.000291727) 1785
(-0.0809284 -2.82664e-05 0.000257422) 1816
(0.0120668 -0.0482945 0.000264018) 2099
(-0.0215152 -0.0376578 0.000282049) 2073
(0.00847844 0.0225468 0.000303058) 1096
(-0.0422789 0.0193371 0.000266864) 1794
(-0.0188299 0.0368554 0.000297724) 2385
(0.0292158 -0.0212276 0.000291523) 1365
(-0.0074116 -0.0891656 0.000287454) 3211
(-0.00903031 0.0161848 0.000300607) 1126
(-0.0181859 -0.0393031 0.000242104) 2073
(-0.0138961 0.028551 0.000273537) 1131
(0.0385358 -0.0152054 0.000280191) 1513
(-0.0158361 0.0310865 0.000269626) 1132
(0.01574 -0.0208904 0.000246549) 856
(-0.00423032 -0.0610396 0.000278541) 2093
(0.0286312 -0.0120932 0.000264063) 259
(0.0174248 0.039727 0.000242114) 2353
(0.0211681 0.0264365 0.000285001) 1092
(-0.00120789 0.0178634 0.000248711) 1110
(-0.017576 0.0418216 0.000273357) 2386
(0.00977683 0.0585692 0.000275533) 2364
(0.0428672 -0.016485 0.000309572) 1514
(0.0341332 -0.0174487 0.000294994) 1513
(0.0344675 0.0142026 0.000267947) 1370
(-0.0204043 0.038167 0.000275537) 2385
(0.0189733 -0.001393 0.000310737) 271
(-0.0410047 -0.022502 0.000294134) 1826
(0.00482173 0.101476 0.000287978) 3494
(0.00887166 0.0156886 0.00028914) 1094
(-0.101909 0.000402248 0.00027684) 2934
(0.0413369 -0.0168157 0.000266325) 1514
(0.0161526 -0.021074 0.000264832) 856
(0.0205574 0.0263386 0.000297481) 1091
(0.0158611 0.0420562 0.000290025) 2354
(0.0164302 0.0368771 0.000240073) 2353
(0.00868826 0.021669 0.00027341) 1096
(0.0239849 -0.0250905 0.000269998) 860
(0.0596438 -0.000660389 0.000287976) 1533
(-0.017152 -0.000647634 0.000294926) 550
(0.0120584 0.0270827 0.000285884) 1098
(-0.000807735 0.022484 0.00025315) 1112
(0.00368808 0.0366458 0.000242229) 1473
(-0.0110572 -0.0465105 0.000266479) 2082
(-0.037084 0.0177601 0.000280271) 1793
(0.020485 0.0205703 0.000286426) 1089
(-0.0255433 0.0254867 0.000286584) 532
(0.00983313 0.0262022 0.000279349) 1097
(0.0200945 -0.0153824 0.000272105) 248
(0.00530577 0.0764167 0.000279733) 2376
(-0.0159003 0.00716083 0.00025216) 534
(-0.0359955 0.00461684 0.000268917) 1402
(-0.00705245 0.0195446 0.00027331) 1119
(0.0114153 0.0166416 0.000273473) 1086
(0.0167915 -0.0497487 0.00026192) 2099
(-0.0413592 -0.0136991 0.000260439) 1817
(0.0241153 -0.0155469 0.000294647) 257
(-0.0255134 -0.0252291 0.00030864) 580
(0.029156 0.0168625 0.000290678) 291
(-0.0821751 0.00505379 0.000259692) 2929
(-0.00762706 0.0486009 0.000259952) 2379
(0.0186726 0.00119848 0.000269847) 270
(-0.090457 0.00260115 0.000279069) 2931
(0.0081736 0.0290473 0.000266633) 1106
(0.0546187 0.00313768 0.000265846) 1532
(-0.0283235 0.00321833 0.00027499) 554
(0.0183332 -0.0100287 0.000284719) 255
(-0.0353023 0.0175885 0.000297722) 1793
(-0.00151714 0.0739043 0.000270901) 2375
(-0.0188642 0.0369637 0.000281218) 2385
(0.0356785 -0.0250747 0.000318786) 1506
(-0.0539151 0.0264649 0.000284785) 1797
(-0.0247946 0.0468533 0.000290118) 2387
(0.0309365 -0.0206279 0.000290583) 1365
(-0.00294236 -0.0535409 0.000301436) 2091
(0.0308477 0.0158672 0.000281176) 292
(0.00745586 0.031756 0.000276818) 1107
(0.0176967 -0.0376079 0.000262942) 2105
(0.0126099 0.0198836 0.000275027) 1095
(-0.0480892 -0.0219973 0.000275748) 1827
(0.020804 -0.00932117 0.000278121) 255
(0.0176547 -0.0371346 0.00025837) 2105
(0.0497779 0.0034154 0.000288845) 1531
(0.00345505 -0.0433185 0.000302637) 2089
(0.0199862 -0.022875 0.000291937) 858
(-0.0228383 -0.0447947 0.000296048) 2075
(0.0222925 0.0120371 0.000289074) 288
(-0.0334422 0.00440705 0.000278114) 548
(0.0210335 0.0236705 0.000263091) 1091
(0.00375887 -0.0890622 0.000319203) 3210
(0.0161629 0.0264842 0.000278306) 1098
(0.0485302 0.00163399 0.000255643) 1530
(0.0231922 -0.0248555 0.000296985) 860
(0.00691719 0.0323618 0.000284133) 1107
(0.0201196 0.0422989 0.000257457) 2354
(0.0158338 0.0474979 0.000253966) 2363
(0.0211571 0.0172187 0.000274952) 297
(-0.000944507 0.101501 0.000267869) 3494
(0.0129221 0.0331486 0.000267483) 1100
(0.00598674 -0.0202692 0.000280087) 839
(-0.000929972 0.0732473 0.000267955) 2375
(-0.0193868 0.0418347 0.000260454) 2386
(-0.0256706 0.0256814 0.000319196) 1476
(0.0232668 0.0107197 0.000286219) 289
(-0.0396483 -0.0159218 0.000281638) 1825
(-0.00203319 0.0209615 0.000282901) 1111
(0.0160282 -0.0211178 0.000254272) 856
(-0.0236632 -0.0233699 0.000271779) 579
(-0.0520479 0.00582327 0.000277305) 1811
(-1.41779e-05 0.0266919 0.000275911) 1113
(-0.042307 -0.0174451 0.000268345) 1826
(0.0248967 -0.0290998 0.000297259) 2113
(0.0104679 -0.0189272 0.000278434) 847
(0.0151851 0.0221904 0.000236959) 1089
(0.020434 -0.00690741 0.000317428) 263
(0.0197271 0.0398491 0.000257263) 2354
(0.0225934 -0.0252995 0.00030492) 860
(-0.0210886 -0.00815339 0.000267492) 567
(0.00918925 -0.0440501 0.000254263) 2098
(-0.0411743 -0.0174968 0.000248756) 1826
(0.0326612 0.000256505 0.000265768) 275
(-0.00753244 0.0183397 0.000279684) 1126
(-0.00196913 -0.0550841 0.000245105) 2092
(0.0141556 -0.0436972 0.000261496) 2098
(-0.0163237 0.0354157 0.000264588) 2385
(0.00587936 -0.0170507 0.000237519) 838
(0.00674077 0.0166829 0.000264139) 1094
(-0.0917398 -0.00352907 0.00029068) 2931
(0.00286096 0.0167773 0.000274943) 1102
(0.0064233 -0.0565091 0.000263731) 2100
(0.0163927 0.0111593 0.000264677) 286
(0.0230834 -0.0249374 0.000294726) 860
(0.00452454 0.01775 0.000265893) 1102
(-0.0499654 0.0197338 0.000257569) 1795
(0.0381054 -0.0166405 0.00029174) 1513
(-0.0157826 0.00158619 0.000254993) 549
(-0.0127335 0.032118 0.000251494) 1132
(-0.0159647 -0.0271656 0.000293273) 819
(0.0186694 0.00120309 0.00027852) 270
(-0.101876 -0.000542018 0.000274571) 2934
(-0.0276039 -0.0269484 0.000318142) 1833
(0.0305275 -0.0107803 0.00027392) 267
(0.015642 0.00449859 0.000277071) 277
(-0.0406396 0.0180797 0.000242419) 1794
(-0.0398136 0.0175433 0.000288494) 1794
(-0.0403687 -0.0170323 0.000283216) 1826
(-0.00102555 -0.0977012 0.000253221) 3213
(0.0295714 0.0243432 0.000306234) 1553
(0.0162468 0.0236214 0.000238658) 1089
(0.00125317 -0.0675695 0.000279086) 2094
(-0.028395 -0.0545933 0.000285085) 2077
(0.0219427 -0.023953 0.000278703) 859
(0.0295385 0.0243818 0.000290617) 1553
(0.0169747 0.0636843 0.000280745) 2366
(0.00916723 0.0248785 0.000265888) 1097
(0.0270776 0.0592479 0.000296761) 2358
(-0.0266468 -0.026053 0.000309497) 1406
(-0.00105782 -0.0211876 0.000283615) 831
(-0.00152088 -0.102802 0.000289985) 3215
(0.0233755 0.0222675 0.000257155) 299
(0.0454105 -0.0148809 0.000291744) 1522
(0.0177848 0.0397144 0.000270652) 2354
(0.0324054 0.0158208 0.000312633) 292
(0.00118589 -0.0997775 0.000260658) 3214
(0.0409336 -0.0123777 0.000242854) 1521
(-0.0217874 0.0218885 0.000299873) 1138
(-0.0180762 -0.0334318 0.000261703) 1436
(0.0237697 -0.0153246 0.000264395) 257
(0.0250117 -0.016046 0.000309414) 258
(-0.000893016 0.0772848 0.000281983) 2376
(-0.0251264 -0.0443572 0.000289508) 2075
(-0.0634133 -0.0135114 0.000308645) 1821
(0.0196009 -0.0388442 0.000282436) 2106
(0.0162153 0.0239404 0.000305807) 1090
(0.0413938 -0.0158631 0.00029445) 1514
(-0.0418766 -0.0218471 0.000274576) 1826
(0.0596357 0.00155938 0.00029026) 1533
(-0.0186173 0.0185476 0.00028049) 528
(-0.0251435 -0.0247237 0.000257344) 580
(-0.0565795 -0.0112974 0.00025797) 1820
(0.0238336 -0.0250718 0.000283003) 860
(-0.0922057 0.00201088 0.000279063) 2931
(0.00540331 0.0480077 0.000260572) 2370
(-0.022478 -0.0220659 0.000276084) 578
(-0.010713 -0.0201135 0.000288289) 815
(0.0197847 -0.0243804 0.000278107) 858
(-0.0311831 0.0148669 0.000278037) 540
(0.0186681 0.00134596 0.000300731) 270
(0.00429447 -0.0923655 0.000276706) 3211
(-0.0628814 -0.0152713 0.000275853) 1821
(0.0125881 0.0202594 0.000269721) 1096
(-0.0226438 0.0226437 0.000289825) 531
(0.0247065 -0.00968781 0.000272705) 257
(0.029615 -0.0253289 0.000328371) 1505
(-0.0013196 0.0897764 0.000278227) 3491
(0.00298026 0.0169381 0.00025085) 1102
(0.0157586 0.000218971 0.000226139) 269
(0.0153351 -0.0077396 0.000262876) 253
(0.0131497 -0.033723 0.000311919) 1440
(-0.024732 0.0244921 0.000287654) 532
(0.0156247 -0.0209869 0.000264607) 856
(0.0450836 -0.0153295 0.00029041) 1522
(-0.00963994 0.0204574 0.000264948) 1127
(0.0116573 0.0462783 0.0002629) 2362
(-0.0196461 -0.036321 0.000281151) 2073
(-0.0748178 0.0257244 0.00032363) 1808
(0.000561108 0.101618 0.000270258) 3494
(-0.0172955 0.041944 0.00027403) 2386
(0.0297727 0.0240694 0.000284434) 1553
(-0.0219571 0.0406317 0.000262295) 2386
(-0.0247108 -0.0404727 0.000291227) 2074
(0.029706 0.018845 0.000302307) 300
(0.0158311 0.00212552 0.000247836) 277
(-0.00768279 -0.0682414 0.000290236) 2094
(-0.00971853 -0.0235403 0.00026325) 816
(-0.0164789 0.034477 0.000296074) 1475
(0.000440907 -0.0940964 0.000277056) 3212
(-0.0315368 0.0151394 0.000271975) 540
(-0.0165774 0.0317414 0.000298925) 1132
(0.024991 -0.053618 0.000309013) 2108
(0.0181065 -0.0225265 0.000284024) 857
(-0.0304469 0.0139283 0.000307537) 539
(-0.0271578 -0.026576 0.000319491) 1406
(-0.0229346 0.0108845 0.000282407) 536
(-0.0403436 -0.0170999 0.000276761) 1826
(0.0564527 -0.000748239 0.000262236) 1532
(0.0196789 -0.00893167 0.00026181) 255
(-0.000213971 0.0747123 0.000262114) 2375
(-0.00596647 -0.0155344 0.00031437) 821
(0.0303583 0.0233475 0.0002985) 1553
(-0.024311 0.0241972 0.00032444) 532
(-0.019609 0.0196618 0.000235176) 1137
(-0.0640755 -0.0362873 0.000297435) 1831
(0.0483242 0.00130082 0.000258246) 1530
(0.0146106 0.014501 0.000232357) 294
(-0.0161845 -0.00321328 0.000273904) 558
(0.0154983 0.0324245 0.00028573) 1100
(0.0122691 -0.0276843 0.000283389) 850
(-0.0697444 -0.0160525 0.000273541) 1823
(0.0234953 -0.00108051 0.000283039) 272
(-0.0452397 0.0184235 0.000267642) 1795
(0.00622758 -0.0516082 0.000276618) 2099
(0.0169794 0.0365022 0.000304956) 2353
(0.0293553 -0.0114156 0.000250139) 259
(0.019396 0.0384846 0.00028026) 2353
(-0.0220502 0.0417482 0.000312078) 2386
(-0.00423186 0.0383113 0.000266726) 2369
(-0.0366996 0.017834 0.000287881) 1793
(0.00690914 0.0165674 0.000308887) 1094
(-0.0259778 0.00897594 0.000281148) 545
(0.0422805 0.0236509 0.0002558) 1546
(0.0155348 0.0227014 0.000255635) 1089
(0.0180344 0.0240893 0.000252647) 1090
(-0.00940914 0.0617764 0.000253018) 2381
(0.0116484 0.0276968 0.000294188) 1098
(-0.00199089 0.0781144 0.000279) 2376
(-0.0114564 0.061334 0.000265143) 2381
(0.0244463 -0.0286253 0.000281618) 1441
(-0.00682937 0.0201336 0.000293598) 1119
(0.00413141 -0.032657 0.000266454) 843
(0.00520789 -0.0225881 0.000306891) 840
(-0.0519639 -0.0277412 0.000285811) 1828
(0.0186735 -0.00452428 0.000589404) 262
(-0.0219213 -0.0211973 0.000241474) 578
(0.00151727 0.0340892 0.000291926) 1116
(-0.00674125 -0.01543 0.000264011) 813
(-0.0382836 0.0178711 0.000282719) 1793
(-0.0456756 -0.0210164 0.000243752) 1827
(-0.022532 -0.0380398 0.000263116) 2074
(0.0181482 0.0213691 0.000251952) 1089
(0.0190806 -0.0226475 0.000273162) 858
(-0.0472209 -0.0230252 0.000271629) 1827
(-0.0192254 -0.0430752 0.000257463) 2074
(0.00640944 -0.0923988 0.000247118) 3211
(-0.0637031 0.00706726 0.000283302) 1813
(0.0184366 0.0384347 0.000265449) 2353
(-0.0158116 -0.0304617 0.000303024) 820
(0.0247345 0.000375966 0.000276581) 272
(0.0176567 0.039289 0.000233171) 2353
(-0.012522 0.0486029 0.000262248) 2379
(-0.0232099 -0.0227251 0.00025799) 579
(0.0149505 -0.0384392 0.000280311) 2105
(-0.0378253 0.0177421 0.000273566) 1793
(0.0228266 -0.0155976 0.000280886) 249
(-0.0226256 0.022713 0.000324137) 1139
(-0.0324949 -0.0156796 0.000294965) 1405
(-0.0167107 0.0165532 0.000281312) 527
(0.0155869 -0.00549434 0.000234759) 261
(0.0129755 0.0269111 0.000281147) 1098
(-0.0961258 0.00697407 0.000287489) 2933
(-0.0288481 -0.00703751 0.0002828) 562
(0.00254516 0.0383461 0.000314765) 2369
(-0.0452705 0.0195669 0.000266859) 1795
(0.00223395 -0.0891583 0.000277106) 3211
(0.0345702 0.0166899 0.000259823) 1545
(-0.0482939 0.0241482 0.000267526) 1795
(-0.0250668 -0.0245542 0.000273447) 580
(0.00799713 -0.0158865 0.000284761) 846
(-0.00609105 -0.015534 0.000305274) 821
(-0.015157 0.0416086 0.000259488) 2386
(-0.0131062 0.0188231 0.000257051) 1135
(0.0168233 0.0377124 0.000274166) 2353
(-0.00281943 0.0444937 0.000245211) 2370
(-0.023077 -0.0954425 0.000297624) 3205
(0.0219086 -0.0440644 0.000277056) 2107
(-0.00133865 -0.021262 0.000290444) 831
(0.0187559 -0.00850176 0.000294657) 255
(-0.0168194 -0.00668388 0.000308648) 558
(-0.0395025 0.0179061 0.000258473) 1793
(-0.0252276 -0.0247338 0.000284676) 580
(-0.0325239 -0.0156867 0.000275365) 1405
(0.0189918 -0.0151104 0.000297177) 248
(0.0300406 -0.011093 0.000233645) 259
(0.0418097 0.0145239 0.000298051) 1538
(-0.022552 -0.0386123 0.000268666) 2074
(-0.00221396 -0.0999638 0.000275439) 3214
(0.0577397 0.00161061 0.000274174) 1532
(-0.0191972 0.04095 0.000256587) 2386
(-0.0196204 -0.0324812 0.000300571) 1436
(0.000948941 -0.0877519 0.000291181) 3210
(0.0405743 0.000708001 0.000236558) 1529
(0.0238008 -0.00909283 0.000310265) 257
(-0.000429729 -0.0608058 0.000275854) 2093
(0.0205948 0.0105265 0.000256491) 288
(-0.0120815 0.030183 0.000279883) 1131
(0.0485432 -0.000575556 0.000315259) 1530
(0.00333743 -0.0870287 0.000322124) 3210
(-0.0256893 0.0256888 0.000314003) 1400
(-0.0642857 0.00442744 0.000281754) 1813
(-0.0222763 -0.0385564 0.000279945) 2074
(-0.0835716 -0.00117505 0.000296647) 2929
(-0.0213156 0.0378788 0.000289079) 2385
(0.0229698 0.011276 0.000270917) 288
(-0.0648311 0.00712516 0.000306453) 1813
(0.0308344 -0.0241081 0.000278083) 1505
(-0.074839 0.000890639 0.000268178) 1815
(-0.0188383 -0.0447464 0.000255519) 2074
(0.0145723 0.0375327 0.000249928) 2353
(-0.0259101 0.0106519 0.000296358) 537
(0.0167541 0.02344 0.000287553) 1089
(0.0301061 0.012878 0.000282459) 291
(0.00934593 -0.0502546 0.000261608) 2099
(0.0170776 -0.0443033 0.00028436) 2106
(-0.0257107 0.0256472 0.000263031) 1400
(-0.0129433 0.0553083 0.000288876) 2380
(0.0218057 0.0231493 0.000299083) 1091
(-0.0167505 -0.030905 0.000282531) 820
(-0.0257307 -0.0440095 0.000256815) 2075
(0.0220742 0.0272574 0.000288523) 1092
(0.00402448 0.0465959 0.000260975) 2370
(0.00941103 -0.0578065 0.000257007) 2100
(-0.0180964 -0.0403012 0.00027852) 2074
(0.000932133 -0.0879567 0.000304423) 3210
(0.0185792 0.0237782 0.000297289) 1090
(0.0148984 0.0349281 0.000288384) 1471
(-0.0220447 0.040646 0.000270312) 2386
(0.016047 0.00894974 0.000289534) 286
(-0.0425252 -0.0220129 0.000264126) 1826
(-0.0405935 0.0183819 0.000252824) 1794
(0.0337943 0.00113271 0.000298325) 276
(-0.0410883 -0.0213413 0.000269526) 1826
(-0.0188213 -0.0326652 0.000279935) 1436
(0.0400731 -0.0139593 0.000275665) 1521
(0.0305471 0.018952 0.000283273) 292
(-0.0897988 0.0011668 0.000287397) 2931
(0.0107169 -0.0155665 0.000275013) 854
(0.0147762 0.0224175 0.000271469) 1089
(-0.0230281 -0.0224908 0.000294758) 579
(0.024071 0.0269744 0.000304691) 1470
(-0.0960855 -0.00398376 0.000277552) 2933
(-0.00115796 -0.0190251 0.000282641) 831
(-0.000518256 -0.0976375 0.000271447) 3213
(-0.0236586 0.0234451 0.000282341) 531
(-0.0358688 0.00397803 0.000281115) 556
(-0.0831549 0.00321153 0.000284506) 2929
(-0.0434172 0.0219612 0.000293953) 1794
(-0.00690732 -0.0454948 0.000315657) 2082
(0.000726654 0.0907734 0.000265582) 3491
(-0.0393799 -0.016487 0.00027114) 1825
(-0.00858841 0.0617663 0.000265433) 2381
(0.0255535 -0.0257619 0.000300771) 1441
(-0.106062 -0.000729934 0.000278401) 2935
(-0.0152649 0.027138 0.000296548) 1131
(0.0338557 -0.0118115 0.000273451) 268
(-0.0168782 -0.0312244 0.000243514) 820
(-0.00587937 -0.0174142 0.000280351) 822
(8.47393e-05 -0.0567193 0.000278322) 2092
(0.0299527 0.0181945 0.000258529) 292
(0.0148577 0.0116813 0.000267076) 293
(0.0179135 0.0240271 0.00029128) 1090
(-0.0228194 -0.0223273 0.000281572) 579
(-0.050198 -0.0194041 0.00024636) 1827
(-0.0817016 0.000792266 0.000279988) 1816
(0.014062 0.0339941 0.000266107) 1471
(0.0146488 -0.0618999 0.000290622) 2101
(-0.0221611 0.0526911 0.000310663) 2388
(-0.0257217 -0.0252003 0.000288336) 580
(0.00250349 0.0619072 0.00025721) 2373
(0.00862346 0.0218521 0.000268097) 1096
(-0.037042 0.0180484 0.000305198) 1793
(-0.0815366 0.00109611 0.000276296) 1816
(-0.0218176 -0.00240618 0.000302784) 551
(0.0173039 0.0926256 0.00031707) 3484
(-0.024401 0.0241844 0.000254947) 532
(0.0154614 -0.0389059 0.000301827) 2105
(0.0244006 -0.0252041 0.000263698) 860
(-0.0405002 -0.0168176 0.000303274) 1826
(-0.00191695 0.0181048 0.000268094) 1110
(-0.0227927 -0.0222272 0.000316703) 578
(-0.0642428 0.00762753 0.000294884) 1805
(-0.0264102 0.00996981 0.000306666) 538
(0.0184831 -0.0224844 0.000299086) 857
(0.00280448 0.0167405 0.000293031) 1102
(0.0241466 0.0269075 0.000304131) 1470
(-0.0244073 0.0246369 0.00028506) 1140
(0.0117402 0.036651 0.000308999) 2361
(0.035791 0.0138675 0.000297916) 1545
(-0.0158268 -0.0271005 0.000294284) 819
(0.00877203 0.0225679 0.000257196) 1096
(0.0412625 0.0165466 0.000275325) 1546
(-0.0170487 -0.00116822 0.000295427) 550
(0.0182021 0.04477 0.000296423) 2354
(0.00652837 0.0213182 0.000255674) 1103
(0.0219592 0.0268349 0.00025193) 1092
(-0.0162518 0.00461301 0.00023556) 542
(0.0147979 -0.0294053 0.00026562) 851
(0.0420472 -0.0147748 0.000317805) 1514
(0.042543 -0.0155489 0.000271109) 1514
(-0.040735 -0.0217692 0.00031386) 1826
(0.0321561 0.00273111 0.000302241) 275
(-0.107778 -0.00025658 0.0123815) 2936
(-0.0419627 -0.0193029 0.000277148) 1826
(-0.0241728 -0.0418593 0.000256441) 2074
(-0.00495638 -0.0883161 0.000271916) 3210
(-0.0255466 -0.0253272 0.000281707) 580
(-0.0335834 -0.0158745 0.000273532) 1405
(-0.0874175 -0.00800883 0.000261898) 2930
(-0.0529082 0.0297649 0.000282413) 1797
(0.0132753 0.0297627 0.000282187) 1099
(-0.00497573 0.023675 0.000292597) 1120
(0.0596215 0.00174301 0.000281008) 1533
(-0.062028 0.00948244 0.000273587) 1805
(0.0297635 -0.0205358 0.000296988) 1365
(-0.0239831 0.0444862 0.000310827) 2387
(-0.0426305 0.0178125 0.000253069) 1794
(0.0187521 0.00783365 0.000398026) 287
(0.0292693 0.00038052 0.000266894) 274
(-0.0762022 0.00268631 0.000275525) 1815
(0.0111056 -0.0597593 0.000269271) 2101
(0.0484095 -0.000671233 0.000291593) 1530
(0.0298012 -0.0178108 0.000272763) 260
(-0.024143 0.0240476 0.000259844) 531
(0.0166576 0.0341912 0.000288706) 1471
(0.0201361 -0.00930084 0.000263725) 255
(-0.0262047 -0.00417662 0.000236737) 561
(-0.0214617 -0.0580859 0.000249352) 2077
(0.000411096 0.030466 0.000264943) 1114
(-0.000784077 -0.0573981 0.000318969) 2092
(-0.0521119 -0.0248103 0.000270423) 1828
(-0.0146817 0.039192 0.000266873) 2385
(0.0230997 -0.0249287 0.000277905) 860
(0.00355731 -0.0162081 0.00026998) 838
(0.0421098 0.0178417 0.000272527) 1546
(-0.018415 -0.029811 0.0003151) 820
(0.0573043 -0.000701639 0.000276671) 1532
(-0.0459177 -0.0213076 0.000277678) 1827
(-0.0056169 -0.0174291 0.000284318) 822
(-0.0226168 0.0226171 0.000292294) 1139
(0.0227985 -0.0246465 0.000278581) 859
(0.0254581 -0.0258411 0.000291392) 1441
(0.0236082 -0.0249607 0.000283857) 860
(0.0119896 0.021295 0.000266745) 1096
(-0.0256495 -0.0253469 0.000268485) 580
(-0.0178258 -0.0179613 0.000280574) 808
(-0.0211337 0.021069 0.000288933) 530
(-0.0476748 0.0234006 0.000287677) 1795
(-0.0387119 -0.0154412 0.000286192) 1825
(-0.0842412 0.000189313 0.000288509) 2929
(0.00958074 -0.0597309 0.000271911) 2101
(0.00452787 0.101571 0.000280918) 3494
(0.0157576 -0.00131685 0.000297206) 269
(-0.0781497 0.00579162 0.000273607) 1816
(-0.0086572 0.0674187 0.000279581) 2382
(-0.0149621 -0.0313668 0.000291455) 820
(-0.101893 0.00447465 0.000297632) 2934
(0.0408571 0.0162083 0.000293463) 1546
(0.0579753 -0.00238051 0.000277111) 1532
(0.0383682 -0.0164776 0.00027426) 1513
(0.0344805 0.0149477 0.000258613) 1370
(-0.0181795 0.0433747 0.000280313) 2386
(0.0560915 0.000656985 0.00029143) 1532
(0.0133835 0.0568099 0.000286978) 2364
(-0.0790953 -0.00169641 0.000290325) 1816
(-0.0211554 -0.0373931 0.000263877) 2073
(-0.00365858 -0.0316366 0.000262326) 827
(0.0340814 0.0165797 0.000284815) 1370
(0.0231463 -0.0248916 0.000298556) 860
(-0.0336623 -0.0155559 0.000293169) 1405
(-0.0256684 0.0256713 0.000266184) 1476
(-0.0479247 0.0228083 0.0002306) 1795
(-0.0234837 -0.023495 0.000266629) 811
(-0.0211483 -0.0079287 0.000272823) 559
(-0.0178667 -0.0154665 0.000261595) 575
(0.039344 -0.0161589 0.00026301) 1513
(-0.0164927 -0.0332488 0.000245777) 1436
(0.0236411 0.00957757 0.000280065) 289
(-0.0133137 0.0206025 0.000263465) 1128
(0.0191866 -0.0152473 0.000275614) 248
(0.0182491 -0.0355487 0.00030158) 2105
(-0.0038909 -0.0971849 0.000293381) 3213
(0.00504675 -0.106179 0.000287834) 3216
(0.00165162 -0.0370124 0.000269561) 1438
(0.00187363 0.101506 0.000264082) 3494
(-0.0218151 -0.00215003 0.0003097) 551
(-0.0344437 -0.0149824 0.000268215) 1405
(-0.0199449 0.0373567 0.000297621) 2385
(-0.0255863 -0.0253129 0.000275556) 580
(0.0118417 -0.0175359 0.000260045) 855
(0.0363919 0.0190764 0.000287021) 1545
(0.000950688 0.0730645 0.000279909) 2375
(-0.0166057 0.000232051 0.000280579) 550
(-0.0012401 -0.0536504 0.000269064) 2091
(-0.0206962 -0.0194649 0.000274558) 577
(-0.0408771 -0.022434 0.000291704) 1826
(-0.0120912 -0.0261444 0.000290695) 818
(0.0578049 -0.00151739 0.000305444) 1532
(-0.0244961 -0.0505109 0.000282661) 2076
(0.0238095 -0.0453709 0.000284184) 2107
(-0.022373 0.0224614 0.000270609) 1138
(-0.0471047 -0.0213673 0.000276408) 1827
(-0.00442906 0.0384347 0.000285121) 2377
(-0.000779739 0.0361831 0.000254836) 1473
(0.0180057 0.0401307 0.000281741) 2354
(-0.0413023 0.0201996 0.000281437) 1794
(-0.0354785 -0.0177657 0.000288811) 1825
(-0.0357619 0.0174855 0.000260979) 1793
(0.00370131 -0.104109 0.000261043) 3215
(-0.041159 -0.022546 0.000288207) 1826
(0.0105084 0.0515701 0.000274721) 2363
(0.00248764 0.078433 0.000292494) 2376
(-0.0163252 -0.00358803 0.000276666) 558
(-0.0501852 -0.022794 0.000266221) 1828
(-0.03543 0.0175492 0.000305396) 1793
(0.0192105 0.0249119 0.00026532) 1091
(-0.0196835 -0.0375091 0.000277437) 2073
(0.00259967 0.0165203 0.000275122) 1102
(-0.00796833 0.0538744 0.000265847) 2380
(-0.0607564 -0.0290397 0.000264325) 1830
(0.0257056 0.0117911 0.00028252) 289
(4.41599e-05 0.0893129 0.000288384) 3491
(-0.0229919 0.022767 0.000302299) 531
(-0.025706 0.0256846 0.000291226) 1400
(-0.0274904 -0.0269528 0.000297305) 1833
(0.0215276 0.0271022 0.000315992) 1092
(0.0132757 -0.0275319 0.000252996) 850
(0.0431602 -0.0128993 0.000261416) 1522
(-0.000712878 -0.0219244 0.000310933) 832
(-0.0057751 -0.0173977 0.000283497) 822
(-0.00157667 0.101464 0.000292316) 3494
(-0.0275756 -0.0271148 0.000287146) 1833
(-0.0199609 0.0496671 0.00025589) 2387
(0.0200451 0.0386888 0.000274438) 2354
(-0.0253334 -0.0247806 0.000305059) 580
(0.0153861 0.007767 0.000242469) 285
(-0.0581742 0.0104313 0.00028784) 1804
(0.0434234 -0.0139166 0.000280074) 1522
(0.000719876 0.0157758 0.000290832) 1109
(0.0187834 -0.0434308 0.000259747) 2106
(-0.0230817 -0.022582 0.000263005) 579
(-0.0245324 0.044156 0.000313053) 2387
(0.0222439 0.0284279 0.000322583) 1470
(0.00592713 -0.0523781 0.000291734) 2099
(0.000648308 0.0744638 0.000260556) 2375
(-0.0218911 -0.0214338 0.000301033) 578
(0.0596268 -0.000723983 0.000271971) 1533
(0.0182855 -0.0357733 0.000293846) 2105
(0.0228841 -0.0454321 0.000241427) 2107
(-0.0806905 0.000132357 0.000260662) 1816
(-0.000651145 0.0570903 0.000290782) 2372
(-0.0209522 0.0493376 0.000258244) 2387
(-0.0170132 0.00216855 0.000287481) 550
(-0.000908842 -0.0219888 0.000273955) 832
(-0.0516718 -0.0216819 0.000285533) 1828
(0.0350136 -0.0122811 0.000283417) 1366
(-0.00100453 -0.0932622 0.000256941) 3212
(-0.0181208 -0.0369826 0.000274873) 2073
(0.0115869 0.057267 0.000273527) 2364
(0.0356298 -0.0110805 0.000295352) 1367
(0.0305712 0.0230733 0.000291804) 1553
(0.0379866 -0.0185882 0.000294212) 1513
(-0.0830838 -0.000189463 0.000256089) 2929
(-0.027024 -0.0265183 0.000261781) 1406
(-0.0643408 0.0265629 0.000291027) 1798
(-0.0499111 0.0198454 0.000270597) 1795
(0.0260604 -0.0300535 0.000321737) 2113
(-0.0289419 0.0602854 0.000275388) 2390
(-0.0575313 0.00782783 0.000298192) 1804
(0.0186404 -0.000903654 0.000275684) 270
(0.0184517 0.0247438 0.000289549) 1090
(0.0448704 0.0151453 0.000283543) 1538
(-0.0815378 0.00327417 0.000252799) 1816
(-0.0175049 0.0313926 0.000274465) 1132
(0.049141 0.00347973 0.000259123) 1531
(0.0307604 -0.0237308 0.000265904) 1505
(-0.00619746 0.0552963 0.000269961) 2372
(0.0167824 0.0440741 0.000290922) 2354
(0.0113007 -0.0302869 0.000279967) 851
(-0.01679 0.0349005 0.000298153) 2385
(-0.00228117 -0.0574938 0.000303787) 2092
(-0.0465411 0.0211027 0.000285745) 1795
(-0.023937 -0.0043391 0.000260723) 560
(0.0450138 0.0159072 0.000293563) 1546
(-0.0251231 0.0248802 0.000297914) 532
(-0.066309 0.00425509 0.000285149) 1814
(-0.0308127 0.0144924 0.000262884) 540
(-0.101898 0.0058854 0.000287284) 2934
(-0.0494044 0.024796 0.000243759) 1796
(-0.0591011 0.0261625 0.000273356) 1797
(0.0314938 0.0162271 0.000286364) 292
(0.0256441 0.0254913 0.000267767) 300
(0.0181023 0.0240258 0.000252789) 1090
(0.0279742 0.0628766 0.000286666) 2358
(-0.0208458 0.038619 0.000271242) 2386
(-0.00393216 0.0332039 0.000296259) 1123
(0.01842 -0.00445929 0.000261757) 262
(-0.0380584 0.0177399 0.00027763) 1793
(0.0267537 -0.0271915 0.000271514) 1441
(-0.0351551 0.016912 0.000302869) 1793
(-0.10187 0.00177565 0.000257941) 2934
(-0.0854647 0.00624057 0.000290528) 2929
(-0.0197192 -0.0297686 0.000276192) 812
(0.0268081 -0.021245 0.000290763) 252
(-0.0165508 -0.00393091 0.000307232) 558
(0.0365546 -0.0118817 0.000308067) 1521
(-7.49502e-05 0.0734629 0.000275722) 2375
(0.0191396 0.024949 0.000313914) 1091
(0.0253364 0.0504336 0.000309052) 2356
(0.000525412 0.101548 0.000279947) 3494
(-0.00327886 -0.0279749 0.000260225) 834
(0.0157972 0.00207292 0.000270853) 269
(0.0179596 -0.0225497 0.000297667) 857
(0.0596223 -0.00136126 0.000263555) 1533
(0.00381483 0.0373546 0.000239526) 1473
(0.0194716 -0.0227622 0.000263688) 858
(-0.00597354 -0.0574874 0.000227489) 2092
(-0.0439951 -0.023154 0.00027753) 1827
(-0.0171216 -0.0298877 0.000274076) 820
(0.024034 0.010449 0.000274092) 289
(0.0216868 0.0268912 0.000287946) 1092
(-0.00437432 -0.0993373 0.000280698) 3213
(0.0425382 -0.014905 0.000295522) 1514
(0.0309619 0.0225987 0.000301201) 1553
(0.0250466 0.00990843 0.000252457) 289
(-0.018875 -0.0314492 0.000266406) 1436
(-0.0476142 0.0248992 0.000261701) 1795
(-0.0657578 0.00723477 0.000285209) 1814
(-0.0218942 0.00266858 0.000278633) 552
(-0.00235731 -0.0601147 0.000238474) 2093
(0.023276 0.0104403 0.000276822) 288
(0.0028125 0.0168015 0.000273509) 1102
(-0.0438187 0.0223268 0.000278773) 1795
(0.0337008 0.0200793 0.00027987) 1545
(0.018039 0.0239515 0.000288459) 1090
(-0.0256946 0.0256807 0.00030282) 1400
(0.0400592 0.013973 0.000267474) 1537
(-0.0646649 -0.0372559 0.000296913) 1831
(-0.000140288 0.101531 0.000264555) 3494
(-0.096085 -0.0055118 0.000277401) 2933
(0.0358312 -0.0137899 0.000292231) 1513
(0.0270827 0.020203 0.000302256) 300
(0.0131976 -0.038915 0.000258892) 2097
(-0.0252679 0.00721085 0.000284234) 545
(-0.0325454 -0.0156831 0.000260682) 1405
(0.00113701 0.0960942 0.000315899) 3493
(0.00493114 -0.0167527 0.000248961) 838
(0.0401612 -0.0172106 0.000282493) 1514
(-0.00586485 0.0961311 0.000306056) 3493
(0.0184524 -0.00702053 0.000438553) 262
(-0.058145 -0.0128105 0.000276317) 1821
(-0.0218477 -0.0357229 0.000296203) 2073
(-0.0225035 -0.0435759 0.000290624) 2075
(0.0040913 0.0714116 0.000245122) 2375
(0.0219811 0.0271451 0.000276567) 1092
(0.00313225 0.0535642 0.000280163) 2371
(-0.0218735 0.0405518 0.00026445) 2386
(0.0131441 0.0198096 0.000305168) 1088
(0.0112883 -0.0517954 0.000267661) 2099
(-0.0168922 -0.0284608 0.000256237) 819
(-0.00146166 0.0181291 0.000266612) 1110
(0.0323329 -0.0213966 0.000272882) 1505
(0.020058 -0.0386225 0.000291396) 2106
(0.0222107 0.0272631 0.000285595) 1092
(0.00902054 -0.0243066 0.000311233) 849
(-0.000825705 0.0747777 0.000272311) 2375
(0.00452336 0.0177985 0.000284714) 1102