/*--------------------------------*- C++ -*----------------------------------*\
| =========                 |                                                 |
| \\      /  F ield         | OpenFOAM: The Open Source CFD Toolbox           |
|  \\    /   O peration     | Version:  plus.master.MPPICInterFoam            |
|   \\  /    A nd           | Web:      www.OpenFOAM.com                      |
|    \\/     M anipulation  |                                                 |
\*---------------------------------------------------------------------------*/
FoamFile
{
    version     2.0;
    format      ascii;
    class       volScalarField;
    location    "7.4";
    object      epsilon;
}
// * * * * * * * * * * * * * * * * * * * * * * * * * * * * * * * * * * * * * //

dimensions      [0 2 -3 0 0 0 0];

internalField   nonuniform List<scalar> 
11822
(
0.269009
0.310318
0.334133
0.338409
0.32699
0.291888
0.247341
0.311167
0.350871
0.361175
0.370064
0.376705
0.340149
0.285806
0.336844
0.368505
0.343095
0.339357
0.384042
0.364121
0.31145
0.344374
0.378843
0.352738
0.360293
0.396669
0.37532
0.31589
0.330018
0.37838
0.397587
0.400964
0.39601
0.357258
0.297106
0.292363
0.340547
0.368229
0.375379
0.356506
0.312817
0.263965
0.246821
0.283473
0.307802
0.311788
0.294496
0.262882
0.226348
0.244467
0.275656
0.296839
0.302947
0.292049
0.265636
0.232505
0.276432
0.305535
0.317329
0.322093
0.32084
0.303932
0.261814
0.298667
0.316141
0.313852
0.326728
0.34019
0.33075
0.28216
0.304196
0.320596
0.323324
0.335945
0.347048
0.33687
0.285502
0.290928
0.319799
0.333221
0.343259
0.342093
0.317674
0.271841
0.264132
0.299862
0.325585
0.33265
0.31588
0.284662
0.247853
0.230919
0.258348
0.277134
0.281285
0.269458
0.246921
0.218391
0.232329
0.254706
0.269821
0.275523
0.268754
0.251603
0.227354
0.255437
0.280987
0.2933
0.294892
0.295786
0.27887
0.24992
0.270747
0.29487
0.297194
0.291224
0.304563
0.297667
0.264662
0.275292
0.300821
0.305224
0.302581
0.315231
0.301255
0.267987
0.268045
0.296426
0.310081
0.316267
0.312836
0.290559
0.259928
0.250683
0.27619
0.293448
0.298524
0.289413
0.26965
0.242858
0.226345
0.247844
0.261703
0.265543
0.25843
0.242203
0.21873
0.235362
0.252218
0.263094
0.268186
0.26543
0.254343
0.234729
0.253002
0.270665
0.283011
0.289874
0.287686
0.275249
0.254698
0.264369
0.283378
0.296112
0.300091
0.302744
0.289017
0.267098
0.269038
0.28865
0.301099
0.304898
0.307353
0.293285
0.270905
0.266242
0.286508
0.300363
0.306669
0.302273
0.288417
0.265799
0.254944
0.274852
0.287685
0.292494
0.288044
0.274392
0.251731
0.234711
0.254167
0.266051
0.269922
0.265045
0.251312
0.22871
0.25521
0.270723
0.279466
0.284443
0.284545
0.27609
0.255895
0.271759
0.285442
0.293627
0.299949
0.302082
0.295958
0.277391
0.281585
0.294698
0.303544
0.311399
0.31369
0.308152
0.290153
0.28703
0.301086
0.310308
0.319883
0.320436
0.31404
0.294837
0.287142
0.303733
0.313811
0.320616
0.321146
0.312529
0.290586
0.278068
0.297538
0.308976
0.314382
0.312525
0.300371
0.275614
0.256673
0.277999
0.290378
0.294684
0.290185
0.275277
0.248904
0.286172
0.304213
0.311024
0.316912
0.321435
0.312126
0.284877
0.305528
0.321178
0.324243
0.33147
0.343832
0.338675
0.31232
0.314169
0.325641
0.327778
0.336052
0.350615
0.350622
0.328048
0.320937
0.334146
0.337009
0.346314
0.360723
0.357239
0.333549
0.324653
0.346537
0.352034
0.360722
0.371178
0.359609
0.32832
0.31434
0.339525
0.351952
0.357774
0.358522
0.344276
0.30829
0.285856
0.312873
0.328389
0.333297
0.327668
0.307662
0.272917
0.206043
0.176689
0.151409
0.130184
0.113458
0.102982
0.106109
0.190128
0.232298
0.193975
0.162705
0.137061
0.116748
0.103061
0.102467
0.175714
0.25065
0.206414
0.170853
0.141998
0.119132
0.103248
0.100229
0.166418
0.253913
0.208556
0.17204
0.142355
0.118754
0.102177
0.0982382
0.160905
0.240877
0.1994
0.165452
0.137507
0.115164
0.0995347
0.0962389
0.158718
0.217287
0.182524
0.153401
0.129025
0.109469
0.0960983
0.0947874
0.160381
0.189769
0.163189
0.139786
0.119769
0.103761
0.0934169
0.0951052
0.166954
0.199628
0.174646
0.151687
0.131378
0.114781
0.104074
0.106776
0.189392
0.221234
0.189871
0.162197
0.138002
0.117996
0.10414
0.103185
0.175128
0.236235
0.200714
0.169706
0.142715
0.1203
0.104302
0.100966
0.165861
0.239159
0.202781
0.170882
0.143043
0.119871
0.103188
0.0989691
0.160427
0.229255
0.195222
0.164939
0.138354
0.116248
0.100467
0.0969126
0.158312
0.210481
0.180611
0.153736
0.130063
0.110506
0.0969307
0.0953686
0.159975
0.186982
0.162981
0.140667
0.120871
0.104715
0.0941405
0.0955583
0.166327
0.199718
0.177064
0.154852
0.134344
0.117192
0.105953
0.108279
0.189993
0.218458
0.191314
0.165165
0.140987
0.120427
0.106016
0.104706
0.175944
0.23103
0.201259
0.172425
0.145649
0.12271
0.106166
0.102512
0.166789
0.234007
0.203426
0.173638
0.145937
0.12221
0.104989
0.100501
0.161498
0.226723
0.19695
0.167966
0.14118
0.118431
0.102127
0.0983522
0.159429
0.211101
0.183465
0.156918
0.132704
0.112457
0.0984139
0.0966965
0.161083
0.189581
0.166256
0.143645
0.123182
0.106413
0.0954694
0.0967823
0.167233
0.208044
0.184814
0.161176
0.139019
0.120491
0.108398
0.110499
0.193048
0.22656
0.199593
0.172064
0.146011
0.123838
0.108437
0.106866
0.179046
0.238556
0.209683
0.179594
0.150836
0.126162
0.108568
0.104671
0.170019
0.241835
0.212008
0.180804
0.15102
0.125525
0.107278
0.102605
0.164847
0.235592
0.205577
0.174759
0.14582
0.121389
0.104178
0.100311
0.162737
0.220507
0.191535
0.162864
0.136619
0.114935
0.100185
0.0984941
0.164316
0.198126
0.173007
0.148421
0.126304
0.108456
0.0970505
0.0985169
0.170453
0.224737
0.197425
0.169785
0.144407
0.12378
0.110738
0.113043
0.197825
0.245905
0.214352
0.182021
0.152032
0.127293
0.110718
0.109304
0.184207
0.2593
0.225749
0.190406
0.157278
0.129746
0.110871
0.107161
0.175696
0.263079
0.228254
0.191577
0.157333
0.129006
0.10954
0.105136
0.170865
0.25618
0.220699
0.184489
0.151409
0.124485
0.106301
0.102847
0.168816
0.238683
0.204223
0.170761
0.141105
0.117513
0.102161
0.101065
0.170373
0.212217
0.182583
0.154331
0.129759
0.110659
0.0990307
0.101295
0.176581
0.244294
0.209994
0.176774
0.147961
0.125947
0.113462
0.120457
0.246988
0.270624
0.230401
0.190946
0.156488
0.129823
0.113534
0.116692
0.232869
0.287037
0.244126
0.200715
0.162432
0.132656
0.113965
0.114955
0.225408
0.291416
0.246856
0.201945
0.162551
0.132058
0.112941
0.113527
0.222203
0.282438
0.237161
0.193389
0.155923
0.127392
0.110021
0.111947
0.221951
0.25985
0.216751
0.17733
0.144612
0.120278
0.106343
0.111156
0.226136
0.226707
0.190947
0.158816
0.13258
0.113579
0.103951
0.112864
0.236533
0.206365
0.176962
0.151641
0.130456
0.113827
0.103437
0.106515
0.189338
0.240343
0.200941
0.168532
0.14214
0.121484
0.107813
0.10785
0.185382
0.270359
0.222599
0.183846
0.152855
0.128816
0.112589
0.110615
0.186007
0.286019
0.234137
0.19207
0.158751
0.133098
0.115781
0.113225
0.189646
0.2804
0.230413
0.189745
0.157519
0.132789
0.116343
0.114887
0.195137
0.256495
0.213475
0.178367
0.150271
0.128697
0.114824
0.116026
0.203054
0.22389
0.191279
0.163544
0.140822
0.123432
0.113127
0.118207
0.215071
0.198558
0.17393
0.151294
0.131335
0.115079
0.104646
0.107448
0.189062
0.224978
0.193835
0.166274
0.142288
0.122568
0.109082
0.10892
0.185166
0.246448
0.21053
0.179047
0.15187
0.129495
0.113778
0.11169
0.185415
0.257727
0.219001
0.185563
0.156935
0.133435
0.116866
0.114258
0.188698
0.253285
0.215772
0.183408
0.155763
0.133158
0.117431
0.1159
0.194162
0.235077
0.202398
0.173863
0.149351
0.129398
0.116018
0.11705
0.202318
0.210445
0.184642
0.161235
0.140862
0.124487
0.114402
0.119197
0.214484
0.198463
0.176211
0.154438
0.134419
0.11774
0.106886
0.109443
0.190731
0.220213
0.193999
0.168753
0.145398
0.125489
0.111607
0.11116
0.187017
0.235721
0.207464
0.180094
0.15454
0.132437
0.116487
0.114115
0.187124
0.242525
0.213437
0.185371
0.15912
0.136286
0.119644
0.116785
0.190229
0.238562
0.21031
0.183211
0.157932
0.136007
0.120211
0.118401
0.195536
0.225071
0.199362
0.174782
0.151962
0.132371
0.118779
0.119455
0.203668
0.205756
0.184314
0.163321
0.143862
0.127518
0.117101
0.121482
0.215774
0.207211
0.184328
0.161128
0.139489
0.121458
0.109762
0.112128
0.194745
0.227902
0.202502
0.176423
0.151486
0.130011
0.115032
0.114199
0.191229
0.240581
0.215066
0.187927
0.161227
0.137621
0.120492
0.117643
0.191666
0.244785
0.219842
0.192905
0.165986
0.141817
0.12403
0.120673
0.195029
0.24066
0.216527
0.190619
0.164757
0.141578
0.124657
0.122328
0.200296
0.229281
0.206368
0.182316
0.158663
0.137766
0.123045
0.123176
0.208228
0.21214
0.191872
0.170676
0.15018
0.132573
0.12112
0.125006
0.220253
0.224521
0.197594
0.170425
0.145569
0.125406
0.112719
0.115311
0.200813
0.248304
0.219031
0.188462
0.159488
0.135084
0.11851
0.117535
0.197603
0.261462
0.233297
0.201939
0.170899
0.143874
0.124715
0.121466
0.19871
0.264688
0.238248
0.207666
0.176514
0.148817
0.128802
0.124897
0.202526
0.259937
0.234494
0.20517
0.175263
0.148633
0.129493
0.126572
0.207604
0.248414
0.223477
0.195899
0.168401
0.144296
0.12753
0.127092
0.214784
0.230076
0.207188
0.182573
0.158684
0.138355
0.125199
0.128648
0.22607
0.244938
0.211248
0.178602
0.150296
0.128688
0.116571
0.124284
0.254829
0.275412
0.238268
0.200466
0.166278
0.139068
0.122012
0.125092
0.247388
0.291826
0.256427
0.217442
0.180046
0.149051
0.128483
0.128468
0.24665
0.295216
0.262607
0.224893
0.18707
0.154848
0.132843
0.131597
0.249322
0.289425
0.258199
0.222036
0.185636
0.154501
0.133299
0.132822
0.25304
0.276309
0.245224
0.210734
0.177246
0.149161
0.13068
0.132802
0.259061
0.254047
0.225109
0.194325
0.165498
0.142057
0.127788
0.134208
0.270791
0.22316
0.190569
0.162857
0.140162
0.12281
0.112581
0.117814
0.214862
0.254483
0.211534
0.176574
0.148593
0.127086
0.113264
0.114625
0.202092
0.276907
0.227153
0.186964
0.155142
0.130668
0.114331
0.112993
0.194755
0.28182
0.230513
0.189108
0.156376
0.131177
0.114209
0.112003
0.190211
0.267695
0.219963
0.181595
0.151053
0.127405
0.11152
0.109975
0.187109
0.239058
0.199589
0.167357
0.141195
0.120759
0.107346
0.107844
0.187503
0.206191
0.176767
0.151528
0.130443
0.113928
0.103738
0.107317
0.192929
0.209885
0.18405
0.16062
0.140243
0.123889
0.113878
0.118813
0.21423
0.233905
0.20113
0.172529
0.147964
0.12798
0.114622
0.115803
0.201268
0.251502
0.213996
0.181644
0.154
0.131382
0.115614
0.11411
0.193626
0.256586
0.217451
0.18396
0.155418
0.132025
0.115578
0.113186
0.189142
0.246202
0.209645
0.177997
0.150859
0.128582
0.113009
0.111257
0.186753
0.225276
0.193663
0.165935
0.141902
0.122194
0.108821
0.109021
0.187432
0.199343
0.174465
0.151696
0.131651
0.115345
0.104966
0.108147
0.192552
0.205195
0.18372
0.162702
0.143244
0.126933
0.116602
0.121114
0.215493
0.223998
0.198174
0.173517
0.150655
0.131066
0.117556
0.118426
0.202853
0.237153
0.208766
0.181618
0.156322
0.134379
0.118566
0.116816
0.19489
0.241612
0.212129
0.183978
0.157782
0.135032
0.118497
0.115855
0.19046
0.235319
0.206658
0.179207
0.153692
0.131646
0.115785
0.11371
0.188345
0.220293
0.193822
0.168494
0.145089
0.12514
0.111306
0.111144
0.189025
0.199071
0.17672
0.15486
0.134729
0.11793
0.107035
0.109861
0.193632
0.211522
0.191238
0.170038
0.149568
0.132017
0.120662
0.124667
0.219966
0.228024
0.205038
0.18099
0.157384
0.136572
0.122003
0.12236
0.207618
0.238875
0.214683
0.188855
0.163132
0.14007
0.123252
0.121085
0.19966
0.243081
0.218019
0.191234
0.164543
0.140612
0.123009
0.119917
0.195203
0.239197
0.213691
0.186767
0.160286
0.136813
0.119805
0.11724
0.192717
0.227138
0.201876
0.175948
0.151072
0.129579
0.114613
0.114032
0.192727
0.207275
0.184546
0.161395
0.139681
0.1215
0.109694
0.11223
0.196753
0.229392
0.20652
0.18193
0.158091
0.137833
0.124771
0.128324
0.225751
0.246912
0.221999
0.194527
0.167163
0.143205
0.126615
0.126369
0.214227
0.257528
0.232252
0.203219
0.173613
0.147217
0.128275
0.125558
0.207012
0.261907
0.235753
0.205626
0.174922
0.147574
0.127794
0.124182
0.202627
0.258951
0.231221
0.200372
0.16973
0.142936
0.123917
0.120924
0.199346
0.24671
0.21791
0.187685
0.158851
0.134435
0.117832
0.117035
0.198323
0.224112
0.197502
0.170427
0.145467
0.125097
0.112225
0.114878
0.201532
0.253409
0.224517
0.193776
0.165022
0.141665
0.127448
0.13387
0.270214
0.274604
0.243809
0.209546
0.176265
0.148333
0.129947
0.132036
0.258033
0.286393
0.255801
0.220189
0.184207
0.153328
0.132243
0.131708
0.251649
0.291626
0.259807
0.222811
0.185554
0.153657
0.131731
0.130433
0.24777
0.2887
0.254
0.215707
0.178756
0.147953
0.127324
0.127109
0.244437
0.273478
0.23686
0.199401
0.165288
0.137947
0.120621
0.123245
0.2437
0.244229
0.210755
0.178041
0.149462
0.127479
0.114869
0.121812
0.249199
0.189521
0.16295
0.139553
0.119551
0.103559
0.0932123
0.094811
0.16594
0.216025
0.18134
0.15234
0.12812
0.10873
0.0954658
0.0940672
0.158276
0.23843
0.197213
0.163536
0.135891
0.11386
0.098459
0.095094
0.155575
0.250506
0.205706
0.169597
0.140289
0.117063
0.100767
0.0967468
0.156916
0.247475
0.203767
0.168553
0.139998
0.117432
0.101764
0.0985919
0.161969
0.2303
0.192261
0.161125
0.135586
0.115389
0.101762
0.100883
0.171117
0.205327
0.176026
0.150703
0.129426
0.112656
0.10207
0.104743
0.185595
0.186795
0.162792
0.140476
0.120691
0.104549
0.0939741
0.0953191
0.165457
0.209379
0.179554
0.152771
0.129241
0.10983
0.0963534
0.0947143
0.158017
0.227069
0.193221
0.163149
0.136843
0.115029
0.0994736
0.0958635
0.155367
0.235933
0.200059
0.168513
0.141029
0.118252
0.101878
0.0976228
0.156767
0.232757
0.197907
0.167297
0.140675
0.118631
0.102926
0.0995261
0.161878
0.218637
0.187735
0.160328
0.136369
0.116608
0.102935
0.10182
0.17103
0.198147
0.173406
0.150584
0.130393
0.113904
0.103229
0.105613
0.18526
0.189452
0.1661
0.143484
0.123034
0.106279
0.0953391
0.0966029
0.16656
0.210247
0.18257
0.156049
0.131941
0.111827
0.09788
0.0961057
0.159334
0.225137
0.195318
0.16638
0.139773
0.117296
0.101204
0.0973985
0.156795
0.231758
0.201241
0.171562
0.144125
0.120736
0.103803
0.0993144
0.158336
0.228556
0.198959
0.170273
0.143764
0.121188
0.104961
0.101319
0.163522
0.216518
0.189486
0.163443
0.139469
0.119186
0.105021
0.103667
0.17271
0.198495
0.175916
0.153785
0.133418
0.116443
0.10533
0.107476
0.18678
0.198042
0.172881
0.148276
0.126161
0.108323
0.0969214
0.098347
0.169863
0.21986
0.190756
0.162052
0.135868
0.114293
0.0996303
0.0978843
0.162614
0.234503
0.204225
0.173319
0.144498
0.120273
0.103245
0.0993439
0.160199
0.240462
0.210307
0.178979
0.149324
0.124112
0.106133
0.101469
0.161942
0.237136
0.207948
0.177744
0.149141
0.124779
0.107489
0.103635
0.16727
0.225474
0.198218
0.170587
0.144665
0.122769
0.10764
0.106092
0.176569
0.207368
0.183959
0.160278
0.138236
0.119918
0.108009
0.110024
0.190741
0.212182
0.182498
0.154224
0.12965
0.110562
0.0989418
0.101176
0.176135
0.238097
0.203467
0.169966
0.140382
0.116922
0.101679
0.100561
0.168898
0.255293
0.219419
0.1831
0.150142
0.12346
0.105499
0.10206
0.166641
0.262144
0.226763
0.18989
0.155787
0.127786
0.108637
0.104302
0.168543
0.258496
0.224334
0.188788
0.15584
0.128689
0.110168
0.106571
0.173835
0.24539
0.213313
0.180836
0.151026
0.126633
0.110391
0.109104
0.182939
0.224508
0.196891
0.169193
0.143978
0.123628
0.110843
0.113197
0.196904
0.226703
0.190921
0.158797
0.13259
0.113637
0.104072
0.11309
0.237141
0.259185
0.216013
0.176684
0.144174
0.120107
0.10643
0.111561
0.227328
0.281411
0.235867
0.192181
0.155075
0.127031
0.110119
0.11257
0.223914
0.290444
0.245401
0.200572
0.16164
0.131762
0.113255
0.114538
0.225265
0.286427
0.24294
0.199658
0.161889
0.132766
0.11475
0.116596
0.230049
0.270435
0.229793
0.190495
0.156522
0.130462
0.114853
0.118974
0.238855
0.244444
0.209983
0.17694
0.148526
0.127023
0.115153
0.123113
0.253387
0.00514068
0.00361657
0.0044956
0.00571535
0.00674286
0.00729371
0.00734994
0.00701278
0.00510359
0.0035957
0.00447439
0.00569043
0.0067128
0.00725897
0.0073132
0.00697596
0.00505195
0.00355997
0.0044304
0.0056375
0.00665416
0.00719982
0.00725824
0.00692821
0.00500398
0.00352557
0.00438841
0.00558904
0.00660371
0.00715222
0.00721778
0.00689716
0.00496661
0.00349763
0.00435457
0.00555075
0.00656484
0.00711806
0.00719155
0.00688063
0.00493402
0.00347288
0.00432542
0.00551895
0.00653365
0.00709104
0.00717056
0.00686688
0.00490074
0.00344564
0.00429332
0.0054856
0.00650277
0.0070651
0.00714919
0.00684974
0.0086051
0.00637495
0.00816194
0.0102217
0.011542
0.0119155
0.0115067
0.0105572
0.00852683
0.00633272
0.0081194
0.0101657
0.0114713
0.0118395
0.0114344
0.0104941
0.00840516
0.00625134
0.00802096
0.0100488
0.0113453
0.0117178
0.0113275
0.0104078
0.00828639
0.00617048
0.00792526
0.00994079
0.0112349
0.0116154
0.0112426
0.0103449
0.00819339
0.0061044
0.00784719
0.00985331
0.0111457
0.0115354
0.0111785
0.0103004
0.00812233
0.00605174
0.00778766
0.00978993
0.011084
0.0114796
0.0111325
0.0102658
0.00805821
0.0060022
0.00773705
0.00974613
0.0110501
0.0114529
0.0111117
0.0102496
0.0149177
0.0119445
0.0156566
0.0186482
0.0198378
0.0194539
0.0179586
0.0158125
0.0147261
0.0118441
0.015546
0.0184882
0.0196478
0.0192618
0.017786
0.0156712
0.0144307
0.0116516
0.0153164
0.0182197
0.0193706
0.0190055
0.0175693
0.0155031
0.0141486
0.0114662
0.0151067
0.0179871
0.0191386
0.0187969
0.0174001
0.0153806
0.013932
0.0113202
0.0149466
0.0178109
0.018962
0.0186375
0.0172703
0.0152857
0.0137867
0.0112205
0.0148463
0.0177085
0.0188601
0.0185437
0.0171908
0.0152218
0.0136779
0.0111513
0.0148025
0.0176897
0.0188533
0.0185429
0.0171933
0.0152254
0.0261213
0.0240845
0.0305622
0.0335828
0.0335128
0.0311867
0.0274797
0.0231631
0.0256273
0.0239262
0.0303093
0.0332183
0.0330885
0.030763
0.0271004
0.0228493
0.0249068
0.0234802
0.0297964
0.0326468
0.0325201
0.0302536
0.0266791
0.0225228
0.0242661
0.0230856
0.0293762
0.0321955
0.03208
0.0298662
0.0263689
0.0222993
0.0238098
0.0228205
0.0291115
0.0319056
0.0317869
0.0295989
0.026149
0.0221343
0.0235511
0.0226792
0.028996
0.031783
0.0316585
0.0294771
0.0260461
0.022053
0.0233999
0.0226361
0.0290381
0.0318549
0.0317366
0.0295512
0.0261128
0.0221113
0.0474658
0.0538203
0.0580954
0.0581278
0.0545887
0.0483793
0.040653
0.0326474
0.0464768
0.0538071
0.0578273
0.0575992
0.0539006
0.0476535
0.0399851
0.0320807
0.0450276
0.0531437
0.0569991
0.0566252
0.0529044
0.046758
0.0392535
0.0315076
0.043855
0.0526061
0.0563466
0.0558803
0.052161
0.0461029
0.0387334
0.0311271
0.0431378
0.0523823
0.0560339
0.0554902
0.051744
0.0457136
0.0384134
0.0308898
0.0428293
0.0523069
0.0559236
0.0553589
0.0516061
0.0455825
0.038309
0.0308307
0.0427544
0.0524272
0.0560744
0.0555371
0.0518008
0.0457732
0.0384801
0.0309773
0.158089
0.11053
0.101542
0.094055
0.0841381
0.0716241
0.057401
0.0434338
0.164955
0.112172
0.10185
0.0936625
0.0833258
0.0706439
0.0564578
0.0426507
0.168121
0.112556
0.101323
0.0925599
0.0819446
0.0693068
0.0553669
0.0418499
0.170282
0.112693
0.10075
0.0916013
0.080856
0.0683075
0.0545861
0.0412852
0.17253
0.113006
0.10047
0.0910844
0.0802759
0.067766
0.0541532
0.0409912
0.173344
0.113008
0.10018
0.0907582
0.080023
0.0675803
0.0540241
0.0409505
0.173853
0.113277
0.100279
0.0908626
0.0802324
0.0678624
0.05431
0.041163
0.00468248
0.00325986
0.00404989
0.00521381
0.00623355
0.0068199
0.00692522
0.00664659
0.00466564
0.00324489
0.00402864
0.00518796
0.00620587
0.00679184
0.00689591
0.00661576
0.00465889
0.00323841
0.00401595
0.00516949
0.00618424
0.00676907
0.00687174
0.0065903
0.00467363
0.00325175
0.00402991
0.00518366
0.00619771
0.00678018
0.00687823
0.00659105
0.00472279
0.00329022
0.00408001
0.00524528
0.00626562
0.00684648
0.00693753
0.00664003
0.004794
0.00334579
0.00415456
0.00533838
0.00636987
0.00695104
0.00703586
0.00672776
0.00486441
0.00340107
0.00422491
0.00542199
0.00646092
0.00704227
0.00712377
0.00680966
0.00773764
0.0057202
0.00737794
0.00940811
0.0107825
0.0112294
0.0109077
0.0100519
0.007743
0.00571041
0.00735465
0.00938357
0.0107639
0.0112113
0.010885
0.0100229
0.00776068
0.00570877
0.00733512
0.00935674
0.0107396
0.0111868
0.010857
0.0099908
0.00781818
0.00574518
0.00737049
0.00939568
0.0107826
0.0112262
0.0108863
0.0100071
0.00793558
0.00583354
0.00748407
0.00953236
0.010928
0.0113652
0.011007
0.0101036
0.00808447
0.00595175
0.00764236
0.00972285
0.0111292
0.0115608
0.011184
0.0102548
0.00821325
0.00605271
0.00777011
0.00986846
0.011279
0.0117074
0.0113206
0.0103775
0.0134358
0.0108138
0.0144145
0.0175128
0.018831
0.0185852
0.0172268
0.0152101
0.0135263
0.0108229
0.0143946
0.0175167
0.0188524
0.0186071
0.0172353
0.0152011
0.0136235
0.0108267
0.0143507
0.0174837
0.0188329
0.0185894
0.0172082
0.0151605
0.0138002
0.0109152
0.0144224
0.0175717
0.0189334
0.018684
0.0172823
0.015208
0.0140878
0.0111211
0.0146672
0.0178534
0.019222
0.0189525
0.0175106
0.0153874
0.014415
0.0113814
0.0149959
0.018218
0.0195936
0.0193024
0.0178177
0.015642
0.0146613
0.0115738
0.0152287
0.0184649
0.0198413
0.0195369
0.0180287
0.0158244
0.0235733
0.0217775
0.0288932
0.0322314
0.0323949
0.0302857
0.0267741
0.0226143
0.0238261
0.0216941
0.0288747
0.0322831
0.0324884
0.0303852
0.0268476
0.0226495
0.0240338
0.0215361
0.0287565
0.0322355
0.0324884
0.0303974
0.0268401
0.0226016
0.0244381
0.0216036
0.0288388
0.0323778
0.0326658
0.0305737
0.0269831
0.0226952
0.0251115
0.0220361
0.0292645
0.0328455
0.0331477
0.0310227
0.0273639
0.0229923
0.0258515
0.0226324
0.029846
0.0334481
0.0337483
0.0315833
0.0278507
0.0233889
0.0264049
0.0230962
0.0302725
0.0338698
0.0341515
0.0319498
0.0281678
0.0236517
0.0441877
0.0518368
0.056786
0.0570996
0.0537248
0.0477125
0.040224
0.0323979
0.0446613
0.0516535
0.056794
0.0572381
0.0539216
0.0479194
0.0403933
0.0324894
0.04496
0.0512299
0.0565683
0.0571876
0.0539737
0.0480094
0.0404625
0.0324623
0.0455744
0.0509924
0.05651
0.057318
0.0542144
0.0482853
0.0407047
0.0326167
0.0466965
0.0513353
0.0569229
0.057856
0.0548406
0.0489158
0.0412587
0.033048
0.0480015
0.0520148
0.0575963
0.0585916
0.0556253
0.0496864
0.0419439
0.033604
0.0490093
0.052745
0.0583397
0.059325
0.056299
0.0502669
0.0424198
0.0339752
0.154169
0.110844
0.102028
0.0943162
0.0841409
0.0715005
0.0574689
0.0437407
0.149266
0.11006
0.10223
0.0948073
0.0846158
0.0718885
0.0577813
0.0439059
0.142898
0.108744
0.102023
0.0949334
0.084827
0.0721066
0.058001
0.0439806
0.136036
0.107077
0.101519
0.0949298
0.0850727
0.0724606
0.0583646
0.0442141
0.131685
0.105979
0.101272
0.0951804
0.0856495
0.07319
0.059073
0.0447689
0.130733
0.105834
0.101539
0.0957656
0.0864591
0.0741073
0.0599458
0.045476
0.133011
0.10689
0.102612
0.0969577
0.0876179
0.0750846
0.0607032
0.0460196
0.00491893
0.00344013
0.00426656
0.00546311
0.00649968
0.00707802
0.00715686
0.00683988
0.00496255
0.00346289
0.00428034
0.00546511
0.00649157
0.00706424
0.00713949
0.00681988
0.00499354
0.0034752
0.00428186
0.00545249
0.00646703
0.00703319
0.00710555
0.0067849
0.00502845
0.00349661
0.00430274
0.0054699
0.00647971
0.00704246
0.00711364
0.00679292
0.00506659
0.0035303
0.00435145
0.00552983
0.00654463
0.00710672
0.00717707
0.00685502
0.00510653
0.00357253
0.00441828
0.00561606
0.00663966
0.00720041
0.00726767
0.00694127
0.0051373
0.00360713
0.00447488
0.00568879
0.00671761
0.00727422
0.00733585
0.00700335
0.00829412
0.00610518
0.00781852
0.00990949
0.0113147
0.0117406
0.0113524
0.010408
0.00834327
0.00611774
0.00780258
0.00986805
0.0112623
0.0116863
0.0113015
0.0103619
0.008367
0.00611277
0.0077675
0.00980399
0.0111841
0.0116056
0.0112265
0.0102948
0.00840629
0.00613436
0.00778168
0.00980316
0.0111711
0.0115897
0.0112142
0.0102888
0.00846862
0.00619537
0.00786833
0.00989707
0.0112563
0.0116693
0.0112915
0.0103655
0.00854427
0.0062816
0.00800275
0.0100514
0.011402
0.0118037
0.0114156
0.0104809
0.00860297
0.00635426
0.00811973
0.0101825
0.01152
0.0119066
0.0115049
0.0105588
0.014771
0.0116279
0.0152573
0.0184819
0.0198559
0.019552
0.0180454
0.0158435
0.014785
0.0115775
0.0151292
0.0183235
0.0196946
0.019404
0.0179195
0.015742
0.014741
0.0114984
0.014982
0.0181384
0.0194991
0.0192195
0.0177617
0.0156156
0.014726
0.0114867
0.0149493
0.0180673
0.0194099
0.0191325
0.0176921
0.0155678
0.0147778
0.0115844
0.0150985
0.0181903
0.019504
0.0192101
0.0177646
0.015642
0.0148809
0.0117592
0.0153676
0.0184409
0.0197167
0.0193878
0.0179172
0.0157788
0.0149577
0.0119111
0.0155963
0.018637
0.0198699
0.0195075
0.0180147
0.0158612
0.0265923
0.0231476
0.0302484
0.0338443
0.0341332
0.0319351
0.0281551
0.0236438
0.0264807
0.0228619
0.0298453
0.0334427
0.0337656
0.0316152
0.0278906
0.02344
0.0262466
0.0225893
0.0294855
0.0330586
0.0333814
0.031258
0.0275894
0.0232172
0.0260446
0.0225217
0.0293543
0.0328581
0.0331505
0.0310353
0.0274068
0.0230871
0.0260082
0.0228073
0.0296199
0.0330254
0.0332446
0.0310868
0.027445
0.0231289
0.0261862
0.0233925
0.0301324
0.0334208
0.0335369
0.0313015
0.0276092
0.0232655
0.0262939
0.0239026
0.0305086
0.0336614
0.03368
0.0313892
0.0276731
0.023323
0.0491615
0.0526304
0.0582514
0.0592754
0.0562742
0.0502464
0.0423883
0.0339376
0.0485214
0.0516736
0.0573222
0.0584477
0.0555765
0.0496716
0.0419186
0.0335822
0.0477817
0.0510707
0.0567184
0.0578415
0.0549751
0.0490946
0.0414063
0.0332196
0.0472538
0.0509749
0.0564994
0.0575037
0.0545654
0.0486764
0.0410447
0.0329637
0.0472606
0.0516012
0.0568911
0.0576936
0.0546239
0.0486598
0.0410054
0.0329353
0.0476872
0.0526561
0.0575926
0.0581423
0.0549169
0.0488499
0.0411282
0.0330252
0.0478611
0.0534398
0.0580098
0.0582993
0.0549266
0.0487944
0.0410626
0.0329895
0.132513
0.106672
0.102558
0.0969771
0.0876703
0.0751433
0.060723
0.0459977
0.127717
0.104606
0.100957
0.0955539
0.0864756
0.0742211
0.0600036
0.0454683
0.126424
0.103779
0.100145
0.0947313
0.0856585
0.0734328
0.0592347
0.0449097
0.129347
0.104238
0.100047
0.0943367
0.0850828
0.0727926
0.0586263
0.0444671
0.135338
0.105579
0.100403
0.094333
0.0849349
0.0725908
0.0584225
0.0443118
0.143091
0.10727
0.100844
0.0943901
0.0849154
0.0725718
0.0583804
0.0442617
0.150702
0.108827
0.101131
0.0942324
0.084613
0.0722413
0.0580575
0.0440049
0.00486104
0.00340887
0.00424487
0.00543046
0.00644705
0.00701341
0.00710113
0.00680537
0.00481638
0.00336416
0.00417925
0.0053487
0.00635856
0.00692771
0.00702023
0.00673094
0.00477595
0.00332378
0.00411886
0.00527262
0.00627575
0.00684712
0.00694356
0.00665926
0.00474376
0.00329454
0.00407645
0.00522015
0.00621878
0.00679119
0.0068895
0.00660788
0.00472457
0.00327896
0.00405636
0.0051979
0.00619611
0.00677032
0.00687017
0.00659059
0.0047104
0.00327281
0.00405472
0.00520358
0.00620817
0.00678549
0.00688681
0.00660812
0.00469858
0.00326966
0.00405849
0.00521792
0.00623224
0.00681512
0.00691927
0.00664125
0.00797601
0.00593195
0.00765413
0.00966615
0.0109819
0.0113931
0.0110578
0.0101999
0.00787033
0.00583367
0.00751633
0.0095117
0.0108344
0.0112568
0.0109348
0.0100906
0.00777276
0.00574299
0.00738381
0.00935988
0.0106887
0.0111228
0.0108148
0.00998397
0.0077084
0.00568502
0.00730184
0.00926926
0.0106033
0.0110432
0.0107407
0.00991486
0.00769002
0.00566859
0.0072839
0.00925685
0.0105963
0.0110367
0.0107312
0.00990202
0.00770216
0.00568547
0.0073195
0.00931312
0.0106622
0.0111015
0.0107879
0.00994923
0.00772458
0.00571133
0.00736485
0.00938179
0.0107444
0.0111875
0.0108695
0.0100219
0.0135325
0.0110375
0.0146976
0.0176179
0.0188025
0.0185038
0.0171588
0.0151905
0.0133208
0.0108277
0.0144246
0.017358
0.0185707
0.0183046
0.0169898
0.0150469
0.0131231
0.0106189
0.0141269
0.0170647
0.0183097
0.018085
0.0168098
0.0148989
0.0130268
0.0105091
0.0139757
0.0169284
0.0181951
0.0179883
0.0167256
0.0148222
0.0130588
0.0105249
0.0140124
0.0169949
0.0182698
0.0180536
0.0167713
0.0148469
0.0131817
0.0106344
0.0141834
0.0172077
0.0184894
0.0182514
0.0169316
0.0149678
0.0133224
0.0107506
0.0143454
0.0174104
0.0187079
0.0184613
0.0171178
0.015124
0.0231658
0.0224565
0.0289837
0.031854
0.0317594
0.0295834
0.0261422
0.0221266
0.0227327
0.0218892
0.0285039
0.0314407
0.0314166
0.0293125
0.0259334
0.0219626
0.0222799
0.0211844
0.0278332
0.0308577
0.030945
0.0289533
0.0256708
0.0217728
0.0221247
0.0208406
0.027552
0.0306486
0.0307993
0.0288545
0.0256004
0.0217153
0.0223441
0.0209706
0.0277897
0.0309361
0.0310847
0.0291011
0.0257897
0.021846
0.0228118
0.0213848
0.0283241
0.0315154
0.0316374
0.0295775
0.0261652
0.0221191
0.0232521
0.0216977
0.0287365
0.0319965
0.0321236
0.03002
0.0265418
0.0224275
0.0425087
0.0524757
0.0562107
0.0557007
0.0519679
0.0459343
0.0386261
0.0310872
0.0416994
0.0517946
0.0556602
0.0552076
0.0515338
0.0455918
0.0383848
0.0309217
0.0406537
0.0503638
0.0544508
0.0542079
0.050746
0.0450187
0.0380033
0.0306859
0.0403784
0.0496984
0.053976
0.0538978
0.0505613
0.0449267
0.0379713
0.0306808
0.0411087
0.0501906
0.0545882
0.0545647
0.0512012
0.0454774
0.038405
0.0309993
0.0424247
0.0512461
0.0557576
0.055755
0.0523007
0.0464069
0.0391312
0.0315223
0.0435176
0.0518175
0.056536
0.0566737
0.0532274
0.0472303
0.0398069
0.0320613
0.174336
0.113896
0.100758
0.091273
0.0806104
0.0682046
0.0546221
0.0414165
0.173371
0.113879
0.100803
0.0911706
0.0803301
0.0678714
0.0543717
0.0412882
0.167789
0.112048
0.0996556
0.0901253
0.0793556
0.0670826
0.0538421
0.0409895
0.163276
0.110783
0.0990983
0.0898232
0.0791867
0.0670101
0.0538564
0.0410532
0.162225
0.111124
0.0998865
0.0908473
0.0802403
0.0679288
0.0545805
0.0415851
0.162576
0.112161
0.10134
0.092586
0.0819807
0.0694269
0.0557491
0.0424258
0.159466
0.111925
0.101988
0.093753
0.0833729
0.0707371
0.0568152
0.0432255
0.00704931
0.00382384
0.00706088
0.00653187
0.00609227
0.00564018
0.00521685
0.00487561
0.0047224
0.00513749
0.00959972
0.00649563
0.00605593
0.00560306
0.00517791
0.00483329
0.00467423
0.00507741
0.0094888
0.00645432
0.00601913
0.00556973
0.00514679
0.00480314
0.0046436
0.00504292
0.00942681
0.00643072
0.00600055
0.00555501
0.00513475
0.00479273
0.00463399
0.00503309
0.0094128
0.00642197
0.00599739
0.00555655
0.00514003
0.00480091
0.00464462
0.00504739
0.00944611
0.00641436
0.00599478
0.00555888
0.0051471
0.00481242
0.00466054
0.00506977
0.00949753
0.00640019
0.00598288
0.00554916
0.00513946
0.00480661
0.00465612
0.00506625
0.00949349
0.00955698
0.00870648
0.00788021
0.0071351
0.00654102
0.00623718
0.00673407
0.012761
0.0095033
0.00865936
0.00783799
0.00709501
0.00649903
0.00618777
0.00666771
0.0126319
0.00943488
0.00860355
0.0077918
0.00705465
0.006461
0.00614939
0.00662507
0.0125575
0.00938932
0.00856964
0.00776661
0.00703512
0.00644452
0.00613415
0.00660936
0.0125336