/*--------------------------------*- C++ -*----------------------------------*\
| =========                 |                                                 |
| \\      /  F ield         | OpenFOAM: The Open Source CFD Toolbox           |
|  \\    /   O peration     | Version:  plus.master.MPPICInterFoam            |
|   \\  /    A nd           | Web:      www.OpenFOAM.com                      |
|    \\/     M anipulation  |                                                 |
\*---------------------------------------------------------------------------*/
FoamFile
{
    version     2.0;
    format      ascii;
    class       volVectorField;
    location    "7.4";
    object      U;
}
// * * * * * * * * * * * * * * * * * * * * * * * * * * * * * * * * * * * * * //

dimensions      [0 1 -1 0 0 0 0];

internalField   nonuniform List<vector> 
11822
(
(-0.0203377 -0.0229746 0.492542)
(-0.0139129 -0.0306006 0.555289)
(-0.00364173 -0.0327376 0.607731)
(0.00644635 -0.0311669 0.614779)
(0.0153549 -0.030359 0.563767)
(0.0214733 -0.024631 0.494034)
(0.0225703 -0.0175751 0.433932)
(-0.0264454 -0.0177433 0.554638)
(-0.0161029 -0.023097 0.68168)
(-0.00144314 -0.021776 0.766704)
(0.00865066 -0.0203206 0.762873)
(0.0188232 -0.023003 0.699142)
(0.0270026 -0.0192976 0.563452)
(0.0291096 -0.0132536 0.467327)
(-0.0279924 -0.00830114 0.604612)
(-0.0127656 -0.0104419 0.761329)
(0.00281777 -0.00959797 0.835232)
(0.00994636 -0.00949586 0.8395)
(0.0169378 -0.0110148 0.763346)
(0.0281973 -0.0092353 0.62004)
(0.032629 -0.00629316 0.487812)
(-0.0283042 0.00326465 0.600705)
(-0.0139608 0.00180043 0.756785)
(0.00114135 -0.000501962 0.829238)
(0.00876302 -0.000924139 0.824184)
(0.0173105 0.00112479 0.753083)
(0.0292267 0.00316572 0.601983)
(0.0333434 0.00202573 0.483113)
(-0.0275325 0.0140721 0.54629)
(-0.0177682 0.0164316 0.675528)
(-0.00286586 0.0133743 0.745709)
(0.00865644 0.0122438 0.744426)
(0.020621 0.0163694 0.670443)
(0.0290958 0.0143731 0.542096)
(0.0307239 0.0096958 0.456879)
(-0.0219231 0.0203401 0.479877)
(-0.0154113 0.0257351 0.54137)
(-0.00445755 0.0266574 0.590158)
(0.0072501 0.0266361 0.584451)
(0.0171628 0.026386 0.536397)
(0.0234659 0.0211786 0.475264)
(0.0242525 0.0144236 0.419056)
(-0.0154511 0.0211123 0.421893)
(-0.0105558 0.0274292 0.454837)
(-0.00318552 0.0306295 0.475055)
(0.00494265 0.0307699 0.473732)
(0.012166 0.0280531 0.451741)
(0.0167347 0.021866 0.416971)
(0.0178932 0.0155664 0.376739)
(-0.021443 -0.0224398 0.485611)
(-0.0170493 -0.0319621 0.525533)
(-0.00682342 -0.0370905 0.555537)
(0.00598834 -0.0364031 0.561466)
(0.016427 -0.0320418 0.528722)
(0.0214412 -0.0236031 0.483745)
(0.020681 -0.0160367 0.436514)
(-0.0297644 -0.0179333 0.522581)
(-0.0238026 -0.0261096 0.587885)
(-0.0090053 -0.0304539 0.658907)
(0.00908844 -0.0292708 0.686438)
(0.0234312 -0.026152 0.617419)
(0.0296005 -0.0188866 0.525026)
(0.0280495 -0.012546 0.463342)
(-0.0341001 -0.00770096 0.547474)
(-0.0267122 -0.0117577 0.651098)
(-0.00653346 -0.0126739 0.765496)
(0.0123465 -0.0105782 0.763055)
(0.027952 -0.0100029 0.694806)
(0.0339493 -0.00754607 0.555556)
(0.0327482 -0.00539663 0.477877)
(-0.0335943 0.00498488 0.544226)
(-0.0258471 0.00671071 0.649231)
(-0.00516184 0.0068306 0.747054)
(0.0129342 0.00760222 0.746641)
(0.0279844 0.00876535 0.671886)
(0.0344056 0.00624322 0.546501)
(0.0325861 0.00323916 0.474306)
(-0.0288435 0.0149301 0.513098)
(-0.0225711 0.0212768 0.582481)
(-0.00703251 0.0250969 0.654937)
(0.010903 0.0252706 0.656977)
(0.0239228 0.0225276 0.584691)
(0.029895 0.0161526 0.51035)
(0.0277467 0.00993656 0.452859)
(-0.0205232 0.0191591 0.469972)
(-0.0159621 0.0270521 0.508306)
(-0.00566237 0.0314483 0.53617)
(0.00701723 0.0320307 0.535369)
(0.0168925 0.0281212 0.506493)
(0.0214127 0.0201201 0.465265)
(0.0205504 0.01286 0.420415)
(-0.0136121 0.0181534 0.423461)
(-0.0102106 0.0247059 0.45062)
(-0.00364874 0.0291036 0.466355)
(0.00438817 0.0293766 0.465564)
(0.0110174 0.0252707 0.447709)
(0.0142686 0.0186643 0.418214)
(0.0145506 0.0127999 0.382252)
(-0.0121597 -0.0123144 0.487725)
(-0.0110478 -0.0184705 0.519772)
(-0.00602933 -0.023668 0.539261)
(0.00248256 -0.0247523 0.539697)
(0.00950707 -0.0197407 0.518237)
(0.0115243 -0.0131459 0.483574)
(0.0103306 -0.00831891 0.442031)
(-0.0176471 -0.0107555 0.516961)
(-0.017212 -0.0172071 0.555698)
(-0.0100012 -0.022217 0.584622)
(0.00341593 -0.022803 0.595168)
(0.0144772 -0.01782 0.557668)
(0.0175738 -0.0118603 0.513517)
(0.0144471 -0.00720514 0.465333)
(-0.0220195 -0.00524943 0.532812)
(-0.0217188 -0.00851297 0.578603)
(-0.0123704 -0.0108587 0.631063)
(0.00620637 -0.0110367 0.663951)
(0.0195738 -0.00752549 0.596447)
(0.0226482 -0.00529569 0.530996)
(0.0178268 -0.00353003 0.47695)
(-0.0214303 0.00241949 0.529076)
(-0.0205692 0.00418906 0.574635)
(-0.0110054 0.00665799 0.626502)
(0.00735469 0.00907529 0.661372)
(0.019322 0.00685942 0.585738)
(0.0221885 0.00360124 0.52662)
(0.0173646 0.00141613 0.473155)
(-0.0163722 0.00775514 0.505737)
(-0.0154653 0.0125522 0.543414)
(-0.007622 0.0167931 0.571378)
(0.00535027 0.0185779 0.576707)
(0.0146565 0.0145407 0.54321)
(0.0167247 0.00897779 0.501473)
(0.013662 0.0047456 0.454349)
(-0.0105296 0.00907261 0.470065)
(-0.00956138 0.0141609 0.500485)
(-0.00462137 0.0187695 0.518812)
(0.00320945 0.0199232 0.518609)
(0.00922736 0.0153572 0.49809)
(0.0107601 0.00968004 0.464832)
(0.00949247 0.0055112 0.424822)
(-0.00628689 0.00798063 0.427879)
(-0.00532469 0.0112309 0.452251)
(-0.00241774 0.0141074 0.465509)
(0.0019498 0.014575 0.464579)
(0.00545942 0.0116776 0.449066)
(0.00663775 0.0079176 0.422451)
(0.00626592 0.00483243 0.388273)
(-0.00172392 -0.00161528 0.491884)
(-0.00254254 -0.00321023 0.520885)
(-0.00220449 -0.00483821 0.537132)
(-0.000408983 -0.00537557 0.536784)
(0.000841694 -0.00311962 0.518614)
(0.000286815 -0.000965306 0.487423)
(-0.000861649 0.000503644 0.447564)
(-0.0029366 -0.00235302 0.518113)
(-0.00460474 -0.00447541 0.551334)
(-0.00415681 -0.00683777 0.571349)
(-0.000492825 -0.00780423 0.571532)
(0.00240756 -0.00493521 0.550187)
(0.00160517 -0.00231079 0.513887)
(-0.000455422 -0.000557591 0.469958)
(-0.00397748 -0.00190879 0.531085)
(-0.00664896 -0.0032155 0.567839)
(-0.00598873 -0.00443619 0.589852)
(-0.000249671 -0.00503735 0.591361)
(0.00437449 -0.00317276 0.566431)
(0.00334752 -0.00194465 0.52741)
(0.000172185 -0.00095322 0.480405)
(-0.00343425 -0.000691219 0.527149)
(-0.00612951 -0.000373004 0.564083)
(-0.00567352 0.000654615 0.586545)
(-2.7069e-05 0.00134858 0.587755)
(0.00445927 0.000475967 0.562053)
(0.00296381 -0.000576073 0.523222)
(-0.000148049 -0.000892045 0.476627)
(-0.00142626 -0.000318398 0.506554)
(-0.00320643 0.000771681 0.539323)
(-0.00297488 0.0026629 0.559119)
(-5.60488e-05 0.00389887 0.558099)
(0.00200031 0.00152615 0.537267)
(0.000831299 -0.000445464 0.502047)
(-0.00127776 -0.00134972 0.458953)
(0.000340774 -0.0011681 0.473713)
(-0.000959116 -0.000425165 0.501494)
(-0.00122111 0.000757645 0.517143)
(-0.000237252 0.00124648 0.516431)
(0.000283786 -0.000411698 0.498937)
(-0.000689334 -0.0018117 0.468735)
(-0.00214937 -0.00250876 0.430222)
(0.00161211 -0.0023201 0.432688)
(0.000573813 -0.00226115 0.456523)
(-7.61244e-05 -0.00192374 0.469036)
(-0.000192542 -0.00191083 0.468112)
(-0.000494744 -0.00276298 0.453555)
(-0.00145079 -0.00346952 0.427719)
(-0.00252596 -0.00370648 0.393489)
(0.00508705 0.00589282 0.50079)
(0.00291398 0.00682099 0.531747)
(0.000381489 0.00775797 0.548674)
(-0.00226278 0.00815885 0.548462)
(-0.00480078 0.00817513 0.530527)
(-0.00701849 0.00776994 0.498156)
(-0.00851698 0.00718603 0.455027)
(0.00628683 0.00358655 0.529099)
(0.00352013 0.00396535 0.562739)
(0.000389756 0.00429033 0.581983)
(-0.00293694 0.00448098 0.58234)
(-0.00584819 0.00482682 0.562245)
(-0.00840306 0.00477737 0.526666)
(-0.0104422 0.00460065 0.480212)
(0.00745537 0.000826119 0.542858)
(0.00402277 0.000734593 0.578612)
(0.000297105 0.00060323 0.599597)
(-0.0031438 0.000648292 0.600762)
(-0.00631967 0.00113938 0.578766)
(-0.00938887 0.00138098 0.540939)
(-0.0116895 0.00157897 0.492134)
(0.00812574 -0.00223707 0.539364)
(0.00453817 -0.00292345 0.575051)
(0.000584296 -0.00312284 0.595977)
(-0.00308402 -0.00312456 0.597289)
(-0.00636273 -0.00298982 0.574929)
(-0.00966465 -0.00245588 0.537303)
(-0.0121409 -0.00179682 0.488686)
(0.00821004 -0.00519184 0.518785)
(0.00499133 -0.00628872 0.552184)
(0.00129703 -0.00688426 0.571144)
(-0.00274304 -0.00688392 0.571284)
(-0.00624269 -0.00674987 0.551508)
(-0.00927834 -0.00614453 0.51627)
(-0.0116713 -0.00507885 0.470134)
(0.00788848 -0.00766332 0.484226)
(0.00497484 -0.00912133 0.514305)
(0.00160152 -0.0102392 0.530972)
(-0.00206381 -0.0105066 0.530754)
(-0.00556569 -0.0100715 0.51316)
(-0.00846166 -0.00916996 0.481189)
(-0.0105089 -0.00772584 0.439)
(0.00731199 -0.00927877 0.439509)
(0.00480874 -0.0112704 0.466176)
(0.00183113 -0.0125778 0.480278)
(-0.00142399 -0.0130168 0.479813)
(-0.00455573 -0.0125726 0.464465)
(-0.00710453 -0.0113215 0.436336)
(-0.00877906 -0.00944124 0.398521)
(0.0121904 0.0143558 0.512771)
(0.00796734 0.0174423 0.548771)
(0.0027736 0.0190556 0.569268)
(-0.0028184 0.0203474 0.569639)
(-0.00906788 0.0209623 0.548972)
(-0.0146947 0.0191012 0.512077)
(-0.0178319 0.0157112 0.46351)
(0.0154322 0.00950072 0.547091)
(0.00922244 0.0106017 0.582412)
(0.00329324 0.0115776 0.608507)
(-0.00242154 0.0125799 0.608887)
(-0.00981804 0.0133103 0.581217)
(-0.0179156 0.013055 0.543751)
(-0.0229021 0.0110865 0.493524)
(0.0171819 0.00394752 0.565925)
(0.0103831 0.00425668 0.60621)
(0.0038661 0.00465001 0.630139)
(-0.00223509 0.00512739 0.631043)
(-0.0103205 0.00546383 0.604912)
(-0.0194076 0.00530447 0.561864)
(-0.0256571 0.00480178 0.508151)
(0.0183453 -0.00164055 0.56338)
(0.0112989 -0.00161606 0.60345)
(0.00437304 -0.00171399 0.627609)
(-0.00224952 -0.00180338 0.628239)
(-0.0110028 -0.00180289 0.600959)
(-0.0205621 -0.00240646 0.560812)
(-0.0263962 -0.00194447 0.50585)
(0.0187428 -0.00818283 0.539319)
(0.011801 -0.00922264 0.572869)
(0.00479748 -0.00993682 0.598997)
(-0.00210449 -0.0105551 0.598594)
(-0.0110281 -0.0107477 0.570344)
(-0.0203743 -0.0103457 0.535575)
(-0.0252202 -0.00845182 0.48506)
(0.017124 -0.0144273 0.499566)
(0.0117455 -0.0176284 0.533452)
(0.00485696 -0.0190747 0.552586)
(-0.00259973 -0.0201571 0.553723)
(-0.0107615 -0.0203629 0.533618)
(-0.0178695 -0.0177467 0.496199)
(-0.0216582 -0.0137106 0.449777)
(0.0141014 -0.0177026 0.448435)
(0.00990116 -0.0225118 0.479974)
(0.0042497 -0.0253272 0.496369)
(-0.00212603 -0.0262461 0.496698)
(-0.00866168 -0.024957 0.479307)
(-0.0139649 -0.0214985 0.447192)
(-0.0163036 -0.0160481 0.403368)
(0.0188832 -0.013475 0.38868)
(0.0153871 -0.0106033 0.355755)
(0.0124932 -0.00805253 0.325265)
(0.0100408 -0.00573207 0.296999)
(0.00787353 -0.00363411 0.270706)
(0.00593213 -0.00177073 0.245654)
(0.00425157 -0.000153832 0.219415)
(0.00269765 0.00119556 0.181636)
(0.0241687 -0.0107299 0.410012)
(0.0193668 -0.00860987 0.368186)
(0.0153109 -0.00660303 0.331592)
(0.0118553 -0.00465039 0.298684)
(0.00888959 -0.00284105 0.268676)
(0.00631773 -0.00124901 0.240645)
(0.00412907 9.48817e-05 0.212125)
(0.00217538 0.00117556 0.172435)
(0.0277225 -0.00531335 0.420976)
(0.022516 -0.00445306 0.37361)
(0.0177303 -0.00348084 0.332926)
(0.0135386 -0.00242343 0.296878)
(0.00990992 -0.00135693 0.264399)
(0.00678684 -0.000382227 0.234436)
(0.00415431 0.00046622 0.204451)
(0.00185529 0.00117361 0.163605)
(0.0283094 0.0011632 0.417256)
(0.0230284 0.000661198 0.368823)
(0.0181118 0.000426195 0.327153)
(0.0137691 0.000414387 0.290258)
(0.0099768 0.000533325 0.257105)
(0.00671031 0.000717184 0.226654)
(0.00395288 0.000930991 0.196384)
(0.0015451 0.00114977 0.15556)
(0.0256282 0.0070918 0.398982)
(0.0206424 0.00533238 0.353823)
(0.0162112 0.0039842 0.314254)
(0.0123185 0.00297054 0.278879)
(0.00892337 0.00220971 0.246931)
(0.00597938 0.00165383 0.217499)
(0.00347015 0.00127089 0.188165)
(0.00123515 0.00103682 0.148563)
(0.0203639 0.0107161 0.371119)
(0.0163146 0.00817687 0.331786)
(0.0128927 0.00612654 0.296491)
(0.00990401 0.00445546 0.264427)
(0.00727498 0.00311194 0.235161)
(0.00495876 0.00203903 0.207958)
(0.00294782 0.00121407 0.180559)
(0.00108395 0.000619903 0.143182)
(0.015311 0.0115762 0.338659)
(0.0124713 0.0089377 0.306884)
(0.0100457 0.00676216 0.277029)
(0.00792023 0.00494375 0.249236)
(0.00601018 0.00340334 0.223472)
(0.00428964 0.00209538 0.199167)
(0.00275573 0.00102691 0.174239)
(0.00126206 0.000181982 0.139557)
(0.0165639 -0.011788 0.395996)
(0.0131343 -0.00885693 0.364979)
(0.0104616 -0.00637781 0.335104)
(0.00829845 -0.00426599 0.306833)
(0.00646065 -0.00247326 0.280288)
(0.0048774 -0.000951378 0.254941)
(0.00352925 0.000317978 0.228475)
(0.00221997 0.00137202 0.190449)
(0.021622 -0.00962335 0.414792)
(0.0165863 -0.00730587 0.376413)
(0.0127099 -0.00522923 0.341061)
(0.00962991 -0.00335788 0.308381)
(0.00711306 -0.00176795 0.278189)
(0.00503502 -0.000452093 0.249875)
(0.00331595 0.000599199 0.22109)
(0.00171243 0.0013802 0.181071)
(0.0252953 -0.00457394 0.423827)
(0.019417 -0.00364559 0.380971)
(0.0146941 -0.00262938 0.342019)
(0.0108777 -0.00159164 0.306389)
(0.007779 -0.000638712 0.273789)
(0.00525238 0.000182965 0.243553)
(0.00319731 0.000858099 0.213289)
(0.00135614 0.00137428 0.172079)
(0.0252746 0.00168059 0.419923)
(0.0194888 0.000965543 0.375945)
(0.0147369 0.000692402 0.335984)
(0.0108236 0.000665617 0.299502)
(0.00763376 0.000771575 0.266233)
(0.00502487 0.000936856 0.235521)
(0.00290067 0.00112108 0.204985)
(0.00100701 0.00128988 0.163814)
(0.0217267 0.00673556 0.403094)
(0.016787 0.00475974 0.361292)
(0.0127342 0.00344041 0.322929)
(0.00937719 0.00251575 0.287771)
(0.00661746 0.0018903 0.255662)
(0.00432976 0.00147665 0.225989)
(0.00243447 0.00122801 0.196432)
(0.0006914 0.00110602 0.156548)
(0.0165255 0.00917208 0.377238)
(0.0127737 0.00660173 0.339772)
(0.00978651 0.00475636 0.30501)
(0.00732142 0.00334757 0.2729)
(0.00525718 0.00229811 0.243415)
(0.00350317 0.00152161 0.215997)
(0.00200793 0.000980394 0.188435)
(0.000541563 0.000639162 0.150875)
(0.0120651 0.0092559 0.346187)
(0.00956011 0.00681571 0.315122)
(0.00749566 0.00496699 0.285289)
(0.00579805 0.00351563 0.257272)
(0.00432751 0.00235165 0.231256)
(0.00303751 0.00141302 0.206762)
(0.00190327 0.000686248 0.181722)
(0.000737396 0.000107997 0.146945)
(0.00792015 -0.00562998 0.403232)
(0.00610336 -0.00370879 0.372647)
(0.0047612 -0.00215109 0.342362)
(0.0037771 -0.000941311 0.313416)
(0.00302244 1.57001e-07 0.286208)
(0.00243292 0.00072666 0.260325)
(0.00199194 0.00125826 0.23348)
(0.00146203 0.0016993 0.195099)
(0.0103773 -0.00505571 0.420929)
(0.00752968 -0.00332918 0.383793)
(0.00548186 -0.00185689 0.348373)
(0.00400596 -0.000659992 0.315098)
(0.00294411 0.000264486 0.284227)
(0.00216672 0.00094551 0.255333)
(0.00159803 0.00138817 0.226089)
(0.00092557 0.00160613 0.185674)
(0.0124645 -0.00270147 0.428815)
(0.00888798 -0.00180336 0.387949)
(0.00624423 -0.000930981 0.349221)
(0.00431057 -0.000146192 0.313095)
(0.00293838 0.000503839 0.279833)
(0.00195511 0.00100662 0.249007)
(0.00126322 0.00135088 0.21826)
(0.000532711 0.00152295 0.176614)
(0.0122441 0.000564777 0.424691)
(0.00871834 0.000322662 0.382702)
(0.00602939 0.000358768 0.342957)
(0.00404439 0.000532027 0.30599)
(0.00263165 0.000755854 0.272082)
(0.00161718 0.000979875 0.240803)
(0.000908469 0.0011781 0.209805)
(0.00018071 0.00132218 0.168215)
(0.00991011 0.00292159 0.408594)
(0.00702283 0.00182057 0.367987)
(0.00483237 0.00122523 0.329538)
(0.00321689 0.000909931 0.293819)
(0.00205833 0.000789313 0.261095)
(0.00120845 0.000789955 0.230913)
(0.000594675 0.000890643 0.200956)
(-9.74194e-05 0.0010596 0.160725)
(0.00701927 0.00357581 0.383479)
(0.00490807 0.00212405 0.346294)
(0.0033902 0.00127843 0.311087)
(0.00229481 0.000748865 0.278342)
(0.00148864 0.000460072 0.248282)
(0.00086458 0.000345171 0.220437)
(0.000389408 0.000398413 0.192566)
(-0.000244901 0.000571814 0.154774)
(0.00476386 0.00309718 0.352511)
(0.0034729 0.00181931 0.321146)
(0.00249924 0.00102012 0.290682)
(0.00180463 0.000496451 0.26203)
(0.00126058 0.000162536 0.235514)
(0.000823632 -2.39936e-05 0.210672)
(0.0004863 -5.78735e-05 0.1854)
(-8.34271e-06 -7.99744e-05 0.150494)
(-0.00157366 0.00141162 0.408463)
(-0.00162106 0.00213432 0.377112)
(-0.00139831 0.00251932 0.345755)
(-0.000947832 0.00264483 0.315826)
(-0.000390558 0.0025852 0.287877)
(0.000180146 0.0024079 0.261509)
(0.000701556 0.00215984 0.234385)
(0.00101875 0.00202419 0.195884)
(-0.00182381 0.000435492 0.42638)
(-0.00233407 0.00136679 0.388733)
(-0.00228329 0.00196801 0.352247)
(-0.0018403 0.00231911 0.317895)
(-0.00117989 0.00245282 0.28618)
(-0.000474037 0.00241257 0.256705)
(0.000162828 0.00221672 0.22708)
(0.000436531 0.00184778 0.186535)
(-0.00183082 -0.000244247 0.434105)
(-0.00275077 0.000491827 0.393068)
(-0.00294472 0.00107269 0.353354)
(-0.00259162 0.00150471 0.316127)
(-0.00191423 0.00177603 0.281968)
(-0.0011371 0.00189735 0.250513)
(-0.000402952 0.00187185 0.219339)
(-6.83122e-06 0.00165602 0.177524)
(-0.00215973 -0.000733918 0.429976)
(-0.00315293 -0.000410413 0.387791)
(-0.00338262 -2.41222e-07 0.347056)
(-0.00304009 0.000408757 0.308996)
(-0.0023545 0.000762153 0.274206)
(-0.00155886 0.00103889 0.242321)
(-0.000800841 0.00123775 0.21092)
(-0.000344897 0.00133746 0.169191)
(-0.00277379 -0.00152482 0.413975)
(-0.00346925 -0.00151797 0.372801)
(-0.00349595 -0.00122385 0.333271)
(-0.00305868 -0.00081211 0.296503)
(-0.00236515 -0.000355222 0.262994)
(-0.00161268 0.000101987 0.232309)
(-0.000932007 0.000553783 0.202044)
(-0.0005698 0.00101026 0.161762)
(-0.00310739 -0.00266457 0.388619)
(-0.00339609 -0.00274467 0.350479)
(-0.00319216 -0.0024304 0.31416)
(-0.00268729 -0.00194925 0.280494)
(-0.0020456 -0.00137757 0.24982)
(-0.00141028 -0.000772663 0.221627)
(-0.000877217 -0.000147619 0.193588)
(-0.000665323 0.000503968 0.155879)
(-0.00298321 -0.00355766 0.356769)
(-0.00289957 -0.0034614 0.324376)
(-0.00259586 -0.00306118 0.292945)
(-0.00212527 -0.00251839 0.263583)
(-0.00159491 -0.00190636 0.236644)
(-0.00107765 -0.0012795 0.211608)
(-0.000630344 -0.00066555 0.186297)
(-0.000425321 -0.000153488 0.151598)
(-0.008062 0.0067939 0.411771)
(-0.00661206 0.0064281 0.377153)
(-0.00497884 0.00573357 0.343037)
(-0.00332229 0.00488665 0.311054)
(-0.00181539 0.00403599 0.281702)
(-0.00056102 0.00325619 0.254396)
(0.000502787 0.00247597 0.226546)
(0.000779207 0.00222576 0.187091)
(-0.0104649 0.00501033 0.432352)
(-0.00912146 0.00515146 0.39078)
(-0.00715664 0.00490856 0.350961)
(-0.00498544 0.00440814 0.314131)
(-0.00295538 0.0037901 0.28076)
(-0.00128034 0.00312217 0.250233)
(0.000105807 0.00233894 0.21985)
(0.000269307 0.0017254 0.178276)
(-0.012096 0.00220611 0.441594)
(-0.0110725 0.00268458 0.396376)
(-0.00904345 0.00292044 0.352993)
(-0.00656011 0.00292586 0.313002)
(-0.0041276 0.00275876 0.276998)
(-0.00206762 0.00247004 0.244402)
(-0.000312563 0.00203538 0.21243)
(5.33051e-05 0.00159748 0.169461)
(-0.0126681 -0.00107527 0.437722)
(-0.0117334 -0.000390046 0.391292)
(-0.00968459 0.000256288 0.346847)
(-0.0071324 0.000787947 0.305997)
(-0.00460762 0.00116625 0.269348)
(-0.00244765 0.00140968 0.236305)
(-0.000587464 0.00154859 0.204083)
(-0.000152833 0.00159015 0.161087)
(-0.0120393 -0.0042607 0.420657)
(-0.0109185 -0.00337427 0.37533)
(-0.00887532 -0.00233979 0.33232)
(-0.00648999 -0.00131044 0.293008)
(-0.00421409 -0.000394675 0.257821)
(-0.00232202 0.000383555 0.226062)
(-0.00072439 0.00110825 0.194963)
(-0.000489905 0.00163878 0.153282)
(-0.010402 -0.00673264 0.39297)
(-0.00898717 -0.00560168 0.351071)
(-0.00709728 -0.00422325 0.311791)
(-0.00513297 -0.00282192 0.276039)
(-0.00337992 -0.001552 0.243995)
(-0.00199594 -0.000449603 0.214871)
(-0.000861263 0.000612427 0.185988)
(-0.00088769 0.00132671 0.146767)
(-0.00820497 -0.00775212 0.357902)
(-0.00679999 -0.00636686 0.322589)
(-0.00529423 -0.00486102 0.288899)
(-0.00386214 -0.0034251 0.257948)
(-0.002623 -0.00216794 0.229912)
(-0.00164965 -0.00111409 0.20402)
(-0.000839304 -0.000122508 0.17779)
(-0.000855844 0.000354266 0.141451)
(-0.0146461 0.0125726 0.413443)
(-0.00998642 0.00984273 0.374788)
(-0.00567169 0.00710537 0.33906)
(-0.00197661 0.00453465 0.307912)
(0.00107017 0.00223792 0.281574)
(0.00332772 0.000403732 0.259672)
(0.00447562 -0.000682049 0.241422)
(0.00331892 1.0393e-05 0.223143)
(-0.0205519 0.0102148 0.43831)
(-0.0151166 0.00881491 0.390811)
(-0.00934294 0.00713279 0.34786)
(-0.00410643 0.00525887 0.310832)
(0.000253242 0.00337235 0.279923)
(0.0034655 0.00168982 0.254545)
(0.00513003 0.000451417 0.233909)
(0.0036618 0.000316554 0.214864)
(-0.0242999 0.00508384 0.450226)
(-0.019188 0.00501135 0.398065)
(-0.0127372 0.00459379 0.35058)
(-0.00647977 0.00383161 0.309656)
(-0.00109876 0.00283804 0.275708)
(0.00296318 0.00178411 0.248031)
(0.00521021 0.00083792 0.225891)
(0.00385758 0.000321976 0.206386)
(-0.0251126 -0.00094556 0.44686)
(-0.0200357 7.30021e-05 0.393229)
(-0.0134754 0.000887474 0.344549)
(-0.00700875 0.00138583 0.302743)
(-0.00139539 0.00157252 0.268142)
(0.0028691 0.00151146 0.240105)
(0.00527622 0.00126379 0.217897)
(0.00399366 0.000819021 0.198949)
(-0.0230765 -0.00654268 0.427808)
(-0.0176707 -0.00446623 0.376053)
(-0.0114783 -0.00247884 0.329646)
(-0.00562386 -0.000786397 0.290054)
(-0.00064013 0.000520481 0.257352)
(0.00307434 0.00140704 0.230948)
(0.00509865 0.00183808 0.210045)
(0.00368722 0.00146496 0.192492)
(-0.0184363 -0.0104755 0.39647)
(-0.0130563 -0.00735802 0.34979)
(-0.00784407 -0.0044143 0.308688)
(-0.00326181 -0.00188063 0.273829)
(0.000504341 0.000129033 0.245005)
(0.00323245 0.00154063 0.221719)
(0.00462515 0.00224904 0.203189)
(0.0031833 0.00155139 0.187667)
(-0.0128054 -0.0111203 0.357359)
(-0.00860033 -0.00732476 0.319597)
(-0.00485559 -0.00400022 0.285873)
(-0.00170225 -0.00126817 0.257)
(0.000871399 0.000877871 0.232887)
(0.00272394 0.0023522 0.213227)
(0.00362099 0.00298631 0.19739)
(0.0024039 0.00182736 0.18372)
(-0.0142929 0.0161415 0.384987)
(-0.0115241 0.0129159 0.352175)
(-0.00902755 0.0105033 0.321746)
(-0.0067253 0.00851209 0.293461)
(-0.00457377 0.0067959 0.267092)
(-0.00256968 0.0053625 0.241924)
(-0.000748448 0.00420981 0.215607)
(0.000939709 0.00323563 0.177677)
(-0.0207486 0.0155807 0.427586)
(-0.0170333 0.0123575 0.385927)
(-0.0134745 0.00995669 0.349438)
(-0.0101789 0.00808471 0.316601)
(-0.00717683 0.00645859 0.286577)
(-0.00446334 0.00516516 0.258369)
(-0.00208079 0.00418153 0.229371)
(3.61523e-05 0.00339392 0.188237)
(-0.0280029 0.0108181 0.46756)
(-0.0239436 0.0086862 0.416798)
(-0.0192398 0.0070158 0.374507)
(-0.0147261 0.00581352 0.337587)
(-0.0106062 0.00479076 0.304458)
(-0.00695545 0.00403319 0.273751)
(-0.00380597 0.00352037 0.242573)
(-0.00107232 0.0031568 0.198776)
(-0.0314842 0.00262516 0.495628)
(-0.0279251 0.00195291 0.437472)
(-0.0227783 0.00145538 0.391648)
(-0.0176228 0.0012243 0.352515)
(-0.0128559 0.00124055 0.317798)
(-0.008656 0.00140985 0.285853)
(-0.00505703 0.0016587 0.253583)
(-0.00196586 0.0019179 0.208331)
(-0.0307401 -0.00631001 0.498998)
(-0.0269828 -0.00547014 0.441676)
(-0.0218867 -0.00474393 0.396776)
(-0.0169086 -0.00393045 0.358423)
(-0.0123665 -0.00277413 0.324379)
(-0.00840129 -0.0016005 0.292903)
(-0.00501332 -0.000537316 0.260923)
(-0.00209899 0.00038412 0.215695)
(-0.0259746 -0.0137016 0.477174)
(-0.0216532 -0.0113371 0.429518)
(-0.0172176 -0.00932469 0.38998)
(-0.0132208 -0.00751192 0.355343)
(-0.0097173 -0.00548198 0.324046)
(-0.0066305 -0.00361089 0.294698)
(-0.00396542 -0.0019933 0.264347)
(-0.00164345 -0.000621634 0.220552)
(-0.018648 -0.0171199 0.443639)
(-0.0151063 -0.0137313 0.407807)
(-0.0121285 -0.0109271 0.375571)
(-0.00945387 -0.00860889 0.346089)
(-0.00708199 -0.00633494 0.318725)
(-0.00488617 -0.00428671 0.292467)
(-0.00293044 -0.00250501 0.264565)
(-0.00119986 -0.00096399 0.223002)
(-0.0118653 0.0135606 0.390662)
(-0.00914426 0.010615 0.35979)
(-0.00686061 0.00848805 0.33006)
(-0.0048735 0.00679445 0.30185)
(-0.00308918 0.00544114 0.275292)
(-0.00148647 0.00437005 0.249873)
(-7.29054e-05 0.0035506 0.223336)
(0.00125883 0.00281715 0.185182)
(-0.0178782 0.0139355 0.428969)
(-0.0139252 0.0106307 0.391959)
(-0.0105725 0.00839148 0.357425)
(-0.0076833 0.00663992 0.325239)
(-0.00517562 0.00526938 0.295257)
(-0.00301824 0.00426237 0.266856)
(-0.00118784 0.00354855 0.237612)
(0.000470489 0.00299465 0.196159)
(-0.0257467 0.0108535 0.462574)
(-0.0205174 0.00819046 0.42042)
(-0.0157468 0.00645463 0.381862)
(-0.0115794 0.005185 0.346376)
(-0.00802778 0.00423303 0.313618)
(-0.00504703 0.00359364 0.282814)
(-0.00259052 0.00319094 0.251377)
(-0.000453682 0.0029044 0.207161)
(-0.0311393 0.00346756 0.484814)
(-0.0252787 0.00241521 0.439346)
(-0.0194841 0.00175078 0.398619)
(-0.0144349 0.00150038 0.361458)
(-0.0101498 0.00151411 0.327381)
(-0.00659998 0.00166845 0.295428)
(-0.00371264 0.0018775 0.262899)
(-0.00125161 0.00204923 0.217171)
(-0.0311476 -0.0058162 0.488334)
(-0.0250264 -0.00474434 0.443858)
(-0.0191961 -0.00398764 0.404042)
(-0.0142265 -0.00298981 0.367704)
(-0.0100982 -0.00181572 0.334262)
(-0.00668561 -0.000728045 0.30279)
(-0.00390579 0.000190468 0.270562)
(-0.00151833 0.00090188 0.224858)
(-0.0256355 -0.0130913 0.473282)
(-0.019943 -0.0102104 0.434138)
(-0.015205 -0.00808518 0.398262)
(-0.0113406 -0.00608491 0.365072)
(-0.00815645 -0.00411313 0.334152)
(-0.0054769 -0.00242215 0.304703)
(-0.00326051 -0.0010472 0.274078)
(-0.00129448 2.80063e-05 0.229827)
(-0.0180698 -0.0159554 0.446854)
(-0.0140752 -0.0122393 0.415291)
(-0.0109395 -0.00943056 0.384998)
(-0.00836459 -0.00711904 0.356247)
(-0.00613176 -0.0050197 0.328959)
(-0.00416315 -0.00323365 0.302486)
(-0.00247725 -0.00173851 0.274282)
(-0.000961865 -0.000455421 0.232289)
(-0.00484868 0.00588496 0.396505)
(-0.00320458 0.00448483 0.366015)
(-0.00193986 0.00352123 0.335914)
(-0.000930065 0.00290124 0.307074)
(-9.69865e-05 0.00251891 0.279886)
(0.000593142 0.00231115 0.253937)
(0.00112502 0.00226273 0.226985)
(0.00169643 0.00213462 0.188544)
(-0.00820913 0.00641252 0.433293)
(-0.00571902 0.00475543 0.397957)
(-0.00380098 0.00370392 0.36373)
(-0.00229007 0.0029664 0.331164)
(-0.00113377 0.00252805 0.300577)
(-0.000246097 0.00230991 0.271574)
(0.000388701 0.00228775 0.2418)
(0.00106784 0.00232131 0.199884)
(-0.0126986 0.00532222 0.463987)
(-0.00932238 0.00398341 0.425501)
(-0.00653472 0.00318976 0.38822)
(-0.00428869 0.00265793 0.352802)
(-0.00257668 0.00237047 0.319576)
(-0.00130416 0.00225841 0.28816)
(-0.000428416 0.00228393 0.256107)
(0.000397105 0.00234847 0.211263)
(-0.0164751 0.00153735 0.483802)
(-0.0122923 0.00112398 0.443676)
(-0.00882275 0.00100314 0.405001)
(-0.00599111 0.00111155 0.368303)
(-0.00384292 0.00133477 0.333842)
(-0.00225267 0.00159288 0.30128)
(-0.00116531 0.00182801 0.268095)
(-0.000206574 0.00196113 0.221644)
(-0.0168233 -0.00371128 0.487784)
(-0.0125401 -0.00275481 0.448569)
(-0.00906309 -0.00195419 0.410768)
(-0.00629844 -0.00102311 0.374841)
(-0.00420583 -0.000146516 0.34104)
(-0.00265011 0.000584821 0.308952)
(-0.00155883 0.00111173 0.276052)
(-0.000565197 0.0013848 0.229605)
(-0.0135521 -0.00751368 0.476008)
(-0.0100323 -0.00548883 0.440308)
(-0.0073125 -0.00395742 0.405653)
(-0.00523248 -0.00250276 0.372486)
(-0.00362755 -0.00126157 0.341049)
(-0.00241402 -0.000288355 0.31093)
(-0.00151676 0.000393593 0.279627)
(-0.000611551 0.000777587 0.234672)
(-0.00965961 -0.00857755 0.452756)
(-0.00731241 -0.00623602 0.422831)
(-0.0054766 -0.00452524 0.392847)
(-0.00404649 -0.00309662 0.36369)
(-0.00286182 -0.00193868 0.33574)
(-0.00190365 -0.00102937 0.308569)
(-0.00115857 -0.000344272 0.279714)
(-0.000428238 0.000228891 0.237098)
(0.00257007 -0.00216514 0.400948)
(0.00301332 -0.00207724 0.369592)
(0.00311501 -0.00167439 0.338367)
(0.00298028 -0.00108506 0.308518)
(0.00270403 -0.000393752 0.280562)
(0.00236598 0.00032699 0.254088)
(0.00202655 0.0010262 0.226807)
(0.00184335 0.00151926 0.188343)
(0.00185001 -0.00143851 0.437995)
(0.00281423 -0.00153434 0.402371)
(0.00317643 -0.00130002 0.367159)
(0.00309395 -0.000870083 0.333466)
(0.00271485 -0.000317209 0.301897)
(0.00219221 0.000307487 0.272139)
(0.0016565 0.000980668 0.241801)
(0.00139055 0.0016429 0.199607)
(0.000695517 -0.000592191 0.467828)
(0.00216545 -0.000601205 0.43004)
(0.00294854 -0.000388871 0.392226)
(0.00310303 -4.31865e-05 0.355779)
(0.0027729 0.000370963 0.321487)
(0.00216673 0.000820241 0.289156)
(0.0014513 0.0012966 0.256345)
(0.000991142 0.00176665 0.210996)
(-0.000670602 -0.000537121 0.48659)
(0.00116631 -0.000233096 0.448061)
(0.00229203 0.000192466 0.409248)
(0.00267408 0.000653734 0.37164)
(0.00246532 0.0010904 0.336143)
(0.00189218 0.00145221 0.30261)
(0.00113285 0.00171269 0.268566)
(0.000594785 0.00180546 0.221471)
(-0.00125322 -0.00103455 0.490727)
(0.00050001 -0.000280296 0.453111)
(0.00155911 0.000437322 0.415201)
(0.0019247 0.0010846 0.378393)
(0.00174603 0.00160052 0.343521)
(0.00122766 0.00192631 0.310443)
(0.000557468 0.00201881 0.276672)
(0.000162164 0.00177791 0.229557)
(-0.000902899 -0.00108926 0.480252)
(0.000347037 -7.90203e-05 0.445298)
(0.00099674 0.000705673 0.41015)
(0.00113844 0.00131847 0.375953)
(0.000904594 0.00172273 0.34343)
(0.00047162 0.00190891 0.312354)
(-1.3832e-05 0.00184752 0.280245)
(-0.000155724 0.00146306 0.234704)
(-0.000447284 -0.000453264 0.457916)
(0.000212034 0.000397477 0.427878)
(0.000550847 0.000910493 0.397002)
(0.000600073 0.00118281 0.366739)
(0.00045958 0.00126007 0.337758)
(0.000220979 0.0011969 0.309727)
(-5.95293e-05 0.00101992 0.280186)
(-0.000128453 0.000841563 0.237137)
(0.00780381 -0.00767695 0.403992)
(0.00714399 -0.00633835 0.369287)
(0.00612259 -0.00476033 0.335219)
(0.00497974 -0.00317094 0.303215)
(0.00388528 -0.00170472 0.27374)
(0.00295565 -0.000416315 0.246199)
(0.00213766 0.000781721 0.218056)
(0.00205632 0.00139103 0.17852)
(0.00914476 -0.00679054 0.444803)
(0.00890115 -0.00582576 0.405242)
(0.00778567 -0.00454487 0.366468)
(0.00620354 -0.00314323 0.329962)
(0.00453899 -0.00177499 0.296381)
(0.00305559 -0.000497118 0.265272)
(0.00175826 0.000781497 0.233986)
(0.00158326 0.00176386 0.190749)
(0.0101531 -0.00438438 0.476999)