/*--------------------------------*- C++ -*----------------------------------*\
| =========                 |                                                 |
| \\      /  F ield         | OpenFOAM: The Open Source CFD Toolbox           |
|  \\    /   O peration     | Version:  plus.master.MPPICInterFoam            |
|   \\  /    A nd           | Web:      www.OpenFOAM.com                      |
|    \\/     M anipulation  |                                                 |
\*---------------------------------------------------------------------------*/
FoamFile
{
    version     2.0;
    format      ascii;
    class       vectorField;
    location    "11.2/lagrangian/kinematicCloud";
    object      U;
}
// * * * * * * * * * * * * * * * * * * * * * * * * * * * * * * * * * * * * * //


2992
(
(-0.000582471 -0.000287029 -0.0580802)
(-0.000327399 -0.000154013 -0.0573066)
(-0.00065414 -0.000376857 -0.0583657)
(-0.000653903 -0.000381905 -0.0584147)
(-0.00032719 0.000117611 -0.0567898)
(-6.75781e-05 -0.000818837 -0.0568463)
(-0.000783066 -0.000821015 -0.0582675)
(-0.000309911 -0.000118956 -0.0577259)
(0.000765587 -0.000400027 -0.0535598)
(-0.000413087 -0.00074542 -0.0571308)
(-0.000676719 -0.000748644 -0.057906)
(-0.000620855 -0.000311559 -0.0584235)
(-0.000411072 -0.000722939 -0.0574614)
(0.000745295 -0.000399763 -0.0534531)
(0.000822948 -0.000309924 -0.0531538)
(0.000102628 -0.000878666 -0.0596765)
(-0.000183174 -0.000777081 -0.0579725)
(-0.000735854 -9.92636e-05 -0.0550013)
(-0.000390815 -0.000783136 -0.0600044)
(-0.000670134 -7.38658e-05 -0.0565962)
(-0.000613097 -0.000171154 -0.0560697)
(0.000757727 -0.000389416 -0.0543668)
(-0.000628673 -0.000168494 -0.055253)
(-0.000691233 -0.000688677 -0.0602229)
(0.000697678 -0.000416157 -0.054524)
(5.59449e-06 -0.000439065 -0.0584906)
(-0.000324376 -0.000754686 -0.0599957)
(-0.000613767 -0.0002478 -0.0576393)
(-0.00037899 -0.000749798 -0.0604583)
(-0.000638646 -0.000193139 -0.0554492)
(-0.000608679 -0.000495675 -0.0595274)
(0.000654014 -0.000332665 -0.0541802)
(0.00063787 -0.000278682 -0.0542739)
(0.000638868 -0.000254896 -0.0546006)
(0.000671776 -0.000389548 -0.0544349)
(0.000787147 -0.000271673 -0.0532128)
(-0.000722856 -0.000652379 -0.060139)
(-0.000610068 -0.000107234 -0.0576367)
(-0.000632054 -0.000300964 -0.0588589)
(-0.000701668 -0.000450773 -0.0583677)
(-0.000601562 -3.24994e-05 -0.0575008)
(-0.000554242 -0.000524075 -0.0606791)
(0.000638521 -0.000242825 -0.0531915)
(-0.000584067 -0.000279633 -0.0605873)
(0.000739115 -0.000397872 -0.0553742)
(-0.000647537 -0.00062906 -0.0574654)
(0.000822655 -0.00023353 -0.0520877)
(-0.000589204 -0.000162803 -0.056029)
(0.000755148 -0.000501159 -0.0550312)
(0.000733258 -0.000381757 -0.0554955)
(-0.000587852 -0.000149584 -0.0559625)
(-0.000716388 -0.000417546 -0.0584814)
(0.000751614 -0.000395206 -0.0547959)
(-0.000605657 -0.000121106 -0.0578192)
(-0.00059064 -0.000184405 -0.0558086)
(-0.000659047 8.51695e-05 -0.0586068)
(-0.000566829 -0.000166496 -0.0602969)
(0.000761946 -0.000228373 -0.0538945)
(-0.000635456 8.57822e-05 -0.0587901)
(0.00076521 -0.000482931 -0.0547033)
(0.00108562 -0.00036922 -0.0516814)
(-0.000637559 2.81238e-05 -0.0571702)
(-0.00066346 -0.000334688 -0.059703)
(0.00095383 -0.000500395 -0.0538422)
(-0.000662663 -0.000531091 -0.056157)
(-0.00060243 -0.000194767 -0.0599818)
(-0.000598458 -5.54572e-05 -0.0577127)
(-0.000670249 -0.000179215 -0.0595899)
(0.0010245 -0.000432927 -0.052795)
(0.000665783 -0.000384087 -0.0510107)
(0.000630573 -0.00022277 -0.0538198)
(-0.000739867 -0.000463205 -0.0585563)
(-0.000557402 -0.000580909 -0.0610118)
(0.000958613 -0.000488347 -0.0535276)
(-0.000657019 -0.000488473 -0.0557004)
(0.00097317 -0.000475243 -0.0530142)
(0.000639317 -0.000393387 -0.0514488)
(-0.000613971 6.57466e-06 -0.0575701)
(-0.000680617 9.09247e-05 -0.0594376)
(0.00067292 -0.000484349 -0.0519333)
(-0.000612712 -0.000205675 -0.0551025)
(-0.000674151 -0.000582582 -0.0599452)
(-0.00068864 -5.50371e-05 -0.0593603)
(0.000730134 -0.000102239 -0.0546332)
(0.00117505 -0.000200488 -0.0523438)
(0.000795277 -0.000115073 -0.0548268)
(0.00070902 -9.44276e-05 -0.0550597)
(-0.000675327 -0.000556631 -0.0599077)
(-0.000592287 -0.000337093 -0.0554426)
(-0.000687824 -0.000659369 -0.0571975)
(0.000987485 -0.000450961 -0.0527776)
(-0.000576402 -9.9594e-05 -0.0575332)
(-0.000618007 2.09237e-05 -0.0575439)
(0.000619588 -0.000203542 -0.0545516)
(0.000634218 -0.000519682 -0.0528357)
(0.000736038 -8.02472e-05 -0.0545078)
(-0.000587426 5.29556e-05 -0.0574846)
(0.00067592 -4.39797e-05 -0.0531852)
(0.00063547 -0.000112186 -0.0547434)
(-0.000611259 3.34618e-05 -0.057682)
(0.0013179 8.30812e-05 -0.0553287)
(0.00116715 -0.000200327 -0.0520656)
(0.00116502 -0.000184859 -0.052734)
(0.00063058 -0.000104242 -0.055161)
(0.00117468 -0.000230144 -0.0525246)
(0.00112949 -0.000221043 -0.0529971)
(0.00113287 -0.000233623 -0.0524881)
(0.00116111 -0.000151704 -0.0530508)
(0.000665656 -0.000517148 -0.052429)
(0.000767182 -0.000121611 -0.0545332)
(0.0011305 -0.000265339 -0.0529165)
(-0.000590793 -3.2177e-05 -0.0578202)
(-0.000609568 8.27116e-05 -0.0582709)
(0.00072001 -0.000243692 -0.0549094)
(-0.000572365 -3.59375e-05 -0.0575581)
(-0.000646377 -6.37278e-05 -0.0597054)
(0.00094514 -0.000461586 -0.0528719)
(0.000639639 -0.000495716 -0.0514968)
(0.000665453 -0.000351845 -0.0554841)
(0.000664138 -8.51026e-05 -0.0551529)
(0.000932565 -0.000471915 -0.0532443)
(-0.000600094 -5.73722e-06 -0.057859)
(0.000735449 -0.000107108 -0.0538719)
(-0.000577155 -2.265e-05 -0.0576749)
(0.000728497 -0.00029556 -0.0547724)
(-0.000744668 -0.000470131 -0.0586701)
(0.00121085 -0.000138184 -0.0507128)
(0.00114214 -0.000243561 -0.0522501)
(-0.000484056 -4.86773e-05 -0.0544244)
(0.000625331 -0.000496682 -0.0527415)
(-0.000549541 -1.45487e-05 -0.0575803)
(0.000584777 -7.6758e-05 -0.05488)
(-0.000660906 -0.000172274 -0.0594941)
(-0.000590677 -0.000278178 -0.0573866)
(-0.000676634 0.00046144 -0.0599484)
(0.000644811 -0.000307711 -0.055513)
(0.000633635 -7.73309e-05 -0.0553073)
(0.000677586 -6.10224e-05 -0.0548576)
(0.000640382 -0.000422836 -0.0526204)
(-0.000510779 -0.000104742 -0.0551233)
(-0.000556577 -3.47975e-05 -0.0574226)
(0.000610151 -9.87968e-05 -0.0539994)
(-0.000675321 9.02223e-05 -0.0599894)
(0.00127771 0.000384207 -0.0576144)
(0.000666111 -0.00051172 -0.05258)
(0.000705671 -0.000291891 -0.0529397)
(-0.000680638 0.000150043 -0.0599284)
(0.00126802 0.000381627 -0.0547132)
(0.00123348 0.00034805 -0.0586124)
(0.000595448 -0.000417698 -0.0517159)
(-0.000571327 -0.000407518 -0.059301)
(-0.00068819 -0.000586891 -0.060217)
(0.00114677 -0.000184435 -0.0521842)
(0.00112256 -0.000198487 -0.0531766)
(0.00120254 -0.000134149 -0.050323)
(0.000787367 -0.00022759 -0.0534727)
(0.000617923 -0.000483981 -0.0515982)
(-0.000526688 -0.000113052 -0.0550356)
(-0.000536235 -0.000100482 -0.0571691)
(0.00121184 0.000328047 -0.0552911)
(-0.00068075 0.000148902 -0.0600227)
(-0.000622421 0.000134438 -0.0532927)
(0.000603433 -0.000190089 -0.0536648)
(0.000717306 -0.000105845 -0.0542025)
(0.000756646 -0.000107527 -0.0548246)
(0.000637067 -0.000512907 -0.0517469)
(0.000933483 -0.000456611 -0.0532226)
(0.000629979 -0.000238338 -0.0556308)
(0.000587802 -0.000439471 -0.0512226)
(0.000608625 -0.000501697 -0.0516875)
(-0.000579764 -0.000397141 -0.0587998)
(0.00068905 -0.00011112 -0.0548608)
(0.00118357 -0.000105918 -0.0520876)
(-0.000509446 -0.000109584 -0.0566033)
(0.000708474 -0.000107939 -0.0541674)
(-0.000686163 0.000193741 -0.06008)
(0.000756272 -9.84047e-05 -0.0551986)
(-0.000649037 -0.000203083 -0.0604137)
(0.000755361 -5.84585e-05 -0.0538352)
(-0.00054764 3.29174e-05 -0.0577561)
(-0.00053185 -4.11713e-05 -0.0577506)
(-0.000562968 -0.000124811 -0.0582413)
(0.00067984 -0.00052086 -0.0521434)
(-0.000527502 -6.34571e-05 -0.055819)
(-0.000519572 -2.71153e-05 -0.0578912)
(0.000929163 -0.000443445 -0.0529012)
(0.000618388 -8.83409e-05 -0.055546)
(-0.000507646 -0.000125735 -0.0564009)
(0.000716744 -0.000143774 -0.0540595)
(0.0011772 -0.000307107 -0.0544175)
(0.000567198 -0.000492055 -0.050927)
(0.000506514 -0.000196952 -0.0527511)
(-0.000492217 -5.89724e-05 -0.0579301)
(0.00058838 -0.000206447 -0.0534705)
(0.000679137 -0.000280769 -0.0527809)
(-0.000680099 -0.000334816 -0.0582527)
(0.000599545 -0.000405967 -0.0516088)
(0.000487808 -0.000409782 -0.0507646)
(-0.000529688 -0.00010366 -0.057327)
(-0.000634172 -0.000474748 -0.0591453)
(0.000723893 -9.96606e-05 -0.0533028)
(0.00060654 -0.000140248 -0.0541194)
(0.000628836 -5.18098e-05 -0.0549114)
(-0.000534078 -0.000221061 -0.0565529)
(0.000675937 -8.23782e-05 -0.0544432)
(0.000615266 -0.000178048 -0.0550343)
(0.00110673 -0.000230073 -0.0515477)
(0.000950422 -0.000422998 -0.0512176)
(0.000910365 -0.000448888 -0.0517831)
(0.000519466 -0.000404116 -0.0513888)
(0.000606895 -0.00050728 -0.0529293)
(-0.000511114 -7.39509e-05 -0.0572511)
(-0.000626265 -0.000357282 -0.0582791)
(0.000706125 -0.000176571 -0.054237)
(0.000512107 -0.00021584 -0.0522158)
(-0.000532806 -8.05032e-05 -0.0571307)
(-0.000489666 -9.39526e-05 -0.0580992)
(0.000573462 -0.000155603 -0.053796)
(0.00057615 -0.000448609 -0.0531589)
(-0.000670305 -9.15842e-05 -0.0568704)
(0.000645807 -0.000109121 -0.0533996)
(0.000750185 -5.75162e-05 -0.0538623)
(0.00129694 6.8423e-05 -0.0559855)
(0.000639541 -0.000520717 -0.0527393)
(0.000610503 -6.64175e-05 -0.0554538)
(0.00108646 0.000621546 -0.0548913)
(0.000662267 -5.44697e-05 -0.0550183)
(0.00105658 -0.000271965 -0.0528252)
(0.00107046 -0.00026 -0.0530684)
(0.000468158 -0.000110117 -0.0529661)
(-0.000464091 -2.07142e-05 -0.0546493)
(0.00118516 0.000319299 -0.055047)
(0.000649595 -4.87199e-05 -0.0551556)
(0.00111273 -0.000217855 -0.051206)
(0.000629698 -0.000509317 -0.0519734)
(-0.000506469 -9.52082e-05 -0.0577459)
(-0.000518864 -0.00028995 -0.0599287)
(-0.000189867 -0.00138669 -0.0535556)
(0.00127088 0.000478676 -0.0539462)
(0.000567814 -0.000446615 -0.0532806)
(-0.000472216 -3.24817e-05 -0.0574902)
(0.00117824 0.000322644 -0.0552622)
(-0.000501665 -9.83675e-05 -0.0582338)
(0.000537719 -1.4757e-05 -0.0530527)
(0.000902037 -0.000467643 -0.0539403)
(0.0010476 -0.000407325 -0.0558701)
(0.000531366 -0.000108386 -0.0519732)
(0.000576701 -0.000449345 -0.0532748)
(-0.000467816 -8.88709e-06 -0.0548142)
(-0.000538378 -0.000408501 -0.0604482)
(0.00113552 -0.000195579 -0.0506247)
(-0.000544376 -0.000128565 -0.0584745)
(0.00119019 0.000313438 -0.0550265)
(0.00106366 -0.000384318 -0.0554753)
(0.00113817 -0.000145264 -0.0518931)
(-0.000490174 -7.62991e-05 -0.0565892)
(-7.39478e-05 -0.00147077 -0.0534363)
(0.000869817 0.000876187 -0.0539844)
(0.000939849 -0.000434879 -0.0526967)
(-0.000490763 -0.000120039 -0.0584113)
(0.000944636 -0.000464133 -0.0544602)
(0.000504121 -0.000458842 -0.0537241)
(0.000817203 -0.000522669 -0.0562026)
(-0.000602009 -0.000204595 -0.0601378)
(0.000501125 -7.68453e-05 -0.0517633)
(-0.000525635 -8.99728e-05 -0.0567628)
(0.0012095 0.000343783 -0.0550021)
(0.000852284 -0.000477454 -0.0548577)
(0.000500321 -8.30983e-05 -0.051244)
(0.000588042 -0.000451159 -0.0527885)
(-0.000511481 -0.000162465 -0.058744)
(0.00116284 0.000375891 -0.0553369)
(0.00118092 0.000302329 -0.0549729)
(0.00118948 0.000356997 -0.0551749)
(0.000672678 -0.000189802 -0.0549655)
(-0.000510981 -0.000147836 -0.0581979)
(0.000565651 -0.000100362 -0.0533152)
(-0.000589818 -0.000352441 -0.0590541)
(0.000677624 -0.000219389 -0.0548548)
(0.000575966 -0.000320784 -0.0494195)
(0.000507842 -0.000126263 -0.052487)
(-0.000459532 -5.12522e-05 -0.0546878)
(-0.000497305 -0.000103801 -0.0578502)
(0.000734806 -0.000111083 -0.0533192)
(0.000845186 -0.000472112 -0.0528226)
(0.000522028 -0.000101595 -0.0522118)
(-0.000510314 -0.000162224 -0.0584271)
(0.000671566 0.000719068 -0.0574143)
(0.000514925 -3.38256e-05 -0.0553472)
(-0.000538686 -9.70619e-05 -0.0588681)
(-0.000508851 -0.000170434 -0.0583094)
(0.000556946 -0.000120613 -0.053472)
(0.00128684 -0.000213727 -0.0551424)
(0.0012489 -6.86599e-05 -0.054839)
(0.000498069 -0.000137096 -0.0527789)
(-0.000500406 -0.000101066 -0.0579822)
(-0.000500343 -8.52575e-05 -0.0581062)
(-0.000501551 -7.59147e-05 -0.0581947)
(0.000532345 -1.69434e-05 -0.0555108)
(0.000585345 -0.000411513 -0.0498881)
(0.000500149 -0.000146901 -0.0528721)
(0.000642942 -0.000426297 -0.0520984)
(0.000556454 -0.000185561 -0.0525641)
(0.000937945 -0.000277139 -0.0521676)
(0.0010114 -0.000355735 -0.0511556)
(0.00055175 -0.000125502 -0.0534061)
(0.00127017 2.42469e-05 -0.0546372)
(0.00128361 -2.9693e-05 -0.0559405)
(0.000971931 -0.000388921 -0.0519227)
(0.000440436 -0.000411023 -0.0534675)
(0.000866213 -0.000439426 -0.0519043)
(-0.000513755 -6.6437e-05 -0.0574446)
(0.00122382 5.48432e-05 -0.0578539)
(0.000781572 0.000847701 -0.0544359)
(-0.000650882 -0.000207936 -0.0591218)
(0.000778013 -0.00019882 -0.054408)
(-0.000492365 -3.89109e-05 -0.0555965)
(-0.000506545 -5.10515e-05 -0.0584506)
(-0.000552942 -0.000196107 -0.0584579)
(0.000553611 -0.000114403 -0.0533987)
(0.000872883 -0.000495822 -0.0558679)
(-0.000521544 -8.58846e-05 -0.056545)
(-0.000536931 -9.69121e-05 -0.0574719)
(0.00214831 2.46642e-05 -0.0505738)
(-0.000523963 -8.45514e-05 -0.0575488)
(-0.000510797 -7.78574e-05 -0.0578333)
(0.00103893 -0.000376011 -0.0553957)
(0.000772188 0.000818032 -0.0548126)
(-0.000691048 -0.00028051 -0.0577043)
(-0.000602471 1.01709e-05 -0.0584207)
(0.00112204 -0.000136019 -0.0522245)
(-0.000507248 9.01919e-05 -0.0579366)
(0.000711713 -6.97516e-05 -0.0540379)
(0.00126642 5.73639e-05 -0.0553286)
(0.00124505 0.000370933 -0.0547035)
(0.00102414 -0.000595635 -0.0566738)
(0.000544997 -0.000174063 -0.0520625)
(-0.000496287 -7.28963e-05 -0.0577608)
(0.00123668 4.14018e-05 -0.0541382)
(0.0006699 -9.30301e-05 -0.0530439)
(0.000859625 -0.000448084 -0.0527594)
(0.00362168 0.00034756 -0.0502209)
(0.000756144 -0.000154829 -0.0531092)
(0.00103532 -0.000365891 -0.0543219)
(0.000645179 -0.000430547 -0.0555205)
(0.000902606 0.000893972 -0.0539945)
(0.000542456 -0.000404169 -0.053477)
(-0.000500385 -7.05627e-05 -0.0575869)
(-0.000509403 -8.25003e-05 -0.0579889)
(0.00123254 5.95464e-05 -0.0566203)
(0.00125788 -8.38911e-05 -0.0525221)
(0.000523828 -0.000420436 -0.051751)
(-0.000427412 -0.00025998 -0.0564034)
(-0.000498168 -5.03059e-05 -0.0575189)
(0.00121334 2.99895e-05 -0.0565507)
(-0.000568983 -0.000317572 -0.0599677)
(0.000654133 -6.74407e-05 -0.0556446)
(0.000510838 -8.27229e-06 -0.0545533)
(0.000591716 -9.67239e-05 -0.0552763)
(0.00103187 -0.000598206 -0.0561612)
(0.000437765 -0.000480052 -0.0546003)
(0.000349061 -0.000355933 -0.0513467)
(-0.000622338 -4.16384e-05 -0.056241)
(0.000456191 -0.000364219 -0.0525349)
(0.0012638 9.85947e-05 -0.0557931)
(0.000835943 0.000823089 -0.0553564)
(0.000816358 -0.00105997 -0.0554509)
(0.000553487 -0.000381038 -0.0516675)
(0.00120893 0.000321794 -0.0525611)
(0.00122825 4.7869e-05 -0.0556335)
(0.000838225 -0.000172362 -0.0523141)
(0.00123008 3.73049e-05 -0.0540646)
(-0.00058476 -0.000186838 -0.0590645)
(0.00102341 -0.000380632 -0.0562027)
(0.00110414 0.000602722 -0.0544245)
(0.00108159 -0.000191855 -0.0528633)
(-0.000472302 -1.85547e-05 -0.0572382)
(0.000535744 -0.000118135 -0.0554618)
(0.00106608 -0.000553052 -0.0542465)
(0.000693702 -7.72584e-05 -0.0542233)
(0.000511227 -1.10239e-05 -0.0544937)
(-0.000211573 -0.00139126 -0.0563692)
(0.000942736 -0.000181439 -0.0558731)
(0.000651097 -0.000446718 -0.054806)
(0.000431571 -9.09143e-05 -0.0528673)
(0.000584998 -0.000437238 -0.0532016)
(0.000811406 -0.000116368 -0.0514017)
(0.00106189 -0.000211977 -0.0527438)
(0.000435251 -0.000398343 -0.0535657)
(0.00106454 -0.000561316 -0.0545269)
(0.000418664 -0.000443817 -0.0513126)
(0.00124219 6.1341e-05 -0.0551298)
(0.000752846 -8.12193e-05 -0.0542869)
(-0.000523575 -0.000601779 -0.0581878)
(0.000537571 -0.000210157 -0.0559745)
(0.00349634 0.000233712 -0.0520217)
(0.000897717 -0.000417318 -0.0531644)
(-0.000480495 -4.37257e-05 -0.0585468)
(0.000937622 -0.000206465 -0.0515272)
(0.000720981 0.000825408 -0.0551749)
(0.000508527 -1.18658e-05 -0.0556717)
(0.00109457 -0.000160506 -0.0510986)
(0.000732707 0.00072586 -0.0571087)
(0.000432766 1.10699e-05 -0.0575818)
(0.000538646 -0.000198743 -0.0527234)
(0.00117892 -0.000248716 -0.0516433)
(0.000239092 -0.000262841 -0.0519287)
(0.00125357 7.37404e-05 -0.0538448)
(0.000665339 -0.000653218 -0.0538882)
(0.0010511 -0.000536537 -0.0538031)
(0.000548561 -0.000105189 -0.0552764)
(0.00332626 0.000482701 -0.0493271)
(0.000537196 -0.000108575 -0.0538461)
(-0.000659521 -0.000157053 -0.0573597)
(0.000749125 0.000833413 -0.0544313)
(0.00116733 -0.000277128 -0.0560922)
(-0.000470502 -7.20992e-05 -0.0578999)
(-0.000500039 -9.34392e-05 -0.0589324)
(0.00122965 2.41786e-05 -0.0542215)
(0.00118889 -0.00016064 -0.0547249)
(-0.000598333 -0.000215991 -0.0597095)
(0.000669147 -0.000112562 -0.054613)
(0.000616361 -0.000222102 -0.0556311)
(0.00120897 0.000502855 -0.0568435)
(0.000924152 -0.000403447 -0.0526864)
(-0.000476155 -2.11173e-05 -0.057606)
(0.00119759 3.96942e-05 -0.0568328)
(0.00126599 0.000119159 -0.0580025)
(0.00105464 -0.000349919 -0.0563223)
(0.000685852 -9.29298e-05 -0.0535806)
(0.00106791 -0.000127185 -0.0557422)
(-0.000339316 -0.00146762 -0.0555116)
(0.000540476 -1.8782e-05 -0.0543405)
(0.000488074 -6.6201e-05 -0.0517812)
(0.000634897 -0.000458982 -0.0518472)
(0.0037651 0.000330283 -0.0522606)
(0.00065034 -0.000413965 -0.051688)
(-0.000473725 -6.33104e-07 -0.0580079)
(0.000736639 -0.000143621 -0.0518542)
(0.00119531 3.62264e-05 -0.0554805)
(0.000486779 -0.000526611 -0.0552669)
(0.000618874 -0.000213448 -0.05514)
(0.000675235 -0.000230977 -0.0544015)
(-0.00053776 0.000223883 -0.0588719)
(0.000526429 -0.000307621 -0.0525204)
(-0.000570489 -0.00065145 -0.0551942)
(0.00112974 -0.000218813 -0.0545255)
(0.0007951 -0.000160562 -0.0532227)
(0.00107887 0.000532773 -0.0560273)
(0.00103137 0.00060223 -0.0532192)
(0.0012033 -0.000255851 -0.054288)
(0.000997321 -0.000363717 -0.0536856)
(0.000512283 -0.000103463 -0.0557311)
(0.00119759 5.13907e-05 -0.056731)
(0.000704295 -6.53371e-05 -0.0539205)
(-0.000564965 -0.000301143 -0.0593321)
(0.00124822 -0.000183036 -0.0542262)
(0.0013115 0.000372832 -0.0561575)
(0.0009333 -0.000725291 -0.0577462)
(0.000548254 -0.000341407 -0.0531523)
(0.000759233 -0.000168595 -0.0514421)
(0.00115398 -0.000282476 -0.0521645)
(0.0012012 0.000354321 -0.0531546)
(0.00117226 3.40542e-05 -0.0564791)
(0.00117295 7.06145e-07 -0.0563957)
(0.000650072 -8.97435e-05 -0.0542944)
(0.000883154 -0.00044907 -0.0545846)
(0.00126711 0.000411536 -0.0546987)
(0.000740787 -8.39342e-05 -0.0532892)
(0.000527875 -4.76731e-06 -0.0550558)
(0.000785196 -8.52315e-05 -0.0532347)
(0.00170485 -9.44359e-05 -0.0502037)
(0.000457139 -9.7812e-05 -0.0514768)
(0.000534331 0.000204367 -0.0521854)
(0.000557662 -0.000366121 -0.0531205)
(0.000751076 -0.000162853 -0.051391)
(0.00101311 0.000655211 -0.0527167)
(0.0011866 -0.000170051 -0.0528163)
(0.000864782 -0.000230313 -0.0528629)
(0.000537406 -0.000108833 -0.0542787)
(0.00104084 0.000537079 -0.0554962)
(0.000446758 -6.37219e-05 -0.0512993)
(0.000521883 -0.000346073 -0.0535759)
(-0.000458517 1.47119e-05 -0.0555233)
(0.000559998 -0.000220064 -0.0536663)
(0.00145084 5.12864e-05 -0.0547664)
(1.74006e-05 0.00071865 -0.0552789)
(0.00145664 -0.000221675 -0.055926)
(0.000983458 0.00049283 -0.0564361)
(-0.000291057 -0.00154205 -0.0564067)
(0.000573494 -0.000396955 -0.0524999)
(0.00114455 -0.000100426 -0.0528462)
(0.000470597 -0.000176928 -0.0530106)
(0.00116855 -5.15044e-06 -0.0556487)
(0.00145676 9.14018e-05 -0.0544592)
(0.00116837 3.28853e-05 -0.0565973)
(-0.000603193 0.000138507 -0.056407)
(-0.000102742 -0.00010284 -0.0530695)
(0.00121328 3.91231e-06 -0.0543658)
(0.00119499 -0.000123861 -0.0551138)
(0.000496167 -0.000104676 -0.0565353)
(0.000991498 -0.000400176 -0.0568008)
(0.00130326 0.000477848 -0.0563236)
(0.00117262 -0.000113909 -0.0534708)
(-0.000438458 2.36845e-05 -0.0577108)
(0.00100135 0.000648814 -0.0527646)
(0.00104474 -0.000322324 -0.0541838)
(0.000296497 -0.000383636 -0.0534444)
(0.0011499 -2.52974e-05 -0.0563981)
(0.00113739 -0.000275752 -0.054641)
(0.000768819 -0.000444346 -0.0544065)
(0.000445216 -0.000363176 -0.0544694)
(-0.000639862 -0.000272154 -0.0583331)
(-0.000124202 -0.001546 -0.055986)
(0.000440365 -0.000520576 -0.0572512)
(0.00084422 -0.000421651 -0.0504483)
(-0.000458617 -7.10135e-05 -0.057229)
(0.000529628 -0.000100641 -0.0538369)
(0.00124156 0.000263782 -0.0530586)
(0.00147522 0.000456196 -0.0533432)
(-0.000213743 0.000635172 -0.056412)
(0.000802371 -0.000449568 -0.0524157)
(0.000534026 0.00023002 -0.0519743)
(0.00369513 0.00051956 -0.0516705)
(-0.000441446 -2.04965e-05 -0.0573837)
(0.00105427 0.000794152 -0.0514005)
(0.00102155 0.000768995 -0.0526838)
(0.000645934 -6.31314e-05 -0.0527708)
(0.00140841 0.000380552 -0.0522556)
(0.00120307 -1.55628e-06 -0.0544965)
(0.00121359 -5.14881e-07 -0.0545234)
(0.000985789 -0.000606317 -0.0552966)
(0.000733659 -8.91077e-05 -0.054769)
(0.000646221 -0.000234759 -0.0548598)
(0.000642241 -0.000102834 -0.0519227)
(0.00695603 0.00113326 -0.0494326)
(0.00103518 -0.000252263 -0.0523534)
(0.00105806 0.00078479 -0.0514984)
(0.00151415 0.000483629 -0.0537626)
(-0.000681405 -0.000378106 -0.0566202)
(0.00114151 0.000607169 -0.0549774)
(-0.00132611 -0.00227075 -0.0555036)
(0.000623745 0.000211312 -0.0521785)
(-0.000413306 1.40956e-06 -0.0577931)
(0.00121927 -0.000100461 -0.0535271)
(0.000567056 -0.000343574 -0.0552071)
(0.000830348 -0.000144439 -0.0530267)
(0.0012557 9.45807e-05 -0.0546052)
(0.00108842 0.000637047 -0.0562395)
(0.00107394 -0.000203875 -0.0497645)
(0.00107351 -0.00023826 -0.0532185)
(0.0012281 0.00039793 -0.0523888)
(0.00121504 1.91722e-05 -0.0543839)
(0.00126786 0.000163415 -0.0552527)
(0.00110288 0.000622883 -0.0563755)
(-0.000536552 0.000263947 -0.058123)
(0.000892139 -0.000367613 -0.0504991)
(0.00120871 -0.00016001 -0.0505588)
(0.00072473 -0.000155783 -0.0514187)
(0.00105465 0.000764642 -0.0519394)
(0.000813011 -0.000216388 -0.0529043)
(0.000768394 -0.000446501 -0.0543566)
(0.00121332 -5.34916e-06 -0.0548171)
(0.00128662 0.000308505 -0.0539453)
(0.00121162 0.000625285 -0.0564194)
(0.00126592 -1.52901e-05 -0.0565618)
(0.0035666 0.000584239 -0.0508383)
(0.000536997 -0.000393238 -0.0532976)
(0.00103797 -5.48898e-05 -0.0520714)
(-0.000499646 -0.000622453 -0.0578668)
(0.000953209 -0.000395281 -0.0551785)
(0.000536672 -0.000213315 -0.0554339)
(0.0002829 -0.000378529 -0.0543381)
(0.000813762 -0.000434283 -0.0539194)
(0.00117821 -0.000254109 -0.0550374)
(0.000428411 -0.000504497 -0.057058)
(0.00046459 -3.871e-05 -0.0508176)
(0.00110742 0.000606635 -0.0529139)
(0.00116032 0.000314613 -0.0532495)
(0.000415125 -0.000371578 -0.0523847)
(0.000671358 -0.000123961 -0.0523111)
(0.00102721 -7.41685e-05 -0.0518783)
(1.87008e-06 0.000718451 -0.05495)
(0.00126649 7.89105e-05 -0.0531073)
(0.00116137 -1.38261e-05 -0.0579522)
(-0.000602892 -2.87754e-05 -0.0577241)
(-0.000527001 -0.000615538 -0.0564049)
(0.000620879 -0.00041493 -0.0546261)
(0.0014561 7.50815e-05 -0.0548842)
(0.00104175 -7.07127e-05 -0.0528248)
(0.00133992 0.000487531 -0.0545077)
(0.00110053 -0.000224923 -0.0551171)
(0.0011857 -0.000168349 -0.0549515)
(0.00124957 -3.5372e-05 -0.0534703)
(0.00120975 -0.000294587 -0.0550242)
(0.00116898 -0.000173558 -0.0547327)
(0.00124144 0.000621433 -0.0562581)
(0.000542096 -0.000413329 -0.0536002)
(-0.000447071 -7.0465e-05 -0.056761)
(0.000348135 -0.000355772 -0.0511689)
(0.000482294 -0.000122326 -0.0536569)
(0.000488368 -0.000121328 -0.0538678)
(-0.000574234 -0.000609349 -0.0543776)
(0.00116144 -0.000234659 -0.0544106)
(0.000612839 -0.000398564 -0.0555503)
(0.000671617 -0.000497196 -0.0530718)
(0.00366704 0.000555475 -0.0520489)
(0.000757631 -0.00049083 -0.0562543)
(0.00124628 0.000138078 -0.0564075)
(-0.00203147 0.00055401 -0.0540816)
(-0.000445872 2.56661e-05 -0.0550568)
(0.00125252 0.000437995 -0.0522825)
(0.0011724 -2.33908e-05 -0.0548423)
(0.000486916 -0.000475737 -0.0562674)
(0.000395064 -0.000413655 -0.0553069)
(-0.00063396 -8.91604e-06 -0.0532636)
(0.00052714 -5.3063e-05 -0.0503511)
(0.000526188 -0.000355671 -0.0526174)
(-0.000435526 -5.60073e-05 -0.0566914)
(0.000884127 -0.000232417 -0.0500076)
(0.00189998 0.000668783 -0.0540009)
(0.0011725 0.000654116 -0.0515678)
(0.000157078 -0.00104562 -0.0551824)
(0.000279946 -0.000386772 -0.0538578)
(0.000426211 -6.84036e-05 -0.050198)
(-0.000527514 -0.000169952 -0.0567738)
(0.00106277 0.000619266 -0.0524708)
(0.00118651 -0.000157081 -0.0517954)
(0.000309565 -0.000280581 -0.0517673)
(0.000776807 -0.000474876 -0.0547859)
(0.00102922 -6.49125e-05 -0.0524516)
(0.000523002 -0.000218606 -0.0563229)
(0.00125829 0.000172183 -0.0550426)
(0.000540514 -0.000229847 -0.0558691)
(0.000577424 -0.00017824 -0.0553261)
(0.00127944 -4.63558e-05 -0.0546151)
(0.000192888 -0.000236012 -0.0548302)
(9.92536e-05 0.000838736 -0.0556384)
(0.000445342 -8.12268e-05 -0.0533982)
(0.00106614 0.000673067 -0.0520789)
(0.00106061 -2.68971e-05 -0.0526573)
(0.00126316 9.61287e-05 -0.052281)
(0.000750278 -0.000447932 -0.054174)
(0.00118026 0.000291287 -0.0548828)
(0.0012045 0.000415566 -0.0568105)
(-0.000415826 -2.97277e-05 -0.0574072)
(0.00100596 0.000747528 -0.0522054)
(0.00100866 -0.00034909 -0.0538338)
(1.26771e-05 0.000690224 -0.0555003)
(0.000740077 0.000835332 -0.0548671)
(-0.000561834 6.89622e-05 -0.0576406)
(0.000625506 0.000207595 -0.0523501)
(0.00113197 -0.000765672 -0.0536088)
(0.00131256 0.000264722 -0.0551327)
(0.000658694 -0.000509768 -0.0530293)
(0.000925374 -0.000365494 -0.0521192)
(0.0011854 0.00030692 -0.0526088)
(-0.000512914 -0.000639051 -0.0556666)
(0.00105232 -5.92154e-05 -0.0527264)
(0.00113446 -4.38862e-05 -0.0546098)
(0.000847281 -0.000381376 -0.0512991)
(0.00123316 -0.000147551 -0.0537173)
(0.00113862 0.000521353 -0.0561114)
(0.00116469 -0.000857273 -0.0530378)
(0.000494645 -8.34285e-06 -0.0539539)
(-0.000569995 -0.000578859 -0.0545396)
(0.00127809 0.000467951 -0.0564367)
(0.00100729 0.000113563 -0.0513708)
(-0.000420304 -0.000146414 -0.0571307)
(0.000991614 0.000582748 -0.0525031)
(0.00106988 -0.000756446 -0.0552517)
(0.000502194 -0.000204783 -0.0569878)
(0.000893264 -0.000196962 -0.0536551)
(0.000693285 -0.000426407 -0.0552077)
(-0.00012925 -0.00129729 -0.0560265)
(0.00102557 -0.000325579 -0.0546486)
(0.000466878 -0.00010095 -0.0536933)
(0.001053 -6.56049e-05 -0.0531398)
(0.00075678 -0.000464685 -0.0539706)
(0.000122929 -5.2856e-05 -0.0540759)
(-0.000903718 0.000148176 -0.0544334)
(0.00012953 0.000835027 -0.0565052)
(0.0010066 0.000116598 -0.0514979)
(0.00185167 0.000425481 -0.0536335)
(0.000650077 -9.30478e-05 -0.0525938)
(0.00118697 0.000260797 -0.0533631)
(0.00122929 -8.32932e-05 -0.0532163)
(0.00125216 -1.24705e-05 -0.0533209)
(0.000583789 -0.000432393 -0.0553689)
(0.00125966 -8.11739e-05 -0.0512586)
(0.000979104 -0.000368475 -0.053381)
(0.000158715 -4.51561e-05 -0.0544175)
(0.000503614 -3.03454e-05 -0.0555383)
(0.000831976 -0.000118376 -0.0529265)
(0.00122659 -8.66126e-05 -0.0552209)
(-0.0019758 0.000538841 -0.0546645)
(0.000890762 -0.000121929 -0.0546067)
(0.00101315 0.000102046 -0.0509177)
(0.00108254 -0.00016563 -0.052164)
(0.00107311 -0.000152307 -0.05095)
(0.0004758 -9.98863e-05 -0.0527014)
(0.000475067 -0.000175 -0.0554875)
(0.00120568 3.54627e-05 -0.0538561)
(0.00125166 0.000126904 -0.054313)
(-0.00025317 -0.000920787 -0.0580987)
(0.000830563 -0.000150853 -0.0538165)
(0.00123845 0.000404435 -0.0547325)
(0.00123315 0.000445057 -0.056993)
(0.000721038 -0.000147623 -0.0508783)
(0.000544167 -0.000311665 -0.054902)
(-0.000554649 0.000106392 -0.0564779)
(0.000665977 -7.94172e-05 -0.0552322)
(0.0010542 -0.000335259 -0.0552797)
(0.000866972 -0.000240135 -0.0508209)
(-0.000477187 -0.000582893 -0.0581558)
(0.00122731 -0.000124294 -0.0523489)
(9.5884e-05 -0.000172272 -0.0555118)
(-0.000131671 -0.000199399 -0.0541282)
(-0.000456822 0.000433053 -0.0573573)
(0.00125233 0.000437014 -0.0575903)
(0.000705385 -0.000147532 -0.0508287)
(0.00120835 0.000265377 -0.0548378)
(0.00079182 -0.000103217 -0.0537126)
(0.00128153 0.000368247 -0.0570501)
(0.00126155 -8.41742e-05 -0.0556117)
(0.00082016 -0.000380935 -0.0501181)
(0.00040857 -0.000316005 -0.0494688)
(0.000990609 0.000583661 -0.0527625)
(0.000572238 -0.000416011 -0.0547832)
(-0.000450896 -9.00641e-06 -0.0577034)
(0.00121309 4.52702e-05 -0.0535785)
(0.0012502 -5.48414e-05 -0.0531592)
(0.00012717 5.10703e-05 -0.055372)
(0.000657043 5.92426e-05 -0.0500696)
(0.00101775 0.000740937 -0.0517268)
(0.000748373 -9.16587e-05 -0.0518836)
(-0.000473214 -0.000106922 -0.0591993)
(0.00101218 -0.000324283 -0.0547668)
(-8.02866e-05 -0.00104129 -0.0580952)
(0.00116102 0.000318628 -0.0552666)
(0.000511903 -1.91307e-05 -0.0556111)
(0.000939724 -0.000394318 -0.0568475)
(0.000430414 -5.87751e-05 -0.0503757)
(0.00101068 0.000115077 -0.0520269)
(0.00104082 -0.000234631 -0.051973)
(-0.000749664 -0.000106033 -0.0559796)
(0.000992977 0.000677932 -0.0534852)
(-0.000507682 -0.000264528 -0.05912)
(0.000747536 -0.000478546 -0.0543233)
(0.000564209 -7.8983e-05 -0.0552769)
(-9.40779e-05 -0.000115059 -0.0538359)
(-0.000470906 0.000395625 -0.05754)
(-0.00198258 0.000553767 -0.0561235)
(0.000800032 -0.000410957 -0.0524844)
(-0.000401363 -5.63653e-05 -0.0568609)
(0.00170034 -4.62982e-05 -0.0567381)
(0.000873113 -0.000235105 -0.0528702)
(0.000617125 -0.000119295 -0.0526265)
(0.00114583 -0.000279829 -0.0528515)
(0.00109465 -0.000261869 -0.0539653)
(0.00114845 0.000343434 -0.0541653)
(0.000851717 -0.000231117 -0.0531938)
(0.000173232 -5.26015e-05 -0.0540017)
(0.00105135 -0.000295203 -0.0542935)
(0.000508348 -0.000299238 -0.0525391)
(0.00101518 -0.000316198 -0.0525637)
(0.000744073 -0.000103107 -0.0528491)
(0.000810929 0.000830707 -0.0549813)
(-0.000189427 -0.000170523 -0.0559548)
(0.000868166 -0.000372281 -0.0526942)
(0.00113321 -4.95896e-05 -0.052015)
(0.000876119 -0.000372656 -0.0526772)
(0.000984959 0.000598038 -0.0521874)
(0.00187732 0.000374097 -0.0540788)
(0.00116462 0.000263543 -0.0531364)
(0.000961387 -0.000347323 -0.0532713)
(0.000506274 -8.05037e-05 -0.0536495)
(0.00113544 -0.000807991 -0.0545356)
(0.00117116 0.000371984 -0.0534896)
(0.00108063 -1.78782e-05 -0.0533571)