/*--------------------------------*- C++ -*----------------------------------*\
| =========                 |                                                 |
| \\      /  F ield         | OpenFOAM: The Open Source CFD Toolbox           |
|  \\    /   O peration     | Version:  plus.master.MPPICInterFoam            |
|   \\  /    A nd           | Web:      www.OpenFOAM.com                      |
|    \\/     M anipulation  |                                                 |
\*---------------------------------------------------------------------------*/
FoamFile
{
    version     2.0;
    format      ascii;
    class       volScalarField;
    location    "13.2";
    object      epsilon;
}
// * * * * * * * * * * * * * * * * * * * * * * * * * * * * * * * * * * * * * //

dimensions      [0 2 -3 0 0 0 0];

internalField   nonuniform List<scalar> 
11821
(
0.00125319
0.00890017
0.0416829
0.0487682
0.0174788
0.0032681
0.000409225
0.00705646
0.146051
0.647193
0.813854
0.443104
0.112166
0.00384015
0.0258231
0.519807
0.588281
3.3276
0.621572
0.494662
0.0249088
0.0572865
0.930467
2.85267
2.80963
3.28456
0.755033
0.0531852
0.0318522
0.628504
0.69945
2.94233
0.624754
0.493776
0.0341121
0.00796203
0.161529
0.701211
0.920662
0.385445
0.125947
0.00689403
0.00138526
0.00905108
0.0402835
0.0473387
0.0173141
0.00517796
0.000821035
0.00677325
0.0549784
0.178086
0.209127
0.0652232
0.0101239
0.00126637
0.0472651
0.287278
0.835118
1.28816
0.46126
0.106495
0.0104075
0.169068
0.811822
1.64125
6.44974
1.2936
0.422829
0.0612141
0.341385
1.70222
6.02165
5.42012
7.16278
0.969035
0.140171
0.208712
0.952223
1.68012
5.31449
1.61782
0.552357
0.0975505
0.0627218
0.34785
1.03133
1.78217
0.616701
0.167858
0.0231237
0.00960984
0.0702536
0.237504
0.308092
0.104365
0.0206841
0.00242073
0.0190712
0.100814
0.282676
0.342299
0.105136
0.0160797
0.00367725
0.103917
0.442171
1.10225
1.6635
0.604733
0.120181
0.0134404
0.325414
1.19133
2.62725
6.54117
2.0391
0.462505
0.0610896
0.62511
2.43564
6.09438
6.67726
7.98505
1.15071
0.153442
0.398
1.38369
2.82278
5.51471
2.55836
0.654108
0.108546
0.148541
0.579061
1.43745
2.43555
0.923461
0.22407
0.0293178
0.0316553
0.153778
0.41738
0.552235
0.203642
0.03726
0.00591049
0.0283141
0.117776
0.328068
0.407381
0.119435
0.022596
0.00923336
0.138422
0.55816
1.32642
1.90081
0.714453
0.12329
0.0188116
0.462204
1.58155
3.20718
5.92462
2.47612
0.506077
0.0593961
0.91452
3.28513
5.7046
6.81907
7.80144
1.27269
0.145065
0.574056
1.8961
3.47526
5.31612
3.11788
0.711134
0.098434
0.212848
0.792113
1.87918
3.00259
1.15948
0.244468
0.0327072
0.0490422
0.209338
0.549171
0.736225
0.262297
0.046645
0.0119759
0.0290057
0.106895
0.306137
0.379277
0.106046
0.0234217
0.0119769
0.136236
0.590807
1.42359
1.93046
0.717813
0.108396
0.0201212
0.527108
1.92119
3.62768
5.50272
2.78849
0.500822
0.0538335
1.15018
4.42046
5.78228
6.87703
8.20168
1.3304
0.127628
0.674027
2.40065
4.02649
5.19013
3.70644
0.719513
0.083945
0.223198
0.908528
2.23067
3.46403
1.27959
0.223305
0.0311089
0.0498132
0.210593
0.585823
0.794378
0.257734
0.0445608
0.0145161
0.000115279
8.66075e-05
8.53136e-05
7.98642e-05
7.56475e-05
7.22028e-05
6.92659e-05
6.6721e-05
0.000585252
0.000155489
9.41992e-05
7.94044e-05
7.27883e-05
6.83357e-05
6.47844e-05
6.17654e-05
0.00413687
0.00059916
0.000139582
8.34274e-05
7.25667e-05
6.75313e-05
6.37271e-05
6.04973e-05
0.0102488
0.00151691
0.000234623
9.16094e-05
7.29545e-05
6.78219e-05
6.43021e-05
6.09864e-05
0.0060064
0.000855579
0.000169992
9.03292e-05
7.67791e-05
7.14489e-05
6.79624e-05
6.51607e-05
0.00122678
0.000268506
0.00011554
8.85585e-05
8.0514e-05
7.61463e-05
7.29097e-05
7.02765e-05
0.000243895
0.000123678
9.49609e-05
8.71689e-05
8.34515e-05
8.08964e-05
7.85852e-05
7.64628e-05
0.000391369
0.000300723
0.000255108
0.000219866
0.000192224
0.000170365
0.000152572
0.000137441
0.00103086
0.000389568
0.000281091
0.000231108
0.000198081
0.000173413
0.00015395
0.000137703
0.00472121
0.000672727
0.000316581
0.000237126
0.000199326
0.000173381
0.000153365
0.000136736
0.010702
0.001002
0.000347497
0.000242506
0.000201207
0.000174644
0.000154508
0.000137953
0.00833668
0.000890483
0.0003344
0.000238484
0.000199378
0.000173757
0.00015426
0.000138049
0.00230795
0.000499221
0.000289009
0.000229027
0.00019732
0.000174728
0.000156957
0.000141864
0.000624272
0.000318868
0.000252109
0.000216167
0.000191353
0.00017227
0.000156747
0.00014322
0.00199384
0.00164468
0.00140324
0.00117411
0.000953681
0.000749557
0.00057126
0.00042721
0.00300606
0.00186456
0.00149723
0.00123726
0.0010021
0.000783906
0.000590588
0.000432856
0.0066488
0.00229018
0.00159437
0.00128582
0.00103868
0.000810862
0.000606601
0.00043866
0.0122852
0.00271446
0.00166149
0.00131327
0.00105726
0.000823436
0.000613626
0.000441305
0.0107365
0.00266205
0.00165324
0.00130465
0.00104894
0.000817172
0.000610699
0.00044213
0.00456743
0.00206698
0.00153734
0.00125181
0.00101136
0.00079124
0.000597666
0.000441218
0.00225387
0.00166771
0.0013992
0.00116909
0.000951432
0.000750602
0.000576203
0.000436805
0.00670952
0.00569682
0.00485175
0.00410664
0.00350531
0.00305231
0.00269843
0.00233816
0.00815367
0.00627002
0.00522876
0.00437201
0.00367542
0.00315317
0.00276331
0.00238766
0.011879
0.00697768
0.00556252
0.00460857
0.00383931
0.00325709
0.00282932
0.00243263
0.0173696
0.00759329
0.00575647
0.00473512
0.003927
0.00331085
0.00285864
0.00244659
0.0154267
0.00748005
0.00572267
0.00470528
0.00390765
0.00330274
0.00285479
0.00244025
0.00972535
0.0066547
0.0054343
0.00452724
0.00379576
0.00324005
0.00281755
0.0024107
0.00709467
0.00589078
0.00502257
0.00426189
0.00363773
0.00315676
0.00277216
0.00237946
0.00973359
0.00883619
0.00819829
0.00757476
0.00678305
0.00566105
0.00422968
0.00283325
0.010985
0.00922927
0.00836463
0.00769623
0.00697928
0.00596989
0.00456997
0.00309241
0.0142396
0.00988087
0.00864646
0.00790513
0.00720593
0.00624673
0.00484621
0.00329122
0.0190365
0.0104831
0.00884216
0.00803538
0.00732384
0.0063693
0.00496017
0.00337066
0.0169556
0.0103282
0.00881606
0.00801301
0.00727873
0.0062908
0.0048678
0.00329763
0.0123483
0.00966117
0.00864219
0.00791242
0.00713964
0.00607402
0.00462295
0.00310599
0.0102389
0.0091753
0.00851562
0.00786837
0.00702996
0.00583712
0.00432393
0.00285721
0.000250312
0.000113127
9.45217e-05
8.92484e-05
8.71328e-05
8.52198e-05
8.31438e-05
8.13328e-05
0.00116047
0.000238147
0.000109089
8.3278e-05
7.60745e-05
7.24661e-05
6.94187e-05
6.6161e-05
0.00561849
0.00106959
0.000222252
9.36205e-05
7.18707e-05
6.38815e-05
5.81259e-05
5.37124e-05
0.0105982
0.00182241
0.000298453
9.61853e-05
6.66986e-05
5.79616e-05
5.21278e-05
4.75283e-05
0.00423401
0.00081081
0.000179549
8.7371e-05
6.99824e-05
6.32931e-05
5.83102e-05
5.3487e-05
0.000848418
0.00018539
0.000100698
8.03098e-05
7.37591e-05
6.90151e-05
6.5842e-05
6.32984e-05
0.00023345
0.000107941
8.81535e-05
8.35478e-05
8.10633e-05
7.86589e-05
7.65789e-05
7.45626e-05
0.00116124
0.000424653
0.000319019
0.00026544
0.000226973
0.000197435
0.000174293
0.000155384
0.00685982
0.00105069
0.000460532
0.000331278
0.000268385
0.000224706
0.00019096
0.000163702
0.0318813
0.00387959
0.000857003
0.000465546
0.000346515
0.000278131
0.000227758
0.000188152
0.0516944
0.00553324
0.000988596
0.00049411
0.000361212
0.000286696
0.000232223
0.000190351
0.0212202
0.00230872
0.000614908
0.000377588
0.000290935
0.000235446
0.000192414
0.000158476
0.00436134
0.000728043
0.000372407
0.000280896
0.000229754
0.000193046
0.000164575
0.000141252
0.000934511
0.000395497
0.000293706
0.000240884
0.00020522
0.000178784
0.000158418
0.000141926
0.0054687
0.00224799
0.00169231
0.00140035
0.00114207
0.000895196
0.000673278
0.000493624
0.023435
0.00454725
0.00212217
0.00158079
0.00128659
0.00102518
0.000775584
0.000556785
0.0786031
0.0119621
0.00301274
0.00175914
0.00137293
0.0011075
0.000856371
0.000619933
0.122016
0.0166215
0.00329167
0.00171898
0.0012993
0.00103288
0.000792199
0.000570735
0.056155
0.00802802
0.00243679
0.00159049
0.00126787
0.00101508
0.000772062
0.000548247
0.0145658
0.00321858
0.00180957
0.0014159
0.00115393
0.000911291
0.000683049
0.000486846
0.00377897
0.0019371
0.00154297
0.00128416
0.00104518
0.000818437
0.00061656
0.000453549
0.0126685
0.00724089
0.00574395
0.00477907
0.00403227
0.00346358
0.00301649
0.00257494
0.0389546
0.0112023
0.00669231
0.00522819
0.00434032
0.00370967
0.00325251
0.00283176
0.11686
0.0218016
0.00802821
0.00542472
0.00434576
0.00367737
0.00325021
0.00291183
0.187651
0.0297868
0.00845225
0.0052054
0.00403184
0.00332071
0.00287031
0.00253187
0.0853791
0.0164226
0.00710085
0.00508542
0.00409949
0.00344621
0.00301966
0.00268314
0.0249367
0.00881617
0.00601712
0.00484959
0.0040476
0.00346641
0.00305061
0.00267321
0.00940266
0.00644426
0.00533803
0.00448503
0.00380227
0.00328384
0.00287949
0.00247857
0.0157759
0.010859
0.00959166
0.00872149
0.00771518
0.00633779
0.0046128
0.00294692
0.0415388
0.0148025
0.0106133
0.00939912
0.00850915
0.00727612
0.00550856
0.00360173
0.124536
0.0255074
0.0121251
0.00991527
0.00914033
0.0081808
0.00653143
0.00452541
0.212386
0.0346396
0.0125815
0.00960811
0.00887314
0.00816712
0.00684161
0.00509425
0.0908542
0.0202755
0.0111331
0.00950339
0.00885542
0.00798636
0.00645471
0.00456153
0.0271534
0.0123156
0.00986054
0.00899131
0.00824747
0.00714062
0.00549052
0.0036686
0.0124648
0.00992942
0.00906061
0.00832837
0.00742786
0.00615835
0.00453283
0.00293572
0.000351084
0.000135127
9.05325e-05
8.01023e-05
7.85709e-05
7.74819e-05
7.6281e-05
7.45206e-05
0.00177864
0.000357379
0.000112422
7.39356e-05
6.68268e-05
6.39839e-05
6.14497e-05
6.02923e-05
0.00744662
0.00110321
0.000181164
7.19715e-05
5.60667e-05
4.92011e-05
4.44108e-05
4.0334e-05
0.00863065
0.00122587
0.000189083
7.84935e-05
6.14956e-05
5.4285e-05
4.9e-05
4.45998e-05
0.00244835
0.000375103
0.000113897
7.759e-05
6.8792e-05
6.3375e-05
5.93559e-05
5.55961e-05
0.000353461
0.000108341
8.79701e-05
7.86724e-05
7.3206e-05
6.94114e-05
6.6387e-05
6.32407e-05
0.000104039
8.3092e-05
8.39046e-05
7.97083e-05
7.61733e-05
7.31211e-05
7.05237e-05
6.82088e-05
0.00141193
0.000442751
0.000303054
0.000249246
0.000215398
0.000190134
0.000169636
0.000152133
0.00662574
0.00097745
0.000399343
0.000282171
0.00023257
0.00020088
0.000177359
0.000158186
0.0205896
0.00194321
0.000495907
0.00030232
0.000235547
0.000196267
0.000167991
0.000145723
0.0198781
0.00165385
0.000457196
0.000291254
0.000228352
0.000188531
0.000158721
0.00013507
0.00491934
0.000722295
0.00035528
0.000266359
0.000218352
0.000184494
0.000158456
0.000137261
0.000996549
0.000397546
0.00029531
0.000244556
0.000208884
0.000182232
0.000160983
0.000143262
0.000395208
0.000309204
0.000262267
0.000224956
0.000195953
0.000173373
0.000155275
0.000140058
0.00407593
0.00195413
0.00151321
0.00125671
0.00102807
0.000811573
0.000617622
0.000459568
0.014203
0.00316335
0.00173722
0.00134351
0.00109231
0.000864469
0.000653842
0.000475897
0.0376736
0.00502346
0.00186318
0.0013084
0.00104459
0.000824693
0.000621412
0.000446032
0.0388218
0.00460453
0.0017679
0.00125887
0.000998046
0.000778127
0.000577827
0.000407472
0.0107336
0.00262477
0.0016494
0.00131817
0.00107148
0.000840182
0.00062559
0.000444034
0.0031907
0.00190158
0.00155217
0.00129997
0.00106202
0.000833965
0.000627181
0.000456097
0.00200526
0.00167593
0.0014376
0.00120383
0.000977095
0.000766712
0.000582997
0.000434778
0.00920432
0.00635332
0.00524459
0.00441506
0.00375098
0.0032414
0.00283769
0.00243147
0.0205115
0.00811415
0.00572664
0.00464631
0.0038849
0.00332236
0.00290098
0.00249722
0.0465853
0.0104857
0.00585715
0.00452411
0.00372673
0.00316932
0.0027802
0.00242696
0.0500187
0.0101434
0.00565242
0.004363
0.00357047
0.00301997
0.0026504
0.00233036
0.0176593
0.00742695
0.00548206
0.00447441
0.00371499
0.00315538
0.00275826
0.00239765
0.00848324
0.00631637
0.00527663
0.00442421
0.00372337
0.00319319
0.00279641
0.00241589
0.0067057
0.00571532
0.00487381
0.00412673
0.00352263
0.00306676
0.00271032
0.00234796
0.0122392
0.00978359
0.00888727
0.00815934
0.00725952
0.00599177
0.00438825
0.00284148
0.0215215
0.0111251
0.00908787
0.00819757
0.00737784
0.00625412
0.00471679
0.0031148
0.0435063
0.0131554
0.00912322
0.0080452
0.00731596
0.00634212
0.00489719
0.00329055
0.0471861
0.0129305
0.00885088
0.00780203
0.00711979
0.00621991
0.00484853
0.00329002
0.019421
0.0103626
0.00861157
0.00782832
0.00715028
0.00620518
0.00479745
0.00323015
0.0113317
0.00929904
0.00842488
0.00776019
0.00703913
0.00601284
0.00458267
0.00307164
0.00970971
0.00882109
0.00817906
0.00755
0.0067568
0.00563848
0.00421268
0.00281765
0.000167353
0.000102726
9.10167e-05
8.63294e-05
8.28567e-05
8.00588e-05
7.74192e-05
7.52281e-05
0.000515225
0.000139768
9.94008e-05
8.61301e-05
7.97846e-05
7.46523e-05
7.02969e-05
6.63507e-05
0.00241072
0.000428856
0.00013252
8.65438e-05
7.51709e-05
6.83188e-05
6.29075e-05
5.81041e-05
0.00829194
0.00131718
0.00022947
9.31009e-05
7.07551e-05
6.14753e-05
5.47707e-05
4.97826e-05
0.00766204
0.00133095
0.000248414
9.43507e-05
6.73269e-05
5.87308e-05
5.3286e-05
4.92088e-05
0.00193122
0.000422366
0.000139297
8.61977e-05
7.5448e-05
7.04798e-05
6.61877e-05
6.27574e-05
0.000349459
0.000142882
0.000102573
9.22353e-05
8.64619e-05
8.34679e-05
8.10963e-05
7.92518e-05
0.000497105
0.000321849
0.000262822
0.000222555
0.00019349
0.000171671
0.00015463
0.000140532
0.00171939
0.000475518
0.000318663
0.000254817
0.000212711
0.000181567
0.000157405
0.000137876
0.00912822
0.00110134
0.000459615
0.000328824
0.000262576
0.000215295
0.000178414
0.000148989
0.0365282
0.00324802
0.000745563
0.000441601
0.000337862
0.000272234
0.000222739
0.000183781
0.034914
0.00391644
0.000875459
0.000479578
0.000354349
0.000280478
0.00022691
0.000185872
0.0101814
0.00155331
0.000566352
0.000369884
0.000287138
0.000234865
0.000196957
0.000167688
0.00153626
0.000450865
0.000329632
0.000274895
0.000235729
0.000204851
0.000180081
0.000159419
0.00217515
0.00169211
0.00145011
0.00121615
0.000988282
0.000776112
0.000591085
0.000442947
0.00519354
0.00208892
0.00158735
0.00131956
0.00108322
0.000855626
0.000644519
0.000465752
0.024743
0.00396298
0.00187994
0.00142568
0.00116432
0.000928085
0.000698791
0.000491923
0.0879026
0.0101698
0.00249753
0.00153012
0.00119977
0.000957207
0.000731219
0.000524599
0.0768789
0.0108838
0.00278206
0.0016612
0.00129774
0.00103749
0.000792607
0.000567554
0.0261222
0.00493333
0.00218268
0.00158615
0.00127977
0.0010156
0.000766105
0.000548817
0.00555072
0.00221695
0.0016762
0.0013904
0.00113477
0.000889678
0.000669303
0.000490816
0.00708003
0.00592129
0.00506793
0.00430485
0.00368024
0.00320299
0.00282618
0.00244381
0.0112426
0.00674395
0.00547844
0.00459784
0.00389207
0.0033634
0.00297669
0.00261331
0.0375301
0.00971529
0.00592868
0.00466811
0.00385659
0.00328785
0.00291378
0.00260361
0.124095
0.0189474
0.00684049
0.00468765
0.00372632
0.00311127
0.00272705
0.00243611
0.103044
0.0186876
0.00729828
0.00508394
0.00412123
0.00352051
0.00313749
0.00282004
0.0377906
0.0109246
0.00651952
0.005083
0.00421953
0.00361049
0.00316841
0.00275538
0.0124867
0.00715292
0.00567178
0.00472176
0.00398811
0.00342991
0.00299058
0.0025547
0.0102552
0.00922609
0.008575
0.00792983
0.00710198
0.00592176
0.00440761
0.00291399
0.0140831
0.010062
0.00904036
0.00841505
0.0077339
0.00668652
0.00514386
0.0034583
0.0389423
0.0131405
0.00960543
0.00870473
0.00814773
0.00729714
0.00584013
0.00408544
0.12407
0.0221705
0.0106041
0.00883545
0.00825175
0.00753947
0.00622686
0.00454965
0.100124
0.0212987
0.0110551
0.00926005
0.00852218
0.00756213
0.00596933
0.00407662
0.0385554
0.0141611
0.010237
0.00905068
0.00815944
0.00694098
0.00522843
0.00341372
0.0156049
0.0107701
0.00949387
0.00863309
0.00764077
0.00627957
0.00457343
0.00292793
6.4436e-05
5.94191e-05
5.81106e-05
5.80496e-05
6.29116e-05
6.82337e-05
7.42309e-05
0.000123651
0.000122847
0.000121491
0.000122782
0.000123118
0.000127647
0.000130172
0.00032123
0.000316966
0.000315478
0.000315439
0.000319459
0.000327625
0.000335923
0.00182927
0.00183163
0.0018354
0.00183075
0.0018292
0.00182753
0.00183952
0.00142732
0.00144286
0.00144678
0.00144894
0.00144375
0.00142757
0.0013985
7.93737e-05
6.28875e-05
5.00829e-05
4.39616e-05
4.93258e-05
5.93231e-05
7.24597e-05
0.00013866
0.000141193
0.000156197
0.000157785
0.000131378
0.00012204
0.000127514
0.000365106
0.00038911
0.000423416
0.000389328
0.000367198
0.000338482
0.000336104
0.0019818
0.00221089
0.00237175
0.00201652
0.00216491
0.00210786
0.00192856
0.0013032
0.00148034
0.00196479
0.00253664
0.00207106
0.00158171
0.00133583
7.28518e-05
5.97387e-05
3.70432e-05
4.09902e-05
5.19702e-05
6.05138e-05
6.59557e-05
0.000135979
0.000140906
0.000126868
0.000115085
0.000118983
0.000127205
0.000126262
0.00034455
0.000343346
0.000312584
0.000279244
0.000308742
0.000329765
0.000325925
0.00187594
0.00190693
0.00186626
0.00180735
0.00183459
0.00185361
0.00183641
0.00131709
0.00135563
0.00138296
0.0013847
0.00137152
0.00138993
0.00140804
7.30839e-05
6.27686e-05
5.37917e-05
4.55609e-05
4.60084e-05
6.01307e-05
7.74416e-05
0.000127715
0.000121087
0.000125047
0.000153057
0.000153721
0.0001441
0.000140963
0.000335623
0.000331401
0.00032835
0.000356748
0.00038556
0.000383219
0.000362956
0.00190886
0.00205851
0.0020948
0.00196384
0.0022796
0.00214028
0.00196659
0.00140101
0.0015358
0.00183696
0.00218507
0.00172188
0.00141266
0.00130491
6.21321e-05
5.70353e-05
5.02133e-05
4.31428e-05
3.6103e-05
2.95687e-05
2.3802e-05
1.87963e-05
5.74748e-05
5.36158e-05
4.82343e-05
4.15367e-05
3.49965e-05
2.88176e-05
2.32876e-05
1.84444e-05
5.62857e-05
5.2586e-05
4.75356e-05
4.10982e-05
3.47331e-05
2.8663e-05
2.31988e-05
1.83926e-05
5.64667e-05
5.40805e-05
4.88903e-05
4.24899e-05
3.57839e-05
2.9102e-05
2.33636e-05
1.85106e-05
6.09635e-05
5.67412e-05
5.05946e-05
4.33608e-05
3.6438e-05
2.99551e-05
2.4199e-05
1.91772e-05
6.64486e-05
6.16881e-05
5.44394e-05
4.62706e-05
3.86576e-05
3.16948e-05
2.55577e-05
2.02363e-05
7.18298e-05
6.55975e-05
5.7588e-05
4.92049e-05
4.10578e-05
3.3648e-05
2.71323e-05
2.14892e-05
0.000110678
8.97122e-05
6.78115e-05
5.01261e-05
3.73227e-05
2.82525e-05
2.17572e-05
1.71825e-05
0.000109888
8.96818e-05
6.8041e-05
5.07428e-05
3.79278e-05
2.87825e-05
2.22043e-05
1.75551e-05
0.000108736
8.90692e-05
6.77806e-05
5.07307e-05
3.80394e-05
2.89513e-05
2.23858e-05
1.77264e-05
0.000110381
9.00566e-05
6.86373e-05
5.11366e-05
3.80168e-05
2.88663e-05
2.23844e-05
1.78115e-05
0.000110528
9.03297e-05
6.83847e-05
5.10277e-05
3.82835e-05
2.92138e-05
2.26805e-05
1.80622e-05
0.000114925
9.34383e-05
7.02849e-05
5.21122e-05
3.89209e-05
2.96078e-05
2.29575e-05
1.8304e-05
0.000117601
9.53926e-05
7.15073e-05
5.26542e-05
3.92241e-05
2.97996e-05
2.31009e-05
1.84377e-05
0.00024999
0.000182397
0.000116449
7.20724e-05
4.59376e-05
3.07941e-05
2.19436e-05
1.69354e-05
0.000245376
0.000179382
0.00011553
7.20739e-05
4.62763e-05
3.12626e-05
2.24732e-05
1.75061e-05
0.00024356
0.000178949
0.00011542
7.21634e-05
4.64579e-05
3.1479e-05
2.27043e-05
1.77473e-05
0.000243524
0.000179351
0.000115422
7.21902e-05
4.65539e-05
3.15953e-05
2.28388e-05
1.79099e-05
0.000248465
0.000183315
0.000116469
7.21753e-05
4.62918e-05
3.13364e-05
2.26225e-05
1.77323e-05
0.000258542
0.000189784
0.000118887
7.29254e-05
4.64096e-05
3.12119e-05
2.24095e-05
1.74966e-05
0.000269687
0.000197007
0.000121768
7.38964e-05
4.6603e-05
3.10568e-05
2.20722e-05
1.70482e-05
0.00129786
0.000588716
0.000229407
0.000101803
5.26455e-05
3.12142e-05
2.10029e-05
1.61227e-05
0.0012889
0.000584858
0.000228602
0.000101857
5.29718e-05
3.16661e-05
2.15414e-05
1.67378e-05
0.00128157
0.000580641
0.000227643
0.000101855
5.31688e-05
3.19069e-05
2.18005e-05
1.70126e-05
0.00127336
0.000575895
0.000226102
0.000101433
5.30903e-05
3.19495e-05
2.19003e-05
1.71497e-05
0.00127193
0.000573139
0.000224803
0.000100866
5.27199e-05
3.16295e-05
2.15894e-05
1.68358e-05
0.00127523
0.000573806
0.000224938
0.000100802
5.24619e-05
3.12574e-05
2.11554e-05
1.63628e-05
0.00129363
0.000583262
0.000228468
0.000102076
5.27806e-05
3.1102e-05
2.07076e-05
1.56909e-05
0.0011305
0.000662235
0.000268608
0.000113301
5.39534e-05
2.97125e-05
1.9135e-05
1.45636e-05
0.00112645
0.000660927
0.000269335
0.000114027
5.45496e-05
3.02555e-05
1.96794e-05
1.51448e-05
0.00111696
0.000656413
0.000269001
0.000114515
5.49714e-05
3.05749e-05
1.9964e-05
1.5427e-05
0.00111325
0.000654693
0.000268335
0.000114122
5.48298e-05
3.05905e-05
2.00506e-05
1.5546e-05
0.00111465
0.00065511
0.000267579
0.00011344
5.43593e-05
3.02295e-05
1.97266e-05
1.52183e-05
0.00111694
0.000655613
0.000266691
0.000112679
5.37519e-05
2.97001e-05
1.92208e-05
1.46954e-05
0.00111931
0.000655086
0.000264686
0.000111448
5.29752e-05
2.90875e-05
1.86135e-05
1.39976e-05
7.71279e-05
7.15139e-05
6.32693e-05
5.39397e-05
4.48893e-05
3.67549e-05
2.96667e-05
2.35754e-05
6.0641e-05
5.71105e-05
5.35646e-05
4.83952e-05
4.20671e-05
3.55832e-05
2.94228e-05
2.38068e-05
4.69974e-05
4.22052e-05
3.80671e-05
3.39878e-05
3.00381e-05
2.59109e-05
2.21666e-05
1.85735e-05
4.08315e-05
3.53637e-05
3.07362e-05
2.64893e-05
2.28966e-05
1.96779e-05
1.67381e-05
1.39944e-05
4.57961e-05
4.07444e-05
3.61827e-05
3.1949e-05
2.79407e-05
2.41362e-05
2.06635e-05
1.7343e-05
5.65589e-05
5.29347e-05
4.81917e-05
4.33077e-05
3.76163e-05
3.19104e-05
2.64615e-05
2.13473e-05
7.0176e-05
6.51543e-05
5.81201e-05
4.99134e-05
4.17445e-05
3.42994e-05
2.76892e-05
2.19835e-05
0.000123444
9.88046e-05
7.23111e-05
5.17193e-05
3.74882e-05
2.7887e-05
2.13069e-05
1.68231e-05
0.0001229
9.94691e-05
7.68042e-05
5.77942e-05
4.32597e-05
3.28337e-05
2.54321e-05
2.03129e-05
0.00013002
9.9224e-05
7.4132e-05
5.56897e-05
4.18896e-05
3.19104e-05
2.42265e-05
1.83469e-05
0.000131251
0.000100388
7.53965e-05
5.66631e-05
4.30542e-05
3.26598e-05
2.48834e-05
1.91088e-05
0.000109678
8.36994e-05
6.28005e-05
4.70088e-05
3.53794e-05
2.67212e-05
2.02012e-05
1.53802e-05
0.000106642
8.52021e-05
6.65439e-05
5.06437e-05
3.84941e-05
2.95008e-05
2.28014e-05
1.80222e-05
0.000114472
9.3412e-05
6.98816e-05
5.09173e-05
3.74135e-05
2.80621e-05
2.15401e-05
1.70651e-05
0.000284062
0.000205671
0.000125401
7.44501e-05
4.57665e-05
2.96403e-05
2.03756e-05
1.51066e-05
0.000284544
0.00020045
0.000136713
8.91811e-05
5.92501e-05
4.10496e-05
2.98538e-05
2.29475e-05
0.000291026
0.000177301
0.000117832
8.55938e-05
6.61917e-05
5.12105e-05
3.90777e-05
2.92557e-05
0.000266107
0.000158449
0.000100859
6.85669e-05
4.84867e-05
3.50262e-05
2.57364e-05
1.93045e-05
0.00024935
0.000146701
9.35235e-05
6.46437e-05
4.78209e-05
3.63572e-05
2.76639e-05
2.1164e-05
0.000246859
0.000169884
0.000121936
8.19751e-05
5.51423e-05
3.82002e-05
2.75136e-05
2.08726e-05
0.000260963
0.000193897
0.00012231
7.44953e-05
4.66824e-05
3.06831e-05
2.13349e-05
1.59635e-05
0.00138233
0.000614651
0.000235571
0.000102477
5.15675e-05
2.9486e-05
1.89069e-05
1.36535e-05
0.00157487
0.000743032
0.000301201
0.000137019
7.28587e-05
4.4471e-05
3.03579e-05
2.27929e-05
0.00178579
0.000935011
0.000432776
0.000218437
0.000125633
8.27995e-05
6.09684e-05
4.86748e-05
0.00147671
0.000744817
0.000333603
0.000159735
8.45149e-05
4.9062e-05
3.07708e-05
2.07911e-05
0.00162226
0.000842751
0.000386132
0.000192747
0.000108633
6.84777e-05
4.73904e-05
3.54399e-05
0.00152546
0.000742538
0.000307558
0.000141785
7.59204e-05
4.62043e-05
3.11275e-05
2.29013e-05
0.00136359
0.00061812
0.000241016
0.000106656
5.46564e-05
3.17741e-05
2.06295e-05
1.49967e-05
0.00107362
0.000616909
0.000244435
0.000101777
4.78308e-05
2.58545e-05
1.61592e-05
1.1758e-05
0.00118198
0.000683314
0.000280253
0.00012329
6.2587e-05
3.70628e-05
2.52904e-05
1.95973e-05
0.00145423
0.000867104
0.000387667
0.000188901
0.000107106
7.08127e-05
5.35484e-05
4.55153e-05
0.00181033
0.00112366
0.000565282
0.000309516
0.000188254
0.000123161
8.26178e-05
5.41669e-05
0.00153442
0.000928273
0.000426611
0.000213036
0.000121805
7.88547e-05
5.61683e-05
4.33086e-05
0.00125745
0.000735192
0.000308549
0.00013931
7.2359e-05
4.32981e-05
2.92351e-05
2.19278e-05
0.00110261
0.000638297
0.000256393
0.000108632
5.21214e-05
2.8733e-05
1.81949e-05
1.32758e-05
7.14743e-05
6.70581e-05
5.94827e-05
5.05524e-05
4.1836e-05
3.4025e-05
2.73214e-05
2.15911e-05
5.91648e-05
5.79212e-05
5.50858e-05
4.92412e-05
4.19695e-05
3.43839e-05
2.77849e-05
2.21161e-05
3.47985e-05
3.1463e-05
2.88964e-05
2.62438e-05
2.42624e-05
2.22826e-05
1.95126e-05
1.62836e-05
3.82789e-05
3.3796e-05
2.9571e-05
2.5142e-05
2.14577e-05
1.81045e-05
1.50607e-05
1.23693e-05
4.93511e-05
4.57869e-05
4.22518e-05
3.77345e-05
3.25195e-05
2.7108e-05
2.20187e-05
1.76058e-05
5.92726e-05
5.78455e-05
5.23405e-05
4.56177e-05
3.81908e-05
3.10694e-05
2.49062e-05
1.97511e-05
6.36788e-05
5.88517e-05
5.22907e-05
4.47846e-05
3.72868e-05
3.04162e-05
2.44189e-05
1.92644e-05
0.000120948
9.64297e-05
7.06795e-05
5.08352e-05
3.70833e-05
2.77939e-05
2.13976e-05
1.70129e-05
0.000126413
0.00010453
7.91625e-05
5.79949e-05
4.23197e-05
3.16653e-05
2.43071e-05
1.92668e-05
0.000111824
9.24966e-05
7.38978e-05
5.91895e-05
4.65423e-05
3.63363e-05
2.84362e-05
2.22869e-05
9.89041e-05
7.67161e-05
5.65508e-05
4.15015e-05
3.01834e-05
2.21086e-05
1.62959e-05
1.21795e-05
0.000104265
8.38461e-05
6.43816e-05
4.83838e-05
3.63411e-05
2.76735e-05
2.15248e-05
1.71516e-05
0.000113584
9.14924e-05
6.93905e-05
5.10494e-05
3.76561e-05
2.8237e-05
2.16883e-05
1.70928e-05
0.000113261
9.18634e-05
6.89384e-05
5.05606e-05
3.73124e-05
2.80204e-05
2.14815e-05
1.6935e-05
0.000269676
0.000195967
0.000120533
7.23028e-05
4.49422e-05
2.94798e-05
2.05921e-05
1.55947e-05
0.000262416
0.000193149
0.000125246
7.8502e-05
5.05369e-05
3.41557e-05
2.45118e-05
1.8973e-05
0.000233055
0.000165969
0.000121724
8.46111e-05
5.93383e-05
4.33921e-05
3.34902e-05
2.75789e-05
0.000203999
0.000139465
0.000103909
7.76799e-05
5.75661e-05
4.28249e-05
3.16382e-05
2.25987e-05
0.000229852
0.000161675
0.000111827
7.42553e-05
5.0297e-05
3.57918e-05
2.71102e-05
2.21228e-05
0.000252067
0.00018196
0.000117659
7.35849e-05
4.7242e-05
3.18188e-05
2.27054e-05
1.74417e-05
0.000252908
0.000184001
0.000117142
7.22177e-05
4.58047e-05
3.05364e-05
2.16318e-05
1.65867e-05
0.00131346
0.000584743
0.000224802
9.854e-05
4.999e-05
2.88321e-05
1.87272e-05
1.38266e-05
0.00133444
0.000600341
0.000232632
0.000102929
5.32835e-05
3.17069e-05
2.14e-05
1.64075e-05
0.00131758
0.000610292
0.000239831
0.00010792
5.83378e-05
3.71889e-05
2.73479e-05
2.28908e-05
0.00129044
0.000614479
0.000255216
0.000122825
7.31934e-05
5.26984e-05
4.3545e-05
3.93611e-05
0.00129306
0.000596303
0.000234103
0.000105415
5.70023e-05
3.63889e-05
2.67566e-05
2.22182e-05
0.00130482
0.000592938
0.000230791
0.000102409
5.32612e-05
3.18969e-05
2.16664e-05
1.66745e-05
0.00130231
0.000590075
0.000229331
0.000101456
5.22992e-05
3.08871e-05
2.06656e-05
1.57395e-05
0.00107556
0.000624248
0.000249645
0.000104259
4.8902e-05
2.62723e-05
1.63325e-05
1.19221e-05
0.0010805
0.000627961
0.00025262
0.000106083
5.03133e-05
2.75668e-05
1.76252e-05
1.32917e-05
0.00109015
0.000634273
0.000256596
0.000109178
5.33389e-05
3.0744e-05
2.10729e-05
1.71607e-05
0.00108811
0.000635223
0.000260179
0.000114357
5.96793e-05
3.81445e-05
2.96681e-05
2.73058e-05
0.00108304
0.000630967
0.000255085
0.000108609
5.32916e-05
3.09887e-05
2.14692e-05
1.76099e-05
0.0010992
0.000642166
0.000259778
0.000109654
5.24613e-05
2.91302e-05
1.89353e-05
1.45063e-05
0.00112013
0.000655357
0.00026519
0.000111688
5.30969e-05
2.91627e-05
1.86989e-05
1.4148e-05
7.05122e-05
6.53488e-05
5.83232e-05
5.02981e-05
4.22442e-05
3.48334e-05
2.82707e-05
2.25441e-05
5.97174e-05
5.48612e-05
5.05929e-05
4.51678e-05
3.91038e-05
3.29294e-05
2.71811e-05
2.19702e-05
5.00103e-05
4.37436e-05
3.87691e-05
3.40161e-05
2.9531e-05
2.52003e-05
2.12091e-05
1.76111e-05
4.21048e-05
3.61272e-05
3.11294e-05
2.67409e-05
2.28789e-05
1.95118e-05
1.64513e-05
1.3718e-05
4.35098e-05
3.93583e-05
3.55893e-05
3.18406e-05
2.80663e-05
2.44517e-05
2.09572e-05
1.76576e-05
5.81107e-05
5.43058e-05
5.09848e-05
4.67809e-05
4.10071e-05
3.48385e-05
2.89273e-05
2.35344e-05
7.56643e-05
7.05096e-05
6.21987e-05
5.284e-05
4.38843e-05
3.59418e-05
2.90621e-05
2.31237e-05
0.000115849
9.56421e-05
7.26791e-05
5.39469e-05
4.02952e-05
3.06238e-05
2.37378e-05
1.8913e-05
0.000107321
8.81844e-05
6.92126e-05
5.32084e-05
4.07445e-05
3.15086e-05
2.46934e-05
1.97347e-05
0.000105904
8.16642e-05
6.12212e-05
4.59047e-05
3.45437e-05
2.61194e-05
1.97875e-05
1.50674e-05
0.000128154
9.76945e-05
7.2797e-05
5.41316e-05
4.0482e-05
3.04716e-05
2.30771e-05
1.76169e-05
0.000128219
9.87467e-05
7.45199e-05
5.62386e-05
4.26184e-05
3.23099e-05
2.46165e-05
1.8694e-05
0.000125282
0.000101406
7.86402e-05
5.86978e-05
4.38779e-05
3.33669e-05
2.59711e-05
2.0725e-05
0.000124272
9.80901e-05
7.12256e-05
5.07655e-05
3.68359e-05
2.75063e-05
2.11296e-05
1.67682e-05
0.000265826
0.000198974
0.000126826
7.84907e-05
5.00819e-05
3.35516e-05
2.37976e-05
1.8162e-05
0.00024946
0.000178954
0.000126213
8.45683e-05
5.72725e-05
4.01777e-05
2.94603e-05
2.28667e-05
0.000226393
0.000136799
9.06491e-05
6.65074e-05
5.11613e-05
3.90729e-05
2.97787e-05
2.28695e-05
0.000246089
0.000147696
9.44255e-05
6.41658e-05
4.50295e-05
3.22704e-05
2.36297e-05
1.78025e-05
0.000268208
0.000170336
0.000119682
9.22778e-05
7.20067e-05
5.59462e-05
4.35916e-05
3.43878e-05
0.000281384
0.000201105
0.000135535
8.7624e-05
5.77148e-05
3.96026e-05
2.84832e-05
2.17147e-05
0.000281995
0.000203868
0.000124338
7.39292e-05
4.55552e-05
2.9599e-05
2.04243e-05
1.52051e-05
0.00135641
0.000621121
0.000245909
0.000110737
5.78853e-05
3.44721e-05
2.30223e-05
1.72512e-05
0.00148838
0.000719494
0.000297967
0.000138334
7.48869e-05
4.64409e-05
3.21402e-05
2.4486e-05
0.00156133
0.000803604
0.000365808
0.000182296
0.000103528
6.72467e-05
4.86301e-05
3.82582e-05
0.00146104
0.000752926
0.000345907
0.000171057
9.35291e-05
5.5338e-05
3.44588e-05
2.25705e-05
0.001694
0.000864249
0.000386496
0.000186986
0.000104188
6.71646e-05
4.87192e-05
3.8883e-05
0.00151694
0.000706739
0.000282993
0.000127373
6.6995e-05
4.0471e-05
2.74074e-05
2.05822e-05
0.00137152
0.000609034
0.000233075
0.000101249
5.08845e-05
2.90757e-05
1.86535e-05
1.35068e-05
0.00113484
0.000661913
0.000267862
0.000113978
5.51215e-05
3.08587e-05
2.00186e-05
1.50689e-05
0.00122257
0.000714691
0.000296605
0.000131781
6.76797e-05
4.05763e-05