/*--------------------------------*- C++ -*----------------------------------*\
| =========                 |                                                 |
| \\      /  F ield         | OpenFOAM: The Open Source CFD Toolbox           |
|  \\    /   O peration     | Version:  plus.master.MPPICInterFoam            |
|   \\  /    A nd           | Web:      www.OpenFOAM.com                      |
|    \\/     M anipulation  |                                                 |
\*---------------------------------------------------------------------------*/
FoamFile
{
    version     2.0;
    format      ascii;
    class       vectorField;
    location    "1.8/lagrangian/kinematicCloud";
    object      UCorrect;
}
// * * * * * * * * * * * * * * * * * * * * * * * * * * * * * * * * * * * * * //


96597
(
(-4.11189e-06 0.00104032 -0.000966712)
(0.001248 1.22359e-05 0.000107112)
(-2.10515e-12 2.38067e-05 0.00233884)
(0.000186967 -6.62885e-05 -2.00551e-06)
(0.00117113 0.000543019 6.25226e-05)
(-0.000328456 -0.000559831 0.00318018)
(0.000314524 -0.000587718 0.00343182)
(-0.00189694 -0.000303842 -2.09132e-05)
(0.000246202 0.000493918 0.000132312)
(-0.00189452 0.000327836 4.03858e-07)
(-3.24307e-06 0.000301062 0.000132008)
(0.00245568 -0.00112947 0.000122629)
(0.00072513 0.000830302 0.000421279)
(0.0107768 0.00262776 0.00189645)
(0.000529433 0.00111624 0.00336139)
(0.00102226 -8.59985e-08 0.00530316)
(-0.00481193 -0.0131633 0.00191625)
(0.000902603 0.000956021 0.00351493)
(-0.028834 0.00619212 0.00428277)
(-0.00060981 0.000293664 0.00319058)
(0.000824959 0.00125122 0.000273586)
(-8.60883e-06 3.57155e-05 -2.59765e-07)
(-0.000999169 0.000499239 0.000146281)
(4.7709e-07 0.00216414 0.000223264)
(-3.83364e-05 -1.85135e-05 0.00316786)
(-0.00318829 0.0033411 0.00355712)
(0.0013535 -0.000322948 0.000135478)
(5.5815e-05 -0.000182276 1.14133e-05)
(4.97429e-05 0.000211008 -5.6243e-05)
(5.43755e-05 -0.000106513 2.9429e-06)
(-0.000747553 0.000750855 0.00320757)
(-0.000132229 0.000141685 0.000517022)
(-0.00122 -0.000587571 0.00316786)
(0.00127379 -0.00116092 0.00285104)
(-0.00155297 0.000167578 0.000108216)
(0.000627657 -0.00070157 0.000155286)
(-0.00218369 -0.00432939 0.00373914)
(-0.000362286 0.00104424 0.000471281)
(-0.000793774 0.000138968 0.00351647)
(0.00072513 0.000830302 0.000142071)
(1.40899e-08 -7.71534e-05 0.00402033)
(7.96248e-10 0.000172591 0.00281954)
(0.000493125 -7.67235e-05 8.83044e-07)
(-0.000134473 5.63623e-10 0.000997663)
(0.00033606 -0.000569531 0.00323196)
(-0.000383843 -0.000716479 0.000146738)
(-0.000177958 -0.000362426 0.000149611)
(-0.0015169 0.000730496 0.00319058)
(-0.00042281 0.000867764 0.00325387)
(0.000693202 -0.00106432 0.00336697)
(1.52705e-06 0.000631688 0.00281154)
(0.00057356 0.000999076 0.000175635)
(-0.000383843 -0.000716479 0.000947529)
(-0.000181433 0.00036049 0.00358982)
(0.000627657 -0.00070157 0.000148445)
(-0.000265665 0.000547226 0.000145268)
(0.000868471 -0.000311868 0.0001462)
(-5.66018e-05 2.0187e-05 0.00273376)
(0.000635968 -0.000513302 0.00346828)
(-0.00170981 -0.00485091 -0.000307159)
(0.000246202 0.000493918 0.000829719)
(0.000254621 0.00110402 0.000126336)
(-0.00327468 -0.0097536 0.000509787)
(-0.000188259 0.000380715 0.00325387)
(-8.40498e-05 5.25738e-05 -3.53786e-06)
(0.000806565 -0.000819084 0.00305292)
(0.000523643 -0.000998824 0.00339113)
(0.000676632 0.000968901 0.00342907)
(-0.000271733 0.000554049 0.0001369)
(0.000511229 0.00352902 0.00303741)
(3.47445e-05 3.48785e-05 0.000417964)
(-3.33862e-05 -1.61296e-05 0.00316786)
(-0.00835741 -7.11093e-05 0.00220504)
(-1.77042e-09 0.000156583 0.000817516)
(0.00103543 0.000627586 0.00379099)
(-0.00587656 -3.07802e-08 0.000651019)
(0.000274497 0.00037987 -9.18027e-07)
(0.000675389 -0.000789144 0.00121002)
(0.000230477 -0.00118413 0.000132074)
(0.00108077 0.00064168 0.000148561)
(0.000246202 0.000493918 0.00225193)
(0.000217777 0.000414958 0.000132041)
(-0.000177958 -0.000362426 0.000142955)
(0.000983284 -0.000693169 0.00312155)
(0.000680811 -4.52858e-08 0.00274478)
(0.0107768 0.00262776 0.000388622)
(-0.000270773 -0.000199663 3.31337e-05)
(2.59776e-06 -0.000139695 0.000156588)
(-0.000714633 0.000505674 0.00319332)
(-5.00669e-05 -0.000249054 0.00351647)
(4.44747e-05 -0.000609443 0.00318018)
(-0.000903285 0.000435179 0.000156007)
(0.000497584 0.00141142 0.00014555)
(0.00109065 0.00163639 0.00137566)
(-1.72124e-05 -0.000151131 0.000155974)
(0.000396477 -0.000645215 0.000157217)
(2.5292e-05 -3.87617e-06 1.38793e-05)
(-0.00170273 -0.00282314 0.000262617)
(-0.00157979 -0.00514153 0.000156431)
(0.00061858 -0.000162829 0.000233193)
(0.000313393 0.000998283 0.000153945)
(0.000340006 -0.000577727 0.00323196)
(-0.00324216 0.00609922 0.00355712)
(3.94541e-05 0.00011033 2.64411e-07)
(0.000650409 -0.00116659 0.00364756)
(-0.000946715 0.000471445 0.00010372)
(0.000303935 0.000615011 0.000154516)
(-0.000122917 0.000102559 0.00280006)
(4.16049e-05 8.09744e-05 6.43803e-05)
(0.000254245 2.16183e-05 6.69962e-06)
(-0.00385627 0.00544215 0.0016618)
(1.77357e-06 -0.00152183 0.00109217)
(0.0130021 -0.00180159 1.48147e-05)
(-6.54452e-05 -0.000251288 0.00348348)
(0.000218839 0.000171314 1.8403e-05)
(0.00102226 -8.59985e-08 0.000454483)
(-0.00175462 -0.00730788 0.0036289)
(-0.000778284 0.000724957 0.000148673)
(-4.22232e-05 -0.000534425 1.31958e-07)
(3.47445e-05 3.48785e-05 0.000595337)
(-0.000903285 0.000435179 0.000170352)
(7.96248e-10 4.20037e-06 0.000948095)
(-0.000271733 0.000554049 0.000139003)
(-9.09475e-05 3.30548e-05 -0.00197813)
(0.00073296 -0.000900471 0.000142313)
(6.89378e-07 0.00020322 0.000500157)
(0.00116637 0.00253394 1.61376e-05)
(-0.00556161 -6.72806e-07 0.000541795)
(-0.00281522 -0.0012653 0.000135964)
(0.0010155 -0.00121953 0.000148796)
(-0.000896611 -0.000284344 -0.000529378)
(-3.82756e-05 1.81221e-05 0.00273376)
(0.000303935 0.000615011 0.000152992)
(-5.3139e-05 -0.000255433 0.00351647)
(0.00032491 -0.000609285 0.00343182)
(7.08759e-06 -8.9792e-05 0.000885728)
(0.00106562 0.0012196 0.00327915)
(-6.48577e-05 2.56938e-05 0.00316073)
(-0.000615992 0.000692611 0.00352317)
(-0.000122802 1.32769e-05 4.12872e-06)
(0.000327943 -0.000615583 0.00343182)
(0.00102226 -8.59985e-08 0.000698865)
(0.000174587 -6.76834e-05 -2.00551e-06)
(0.000868471 -0.000311868 0.000145793)
(-0.000335921 -0.000575332 0.00318018)
(-0.000730026 0.000516171 0.000167445)
(-0.002015 -0.00550057 0.000151938)
(0.000254621 0.00110402 0.000114193)
(0.000106305 0.00166824 0.000223264)
(0.00117215 0.000589893 0.00320027)
(0.000534557 -6.18009e-05 0.00615148)
(0.000931332 -0.000695321 0.0029931)
(-5.35203e-05 -0.000256225 0.00351647)
(0.000117099 0.000225834 0.00323884)
(0.000159871 0.000248201 0.0041634)
(0.000227363 0.00225878 2.25535e-05)
(0.00053334 0.00142756 0.00350185)
(-1.77042e-09 0.000156583 0.000967608)
(0.000217777 0.000414958 0.000141943)
(-0.00799095 -0.00194233 0.000347932)
(-0.000197322 -0.00042499 2.60293e-05)
(7.96248e-10 4.20037e-06 0.00055228)
(-0.000191511 0.000387468 0.00325387)
(-0.000175452 -0.000235198 -6.24888e-05)
(-0.000881933 0.000817394 0.00281183)
(0.0036174 0.000794082 -1.87604e-06)
(0.000297703 -0.000248975 1.00294e-06)
(7.42936e-05 -6.62456e-05 -0.00184564)
(-0.000730026 0.000516171 0.000160917)
(-0.00240846 0.00371664 0.000232409)
(-0.00126597 0.00136714 0.000409837)
(0.000230477 -0.00118413 0.000128571)
(-0.001485 -0.000226281 0.000129482)
(0.00153397 0.00139368 0.00361501)
(0.000272042 -0.00023752 0.00308215)
(0.000264214 0.000483818 -9.18027e-07)
(-0.000309582 -1.97506e-07 0.00333022)
(-0.000596693 -0.000287404 0.00121369)
(0.00173101 0.000293581 0.00362071)
(0.000342892 -0.000491844 0.000756205)
(0.000577552 0.000342678 0.00327915)
(-0.000326438 5.41982e-05 8.855e-05)
(-0.00118222 0.000984454 0.000167861)
(0.000246202 0.000493918 0.000126267)
(0.0013535 -0.000322948 0.000138497)
(5.93834e-05 -0.000156744 -5.9865e-06)
(-0.00191333 0.00656691 0.000147373)
(0.000139858 -0.000296181 -6.12032e-06)
(0.000353836 -0.000606445 0.00323196)
(-0.00127795 -0.00061548 0.00316786)
(0.000344219 -4.10843e-05 0.00433638)
(-0.000311441 0.000497521 0.0004574)
(-2.63095e-10 -0.000113677 0.00273376)
(0.000317805 -0.000594532 0.00343182)
(-0.000265665 0.000547226 0.000141579)
(0.000393818 -0.000768335 0.00346458)
(-0.000528814 0.000632232 0.00351159)
(0.00399915 -0.00180159 6.38844e-05)
(-0.00179119 -0.0103341 0.00203473)
(0.00294296 0.00086962 0.000619796)
(0.00108088 0.000644651 0.00465666)
(0.00746876 -0.00370215 0.000728152)
(0.000930862 -0.00069579 0.0029931)
(-0.00193 -0.0102554 0.00376711)
(5.97235e-05 -0.000204871 1.58478e-07)
(0.000627657 -0.00070157 0.000153316)
(0.0111484 -0.00269388 0.00391709)
(0.000123035 3.03709e-05 0.00364911)
(-0.000179103 0.000367476 0.00351493)
(-0.000151643 -0.000218128 0.00366526)
(-0.0107942 0.0122088 0.0016618)
(-0.00427011 -3.07802e-08 0.000651019)
(0.00049222 -0.000750836 5.66342e-05)
(0.00092893 -0.000455777 0.00360566)
(0.000998524 0.000613733 0.00379099)
(-0.00150911 0.000726931 0.00366136)
(0.000275628 0.000368427 -9.18027e-07)
(-0.00109659 -0.000117253 0.00366136)
(-0.000331664 5.41982e-05 8.855e-05)
(1.58418e-06 0.00730946 -0.000406075)
(-0.000596693 -0.000287404 0.00014034)
(4.7709e-07 0.00240459 0.000223264)
(6.64832e-06 -4.08734e-05 1.79611e-05)
(0.000824959 0.00125122 0.000142066)
(0.00082552 0.00075496 0.000121881)
(6.41148e-05 2.10335e-05 0.00273376)
(-8.24976e-05 0.000221002 -5.9865e-06)
(-0.00220039 0.00100213 0.000112185)
(0.000765741 -0.000648863 0.00320342)
(-7.82438e-05 0.00188892 3.40416e-05)
(-8.60883e-06 3.57155e-05 -2.52263e-07)
(0.000457873 0.000136802 6.41488e-06)
(6.22809e-05 -0.00016467 0.00013978)
(0.00195903 -0.000820483 0.00243097)
(-0.000660569 -0.00152863 0.000143467)
(0.00194546 0.00259878 0.003667)
(4.7709e-07 0.00165632 0.000368008)
(0.000381041 0.00140956 0.00336139)
(0.000828215 -0.000824025 0.00305292)
(0.000246202 0.000493918 0.000430743)
(0.000114237 -2.75784e-05 0.00367694)
(0.000626556 0.000807803 0.00342907)
(0.00746876 -0.00370215 0.000966495)
(2.15052e-12 0.00039613 0.00134209)
(0.000916681 -0.000767538 0.00339113)
(-0.000547653 0.00154677 0.00014015)
(-0.000288718 -0.000502769 0.00014545)
(0.000483366 -0.00109122 0.00014555)
(0.000483366 -0.00109122 0.00015938)
(8.32794e-12 8.51771e-06 2.18306e-06)
(-0.000322049 -0.000546527 0.00318018)
(0.000664816 -0.00244294 -4.18482e-05)
(0.000306862 -0.000571808 0.000147158)
(0.000769119 0.000651312 0.00316244)
(0.000675389 -0.000789144 0.000135773)
(-0.000596693 -0.000287404 0.000853978)
(0.000706416 -4.52858e-08 0.00274478)
(-0.000362286 0.00104424 0.000141214)
(-0.000660569 -0.00152863 0.000121073)
(1.11241e-06 -4.74768e-05 1.12397e-05)
(-6.55342e-05 0.000233185 -2.99334e-06)
(0.0013535 -0.000322948 0.00013417)
(0.0130021 -0.00180159 1.68324e-05)
(-0.000280911 1.4745e-05 1.06553e-05)
(-0.000560449 -0.000751825 0.00324603)
(0.0059533 -0.00160765 0.000164348)
(0.0013535 -0.000322948 0.000134522)
(-0.000903285 0.000435179 0.0001557)
(-0.014372 0.00641529 0.0016618)
(0.000110982 0.00166877 0.000223264)
(-9.43606e-05 0.000162871 -2.48839e-05)
(0.00082552 0.00075496 0.000134192)
(-0.000999169 0.000499239 0.000133001)
(-0.000325522 -0.000377335 0.000149499)
(0.00073296 -0.000900471 0.000140716)
(-1.77042e-09 0.000156583 0.000151068)
(-0.0018986 -0.0102732 0.00376711)
(-0.000190841 -0.000375972 2.60293e-05)
(-0.0114939 -0.0145041 0.00108907)
(0.00037866 -0.0006378 0.00372425)
(0.000408652 -0.00071786 0.00362071)
(-0.00155297 0.000167578 0.000126444)
(0.000868471 -0.000311868 0.000135724)
(0.000670078 -0.000836274 0.00305292)
(3.8981e-05 0.000352384 0.00374082)
(-4.15648e-05 0.000318687 0.00316049)
(-0.000288718 -0.000502769 0.000159707)
(-3.9285e-06 8.96259e-07 -5.61328e-08)
(-1.77042e-09 0.000156583 0.000910284)
(-0.000183312 0.000370441 0.00325387)
(0.000824959 0.00125122 0.000137487)
(-0.000271733 0.000554049 0.000130222)
(-0.000383843 -0.000716479 0.000150865)
(0.00085912 0.0011536 0.00325455)
(-0.00130962 -0.0023614 0.00412601)
(-0.000373864 -0.000235198 -3.46088e-08)
(0.00169136 -0.000357814 1.74414e-07)
(-0.000227203 0.000171314 1.8403e-05)
(-2.35333e-05 0.00011321 -1.00177e-05)
(0.00451429 -0.0031024 0.00383978)
(-0.000265665 0.000547226 0.000156175)
(4.7709e-07 0.00219307 0.000223264)
(-0.000903285 0.000435179 0.000156672)
(-0.000265665 0.000547226 0.000160277)
(0.000217922 -0.000370299 0.000147346)
(0.000230477 -0.00118413 0.000142342)
(-0.0021896 -0.00432654 0.00373914)
(-8.96176e-05 1.24295e-05 0.00308707)
(-0.00149107 0.000197858 0.000134376)
(-0.002015 -0.00550057 0.000153534)
(0.000234717 0.000190821 -9.18027e-07)
(-0.000596693 -0.000287404 0.000137024)
(0.000757957 -4.52858e-08 0.00274478)
(-0.00105213 0.00141404 0.00336447)
(7.96248e-10 4.20037e-06 0.000787865)
(-0.000430586 -0.00152022 0.00346826)
(-0.00481193 -0.0025032 0.000125849)
(0.000824959 0.00125122 0.000143593)
(-0.000999169 0.000499239 0.000149445)
(-0.000999169 0.000499239 0.000382701)
(0.000715068 -0.0016664 0.000114363)
(0.00123051 -6.18009e-05 0.00357106)
(0.000429701 0.000881975 0.00347667)
(5.93834e-05 0.000747699 -5.9865e-06)
(0.00196894 2.70787e-05 0.00360281)
(-1.0804e-06 -0.000110267 -7.35933e-06)
(0.000217777 0.000414958 0.00015583)
(0.000341904 -0.000579256 0.000155038)
(0.00111285 -0.00382919 6.72735e-06)
(-0.00119982 -0.000244739 0.00017107)
(-0.000937165 -4.70021e-05 0.00319058)
(-9.15632e-05 -0.000115373 1.27011e-07)
(0.000217777 0.000414958 0.000160025)
(1.77357e-06 -0.00202524 0.00109217)
(0.000563433 -0.000372355 0.000140616)
(0.000246202 0.000493918 0.000137405)
(-0.000173663 0.000350405 0.00325387)
(-3.66281e-05 -2.04735e-07 0.00209217)
(-0.000903285 0.000435179 0.000164206)
(0.00103303 -0.00181029 0.000534408)
(-0.00157979 -0.00514153 0.000160658)
(0.000768788 0.000740234 0.00313208)
(0.000292155 0.00112828 0.000125092)
(0.000292155 0.00112828 0.000121184)
(-0.00247662 -0.000586762 1.26999e-05)
(2.59776e-06 -0.000139695 0.000157735)
(-2.10515e-12 0.000162064 0.00233884)
(9.00708e-05 7.77467e-05 -6.65545e-06)
(0.000301417 -1.63324e-05 1.61486e-05)
(0.000702262 0.000445143 4.91208e-05)
(0.000433291 0.000429455 0.00339213)
(-0.000587674 0.000809675 0.00366128)
(-0.000599663 0.000360841 0.000173321)
(0.00107723 -0.00259823 0.0030465)
(-0.0125485 0.00641529 0.00151113)
(-0.000660569 -0.00152863 0.000114444)
(-0.000767273 0.000875798 0.00307782)
(-0.000622851 -0.000852576 0.00342392)
(-6.59823e-05 -0.000204409 0.00394941)
(-0.000346445 -0.00529002 0.00119052)
(-0.000903285 0.000435179 0.000162842)
(-7.52461e-06 1.2501e-05 0.000142319)
(-3.83349e-05 -1.85128e-05 0.00316786)
(-0.000383843 -0.000716479 0.000138417)
(0.000292155 0.00112828 0.000120403)
(0.000230477 -0.00118413 0.000132635)
(-7.62798e-05 -4.47318e-05 0.00316073)
(-0.000370811 -0.000689417 0.0033742)
(0.000144102 0.0016725 0.000223264)
(-6.09308e-05 8.22323e-05 1.40086e-05)
(0.000715346 0.00260451 0.00238122)
(0.000246202 0.000493918 0.000130701)
(-0.000169425 -0.000255054 0.00366526)
(-0.00119982 -0.000244739 0.000165629)
(0.000246202 0.000493918 0.000119339)
(-0.000138804 0.000217433 0.00313552)
(-0.0012091 -0.000980098 0.00302141)
(0.000327807 -0.0006153 0.00343182)
(-0.000903285 0.000435179 0.00015281)
(0.000345171 -0.000623862 0.00372425)
(-0.000999169 0.000499239 0.000147643)
(-0.00240846 0.00371664 0.000162245)
(-0.000308752 0.000385083 0.000143344)
(0.000367755 -0.000633262 0.00372425)
(0.000785472 -0.000631607 0.00351647)
(0.00299536 -3.07802e-08 0.000651019)
(-0.00156827 0.00581928 0.00016368)
(-0.00108485 0.00052053 0.00259986)
(-0.000910612 2.88807e-05 0.00319058)
(4.7709e-07 0.00165632 0.00014508)
(0.00072513 0.000830302 0.000139153)
(0.00120458 0.00290087 0.00308215)
(-0.00119983 0.000563068 0.00277739)
(0.00026178 -0.00150761 0.000387453)
(-0.000249249 -0.00104499 0.00346826)
(-0.000392325 0.000804461 0.00325387)
(0.000480877 -0.000875255 0.000137008)
(0.000246202 0.000493918 0.000135233)
(-9.06702e-06 3.053e-05 8.06968e-06)
(-0.00026355 0.00168607 0.000223264)
(0.000301076 -0.000496887 0.000138239)
(-0.0165833 0.00990172 0.00173745)
(0.00155493 0.00232497 0.00402464)
(0.000332979 -0.000132478 0.000120071)
(-0.0121301 0.000447702 4.65854e-05)
(-0.000903285 0.000435179 0.000929255)
(-0.000273407 -0.0012421 0.00302141)
(3.94541e-05 -0.000186754 6.6094e-05)
(7.51677e-06 4.92221e-05 -0.00280592)
(-0.00240846 0.00371664 0.000144505)
(0.000396477 -0.000645215 0.000165681)
(0.000874821 -0.000605575 0.00346828)
(0.00088691 0.000830336 0.00313208)
(-0.000383843 -0.000716479 0.000138209)
(2.15052e-12 0.00039613 0.00109033)
(0.000651928 -4.52858e-08 0.00274478)
(6.01199e-05 -0.000227117 -1.91514e-05)
(-0.000173026 0.000349082 0.00325387)
(-0.000288718 -0.000502769 0.000167604)
(4.7709e-07 0.00165632 9.89046e-06)
(0.000534557 -6.18009e-05 0.00643039)
(5.9883e-06 0.00033615 0.0019529)
(-9.74864e-05 -0.000426334 0.00362985)
(3.50925e-05 1.77635e-05 0.00273376)
(-0.00139904 -0.000748369 0.000133094)
(5.93834e-05 -0.000458928 -5.9865e-06)
(5.91874e-05 5.48671e-06 -1.18601e-05)
(-0.000174831 0.000358606 0.00351493)
(1.58418e-06 0.00730946 -0.000446407)
(-0.000236928 -0.000109857 -3.50158e-06)
(0.000534557 -6.18009e-05 0.0046564)
(4.7709e-07 0.00165632 1.0959e-05)
(-0.000909992 0.000810554 0.00291908)
(4.61564e-05 0.000111618 -3.31895e-05)
(0.000124156 5.46416e-05 0.00259202)
(-0.000383843 -0.000716479 0.000147403)
(2.83282e-05 2.44755e-08 0.000577758)
(-0.000271733 0.000554049 0.000139975)
(-0.000730026 0.000516171 0.000156734)
(5.97235e-05 -0.000204871 1.69221e-07)
(0.00073296 -0.000900471 0.000119604)
(-0.000116261 5.63623e-10 0.00280006)
(-0.000341093 -0.000627707 0.0033742)
(0.000217777 0.000414958 0.000135684)
(-0.00157979 -0.00514153 0.000173504)
(0.00108077 0.00064168 0.000143196)
(-1.86717e-05 0.000215939 0.0019529)
(0.000641593 0.00069208 0.00357922)
(-0.000236928 -0.000109857 1.39788e-05)
(-4.29816e-05 -0.000221726 -3.51183e-07)
(-0.000388502 -7.74028e-05 1.28579e-05)
(0.00031858 -0.000596141 0.00343182)
(-0.000561353 -0.000391761 4.4433e-06)
(0.000135881 6.66415e-05 -6.65545e-06)
(0.000254621 0.00110402 0.00012858)
(-0.000223604 -0.000367557 0.00366526)
(-0.000295122 -0.000490613 0.000143758)
(0.00075574 0.00066469 0.00316244)
(-0.000298981 -1.81632e-05 4.6086e-06)
(-9.15632e-05 -0.000115373 4.85442e-06)
(-0.000454336 -0.00086286 0.0033742)
(5.26198e-05 0.00166219 0.000223264)
(0.000254621 0.00110402 0.000130515)
(0.000217777 0.000414958 0.000157385)
(-0.000271733 0.000554049 0.000138327)
(-0.000683399 0.000600878 0.00351159)
(-0.000596693 -0.000287404 0.00171069)
(-0.00154583 0.00074443 0.00319058)
(-0.0010071 -0.00156485 -0.000193415)
(0.000344219 -4.10843e-05 0.0040654)
(-0.000596693 -0.000287404 0.000133968)
(-0.000288718 -0.000502769 0.000155814)
(0.000776996 -0.000735656 0.00339113)
(0.000824959 0.00125122 0.000143691)
(0.0130021 -0.00180159 2.78341e-06)
(0.000305665 -0.000419802 0.00338656)
(0.00082552 0.00075496 0.000140473)
(-0.000709409 -0.00124807 0.000149639)
(0.000652546 0.000706093 0.00287482)
(0.00329981 -3.07802e-08 0.000651019)
(0.00231856 0.00281023 0.003667)
(4.7709e-07 0.00165632 0.000380594)
(-0.000355002 0.00134433 0.000118937)
(-0.0026667 -0.00522934 0.00359616)
(0.0130021 -0.00180159 0.000124623)
(-0.000787943 0.000379449 0.000134026)
(0.000269181 -8.08119e-05 5.05839e-06)
(-1.77042e-09 0.000156583 0.000136554)
(-0.000596693 -0.000287404 0.00013135)
(-0.00273701 -0.000670356 0.002661)
(0.000223467 -0.00106003 0.00226969)
(-0.00479929 -3.07802e-08 0.000651019)
(-0.000167074 0.000330672 0.000161658)
(0.000298027 -0.000626334 0.00339113)
(-2.43465e-05 4.11023e-05 -2.28309e-05)
(-0.000288718 -0.000502769 0.000136586)
(0.0112896 -0.00438 0.000280025)
(2.57882e-06 -0.000104512 8.611e-06)
(3.46335e-05 0.00031152 0.00280046)
(0.000859238 0.00115326 0.00325455)
(0.000787405 0.000655895 0.00363393)
(0.000292155 0.00112828 0.000142007)
(-0.000860344 -0.00109713 0.00330427)
(-0.000150543 0.000270569 0.00316073)
(-0.00015385 3.67246e-11 0.00233469)
(0.000217777 0.000414958 0.000142313)
(-0.000181434 -0.000304826 4.99648e-06)
(2.12105e-05 -4.84142e-07 0.000615699)
(0.00018338 0.00022139 0.00267285)
(-0.00287541 -0.00114032 0.00303087)
(-0.000991365 -0.000719916 0.00312033)
(0.00018835 -9.83738e-05 0.00294942)
(-0.000177958 -0.000362426 0.000143103)
(-0.000903285 0.000435179 0.000172583)
(-9.18091e-05 3.67246e-11 0.00122093)
(0.000454686 0.000284324 0.00201146)
(-1.77042e-09 0.000156583 2.45981e-05)
(0.00112566 0.00169212 0.00137566)
(0.000325367 -0.000610234 0.00343182)
(0.000954897 -0.000671755 0.0029931)
(-0.000596693 -0.000287404 0.000148269)
(0.00020616 0.000988953 0.00357598)
(-0.001485 -0.000226281 0.000137061)
(-4.31513e-05 -0.000121578 1.11891e-06)
(-0.00157979 -0.00514153 0.000161861)
(-0.00111152 -6.72806e-07 0.00118007)
(0.000765283 -0.000649321 0.00320342)
(-0.00179119 -0.0103341 0.00191701)
(0.00118012 0.00040574 0.000124024)
(-0.00125978 0.00088519 0.00320757)
(-0.00160209 -0.00421989 0.000856125)
(0.000217777 0.000414958 0.00123947)
(0.000649726 0.000813091 0.00342907)
(-0.000148512 -0.000211628 0.00366526)
(-0.000177958 -0.000362426 0.000135003)
(0.000748328 0.000798706 0.000338698)
(0.000121111 5.23031e-05 -0.0015706)
(0.00373416 0.000699449 0.00360281)
(0.000146598 0.00022064 0.00316049)
(-0.000292073 0.000856292 0.00336735)
(9.8898e-05 -0.000164762 -1.00177e-05)
(0.000933084 0.00078937 0.00320027)
(-0.00138289 -0.00284116 0.000262617)
(0.000341904 -0.000579256 0.000146347)
(0.000675389 -0.000789144 0.000141442)
(0.000941246 -0.000849824 0.00305292)
(-0.000596693 -0.000287404 0.000154665)
(0.000344219 -4.10843e-05 0.000168226)
(0.0130021 -0.00180159 0.000123534)
(0.000165769 3.04153e-05 1.8403e-05)
(-0.000596693 -0.000287404 0.000143793)
(-0.000383843 -0.000716479 0.00088768)
(4.7709e-07 0.00165632 0.000102924)
(-0.000946715 0.000471445 9.23669e-05)
(-0.00240846 0.00371664 0.000150832)
(9.99261e-05 -0.000456993 0.000656319)
(0.00116637 0.00253394 7.58607e-06)
(0.000217777 0.000414958 0.000153916)
(-1.58342e-05 -0.000264647 0.000131308)
(0.000414014 0.000423618 0.00339213)
(0.00477055 -0.00105334 0.000222863)
(0.000444212 -4.52858e-08 0.00274478)
(-0.000115574 -5.90515e-05 -2.96274e-07)
(0.0010155 -0.00121953 0.000144212)
(-0.000152729 0.000246348 0.0012531)
(-0.00125863 -0.000580343 0.00366136)
(-9.11933e-05 0.000171314 1.8403e-05)
(-0.000930088 -0.000848307 0.000708191)
(-0.000180703 -0.000127297 0.00370917)
(-6.09308e-05 8.22323e-05 4.13082e-05)
(0.000107171 1.59134e-09 0.000197418)
(-0.00128108 -0.000311036 -1.98928e-07)
(0.00102226 -8.59985e-08 0.000145864)
(0.000706179 -0.00107057 0.00336697)
(-0.000737825 0.000760583 0.00320757)
(0.000217777 0.000414958 0.000158359)
(-0.000778284 0.000724957 0.000143806)
(-0.00251755 0.00713613 0.00358335)
(-0.0011064 0.00061932 0.00255413)
(-0.000510262 0.000854887 0.00320668)
(7.79357e-09 2.4838e-05 0.00134789)
(0.00122964 -0.0028833 0.00311628)
(-0.000405967 0.000838565 0.00351493)
(0.0013535 -0.000322948 0.000133553)
(0.000152242 0.000171314 0.000109343)
(-0.00800095 -0.00190525 0.000347932)
(0.000772047 0.000730922 0.00313208)
(-0.000288718 -0.000502769 0.000175018)
(0.00102226 -8.59985e-08 0.00544377)
(-0.00011563 -5.57363e-05 0.00316786)
(0.00931494 -0.00143442 0.000368686)
(-0.000747405 0.000751003 0.00320757)
(0.000932157 -0.000694495 0.0029931)
(0.001248 1.22359e-05 0.000119839)
(0.000982971 -0.000693482 0.00312155)
(0.00082552 0.00075496 0.000378862)
(-0.000660569 -0.00152863 0.000124028)
(-0.000648017 -0.000323608 0.000140474)
(-0.000999169 0.000499239 0.000139728)
(0.00154197 0.003103 0.00159402)
(-0.00240846 0.00371664 0.000157361)
(1.25497e-06 1.32921e-09 0.00013722)
(-9.15632e-05 -0.000115373 4.90233e-06)
(-1.77042e-09 0.000156583 0.000818455)
(1.99495e-05 3.59432e-05 -0.00240635)
(1.30435e-05 8.6266e-05 1.2777e-05)
(-0.00247203 -0.00060685 1.26999e-05)
(-0.000151742 -0.000218335 0.00366526)
(-0.012205 0.00166307 0.000651019)
(0.000886795 0.00083031 0.00313208)
(0.00102226 -8.59985e-08 0.00541852)
(0.000861272 -0.000754891 0.00339113)
(0.00072513 0.000830302 0.000137611)
(-0.00018916 0.000321997 0.00313552)
(0.000809156 -4.52858e-08 0.00274478)
(0.000100384 -0.000167384 -1.00177e-05)
(-3.92248e-05 6.76243e-05 -2.43455e-07)
(-8.98962e-05 -1.69772e-05 0.00233469)
(-9.80642e-05 -3.45881e-05 -0.00223794)
(-0.000383843 -0.000716479 0.000134996)
(0.00107344 0.000200651 0.000859815)
(0.00645462 -0.00269585 0.00383978)
(0.00072513 0.000830302 0.000155689)
(0.000983072 -0.000693382 0.00312155)
(-0.00240846 0.00371664 0.00016106)
(0.000624929 0.000895208 5.48582e-05)
(-6.09308e-05 8.22323e-05 2.14606e-05)
(0.00154197 0.003103 0.000113486)
(-0.000860952 -0.00109653 0.00330427)
(-0.00233308 0.00961873 0.000452323)
(-0.000126051 -0.00071802 0.0033813)
(0.000955571 -0.000853094 0.00305292)
(-0.000288718 -0.000502769 0.00274482)
(-0.000730026 0.000516171 0.000157906)
(0.000397653 -0.000442543 0.00014954)
(0.000396477 -0.000645215 0.000159381)
(0.000341904 -0.000579256 0.000169793)
(4.7709e-07 0.00165632 0.000309602)
(4.7709e-07 0.00165632 0.000363603)
(-0.00150296 0.0172268 0.00254615)
(-1.77042e-09 0.000156583 0.000253974)
(-4.10922e-05 -4.39773e-05 -0.00147263)
(-0.00246679 0.00418298 0.00362424)
(-0.000271733 0.000554049 0.000152049)
(-0.001485 -0.000226281 0.00013553)
(0.00026178 -0.00150761 0.000127261)
(0.000886451 0.000830232 0.00313208)
(5.93834e-05 -0.000537004 -5.9865e-06)
(7.96248e-10 4.20037e-06 0.00107451)
(0.0107536 -0.0033905 0.00202336)
(6.13406e-07 -2.14204e-05 -4.19506e-05)
(-0.000991255 -0.000321018 0.000139186)
(-0.000596693 -0.000287404 0.000140499)
(-0.000184836 -0.000458247 0.000168392)
(0.000211507 -4.52858e-08 0.000365424)
(-0.000276993 -0.000452967 0.00318018)
(0.000301076 -0.000496887 0.000139434)
(-0.000547653 0.00154677 0.000134026)
(-4.54156e-05 -2.98684e-05 0.000134037)
(-0.000202207 0.000415453 0.00351493)
(-3.66281e-05 -4.676e-05 0.00209217)
(0.000246202 0.000493918 0.000910115)
(-0.000787943 0.000379449 0.000136334)
(-0.00222482 0.00380508 0.00355712)
(-0.000903285 0.000435179 0.0020002)
(4.7709e-07 0.0025434 0.000223264)
(-2.99761e-05 -1.44874e-05 0.00316786)
(-8.40498e-05 5.25738e-05 -9.08278e-08)
(1.22913e-05 8.19076e-06 2.18306e-06)
(0.0107768 0.00262776 0.000610953)
(-0.000113556 5.2046e-05 0.00239623)
(-2.8298e-06 -2.37831e-06 9.68305e-06)
(-9.82986e-05 -5.53355e-05 0.00316073)
(-0.000903285 0.000435179 0.000174894)
(0.000773472 0.000646958 0.00316244)
(-0.000497913 -0.000953349 0.0033742)
(-0.00186883 -0.0102901 0.00376711)
(9.58061e-05 5.26187e-05 -2.69717e-07)
(0.000549755 -0.00106285 0.00291963)
(0.000116327 0.00039754 0.00358373)
(-1.77042e-09 0.000156583 2.25725e-05)
(-0.000355002 0.00134433 0.000130582)
(-0.00155297 0.000167578 0.000126343)
(-0.000333866 -0.000254116 0.00206909)
(0.00049222 -0.000750836 5.31114e-05)
(0.000292155 0.00112828 0.000156933)
(0.000341904 -0.000579256 0.000139106)
(0.000903351 -0.000841175 0.00305292)
(-0.0113413 -0.00445727 0.000240013)
(0.0114828 -0.00265408 3.40155e-05)
(-1.77042e-09 0.000156583 0.00075801)
(-0.001485 -0.000226281 0.000136637)
(-0.00287882 -0.00113323 0.00303087)
(0.000246202 0.000493918 0.000129637)
(-0.00118332 -0.00100588 0.00302141)
(0.000432357 0.00181382 0.0037276)
(-0.000115574 -5.90515e-05 -3.19143e-07)
(0.000899474 -0.00084029 0.00305292)
(0.00123244 7.93226e-05 0.000105154)
(0.000306862 -0.000571808 0.000139733)
(-0.000982711 -0.00072857 0.00312033)
(-0.000152729 0.000246348 0.000150801)
(0.000774508 -0.000230979 9.26542e-05)
(-0.00342657 -0.00342967 -0.000665761)
(0.00160176 0.000718503 0.00263321)
(-4.93361e-05 -4.3232e-06 7.00538e-06)
(7.96248e-10 4.20037e-06 0.000233244)
(-0.000991255 -0.000321018 0.000148341)
(0.000386594 -4.52858e-08 0.00274478)
(0.000341904 -0.000579256 0.000164279)
(0.000301076 -0.000496887 0.000122355)
(-0.000134473 5.63623e-10 0.000962097)
(1.40899e-08 -7.71534e-05 0.00387891)
(-0.00281522 -0.0012653 0.000122937)
(0.00795074 0.00241699 0.000181914)
(-0.0165833 0.00990172 0.0023055)
(0.000547234 -0.000450952 0.00311628)
(0.000345973 -0.000637278 0.00339113)
(4.7709e-07 0.00230254 0.000223264)
(-0.000415831 -0.000766721 0.00366526)
(-0.000101228 5.85846e-05 -2.18884e-06)
(0.000662477 -0.000392536 0.00339113)
(0.000824959 0.00125122 0.000854482)
(0.00102226 -8.59985e-08 0.0063781)
(7.43485e-05 -0.000210744 5.04066e-07)
(-0.000149632 3.67246e-11 0.00233469)
(-0.00187473 0.000603586 0.00371385)
(0.000922016 0.0022643 0.00283191)
(0.000144579 1.26697e-05 0.00179423)
(0.000410396 -0.00013084 0.00314924)
(0.000483471 0.000346529 3.13661e-06)
(-0.00197827 -0.000921706 0.00143582)
(-0.00837326 7.0496e-05 0.00271719)
(-4.31513e-05 -0.000121578 1.11948e-06)
(-0.0125485 0.00641529 0.000511973)
(0.00108077 0.00064168 0.000142609)
(-0.000181434 -0.000304826 6.33854e-06)
(0.000748328 0.000798706 0.00437746)
(-0.000134473 5.63623e-10 0.000579859)
(-0.000265665 0.000547226 0.000146475)
(0.00114537 -6.18009e-05 0.00357106)
(0.00073296 -0.000900471 0.000116649)
(-0.00268746 -0.00070359 0.00237331)
(0.000169356 0.000334347 0.00323884)
(0.000415666 -0.000732425 0.00362071)
(-0.000265665 0.000547226 0.00172487)
(-2.63095e-10 0.000114947 0.00273376)
(0.00140885 0.00316711 0.00314924)
(-0.00458624 0.0156743 0.00363499)
(0.000753889 0.000782813 0.00313208)
(0.000371191 -4.29338e-05 0.00193838)
(-0.000911105 0.000809442 0.00291908)
(-3.72535e-07 2.41781e-06 -1.46774e-10)
(-0.000348919 0.000168211 0.00366136)
(-0.000397911 -0.000152292 8.855e-05)
(-0.0011521 -3.07802e-08 0.000651019)
(0.00134633 0.00283261 0.00149853)
(-0.000122802 1.32769e-05 -5.25864e-07)
(-0.000326177 5.41982e-05 8.855e-05)
(0.000897678 0.00227602 0.00283191)
(0.000303935 0.000615011 0.000160499)
(0.000116024 0.000966131 0.00028174)
(8.81958e-05 -3.11035e-05 1.55605e-05)
(0.00108077 0.00064168 0.00012325)
(0.00194049 -0.000858984 0.00243097)
(-0.000271733 0.000554049 0.000133792)
(-2.78111e-05 1.77507e-05 0.000858517)
(-0.00251556 -5.25017e-05 0.00335099)
(-0.000903285 0.000435179 0.000171995)
(0.00104693 0.000563835 9.19155e-05)
(-0.000903285 0.000435179 0.000173662)
(-0.00838482 8.117e-05 0.00357275)
(0.00561799 -0.00180159 6.38844e-05)