/*--------------------------------*- C++ -*----------------------------------*\
| =========                 |                                                 |
| \\      /  F ield         | OpenFOAM: The Open Source CFD Toolbox           |
|  \\    /   O peration     | Version:  plus.master.MPPICInterFoam            |
|   \\  /    A nd           | Web:      www.OpenFOAM.com                      |
|    \\/     M anipulation  |                                                 |
\*---------------------------------------------------------------------------*/
FoamFile
{
    version     2.0;
    format      ascii;
    class       volScalarField;
    location    "12.8";
    object      epsilon;
}
// * * * * * * * * * * * * * * * * * * * * * * * * * * * * * * * * * * * * * //

dimensions      [0 2 -3 0 0 0 0];

internalField   nonuniform List<scalar> 
11821
(
0.430926
0.588317
0.407977
0.680126
0.500288
0.353343
0.501736
0.551438
0.547916
0.495159
0.414886
0.330275
0.253621
0.722813
0.792176
0.788122
0.698611
0.563764
0.430772
0.320114
0.816498
0.823852
0.875973
0.880351
0.727132
0.535907
0.383969
0.733609
0.75331
0.782836
0.887789
0.853293
0.61838
0.43045
0.658003
0.668095
0.730397
0.842126
0.872222
0.644534
0.443881
0.758291
0.656114
0.729479
0.856462
0.843439
0.608309
0.42059
0.826398
0.819624
0.826801
0.842262
0.702382
0.514892
0.365007
0.503604
0.556395
0.553384
0.500897
0.423094
0.341424
0.265901
0.722524
0.806731
0.793695
0.697371
0.56551
0.438623
0.331533
0.872024
0.911763
0.948676
0.893741
0.723135
0.539579
0.39369
0.831175
0.706367
0.829101
0.965274
0.854717
0.620584
0.439003
0.701291
0.683165
0.778432
0.914354
0.886513
0.64519
0.451469
0.846644
0.713404
0.802684
0.925352
0.838556
0.607431
0.427942
0.852718
0.85549
0.869453
0.84515
0.692585
0.515859
0.373307
0.494478
0.546006
0.544823
0.497504
0.426073
0.348589
0.274538
0.693043
0.782931
0.772917
0.679332
0.55895
0.44139
0.338741
0.892996
0.970101
0.992447
0.887502
0.704201
0.535062
0.398001
0.908708
0.865733
1.00605
1.03474
0.831029
0.608645
0.440315
0.823431
0.732564
0.810699
1.03803
0.871706
0.630927
0.451833
0.888018
0.842796
0.931559
0.974045
0.808461
0.593015
0.428852
0.844801
0.902807
0.917852
0.828277
0.668513
0.50968
0.377116
0.488223
0.536287
0.535474
0.492696
0.426471
0.352302
0.279579
0.670473
0.757264
0.747386
0.662681
0.551902
0.441492
0.342302
0.876103
1.01465
1.00786
0.867119
0.687236
0.529187
0.398891
0.946977
0.973472
1.0736
1.05236
0.804527
0.596523
0.438539
0.917325
0.761841
0.961387
1.09692
0.847206
0.618037
0.449724
0.923111
0.87971
0.990019
0.999552
0.782195
0.58258
0.42814
0.808887
0.919127
0.913203
0.811814
0.654857
0.505973
0.379086
0.489291
0.533522
0.531843
0.491064
0.42699
0.354165
0.282238
0.662645
0.738008
0.728464
0.651306
0.547505
0.441015
0.343763
0.846953
0.981259
0.960388
0.836984
0.673971
0.52501
0.398774
0.944245
0.9053
1.09512
1.0009
0.780735
0.5884
0.437023
0.91187
0.769334
0.945458
1.06729
0.822111
0.609666
0.448156
0.857133
0.904258
0.974787
0.967145
0.767473
0.578041
0.427826
0.784155
0.875521
0.886431
0.798941
0.651013
0.505518
0.380187
0.495434
0.538399
0.534791
0.492945
0.428445
0.35558
0.283936
0.674032
0.740984
0.7284
0.650975
0.547592
0.441376
0.344651
0.836651
0.90191
0.928405
0.825094
0.671344
0.524126
0.39885
0.830589
0.855993
0.94584
0.961319
0.773664
0.586339
0.436477
0.806477
0.804569
0.853059
0.963484
0.811062
0.60749
0.447517
0.824887
0.822382
0.866605
0.939647
0.766741
0.578203
0.427687
0.769421
0.800461
0.838639
0.790174
0.652919
0.506065
0.38043
0.50015
0.543671
0.538606
0.495464
0.42989
0.356476
0.284909
0.680293
0.747781
0.731055
0.652914
0.548655
0.441697
0.345069
0.810567
0.862443
0.896027
0.821526
0.67137
0.524097
0.398947
0.793106
0.851014
0.904589
0.924532
0.771181
0.586016
0.43639
0.688916
0.758323
0.88152
0.915507
0.806158
0.606963
0.44725
0.746287
0.730508
0.855843
0.892182
0.765123
0.577503
0.427406
0.766199
0.792787
0.821472
0.784353
0.650488
0.505062
0.380353
0.501885
0.546394
0.540723
0.496138
0.429409
0.355752
0.284421
0.684594
0.756849
0.737025
0.654694
0.547858
0.440324
0.343978
0.836473
0.907403
0.927355
0.828968
0.671558
0.522546
0.397521
0.83945
0.810727
0.966697
0.955184
0.774872
0.585087
0.435062
0.735164
0.734285
0.856002
0.961938
0.812591
0.606051
0.445937
0.788697
0.744936
0.884328
0.915597
0.765033
0.575457
0.425951
0.773057
0.804914
0.841237
0.785623
0.647581
0.502758
0.379157
0.497869
0.541874
0.535904
0.491344
0.425074
0.352109
0.281636
0.677563
0.750638
0.731024
0.648152
0.541691
0.435203
0.34007
0.848688
0.93176
0.947272
0.826148
0.663958
0.515987
0.392623
0.854988
0.863169
1.01044
0.976701
0.767544
0.577613
0.429575
0.773221
0.808564
0.892681
0.998684
0.806851
0.598617
0.440467
0.777866
0.793373
0.931775
0.941482
0.757261
0.568289
0.420948
0.767906
0.828706
0.858133
0.786991
0.640798
0.497064
0.375188
0.490873
0.532809
0.52613
0.482464
0.417627
0.346011
0.276941
0.666782
0.736065
0.715026
0.634949
0.531269
0.427029
0.333835
0.844296
0.940629
0.930235
0.807815
0.649966
0.505559
0.384977
0.855956
0.927189
1.03287
0.95361
0.748454
0.565025
0.420901
0.821538
0.731197
0.963771
0.978902
0.786122
0.585635
0.431742
0.814106
0.815726
0.936373
0.936226
0.741815
0.557151
0.413108
0.743857
0.825559
0.846561
0.774373
0.629928
0.488374
0.368838
0.483589
0.52331
0.51593
0.47269
0.408838
0.338609
0.271176
0.655446
0.718371
0.698326
0.62071
0.51949
0.417462
0.326371
0.821914
0.89939
0.894941
0.786056
0.634702
0.493917
0.376096
0.842521
0.867483
1.0033
0.9191
0.729858
0.551833
0.411149
0.756051
0.776028
0.943097
0.949252
0.766671
0.572385
0.422017
0.800535
0.792686
0.911264
0.907639
0.725256
0.545065
0.404135
0.728367
0.806318
0.824621
0.756087
0.61679
0.478293
0.361263
0.476921
0.515553
0.506737
0.462929
0.399542
0.330632
0.265024
0.647193
0.709653
0.687238
0.608382
0.507544
0.407147
0.31845
0.804813
0.876038
0.880962
0.772148
0.620708
0.48175
0.366785
0.820756
0.890609
0.947
0.906232
0.715297
0.538795
0.401139
0.740232
0.771983
0.904421
0.936699
0.752453
0.559479
0.412039
0.748177
0.762402
0.884763
0.888528
0.71015
0.532717
0.394831
0.713041
0.779349
0.805563
0.74011
0.603412
0.467565
0.353288
0.468804
0.506357
0.496515
0.452291
0.38956
0.322294
0.258673
0.636503
0.699576
0.674589
0.59442
0.494416
0.396289
0.310254
0.782984
0.860056
0.866238
0.754665
0.60483
0.468738
0.357085
0.785195
0.817777
0.932658
0.887353
0.698542
0.52471
0.390629
0.696556
0.73868
0.869512
0.920521
0.735972
0.545427
0.401541
0.709229
0.74232
0.866271
0.866645
0.694185
0.519659
0.385107
0.693291
0.757184
0.791605
0.726301
0.590406
0.456522
0.345005
0.458299
0.49382
0.483104
0.439243
0.378213
0.313291
0.252043
0.62372
0.683645
0.656777
0.576438
0.478949
0.384267
0.301555
0.762784
0.836124
0.845419
0.732079
0.585176
0.453834
0.346536
0.757462
0.797489
0.919533
0.857726
0.675641
0.507754
0.378876
0.727922
0.722086
0.843225
0.882162
0.711497
0.527938
0.389614
0.69229
0.719004
0.841081
0.837346
0.673563
0.503977
0.374148
0.672099
0.73433
0.773631
0.707653
0.574443
0.443699
0.335815
0.444233
0.47679
0.465766
0.42386
0.365892
0.304071
0.245471
0.603637
0.657048
0.629255
0.55298
0.461048
0.371468
0.292771
0.73765
0.808234
0.808544
0.699129
0.560948
0.437245
0.335591
0.735545
0.759138
0.8803
0.818867
0.646001
0.48819
0.366363
0.661934
0.695418
0.840325
0.839555
0.680729
0.507648
0.376746
0.680402
0.692556
0.811672
0.802316
0.646084
0.485542
0.362295
0.652393
0.701471
0.742881
0.681437
0.553416
0.428812
0.325974
0.42903
0.458886
0.448489
0.40927
0.354603
0.295738
0.239489
0.578076
0.624153
0.599322
0.529485
0.444182
0.359823
0.28483
0.705224
0.756742
0.760727
0.66312
0.537095
0.421836
0.325654
0.710725
0.760806
0.816919
0.771799
0.615413
0.46954
0.354866
0.626608
0.696425
0.787218
0.786745
0.647412
0.487903
0.364788
0.640076
0.667817
0.77565
0.760727
0.617261
0.467567
0.351196
0.624464
0.677928
0.709585
0.650627
0.53145
0.41427
0.316701
0.0482767
0.0677886
0.137182
0.100856
0.0753585
0.0583759
0.0498455
0.0670915
0.290656
0.208779
0.150543
0.109278
0.0804474
0.0612546
0.0512401
0.0669153
0.299942
0.216118
0.156184
0.113432
0.083368
0.0632505
0.0526647
0.068232
0.284958
0.209226
0.153832
0.113393
0.084427
0.0649098
0.0551492
0.0752637
0.254229
0.194471
0.147396
0.111408
0.0849434
0.0670346
0.0590562
0.0864485
0.187455
0.146611
0.114471
0.0897047
0.0713051
0.0588277
0.0539547
0.0810355
0.231045
0.17387
0.131502
0.100144
0.0774469
0.0621513
0.0552595
0.0793048
0.273554
0.201696
0.149289
0.111187
0.0840117
0.0657569
0.0567867
0.0782021
0.304417
0.222317
0.162856
0.119869
0.0893437
0.068826
0.0583092
0.0780388
0.31332
0.229483
0.168501
0.124144
0.0924542
0.0710613
0.0600347
0.0800774
0.298347
0.222448
0.16605
0.124119
0.0936459
0.0729725
0.0629405
0.0882297
0.267051
0.20708
0.1592
0.121982
0.0942357
0.0753666
0.067377
0.100996
0.199447
0.157449
0.123973
0.0979433
0.07851
0.0653747
0.0606276
0.0925293
0.243398
0.185302
0.14152
0.108732
0.0848146
0.068676
0.0617083
0.0901082
0.285534
0.213282
0.1596
0.120037
0.0915539
0.0723485
0.0631777
0.0886245
0.315865
0.233823
0.173284
0.128898
0.0970677
0.0755803
0.0648154
0.0884198
0.324413
0.240875
0.178965
0.133294
0.100366
0.0780572
0.0668646
0.0912486
0.309401
0.233759
0.176493
0.133337
0.101731
0.08026
0.0702206
0.10045
0.278189
0.218212
0.169522
0.131218
0.102489
0.0829834
0.0752329
0.114746
0.208084
0.165564
0.131344
0.104568
0.084508
0.071008
0.0665735
0.103007
0.251775
0.193504
0.149058
0.115489
0.090854
0.0742265
0.0674052
0.0998725
0.292864
0.221166
0.167104
0.126855
0.0976588
0.0779205
0.0687965
0.0979659
0.322007
0.24126
0.180667
0.135749
0.103283
0.0812878
0.0705538
0.0977432
0.330176
0.248166
0.186332
0.14023
0.106759
0.0840343
0.0729905
0.101526
0.315483
0.241183
0.183946
0.140398
0.108343
0.0865777
0.0768568
0.111826
0.285266
0.225968
0.177116
0.138418
0.109329
0.0896793
0.0825
0.127656
0.213708
0.171237
0.136812
0.109727
0.0893631
0.0757106
0.0716811
0.112309
0.256765
0.198945
0.154478
0.12065
0.095681
0.0788232
0.072274
0.108533
0.29663
0.226049
0.172302
0.131964
0.1025
0.0825263
0.0736131
0.106307
0.324582
0.245578
0.185635
0.140828
0.108211
0.086038
0.0755279
0.106203
0.332555
0.252363
0.191265
0.145389
0.111884
0.0890931
0.0784197
0.111106
0.318512
0.245654
0.189027
0.145734
0.113742
0.092021
0.0828253
0.12252
0.289315
0.230837
0.182388
0.143931
0.114995
0.0955442
0.0891486
0.139959
0.217451
0.175282
0.140924
0.113757
0.0932631
0.0795754
0.0759736
0.120403
0.259846
0.202686
0.158472
0.124628
0.09952
0.0825704
0.0763391
0.116077
0.298758
0.22928
0.176078
0.135884
0.106348
0.0862895
0.0776566
0.113671
0.325892
0.248377
0.189238
0.144746
0.112173
0.0899717
0.0797675
0.11386
0.333786
0.255098
0.194862
0.149447
0.116097
0.0933614
0.0831268
0.119926
0.320362
0.248659
0.192824
0.150042
0.118275
0.0966925
0.0880688
0.132456
0.291772
0.234072
0.186358
0.148446
0.119835
0.100666
0.09508
0.151538
0.220143
0.17826
0.144017
0.116851
0.0963182
0.0826673
0.0794834
0.127257
0.262016
0.205399
0.161436
0.127646
0.102494
0.0855367
0.0796374
0.122478
0.300268
0.231625
0.178888
0.138875
0.109341
0.0892734
0.0809391
0.119929
0.326879
0.250439
0.191994
0.14783
0.115315
0.0931265
0.0832435
0.120476
0.334659
0.257126
0.197761
0.152745
0.119509
0.0968453
0.0870556
0.127702
0.321561
0.250967
0.196001
0.153635
0.122023
0.100567
0.0924932
0.141263
0.293264
0.23664
0.189725
0.152287
0.123924
0.10499
0.100145
0.16188
0.221917
0.180246
0.14612
0.119009
0.0985229
0.0849855
0.0822127
0.132709
0.263417
0.207167
0.163405
0.129699
0.10459
0.0877164
0.0821588
0.127487
0.301325
0.233196
0.180765
0.140891
0.111429
0.091453
0.0834449
0.124826
0.327746
0.251964
0.193908
0.149939
0.117533
0.0954703
0.0859774
0.126013
0.335514
0.258778
0.199858
0.155075
0.121979
0.0994815
0.090179
0.134187
0.322685
0.252877
0.198368
0.156257
0.124809
0.103553
0.0960459
0.148631
0.294624
0.23872
0.192318
0.155199
0.127057
0.108388
0.104251
0.170526
0.222156
0.180833
0.147002
0.120137
0.0998662
0.0865584
0.0841982
0.136712
0.263182
0.207411
0.164038
0.13064
0.10578
0.0891399
0.0839606
0.131136
0.300708
0.233142
0.181197
0.141714
0.112562
0.0928569
0.0852402
0.128436
0.327024
0.251829
0.194311
0.150791
0.118752
0.0970237
0.0880446
0.130592
0.334889
0.258784
0.200422
0.156106
0.123398
0.101266
0.0925387
0.139378
0.322292
0.253159
0.199213
0.157562
0.126503
0.105631
0.0987621
0.154536
0.294551
0.23933
0.193482
0.15682
0.129075
0.110822
0.107426
0.177428
0.220523
0.179926
0.1467
0.12033
0.100459
0.087497
0.0855651
0.139543
0.260702
0.205913
0.163332
0.130556
0.106173
0.0899144
0.0851582
0.133695
0.29745
0.231096
0.180133
0.141419
0.112848
0.0935932
0.086443
0.131059
0.32333
0.249496
0.193084
0.150437
0.119068
0.0978792
0.0895146
0.134239
0.33125
0.256528
0.199289
0.155866
0.123856
0.102295
0.0942308
0.143448
0.319125
0.251276
0.198373
0.157569
0.127192
0.106902
0.100746
0.159179
0.292115
0.237968
0.193031
0.157139
0.130045
0.112389
0.109786
0.182829
0.217433
0.177886
0.145518
0.119827
0.100482
0.0879405
0.0864404
0.141526
0.256467
0.203098
0.161637
0.129719
0.105972
0.0901929
0.0858852
0.135493
0.292171
0.227559
0.177973
0.140308
0.112509
0.093832
0.0872243
0.13323
0.317382
0.245526
0.190665
0.1492
0.118709
0.0981885
0.0904875
0.137107
0.325303
0.252575
0.196905
0.154691
0.12359
0.102731
0.0953739
0.146639
0.313794
0.247737
0.196274
0.156608
0.127114
0.107533
0.102128
0.16284
0.287748
0.235038
0.191328
0.156461
0.130204
0.113261
0.111478
0.187106
0.21355
0.175209
0.143819
0.118896
0.100141
0.0880738
0.0870688
0.143471
0.251322
0.199581
0.159392
0.128434
0.105392
0.0901338
0.0862814
0.136818
0.285917
0.223266
0.175225
0.138723
0.111776
0.0937331
0.0877205
0.135245
0.31046
0.240768
0.187621
0.147455
0.117916
0.0981044
0.0910634
0.139367
0.318383
0.247809
0.193862
0.15297
0.122851
0.102733
0.0960751
0.149153
0.307469
0.243367
0.19349
0.15507
0.126528
0.107689
0.103021
0.165747
0.28238
0.231259
0.188914
0.155172
0.129815
0.113613
0.112623
0.190576
0.209371
0.172257
0.141858
0.117708
0.0995476
0.0879624
0.0874718
0.145349
0.245875
0.195797
0.156894
0.126901
0.104573
0.0898554
0.08651
0.138269
0.279377
0.218718
0.172229
0.136888
0.110788
0.0933744
0.0879343
0.136833
0.303296
0.235763
0.184323
0.145444
0.116846
0.0977277
0.0913057
0.141063
0.311219
0.242782
0.190544
0.150958
0.121807
0.102411
0.0964072
0.151048
0.300879
0.238714
0.190406
0.153214
0.125606
0.107487
0.103503
0.167961
0.276705
0.227166
0.186174
0.153539
0.129057
0.113562
0.113295
0.193289
0.205016
0.169137
0.139719
0.116326
0.098744
0.0876196
0.0875904
0.146628
0.240235
0.191851
0.15423
0.125187
0.103559
0.0893712
0.0865112
0.139383
0.272609
0.214
0.169068
0.134873
0.109602
0.0927977
0.087887
0.137907
0.295856
0.23056
0.180843
0.14324
0.115562
0.0971149
0.0912633
0.142195
0.303751
0.237526
0.187019
0.148731
0.120528
0.101829
0.0964246
0.152326
0.294002
0.23382
0.187091
0.151117
0.124422
0.106993
0.10363
0.169474
0.27078
0.222839
0.183193
0.151645
0.128011
0.113181
0.11355
0.195174
0.200484
0.165881
0.137443
0.114793
0.0977766
0.0870951
0.0874797
0.147391
0.234346
0.187757
0.151435
0.123334
0.102393
0.0887197
0.0863068
0.140044
0.265462
0.209092
0.165769
0.132719
0.108263
0.0920508
0.0876306
0.138522
0.287877
0.2251
0.1772
0.140883
0.114115
0.0963196
0.0909959
0.142836
0.295648
0.231959
0.183297
0.146331
0.119067
0.101044
0.0961908
0.153064
0.286518
0.228593
0.183554
0.148822
0.123033
0.10627
0.103468
0.17036
0.264365
0.218199
0.179979
0.149535
0.126736
0.112541
0.113472
0.196275
0.195997
0.162631
0.135129
0.11319
0.0967176
0.0864615
0.0872224
0.147771
0.228509
0.1837
0.148628
0.121427
0.101145
0.0879681
0.0859674
0.140348
0.2583
0.204225
0.162472
0.130518
0.106844
0.0912018
0.0872359
0.138778
0.279758
0.219647
0.173552
0.138478
0.112581
0.0954111
0.0905756
0.143091
0.287305
0.226347
0.179545
0.143865
0.117504
0.100128
0.0957805
0.153368
0.27877
0.223285
0.179959
0.146442
0.121523
0.105393
0.103098
0.170741
0.257728
0.213456
0.176682
0.147321
0.125323
0.111728
0.113154
0.196725
0.191807
0.159525
0.132866
0.111588
0.095632
0.0857839
0.0868979
0.147958
0.223135
0.179876
0.145914
0.119539
0.09988
0.0871765
0.0855609
0.140447
0.251747
0.19968
0.159314
0.128356
0.105412
0.0903117
0.0867697
0.138815
0.272316
0.214569
0.17007
0.136119
0.111032
0.0944545
0.0900732
0.143098
0.279608
0.221103
0.175959
0.14144
0.115915
0.0991496
0.0952703
0.153376
0.271553
0.218283
0.176498
0.144084
0.11997
0.104437
0.102605
0.170767
0.251478
0.208943
0.173482
0.145109
0.123854
0.110821
0.112693
0.196702
0.670319
0.537346
0.406162
0.303276
0.227648
0.177624
0.158779
0.254117
0.752074
0.649954
0.482533
0.350079
0.25403
0.190311
0.161999
0.24631
0.774058
0.700786
0.520119
0.370753
0.263466
0.192377
0.158493
0.231593
0.77375
0.669699
0.489168
0.347802
0.246553
0.179244
0.146352
0.210058
0.719891
0.55603
0.404943
0.291071
0.209384
0.154746
0.128358
0.185481
0.551897
0.413715
0.305559
0.22499
0.166541
0.127147
0.109272
0.163357
0.382442
0.293201
0.22362
0.170309
0.130755
0.10408
0.0938542
0.147993
0.673287
0.534813
0.40876
0.309876
0.236258
0.187025
0.169357
0.274727
0.783906
0.650656
0.484217
0.355917
0.262204
0.199332
0.171989
0.265113
0.800162
0.710535
0.52365
0.377423
0.271988
0.201378
0.168123
0.249051
0.816552
0.674791
0.493595
0.355288
0.255411
0.188247
0.155797
0.226765
0.72739
0.556905
0.409983
0.299097
0.218302
0.163581
0.137551
0.201644
0.552677
0.418136
0.313381
0.234073
0.175539
0.135702
0.118102
0.179019
0.388235
0.301254
0.232697
0.179318
0.139205
0.11204
0.102183
0.163049
0.651861
0.517979
0.404284
0.312391
0.242139
0.194599
0.178768
0.292412
0.798092
0.623667
0.472495
0.354726
0.266207
0.205876
0.18066
0.280993
0.853842
0.682759
0.508595
0.374634
0.275094
0.207338
0.176295
0.263613
0.836034
0.649092
0.482352
0.354343
0.259304
0.194478
0.163968
0.241114
0.70533
0.540314
0.406187
0.30185
0.223848
0.170438
0.145803
0.216097
0.538237
0.414979
0.316724
0.24004
0.182359
0.14292
0.126264
0.193441
0.388197
0.306022
0.23932
0.186333
0.146187
0.119098
0.110072
0.17721
0.628912
0.506992
0.402193
0.314983
0.247172
0.201323
0.187743
0.309811
0.766036
0.599215
0.46318
0.353656
0.269347
0.211629
0.189104
0.297411
0.842325
0.652591
0.495207
0.371098
0.276872
0.212389
0.184327
0.279102
0.810683
0.623485
0.471549
0.352082
0.261706
0.199791
0.171969
0.256361
0.682595
0.527708
0.402711
0.303395
0.228094
0.176464
0.153802
0.231102
0.528703
0.413347
0.319326
0.244608
0.187968
0.149381
0.13413
0.208094
0.388955
0.309865
0.244394
0.191924
0.152153
0.125563
0.117728
0.191503
0.622283
0.509539
0.406022
0.319317
0.252337
0.207758
0.196477
0.328358
0.741169
0.594677
0.464592
0.356723
0.273799
0.217722
0.197681
0.316005
0.807588
0.642116
0.493628
0.372618
0.280584
0.218205
0.19277
0.297268
0.787041
0.615641
0.470426
0.353864
0.265664
0.205713
0.180252
0.273852
0.673335
0.526589
0.404598
0.306837
0.23294
0.182618
0.161777
0.247487
0.529425
0.416621
0.323399
0.24936
0.193432
0.155624
0.141785
0.223479
0.392733
0.314197
0.249093
0.197074
0.157781
0.131743
0.12514
0.206228
0.628679
0.517943
0.411063
0.323578
0.25712
0.213645
0.204455
0.346724
0.709109
0.606564
0.471569
0.361751
0.278979
0.223842
0.205721
0.334732
0.743861
0.651546
0.500951
0.37792
0.286072
0.224584
0.200911
0.315906
0.766218
0.624299
0.476642
0.359074
0.271282
0.212121
0.188191
0.291556
0.679097
0.534242
0.410251
0.312102
0.238551
0.188822
0.169258
0.263674
0.538225
0.422939
0.328661
0.254594
0.198992
0.161616
0.14888
0.238446
0.398332
0.319065
0.253982
0.202256
0.163261
0.137558
0.131985
0.220453
0.627889
0.518386
0.412261
0.325865
0.26064
0.218408
0.211089
0.362583
0.711977
0.608483
0.474096
0.364907
0.283056
0.228892
0.212355
0.350453
0.734434
0.654243
0.504652
0.38213
0.290915
0.230085
0.207684
0.331451
0.747807
0.626253
0.481017
0.363958
0.276523
0.217747
0.194846
0.306383
0.679328
0.539049
0.415217
0.317091
0.2437
0.194234
0.175583
0.277403
0.543717
0.427956
0.333465
0.259447
0.203985
0.166832
0.154958
0.251394
0.40314
0.323641
0.258647
0.207046
0.16813
0.142616
0.137901
0.232931
0.623896
0.511875
0.409238
0.325606
0.262391
0.221675
0.216142
0.375021
0.719653
0.601809
0.470176
0.364366
0.284744
0.232101
0.217235
0.362231
0.751528
0.648306
0.500787
0.382073
0.29308
0.233576
0.212569
0.342764
0.761875
0.624944
0.480542
0.365569
0.279386
0.221462
0.199757
0.317352
0.684034
0.539626
0.416804
0.319667
0.246938
0.198056
0.180437
0.287982
0.545573
0.42987
0.336079
0.262561
0.207487
0.170758
0.159804
0.261792
0.40556
0.326411
0.261763
0.210422
0.171748
0.146575
0.142739
0.243209
0.613114
0.502251
0.404125
0.323631
0.262556
0.223452
0.219662
0.384232
0.725189
0.589372
0.462891
0.361209
0.284248
0.233503
0.220525
0.370893
0.769146
0.633458
0.493156
0.378886
0.292535
0.234926
0.215841
0.351052
0.769271
0.617186
0.475989
0.363791
0.279516
0.223136
0.2031
0.325498
0.680662
0.535214
0.414699
0.3193
0.247896
0.200181
0.183951
0.296171
0.541482
0.427957
0.335792
0.263399
0.209221
0.173326
0.163509
0.270112
0.404137
0.326309
0.262612
0.212001
0.173952
0.14941
0.146577
0.251592
0.598895
0.493142
0.398614
0.320512
0.261355
0.223915
0.221891
0.390927
0.708586
0.575337
0.455072
0.356709
0.282178
0.233498
0.222586
0.377593
0.760994
0.62353
0.4857
0.374194
0.290219
0.234775
0.217926
0.357824
0.763088
0.609041
0.469531
0.359695
0.27767
0.223343
0.205334
0.332213
0.67279
0.528497
0.41018
0.316769
0.247169
0.201056
0.186471
0.302991
0.534994
0.423739
0.333376
0.262478
0.209587
0.174831
0.16631
0.277058
0.400341
0.32414
0.261713
0.212169
0.175034
0.151331
0.149588
0.258616
0.586887
0.485337
0.392278
0.316145
0.258983
0.223376
0.2232
0.396171
0.684828
0.565897
0.447157
0.351077
0.279004
0.232567
0.223801
0.383222
0.735106
0.612881
0.477467
0.368198
0.286871
0.233863
0.219245
0.363831
0.74836
0.598155
0.461318
0.354241
0.274858
0.22279
0.206843
0.33821
0.661424
0.520285
0.404316
0.313162
0.245601
0.201204
0.188268
0.308971
0.527535
0.418403
0.329859
0.260607
0.209146
0.175611
0.168391
0.283044
0.395589
0.320929
0.259846
0.211483
0.17536
0.15256
0.151908
0.264645
0.575698
0.475688
0.384751
0.311004
0.256016
0.222265
0.22387
0.400684
0.665592
0.554858
0.438023
0.344809
0.275415
0.231184
0.224404
0.388059
0.705337
0.601201
0.46791
0.36177
0.283317
0.232603
0.219974
0.368971
0.726672
0.586429
0.452855
0.348817
0.271997
0.221932
0.207763
0.343382
0.649904
0.512124
0.398439
0.309496
0.243799
0.200912
0.189428
0.314023
0.520359
0.412894
0.32607
0.258377
0.208247
0.175843
0.169819
0.288044
0.390592
0.317292
0.257505
0.210283
0.175146
0.153222
0.153595
0.269693
0.561387
0.464667
0.377073
0.305883
0.252897
0.220761
0.223912
0.40439
0.643198
0.539349
0.428184
0.338722
0.271855
0.229489
0.224389
0.391922
0.678692
0.580672
0.456761
0.355492
0.279845
0.231024
0.220045
0.372836
0.70158
0.57242
0.444491
0.343811
0.269147
0.220687
0.208013
0.347317
0.636271
0.503368
0.392608
0.305749
0.24165
0.200086
0.18991
0.317865
0.512129
0.406886
0.321854
0.255653
0.2068
0.175499
0.170608
0.291904
0.384727
0.312966
0.254529
0.208493
0.174375
0.153339
0.154685
0.273667
0.548083
0.454764
0.370047
0.300845
0.249458
0.218672
0.223145
0.406815
0.631242
0.527605
0.420087
0.333105
0.268061
0.227201
0.223557
0.39455
0.676498
0.570697
0.44897
0.349939
0.276069
0.228784
0.21928
0.375479
0.685364
0.562516
0.437436
0.338696
0.265675
0.218699
0.207477
0.350091
0.624148
0.494723
0.386125
0.301135
0.238687
0.198549
0.189707
0.320645
0.502629
0.399531
0.316442
0.251993
0.204635
0.174566
0.170825
0.294801
0.377181
0.307351
0.250612
0.206009
0.173056
0.15297
0.155256
0.276698
0.533202
0.444531
0.362239
0.294875
0.24513
0.215758
0.221489
0.407443
0.61901
0.51446
0.411571
0.326504
0.263243
0.223987
0.221781
0.395502
0.662378
0.5589
0.440917
0.343229
0.271123
0.225568
0.217644
0.376848
0.668149
0.54992
0.428174
0.331816
0.260988
0.215849
0.206159
0.3516
0.607079
0.482383
0.377171
0.295007
0.234807
0.196378
0.188905
0.322358
0.488472
0.389372
0.30943
0.247422
0.201905
0.173198
0.170579
0.29681
0.367415
0.300457
0.245941
0.20304
0.171367
0.152249
0.1554
0.27885
0.515698
0.431584
0.351851
0.287156
0.239694
0.21211
0.219189
0.406429
0.585078
0.500681
0.399761
0.317603
0.257027
0.219881
0.219225
0.394549
0.61006
0.541911
0.428202
0.333906
0.2648
0.221509
0.215228
0.376363
0.644522
0.53292
0.415182
0.322905
0.255257
0.212367
0.204214
0.351439
0.585262
0.466406
0.366192
0.287863
0.230403
0.19384
0.187658
0.322773
0.471397
0.377746
0.301727
0.242524
0.198966
0.171611
0.169995
0.297845
0.356903
0.293225
0.241106
0.199945
0.169525
0.151317
0.155219
0.280131
0.360739
0.275831
0.208979
0.157787
0.120046
0.0946646
0.0843598
0.13081
0.385842
0.283458
0.208227
0.152967
0.113153
0.0863832
0.0736899
0.106453
0.383496
0.277128
0.200352
0.144997
0.105703
0.0793818
0.0660594
0.0903938
0.349623
0.253077
0.183147
0.132721
0.0969728
0.0729824
0.0605343
0.0805343
0.296409
0.217496
0.159669
0.117525
0.0873844
0.0670332
0.0565448
0.0752588
0.239541
0.179626
0.135131
0.102134
0.0781788
0.0618926
0.0539954
0.0746313
0.187319
0.146144
0.1139
0.0891145
0.0707051
0.0581808
0.0531153
0.0789175
0.368232
0.285068
0.218716
0.16706
0.128524
0.102527
0.0924938
0.145323
0.394677
0.293767
0.218623
0.162554
0.121703
0.094134
0.0814484
0.119512
0.393034
0.288154
0.21123
0.154853
0.114359
0.0870982
0.073594
0.102535
0.359991
0.264725
0.19433
0.14268
0.105612
0.0805997
0.0678776
0.092152
0.308184
0.229627
0.170826
0.127252
0.0957586
0.0743858
0.0636347
0.0865857
0.252128
0.191546
0.145692
0.111246
0.0860169
0.0688069
0.0607345
0.0857118
0.199415
0.15711
0.123541
0.0974806
0.07801
0.0647879
0.0598058
0.0903126
0.370079
0.290774
0.225761
0.174266
0.13557
0.109558
0.100254
0.159155
0.396073
0.299667
0.225952
0.169984
0.128856
0.101089
0.0888304
0.132039
0.395279
0.294659
0.21897
0.162546
0.121623
0.0939888
0.080682
0.114143
0.364608
0.272323
0.202541
0.150533
0.112858
0.0873339
0.0746803
0.103167
0.315537
0.238222
0.179252
0.135007
0.102764
0.0808157
0.0701125
0.0972357
0.260895
0.200326
0.153836
0.118576
0.0925793
0.0748226
0.0668378
0.0960276
0.208219
0.165416
0.131094
0.10427
0.0841517
0.0705403
0.0658424
0.100843
0.371343
0.294834
0.230957
0.17997
0.14162
0.11602
0.107776
0.173115
0.395884
0.303445
0.231283
0.175895
0.135009
0.107436
0.0958803
0.144521
0.39522
0.298657
0.224547
0.168636
0.127798
0.100163
0.0873161
0.125527
0.366536
0.277189
0.208479
0.15671
0.118922
0.0932383
0.0808948
0.113731
0.319729
0.24394
0.185394
0.141071
0.108547
0.0863542
0.0759183
0.107277
0.266378
0.206365
0.159858
0.124326
0.0979736
0.0799592
0.0722478
0.105597
0.214083
0.171316
0.136782
0.109637
0.0891966
0.0754145
0.071117
0.11037
0.374886
0.29911
0.235668
0.185207
0.147311
0.122161
0.115004
0.187348
0.398303
0.307582
0.236188
0.1813
0.140719
0.113361
0.102529
0.156971
0.397037
0.302593
0.229477
0.173997
0.133334
0.105767
0.0934307
0.136636
0.368852
0.281244
0.213375
0.161924
0.124156
0.0984264
0.0864753
0.123772
0.322844
0.248204
0.190187
0.146001
0.113386
0.0910913
0.0810019
0.116509
0.27007
0.210728
0.164471
0.128919
0.102405
0.0842759
0.0769095
0.114213
0.218112
0.175623
0.141141
0.113892
0.093293
0.0794478
0.0755619
0.118688
0.379437
0.303493
0.240505
0.190431
0.152775
0.127874
0.121631
0.200957
0.402762
0.31209
0.241139
0.18657
0.146066
0.118764
0.108545
0.168718
0.400635
0.306758
0.234132
0.178968
0.138327
0.110738
0.0988598
0.146943
0.371887
0.285035
0.217652
0.166419
0.128651
0.102891
0.0913385
0.132969
0.32568
0.251725
0.194085
0.150028
0.11737
0.0950382
0.085323
0.124814
0.272926
0.214086
0.168083
0.132556
0.105965
0.0878109
0.0808289
0.121844
0.221105
0.178889
0.144493
0.117204
0.0965293
0.0826884
0.0791901
0.125666
0.383818
0.307949
0.245117
0.195148
0.157544
0.132796
0.127347
0.212863
0.407421
0.316706
0.2458
0.191187
0.15061
0.123341
0.113701
0.178998
0.404525
0.310824
0.238322
0.183138
0.14243
0.114852
0.103448
0.155898
0.3749
0.288362
0.221173
0.169998
0.132213
0.106491
0.0953792
0.14089
0.328018
0.25443
0.19704
0.153072
0.120428
0.0981607
0.088879
0.132028
0.274947
0.21648
0.17067
0.135207
0.108642
0.0905843
0.0840568
0.128402
0.22315
0.18113
0.146825
0.119569
0.0989206
0.0851746
0.0820721
0.131342
0.386006
0.310549
0.24809
0.198409
0.161057
0.136644
0.132035
0.222708
0.409839
0.319298
0.248636
0.194241
0.153866
0.126867
0.117914
0.187566
0.406361
0.312885
0.240676
0.185755
0.14527
0.117953
0.107149
0.163336
0.375883
0.289748
0.222967
0.172113
0.134589
0.109138
0.0985816
0.14741
0.328422
0.255385
0.198432
0.154793
0.122411
0.10041
0.0916505
0.137862
0.27527
0.217295
0.171858
0.136685
0.110367
0.0925847
0.086603
0.133812
0.223634
0.18195
0.147921
0.120893
0.100447
0.0869249
0.0842492
0.135716
0.384344
0.310273
0.248821
0.199916
0.163205
0.139415
0.135773
0.230781
0.407596
0.318601
0.249054
0.195494
0.155775
0.129365
0.121252
0.194635
0.40361
0.31171
0.24068
0.18664
0.146832
0.120085
0.110032
0.169443
0.373017
0.288332
0.222672
0.172678
0.135809
0.110898
0.101028
0.15271
0.325849
0.254041
0.198061
0.15518
0.123384
0.101876
0.0937483
0.142526
0.2732
0.216223
0.171578
0.137033
0.11122
0.0938888
0.0885288
0.138225
0.222195
0.181231
0.1478
0.121261
0.101219
0.0880694
0.0859219
0.139529
0.380189
0.307921
0.247855
0.200068
0.164279
0.141309
0.138714
0.237564
0.402223
0.315564
0.247698
0.195394
0.15664
0.131024
0.123845
0.200575
0.397603
0.308192
0.238955
0.186235
0.147409
0.121433
0.112227
0.174542
0.367287
0.284809
0.220816
0.172074
0.136138
0.11195
0.10285
0.157097
0.320919
0.250905
0.196341
0.154552
0.123582
0.102725
0.0953058
0.146368
0.269215
0.21368
0.170178
0.136522
0.111391
0.0946203
0.0899132
0.141865
0.219256
0.179336
0.146761
0.120906
0.101407
0.0887273
0.0871686
0.142862
0.375244
0.304623
0.245976
0.1994
0.164622
0.14253
0.140982
0.243377
0.396126
0.311639
0.245464
0.194501
0.156802
0.132044
0.125809
0.205635
0.390802
0.303759
0.236366
0.185074
0.147329
0.122191
0.113846
0.17885
0.360533
0.280316
0.218127
0.170774
0.135874
0.112473
0.104159
0.160766
0.314835
0.246818
0.193859
0.153305
0.123256
0.103106
0.0964049
0.149566
0.264194
0.210315
0.168122
0.135468
0.111089
0.0949062
0.0908298
0.144861
0.215489
0.176771
0.145173
0.120087
0.101186
0.0890042
0.0880214
0.145571
0.370178