/*--------------------------------*- C++ -*----------------------------------*\
| =========                 |                                                 |
| \\      /  F ield         | OpenFOAM: The Open Source CFD Toolbox           |
|  \\    /   O peration     | Version:  plus.master.MPPICInterFoam            |
|   \\  /    A nd           | Web:      www.OpenFOAM.com                      |
|    \\/     M anipulation  |                                                 |
\*---------------------------------------------------------------------------*/
FoamFile
{
    version     2.0;
    format      ascii;
    class       volScalarField;
    location    "2";
    object      epsilon;
}
// * * * * * * * * * * * * * * * * * * * * * * * * * * * * * * * * * * * * * //

dimensions      [0 2 -3 0 0 0 0];

internalField   nonuniform List<scalar> 
11822
(
0.000197601
0.000203691
0.000207221
0.000208386
0.00020721
0.000203661
0.000197594
0.000203692
0.000209491
0.000212918
0.000214051
0.000212901
0.000209448
0.000203655
0.000207228
0.000212926
0.00021629
0.000217403
0.000216276
0.000212888
0.000207194
0.000208398
0.000214066
0.000217409
0.000218516
0.000217395
0.000214028
0.000208363
0.000207227
0.000212922
0.000216286
0.0002174
0.000216273
0.000212885
0.000207193
0.000203683
0.000209475
0.000212902
0.000214037
0.00021289
0.00020944
0.00020365
0.000197621
0.000203684
0.000207211
0.000208375
0.0002072
0.000203653
0.000197589
0.000197681
0.000203756
0.000207281
0.000208444
0.000207268
0.000203722
0.000197663
0.000203757
0.000209542
0.000212961
0.000214092
0.000212942
0.000209495
0.000203712
0.000207286
0.000212967
0.000216323
0.000217433
0.000216306
0.000212924
0.000207242
0.000208453
0.000214103
0.000217438
0.00021854
0.00021742
0.00021406
0.000208408
0.000207281
0.000212958
0.000216314
0.000217425
0.000216298
0.000212917
0.000207236
0.00020374
0.000209515
0.000212936
0.000214068
0.000212921
0.000209476
0.000203696
0.000197686
0.000203735
0.000207257
0.000208418
0.000207242
0.000203699
0.000197641
0.000197869
0.000203911
0.000207435
0.000208598
0.000207425
0.000203889
0.000197849
0.000203912
0.000209668
0.000213087
0.000214219
0.000213075
0.00020964
0.000203878
0.000207437
0.000213089
0.000216442
0.000217553
0.000216431
0.000213063
0.000207404
0.000208602
0.000214222
0.000217554
0.000218658
0.000217543
0.000214197
0.000208569
0.00020743
0.00021308
0.000216434
0.000217545
0.000216424
0.000213056
0.000207398
0.000203897
0.000209647
0.000213067
0.0002142
0.000213058
0.000209624
0.000203864
0.000197858
0.000203887
0.00020741
0.000208573
0.000207401
0.000203865
0.000197825
0.000198697
0.000204685
0.000208202
0.000209367
0.0002082
0.000204684
0.000198683
0.000204685
0.000210397
0.000213809
0.000214943
0.000213808
0.000210397
0.000204677
0.000208201
0.000213807
0.00021715
0.000218263
0.00021715
0.000213807
0.000208192
0.000209366
0.000214941
0.000218262
0.000219366
0.000218261
0.00021494
0.000209356
0.000208199
0.000213805
0.000217149
0.00021826
0.000217146
0.000213802
0.000208187
0.000204682
0.000210393
0.000213806
0.000214939
0.000213802
0.000210388
0.000204668
0.000198682
0.000204674
0.000208192
0.000209356
0.000208187
0.000204669
0.000198668
0.000202196
0.00020808
0.000211571
0.000212735
0.000211573
0.000208088
0.000202192
0.00020808
0.000213708
0.000217093
0.000218226
0.000217095
0.000213717
0.000208086
0.000211569
0.00021709
0.000220398
0.000221506
0.000220399
0.000217096
0.000211571
0.000212731
0.000218221
0.000221504
0.000222602
0.000221504
0.000218227
0.000212734
0.000211567
0.000217088
0.000220395
0.000221503
0.000220397
0.000217096
0.000211571
0.000208081
0.000213709
0.000217093
0.000218226
0.000217095
0.000213718
0.000208085
0.000202186
0.000208079
0.000211568
0.000212733
0.00021157
0.000208086
0.000202187
0.000221564
0.000225609
0.00022817
0.000229056
0.000228175
0.000225621
0.000221569
0.000225609
0.000229802
0.000232417
0.00023332
0.000232424
0.00022982
0.000225628
0.000228171
0.000232417
0.000235026
0.000235924
0.000235032
0.000232433
0.000228188
0.000229054
0.000233317
0.000235922
0.000236818
0.000235929
0.000233334
0.000229074
0.000228171
0.000232417
0.000235028
0.000235928
0.000235037
0.000232441
0.000228196
0.000225616
0.000229811
0.000232427
0.000233331
0.000232438
0.000229837
0.000225645
0.000221562
0.000225618
0.00022818
0.000229068
0.000228192
0.000225643
0.000221588
0.000189836
0.000182031
0.000173312
0.000164485
0.000157619
0.000159562
0.000205793
0.000668336
0.00019599
0.000187743
0.00017839
0.000168443
0.000159491
0.000156974
0.000188867
0.00055433
0.000199676
0.000191404
0.000181796
0.000171287
0.000161232
0.000156359
0.000180974
0.000497418
0.000200919
0.000192664
0.000182989
0.000172308
0.000161903
0.000156286
0.000178662
0.000480309
0.000199676
0.000191406
0.000181801
0.000171295
0.000161243
0.000156375
0.000180998
0.000497486
0.000195988
0.000187746
0.000178398
0.000168456
0.000159509
0.000156999
0.000188907
0.000554446
0.000189831
0.000182032
0.000173319
0.000164497
0.000157638
0.000159588
0.000205835
0.000668462
0.000189919
0.000182124
0.000173414
0.00016459
0.000157723
0.00015967
0.00020598
0.000669809
0.000196062
0.000187828
0.000178485
0.000168542
0.000159588
0.000157073
0.000189025
0.000555529
0.00019974
0.000191481
0.000181883
0.000171379
0.000161323
0.00015645
0.000181113
0.000498476
0.00020098
0.000192737
0.000183072
0.000172395
0.000161989
0.00015637
0.00017879
0.00048131
0.000199735
0.000191477
0.000181881
0.000171379
0.000161325
0.000156454
0.00018112
0.000498504
0.000196048
0.000187817
0.000178478
0.000168539
0.000159589
0.000157076
0.000189033
0.000555569
0.000189893
0.000182105
0.0001734
0.00016458
0.000157716
0.000159665
0.000205977
0.000669822
0.000190126
0.000182349
0.000173649
0.000164818
0.000157926
0.000159845
0.000206256
0.000672627
0.000196257
0.000188046
0.000178717
0.000168773
0.000159801
0.000157258
0.000189285
0.000557943
0.000199932
0.000191696
0.000182115
0.000171613
0.000161541
0.000156642
0.000181366
0.0005007
0.00020117
0.00019295
0.000183303
0.000172629
0.000162207
0.000156562
0.000179036
0.000483463
0.000199925
0.00019169
0.00018211
0.000171609
0.000161537
0.000156637
0.00018136
0.000500691
0.000196242
0.000188032
0.000178705
0.000168763
0.00015979
0.000157246
0.000189268
0.000557913
0.000190099
0.000182326
0.000173627
0.000164797
0.000157904
0.000159819
0.00020622
0.00067254
0.000190997
0.000183253
0.00017456
0.000165687
0.000158702
0.000160519
0.000207235
0.000681878
0.000197106
0.000188934
0.000179626
0.000169658
0.000160608
0.000157964
0.000190194
0.000565689
0.000200776
0.000192581
0.000183024
0.000172509
0.00016237
0.000157373
0.000182254
0.000507733
0.000202014
0.000193835
0.000184212
0.000173527
0.000163042
0.000157298
0.000179916
0.000490278
0.000200769
0.000192574
0.000183017
0.0001725
0.000162361
0.000157362
0.00018224
0.000507702
0.000197095
0.000188922
0.000179612
0.000169643
0.000160592
0.000157945
0.000190168
0.000565622
0.00019098
0.000183235
0.000174541
0.000165666
0.000158678
0.000160491
0.000207195
0.000681764
0.000194624
0.00018705
0.000178541
0.000169801
0.000162857
0.000164671
0.000212119
0.000702023
0.000200635
0.000192618
0.000183482
0.000173664
0.0001647
0.000162095
0.000195021
0.000585008
0.000204292
0.000196237
0.000186841
0.000176476
0.00016644
0.000161502
0.000187053
0.000526533
0.000205531
0.000197488
0.000188025
0.00017749
0.000167111
0.000161431
0.000184708
0.000508914
0.00020429
0.000196233
0.000186837
0.000176471
0.000166433
0.000161492
0.000187037
0.000526486
0.000200631
0.00019261
0.000183471
0.00017365
0.000164685
0.000162077
0.000194994
0.000584914
0.000194615
0.000187037
0.000178526
0.000169783
0.000162838
0.000164649
0.000212086
0.0007019
0.000215938
0.00021118
0.000206172
0.000201531
0.000199306
0.000207015
0.000265043
0.000909455
0.000219989
0.000214469
0.00020854
0.000202698
0.000198549
0.000202105
0.000245173
0.000754776
0.000222693
0.000216916
0.000210546
0.000204063
0.000198885
0.00020028
0.000235856
0.000678169
0.00022364
0.000217813
0.00021132
0.000204636
0.000199126
0.000199831
0.000233107
0.000655192
0.000222699
0.000216921
0.000210551
0.000204069
0.000198892
0.000200283
0.000235853
0.000678125
0.000220003
0.00021448
0.000208549
0.000202705
0.000198554
0.000202109
0.000245171
0.000754705
0.000215957
0.000211197
0.000206187
0.000201544
0.000199318
0.000207025
0.000265049
0.000909361
0.000189877
0.00018207
0.000173345
0.000164514
0.000157647
0.000159591
0.000205834
0.00066846
0.000196047
0.00018779
0.000178433
0.000168484
0.000159531
0.000157018
0.000188927
0.000554487
0.00019973
0.000191449
0.000181838
0.000171328
0.000161272
0.000156403
0.00018103
0.000497559
0.000200974
0.000192707
0.000183028
0.000172343
0.000161935
0.000156318
0.000178701
0.000480399
0.000199732
0.000191447
0.000181833
0.000171321
0.000161262
0.000156389
0.000181009
0.000497501
0.000196049
0.000187785
0.000178424
0.000168471
0.000159515
0.000156996
0.000188892
0.000554388
0.000189909
0.000182071
0.000173339
0.000164504
0.000157633
0.000159571
0.000205803
0.000668353
0.000189954
0.00018216
0.000173446
0.000164619
0.000157752
0.000159701
0.000206023
0.0006699
0.000196114
0.000187875
0.000178529
0.000168584
0.00015963
0.000157119
0.000189088
0.000555665
0.000199796
0.000191531
0.00018193
0.000171424
0.000161367
0.000156497
0.000181174
0.000498599
0.000201041
0.000192789
0.00018312
0.00017244
0.000162031
0.000156412
0.000178841
0.000481401
0.000199802
0.000191532
0.000181929
0.00017142
0.000161361
0.000156488
0.000181159
0.000498553
0.000196125
0.000187876
0.000178525
0.000168577
0.00015962
0.000157103
0.000189063
0.000555581
0.000189995
0.000182172
0.000173448
0.000164617
0.000157745
0.00015969
0.000206005
0.000669809
0.000190143
0.000182369
0.000173669
0.000164838
0.000157948
0.000159871
0.000206295
0.000672707
0.000196284
0.000188076
0.00017875
0.000168807
0.000159837
0.0001573
0.000189345
0.000558079
0.000199965
0.000191732
0.000182152
0.000171651
0.00016158
0.000156686
0.000181426
0.000500829
0.000201209
0.000192991
0.000183343
0.000172668
0.000162246
0.000156604
0.000179092
0.000483578
0.000199971
0.000191735
0.000182152
0.000171649
0.000161576
0.000156679
0.000181414
0.000500791
0.000196297
0.000188082
0.000178751
0.000168804
0.000159831
0.000157289
0.000189326
0.000558007
0.000190169
0.000182383
0.000173677
0.000164842
0.000157949
0.000159869
0.000206288
0.000672637
0.000190996
0.000183254
0.000174565
0.000165695
0.000158712
0.000160534
0.000207259
0.000681933
0.000197105
0.000188942
0.000179638
0.000169674
0.000160628
0.000157988
0.000190232
0.00056579
0.00020078
0.000192594
0.000183041
0.000172528
0.000162392
0.000157399
0.000182292
0.000507836
0.000202023
0.000193852
0.000184233
0.000173549
0.000163066
0.000157327
0.000179956
0.000490383
0.000200782
0.000192595
0.00018304
0.000172526
0.000162389
0.000157394
0.000182285
0.00050781
0.000197112
0.000188946
0.000179639
0.000169672
0.000160624
0.000157983
0.000190222
0.000565734
0.000190998
0.000183262
0.000174571
0.000165699
0.000158715
0.000160536
0.000207258
0.000681884
0.000194615
0.000187042
0.000178536
0.000169798
0.000162857
0.000164674
0.000212127
0.000702048
0.000200621
0.00019261
0.000183478
0.000173662
0.0001647
0.000162097
0.000195029
0.000585048
0.000204279
0.000196231
0.000186839
0.000176476
0.000166442
0.000161505
0.00018706
0.000526572
0.000205521
0.000197485
0.000188024
0.000177492
0.000167116
0.000161439
0.000184721
0.000508963
0.00020428
0.000196231
0.000186839
0.000176477
0.000166443
0.000161506
0.000187059
0.000526553
0.000200622
0.000192611
0.000183477
0.000173662
0.000164701
0.000162099
0.000195027
0.000585004
0.000194602
0.000187041
0.000178536
0.0001698
0.00016286
0.000164677
0.000212127
0.000702002
0.000215926
0.000211166
0.000206159
0.000201519
0.000199295
0.000207005
0.000265035
0.000909468
0.000219966
0.00021445
0.000208522
0.000202679
0.000198528
0.000202081
0.000245142
0.000754732
0.000222668
0.000216895
0.000210526
0.000204042
0.000198862
0.000200252
0.00023582
0.000678101
0.000223616
0.000217793
0.000211301
0.000204616
0.000199104
0.000199806
0.000233075
0.000655129
0.000222673
0.000216901
0.000210533
0.000204051
0.000198872
0.000200262
0.000235827
0.000678078
0.000219969
0.000214457
0.00020853
0.000202686
0.000198535
0.000202089
0.00024515
0.000754678
0.000215916
0.000211172
0.000206169
0.000201529
0.000199303
0.000207012
0.000265039
0.00090937
0.000189909
0.000182069
0.000173337
0.000164502
0.00015763
0.000159568
0.000205797
0.000668339
0.000196043
0.000187777
0.000178416
0.000168463
0.000159507
0.000156987
0.00018888
0.000554353
0.000199718
0.000191432
0.000181819
0.000171307
0.000161249
0.000156376
0.000180992
0.000497454
0.000200953
0.000192686
0.000183008
0.000172325
0.000161918
0.000156301
0.000178679
0.000480342
0.000199701
0.000191423
0.000181814
0.000171306
0.000161252
0.000156382
0.000181005
0.000497493
0.000196006
0.000187755
0.000178403
0.000168458
0.000159508
0.000156995
0.000188898
0.000554407
0.000189841
0.000182032
0.000173314
0.000164488
0.000157625
0.000159571
0.000205807
0.000668361
0.000189996
0.00018217
0.000173447
0.000164616
0.000157744
0.000159689
0.000206002
0.000669803
0.000196122
0.000187871
0.00017852
0.000168572
0.000159615
0.000157098
0.000189055
0.000555562
0.000199793
0.000191522
0.000181919
0.000171411
0.000161352
0.000156479
0.000181147
0.000498527
0.000201026
0.000192775
0.000183106
0.000172426
0.000162018
0.000156399
0.000178825
0.000481368
0.000199775
0.000191511
0.000181912
0.000171407
0.000161351
0.000156481
0.000181153
0.000498557
0.000196083
0.000187847
0.000178504
0.000168562
0.00015961
0.000157098
0.000189062
0.00055561
0.000189927
0.000182129
0.000173419
0.000164596
0.000157731
0.000159681
0.000205997
0.000669832
0.00019017
0.000182383
0.000173677
0.000164843
0.00015795
0.00015987
0.00020629
0.000672647
0.000196297
0.000188081
0.00017875
0.000168805
0.000159832
0.000157291
0.000189329
0.000558017
0.000199969
0.000191732
0.00018215
0.000171647
0.000161575
0.000156679
0.000181415
0.000500796
0.000201206
0.000192986
0.000183338
0.000172664
0.000162243
0.000156601
0.000179089
0.000483576
0.000199959
0.000191725
0.000182145
0.000171645
0.000161574
0.000156679
0.000181417
0.000500818
0.000196274
0.000188066
0.00017874
0.000168798
0.000159827
0.000157289
0.00018933
0.000558056
0.000190129
0.000182357
0.000173658
0.000164828
0.000157938
0.00015986
0.00020628
0.000672676
0.000190999
0.000183264
0.000174574
0.000165703
0.000158719
0.000160541
0.000207266
0.000681914
0.000197114
0.000188949
0.000179644
0.000169679
0.000160632
0.000157992
0.000190235
0.000565777
0.000200785
0.000192599
0.000183045
0.000172532
0.000162396
0.000157403
0.000182297
0.000507839
0.000202026
0.000193855
0.000184236
0.000173553
0.00016307
0.000157332
0.000179963
0.000490403
0.000200785
0.000192597
0.000183043
0.000172529
0.000162393
0.0001574
0.000182294
0.000507847
0.000197112
0.000188946
0.000179639
0.000169674
0.000160626
0.000157986
0.000190229
0.000565788
0.000190995
0.000183259
0.000174567
0.000165695
0.00015871
0.00016053
0.000207252
0.000681925
0.000194603
0.000187043
0.000178539
0.000169803
0.000162864
0.000164682
0.000212135
0.000702033
0.000200625
0.000192615
0.000183483
0.000173669
0.000164709
0.000162108
0.000195043
0.00058506
0.000204285
0.000196237
0.000186845
0.000176483
0.000166451
0.000161516
0.000187074
0.000526595
0.000205528
0.000197491
0.00018803
0.000177498
0.000167122
0.000161446
0.00018473
0.000508986
0.000204289
0.000196238
0.000186845
0.000176482
0.000166447
0.00016151
0.000187065
0.000526579
0.000200632
0.000192618
0.000183482
0.000173665
0.000164702
0.000162099
0.00019503
0.000585039
0.000194616
0.000187048
0.000178539
0.0001698
0.000162857
0.000164671
0.000212119
0.000702025
0.000215914
0.000211169
0.000206165
0.000201527
0.000199303
0.000207014
0.000265043
0.000909403
0.000219969
0.000214457
0.00020853
0.000202687
0.000198538
0.000202094
0.00024516
0.000754715
0.000222674
0.000216904
0.000210537
0.000204055
0.000198878
0.000200272
0.000235845
0.000678123
0.000223621
0.0002178
0.000211309
0.000204626
0.000199115
0.000199817
0.000233087
0.000655142
0.000222678
0.000216905
0.000210538
0.000204056
0.000198878
0.000200268
0.000235833
0.000678085
0.000219979
0.000214464
0.000208535
0.000202691
0.000198537
0.000202088
0.000245145
0.000754671
0.000215932
0.000211184
0.000206179
0.000201539
0.000199312
0.000207018
0.000265037
0.000909355
0.00018983
0.000182034
0.00017332
0.000164498
0.000157639
0.000159589
0.000205837
0.000668469
0.00019599
0.000187751
0.000178403
0.000168459
0.000159511
0.000157001
0.000188909
0.000554454
0.000199681
0.000191415
0.000181808
0.000171301
0.000161247
0.000156377
0.000181
0.000497492
0.000200929
0.000192675
0.000182999
0.000172316
0.000161908
0.000156289
0.000178664
0.000480315
0.000199691
0.00019142
0.000181809
0.000171297
0.000161239
0.000156364
0.000180977
0.000497425
0.000196015
0.000187766
0.000178408
0.000168457
0.000159501
0.00015698
0.000188872
0.000554343
0.000189899
0.000182066
0.000173336
0.000164503
0.000157634
0.000159575
0.000205809
0.000668362
0.000189893
0.000182106
0.000173401
0.000164581
0.000157717
0.000159666
0.000205978
0.000669815
0.000196049
0.000187822
0.000178483
0.000168542
0.000159591
0.000157078
0.000189035
0.000555561
0.000199739
0.000191486
0.000181889
0.000171385
0.00016133
0.000156457
0.000181122
0.000498494
0.000200989
0.000192749
0.000183083
0.000172404
0.000161995
0.000156375
0.000178792
0.000481299
0.000199753
0.000191497
0.000181896
0.00017139
0.000161331
0.000156456
0.000181117
0.000498464
0.000196081
0.000187847
0.0001785
0.000168554
0.000159597
0.000157079
0.00018903
0.000555512
0.000189968
0.000182153
0.000173434
0.000164605
0.000157736
0.000159681
0.000205992
0.000669781
0.000190099
0.000182327
0.000173628
0.000164798
0.000157905
0.000159821
0.000206223
0.000672535
0.000196243
0.000188035
0.000178709
0.000168766
0.000159794
0.00015725
0.000189274
0.000557914
0.000199928
0.000191696
0.000182116
0.000171614
0.000161542
0.000156643
0.000181366
0.000500689
0.000201174
0.000192957
0.00018331
0.000172636
0.000162213
0.000156568
0.000179043
0.000483458
0.000199938
0.000191705
0.000182124
0.000171621
0.000161548
0.000156648
0.000181371
0.000500686
0.000196265
0.000188055
0.000178727
0.000168782
0.000159807
0.000157263
0.000189288
0.000557915
0.000190139
0.000182363
0.00017366
0.000164827
0.000157934
0.000159852
0.000206262
0.000672571
0.000190981
0.000183236
0.000174542
0.000165668
0.000158681
0.000160496
0.000207202
0.000681781
0.000197096
0.000188924
0.000179616
0.000169648
0.000160599
0.000157954
0.000190182
0.000565651
0.000200771
0.000192577
0.000183021
0.000172506
0.000162369
0.000157371
0.000182252
0.00050772
0.000202015
0.000193837
0.000184216
0.000173531
0.000163048
0.000157306
0.000179925
0.00049029
0.000200776
0.000192583
0.000183027
0.000172511
0.000162374
0.000157377
0.00018226
0.000507736
0.000197106
0.000188935
0.000179627
0.00016966
0.00016061
0.000157967
0.000190198
0.000565672
0.000190983
0.000183252
0.000174561
0.000165689
0.000158703
0.00016052
0.000207234
0.00068183
0.000194616
0.000187038
0.000178527
0.000169786
0.000162841
0.000164653
0.000212093
0.000701922
0.000200632
0.00019261
0.000183473
0.000173655
0.00016469
0.000162084
0.000195007
0.000584951
0.00020429
0.000196232
0.000186838
0.000176474
0.000166438
0.000161499
0.000187049
0.000526511
0.000205531
0.000197487
0.000188024
0.000177491
0.000167114
0.000161437
0.000184716
0.00050893
0.00020429
0.000196234
0.00018684
0.000176477
0.000166442
0.000161505
0.000187059
0.000526543
0.00020063
0.000192613
0.000183478
0.000173661
0.000164699
0.000162096
0.000195026
0.000585008
0.000194599
0.000187039
0.000178533
0.000169796
0.000162854
0.000164669
0.000212116
0.000701998
0.000215954
0.000211192
0.000206182
0.000201541
0.000199317
0.000207026
0.000265051
0.000909392
0.000219999
0.000214474
0.000208543
0.000202701
0.000198553
0.00020211
0.000245175
0.000754734
0.000222694
0.000216914
0.000210544
0.000204063
0.000198889
0.000200285
0.000235863
0.000678162
0.000223634
0.000217806
0.000211314
0.000204632
0.000199125
0.000199833
0.000233112
0.000655207
0.000222687
0.000216909
0.000210541
0.000204062
0.000198888
0.000200285
0.000235863
0.000678166
0.000219983
0.000214464
0.000208536
0.000202695
0.000198546
0.000202102
0.00024517
0.00075474
0.000215918
0.000211177
0.000206174
0.000201535
0.000199311
0.000207019
0.000265043
0.00090939
0.000231714
0.000186966
0.000201646
0.000216979
0.000228036
0.00023423
0.000235641
0.000232192
0.000231723
0.000186972
0.00020165
0.000216984
0.000228041
0.000234234
0.000235645
0.000232194
0.000231721
0.000186972
0.000201651
0.000216986
0.000228044
0.00023424
0.000235654
0.000232208
0.000231718
0.000186971
0.000201649
0.000216983
0.00022804
0.000234234
0.000235647
0.000232201
0.000231721
0.000186972
0.00020165
0.000216983
0.000228038
0.00023423
0.000235639
0.000232187
0.000231728
0.000186975
0.000201655
0.00021699
0.000228048
0.000234243
0.000235657
0.000232211
0.000231726
0.000186972
0.000201651
0.000216983
0.000228037
0.000234224
0.000235623
0.000232152
0.0002318
0.000187019
0.0002016
0.000216899
0.000227968
0.0002342
0.000235661
0.000232265
0.000231809
0.000187019
0.000201601
0.000216899
0.000227968
0.000234201
0.000235663
0.000232267
0.000231803
0.000187018
0.0002016
0.000216898
0.000227966
0.000234198
0.000235658
0.00023226
0.0002318
0.000187017
0.000201599
0.000216898
0.000227967
0.000234199
0.00023566
0.000232262
0.000231797
0.000187016
0.000201599
0.000216899
0.000227969
0.000234202
0.000235664
0.00023227
0.000231797
0.000187015
0.000201598
0.000216898
0.000227967
0.000234198
0.000235656
0.000232255
0.000231802
0.000187017
0.000201602
0.000216903
0.000227974
0.00023421
0.000235675
0.000232288
0.00023229
0.000187367
0.000201783
0.000216961
0.00022799
0.000234237
0.00023574
0.000232398
0.000232289
0.000187368
0.000201786
0.000216964
0.000227992
0.000234239
0.000235741
0.000232398
0.000232286
0.000187369
0.000201787
0.000216965
0.000227994
0.000234241
0.000235744
0.000232402
0.000232282
0.000187368
0.000201786
0.000216964
0.000227993
0.00023424
0.000235743
0.000232402
0.000232282
0.000187368
0.000201786
0.000216964
0.000227993
0.00023424
0.000235742
0.000232399
0.000232282
0.000187368
0.000201786
0.000216965
0.000227995
0.000234242
0.000235745
0.000232403
0.000232282
0.000187367
0.000201786
0.000216964
0.000227994
0.000234239
0.000235738
0.000232393
0.000235735
0.000189595
0.000203261
0.000217807
0.000228473
0.000234551
0.000235997
0.000232663
0.000235737
0.000189599
0.000203265
0.000217809
0.000228474
0.000234551
0.000235998
0.000232664
0.000235737
0.000189601
0.000203266
0.000217809
0.000228473
0.00023455
0.000235997
0.000232662
0.000235736
0.000189601
0.000203266
0.000217809
0.000228473
0.00023455
0.000235997
0.000232663
0.000235737
0.000189601
0.000203266
0.000217809
0.000228474
0.000234551
0.000235998
0.000232663
0.000235738
0.000189601
0.000203265
0.000217809
0.000228474
0.000234551
0.000235996
0.000232661
0.00023574
0.000189601
0.000203265
0.00021781
0.000228475
0.000234552
0.000235998
0.000232663
0.00025495
0.000203124
0.00021111
0.000222126
0.000230763
0.000235776
0.000236706
0.000233153
0.000254909
0.000203121
0.000211111
0.000222126
0.000230763
0.000235776
0.000236706
0.000233153
0.000254874
0.000203124
0.000211114
0.000222128
0.000230763
0.000235776
0.000236707
0.000233154
0.000254854
0.000203121
0.000211113
0.000222126
0.000230761
0.000235774
0.000236705
0.000233152
0.000254867
0.000203121
0.000211112
0.000222125
0.000230761
0.000235774
0.000236705
0.000233152
0.000254896
0.000203118
0.000211106
0.000222122
0.000230759
0.000235773
0.000236704
0.00023315
0.000254947
0.000203124
0.000211106
0.000222121
0.000230759
0.000235773
0.000236704
0.00023315
0.000394915
0.000252572
0.00024148
0.000240112
0.000240412
0.000240576
0.000238982
0.000234212
0.000394443
0.0002525
0.000241458
0.000240111
0.000240415
0.000240579
0.000238984
0.000234213
0.000394158
0.000252495
0.000241466
0.000240119
0.000240419
0.00024058
0.000238984
0.000234213
0.000394053
0.000252485
0.00024146
0.000240115
0.000240415
0.000240576
0.000238982
0.000234211
0.000394141
0.000252498
0.000241465
0.000240115
0.000240414
0.000240576
0.000238981
0.000234211
0.000394412
0.000252515
0.000241461
0.000240107
0.000240409
0.000240574
0.00023898
0.00023421
0.000394885
0.0002526
0.000241489
0.000240112
0.00024041
0.000240574
0.000238981
0.00023421
0.00023171
0.000186965
0.000201645
0.00021698
0.000228038
0.000234233
0.000235647
0.0002322
0.000231714
0.000186967
0.000201646
0.000216981
0.000228039
0.000234233
0.000235646
0.000232198
0.000231713
0.000186966
0.000201646
0.000216981
0.000228039
0.000234234
0.000235647
0.000232199
0.000231712
0.000186966
0.000201646
0.00021698
0.000228038
0.000234233
0.000235645
0.000232197
0.000231712
0.000186966
0.000201645
0.00021698
0.000228038
0.000234233
0.000235646
0.000232198
0.000231711
0.000186965
0.000201645
0.00021698
0.000228039
0.000234235
0.000235649
0.000232203
0.000231709
0.000186965
0.000201644
0.000216979
0.000228036
0.000234231
0.000235644
0.000232195
0.000231795
0.000187017
0.000201599
0.000216897
0.000227966
0.000234198
0.000235659
0.000232263
0.000231803
0.000187015
0.000201597
0.000216896
0.000227966
0.000234199
0.00023566
0.000232264
0.000231797
0.000187013
0.000201596
0.000216896
0.000227965
0.000234198
0.00023566
0.000232264
0.000231794
0.000187012
0.000201595
0.000216895
0.000227965
0.000234198
0.00023566
0.000232264
0.00023179
0.00018701
0.000201594
0.000216894
0.000227964
0.000234197
0.000235659
0.000232264
0.000231786
0.000187008
0.000201593
0.000216893
0.000227963
0.000234197
0.000235658
0.000232262
0.000231787
0.000187009
0.000201593
0.000216894
0.000227965
0.000234199
0.000235661
0.000232266
0.000232285
0.000187365
0.000201782
0.00021696
0.00022799
0.000234238
0.000235741
0.000232401
0.000232282
0.000187365
0.000201783
0.000216961
0.000227991
0.000234238
0.000235741
0.0002324
0.000232279
0.000187364
0.000201783
0.000216961
0.000227991
0.000234238
0.000235742
0.000232401
0.000232277
0.000187364
0.000201783
0.000216961
0.000227991
0.000234239
0.000235742
0.000232401
0.000232275
0.000187364
0.000201782
0.000216961
0.000227991
0.000234239
0.000235742
0.000232401
0.000232274
0.000187363
0.000201781
0.00021696
0.000227991
0.000234239
0.000235743
0.000232402
0.000232274
0.000187362
0.000201781
0.00021696
0.000227991
0.000234239
0.000235742
0.000232401
0.000235731
0.000189593
0.00020326
0.000217806
0.000228472
0.000234551
0.000235997
0.000232663
0.000235732
0.000189596
0.000203262
0.000217807
0.000228472
0.00023455
0.000235997
0.000232663
0.000235733
0.000189597
0.000203263
0.000217807
0.000228472
0.00023455
0.000235996
0.000232662
0.000235732
0.000189598
0.000203263
0.000217807
0.000228472
0.00023455
0.000235997
0.000232663
0.000235735
0.000189599
0.000203264
0.000217807
0.000228472
0.00023455
0.000235997
0.000232663
0.000235737
0.000189598
0.000203262
0.000217807
0.000228472
0.00023455
0.000235997
0.000232663
0.000235739
0.000189599
0.000203262
0.000217806
0.000228472
0.00023455
0.000235997
0.000232663
0.000254949
0.000203123
0.00021111
0.000222126
0.000230763
0.000235776
0.000236707
0.000233154
0.000254909
0.000203119
0.000211109
0.000222125
0.000230762
0.000235776
0.000236706
0.000233153
0.000254876
0.000203122
0.000211112
0.000222126
0.000230762
0.000235775
0.000236706
0.000233153
0.000254859
0.00020312
0.000211112
0.000222125
0.000230761
0.000235774
0.000236705
0.000233152
0.000254877
0.000203122
0.000211111
0.000222125
0.000230761
0.000235775
0.000236706
0.000233153
0.000254913
0.00020312
0.000211107
0.000222122
0.000230759
0.000235774
0.000236706
0.000233153
0.000254968
0.000203127
0.000211107
0.000222121
0.000230759
0.000235774
0.000236705
0.000233152
0.000394907
0.000252568
0.000241478
0.000240112
0.000240412
0.000240576
0.000238982
0.000234212
0.000394443
0.000252494
0.000241455
0.000240109
0.000240414
0.000240578
0.000238983
0.000234212
0.000394163
0.00025249
0.000241462
0.000240116
0.000240417
0.000240579
0.000238983
0.000234211
0.000394069
0.000252483
0.000241457
0.000240113
0.000240414
0.000240576
0.000238982
0.000234211
0.000394168
0.000252497
0.000241463
0.000240114
0.000240414
0.000240576
0.000238982
0.000234211
0.000394454
0.000252514
0.000241459
0.000240106
0.00024041
0.000240575
0.000238981
0.000234211
0.000394936
0.000252599
0.000241486
0.000240111
0.00024041
0.000240575
0.000238982
0.000234211
0.000231711
0.000186965
0.000201645
0.00021698
0.000228038
0.000234232
0.000235645
0.000232197
0.000231711
0.000186966
0.000201645
0.00021698
0.000228039
0.000234235
0.00023565
0.000232204
0.000231711
0.000186965
0.000201644
0.000216979
0.000228037
0.000234232
0.000235646
0.000232198
0.000231713
0.000186966
0.000201645
0.000216979
0.000228037
0.000234232
0.000235644
0.000232196
0.000231715
0.000186967
0.000201646
0.00021698
0.000228038
0.000234233
0.000235646
0.000232199
0.000231717
0.000186967
0.000201646
0.00021698
0.000228037
0.000234232
0.000235645
0.000232196
0.000231725
0.000186971
0.000201649
0.000216984
0.000228042
0.000234237
0.000235651
0.000232204
0.000231787
0.000187009
0.000201593
0.000216893
0.000227964
0.000234198
0.000235661
0.000232266
0.000231788
0.000187009
0.000201593
0.000216893
0.000227963
0.000234197
0.000235658
0.000232262
0.000231789
0.00018701
0.000201594
0.000216894
0.000227964
0.000234198
0.00023566
0.000232265
0.000231789
0.00018701
0.000201594
0.000216894
0.000227964
0.000234198
0.00023566
0.000232265
0.00023179
0.00018701
0.000201594
0.000216893
0.000227964
0.000234197
0.000235659
0.000232263
0.000231793
0.000187011
0.000201594
0.000216894
0.000227963
0.000234197
0.000235658
0.000232263
0.000231803
0.000187011
0.000201594
0.000216893
0.000227963
0.000234195
0.000235656
0.00023226
0.000232275
0.000187363
0.000201781
0.00021696
0.000227991
0.000234239
0.000235742
0.000232401
0.000232275
0.000187363
0.000201781
0.00021696
0.000227991
0.000234239
0.000235743
0.000232402
0.000232275
0.000187363
0.000201781
0.00021696
0.00022799
0.000234238
0.000235742
0.000232401
0.000232275
0.000187363
0.000201781
0.00021696
0.00022799