/*--------------------------------*- C++ -*----------------------------------*\
| =========                 |                                                 |
| \\      /  F ield         | OpenFOAM: The Open Source CFD Toolbox           |
|  \\    /   O peration     | Version:  plus.master.MPPICInterFoam            |
|   \\  /    A nd           | Web:      www.OpenFOAM.com                      |
|    \\/     M anipulation  |                                                 |
\*---------------------------------------------------------------------------*/
FoamFile
{
    version     2.0;
    format      ascii;
    class       volScalarField;
    location    "2";
    object      k;
}
// * * * * * * * * * * * * * * * * * * * * * * * * * * * * * * * * * * * * * //

dimensions      [0 2 -2 0 0 0 0];

internalField   nonuniform List<scalar> 
11822
(
0.000366633
0.000380441
0.000388347
0.00039094
0.000388325
0.000380385
0.000366611
0.000380444
0.000393397
0.000400991
0.000403492
0.000400959
0.000393317
0.000380373
0.00038836
0.000401006
0.000408427
0.000410875
0.000408399
0.000400935
0.000388296
0.000390964
0.000403521
0.000410887
0.000413317
0.000410859
0.000403451
0.000390899
0.000388358
0.000400999
0.00040842
0.000410869
0.000408394
0.000400932
0.000388294
0.000380429
0.000393367
0.000400964
0.000403468
0.00040094
0.000393304
0.000380366
0.000366664
0.000380429
0.000388329
0.000390921
0.000388307
0.000380372
0.000366603
0.000366799
0.000380579
0.000388472
0.00039106
0.000388446
0.000380514
0.00036676
0.000380581
0.000393503
0.000401082
0.000403578
0.000401046
0.000393415
0.000380494
0.000388482
0.000401093
0.000408496
0.000410937
0.000408463
0.000401012
0.000388398
0.000391078
0.000403598
0.000410946
0.000413368
0.000410913
0.000403519
0.000390994
0.000388471
0.000401075
0.000408479
0.000410921
0.000408448
0.000401
0.000388388
0.000380549
0.000393453
0.000401035
0.000403534
0.000401007
0.000393383
0.000380467
0.000366803
0.000380538
0.000388427
0.000391013
0.0003884
0.000380472
0.000366721
0.000367185
0.000380895
0.000388778
0.000391365
0.000388759
0.000380853
0.000367144
0.000380896
0.000393755
0.000401326
0.000403822
0.000401303
0.000393703
0.000380833
0.000388782
0.000401329
0.000408721
0.000411161
0.000408699
0.000401281
0.00038872
0.000391372
0.000403828
0.000411164
0.000413586
0.000411143
0.000403783
0.00039131
0.000388769
0.000401312
0.000408705
0.000411147
0.000408686
0.000401269
0.000388708
0.000380868
0.000393716
0.00040129
0.000403789
0.000401272
0.000393676
0.000380808
0.000367162
0.000380849
0.000388732
0.000391319
0.000388714
0.00038081
0.000367102
0.000368682
0.00038227
0.00039012
0.000392705
0.000390118
0.000382267
0.000368658
0.00038227
0.000395021
0.000402558
0.000405053
0.000402557
0.00039502
0.000382255
0.000390119
0.000402556
0.00040991
0.000412348
0.000409909
0.000402554
0.000390102
0.000392703
0.00040505
0.000412346
0.000414764
0.000412344
0.000405047
0.000392685
0.000390116
0.000402552
0.000409907
0.000412343
0.000409903
0.000402546
0.000390093
0.000382264
0.000395013
0.000402553
0.000405046
0.000402546
0.000395006
0.00038224
0.000368655
0.000382249
0.000390102
0.000392685
0.000390095
0.000382241
0.000368631
0.000374569
0.000387882
0.000395618
0.000398179
0.000395622
0.000387895
0.000374563
0.000387881
0.000400383
0.000407806
0.000410276
0.00040781
0.000400401
0.000387892
0.000395614
0.000407801
0.00041503
0.000417438
0.000415032
0.000407813
0.00039562
0.000398171
0.000410267
0.000417434
0.00041982
0.000417435
0.000410279
0.000398177
0.000395611
0.000407798
0.000415026
0.000417433
0.000415029
0.000407813
0.000395619
0.000387884
0.000400387
0.000407807
0.000410277
0.000407812
0.000400403
0.000387892
0.000374551
0.000387879
0.000395615
0.000398175
0.000395619
0.000387893
0.000374556
0.000402543
0.00041335
0.00041977
0.000421932
0.000419779
0.000413374
0.000402554
0.000413351
0.000423777
0.000430056
0.000432181
0.000430069
0.000423809
0.000413381
0.000419771
0.000430055
0.000436219
0.000438306
0.00043623
0.000430083
0.000419799
0.000421929
0.000432176
0.000438303
0.000440377
0.000438315
0.000432206
0.000421961
0.000419771
0.000430057
0.000436223
0.000438313
0.000436239
0.000430095
0.000419812
0.000413363
0.000423794
0.000430074
0.0004322
0.000430091
0.000423836
0.000413408
0.000402541
0.000413365
0.000419787
0.000421953
0.000419805
0.000413404
0.000402581
0.000348555
0.000329636
0.000306919
0.000280269
0.00024932
0.000213178
0.00017045
0.000153655
0.000362942
0.000343606
0.000320447
0.000293003
0.000260708
0.000222479
0.000176128
0.000145406
0.000371346
0.000352215
0.000328944
0.000301071
0.000267943
0.000228364
0.000179762
0.00014109
0.000374157
0.000355138
0.000331855
0.000303847
0.000270438
0.000230398
0.000181035
0.000139788
0.000371347
0.00035222
0.000328953
0.000301083
0.000267959
0.000228382
0.00017978
0.000141103
0.00036294
0.000343611
0.00032046
0.000293023
0.000260733
0.000222507
0.000176155
0.000145427
0.000348546
0.000329639
0.00030693
0.000280287
0.000249343
0.000213204
0.000170474
0.000153676
0.000348731
0.000329834
0.000307137
0.000280497
0.000249547
0.000213392
0.000170637
0.000153879
0.000363095
0.000343784
0.000320647
0.000293217
0.000260923
0.000222683
0.000176308
0.000145615
0.000371482
0.000352378
0.000329131
0.000301272
0.000268148
0.000228561
0.000179936
0.00014129
0.000374285
0.000355292
0.000332033
0.00030404
0.000270636
0.000230588
0.000181202
0.000139982
0.000371472
0.000352372
0.000329128
0.000301272
0.000268151
0.000228565
0.000179941
0.000141295
0.000363069
0.000343766
0.000320636
0.000293212
0.000260923
0.000222686
0.000176312
0.000145623
0.000348687
0.000329801
0.000307112
0.00028048
0.000249534
0.000213383
0.00017063
0.000153883
0.000349165
0.000330309
0.000307643
0.000281011
0.000250037
0.000213828
0.00017099
0.000154311
0.000363495
0.000344236
0.000321141
0.000293728
0.000261422
0.000223136
0.000176681
0.000146037
0.000371869
0.000352818
0.000329616
0.000301783
0.000268654
0.000229026
0.000180324
0.00014171
0.000374667
0.000355728
0.000332515
0.000304549
0.000271142
0.000231054
0.000181592
0.0001404
0.000371857
0.000352809
0.000329608
0.000301776
0.000268648
0.000229021
0.00018032
0.000141709
0.000363469
0.000344214
0.000321122
0.000293712
0.000261408
0.000223122
0.000176669
0.000146033
0.000349119
0.000330269
0.000307608
0.000280978
0.000250006
0.000213797
0.000170962
0.000154299
0.000350785
0.000332013
0.000309407
0.000282769
0.000251706
0.000215324
0.000172237
0.000155714
0.000365046
0.000345891
0.000322876
0.000295486
0.000263121
0.00022468
0.000177972
0.00014738
0.000373389
0.000354448
0.000331337
0.000303543
0.000270374
0.000230606
0.000181649
0.00014303
0.000376179
0.00035735
0.000334232
0.00030631
0.000272868
0.000232644
0.000182927
0.000141712
0.000373379
0.000354437
0.000331326
0.000303531
0.000270362
0.000230593
0.000181638
0.000143024
0.000365028
0.000345871
0.000322854
0.000295464
0.000263099
0.000224659
0.000177954
0.000147369
0.000350756
0.000331984
0.000309376
0.000282737
0.000251675
0.000215294
0.000172211
0.000155698
0.000357013
0.000338574
0.000316309
0.000289895
0.000258814
0.000222006
0.000177829
0.000158741
0.00037102
0.000352207
0.000329549
0.000302444
0.000270168
0.000231433
0.000183756
0.000150695
0.000379262
0.000360655
0.000337906
0.000310425
0.000277401
0.000237413
0.000187559
0.00014652
0.000382029
0.000363532
0.000340777
0.000313176
0.000279897
0.000239478
0.000188885
0.000145263
0.000379259
0.00036065
0.000337899
0.000310416
0.000277391
0.000237402
0.000187548
0.000146512
0.000371014
0.000352194
0.000329531
0.000302425
0.000270148
0.000231413
0.000183738
0.000150679
0.000356999
0.000338554
0.000316286
0.000289871
0.000258791
0.000221984
0.00017781
0.000158723
0.000387712
0.00037275
0.000354504
0.000332141
0.000304274
0.000268089
0.000216277
0.000188519
0.000399135
0.000383603
0.000364876
0.000342077
0.000313766
0.000277031
0.000223777
0.00017851
0.000406043
0.000390527
0.000371618
0.00034854
0.00031988
0.000282687
0.000228497
0.000173388
0.000408395
0.000392935
0.000373993
0.000350825
0.000322032
0.00028466
0.000230137
0.000171858
0.000406054
0.000390537
0.000371628
0.000348552
0.00031989
0.000282694
0.0002285
0.000173381
0.000399157
0.000383621
0.000364891
0.00034209
0.000313776
0.000277039
0.000223783
0.000178499
0.000387741
0.000372776
0.000354528
0.00033216
0.00030429
0.000268102
0.000216289
0.000188507
0.000348632
0.000329707
0.000306977
0.000280317
0.00024936
0.000213212
0.000170477
0.000153679
0.000363045
0.000343691
0.000320521
0.000293069
0.000260768
0.000222532
0.000176172
0.000145438
0.000371446
0.000352297
0.000329017
0.000301137
0.000268004
0.000228418
0.000179807
0.000141121
0.000374257
0.000355216
0.000331922
0.000303905
0.000270489
0.00023044
0.000181067
0.00013981
0.000371449
0.000352294
0.000329011
0.000301128
0.000267991
0.000228404
0.000179792
0.00014111
0.00036305
0.000343683
0.000320508
0.000293052
0.000260747
0.000222508
0.000176148
0.000145422
0.000348686
0.000329712
0.000306969
0.000280303
0.000249342
0.000213191
0.000170455
0.000153663
0.000348797
0.000329899
0.000307193
0.000280547
0.000249591
0.00021343
0.000170669
0.000153897
0.000363189
0.00034387
0.000320726
0.000293289
0.00026099
0.000222743
0.000176359
0.000145642
0.000371585
0.000352471
0.000329216
0.000301351
0.00026822
0.000228624
0.000179988
0.000141316
0.000374397
0.000355389
0.00033212
0.000304118
0.000270705
0.000230646
0.000181248
0.000140002
0.000371596
0.000352474
0.000329214
0.000301345
0.000268212
0.000228614
0.000179978
0.000141307
0.000363211
0.000343876
0.000320724
0.000293281
0.000260977
0.000222727
0.000176341
0.000145628
0.000348869
0.000329923
0.000307202
0.000280547
0.000249585
0.00021342
0.000170657
0.000153883
0.000349196
0.000330345
0.00030768
0.000281047
0.000250074
0.000213863
0.000171022
0.000154324
0.000363544
0.000344293
0.0003212
0.000293788
0.000261482
0.000223193
0.000176733
0.000146062
0.00037193
0.000352885
0.000329684
0.00030185
0.000268719
0.000229087
0.000180378
0.000141736
0.000374739
0.000355803
0.000332588
0.000304619
0.000271208
0.000231114
0.000181643
0.000140423
0.000371942
0.000352891
0.000329685
0.000301847
0.000268713
0.000229079
0.000180369
0.000141729
0.000363569
0.000344306
0.000321204
0.000293786
0.000261474
0.000223182
0.00017672
0.00014605
0.000349243
0.000330372
0.000307696
0.000281056
0.000250077
0.000213862
0.000171018
0.000154315
0.000350783
0.000332016
0.000309416
0.000282783
0.000251725
0.000215345
0.000172258
0.000155722
0.000365046
0.000345905
0.000322899
0.000295516
0.000263154
0.000224714
0.000178005
0.000147397
0.000373398
0.000354472
0.000331369
0.00030358
0.000270412
0.000230643
0.000181683
0.000143049
0.000376196
0.000357381
0.000334268
0.00030635
0.000272909
0.000232684
0.000182963
0.000141732
0.000373402
0.000354474
0.000331367
0.000303575
0.000270406
0.000230637
0.000181677
0.000143044
0.000365058
0.000345913
0.000322901
0.000295513
0.000263148
0.000224707
0.000177997
0.000147388
0.000350787
0.000332031
0.000309428
0.000282791
0.00025173
0.000215348
0.000172259
0.000155716
0.000356996
0.00033856
0.000316301
0.000289892
0.000258815
0.000222011
0.000177835
0.000158743
0.000370995
0.000352193
0.000329542
0.000302443
0.000270171
0.000231438
0.000183763
0.000150701
0.000379241
0.000360645
0.000337902
0.000310426
0.000277405
0.000237419
0.000187565
0.000146527
0.00038201
0.000363526
0.000340776
0.000313181
0.000279906
0.000239488
0.000188895
0.000145272
0.000379242
0.000360646
0.000337902
0.000310427
0.000277406
0.000237419
0.000187564
0.000146524
0.000370997
0.000352194
0.000329541
0.000302442
0.00027017
0.000231437
0.000183761
0.000150693
0.000356973
0.000338557
0.0003163
0.000289893
0.000258818
0.000222012
0.000177835
0.000158737
0.000387693
0.00037273
0.000354487
0.000332126
0.000304262
0.000268081
0.000216273
0.000188519
0.000399097
0.000383573
0.000364848
0.00034205
0.000313739
0.000277005
0.000223755
0.000178503
0.000406002
0.000390494
0.000371586
0.000348509
0.000319847
0.000282655
0.000228468
0.000173377
0.000408354
0.000392901
0.00037396
0.000350792
0.000321999
0.000284628
0.000230109
0.000171848
0.000406008
0.000390502
0.000371595
0.00034852
0.000319859
0.000282665
0.000228474
0.000173373
0.0003991
0.000383581
0.000364857
0.000342058
0.000313745
0.00027701
0.000223759
0.000178495
0.00038767
0.000372732
0.000354494
0.000332132
0.000304265
0.000268082
0.000216274
0.000188508
0.000348685
0.000329709
0.000306966
0.0002803
0.000249339
0.000213188
0.000170453
0.000153661
0.000363038
0.000343669
0.000320493
0.000293038
0.000260734
0.000222497
0.000176139
0.000145414
0.000371423
0.000352267
0.000328985
0.000301104
0.00026797
0.000228385
0.000179778
0.0001411
0.000374218
0.000355178
0.000331887
0.000303874
0.000270461
0.000230416
0.000181048
0.000139797
0.000371392
0.000352248
0.000328974
0.000301099
0.000267971
0.00022839
0.000179785
0.000141106
0.000362969
0.000343626
0.000320467
0.000293025
0.000260731
0.000222501
0.000176148
0.000145422
0.000348563
0.000329639
0.000306921
0.000280272
0.000249324
0.000213184
0.000170455
0.000153662
0.000348869
0.000329922
0.000307201
0.000280546
0.000249584
0.00021342
0.000170657
0.000153882
0.000363206
0.000343867
0.000320715
0.000293273
0.00026097
0.00022272
0.000176336
0.000145623
0.00037158
0.000352455
0.000329196
0.000301329
0.000268197
0.000228602
0.000179968
0.000141301
0.00037437
0.000355362
0.000332094
0.000304094
0.000270684
0.000230628
0.000181234
0.000139995
0.000371546
0.000352433
0.000329181
0.00030132
0.000268193
0.000228601
0.00017997
0.000141306
0.000363132
0.000343819
0.000320681
0.00029325
0.000260957
0.000222715
0.000176336
0.000145631
0.000348744
0.000329843
0.000307145
0.000280506
0.000249557
0.000213403
0.000170648
0.000153885
0.000349245
0.000330373
0.000307698
0.000281059
0.00025008
0.000213865
0.000171022
0.000154316
0.00036357
0.000344304
0.000321203
0.000293786
0.000261476
0.000223185
0.000176723
0.000146051
0.000371939
0.000352886
0.000329681
0.000301844
0.000268711
0.000229079
0.000180369
0.000141729
0.000374732
0.000355793
0.000332579
0.000304611
0.000271201
0.000231109
0.00018164
0.000140422
0.000371919
0.000352872
0.000329672
0.000301838
0.000268708
0.000229077
0.000180369
0.000141733
0.000363527
0.000344274
0.000321182
0.000293771
0.000261466
0.000223178
0.000176719
0.000146058
0.00034917
0.000330323
0.000307659
0.000281028
0.000250056
0.000213847
0.000171008
0.00015432
0.000350789
0.000332034
0.000309433
0.000282797
0.000251736
0.000215354
0.000172266
0.00015572
0.000365061
0.000345919
0.00032291
0.000295523
0.00026316
0.000224719
0.000178008
0.000147395
0.000373408
0.00035448
0.000331376
0.000303585
0.000270417
0.000230648
0.000181687
0.00014305
0.000376202
0.000357387
0.000334274
0.000306355
0.000272915
0.00023269
0.000182969
0.000141736
0.000373407
0.000354478
0.000331373
0.000303581
0.000270413
0.000230644
0.000181684
0.000143051
0.000365059
0.000345914
0.000322902
0.000295515
0.000263151
0.000224711
0.000178002
0.000147397
0.000350782
0.000332024
0.00030942
0.000282782
0.00025172
0.000215338
0.000172251
0.000155723
0.000356976
0.000338561
0.000316305
0.000289898
0.000258823
0.000222018
0.000177841
0.000158742
0.000371002
0.000352201
0.000329551
0.000302453
0.000270182
0.000231449
0.000183773
0.000150703
0.000379251
0.000360656
0.000337913
0.000310437
0.000277417
0.000237431
0.000187575
0.000146531
0.000382023
0.000363537
0.000340787
0.00031319
0.000279914
0.000239496
0.000188902
0.000145277
0.000379257
0.000360658
0.000337913
0.000310435
0.000277413
0.000237425
0.000187568
0.000146529
0.000371016
0.000352207
0.00032955
0.000302448
0.000270174
0.00023144
0.000183763
0.0001507
0.000357
0.000338571
0.000316306
0.000289894
0.000258815
0.000222006
0.000177828
0.000158742
0.000387668
0.000372728
0.000354491
0.000332131
0.000304266
0.000268084
0.000216277
0.000188512
0.0003991
0.00038358
0.000364857
0.000342059
0.000313748
0.000277015
0.000223765
0.000178501
0.000406009
0.000390505
0.000371601
0.000348525
0.000319865
0.000282674
0.000228485
0.000173381
0.000408362
0.000392911
0.000373972
0.000350805
0.000322011
0.000284639
0.000230118
0.000171851
0.000406018
0.00039051
0.000371605
0.000348529
0.000319867
0.000282671
0.000228478
0.000173375
0.00039912
0.000383595
0.000364868
0.000342067
0.000313751
0.000277012
0.000223758
0.000178495
0.000387701
0.000372756
0.000354513
0.000332149
0.000304279
0.000268091
0.000216276
0.000188508
0.000348546
0.000329641
0.000306932
0.000280288
0.000249343
0.000213204
0.000170474
0.000153677
0.000362943
0.00034362
0.000320468
0.000293028
0.000260736
0.000222508
0.000176156
0.00014543
0.000371357
0.000352235
0.000328966
0.000301093
0.000267965
0.000228386
0.000179781
0.000141106
0.000374176
0.00035516
0.000331874
0.000303861
0.000270448
0.000230403
0.000181037
0.000139791
0.000371376
0.000352247
0.00032897
0.00030109
0.000267956
0.000228372
0.000179766
0.000141094
0.00036299
0.00034365
0.000320481
0.000293029
0.000260726
0.000222489
0.000176133
0.000145412
0.000348667
0.000329701
0.000306964
0.000280302
0.000249343
0.000213194
0.000170459
0.000153663
0.000348686
0.000329803
0.000307114
0.00028048
0.000249535
0.000213383
0.000170629
0.000153882
0.000363072
0.000343775
0.000320645
0.000293218
0.000260927
0.000222688
0.000176312
0.000145623
0.000371482
0.000352387
0.000329142
0.000301284
0.000268159
0.00022857
0.000179943
0.000141295
0.000374302
0.000355315
0.000332053
0.000304056
0.000270648
0.000230595
0.000181206
0.000139981
0.000371508
0.000352408
0.000329156
0.000301292
0.000268163
0.00022857
0.000179941
0.000141289
0.000363132
0.000343821
0.000320677
0.000293239
0.000260939
0.000222693
0.000176312
0.000145615
0.000348818
0.000329889
0.000307175
0.000280525
0.000249567
0.000213405
0.000170645
0.000153878
0.00034912
0.00033027
0.000307609
0.000280979
0.000250007
0.000213799
0.000170965
0.000154298
0.000363472
0.00034422
0.000321128
0.000293718
0.000261414
0.000223128
0.000176675
0.000146033
0.000371864
0.000352819
0.000329619
0.000301787
0.000268658
0.00022903
0.000180327
0.000141709
0.000374676
0.000355741
0.000332529
0.000304561
0.000271153
0.000231064
0.0001816
0.000140399
0.000371881
0.000352834
0.000329633
0.000301797
0.000268666
0.000229035
0.000180331
0.000141708
0.000363512
0.000344255
0.000321158
0.000293743
0.000261434
0.000223144
0.000176686
0.000146033
0.000349188
0.000330334
0.000307664
0.000281027
0.00025005
0.000213836
0.000170994
0.000154304
0.000350757
0.000331985
0.000309379
0.00028274
0.000251679
0.000215299
0.000172217
0.0001557
0.00036503
0.000345875
0.000322861
0.000295473
0.000263109
0.00022467
0.000177965
0.000147373
0.000373382
0.000354443
0.000331334
0.000303542
0.000270374
0.000230607
0.000181651
0.000143027
0.000376182
0.000357355
0.000334238
0.000306318
0.000272878
0.000232655
0.000182937
0.000141714
0.000373391
0.000354451
0.000331342
0.000303549
0.00027038
0.000230612
0.000181656
0.00014303
0.000365045
0.000345892
0.000322879
0.000295489
0.000263125
0.000224684
0.000177977
0.000147377
0.00035076
0.000332011
0.000309409
0.000282772
0.000251709
0.000215326
0.000172239
0.000155708
0.000357002
0.000338556
0.000316288
0.000289874
0.000258795
0.000221988
0.000177815
0.000158726
0.000371015
0.000352195
0.000329536
0.000302432
0.000270157
0.000231422
0.000183748
0.000150685
0.000379259
0.000360649
0.000337901
0.000310421
0.000277398
0.000237412
0.000187558
0.000146516
0.000382028
0.000363531
0.000340777
0.000313179
0.000279902
0.000239484
0.000188893
0.000145265
0.000379258
0.000360651
0.000337904
0.000310426
0.000277404
0.000237418
0.000187565
0.000146521
0.000371011
0.000352197
0.000329541
0.00030244
0.000270167
0.000231434
0.00018376
0.000150694
0.000356969
0.000338555
0.000316296
0.000289887
0.000258811
0.000222004
0.000177827
0.000158737
0.000387738
0.00037277
0.000354522
0.000332158
0.00030429
0.000268104
0.000216291
0.000188511
0.000399151
0.000383612
0.000364883
0.000342085
0.000313775
0.000277041
0.000223786
0.000178504
0.000406045
0.000390526
0.000371618
0.000348543
0.000319886
0.000282696
0.000228507
0.000173387
0.000408386
0.000392925
0.000373984
0.000350819
0.000322029
0.000284661
0.000230142
0.000171861
0.000406033
0.000390517
0.000371612
0.000348539
0.000319883
0.000282692
0.000228503
0.000173387
0.000399125
0.000383594
0.00036487
0.000342072
0.000313761
0.000277027
0.000223776
0.000178504
0.000387677
0.000372741
0.000354503
0.000332142
0.000304275
0.00026809
0.000216278
0.000188512
0.000132665
0.000285172
0.000359799
0.000406608
0.00043568
0.000451065
0.000454632
0.00044676
0.000132668
0.000285177
0.000359805
0.000406615
0.000435688
0.000451071
0.000454637
0.000446761
0.000132667
0.000285177
0.000359806
0.000406618
0.000435693
0.000451081
0.000454653
0.000446784
0.000132666
0.000285174
0.000359803
0.000406613
0.000435686
0.000451073
0.000454643
0.000446775
0.000132667
0.000285177
0.000359804
0.000406613
0.000435684
0.000451065
0.000454629
0.000446751
0.00013267
0.000285186
0.000359815
0.000406626
0.000435701
0.000451087
0.000454657
0.00044679
0.000132669
0.000285184
0.00035981
0.000406616
0.000435682
0.000451053
0.000454597
0.000446683
0.000132696
0.000284714
0.000359373
0.00040626
0.000435441
0.00045095
0.000454646
0.0004469
0.000132699
0.000284714
0.000359373
0.000406261
0.000435443
0.000450952
0.000454649
0.000446905
0.000132697
0.00028471
0.000359371
0.000406258
0.000435439
0.000450947
0.000454641
0.000446893
0.000132695
0.000284708
0.000359369
0.000406258
0.00043544
0.000450948
0.000454643
0.000446896
0.000132694
0.000284708
0.00035937
0.00040626
0.000435443
0.000450954
0.000454651
0.000446907
0.000132695
0.000284709
0.000359371
0.000406259
0.00043544
0.000450946
0.000454636
0.000446882
0.000132696
0.000284714
0.000359377
0.000406268
0.000435454
0.000450967
0.00045467
0.00044694
0.000132886
0.000284402
0.00035906
0.000406
0.000435277
0.000450911
0.000454744
0.000447145
0.000132885
0.000284404
0.000359063
0.000406005
0.000435281
0.000450914
0.000454746
0.000447145
0.000132884
0.000284404
0.000359064
0.000406006
0.000435283
0.000450917
0.000454751
0.000447151
0.000132883
0.000284402
0.000359062
0.000406004
0.000435282
0.000450916
0.000454751
0.000447151
0.000132882
0.000284401
0.000359062
0.000406004
0.000435282
0.000450916
0.000454749
0.000447147
0.000132883
0.000284402
0.000359063
0.000406007
0.000435285
0.00045092
0.000454753
0.000447153
0.000132882
0.0002844
0.000359063
0.000406006
0.000435283
0.000450914
0.000454742
0.000447136
0.000134245
0.000285627
0.000360023
0.000406647
0.000435718
0.000451269
0.000455116
0.000447601
0.000134246
0.000285634
0.000360029
0.000406651
0.00043572
0.000451271
0.000455117
0.000447603
0.000134247
0.000285637
0.000360031
0.00040665
0.000435719
0.000451269
0.000455115
0.000447599
0.000134246
0.000285638
0.000360031
0.00040665
0.000435718
0.000451268
0.000455115
0.0004476
0.000134247
0.000285637
0.000360031
0.00040665
0.000435719
0.00045127
0.000455116
0.000447601
0.000134247
0.000285635
0.000360029
0.00040665
0.000435719
0.000451269
0.000455114
0.000447599
0.000134247
0.000285632
0.000360027
0.000406651
0.000435721
0.000451271
0.000455117
0.000447602
0.000141529
0.000294491
0.000367249
0.000411424
0.000438592
0.000452951
0.000456162
0.000448389
0.000141512
0.000294492
0.000367251
0.000411424
0.000438591
0.000452952
0.000456162
0.000448388
0.000141498
0.000294493
0.000367252
0.000411423
0.000438591
0.000452951
0.000456163
0.00044839
0.00014149
0.000294489
0.000367249
0.000411419
0.000438587
0.000452948
0.00045616
0.000448387
0.000141496
0.000294487
0.000367246
0.000411418
0.000438586
0.000452948
0.00045616
0.000448387
0.000141508
0.000294481
0.000367239
0.000411413
0.000438584
0.000452946
0.000456158
0.000448385
0.000141528
0.000294482
0.000367237
0.000411412
0.000438584
0.000452946
0.000456157
0.000448384
0.000189927
0.000334354
0.000397641
0.00043187
0.000450721
0.000459425
0.00045935
0.000449899
0.000189766
0.000334318
0.000397623
0.000431868
0.000450724
0.000459429
0.000459354
0.0004499
0.000189668
0.000334307
0.00039762
0.00043187
0.000450725
0.000459429
0.000459353
0.0004499
0.000189632
0.000334294
0.000397609
0.000431861
0.000450717
0.000459423
0.000459349
0.000449897
0.000189662
0.0003343
0.00039761
0.000431859
0.000450715
0.000459422
0.000459349
0.000449897
0.000189756
0.000334312
0.00039761
0.000431853
0.000450711
0.000459419
0.000459347
0.000449896
0.000189917
0.000334354
0.000397629
0.000431858
0.000450714
0.000459422
0.000459349
0.000449897
0.000132663
0.000285171
0.000359798
0.000406608
0.000435683
0.00045107
0.000454641
0.000446773
0.000132665
0.000285173
0.0003598
0.00040661
0.000435684
0.00045107
0.000454639
0.000446768
0.000132664
0.000285173
0.0003598
0.00040661
0.000435684
0.000451071
0.000454641
0.00044677
0.000132664
0.000285173
0.0003598
0.000406609
0.000435683
0.000451069
0.000454639
0.000446768
0.000132664
0.000285172
0.000359799
0.000406609
0.000435683
0.00045107
0.00045464
0.00044677
0.000132664
0.00028517
0.000359798
0.000406609
0.000435684
0.000451072
0.000454644
0.000446777
0.000132663
0.000285169
0.000359796
0.000406606
0.000435679
0.000451066
0.000454636
0.000446765
0.000132694
0.000284712
0.000359371
0.000406257
0.000435438
0.000450947
0.000454643
0.000446896
0.000132696
0.000284711
0.000359369
0.000406257
0.000435438
0.000450948
0.000454644
0.0004469
0.000132695
0.000284708
0.000359368
0.000406256
0.000435437
0.000450947
0.000454644
0.000446899
0.000132693
0.000284706
0.000359366
0.000406254
0.000435437
0.000450947
0.000454644
0.000446899
0.000132692
0.000284702
0.000359363
0.000406252
0.000435435
0.000450945
0.000454643
0.000446899
0.00013269
0.000284699
0.00035936
0.00040625
0.000435433
0.000450944
0.000454641
0.000446896
0.000132691
0.000284699
0.000359361
0.000406251
0.000435435
0.000450947
0.000454646
0.000446902
0.000132884
0.0002844
0.000359058
0.000405999
0.000435277
0.000450912
0.000454747
0.000447149
0.000132883
0.0002844
0.000359059
0.000406001
0.000435278
0.000450912
0.000454746
0.000447147
0.000132881
0.0002844
0.00035906
0.000406001
0.000435279
0.000450913
0.000454748
0.000447148
0.000132881
0.000284399
0.000359059
0.000406
0.000435279
0.000450913
0.000454748
0.000447148
0.00013288
0.000284397
0.000359057
0.000406
0.000435279
0.000450914
0.000454749
0.000447149
0.00013288
0.000284394
0.000359055
0.000405999
0.000435279
0.000450915
0.00045475
0.000447151
0.00013288
0.000284392
0.000359053
0.000405998
0.000435278
0.000450914
0.000454749
0.000447149
0.000134244
0.000285625
0.000360022
0.000406646
0.000435717
0.000451269
0.000455116
0.000447602
0.000134244
0.000285632
0.000360026
0.000406648
0.000435718
0.000451269
0.000455116
0.000447602
0.000134245
0.000285635
0.000360028
0.000406648
0.000435717
0.000451267
0.000455114
0.0004476
0.000134245
0.000285636
0.000360029
0.000406648
0.000435717
0.000451268
0.000455115
0.000447601
0.000134246
0.000285635
0.000360028
0.000406648
0.000435717
0.000451268
0.000455115
0.000447601
0.000134246
0.000285632
0.000360025
0.000406647
0.000435716
0.000451268
0.000455116
0.000447602
0.000134247
0.000285629
0.000360023
0.000406646
0.000435716
0.000451268
0.000455116
0.000447602
0.000141529
0.000294491
0.00036725
0.000411424
0.000438592
0.000452952
0.000456163
0.000448391
0.000141513
0.000294492
0.00036725
0.000411423
0.000438591
0.000452951
0.000456161
0.000448388
0.000141499
0.000294494
0.000367252
0.000411422
0.00043859
0.00045295
0.000456162
0.000448389
0.000141492
0.000294491
0.00036725
0.00041142
0.000438588
0.000452949
0.00045616
0.000448387
0.0001415
0.000294491
0.000367249
0.00041142
0.000438588
0.000452949
0.000456161
0.000448389
0.000141514
0.000294487
0.000367244
0.000411416
0.000438586
0.000452949
0.000456161
0.000448389
0.000141536
0.00029449
0.000367242
0.000411416
0.000438586
0.000452948
0.00045616
0.000448387
0.000189925
0.000334356
0.000397644
0.000431872
0.000450722
0.000459426
0.000459352
0.0004499
0.000189766
0.000334319
0.000397625
0.000431869
0.000450724
0.000459429
0.000459353
0.000449899
0.00018967
0.000334308
0.000397621
0.00043187
0.000450725
0.000459428
0.000459352
0.000449898
0.000189637
0.000334298
0.000397613
0.000431863
0.000450719
0.000459425
0.00045935
0.000449897
0.000189672
0.000334306
0.000397616
0.000431863
0.000450719
0.000459424
0.00045935
0.000449897
0.00018977
0.000334321
0.000397619
0.00043186
0.000450716
0.000459424
0.00045935
0.000449897
0.000189934
0.000334365
0.00039764
0.000431866
0.000450719
0.000459425
0.000459351
0.000449897
0.000132664
0.000285169
0.000359797
0.000406607
0.000435682
0.000451068
0.000454638
0.000446767
0.000132664
0.00028517
0.000359798
0.000406609
0.000435685
0.000451073
0.000454646
0.000446778
0.000132664
0.00028517
0.000359797
0.000406607
0.000435681
0.000451068
0.000454639
0.000446769
0.000132664
0.000285171
0.000359798
0.000406607
0.000435681
0.000451067
0.000454637
0.000446766
0.000132665
0.000285172
0.000359799
0.000406609
0.000435683
0.00045107
0.00045464
0.00044677
0.000132666
0.000285173
0.000359799
0.000406608
0.000435681
0.000451067
0.000454636
0.000446765
0.000132669
0.000285178
0.000359805
0.000406615
0.00043569
0.000451077
0.000454649
0.00044678
0.000132691
0.000284699
0.000359361
0.00040625
0.000435434
0.000450946
0.000454645
0.000446902
0.000132691
0.0002847
0.000359361
0.00040625
0.000435433
0.000450944
0.000454641
0.000446896
0.000132691
0.000284701
0.000359362
0.000406252
0.000435435
0.000450946
0.000454644
0.0004469
0.000132692
0.000284702
0.000359363
0.000406252
0.000435435
0.000450946
0.000454644
0.0004469
0.000132692
0.000284702
0.000359363
0.000406251
0.000435434
0.000450944
0.000454641
0.000446897
0.000132693
0.000284704
0.000359363
0.000406251
0.000435434
0.000450944
0.000454641
0.000446897
0.000132697
0.000284704
0.000359363
0.000406251
0.000435432
0.000450941
0.000454638
0.000446892
0.00013288
0.000284392
0.000359054
0.000405998
0.000435278
0.000450914
0.000454749
0.000447149
0.00013288
0.000284394
0.000359055
0.000405999
0.000435278
0.000450914
0.00045475
0.000447151
0.00013288
0.000284395
0.000359055
0.000405998
0.000435277
0.000450913
0.000454749
0.00044715
0.00013288
0.000284397
0.000359056
0.000405998
0.000435277
0.000450912
0.000454747
0.000447148