/*--------------------------------*- C++ -*----------------------------------*\
| =========                 |                                                 |
| \\      /  F ield         | OpenFOAM: The Open Source CFD Toolbox           |
|  \\    /   O peration     | Version:  plus.master.MPPICInterFoam            |
|   \\  /    A nd           | Web:      www.OpenFOAM.com                      |
|    \\/     M anipulation  |                                                 |
\*---------------------------------------------------------------------------*/
FoamFile
{
    version     2.0;
    format      ascii;
    class       volScalarField;
    location    "2";
    object      p;
}
// * * * * * * * * * * * * * * * * * * * * * * * * * * * * * * * * * * * * * //

dimensions      [1 -1 -2 0 0 0 0];

internalField   nonuniform List<scalar> 
11822
(
760.888
760.888
760.889
760.89
760.89
760.891
760.891
760.887
760.887
760.888
760.89
760.89
760.891
760.891
760.888
760.888
760.89
760.891
760.892
760.893
760.893
760.889
760.889
760.891
760.892
760.893
760.894
760.894
760.889
760.889
760.891
760.893
760.894
760.895
760.895
760.889
760.89
760.892
760.893
760.894
760.895
760.896
760.89
760.89
760.892
760.894
760.895
760.895
760.896
662.168
662.17
662.172
662.173
662.173
662.172
662.17
662.169
662.172
662.175
662.176
662.176
662.175
662.173
662.171
662.174
662.177
662.179
662.179
662.177
662.175
662.172
662.175
662.178
662.18
662.18
662.179
662.176
662.172
662.175
662.178
662.18
662.18
662.179
662.176
662.17
662.173
662.177
662.178
662.178
662.177
662.175
662.168
662.171
662.174
662.175
662.175
662.174
662.173
563.472
563.48
563.486
563.488
563.487
563.482
563.475
563.48
563.488
563.494
563.497
563.495
563.491
563.483
563.485
563.494
563.5
563.503
563.502
563.497
563.489
563.487
563.496
563.503
563.506
563.505
563.5
563.491
563.485
563.494
563.501
563.504
563.503
563.498
563.49
563.48
563.489
563.496
563.499
563.498
563.493
563.486
563.473
563.482
563.488
563.49
563.489
563.485
563.478
464.82
464.839
464.852
464.857
464.853
464.842
464.825
464.839
464.859
464.872
464.877
464.874
464.862
464.843
464.851
464.872
464.886
464.891
464.887
464.875
464.856
464.856
464.876
464.89
464.896
464.892
464.88
464.86
464.852
464.873
464.886
464.892
464.888
464.876
464.857
464.841
464.861
464.874
464.879
464.876
464.864
464.846
464.822
464.842
464.854
464.859
464.856
464.845
464.828
366.218
366.266
366.295
366.305
366.296
366.268
366.221
366.266
366.314
366.343
366.354
366.344
366.316
366.269
366.295
366.343
366.373
366.384
366.374
366.345
366.297
366.304
366.353
366.383
366.394
366.384
366.355
366.307
366.295
366.343
366.373
366.384
366.374
366.345
366.298
366.266
366.314
366.344
366.354
366.345
366.316
366.27
366.219
366.267
366.296
366.306
366.297
366.269
366.222
267.848
267.937
267.99
268.008
267.991
267.938
267.85
267.937
268.025
268.08
268.098
268.081
268.027
267.939
267.99
268.08
268.135
268.154
268.136
268.082
267.992
268.007
268.098
268.154
268.172
268.155
268.1
268.01
267.99
268.08
268.136
268.155
268.137
268.082
267.992
267.937
268.026
268.081
268.1
268.082
268.028
267.94
267.848
267.938
267.991
268.009
267.992
267.939
267.851
760.892
760.893
760.895
760.896
760.898
760.899
760.9
760.9
760.892
760.893
760.895
760.897
760.899
760.9
760.902
760.903
760.894
760.895
760.897
760.899
760.901
760.903
760.904
760.906
760.895
760.896
760.898
760.901
760.903
760.905
760.906
760.908
760.896
760.897
760.899
760.901
760.903
760.905
760.907
760.908
760.896
760.897
760.899
760.901
760.903
760.905
760.906
760.907
760.896
760.898
760.899
760.901
760.903
760.904
760.905
760.906
662.168
662.166
662.164
662.163
662.162
662.162
662.162
662.162
662.17
662.167
662.165
662.164
662.163
662.163
662.163
662.164
662.172
662.169
662.168
662.166
662.165
662.165
662.165
662.166
662.173
662.171
662.169
662.168
662.167
662.166
662.166
662.167
662.173
662.171
662.169
662.168
662.167
662.167
662.167
662.167
662.172
662.17
662.168
662.167
662.166
662.166
662.166
662.167
662.17
662.169
662.167
662.166
662.166
662.165
662.166
662.166
563.467
563.46
563.453
563.447
563.443
563.44
563.438
563.438
563.474
563.466
563.458
563.451
563.445
563.441
563.439
563.439
563.479
563.47
563.462
563.454
563.447
563.443
563.44
563.44
563.482
563.473
563.464
563.456
563.449
563.444
563.441
563.441
563.48
563.472
563.463
563.455
563.449
563.444
563.442
563.441
563.476
563.468
563.46
563.453
563.448
563.444
563.442
563.441
563.47
563.463
563.456
563.45
563.446
563.443
563.441
563.441
464.803
464.784
464.764
464.745
464.728
464.716
464.708
464.704
464.82
464.798
464.775
464.753
464.733
464.718
464.708
464.704
464.831
464.807
464.783
464.758
464.737
464.72
464.709
464.705
464.836
464.811
464.786
464.761
464.739
464.721
464.71
464.705
464.832
464.808
464.784
464.759
464.738
464.721
464.71
464.706
464.822
464.8
464.777
464.754
464.735
464.72
464.711
464.707
464.806
464.786
464.766
464.747
464.731
464.718
464.711
464.707
366.164
366.11
366.054
366
365.953
365.917
365.895
365.884
366.21
366.15
366.088
366.027
365.972
365.928
365.901
365.887
366.237
366.176
366.111
366.046
365.985
365.936
365.905
365.888
366.247
366.185
366.119
366.053
365.99
365.939
365.906
365.889
366.238
366.177
366.112
366.047
365.986
365.937
365.906
365.889
366.21
366.151
366.09
366.029
365.974
365.931
365.903
365.889
366.164
366.111
366.056
366.002
365.955
365.919
365.898
365.887
267.742
267.635
267.516
267.393
267.274
267.172
267.1
267.076
267.826
267.707
267.576
267.438
267.301
267.179
267.091
267.057
267.876
267.753
267.615
267.468
267.319
267.184
267.083
267.043
267.894
267.769
267.629
267.478
267.326
267.185
267.08
267.038
267.877
267.753
267.616
267.468
267.32
267.184
267.084
267.043
267.827
267.708
267.577
267.439
267.302
267.18
267.091
267.058
267.744
267.637
267.517
267.394
267.276
267.173
267.101
267.078
760.889
760.89
760.891
760.893
760.894
760.895
760.896
760.897
760.888
760.889
760.89
760.892
760.894
760.895
760.896
760.897
760.888
760.889
760.891
760.893
760.895
760.896
760.898
760.899
760.888
760.889
760.891
760.893
760.895
760.897
760.898
760.899
760.887
760.889
760.891
760.893
760.894
760.896
760.897
760.898
760.887
760.888
760.89
760.892
760.893
760.895
760.896
760.897
760.886
760.888
760.89
760.891
760.893
760.894
760.895
760.896
662.164
662.162
662.161
662.159
662.158
662.158
662.158
662.158
662.166
662.163
662.161
662.16
662.159
662.158
662.158
662.159
662.167
662.165
662.163
662.161
662.159
662.159
662.159
662.159
662.168
662.165
662.163
662.161
662.16
662.159
662.159
662.16
662.167
662.165
662.163
662.161
662.159
662.159
662.159
662.159
662.166
662.163
662.161
662.16
662.159
662.158
662.158
662.159
662.164
662.162
662.16
662.159
662.158
662.157
662.158
662.158
563.463
563.456
563.449
563.443
563.439
563.435
563.434
563.433
563.47
563.461
563.453
563.446
563.44
563.436
563.434
563.434
563.475
563.465
563.457
563.449
563.442
563.437
563.434
563.434
563.476
563.467
563.458
563.449
563.442
563.437
563.434
563.434
563.474
563.465
563.456
563.448
563.442
563.437
563.434
563.433
563.469
563.461
563.453
563.446
563.44
563.436
563.434
563.433
563.462
563.456
563.449
563.443
563.438
563.435
563.433
563.433
464.8
464.78
464.76
464.741
464.724
464.712
464.704
464.7
464.816
464.793
464.77
464.748
464.729
464.713
464.704
464.7
464.827
464.803
464.778
464.753
464.731
464.714
464.704
464.699
464.83
464.805
464.78
464.755
464.732
464.714
464.703
464.698
464.826
464.802
464.777
464.752
464.731
464.714
464.703
464.698
464.815
464.792
464.769
464.747
464.727
464.712
464.703
464.699
464.797
464.778
464.758
464.739
464.722
464.71
464.702
464.699
366.161
366.107
366.051
365.997
365.949
365.914
365.892
365.881
366.206
366.147
366.085
366.024
365.968
365.924
365.897
365.883
366.234
366.172
366.107
366.041
365.98
365.931
365.9
365.883
366.243
366.181
366.114
366.047
365.985
365.934
365.9
365.883
366.233
366.171
366.106
366.041
365.98
365.931
365.899
365.882
366.205
366.146
366.084
366.023
365.967
365.924
365.896
365.882
366.159
366.105
366.05
365.996
365.948
365.912
365.891
365.88
267.74
267.633
267.514
267.391
267.272
267.169
267.098
267.074
267.823
267.704
267.573
267.435
267.298
267.176
267.088
267.054
267.874
267.75
267.612
267.465
267.316
267.18
267.079
267.039
267.891
267.766
267.625
267.475
267.322
267.181
267.076
267.033
267.874
267.75
267.612
267.464
267.316
267.18
267.079
267.039
267.823
267.704
267.572
267.435
267.298
267.175
267.087
267.053
267.74
267.633
267.513
267.39
267.271
267.168
267.097
267.073
760.887
760.889
760.89
760.892
760.893
760.894
760.896
760.896
760.887
760.889
760.89
760.892
760.894
760.895
760.897
760.898
760.888
760.89
760.891
760.894
760.895
760.897
760.899
760.9
760.889
760.891
760.893
760.895
760.897
760.899
760.9
760.901
760.889
760.891
760.893
760.895
760.897
760.899
760.901
760.902
760.89
760.891
760.893
760.895
760.897
760.899
760.9
760.901
760.889
760.891
760.893
760.895
760.897
760.898
760.9
760.901
662.164
662.163
662.161
662.159
662.158
662.158
662.158
662.158
662.166
662.164
662.162
662.16
662.159
662.159
662.159
662.159
662.168
662.165
662.163
662.162
662.16
662.16
662.16
662.161
662.169
662.167
662.165
662.163
662.162
662.161
662.161
662.162
662.169
662.167
662.165
662.163
662.162
662.162
662.162
662.162
662.168
662.166
662.164
662.163
662.162
662.162
662.162
662.162
662.166
662.165
662.163
662.162
662.161
662.161
662.162
662.162
563.463
563.456
563.449
563.443
563.438
563.435
563.434
563.433
563.47
563.462
563.454
563.447
563.441
563.437
563.435
563.434
563.475
563.466
563.457
563.449
563.443
563.438
563.436
563.435
563.477
563.468
563.459
563.451
563.444
563.439
563.436
563.436
563.476
563.468
563.459
563.451
563.444
563.44
563.437
563.437
563.472
563.464
563.456
563.449
563.444
563.44
563.437
563.437
563.465
563.459
563.452
563.447
563.442
563.439
563.437
563.437
464.798
464.778
464.758
464.739
464.723
464.71
464.703
464.7
464.815
464.793
464.77
464.748
464.728
464.713
464.704
464.7
464.827
464.803
464.778
464.754
464.732
464.715
464.704
464.7
464.832
464.807
464.782
464.757
464.734
464.716
464.705
464.701
464.828
464.805
464.78
464.755
464.734
464.717
464.706
464.702
464.818
464.796
464.773
464.751
464.731
464.716
464.707
464.703
464.802
464.783
464.763
464.744
464.727
464.715
464.707
464.704
366.159
366.105
366.05
365.996
365.948
365.912
365.891
365.88
366.206
366.146
366.084
366.023
365.968
365.924
365.897
365.883
366.234
366.172
366.107
366.042
365.981
365.932
365.9
365.884
366.244
366.182
366.116
366.049
365.986
365.936
365.902
365.885
366.235
366.174
366.109
366.043
365.983
365.934
365.902
365.885
366.208
366.149
366.087
366.026
365.971
365.927
365.9
365.885
366.163
366.109
366.054
366
365.952
365.917
365.895
365.884
267.74
267.633
267.513
267.39
267.271
267.168
267.097
267.073
267.823
267.704
267.573
267.435
267.298
267.176
267.087
267.054
267.874
267.75
267.612
267.465
267.316
267.18
267.08
267.039
267.891
267.766
267.626
267.475
267.323
267.182
267.077
267.034
267.875
267.751
267.613
267.466
267.317
267.181
267.081
267.04
267.825
267.706
267.575
267.437
267.3
267.178
267.089
267.056
267.741
267.635
267.516
267.393
267.274
267.171
267.099
267.076
760.896
760.897
760.899
760.9
760.902
760.903
760.905
760.906
760.895
760.897
760.898
760.9
760.902
760.904
760.905
760.906
760.895
760.897
760.898
760.9
760.902
760.904
760.906
760.907
760.894
760.896
760.898
760.9
760.902
760.904
760.905
760.906
760.893
760.894
760.896
760.898
760.9
760.902
760.904
760.905
760.891
760.892
760.894
760.896
760.898
760.9
760.901
760.902
760.889
760.891
760.893
760.894
760.896
760.897
760.899
760.9
662.17
662.168
662.167
662.166
662.165
662.165
662.165
662.166
662.171
662.169
662.168
662.166
662.165
662.165
662.165
662.166
662.172
662.17
662.168
662.167
662.166
662.165
662.165
662.166
662.172
662.17
662.168
662.166
662.165
662.165
662.165
662.165
662.171
662.168
662.166
662.165
662.164
662.163
662.163
662.164
662.168
662.166
662.164
662.163
662.162
662.161
662.162
662.162
662.165
662.164
662.162
662.161
662.16
662.16
662.16
662.161
563.469
563.462
563.456
563.45
563.445
563.442
563.441
563.44
563.476
563.467
563.46
563.453
563.447
563.443
563.441
563.44
563.48
563.471
563.462
563.454
563.448
563.443
563.44
563.44
563.48
563.471
563.462
563.454
563.447
563.442
563.439
563.439
563.478
563.469
563.46
563.452
563.445
563.441
563.438
563.438
563.472
563.464
563.456
563.449
563.443
563.439
563.437
563.436
563.464
563.457
563.451
563.445
563.44
563.437
563.435
563.435
464.806
464.786
464.766
464.747
464.73
464.718
464.71
464.707
464.822
464.799
464.776
464.754
464.735
464.719
464.71
464.706
464.832
464.808
464.783
464.759
464.737
464.72
464.709
464.704
464.835
464.81
464.784
464.759
464.737
464.719
464.708
464.703
464.83
464.806
464.78
464.756
464.734
464.717
464.707
464.702
464.818
464.795
464.772
464.75
464.73
464.715
464.706
464.702
464.8
464.781
464.761
464.741
464.725
464.712
464.705
464.702
366.164
366.111
366.055
366.002
365.955
365.919
365.898
365.887
366.21
366.15
366.089
366.028
365.973
365.93
365.902
365.888
366.237
366.176
366.111
366.046
365.985
365.936
365.904
365.888
366.246
366.184
366.118
366.051
365.989
365.938
365.905
365.887
366.236
366.174
366.109
366.044
365.984
365.935
365.903
365.886
366.207
366.148
366.086
366.025
365.97
365.927
365.899
365.885
366.161
366.107
366.052
365.998
365.95
365.915
365.893
365.882
267.743
267.637
267.517
267.394
267.276
267.173
267.101
267.078
267.826
267.707
267.576
267.439
267.302
267.18
267.091
267.058
267.876
267.753
267.615
267.468
267.319
267.184
267.083
267.043
267.893
267.768
267.628
267.477
267.325
267.184
267.08
267.037
267.875
267.752
267.614
267.467
267.318
267.182
267.082
267.041
267.825
267.705
267.574
267.436
267.3
267.177
267.089
267.056
267.74
267.634
267.514
267.391
267.272
267.169
267.098
267.075
744.283
744.286
744.289
744.292
744.295
744.297
744.299
744.3
744.284
744.286
744.289
744.292
744.295
744.298
744.3
744.301
744.284
744.287
744.29
744.293
744.296
744.298
744.3
744.301
744.284
744.287
744.29
744.293
744.296
744.298
744.3
744.301
744.285
744.288
744.291
744.294
744.297
744.299
744.301
744.303
744.285
744.288
744.291
744.294
744.297
744.299
744.299
744.298
744.285
744.288
744.291
744.295
744.298
744.3
744.302
744.303
647.248
647.253
647.259
647.265
647.271
647.275
647.277
647.279
647.248
647.254
647.26
647.266
647.271
647.276
647.278
647.28
647.249
647.254
647.26
647.266
647.272
647.276
647.279
647.281
647.249
647.254
647.26
647.267
647.272
647.277
647.28
647.282
647.249
647.254
647.261
647.267
647.273
647.278
647.281
647.283
647.249
647.255
647.261
647.268
647.274
647.279
647.283
647.286
647.249
647.255
647.261
647.268
647.274
647.279
647.282
647.285
550.197
550.209
550.223
550.237
550.248
550.255
550.259
550.26
550.197
550.21
550.224
550.238
550.249
550.256
550.26
550.261
550.197
550.21
550.224
550.238
550.249
550.256
550.26
550.261
550.198
550.21
550.225
550.239
550.25
550.257
550.26
550.261
550.198
550.21
550.225
550.239
550.25
550.257
550.261
550.262
550.198
550.211
550.225
550.24
550.251
550.258
550.262
550.263
550.198
550.211
550.226
550.24
550.251
550.259
550.262
550.264
453.113
453.149
453.185
453.213
453.233
453.243
453.246
453.245
453.113
453.149
453.185
453.214
453.233
453.243
453.247
453.245
453.113
453.149
453.185
453.214
453.233
453.243
453.247
453.245
453.114
453.149
453.185
453.214
453.233
453.243
453.247
453.246
453.114
453.15
453.186
453.214
453.234
453.244
453.247
453.246
453.115
453.15
453.186
453.215
453.234
453.245
453.248
453.247
453.115
453.151
453.186
453.215
453.235
453.245
453.249
453.248
356.129
356.137
356.174
356.211
356.235
356.246
356.245
356.236
356.13
356.137
356.174
356.211
356.236
356.246
356.245
356.238
356.13
356.137
356.174
356.211
356.236
356.246
356.245
356.237
356.13
356.137
356.174
356.211
356.236
356.246
356.245
356.237
356.13
356.137
356.174
356.211
356.236
356.247
356.246
356.238
356.131
356.137
356.175
356.212
356.237
356.247
356.247
356.239
356.131
356.138
356.175
356.212
356.237
356.248
356.247
356.239
258.081
258.48
258.904
259.138
259.237
259.264
259.258
259.237
258.08
258.479
258.902
259.137
259.237
259.264
259.257
259.236
258.078
258.478
258.901
259.137
259.236
259.264
259.257
259.236
258.078
258.478
258.9
259.136
259.236
259.264
259.257
259.236
258.078
258.479
258.901
259.137
259.237
259.264
259.258
259.236
258.08
258.48
258.903
259.138
259.238
259.265
259.258
259.237
258.081
258.481
258.906
259.14
259.239
259.266
259.259
259.237
744.282
744.285
744.288
744.291
744.294
744.296
744.298
744.3
744.282
744.284
744.287
744.29
744.293
744.296
744.297
744.299
744.281
744.284
744.287
744.289
744.292
744.294
744.296
744.297
744.28
744.283
744.286
744.289
744.292
744.294
744.296
744.297
744.28
744.283
744.286
744.289
744.291
744.294
744.295
744.296
744.28
744.282
744.285
744.288
744.291
744.294
744.295
744.297
744.28
744.282
744.285
744.288
744.291
744.293
744.295
744.297
647.247
647.253
647.259
647.265
647.27
647.274
647.277
647.279
647.247
647.252
647.258
647.264
647.27
647.274
647.276
647.278
647.246
647.251
647.257
647.263
647.269
647.273
647.276
647.278
647.245
647.25
647.256
647.263
647.268
647.273
647.275
647.277
647.245
647.25
647.256
647.262
647.268
647.272
647.275
647.277
647.244
647.25
647.256
647.262
647.268
647.272
647.275
647.276
647.244
647.249
647.256
647.262
647.268
647.272
647.275
647.276
550.196
550.209
550.223
550.237
550.248
550.255
550.259
550.26
550.196
550.208
550.223
550.237
550.247
550.254
550.258
550.259
550.195
550.207
550.222
550.236
550.247
550.254
550.257
550.258
550.194
550.207
550.221
550.235
550.246
550.253
550.257
550.258
550.194
550.207
550.221
550.235
550.246
550.253
550.256
550.257
550.194
550.206
550.221
550.235
550.246
550.253
550.256
550.257
550.194
550.206
550.221
550.235
550.246
550.253
550.256
550.257
453.113
453.149
453.185
453.214
453.233
453.243
453.246
453.245
453.112
453.148
453.184
453.213
453.232
453.242
453.245
453.244
453.112
453.147
453.183
453.212
453.231
453.241
453.245
453.243
453.111
453.146
453.182
453.211
453.23
453.24
453.244
453.243
453.111
453.146
453.182
453.211
453.23
453.24
453.244
453.243
453.111
453.146
453.182
453.211
453.23
453.24
453.244
453.242
453.111
453.147
453.182
453.211
453.23
453.24
453.244
453.242
356.13
356.137
356.174
356.211
356.236
356.246
356.245
356.237
356.129
356.136
356.173
356.21
356.235
356.245
356.245
356.237
356.129
356.135
356.172
356.209
356.234
356.245
356.244
356.236
356.128
356.135
356.171
356.208
356.233
356.244
356.243
356.235
356.128
356.134
356.171
356.208
356.233
356.244
356.243
356.235
356.128
356.134
356.171
356.209
356.233
356.244
356.243
356.235
356.127
356.134
356.172
356.209
356.234
356.244
356.243
356.235
258.081
258.481
258.905
259.139
259.238
259.265
259.259
259.238
258.079
258.479
258.902
259.137
259.237
259.264
259.257
259.235
258.077
258.477
258.9
259.136
259.235
259.263
259.257
259.235
258.076
258.476
258.899
259.135
259.235
259.262
259.256
259.235
258.077
258.477
258.899
259.135
259.235
259.262
259.256
259.234
258.078
258.478
258.901
259.136
259.235
259.263
259.256
259.235
258.079
258.479
258.903
259.137
259.236
259.263
259.256
259.235
744.28
744.282
744.285
744.288
744.291
744.293
744.295
744.296
744.28
744.282
744.285
744.288
744.291
744.293
744.295
744.296
744.28
744.283
744.286
744.289
744.291
744.294
744.295
744.297
744.28
744.283
744.286
744.289
744.292
744.294
744.296
744.298
744.281
744.283
744.286
744.289
744.292
744.294
744.296
744.298
744.281
744.284
744.287
744.29
744.293
744.295
744.296
744.297
744.282
744.285
744.288
744.291
744.294
744.296
744.298
744.299
647.244
647.249
647.256
647.262
647.268
647.272
647.275
647.276
647.244
647.249
647.256
647.262
647.268
647.272
647.275
647.276
647.244
647.25
647.256
647.262
647.268
647.272
647.275
647.276
647.245
647.25
647.256
647.262
647.268
647.272
647.275
647.276
647.245
647.25
647.257
647.263
647.268
647.273
647.275
647.277
647.246
647.251
647.257
647.264
647.269
647.274
647.276
647.278
647.247
647.252
647.258
647.264
647.27
647.274
647.277
647.279
550.194
550.206
550.221
550.235
550.246
550.253
550.256
550.257
550.194
550.206
550.221
550.235
550.246
550.253
550.256
550.257
550.194
550.206
550.221
550.235
550.246
550.253
550.256
550.257
550.194
550.206
550.221
550.235
550.246
550.253
550.256
550.257
550.194
550.207
550.221
550.235
550.246
550.253
550.257
550.258
550.195
550.208
550.222
550.236
550.247
550.254
550.257
550.258
550.196
550.209
550.223
550.237
550.248
550.255
550.258
550.259
453.111
453.147
453.182
453.211
453.23
453.24
453.243
453.242
453.111
453.146
453.182
453.211
453.23
453.24
453.243
453.242
453.11
453.146
453.182
453.211
453.23
453.24
453.243
453.242
453.111
453.146
453.182
453.211
453.23
453.24
453.243
453.242
453.111
453.147
453.182
453.211
453.23
453.24
453.244
453.243
453.112
453.147
453.183
453.212
453.231
453.241
453.244
453.243
453.113
453.148
453.184
453.213
453.232
453.242
453.245
453.244
356.127
356.134
356.172
356.209
356.234
356.244
356.243
356.235
356.127
356.134
356.171
356.208
356.233
356.244
356.243
356.235
356.127
356.134
356.171
356.208
356.233
356.243
356.242
356.234
356.127
356.134
356.171
356.208
356.233
356.243
356.243
356.234
356.128
356.134
356.171
356.208
356.233
356.244
356.243
356.235
356.128
356.135
356.172
356.209
356.234
356.245
356.244
356.235
356.129
356.136
356.173
356.21
356.235
356.246
356.245
356.237
258.079
258.479
258.903
259.137
259.236
259.263
259.256
259.234
258.078
258.478
258.901
259.136
259.235
259.262
259.255
259.234
258.076
258.476
258.899
259.134
259.234
259.262
259.255
259.234
258.076
258.476
258.898
259.134
259.234
259.261
259.255
259.234
258.076
258.476
258.899
259.135
259.234
259.262
259.255
259.234
258.078
258.478
258.901
259.136
259.236
259.263
259.256
259.235
258.08
258.48
258.904
259.138
259.237
259.264
259.256
259.234
744.285
744.288
744.291
744.295
744.298
744.301
744.304
744.306
744.285
744.288
744.291
744.294
744.298
744.3
744.303
744.305
744.285
744.288
744.291
744.295
744.298
744.3
744.303
744.304
744.284
744.287
744.29
744.293
744.296
744.299
744.301
744.302
744.284
744.287
744.29
744.293
744.296
744.298
744.299
744.301
744.284
744.287
744.289
744.293
744.295
744.298
744.299
744.3
744.283
744.286
744.289
744.292
744.295
744.297
744.299
744.3
647.249
647.255
647.261
647.268
647.274
647.278
647.281
647.283
647.249
647.255
647.261
647.268
647.274
647.278
647.281
647.282
647.249
647.254
647.261
647.267
647.273
647.277
647.28
647.282
647.249
647.254
647.26
647.267
647.272
647.277
647.279
647.281
647.249
647.254
647.26
647.266
647.272
647.276
647.279
647.281
647.248
647.253
647.26
647.266
647.272
647.276
647.279
647.281
647.248
647.253
647.259
647.265
647.271
647.275
647.278
647.28
550.198
550.211
550.226
550.24
550.251
550.259
550.263
550.264
550.198
550.211
550.226
550.24
550.251
550.258
550.263
550.264
550.198
550.211
550.225
550.239
550.25
550.258
550.261
550.263
550.198
550.21
550.225
550.239
550.25
550.257
550.261
550.262
550.197
550.21
550.225
550.239
550.25
550.257
550.26
550.261
550.197
550.21
550.224
550.238
550.249
550.256
550.26
550.261
550.197
550.21
550.224
550.238
550.249
550.256
550.259
550.26
453.115
453.151
453.187
453.215
453.235
453.245
453.249
453.248
453.115
453.15
453.186
453.215
453.234
453.245
453.248
453.248
453.114
453.15
453.186
453.215
453.234
453.244
453.248
453.247
453.114
453.15
453.186
453.214
453.233
453.244
453.247
453.246
453.114
453.15
453.185
453.214
453.233
453.244
453.247
453.246
453.114
453.15
453.186
453.214
453.233
453.244
453.247
453.246
453.114
453.15
453.185
453.214
453.233
453.243
453.247
453.245
356.131
356.138
356.175
356.212
356.237
356.248
356.247
356.239
356.131
356.138
356.175
356.212
356.237
356.248
356.247
356.239
356.131
356.137
356.174
356.212
356.237
356.247
356.246
356.238
356.131
356.137
356.174
356.211
356.236
356.247
356.246
356.238
356.131
356.137
356.174
356.211
356.236
356.247
356.246
356.238
356.131
356.137
356.174
356.211
356.236
356.247
356.246
356.238
356.13
356.137
356.174
356.211
356.237
356.247
356.247
356.239
258.082
258.482
258.906
259.14
259.239
259.266
259.259
259.237
258.08
258.481
258.904
259.139
259.238
259.265
259.259
259.237
258.079
258.479
258.902
259.137
259.237
259.265
259.258
259.237
258.078
258.478
258.901
259.137
259.237
259.265
259.258
259.237
258.079
258.479
258.901
259.137
259.237
259.265
259.258
259.237
258.08
258.48
258.903
259.138
259.238
259.265
259.259
259.238
258.081
258.481
258.905
259.139
259.238
259.265
259.258
259.236
841.169
841.261
841.275
744.301
744.302
744.303
744.303
744.304
744.304
744.305
744.306
744.302
744.302
744.303
744.303
744.304
744.304
744.305
744.306
744.302
744.303
744.303
744.304
744.304
744.305
744.305
744.306
744.302
744.302
744.303
744.303
744.303
744.304
744.304
744.305
744.303
744.304
744.304
744.305
744.305
744.306
744.307
744.308
744.294
744.289
744.283
744.274
744.264
744.254
744.247
744.246
744.301
744.299
744.296
744.293
744.289
744.288
744.292
744.291
647.279
647.28
647.28
647.28
647.281
647.282
647.283
647.285
647.28
647.281
647.281
647.281
647.282
647.283
647.284
647.286
647.281
647.282
647.282
647.282
647.283
647.284
647.285
647.287
647.282
647.283
647.283
647.284
647.284
647.285
647.286
647.288
647.283
647.284
647.285
647.285
647.286
647.287
647.288
647.29
647.288
647.29
647.291
647.292
647.292
647.291
647.289
647.285
647.286
647.287
647.288
647.289
647.289
647.289
647.29
647.29
550.26
550.259
550.258
550.258
550.257
550.257
550.258
550.259
550.26
550.26
550.259
550.258
550.258
550.259
550.259
550.26
550.261
550.26
550.259
550.259
550.259
550.259
550.26
550.26
550.261
550.26
550.259
550.259
550.259
550.259
550.26
550.261
550.262
550.261
550.26
550.26
550.26
550.261
550.261
550.262
550.262
550.261
550.261
550.26
550.26
550.261
550.262
550.262
550.263
550.262
550.262
550.261
550.261
550.262
550.263
550.263
453.242
453.239
453.237
453.235
453.234
453.233
453.234
453.235
453.242
453.239
453.237
453.234
453.233
453.232
453.233
453.234
453.242
453.24
453.237
453.235
453.234
453.233
453.234
453.235
453.243
453.24
453.238
453.235
453.234
453.234
453.234
453.235
453.244
453.241
453.238
453.236
453.235
453.235
453.235
453.236
453.244
453.242
453.239
453.237
453.236
453.235
453.236
453.237
453.245
453.243
453.24
453.238
453.237
453.236
453.237
453.238
356.227
356.219
356.212
356.207
356.203
356.201
356.201
356.204
356.229
356.222
356.215
356.21
356.206
356.203
356.204
356.207
356.228
356.221
356.214
356.209
356.205
356.203
356.203
356.207
356.228
356.221
356.214
356.209
356.205
356.203
356.203
356.207
356.229
356.222
356.215
356.21
356.206
356.204
356.204
356.208
356.23
356.223
356.216
356.211
356.207
356.205
356.205
356.208
356.23
356.223
356.217
356.211
356.207
356.205
356.206
356.209
259.216
259.2
259.185
259.173
259.164
259.159
259.158
259.161
259.214
259.198
259.184
259.172
259.163
259.158
259.157
259.16
259.215
259.199
259.185
259.173
259.164
259.159
259.158
259.161
259.215
259.199
259.185
259.173
259.164
259.159
259.158
259.161
259.215
259.199
259.185
259.173
259.164
259.159
259.158
259.161
259.216
259.2
259.185
259.173
259.164
259.159
259.159
259.162
259.216
259.2
259.185
259.174
259.165
259.16
259.159
259.162
744.3
744.301
744.302
744.302
744.303
744.303
744.304
744.305
744.3
744.3
744.301
744.301
744.302
744.303
744.303
744.304
744.298
744.298
744.299
744.299
744.3
744.3
744.301
744.302
744.298
744.298
744.298
744.299
744.299
744.3
744.3
744.301
744.297
744.297
744.298
744.298
744.299
744.299
744.3
744.3
744.298
744.298
744.299
744.299
744.3
744.3
744.301
744.301
744.297
744.298
744.299
744.299
744.3
744.3
744.301
744.302
647.279
647.279
647.28
647.28
647.281
647.282
647.283
647.285
647.278
647.279
647.279
647.279
647.28
647.281
647.282
647.284
647.278
647.279
647.279
647.28
647.28
647.281
647.282
647.284
647.278
647.278
647.279
647.279
647.28
647.281
647.282
647.283
647.277
647.278
647.278
647.279
647.279
647.28
647.281
647.283
647.277
647.277
647.277
647.278
647.278
647.279
647.281
647.282
647.277
647.277
647.277
647.277
647.278
647.279
647.28
647.282
550.26
550.259
550.258
550.257
550.257
550.257
550.258
550.259
550.259
550.258
550.257
550.257
550.257
550.257
550.258
550.258
550.258
550.257
550.257
550.256
550.256
550.256
550.257
550.257
550.257
550.257
550.256
550.255
550.255
550.256
550.256
550.257
550.257
550.256
550.255
550.255
550.255
550.255
550.256
550.256
550.257
550.256
550.255
550.255
550.255
550.255
550.256
550.256
550.257
550.256
550.255
550.255
550.255
550.255
550.256
550.256
453.242
453.24
453.237
453.235
453.234
453.233
453.234
453.235
453.241
453.238
453.235
453.233
453.232
453.231
453.232
453.233
453.24
453.238
453.235
453.233
453.231
453.231
453.232
453.233
453.24
453.237
453.235
453.232
453.231
453.231
453.231
453.232
453.239
453.237
453.234
453.232
453.231
453.23
453.231
453.232
453.239
453.236
453.234
453.232
453.23
453.23
453.231
453.232
453.239
453.236
453.234
453.232
453.23
453.23
453.231
453.231
356.227
356.22
356.213
356.207
356.203
356.201
356.201
356.205
356.228
356.221
356.214
356.209
356.205
356.203
356.203
356.206
356.227
356.219
356.213
356.207
356.203
356.201
356.202
356.205
356.226
356.219
356.212
356.207
356.203
356.201
356.201
356.205
356.226
356.219
356.212
356.207
356.203
356.2
356.201
356.204
356.226
356.219
356.212
356.206
356.202
356.2
356.201
356.204
356.226
356.219
356.212
356.206
356.202
356.2
356.201
356.204
259.217
259.201
259.186
259.174
259.165
259.16
259.159
259.162
259.214
259.198
259.183
259.171
259.162
259.157
259.157
259.16
259.214
259.198
259.184
259.172
259.163
259.158
259.157
259.16
259.213
259.197
259.183
259.171
259.162
259.157
259.156
259.159
259.213
259.197
259.183
259.171
259.162
259.157
259.156
259.159
259.213
259.197
259.183
259.171
259.162
259.157
259.156
259.159
259.213
259.197
259.183
259.171
259.162
259.156
259.156
259.159
744.296
744.296
744.297
744.297
744.298
744.298
744.299
744.3
744.297
744.297
744.298
744.298
744.298
744.299
744.299
744.3
744.297
744.298
744.298
744.299
744.299
744.299
744.3
744.301
744.298
744.299
744.3
744.3
744.301
744.301
744.302
744.303
744.299
744.299
744.3
744.3
744.301
744.302
744.302
744.303
744.297
744.297