/*--------------------------------*- C++ -*----------------------------------*\
| =========                 |                                                 |
| \\      /  F ield         | OpenFOAM: The Open Source CFD Toolbox           |
|  \\    /   O peration     | Version:  plus.master.MPPICInterFoam            |
|   \\  /    A nd           | Web:      www.OpenFOAM.com                      |
|    \\/     M anipulation  |                                                 |
\*---------------------------------------------------------------------------*/
FoamFile
{
    version     2.0;
    format      ascii;
    class       surfaceScalarField;
    location    "2";
    object      phi;
}
// * * * * * * * * * * * * * * * * * * * * * * * * * * * * * * * * * * * * * //

dimensions      [0 3 -1 0 0 0 0];

internalField   nonuniform List<scalar> 
34319
(
-1.55911e-09
-1.72925e-09
9.54654e-07
2.00892e-09
2.4786e-09
-1.15641e-09
-1.92616e-09
9.54797e-07
2.5818e-09
-4.67311e-10
-2.05811e-09
9.54896e-07
2.69809e-09
3.08799e-10
-2.06889e-09
9.54924e-07
2.66997e-09
1.10695e-09
-1.97006e-09
9.54897e-07
2.49784e-09
1.88076e-09
-1.80862e-09
9.54799e-07
2.20551e-09
-1.70688e-09
9.54649e-07
2.47737e-09
2.04984e-09
-1.79554e-09
-1.16075e-09
9.54801e-07
2.28364e-09
-1.27242e-09
-1.30278e-09
9.54555e-07
-4.789e-10
-1.39481e-09
9.54401e-07
3.80095e-10
-1.41242e-09
9.54345e-07
1.23065e-09
-1.36714e-09
9.54402e-07
1.98546e-09
-1.28865e-09
9.54557e-07
-1.22068e-09
9.54798e-07
2.50116e-09
-1.99793e-09
-4.2512e-10
9.54901e-07
2.59034e-09
-1.37121e-09
-4.7102e-10
9.54403e-07
-4.9393e-10
-4.99792e-10
9.54102e-07
4.27062e-10
-5.06472e-10
9.53999e-07
1.31606e-09
-4.92243e-10
9.54104e-07
2.08326e-09
-4.66644e-10
9.54407e-07
-4.46062e-10
9.54899e-07
2.6036e-09
-2.0727e-09
3.41161e-10
9.54929e-07
2.68891e-09
-1.41177e-09
3.83663e-10
9.54349e-07
-5.04823e-10
4.22286e-10
9.54001e-07
4.41843e-10
4.32762e-10
9.53884e-07
1.34998e-09
4.23919e-10
9.54004e-07
2.1251e-09
3.97651e-10
9.54355e-07
3.64502e-10
9.54931e-07
2.66201e-09
-2.01667e-09
1.09124e-09
9.54902e-07
2.59422e-09
-1.38698e-09
1.20821e-09
9.54407e-07
-5.0169e-10
1.30299e-09
9.54108e-07
4.27667e-10
1.32825e-09
9.54006e-07
1.32307e-09
1.29204e-09
9.54113e-07
2.08982e-09
1.21232e-09
9.54418e-07
1.13048e-09
9.5491e-07
2.62273e-09
-1.85316e-09
1.78769e-09
9.54805e-07
2.32609e-09
-1.30996e-09
1.94786e-09
9.54563e-07
-4.95772e-10
2.07243e-09
9.54412e-07
3.81947e-10
2.09702e-09
9.54359e-07
1.24027e-09
2.0197e-09
9.5442e-07
1.9939e-09
1.86994e-09
9.5458e-07
1.74641e-09
9.54821e-07
2.51666e-09
-1.66572e-09
9.54657e-07
1.86973e-09
2.51308e-09
-1.22349e-09
9.54803e-07
2.51636e-09
-4.93645e-10
9.54906e-07
2.63914e-09
3.16259e-10
9.54937e-07
2.63956e-09
1.12716e-09
9.54915e-07
2.50134e-09
1.88149e-09
9.54823e-07
2.24974e-09
9.54679e-07
2.4701e-09
2.04665e-09
-4.23051e-09
-4.37079e-09
9.5218e-07
5.28775e-09
5.70614e-09
-2.82497e-09
-4.83232e-09
9.51717e-07
6.23752e-09
-1.04771e-09
-5.18004e-09
9.51427e-07
6.65803e-09
8.6539e-10
-5.26793e-09
9.51322e-07
6.73438e-09
2.74488e-09
-5.08764e-09
9.51431e-07
6.44949e-09
4.46401e-09
-4.70125e-09
9.51722e-07
5.83282e-09
-4.32941e-09
9.52168e-07
5.78879e-09
5.26436e-09
-4.72219e-09
-2.82506e-09
9.51724e-07
5.98237e-09
-3.09632e-09
-3.11372e-09
9.50845e-07
-1.11221e-09
-3.33445e-09
9.50278e-07
9.85368e-10
-3.39788e-09
9.50081e-07
3.02331e-09
-3.30288e-09
9.50279e-07
4.81905e-09
-3.09028e-09
9.50845e-07
-2.86607e-09
9.51713e-07
6.11938e-09
-5.13467e-09
-1.00505e-09
9.51433e-07
6.574e-09
-3.32558e-09
-1.09462e-09
9.5028e-07
-1.17132e-09
-1.1629e-09
9.49556e-07
1.07557e-09
-1.18114e-09
9.49306e-07
3.24036e-09
-1.14811e-09
9.49553e-07
5.1268e-09
-1.07609e-09
9.50275e-07
-1.00699e-09
9.5142e-07
6.49553e-09
-5.27956e-09
8.98087e-10
9.51327e-07
6.7591e-09
-3.40972e-09
9.97946e-10
9.50083e-07
-1.19424e-09
1.08365e-09
9.49307e-07
1.10909e-09
1.11858e-09
9.49041e-07
3.32657e-09
1.10137e-09
9.49304e-07
5.2508e-09
1.03905e-09
9.50077e-07
9.52242e-10
9.51313e-07
6.65798e-09
-5.13919e-09
2.73318e-09
9.51435e-07
6.54435e-09
-3.33163e-09
3.01036e-09
9.50281e-07
-1.16998e-09
3.24296e-09
9.49555e-07
1.0873e-09
3.3244e-09
9.49305e-07
3.26319e-09
3.25127e-09
9.49553e-07
5.15029e-09
3.05244e-09
9.50275e-07
2.81415e-09
9.5142e-07
6.526e-09
-4.75753e-09
4.36657e-09
9.51727e-07
5.97172e-09
-3.12077e-09
4.78015e-09
9.50847e-07
-1.11445e-09
5.13005e-09
9.50278e-07
1.00811e-09
5.2425e-09
9.50079e-07
3.06377e-09
5.09668e-09
9.50277e-07
4.85709e-09
4.7458e-09
9.50844e-07
4.37602e-09
9.51713e-07
6.14133e-09
-4.31683e-09
9.52182e-07
5.20783e-09
5.72262e-09
-2.87763e-09
9.51718e-07
6.11497e-09
-1.06178e-09
9.51423e-07
6.5447e-09
8.91155e-10
9.51317e-07
6.65663e-09
2.796e-09
9.51425e-07
6.42261e-09
4.5009e-09
9.51718e-07
5.88689e-09
9.52165e-07
5.76583e-09
5.35167e-09
-1.08457e-08
-1.09429e-08
9.46401e-07
1.36211e-08
1.3901e-08
-7.01007e-09
-1.18064e-08
9.44482e-07
1.49822e-08
-2.47498e-09
-1.2457e-08
9.43297e-07
1.58759e-08
2.30468e-09
-1.26752e-08
9.42891e-07
1.61536e-08
6.91573e-09
-1.24249e-08
9.43302e-07
1.57766e-08
1.09815e-08
-1.17769e-08
9.44484e-07
1.47838e-08
-1.09904e-08
9.46379e-07
1.39269e-08
1.36634e-08
-1.17348e-08
-7.01549e-09
9.44489e-07
1.4814e-08
-7.56368e-09
-7.57354e-09
9.42138e-07
-2.65284e-09
-7.97544e-09
9.40653e-07
2.49699e-09
-8.11313e-09
9.40145e-07
7.44615e-09
-7.973e-09
9.40655e-07
1.17363e-08
-7.59704e-09
9.42137e-07
-7.09992e-09
9.44473e-07
1.48139e-08
-1.2434e-08
-2.44767e-09
9.43306e-07
1.5829e-08
-7.97534e-09
-2.63511e-09
9.40656e-07
-2.78546e-09
-2.77024e-09
9.39002e-07
2.63083e-09
-2.81527e-09
9.38439e-07
7.8263e-09
-2.76535e-09
9.39001e-07
1.23316e-08
-2.63562e-09
9.40652e-07
-2.47223e-09
9.43291e-07
1.56482e-08
-1.26906e-08
2.32828e-09
9.42899e-07
1.61787e-08
-8.12865e-09
2.51402e-09
9.40149e-07
-2.8354e-09
2.65e-09
9.38441e-07
2.68112e-09
2.70346e-09
9.37859e-07
7.97226e-09
2.66993e-09
9.38437e-07
1.25631e-08
2.55457e-09
9.4014e-07
2.37529e-09
9.42881e-07
1.59718e-08
-1.24671e-08
6.91024e-09
9.43308e-07
1.585e-08
-7.99987e-09
7.44615e-09
9.40658e-07
-2.79187e-09
7.84446e-09
9.39003e-07
2.6439e-09
7.9913e-09
9.38437e-07
7.85637e-09
7.87021e-09
9.38996e-07
1.23709e-08
7.51102e-09
9.40643e-07
7.00365e-09
9.43281e-07
1.57012e-08
-1.18268e-08
1.09075e-08
9.4449e-07
1.49007e-08
-7.62499e-09
1.17088e-08
9.4214e-07
-2.67189e-09
1.23491e-08
9.40653e-07
2.51867e-09
1.25813e-08
9.40141e-07
7.49766e-09
1.23598e-08
9.40644e-07
1.18009e-08
1.17503e-08
9.4212e-07
1.09826e-08
9.44454e-07
1.48829e-08
-1.09986e-08
9.46396e-07
1.36544e-08
1.38576e-08
-7.11205e-09
9.44478e-07
1.47939e-08
-2.5153e-09
9.43291e-07
1.56992e-08
2.32188e-09
9.4288e-07
1.60006e-08
6.97248e-09
9.43283e-07
1.56609e-08
1.10437e-08
9.44457e-07
1.47377e-08
9.46351e-07
1.39321e-08
1.36911e-08
-2.65635e-08
-2.6604e-08
9.31668e-07
3.38799e-08
3.39827e-08
-1.68307e-08
-2.81949e-08
9.26687e-07
3.60422e-08
-5.79205e-09
-2.93381e-08
9.23658e-07
3.77852e-08
5.67723e-09
-2.97465e-08
9.22642e-07
3.83888e-08
1.67511e-08
-2.93485e-08
9.23669e-07
3.77789e-08
2.66152e-08
-2.82329e-08
9.26702e-07
3.60227e-08
-2.66916e-08
9.3166e-07
3.39801e-08
3.39116e-08
-2.81728e-08
-1.68265e-08
9.26692e-07
3.59789e-08
-1.78984e-08
-1.78872e-08
9.21298e-07
-6.15856e-09
-1.85714e-08
9.17964e-07
6.03787e-09
-1.88124e-08
9.16841e-07
1.7786e-08
-1.85879e-08
9.17972e-07
2.81306e-08
-1.79334e-08
9.21311e-07
-1.69151e-08
9.26694e-07
3.59369e-08
-2.93429e-08
-5.77164e-09
9.23664e-07
3.77805e-08
-1.85919e-08
-6.1357e-09
9.17966e-07
-6.39464e-09
-6.36752e-09
9.14468e-07
6.25749e-09
-6.45106e-09
9.13291e-07
1.84434e-08
-6.38074e-09
9.14473e-07
2.9217e-08
-6.16556e-09
9.17976e-07
-5.82311e-09
9.2367e-07
3.76115e-08
-2.97705e-08
5.69435e-09
9.22647e-07
3.84134e-08
-1.88413e-08
6.05927e-09
9.16844e-07
-6.48284e-09
6.28673e-09
9.13292e-07
6.32727e-09
6.36152e-09
9.12097e-07
1.86693e-08
6.28152e-09
9.13295e-07
2.96048e-08
6.05357e-09
9.16851e-07
5.68893e-09
9.22651e-07
3.8197e-08
-2.93814e-08
1.67553e-08
9.23674e-07
3.78192e-08
-1.86198e-08
1.78001e-08
9.17975e-07
-6.4155e-09
1.84727e-08
9.14476e-07
6.24428e-09
1.87043e-08
9.13296e-07
1.84375e-08
1.84733e-08
9.14478e-07
2.92139e-08
1.78112e-08
9.1798e-07
1.67819e-08
9.23674e-07
3.76087e-08
-2.82653e-08
2.65937e-08
9.26708e-07
3.60735e-08
-1.79625e-08
2.81303e-08
9.21315e-07
-6.20204e-09
2.9246e-08
9.17979e-07
6.0133e-09
2.96433e-08
9.16853e-07
1.77748e-08
2.92449e-08
9.17981e-07
2.81228e-08
2.81398e-08
9.2132e-07
2.66199e-08
9.26706e-07
3.59186e-08
-2.67065e-08
9.31675e-07
3.39032e-08
3.39707e-08
-1.69328e-08
9.26701e-07
3.5941e-08
-5.85582e-09
9.23673e-07
3.7661e-08
5.64454e-09
9.22653e-07
3.82484e-08
1.6739e-08
9.23677e-07
3.76362e-08
2.66073e-08
9.26709e-07
3.59078e-08
9.31672e-07
3.39226e-08
3.38779e-08
-6.63724e-08
-6.63466e-08
8.91914e-07
8.62342e-08
8.61984e-08
-4.12259e-08
-6.81265e-08
8.80957e-07
8.87337e-08
-1.39615e-08
-6.96031e-08
8.74589e-07
9.14099e-08
1.39978e-08
-7.01588e-08
8.72482e-07
9.23432e-08
4.12474e-08
-6.96187e-08
8.74608e-07
9.13981e-08
6.6375e-08
-6.81529e-08
8.80993e-07
8.87118e-08
-6.63678e-08
8.91961e-07
8.62653e-08
8.61879e-08
-6.81589e-08
-4.12e-08
8.80959e-07
8.87684e-08
-4.25542e-08
-4.25174e-08
8.701e-07
-1.44361e-08
-4.33809e-08
8.63612e-07
1.44557e-08
-4.36944e-08
8.61452e-07
4.2556e-08
-4.34005e-08
8.63627e-07
6.81424e-08
-4.25501e-08
8.70129e-07
-4.12363e-08
8.80999e-07
8.87474e-08
-6.96396e-08
-1.39381e-08
8.74594e-07
9.14522e-08
-4.34238e-08
-1.44031e-08
8.63614e-07
-1.47373e-08
-1.46953e-08
8.57061e-07
1.4736e-08
-1.48008e-08
8.54878e-07
4.34058e-08
-1.47112e-08
8.57071e-07
6.9597e-08
-1.44353e-08
8.63634e-07
-1.39836e-08
8.74621e-07
9.13646e-08
-7.0197e-08
1.40141e-08
8.72488e-07
9.23783e-08
-4.37368e-08
1.44856e-08
8.61455e-07
-1.48458e-08
1.47772e-08
8.54879e-07
1.48245e-08
1.48702e-08
8.52687e-07
4.36948e-08
1.47613e-08
8.54886e-07
7.01238e-08
1.44619e-08
8.61469e-07
1.39847e-08
8.72507e-07
9.22578e-08
-6.96524e-08
4.12584e-08
8.74616e-07
9.14262e-08
-4.34389e-08
4.25821e-08
8.63631e-07
-1.47565e-08
4.34434e-08
8.57074e-07
1.47139e-08
4.37393e-08
8.54887e-07
4.33805e-08
4.34288e-08
8.57079e-07
6.95605e-08
4.25695e-08
8.63643e-07
4.12506e-08
8.74632e-07
9.13037e-08
-6.81843e-08
6.6376e-08
8.81006e-07
8.87373e-08
-4.25859e-08
6.81581e-08
8.70135e-07
-1.44787e-08
6.96314e-08
8.63637e-07
1.44154e-08
7.01723e-08
8.61471e-07
4.25201e-08
6.96133e-08
8.63644e-07
6.80876e-08
6.81417e-08
8.7015e-07
6.63769e-08
8.81024e-07
8.86297e-08
-6.64126e-08
8.91975e-07
8.62397e-08
8.62463e-08
-4.12724e-08
8.81002e-07
8.87589e-08
-1.40206e-08
8.74623e-07
9.14052e-08
1.39409e-08
8.72508e-07
9.23119e-08
4.12035e-08
8.74632e-07
9.13599e-08
6.63245e-08
8.81024e-07
8.86958e-08
8.91998e-07
8.61464e-08
8.62345e-08
-1.39174e-07
-1.39111e-07
1.86131e-07
1.86075e-07
7.97996e-07
-8.5152e-08
-1.41544e-07
1.89501e-07
7.78919e-07
-2.8584e-08
-1.4369e-07
1.93777e-07
7.67885e-07
2.87334e-08
-1.4455e-07
1.9535e-07
7.64316e-07
8.52919e-08
-1.43761e-07
1.93843e-07
7.67902e-07
1.3932e-07
-1.41678e-07
1.89613e-07
7.78959e-07
-1.39294e-07
1.86211e-07
1.86238e-07
7.98078e-07
-1.41607e-07
-8.51032e-08
1.89573e-07
7.78924e-07
-8.70223e-08
-8.69698e-08
7.60843e-07
-2.92731e-08
-8.81621e-08
7.50249e-07
2.93647e-08
-8.86202e-08
7.46787e-07
8.71056e-08
-8.82314e-08
7.50259e-07
1.41693e-07
-8.70866e-08
7.60866e-07
-8.52666e-08
1.89598e-07
7.78968e-07
-1.4375e-07
-2.85574e-08
1.93856e-07
7.67899e-07
-8.82155e-08
-2.92357e-08
7.50256e-07
-2.9699e-08
-2.9652e-08
7.39958e-07
2.97277e-08
-2.9808e-08
7.36579e-07
8.82527e-08
-2.96859e-08
7.39956e-07
1.4378e-07
-2.93036e-08
7.50254e-07
-2.86546e-08
1.93808e-07
7.67902e-07
-1.446e-07
2.87464e-08
1.95387e-07
7.64339e-07
-8.86624e-08
2.93984e-08
7.46799e-07
-2.98529e-08
2.97727e-08
7.36582e-07
2.98531e-08
2.98954e-08
7.33223e-07
8.86696e-08
2.97652e-08
7.3657e-07
1.44605e-07
2.93881e-08
7.46777e-07
2.87333e-08
1.95345e-07
7.6431e-07
-1.43797e-07
8.53133e-08
1.93867e-07
7.67929e-07
-8.82635e-08
8.7136e-08
7.5027e-07
-2.97301e-08
8.82901e-08
7.39962e-07
2.97249e-08
8.87106e-08
7.36572e-07
8.82708e-08
8.83129e-08
7.39943e-07
1.43818e-07
8.71955e-08
7.50235e-07
8.53788e-08
1.93864e-07
7.67878e-07
-1.41737e-07
1.39293e-07
1.89719e-07
7.78989e-07
-8.71256e-08
1.41682e-07
7.60877e-07
-2.9345e-08
1.43806e-07
7.50261e-07
2.93512e-08
1.44643e-07
7.46782e-07
8.71528e-08
1.43847e-07
7.50238e-07
1.41769e-07
1.41814e-07
7.60832e-07
1.3947e-07
1.89697e-07
7.78922e-07
-1.39394e-07
1.86421e-07
1.86091e-07
7.98091e-07
-8.53026e-08
1.89531e-07
7.78966e-07
-2.86947e-08
1.9383e-07
7.67903e-07
2.86862e-08
1.95368e-07
7.6431e-07
8.53454e-08
1.93881e-07
7.67876e-07
1.39422e-07
1.89779e-07
7.78923e-07
1.86306e-07
1.8647e-07
7.98033e-07
2.94768e-09
-1.30341e-10
5.88263e-07
-7.81132e-11
3.35634e-09
-2.00248e-10
6.99896e-07
-2.56545e-11
3.57606e-09
-2.06174e-10
8.0687e-07
1.04317e-11
3.51615e-09
-1.71892e-10
9.08991e-07
4.04566e-11
3.13281e-09
-1.20949e-10
1.0057e-06
6.60147e-11
2.4261e-09
-7.39177e-11
1.09531e-06
7.70072e-11
1.37719e-09
-1.90032e-11
1.17046e-06
8.21071e-11
1.54795e-11
1.17544e-06
7.66913e-11
3.08837e-09
-2.25272e-10
7.36998e-07
3.52549e-09
-2.6492e-10
8.48795e-07
3.72454e-09
-2.52435e-10
9.55927e-07
3.62456e-09
-2.03967e-10
1.05819e-06
3.19753e-09
-1.42971e-10
1.15507e-06
2.4285e-09
-8.26176e-11
1.24497e-06
1.32572e-09
-2.73408e-11
1.321e-06
8.93995e-12
1.3295e-06
3.27408e-09
-1.11366e-10
8.29926e-07
3.73191e-09
-1.21195e-10
9.42766e-07
3.91867e-09
-1.17121e-10
1.05081e-06
3.79001e-09
-1.00731e-10
1.15389e-06
3.31856e-09
-8.04935e-11
1.25151e-06
2.50176e-09
-6.20553e-11
1.3422e-06
1.34822e-09
-4.68526e-11
1.41928e-06
-3.90668e-11
1.42968e-06
3.36469e-09
5.64697e-11
8.61519e-07
3.83582e-09
8.38344e-11
9.74864e-07
4.02412e-09
7.79201e-11
1.08335e-06
3.88865e-09
5.03071e-11
1.18682e-06
3.40281e-09
1.34696e-11
1.28481e-06
2.56287e-09
-2.35345e-11
1.37587e-06
1.38043e-09
-5.73997e-11
1.45341e-06
-8.18409e-11
1.46449e-06
3.30433e-09
1.67468e-10
8.29934e-07
3.77264e-09
2.25266e-10
9.42774e-07
3.97189e-09
2.15489e-10
1.05082e-06
3.84661e-09
1.60448e-10
1.1539e-06
3.37184e-09
8.80052e-11
1.25153e-06
2.54526e-09
1.32908e-11
1.34222e-06
1.37507e-09
-5.34519e-11
1.41931e-06
-1.01422e-10
1.42973e-06
3.11919e-09
1.3167e-10
7.37014e-07
3.57653e-09
1.98918e-10
8.48812e-07
3.79462e-09
2.03678e-10
9.55944e-07
3.70274e-09
1.63518e-10
1.05821e-06
3.27043e-09
1.04213e-10
1.15509e-06
2.48587e-09
4.49183e-11
1.24501e-06
1.35659e-09
-1.55495e-11
1.32106e-06
-4.80446e-11
1.32959e-06
2.95522e-09
5.88282e-07
-1.24057e-10
3.38644e-09
6.99917e-07
-4.42164e-11
3.61867e-09
8.06895e-07
-1.3639e-12
3.56228e-09
9.09021e-07
3.50678e-11
3.16991e-09
1.00574e-06
6.14248e-11
2.43094e-09
1.09536e-06
7.86872e-11
1.32742e-09
1.17053e-06
9.34968e-11
1.17553e-06
1.02762e-10
7.38223e-09
-5.36786e-10
5.87113e-07
-1.32095e-10
8.60247e-09
-5.39963e-10
6.99039e-07
-5.07167e-11
9.19447e-09
-4.63199e-10
8.06502e-07
-4.30679e-12
8.99752e-09
-3.3677e-10
9.0924e-07
3.22651e-11
7.94647e-09
-1.96089e-10
1.00663e-06
5.90173e-11
6.05867e-09
-6.9931e-11
1.09693e-06
7.19426e-11
3.35741e-09
5.13421e-11
1.17277e-06
7.72657e-11
1.28506e-10
1.17837e-06
7.30573e-11
7.77232e-09
-6.32259e-10
7.35162e-07
9.00432e-09
-6.31945e-10
8.47376e-07
9.57705e-09
-5.39119e-10
9.55144e-07
9.33564e-09
-3.93914e-10
1.0582e-06
8.21272e-09
-2.37553e-10
1.15593e-06
6.21136e-09
-9.312e-11
1.2467e-06
3.39296e-09
3.65428e-11
1.32353e-06
1.24995e-10
1.33273e-06
8.2433e-09
-2.78106e-10
8.27568e-07
9.48929e-09
-2.80202e-10
9.40902e-07
1.00406e-08
-2.45638e-10
1.04969e-06
9.75376e-09
-1.88675e-10
1.15368e-06
8.54975e-09
-1.26529e-10
1.25231e-06
6.43745e-09
-6.79915e-11
1.34399e-06
3.49442e-09
-1.59115e-11
1.42197e-06
2.48274e-11
1.43312e-06
8.45125e-09
2.24895e-10
8.58962e-07
9.71104e-09
2.23786e-10
9.72827e-07
1.02583e-08
1.81776e-10
1.0821e-06
9.95393e-09
1.19398e-10
1.18653e-06
8.71751e-09
5.16362e-11
1.28558e-06
6.55691e-09
-7.94206e-12
1.37767e-06
3.55402e-09
-5.54663e-11
1.45615e-06
-8.22918e-11
1.468e-06
8.28379e-09
5.73834e-10
8.27567e-07
9.53657e-09
5.71672e-10
9.409e-07
1.00905e-08
4.80975e-10
1.04969e-06
9.79534e-09
3.38963e-10
1.15369e-06
8.57927e-09
1.85125e-10
1.25232e-06
6.45719e-09
4.05161e-11
1.344e-06
3.503e-09
-7.94059e-11
1.42199e-06
-1.60097e-10
1.43315e-06
7.78778e-09
5.24496e-10
7.35161e-07
9.02293e-09
5.13302e-10
8.47373e-07
9.60047e-09
4.42102e-10
9.55143e-07
9.35725e-09
3.22164e-10
1.0582e-06
8.22741e-09
1.85718e-10
1.15595e-06
6.21754e-09
5.87048e-11
1.24672e-06
3.38048e-09
-4.4062e-11
1.32357e-06
-1.31917e-10
1.33279e-06
7.30458e-09
5.8711e-07
-1.22938e-10
8.48655e-09
6.99036e-07
-4.47757e-11
9.06045e-09
8.06501e-07
-1.0291e-12
8.86459e-09
9.09244e-07
3.52389e-11
7.82336e-09
1.00664e-06
6.1064e-11
5.94256e-09
1.09696e-06
7.68383e-11
3.25876e-09
1.1728e-06
8.96673e-11
1.17843e-06
9.66705e-11
1.78158e-08
-1.58087e-09
5.84651e-07
-4.97893e-11
2.06347e-08
-1.31376e-09
6.97341e-07
-1.52449e-11
2.19144e-08
-1.03277e-09
8.06039e-07
9.64907e-12
2.13036e-08
-7.44528e-10
9.10371e-07
2.93897e-11
1.8646e-08
-4.66967e-10
1.00954e-06
3.77289e-11
1.39946e-08
-2.13775e-10
1.10159e-06
4.13178e-11
7.58419e-09
4.68461e-12
1.17896e-06
3.88268e-11
1.52247e-10
1.18563e-06
2.54902e-11
1.88478e-08
-1.68226e-09
7.30996e-07
2.19167e-08
-1.4688e-09
8.44233e-07
2.34122e-08
-1.17893e-09
9.53577e-07
2.28893e-08
-8.65825e-10
1.05864e-06
2.01192e-08
-5.61649e-10
1.15861e-06
1.51397e-08
-2.84545e-10
1.25156e-06
8.21393e-09
-3.84816e-11
1.33031e-06
1.39427e-10
1.34084e-06
1.99304e-08
-7.17791e-10
8.22128e-07
2.31689e-08
-6.42541e-10
9.3664e-07
2.47799e-08
-5.30384e-10
1.04724e-06
2.42746e-08
-4.01676e-10
1.15354e-06
2.13706e-08
-2.72918e-10
1.25474e-06
1.60871e-08
-1.53062e-10
1.34895e-06
8.72341e-09
-4.35761e-11
1.42914e-06
4.42206e-11
1.44183e-06
2.03621e-08
6.15973e-10
8.53049e-07
2.36756e-08
5.30928e-10
9.68144e-07
2.53278e-08
4.15244e-10
1.07931e-06
2.48212e-08
2.92603e-10
1.18616e-06
2.18586e-08
1.75436e-10
1.28791e-06
1.6454e-08
7.2082e-11
1.38266e-06
8.92169e-09
-1.48761e-11
1.46345e-06
-5.79591e-11
1.47691e-06
2.00005e-08
1.56866e-09
8.22123e-07
2.32463e-08
1.34996e-09
9.36638e-07
2.48515e-08
1.06982e-09
1.04724e-06
2.43241e-08
7.74795e-10
1.15354e-06
2.13929e-08
4.9076e-10
1.25475e-06
1.60856e-08
2.33204e-10
1.34895e-06
8.71118e-09
6.25535e-12
1.42914e-06
-1.36359e-10
1.44183e-06
1.89148e-08
1.51226e-09
7.30987e-07
2.19801e-08
1.23166e-09
8.44228e-07
2.34643e-08
9.66293e-10
9.53575e-07
2.29182e-08
6.99919e-10
1.05864e-06
2.01188e-08
4.43557e-10
1.15861e-06
1.51129e-08
2.09274e-10
1.25156e-06
8.1742e-09
6.16251e-12
1.33031e-06
-1.20055e-10
1.34085e-06
1.77553e-08
5.8464e-07
-6.7833e-11
2.05137e-08
6.9733e-07
-2.10749e-11
2.17549e-08
8.06027e-07
7.42318e-12
2.11279e-08
9.10359e-07
3.3208e-11
1.84675e-08
1.00952e-06
4.73799e-11
1.38294e-08
1.10157e-06
5.52207e-11
7.45151e-09
1.17895e-06
6.02747e-11
1.18561e-06
6.05275e-11
4.45289e-08
-3.64519e-09
5.7759e-07
1.14784e-11
5.26187e-08
-2.73117e-09
6.91827e-07
1.5597e-11
5.71508e-08
-2.02524e-09
8.03397e-07
2.48558e-11
5.71267e-08
-1.43184e-09
9.11708e-07
2.58527e-11
5.18001e-08
-9.08134e-10
1.01566e-06
1.93191e-11
4.08011e-08
-4.39836e-10
1.11292e-06
9.12064e-12
2.38438e-08
-1.15567e-11
1.19582e-06
-3.38959e-12
2.689e-10
1.20912e-06
-1.79905e-11
4.6819e-08
-3.77127e-09
7.20088e-07
5.57789e-08
-3.02751e-09
8.35448e-07
6.11691e-08
-2.32542e-09
9.48383e-07
6.16267e-08
-1.70265e-09
1.05835e-06
5.61359e-08
-1.13778e-09
1.16422e-06
4.42179e-08
-6.21859e-10
1.26354e-06
2.57416e-08
-1.52011e-10
1.34879e-06
2.23029e-10
1.36655e-06
4.90205e-08
-1.56848e-09
8.08399e-07
5.85014e-08
-1.28418e-09
9.25314e-07
6.43787e-08
-1.00967e-09
1.03995e-06
6.50834e-08
-7.57431e-10
1.15178e-06
5.94041e-08
-5.22456e-10
1.25969e-06
4.67622e-08
-3.03096e-10
1.36113e-06
2.71053e-08
-9.82406e-11
1.44859e-06
7.78927e-11
1.469e-06
4.98129e-08
1.46995e-09
8.38282e-07
5.94984e-08
1.20874e-09
9.55861e-07
6.55438e-08
9.39107e-10
1.0712e-06
6.6325e-08
6.86573e-10
1.18381e-06
6.05702e-08
4.52667e-10
1.29255e-06
4.76675e-08
2.38654e-10
1.39486e-06
2.75936e-08
5.31167e-11
1.48322e-06
-8.13252e-11
1.50458e-06
4.90253e-08
3.66685e-09
8.08401e-07
5.85083e-08
2.94786e-09
9.25311e-07
6.43766e-08
2.26105e-09
1.03994e-06
6.50618e-08
1.64771e-09
1.15177e-06
5.93632e-08
1.09086e-09
1.25967e-06
4.6711e-08
5.84277e-10
1.36111e-06
2.70701e-08
1.23121e-10
1.44857e-06
-2.17571e-10
1.46897e-06
4.68016e-08
3.5768e-09
7.20093e-07
5.57612e-08
2.67126e-09
8.35447e-07
6.11396e-08
1.98375e-09
9.48374e-07
6.15766e-08
1.40853e-09
1.05833e-06
5.60671e-08
9.00405e-10
1.16419e-06
4.41443e-08
4.44509e-10
1.2635e-06
2.56791e-08
2.9663e-11
1.34875e-06
-2.42143e-10
1.3665e-06
4.44518e-08
5.77595e-07
-8.40629e-12
5.25258e-08
6.91828e-07
4.43614e-12
5.70352e-08
8.03389e-07
1.85e-11
5.6993e-08
9.11688e-07
2.70514e-11
5.16589e-08
1.01563e-06
3.11836e-11
4.06711e-08
1.11287e-06
3.20958e-11
2.37501e-08
1.19577e-06
2.99756e-11
1.20906e-06
2.24501e-11
1.15053e-07
-9.97963e-09
5.58856e-07
-1.67916e-11
1.39336e-07
-8.13417e-09
6.75738e-07
-7.90784e-12
1.56155e-07
-6.67079e-09
7.93264e-07
-5.88715e-12
1.61848e-07
-5.36261e-09
9.11359e-07
-9.19583e-12
1.52756e-07
-4.12151e-09
1.02884e-06
-1.75054e-11
1.26087e-07
-2.90966e-09
1.14245e-06
-2.42116e-11
7.88547e-08
-1.79237e-09
1.2448e-06
-2.80497e-11
-5.38458e-10
1.28849e-06
-2.95727e-11
1.17846e-07
-1.00575e-08
6.91097e-07
1.4422e-07
-8.69162e-09
8.09629e-07
1.6367e-07
-7.27312e-09
9.295e-07
1.71771e-07
-5.94744e-09
1.05077e-06
1.64055e-07
-4.66548e-09
1.17239e-06
1.36851e-07
-3.38728e-09
1.29112e-06
8.6443e-08
-2.13568e-09
1.39945e-06
-6.67896e-10
1.45307e-06
1.21446e-07
-4.06814e-09
7.7231e-07
1.49017e-07
-3.56815e-09
8.92585e-07
1.69956e-07
-3.02033e-09
1.0147e-06
1.79416e-07
-2.4881e-09
1.13879e-06
1.72373e-07
-1.96084e-09
1.26393e-06
1.44523e-07
-1.4259e-09
1.38693e-06
9.16939e-08
-8.95478e-10
1.50009e-06
-2.65241e-10
1.56023e-06
1.22705e-07
4.06713e-09
7.99667e-07
1.5073e-07
3.57093e-09
9.20654e-07
1.72174e-07
3.01229e-09
1.04366e-06
1.82087e-07
2.46031e-09
1.16886e-06
1.75276e-07
1.91399e-09
1.29539e-06
1.47218e-07
1.36798e-09
1.42004e-06
9.35432e-08
8.39805e-10
1.53507e-06
2.29949e-10
1.59758e-06
1.21365e-07
1.00711e-08
7.7231e-07
1.48927e-07
8.71293e-09
8.9257e-07
1.69857e-07
7.28848e-09
1.01467e-06
1.7931e-07
5.94723e-09
1.13875e-06
1.72269e-07
4.64802e-09
1.26389e-06
1.44436e-07
3.35764e-09
1.38687e-06
9.16359e-08
2.10314e-09
1.50003e-06
6.44498e-10
1.56016e-06
1.17679e-07
1.00081e-08
6.911e-07
1.44032e-07
8.17362e-09
8.09613e-07
1.63472e-07
6.71301e-09
9.29464e-07
1.71578e-07
5.40206e-09
1.05071e-06
1.63885e-07
4.15406e-09
1.17232e-06
1.36726e-07
2.93323e-09
1.29103e-06
8.6377e-08
1.8062e-09
1.39933e-06
5.40901e-10
1.45294e-06
1.14867e-07
5.5886e-07
3.08089e-11
1.391e-07
6.75733e-07
2.55998e-11
1.559e-07
7.93242e-07
2.3328e-11
1.61605e-07
9.11315e-07
2.27536e-11
1.52552e-07
1.02877e-06
2.00425e-11
1.25946e-07
1.14236e-06
1.54658e-11
7.8787e-08
1.24468e-06
6.81631e-12
1.28834e-06
-5.37138e-12
2.59346e-07
-1.91781e-08
-1.14885e-11
5.04839e-07
3.28651e-07
-1.4871e-08
-6.33371e-11
6.21293e-07
3.87826e-07
-1.1724e-08
-7.06192e-11
7.45813e-07
4.28142e-07
-8.9501e-09
-6.39314e-11
8.79991e-07
4.37005e-07
-6.2556e-09
-5.57542e-11
1.02623e-06
3.94742e-07
-3.46838e-09
-4.85797e-11
1.18819e-06
2.67389e-07
-3.53533e-10
-4.31227e-11
1.37251e-06
2.76482e-09
-4.01519e-11
1.55312e-06
2.62258e-07
-1.94233e-08
6.18587e-07
3.35391e-07
-1.61467e-08
7.37688e-07
4.00448e-07
-1.31144e-08
8.65767e-07
4.47253e-07
-1.03778e-08
1.00534e-06
4.61522e-07
-7.70201e-09
1.15953e-06
4.21179e-07
-4.86467e-09
1.33282e-06
2.87979e-07
-1.5302e-09
1.53377e-06
1.8893e-09
1.74189e-06
2.67341e-07
-7.84586e-09
6.87125e-07
3.42382e-07
-6.68538e-09
8.08007e-07
4.10777e-07
-5.53156e-09
9.38654e-07
4.61515e-07
-4.44774e-09
1.08207e-06
4.79157e-07
-3.37022e-09
1.24192e-06
4.39981e-07
-2.21752e-09
1.42342e-06
3.02851e-07
-8.67761e-10
1.6365e-06
6.10937e-10
1.86432e-06
2.69303e-07
7.81233e-09
7.09987e-07
3.45102e-07
6.57734e-09
8.31534e-07
4.14637e-07
5.395e-09
9.63146e-07
4.66706e-07
4.30311e-09
1.10799e-06
4.85512e-07
3.2251e-09
1.26994e-06
4.46744e-07
2.07383e-09
1.45447e-06
3.08131e-07
7.25286e-10
1.67203e-06
-7.32345e-10
1.90705e-06
2.67423e-07
1.9391e-08
6.87097e-07
3.42469e-07
1.60613e-08
8.07964e-07
4.10857e-07
1.30099e-08
9.38601e-07
4.61582e-07
1.02718e-08
1.08201e-06
4.79206e-07
7.60032e-09
1.24185e-06
4.40001e-07
4.7657e-09
1.42335e-06
3.0283e-07
1.42649e-09
1.63642e-06
-1.97696e-09
1.86423e-06
2.62375e-07
1.9178e-08
6.18545e-07
3.35503e-07
1.48391e-08
7.37619e-07
4.00547e-07
1.16918e-08
8.65674e-07
4.47344e-07
8.92424e-09
1.00523e-06
4.61601e-07
6.23806e-09
1.1594e-06
4.21233e-07
3.45471e-09
1.33267e-06
2.87987e-07
3.30474e-10
1.5336e-06
-2.80228e-09
1.74171e-06
2.59395e-07
5.41073e-11
5.04807e-07
3.2862e-07
3.2681e-11
6.21236e-07
3.87735e-07
1.84046e-11
7.45729e-07
4.28031e-07
1.07435e-11
8.79877e-07
4.36899e-07
3.67643e-12
1.02608e-06
3.94649e-07
-4.94317e-12
1.188e-06
2.6731e-07
-1.44212e-11
1.37228e-06
-2.58777e-11
1.55286e-06
2.31225e-09
-3.94218e-10
5.88272e-07
1.77774e-10
2.72419e-09
-2.93129e-10
6.99906e-07
3.46386e-11
2.96772e-09
-1.81925e-10
8.06881e-07
-4.864e-11
2.96511e-09
-8.84299e-11
9.09005e-07
-1.0225e-10
2.66111e-09
-4.95989e-13
1.00571e-06
-1.26706e-10
2.06414e-09
5.81764e-11
1.09533e-06
-1.37974e-10
1.17522e-09
1.10129e-10
1.17048e-06
-1.43982e-10
1.40739e-10
1.17544e-06
-1.39937e-10
2.6573e-09
-4.03171e-10
7.37004e-07
3.06799e-09
-3.45378e-10
8.48805e-07
3.28713e-09
-2.50944e-10
9.55942e-07
3.23198e-09
-1.59245e-10
1.05821e-06
2.86852e-09
-7.15256e-11
1.15509e-06
2.17685e-09
8.45978e-12
1.245e-06
1.17585e-09
7.95826e-11
1.32104e-06
1.22714e-10
1.32953e-06
2.98e-09
-1.4912e-10
8.29931e-07
3.37677e-09
-1.43609e-10
9.42778e-07
3.55994e-09
-1.10111e-10
1.05083e-06
3.45221e-09
-6.98506e-11
1.15391e-06
3.01973e-09
-2.76557e-11
1.25154e-06
2.26243e-09
1.52682e-11
1.34223e-06
1.20639e-09
5.56598e-11
1.41931e-06
8.78285e-11
1.42971e-06
3.09145e-09
1.81043e-10
8.61522e-07
3.4811e-09
1.35926e-10
9.74874e-07
3.64688e-09
9.67738e-11
1.08337e-06
3.51807e-09
6.73621e-11
1.18684e-06
3.06364e-09
4.5973e-11
1.28484e-06
2.28633e-09
3.40007e-11
1.37589e-06
1.21319e-09
2.98063e-11
1.45344e-06
3.33113e-11
1.4645e-06
2.98079e-09
4.31963e-10
8.2993e-07
3.36721e-09
3.42148e-10
9.42776e-07
3.53014e-09
2.47342e-10
1.05083e-06
3.40593e-09
1.671e-10
1.1539e-06
2.96158e-09
9.90089e-11
1.25153e-06
2.20593e-09
4.08934e-11
1.34222e-06
1.16716e-09
-5.74445e-12
1.4193e-06
-3.52326e-11
1.42969e-06
2.64841e-09
4.64036e-10
7.37e-07
3.04924e-09
3.4368e-10
8.48799e-07
3.24231e-09
2.28091e-10
9.55933e-07
3.16034e-09
1.41381e-10
1.0582e-06
2.76692e-09
7.62042e-11
1.15508e-06
2.07534e-09
1.07343e-11
1.24498e-06
1.10279e-09
-4.18216e-11
1.32101e-06
-7.44443e-11
1.3295e-06
2.25869e-09
5.88259e-07
1.47245e-10
2.68097e-09
6.99889e-07
6.08037e-11
2.89382e-09
8.06863e-07
1.66172e-11
2.84457e-09
9.08986e-07
-1.43924e-11
2.52131e-09
1.00569e-06
-4.00042e-11
1.90975e-09
1.09531e-06
-5.55752e-11
1.02371e-09
1.17046e-06
-6.7704e-11
1.17542e-06
-7.48061e-11
6.76924e-09
-7.92541e-10
5.87144e-07
1.23247e-10
7.99121e-09
-6.23958e-10
6.99072e-07
6.79991e-12
8.62123e-09
-4.49823e-10
8.0653e-07
-6.17101e-11
8.49747e-09
-2.74641e-10
9.09262e-07
-1.04212e-10
7.54078e-09
-1.13359e-10
1.00664e-06
-1.17121e-10
5.75672e-09
3.02341e-11
1.09693e-06
-1.1792e-10
3.19782e-09
1.36497e-10
1.17273e-06
-1.1052e-10
2.04488e-10
1.1783e-06
-9.17417e-11
7.43341e-09
-8.05349e-10
7.35191e-07
8.65835e-09
-7.22922e-10
8.47407e-07
9.24797e-09
-5.44182e-10
9.55172e-07
9.04812e-09
-3.64565e-10
1.05822e-06
7.97735e-09
-1.9041e-10
1.15595e-06
6.04302e-09
-2.92633e-11
1.2467e-06
3.29821e-09
1.07194e-10
1.32351e-06
1.94965e-10
1.33267e-06
8.06847e-09
-3.11731e-10
8.27591e-07
9.24779e-09
-3.05185e-10
9.40929e-07
9.79324e-09
-2.43874e-10
1.04972e-06
9.51811e-09
-1.67308e-10
1.15371e-06
8.34006e-09
-8.98218e-11
1.25234e-06
6.27331e-09
-1.56413e-11
1.344e-06
3.40249e-09
4.86635e-11
1.42195e-06
9.69841e-11
1.43306e-06
8.31021e-09
3.61604e-10
8.58984e-07
9.47775e-09
2.982e-10
9.72855e-07
9.99477e-09
2.15941e-10
1.08213e-06
9.68927e-09
1.38856e-10
1.18656e-06
8.47452e-09
7.53613e-11
1.28561e-06
6.36239e-09
2.62605e-11
1.37768e-06
3.44128e-09
-9.89383e-12
1.45612e-06
-2.95729e-11
1.46791e-06
8.10356e-09
8.58946e-10
8.27591e-07
9.26663e-09
7.35462e-10
9.40932e-07
9.78169e-09
5.48277e-10
1.04972e-06
9.48685e-09
3.59241e-10
1.15372e-06
8.29794e-09
1.89429e-10
1.25234e-06
6.22931e-09
4.52104e-11
1.34399e-06
3.36681e-09
-7.36124e-11
1.42194e-06
-1.51921e-10
1.43303e-06
7.47513e-09
8.69515e-10
7.35191e-07
8.66965e-09
7.03703e-10
8.4741e-07
9.22701e-09
5.04316e-10
9.55177e-07
8.99247e-09
3.18372e-10
1.05823e-06
7.89913e-09
1.47874e-10
1.15595e-06
5.96127e-09
3.74051e-12
1.2467e-06
3.23768e-09
-1.06208e-10
1.32349e-06
-1.88958e-10
1.33264e-06
6.77176e-09
5.87146e-07
1.3005e-10
8.01514e-09
6.99073e-07
5.70719e-11
8.61207e-09
8.0653e-07
1.66154e-11
8.43617e-09
9.0926e-07
-1.33248e-11
7.43864e-09
1.00664e-06
-3.90887e-11
5.63477e-09
1.09692e-06
-5.50484e-11
3.08396e-09
1.17271e-06
-6.80737e-11
1.17826e-06
-7.65917e-11
1.75197e-08
-1.65076e-09
5.84688e-07
2.86275e-11
2.0355e-08
-1.31463e-09
6.97382e-07
-4.63841e-11
2.16798e-08
-9.82441e-10
8.06075e-07
-9.14454e-11
2.11219e-08
-6.74606e-10
9.10399e-07
-9.98128e-11
1.85074e-08
-3.90953e-10
1.00955e-06
-9.24017e-11
1.39081e-08
-1.59823e-10
1.10158e-06
-7.61091e-11
7.54174e-09
4.2191e-11
1.17893e-06
-4.84761e-11
1.58587e-10
1.18557e-06
-2.61673e-11
1.8816e-08
-1.7228e-09
7.31027e-07
2.18855e-08
-1.48056e-09
8.44269e-07
2.33985e-08
-1.15321e-09
9.53611e-07
2.28966e-08
-8.22041e-10
1.05867e-06
2.01465e-08
-5.11001e-10
1.15863e-06
1.51711e-08
-2.37623e-10
1.25157e-06
8.23977e-09
5.23297e-12
1.33029e-06
1.67865e-10
1.34079e-06
1.99965e-08
-6.84872e-10
8.22151e-07
2.31926e-08
-6.12881e-10
9.36666e-07
2.47877e-08
-4.89047e-10
1.04727e-06
2.4278e-08
-3.55312e-10
1.15357e-06
2.1379e-08
-2.26924e-10
1.25477e-06
1.60991e-08
-1.08702e-10
1.34896e-06
8.73618e-09
-9.98304e-13
1.42912e-06
7.03625e-11
1.44178e-06
2.04154e-08
7.55926e-10
8.5307e-07
2.36602e-08
6.39793e-10
9.68168e-07
2.52867e-08
4.91366e-10
1.07933e-06
2.47754e-08
3.45228e-10