/*--------------------------------*- C++ -*----------------------------------*\
| =========                 |                                                 |
| \\      /  F ield         | OpenFOAM: The Open Source CFD Toolbox           |
|  \\    /   O peration     | Version:  plus.master.MPPICInterFoam            |
|   \\  /    A nd           | Web:      www.OpenFOAM.com                      |
|    \\/     M anipulation  |                                                 |
\*---------------------------------------------------------------------------*/
FoamFile
{
    version     2.0;
    format      ascii;
    class       volVectorField;
    location    "2";
    object      U;
}
// * * * * * * * * * * * * * * * * * * * * * * * * * * * * * * * * * * * * * //

dimensions      [0 1 -1 0 0 0 0];

internalField   nonuniform List<vector> 
11822
(
(-5.17496e-05 -6.07813e-05 0.0710627)
(-3.8242e-05 -6.42855e-05 0.0710861)
(-2.29613e-05 -6.74409e-05 0.0711013)
(-2.29572e-06 -6.70789e-05 0.0711059)
(1.97877e-05 -6.33764e-05 0.0711011)
(4.19682e-05 -5.72558e-05 0.0710859)
(6.16887e-05 -5.36524e-05 0.0710632)
(-5.84617e-05 -4.01881e-05 0.0710862)
(-4.30927e-05 -4.5084e-05 0.0710814)
(-2.47422e-05 -4.833e-05 0.0710785)
(-1.43541e-06 -4.88187e-05 0.0710773)
(2.2527e-05 -4.68938e-05 0.0710785)
(4.51128e-05 -4.36479e-05 0.0710815)
(6.35182e-05 -4.13438e-05 0.0710865)
(-6.53059e-05 -2.22412e-05 0.0711016)
(-4.72565e-05 -2.48943e-05 0.0710787)
(-2.62722e-05 -2.66099e-05 0.0710653)
(-9.43277e-07 -2.6985e-05 0.0710608)
(2.44249e-05 -2.61955e-05 0.0710655)
(4.77035e-05 -2.47736e-05 0.0710791)
(6.62068e-05 -2.35191e-05 0.071102)
(-6.7619e-05 -1.18456e-06 0.0711063)
(-4.88734e-05 -1.21777e-06 0.0710776)
(-2.69675e-05 -1.11771e-06 0.0710609)
(-8.71652e-07 -1.0277e-06 0.0710554)
(2.51188e-05 -9.56088e-07 0.0710613)
(4.87623e-05 -9.63278e-07 0.0710783)
(6.75532e-05 -1.12969e-06 0.071107)
(-6.56108e-05 2.00891e-05 0.0711016)
(-4.77841e-05 2.23106e-05 0.0710789)
(-2.6585e-05 2.41534e-05 0.0710658)
(-1.03572e-06 2.47203e-05 0.0710615)
(2.45319e-05 2.41213e-05 0.0710663)
(4.78766e-05 2.26726e-05 0.07108)
(6.65532e-05 2.11008e-05 0.0711028)
(-5.9784e-05 4.04291e-05 0.0710865)
(-4.45747e-05 4.41991e-05 0.071082)
(-2.54535e-05 4.73431e-05 0.0710796)
(-1.61739e-06 4.80982e-05 0.0710786)
(2.26963e-05 4.65707e-05 0.0710801)
(4.53355e-05 4.34514e-05 0.0710833)
(6.38304e-05 4.06291e-05 0.0710882)
(-5.04271e-05 6.17726e-05 0.0710634)
(-4.09832e-05 6.34609e-05 0.0710869)
(-2.42539e-05 6.67251e-05 0.0711025)
(-2.52377e-06 6.70031e-05 0.0711074)
(2.01704e-05 6.4033e-05 0.0711029)
(4.21939e-05 5.84967e-05 0.0710882)
(6.16252e-05 5.36586e-05 0.0710656)
(-0.000135567 -0.000143553 0.0709416)
(-9.93874e-05 -0.000157102 0.0709367)
(-5.45485e-05 -0.000167402 0.0709341)
(-2.6545e-06 -0.00016952 0.0709327)
(5.06382e-05 -0.000163181 0.0709341)
(0.000101451 -0.000149548 0.0709366)
(0.000145071 -0.000136213 0.0709404)
(-0.00015213 -0.000101041 0.0709371)
(-0.000109653 -0.000111188 0.0709028)
(-5.91595e-05 -0.000119176 0.0708808)
(-1.84074e-06 -0.000121379 0.0708729)
(5.61553e-05 -0.000117657 0.0708806)
(0.000110019 -0.000109491 0.0709024)
(0.000154767 -0.000101458 0.070936)
(-0.000165774 -5.37587e-05 0.0709346)
(-0.000118512 -5.89992e-05 0.070881)
(-6.31083e-05 -6.30499e-05 0.0708477)
(-1.35266e-06 -6.42321e-05 0.0708362)
(6.04756e-05 -6.25058e-05 0.0708475)
(0.000117323 -5.8605e-05 0.0708805)
(0.000164068 -5.45727e-05 0.0709334)
(-0.000170222 -1.49389e-06 0.0709331)
(-0.000121716 -1.33518e-06 0.0708732)
(-6.45815e-05 -1.09207e-06 0.0708363)
(-1.19148e-06 -8.70836e-07 0.0708237)
(6.21485e-05 -6.60323e-07 0.0708361)
(0.000120238 -5.27216e-07 0.0708727)
(0.000167939 -7.66746e-07 0.070932)
(-0.000165432 5.1017e-05 0.0709345)
(-0.000118728 5.62042e-05 0.0708809)
(-6.31722e-05 6.06262e-05 0.0708477)
(-1.17419e-06 6.22543e-05 0.0708362)
(6.09389e-05 6.10211e-05 0.0708476)
(0.000117932 5.74322e-05 0.0708807)
(0.000164803 5.29983e-05 0.0709336)
(-0.000152393 9.99182e-05 0.070937)
(-0.000110671 0.000109194 0.0709027)
(-5.95036e-05 0.000117333 0.0708807)
(-1.53733e-06 0.000120071 0.070873)
(5.7025e-05 0.000117085 0.0708808)
(0.000111055 0.000109551 0.0709028)
(0.000155585 0.000101281 0.0709365)
(-0.000135039 0.000143407 0.0709413)
(-0.000101578 0.000154446 0.0709364)
(-5.54943e-05 0.000164983 0.0709337)
(-2.44059e-06 0.00016797 0.0709324)
(5.17367e-05 0.000162774 0.070934)
(0.000102573 0.000150599 0.0709367)
(0.000145311 0.000137589 0.0709408)
(-0.000346774 -0.000352219 0.0706567)
(-0.000251004 -0.000378834 0.0705867)
(-0.000133171 -0.000399492 0.0705432)
(-2.44913e-06 -0.000406056 0.070528)
(0.000129304 -0.000397656 0.0705434)
(0.000251538 -0.000375632 0.0705867)
(0.000352589 -0.000349376 0.0706549)
(-0.000375552 -0.000252253 0.0705872)
(-0.000270562 -0.000271524 0.0704853)
(-0.000143306 -0.000286135 0.0704203)
(-2.20166e-06 -0.000291122 0.0703979)
(0.000139362 -0.00028581 0.0704203)
(0.000269038 -0.000271797 0.0704851)
(0.000375108 -0.000254359 0.0705858)
(-0.000398619 -0.000132706 0.0705437)
(-0.000285866 -0.000143075 0.0704205)
(-0.000150825 -0.000150572 0.0703433)
(-2.13688e-06 -0.000153141 0.0703168)
(0.000146546 -0.000150535 0.0703431)
(0.000282506 -0.000143537 0.07042)
(0.000394293 -0.000134373 0.0705424)
(-0.000406732 -1.63519e-06 0.0705284)
(-0.000291541 -1.64621e-06 0.0703981)
(-0.00015363 -1.63392e-06 0.0703169)
(-2.121e-06 -1.52499e-06 0.0702892)
(0.000149268 -1.30183e-06 0.0703166)
(0.000287701 -1.10089e-06 0.0703974)
(0.000401715 -1.32146e-06 0.070527)
(-0.000399382 0.000129642 0.0705437)
(-0.000286711 0.000139651 0.0704205)
(-0.000151238 0.000147062 0.0703433)
(-2.0455e-06 0.000149838 0.0703167)
(0.000147116 0.000147704 0.0703429)
(0.000283425 0.000141131 0.0704197)
(0.000395562 0.000131619 0.0705421)
(-0.000377987 0.000250423 0.0705871)
(-0.000272804 0.00026859 0.0704853)
(-0.000144363 0.000282935 0.0704201)
(-2.14248e-06 0.000288185 0.0703975)
(0.000140346 0.000283496 0.0704198)
(0.000270583 0.000270202 0.0704844)
(0.000376971 0.000252816 0.0705851)
(-0.000349056 0.000350944 0.0706561)
(-0.000254701 0.000374661 0.0705863)
(-0.00013511 0.000395381 0.0705425)
(-2.70855e-06 0.000402489 0.0705271)
(0.000130327 0.000394954 0.0705424)
(0.000253082 0.000374302 0.0705855)
(0.000353633 0.000349248 0.0706538)
(-0.000851977 -0.000854102 0.0701023)
(-0.000607638 -0.000904115 0.0698674)
(-0.000316567 -0.000942688 0.0697248)
(-1.61761e-06 -0.000956088 0.0696766)
(0.000313729 -0.000942729 0.0697256)
(0.000607203 -0.000904359 0.0698685)
(0.00085414 -0.000854375 0.0701017)
(-0.00090292 -0.000608023 0.0698679)
(-0.00064444 -0.000644495 0.0696033)
(-0.000336591 -0.000669708 0.0694388)
(-1.66465e-06 -0.000678641 0.0693831)
(0.000333283 -0.00067014 0.0694395)
(0.000642318 -0.000645818 0.0696043)
(0.000901581 -0.000610609 0.069868)
(-0.000942719 -0.000316123 0.0697253)
(-0.00067007 -0.000336045 0.069439)
(-0.000349472 -0.000348795 0.0692621)
(-1.86026e-06 -0.00035329 0.0692023)
(0.000345513 -0.000349213 0.0692626)
(0.000666349 -0.000337116 0.0694399)
(0.000938447 -0.000318079 0.0697259)
(-0.000956804 -1.04267e-06 0.0696771)
(-0.000679346 -1.0131e-06 0.0693834)
(-0.000354116 -1.06791e-06 0.0692024)
(-2.10025e-06 -1.1837e-06 0.0691413)
(0.000349612 -1.3083e-06 0.0692028)
(0.000674764 -1.47789e-06 0.0693841)
(0.000951339 -1.79635e-06 0.0696776)
(-0.000943786 0.000314076 0.069726)
(-0.000670988 0.000333798 0.0694397)
(-0.000350109 0.000346322 0.0692628)
(-2.315e-06 0.000350571 0.0692029)
(0.000345254 0.000346287 0.069263)
(0.000666233 0.000333921 0.0694401)
(0.000938379 0.000314418 0.0697261)
(-0.000905519 0.000606961 0.0698689)
(-0.000646595 0.00064249 0.0696045)
(-0.00033799 0.00066713 0.06944)
(-2.56968e-06 0.000675771 0.0693842)
(0.000332805 0.000667176 0.0694402)
(0.000642087 0.000642886 0.0696048)
(0.000901255 0.000607818 0.0698685)
(-0.000854206 0.000853808 0.0701029)
(-0.000611055 0.000901727 0.0698685)
(-0.000318761 0.000939619 0.0697261)
(-2.9088e-06 0.000952655 0.0696777)
(0.000313142 0.000939239 0.0697263)
(0.000606968 0.000901349 0.0698688)
(0.000853252 0.000852716 0.0701022)
(-0.00214204 -0.00214119 0.0681676)
(-0.00150253 -0.00219935 0.0676633)
(-0.000769626 -0.00225349 0.0673619)
(5.23244e-07 -0.00227265 0.0672611)
(0.0007704 -0.00225354 0.067363)
(0.00150284 -0.00219942 0.0676652)
(0.00214269 -0.00214151 0.068169)
(-0.00220028 -0.00150173 0.0676636)
(-0.00154424 -0.00154324 0.0671312)
(-0.000794794 -0.00157451 0.0668064)
(3.11437e-07 -0.00158604 0.0666973)
(0.00079511 -0.00157502 0.0668071)
(0.00154403 -0.00154414 0.0671325)
(0.00219977 -0.00150264 0.0676648)
(-0.00225459 -0.00076888 0.0673622)
(-0.00157562 -0.000793787 0.0668066)
(-0.000810943 -0.000809755 0.0664687)
(3.4536e-08 -0.000815488 0.0663552)
(0.000810742 -0.000810252 0.066469)
(0.00157482 -0.000794705 0.0668072)
(0.00225275 -0.000770057 0.0673629)
(-0.00227367 1.09628e-06 0.0672614)
(-0.00158715 1.19988e-06 0.0666975)
(-0.000816696 1.19083e-06 0.0663553)
(-2.35931e-07 1.02193e-06 0.0662403)
(0.000815913 7.54418e-07 0.0663554)
(0.00158563 4.21438e-07 0.0666978)
(0.00227097 5.24952e-08 0.0672616)
(-0.00225439 0.000770815 0.0673633)
(-0.00157599 0.000795893 0.0668073)
(-0.000811404 0.000811832 0.0664692)
(-5.34957e-07 0.000817161 0.0663554)
(0.000810104 0.000811433 0.0664691)
(0.00157401 0.000795432 0.0668074)
(0.00225143 0.000770337 0.0673632)
(-0.00220016 0.00150303 0.0676657)
(-0.00154501 0.00154463 0.0671328)
(-0.000795794 0.00157583 0.0668074)
(-8.37757e-07 0.00158692 0.0666979)
(0.00079409 0.00157541 0.0668075)
(0.00154287 0.00154431 0.0671331)
(0.00219742 0.00150302 0.0676656)
(-0.00214269 0.00214238 0.0681699)
(-0.00150372 0.0022002 0.0676652)
(-0.00077105 0.00225386 0.0673631)
(-1.08489e-06 0.00227244 0.0672617)
(0.000769071 0.00225296 0.0673632)
(0.00150164 0.00219906 0.0676657)
(0.00214039 0.00214229 0.06817)
(-0.00452498 -0.0045235 0.0648037)
(-0.0031138 -0.00461063 0.0635347)
(-0.00158046 -0.0046968 0.0628114)
(2.03521e-06 -0.00472859 0.0625752)
(0.00158435 -0.00469872 0.0628124)
(0.00311774 -0.00461397 0.0635372)
(0.00452818 -0.00452844 0.0648077)
(-0.00461249 -0.00311224 0.0635348)
(-0.00317222 -0.00317059 0.062341)
(-0.0016162 -0.00321522 0.0616424)
(1.26393e-06 -0.00323254 0.0614124)
(0.00161851 -0.00321722 0.0616434)
(0.00317453 -0.00317421 0.0623431)
(0.00461395 -0.00311716 0.0635383)
(-0.00469872 -0.00157932 0.0628119)
(-0.00321682 -0.00161489 0.0616427)
(-0.00163833 -0.0016369 0.0609582)
(3.91876e-07 -0.00164522 0.060732)
(0.00163916 -0.00163841 0.0609586)
(0.0032177 -0.00161759 0.0616438)
(0.00469841 -0.00158316 0.0628137)
(-0.00472979 2.68477e-06 0.0625764)
(-0.00323381 2.29516e-06 0.061413)
(-0.00164644 1.68756e-06 0.0607322)
(-1.25138e-08 1.20363e-06 0.0605071)
(0.00164647 1.06147e-06 0.0607322)
(0.00323395 1.08893e-06 0.061413)
(0.00472922 9.79205e-07 0.0625766)
(-0.00469956 0.00158497 0.062814)
(-0.00321814 0.00161948 0.0616441)
(-0.00163945 0.00164033 0.0609589)
(-1.07648e-07 0.00164762 0.0607322)
(0.00163939 0.00164051 0.0609585)
(0.00321848 0.00162006 0.0616435)
(0.00469971 0.00158554 0.0628132)
(-0.00461628 0.00311764 0.0635392)
(-0.00317552 0.00317485 0.0623437)
(-0.00161864 0.0032186 0.061644)
(3.49754e-08 0.00323502 0.0614132)
(0.001619 0.00321944 0.0616436)
(0.00317628 0.00317746 0.0623429)
(0.0046163 0.00312094 0.0635378)
(-0.00453243 0.00452589 0.0648089)
(-0.00311903 0.00461281 0.063538)
(-0.00158408 0.00469906 0.0628135)
(-1.36733e-07 0.00473005 0.0625765)
(0.00158449 0.00470034 0.0628132)
(0.00311981 0.00461806 0.0635379)
(0.00453111 0.00453425 0.0648082)
(6.77942e-05 -5.23577e-05 0.0710641)
(6.35728e-05 -5.34344e-05 0.0711079)
(5.88914e-05 -5.15074e-05 0.0711847)
(5.23127e-05 -4.61478e-05 0.0712561)
(4.35649e-05 -3.80309e-05 0.0712736)
(3.31983e-05 -2.83903e-05 0.0711326)
(2.14745e-05 -1.78697e-05 0.0704154)
(8.36676e-06 -6.66985e-06 0.0660906)
(7.10709e-05 -3.7735e-05 0.0711062)
(7.06086e-05 -4.00552e-05 0.0711618)
(6.70355e-05 -3.84521e-05 0.0712461)
(6.03718e-05 -3.37141e-05 0.0713273)
(5.07106e-05 -2.69294e-05 0.071365)
(3.87403e-05 -1.90212e-05 0.0712705)
(2.50203e-05 -1.06365e-05 0.0706922)
(1.0056e-05 -2.52135e-06 0.0670004)
(7.54782e-05 -2.10261e-05 0.0711419)
(7.76171e-05 -2.25166e-05 0.0712113)
(7.47415e-05 -2.16724e-05 0.0713)
(6.75526e-05 -1.90273e-05 0.0713826)
(5.65613e-05 -1.52812e-05 0.0714256)
(4.26961e-05 -1.09946e-05 0.0713502)
(2.6869e-05 -6.55343e-06 0.0708385)
(1.00148e-05 -2.45137e-06 0.067449)
(7.77313e-05 -8.48932e-07 0.0711544)
(8.09345e-05 -6.45353e-07 0.0712291)
(7.83822e-05 -7.15738e-07 0.0713192)
(7.10354e-05 -9.20452e-07 0.0714019)
(5.95503e-05 -1.22316e-06 0.0714459)
(4.49396e-05 -1.58887e-06 0.0713761)
(2.82514e-05 -1.99235e-06 0.0708853)
(1.05902e-05 -2.34898e-06 0.0675886)
(7.61671e-05 1.91956e-05 0.0711427)
(7.8545e-05 2.12163e-05 0.0712121)
(7.58505e-05 2.0391e-05 0.0713009)
(6.87954e-05 1.74463e-05 0.0713836)
(5.78445e-05 1.31913e-05 0.0714267)
(4.39759e-05 8.26355e-06 0.0713516)
(2.81167e-05 3.11414e-06 0.0708403)
(1.11869e-05 -1.57923e-06 0.0674516)
(7.16334e-05 3.69328e-05 0.071108)
(7.15999e-05 3.96504e-05 0.0711636)
(6.83559e-05 3.81865e-05 0.071248)
(6.19252e-05 3.32592e-05 0.0713293)
(5.23516e-05 2.60661e-05 0.0713673)
(4.03802e-05 1.76199e-05 0.0712733)
(2.66074e-05 8.60625e-06 0.0706957)
(1.16156e-05 -3.93173e-08 0.0670052)
(6.80063e-05 5.15156e-05 0.071067)
(6.42038e-05 5.32715e-05 0.0711108)
(5.97809e-05 5.15102e-05 0.0711875)
(5.33051e-05 4.61374e-05 0.071259)
(4.44669e-05 3.79457e-05 0.0712768)
(3.38063e-05 2.81012e-05 0.0711363)
(2.15493e-05 1.72122e-05 0.0704197)
(8.22236e-06 6.17763e-06 0.0660963)
(0.00016368 -0.000134747 0.0709706)
(0.000161432 -0.000135856 0.071045)
(0.000152838 -0.000128652 0.0711542)
(0.000136661 -0.000113363 0.0712568)
(0.000113825 -9.19003e-05 0.0713026)
(8.63649e-05 -6.69468e-05 0.0711864)
(5.55238e-05 -4.0062e-05 0.0704919)
(2.22274e-05 -1.26836e-05 0.0661886)
(0.000175457 -9.99595e-05 0.0709889)
(0.00017893 -0.000101849 0.0710794)
(0.000172546 -9.55714e-05 0.0712003)
(0.00015657 -8.26492e-05 0.0713169)
(0.000131823 -6.52127e-05 0.0713868)
(0.000100532 -4.5253e-05 0.0713206)
(6.48335e-05 -2.42279e-05 0.0707672)
(2.64113e-05 -3.71602e-06 0.0670976)
(0.000188762 -5.39409e-05 0.071009)
(0.000196516 -5.57576e-05 0.0711156)
(0.000191163 -5.24562e-05 0.0712436)
(0.000174014 -4.52919e-05 0.0713646)
(0.000146297 -3.56467e-05 0.0714428)
(0.000110552 -2.4649e-05 0.0713982)
(6.97423e-05 -1.31396e-05 0.070913)
(2.63101e-05 -2.04149e-06 0.0675462)
(0.000194475 -8.58795e-07 0.0710158)
(0.000204095 -9.45895e-07 0.0711283)
(0.00019916 -1.12511e-06 0.0712586)
(0.000181488 -1.26596e-06 0.0713807)
(0.000152528 -1.37952e-06 0.0714611)
(0.000114973 -1.45127e-06 0.071423)
(7.20656e-05 -1.4291e-06 0.0709593)
(2.65551e-05 -1.18423e-06 0.0676855)
(0.000189758 5.20433e-05 0.0710091)
(0.00019775 5.37507e-05 0.0711156)
(0.000192446 5.03276e-05 0.0712435)
(0.000175196 4.30701e-05 0.0713647)
(0.000147291 3.33326e-05 0.0714432)
(0.000111381 2.22791e-05 0.071399)
(7.04082e-05 1.08446e-05 0.0709143)
(2.67846e-05 2.11296e-07 0.0675483)
(0.000176067 9.85601e-05 0.0709892)
(0.000179677 0.000100143 0.0710795)
(0.000173398 9.40799e-05 0.0712004)
(0.000157407 8.13995e-05 0.0713173)
(0.000132546 6.40984e-05 0.0713878)
(0.000101127 4.41818e-05 0.0713223)
(6.52292e-05 2.31313e-05 0.0707698)
(2.66919e-05 2.8887e-06 0.0671015)
(0.000162642 0.000133685 0.0709709)
(0.000159728 0.000133864 0.0710453)
(0.000150974 0.000126378 0.0711547)
(0.000134939 0.000111296 0.0712577)
(0.000112299 9.02786e-05 0.071304)
(8.49698e-05 6.57481e-05 0.0711886)
(5.41752e-05 3.92545e-05 0.0704952)
(2.11824e-05 1.27024e-05 0.0661934)
(0.000393435 -0.000336691 0.070759)
(0.000389129 -0.000328122 0.0709074)
(0.000367401 -0.000304133 0.071096)
(0.000326907 -0.000265279 0.0712764)
(0.000270087 -0.000214029 0.0713937)
(0.000202084 -0.000155157 0.0713398)
(0.000126672 -9.22688e-05 0.0706994)
(4.68146e-05 -2.86115e-05 0.0664406)
(0.000424245 -0.000249879 0.0707193)
(0.000435462 -0.000245437 0.0708935)
(0.000422422 -0.000228152 0.0711035)
(0.000384534 -0.000199103 0.0713086)
(0.000323222 -0.000160118 0.0714609)
(0.000244387 -0.000114548 0.0714664)
(0.000154513 -6.57813e-05 0.0709734)
(5.78043e-05 -1.67323e-05 0.067352)
(0.000454971 -0.000133016 0.0707025)
(0.000477928 -0.000132912 0.0708977)
(0.000470143 -0.000124464 0.071121)
(0.00043211 -0.000108931 0.0713378)
(0.000365416 -8.76511e-05 0.0715059)
(0.000276432 -6.25014e-05 0.0715397)
(0.000173663 -3.55336e-05 0.0711195)
(6.28683e-05 -8.39838e-06 0.0678031)
(0.000466998 -1.63681e-06 0.0706963)
(0.0004948 -1.86163e-06 0.0708991)
(0.000488994 -2.00696e-06 0.0711269)
(0.000450696 -1.96464e-06 0.0713473)
(0.000381718 -1.80462e-06 0.0715202)
(0.000288689 -1.54913e-06 0.0715629)
(0.000180877 -1.13665e-06 0.0711657)
(6.46349e-05 -3.84937e-07 0.0679429)
(0.000456714 0.000129517 0.0707022)
(0.000480022 0.000129116 0.0708976)
(0.000472166 0.000120674 0.071121)
(0.000433752 0.000105434 0.0713379)
(0.000366528 8.45914e-05 0.0715062)
(0.000277055 5.99966e-05 0.0715402)
(0.000173882 3.38217e-05 0.0711202)
(6.27976e-05 8.06571e-06 0.0678041)
(0.000426304 0.000246709 0.0707189)
(0.000437691 0.000241892 0.0708932)
(0.000424455 0.000225065 0.0711034)
(0.000386062 0.000196699 0.0713087)
(0.000324088 0.000158361 0.0714613)
(0.000244617 0.000113358 0.0714671)
(0.000154197 6.51697e-05 0.0709746)
(5.7242e-05 1.70391e-05 0.0673536)
(0.000393195 0.000334269 0.0707582)
(0.00038785 0.000324802 0.0709067)
(0.000365549 0.000300756 0.0710954)
(0.000324813 0.000262395 0.0712761)
(0.000267868 0.000211882 0.0713937)
(0.000199801 0.000153786 0.0713402)
(0.00012439 9.17238e-05 0.0707002)
(4.48943e-05 2.92765e-05 0.0664416)
(0.00097266 -0.000827068 0.0704053)
(0.000985786 -0.000814513 0.0707451)
(0.000953353 -0.000768598 0.0711379)
(0.000870944 -0.000687907 0.071523)
(0.000742284 -0.000574417 0.0718309)
(0.000576131 -0.000434987 0.0719405)
(0.000377485 -0.000274035 0.0714353)
(0.000152671 -9.79032e-05 0.0672885)
(0.00104203 -0.000599123 0.0702069)
(0.00109963 -0.000589761 0.0705903)
(0.00109665 -0.000559246 0.0710234)
(0.00102745 -0.000504234 0.0714554)
(0.00089163 -0.000423086 0.0718234)
(0.000698748 -0.000319378 0.0720167)
(0.000459892 -0.000198155 0.0716774)
(0.000183617 -6.44018e-05 0.0681797)
(0.00110586 -0.000313769 0.0700923)
(0.0011926 -0.000313218 0.0705021)
(0.0012069 -0.000299221 0.0709586)
(0.00114334 -0.000271007 0.0714164)
(0.000999824 -0.00022785 0.0718172)
(0.00078552 -0.000171579 0.0720564)
(0.000515343 -0.000105472 0.071804)
(0.00020039 -3.23939e-05 0.0686203)
(0.00112879 -1.61028e-06 0.0700528)
(0.0012268 -1.29108e-06 0.0704714)
(0.0012474 -1.27658e-06 0.0709356)
(0.00118565 -1.32685e-06 0.0714017)
(0.00103904 -1.32723e-06 0.0718132)
(0.000816703 -1.20976e-06 0.0720675)
(0.000534971 -8.86683e-07 0.0718432)
(0.000205828 -1.55968e-07 0.0687563)
(0.00110603 0.000310285 0.0700926)
(0.001193 0.00031054 0.0705025)
(0.00120725 0.000296806 0.0709591)
(0.00114348 0.000268639 0.0714167)
(0.000999688 0.000225564 0.0718174)
(0.00078518 0.000169564 0.0720565)
(0.000514971 0.0001041 0.0718039)
(0.00020009 3.23155e-05 0.06862)
(0.00104184 0.000595514 0.0702077)
(0.00109971 0.000586904 0.0705911)
(0.00109669 0.000557053 0.0710241)
(0.00102722 0.000502455 0.0714559)
(0.000891098 0.000421605 0.0718235)
(0.000698031 0.000318213 0.0720165)
(0.000459129 0.000197428 0.071677)
(0.000183024 6.44293e-05 0.0681788)
(0.000971234 0.000824143 0.070406)
(0.00098437 0.000811758 0.0707458)
(0.000951859 0.000766187 0.0711383)
(0.000869223 0.00068604 0.0715229)
(0.000740335 0.000573147 0.0718303)
(0.000574065 0.000434332 0.0719395)
(0.000375488 0.000274072 0.0714339)
(0.000151076 9.87368e-05 0.0672864)
(0.00248469 -0.00213178 0.0688128)
(0.00257372 -0.00215287 0.0694984)
(0.00255498 -0.00209325 0.0702828)
(0.00240913 -0.00194187 0.0710855)
(0.00212674 -0.0016897 0.0718096)
(0.0017233 -0.00135021 0.072299)
(0.00121318 -0.000940632 0.0720972)
(0.000453419 -0.000341328 0.0681312)
(0.00259089 -0.00152289 0.0683551)
(0.00279663 -0.0015467 0.0691169)
(0.00287023 -0.00152088 0.069979)
(0.00278611 -0.0014326 0.0708772)
(0.00251866 -0.00126729 0.0717221)
(0.00207639 -0.00102664 0.0723638)
(0.00148876 -0.000726013 0.0723925)
(0.000565029 -0.000270226 0.0691058)
(0.00270768 -0.000786243 0.068083)
(0.00299074 -0.000811058 0.0688825)
(0.00312323 -0.000804365 0.0697881)
(0.0030763 -0.000762603 0.0707414)
(0.00281642 -0.00067833 0.0716585)
(0.00234387 -0.00055101 0.0723926)
(0.00169586 -0.000389909 0.072554)
(0.00064977 -0.00014304 0.0696063)
(0.00274874 -4.38546e-08 0.0679902)
(0.00306084 7.58338e-09 0.0688013)
(0.00321451 -2.06732e-07 0.0697209)
(0.00318045 -5.73444e-07 0.0706927)
(0.00292292 -9.18858e-07 0.0716346)
(0.0024393 -1.10879e-06 0.0724005)
(0.00176926 -1.04175e-06 0.0726069)
(0.000678742 -5.93169e-07 0.0697656)
(0.00270589 0.000786085 0.0680827)
(0.00298877 0.000811088 0.0688816)
(0.00312133 0.000804089 0.0697868)
(0.00307456 0.000761676 0.0707398)
(0.00281493 0.000676754 0.0716568)
(0.00234275 0.00054907 0.0723908)
(0.00169515 0.000388064 0.0725521)
(0.000649489 0.000141952 0.0696042)
(0.00258729 0.00152216 0.068355)
(0.00279252 0.00154626 0.0691157)
(0.00286622 0.00152049 0.069977)
(0.00278254 0.00143198 0.0708745)
(0.00251577 0.00126637 0.071719)
(0.0020744 0.00102552 0.0723603)
(0.00148772 0.000724869 0.0723888)
(0.00056476 0.000269299 0.0691017)
(0.00248064 0.00213108 0.0688125)
(0.00256894 0.0021514 0.0694975)
(0.00255006 0.00209156 0.070281)
(0.00240459 0.00194055 0.0710828)
(0.00212285 0.00168894 0.0718062)
(0.00172029 0.00134999 0.0722949)
(0.00121121 0.000940802 0.0720926)
(0.000452463 0.000341582 0.068126)
(0.00548426 -0.00463324 0.0664807)
(0.00594616 -0.00487477 0.0683327)
(0.00621133 -0.00497619 0.070605)
(0.00621801 -0.00489176 0.0732879)
(0.00590652 -0.00456715 0.076374)
(0.0051939 -0.00393478 0.0798871)
(0.00391735 -0.00286988 0.0840279)
(0.00208249 -0.00141808 0.086937)
(0.00565077 -0.00320479 0.0651625)
(0.00638272 -0.00335653 0.0670405)
(0.00688812 -0.00344242 0.069332)
(0.00709597 -0.00341708 0.0720669)
(0.00690355 -0.00322281 0.075265)
(0.0061842 -0.00279426 0.0789666)
(0.00474422 -0.00203777 0.0834058)
(0.00251889 -0.000942856 0.0873141)
(0.00584577 -0.00163842 0.0644047)
(0.00672688 -0.00173571 0.0662591)
(0.00736782 -0.00179085 0.0685397)
(0.00768858 -0.00178708 0.071287)
(0.00756302 -0.00169422 0.0745378)
(0.00683115 -0.00147475 0.0783474)
(0.0052719 -0.00107837 0.0829674)
(0.0027602 -0.000486626 0.0874209)
(0.00591843 -6.39592e-07 0.0641543)
(0.00685492 -1.89815e-06 0.0659984)
(0.00754328 -2.42613e-06 0.0682742)
(0.00790232 -2.62321e-06 0.0710253)
(0.00779908 -2.67949e-06 0.0742938)
(0.00706194 -2.67683e-06 0.0781403)
(0.00545891 -2.60346e-06 0.0828223)
(0.00284212 -2.23926e-06 0.0874526)
(0.00584757 0.00163742 0.0644033)
(0.00672906 0.00173247 0.0662564)
(0.00737002 0.00178671 0.0685363)
(0.0076906 0.00178264 0.0712831)
(0.00756477 0.00168971 0.0745335)
(0.00683253 0.0014702 0.0783428)
(0.00527281 0.00107381 0.0829626)
(0.00276095 0.000482494 0.0874163)
(0.00565361 0.00320484 0.0651608)
(0.00638569 0.00335489 0.067037)
(0.00689086 0.00344023 0.0693264)
(0.00709847 0.0034149 0.0720599)
(0.00690578 0.00322078 0.0752569)
(0.00618608 0.00279221 0.0789574)
(0.00474573 0.00203542 0.0833956)
(0.0025203 0.000940214 0.0873038)
(0.00548586 0.00463596 0.0664798)
(0.00594609 0.0048763 0.0683305)
(0.00620981 0.00497663 0.0706006)
(0.00621594 0.00489176 0.0732813)
(0.0059044 0.00456715 0.0763655)
(0.00519196 0.00393481 0.0798767)
(0.00391584 0.0028698 0.0840156)
(0.00208199 0.00141783 0.0869239)
(-5.08161e-05 5.37996e-05 0.0710632)
(-5.03434e-05 4.63173e-05 0.0711072)
(-4.96787e-05 3.99322e-05 0.0711847)
(-4.65187e-05 3.35463e-05 0.0712567)
(-4.05892e-05 2.61191e-05 0.0712749)
(-3.26275e-05 1.77272e-05 0.0711345)
(-2.31419e-05 8.71768e-06 0.070418)
(-1.21208e-05 -2.42863e-07 0.0660938)
(-6.23861e-05 4.31871e-05 0.0711054)
(-6.0281e-05 3.98004e-05 0.0711617)
(-5.85949e-05 3.4884e-05 0.0712468)
(-5.40225e-05 2.89072e-05 0.0713286)
(-4.62816e-05 2.18969e-05 0.0713669)
(-3.60807e-05 1.40738e-05 0.0712732)
(-2.40071e-05 5.78743e-06 0.070696)
(-1.09446e-05 -1.83065e-06 0.0670053)
(-7.12132e-05 2.3907e-05 0.0711414)
(-7.01944e-05 2.29072e-05 0.0712116)
(-6.77591e-05 2.01794e-05 0.0713009)
(-6.16884e-05 1.65228e-05 0.071384)
(-5.19263e-05 1.21566e-05 0.0714275)
(-3.93733e-05 7.34708e-06 0.0713528)
(-2.49582e-05 2.33912e-06 0.0708423)
(-9.97942e-06 -2.12256e-06 0.0674539)
(-7.44114e-05 -5.30209e-07 0.0711538)
(-7.38335e-05 1.28652e-07 0.0712291)
(-7.1118e-05 2.24404e-07 0.0713197)
(-6.44329e-05 2.60961e-08 0.0714027)
(-5.38683e-05 -3.75711e-07 0.0714471)
(-4.04101e-05 -9.39048e-07 0.071378)
(-2.50599e-05 -1.65858e-06 0.0708882)
(-9.30008e-06 -2.39192e-06 0.0675924)
(-7.12052e-05 -2.48318e-05 0.0711412)
(-7.01369e-05 -2.25582e-05 0.0712111)
(-6.74311e-05 -1.96904e-05 0.0713002)
(-6.10037e-05 -1.64161e-05 0.0713833)
(-5.09415e-05 -1.27537e-05 0.0714267)
(-3.81899e-05 -8.87715e-06 0.0713521)
(-2.36661e-05 -5.04082e-06 0.0708416)
(-8.71877e-06 -1.70631e-06 0.0674531)
(-6.16136e-05 -4.50249e-05 0.0711047)
(-5.97059e-05 -4.06764e-05 0.0711605)
(-5.76917e-05 -3.56764e-05 0.0712455)
(-5.25562e-05 -2.98862e-05 0.0713272)
(-4.42782e-05 -2.31086e-05 0.0713655)
(-3.37209e-05 -1.57021e-05 0.0712719)
(-2.15828e-05 -7.99279e-06 0.0706948)
(-8.88252e-06 -8.31723e-07 0.0670041)
(-5.19484e-05 -5.52721e-05 0.0710608)
(-4.86942e-05 -4.77456e-05 0.0711049)
(-4.75497e-05 -4.18926e-05 0.0711825)
(-4.36297e-05 -3.53628e-05 0.0712547)
(-3.71544e-05 -2.76873e-05 0.0712732)
(-2.89727e-05 -1.916e-05 0.0711331)
(-1.94112e-05 -9.92677e-06 0.070417)
(-9.20997e-06 -1.05937e-06 0.0660931)
(-0.000147425 0.000136663 0.0709732)
(-0.000148539 0.000129373 0.0710473)
(-0.000143995 0.000117799 0.071156)
(-0.000131351 0.000101722 0.0712582)
(-0.000111322 8.12549e-05 0.0713035)
(-8.60192e-05 5.78476e-05 0.0711867)
(-5.68824e-05 3.27376e-05 0.0704912)
(-2.49605e-05 7.78276e-06 0.0661868)
(-0.000168289 0.000105797 0.0709909)
(-0.000170717 0.000102962 0.0710815)
(-0.000166044 9.35134e-05 0.0712022)
(-0.000151851 7.9279e-05 0.0713186)
(-0.000128657 6.15811e-05 0.0713883)
(-9.87559e-05 4.17662e-05 0.0713216)
(-6.42522e-05 2.0904e-05 0.0707674)
(-2.70824e-05 8.77276e-07 0.0670968)
(-0.000186747 5.69942e-05 0.0710108)
(-0.00019161 5.69381e-05 0.0711177)
(-0.000186297 5.18513e-05 0.0712456)
(-0.000169948 4.36746e-05 0.0713666)
(-0.000143076 3.34932e-05 0.0714446)
(-0.000108275 2.21612e-05 0.0713995)
(-6.8435e-05 1.03955e-05 0.0709133)
(-2.62541e-05 -6.58934e-07 0.0675452)
(-0.000193767 -8.20063e-07 0.0710175)
(-0.000199739 1.39375e-07 0.0711305)
(-0.000194153 4.81793e-07 0.0712608)
(-0.000176827 4.71532e-07 0.0713828)
(-0.000148488 2.03016e-07 0.0714629)
(-0.000111793 -2.57783e-07 0.071424)
(-6.98532e-05 -8.65622e-07 0.0709591)
(-2.57136e-05 -1.44164e-06 0.0676835)
(-0.000187572 -5.88109e-05 0.0710109)
(-0.00019223 -5.69211e-05 0.0711178)
(-0.000186465 -5.10252e-05 0.0712458)
(-0.000169676 -4.27737e-05 0.0713666)
(-0.000142536 -3.2979e-05 0.0714445)
(-0.000107557 -2.23547e-05 0.0713992)
(-6.75822e-05 -1.15247e-05 0.0709128)
(-2.54577e-05 -1.31301e-06 0.0675442)
(-0.000168828 -0.000108464 0.0709911)
(-0.000170999 -0.000104479 0.0710817)
(-0.000165732 -9.42293e-05 0.0712024)
(-0.000150936 -7.97051e-05 0.0713186)
(-0.000127277 -6.19823e-05 0.0713881)
(-9.71407e-05 -4.23709e-05 0.0713211)
(-6.26106e-05 -2.18628e-05 0.0707665)
(-2.58117e-05 -2.08401e-06 0.0670951)
(-0.000148354 -0.000139032 0.0709729)
(-0.000148096 -0.000132319 0.071047)
(-0.000142937 -0.000120671 0.0711557)
(-0.000129554 -0.000103876 0.0712578)
(-0.000108939 -8.26039e-05 0.071303)
(-8.34631e-05 -5.85274e-05 0.071186)
(-5.45595e-05 -3.27699e-05 0.0704902)
(-2.37244e-05 -7.36788e-06 0.066185)
(-0.000385871 0.000335869 0.0707633)
(-0.000383607 0.000322811 0.0709114)
(-0.000364557 0.000297011 0.0710989)
(-0.000326151 0.000258339 0.0712784)
(-0.000270578 0.000208147 0.0713946)
(-0.000203207 0.000150628 0.0713395)
(-0.000127922 8.92884e-05 0.0706972)
(-4.76527e-05 2.76552e-05 0.0664367)
(-0.000424516 0.000252084 0.0707224)
(-0.000434675 0.000245542 0.0708964)
(-0.000422381 0.000226815 0.0711059)
(-0.000385143 0.000197303 0.0713105)
(-0.000324239 0.000158366 0.0714621)
(-0.000245617 0.000112973 0.0714667)
(-0.000155639 6.43872e-05 0.0709721)
(-5.86832e-05 1.57878e-05 0.0673491)
(-0.000458201 0.000133724 0.0707046)
(-0.000478844 0.000132935 0.0708999)
(-0.000470572 0.000123498 0.0711231)
(-0.00043249 0.000107446 0.0713397)
(-0.000365854 8.6011e-05 0.0715074)
(-0.000276975 6.09056e-05 0.0715403)
(-0.000174173 3.40937e-05 0.0711185)
(-6.33325e-05 7.48973e-06 0.0678002)
(-0.000470187 -1.12058e-06 0.0706983)
(-0.000495031 -3.72286e-07 0.0709013)
(-0.000488346 3.36038e-08 0.0711291)
(-0.00044994 1.97207e-07 0.0713494)
(-0.000381108 1.81104e-07 0.0715218)
(-0.000288365 2.52799e-08 0.0715634)
(-0.000180766 -2.54487e-07 0.0711643)
(-6.47754e-05 -5.23135e-07 0.0679393)
(-0.000457658 -0.000136184 0.0707049)
(-0.000478219 -0.000134003 0.0709004)
(-0.000469824 -0.000123634 0.0711237)
(-0.000431704 -0.000107084 0.0713402)
(-0.000365074 -8.54756e-05 0.0715077)
(-0.000276252 -6.04477e-05 0.0715402)
(-0.000173557 -3.3917e-05 0.071118)
(-6.29773e-05 -7.57119e-06 0.0677991)
(-0.000422424 -0.000255497 0.070723)
(-0.000432741 -0.000248275 0.0708974)
(-0.000420513 -0.000228351 0.071107)
(-0.000383333 -0.000197919 0.0713114)
(-0.000322541 -0.000158366 0.0714626)
(-0.000244149 -0.000112649 0.0714666)
(-0.000154627 -6.39054e-05 0.0709713)
(-5.8384e-05 -1.51073e-05 0.0673472)
(-0.000384078 -0.000339012 0.0707645)
(-0.000381279 -0.000326654 0.0709127)
(-0.000362597 -0.000300242 0.0711)
(-0.00032439 -0.000260403 0.071279)
(-0.000269065 -0.000209032 0.0713949)
(-0.000202125 -0.000150413 0.0713391)
(-0.00012755 -8.79115e-05 0.0706961)
(-4.85969e-05 -2.51684e-05 0.0664345)
(-0.000970482 0.000824711 0.0704091)
(-0.000984547 0.00081032 0.0707488)
(-0.000953587 0.000764172 0.0711408)
(-0.000872173 0.000684423 0.071525)
(-0.000743843 0.000572227 0.0718319)
(-0.000577415 0.000434043 0.0719404)