/*--------------------------------*- C++ -*----------------------------------*\
| =========                 |                                                 |
| \\      /  F ield         | OpenFOAM: The Open Source CFD Toolbox           |
|  \\    /   O peration     | Version:  plus.master.MPPICInterFoam            |
|   \\  /    A nd           | Web:      www.OpenFOAM.com                      |
|    \\/     M anipulation  |                                                 |
\*---------------------------------------------------------------------------*/
FoamFile
{
    version     2.0;
    format      ascii;
    class       volScalarField;
    location    "0.4";
    object      k;
}
// * * * * * * * * * * * * * * * * * * * * * * * * * * * * * * * * * * * * * //

dimensions      [0 2 -2 0 0 0 0];

internalField   nonuniform List<scalar> 
11821
(
0.00215033
0.00215432
0.00214186
0.00215039
0.00214186
0.00212229
0.00212191
0.00214123
0.00214934
0.00215156
0.00214934
0.00214126
0.002122
0.00214123
0.0021533
0.00215827
0.00215959
0.00215829
0.00215336
0.00214134
0.00214934
0.00215827
0.0021617
0.00216258
0.00216174
0.00215836
0.00214948
0.00215156
0.00215959
0.00216258
0.00216335
0.00216265
0.00215972
0.00215174
0.00214935
0.0021583
0.00216174
0.00216265
0.00216183
0.00215845
0.0021495
0.00214127
0.00215337
0.00215836
0.00215972
0.00215845
0.00215346
0.00214134
0.00212201
0.00214135
0.00214949
0.00215174
0.0021495
0.00214134
0.00212199
0.00212205
0.00214132
0.00214941
0.00215161
0.00214938
0.00214127
0.00212199
0.00214132
0.00215338
0.00215833
0.00215963
0.00215832
0.00215336
0.00214131
0.0021494
0.00215833
0.00216175
0.00216261
0.00216175
0.00215833
0.00214942
0.00215161
0.00215963
0.00216261
0.00216335
0.00216261
0.00215964
0.00215162
0.00214938
0.00215832
0.00216175
0.00216261
0.00216175
0.00215832
0.00214939
0.00214127
0.00215337
0.00215833
0.00215964
0.00215832
0.00215335
0.00214127
0.002122
0.00214131
0.00214941
0.00215162
0.00214939
0.00214127
0.00212195
0.00212215
0.0021414
0.00214946
0.00215165
0.00214941
0.0021413
0.00212203
0.0021414
0.00215345
0.00215839
0.00215968
0.00215836
0.0021534
0.00214135
0.00214946
0.00215839
0.0021618
0.00216266
0.00216179
0.00215836
0.00214944
0.00215165
0.00215968
0.00216266
0.00216339
0.00216265
0.00215967
0.00215165
0.00214942
0.00215836
0.00216179
0.00216265
0.00216178
0.00215835
0.00214942
0.00214131
0.00215341
0.00215837
0.00215967
0.00215835
0.00215339
0.00214131
0.00212205
0.00214135
0.00214945
0.00215165
0.00214942
0.00214131
0.00212201
0.00212219
0.00214143
0.00214949
0.00215168
0.00214945
0.00214135
0.00212209
0.00214142
0.00215347
0.00215841
0.00215971
0.00215839
0.00215343
0.00214138
0.00214949
0.00215841
0.00216182
0.00216268
0.00216181
0.00215839
0.00214947
0.00215168
0.00215971
0.00216268
0.00216341
0.00216267
0.00215969
0.00215167
0.00214945
0.00215839
0.00216181
0.00216267
0.0021618
0.00215837
0.00214945
0.00214136
0.00215344
0.00215839
0.00215969
0.00215837
0.00215342
0.00214135
0.0021221
0.00214138
0.00214947
0.00215167
0.00214945
0.00214135
0.00212207
0.00212214
0.00214139
0.00214946
0.00215166
0.00214944
0.00214136
0.0021221
0.00214138
0.00215344
0.00215838
0.00215968
0.00215837
0.00215342
0.00214136
0.00214946
0.00215838
0.00216179
0.00216265
0.00216178
0.00215836
0.00214944
0.00215166
0.00215968
0.00216265
0.00216338
0.00216264
0.00215967
0.00215165
0.00214944
0.00215837
0.00216178
0.00216264
0.00216177
0.00215836
0.00214944
0.00214135
0.00215341
0.00215836
0.00215966
0.00215836
0.00215341
0.00214135
0.00212208
0.00214135
0.00214943
0.00215165
0.00214944
0.00214135
0.0021221
0.00212204
0.0021413
0.00214938
0.00215159
0.00214937
0.00214128
0.00212201
0.00214129
0.00215336
0.00215831
0.00215961
0.0021583
0.00215334
0.00214127
0.00214937
0.0021583
0.00216172
0.00216258
0.00216172
0.00215829
0.00214936
0.00215158
0.00215961
0.00216258
0.00216332
0.00216258
0.0021596
0.00215158
0.00214936
0.00215829
0.00216171
0.00216258
0.00216171
0.0021583
0.00214938
0.00214126
0.00215333
0.00215829
0.0021596
0.0021583
0.00215335
0.0021413
0.00212198
0.00214126
0.00214936
0.00215158
0.00214938
0.0021413
0.00212205
0.00212199
0.00214123
0.00214931
0.00215151
0.00214929
0.0021412
0.00212194
0.00214124
0.00215329
0.00215823
0.00215954
0.00215823
0.00215327
0.00214121
0.00214931
0.00215824
0.00216165
0.00216251
0.00216165
0.00215823
0.0021493
0.00215152
0.00215954
0.00216252
0.00216325
0.00216252
0.00215954
0.00215152
0.0021493
0.00215823
0.00216165
0.00216252
0.00216165
0.00215823
0.0021493
0.00214121
0.00215328
0.00215823
0.00215954
0.00215823
0.00215328
0.00214121
0.00212196
0.00214123
0.00214931
0.00215152
0.00214931
0.00214122
0.00212195
0.00212198
0.00214122
0.00214929
0.00215149
0.00214927
0.00214118
0.00212193
0.00214122
0.00215327
0.00215821
0.00215951
0.0021582
0.00215325
0.00214121
0.00214929
0.00215821
0.00216162
0.00216248
0.00216162
0.0021582
0.00214929
0.00215149
0.00215951
0.00216248
0.00216322
0.00216248
0.00215951
0.0021515
0.00214927
0.0021582
0.00216162
0.00216249
0.00216162
0.00215819
0.00214927
0.00214119
0.00215326
0.00215821
0.00215951
0.0021582
0.00215323
0.00214116
0.00212195
0.00214122
0.0021493
0.0021515
0.00214927
0.00214116
0.00212187
0.00212195
0.00214122
0.0021493
0.0021515
0.00214927
0.00214118
0.00212193
0.00214121
0.00215327
0.00215821
0.00215952
0.00215821
0.00215326
0.00214122
0.00214929
0.00215821
0.00216163
0.00216249
0.00216163
0.00215822
0.00214931
0.00215149
0.00215952
0.00216249
0.00216323
0.0021625
0.00215953
0.00215152
0.00214927
0.00215821
0.00216163
0.0021625
0.00216163
0.00215821
0.0021493
0.00214117
0.00215326
0.00215822
0.00215953
0.00215821
0.00215326
0.00214119
0.00212192
0.00214121
0.00214931
0.00215152
0.0021493
0.0021412
0.00212191
0.00212195
0.00214125
0.00214936
0.00215157
0.00214935
0.00214126
0.002122
0.00214125
0.00215333
0.00215828
0.0021596
0.00215829
0.00215334
0.00214129
0.00214935
0.00215828
0.00216171
0.00216257
0.00216171
0.0021583
0.00214938
0.00215157
0.00215959
0.00216257
0.00216331
0.00216258
0.00215961
0.0021516
0.00214935
0.00215829
0.00216171
0.00216258
0.00216172
0.0021583
0.00214938
0.00214126
0.00215334
0.0021583
0.00215961
0.0021583
0.00215335
0.00214129
0.00212199
0.00214128
0.00214938
0.00215159
0.00214938
0.00214129
0.00212202
0.00212214
0.00214143
0.00214952
0.00215174
0.00214954
0.00214145
0.00212218
0.00214143
0.00215351
0.00215847
0.00215978
0.00215847
0.00215351
0.00214143
0.00214953
0.00215847
0.00216189
0.00216275
0.00216188
0.00215845
0.00214951
0.00215175
0.00215978
0.00216275
0.00216348
0.00216274
0.00215976
0.00215172
0.00214955
0.00215847
0.00216188
0.00216274
0.00216187
0.00215845
0.00214951
0.00214146
0.00215352
0.00215846
0.00215976
0.00215845
0.00215349
0.00214141
0.0021222
0.00214144
0.00214952
0.00215173
0.00214951
0.00214142
0.00212214
0.00212235
0.00214164
0.00214973
0.00215194
0.00214973
0.00214164
0.00212235
0.00214164
0.00215372
0.00215867
0.00215997
0.00215865
0.00215369
0.00214159
0.00214973
0.00215867
0.00216208
0.00216293
0.00216205
0.00215861
0.00214966
0.00215194
0.00215997
0.00216293
0.00216365
0.0021629
0.00215991
0.00215187
0.00214973
0.00215865
0.00216205
0.0021629
0.00216203
0.0021586
0.00214966
0.00214164
0.00215369
0.00215862
0.00215991
0.0021586
0.00215364
0.00214159
0.00212235
0.0021416
0.00214967
0.00215188
0.00214967
0.00214159
0.00212234
0.00212237
0.00214169
0.00214978
0.002152
0.00214979
0.00214169
0.00212241
0.00214169
0.00215378
0.00215873
0.00216003
0.00215871
0.00215375
0.00214167
0.00214978
0.00215873
0.00216213
0.00216298
0.0021621
0.00215867
0.00214974
0.002152
0.00216003
0.00216298
0.0021637
0.00216295
0.00215997
0.00215194
0.00214978
0.00215871
0.0021621
0.00216295
0.00216208
0.00215865
0.00214973
0.00214168
0.00215374
0.00215867
0.00215997
0.00215865
0.0021537
0.00214166
0.00212239
0.00214166
0.00214973
0.00215194
0.00214973
0.00214166
0.00212242
0.00212231
0.00214162
0.00214972
0.00215194
0.00214973
0.00214163
0.00212235
0.00214162
0.00215372
0.00215866
0.00215997
0.00215865
0.00215369
0.00214162
0.00214972
0.00215866
0.00216207
0.00216292
0.00216205
0.00215862
0.00214969
0.00215194
0.00215997
0.00216292
0.00216365
0.0021629
0.00215992
0.0021519
0.00214973
0.00215865
0.00216205
0.0021629
0.00216203
0.00215861
0.00214968
0.00214163
0.00215369
0.00215862
0.00215992
0.00215861
0.00215365
0.00214159
0.00212233
0.0021416
0.00214968
0.00215189
0.00214968
0.00214159
0.00212232
0.00212223
0.00214153
0.00214962
0.00215183
0.00214961
0.00214151
0.00212222
0.00214153
0.00215361
0.00215855
0.00215985
0.00215854
0.00215357
0.0021415
0.00214962
0.00215855
0.00216196
0.00216281
0.00216194
0.00215851
0.00214958
0.00215183
0.00215986
0.00216281
0.00216354
0.00216279
0.00215981
0.00215179
0.00214961
0.00215854
0.00216194
0.00216279
0.00216192
0.0021585
0.00214957
0.00214151
0.00215357
0.00215851
0.00215981
0.0021585
0.00215354
0.00214148
0.00212222
0.00214149
0.00214958
0.00215179
0.00214957
0.00214148
0.00212221
0.0021221
0.00214138
0.00214947
0.00215168
0.00214947
0.00214138
0.00212213
0.00214139
0.00215346
0.00215839
0.0021597
0.00215839
0.00215345
0.0021414
0.00214947
0.0021584
0.0021618
0.00216267
0.0021618
0.00215839
0.00214948
0.00215168
0.0021597
0.00216267
0.0021634
0.00216266
0.00215969
0.00215169
0.00214947
0.0021584
0.0021618
0.00216266
0.0021618
0.00215839
0.00214948
0.0021414
0.00215345
0.00215839
0.0021597
0.00215839
0.00215344
0.0021414
0.00212215
0.0021414
0.00214948
0.00215169
0.00214948
0.0021414
0.00212216
0.00117294
0.000507183
0.00203731
0.00193898
0.00178629
0.00155674
0.00120559
0.000523703
0.00213443
0.00210248
0.0020451
0.00194942
0.00179862
0.00156953
0.00121682
0.00052938
0.00213037
0.00209634
0.00203665
0.00193856
0.0017859
0.00155631
0.00120532
0.000523494
0.00211701
0.00207686
0.00201007
0.00190503
0.0017474
0.00151699
0.00117155
0.000506845
0.0020872
0.00203762
0.00195999
0.001845
0.00168097
0.00145055
0.00111451
0.000480313
0.00208713
0.00203763
0.00196
0.00184496
0.00168083
0.0014503
0.00111417
0.00048017
0.00211682
0.00207688
0.00201023
0.00190527
0.00174771
0.00151735
0.00117183
0.000507033
0.00212995
0.0020962
0.00203667
0.00193868
0.0017861
0.00155658
0.0012056
0.00052367
0.00213371
0.00210194
0.00204483
0.00194929
0.00179856
0.00156948
0.00121677
0.00052933
0.00212988
0.00209606
0.00203649
0.00193846
0.00178584
0.00155627
0.00120527
0.000523447
0.00211672
0.00207669
0.00200996
0.00190493
0.00174729
0.00151687
0.00117141
0.000506791
0.00208702
0.00203748
0.00195984
0.00184481
0.00168072
0.00145023
0.00111415
0.000480157
0.0020871
0.00203759
0.00195996
0.00184493
0.00168081
0.00145029
0.00111418
0.000480146
0.00211677
0.00207682
0.00201016
0.0019052
0.00174762
0.00151724
0.00117179
0.000506959
0.00212985
0.00209609
0.00203659
0.00193861
0.00178604
0.0015565
0.00120551
0.000523592
0.0021336
0.00210185
0.00204476
0.00194923
0.00179849
0.00156941
0.0012167
0.000529264
0.0021298
0.002096
0.00203645
0.00193841
0.00178578
0.00155619
0.00120519
0.000523392
0.00211667
0.00207666
0.00200993
0.00190488
0.00174723
0.00151678
0.00117131
0.000506737
0.002087
0.00203746
0.00195981
0.00184476
0.00168064
0.00145013
0.00111404
0.000480094
0.00208715
0.00203766
0.00196007
0.00184508
0.00168103
0.00145058
0.00111452
0.000480298
0.0021168
0.00207685
0.00201019
0.00190523
0.00174766
0.00151728
0.00117182
0.000506952
0.00212988
0.0020961
0.00203658
0.00193859
0.00178599
0.00155642
0.00120541
0.000523472
0.00213363
0.00210186
0.00204476
0.0019492
0.00179844
0.00156932
0.00121658
0.00052914
0.00212983
0.00209602
0.00203645
0.0019384
0.00178574
0.00155613
0.0012051
0.000523317
0.00211672
0.00207671
0.00200998
0.00190492
0.00174726
0.0015168
0.00117132
0.000506707
0.00208707
0.00203754
0.00195992
0.00184489
0.0016808
0.00145032
0.00111423
0.000480164
0.00208722
0.00203775
0.00196018
0.00184523
0.00168121
0.00145078
0.00111471
0.000480384
0.00211683
0.00207688
0.00201022
0.00190526
0.00174769
0.0015173
0.00117183
0.000506943
0.0021299
0.00209612
0.00203659
0.00193858
0.00178597
0.00155639
0.00120536
0.000523415
0.00213365
0.00210189
0.00204478
0.00194922
0.00179845
0.00156933
0.00121658
0.000529106
0.00212987
0.00209607
0.00203652
0.00193848
0.00178583
0.00155623
0.0012052
0.00052332
0.00211678
0.00207679
0.00201009
0.00190507
0.00174742
0.00151698
0.00117149
0.00050675
0.00208716
0.00203766
0.00196006
0.00184507
0.00168099
0.00145051
0.0011144
0.000480225
0.00208721
0.00203774
0.00196018
0.00184523
0.00168121
0.00145077
0.00111468
0.000480372
0.0021168
0.00207684
0.00201015
0.00190516
0.00174755
0.00151713
0.00117164
0.000506833
0.00212986
0.00209608
0.00203652
0.00193849
0.00178585
0.00155626
0.00120523
0.000523342
0.00213363
0.00210187
0.00204476
0.0019492
0.00179843
0.00156932
0.00121658
0.000529104
0.00212987
0.00209609
0.00203655
0.00193854
0.00178592
0.00155635
0.00120534
0.000523394
0.0021168
0.00207685
0.00201018
0.0019052
0.0017476
0.00151719
0.00117171
0.000506848
0.00208721
0.00203775
0.00196019
0.00184523
0.00168118
0.0014507
0.00111458
0.000480289
0.00208709
0.00203761
0.00196003
0.00184507
0.00168104
0.0014506
0.00111453
0.000480303
0.00211669
0.00207669
0.00200996
0.00190492
0.00174726
0.0015168
0.00117131
0.000506669
0.00212977
0.00209595
0.00203637
0.0019383
0.00178561
0.00155599
0.00120495
0.000523199
0.00213355
0.00210178
0.00204465
0.00194907
0.00179828
0.00156915
0.00121641
0.000529004
0.00212981
0.00209603
0.00203649
0.00193848
0.00178585
0.00155627
0.00120525
0.000523328
0.00211676
0.00207681
0.00201016
0.0019052
0.00174762
0.00151723
0.00117176
0.000506888
0.00208719
0.00203775
0.00196022
0.00184531
0.00168132
0.00145091
0.00111484
0.000480452
0.00208704
0.00203757
0.00196
0.00184505
0.00168102
0.00145058
0.0011145
0.000480264
0.00211665
0.00207667
0.00200998
0.00190497
0.00174734
0.00151691
0.00117141
0.000506666
0.00212972
0.00209593
0.00203638
0.00193834
0.00178569
0.00155608
0.00120505
0.000523186
0.00213349
0.00210172
0.0020446
0.00194904
0.00179825
0.00156913
0.00121638
0.000528952
0.00212972
0.00209593
0.00203638
0.00193835
0.0017857
0.0015561
0.00120507
0.000523221
0.00211665
0.00207669
0.00201001
0.00190502
0.00174742
0.00151701
0.00117154
0.000506761
0.00208707
0.00203761
0.00196007
0.00184514
0.00168115
0.00145075
0.00111471
0.000480415
0.00208708
0.00203764
0.00196011
0.00184519
0.0016812
0.00145078
0.0011147
0.000480349
0.00211668
0.00207676
0.00201014
0.00190523
0.00174771
0.00151737
0.00117193
0.000506987
0.00212974
0.00209599
0.0020365
0.00193855
0.00178599
0.00155647
0.00120549
0.000523468
0.00213348
0.00210174
0.00204466
0.00194915
0.00179842
0.00156935
0.00121664
0.000529094
0.00212969
0.0020959
0.00203636
0.00193835
0.00178572
0.00155615
0.00120515
0.00052324
0.00211658
0.00207659
0.00200989
0.00190487
0.00174724
0.00151681
0.00117134
0.000506674
0.00208694
0.00203744
0.00195983
0.00184483
0.00168076
0.00145029
0.00111422
0.000480189
0.00208709
0.00203765
0.00196012
0.00184521
0.00168122
0.00145082
0.00111477
0.000480457
0.0021167
0.00207679
0.00201019
0.00190531
0.00174782
0.00151752
0.00117211
0.000507162
0.00212977
0.00209603
0.00203656
0.00193863
0.00178609
0.00155659
0.00120562
0.000523581
0.00213352
0.00210179
0.00204473
0.00194923
0.00179852
0.00156946
0.00121675
0.000529182
0.00212973
0.00209596
0.00203644
0.00193844
0.00178584
0.00155628
0.00120529
0.000523334
0.00211663
0.00207665
0.00200996
0.00190495
0.00174732
0.0015169
0.00117144
0.000506704
0.00208699
0.00203748
0.00195987
0.00184485
0.00168075
0.00145025
0.00111414
0.000480122
0.00208712
0.00203765
0.00196009
0.00184513
0.00168111
0.00145068
0.00111462
0.00048037
0.00211675
0.0020768
0.00201014
0.00190519
0.00174761
0.00151723
0.00117177
0.000506899
0.00212982
0.00209605
0.00203653
0.00193853
0.00178592
0.00155634
0.00120531
0.000523332
0.00213358
0.00210183
0.00204473
0.00194918
0.00179842
0.0015693
0.00121654
0.000529011
0.00212981
0.00209603
0.00203648
0.00193846
0.00178582
0.00155622
0.00120519
0.000523251
0.00211672
0.00207675
0.00201005
0.00190503
0.0017474
0.00151696
0.00117148
0.000506713
0.00208711
0.00203762
0.00196003
0.00184504
0.00168097
0.0014505
0.00111439
0.00048022
0.00208725
0.00203776
0.00196016
0.00184516
0.0016811
0.00145061
0.00111449
0.000480292
0.00211683
0.00207681
0.00201005
0.00190496
0.00174725
0.00151673
0.00117119
0.00050659
0.0021299
0.00209606
0.00203644
0.00193833
0.0017856
0.00155593
0.00120485
0.000523104
0.00213367
0.00210186
0.00204469
0.00194907
0.00179823
0.00156905
0.00121627
0.000528872
0.00212991
0.00209608
0.00203649
0.00193841
0.00178571
0.00155606
0.00120499
0.000523135
0.00211683
0.00207683
0.00201011
0.00190506
0.0017474
0.00151692
0.00117139
0.000506645
0.00208723
0.00203773
0.00196014
0.00184516
0.0016811
0.00145063
0.00111453
0.000480271
0.0020874
0.00203788
0.00196025
0.00184522
0.00168112
0.0014506
0.00111445
0.000480262
0.00211697
0.00207691
0.00201012
0.00190499
0.00174724
0.00151671
0.00117115
0.000506538
0.00213003
0.00209617
0.00203653
0.0019384
0.00178567
0.00155601
0.00120494
0.000523096
0.00213382
0.002102
0.00204483
0.00194921
0.00179838
0.00156922
0.00121643
0.000528893
0.00213007
0.00209626
0.00203669
0.00193864
0.00178596
0.00155633
0.00120524
0.000523194
0.00211703
0.00207706
0.00201038
0.00190538
0.00174776
0.00151732
0.00117179
0.000506778
0.00208746
0.00203801
0.00196046
0.00184553
0.00168152
0.00145108
0.00111495
0.00048046
0.00208748
0.00203794
0.0019603
0.00184526
0.00168114
0.00145061
0.00111445
0.000480238
0.00211707
0.00207704
0.00201028
0.0019052
0.00174751
0.00151703
0.00117152
0.000506686
0.00213014
0.00209631
0.00203671
0.00193863
0.00178596
0.00155634
0.00120529
0.000523225
0.00213391
0.00210212
0.00204499
0.00194941
0.00179861
0.00156947
0.00121668
0.000529001
0.00213016
0.00209637
0.00203683
0.0019388
0.00178617
0.00155656
0.00120549
0.000523343
0.00211712
0.00207717
0.00201051
0.00190554
0.00174795
0.00151754
0.00117202
0.000506963
0.00208756
0.00203812
0.00196059
0.00184567
0.00168168
0.00145124
0.00111512
0.000480583
0.00208741
0.00203788
0.00196024
0.00184521
0.00168111
0.00145059
0.00111446
0.00048022
0.00211702
0.002077
0.00201023
0.00190515
0.00174746
0.00151696
0.00117143
0.00050663
0.00213009
0.00209627
0.00203667
0.00193859
0.0017859
0.00155625
0.00120518
0.000523162
0.00213387
0.00210208
0.00204494
0.00194935
0.00179854
0.00156939
0.00121658
0.000528934
0.0021301
0.0020963
0.00203674
0.00193869
0.00178603
0.00155641
0.00120533
0.000523227
0.00211703
0.00207705
0.00201034
0.00190532
0.00174768
0.00151722
0.00117168
0.000506742
0.00208743
0.00203794
0.00196035
0.00184536
0.00168129
0.0014508
0.00111466
0.000480328
0.00208729
0.00203777
0.00196014
0.00184512
0.00168104
0.00145055
0.00111443
0.000480191
0.00211691
0.0020769
0.00201015
0.0019051
0.00174742
0.00151695
0.00117142
0.000506597
0.00212999
0.00209618
0.0020366
0.00193854
0.00178587
0.00155625
0.00120519
0.000523141
0.00213376
0.00210199
0.00204486
0.00194929
0.00179851
0.00156938
0.00121661
0.00052895
0.00212999
0.0020962
0.00203664
0.00193861
0.00178597
0.00155636
0.00120531
0.000523219
0.00211692
0.00207694
0.00201023
0.00190522
0.00174758
0.00151713
0.00117161
0.000506685
0.00208731
0.00203782
0.00196023
0.00184524
0.00168118
0.00145071
0.00111458
0.000480258
0.00208726
0.00203779
0.00196022
0.00184526
0.00168124
0.00145081
0.00111472
0.000480325
0.00211685
0.00207689
0.00201021
0.00190523
0.00174763
0.00151723
0.00117175
0.000506803
0.00212991
0.00209614
0.0020366
0.00193859
0.00178598
0.00155642
0.0012054
0.00052333
0.00213368
0.00210193
0.00204483
0.00194929
0.00179854
0.00156945
0.00121671
0.000529062
0.00212992
0.00209615
0.00203663
0.00193863
0.00178602
0.00155644
0.00120542
0.000523326
0.00211687
0.00207693
0.00201027
0.00190531
0.00174773
0.00151734
0.00117187
0.000506881
0.00208731
0.00203786
0.00196033
0.00184542
0.00168144
0.00145103
0.00111495
0.000480504
0.00208705
0.0020375
0.00195983
0.00184473
0.00168054
0.00144996
0.00111381
0.000479985
0.00211667
0.00207666
0.00200992
0.00190486
0.00174719
0.00151675
0.00117131
0.000506767
0.00212977
0.00209598
0.00203644
0.00193844
0.00178586
0.00155635
0.00120541
0.000523615
0.00213354
0.0021018
0.00204473
0.00194923
0.00179856
0.00156956
0.00121691
0.000529498
0.00212976
0.00209599
0.00203648
0.00193852
0.00178596
0.00155647
0.00120554
0.000523679
0.00211665
0.00207667
0.00200996
0.00190495
0.00174733
0.00151692
0.00117149
0.000506811
0.00208697
0.00203741
0.00195972
0.0018446
0.00168041
0.00144982
0.00111369
0.000479909
0.00208702
0.00203746
0.00195977
0.00184466
0.00168046
0.00144986
0.00111371
0.000479934
0.00211666
0.00207661
0.00200983
0.00190471
0.00174698
0.00151649
0.00117101
0.000506635
0.00212978
0.00209595
0.00203637
0.00193831
0.00178566
0.00155608
0.0012051
0.000523394
0.00213358
0.00210181
0.00204471
0.00194917
0.00179843
0.00156936
0.00121667
0.000529284
0.00212983
0.00209606
0.00203654
0.00193855
0.00178597
0.00155643
0.00120546
0.000523577
0.00211677
0.0020768
0.00201013
0.00190514
0.00174753
0.00151711
0.00117163
0.000506845
0.00208714
0.00203765
0.00196002
0.00184497
0.00168082
0.00145025
0.00111408
0.000480041
0.00208708
0.00203753
0.00195986
0.00184479
0.00168065
0.0014501
0.00111398
0.000480036
0.00211668
0.00207662
0.00200981
0.00190467
0.00174691
0.00151638
0.00117087
0.000506531
0.0021298
0.00209594
0.0020363
0.00193817
0.00178544
0.00155579
0.00120476
0.0005232
0.00213361
0.00210181
0.00204466
0.00194905
0.00179823
0.00156908
0.00121633
0.000529056
0.00212989
0.0020961
0.00203655
0.00193853
0.0017859
0.0015563
0.00120526
0.000523385
0.00211685
0.00207691
0.00201025
0.00190527
0.00174768
0.00151726
0.00117176
0.000506886
0.00208729
0.00203784
0.0019603
0.00184535
0.00168132
0.00145084
0.0011147
0.000480311
0.00208717
0.00203766
0.00196004
0.00184503
0.00168094
0.00145044
0.00111432
0.00048018
0.00211676
0.00207674
0.00200997
0.00190489
0.00174719
0.00151671
0.00117121
0.000506632
0.00212985
0.00209601
0.00203639
0.00193829
0.00178558
0.00155594
0.00120491
0.000523204
0.00213364
0.00210184
0.00204469
0.00194907
0.00179824
0.00156908
0.00121632
0.000528997
0.00212991
0.00209612
0.00203656
0.00193852
0.00178586
0.00155623
0.00120517
0.000523309
0.00211688
0.00207693
0.00201027
0.00190529
0.0017477
0.00151728
0.00117177
0.00050688
0.00208733
0.00203789
0.00196037
0.00184546
0.00168146
0.00145103
0.00111492
0.000480467
0.00208718
0.00203769
0.0019601
0.00184513
0.00168108
0.00145062
0.00111453
0.000480284
0.00211678
0.0020768
0.00201009
0.00190507
0.00174744
0.00151702
0.00117155
0.000506778
0.00212986
0.00209605
0.00203648
0.00193842
0.00178577
0.00155617
0.00120517
0.000523297
0.00213363
0.00210185
0.00204471
0.00194912
0.00179832
0.00156919
0.00121644
0.000529031
0.00212988
0.00209608
0.00203652
0.00193847
0.00178581
0.0015562
0.00120516
0.000523296
0.00211683
0.00207687
0.00201019
0.0019052
0.00174759
0.00151716
0.00117166
0.000506825
0.00208727
0.00203782
0.00196029
0.00184537
0.00168138
0.00145095
0.00111485
0.000480439
0.00208708
0.0020376
0.00196003
0.00184509
0.00168109
0.00145069
0.00111465
0.000480354
0.00211669
0.00207671
0.00201
0.00190499
0.00174737
0.00151695
0.00117149
0.000506741
0.00212978
0.00209597
0.00203639
0.00193833
0.00178567
0.00155606
0.00120504
0.000523234
0.00213355
0.00210176
0.00204462
0.00194903
0.00179822
0.00156908
0.00121634
0.000528972
0.00212979
0.00209599
0.00203642
0.00193836
0.00178569
0.00155607
0.00120503
0.000523222
0.00211673
0.00207677
0.00201008
0.00190509
0.00174747
0.00151705
0.00117156
0.000506761
0.00208716
0.00203772
0.00196019
0.00184528
0.0016813
0.00145091
0.00111485
0.000480475
0.00208706
0.00203759
0.00196003
0.00184508
0.00168107
0.00145065
0.00111459
0.000480324
0.00211664
0.00207665
0.00200993
0.00190491
0.00174727
0.00151683
0.00117135
0.00050666
0.00212971
0.0020959
0.00203633
0.00193827
0.0017856
0.00155599
0.00120497
0.000523174
0.00213349
0.00210172
0.00204459
0.00194901
0.00179821
0.00156908
0.00121633
0.000528933
0.00212974
0.00209596
0.00203642
0.0019384
0.00178576
0.00155615
0.00120511
0.000523217
0.0021167
0.00207675
0.00201011
0.00190515
0.00174758
0.0015172
0.00117173
0.00050684
0.00208713
0.00203771
0.0019602
0.00184531
0.00168136
0.00145099
0.00111495
0.000480564
0.00208703
0.00203755
0.00195995
0.00184494
0.00168084
0.00145032
0.00111419
0.000480146
0.00211661
0.00207662
0.00200989
0.00190484
0.00174718
0.00151672
0.00117124
0.000506633
0.00212969
0.00209589
0.00203633
0.00193829
0.00178565
0.00155608
0.00120509
0.000523225
0.00213348
0.00210172
0.00204462
0.00194908
0.00179833
0.00156924
0.00121652
0.000529014
0.00212974
0.00209598
0.00203647
0.00193849
0.00178591
0.00155636
0.00120536
0.000523384
0.0021167
0.00207677
0.00201015
0.00190522
0.00174768
0.00151732
0.00117187
0.000506972
0.00208714
0.00203771
0.00196021
0.0018453
0.00168132
0.0014509
0.00111481
0.000480464
0.00208697
0.00203743
0.00195978
0.00184471
0.00168056
0.00144999
0.00111385
0.000479985
0.00211658
0.00207655
0.00200979
0.0019047
0.001747
0.00151651
0.00117103
0.000506537
0.00212968
0.00209587
0.00203629
0.00193824
0.0017856
0.00155602
0.00120503
0.000523188
0.00213347
0.00210171
0.00204461
0.00194908
0.00179833
0.00156925
0.00121654
0.000529035
0.00212972
0.00209595
0.00203643
0.00193843
0.00178584
0.00155629
0.00120531
0.000523367
0.00211666
0.0020767
0.00201002
0.00190502
0.0017474
0.00151697
0.00117149
0.000506751
0.00208706
0.00203758
0.00195998
0.00184496
0.00168084
0.00145029
0.00111414
0.000480151
0.00208707
0.00203755
0.00195994
0.00184492
0.00168083
0.00145033
0.00111422
0.000480115
0.00211668
0.00207668
0.00200995
0.0019049
0.00174724
0.00151677
0.00117127
0.000506587
0.00212977
0.00209597
0.0020364
0.00193835
0.0017857
0.00155609
0.00120506
0.000523156
0.00213354
0.00210177
0.00204465
0.0019491
0.00179833
0.00156922
0.00121648
0.000528953
0.00212976
0.00209596
0.0020364
0.00193836
0.00178572
0.00155612
0.0012051
0.000523199
0.00211666
0.00207665
0.00200991
0.00190485
0.00174717
0.0015167
0.00117119
0.000506593
0.00208702
0.00203749
0.00195984
0.00184479
0.00168065
0.00145011
0.00111398
0.00048004
0.00208734
0.00203788
0.00196035
0.00184543
0.00168145
0.00145105
0.00111499
0.000480541
0.00211693
0.00207698
0.00201032
0.00190536
0.00174779
0.00151739
0.0011719
0.000506895
0.00212998
0.0020962
0.00203665
0.00193863
0.00178598
0.00155637
0.00120529
0.000523219
0.00213373
0.00210195
0.00204482
0.00194923
0.00179841
0.00156924
0.00121644
0.000528898
0.00212995
0.00209613
0.00203655
0.00193848
0.00178579
0.00155614
0.00120507
0.000523143
0.00211686
0.00207687
0.00201016
0.00190513
0.0017475
0.00151705
0.00117155
0.000506703
0.00208725
0.00203776
0.00196018
0.00184523
0.00168121
0.00145079
0.00111473
0.000480373
0.00208749
0.00203803
0.00196048
0.00184555
0.00168156
0.00145115
0.00111506
0.000480604
0.00211711
0.00207715
0.00201049
0.00190552
0.00174795
0.00151755
0.00117204
0.000506978
0.00213017
0.00209637
0.00203682
0.0019388
0.00178616
0.00155655
0.00120547
0.000523301
0.00213392
0.00210213
0.00204499
0.00194941
0.00179861
0.00156945
0.00121663
0.000528953
0.00213015
0.00209633
0.00203674
0.00193868
0.001786
0.00155636
0.00120527
0.000523208
0.00211708
0.00207708
0.00201036
0.00190534
0.00174771
0.00151727
0.00117175
0.000506792
0.00208747
0.00203797
0.00196038
0.00184541
0.00168139
0.00145095
0.00111486
0.000480472
0.00208752
0.00203802
0.00196042
0.00184543
0.00168137
0.00145089
0.00111476
0.00048039
0.00211715
0.00207718
0.00201049
0.0019055
0.00174791
0.0015175
0.00117198
0.000506928
0.00213022
0.00209642
0.00203687
0.00193886
0.00178625
0.00155667
0.00120561
0.000523428
0.00213398
0.00210219
0.00204506
0.00194951
0.00179874
0.00156964
0.00121686
0.000529132
0.0021302
0.00209638
0.00203679
0.00193874
0.0017861
0.0015565
0.00120544
0.000523318
0.00211711
0.00207708
0.00201033
0.00190527
0.00174761
0.00151715
0.00117163
0.000506738
0.00208746
0.00203791
0.00196025
0.00184519
0.00168107
0.00145055
0.0011144
0.000480231
0.00208746
0.00203796
0.00196036
0.00184538
0.00168133
0.00145087
0.00111478
0.000480385
0.0021171
0.00207712
0.00201043
0.00190545
0.00174785
0.00151744
0.00117194
0.000506902
0.00213017
0.00209637
0.00203682
0.0019388
0.00178618
0.00155659
0.00120553
0.000523362
0.00213393
0.00210214
0.00204502
0.00194946
0.00179869
0.00156957
0.00121679
0.000529064
0.00213014
0.00209632
0.00203675
0.0019387
0.00178605
0.00155644
0.00120538
0.000523264
0.00211705
0.00207702
0.00201028
0.00190523
0.00174757
0.00151711
0.00117159
0.000506701
0.0020874
0.00203786
0.00196021
0.00184517
0.00168107
0.00145057
0.00111444
0.000480213
0.00208733
0.00203783
0.00196023
0.00184524
0.00168119
0.00145074
0.00111464
0.00048031
0.00211697
0.00207698
0.00201029
0.00190528
0.00174767
0.00151724
0.00117173
0.000506755
0.00213005
0.00209625
0.00203669
0.00193867
0.00178603
0.00155644
0.00120538
0.000523271
0.00213382
0.00210204
0.00204491
0.00194935
0.00179858
0.00156947
0.0012167
0.000529021
0.00213004
0.00209623
0.00203666
0.00193862
0.00178597
0.00155636
0.00120531
0.000523221
0.00211695
0.00207694
0.00201021
0.00190517
0.00174751
0.00151705
0.00117152
0.000506652
0.00208733
0.0020378
0.00196018
0.00184516
0.00168108
0.00145059
0.00111447
0.000480203
0.00208727
0.0020378
0.00196024
0.00184528
0.00168126
0.00145081
0.00111471
0.000480325
0.00211686
0.0020769
0.00201021
0.00190523
0.00174762
0.00151721
0.00117173
0.000506785
0.00212992
0.00209614
0.00203659
0.00193859
0.00178597
0.00155641
0.0012054
0.000523339
0.00213368
0.00210192
0.00204481
0.00194927
0.00179853
0.00156945
0.00121672
0.000529086
0.00212991
0.00209612
0.00203658
0.00193857
0.00178595
0.00155638
0.00120536
0.000523298
0.00211684
0.00207686
0.00201018
0.00190519
0.00174759
0.00151718
0.00117169
0.000506754
0.00208724
0.00203776
0.00196018
0.00184523
0.00168121
0.00145078
0.0011147
0.000480321
0.00208696
0.00203739
0.00195968
0.00184455
0.00168034
0.00144973
0.00111359
0.000479851
0.00211665
0.00207664
0.00200992
0.00190488
0.00174724
0.00151681
0.00117137
0.000506755
0.00212976
0.00209598
0.00203646
0.00193848
0.00178592
0.00155642
0.00120549
0.000523641
0.00213354
0.00210178
0.00204471
0.00194921
0.00179853
0.00156952