/*--------------------------------*- C++ -*----------------------------------*\
| =========                 |                                                 |
| \\      /  F ield         | OpenFOAM: The Open Source CFD Toolbox           |
|  \\    /   O peration     | Version:  plus.master.MPPICInterFoam            |
|   \\  /    A nd           | Web:      www.OpenFOAM.com                      |
|    \\/     M anipulation  |                                                 |
\*---------------------------------------------------------------------------*/
FoamFile
{
    version     2.0;
    format      ascii;
    class       volScalarField;
    location    "0.4";
    object      nut;
}
// * * * * * * * * * * * * * * * * * * * * * * * * * * * * * * * * * * * * * //

dimensions      [0 2 -1 0 0 0 0];

internalField   nonuniform List<scalar> 
11821
(
9.27455e-05
9.29876e-05
9.22464e-05
9.27478e-05
9.22465e-05
9.10997e-05
9.10839e-05
9.22219e-05
9.27091e-05
9.28439e-05
9.27095e-05
9.22234e-05
9.10883e-05
9.2222e-05
9.29506e-05
9.32557e-05
9.33377e-05
9.32569e-05
9.29534e-05
9.22273e-05
9.27092e-05
9.32557e-05
9.34701e-05
9.35257e-05
9.34721e-05
9.32598e-05
9.27156e-05
9.2844e-05
9.33378e-05
9.35257e-05
9.35739e-05
9.35286e-05
9.33432e-05
9.28516e-05
9.27099e-05
9.32571e-05
9.34722e-05
9.35286e-05
9.34755e-05
9.32629e-05
9.27157e-05
9.2224e-05
9.29537e-05
9.326e-05
9.33432e-05
9.32629e-05
9.2957e-05
9.22266e-05
9.10888e-05
9.22277e-05
9.2716e-05
9.28515e-05
9.27156e-05
9.22265e-05
9.1087e-05
9.10906e-05
9.22265e-05
9.27122e-05
9.28459e-05
9.27106e-05
9.22235e-05
9.10873e-05
9.22264e-05
9.2954e-05
9.32583e-05
9.33394e-05
9.32577e-05
9.29531e-05
9.22257e-05
9.27121e-05
9.32582e-05
9.3472e-05
9.35267e-05
9.34719e-05
9.32583e-05
9.27126e-05
9.28458e-05
9.33394e-05
9.35267e-05
9.35737e-05
9.35268e-05
9.33397e-05
9.28466e-05
9.27106e-05
9.32577e-05
9.34719e-05
9.35268e-05
9.34719e-05
9.32578e-05
9.27111e-05
9.22237e-05
9.29532e-05
9.32583e-05
9.33397e-05
9.32578e-05
9.29524e-05
9.22233e-05
9.10878e-05
9.22258e-05
9.27125e-05
9.28466e-05
9.27111e-05
9.22232e-05
9.1085e-05
9.10959e-05
9.22301e-05
9.27148e-05
9.28477e-05
9.27119e-05
9.22247e-05
9.10888e-05
9.223e-05
9.29571e-05
9.32608e-05
9.33415e-05
9.32595e-05
9.29546e-05
9.22271e-05
9.27146e-05
9.32608e-05
9.34742e-05
9.35287e-05
9.34736e-05
9.32597e-05
9.27137e-05
9.28477e-05
9.33415e-05
9.35287e-05
9.35754e-05
9.35283e-05
9.33409e-05
9.28476e-05
9.27121e-05
9.32595e-05
9.34736e-05
9.35283e-05
9.34732e-05
9.3259e-05
9.27123e-05
9.22252e-05
9.29548e-05
9.32598e-05
9.3341e-05
9.32591e-05
9.29538e-05
9.2225e-05
9.10897e-05
9.22274e-05
9.27138e-05
9.28477e-05
9.27125e-05
9.22251e-05
9.10877e-05
9.10973e-05
9.22312e-05
9.27158e-05
9.28489e-05
9.27135e-05
9.2227e-05
9.10917e-05
9.22311e-05
9.29581e-05
9.32618e-05
9.33425e-05
9.32607e-05
9.2956e-05
9.22287e-05
9.27157e-05
9.32618e-05
9.34752e-05
9.35296e-05
9.34745e-05
9.32607e-05
9.27147e-05
9.2849e-05
9.33426e-05
9.35296e-05
9.35762e-05
9.35291e-05
9.33419e-05
9.28487e-05
9.27139e-05
9.32608e-05
9.34746e-05
9.35291e-05
9.34741e-05
9.32601e-05
9.27138e-05
9.22276e-05
9.29563e-05
9.32607e-05
9.33419e-05
9.32601e-05
9.29554e-05
9.22273e-05
9.10924e-05
9.22289e-05
9.27147e-05
9.28487e-05
9.27139e-05
9.22274e-05
9.10911e-05
9.10949e-05
9.22295e-05
9.27146e-05
9.28483e-05
9.27137e-05
9.22277e-05
9.10925e-05
9.22293e-05
9.29566e-05
9.32606e-05
9.33416e-05
9.326e-05
9.29555e-05
9.2228e-05
9.27144e-05
9.32605e-05
9.3474e-05
9.35285e-05
9.34735e-05
9.32597e-05
9.27137e-05
9.28482e-05
9.33415e-05
9.35284e-05
9.35751e-05
9.35281e-05
9.33409e-05
9.28478e-05
9.27135e-05
9.32599e-05
9.34734e-05
9.3528e-05
9.34732e-05
9.32595e-05
9.27135e-05
9.22274e-05
9.29553e-05
9.32596e-05
9.33408e-05
9.32594e-05
9.29551e-05
9.22278e-05
9.10915e-05
9.22273e-05
9.27132e-05
9.28476e-05
9.27135e-05
9.22278e-05
9.10927e-05
9.10904e-05
9.22254e-05
9.2711e-05
9.28451e-05
9.27105e-05
9.22243e-05
9.10884e-05
9.22253e-05
9.2953e-05
9.32572e-05
9.33384e-05
9.32568e-05
9.29521e-05
9.22239e-05
9.27107e-05
9.32571e-05
9.34708e-05
9.35255e-05
9.34706e-05
9.32566e-05
9.271e-05
9.28448e-05
9.33383e-05
9.35254e-05
9.35723e-05
9.35253e-05
9.33381e-05
9.28448e-05
9.271e-05
9.32566e-05
9.34704e-05
9.35252e-05
9.34705e-05
9.32569e-05
9.27109e-05
9.22235e-05
9.29517e-05
9.32564e-05
9.3338e-05
9.32568e-05
9.29527e-05
9.22256e-05
9.10871e-05
9.22232e-05
9.27096e-05
9.28446e-05
9.27109e-05
9.22256e-05
9.10911e-05
9.10886e-05
9.22229e-05
9.27081e-05
9.2842e-05
9.27073e-05
9.22211e-05
9.10857e-05
9.22231e-05
9.29503e-05
9.32543e-05
9.33354e-05
9.32538e-05
9.29493e-05
9.22216e-05
9.27083e-05
9.32543e-05
9.34679e-05
9.35225e-05
9.34677e-05
9.32539e-05
9.27077e-05
9.28421e-05
9.33355e-05
9.35226e-05
9.35695e-05
9.35225e-05
9.33353e-05
9.2842e-05
9.27074e-05
9.3254e-05
9.34678e-05
9.35225e-05
9.34677e-05
9.32539e-05
9.27076e-05
9.22214e-05
9.29496e-05
9.32541e-05
9.33354e-05
9.32539e-05
9.29494e-05
9.22216e-05
9.10866e-05
9.22223e-05
9.27081e-05
9.28423e-05
9.27078e-05
9.22217e-05
9.10862e-05
9.10888e-05
9.22226e-05
9.27075e-05
9.2841e-05
9.27061e-05
9.22202e-05
9.10858e-05
9.22227e-05
9.29494e-05
9.32531e-05
9.33342e-05
9.32526e-05
9.29484e-05
9.22217e-05
9.27076e-05
9.32532e-05
9.34666e-05
9.35212e-05
9.34664e-05
9.32529e-05
9.27074e-05
9.28412e-05
9.33343e-05
9.35213e-05
9.35681e-05
9.35212e-05
9.33341e-05
9.28412e-05
9.27064e-05
9.32528e-05
9.34665e-05
9.35212e-05
9.34663e-05
9.32523e-05
9.27059e-05
9.22206e-05
9.29487e-05
9.32531e-05
9.33342e-05
9.32524e-05
9.29473e-05
9.22188e-05
9.10866e-05
9.22223e-05
9.27077e-05
9.28414e-05
9.27062e-05
9.2219e-05
9.1082e-05
9.1087e-05
9.22223e-05
9.27078e-05
9.28415e-05
9.27063e-05
9.22199e-05
9.10853e-05
9.22219e-05
9.29493e-05
9.32535e-05
9.33346e-05
9.3253e-05
9.29487e-05
9.22221e-05
9.27073e-05
9.32534e-05
9.3467e-05
9.35217e-05
9.3467e-05
9.32535e-05
9.27082e-05
9.28411e-05
9.33345e-05
9.35217e-05
9.35686e-05
9.35218e-05
9.33349e-05
9.28423e-05
9.27061e-05
9.32529e-05
9.34669e-05
9.35218e-05
9.3467e-05
9.32533e-05
9.27074e-05
9.22197e-05
9.29486e-05
9.32534e-05
9.33349e-05
9.32533e-05
9.29486e-05
9.22207e-05
9.10846e-05
9.22217e-05
9.27081e-05
9.28423e-05
9.27075e-05
9.22208e-05
9.10842e-05
9.1086e-05
9.22233e-05
9.27099e-05
9.28444e-05
9.27097e-05
9.22234e-05
9.1088e-05
9.22227e-05
9.29515e-05
9.32564e-05
9.33379e-05
9.32565e-05
9.29521e-05
9.22249e-05
9.27095e-05
9.32562e-05
9.34703e-05
9.35251e-05
9.34705e-05
9.32569e-05
9.27112e-05
9.28442e-05
9.33378e-05
9.35251e-05
9.35722e-05
9.35253e-05
9.33384e-05
9.28456e-05
9.27098e-05
9.32565e-05
9.34705e-05
9.35253e-05
9.34707e-05
9.3257e-05
9.2711e-05
9.22235e-05
9.29521e-05
9.32569e-05
9.33384e-05
9.3257e-05
9.29525e-05
9.22247e-05
9.10877e-05
9.22246e-05
9.2711e-05
9.28454e-05
9.2711e-05
9.22248e-05
9.10888e-05
9.10941e-05
9.22304e-05
9.2717e-05
9.28518e-05
9.27178e-05
9.22319e-05
9.10958e-05
9.22308e-05
9.29593e-05
9.3264e-05
9.33456e-05
9.32641e-05
9.29594e-05
9.22307e-05
9.27175e-05
9.32641e-05
9.3478e-05
9.35327e-05
9.34777e-05
9.32635e-05
9.27164e-05
9.28523e-05
9.33457e-05
9.35327e-05
9.35795e-05
9.35323e-05
9.33448e-05
9.28507e-05
9.27183e-05
9.32644e-05
9.34778e-05
9.35324e-05
9.34773e-05
9.32631e-05
9.27162e-05
9.22326e-05
9.29598e-05
9.32638e-05
9.33449e-05
9.32632e-05
9.29584e-05
9.22299e-05
9.10969e-05
9.22314e-05
9.27168e-05
9.2851e-05
9.27164e-05
9.22301e-05
9.10939e-05
9.11031e-05
9.22395e-05
9.27257e-05
9.28602e-05
9.2726e-05
9.22397e-05
9.1103e-05
9.22398e-05
9.29683e-05
9.32726e-05
9.33538e-05
9.3272e-05
9.29668e-05
9.22374e-05
9.2726e-05
9.32727e-05
9.34861e-05
9.35404e-05
9.3485e-05
9.32704e-05
9.27227e-05
9.28604e-05
9.33538e-05
9.35404e-05
9.35867e-05
9.35392e-05
9.33514e-05
9.28571e-05
9.2726e-05
9.3272e-05
9.3485e-05
9.35392e-05
9.3484e-05
9.32698e-05
9.27232e-05
9.22398e-05
9.29669e-05
9.32705e-05
9.33515e-05
9.32699e-05
9.29654e-05
9.22378e-05
9.11032e-05
9.22377e-05
9.2723e-05
9.28574e-05
9.27234e-05
9.2238e-05
9.11032e-05
9.11037e-05
9.22416e-05
9.27283e-05
9.28629e-05
9.27286e-05
9.22423e-05
9.11057e-05
9.22415e-05
9.29707e-05
9.32752e-05
9.33564e-05
9.32747e-05
9.29697e-05
9.2241e-05
9.27282e-05
9.32751e-05
9.34885e-05
9.35427e-05
9.34875e-05
9.32732e-05
9.27263e-05
9.28628e-05
9.33563e-05
9.35427e-05
9.3589e-05
9.35415e-05
9.3354e-05
9.28605e-05
9.27283e-05
9.32744e-05
9.34873e-05
9.35415e-05
9.34863e-05
9.32724e-05
9.27264e-05
9.22418e-05
9.29693e-05
9.32729e-05
9.33539e-05
9.32724e-05
9.29682e-05
9.22412e-05
9.11046e-05
9.22401e-05
9.27257e-05
9.28602e-05
9.27263e-05
9.22412e-05
9.11071e-05
9.11011e-05
9.2239e-05
9.27257e-05
9.28603e-05
9.27259e-05
9.22395e-05
9.11028e-05
9.2239e-05
9.29681e-05
9.32726e-05
9.33539e-05
9.32722e-05
9.29673e-05
9.22387e-05
9.27257e-05
9.32726e-05
9.34859e-05
9.35403e-05
9.34852e-05
9.3271e-05
9.27242e-05
9.28604e-05
9.33538e-05
9.35403e-05
9.35867e-05
9.35394e-05
9.3352e-05
9.28585e-05
9.27259e-05
9.32721e-05
9.34851e-05
9.35394e-05
9.34843e-05
9.32703e-05
9.2724e-05
9.22393e-05
9.2967e-05
9.32708e-05
9.33519e-05
9.32702e-05
9.29656e-05
9.22378e-05
9.1102e-05
9.22377e-05
9.27236e-05
9.28581e-05
9.27238e-05
9.22379e-05
9.11022e-05
9.10978e-05
9.2235e-05
9.27213e-05
9.28555e-05
9.27208e-05
9.22341e-05
9.10973e-05
9.22348e-05
9.29635e-05
9.32678e-05
9.33489e-05
9.32671e-05
9.29621e-05
9.22336e-05
9.27212e-05
9.32678e-05
9.34811e-05
9.35355e-05
9.34803e-05
9.32662e-05
9.27195e-05
9.28556e-05
9.3349e-05
9.35355e-05
9.35819e-05
9.35346e-05
9.33473e-05
9.28538e-05
9.2721e-05
9.32672e-05
9.34803e-05
9.35346e-05
9.34795e-05
9.32656e-05
9.27193e-05
9.22343e-05
9.29621e-05
9.32661e-05
9.33472e-05
9.32655e-05
9.29609e-05
9.2233e-05
9.10973e-05
9.22332e-05
9.27193e-05
9.28537e-05
9.27192e-05
9.2233e-05
9.10971e-05
9.10932e-05
9.22292e-05
9.27151e-05
9.28494e-05
9.27151e-05
9.22294e-05
9.10945e-05
9.22294e-05
9.29573e-05
9.32614e-05
9.33426e-05
9.32613e-05
9.29572e-05
9.223e-05
9.27153e-05
9.32615e-05
9.34748e-05
9.35294e-05
9.34747e-05
9.32612e-05
9.27156e-05
9.28497e-05
9.33428e-05
9.35294e-05
9.35761e-05
9.35293e-05
9.33424e-05
9.28498e-05
9.27155e-05
9.32615e-05
9.34747e-05
9.35293e-05
9.34746e-05
9.32611e-05
9.27156e-05
9.223e-05
9.29575e-05
9.32613e-05
9.33425e-05
9.32612e-05
9.29571e-05
9.22303e-05
9.10952e-05
9.22302e-05
9.27156e-05
9.28498e-05
9.27157e-05
9.22303e-05
9.1096e-05
3.7339e-05
6.07554e-06
8.62121e-05
8.07019e-05
7.22008e-05
5.93086e-05
3.91242e-05
6.58278e-06
9.17984e-05
8.99344e-05
8.66563e-05
8.12773e-05
7.28695e-05
6.00031e-05
3.97332e-05
6.7619e-06
9.15641e-05
8.95872e-05
8.61849e-05
8.06823e-05
7.21823e-05
5.92907e-05
3.91153e-05
6.58141e-06
9.07867e-05
8.84758e-05
8.47015e-05
7.88469e-05
7.00999e-05
5.71616e-05
3.72889e-05
6.07285e-06
8.90769e-05
8.62657e-05
8.1929e-05
7.55671e-05
6.64888e-05
5.35318e-05
3.42124e-05
5.31589e-06
8.90738e-05
8.62662e-05
8.19296e-05
7.55653e-05
6.64828e-05
5.35216e-05
3.42005e-05
5.31516e-06
9.078e-05
8.84776e-05
8.47092e-05
7.88586e-05
7.01143e-05
5.71766e-05
3.72979e-05
6.07402e-06
9.15488e-05
8.9582e-05
8.6186e-05
8.0688e-05
7.21915e-05
5.93017e-05
3.9124e-05
6.58262e-06
9.17713e-05
8.99137e-05
8.66456e-05
8.12722e-05
7.28669e-05
6.00015e-05
3.97323e-05
6.76158e-06
9.15453e-05
8.95753e-05
8.61777e-05
8.06778e-05
7.21794e-05
5.92887e-05
3.91141e-05
6.58112e-06
9.07746e-05
8.84682e-05
8.46959e-05
7.88417e-05
7.00944e-05
5.71556e-05
3.72833e-05
6.07251e-06
8.90683e-05
8.62586e-05
8.19214e-05
7.55576e-05
6.64768e-05
5.35178e-05
3.41994e-05
5.31502e-06
8.9072e-05
8.62639e-05
8.19273e-05
7.55632e-05
6.64813e-05
5.35209e-05
3.4201e-05
5.31497e-06
9.07774e-05
8.84744e-05
8.47057e-05
7.88549e-05
7.01103e-05
5.71726e-05
3.72974e-05
6.07358e-06
9.15447e-05
8.95774e-05
8.61825e-05
8.06853e-05
7.21889e-05
5.92989e-05
3.9122e-05
6.58209e-06
9.17668e-05
8.99096e-05
8.66421e-05
8.1269e-05
7.28638e-05
5.99986e-05
3.97304e-05
6.76113e-06
9.15418e-05
8.95724e-05
8.61751e-05
8.06751e-05
7.21763e-05
5.92853e-05
3.91112e-05
6.58075e-06
9.07723e-05
8.84663e-05
8.46938e-05
7.8839e-05
7.00908e-05
5.71515e-05
3.72797e-05
6.07217e-06
8.90668e-05
8.62571e-05
8.19194e-05
7.55548e-05
6.6473e-05
5.35134e-05
3.41957e-05
5.31467e-06
8.9074e-05
8.62669e-05
8.19319e-05
7.55703e-05
6.64913e-05
5.35333e-05
3.4213e-05
5.31581e-06
9.07786e-05
8.84756e-05
8.4707e-05
7.88565e-05
7.01121e-05
5.71745e-05
3.7299e-05
6.07355e-06
9.15454e-05
8.95776e-05
8.61821e-05
8.0684e-05
7.21867e-05
5.92962e-05
3.91199e-05
6.58132e-06
9.17675e-05
8.99099e-05
8.66417e-05
8.12675e-05
7.28612e-05
5.99952e-05
3.97275e-05
6.7603e-06
9.15429e-05
8.95733e-05
8.61753e-05
8.06743e-05
7.21744e-05
5.92825e-05
3.91084e-05
6.58027e-06
9.07742e-05
8.84683e-05
8.46959e-05
7.88409e-05
7.00924e-05
5.71527e-05
3.72805e-05
6.072e-06
8.907e-05
8.62611e-05
8.19245e-05
7.55611e-05
6.64805e-05
5.35217e-05
3.42029e-05
5.31507e-06
8.90773e-05
8.62713e-05
8.19378e-05
7.55777e-05
6.64998e-05
5.35421e-05
3.42199e-05
5.3163e-06
9.07802e-05
8.84772e-05
8.47086e-05
7.88579e-05
7.01133e-05
5.71754e-05
3.72996e-05
6.07349e-06
9.15464e-05
8.95783e-05
8.61823e-05
8.06836e-05
7.21857e-05
5.92949e-05
3.9119e-05
6.58094e-06
9.17686e-05
8.9911e-05
8.66427e-05
8.12684e-05
7.2862e-05
5.99959e-05
3.97283e-05
6.76008e-06
9.15449e-05
8.95758e-05
8.61786e-05
8.06783e-05
7.21791e-05
5.92877e-05
3.91133e-05
6.5803e-06
9.07775e-05
8.84728e-05
8.47017e-05
7.88482e-05
7.01008e-05
5.71615e-05
3.7288e-05
6.07228e-06
8.90747e-05
8.62673e-05
8.1932e-05
7.55699e-05
6.64899e-05
5.35306e-05
3.42095e-05
5.31543e-06
8.90774e-05
8.62715e-05
8.1938e-05
7.5578e-05
6.64999e-05
5.35417e-05
3.42187e-05
5.31626e-06
9.07789e-05
8.84751e-05
8.47052e-05
7.88529e-05
7.01067e-05
5.7168e-05
3.72935e-05
6.0728e-06
9.15449e-05
8.95761e-05
8.61791e-05
8.06792e-05
7.21803e-05
5.92891e-05
3.91145e-05
6.58044e-06
9.17678e-05
8.99102e-05
8.66418e-05
8.12674e-05
7.28611e-05
5.99954e-05
3.97284e-05
6.76006e-06
9.15451e-05
8.95769e-05
8.61807e-05
8.06816e-05
7.21836e-05
5.92931e-05
3.91182e-05
6.58079e-06
9.07791e-05
8.8476e-05
8.47068e-05
7.88553e-05
7.01098e-05
5.71715e-05
3.72967e-05
6.0729e-06
8.90779e-05
8.62722e-05
8.19388e-05
7.55783e-05
6.64991e-05
5.35396e-05
3.42163e-05
5.31582e-06
8.9072e-05
8.62651e-05
8.19309e-05
7.55704e-05
6.64923e-05
5.35346e-05
3.42137e-05
5.31587e-06
9.07733e-05
8.84679e-05
8.46958e-05
7.88414e-05
7.00932e-05
5.71535e-05
3.72812e-05
6.07179e-06
9.15403e-05
8.95702e-05
8.61714e-05
8.06695e-05
7.21689e-05
5.92768e-05
3.91041e-05
6.57952e-06
9.17643e-05
8.9906e-05
8.66367e-05
8.12613e-05
7.28541e-05
5.99881e-05
3.97224e-05
6.7594e-06
9.15424e-05
8.95742e-05
8.61779e-05
8.06787e-05
7.21806e-05
5.92902e-05
3.91161e-05
6.58038e-06
9.07772e-05
8.84746e-05
8.47061e-05
7.88555e-05
7.01108e-05
5.71731e-05
3.72981e-05
6.07317e-06
8.90771e-05
8.62725e-05
8.19408e-05
7.55825e-05
6.6506e-05
5.35484e-05
3.42246e-05
5.31675e-06
8.90702e-05
8.62639e-05
8.19302e-05
7.55701e-05
6.64923e-05
5.35348e-05
3.42141e-05
5.31567e-06
9.07721e-05
8.84679e-05
8.46975e-05
7.88447e-05
7.00982e-05
5.71598e-05
3.72872e-05
6.0718e-06
9.15387e-05
8.95697e-05
8.61724e-05
8.06722e-05
7.21732e-05
5.92825e-05
3.91098e-05
6.57945e-06
9.17617e-05
8.99037e-05
8.66348e-05
8.12599e-05
7.28532e-05
5.99877e-05
3.97225e-05
6.75907e-06
9.15387e-05
8.95698e-05
8.61727e-05
8.06727e-05
7.21738e-05
5.92829e-05
3.91099e-05
6.57968e-06
9.07723e-05
8.84687e-05
8.4699e-05
7.88472e-05
7.01016e-05
5.71639e-05
3.7291e-05
6.07238e-06
8.90713e-05
8.62658e-05
8.19332e-05
7.55744e-05
6.64979e-05
5.35413e-05
3.42197e-05
5.31651e-06
8.90726e-05
8.6268e-05
8.19361e-05
7.55777e-05
6.65011e-05
5.35439e-05
3.42215e-05
5.31618e-06
9.07743e-05
8.84728e-05
8.47061e-05
7.88577e-05
7.01154e-05
5.71794e-05
3.73038e-05
6.07379e-06
9.154e-05
8.95733e-05
8.61792e-05
8.0683e-05
7.21879e-05
5.92995e-05
3.91244e-05
6.5813e-06
9.17617e-05
8.9905e-05
8.66381e-05
8.12657e-05
7.28615e-05
5.99977e-05
3.97316e-05
6.76002e-06
9.15372e-05
8.95685e-05
8.61719e-05
8.06727e-05
7.21749e-05
5.92854e-05
3.91131e-05
6.57979e-06
9.07688e-05
8.84639e-05
8.46927e-05
7.88393e-05
7.00926e-05
5.71546e-05
3.72834e-05
6.07182e-06
8.90651e-05
8.62571e-05
8.19214e-05
7.55591e-05
6.64794e-05
5.35211e-05
3.42025e-05
5.31523e-06
8.90727e-05
8.62681e-05
8.19362e-05
7.55777e-05
6.65012e-05
5.35442e-05
3.42217e-05
5.31675e-06
9.07752e-05
8.84743e-05
8.47084e-05
7.88612e-05
7.012e-05
5.71846e-05
3.73077e-05
6.07486e-06
9.15413e-05
8.95752e-05
8.6182e-05
8.06868e-05
7.21925e-05
5.93043e-05
3.91278e-05
6.58206e-06
9.17634e-05
8.99074e-05
8.66413e-05
8.12697e-05
7.28661e-05
6.00024e-05
3.97351e-05
6.76063e-06
9.15393e-05
8.95714e-05
8.61757e-05
8.06773e-05
7.21803e-05
5.92911e-05
3.91178e-05
6.58041e-06
9.07712e-05
8.84668e-05
8.46961e-05
7.88431e-05
7.00967e-05
5.71588e-05
3.72874e-05
6.07201e-06
8.90674e-05
8.62594e-05
8.19234e-05
7.55603e-05
6.64795e-05
5.352e-05
3.42007e-05
5.31488e-06
8.90736e-05
8.62675e-05
8.19338e-05
7.55734e-05
6.64954e-05
5.35377e-05
3.42165e-05
5.31624e-06
9.07765e-05
8.84737e-05
8.47051e-05
7.88546e-05
7.01103e-05
5.71731e-05
3.72984e-05
6.07324e-06
9.15432e-05
8.95754e-05
8.61797e-05
8.06814e-05
7.2184e-05
5.92938e-05
3.91191e-05
6.58044e-06
9.17659e-05
8.99087e-05
8.66409e-05
8.1267e-05
7.28611e-05
5.99957e-05
3.9729e-05
6.75949e-06
9.15425e-05
8.9574e-05
8.61772e-05
8.06775e-05
7.2179e-05
5.92884e-05
3.91149e-05
6.57988e-06
9.07753e-05
8.8471e-05
8.47003e-05
7.88471e-05
7.01002e-05
5.71615e-05
3.72889e-05
6.07207e-06
8.90728e-05
8.62657e-05
8.19308e-05
7.5569e-05
6.64894e-05
5.35305e-05
3.42098e-05
5.31543e-06
8.90788e-05
8.62714e-05
8.19362e-05
7.55743e-05
6.64944e-05
5.35346e-05
3.4212e-05
5.31583e-06
9.07794e-05
8.84728e-05
8.46992e-05
7.88426e-05
7.00921e-05
5.71502e-05
3.72768e-05
6.07132e-06
9.15457e-05
8.95743e-05
8.61738e-05
8.06701e-05
7.21675e-05
5.92739e-05
3.91007e-05
6.5789e-06
9.1769e-05
8.9909e-05
8.66377e-05
8.12601e-05
7.28508e-05
5.99832e-05
3.97175e-05
6.75853e-06
9.15461e-05
8.95757e-05
8.61765e-05
8.06742e-05
7.2173e-05
5.92803e-05
3.91066e-05
6.57911e-06
9.07795e-05
8.84742e-05
8.47023e-05
7.88479e-05
7.00995e-05
5.71592e-05
3.72854e-05
6.07166e-06
8.90776e-05
8.62703e-05
8.19355e-05
7.5574e-05
6.64947e-05
5.35357e-05
3.42138e-05
5.3157e-06
8.90849e-05
8.62764e-05
8.19399e-05
7.55763e-05
6.64947e-05
5.35335e-05
3.42101e-05
5.31567e-06
9.07849e-05
8.84768e-05
8.47014e-05
7.8843e-05
7.0091e-05
5.71482e-05
3.72751e-05
6.07098e-06
9.15513e-05
8.9579e-05
8.61776e-05
8.06731e-05
7.21703e-05
5.9277e-05
3.91042e-05
6.57883e-06
9.17753e-05
8.99153e-05
8.6644e-05
8.12668e-05
7.28579e-05
5.99907e-05
3.97244e-05
6.75867e-06
9.15537e-05
8.95841e-05
8.61861e-05
8.06852e-05
7.21851e-05
5.92928e-05
3.91173e-05
6.57951e-06
9.07887e-05
8.84851e-05
8.47154e-05
7.88632e-05
7.01169e-05
5.71774e-05
3.7301e-05
6.0725e-06
8.90888e-05
8.62835e-05
8.1951e-05
7.55916e-05
6.65138e-05
5.35546e-05
3.42284e-05
5.31679e-06
8.9088e-05
8.62792e-05
8.19419e-05
7.55775e-05
6.64952e-05
5.35334e-05
3.42099e-05
5.31552e-06
9.07897e-05
8.84829e-05
8.47092e-05
7.88529e-05
7.01033e-05
5.71627e-05
3.72892e-05
6.07187e-06
9.15562e-05
8.95855e-05
8.61863e-05
8.06844e-05
7.2184e-05
5.92924e-05
3.91184e-05
6.57968e-06
9.17798e-05
8.99212e-05
8.66517e-05
8.12763e-05
7.2869e-05
6.00025e-05
3.97344e-05
6.7594e-06
9.15579e-05
8.95894e-05
8.61928e-05
8.06934e-05
7.21948e-05
5.93031e-05
3.91258e-05
6.58049e-06
9.0793e-05
8.84904e-05
8.47217e-05
7.88708e-05
7.01253e-05
5.71859e-05
3.73072e-05
6.07364e-06
8.90935e-05
8.6289e-05
8.19572e-05
7.55984e-05
6.65208e-05
5.35609e-05
3.42323e-05
5.3175e-06
8.90852e-05
8.62763e-05
8.19393e-05
7.55754e-05
6.64939e-05
5.35333e-05
3.4211e-05
5.31542e-06
9.07875e-05
8.84809e-05
8.47072e-05
7.88511e-05
7.01014e-05
5.71604e-05
3.72865e-05
6.07156e-06
9.15543e-05
8.95838e-05
8.61846e-05
8.06825e-05
7.21816e-05
5.92893e-05
3.91147e-05
6.5793e-06
9.17778e-05
8.9919e-05
8.66494e-05
8.12737e-05
7.28661e-05
5.99993e-05
3.97314e-05
6.75898e-06
9.1555e-05
8.95858e-05
8.61883e-05
8.06879e-05
7.21885e-05
5.92967e-05
3.91209e-05
6.57974e-06
9.07885e-05
8.84842e-05
8.47135e-05
7.88603e-05
7.01128e-05
5.71726e-05
3.72964e-05
6.07228e-06
8.90867e-05
8.62798e-05
8.19451e-05
7.55833e-05
6.65033e-05
5.35427e-05
3.4218e-05
5.31605e-06
8.90801e-05
8.62716e-05
8.19352e-05
7.55723e-05
6.6492e-05
5.35328e-05
3.42119e-05
5.31527e-06
9.07829e-05
8.84769e-05
8.47042e-05
7.88492e-05
7.01008e-05
5.71611e-05
3.72883e-05
6.07139e-06
9.15501e-05
8.95802e-05
8.61819e-05
8.06809e-05
7.21814e-05
5.92904e-05
3.9117e-05
6.57919e-06
9.17734e-05
8.99152e-05
8.66462e-05
8.12715e-05
7.28651e-05
5.99998e-05
3.97333e-05
6.75911e-06
9.15505e-05
8.95815e-05
8.61845e-05
8.06847e-05
7.21861e-05
5.92954e-05
3.91211e-05
6.57971e-06
9.07836e-05
8.84794e-05
8.47087e-05
7.88557e-05
7.01089e-05
5.71699e-05
3.72957e-05
6.07194e-06
8.90814e-05
8.62744e-05
8.19397e-05
7.55782e-05
6.64989e-05
5.35398e-05
3.42172e-05
5.31567e-06
8.90799e-05
8.62739e-05
8.19403e-05
7.55804e-05
6.65028e-05
5.35453e-05
3.4223e-05
5.31608e-06
9.07815e-05
8.8478e-05
8.47083e-05
7.88567e-05
7.01116e-05
5.71741e-05
3.73001e-05
6.07268e-06
9.15476e-05
8.95794e-05
8.61832e-05
8.06845e-05
7.21872e-05
5.92976e-05
3.91232e-05
6.58043e-06
9.17704e-05
8.99134e-05
8.66457e-05
8.12725e-05
7.28674e-05
6.00029e-05
3.9736e-05
6.75986e-06
9.15479e-05
8.95802e-05
8.61845e-05
8.06862e-05
7.21889e-05
5.92991e-05
3.91241e-05
6.58043e-06
9.07824e-05
8.84799e-05
8.47115e-05
7.88609e-05
7.01165e-05
5.71789e-05
3.73034e-05
6.07318e-06
8.90824e-05
8.62778e-05
8.19458e-05
7.55875e-05
6.65111e-05
5.35535e-05
3.42287e-05
5.31709e-06
8.90701e-05
8.62602e-05
8.19211e-05
7.55542e-05
6.64693e-05
5.35068e-05
3.41883e-05
5.31406e-06
9.07731e-05
8.84669e-05
8.46938e-05
7.88382e-05
7.00894e-05
5.71501e-05
3.72792e-05
6.07232e-06
9.15407e-05
8.95719e-05
8.61753e-05
8.06766e-05
7.21798e-05
5.92909e-05
3.91167e-05
6.58216e-06
9.17641e-05
8.99073e-05
8.66407e-05
8.12692e-05
7.28664e-05
6.00033e-05
3.97349e-05
6.76263e-06
9.15407e-05
8.95727e-05
8.61775e-05
8.06803e-05
7.21849e-05
5.92965e-05
3.91211e-05
6.58259e-06
9.07721e-05
8.84673e-05
8.46961e-05
7.88427e-05
7.00961e-05
5.71583e-05
3.72867e-05
6.07261e-06
8.90657e-05
8.62553e-05
8.19154e-05
7.55478e-05
6.64626e-05
5.35007e-05
3.41842e-05
5.31362e-06
8.90681e-05
8.62574e-05
8.19176e-05
7.55501e-05
6.6465e-05
5.35026e-05
3.41849e-05
5.31378e-06
9.07716e-05
8.84637e-05
8.46884e-05
7.88303e-05
7.00788e-05
5.71376e-05
3.72673e-05
6.07152e-06
9.15404e-05
8.95698e-05
8.61709e-05
8.06694e-05
7.21699e-05
5.92793e-05
3.91068e-05
6.58073e-06
9.17654e-05
8.99076e-05
8.66393e-05
8.12656e-05
7.28603e-05
5.99957e-05
3.97284e-05
6.76123e-06
9.15437e-05
8.95757e-05
8.618e-05
8.0682e-05
7.21853e-05
5.92957e-05
3.91198e-05
6.58196e-06
9.07775e-05
8.8474e-05
8.47043e-05
7.88522e-05
7.01062e-05
5.71677e-05
3.72932e-05
6.07286e-06
8.90746e-05
8.62672e-05
8.19309e-05
7.55661e-05
6.64829e-05
5.35209e-05
3.41999e-05
5.31442e-06
8.90702e-05
8.62603e-05
8.19219e-05
7.55564e-05
6.64736e-05
5.3513e-05
3.41948e-05
5.31436e-06
9.07722e-05
8.84635e-05
8.46871e-05
7.88277e-05
7.00752e-05
5.7133e-05
3.7263e-05
6.07089e-06
9.15408e-05
8.95684e-05
8.61668e-05
8.06621e-05
7.21591e-05
5.92659e-05
3.90942e-05
6.57948e-06
9.17663e-05
8.99069e-05
8.66363e-05
8.12595e-05
7.28509e-05
5.99836e-05
3.97171e-05
6.75972e-06
9.15459e-05
8.95773e-05
8.61806e-05
8.0681e-05
7.21823e-05
5.92909e-05
3.91154e-05
6.58075e-06
9.07816e-05
8.8479e-05
8.47103e-05
7.88591e-05
7.01136e-05
5.71747e-05
3.72984e-05
6.07317e-06
8.90818e-05
8.6277e-05
8.19446e-05
7.55849e-05
6.65066e-05
5.35472e-05
3.42223e-05
5.31598e-06
8.90749e-05
8.62669e-05
8.19309e-05
7.5568e-05
6.64874e-05
5.35278e-05
3.42071e-05
5.31519e-06
9.07762e-05
8.84695e-05
8.46956e-05
7.88391e-05
7.00891e-05
5.71486e-05
3.7277e-05
6.07153e-06
9.15435e-05
8.95721e-05
8.61717e-05
8.06682e-05
7.21663e-05
5.92737e-05
3.91015e-05
6.57952e-06
9.17679e-05
8.99085e-05
8.66377e-05
8.12606e-05
7.28516e-05
5.9984e-05
3.97177e-05
6.75934e-06
9.15469e-05
8.9578e-05
8.61807e-05
8.06803e-05
7.21805e-05
5.92881e-05
3.91125e-05
6.58025e-06
9.07826e-05
8.848e-05
8.47113e-05
7.88601e-05
7.01145e-05
5.71755e-05
3.7299e-05
6.07314e-06
8.90835e-05
8.62794e-05
8.1948e-05
7.55897e-05
6.65127e-05
5.3554e-05
3.4228e-05
5.31687e-06
8.90755e-05
8.62686e-05
8.1934e-05
7.55728e-05
6.64939e-05
5.35355e-05
3.4214e-05
5.31576e-06
9.07776e-05
8.84729e-05
8.47017e-05
7.88483e-05
7.01016e-05
5.71633e-05
3.72905e-05
6.07244e-06
9.15442e-05
8.95746e-05
8.61763e-05
8.06754e-05
7.2176e-05
5.92852e-05
3.91122e-05
6.58013e-06
9.17676e-05
8.99089e-05
8.66391e-05
8.12632e-05
7.28555e-05
5.99891e-05
3.97232e-05
6.75957e-06
9.15454e-05
8.95764e-05
8.61787e-05
8.06781e-05
7.21784e-05
5.92865e-05
3.91121e-05
6.58014e-06
9.07803e-05
8.84771e-05
8.47076e-05
7.88556e-05
7.01094e-05
5.71703e-05
3.72948e-05
6.07277e-06
8.90806e-05
8.6276e-05
8.1944e-05
7.55854e-05
6.65083e-05
5.35501e-05
3.42252e-05
5.31669e-06
8.90713e-05
8.62646e-05
8.19309e-05
7.55713e-05
6.64945e-05
5.35384e-05
3.42183e-05
5.31613e-06
9.07736e-05
8.84689e-05
8.46979e-05
7.88449e-05
7.00985e-05
5.71606e-05
3.72885e-05
6.07223e-06
9.15406e-05
8.95708e-05
8.61725e-05
8.06713e-05
7.21715e-05
5.92805e-05
3.91082e-05
6.57974e-06
9.1764e-05
8.99052e-05
8.66351e-05
8.1259e-05
7.28511e-05
5.99848e-05
3.97199e-05
6.75919e-06
9.15415e-05
8.9572e-05
8.6174e-05
8.06729e-05
7.21728e-05
5.92811e-05
3.91079e-05
6.57967e-06
9.07759e-05
8.84722e-05
8.47023e-05
7.885e-05
7.01039e-05
5.71654e-05
3.72916e-05
6.07238e-06
8.90758e-05
8.6271e-05
8.1939e-05
7.55807e-05
6.65045e-05
5.35474e-05
3.42239e-05
5.31685e-06
8.90709e-05
8.62648e-05
8.19314e-05
7.55718e-05
6.64945e-05
5.35376e-05
3.42169e-05
5.316e-06
9.07714e-05
8.84666e-05
8.46952e-05
7.88415e-05
7.00943e-05
5.71557e-05
3.72841e-05
6.07175e-06
9.1538e-05
8.95682e-05
8.61698e-05
8.06685e-05
7.21687e-05
5.92779e-05
3.91062e-05
6.57936e-06
9.17617e-05
8.99034e-05
8.6634e-05
8.12585e-05
7.28512e-05
5.99854e-05
3.97207e-05
6.75894e-06
9.15398e-05
8.95715e-05
8.61749e-05
8.06754e-05
7.21768e-05
5.92859e-05
3.91123e-05
6.57966e-06
9.07748e-05
8.84724e-05
8.47042e-05
7.8854e-05
7.01098e-05
5.71727e-05
3.72983e-05
6.0729e-06
8.90751e-05
8.62712e-05
8.19403e-05
7.55831e-05
6.65077e-05
5.3551e-05
3.42266e-05
5.31736e-06
8.90702e-05
8.62633e-05
8.19281e-05
7.55655e-05
6.64845e-05
5.35242e-05
3.42031e-05
5.31505e-06
9.07705e-05
8.84652e-05
8.4693e-05
7.88382e-05
7.00899e-05
5.71507e-05
3.72799e-05
6.07156e-06
9.15374e-05
8.9568e-05
8.61702e-05
8.06699e-05
7.21714e-05
5.9282e-05
3.9111e-05
6.57967e-06
9.17614e-05
8.99041e-05
8.66361e-05
8.12625e-05
7.28573e-05
5.99931e-05
3.9728e-05
6.75949e-06
9.15399e-05
8.95727e-05
8.61777e-05
8.06803e-05
7.2184e-05
5.92948e-05
3.91205e-05
6.58076e-06
9.07752e-05
8.84738e-05
8.47066e-05
7.88575e-05
7.01143e-05
5.71774e-05
3.73018e-05
6.0737e-06
8.90757e-05
8.6272e-05
8.19411e-05
7.55832e-05
6.65068e-05
5.35488e-05
3.42242e-05
5.31687e-06
8.90662e-05
8.62571e-05
8.19192e-05
7.55538e-05
6.64706e-05
5.35093e-05
3.41909e-05
5.31412e-06
9.07684e-05
8.84616e-05
8.46876e-05
7.88308e-05
7.00808e-05
5.71407e-05
3.72712e-05
6.07096e-06
9.15364e-05
8.95664e-05
8.6168e-05
8.06671e-05
7.21683e-05
5.92789e-05
3.91085e-05
6.57944e-06
9.17609e-05
8.99033e-05
8.66352e-05
8.12619e-05
7.2857e-05
5.99933e-05
3.97286e-05
6.75962e-06
9.1539e-05
8.9571e-05
8.61752e-05
8.0677e-05
7.21803e-05
5.92914e-05
3.91183e-05
6.58063e-06
9.0773e-05
8.84696e-05
8.46997e-05
7.88473e-05
7.01009e-05
5.71622e-05
3.72892e-05
6.07232e-06
8.90714e-05
8.62648e-05
8.19294e-05
7.55662e-05
6.64843e-05
5.35228e-05
3.42009e-05
5.3151e-06
8.90706e-05
8.62624e-05
8.19262e-05
7.55632e-05
6.64826e-05
5.35235e-05
3.42043e-05
5.31482e-06
9.07731e-05
8.84676e-05
8.46953e-05
7.88405e-05
7.00923e-05
5.71531e-05
3.72817e-05
6.07129e-06
9.15404e-05
8.95708e-05
8.61729e-05
8.06723e-05
7.21732e-05
5.92828e-05
3.91106e-05
6.57925e-06
9.17637e-05
8.99055e-05
8.66367e-05
8.12624e-05
7.28565e-05
5.99919e-05
3.9727e-05
6.75908e-06
9.15401e-05
8.95707e-05
8.6173e-05
8.06727e-05
7.21739e-05
5.92838e-05
3.91117e-05
6.57953e-06
9.0772e-05
8.84662e-05
8.46934e-05
7.88381e-05
7.00892e-05
5.71492e-05
3.72778e-05
6.07133e-06
8.9068e-05
8.6259e-05
8.19215e-05
7.55568e-05
6.64743e-05
5.35137e-05
3.41949e-05
5.31443e-06
8.90831e-05
8.6278e-05
8.19458e-05
7.55872e-05
6.65106e-05
5.35529e-05
3.42279e-05
5.31721e-06
9.07845e-05
8.84818e-05
8.47133e-05
7.88628e-05
7.01183e-05
5.71803e-05
3.73039e-05
6.07322e-06
9.15501e-05
8.95817e-05
8.61851e-05
8.06857e-05
7.21871e-05
5.92957e-05
3.912e-05
6.57969e-06
9.17721e-05
8.99138e-05
8.66443e-05
8.12684e-05
7.28603e-05
5.99929e-05
3.97255e-05
6.75873e-06
9.15481e-05
8.95783e-05
8.61798e-05
8.06782e-05
7.21774e-05
5.92847e-05
3.91103e-05
6.57918e-06
9.07808e-05
8.84759e-05
8.47047e-05
7.88513e-05
7.01042e-05
5.71651e-05
3.72915e-05
6.07202e-06
8.90782e-05
8.62714e-05
8.19372e-05
7.55769e-05
6.64993e-05
5.35421e-05
3.42207e-05
5.31625e-06
8.90896e-05
8.62841e-05
8.19513e-05
7.55921e-05
6.65147e-05
5.35559e-05
3.42292e-05
5.31756e-06
9.0792e-05
8.84891e-05
8.47205e-05
7.887e-05
7.01252e-05
5.71864e-05
3.73079e-05
6.07374e-06
9.15579e-05
8.95894e-05
8.61928e-05
8.06936e-05
7.2195e-05
5.93033e-05
3.91258e-05
6.58026e-06
9.17803e-05
8.99218e-05
8.66524e-05
8.1277e-05
7.28694e-05
6.00021e-05
3.97331e-05
6.7591e-06
9.15569e-05
8.9587e-05
8.61886e-05
8.06873e-05
7.2187e-05
5.92943e-05
3.91183e-05
6.57961e-06
9.079e-05
8.8485e-05
8.47138e-05
7.88605e-05
7.01135e-05
5.71742e-05
3.72987e-05
6.07256e-06
8.90876e-05
8.62805e-05
8.19459e-05
7.55851e-05
6.65066e-05
5.35479e-05
3.42236e-05
5.3168e-06
8.909e-05
8.62828e-05
8.19477e-05
7.55858e-05
6.65058e-05
5.35453e-05
3.42201e-05
5.31637e-06
9.07937e-05
8.84898e-05
8.47201e-05
7.88684e-05
7.01228e-05
5.71837e-05
3.73057e-05
6.07341e-06
9.15602e-05
8.95914e-05
8.61948e-05
8.0696e-05
7.21982e-05
5.9307e-05
3.9129e-05
6.58104e-06
9.17828e-05
8.99243e-05
8.66555e-05
8.12813e-05
7.28753e-05
6.00093e-05
3.97397e-05
6.76027e-06
9.1559e-05
8.95889e-05
8.61907e-05
8.06901e-05
7.21909e-05
5.92994e-05
3.91234e-05
6.5803e-06
9.0791e-05
8.84846e-05
8.47117e-05
7.88567e-05
7.01084e-05
5.71683e-05
3.72935e-05
6.07221e-06
8.90867e-05
8.62769e-05
8.19389e-05
7.5574e-05