/*--------------------------------*- C++ -*----------------------------------*\
| =========                 |                                                 |
| \\      /  F ield         | OpenFOAM: The Open Source CFD Toolbox           |
|  \\    /   O peration     | Version:  plus.master.MPPICInterFoam            |
|   \\  /    A nd           | Web:      www.OpenFOAM.com                      |
|    \\/     M anipulation  |                                                 |
\*---------------------------------------------------------------------------*/
FoamFile
{
    version     2.0;
    format      ascii;
    class       volVectorField;
    location    "0.4";
    object      U;
}
// * * * * * * * * * * * * * * * * * * * * * * * * * * * * * * * * * * * * * //

dimensions      [0 1 -1 0 0 0 0];

internalField   nonuniform List<vector> 
11821
(
(-7.84539e-06 -8.07429e-06 0.000592895)
(-1.40434e-05 -1.12321e-05 0.000593504)
(-1.4422e-05 -1.20402e-05 0.000576079)
(-9.61252e-06 -4.34956e-06 0.000592857)
(-1.44976e-05 -1.17709e-05 0.000576051)
(-1.54746e-05 -1.42826e-05 0.000555978)
(3.22164e-06 7.53962e-06 0.000556067)
(3.71e-06 7.84136e-07 0.000577894)
(2.95e-06 -9.20736e-07 0.000595308)
(2.98926e-06 7.91887e-07 0.000601174)
(4.65159e-06 3.23397e-06 0.000593418)
(8.0531e-06 5.82484e-06 0.000575409)
(1.24331e-05 7.86628e-06 0.000554873)
(-3.67494e-06 7.308e-06 0.000578584)
(-2.58066e-06 1.13619e-06 0.000596297)
(-1.90988e-06 -1.53106e-06 0.000610588)
(4.1001e-07 -1.59114e-06 0.000615178)
(4.84756e-06 -8.62927e-07 0.000608322)
(1.0888e-05 4.9483e-07 0.00059295)
(1.73645e-05 2.70828e-06 0.000575899)
(-4.58756e-06 5.84147e-06 0.000596598)
(-4.61565e-06 1.03518e-06 0.000611154)
(-4.7286e-06 -2.24395e-06 0.000623022)
(-2.90212e-06 -4.26978e-06 0.000626834)
(1.23389e-06 -5.51273e-06 0.000621075)
(6.85535e-06 -5.44144e-06 0.00060817)
(1.25962e-05 -3.37984e-06 0.00059392)
(-2.10987e-06 5.36061e-06 0.000602827)
(-3.98649e-06 2.79461e-06 0.000616058)
(-6.1822e-06 -8.43354e-07 0.000627119)
(-6.42264e-06 -4.85843e-06 0.00063096)
(-4.32102e-06 -8.17771e-06 0.000626048)
(-7.05221e-07 -9.58038e-06 0.000614443)
(3.44998e-06 -8.26693e-06 0.000601408)
(7.06686e-07 6.4873e-06 0.000595099)
(-2.79311e-06 6.71697e-06 0.000609181)
(-6.90123e-06 2.91815e-06 0.000621319)
(-9.11491e-06 -3.08965e-06 0.000625998)
(-9.059e-06 -8.60829e-06 0.000621409)
(-7.47429e-06 -1.1804e-05 0.000609608)
(-4.87408e-06 -1.19082e-05 0.000595923)
(3.44669e-06 9.21061e-06 0.000576723)
(-1.04334e-06 1.21036e-05 0.000593429)
(-6.26638e-06 8.07388e-06 0.000608095)
(-9.73696e-06 4.3891e-08 0.00061404)
(-1.1196e-05 -7.74891e-06 0.000609376)
(-1.12205e-05 -1.28284e-05 0.000595861)
(-1.00304e-05 -1.4678e-05 0.000580214)
(6.28666e-06 1.28712e-05 0.000555416)
(1.93622e-06 1.76204e-05 0.000575724)
(-3.43694e-06 1.33074e-05 0.000593471)
(-7.59632e-06 3.45914e-06 0.000600962)
(-1.02284e-05 -6.07782e-06 0.000595011)
(-1.17631e-05 -1.27725e-05 0.000579842)
(-1.22535e-05 -1.64438e-05 0.000561239)
(-1.40868e-05 -1.35647e-05 0.000556107)
(-1.41504e-05 -1.56482e-05 0.000576557)
(-1.32261e-05 -1.11405e-05 0.00059365)
(-1.04e-05 -3.19218e-06 0.000600141)
(-5.76993e-06 3.97374e-06 0.000593671)
(1.08186e-08 8.68423e-06 0.000577513)
(5.94781e-06 1.04005e-05 0.0005592)
(-1.66972e-05 -1.31125e-05 0.00057712)
(-1.70709e-05 -1.56945e-05 0.000592422)
(-1.58005e-05 -1.30002e-05 0.000605592)
(-1.17609e-05 -7.48689e-06 0.000610346)
(-5.22244e-06 -2.4232e-06 0.000604679)
(2.60305e-06 9.71132e-07 0.000591336)
(1.01569e-05 2.90449e-06 0.000576835)
(-1.21571e-05 -1.16654e-05 0.000594621)
(-1.43167e-05 -1.41406e-05 0.000605984)
(-1.48258e-05 -1.33343e-05 0.000616068)
(-1.22732e-05 -1.08087e-05 0.000619622)
(-6.91752e-06 -8.3351e-06 0.000614904)
(-1.70453e-07 -6.33776e-06 0.000604094)
(6.21734e-06 -4.31253e-06 0.000592599)
(-3.95744e-06 -8.2448e-06 0.000601221)
(-8.51786e-06 -9.80006e-06 0.000610866)
(-1.19627e-05 -1.06497e-05 0.000619771)
(-1.23355e-05 -1.11408e-05 0.000623098)
(-9.78343e-06 -1.13696e-05 0.000619125)
(-5.66478e-06 -1.10031e-05 0.000609661)
(-1.32723e-06 -9.52045e-06 0.000599522)
(3.586e-06 -3.04483e-06 0.000594535)
(-3.0314e-06 -2.98126e-06 0.000605057)
(-9.02453e-06 -5.21033e-06 0.000614966)
(-1.2022e-05 -8.63942e-06 0.000619062)
(-1.21017e-05 -1.16278e-05 0.000615367)
(-1.04975e-05 -1.31694e-05 0.000605634)
(-8.13169e-06 -1.294e-05 0.000594828)
(8.74859e-06 3.21056e-06 0.000577934)
(8.53935e-07 5.03872e-06 0.000591388)
(-6.4816e-06 1.51395e-06 0.000603902)
(-1.10122e-05 -4.72312e-06 0.000609377)
(-1.28541e-05 -1.03871e-05 0.000605424)
(-1.30723e-05 -1.39158e-05 0.000594022)
(-1.23075e-05 -1.52501e-05 0.000580844)
(1.09012e-05 9.46601e-06 0.000559119)
(3.24568e-06 1.2585e-05 0.000576506)
(-3.9124e-06 7.68166e-06 0.000592069)
(-8.87838e-06 -7.75895e-07 0.000598926)
(-1.18507e-05 -8.54215e-06 0.000594333)
(-1.35488e-05 -1.37922e-05 0.000580565)
(-1.43375e-05 -1.67436e-05 0.000564062)
(-2.23792e-05 -2.31812e-05 0.000560828)
(-2.2985e-05 -2.03664e-05 0.000577652)
(-2.11229e-05 -1.20599e-05 0.000592545)
(-1.67646e-05 -8.71656e-07 0.000598955)
(-1.05136e-05 9.40043e-06 0.000594325)
(-3.37128e-06 1.62439e-05 0.000581128)
(3.39182e-06 1.78929e-05 0.000565782)
(-2.06422e-05 -2.3015e-05 0.000577904)
(-2.2353e-05 -2.15736e-05 0.000590316)
(-2.12507e-05 -1.52804e-05 0.000601907)
(-1.70324e-05 -6.4894e-06 0.000606991)
(-1.02543e-05 1.66662e-06 0.000603326)
(-2.22325e-06 7.14425e-06 0.000592909)
(5.28984e-06 9.13378e-06 0.000581233)
(-1.29525e-05 -2.03789e-05 0.000593)
(-1.65868e-05 -2.00554e-05 0.000602109)
(-1.77158e-05 -1.62021e-05 0.000611061)
(-1.56036e-05 -1.05513e-05 0.000615102)
(-1.0694e-05 -5.09236e-06 0.000612287)
(-4.34397e-06 -1.04473e-06 0.000604147)
(1.63077e-06 1.27006e-06 0.000595194)
(-2.04977e-06 -1.52055e-05 0.00059954)
(-8.07394e-06 -1.54495e-05 0.000607326)
(-1.22819e-05 -1.3956e-05 0.000615229)
(-1.32966e-05 -1.15096e-05 0.000618927)
(-1.14349e-05 -8.82305e-06 0.000616585)
(-7.96856e-06 -6.36208e-06 0.00060946)
(-4.28333e-06 -4.25229e-06 0.000601558)
(8.03214e-06 -8.1607e-06 0.000594995)
(-1.41545e-07 -8.28722e-06 0.000603734)
(-7.05737e-06 -8.90133e-06 0.000612458)
(-1.08462e-05 -9.56986e-06 0.000616605)
(-1.17622e-05 -9.65539e-06 0.000614212)
(-1.09836e-05 -8.97976e-06 0.00060654)
(-9.49414e-06 -7.69816e-06 0.00059775)
(1.44543e-05 -3.67126e-07 0.000581862)
(4.90817e-06 5.8081e-08 0.000593336)
(-3.40826e-06 -2.42688e-06 0.000604279)
(-8.73528e-06 -6.02128e-06 0.00060939)
(-1.139e-05 -8.76546e-06 0.000606423)
(-1.24493e-05 -9.9353e-06 0.000596882)
(-1.26652e-05 -9.83442e-06 0.000585601)
(1.53593e-05 6.71801e-06 0.000566518)
(6.21591e-06 7.63538e-06 0.000581608)
(-1.63384e-06 3.51444e-06 0.000595203)
(-7.00082e-06 -2.37994e-06 0.000601303)
(-1.03111e-05 -7.26304e-06 0.000597411)
(-1.24196e-05 -1.00725e-05 0.000585375)
(-1.38706e-05 -1.12383e-05 0.000570714)
(-1.79849e-05 -1.98441e-05 0.000568406)
(-1.83386e-05 -1.57898e-05 0.000581225)
(-1.61703e-05 -8.71749e-06 0.000593084)
(-1.18368e-05 -3.96011e-07 0.000598603)
(-6.19043e-06 6.94086e-06 0.000595364)
(-2.81309e-07 1.17767e-05 0.000584999)
(4.70106e-06 1.28646e-05 0.000572514)
(-1.55175e-05 -1.97892e-05 0.000581174)
(-1.70172e-05 -1.70767e-05 0.000591062)
(-1.58374e-05 -1.14874e-05 0.000600847)
(-1.21569e-05 -4.69113e-06 0.000605752)
(-6.75054e-06 1.43353e-06 0.000603592)
(-7.87245e-07 5.56823e-06 0.000595629)
(4.31702e-06 7.02445e-06 0.000586198)
(-9.85374e-06 -1.7189e-05 0.000593006)
(-1.27154e-05 -1.57269e-05 0.000600785)
(-1.31952e-05 -1.20343e-05 0.000608876)
(-1.11618e-05 -7.3042e-06 0.000613198)
(-7.30522e-06 -2.77245e-06 0.000611825)
(-2.77564e-06 6.25054e-07 0.000605694)
(1.11876e-06 2.403e-06 0.000598398)
(-2.71537e-06 -1.2451e-05 0.000598604)
(-6.99869e-06 -1.19674e-05 0.000605682)
(-9.36062e-06 -1.0186e-05 0.000613125)
(-9.26851e-06 -7.57496e-06 0.000617201)
(-7.35128e-06 -4.65573e-06 0.000616119)
(-4.69502e-06 -2.06764e-06 0.000610645)
(-2.27515e-06 -3.32606e-07 0.000604005)
(3.56293e-06 -6.46065e-06 0.000595645)
(-1.81569e-06 -6.55822e-06 0.000603625)
(-5.63763e-06 -6.57459e-06 0.000611705)
(-7.05841e-06 -6.04766e-06 0.000615989)
(-6.68101e-06 -4.72733e-06 0.000614629)
(-5.53929e-06 -3.04508e-06 0.00060844)
(-4.37151e-06 -1.72619e-06 0.00060081)
(7.48088e-06 -3.28181e-07 0.000585754)
(1.51397e-06 -6.75651e-07 0.000595873)
(-2.97068e-06 -2.31824e-06 0.000605559)
(-5.17683e-06 -3.76375e-06 0.000610356)
(-5.72318e-06 -3.97775e-06 0.000608224)
(-5.56753e-06 -3.23136e-06 0.000600203)
(-5.3152e-06 -2.51333e-06 0.000590265)
(8.11729e-06 4.74838e-06 0.000573814)
(2.54847e-06 4.28623e-06 0.000586686)
(-1.64002e-06 1.32087e-06 0.000598263)
(-3.95791e-06 -1.67185e-06 0.000603562)
(-5.00251e-06 -3.15568e-06 0.000600367)
(-5.53175e-06 -3.27354e-06 0.000590009)
(-6.01701e-06 -3.19017e-06 0.000577048)
(-6.13777e-06 -1.01033e-05 0.000571987)
(-6.96106e-06 -7.7159e-06 0.00058156)
(-6.43308e-06 -4.48222e-06 0.000590717)
(-4.86801e-06 -1.33946e-06 0.000594934)
(-2.99971e-06 1.03949e-06 0.000592209)
(-1.53696e-06 2.48453e-06 0.000583954)
(-1.06605e-06 2.79196e-06 0.000574349)
(-4.2168e-06 -1.06574e-05 0.000581407)
(-5.6602e-06 -8.86571e-06 0.0005887)
(-5.75699e-06 -6.0321e-06 0.000596343)
(-4.78722e-06 -3.03624e-06 0.000600253)
(-3.41991e-06 -5.33393e-07 0.000598573)
(-2.32855e-06 1.11674e-06 0.000592427)
(-1.96107e-06 1.71596e-06 0.000585519)
(-2.12371e-06 -9.97107e-06 0.000590363)
(-3.78779e-06 -8.74651e-06 0.000596074)
(-4.27222e-06 -6.44639e-06 0.000602533)
(-3.75385e-06 -3.70315e-06 0.000606157)
(-2.86937e-06 -1.11228e-06 0.000605257)
(-2.2233e-06 7.59578e-07 0.000600701)
(-2.08582e-06 1.50772e-06 0.000595648)
(3.39195e-08 -8.49026e-06 0.000594408)
(-1.59374e-06 -7.81807e-06 0.000599686)
(-2.15267e-06 -6.06631e-06 0.000605796)
(-1.73004e-06 -3.53915e-06 0.000609363)
(-9.6755e-07 -7.90427e-07 0.000608757)
(-4.37939e-07 1.3399e-06 0.000604718)
(-3.45655e-07 2.12483e-06 0.000600163)
(2.03445e-06 -6.83861e-06 0.000591591)
(6.56605e-07 -6.67857e-06 0.000597765)
(2.71354e-07 -5.48566e-06 0.000604559)
(8.78191e-07 -3.16673e-06 0.000608383)
(1.83258e-06 -2.32249e-07 0.000607504)
(2.56593e-06 2.16007e-06 0.000602715)
(2.8072e-06 2.93527e-06 0.000597137)
(3.85217e-06 -5.56492e-06 0.000583371)
(2.72868e-06 -5.81386e-06 0.000591524)
(2.49539e-06 -5.13988e-06 0.000599804)
(3.20784e-06 -3.02627e-06 0.000604089)
(4.26391e-06 6.82218e-08 0.00060244)
(5.13854e-06 2.68148e-06 0.000595851)
(5.527e-06 3.46088e-06 0.000588005)
(5.293e-06 -5.0064e-06 0.00057401)
(4.32174e-06 -5.40923e-06 0.000584736)
(3.99396e-06 -5.05577e-06 0.000594754)
(4.40547e-06 -3.10717e-06 0.000599467)
(5.0934e-06 1.72533e-08 0.000596755)
(5.68958e-06 2.71941e-06 0.000587864)
(5.92199e-06 3.4885e-06 0.000577025)
(-8.13941e-07 1.29891e-06 0.000579912)
(-2.99874e-06 2.15001e-06 0.000589021)
(-4.86847e-06 2.20364e-06 0.000596803)
(-6.74654e-06 2.11632e-06 0.000599625)
(-8.87558e-06 2.1974e-06 0.000596241)
(-1.14044e-05 2.09519e-06 0.000588126)
(-1.42989e-05 1.23605e-06 0.000578894)
(2.18436e-06 -8.76594e-07 0.000589082)
(-1.01489e-07 -1.00435e-07 0.000596315)
(-2.31612e-06 4.56378e-07 0.000602745)
(-4.71976e-06 1.09206e-06 0.000605105)
(-7.44399e-06 1.84208e-06 0.000602294)
(-1.04493e-05 2.20324e-06 0.00059564)
(-1.33933e-05 1.62939e-06 0.000588467)
(4.02112e-06 -2.97115e-06 0.000596955)
(2.26763e-06 -2.45596e-06 0.000602846)
(4.28099e-07 -1.4286e-06 0.000608194)
(-1.69854e-06 6.27018e-08 0.000610144)
(-4.19788e-06 1.65258e-06 0.000607761)
(-6.93121e-06 2.59924e-06 0.000602251)
(-9.45449e-06 2.26991e-06 0.000596579)
(5.83296e-06 -5.21469e-06 0.00059989)
(4.72644e-06 -5.08658e-06 0.000605322)
(3.5462e-06 -3.62587e-06 0.000610273)
(2.11832e-06 -1.2091e-06 0.000612032)
(3.35572e-07 1.33569e-06 0.000609731)
(-1.66556e-06 2.97324e-06 0.000604564)
(-3.59923e-06 3.00935e-06 0.000599403)
(8.31167e-06 -7.673e-06 0.000596446)
(7.66089e-06 -7.97032e-06 0.000602518)
(7.01018e-06 -6.12436e-06 0.000607976)
(6.25074e-06 -2.79163e-06 0.000609873)
(5.2261e-06 7.19102e-07 0.000607269)
(3.9983e-06 3.0638e-06 0.000601481)
(2.57849e-06 3.54491e-06 0.000595658)
(1.08763e-05 -1.02961e-05 0.000587965)
(1.03971e-05 -1.08907e-05 0.000595681)
(1.00226e-05 -8.67033e-06 0.000602443)
(9.70738e-06 -4.49302e-06 0.000604811)
(9.2402e-06 -1.28791e-07 0.000601656)
(8.59105e-06 2.79032e-06 0.000594505)
(7.56169e-06 3.66758e-06 0.000587033)
(1.19633e-05 -1.30402e-05 0.000578194)
(1.16007e-05 -1.35589e-05 0.00058819)
(1.13697e-05 -1.08612e-05 0.000596631)
(1.13428e-05 -6.02788e-06 0.000599667)
(1.12582e-05 -1.13879e-06 0.000595954)
(1.10114e-05 2.07318e-06 0.000587195)
(1.03305e-05 3.18509e-06 0.000577495)
(-1.36229e-05 -5.68641e-07 0.000591864)
(-1.43547e-05 1.43215e-07 0.000601692)
(-1.42351e-05 7.54653e-07 0.000608732)
(-1.35062e-05 1.79089e-06 0.00061044)
(-1.2392e-05 2.64933e-06 0.00060622)
(-1.12605e-05 2.47245e-06 0.000597295)
(-1.04568e-05 8.77361e-07 0.000586605)
(-1.03165e-05 -1.63384e-06 0.000601987)
(-1.15828e-05 -1.5156e-06 0.000610864)
(-1.19267e-05 -1.20729e-06 0.000617046)
(-1.15778e-05 -5.27644e-07 0.000618235)
(-1.07257e-05 1.96354e-08 0.000614051)
(-9.69792e-06 -2.35658e-07 0.000605747)
(-8.78862e-06 -1.4235e-06 0.000596115)
(-5.70723e-06 -1.70856e-06 0.000609462)
(-7.53669e-06 -2.33188e-06 0.000617548)
(-8.58042e-06 -2.57606e-06 0.000622922)
(-8.8735e-06 -2.42513e-06 0.000623623)
(-8.57379e-06 -2.27147e-06 0.000619483)
(-7.96848e-06 -2.58614e-06 0.000611776)
(-7.33358e-06 -3.39399e-06 0.000603072)
(-5.91409e-07 -7.30542e-07 0.000611678)
(-3.04996e-06 -2.04319e-06 0.00061934)
(-4.94445e-06 -2.95599e-06 0.00062426)
(-6.02017e-06 -3.44161e-06 0.000624622)
(-6.42514e-06 -3.76311e-06 0.000620395)
(-6.43606e-06 -4.22655e-06 0.000612951)
(-6.31045e-06 -4.76881e-06 0.00060483)
(4.24758e-06 9.90694e-07 0.000607864)
(1.17968e-06 -7.82872e-07 0.000615653)
(-1.46274e-06 -2.38058e-06 0.000620663)
(-3.19149e-06 -3.58516e-06 0.000620956)
(-4.18655e-06 -4.48436e-06 0.000616533)
(-4.76419e-06 -5.23724e-06 0.000608931)
(-5.22354e-06 -5.69744e-06 0.000600898)
(7.79043e-06 3.04515e-06 0.000599027)
(4.32662e-06 1.0616e-06 0.000607509)
(1.41443e-06 -1.19614e-06 0.000613169)
(-4.85319e-07 -3.16935e-06 0.000613768)
(-1.66488e-06 -4.73703e-06 0.000609221)
(-2.49863e-06 -5.93046e-06 0.000601232)
(-3.39413e-06 -6.50213e-06 0.000592866)
(8.5287e-06 4.64154e-06 0.00058797)
(5.47209e-06 2.61032e-06 0.000597556)
(3.15414e-06 -1.51123e-07 0.000604209)
(1.81835e-06 -2.70965e-06 0.000605476)
(1.01321e-06 -4.85752e-06 0.000601105)
(3.28064e-07 -6.55494e-06 0.000592852)
(-6.50751e-07 -7.46678e-06 0.000583936)
(-2.22345e-05 -1.76836e-05 0.000590439)
(-2.03723e-05 -1.66912e-05 0.000597867)
(-1.64208e-05 -1.19033e-05 0.000603543)
(-1.03593e-05 -5.61278e-06 0.000605302)
(-2.80332e-06 -6.30094e-07 0.000602285)
(5.22472e-06 2.07595e-06 0.000595156)
(1.25267e-05 2.80148e-06 0.000586338)
(-2.15847e-05 -1.53783e-05 0.000597908)
(-2.09297e-05 -1.56284e-05 0.000604968)
(-1.77577e-05 -1.28733e-05 0.00061034)
(-1.18917e-05 -8.85387e-06 0.000611979)
(-4.04507e-06 -5.61569e-06 0.000609209)
(4.47781e-06 -3.79672e-06 0.000602723)
(1.2102e-05 -2.83706e-06 0.000594752)
(-1.61058e-05 -1.06926e-05 0.000603498)
(-1.75755e-05 -1.19395e-05 0.000610231)
(-1.66271e-05 -1.15305e-05 0.000615297)
(-1.27912e-05 -1.03807e-05 0.000616841)
(-6.75373e-06 -9.42221e-06 0.000614336)
(1.30893e-07 -8.76373e-06 0.000608466)
(6.32534e-06 -7.7766e-06 0.000601214)
(-8.81484e-06 -3.58562e-06 0.000605)
(-1.25612e-05 -5.33133e-06 0.000611622)
(-1.43953e-05 -7.26511e-06 0.000616587)
(-1.33506e-05 -9.16447e-06 0.000618119)
(-1.00293e-05 -1.07136e-05 0.000615776)
(-5.71331e-06 -1.15265e-05 0.000610271)
(-1.52119e-06 -1.10901e-05 0.000603503)
(-2.58685e-06 5.22215e-06 0.000601861)
(-8.05987e-06 3.4922e-06 0.000608668)
(-1.21452e-05 -6.76178e-07 0.000613817)
(-1.34656e-05 -5.67633e-06 0.00061544)
(-1.25419e-05 -9.84438e-06 0.000613106)
(-1.0541e-05 -1.23548e-05 0.000607617)
(-8.17452e-06 -1.29721e-05 0.000600961)
(1.69649e-06 1.46757e-05 0.000594999)
(-4.71366e-06 1.31997e-05 0.000602245)
(-9.97899e-06 6.89938e-06 0.000607811)
(-1.27206e-05 -1.11388e-06 0.000609617)
(-1.34272e-05 -7.83141e-06 0.000607187)
(-1.30939e-05 -1.20517e-05 0.000601436)
(-1.21687e-05 -1.39067e-05 0.000594547)
(3.72292e-06 2.3361e-05 0.00058672)
(-2.38887e-06 2.19114e-05 0.000594558)
(-7.50041e-06 1.36849e-05 0.000600608)
(-1.0713e-05 3.32752e-06 0.000602647)
(-1.24667e-05 -5.32709e-06 0.000600139)
(-1.34226e-05 -1.09352e-05 0.000594084)
(-1.38012e-05 -1.40163e-05 0.000586762)
(-2.57453e-06 -1.89711e-05 0.000579938)
(-1.94931e-06 -1.90509e-05 0.000583849)
(-9.74231e-08 -1.2817e-05 0.0005883)
(3.8379e-06 -3.69956e-06 0.000590792)
(9.59917e-06 5.08697e-06 0.000589887)
(1.65821e-05 1.2147e-05 0.000585981)
(2.37042e-05 1.62289e-05 0.000581258)
(-4.99901e-06 -1.68627e-05 0.000583554)
(-5.01642e-06 -1.75529e-05 0.000586833)
(-3.38925e-06 -1.32781e-05 0.000591005)
(9.52098e-07 -6.47423e-06 0.00059373)
(7.68381e-06 3.517e-07 0.000593663)
(1.57819e-05 6.05683e-06 0.000591082)
(2.36288e-05 9.94668e-06 0.00058789)
(-3.11156e-06 -1.37261e-05 0.00058749)
(-4.62579e-06 -1.44342e-05 0.000590462)
(-4.56573e-06 -1.20873e-05 0.000594481)
(-1.70997e-06 -8.09336e-06 0.000597379)
(3.64266e-06 -3.74451e-06 0.000597906)
(1.03215e-05 4.15461e-07 0.000596249)
(1.66684e-05 4.04032e-06 0.000594036)
(1.87591e-06 -9.16169e-06 0.000589271)
(-1.61543e-06 -9.25497e-06 0.000592482)
(-3.9596e-06 -8.56432e-06 0.000596688)
(-3.61556e-06 -7.30287e-06 0.00059976)
(-8.19886e-07 -5.41304e-06 0.000600489)
(3.29263e-06 -2.88555e-06 0.00059905)
(7.55629e-06 -3.46579e-08 0.000596989)
(7.21847e-06 -3.19025e-06 0.000587798)
(1.92474e-06 -2.20643e-06 0.000591842)
(-2.684e-06 -2.95814e-06 0.000596638)
(-4.74724e-06 -4.31943e-06 0.000599892)
(-4.42469e-06 -4.82064e-06 0.000600359)
(-2.73405e-06 -3.99309e-06 0.000598304)
(-3.06653e-07 -2.37787e-06 0.000595444)
(1.12306e-05 3.79194e-06 0.000583835)
(4.6199e-06 5.94378e-06 0.000589137)
(-1.54275e-06 3.80791e-06 0.000594797)
(-5.4069e-06 -7.90546e-08 0.000598173)
(-7.05996e-06 -2.85068e-06 0.000597938)
(-7.30787e-06 -3.66046e-06 0.000594542)
(-6.38938e-06 -3.42912e-06 0.000590083)
(1.27495e-05 1.1075e-05 0.000579627)
(5.88842e-06 1.40396e-05 0.000586391)
(-7.62376e-07 1.04499e-05 0.000592936)
(-5.73647e-06 4.45984e-06 0.00059628)
(-8.98862e-06 -1.29864e-07 0.000595055)
(-1.09299e-05 -2.27562e-06 0.00058996)
(-1.15895e-05 -3.30755e-06 0.000583464)
(1.49311e-05 2.35603e-06 0.000581528)
(1.28942e-05 1.69589e-06 0.000585215)
(1.06651e-05 3.339e-06 0.000589355)
(9.09905e-06 6.35189e-06 0.000591508)
(8.40494e-06 9.97928e-06 0.000590471)
(8.68801e-06 1.35428e-05 0.000586979)
(9.64374e-06 1.53069e-05 0.000583188)
(1.2213e-05 1.25644e-06 0.000584882)
(1.06183e-05 8.80732e-07 0.000587358)
(8.9481e-06 2.20465e-06 0.000590767)
(8.17749e-06 4.60518e-06 0.000592999)
(8.48785e-06 7.45861e-06 0.000592933)
(9.72726e-06 1.02221e-05 0.000591101)
(1.13138e-05 1.18161e-05 0.000589384)
(9.94371e-06 -4.53458e-07 0.000588978)
(8.51766e-06 -2.43817e-07 0.000590788)
(6.99181e-06 8.95804e-07 0.000593683)
(6.3263e-06 2.6007e-06 0.000595889)
(6.67286e-06 4.63881e-06 0.000596419)
(7.73369e-06 6.79601e-06 0.000595688)
(8.8391e-06 8.42181e-06 0.000595297)
(8.91037e-06 -2.09832e-06 0.000591466)
(7.16449e-06 -1.07723e-06 0.000593399)
(5.27007e-06 5.11423e-08 0.00059628)
(4.1467e-06 1.19576e-06 0.000598465)
(3.91225e-06 2.59347e-06 0.00059905)
(4.22065e-06 4.33048e-06 0.000598442)
(4.62328e-06 5.94411e-06 0.000598161)
(8.5212e-06 -3.31005e-06 0.000590933)
(6.1556e-06 -1.36956e-06 0.000593881)
(3.67167e-06 -1.61332e-07 0.000597387)
(1.94161e-06 5.11017e-07 0.000599651)
(1.02856e-06 1.37006e-06 0.000599748)
(5.67348e-07 2.73792e-06 0.000598194)
(3.71469e-07 4.15507e-06 0.000596732)
(7.95874e-06 -3.97742e-06 0.000587845)
(4.95242e-06 -1.17631e-06 0.00059251)
(1.95608e-06 8.66147e-08 0.000597182)
(-2.70782e-07 2.8603e-07 0.000599639)
(-1.72921e-06 6.246e-07 0.000598844)
(-2.78771e-06 1.62263e-06 0.000595522)
(-3.47139e-06 2.71179e-06 0.000591893)
(6.64196e-06 -4.05489e-06 0.000584208)
(3.39203e-06 -5.47566e-07 0.000591)
(1.90009e-07 5.57404e-07 0.000597074)
(-2.32621e-06 2.47027e-07 0.000599759)
(-4.17291e-06 6.10377e-08 0.000597898)
(-5.66336e-06 6.79521e-07 0.000592467)
(-6.78028e-06 1.4067e-06 0.000586182)
(5.52273e-06 1.29706e-05 0.000593658)
(4.25722e-06 1.31929e-05 0.000597367)
(2.78392e-06 9.88012e-06 0.000600425)
(7.99996e-07 4.41582e-06 0.000601489)
(-2.11188e-06 -1.57411e-06 0.000600074)
(-6.13537e-06 -6.70269e-06 0.000596856)
(-1.10216e-05 -9.57532e-06 0.000593278)
(5.22488e-06 1.07802e-05 0.00059699)
(4.21408e-06 1.11736e-05 0.00059992)
(2.86317e-06 8.72535e-06 0.000602559)
(7.23903e-07 4.29951e-06 0.000603751)
(-2.63125e-06 -7.83253e-07 0.00060303)
(-7.21575e-06 -5.28e-06 0.000600901)
(-1.24866e-05 -8.06123e-06 0.000598666)
(2.76165e-06 8.62471e-06 0.000599989)
(2.35948e-06 8.94574e-06 0.000602488)
(1.6355e-06 7.22688e-06 0.000604869)
(6.93105e-08 4.03002e-06 0.000606184)
(-2.76948e-06 1.92563e-07 0.000606)
(-6.78726e-06 -3.45946e-06 0.000604685)
(-1.12776e-05 -6.1358e-06 0.000603334)
(-1.75552e-06 6.37784e-06 0.000601456)
(-1.27635e-06 6.3218e-06 0.000603977)
(-8.77384e-07 5.15589e-06 0.00060641)
(-1.29919e-06 3.10461e-06 0.000607875)
(-2.99332e-06 4.93173e-07 0.000607915)
(-5.85208e-06 -2.26302e-06 0.000606807)
(-9.26799e-06 -4.65891e-06 0.000605542)
(-7.1203e-06 3.49452e-06 0.000600701)
(-5.71625e-06 2.79884e-06 0.000603769)
(-4.04524e-06 2.07915e-06 0.000606627)
(-3.15446e-06 1.1167e-06 0.000608277)
(-3.55347e-06 -3.03771e-07 0.000608172)
(-5.1936e-06 -2.13478e-06 0.000606564)
(-7.64377e-06 -4.06446e-06 0.000604535)
(-1.15948e-05 -4.35057e-07 0.000598074)
(-9.41536e-06 -1.84129e-06 0.000602118)
(-6.77683e-06 -2.06994e-06 0.000605693)
(-4.83366e-06 -1.92882e-06 0.000607532)
(-4.13613e-06 -2.18724e-06 0.000606955)
(-4.75415e-06 -3.09908e-06 0.000604261)
(-6.45838e-06 -4.45995e-06 0.000600801)
(-1.30597e-05 -5.21939e-06 0.000594854)
(-1.07931e-05 -7.19685e-06 0.000600148)
(-7.96721e-06 -6.72962e-06 0.000604527)
(-5.59146e-06 -5.55956e-06 0.000606485)
(-4.20503e-06 -4.8369e-06 0.000605226)
(-4.04519e-06 -4.9629e-06 0.000601139)
(-4.98855e-06 -5.7837e-06 0.000595854)
(2.24739e-06 1.0606e-05 0.000599373)
(2.79532e-06 8.84788e-06 0.000601414)
(2.50148e-06 4.14048e-06 0.000603085)
(9.43909e-07 -2.71137e-06 0.000604016)
(-2.4953e-06 -1.02431e-05 0.000603994)
(-7.97277e-06 -1.61625e-05 0.000603035)
(-1.47021e-05 -1.72565e-05 0.000601499)
(2.34185e-06 9.56732e-06 0.000601119)
(3.14238e-06 8.31381e-06 0.000603506)
(3.07986e-06 4.93131e-06 0.00060561)
(1.36121e-06 -1.23117e-07 0.00060692)
(-2.73798e-06 -5.7438e-06 0.000607155)
(-9.13809e-06 -1.01512e-05 0.000606286)
(-1.65588e-05 -1.12652e-05 0.000604719)
(7.65773e-07 8.00523e-06 0.000602334)
(2.38176e-06 7.18827e-06 0.000605071)
(3.2156e-06 5.22604e-06 0.00060756)
(2.35877e-06 2.40618e-06 0.000609211)
(-9.36135e-07 -8.34095e-07 0.000609661)
(-6.43897e-06 -3.68088e-06 0.000608832)
(-1.26599e-05 -5.08038e-06 0.000607113)
(-2.69928e-06 5.70074e-06 0.000602722)
(2.45574e-07 5.02995e-06 0.000605704)
(2.75563e-06 4.38311e-06 0.000608476)
(3.66502e-06 3.77416e-06 0.000610361)
(2.21791e-06 2.88231e-06 0.000610907)
(-1.33821e-06 1.57349e-06 0.000609985)
(-5.86081e-06 9.57977e-08 0.000607996)
(-6.9245e-06 2.08413e-06 0.000602252)
(-2.45898e-06 1.15224e-06 0.000605338)
(1.9861e-06 1.6658e-06 0.000608231)
(4.9344e-06 3.20272e-06 0.00061017)
(5.61164e-06 4.61775e-06 0.000610609)
(4.20637e-06 4.9252e-06 0.000609381)
(1.34285e-06 3.82445e-06 0.00060695)
(-9.89158e-06 -2.9896e-06 0.000601127)
(-4.23191e-06 -4.46136e-06 0.000604181)
(1.56045e-06 -2.85886e-06 0.000607009)
(5.99318e-06 7.82761e-07 0.000608772)
(8.33256e-06 4.45059e-06 0.000608849)
(8.66917e-06 6.42864e-06 0.000607059)
(7.2309e-06 6.11944e-06 0.000603982)
(-9.27604e-06 -8.81469e-06 0.000599843)
(-3.76749e-06 -1.0882e-05 0.000602797)
(1.92577e-06 -8.10139e-06 0.000605371)
(6.57617e-06 -2.66004e-06 0.000606735)
(9.61488e-06 2.84278e-06 0.000606244)
(1.10263e-05 6.28155e-06 0.000603725)
(1.08333e-05 6.99188e-06 0.000599799)
(1.20263e-05 1.27343e-05 0.000595769)
(1.25367e-05 9.22296e-06 0.00059744)
(1.10657e-05 4.94423e-06 0.000599176)
(8.10841e-06 -1.33595e-07 0.000600079)
(3.71846e-06 -5.16515e-06 0.000599795)
(-1.59054e-06 -8.10313e-06 0.000598642)
(-6.65396e-06 -6.63993e-06 0.00059756)
(9.8444e-06 1.19777e-05 0.00059752)
(1.1443e-05 9.64611e-06 0.000599066)
(1.13507e-05 6.80771e-06 0.000600734)
(9.62522e-06 3.40734e-06 0.000601572)
(6.05148e-06 8.05027e-08 0.000601238)
(1.02505e-06 -1.62449e-06 0.000600073)
(-4.13325e-06 -3.05031e-07 0.000599028)
(6.80867e-06 9.12267e-06 0.000599236)
(9.68042e-06 8.339e-06 0.000600733)
(1.10783e-05 7.32322e-06 0.000602314)
(1.08469e-05 6.10724e-06 0.000603073)
(8.61942e-06 4.96179e-06 0.000602692)
(4.70622e-06 4.61091e-06 0.000601515)
(3.60519e-07 5.57388e-06 0.000600435)
(2.98559e-06 4.8023e-06 0.000599929)
(7.24465e-06 5.53498e-06 0.000601424)
(1.03849e-05 6.45615e-06 0.000602965)
(1.19508e-05 7.55887e-06 0.000603654)
(1.14907e-05 8.71382e-06 0.000603187)
(9.23261e-06 9.83247e-06 0.000601931)
(6.08391e-06 1.06477e-05 0.000600787)
(-9.26571e-07 -7.59197e-07 0.000599344)
(4.65883e-06 1.12026e-06 0.000600852)
(9.51637e-06 3.86148e-06 0.000602399)
(1.28924e-05 7.26723e-06 0.000603021)
(1.42801e-05 1.07405e-05 0.0006024)
(1.38387e-05 1.34508e-05 0.000600953)
(1.20744e-05 1.45317e-05 0.000599676)
(-3.30459e-06 -6.93669e-06 0.000597964)
(3.12437e-06 -4.45849e-06 0.000599479)
(8.95352e-06 -1.71265e-07 0.000601052)
(1.34453e-05 5.39e-06 0.000601599)
(1.61217e-05 1.10909e-05 0.000600771)
(1.71017e-05 1.54435e-05 0.000599042)
(1.65963e-05 1.72056e-05 0.000597543)
(-2.17926e-06 -1.23927e-05 0.000596804)
(3.67987e-06 -9.87819e-06 0.000598359)
(8.94104e-06 -4.418e-06 0.000599923)
(1.31295e-05 2.74421e-06 0.000600384)
(1.5968e-05 1.01224e-05 0.000599378)
(1.75928e-05 1.58404e-05 0.000597402)
(1.80447e-05 1.85757e-05 0.0005956)
(1.13869e-05 9.58285e-06 0.000594318)
(1.07707e-05 7.88211e-06 0.000596577)
(7.9914e-06 5.34853e-06 0.000598941)
(3.88653e-06 2.37958e-06 0.00059964)
(-1.12801e-06 -3.34339e-07 0.000598182)
(-6.23567e-06 -1.82222e-06 0.000595473)
(-1.03094e-05 -1.16191e-06 0.000593458)
(8.35246e-06 8.218e-06 0.000596854)
(8.88458e-06 7.49992e-06 0.000598078)
(7.57172e-06 6.22896e-06 0.000599598)
(4.83759e-06 4.46523e-06 0.000599792)
(8.92691e-07 2.66303e-06 0.000598238)
(-3.58354e-06 1.60582e-06 0.000595828)
(-7.45702e-06 1.89074e-06 0.00059439)
(4.54291e-06 4.68464e-06 0.000599543)
(6.36991e-06 5.22454e-06 0.000599981)
(6.61321e-06 5.42075e-06 0.000600776)
(5.43591e-06 5.15187e-06 0.000600573)
(2.91387e-06 4.54205e-06 0.000599043)
(-3.58829e-07 3.99842e-06 0.000597011)
(-3.35298e-06 3.83488e-06 0.000596059)
(4.79386e-07 -1.82826e-07 0.000600539)
(3.49209e-06 1.48045e-06 0.000600594)
(5.23995e-06 3.17558e-06 0.00060105)
(5.56328e-06 4.4731e-06 0.000600681)
(4.46975e-06 5.13967e-06 0.00059921)
(2.51382e-06 5.21215e-06 0.00059743)
(5.0112e-07 4.79049e-06 0.000596797)
(-3.28444e-06 -6.02287e-06 0.000599291)
(6.63955e-07 -3.55395e-06 0.000599393)
(3.59708e-06 -4.21492e-07 0.000599962)
(5.07166e-06 2.4678e-06 0.000599692)
(5.06954e-06 4.44276e-06 0.00059829)
(4.14493e-06 5.20782e-06 0.000596579)
(2.97262e-06 4.77051e-06 0.000596064)
(-5.57336e-06 -1.21455e-05 0.000596659)
(-1.15456e-06 -9.22177e-06 0.000597164)
(2.19819e-06 -4.74992e-06 0.000598202)
(4.06082e-06 -2.85046e-07 0.000598247)
(4.47813e-06 2.99008e-06 0.000596949)
(4.02713e-06 4.49113e-06 0.000595185)
(3.36126e-06 4.24769e-06 0.000594616)
(-4.43657e-06 -1.70869e-05 0.000594502)
(-8.39135e-07 -1.41227e-05 0.000595641)
(1.66781e-06 -8.52228e-06 0.000597254)
(2.84453e-06 -2.83087e-06 0.000597705)
(2.89284e-06 1.45112e-06 0.000596599)
(2.38009e-06 3.60312e-06 0.000594829)
(1.93343e-06 3.74672e-06 0.000594105)
(9.59354e-06 6.29533e-06 0.000598631)
(8.13033e-06 4.8764e-06 0.000601971)
(4.80349e-06 3.30238e-06 0.000605304)
(4.94907e-07 2.35112e-06 0.000606609)
(-4.20889e-06 2.41881e-06 0.000605257)
(-8.50484e-06 3.44023e-06 0.000601954)
(-1.14319e-05 4.89799e-06 0.000598558)
(7.28224e-06 5.24339e-06 0.000601973)
(7.01807e-06 4.90307e-06 0.000604425)
(4.86099e-06 4.37467e-06 0.000607018)
(1.5999e-06 4.13271e-06 0.000607943)
(-2.21252e-06 4.37582e-06 0.000606602)
(-5.75692e-06 5.03651e-06 0.000603642)
(-7.98629e-06 5.63859e-06 0.000600758)
(4.30361e-06 2.16775e-06 0.00060532)
(5.28811e-06 2.98043e-06 0.000607049)
(4.50308e-06 3.66685e-06 0.000608937)
(2.54841e-06 4.25816e-06 0.000609496)
(-3.6336e-08 4.73002e-06 0.000608219)
(-2.44498e-06 5.02469e-06 0.000605657)
(-3.76677e-06 4.89688e-06 0.000603206)
(1.82851e-06 -2.02648e-06 0.000606749)
(3.72131e-06 -1.96214e-07 0.00060811)
(3.99969e-06 1.68743e-06 0.000609634)
(3.077e-06 3.13491e-06 0.000610006)
(1.48371e-06 3.87308e-06 0.000608783)
(1.71045e-08 3.86351e-06 0.000606464)
(-5.61346e-07 3.18355e-06 0.000604282)
(3.39968e-07 -6.74939e-06 0.000605541)
(2.63414e-06 -4.11723e-06 0.000606948)
(3.41501e-06 -1.07619e-06 0.000608556)
(2.97261e-06 1.25863e-06 0.000608997)
(1.82372e-06 2.30534e-06 0.000607826)
(7.65519e-07 2.0576e-06 0.000605555)
(5.31399e-07 9.74752e-07 0.000603459)
(-1.69961e-08 -1.12802e-05 0.000602243)
(2.18291e-06 -8.02386e-06 0.000604069)
(2.82735e-06 -3.84483e-06 0.000606132)
(2.23675e-06 -5.87964e-07 0.000606867)
(9.42028e-07 8.06304e-07 0.000605776)
(-2.74288e-07 3.64567e-07 0.000603417)
(-5.89899e-07 -1.02737e-06 0.000601234)
(1.20282e-06 -1.44093e-05 0.000598595)
(2.44329e-06 -1.0678e-05 0.000601045)
(2.32515e-06 -5.53794e-06 0.000603641)
(1.11163e-06 -1.54551e-06 0.000604736)
(-6.51171e-07 1.66009e-07 0.000603802)
(-2.23884e-06 -3.72485e-07 0.000601391)
(-2.9335e-06 -2.06824e-06 0.000598983)
(4.33539e-06 9.55922e-06 0.000598425)
(4.29315e-06 7.37814e-06 0.000602983)
(3.05898e-06 4.68053e-06 0.000606647)
(1.36942e-06 2.96563e-06 0.000607779)
(-2.80787e-07 2.7006e-06 0.000605879)
(-1.48983e-06 3.52711e-06 0.000601544)
(-1.81405e-06 4.44342e-06 0.000596387)
(3.18675e-06 9.2519e-06 0.000603138)
(4.27991e-06 8.1447e-06 0.00060681)
(3.86918e-06 6.23239e-06 0.000609716)
(2.90798e-06 4.90617e-06 0.000610444)