/*--------------------------------*- C++ -*----------------------------------*\
| =========                 |                                                 |
| \\      /  F ield         | OpenFOAM: The Open Source CFD Toolbox           |
|  \\    /   O peration     | Version:  plus.master.MPPICInterFoam            |
|   \\  /    A nd           | Web:      www.OpenFOAM.com                      |
|    \\/     M anipulation  |                                                 |
\*---------------------------------------------------------------------------*/
FoamFile
{
    version     2.0;
    format      ascii;
    class       surfaceScalarField;
    location    "6.4";
    object      alphaPhi;
}
// * * * * * * * * * * * * * * * * * * * * * * * * * * * * * * * * * * * * * //

dimensions      [0 3 -1 0 0 0 0];

internalField   nonuniform List<scalar> 
34004
(
1.43117e-08
6.16189e-08
-1.70517e-06
-8.47629e-08
2.54283e-08
5.55148e-08
-2.11912e-06
-7.64827e-08
3.37511e-08
5.21079e-08
-2.45179e-06
-7.17843e-08
3.96589e-08
4.99337e-08
-2.77331e-06
-6.87173e-08
4.32799e-08
4.81541e-08
-3.09727e-06
-6.62137e-08
4.46874e-08
4.65404e-08
-3.42726e-06
-6.39859e-08
4.3936e-08
4.50379e-08
-3.76398e-06
-6.19436e-08
4.36489e-08
-4.10611e-06
-6.01086e-08
4.10985e-08
1.81898e-08
3.11111e-08
-1.71942e-06
3.19592e-08
2.79887e-08
-2.1356e-06
4.20428e-08
2.63657e-08
-2.47078e-06
4.90491e-08
2.5433e-08
-2.79482e-06
5.32287e-08
2.47028e-08
-3.12133e-06
5.47402e-08
2.40454e-08
-3.45394e-06
5.37028e-08
2.34374e-08
-3.79334e-06
2.28992e-08
-4.13824e-06
5.01822e-08
1.9779e-08
-3.43263e-09
-1.72872e-06
3.46067e-08
-3.40335e-09
-2.14647e-06
4.52056e-08
-2.93606e-09
-2.4832e-06
5.23427e-08
-2.4335e-09
-2.80874e-06
5.6379e-08
-1.97535e-09
-3.13673e-06
5.75664e-08
-1.58323e-09
-3.47081e-06
5.6101e-08
-1.24856e-09
-3.81167e-06
-9.58032e-10
-4.15805e-06
5.21291e-08
2.07087e-08
-4.03918e-08
-1.73289e-06
3.60525e-08
-3.70373e-08
-2.15132e-06
4.69528e-08
-3.43837e-08
-2.48872e-06
5.42652e-08
-3.23905e-08
-2.8149e-06
5.83976e-08
-3.06835e-08
-3.14353e-06
5.96221e-08
-2.91553e-08
-3.47823e-06
5.81375e-08
-2.77604e-08
-3.81971e-06
-2.64691e-08
-4.16671e-06
5.40614e-08
1.95928e-08
-7.70349e-08
-1.73104e-06
3.38907e-08
-7.05462e-08
-2.14918e-06
4.39613e-08
-6.59932e-08
-2.4862e-06
5.06919e-08
-6.28326e-08
-2.81197e-06
5.45098e-08
-6.02305e-08
-3.14016e-06
5.56955e-08
-5.79461e-08
-3.4744e-06
5.44318e-08
-5.58784e-08
-3.81542e-06
-5.39907e-08
-4.16197e-06
5.0823e-08
1.7207e-08
-1.11382e-07
-1.72355e-06
2.9377e-08
-1.01928e-07
-2.14032e-06
3.79494e-08
-9.60256e-08
-2.47587e-06
4.38279e-08
-9.22617e-08
-2.80014e-06
4.73997e-08
-8.92882e-08
-3.12676e-06
4.88895e-08
-8.67081e-08
-3.45938e-06
4.83936e-08
-8.43282e-08
-3.79872e-06
-8.20392e-08
-4.14355e-06
4.58682e-08
9.45019e-09
-1.70933e-06
-1.37135e-07
1.525e-08
-2.12387e-06
-1.25934e-07
1.8726e-08
-2.45637e-06
-1.19727e-07
2.07622e-08
-2.77731e-06
-1.16409e-07
2.17783e-08
-3.1003e-06
-1.1417e-07
2.21071e-08
-3.42895e-06
-1.12526e-07
2.18823e-08
-3.76402e-06
-1.1113e-07
-4.10432e-06
-1.09828e-07
2.11101e-08
1.25254e-08
4.74522e-08
-1.69799e-06
-6.71484e-08
2.2362e-08
4.25475e-08
-2.11103e-06
-6.03481e-08
2.97653e-08
3.99525e-08
-2.44246e-06
-5.65792e-08
3.50612e-08
3.83726e-08
-2.7627e-06
-5.41725e-08
3.83535e-08
3.71381e-08
-3.08533e-06
-5.22596e-08
3.96895e-08
3.60548e-08
-3.41393e-06
-5.05936e-08
3.90928e-08
3.50674e-08
-3.74918e-06
-4.90945e-08
3.41682e-08
-4.08977e-06
-4.7762e-08
3.66e-08
1.59405e-08
2.17971e-08
-1.70963e-06
2.81812e-08
1.94241e-08
-2.12459e-06
3.73055e-08
1.83424e-08
-2.4582e-06
4.38025e-08
1.78018e-08
-2.78066e-06
4.78482e-08
1.74249e-08
-3.10562e-06
4.9532e-08
1.71016e-08
-3.43667e-06
4.89099e-08
1.68048e-08
-3.77451e-06
1.65436e-08
-4.11785e-06
4.59949e-08
1.74197e-08
-7.16298e-09
-1.71709e-06
3.06977e-08
-6.81672e-09
-2.13337e-06
4.04103e-08
-6.13687e-09
-2.46831e-06
4.71578e-08
-5.47077e-09
-2.79208e-06
5.11861e-08
-4.85478e-09
-3.11834e-06
5.26414e-08
-4.30337e-09
-3.45069e-06
5.16245e-08
-3.81295e-09
-3.78983e-06
-3.36989e-09
-4.13446e-06
4.82163e-08
1.82963e-08
-3.81388e-08
-1.72014e-06
3.21044e-08
-3.48964e-08
-2.13694e-06
4.21809e-08
-3.24024e-08
-2.47245e-06
4.91951e-08
-3.05281e-08
-2.7968e-06
5.34243e-08
-2.89265e-08
-3.12365e-06
5.5026e-08
-2.74986e-08
-3.45664e-06
5.41024e-08
-2.62043e-08
-3.79645e-06
-2.50174e-08
-4.14181e-06
5.07001e-08
1.72108e-08
-6.84595e-08
-1.71787e-06
3.00671e-08
-6.25013e-08
-2.13435e-06
3.9383e-08
-5.84087e-08
-2.46942e-06
4.58365e-08
-5.55487e-08
-2.7933e-06
4.97164e-08
-5.31953e-08
-3.11965e-06
5.11844e-08
-5.11332e-08
-3.45209e-06
5.0328e-08
-4.9271e-08
-3.7913e-06
-4.75724e-08
-4.13601e-06
4.71972e-08
1.50604e-08
-9.64163e-08
-1.71063e-06
2.60549e-08
-8.79304e-08
-2.12585e-06
3.40684e-08
-8.27027e-08
-2.45956e-06
3.97812e-08
-7.93276e-08
-2.78205e-06
4.34527e-08
-7.66682e-08
-3.10696e-06
4.52052e-08
-7.4378e-08
-3.43791e-06
4.50668e-08
-7.22936e-08
-3.77564e-06
-7.03206e-08
-4.11887e-06
4.29564e-08
8.40028e-09
-1.69758e-06
-1.16554e-07
1.39905e-08
-2.11075e-06
-1.06599e-07
1.7628e-08
-2.44167e-06
-1.0098e-07
1.99714e-08
-2.76111e-06
-9.78017e-08
2.12928e-08
-3.08265e-06
-9.55459e-08
2.1815e-08
-3.40989e-06
-9.38232e-08
2.16062e-08
-3.74356e-06
-9.23422e-08
-4.08241e-06
-9.09935e-08
2.06766e-08
1.10085e-08
3.60081e-08
-1.6921e-06
-5.28619e-08
1.96886e-08
3.19833e-08
-2.10439e-06
-4.71638e-08
2.62466e-08
2.99521e-08
-2.43479e-06
-4.40737e-08
3.09687e-08
2.87656e-08
-2.75397e-06
-4.21369e-08
3.39415e-08
2.78824e-08
-3.07548e-06
-4.06395e-08
3.52007e-08
2.71378e-08
-3.40291e-06
-3.93714e-08
3.47609e-08
2.6478e-08
-3.73695e-06
-3.82612e-08
2.58892e-08
-4.07628e-06
-3.73002e-08
3.26373e-08
1.38717e-08
1.44392e-08
-1.70183e-06
2.46047e-08
1.25989e-08
-2.11581e-06
3.26932e-08
1.18769e-08
-2.44811e-06
3.85333e-08
1.15876e-08
-2.76924e-06
4.22519e-08
1.14384e-08
-3.09282e-06
4.38979e-08
1.13381e-08
-3.42244e-06
4.34887e-08
1.12602e-08
-3.75881e-06
1.12082e-08
-4.10061e-06
4.10154e-08
1.51467e-08
-9.73989e-09
-1.70797e-06
2.68031e-08
-9.22187e-09
-2.1231e-06
3.54652e-08
-8.45224e-09
-2.45656e-06
4.16089e-08
-7.7294e-09
-2.77885e-06
4.54081e-08
-7.05887e-09
-3.10361e-06
4.69501e-08
-6.44929e-09
-3.43446e-06
4.62864e-08
-5.89939e-09
-3.77207e-06
-5.40041e-09
-4.11512e-06
4.34436e-08
1.58594e-08
-3.54331e-08
-1.71023e-06
2.79618e-08
-3.2389e-08
-2.12579e-06
3.69488e-08
-3.00953e-08
-2.45972e-06
4.33457e-08
-2.83689e-08
-2.78249e-06
4.73427e-08
-2.68922e-08
-3.10776e-06
4.9027e-08
-2.55747e-08
-3.43915e-06
4.84411e-08
-2.43795e-08
-3.77735e-06
-2.32818e-08
-4.12102e-06
4.55918e-08
1.48236e-08
-6.02634e-08
-1.70781e-06
2.60624e-08
-5.48716e-08
-2.12304e-06
3.43646e-08
-5.12334e-08
-2.45654e-06
4.02528e-08
-4.86816e-08
-2.77885e-06
4.39271e-08
-4.65869e-08
-3.10361e-06
4.54814e-08
-4.47595e-08
-3.43446e-06
4.49549e-08
-4.31194e-08
-3.77208e-06
-4.16334e-08
-4.11515e-06
4.23517e-08
1.28833e-08
-8.27431e-08
-1.701e-06
2.24831e-08
-7.51919e-08
-2.11508e-06
2.96321e-08
-7.0586e-08
-2.44731e-06
3.48433e-08
-6.75757e-08
-2.76832e-06
3.82916e-08
-6.52045e-08
-3.09174e-06
4.00355e-08
-6.31707e-08
-3.42119e-06
4.00622e-08
-6.13355e-08
-3.75738e-06
-5.96155e-08
-4.09901e-06
3.82822e-08
7.2758e-09
-1.68922e-06
-9.83603e-08
1.23624e-08
-2.10144e-06
-8.95584e-08
1.58462e-08
-2.43117e-06
-8.45457e-08
1.81934e-08
-2.74946e-06
-8.15633e-08
1.96041e-08
-3.06987e-06
-7.94029e-08
2.02211e-08
-3.39599e-06
-7.77058e-08
2.00889e-08
-3.72855e-06
-7.6257e-08
-4.06626e-06
-7.49618e-08
1.92024e-08
9.68426e-09
2.65603e-08
-1.68732e-06
-4.09657e-08
1.73032e-08
2.31839e-08
-2.099e-06
-3.61066e-08
2.30836e-08
2.1555e-08
-2.42854e-06
-3.35234e-08
2.72647e-08
2.06394e-08
-2.74683e-06
-3.19252e-08
2.99178e-08
1.99961e-08
-3.06738e-06
-3.07221e-08
3.10698e-08
1.94865e-08
-3.3938e-06
-2.97352e-08
3.07291e-08
1.90609e-08
-3.72676e-06
-2.88999e-08
1.87031e-08
-4.06495e-06
-2.82027e-08
2.89013e-08
1.1989e-08
8.50048e-09
-1.69569e-06
2.13011e-08
7.03047e-09
-2.10891e-06
2.83732e-08
6.54091e-09
-2.44013e-06
3.35282e-08
6.40257e-09
-2.76014e-06
3.6863e-08
6.38726e-09
-3.08254e-06
3.84065e-08
6.4199e-09
-3.41094e-06
3.8158e-08
6.47528e-09
-3.74602e-06
6.55323e-09
-4.08647e-06
3.60873e-08
1.30115e-08
-1.15129e-08
-1.70092e-06
2.30781e-08
-1.09204e-08
-2.11517e-06
3.06362e-08
-1.01335e-08
-2.44741e-06
3.60676e-08
-9.41001e-09
-2.76845e-06
3.95005e-08
-8.73474e-09
-3.09192e-06
4.09889e-08
-8.11116e-09
-3.42142e-06
4.05561e-08
-7.53859e-09
-3.75765e-06
-7.01092e-09
-4.09924e-06
3.82033e-08
1.35316e-08
-3.25676e-08
-1.70267e-06
2.39292e-08
-2.97718e-08
-2.1173e-06
3.17417e-08
-2.76991e-08
-2.44995e-06
3.73861e-08
-2.61391e-08
-2.7714e-06
4.09998e-08
-2.48048e-08
-3.09532e-06
4.26328e-08
-2.36146e-08
-3.42532e-06
4.22974e-08
-2.25354e-08
-3.76207e-06
-2.15444e-08
-4.10425e-06
3.99691e-08
1.25484e-08
-5.26223e-08
-1.70028e-06
2.21537e-08
-4.77898e-08
-2.1146e-06
2.93377e-08
-4.45759e-08
-2.44682e-06
3.45089e-08
-4.23146e-08
-2.76783e-06
3.78106e-08
-4.04607e-08
-3.09126e-06
3.9299e-08
-3.88478e-08
-3.42073e-06
3.89871e-08
-3.74055e-08
-3.75691e-06
-3.61034e-08
-4.09848e-06
3.686e-08
1.08167e-08
-7.04376e-08
-1.69398e-06
1.89884e-08
-6.37585e-08
-2.10726e-06
2.51613e-08
-5.97177e-08
-2.43833e-06
2.97284e-08
-5.70534e-08
-2.75814e-06
3.28127e-08
-5.49572e-08
-3.08033e-06
3.44411e-08
-5.31698e-08
-3.40852e-06
3.45846e-08
-5.15737e-08
-3.7434e-06
-5.00962e-08
-4.08364e-06
3.3147e-08
6.16022e-09
-1.68342e-06
-8.23753e-08
1.06051e-08
-2.095e-06
-7.46141e-08
1.37444e-08
-2.42385e-06
-7.01621e-08
1.59114e-08
-2.74125e-06
-6.74175e-08
1.72554e-08
-3.06076e-06
-6.5395e-08
1.78712e-08
-3.38599e-06
-6.37815e-08
1.77882e-08
-3.71763e-06
-6.24089e-08
-4.05436e-06
-6.11986e-08
1.70031e-08
8.49749e-09
1.85484e-08
-1.68355e-06
-3.07885e-08
1.5163e-08
1.56541e-08
-2.09473e-06
-2.65746e-08
2.02384e-08
1.43171e-08
-2.42355e-06
-2.43813e-08
2.39232e-08
1.35898e-08
-2.74106e-06
-2.30391e-08
2.62796e-08
1.31116e-08
-3.06079e-06
-2.20576e-08
2.73316e-08
1.27655e-08
-3.38634e-06
-2.12849e-08
2.70853e-08
1.25062e-08
-3.71837e-06
-2.06623e-08
1.23172e-08
-4.05557e-06
-2.01733e-08
2.5537e-08
1.02832e-08
3.57167e-09
-1.69098e-06
1.82892e-08
2.35593e-09
-2.1036e-06
2.43953e-08
2.01741e-09
-2.43393e-06
2.88709e-08
1.97015e-09
-2.75299e-06
3.17967e-08
2.03564e-09
-3.07439e-06
3.31941e-08
2.15237e-09
-3.40173e-06
3.30571e-08
2.29714e-09
-3.73569e-06
2.46726e-09
-4.07494e-06
3.13508e-08
1.105e-08
-1.27727e-08
-1.69561e-06
1.96241e-08
-1.2174e-08
-2.1092e-06
2.60989e-08
-1.1416e-08
-2.44045e-06
3.07896e-08
-1.07277e-08
-2.76045e-06
3.38002e-08
-1.00806e-08
-3.08282e-06
3.51704e-08
-9.47443e-09
-3.41119e-06
3.49124e-08
-8.90832e-09
-3.74621e-06
-8.3777e-09
-4.08654e-06
3.30125e-08
1.1373e-08
-2.97298e-08
-1.69707e-06
2.01502e-08
-2.72032e-08
-2.11103e-06
2.67867e-08
-2.53524e-08
-2.44263e-06
3.16239e-08
-2.39593e-08
-2.763e-06
3.47714e-08
-2.27673e-08
-3.08578e-06
3.62647e-08
-2.17029e-08
-3.4146e-06
3.61062e-08
-2.07362e-08
-3.75011e-06
-1.98468e-08
-4.09097e-06
3.4262e-08
1.04527e-08
-4.56198e-08
-1.69483e-06
1.85013e-08
-4.13185e-08
-2.1085e-06
2.45598e-08
-3.84945e-08
-2.43972e-06
2.89593e-08
-3.65042e-08
-2.75967e-06
3.18133e-08
-3.48754e-08
-3.08201e-06
3.31627e-08
-3.34632e-08
-3.41034e-06
3.30123e-08
-3.22059e-08
-3.74533e-06
-3.10757e-08
-4.08562e-06
3.13389e-08
8.92096e-09
-5.9437e-08
-1.68906e-06
1.57198e-08
-5.35481e-08
-2.10179e-06
2.08931e-08
-5.00112e-08
-2.43196e-06
2.47525e-08
-4.76627e-08
-2.75083e-06
2.73935e-08
-4.58176e-08
-3.07203e-06
2.88334e-08
-4.42545e-08
-3.39919e-06
2.90439e-08
-4.28731e-08
-3.73297e-06
-4.16112e-08
-4.07204e-06
2.79389e-08
5.10802e-09
-1.6796e-06
-6.83394e-08
8.8691e-09
-2.09078e-06
-6.15e-08
1.1569e-08
-2.41898e-06
-5.75618e-08
1.34578e-08
-2.73572e-06
-5.50746e-08
1.46523e-08
-3.05456e-06
-5.32202e-08
1.5223e-08
-3.3791e-06
-5.17319e-08
1.5194e-08
-3.71003e-06
-5.04739e-08
-4.04601e-06
-4.93815e-08
1.45617e-08
7.43139e-09
1.15506e-08
-1.68071e-06
-2.18301e-08
1.32508e-08
9.01641e-09
-2.09146e-06
-1.81116e-08
1.76791e-08
7.89551e-09
-2.41965e-06
-1.62243e-08
2.08946e-08
7.30357e-09
-2.73649e-06
-1.50821e-08
2.29602e-08
6.94416e-09
-3.05552e-06
-1.42751e-08
2.39052e-08
6.71889e-09
-3.38032e-06
-1.3674e-08
2.37408e-08
6.58657e-09
-3.71157e-06
-1.32252e-08
6.53112e-09
-4.04793e-06
-1.29105e-08
2.24624e-08
8.75602e-09
-6.49638e-10
-1.68754e-06
1.55797e-08
-1.70921e-09
-2.09969e-06
2.07789e-08
-1.95445e-09
-2.42926e-06
2.45921e-08
-1.95218e-09
-2.74753e-06
2.70975e-08
-1.84111e-09
-3.06809e-06
2.83224e-08
-1.67176e-09
-3.39455e-06
2.82676e-08
-1.46564e-09
-3.72758e-06
-1.2256e-09
-4.06583e-06
2.69022e-08
9.283e-09
-1.37366e-08
-1.6918e-06
1.64764e-08
-1.31774e-08
-2.10489e-06
2.19066e-08
-1.24755e-08
-2.43533e-06
2.58475e-08
-1.18418e-08
-2.75447e-06
2.83975e-08
-1.12401e-08
-3.07595e-06
2.95999e-08
-1.06668e-08
-3.40338e-06
2.94702e-08
-1.01209e-08
-3.73742e-06
-9.59861e-09
-4.0767e-06
2.79956e-08
9.41786e-09
-2.70471e-08
-1.69316e-06
1.66861e-08
-2.47937e-08
-2.10663e-06
2.21774e-08
-2.31576e-08
-2.4374e-06
2.61877e-08
-2.19266e-08
-2.75689e-06
2.88203e-08
-2.08724e-08
-3.07876e-06
3.01165e-08
-1.99293e-08
-3.40662e-06
3.00852e-08
-1.90705e-08
-3.74113e-06
-1.82773e-08
-4.08091e-06
2.86961e-08
8.56178e-09
-3.92665e-08
-1.69114e-06
1.51539e-08
-3.54562e-08
-2.10438e-06
2.01081e-08
-3.29849e-08
-2.43481e-06
2.37097e-08
-3.12418e-08
-2.75393e-06
2.60649e-08
-2.98188e-08
-3.0754e-06
2.72199e-08
-2.85898e-08
-3.40283e-06
2.71872e-08
-2.75008e-08
-3.73688e-06
-2.65268e-08
-4.07616e-06
2.59481e-08
7.22245e-09
-4.96188e-08
-1.6859e-06
1.2733e-08
-4.44331e-08
-2.09828e-06
1.69189e-08
-4.13429e-08
-2.42775e-06
2.00426e-08
-3.92807e-08
-2.74589e-06
2.21943e-08
-3.76651e-08
-3.06633e-06
2.34003e-08
-3.63076e-08
-3.39269e-06
2.36471e-08
-3.51226e-08
-3.72564e-06
-3.40567e-08
-4.06379e-06
2.28659e-08
4.14159e-09
-1.67739e-06
-5.59497e-08
7.2083e-09
-2.08832e-06
-4.99156e-08
9.40701e-09
-2.41605e-06
-4.64429e-08
1.09414e-08
-2.7323e-06
-4.42128e-08
1.19156e-08
-3.05066e-06
-4.25398e-08
1.23961e-08
-3.37471e-06
-4.11978e-08
1.24135e-08
-3.70514e-06
-4.00752e-08
-4.04058e-06
-3.91179e-08
1.197e-08
6.49263e-09
5.22737e-09
-1.67873e-06
-1.37001e-08
1.15398e-08
2.96572e-09
-2.0891e-06
-1.03664e-08
1.53429e-08
2.0078e-09
-2.41672e-06
-8.7262e-09
1.80797e-08
1.51359e-09
-2.73298e-06
-7.74697e-09
1.98285e-08
1.24027e-09
-3.05141e-06
-7.08525e-09
2.06396e-08
1.1059e-09
-3.3756e-06
-6.63079e-09
2.05408e-08
1.07369e-09
-3.70623e-06
-6.33436e-09
1.12951e-09
-4.04191e-06
-6.17612e-09
1.95365e-08
7.41686e-09
-4.4755e-09
-1.68525e-06
1.31417e-08
-5.41742e-09
-2.09701e-06
1.74588e-08
-5.60796e-09
-2.42594e-06
2.05946e-08
-5.58323e-09
-2.74355e-06
2.26437e-08
-5.45281e-09
-3.06343e-06
2.36569e-08
-5.25549e-09
-3.3892e-06
2.36574e-08
-5.01048e-09
-3.72151e-06
-4.72151e-09
-4.05897e-06
2.26298e-08
7.69624e-09
-1.45837e-08
-1.68937e-06
1.36002e-08
-1.4091e-08
-2.10207e-06
1.80042e-08
-1.34596e-08
-2.43184e-06
2.11681e-08
-1.28907e-08
-2.75029e-06
2.32055e-08
-1.23431e-08
-3.07107e-06
2.41845e-08
-1.18104e-08
-3.39779e-06
2.41427e-08
-1.12914e-08
-3.7311e-06
-1.07831e-08
-4.06959e-06
2.30792e-08
7.66274e-09
-2.46022e-08
-1.69077e-06
1.35069e-08
-2.26147e-08
-2.10388e-06
1.78634e-08
-2.11807e-08
-2.43397e-06
2.10098e-08
-2.01024e-08
-2.75278e-06
2.30669e-08
-1.91776e-08
-3.07395e-06
2.41031e-08
-1.83478e-08
-3.4011e-06
2.41528e-08
-1.75887e-08
-3.73489e-06
-1.68838e-08
-4.07388e-06
2.32012e-08
6.86517e-09
-3.35357e-08
-1.68903e-06
1.20749e-08
-3.01723e-08
-2.10195e-06
1.59262e-08
-2.80174e-08
-2.43176e-06
1.86865e-08
-2.6498e-08
-2.75025e-06
2.04789e-08
-2.52615e-08
-3.07109e-06
2.13767e-08
-2.41988e-08
-3.39787e-06
2.14188e-08
-2.32625e-08
-3.73127e-06
-2.24299e-08
-4.06984e-06
2.06012e-08
5.70792e-09
-4.08278e-08
-1.68427e-06
9.99141e-09
-3.62601e-08
-2.09641e-06
1.31836e-08
-3.35638e-08
-2.42535e-06
1.5527e-08
-3.17583e-08
-2.74295e-06
1.71297e-08
-3.03506e-08
-3.06285e-06
1.80487e-08
-2.91803e-08
-3.38865e-06
1.83027e-08
-2.81737e-08
-3.72103e-06
-2.72853e-08
-4.05856e-06
1.78489e-08
3.25755e-09
-1.67653e-06
-4.49064e-08
5.6076e-09
-2.08731e-06
-3.95706e-08
7.23377e-09
-2.41469e-06
-3.65167e-08
8.32395e-09
-2.73061e-06
-3.45342e-08
8.99247e-09
-3.04865e-06
-3.30459e-08
9.32482e-09
-3.3724e-06
-3.18605e-08
9.37467e-09
-3.70254e-06
-3.08845e-08
-4.03767e-06
-3.00726e-08
9.15752e-09
5.67824e-09
-7.0347e-10
-1.67761e-06
-6.08939e-09
9.96132e-09
-2.73678e-09
-2.08757e-06
-3.0652e-09
1.3099e-08
-3.56361e-09
-2.41465e-06
-1.63497e-09
1.52875e-08
-3.97783e-09
-2.7304e-06
-7.99211e-10
1.66415e-08
-4.17582e-09
-3.04833e-06
-2.7399e-10
1.72648e-08
-4.22808e-09
-3.37206e-06
2.54405e-11
1.72062e-08
-4.16794e-09
-3.70223e-06
1.84947e-10
-4.01021e-09
-4.03744e-06
1.95198e-10
1.64988e-08
6.21319e-09
-8.07595e-09
-1.68408e-06
1.0866e-08
-8.9459e-09
-2.09544e-06
1.42636e-08
-9.10355e-09
-2.42379e-06
1.66492e-08
-9.07133e-09
-2.74085e-06
1.81608e-08
-8.93124e-09
-3.06021e-06
1.88995e-08
-8.71466e-09
-3.38548e-06
1.89357e-08
-8.43827e-09
-3.71731e-06
-8.10562e-09
-4.05426e-06
1.82824e-08
6.26026e-09
-1.5444e-08
-1.68824e-06
1.08904e-08
-1.50359e-08
-2.10058e-06
1.4217e-08
-1.44817e-08
-2.42976e-06
1.65129e-08
-1.3981e-08
-2.74767e-06
1.79369e-08
-1.34901e-08
-3.06794e-06
1.86091e-08
-1.30005e-08
-3.39419e-06
1.86151e-08
-1.25108e-08
-3.72706e-06
-1.2018e-08
-4.06507e-06
1.79831e-08
6.0667e-09
-2.24445e-08
-1.6898e-06
1.05033e-08
-2.07096e-08
-2.10258e-06
1.36682e-08
-1.94622e-08
-2.43212e-06
1.5852e-08
-1.85246e-08
-2.75039e-06
1.72227e-08
-1.77189e-08
-3.07108e-06
1.79052e-08
-1.69925e-08
-3.3978e-06
1.7986e-08
-1.63239e-08
-3.73117e-06
-1.56981e-08
-4.06973e-06
1.74841e-08
5.31521e-09
-2.83763e-08
-1.68836e-06
9.14979e-09
-2.54153e-08
-2.10102e-06
1.18317e-08
-2.35421e-08
-2.43032e-06
1.3644e-08
-2.22229e-08
-2.74834e-06
1.47571e-08
-2.11537e-08
-3.06875e-06
1.53017e-08
-2.024e-08
-3.39518e-06
1.53698e-08
-1.94404e-08
-3.72825e-06
-1.87341e-08
-4.06646e-06
1.49912e-08
4.32987e-09
-3.28987e-08
-1.68403e-06
7.38522e-09
-2.88704e-08
-2.09596e-06
9.51317e-09
-2.65208e-08
-2.42447e-06
1.09712e-08
-2.49444e-08
-2.74168e-06
1.19162e-08
-2.37238e-08
-3.06123e-06
1.24651e-08
-2.27223e-08
-3.38674e-06
1.26942e-08
-2.18766e-08
-3.71886e-06
-2.1148e-08
-4.0561e-06
1.26037e-08
2.42177e-09
-1.67689e-06
-3.49273e-08
3.98634e-09
-2.08752e-06
-3.01957e-08
4.91711e-09
-2.41462e-06
-2.75165e-08
5.42162e-09
-2.7303e-06
-2.57664e-08
5.65506e-09
-3.04818e-06
-2.44585e-08
5.75231e-09
-3.37184e-06
-2.34311e-08
5.81502e-09
-3.70194e-06
-2.26053e-08
-4.03701e-06
-2.19424e-08
5.88872e-09
4.91899e-09
-6.40037e-09
-1.67735e-06
1.22238e-09
8.37466e-09
-8.29434e-09
-2.08677e-06
4.01206e-09
1.07264e-08
-9.02147e-09
-2.41329e-06
5.2685e-09
1.22206e-08
-9.37644e-09
-2.72855e-06
5.99179e-09
1.3042e-08
-9.51905e-09
-3.04611e-06
6.41889e-09
1.3358e-08
-9.50472e-09
-3.36955e-06
6.6304e-09
1.33044e-08
-9.36384e-09
-3.69952e-06
6.66752e-09
-9.10987e-09
-4.03455e-06
6.54953e-09
1.29494e-08
5.09497e-09
-1.16235e-08
-1.68396e-06
8.60242e-09
-1.24569e-08
-2.09482e-06
1.0942e-08
-1.25997e-08
-2.4226e-06
1.24104e-08
-1.25698e-08
-2.73917e-06
1.32236e-08
-1.24288e-08
-3.05817e-06
1.35701e-08
-1.22001e-08
-3.38318e-06
1.35999e-08
-1.18982e-08
-3.71485e-06
-1.15259e-08
-4.05165e-06
1.33792e-08
4.89866e-09
-1.6424e-08
-1.68834e-06
8.17358e-09
-1.61096e-08
-2.10022e-06
1.02632e-08
-1.56335e-08
-2.42885e-06
1.14983e-08
-1.52007e-08
-2.74631e-06
1.21213e-08
-1.47664e-08
-3.06627e-06
1.23449e-08
-1.43202e-08
-3.39233e-06
1.23398e-08
-1.38601e-08
-3.72512e-06
-1.33826e-08
-4.06309e-06
1.21925e-08
4.54796e-09
-2.05986e-08
-1.69016e-06
7.48998e-09
-1.90981e-08
-2.10254e-06
9.29296e-09
-1.80201e-08
-2.43154e-06
1.0307e-08
-1.72104e-08
-2.74941e-06
1.07884e-08
-1.65127e-08
-3.06983e-06
1.0961e-08
-1.58796e-08
-3.39643e-06
1.10038e-08
-1.52918e-08
-3.7298e-06
-1.47355e-08
-4.06839e-06
1.10033e-08
3.83017e-09
-2.37198e-08
-1.68905e-06
6.19106e-09
-2.11187e-08
-2.10134e-06
7.52157e-09
-1.94954e-08
-2.43016e-06
8.16762e-09
-1.83534e-08
-2.74784e-06
8.39088e-09
-1.74324e-08
-3.06806e-06
8.42228e-09
-1.66506e-08
-3.39444e-06
8.44813e-09
-1.59714e-08
-3.72759e-06
-1.53765e-08
-4.06593e-06
8.56852e-09
3.00888e-09
-2.56636e-08
-1.68507e-06
4.73416e-09
-2.21063e-08
-2.09668e-06
5.61576e-09
-2.00616e-08
-2.42478e-06
5.97567e-09
-1.86881e-08
-2.7417e-06
6.0638e-09
-1.76337e-08
-3.06112e-06
6.09769e-09
-1.67822e-08
-3.38665e-06
6.25051e-09
-1.60796e-08
-3.71889e-06
-1.54934e-08
-4.0563e-06
6.59971e-09
1.57261e-09
-1.67835e-06
-2.57554e-08
2.20223e-09
-2.08871e-06
-2.15479e-08
2.21971e-09
-2.41551e-06
-1.92027e-08
1.90173e-09
-2.73102e-06
-1.7667e-08
1.48809e-09
-3.04888e-06
-1.65292e-08
1.20414e-09
-3.37269e-06
-1.56542e-08
1.23726e-09
-3.70306e-06
-1.49752e-08
-4.03847e-06
-1.44598e-08
1.69556e-09
4.12327e-09
-1.21266e-08
-1.67785e-06
8.48754e-09
6.58087e-09
-1.38957e-08
-2.08643e-06
1.10549e-08
7.8898e-09
-1.45416e-08
-2.41226e-06
1.21626e-08
8.40492e-09
-1.48509e-08
-2.72704e-06
1.2788e-08
8.42895e-09
-1.49491e-08
-3.04433e-06
1.31234e-08
8.25147e-09
-1.48791e-08
-3.36773e-06
1.32343e-08
8.1229e-09
-1.46672e-08
-3.69786e-06
1.31589e-08
-1.43247e-08
-4.03316e-06
1.29129e-08
8.19624e-09
3.94228e-09
-1.52834e-08
-1.68478e-06
6.12184e-09
-1.60928e-08
-2.09486e-06
7.12476e-09
-1.62282e-08
-2.42196e-06
7.36313e-09
-1.62066e-08
-2.7381e-06
7.18586e-09
-1.60718e-08
-3.05689e-06
6.91713e-09
-1.5838e-08
-3.38196e-06
6.8356e-09
-1.55166e-08
-3.7139e-06
-1.51082e-08
-4.05112e-06
7.10718e-09
3.49564e-09
-1.7614e-08
-1.68954e-06
5.19976e-09
-1.73898e-08
-2.10069e-06
5.73696e-09
-1.6988e-08
-2.42867e-06
5.55439e-09
-1.66214e-08
-2.74575e-06
5.04315e-09
-1.62432e-08
-3.06561e-06
4.56236e-09
-1.58407e-08
-3.39186e-06
4.42326e-09
-1.54104e-08
-3.72508e-06
-1.49469e-08
-4.06365e-06
4.82313e-09
2.98792e-09
-1.90709e-08
-1.69172e-06
4.19847e-09
-1.77822e-08
-2.1034e-06
4.2973e-09
-1.68566e-08
-2.43181e-06
3.76122e-09
-1.61626e-08
-2.74936e-06
2.99742e-09
-1.55625e-08
-3.06976e-06
2.38743e-09
-1.50134e-08
-3.39664e-06
2.26274e-09
-1.44972e-08
-3.73057e-06
-1.40012e-08
-4.06988e-06
2.83491e-09
2.29578e-09
-1.94864e-08
-1.69094e-06
2.92603e-09
-1.72053e-08
-2.10257e-06
2.54382e-09
-1.58033e-08
-2.43085e-06
1.63074e-09
-1.4818e-08
-2.74827e-06
5.97661e-10
-1.40268e-08
-3.06855e-06
-1.63287e-10
-1.336e-08
-3.39531e-06
-3.07121e-10
-1.27858e-08
-3.72911e-06
-1.22884e-08
-4.06828e-06
3.94371e-10
1.63778e-09
-1.89554e-08
-1.68725e-06
1.77308e-09
-1.5813e-08
-2.09821e-06
1.04862e-09
-1.40364e-08
-2.42582e-06
-7.05386e-11
-1.28422e-08
-2.74254e-06
-1.19046e-09
-1.19338e-08
-3.06206e-06
-1.93353e-09
-1.12139e-08
-3.38799e-06
-1.97125e-09
-1.06369e-08
-3.72092e-06
-1.01772e-08
-4.05919e-06
-1.09526e-09
6.30061e-10
-1.68078e-06
-1.71561e-08
2.91102e-11
-2.09052e-06
-1.34058e-08
-1.24462e-09
-2.41691e-06
-1.13603e-08
-2.77163e-09
-2.7323e-06
-1.00183e-08
-4.18399e-09
-3.05033e-06
-9.03491e-09
-5.10779e-09
-3.37462e-06
-8.30125e-09
-5.21526e-09
-3.70575e-06
-7.76065e-09
-4.0421e-06
-7.38623e-09
-4.28358e-09
3.1841e-09
-1.80348e-08
-1.67885e-06
1.58339e-08
4.31442e-09
-1.96864e-08
-2.08609e-06
1.82214e-08
4.12928e-09
-2.02622e-08
-2.411e-06
1.92036e-08
3.17521e-09
-2.05368e-08
-2.72525e-06
1.97498e-08
1.94294e-09
-2.06027e-08
-3.04243e-06
2.00094e-08
9.11489e-10
-2.0489e-08
-3.36616e-06
2.0032e-08
5.15301e-10
-2.02165e-08
-3.69701e-06
1.98505e-08
-1.9792e-08
-4.03333e-06
1.94774e-08
1.06526e-09
2.63668e-09
-1.91823e-08
-1.68628e-06
3.10927e-09
-1.99661e-08
-2.09503e-06
2.26953e-09
-2.01012e-08
-2.42125e-06
7.34665e-10
-2.00906e-08
-2.73696e-06
-9.44029e-10
-1.9972e-08
-3.05578e-06
-2.23098e-09
-1.97426e-08
-3.38135e-06
-2.6432e-09
-1.94086e-08
-3.71424e-06
-1.89666e-08
-4.05273e-06
-1.83524e-09
1.91822e-09
-1.90862e-08
-1.69157e-06
1.60286e-09
-1.89387e-08
-2.1014e-06
-5.11939e-12
-1.86038e-08
-2.42855e-06
-2.18507e-09
-1.83074e-08
-2.74533e-06
-4.38359e-09
-1.79849e-08
-3.06536e-06
-6.00842e-09
-1.76268e-08
-3.39231e-06
-6.51801e-09
-1.72262e-08
-3.72672e-06
-1.67747e-08
-4.06682e-06
-5.51416e-09
1.24304e-09
-1.786e-08
-1.69421e-06
2.33694e-10
-1.67558e-08
-2.10459e-06
-1.98561e-09
-1.59671e-08
-2.43223e-06
-4.70362e-09
-1.53797e-08
-2.74956e-06
-7.30013e-09
-1.48677e-08
-3.07026e-06
-9.15364e-09
-1.43939e-08
-3.39799e-06
-9.68819e-09
-1.39412e-08
-3.73328e-06
-1.34974e-08
-4.07433e-06
-8.47524e-09
5.57349e-10
-1.55959e-08
-1.69378e-06
-1.05257e-09
-1.35956e-08
-2.10413e-06
-3.77548e-09
-1.23913e-08
-2.4317e-06
-6.89638e-09
-1.15444e-08
-2.74897e-06
-9.78469e-09
-1.08654e-08
-3.06963e-06
-1.18043e-08
-1.0297e-08
-3.39733e-06
-1.23644e-08
-9.81243e-09
-3.73262e-06
-9.39963e-09
-4.07366e-06
-1.10153e-08
4.39115e-11
-1.2614e-08
-1.69028e-06
-1.90338e-09
-9.84542e-09
-2.10001e-06
-4.84184e-09
-8.30783e-09
-2.42694e-06
-8.07842e-09
-7.27052e-09
-2.74354e-06
-1.09952e-08
-6.48701e-09
-3.06345e-06
-1.29745e-08
-5.87914e-09
-3.39035e-06
-1.34444e-08
-5.40982e-09
-3.72477e-06
-5.06096e-09
-4.06491e-06
-1.19753e-08
-5.63291e-10
-1.68393e-06
-8.90964e-09
-2.87817e-09
-2.09244e-06
-5.58117e-09
-6.04229e-09
-2.41819e-06
-3.80436e-09
-9.41647e-09
-2.73349e-06
-2.63765e-09
-1.24116e-08
-3.05193e-06
-1.79765e-09
-1.44319e-08
-3.37718e-06
-1.19666e-09
-1.49216e-08
-3.70978e-06
-7.88561e-10
-4.04799e-06
-5.51053e-10
-1.34582e-08
1.96745e-09
-2.42529e-08
-1.67999e-06
2.34257e-08
1.15354e-09
-2.57717e-08
-2.08504e-06
2.5641e-08
-1.28862e-09
-2.6287e-08
-2.40867e-06
2.6514e-08
-4.48995e-09
-2.65449e-08
-2.72238e-06
2.69951e-08
-7.70906e-09
-2.65931e-08
-3.0397e-06
2.7193e-08
-1.01818e-08
-2.64496e-08
-3.36427e-06
2.71371e-08
-1.11812e-08
-2.61265e-08
-3.69668e-06
2.68543e-08
-2.56233e-08
-4.0351e-06
2.63534e-08
-1.01241e-08
1.01198e-09
-2.34348e-08
-1.68805e-06
-9.2593e-10
-2.41615e-08
-2.09459e-06
-4.44524e-09
-2.4301e-08
-2.41961e-06
-8.61164e-09
-2.4323e-08
-2.7349e-06
-1.25912e-08
-2.42276e-08
-3.05407e-06
-1.5539e-08
-2.40099e-08
-3.38077e-06
-1.66441e-08
-2.36686e-08
-3.71556e-06
-2.31935e-08
-4.05654e-06
-1.52515e-08
-8.98398e-11
-2.08993e-08
-1.69397e-06
-3.16354e-09
-2.08165e-08
-2.10159e-06
-7.77314e-09
-2.05452e-08
-2.42762e-06
-1.29186e-08
-2.03084e-08
-2.74412e-06
-1.76843e-08
-2.00445e-08
-3.06471e-06
-2.11474e-08
-1.97318e-08
-3.39307e-06
-2.24134e-08
-1.93603e-08
-3.72973e-06
-1.89179e-08
-4.07274e-06
-2.07488e-08
-9.83395e-10
-1.69554e-08
-1.69714e-06
-5.01541e-09
-1.60244e-08
-2.1053e-06
-1.04933e-08
-1.53551e-08
-2.4319e-06
-1.63778e-08
-1.48599e-08
-2.74908e-06
-2.1716e-08
-1.44267e-08
-3.0705e-06
-2.55327e-08
-1.40193e-08
-3.39985e-06
-2.68778e-08
-1.36214e-08
-3.73765e-06
-1.32215e-08
-4.08191e-06
-2.49686e-08
-1.68802e-09
-1.19609e-08
-1.69708e-06
-6.36945e-09
-1.02324e-08
-2.10521e-06
-1.23974e-08
-9.19774e-09
-2.4318e-06
-1.87278e-08
-8.46675e-09
-2.749e-06
-2.43972e-08
-7.88151e-09
-3.07047e-06
-2.84108e-08
-7.39437e-09
-3.39991e-06
-2.97985e-08
-6.98401e-09
-3.73784e-06
-6.64288e-09
-4.08227e-06
-2.77536e-08
-2.01565e-09
-6.50539e-09
-1.69372e-06
-6.89235e-09
-4.07606e-09
-2.10124e-06
-1.30049e-08
-2.74573e-09
-2.42723e-06
-1.93434e-08
-1.83546e-09
-2.74377e-06
-2.49669e-08
-1.14808e-09
-3.06451e-06
-2.89048e-08
-6.22692e-10
-3.39313e-06
-3.02146e-08
-2.28947e-10
-3.73018e-06
3.39289e-11
-4.07368e-06
-2.81128e-08
-2.22536e-09
-1.68731e-06
-8.71774e-10
-7.07319e-09
-2.09367e-06
2.07712e-09
-1.306e-08
-2.4185e-06
3.6232e-09
-1.92354e-08
-2.73372e-06
4.65713e-09
-2.47032e-08
-3.05293e-06
5.4002e-09
-2.85324e-08
-3.37982e-06
5.91968e-09
-2.98118e-08
-3.71494e-06
6.24896e-09
-4.05636e-06
6.39595e-09
-2.7788e-08
1.81529e-10
-3.08549e-08
-1.68064e-06
3.13776e-08
-3.55692e-09
-3.22295e-08
-2.0823e-06
3.33719e-08
-9.36417e-09
-3.26936e-08
-2.40421e-06
3.41525e-08
-1.59711e-08
-3.29451e-08
-2.71733e-06
3.45854e-08
-2.22415e-08
-3.29912e-08
-3.03511e-06
3.47314e-08
-2.7006e-08
-3.28288e-08
-3.36127e-06
3.46056e-08
-2.9099e-08
-3.24595e-08
-3.69637e-06
3.42257e-08
-3.18727e-08
-4.03844e-06
3.35951e-08
-2.75133e-08
-1.29978e-09
-2.80893e-08
-1.68942e-06
-6.7275e-09
-2.87687e-08
-2.09249e-06
-1.41445e-08
-2.89042e-08
-2.41588e-06
-2.21879e-08
-2.8957e-08
-2.73077e-06
-2.96164e-08
-2.88933e-08
-3.05069e-06
-3.51378e-08
-2.86929e-08
-3.37936e-06
-3.74573e-08
-2.83453e-08
-3.71734e-06
-2.78323e-08
-4.06258e-06
-3.54441e-08
-2.8246e-09
-2.31075e-08
-1.69605e-06
-9.89337e-09
-2.30584e-08
-2.10013e-06
-1.88547e-08
-2.28399e-08
-2.42465e-06
-2.82799e-08
-2.26617e-08
-2.74093e-06
-3.68354e-08
-2.24523e-08
-3.06255e-06
-4.31171e-08
-2.21817e-08
-3.39327e-06
-4.5709e-08
-2.18345e-08
-3.73361e-06
-2.13941e-08
-4.08147e-06
-4.33623e-08
-4.05341e-09
-1.63696e-08
-1.69977e-06
-1.23762e-08
-1.55798e-08
-2.10439e-06
-2.24961e-08
-1.50116e-08
-2.42956e-06
-3.29347e-08
-1.45952e-08
-2.74667e-06
-4.22971e-08
-1.42282e-08
-3.06933e-06
-4.91068e-08
-1.38751e-08
-3.40133e-06
-5.18682e-08
-1.35199e-08
-3.74318e-06
-1.31518e-08
-4.09274e-06
-4.92557e-08
-4.82959e-09
-8.53656e-09
-1.70005e-06
-1.38611e-08
-7.05376e-09
-2.10467e-06
-2.45971e-08
-6.16936e-09
-2.42988e-06
-3.55497e-08
-5.53603e-09
-2.74708e-06
-4.53057e-08
-5.02649e-09
-3.0699e-06
-5.23638e-08
-4.60255e-09
-3.40212e-06
-5.52003e-08
-4.24867e-09
-3.74428e-06
-3.96179e-09
-4.0942e-06
-5.24592e-08
-4.98826e-09
-4.75321e-10
-1.69676e-06
-1.40287e-08
1.59122e-09
-2.1008e-06
-2.46954e-08
2.72724e-09
-2.42543e-06
-3.55327e-08
3.52263e-09
-2.74197e-06
-4.5154e-08
4.12255e-09
-3.06402e-06
-5.20874e-08
4.56984e-09
-3.39537e-06
-5.48395e-08
4.88301e-09
-3.73657e-06
5.06348e-09
-4.08546e-06
-5.2084e-08
-4.72948e-09
-1.69018e-06
7.15963e-09
-1.33184e-08
-2.09314e-06
9.71835e-09
-2.34725e-08
-2.41661e-06
1.10506e-08
-3.38063e-08
-2.73179e-06
1.19681e-08
-4.29974e-08
-3.05222e-06
1.26298e-08
-4.96378e-08
-3.38168e-06
1.30808e-08
-5.22978e-08
-3.72073e-06
1.33422e-08
-4.06728e-06
1.34108e-08
-4.97052e-08
-2.53005e-09
-3.7886e-08
3.96813e-08
-1.67985e-06
-1.06576e-08
-3.90823e-08
4.14444e-08
-2.0765e-06
-2.13725e-08
-3.9496e-08
4.21222e-08
-2.39611e-06
-3.29117e-08
-3.97493e-08
4.25177e-08
-2.70858e-06
-4.36482e-08
-3.97974e-08
4.2623e-08
-3.02724e-06
-5.18525e-08
-3.96127e-08
4.24299e-08
-3.35593e-06
-5.57367e-08
-3.9183e-08
4.19447e-08