/*--------------------------------*- C++ -*----------------------------------*\
| =========                 |                                                 |
| \\      /  F ield         | OpenFOAM: The Open Source CFD Toolbox           |
|  \\    /   O peration     | Version:  plus.master.MPPICInterFoam            |
|   \\  /    A nd           | Web:      www.OpenFOAM.com                      |
|    \\/     M anipulation  |                                                 |
\*---------------------------------------------------------------------------*/
FoamFile
{
    version     2.0;
    format      ascii;
    class       volScalarField;
    location    "6.4";
    object      p;
}
// * * * * * * * * * * * * * * * * * * * * * * * * * * * * * * * * * * * * * //

dimensions      [1 -1 -2 0 0 0 0];

internalField   nonuniform List<scalar> 
11821
(
3939.12
3939.12
3939.12
3939.12
3939.12
3939.12
3939.13
3939.13
3939.11
3939.11
3939.11
3939.11
3939.11
3939.11
3939.11
3939.11
3939.11
3939.11
3939.11
3939.12
3939.12
3939.12
3939.12
3939.13
3939.12
3939.12
3939.12
3939.12
3939.12
3939.12
3939.12
3939.12
3939.14
3939.14
3939.14
3939.14
3939.14
3939.14
3939.14
3939.15
3939.16
3939.16
3939.16
3939.16
3939.16
3939.16
3939.16
3939.16
3939.19
3939.19
3939.19
3939.19
3939.19
3939.2
3939.2
3939.2
3842.08
3842.08
3842.08
3842.08
3842.08
3842.08
3842.08
3842.08
3842.07
3842.07
3842.07
3842.07
3842.07
3842.08
3842.08
3842.08
3842.07
3842.07
3842.07
3842.07
3842.07
3842.08
3842.08
3842.08
3842.08
3842.08
3842.08
3842.08
3842.08
3842.09
3842.09
3842.09
3842.09
3842.1
3842.1
3842.1
3842.1
3842.1
3842.1
3842.1
3842.12
3842.12
3842.12
3842.12
3842.12
3842.12
3842.12
3842.12
3842.14
3842.14
3842.14
3842.15
3842.15
3842.15
3842.15
3842.15
3745.04
3745.04
3745.04
3745.04
3745.04
3745.04
3745.04
3745.05
3745.03
3745.03
3745.03
3745.03
3745.04
3745.04
3745.04
3745.04
3745.03
3745.03
3745.03
3745.04
3745.04
3745.04
3745.04
3745.04
3745.04
3745.04
3745.04
3745.04
3745.04
3745.05
3745.05
3745.05
3745.05
3745.05
3745.05
3745.06
3745.06
3745.06
3745.06
3745.06
3745.07
3745.07
3745.07
3745.07
3745.08
3745.08
3745.08
3745.08
3745.09
3745.1
3745.1
3745.1
3745.1
3745.1
3745.11
3745.11
3648
3648
3648
3648
3648
3648
3648
3648.01
3647.99
3647.99
3648
3648
3648
3648
3648
3648
3647.99
3648
3648
3648
3648
3648
3648
3648
3648
3648
3648
3648
3648
3648.01
3648.01
3648.01
3648.01
3648.01
3648.01
3648.01
3648.02
3648.02
3648.02
3648.02
3648.03
3648.03
3648.03
3648.03
3648.03
3648.03
3648.03
3648.03
3648.05
3648.05
3648.05
3648.05
3648.05
3648.06
3648.06
3648.06
3550.96
3550.96
3550.96
3550.96
3550.96
3550.96
3550.96
3550.96
3550.96
3550.96
3550.96
3550.96
3550.96
3550.96
3550.96
3550.96
3550.96
3550.96
3550.96
3550.96
3550.96
3550.96
3550.96
3550.96
3550.96
3550.96
3550.96
3550.96
3550.96
3550.96
3550.96
3550.96
3550.97
3550.97
3550.97
3550.97
3550.97
3550.97
3550.97
3550.97
3550.98
3550.98
3550.98
3550.98
3550.98
3550.99
3550.99
3550.99
3551
3551
3551
3551
3551
3551.01
3551.01
3551.01
3453.92
3453.92
3453.92
3453.92
3453.92
3453.91
3453.91
3453.91
3453.92
3453.92
3453.91
3453.91
3453.91
3453.91
3453.91
3453.91
3453.91
3453.91
3453.91
3453.91
3453.91
3453.91
3453.91
3453.91
3453.92
3453.92
3453.92
3453.91
3453.91
3453.91
3453.91
3453.91
3453.92
3453.92
3453.92
3453.92
3453.92
3453.92
3453.92
3453.92
3453.93
3453.94
3453.94
3453.94
3453.93
3453.93
3453.93
3453.93
3453.95
3453.95
3453.95
3453.95
3453.95
3453.95
3453.95
3453.95
3356.87
3356.87
3356.87
3356.87
3356.87
3356.87
3356.86
3356.86
3356.87
3356.87
3356.87
3356.86
3356.86
3356.86
3356.86
3356.86
3356.87
3356.87
3356.86
3356.86
3356.86
3356.86
3356.86
3356.86
3356.87
3356.87
3356.87
3356.86
3356.86
3356.86
3356.86
3356.86
3356.87
3356.87
3356.87
3356.87
3356.87
3356.87
3356.87
3356.87
3356.88
3356.88
3356.88
3356.88
3356.88
3356.88
3356.88
3356.88
3356.9
3356.9
3356.9
3356.9
3356.9
3356.9
3356.9
3356.9
3259.82
3259.82
3259.82
3259.82
3259.82
3259.81
3259.81
3259.81
3259.82
3259.82
3259.82
3259.81
3259.81
3259.81
3259.81
3259.8
3259.82
3259.82
3259.81
3259.81
3259.81
3259.81
3259.81
3259.8
3259.82
3259.82
3259.82
3259.81
3259.81
3259.81
3259.81
3259.81
3259.82
3259.82
3259.82
3259.82
3259.82
3259.82
3259.81
3259.81
3259.83
3259.83
3259.83
3259.83
3259.83
3259.83
3259.82
3259.82
3259.85
3259.85
3259.85
3259.84
3259.84
3259.84
3259.84
3259.84
3162.77
3162.77
3162.77
3162.77
3162.76
3162.76
3162.76
3162.76
3162.77
3162.77
3162.77
3162.76
3162.76
3162.76
3162.76
3162.75
3162.77
3162.77
3162.76
3162.76
3162.76
3162.76
3162.75
3162.75
3162.77
3162.77
3162.77
3162.76
3162.76
3162.76
3162.76
3162.75
3162.77
3162.77
3162.77
3162.77
3162.77
3162.76
3162.76
3162.76
3162.78
3162.78
3162.78
3162.78
3162.77
3162.77
3162.77
3162.77
3162.79
3162.79
3162.79
3162.79
3162.79
3162.78
3162.78
3162.78
3065.72
3065.72
3065.72
3065.71
3065.71
3065.71
3065.71
3065.71
3065.71
3065.71
3065.71
3065.71
3065.71
3065.71
3065.7
3065.7
3065.71
3065.71
3065.71
3065.71
3065.71
3065.7
3065.7
3065.7
3065.72
3065.72
3065.71
3065.71
3065.71
3065.71
3065.7
3065.7
3065.72
3065.72
3065.72
3065.72
3065.71
3065.71
3065.71
3065.71
3065.73
3065.73
3065.73
3065.72
3065.72
3065.72
3065.71
3065.71
3065.74
3065.74
3065.74
3065.73
3065.73
3065.73
3065.72
3065.72
2968.66
2968.66
2968.66
2968.66
2968.66
2968.66
2968.66
2968.66
2968.66
2968.66
2968.66
2968.65
2968.65
2968.65
2968.65
2968.65
2968.66
2968.66
2968.66
2968.65
2968.65
2968.65
2968.65
2968.65
2968.66
2968.66
2968.66
2968.66
2968.65
2968.65
2968.65
2968.65
2968.67
2968.67
2968.66
2968.66
2968.66
2968.66
2968.65
2968.65
2968.67
2968.67
2968.67
2968.67
2968.66
2968.66
2968.66
2968.66
2968.68
2968.68
2968.68
2968.68
2968.67
2968.67
2968.67
2968.67
2871.61
2871.6
2871.6
2871.6
2871.6
2871.6
2871.61
2871.61
2871.6
2871.6
2871.6
2871.6
2871.6
2871.6
2871.6
2871.6
2871.6
2871.6
2871.6
2871.6
2871.6
2871.6
2871.6
2871.6
2871.6
2871.6
2871.6
2871.6
2871.6
2871.6
2871.6
2871.6
2871.61
2871.61
2871.61
2871.61
2871.6
2871.6
2871.6
2871.6
2871.62
2871.61
2871.61
2871.61
2871.61
2871.61
2871.61
2871.61
2871.62
2871.62
2871.62
2871.62
2871.62
2871.62
2871.61
2871.61
2774.55
2774.55
2774.55
2774.55
2774.55
2774.55
2774.55
2774.55
2774.55
2774.55
2774.55
2774.55
2774.55
2774.55
2774.55
2774.55
2774.55
2774.55
2774.55
2774.55
2774.55
2774.54
2774.54
2774.54
2774.55
2774.55
2774.55
2774.55
2774.55
2774.55
2774.54
2774.54
2774.55
2774.55
2774.55
2774.55
2774.55
2774.55
2774.55
2774.55
2774.56
2774.56
2774.56
2774.56
2774.55
2774.55
2774.55
2774.55
2774.57
2774.57
2774.56
2774.56
2774.56
2774.56
2774.56
2774.56
2677.5
2677.5
2677.5
2677.5
2677.5
2677.5
2677.5
2677.5
2677.5
2677.5
2677.5
2677.5
2677.5
2677.5
2677.5
2677.5
2677.5
2677.49
2677.49
2677.49
2677.49
2677.49
2677.49
2677.49
2677.5
2677.5
2677.49
2677.49
2677.49
2677.49
2677.49
2677.49
2677.5
2677.5
2677.5
2677.5
2677.5
2677.5
2677.49
2677.49
2677.51
2677.5
2677.5
2677.5
2677.5
2677.5
2677.5
2677.5
2677.51
2677.51
2677.51
2677.51
2677.51
2677.51
2677.5
2677.5
3939.34
3939.34
3939.34
3939.34
3939.35
3939.35
3939.35
3939.36
3939.35
3939.35
3939.36
3939.36
3939.37
3939.38
3939.38
3939.39
3939.34
3939.34
3939.34
3939.35
3939.35
3939.36
3939.36
3939.28
3842.27
3842.28
3842.28
3842.28
3842.29
3842.29
3842.29
3842.3
3842.29
3842.29
3842.29
3842.3
3842.31
3842.31
3842.32
3842.33
3842.27
3842.28
3842.28
3842.28
3842.29
3842.29
3842.3
3842.3
3842.3
3842.3
3842.31
3842.32
3842.34
3842.36
3842.38
3842.4
3842.25
3842.25
3842.25
3842.26
3842.26
3842.27
3842.27
3842.28
3842.24
3842.24
3842.25
3842.26
3842.26
3842.27
3842.28
3842.28
3842.21
3842.22
3842.22
3842.22
3842.22
3842.23
3842.23
3842.23
3745.22
3745.22
3745.22
3745.22
3745.23
3745.23
3745.24
3745.24
3745.23
3745.23
3745.23
3745.24
3745.25
3745.25
3745.26
3745.26
3745.22
3745.22
3745.22
3745.23
3745.23
3745.24
3745.24
3745.25
3745.23
3745.23
3745.24
3745.25
3745.27
3745.28
3745.29
3745.31
3745.2
3745.2
3745.2
3745.21
3745.21
3745.22
3745.22
3745.23
3745.19
3745.19
3745.2
3745.2
3745.21
3745.21
3745.22
3745.22
3745.16
3745.17
3745.17
3745.17
3745.17
3745.18
3745.18
3745.18
3648.16
3648.16
3648.17
3648.17
3648.17
3648.18
3648.18
3648.18
3648.17
3648.17
3648.18
3648.18
3648.19
3648.19
3648.2
3648.2
3648.16
3648.16
3648.17
3648.17
3648.18
3648.18
3648.18
3648.19
3648.17
3648.18
3648.18
3648.19
3648.2
3648.21
3648.22
3648.23
3648.15
3648.15
3648.15
3648.15
3648.16
3648.16
3648.16
3648.17
3648.14
3648.14
3648.14
3648.15
3648.15
3648.16
3648.16
3648.16
3648.12
3648.12
3648.12
3648.12
3648.12
3648.12
3648.13
3648.13
3551.11
3551.11
3551.11
3551.12
3551.12
3551.12
3551.12
3551.13
3551.12
3551.12
3551.12
3551.13
3551.13
3551.13
3551.14
3551.14
3551.11
3551.11
3551.11
3551.12
3551.12
3551.12
3551.12
3551.13
3551.12
3551.12
3551.12
3551.13
3551.14
3551.14
3551.15
3551.16
3551.1
3551.1
3551.1
3551.1
3551.1
3551.11
3551.11
3551.11
3551.09
3551.09
3551.09
3551.09
3551.1
3551.1
3551.1
3551.1
3551.07
3551.07
3551.07
3551.07
3551.07
3551.07
3551.07
3551.07
3454.06
3454.06
3454.06
3454.06
3454.06
3454.06
3454.07
3454.07
3454.06
3454.06
3454.07
3454.07
3454.07
3454.07
3454.08
3454.08
3454.06
3454.06
3454.06
3454.06
3454.06
3454.06
3454.07
3454.07
3454.06
3454.06
3454.06
3454.07
3454.07
3454.08
3454.08
3454.09
3454.04
3454.04
3454.04
3454.05
3454.05
3454.05
3454.05
3454.05
3454.03
3454.03
3454.04
3454.04
3454.04
3454.04
3454.04
3454.04
3454.02
3454.02
3454.02
3454.02
3454.02
3454.02
3454.02
3454.02
3357
3357
3357
3357
3357
3357
3357.01
3357.01
3357.01
3357.01
3357.01
3357.01
3357.01
3357.01
3357.01
3357.01
3357
3357
3357
3357
3357
3357
3357
3357.01
3357
3357
3357
3357.01
3357.01
3357.01
3357.01
3357.02
3356.99
3356.99
3356.99
3356.99
3356.99
3356.99
3356.99
3356.99
3356.98
3356.98
3356.98
3356.98
3356.98
3356.98
3356.98
3356.98
3356.96
3356.96
3356.96
3356.96
3356.96
3356.96
3356.96
3356.96
3259.94
3259.94
3259.94
3259.94
3259.94
3259.94
3259.94
3259.94
3259.95
3259.95
3259.95
3259.95
3259.95
3259.95
3259.95
3259.95
3259.94
3259.94
3259.94
3259.94
3259.94
3259.94
3259.94
3259.94
3259.94
3259.94
3259.94
3259.94
3259.95
3259.95
3259.95
3259.95
3259.93
3259.93
3259.93
3259.93
3259.93
3259.93
3259.93
3259.93
3259.92
3259.92
3259.92
3259.92
3259.92
3259.92
3259.92
3259.92
3259.91
3259.91
3259.91
3259.91
3259.91
3259.91
3259.9
3259.9
3162.88
3162.88
3162.88
3162.88
3162.88
3162.88
3162.88
3162.88
3162.89
3162.89
3162.89
3162.89
3162.89
3162.89
3162.89
3162.89
3162.89
3162.89
3162.89
3162.89
3162.89
3162.89
3162.89
3162.88
3162.88
3162.88
3162.88
3162.89
3162.89
3162.89
3162.89
3162.89
3162.87
3162.87
3162.87
3162.87
3162.87
3162.87
3162.87
3162.87
3162.87
3162.87
3162.87
3162.87
3162.86
3162.86
3162.86
3162.86
3162.85
3162.85
3162.85
3162.85
3162.85
3162.85
3162.85
3162.85
3065.82
3065.83
3065.82
3065.82
3065.82
3065.82
3065.82
3065.82
3065.83
3065.83
3065.83
3065.83
3065.83
3065.83
3065.83
3065.83
3065.83
3065.83
3065.83
3065.83
3065.83
3065.83
3065.83
3065.83
3065.83
3065.83
3065.83
3065.83
3065.83
3065.83
3065.83
3065.83
3065.82
3065.82
3065.82
3065.82
3065.82
3065.82
3065.82
3065.82
3065.81
3065.81
3065.81
3065.81
3065.81
3065.81
3065.81
3065.81
3065.8
3065.8
3065.8
3065.8
3065.8
3065.79
3065.79
3065.79
2968.76
2968.76
2968.76
2968.76
2968.76
2968.76
2968.76
2968.77
2968.77
2968.77
2968.77
2968.77
2968.77
2968.77
2968.77
2968.77
2968.77
2968.77
2968.77
2968.77
2968.77
2968.77
2968.77
2968.77
2968.77
2968.77
2968.77
2968.77
2968.77
2968.77
2968.77
2968.77
2968.76
2968.76
2968.76
2968.76
2968.76
2968.76
2968.76
2968.76
2968.75
2968.75
2968.75
2968.75
2968.75
2968.75
2968.75
2968.76
2968.74
2968.74
2968.74
2968.74
2968.74
2968.74
2968.74
2968.74
2871.71
2871.71
2871.71
2871.71
2871.71
2871.71
2871.71
2871.71
2871.71
2871.71
2871.71
2871.71
2871.71
2871.71
2871.72
2871.72
2871.71
2871.71
2871.71
2871.71
2871.71
2871.72
2871.72
2871.72
2871.71
2871.71
2871.71
2871.71
2871.71
2871.72
2871.72
2871.72
2871.71
2871.71
2871.71
2871.71
2871.71
2871.71
2871.71
2871.71
2871.7
2871.7
2871.7
2871.7
2871.7
2871.7
2871.7
2871.71
2871.69
2871.69
2871.69
2871.69
2871.69
2871.69
2871.69
2871.7
2774.65
2774.65
2774.65
2774.65
2774.65
2774.66
2774.66
2774.66
2774.65
2774.65
2774.65
2774.66
2774.66
2774.66
2774.66
2774.66
2774.66
2774.66
2774.66
2774.66
2774.66
2774.66
2774.67
2774.67
2774.66
2774.66
2774.66
2774.66
2774.66
2774.66
2774.67
2774.67
2774.65
2774.65
2774.65
2774.66
2774.66
2774.66
2774.66
2774.66
2774.64
2774.64
2774.65
2774.65
2774.65
2774.65
2774.65
2774.66
2774.63
2774.63
2774.64
2774.64
2774.64
2774.64
2774.64
2774.65
2677.6
2677.6
2677.6
2677.6
2677.6
2677.6
2677.61
2677.61
2677.6
2677.6
2677.6
2677.61
2677.61
2677.61
2677.61
2677.61
2677.6
2677.61
2677.61
2677.61
2677.61
2677.61
2677.62
2677.62
2677.6
2677.6
2677.61
2677.61
2677.61
2677.61
2677.62
2677.62
2677.6
2677.6
2677.6
2677.61
2677.61
2677.61
2677.61
2677.61
2677.59
2677.6
2677.6
2677.6
2677.6
2677.6
2677.61
2677.61
2677.59
2677.59
2677.59
2677.59
2677.59
2677.6
2677.6
2677.6
3939.22
3939.19
3939.18
3939.16
3939.16
3939.15
3939.14
3939.12
3939.15
3939.15
3939.15
3939.15
3939.14
3939.14
3939.14
3939.15
3939.13
3939.13
3939.13
3939.13
3939.13
3939.13
3939.13
3939.13
3842.19
3842.19
3842.19
3842.2
3842.2
3842.2
3842.2
3842.2
3842.18
3842.17
3842.17
3842.17
3842.18
3842.18
3842.18
3842.19
3842.15
3842.16
3842.15
3842.15
3842.15
3842.16
3842.16
3842.15
3842.13
3842.13
3842.13
3842.13
3842.14
3842.14
3842.15
3842.16
3842.12
3842.12
3842.12
3842.12
3842.11
3842.1
3842.1
3842.11
3842.1
3842.1
3842.11
3842.11
3842.11
3842.11
3842.11
3842.11
3842.09
3842.09
3842.09
3842.09
3842.09
3842.09
3842.09
3842.09
3745.14
3745.15
3745.15
3745.15
3745.15
3745.15
3745.16
3745.16
3745.12
3745.12
3745.13
3745.13
3745.13
3745.13
3745.13
3745.13
3745.1
3745.11
3745.11
3745.11
3745.11
3745.11
3745.11
3745.12
3745.09
3745.09
3745.09
3745.1
3745.1
3745.1
3745.1
3745.1
3745.07
3745.07
3745.08
3745.08
3745.08
3745.08
3745.08
3745.08
3745.06
3745.06
3745.06
3745.06
3745.07
3745.07
3745.07
3745.07
3745.04
3745.05
3745.05
3745.05
3745.05
3745.05
3745.05
3745.05
3648.1
3648.1
3648.1
3648.1
3648.1
3648.11
3648.11
3648.11
3648.08
3648.08
3648.08
3648.08
3648.09
3648.09
3648.09
3648.09
3648.06
3648.06
3648.07
3648.07
3648.07
3648.07
3648.07
3648.07
3648.05
3648.05
3648.05
3648.05
3648.06
3648.06
3648.06
3648.06
3648.03
3648.04
3648.04
3648.04
3648.04
3648.04
3648.04
3648.04
3648.02
3648.02
3648.02
3648.02
3648.02
3648.03
3648.03
3648.03
3648.01
3648.01
3648.01
3648.01
3648.01
3648.01
3648.01
3648.01
3551.05
3551.05
3551.05
3551.05
3551.05
3551.05
3551.05
3551.05
3551.04
3551.04
3551.04
3551.04
3551.04
3551.04
3551.04
3551.04
3551.02
3551.02
3551.02
3551.02
3551.02
3551.02
3551.02
3551.02
3551.01
3551.01
3551.01
3551.01
3551.01
3551.01
3551.01
3551.01
3550.99
3550.99
3550.99
3550.99
3550.99
3550.99
3550.99
3550.99
3550.98
3550.98
3550.98
3550.98
3550.98
3550.98
3550.98
3550.98
3550.97
3550.97
3550.97
3550.97
3550.97
3550.97
3550.97
3550.97
3454
3454
3454
3454
3454
3454
3454
3454
3453.99
3453.99
3453.99
3453.99
3453.99
3453.98
3453.98
3453.98
3453.97
3453.97
3453.97
3453.97
3453.97
3453.97
3453.97
3453.96
3453.96
3453.96
3453.96
3453.96
3453.96
3453.96
3453.95
3453.95
3453.95
3453.95
3453.95
3453.95
3453.94
3453.94
3453.94
3453.94
3453.94
3453.94
3453.94
3453.94
3453.93
3453.93
3453.93
3453.93
3453.93
3453.93
3453.93
3453.92
3453.92
3453.92
3453.92
3453.92
3356.95
3356.95
3356.95
3356.95
3356.95
3356.95
3356.95
3356.94
3356.94
3356.94
3356.94
3356.93
3356.93
3356.93
3356.93
3356.93
3356.92
3356.92
3356.92
3356.92
3356.92
3356.92
3356.91
3356.91
3356.91
3356.91
3356.91
3356.91
3356.9
3356.9
3356.9
3356.9
3356.9
3356.9
3356.9
3356.89
3356.89
3356.89
3356.89
3356.89
3356.89
3356.89
3356.89
3356.88
3356.88
3356.88
3356.88
3356.88
3356.88
3356.88
3356.88
3356.88
3356.87
3356.87
3356.87
3356.87
3259.9
3259.9
3259.9
3259.9
3259.89
3259.89
3259.89
3259.89
3259.88
3259.88
3259.88
3259.88
3259.88
3259.88
3259.87
3259.87
3259.87
3259.87
3259.87
3259.87
3259.86
3259.86
3259.86
3259.86
3259.86
3259.86
3259.86
3259.85
3259.85
3259.85
3259.85
3259.85
3259.85
3259.85
3259.84
3259.84
3259.84
3259.84
3259.83
3259.83
3259.84
3259.84
3259.83
3259.83
3259.83
3259.83
3259.82
3259.82
3259.83
3259.83
3259.83
3259.82
3259.82
3259.82
3259.82
3259.81
3162.84
3162.84
3162.84
3162.84
3162.84
3162.84
3162.83
3162.83
3162.83
3162.83
3162.83
3162.83
3162.83
3162.82
3162.82
3162.82
3162.82
3162.82
3162.82
3162.81
3162.81
3162.81
3162.81
3162.81
3162.8
3162.8
3162.8
3162.8
3162.8
3162.8
3162.8
3162.79
3162.79
3162.79
3162.79
3162.79
3162.79
3162.78
3162.78
3162.78
3162.78
3162.78
3162.78
3162.78
3162.78
3162.77
3162.77
3162.77
3162.78
3162.78
3162.77
3162.77
3162.77
3162.77
3162.76
3162.76
3065.79
3065.79
3065.79
3065.78
3065.78
3065.78
3065.78
3065.78
3065.78
3065.78
3065.77
3065.77
3065.77
3065.77
3065.77
3065.77
3065.76
3065.76
3065.76
3065.76
3065.76
3065.76
3065.76
3065.76
3065.75
3065.75
3065.75
3065.75
3065.75
3065.75
3065.74
3065.74
3065.74
3065.74
3065.74
3065.74
3065.73
3065.73
3065.73
3065.73
3065.73
3065.73
3065.73
3065.73
3065.72
3065.72
3065.72
3065.72
3065.72
3065.72
3065.72
3065.72
3065.72
3065.71
3065.71
3065.71
2968.73
2968.73
2968.73
2968.73
2968.73
2968.73
2968.73
2968.73
2968.72
2968.72
2968.72
2968.72
2968.72
2968.72
2968.72
2968.72
2968.71
2968.71
2968.71
2968.71
2968.71
2968.71
2968.71
2968.71
2968.7
2968.7
2968.7
2968.7
2968.69
2968.69
2968.7
2968.7
2968.69
2968.69
2968.68
2968.68
2968.68
2968.68
2968.68
2968.68
2968.68
2968.67
2968.67
2968.67
2968.67
2968.67
2968.67
2968.67
2968.67
2968.67
2968.66
2968.66
2968.66
2968.66
2968.66
2968.66
2871.67
2871.67
2871.67
2871.68
2871.68
2871.68
2871.68
2871.68
2871.66
2871.66
2871.66
2871.66
2871.67
2871.67
2871.67
2871.67
2871.65
2871.65
2871.65
2871.65
2871.65
2871.66
2871.66
2871.66
2871.64
2871.64
2871.64
2871.64
2871.64
2871.65
2871.65
2871.65
2871.63
2871.63
2871.63
2871.63
2871.63
2871.63
2871.63
2871.64
2871.62
2871.62
2871.62
2871.62
2871.62
2871.62
2871.62
2871.62
2871.61
2871.61
2871.61
2871.61
2871.61
2871.61
2871.61
2871.61
2774.62
2774.62
2774.62
2774.63
2774.63
2774.63
2774.63
2774.64
2774.61
2774.61
2774.61
2774.61
2774.62
2774.62
2774.62
2774.62
2774.6
2774.6
2774.6
2774.6
2774.61
2774.61
2774.61
2774.61
2774.59
2774.59
2774.59
2774.59
2774.59
2774.6
2774.6
2774.6
2774.58
2774.58
2774.58
2774.58
2774.58
2774.58
2774.58
2774.58
2774.57
2774.57
2774.57
2774.57
2774.57
2774.57
2774.57
2774.57
2774.56
2774.56
2774.56
2774.56
2774.56
2774.56
2774.56
2774.56
2677.58
2677.58
2677.58
2677.58
2677.58
2677.58
2677.59
2677.59
2677.56
2677.56
2677.57
2677.57
2677.57
2677.57
2677.57
2677.57
2677.55
2677.55
2677.55
2677.56
2677.56
2677.56
2677.56
2677.56
2677.54
2677.54
2677.54
2677.54
2677.54
2677.55
2677.55
2677.55
2677.53
2677.53
2677.53
2677.53
2677.53
2677.53
2677.53
2677.53
2677.52
2677.52
2677.52
2677.52
2677.52
2677.52
2677.52
2677.52
2677.51
2677.51
2677.51
2677.51
2677.51
2677.51
2677.51
2677.51
3939.22
3939.22
3939.22
3939.22
3939.22
3939.22
3939.22
3939.22
3939.26
3939.26
3939.26
3939.27
3939.28
3939.28
3939.29
3939.3
3939.27
3939.27
3939.27
3939.28
3939.28
3939.29
3939.29
3939.3
3939.33
3939.33
3939.34
3939.35
3939.38
3939.4
3939.43
3939.45
3939.3
3939.3
3939.3
3939.31
3939.31
3939.31
3939.32
3939.32
3939.34
3939.34
3939.34
3939.35
3939.35
3939.36
3939.37
3939.38
3939.32
3939.33
3939.33
3939.33
3939.33
3939.33
3939.33
3939.34
3842.17
3842.17
3842.17
3842.17
3842.17
3842.18
3842.18
3842.18
3842.2
3842.2
3842.21
3842.21
3842.22
3842.22
3842.23
3842.23
3842.22
3842.22
3842.22
3842.22
3842.23
3842.23
3842.24
3842.24
3842.26
3842.26
3842.27
3842.28
3842.3
3842.31
3842.33
3842.35
3842.24
3842.25
3842.25
3842.25
3842.26
3842.26
3842.27
3842.27
3842.27
3842.27
3842.28
3842.28
3842.29
3842.3
3842.3
3842.31
3842.27
3842.27
3842.27
3842.27
3842.28
3842.28
3842.29
3842.29
3745.12
3745.12
3745.12
3745.12
3745.12
3745.13
3745.13
3745.13
3745.15
3745.15
3745.15
3745.16
3745.16
3745.17
3745.17
3745.18
3745.16
3745.16
3745.16
3745.17
3745.17
3745.18
3745.18
3745.18
3745.19
3745.2
3745.2
3745.21
3745.22
3745.24
3745.25
3745.27
3745.19
3745.19
3745.19
3745.2
3745.2
3745.2
3745.21
3745.21
3745.21
3745.21
3745.22
3745.22
3745.23
3745.24
3745.24
3745.25
3745.21
3745.21
3745.21
3745.22
3745.22
3745.22
3745.23
3745.23
3648.07
3648.07
3648.07
3648.07
3648.07
3648.08
3648.08
3648.08
3648.09
3648.09
3648.1
3648.1
3648.1
3648.11
3648.11
3648.12
3648.11
3648.11
3648.11
3648.11
3648.12
3648.12
3648.12
3648.13
3648.13
3648.14
3648.14
3648.15
3648.16
3648.17
3648.18
3648.19
3648.13
3648.14
3648.14
3648.14
3648.14
3648.15
3648.15
3648.16
3648.15
3648.15
3648.16
3648.16
3648.17
3648.18
3648.18
3648.19
3648.16
3648.16
3648.16
3648.16
3648.17
3648.17
3648.17
3648.18
3551.02
3551.02
3551.02
3551.02
3551.02
3551.02
3551.03
3551.03
3551.04
3551.04
3551.04
3551.05
3551.05
3551.05
3551.06
3551.06
3551.05
3551.06
3551.06
3551.06
3551.06
3551.06
3551.07
3551.07
3551.08
3551.08
3551.08
3551.09
3551.09
3551.1
3551.11
3551.12
3551.08
3551.08
3551.08
3551.09
3551.09
3551.09
3551.09
3551.1
3551.1
3551.1
3551.1
3551.11
3551.11
3551.12
3551.12
3551.13
3551.1
3551.1
3551.11
3551.11
3551.11
3551.12
3551.12
3551.12
3453.97
3453.97
3453.97
3453.97
3453.97
3453.97
3453.97
3453.97
3453.99
3453.99
3453.99
3453.99
3453.99
3453.99
3454
3454
3454
3454
3454
3454
3454
3454.01
3454.01
3454.01
3454.02
3454.02
3454.02
3454.03
3454.03
3454.04
3454.04
3454.05
3454.03
3454.03
3454.03
3454.03
3454.03
3454.03
3454.04
3454.04
3454.04
3454.04
3454.05
3454.05
3454.05
3454.06
3454.06
3454.06
3454.05
3454.05
3454.05
3454.05
3454.06
3454.06
3454.06
3454.06
3356.91
3356.91
3356.91
3356.91
3356.91
3356.91
3356.91
3356.91
3356.93
3356.93
3356.93
3356.93
3356.93
3356.94
3356.94
3356.94
3356.94
3356.94
3356.94
3356.95
3356.95
3356.95
3356.95
3356.95
3356.96
3356.96
3356.96
3356.97
3356.97
3356.97
3356.98
3356.98
3356.97
3356.97
3356.97
3356.97
3356.97
3356.98
3356.98
3356.98
3356.98
3356.99
3356.99
3356.99
3356.99
3356.99
3357
3357
3356.99
3356.99
3356.99
3357
3357
3357
3357
3357
3259.86
3259.86
3259.86
3259.86
3259.86
3259.86
3259.86
3259.85
3259.88
3259.88
3259.88
3259.88
3259.88
3259.88
3259.88
3259.88
3259.89
3259.89
3259.89
3259.89
3259.89
3259.89
3259.89
3259.89
3259.9
3259.9
3259.91
3259.91
3259.91
3259.91
3259.91
3259.91
3259.91
3259.91
3259.91
3259.92
3259.92
3259.92
3259.92
3259.92
3259.93
3259.93
3259.93
3259.93
3259.93
3259.93
3259.93
3259.93
3259.94
3259.94
3259.94
3259.94
3259.94
3259.94
3259.94
3259.94
3162.81
3162.81
3162.81
3162.8
3162.8
3162.8
3162.8
3162.79
3162.82
3162.82
3162.82
3162.82
3162.82
3162.82
3162.82
3162.81
3162.83
3162.83
3162.83
3162.83
3162.83
3162.83
3162.83
3162.83
3162.85
3162.85
3162.85
3162.85
3162.85
3162.85
3162.85
3162.85
3162.86
3162.86
3162.86
3162.86
3162.86
3162.86
3162.85
3162.85
3162.87
3162.87
3162.87
3162.87
3162.87
3162.87
3162.87
3162.87
3162.88
3162.88
3162.88
3162.88
3162.88
3162.88
3162.87
3162.87
3065.75
3065.75
3065.75
3065.75
3065.74
3065.74
3065.74
3065.74
3065.76
3065.76
3065.76
3065.76
3065.76
3065.76
3065.76
3065.76
3065.78
3065.78
3065.78
3065.77
3065.77
3065.77
3065.77
3065.77
3065.79
3065.79
3065.79
3065.79
3065.79
3065.79
3065.79
3065.79
3065.8
3065.8
3065.8
3065.8
3065.8
3065.8
3065.8
3065.79
3065.81
3065.81
3065.81
3065.81
3065.81
3065.81
3065.81
3065.81
3065.82
3065.82
3065.82
3065.82
3065.82
3065.82
3065.82
3065.82
2968.69
2968.69
2968.69
2968.69
2968.68
2968.68
2968.68
2968.68
2968.71
2968.71
2968.7
2968.7
2968.7
2968.7
2968.7
2968.7
2968.72
2968.72
2968.72
2968.72
2968.71
2968.71
2968.71
2968.71
2968.73
2968.73
2968.73
2968.73
2968.73
2968.73
2968.73
2968.73
2968.74
2968.74
2968.74
2968.74
2968.74
2968.74
2968.74
2968.74
2968.75
2968.75
2968.75
2968.75
2968.75
2968.75
2968.75
2968.75
2968.76
2968.76
2968.76
2968.76
2968.76
2968.76
2968.76
2968.76
2871.63
2871.63
2871.63
2871.63
2871.63
2871.63
2871.62
2871.62
2871.65
2871.65
2871.64
2871.64
2871.64
2871.64
2871.64
2871.64
2871.66
2871.66
2871.66
2871.66
2871.66
2871.66
2871.66
2871.66
2871.67
2871.67
2871.67
2871.67
2871.67
2871.67
2871.67
2871.67
2871.68
2871.68
2871.68
2871.68
2871.68
2871.68
2871.68
2871.68
2871.69
2871.69
2871.69
2871.69
2871.69
2871.69
2871.7
2871.7
2871.7
2871.7
2871.7
2871.7
2871.7
2871.7
2871.7
2871.71
2774.58
2774.57
2774.57
2774.57
2774.57
2774.57
2774.57
2774.57
2774.59
2774.59
2774.59
2774.59
2774.59
2774.59
2774.58
2774.58
2774.6
2774.6
2774.6
2774.6
2774.6
2774.6
2774.6
2774.6
2774.61
2774.61
2774.61
2774.61
2774.61
2774.61
2774.62
2774.62
2774.63
2774.63
2774.63
2774.63
2774.63
2774.63
2774.63
2774.63
2774.64
2774.64
2774.64
2774.64
2774.64
2774.64
2774.64
2774.64
2774.64
2774.64
2774.64
2774.65
2774.65
2774.65
2774.65
2774.65
2677.52
2677.52
2677.52
2677.52
2677.52
2677.52
2677.51
2677.51
2677.53
2677.53
2677.53
2677.53
2677.53
2677.53
2677.53
2677.53
2677.55
2677.54
2677.54
2677.54
2677.54
2677.55
2677.55
2677.55
2677.56
2677.56
2677.56
2677.56
2677.56
2677.56
2677.56
2677.56
2677.57
2677.57
2677.57
2677.57
2677.57
2677.57
2677.57
2677.57
2677.58
2677.58
2677.58
2677.58
2677.58
2677.59
2677.59
2677.59
2677.59
2677.59
2677.59
2677.59
2677.59
2677.6
2677.6
2677.6
3861.66
3862.43
3865.22
3867.21
3865.87
3863.98
3862.83
3862.5
3866.97
3876.43
3877.95
3876.87
3868.21
3863.76
3864.36
3874.63
3882.68
3875.74
3882.49
3874.23
3864.53
3863.78
3873.63
3883.05
3879.47
3881.45
3874
3863.98
3864.17
3874.02
3883.56
3879.77
3885.37
3874.48
3864.4
3862.07
3865.34
3873.06
3873.57
3874.89
3867.09
3863.21
3861.27
3861.64
3863.06
3863.54
3864.16
3863.02
3862.17
3798.08
3804.11
3810.29
3817.3
3809.53
3804.08
3797.28
3803.86
3813.63
3831.49
3854.39
3828.35
3813.37
3803.48
3809.29
3828.61
3861.6
3867.57
3856.46
3824.46
3807.99
3811.61
3835.46
3863.71
3865.19
3865.39
3833.65
3810.31
3807.6
3823.52
3852.11
3863.53
3847.92
3820.66
3806.51
3801.91
3809.88
3822.5
3839.2
3820.71
3809.74
3801.39
3796.2
3801.41
3806.13
3810.89
3805.67
3801.16
3795.24
3709.18
3713.74
3717.12
3720.88
3717.02
3713.16
3707.25
3713.89
3718.58
3724.14
3739.41
3723.42
3719.73
3712.48
3717.33
3723.2
3743.36
3798.44
3739.3
3723.77
3716.38
3719.07
3727.29
3756.94
3808.1
3752.36
3726.09
3718.08
3716.15
3720.96
3733.19
3767.74
3730.26
3721.25
3714.83
3712.58
3716.85
3720.1
3728.47
3720.04
3717.37
3710.69
3707.75
3711.88
3714.72
3717.38
3714.48
3711.14
3705.41
3607.52
3610.96
3612.4
3613.07
3610.88
3607.84
3603.58
3612.09
3615.97
3615.24
3615.08
3613.9
3611.8
3607.11
3615.42
3619.05
3612.92
3616.58
3613.12
3613.9
3609.59
3616.6
3618.77
3613.7
3628.3
3613.74
3614.97
3610.79
3614.76
3617.76
3614.54
3616.8
3613.77
3613.74
3609.25
3611.42
3615.09
3615.7
3615.78
3614.05
3611.39
3606.57
3606.87
3610.27
3611.9
3612.53
3610.34
3607.17
3602.9
3492.79
3495.69
3497.59
3497.49
3495.7
3492.97
3490.06
3496.19
3498.77
3499.79
3498.86
3498.58
3496.33
3492.45
3498.48
3497.72
3500.63
3495.63
3497.99
3498.56
3494.4
3499.55
3502.07
3498.83
3484.45
3496.76
3498.83
3495.19
3499.25
3501.35
3497.52
3495.16
3497.15
3498.11
3494.14
3496.74
3500.27
3501.1
3500.25
3498.56
3496.03
3492.32
3493.24
3496.18
3498.19
3498
3495.87
3493.04
3490.15
3354.26
3346.5
3341.11
3340.86
3345.86
3353.81
3360.68
3345.24
3331.82
3321.62
3318.71
3330.86
3344.33
3355.9
3337.9
3321.86
3305.79
3306.76
3318.66
3336.82
3352.68
3339.31
3318.49
3320.56
3320.82
3319.59
3335.21
3351.94
3341.41
3327.64
3326.58
3315.86
3327.45
3339.96
3354.08
3350.13
3339.87
3333.08
3331.36
3338.65
3349.06
3358.28
3358.46
3352.91
3349.31
3348.92
3352.3
3357.92
3363.28
3239.14
3227.97
3220.16
3219.36
3225.25
3236.11
3248.53
3227.67
3221.03
3220.65
3219.03
3218.92
3223.41
3239.66
3222.29
3221.13
3220.2
3220.17
3219.33
3218.26
3231.37
3222.03
3219.23
3221.61
3226.15
3217.59
3217.8
3228.12
3223.04
3218.97
3220.47
3218.8
3219.11
3218.64
3233.85
3231.06
3221.99
3219.43
3218.94
3220.27
3227.6
3242.45
3244.05
3233.72
3226.13
3224.81
3230.77
3241.2
3251.56
3178.6
3179.24
3179.78
3179.15
3177.94
3176.68
3178.03
3179.62
3186.16
3189.23
3188.85
3185.1
3177.78
3176.41
3181.99
3189.71
3189.79
3188.89
3187.7
3179.68
3175.11
3181.73
3189.2
3184.8
3185.33
3184.45
3177.95
3173.64
3181.59
3189.59
3189.49
3189.32
3186.57
3178.61
3175.18
3178.67
3182.87
3184.56
3184.36
3181.27
3176.36
3176.53
3178.91
3178.19
3177.39
3177.04
3176.83
3176.95
3178.62
3118.63
3125.13
3131.16
3131.8
3125.38
3118.13
3112.52
3126.39
3142.07
3156.71
3157.11
3143.39
3126.54
3116.76
3135.39
3159.46
3168.15
3166.75
3158.1
3136.4
3120.41
3138.19
3162.52
3168.68
3166.32
3159.21
3139.95
3121.6
3132.86
3156.22
3168.9
3166.39
3155.24
3133.34
3119.21
3123.6
3135.54
3146.15
3147.15
3136.07
3123.19
3115.08
3116.49
3121.65
3125.48
3125.71
3121.45
3115.83
3110.85
3026.6
3029.73
3031.99
3032.43
3029.85
3026.38
3022.26
3030.71
3035.01
3041.82
3044.35
3036.02
3030.42
3025.72
3034.21
3045.55
3069.15
3074.48
3049.56
3034.47
3028.4
3036.28
3053.13
3084.37
3092.71
3057.35
3036.68
3029.38
3032.56
3040.4
3054.2
3058.25
3042.03
3032.51
3027.37
3029.29
3033.13
3037.06
3037.98
3033.46
3028.98
3024.36
3024.72
3028.16
3030.52
3030.64
3028.43
3024.73
3020.64
2916.26
2915.59
2914.45
2914.68
2915.51
2916.29
2915.64
2915.65
2910.85
2902.49
2902.87
2910.07
2915.48
2916.42
2914.42
2903.59
2900.39
2901.5
2902.18
2914.29
2917.1
2914.62
2902.69
2902.15
2905.44
2907.2
2915.56
2917.82
2915.68
2909.46
2901.85
2902.13
2909.83
2916.18
2917.32
2916.85
2915.73
2914.12
2914.38
2916.12
2917.32
2916.65
2916.38
2917.09
2917.55
2917.74
2917.43
2916.78
2915.46
2806.68
2805.74
2804.88
2804.33
2805.11
2806.11
2806.96
2805.14
2803.51
2808.94
2808.6
2802.66
2804.16
2806.04
2802.66
2808.32
2801.86
2801.89
2802.06
2801.64
2805.14
2801.91
2807.84
2799.55
2800.14
2798.7
2802.25
2805.03
2803.27
2799.31
2802.23
2800.78
2797.87
2802.09
2805.31
2805.02
2802.53
2799.33
2798.54
2801.72
2804.31
2806.2
2806.49
2805.37
2804.38
2804.23
2805.03
2806.21
2807.11
2702.54
2701.07
2700.24
2699
2700.71
2701.78
2703.69
2701.01
2701.94
2706.32
2706.61
2701.56
2700.21
2702.04
2699.08
2705.43
2697.35
2696.54
2704.21
2698.4
2700.21
2698.75
2706.81
2696.66
2692.87
2701.28
2697.42
2699.67
2700.12
2700.83
2703.4
2704.72
2699.62
2698.68
2700.96
2701.47
2699.86
2698.42
2696.51
2698.9
2700.18
2702.61
2703.57
2701.94
2700.41
2699.75
2701.33
2702.74
2704.52
2610.93
2610.7