/*--------------------------------*- C++ -*----------------------------------*\
| =========                 |                                                 |
| \\      /  F ield         | OpenFOAM: The Open Source CFD Toolbox           |
|  \\    /   O peration     | Version:  plus.master.MPPICInterFoam            |
|   \\  /    A nd           | Web:      www.OpenFOAM.com                      |
|    \\/     M anipulation  |                                                 |
\*---------------------------------------------------------------------------*/
FoamFile
{
    version     2.0;
    format      ascii;
    class       surfaceScalarField;
    location    "6.4";
    object      phi;
}
// * * * * * * * * * * * * * * * * * * * * * * * * * * * * * * * * * * * * * //

dimensions      [0 3 -1 0 0 0 0];

internalField   nonuniform List<scalar> 
34004
(
1.43244e-08
6.15842e-08
-1.70576e-06
-8.47299e-08
2.54192e-08
5.54856e-08
-2.11983e-06
-7.64553e-08
3.37169e-08
5.208e-08
-2.45263e-06
-7.17618e-08
3.95978e-08
4.9908e-08
-2.77427e-06
-6.8696e-08
4.31815e-08
4.81326e-08
-3.09835e-06
-6.61824e-08
4.45398e-08
4.65271e-08
-3.42845e-06
-6.39371e-08
4.37257e-08
4.50373e-08
-3.76527e-06
-6.18766e-08
4.36668e-08
-4.10747e-06
-6.00222e-08
4.08084e-08
1.82169e-08
3.1038e-08
-1.71999e-06
3.19535e-08
2.79162e-08
-2.13631e-06
4.20171e-08
2.62905e-08
-2.47162e-06
4.90104e-08
2.5352e-08
-2.79579e-06
5.31829e-08
2.46128e-08
-3.12245e-06
5.46936e-08
2.39424e-08
-3.45521e-06
5.3665e-08
2.33174e-08
-3.79479e-06
2.27579e-08
-4.13988e-06
5.01703e-08
1.97892e-08
-3.54439e-09
-1.72928e-06
3.45697e-08
-3.50564e-09
-2.14718e-06
4.51271e-08
-3.02678e-09
-2.48402e-06
5.22195e-08
-2.51064e-09
-2.80967e-06
5.62043e-08
-2.03607e-09
-3.13777e-06
5.73333e-08
-1.62435e-09
-3.47194e-06
5.58075e-08
-1.26687e-09
-3.81288e-06
-9.49731e-10
-4.15932e-06
5.17827e-08
2.0721e-08
-4.05639e-08
-1.73346e-06
3.60335e-08
-3.71994e-08
-2.15202e-06
4.69147e-08
-3.45346e-08
-2.48954e-06
5.42134e-08
-3.2533e-08
-2.81585e-06
5.83357e-08
-3.08212e-08
-3.14462e-06
5.95557e-08
-2.92926e-08
-3.47947e-06
5.80798e-08
-2.79022e-08
-3.82111e-06
-2.66211e-08
-4.16829e-06
5.40339e-08
1.95856e-08
-7.72203e-08
-1.73159e-06
3.38612e-08
-7.07112e-08
-2.14985e-06
4.39101e-08
-6.61361e-08
-2.48698e-06
5.06123e-08
-6.29545e-08
-2.81286e-06
5.43913e-08
-6.03306e-08
-3.14116e-06
5.55279e-08
-5.80225e-08
-3.4755e-06
5.42095e-08
-5.59278e-08
-3.8166e-06
-5.40092e-08
-4.1632e-06
5.05456e-08
1.72103e-08
-1.11576e-07
-1.72408e-06
2.93803e-08
-1.02106e-07
-2.14098e-06
3.79541e-08
-9.61928e-08
-2.47666e-06
4.38334e-08
-9.24255e-08
-2.80105e-06
4.74079e-08
-8.94535e-08
-3.12781e-06
4.89079e-08
-8.68792e-08
-3.46058e-06
4.84357e-08
-8.45092e-08
-3.80008e-06
-8.22354e-08
-4.1451e-06
4.59489e-08
9.44141e-09
-1.70985e-06
-1.37296e-07
1.52277e-08
-2.12451e-06
-1.26074e-07
1.86815e-08
-2.45711e-06
-1.19853e-07
2.06878e-08
-2.77816e-06
-1.16523e-07
2.16693e-08
-3.10125e-06
-1.1427e-07
2.1961e-08
-3.42999e-06
-1.1261e-07
2.16937e-08
-3.76512e-06
-1.11192e-07
-4.10547e-06
-1.09865e-07
2.087e-08
1.2552e-08
4.743e-08
-1.69862e-06
-6.71249e-08
2.23284e-08
4.25199e-08
-2.11181e-06
-6.03355e-08
2.97003e-08
3.99213e-08
-2.44336e-06
-5.65706e-08
3.49803e-08
3.83376e-08
-2.76373e-06
-5.41676e-08
3.82637e-08
3.70975e-08
-3.08648e-06
-5.22567e-08
3.95948e-08
3.60067e-08
-3.41521e-06
-5.05906e-08
3.90014e-08
3.50096e-08
-3.75061e-06
-4.90923e-08
3.40984e-08
-4.09135e-06
-4.77634e-08
3.65188e-08
1.59465e-08
2.1734e-08
-1.71025e-06
2.81302e-08
1.93643e-08
-2.12535e-06
3.72159e-08
1.82862e-08
-2.45909e-06
4.36789e-08
1.7749e-08
-2.78167e-06
4.7691e-08
1.73761e-08
-3.10674e-06
4.93398e-08
1.70577e-08
-3.43791e-06
4.86796e-08
1.67679e-08
-3.77586e-06
1.65174e-08
-4.1193e-06
4.57287e-08
1.74228e-08
-7.27462e-09
-1.7177e-06
3.06469e-08
-6.92212e-09
-2.13413e-06
4.03241e-08
-6.2361e-09
-2.46919e-06
4.70424e-08
-5.56522e-09
-2.79309e-06
5.10472e-08
-4.94559e-09
-3.11948e-06
5.24884e-08
-4.39197e-09
-3.45196e-06
5.14759e-08
-3.90143e-09
-3.79124e-06
-3.46161e-09
-4.136e-06
4.80843e-08
1.82891e-08
-3.82875e-08
-1.72074e-06
3.20461e-08
-3.50319e-08
-2.13769e-06
4.20861e-08
-3.25228e-08
-2.47331e-06
4.90674e-08
-3.06341e-08
-2.79777e-06
5.32647e-08
-2.90176e-08
-3.12474e-06
5.48361e-08
-2.75746e-08
-3.45783e-06
5.38846e-08
-2.62642e-08
-3.79775e-06
-2.50592e-08
-4.1432e-06
5.04621e-08
1.7203e-08
-6.86347e-08
-1.71846e-06
3.0025e-08
-6.2661e-08
-2.13507e-06
3.93202e-08
-5.85542e-08
-2.47027e-06
4.5758e-08
-5.56836e-08
-2.79427e-06
4.96267e-08
-5.33222e-08
-3.12074e-06
5.10921e-08
-5.12543e-08
-3.4533e-06
5.02497e-08
-4.93893e-08
-3.79265e-06
-4.76919e-08
-4.1375e-06
4.71427e-08
1.50475e-08
-9.65851e-08
-1.71119e-06
2.60126e-08
-8.80815e-08
-2.12655e-06
3.40042e-08
-8.28389e-08
-2.46037e-06
3.96967e-08
-7.94521e-08
-2.78297e-06
4.33482e-08
-7.67812e-08
-3.10799e-06
4.50804e-08
-7.44788e-08
-3.43905e-06
4.49193e-08
-7.23804e-08
-3.77688e-06
-7.03911e-08
-4.1202e-06
4.2787e-08
8.38941e-09
-1.69813e-06
-1.16707e-07
1.3951e-08
-2.11143e-06
-1.06737e-07
1.75697e-08
-2.44247e-06
-1.01109e-07
1.99026e-08
-2.76202e-06
-9.79273e-08
2.12221e-08
-3.08368e-06
-9.56698e-08
2.17525e-08
-3.41104e-06
-9.39477e-08
2.15643e-08
-3.74485e-06
-9.24694e-08
-4.08383e-06
-9.1127e-08
2.06587e-08
1.10176e-08
3.5995e-08
-1.69277e-06
-5.28635e-08
1.96313e-08
3.1963e-08
-2.10522e-06
-4.71744e-08
2.61583e-08
2.99293e-08
-2.43574e-06
-4.40818e-08
3.08615e-08
2.8741e-08
-2.75504e-06
-4.21402e-08
3.38193e-08
2.78559e-08
-3.07666e-06
-4.06375e-08
3.50616e-08
2.71098e-08
-3.4042e-06
-3.93629e-08
3.46026e-08
2.64495e-08
-3.73835e-06
-3.82453e-08
2.58617e-08
-4.07777e-06
-3.72763e-08
3.24598e-08
1.38575e-08
1.43805e-08
-1.7025e-06
2.45378e-08
1.25425e-08
-2.11663e-06
3.25945e-08
1.18223e-08
-2.44905e-06
3.84113e-08
1.15335e-08
-2.7703e-06
4.21121e-08
1.13839e-08
-3.09399e-06
4.37451e-08
1.12824e-08
-3.42373e-06
4.33284e-08
1.1203e-08
-3.76021e-06
1.11497e-08
-4.10212e-06
4.08476e-08
1.51278e-08
-9.83467e-09
-1.70863e-06
2.67302e-08
-9.30934e-09
-2.12391e-06
3.53549e-08
-8.53206e-09
-2.45749e-06
4.14671e-08
-7.80212e-09
-2.77989e-06
4.52399e-08
-7.12441e-09
-3.10476e-06
4.67618e-08
-6.50721e-09
-3.4357e-06
4.60873e-08
-5.94896e-09
-3.77341e-06
-5.44094e-09
-4.11656e-06
4.32455e-08
1.58395e-08
-3.55635e-08
-1.71087e-06
2.78943e-08
-3.25082e-08
-2.12657e-06
3.68495e-08
-3.02035e-08
-2.46062e-06
4.32221e-08
-2.8468e-08
-2.78351e-06
4.72031e-08
-2.69831e-08
-3.10889e-06
4.8882e-08
-2.56586e-08
-3.44039e-06
4.83027e-08
-2.44576e-08
-3.77869e-06
-2.33555e-08
-4.12247e-06
4.54662e-08
1.48013e-08
-6.04128e-08
-1.70843e-06
2.59992e-08
-5.50063e-08
-2.1238e-06
3.42733e-08
-5.13549e-08
-2.45741e-06
4.01399e-08
-4.87918e-08
-2.77983e-06
4.37987e-08
-4.66866e-08
-3.1047e-06
4.53454e-08
-4.4849e-08
-3.43565e-06
4.48206e-08
-4.31989e-08
-3.77337e-06
-4.17036e-08
-4.11653e-06
4.22298e-08
1.28607e-08
-8.28952e-08
-1.70159e-06
2.24255e-08
-7.53294e-08
-2.11581e-06
2.95524e-08
-7.07125e-08
-2.44816e-06
3.47499e-08
-6.76944e-08
-2.76927e-06
3.81925e-08
-6.53167e-08
-3.0928e-06
3.99393e-08
-6.32776e-08
-3.42237e-06
3.9976e-08
-6.14387e-08
-3.75868e-06
-5.97168e-08
-4.10042e-06
3.8207e-08
7.2479e-09
-1.68979e-06
-9.84951e-08
1.22961e-08
-2.10214e-06
-8.9678e-08
1.57548e-08
-2.43199e-06
-8.46546e-08
1.80864e-08
-2.75038e-06
-8.16648e-08
1.94883e-08
-3.07089e-06
-7.94973e-08
2.01008e-08
-3.39712e-06
-7.77937e-08
1.99663e-08
-3.72978e-06
-7.63382e-08
-4.06759e-06
-7.50365e-08
1.90825e-08
9.66864e-09
2.65504e-08
-1.68801e-06
-4.09905e-08
1.72595e-08
2.31699e-08
-2.09983e-06
-3.61301e-08
2.30269e-08
2.1538e-08
-2.4295e-06
-3.35408e-08
2.71994e-08
2.06188e-08
-2.74788e-06
-3.19361e-08
2.98449e-08
1.99717e-08
-3.06854e-06
-3.07269e-08
3.09872e-08
1.94582e-08
-3.39506e-06
-2.97345e-08
3.06344e-08
1.90292e-08
-3.72812e-06
-2.8894e-08
1.8669e-08
-4.0664e-06
-2.81916e-08
2.87912e-08
1.1964e-08
8.45762e-09
-1.69637e-06
2.12479e-08
6.98963e-09
-2.10973e-06
2.82999e-08
6.50129e-09
-2.44107e-06
3.3438e-08
6.36333e-09
-2.76118e-06
3.67578e-08
6.34822e-09
-3.08368e-06
3.82876e-08
6.38145e-09
-3.41218e-06
3.80277e-08
6.43829e-09
-3.74735e-06
6.51882e-09
-4.08789e-06
3.59498e-08
1.29871e-08
-1.15869e-08
-1.70158e-06
2.30223e-08
-1.09887e-08
-2.11598e-06
3.05565e-08
-1.01971e-08
-2.44834e-06
3.59682e-08
-9.47008e-09
-2.76948e-06
3.93867e-08
-8.79159e-09
-3.09304e-06
4.08671e-08
-8.16467e-09
-3.42264e-06
4.04337e-08
-7.58836e-09
-3.75896e-06
-7.05644e-09
-4.10064e-06
3.80871e-08
1.35077e-08
-3.26699e-08
-1.70331e-06
2.38732e-08
-2.98645e-08
-2.11808e-06
3.16608e-08
-2.77836e-08
-2.45084e-06
3.7286e-08
-2.62167e-08
-2.7724e-06
4.08883e-08
-2.4876e-08
-3.09641e-06
4.25194e-08
-2.36796e-08
-3.4265e-06
4.2192e-08
-2.25942e-08
-3.76335e-06
-2.15974e-08
-4.10561e-06
3.98822e-08
1.25256e-08
-5.2746e-08
-1.7009e-06
2.21004e-08
-4.7902e-08
-2.11535e-06
2.92619e-08
-4.46788e-08
-2.44769e-06
3.44181e-08
-4.24104e-08
-2.7688e-06
3.77139e-08
-4.05503e-08
-3.09233e-06
3.92063e-08
-3.89321e-08
-3.4219e-06
3.89075e-08
-3.74855e-08
-3.75818e-06
-3.61802e-08
-4.09984e-06
3.68004e-08
1.07904e-08
-7.05674e-08
-1.69458e-06
1.89316e-08
-6.38755e-08
-2.10799e-06
2.50827e-08
-5.98246e-08
-2.43917e-06
2.96359e-08
-5.71523e-08
-2.75908e-06
3.27142e-08
-5.50488e-08
-3.08138e-06
3.43443e-08
-5.3255e-08
-3.40967e-06
3.44956e-08
-5.16535e-08
-3.74464e-06
-5.0172e-08
-4.08498e-06
3.30717e-08
6.1293e-09
-1.68399e-06
-8.24968e-08
1.05433e-08
-2.09571e-06
-7.47221e-08
1.36624e-08
-2.42467e-06
-7.02606e-08
1.58181e-08
-2.74217e-06
-6.75095e-08
1.71577e-08
-3.06178e-06
-6.54817e-08
1.77735e-08
-3.38711e-06
-6.38641e-08
1.76928e-08
-3.71885e-06
-6.24886e-08
-4.05569e-06
-6.12766e-08
1.69105e-08
8.47899e-09
1.85434e-08
-1.6842e-06
-3.08223e-08
1.51602e-08
1.56485e-08
-2.09552e-06
-2.65966e-08
2.024e-08
1.43084e-08
-2.42445e-06
-2.43949e-08
2.39233e-08
1.35773e-08
-2.74206e-06
-2.30459e-08
2.62734e-08
1.30953e-08
-3.06189e-06
-2.20584e-08
2.73146e-08
1.2746e-08
-3.38753e-06
-2.12804e-08
2.70546e-08
1.24843e-08
-3.71966e-06
-2.06526e-08
1.22938e-08
-4.05695e-06
-2.01586e-08
2.5493e-08
1.02714e-08
3.548e-09
-1.69163e-06
1.82806e-08
2.3325e-09
-2.10438e-06
2.43828e-08
1.99251e-09
-2.43482e-06
2.88511e-08
1.943e-09
-2.75398e-06
3.17671e-08
2.00648e-09
-3.07548e-06
3.31534e-08
2.12208e-09
-3.40291e-06
3.30055e-08
2.26696e-09
-3.73697e-06
2.43849e-09
-4.0763e-06
3.12913e-08
1.104e-08
-1.28212e-08
-1.69624e-06
1.96079e-08
-1.2219e-08
-2.10996e-06
2.60723e-08
-1.14596e-08
-2.44132e-06
3.07525e-08
-1.07707e-08
-2.76142e-06
3.37545e-08
-1.01229e-08
-3.08389e-06
3.51201e-08
-9.51516e-09
-3.41235e-06
3.48617e-08
-8.94665e-09
-3.74747e-06
-8.41277e-09
-4.08788e-06
3.29679e-08
1.13645e-08
-2.98052e-08
-1.69769e-06
2.01285e-08
-2.72724e-08
-2.11177e-06
2.67515e-08
-2.54178e-08
-2.44349e-06
3.15785e-08
-2.40222e-08
-2.76396e-06
3.47217e-08
-2.28276e-08
-3.08684e-06
3.6218e-08
-2.17606e-08
-3.41574e-06
3.60691e-08
-2.0791e-08
-3.75135e-06
-1.98985e-08
-4.09229e-06
3.42407e-08
1.04419e-08
-4.57183e-08
-1.69542e-06
1.84721e-08
-4.14085e-08
-2.10923e-06
2.45152e-08
-3.85784e-08
-2.44056e-06
2.89052e-08
-3.65835e-08
-2.76061e-06
3.17575e-08
-3.49508e-08
-3.08304e-06
3.31137e-08
-3.35353e-08
-3.41147e-06
3.29773e-08
-3.22753e-08
-3.74655e-06
-3.11432e-08
-4.08693e-06
3.13239e-08
8.90417e-09
-5.95479e-08
-1.68965e-06
1.56819e-08
-5.36482e-08
-2.10251e-06
2.08392e-08
-5.01033e-08
-2.43278e-06
2.46891e-08
-4.77488e-08
-2.75175e-06
2.73279e-08
-4.58987e-08
-3.07305e-06
2.87726e-08
-4.43317e-08
-3.4003e-06
2.89931e-08
-4.29475e-08
-3.73418e-06
-4.1684e-08
-4.07334e-06
2.79024e-08
5.08481e-09
-1.68017e-06
-6.84474e-08
8.82351e-09
-2.09148e-06
-6.15954e-08
1.15068e-08
-2.41979e-06
-5.76481e-08
1.33849e-08
-2.73662e-06
-5.51541e-08
1.45741e-08
-3.05556e-06
-5.32944e-08
1.51437e-08
-3.38019e-06
-5.18021e-08
1.51167e-08
-3.71122e-06
-5.05416e-08
-4.04729e-06
-4.94479e-08
1.44905e-08
7.43087e-09
1.15515e-08
-1.68131e-06
-2.18585e-08
1.32869e-08
9.01731e-09
-2.09219e-06
-1.81256e-08
1.77293e-08
7.8928e-09
-2.42049e-06
-1.62308e-08
2.09491e-08
7.29657e-09
-2.73744e-06
-1.50833e-08
2.30127e-08
6.93314e-09
-3.05657e-06
-1.42719e-08
2.39524e-08
6.70447e-09
-3.38147e-06
-1.36668e-08
2.3783e-08
6.56948e-09
-3.71281e-06
-1.32139e-08
6.51209e-09
-4.04926e-06
-1.2895e-08
2.25042e-08
8.76797e-09
-6.57874e-10
-1.68814e-06
1.56106e-08
-1.71881e-09
-2.10042e-06
2.08157e-08
-1.96743e-09
-2.43011e-06
2.46281e-08
-1.96889e-09
-2.74848e-06
2.71287e-08
-1.86089e-09
-3.06914e-06
2.83475e-08
-1.69351e-09
-3.3957e-06
2.8288e-08
-1.48813e-09
-3.72882e-06
-1.24787e-09
-4.06715e-06
2.6923e-08
9.2963e-09
-1.37658e-08
-1.69239e-06
1.64976e-08
-1.32061e-08
-2.10562e-06
2.19275e-08
-1.25056e-08
-2.43617e-06
2.58655e-08
-1.18738e-08
-2.75541e-06
2.84127e-08
-1.12734e-08
-3.07699e-06
2.96142e-08
-1.07004e-08
-3.40452e-06
2.9486e-08
-1.01537e-08
-3.73865e-06
-9.62982e-09
-4.07802e-06
2.80168e-08
9.42926e-09
-2.71031e-08
-1.69375e-06
1.66954e-08
-2.48467e-08
-2.10735e-06
2.21823e-08
-2.32097e-08
-2.43823e-06
2.61895e-08
-2.19785e-08
-2.75782e-06
2.88229e-08
-2.09239e-08
-3.07979e-06
3.01246e-08
-1.99799e-08
-3.40774e-06
3.01023e-08
-1.91195e-08
-3.74235e-06
-1.83243e-08
-4.08222e-06
2.87249e-08
8.56605e-09
-3.93484e-08
-1.69172e-06
1.51491e-08
-3.55322e-08
-2.10509e-06
2.00962e-08
-3.30571e-08
-2.43562e-06
2.36948e-08
-3.13116e-08
-2.75485e-06
2.60531e-08
-2.98865e-08
-3.07641e-06
2.72177e-08
-2.86558e-08
-3.40394e-06
2.71994e-08
-2.75652e-08
-3.73808e-06
-2.65896e-08
-4.07745e-06
2.59778e-08
7.217e-09
-4.9716e-08
-1.68648e-06
1.27145e-08
-4.45209e-08
-2.09898e-06
1.6891e-08
-4.14241e-08
-2.42856e-06
2.00106e-08
-3.93572e-08
-2.7468e-06
2.21647e-08
-3.77379e-08
-3.06734e-06
2.338e-08
-3.63776e-08
-3.39378e-06
2.36416e-08
-3.51907e-08
-3.72681e-06
-3.41234e-08
-4.06505e-06
2.28801e-08
4.12902e-09
-1.67795e-06
-5.60475e-08
7.18033e-09
-2.08901e-06
-5.00015e-08
9.36758e-09
-2.41685e-06
-4.65206e-08
1.08953e-08
-2.7332e-06
-4.42846e-08
1.18685e-08
-3.05165e-06
-4.26072e-08
1.2354e-08
-3.37579e-06
-4.12624e-08
1.23821e-08
-3.7063e-06
-4.01383e-08
-4.04182e-06
-3.91808e-08
1.1956e-08
6.51043e-09
5.23184e-09
-1.67931e-06
-1.37173e-08
1.15909e-08
2.96814e-09
-2.0898e-06
-1.03728e-08
1.54112e-08
2.00618e-09
-2.41754e-06
-8.72703e-09
1.81586e-08
1.50772e-09
-2.7339e-06
-7.74354e-09
1.9915e-08
1.23053e-09
-3.05244e-06
-7.0781e-09
2.07339e-08
1.09287e-09
-3.37673e-06
-6.62001e-09
2.06466e-08
1.05792e-09
-3.70745e-06
-6.31986e-09
1.11138e-09
-4.04323e-06
-6.15795e-09
1.96603e-08
7.44243e-09
-4.47711e-09
-1.68583e-06
1.31877e-08
-5.42171e-09
-2.09772e-06
1.7516e-08
-5.61597e-09
-2.42676e-06
2.06583e-08
-5.59498e-09
-2.74448e-06
2.27121e-08
-5.4676e-09
-3.06447e-06
2.37306e-08
-5.27251e-09
-3.39033e-06
2.37387e-08
-5.02903e-09
-3.72274e-06
-4.74118e-09
-4.06029e-06
2.27229e-08
7.72214e-09
-1.46038e-08
-1.68995e-06
1.36372e-08
-1.41121e-08
-2.10279e-06
1.80475e-08
-1.34829e-08
-2.43266e-06
2.1216e-08
-1.29162e-08
-2.75122e-06
2.32581e-08
-1.23702e-08
-3.0721e-06
2.4243e-08
-1.18384e-08
-3.39892e-06
2.42084e-08
-1.13196e-08
-3.73233e-06
-1.08108e-08
-4.07091e-06
2.31536e-08
7.68468e-09
-2.46491e-08
-1.69135e-06
1.35322e-08
-2.26601e-08
-2.10459e-06
1.78918e-08
-2.12258e-08
-2.4348e-06
2.10422e-08
-2.01477e-08
-2.7537e-06
2.31056e-08
-1.92228e-08
-3.07497e-06
2.41507e-08
-1.83922e-08
-3.40222e-06
2.42108e-08
-1.76318e-08
-3.73611e-06
-1.69248e-08
-4.07519e-06
2.32702e-08
6.87806e-09
-3.36094e-08
-1.6896e-06
1.20863e-08
-3.0241e-08
-2.10266e-06
1.59385e-08
-2.80829e-08
-2.43258e-06
1.87031e-08
-2.65614e-08
-2.75117e-06
2.05044e-08
-2.53229e-08
-3.0721e-06
2.14158e-08
-2.42582e-08
-3.39898e-06
2.14748e-08
-2.33197e-08
-3.73247e-06
-2.24845e-08
-4.07113e-06
2.06764e-08
5.70993e-09
-4.09177e-08
-1.68485e-06
9.98918e-09
-3.63413e-08
-2.09711e-06
1.31806e-08
-3.36392e-08
-2.42616e-06
1.55282e-08
-3.18296e-08
-2.74385e-06
1.71416e-08
-3.04185e-08
-3.06384e-06
1.80778e-08
-2.92453e-08
-3.38973e-06
1.8354e-08
-2.82362e-08
-3.7222e-06
-2.73454e-08
-4.05981e-06
1.79271e-08
3.25141e-09
-1.67709e-06
-4.49978e-08
5.59487e-09
-2.08801e-06
-3.96506e-08
7.21817e-09
-2.41549e-06
-3.65891e-08
8.3111e-09
-2.7315e-06
-3.46014e-08
8.98955e-09
-3.04963e-06
-3.31092e-08
9.33927e-09
-3.37347e-06
-3.19213e-08
9.41277e-09
-3.70369e-06
-3.09441e-08
-4.03889e-06
-3.01317e-08
9.22625e-09
5.69942e-09
-7.01165e-10
-1.67818e-06
-6.10004e-09
1.001e-08
-2.73854e-09
-2.08827e-06
-3.06805e-09
1.31685e-08
-3.5689e-09
-2.41546e-06
-1.6325e-09
1.53753e-08
-3.98645e-09
-2.73131e-06
-7.92235e-10
1.67476e-08
-4.18738e-09
-3.04935e-06
-2.63332e-10
1.73886e-08
-4.24227e-09
-3.37318e-06
4.17536e-11
1.7348e-08
-4.18458e-09
-3.70346e-06
2.04829e-10
-4.02937e-09
-4.03878e-06
2.17831e-10
1.66586e-08
6.23583e-09
-8.07979e-09
-1.68465e-06
1.09101e-08
-8.95235e-09
-2.09615e-06
1.43247e-08
-9.11282e-09
-2.42461e-06
1.67255e-08
-9.08336e-09
-2.74177e-06
1.82514e-08
-8.94567e-09
-3.06124e-06
1.90034e-08
-8.7312e-09
-3.38661e-06
1.90504e-08
-8.45672e-09
-3.71855e-06
-8.12583e-09
-4.05561e-06
1.84047e-08
6.28346e-09
-1.54631e-08
-1.68882e-06
1.09291e-08
-1.50557e-08
-2.1013e-06
1.42691e-08
-1.45027e-08
-2.43059e-06
1.65775e-08
-1.40034e-08
-2.7486e-06
1.8013e-08
-1.35136e-08
-3.06897e-06
1.8695e-08
-1.30247e-08
-3.39533e-06
1.87082e-08
-1.25354e-08
-3.7283e-06
-1.20426e-08
-4.06643e-06
1.80794e-08
6.08773e-09
-2.24875e-08
-1.69038e-06
1.05352e-08
-2.07506e-08
-2.10331e-06
1.37111e-08
-1.9502e-08
-2.43295e-06
1.5906e-08
-1.85638e-08
-2.75132e-06
1.72876e-08
-1.77571e-08
-3.07211e-06
1.79802e-08
-1.70293e-08
-3.39893e-06
1.80695e-08
-1.63588e-08
-3.73241e-06
-1.57305e-08
-4.07108e-06
1.7574e-08
5.33021e-09
-2.84445e-08
-1.68894e-06
9.17345e-09
-2.54782e-08
-2.10173e-06
1.18654e-08
-2.36013e-08
-2.43114e-06
1.36895e-08
-2.2279e-08
-2.74926e-06
1.48165e-08
-2.12068e-08
-3.06977e-06
1.53762e-08
-2.029e-08
-3.3963e-06
1.54597e-08
-1.9487e-08
-3.72946e-06
-1.87771e-08
-4.06779e-06
1.50964e-08
4.33614e-09
-3.29836e-08
-1.68461e-06
7.39993e-09
-2.89469e-08
-2.09667e-06
9.53843e-09
-2.65913e-08
-2.42528e-06
1.10106e-08
-2.50101e-08
-2.74258e-06
1.19738e-08
-2.37853e-08
-3.06223e-06
1.25435e-08
-2.27799e-08
-3.38783e-06
1.27943e-08
-2.19305e-08
-3.72004e-06
-2.11984e-08
-4.05738e-06
1.27258e-08
2.42001e-09
-1.67745e-06
-3.50153e-08
3.99295e-09
-2.08822e-06
-3.02726e-08
4.93429e-09
-2.41542e-06
-2.7586e-08
5.45416e-09
-2.73119e-06
-2.58306e-08
5.70802e-09
-3.04915e-06
-2.45187e-08
5.8292e-09
-3.3729e-06
-2.34885e-08
5.91658e-09
-3.70309e-06
-2.26607e-08
-4.03825e-06
-2.19966e-08
6.01486e-09
4.9333e-09
-6.40559e-09
-1.67791e-06
1.21229e-09
8.42178e-09
-8.30303e-09
-2.08745e-06
4.01197e-09
1.07979e-08
-9.03278e-09
-2.41408e-06
5.27528e-09
1.23116e-08
-9.39013e-09
-2.72944e-06
6.00417e-09
1.31478e-08
-9.53479e-09
-3.04711e-06
6.4357e-09
1.3472e-08
-9.52242e-09
-3.37067e-06
6.65028e-09
1.34176e-08
-9.38357e-09
-3.70077e-06
6.68898e-09
-9.13178e-09
-4.03594e-06
6.571e-09
1.30518e-08
5.11087e-09
-1.16344e-08
-1.68453e-06
8.6472e-09
-1.24699e-08
-2.09551e-06
1.10081e-08
-1.26145e-08
-2.42339e-06
1.24931e-08
-1.25862e-08
-2.74008e-06
1.3317e-08
-1.24467e-08
-3.05918e-06
1.36658e-08
-1.22194e-08
-3.38431e-06
1.36875e-08
-1.19186e-08
-3.7161e-06
-1.1547e-08
-4.05304e-06
1.34477e-08
4.91518e-09
-1.64466e-08
-1.68892e-06
8.21554e-09
-1.6132e-08
-2.10093e-06
1.03241e-08
-1.56558e-08
-2.42966e-06
1.15731e-08
-1.52233e-08
-2.74722e-06
1.22038e-08
-1.47892e-08
-3.06729e-06
1.24274e-08
-1.4343e-08
-3.39347e-06
1.24145e-08
-1.38826e-08
-3.72638e-06
-1.34043e-08
-4.06448e-06
1.2251e-08
4.5647e-09
-2.06387e-08
-1.69075e-06
7.52954e-09
-1.91353e-08
-2.10325e-06
9.34976e-09
-1.8055e-08
-2.43236e-06
1.03765e-08
-1.72434e-08
-2.75033e-06
1.08651e-08
-1.65438e-08
-3.07086e-06
1.10389e-08
-1.59086e-08
-3.39757e-06
1.10771e-08
-1.53184e-08
-3.73106e-06
-1.47595e-08
-4.06978e-06
1.10661e-08
3.84558e-09
-2.37802e-08
-1.68963e-06
6.22868e-09
-2.11732e-08
-2.10205e-06
7.57685e-09
-1.95452e-08
-2.43098e-06
8.23711e-09
-1.83991e-08
-2.74876e-06
8.47049e-09
-1.74742e-08
-3.06908e-06
8.50732e-09
-1.66884e-08
-3.39558e-06
8.534e-09
-1.60055e-08
-3.72884e-06
-1.54071e-08
-4.06731e-06
8.64952e-09
3.02053e-09
-2.57406e-08
-1.68565e-06
4.76993e-09
-2.21746e-08
-2.09738e-06
5.67176e-09
-2.01232e-08
-2.42558e-06
6.04946e-09
-1.87441e-08
-2.7426e-06
6.15201e-09
-1.76847e-08
-3.06212e-06
6.19531e-09
-1.68286e-08
-3.38775e-06
6.3514e-09
-1.61219e-08
-3.72011e-06
-1.55322e-08
-4.05765e-06
6.69605e-09
1.5793e-09
-1.67891e-06
-2.58388e-08
2.23551e-09
-2.0894e-06
-2.16204e-08
2.27519e-09
-2.41629e-06
-1.92676e-08
1.97763e-09
-2.7319e-06
-1.77263e-08
1.58118e-09
-3.04985e-06
-1.65841e-08
1.30883e-09
-3.37376e-06
-1.57058e-08
1.34577e-09
-3.70425e-06
-1.50241e-08
-4.03978e-06
-1.45067e-08
1.79819e-09
4.1392e-09
-1.21371e-08
-1.67839e-06
8.47845e-09
6.62923e-09
-1.39089e-08
-2.08709e-06
1.10586e-08
7.95351e-09
-1.45571e-08
-2.41302e-06
1.21732e-08
8.47221e-09
-1.48683e-08
-2.72791e-06
1.2803e-08
8.48777e-09
-1.49681e-08
-3.04532e-06
1.31408e-08
8.28919e-09
-1.48996e-08
-3.36886e-06
1.32522e-08
8.12793e-09
-1.4689e-08
-3.69913e-06
1.31757e-08
-1.43473e-08
-4.03459e-06
1.29278e-08
8.1593e-09
3.96136e-09
-1.53032e-08
-1.68532e-06
6.1685e-09
-1.61149e-08
-2.09551e-06
7.18428e-09
-1.62513e-08
-2.42272e-06
7.42325e-09
-1.62302e-08
-2.73897e-06
7.23386e-09
-1.60954e-08
-3.05788e-06
6.94092e-09
-1.58612e-08
-3.38309e-06
6.82636e-09
-1.55386e-08
-3.71517e-06
-1.51281e-08
-4.05254e-06
7.06015e-09
3.51212e-09
-1.7644e-08
-1.69009e-06
5.24383e-09
-1.74191e-08
-2.10136e-06
5.7938e-09
-1.70162e-08
-2.42945e-06
5.61208e-09
-1.66486e-08
-2.74663e-06
5.09029e-09
-1.62692e-08
-3.06661e-06
4.58939e-09
-1.58652e-08
-3.39299e-06
4.42493e-09
-1.54329e-08
-3.72636e-06
-1.49672e-08
-4.06506e-06
4.79794e-09
3.00383e-09
-1.91108e-08
-1.69228e-06
4.24224e-09
-1.78183e-08
-2.10408e-06
4.35423e-09
-1.68894e-08
-2.4326e-06
3.82017e-09
-1.61925e-08
-2.75026e-06
3.04813e-09
-1.55897e-08
-3.07078e-06
2.4216e-09
-1.50379e-08
-3.39779e-06
2.27559e-09
-1.45191e-08
-3.73185e-06
-1.40209e-08
-4.0713e-06
2.82362e-09
2.31337e-09
-1.95377e-08
-1.69151e-06
2.97252e-09
-1.72498e-08
-2.10326e-06
2.60524e-09
-1.58424e-08
-2.43164e-06
1.69629e-09
-1.48523e-08
-2.74917e-06
6.57078e-10
-1.40569e-08
-3.06957e-06
-1.18683e-10
-1.33864e-08
-3.39645e-06
-2.83233e-10
-1.28091e-08
-3.73039e-06
-1.23093e-08
-4.0697e-06
3.91381e-10
1.65792e-09
-1.90195e-08
-1.68781e-06
1.8248e-09
-1.58679e-08
-2.09889e-06
1.11813e-09
-1.40842e-08
-2.4266e-06
5.81776e-12
-1.28844e-08
-2.74343e-06
-1.11851e-09
-1.19711e-08
-3.06306e-06
-1.87634e-09
-1.1247e-08
-3.38912e-06
-1.93672e-09
-1.06665e-08
-3.72218e-06
-1.02038e-08
-4.06059e-06
-1.09185e-09
6.51253e-10
-1.68133e-06
-1.72303e-08
8.41975e-11
-2.09119e-06
-1.34693e-08
-1.16935e-09
-2.41767e-06
-1.14165e-08
-2.68772e-09
-2.73316e-06
-1.00691e-08
-4.10315e-09
-3.0513e-06
-9.08142e-09
-5.041e-09
-3.37571e-06
-8.34425e-09
-5.17079e-09
-3.70697e-06
-7.80067e-09
-4.04345e-06
-7.42362e-09
-4.26937e-09
3.21353e-09
-1.80423e-08
-1.67939e-06
1.58289e-08
4.3444e-09
-1.96993e-08
-2.08674e-06
1.82242e-08
4.1462e-09
-2.02782e-08
-2.41175e-06
1.92098e-08
3.16621e-09
-2.05549e-08
-2.72613e-06
1.97576e-08
1.89699e-09
-2.06224e-08
-3.04344e-06
2.00174e-08
8.22604e-10
-2.05095e-08
-3.3673e-06
2.00393e-08
3.85883e-10
-2.0237e-08
-3.6983e-06
1.9857e-08
-1.9811e-08
-4.03476e-06
1.94838e-08
9.04736e-10
2.66163e-09
-1.92105e-08
-1.68681e-06
3.13443e-09
-1.99972e-08
-2.09568e-06
2.28075e-09
-2.01324e-08
-2.42201e-06
7.18623e-10
-2.01206e-08
-2.73783e-06
-9.96954e-10
-1.99999e-08
-3.05678e-06
-2.32328e-09
-1.97674e-08
-3.38249e-06
-2.76727e-09
-1.94293e-08
-3.71552e-06
-1.89824e-08
-4.05414e-06
-1.97551e-09
1.93593e-09
-1.91268e-08
-1.6921e-06
1.62591e-09
-1.89783e-08
-2.10205e-06
7.64933e-12
-1.86409e-08
-2.42931e-06
-2.19363e-09
-1.83418e-08
-2.7462e-06
-4.42113e-09
-1.80159e-08
-3.06636e-06
-6.07548e-09
-1.76543e-08
-3.39344e-06
-6.6064e-09
-1.72502e-08
-3.72799e-06
-1.67957e-08
-4.06822e-06
-5.6092e-09
1.25736e-09
-1.79042e-08
-1.69475e-06
2.58818e-10
-1.67954e-08
-2.10524e-06
-1.96619e-09
-1.60023e-08
-2.43299e-06
-4.70188e-09
-1.54109e-08
-2.75044e-06
-7.32345e-09
-1.48952e-08
-3.07127e-06
-9.20372e-09
-1.44183e-08
-3.39913e-06
-9.76021e-09
-1.39633e-08
-3.73456e-06
-1.3518e-08
-4.07575e-06
-8.55978e-09
5.73939e-10
-1.56406e-08
-1.69433e-06
-1.021e-09
-1.36327e-08
-2.10479e-06
-3.74676e-09
-1.24224e-08
-2.43247e-06
-6.88352e-09
-1.15705e-08
-2.74985e-06
-9.79702e-09
-1.08874e-08
-3.07064e-06
-1.18461e-08
-1.03157e-08
-3.39848e-06
-1.24339e-08
-9.82869e-09
-3.7339e-06
-9.41409e-09
-4.07509e-06
-1.11068e-08
6.87509e-11
-1.26638e-08
-1.69083e-06
-1.86116e-09
-9.8859e-09
-2.10066e-06
-4.80034e-09
-8.34163e-09
-2.42771e-06
-8.05193e-09
-7.29911e-09
-2.74441e-06
-1.09946e-08
-6.51127e-09
-3.06445e-06
-1.30053e-08
-5.89969e-09
-3.39148e-06
-1.35049e-08
-5.42698e-09
-3.72604e-06
-5.0748e-09
-4.06632e-06
-1.20597e-08
-5.31563e-10
-1.68446e-06
-8.97159e-09
-2.82837e-09
-2.09308e-06
-5.63315e-09
-5.99201e-09
-2.41894e-06
-3.84979e-09
-9.37995e-09
-2.73435e-06
-2.67824e-09
-1.23994e-08
-3.05291e-06
-1.83427e-09
-1.44481e-08
-3.37829e-06
-1.2298e-09
-1.49618e-08
-3.71102e-06
-8.18443e-10
-4.04935e-06
-5.77745e-10
-1.35123e-08
1.99772e-09
-2.42516e-08
-1.68055e-06
2.34181e-08
1.13193e-09
-2.57801e-08
-2.08571e-06
2.56316e-08
-1.35583e-09
-2.62998e-08
-2.40945e-06
2.65055e-08
-4.60483e-09
-2.65602e-08
-2.72328e-06
2.69883e-08
-7.86899e-09
-2.66098e-08
-3.04072e-06
2.71882e-08
-1.03749e-08
-2.64663e-08
-3.36542e-06
2.7135e-08
-1.13853e-08
-2.6142e-08
-3.69795e-06
2.68559e-08
-2.56364e-08
-4.03649e-06
2.63595e-08
-1.03113e-08
1.02562e-09
-2.34658e-08
-1.68861e-06
-9.55865e-10
-2.41955e-08
-2.09526e-06
-4.5192e-09
-2.43339e-08
-2.42038e-06
-8.73178e-09
-2.43532e-08
-2.7358e-06
-1.27526e-08
-2.42538e-08
-3.05508e-06
-1.57271e-08
-2.4031e-08
-3.38191e-06
-1.68353e-08
-2.36843e-08
-3.71682e-06
-2.32037e-08
-4.05793e-06
-1.54188e-08
-8.30712e-11
-2.09466e-08
-1.69452e-06
-3.1914e-09
-2.0862e-08
-2.10225e-06
-7.83755e-09
-2.05869e-08
-2.42839e-06
-1.30207e-08
-2.03457e-08
-2.745e-06
-1.78182e-08
-2.00771e-08
-3.06571e-06
-2.12996e-08
-1.97602e-08
-3.3942e-06
-2.25642e-08
-1.93853e-08
-3.73099e-06
-1.89404e-08
-4.07413e-06
-2.08751e-08
-9.81906e-10
-1.7004e-08
-1.69769e-06
-5.03807e-09
-1.60679e-08
-2.10596e-06
-1.05464e-08
-1.53931e-08
-2.43266e-06
-1.64641e-08
-1.48931e-08
-2.74995e-06
-2.18327e-08
-1.44559e-08
-3.07149e-06
-2.56704e-08
-1.40455e-08
-3.40098e-06
-2.70215e-08
-1.36458e-08
-3.73891e-06
-1.3245e-08
-4.08332e-06
-2.50983e-08
-1.68335e-09
-1.20026e-08
-1.69763e-06
-6.38289e-09
-1.02661e-08
-2.10587e-06
-1.24386e-08
-9.22507e-09
-2.43256e-06
-1.88025e-08
-8.48886e-09
-2.74987e-06
-2.45055e-08
-7.89938e-09
-3.07146e-06
-2.85466e-08
-7.40882e-09
-3.40104e-06
-2.99486e-08
-6.99565e-09
-3.73911e-06
-6.65194e-09
-4.08368e-06
-2.78975e-08
-2.0003e-09
-6.54538e-09
-1.69426e-06
-6.89224e-09
-4.10695e-09
-2.10189e-06
-1.30307e-08
-2.77024e-09
-2.42799e-06
-1.94021e-08
-1.85488e-09
-2.74464e-06
-2.50596e-08
-1.16305e-09
-3.0655e-06
-2.90248e-08
-6.33446e-10
-3.39425e-06
-3.03466e-08
-2.3553e-10
-3.73144e-06
3.51765e-11
-4.07508e-06
-2.82359e-08
-2.20033e-09
-1.68785e-06
-9.23547e-10
-7.06297e-09
-2.09431e-06
2.03423e-09
-1.30735e-08
-2.41925e-06
3.58627e-09
-1.92787e-08
-2.73458e-06
4.6249e-09
-2.47754e-08
-3.05391e-06
5.37213e-09
-2.86242e-08
-3.38093e-06
5.89547e-09
-2.99051e-08
-3.71617e-06
6.22841e-09
-4.05772e-06
6.37878e-09
-2.78551e-08
1.85312e-10
-3.08469e-08
-1.68124e-06
3.1359e-08
-3.63611e-09
-3.22317e-08
-2.083e-06
3.33503e-08
-9.50373e-09
-3.27005e-08
-2.40501e-06
3.41348e-08
-1.61595e-08
-3.29548e-08
-2.71824e-06
3.45734e-08
-2.24618e-08
-3.30021e-08
-3.03613e-06
3.47258e-08
-2.7235e-08
-3.284e-08
-3.3624e-06
3.4607e-08
-2.93108e-08
-3.24705e-08
-3.69763e-06
3.42338e-08
-3.18835e-08
-4.03983e-06
3.36088e-08
-2.76835e-08
-1.31544e-09
-2.81135e-08
-1.69002e-06
-6.81515e-09
-2.87943e-08
-2.09319e-06
-1.42904e-08
-2.89284e-08
-2.41668e-06
-2.2381e-08
-2.89784e-08
-2.73168e-06
-2.98406e-08
-2.8911e-08
-3.05171e-06
-3.53722e-08
-2.87065e-08
-3.3805e-06
-3.76805e-08
-2.83548e-08
-3.71862e-06
-2.7838e-08
-4.064e-06
-3.56376e-08
-2.84267e-09
-2.31484e-08
-1.69664e-06
-9.97526e-09
-2.30971e-08
-2.10081e-06
-1.89885e-08
-2.28749e-08
-2.42543e-06
-2.84555e-08
-2.26928e-08
-2.74182e-06
-3.70378e-08
-2.248e-08
-3.06356e-06
-4.33283e-08
-2.22068e-08
-3.3944e-06
-4.591e-08
-2.18579e-08
-3.73489e-06
-2.14167e-08
-4.08291e-06
-4.35339e-08
-4.0715e-09
-1.64144e-08
-1.70035e-06
-1.2451e-08
-1.56197e-08
-2.10506e-06
-2.26202e-08
-1.50466e-08
-2.43032e-06
-3.31011e-08
-1.46263e-08
-2.74754e-06
-4.24947e-08
-1.42563e-08
-3.07033e-06
-4.93208e-08
-1.39012e-08
-3.40245e-06
-5.20806e-08
-1.3545e-08
-3.74446e-06
-1.31764e-08
-4.09419e-06
-4.94448e-08
-4.84393e-09
-8.57551e-09
-1.70061e-06
-1.39282e-08
-7.0853e-09
-2.10532e-06
-2.47136e-08
-6.19475e-09
-2.43063e-06
-3.57113e-08
-5.55623e-09
-2.74795e-06
-4.55035e-08
-5.04212e-09
-3.07089e-06
-5.25845e-08
-4.61407e-09
-3.40325e-06
-5.54256e-08
-4.2564e-09
-3.74557e-06
-3.96604e-09
-4.09566e-06
-5.26642e-08
-4.99266e-09
-5.1199e-10
-1.69732e-06
-1.40827e-08
1.56376e-09
-2.10146e-06
-2.47959e-08
2.70596e-09
-2.42618e-06
-3.56757e-08
3.50706e-09
-2.74283e-06
-4.53306e-08
4.11256e-09
-3.06501e-06
-5.22836e-08
4.56554e-09
-3.39649e-06
-5.50371e-08
4.88459e-09
-3.73784e-06
5.07097e-09
-4.08691e-06
-5.22595e-08
-4.72544e-09
-1.69073e-06
7.11187e-09
-1.33601e-08
-2.09379e-06
9.67919e-09
-2.35553e-08
-2.41736e-06
1.10177e-08
-3.39246e-08
-2.73265e-06
1.19405e-08
-4.31401e-08
-3.0532e-06
1.26069e-08
-4.97892e-08
-3.38279e-06
1.30618e-08
-5.24394e-08
-3.72199e-06
1.33266e-08
-4.06871e-06
1.33975e-08
-4.98165e-08
-2.55671e-09
-3.78746e-08
3.96624e-08
-1.68046e-06
-1.07651e-08
-3.90787e-08
4.14294e-08
-2.0772e-06
-2.15405e-08
-3.94965e-08
4.21142e-08
-2.39691e-06
-3.31252e-08
-3.97529e-08
4.25168e-08
-2.70947e-06
-4.38883e-08
-3.98032e-08
4.26286e-08
-3.02825e-06
-5.20996e-08
-3.96208e-08
4.24407e-08
-3.35707e-06
-5.59767e-08
-3.91939e-08
4.19584e-08
-3.69657e-06
-3.85007e-08