/*--------------------------------*- C++ -*----------------------------------*\
| =========                 |                                                 |
| \\      /  F ield         | OpenFOAM: The Open Source CFD Toolbox           |
|  \\    /   O peration     | Version:  plus.master.MPPICInterFoam            |
|   \\  /    A nd           | Web:      www.OpenFOAM.com                      |
|    \\/     M anipulation  |                                                 |
\*---------------------------------------------------------------------------*/
FoamFile
{
    version     2.0;
    format      ascii;
    class       volVectorField;
    location    "6.4";
    object      U;
}
// * * * * * * * * * * * * * * * * * * * * * * * * * * * * * * * * * * * * * //

dimensions      [0 1 -1 0 0 0 0];

internalField   nonuniform List<vector> 
11821
(
(0.000988412 0.0010607 -0.035651)
(0.00095507 0.000881181 -0.0387248)
(0.000948116 0.000762546 -0.0396283)
(0.000927746 0.000691811 -0.0400245)
(0.000897759 0.000641707 -0.0402277)
(0.000858044 0.00060587 -0.0403262)
(0.000810957 0.000580737 -0.0403492)
(0.000758904 0.00056449 -0.0402983)
(0.000526896 0.000773676 -0.0359797)
(0.000583351 0.000630847 -0.0390565)
(0.000629697 0.000541406 -0.0399651)
(0.000642098 0.000491015 -0.0403639)
(0.000634533 0.000458059 -0.040568)
(0.000610705 0.000436659 -0.0406666)
(0.000575028 0.000423691 -0.0406894)
(0.000530838 0.000417679 -0.0406383)
(0.000207232 0.000245096 -0.036196)
(0.000323756 0.000181168 -0.039277)
(0.000400694 0.000147154 -0.0401867)
(0.000430892 0.000131912 -0.0405843)
(0.000434152 0.000124768 -0.040786)
(0.000417142 0.000122528 -0.0408813)
(0.000385806 0.000123599 -0.0409001)
(0.000344275 0.000127335 -0.0408448)
(0.000155195 -0.000426101 -0.0362967)
(0.000287802 -0.000386652 -0.039379)
(0.000372646 -0.000350884 -0.0402887)
(0.00040609 -0.000321958 -0.0406855)
(0.000410718 -0.000296941 -0.040886)
(0.000394139 -0.000274924 -0.0409798)
(0.000362692 -0.000255351 -0.040997)
(0.000320506 -0.000237739 -0.0409405)
(0.000401962 -0.00108165 -0.0362642)
(0.000492041 -0.000946005 -0.0393456)
(0.00055152 -0.000845278 -0.0402533)
(0.000566305 -0.000776263 -0.0406483)
(0.000557602 -0.000722056 -0.0408469)
(0.000531401 -0.000677804 -0.040939)
(0.000493073 -0.000640854 -0.0409547)
(0.000446064 -0.000609685 -0.0408968)
(0.000936957 -0.00162061 -0.0361072)
(0.00093797 -0.00141478 -0.0391824)
(0.000948551 -0.00126997 -0.0400848)
(0.000932851 -0.00117984 -0.0404757)
(0.000905664 -0.00111289 -0.0406712)
(0.000868535 -0.00106085 -0.0407607)
(0.000824272 -0.00101896 -0.0407747)
(0.000774496 -0.00098476 -0.0407159)
(0.00157798 -0.00183728 -0.0358003)
(0.00145563 -0.00163507 -0.0388716)
(0.00138861 -0.0014937 -0.0397582)
(0.00132679 -0.00141136 -0.0401342)
(0.00127083 -0.00134694 -0.0403146)
(0.00121704 -0.00129352 -0.040389)
(0.0011646 -0.00124578 -0.0403882)
(0.00111297 -0.00120162 -0.0403155)
(0.000780672 0.000825875 -0.0354861)
(0.000760931 0.000674648 -0.0385633)
(0.000759747 0.00057824 -0.0394637)
(0.000747546 0.000521463 -0.0398577)
(0.000726599 0.000482884 -0.040059)
(0.00069702 0.000456841 -0.0401559)
(0.000660727 0.000440136 -0.0401778)
(0.000619615 0.000431056 -0.0401261)
(0.000408414 0.000572416 -0.0357522)
(0.000465048 0.000454169 -0.0388333)
(0.000509964 0.000383167 -0.0397401)
(0.00052611 0.000344307 -0.0401385)
(0.000524354 0.000320534 -0.0403434)
(0.000507882 0.00030685 -0.0404435)
(0.000480304 0.000300513 -0.0404684)
(0.000444351 0.000300161 -0.0404197)
(0.0001595 0.000122062 -0.0359242)
(0.000266584 7.31598e-05 -0.0390097)
(0.000337865 4.98905e-05 -0.039919)
(0.000368993 4.1559e-05 -0.0403183)
(0.000376049 4.00075e-05 -0.040523)
(0.000364608 4.26235e-05 -0.0406224)
(0.000339599 4.80157e-05 -0.0406458)
(0.000304474 5.55792e-05 -0.0405953)
(0.000135826 -0.000441156 -0.0359977)
(0.000255062 -0.000399863 -0.0390845)
(0.0003326 -0.000363643 -0.0399951)
(0.000365813 -0.000334369 -0.040395)
(0.000373319 -0.000308915 -0.0406002)
(0.000361384 -0.000286377 -0.0406998)
(0.000335245 -0.000266264 -0.0407236)
(0.000298392 -0.000248162 -0.0406736)
(0.000359222 -0.000984856 -0.0359532)
(0.000440179 -0.000859358 -0.0390397)
(0.000494491 -0.000767681 -0.0399487)
(0.000510782 -0.000704178 -0.040347)
(0.000506042 -0.000654174 -0.0405507)
(0.000485168 -0.00061339 -0.0406488)
(0.000452589 -0.000579514 -0.0406711)
(0.00041123 -0.000551187 -0.0406196)
(0.000817274 -0.00141912 -0.0357986)
(0.000820584 -0.00123309 -0.0388805)
(0.000831564 -0.00110443 -0.0397849)
(0.000821018 -0.00102287 -0.0401799)
(0.00079982 -0.000962258 -0.0403809)
(0.000769195 -0.0009154 -0.0404769)
(0.000731368 -0.00087823 -0.0404978)
(0.000687695 -0.000848574 -0.0404457)
(0.00135384 -0.00157802 -0.0355138)
(0.00125042 -0.00139403 -0.0385923)
(0.00119348 -0.00126773 -0.0394827)
(0.00114175 -0.00119141 -0.039864)
(0.00109393 -0.0011322 -0.0400509)
(0.00104721 -0.00108389 -0.0401324)
(0.00100085 -0.00104194 -0.040139)
(0.000954605 -0.00100449 -0.0400729)
(0.000612202 0.000635735 -0.0353514)
(0.000601164 0.000506968 -0.0384309)
(0.000603421 0.000427503 -0.0393285)
(0.000596438 0.000381285 -0.0397203)
(0.000581615 0.000351175 -0.0399196)
(0.000559233 0.000332192 -0.0400147)
(0.000530893 0.000321474 -0.0400349)
(0.000498137 0.000317428 -0.0399817)
(0.00031198 0.000411444 -0.0355713)
(0.000365768 0.000312859 -0.0386556)
(0.000407483 0.000255953 -0.0395598)
(0.000424831 0.000225702 -0.0399567)
(0.000426414 0.000208518 -0.0401606)
(0.000414993 0.000200163 -0.0402602)
(0.000393564 0.000198242 -0.0402848)
(0.000364371 0.000201521 -0.0402359)
(0.000119863 2.85041e-05 -0.0357108)
(0.000215692 -8.88133e-06 -0.0387998)
(0.000279757 -2.44513e-05 -0.0397073)
(0.000309589 -2.80989e-05 -0.040106)
(0.000318328 -2.60577e-05 -0.040311)
(0.000310655 -2.04489e-05 -0.0404113)
(0.000290669 -1.24675e-05 -0.0404361)
(0.000261258 -2.66326e-06 -0.040387)
(0.000116905 -0.000440333 -0.0357645)
(0.000221545 -0.000399539 -0.0388551)
(0.000290201 -0.000364557 -0.0397644)
(0.000321201 -0.000336288 -0.0401644)
(0.000329806 -0.000311596 -0.0403707)
(0.000321191 -0.000289607 -0.0404722)
(0.000299689 -0.000269884 -0.0404982)
(0.000268201 -0.000252069 -0.0404503)
(0.000316855 -0.000886649 -0.0357145)
(0.000387317 -0.000772796 -0.0388052)
(0.00043487 -0.000690796 -0.0397131)
(0.000450649 -0.000633521 -0.0401118)
(0.000448136 -0.000588307 -0.0403168)
(0.000431333 -0.000551407 -0.0404169)
(0.000403875 -0.000520815 -0.0404416)
(0.00036821 -0.000495332 -0.0403925)
(0.000705531 -0.00123164 -0.0355672)
(0.000708774 -0.00106615 -0.0386544)
(0.000718275 -0.000953395 -0.0395584)
(0.0007106 -0.000880826 -0.0399542)
(0.000693579 -0.000826779 -0.0401568)
(0.00066817 -0.00078507 -0.0402551)
(0.000636136 -0.000752247 -0.0402785)
(0.000598574 -0.000726413 -0.0402287)
(0.00115204 -0.00134512 -0.0353083)
(0.00106359 -0.00118036 -0.0383924)
(0.00101459 -0.00106935 -0.039284)
(0.000970684 -0.00100016 -0.0396677)
(0.000929785 -0.00094698 -0.0398577)
(0.00088939 -0.00090396 -0.0399428)
(0.000849017 -0.000867462 -0.0399529)
(0.000808495 -0.000835708 -0.0398901)
(0.000472178 0.000477976 -0.0352411)
(0.000466585 0.000367287 -0.0383223)
(0.000470849 0.00030107 -0.0392173)
(0.000467301 0.000263061 -0.0396069)
(0.000456825 0.000239363 -0.039804)
(0.000439821 0.000225604 -0.0398971)
(0.00041765 0.000219226 -0.0399154)
(0.00039158 0.000218767 -0.0398603)
(0.000232106 0.00028001 -0.0354276)
(0.000281413 0.000197177 -0.0385143)
(0.000319114 0.000151221 -0.0394157)
(0.000336212 0.000127535 -0.0398103)
(0.000339606 0.000115206 -0.0400123)
(0.000331713 0.000110636 -0.0401102)
(0.000315042 0.000111733 -0.0401333)
(0.000291459 0.000117389 -0.0400829)
(8.67587e-05 -4.37278e-05 -0.0355441)
(0.000170883 -7.24495e-05 -0.0386359)
(0.000227234 -8.25344e-05 -0.0395407)
(0.000254611 -8.30598e-05 -0.0399375)
(0.000263786 -7.87835e-05 -0.0401412)
(0.000258726 -7.14229e-05 -0.0402404)
(0.000242849 -6.19974e-05 -0.0402645)
(0.000218557 -5.09936e-05 -0.0402148)
(9.92213e-05 -0.000429902 -0.0355845)
(0.000189377 -0.000391106 -0.0386783)
(0.000248736 -0.000358333 -0.039585)
(0.00027648 -0.000331838 -0.0399834)
(0.000285058 -0.000308592 -0.0401887)
(0.000278775 -0.000287766 -0.0402896)
(0.000261211 -0.000268969 -0.0403154)
(0.000234771 -0.000251889 -0.0402672)
(0.000276683 -0.000791272 -0.0355333)
(0.000336526 -0.000689481 -0.0386275)
(0.000376864 -0.00061708 -0.0395331)
(0.000391049 -0.000566175 -0.0399304)
(0.000389687 -0.000525884 -0.0401346)
(0.000376067 -0.000492938 -0.0402342)
(0.000353164 -0.0004656 -0.0402587)
(0.000322994 -0.000442823 -0.0402093)
(0.000603619 -0.00106043 -0.0353962)
(0.000605516 -0.000914872 -0.0384876)
(0.000612632 -0.000817053 -0.0393898)
(0.000606401 -0.000753305 -0.0397845)
(0.000592302 -0.000705704 -0.0399865)
(0.000571089 -0.000668952 -0.0400845)
(0.000544154 -0.00064013 -0.0401077)
(0.000512375 -0.000617598 -0.0400577)
(0.000972225 -0.00113757 -0.0351635)
(0.000895878 -0.000991713 -0.0382517)
(0.000853098 -0.000895133 -0.0391432)
(0.000815569 -0.000833613 -0.0395275)
(0.000780541 -0.000786603 -0.0397184)
(0.000745893 -0.000748844 -0.0398046)
(0.000711258 -0.000717326 -0.0398161)
(0.000676504 -0.000690453 -0.0397543)
(0.000352749 0.000343459 -0.0351519)
(0.000350404 0.000247529 -0.0382342)
(0.000355731 0.000191985 -0.0391267)
(0.000354474 0.000160592 -0.039514)
(0.000347197 0.000141962 -0.0397089)
(0.000334388 0.000132249 -0.0397998)
(0.000317215 0.000129157 -0.039816)
(0.000296737 0.000131347 -0.0397589)
(0.000164499 0.000169656 -0.0353148)
(0.000208542 9.95124e-05 -0.0384034)
(0.000241912 6.22591e-05 -0.0393018)
(0.000257945 4.37358e-05 -0.0396937)
(0.000262217 3.51247e-05 -0.0398932)
(0.000256875 3.33521e-05 -0.0399888)
(0.00024404 3.65876e-05 -0.0400096)
(0.000225268 4.38371e-05 -0.0399571)
(5.87551e-05 -0.000101331 -0.0354159)
(0.00013144 -0.000123593 -0.0385099)
(0.000180063 -0.000129728 -0.0394115)
(0.000204369 -0.000128153 -0.0398057)
(0.000213192 -0.000122488 -0.0400071)
(0.000209933 -0.00011413 -0.0401044)
(0.000197457 -0.000103947 -0.0401266)
(0.000177761 -9.23656e-05 -0.0400751)
(8.31674e-05 -0.000414631 -0.0354481)
(0.000159629 -0.00037873 -0.0385447)
(0.000209843 -0.000348648 -0.0394482)
(0.000233835 -0.000324295 -0.039844)
(0.000241696 -0.000302819 -0.0400471)
(0.000237049 -0.000283446 -0.0401461)
(0.000222859 -0.000265827 -0.0401701)
(0.000201106 -0.000249687 -0.0401203)
(0.000239652 -0.00070142 -0.0353991)
(0.000289342 -0.00061144 -0.0384963)
(0.000322507 -0.000548176 -0.0393989)
(0.000334485 -0.000503455 -0.0397936)
(0.000333531 -0.000467962 -0.0399957)
(0.000322384 -0.000438846 -0.0400935)
(0.000303481 -0.000414606 -0.0401164)
(0.000278469 -0.000394329 -0.0400654)
(0.000511981 -0.000905823 -0.0352732)
(0.000511866 -0.000778844 -0.038368)
(0.000516203 -0.000694704 -0.0392676)
(0.000510505 -0.000639312 -0.0396601)
(0.000498445 -0.000597841 -0.0398602)
(0.000480646 -0.000565758 -0.0399564)
(0.000458208 -0.000540586 -0.039978)
(0.000431821 -0.000520918 -0.0399263)
(0.000812623 -0.000953072 -0.0350649)
(0.000746102 -0.000825035 -0.0381564)
(0.000708275 -0.000741804 -0.0390468)
(0.000675944 -0.000687975 -0.0394303)
(0.000645901 -0.000647018 -0.0396209)
(0.000616399 -0.000614314 -0.039707)
(0.000587125 -0.000587317 -0.0397184)
(0.00055797 -0.000564627 -0.0396564)
(0.000248071 0.000225286 -0.0350821)
(0.000247447 0.000141583 -0.0381648)
(0.000253144 9.49354e-05 -0.0390545)
(0.00025337 6.91075e-05 -0.0394392)
(0.000248493 5.46968e-05 -0.0396317)
(0.000239076 4.82899e-05 -0.0397204)
(0.000226143 4.78081e-05 -0.0397345)
(0.000210579 5.20294e-05 -0.0396753)
(0.000105755 7.37918e-05 -0.0352293)
(0.000144183 1.39904e-05 -0.0383192)
(0.000173094 -1.61121e-05 -0.0392141)
(0.000187542 -3.03754e-05 -0.0396029)
(0.000192061 -3.59597e-05 -0.0397997)
(0.000188601 -3.55189e-05 -0.0398926)
(0.000178981 -3.06716e-05 -0.0399111)
(0.000164505 -2.23097e-05 -0.039856)
(3.46104e-05 -0.000149615 -0.0353207)
(9.64106e-05 -0.000167044 -0.0384163)
(0.000137426 -0.000170238 -0.0393143)
(0.000158279 -0.000167183 -0.0397053)
(0.000166185 -0.000160614 -0.0399039)
(0.00016412 -0.000151678 -0.0399987)
(0.000154507 -0.000141122 -0.0400187)
(0.000139004 -0.000129317 -0.0399649)
(6.88289e-05 -0.00039808 -0.0353492)
(0.000132574 -0.000365539 -0.0384478)
(0.000173928 -0.000338304 -0.0393476)
(0.000193856 -0.000316194 -0.0397401)
(0.000200472 -0.000296577 -0.0399404)
(0.000196893 -0.000278733 -0.0400368)
(0.000185597 -0.000262354 -0.0400585)
(0.000168208 -0.0002472 -0.0400063)
(0.000206134 -0.000618637 -0.0353043)
(0.000246304 -0.000539843 -0.0384038)
(0.000272449 -0.000485079 -0.0393028)
(0.000281779 -0.000446191 -0.0396944)
(0.000280628 -0.000415235 -0.0398937)
(0.000271346 -0.000389714 -0.0399891)
(0.000255942 -0.000368327 -0.0400098)
(0.00023575 -0.000350285 -0.0399565)
(0.00043016 -0.00076698 -0.0351897)
(0.000427628 -0.000656951 -0.0382871)
(0.000428939 -0.00058522 -0.0391834)
(0.000423075 -0.000537634 -0.039573)
(0.000412335 -0.000501931 -0.0397704)
(0.000397286 -0.000474208 -0.0398643)
(0.000378813 -0.000452355 -0.0398837)
(0.000357449 -0.000435167 -0.0398295)
(0.000670779 -0.000788722 -0.0350029)
(0.000612168 -0.000677122 -0.0380966)
(0.000578224 -0.000606166 -0.0389851)
(0.000550043 -0.000559817 -0.0393671)
(0.000524169 -0.00052471 -0.0395565)
(0.000499209 -0.000496786 -0.0396418)
(0.00047489 -0.000473867 -0.0396524)
(0.000451106 -0.000454739 -0.0395895)
(0.000153609 0.000117993 -0.0350311)
(0.000153594 4.46684e-05 -0.038113)
(0.00015903 5.78993e-06 -0.0389991)
(0.000160033 -1.50579e-05 -0.0393809)
(0.000156869 -2.56875e-05 -0.0395709)
(0.000150213 -2.91784e-05 -0.0396574)
(0.000140986 -2.74388e-05 -0.0396695)
(0.000129938 -2.15874e-05 -0.0396083)
(5.32279e-05 -1.27794e-05 -0.0351691)
(8.58376e-05 -6.39747e-05 -0.0382589)
(0.000110052 -8.79018e-05 -0.0391498)
(0.0001224 -9.84007e-05 -0.0395352)
(0.000126582 -0.000101298 -0.039729)
(0.00012445 -9.89288e-05 -0.0398194)
(0.000117598 -9.27487e-05 -0.0398354)
(0.000107129 -8.35604e-05 -0.039778)
(1.31757e-05 -0.000192578 -0.0352555)
(6.45461e-05 -0.000206419 -0.0383515)
(9.79897e-05 -0.000207318 -0.0392452)
(0.000114982 -0.000203105 -0.0396327)
(0.000121416 -0.000195845 -0.0398283)
(0.000120001 -0.000186509 -0.0399205)
(0.000112829 -0.000175753 -0.0399383)
(0.000101285 -0.000163905 -0.0398822)
(5.60894e-05 -0.000382906 -0.0352837)
(0.000107933 -0.000353827 -0.0383832)
(0.000140522 -0.00032937 -0.0392785)
(0.000155983 -0.000309439 -0.0396673)
(0.00016078 -0.000291623 -0.0398644)
(0.000157711 -0.00027526 -0.0399582)
(0.000148889 -0.000260076 -0.0399776)
(0.00013565 -0.000245859 -0.039923)
(0.000176118 -0.000543616 -0.0352442)
(0.000207229 -0.00047523 -0.0383448)
(0.00022629 -0.000428316 -0.0392394)
(0.000232422 -0.00039488 -0.0396275)
(0.000230403 -0.00036817 -0.0398237)
(0.00022236 -0.000345978 -0.0399167)
(0.000209988 -0.00032717 -0.0399351)
(0.000194366 -0.000311063 -0.0398796)
(0.000357183 -0.000642369 -0.0351403)
(0.000351814 -0.000547696 -0.0382389)
(0.000349704 -0.000487286 -0.0391311)
(0.000342933 -0.000447029 -0.0395172)
(0.000332764 -0.000416792 -0.0397118)
(0.000319812 -0.000393167 -0.0398032)
(0.000304821 -0.000374333 -0.0398203)
(0.000288204 -0.000359262 -0.0397639)
(0.000543966 -0.000641415 -0.0349714)
(0.000491519 -0.00054489 -0.038066)
(0.000460355 -0.000485336 -0.0389516)
(0.000435249 -0.00044627 -0.0393314)
(0.000412672 -0.000416857 -0.0395191)
(0.000391595 -0.000393482 -0.0396032)
(0.000371798 -0.000374249 -0.0396129)
(0.000353174 -0.000358111 -0.039549)
(6.58096e-05 1.72602e-05 -0.0349985)
(6.54118e-05 -4.69806e-05 -0.0380776)
(6.98289e-05 -7.86346e-05 -0.0389592)
(7.07929e-05 -9.46256e-05 -0.0393374)
(6.85736e-05 -0.000101501 -0.0395247)
(6.40495e-05 -0.000102142 -0.0396092)
(5.80946e-05 -9.8324e-05 -0.0396198)
(5.13391e-05 -9.10763e-05 -0.0395571)
(4.52423e-06 -9.42537e-05 -0.0351331)
(3.09575e-05 -0.000137943 -0.0382206)
(5.00088e-05 -0.000156209 -0.0391063)
(5.95313e-05 -0.000163084 -0.0394877)
(6.26422e-05 -0.000163335 -0.0396785)
(6.12431e-05 -0.000159086 -0.0397666)
(5.68048e-05 -0.00015169 -0.0397809)
(5.02891e-05 -0.000141867 -0.0397217)
(-6.59607e-06 -0.000233816 -0.0352186)
(3.45251e-05 -0.000244769 -0.0383129)
(5.99585e-05 -0.000243589 -0.0392012)
(7.23442e-05 -0.000238238 -0.0395845)
(7.65138e-05 -0.000230257 -0.0397772)
(7.51033e-05 -0.000220508 -0.0398673)
(6.99984e-05 -0.000209587 -0.0398833)
(6.23826e-05 -0.000197783 -0.0398256)
(4.47281e-05 -0.000370755 -0.035249)
(8.50109e-05 -0.000345088 -0.0383472)
(0.000108411 -0.000323242 -0.0392369)
(0.000118617 -0.000305342 -0.0396215)
(0.000120741 -0.000289199 -0.0398156)
(0.000117485 -0.000274201 -0.0399072)
(0.000110735 -0.000260105 -0.0399249)
(0.000101615 -0.000246722 -0.0398687)
(0.000149323 -0.000476393 -0.0352157)
(0.000171374 -0.000417673 -0.0383152)
(0.000182764 -0.000378082 -0.0392044)
(0.000184767 -0.000349807 -0.0395883)
(0.000180923 -0.00032712 -0.0397817)
(0.000173347 -0.000308032 -0.0398726)
(0.000163548 -0.000291535 -0.0398896)
(0.00015242 -0.000277037 -0.0398325)
(0.000291777 -0.000530072 -0.0351213)
(0.000282859 -0.00044944 -0.0382188)
(0.000276507 -0.000399613 -0.0391058)
(0.000267783 -0.000366431 -0.039488)
(0.000257202 -0.000341533 -0.0396797)
(0.000245574 -0.000321855 -0.0397691)
(0.000233599 -0.000305792 -0.0397847)
(0.000221621 -0.000292457 -0.0397266)
(0.000429391 -0.00050803 -0.0349667)
(0.000381328 -0.000425519 -0.0380597)
(0.000351594 -0.000376883 -0.0389411)
(0.00032827 -0.000345135 -0.039318)
(0.000307912 -0.000321467 -0.0395039)
(0.000289929 -0.000302552 -0.0395871)
(0.000274193 -0.000286695 -0.0395962)
(0.000260619 -0.00027298 -0.0395318)
(-1.86037e-05 -8.05652e-05 -0.0349843)
(-2.04026e-05 -0.000136104 -0.038057)
(-1.79654e-05 -0.000160432 -0.0389323)
(-1.81007e-05 -0.000171165 -0.0393062)
(-2.03408e-05 -0.000173881 -0.039491)
(-2.35025e-05 -0.000171377 -0.0395742)
(-2.66314e-05 -0.00016543 -0.0395844)
(-2.90932e-05 -0.000157045 -0.0395214)
(-4.23021e-05 -0.000174214 -0.0351199)
(-2.27364e-05 -0.00021088 -0.0382014)
(-9.9761e-06 -0.0002234 -0.0390803)
(-4.52591e-06 -0.000226354 -0.0394571)
(-3.63942e-06 -0.000223659 -0.0396452)
(-5.1481e-06 -0.000217341 -0.039732)
(-7.56046e-06 -0.000208692 -0.0397458)
(-9.97573e-06 -0.000198391 -0.0396862)
(-2.56141e-05 -0.000275939 -0.0352083)
(4.76785e-06 -0.000284313 -0.0382971)
(2.09633e-05 -0.000280936 -0.0391783)
(2.73502e-05 -0.000274209 -0.039557)
(2.79573e-05 -0.000265277 -0.039747)
(2.56237e-05 -0.000254956 -0.039836)
(2.21835e-05 -0.000243814 -0.0398519)
(1.87186e-05 -0.000232109 -0.0397941)
(3.4378e-05 -0.000362843 -0.0352432)
(6.26254e-05 -0.000340419 -0.0383361)
(7.55313e-05 -0.000320959 -0.0392187)
(7.89807e-05 -0.000304904 -0.0395985)
(7.70307e-05 -0.000290273 -0.03979)
(7.25877e-05 -0.000276498 -0.0398807)
(6.74731e-05 -0.000263357 -0.0398983)
(6.27046e-05 -0.000250679 -0.0398421)
(0.000125254 -0.000416633 -0.0352165)
(0.000137446 -0.000367005 -0.0383108)
(0.000139694 -0.000334453 -0.0391929)
(0.000135935 -0.000311236 -0.0395723)
(0.000128771 -0.000292503 -0.0397633)
(0.000120592 -0.000276388 -0.0398534)
(0.000112876 -0.00026197 -0.0398706)
(0.000106434 -0.00024872 -0.0398138)
(0.000232477 -0.000428029 -0.0351302)
(0.000218701 -0.000360613 -0.0382224)
(0.000206527 -0.000321151 -0.0391025)
(0.000194196 -0.000295174 -0.0394803)
(0.000181743 -0.000275783 -0.0396697)
(0.000170406 -0.000260086 -0.0397583)
(0.000160965 -0.000246612 -0.039774)
(0.000153776 -0.000234566 -0.039716)
(0.000324276 -0.00038557 -0.0349861)
(0.000278526 -0.000316584 -0.0380735)
(0.00024836 -0.000279008 -0.0389489)
(0.00022507 -0.000255087 -0.0393221)
(0.000205461 -0.000237597 -0.0395065)
(0.000189547 -0.000223295 -0.0395896)
(0.000177373 -0.000210594 -0.0395997)
(0.000168931 -0.000198659 -0.0395362)
(-0.000102052 -0.000177914 -0.0349872)
(-0.000106879 -0.000224455 -0.0380478)
(-0.00010824 -0.000240626 -0.0389143)
(-0.000111275 -0.00024509 -0.0392833)
(-0.000115088 -0.000242768 -0.0394662)
(-0.000117922 -0.000236596 -0.0395498)
(-0.00011862 -0.000228434 -0.0395617)
(-0.000116459 -0.000219321 -0.0395008)
(-8.91988e-05 -0.000255414 -0.0351276)
(-7.79702e-05 -0.000284771 -0.0381973)
(-7.3548e-05 -0.00029081 -0.0390668)
(-7.42255e-05 -0.000289004 -0.0394387)
(-7.73576e-05 -0.000282639 -0.0396249)
(-8.01829e-05 -0.00027379 -0.0397123)
(-8.1026e-05 -0.00026376 -0.0397282)
(-7.89054e-05 -0.000253224 -0.0396711)
(-4.49431e-05 -0.000321282 -0.0352225)
(-2.68762e-05 -0.000326766 -0.0382993)
(-2.23341e-05 -0.000320634 -0.039171)
(-2.43438e-05 -0.000311977 -0.0395446)
(-2.94059e-05 -0.000301623 -0.0397332)
(-3.40538e-05 -0.000290431 -0.0398234)
(-3.63291e-05 -0.000278957 -0.039842)
(-3.51049e-05 -0.000267445 -0.0397873)
(2.44716e-05 -0.000360141 -0.0352639)
(3.89307e-05 -0.000340641 -0.038345)
(3.86638e-05 -0.000323292 -0.0392178)
(3.27408e-05 -0.000308885 -0.0395927)
(2.44489e-05 -0.000295601 -0.0397829)
(1.73209e-05 -0.000282903 -0.039875)
(1.33078e-05 -0.000270581 -0.0398958)
(1.34692e-05 -0.000258469 -0.039843)
(0.000103209 -0.000363824 -0.0352442)
(0.000103482 -0.000323005 -0.0383265)
(9.37256e-05 -0.000297584 -0.039199)
(8.14757e-05 -0.000279621 -0.0395736)
(6.86493e-05 -0.000265004 -0.0397635)
(5.83186e-05 -0.000251879 -0.0398554)
(5.21082e-05 -0.000239358 -0.039876)
(5.08867e-05 -0.000226944 -0.039823)
(0.000177702 -0.000334213 -0.0351644)
(0.000156717 -0.000279916 -0.0382445)
(0.000135887 -0.000251358 -0.0391152)
(0.000117337 -0.000233286 -0.0394883)
(0.0001008 -0.000219997 -0.0396766)
(8.82932e-05 -0.000208571 -0.0397669)
(8.08311e-05 -0.000197582 -0.0397859)
(7.89043e-05 -0.000186263 -0.0397315)
(0.000225904 -0.000271263 -0.0350274)
(0.000179761 -0.000216224 -0.0381022)
(0.000146345 -0.000190863 -0.038969)
(0.000120583 -0.000176015 -0.0393382)
(9.96644e-05 -0.000165677 -0.039522)
(8.4436e-05 -0.000156493 -0.0396072)
(7.52535e-05 -0.00014684 -0.0396209)
(7.22847e-05 -0.000135882 -0.0395615)
(-0.000187179 -0.000277253 -0.0350041)
(-0.000197403 -0.000313317 -0.0380437)
(-0.000205487 -0.000319343 -0.0388981)
(-0.000214149 -0.00031566 -0.0392619)
(-0.000221836 -0.000306762 -0.0394444)
(-0.000225855 -0.000295975 -0.0395314)
(-0.000224671 -0.000285352 -0.0395492)
(-0.000217312 -0.000276057 -0.039495)
(-0.000137937 -0.000340088 -0.035153)
(-0.000137807 -0.000360852 -0.0382014)
(-0.000145352 -0.000358811 -0.0390584)
(-0.000155462 -0.000350748 -0.0394251)
(-0.000165398 -0.000339526 -0.0396115)
(-0.000171355 -0.000327402 -0.0397031)
(-0.000171264 -0.000315772 -0.0397258)
(-0.000163883 -0.000305361 -0.0396763)
(-6.57004e-05 -0.000371648 -0.0352573)
(-6.32613e-05 -0.000373223 -0.0383123)
(-7.46406e-05 -0.000363266 -0.0391711)
(-8.89176e-05 -0.000351778 -0.03954)
(-0.000102948 -0.000339262 -0.0397294)
(-0.000111968 -0.000326751 -0.0398247)
(-0.000113769 -0.000314792 -0.0398513)
(-0.00010699 -0.000303633 -0.0398053)
(1.42058e-05 -0.000363375 -0.0353073)
(1.11885e-05 -0.000346325 -0.038366)
(-7.07312e-06 -0.000330783 -0.039226)
(-2.65684e-05 -0.000317889 -0.0395963)
(-4.46402e-05 -0.000305781 -0.0397878)
(-5.66731e-05 -0.000294022 -0.0398857)
(-6.03181e-05 -0.000282393 -0.0399151)
(-5.42865e-05 -0.000270714 -0.0398718)
(8.226e-05 -0.000317421 -0.0352947)
(6.66128e-05 -0.000285564 -0.0383545)
(3.97902e-05 -0.000267947 -0.0392141)
(1.48037e-05 -0.000255852 -0.0395843)
(-7.13134e-06 -0.000245789 -0.0397758)
(-2.18889e-05 -0.000235853 -0.039874)
(-2.73741e-05 -0.000225114 -0.0399037)
(-2.24694e-05 -0.000213059 -0.0398606)
(0.000125776 -0.000246796 -0.0352199)
(9.35548e-05 -0.000206578 -0.0382775)
(5.9216e-05 -0.000190619 -0.0391354)
(3.05019e-05 -0.000181866 -0.0395041)
(6.69287e-06 -0.000175763 -0.039694)
(-9.1094e-06 -0.00016922 -0.0397903)
(-1.53526e-05 -0.000160702 -0.0398183)
(-1.12601e-05 -0.00014942 -0.0397737)
(0.000131605 -0.000162736 -0.0350869)
(8.12307e-05 -0.000123581 -0.0381388)
(4.01758e-05 -0.000113031 -0.0389933)
(8.43466e-06 -0.000109374 -0.0393585)
(-1.66215e-05 -0.000107854 -0.0395439)
(-3.30927e-05 -0.000104752 -0.0396352)
(-4.00511e-05 -9.82119e-05 -0.0396577)
(-3.70102e-05 -8.73052e-05 -0.039608)
(-0.000276347 -0.000380264 -0.0350292)
(-0.000295594 -0.000402638 -0.0380348)
(-0.00031505 -0.000395044 -0.0388732)
(-0.00033342 -0.000380285 -0.0392321)
(-0.000348305 -0.000362444 -0.0394176)
(-0.000355693 -0.000345539 -0.0395134)
(-0.000353434 -0.000331953 -0.039544)
(-0.000340098 -0.000323102 -0.0395043)
(-0.00019038 -0.000429986 -0.0351899)
(-0.000206013 -0.000439388 -0.0382031)
(-0.000231522 -0.000426433 -0.0390437)
(-0.000256097 -0.000409991 -0.039406)
(-0.000276818 -0.000392116 -0.0395964)
(-0.000288551 -0.000375568 -0.0396984)
(-0.000288474 -0.000361955 -0.0397358)
(-0.000274893 -0.0003521 -0.0397025)
(-8.91613e-05 -0.000428356 -0.0353062)
(-0.000108089 -0.000424168 -0.038325)
(-0.000142934 -0.000408562 -0.0391669)
(-0.000175161 -0.000392958 -0.0395321)
(-0.000202477 -0.000377311 -0.0397267)
(-0.000218943 -0.000362798 -0.039834)
(-0.000221374 -0.000350101 -0.0398771)
(-0.000207925 -0.000339495 -0.0398494)
(2.31748e-06 -0.000372944 -0.0353667)
(-2.46974e-05 -0.000357995 -0.0383878)
(-6.88127e-05 -0.000343974 -0.0392308)
(-0.000107974 -0.000332278 -0.039598)
(-0.000140659 -0.000321221 -0.0397956)
(-0.000160827 -0.000310273 -0.0399066)
(-0.000165254 -0.000299203 -0.0399539)
(-0.000152141 -0.000287814 -0.0399303)
(6.05432e-05 -0.00027687 -0.0353618)
(2.2374e-05 -0.000255193 -0.0383828)
(-2.91631e-05 -0.000246599 -0.0392258)
(-7.30747e-05 -0.000241348 -0.0395932)
(-0.000109038 -0.000236625 -0.0397913)
(-0.000131475 -0.0002303 -0.0399031)
(-0.000137422 -0.000221312 -0.0399513)
(-0.000125241 -0.000209081 -0.0399287)
(7.38441e-05 -0.000164798 -0.0352907)
(2.42828e-05 -0.000141085 -0.0383092)
(-3.03621e-05 -0.000140338 -0.0391509)
(-7.50527e-05 -0.00014314 -0.0395168)
(-0.000110756 -0.000145966 -0.0397131)
(-0.000132908 -0.000145327 -0.0398227)
(-0.000139098 -0.000139435 -0.0398688)
(-0.000128012 -0.000127376 -0.0398443)
(3.81583e-05 -5.9025e-05 -0.0351581)
(-2.18534e-05 -3.92108e-05 -0.0381714)
(-7.63887e-05 -4.73623e-05 -0.0390102)
(-0.000119185 -5.81971e-05 -0.0393724)
(-0.000152472 -6.80832e-05 -0.0395639)
(-0.000172949 -7.26334e-05 -0.0396679)
(-0.000178861 -6.95537e-05 -0.0397079)
(-0.000169185 -5.76718e-05 -0.0396774)
(-0.000371605 -0.000487677 -0.0350524)
(-0.0004056 -0.000491023 -0.0380066)
(-0.000443577 -0.000464287 -0.0388243)
(-0.000477231 -0.000434234 -0.0391802)
(-0.000503763 -0.000404105 -0.0393744)
(-0.000517545 -0.000378797 -0.0394877)
(-0.000515405 -0.000361288 -0.0395422)
(-0.000495125 -0.000353469 -0.0395294)
(-0.000248768 -0.000525516 -0.035228)
(-0.00028781 -0.000519667 -0.0381866)
(-0.000339844 -0.000491553 -0.0390064)
(-0.000385708 -0.00046342 -0.0393668)
(-0.000422757 -0.000436367 -0.0395678)
(-0.000443977 -0.000413698 -0.0396899)
(-0.000445369 -0.000397389 -0.039754)
(-0.000424447 -0.000388481 -0.0397509)
(-0.000118608 -0.000491598 -0.0353588)
(-0.00016766 -0.000479258 -0.0383197)
(-0.000235264 -0.000455601 -0.0391414)
(-0.000293464 -0.000433945 -0.0395058)
(-0.000340583 -0.000413668 -0.0397129)
(-0.000368731 -0.000396167 -0.0398428)
(-0.000373448 -0.000382284 -0.0399157)
(-0.000352055 -0.000372376 -0.0399212)
(-1.44564e-05 -0.000389349 -0.0354306)
(-7.51044e-05 -0.000375782 -0.0383922)
(-0.000155234 -0.000362927 -0.0392153)
(-0.000222665 -0.000352238 -0.0395825)
(-0.000276845 -0.000342029 -0.039794)
(-0.000309694 -0.000331703 -0.0399293)
(-0.000316683 -0.000320992 -0.0400085)
(-0.000295156 -0.000309673 -0.0400204)
(3.5042e-05 -0.000242477 -0.0354328)
(-3.5509e-05 -0.000232557 -0.0383939)
(-0.000121977 -0.000234874 -0.0392171)
(-0.000193388 -0.000238055 -0.0395849)
(-0.000250247 -0.00023988 -0.0397975)
(-0.000284923 -0.00023786 -0.0399344)
(-0.000293153 -0.000230697 -0.0400153)
(-0.000272444 -0.000217677 -0.0400292)
(1.89344e-05 -8.78255e-05 -0.0353638)
(-5.71731e-05 -8.44481e-05 -0.0383227)
(-0.000141604 -0.000102964 -0.0391447)
(-0.000210173 -0.000120651 -0.0395108)
(-0.000264138 -0.000135002 -0.0397211)
(-0.000296906 -0.000141857 -0.0398554)
(-0.000304789 -0.000138987 -0.0399336)
(-0.000285597 -0.000125221 -0.0399449)
(-5.80006e-05 4.08962e-05 -0.0352284)
(-0.000135322 3.56472e-05 -0.0381839)
(-0.000211496 2.90343e-06 -0.0390034)
(-0.000272185 -2.72432e-05 -0.0393655)
(-0.000319244 -5.22661e-05 -0.0395701)
(-0.000347511 -6.67787e-05 -0.0396976)
(-0.000354065 -6.78245e-05 -0.0397683)
(-0.000337075 -5.38285e-05 -0.0397721)
(-0.000475895 -0.000597944 -0.0350585)
(-0.000532818 -0.000574995 -0.0379365)
(-0.000598025 -0.000521906 -0.0387303)
(-0.000654357 -0.000470696 -0.0390872)
(-0.000698478 -0.000423536 -0.039299)
(-0.0007226 -0.000386486 -0.0394428)
(-0.000722145 -0.000363373 -0.0395373)
(-0.000693577 -0.000356983 -0.0395698)
(-0.000316808 -0.00062621 -0.0352494)
(-0.000389433 -0.000598971 -0.0381281)
(-0.000478835 -0.000550294 -0.0389244)
(-0.000555113 -0.000506046 -0.0392876)
(-0.000615808 -0.000466239 -0.0395091)
(-0.000651412 -0.000434918 -0.0396655)
(-0.000656281 -0.000414586 -0.0397742)
(-0.000626779 -0.000406659 -0.0398214)
(-0.000157015 -0.000561544 -0.0353947)
(-0.000248526 -0.000537018 -0.0382729)
(-0.000361558 -0.0005021 -0.0390716)
(-0.00045621 -0.000471838 -0.0394406)
(-0.000531561 -0.000444852 -0.039671)
(-0.000577058 -0.000422846 -0.0398389)
(-0.000586455 -0.000406895 -0.0399607)
(-0.000555861 -0.000397515 -0.0400214)
(-3.91528e-05 -0.000412654 -0.0354778)
(-0.000147049 -0.000399489 -0.0383552)
(-0.000276834 -0.000387332 -0.0391556)
(-0.000383781 -0.000377327 -0.0395287)
(-0.000468463 -0.000367645 -0.0397655)
(-0.000520071 -0.000357582 -0.0399414)
(-0.000532232 -0.000346814 -0.0400727)
(-0.000501061 -0.000335105 -0.0401431)
(2.68322e-06 -0.000214385 -0.0354867)
(-0.000113999 -0.000218547 -0.0383631)
(-0.000249063 -0.000234362 -0.0391638)
(-0.000359189 -0.000248074 -0.039538)
(-0.000445916 -0.000258028 -0.0397766)
(-0.000498911 -0.000261212 -0.0399551)
(-0.000512086 -0.000255978 -0.0400894)
(-0.000481727 -0.000241422 -0.0401631)
(-4.22237e-05 -1.55843e-05 -0.0354182)
(-0.000157157 -3.8495e-05 -0.0382933)
(-0.000283982 -8.19911e-05 -0.0390927)