/*--------------------------------*- C++ -*----------------------------------*\
| =========                 |                                                 |
| \\      /  F ield         | OpenFOAM: The Open Source CFD Toolbox           |
|  \\    /   O peration     | Version:  plus.master.MPPICInterFoam            |
|   \\  /    A nd           | Web:      www.OpenFOAM.com                      |
|    \\/     M anipulation  |                                                 |
\*---------------------------------------------------------------------------*/
FoamFile
{
    version     2.0;
    format      ascii;
    class       volScalarField;
    location    "7.2";
    object      epsilon;
}
// * * * * * * * * * * * * * * * * * * * * * * * * * * * * * * * * * * * * * //

dimensions      [0 2 -3 0 0 0 0];

internalField   nonuniform List<scalar> 
11821
(
0.492484
0.541109
0.40738
0.495934
0.406058
0.313933
0.42347
0.518074
0.573888
0.572895
0.521591
0.438008
0.348286
0.54104
0.638859
0.635782
0.628344
0.634698
0.55258
0.430622
0.634487
0.669073
0.557972
0.548483
0.656624
0.64218
0.498242
0.65336
0.670544
0.501273
0.487683
0.655644
0.662867
0.519814
0.61447
0.696332
0.652611
0.648633
0.692446
0.628005
0.482433
0.505656
0.62193
0.66816
0.663101
0.625465
0.521876
0.405574
0.385302
0.472635
0.528021
0.529992
0.480501
0.402584
0.32044
0.408128
0.487431
0.537133
0.541017
0.498204
0.430403
0.353895
0.504996
0.60682
0.655982
0.661144
0.618456
0.52868
0.424977
0.588035
0.665456
0.606212
0.599123
0.676052
0.614959
0.480113
0.620639
0.673087
0.592002
0.585464
0.674876
0.648863
0.499055
0.568215
0.671426
0.681079
0.673203
0.680664
0.596555
0.466202
0.47495
0.581034
0.653881
0.658158
0.595348
0.500464
0.402166
0.374158
0.447411
0.495709
0.5002
0.460449
0.397764
0.325704
0.408274
0.477199
0.518235
0.524067
0.493853
0.43849
0.367499
0.490899
0.580941
0.625952
0.634273
0.600705
0.525038
0.434098
0.554423
0.646471
0.650772
0.644308
0.673456
0.593673
0.480758
0.576822
0.667063
0.618834
0.623211
0.702654
0.621253
0.495266
0.537411
0.645102
0.685873
0.695339
0.673143
0.57767
0.467118
0.462708
0.55128
0.611161
0.622063
0.573986
0.497201
0.409696
0.374176
0.439495
0.480337
0.486942
0.457445
0.404201
0.335926
0.427858
0.497376
0.537098
0.545194
0.521149
0.468395
0.392212
0.507411
0.590886
0.627137
0.635687
0.618116
0.554183
0.463119
0.561987
0.647674
0.658688
0.672608
0.685334
0.615584
0.509821
0.57883
0.671512
0.685927
0.629812
0.710477
0.635596
0.521497
0.545253
0.645903
0.689897
0.709688
0.680159
0.597949
0.492609
0.476595
0.560805
0.614076
0.624881
0.590406
0.522122
0.432577
0.388552
0.455554
0.496645
0.505275
0.479466
0.426232
0.353334
0.466809
0.553136
0.602916
0.614093
0.587551
0.521093
0.426775
0.560801
0.660869
0.703608
0.70931
0.699835
0.62658
0.511554
0.6216
0.722605
0.771148
0.7489
0.746357
0.699202
0.567836
0.636796
0.740917
0.787069
0.790568
0.787417
0.718499
0.580072
0.597984
0.711612
0.762874
0.790491
0.762413
0.673017
0.54337
0.517316
0.61869
0.682744
0.697875
0.661882
0.58024
0.469633
0.415221
0.494442
0.545421
0.557717
0.527395
0.462605
0.375645
0.519052
0.636405
0.715014
0.730159
0.691653
0.590845
0.464192
0.641106
0.785115
0.858446
0.858443
0.834265
0.74105
0.573371
0.727969
0.880794
0.855115
0.916012
0.89131
0.838229
0.646961
0.747692
0.907591
0.885713
0.897411
0.959348
0.86162
0.662842
0.688323
0.84787
0.927706
0.960001
0.914377
0.796798
0.611095
0.577221
0.718922
0.817052
0.836611
0.785108
0.661845
0.51143
0.446579
0.547952
0.618574
0.635913
0.593397
0.504033
0.395173
0.570125
0.72069
0.811014
0.833475
0.772065
0.65386
0.489194
0.72673
0.928547
1.00925
1.0322
1.00379
0.822793
0.627731
0.838019
1.04371
0.963719
0.911305
1.081
0.987184
0.727307
0.866121
1.09397
0.910792
0.989104
1.02033
1.05061
0.749692
0.78509
1.00908
1.11552
1.06904
1.10548
0.924744
0.672964
0.636103
0.819259
0.973402
1.02597
0.916647
0.735982
0.539992
0.46875
0.598482
0.696122
0.721209
0.655289
0.532666
0.40143
0.585521
0.768189
0.860309
0.876856
0.839189
0.670962
0.483659
0.778312
0.938941
1.15277
1.16893
0.964749
0.889628
0.640872
0.901246
1.14445
1.06428
1.00495
1.17954
1.02819
0.767358
0.933223
1.17236
1.00074
0.957092
1.0843
1.1215
0.787815
0.841714
1.06406
1.21296
1.07617
1.14152
0.980693
0.686758
0.652636
0.874069
1.03811
1.10217
0.9719
0.752806
0.532864
0.463884
0.611306
0.733859
0.758186
0.669175
0.526095
0.389182
0.552363
0.760646
0.932337
0.960733
0.833985
0.633789
0.453335
0.762987
0.962388
1.07175
1.12436
1.10458
0.876645
0.605235
0.927745
1.04905
1.00235
0.984738
1.12071
1.06771
0.733731
0.94931
1.08751
0.998058
0.86977
1.21443
1.09855
0.752394
0.818469
1.05671
1.14268
1.22252
1.18992
0.954997
0.646101
0.611613
0.850138
1.04835
1.08068
0.945152
0.703653
0.498374
0.434498
0.575497
0.698163
0.721879
0.630048
0.492602
0.366234
0.484131
0.661159
0.832653
0.870013
0.741021
0.560359
0.406594
0.66181
0.901057
1.04818
1.06746
1.03594
0.778585
0.536122
0.827759
1.07035
0.994477
0.976818
1.15684
0.983088
0.64926
0.849548
1.11805
1.00941
0.950099
1.23634
1.02526
0.664995
0.711502
0.988766
1.18582
1.24459
1.17375
0.847371
0.572362
0.535791
0.740184
0.941927
0.994059
0.838372
0.624527
0.447497
0.390214
0.508796
0.616392
0.63955
0.560056
0.443115
0.335979
0.410617
0.540285
0.680421
0.712837
0.61084
0.474591
0.355823
0.540105
0.734553
0.892606
0.928925
0.844081
0.643415
0.454474
0.669564
0.880837
0.956606
0.929038
1.09262
0.809543
0.54168
0.69024
0.913824
0.95641
0.921965
1.14223
0.843993
0.555715
0.584757
0.810377
1.0695
1.12607
0.957955
0.706777
0.486784
0.455738
0.610051
0.777144
0.819308
0.700443
0.531618
0.391641
0.345035
0.434443
0.517879
0.537332
0.478242
0.388758
0.304531
0.350973
0.434052
0.508171
0.529027
0.480111
0.395073
0.312998
0.435068
0.553032
0.621856
0.64829
0.626347
0.505115
0.380498
0.503703
0.63092
0.601392
0.607313
0.656038
0.612892
0.436501
0.520546
0.662592
0.619754
0.628239
0.692434
0.612012
0.444406
0.468382
0.608831
0.679166
0.691146
0.674579
0.544464
0.40423
0.386866
0.487426
0.587846
0.623009
0.540299
0.437134
0.341873
0.309109
0.370771
0.423168
0.437159
0.399368
0.3402
0.278161
0.315175
0.369233
0.409462
0.42068
0.394261
0.34453
0.286651
0.37057
0.444066
0.491255
0.505831
0.476993
0.413387
0.334267
0.410481
0.493389
0.526416
0.534015
0.508898
0.465376
0.367996
0.420009
0.506022
0.53566
0.542401
0.537162
0.476627
0.375442
0.393256
0.475219
0.506491
0.516329
0.503163
0.440187
0.352471
0.344595
0.40862
0.457223
0.47016
0.437184
0.377053
0.310638
0.288306
0.332765
0.364363
0.371736
0.350199
0.309989
0.261546
0.302295
0.343913
0.368845
0.375351
0.361996
0.325008
0.276418
0.345141
0.39402
0.427924
0.438925
0.423902
0.377091
0.316149
0.369887
0.415367
0.436563
0.447335
0.465645
0.411339
0.341812
0.376948
0.423631
0.452146
0.464123
0.471069
0.419758
0.347642
0.363924
0.418714
0.450736
0.460635
0.451614
0.398488
0.331161
0.329214
0.377815
0.407476
0.416121
0.397679
0.35318
0.297335
0.281419
0.319201
0.343017
0.347878
0.331442
0.297627
0.25384
0.307101
0.346897
0.366684
0.374227
0.362058
0.326773
0.276773
0.348522
0.388426
0.401219
0.406285
0.408584
0.375452
0.316375
0.371485
0.399774
0.403264
0.419845
0.424379
0.400575
0.33987
0.377326
0.408019
0.403908
0.410748
0.410692
0.40895
0.344726
0.366891
0.409433
0.423163
0.436567
0.430262
0.394228
0.329163
0.333605
0.381485
0.406188
0.410943
0.39601
0.352493
0.295514
0.283489
0.322539
0.345213
0.348598
0.331616
0.296493
0.251414
0.316624
0.355434
0.379389
0.376752
0.364385
0.334093
0.279151
0.35716
0.368888
0.371815
0.393169
0.381068
0.377185
0.322738
0.371599
0.395035
0.381025
0.366291
0.401064
0.41358
0.349077
0.37532
0.401847
0.399385
0.395994
0.400911
0.419296
0.352988
0.373718
0.386634
0.389452
0.391522
0.41689
0.394623
0.334267
0.341714
0.385247
0.416342
0.418793
0.397133
0.357601
0.296911
0.286696
0.33007
0.355336
0.358195
0.337471
0.298119
0.250167
0.0486983
0.0656567
0.187034
0.132307
0.0918804
0.0641878
0.0491007
0.0627365
0.373286
0.268519
0.19176
0.134439
0.0924719
0.063951
0.0483517
0.0604687
0.345891
0.249939
0.17888
0.12562
0.0867335
0.0604593
0.046284
0.0587824
0.289389
0.212388
0.154012
0.109642
0.0771107
0.0551774
0.043759
0.0583662
0.227294
0.172183
0.127974
0.0934027
0.0677538
0.0504623
0.0421411
0.0603906
0.26237
0.204418
0.15551
0.115628
0.0850886
0.0641103
0.0542432
0.0799643
0.318353
0.241025
0.179185
0.130131
0.0930488
0.0675646
0.0544555
0.0748513
0.363489
0.270599
0.197997
0.14136
0.0990339
0.0701368
0.0547354
0.0715005
0.377226
0.278627
0.202271
0.143213
0.0994663
0.0698208
0.0539334
0.0690772
0.350982
0.259947
0.188892
0.13397
0.0935065
0.0662544
0.0518648
0.0674351
0.297606
0.222782
0.163535
0.117531
0.0836489
0.0609032
0.0493774
0.0672636
0.237471
0.182331
0.136814
0.100789
0.0740396
0.0561136
0.0478324
0.0697092
0.272191
0.214606
0.164281
0.122787
0.0911515
0.0696969
0.060121
0.0897234
0.324838
0.250623
0.188048
0.137357
0.0990452
0.0729969
0.0600759
0.0839267
0.365135
0.278654
0.206443
0.148408
0.104891
0.0754385
0.0602028
0.0801818
0.376934
0.28566
0.210144
0.149941
0.105164
0.075055
0.0593582
0.0776563
0.352523
0.267079
0.196378
0.140411
0.0990993
0.0714857
0.0573242
0.0761088
0.303275
0.230635
0.170821
0.123775
0.0891957
0.0661729
0.0549285
0.0762264
0.245222
0.190182
0.143728
0.106811
0.0795323
0.0614324
0.0535323
0.0791401
0.284498
0.224889
0.172244
0.129088
0.0966377
0.0750309
0.0660482
0.0998805
0.337056
0.261649
0.196521
0.143801
0.104449
0.0781463
0.0657096
0.0933617
0.375003
0.289283
0.214893
0.154778
0.110181
0.0804671
0.0656845
0.089262
0.384909
0.295369
0.21809
0.156035
0.110327
0.0800318
0.0647983
0.0866484
0.361023
0.276132
0.203679
0.146182
0.104176
0.0764731
0.0628003
0.0851836
0.312762
0.239046
0.177486
0.129286
0.0942533
0.0712269
0.060513
0.0855838
0.254058
0.197559
0.149768
0.112115
0.0846025
0.0665949
0.0593147
0.0890003
0.301162
0.236229
0.179921
0.134838
0.101711
0.0801634
0.0720037
0.110554
0.357958
0.275498
0.20529
0.149827
0.109451
0.0830789
0.0713424
0.103277
0.397804
0.304576
0.2243
0.160942
0.115132
0.0852913
0.0711525
0.0988014
0.406803
0.310201
0.227176
0.162007
0.11519
0.0848138
0.0702126
0.0960665
0.380555
0.28897
0.211633
0.151702
0.10893
0.0812606
0.0682456
0.0946526
0.328471
0.249129
0.184088
0.134364
0.0989597
0.0760863
0.0660772
0.0953183
0.265243
0.205087
0.155309
0.116926
0.08935
0.0716014
0.0651175
0.0992793
0.320028
0.246833
0.186072
0.13929
0.105921
0.084766
0.0776604
0.121228
0.385145
0.28995
0.212756
0.154487
0.113525
0.0874521
0.0766552
0.113182
0.431086
0.322022
0.232824
0.165813
0.119157
0.0895469
0.076279
0.10832
0.44055
0.327639
0.235533
0.166756
0.119162
0.0890354
0.0752742
0.105442
0.408713
0.303151
0.21855
0.156006
0.112843
0.0855163
0.0733468
0.104063
0.347829
0.258796
0.189307
0.138287
0.102915
0.0804669
0.0713259
0.104995
0.276581
0.211301
0.159487
0.120758
0.0934682
0.0761952
0.0706463
0.109528
0.335827
0.25342
0.189071
0.141754
0.10896
0.0886159
0.0827404
0.131755
0.412173
0.300608
0.216719
0.156916
0.11634
0.0910543
0.0813881
0.122968
0.467169
0.336322
0.237791
0.168356
0.121887
0.0930222
0.0808154
0.117709
0.477954
0.342093
0.240403
0.169244
0.121886
0.0924964
0.079747
0.114665
0.437614
0.313687
0.222127
0.158276
0.115637
0.0890653
0.077878
0.113304
0.364228
0.264442
0.191641
0.140549
0.10593
0.0842102
0.0760308
0.11449
0.283753
0.214075
0.161462
0.123314
0.096804
0.0802031
0.0756472
0.119581
0.341689
0.253506
0.188606
0.142548
0.111125
0.0918297
0.0871821
0.14227
0.428008
0.303086
0.216286
0.157328
0.118194
0.0940137
0.085497
0.132744
0.493195
0.34177
0.237823
0.168665
0.123595
0.0958404
0.0847239
0.127049
0.505098
0.347524
0.240358
0.16956
0.123622
0.0953094
0.0835907
0.123786
0.45473
0.315853
0.221494
0.158738
0.117576
0.092007
0.0817881
0.12241
0.369713
0.263699
0.190979
0.141508
0.10825
0.087382
0.0801157
0.123809
0.28337
0.212807
0.161533
0.124947
0.0995403
0.0836426
0.0800045
0.12941
0.3345
0.247999
0.186154
0.142693
0.112937
0.0946391
0.0910774
0.152386
0.423416
0.296985
0.212907
0.156831
0.11962
0.0965444
0.0890604
0.142009
0.49475
0.336451
0.234119
0.167815
0.124782
0.0981918
0.0880687
0.135738
0.506078
0.341927
0.236572
0.168709
0.124813
0.0976334
0.0868523
0.132177
0.449239
0.309223
0.218045
0.158329
0.119049
0.0944725
0.0851186
0.130821
0.360899
0.257793
0.188756
0.141941
0.110177
0.0900788
0.0836088
0.132472
0.276304
0.209136
0.160853
0.126232
0.101897
0.0865803
0.0837251
0.138552
0.318371
0.238888
0.182232
0.142047
0.114124
0.096828
0.0942114
0.160504
0.402321
0.284529
0.206994
0.155104
0.120231
0.0983856
0.0918763
0.149333
0.471318
0.321843
0.226768
0.165263
0.124948
0.0997701
0.0906514
0.142475
0.481348
0.32672
0.228992
0.166076
0.124929
0.0991522
0.0893414
0.138625
0.42555
0.295781
0.211853
0.156527
0.119585
0.0961733
0.0876788
0.137313
0.342658
0.248376
0.185013
0.141432
0.111325
0.0920553
0.0863253
0.13923
0.265237
0.203886
0.159324
0.126817
0.103559
0.0888075
0.0866269
0.145717
0.294038
0.226019
0.176406
0.140224
0.114435
0.0982864
0.0965854
0.166348
0.36569
0.265232
0.197972
0.151746
0.119806
0.0994592
0.0939751
0.15458
0.425398
0.297345
0.2151
0.160634
0.123921
0.100536
0.0925317
0.147227
0.434006
0.301665
0.217124
0.161365
0.12384
0.0998497
0.0911304
0.143147
0.386285
0.275489
0.202523
0.153044
0.11903
0.0970727
0.0895255
0.141882
0.316172
0.235149
0.179269
0.139638
0.11151
0.0932569
0.0883067
0.144037
0.25014
0.196555
0.156461
0.126355
0.104332
0.0902632
0.088744
0.150802
0.267695
0.212376
0.170061
0.137844
0.114157
0.0991908
0.0983946
0.170346
0.323662
0.244047
0.188149
0.147788
0.1188
0.100001
0.0955617
0.1582
0.369884
0.269508
0.202223
0.155318
0.122301
0.100777
0.0939265
0.150462
0.377366
0.273372
0.204082
0.155968
0.12215
0.100016
0.0924343
0.146188
0.341795
0.253362
0.19238
0.148914
0.117847
0.0974094
0.0908558
0.144941
0.287518
0.221039
0.172877
0.137162
0.11102
0.0938608
0.0897311
0.147261
0.234139
0.188606
0.152932
0.125164
0.104394
0.0910888
0.0902508
0.154157
0.245793
0.201141
0.1647
0.135616
0.113657
0.0997754
0.0998803
0.173238
0.287526
0.226417
0.17994
0.144268
0.11768
0.100264
0.0968537
0.160848
0.319938
0.245791
0.191393
0.150645
0.120644
0.100765
0.0950444
0.152811
0.325641
0.249092
0.193031
0.151165
0.120388
0.0999086
0.0934524
0.14836
0.302375
0.234544
0.183659
0.145058
0.11644
0.0974031
0.0918604
0.147074
0.262963
0.209013
0.16714
0.134587
0.110149
0.094057
0.0907873
0.14947
0.220526
0.181604
0.149469
0.123606
0.103966
0.0914611
0.0913525
0.156382
0.232058
0.19386
0.160958
0.133842
0.113127
0.100197
0.101229
0.175938
0.265043
0.215239
0.174412
0.141623
0.116686
0.100411
0.0980077
0.163314
0.288642
0.230824
0.184175
0.147195
0.119234
0.100675
0.0960364
0.155053
0.293567
0.233677
0.185538
0.147524
0.118837
0.0997062
0.0943385
0.150445
0.277426
0.222193
0.177428
0.141915
0.115066
0.0972332
0.0927011
0.149063
0.247085
0.200716
0.1627
0.132238
0.109121
0.0940182
0.0916443
0.151448
0.211329
0.176373
0.146438
0.121921
0.103249
0.0915535
0.0922425
0.158326
0.226225
0.190249
0.158647
0.132481
0.11261
0.100509
0.102526
0.179271
0.255814
0.210052
0.171299
0.139798
0.115871
0.100505
0.0990899
0.166302
0.275774
0.223945
0.180215
0.144907
0.118144
0.100588
0.0969665
0.157858
0.279882
0.226314
0.181269
0.145033
0.11761
0.099513
0.0951631
0.153104
0.266348
0.215861
0.173552
0.139572
0.113884
0.0970258
0.0934642
0.151586
0.239502
0.195933
0.159543
0.130254
0.108112
0.093873
0.0923961
0.153892
0.206237
0.17277
0.143894
0.120274
0.102421
0.0914938
0.0930269
0.160739
0.224987
0.188445
0.156878
0.131186
0.111978
0.100603
0.10356
0.183007
0.25466
0.208117
0.169303
0.138286
0.115068
0.100456
0.0999443
0.169751
0.273922
0.221629
0.177931
0.143189
0.117188
0.100412
0.0976818
0.16111
0.277371
0.223592
0.178746
0.143158
0.116552
0.0992506
0.0957738
0.156149
0.263794
0.212997
0.170971
0.137693
0.112821
0.0967308
0.0940013
0.154403
0.23684
0.193087
0.157092
0.12851
0.10713
0.0935948
0.0928926
0.156525
0.203413
0.170035
0.141646
0.118703
0.101539
0.0912521
0.0935199
0.163268
0.224495
0.186988
0.155366
0.130064
0.111366
0.100499
0.104136
0.186625
0.255471
0.206978
0.167784
0.137088
0.114383
0.100277
0.100401
0.173049
0.275919
0.220828
0.176439
0.141925
0.116425
0.100155
0.0980317
0.164178
0.279082
0.222639
0.17716
0.141846
0.11575
0.0989372
0.0960317
0.158978
0.264034
0.211484
0.169222
0.13634
0.111992
0.0963726
0.0941789
0.156969
0.235671
0.191134
0.15528
0.127179
0.106306
0.0932069
0.0930078
0.158863
0.20142
0.167926
0.139881
0.117431
0.100735
0.0908476
0.0935961
0.165489
0.282259
0.214159
0.159798
0.118013
0.087657
0.0677328
0.0593802
0.0894666
0.368352
0.271155
0.196412
0.140525
0.100712
0.0747503
0.0625999
0.0889933
0.450979
0.327077
0.23272
0.162958
0.113768
0.0819048
0.0663072
0.0906209
0.49337
0.355995
0.25186
0.175154
0.121149
0.0861805
0.0688587
0.0930813
0.470474
0.341396
0.243486
0.170885
0.119364
0.085792
0.0693616
0.0954508
0.396889
0.29382
0.214024
0.153685
0.110145
0.081488
0.0681156
0.0980221
0.313377
0.239765
0.179978
0.133243
0.0987909
0.075994
0.0665492
0.101907
0.281374
0.218005
0.165274
0.12378
0.0933258
0.0733416
0.0654013
0.0993092
0.357217
0.270551
0.200295
0.145873
0.106369
0.0804419
0.0686636
0.0986378
0.425829
0.319841
0.233911
0.167351
0.119163
0.0875808
0.0724074
0.100122
0.462618
0.345577
0.251789
0.179133
0.126467
0.0918979
0.0750345
0.102619
0.442123
0.333268
0.244777
0.175629
0.125072
0.091706
0.0756686
0.105266
0.382813
0.292677
0.21842
0.159758
0.116411
0.0876419
0.0745826
0.108312
0.311498
0.244125
0.186557
0.140113
0.105344
0.0822824
0.0731707
0.112738
0.285286
0.223489
0.170927
0.129272
0.0987314
0.0788585
0.0715615
0.10964
0.356025
0.274213
0.205502
0.151369
0.11188
0.0860438
0.0748248
0.108729
0.415973
0.319949
0.237906
0.17253
0.124665
0.0932606
0.0786418
0.110132
0.446408
0.343446
0.255207
0.184289
0.132067
0.0976931
0.0813778
0.112684
0.431139
0.333649
0.249471
0.181433
0.131002
0.0976705
0.0821295
0.115571
0.381713
0.297494
0.224999
0.16636
0.122678
0.0937545
0.0811614
0.11901
0.3167
0.25146
0.194013
0.147008
0.111732
0.0884913
0.0799148
0.123966
0.295987
0.231679
0.177359
0.134829
0.104036
0.0843157
0.0778294
0.120617
0.368584
0.284163
0.213086
0.157538
0.117468
0.0915985
0.0810433
0.119412
0.428155
0.330924
0.246499
0.179355
0.130624
0.0990195
0.0849586
0.12079
0.457802
0.3551
0.264597
0.191706
0.138391
0.103674
0.0878447
0.123484
0.445282
0.346708
0.2597
0.189313
0.137567
0.103781
0.0887008
0.126576
0.398128
0.31095
0.235196
0.174187
0.129224
0.0998773
0.0878019
0.130298
0.332054
0.263599
0.203329
0.154408
0.118137
0.0946381
0.086734
0.135793
0.311199
0.240748
0.18328
0.139617
0.108698
0.0893171
0.0838115
0.131603
0.392679
0.298088
0.221231
0.163169
0.122385
0.096613
0.0868974
0.130031
0.460714
0.350244
0.257502
0.186264
0.136057
0.104242
0.0908879
0.131428
0.495402
0.378047
0.277776
0.199734
0.144347
0.109149
0.0939293
0.13432
0.48327
0.369983
0.27322
0.197603
0.143689
0.109362
0.0948905
0.137611
0.43052
0.330788
0.247024
0.181797
0.135116
0.105408
0.0940484
0.141532
0.355723
0.278681
0.212905
0.161131
0.123763
0.100177
0.0931775
0.147532
0.325378
0.247167
0.186797
0.142735
0.11228
0.0935586
0.0891686
0.142406
0.421134
0.310835
0.226903
0.166756
0.125934
0.100705
0.0920401
0.140424
0.505477
0.371616
0.266837
0.191078
0.139929
0.108392
0.0960142
0.141833
0.550925
0.405658
0.290185
0.205793
0.148663
0.113464
0.0991456
0.144908
0.536927
0.397101
0.285669
0.203805
0.148104
0.113745
0.100194
0.148373
0.471512
0.35148
0.256767
0.187072
0.139264
0.109748
0.0994318
0.152459
0.382038
0.292222
0.219779
0.165509
0.127732
0.104587
0.0987959
0.158953
0.331742
0.248142
0.187269
0.144293
0.114975
0.0970982
0.0937902
0.153086
0.442164
0.316426
0.228034
0.167966
0.128236
0.103975
0.0964139
0.150728
0.547991
0.386461
0.270751
0.192762
0.14216
0.111545
0.100291
0.152187
0.610419
0.428611
0.297115
0.208332
0.151072
0.116637
0.103431
0.155454
0.593346
0.419263
0.292598
0.206432
0.150551
0.116944
0.104545
0.159109
0.509418
0.36559
0.260994
0.189
0.141568
0.112956
0.103897
0.163388
0.40164
0.298862
0.221803
0.167051
0.130102
0.107952
0.103527
0.170385
0.326052
0.243951
0.185883
0.145193
0.117272
0.100176
0.0977893
0.163342
0.440657
0.311463
0.225141
0.167806
0.129982
0.106782
0.100201
0.160632
0.564111
0.385722
0.268026
0.192056
0.143496
0.114131
0.103938
0.16201
0.644533
0.433685
0.295794
0.207752
0.152291
0.119118
0.107008
0.165321
0.625431
0.424484
0.291511
0.205951
0.151778
0.119428
0.108177
0.169245
0.523738
0.365405
0.258717
0.188377
0.142845
0.115534
0.107712
0.174024
0.402003
0.295209
0.219268
0.166774
0.131675
0.110762
0.107649
0.181768
0.311112
0.236167
0.183053
0.145326
0.118948
0.102604
0.100957
0.171346
0.416898
0.297939
0.219049
0.166317
0.13095
0.108925
0.103201
0.168291
0.537938
0.368304
0.258955
0.188834
0.143621
0.115903
0.106742
0.169365
0.621701
0.416214
0.285685
0.203622
0.151869
0.120615
0.10967
0.172552
0.606014
0.408267
0.281857
0.201932
0.151358
0.120936
0.1109
0.176763
0.502465
0.350112
0.250355
0.185274
0.142945
0.117337
0.110703
0.182246
0.382628
0.283064
0.213281
0.165053
0.132481
0.112949
0.110984
0.19087
0.288518
0.224916
0.178468
0.144335
0.119727
0.104226
0.103235
0.176737
0.376646
0.277229
0.209816
0.163242
0.130895
0.110254
0.105368
0.173431
0.47813
0.336033
0.243693
0.182911
0.142344
0.11676
0.108723
0.174157
0.553778
0.377347
0.266393
0.195594
0.149616
0.121068
0.111491
0.177127
0.540747
0.370524
0.262934
0.193976
0.149125
0.121416
0.112784
0.181572
0.447839
0.320139
0.235804
0.179476
0.141684
0.118268
0.112874
0.187726
0.346773
0.263528
0.204011
0.161729
0.132316
0.114373
0.113467
0.197078
0.265255
0.21347
0.173582
0.142826
0.119857
0.105175
0.10478
0.179947
0.333977
0.255939
0.200359
0.159792
0.130288
0.11097
0.106867
0.176544
0.408601
0.300794
0.227581
0.176523
0.140548
0.117059
0.110105
0.177014
0.463474
0.330857
0.24478
0.186713
0.146767
0.120977
0.112764
0.179814
0.451968
0.324752
0.241534
0.185136
0.1463
0.121364
0.11412
0.184432
0.382931
0.286735
0.220183
0.173164
0.139934
0.118677
0.114451
0.191103
0.307714
0.243004
0.194388
0.158055
0.131676
0.115243
0.115268
0.200882
0.246989
0.20462
0.169683
0.141367
0.119604
0.105616
0.105783
0.181653
0.299314
0.239351
0.193083
0.156984
0.129553
0.111274
0.107865
0.178254
0.350361
0.272709
0.215086
0.17152
0.138977
0.117101
0.111072
0.178601
0.382414
0.292486
0.227682
0.179749
0.144444
0.12079
0.11372
0.181382
0.373084
0.287192
0.224702
0.178272
0.144033
0.121233
0.115139
0.186129
0.329765
0.260444
0.208223
0.168355
0.138526
0.118905
0.11563
0.193118
0.276609
0.227147
0.187115
0.155254
0.131098
0.115812
0.116589
0.203052
0.236336
0.199342
0.167068
0.140049
0.119034
0.105639
0.106422
0.182854
0.278643
0.229693
0.188731
0.155041
0.128774
0.11123
0.108485
0.179432
0.314597
0.256082
0.207775
0.16843
0.137807
0.116967
0.111726
0.179781
0.333726
0.269867
0.217792
0.175663
0.142941
0.120606
0.114445
0.182669
0.326907
0.26541
0.215117
0.174333
0.142644
0.121135
0.115929
0.187472
0.297907
0.245237
0.20151
0.165635
0.137656
0.119023
0.116493
0.194521
0.25828
0.218136
0.18308
0.153652
0.130703
0.116151
0.117564
0.204516
0.2326
0.196992
0.165289
0.138663
0.118096
0.105258
0.106775
0.184431
0.271541
0.226286
0.186734
0.153629
0.127816
0.110807
0.108782
0.180975
0.301323
0.250272
0.205017
0.166844
0.136838
0.11658
0.112089
0.181501
0.314819
0.261758
0.214267
0.173918
0.142002
0.120303
0.114926
0.184592
0.309155
0.257778
0.211845
0.172744
0.141823
0.120921
0.116471
0.189376
0.286365
0.240257
0.19929
0.16446
0.137016
0.118895
0.117065
0.196275
0.252259
0.215346
0.181649
0.152784
0.130231
0.116163
0.118289
0.206388
0.232528
0.195688
0.163445
0.136857
0.116655
0.104326
0.106505
0.185729
0.273251
0.226143
0.185437
0.151979
0.126349
0.109792
0.108427
0.182298
0.303987
0.251189
0.204401
0.16552
0.135497
0.115616
0.111799
0.183201
0.317372
0.263122
0.21412
0.172882
0.140829
0.119452
0.114759
0.186626
0.311953
0.259315
0.211855
0.171857
0.140751
0.120145
0.116374
0.191412
0.289147
0.241584
0.199088
0.163476
0.135934
0.11815
0.117
0.198071
0.254505
0.215898
0.181001
0.151656
0.129178
0.115523
0.118364
0.208217
0.232574
0.194157
0.161389
0.134859
0.114951
0.102974
0.105565
0.186466
0.276256
0.226043
0.183866
0.150043
0.124562
0.108323
0.107379
0.183097
0.310854
0.253306
0.203853
0.163974
0.133831
0.114178
0.110793
0.184509
0.326512
0.266934
0.214428
0.171712
0.139328
0.118098
0.11384
0.188334
0.320044
0.26294
0.212185
0.17073
0.139257
0.118812
0.115498
0.193141
0.295934
0.24379
0.198659
0.162023
0.134345
0.116811
0.116142
0.19948
0.258045
0.216265
0.179778
0.149958
0.127582
0.114276
0.117642
0.209642
0.307844
0.235023
0.175983
0.129811
0.0957261
0.0731666
0.0637426
0.0978354
0.373885
0.276418
0.201232
0.143935
0.102068
0.0741736
0.0609021
0.0881068
0.418193
0.305647
0.219874
0.15496
0.107582
0.0758916
0.0599424
0.0823495
0.420898
0.307857
0.22163
0.156168
0.108113
0.075774
0.0591124
0.0789836
0.382647
0.283
0.205751
0.146249
0.102066
0.072044
0.0565212
0.0761234
0.322992
0.242879
0.17945
0.129616
0.0921333
0.0665318
0.0537236
0.0753167
0.25889
0.200834
0.152369
0.113111
0.0831532
0.0626661
0.0532268
0.0790882
0.306885
0.24007
0.183015
0.136949
0.102444
0.0795846
0.0705055
0.108751
0.365652
0.279118
0.207942
0.151291
0.108978
0.0806674
0.0675898
0.0984333
0.404563
0.306784
0.226537
0.162575
0.114697
0.0824536
0.0665538
0.0922655
0.409288
0.310584
0.229352
0.164275
0.115343
0.0822191
0.0654469
0.0885722
0.379048
0.289478
0.214897
0.154781
0.109328
0.0784353
0.0628646
0.0857829
0.328169
0.25262
0.189276
0.137995
0.0991352
0.0727915
0.0601106
0.085369
0.268609
0.211257
0.161498
0.120627
0.0895295
0.0685286
0.0593689
0.0892012
0.312729
0.247947
0.190858
0.144111
0.109034
0.0859672
0.0774245
0.120199
0.368465
0.286794
0.216397
0.159013
0.115896
0.0872171
0.0745511
0.10941
0.404497
0.31425
0.235544
0.170816
0.121895
0.0890902
0.0734264
0.102882
0.410974
0.319447
0.23926
0.172889
0.122546
0.0886418
0.0719528
0.0988274
0.386598
0.300701
0.225401
0.163321
0.116323
0.0846979
0.0693231
0.0960064
0.340251
0.264682
0.19926
0.145848
0.105666
0.0788263
0.066484
0.0957793
0.281073
0.22198
0.169929
0.127329
0.0953389
0.0741346
0.0655254
0.099718
0.328613
0.260539
0.200524
0.15179
0.115678
0.0923172
0.0844192
0.132281
0.387804
0.302473
0.228148
0.167839
0.12309
0.0938216
0.0816215
0.121101
0.426177
0.332504
0.249132
0.180646
0.129517
0.09581
0.0804001
0.114216
0.434735
0.33912
0.253533
0.182955
0.130115
0.0951245
0.0785442
0.109845
0.411559
0.319975
0.238865
0.172612
0.123347
0.0908709
0.0757944
0.106834
0.362966
0.280971
0.210312
0.153614
0.111886
0.0846142
0.0727531
0.106595
0.298213
0.233942
0.178179
0.133529
0.100742
0.0794981
0.0716242
0.11067
0.352834
0.276081
0.210463
0.158802
0.12154
0.0980439
0.0910026
0.144231
0.42274
0.324349
0.241409
0.176368
0.129594
0.0998135
0.0882142
0.132703
0.469744
0.359962
0.26544
0.190534
0.136491
0.101887
0.0869131
0.125532
0.481163
0.368209
0.270513
0.192997
0.136989
0.100983
0.084752
0.120865
0.453642
0.345667
0.25352
0.181246
0.12947
0.0963459
0.081786
0.117622
0.394718
0.299576
0.220778
0.160138
0.117056
0.0896599
0.0785223
0.117372
0.318111
0.245462
0.185022
0.138452
0.105251
0.0842589
0.0773314
0.121679
0.379621
0.290044
0.217665
0.16343
0.1257
0.102596
0.0967295
0.155843
0.465945
0.346844
0.252348
0.182376
0.134229
0.10452
0.0938535
0.143981
0.528049
0.390545
0.28014
0.197969
0.141555
0.106655
0.0924672
0.136584
0.543221
0.400598
0.285856
0.200484
0.141941
0.1056
0.0901342
0.131625
0.50596
0.371964
0.265397
0.187107
0.13371
0.100616
0.0869193
0.128318
0.429006
0.31544
0.227672
0.164004
0.120569
0.0936313
0.0834841
0.127828
0.335285
0.253019
0.188647
0.141299
0.108505
0.0881951
0.0824116
0.132353
0.399616
0.297036
0.219942
0.165152
0.128197
0.106062
0.101559
0.167488
0.504991
0.362238
0.257382
0.184773
0.136848
0.107942
0.0984725
0.155317
0.585359
0.414877
0.288584
0.201382
0.144403
0.110099
0.0969954
0.147661
0.60483
0.426471
0.294586
0.203849
0.144743
0.109004
0.0946386
0.14233
0.553044
0.389694
0.270612
0.189206
0.136046
0.103792
0.0911785
0.138929
0.452857
0.322249
0.228992
0.165036
0.122649
0.0967021
0.0877229
0.137981
0.342539
0.253872
0.188609
0.142344
0.110797
0.0914677
0.0868864
0.142736
0.40038
0.293608
0.217542
0.164968
0.129847
0.108941
0.105777
0.179101
0.520474
0.362922
0.255511
0.184343
0.138262
0.110615
0.102358
0.16655
0.617795
0.422136
0.2885
0.201261
0.145826
0.112708
0.100746
0.158264
0.639536
0.434305
0.294542
0.20363
0.146073
0.111633
0.0984678
0.152355
0.571196
0.390422
0.268301
0.188459
0.137281
0.106337
0.0948288
0.148812
0.451912
0.317162
0.225652
0.164441
0.124085
0.0993394
0.0914577
0.147807
0.336166
0.248774
0.186381
0.142605
0.112696
0.0943692
0.0908974
0.152763
0.381373
0.28161
0.211625
0.163285
0.130683
0.11116
0.109188
0.18833
0.501326
0.348229
0.247256
0.181229
0.138347
0.11239
0.105304
0.175213
0.609444
0.408715
0.279408
0.197259
0.145355
0.114182
0.103481
0.166445
0.632434
0.420864
0.285208
0.199491
0.145552
0.113178
0.101367
0.159968
0.551052
0.374466
0.259153
0.184863
0.137148
0.108049
0.0977509
0.156519
0.429128
0.303168
0.218811
0.162368
0.12473
0.101407
0.0946258
0.15587
0.320229
0.239756
0.182534
0.142052
0.114007
0.0967252
0.0942671
0.161117
0.345698
0.262114
0.202362
0.159958
0.130522
0.112607
0.111724
0.194676
0.447291
0.318145
0.232478
0.175249
0.136965
0.113236
0.107446
0.18068
0.545757
0.371091
0.26005
0.188921
0.142864
0.114543
0.105318
0.171494
0.567715
0.382114
0.265161
0.190811
0.142974
0.11361
0.103426
0.165309
0.493784
0.341657
0.242819
0.178148
0.135493
0.108901
0.0999991
0.161887
0.38831
0.281011
0.208334
0.158519
0.124355
0.102791
0.0971433
0.161676
0.29564
0.226761
0.176704
0.140317
0.114471
0.0983801
0.0968743
0.167213
0.306583
0.24153
0.192706
0.156272
0.129891
0.113524
0.113611
0.198626
0.381796
0.284108
0.216434
0.16871
0.1351
0.113618
0.109073
0.184022
0.456065
0.323712
0.237495
0.179416
0.139757
0.114439
0.106721
0.174713
0.473769
0.332515
0.24157
0.180889
0.139724
0.113522
0.104972
0.168947
0.419446
0.30297
0.224603
0.170686
0.133326
0.109289
0.101837
0.165592
0.341358
0.256753
0.197084
0.154167
0.123506