/*--------------------------------*- C++ -*----------------------------------*\
| =========                 |                                                 |
| \\      /  F ield         | OpenFOAM: The Open Source CFD Toolbox           |
|  \\    /   O peration     | Version:  plus.master.MPPICInterFoam            |
|   \\  /    A nd           | Web:      www.OpenFOAM.com                      |
|    \\/     M anipulation  |                                                 |
\*---------------------------------------------------------------------------*/
FoamFile
{
    version     2.0;
    format      ascii;
    class       volScalarField;
    location    "7.2";
    object      p;
}
// * * * * * * * * * * * * * * * * * * * * * * * * * * * * * * * * * * * * * //

dimensions      [1 -1 -2 0 0 0 0];

internalField   nonuniform List<scalar> 
11821
(
2309.79
2310.14
2310.79
2310.11
2310.95
2312.21
2230.33
2232.61
2234.16
2234.11
2232.82
2230.3
2229.16
2233.23
2239.51
2241.64
2241.41
2239.97
2233.75
2229.92
2235.58
2240.07
2240.75
2240.33
2240.38
2236.44
2230.36
2235.92
2239.46
2238.65
2237.49
2239.99
2237.09
2230.33
2234.73
2240.13
2240.31
2240.09
2240.21
2235.36
2230.28
2231.66
2235.97
2238.6
2238.8
2236.39
2231.91
2229.63
2229.88
2230.9
2231.47
2231.43
2230.9
2229.78
2229.18
2149.89
2153.28
2156.09
2156.18
2153.41
2149.7
2147.29
2153.79
2162.71
2168.28
2168.53
2163.52
2154.33
2149.04
2158.02
2170.31
2173.34
2173.23
2170.96
2159.1
2150.47
2158.59
2169.46
2171.5
2172.27
2170.52
2159.81
2150.64
2155.88
2166.73
2170.36
2170.62
2167.74
2156.87
2149.62
2151.21
2157.07
2161.3
2161.49
2157.66
2151.47
2147.77
2148.28
2150.33
2151.72
2151.66
2150.2
2147.94
2146.06
2058.55
2060.02
2061.21
2061.26
2059.89
2058.3
2056.77
2060.1
2063.82
2067.47
2067.89
2064.17
2060.19
2058.03
2062.31
2072.1
2078.15
2080.78
2072.45
2062.85
2059.07
2063.61
2075.43
2083.25
2084.67
2074.74
2063.96
2059.34
2061.49
2069.04
2076.7
2076.87
2069.64
2061.87
2058.59
2059.43
2062.18
2065.01
2065.22
2062.26
2059.36
2057.25
2057.8
2059.22
2060.16
2060.08
2058.94
2057.37
2055.74
1962.93
1964.39
1965.49
1965.47
1964.24
1962.97
1961.38
1964.14
1965.9
1968.17
1968.12
1965.67
1964.29
1962.59
1964.99
1969.64
1972.11
1971.58
1969.07
1965.54
1963.51
1965.65
1971.31
1976.84
1990.36
1971.82
1966.82
1963.96
1964.78
1967.24
1973.33
1973.23
1968.08
1965.4
1963.24
1963.53
1965.12
1966.38
1966.91
1965.35
1963.87
1962.02
1961.98
1963.28
1964.11
1964.22
1963.33
1962.06
1960.47
1863.97
1866.07
1867.53
1867.89
1866.82
1864.97
1862.69
1865.78
1868.07
1870.58
1871.41
1868.41
1867.13
1864.28
1866.92
1870.53
1870.37
1872.5
1873.4
1868.07
1865.18
1867.05
1870.09
1868.21
1874.37
1872.2
1868.31
1865.43
1866.09
1867.84
1871.49
1870.76
1869.14
1867.28
1864.74
1864.54
1866.48
1867.56
1867.85
1867.2
1865.59
1863.38
1862.54
1864.06
1864.99
1865.24
1864.67
1863.38
1861.62
1756.68
1756.61
1755.69
1755.45
1755.7
1757.1
1756.72
1756.79
1756.1
1753.69
1753.87
1754.52
1755.77
1757.33
1756.23
1754.61
1753.03
1743.87
1754.9
1755.25
1757.42
1756.04
1753.14
1744.59
1743.4
1749.59
1754.73
1757.56
1756.59
1754.31
1752.01
1749.6
1751.98
1755.85
1757.8
1757.25
1756.5
1755.42
1755.22
1756.06
1757.78
1757.68
1756.81
1757.47
1757.56
1757.8
1757.97
1757.74
1757.02
1643.08
1639.48
1634.68
1633.12
1636.36
1640.64
1645.14
1640.3
1633.16
1631.82
1628.85
1624.91
1637.14
1642.91
1636.16
1631.79
1635.56
1630.28
1627.72
1631.65
1641.86
1635.25
1629.81
1636.77
1620.73
1626.99
1631.61
1641.95
1638.51
1630.5
1627.88
1623.54
1625.93
1635.45
1643.36
1642.61
1638.17
1632.74
1632
1635.18
1641.26
1645.9
1646.21
1644.36
1642.86
1642.69
1643.76
1646.04
1648.23
1537.33
1532.85
1531.67
1532.34
1535.69
1538.32
1542.94
1532.36
1527.59
1520.12
1522.17
1530.62
1535.93
1539.62
1530.07
1519.53
1524.78
1527.34
1522.71
1530.29
1537.66
1529.85
1520.29
1528.84
1518.37
1530.19
1528.86
1537.34
1532.58
1525.78
1521.65
1528.53
1528.14
1533.23
1539.06
1536.96
1532.76
1529.12
1528.52
1533.06
1537.02
1542.47
1542.53
1538.97
1537.09
1537.16
1539.06
1542.49
1546.51
1454.21
1453.45
1454.85
1455.71
1456.16
1455.67
1457.26
1452.57
1452.96
1448.7
1449.2
1456.82
1455.62
1455.4
1452.9
1449.8
1448.75
1449.42
1449.92
1453.91
1454.22
1453.39
1450.39
1449.8
1449.86
1452.04
1453.15
1454.18
1453.59
1452.84
1450.27
1452.25
1454.23
1454.59
1455.21
1454.44
1453.69
1453.25
1452.98
1454.41
1454.84
1456.92
1457
1454.94
1454.06
1454.12
1455.19
1456.93
1459.57
1382.19
1384.92
1385.87
1385.1
1383.15
1380.78
1380.42
1384.68
1389.94
1388.33
1386.7
1385.67
1383.21
1380.02
1385.81
1389.27
1387.02
1385.68
1386.28
1384.76
1380.07
1385.77
1389.01
1387.11
1386.08
1385.63
1384.66
1379.91
1384.42
1388.93
1388.21
1386.26
1385.57
1383.49
1379.81
1381.64
1384.66
1385.72
1384.77
1383.43
1380.95
1379.94
1381.1
1380.89
1380.78
1380.27
1380.01
1380.04
1380.92
1308.9
1313.46
1316.59
1316.13
1312.85
1308.18
1306.16
1313.22
1322.12
1323.32
1322.33
1320.08
1313.9
1307.19
1316.31
1323.85
1323.28
1322.09
1319.93
1317.17
1308.09
1316.03
1323.37
1322.18
1320.93
1320.57
1317.57
1307.86
1312.68
1321.3
1321.18
1319.31
1319.82
1314.46
1306.63
1307.98
1313.47
1316.7
1316.36
1314.03
1308.41
1305.21
1306.13
1307.09
1307.87
1307.53
1306.61
1305.27
1304.72
1231.63
1236.91
1243.46
1244.46
1240.03
1233.11
1229.45
1236.73
1250.37
1260.56
1261.41
1256.34
1241.86
1232.12
1241.89
1259.42
1267.38
1266.69
1264.76
1251.06
1234.76
1242.31
1259.93
1268.08
1268.47
1265.32
1251.76
1234.72
1237.43
1252.87
1263.43
1264.77
1260.01
1244.12
1232.08
1231.39
1238.57
1247.67
1250.39
1243.59
1234.1
1228.82
1228.33
1230.66
1233.37
1234.03
1231.84
1228.76
1226.38
1140.94
1143.67
1147.1
1148.15
1145.91
1141.84
1139.34
1143.68
1152.22
1166.06
1171.13
1160.79
1146.92
1141.18
1145.97
1162.45
1176.71
1182.79
1184.36
1153.13
1142.67
1146.67
1163.78
1180.67
1188.36
1176.18
1153.54
1142.57
1143.97
1154.57
1172.22
1181.11
1165.32
1148.09
1141.17
1140.65
1144.58
1149.74
1151.76
1147.23
1142.13
1138.78
1138.42
1140.11
1141.48
1141.87
1140.68
1138.63
1136.61
1041.11
1041.22
1041.18
1040.76
1040.35
1040.36
1039.85
1041.46
1042.69
1044.32
1044.7
1041.2
1039.98
1040.21
1041.82
1048.68
1044.03
1044.04
1041.62
1039.72
1040.1
1041.48
1049.1
1042.48
1041.43
1037.13
1039.45
1040.16
1040.9
1040.99
1040.72
1040.25
1039.73
1039.71
1040.03
1040.55
1040.65
1040.2
1039.68
1039.64
1039.98
1039.52
1039.88
1040.48
1040.46
1040.27
1040.04
1039.55
1038.77
937.408
935.997
933.845
932.983
934.666
936.731
938.07
936.386
930.814
928.033
927.615
927.921
934.689
937.666
935.627
933.004
928.786
925.26
926.924
933.249
937.508
934.923
933.555
931.336
928.496
940.626
933.878
937.774
936.111
932.049
932.949
927.938
930.697
935.665
938.265
937.661
935.954
934.346
933.94
935.255
937.485
938.833
938.56
938.421
938.183
938.16
938.539
938.95
939.01
835.041
833.414
830.301
831.547
834.274
835.407
837.871
832.804
832.677
827.273
824.866
830.457
834.582
836.712
831.247
825.742
821.075
824.415
827.099
830.82
836.334
832.312
824.871
822.281
823.62
836.515
830.547
836.417
833.368
832.271
831.417
829.151
830.511
834.82
837.194
835.317
833.943
829.877
830.861
834.58
835.931
838.638
837.668
836.28
835.715
835.945
837.185
838.66
839.97
2317.72
2318.07
2314.15
2315.48
2316.52
2317.3
2317.87
2318.2
2310.7
2312.59
2314.24
2315.61
2316.67
2317.47
2318.03
2318.35
2311.46
2313.14
2314.65
2315.91
2316.9
2317.65
2318.17
2318.46
2312.38
2313.88
2315.22
2316.32
2317.18
2317.83
2318.28
2318.53
2313.5
2314.7
2315.81
2316.73
2317.46
2318.01
2318.39
2318.6
2228.43
2228.33
2228.31
2228.34
2228.42
2228.55
2228.74
2228.89
2228.72
2228.37
2228.25
2228.24
2228.31
2228.44
2228.65
2228.82
2228.82
2228.39
2228.25
2228.25
2228.32
2228.45
2228.64
2228.81
2228.8
2228.39
2228.27
2228.28
2228.36
2228.49
2228.67
2228.83
2228.89
2228.49
2228.36
2228.35
2228.42
2228.54
2228.71
2228.85
2228.75
2228.49
2228.41
2228.41
2228.48
2228.59
2228.74
2228.86
2228.67
2228.58
2228.53
2228.51
2228.55
2228.64
2228.77
2228.87
2145.13
2143.71
2142.48
2141.51
2140.82
2140.4
2140.22
2140.2
2146.12
2144.13
2142.62
2141.53
2140.77
2140.29
2140.08
2140.04
2146.77
2144.55
2142.87
2141.64
2140.78
2140.23
2139.98
2139.93
2146.81
2144.6
2142.89
2141.63
2140.74
2140.18
2139.9
2139.84
2146.32
2144.25
2142.64
2141.45
2140.62
2140.08
2139.82
2139.75
2145.3
2143.56
2142.19
2141.15
2140.43
2139.97
2139.74
2139.68
2144.21
2142.96
2141.84
2140.95
2140.31
2139.91
2139.72
2139.67
2054.94
2053.42
2052.01
2050.83
2049.93
2049.33
2048.98
2048.85
2055.79
2053.84
2052.21
2050.9
2049.9
2049.21
2048.81
2048.65
2056.43
2054.3
2052.49
2051.03
2049.91
2049.13
2048.68
2048.49
2056.59
2054.4
2052.53
2051.01
2049.85
2049.03
2048.55
2048.35
2056.08
2054.01
2052.21
2050.76
2049.65
2048.87
2048.41
2048.21
2055.11
2053.26
2051.66
2050.36
2049.38
2048.69
2048.28
2048.11
2053.98
2052.53
2051.17
2050.05
2049.19
2048.59
2048.23
2048.08
1959.81
1958.45
1957.18
1956.1
1955.26
1954.65
1954.25
1954.02
1960.66
1958.98
1957.49
1956.25
1955.27
1954.56
1954.09
1953.84
1961.27
1959.39
1957.74
1956.37
1955.28
1954.47
1953.95
1953.68
1961.5
1959.5
1957.77
1956.34
1955.2
1954.36
1953.81
1953.53
1961.01
1959.12
1957.46
1956.09
1955
1954.19
1953.66
1953.39
1960.1
1958.4
1956.92
1955.7
1954.73
1954.01
1953.54
1953.29
1958.97
1957.62
1956.37
1955.33
1954.5
1953.89
1953.49
1953.26
1861.01
1859.76
1858.72
1857.88
1857.2
1856.68
1856.3
1856.08
1862.18
1860.6
1859.27
1858.18
1857.33
1856.68
1856.23
1855.97
1862.85
1861.04
1859.53
1858.29
1857.33
1856.61
1856.12
1855.84
1863.01
1861.11
1859.53
1858.25
1857.26
1856.52
1856.01
1855.73
1862.51
1860.72
1859.24
1858.05
1857.11
1856.4
1855.91
1855.65
1861.52
1859.99
1858.73
1857.71
1856.89
1856.26
1855.82
1855.58
1860.29
1859.1
1858.11
1857.3
1856.65
1856.14
1855.77
1855.56
1756.39
1756.17
1756.1
1756.11
1756.06
1755.97
1755.83
1755.71
1757.28
1757.05
1756.79
1756.54
1756.3
1756.09
1755.9
1755.76
1757.67
1757.34
1756.96
1756.6
1756.32
1756.08
1755.88
1755.75
1757.81
1757.39
1756.96
1756.6
1756.31
1756.07
1755.88
1755.75
1757.75
1757.29
1756.9
1756.58
1756.3
1756.07
1755.88
1755.76
1757.4
1757.03
1756.75
1756.49
1756.27
1756.06
1755.88
1755.76
1756.8
1756.49
1756.34
1756.24
1756.13
1756
1755.86
1755.75
1648.05
1650
1651.75
1653.2
1654.23
1654.9
1655.26
1655.41
1647.51
1650.23
1652.18
1653.55
1654.49
1655.12
1655.49
1655.65
1647.27
1650.13
1652.09
1653.48
1654.49
1655.17
1655.6
1655.8
1647.37
1650.17
1652.12
1653.54
1654.57
1655.29
1655.72
1655.94
1648.1
1650.61
1652.46
1653.81
1654.78
1655.45
1655.86
1656.05
1649.24
1651.36
1652.99
1654.19
1655.05
1655.64
1655.98
1656.14
1650.41
1651.88
1653.23
1654.35
1655.17
1655.71
1656.01
1656.15
1547.12
1550.29
1553.04
1555.26
1556.93
1558.12
1558.9
1559.38
1545.58
1549.77
1552.94
1555.33
1557.07
1558.33
1559.18
1559.72
1544.67
1549.2
1552.57
1555.12
1557.03
1558.41
1559.35
1559.96
1544.62
1549.18
1552.62
1555.22
1557.17
1558.59
1559.55
1560.17
1545.7
1549.95
1553.21
1555.68
1557.53
1558.87
1559.77
1560.35
1547.7
1551.33
1554.2
1556.39
1558.01
1559.19
1559.97
1560.47
1550.09
1552.72
1555.04
1556.93
1558.36
1559.39
1560.07
1560.5
1459.87
1462.25
1464.32
1466.06
1467.45
1468.55
1469.38
1469.93
1458.63
1461.48
1463.9
1465.85
1467.4
1468.62
1469.56
1470.18
1457.95
1460.92
1463.5
1465.63
1467.34
1468.67
1469.69
1470.38
1457.98
1460.96
1463.58
1465.75
1467.48
1468.83
1469.86
1470.55
1458.72
1461.59
1464.1
1466.16
1467.8
1469.08
1470.04
1470.69
1460.06
1462.7
1464.97
1466.8
1468.25
1469.38
1470.24
1470.8
1461.95
1464.05
1465.91
1467.44
1468.66
1469.62
1470.36
1470.84
1380.96
1381.92
1382.7
1383.37
1383.98
1384.6
1385.2
1385.68
1380.31
1381.2
1382.11
1382.96
1383.75
1384.49
1385.19
1385.73
1379.93
1380.75
1381.77
1382.74
1383.62
1384.43
1385.18
1385.76
1379.82
1380.69
1381.75
1382.76
1383.65
1384.46
1385.21
1385.79
1380.02
1380.98
1382.01
1382.95
1383.8
1384.57
1385.28
1385.82
1380.56
1381.56
1382.49
1383.32
1384.06
1384.75
1385.38
1385.86
1381.56
1382.48
1383.22
1383.83
1384.4
1384.95
1385.49
1385.9
1304.89
1304.28
1303.58
1303
1302.69
1302.67
1302.88
1303.16
1304.78
1303.74
1302.96
1302.5
1302.32
1302.38
1302.65
1302.98
1304.62
1303.41
1302.71
1302.31
1302.14
1302.21
1302.5
1302.85
1304.34
1303.2
1302.57
1302.19
1302.03
1302.1
1302.38
1302.72
1304
1303.09
1302.48
1302.1
1301.96
1302.02
1302.29
1302.62
1303.72
1303.02
1302.46
1302.1
1301.95
1302.02
1302.26
1302.55
1303.73
1303.31
1302.79
1302.34
1302.11
1302.12
1302.31
1302.55
1226.47
1224.25
1222.19
1220.52
1219.39
1218.78
1218.58
1218.63
1227.23
1224.1
1221.73
1220.09
1219.02
1218.43
1218.24
1218.31
1227.83
1224.34
1221.83
1220.06
1218.89
1218.23
1218.01
1218.06
1227.63
1224.19
1221.69
1219.9
1218.71
1218.02
1217.78
1217.84
1226.6
1223.55
1221.21
1219.54
1218.44
1217.8
1217.58
1217.63
1225.13
1222.61
1220.59
1219.12
1218.13
1217.58
1217.41
1217.46
1223.79
1222.02
1220.34
1218.99
1218.06
1217.55
1217.39
1217.42
1136.99
1134.91
1133.01
1131.46
1130.36
1129.69
1129.37
1129.29
1137.66
1134.88
1132.73
1131.19
1130.1
1129.4
1129.06
1128.98
1138.19
1135.2
1132.91
1131.21
1130
1129.22
1128.83
1128.73
1138.1
1135.15
1132.81
1131.07
1129.82
1129.01
1128.61
1128.51
1137.25
1134.53
1132.34
1130.69
1129.52
1128.76
1128.38
1128.29
1135.84
1133.54
1131.63
1130.2
1129.17
1128.52
1128.2
1128.12
1134.45
1132.76
1131.18
1129.89
1128.97
1128.39
1128.11
1128.03
1039.08
1038.24
1037.44
1036.77
1036.24
1035.88
1035.66
1035.57
1039.41
1038.43
1037.54
1036.78
1036.18
1035.75
1035.49
1035.39
1039.49
1038.53
1037.6
1036.78
1036.09
1035.61
1035.32
1035.21
1039.48
1038.49
1037.52
1036.67
1035.98
1035.47
1035.18
1035.07
1039.24
1038.23
1037.27
1036.45
1035.79
1035.32
1035.04
1034.93
1038.67
1037.74
1036.86
1036.13
1035.55
1035.15
1034.91
1034.81
1037.93
1037.14
1036.41
1035.81
1035.34
1035.01
1034.81
1034.72
938.514
938.82
939.156
939.444
939.603
939.666
939.664
939.643
938.918
939.462
939.712
939.786
939.773
939.726
939.674
939.644
939.105
939.633
939.81
939.828
939.77
939.693
939.635
939.612
939.26
939.675
939.799
939.79
939.724
939.651
939.601
939.582
939.407
939.674
939.769
939.755
939.69
939.622
939.566
939.54
939.389
939.576
939.659
939.663
939.623
939.57
939.521
939.496
939.176
939.209
939.317
939.429
939.477
939.475
939.453
939.433
839.383
840.633
841.765
842.663
843.297
843.705
843.943
844.075
839.456
841.148
842.278
843.02
843.517
843.848
844.052
844.225
839.533
841.212
842.29
843.029
843.541
843.887
844.112
844.307
839.637
841.237
842.309
843.051
843.567
843.921
844.156
844.361
840.01
841.447
842.457
843.164
843.657
843.994
844.204
844.388
840.584
841.774
842.673
843.314
843.762
844.063
844.246
844.389
841.125
841.918
842.683
843.322
843.767
844.057
844.232
844.348
2228.96
2228.81
2228.8
2228.84
2228.93
2229.07
2229.26
2229.43
2229.51
2228.94
2228.78
2228.79
2228.9
2229.07
2229.3
2229.49
2230.41
2229.23
2228.87
2228.81
2228.88
2229.06
2229.31
2229.55
2230.58
2229.13
2228.74
2228.71
2228.82
2229.01
2229.29
2229.55
2230.53
2229.11
2228.72
2228.66
2228.76
2228.96
2229.23
2229.5
2229.84
2228.9
2228.65
2228.64
2228.74
2228.93
2229.19
2229.43
2228.91
2228.65
2228.6
2228.64
2228.74
2228.92
2229.15
2229.36
2146.02
2144.59
2143.32
2142.3
2141.55
2141.09
2140.9
2140.88
2147.6
2145.48
2143.85
2142.63
2141.79
2141.27
2141.06
2141.04
2149.53
2146.66
2144.67
2143.2
2142.18
2141.55
2141.29
2141.26
2150.63
2147.2
2145.05
2143.47
2142.37
2141.7
2141.41
2141.38
2150.42
2147.12
2144.98
2143.42
2142.35
2141.71
2141.43
2141.41
2148.79
2146.23
2144.4
2143.06
2142.14
2141.59
2141.37
2141.36
2147.04
2145.38
2143.94
2142.8
2141.99
2141.51
2141.32
2141.33
2055.96
2054.44
2052.97
2051.68
2050.69
2050.02
2049.64
2049.5
2057.19
2055.26
2053.51
2052.09
2051
2050.26
2049.84
2049.69
2058.41
2056.28
2054.32
2052.71
2051.47
2050.61
2050.12
2049.94
2059.26
2056.87
2054.8
2053.07
2051.74
2050.82
2050.3
2050.1
2058.83
2056.63
2054.65
2053
2051.72
2050.84
2050.34
2050.16
2057.78
2055.85
2054.08
2052.61
2051.48
2050.7
2050.28
2050.13
2056.69
2055.17
2053.66
2052.34
2051.33
2050.64
2050.27
2050.15
1960.59
1959.24
1957.9
1956.73
1955.81
1955.14
1954.71
1954.48
1961.69
1960
1958.47
1957.17
1956.14
1955.38
1954.9
1954.64
1962.73
1960.87
1959.16
1957.72
1956.56
1955.7
1955.14
1954.82
1963.31
1961.35
1959.55
1958.03
1956.8
1955.89
1955.28
1954.97
1963.01
1961.2
1959.48
1958
1956.8
1955.91
1955.35
1955.07
1962.33
1960.64
1959.06
1957.72
1956.62
1955.83
1955.34
1955.1
1961.36
1959.97
1958.61
1957.42
1956.47
1955.79
1955.36
1955.12
1861.34
1860.12
1859.05
1858.17
1857.47
1856.92
1856.51
1856.28
1862.64
1861.08
1859.75
1858.66
1857.79
1857.13
1856.66
1856.38
1863.83
1861.97
1860.42
1859.15
1858.13
1857.35
1856.81
1856.51
1864.47
1862.45
1860.77
1859.4
1858.31
1857.49
1856.91
1856.61
1864.33
1862.37
1860.74
1859.39
1858.33
1857.53
1856.98
1856.68
1863.53
1861.79
1860.34
1859.14
1858.2
1857.49
1857
1856.73
1862.24
1860.86
1859.69
1858.74
1857.99
1857.41
1856.99
1856.76
1756.86
1756.51
1756.33
1756.26
1756.16
1756.03
1755.86
1755.72
1757.4
1757.13
1756.84
1756.57
1756.33
1756.1
1755.88
1755.72
1757.71
1757.5
1757.11
1756.74
1756.41
1756.13
1755.87
1755.71
1757.67
1757.6
1757.19
1756.79
1756.43
1756.13
1755.87
1755.7
1757.61
1757.52
1757.16
1756.77
1756.44
1756.14
1755.89
1755.72
1757.38
1757.21
1756.93
1756.64
1756.38
1756.13
1755.9
1755.75
1756.79
1756.46
1756.3
1756.23
1756.15
1756.02
1755.85
1755.72
1648.89
1650.48
1651.95
1653.22
1654.15
1654.76
1655.08
1655.21
1647.19
1649.72
1651.57
1652.93
1653.9
1654.54
1654.89
1655.04
1645.53
1648.84
1650.93
1652.44
1653.5
1654.23
1654.65
1654.84
1644.34
1648.27
1650.51
1652.11
1653.25
1654.02
1654.47
1654.69
1644.54
1648.32
1650.54
1652.1
1653.22
1653.96
1654.4
1654.6
1645.61
1648.79
1650.84
1652.3
1653.35
1654.02
1654.4
1654.57
1646.9
1648.96
1650.72
1652.19
1653.26
1653.96
1654.33
1654.48
1546.82
1550
1552.65
1554.82
1556.48
1557.67
1558.44
1558.94
1543.27
1547.84
1551.28
1553.88
1555.79
1557.15
1558.06
1558.65
1539.94
1545.63
1549.71
1552.75
1554.96
1556.56
1557.63
1558.31
1537.78
1544.26
1548.72
1552
1554.41
1556.14
1557.28
1558.02
1537.89
1544.26
1548.69
1551.94
1554.32
1556
1557.12
1557.84
1539.69
1545.39
1549.44
1552.41
1554.58
1556.1
1557.1
1557.73
1542.97
1547.02
1550.26
1552.84
1554.79
1556.19
1557.08
1557.64
1459.47
1461.86
1463.92
1465.66
1467.06
1468.15
1468.97
1469.52
1457.19
1460.12
1462.64
1464.7
1466.35
1467.63
1468.61
1469.27
1455.36
1458.59
1461.41
1463.74
1465.62
1467.11
1468.24
1469.01
1454.37
1457.7
1460.64
1463.13
1465.14
1466.73
1467.94
1468.76
1454.2
1457.6
1460.55
1463.01
1465.01
1466.57
1467.77
1468.58
1454.82
1458.25
1461.09
1463.38
1465.21
1466.64
1467.73
1468.45
1456.62
1459.44
1461.86
1463.9
1465.53
1466.8
1467.75
1468.37
1381.27
1382.07
1382.76
1383.35
1383.9
1384.45
1385.01
1385.47
1380.7
1381.29
1382.03
1382.76
1383.48
1384.16
1384.84
1385.39
1381.05
1381.02
1381.65
1382.41
1383.19
1383.97
1384.73
1385.35
1381.35
1380.89
1381.42
1382.21
1383.02
1383.83
1384.64
1385.3
1381.51
1380.98
1381.43
1382.17
1382.98
1383.78
1384.58
1385.24
1381.32
1381.17
1381.68
1382.36
1383.08
1383.83
1384.57
1385.16
1380.9
1381.55
1382.22
1382.82
1383.4
1384.01
1384.63
1385.15
1304.8
1304.23
1303.56
1302.99
1302.64
1302.57
1302.74
1303.01
1305.22
1304.18
1303.37
1302.82
1302.55
1302.54
1302.77
1303.1
1306.68
1304.76
1303.71
1303.04
1302.72
1302.68
1302.93
1303.29
1308.12
1305.27
1304.02
1303.27
1302.88
1302.81
1303.06
1303.45
1308.43
1305.45
1304.1
1303.33
1302.93
1302.88
1303.14
1303.52
1307.32
1305.14
1303.97
1303.27
1302.92
1302.9
1303.16
1303.52
1306.12
1305.25
1304.38
1303.64
1303.21
1303.11
1303.3
1303.6
1225.61
1223.73
1221.91
1220.35
1219.24
1218.61
1218.4
1218.44
1227.03
1224.35
1222.15
1220.53
1219.43
1218.79
1218.58
1218.64
1229.45
1225.78
1223.13
1221.22
1219.94
1219.17
1218.91
1218.96
1231.55
1226.89
1223.88
1221.75
1220.33
1219.48
1219.18
1219.23
1231.52
1226.93
1223.93
1221.84
1220.43
1219.62
1219.34
1219.4
1229.67
1226.03
1223.42
1221.56
1220.31
1219.62
1219.39
1219.47
1227.92
1225.71
1223.56
1221.76
1220.51
1219.81
1219.57
1219.63
1136.25
1134.57
1132.88
1131.37
1130.26
1129.57
1129.23
1129.14
1137.48
1135.19
1133.21
1131.69
1130.57
1129.83
1129.46
1129.36
1139.18
1136.37
1134.11
1132.37
1131.1
1130.24
1129.8
1129.68
1140.46
1137.19
1134.73
1132.86
1131.48
1130.55
1130.08
1129.95
1140.31
1137.19
1134.77
1132.93
1131.57
1130.69
1130.24
1130.13
1139.42
1136.65
1134.42
1132.73
1131.5
1130.71
1130.32
1130.24
1138.31
1136.39
1134.46
1132.8
1131.6
1130.84
1130.48
1130.39
1039.22
1038.46
1037.61
1036.86
1036.28
1035.86
1035.6
1035.48
1039.83
1038.99
1038.08
1037.27
1036.6
1036.11
1035.79
1035.65
1040.41
1039.58
1038.61
1037.72
1036.97
1036.4
1036.03
1035.87
1040.79
1039.96
1038.97
1038.04
1037.24
1036.63
1036.25
1036.07
1040.92
1040.05
1039.07
1038.14
1037.35
1036.76
1036.39
1036.22
1040.76
1039.86
1038.88
1038.02
1037.31
1036.79
1036.47
1036.32
1040.35
1039.53
1038.63
1037.85
1037.25
1036.81
1036.54
1036.41
939.151
939.29
939.413
939.55
939.627
939.633
939.584
939.532
939.114
939.632
939.823
939.876
939.842
939.765
939.665
939.597
938.871
939.764
939.998
940.036
939.967
939.86
939.746
939.675
938.681
939.859
940.136
940.153
940.073
939.958
939.845
939.768
938.862
939.896
940.219
940.256
940.181
940.061
939.935
939.848
938.618
939.65
940.036
940.171
940.179
940.104
940.001
939.92
938.696
939.171
939.524
939.815
939.979
940.029
940
939.942
839.64
840.662
841.646
842.505
843.133
843.536
843.752
843.84
838.303
840.249
841.544
842.463
843.08
843.466
843.685
843.793
837.172
839.653
841.188
842.214
842.888
843.319
843.574
843.71
835.572
839.027
840.847
841.969
842.733
843.221
843.508
843.661
835.513
838.99
840.902
842.079
842.813
843.289
843.55
843.677
836.74
839.526
841.223
842.315
843.007
843.432
843.65
843.74
837.865
839.572
840.95
842.085
842.888
843.384
843.634
843.715
2229.01
2228.74
2228.65
2228.64
2228.72
2228.93
2229.12
2229.34
2229.67
2228.78
2228.52
2228.5
2228.59
2228.77
2229.03
2229.25
2230.2
2228.9
2228.53
2228.46
2228.54
2228.72
2229
2229.23
2230.16
2228.88
2228.49
2228.43
2228.5
2228.67
2228.92
2229.16
2229.72
2228.77
2228.49
2228.44
2228.52
2228.67
2228.9
2229.11
2228.83
2228.42
2228.35
2228.43
2228.54
2228.72
2228.96
2229.1
2228.45
2228.36
2228.36
2228.41
2228.53
2228.66
2228.84
2229.01
2147.08
2145.39
2143.94
2142.78
2141.96
2141.52
2141.29
2141.3
2148.55
2146.02
2144.17
2142.84
2141.94
2141.4
2141.21
2141.19
2149.76
2146.7
2144.58
2143.07
2142.04
2141.4
2141.16
2141.11
2149.72
2146.67
2144.56
2143.02
2141.95
2141.29
2141
2140.96
2148.47
2145.91
2144.03
2142.65
2141.68
2141.08
2140.81
2140.78
2146.69
2144.73
2143.21
2142.08
2141.29
2140.85
2140.63
2140.59
2145.27
2143.92
2142.72
2141.75
2141.05
2140.68
2140.42
2140.41
2056.73
2055.18
2053.65
2052.32
2051.3
2050.66
2050.24
2050.13
2057.64
2055.65
2053.87
2052.43
2051.34
2050.6
2050.21
2050.02
2058.38
2056.21
2054.25
2052.67
2051.44
2050.57
2050.09
2049.91
2058.36
2056.21
2054.26
2052.62
2051.34
2050.44
2049.92
2049.73
2057.49
2055.51
2053.69
2052.17
2050.98
2050.15
2049.7
2049.51
2056.26
2054.45
2052.84
2051.52
2050.5
2049.86
2049.44
2049.29
2055.11
2053.73
2052.35
2051.13
2050.2
2049.62
2049.19
2049.07
1961.4
1959.99
1958.6
1957.4
1956.47
1955.79
1955.35
1955.1
1962.27
1960.55
1958.98
1957.64
1956.58
1955.82
1955.34
1955
1962.88
1961.02
1959.32
1957.85
1956.66
1955.75
1955.2
1954.88
1962.87
1960.99
1959.28
1957.79
1956.57
1955.66
1955.05
1954.74
1962.19
1960.44
1958.82
1957.4
1956.25
1955.41
1954.87
1954.55
1961.16
1959.59
1958.11
1956.83
1955.82
1955.16
1954.63
1954.38
1960.07
1958.78
1957.5
1956.38
1955.5
1954.9
1954.41
1954.21
1862.32
1860.9
1859.69
1858.73
1858.01
1857.41
1856.99
1856.75
1863.68
1861.87
1860.37
1859.16
1858.2
1857.54
1857.01
1856.72
1864.64
1862.54
1860.82
1859.42
1858.31
1857.52
1856.91
1856.61
1864.87
1862.67
1860.87
1859.43
1858.29
1857.43
1856.83
1856.53
1864.17
1862.17
1860.5
1859.13
1858.05
1857.28
1856.71
1856.41
1862.84
1861.18
1859.78
1858.62
1857.73
1857.08
1856.52
1856.26
1861.38
1860.09
1858.98
1858.08
1857.38
1856.87
1856.4
1856.16
1756.84
1756.49
1756.3
1756.23
1756.18
1756.02
1755.85
1755.7
1757.32
1757.2
1756.92
1756.64
1756.37
1756.19
1755.88
1755.72
1757.43
1757.48
1757.12
1756.73
1756.38
1756.15
1755.82
1755.66
1757.49
1757.54
1757.14
1756.72
1756.37
1756.07
1755.8
1755.65
1757.62
1757.48
1757.05
1756.66
1756.33
1756.06
1755.8
1755.63
1757.34
1757.09
1756.77
1756.5
1756.28
1756.07
1755.84
1755.66
1756.79
1756.43
1756.25
1756.18
1756.1
1755.97
1755.82
1755.76
1646.86
1648.94
1650.69
1652.15
1653.25
1653.93
1654.3
1654.44
1645.15
1648.54
1650.69
1652.23
1653.3
1654.01
1654.33
1654.49
1643.43
1647.73
1650.22
1651.92
1653.08
1653.95
1654.31
1654.53
1642.8
1647.45
1650.06
1651.82
1653.07
1653.91
1654.4
1654.64
1643.87
1647.98
1650.45
1652.17
1653.36
1654.15
1654.59
1654.81
1646.1
1649.13
1651.22
1652.73
1653.81
1654.51
1654.88
1655.09
1648.22
1650.04
1651.7
1653.08
1654.08
1654.75
1655.11
1655.32
1543.08
1547.06
1550.25
1552.84
1554.8
1556.18
1557.06
1557.61
1540
1545.59
1549.59
1552.51
1554.65
1556.11
1557.09
1557.7
1538.57
1544.59
1548.88
1552.06
1554.39
1556.05
1557.14
1557.84
1538.76
1544.71
1548.96
1552.16
1554.54
1556.24
1557.38
1558.1
1540.92
1546.13
1550.01
1552.96
1555.16
1556.72
1557.76
1558.49
1543.75
1548.13
1551.52
1554.09
1555.99
1557.34
1558.25
1558.85
1547.18
1550.2
1552.81
1554.99
1556.66
1557.88
1558.65
1559.16
1456.74
1459.54
1461.91
1463.91
1465.53
1466.8
1467.75
1468.37
1455.27
1458.51
1461.29
1463.52
1465.32
1466.69
1467.76
1468.53
1455.06
1457.97
1460.78
1463.17
1465.14
1466.67
1467.82
1468.63
1455.44
1458.14
1460.91
1463.33
1465.31
1466.87
1468.07
1468.88
1456.44
1459.1
1461.74
1464
1465.83
1467.28
1468.39
1469.19
1457.56
1460.43
1462.92
1464.93
1466.56
1467.84
1468.82
1469.47
1459.78
1462.05
1464.07
1465.81
1467.22
1468.38
1469.19
1469.75
1380.88
1381.54
1382.19
1382.78
1383.38
1383.99
1384.65
1385.15
1381.32
1381.19
1381.74
1382.41
1383.14
1383.87
1384.61
1385.29
1381.38
1380.84
1381.43
1382.24
1383.04
1383.85
1384.65
1385.37
1380.88
1380.55
1381.28
1382.19
1383.06
1383.9
1384.73
1385.42
1380.25
1380.61
1381.47
1382.37
1383.23
1384.06
1384.84
1385.51
1380.08
1380.95
1381.88
1382.74
1383.53
1384.28
1385.01
1385.56
1380.85
1381.8
1382.61
1383.3
1383.93
1384.61
1385.17
1385.66
1306.03
1305.17
1304.34
1303.62
1303.2
1303.12
1303.32
1303.63
1307.37
1305.24
1304.09
1303.37
1303.03
1303.02
1303.31
1303.69
1308.51
1305.53
1304.22
1303.46
1303.08
1303.03
1303.3
1303.75
1308.16
1305.28
1304.1
1303.42
1303.05
1302.98
1303.24
1303.63
1306.65
1304.76
1303.8
1303.2
1302.9
1302.89
1303.16
1303.58
1305.25
1304.25
1303.52
1303.01
1302.76
1302.81
1303.05
1303.39
1304.88
1304.39
1303.73
1303.17
1302.85
1302.88
1303.02
1303.32
1227.78
1225.6
1223.53
1221.78
1220.54
1219.88
1219.62
1219.69
1229.76
1226.2
1223.6
1221.71
1220.49
1219.8
1219.63
1219.68
1232.22
1227.37
1224.29
1222.13
1220.7
1219.87
1219.59
1219.7
1232.58
1227.5
1224.37
1222.18
1220.69
1219.8
1219.48
1219.55
1230.65
1226.55
1223.73
1221.71
1220.34
1219.55
1219.27
1219.34
1228.06
1225.11
1222.78
1221.05
1219.87
1219.3
1219
1219.05
1226.51
1224.52
1222.54
1220.86
1219.7
1219.12
1218.83
1218.88
1138.18
1136.27
1134.41
1132.81
1131.62
1130.92
1130.52
1130.45
1139.4
1136.73
1134.52
1132.83
1131.63
1130.87
1130.58
1130.42
1140.67
1137.51
1135.04
1133.16
1131.8
1130.91
1130.46
1130.39
1141.08
1137.68
1135.14
1133.18
1131.77
1130.83
1130.34
1130.24
1140.08
1137.04
1134.63
1132.78
1131.43
1130.56
1130.11
1129.99
1138.32
1135.85
1133.73
1132.11
1130.95
1130.28
1129.83
1129.74
1137.06
1135.25
1133.42
1131.84
1130.69
1130.07
1129.62
1129.55
1040.27
1039.46
1038.61
1037.86
1037.26
1036.9
1036.59
1036.44
1040.66
1039.81
1038.87
1038.04
1037.38
1036.93
1036.58
1036.42
1040.69
1040.02
1039.08
1038.19
1037.45
1036.88
1036.52
1036.41
1040.54
1039.93
1039.03
1038.15
1037.36
1036.77
1036.39
1036.25
1040.31
1039.64
1038.71
1037.83
1037.1
1036.55
1036.21
1036.06
1039.86
1039.06
1038.18
1037.4
1036.77
1036.4
1036.02
1035.9
1039.3
1038.58
1037.75
1037.03
1036.48
1036.13
1035.85
1035.74
938.741
939.199
939.537
939.829
939.997
940.114
940.025
939.974
938.438
939.569
940.023
940.202
940.212
940.207
940.048
939.964
938.101
939.544
940.05
940.208
940.199
940.119
940.01
939.999
938.04
939.429
939.957
940.111
940.082
939.998
939.89
939.829
938.137
939.441
939.859
939.982
939.976
939.907
939.865
939.784
938.693
939.426
939.727
939.858
939.897
939.948
939.795
939.745
938.846
939.071
939.291
939.513
939.671
939.731
939.726
939.696
837.972
839.678
841.026
842.124
842.926
843.476
843.671
843.756
836.812
839.606
841.29
842.365
843.042
843.522
843.675
843.767
835.994
839.2
841.059
842.194
842.912
843.368
843.625
843.744
836.006
839.176
840.996
842.102
842.834
843.301
843.576
843.713
837.201
839.782
841.292
842.291
842.962
843.397
843.728
843.819
838.488
840.368
841.669
842.566
843.176
843.576
843.821
843.909
839.634
840.682
841.674
842.545
843.194
843.613
843.911
843.988
2313.56
2314.76
2315.86
2316.77
2317.49
2318.04
2318.42
2318.63
2312.55
2314.04
2315.38
2316.49
2317.35
2318
2318.43
2318.68
2311.75
2313.41
2314.91
2316.19
2317.14
2317.88
2318.4
2318.66
2311.17
2312.96
2314.56
2315.94
2316.97
2317.78
2318.38
2318.65
2314.53
2315.86
2316.86
2317.65
2318.2
2318.51
2318.14
2318.42
2228.69
2228.62
2228.57
2228.55
2228.58
2228.67
2228.79
2228.89
2228.88
2228.62
2228.52
2228.51
2228.56
2228.66
2228.79
2228.9
2229.3
2228.81
2228.63
2228.59
2228.61
2228.7
2228.84
2228.96
2229.46
2228.86
2228.65
2228.6
2228.62
2228.72
2228.93
2229.03
2229.52
2228.9
2228.66
2228.6
2228.63
2228.73
2228.89
2229.04
2229.38
2228.89
2228.69
2228.65
2228.7
2228.8
2228.93
2229.08
2229.04
2228.89
2228.8
2228.77
2228.82
2228.93
2229.1
2229.25
2144.23
2142.99
2141.88
2140.98
2140.33
2139.93
2139.73
2139.67
2145.45
2143.71
2142.31
2141.25
2140.51
2140.03
2139.78
2139.71
2146.72
2144.6
2142.96
2141.69
2140.8
2140.22
2139.92
2139.83
2147.5
2145.15
2143.37
2142
2141.04
2140.4
2140.09
2140
2147.59
2145.22
2143.44
2142.1
2141.16
2140.55
2140.25
2140.17
2147.03
2144.87
2143.23
2142.03
2141.19
2140.67
2140.42
2140.36
2146.02
2144.49
2143.14
2142.06
2141.3
2140.84
2140.64
2140.61
2053.96
2052.55
2051.2
2050.07
2049.2
2048.6
2048.24
2048.08
2055.22
2053.37
2051.75
2050.45
2049.44
2048.75
2048.33
2048.11
2056.4
2054.29
2052.46
2050.95
2049.8
2048.98
2048.49
2048.27
2057.2
2054.91
2052.94