/*--------------------------------*- C++ -*----------------------------------*\
| =========                 |                                                 |
| \\      /  F ield         | OpenFOAM: The Open Source CFD Toolbox           |
|  \\    /   O peration     | Version:  plus.master.MPPICInterFoam            |
|   \\  /    A nd           | Web:      www.OpenFOAM.com                      |
|    \\/     M anipulation  |                                                 |
\*---------------------------------------------------------------------------*/
FoamFile
{
    version     2.0;
    format      ascii;
    class       volScalarField;
    location    "6";
    object      epsilon;
}
// * * * * * * * * * * * * * * * * * * * * * * * * * * * * * * * * * * * * * //

dimensions      [0 2 -3 0 0 0 0];

internalField   nonuniform List<scalar> 
11821
(
0.532461
0.558234
0.439746
0.480953
0.420035
0.339295
0.346877
0.45888
0.559505
0.610074
0.588468
0.497539
0.382663
0.443362
0.588382
0.692111
0.744688
0.726289
0.648834
0.497648
0.511284
0.671647
0.730865
0.662056
0.730216
0.738261
0.579639
0.523033
0.684678
0.723792
0.665167
0.732338
0.717038
0.595534
0.480872
0.628516
0.676577
0.728604
0.676125
0.69131
0.543062
0.399466
0.524817
0.625992
0.656074
0.655884
0.568861
0.44479
0.311599
0.397052
0.47526
0.515121
0.495325
0.426878
0.339672
0.327277
0.425023
0.516591
0.56158
0.541524
0.460296
0.358353
0.415983
0.537769
0.606109
0.630781
0.639484
0.593901
0.464128
0.483207
0.58846
0.59599
0.584624
0.621115
0.637351
0.54478
0.49827
0.597573
0.586357
0.55928
0.571917
0.650496
0.556141
0.4575
0.575511
0.631928
0.59108
0.645564
0.613763
0.514263
0.383504
0.495487
0.579174
0.603895
0.601217
0.539361
0.424737
0.304133
0.382801
0.45595
0.494431
0.476002
0.411437
0.32917
0.299621
0.373075
0.444224
0.481012
0.463002
0.401461
0.324392
0.369769
0.463434
0.528511
0.551792
0.559841
0.508992
0.408031
0.427158
0.524799
0.555416
0.539464
0.571129
0.572895
0.478594
0.443459
0.536274
0.557243
0.517942
0.548455
0.578162
0.500474
0.412154
0.516003
0.575566
0.56901
0.581481
0.562433
0.461102
0.354725
0.443589
0.523385
0.558748
0.551937
0.483394
0.388458
0.29132
0.355653
0.415415
0.44793
0.433209
0.379674
0.311206
0.277497
0.331004
0.379377
0.406094
0.394462
0.352418
0.296187
0.329944
0.401473
0.457885
0.488452
0.486153
0.435936
0.359133
0.371982
0.456437
0.48088
0.476907
0.512239
0.496963
0.411742
0.388003
0.478497
0.490957
0.491597
0.518466
0.509386
0.435383
0.369681
0.45551
0.509439
0.519857
0.534189
0.494962
0.407215
0.33047
0.399964
0.464332
0.501768
0.489354
0.431472
0.355715
0.280986
0.33263
0.376988
0.401494
0.390645
0.350306
0.295103
0.268578
0.311165
0.345365
0.362508
0.356082
0.326692
0.281868
0.312233
0.368513
0.416267
0.437637
0.432321
0.392826
0.33387
0.345282
0.413118
0.459841
0.468479
0.481258
0.447517
0.375053
0.360091
0.434141
0.478505
0.442672
0.467407
0.473587
0.394228
0.350914
0.420848
0.482183
0.510922
0.505697
0.456835
0.37888
0.321828
0.379829
0.430224
0.458161
0.447759
0.402817
0.339751
0.278481
0.324722
0.360769
0.37878
0.370081
0.336814
0.287264
0.273659
0.313947
0.343387
0.357101
0.351617
0.32543
0.282047
0.316699
0.366633
0.407165
0.422956
0.419789
0.385598
0.332195
0.348702
0.407932
0.454047
0.474279
0.478321
0.435007
0.370386
0.364544
0.430254
0.478848
0.484519
0.497129
0.464406
0.388451
0.35851
0.42433
0.486175
0.510733
0.508634
0.451045
0.377742
0.330441
0.388837
0.436628
0.459401
0.449498
0.404842
0.341575
0.284692
0.333153
0.369334
0.385807
0.375591
0.340513
0.288269
0.290614
0.338224
0.372712
0.388445
0.379831
0.345907
0.293575
0.341707
0.402902
0.450274
0.468598
0.465769
0.418747
0.351016
0.38101
0.455836
0.51506
0.532177
0.536759
0.480391
0.395562
0.400174
0.481905
0.539947
0.536247
0.530847
0.501923
0.41354
0.390958
0.477
0.530356
0.570265
0.535885
0.496791
0.401299
0.353233
0.427095
0.491676
0.52303
0.503159
0.437237
0.356949
0.296618
0.354223
0.399013
0.419089
0.402534
0.356498
0.294482
0.313336
0.375668
0.4253
0.446593
0.428407
0.376908
0.309271
0.378875
0.463531
0.528969
0.563741
0.547535
0.472617
0.37854
0.433495
0.542377
0.572658
0.587159
0.517722
0.566771
0.43612
0.456801
0.577453
0.556754
0.530701
0.577823
0.574922
0.455818
0.435321
0.554149
0.568049
0.517358
0.555804
0.565314
0.433108
0.37935
0.47561
0.56776
0.619956
0.572009
0.476134
0.373555
0.308005
0.376609
0.433357
0.45724
0.431805
0.372229
0.299648
0.334035
0.410691
0.477454
0.504082
0.473649
0.403619
0.322423
0.411918
0.515461
0.588587
0.647247
0.58882
0.515529
0.400104
0.479729
0.602832
0.551881
0.50255
0.602613
0.614245
0.467695
0.502354
0.631077
0.52741
0.527771
0.526549
0.650478
0.4885
0.466983
0.593315
0.618719
0.584304
0.643043
0.60052
0.4523
0.396499
0.507013
0.611715
0.652185
0.605197
0.496148
0.381196
0.314314
0.389636
0.453691
0.477465
0.446579
0.378558
0.300395
0.348824
0.433831
0.509824
0.539918
0.498818
0.41874
0.330686
0.432588
0.552957
0.638093
0.63447
0.630976
0.537794
0.410492
0.506393
0.652491
0.666091
0.583809
0.694098
0.650282
0.47958
0.52698
0.677209
0.624462
0.601073
0.63014
0.67859
0.497025
0.482241
0.633745
0.711496
0.660251
0.693598
0.616084
0.455547
0.402032
0.519189
0.63894
0.6788
0.617953
0.497287
0.379284
0.314947
0.391962
0.459211
0.481008
0.446932
0.375604
0.297104
0.356802
0.44395
0.521937
0.552052
0.505833
0.423437
0.33456
0.440131
0.566526
0.66912
0.69113
0.646657
0.53984
0.411093
0.511834
0.678673
0.753672
0.675633
0.7578
0.651311
0.475495
0.527641
0.707037
0.698913
0.702247
0.7237
0.680703
0.489922
0.476307
0.627173
0.719474
0.724589
0.70031
0.600658
0.444054
0.396384
0.50773
0.624538
0.672062
0.599115
0.482166
0.370557
0.310659
0.384087
0.446711
0.468823
0.433363
0.366098
0.291437
0.363742
0.451446
0.523871
0.551303
0.508483
0.429152
0.339491
0.444291
0.574849
0.685742
0.709644
0.666958
0.542192
0.412168
0.507034
0.686754
0.751688
0.73192
0.725037
0.649678
0.467517
0.516671
0.70032
0.812821
0.637415
0.75833
0.670296
0.47764
0.467748
0.616014
0.724063
0.787166
0.726072
0.585681
0.434567
0.390813
0.495446
0.594138
0.639783
0.575365
0.470586
0.364461
0.305935
0.37649
0.432634
0.452757
0.421305
0.35909
0.287145
0.375714
0.471379
0.547209
0.572343
0.532651
0.446703
0.350061
0.459119
0.598469
0.710222
0.759954
0.686953
0.562215
0.423674
0.517538
0.693257
0.758392
0.759032
0.751983
0.641882
0.474016
0.524274
0.709374
0.832503
0.758298
0.768797
0.658914
0.480834
0.473364
0.62427
0.765022
0.831312
0.741052
0.589536
0.438398
0.391876
0.499715
0.592561
0.631133
0.576228
0.47507
0.366068
0.302438
0.375418
0.432094
0.452134
0.421889
0.359182
0.285299
0.391168
0.506538
0.597664
0.633313
0.582436
0.479976
0.364837
0.486943
0.636574
0.753996
0.786582
0.746705
0.602874
0.448976
0.54839
0.727713
0.826967
0.807031
0.816965
0.689876
0.502916
0.551414
0.740899
0.846278
0.813884
0.837951
0.697304
0.506962
0.491108
0.657418
0.794164
0.867382
0.782203
0.623943
0.456694
0.396274
0.519126
0.62806
0.672497
0.613732
0.495929
0.372552
0.296497
0.377071
0.442124
0.466608
0.433364
0.362689
0.282077
0.390127
0.52789
0.617326
0.63283
0.602647
0.499557
0.366996
0.506976
0.62457
0.710776
0.809718
0.664641
0.604063
0.468956
0.574842
0.741032
0.834828
0.821428
0.828799
0.675152
0.528725
0.578522
0.786243
0.858224
0.806448
0.840496
0.714541
0.531476
0.502971
0.675511
0.794817
0.882701
0.717439
0.619432
0.468685
0.387979
0.526996
0.651048
0.697604
0.637539
0.501722
0.366715
0.280308
0.367749
0.446442
0.476455
0.438263
0.355057
0.269263
0.352249
0.4809
0.587077
0.60369
0.574097
0.461251
0.339258
0.466412
0.616484
0.700531
0.667815
0.704497
0.591788
0.442292
0.555089
0.681485
0.676088
0.690488
0.703184
0.661166
0.518099
0.550744
0.690591
0.714563
0.712152
0.729875
0.64778
0.514065
0.457176
0.611721
0.737901
0.732861
0.739378
0.573374
0.433017
0.348161
0.473652
0.592821
0.639237
0.572609
0.452712
0.334636
0.253762
0.333479
0.409093
0.441698
0.401783
0.324246
0.247847
0.0661724
0.0996802
0.208247
0.147577
0.105896
0.0790777
0.0667478
0.0962459
0.420542
0.302145
0.214115
0.151418
0.108056
0.0799218
0.0665109
0.0941538
0.382842
0.278127
0.199737
0.143193
0.103488
0.077399
0.0650498
0.0929851
0.317701
0.235152
0.173178
0.1275
0.0946646
0.0728024
0.0630713
0.0935019
0.248457
0.191162
0.146014
0.111289
0.0856203
0.0684569
0.0620215
0.0969935
0.274396
0.207849
0.157393
0.120018
0.0933112
0.0761211
0.0710584
0.116145
0.347826
0.252754
0.184533
0.135846
0.101703
0.079498
0.0706025
0.109223
0.406474
0.290312
0.207689
0.14949
0.109116
0.0827749
0.0709168
0.105197
0.420698
0.300207
0.214288
0.153638
0.111352
0.0835622
0.0705278
0.102733
0.38417
0.2778
0.201064
0.146006
0.106982
0.0810364
0.0689805
0.10135
0.318565
0.236271
0.175669
0.130883
0.0983276
0.0764337
0.0669612
0.101813
0.2501
0.193625
0.149298
0.11498
0.0893314
0.072057
0.0659145
0.10542
0.264173
0.203908
0.15744
0.122185
0.0963831
0.0795396
0.0749754
0.124422
0.331682
0.24551
0.182902
0.137186
0.104329
0.0825896
0.0741548
0.116654
0.388032
0.281351
0.20502
0.150289
0.11141
0.0855985
0.0741657
0.111971
0.403228
0.292046
0.212079
0.154586
0.11361
0.086249
0.0735759
0.109089
0.370682
0.272093
0.200208
0.147539
0.109403
0.0836977
0.0719345
0.107529
0.310509
0.233954
0.176529
0.13311
0.100945
0.0791013
0.0698773
0.107975
0.24759
0.194185
0.151419
0.117647
0.0920447
0.0747063
0.0688059
0.11163
0.249068
0.19765
0.155942
0.123025
0.098302
0.0820114
0.0780409
0.1303
0.305236
0.233864
0.178904
0.136801
0.105565
0.0846048
0.0768142
0.121722
0.353373
0.265348
0.19894
0.148866
0.112035
0.0871907
0.0764596
0.116355
0.36979
0.276311
0.206033
0.153041
0.114028
0.0876068
0.0756237
0.113045
0.343599
0.26015
0.19597
0.146709
0.110022
0.0850433
0.0738896
0.111356
0.29431
0.227576
0.174762
0.133269
0.101915
0.0805343
0.0718188
0.111826
0.240542
0.19197
0.151388
0.118481
0.0932519
0.0761939
0.0707297
0.115494
0.235172
0.191183
0.153524
0.122734
0.0991974
0.0836959
0.0805119
0.134821
0.281053
0.222478
0.174063
0.1352
0.105672
0.0857669
0.0788619
0.125506
0.319138
0.249196
0.191788
0.145998
0.111361
0.0878358
0.0781128
0.119492
0.334299
0.259522
0.19842
0.149763
0.112983
0.0879397
0.0770044
0.115765
0.316334
0.247356
0.190107
0.144091
0.109158
0.0853578
0.0751682
0.113942
0.278376
0.220071
0.171215
0.131643
0.101457
0.0809748
0.0730863
0.114407
0.232516
0.18803
0.149416
0.11757
0.0931083
0.0767417
0.0719945
0.118042
0.227566
0.187335
0.151871
0.122424
0.0998261
0.085085
0.0827311
0.139088
0.268069
0.215864
0.170816
0.133861
0.105605
0.0866687
0.080674
0.129102
0.300465
0.239719
0.186902
0.143585
0.110565
0.0882433
0.0795555
0.122535
0.314017
0.249239
0.192931
0.146811
0.111742
0.0880087
0.0781743
0.118419
0.301597
0.23946
0.185514
0.141416
0.107941
0.0853439
0.0762014
0.116394
0.269633
0.214907
0.167868
0.129555
0.100494
0.0810242
0.0740729
0.116759
0.227379
0.184526
0.146902
0.115941
0.0923799
0.0768757
0.0729762
0.120332
0.227493
0.18722
0.151927
0.122849
0.10072
0.0864893
0.0848586
0.143647
0.267534
0.215248
0.170233
0.133666
0.105992
0.0876775
0.0824298
0.133021
0.299073
0.238438
0.185559
0.142667
0.110383
0.0888423
0.0809879
0.125981
0.312256
0.247454
0.191
0.145323
0.111107
0.088276
0.0793459
0.121498
0.301079
0.237884
0.183456
0.139755
0.107132
0.0854417
0.0771962
0.119193
0.269342
0.213206
0.165789
0.127934
0.0996953
0.0810753
0.0749753
0.119364
0.226139
0.182418
0.144799
0.114423
0.0916611
0.0769467
0.0738555
0.122844
0.232796
0.189759
0.153271
0.123882
0.101821
0.0878098
0.0866696
0.1479
0.27609
0.218681
0.171463
0.134309
0.106719
0.0886989
0.083963
0.136802
0.310616
0.24261
0.186508
0.142788
0.110656
0.0895311
0.0822574
0.129381
0.323921
0.251198
0.191282
0.144836
0.110929
0.0886488
0.080369
0.124525
0.310467
0.240153
0.182942
0.138814
0.106651
0.0855851
0.0780106
0.121858
0.274211
0.213423
0.164499
0.12671
0.099068
0.0810938
0.0756512
0.121731
0.226949
0.181095
0.143069
0.113118
0.0910167
0.0769302
0.0744725
0.125051
0.240143
0.193528
0.155414
0.125371
0.103048
0.0889527
0.0879933
0.151514
0.287711
0.22355
0.173595
0.135511
0.107672
0.0896327
0.0851117
0.140099
0.32664
0.248404
0.188402
0.143534
0.111225
0.0901953
0.083207
0.132383
0.339987
0.25629
0.192375
0.144946
0.111048
0.0890126
0.0810981
0.127159
0.321612
0.242966
0.182935
0.138309
0.106391
0.0856913
0.078531
0.124098
0.279058
0.213713
0.163512
0.125783
0.0985736
0.0810333
0.0760204
0.123635
0.227477
0.17986
0.141614
0.11205
0.0904514
0.0768045
0.0747678
0.126782
0.247098
0.197711
0.158121
0.127221
0.104343
0.0898971
0.0888695
0.154178
0.297262
0.228273
0.176215
0.137142
0.108772
0.0904393
0.0858969
0.14254
0.338635
0.253324
0.190623
0.144728
0.111996
0.0907904
0.0838557
0.134577
0.350981
0.259975
0.193609
0.145428
0.111358
0.089326
0.0815661
0.129061
0.328036
0.244567
0.183015
0.138104
0.106266
0.085729
0.0788055
0.12565
0.280906
0.213344
0.162672
0.125082
0.0981497
0.0808803
0.0761537
0.124931
0.226788
0.178528
0.140392
0.111165
0.0899174
0.0765711
0.0748262
0.127924
0.252744
0.201652
0.160768
0.12886
0.105262
0.0903775
0.0891667
0.155074
0.303394
0.232137
0.178636
0.138559
0.109519
0.0908234
0.0861791
0.143421
0.344481
0.256461
0.192391
0.145665
0.112434
0.0910059
0.0840697
0.135366
0.354488
0.261486
0.194251
0.145645
0.111364
0.0893052
0.0816624
0.129705
0.328518
0.244203
0.182488
0.137572
0.105818
0.085454
0.0787573
0.12607
0.279286
0.211852
0.161431
0.124088
0.097425
0.0804485
0.0760109
0.125214
0.224643
0.176723
0.138933
0.110035
0.089116
0.0760883
0.0746279
0.128081
0.256166
0.204297
0.16231
0.129442
0.105263
0.0901642
0.0889395
0.154422
0.305334
0.234043
0.179773
0.138878
0.109356
0.0905533
0.0860157
0.143003
0.343574
0.256762
0.192621
0.145461
0.111984
0.0906153
0.083911
0.135056
0.351275
0.260158
0.193413
0.144796
0.110554
0.0887479
0.0814587
0.129432
0.323412
0.241541
0.180666
0.13607
0.104647
0.0847267
0.0784857
0.125742
0.274806
0.208951
0.159184
0.122268
0.0960858
0.0796506
0.0757071
0.124859
0.221073
0.173955
0.136639
0.108194
0.0877948
0.0753083
0.0743113
0.127642
0.258994
0.205714
0.162275
0.128524
0.104128
0.0892807
0.0884833
0.153446
0.306924
0.235028
0.17952
0.137791
0.108119
0.0896626
0.0856631
0.142426
0.34161
0.256211
0.191628
0.143977
0.110553
0.0896718
0.0836179
0.134765
0.346882
0.258101
0.191516
0.142784
0.108871
0.0877224
0.0811825
0.129314
0.318791
0.238469
0.17787
0.133554
0.10275
0.0836423
0.0782175
0.125711
0.270683
0.205414
0.155914
0.119532
0.0941528
0.0785989
0.0754726
0.12488
0.217078
0.17023
0.133311
0.105545
0.0859928
0.0743583
0.0741214
0.12763
0.262734
0.205898
0.160385
0.126032
0.101991
0.0879157
0.0880346
0.153613
0.312316
0.236173
0.177966
0.135353
0.105995
0.0883516
0.0853197
0.143024
0.345983
0.25715
0.189944
0.141423
0.108379
0.0883822
0.0833514
0.13569
0.349298
0.257752
0.18906
0.139862
0.106573
0.0864293
0.0809593
0.130381
0.319331
0.236296
0.174342
0.130187
0.100349
0.0823723
0.0780364
0.126782
0.26863
0.201472
0.15164
0.116032
0.0918432
0.07744
0.075356
0.125884
0.212829
0.165377
0.128955
0.102282
0.0839379
0.0733746
0.0740999
0.128614
0.265045
0.203175
0.156091
0.122153
0.0992092
0.0862299
0.0873546
0.154817
0.319903
0.235433
0.174182
0.131566
0.103281
0.0867681
0.0847555
0.144617
0.356103
0.257538
0.186434
0.137668
0.105703
0.0868745
0.0828803
0.13758
0.357682
0.25706
0.184979
0.135914
0.103884
0.0849794
0.0805515
0.132327
0.322556
0.232778
0.169205
0.125999
0.0977076
0.0810148
0.0776864
0.128608
0.265704
0.195518
0.146037
0.112044
0.0894683
0.0762608
0.0750916
0.127565
0.206419
0.158836
0.123803
0.0988527
0.0819455
0.0724085
0.073954
0.130282
0.259159
0.195783
0.15006
0.118059
0.0966655
0.0846816
0.0864988
0.156745
0.319145
0.229252
0.168329
0.127546
0.100862
0.0853639
0.0840192
0.146699
0.359768
0.252702
0.180816
0.133717
0.10339
0.085594
0.0822503
0.139803
0.360112
0.251402
0.179008
0.131889
0.101637
0.0838042
0.0800161
0.134563
0.317582
0.224582
0.162708
0.122058
0.0956204
0.0799624
0.0772344
0.130793
0.255471
0.186632
0.140078
0.108633
0.0876965
0.0753687
0.0747198
0.129626
0.19635
0.151433
0.119109
0.0961843
0.0805346
0.0716782
0.073676
0.132363
0.243649
0.185529
0.143765
0.114402
0.094547
0.0833088
0.0853747
0.156649
0.302511
0.218143
0.161571
0.123721
0.0987467
0.0840651
0.0829769
0.146573
0.345323
0.241555
0.173891
0.129867
0.101345
0.0843959
0.0813013
0.139707
0.343274
0.239461
0.171965
0.128149
0.0997592
0.0827492
0.0791839
0.134564
0.297472
0.212593
0.156227
0.118803
0.0940434
0.0790946
0.0765472
0.130984
0.23835
0.176947
0.134992
0.106116
0.0864698
0.0746686
0.0741522
0.130012
0.185035
0.144869
0.115582
0.0943944
0.0796141
0.0710977
0.0731779
0.132901
0.232042
0.183212
0.144858
0.114768
0.0917693
0.0759714
0.0708589
0.113743
0.288129
0.217813
0.166656
0.128634
0.100379
0.0808726
0.0728844
0.111741
0.340315
0.250232
0.186582
0.140972
0.108049
0.0855514
0.0755572
0.11258
0.36883
0.267293
0.196467
0.146769
0.111629
0.0879602
0.077421
0.114819
0.357844
0.25936
0.190916
0.14308
0.1095
0.0871676
0.0778817
0.117776
0.311008
0.229593
0.17231
0.131648
0.102854
0.0839118
0.0773465
0.12172
0.250698
0.193181
0.150029
0.118101
0.0950989
0.0803087
0.0772422
0.127971
0.232185
0.186063
0.148808
0.118779
0.0953648
0.0791145
0.0739621
0.120104
0.283734
0.218692
0.170052
0.132709
0.104205
0.0842115
0.0760801
0.118053
0.331216
0.248469
0.188857
0.144786
0.111969
0.089063
0.0788869
0.11898
0.357
0.263572
0.197707
0.150203
0.115523
0.0915886
0.0809063
0.121462
0.344893
0.254969
0.191713
0.146283
0.113352
0.0908866
0.0815573
0.124862
0.299816
0.226271
0.173545
0.134967
0.106753
0.0877426
0.0812604
0.12945
0.243994
0.191987
0.152107
0.121689
0.0991095
0.0842892
0.0814508
0.136509
0.229056
0.186878
0.151034
0.121168
0.0975107
0.081053
0.0759914
0.123891
0.273281
0.216642
0.171465
0.135065
0.106514
0.0862999
0.0781888
0.121792
0.311555
0.242154
0.188689
0.146765
0.11433
0.0912985
0.0811222
0.122735
0.331032
0.253942
0.196111
0.151741
0.117877
0.0939657
0.0833158
0.12541
0.318663
0.245033
0.189889
0.14777
0.115803
0.0934537
0.0842141
0.129257
0.28007
0.219387
0.172932
0.136912
0.109463
0.0905578
0.0842296
0.134535
0.23334
0.189027
0.153032
0.12423
0.102123
0.0873717
0.0847636
0.142386
0.225491
0.186353
0.151526
0.121852
0.0982358
0.0819272
0.0772147
0.126148
0.263769
0.213952
0.171419
0.135759
0.10736
0.0872703
0.0794588
0.124014
0.293201
0.235738
0.187379
0.147195
0.115235
0.0923958
0.082509
0.124969
0.3056
0.244297
0.193586
0.151879
0.118851
0.0952396
0.0849001
0.127846
0.293645
0.235425
0.1874
0.148064
0.117024
0.0950086
0.086091
0.132125
0.262628
0.21301
0.171753
0.137819
0.11109
0.0924678
0.0864739
0.138087
0.224119
0.186155
0.153285
0.125783
0.10415
0.0896285
0.087393
0.146692
0.224731
0.186228
0.151372
0.12164
0.0981641
0.0821827
0.0779655
0.127912
0.261005
0.2135
0.171478
0.135814
0.107467
0.0876118
0.0802259
0.12573
0.286188
0.233882
0.187228
0.147407
0.115551
0.0929076
0.0834074
0.126773
0.294479
0.240853
0.193063
0.152198
0.11941
0.0960028
0.0860323
0.129906
0.282786
0.232058
0.187075
0.148678
0.117933
0.0961131
0.0875445
0.134622
0.255683
0.211213
0.172123
0.138916
0.112412
0.0939527
0.0883067
0.141226
0.220993
0.185898
0.15431
0.127268
0.10581
0.0914627
0.0896335
0.150589
0.227773
0.187312
0.151327
0.121192
0.0977853
0.0821131
0.0783859
0.129534
0.266541
0.216392
0.172543
0.135968
0.10737
0.0876431
0.0806467
0.127337
0.292842
0.23815
0.189362
0.14826
0.115877
0.0931865
0.083978
0.128563
0.300608
0.245533
0.195837
0.153639
0.120197
0.0966257
0.0868747
0.132045
0.288271
0.236561
0.190065
0.150538
0.11915
0.0971127
0.0887199
0.13722
0.26078
0.215319
0.175057
0.140963
0.113947
0.0952988
0.0898434
0.144393
0.225304
0.189347
0.156957
0.129334
0.107545
0.093112
0.0915762
0.154504
0.232871
0.188876
0.151208
0.120519
0.0971174
0.0816642
0.0782826
0.130426
0.277652
0.221137
0.174007
0.136028
0.106996
0.0872753
0.080522
0.128218
0.310068
0.246455
0.192764
0.149347
0.116038
0.0930922
0.084005
0.129707
0.320863
0.256037
0.200689
0.155662
0.120961
0.0969221
0.0871815
0.133596
0.307244
0.246938
0.19529
0.153088
0.120402
0.0977993
0.0893432
0.139215
0.275521
0.223767
0.179739
0.143576
0.115474
0.0962978
0.0907766
0.146829
0.235336
0.195538
0.160767
0.13176
0.109192
0.0943634
0.0928506
0.157529
0.237425
0.19
0.15083
0.119655
0.0962032
0.0808603
0.0776526
0.130524
0.289149
0.225598
0.175186
0.135826
0.106319
0.0865059
0.0798342
0.128285
0.330301
0.25529
0.19614
0.150262
0.115906
0.0925674
0.083419
0.130023
0.347265
0.268214
0.205947
0.157688
0.121491
0.0967773
0.086822
0.134275
0.332793
0.259443
0.201227
0.155772
0.121459
0.0980261
0.0892369
0.140232
0.294666
0.233885
0.185042
0.146308
0.116779
0.096791
0.0909012
0.148116
0.247875
0.202896
0.165069
0.134255
0.110577
0.0950596
0.0932332
0.159227
0.239953
0.190306
0.150131
0.118551
0.095016
0.0797463
0.0766514
0.129891
0.29689
0.228503
0.175726
0.135263
0.105297
0.0853688
0.0787322
0.127579
0.345313
0.262037
0.198735
0.15077
0.115398
0.0916254
0.0823514
0.129423
0.368662
0.278359
0.210505
0.159375
0.121657
0.0961776
0.0858986
0.133882
0.354971
0.270597
0.20676
0.158233
0.122165
0.0977543
0.0884786
0.139991
0.31194
0.243389
0.190191
0.14886
0.117714
0.0967351
0.0902918
0.148013
0.259864
0.21021
0.169384
0.136593
0.111577
0.0951709
0.0928025
0.159402
0.239944
0.18932
0.148568
0.11675
0.0932664
0.0782172
0.0753231
0.128201
0.299567
0.229107
0.175017
0.133795
0.103562
0.0837089
0.0772359
0.125724
0.352792
0.265449
0.199675
0.150185
0.114031
0.0900283
0.0807622
0.127402
0.38107
0.284839
0.213383
0.159946
0.120897
0.0948243
0.0843328
0.131805
0.369318
0.278649
0.2108
0.159617
0.121919
0.0966638
0.086978
0.137823
0.324387
0.25091
0.194265
0.15049
0.117745
0.0958542
0.0888876
0.145846
0.26949
0.216393
0.172925
0.13814
0.111748
0.0944786
0.0915358
0.157374
0.236823
0.186151
0.145298
0.11366
0.0906589
0.0762284
0.0738289
0.125887
0.296844
0.226593
0.172089
0.130671
0.100706
0.0814254
0.0754862
0.12315
0.351012
0.264257
0.197752
0.147542
0.111242
0.087602
0.0787914
0.124456
0.382395
0.285815
0.212969
0.158187
0.118494
0.092467
0.0822555
0.12857
0.373521
0.281508
0.211635
0.158667
0.119968
0.0944881
0.0848814
0.134316
0.330233
0.254734
0.195732
0.150029
0.116171
0.0939011
0.0868378
0.14216
0.27524
0.220007
0.174363
0.137871
0.110461
0.0927566
0.0895667
0.153556
0.231758
0.180859
0.140202
0.109298
0.0873506
0.0740073
0.0724911
0.124104
0.292458
0.221843
0.166967
0.12588
0.0968634
0.078751
0.073814
0.121014
0.347173
0.260669
0.193305
0.142819
0.107134
0.0845804
0.0768032
0.12187
0.379414
0.283798
0.209714
0.154039
0.114499
0.0893334
0.0800683
0.125596
0.373511
0.28133
0.209576
0.155219
0.116305
0.0914389
0.0826243
0.131019
0.333499
0.255927
0.194448
0.147158
0.112906
0.0910523
0.0845921
0.138565
0.278799
0.221101
0.173189
0.135341
0.107565
0.0901487
0.087365
0.149642
0.225203
0.173502
0.133498
0.10405
0.0837283
0.0718088
0.0714265
0.123447
0.288643
0.215268
0.159824
0.119791
0.0924789
0.0760101
0.0723962
0.12008
0.347031
0.256224
0.186743
0.136438
0.102213
0.0813748
0.0750562
0.120675
0.382408
0.281789
0.204395
0.147977
0.109456
0.0858858
0.0780922
0.124151
0.378705
0.280955
0.205282
0.149672
0.111429
0.0879715
0.0805492
0.129309
0.339399
0.255778
0.19052
0.142031
0.108323
0.0877085
0.0825011
0.136499
0.282122
0.219744
0.16913
0.130546
0.103328
0.0869921
0.085288
0.147134
0.2157
0.164032
0.125857
0.0986795
0.0803114
0.0698085
0.0704346
0.123728
0.282404
0.205571
0.1508
0.113094
0.0881456
0.0734645
0.0710846
0.120144
0.347544
0.248743
0.177514
0.128853
0.0970887
0.0783032
0.0734303
0.120626
0.38905
0.27748
0.196085
0.140278
0.103961
0.0824797
0.0762311
0.12401
0.387488
0.27808
0.197722
0.142237
0.105927
0.0844528
0.0785539
0.128985
0.34569
0.251901
0.183032
0.134922
0.103026
0.084235
0.0804477
0.135835
0.282382
0.214003
0.161661
0.123893
0.0983619
0.0836431
0.0832129
0.146058
0.202125
0.153603
0.118765
0.0942834
0.0777211
0.0682864
0.06956
0.124744
0.267629
0.19228
0.141316
0.107182
0.0847167
0.0715061
0.0699663
0.120951
0.338144
0.235114
0.166412
0.121616
0.0928374
0.0758786
0.0720415
0.121333
0.387857
0.266121
0.18489
0.132477
0.0992199
0.0797147
0.0746089
0.124623
0.387604
0.267647
0.186913
0.134463
0.101066
0.0815322
0.0767834
0.129544
0.340194
0.240298
0.172493
0.12747
0.0982962
0.0813095
0.0786084
0.136258
0.271583
0.20202
0.151886
0.117041
0.0939072
0.0807795
0.0813355
0.14634
0.18675
0.144008
0.113121
0.0910724
0.0758979
0.0671677
0.0687337
0.124672
0.244128
0.177912
0.13303
0.10257
0.0821853
0.070043
0.0689576
0.120611
0.308987
0.216516
0.155495
0.115508
0.0895064
0.0739951
0.0707799
0.120681
0.360627
0.246363
0.172641
0.125403
0.0952825
0.0774574
0.0730753
0.123633
0.362671
0.24868
0.174804
0.127292
0.0969675
0.0791134
0.0750918
0.128411
0.314088
0.222515
0.161354
0.120826
0.0944138
0.0789396
0.0768937
0.135187
0.24932
0.186939
0.142341
0.111246
0.0904122
0.0785401
0.0796344
0.145426
0.249754
0.191407
0.147892
0.115962
0.0931877
0.0787112
0.075881
0.12592
0.319781
0.231987
0.170458
0.127726
0.0984711
0.0799556
0.0739845
0.117229
0.387714
0.272859
0.193435
0.139742
0.104018
0.0817148
0.0731973
0.111964
0.423292
0.29446
0.20578
0.146348
0.107145
0.0827054
0.0727692
0.10954
0.403602
0.282947
0.199326
0.142636
0.104898
0.0812788
0.0718474
0.109039
0.342839
0.246509
0.178576
0.131224
0.098862
0.0783227
0.0708464
0.110828
0.270806
0.204515
0.154647
0.118023
0.0920462
0.0754651
0.0708765
0.116158
0.242886
0.190196
0.150067
0.119719
0.0974076
0.0829193
0.0803472
0.134942
0.30469
0.226467
0.170772
0.130935
0.102707
0.0843164
0.0785494
0.126122
0.366144
0.263149
0.19158
0.142089
0.108052
0.0860897
0.0778042
0.120761
0.398742
0.282628
0.202636
0.147988
0.110798
0.0868824
0.0772375
0.118063
0.380307
0.271926
0.196502
0.144289
0.108447
0.085351
0.0762467
0.117582
0.325213
0.238929
0.177349
0.133344
0.102339
0.082217
0.0751396
0.119463
0.260934
0.200943
0.155076
0.120555
0.0954467
0.0791673
0.0750559
0.124901
0.231923
0.187155
0.151066
0.122437
0.100654
0.0862623
0.0839549
0.141375
0.281103
0.217564
0.169416
0.132921
0.105875
0.0877758
0.0822773
0.132524
0.328718
0.247193
0.187089
0.142859
0.110853
0.0895003
0.0815397
0.126997
0.354161
0.262771
0.196199
0.147799
0.113095
0.0900417
0.0808571
0.124135
0.340059
0.25418
0.19078
0.144209
0.11067
0.0883958
0.0797817
0.123659
0.297673
0.227324
0.174088
0.134003
0.104637
0.0851528
0.0785925
0.125696
0.246076
0.195054
0.153996
0.121807
0.0977323
0.0819463
0.0783906
0.1312
0.222391
0.184223
0.151429
0.124206
0.102947
0.0888043
0.0868976
0.14626
0.261009
0.209746
0.167819
0.134075
0.108091
0.0904206
0.0853533
0.137472
0.295124
0.232816
0.182602
0.142865
0.112663
0.092069
0.084633
0.131838
0.312952
0.244447
0.189723
0.146809
0.114441
0.0923852
0.0838702
0.128909
0.30396
0.237959
0.184956
0.143279
0.111882
0.0906147
0.0827091
0.128428
0.273386
0.216551
0.170369
0.133687
0.105916
0.0872682
0.0814285
0.130565
0.232411
0.189003
0.152048
0.121963
0.0990052
0.083934
0.0811174
0.136089
0.21909
0.184018
0.152643
0.125957
0.104901
0.0909353
0.0894536
0.150715
0.252336
0.207183
0.168194
0.135664
0.110142
0.0927208
0.0880769
0.142089
0.278968
0.226607
0.181364
0.143821
0.114544
0.094372
0.0874373
0.136507
0.291888
0.235652
0.187128
0.147037
0.115941
0.0945381
0.0866462
0.133598
0.285239
0.229908
0.182379
0.143318
0.113187
0.0926138
0.0853919
0.133085
0.260806
0.211077
0.168602
0.133804
0.107065
0.089104
0.083993
0.135217
0.225133
0.185655
0.150906
0.122102
0.0999941
0.0856029
0.0835701
0.140715
0.223414
0.18765
0.155557
0.128326
0.106944
0.0928851
0.0917085
0.155162
0.256507
0.211173
0.171557
0.138448
0.112535
0.094953
0.0905511
0.146775
0.281506
0.230058
0.184591
0.146634
0.117037
0.0967464
0.0900796
0.14143
0.292729
0.238132
0.189752
0.149489
0.118251
0.0968573
0.0893215
0.13863
0.285774
0.231694
0.18433
0.145256
0.115163
0.0947417
0.0879724
0.138069
0.261615
0.212277
0.169873
0.135193
0.108658
0.0909845
0.0864278
0.140099
0.225556
0.186104
0.151494
0.122966
0.101225
0.0872575
0.0858943
0.145556
0.233608
0.194114
0.159693
0.131091
0.108916
0.0944443
0.093297
0.158709
0.271228
0.220165
0.177104
0.142053
0.115057
0.0969004
0.0924357
0.150711
0.299736
0.24099
0.191115
0.150761
0.119894
0.0989593
0.0922159
0.145763
0.311807
0.249251
0.196177
0.153493
0.121053
0.099096
0.0915524
0.143152
0.302104
0.240886
0.189557
0.148561
0.117579
0.0967895
0.090131
0.142567
0.272788
0.218344
0.17334
0.137516
0.110535
0.0927456
0.0884459
0.144472
0.231574
0.189306
0.1534
0.124427
0.102626
0.0887727
0.0878214
0.149916
0.246466
0.20183
0.164375
0.133959
0.110647
0.0954545
0.0939875
0.160918
0.291395
0.231532
0.183706
0.146033
0.117493
0.0983947
0.0935022
0.153465
0.327121
0.255743
0.199294
0.155542
0.122836
0.100835
0.0936305
0.149093
0.341327
0.264711
0.204528
0.158296
0.124039
0.101076
0.0931339
0.146794
0.326502
0.253535
0.196401
0.152598
0.120182
0.0986069
0.0916811
0.146225
0.288441
0.226541
0.177934
0.140391
0.112535
0.0942688
0.0898772
0.148007
0.239819
0.193797
0.156103
0.126317
0.104111
0.0900532
0.0891867
0.15346
0.258966
0.209622
0.169163
0.136726
0.112018
0.0958779
0.0938381
0.161545
0.310855
0.24299
0.1906
0.150099
0.119698
0.0993788
0.0937901
0.154757
0.353965
0.270619
0.20792
0.160637
0.125718
0.102317
0.0943593
0.151128
0.370333
0.280263
0.213368
0.163523
0.127079
0.102754
0.0941076
0.149286
0.349682
0.266248
0.203788
0.157053
0.122853
0.100156
0.0926673
0.148778
0.303021
0.234924
0.183056
0.143627
0.114565
0.0955217
0.0907687
0.150478
0.24784
0.198752
0.159358
0.128517
0.105596
0.0910696
0.0900396
0.155975
0.269211
0.216358
0.173207
0.138714
0.112551
0.0954693
0.0927969
0.159828
0.325996
0.252854
0.196714
0.153448
0.1211
0.0995364
0.0931925
0.153726
0.373622
0.283085
0.215678
0.165106
0.127896
0.103035
0.0942398
0.150875
0.390785
0.293055
0.221373
0.168267
0.129547
0.103763
0.094304
0.149605
0.365777
0.276698
0.210512
0.161103
0.125006
0.10109
0.0929313
0.149262
0.313638
0.242145
0.187823
0.14653
0.116121
0.0962172
0.0910087
0.151072
0.254392
0.203358
0.162455
0.130429
0.106648
0.0915796
0.0902829
0.156691
0.275618
0.220587
0.175195
0.138895
0.111603
0.0939819
0.0909801
0.156153
0.334682
0.259301
0.200492
0.154854
0.120901
0.0985148
0.091756
0.150707
0.383409
0.290851