/*--------------------------------*- C++ -*----------------------------------*\
| =========                 |                                                 |
| \\      /  F ield         | OpenFOAM: The Open Source CFD Toolbox           |
|  \\    /   O peration     | Version:  plus.master.MPPICInterFoam            |
|   \\  /    A nd           | Web:      www.OpenFOAM.com                      |
|    \\/     M anipulation  |                                                 |
\*---------------------------------------------------------------------------*/
FoamFile
{
    version     2.0;
    format      ascii;
    class       vectorField;
    location    "9.6/lagrangian/kinematicCloud";
    object      U;
}
// * * * * * * * * * * * * * * * * * * * * * * * * * * * * * * * * * * * * * //


1969
(
(0.000818977 -0.000157183 -0.0465433)
(0.00754505 0.00527804 -0.0457486)
(0.00230993 0.000662423 -0.0463862)
(0.00241229 0.000581385 -0.0468763)
(0.00044424 -0.000234105 -0.0450535)
(0.000737782 -6.61094e-05 -0.0447914)
(0.000794004 -0.000501049 -0.0437221)
(0.00140352 -0.000455157 -0.0481412)
(0.0024865 0.000562759 -0.0481244)
(0.000894687 -0.000176681 -0.0463083)
(0.000555067 -0.000170639 -0.0490822)
(0.00037981 -0.000211457 -0.046896)
(0.00441273 0.00341332 -0.0479379)
(0.000588785 -0.000206012 -0.0447998)
(0.00144557 -0.000313681 -0.0482857)
(0.00287101 0.00081395 -0.0481375)
(0.000474607 -0.000259139 -0.0451056)
(0.0009879 0.000163927 -0.0445459)
(0.000462395 -0.000253045 -0.0446531)
(0.00100555 0.00020858 -0.044831)
(0.0004402 -0.000278647 -0.0449581)
(0.000859527 -6.21477e-06 -0.0462781)
(0.000671931 -0.000244363 -0.0474433)
(0.000970625 -0.000114484 -0.0480792)
(-0.000484083 4.04202e-05 -0.0493724)
(0.000616064 -0.000316174 -0.0471532)
(0.00621323 0.00418651 -0.0477458)
(0.000657836 -0.000168819 -0.0466648)
(-0.00050044 -3.05838e-05 -0.0493501)
(0.0017665 0.00245417 -0.0445076)
(0.00121306 0.00107012 -0.0448996)
(0.00181341 0.00266609 -0.0450219)
(0.000385866 -0.000288655 -0.0433373)
(-0.000536387 1.63739e-05 -0.0496547)
(0.000674472 -0.000306725 -0.0474503)
(0.000983233 0.000196835 -0.0445979)
(0.000615604 -0.000136691 -0.0431166)
(0.000640008 -6.80277e-05 -0.0414673)
(0.000805378 -8.11249e-06 -0.0453033)
(-8.22416e-05 -0.000108074 -0.0469932)
(-0.000543184 0.000443311 -0.0496723)
(0.00126937 0.00149441 -0.0447947)
(0.000779161 -0.000207397 -0.0486382)
(0.00172444 0.00279497 -0.0456409)
(0.000308649 -0.00034536 -0.0453814)
(0.00137766 0.00190311 -0.0451617)
(-0.000538163 2.33462e-05 -0.0497671)
(0.000941377 6.11644e-05 -0.0465559)
(0.000308892 -0.000374395 -0.0449884)
(0.000902303 -0.000203974 -0.0484016)
(0.00103765 8.4154e-05 -0.048248)
(0.000589439 -0.000384086 -0.0472649)
(0.000881267 1.27224e-06 -0.0469641)
(0.00583452 0.00393365 -0.0474896)
(0.000961193 0.000164564 -0.0446454)
(0.00152269 0.000128462 -0.0486604)
(0.00104392 -0.000184579 -0.0459847)
(0.000531573 -0.000248575 -0.0440578)
(0.00250979 0.000610026 -0.0484256)
(0.000893145 -0.000256449 -0.0466309)
(0.00138845 -0.000503667 -0.0479891)
(0.000505768 -0.000226278 -0.0479097)
(0.000554979 -0.000264317 -0.0471655)
(0.000929893 3.05666e-05 -0.0474714)
(0.000764035 9.27683e-05 -0.0416114)
(0.0012891 -0.000990669 -0.0467168)
(0.000645611 -0.000422681 -0.047078)
(0.000785969 -0.00046046 -0.0469042)
(0.000590104 -0.000234674 -0.047021)
(0.00070085 -0.000307048 -0.0480501)
(0.000505598 -0.000241877 -0.0449596)
(0.00183886 -0.00104542 -0.0464811)
(0.000301602 -0.000334956 -0.0381675)
(0.00082555 -0.000386514 -0.048646)
(0.000976695 0.000134666 -0.0463365)
(0.00293517 -0.00157896 -0.0464125)
(0.000681046 -0.000291756 -0.0484915)
(0.00456906 0.00314617 -0.0484481)
(0.00102323 -0.000143696 -0.0494974)
(0.00066035 -0.000262908 -0.0488341)
(0.0013672 -0.00131639 -0.0477327)
(0.000603987 -0.000134929 -0.0434853)
(0.000984126 0.000143927 -0.0462581)
(0.00128899 -0.000998148 -0.0453067)
(0.00122226 -0.000984329 -0.0470034)
(0.00123288 -0.000752826 -0.0476657)
(7.00257e-05 -2.91196e-05 -0.0474801)
(0.000681427 -0.000271694 -0.0488721)
(-0.000526612 0.00032404 -0.0487151)
(0.000348167 -0.000316402 -0.0426213)
(0.000362438 -0.000336894 -0.0457366)
(0.00104412 -0.00015172 -0.0488299)
(0.00119281 0.000575075 -0.0464479)
(0.00129281 -0.000970979 -0.0484556)
(0.000710891 -0.000204021 -0.0490778)
(0.00132613 -0.00106048 -0.0478314)
(0.00125944 -0.000819996 -0.0479779)
(0.00064062 -0.000296124 -0.0472375)
(0.000690994 -5.36615e-05 -0.043377)
(0.000582475 -0.00027777 -0.0460482)
(0.000765317 0.000105901 -0.0417225)
(0.000983437 0.000917427 -0.0464211)
(0.000943602 6.30768e-05 -0.0470177)
(0.000869155 0.000190043 -0.0439517)
(-0.000614449 0.000134056 -0.0510224)
(0.00131356 -0.0010464 -0.0469613)
(0.00105895 -0.000639092 -0.0464675)
(0.000567761 -0.000214815 -0.0464171)
(0.000500517 -0.000410224 -0.0468886)
(0.000803693 -0.000214971 -0.0490498)
(0.000902518 -0.000211962 -0.0476987)
(-0.000406737 9.05139e-05 -0.0489616)
(0.00078337 -0.000227207 -0.0489428)
(0.000730708 -2.98082e-05 -0.0438829)
(0.00105863 0.000403538 -0.0455609)
(0.00126207 -0.000905982 -0.0488435)
(0.000560757 -0.000199146 -0.0439306)
(0.000655167 -0.000275039 -0.0463701)
(0.00039049 -0.000293232 -0.0463742)
(-0.000424113 7.81918e-05 -0.048624)
(0.00127487 -0.000843266 -0.0484929)
(0.000519931 -0.000271744 -0.0475726)
(0.000763013 -0.000487886 -0.0462047)
(-0.000345817 1.97579e-05 -0.0473158)
(0.000465519 -0.000240687 -0.0481121)
(0.000685516 -0.00025484 -0.0471616)
(0.000520883 -0.000292404 -0.047746)
(0.000844819 0.000170943 -0.0438695)
(0.000813823 -3.48319e-06 -0.0457563)
(0.000976757 0.000889145 -0.0465671)
(0.00109513 -0.000698018 -0.0466707)
(0.000243441 -0.00041642 -0.0463596)
(0.000655747 -0.000195351 -0.0454662)
(0.000494212 -0.000281614 -0.048306)
(0.000984696 0.00014555 -0.0464852)
(0.00079282 -0.000107546 -0.0479205)
(0.000792447 -0.000232038 -0.048386)
(-0.000365639 8.59118e-05 -0.048635)
(0.00116379 0.000583839 -0.0468681)
(0.00123756 -0.00082502 -0.0491254)
(0.000785654 -0.000237782 -0.0479148)
(0.000681008 -0.00045777 -0.045942)
(-0.000387174 6.53802e-05 -0.0483493)
(0.00100245 0.000877508 -0.0471952)
(-0.000456696 4.60614e-05 -0.0494668)
(0.0010575 -0.000625202 -0.0467242)
(0.00134727 -0.00120009 -0.0485766)
(0.000967756 -0.000174583 -0.0496991)
(0.000851277 -0.000229681 -0.0485392)
(0.000807294 -0.000274537 -0.0479489)
(0.000835615 -0.00021803 -0.049118)
(0.000382558 -0.000321633 -0.046222)
(0.00125665 -0.000979107 -0.0507953)
(-0.00040348 6.49355e-05 -0.0491576)
(0.000347014 -0.000363161 -0.0411702)
(0.000823345 0.000147091 -0.0442237)
(0.000911775 -0.000191188 -0.0493124)
(0.00450289 0.00279809 -0.0482633)
(0.00114843 0.000468418 -0.0466353)
(0.00116961 0.000777646 -0.046629)
(0.000992553 0.000885173 -0.0468337)
(0.000760195 -0.000210612 -0.0484084)
(0.000657002 -0.00046067 -0.0456293)
(0.000583029 -0.000482717 -0.045808)
(0.00113971 0.000544268 -0.0467054)
(0.000891564 -0.000485315 -0.0461778)
(-0.000344523 3.57558e-05 -0.0497721)
(0.000361838 -0.000297947 -0.0432692)
(0.000278734 -0.000339472 -0.0413955)
(0.000816911 0.000213796 -0.044133)
(0.000797934 -0.000275753 -0.0481798)
(0.000921099 8.53854e-05 -0.0463418)
(0.0010304 -0.00056141 -0.0463906)
(-0.000300052 -3.29498e-05 -0.0464814)
(0.00124409 -0.000827522 -0.0485317)
(0.000883456 -0.000480504 -0.046194)
(0.000756085 0.000113077 -0.0432709)
(0.000706436 -6.84252e-05 -0.0451529)
(0.00080979 -0.000233027 -0.0489534)
(0.000854193 1.49859e-05 -0.0462642)
(0.00116733 0.000172942 -0.0476707)
(-0.000350217 4.23945e-05 -0.047746)
(0.00130727 -0.000874858 -0.048782)
(0.00121066 -0.000775407 -0.048828)
(0.00093458 -0.000197543 -0.0491715)
(0.000830098 -0.000231144 -0.0481134)
(0.000839301 -0.000402631 -0.0455437)
(0.000750986 -0.00025586 -0.0479863)
(0.00069629 -0.000212891 -0.049211)
(0.00085284 -0.000389737 -0.0451707)
(0.000928602 3.13122e-05 -0.0460493)
(0.000642228 -0.000344188 -0.0473504)
(0.000542831 -5.53841e-05 -0.0409974)
(0.00095686 -0.000176708 -0.0500092)
(0.000550124 8.737e-05 -0.0387946)
(0.000976287 -1.60504e-05 -0.0481078)
(0.000974798 -0.000173021 -0.0474618)
(-0.000622167 0.000136963 -0.0508328)
(-0.000392126 4.45457e-05 -0.0499246)
(0.000869235 -0.000404866 -0.045363)
(0.00294265 -0.00162136 -0.0466648)
(0.00134064 -0.00121242 -0.0485517)
(0.00043935 -0.000273989 -0.0476133)
(0.000794676 -0.000117887 -0.0483493)
(0.000803017 -0.00023391 -0.0490141)
(0.00112321 0.000208031 -0.0476828)
(0.000827405 -0.000219452 -0.0488087)
(0.000786686 -0.000246934 -0.0487903)
(0.00049099 -0.00029318 -0.0478335)
(0.000853414 0.000726439 -0.0453701)
(0.000840097 -0.000221632 -0.0492568)
(0.000213529 -0.000426739 -0.0441681)
(0.000684195 -0.000282105 -0.0484588)
(-0.000361464 2.62985e-05 -0.0478721)
(0.000771027 0.00181281 -0.0479254)
(0.00128824 -0.000872809 -0.0486032)
(0.000497523 -7.49876e-06 -0.0389361)
(0.000267333 -0.000386066 -0.0460994)
(0.000691015 -0.00024125 -0.0496892)
(0.00078586 -6.06479e-05 -0.0473296)
(0.00114877 0.000196163 -0.0477187)
(0.000781939 -0.000240486 -0.0489549)
(0.000927399 -9.72751e-07 -0.0471358)
(0.000852184 -0.000228377 -0.0489917)
(0.00120566 -0.00077308 -0.0485758)
(0.00082032 -0.000102516 -0.0484349)
(0.00123005 -0.000921374 -0.0515754)
(0.00037298 -0.000526196 -0.0440139)
(0.00121691 -0.000698984 -0.0507163)
(0.000425169 -0.000319677 -0.0472016)
(0.000819664 -0.000222087 -0.0490305)
(0.000351692 -0.000419914 -0.0444502)
(0.000755835 -0.000244551 -0.048838)
(0.000712149 -0.000434769 -0.0478911)
(0.000420641 -0.000385405 -0.0488944)
(0.000788532 0.000288528 -0.0435238)
(0.000921966 -0.000545743 -0.0468421)
(0.000288886 -0.000448399 -0.0444299)
(0.000832155 -0.000225573 -0.049356)
(0.000798405 -0.000243151 -0.0490695)
(0.00318646 0.00175123 -0.0487834)
(0.000745093 -0.000351614 -0.0454234)
(0.000837464 0.000213359 -0.0442921)
(0.0011359 0.000541949 -0.0463676)
(0.000607432 -0.000282736 -0.0487892)
(0.000721752 -0.000199878 -0.0495245)
(-0.000365504 6.57846e-05 -0.0492718)
(0.000670836 -0.000283423 -0.0497968)
(0.00092868 0.00145707 -0.0480753)
(0.000743241 3.01634e-05 -0.0441465)
(0.00066333 -0.000287888 -0.0495838)
(0.000866658 -0.000198821 -0.0472174)
(0.000751518 0.000568483 -0.0435991)
(0.000800887 -0.000239823 -0.049142)
(0.000761986 0.000547957 -0.043467)
(0.00079238 -0.000267923 -0.0488618)
(0.000687551 -0.000254531 -0.0489418)
(0.000797107 0.00162606 -0.0467332)
(0.000935771 -0.000444398 -0.0466846)
(0.000975378 0.0008736 -0.048043)
(0.000711055 0.00184076 -0.0474533)
(0.000685127 0.000200766 -0.0428331)
(0.00109165 0.000299006 -0.0461021)
(0.000483321 -0.000317589 -0.0486641)
(0.000364063 -0.00044998 -0.0436498)
(0.000709293 -0.00022009 -0.0492666)
(0.000657316 -0.000302301 -0.0425757)
(0.000705191 -0.000315569 -0.0452485)
(0.000880708 0.000739414 -0.0462523)
(0.000507408 -0.000280029 -0.0390035)
(0.00109478 0.000493196 -0.0477828)
(0.00110028 0.00051293 -0.0479728)
(0.000686294 0.00235509 -0.0471575)
(0.00117295 -0.000692006 -0.0491212)
(0.000829722 -0.0004768 -0.0482045)
(0.00088876 -0.000502345 -0.0492295)
(0.000608902 -0.000201467 -0.0467161)
(0.000842975 -1.13997e-05 -0.0463616)
(0.000294929 -0.000371335 -0.0420266)
(0.000820395 0.000637757 -0.0445658)
(0.000724861 -0.000497087 -0.0453543)
(0.000754056 0.000247346 -0.0421657)
(0.00079677 5.41832e-05 -0.0453733)
(0.000790652 0.000185638 -0.0444785)
(0.000308036 -0.000455743 -0.0442805)
(0.00124792 0.000537196 -0.0478043)
(0.000651045 -0.000301797 -0.0424439)
(0.000394651 -0.000446779 -0.0450887)
(0.00103922 0.000527473 -0.0469258)
(0.00113519 0.000190841 -0.0481991)
(0.000906362 0.000795825 -0.0469439)
(0.000880741 0.000785622 -0.0474564)
(0.00152552 -0.00153721 -0.0487725)
(0.00134786 -0.00113425 -0.0482405)
(0.000677377 -6.66336e-05 -0.0450591)
(0.000666154 8.86522e-05 -0.0432562)
(0.000621973 -0.000467236 -0.0448723)
(0.000660209 -7.88936e-05 -0.0451705)
(0.000830746 0.000251229 -0.0451554)
(0.000820687 -0.000204692 -0.0473525)
(0.0044693 0.00342422 -0.0490024)
(0.000702559 -0.000205136 -0.0497272)
(0.000694218 -0.000290994 -0.043174)
(0.000721622 -0.000190844 -0.0499675)
(0.000812574 -0.000238081 -0.0494219)
(0.00104241 0.000501748 -0.0469961)
(0.000474272 -0.000267774 -0.0385684)
(0.000772008 0.000579321 -0.0440039)
(0.000360372 -0.000402678 -0.0471927)
(0.000523186 0.000113737 -0.0391215)
(0.00073749 -0.000265261 -0.0489801)
(0.000606682 -0.000324658 -0.0478188)
(0.000745051 -0.000271214 -0.0485459)
(0.000757642 0.000620871 -0.0446866)
(0.000700166 -0.000225539 -0.0493281)
(0.000996829 -0.000195215 -0.0489874)
(0.000705803 -0.000221104 -0.0495175)
(0.00104627 4.54191e-06 -0.0494125)
(0.00113443 0.000139621 -0.0487475)
(0.00072634 -0.000198056 -0.0498243)
(0.000967705 0.000597389 -0.045874)
(0.000960863 0.000982882 -0.0484232)
(0.000714584 -0.0001905 -0.0501493)
(0.000822157 0.00119739 -0.0470145)
(0.00125034 -0.00086341 -0.0482587)
(0.000978119 -0.000506602 -0.0504937)
(0.000387489 0.000120631 -0.0360233)
(0.000802107 0.000208179 -0.0447827)
(0.000895198 -0.000201421 -0.0480204)
(0.000970316 -0.000212273 -0.0487456)
(0.00106196 0.000127372 -0.0480238)
(0.000875665 0.000654004 -0.045568)
(0.00112236 0.000570913 -0.0486184)
(0.000814552 -0.000334246 -0.0459577)
(0.00124237 -0.00111745 -0.050248)
(0.00135607 -0.00113761 -0.0483112)
(0.000654428 -0.000109687 -0.0448807)
(0.000650447 -0.000282626 -0.0497066)
(0.000666371 -0.000274506 -0.0494917)
(0.000899063 0.000360287 -0.0449118)
(0.000464501 -0.000335084 -0.0494077)
(0.0015206 0.000388694 -0.0493691)
(0.000860455 1.29395e-05 -0.0474309)
(0.000807862 -0.000234825 -0.0494882)
(0.0010367 0.000525495 -0.0471807)
(0.000375924 -0.00045112 -0.0443534)
(0.000403813 -0.000353472 -0.0437731)
(0.00103659 0.000320175 -0.046992)
(0.000491632 -9.10979e-05 -0.0403738)
(0.000727395 -4.18591e-05 -0.046237)
(0.000635466 0.000115333 -0.0421319)
(0.000684856 -0.000256179 -0.049641)
(0.000891502 0.000275849 -0.0457428)
(0.000815408 -0.000240211 -0.0494444)
(0.000537899 -0.00030617 -0.0486074)
(0.000816818 -0.000233764 -0.0496217)
(0.000862984 0.0002613 -0.0452982)
(0.00090718 -0.000209521 -0.0484685)
(0.000835533 -0.000230717 -0.0497713)
(0.000624095 -0.000283024 -0.0497322)
(0.00115992 0.000468818 -0.0479964)
(0.000697893 -0.000206857 -0.0500972)
(0.000205973 0.000208516 -0.0470513)
(0.00114775 0.00137458 -0.0469334)
(0.00115345 0.000183251 -0.0491069)
(-0.000634343 0.000107948 -0.0515767)
(0.00124345 -0.00116822 -0.0505067)
(0.00111974 -0.000680921 -0.0498736)
(0.000559956 -0.000372272 -0.0481511)
(0.000519673 -0.000352553 -0.0482497)
(0.000691892 -0.000181683 -0.0439902)
(0.000726469 0.000478035 -0.0430903)
(0.000589518 -0.000304816 -0.0485585)
(0.000500912 -0.000319399 -0.0485091)
(0.000903719 0.000711901 -0.0465049)
(-0.000330299 1.02903e-05 -0.0463681)
(0.000701488 -0.000254038 -0.0486967)
(0.000622304 0.00194265 -0.0483298)
(0.00145059 0.00336553 -0.0483964)
(0.000502629 -0.000460643 -0.0449017)
(0.000903983 -1.31479e-05 -0.0477513)
(0.000596891 -0.000338195 -0.0478887)
(7.90101e-05 -6.53692e-05 -0.048026)
(0.00100591 -3.63033e-05 -0.0493891)
(0.000930811 0.000754948 -0.0473171)
(0.00105521 0.000494546 -0.047562)
(0.00107287 0.000506122 -0.0479549)
(0.000593544 -0.000492624 -0.0471293)
(0.000871693 -0.000359604 -0.0467237)
(0.000737699 -0.000328973 -0.04747)
(0.00106883 -0.00133815 -0.0497413)
(0.000903044 -0.000206173 -0.0501748)
(0.000678092 -0.000344179 -0.0495536)
(0.000913008 0.000779865 -0.0473362)
(0.00106188 0.000992727 -0.0495437)
(0.00110388 -0.000648 -0.0500108)
(0.000151603 -0.00056975 -0.0433145)
(0.000321509 -0.000461086 -0.0467714)
(0.000768364 0.000167829 -0.0443509)
(0.000730945 -0.000271433 -0.0487571)
(0.00072765 -0.000266856 -0.049273)
(0.000751329 2.90561e-06 -0.0452401)
(0.000795389 0.000227249 -0.0447841)
(0.000776558 1.05087e-05 -0.0464739)
(0.000687982 -0.000195406 -0.050604)
(0.000972367 -4.23466e-05 -0.0497489)
(0.000696616 -0.000337723 -0.0495748)
(0.00114056 0.000472829 -0.0479245)
(0.00128539 0.00055201 -0.0490879)
(0.00067207 -0.000278598 -0.0494338)
(0.000968759 0.00073619 -0.0474705)
(0.000676903 -0.000295501 -0.0485305)
(0.000934672 0.000881742 -0.0491974)
(0.00294339 -0.00178956 -0.0473333)
(0.0011739 0.000540701 -0.0492945)
(0.00303223 -0.00166815 -0.0476134)
(0.000509552 0.000326504 -0.0456427)
(0.00038291 -0.000333512 -0.0443847)
(0.000709591 -0.000248521 -0.0500556)
(0.000600538 -0.000300559 -0.0497848)
(0.000841259 -0.000112336 -0.0491522)
(0.00097599 0.000365488 -0.0464401)
(0.000471582 -0.000326796 -0.0488444)
(0.000855954 -0.000229343 -0.0496541)
(0.00083447 -0.000231681 -0.0499817)
(0.00068593 -0.000198902 -0.0505211)
(0.000917641 0.000713622 -0.0471424)
(0.000246849 -0.000468649 -0.0456161)
(0.00105658 0.000501287 -0.0478603)
(0.00067438 -0.000255707 -0.0492859)
(0.000614744 -0.000307381 -0.0488875)
(0.000762693 -0.000168185 -0.0457102)
(0.000504766 -0.000413781 -0.0442553)
(0.000514964 -0.000299941 -0.0489282)
(0.000688794 -0.000216706 -0.0500679)
(0.00074234 -0.000246549 -0.0486524)
(0.000997774 -5.59239e-05 -0.049838)
(0.000386792 -0.000352346 -0.0446589)
(0.0043484 -0.00234925 -0.0464584)
(0.000998832 0.000583294 -0.0469178)
(0.0015244 0.00339657 -0.0491213)
(0.000645921 -0.000426145 -0.0489526)
(0.00134557 -0.00101942 -0.0486796)
(0.00124657 -0.000763516 -0.0497884)
(0.000564499 -0.000312447 -0.0500494)
(0.000732865 0.000504553 -0.0438484)
(0.000754525 -0.000249449 -0.0493769)
(0.000935128 0.00086609 -0.0493431)
(0.000693295 -0.000307649 -0.0500344)
(0.0010284 0.000369815 -0.0477836)
(0.000273554 -0.000156982 -0.047058)
(0.000241549 0.000327964 -0.0444727)
(0.00109648 0.000512252 -0.0490116)
(0.000941176 0.000530332 -0.0458231)
(0.00092481 0.000215705 -0.046404)
(0.00078297 -0.000262626 -0.0488441)
(0.000721879 -0.000272095 -0.0488908)
(0.000424801 -0.00048913 -0.0456693)
(0.00108451 -0.000159964 -0.0503786)
(0.000370855 -0.000478733 -0.0452864)
(0.000592172 -0.000318365 -0.0492954)
(0.000709756 -0.000229386 -0.0500284)
(-0.0023846 0.000503608 -0.0452999)
(0.000719258 -0.000213244 -0.0503551)
(0.000961359 3.76039e-05 -0.0483414)
(0.00108344 0.000193506 -0.0485906)
(0.00110577 0.000583967 -0.0487485)
(0.00113498 -0.000662134 -0.0497733)
(0.000801085 -0.00025155 -0.0481727)
(0.000681046 0.00045086 -0.0430875)
(0.000948027 3.55121e-05 -0.0482316)
(0.00106236 0.000131474 -0.0488787)
(0.00091954 0.00187176 -0.049109)
(0.0010753 0.000772812 -0.0497548)
(0.000110596 0.000308326 -0.0425685)
(0.0011304 -0.000564467 -0.049403)
(0.00100319 -0.000565454 -0.0498203)
(0.000579075 -0.000410887 -0.0481279)
(0.000575074 -0.000218691 -0.0463383)
(0.000329793 -0.00040606 -0.0467013)
(0.000508876 -0.000285162 -0.0447206)
(0.000904177 -0.000603392 -0.0470297)
(0.000939431 0.000342558 -0.0462841)
(0.00101274 -0.000211063 -0.0485274)
(0.000756299 0.000151029 -0.0445468)
(0.000748091 0.000153682 -0.0445228)
(0.00102229 0.000443158 -0.0468381)
(0.000403861 1.04264e-05 -0.047425)
(-0.000187337 0.00021376 -0.0489522)
(0.000974973 -2.13418e-05 -0.0497564)
(0.000877694 -0.000257431 -0.0497221)
(0.000993634 9.47549e-05 -0.0485236)
(0.000489554 -0.000402137 -0.0460326)
(0.000872756 -0.000183165 -0.0488491)
(0.00047215 -0.000500473 -0.045951)
(0.00124352 0.00144611 -0.0480826)
(0.00145424 0.0033914 -0.0484582)
(0.000173538 0.000323352 -0.043906)
(0.00144399 0.00342064 -0.0486426)
(0.000675341 0.000310975 -0.0475922)
(0.000525724 -7.82686e-05 -0.0491722)
(0.00074933 -9.30074e-05 -0.047848)
(0.000808991 -0.000207873 -0.0483898)
(0.000732496 -0.000472026 -0.0481861)
(0.00088555 -0.000213649 -0.0491124)
(0.000740678 -0.000262137 -0.0496795)
(0.000870376 0.000608263 -0.0459074)
(0.000781545 -0.000357899 -0.0506517)
(0.000958757 0.000725281 -0.0478738)
(0.00112645 0.00015737 -0.0503652)
(-0.000474454 -9.68817e-05 -0.0519064)
(0.000764661 -0.000264871 -0.0443115)
(0.000809841 -0.000151309 -0.0465145)
(0.000769578 -0.000245313 -0.0497229)
(0.000931592 8.14647e-05 -0.0479575)
(0.000728752 0.00054672 -0.044413)
(0.000737424 -0.000265596 -0.0494929)
(0.000899791 0.000693748 -0.0464418)
(0.000957058 0.000719118 -0.0478794)
(0.000714807 -0.000194532 -0.0511928)
(0.00083647 -0.000223463 -0.0502833)
(0.00101316 -5.24872e-05 -0.0508732)
(0.00098973 0.000893835 -0.0493741)
(0.0009432 0.000776747 -0.0480158)
(0.000774981 -0.000480519 -0.0482561)
(0.000682436 -0.00030059 -0.0506136)
(0.00102405 0.000318869 -0.0477412)
(0.000871544 0.000305685 -0.0430555)
(0.000693737 -0.000260081 -0.0503464)
(0.000433948 -0.000338771 -0.0488769)
(0.000890506 -4.14273e-06 -0.0486338)
(0.000793993 0.000606588 -0.0451917)
(0.000611038 -0.000246605 -0.045573)
(0.000771572 -2.90346e-05 -0.0474291)
(0.000398346 -0.000484038 -0.0458094)
(0.000731423 8.05649e-05 -0.0499022)
(0.000861672 0.00066258 -0.0461406)
(0.000745475 0.00046585 -0.0436356)
(0.00110703 0.000326344 -0.0505863)
(0.0010178 0.000767787 -0.0482051)
(0.00123703 0.000917761 -0.0505331)
(0.000952505 -0.000152074 -0.049294)
(0.00108364 0.000564427 -0.0491284)
(0.000345442 -0.000414614 -0.0457793)
(0.000649724 -8.03693e-05 -0.0455229)
(0.000717958 -0.00015943 -0.0486248)
(0.00084733 -0.000198727 -0.0508746)
(0.000623452 0.00010986 -0.0433046)
(0.000746354 -0.000484683 -0.0480487)
(0.000797376 -0.000230261 -0.0499989)
(0.000807775 -0.000275116 -0.0490433)
(0.000756722 -0.000491214 -0.0470814)
(0.00104613 0.000355634 -0.0477931)
(0.000859974 -0.000201472 -0.0492403)
(0.000748469 -0.00023804 -0.0501008)
(0.000716272 -0.000218803 -0.0506471)
(0.000916765 0.000480615 -0.0460337)
(0.000693217 -0.000270678 -0.0490164)
(0.00107138 0.00038742 -0.0490271)
(0.000709007 -0.00024391 -0.0493577)
(0.00103923 -5.22454e-05 -0.0505417)
(0.00111258 0.000140449 -0.0502312)
(0.00137813 -0.00119816 -0.0493757)
(0.000506042 -0.000305462 -0.0446927)
(0.000753898 -0.000222909 -0.047571)
(0.000577452 -0.000357163 -0.0489209)
(0.000868184 -0.000200814 -0.0487438)
(0.000772095 0.000141185 -0.045045)
(0.00099221 -2.65019e-05 -0.0501168)
(0.000629818 -0.000446737 -0.0461661)
(0.00100399 0.00060738 -0.0480815)
(0.000903946 -0.000206734 -0.0494593)
(0.00074304 -0.000190082 -0.051497)
(0.000855125 -0.000225299 -0.0503014)
(0.000921844 0.000914064 -0.0500591)
(0.000935404 -0.000205046 -0.0496681)
(0.00128034 -0.000896293 -0.0495013)
(0.000346142 -0.000420087 -0.0431542)
(0.00107398 0.000413007 -0.0483955)
(0.00267905 -0.00029954 -0.048292)
(0.00518025 -0.00279386 -0.0459016)
(0.00106262 3.53602e-05 -0.0504123)
(0.00107168 -0.000190487 -0.0476958)
(0.000670082 0.000463197 -0.0438123)
(0.000672318 -0.000127166 -0.0471052)
(0.000973199 -0.00018558 -0.0506474)
(0.00101254 0.000343696 -0.0476158)
(0.000512857 -0.0003555 -0.0487226)
(0.000931828 -0.000157752 -0.0492717)
(0.000513373 -0.000345748 -0.0493646)
(0.00128315 0.000615213 -0.04972)
(0.000845056 -0.000194489 -0.0494727)
(0.00105534 0.000418577 -0.0480286)
(0.000813238 0.000672092 -0.0461998)
(0.000984316 -1.00464e-05 -0.0501012)
(0.000870348 0.000478681 -0.0460396)
(0.000826105 -0.000520174 -0.0473706)
(0.00132408 -0.000988316 -0.0487981)
(0.000571273 1.19022e-05 -0.0424345)
(0.00060661 -0.000260619 -0.0455809)
(0.000516795 -0.000349862 -0.0491878)
(0.000711132 -0.000367797 -0.0499266)
(0.00097786 7.73875e-05 -0.0491148)
(0.000702164 -0.000188518 -0.0515811)
(0.00077423 -0.000254144 -0.0500439)
(0.00100739 0.000471413 -0.0479045)
(0.00110215 0.000326642 -0.0505086)
(0.000839473 0.000785349 -0.0482891)
(-0.000127558 -0.00128026 -0.050525)
(0.00066208 5.80996e-05 -0.0505403)
(0.000845364 -0.000492574 -0.048621)
(0.000529123 -0.000376007 -0.0490552)
(0.000682295 -0.000262323 -0.0503639)
(0.001027 0.000767193 -0.0491715)
(0.00116193 0.000147696 -0.0498566)
(0.000846102 0.000674133 -0.0471986)
(0.000705144 -5.69823e-05 -0.0470909)
(0.000891549 0.000309712 -0.0465346)
(0.00102695 0.000403059 -0.0477459)
(0.00118977 0.000505509 -0.0494412)
(0.000951602 -0.00015185 -0.0500742)
(0.00110517 0.000126074 -0.050171)
(0.000752738 -0.000225353 -0.0511144)
(0.00077347 -0.000160521 -0.0466617)
(0.000972462 7.78267e-05 -0.0492316)
(0.000573184 -0.000348744 -0.0494486)
(0.000521608 -0.000379327 -0.0486843)
(0.000518583 -0.000320712 -0.0497495)
(0.000695614 -0.000176895 -0.0521435)
(0.00111541 0.00143952 -0.0477939)
(0.000704717 -0.000216166 -0.0506495)
(0.00125465 -0.00102392 -0.0484331)
(0.000698632 -0.0003929 -0.0502106)
(0.000877955 -0.00021488 -0.0514893)
(0.00104007 0.000157253 -0.0490863)
(-0.00211194 0.00034655 -0.0456496)
(0.00224745 -0.00138028 -0.0458591)
(0.000709452 -0.000192054 -0.0517427)
(0.0010826 0.00017181 -0.0506711)
(0.000253255 0.00115849 -0.0478018)
(0.000748559 -0.000428917 -0.0505836)
(0.000435326 -0.000497186 -0.0475639)
(0.000646474 -0.000147431 -0.0472845)
(0.000576199 0.000154065 -0.0419084)
(0.000809339 -0.000273008 -0.0510304)
(0.000857964 0.00072684 -0.0476223)
(0.00102351 -0.000101689 -0.0502589)
(0.000300411 -0.000458344 -0.046398)
(0.0010089 -7.07923e-05 -0.0511568)
(0.000864736 0.000294784 -0.0463622)
(0.000438546 -0.000444523 -0.0480361)
(0.00102364 0.000345227 -0.048029)
(0.00107716 0.00032945 -0.0501856)
(0.000842194 0.000489201 -0.0466959)
(0.00128041 -0.000942295 -0.0510866)
(-0.000333775 0.00087538 -0.051002)
(0.00120448 -0.00127501 -0.050007)
(0.000247405 -0.000523548 -0.046322)
(0.00058495 -0.000412513 -0.0487581)
(0.00115662 0.000849872 -0.0490681)
(0.000679525 0.000461295 -0.0441201)
(0.000883274 0.000294639 -0.0463981)
(0.000633332 2.38845e-06 -0.0503023)
(0.000997271 0.000311345 -0.0480337)
(0.000749916 -0.000204685 -0.0507575)
(0.000680037 -0.000253675 -0.0508149)
(0.000749749 -0.000224134 -0.0514049)
(0.00202235 0.00316691 -0.0495689)
(0.000854939 -0.000214413 -0.0497471)
(0.00157856 0.00046148 -0.0501696)
(0.00084393 0.000678828 -0.0475056)
(0.000932904 -0.00138735 -0.0526557)
(0.000941491 0.000231146 -0.0466428)
(0.000476416 -0.000325616 -0.050504)
(0.000726387 0.00022871 -0.0450756)
(0.00074411 -0.000257356 -0.0500097)
(0.000772963 -0.000221683 -0.0490521)
(0.00095242 5.8381e-05 -0.0493063)
(0.000998744 0.000320275 -0.0481625)
(0.00205063 0.000831847 -0.0501693)
(0.000592634 -0.000465733 -0.0470614)
(0.00049547 -0.000359193 -0.0495315)
(0.000384107 -0.000451542 -0.0473491)
(0.000619462 0.000347383 -0.0477149)
(0.00113759 0.000123953 -0.0495635)
(0.000783408 -0.000230971 -0.0488112)
(0.00080468 0.000232575 -0.0450798)
(0.000904177 -5.24529e-05 -0.0499982)
(0.00101575 0.000387208 -0.0481512)
(0.000961903 7.56256e-05 -0.0492036)
(0.000890015 -0.000259746 -0.0508156)
(0.000403339 -0.000349238 -0.0437387)
(-0.000345953 0.000817918 -0.0508539)
(0.000718875 -0.000254098 -0.047483)
(0.000818694 -0.000357964 -0.0497377)
(0.000840492 0.000279645 -0.0466161)
(0.000668869 0.000173521 -0.0440538)
(-0.000468502 0.000187444 -0.0470487)
(0.000982539 0.000312463 -0.0480456)
(0.000805755 -0.000218245 -0.0515051)
(0.00113021 0.00075844 -0.0498736)
(0.000926714 -0.000187717 -0.0521089)
(0.00109858 0.000750082 -0.0506451)
(0.000858809 0.000848629 -0.0488588)
(-0.00067994 8.35029e-05 -0.0529854)
(0.00127175 -0.000991449 -0.0489261)
(0.000896322 -0.00143005 -0.0499114)
(0.00074635 8.48054e-05 -0.045426)
(0.000868375 0.000258756 -0.0463)
(-0.000463845 0.000184915 -0.0470229)
(0.000837751 -0.000201823 -0.0493409)
(0.000985435 0.000316907 -0.0481075)
(0.000506713 -0.000292166 -0.0501891)
(0.000418496 -0.000334172 -0.0507501)
(0.00106064 -0.000495161 -0.0481235)
(0.000605526 0.000323985 -0.0484396)
(0.00121636 -0.00112435 -0.0505676)
(0.00106584 -0.000632864 -0.0507603)
(0.000757706 -2.99253e-05 -0.0482149)
(0.00100045 0.000349595 -0.0479061)
(0.000871217 -0.000202367 -0.0513168)
(0.000820143 -0.000198361 -0.049734)
(0.000981387 6.2245e-05 -0.0493051)
(0.000980895 5.49481e-05 -0.0490234)
(-0.00137806 0.000652891 -0.0461768)
(-0.00138361 0.000613673 -0.0463473)
(-2.22399e-05 -0.00023648 -0.0497421)
(0.000862898 0.000708806 -0.0478726)
(0.00105638 0.000123177 -0.0514402)
(0.00091315 0.000166038 -0.0460199)
(0.000591208 -0.000244905 -0.0456576)
(0.000876438 -0.000363197 -0.0486067)
(0.000783864 -0.000746244 -0.045716)
(0.000977279 0.000385721 -0.0482796)
(0.000572469 -0.000182962 -0.0521156)
(0.00120711 -0.000802601 -0.0501108)
(0.000684759 -0.00025949 -0.0472022)
(0.00112878 0.000981023 -0.0480119)
(0.00104883 0.000704745 -0.0477125)
(0.000875259 0.000253854 -0.0465764)
(0.000603653 -0.000258325 -0.0505558)
(0.000969435 0.000728818 -0.0479686)
(-0.000377714 -2.60734e-05 -0.047999)
(0.00133446 -0.00109523 -0.0508214)
(0.000760622 -0.000234616 -0.0489277)
(0.000465678 0.00017652 -0.0393547)
(0.000932622 0.000299487 -0.0477051)
(0.00101807 0.00030784 -0.0482885)
(0.000856156 -0.00020184 -0.0517312)
(0.00101463 0.000413853 -0.0490459)
(0.000991229 -0.000533124 -0.0498127)
(0.00101264 0.000295905 -0.0496018)
(0.000485803 -0.0003916 -0.0487966)
(0.000502325 -0.000298201 -0.0445625)
(0.000652571 -0.000290377 -0.0505428)
(0.000837568 -0.000204843 -0.0491663)
(0.0010323 0.000442465 -0.0483585)
(0.000374446 -0.000472581 -0.0453092)
(0.000742324 -0.000285698 -0.0494631)
(0.000901732 0.000289391 -0.047279)
(0.000978847 0.000336467 -0.047815)
(0.000423313 -4.4574e-05 -0.0487541)
(0.000836265 -0.000202603 -0.0495059)
(0.000713018 0.000579006 -0.0456524)
(0.000910847 -1.64905e-05 -0.0499034)
(0.00117667 -3.71738e-05 -0.0510615)
(0.000413348 -0.000448915 -0.0451606)
(0.00104701 0.000843425 -0.0513341)
(0.00114348 0.000168194 -0.0513693)
(0.000900172 0.00209058 -0.0509368)
(0.00107367 -0.000653608 -0.0490929)
(0.00122567 -0.00123312 -0.0487327)
(0.000754882 3.88627e-07 -0.0449623)
(0.000392665 -0.000460776 -0.0464463)
(0.000941174 6.10375e-05 -0.0493261)
(0.00071408 -0.000341696 -0.0486402)
(0.000955684 6.11008e-05 -0.049438)
(0.000814089 -0.000204853 -0.0504169)
(0.000731791 -0.000451356 -0.0503844)
(0.000833402 0.000232029 -0.046492)
(0.000656082 -0.000186065 -0.0525085)
(0.000889589 0.000396901 -0.0467179)
(0.000971396 -0.000556297 -0.047283)
(0.000351937 -0.000374931 -0.0452475)
(0.000766762 0.000626396 -0.0470548)
(0.00101038 -0.000571204 -0.0474515)
(0.00106588 -0.00055387 -0.0496408)
(0.00106759 0.000135256 -0.0517035)
(-0.000390088 -0.00100887 -0.0522878)