/*--------------------------------*- C++ -*----------------------------------*\
| =========                 |                                                 |
| \\      /  F ield         | OpenFOAM: The Open Source CFD Toolbox           |
|  \\    /   O peration     | Version:  plus.master.MPPICInterFoam            |
|   \\  /    A nd           | Web:      www.OpenFOAM.com                      |
|    \\/     M anipulation  |                                                 |
\*---------------------------------------------------------------------------*/
FoamFile
{
    version     2.0;
    format      ascii;
    class       volVectorField;
    location    "10.6";
    object      U;
}
// * * * * * * * * * * * * * * * * * * * * * * * * * * * * * * * * * * * * * //

dimensions      [0 1 -1 0 0 0 0];

internalField   nonuniform List<vector> 
11821
(
(-0.00480462 0.00683603 0.441117)
(-0.0052699 0.00742829 0.559262)
(-0.00318702 0.00744404 0.434448)
(-0.00687241 0.00956552 0.6512)
(-0.00396022 0.00937299 0.514538)
(-0.00252834 0.00841738 0.405847)
(-0.0159179 -0.0153926 0.532913)
(-0.0119078 -0.0152633 0.548267)
(-0.00816053 -0.0154662 0.531403)
(-0.00333898 -0.0131136 0.485118)
(-0.000137038 -0.00870091 0.420349)
(0.000764936 -0.00515205 0.349063)
(0.000992624 -0.00255162 0.27721)
(-0.0189866 -0.0175894 0.670065)
(-0.0130311 -0.0138131 0.705408)
(-0.00828768 -0.0156933 0.680715)
(-0.000815177 -0.0150011 0.602687)
(0.00387975 -0.00948574 0.510038)
(0.00423152 -0.00508213 0.418739)
(0.0034309 -0.00211088 0.332324)
(-0.0230991 -0.00931637 0.893346)
(-0.012987 0.00254809 0.977486)
(-0.0087594 -0.00209358 0.928756)
(0.00242477 -0.00929182 0.761806)
(0.0100586 -0.00603646 0.605134)
(0.00922884 -0.00259543 0.484865)
(0.00667983 -0.000307654 0.381929)
(-0.0159254 0.00484452 1.10066)
(-0.0122023 0.019342 1.15067)
(-0.0170143 0.0161691 1.11003)
(-0.00221539 0.00175517 0.940026)
(0.0125385 0.00175353 0.691909)
(0.0127211 0.00267046 0.536405)
(0.0092385 0.003173 0.419278)
(-0.0120103 0.00626238 1.15543)
(-0.0149113 0.00781447 1.13748)
(-0.0258008 0.006953 1.19358)
(-0.0134943 0.0069032 1.01285)
(0.00853331 0.00751327 0.731221)
(0.0127396 0.00746551 0.559195)
(0.00989918 0.00675654 0.436712)
(-0.0179891 0.00920651 1.09717)
(-0.0121078 -0.00362153 1.15887)
(-0.0144529 -0.00160095 1.12966)
(0.000391521 0.0142719 0.962954)
(0.0140254 0.0138444 0.706501)
(0.0139501 0.0122189 0.548724)
(0.0101459 0.0100912 0.431809)
(-0.021168 0.0237929 0.870259)
(-0.0114523 0.017526 0.984009)
(-0.00486613 0.0215773 0.943923)
(0.00635619 0.0274911 0.787049)
(0.0125026 0.022001 0.630037)
(0.0110335 0.0170037 0.509459)
(0.00830283 0.0129647 0.406168)
(-0.0169505 -0.0136162 0.535333)
(-0.0124824 -0.0152895 0.546637)
(-0.00747083 -0.0147654 0.528149)
(-0.00279452 -0.0114877 0.482899)
(-0.000247668 -0.00741122 0.420118)
(0.000590449 -0.0043739 0.34977)
(0.000938573 -0.00220326 0.278115)
(-0.0209473 -0.0175988 0.651559)
(-0.0138482 -0.018192 0.673617)
(-0.00633442 -0.0181942 0.650468)
(0.000614916 -0.0144316 0.587862)
(0.00355126 -0.00844029 0.505487)
(0.00345377 -0.00432557 0.418107)
(0.00285246 -0.00178124 0.332838)
(-0.0248042 -0.0150742 0.792747)
(-0.0134519 -0.00976087 0.868603)
(-0.00426146 -0.0116699 0.822028)
(0.00590436 -0.0121164 0.700363)
(0.00995685 -0.00662524 0.588712)
(0.00786288 -0.00246365 0.481425)
(0.00557209 -0.000189524 0.381585)
(-0.0226336 -0.00468458 1.00223)
(-0.00902912 0.00698328 1.11591)
(-0.00814887 0.00228723 1.0521)
(0.00644707 -0.00256963 0.823719)
(0.0151239 0.000185704 0.656734)
(0.0120044 0.00232182 0.529979)
(0.00803623 0.00304953 0.418142)
(-0.0185739 0.00541484 1.0963)
(-0.00847626 0.00389215 1.22854)
(-0.0146048 0.00519607 1.13659)
(0.0033157 0.00748339 0.885213)
(0.0152997 0.00850396 0.687447)
(0.0130836 0.00815649 0.552378)
(0.00884376 0.00692005 0.436005)
(-0.0262579 0.0183005 0.990644)
(-0.00999289 0.00815719 1.14386)
(-0.0055835 0.0137415 1.06511)
(0.00730011 0.0192546 0.838689)
(0.0155904 0.0167412 0.671041)
(0.012265 0.0135056 0.544628)
(0.00834397 0.0103604 0.432683)
(-0.0232486 0.0292605 0.788911)
(-0.0113675 0.0296454 0.859705)
(-0.00166946 0.0309248 0.830143)
(0.00694269 0.0296912 0.727032)
(0.0104459 0.0226364 0.617919)
(0.00830659 0.016974 0.510571)
(0.00653622 0.0124927 0.409464)
(-0.013517 0.000534802 0.536619)
(-0.0124571 -0.000318389 0.544666)
(-0.00987076 -0.000590622 0.524177)
(-0.00734929 9.39317e-05 0.478689)
(-0.00549001 0.000588396 0.416431)
(-0.00392837 0.000829524 0.346663)
(-0.00266053 0.0010765 0.275707)
(-0.017315 0.00102804 0.651386)
(-0.0149015 -0.00122883 0.666735)
(-0.0105821 -0.001549 0.6423)
(-0.00728376 0.000352441 0.580918)
(-0.00550706 0.00135261 0.500467)
(-0.00396661 0.00162628 0.414131)
(-0.00262797 0.00167361 0.329712)
(-0.021283 -0.00180229 0.78072)
(-0.0159911 -0.00479496 0.838031)
(-0.00905307 -0.00287129 0.792449)
(-0.00481887 0.000173576 0.689198)
(-0.00409988 0.00247229 0.581183)
(-0.00327564 0.00300218 0.476185)
(-0.00213709 0.00286486 0.377623)
(-0.0276445 0.000154402 0.904529)
(-0.0150775 -0.00193214 1.11084)
(-0.00341466 0.00126318 0.993905)
(-0.00108928 0.00447959 0.793169)
(-0.00146402 0.00576513 0.646299)
(-0.00220739 0.00562251 0.523497)
(-0.00154904 0.00477622 0.413666)
(-0.0314493 0.00884357 0.958337)
(-0.0146497 0.0101971 1.22662)
(-0.00218613 0.0107848 1.10859)
(-0.00104172 0.0112015 0.850033)
(-0.00162476 0.0104252 0.676606)
(-0.00233333 0.00881896 0.546578)
(-0.0015639 0.00690055 0.432035)
(-0.0284031 0.0191853 0.890769)
(-0.0143114 0.0253815 1.04104)
(-0.00389958 0.0216057 0.979756)
(-0.00334443 0.0171018 0.806687)
(-0.00302715 0.013837 0.664603)
(-0.00335133 0.0110491 0.540993)
(-0.00190229 0.0083726 0.430049)
(-0.0187484 0.0200443 0.792296)
(-0.0139433 0.0261179 0.838516)
(-0.00948968 0.0232305 0.818752)
(-0.00758498 0.0179062 0.724971)
(-0.00646171 0.0137466 0.617105)
(-0.00445329 0.01128 0.509879)
(-0.00187864 0.00846477 0.40852)
(-0.0095991 0.00983528 0.531363)
(-0.0115292 0.0105148 0.537227)
(-0.0113695 0.00885314 0.515091)
(-0.0102 0.00709084 0.468855)
(-0.00840294 0.00508753 0.406916)
(-0.00624528 0.00359983 0.338435)
(-0.00436982 0.00267879 0.269415)
(-0.012839 0.015984 0.652998)
(-0.0153032 0.0143902 0.662848)
(-0.0146508 0.012044 0.635714)
(-0.0133488 0.0103762 0.571759)
(-0.0111883 0.00732649 0.489902)
(-0.00808107 0.0049692 0.404173)
(-0.005419 0.00343223 0.321671)
(-0.0173139 0.0151869 0.79457)
(-0.0200361 0.0081659 0.83716)
(-0.0162159 0.00774482 0.787187)
(-0.0150851 0.010761 0.683972)
(-0.013825 0.00876114 0.571166)
(-0.00985983 0.00628663 0.465119)
(-0.00629535 0.00443981 0.368181)
(-0.0289907 0.0115284 0.917069)
(-0.0270867 0.00681319 1.00261)
(-0.0111512 0.00428951 0.972973)
(-0.0115531 0.0105931 0.78526)
(-0.0150548 0.00981416 0.637066)
(-0.0112791 0.00749576 0.511987)
(-0.00703545 0.00546959 0.403429)
(-0.0343824 0.0163593 0.977335)
(-0.0321913 0.0191788 1.04789)
(-0.0142425 0.0184089 1.08896)
(-0.0111005 0.0142054 0.850654)
(-0.0165951 0.0109346 0.669263)
(-0.0127428 0.00833345 0.535694)
(-0.00768659 0.0061402 0.421906)
(-0.0238169 0.0141347 0.885615)
(-0.0273748 0.0240465 0.989921)
(-0.0172912 0.0247215 0.989389)
(-0.0164018 0.0138103 0.808318)
(-0.0183668 0.00991888 0.662135)
(-0.0130931 0.00799685 0.531817)
(-0.00755433 0.00612241 0.420851)
(-0.0128895 0.00147816 0.830346)
(-0.0190489 0.0104634 0.893582)
(-0.01971 0.00986304 0.853573)
(-0.0197965 0.00571529 0.739438)
(-0.0174593 0.00618168 0.615267)
(-0.0114817 0.00652245 0.502136)
(-0.00609746 0.00522597 0.400746)
(-0.00770647 0.00470903 0.520993)
(-0.00914055 0.00660625 0.525425)
(-0.00925954 0.00500955 0.502209)
(-0.0078225 0.00344679 0.456081)
(-0.00576682 0.00220914 0.395473)
(-0.00376465 0.00142147 0.329322)
(-0.00220637 0.00100994 0.263032)
(-0.00998547 0.0103497 0.652746)
(-0.0125205 0.0126226 0.661569)
(-0.0128851 0.00918645 0.628938)
(-0.0109307 0.00668708 0.558661)
(-0.00789616 0.00429358 0.475858)
(-0.00493241 0.00271313 0.392203)
(-0.00272921 0.0017384 0.312924)
(-0.0140288 0.0139394 0.850911)
(-0.0181576 0.0150438 0.870962)
(-0.0162116 0.00907572 0.814977)
(-0.0136415 0.00865983 0.683762)
(-0.0101083 0.0064766 0.557276)
(-0.00604787 0.00432151 0.451013)
(-0.00312979 0.00286959 0.357424)
(-0.0208053 0.0126826 1.01282)
(-0.0237708 0.00998588 0.984313)
(-0.0177339 0.00560798 0.962336)
(-0.0130705 0.00770977 0.812301)
(-0.0120561 0.00822816 0.627508)
(-0.00740199 0.00591741 0.49676)
(-0.00363143 0.00407704 0.391355)
(-0.0222213 0.0126114 1.0232)
(-0.0279135 0.0115053 1.03775)
(-0.0202275 0.0117434 0.971315)
(-0.0164988 0.0109226 0.867398)
(-0.0163688 0.00823082 0.663666)
(-0.00943325 0.00628424 0.520509)
(-0.00428944 0.0046366 0.409487)
(-0.0164355 0.00820351 1.08549)
(-0.0243932 0.00962106 1.02928)
(-0.0222825 0.0153051 1.00757)
(-0.0161316 0.0111424 0.859304)
(-0.0140084 0.00668229 0.658515)
(-0.00796322 0.00589916 0.517687)
(-0.00341148 0.00475458 0.409257)
(-0.00968992 -0.00179216 0.898307)
(-0.0166676 -0.00254821 0.94627)
(-0.017588 0.00418775 0.913019)
(-0.0150313 0.00425045 0.759001)
(-0.0108818 0.00559106 0.606795)
(-0.00581208 0.00596097 0.489672)
(-0.00191615 0.00477615 0.390923)
(-0.00845006 -0.00689118 0.513718)
(-0.00699088 -0.00567346 0.516217)
(-0.00527661 -0.0058431 0.492388)
(-0.00278412 -0.00513432 0.446824)
(-0.000704089 -0.00376784 0.387844)
(0.000524707 -0.00264134 0.32396)
(0.00125593 -0.00179514 0.259974)
(-0.0103962 -0.00579523 0.63986)
(-0.00850945 -0.00307919 0.64828)
(-0.0066706 -0.00443085 0.613699)
(-0.00306978 -0.00448968 0.544451)
(-0.000111975 -0.00302956 0.464119)
(0.001274 -0.00195993 0.383927)
(0.00193704 -0.00127099 0.307904)
(-0.0123176 -0.00088864 0.834866)
(-0.0103785 0.00404959 0.856415)
(-0.00802778 0.00112008 0.794263)
(-0.00278632 -0.00187998 0.665028)
(0.00125963 -0.000778112 0.541616)
(0.00251387 -0.000260219 0.440033)
(0.00293271 -4.88339e-05 0.350664)
(-0.0110818 0.00390352 1.0018)
(-0.0124337 0.00436022 1.01929)
(-0.011249 0.0059091 0.949961)
(-0.00439692 0.00147667 0.790471)
(0.00170851 0.00311067 0.609635)
(0.00321655 0.00246888 0.484138)
(0.00366353 0.0018064 0.383493)
(-0.0123189 0.00332288 1.05853)
(-0.0119754 0.00244091 1.03604)
(-0.011727 0.00362112 0.962266)
(-0.0119388 0.00476335 0.850038)
(-0.00282227 0.00475872 0.645721)
(0.00203727 0.00425823 0.507232)
(0.00367339 0.00331854 0.401315)
(-0.0103437 0.00406551 1.03666)
(-0.0110265 0.00170539 1.08046)
(-0.0117136 0.0011576 1.0007)
(-0.00410005 0.00786628 0.842523)
(0.00216237 0.00622872 0.640529)
(0.00409876 0.00587812 0.505609)
(0.00460373 0.0046693 0.401983)
(-0.00955946 0.00971674 0.880412)
(-0.00853515 0.0057119 0.943731)
(-0.00693402 0.00815305 0.88758)
(-0.000997518 0.012031 0.740708)
(0.003262 0.0102114 0.592186)
(0.00445897 0.00838931 0.480095)
(0.00496591 0.00614702 0.385531)
(-0.00915931 -0.0103012 0.510821)
(-0.00637654 -0.0102832 0.511511)
(-0.00353806 -0.00971871 0.486978)
(-0.00071998 -0.00783565 0.442102)
(0.00110405 -0.00559044 0.384545)
(0.00195749 -0.00390752 0.322141)
(0.00237027 -0.00272049 0.259474)
(-0.0110128 -0.0115267 0.625572)
(-0.00703628 -0.0105779 0.632576)
(-0.00342939 -0.0105803 0.597605)
(0.00046361 -0.00856963 0.533244)
(0.00267113 -0.00557266 0.457502)
(0.00326519 -0.00355363 0.380212)
(0.00336412 -0.00233826 0.306186)
(-0.0121681 -0.0084872 0.794715)
(-0.00631794 -0.0046444 0.828803)
(-0.00248375 -0.00609372 0.754385)
(0.00288298 -0.0066259 0.636775)
(0.00556729 -0.0038781 0.529384)
(0.00532585 -0.00210541 0.434128)
(0.00476843 -0.00122927 0.34778)
(-0.0101079 -0.00399289 0.978915)
(-0.0039845 0.00215398 1.00411)
(-0.00219705 0.0011534 0.926578)
(0.00280865 -0.000896958 0.74685)
(0.00769951 0.000264142 0.590674)
(0.00708562 0.00082044 0.476442)
(0.00600279 0.00075608 0.37982)
(-0.00324919 -7.79597e-05 1.04458)
(-0.00222652 -0.000165224 1.01176)
(-0.00639148 0.000999604 1.01461)
(-0.00259745 0.00283178 0.814208)
(0.00629824 0.00388313 0.623929)
(0.00712715 0.00370924 0.499051)
(0.00642203 0.00283532 0.397544)
(-0.0099518 0.00577928 1.02183)
(-0.00298637 -0.00151385 1.04459)
(-0.00280479 0.00198827 0.975225)
(0.00226218 0.00743522 0.793396)
(0.00830393 0.00754017 0.618668)
(0.00784187 0.00646699 0.498214)
(0.0067974 0.00476294 0.398857)
(-0.00992106 0.0135414 0.839817)
(-0.00406428 0.0117708 0.898316)
(-0.000874595 0.0139279 0.83216)
(0.00436556 0.0153 0.69944)
(0.0072658 0.0120528 0.578386)
(0.00688397 0.00925407 0.475285)
(0.00649778 0.00644369 0.383856)
(-0.00844929 -0.00524442 0.50892)
(-0.00670964 -0.00547656 0.507788)
(-0.00444579 -0.00524089 0.482555)
(-0.00220388 -0.0041463 0.437924)
(-0.000604532 -0.00306307 0.381323)
(0.000473775 -0.00229671 0.320019)
(0.0011574 -0.00174182 0.258494)
(-0.0104227 -0.00529544 0.618862)
(-0.00786526 -0.00552019 0.621798)
(-0.00492019 -0.00563547 0.588701)
(-0.00202388 -0.00410327 0.526198)
(-0.000227491 -0.00263463 0.452391)
(0.000847222 -0.00179408 0.376684)
(0.00154158 -0.00136955 0.304091)
(-0.0113552 -0.00450962 0.76156)
(-0.00715081 -0.0018692 0.791582)
(-0.00402154 -0.00409181 0.727248)
(-0.000362849 -0.00305531 0.623715)
(0.00124491 -0.00137517 0.521887)
(0.0018173 -0.000614137 0.429194)
(0.00225859 -0.000455771 0.34469)
(-0.011207 -0.000661608 0.930029)
(-0.00359068 0.0050377 0.989014)
(-0.00188534 3.29097e-06 0.896711)
(0.000905975 0.000997612 0.719238)
(0.00282332 0.00162036 0.580251)
(0.00282782 0.00159079 0.470368)
(0.002968 0.00108011 0.376018)
(-0.00583408 0.00244296 0.992265)
(-0.00127337 0.00215596 1.06172)
(-0.00870898 0.00375662 0.990342)
(-0.00295292 0.00457721 0.780327)
(0.00205176 0.00467684 0.611387)
(0.00278606 0.00394989 0.492849)
(0.00317046 0.00273655 0.393693)
(-0.011396 0.00616682 0.942955)
(-0.00251478 0.000713034 1.02639)
(-0.00354141 0.00779501 0.944746)
(-0.00063925 0.00813041 0.757216)
(0.0024623 0.00733843 0.608158)
(0.00277453 0.00596052 0.492758)
(0.00325749 0.00413928 0.395503)
(-0.0097405 0.0108827 0.803757)
(-0.00566678 0.0101293 0.851735)
(-0.00411607 0.0130491 0.799428)
(-0.000876889 0.0120928 0.686135)
(0.000969461 0.00950556 0.571995)
(0.00206546 0.00743606 0.471544)
(0.00326088 0.00498792 0.381586)
(-0.00708196 0.000325643 0.504976)
(-0.00692308 0.000150485 0.50222)
(-0.00556449 -0.000362111 0.476103)
(-0.00388721 -0.000450599 0.431574)
(-0.00233736 -0.000635235 0.375854)
(-0.000978841 -0.000771288 0.315921)
(-1.93221e-06 -0.000820961 0.256015)
(-0.00960816 0.00318983 0.614236)
(-0.00946153 0.00168568 0.614574)
(-0.00755153 0.000794794 0.580168)
(-0.00527914 0.000774357 0.517849)
(-0.00329174 0.000317126 0.445074)
(-0.00147963 -0.000116784 0.370946)
(-0.000159183 -0.000456819 0.300204)
(-0.0119678 0.00342463 0.753856)
(-0.0116544 0.00186529 0.782144)
(-0.00831908 0.00027075 0.715713)
(-0.00551772 0.00160876 0.613392)
(-0.00363581 0.00145926 0.512889)
(-0.00162946 0.000863133 0.422025)
(-7.00968e-05 0.000266206 0.339602)
(-0.0173673 0.00278971 0.892234)
(-0.013188 0.00111521 0.972116)
(-0.00680047 -9.98172e-05 0.88086)
(-0.00391407 0.00326456 0.706299)
(-0.00334753 0.00321933 0.569964)
(-0.00155689 0.00232432 0.462259)
(0.000114804 0.00132079 0.370139)
(-0.0226609 0.00491511 0.947855)
(-0.0186334 0.00492389 1.09883)
(-0.0103783 0.00628312 0.982431)
(-0.00545619 0.00623479 0.768005)
(-0.0039629 0.00506966 0.601071)
(-0.00188975 0.00381844 0.484723)
(0.000101819 0.00239624 0.387683)
(-0.0201939 0.00825773 0.906236)
(-0.0151482 0.0114257 1.03471)
(-0.00784742 0.0126771 0.933298)
(-0.00538069 0.00789734 0.745114)
(-0.00453907 0.00616558 0.599119)
(-0.0021051 0.00482639 0.485343)
(0.000152966 0.00315994 0.389923)
(-0.0118898 0.00683053 0.803379)
(-0.0114949 0.0106498 0.845262)
(-0.00972889 0.0103135 0.792767)
(-0.00763289 0.00716318 0.680763)
(-0.00520514 0.00617435 0.565303)
(-0.00208432 0.00516708 0.465458)
(0.000600316 0.00329412 0.376935)
(-0.00543613 0.000635005 0.499047)
(-0.00566714 0.000973689 0.495087)
(-0.0048723 0.000512752 0.468308)
(-0.00360759 0.000120835 0.424037)
(-0.00219435 -0.000367137 0.369439)
(-0.000888517 -0.000695443 0.311153)
(5.48248e-05 -0.000863047 0.253105)
(-0.00791016 0.0042052 0.612381)
(-0.00860001 0.00336433 0.609667)
(-0.00736874 0.00242689 0.572252)
(-0.00549653 0.00168457 0.508594)
(-0.00344509 0.000665551 0.43651)
(-0.00152027 -7.43218e-05 0.364192)
(-0.000153475 -0.000556561 0.295657)
(-0.011214 0.00675905 0.776898)
(-0.012664 0.00388153 0.781228)
(-0.00963739 0.00230018 0.714462)
(-0.00672932 0.00274426 0.60526)
(-0.00428732 0.00174716 0.503043)
(-0.00188547 0.000778272 0.413679)
(-0.00015951 4.63149e-05 0.333676)
(-0.0191875 0.006509 0.928695)
(-0.0173112 0.00144039 0.955132)
(-0.00806184 0.000892658 0.862478)
(-0.00535509 0.00370752 0.702503)
(-0.00437031 0.00307586 0.559987)
(-0.00196516 0.00190277 0.452957)
(-4.13047e-05 0.000883098 0.363339)
(-0.0257548 0.00654321 0.9637)
(-0.0233323 0.00513015 0.980397)
(-0.0119258 0.00697626 0.913174)
(-0.00645589 0.00600862 0.757657)
(-0.0051072 0.00430163 0.591832)
(-0.00235699 0.00296044 0.475272)
(-2.80148e-05 0.00168923 0.380634)
(-0.0213386 0.00618406 0.925527)
(-0.0213901 0.0097432 0.960999)
(-0.0121818 0.0116136 0.918392)
(-0.00762901 0.00621768 0.750277)
(-0.0056863 0.00454778 0.591472)
(-0.00239541 0.00356474 0.476502)
(0.000140527 0.00222213 0.38324)
(-0.011595 0.00211186 0.842768)
(-0.0137651 0.00650269 0.879079)
(-0.0109795 0.00733385 0.818338)
(-0.00842587 0.00394362 0.683079)
(-0.00527124 0.00414314 0.558078)
(-0.00190829 0.00373009 0.457684)
(0.00076205 0.00227767 0.371204)
(-0.0040898 -0.00287047 0.493645)
(-0.00362314 -0.00191303 0.488648)
(-0.00291615 -0.00172782 0.461506)
(-0.00187343 -0.00164281 0.417707)
(-0.000713607 -0.00164269 0.364207)
(0.000274706 -0.00161276 0.307417)
(0.000955851 -0.00155832 0.251106)
(-0.00538461 -0.00125194 0.605193)
(-0.00499013 4.25731e-05 0.602033)
(-0.00442332 -9.4877e-05 0.563043)
(-0.00306049 -0.000457229 0.499575)
(-0.00133972 -0.000878065 0.428922)
(7.27285e-05 -0.00113968 0.358548)
(0.00100203 -0.00131275 0.292187)
(-0.0064501 0.00162706 0.77267)
(-0.00660166 0.00310442 0.77848)
(-0.00573386 0.00281951 0.703873)
(-0.0037808 0.00102445 0.59429)
(-0.00157969 0.000248108 0.493444)
(0.000158395 -0.000338025 0.406343)
(0.00126203 -0.000741757 0.328954)
(-0.00881749 0.00461599 0.93712)
(-0.00846681 0.00466638 0.932956)
(-0.00626463 0.00625191 0.854405)
(-0.0042526 0.00273482 0.69081)
(-0.0014696 0.00170159 0.549554)
(0.000363393 0.000850312 0.444586)
(0.0015886 0.000120949 0.357811)
(-0.00946566 0.00532166 1.01008)
(-0.0117459 0.00449912 0.980482)
(-0.00921972 0.00465321 0.898311)
(-0.00646027 0.00340179 0.74957)
(-0.00242419 0.00264771 0.581704)
(0.000149522 0.0018992 0.46662)
(0.00171992 0.000969209 0.374859)
(-0.00799796 0.00287286 0.996031)
(-0.0111486 0.00181741 0.968673)
(-0.0106125 0.00147747 0.913228)
(-0.00600377 0.00249023 0.742405)
(-0.00198516 0.00301766 0.581395)
(0.000416169 0.00263112 0.46823)
(0.00201371 0.00162634 0.3778)
(-0.00548016 0.001511 0.847385)
(-0.00721236 -0.000295916 0.877281)
(-0.00634777 0.00224331 0.812555)
(-0.00371532 0.00306848 0.67293)
(-0.00121469 0.00366066 0.549162)
(0.000845748 0.00330619 0.450586)
(0.00249703 0.00200373 0.366691)
(-0.00383945 -0.00475076 0.490426)
(-0.00286433 -0.004041 0.484442)
(-0.00184275 -0.00381203 0.456988)
(-0.000629308 -0.00326922 0.413432)
(0.000413075 -0.00279032 0.36067)
(0.00118533 -0.00243558 0.305068)
(0.00166638 -0.00216903 0.250098)
(-0.00445921 -0.00449669 0.59935)
(-0.00330137 -0.00306717 0.595222)
(-0.00242846 -0.00327842 0.556003)
(-0.000895514 -0.00276247 0.493095)
(0.000435905 -0.00232928 0.423536)
(0.00137684 -0.00208256 0.354706)
(0.00195574 -0.00196547 0.289987)
(-0.00404267 -0.00416143 0.759187)
(-0.0023716 -6.10823e-05 0.767621)
(-0.00201234 -0.00178661 0.692147)
(-0.000250049 -0.00161893 0.584936)
(0.00105899 -0.0013092 0.486245)
(0.0019296 -0.00128603 0.401203)
(0.00246491 -0.00138283 0.325755)
(-0.00269823 -0.00511532 0.928011)
(0.000111598 0.000260435 0.938303)
(8.73953e-05 0.000420331 0.845408)
(0.000523771 0.000844562 0.678813)
(0.00173826 0.000535644 0.54101)
(0.00247675 7.95775e-05 0.438548)
(0.00296195 -0.000412876 0.353937)
(0.00276853 -0.00139485 1.00304)
(0.00106351 3.36972e-05 0.98032)
(-0.0032335 0.000282458 0.932483)
(-0.00315525 0.0016308 0.737822)
(0.000761812 0.00178141 0.572648)
(0.00229332 0.00134269 0.460267)
(0.00313025 0.000576672 0.370764)
(-0.00041181 0.00318522 0.977237)
(0.00116419 0.000212565 1.00029)
(-0.00156192 0.000232022 0.908487)
(-0.000367536 0.00186069 0.729504)
(0.00151236 0.00266992 0.572822)
(0.00259966 0.00238567 0.462305)
(0.0033757 0.0014127 0.373986)
(-0.00136127 0.00427207 0.834118)
(-0.000182457 0.00240794 0.865559)
(-0.00136252 0.00381223 0.7947)
(0.000220375 0.00442347 0.661517)
(0.00143615 0.00411097 0.542058)
(0.00254857 0.00341315 0.445672)
(0.00357901 0.00200722 0.363608)
(-0.0040387 -0.00327506 0.487298)
(-0.0033061 -0.00316677 0.480475)
(-0.00211342 -0.00344246 0.452755)
(-0.000696149 -0.00316451 0.40939)
(0.00045979 -0.00286596 0.357375)
(0.00129712 -0.00259826 0.302913)
(0.00178245 -0.00235997 0.249258)
(-0.00500297 -0.00208455 0.594866)
(-0.00428811 -0.00209967 0.58983)
(-0.00298925 -0.00283513 0.55016)
(-0.00107222 -0.00255875 0.487312)
(0.000384392 -0.00234885 0.418626)
(0.00145474 -0.00222892 0.351138)
(0.0020882 -0.00216187 0.287981)
(-0.00506586 -0.00182881 0.750222)
(-0.00400681 -0.000338439 0.760389)
(-0.00262003 -0.00246192 0.684057)
(-0.000495729 -0.00150458 0.577587)
(0.000826493 -0.00133357 0.479894)
(0.00192326 -0.00141878 0.396433)
(0.00257997 -0.00158205 0.322762)
(-0.00586058 -0.00293596 0.910754)
(-0.00190921 -0.0004546 0.936659)
(-3.81572e-05 -0.00175993 0.837152)
(0.000759097 0.000764149 0.669871)
(0.00127264 0.000523315 0.533819)
(0.00236972 -4.34529e-05 0.432991)
(0.00302939 -0.000612342 0.350274)
(-0.00333007 -0.00164085 0.946073)
(0.00149634 -0.00075933 0.989911)
(-0.00315555 0.000673671 0.920007)
(-0.00276379 0.00183053 0.729537)
(0.000257418 0.0018337 0.565279)
(0.00207209 0.00124265 0.454482)
(0.0031206 0.000386524 0.366856)
(-0.0055913 0.000961854 0.940256)
(0.00118646 0.00152092 0.984763)
(0.000437533 0.00389521 0.899028)
(0.000211217 0.00260777 0.720424)
(0.000736416 0.00275729 0.565869)
(0.00220165 0.00227817 0.456853)
(0.00324212 0.00121326 0.370282)
(-0.00281122 0.00268295 0.813185)
(-0.00128891 0.00447548 0.854266)
(-0.00207199 0.0056382 0.783625)
(-0.000995487 0.00452756 0.654065)
(0.000233473 0.00390428 0.536259)
(0.00197465 0.00315752 0.441041)
(0.0033415 0.00173264 0.360515)
(-0.00407576 -0.00278956 0.48276)
(-0.0034219 -0.00310846 0.475072)
(-0.00201625 -0.0036383 0.447124)
(-0.000407392 -0.00353447 0.404238)
(0.000838259 -0.00328766 0.353427)
(0.00166491 -0.00300303 0.300499)
(0.0020891 -0.00271856 0.248385)
(-0.00607139 -0.000510362 0.590955)
(-0.00551165 -0.00166616 0.584001)
(-0.00338986 -0.00291506 0.542496)
(-0.000989643 -0.00280981 0.479793)
(0.000740048 -0.00275459 0.412533)
(0.00189685 -0.00265768 0.34702)
(0.00249641 -0.002547 0.285804)
(-0.00877075 0.00169996 0.750786)
(-0.00803495 -0.000454635 0.756538)
(-0.00396058 -0.00273144 0.676531)
(-0.000698138 -0.00172675 0.56897)
(0.00106016 -0.00168465 0.471874)
(0.00240061 -0.00186032 0.390774)
(0.00306397 -0.00200047 0.319416)
(-0.0150538 0.00464337 0.910167)
(-0.0112776 0.00115177 0.927402)
(-0.00318714 -0.00240257 0.82983)
(0.000419644 0.000437624 0.662606)
(0.00150937 0.000169902 0.524675)
(0.00288225 -0.000470426 0.426253)
(0.00358392 -0.00104712 0.34609)
(-0.0193212 0.00420517 0.936435)
(-0.0164477 0.0035838 0.979274)
(-0.0091207 0.00353429 0.929664)
(-0.00165369 0.00288742 0.724123)
(0.000737479 0.00186609 0.556592)
(0.00270325 0.000952782 0.447369)
(0.00372487 3.7132e-06 0.36232)
(-0.0173067 0.00279906 0.909732)
(-0.0130588 0.00572465 0.975038)
(-0.00588272 0.00819956 0.896417)
(-0.0013588 0.00415638 0.716889)
(0.00048161 0.0029662 0.557722)
(0.00257835 0.002069 0.450108)
(0.00376207 0.000887146 0.365933)
(-0.00874897 0.000753517 0.813144)
(-0.00860225 0.00537036 0.857309)
(-0.00558642 0.00666533 0.785521)
(-0.00262978 0.00451924 0.651954)
(-4.40145e-05 0.00373366 0.529146)
(0.00231911 0.00288306 0.435213)
(0.00378265 0.0014367 0.356806)
(-0.00328322 -0.00591998 0.478052)
(-0.00194176 -0.00591348 0.469524)
(-0.000400611 -0.00592971 0.441612)
(0.0011086 -0.0052993 0.399654)
(0.00213875 -0.00457242 0.350358)
(0.00265851 -0.00392322 0.298996)
(0.00282447 -0.00338647 0.248312)
(-0.0054444 -0.00482518 0.583086)
(-0.00378303 -0.00505751 0.574515)
(-0.00129505 -0.005507 0.532833)
(0.00108405 -0.00502364 0.471857)
(0.00259084 -0.00433308 0.407045)
(0.00332021 -0.00376525 0.343816)
(0.00351911 -0.00330626 0.284522)
(-0.00996484 -0.00212353 0.749036)
(-0.0071304 -0.00331027 0.741457)
(-0.00169648 -0.00451773 0.661819)
(0.00166721 -0.00389646 0.556856)
(0.00357798 -0.0034045 0.46375)
(0.00429961 -0.00305803 0.385881)
(0.00439381 -0.00283664 0.316996)
(-0.0177353 0.00316926 0.904283)
(-0.0124285 -0.000489814 0.887875)
(-0.00217969 -0.002465 0.799405)
(0.00282878 -0.00178434 0.646182)
(0.00461972 -0.00138938 0.514182)
(0.00529491 -0.00163181 0.420059)
(0.00521689 -0.001879 0.342801)
(-0.0215999 0.00595151 0.969242)
(-0.0167744 0.00281257 0.936085)
(-0.0064706 0.00331942 0.840652)
(0.0021737 0.0016257 0.702578)
(0.0044193 0.000763395 0.545349)
(0.0054545 2.29988e-05 0.440584)
(0.0056264 -0.0007109 0.358636)
(-0.0205663 0.005647 0.948743)
(-0.0168303 0.00586793 0.946747)
(-0.00631869 0.00816708 0.868486)
(0.00156913 0.00435924 0.702792)
(0.00444329 0.00251674 0.547078)
(0.00557098 0.00154254 0.443634)
(0.00577739 0.000401121 0.362399)
(-0.0113216 0.00437907 0.834804)
(-0.0100665 0.00621951 0.857741)
(-0.00406964 0.0082499 0.785432)
(0.000972406 0.00559632 0.640828)
(0.00386911 0.00414851 0.520184)
(0.00516011 0.00284911 0.429702)
(0.00564283 0.00131838 0.353926)
(-0.00221889 -0.00896575 0.4757)
(-0.000217334 -0.0086763 0.466431)
(0.00126671 -0.00787755 0.438653)
(0.00241401 -0.00655842 0.397668)
(0.00300432 -0.00531487 0.349562)
(0.00316132 -0.00437096 0.299276)
(0.00310536 -0.00367933 0.249502)
(-0.00328419 -0.0101104 0.575524)
(-0.000437505 -0.00904099 0.565625)
(0.00167127 -0.00846892 0.52482)
(0.00330855 -0.00698038 0.466549)
(0.00410837 -0.0055349 0.404262)
(0.0041788 -0.00446515 0.342863)
(0.00396326 -0.00372332 0.284881)
(-0.00528535 -0.00779026 0.733485)
(-0.000689573 -0.0059598 0.722724)
(0.00278415 -0.00627778 0.645228)
(0.00499512 -0.00620349 0.545984)
(0.00593903 -0.00493748 0.458258)
(0.00564214 -0.00399331 0.383554)
(0.00506465 -0.0033873 0.316534)
(-0.00721311 -0.00297807 0.887944)
(-0.00273234 -0.00356633 0.855299)
(0.00192745 -0.00236799 0.782011)
(0.00594012 -0.00406887 0.629212)
(0.00788728 -0.00314774 0.505694)
(0.00715675 -0.00267331 0.416473)
(0.00615504 -0.00251475 0.341649)
(-0.00725611 0.00168953 0.951059)
(-0.00506638 -0.00159648 0.9133)
(-1.72443e-05 -0.000101401 0.835158)
(0.00579948 -0.000910759 0.686871)
(0.0083497 -0.000735985 0.535284)
(0.00787549 -0.00089555 0.436328)
(0.00680764 -0.00130859 0.357116)
(-0.00786846 0.00506663 0.937047)
(-0.00570019 0.000706619 0.915371)
(-0.000756383 0.00183643 0.837482)
(0.00554694 0.00256416 0.681744)
(0.00868292 0.001786 0.537023)
(0.00805158 0.000940306 0.439499)
(0.00703425 -4.60852e-05 0.360966)
(-0.00642599 0.00844226 0.826474)
(-0.00335071 0.00509804 0.842176)
(0.00187777 0.0068141 0.7663)
(0.00661478 0.00619906 0.626314)
(0.00792667 0.00425971 0.512607)
(0.00741528 0.0026548 0.426561)
(0.00674625 0.00112488 0.353023)
(-0.00146353 0.000817215 0.00520909)
(-0.000735617 5.43773e-05 -0.0268086)
(-0.00303981 0.00301407 0.169702)
(-0.00277114 0.00244272 0.120212)
(-0.00239058 0.00173575 0.0785893)
(-0.00193619 0.000883706 0.043365)
(-0.00146236 -8.50927e-05 0.0121208)
(-0.00091444 -0.00138754 -0.0221112)
(-0.00319763 0.0053361 0.327612)
(-0.00260985 0.00459437 0.253951)
(-0.00234483 0.0037582 0.191685)
(-0.00209048 0.00284155 0.139306)
(-0.00179641 0.00178316 0.0954855)
(-0.00142118 0.000579713 0.0586626)
(-0.00099253 -0.00079904 0.0263099)
(-0.000378246 -0.00257415 -0.00920864)
(-0.00284527 0.00632473 0.343541)
(-0.00216248 0.00555195 0.271156)
(-0.00180968 0.00452171 0.209846)
(-0.00151595 0.00330871 0.158133)
(-0.00117652 0.00194956 0.114769)
(-0.000745412 0.000473122 0.0782871)
(-0.000233442 -0.00115312 0.0461554)
(0.000540515 -0.0031707 0.0103206)
(-0.00209396 0.00717894 0.34324)
(-0.0017257 0.00646002 0.278269)
(-0.0014847 0.00524808 0.222668)
(-0.00117308 0.00380535 0.175183)
(-0.000744204 0.00225405 0.134928)
(-0.000189749 0.000650553 0.100697)
(0.000493756 -0.00102516 0.0700853)
(0.00147178 -0.00297764 0.0349242)
(-0.00197408 0.0076688 0.327693)
(-0.00164848 0.00665951 0.276792)
(-0.00131676 0.00528108 0.230784)
(-0.000855046 0.0037343 0.190288)
(-0.000273072 0.00211729 0.155201)
(0.000429462 0.000479265 0.124726)
(0.0013061 -0.00118777 0.0966629)
(0.00257281 -0.00309148 0.0629291)
(0.000421465 -0.00134618 0.215857)
(-0.000167821 -0.000587411 0.16918)
(-0.000475955 -3.9374e-05 0.127336)
(-0.000559663 0.000355853 0.0906587)
(-0.000488306 0.000619025 0.0588779)
(-0.000290478 0.000778794 0.0311766)
(-2.69311e-06 0.000873094 0.00579543)
(0.000355103 0.000903992 -0.0225992)
(0.00212521 -0.000867064 0.257647)
(0.000939186 -0.000107254 0.198182)
(0.00018864 0.000294572 0.14701)
(-0.000298056 0.000453008 0.103158)
(-0.000582049 0.000409024 0.0657907)
(-0.000704082 0.000202905 0.0336784)
(-0.000734565 -0.000121003 0.0046672)
(-0.000665869 -0.000612237 -0.0276078)
(0.00439613 0.000584587 0.296046)
(0.00269819 0.000971175 0.227892)
(0.00148501 0.000980314 0.169675)
(0.000607421 0.000715333 0.120344)
(-5.41354e-06 0.000226989 0.0787422)
(-0.000404004 -0.00044223 0.043453)
(-0.000668063 -0.00126995 0.0120795)
(-0.000764483 -0.00234716 -0.0224296)
(0.0063352 0.00320635 0.326149)
(0.00432347 0.00288744 0.253705)
(0.00282533 0.00229008 0.192024)
(0.00171283 0.00145023 0.139921)
(0.000924331 0.000412036 0.0961858)
(0.000396725 -0.000781667 0.0593298)
(5.41398e-05 -0.00213245 0.026819)
(-2.87711e-05 -0.00378438 -0.00902877)
(0.00713864 0.00611441 0.342616)
(0.00516291 0.00512062 0.271554)
(0.00366321 0.0039085 0.210873)