/*--------------------------------*- C++ -*----------------------------------*\
| =========                 |                                                 |
| \\      /  F ield         | OpenFOAM: The Open Source CFD Toolbox           |
|  \\    /   O peration     | Version:  plus.master.MPPICInterFoam            |
|   \\  /    A nd           | Web:      www.OpenFOAM.com                      |
|    \\/     M anipulation  |                                                 |
\*---------------------------------------------------------------------------*/
FoamFile
{
    version     2.0;
    format      ascii;
    class       volScalarField;
    location    "8.6";
    object      epsilon;
}
// * * * * * * * * * * * * * * * * * * * * * * * * * * * * * * * * * * * * * //

dimensions      [0 2 -3 0 0 0 0];

internalField   nonuniform List<scalar> 
11821
(
0.000543192
0.00315689
0.0201521
0.0241951
0.00641108
0.000791252
0.000206027
0.00221091
0.0551731
0.413329
0.706422
0.216439
0.0298738
0.000991588
0.0128266
0.326575
0.377376
1.25234
0.283845
0.242675
0.00907783
0.0328863
0.751043
1.35933
1.30648
1.7438
0.529495
0.0214955
0.0167745
0.386995
0.386524
1.09425
0.33236
0.283431
0.0123688
0.00274125
0.0609986
0.430781
0.889694
0.244034
0.0391848
0.00158023
0.000637714
0.00357675
0.0215541
0.0318855
0.008379
0.00121543
0.000280184
0.00379891
0.0308375
0.119196
0.190045
0.0404242
0.00557287
0.0011204
0.0232986
0.197087
1.05199
2.31902
0.465385
0.0598006
0.00552956
0.1112
0.94874
1.83126
10.0254
2.15727
0.42567
0.0346782
0.254225
2.47491
12.2815
8.52243
18.2825
1.58837
0.103329
0.133584
1.08823
1.83332
6.54511
2.28888
0.631438
0.0572884
0.0295955
0.226781
1.22989
2.99619
0.722264
0.109478
0.0122508
0.00482813
0.0363329
0.169711
0.322363
0.0848624
0.0120405
0.00173409
0.0106959
0.0540647
0.173675
0.32078
0.070661
0.0117746
0.00398429
0.0497383
0.272574
1.00624
2.60203
0.587785
0.0788779
0.0103107
0.187788
1.01245
3.00182
11.7132
3.66739
0.460558
0.0412708
0.44316
3.07881
14.625
13.1511
27.3219
2.02159
0.123177
0.226566
1.19748
3.24541
6.71345
4.7992
0.686392
0.0669244
0.0661048
0.352125
1.32817
3.91415
0.937614
0.160254
0.0196777
0.0150443
0.0785919
0.27797
0.581232
0.16134
0.0260296
0.00546545
0.0199525
0.0618777
0.17422
0.273919
0.076694
0.0207179
0.0109862
0.0622446
0.289505
0.881639
1.88476
0.527782
0.0843449
0.0183235
0.208168
0.971801
3.16162
8.581
3.00867
0.385907
0.0456042
0.471042
2.59685
9.79721
12.9477
18.0254
1.28046
0.102291
0.254939
1.16029
3.8891
4.05791
4.65073
0.541269
0.0642456
0.087295
0.391856
1.22609
3.2296
0.881933
0.154389
0.0261803
0.0271767
0.0966076
0.295379
0.541202
0.163712
0.0344111
0.0130068
0.0235956
0.058871
0.152846
0.202072
0.0707413
0.0234979
0.0144648
0.0633359
0.259699
0.712799
1.22993
0.405478
0.0750284
0.0209785
0.200489
0.860566
2.56175
5.62038
1.92149
0.300139
0.0428047
0.430223
2.0397
5.90777
7.73802
8.68514
0.81093
0.0817088
0.247812
1.0301
2.96328
3.11731
2.71305
0.401295
0.0557121
0.089149
0.36685
1.02579
1.92614
0.658363
0.12679
0.0271757
0.0310981
0.0935881
0.261316
0.392594
0.137238
0.035161
0.0166031
0.000136145
0.000131928
0.000132334
0.000126421
0.000121473
0.000117997
0.000114848
0.00011194
0.000258312
0.000159726
0.000133087
0.000123109
0.000116418
0.000111556
0.000107226
0.00010347
0.00136212
0.00027821
0.000148059
0.000124766
0.000116757
0.000111446
0.000106432
0.000101933
0.00346195
0.000524624
0.000166016
0.000120937
0.000111977
0.000107767
0.000102174
9.70278e-05
0.00190983
0.000348302
0.000153384
0.000124623
0.000116408
0.000111209
0.00010632
0.000102053
0.000394481
0.000178634
0.000136758
0.000122134
0.000116044
0.000111743
0.00010727
0.000104701
0.000167168
0.000139373
0.000129835
0.000125908
0.000122153
0.000119288
0.000116311
0.000113573
0.000527808
0.000413134
0.000352858
0.000308248
0.000273198
0.000244901
0.000221394
0.000201196
0.000933623
0.000489009
0.000378935
0.00032062
0.000279072
0.000246775
0.000220553
0.000198462
0.00270208
0.00067178
0.000409869
0.000326647
0.00027913
0.000244307
0.000216827
0.00019397
0.00604508
0.000886589
0.00043479
0.000330817
0.00027997
0.000244194
0.000216018
0.000192469
0.00428151
0.000788682
0.000421215
0.000326483
0.000278211
0.000244071
0.000217215
0.000194833
0.00154138
0.000555012
0.000383808
0.000317077
0.000275717
0.000244897
0.000220253
0.000199474
0.000656064
0.00043375
0.000356856
0.000309239
0.000274343
0.000246872
0.000224353
0.000204876
0.00254766
0.00215399
0.00186716
0.00159029
0.00131819
0.00106056
0.000829913
0.000637828
0.0034002
0.00237731
0.00197267
0.0016625
0.00137191
0.00109669
0.000847916
0.000639263
0.00603209
0.00276444
0.0020656
0.00170358
0.00140024
0.00111668
0.000858322
0.00063991
0.0103454
0.00316822
0.00213248
0.0017248
0.00141307
0.00112557
0.000863026
0.000640473
0.00813112
0.00299647
0.00209517
0.00170273
0.00139545
0.00111268
0.000856252
0.000640406
0.00440348
0.00250833
0.00197019
0.00163905
0.00134982
0.00108153
0.000841488
0.000642156
0.00278606
0.00218245
0.00185464
0.00157185
0.00130341
0.00105297
0.000831627
0.000650096
0.00845114
0.00735138
0.00637743
0.00548099
0.00472178
0.00412149
0.00364003
0.00315674
0.00989781
0.00795676
0.0067632
0.00574214
0.00487727
0.00419813
0.00367402
0.00317358
0.0129949
0.00861699
0.00705412
0.00593262
0.00499975
0.00426689
0.00371109
0.00319666
0.0172226
0.00919855
0.00723165
0.00603805
0.00506959
0.00430734
0.00373027
0.0032021
0.0149752
0.00895799
0.00716322
0.0059951
0.00504257
0.00429361
0.00372188
0.00319052
0.011019
0.00823822
0.00689349
0.00583352
0.00494541
0.00424331
0.00369377
0.00316358
0.00889141
0.00755919
0.00653051
0.00561163
0.00483172
0.00420591
0.00369231
0.00316858
0.0121
0.0111308
0.0103556
0.00957022
0.00866035
0.00745445
0.00580351
0.0039339
0.0133594
0.0115197
0.0104866
0.00962375
0.00874778
0.00764934
0.00609431
0.00420669
0.0160702
0.0120838
0.0106949
0.00976684
0.00891042
0.00786794
0.00634769
0.00441851
0.0194769
0.0126369
0.010895
0.00990866
0.00904232
0.00800151
0.00647218
0.00450492
0.0176691
0.0124681
0.0109025
0.00993663
0.00905315
0.00797478
0.00640803
0.00442785
0.0144617
0.0120043
0.0108818
0.00999739
0.00908342
0.00791539
0.00626097
0.00426078
0.0128322
0.0117658
0.0110319
0.0102868
0.0093701
0.00808489
0.0062719
0.00418754
0.000223113
0.000170186
0.000161341
0.000157073
0.000153337
0.00015005
0.000147341
0.000144582
0.000570528
0.000209547
0.000153546
0.000139837
0.000132514
0.000123945
0.000119312
0.000116743
0.00298935
0.00056013
0.000194869
0.000138761
0.000124141
0.000114727
0.000108197
0.000100623
0.00557122
0.000896111
0.000230342
0.000139184
0.000118301
0.000106297
9.73425e-05
9.05871e-05
0.00227048
0.000436382
0.000177737
0.000137878
0.000124505
0.000114393
0.000106286
0.000103089
0.000446033
0.000179591
0.000145054
0.000136111
0.000130232
0.000124091
0.000117373
0.000113783
0.000198157
0.000153715
0.000146089
0.000141837
0.000138859
0.000135776
0.000133143
0.000130791
0.00108823
0.000642673
0.000516174
0.00043644
0.000375293
0.000326728
0.000288029
0.000256502
0.00356095
0.00104113
0.000664458
0.000528126
0.000440261
0.000370488
0.000313312
0.000265098
0.0144628
0.00226046
0.000941716
0.000665915
0.000538452
0.000446866
0.000372173
0.000309126
0.0232226
0.00285496
0.000990603
0.000663701
0.000529356
0.000439262
0.000368286
0.000309736
0.0105283
0.00170035
0.000783359
0.000573202
0.000468288
0.000391896
0.000329238
0.000277212
0.00264481
0.0008442
0.00056362
0.000452131
0.000378543
0.000320964
0.000273983
0.00023585
0.000949322
0.000580082
0.000457988
0.000381378
0.000324497
0.000280616
0.000246538
0.000219581
0.00455303
0.00296436
0.00246338
0.00210641
0.00176367
0.00142615
0.00111367
0.000850288
0.011118
0.0040564
0.00277262
0.00227522
0.00190568
0.00155122
0.0012054
0.000891497
0.0307313
0.00649165
0.00320944
0.00241725
0.00200185
0.00164825
0.00130392
0.000977938
0.0500502
0.0077436
0.0032915
0.00238395
0.00195409
0.00160389
0.00126809
0.000951092
0.0236789
0.00541579
0.00296757
0.00231733
0.00193584
0.00159099
0.00125072
0.000931114
0.00831971
0.00347393
0.00253659
0.00211419
0.00176736
0.00142775
0.00110058
0.000809124
0.00378588
0.00266952
0.00224987
0.0019197
0.0015963
0.00127956
0.000989544
0.000747831
0.012421
0.0094527
0.00800639
0.00685122
0.00586443
0.00505409
0.00438464
0.00372278
0.0217787
0.011273
0.00855237
0.00709588
0.00597975
0.00510554
0.00445085
0.00387562
0.0460688
0.0147268
0.00914837
0.00720608
0.00592887
0.00493461
0.00418753
0.00356787
0.0679676
0.0167707
0.0093139
0.00716825
0.00586321
0.00485386
0.00409331
0.00346374
0.0370853
0.0131882
0.0087647
0.00702405
0.00578644
0.0048014
0.0040591
0.00344683
0.017339
0.0101591
0.00803589
0.0067133
0.00563485
0.00477432
0.00412368
0.00355256
0.0107441
0.00862789
0.00738197
0.0063184
0.00540793
0.00467081
0.00406984
0.00347523
0.0170328
0.0143708
0.0132776
0.0123763
0.0113107
0.00981016
0.00763323
0.00502764
0.0264732
0.0161183
0.0137598
0.0128563
0.0121862
0.0111929
0.00935519
0.00670107
0.0518068
0.0197152
0.0140545
0.0125822
0.0119633
0.0113555
0.010029
0.00779228
0.0757934
0.0222307
0.0141046
0.0122448
0.0115307
0.0109324
0.00974645
0.00777442
0.0424793
0.018048
0.013618
0.0123418
0.0117009
0.0109884
0.00959193
0.00739343
0.0217041
0.0147583
0.0129809
0.0121321
0.0114321
0.0104542
0.00873103
0.00627954
0.0150905
0.0132765
0.0123631
0.0115321
0.0105423
0.00915933
0.00715719
0.00476495
0.000239986
0.000155822
0.000136224
0.000131613
0.000129543
0.000127078
0.000124877
0.000122837
0.000819025
0.000244328
0.000133054
0.000110465
0.000102188
9.63501e-05
9.36607e-05
9.222e-05
0.00335332
0.000561272
0.000166177
0.0001092
9.36983e-05
8.41702e-05
7.59874e-05
6.91742e-05
0.00374357
0.000551469
0.000162698
0.000111313
9.58066e-05
8.65637e-05
7.87333e-05
7.20626e-05
0.00103467
0.000234761
0.000133339
0.000114084
0.000104958
9.84864e-05
9.28275e-05
8.69391e-05
0.000225382
0.000146091
0.000127023
0.000118662
0.000111842
0.000105787
0.000102695
0.000100936
0.000138402
0.000128639
0.000126936
0.00012527
0.000122975
0.00012064
0.000117863
0.000114523
0.00118495
0.000612362
0.000469518
0.000389957
0.000332341
0.000287592
0.000252085
0.000223218
0.00424357
0.00109729
0.000622496
0.000469404
0.000382258
0.000319234
0.000270646
0.000231788
0.0117462
0.00176197
0.00074195
0.000518988
0.000412872
0.000340223
0.000284538
0.000240316
0.0119523
0.00154345
0.000681096
0.000491904
0.00039669
0.000328486
0.000274819
0.000231627
0.00327998
0.000857716
0.00054034
0.000427187
0.00035396
0.000296764
0.000250504
0.000212641
0.000975186
0.000545759
0.000429501
0.000359118
0.000306014
0.000263777
0.00023042
0.000202692
0.000548172
0.000434465
0.000368392
0.000317311
0.000277439
0.000246174
0.000221465
0.000201182
0.00391452
0.00262721
0.00219727
0.00187867
0.00156952
0.00126485
0.000982779
0.00074458
0.0094716
0.00355218
0.00245259
0.00202299
0.00169873
0.0013823
0.00107189
0.00079288
0.0216496
0.00476972
0.00255797
0.00198459
0.00165443
0.00135804
0.00106357
0.000785498
0.0249538
0.00460641
0.00246695
0.00191374
0.0015815
0.00128415
0.000996423
0.000730505
0.00850277
0.00320311
0.00230349
0.00192081
0.00161278
0.00130873
0.00100851
0.0007339
0.00361706
0.00250718
0.00211837
0.00181746
0.00152206
0.00122693
0.000946796
0.000702733
0.00259354
0.00222278
0.00193932
0.00165615
0.0013732
0.00110252
0.000858768
0.000655315
0.010513
0.00836426
0.00715247
0.00614603
0.00529341
0.0046068
0.00404721
0.00348433
0.0169308
0.00971737
0.00763937
0.00643533
0.00549918
0.00477031
0.00421367
0.00368722
0.0308276
0.0112956
0.0076564
0.00621503
0.00524066
0.00452793
0.00403235
0.00360438
0.0346894
0.0111917
0.00738782
0.00591135
0.00490078
0.00416444
0.00367242
0.00328767
0.0168604
0.00925208
0.00724732
0.00606167
0.00511739
0.00439309
0.00387709
0.00343294
0.0102954
0.00814601
0.00696388
0.00596067
0.00509846
0.00441713
0.00389814
0.00341153
0.00850313
0.00743778
0.0064633
0.00556257
0.00479858
0.00419478
0.00371243
0.00323105
0.014636
0.0127928
0.0118412
0.0109787
0.00996182
0.00856518
0.00659922
0.00432782
0.0202375
0.0138522
0.0120746
0.0111082
0.010191
0.00896082
0.00710688
0.00478851
0.0327374
0.0153014
0.0119927
0.0108862
0.01014
0.00917627
0.00753716
0.00528143
0.0361738
0.0151775
0.01156
0.0104152
0.00972376
0.0089093
0.00748095
0.00542848
0.0203651
0.0131045
0.011277
0.0103883
0.00966074
0.00871688
0.00716115
0.0050519
0.0139695
0.0119229
0.0109383
0.0101584
0.00934795
0.00826212
0.00662303
0.00456103
0.0121658
0.0112177
0.0104324
0.0096454
0.00874623
0.00755635
0.00590781
0.00400978
0.00015354
0.000135045
0.00013008
0.00012668
0.000124406
0.000121603
0.000119307
0.000115555
0.000305202
0.000160705
0.000136525
0.000127365
0.000120227
0.000112823
0.000108351
0.000105352
0.00163349
0.000338469
0.000161189
0.000132041
0.000121084
0.00011253
0.000104159
9.66393e-05
0.00546567
0.000867026
0.000228758
0.000140426
0.000119702
0.000108948
9.99849e-05
9.15749e-05
0.00417521
0.000791785
0.000236685
0.000147284
0.000125176
0.000114553
0.000105812
9.8366e-05
0.000981432
0.000322083
0.000179806
0.000149292
0.000140205
0.00013468
0.000128009
0.00012159
0.000266871
0.000185901
0.000166259
0.000160613
0.000157187
0.000154294
0.000152047
0.000150128
0.000635596
0.000467936
0.000390524
0.000334261
0.000290547
0.00025608
0.000228629
0.00020592
0.00148204
0.000648383
0.000490752
0.000408508
0.000347338
0.000297852
0.000257164
0.000222513
0.00672913
0.00125648
0.000692502
0.000537975
0.000447689
0.000376898
0.000317186
0.000266816
0.0249234
0.00275869
0.000992689
0.000685691
0.000553403
0.000460293
0.000384772
0.000322093
0.0199561
0.00294193
0.0011075
0.000752071
0.00059954
0.000494323
0.000410838
0.000341881
0.00569676
0.00146522
0.000825012
0.000624952
0.00051286
0.000429593
0.000362812
0.000307891
0.00127434
0.000672197
0.000542529
0.000463531
0.000401798
0.000351682
0.000310733
0.000276532
0.00279901
0.00227931
0.00197794
0.00169125
0.00140558
0.00113054
0.000881657
0.000674034
0.00508884
0.00278262
0.00225392
0.00192661
0.00162103
0.00131428
0.00101687
0.000750572
0.0179465
0.0043968
0.00269174
0.00218063
0.00184144
0.00152029
0.00119776
0.000890926
0.0646639
0.00823141
0.00329859
0.00238546
0.0019681
0.00162658
0.00129444
0.000975671
0.0414315
0.00788535
0.00348725
0.00254994
0.00211202
0.00175395
0.00140305
0.0010638
0.0143575
0.00471103
0.00304771
0.00247573
0.00208127
0.00170742
0.00133912
0.00100048
0.00471301
0.00298636
0.00250853
0.00215943
0.00181545
0.00147245
0.00115299
0.000883232
0.0090448
0.00780133
0.00678807
0.00585276
0.00504942
0.00440382
0.00387861
0.00335103
0.0125542
0.00886338
0.00742688
0.00631453
0.00535219
0.00457644
0.00398331
0.00345409
0.0282991
0.0114667
0.00821016
0.00674171
0.00562682
0.00473339
0.00406346
0.0035011
0.0734947
0.0168016
0.00918721
0.00707972
0.00583023
0.00488524
0.00419111
0.003619
0.0551677
0.0161431
0.00946907
0.00736768
0.00608331
0.00512021
0.00441967
0.00384919
0.0241841
0.0120098
0.00899612
0.00748409
0.00635486
0.00547237
0.00479991
0.00419075
0.0125177
0.00952161
0.0080986
0.00694523
0.00594999
0.00512761
0.00444383
0.00376454
0.0132196
0.0122665
0.011605
0.0109435
0.0101341
0.00894714
0.00714639
0.00492865
0.0165765
0.0133087
0.0123258
0.0117681
0.0112409
0.0104176
0.00887476
0.00663075
0.0313205
0.0159354
0.0130191
0.0121497
0.0117198
0.0111787
0.00994649
0.00788027
0.0687053
0.0212228
0.0139912
0.0124164
0.0118984
0.0114513
0.010355
0.00838243
0.0555908
0.0205591
0.0145025
0.0130585
0.0125046
0.0118932
0.0104997
0.00817485
0.0278857
0.0167087
0.0141824
0.01319
0.012405
0.0112797
0.00932613
0.00659442
0.0171281
0.0144477
0.0133484
0.0124159
0.0113037
0.00974912
0.00753303
0.00492683
0.000109439
0.000101264
9.79133e-05
9.53243e-05
9.84498e-05
0.000103656
0.000111347
0.000182887
0.00017875
0.000173739
0.000172034
0.000174881
0.000180626
0.000187058
0.000491858
0.00048158
0.000474895
0.000472588
0.000477845
0.000492727
0.000514605
0.00248994
0.00245696
0.00244283
0.00242814
0.00241908
0.00241334
0.00245561
0.00204269
0.00205077
0.00205001
0.00203937
0.00201974
0.00200926
0.00208846
0.000142162
0.000111861
9.16685e-05
8.49571e-05
9.78657e-05
0.000111622
0.000128099
0.000229909
0.000225714
0.000258878
0.000262949
0.000233456
0.000203883
0.000197309
0.000652181
0.000639409
0.000704241
0.000686486
0.000665497
0.000578628
0.000567645
0.00285941
0.00310095
0.00277806
0.00265595
0.00266986
0.00279582
0.00268847
0.00232805
0.0033172
0.00436731
0.00460785
0.00413218
0.00314437
0.00227642
0.000120916
9.04007e-05
6.48174e-05
6.67604e-05
8.09691e-05
9.82408e-05
0.000111295
0.000198894
0.000201017
0.000204577
0.00019691
0.000182045
0.000179872
0.000183428
0.000564423
0.000573293
0.000554697
0.000512595
0.000513418
0.000513939
0.000500921
0.00271426
0.00290669
0.00291159
0.00268939
0.00274983
0.00269874
0.00256236
0.00203931
0.00214631
0.00240453
0.00262834
0.00236114
0.00216351
0.00206016
0.000111218
0.000101042
8.97912e-05
8.40919e-05
9.17033e-05
0.000115909
0.000148345
0.000186183
0.000193266
0.000225343
0.000271917
0.000286457
0.000262384
0.000246999
0.00051689
0.000538061
0.000634069
0.000704956
0.000772512
0.000724793
0.000680354
0.00263152
0.00274338
0.00275084
0.00284035
0.0030868
0.00333752
0.00287924
0.00254326
0.00366502
0.00466277
0.00509216
0.00463514
0.00320631
0.00226369
0.000107229
0.000101275
9.09817e-05
8.02346e-05
6.90832e-05
5.83295e-05
4.83355e-05
3.91307e-05
9.92019e-05
9.39983e-05
8.53482e-05
7.47918e-05
6.43641e-05
5.42794e-05
4.48727e-05
3.61938e-05
9.46085e-05
8.96068e-05
8.20166e-05
7.17128e-05
6.15862e-05
5.19834e-05
4.30008e-05
3.46737e-05
9.45421e-05
8.94332e-05
8.28647e-05
7.36117e-05
6.2628e-05
5.18092e-05
4.24956e-05
3.42222e-05
9.57019e-05
9.15348e-05
8.39261e-05
7.33643e-05
6.28328e-05
5.29773e-05
4.38136e-05
3.53502e-05
0.000102024
9.72025e-05
8.82831e-05
7.73091e-05
6.64689e-05
5.61399e-05
4.65034e-05
3.76066e-05
0.000109236
0.000103216
9.36949e-05
8.26641e-05
7.12637e-05
6.0381e-05
5.02726e-05
4.09449e-05
0.000165688
0.000137529
0.000107608
8.27312e-05
6.4283e-05
5.07935e-05
4.0756e-05
3.33096e-05
0.000161288
0.000134397
0.000105204
8.12595e-05
6.31984e-05
4.99067e-05
3.99753e-05
3.25739e-05
0.000156597
0.000131091
0.00010294
7.98463e-05
6.23228e-05
4.93104e-05
3.95212e-05
3.21738e-05
0.000154946
0.000130207
0.00010293
7.96711e-05
6.18911e-05
4.89351e-05
3.92989e-05
3.2075e-05
0.000158068
0.000132183
0.000103491
8.00984e-05
6.2592e-05
4.9642e-05
3.99202e-05
3.26144e-05
0.000164046
0.000136651
0.000106512
8.20258e-05
6.3857e-05
5.06102e-05
4.07608e-05
3.34177e-05
0.000170168
0.00014092
0.000108882
8.30563e-05
6.44394e-05
5.11835e-05
4.1482e-05
3.43116e-05
0.000386185
0.000286131
0.000186137
0.000118854
7.86739e-05
5.47326e-05
4.01158e-05
3.1221e-05
0.000375828
0.000277693
0.000182129
0.000117281
7.81938e-05
5.47363e-05
4.03348e-05
3.1528e-05
0.000369509
0.000273264
0.00018038
0.000116832
7.82288e-05
5.49116e-05
4.05111e-05
3.16499e-05
0.000367351
0.000272056
0.000179645
0.000116574
7.81991e-05
5.49775e-05
4.06432e-05
3.18263e-05
0.000374261
0.00027771
0.000181334
0.000116779
7.80879e-05
5.48909e-05
4.06204e-05
3.18542e-05
0.000394063
0.000288193
0.000184385
0.000117213
7.78382e-05
5.45883e-05
4.04441e-05
3.18306e-05
0.00042093
0.000301996
0.000189058
0.000118115
7.75338e-05
5.40841e-05
4.0066e-05
3.16358e-05
0.00176694
0.000823006
0.000339238
0.000158781
8.61011e-05
5.27573e-05
3.5809e-05
2.68677e-05
0.00173032
0.00080591
0.000333706
0.000157293
8.59647e-05
5.31046e-05
3.63565e-05
2.75251e-05
0.00171127
0.000798076
0.00033186
0.000157171
8.62736e-05
5.34753e-05
3.66877e-05
2.77977e-05
0.00169376
0.000789267
0.0003292
0.000156502
8.61679e-05
5.35526e-05
3.68466e-05
2.80037e-05
0.00168419
0.000782953
0.000327006
0.000155681
8.57085e-05
5.32201e-05
3.65788e-05
2.77742e-05
0.00167774
0.000779057
0.000325551
0.000154669
8.48262e-05
5.25177e-05
3.60703e-05
2.74237e-05
0.00171396
0.000799802
0.000333947
0.00015714
8.50608e-05
5.20794e-05
3.55122e-05
2.68728e-05
0.00150929
0.000895882
0.000378488
0.000165912
8.189e-05
4.61322e-05
2.96462e-05
2.17987e-05
0.00149271
0.00088963
0.000378425
0.00016667
8.2592e-05
4.67164e-05
3.01724e-05
2.23373e-05
0.00147762
0.000882859
0.000377116
0.000166604
8.27787e-05
4.69283e-05
3.03643e-05
2.25107e-05
0.00146393
0.000875925
0.000374935
0.000165898
8.25625e-05
4.69049e-05
3.0434e-05
2.26329e-05
0.00145764
0.000872431
0.00037274
0.000164581
8.17409e-05
4.63536e-05
3.00295e-05
2.2297e-05
0.00147083
0.000877758
0.000372356
0.000163348
8.07402e-05
4.56849e-05
2.95996e-05
2.19914e-05
0.00156006
0.000924499
0.000388645
0.000168675
8.23531e-05
4.61041e-05
2.96243e-05
2.18003e-05
0.000139415
0.000130809
0.000117692
0.000102436
8.74086e-05
7.34981e-05
6.10049e-05
4.98534e-05
0.000106518
9.71636e-05
8.89406e-05
8.17418e-05
7.33016e-05
6.39359e-05
5.43246e-05
4.51698e-05
8.52149e-05
7.565e-05
6.78634e-05
6.07565e-05
5.39495e-05
4.76732e-05
4.15436e-05
3.52854e-05
7.94393e-05
7.01993e-05
6.16578e-05
5.36557e-05
4.61839e-05
3.97948e-05
3.4516e-05
2.88962e-05
8.97978e-05
8.0967e-05
7.301e-05
6.49826e-05
5.73177e-05
5.05447e-05
4.39601e-05
3.7236e-05
0.000108054
0.000100384
9.36201e-05
8.48054e-05
7.4829e-05
6.48176e-05
5.48508e-05
4.53648e-05
0.000125138
0.000117945
0.00010724
9.42437e-05
8.10757e-05
6.86403e-05
5.72144e-05
4.69124e-05
0.000205801
0.000166088
0.00012403
9.10732e-05
6.81707e-05
5.26652e-05
4.1973e-05
3.44796e-05
0.000191822
0.000151033
0.000117665
9.20047e-05
7.18579e-05
5.67613e-05
4.561e-05
3.73702e-05
0.000214819
0.000164864
0.000126598
9.84303e-05
7.75112e-05
6.16343e-05
4.88168e-05
3.86074e-05
0.000221527
0.000173901
0.000136392
0.000107695
8.55196e-05
6.85648e-05
5.4398e-05
4.32238e-05
0.000196051
0.000151775
0.000116916
9.07992e-05
7.13798e-05
5.68222e-05
4.5172e-05
3.5975e-05
0.000176245
0.000141349
0.000110576
8.55228e-05
6.63862e-05
5.23428e-05
4.20118e-05
3.45255e-05
0.000177762
0.000146959
0.000112137
8.3825e-05
6.36032e-05
4.95881e-05
3.97346e-05
3.27565e-05
0.000518168
0.000356692
0.000215246
0.000128847
8.08961e-05
5.41635e-05
3.87529e-05
2.9715e-05
0.000458466
0.000300502
0.000216056
0.000151161
0.000105631
7.59203e-05
5.65429e-05
4.38414e-05
0.000493725
0.000305831
0.000201138
0.000140497
0.000102642
7.74404e-05
5.95899e-05
4.64803e-05
0.000482332
0.000301543
0.000200344
0.000141692
0.000104436
7.90385e-05
6.07211e-05
4.72318e-05
0.000465883
0.000286713
0.000186369
0.000128481
9.29137e-05
6.97639e-05
5.37785e-05
4.23301e-05
0.000416792
0.000273756
0.000191738
0.000130314
8.95042e-05
6.39026e-05
4.77048e-05
3.73148e-05
0.000443815
0.000316351
0.000195629
0.000119283
7.60709e-05
5.1603e-05
3.73147e-05
2.88633e-05
0.00196982
0.000919513
0.000381554
0.00017485
9.1453e-05
5.41143e-05
3.57187e-05
2.61268e-05
0.00228192
0.00119517
0.00054872
0.000270606
0.000151186
9.46707e-05
6.47954e-05
4.7756e-05
0.00198695
0.00103147
0.000502615
0.000270427
0.000167014
0.000116394
8.77746e-05
6.87125e-05
0.00185771
0.000937939
0.000446089
0.000234147
0.000139616
9.26729e-05
6.64225e-05
5.0237e-05
0.00190097
0.000969266
0.000461126
0.000242577
0.000146212
0.000100059
7.51367e-05
5.96008e-05
0.00202682
0.00103254
0.000459471
0.000221637
0.000121767
7.56936e-05
5.20502e-05
3.88832e-05
0.00186912
0.000864155
0.000353814
0.000161741
8.50703e-05
5.08809e-05
3.40368e-05
2.52491e-05
0.00172247
0.00100004
0.000415707
0.000179323
8.72883e-05
4.8932e-05
3.1455e-05
2.28963e-05
0.00228028
0.00137058
0.000627128
0.000297411
0.000156417
9.27812e-05
6.15564e-05
4.48608e-05
0.00280596
0.00170794
0.000838212
0.000427502
0.000244853
0.000162872
0.000122314
9.89191e-05
0.00293834
0.00176405
0.000854972
0.000431833
0.000237733
0.000141224
9.02619e-05
6.2796e-05
0.00271519
0.00165339
0.00078986
0.000390412
0.000216883
0.000140144
0.000103104
8.21497e-05
0.00220262
0.00131878
0.000587731
0.000267988
0.000135626
7.84972e-05
5.16686e-05
3.78136e-05
0.00168796
0.000980437
0.000405786
0.000173261
8.35007e-05
4.66435e-05
3.00872e-05
2.20897e-05
0.000119076
0.000113467
0.000103582
9.10961e-05
7.82297e-05
6.61523e-05
5.5102e-05
4.50486e-05
8.90351e-05
8.59118e-05
8.40779e-05
7.96877e-05
7.08742e-05
6.09387e-05
5.12651e-05
4.21118e-05
6.19241e-05
5.74261e-05
5.37529e-05
4.96071e-05
4.48087e-05
3.96554e-05
3.45496e-05
2.95003e-05
6.27274e-05
5.6082e-05
4.97975e-05
4.36963e-05
3.84777e-05
3.34348e-05
2.86692e-05
2.42046e-05
7.68086e-05
7.03765e-05
6.48513e-05
5.8948e-05
5.31648e-05
4.66925e-05
3.97113e-05
3.27663e-05
9.58949e-05
9.10674e-05
8.80041e-05
8.05953e-05
7.05602e-05
5.99316e-05
4.99713e-05
4.07981e-05
0.00010773
0.000102257
9.40985e-05
8.35423e-05
7.22019e-05
6.12046e-05
5.09268e-05
4.14496e-05
0.000177783
0.000146457
0.000111911
8.37691e-05
6.36639e-05
4.96874e-05
3.98072e-05
3.27465e-05
0.000176083
0.000147168
0.000119472
9.31272e-05
7.23594e-05
5.70468e-05
4.59594e-05
3.78941e-05
0.000175188
0.000141394
0.00011271
9.03779e-05
7.26569e-05
5.8669e-05
4.69146e-05
3.67538e-05
0.000167843
0.000132154
0.000102326
7.93234e-05
6.14277e-05
4.79999e-05
3.77122e-05
2.99997e-05
0.000156846
0.000125607
9.90321e-05
7.89882e-05
6.328e-05
5.06462e-05
4.0279e-05
3.17803e-05
0.000160499
0.00013578
0.000109155
8.57451e-05
6.71284e-05
5.30849e-05
4.25563e-05
3.4674e-05
0.000166897
0.000141014
0.000110958
8.52978e-05
6.58901e-05
5.172e-05
4.13317e-05
3.37368e-05
0.000438834
0.000316626
0.000197948
0.000121916
7.84437e-05
5.35724e-05
3.89045e-05
3.01529e-05
0.000426269
0.000308318
0.000211074
0.000140372
9.54857e-05
6.78415e-05
5.06781e-05
3.9919e-05
0.000395459
0.000261342
0.000188425
0.000145828
0.000111886
8.6013e-05
6.74041e-05
5.46305e-05
0.000360663
0.000225875
0.000151678
0.000108461
7.99873e-05
5.98244e-05
4.49512e-05
3.41469e-05
0.0003651
0.000236602
0.000168798
0.000125673
9.27971e-05
6.95446e-05
5.36649e-05
4.30349e-05
0.000387678
0.00027864
0.000193109
0.000129342
8.80357e-05
6.22303e-05
4.59626e-05
3.56565e-05
0.000390579
0.000289695
0.000190726
0.000122328
8.08743e-05
5.60483e-05
4.08826e-05
3.16459e-05
0.00189266
0.000866972
0.000351405
0.000160521
8.50816e-05
5.1372e-05
3.46307e-05
2.58545e-05
0.00207059
0.000987783
0.000412044
0.000191938
0.00010465
6.56116e-05
4.60451e-05
3.54965e-05
0.00214844
0.00109341
0.000489044
0.000234784
0.00013182
8.67531e-05
6.50746e-05
5.41405e-05
0.00203079
0.0010832
0.000522928
0.000280817
0.00017542
0.00012388
9.37221e-05
7.16552e-05
0.00202356
0.0010285
0.000455873
0.000219061
0.00012377
8.16484e-05
6.09227e-05
5.01119e-05
0.00194044
0.000938184
0.000393363
0.000183869
0.000100458
6.28448e-05
4.37655e-05
3.34103e-05
0.00182776
0.000857994
0.00035371
0.000164665
8.89765e-05
5.44686e-05
3.69512e-05
2.76421e-05
0.00152203
0.000886747
0.000365721
0.000157199
7.67623e-05
4.32595e-05
2.8007e-05
2.06831e-05
0.00156047
0.000913687
0.000385413
0.000171201
8.71946e-05
5.15213e-05
3.49387e-05
2.68202e-05
0.00168026
0.000990887
0.000430044
0.000198426
0.000106796
6.81215e-05
5.07139e-05
4.28792e-05
0.00180373
0.00108039
0.000499082
0.000254581
0.000156677
0.00011661
0.000101278
9.83052e-05
0.00166672
0.000980824
0.000424344
0.000196438
0.000106765
6.91383e-05
5.23906e-05
4.51403e-05
0.00158037
0.000928561
0.000393102
0.000174896
8.90164e-05
5.2487e-05
3.55157e-05
2.7262e-05
0.00152793
0.000902667
0.00038032
0.000166908
8.27839e-05
4.69925e-05
3.04269e-05
2.2453e-05
0.000107391
0.000101965
9.37793e-05
8.31153e-05
7.18165e-05
6.10027e-05
5.10737e-05
4.19843e-05
9.69127e-05
8.8459e-05
7.99224e-05
7.10706e-05
6.23168e-05
5.36353e-05
4.54958e-05
3.79849e-05
8.41963e-05
7.54306e-05
6.73116e-05
5.9677e-05
5.22921e-05
4.52325e-05
3.85777e-05
3.2393e-05
7.75586e-05
6.75858e-05
5.90034e-05
5.13641e-05
4.43388e-05
3.80022e-05
3.20889e-05
2.68624e-05
8.61706e-05
7.7762e-05
6.99426e-05
6.24411e-05
5.48775e-05
4.76285e-05
4.07318e-05
3.4278e-05
0.000111052
0.000102545
9.37114e-05
8.47893e-05
7.39071e-05
6.29009e-05
5.29745e-05
4.42696e-05
0.000145513
0.000135624
0.000120821
0.000104118
8.80569e-05
7.36292e-05
6.09378e-05
4.96967e-05
0.000167763
0.000140193
0.000108632
8.23701e-05
6.33015e-05
4.9959e-05
4.04801e-05
3.36461e-05
0.000166941
0.000131812
9.97301e-05
7.51183e-05
5.77245e-05
4.59998e-05
3.78762e-05
3.18644e-05
0.000188519
0.000144128
0.000108884
8.26877e-05
6.36707e-05
4.99369e-05
3.96974e-05
3.17033e-05
0.00022711
0.00017652
0.000136424
0.000105516
8.21074e-05
6.45023e-05
5.09224e-05
4.01972e-05
0.000237522
0.000182311
0.000138759
0.000105717
8.13914e-05
6.33645e-05
4.99252e-05
3.95549e-05
0.000222435
0.000173221
0.000131919
9.89806e-05
7.5037e-05
5.8827e-05
4.79742e-05
3.99413e-05
0.000219402
0.000173773
0.000127341
9.21693e-05
6.8475e-05
5.27709e-05
4.2052e-05
3.45458e-05
0.000406267
0.000300823
0.000191892
0.000119823
7.79632e-05
5.3884e-05
3.96743e-05
3.12042e-05
0.000387243
0.000247466
0.000164288
0.000112786
7.97053e-05
5.95212e-05
4.64752e-05
3.74955e-05
0.000441963
0.000267317
0.000169419
0.00011382
8.05922e-05
5.99099e-05
4.60541e-05
3.60502e-05
0.000494623
0.000305396
0.000198646
0.000137448
9.95921e-05
7.45272e-05
5.69077e-05
4.41027e-05
0.000544455
0.000337581
0.000218613
0.00014945
0.000107219
8.00969e-05
6.17941e-05
4.86054e-05
0.000525389
0.000353889
0.000245852
0.000166722
0.000116242
8.48606e-05
6.42674e-05
4.97791e-05
0.000545188
0.000368507
0.000218985
0.00013019
8.17078e-05
5.48251e-05
3.92639e-05
3.00613e-05
0.00187075
0.000890982
0.000375966
0.00017593
9.38165e-05
5.64381e-05
3.79262e-05
2.83405e-05
0.00201582
0.00104668
0.000486059
0.000242939
0.000137046
8.63434e-05
5.95279e-05
4.41556e-05
0.00198951
0.00102367
0.00047455
0.000233577
0.000130203
8.3591e-05
6.00856e-05
4.63503e-05
0.00203464
0.00104376
0.000489124
0.000246382
0.000140872
9.10301e-05
6.42622e-05
4.81316e-05
0.00227833
0.00122127
0.000600256
0.000314443
0.000183573
0.000120408
8.75977e-05
6.88332e-05
0.00241552
0.00122634
0.000557997
0.000281878
0.000163332
0.000105321
7.27746e-05
5.2923e-05
0.00196957
0.000913903
0.000378664
0.000174433
9.19694e-05
5.47381e-05
3.61655e-05
2.63811e-05
0.00186653
0.00111038
0.000480233
0.000213055
0.000104485
5.79442e-05
3.66778e-05
2.64442e-05
0.00252102
0.00157712
0.000763262
0.000377087
0.000197902
0.000111319
6.92367e-05
4.81459e-05
0.00305365
0.00192571
0.000970979
0.000479416