/*--------------------------------*- C++ -*----------------------------------*\
| =========                 |                                                 |
| \\      /  F ield         | OpenFOAM: The Open Source CFD Toolbox           |
|  \\    /   O peration     | Version:  plus.master.MPPICInterFoam            |
|   \\  /    A nd           | Web:      www.OpenFOAM.com                      |
|    \\/     M anipulation  |                                                 |
\*---------------------------------------------------------------------------*/
FoamFile
{
    version     2.0;
    format      ascii;
    class       volScalarField;
    location    "8.6";
    object      nut;
}
// * * * * * * * * * * * * * * * * * * * * * * * * * * * * * * * * * * * * * //

dimensions      [0 2 -1 0 0 0 0];

internalField   nonuniform List<scalar> 
11821
(
2.99956e-05
5.29003e-05
0.000100912
0.0001102
6.81586e-05
3.33201e-05
2.19789e-05
4.65506e-05
4.54735e-05
0.000129672
0.000141775
8.50537e-05
2.92559e-05
3.60102e-05
8.58312e-05
0.000112343
9.94048e-05
0.000100147
7.87947e-05
9.59441e-05
7.70176e-05
0.000121385
0.000160015
0.000126066
9.37178e-05
9.79545e-05
0.000125876
0.000104502
9.44797e-05
0.000124365
0.000101282
0.000109427
9.03637e-05
0.000108824
8.56964e-05
5.03812e-05
4.84536e-05
0.000131167
0.000158127
9.02139e-05
3.67898e-05
4.21654e-05
3.16298e-05
5.51174e-05
0.000102901
0.000121424
7.40019e-05
3.8258e-05
2.42679e-05
2.31314e-05
3.47503e-05
5.87744e-05
4.86084e-05
2.93483e-05
1.96987e-05
3.81502e-05
3.09314e-05
7.84013e-05
0.000152146
0.000148579
8.95635e-05
3.80063e-05
1.94515e-05
5.74031e-05
0.000147146
0.000120318
0.000156291
9.89991e-05
8.86695e-05
2.80548e-05
6.95907e-05
0.000173477
0.000188376
0.000244223
0.000216974
0.00010936
3.50173e-05
6.6435e-05
0.000164877
0.000138366
0.000157375
0.000108584
0.000112517
3.70281e-05
3.61173e-05
8.83543e-05
0.000172352
0.000194372
0.000117232
5.40199e-05
2.09065e-05
2.528e-05
4.00589e-05
7.38327e-05
7.06153e-05
4.383e-05
2.10751e-05
2.67455e-05
4.38592e-05
4.81829e-05
6.73566e-05
5.79849e-05
3.81224e-05
3.77074e-05
7.36633e-05
4.78199e-05
9.41537e-05
0.000140137
0.000144608
9.08623e-05
4.26516e-05
3.9209e-05
7.36847e-05
0.000147672
0.000144139
0.000174109
0.000151294
7.77068e-05
3.09675e-05
8.2618e-05
0.000174302
0.0002131
0.000284706
0.000299608
9.69434e-05
3.33458e-05
8.40074e-05
0.000165652
0.000161126
0.000184968
0.000171911
9.68412e-05
3.77496e-05
5.74473e-05
0.000113859
0.000173043
0.00021751
0.000125793
6.20795e-05
3.34525e-05
4.65481e-05
6.13069e-05
9.19161e-05
9.00483e-05
6.01543e-05
3.524e-05
5.51715e-05
8.43852e-05
6.47116e-05
7.53135e-05
6.77875e-05
5.2274e-05
7.42589e-05
0.000121704
6.72828e-05
0.000103135
0.000143909
0.000145305
9.76858e-05
5.39581e-05
7.96311e-05
8.62462e-05
0.000157906
0.000192704
0.000190162
0.000173006
7.84579e-05
4.8196e-05
0.000100025
0.000187667
0.00021116
0.000279624
0.000293743
9.45769e-05
3.99611e-05
9.743e-05
0.000176257
0.00022209
0.000179084
0.000214967
9.42496e-05
4.83418e-05
7.60704e-05
0.000126681
0.000181319
0.000221853
0.000133641
6.82596e-05
6.56966e-05
8.33001e-05
7.82553e-05
0.00010372
0.00010258
7.09028e-05
6.25456e-05
0.00010433
0.000103471
7.52698e-05
7.6992e-05
7.11201e-05
6.07691e-05
9.27947e-05
0.000133051
7.79154e-05
0.000103382
0.000142892
0.000143205
9.59629e-05
6.13175e-05
9.85923e-05
9.10584e-05
0.000162873
0.00021538
0.000212438
0.000166098
7.57455e-05
6.11108e-05
0.000109542
0.000201169
0.000220837
0.000237999
0.000250148
9.04927e-05
4.6078e-05
0.000102335
0.000182999
0.000239443
0.000191275
0.000198897
8.86539e-05
5.7478e-05
8.45311e-05
0.000128017
0.000183037
0.000199998
0.000129657
6.94566e-05
8.44566e-05
0.000100841
8.55527e-05
0.00010452
0.000103168
7.38608e-05
7.90507e-05
0.000120984
1.93311e-05
1.91936e-05
1.92385e-05
1.89321e-05
1.86807e-05
1.85003e-05
1.83301e-05
1.81745e-05
2.36701e-05
2.04664e-05
1.926e-05
1.87651e-05
1.84147e-05
1.81558e-05
1.79164e-05
1.77021e-05
4.08683e-05
2.4496e-05
1.99564e-05
1.88472e-05
1.84346e-05
1.81509e-05
1.78724e-05
1.76139e-05
5.57975e-05
3.01697e-05
2.07057e-05
1.86534e-05
1.81804e-05
1.79477e-05
1.76322e-05
1.73292e-05
4.57754e-05
2.63857e-05
2.01932e-05
1.88451e-05
1.84203e-05
1.8139e-05
1.78669e-05
1.76225e-05
2.71943e-05
2.12076e-05
1.94412e-05
1.87171e-05
1.83976e-05
1.81668e-05
1.79207e-05
1.77728e-05
2.0658e-05
1.95525e-05
1.90999e-05
1.89071e-05
1.87165e-05
1.85678e-05
1.84115e-05
1.82618e-05
6.47197e-05
7.29484e-05
7.46706e-05
7.48948e-05
7.46588e-05
7.41879e-05
7.3456e-05
7.2384e-05
4.08504e-05
6.45533e-05
7.22375e-05
7.42055e-05
7.44705e-05
7.41814e-05
7.35608e-05
7.25771e-05
2.00532e-05
4.72194e-05
6.60557e-05
7.1936e-05
7.33282e-05
7.33949e-05
7.29544e-05
7.20977e-05
1.39983e-05
3.53621e-05
6.10843e-05
7.03023e-05
7.26764e-05
7.30341e-05
7.26872e-05
7.18262e-05
1.7063e-05
3.95648e-05
6.24789e-05
7.04487e-05
7.2512e-05
7.28065e-05
7.24407e-05
7.15884e-05
2.618e-05
5.31781e-05
6.71585e-05
7.14982e-05
7.25394e-05
7.25088e-05
7.19834e-05
7.10269e-05
4.9177e-05
6.55301e-05
7.05539e-05
7.19461e-05
7.2069e-05
7.16719e-05
7.09247e-05
6.97992e-05
0.000103103
0.0001117
0.000112279
0.00010956
0.00010504
9.94181e-05
9.32237e-05
8.70204e-05
7.9395e-05
0.000103723
0.000110323
0.00010976
0.000105984
0.000100522
9.42005e-05
8.77427e-05
4.71622e-05
8.69357e-05
0.000104631
0.000108058
0.000105656
0.000100654
9.44107e-05
8.78566e-05
3.01221e-05
7.29876e-05
9.94843e-05
0.000106234
0.000104924
0.000100287
9.41427e-05
8.75741e-05
3.86154e-05
7.82991e-05
0.000100423
0.000105666
0.000103894
9.91308e-05
9.30008e-05
8.65161e-05
6.02636e-05
9.22664e-05
0.000103912
0.000105158
0.00010198
9.67358e-05
9.05352e-05
8.41832e-05
8.78187e-05
0.000102608
0.000105521
0.000103551
9.91816e-05
9.35247e-05
8.72821e-05
8.10723e-05
0.000144116
0.000147306
0.000142938
0.000135712
0.000127847
0.000120501
0.000113966
0.000107422
0.000126597
0.000143631
0.00014388
0.000137767
0.000129716
0.000121821
0.000114836
0.000108042
9.48767e-05
0.000132354
0.000141497
0.00013819
0.000130734
0.000122712
0.000115491
0.000108542
7.09652e-05
0.000121475
0.000138299
0.000137505
0.000130732
0.000122787
0.000115474
0.000108416
8.39237e-05
0.000125975
0.000138523
0.0001365
0.000129501
0.000121628
0.000114414
0.000107387
0.000112207
0.000136197
0.000139527
0.000134592
0.000127019
0.000119316
0.000112353
0.000105439
0.000133999
0.000141035
0.000138067
0.000131387
0.000123771
0.000116521
0.000109937
0.000103191
0.000143089
0.000136898
0.000124775
0.000111238
9.79789e-05
8.50732e-05
7.19068e-05
5.89839e-05
0.000135121
0.000139524
0.000129744
0.00011575
0.00010141
8.75969e-05
7.37361e-05
6.00565e-05
0.000111785
0.000134977
0.000131541
0.000118709
0.000103978
8.95197e-05
7.50509e-05
6.0741e-05
9.09537e-05
0.000128348
0.00013077
0.000119411
0.000104794
9.01262e-05
7.54133e-05
6.0857e-05
0.000102682
0.000130846
0.000129822
0.000117819
0.000103381
8.90343e-05
7.46215e-05
6.0352e-05
0.00012557
0.000135161
0.000127452
0.000114327
0.000100413
8.68282e-05
7.31001e-05
5.94977e-05
0.000137451
0.000133858
0.000123007
0.000110299
9.76359e-05
8.51188e-05
7.21479e-05
5.92446e-05
2.27489e-05
2.08931e-05
2.05342e-05
2.0351e-05
2.01814e-05
2.00331e-05
1.9911e-05
1.97869e-05
3.06117e-05
2.233e-05
2.01806e-05
1.95624e-05
1.92139e-05
1.87894e-05
1.85514e-05
1.84175e-05
5.30398e-05
3.08711e-05
2.18206e-05
1.95102e-05
1.88016e-05
1.83114e-05
1.79572e-05
1.75274e-05
6.57421e-05
3.60299e-05
2.30402e-05
1.95316e-05
1.85e-05
1.78499e-05
1.73339e-05
1.69229e-05
4.81838e-05
2.8379e-05
2.1187e-05
1.94752e-05
1.8817e-05
1.8293e-05
1.785e-05
1.767e-05
2.82054e-05
2.12028e-05
1.98035e-05
1.93914e-05
1.91067e-05
1.87942e-05
1.84496e-05
1.82599e-05
2.1888e-05
2.02028e-05
1.9839e-05
1.96637e-05
1.95251e-05
1.93771e-05
1.92472e-05
1.91301e-05
4.73047e-05
6.49999e-05
7.01268e-05
7.13555e-05
7.1138e-05
7.02956e-05
6.90778e-05
6.75076e-05
2.68114e-05
4.76385e-05
6.30882e-05
6.89002e-05
7.04205e-05
7.02633e-05
6.94729e-05
6.83317e-05
2.66827e-05
2.95525e-05
5.10058e-05
6.33091e-05
6.74076e-05
6.79459e-05
6.70788e-05
6.56005e-05
2.65145e-05
2.43507e-05
4.59807e-05
6.00496e-05
6.47393e-05
6.53576e-05
6.44418e-05
6.29008e-05
2.32214e-05
3.1884e-05
5.37952e-05
6.46489e-05
6.81083e-05
6.86596e-05
6.80917e-05
6.70255e-05
2.65443e-05
4.90582e-05
6.32473e-05
6.83558e-05
6.97472e-05
6.97488e-05
6.91793e-05
6.83057e-05
4.47246e-05
6.08728e-05
6.69169e-05
6.89826e-05
6.9362e-05
6.90098e-05
6.82469e-05
6.71296e-05
7.37606e-05
9.77012e-05
0.000105291
0.000105517
0.000101954
9.61969e-05
8.92394e-05
8.19465e-05
4.68601e-05
7.5213e-05
9.66417e-05
0.000104305
0.000104716
0.000101439
9.6147e-05
8.99375e-05
4.04848e-05
4.99177e-05
8.07066e-05
9.79162e-05
0.000103292
0.000102724
9.91149e-05
9.39635e-05
3.65464e-05
3.99569e-05
7.30491e-05
9.38142e-05
0.000100846
0.000100957
9.76343e-05
9.25976e-05
3.75064e-05
5.4767e-05
8.51213e-05
9.97707e-05
0.000103667
0.000102323
9.82667e-05
9.28453e-05
4.80027e-05
7.92932e-05
9.79293e-05
0.000103707
0.00010308
9.91401e-05
9.33788e-05
8.68327e-05
7.45764e-05
9.60964e-05
0.000103158
0.000103521
0.000100239
9.48119e-05
8.8224e-05
8.13413e-05
0.000120247
0.000140506
0.000143372
0.000138944
0.00013165
0.000123755
0.000116152
0.000108335
8.38863e-05
0.000120865
0.00013901
0.000142039
0.000138201
0.000132103
0.000126033
0.000120013
6.1878e-05
8.97599e-05
0.000124603
0.000138563
0.00013969
0.000135525
0.000130058
0.000124473
5.33712e-05
7.3857e-05
0.000115512
0.000134658
0.000137946
0.00013443
0.000128932
0.000123049
6.17515e-05
9.62972e-05
0.000127834
0.000138495
0.000137866
0.000132795
0.000126813
0.000120903
8.87045e-05
0.000124566
0.000138362
0.000138838
0.000133606
0.000126644
0.000119947
0.000113522
0.000121833
0.000138403
0.000139882
0.000135063
0.000127818
0.000120212
0.000113044
0.000105751
0.000132238
0.000139141
0.000131142
0.000118502
0.000104871
9.10964e-05
7.67195e-05
6.22392e-05
0.000102189
0.000132067
0.000136685
0.000128164
0.000115573
0.000101979
8.72068e-05
7.1382e-05
7.48795e-05
0.000108354
0.000132693
0.000132609
0.000122038
0.000108684
9.39517e-05
7.811e-05
6.38653e-05
9.2257e-05
0.000126862
0.000132023
0.000122814
0.000109501
9.46841e-05
7.90393e-05
7.60448e-05
0.000113221
0.000133292
0.000130841
0.000119622
0.00010618
9.16414e-05
7.6264e-05
0.00010717
0.00013329
0.00013438
0.000124606
0.000111832
9.85706e-05
8.44909e-05
6.9586e-05
0.000132653
0.000136364
0.000127691
0.000115267
0.000102195
8.91048e-05
7.54245e-05
6.15691e-05
2.31717e-05
2.02581e-05
1.9412e-05
1.91884e-05
1.9078e-05
1.89538e-05
1.88466e-05
1.87425e-05
3.44738e-05
2.34225e-05
1.92338e-05
1.80884e-05
1.76259e-05
1.72828e-05
1.71233e-05
1.70364e-05
5.51522e-05
3.08062e-05
2.06695e-05
1.8014e-05
1.71208e-05
1.65189e-05
1.59646e-05
1.54718e-05
5.75118e-05
3.06407e-05
2.0536e-05
1.8135e-05
1.72493e-05
1.6677e-05
1.61573e-05
1.56874e-05
3.71562e-05
2.31676e-05
1.92523e-05
1.82891e-05
1.77897e-05
1.74151e-05
1.70759e-05
1.67064e-05
2.26838e-05
1.98791e-05
1.89554e-05
1.85338e-05
1.8169e-05
1.78324e-05
1.7659e-05
1.75574e-05
1.94728e-05
1.90287e-05
1.89586e-05
1.88806e-05
1.87558e-05
1.86357e-05
1.84909e-05
1.83131e-05
3.67946e-05
5.73694e-05
6.5564e-05
6.85682e-05
6.94692e-05
6.94628e-05
6.89268e-05
6.79186e-05
2.17197e-05
3.8245e-05
5.58434e-05
6.3519e-05
6.60658e-05
6.67175e-05
6.67022e-05
6.62979e-05
2.1821e-05
2.74508e-05
4.84651e-05
5.87729e-05
6.13944e-05
6.12106e-05
6.02206e-05
5.90506e-05
1.70334e-05
2.84969e-05
5.18102e-05
6.1505e-05
6.3449e-05
6.27011e-05
6.11068e-05
5.92195e-05
2.09273e-05
4.59271e-05
6.28079e-05
6.79515e-05
6.86622e-05
6.79594e-05
6.68164e-05
6.54502e-05
4.37664e-05
6.49742e-05
7.08471e-05
7.20088e-05
7.18225e-05
7.12465e-05
7.05322e-05
6.95467e-05
6.63055e-05
7.28561e-05
7.3951e-05
7.38623e-05
7.34555e-05
7.29315e-05
7.22743e-05
7.13787e-05
6.97037e-05
9.41319e-05
0.000102373
0.000103355
0.000100561
9.5588e-05
8.94103e-05
8.28658e-05
4.07397e-05
7.03435e-05
9.2532e-05
0.000100554
0.000101164
9.80627e-05
9.29335e-05
8.68852e-05
3.20379e-05
4.94578e-05
8.05049e-05
9.47045e-05
9.78462e-05
9.59198e-05
9.1504e-05
8.59265e-05
2.58611e-05
4.85613e-05
8.21023e-05
9.59623e-05
9.83156e-05
9.55647e-05
9.03144e-05
8.38686e-05
3.86013e-05
7.5978e-05
9.7971e-05
0.000104369
0.000103748
9.97776e-05
9.39511e-05
8.72455e-05
7.62085e-05
0.000101959
0.00010916
0.000109245
0.000106008
0.000100843
9.45047e-05
8.77195e-05
0.00010318
0.000111669
0.000112261
0.000109657
0.000105207
9.95824e-05
9.33164e-05
8.69904e-05
0.000120084
0.000137515
0.000139257
0.00013468
0.000127758
0.00012051
0.000113676
0.000106659
8.29357e-05
0.000120138
0.000135544
0.000136844
0.000132207
0.000125827
0.000119543
0.000113162
5.58657e-05
9.45759e-05
0.000125516
0.000134496
0.000132899
0.000127872
0.000122651
0.00011756
4.73769e-05
9.00032e-05
0.000124762
0.000134906
0.000133448
0.000128283
0.000123074
0.000118422
7.52031e-05
0.000119752
0.000138227
0.000140271
0.000135611
0.000129102
0.000122982
0.000117213
0.000121282
0.000142718
0.00014544
0.000140886
0.000133705
0.000126242
0.000119514
0.000112981
0.000144279
0.00014814
0.000144024
0.000136956
0.000129149
0.000121796
0.000115236
0.000108686
0.000131144
0.000134852
0.000126219
0.000113752
0.000100531
8.72032e-05
7.33291e-05
5.94957e-05
0.000103972
0.000129567
0.000130426
0.000120248
0.000106761
9.24774e-05
7.73975e-05
6.20711e-05
7.3274e-05
0.000113017
0.000128785
0.000123646
0.000111321
9.71721e-05
8.17726e-05
6.56069e-05
6.32924e-05
0.000108103
0.000128761
0.000124961
0.000112709
9.86037e-05
8.34551e-05
6.75438e-05
9.40118e-05
0.000129368
0.000134463
0.000124971
0.000111084
9.63787e-05
8.09143e-05
6.50055e-05
0.000132213
0.000141131
0.000133279
0.000119977
0.000105619
9.13535e-05
7.66808e-05
6.19337e-05
0.000143586
0.000137687
0.000125566
0.000112032
9.87602e-05
8.57986e-05
7.2511e-05
5.9373e-05
2.01311e-05
1.93403e-05
1.91112e-05
1.89399e-05
1.88259e-05
1.86817e-05
1.85619e-05
1.83636e-05
2.4973e-05
2.04875e-05
1.94266e-05
1.89739e-05
1.86067e-05
1.82128e-05
1.7969e-05
1.78024e-05
4.30802e-05
2.6175e-05
2.05056e-05
1.92017e-05
1.86519e-05
1.81987e-05
1.7735e-05
1.72963e-05
6.53441e-05
3.56428e-05
2.30033e-05
1.95897e-05
1.85788e-05
1.80033e-05
1.74939e-05
1.6989e-05
5.92611e-05
3.45774e-05
2.32672e-05
1.99089e-05
1.88595e-05
1.83096e-05
1.7829e-05
1.73998e-05
3.66018e-05
2.57059e-05
2.12704e-05
2.00032e-05
1.95908e-05
1.93292e-05
1.90019e-05
1.86757e-05
2.40397e-05
2.15039e-05
2.07412e-05
2.04994e-05
2.03561e-05
2.02303e-05
2.01241e-05
2.00523e-05
5.70513e-05
6.78646e-05
7.0666e-05
7.12251e-05
7.09148e-05
7.02661e-05
6.94185e-05
6.83384e-05
3.33325e-05
5.88425e-05
6.79369e-05
7.02576e-05
7.03218e-05
6.9633e-05
6.86514e-05
6.739e-05
1.95968e-05
3.79193e-05
5.9132e-05
6.72124e-05
6.90649e-05
6.86537e-05
6.7416e-05
6.58365e-05
2.38651e-05
2.42004e-05
4.84977e-05
6.25445e-05
6.67459e-05
6.68833e-05
6.55114e-05
6.35822e-05
2.87037e-05
2.68422e-05
4.83352e-05
6.22763e-05
6.71419e-05
6.79076e-05
6.71057e-05
6.56938e-05
2.52217e-05
4.10775e-05
5.99506e-05
6.86873e-05
7.16096e-05
7.20629e-05
7.15552e-05
7.06082e-05
4.3755e-05
6.58136e-05
7.13054e-05
7.25461e-05
7.24055e-05
7.15956e-05
7.03114e-05
6.85613e-05
9.0791e-05
0.000103945
0.000105983
0.000103884
9.95037e-05
9.37599e-05
8.73112e-05
8.08018e-05
5.84728e-05
9.15e-05
0.000103053
0.000104896
0.000102433
9.76517e-05
9.15041e-05
8.47644e-05
3.34573e-05
6.09982e-05
9.02449e-05
0.000101573
0.000103398
0.000100817
9.59137e-05
8.97985e-05
3.5951e-05
3.78533e-05
7.34232e-05
9.49163e-05
0.000101546
0.000101102
9.72731e-05
9.17624e-05
4.20176e-05
4.43328e-05
7.65615e-05
9.68217e-05
0.000103517
0.00010338
9.98318e-05
9.45289e-05
4.43983e-05
7.07587e-05
9.54808e-05
0.000105327
0.000106777
0.000103946
9.8774e-05
9.24786e-05
7.3325e-05
9.95254e-05
0.000106683
0.000106717
0.000103096
9.72668e-05
9.01866e-05
8.27323e-05
0.000134623
0.000142373
0.00013962
0.000133143
0.000125578
0.000118289
0.000111684
0.000105017
0.000103923
0.000134154
0.000141169
0.000138603
0.000132367
0.000125364
0.000118975
0.000112978
6.16716e-05
0.000103876
0.000131776
0.000139224
0.000136996
0.000131299
0.000125212
0.000119381
5.20807e-05
7.30298e-05
0.000116146
0.000135201
0.000137973
0.000134177
0.000128757
0.000123189
6.09891e-05
8.47235e-05
0.000122538
0.000138461
0.000140223
0.000136302
0.000131126
0.000125981
8.19351e-05
0.000119667
0.000139716
0.000143649
0.000140151
0.000134132
0.000127931
0.000121705
0.000121013
0.000141806
0.000144445
0.000139916
0.000132564
0.000124591
0.000116867
0.000108883
0.000139164
0.00013638
0.000125773
0.000113433
0.00010123
8.91336e-05
7.63631e-05
6.32506e-05
0.000120917
0.00013869
0.000134957
0.000124008
0.000111533
9.9064e-05
8.59194e-05
7.20018e-05
7.94586e-05
0.000120443
0.000135536
0.000130783
0.000119238
0.000106361
9.26956e-05
7.81728e-05
6.28967e-05
9.46062e-05
0.000128127
0.000132094
0.000122698
0.00010989
9.58053e-05
8.07924e-05
7.406e-05
0.000106754
0.000132346
0.000132701
0.000122491
0.000109484
9.49282e-05
7.92138e-05
0.000101349
0.000131992
0.000137359
0.000128962
0.000116128
0.000102067
8.68113e-05
7.06957e-05
0.000132548
0.000139639
0.000131512
0.000118693
0.000104815
9.07579e-05
7.61791e-05
6.16614e-05
1.80449e-05
1.75739e-05
1.73771e-05
1.72248e-05
1.74109e-05
1.77146e-05
1.81533e-05
7.08959e-05
7.11692e-05
7.0781e-05
7.0477e-05
7.02323e-05
6.96111e-05
6.82458e-05
8.14193e-05
8.20136e-05
8.20612e-05
8.17548e-05
8.0757e-05
7.85323e-05
7.54953e-05
9.90595e-05
9.92699e-05
9.94757e-05
9.91863e-05
9.82028e-05
9.64614e-05
9.4535e-05
4.78996e-05
4.79668e-05
4.79618e-05
4.78786e-05
4.77245e-05
4.7643e-05
4.82683e-05
1.9693e-05
1.81572e-05
1.69876e-05
1.65629e-05
1.7363e-05
1.81393e-05
1.90058e-05
6.55771e-05
6.70876e-05
6.40468e-05
6.11935e-05
6.56555e-05
6.71634e-05
6.56541e-05
7.51479e-05
8.40737e-05
8.87519e-05
8.74603e-05
8.74429e-05
8.06872e-05
7.50019e-05
9.86125e-05
0.000112344
0.000117397
0.000115573
0.000113556
0.000105495
9.66354e-05
5.00396e-05
5.62902e-05
6.16954e-05
6.27877e-05
6.05495e-05
5.53066e-05
4.96768e-05
1.86575e-05
1.69229e-05
1.51397e-05
1.52928e-05
1.63131e-05
1.74016e-05
1.81382e-05
6.6429e-05
6.5634e-05
5.78496e-05
5.72331e-05
6.39704e-05
6.83287e-05
7.01516e-05
7.67649e-05
8.11187e-05
8.06086e-05
7.76475e-05
8.10023e-05
8.14901e-05
8.12439e-05
9.77055e-05
0.000104597
0.00011027
0.000112028
0.000109388
0.000104434
0.000100296
4.78889e-05
4.86978e-05
5.05467e-05
5.20508e-05
5.02276e-05
4.87991e-05
4.80287e-05
1.81277e-05
1.75544e-05
1.6875e-05
1.65115e-05
1.69965e-05
1.83778e-05
1.99815e-05
6.69882e-05
6.59435e-05
6.41376e-05
6.15799e-05
6.41468e-05
6.94248e-05
6.63579e-05
7.4899e-05
7.8462e-05
8.38048e-05
8.61703e-05
8.90306e-05
8.6335e-05
7.5744e-05
9.65103e-05
0.000105481
0.000112077
0.000115998
0.000119362
0.000113541
9.89528e-05
5.15634e-05
5.82048e-05
6.2999e-05
6.49015e-05
6.29407e-05
5.5706e-05
4.9598e-05
1.79297e-05
1.75815e-05
1.69591e-05
1.62601e-05
1.5467e-05
1.46174e-05
1.37288e-05
1.27945e-05
1.74641e-05
1.71499e-05
1.66019e-05
1.58841e-05
1.51069e-05
1.42715e-05
1.33934e-05
1.24667e-05
1.71818e-05
1.68787e-05
1.63834e-05
1.56638e-05
1.48871e-05
1.40681e-05
1.32052e-05
1.22903e-05
1.71802e-05
1.68695e-05
1.64408e-05
1.58017e-05
1.49714e-05
1.40532e-05
1.3154e-05
1.22374e-05
1.72583e-05
1.70018e-05
1.65115e-05
1.57847e-05
1.49886e-05
1.41588e-05
1.32894e-05
1.23711e-05
1.76362e-05
1.73458e-05
1.67932e-05
1.60634e-05
1.52728e-05
1.44357e-05
1.35565e-05
1.26294e-05
1.80399e-05
1.76934e-05
1.71273e-05
1.64246e-05
1.56306e-05
1.47899e-05
1.39131e-05
1.29925e-05
6.86571e-05
6.51636e-05
6.2221e-05
5.90406e-05
5.49014e-05
4.96052e-05
4.33085e-05
3.63268e-05
6.90682e-05
6.55787e-05
6.22871e-05
5.88017e-05
5.43851e-05
4.88977e-05
4.25146e-05
3.55621e-05
6.88076e-05
6.54076e-05
6.19656e-05
5.83587e-05
5.38908e-05
4.84044e-05
4.20673e-05
3.51933e-05
6.84733e-05
6.51957e-05
6.19075e-05
5.82538e-05
5.36824e-05
4.81744e-05
4.18679e-05
3.50459e-05
6.82156e-05
6.49068e-05
6.17737e-05
5.84093e-05
5.40987e-05
4.8679e-05
4.23517e-05
3.54524e-05
6.75457e-05
6.44938e-05
6.18647e-05
5.88889e-05
5.47816e-05
4.9427e-05
4.3057e-05
3.60435e-05
6.60101e-05
6.31604e-05
6.10298e-05
5.8541e-05
5.4868e-05
4.98427e-05
4.36787e-05
3.67413e-05
7.57741e-05
7.01808e-05
6.88815e-05
6.70989e-05
6.32674e-05
5.72858e-05
4.96531e-05
4.10652e-05
7.6495e-05
7.08953e-05
6.93751e-05
6.72683e-05
6.3047e-05
5.66894e-05
4.87698e-05
4.00476e-05
7.66392e-05
7.10705e-05
6.94232e-05
6.71446e-05
6.27538e-05
5.62734e-05
4.8298e-05
3.9587e-05
7.63755e-05
7.08821e-05
6.93075e-05
6.70266e-05
6.25929e-05
5.60641e-05
4.80635e-05
3.93623e-05
7.54407e-05
7.02798e-05
6.90544e-05
6.70483e-05
6.28377e-05
5.64503e-05
4.85029e-05
3.97819e-05
7.32415e-05
6.90717e-05
6.84053e-05
6.68731e-05
6.30497e-05
5.69076e-05
4.90604e-05
4.0325e-05
7.00865e-05
6.66681e-05
6.63726e-05
6.53602e-05
6.21683e-05
5.66399e-05
4.92976e-05
4.09039e-05
8.81987e-05
7.55918e-05
6.90023e-05
6.67977e-05
6.41482e-05
5.9273e-05
5.22666e-05
4.39038e-05
8.84403e-05
7.60807e-05
6.96292e-05
6.73498e-05
6.44137e-05
5.91242e-05
5.1694e-05
4.30177e-05
8.86303e-05
7.63545e-05
6.98992e-05
6.7497e-05
6.43688e-05
5.8885e-05
5.13134e-05
4.25736e-05
8.83534e-05
7.6226e-05
6.98954e-05
6.75117e-05
6.43283e-05
5.87637e-05
5.11239e-05
4.23535e-05
8.74732e-05
7.56278e-05
6.96193e-05
6.7491e-05
6.45093e-05
5.90925e-05
5.15375e-05
4.27904e-05
8.58684e-05
7.44382e-05
6.88597e-05
6.71009e-05
6.44686e-05
5.93392e-05
5.19717e-05
4.33107e-05
8.3945e-05
7.25244e-05
6.68246e-05
6.50421e-05
6.27282e-05
5.81956e-05
5.1538e-05
4.35335e-05
5.76054e-05
6.32441e-05
6.30503e-05
6.32626e-05
6.21861e-05
5.86518e-05
5.27794e-05
4.53912e-05
5.8124e-05
6.40549e-05
6.39118e-05
6.40083e-05
6.26881e-05
5.88098e-05
5.25627e-05
4.48581e-05
5.82779e-05
6.43553e-05
6.42093e-05
6.4204e-05
6.27318e-05
5.86897e-05
5.23089e-05
4.45249e-05
5.819e-05
6.43898e-05
6.43045e-05
6.4299e-05
6.27834e-05
5.86713e-05
5.22231e-05
4.43977e-05
5.77261e-05
6.39994e-05
6.40672e-05
6.42321e-05
6.28787e-05
5.88982e-05
5.25439e-05
4.47755e-05
5.69522e-05
6.3219e-05
6.34195e-05
6.38154e-05
6.27316e-05
5.89988e-05
5.28439e-05
4.52176e-05
5.63919e-05
6.2108e-05
6.16064e-05
6.15019e-05
6.03345e-05
5.69797e-05
5.15489e-05
4.47774e-05
1.95596e-05
1.91418e-05
1.84762e-05
1.7639e-05
1.67296e-05
1.57896e-05
1.48381e-05
1.38717e-05
1.78635e-05
1.73241e-05
1.68224e-05
1.63607e-05
1.57765e-05
1.5073e-05
1.42757e-05
1.34232e-05
1.65801e-05
1.59345e-05
1.53685e-05
1.48135e-05
1.42394e-05
1.36648e-05
1.30524e-05
1.2361e-05
1.61975e-05
1.55432e-05
1.48857e-05
1.42123e-05
1.352e-05
1.28658e-05
1.22701e-05
1.15642e-05
1.68699e-05
1.62974e-05
1.57457e-05
1.51473e-05
1.45278e-05
1.39319e-05
1.32989e-05
1.25832e-05
1.79437e-05
1.75083e-05
1.71113e-05
1.65569e-05
1.58805e-05
1.51378e-05
1.43183e-05
1.34397e-05
1.88624e-05
1.84889e-05
1.7909e-05
1.71528e-05
1.63127e-05
1.54314e-05
1.4522e-05
1.35915e-05
6.30478e-05
6.07497e-05
5.96032e-05
5.82137e-05
5.55478e-05
5.12983e-05
4.56208e-05
3.8849e-05
6.53142e-05
6.33434e-05
6.08948e-05
5.74341e-05
5.32032e-05
4.8251e-05
4.25729e-05
3.62386e-05
6.18416e-05
5.89792e-05
5.59128e-05
5.25285e-05
4.87762e-05
4.45643e-05
3.97819e-05
3.45147e-05
5.87929e-05
5.55277e-05
5.21905e-05
4.8779e-05
4.52304e-05
4.14777e-05
3.69944e-05
3.23383e-05
6.3684e-05
6.09745e-05
5.7995e-05
5.47069e-05
5.092e-05
4.65209e-05
4.14312e-05
3.57477e-05
6.5441e-05
6.32586e-05
6.0498e-05
5.73104e-05
5.34264e-05
4.86135e-05
4.28765e-05
3.64342e-05
6.35029e-05
6.10182e-05
5.95226e-05
5.78794e-05
5.50708e-05
5.07747e-05
4.51199e-05
3.84174e-05
6.84572e-05
6.43647e-05
6.36813e-05
6.29751e-05
6.06705e-05
5.62994e-05
5.01128e-05
4.26714e-05
7.80501e-05
7.30405e-05
6.88758e-05
6.5515e-05
6.13055e-05
5.58041e-05
4.91808e-05
4.17933e-05
8.28858e-05
7.70928e-05
7.25659e-05
6.79359e-05
6.26612e-05
5.66921e-05
5.01101e-05
4.30083e-05
8.16254e-05
7.55627e-05
7.06373e-05
6.55747e-05
6.003e-05
5.40688e-05
4.77808e-05
4.1331e-05
8.15046e-05
7.58007e-05
7.15839e-05
6.73342e-05
6.22196e-05
5.61902e-05
4.94405e-05
4.21655e-05
7.45443e-05
6.94898e-05
6.61823e-05
6.37632e-05
6.00884e-05
5.47971e-05
4.81854e-05
4.07393e-05
6.87668e-05
6.43631e-05
6.4e-05
6.34925e-05
6.11839e-05
5.66692e-05
5.02734e-05
4.26131e-05
8.66203e-05
7.33236e-05
6.58224e-05
6.28624e-05
6.03677e-05
5.64568e-05
5.09085e-05
4.41998e-05
0.000101718
8.75768e-05
7.70291e-05
7.05796e-05
6.5199e-05
5.92327e-05
5.24561e-05
4.52067e-05
0.000107696
9.44826e-05
8.47586e-05
7.81249e-05
7.19824e-05
6.51465e-05
5.75302e-05
4.94351e-05
0.00010556
9.19745e-05
8.19337e-05
7.47555e-05
6.79288e-05
6.06556e-05
5.30896e-05
4.55167e-05
0.000103634
9.02741e-05
8.0593e-05
7.40209e-05
6.77503e-05
6.08292e-05
5.33367e-05
4.55712e-05
9.48953e-05
8.1442e-05
7.18783e-05
6.63581e-05
6.16667e-05
5.61756e-05
4.97016e-05
4.26747e-05
8.5196e-05
7.23001e-05
6.53895e-05
6.30903e-05
6.09843e-05
5.71011e-05
5.12957e-05
4.4199e-05
5.68541e-05
6.14157e-05
5.98699e-05
5.90585e-05
5.77023e-05
5.47093e-05
5.01032e-05
4.4449e-05
6.94315e-05
7.52619e-05
7.1599e-05
6.75341e-05
6.30156e-05
5.76172e-05
5.15512e-05
4.52188e-05
8.52751e-05
9.28969e-05
8.78511e-05
8.14395e-05
7.46163e-05
6.72778e-05
5.95815e-05
5.18237e-05
8.9184e-05
9.66756e-05
9.04604e-05
8.29811e-05
7.50399e-05
6.64288e-05
5.73934e-05
4.84193e-05
8.17867e-05
8.93003e-05
8.38308e-05
7.71885e-05
7.03933e-05
6.31902e-05
5.56608e-05
4.81144e-05
6.76805e-05
7.33462e-05
6.91952e-05
6.47408e-05
6.01179e-05
5.48178e-05
4.88658e-05
4.2695e-05
5.71354e-05
6.19535e-05
6.03766e-05
5.95936e-05
5.83223e-05
5.5263e-05
5.03705e-05
4.43338e-05
1.85614e-05
1.82586e-05
1.77078e-05
1.69629e-05
1.61216e-05
1.52439e-05
1.43418e-05
1.34096e-05
1.68371e-05
1.66373e-05
1.65239e-05
1.62268e-05
1.56017e-05
1.48333e-05
1.40009e-05
1.31114e-05
1.49119e-05
1.45419e-05
1.42252e-05
1.38492e-05
1.33871e-05
1.28524e-05
1.22746e-05
1.16442e-05
1.498e-05
1.44311e-05
1.38704e-05
1.32786e-05
1.27273e-05
1.21444e-05
1.15366e-05
1.09027e-05
1.60291e-05
1.55678e-05
1.51491e-05
1.46746e-05
1.418e-05
1.35767e-05
1.28606e-05
1.20599e-05
1.72627e-05
1.69723e-05
1.67776e-05
1.62883e-05
1.55787e-05
1.4751e-05
1.38819e-05
1.29731e-05
1.79528e-05
1.76399e-05
1.7152e-05
1.64813e-05
1.56965e-05
1.48536e-05
1.39695e-05
1.30418e-05
6.41679e-05
6.13586e-05
5.94494e-05
5.74412e-05
5.44306e-05
5.01052e-05
4.45563e-05
3.8032e-05
6.44717e-05
6.28876e-05
6.03556e-05
5.70335e-05
5.30834e-05
4.83527e-05
4.28732e-05
3.67466e-05
5.62043e-05
5.42679e-05
5.19843e-05
4.93869e-05
4.64081e-05
4.29678e-05
3.87573e-05
3.36409e-05
5.46561e-05
5.08959e-05
4.67047e-05
4.23026e-05
3.77224e-05
3.32261e-05
2.89199e-05
2.49052e-05
6.19349e-05
5.90081e-05
5.55711e-05
5.1799e-05
4.73286e-05
4.22164e-05
3.6699e-05
3.08983e-05
6.65107e-05
6.36184e-05
5.9923e-05
5.60537e-05
5.16296e-05
4.64954e-05
4.07072e-05
3.43921e-05
6.82147e-05
6.48967e-05
6.17497e-05
5.84364e-05
5.42794e-05
4.90757e-05
4.29425e-05
3.61227e-05
7.06452e-05
6.5826e-05
6.51619e-05
6.42761e-05
6.16021e-05
5.68646e-05
5.04163e-05
4.28085e-05
7.53528e-05
6.98427e-05
6.75385e-05
6.52418e-05
6.13329e-05
5.58227e-05
4.92116e-05
4.19768e-05
7.54258e-05
7.15558e-05
6.84409e-05
6.42712e-05
5.92789e-05
5.31341e-05
4.63559e-05
3.95053e-05
7.1387e-05
6.53927e-05
6.04849e-05
5.51741e-05
4.93334e-05
4.32407e-05
3.71562e-05
3.131e-05
7.4964e-05
6.95177e-05
6.47841e-05
5.98426e-05
5.42004e-05
4.77269e-05
4.0871e-05
3.40384e-05
7.54053e-05
6.93404e-05
6.62547e-05
6.33239e-05
5.88821e-05
5.29829e-05
4.61237e-05
3.87783e-05
7.54232e-05
6.9499e-05
6.78072e-05
6.58122e-05
6.19775e-05
5.62214e-05
4.89874e-05
4.08551e-05
8.62711e-05
7.32025e-05
6.64347e-05
6.44179e-05
6.2404e-05
5.84357e-05
5.24596e-05
4.51234e-05
9.30946e-05
7.88038e-05
6.99508e-05
6.58844e-05
6.21856e-05
5.70067e-05
5.0442e-05
4.31376e-05
9.99946e-05
8.54933e-05
7.46632e-05
6.77002e-05
6.14877e-05
5.44747e-05
4.69001e-05
3.93923e-05
0.000102957
8.90442e-05
7.79598e-05
7.0026e-05
6.28442e-05
5.57258e-05
4.87643e-05
4.18854e-05
9.87649e-05
8.36836e-05
7.21904e-05
6.46504e-05
5.80201e-05
5.10221e-05
4.39353e-05
3.71871e-05
9.29772e-05
7.83587e-05
6.88489e-05
6.40175e-05
5.96463e-05
5.40834e-05
4.74712e-05
4.03816e-05
8.91621e-05
7.5767e-05
6.8279e-05
6.54109e-05
6.24848e-05
5.77148e-05
5.114e-05
4.33922e-05
5.53543e-05
6.0532e-05
6.04284e-05
6.10976e-05
6.06846e-05
5.79042e-05
5.28458e-05
4.6296e-05
5.72791e-05
6.22303e-05
6.15471e-05
6.13496e-05
5.99385e-05
5.62956e-05
5.07308e-05
4.40685e-05
6.09651e-05
6.56906e-05
6.37876e-05
6.18721e-05
5.85681e-05
5.33192e-05
4.68544e-05
4.00799e-05
6.4565e-05
6.8806e-05
6.53835e-05
6.11846e-05
5.58398e-05
5.00291e-05
4.4835e-05
4.07304e-05
6.03957e-05
6.45342e-05
6.18577e-05
5.90529e-05
5.49871e-05
4.94681e-05
4.33531e-05
3.74422e-05
5.78691e-05
6.24269e-05
6.098e-05
5.98802e-05
5.76569e-05
5.35142e-05
4.78358e-05
4.13915e-05
5.72124e-05
6.23932e-05
6.18504e-05
6.17989e-05
6.06009e-05
5.71742e-05
5.16598e-05
4.47904e-05
1.79193e-05
1.76153e-05
1.71265e-05
1.64494e-05
1.56672e-05
1.48378e-05
1.39847e-05
1.31002e-05
1.73109e-05
1.67891e-05
1.62279e-05
1.56037e-05
1.49368e-05
1.42113e-05
1.34546e-05
1.26699e-05
1.65166e-05
1.59203e-05
1.53257e-05
1.47216e-05
1.4088e-05
1.34244e-05
1.27321e-05
1.20126e-05
1.60725e-05
1.53505e-05
1.46704e-05
1.40075e-05
1.33372e-05
1.2669e-05
1.19749e-05
1.1286e-05
1.66474e-05
1.60854e-05
1.55254e-05
1.49488e-05
1.4319e-05
1.36589e-05
1.29659e-05
1.22425e-05
1.81165e-05
1.76374e-05
1.71136e-05
1.65512e-05
1.58107e-05
1.4986e-05
1.41563e-05
1.3336e-05
1.98424e-05
1.9375e-05
1.86387e-05
1.7735e-05
1.67708e-05
1.57991e-05
1.4833e-05
1.38576e-05
6.49745e-05
6.17639e-05
5.90078e-05
5.61641e-05
5.24442e-05
4.76094e-05
4.17801e-05
3.52264e-05
6.38303e-05
6.07863e-05
5.73035e-05
5.33203e-05
4.87687e-05
4.38309e-05
3.84513e-05
3.26249e-05
6.17057e-05
5.8159e-05
5.42757e-05
5.00673e-05
4.55934e-05
4.09241e-05
3.60152e-05
3.07967e-05
5.88605e-05
5.52115e-05
5.14254e-05
4.74356e-05
4.3243e-05
3.89444e-05
3.45168e-05
2.99345e-05
6.19457e-05
5.90564e-05
5.58476e-05
5.21682e-05
4.81084e-05
4.36486e-05
3.88617e-05
3.37658e-05
6.75603e-05
6.50079e-05
6.17852e-05
5.78356e-05
5.34692e-05
4.8627e-05
4.33045e-05
3.73436e-05
6.35823e-05
6.1151e-05
5.9937e-05