/*--------------------------------*- C++ -*----------------------------------*\
| =========                 |                                                 |
| \\      /  F ield         | OpenFOAM: The Open Source CFD Toolbox           |
|  \\    /   O peration     | Version:  plus.master.MPPICInterFoam            |
|   \\  /    A nd           | Web:      www.OpenFOAM.com                      |
|    \\/     M anipulation  |                                                 |
\*---------------------------------------------------------------------------*/
FoamFile
{
    version     2.0;
    format      ascii;
    class       volScalarField;
    location    "8.6";
    object      p;
}
// * * * * * * * * * * * * * * * * * * * * * * * * * * * * * * * * * * * * * //

dimensions      [1 -1 -2 0 0 0 0];

internalField   nonuniform List<scalar> 
11821
(
5619.03
5616.3
5611.46
5609.7
5611.85
5615.81
5618.14
5616.95
5622.1
5610.29
5606.63
5611.53
5622.07
5615.08
5612.31
5610.9
5607.68
5603.59
5607.47
5610.79
5610.99
5610.21
5607.1
5604.04
5602.18
5602.99
5607.17
5609.18
5611.78
5610.31
5607.59
5604.04
5607.18
5610.03
5610.53
5616.31
5621.63
5610.23
5605.91
5611.14
5620.58
5614.91
5618.69
5615.58
5610.66
5608.27
5610.45
5615.46
5617.72
5487.32
5482.26
5479.02
5478.27
5479.94
5483.93
5488.67
5481.78
5476.13
5470.32
5470.75
5471.68
5477.59
5484.41
5477.64
5471.71
5482.35
5482.69
5480.86
5471.29
5481.38
5477.24
5471.54
5483.13
5484.97
5482.06
5469.9
5480.14
5477.88
5471.48
5482.59
5483.43
5481.82
5470.56
5480.74
5481.4
5477.54
5471.29
5471.69
5471.97
5475.76
5483.39
5486.79
5481.33
5477.63
5476.29
5477.92
5482.55
5487.73
5370.02
5368.37
5367.17
5366.66
5367.34
5368.54
5369.89
5368.02
5365.11
5364.39
5365.49
5364.25
5366.19
5368.72
5366.39
5365.1
5376.02
5376.58
5372.28
5364.1
5368.09
5365.88
5365.08
5375.67
5377
5373.49
5361.83
5367.43
5366.28
5364.77
5375.36
5375.48
5373.25
5362.96
5367.59
5367.55
5364.37
5363.95
5364.41
5363.06
5364.6
5368.06
5369.53
5367.32
5365.38
5364.17
5365.26
5367.28
5369.24
5252.66
5254.54
5255.62
5256.33
5254.43
5252.32
5250.22
5254.5
5256.18
5258.63
5262.36
5257.05
5254.5
5252.09
5255.88
5259.32
5273.34
5277.95
5265.63
5256.55
5253.84
5256.89
5263.93
5277.2
5279.31
5270.05
5256.82
5254.48
5256.01
5259.83
5274.09
5277.23
5268.04
5256.67
5254.16
5254.65
5255.9
5258.83
5264.19
5256.01
5254.38
5252.42
5253
5254.56
5255.27
5255.92
5254
5252.47
5250.5
5114.09
5117.2
5119.04
5119.76
5116.98
5113.88
5110.53
5117.51
5120.84
5123.56
5126.85
5121.03
5117.54
5113.5
5120.08
5124.26
5136.83
5146.19
5127.8
5120.81
5116.13
5122.32
5130.75
5147.61
5152.18
5133.07
5121.6
5117.24
5120.71
5125.91
5141.04
5152.13
5132.69
5122.13
5116.99
5118.6
5122.06
5125.69
5132.59
5123.07
5118.93
5114.64
5115.5
5118.7
5120.69
5122.13
5118.76
5115.33
5111.63
5620.73
5622.96
5624.76
5626.17
5627.4
5628.51
5629.5
5630.39
5618.57
5622.07
5623.85
5625.49
5626.94
5628.23
5629.35
5630.35
5615.44
5620.42
5622.89
5624.74
5626.41
5627.89
5629.17
5630.28
5614.87
5620.07
5622.5
5624.43
5626.16
5627.75
5629.03
5630.08
5615.23
5620.13
5622.63
5624.57
5626.26
5627.76
5629.04
5630.15
5617.76
5621.32
5623.47
5625.14
5626.65
5627.99
5629.12
5630.14
5620.43
5622.75
5624.42
5625.87
5627.16
5628.3
5629.3
5630.2
5492.36
5494.83
5496.82
5498.44
5499.76
5500.87
5501.8
5502.59
5489.77
5493.21
5495.78
5497.77
5499.35
5500.64
5501.71
5502.61
5487.93
5492.01
5494.99
5497.25
5499.02
5500.44
5501.59
5502.56
5487.18
5491.51
5494.64
5497.01
5498.86
5500.33
5501.53
5502.52
5487.55
5491.73
5494.75
5497.05
5498.85
5500.3
5501.48
5502.46
5489.08
5492.68
5495.34
5497.41
5499.04
5500.37
5501.47
5502.39
5491.64
5494.23
5496.32
5498.01
5499.38
5500.53
5501.48
5502.3
5370.84
5371.55
5372.19
5372.73
5373.19
5373.6
5373.98
5374.39
5370.16
5371.07
5371.84
5372.49
5373.03
5373.49
5373.92
5374.36
5369.84
5370.83
5371.63
5372.32
5372.9
5373.4
5373.86
5374.33
5369.61
5370.72
5371.53
5372.24
5372.85
5373.37
5373.84
5374.32
5369.62
5370.69
5371.5
5372.21
5372.83
5373.35
5373.83
5374.31
5369.78
5370.77
5371.58
5372.27
5372.86
5373.37
5373.84
5374.32
5370.36
5371.15
5371.85
5372.46
5372.97
5373.42
5373.84
5374.26
5248.42
5247.28
5246.53
5246.08
5245.97
5246.24
5246.93
5248.03
5249.71
5248.04
5246.91
5246.21
5245.94
5246.12
5246.8
5247.96
5250.94
5248.77
5247.3
5246.4
5245.98
5246.07
5246.72
5247.9
5251.59
5249.2
5247.54
5246.54
5246.06
5246.1
5246.71
5247.88
5251.25
5248.98
5247.44
5246.5
5246.05
5246.1
5246.72
5247.85
5250
5248.24
5247.06
5246.33
5246
5246.13
5246.76
5247.86
5248.57
5247.37
5246.58
5246.09
5245.94
5246.16
5246.81
5247.85
5107.64
5105.34
5103.27
5101.37
5099.5
5097.23
5094.3
5092.73
5109.84
5106.91
5104.37
5102.15
5100.07
5097.63
5094.44
5092.55
5111.66
5108.17
5105.28
5102.82
5100.57
5097.99
5094.61
5092.49
5112.64
5108.88
5105.81
5103.25
5100.92
5098.27
5094.81
5092.58
5112.3
5108.62
5105.64
5103.12
5100.84
5098.24
5094.84
5092.67
5110.67
5107.53
5104.88
5102.59
5100.49
5098.04
5094.85
5092.88
5108.33
5105.86
5103.71
5101.77
5099.9
5097.66
5094.77
5093.16
5621.6
5623.48
5625.03
5626.41
5627.63
5628.72
5629.71
5630.6
5619.63
5622.2
5624.07
5625.73
5627.17
5628.35
5629.43
5630.44
5617.4
5621.1
5623.27
5625.23
5626.91
5628.33
5629.59
5630.66
5616.56
5620.57
5622.96
5625.1
5626.9
5628.4
5629.68
5630.8
5617.49
5620.87
5623.17
5625.13
5626.77
5628.13
5629.27
5630.37
5619.68
5621.97
5623.94
5625.61
5627.09
5628.34
5629.37
5630.32
5621.63
5623.46
5625.04
5626.42
5627.65
5628.74
5629.72
5630.61
5491.14
5493.96
5496.19
5497.98
5499.43
5500.61
5501.6
5502.43
5488.03
5492.1
5495.05
5497.28
5499.01
5500.39
5501.5
5502.42
5486.08
5490.99
5494.45
5497
5498.93
5500.45
5501.65
5502.64
5485.48
5490.6
5494.24
5496.92
5498.95
5500.52
5501.77
5502.78
5486.02
5490.92
5494.37
5496.9
5498.83
5500.33
5501.52
5502.49
5488.27
5492.26
5495.16
5497.36
5499.07
5500.43
5501.54
5502.47
5491.47
5494.23
5496.41
5498.15
5499.56
5500.72
5501.7
5502.52
5370.91
5371.8
5372.55
5373.19
5373.72
5374.16
5374.54
5374.92
5369.97
5371.27
5372.2
5372.95
5373.56
5374.06
5374.49
5374.9
5369.68
5371.28
5372.34
5373.13
5373.76
5374.28
5374.72
5375.14
5369.4
5371.23
5372.37
5373.18
5373.83
5374.37
5374.84
5375.28
5369.69
5371.19
5372.19
5372.96
5373.58
5374.08
5374.51
5374.93
5370.21
5371.38
5372.24
5372.95
5373.52
5374
5374.42
5374.83
5371.15
5371.95
5372.64
5373.22
5373.71
5374.13
5374.5
5374.88
5250.75
5249.36
5248.39
5247.78
5247.49
5247.57
5248.07
5248.94
5252.24
5250.27
5248.77
5247.84
5247.34
5247.26
5247.66
5248.54
5253.64
5251.47
5249.6
5248.29
5247.55
5247.36
5247.7
5248.51
5254.35
5252.1
5250.05
5248.59
5247.75
5247.48
5247.77
5248.54
5253.41
5251.17
5249.3
5248.02
5247.3
5247.09
5247.46
5248.24
5251.97
5249.99
5248.54
5247.6
5247.1
5247.05
5247.47
5248.34
5250.38
5249.03
5248.09
5247.49
5247.21
5247.29
5247.79
5248.68
5111.91
5109.39
5107.18
5105.18
5103.24
5100.93
5098.01
5096.42
5114.33
5110.94
5108.09
5105.71
5103.48
5100.98
5097.82
5096.16
5116.33
5112.46
5109.03
5106.23
5103.84
5101.24
5097.86
5096.4
5117.53
5113.33
5109.54
5106.51
5103.98
5101.25
5097.91
5096.57
5115.76
5111.91
5108.53
5105.79
5103.39
5100.74
5097.44
5095.96
5113.38
5110.11
5107.34
5105
5102.84
5100.32
5097.13
5095.45
5110.76
5108.37
5106.22
5104.24
5102.28
5099.94
5096.98
5095.4
5621.58
5623.51
5625.05
5626.43
5627.65
5628.73
5629.69
5630.56
5619.09
5621.92
5623.96
5625.72
5627.19
5628.41
5629.51
5630.49
5616.86
5620.91
5623.19
5625.25
5626.99
5628.46
5629.68
5630.71
5616.21
5620.47
5622.85
5624.97
5626.74
5628.25
5629.53
5630.62
5617.24
5621.03
5623.12
5625.04
5626.67
5628.07
5629.29
5630.32
5619.73
5622.46
5624.12
5625.7
5627.06
5628.22
5629.28
5630.27
5621.35
5623.18
5624.73
5626.16
5627.44
5628.59
5629.62
5630.55
5491.57
5494.32
5496.49
5498.22
5499.62
5500.77
5501.74
5502.55
5488.71
5492.65
5495.49
5497.63
5499.29
5500.62
5501.7
5502.6
5486.88
5491.55
5494.83
5497.25
5499.11
5500.57
5501.75
5502.71
5486.38
5491.2
5494.58
5497.08
5498.98
5500.46
5501.66
5502.63
5487.28
5491.69
5494.83
5497.17
5498.97
5500.39
5501.53
5502.49
5489.49
5493.05
5495.67
5497.69
5499.28
5500.56
5501.62
5502.53
5492.34
5494.84
5496.84
5498.45
5499.77
5500.86
5501.79
5502.59
5371.2
5372
5372.66
5373.23
5373.71
5374.13
5374.51
5374.9
5370.48
5371.61
5372.4
5373.05
5373.59
5374.04
5374.44
5374.84
5369.98
5371.41
5372.3
5372.99
5373.57
5374.06
5374.5
5374.94
5369.83
5371.22
5372.1
5372.78
5373.35
5373.83
5374.27
5374.7
5369.7
5370.96
5371.84
5372.56
5373.15
5373.64
5374.07
5374.51
5370.11
5371.1
5371.89
5372.55
5373.1
5373.56
5373.97
5374.39
5370.88
5371.63
5372.27
5372.81
5373.26
5373.65
5374.02
5374.4
5250.34
5248.95
5247.99
5247.39
5247.13
5247.27
5247.82
5248.78
5251.95
5249.91
5248.41
5247.48
5247.02
5247.04
5247.57
5248.58
5253.08
5250.74
5248.84
5247.61
5246.98
5246.91
5247.41
5248.44
5253.35
5250.73
5248.64
5247.31
5246.63
5246.54
5247.03
5248.06
5251.68
5249.44
5247.79
5246.76
5246.25
5246.26
5246.82
5247.9
5249.91
5248.23
5247.07
5246.35
5246.04
5246.18
5246.8
5247.92
5248.54
5247.48
5246.72
5246.25
5246.11
5246.34
5247
5248.08
5110.45
5107.97
5105.8
5103.84
5101.94
5099.67
5096.76
5095.19
5112.89
5109.55
5106.75
5104.42
5102.3
5099.86
5096.72
5094.9
5114.49
5110.56
5107.22
5104.53
5102.19
5099.6
5096.3
5094.45
5114.8
5110.62
5107.06
5104.25
5101.85
5099.22
5095.89
5094.16
5112.58
5108.96
5105.94
5103.43
5101.18
5098.63
5095.33
5093.52
5110.17
5107.31
5104.81
5102.62
5100.58
5098.19
5095.07
5093.32
5107.86
5105.66
5103.59
5101.66
5099.78
5097.5
5094.58
5093.05
5620.97
5622.91
5624.52
5625.92
5627.2
5628.35
5629.4
5630.33
5619.36
5622
5623.84
5625.48
5626.89
5628.09
5629.17
5630.16
5617.07
5621.21
5623.05
5624.99
5626.65
5628.06
5629.25
5630.26
5615.36
5620.31
5622.66
5624.83
5626.65
5628.22
5629.56
5630.7
5616.38
5620.77
5623.02
5625.05
5626.77
5628.25
5629.51
5630.57
5618.76
5621.87
5623.88
5625.59
5627.11
5628.44
5629.56
5630.52
5621.54
5623.55
5625.1
5626.44
5627.64
5628.72
5629.69
5630.57
5491.57
5494.19
5496.29
5497.97
5499.33
5500.47
5501.42
5502.23
5488.48
5492.26
5495.04
5497.16
5498.82
5500.15
5501.23
5502.13
5485.98
5490.77
5494.16
5496.67
5498.57
5500.06
5501.25
5502.22
5484.96
5490.24
5493.93
5496.62
5498.64
5500.22
5501.48
5502.5
5485.82
5490.79
5494.29
5496.86
5498.81
5500.33
5501.54
5502.53
5487.96
5492.09
5495.05
5497.28
5499
5500.37
5501.48
5502.4
5491.16
5493.97
5496.19
5497.97
5499.41
5500.6
5501.59
5502.42
5370.32
5371.18
5371.9
5372.5
5373
5373.43
5373.83
5374.23
5369.3
5370.52
5371.45
5372.21
5372.82
5373.32
5373.76
5374.19
5368.53
5370.27
5371.41
5372.28
5372.97
5373.52
5374
5374.46
5368.25
5370.46
5371.74
5372.64
5373.35
5373.94
5374.45
5374.93
5368.99
5370.84
5372
5372.84
5373.49
5374.03
5374.49
5374.92
5369.84
5371.2
5372.13
5372.87
5373.49
5374
5374.45
5374.87
5370.87
5371.75
5372.5
5373.14
5373.67
5374.11
5374.51
5374.88
5248.65
5247.56
5246.76
5246.23
5246.01
5246.15
5246.7
5247.65
5250.1
5248.36
5247.11
5246.3
5245.9
5245.91
5246.38
5247.3
5251.81
5249.76
5248.07
5246.95
5246.35
5246.25
5246.66
5247.53
5253.42
5251.28
5249.24
5247.83
5247.06
5246.87
5247.24
5248.09
5253.2
5251.14
5249.23
5247.9
5247.17
5246.98
5247.34
5248.18
5252.21
5250.21
5248.67
5247.69
5247.2
5247.16
5247.61
5248.54
5250.67
5249.27
5248.3
5247.7
5247.43
5247.54
5248.05
5248.95
5108.74
5106.47
5104.3
5102.28
5100.32
5098
5095.08
5093.56
5111.28
5108.16
5105.5
5103.2
5101.08
5098.64
5095.55
5094.02
5114.18
5110.31
5107.02
5104.38
5102.07
5099.48
5096.25
5094.85
5116.82
5112.43
5108.57
5105.52
5102.99
5100.3
5097
5095.64
5116.12
5112.09
5108.54
5105.69
5103.28
5100.65
5097.39
5095.89
5114.29
5110.81
5107.88
5105.46
5103.27
5100.78
5097.62
5095.83
5111.8
5109.26
5107.05
5105.08
5103.17
5100.89
5097.98
5096.38
5631.21
5631.23
5631.19
5631
5631.06
5631.05
5631
5503.28
5503.35
5503.33
5503.31
5503.25
5503.12
5503
5374.85
5374.84
5374.82
5374.81
5374.81
5374.84
5374.75
5249.24
5249.23
5249.21
5249.16
5249.09
5249.02
5248.95
5097.31
5097.32
5097.37
5097.45
5097.44
5097.48
5097.56
5631.37
5631.26
5631.46
5631.7
5631.22
5631.15
5631.41
5503.14
5503.15
5503.38
5503.54
5503.24
5503.21
5503.22
5375.33
5375.3
5375.52
5375.7
5375.32
5375.23
5375.31
5249.86
5249.5
5249.36
5249.34
5249.07
5249.32
5249.64
5100.69
5101.16
5102.58
5103.22
5102.03
5100.51
5099.77
5631.31
5631.3
5631.52
5631.49
5631.12
5631.1
5631.37
5503.24
5503.33
5503.45
5503.37
5503.23
5503.27
5503.29
5375.33
5375.26
5375.37
5375.13
5374.95
5374.82
5374.83
5249.79
5249.69
5249.57
5249.2
5249.1
5249.17
5249.28
5099.56
5099.6
5099.69
5099.83
5098.89
5098.22
5097.65
5631.12
5630.98
5631.06
5631.58
5631.41
5631.31
5631.33
5502.93
5502.85
5502.96
5503.27
5503.28
5503.13
5503.12
5374.67
5374.61
5374.88
5375.37
5375.32
5375.28
5375.3
5248.7
5248.33
5248.46
5248.97
5249.08
5249.56
5249.88
5098.08
5099.36
5101.1
5102.22
5101.88
5100.59
5100.58
5632.46
5633.75
5634.79
5635.64
5636.3
5636.8
5637.17
5637.42
5632.5
5633.82
5634.86
5635.68
5636.33
5636.81
5637.17
5637.41
5632.46
5633.81
5634.86
5635.67
5636.31
5636.79
5637.15
5637.39
5632.33
5633.68
5634.8
5635.67
5636.3
5636.77
5637.13
5637.38
5632.33
5633.69
5634.76
5635.59
5636.25
5636.75
5637.11
5637.36
5632.33
5633.67
5634.74
5635.57
5636.23
5636.73
5637.09
5637.35
5632.21
5633.52
5634.59
5635.45
5636.13
5636.65
5637.03
5637.3
5504.31
5505.32
5506.09
5506.69
5507.16
5507.53
5507.81
5508.01
5504.35
5505.36
5506.13
5506.73
5507.2
5507.56
5507.83
5508.03
5504.33
5505.35
5506.13
5506.73
5507.19
5507.55
5507.83
5508.02
5504.31
5505.34
5506.13
5506.73
5507.19
5507.54
5507.81
5508.01
5504.25
5505.27
5506.05
5506.66
5507.13
5507.5
5507.78
5507.98
5504.16
5505.2
5505.98
5506.59
5507.07
5507.45
5507.74
5507.94
5504.03
5505.06
5505.85
5506.47
5506.96
5507.35
5507.64
5507.86
5375.63
5376.59
5377.32
5377.84
5378.22
5378.49
5378.67
5378.8
5375.61
5376.61
5377.35
5377.88
5378.26
5378.52
5378.7
5378.82
5375.57
5376.59
5377.33
5377.87
5378.24
5378.51
5378.7
5378.82
5375.58
5376.58
5377.32
5377.85
5378.23
5378.5
5378.68
5378.8
5375.64
5376.59
5377.31
5377.82
5378.2
5378.46
5378.65
5378.77
5375.71
5376.59
5377.27
5377.77
5378.14
5378.4
5378.59
5378.72
5375.6
5376.48
5377.15
5377.65
5378.02
5378.29
5378.49
5378.62
5250.37
5250.07
5249.83
5249.69
5249.61
5249.59
5249.59
5249.6
5250.4
5250.07
5249.82
5249.69
5249.62
5249.6
5249.61
5249.62
5250.39
5250.04
5249.79
5249.66
5249.6
5249.58
5249.59
5249.6
5250.3
5249.98
5249.74
5249.62
5249.56
5249.56
5249.57
5249.59
5250.16
5249.86
5249.65
5249.54
5249.5
5249.5
5249.52
5249.55
5249.98
5249.73
5249.53
5249.44
5249.41
5249.43
5249.46
5249.49
5249.86
5249.6
5249.4
5249.31
5249.28
5249.3
5249.34
5249.38
5108.41
5114.77
5117.53
5118.87
5119.55
5119.9
5120.09
5120.18
5108.34
5114.72
5117.49
5118.84
5119.54
5119.9
5120.09
5120.18
5108.32
5114.69
5117.47
5118.82
5119.52
5119.88
5120.07
5120.17
5108.33
5114.68
5117.45
5118.8
5119.5
5119.86
5120.06
5120.16
5108.33
5114.66
5117.42
5118.77
5119.46
5119.83
5120.02
5120.12
5108.39
5114.68
5117.42
5118.75
5119.43
5119.79
5119.98
5120.08
5108.53
5114.74
5117.43
5118.71
5119.36
5119.7
5119.88
5119.98
5632.52
5633.82
5634.87
5635.7
5636.36
5636.87
5637.26
5637.54
5632.41
5633.68
5634.73
5635.54
5636.17
5636.66
5637.01
5637.26
5632.56
5633.77
5634.73
5635.47
5636.04
5636.5
5636.83
5637.05
5632.9
5634.14
5635.08
5635.79
5636.31
5636.72
5637.04
5637.26
5632.32
5633.54
5634.53
5635.3
5635.91
5636.4
5636.75
5637
5632.32
5633.63
5634.69
5635.52
5636.16
5636.66
5637.02
5637.27
5632.57
5633.86
5634.9
5635.72
5636.36
5636.86
5637.23
5637.5
5504.15
5505.17
5505.94
5506.54
5507.02
5507.4
5507.7
5507.92
5504.17
5505.19
5505.94
5506.52
5506.97
5507.32
5507.59
5507.78
5504.36
5505.32
5506.04
5506.57
5506.97
5507.26
5507.49
5507.65
5504.52
5505.5
5506.21
5506.75
5507.14
5507.43
5507.66
5507.84
5504.23
5505.21
5505.93
5506.47
5506.88
5507.19
5507.42
5507.59
5504.23
5505.23
5505.98
5506.56
5507
5507.34
5507.6
5507.8
5504.23
5505.24
5506.01
5506.6
5507.07
5507.44
5507.73
5507.94
5376.05
5376.78
5377.35
5377.78
5378.1
5378.34
5378.52
5378.64
5375.93
5376.58
5377.2
5377.65
5377.97
5378.22
5378.4
5378.53
5376.12
5376.75
5377.24
5377.62
5377.9
5378.11
5378.26
5378.37
5376.31
5376.97
5377.47
5377.85
5378.12
5378.31
5378.45
5378.55
5375.92
5376.56
5377.07
5377.45
5377.75
5377.98
5378.15
5378.28
5375.85
5376.59
5377.18
5377.62
5377.96
5378.21
5378.39
5378.52
5376.03
5376.78
5377.37
5377.82
5378.14
5378.38
5378.56
5378.68
5250.51
5250.07
5249.74
5249.54
5249.45
5249.41
5249.41
5249.42
5250.37
5250.12
5249.74
5249.5
5249.37
5249.31
5249.29
5249.3
5250.18
5250.08
5249.88
5249.72
5249.62
5249.53
5249.46
5249.4
5250.09
5249.97
5249.78
5249.62
5249.5
5249.41
5249.36
5249.33
5249.92
5249.82
5249.67
5249.56
5249.43
5249.36
5249.32
5249.26
5250.17
5249.92
5249.62
5249.43
5249.32
5249.28
5249.28
5249.29
5250.4
5250.04
5249.75
5249.58
5249.5
5249.46
5249.46
5249.47
5110.73
5116.06
5118.25
5119.24
5119.71
5119.93
5120.04
5120.09
5111.01
5116.13
5118.22
5119.14
5119.56
5119.77
5119.88
5119.93
5112.15
5116.82
5118.66
5119.44
5119.8
5120
5120.1
5120.13
5112.56
5116.93
5118.66
5119.42
5119.75
5119.88
5119.93
5119.94
5111.71
5116.49
5118.35
5119.1
5119.53
5119.76
5119.88
5119.92
5110.52
5115.8
5117.97
5118.95
5119.43
5119.68
5119.82
5119.88
5110.07
5115.65
5118
5119.09
5119.63
5119.9
5120.04
5120.11
5632.46
5633.74
5634.8
5635.65
5636.32
5636.83
5637.23
5637.51
5632.48
5633.75
5634.82
5635.64
5636.23
5636.68
5637.03
5637.29
5632.64
5633.86
5634.84
5635.6
5636.17
5636.6
5636.91
5637.13
5632.67
5633.92
5634.89
5635.62
5636.18
5636.6
5636.91
5637.14
5632.23
5633.47
5634.47
5635.27
5635.92
5636.39
5636.72
5636.96
5632.27
5633.6
5634.7
5635.53
5636.16
5636.62
5636.98
5637.24
5632.55
5633.83
5634.86
5635.67
5636.3
5636.78
5637.14
5637.4
5504.26
5505.27
5506.04
5506.63
5507.11
5507.48
5507.77
5507.99
5504.34
5505.35
5506.08
5506.63
5507.05
5507.39
5507.65
5507.86
5504.42
5505.4
5506.13
5506.68
5507.1
5507.41
5507.63
5507.78
5504.34
5505.3
5506.02
5506.56
5506.97
5507.29
5507.54
5507.72
5504.22
5505.2
5505.95
5506.51
5506.9
5507.21
5507.44
5507.6
5504.32
5505.26
5506.01
5506.58
5507.01
5507.35
5507.62
5507.82
5504.29
5505.29
5506.06
5506.65
5507.12
5507.48
5507.76
5507.96
5376.08
5376.86
5377.47
5377.92
5378.24
5378.48
5378.65
5378.77
5375.92
5376.74
5377.36
5377.82
5378.14
5378.37
5378.54
5378.65
5376.05
5376.83
5377.48
5377.96
5378.29
5378.51
5378.65
5378.73
5375.79
5376.56
5377.19
5377.65
5377.99
5378.23
5378.39
5378.5
5375.63
5376.43
5377.11
5377.62
5377.98
5378.22
5378.39
5378.5
5375.5
5376.44
5377.16
5377.68
5378.06
5378.32
5378.49
5378.61
5375.55
5376.55
5377.29
5377.82
5378.19
5378.46
5378.64
5378.76
5250.59
5250.2
5249.91
5249.72
5249.62
5249.57
5249.57
5249.57
5250.66
5250.31
5250
5249.79
5249.67
5249.6
5249.56
5249.53
5250.64
5250.48
5250.21
5249.99
5249.85
5249.77
5249.73
5249.73
5250.42
5250.36
5250.17
5249.99
5249.85
5249.73
5249.64
5249.56
5250.26
5250.19
5249.95
5249.78
5249.66
5249.59
5249.55
5249.53
5250.3
5250.09
5249.85
5249.69
5249.59
5249.54
5249.51
5249.5
5250.43
5250.11
5249.86
5249.7
5249.62
5249.59
5249.58
5249.59
5109.97
5115.67
5118.06
5119.17
5119.72
5119.99
5120.13
5120.19
5109.96
5115.68
5118.09
5119.22
5119.77
5120.04
5120.18
5120.23
5110.02
5115.73
5118.14
5119.28
5119.84
5120.13
5120.29
5120.37
5110.07
5115.77
5118.21
5119.35
5119.91
5120.19
5120.32
5120.35
5109.48
5115.38
5117.9
5119.1
5119.7
5120.01
5120.17
5120.24
5109.02
5115.11
5117.73
5118.99
5119.61
5119.93
5120.09
5120.16
5108.65
5114.91
5117.61
5118.92
5119.58
5119.92
5120.1
5120.18
5632.31
5633.57
5634.59
5635.4
5636.04
5636.53
5636.91
5637.18
5632.15
5633.39
5634.38
5635.17
5635.79
5636.27
5636.63
5636.9
5632.18
5633.38
5634.36
5635.14
5635.75
5636.21
5636.55
5636.79
5632.74
5633.95
5634.88
5635.6
5636.14
5636.56
5636.87
5637.11
5632.55
5633.75
5634.69
5635.43
5635.99
5636.42
5636.73
5636.96
5632.47
5633.71
5634.71
5635.49
5636.09
5636.56
5636.92
5637.18
5632.48
5633.76
5634.81
5635.64
5636.3
5636.81
5637.21
5637.5
5503.93
5504.95
5505.73
5506.33
5506.81
5507.19
5507.49
5507.71
5503.86
5504.87
5505.63
5506.17
5506.62
5506.99
5507.27
5507.49
5503.95
5504.93
5505.66
5506.2
5506.62
5506.95
5507.2
5507.38
5504.27
5505.26
5505.99
5506.54
5506.96
5507.28
5507.52
5507.71
5504.26
5505.23
5505.93
5506.46
5506.86
5507.16
5507.39
5507.57
5504.14
5505.16
5505.89
5506.45
5506.89
5507.25
5507.52
5507.73
5504.13
5505.14
5505.91
5506.51
5506.98
5507.37
5507.66
5507.89
5375.4
5376.26
5376.92
5377.42
5377.79
5378.08
5378.29
5378.45
5375.27
5376
5376.62
5377.12
5377.5
5377.78
5378.02
5378.19
5375.53
5376.23
5376.78
5377.2
5377.52
5377.75
5377.92
5378.05
5376.02
5376.72
5377.26
5377.66
5377.95
5378.16
5378.32
5378.43
5375.93
5376.59
5377.12
5377.51
5377.8
5378.02
5378.18
5378.29
5375.92
5376.65
5377.23
5377.65
5377.97
5378.2
5378.37
5378.5
5376.04
5376.78
5377.34
5377.77
5378.08
5378.31
5378.49
5378.62
5249.66
5249.38
5249.19
5249.1
5249.08
5249.1
5249.16
5249.21
5249.37
5249.33
5249.15
5249.03
5248.95
5248.91
5248.93
5248.97
5249.41
5249.42
5249.29
5249.16
5249.07
5249.01
5248.99
5248.99
5249.83
5249.78
5249.62
5249.47
5249.36
5249.29
5249.25
5249.23
5249.98
5249.92
5249.77
5249.62
5249.5
5249.41
5249.36
5249.32
5250.35
5249.97
5249.66
5249.46
5249.35
5249.29
5249.27
5249.27
5250.51
5250.04
5249.71
5249.52
5249.42
5249.39
5249.39
5249.4
5108.86
5114.86
5117.43
5118.64
5119.24
5119.56
5119.74
5119.85
5109.77
5115.38
5117.71
5118.75
5119.2
5119.39
5119.5
5119.58
5111.12
5116.22
5118.27
5119.08
5119.41
5119.54
5119.61
5119.66
5111.96
5116.75
5118.64
5119.39
5119.67
5119.8
5119.85
5119.86
5111.7
5116.62
5118.58
5119.42
5119.78
5119.92
5119.99
5120.03
5110.64
5115.97
5118.16
5119.14
5119.58
5119.77
5119.86
5119.9
5110.67
5116.03
5118.24
5119.24
5119.7
5119.92
5120.03
5120.07
5637.56
5637.63
5637.69
5637.72
5637.74
5637.76
5637.77
5637.77
5637.55
5637.62
5637.68
5637.71
5637.73
5637.75
5637.76
5637.77
5637.53
5637.6
5637.66
5637.69
5637.72
5637.73
5637.74
5637.75
5637.51
5637.59
5637.64
5637.68
5637.7
5637.72
5637.73
5637.74
5637.5
5637.57
5637.63
5637.67
5637.69
5637.7
5637.71
5637.72
5637.48
5637.56
5637.62
5637.65
5637.67
5637.69
5637.7
5637.71
5637.44
5637.52
5637.58
5637.61
5637.64
5637.65
5637.66
5637.67
5508.12
5508.19
5508.24
5508.28
5508.31
5508.32
5508.33
5508.33
5508.13
5508.2
5508.25
5508.29
5508.31
5508.33
5508.34
5508.34
5508.12
5508.19
5508.24
5508.28
5508.3
5508.32
5508.32
5508.33
5508.11
5508.18
5508.23
5508.27
5508.29
5508.31
5508.31
5508.31
5508.09
5508.16
5508.21
5508.25
5508.27
5508.29
5508.29
5508.3
5508.05
5508.13
5508.18
5508.22
5508.24
5508.26
5508.27
5508.27
5507.98
5508.06
5508.12
5508.16
5508.19
5508.21
5508.21
5508.22
5378.87
5378.91
5378.95
5378.97
5378.99
5379
5379.01
5379.01
5378.89
5378.94
5378.97
5378.99
5379.01
5379.02
5379.02
5379.02
5378.88
5378.93
5378.96
5378.98
5379
5379.01
5379.02
5379.02
5378.87
5378.92
5378.95
5378.97
5378.99
5379
5379.01
5379.01
5378.84
5378.89
5378.92
5378.95
5378.97
5378.98
5378.98
5378.98
5378.8
5378.85
5378.88
5378.91
5378.93
5378.94
5378.95
5378.95
5378.71
5378.76
5378.8
5378.84
5378.86
5378.87
5378.88
5378.89
5249.61
5249.62
5249.63
5249.64
5249.64
5249.65
5249.65
5249.64
5249.63
5249.64
5249.66
5249.66
5249.67
5249.67
5249.67
5249.67
5249.62
5249.63
5249.64
5249.65
5249.66
5249.66
5249.66
5249.66
5249.61
5249.62
5249.64
5249.65
5249.65
5249.66
5249.66
5249.65
5249.57
5249.59
5249.6
5249.61
5249.62
5249.63
5249.63
5249.62
5249.52
5249.54
5249.56
5249.57
5249.58
5249.59
5249.59
5249.59
5249.41
5249.44
5249.46
5249.48
5249.49
5249.5
5249.5
5249.5
5120.21
5120.24
5120.25
5120.26
5120.27
5120.27
5120.27
5120.27
5120.22
5120.25
5120.27
5120.28
5120.29
5120.29
5120.29
5120.28
5120.21
5120.24
5120.26
5120.27
5120.28
5120.28
5120.28
5120.27
5120.2
5120.23
5120.25
5120.26
5120.27
5120.27
5120.27
5120.27
5120.16
5120.19
5120.21
5120.23
5120.24
5120.24
5120.24
5120.24
5120.12
5120.15
5120.17
5120.19
5120.2
5120.2
5120.21
5120.2
5120.03
5120.06
5120.08
5120.1
5120.11
5120.11
5120.12
5120.12
5637.7
5637.79
5637.85
5637.88
5637.89
5637.89
5637.89
5637.89
5637.41
5637.5
5637.56
5637.6
5637.63
5637.65
5637.66
5637.68
5637.19
5637.27
5637.34
5637.39
5637.43
5637.46
5637.49
5637.52
5637.4
5637.49
5637.57
5637.62
5637.67
5637.7
5637.72
5637.76
5637.14
5637.23
5637.3
5637.35
5637.4
5637.43
5637.46
5637.49
5637.41
5637.49
5637.55
5637.59
5637.62
5637.64
5637.65
5637.67
5637.65
5637.74
5637.79
5637.83
5637.84
5637.84
5637.84
5637.85
5508.05
5508.13
5508.2
5508.24
5508.28
5508.3
5508.31
5508.31
5507.91
5507.98
5508.04
5508.09
5508.12
5508.15
5508.16
5508.17
5507.74
5507.8
5507.85
5507.9
5507.93
5507.96
5507.98
5508.01
5507.94
5508.01
5508.07
5508.11
5508.15
5508.17
5508.2
5508.22
5507.69
5507.75
5507.8
5507.85
5507.88
5507.92
5507.94
5507.97
5507.91
5507.99
5508.05
5508.09
5508.12
5508.14
5508.16
5508.17
5508.06
5508.14
5508.2
5508.24
5508.27
5508.29
5508.31
5508.31
5378.72
5378.77
5378.82
5378.85
5378.87
5378.89
5378.9
5378.9
5378.61
5378.67
5378.71
5378.75
5378.78
5378.8
5378.82
5378.82
5378.43
5378.46
5378.49
5378.51
5378.53
5378.54
5378.55
5378.56
5378.62
5378.66
5378.69
5378.72
5378.75
5378.76
5378.77
5378.78
5378.35
5378.4
5378.43
5378.46
5378.48
5378.49
5378.5
5378.51
5378.6
5378.66
5378.7
5378.74
5378.77
5378.79
5378.81
5378.81
5378.76
5378.8
5378.84
5378.87
5378.89
5378.91
5378.92
5378.92
5249.44
5249.45
5249.47
5249.48
5249.49
5249.49
5249.5
5249.5
5249.32
5249.34
5249.35
5249.37
5249.38
5249.39
5249.4
5249.4
5249.36
5249.33
5249.31
5249.29
5249.28
5249.27
5249.26
5249.26
5249.32
5249.33
5249.33
5249.34
5249.35
5249.35
5249.35
5249.36
5249.24
5249.22
5249.21
5249.2
5249.2
5249.19
5249.19
5249.19
5249.31
5249.32
5249.34
5249.35
5249.37
5249.37
5249.38
5249.38
5249.48
5249.5
5249.51
5249.52
5249.52
5249.53
5249.53
5249.53
5120.1
5120.12
5120.12
5120.13
5120.13
5120.13
5120.13
5120.13
5119.95
5119.96
5119.97
5119.98
5119.99
5120
5120
5120
5120.12
5120.11
5120.09
5120.07
5120.05
5120.03
5120.02
5120.01
5119.93
5119.94
5119.94
5119.95
5119.95
5119.96
5119.96
5119.96
5119.94
5119.94
5119.94
5119.93
5119.92
5119.91
5119.9
5119.9
5119.91
5119.93
5119.95
5119.96
5119.97
5119.98
5119.98
5119.98
5120.13
5120.15
5120.16
5120.16
5120.17
5120.17
5120.17
5120.17
5637.66
5637.75
5637.81
5637.85
5637.86
5637.87
5637.87
5637.87
5637.45
5637.54
5637.61
5637.66
5637.69
5637.7
5637.71
5637.72
5637.26
5637.34
5637.4
5637.45
5637.48
5637.51
5637.53
5637.56
5637.28
5637.38
5637.45
5637.51
5637.55
5637.59
5637.61
5637.64
5637.11
5637.2
5637.28
5637.34
5637.38
5637.42
5637.44
5637.47
5637.39
5637.48
5637.54
5637.59
5637.61
5637.63
5637.65
5637.66
5637.54
5637.63
5637.68
5637.72
5637.74
5637.75
5637.76
5637.77
5508.11
5508.19
5508.25
5508.29
5508.32
5508.34
5508.35
5508.35
5507.97
5508.05
5508.12
5508.16
5508.2
5508.22
5508.24
5508.24
5507.87
5507.93
5507.98
5508.02
5508.05
5508.07
5508.09
5508.1
5507.84
5507.91
5507.96
5508.01
5508.05
5508.08
5508.1
5508.13
5507.7
5507.76
5507.82
5507.87
5507.91
5507.94
5507.96
5507.98
5507.93
5508.01
5508.07
5508.11
5508.15
5508.17
5508.19
5508.2
5508.08
5508.15
5508.21
5508.25
5508.28
5508.3
5508.31
5508.31
5378.84
5378.89
5378.93
5378.96
5378.98
5378.99
5379
5379
5378.7
5378.74
5378.77
5378.79
5378.81
5378.83
5378.84
5378.84
5378.77
5378.8
5378.81
5378.82
5378.82
5378.83
5378.82
5378.82
5378.56
5378.6
5378.63
5378.66
5378.68
5378.7
5378.72
5378.73
5378.56
5378.6
5378.63
5378.66
5378.67
5378.68
5378.69
5378.69
5378.67
5378.71
5378.75
5378.77
5378.79
5378.81
5378.82
5378.82
5378.83
5378.88
5378.92
5378.94
5378.96
5378.97
5378.98
5378.98
5249.58
5249.59
5249.6
5249.61
5249.62
5249.62
5249.62
5249.62
5249.51
5249.51
5249.5
5249.49
5249.48
5249.48
5249.47
5249.46
5249.72
5249.73
5249.72
5249.72
5249.71
5249.69
5249.68
5249.67
5249.5
5249.47
5249.45
5249.43
5249.41
5249.4
5249.4
5249.4
5249.53
5249.53
5249.52
5249.52
5249.5
5249.49
5249.49
5249.48
5249.49
5249.49
5249.49
5249.49
5249.49
5249.49
5249.49
5249.48
5249.6
5249.61
5249.62
5249.62
5249.63
5249.63
5249.63
5249.63
5120.22
5120.24
5120.25
5120.25
5120.26
5120.26
5120.26
5120.26
5120.24
5120.24
5120.24
5120.23
5120.22
5120.22
5120.21
5120.2
5120.4
5120.42
5120.44
5120.45
5120.45
5120.45
5120.45
5120.44
5120.33
5120.31
5120.28
5120.25
5120.23
5120.2
5120.19
5120.18
5120.27
5120.28
5120.28
5120.27
5120.26
5120.25
5120.24
5120.24
5120.18
5120.2
5120.2
5120.2
5120.2
5120.19
5120.19
5120.19
5120.22
5120.24
5120.25
5120.26
5120.27
5120.27
5120.27
5120.26
5637.33
5637.43
5637.49
5637.53
5637.55
5637.57
5637.58
5637.59
5637.05
5637.15
5637.22
5637.27
5637.31
5637.34
5637.36
5637.39
5636.94
5637.04
5637.11
5637.17
5637.21
5637.25
5637.28
5637.31
5637.26
5637.35
5637.42
5637.48
5637.53
5637.56
5637.57
5637.61
5637.09
5637.18
5637.24
5637.29
5637.33
5637.36
5637.39
5637.42
5637.34
5637.43
5637.5
5637.55
5637.57
5637.59
5637.61
5637.63
5637.66
5637.75
5637.81
5637.84
5637.86
5637.86
5637.85
5637.86
5507.85
5507.93
5508
5508.04
5508.08
5508.1
5508.11
5508.12
5507.62
5507.7
5507.77
5507.82
5507.86
5507.89
5507.91
5507.93
5507.49
5507.57
5507.62
5507.67
5507.71
5507.75
5507.77
5507.8
5507.82
5507.89
5507.94
5507.99
5508.02
5508.05
5508.07
5508.09
5507.67
5507.73
5507.78
5507.82
5507.85
5507.88
5507.9
5507.92
5507.85
5507.93
5508
5508.05
5508.08
5508.1
5508.12
5508.13
5508.02
5508.11
5508.17
5508.22
5508.25
5508.28
5508.29
5508.29
5378.54
5378.61
5378.66
5378.7
5378.72
5378.75
5378.76
5378.76
5378.29
5378.36
5378.42
5378.46
5378.5
5378.52
5378.54
5378.55
5378.12
5378.17
5378.21
5378.24
5378.27
5378.29
5378.3
5378.32
5378.49
5378.53
5378.57
5378.6
5378.62
5378.64
5378.65
5378.66
5378.35
5378.39
5378.42
5378.45
5378.46
5378.48
5378.48
5378.49
5378.57
5378.63
5378.67
5378.71
5378.73
5378.75
5378.77
5378.77
5378.7
5378.76
5378.8
5378.83
5378.86
5378.88
5378.89
5378.89
5249.26
5249.29
5249.32
5249.34
5249.36
5249.37
5249.38
5249.38
5249.01
5249.04
5249.07
5249.09
5249.11
5249.13
5249.14
5249.14
5248.98
5248.98
5248.98
5248.98
5248.98
5248.98
5248.98
5248.98
5249.22
5249.22
5249.22
5249.23
5249.23
5249.24
5249.24
5249.24
5249.29
5249.28
5249.26
5249.25
5249.24
5249.23
5249.22
5249.21
5249.29
5249.3
5249.32
5249.33
5249.35
5249.36
5249.36
5249.36
5249.42
5249.44
5249.45
5249.47
5249.48
5249.48
5249.49
5249.49
5119.9
5119.94
5119.97
5119.99
5120
5120.01
5120.01
5120.01
5119.63
5119.66
5119.69