/*--------------------------------*- C++ -*----------------------------------*\
| =========                 |                                                 |
| \\      /  F ield         | OpenFOAM: The Open Source CFD Toolbox           |
|  \\    /   O peration     | Version:  plus.master.MPPICInterFoam            |
|   \\  /    A nd           | Web:      www.OpenFOAM.com                      |
|    \\/     M anipulation  |                                                 |
\*---------------------------------------------------------------------------*/
FoamFile
{
    version     2.0;
    format      ascii;
    class       volScalarField;
    location    "8.6";
    object      p_rgh;
}
// * * * * * * * * * * * * * * * * * * * * * * * * * * * * * * * * * * * * * //

dimensions      [1 -1 -2 0 0 0 0];

internalField   nonuniform List<scalar> 
11821
(
5683.78
5681.04
5676.21
5674.44
5676.6
5680.56
5682.89
5681.69
5650.17
5648.22
5643.97
5643.58
5652.67
5679.83
5677.05
5641.94
5609.41
5605.19
5610.26
5651.35
5675.73
5674.96
5644.91
5605.64
5602.25
5605.7
5646.63
5673.93
5676.52
5644.85
5609.24
5605.06
5609.75
5651.33
5675.28
5681.06
5650.08
5645
5641.86
5638.4
5652.18
5679.66
5683.44
5680.33
5675.4
5673.01
5675.19
5680.2
5682.47
5681.56
5676.49
5673.26
5672.5
5674.18
5678.17
5682.9
5676.02
5635.54
5639.97
5625.6
5632.36
5660.58
5678.64
5671.88
5595.35
5490.18
5488.3
5503.77
5660.56
5675.62
5671.48
5628.61
5490.31
5485.98
5495.31
5653.7
5674.38
5672.12
5608.69
5489.11
5486.51
5496.96
5657.65
5674.98
5675.64
5618.55
5619.46
5608.54
5605.84
5660.46
5677.63
5681.03
5675.57
5671.87
5670.53
5672.16
5676.71
5681.96
5693.75
5692.1
5690.9
5690.39
5691.07
5692.27
5693.62
5691.75
5687.58
5663.07
5624.53
5679.54
5689.92
5692.45
5690.13
5629.03
5399.15
5382.34
5468.58
5685.98
5691.82
5689.61
5628.3
5384.22
5379.84
5406.99
5673.33
5691.16
5690.01
5632.87
5390.23
5378.22
5427.15
5679.55
5691.32
5691.28
5679.75
5637.26
5575.67
5648.03
5688.33
5691.79
5693.26
5691.05
5689.11
5687.91
5688.99
5690.99
5692.97
5705.88
5707.76
5708.85
5709.56
5707.66
5705.55
5703.44
5707.73
5709.4
5695.71
5640.93
5709.57
5707.72
5705.31
5709.1
5674.24
5363.76
5291.92
5551.48
5709.75
5707.06
5710.11
5632.47
5289.65
5283.16
5383.86
5707.04
5707.7
5709.23
5667.26
5331.4
5281.08
5454.84
5708.87
5707.38
5707.87
5708.93
5664.92
5563.63
5695.71
5707.6
5705.64
5706.22
5707.78
5708.49
5709.14
5707.22
5705.69
5703.72
5696.81
5699.91
5701.76
5702.47
5699.69
5696.59
5693.24
5700.22
5703.56
5702.14
5661.68
5703.75
5700.25
5696.22
5702.8
5690.66
5370.7
5215.31
5635.83
5703.52
5698.84
5705.04
5625.17
5179.1
5157.3
5451.6
5704.32
5699.96
5703.43
5683.83
5302.59
5160.55
5541.18
5704.85
5699.71
5701.32
5704.77
5681.1
5578.29
5704.25
5701.64
5697.36
5698.22
5701.41
5703.4
5704.85
5701.47
5698.04
5694.34
5685.48
5687.71
5689.5
5690.91
5692.14
5693.25
5694.24
5695.14
5683.32
5686.82
5688.6
5690.23
5691.68
5692.98
5694.1
5695.09
5680.19
5685.17
5687.63
5689.49
5691.15
5692.64
5693.92
5695.03
5679.62
5684.82
5687.25
5689.18
5690.91
5692.49
5693.78
5694.83
5679.97
5684.88
5687.38
5689.32
5691.01
5692.51
5693.79
5694.9
5682.51
5686.07
5688.22
5689.88
5691.4
5692.73
5693.87
5694.88
5685.18
5687.5
5689.16
5690.62
5691.9
5693.04
5694.05
5694.95
5686.59
5689.07
5691.06
5692.68
5694
5695.1
5696.03
5696.83
5684.01
5687.45
5690.02
5692.01
5693.59
5694.88
5695.94
5696.85
5682.17
5686.24
5689.23
5691.49
5693.26
5694.68
5695.83
5696.8
5681.42
5685.75
5688.88
5691.25
5693.09
5694.57
5695.76
5696.76
5681.79
5685.97
5688.99
5691.29
5693.09
5694.54
5695.71
5696.7
5683.32
5686.92
5689.58
5691.64
5693.28
5694.61
5695.7
5696.62
5685.88
5688.47
5690.56
5692.24
5693.62
5694.76
5695.72
5696.54
5694.57
5695.28
5695.92
5696.46
5696.92
5697.33
5697.71
5698.12
5693.89
5694.8
5695.57
5696.22
5696.76
5697.22
5697.65
5698.09
5693.57
5694.56
5695.36
5696.05
5696.63
5697.13
5697.59
5698.06
5693.34
5694.45
5695.26
5695.97
5696.58
5697.1
5697.57
5698.05
5693.35
5694.42
5695.23
5695.94
5696.56
5697.08
5697.56
5698.04
5693.51
5694.5
5695.31
5696
5696.59
5697.1
5697.57
5698.05
5694.09
5694.88
5695.58
5696.19
5696.7
5697.15
5697.57
5697.99
5701.64
5700.51
5699.75
5699.31
5699.19
5699.46
5700.15
5701.26
5702.93
5701.26
5700.13
5699.44
5699.16
5699.34
5700.02
5701.19
5704.16
5701.99
5700.52
5699.62
5699.2
5699.29
5699.94
5701.13
5704.81
5702.42
5700.77
5699.76
5699.28
5699.32
5699.93
5701.1
5704.47
5702.21
5700.66
5699.72
5699.27
5699.33
5699.94
5701.08
5703.22
5701.47
5700.28
5699.56
5699.23
5699.35
5699.98
5701.08
5701.79
5700.59
5699.8
5699.31
5699.16
5699.39
5700.03
5701.07
5690.35
5688.05
5685.99
5684.08
5682.22
5679.94
5677.01
5675.45
5692.56
5689.62
5687.09
5684.86
5682.78
5680.35
5677.16
5675.27
5694.37
5690.88
5688
5685.53
5683.28
5680.7
5677.32
5675.2
5695.35
5691.59
5688.53
5685.96
5683.63
5680.98
5677.52
5675.3
5695.01
5691.34
5688.35
5685.84
5683.55
5680.95
5677.55
5675.38
5693.38
5690.24
5687.6
5685.31
5683.2
5680.76
5677.56
5675.6
5691.04
5688.57
5686.43
5684.48
5682.61
5680.36
5677.48
5675.87
5686.35
5688.22
5689.78
5691.15
5692.38
5693.47
5694.46
5695.35
5684.37
5686.95
5688.82
5690.48
5691.91
5693.1
5694.17
5695.18
5682.15
5685.84
5688.02
5689.98
5691.65
5693.08
5694.34
5695.41
5681.3
5685.31
5687.71
5689.84
5691.65
5693.14
5694.43
5695.55
5682.24
5685.62
5687.92
5689.87
5691.52
5692.87
5694.02
5695.11
5684.43
5686.71
5688.68
5690.36
5691.84
5693.08
5694.12
5695.06
5686.38
5688.21
5689.78
5691.16
5692.39
5693.48
5694.47
5695.36
5685.38
5688.19
5690.43
5692.22
5693.66
5694.85
5695.84
5696.67
5682.27
5686.34
5689.29
5691.52
5693.25
5694.62
5695.73
5696.66
5680.32
5685.22
5688.68
5691.24
5693.17
5694.68
5695.89
5696.88
5679.72
5684.84
5688.48
5691.15
5693.18
5694.76
5696.01
5697.02
5680.26
5685.16
5688.6
5691.14
5693.07
5694.56
5695.76
5696.73
5682.51
5686.5
5689.4
5691.59
5693.31
5694.67
5695.78
5696.71
5685.71
5688.47
5690.65
5692.39
5693.8
5694.96
5695.93
5696.76
5694.64
5695.53
5696.28
5696.92
5697.44
5697.86
5698.26
5698.65
5693.7
5695
5695.93
5696.68
5697.29
5697.79
5698.18
5698.19
5693.4
5695
5696.07
5696.86
5697.49
5698.01
5698.45
5698.84
5693.13
5694.96
5696.1
5696.91
5697.56
5698.1
5698.56
5699.01
5693.42
5694.92
5695.92
5696.69
5697.31
5697.81
5698.24
5698.66
5693.94
5695.11
5695.97
5696.68
5697.25
5697.73
5698.15
5698.56
5694.88
5695.68
5696.37
5696.95
5697.44
5697.86
5698.23
5698.61
5703.97
5702.55
5701.57
5700.97
5700.66
5700.76
5701.28
5702.15
5705.47
5703.49
5701.55
5699.59
5699.11
5699.1
5700.68
5701.76
5706.86
5704.66
5702.7
5701.44
5700.77
5700.58
5700.92
5701.73
5707.57
5705.33
5703.27
5701.81
5700.97
5700.7
5700.98
5701.74
5706.63
5704.39
5702.52
5701.24
5700.52
5700.05
5699.47
5700.35
5705.19
5703.22
5701.76
5700.82
5700.06
5699.04
5699.47
5700.35
5703.61
5702.25
5701.31
5700.71
5700.43
5700.52
5701.01
5701.9
5694.61
5692.08
5689.87
5687.86
5685.94
5683.63
5680.72
5679.13
5697.05
5693.44
5689
5686.49
5684.99
5683.55
5680.3
5678.83
5699.04
5695.11
5691.66
5688.67
5684.25
5680.98
5679.12
5679.11
5700.24
5696.04
5692.24
5689.12
5686.57
5683.73
5680.23
5678.84
5698.48
5694.62
5691.22
5688.41
5685.86
5682.75
5679.56
5678.66
5696.1
5692.83
5689.99
5686.45
5683.91
5681.4
5678.96
5678.17
5693.48
5691.06
5688.84
5686.86
5684.92
5682.56
5679.67
5678.11
5686.32
5688.26
5689.8
5691.17
5692.4
5693.47
5694.44
5695.3
5683.84
5686.66
5688.71
5690.46
5691.93
5693.16
5694.25
5695.23
5681.6
5685.66
5687.93
5690
5691.74
5693.21
5694.43
5695.45
5680.96
5685.21
5687.6
5689.72
5691.48
5692.99
5694.28
5695.37
5681.99
5685.77
5687.87
5689.78
5691.41
5692.82
5694.04
5695.06
5684.47
5687.2
5688.86
5690.44
5691.81
5692.96
5694.03
5695.01
5686.09
5687.92
5689.48
5690.91
5692.18
5693.33
5694.37
5695.3
5685.81
5688.56
5690.72
5692.46
5693.86
5695.01
5695.97
5696.79
5682.95
5686.89
5689.73
5691.86
5693.53
5694.85
5695.94
5696.84
5681.12
5685.79
5689.07
5691.49
5693.35
5694.81
5695.99
5696.95
5680.62
5685.43
5688.82
5691.32
5693.21
5694.7
5695.89
5696.87
5681.52
5685.93
5689.07
5691.41
5693.21
5694.62
5695.77
5696.72
5683.73
5687.29
5689.91
5691.93
5693.52
5694.8
5695.86
5696.76
5686.58
5689.08
5691.07
5692.69
5694
5695.1
5696.03
5696.83
5694.93
5695.73
5696.39
5696.96
5697.44
5697.86
5698.24
5698.63
5694.21
5695.34
5696.13
5696.78
5697.32
5697.77
5698.17
5698.57
5693.71
5695.14
5696.03
5696.72
5697.3
5697.79
5698.23
5698.67
5693.56
5694.95
5695.83
5696.51
5697.08
5697.56
5698
5698.43
5693.43
5694.69
5695.57
5696.29
5696.88
5697.37
5697.8
5698.24
5693.84
5694.83
5695.62
5696.28
5696.83
5697.29
5697.7
5698.12
5694.61
5695.36
5696
5696.54
5696.99
5697.38
5697.75
5698.13
5703.56
5702.18
5701.21
5700.61
5700.36
5700.49
5701.05
5702
5705.17
5703.14
5701.63
5700.7
5700.24
5700.26
5700.79
5701.8
5706.3
5703.96
5702.06
5700.83
5700.2
5700.13
5700.63
5701.66
5706.57
5703.95
5701.87
5700.53
5699.86
5699.76
5700.25
5701.28
5704.9
5702.67
5701.02
5699.98
5699.48
5699.48
5700.04
5701.13
5703.13
5701.46
5700.29
5699.57
5699.26
5699.4
5700.02
5701.14
5701.77
5700.7
5699.94
5699.47
5699.33
5699.56
5700.23
5701.3
5693.16
5690.69
5688.51
5686.55
5684.66
5682.38
5679.48
5677.9
5695.61
5692.26
5689.47
5687.13
5685.01
5682.58
5679.43
5677.61
5697.2
5693.27
5689.93
5687.24
5684.9
5682.3
5679
5677.15
5697.52
5693.33
5689.77
5686.94
5684.37
5681.7
5678.54
5676.87
5695.29
5691.68
5688.65
5686.15
5683.77
5681.12
5678.05
5676.23
5692.89
5690.02
5687.53
5685.33
5683.27
5680.89
5677.78
5676.04
5690.57
5688.37
5686.3
5684.38
5682.5
5680.21
5677.29
5675.76
5685.72
5687.66
5689.26
5690.67
5691.94
5693.09
5694.15
5695.07
5684.1
5686.74
5688.58
5690.23
5691.64
5692.83
5693.92
5694.9
5681.82
5685.96
5687.8
5689.73
5691.4
5692.81
5694
5695.01
5680.1
5685.05
5687.4
5689.57
5691.4
5692.97
5694.3
5695.44
5681.12
5685.51
5687.77
5689.8
5691.52
5693
5694.25
5695.32
5683.5
5686.61
5688.63
5690.33
5691.85
5693.18
5694.3
5695.26
5686.29
5688.3
5689.84
5691.18
5692.39
5693.47
5694.44
5695.31
5685.81
5688.43
5690.52
5692.2
5693.57
5694.7
5695.66
5696.47
5682.72
5686.5
5689.28
5691.4
5693.06
5694.38
5695.46
5696.37
5680.22
5685
5688.4
5690.91
5692.81
5694.3
5695.49
5696.46
5679.2
5684.48
5688.17
5690.86
5692.88
5694.46
5695.72
5696.74
5680.06
5685.03
5688.52
5691.1
5693.05
5694.57
5695.78
5696.77
5682.2
5686.32
5689.29
5691.51
5693.24
5694.6
5695.72
5696.64
5685.4
5688.21
5690.43
5692.21
5693.65
5694.83
5695.83
5696.66
5694.05
5694.91
5695.63
5696.23
5696.73
5697.16
5697.56
5697.96
5693.03
5694.25
5695.18
5695.94
5696.55
5697.05
5697.49
5697.92
5692.26
5694
5695.14
5696.01
5696.7
5697.25
5697.73
5698.19
5691.98
5694.19
5695.47
5696.37
5697.08
5697.67
5698.18
5698.66
5692.72
5694.57
5695.73
5696.57
5697.22
5697.76
5698.22
5698.65
5693.57
5694.93
5695.86
5696.6
5697.22
5697.73
5698.18
5698.6
5694.6
5695.48
5696.23
5696.87
5697.4
5697.84
5698.24
5698.61
5701.87
5700.78
5699.98
5699.45
5699.23
5699.37
5699.92
5700.81
5703.32
5701.58
5700.33
5699.53
5699.12
5699.13
5699.6
5700.52
5705.03
5702.98
5701.29
5700.17
5699.57
5699.47
5699.88
5700.75
5706.64
5704.5
5702.46
5701.05
5700.28
5700.09
5700.46
5701.31
5706.42
5704.36
5702.45
5701.12
5700.39
5700.2
5700.56
5701.4
5705.43
5703.43
5701.89
5700.91
5700.42
5700.38
5700.83
5701.76
5703.89
5702.49
5701.52
5700.92
5700.65
5700.76
5701.27
5702.16
5691.45
5689.18
5687.02
5685
5683.04
5680.72
5677.59
5675.61
5693.99
5690.88
5688.22
5685.92
5683.8
5681.36
5678.26
5675.98
5696.9
5693
5689.69
5687.09
5684.78
5681.75
5677.69
5675.98
5699.54
5695.14
5691.23
5688.21
5685.71
5683.01
5679.71
5678.33
5698.83
5694.8
5691.25
5688.41
5685.99
5683.27
5677.76
5675.29
5697.01
5693.5
5690.55
5688.17
5685.99
5683.17
5679.74
5678.34
5694.51
5691.97
5689.76
5687.79
5685.88
5683.6
5680.7
5679.09
5695.96
5695.98
5695.94
5695.75
5695.81
5695.8
5695.75
5697.52
5697.59
5697.57
5697.55
5697.49
5697.36
5697.24
5698.58
5698.57
5698.55
5698.54
5698.54
5698.57
5698.48
5702.46
5702.45
5702.43
5702.39
5702.31
5702.24
5702.17
5680.03
5680.03
5680.08
5680.17
5680.16
5680.19
5680.28
5696.11
5696
5696.2
5696.44
5695.97
5695.9
5696.16
5697.38
5697.39
5697.62
5697.78
5697.48
5697.45
5697.45
5699.06
5698.59
5699.18
5699.43
5699.05
5698.96
5699.04
5703.08
5702.69
5702.56
5702.56
5702.19
5701.33
5702.86
5683.4
5683.87
5685.3
5685.54
5684.54
5683.2
5682.49
5696.06
5696.05
5696.27
5696.23
5695.86
5695.84
5696.11
5697.48
5697.57
5697.69
5697.61
5697.46
5697.51
5697.53
5699.06
5698.99
5699.1
5698.86
5698.68
5698.55
5698.56
5703.01
5702.91
5702.79
5702.42
5702.32
5702.39
5702.5
5682.27
5682.31
5682.39
5682.54
5681.6
5680.93
5680.36
5695.87
5695.73
5695.81
5696.32
5696.15
5696.06
5696.07
5697.17
5697.09
5697.2
5697.51
5697.51
5697.37
5697.36
5698.39
5698.34
5698.61
5699.1
5699.05
5699.01
5699.03
5701.81
5701.48
5701.68
5702.19
5702.29
5702.78
5703.09
5680.4
5680.37
5682.11
5684.9
5681.3
5683.09
5683.3
5697.21
5698.49
5699.54
5700.39
5701.05
5701.55
5701.91
5702.17
5697.25
5698.57
5699.61
5700.43
5701.07
5701.56
5701.91
5702.16
5697.21
5698.55
5699.61
5700.42
5701.06
5701.54
5701.9
5702.14
5697.08
5698.43
5699.54
5700.41
5701.05
5701.51
5701.87
5702.12
5697.07
5698.44
5699.51
5700.34
5701
5701.49
5701.86
5702.11
5697.08
5698.42
5699.48
5700.32
5700.97
5701.47
5701.84
5702.09
5696.96
5698.26
5699.34
5700.2
5700.87
5701.39
5701.77
5702.04
5698.55
5699.55
5700.33
5700.93
5701.4
5701.77
5702.05
5702.24
5698.59
5699.6
5700.37
5700.97
5701.44
5701.8
5702.07
5702.26
5698.56
5699.59
5700.36
5700.96
5701.43
5701.79
5702.06
5702.26
5698.54
5699.58
5700.37
5700.97
5701.43
5701.78
5702.05
5702.24
5698.49
5699.51
5700.29
5700.9
5701.37
5701.74
5702.02
5702.22
5698.4
5699.43
5700.22
5700.83
5701.31
5701.69
5701.98
5702.18
5698.27
5699.3
5700.09
5700.71
5701.2
5701.58
5701.88
5702.1
5699.36
5700.32
5701.05
5701.57
5701.95
5702.22
5702.4
5702.53
5699.34
5700.34
5701.08
5701.61
5701.99
5702.25
5702.43
5702.55
5699.3
5700.32
5701.06
5701.6
5701.97
5702.24
5702.43
5702.55
5699.31
5700.31
5701.05
5701.58
5701.96
5702.23
5702.41
5702.53
5699.37
5700.32
5701.04
5701.55
5701.93
5702.19
5702.38
5702.5
5699.44
5700.32
5701
5701.5
5701.87
5702.13
5702.32
5702.45
5699.33
5700.21
5700.88
5701.38
5701.75
5702.02
5702.22
5702.35
5703.59
5703.29
5703.05
5702.91
5702.84
5702.81
5702.81
5702.82
5703.62
5703.29
5703.05
5702.91
5702.84
5702.82
5702.83
5702.84
5703.61
5703.26
5703.01
5702.88
5702.82
5702.8
5702.81
5702.83
5703.53
5703.2
5702.96
5702.84
5702.79
5702.78
5702.79
5702.81
5703.38
5703.08
5702.87
5702.76
5702.72
5702.72
5702.75
5702.77
5703.21
5702.95
5702.76
5702.66
5702.64
5702.65
5702.68
5702.71
5703.09
5702.82
5702.62
5702.53
5702.5
5702.52
5702.56
5702.6
5691.12
5697.48
5700.24
5701.58
5702.26
5702.61
5702.8
5702.89
5691.05
5697.43
5700.21
5701.56
5702.25
5702.61
5702.8
5702.9
5691.03
5697.4
5700.18
5701.53
5702.23
5702.59
5702.79
5702.88
5691.05
5697.39
5700.17
5701.52
5702.21
5702.58
5702.77
5702.87
5691.04
5697.37
5700.14
5701.49
5702.18
5702.54
5702.74
5702.83
5691.1
5697.4
5700.13
5701.46
5702.14
5702.5
5702.69
5702.79
5691.24
5697.45
5700.14
5701.43
5702.08
5702.41
5702.6
5702.69
5697.27
5698.56
5699.61
5700.45
5701.1
5701.62
5702.01
5702.29
5697.15
5698.43
5699.48
5700.28
5700.92
5701.4
5701.76
5702.01
5697.31
5698.51
5699.47
5700.21
5700.79
5701.24
5701.57
5701.8
5697.64
5698.88
5699.83
5700.54
5701.06
5701.46
5701.78
5702.01
5697.07
5698.29
5699.27
5700.05
5700.65
5701.14
5701.5
5701.74
5697.07
5698.37
5699.44
5700.26
5700.9
5701.4
5701.76
5702.01
5697.32
5698.61
5699.65
5700.47
5701.11
5701.6
5701.98
5702.25
5698.39
5699.41
5700.17
5700.78
5701.26
5701.64
5701.94
5702.16
5698.4
5699.39
5700.12
5700.75
5701.21
5701.56
5701.82
5702.02
5698.6
5699.56
5700.27
5700.79
5701.2
5701.5
5701.72
5701.89
5698.76
5699.73
5700.45
5700.98
5701.38
5701.67
5701.9
5702.07
5698.47
5699.44
5700.17
5700.71
5701.12
5701.43
5701.66
5701.83
5698.47
5699.46
5700.21
5700.79
5701.23
5701.58
5701.84
5702.04
5698.47
5699.48
5700.25
5700.84
5701.31
5701.68
5701.96
5702.17
5699.78
5700.51
5701.08
5701.51
5701.83
5702.07
5702.25
5702.37
5699.21
5699.87
5700.87
5701.37
5701.7
5701.95
5702.13
5702.26
5699.69
5700.26
5700.9
5701.34
5701.63
5701.84
5701.99
5702.1
5700.04
5700.69
5701.2
5701.57
5701.84
5702.04
5702.18
5702.28
5699.63
5700.18
5700.65
5701.1
5701.45
5701.7
5701.88
5702.01
5699.47
5699.93
5700.65
5701.35
5701.69
5701.94
5702.12
5702.25
5699.76
5700.51
5701.1
5701.55
5701.87
5702.11
5702.29
5702.41
5703.73
5703.29
5702.95
5702.76
5702.67
5702.63
5702.63
5702.64
5703.54
5703.29
5702.82
5702.58
5702.54
5702.53
5702.51
5702.52
5703.3
5703.12
5703.02
5702.92
5702.83
5702.75
5702.68
5702.62
5703.31
5703.2
5703.01
5702.84
5702.72
5702.62
5702.56
5702.54
5703.14
5703.01
5702.81
5702.72
5702.63
5702.56
5702.5
5702.46
5702.63
5702.71
5702.71
5702.65
5702.54
5702.5
5702.5
5702.51
5703.63
5703.26
5702.98
5702.81
5702.72
5702.68
5702.68
5702.69
5693.44
5698.75
5700.94
5701.93
5702.41
5702.65
5702.75
5702.8
5693.72
5698.47
5700.03
5700.86
5701.98
5702.49
5702.59
5702.64
5694.86
5699.23
5700.42
5701.14
5702.02
5702.62
5702.82
5702.84
5695.12
5699.42
5701.3
5702.13
5702.44
5702.52
5702.56
5702.62
5692.68
5696.68
5698.53
5701.18
5701.45
5701.99
5702.59
5702.64
5693.05
5698.11
5700.18
5701.2
5701.81
5702.33
5702.53
5702.6
5692.78
5698.36
5700.71
5701.8
5702.34
5702.62
5702.75
5702.82
5697.2
5698.49
5699.55
5700.4
5701.06
5701.58
5701.97
5702.25
5697.22
5698.49
5699.57
5700.38
5700.97
5701.43
5701.78
5702.03
5697.38
5698.61
5699.59
5700.34
5700.92
5701.35
5701.66
5701.88
5697.41
5698.67
5699.63
5700.37
5700.93
5701.34
5701.65
5701.89
5696.98
5698.21
5699.22
5700.02
5700.66
5701.13
5701.47
5701.71
5697.01
5698.35
5699.45
5700.28
5700.9
5701.37
5701.72
5701.98
5697.3
5698.57
5699.6
5700.41
5701.04
5701.53
5701.89
5702.15
5698.49
5699.51
5700.28
5700.87
5701.35
5701.72
5702.01
5702.22
5698.58
5699.59
5700.32
5700.87
5701.29
5701.63
5701.86
5702.02
5698.66
5699.63
5700.37
5700.92
5701.34
5701.65
5701.87
5702.01
5698.57
5699.54
5700.25
5700.8
5701.21
5701.53
5701.77
5701.96
5698.46
5699.44
5700.19
5700.75
5701.14
5701.45
5701.67
5701.8
5698.56
5699.5
5700.25
5700.81
5701.25
5701.59
5701.85
5702.02
5698.53
5699.53
5700.29
5700.89
5701.35
5701.72
5702
5702.2
5699.81
5700.59
5701.2
5701.65
5701.97
5702.21
5702.38
5702.5
5699.65
5700.47
5701.09
5701.55
5701.87
5702.1
5702.22
5702.25
5699.78
5700.56
5701.21
5701.69
5702.02
5702.24
5702.35
5702.2
5699.52
5700.29
5700.92
5701.38
5701.72
5701.96
5702.12
5702.22
5699.36
5700.16
5700.84
5701.35
5701.71
5701.95
5702.11
5701.97
5699.23
5700.17
5700.89
5701.41
5701.79
5702.05
5702.22
5702.28
5699.28
5700.28
5701.02
5701.55
5701.92
5702.19
5702.37
5702.49
5703.82
5703.43
5703.13
5702.94
5702.84
5702.8
5702.79
5702.79
5703.88
5703.53
5703.22
5703.02
5702.89
5702.81
5702.76
5702.75
5703.86
5703.7
5703.43
5703.21
5703.07
5702.99
5702.85
5702.58
5703.64
5703.58
5703.39
5703.22
5703.07
5702.95
5702.86
5702.77
5703.48
5703.41
5703.18
5703
5702.88
5702.81
5702.78
5702.63
5703.52
5703.31
5703.08
5702.91
5702.81
5702.76
5702.73
5702.71
5703.65
5703.33
5703.08
5702.92
5702.84
5702.81
5702.8
5702.81
5692.68
5698.38
5700.77
5701.89
5702.44
5702.71
5702.85
5702.91
5692.68
5698.39
5700.8
5701.93
5702.48
5702.76
5702.89
5702.94
5692.73
5698.44
5700.85
5701.99
5702.56
5702.85
5703
5703.08
5692.76
5698.45
5700.92
5702.06
5702.63
5702.9
5703.03
5703.03
5692.18
5698.07
5700.62
5701.81
5702.41
5702.72
5702.88
5702.95
5691.73
5697.83
5700.45
5701.7
5702.33
5702.65
5702.81
5702.88
5691.36
5697.62
5700.33
5701.63
5702.29
5702.63
5702.81
5702.9
5697.05
5698.32
5699.34
5700.15
5700.78
5701.27
5701.65
5701.93
5696.9
5698.13
5699.12
5699.92
5700.54
5701.02
5701.38
5701.64
5696.92
5698.13
5699.11
5699.89
5700.49
5700.95
5701.29
5701.54
5697.49
5698.7
5699.63
5700.34
5700.89
5701.31
5701.62
5701.86
5697.29
5698.49
5699.44
5700.17
5700.74
5701.16
5701.48
5701.7
5697.22
5698.46
5699.46
5700.24
5700.84
5701.3
5701.65
5701.93
5697.22
5698.51
5699.55
5700.39
5701.04
5701.56
5701.96
5702.24
5698.17
5699.19
5699.97
5700.57
5701.05
5701.43
5701.73
5701.95
5698.09
5699.1
5699.87
5700.41
5700.85
5701.21
5701.5
5701.72
5698.18
5699.16
5699.89
5700.44
5700.86
5701.19
5701.44
5701.62
5698.51
5699.5
5700.23
5700.78
5701.2
5701.52
5701.76
5701.94
5698.5
5699.46
5700.17
5700.7
5701.09
5701.38
5701.6
5701.78
5698.38
5699.4
5700.12
5700.68
5701.04
5701.31
5701.71
5701.97
5698.37
5699.38
5700.14
5700.75
5701.22
5701.6
5701.9
5702.13
5699.13
5699.99
5700.65
5701.15
5701.52
5701.81
5702.02
5702.18
5699
5699.73
5700.24
5700.25
5700.6
5701.51
5701.75
5701.92
5699.26
5699.96
5700.51
5700.8
5700.94
5701.23
5701.65
5701.78
5699.75
5700.45
5700.99
5701.39
5701.68
5701.86
5702.01
5702.15
5699.66
5700.32
5700.84
5701.22
5701.44
5701.51
5701.72
5701.99
5699.65
5700.35
5700.67
5701.03
5701.34
5701.63
5702.1
5702.23
5699.76
5700.5
5701.07
5701.49
5701.81
5702.04
5702.22
5702.35
5702.77
5702.54
5702.34
5702.27
5702.28
5702.32
5702.37
5702.43
5701.74
5701.15
5700.98
5700.86
5700.83
5701.78
5702.16
5702.19
5702.63
5702.63
5702.47
5702.14
5701.72
5701.78
5702.21
5702.21
5703.05
5703
5702.84
5702.69
5702.58
5702.49
5702.41
5702.4
5703.15
5703.08
5702.96
5702.83
5702.69
5702.47
5702.32
5702.53
5703.39
5702.69
5702.38
5702.19
5702.08
5702.19
5702.49
5702.49
5703.72
5703.24
5702.91
5702.72
5702.63
5702.6
5702.6
5702.62
5691.48
5697.4
5699.97
5701.23
5701.86
5702.22
5702.43
5702.55
5690.77
5696.39
5699.03
5699.71
5700.16
5700.56
5702.1
5702.28
5692.81
5698.7
5700.82
5701.38
5701.68
5702.08
5702.3
5702.37
5694.64
5699.39
5701.24
5701.99
5702.34
5702.48
5702.53
5702.54
5691.15
5696.37
5699.78
5701.54
5702.26
5702.43
5702.44
5702.62
5693.11
5698.43
5700.57
5701.42
5701.83
5702.31
5702.47
5702.55
5693.38
5698.75
5700.95
5701.95
5702.41
5702.63
5702.74
5702.79
5702.3
5702.38
5702.43
5702.47
5702.49
5702.5
5702.51
5702.52
5702.29
5702.37
5702.42
5702.46
5702.48
5702.49
5702.5
5702.51
5702.27
5702.35
5702.4
5702.44
5702.46
5702.48
5702.49
5702.5
5702.25
5702.33
5702.39
5702.42
5702.45
5702.46
5702.48
5702.48
5702.24
5702.32
5702.38
5702.41
5702.43
5702.45
5702.46
5702.47
5702.23
5702.31
5702.36
5702.4
5702.42
5702.43
5702.44
5702.45
5702.19
5702.27
5702.32
5702.36
5702.38
5702.4
5702.4
5702.41
5702.36
5702.43
5702.48
5702.52
5702.54
5702.56
5702.57
5702.57
5702.37
5702.44
5702.49
5702.53
5702.55
5702.57
5702.57
5702.58
5702.36
5702.43
5702.48
5702.52
5702.54
5702.55
5702.56
5702.56
5702.35
5702.42
5702.47
5702.5
5702.53
5702.54
5702.55
5702.55
5702.33
5702.4
5702.45
5702.48
5702.51
5702.52
5702.53
5702.54
5702.29
5702.36
5702.42
5702.46
5702.48
5702.5
5702.5
5702.51
5702.22
5702.3
5702.35
5702.4
5702.43
5702.44
5702.45
5702.46
5702.6
5702.64
5702.68
5702.7
5702.72
5702.73
5702.74
5702.74
5702.62
5702.67
5702.7
5702.72
5702.74
5702.75
5702.75
5702.75
5702.61
5702.66
5702.69
5702.71
5702.73
5702.74
5702.75
5702.75
5702.6
5702.65
5702.68
5702.7
5702.72
5702.73
5702.74
5702.74
5702.57
5702.62
5702.65
5702.68
5702.7
5702.71
5702.71
5702.71
5702.53
5702.58
5702.61
5702.64
5702.66
5702.67
5702.68
5702.68
5702.44
5702.49
5702.53
5702.57
5702.59
5702.6
5702.61
5702.62
5702.83
5702.84
5702.85
5702.86
5702.87
5702.87
5702.87
5702.86
5702.85
5702.87
5702.88
5702.89
5702.89
5702.89
5702.89
5702.89
5702.84
5702.85
5702.87
5702.88
5702.88
5702.89
5702.89
5702.88
5702.83
5702.84
5702.86
5702.87
5702.87
5702.88
5702.88
5702.87
5702.79
5702.81
5702.82
5702.83
5702.84
5702.85
5702.85
5702.84
5702.74
5702.76
5702.78
5702.79
5702.8
5702.81
5702.81
5702.81
5702.63
5702.66
5702.68
5702.7
5702.71
5702.72
5702.73
5702.73
5702.93
5702.95
5702.97
5702.98
5702.98
5702.98
5702.98
5702.98
5702.94
5702.96
5702.98
5702.99
5703
5703
5703
5703
5702.93
5702.95
5702.97
5702.98
5702.99
5702.99
5702.99
5702.99
5702.91
5702.94
5702.96
5702.97
5702.98
5702.99
5702.99
5702.98
5702.88
5702.91
5702.93
5702.94
5702.95
5702.95
5702.96
5702.95
5702.84
5702.87
5702.89
5702.9
5702.91
5702.92
5702.92
5702.92
5702.74
5702.77
5702.79
5702.81
5702.82
5702.83
5702.83
5702.83
5702.44
5702.53
5702.59
5702.62
5702.64
5702.64
5702.63
5702.64
5702.16
5702.24
5702.31
5702.35
5702.37
5702.39
5702.4
5702.41
5701.93
5702.02
5702.08
5702.13
5702.18
5702.21
5702.23
5702.25
5702.15
5702.24
5702.31
5702.37
5702.41
5702.45
5702.46
5702.5
5701.88
5701.97
5702.04
5702.1
5702.14
5702.18
5702.2
5702.22
5702.16
5702.24
5702.3
5702.34
5702.36
5702.38
5702.39
5702.4
5702.4
5702.48
5702.54
5702.57
5702.59
5702.59
5702.59
5702.59
5702.29
5702.37
5702.43
5702.48
5702.52
5702.54
5702.55
5702.55
5702.14
5702.22
5702.28
5702.33
5702.36
5702.38
5702.36
5702.36
5701.98
5702.04
5702.09
5702.13
5702.17
5702.2
5702.21
5702.16
5702.18
5702.25
5702.31
5702.35
5702.38
5702.41
5702.44
5702.44
5701.93
5701.99
5702.04
5702.09
5702.12
5702.15
5702.16
5702.14
5702.15
5702.22
5702.28
5702.33
5702.36
5702.38
5702.37
5702.36
5702.3
5702.38
5702.44
5702.48
5702.51
5702.53
5702.54
5702.55
5702.45
5702.5
5702.55
5702.58
5702.6
5702.62
5702.63
5702.63
5702.34
5702.39
5702.44
5702.47
5702.49
5702.51
5702.55
5702.55
5702.15
5702.19
5702.22
5702.24
5702.26
5702.27
5702.23
5702.14
5702.35
5702.39
5702.42
5702.45
5702.48
5702.49
5702.5
5702.44
5702.08
5702.13
5702.16
5702.19
5702.21
5702.22
5702.17
5702.13
5702.33
5702.38
5702.43
5702.46
5702.49
5702.52
5702.54
5702.54
5702.49
5702.53
5702.57
5702.6
5702.62
5702.64
5702.65
5702.65
5702.66
5702.67
5702.69
5702.7
5702.71
5702.71
5702.72
5702.72
5702.54
5702.56
5702.58
5702.55
5702.47
5702.46
5702.59
5702.61
5702.57
5702.54
5702.53
5702.51
5702.5
5702.47
5702.32
5702.28
5702.54
5702.55
5702.55
5702.56
5702.57
5702.57
5702.55
5702.41
5702.46
5702.44
5702.43
5702.42
5702.41
5702.41
5702.33
5702.25
5702.53
5702.55
5702.56
5702.52
5702.45
5702.52
5702.6
5702.6
5702.7
5702.72
5702.73
5702.74
5702.75
5702.75
5702.75
5702.75
5702.82
5702.83
5702.84
5702.84
5702.84
5702.84
5702.85
5702.85
5702.66
5702.67
5702.69
5702.6
5702.49
5702.5
5702.6
5702.63
5702.84
5702.75
5702.64
5702.72
5702.73
5702.74
5702.6
5702.51
5702.65
5702.65
5702.65
5702.66
5702.67
5702.67
5702.62
5702.45
5702.65
5702.65
5702.63
5702.49
5702.43
5702.51
5702.56
5702.53
5702.62
5702.65
5702.66
5702.56
5702.42
5702.47
5702.63
5702.64
5702.85
5702.86
5702.87
5702.88
5702.88
5702.88
5702.88
5702.88
5702.41
5702.5
5702.56
5702.59
5702.61
5702.61
5702.61
5702.62
5702.19
5702.29
5702.36
5702.4
5702.43
5702.45
5702.46
5702.47
5702
5702.08
5702.14
5702.19
5702.23
5702.26
5702.28
5702.3
5702.03
5702.12
5702.2
5702.26
5702.3
5702.33
5702.36
5702.38
5701.85
5701.95
5702.02
5702.08
5702.13
5702.16
5702.19
5702.21
5702.13
5702.22
5702.29
5702.33
5702.36
5702.38
5702.39
5702.4
5702.29
5702.37
5702.43
5702.46
5702.48
5702.5
5702.5
5702.51
5702.35
5702.43
5702.49
5702.53
5702.56
5702.58
5702.59
5702.59
5702.16
5702.29
5702.35
5702.4
5702.43
5702.46
5702.47
5702.48
5702.1
5702.16
5702.22
5702.26
5702.29
5702.31
5702.33
5702.34
5702.07
5702.14
5702.2
5702.25
5702.29
5702.32
5702.34
5702.36
5701.88
5701.98
5702.05
5702.1
5702.15
5702.18
5702.2
5702.22
5702.15
5702.24
5702.3
5702.35
5702.39
5702.41
5702.43
5702.43
5702.32
5702.39
5702.45
5702.49
5702.52
5702.53
5702.54
5702.55
5702.57
5702.62
5702.66
5702.69
5702.71
5702.72
5702.73
5702.73
5702.41
5702.46
5702.48
5702.5
5702.53
5702.55
5702.56
5702.57
5702.21
5702.23
5702.25
5702.26
5702.39
5702.54
5702.54
5702.55
5702.26
5702.27
5702.25
5702.33
5702.39
5702.43
5702.45
5702.45
5701.95
5701.99
5702.02
5702.06
5702.32
5702.4
5702.41
5702.4
5702.33
5702.42
5702.45
5702.49
5702.52
5702.54
5702.55
5702.55
5702.56
5702.61
5702.65
5702.67
5702.69
5702.7
5702.71
5702.71
5702.8
5702.82
5702.83
5702.83
5702.84
5702.84
5702.85
5702.85
5702.72
5702.7
5702.68
5702.68
5702.68
5702.67
5702.66
5702.67
5702.72
5702.87
5702.62
5702.53
5702.52
5702.5
5702.49
5702.5
5702.71
5702.67
5702.6
5702.57
5702.63
5702.62
5702.61
5702.61
5702.27
5702.27
5702.26
5702.27
5702.47
5702.55
5702.55
5702.53
5702.67
5702.63
5702.64
5702.69
5702.7
5702.7
5702.7
5702.69
5702.82
5702.83
5702.84
5702.85
5702.85
5702.85
5702.85
5702.85
5702.93
5702.95
5702.96
5702.97
5702.97
5702.97
5702.97
5702.97
5702.95
5702.95
5702.95
5702.95
5702.94
5702.93
5702.9
5702.88
5703.11
5703.13
5703.15
5703.16
5703.16
5703.03
5702.88
5702.73
5702.54
5702.45
5702.81
5702.7
5702.69
5702.87
5702.89
5702.88
5702.97
5702.82
5702.76
5702.95
5702.94
5702.88
5702.7
5702.68
5702.9
5702.91
5702.9
5702.91
5702.91
5702.91
5702.88
5702.87
5702.93
5702.95
5702.97
5702.98
5702.98
5702.98
5702.98
5702.98
5702.08
5702.17
5702.23
5702.28
5702.3
5702.32
5702.32
5702.34
5701.8
5701.9
5701.97
5702.02
5702.06
5702.09
5702.11
5702.13
5701.68
5701.78
5701.85
5701.91
5701.96
5702
5702.02
5702.05
5702
5702.1
5702.17
5702.23
5702.28
5702.31
5702.32
5702.34
5701.84
5701.92
5701.99
5702.04
5702.08
5702.11
5702.13
5702.15
5702.08
5702.18
5702.24
5702.29
5702.32
5702.34
5702.35
5702.36
5702.4
5702.49
5702.56
5702.59
5702.6
5702.6
5702.6
5702.6
5702.08
5702.17
5702.23
5702.28
5702.32
5702.34
5702.35
5702.36
5701.86
5701.94
5702.01
5702.06
5702.1
5702.12
5702.14
5702.16
5701.73
5701.8
5701.86
5701.91
5701.95
5701.99
5702
5702
5702.05
5702.12
5702.18
5702.22
5702.26
5702.29
5702.31
5702.3
5701.9
5701.96
5702.02
5702.06
5702.09
5702.12
5702.12
5702.11
5702.09
5702.17
5702.24
5702.28
5702.32
5702.34
5702.35
5702.34
5702.26
5702.34
5702.41
5702.46
5702.49
5702.51
5702.53
5702.53
5702.27
5702.34
5702.39
5702.43
5702.45
5702.48
5702.49
5702.49
5702.02
5702.09
5702.15
5702.19
5702.22
5702.24
5702.27
5702.28
5701.85
5701.9
5701.94
5701.97
5702
5702.01
5701.99
5701.98
5702.22
5702.26
5702.3
5702.33
5702.35
5702.37
5702.37
5702.31
5702.08
5702.12
5702.15
5702.18
5702.19
5702.2
5702.19
5702.15
5702.3
5702.36
5702.4
5702.44
5702.45
5702.45
5702.48
5702.5
5702.43
5702.49
5702.53
5702.56
5702.59
5702.61
5702.62
5702.62
5702.48
5702.51
5702.54
5702.56
5702.58
5702.59
5702.6
5702.6
5702.22
5702.25
5702.29
5702.31
5702.26
5702.19
5702.29
5702.36
5702.2
5702.2
5702.21
5702.21
5702.2
5702.18
5702.13
5702.11
5702.44
5702.44
5702.44
5702.45
5702.45
5702.46
5702.43
5702.36
5702.52
5702.5
5702.49
5702.47
5702.46
5702.45
5702.44
5702.43
5702.51
5702.52
5702.54
5702.52
5702.45
5702.46
5702.55
5702.55
5702.64
5702.66
5702.68
5702.69
5702.7
5702.71
5702.71
5702.71
5702.62
5702.65
5702.67
5702.69
5702.71
5702.72
5702.73
5702.73
5702.29
5702.37
5702.39