/*--------------------------------*- C++ -*----------------------------------*\
| =========                 |                                                 |
| \\      /  F ield         | OpenFOAM: The Open Source CFD Toolbox           |
|  \\    /   O peration     | Version:  plus.master.MPPICInterFoam            |
|   \\  /    A nd           | Web:      www.OpenFOAM.com                      |
|    \\/     M anipulation  |                                                 |
\*---------------------------------------------------------------------------*/
FoamFile
{
    version     2.0;
    format      ascii;
    class       volVectorField;
    location    "8.6";
    object      U;
}
// * * * * * * * * * * * * * * * * * * * * * * * * * * * * * * * * * * * * * //

dimensions      [0 1 -1 0 0 0 0];

internalField   nonuniform List<vector> 
11821
(
(0.0515022 0.07282 -0.00716147)
(0.0361351 0.0781305 -7.16584e-05)
(0.00952927 0.0850426 0.0142953)
(-0.0282378 0.0802402 0.0163567)
(-0.0566183 0.0789934 0.00190326)
(-0.0730851 0.0714644 -0.00867344)
(-0.0827287 0.0605051 -0.0111454)
(0.0635891 0.0660542 -0.000264847)
(0.090806 0.118622 0.051881)
(0.0604055 0.127843 0.105237)
(-0.0446205 0.115529 0.134012)
(-0.121998 0.120053 0.0861752)
(-0.11936 0.09363 0.0312771)
(-0.0889531 0.0481315 -0.0100602)
(0.077348 0.044878 0.0138878)
(0.124755 0.107493 0.119569)
(0.209394 0.236526 0.464291)
(-0.0467482 0.240628 0.676524)
(-0.241008 0.214417 0.362811)
(-0.122906 0.0766961 0.068992)
(-0.0919854 0.0297471 -0.00104492)
(0.0808538 0.00814356 0.0258095)
(0.119926 0.0128399 0.148887)
(0.239678 0.0152069 0.655697)
(-0.0162591 0.0182001 1.95602)
(-0.246756 0.0206953 0.583045)
(-0.107862 0.0123861 0.103893)
(-0.0850198 0.00753643 0.00857621)
(0.0828548 -0.032756 0.0161404)
(0.126876 -0.0870708 0.118585)
(0.223625 -0.222809 0.483816)
(-0.0308818 -0.23562 0.752946)
(-0.236346 -0.194012 0.400713)
(-0.123676 -0.0606909 0.0763959)
(-0.0908734 -0.0184174 0.00188322)
(0.0709476 -0.056402 0.00137235)
(0.100975 -0.108081 0.0586524)
(0.0769249 -0.126495 0.11978)
(-0.0380934 -0.119387 0.159766)
(-0.131845 -0.119643 0.112429)
(-0.125405 -0.0841168 0.0358723)
(-0.0879087 -0.0382581 -0.00844111)
(0.0590293 -0.0677034 -0.00635842)
(0.0456164 -0.0761573 0.00137624)
(0.0188934 -0.0836594 0.0176463)
(-0.0265654 -0.0800789 0.0232564)
(-0.0616953 -0.0771669 0.00681378)
(-0.0812534 -0.0649637 -0.00669554)
(-0.089498 -0.0520604 -0.010848)
(0.0205033 0.0409603 0.0187253)
(0.00490512 0.0382363 0.0435895)
(-0.0120066 0.0215509 0.0762776)
(-0.0269282 0.0138164 0.0786237)
(-0.0372071 0.0227647 0.037537)
(-0.0446324 0.0289062 0.0150323)
(-0.0493869 0.0262432 0.0110257)
(0.0257262 0.0363882 0.0364461)
(0.018916 0.0490635 0.167941)
(0.00164915 0.0234108 0.266866)
(-0.0274207 0.0129458 0.322938)
(-0.0497039 0.0175497 0.208722)
(-0.0518303 0.0250335 0.100805)
(-0.0501366 0.0163575 0.0114148)
(0.0163508 0.025214 0.07686)
(0.0207482 0.0433802 0.304229)
(0.0526508 0.0581539 1.16205)
(-0.0310667 0.0320784 1.62956)
(-0.0666696 0.0589385 0.835071)
(-0.022682 0.0218987 0.16549)
(-0.0392664 0.00855142 0.0247531)
(0.011936 0.00739413 0.104784)
(0.0166989 0.00821571 0.345929)
(0.0387422 0.0141955 1.54136)
(-0.0281261 0.0233193 3.68295)
(-0.0687482 0.014638 1.27833)
(-0.0135314 0.00795337 0.233058)
(-0.0318636 0.00672414 0.0441845)
(0.0175921 -0.0127681 0.084632)
(0.0220205 -0.0290693 0.304193)
(0.0541887 -0.0541586 1.17676)
(-0.0253268 -0.0238815 1.75959)
(-0.0640704 -0.0489316 0.995337)
(-0.0228173 -0.00880999 0.191138)
(-0.0366205 0.00402542 0.0352257)
(0.0311896 -0.0261611 0.0408386)
(0.0319329 -0.0422518 0.182612)
(0.0146702 -0.0240268 0.309083)
(-0.0229685 -0.0172176 0.393859)
(-0.0527825 -0.0163972 0.268635)
(-0.0533816 -0.0129637 0.118955)
(-0.0514264 -0.00329428 0.016114)
(0.0279985 -0.0351535 0.0182608)
(0.0148904 -0.0355646 0.0455314)
(-0.00335634 -0.0172981 0.094898)
(-0.0243906 -0.00813634 0.109751)
(-0.0411806 -0.0147561 0.0594653)
(-0.0499739 -0.0197595 0.0202468)
(-0.0533908 -0.0155376 0.00997003)
(0.00811586 0.0285609 0.072549)
(-0.00698626 0.0171962 0.108474)
(-0.0181571 -0.0025904 0.156355)
(-0.0212079 -0.0139274 0.170947)
(-0.0232572 0.00342062 0.106353)
(-0.0310282 0.0162316 0.0708668)
(-0.0389311 0.0223577 0.060593)
(0.00274607 0.0215464 0.102888)
(-0.0118075 0.0114246 0.210426)
(-0.0194317 -0.0141211 0.325873)
(-0.0186839 -0.0284242 0.410758)
(-0.0169474 -0.0145407 0.251112)
(-0.0243551 0.00321659 0.119381)
(-0.0359865 0.0105052 0.0663888)
(-0.00858661 0.0140678 0.161438)
(-0.0201163 0.00854074 0.356247)
(-0.0241606 -0.0128711 0.99992)
(-0.00927506 -0.0466423 1.6821)
(-0.00110274 -0.00396126 0.657675)
(0.00416602 0.00335675 0.208151)
(-0.0246542 0.00235103 0.0833988)
(-0.0161992 0.00601188 0.205861)
(-0.0252995 0.00537011 0.455348)
(-0.0517545 0.0155335 1.68122)
(-0.0434022 0.0553006 4.01282)
(-0.00888111 0.00883282 1.20573)
(0.0146027 0.0053004 0.298798)
(-0.016653 0.00433796 0.105867)
(-0.0082395 -0.00327776 0.173577)
(-0.0193555 0.000484369 0.370296)
(-0.0245134 0.0219771 1.09029)
(-0.0135848 0.0642757 1.98638)
(0.0040694 0.013713 0.805906)
(0.00801617 0.00719216 0.242419)
(-0.0205586 0.00863719 0.0947297)
(0.00753531 -0.0123243 0.110931)
(-0.00494793 -0.00390274 0.233581)
(-0.0131844 0.0169257 0.374899)
(-0.015138 0.0310292 0.486324)
(-0.0153879 0.0208455 0.313053)
(-0.0226989 0.00996642 0.149634)
(-0.0360105 0.00384722 0.071701)
(0.0143231 -0.0219251 0.0738666)
(0.000246676 -0.0122437 0.118441)
(-0.0131617 0.00896911 0.18683)
(-0.0196414 0.0235818 0.216488)
(-0.0248387 0.00922795 0.14128)
(-0.0338976 -0.00255402 0.0801778)
(-0.0420637 -0.00899112 0.0610761)
(0.018817 0.0383009 0.165244)
(-0.000294053 0.021985 0.197418)
(-0.0156369 -0.00173617 0.247194)
(-0.015782 -0.016006 0.261487)
(-0.0179968 0.0102 0.200908)
(-0.0329022 0.0288754 0.168931)
(-0.047937 0.040064 0.155294)
(0.00624718 0.0245882 0.195265)
(-0.0144013 0.0067385 0.285721)
(-0.0259491 -0.0198207 0.398154)
(-0.0153906 -0.0388221 0.463487)
(-0.00804144 -0.0142578 0.317501)
(-0.0253809 0.00893089 0.201222)
(-0.0446425 0.0226934 0.163889)
(-0.00999206 0.0115731 0.255363)
(-0.0278805 -0.00369726 0.423546)
(-0.0421887 -0.0298378 0.809867)
(-0.000686306 -0.0674269 1.29198)
(0.00846325 -0.0153583 0.574518)
(-0.00207904 0.000336329 0.277728)
(-0.0349681 0.00842531 0.178377)
(-0.0257076 0.0053182 0.310389)
(-0.0414626 0.00277782 0.540075)
(-0.091362 0.00122963 1.49204)
(-0.0505985 0.0377674 3.29886)
(0.00366315 6.81757e-06 0.925935)
(0.0112456 0.0029649 0.349397)
(-0.0272087 0.00346623 0.194811)
(-0.0116348 -0.00127169 0.270105)
(-0.0290306 0.0107575 0.44459)
(-0.0477328 0.0367599 0.893553)
(-0.00147523 0.106214 2.06624)
(0.0145247 0.0233049 0.669955)
(0.00454684 0.00924023 0.305822)
(-0.031388 0.00241094 0.18557)
(0.0082037 -0.0146078 0.205513)
(-0.0111656 0.00209649 0.310698)
(-0.0245356 0.0257555 0.446444)
(-0.0127383 0.0478489 0.536723)
(-0.00425188 0.0257761 0.373187)
(-0.0232246 0.00736938 0.226035)
(-0.0454678 -0.00832243 0.166872)
(0.0228964 -0.0294461 0.167447)
(0.00353378 -0.0127424 0.210333)
(-0.0145548 0.0128254 0.281559)
(-0.0163134 0.0327165 0.31176)
(-0.0190018 0.00824816 0.23273)
(-0.0354657 -0.011469 0.176383)
(-0.051107 -0.0255441 0.155769)
(0.0358945 0.04835 0.323359)
(0.0139776 0.0358124 0.346912)
(-0.00549689 0.0150346 0.384642)
(-0.011324 0.003566 0.393161)
(-0.0189459 0.0288893 0.350203)
(-0.0375051 0.0464741 0.325307)
(-0.0552304 0.0561059 0.312034)
(0.0218568 0.0317679 0.34788)
(-0.00219875 0.0164881 0.413631)
(-0.0198104 -0.00783691 0.508084)
(-0.0148669 -0.0260536 0.547691)
(-0.0139646 0.00288182 0.431968)
(-0.0351108 0.0246482 0.346964)
(-0.055388 0.0359548 0.320428)
(0.00416265 0.0143903 0.396173)
(-0.0177999 -0.00112784 0.534801)
(-0.036629 -0.0241299 0.814638)
(-0.00657495 -0.049916 1.07013)
(-0.00270637 -0.00778648 0.609301)
(-0.0219175 0.00920955 0.401631)
(-0.0510285 0.0174778 0.331057)
(-0.0154486 0.00499178 0.446898)
(-0.0362062 0.00221522 0.646112)
(-0.0849002 -0.00645975 1.34394)
(-0.0468816 -0.0216598 2.44641)
(-0.00799571 -0.00157244 0.81995)
(-0.0120457 0.00313739 0.454345)
(-0.0472169 0.00395413 0.341785)
(0.00149392 -0.00511659 0.409518)
(-0.0201984 0.00822953 0.55903)
(-0.0453819 0.0299381 0.897019)
(-0.0089602 0.0729215 1.47031)
(0.00331577 0.0155056 0.675992)
(-0.0154899 0.00116972 0.422184)
(-0.0490038 -0.00754631 0.335457)
(0.0218129 -0.0231114 0.356764)
(-0.00136588 -0.00674926 0.437469)
(-0.0213388 0.0162332 0.556467)
(-0.013786 0.0395947 0.626269)
(-0.0102306 0.0128139 0.478393)
(-0.0338996 -0.00833563 0.363443)
(-0.0560847 -0.0239896 0.322873)
(0.0374514 -0.041127 0.325898)
(0.0154866 -0.0252479 0.358386)
(-0.00650744 -0.00090668 0.413983)
(-0.0129973 0.0184336 0.436546)
(-0.0193973 -0.00880692 0.372981)
(-0.0388007 -0.0301426 0.331834)
(-0.0559914 -0.0449556 0.313479)
(-0.077848 0.0406566 -0.00892484)
(-0.0705123 0.0316739 -0.00672077)
(-0.0658737 0.0317623 -0.00537252)
(-0.0602965 0.0299645 -0.00462641)
(-0.0558171 0.0282778 -0.00431828)
(-0.0524293 0.0270915 -0.00437989)
(-0.0499846 0.0264332 -0.00471924)
(-0.0474894 0.0255032 -0.00520402)
(-0.0735687 0.0278407 -0.00913653)
(-0.0833644 0.0214787 -0.00740615)
(-0.0707233 0.0207693 -0.00560656)
(-0.0647005 0.0204809 -0.00448029)
(-0.0604543 0.0196048 -0.00386372)
(-0.0566028 0.0186459 -0.00365808)
(-0.053973 0.0181208 -0.00376982)
(-0.0511387 0.0174777 -0.00407801)
(-0.0782485 0.0170312 -0.00955755)
(-0.0818789 0.0127811 -0.00842194)
(-0.0750962 0.0129126 -0.00626983)
(-0.0681658 0.0126822 -0.00455138)
(-0.0623104 0.0119784 -0.00358825)
(-0.0588962 0.0115692 -0.00308741)
(-0.0554851 0.0113531 -0.00295282)
(-0.052485 0.0111626 -0.00317619)
(-0.0708807 0.00482803 -0.00769879)
(-0.0828065 0.00469925 -0.00860944)
(-0.0706485 0.00412893 -0.00650182)
(-0.0674112 0.00384548 -0.004656)
(-0.0614324 0.00356596 -0.00353625)
(-0.0589273 0.00341426 -0.00285776)
(-0.0564075 0.00326865 -0.00264937)
(-0.0545848 0.00301788 -0.00270368)
(-0.0770591 -0.00645603 -0.00922561)
(-0.0825431 -0.00362751 -0.00861623)
(-0.073684 -0.00466978 -0.00651429)
(-0.0684858 -0.00451916 -0.00466249)
(-0.0630362 -0.00380865 -0.00368544)
(-0.0595584 -0.00336668 -0.0032062)
(-0.0565334 -0.00315499 -0.00312917)
(-0.0535987 -0.00293334 -0.00339431)
(-0.0815211 -0.0200045 -0.0102096)
(-0.0805177 -0.0117635 -0.00758193)
(-0.0756132 -0.0119971 -0.00574126)
(-0.0676561 -0.0114562 -0.00450826)
(-0.0625896 -0.010899 -0.00382227)
(-0.0592003 -0.0106704 -0.0035759)
(-0.0563349 -0.010659 -0.0036678)
(-0.0530577 -0.0104127 -0.00394679)
(-0.0784329 -0.0324331 -0.00876784)
(-0.0763884 -0.024508 -0.00670391)
(-0.0669884 -0.0232629 -0.00526979)
(-0.0625729 -0.0223372 -0.00442311)
(-0.0580776 -0.0203624 -0.00404663)
(-0.0552922 -0.019162 -0.00409971)
(-0.0527584 -0.0180558 -0.00446598)
(-0.0507018 -0.0169804 -0.00502967)
(-0.0508675 0.025051 0.0132111)
(-0.0511942 0.0262302 0.0147365)
(-0.0513174 0.0274741 0.0148976)
(-0.0511438 0.028311 0.0139709)
(-0.0506173 0.0287272 0.0123754)
(-0.0497345 0.0287711 0.010313)
(-0.0485113 0.0284853 0.00792772)
(-0.0469411 0.0278833 0.00533717)
(-0.0524278 0.0166681 0.0101696)
(-0.053406 0.0180627 0.0140542)
(-0.0540173 0.0194189 0.0150943)
(-0.0543863 0.0203839 0.0147748)
(-0.0542273 0.0208755 0.0135211)
(-0.0535123 0.0209614 0.0116314)
(-0.0522938 0.020724 0.00928308)
(-0.0505971 0.0202097 0.00663283)
(-0.049369 0.00837523 0.006814)
(-0.0523123 0.0102539 0.0117608)
(-0.0542274 0.0113788 0.0146879)
(-0.0555199 0.0120837 0.0153496)
(-0.0559893 0.0124422 0.0144545)
(-0.0556427 0.0125228 0.0126536)
(-0.0545631 0.0123852 0.0102813)
(-0.0528635 0.0120681 0.00751926)
(-0.0467001 0.00516523 0.00804975)
(-0.0512859 0.00492727 0.0114846)
(-0.0539161 0.00476299 0.0142197)
(-0.0558615 0.00459434 0.0150828)
(-0.0567834 0.00440874 0.0142387)
(-0.0567407 0.00421627 0.0123539)
(-0.0558372 0.00402467 0.00971514)
(-0.0542181 0.00383668 0.00668046)
(-0.0495672 0.00286855 0.00670678)
(-0.0529969 7.43359e-05 0.0107583)
(-0.0550842 -0.00154471 0.0135573)
(-0.0565791 -0.00261947 0.0144326)
(-0.0571966 -0.00334675 0.0135203)
(-0.0569509 -0.00378985 0.0116429)
(-0.0559457 -0.00400527 0.00916596)
(-0.0542925 -0.00403012 0.00630144)
(-0.0543749 -0.00484133 0.00888022)
(-0.0554252 -0.00715194 0.0125923)
(-0.0562495 -0.00895596 0.0140174)
(-0.0567713 -0.0102925 0.0137559)
(-0.0567699 -0.0111679 0.0125081)
(-0.0561888 -0.011635 0.0105118)
(-0.0550613 -0.0117589 0.00800185)
(-0.0534233 -0.0115805 0.00519701)
(-0.0540551 -0.0138331 0.0120767)
(-0.0544654 -0.0152392 0.0141101)
(-0.0546257 -0.0166438 0.0143638)
(-0.054635 -0.0176822 0.0135504)
(-0.0543148 -0.0182983 0.0119325)
(-0.053641 -0.0185567 0.00976413)
(-0.0526024 -0.0184999 0.00720467)
(-0.0512042 -0.0181576 0.00440553)
(-0.0457469 0.0270124 0.0549125)
(-0.0498312 0.0324533 0.0493727)
(-0.0532379 0.0367381 0.0423506)
(-0.0558433 0.0399429 0.0342609)
(-0.0576833 0.0422526 0.0255573)
(-0.0588051 0.043796 0.0166738)
(-0.0591906 0.044617 0.00807176)
(-0.0587187 0.0446613 0.000285744)
(-0.0450605 0.0163469 0.0578603)
(-0.0517432 0.021397 0.0526441)
(-0.0569838 0.0251482 0.0461633)
(-0.0611006 0.0279148 0.0382476)
(-0.0641434 0.0298575 0.0293333)
(-0.066167 0.0311057 0.0199411)
(-0.0671408 0.0317227 0.0106495)
(-0.0669051 0.0316879 0.0021417)
(-0.0399155 0.00768557 0.0605101)
(-0.0497966 0.0116308 0.0546439)
(-0.0572837 0.0141868 0.0486315)
(-0.0631645 0.015932 0.0410099)
(-0.0674692 0.0170696 0.0320433)
(-0.070344 0.017735 0.022323)
(-0.0718384 0.0179983 0.0125338)
(-0.0718167 0.0178662 0.00347717)
(-0.0364757 0.00422221 0.0623171)
(-0.0485156 0.00449445 0.0549405)
(-0.0571844 0.00450266 0.0490111)
(-0.0639294 0.00436757 0.0415433)
(-0.0688338 0.00414674 0.0325906)
(-0.0720864 0.00388621 0.0227692)
(-0.073799 0.0036135 0.0128167)
(-0.0738678 0.00334462 0.00359071)
(-0.0392818 0.00250539 0.0606799)
(-0.0503158 -0.00186199 0.0535784)
(-0.0582878 -0.00473319 0.0474491)
(-0.06444 -0.00691659 0.0398554)
(-0.0688712 -0.0085869 0.0308945)
(-0.0717689 -0.00981828 0.0211639)
(-0.073226 -0.0106448 0.0113695)
(-0.073141 -0.0110551 0.00232419)
(-0.0463286 -0.00443669 0.0570033)
(-0.0538867 -0.0105614 0.0510465)
(-0.0596106 -0.0150265 0.0444881)
(-0.0640625 -0.0184351 0.036552)
(-0.0672656 -0.0209815 0.027588)
(-0.0693262 -0.0227926 0.018127)
(-0.0702658 -0.0239254 0.008779)
(-0.0699668 -0.0243601 0.000247318)
(-0.0490897 -0.014585 0.0541917)
(-0.0538334 -0.0206627 0.0485866)
(-0.0576776 -0.0255099 0.0415768)
(-0.0606464 -0.0292693 0.0333812)
(-0.0627548 -0.0320978 0.0244755)
(-0.0640557 -0.0341114 0.0153538)
(-0.0645449 -0.0353488 0.00652537)
(-0.0641254 -0.0357565 -0.00144168)
(-0.0614933 0.0479832 0.145358)
(-0.0698313 0.0576698 0.136114)
(-0.0773976 0.0655383 0.125521)
(-0.0834566 0.0715541 0.113831)
(-0.0876565 0.0756463 0.101178)
(-0.0895672 0.0776315 0.0875019)
(-0.0886583 0.0771919 0.0723668)
(-0.0843925 0.0739719 0.0548894)
(-0.0612103 0.0302825 0.151442)
(-0.0738768 0.0385595 0.141799)
(-0.0847601 0.0451548 0.131207)
(-0.0938008 0.0501654 0.119336)
(-0.100505 0.0535863 0.106255)
(-0.104266 0.0552955 0.0919264)
(-0.104306 0.0550425 0.0758812)
(-0.0998564 0.0525379 0.0570426)
(-0.0572229 0.0151649 0.156195)
(-0.0736011 0.0205109 0.145643)
(-0.0875637 0.0244915 0.135103)
(-0.0992112 0.0273894 0.12319)
(-0.107969 0.0292879 0.109844)
(-0.113188 0.0301711 0.0950485)
(-0.113975 0.0299262 0.0783287)
(-0.109417 0.0284072 0.0584885)
(-0.0546825 0.00413808 0.158486)
(-0.0731285 0.00449248 0.146612)
(-0.0884928 0.00453402 0.135973)
(-0.101262 0.00436817 0.123993)
(-0.11083 0.00408292 0.110477)
(-0.116576 0.00373635 0.0954238)
(-0.117603 0.00336366 0.0783661)
(-0.112968 0.00298511 0.0580759)
(-0.0570772 -0.00527969 0.156164)
(-0.0745295 -0.0109067 0.144491)
(-0.0889456 -0.0152924 0.133573)
(-0.100787 -0.0188111 0.121351)
(-0.109567 -0.0214366 0.107668)
(-0.114715 -0.023043 0.092524)
(-0.115381 -0.0234746 0.0754588)
(-0.110692 -0.0225769 0.0552888)
(-0.063501 -0.0186019 0.150184)
(-0.0770033 -0.028057 0.13943)
(-0.0882183 -0.0355921 0.12814)
(-0.0973334 -0.0414469 0.115576)
(-0.103957 -0.0456787 0.101755)
(-0.107563 -0.048144 0.0866702)
(-0.10737 -0.0485685 0.0698854)
(-0.102642 -0.0466705 0.0503464)
(-0.065278 -0.0359581 0.143594)
(-0.0742293 -0.0471371 0.133337)
(-0.0821082 -0.0562431 0.121711)
(-0.0883598 -0.0632446 0.108908)
(-0.0926378 -0.0681023 0.0951205)
(-0.0944819 -0.0707286 0.0803152)
(-0.0933653 -0.0708519 0.0640915)
(-0.0887815 -0.0681681 0.0455901)
(-0.070141 0.0630421 0.299409)
(-0.0792776 0.0738675 0.284128)
(-0.0890496 0.0835463 0.262156)
(-0.0985612 0.0921066 0.231821)
(-0.107755 0.099779 0.19162)
(-0.117562 0.107487 0.140715)
(-0.129292 0.116304 0.0797999)
(-0.139471 0.123252 0.0124793)
(-0.0730521 0.0417507 0.307085)
(-0.0864992 0.0503082 0.293074)
(-0.099496 0.057748 0.273294)
(-0.11205 0.064166 0.24511)
(-0.124022 0.0697165 0.206252)
(-0.136518 0.0750388 0.155101)
(-0.151471 0.0810924 0.0916548)
(-0.164895 0.0860088 0.019269)
(-0.0722178 0.0217913 0.312235)
(-0.0889323 0.0265647 0.298512)
(-0.104715 0.0305213 0.28023)
(-0.119641 0.0337824 0.253702)
(-0.1336 0.0364832 0.215985)
(-0.147886 0.0389964 0.164841)
(-0.164869 0.041899 0.0997505)
(-0.180325 0.0442875 0.0238996)
(-0.071469 0.00380125 0.314723)
(-0.0896143 0.00344015 0.300331)
(-0.106408 0.00276266 0.282426)
(-0.122108 0.00192215 0.256455)
(-0.136636 0.00109204 0.219137)
(-0.151402 0.000402262 0.167975)
(-0.168963 -6.65875e-05 0.102253)
(-0.185048 -0.000289364 0.0251006)
(-0.0721164 -0.0137907 0.312556)
(-0.0891932 -0.0201019 0.297973)
(-0.104836 -0.0257044 0.279355)
(-0.119383 -0.0306585 0.252607)
(-0.132872 -0.0349021 0.214695)
(-0.14671 -0.0386371 0.163347)
(-0.163356 -0.0423414 0.0980272)
(-0.178675 -0.0450959 0.021957)
(-0.0741709 -0.0329193 0.306706)
(-0.0873984 -0.043691 0.29183)
(-0.0997157 -0.0532928 0.271543)
(-0.111314 -0.0617277 0.242937)
(-0.12223 -0.0690018 0.203669)
(-0.133734 -0.0756125 0.15209)
(-0.147927 -0.0824422 0.0881699)
(-0.160999 -0.0876453 0.0153288)
(-0.0705529 -0.0553251 0.298891)
(-0.078985 -0.0686541 0.283083)
(-0.0875904 -0.0807195 0.260748)
(-0.0956738 -0.0913967 0.230059)
(-0.103358 -0.100811 0.189425)
(-0.111746 -0.109772 0.137934)
(-0.122353 -0.119297 0.0762503)
(-0.131946 -0.126452 0.00810554)
(0.0539562 -0.051956 -0.00662137)
(0.046296 -0.0447667 -0.00533369)
(0.0413053 -0.0413929 -0.00443571)
(0.0376884 -0.0394283 -0.00410565)
(0.0348429 -0.0385535 -0.00421404)
(0.0324786 -0.0382766 -0.00466571)
(0.030282 -0.037875 -0.00532121)
(0.0284139 -0.0372698 -0.0060725)
(0.0644414 -0.0369416 -0.00631794)
(0.0557805 -0.0306432 -0.00510129)
(0.0470107 -0.029368 -0.00338458)
(0.0409254 -0.0269328 -0.00238435)
(0.0375291 -0.0256023 -0.00174411)
(0.035922 -0.0248252 -0.00143056)
(0.0324674 -0.0223975 -0.00148913)
(0.0316742 -0.0219556 -0.00137802)
(0.0688591 -0.0157632 -0.00498483)
(0.0679715 -0.0139758 -0.00551594)
(0.0507124 -0.0132828 -0.00330087)
(0.0433206 -0.0130416 -0.00129877)
(0.0376268 -0.0130446 0.000156919)
(0.0339305 -0.0137063 0.00131017)
(0.029074 -0.0147645 0.00216919)
(0.0275489 -0.017152 0.00342077)
(0.0699617 0.00548755 -0.00322661)
(0.0703868 0.0061057 -0.00440947)
(0.0530859 0.00663173 -0.00139478)
(0.0460546 0.00695908 0.00202116)
(0.0401832 0.00675201 0.00476932)
(0.035962 0.00665031 0.00656334)
(0.0321597 0.00666679 0.00721463)
(0.0291789 0.00825125 0.00756455)
(0.0679658 0.0249934 -0.00614476)
(0.0626881 0.0224994 -0.00604391)
(0.0494399 0.022508 -0.00386671)
(0.0413936 0.0222097 -0.00177006)
(0.036582 0.0227787 -0.000202039)
(0.0326899 0.0228614 0.000455236)
(0.0306076 0.0228137 0.00060586)
(0.0258387 0.0225239 0.00044468)
(0.061833 0.0487494 -0.00732238)
(0.0510281 0.0394349 -0.00585612)
(0.0456157 0.0371134 -0.00437409)
(0.0404163 0.0346147 -0.00310327)
(0.0368793 0.0330086 -0.00237346)
(0.0340902 0.0319205 -0.00208657)
(0.0330866 0.0313418 -0.00205721)
(0.0303743 0.0287416 -0.00213388)
(0.0502857 0.0590646 -0.00733074)
(0.0422948 0.0503973 -0.00541348)
(0.039825 0.0481596 -0.00435519)
(0.0358543 0.0455578 -0.00385098)
(0.0333995 0.0444239 -0.00381094)
(0.0311041 0.0436778 -0.00409065)
(0.0290081 0.0432082 -0.00462255)
(0.026963 0.0427519 -0.00530204)
(0.0300531 -0.0317394 0.01751)
(0.0303051 -0.0317975 0.0179753)
(0.0311033 -0.0323821 0.0174032)
(0.0318701 -0.0330445 0.0157569)
(0.0323479 -0.0335322 0.0133416)
(0.0324762 -0.0337212 0.0104274)
(0.032246 -0.0335454 0.00719602)
(0.0316969 -0.0330182 0.00375821)
(0.0340427 -0.021462 0.0211818)
(0.0324937 -0.0218952 0.0213846)
(0.0321329 -0.0225472 0.022544)
(0.0322928 -0.0232684 0.0226969)
(0.0324268 -0.0239824 0.021807)
(0.0323168 -0.0245468 0.0201338)
(0.0318589 -0.0248891 0.018041)
(0.0311008 -0.0250558 0.0156835)
(0.0311018 -0.00651718 0.0317498)
(0.0307535 -0.0077971 0.0256014)
(0.0303149 -0.00879209 0.0275685)
(0.0305891 -0.00959593 0.0293223)
(0.0307203 -0.0104556 0.029954)
(0.0305084 -0.0113279 0.0295468)
(0.0297942 -0.0121335 0.0284794)
(0.0286403 -0.0128062 0.0266456)
(0.0291822 0.00682459 0.0365891)
(0.0297595 0.00673173 0.0266159)
(0.0297774 0.00677491 0.0288925)
(0.0303439 0.00685993 0.0312301)
(0.0305476 0.00692486 0.0323379)
(0.0302544 0.00695973 0.0323978)
(0.0294098 0.00696795 0.03177)
(0.0280684 0.00695656 0.0306155)
(0.0298248 0.0187399 0.0271488)
(0.0292258 0.0192757 0.0230719)
(0.0293126 0.0199352 0.0252016)
(0.0298891 0.0205455 0.0265)
(0.0302407 0.0211294 0.0264871)
(0.0301744 0.0215825 0.025486)
(0.0296957 0.0219033 0.0238682)
(0.028738 0.0221141 0.0219839)
(0.0294836 0.0313408 0.0196455)
(0.0288153 0.0313524 0.0202555)
(0.0292879 0.0319113 0.0212205)
(0.0300158 0.0325863 0.0210314)
(0.0304907 0.0331722 0.0197294)
(0.0305624 0.0335564 0.0176596)
(0.0302133 0.0336885 0.0150927)
(0.029427 0.0335435 0.0123444)
(0.0241925 0.0382511 0.018682)
(0.0251631 0.0385725 0.0193919)
(0.02643 0.0392824 0.0189363)
(0.0274899 0.0399374 0.0173476)
(0.0281736 0.0403553 0.0150091)
(0.0284317 0.0404521 0.0122146)
(0.0282744 0.0402051 0.00914245)
(0.0277202 0.0396105 0.00591002)
(0.0231078 -0.0262068 0.0624318)
(0.0292571 -0.0314696 0.0554945)
(0.0345669 -0.0356444 0.047919)
(0.0390363 -0.0389238 0.0389073)
(0.0425661 -0.0413207 0.0288809)
(0.0451978 -0.0429081 0.0184308)
(0.0469245 -0.043725 0.00818544)
(0.04765 -0.0437445 -0.00115673)
(0.0185504 -0.0157274 0.0752762)
(0.0258164 -0.0206144 0.0664052)
(0.0317048 -0.0239158 0.061111)
(0.0368542 -0.0265853 0.0548641)
(0.0411464 -0.0287252 0.0470613)
(0.0445218 -0.0303278 0.0380243)
(0.0468944 -0.0313766 0.0284652)
(0.0480818 -0.0318197 0.0192574)
(0.0100501 -0.00371812 0.095354)
(0.01861 -0.00704269 0.0775703)
(0.0255029 -0.00912532 0.073052)
(0.0313066 -0.0107567 0.0690065)
(0.0361157 -0.0121961 0.0634358)
(0.0398611 -0.0134035 0.0563002)
(0.0424579 -0.0143144 0.0481175)
(0.0437372 -0.0148786 0.0397007)
(0.00549901 0.00648867 0.105021)
(0.0152702 0.0067913 0.0806071)
(0.0227995 0.00676183 0.0762431)
(0.0290623 0.00668859 0.0730317)
(0.0342673 0.0065555 0.0683441)
(0.0383299 0.00634405 0.0620291)
(0.0411415 0.00606411 0.0545499)
(0.0425236 0.00574689 0.0466924)
(0.00958417 0.0154114 0.0883599)
(0.0183698 0.0186279 0.0734727)
(0.0255167 0.0206081 0.0689106)
(0.0315292 0.0220577 0.064175)
(0.0365184 0.0231188 0.0578767)
(0.0404381 0.0237894 0.0502001)
(0.0432273 0.0240978 0.0417186)
(0.0446969 0.0240574 0.0330988)
(0.0151046 0.0256068 0.0720879)
(0.02282 0.0305264 0.0641576)
(0.0290936 0.0340363 0.0582098)
(0.034461 0.0367914 0.0510448)
(0.0388389 0.0388527 0.0425598)
(0.0422403 0.0402676 0.0332322)
(0.0446205 0.0410577 0.0235713)
(0.0458013 0.0411811 0.0143555)
(0.0174556 0.0333863 0.0633684)
(0.0236967 0.0389809 0.0567579)
(0.0290645 0.0434129 0.0490867)
(0.0335354 0.0468611 0.0400215)
(0.0370496 0.0493923 0.0300452)
(0.0396611 0.0510872 0.01974)
(0.0413723 0.0519689 0.00970937)
(0.0420954 0.0519908 0.000611109)
(0.039418 -0.0387544 0.151378)
(0.0521477 -0.0489841 0.139255)
(0.0632172 -0.05702 0.126605)
(0.072459 -0.0630188 0.112736)
(0.0794348 -0.0669901 0.0978261)
(0.0837834 -0.0687021 0.081962)
(0.0848964 -0.0679393 0.0647992)
(0.0822595 -0.064359 0.0454986)
(0.0275923 -0.0225373 0.16995)
(0.043901 -0.0306183 0.156425)
(0.0575489 -0.0364525 0.146418)
(0.0695283 -0.0409134 0.135636)
(0.0791922 -0.0439668 0.123308)
(0.0858952 -0.0454716 0.109408)
(0.0887699 -0.0450855 0.093678)
(0.0869522 -0.0424869 0.0752905)
(0.0128803 -0.00610544 0.193209)
(0.0313236 -0.0113304 0.172187)
(0.0468043 -0.0147116 0.163008)
(0.0605025 -0.0174539 0.154575)
(0.0719832 -0.019674 0.144881)
(0.0802515 -0.0213464 0.133459)
(0.0841608 -0.0220883 0.119765)
(0.0826172 -0.0216594 0.102764)
(0.00475129 0.00665072 0.204969)
(0.0251958 0.00680432 0.177316)
(0.0420091 0.00643189 0.16804)
(0.056626 0.00594415 0.16029)
(0.0689605 0.00536131 0.151233)
(0.0779879 0.00470797 0.140382)
(0.0824819 0.00405118 0.127192)
(0.0812635 0.00347001 0.110374)
(0.0143843 0.0177665 0.186065)
(0.0329117 0.0228321 0.167825)
(0.0485272 0.0257824 0.158754)
(0.0623425 0.0278169 0.149899)
(0.0738167 0.0290895 0.139786)
(0.0820115 0.0295787 0.128214)
(0.0858313 0.0291763 0.114659)
(0.084222 0.0277621 0.097734)
(0.026392 0.0329879 0.166167)
(0.0427029 0.041139 0.153749)
(0.0564979 0.0470019 0.143343)
(0.0685676 0.0512317 0.132146)
(0.0783083 0.0538613 0.11979)
(0.0850577 0.0548168 0.106178)
(0.0879302 0.0538336 0.0906917)
(0.0860969 0.0506257 0.0723552)
(0.0350532 0.0473774 0.151975)
(0.0475167 0.0576253 0.140675)
(0.058469 0.0656519 0.128484)
(0.0676162 0.0715881 0.115115)
(0.0745367 0.0754328 0.100757)
(0.078844 0.0770486 0.0854367)
(0.0800212 0.0761217 0.0687609)
(0.0775543 0.0722932 0.0498692)
(0.056788 -0.0493138 0.309068)
(0.0713698 -0.0596415 0.292089)
(0.0851357 -0.0680861 0.269583)
(0.0979037 -0.0750825 0.239044)
(0.109583 -0.0810387 0.198643)
(0.121071 -0.087166 0.147125)
(0.133671 -0.0947838 0.0845844)
(0.143897 -0.101146 0.0144448)
(0.0447657 -0.0296117 0.328277)
(0.064535 -0.0366635 0.31276)
(0.0827003 -0.0416384 0.295257)
(0.100433 -0.0453722 0.269719)
(0.117385 -0.0483197 0.23272)
(0.134348 -0.0514343 0.182139)
(0.152877 -0.0558155 0.117546)
(0.168438 -0.0597625 0.0420579)
(0.0286432 -0.0102653 0.349241)
(0.0513939 -0.014861 0.329958)
(0.0723299 -0.0177561 0.315598)
(0.0931167 -0.0200426 0.29547)
(0.1136 -0.0220705 0.2645)
(0.134622 -0.0241863 0.218481)
(0.158054 -0.0268767 0.15584)
(0.177814 -0.0290388 0.0795564)
(0.0188002 0.00539129 0.360191)
(0.0443788 0.00443706 0.336166)
(0.0670686 0.00316063 0.322435)
(0.0891759 0.00184734 0.304121)
(0.110954 0.000553661 0.275269)
(0.133355 -0.000589095 0.231849)
(0.158273 -0.00158706 0.171936)
(0.179483 -0.00231417 0.0977433)
(0.0312443 0.0190961 0.343397)
(0.0540813 0.0221031 0.32597)
(0.075279 0.0231109 0.311382)
(0.0963518 0.0232504 0.290408)
(0.116975 0.0229646 0.258332)
(0.137967 0.0229661 0.211812)
(0.16104 0.0240023 0.149443)
(0.180479 0.0251668 0.0739645)
(0.045464 0.0372965 0.3247)
(0.0654825 0.0432908 0.30995)
(0.0841615 0.0469998 0.292123)
(0.102402 0.0492247 0.266631)
(0.119799 0.0506136 0.230104)
(0.137112 0.0522877 0.180126)
(0.155862 0.0556359 0.116)
(0.171382 0.0589919 0.0411014)
(0.055509 0.0550601 0.308779)
(0.070496 0.0642084 0.292429)
(0.0849814 0.071416 0.270145)
(0.098594 0.077253 0.239724)
(0.11115 0.0823346 0.199414)
(0.123573 0.087734 0.148071)
(0.137039 0.0948021 0.0858787)
(0.147871 0.100935 0.0162648)
(0.0344877 0.0644005 -0.00721016)
(0.0295016 0.0590286 -0.00566732)
(0.0291037 0.0523908 -0.00465948)
(0.0282515 0.0474598 -0.00434609)
(0.0281619 0.0444971 -0.00451644)
(0.0280317 0.0420481 -0.00508173)
(0.0276279 0.0399444 -0.00585855)
(0.0273405 0.0382016 -0.00672242)
(0.0163802 0.0715049 -0.00767429)
(0.013904 0.0651774 -0.00610807)
(0.0155587 0.0565343 -0.00402266)
(0.0155534 0.0496677 -0.00244156)
(0.0158221 0.0453698 -0.00150244)
(0.0163007 0.042447 -0.00113812)
(0.0160861 0.0386806 -0.00118302)
(0.0167364 0.0378476 -0.00114182)
(-0.00270448 0.0706882 -0.0059685)
(-0.00289796 0.0733424 -0.00600145)
(-0.00145401 0.0574278 -0.00304994)
(9.66053e-05 0.0497764 -0.000143808)
(0.00118907 0.0436179 0.00226202)
(0.00234807 0.0387103 0.00396726)
(0.00410162 0.0349182 0.0048612)
(0.00576992 0.0316862 0.00471517)
(-0.0221048 0.0676353 -0.00587469)
(-0.0216282 0.0728898 -0.00598279)
(-0.0200665 0.0545155 -0.00301429)
(-0.0199532 0.0493913 0.000113516)
(-0.0193531 0.0434679 0.0021818)
(-0.0186993 0.0394187 0.003458)
(-0.0178067 0.0362111 0.00407533)
(-0.0157925 0.0330732 0.00404347)
(-0.0379369 0.0647837 -0.00795712)
(-0.0346551 0.0671393 -0.00675777)
(-0.0322935 0.0514422 -0.00451363)
(-0.0300407 0.0458202 -0.00273726)
(-0.0288385 0.0410949 -0.00162738)
(-0.0286682 0.0378158 -0.000913954)
(-0.0302208 0.0345117 -0.000575148)
(-0.0318702 0.0328264 -0.000541051)
(-0.050834 0.0589279 -0.0081107)
(-0.0492416 0.0593552 -0.00600354)
(-0.0465301 0.0463111 -0.00433598)
(-0.0447602 0.0425493 -0.00316625)
(-0.0420861 0.0387312 -0.00260997)
(-0.0402392 0.0379416 -0.00235402)
(-0.0357818 0.0349125 -0.00238694)
(-0.0346467 0.0352535 -0.0024264)
(-0.0692564 0.055699 -0.00825128)
(-0.0620206 0.048294 -0.00627906)
(-0.0569358 0.0422178 -0.00498748)
(-0.0540652 0.0394639 -0.0041237)
(-0.0518741 0.0359841 -0.00369653)
(-0.0510739 0.0333522 -0.00363019)
(-0.050189 0.030466 -0.00383895)
(-0.0485986 0.0278946 -0.00429286)
(0.0168131 0.0409119 0.0197671)
(0.0184899 0.041189 0.0204095)
(0.02015 0.0416402 0.0198982)
(0.0215266 0.0421509 0.0183071)
(0.022512 0.0424405 0.0159334)
(0.0230693 0.0424074 0.0130317)
(0.0232131 0.042028 0.00981225)
(0.0229717 0.041288 0.00640256)
(0.00281667 0.0400821 0.0238479)
(0.00638818 0.0394369 0.0246614)
(0.00896388 0.0395368 0.0260395)
(0.010899 0.0400716 0.0260872)
(0.0123997 0.0404642 0.0248158)
(0.0134458 0.0405099 0.0225747)
(0.0140616 0.0401573 0.0197423)
(0.014315 0.0394397 0.0165054)
(-0.0124561 0.0344478 0.0287611)
(-0.00761658 0.0354129 0.0271458)
(-0.00435674 0.0358427 0.0301944)
(-0.00194428 0.0366439 0.032153)
(0.000141611 0.0369867 0.032624)
(0.00196935 0.0367057 0.0318225)
(0.00355042 0.0357915 0.0300575)
(0.00486333 0.0343349 0.0276893)
(-0.0222922 0.0318386 0.0252714)
(-0.0196349 0.033449 0.0252328)
(-0.0177415 0.0345805 0.0287143)