/*--------------------------------*- C++ -*----------------------------------*\
| =========                 |                                                 |
| \\      /  F ield         | OpenFOAM: The Open Source CFD Toolbox           |
|  \\    /   O peration     | Version:  plus.master.MPPICInterFoam            |
|   \\  /    A nd           | Web:      www.OpenFOAM.com                      |
|    \\/     M anipulation  |                                                 |
\*---------------------------------------------------------------------------*/
FoamFile
{
    version     2.0;
    format      ascii;
    class       surfaceScalarField;
    location    "6";
    object      alphaPhi;
}
// * * * * * * * * * * * * * * * * * * * * * * * * * * * * * * * * * * * * * //

dimensions      [0 3 -1 0 0 0 0];

internalField   nonuniform List<scalar> 
34155
(
2.25782e-06
2.13175e-06
1.12839e-07
-2.33315e-06
-2.16932e-06
1.64689e-06
2.95759e-06
2.49481e-07
-2.59782e-06
3.28079e-07
3.53949e-06
5.76101e-07
-2.79723e-06
-1.11675e-06
3.43024e-06
7.66194e-07
-2.75027e-06
-2.31003e-06
3.33464e-06
4.75505e-07
-2.61683e-06
-2.79796e-06
2.71918e-06
1.93505e-07
-2.42421e-06
2.01196e-06
9.47786e-08
-2.90478e-06
-1.99772e-06
3.04101e-06
1.52851e-06
2.22422e-07
-2.66226e-06
1.87406e-06
1.79305e-06
1.47437e-06
7.95914e-07
1.15958e-06
2.28731e-06
-1.40218e-06
1.64956e-06
2.78771e-06
-2.2014e-06
9.09487e-07
2.12408e-06
-3.34838e-06
1.75395e-06
1.29388e-06
1.47064e-06
1.51562e-07
-2.95826e-06
3.58474e-06
3.1512e-07
5.06989e-07
-2.87639e-06
1.26982e-06
8.20376e-07
2.2843e-06
2.05167e-07
2.24011e-07
1.24836e-06
-2.68479e-07
1.48581e-07
1.36509e-06
-1.61919e-06
2.28554e-07
1.37447e-06
-3.55134e-06
8.01501e-07
1.95468e-06
3.17045e-07
3.55462e-07
-2.75326e-06
3.44867e-06
-8.80101e-07
7.10239e-07
-2.96372e-06
1.48289e-06
-1.2243e-06
2.7703e-06
1.05357e-07
-2.36162e-07
1.29501e-06
-1.66178e-07
-1.20481e-07
5.4087e-07
-1.81041e-06
-2.44987e-07
1.66525e-06
-3.24422e-06
-1.13189e-06
2.15476e-06
-7.50049e-07
4.88368e-07
-2.66542e-06
3.55982e-06
-1.93952e-06
4.35305e-07
-2.93567e-06
1.09831e-06
-2.02453e-06
2.16726e-06
1.79047e-07
-1.33231e-06
1.26169e-06
-2.54818e-07
-1.56928e-06
1.26986e-06
-1.52676e-06
-1.077e-06
1.42152e-06
-3.5241e-06
-1.95308e-06
1.83926e-06
-1.78774e-06
3.01978e-07
-2.78841e-06
2.92348e-06
-2.39106e-06
1.86535e-07
-2.65808e-06
1.78352e-06
-3.11136e-06
1.36256e-06
6.34281e-07
-3.43709e-06
2.1686e-06
-1.42437e-06
-3.18592e-06
2.55058e-06
-2.19075e-06
-3.2835e-06
1.9389e-06
-3.28609e-06
-2.86982e-06
1.19677e-06
-2.18998e-06
1.28975e-07
-3.01053e-06
2.19641e-06
9.8085e-08
-2.25254e-06
-2.43138e-06
1.48894e-06
1.93305e-07
-2.5977e-06
1.34068e-07
4.57989e-07
-2.54022e-06
-1.11523e-06
5.89511e-07
-2.52613e-06
-2.30088e-06
3.56031e-07
-2.45394e-06
-2.77255e-06
1.51842e-07
-2.55009e-06
8.94733e-08
-2.81163e-06
-2.24067e-06
1.44028e-06
9.24757e-07
5.99189e-07
-1.64515e-06
-1.2062e-06
9.21322e-07
1.28812e-06
8.54907e-07
-1.37473e-06
2.27454e-07
9.63972e-07
1.49285e-06
-1.18696e-06
-6.97343e-07
8.76232e-07
1.9348e-06
-1.12017e-06
-1.41362e-06
1.06645e-06
1.34592e-06
-1.22066e-06
-1.93181e-06
1.18792e-06
7.83323e-07
-1.25969e-06
8.31183e-07
5.71809e-07
-2.17738e-06
-1.06281e-06
1.66739e-06
3.90322e-07
7.99247e-07
-1.70989e-06
1.31437e-06
7.85154e-07
2.05504e-06
4.58561e-07
4.45496e-07
3.33646e-06
-7.22507e-07
3.20066e-07
4.30756e-06
-1.67996e-06
6.79883e-07
3.18538e-06
-2.04956e-06
9.2748e-07
1.76343e-06
4.61038e-07
7.24234e-07
-2.2523e-06
1.05316e-06
-1.03961e-07
1.27566e-06
-1.32778e-06
6.32112e-07
2.39573e-08
3.27234e-06
5.08461e-08
1.4161e-08
1.21198e-06
-6.55396e-08
-1.75598e-08
1.41725e-06
-1.11797e-06
1.12125e-07
1.86296e-06
-1.6896e-06
3.06145e-07
2.87092e-06
3.64566e-08
1.12671e-06
-2.03634e-06
4.14105e-07
-4.56987e-07
1.62704e-06
-9.77953e-07
-1.17453e-07
-5.54141e-07
3.98425e-06
-7.40135e-08
-4.03301e-08
8.37609e-07
-1.39677e-07
-3.14724e-08
5.8317e-07
-1.19037e-06
-2.21955e-07
2.25574e-06
-1.55885e-06
-8.1581e-07
3.58923e-06
-4.74952e-07
1.36881e-06
-1.92802e-06
9.45825e-07
-8.30656e-07
1.1439e-06
-1.28087e-06
5.54732e-07
-1.1971e-06
3.07529e-06
2.88651e-08
-6.7523e-07
1.32659e-06
-5.71396e-08
-5.31391e-07
1.39638e-06
-1.04998e-06
-9.70742e-07
2.0608e-06
-1.62605e-06
-1.26705e-06
2.64686e-06
-8.11075e-07
1.02315e-06
-2.01119e-06
1.40617e-06
-1.24769e-06
7.3763e-07
-1.54035e-06
1.05539e-06
-1.46377e-06
1.82133e-06
2.74157e-07
-1.02888e-06
3.06524e-06
-7.43901e-07
-8.68064e-07
3.73017e-06
-1.58372e-06
-1.17931e-06
2.77491e-06
-1.90457e-06
-1.39088e-06
1.55079e-06
-1.1249e-06
6.7346e-07
-2.13542e-06
1.17482e-06
5.80599e-07
-1.45047e-06
-1.45462e-06
6.37547e-07
7.86613e-07
-1.51982e-06
3.58976e-08
1.27153e-06
-1.2409e-06
-6.21408e-07
1.53069e-06
-1.15201e-06
-1.23447e-06
1.11856e-06
-1.3289e-06
-1.74515e-06
7.18926e-07
-1.44749e-06
5.6413e-07
-2.02268e-06
-1.32228e-06
9.81437e-07
4.35782e-07
1.50083e-06
-1.41742e-06
-9.0138e-07
5.28438e-07
1.52986e-07
1.81149e-06
-6.5694e-07
1.67401e-07
-4.52171e-07
2.55856e-06
-2.52751e-07
-2.75474e-07
-8.54169e-07
3.20974e-06
2.17117e-08
-8.79863e-07
-7.55988e-08
2.44916e-06
-4.2352e-07
-1.49465e-06
3.78822e-07
1.74291e-06
-7.23892e-07
4.97722e-07
1.44717e-06
-1.98246e-06
-8.85704e-07
6.9939e-07
-2.32881e-08
1.72593e-06
-1.16733e-06
3.8474e-07
-2.53307e-07
2.79629e-06
2.30933e-07
-4.41055e-07
4.36816e-06
3.68595e-08
-6.69439e-07
4.84299e-06
-5.97977e-07
-2.19565e-07
4.32395e-06
-1.27444e-06
1.44182e-07
2.67404e-06
1.55527e-07
1.654e-06
-1.86256e-06
-9.93953e-08
-2.19176e-07
2.18148e-06
-6.11078e-07
-2.25877e-07
-3.85864e-07
4.05328e-06
1.67245e-08
-3.9629e-08
1.10643e-06
2.20175e-08
-4.77238e-08
7.31608e-07
1.81248e-07
1.05558e-08
2.2945e-06
-6.65738e-07
1.81745e-08
3.9734e-06
-1.0611e-08
2.13977e-06
-1.51284e-06
-7.74765e-07
-1.07712e-07
2.5073e-06
-2.1717e-07
-5.1591e-07
-2.94592e-08
4.54532e-06
-6.53781e-09
-7.25058e-10
4.90941e-07
-4.37831e-09
-7.4833e-08
5.39626e-07
2.94057e-07
-8.50583e-08
1.99903e-06
-4.57087e-07
-3.25343e-07
4.69012e-06
-2.13064e-07
2.45617e-06
-1.34226e-06
1.15153e-08
-3.31122e-07
2.05609e-06
-7.00592e-07
-1.86876e-07
-1.58169e-07
3.80922e-06
3.9761e-08
3.67841e-07
1.64071e-06
1.74861e-08
3.49882e-07
1.41164e-06
6.4458e-08
5.61534e-08
3.12054e-06
-8.29913e-07
-4.5394e-07
3.71074e-06
-4.58075e-07
2.02651e-06
-1.58832e-06
6.78854e-07
-7.96514e-07
1.6631e-06
-1.13928e-06
3.5944e-07
-5.22629e-07
2.50442e-06
2.81566e-07
9.92701e-08
3.92642e-06
-1.25177e-07
1.61536e-07
4.72032e-06
-7.5073e-07
-2.73513e-07
3.78711e-06
-1.32148e-06
-7.2641e-07
2.39397e-06
-8.48899e-07
1.59335e-06
-1.85092e-06
8.94624e-07
1.4716e-06
-1.34391e-06
-1.23844e-06
4.23745e-07
1.7221e-06
-9.87476e-07
1.1212e-07
2.25155e-06
-5.6947e-07
-3.44332e-07
2.61569e-06
-4.67163e-07
-8.71496e-07
2.13826e-06
-7.66244e-07
-1.44419e-06
1.65214e-06
-1.08728e-06
1.42672e-06
-1.90513e-06
-1.2509e-06
1.3036e-06
8.53504e-07
3.06145e-06
-2.1368e-06
-1.58088e-06
5.09949e-07
2.536e-07
3.36127e-06
-1.00977e-06
-2.2071e-08
-6.12022e-07
4.01637e-06
-3.13908e-07
-1.64686e-07
-1.68103e-06
4.67887e-06
3.54188e-07
-8.71429e-07
-4.81651e-07
3.98595e-06
-3.48595e-07
-1.72797e-06
2.38683e-07
3.3266e-06
-9.65761e-07
7.49825e-07
3.01295e-06
-2.55149e-06
-1.49241e-06
8.55346e-07
2.39134e-07
3.26706e-06
-1.78212e-06
1.30092e-07
-3.12256e-07
4.08689e-06
-6.58427e-08
-8.21656e-07
5.66425e-06
3.49157e-07
-5.98341e-07
5.60051e-06
-2.65437e-07
-6.93649e-07
5.69513e-06
-1.28218e-06
-2.18638e-07
4.14805e-06
1.99252e-07
3.23233e-06
-2.31042e-06
7.13458e-08
-6.5072e-08
3.61103e-06
-1.19717e-06
-5.18676e-07
-3.40147e-07
5.18317e-06
7.45694e-09
-8.74599e-08
3.11556e-06
9.49783e-08
-4.36062e-08
2.90515e-07
6.0385e-07
-7.28615e-08
3.81778e-06
-5.38751e-07
-2.06728e-07
5.39334e-06
-4.10055e-08
3.69026e-06
-1.84843e-06
-4.98338e-07
-7.74165e-08
3.83464e-06
-8.16342e-07
-5.66532e-07
1.82438e-07
5.67187e-06
4.80844e-08
7.70215e-08
1.04446e-06
2.69327e-08
9.41726e-10
4.47934e-07
8.47373e-07
5.88117e-08
1.89103e-06
8.58517e-09
1.28487e-07
5.88075e-06
-7.17259e-08
4.02467e-06
-1.52924e-06
3.75375e-07
-5.7058e-07
3.53011e-06
-1.35629e-06
-2.78834e-07
-9.70307e-08
4.92144e-06
5.34777e-08
7.31357e-07
4.43767e-06
1.5354e-07
8.08181e-07
2.22677e-06
2.67855e-07
5.43185e-07
5.28154e-06
-8.44951e-07
-1.41216e-07
5.15482e-06
-5.12145e-07
3.59418e-06
-1.97203e-06
1.01052e-06
-1.27967e-06
3.21962e-06
-1.85846e-06
3.26282e-07
-7.66104e-07
3.85674e-06
1.07284e-07
2.93359e-08
5.18389e-06
2.04179e-08
5.37767e-07
5.9149e-06
-6.08593e-07
-1.32102e-07
5.19208e-06
-1.4862e-06
-7.61806e-07
3.89235e-06
-1.21703e-06
3.17827e-06
-2.36646e-06
1.37835e-06
3.02832e-06
-2.17598e-06
-2.03874e-06
6.13442e-07
3.27773e-06
-1.55657e-06
6.58318e-08
3.74925e-06
-9.21516e-07
-3.43143e-07
4.13623e-06
-5.73791e-07
-1.0195e-06
3.70227e-06
-1.01975e-06
-1.78835e-06
3.23484e-06
-1.57581e-06
2.98478e-06
-2.53989e-06
-2.02364e-06
1.67587e-06
1.61319e-06
-2.62197e-06
-2.51479e-06
4.90927e-06
6.88325e-07
1.03593e-06
-1.89464e-06
5.20794e-06
-1.12377e-07
1.22484e-07
-1.10588e-06
5.80082e-06
-2.98041e-07
-1.23428e-06
-3.03822e-07
6.40265e-06
-1.09517e-06
-1.50776e-08
-1.02228e-06
5.82085e-06
-1.98781e-06
7.61331e-07
-1.75402e-06
5.21244e-06
1.38773e-06
-2.84233e-06
-2.40622e-06
4.88589e-06
1.4187e-06
8.498e-07
-2.48534e-06
5.09755e-06
4.20137e-07
3.51275e-07
5.7703e-06
-1.99447e-07
-5.53471e-07
7.22529e-06
2.01527e-07
-8.06476e-07
7.07471e-06
-5.82899e-07
-6.50477e-07
7.36737e-06
-1.68831e-06
6.27343e-08
5.95231e-06
5.86801e-07
-2.77357e-06
5.11821e-06
9.73511e-07
2.38432e-07
-2.12909e-06
5.37793e-06
-1.7353e-07
5.77452e-08
6.6779e-06
-7.05156e-08
-1.36656e-07
6.41726e-06
1.5859e-07
-5.29132e-08
4.46463e-07
3.02806e-07
-1.17523e-07
5.83989e-06
-1.09132e-06
-1.7972e-07
7.11681e-06
6.15324e-08
-2.43633e-06
5.56139e-06
7.63136e-07
-2.83442e-07
-1.94758e-06
5.5414e-06
-2.14716e-07
-8.08408e-08
7.17188e-06
1.59082e-07
1.58947e-07
4.3458e-06
6.37679e-08
3.69152e-08
3.85218e-07
7.83907e-07
1.83445e-07
2.38585e-06
-4.16768e-07
1.63222e-07
7.42247e-06
-1.14488e-07
-2.11777e-06
5.90184e-06
1.25223e-06
-1.04379e-06
-2.27881e-06
5.31739e-06
2.85541e-07
-6.57646e-07
6.46554e-06
5.0468e-08
1.60897e-07
7.49435e-06
1.79273e-07
9.05467e-07
3.76997e-06
-1.23546e-07
3.36266e-07
7.12465e-06
-1.36481e-06
-3.46803e-07
6.90711e-06
-8.04476e-07
-2.55746e-06
5.47708e-06
1.63314e-06
-1.88468e-06
-2.6214e-06
5.04865e-06
7.07293e-07
-1.46506e-06
5.58978e-06
2.70674e-08
-7.24635e-07
6.77095e-06
-1.22321e-07
7.57032e-08
7.57945e-06
-9.29384e-07
-5.65103e-07
6.90694e-06
-1.90312e-06
-1.21555e-06
5.73516e-06
-1.71834e-06
-2.86933e-06
5.05823e-06
1.85816e-06
-2.79524e-06
-2.78027e-06
4.86137e-06
9.0081e-07
-2.34659e-06
5.11706e-06
4.79857e-08
-1.69458e-06
5.57162e-06
-5.00238e-07
-1.20305e-06
5.96347e-06
-1.28052e-06
-1.65598e-06
5.5736e-06
-2.11532e-06
-2.25685e-06
5.11091e-06
-2.9537e-06
-2.73381e-06
4.83863e-06
-3.16321e-06
-2.69699e-07
5.88687e-08
4.65523e-07
-3.27455e-06
-4.5344e-07
7.82081e-08
4.84621e-07
-3.43736e-06
-3.81677e-07
9.14404e-08
4.55405e-07
-3.64023e-06
-3.43457e-07
9.91014e-08
4.48015e-07
-3.86319e-06
-3.24025e-07
9.93067e-08
4.47796e-07
-4.09782e-06
-3.10109e-07
9.13779e-08
4.52614e-07
-4.32948e-06
-2.98675e-07
7.55637e-08
4.55398e-07
-2.92824e-07
5.39389e-08
4.60308e-07
-4.55099e-06
-3.16426e-06
-1.17574e-07
5.37778e-08
-3.35323e-06
-3.42905e-07
7.87096e-08
-3.57315e-06
-2.59792e-07
9.8639e-08
-3.80671e-06
-2.2084e-07
1.10739e-07
-4.04441e-06
-1.99687e-07
1.12344e-07
-4.26765e-06
-1.9159e-07
1.0462e-07
-4.46639e-06
-1.87905e-07
8.7862e-08
-1.82891e-07
6.50499e-08
-4.6415e-06
-2.83927e-06
-9.13459e-08
5.99088e-08
-3.09608e-06
-1.55153e-07
6.91516e-08
-3.32444e-06
-1.2789e-07
9.46374e-08
-3.55649e-06
-1.03763e-07
1.14782e-07
-3.78245e-06
-9.18087e-08
1.19717e-07
-4.01092e-06
-7.58219e-08
1.13374e-07
-4.22914e-06
-6.81028e-08
9.82663e-08
-6.40448e-08
7.55796e-08
-4.42468e-06
-2.78391e-06
-4.71824e-08
7.55238e-08
-3.0498e-06
4.22323e-08
6.63504e-08
-3.26104e-06
-1.33062e-08
9.51611e-08
-3.46058e-06
-2.06741e-08
1.18504e-07
-3.65818e-06
-1.92628e-08
1.24989e-07
-3.83777e-06
-1.60823e-08
1.19787e-07
-4.0001e-06
-9.72904e-09
1.03863e-07
-7.1673e-10
8.21523e-08
-4.14452e-06
-2.86401e-06
-2.51835e-08
5.51094e-08
-3.08685e-06
1.94853e-07
7.02478e-08
-3.3253e-06
1.26564e-07
9.67853e-08
-3.56442e-06
9.8231e-08
1.20082e-07
-3.79713e-06
8.77653e-08
1.25522e-07
-4.02234e-06
8.83373e-08
1.19874e-07
-4.22874e-06
9.268e-08
1.0454e-07
9.67618e-08
8.15758e-08
-4.40729e-06
-3.18667e-06
9.47749e-08
5.52891e-08
-3.32927e-06
2.55521e-07
7.85385e-08
-3.54597e-06
2.43175e-07
1.00999e-07
-3.77296e-06
2.13085e-07
1.13056e-07
-4.00064e-06
2.00535e-07
1.14776e-07
-4.21579e-06
1.96401e-07
1.06954e-07
-4.40892e-06
1.95299e-07
9.03916e-08
1.95577e-07
6.8069e-08
-4.57592e-06
-3.05525e-06
5.79463e-08
2.81129e-07
-3.20536e-06
7.70553e-08
3.30124e-07
-3.39535e-06
9.07467e-08
3.4182e-07
-3.62106e-06
9.75816e-08
3.41252e-07
-3.86083e-06
9.5829e-08
3.44315e-07
-4.10064e-06
8.63815e-08
3.48778e-07
-4.32711e-06
6.97696e-08
3.51787e-07
4.75765e-08
3.55765e-07
-4.534e-06
-2.59238e-06
-3.64463e-07
3.24675e-07
5.13552e-07
-3.01817e-06
-3.66984e-07
3.6404e-07
5.06801e-07
-3.45178e-06
-3.51459e-07
3.80365e-07
4.95978e-07
-3.87345e-06
-3.36286e-07
3.71117e-07
4.85774e-07
-4.26539e-06
-3.22255e-07
3.37962e-07
4.75446e-07
-4.61423e-06
-3.08803e-07
2.84747e-07
4.64168e-07
-4.91155e-06
-2.95564e-07
2.16851e-07
4.51527e-07
-2.82355e-07
1.41074e-07
4.37566e-07
-5.15399e-06
-2.68446e-06
-2.87275e-07
4.0853e-07
-3.14296e-06
-2.67453e-07
4.37541e-07
-3.60846e-06
-2.40723e-07
4.53229e-07
-4.05396e-06
-2.20284e-07
4.40106e-07
-4.45854e-06
-2.03745e-07
3.98264e-07
-4.80538e-06
-1.89995e-07
3.32541e-07
-5.08514e-06
-1.78221e-07
2.5021e-07
-1.67599e-07
1.59976e-07
-5.2949e-06
-2.5795e-06
-1.80794e-07
4.96402e-07
-3.09857e-06
-1.66205e-07
4.86802e-07
-3.60395e-06
-1.46933e-07
5.0608e-07
-4.07623e-06
-1.30744e-07
4.97356e-07
-4.49754e-06
-1.1727e-07
4.54413e-07
-4.85127e-06
-1.05634e-07
3.82634e-07
-5.12664e-06
-9.56502e-08
2.91003e-07
-8.70605e-08
1.90198e-07
-5.32187e-06
-2.50229e-06
-8.55671e-08
5.54431e-07
-3.0449e-06
-6.33185e-08
5.05882e-07
-3.56617e-06
-5.68839e-08
5.26163e-07
-4.04873e-06
-5.08012e-08
5.20988e-07
-4.47662e-06
-4.3933e-08
4.79421e-07
-4.83207e-06
-3.69109e-08
4.06392e-07
-5.10623e-06
-3.00223e-08
3.12306e-07
-2.34508e-08
2.08443e-07
-5.29622e-06
-2.54816e-06
1.73862e-08
4.88966e-07
-3.06817e-06
3.27341e-08
4.94006e-07
-3.57542e-06
3.18424e-08
5.15157e-07
-4.04538e-06
3.21598e-08
5.0693e-07
-4.46239e-06
3.39746e-08
4.64503e-07
-4.80952e-06
3.68476e-08
3.93126e-07
-5.07733e-06
4.02881e-08
3.01903e-07
4.37356e-08
2.01438e-07
-5.26446e-06
-2.59804e-06
1.24258e-07
4.10813e-07
-3.07673e-06
1.45481e-07
4.44334e-07
-3.55194e-06
1.47762e-07
4.60139e-07
-3.99994e-06
1.46601e-07
4.46518e-07
-4.40169e-06
1.45641e-07
4.04768e-07
-4.74238e-06
1.44816e-07
3.39578e-07
-5.01383e-06
1.43978e-07
2.58038e-07
1.42951e-07
1.68561e-07
-5.21363e-06
-2.48339e-06
3.23486e-07
3.192e-07
-2.94195e-06
3.60655e-07
3.20337e-07
-3.39591e-06
3.73736e-07
3.18581e-07
-3.82805e-06
3.61467e-07
3.14796e-07
-4.22305e-06
3.26158e-07
3.10255e-07
-4.56846e-06
2.71723e-07
3.04791e-07
-4.8567e-06
2.03511e-07
2.98347e-07
1.28032e-07
2.91141e-07
-5.08545e-06
-2.61253e-06
-3.44498e-07
8.18303e-07
4.80865e-07
-3.3078e-06
-2.97002e-07
9.00388e-07
4.55921e-07
-4.03979e-06
-2.57507e-07
9.37463e-07
4.32193e-07
-4.77845e-06
-2.26967e-07
9.26611e-07
4.09989e-07
-5.4959e-06
-2.02635e-07
8.6907e-07
3.88906e-07
-6.16373e-06
-1.82739e-07
7.66486e-07
3.68826e-07
-6.75068e-06
-1.66385e-07
6.20388e-07
3.49794e-07
-1.52904e-07
4.36421e-07
3.31801e-07
-7.22497e-06
-2.60079e-06
-2.60583e-07
1.06243e-06
-3.37232e-06
-2.07189e-07
1.11922e-06
-4.15827e-06
-1.63769e-07
1.14532e-06
-4.93408e-06
-1.31182e-07
1.12002e-06
-5.67311e-06
-1.06525e-07
1.0411e-06
-6.34577e-06
-8.74371e-08
9.09885e-07
-6.9172e-06
-7.27453e-08
7.28011e-07
-6.18378e-08
5.02726e-07
-7.35103e-06
-2.40391e-06
-1.45751e-07
1.27219e-06
-3.27037e-06
-1.29976e-07
1.27582e-06
-4.11815e-06
-1.0822e-07
1.29821e-06
-4.93506e-06
-8.87706e-08
1.27185e-06
-5.70025e-06
-7.24797e-08
1.18553e-06
-6.38596e-06
-5.8709e-08
1.03958e-06
-6.95635e-06
-4.72556e-08
8.35898e-07
-3.80378e-08
5.82893e-07
-7.37287e-06
-2.27837e-06
-3.42397e-08
1.37891e-06
-3.18706e-06
-5.0453e-08
1.33491e-06
-4.06497e-06
-6.02433e-08
1.35608e-06
-4.90172e-06
-6.3535e-08
1.33244e-06
-5.67985e-06
-6.12781e-08
1.24629e-06
-6.3734e-06
-5.60891e-08
1.09728e-06
-6.94627e-06
-4.96625e-08
8.87573e-07
-4.28585e-08
6.25922e-07
-7.35893e-06
-2.43335e-06
3.6518e-08
1.26312e-06
-3.27077e-06
-3.98907e-09
1.28461e-06
-4.10324e-06
-2.37019e-08
1.31091e-06
-4.91111e-06
-3.57815e-08
1.28687e-06
-5.67019e-06
-4.08709e-08
1.20307e-06
-6.35175e-06
-4.13547e-08
1.05988e-06
-6.91944e-06
-3.89982e-08
8.58898e-07
-3.48273e-08
6.08119e-07
-7.33416e-06
-2.57903e-06
1.12082e-07
1.06298e-06
-3.34682e-06
7.95087e-08
1.12863e-06
-4.12551e-06
5.66312e-08
1.15847e-06
-4.89358e-06
4.20737e-08
1.13674e-06
-5.62511e-06
3.33376e-08
1.06207e-06
-6.29113e-06
2.85756e-08
9.35608e-07
-6.85737e-06
2.66139e-08
7.58585e-07
2.65955e-08
5.37625e-07
-7.28792e-06
-2.56378e-06
8.13987e-07
2.80049e-07
-3.27856e-06
8.95872e-07
2.59016e-07
-4.02169e-06
9.32295e-07
2.41061e-07
-4.76471e-06
9.2182e-07
2.24782e-07
-5.48127e-06
8.65893e-07
2.10198e-07
-6.14439e-06
7.6603e-07
1.97368e-07
-6.72418e-06
6.23491e-07
1.8633e-07
4.43419e-07
1.7704e-07
-7.19014e-06
-3.65203e-06
-2.56087e-07
1.747e-06
4.2828e-07
-4.91575e-06
-1.50341e-07
1.9498e-06
3.65038e-07
-6.27331e-06
-7.38318e-08
2.05676e-06
3.121e-07
-7.63769e-06
-2.14766e-08
2.04617e-06
2.66269e-07
-8.90522e-06
1.28238e-08
1.89671e-06
2.27035e-07
-9.95805e-06
3.44559e-08
1.59182e-06
1.93e-07
-1.0672e-05
4.87743e-08
1.123e-06
1.62479e-07
5.79585e-08
4.89093e-07
1.33666e-07
-1.09164e-05
-3.56975e-06
-1.92978e-07
2.25831e-06
-4.93789e-06
-9.57225e-08
2.43279e-06
-6.36881e-06
-2.20842e-08
2.52443e-06
-7.7882e-06
2.62281e-08
2.49164e-06
-9.09634e-06
5.8405e-08
2.30357e-06
-1.01667e-05
7.79902e-08
1.93662e-06
-1.08531e-05
8.71242e-08
1.37606e-06
8.79903e-08
6.12381e-07
-1.09929e-05
-3.27519e-06
-1.33676e-07
2.6395e-06
-4.76531e-06
-9.589e-08
2.76601e-06
-6.28032e-06
-6.14726e-08
2.85262e-06
-7.76418e-06
-3.46837e-08
2.81671e-06
-9.12001e-06
-1.45614e-08
2.61433e-06
-1.02179e-05
1.00838e-09
2.21439e-06
-1.09005e-05
9.52557e-09
1.59607e-06
1.47155e-08
7.41704e-07
-1.09861e-05
-3.06406e-06
-2.59841e-08
2.80616e-06
-4.63468e-06
-8.0235e-08
2.88996e-06
-6.19995e-06
-1.14586e-07
2.97463e-06
-7.71419e-06
-1.29419e-07
2.94144e-06
-9.09011e-06
-1.30327e-07
2.73792e-06
-1.01982e-05
-1.23241e-07
2.32949e-06
-1.08826e-05
-1.11286e-07
1.6927e-06
-9.59987e-08
8.06412e-07
-1.09524e-05
-3.33316e-06
-3.22126e-08
2.63063e-06
-4.78083e-06
-1.20728e-07
2.77258e-06
-6.27259e-06
-1.76891e-07
2.86489e-06
-7.7428e-06
-2.05822e-07
2.83332e-06
-9.08966e-06
-2.15764e-07
2.63524e-06
-1.01798e-05
-2.12879e-07
2.23957e-06
-1.08568e-05
-2.00538e-07
1.62509e-06
-1.80845e-07
7.72881e-07
-1.09368e-05
-3.58352e-06
-9.7334e-09
2.25743e-06
-4.92943e-06
-8.73669e-08
2.44143e-06
-6.34521e-06
-1.41641e-07
2.53912e-06
-7.75427e-06
-1.72492e-07
2.51254e-06
-9.05217e-06
-1.87184e-07
2.33136e-06
-1.01106e-05
-1.9073e-07
1.97176e-06
-1.07849e-05
-1.86337e-07
1.4185e-06
-1.76356e-07
6.59928e-07
-1.09118e-05
-3.66969e-06
1.74078e-06
1.93389e-07
-4.94503e-06
1.94496e-06
1.39028e-07
-6.30347e-06
2.05326e-06
9.57913e-08
-7.65901e-06
2.04491e-06
6.00447e-08
-8.91012e-06
1.89869e-06
3.11623e-08
-9.94168e-06
1.59819e-06
8.57262e-09
-1.06299e-05
1.13489e-06
-9.65919e-09
5.0624e-07
-2.37023e-08
-1.08456e-05
-4.12593e-06
5.31829e-08
1.17668e-07
2.86035e-06
-5.65777e-06
2.12779e-07
-6.03775e-09
3.27528e-06
-7.40545e-06
3.47303e-07
-1.33549e-07
3.59059e-06
-9.34335e-06
4.54594e-07
-2.42428e-07
3.77175e-06
-1.14415e-05
5.37624e-07
-3.34989e-07
3.792e-06
-1.36702e-05
5.93949e-07
-4.05752e-07
3.63216e-06
-1.59992e-05
6.13232e-07
-4.48748e-07
3.28746e-06
5.8833e-07
-4.58777e-07
-1.84529e-05
2.81277e-06
-4.17985e-06
3.11951e-08
3.68629e-06
-5.76924e-06
1.711e-07
4.06376e-06
-7.53828e-06
2.84904e-07
4.35559e-06
-9.47576e-06
3.72447e-07
4.51097e-06
-1.15599e-05
4.36194e-07
4.48878e-06
-1.37613e-05
4.75132e-07
4.25652e-06
-1.60587e-05
4.84634e-07
3.80185e-06
4.59473e-07
-1.85134e-05
3.19573e-06
-4.01068e-06
-3.23508e-08
4.27731e-06
-5.70392e-06
3.12413e-08
4.59887e-06
-7.52911e-06
8.7267e-08
4.8753e-06
-9.4995e-06
1.358e-07
5.02365e-06
-1.16066e-05
1.72248e-07
4.9852e-06
-1.38256e-05
1.95322e-07
4.71299e-06
-1.61346e-05
2.02992e-07
4.18643e-06
1.93544e-07
-1.86144e-05
3.48731e-06
-3.83151e-06
-3.90154e-08
4.52666e-06
-5.61552e-06
-9.44607e-08
4.79969e-06
-7.49426e-06
-1.25283e-07
5.06597e-06
-9.49474e-06
-1.35374e-07
5.21298e-06
-1.16221e-05
-1.34158e-07
5.1715e-06
-1.38566e-05
-1.28373e-07
4.88739e-06
-1.6177e-05
-1.20282e-07
4.33615e-06
-1.08964e-07
-1.86726e-05
3.60434e-06
-4.08408e-06
-1.43853e-07
4.26226e-06
-5.75405e-06
-2.48225e-07
4.59611e-06
-7.57637e-06
-3.16023e-07
4.87777e-06
-9.55287e-06
-3.55601e-07
5.02976e-06
-1.16697e-05
-3.76612e-07
4.99421e-06
-1.38993e-05
-3.83728e-07
4.72421e-06
-1.62185e-05
-3.75829e-07
4.19963e-06
-3.48944e-07
-1.87084e-05
3.50274e-06
-4.26727e-06
-1.61461e-07
3.67291e-06
-5.85625e-06
-2.75363e-07
4.05774e-06
-7.63454e-06
-3.52517e-07
4.35392e-06
-9.58716e-06
-4.03291e-07
4.51275e-06
-1.169e-05
-4.36453e-07
4.49379e-06
-1.39123e-05
-4.54684e-07
4.26467e-06
-1.6232e-05
-4.51659e-07
3.8138e-06
-4.23039e-07
-1.87102e-05
3.21216e-06
-4.26629e-06
4.85218e-08
2.84349e-06
-5.81698e-06
-3.60472e-08
3.25643e-06
-7.5794e-06
-1.05994e-07
3.56904e-06
-9.52441e-06
-1.61338e-07
3.74788e-06
-1.16264e-05
-2.02889e-07
3.767e-06
-1.386e-05
-2.30876e-07
3.60773e-06
-1.61989e-05
-2.44351e-07
3.26623e-06
-2.42917e-07
-1.86699e-05
2.79696e-06
-2.52089e-06
3.67945e-07
5.98233e-08
-1.59145e-07
-2.71996e-06
2.69594e-07
7.30653e-08
-1.44646e-07
-2.96603e-06
2.4982e-07
8.01968e-08
-8.39593e-08
-3.24178e-06
2.51744e-07
8.11875e-08
-5.70141e-08
-3.53232e-06
2.57726e-07
7.28903e-08
-4.00422e-08
-3.79831e-06
2.33195e-07
5.68695e-08
-2.2346e-08
-4.04616e-06
2.1924e-07
3.44259e-08
-5.88674e-09
2.18089e-07
7.50713e-09
5.91899e-09
-4.27875e-06
-2.69733e-06
3.33131e-07
7.40871e-08
-2.7633e-06
2.45728e-07
8.79486e-08
-2.90421e-06
2.88047e-07
1.03154e-07
-3.04461e-06
2.83302e-07
1.09502e-07
-3.16205e-06
2.70349e-07
1.04645e-07
-3.28757e-06
2.7091e-07
8.75786e-08
-3.43931e-06
2.98172e-07
7.17804e-08
3.064e-07
5.1062e-08
-3.58027e-06
-2.90791e-06
1.991e-07
1.06488e-07
-2.93084e-06
1.54108e-07
1.14567e-07
-2.97439e-06
1.88887e-07
1.42608e-07
-3.04602e-06
1.94147e-07
1.60229e-07
-3.16076e-06
2.1265e-07
1.72686e-07
-3.29383e-06
2.34171e-07
1.70854e-07
-3.3959e-06
2.42762e-07
1.5687e-07
2.41288e-07
1.35306e-07
-3.46693e-06
-3.01024e-06
9.45036e-08
1.51044e-07
-3.073e-06
6.87072e-08
1.48111e-07
-3.11153e-06
3.91985e-08
1.88817e-07
-3.16419e-06
2.14385e-08
2.25949e-07
-3.19461e-06
-1.35238e-08
2.55188e-07
-3.17968e-06
-5.16091e-08
2.70166e-07
-3.12966e-06
-7.77996e-08
2.71153e-07
-9.54112e-08
2.63928e-07
-3.05698e-06
-2.84841e-06
-5.1426e-08
1.17822e-07
-2.91113e-06
4.16057e-09
1.26109e-07
-2.96432e-06
-6.73428e-08
1.58934e-07
-3.03032e-06
-9.59911e-08
1.82545e-07
-3.11759e-06
-1.20873e-07
1.95128e-07
-3.2184e-06
-1.46444e-07
1.95518e-07
-3.29637e-06
-1.82303e-07
1.82883e-07
-2.02747e-07
1.60119e-07
-3.34937e-06
-2.70934e-06
-8.38445e-08
7.96162e-08
-2.7896e-06
-9.26204e-09
9.56202e-08
-2.89942e-06
-7.00092e-08
1.12174e-07
-3.01899e-06
-9.32181e-08
1.16151e-07
-3.14942e-06
-1.01733e-07
1.1189e-07
-3.28874e-06
-1.02445e-07
9.61411e-08
-3.44839e-06
-1.03526e-07
7.95173e-08
-1.13291e-07
5.62992e-08
-3.59474e-06
-2.56829e-06
6.19972e-08
8.92595e-08
-2.75162e-06
7.63661e-08
9.76845e-08
-3.00483e-06
8.50269e-08
9.80396e-08
-3.28953e-06
8.48318e-08
1.07185e-07
-3.58331e-06
7.54714e-08
1.18496e-07
-3.87494e-06
5.86729e-08
1.28806e-07
-4.15019e-06
3.48509e-08
1.35571e-07
6.55918e-09
1.37764e-07
-4.40679e-06
-1.89635e-06
1.88181e-07
3.29367e-07
-1.20292e-08
-2.35871e-06
1.80966e-07
3.61006e-07
-6.60153e-09
-2.82844e-06
1.79935e-07
3.67345e-07
2.44227e-09
-3.28253e-06
1.78769e-07
3.46398e-07
1.00004e-08
-3.70328e-06
1.77019e-07
3.00435e-07
1.60671e-08
-4.07589e-06
1.74753e-07
2.33923e-07
2.07185e-08
-4.39013e-06
1.71973e-07
1.52806e-07
2.38242e-08
1.69272e-07
6.37905e-08
2.53583e-08
-4.64114e-06
-1.90337e-06
1.81694e-07
4.43387e-07
-2.32141e-06
2.13103e-07
4.737e-07
-2.75776e-06
2.32245e-07
4.87068e-07
-3.18296e-06
2.43388e-07
4.69985e-07
-3.57433e-06
2.50703e-07
4.22148e-07
-3.91823e-06
2.56814e-07
3.49296e-07
-4.19551e-06
2.62434e-07
2.58514e-07
2.66682e-07
1.57666e-07
-4.39961e-06
-1.70261e-06
1.48067e-07
5.61627e-07
-2.11194e-06
1.61025e-07
5.75716e-07
-2.51323e-06
1.68844e-07
6.07215e-07
-2.89226e-06
1.70307e-07
6.12264e-07
-3.223e-06
1.69666e-07
5.84261e-07
-3.49009e-06
1.68367e-07
5.26255e-07
-3.6837e-06
1.6647e-07
4.46373e-07
1.64427e-07
3.54736e-07
-3.80095e-06
-1.53619e-06
2.09965e-07
6.47328e-07
-1.98632e-06
1.28166e-07
6.30898e-07
-2.38764e-06
8.31333e-08
6.75768e-07
-2.74163e-06
5.11716e-08
6.99037e-07
-3.03092e-06
2.25751e-08
6.91437e-07
-3.24221e-06
-4.26546e-09
6.53855e-07
-3.37339e-06
-2.41101e-08
5.92793e-07
-4.24004e-08
5.17877e-07
-3.42061e-06
-1.73235e-06
1.4666e-07
5.85628e-07
-2.12816e-06
6.14378e-08
5.88488e-07
-2.51218e-06
5.38025e-09
6.20651e-07
-2.87496e-06
-3.11259e-08
6.27443e-07
-3.19615e-06
-6.22133e-08
6.00922e-07
-3.45937e-06
-9.02345e-08
5.44543e-07
-3.65058e-06
-1.15158e-07
4.65014e-07
-1.37023e-07
3.73219e-07
-3.76911e-06
-2.01614e-06
7.78925e-08
4.54413e-07
-2.39777e-06
5.64841e-08
4.82011e-07
-2.80899e-06
3.29079e-08
4.95807e-07
-3.21899e-06
1.53343e-08
4.79562e-07
-3.60326e-06
1.39282e-09
4.32361e-07
-3.94585e-06
-1.03972e-08
3.58763e-07
-4.22654e-06
-2.08207e-08
2.65773e-07
-3.06355e-08
1.6243e-07
-4.43913e-06
-2.03516e-06
3.3713e-07
1.92551e-07
-2.45815e-06
3.70511e-07
1.85123e-07
-2.89968e-06
3.78547e-07
1.80832e-07
-3.33748e-06
3.58778e-07
1.79087e-07
-3.75162e-06
3.13252e-07
1.77623e-07
-4.12476e-06
2.46219e-07
1.75094e-07
-4.44543e-06
1.63722e-07
1.70861e-07
7.31865e-08
1.64777e-07
-4.70755e-06
-2.00136e-06
1.18622e-07
8.3525e-07
3.27602e-08
-2.72743e-06
1.51471e-07
9.10993e-07
2.4618e-08
-3.48737e-06
1.67033e-07
9.39227e-07
2.08291e-08
-4.24879e-06
1.70777e-07
9.18435e-07
1.84168e-08
-4.98276e-06
1.6779e-07
8.50062e-07
1.64287e-08
-5.66066e-06
1.61253e-07
7.3611e-07
1.44337e-08
-6.25196e-06
1.53142e-07
5.7868e-07
1.22958e-08
1.44831e-07
3.84108e-07
1.00693e-08
-6.7272e-06
-1.82666e-06
1.28003e-07
1.12084e-06
-2.56979e-06
1.82517e-07
1.18578e-06
-3.33593e-06
2.07667e-07
1.21246e-06
-4.09745e-06
2.15681e-07
1.18643e-06
-4.82684e-06
2.13492e-07
1.10565e-06
-5.493e-06
2.05644e-07
9.71002e-07
-6.06011e-06
1.94908e-07
7.83891e-07
1.83082e-07
5.51388e-07
-6.49207e-06
-1.4481e-06
7.73824e-08
1.35926e-06
-2.21135e-06
1.1317e-07
1.40798e-06
-2.97525e-06
1.28635e-07
1.45001e-06
-3.72062e-06
1.30702e-07
1.44254e-06
-4.42472e-06
1.25031e-07
1.37664e-06
-5.0594e-06
1.15621e-07
1.25084e-06
-5.58834e-06
1.05044e-07
1.06516e-06
9.49136e-08
8.26685e-07
-5.97183e-06
-1.10743e-06
1.32323e-07
1.48175e-06
-1.93537e-06
6.62087e-08
1.50586e-06
-2.71753e-06
2.69975e-08
1.5595e-06
-3.4549e-06
-1.85723e-09
1.56894e-06
-4.13806e-06
-2.10446e-08
1.52053e-06
-4.74237e-06
-3.7809e-08
1.41149e-06
-5.23461e-06
-5.07684e-08
1.24086e-06
-6.03825e-08
1.01549e-06
-5.57648e-06
-1.38006e-06
1.07819e-07
1.37879e-06
-2.1561e-06
1.4131e-08
1.41626e-06
-2.92986e-06
-3.42145e-08
1.45546e-06
-3.68361e-06
-6.67332e-08
1.44589e-06
-4.39319e-06
-8.82449e-08
1.37749e-06
-5.03333e-06
-1.01771e-07
1.24851e-06
-5.56862e-06
-1.09622e-07
1.05914e-06
-1.13488e-07
8.16808e-07
-5.9582e-06
-1.83739e-06
1.00896e-07
1.131e-06
-2.57593e-06
4.36162e-08
1.19066e-06
-3.3363e-06
7.29721e-09
1.21471e-06
-4.09556e-06
-1.31155e-08
1.18514e-06
-4.82512e-06
-2.60169e-08
1.09955e-06
-5.49306e-06
-3.42403e-08
9.59055e-07
-6.06289e-06
-3.9573e-08
7.65521e-07
-4.33516e-08
5.26776e-07
-6.49736e-06
-2.03653e-06
8.4534e-07
2.1137e-07
-2.73791e-06
9.22027e-07
1.9304e-07
-3.483e-06
9.5069e-07
1.80189e-07
-4.23642e-06
9.29082e-07
1.69938e-07
-4.96817e-06
8.58601e-07
1.60324e-07
-5.64825e-06
7.41432e-07
1.50571e-07
-6.2446e-06
5.80001e-07
1.40474e-07
3.81168e-07
1.30059e-07
-6.72602e-06
-3.32167e-06
1.77512e-07
1.7651e-06
3.84166e-08
-4.61592e-06
2.20232e-07
1.96635e-06
1.89951e-08
-5.98729e-06
2.34574e-07
2.07024e-06
5.75078e-09
-7.34842e-06
2.29473e-07
2.05625e-06
-6.27328e-09
-8.59701e-06
2.12775e-07
1.90251e-06
-1.66782e-08
-9.6164e-06
1.89462e-07
1.59179e-06
-2.57375e-08
-1.02816e-05
1.62625e-07
1.11507e-06
-3.38619e-08
1.34701e-07
4.71163e-07
-4.12611e-08
-1.04622e-05
-3.06743e-06
1.96742e-07
2.31067e-06
-4.4048e-06
2.43886e-07
2.49979e-06
-5.81507e-06
2.58111e-07
2.59906e-06
-7.21968e-06
2.47187e-07
2.57314e-06
-8.51269e-06
2.20874e-07
2.39044e-06
-9.5631e-06
1.857e-07
2.02516e-06
-1.02224e-05
1.45585e-07
1.46028e-06
1.0307e-07
6.83596e-07
-1.0323e-05
-2.59201e-06
8.04696e-08
2.71082e-06
-3.94981e-06
1.19947e-07
2.88962e-06
-5.37589e-06
1.31707e-07
3.00238e-06
-6.80075e-06
1.24291e-07
2.99032e-06
-8.12088e-06
1.06913e-07
2.81068e-06
-9.19891e-06
8.53434e-08
2.42916e-06
-9.87247e-06
6.26079e-08
1.82167e-06
4.02075e-08
9.64391e-07
-9.94734e-06
-2.18459e-06
4.58035e-08
2.88393e-06
-3.60227e-06
-4.12782e-09
3.04685e-06
-5.05177e-06
-2.75428e-08
3.16827e-06
-6.48408e-06
-4.47227e-08
3.1704e-06
-7.80785e-06
-5.3313e-08
3.00453e-06
-8.88882e-06
-5.48299e-08
2.63269e-06
-9.56159e-06
-5.10688e-08
2.02724e-06
-4.35813e-08
1.15716e-06
-9.61949e-06
-2.48118e-06
-1.49735e-08
2.7235e-06
-3.87731e-06
-8.35223e-08
2.89153e-06
-5.32502e-06
-1.23398e-07
2.99893e-06
-6.76763e-06
-1.38007e-07
2.98169e-06
-8.10483e-06
-1.35329e-07
2.79658e-06
-9.19957e-06
-1.21295e-07
2.4096e-06
-9.88862e-06
-9.98831e-08
1.79696e-06
-7.38328e-08
9.36031e-07
-9.97749e-06
-3.00044e-06
1.54363e-08
2.31865e-06
-4.35039e-06
-4.39077e-08
2.50081e-06
-5.77289e-06
-8.01442e-08
2.5942e-06
-7.19175e-06
-9.53935e-08
2.56144e-06
-8.50105e-06
-9.76403e-08
2.37109e-06