/*--------------------------------*- C++ -*----------------------------------*\
| =========                 |                                                 |
| \\      /  F ield         | OpenFOAM: The Open Source CFD Toolbox           |
|  \\    /   O peration     | Version:  plus.master.MPPICInterFoam            |
|   \\  /    A nd           | Web:      www.OpenFOAM.com                      |
|    \\/     M anipulation  |                                                 |
\*---------------------------------------------------------------------------*/
FoamFile
{
    version     2.0;
    format      ascii;
    class       volScalarField;
    location    "6";
    object      p;
}
// * * * * * * * * * * * * * * * * * * * * * * * * * * * * * * * * * * * * * //

dimensions      [1 -1 -2 0 0 0 0];

internalField   nonuniform List<scalar> 
11821
(
5629.29
5629.29
5627.96
5627.03
5628.07
5629.43
5629.25
5628.94
5638.33
5630.91
5628.46
5631.52
5638.64
5628.62
5627.28
5630.6
5629.24
5625.24
5629.88
5631.35
5627.02
5626.47
5627.68
5625
5626
5625.82
5629.17
5626.6
5627.65
5630.6
5629.24
5625.84
5629.8
5631.3
5627.45
5629.26
5638.26
5630.96
5628.76
5631.48
5638.6
5629.09
5629.31
5628.61
5626.94
5626.41
5627.34
5629.11
5629.29
5492.12
5488.18
5485.25
5484.61
5486.13
5489.3
5492.95
5488.29
5484.52
5479.14
5477.97
5479.99
5484.99
5489.7
5485.36
5478.52
5488.48
5489.25
5487.89
5479.77
5487.27
5484.31
5478.37
5490.13
5494.4
5487.49
5478.99
5486.74
5485.74
5479.15
5489.06
5490.34
5488.39
5480.43
5487.71
5488.96
5485.36
5479.75
5479.68
5481
5486.21
5490.38
5492.84
5489.38
5487
5486.74
5487.82
5490.44
5493.66
5367.2
5364.2
5361.34
5359.71
5361.48
5363.89
5366.65
5364.87
5359.57
5355.59
5353.69
5353.81
5358.84
5364
5363.38
5355.69
5365.35
5364.12
5361.92
5354.37
5361.93
5362.79
5357.18
5367.14
5366.97
5360.47
5352.29
5360.88
5363.67
5356.2
5365.54
5364.46
5361.78
5355.26
5362.29
5365.44
5360.74
5356.36
5354.45
5355.47
5360.18
5364.62
5367.81
5365.42
5363.78
5362.79
5363.07
5364.88
5367.18
5248.29
5249.34
5249.85
5250.27
5248.94
5248.21
5247.15
5249.83
5250.64
5251.81
5254.81
5249.84
5248.79
5248.16
5251.4
5252.33
5264.84
5267.32
5260.96
5249.71
5248.73
5252.38
5255.05
5268.87
5268.76
5262.6
5250.44
5248.89
5250.69
5251.97
5263.18
5264.19
5257.8
5249.15
5248.41
5249.26
5250.32
5251.38
5251.22
5249.13
5248.4
5247.67
5247.81
5248.95
5249.93
5249.56
5248.73
5247.69
5246.64
5111.97
5115.6
5118.71
5121.53
5118.49
5115.57
5111.97
5115.03
5119.46
5123.95
5132.42
5123.76
5119.55
5115.24
5117.35
5122.72
5136.78
5149.07
5136.26
5123.17
5117.46
5118.2
5124.04
5143.76
5151.71
5142.94
5126.39
5118.82
5116.09
5120.52
5130.55
5140.35
5130.27
5120.98
5116.32
5113.29
5116.96
5120.5
5124.4
5120.37
5117.18
5113.53
5110.16
5113.09
5115.57
5117.36
5115.63
5113.2
5110.2
5629.8
5630.41
5630.92
5631.46
5631.96
5632.43
5632.88
5633.32
5628.91
5630.07
5630.61
5631.19
5631.75
5632.27
5632.78
5633.27
5628.03
5629.9
5630.39
5630.97
5631.55
5632.14
5632.72
5633.24
5627.85
5629.83
5630.33
5630.93
5631.53
5632.09
5632.67
5633.21
5628.19
5629.88
5630.51
5631.08
5631.66
5632.23
5632.8
5633.33
5629.07
5630.04
5630.76
5631.31
5631.85
5632.37
5632.88
5633.37
5629.93
5630.6
5631.15
5631.64
5632.12
5632.58
5633.01
5633.43
5495.8
5497.68
5499.21
5500.46
5501.49
5502.36
5503.09
5503.72
5493.84
5496.47
5498.43
5499.97
5501.2
5502.2
5503.04
5503.75
5492.47
5495.64
5497.91
5499.65
5501.01
5502.11
5503.02
5503.78
5492.11
5495.44
5497.81
5499.6
5501
5502.13
5503.06
5503.85
5492.77
5495.86
5498.1
5499.8
5501.14
5502.22
5503.12
5503.88
5494.31
5496.85
5498.74
5500.22
5501.41
5502.38
5503.19
5503.89
5496.33
5498.11
5499.57
5500.77
5501.76
5502.59
5503.29
5503.9
5368.63
5369.95
5371.03
5371.92
5372.64
5373.24
5373.77
5374.26
5367.2
5369.07
5370.45
5371.53
5372.4
5373.1
5373.69
5374.25
5366.15
5368.5
5370.09
5371.3
5372.25
5373
5373.64
5374.23
5365.71
5368.34
5370.02
5371.26
5372.23
5373
5373.64
5374.23
5366.34
5368.63
5370.2
5371.39
5372.31
5373.06
5373.68
5374.25
5367.54
5369.33
5370.66
5371.7
5372.53
5373.2
5373.77
5374.31
5369
5370.24
5371.27
5372.12
5372.8
5373.37
5373.87
5374.34
5245.84
5245.04
5244.59
5244.4
5244.49
5244.89
5245.67
5246.8
5246.8
5245.62
5244.84
5244.48
5244.45
5244.81
5245.61
5246.83
5247.52
5246.16
5245.09
5244.53
5244.41
5244.72
5245.51
5246.79
5247.85
5246.46
5245.25
5244.59
5244.42
5244.71
5245.51
5246.79
5247.2
5245.91
5244.93
5244.43
5244.35
5244.69
5245.51
5246.8
5246.4
5245.34
5244.66
5244.36
5244.39
5244.8
5245.64
5246.9
5245.49
5244.81
5244.46
5244.36
5244.52
5244.99
5245.83
5247.02
5108.51
5106.04
5104.01
5102.23
5100.57
5098.63
5096.19
5095.02
5111.04
5107.73
5105.08
5102.93
5101.03
5098.91
5096.19
5094.7
5112.77
5108.9
5105.79
5103.35
5101.26
5098.99
5096.1
5094.42
5113.74
5109.53
5106.11
5103.5
5101.34
5099.02
5096.06
5094.33
5111.9
5108.27
5105.31
5102.97
5100.95
5098.72
5095.85
5094.22
5109.76
5106.76
5104.3
5102.27
5100.46
5098.38
5095.7
5094.26
5107.26
5105.02
5103.13
5101.45
5099.86
5097.96
5095.53
5094.37
5629.94
5630.44
5630.98
5631.51
5632
5632.49
5632.97
5633.41
5629.43
5629.98
5630.57
5631.12
5631.52
5632.02
5632.63
5633.12
5628.72
5629.57
5630.16
5630.84
5631.5
5632.07
5632.59
5633.1
5628.28
5629.46
5630.16
5630.91
5631.64
5632.3
5632.9
5633.45
5628.5
5629.65
5630.26
5630.92
5631.56
5632.14
5632.67
5633.18
5629.28
5630.03
5630.53
5631.02
5631.48
5632.02
5632.63
5633.12
5629.85
5630.42
5630.92
5631.41
5631.91
5632.41
5632.88
5633.33
5495.75
5497.71
5499.3
5500.58
5501.63
5502.5
5503.23
5503.86
5493.44
5496.27
5498.36
5499.97
5501.24
5502.26
5503.11
5503.82
5491.68
5495.2
5497.69
5499.55
5500.99
5502.13
5503.04
5503.78
5490.99
5494.81
5497.48
5499.46
5500.98
5502.18
5503.13
5503.9
5491.42
5495.03
5497.57
5499.48
5500.94
5502.1
5503.02
5503.78
5492.99
5495.95
5498.12
5499.78
5501.09
5502.14
5503.01
5503.74
5495.26
5497.31
5498.97
5500.31
5501.4
5502.3
5503.06
5503.7
5369.53
5370.73
5371.72
5372.53
5373.18
5373.72
5374.19
5374.64
5368.25
5369.92
5371.17
5372.15
5372.93
5373.55
5374.09
5374.58
5367.38
5369.46
5370.89
5371.98
5372.83
5373.51
5374.07
5374.6
5367.22
5369.46
5370.91
5372
5372.86
5373.55
5374.13
5374.66
5367.27
5369.42
5370.87
5371.97
5372.83
5373.52
5374.1
5374.64
5367.95
5369.74
5371.05
5372.08
5372.89
5373.55
5374.1
5374.61
5369.16
5370.45
5371.52
5372.38
5373.07
5373.65
5374.14
5374.61
5246.52
5245.77
5245.34
5245.16
5245.26
5245.67
5246.45
5247.56
5247.57
5246.37
5245.6
5245.21
5245.16
5245.51
5246.29
5247.49
5248.75
5247.13
5246
5245.36
5245.17
5245.42
5246.17
5247.4
5250.04
5247.96
5246.44
5245.58
5245.26
5245.43
5246.13
5247.32
5249.25
5247.45
5246.2
5245.5
5245.27
5245.49
5246.23
5247.45
5248.01
5246.69
5245.83
5245.38
5245.29
5245.59
5246.34
5247.5
5246.84
5246
5245.51
5245.28
5245.32
5245.68
5246.41
5247.48
5107.4
5105.32
5103.53
5101.93
5100.4
5098.56
5096.18
5095.04
5109.61
5106.82
5104.53
5102.62
5100.9
5098.93
5096.35
5094.98
5111.63
5108.15
5105.37
5103.15
5101.22
5099.09
5096.34
5094.87
5113.1
5109.11
5105.98
5103.56
5101.51
5099.3
5096.51
5095.08
5112.52
5108.81
5105.89
5103.58
5101.61
5099.45
5096.7
5095.19
5110.88
5107.82
5105.37
5103.36
5101.58
5099.57
5096.98
5095.58
5108.69
5106.4
5104.47
5102.77
5101.18
5099.32
5096.95
5095.8
5629.92
5630.45
5630.98
5631.49
5632
5632.5
5632.98
5633.44
5629.64
5630.22
5630.72
5631.25
5631.76
5632.25
5632.74
5633.23
5629
5630.03
5630.64
5631.34
5631.98
5632.52
5633
5633.46
5628.85
5630.06
5630.64
5631.34
5632.03
5632.68
5633.28
5633.81
5629.2
5630.09
5630.57
5631.21
5631.82
5632.35
5632.84
5633.3
5629.81
5630.35
5630.78
5631.29
5631.8
5632.26
5632.74
5633.24
5630.02
5630.52
5631.02
5631.57
5632.1
5632.61
5633.11
5633.57
5495.28
5497.35
5499.01
5500.35
5501.44
5502.34
5503.09
5503.73
5493.05
5496.05
5498.23
5499.89
5501.18
5502.21
5503.04
5503.74
5491.52
5495.22
5497.82
5499.74
5501.22
5502.37
5503.28
5504.01
5491.11
5495
5497.73
5499.74
5501.26
5502.44
5503.38
5504.13
5491.9
5495.38
5497.86
5499.71
5501.13
5502.25
5503.14
5503.87
5493.64
5496.39
5498.43
5500
5501.23
5502.22
5503.04
5503.72
5495.78
5497.69
5499.23
5500.49
5501.52
5502.38
5503.11
5503.74
5369.1
5370.44
5371.52
5372.39
5373.08
5373.65
5374.14
5374.59
5367.53
5369.51
5370.93
5372.02
5372.87
5373.54
5374.09
5374.59
5366.3
5368.95
5370.7
5371.97
5372.93
5373.68
5374.3
5374.84
5365.87
5368.75
5370.61
5371.93
5372.93
5373.71
5374.36
5374.93
5366.11
5368.7
5370.44
5371.71
5372.68
5373.44
5374.07
5374.62
5367.21
5369.18
5370.62
5371.73
5372.6
5373.29
5373.86
5374.38
5368.66
5370.03
5371.13
5372.02
5372.74
5373.33
5373.84
5374.32
5246.78
5246
5245.5
5245.25
5245.25
5245.56
5246.24
5247.27
5247.69
5246.47
5245.6
5245.11
5244.96
5245.17
5245.79
5246.82
5248.55
5247.21
5246.09
5245.41
5245.14
5245.27
5245.86
5246.87
5249.12
5247.8
5246.44
5245.56
5245.18
5245.26
5245.81
5246.79
5247.94
5246.72
5245.65
5245
5244.76
5244.93
5245.53
5246.55
5246.87
5245.77
5244.98
5244.55
5244.45
5244.69
5245.34
5246.37
5245.9
5245.2
5244.74
5244.53
5244.56
5244.9
5245.59
5246.65
5108.95
5106.77
5104.83
5103.09
5101.45
5099.53
5097.14
5096.09
5111.43
5108.34
5105.82
5103.77
5101.95
5099.92
5097.36
5096.34
5113.94
5110.08
5106.93
5104.52
5102.54
5100.37
5097.71
5096.89
5115.82
5111.33
5107.66
5104.95
5102.82
5100.59
5097.91
5097.24
5113.77
5109.91
5106.76
5104.36
5102.4
5100.19
5097.5
5096.66
5111.33
5108.17
5105.63
5103.54
5101.71
5099.63
5097.06
5096.06
5108.86
5106.61
5104.58
5102.77
5101.06
5099.07
5096.64
5095.59
5630.11
5630.67
5631.19
5631.7
5632.2
5632.7
5633.18
5633.62
5629.79
5630.56
5630.99
5631.49
5631.96
5632.44
5632.93
5633.41
5629.11
5630.48
5630.75
5631.36
5631.93
5632.46
5632.95
5633.4
5628.52
5630.21
5630.64
5631.34
5632.03
5632.67
5633.25
5633.76
5628.73
5630.37
5630.69
5631.33
5631.97
5632.55
5633.08
5633.56
5629.35
5630.4
5630.81
5631.39
5631.94
5632.46
5632.94
5633.39
5629.98
5630.6
5631.1
5631.6
5632.08
5632.55
5633.01
5633.45
5496.36
5498.16
5499.62
5500.81
5501.8
5502.63
5503.33
5503.93
5494.45
5497.01
5498.9
5500.37
5501.54
5502.49
5503.27
5503.93
5492.98
5496.15
5498.41
5500.11
5501.42
5502.47
5503.31
5504
5492.37
5495.83
5498.27
5500.09
5501.48
5502.59
5503.47
5504.19
5492.62
5496
5498.36
5500.12
5501.49
5502.56
5503.42
5504.12
5493.87
5496.67
5498.7
5500.25
5501.48
5502.46
5503.27
5503.95
5495.87
5497.82
5499.39
5500.67
5501.71
5502.58
5503.31
5503.94
5369.07
5370.33
5371.37
5372.2
5372.88
5373.44
5373.93
5374.39
5367.83
5369.6
5370.91
5371.93
5372.73
5373.37
5373.92
5374.43
5367.03
5369.26
5370.77
5371.89
5372.75
5373.43
5374
5374.51
5366.98
5369.37
5370.94
5372.07
5372.94
5373.63
5374.2
5374.72
5367.49
5369.64
5371.08
5372.16
5373
5373.66
5374.22
5374.72
5368.28
5370
5371.25
5372.23
5373
5373.62
5374.14
5374.63
5369.56
5370.77
5371.75
5372.56
5373.21
5373.75
5374.22
5374.66
5245.54
5244.93
5244.58
5244.47
5244.62
5245.07
5245.9
5247.08
5246.34
5245.33
5244.66
5244.35
5244.38
5244.77
5245.59
5246.84
5247.38
5246.11
5245.12
5244.57
5244.44
5244.75
5245.53
5246.77
5248.25
5246.85
5245.63
5244.89
5244.64
5244.86
5245.58
5246.76
5248.13
5246.68
5245.58
5244.96
5244.78
5245.04
5245.8
5247.02
5247.23
5246.06
5245.28
5244.89
5244.85
5245.18
5245.95
5247.15
5246.45
5245.73
5245.29
5245.11
5245.19
5245.6
5246.36
5247.47
5107.29
5105.18
5103.3
5101.62
5100.03
5098.14
5095.73
5094.61
5109.28
5106.4
5104.04
5102.11
5100.38
5098.42
5095.89
5094.65
5111.18
5107.64
5104.75
5102.49
5100.58
5098.5
5095.86
5094.71
5112.41
5108.49
5105.25
5102.77
5100.75
5098.6
5095.92
5094.9
5111.18
5107.71
5104.85
5102.62
5100.74
5098.67
5096.06
5094.92
5109.3
5106.51
5104.21
5102.32
5100.64
5098.71
5096.22
5094.99
5107.36
5105.33
5103.53
5101.92
5100.39
5098.55
5096.18
5095.07
5633.73
5633.74
5633.7
5633.66
5633.78
5633.82
5633.83
5504.28
5504.35
5504.41
5504.49
5504.51
5504.47
5504.44
5374.78
5374.79
5374.79
5374.78
5374.79
5374.84
5374.83
5247.99
5248.11
5248.12
5248.14
5248.14
5248.21
5248.27
5099.3
5099.13
5099.01
5099
5098.87
5098.79
5098.71
5633.8
5633.55
5633.54
5633.91
5633.62
5633.55
5633.73
5504.41
5504.41
5504.37
5504.49
5504.37
5504.34
5504.26
5375.12
5375.05
5375.09
5375.15
5375.14
5375.1
5375.08
5248.69
5248.71
5248.67
5248.56
5248.73
5248.69
5248.57
5099.28
5099.47
5099.65
5100.15
5099.9
5099.98
5099.99
5633.84
5633.67
5633.86
5634.24
5633.69
5633.67
5633.97
5504.28
5504.29
5504.56
5504.69
5504.42
5504.27
5504.29
5375.04
5375.04
5375.31
5375.42
5375.09
5374.85
5374.81
5248.37
5247.88
5247.83
5247.73
5247.52
5247.45
5247.8
5100.43
5101.49
5103.07
5103.94
5102.81
5101.29
5100.02
5634
5633.83
5633.8
5634.18
5633.96
5633.8
5633.84
5504.47
5504.48
5504.54
5504.74
5504.66
5504.5
5504.48
5374.87
5374.92
5374.98
5375.19
5375.18
5375.09
5375.12
5248.31
5248.12
5248.02
5247.93
5248.26
5248.38
5248.59
5098.96
5099.36
5100.09
5100.79
5100.28
5099.64
5099.34
5634.37
5635.09
5635.72
5636.26
5636.7
5637.05
5637.32
5637.5
5634.47
5635.22
5635.82
5636.35
5636.77
5637.1
5637.35
5637.53
5634.43
5635.24
5635.85
5636.35
5636.77
5637.1
5637.35
5637.53
5634.39
5635.25
5635.91
5636.43
5636.81
5637.11
5637.35
5637.53
5634.46
5635.26
5635.89
5636.36
5636.77
5637.09
5637.34
5637.51
5634.52
5635.25
5635.84
5636.35
5636.76
5637.08
5637.32
5637.5
5634.46
5635.16
5635.77
5636.28
5636.7
5637.03
5637.28
5637.45
5505.1
5505.9
5506.5
5506.97
5507.34
5507.63
5507.85
5508.02
5505.19
5505.99
5506.59
5507.05
5507.41
5507.69
5507.91
5508.07
5505.25
5506.04
5506.63
5507.08
5507.43
5507.71
5507.92
5508.07
5505.37
5506.11
5506.69
5507.13
5507.47
5507.73
5507.93
5508.08
5505.37
5506.1
5506.66
5507.1
5507.44
5507.71
5507.91
5508.06
5505.29
5506.06
5506.63
5507.07
5507.41
5507.68
5507.89
5508.03
5505.23
5506
5506.57
5507.01
5507.35
5507.62
5507.82
5507.97
5375.59
5376.53
5377.23
5377.73
5378.08
5378.33
5378.52
5378.64
5375.61
5376.59
5377.3
5377.81
5378.16
5378.41
5378.59
5378.71
5375.6
5376.59
5377.32
5377.83
5378.18
5378.43
5378.6
5378.72
5375.57
5376.59
5377.33
5377.84
5378.2
5378.45
5378.62
5378.73
5375.57
5376.59
5377.31
5377.83
5378.18
5378.42
5378.59
5378.7
5375.65
5376.61
5377.31
5377.81
5378.16
5378.4
5378.57
5378.68
5375.61
5376.58
5377.27
5377.76
5378.1
5378.34
5378.5
5378.61
5249.16
5249.1
5249.05
5249.05
5249.09
5249.15
5249.21
5249.27
5249.33
5249.24
5249.17
5249.17
5249.2
5249.25
5249.3
5249.35
5249.37
5249.3
5249.22
5249.21
5249.23
5249.28
5249.33
5249.36
5249.39
5249.34
5249.26
5249.25
5249.27
5249.3
5249.35
5249.38
5249.4
5249.34
5249.26
5249.23
5249.25
5249.28
5249.32
5249.36
5249.45
5249.36
5249.26
5249.22
5249.23
5249.26
5249.3
5249.33
5249.49
5249.34
5249.22
5249.17
5249.17
5249.19
5249.22
5249.25
5109.17
5114.73
5117.18
5118.41
5119.07
5119.44
5119.65
5119.77
5109.03
5114.71
5117.23
5118.48
5119.15
5119.52
5119.73
5119.84
5108.92
5114.67
5117.22
5118.49
5119.17
5119.54
5119.74
5119.85
5108.9
5114.67
5117.23
5118.5
5119.18
5119.55
5119.76
5119.87
5108.83
5114.63
5117.2
5118.48
5119.16
5119.53
5119.73
5119.84
5108.81
5114.62
5117.19
5118.47
5119.14
5119.51
5119.71
5119.82
5108.82
5114.61
5117.17
5118.43
5119.09
5119.44
5119.63
5119.74
5634.41
5635.13
5635.75
5636.25
5636.65
5636.97
5637.21
5637.38
5634.24
5635.02
5635.66
5636.17
5636.57
5636.88
5637.09
5637.24
5634.18
5634.88
5635.47
5635.95
5636.33
5636.64
5636.85
5636.98
5634.56
5635.25
5635.8
5636.22
5636.53
5636.78
5637.01
5637.11
5634.24
5634.95
5635.53
5636.01
5636.38
5636.67
5636.89
5637.01
5634.22
5635
5635.65
5636.17
5636.6
5636.93
5637.16
5637.32
5634.33
5635.07
5635.71
5636.24
5636.67
5637
5637.26
5637.44
5505.19
5505.93
5506.48
5506.89
5507.22
5507.47
5507.66
5507.8
5505.2
5505.96
5506.51
5506.91
5507.21
5507.44
5507.61
5507.73
5505.15
5505.9
5506.43
5506.82
5507.1
5507.3
5507.43
5507.52
5505.26
5505.98
5506.5
5506.88
5507.15
5507.36
5507.52
5507.65
5505.15
5505.91
5506.45
5506.84
5507.14
5507.34
5507.47
5507.56
5505.17
5505.94
5506.51
5506.93
5507.25
5507.49
5507.67
5507.8
5505.06
5505.84
5506.42
5506.87
5507.21
5507.48
5507.69
5507.84
5375.9
5376.7
5377.29
5377.7
5377.99
5378.18
5378.31
5378.4
5375.75
5376.62
5377.24
5377.67
5377.96
5378.15
5378.28
5378.37
5375.81
5376.57
5377.19
5377.61
5377.87
5378.03
5378.11
5378.14
5375.88
5376.64
5377.2
5377.59
5377.86
5378.04
5378.16
5378.25
5375.87
5376.64
5377.26
5377.66
5377.92
5378.08
5378.16
5378.19
5375.84
5376.68
5377.28
5377.71
5378
5378.2
5378.34
5378.43
5375.86
5376.67
5377.27
5377.7
5377.99
5378.2
5378.35
5378.45
5249.66
5249.43
5249.23
5249.11
5249.05
5249.02
5249.02
5249.03
5249.8
5249.53
5249.3
5249.17
5249.09
5249.05
5249.03
5249.02
5249.78
5249.67
5249.42
5249.24
5249.1
5248.98
5248.87
5248.77
5249.73
5249.68
5249.5
5249.34
5249.2
5249.11
5249.03
5248.97
5249.8
5249.67
5249.42
5249.25
5249.12
5249.02
5248.93
5248.83
5249.72
5249.47
5249.27
5249.16
5249.1
5249.08
5249.07
5249.07
5249.51
5249.31
5249.14
5249.06
5249.03
5249.03
5249.05
5249.07
5109.17
5114.78
5117.22
5118.41
5119.01
5119.32
5119.47
5119.55
5109.26
5114.84
5117.27
5118.44
5119.03
5119.32
5119.46
5119.52
5109.4
5114.96
5117.38
5118.51
5119.05
5119.26
5119.3
5119.22
5109.76
5115.23
5117.62
5118.75
5119.29
5119.51
5119.56
5119.52
5109.57
5115.06
5117.43
5118.55
5119.08
5119.3
5119.36
5119.32
5109.61
5115.03
5117.38
5118.51
5119.08
5119.37
5119.51
5119.57
5109.64
5115
5117.33
5118.47
5119.05
5119.36
5119.53
5119.61
5634.44
5635.14
5635.74
5636.24
5636.66
5636.99
5637.26
5637.46
5634.35
5635.1
5635.71
5636.2
5636.56
5636.85
5637.09
5637.28
5634.44
5635.11
5635.68
5636.15
5636.51
5636.78
5636.99
5637.12
5634.85
5635.49
5636
5636.4
5636.71
5636.95
5637.13
5637.24
5634.27
5634.95
5635.55
5636.04
5636.42
5636.71
5636.93
5637.08
5634.3
5635.09
5635.72
5636.18
5636.56
5636.86
5637.09
5637.28
5634.56
5635.24
5635.81
5636.29
5636.69
5637.01
5637.26
5637.45
5505.06
5505.85
5506.43
5506.86
5507.21
5507.49
5507.7
5507.87
5505.07
5505.85
5506.44
5506.85
5507.16
5507.41
5507.6
5507.76
5505.28
5505.99
5506.51
5506.88
5507.16
5507.38
5507.54
5507.66
5505.41
5506.1
5506.61
5506.99
5507.27
5507.48
5507.64
5507.76
5505.15
5505.87
5506.4
5506.79
5507.09
5507.31
5507.48
5507.6
5505.04
5505.81
5506.41
5506.83
5507.16
5507.42
5507.62
5507.78
5505.09
5505.86
5506.45
5506.91
5507.26
5507.55
5507.77
5507.94
5375.75
5376.57
5377.19
5377.64
5377.96
5378.2
5378.37
5378.49
5375.73
5376.46
5377.02
5377.48
5377.81
5378.05
5378.22
5378.33
5375.99
5376.66
5377.17
5377.53
5377.81
5378.03
5378.2
5378.31
5376.11
5376.8
5377.29
5377.64
5377.88
5378.05
5378.18
5378.26
5375.79
5376.49
5377.01
5377.4
5377.69
5377.91
5378.08
5378.21
5375.57
5376.34
5376.95
5377.43
5377.77
5378.03
5378.22
5378.35
5375.57
5376.45
5377.12
5377.61
5377.97
5378.24
5378.43
5378.56
5249.37
5249.22
5249.09
5249.03
5249.03
5249.06
5249.1
5249.14
5249.04
5249.09
5248.98
5248.9
5248.86
5248.86
5248.89
5248.93
5248.81
5249
5249.06
5249.11
5249.17
5249.21
5249.24
5249.25
5248.64
5248.82
5248.86
5248.85
5248.85
5248.85
5248.84
5248.84
5248.53
5248.76
5248.84
5248.9
5248.96
5249
5249.04
5249.05
5248.66
5248.81
5248.8
5248.79
5248.81
5248.85
5248.91
5248.96
5248.92
5248.95
5248.93
5248.96
5249.01
5249.08
5249.15
5249.21
5109.87
5115.03
5117.29
5118.41
5119.02
5119.35
5119.54
5119.65
5110.42
5115.14
5117.2
5118.24
5118.82
5119.17
5119.38
5119.5
5111.63
5115.77
5117.57
5118.5
5119.05
5119.39
5119.59
5119.7
5112.2
5116
5117.62
5118.4
5118.84
5119.11
5119.29
5119.41
5111.43
5115.56
5117.37
5118.3
5118.82
5119.17
5119.39
5119.52
5110.25
5115
5117.02
5118.09
5118.72
5119.1
5119.34
5119.49
5109.56
5114.8
5117.13
5118.32
5118.97
5119.35
5119.58
5119.71
5634.57
5635.24
5635.82
5636.3
5636.68
5636.99
5637.22
5637.39
5634.44
5635.12
5635.71
5636.18
5636.56
5636.84
5637.05
5637.2
5634.37
5635.02
5635.57
5636.03
5636.4
5636.67
5636.86
5637
5634.77
5635.39
5635.89
5636.29
5636.6
5636.84
5637.02
5637.17
5634.53
5635.16
5635.7
5636.13
5636.47
5636.73
5636.91
5637.03
5634.42
5635.11
5635.7
5636.19
5636.57
5636.87
5637.08
5637.23
5634.44
5635.14
5635.74
5636.24
5636.65
5636.96
5637.2
5637.38
5505.24
5505.99
5506.54
5506.96
5507.29
5507.54
5507.74
5507.88
5505.24
5505.97
5506.5
5506.9
5507.2
5507.42
5507.59
5507.72
5505.26
5505.95
5506.46
5506.84
5507.12
5507.31
5507.44
5507.53
5505.44
5506.11
5506.6
5506.95
5507.21
5507.41
5507.56
5507.67
5505.37
5506.05
5506.55
5506.91
5507.17
5507.35
5507.48
5507.56
5505.27
5506
5506.52
5506.91
5507.2
5507.42
5507.59
5507.72
5505.24
5505.96
5506.5
5506.9
5507.22
5507.47
5507.66
5507.8
5375.62
5376.56
5377.23
5377.71
5378.03
5378.25
5378.4
5378.5
5375.66
5376.49
5377.11
5377.57
5377.88
5378.1
5378.24
5378.33
5375.69
5376.44
5377.01
5377.44
5377.74
5377.94
5378.05
5378.1
5375.88
5376.6
5377.14
5377.53
5377.81
5377.99
5378.11
5378.19
5375.87
5376.59
5377.15
5377.56
5377.84
5378.01
5378.12
5378.16
5375.79
5376.58
5377.17
5377.59
5377.89
5378.1
5378.24
5378.33
5375.91
5376.69
5377.28
5377.69
5377.98
5378.18
5378.32
5378.41
5249.5
5249.35
5249.21
5249.15
5249.12
5249.12
5249.14
5249.15
5249.29
5249.24
5249.12
5249.03
5248.99
5248.98
5248.98
5248.98
5249.28
5249.39
5249.3
5249.17
5249.05
5248.95
5248.86
5248.78
5249.1
5249.26
5249.19
5249.08
5248.98
5248.9
5248.85
5248.82
5249.51
5249.56
5249.42
5249.27
5249.15
5249.05
5248.96
5248.87
5249.46
5249.33
5249.15
5249.04
5248.98
5248.96
5248.95
5248.96
5249.57
5249.38
5249.2
5249.1
5249.05
5249.04
5249.04
5249.05
5108.99
5114.7
5117.21
5118.44
5119.07
5119.41
5119.58
5119.67
5109.27
5114.83
5117.24
5118.41
5118.99
5119.27
5119.41
5119.47
5109.81
5115.16
5117.47
5118.54
5119.04
5119.26
5119.32
5119.28
5110.37
5115.5
5117.69
5118.67
5119.1
5119.27
5119.31
5119.32
5109.91
5115.22
5117.51
5118.59
5119.1
5119.34
5119.43
5119.43
5109.44
5114.91
5117.28
5118.41
5118.98
5119.26
5119.39
5119.45
5109.21
5114.79
5117.22
5118.41
5119.01
5119.33
5119.49
5119.57
5637.61
5637.67
5637.72
5637.75
5637.77
5637.77
5637.78
5637.78
5637.63
5637.69
5637.74
5637.77
5637.78
5637.79
5637.8
5637.8
5637.63
5637.69
5637.73
5637.76
5637.77
5637.78
5637.79
5637.79
5637.62
5637.68
5637.72
5637.75
5637.77
5637.78
5637.78
5637.79
5637.61
5637.66
5637.71
5637.73
5637.75
5637.76
5637.77
5637.77
5637.59
5637.65
5637.69
5637.72
5637.73
5637.74
5637.75
5637.75
5637.55
5637.6
5637.64
5637.67
5637.69
5637.69
5637.7
5637.7
5508.11
5508.17
5508.22
5508.25
5508.27
5508.28
5508.29
5508.29
5508.16
5508.21
5508.25
5508.29
5508.31
5508.32
5508.32
5508.32
5508.16
5508.21
5508.26
5508.29
5508.31
5508.32
5508.32
5508.32
5508.17
5508.22
5508.26
5508.29
5508.31
5508.32
5508.32
5508.32
5508.14
5508.2
5508.24
5508.27
5508.28
5508.29
5508.3
5508.3
5508.12
5508.17
5508.21
5508.24
5508.26
5508.27
5508.27
5508.27
5508.06
5508.11
5508.15
5508.18
5508.2
5508.21
5508.22
5508.21
5378.71
5378.76
5378.79
5378.82
5378.83
5378.84
5378.84
5378.84
5378.77
5378.81
5378.85
5378.87
5378.88
5378.89
5378.89
5378.89
5378.78
5378.82
5378.85
5378.87
5378.89
5378.89
5378.89
5378.89
5378.79
5378.83
5378.86
5378.88
5378.89
5378.9
5378.9
5378.89
5378.77
5378.81
5378.83
5378.85
5378.87
5378.87
5378.87
5378.87
5378.74
5378.78
5378.81
5378.83
5378.84
5378.84
5378.85
5378.84
5378.67
5378.7
5378.73
5378.76
5378.77
5378.78
5378.78
5378.77
5249.3
5249.33
5249.35
5249.36
5249.37
5249.38
5249.38
5249.37
5249.38
5249.4
5249.42
5249.43
5249.44
5249.44
5249.44
5249.44
5249.39
5249.41
5249.43
5249.44
5249.45
5249.45
5249.45
5249.44
5249.41
5249.43
5249.44
5249.45
5249.46
5249.46
5249.46
5249.45
5249.38
5249.4
5249.41
5249.42
5249.43
5249.43
5249.43
5249.42
5249.35
5249.37
5249.39
5249.4
5249.4
5249.4
5249.4
5249.4
5249.27
5249.29
5249.3
5249.31
5249.32
5249.32
5249.32
5249.32
5119.82
5119.86
5119.89
5119.9
5119.92
5119.92
5119.92
5119.92
5119.9
5119.93
5119.95
5119.97
5119.98
5119.98
5119.98
5119.98
5119.91
5119.94
5119.96
5119.98
5119.99
5119.99
5119.99
5119.99
5119.92
5119.95
5119.98
5119.99
5120
5120
5120
5120
5119.89
5119.92
5119.95
5119.96
5119.97
5119.97
5119.97
5119.97
5119.87
5119.9
5119.93
5119.94
5119.95
5119.95
5119.95
5119.95
5119.78
5119.81
5119.83
5119.85
5119.86
5119.86
5119.86
5119.86
5637.47
5637.52
5637.56
5637.58
5637.59
5637.59
5637.59
5637.59
5637.33
5637.38
5637.41
5637.43
5637.44
5637.44
5637.44
5637.45
5637.06
5637.11
5637.14
5637.17
5637.2
5637.22
5637.23
5637.26
5637.22
5637.29
5637.34
5637.39
5637.42
5637.43
5637.43
5637.45
5637.09
5637.14
5637.17
5637.2
5637.22
5637.24
5637.26
5637.29
5637.4
5637.45
5637.49
5637.51
5637.51
5637.52
5637.52
5637.53
5637.54
5637.6
5637.64
5637.66
5637.67
5637.67
5637.67
5637.67
5507.88
5507.93
5507.97
5508
5508.02
5508.03
5508.04
5508.04
5507.81
5507.85
5507.89
5507.92
5507.94
5507.95
5507.96
5507.97
5507.57
5507.59
5507.62
5507.64
5507.66
5507.68
5507.7
5507.73
5507.73
5507.78
5507.82
5507.85
5507.88
5507.9
5507.92
5507.94
5507.6
5507.62
5507.65
5507.67
5507.69
5507.71
5507.73
5507.75
5507.88
5507.93
5507.96
5507.99
5508.01
5508.03
5508.03
5508.04
5507.93
5507.99
5508.03
5508.06
5508.09
5508.1
5508.11
5508.1
5378.45
5378.49
5378.51
5378.53
5378.54
5378.55
5378.55
5378.55
5378.42
5378.45
5378.48
5378.5
5378.52
5378.54
5378.54
5378.55
5378.14
5378.13
5378.13
5378.14
5378.14
5378.15
5378.16
5378.17
5378.31
5378.34
5378.37
5378.4
5378.43
5378.45
5378.46
5378.47
5378.18
5378.18
5378.18
5378.18
5378.17
5378.18
5378.19
5378.2
5378.48
5378.52
5378.55
5378.57
5378.59
5378.6
5378.61
5378.62
5378.5
5378.54
5378.57
5378.59
5378.6
5378.61
5378.62
5378.61
5249.04
5249.05
5249.05
5249.06
5249.06
5249.07
5249.07
5249.06
5249.03
5249.03
5249.04
5249.05
5249.05
5249.05
5249.06
5249.05
5248.68
5248.64
5248.61
5248.59
5248.58
5248.57
5248.59
5248.6
5248.95
5248.95
5248.95
5248.95
5248.96
5248.97
5248.98
5248.98
5248.75
5248.7
5248.66
5248.64
5248.62
5248.61
5248.63
5248.63
5249.08
5249.09
5249.1
5249.11
5249.11
5249.12
5249.12
5249.11
5249.09
5249.1
5249.12
5249.12
5249.13
5249.13
5249.13
5249.13
5119.58
5119.6
5119.61
5119.62
5119.63
5119.63
5119.63
5119.63
5119.54
5119.55
5119.56
5119.57
5119.57
5119.58
5119.58
5119.57
5119.12
5119.08
5119.05
5119.05
5119.06
5119.07
5119.06
5119.07
5119.49
5119.49
5119.48
5119.48
5119.47
5119.47
5119.48
5119.48
5119.24
5119.19
5119.15
5119.14
5119.15
5119.18
5119.15
5119.16
5119.59
5119.6
5119.61
5119.62
5119.62
5119.63
5119.63
5119.62
5119.65
5119.67
5119.69
5119.7
5119.71
5119.71
5119.71
5119.71
5637.57
5637.63
5637.68
5637.71
5637.72
5637.73
5637.72
5637.72
5637.39
5637.46
5637.51
5637.55
5637.57
5637.59
5637.59
5637.59
5637.2
5637.24
5637.28
5637.3
5637.32
5637.33
5637.34
5637.36
5637.34
5637.4
5637.45
5637.49
5637.52
5637.52
5637.54
5637.58
5637.16
5637.21
5637.26
5637.29
5637.31
5637.33
5637.34
5637.36
5637.39
5637.46
5637.51
5637.55
5637.58
5637.59
5637.6
5637.6
5637.57
5637.63
5637.68
5637.71
5637.73
5637.74
5637.74
5637.74
5507.97
5508.03
5508.08
5508.11
5508.14
5508.15
5508.16
5508.16
5507.85
5507.91
5507.96
5508
5508.03
5508.04
5508.05
5508.05
5507.72
5507.75
5507.77
5507.78
5507.79
5507.79
5507.8
5507.81
5507.82
5507.87
5507.9
5507.92
5507.93
5507.94
5507.96
5507.99
5507.67
5507.71
5507.74
5507.76
5507.78
5507.79
5507.79
5507.81
5507.88
5507.94
5507.99
5508.03
5508.06
5508.07
5508.08
5508.09
5508.04
5508.1
5508.15
5508.19
5508.21
5508.23
5508.23
5508.23
5378.56
5378.61
5378.64
5378.67
5378.68
5378.69
5378.7
5378.7
5378.4
5378.44
5378.48
5378.5
5378.52
5378.53
5378.54
5378.54
5378.37
5378.4
5378.41
5378.41
5378.4
5378.41
5378.41
5378.41
5378.3
5378.33
5378.35
5378.35
5378.36
5378.37
5378.38
5378.4
5378.29
5378.33
5378.36
5378.37
5378.38
5378.39
5378.39
5378.4
5378.43
5378.48
5378.52
5378.55
5378.57
5378.58
5378.59
5378.59
5378.64
5378.69
5378.73
5378.76
5378.77
5378.78
5378.79
5378.79
5249.17
5249.19
5249.21
5249.23
5249.24
5249.24
5249.24
5249.24
5248.96
5248.98
5248.99
5249
5249.01
5249.01
5249.01
5249.01
5249.25
5249.26
5249.27
5249.28
5249.29
5249.3
5249.31
5249.3
5248.84
5248.85
5248.85
5248.84
5248.85
5248.86
5248.87
5248.88
5249.07
5249.09
5249.1
5249.12
5249.13
5249.14
5249.15
5249.14
5249
5249.03
5249.05
5249.07
5249.08
5249.08
5249.09
5249.08
5249.25
5249.28
5249.3
5249.32
5249.33
5249.34
5249.34
5249.33
5119.7
5119.74
5119.76
5119.78
5119.79
5119.8
5119.8
5119.8
5119.56
5119.59
5119.62
5119.64
5119.64
5119.65
5119.65
5119.65
5119.77
5119.83
5119.88
5119.92
5119.97
5120.01
5120.02
5120.02
5119.48
5119.52
5119.54
5119.55
5119.55
5119.55
5119.55
5119.56
5119.6
5119.66
5119.7
5119.74
5119.77
5119.79
5119.8
5119.8
5119.56
5119.61
5119.64
5119.66
5119.68
5119.69
5119.69
5119.69
5119.77
5119.82
5119.85
5119.87
5119.88
5119.89
5119.89
5119.89
5637.48
5637.54
5637.58
5637.6
5637.62
5637.63
5637.63
5637.63
5637.29
5637.34
5637.37
5637.4
5637.42
5637.43
5637.43
5637.45
5637.08
5637.13
5637.16
5637.2
5637.22
5637.24
5637.26
5637.29
5637.26
5637.32
5637.37
5637.41
5637.44
5637.45
5637.45
5637.48
5637.1
5637.14
5637.18
5637.2
5637.22
5637.24
5637.26
5637.29
5637.32
5637.37
5637.4
5637.43
5637.44
5637.45
5637.45
5637.46
5637.47
5637.53
5637.56
5637.59
5637.6
5637.6
5637.6
5637.59
5507.96
5508.01
5508.05
5508.08
5508.1
5508.12
5508.12
5508.12
5507.79
5507.84
5507.88
5507.9
5507.93
5507.94
5507.95
5507.96
5507.58
5507.61
5507.64
5507.66
5507.69
5507.71
5507.73
5507.75
5507.74
5507.79
5507.83
5507.86
5507.89
5507.91
5507.93
5507.95
5507.6
5507.62
5507.65
5507.67
5507.69
5507.71
5507.73
5507.74
5507.79
5507.84
5507.88
5507.91
5507.93
5507.95
5507.95
5507.95
5507.88
5507.93
5507.98
5508.01
5508.03
5508.04
5508.04
5508.04
5378.56
5378.59
5378.62
5378.64
5378.65
5378.66
5378.66
5378.66
5378.38
5378.41
5378.44
5378.46
5378.48
5378.49
5378.5
5378.5
5378.11
5378.12
5378.13
5378.13
5378.14
5378.15
5378.16
5378.17
5378.25
5378.29
5378.32
5378.36
5378.38
5378.4
5378.42
5378.43
5378.16
5378.16
5378.16
5378.15
5378.15
5378.16
5378.16
5378.17
5378.38
5378.41
5378.44
5378.46
5378.48
5378.49
5378.49
5378.49
5378.46
5378.5
5378.52
5378.54
5378.56
5378.56
5378.57
5378.56
5249.17
5249.18
5249.19
5249.2
5249.2
5249.2
5249.2
5249.2
5248.98
5248.99
5248.99
5249
5249.01
5249.01
5249.01
5249.01
5248.71
5248.67
5248.63
5248.61
5248.59
5248.6
5248.6
5248.61
5248.82
5248.83
5248.85
5248.86
5248.88
5248.89
5248.9
5248.91
5248.8
5248.74
5248.7
5248.67
5248.66
5248.67
5248.67
5248.67
5248.97
5248.97
5248.98
5248.99
5249
5249
5249
5249
5249.06
5249.07
5249.08
5249.09
5249.09
5249.1
5249.1
5249.09
5119.71
5119.73
5119.74
5119.76
5119.76
5119.77
5119.77
5119.76
5119.49
5119.5
5119.51
5119.52
5119.52
5119.52
5119.52
5119.52
5119.2
5119.14