/*--------------------------------*- C++ -*----------------------------------*\
| =========                 |                                                 |
| \\      /  F ield         | OpenFOAM: The Open Source CFD Toolbox           |
|  \\    /   O peration     | Version:  plus.master.MPPICInterFoam            |
|   \\  /    A nd           | Web:      www.OpenFOAM.com                      |
|    \\/     M anipulation  |                                                 |
\*---------------------------------------------------------------------------*/
FoamFile
{
    version     2.0;
    format      ascii;
    class       labelField;
    location    "6/lagrangian/kinematicCloud";
    object      origId;
}
// * * * * * * * * * * * * * * * * * * * * * * * * * * * * * * * * * * * * * //


647
(
13843
13125
11264
5617
536
5665
3896
10802
5806
44039
13013
6428
17764
22503
11006
8756
22040
1923
14172
21842
858
6716
11821
5881
20113
22052
3886
7361
3808
10656
8448
35572
76
9191
1306
175
9675
16420
7056
9048
21003
2741
4945
21312
873
16253
30379
7690
8265
11044
14538
12150
34106
10543
19503
35783
8194
19655
13494
9343
4202
23490
17780
8912
28222
18115
1068
23163
24612
12883
5141
34208
18727
15237
6528
7648
20046
7226
4257
9656
17569
2186
22366
16297
14886
24729
31330
40624
1655
29230
3971
9911
18443
242
25221
25273
12160
14065
16110
15103
12795
40488
20192
14143
7225
7740
12225
13332
27848
11086
4449
4566
560
10158
16658
30324
24371
468
5436
7521
27944
22504
13242
10262
25851
2943
10015
2216
22432
187
9579
38136
17752
3355
18936
15417
9209
14501
13921
24005
31195
39153
2072
43368
28453
11920
7261
6526
18728
10415
28665
4564
9277
139
22368
56723
310
26635
15910
7774
40490
8776
6823
29987
14196
14239
4108
15259
27090
20869
4919
14484
7732
4036
20111
2650
3835
86
50785
16112
43690
23326
27894
17449
3931
6634
15950
7854
37841
9742
39324
26817
851
4106
6363
14620
30173
4556
10145
38985
25296
11490
5340
19935
32288
18538
6316
17797
13868
41518
7246
32163
3862
22389
16260
2405
3372
43984
42961
46736
15712
31895
10979
42517
25274
3350
5794
18431
16868
53376
6017
33992
1189
22685
8034
37975
6400
2114
42423
13093
17383
14240
38899
15557
5405
22794
2175
16755
33411
47344
32335
16680
29484
11485
1978
9993
4799
6008
17302
4133
4344
12076
683
5860
2605
781
14729
3674
15515
13123
11039
18245
20188
20024
20718
566
28593
5480
22534
36201
17743
6691
1027
9492
3603
6414
37801
950
4265
23793
34620
3006
7487
1927
18046
45239
48357
17034
35226
3806
11486
17931
12852
3909
11659
31495
2107
5202
26785
23685
10334
16408
8806
408
670
16389
29233
23665
29236
7491
1901
15072
4437
525
34501
19738
25963
15435
2979
33639
11686
3772
33303
6092
18620
32828
14013
3075
1217
48633
21960
1755
11328
4308
10016
29762
21331
9928
30523
26591
3783
25280
2869
12521
498
5402
57544
10001
12311
11693
12345
29953
5350
31582
30336
9969
34833
16727
15060
21471
42968
20174
18663
14518
5437
163
2551
26315
1983
19383
2828
19031
16460
33893
15635
49098
32234
15064
42030
27388
10252
8304
30465
49911
11858
12735
17015
24490
2421
16655
6875
57470
49370
5213
2323
16760
21548
22684
1302
17982
27314
705
29216
1176
15623
2215
22445
10651
42854
7227
15078
26684
5481
5703
16355
23848
2672
4889
8994
15387
27295
4997
4357
3321
9059
39423
34914
4321
38964
15044
40795
21412
433
13450
37408
2329
19033
16041
6354
6096
777
9384
27703
25912
17291
31149
2909
7650
37199
20085
25872
55012
11192
1848
25864
7068
403
32362
20884
9708
6182
56936
6468
12363
9809
2685
31950
3945
1598
4399
31329
48080
13333
13053
2821
17945
27224
4953
37530
9004
7053
20362
12314
8758
19750
8544
18234
5876
6739
1013
939
3749
13386
2607
13743
3771
29390
8429
35283
10574
1623
11409
20618
28152
19702
9088
2692
19410
13605
2895
7894
7493
8201
14671
18281
8437
11658
26057
10069
31373
33689
30866
9269
446
879
15403
11786
17451
11833
23310
1559
43373
20734
10044
17484
27974
48222
13213
29972
8198
20489
6733
24168
448
4405
7675
17290
25952
4087
3528
34466
28366
14655
11198
10456
13687
127
17360
20575
19591
11805
12389
3648
2753
2932
6445
42212
18238
1014
37769
44020
3431
18586
43082
35431
1467
38032
4011
2253
6438
4597
8696
9352
50137
37377
43580
1194
50513
25431
2590
21214
1535
11990
26992
7098
26148
24335
30730
5139
21391
16941
1585
1144
26462
28690
9888
34349
4162
27374
35755
5689
1074
28431
12428
7700
41081
13570
14805
4938
48887
46798
31607
7875
36322
51635
52731
10058
47999
9
36468
2800
64989
2962
89174
890
71568
14287
)


// ************************************************************************* //
