/*--------------------------------*- C++ -*----------------------------------*\
| =========                 |                                                 |
| \\      /  F ield         | OpenFOAM: The Open Source CFD Toolbox           |
|  \\    /   O peration     | Version:  plus.master.MPPICInterFoam            |
|   \\  /    A nd           | Web:      www.OpenFOAM.com                      |
|    \\/     M anipulation  |                                                 |
\*---------------------------------------------------------------------------*/
FoamFile
{
    version     2.0;
    format      ascii;
    class       vectorField;
    location    "6/lagrangian/kinematicCloud";
    object      UCorrect;
}
// * * * * * * * * * * * * * * * * * * * * * * * * * * * * * * * * * * * * * //


647
(
(3.34591e-06 9.40975e-06 0.000898258)
(1.03224e-06 1.70901e-06 2.35102e-09)
(1.03068e-06 1.70998e-06 2.35102e-09)
(-6.55886e-05 9.79722e-05 0.000137966)
(0.00102816 0.00036266 0.000614931)
(6.98007e-06 2.95518e-06 4.92794e-06)
(3.45837e-07 2.87912e-06 2.01113e-09)
(0.00102254 0.00037872 0.000614931)
(2.39042e-06 4.96378e-06 1.19997e-10)
(3.07353e-12 0.000340407 7.81909e-05)
(-8.07164e-07 1.81987e-06 4.2776e-06)
(1.01164e-06 -3.05751e-06 4.2776e-06)
(-5.16884e-05 0.000109057 0.000137966)
(2.86466e-06 4.6658e-06 8.20797e-11)
(7.60387e-06 3.63128e-06 1.11451e-07)
(-2.38509e-07 4.62166e-06 4.60899e-06)
(-3.94622e-07 1.77339e-06 4.2776e-06)
(-9.02741e-07 1.83064e-06 4.2776e-06)
(-8.66465e-07 1.82655e-06 4.2776e-06)
(8.11472e-06 3.74788e-06 1.11451e-07)
(8.63701e-06 1.86254e-06 4.92794e-06)
(1.08512e-06 -6.88464e-07 3.1187e-06)
(7.48135e-06 8.02446e-09 4.79089e-11)
(8.71614e-07 1.80993e-06 2.93697e-10)
(4.48301e-07 4.54428e-06 7.33989e-07)
(-2.14459e-05 0.00033799 0.000189638)
(-6.2894e-07 1.15589e-06 0.000268581)
(0.00101983 0.000386472 0.000614931)
(3.07353e-12 0.000340407 4.9948e-05)
(1.5112e-11 0.000597461 -2.15813e-05)
(-8.5148e-07 1.82487e-06 4.2776e-06)
(2.39042e-06 4.96378e-06 3.29432e-11)
(7.03863e-08 1.67229e-06 4.83133e-11)
(2.42322e-06 2.69378e-06 4.5724e-11)
(-9.45621e-07 2.00449e-06 0.000807169)
(9.79031e-07 5.93239e-07 0.000898258)
(6.96961e-06 8.6269e-07 4.92794e-06)
(-5.94263e-05 0.000590765 -0.000322471)
(8.74985e-06 1.86254e-06 4.92794e-06)
(0.00102067 0.000384078 0.000614931)
(0.00102915 0.000359838 0.000614931)
(3.9421e-06 -1.71894e-08 0.000811458)
(2.32511e-06 7.29004e-06 0.000898258)
(1.26182e-06 1.5083e-06 0.000807169)
(8.71614e-07 1.80993e-06 5.51057e-10)
(8.71614e-07 1.80993e-06 2.09697e-10)
(6.96899e-06 2.85684e-06 4.92794e-06)
(3.07353e-12 0.000340407 0.000116753)
(6.05541e-08 -5.34966e-08 1.65325e-11)
(7.03863e-08 1.67229e-06 1.40552e-09)
(1.07123e-06 -1.38085e-06 0.000168376)
(-5.06842e-07 6.20446e-07 0.000168376)
(1.00331e-06 1.59876e-06 0.000807169)
(-1.65222e-06 1.79886e-06 0.000898258)
(0.000126111 0.000250848 0.000261095)
(-2.89671e-05 0.000127177 0.000137966)
(3.5393e-06 9.81134e-06 0.000898258)
(3.07353e-12 0.000340407 6.78527e-05)
(1.88181e-13 -6.3994e-14 4.20062e-12)
(3.87221e-06 1.82554e-07 0.000139809)
(8.31764e-06 8.02446e-09 4.79089e-11)
(2.97704e-06 8.64378e-06 0.000898258)
(1.5112e-11 0.000597461 -9.95991e-06)
(1.01164e-06 8.64002e-06 4.2776e-06)
(4.00012e-06 8.30637e-06 8.20797e-11)
(4.29025e-06 8.90884e-06 8.20797e-11)
(3.05587e-06 8.80748e-06 0.000898258)
(9.33841e-07 1.62307e-06 0.000807169)
(3.07353e-12 0.000340407 1.15981e-06)
(1.25166e-09 1.04731e-09 2.83378e-07)
(2.6002e-06 1.79393e-06 4.2776e-06)
(2.10873e-06 2.29942e-06 4.5724e-11)
(1.19123e-06 7.79927e-06 4.60899e-06)
(3.85095e-06 3.71233e-07 0.000811458)
(8.50753e-12 6.19871e-12 1.56545e-11)
(-5.97584e-05 0.000102622 0.000137966)
(1.25054e-06 6.39395e-06 0.000807169)
(-3.50351e-07 1.7684e-06 4.2776e-06)
(3.07353e-12 0.000340407 1.27031e-05)
(-5.73412e-07 4.6594e-06 4.60899e-06)
(3.07353e-12 0.000340407 3.36059e-05)
(1.16278e-06 1.54296e-06 0.000807169)
(3.84861e-06 3.92e-07 0.000811458)
(-5.12945e-05 0.000109371 0.000137966)
(1.01164e-06 8.94245e-06 4.2776e-06)
(8.84033e-07 6.2648e-07 0.000898258)
(2.18732e-07 1.87329e-06 0.000167134)
(6.96918e-06 8.66486e-07 4.92794e-06)
(3.9466e-06 -3.00426e-08 0.000811458)
(0.0020571 0.000988845 0.000614931)
(1.36348e-06 8.55392e-06 4.60899e-06)
(3.8492e-06 3.86747e-07 0.000811458)
(1.01164e-06 1.61494e-06 5.63691e-06)
(-4.21988e-07 1.77647e-06 4.2776e-06)
(1.66682e-06 8.21778e-06 0.000807169)
(3.85293e-06 3.53645e-07 0.000811458)
(1.5112e-11 0.000407207 -0.000322471)
(6.88164e-07 4.05901e-06 4.70676e-06)
(-4.18993e-07 1.77614e-06 4.2776e-06)
(1.05046e-06 7.18252e-06 4.60899e-06)
(-1.47487e-07 1.87264e-06 4.70676e-06)
(2.86195e-08 1.69653e-06 4.70676e-06)
(0.00102885 0.000360674 0.000614931)
(-0.00181513 0.000194018 6.13871e-06)
(1.58166e-06 7.84468e-06 0.000807169)
(7.06251e-07 2.17095e-06 2.06164e-09)
(6.96244e-06 2.79877e-06 4.92794e-06)
(1.54586e-06 4.17223e-06 8.1246e-12)
(1.55424e-06 4.13554e-06 8.1246e-12)
(1.5112e-11 1.71969e-05 -0.000322471)
(6.65507e-07 2.16636e-06 2.06164e-09)
(1.5112e-11 0.000597461 -6.52601e-05)
(1.59866e-06 3.9409e-06 -1.5062e-06)
(2.12199e-06 3.99986e-06 8.1246e-12)
(1.52619e-06 4.25843e-06 8.1246e-12)
(-2.85983e-07 3.84705e-06 2.06164e-09)
(1.26403e-06 1.50753e-06 0.000807169)
(1.04515e-06 -1.33936e-06 0.000168376)
(-0.0018148 0.000196973 6.13871e-06)
(0.000319021 -0.000555758 0.000360207)
(7.38727e-07 2.17461e-06 2.06164e-09)
(6.97635e-06 2.92218e-06 4.92794e-06)
(2.94505e-06 6.75147e-07 1.96324e-09)
(6.85696e-06 1.86254e-06 5.04309e-06)
(-2.45701e-07 3.67056e-06 2.06164e-09)
(-1.68124e-06 -3.92787e-06 2.27971e-06)
(1.06764e-06 -1.37515e-06 0.000168376)
(-7.0202e-10 6.96168e-07 2.39616e-06)
(7.58252e-07 2.17681e-06 2.06164e-09)
(1.01164e-06 1.61494e-06 5.53256e-06)
(-4.00263e-07 1.77403e-06 4.2776e-06)
(1.59866e-06 3.9409e-06 -1.95638e-06)
(2.18732e-07 1.87329e-06 0.000118313)
(-1.72365e-06 1.84375e-06 0.000898258)
(-6.22698e-05 0.000590445 -0.000322471)
(-5.33403e-07 -0.00117236 1.27081e-06)
(-5.99263e-05 9.42708e-08 6.13871e-06)
(-9.60481e-07 -3.29317e-06 0.000807169)
(1.30691e-07 1.7142e-06 4.2776e-06)
(6.96593e-06 2.8297e-06 4.92794e-06)
(-9.02446e-07 -2.29065e-06 6.61147e-06)
(4.34584e-06 2.83057e-06 5.15414e-08)
(1.01164e-06 -3.24843e-06 4.2776e-06)
(3.94789e-06 -3.37374e-08 0.000811458)
(-6.37788e-05 0.000590275 -0.000322471)
(6.95987e-06 2.77593e-06 4.92794e-06)
(1.14817e-06 -1.5033e-06 0.000168376)
(-1.74433e-06 1.85674e-06 0.000898258)
(1.22513e-06 1.52114e-06 0.000807169)
(1.21552e-06 1.5245e-06 0.000807169)
(6.95544e-06 9.88463e-07 4.92794e-06)
(-1.65919e-07 1.74762e-06 4.2776e-06)
(3.85288e-06 3.54108e-07 0.000811458)
(-1.5257e-06 2.92636e-06 4.70676e-06)
(1.08097e-06 -1.39636e-06 0.000168376)
(-9.9521e-07 -3.44533e-06 0.000807169)
(-2.04078e-06 2.04301e-06 0.000898258)
(-0.00181559 -0.000189773 6.13871e-06)
(3.85021e-06 3.77764e-07 0.000811458)
(0.000201361 -0.00127181 8.69123e-09)
(1.21939e-06 -4.70503e-06 2.12119e-11)
(2.18732e-07 1.87329e-06 4.97621e-05)
(5.22854e-06 1.86254e-06 4.92794e-06)
(-1.86446e-06 -2.54952e-06 4.30507e-06)
(-3.87321e-06 -2.70426e-06 6.61147e-06)
(3.84766e-06 4.00469e-07 0.000811458)
(4.45021e-09 -1.01462e-09 4.22255e-06)
(6.02248e-07 3.95127e-06 4.70676e-06)
(1.27185e-06 -4.93484e-06 2.12119e-11)
(7.19539e-06 2.78573e-07 5.15414e-08)
(-1.52903e-06 2.92845e-06 4.70676e-06)
(-2.03127e-06 -3.82792e-06 2.27971e-06)
(7.68872e-07 3.27606e-07 3.01921e-11)
(-6.34779e-07 -2.22955e-06 6.61147e-06)
(6.96987e-06 2.86464e-06 4.92794e-06)
(3.9472e-06 -3.17599e-08 0.000811458)
(2.11901e-05 -8.75222e-05 8.69123e-09)
(3.94251e-06 -1.83612e-08 0.000811458)
(-0.0018141 0.000203174 6.13871e-06)
(0.000925162 0.000576133 0.000614931)
(-1.54591e-06 -1.79388e-07 2.18909e-06)
(-2.10336e-06 2.08233e-06 0.000898258)
(7.54074e-07 3.58335e-07 5.44817e-10)
(-2.089e-06 2.07331e-06 0.000898258)
(-0.00183698 9.42708e-08 4.88937e-06)
(-3.87026e-06 -2.73044e-06 6.61147e-06)
(1.2562e-06 5.99505e-07 6.01952e-07)
(7.53573e-07 3.59374e-07 5.44817e-10)
(6.89452e-10 1.6672e-10 1.06779e-06)
(1.18742e-06 1.53433e-06 0.000807169)
(-3.18841e-12 3.17552e-11 6.43379e-08)
(-2.02926e-06 -3.82862e-06 2.27971e-06)
(-1.86741e-06 -2.54106e-06 4.30507e-06)
(-2.33123e-07 -1.10975e-06 1.85808e-11)
(6.93699e-06 2.57283e-06 4.92794e-06)
(7.59709e-07 3.46633e-07 5.44817e-10)
(1.59866e-06 3.9409e-06 -1.96794e-06)
(-3.86939e-06 -2.73821e-06 6.61147e-06)
(2.99672e-07 5.16859e-08 1.99352e-11)
(0.000139101 -0.000604123 8.69123e-09)
(3.11219e-07 2.41829e-06 0.000742654)
(0.00102399 0.000374577 0.000614931)
(-8.22267e-07 1.82157e-06 4.2776e-06)
(2.26804e-10 1.43956e-10 1.06779e-06)
(0.000289236 -0.00126191 -3.32422e-06)
(5.07752e-06 1.86254e-06 4.92794e-06)
(-3.87004e-06 -2.73241e-06 6.61147e-06)
(-0.00181511 -0.00019396 6.13871e-06)
(-0.00183698 9.42708e-08 5.09272e-06)
(-1.61059e-06 1.17646e-06 4.70676e-06)
(1.61108e-06 3.88652e-06 8.1246e-12)
(-1.46736e-06 2.8897e-06 4.70676e-06)
(7.05617e-07 3.6284e-06 8.1246e-12)
(0.000146826 -0.00127795 8.69123e-09)
(-0.000290683 -0.000189199 0.000194994)
(0.000189491 -0.00127314 8.69123e-09)
(-3.84416e-06 -2.96207e-06 8.8186e-06)
(3.06809e-08 2.34883e-08 2.41962e-06)
(-3.86976e-06 -2.73487e-06 6.61147e-06)
(6.9263e-06 1.24709e-06 4.92794e-06)
(-3.86917e-06 -2.74015e-06 6.61147e-06)
(1.04541e-06 -1.33976e-06 0.000168376)
(-3.7236e-13 2.33417e-12 6.81267e-07)
(-3.86822e-06 -2.74862e-06 6.61147e-06)
(7.68872e-07 3.27606e-07 3.00108e-10)
(-8.66939e-05 -0.00116265 2.20693e-06)
(-1.6811e-06 -3.92723e-06 2.27971e-06)
(3.90988e-07 -2.13959e-07 0.000168376)
(9.72973e-07 5.95358e-07 0.000898258)
(0.00101752 0.000393059 0.000614931)
(1.01164e-06 -2.46587e-06 4.2776e-06)
(1.01132e-12 5.99087e-13 1.17563e-06)
(-0.000131431 -0.00016455 5.74125e-06)
(-0.000109963 -0.00116003 2.20693e-06)
(4.31624e-07 2.94224e-06 0.000742654)
(-3.75593e-06 -3.21424e-06 6.61147e-06)
(-1.86673e-06 -2.54301e-06 4.30507e-06)
(-9.51538e-08 -1.06147e-06 1.85808e-11)
(-0.000123477 9.42708e-08 6.13871e-06)
(-1.68234e-06 -3.93268e-06 2.27971e-06)
(3.0646e-07 -9.20938e-07 -2.87478e-06)
(0.000245355 -0.000125781 0.00031197)
(-0.000225139 9.42708e-08 6.13871e-06)
(-5.89911e-07 -1.23459e-06 1.85808e-11)
(-3.86828e-06 -2.74804e-06 6.61147e-06)
(0.000541157 -0.00112622 0.000360207)
(-1.92462e-06 -2.37756e-06 6.47029e-06)
(1.01164e-06 1.61494e-06 6.147e-06)
(0.000245355 -0.000568429 1.65706e-05)
(-3.87073e-06 -2.72626e-06 6.61147e-06)
(-0.000490068 -0.000546997 5.74125e-06)
(0.000161569 -0.00057787 0.00031197)
(1.11866e-09 1.92673e-09 2.83378e-07)
(9.00953e-07 3.69676e-06 8.1246e-12)
(-2.00454e-06 -2.25038e-06 4.30507e-06)
(-5.05099e-07 -1.20491e-06 1.85808e-11)
(-0.00181616 0.000184878 6.13871e-06)
(4.45021e-09 -1.01462e-09 3.84974e-06)
(-7.40393e-05 -0.00116408 2.20693e-06)
(7.17401e-07 -2.72139e-06 1.85808e-11)
(-2.09453e-06 -3.80578e-06 2.27971e-06)
(3.85857e-06 3.03585e-07 0.000811458)
(3.942e-06 -1.68917e-08 0.000811458)
(0.000154837 -0.00127705 8.69123e-09)
(-0.00181529 -0.000192364 6.13871e-06)
(-2.2384e-06 -2.18618e-06 0.000898258)
(-1.86575e-06 -2.54583e-06 4.30507e-06)
(0.000304597 -0.000564821 0.000360207)
(-5.49618e-07 1.25172e-06 2.15257e-06)
(0.000104025 -0.000584353 0.00031197)
(1.47296e-06 5.73976e-07 5.44817e-10)
(0.000236728 -0.00126782 8.69123e-09)
(0.000245355 -0.000159736 0.00031197)
(-5.33403e-07 -0.000377835 2.20693e-06)
(3.22772e-07 2.52082e-06 0.000742654)
(1.4036e-06 -1.71655e-07 1.642e-09)
(-1.34134e-07 1.00943e-06 1.85808e-11)
(2.8445e-09 -1.6684e-09 1.07392e-06)
(2.9652e-07 6.54952e-08 6.75449e-11)
(0.000245355 -9.38844e-05 0.00031197)
(0.000167435 7.88305e-05 0.000614931)
(-0.0018149 -0.000195837 6.13871e-06)
(-9.49252e-13 1.23171e-12 6.62176e-12)
(-0.000495789 -0.000541276 5.74125e-06)
(1.59866e-06 3.9409e-06 1.51734e-06)
(7.29006e-05 -0.00058786 0.00031197)
(-6.11095e-07 4.31444e-07 1.91493e-06)
(-9.99321e-06 -5.94381e-05 5.77913e-05)
(0.000289236 -0.00126191 -3.77515e-06)
(0.000189227 -0.000395432 0.000360207)
(3.17396e-07 2.47311e-06 0.000742654)
(6.18147e-07 1.33305e-06 8.4263e-07)
(-0.000106856 -0.000133734 5.74125e-06)
(3.41109e-07 2.68356e-06 5.12766e-05)
(6.71813e-10 -5.3634e-10 1.20165e-06)
(-6.04516e-07 -1.2397e-06 1.85808e-11)
(5.76982e-07 1.35287e-06 1.44278e-06)
(1.01164e-06 -4.26252e-06 4.2776e-06)
(-0.00182067 -0.000144677 6.13871e-06)
(3.0646e-07 -9.20938e-07 -2.25232e-06)
(-5.33403e-07 -0.000592105 2.20693e-06)
(8.52846e-05 -0.000178913 5.77913e-05)
(-0.000404933 0.00042893 1.17232e-06)
(-4.20633e-06 -6.27264e-06 0.000898258)
(-4.34366e-06 -6.5578e-06 0.000898258)
(-0.000460223 -0.000576842 8.35869e-06)
(2.23274e-13 1.96846e-12 3.52615e-12)
(8.84534e-14 1.08189e-12 2.33392e-12)
(7.33977e-06 1.08616e-06 0.000742654)
(-4.45436e-07 -8.02921e-07 0.000811458)
(-9.43885e-05 -0.0001181 5.74125e-06)
(0.000245355 -0.000568429 0.00054625)
(1.26822e-06 5.74548e-07 6.01952e-07)
(5.57823e-08 2.43479e-07 1.17243e-11)
(1.06553e-05 -0.000129469 5.77913e-05)
(-6.12574e-13 2.63539e-12 6.81267e-07)
(-1.686e-06 -3.94873e-06 2.19639e-06)
(-2.23327e-06 -3.75723e-06 2.27971e-06)
(0.00093886 0.000554333 0.000614931)
(3.0646e-07 -9.20938e-07 -2.60026e-06)
(1.62294e-12 9.83394e-13 6.81267e-07)
(1.59866e-06 3.9409e-06 1.2593e-06)
(-3.84416e-06 -2.96207e-06 8.71338e-06)
(5.76982e-07 1.35287e-06 1.39296e-06)
(-4.86149e-07 -1.46804e-06 1.20375e-06)
(6.71813e-10 -5.3634e-10 1.02811e-06)
(5.76982e-07 1.35287e-06 1.67088e-06)
(4.45021e-09 -1.01462e-09 3.79007e-06)
(2.96102e-07 6.73263e-08 6.75449e-11)
(-3.85155e-07 2.10922e-06 1.85808e-11)
(5.76982e-07 1.35287e-06 1.5419e-06)
(-1.83267e-06 8.97981e-07 4.70676e-06)
(-8.17712e-07 -1.69799e-06 1.1516e-06)
(-1.05753e-06 -3.71835e-06 0.000807169)
(-8.57448e-10 2.05703e-10 8.34188e-07)
(1.33718e-12 -3.92071e-12 1.38444e-15)
(9.64549e-05 -0.00116143 2.20693e-06)
(4.26075e-07 2.07139e-06 1.22189e-06)
(7.4289e-06 1.06582e-06 0.000742654)
(5.92001e-06 1.41021e-06 0.000742654)
(1.83566e-14 1.85075e-13 6.73679e-14)
(-3.28418e-08 6.96168e-07 4.70375e-06)
(-0.000280672 -0.000455807 6.52861e-06)
(1.52198e-12 9.19958e-13 6.81267e-07)
(-5.33403e-07 -0.00117236 1.57292e-06)
(-0.00181726 0.000175116 6.13871e-06)
(-6.2894e-07 1.15589e-06 0.00154372)
(-0.000264847 -0.000465751 6.52861e-06)
(1.98776e-17 9.44589e-18 1.5432e-17)
(-1.54462e-06 -1.90827e-07 2.18909e-06)
(-3.94346e-05 0.000174642 2.30171e-06)
(-1.14971e-06 2.6901e-06 4.70676e-06)
(2.96109e-07 6.72968e-08 6.75449e-11)
(-1.50139e-07 -3.05394e-07 6.09719e-08)
(4.60024e-05 -9.99805e-05 5.77913e-05)
(-0.000278769 -0.000457003 6.52861e-06)
(-0.000241966 9.42708e-08 6.13871e-06)
(-0.000286779 -0.000195412 0.000194994)
(0.000933088 0.000563519 0.000614931)
(0.00023135 -0.000597676 0.000360207)
(6.88867e-10 1.6928e-10 1.06779e-06)
(-2.626e-05 0.00011692 2.30171e-06)
(-0.000635257 9.42708e-08 6.13871e-06)
(-8.94933e-10 1.68218e-10 8.34188e-07)
(-4.20102e-05 0.000185926 2.30171e-06)
(-3.48523e-05 -7.18263e-05 6.52861e-06)
(0.000278651 -0.000581124 0.000110513)
(1.20989e-06 -4.25102e-07 0.000811458)
(-6.2894e-07 1.15589e-06 0.00168237)
(-0.000460223 -0.000576842 8.8251e-06)
(-0.000498459 -0.000538605 5.74125e-06)
(6.19964e-10 -5.88189e-10 6.28452e-07)
(-0.000284588 -0.000198899 0.000194994)
(-6.79654e-07 -1.26599e-06 1.85808e-11)
(-1.68177e-06 -3.93019e-06 2.27971e-06)
(0.000126146 -0.00115808 2.20693e-06)
(1.89177e-14 7.11374e-15 6.73679e-14)
(-3.25284e-05 -3.11799e-05 5.77913e-05)
(-1.92462e-06 -2.37756e-06 6.73037e-06)
(-0.00012547 -0.00115828 2.20693e-06)
(-1.25454e-06 2.75597e-06 4.70676e-06)
(3.10524e-09 -1.10395e-09 1.07392e-06)
(-3.35079e-05 -2.67698e-05 0.000194994)
(-0.000251407 -0.000239037 0.000194994)
(-5.33403e-07 -0.000333739 2.20693e-06)
(-3.84416e-06 -2.96207e-06 8.79733e-06)
(-1.48669e-05 6.70039e-05 2.30171e-06)
(-2.01859e-07 1.30615e-06 1.85808e-11)
(-1.39826e-06 5.08797e-07 1.45042e-06)
(-0.000247878 -0.000242567 0.000194994)
(2.18036e-05 -0.00011832 5.77913e-05)
(-0.000272825 -0.000217619 3.16748e-05)
(-0.000508486 -0.000528578 5.74125e-06)
(0.000331609 -0.000547849 0.000360207)
(-6.01597e-07 1.21906e-06 1.77464e-06)
(2.91906e-05 -0.000122574 8.69123e-09)
(7.69902e-06 1.00417e-06 0.000742654)
(4.02404e-07 2.85873e-06 0.000742654)
(-6.18474e-07 1.20846e-06 1.77464e-06)
(-2.93329e-06 3.49621e-06 1.13729e-06)
(0.000222923 -0.000600624 0.000360207)
(-8.42558e-08 1.15248e-06 2.39616e-06)
(-6.93106e-07 -3.0367e-06 1.20375e-06)
(1.13504e-13 5.13857e-12 2.33392e-12)
(-1.86336e-06 -2.55266e-06 4.30507e-06)
(1.57275e-12 9.51858e-13 6.81267e-07)
(-0.000272825 -0.000217619 2.59211e-05)
(-1.54347e-05 -3.15055e-05 6.52861e-06)
(-5.33403e-07 -1.29614e-05 2.20693e-06)
(2.87023e-07 2.484e-08 5.44817e-10)
(-2.36669e-07 6.01875e-07 1.77464e-06)
(-9.44933e-07 -3.81918e-07 1.45042e-06)
(-0.00183698 9.42708e-08 5.20329e-06)
(-8.83599e-06 -1.7803e-05 6.52861e-06)
(-0.000156506 0.000519552 2.30171e-06)
(-6.01469e-07 1.21914e-06 1.77464e-06)
(-0.000400389 -0.000614438 5.74125e-06)
(-3.76537e-06 -3.18726e-06 6.61147e-06)
(-6.50627e-05 8.09195e-05 1.17232e-06)
(2.80658e-09 -1.72874e-09 1.07392e-06)
(5.76982e-07 1.35287e-06 1.44116e-06)
(-1.54785e-06 -2.19612e-06 4.30507e-06)
(6.29078e-10 -5.79074e-10 6.28452e-07)
(-5.49618e-07 1.25172e-06 2.33714e-06)
(-1.68109e-06 -3.9272e-06 2.27971e-06)
(-0.000549414 9.42708e-08 6.13871e-06)
(7.26799e-05 -0.000587885 0.00031197)
(-4.70957e-07 -1.47335e-06 1.20375e-06)
(-4.82643e-07 1.7967e-07 1.45042e-06)
(-0.000233916 -0.000485186 1.15915e-05)
(3.41109e-07 2.68356e-06 0.00014472)
(4.86032e-05 -9.83463e-05 5.77913e-05)
(2.85017e-09 -1.65937e-09 1.07392e-06)
(0.000397528 -0.000585575 0.00031197)
(-3.86994e-06 -2.73328e-06 6.61147e-06)
(0.000337771 -0.000543976 0.000360207)
(2.23101e-05 -4.88259e-05 0.000360207)
(-2.34903e-07 1.45092e-06 1.85808e-11)
(-0.000521174 9.42708e-08 6.13871e-06)
(-2.21407e-07 5.70183e-07 1.77464e-06)
(-0.000460223 -0.000576842 8.37123e-06)
(-5.03358e-07 2.62711e-06 1.85808e-11)
(2.8513e-09 -1.65757e-09 1.07392e-06)
(3.41109e-07 2.68356e-06 0.000168762)
(-0.000405506 0.000428356 1.17232e-06)
(-0.000171398 0.000514342 2.30171e-06)
(0.000143914 -0.00127828 8.69123e-09)
(-0.00037025 0.000463612 1.32444e-06)
(-0.000247186 -0.000243258 0.000194994)
(9.28637e-12 2.14948e-12 6.18547e-12)
(-4.72325e-07 1.27877e-06 1.77464e-06)
(-1.92462e-06 -2.37756e-06 6.37728e-06)
(-5.78751e-05 -0.000119634 6.52861e-06)
(4.02514e-07 2.85905e-06 0.000742654)
(2.49226e-16 -6.3275e-17 4.84468e-18)
(-0.000408143 0.000425719 1.17232e-06)
(-9.54192e-07 -3.36275e-07 9.24435e-07)
(-0.000170325 0.000514717 2.30171e-06)
(3.41109e-07 2.68356e-06 0.00147256)
(-0.00183698 9.42708e-08 4.96928e-06)
(-6.13168e-07 1.21179e-06 1.77464e-06)
(-0.00183698 9.42708e-08 5.13194e-06)
(0.000224763 -0.00126917 8.69123e-09)
(2.8123e-09 -1.71963e-09 1.07392e-06)
(0.000160611 -0.0012764 8.69123e-09)
(-0.00182007 0.000150139 6.13871e-06)
(1.44131e-18 7.04098e-19 -3.65891e-36)
(-4.43247e-08 4.49139e-08 6.64501e-07)
(-2.2176e-06 -3.76272e-06 2.27971e-06)
(-1.686e-06 -3.94873e-06 2.20938e-06)
(0.000414633 -0.00121803 8.69123e-09)
(-6.40228e-06 4.28798e-06 6.24027e-07)
(-4.78066e-07 1.86955e-07 1.45042e-06)
(-1.85446e-18 5.1961e-15 2.26116e-12)
(-6.09779e-09 -1.26476e-08 8.70661e-07)
(-1.35635e-13 3.38387e-12 1.19023e-06)
(6.70378e-07 1.12657e-06 1.22189e-06)
(-8.48209e-18 1.49517e-17 4.43302e-17)
(-6.50522e-07 -8.75074e-08 2.70923e-06)
(-1.68514e-07 1.66421e-07 8.4263e-07)
(-0.00182019 0.000149118 6.13871e-06)
(-7.71312e-20 -9.87873e-20 2.69484e-19)
(3.41109e-07 2.68356e-06 1.12532e-07)
(-0.0018226 0.000127708 6.13871e-06)
(-0.000255757 -0.000471462 6.52861e-06)
(-0.000414356 0.000419507 1.17232e-06)
(-2.96989e-06 -1.14091e-06 2.42643e-09)
(-0.000502843 -0.000534221 5.74125e-06)
(-6.57006e-06 4.26099e-06 0.000742654)
(4.29304e-09 -1.4638e-09 2.30908e-06)
(-0.000188033 -0.000501241 6.52861e-06)
(0.000520415 -0.00227477 8.69123e-09)
(-5.49618e-07 1.25172e-06 2.21605e-06)
(7.20114e-10 -4.59469e-10 6.28452e-07)
(-0.00037025 0.000463612 1.05899e-06)
(4.50325e-09 -5.43916e-10 2.30908e-06)
(3.10534e-07 2.41221e-06 0.000742654)
(-3.8661e-06 -2.76743e-06 6.61147e-06)
(-0.00306053 9.42708e-08 6.13871e-06)
(-0.000407566 0.000426296 1.17232e-06)
(2.98721e-09 -1.44127e-09 2.06134e-06)
(0.000148085 -0.000643483 8.69123e-09)
(0.000103358 -0.00116065 2.20693e-06)
(5.08906e-13 1.94124e-14 1.38444e-15)
(-4.71999e-07 1.27888e-06 1.77464e-06)
(4.50468e-09 -5.31266e-10 2.30908e-06)
(-0.00183698 9.42708e-08 5.24701e-06)
(-2.25612e-06 -2.5372e-06 4.30507e-06)
(7.1876e-10 -4.61624e-10 6.28452e-07)
(6.71813e-10 -5.3634e-10 1.204e-06)
(-1.38791e-06 -1.86895e-06 1.50692e-06)
(-0.000408239 0.000425623 1.17232e-06)
(0.00038036 -0.00123002 8.69123e-09)
(-0.000314316 0.000498758 1.17232e-06)
(-3.84416e-06 -2.96207e-06 8.39905e-06)
(-1.88556e-06 -2.48921e-06 4.30507e-06)
(1.88707e-13 -6.24913e-14 4.20062e-12)
(3.45656e-12 -2.09333e-12 1.51837e-12)
(6.14903e-07 1.12032e-06 1.22189e-06)
(-0.000411247 -0.000853417 6.52861e-06)
(1.88766e-13 -6.23218e-14 4.20062e-12)
(4.26075e-07 1.09905e-06 2.0035e-06)
(6.71813e-10 -5.3634e-10 1.00797e-06)
(2.53109e-06 9.86788e-07 6.01952e-07)
(2.98721e-09 -1.44127e-09 1.59116e-06)
(6.91252e-07 1.12892e-06 1.22189e-06)
(-3.15466e-06 -3.54118e-06 1.92128e-07)
(-3.27159e-05 4.03579e-05 1.17232e-06)
(-0.00181401 -0.00020379 6.13871e-06)
(0.00010898 -0.00116002 2.20693e-06)
(-5.33403e-07 -0.00207018 2.20693e-06)
(5.52873e-13 -1.54836e-12 5.25852e-12)
(-4.06201e-07 9.51966e-07 1.67468e-10)
(-5.49618e-07 1.25172e-06 2.24403e-06)
(-9.54186e-07 -3.36292e-07 9.24435e-07)
(4.26075e-07 1.09905e-06 6.10403e-07)
(-1.69439e-06 -3.98546e-06 2.27971e-06)
(-7.98299e-05 0.000536617 2.30171e-06)
(-1.92462e-06 -2.37756e-06 2.12948e-06)
(1.30891e-06 5.64903e-07 1.03866e-10)
(0.000148617 -0.00127775 8.69123e-09)
(0.000107349 -0.0011602 2.20693e-06)
(-6.16551e-06 -4.22839e-06 9.85339e-08)
(8.8597e-13 -7.06544e-13 7.9086e-13)
(0.000289236 -0.00126191 2.2718e-06)
(-0.000120994 0.000531979 1.68924e-06)
(1.14765e-12 6.84751e-13 6.81267e-07)
(-1.27081e-06 -3.99551e-06 2.27971e-06)
(-0.000120994 0.000531979 1.78982e-06)
(-1.09768e-11 -6.93565e-12 1.39377e-11)
(-7.06979e-05 0.000537646 2.30171e-06)
(1.98423e-13 -1.82855e-14 4.20062e-12)
(4.26075e-07 1.09905e-06 4.01512e-07)
(2.06951e-14 4.31486e-12 2.33392e-12)
(7.21804e-07 1.98152e-07 6.01952e-07)
(-0.000223324 0.000980312 2.30171e-06)
(-5.33403e-07 -0.00117236 3.04238e-06)
(7.25004e-14 3.4567e-12 5.9678e-07)
(-7.15304e-06 -3.7173e-06 6.61147e-06)
(1.07802e-09 1.66164e-09 3.55839e-06)
(-3.14478e-08 4.09183e-07 4.61889e-12)
(1.65909e-12 -1.09203e-11 1.65714e-06)
(-2.33152e-14 3.92426e-12 2.33392e-12)
(1.57601e-15 1.14723e-15 3.30529e-18)
(-3.46242e-07 -1.51699e-06 2.32782e-06)
(-6.55646e-06 -4.31762e-06 9.85339e-08)
(-2.3836e-08 -5.45832e-07 7.32793e-06)
(-2.93282e-08 -6.69831e-09 2.18909e-06)
(-2.85732e-08 4.09507e-07 4.61889e-12)
(-4.04324e-13 3.35359e-12 5.9678e-07)
(8.88805e-13 6.47851e-13 1.73758e-12)
(9.8098e-13 -1.08439e-11 3.12397e-06)
(-1.79028e-07 4.55283e-07 5.82906e-07)
(1.554e-12 -1.09084e-11 1.65714e-06)
(-4.21496e-09 -5.45832e-07 3.78124e-06)
(-3.46242e-07 -1.51699e-06 1.88634e-06)
(5.18463e-10 -1.36153e-10 7.58552e-12)
(-1.15514e-11 -1.83626e-12 2.03527e-11)
(-4.0155e-08 8.3383e-08 5.82906e-07)
(5.15591e-10 -1.48736e-10 1.00454e-11)
(-5.62955e-10 -2.39931e-09 2.08237e-06)
(-1.15514e-11 -1.83626e-12 1.84401e-11)
(3.06736e-13 1.44571e-12 5.9678e-07)
(1.98209e-13 -2.01803e-14 4.20062e-12)
(-1.11567e-11 -5.33908e-12 1.39377e-11)
(1.97522e-13 -2.62773e-14 4.20062e-12)
(5.17227e-10 -1.41566e-10 7.58552e-12)
(-1.22568e-11 1.79748e-13 1.39377e-11)
(-1.424e-09 -2.415e-09 2.08237e-06)
(-9.23847e-10 -7.58241e-10 2.08237e-06)
(1.51753e-10 7.40692e-10 6.68929e-07)
(-5.62544e-12 -4.83696e-13 1.39377e-11)
(-9.23847e-10 -1.45414e-09 2.08237e-06)
(4.12126e-13 5.13944e-10 1.40732e-12)
(-1.39092e-15 7.9478e-15 5.31708e-14)
(-9.23847e-10 -2.35865e-09 5.3232e-07)
(-1.9327e-09 -2.2502e-10 6.87312e-12)
(3.70302e-19 2.31802e-22 6.62124e-18)
(-9.76442e-15 1.3441e-14 8.15739e-17)
(7.78649e-13 2.86941e-12 1.33774e-12)
(-4.70962e-09 -1.86937e-10 9.65838e-08)
(-7.54268e-12 -1.45465e-12 4.41607e-12)
(-2.70583e-13 -2.3979e-12 6.05341e-12)
(1.16061e-19 2.31802e-22 3.68396e-18)
(-9.76442e-15 1.3441e-14 7.50293e-17)
(-7.36116e-12 -3.06568e-12 4.41607e-12)
(-4.43914e-12 -2.01139e-11 1.26277e-14)
(-4.15153e-12 -1.88538e-11 1.26277e-14)
(3.6722e-19 2.75797e-20 3.68396e-18)
(-9.26403e-12 -4.7549e-12 4.41607e-12)
(3.42213e-12 -9.24728e-10 2.1443e-12)
(-1.53607e-14 1.21637e-14 6.62554e-17)
(4.62875e-15 3.33767e-17 7.00029e-13)
(-1.43706e-11 -4.7549e-12 4.41607e-12)
(-4.1192e-12 -1.87122e-11 1.26277e-14)
(1.67497e-28 5.49678e-28 6.35059e-22)
(-3.59084e-15 5.46118e-15 7.41553e-15)
(-1.14424e-13 -2.19438e-13 4.03407e-12)
(-1.77815e-14 6.37798e-13 1.69311e-15)
(7.52361e-16 4.79725e-15 1.28605e-17)
(-1.43095e-13 6.71313e-13 1.11303e-09)
(-4.36173e-14 -8.47867e-13 1.84818e-13)
(-3.75652e-19 -9.27769e-20 -1.86071e-19)
(6.33251e-16 -1.75589e-15 1.88931e-12)
(9.33361e-16 -1.07065e-16 1.37696e-12)
(-1.23344e-17 -6.28026e-18 5.48063e-17)
(1.79279e-17 6.58596e-16 1.62721e-10)
(1.15032e-19 -2.38201e-22 -1.18455e-34)
(-4.36341e-19 -9.98363e-20 3.40581e-34)
(1.08402e-30 -9.21166e-19 2.89937e-16)
(-1.084e-30 -4.73124e-19 1.71011e-17)
(-1.084e-30 1.01814e-18 9.5859e-18)
(-9.08722e-19 4.73083e-20 -1.71799e-19)
(-1.53426e-12 0.000571885 0.000211949)
(-1.53426e-12 0.000125433 7.44761e-13)
(-1.53426e-12 7.22021e-05 7.44761e-13)
(2.04669e-13 -1.58206e-06 1.77011e-11)
(3.43103e-13 -1.66835e-09 1.51195e-09)
(2.76846e-20 3.9833e-19 -4.97944e-37)
(-2.96735e-14 -3.90832e-06 -8.73764e-07)
(2.46612e-06 -1.26039e-07 -8.73764e-07)
(-1.56746e-19 -5.59467e-19 9.66854e-35)
(2.28542e-12 -1.73311e-13 -5.01968e-12)
(-1.80312e-17 2.565e-16 1.62029e-16)
(-3.09366e-17 5.71657e-21 5.17226e-15)
(-1.5439e-14 1.45679e-13 3.54901e-11)
(-1.06512e-20 1.98154e-18 -3.11867e-16)
)


// ************************************************************************* //
