/*--------------------------------*- C++ -*----------------------------------*\
| =========                 |                                                 |
| \\      /  F ield         | OpenFOAM: The Open Source CFD Toolbox           |
|  \\    /   O peration     | Version:  plus.master                           |
|   \\  /    A nd           | Web:      www.OpenFOAM.com                      |
|    \\/     M anipulation  |                                                 |
\*---------------------------------------------------------------------------*/
FoamFile
{
    version     2.0;
    format      ascii;
    class       vectorField;
    location    "8.8/lagrangian/kinematicCloud";
    object      U;
}
// * * * * * * * * * * * * * * * * * * * * * * * * * * * * * * * * * * * * * //


96597
(
(-0.000414386 -0.00280009 -0.00145003)
(-0.000470834 0.000280971 -0.000356863)
(-9.15391e-05 0.000174075 0.00022679)
(-0.000301449 0.000715977 0.00250349)
(-0.000556799 0.000191665 0.000260254)
(0.000189192 0.000338854 0.000402275)
(-0.000547017 0.00030838 0.000279514)
(-0.000215328 -0.000264923 -0.00329232)
(-0.000845367 -0.000307945 0.00293004)
(1.326e-05 -1.99773e-05 -0.00179647)
(-0.000479727 4.77074e-05 0.000273607)
(-0.000855835 9.98629e-05 0.00324474)
(0.000605819 0.000806684 -0.000908923)
(-0.000512717 0.000411949 -0.00330818)
(-0.000231165 5.56275e-05 0.000472723)
(0.000875149 -0.000122816 0.000296541)
(-0.000816584 -0.00189239 0.000142848)
(0.000226405 -0.000390898 0.00053526)
(-0.0011805 -3.90027e-05 -0.00168793)
(-0.000471629 -5.5692e-05 0.000336247)
(-0.000227734 -0.000421967 0.00480808)
(-0.000142722 0.000267944 -0.00395415)
(0.00026722 0.000552764 -0.00119181)
(0.000436604 0.000577044 0.000498428)
(-0.000904698 -0.000263778 -0.0018709)
(0.000265527 0.000318574 0.000217137)
(0.000625115 -0.000694429 -0.00683417)
(1.59485e-05 8.9259e-05 0.000412008)
(0.000357528 0.000464323 0.000542761)
(-0.000774933 8.10812e-05 0.000254429)
(0.000382839 -0.000409548 -0.000653986)
(-0.000859527 0.000177654 -0.00185515)
(0.000690567 -0.000508867 0.00026366)
(1.57855e-06 8.35277e-06 -0.00474705)
(-0.00132715 -3.39841e-05 -0.0030451)
(-0.000832601 0.000107866 0.00031507)
(-0.000115492 -0.000195483 -0.0028173)
(3.64279e-05 -6.76194e-06 0.000389058)
(0.000791574 -0.000151796 -0.00025296)
(-0.000166985 7.91202e-05 -0.00193042)
(-0.000989858 0.000509927 0.000310677)
(0.000209359 0.000542484 1.0523e-05)
(-0.000915653 -2.65286e-05 -0.00155689)
(0.000425694 -0.000429362 0.000125511)
(0.000355276 -0.000489616 0.000403454)
(-0.000757007 0.000168382 0.000540979)
(-0.00019649 0.000533871 0.00025802)
(-6.17611e-05 -0.00109794 -0.00212565)
(0.000262969 0.000638996 0.00035857)
(0.000347418 -0.000592203 0.000274652)
(-0.00069495 2.28588e-05 0.000422254)
(0.000311467 -0.000535384 0.000473813)
(-0.00104938 0.000514455 -0.00104734)
(-0.000285371 3.19221e-05 0.00266201)
(-0.0013815 0.000411349 -0.00399232)
(-0.000684119 -0.000255157 -0.00175523)
(-0.000387157 0.000234988 0.000306135)
(-0.00125412 0.00267736 -0.00108073)
(0.000333701 -0.000253164 0.00230987)
(-0.000675671 -0.000188683 -0.00272653)
(-0.000778943 4.27651e-06 0.000335031)
(-0.000757867 0.000158158 0.000314362)
(-0.000983136 0.000114375 -0.000706269)
(0.000483773 -0.000380708 -0.00281344)
(-0.00204486 0.000117746 -0.00228182)
(5.36871e-06 0.00046033 0.00676138)
(1.12343e-05 0.00014648 0.000338858)
(-0.00581719 0.0082773 -0.0018287)
(-4.102e-05 0.000102871 -0.00391658)
(-0.000769501 4.18378e-05 0.000315888)
(-0.000742527 -0.000167739 -0.00410681)
(-0.000444317 0.000266879 0.000513251)
(-0.00075658 -0.000264233 0.000398935)
(-0.00078821 -0.000396214 -0.00107585)
(-0.000935327 -6.74587e-05 -0.00136845)
(-0.00113408 0.000134425 -0.00177051)
(-3.7503e-05 -3.53158e-05 -0.00548023)
(-0.00220175 5.47412e-05 0.0013227)
(-0.00133741 -0.0010937 0.000353202)
(-0.00102352 -0.000155203 -0.00178169)
(-0.00060802 0.000312302 -0.00195604)
(0.000417778 0.000319204 0.000175512)
(0.00085079 -0.00068919 0.000154025)
(-0.000864399 -7.71424e-05 -0.000105668)
(3.67871e-05 -8.46971e-05 -0.00533636)
(-0.000568821 -0.000253094 -0.00694369)
(-0.00128318 0.000629856 0.000144321)
(-6.64999e-05 0.000105281 0.00267284)
(0.000109841 -0.00131333 -0.003747)
(-5.03736e-05 -0.00129265 0.00703335)
(2.72933e-05 -7.325e-05 0.000579575)
(-0.00142256 0.000197393 -0.0030517)
(-0.000405696 5.65846e-05 0.000391562)
(0.000508516 0.000653816 0.000225453)
(-0.000461578 0.000297325 -0.00520843)
(0.000320189 0.000390733 0.00580895)
(-0.0010722 -0.000158404 -0.00164737)
(-0.000188374 9.21129e-05 0.00071531)
(0.000488331 -0.000295483 0.000290998)
(0.000468833 -8.20596e-05 -0.000901739)
(0.000288529 6.34092e-05 0.000541884)
(-0.000191884 6.22901e-05 -0.00303019)
(-0.000301336 6.81727e-05 0.000368821)
(-0.000139804 -0.000783884 -0.00561129)
(-0.000878405 -0.000313719 -0.00466188)
(0.000624867 -0.000530617 0.000369666)
(-2.64402e-05 9.14948e-05 -0.00178592)
(0.000337536 -0.000463473 0.000542527)
(-0.000408079 -9.95587e-05 0.0017827)
(1.02704e-05 -0.000405911 0.000396031)
(0.000504584 -0.0002479 0.000385942)
(-0.001138 0.000208277 0.00233915)
(-0.000318064 0.000399047 -0.00152155)
(-0.00103135 -2.2351e-05 0.000508325)
(-0.000841232 0.000370374 0.000312278)
(-0.000693572 0.000705252 0.000230338)
(-0.00185297 -0.000506696 -0.00233156)
(8.5179e-07 0.000448426 0.00195321)
(-0.00158047 -0.00050208 -0.00311546)
(-0.000589642 0.000600858 -8.76248e-05)
(-0.000570267 4.76388e-05 -0.00191346)
(-0.000395379 0.000907363 -0.00444283)
(-0.000650038 0.000319905 0.000576878)
(0.000156962 0.00028629 0.000375013)
(-0.00144272 0.00017952 0.000341979)
(-0.000211521 -0.000938259 0.000316668)
(-0.000874503 -4.54182e-05 -0.00228779)
(-0.000191738 0.000695521 -0.00181735)
(-0.000783757 3.93696e-05 0.000321866)
(-0.000641382 5.06192e-05 -0.00113547)
(-0.000625617 0.000373094 0.000373631)
(-0.000814039 0.000377906 0.00038043)
(-0.00054262 -3.52672e-05 -0.00251163)
(-0.000663986 -7.07712e-05 0.000369671)
(-0.00102663 -0.000108896 -0.0023135)
(1.69336e-05 8.87224e-05 0.000445213)
(-0.000804297 -0.000401774 -0.00227493)
(-0.000541596 0.00039133 0.00158975)
(-3.43651e-05 0.00011316 -0.00239145)
(0.000413429 -0.000323294 0.000294785)
(0.000311414 -0.000277843 -0.00235631)
(-0.001228 0.000128943 -9.43008e-05)
(0.000524634 0.000684882 0.000331119)
(-0.000600009 -0.00314689 -0.00105214)
(-0.00077403 -0.000117143 -0.00576724)
(0.000165009 0.000229222 -0.000376588)
(0.000350785 -0.000992693 0.000349103)
(-0.000412046 -0.00048043 0.000260096)
(0.000534641 0.000684003 -0.00103983)
(-0.000686889 0.000558423 -0.00383301)
(-0.000848498 0.00065941 0.00107373)
(-0.00136955 -7.58228e-05 0.000273853)
(-0.000172226 -0.000455958 -0.00241601)
(-0.000766121 -0.000284538 0.000738881)
(-0.000573422 0.000341383 0.000428538)
(0.000731551 0.000870478 -0.000380457)
(-0.00110007 0.000575933 -0.00111651)
(0.000482826 0.000611581 -0.00261909)
(-0.0013811 0.000105212 0.000148465)
(0.00109473 0.00151597 -0.00102337)
(-0.000268865 0.000342178 -0.00182553)
(-0.000450788 0.000262035 -0.00312236)
(0.000396361 -0.000542641 0.00269198)
(-0.00195959 -0.00298571 -0.00184609)
(-0.000938321 0.00414924 0.000209328)
(0.000302601 6.78107e-05 0.000496894)
(-0.00134931 0.00330454 -0.00194604)
(-0.000200554 0.000376994 -0.00733787)
(-0.00198884 0.00143104 0.00172352)
(-0.000580721 0.000348143 0.000246897)
(-0.00125666 0.0032269 -0.00147146)
(7.85239e-05 -0.000364212 -0.00315311)
(-0.000775164 1.88985e-05 0.000354945)
(-0.0028386 -0.000432323 -0.00125381)
(0.000316066 -0.000541842 2.91467e-05)
(0.000578895 0.000822277 0.000329344)
(0.00283673 0.000452079 -0.00207242)
(-2.87927e-05 8.24667e-05 -0.00226589)
(8.23872e-05 -3.55701e-05 -0.00348357)
(-0.000960825 -8.58303e-05 0.000340183)
(0.00196252 -0.00172042 -0.00139825)
(0.000475405 -0.000474321 0.000111657)
(0.000574176 -0.000581159 0.000809739)
(0.000522014 0.000679875 0.000311457)
(-8.21002e-05 -0.000291029 0.000261311)
(-0.00103192 0.000218265 -0.00195488)
(-0.000959561 0.00025543 -0.00261533)
(-0.000215541 -4.54835e-05 -0.00196373)
(0.000235741 0.000181629 0.000232512)
(-0.000129581 0.000142947 0.00212568)
(-0.000826443 0.000166682 -0.00169349)
(-0.00054266 -6.54481e-05 0.000893939)
(-0.000760397 1.03371e-05 -0.00179633)
(-0.000599496 7.58652e-05 -0.00192371)
(9.10622e-06 -3.53799e-06 -0.00151337)
(-0.00190741 0.000342223 -0.00276325)
(-0.000178083 -2.78408e-05 -0.00556814)
(-0.000662649 -1.21604e-05 0.000476657)
(-0.000347665 -0.000482113 -0.00286263)
(-0.000607947 -0.000222494 -0.000426492)
(-0.000539219 0.000334269 -0.00295287)
(-7.99394e-05 -0.000265055 0.00207489)
(-0.000559713 -0.00012298 0.00118976)
(0.00105514 0.00127832 -0.00610445)
(0.000377925 0.000843723 0.00134954)
(-0.000562718 0.000309724 -0.00304654)
(-0.0010297 0.000660391 -0.00478742)
(-5.64411e-05 0.000190334 -0.00140948)
(0.000152534 0.000276574 -0.00170668)
(0.000211118 0.000456295 0.000337209)
(-0.000862197 0.000871702 -0.00176603)
(-0.00185861 -5.63259e-05 -0.00296552)
(-0.000953085 3.05111e-05 0.000346286)
(0.000306481 0.000692562 0.000251998)
(-0.000102593 9.38225e-05 0.00382089)
(0.00107996 -0.000565566 -0.00631663)
(0.000106031 0.00019796 0.0070996)
(0.000386965 0.000728375 0.000368106)
(-0.000835444 0.000306181 -0.00140072)
(0.000227097 3.61709e-05 -0.000366357)
(-0.000656628 -0.00023937 0.000589588)
(0.00055133 0.000726277 -0.00300318)
(7.95241e-05 0.00122834 0.000311025)
(-0.000693757 0.000350334 0.000428616)
(0.000747621 -0.000551762 -0.00135752)
(0.00241379 0.000478187 -0.00218612)
(-9.8602e-05 0.000238293 0.000738586)
(0.00018941 0.000425941 0.000217265)
(-0.00168251 -0.000454198 0.000269533)
(0.00062552 -0.000743079 0.00390812)
(-0.000333395 -0.000575574 -0.00543295)
(-0.00104151 8.65487e-05 -0.00270103)
(-7.56183e-05 -0.000280133 0.000112255)
(-0.000601408 0.00341693 -0.00107697)
(0.0020145 -0.00136033 -0.00174218)
(-0.00137204 0.00194575 -0.00241333)
(-0.000443157 -0.00011033 -0.00616183)
(-3.84915e-05 -0.000212481 -0.00277527)
(-0.000968546 4.12605e-05 -0.00545099)
(-0.000242577 -0.000513078 -0.00433623)
(0.000391708 -0.00142013 0.000347055)
(-0.000728935 -0.000261286 0.000377614)
(0.000274124 0.000691642 0.000401804)
(8.24264e-06 -0.000461515 0.00247321)
(2.42636e-05 3.07177e-05 0.000198392)
(0.000391809 -0.000299921 0.000249102)
(-0.000338281 0.00048896 0.000488054)
(0.000337816 -0.000259132 0.000478965)
(0.00016706 0.000304515 0.000340885)
(-0.00102204 -2.52445e-05 0.000212764)
(0.00193277 -0.000195296 0.000425276)
(4.00411e-05 0.000151124 -0.00751592)
(0.000720841 0.00162598 -0.000116686)
(0.000430485 -0.000586942 0.000378663)
(-0.000105301 0.000237085 0.000573753)
(8.41529e-05 -0.000194416 -0.00381649)
(0.000362605 -0.000634289 0.000331793)
(-0.000364847 -3.9242e-05 0.000489312)
(-0.00137132 0.000277191 -0.00278783)
(0.0005777 -0.000427513 0.000480802)
(0.000132593 5.96388e-05 -0.00307807)
(0.00124544 -0.000594521 0.000581913)
(0.000528718 0.000687261 0.000326604)
(-0.000315658 6.80072e-05 -0.000389932)
(-0.000239954 -0.000375119 0.000219728)
(-4.40214e-05 0.000100488 0.000377588)
(0.00077439 -0.00377199 0.000813058)
(-0.000855821 0.000175258 0.000524272)
(-7.96573e-06 6.70583e-06 0.00751164)
(1.72237e-06 0.00013412 0.000535855)
(-0.00014837 0.000476437 0.000515115)
(-0.000664634 5.26251e-05 0.00319385)
(-0.00122359 0.000140546 -0.00322067)
(0.0017406 0.000811264 -0.0014301)
(-0.00067548 -0.000329689 0.000121824)
(-0.00111002 0.00108835 0.000506101)
(-8.4014e-05 0.000395356 0.000256282)
(-0.00159709 0.000147684 0.000264408)
(0.00025332 -0.000407157 0.000493731)
(-0.000980336 0.000610581 0.00743636)
(-0.000935756 -0.000442397 0.000601481)
(-0.00116455 0.00023732 0.000306119)
(-0.000691031 -0.000246635 -0.00170515)
(0.000237309 -2.12799e-05 -0.00693554)
(-0.000181766 2.93923e-06 -0.000396793)
(0.000682676 -0.000576929 0.000328443)
(0.000144741 0.00244883 -0.00374186)
(0.00128076 -0.000602931 0.000213866)
(-0.00223794 0.00267091 0.000522921)
(-0.00100976 0.000296732 -0.000559544)
(-0.000817198 -3.26175e-06 0.000285002)
(0.000615659 -0.00040421 -0.00110066)
(-0.00155556 -0.00124954 0.00141474)
(-5.46932e-05 0.000158231 -0.000212098)
(0.000378883 -0.000283758 0.000686234)
(-0.000476524 0.0010164 -0.00118722)
(-0.000144968 -9.03054e-05 -0.00179538)
(-0.00121869 -0.000208891 0.000318991)
(-0.000955293 0.000885782 0.000759329)
(-8.57536e-05 0.000314979 0.00826259)
(-0.00186294 -0.000563273 -0.003311)
(0.000368181 0.000472837 -0.00115754)
(-0.000268456 -3.95094e-05 0.000296175)
(0.00147202 0.000975565 0.000344491)
(0.00054175 -0.000551759 0.000333507)
(0.000241834 0.000527307 -0.000125295)
(0.000316319 0.000769064 -0.00172455)
(-0.00110119 -0.000116024 -0.00107225)
(-0.000685784 0.000343106 0.00270676)
(0.000234908 0.000553872 0.000141496)
(0.000158217 0.000281935 0.000431122)
(-8.73564e-05 0.000205364 0.00227736)
(9.91586e-05 -0.000270239 0.000308391)
(-0.000740413 -0.000272345 -0.0011229)
(-6.82742e-05 0.000198952 -0.00224199)
(-0.00174419 0.000155698 -0.00234457)
(-0.000689228 -0.000261472 0.000278231)
(0.000646729 -0.000415715 0.00030116)
(0.000557977 0.000631412 -0.00650808)
(-0.000683236 0.00069678 0.000574757)
(0.000449622 -0.000458438 0.000512933)
(-0.000634809 0.000637968 -0.000558682)
(0.000331552 -0.000356632 -0.00661344)
(0.000664201 0.000762032 0.00270742)
(7.87061e-05 -0.000231954 0.00664829)
(0.00291001 9.14434e-05 -0.00102957)
(-0.00137487 -0.00111415 -0.00236062)
(2.55473e-05 8.42206e-05 -0.000904068)
(0.000121301 0.00117374 -0.00256248)
(-4.88477e-05 0.000216185 -0.000195653)
(0.000276137 -0.00044737 0.000451211)
(-0.000127351 0.000440213 -0.00115978)
(-0.000894047 0.000105537 0.00035879)
(0.000157592 -0.000419182 -0.00035571)
(-0.00013636 0.000329895 -0.00615477)
(-0.00138439 -0.00295025 0.000167015)
(0.000595273 -0.00306966 0.000401315)
(0.000395433 -0.000313587 -0.00230357)
(0.000359596 -0.00132719 -0.00172311)
(-0.000905598 -0.000442974 -0.00692289)
(-0.000280072 -0.000463134 -6.3635e-05)
(0.00012975 -9.08639e-05 -0.00187121)
(-0.000443328 0.00025179 -0.000901146)
(-0.000869453 0.000845534 -0.00511875)
(-0.00238266 -0.000322825 -0.0101069)
(0.00359043 0.000740693 0.00602756)
(0.00053243 -0.000534603 0.000279474)
(0.000400346 0.000589036 0.00339532)
(0.000523247 0.000591263 9.26362e-05)
(-0.00105285 0.000518044 0.000192042)
(-0.00117736 0.000248682 0.000221274)
(-0.000665121 0.000306395 -0.000287033)
(0.000263796 0.00065848 0.00028834)
(-6.8921e-05 -0.000239537 -0.00013893)
(-0.000327458 7.22029e-05 -0.00138379)
(0.000463543 -0.000370941 -0.00223934)
(0.000289044 0.000661295 0.0024297)
(-0.000160305 0.00056539 0.000340954)
(-0.000894798 8.09575e-05 0.00026279)
(-0.000969981 -0.000304628 0.000515083)
(-0.000280839 2.96983e-05 0.000294955)
(-0.00134972 0.000252061 0.000213478)
(0.000294134 -0.000500549 -0.000896856)
(-0.000663343 5.53633e-05 0.000334827)
(-0.000243161 0.000470448 -0.001401)
(0.000322246 -0.000504377 -0.00194802)
(0.000280633 9.56233e-05 0.000306195)
(0.000219349 0.000565306 -0.0017425)
(-0.000152253 0.000109895 -0.00182953)
(0.00030756 -0.000232384 0.000484794)
(-0.00160858 0.000159964 0.00139661)
(0.000132188 -0.000373691 0.00300051)
(-0.000774206 0.000103418 0.000389619)
(-0.000171407 9.24789e-05 -0.00183901)
(0.000164946 0.000292198 -1.23677e-05)
(-0.000657943 -0.00032451 0.000463459)
(0.00161109 -0.000475717 -1.45605e-06)
(-0.00157317 -7.21161e-05 -0.00234689)
(-0.00130645 -0.000140333 0.000477367)
(-0.000802566 0.000416352 -9.81562e-05)
(-0.000585158 0.000332015 -0.00106926)
(1.01813e-05 -0.000536384 -0.00123992)
(0.000538326 -0.000507844 0.000479188)
(-0.000774269 1.79082e-06 0.00039364)
(0.000368097 0.00082749 -0.00133159)
(0.000150113 0.000267522 -0.00178618)
(-0.000540249 0.000293684 0.000373074)
(-0.000240787 -0.000410146 0.00115924)
(-0.000487077 0.000172533 0.00270682)
(0.000253725 0.000635275 -0.000877047)
(-0.000155502 0.000573848 0.000351724)
(-0.000792206 7.10644e-05 0.000346863)
(-0.000752312 -0.000366906 0.000217688)
(0.000509221 -0.000403794 -0.00394817)
(-0.00107992 0.000215632 -0.000330836)
(0.000253905 0.000584788 0.000268368)
(0.000400838 -0.000405542 0.000297617)
(-0.00127736 9.80878e-05 -0.000229593)
(0.000526554 0.000677484 0.000323744)
(0.000332766 0.000753799 0.000275111)
(-0.00059284 -0.000150269 -0.00198241)
(-0.000866836 0.000129943 0.000260475)
(0.000320227 7.00648e-05 0.000195279)
(-0.00208924 0.00110362 -0.000386477)
(-0.00108838 1.52468e-05 0.000307853)
(0.000548483 0.000881842 -0.00502107)
(-0.000354826 6.71896e-05 -0.00382942)
(0.000490292 3.75113e-05 -0.00151122)
(-0.000781576 0.00144467 -0.00615166)
(-8.78184e-05 -0.000319808 0.000340198)
(0.000566936 -0.000594001 -0.00379316)
(-0.000438519 -0.0011847 -0.00557692)
(-0.000134571 9.6657e-05 -0.00144168)
(0.000279283 -0.000450129 0.000393692)
(0.000710592 0.00053562 0.00146972)
(-9.15677e-05 -0.00033366 0.000322014)
(0.000486498 0.000630706 0.000209545)
(0.000531825 -0.000345542 0.000308714)
(-0.000361048 0.00031599 7.67518e-05)
(-0.000183478 0.000122146 0.000320117)
(0.00029386 -0.000583991 0.000289951)
(-0.000735092 -0.000269255 -0.00264569)
(4.25144e-05 0.000317673 -0.00388546)
(0.000201599 -0.00219079 -0.00166621)
(-0.000281139 0.000352472 0.000283216)
(-0.00119444 -4.71802e-05 0.000327601)
(-0.00211766 -0.000222826 -0.00100999)
(-0.00075597 4.72668e-05 0.000372225)
(0.00111114 0.000190819 0.000954419)
(0.000166248 0.000590016 0.00027418)
(-0.0001912 8.59724e-05 0.000391714)
(-0.000681433 -0.000340917 0.000390257)
(-0.000597217 0.000266585 0.000297112)
(0.000516648 -0.000394288 0.000236213)
(0.000178673 0.000289606 0.00234604)
(-8.84055e-05 -0.000179486 0.000313128)
(-0.000791185 -5.19859e-05 0.000161361)
(0.000588055 -0.00052747 0.00440931)
(-0.000221624 0.000105868 -0.00200539)
(0.000407949 0.000915644 -0.00380315)
(-0.000321238 7.05884e-05 -0.00103139)
(4.19572e-05 -0.000104953 -0.00636873)
(-0.000731938 0.000749307 0.000357605)
(0.000165578 0.00051596 0.000142134)
(0.000522677 0.000684768 -0.00225826)
(-0.000521807 0.00303974 -0.000110371)
(0.00042972 0.000555623 0.000307308)
(0.000138189 -0.000399182 -0.00167763)
(0.00161638 -0.000489663 0.000545643)
(-0.000996526 0.00015595 0.000471287)
(-0.00138904 0.00270617 0.000134354)
(-0.000392757 2.72971e-05 -0.00445709)
(9.92893e-05 -0.00013043 -0.0042949)
(-0.000722486 -0.000345928 -0.00086932)
(-0.000340008 7.56303e-05 -0.00406688)
(0.00056284 0.000798247 0.000309603)
(-0.00084609 -7.36208e-05 0.000291819)
(-0.00082455 0.000169965 0.000341659)
(-0.00314717 -0.00136932 0.00226771)
(-0.000643749 -3.76487e-05 0.00043066)
(-0.00165151 -0.00104546 0.00115209)
(-0.000438577 0.000177755 -0.00128476)
(-0.00187606 -0.000356476 0.000481973)
(-0.00102463 0.000833199 -0.00229853)
(-0.000755348 -0.000233204 0.00032964)
(-0.000463044 -9.00985e-05 -0.00464693)
(0.000762248 0.000804475 0.00324965)
(-0.00171543 0.000170484 0.000392144)
(-0.000399309 0.000586237 -0.00181859)
(0.000527131 0.000681001 0.000264692)
(0.00016232 0.000288769 4.65811e-05)
(-0.000152819 0.000426698 0.00221914)
(0.000383847 0.000492756 -0.00231731)
(0.000593446 0.000671076 0.000165552)
(2.44522e-05 7.48849e-05 0.000258282)
(1.46301e-05 -0.000419706 -0.00171782)
(-0.00104763 -0.000597718 -0.000112067)
(-0.000158888 -8.94696e-05 0.000136143)
(-0.000588603 6.58101e-05 0.000285145)
(0.000348111 -0.000621308 0.000381642)
(-0.000852132 0.000193883 0.000334959)
(0.000419764 -0.000223224 0.000364706)
(0.000495782 -0.000498125 0.000362391)
(-0.00127157 0.000273618 -0.00171381)
(-0.000752245 0.000107098 0.000249695)
(-0.000203978 0.00011652 0.000280942)
(-0.000690726 0.000278213 0.0014378)
(-0.000596802 4.84825e-05 -0.00247389)
(-0.00103014 0.000204706 -0.00193096)
(0.000238339 -0.000208361 -0.00664171)
(-0.000933005 -0.000454164 -0.00275053)
(-0.00116544 -0.000624837 -0.00271711)
(0.000163048 0.00093342 -0.00136885)
(0.000252878 0.000214401 -0.00182691)
(-0.000514965 -0.00044276 -0.00227667)
(-0.000287734 0.000358256 0.00329683)
(0.00014293 0.000583268 0.000316512)
(0.000376571 -0.000517079 0.000290876)
(-0.000683853 0.000405234 -0.0010228)
(-0.000893496 0.00128206 -0.000515464)
(-0.000626423 0.000134311 -5.50855e-05)
(0.000342846 0.000787358 0.00271606)
(-0.000204661 5.26415e-05 0.000456915)
(0.000246398 0.000588446 0.000355879)
(-0.000134555 -0.00188331 -0.00098987)
(0.000585922 -0.000708325 0.00401904)
(-0.000502213 0.000298421 0.000131481)
(-0.00031028 0.000274927 -0.00151729)
(-0.000634521 0.000374819 0.000330248)
(-0.000941416 -8.67101e-05 -0.00139998)
(0.000380371 0.000325676 -0.00172381)
(0.00041223 0.000447596 -0.00597313)
(0.00149782 -0.000476008 -0.00693197)
(-1.63103e-05 -0.000225595 0.00634039)
(0.00051505 0.000676049 0.000331059)
(-0.000127661 9.12834e-05 0.000333445)
(-0.000591759 0.00022852 -2.73437e-05)
(1.59475e-05 8.59666e-05 0.00229123)
(0.00406802 0.000331015 0.000548539)
(-0.000178792 8.16658e-05 -0.00014291)
(0.000497807 -9.19379e-05 0.000490526)
(-6.03806e-05 0.000174817 0.00143698)
(-5.60302e-05 9.0646e-05 -0.00229407)
(-0.00127534 9.90863e-05 -0.000652772)
(-0.00025121 6.13043e-05 -0.00169403)
(-0.000761221 3.65261e-05 0.000345546)
(-0.000868335 9.78454e-05 3.33486e-05)
(0.00043771 -0.000335292 -0.00107013)
(-0.000217796 5.95461e-05 0.000548775)
(-0.000890398 0.000120777 -0.000184924)
(-0.00020729 9.31897e-05 -0.00269039)
(0.000205023 0.000521087 -0.000315611)
(0.000787811 -0.000220087 0.000160832)
(-0.00108929 0.000143824 -0.00395085)
(-0.000666332 0.000397601 -0.00238888)
(0.000646107 0.000742124 0.000336881)
(0.000518286 -0.000741349 -0.00273138)
(2.458e-05 -0.000216479 -0.000903312)
(0.000142181 0.000109632 -0.00584123)
(0.00119504 0.000489705 -0.00192187)
(0.000762212 0.000774306 0.000249949)
(-0.000747089 4.06357e-05 5.36491e-05)
(0.000309651 0.000689134 0.000127656)
(-0.00116049 0.000496257 -0.00223876)
(0.000259506 -0.00108792 -0.000120368)
(-0.00115424 0.000568659 -0.00107418)
(-0.00090135 0.000781247 0.000752579)
(-0.000192159 -0.000230939 0.000298753)
(0.00263986 -0.000561487 0.000286145)
(-0.000320451 0.000937747 0.000348331)
(1.87497e-05 8.71476e-05 -4.3828e-05)
(0.000290952 0.000846387 -0.000177046)
(0.000476638 0.000544767 0.000299881)
(0.000408138 -0.000302418 0.000339999)
(0.000110263 0.000214503 0.00215209)
(-0.00116856 -0.000123363 0.00435745)
(-0.000887243 0.00013888 0.000311925)
(-2.98315e-05 8.31914e-05 -0.00188874)
(-0.00192585 -0.00100589 0.000184364)
(-0.000270782 0.000343014 0.000149465)
(0.000528176 0.000569681 0.000315054)
(0.000224031 0.000661232 -0.00387979)
(0.000613006 0.00122991 0.000447236)
(-0.000233745 6.6499e-05 0.000278049)
(0.000114025 7.02827e-05 0.000267782)
(-0.000654364 0.000374013 -0.00275238)
(0.000661595 -0.000558069 0.00527529)
(0.000177826 0.000445393 -0.000156171)
(0.000887497 -0.000121958 0.000303504)
(-0.000190744 7.10503e-06 0.000300945)
(-0.000660603 -0.000233711 -0.000237487)
(0.00054195 -0.000547827 0.000291021)
(0.000607529 0.000700429 0.000546828)
(0.000512001 -0.00042973 -0.000204582)
(-0.00018838 -1.04496e-05 -0.00328971)
(7.43786e-06 0.000452452 -0.000200318)
(-0.000713148 -0.00028517 0.000338733)
(-7.79676e-05 0.000160292 -0.000235051)
(-0.00207799 -0.000980774 -0.00105933)
(0.000152239 0.000590592 0.00029661)
(0.000657137 -0.00056068 0.000358029)
(-0.000609516 3.16412e-06 -0.000992036)
(0.000242234 0.000613883 0.00221948)
(-0.00129039 0.00311993 -0.0015031)
(0.000461038 -0.000371032 -0.000224985)
(-6.76616e-05 0.000507693 0.000323364)
(-0.000585255 0.000246785 -0.00130933)
(-0.000129847 0.000735056 -0.000550384)
(0.000250876 -0.000303837 0.00447104)
(0.000237301 -0.000363623 -0.00509822)
(-2.43557e-05 0.000128872 -0.00538648)
(-0.000523366 0.000358339 0.000431017)
(-0.00121969 0.00120554 0.000286197)
(-0.000745027 -0.000175831 0.000307478)
(-0.0016081 3.52605e-05 -0.000724683)
(0.000310006 -0.00247492 -0.00132941)
(1.12248e-05 0.000138374 -0.0018713)
(2.47504e-05 6.33492e-05 0.00173618)
(0.000506887 -0.000271972 0.000303835)
(-0.000632499 -0.000226749 -0.000141873)
(0.00114543 0.0031841 0.0016944)
(-0.00594252 0.00854603 -0.00231505)
(0.000358697 -0.000644929 0.000396785)
(-0.000786857 -0.000201183 0.000380562)
(-0.000405343 0.00182241 -0.000482032)
(-0.000564276 0.000330899 -0.00247615)
(0.000648275 0.00056526 0.00082857)
(0.000295661 -0.000155162 -0.00145856)
(-0.000501362 1.58834e-05 -0.0047266)
(-9.65772e-05 0.000480296 -0.00151191)
(-4.73565e-05 9.51822e-05 -0.000325856)
(0.00029191 0.000104194 -0.00334219)
(-0.000604349 6.77358e-05 0.00326401)
(-0.000683296 0.000595808 0.000172843)
(-0.000422283 0.000246487 0.000556403)
(-0.000189841 9.20689e-05 -0.000135049)
(-0.000940004 0.000407127 -0.00142134)
(0.000371088 -0.000196985 0.000299844)
(0.00059261 0.000853128 -2.9237e-05)
(-0.000619612 0.000577707 -0.000435919)
(0.000109709 0.000495157 -0.000397343)
(-0.000228225 -0.000527966 -0.00619397)
(-9.84019e-05 0.000204423 0.000408545)
(0.00022128 0.000565881 -0.00187068)
(-0.000583298 -0.00016555 0.000294666)
(-0.000819631 -7.92097e-05 0.000304604)
(-0.000607929 0.000495137 -0.00460123)
(-0.000949143 4.34314e-05 -0.00106657)
(-7.98345e-05 5.87931e-05 -0.000747199)
(8.89297e-05 7.23566e-05 -0.00262557)
(-5.817e-05 -0.000565812 -0.00384808)
(4.50025e-05 -0.000334001 -0.00430645)
(-0.000362968 0.000341188 -7.44166e-05)
(0.000557721 -0.000302776 0.000619669)
(0.000413984 -0.000742332 -0.00181944)
(0.00241157 -0.000594025 -0.00123438)
(-0.000954291 4.99789e-05 -0.00278614)
(-0.000290559 0.000504027 0.0034834)
(-0.000170684 8.16301e-05 0.000205437)
(0.000315257 -0.000547759 0.00230982)
(-0.000545902 4.44465e-05 0.000494994)
(-0.000737694 0.000115995 4.45605e-05)
(0.000455429 -0.000333249 0.000146971)
(-0.000404158 9.28856e-05 -0.0039363)
(-0.000809789 0.000645866 -0.000873589)
(0.000473426 -0.00121496 -0.00204916)
(-0.000209951 0.000265447 -0.00153674)
(0.000196289 -0.000344533 0.000964409)
(-0.000304765 0.000747808 0.000380031)
(-0.000704778 0.000501045 0.00290312)
(6.80852e-05 -0.000169011 -0.00367152)
(0.000295538 0.000104867 0.000992406)
(0.000530861 -0.000388342 0.000466459)
(-5.48491e-05 5.54138e-05 -0.000117401)
(0.000167073 -0.000425841 -0.00178883)
(-5.92323e-05 -0.000407151 0.000381451)
(-0.000294161 0.00031592 -0.000509495)
(-0.00087874 0.000248694 -0.00175645)
(-0.000814045 -5.15979e-06 0.000313779)
(-0.000756142 9.25835e-05 0.000778057)
(0.00040969 -0.00031706 0.00028358)
(-6.27172e-05 -0.000118606 -0.00425136)
(-0.0011031 0.00108386 -0.00275742)
(0.000456839 -0.00046729 0.00048379)
(-0.000301999 0.000155001 -0.00131335)
(0.000807514 -0.000689555 -0.00278231)
(-2.48951e-05 8.50823e-05 0.000283594)
(-0.000123979 8.28389e-05 0.000403419)
(0.000342219 0.000774562 0.00247579)
(0.000357796 -0.000276965 -0.004363)
(0.0020595 -0.000271585 -0.00595571)
(-0.000709401 -0.000340847 0.00329452)
(-4.04333e-05 0.00011231 0.000221651)
(-0.0007608 6.4412e-05 0.000370483)
(-0.000738216 1.85811e-05 0.000357562)
(2.05628e-05 8.3084e-05 -0.000281881)
(0.000404177 0.000323833 -0.00276283)
(0.00265596 -0.00192686 -0.00120349)
(-0.00101722 0.000155589 0.000206543)
(-0.000662024 7.37338e-05 -0.0022379)
(-7.02244e-06 0.000179393 -0.00189322)
(-0.000635815 0.000323556 -0.00166388)
(-0.000189656 0.000243798 -0.00149502)
(0.000219095 0.000531821 0.000176659)
(-3.38405e-05 0.000204771 0.00577579)
(-0.000653183 0.000315433 -0.00187098)
(-0.000434638 0.000253452 0.000207429)
(-9.02464e-05 -0.000327542 0.000260239)
(-0.000872521 -0.000202026 -0.00201169)
(-0.00109781 0.000154282 -0.00399398)
(-0.00094097 0.000458283 -0.00105)
(8.6228e-05 0.000669139 -0.00225487)
(0.000155424 -0.000418495 0.000515397)
(0.000125376 -9.89384e-05 0.0083263)
(0.000248306 -0.000129385 -0.00237194)
(-0.000201883 2.77447e-05 0.000228494)
(-0.00144289 0.000167223 0.000276156)
(-0.00124597 0.00254818 -7.3526e-05)
(0.000320383 -0.00051114 -0.0010515)
(-0.000776899 0.00011748 -0.0018018)
(-0.000690753 4.48186e-05 0.000448039)
(2.50824e-05 -0.000953336 -0.00158255)
(-0.000711633 0.000303072 0.000465456)
(-0.000131097 0.000402519 0.000105665)
(2.11049e-05 8.06359e-05 -2.98646e-05)
(0.000675747 5.49086e-05 -0.00282656)
(-0.000848117 0.000190187 -0.00104846)
(-0.00103751 0.00016307 0.00142684)
(-0.000792201 0.000700649 0.000267223)
(0.000761203 -0.000250047 -0.00381379)
(0.000632227 0.000711359 0.000266764)
(3.40277e-05 4.65264e-05 0.000144593)
(-0.000955457 0.00105443 0.00259489)
(-0.000734773 5.45e-06 0.000381133)
(-1.34514e-05 3.67242e-05 -0.00395545)
(-0.00147162 -0.000237571 -0.00172069)
(0.000326327 0.000564691 -0.000914183)
(0.000253095 0.000652721 0.000164823)
(0.000121917 0.000212307 0.000328515)
(-6.86217e-05 9.20453e-05 -0.00115148)
(-0.000774301 0.000316589 -0.00396441)
(-0.000143808 -0.000296911 -0.00175679)
(0.000369335 -0.000287426 0.000485206)
(-0.00180245 -0.000492571 -0.000174993)
(-0.000821455 0.000471269 0.00171201)
(0.000351066 0.00076934 0.000675999)
(-0.000516394 0.00337544 -6.68321e-05)
(-0.000337892 1.78894e-05 -0.0056556)
(-0.000646538 0.000661893 0.000301627)
(-0.000539385 0.000252471 -0.00108023)
(-0.000415322 0.000816859 0.00351311)
(-4.44971e-05 0.000114928 -0.00195476)
(-0.00125324 0.00281042 -0.000116665)
(0.000410222 -0.00074786 -0.00148006)
(0.00016791 0.000298394 0.000204975)
(-0.000130551 -0.0002586 -0.00290081)
(0.000382117 -0.00142955 -0.000129832)
(-0.00066764 0.000684688 0.000237759)
(0.000552523 -0.000557252 -0.00111567)
(-0.000671429 -0.000192413 -0.000636922)
(0.000623883 0.00080623 -0.00112158)
(-0.000257545 -3.61443e-05 -0.000198714)
(-0.000987963 0.000418178 -0.00178867)
(0.000173053 0.00030829 0.00022642)
(7.06268e-05 -0.000305641 -0.00387782)
(0.000400484 -0.000102645 -0.00121664)
(0.000337822 -0.000157158 -0.00231002)
(-0.00075695 -0.000270751 0.000356542)
(-0.00150388 0.00263721 -0.000119666)
(-0.00078584 0.000620707 0.00389686)
(-0.000612351 -4.0589e-05 0.000522212)
(0.000286444 0.000724606 0.000296044)
(-0.00010056 -0.000141372 -0.00266017)
(-0.000365962 8.91004e-05 -0.00224361)
(-2.55889e-06 -0.000184649 -0.00275512)
(-0.00589088 0.00836578 -0.00232814)
(0.00017032 0.00029963 0.000297007)
(0.00205934 -0.000274082 -0.00281207)
(0.000576209 -0.000767709 -0.00359635)