/*--------------------------------*- C++ -*----------------------------------*\
| =========                 |                                                 |
| \\      /  F ield         | OpenFOAM: The Open Source CFD Toolbox           |
|  \\    /   O peration     | Version:  plus.master.MPPICInterFoam            |
|   \\  /    A nd           | Web:      www.OpenFOAM.com                      |
|    \\/     M anipulation  |                                                 |
\*---------------------------------------------------------------------------*/
FoamFile
{
    version     2.0;
    format      ascii;
    class       surfaceScalarField;
    location    "11.4";
    object      alphaPhi;
}
// * * * * * * * * * * * * * * * * * * * * * * * * * * * * * * * * * * * * * //

dimensions      [0 3 -1 0 0 0 0];

internalField   nonuniform List<scalar> 
34319
(
-7.87971e-08
1.39467e-07
6.25967e-06
5.24475e-08
-4.31733e-08
-8.54645e-08
1.35021e-07
6.13581e-06
-5.3199e-08
-6.80414e-08
9.29939e-08
5.76707e-06
-3.60404e-08
-4.12575e-08
5.69844e-08
5.22543e-06
-1.72224e-08
-1.06975e-08
2.05738e-08
4.59356e-06
1.51877e-09
1.34928e-08
-3.06667e-09
3.93798e-06
1.40302e-08
-1.76296e-08
3.29287e-06
2.78151e-08
2.10076e-08
-1.16722e-07
1.66219e-07
6.83813e-06
6.97184e-08
-1.41993e-07
1.47663e-07
6.77204e-06
-1.30099e-07
1.13048e-07
6.42727e-06
-9.04487e-08
9.564e-08
6.10097e-06
-4.02313e-08
4.456e-08
5.32718e-06
-7.18171e-10
1.0925e-08
4.51856e-06
-1.00388e-08
3.76302e-06
2.34889e-08
-8.88581e-08
7.27546e-08
4.87714e-06
2.68162e-08
-9.84096e-08
1.19388e-07
4.18975e-06
-1.3346e-07
4.28438e-08
4.85499e-06
-1.31782e-07
8.87214e-08
6.22477e-06
-6.78084e-08
6.28429e-08
6.02528e-06
-1.30703e-08
2.55812e-08
5.06611e-06
8.29127e-10
4.18676e-06
2.04035e-08
-1.09532e-07
1.08177e-07
3.87115e-06
9.99724e-08
-9.09358e-08
5.64016e-08
4.14009e-06
-6.36547e-08
2.92299e-08
3.63201e-06
-1.3848e-07
7.3892e-08
5.16854e-06
-9.03817e-08
7.03437e-08
6.39909e-06
-2.4299e-08
4.04884e-08
5.5148e-06
1.30844e-08
4.52716e-06
1.70441e-08
-1.59482e-07
5.04424e-08
6.65727e-06
2.82201e-07
-1.07658e-07
1.10103e-08
4.80904e-06
-1.13761e-07
1.88781e-08
3.97293e-06
-1.75078e-07
2.89047e-08
4.86038e-06
-1.25144e-07
5.32077e-08
6.7227e-06
-4.21377e-08
4.32886e-08
5.79306e-06
1.92984e-08
4.74277e-06
1.0121e-08
-1.01228e-07
-4.53786e-09
6.81481e-06
3.01721e-07
-9.99217e-08
-1.46622e-08
4.27169e-06
-7.91671e-08
-7.64391e-09
3.86064e-06
-1.94015e-07
-2.38606e-08
5.29452e-06
-1.45958e-07
2.52197e-08
6.71501e-06
-5.4894e-08
3.55398e-08
5.84904e-06
1.67461e-08
4.80636e-06
5.6639e-09
-9.50665e-08
5.89881e-06
6.5372e-08
-7.74052e-08
-1.35137e-07
5.25837e-06
-5.40265e-08
-1.63811e-07
4.69305e-06
-6.03271e-08
-2.25718e-07
5.92726e-06
-7.60441e-08
-1.49715e-07
6.63449e-06
-9.05625e-09
-5.45902e-08
5.69104e-06
1.62496e-08
4.71589e-06
1.39952e-08
6.09559e-10
-5.92731e-08
7.86309e-09
6.19959e-06
5.99138e-08
5.15863e-08
-4.08552e-08
-4.0795e-09
6.0712e-06
5.09446e-08
-7.97673e-09
-3.01343e-08
5.7052e-06
5.93322e-08
2.10527e-08
-3.57983e-08
5.17475e-06
5.78024e-08
4.37343e-08
-4.35763e-08
4.55907e-06
5.55236e-08
5.64657e-08
-4.67425e-08
3.92017e-06
5.1778e-08
-4.71945e-08
3.28974e-06
5.92527e-08
4.76551e-08
-1.10754e-07
5.7969e-08
6.61608e-06
1.00248e-07
-9.21108e-08
3.48149e-08
6.55948e-06
-4.68724e-08
7.12413e-09
6.30173e-06
-8.26879e-10
-1.75707e-10
6.01265e-06
3.75966e-08
-2.29266e-08
5.26839e-06
6.00069e-08
-3.45737e-08
4.48387e-06
-4.04719e-08
3.74847e-06
6.79773e-08
-1.15275e-07
2.67608e-08
3.70971e-06
9.64696e-08
-6.13562e-08
2.45821e-08
3.84483e-06
-5.21264e-08
2.03342e-09
4.44015e-06
-1.79054e-08
2.63824e-08
6.04246e-06
3.41289e-08
7.42134e-09
5.93704e-06
6.53161e-08
-1.36239e-08
5.01424e-06
-2.6546e-08
4.16099e-06
7.72134e-08
-1.90386e-07
1.72287e-07
3.87862e-06
2.34383e-07
-6.18078e-08
5.27751e-08
3.96757e-06
-1.78495e-08
1.78111e-08
3.5323e-06
-2.57843e-08
4.56604e-08
4.82824e-06
2.80648e-08
4.353e-08
6.27945e-06
6.6378e-08
1.42497e-08
5.44898e-06
-7.76373e-09
4.4921e-06
8.28858e-08
-3.96122e-07
1.96734e-07
4.25725e-06
2.9306e-07
-1.0376e-07
1.08169e-07
7.22301e-06
-9.47238e-08
4.43809e-08
3.93678e-06
-7.65745e-08
3.55822e-08
4.27023e-06
-6.88802e-09
4.28718e-08
6.54217e-06
5.26918e-08
2.85513e-08
5.71921e-06
5.64144e-09
4.7021e-06
8.01568e-08
-3.50091e-07
6.59835e-08
4.52326e-06
2.67638e-07
-1.3318e-07
8.69042e-08
4.39911e-06
-9.39608e-08
3.97385e-08
3.82573e-06
-9.74438e-08
-7.5981e-10
4.50062e-06
-2.82964e-08
3.19516e-08
6.5599e-06
4.10419e-08
3.28798e-08
5.77556e-06
1.19561e-08
4.76531e-06
7.60128e-08
-1.35768e-07
4.08107e-06
9.86992e-08
-1.97702e-08
-8.56795e-08
3.96714e-06
-1.37981e-08
-8.26513e-08
3.565e-06
-1.6277e-08
-1.13478e-07
5.53315e-06
-2.49909e-08
-3.32318e-08
6.51621e-06
1.98822e-08
3.56774e-08
5.62589e-06
2.92861e-08
4.67986e-06
7.62172e-08
7.65579e-09
-2.68416e-08
-2.32292e-07
6.17773e-06
7.93719e-08
2.0172e-07
2.13599e-08
-2.25358e-07
6.04469e-06
2.04019e-07
7.80896e-08
-2.35129e-07
5.68368e-06
2.00165e-07
1.08915e-07
-1.85748e-07
5.16319e-06
1.66739e-07
1.19998e-07
-1.42614e-07
4.55832e-06
1.32655e-07
1.1871e-07
-1.13911e-07
3.92878e-06
1.06849e-07
-9.48848e-08
3.30643e-06
1.08102e-07
8.86046e-08
-5.66051e-08
-1.56997e-07
6.56863e-06
1.41121e-07
-5.39142e-10
-1.2722e-07
6.50218e-06
9.6006e-08
-2.22756e-07
6.27773e-06
1.40632e-07
-1.85935e-07
5.97534e-06
1.51379e-07
-1.36707e-07
5.25178e-06
1.4635e-07
-1.07936e-07
4.48308e-06
-9.05945e-08
3.75862e-06
1.32028e-07
-1.10322e-07
-5.29168e-08
3.81085e-06
1.68717e-07
-2.60129e-09
-1.45977e-07
3.99312e-06
1.15646e-07
-8.93614e-08
4.4679e-06
1.96592e-07
-1.054e-07
6.00542e-06
1.94421e-07
-9.48852e-08
5.89982e-06
1.79982e-07
-8.14138e-08
5.00239e-06
-7.28016e-08
4.16468e-06
1.58728e-07
-2.36356e-07
4.31998e-08
4.00961e-06
2.26504e-07
-2.19464e-08
-7.18043e-08
6.3242e-06
5.07421e-08
-4.41903e-08
3.42012e-06
1.97116e-07
-1.74907e-08
4.82679e-06
2.24273e-07
-3.39569e-08
6.23782e-06
2.05573e-07
-3.9199e-08
5.42576e-06
-4.45691e-08
4.48974e-06
1.80017e-07
-2.29485e-07
9.11537e-08
4.36841e-06
2.26538e-07
-5.62866e-08
-3.53361e-10
9.13774e-06
-3.09612e-09
2.88863e-08
3.81285e-06
1.45563e-07
1.22717e-08
4.38713e-06
2.20403e-07
9.79434e-09
6.47116e-06
2.10975e-07
1.24486e-09
5.68836e-06
-1.52779e-08
4.69562e-06
1.88291e-07
-1.55013e-07
9.71704e-08
4.2379e-06
1.88021e-07
-5.83914e-08
2.625e-08
4.46198e-06
1.34155e-08
6.51842e-08
3.71772e-06
1.51844e-07
5.98724e-08
4.57288e-06
2.14474e-07
6.22136e-08
6.4901e-06
2.06018e-07
4.1464e-08
5.74388e-06
1.25311e-08
4.75789e-06
1.85773e-07
-9.11897e-08
3.74789e-06
1.3102e-07
1.39975e-07
-2.03227e-08
3.8519e-06
3.73179e-08
3.43646e-08
3.47475e-06
1.00077e-07
1.59882e-07
5.51758e-06
1.35974e-07
1.88812e-07
6.46279e-06
1.09314e-07
1.85112e-07
5.60069e-06
7.04445e-08
4.67519e-06
1.726e-07
2.99599e-08
-1.41469e-08
-3.1807e-07
6.18035e-06
8.96216e-08
2.40057e-07
4.77419e-08
-3.09452e-07
6.04598e-06
2.46122e-07
1.03755e-07
-2.93749e-07
5.68909e-06
2.32431e-07
1.29645e-07
-2.27899e-07
5.17382e-06
1.9123e-07
1.35567e-07
-1.72933e-07
4.57302e-06
1.52528e-07
1.30878e-07
-1.37541e-07
3.94702e-06
1.24211e-07
-1.13686e-07
3.32873e-06
1.18112e-07
1.04039e-07
-1.90407e-08
-2.81465e-07
6.83331e-06
1.35851e-07
5.96862e-08
-2.27801e-07
6.7605e-06
1.50092e-07
-3.14162e-07
6.41275e-06
1.82769e-07
-2.55738e-07
5.98957e-06
1.80555e-07
-1.82364e-07
5.26348e-06
1.66626e-07
-1.39231e-07
4.49906e-06
-1.13415e-07
3.77784e-06
1.47487e-07
-3.44872e-08
-1.08244e-07
4.8065e-06
1.54159e-07
5.91296e-08
-1.48143e-07
4.80707e-06
2.0159e-07
-2.01758e-07
5.23677e-06
2.78892e-07
-1.91361e-07
6.27003e-06
2.47116e-07
-1.53857e-07
5.90732e-06
2.12518e-07
-1.17555e-07
5.01548e-06
-9.78557e-08
4.18077e-06
1.81081e-07
-4.52037e-08
-3.7112e-08
3.97924e-06
1.37256e-07
3.39401e-09
-2.20926e-07
5.19548e-06
1.84772e-07
-1.90988e-07
4.13296e-06
3.41135e-07
-9.39114e-08
5.50933e-06
3.08934e-07
-8.5135e-08
6.30218e-06
2.54142e-07
-7.17104e-08
5.43479e-06
-6.70002e-08
4.5027e-06
2.10373e-07
-9.49686e-08
3.08053e-08
4.29627e-06
1.13804e-07
-3.73453e-08
-5.74384e-08
8.11102e-06
1.45843e-07
5.56326e-09
5.97542e-06
3.14362e-07
-1.01449e-08
5.64422e-06
3.27664e-07
-2.01633e-08
6.58096e-06
2.70135e-07
-1.8639e-08
5.69298e-06
-3.01959e-08
4.70545e-06
2.2349e-07
-5.76021e-08
6.19741e-08
4.25662e-06
1.07573e-07
-4.65467e-09
1.14719e-08
4.12883e-06
8.50311e-08
4.83104e-08
3.58431e-06
3.39359e-07
7.78124e-08
5.45771e-06
3.23736e-07
6.92192e-08
6.61472e-06
2.64797e-07
3.95287e-08
5.74468e-06
8.45906e-09
4.76484e-06
2.19294e-07
-4.97343e-08
3.87693e-06
1.55067e-07
2.20192e-07
2.92804e-08
4.14449e-06
1.9365e-07
1.59316e-07
4.05259e-06
2.0487e-07
3.15867e-07
6.15706e-06
2.12323e-07
2.75278e-07
6.50023e-06
1.414e-07
2.30708e-07
5.60161e-06
8.32439e-08
4.68023e-06
1.97698e-07
3.65765e-08
-2.30721e-08
-2.07177e-07
6.15055e-06
9.34559e-08
1.66592e-07
3.06795e-08
-1.8706e-07
6.01368e-06
1.65178e-07
7.73253e-08
-1.74213e-07
5.6551e-06
1.61521e-07
1.15308e-07
-1.57469e-07
5.13743e-06
1.55699e-07
1.49808e-07
-1.52639e-07
4.53528e-06
1.55814e-07
1.80399e-07
-1.55146e-07
3.91143e-06
1.6029e-07
-1.60892e-07
3.3011e-06
2.02278e-07
1.66704e-07
-6.91839e-09
-2.46449e-07
6.96231e-06
1.09875e-07
5.52071e-08
-1.76996e-07
6.89859e-06
9.46459e-08
-1.76536e-07
6.41867e-06
1.30536e-07
-1.64048e-07
5.96614e-06
1.60094e-07
-1.49722e-07
5.23096e-06
1.86955e-07
-1.4461e-07
4.46186e-06
-1.46877e-07
3.74288e-06
2.07913e-07
3.27018e-08
-1.69148e-07
5.95987e-06
1.19721e-07
7.25654e-08
-8.4016e-08
5.03075e-06
1.33088e-07
-9.09321e-08
5.5857e-06
1.82194e-07
-1.35082e-07
6.32991e-06
1.91491e-07
-1.33275e-07
5.88282e-06
2.04516e-07
-1.22277e-07
4.97989e-06
-1.22328e-07
4.1417e-06
2.19014e-07
6.38903e-08
-1.97158e-07
4.38758e-06
8.26793e-08
1.35591e-07
-2.79479e-07
2.36287e-06
1.68985e-07
-1.52644e-07
4.00765e-06
2.64672e-07
-1.07914e-07
5.72805e-06
2.37331e-07
-8.61478e-08
6.29245e-06
2.25942e-07
-7.81401e-08
5.4018e-06
-8.4872e-08
4.46088e-06
2.30135e-07
8.93067e-08
-1.82695e-08
6.05627e-06
3.80271e-08
1.60041e-07
-6.4665e-08
7.99111e-06
2.57518e-07
-7.3242e-08
6.17163e-06
2.40282e-07
-3.95289e-08
5.98108e-06
2.43512e-07
-2.94935e-08
6.61824e-06
2.26565e-07
-2.85351e-08
5.66047e-06
-4.31514e-08
4.6608e-06
2.29535e-07
3.19631e-08
5.27608e-08
4.84683e-06
1.29103e-07
1.25725e-07
-1.76986e-08
3.97724e-06
1.00163e-07
-1.65549e-08
3.55163e-06
2.59757e-07
2.93738e-08
6.08832e-06
2.23441e-07
3.7644e-08
6.62319e-06
2.104e-07
2.25539e-08
5.70668e-06
-1.69821e-09
4.71618e-06
2.17567e-07
1.0437e-08
5.37134e-06
1.52232e-07
2.04241e-07
5.74622e-08
5.50481e-06
1.90766e-07
1.15466e-07
5.33531e-06
1.51473e-07
1.72951e-07
6.57342e-06
1.14906e-07
1.65613e-07
6.4731e-06
8.31047e-08
1.7517e-07
5.55678e-06
5.78428e-08
4.62837e-06
1.97496e-07
2.77576e-08
-6.36642e-08
5.89662e-08
1.1504e-07
2.58738e-08
6.0143e-06
-2.3036e-08
5.35093e-08
3.7193e-08
5.88209e-06
2.92964e-08
3.08403e-09
7.54181e-08
5.5242e-06
9.32564e-08
-6.03666e-08
1.26657e-07
5.00727e-06
1.68026e-07
-1.29174e-07
1.79624e-07
4.40989e-06
2.40718e-07
-1.81464e-07
2.23148e-07
3.79697e-06
-2.17245e-07
3.05427e-07
2.51973e-07
3.20189e-06
-5.40259e-08
9.00294e-08
8.61205e-08
6.83874e-06
-4.14326e-08
9.38238e-08
6.79468e-06
-1.49822e-08
5.16304e-08
6.28286e-06
4.85937e-08
-1.17223e-08
5.84386e-06
1.33776e-07
-8.95778e-08
5.10613e-06
2.20351e-07
-1.44857e-07
4.33853e-06
-1.835e-07
2.99363e-07
3.6301e-06
1.37121e-08
3.14448e-08
1.907e-08
5.76566e-06
-3.13054e-08
2.4296e-08
4.85911e-06
-3.65948e-08
1.90303e-08
5.44497e-06
1.03781e-08
-2.05272e-09
6.20055e-06
1.02053e-07
-6.49033e-08
5.75428e-06
1.97939e-07
-1.11604e-07
4.8506e-06
-1.45174e-07
2.84761e-07
4.01651e-06
1.44276e-08
-2.52068e-08
4.3159e-09
4.40523e-06
8.62985e-08
-6.23688e-09
2.09906e-06
1.10796e-08
5.15074e-09
3.63497e-06
7.16618e-09
-1.74823e-09
5.58244e-06
8.26758e-08
-4.34334e-08
6.13696e-06
1.77093e-07
-7.28687e-08
5.26854e-06
-1.0155e-07
2.67998e-07
4.32619e-06
1.95035e-07
-6.47731e-08
-4.68563e-09
6.83121e-06
1.13628e-07
-1.14005e-07
5.7588e-06
-4.31231e-08
-1.00587e-07
2.67957e-06
-5.0496e-08
-7.79763e-08
5.53489e-06
3.06977e-08
-4.24268e-08
6.4996e-06
1.4211e-07
-4.54055e-08
5.52153e-06
-5.97049e-08
2.42572e-07
4.51843e-06
7.57724e-08
-3.22474e-08
1.29586e-07
7.19706e-06
5.74912e-08
-1.13811e-07
3.99373e-06
-2.10158e-08
-5.22264e-08
3.61525e-06
-6.76774e-08
-7.39208e-08
5.91607e-06
2.94601e-09
-3.02541e-08
6.4793e-06
1.12433e-07
-1.02669e-08
5.56194e-06
-1.66503e-08
2.17359e-07
4.56801e-06
-3.65474e-08
1.47538e-07
-3.73753e-09
5.83929e-06
-6.59385e-08
-2.90245e-08
5.64233e-06
-1.13356e-07
-5.84346e-08
5.25841e-06
-1.27474e-07
-7.34032e-08
6.39957e-06
-3.58186e-08
-1.22483e-08
6.32486e-06
8.24357e-08
2.69596e-08
5.40125e-06
1.90452e-07
2.99739e-08
4.47359e-06
3.92899e-08
-6.03e-09
1.69312e-06
-3.32559e-09
4.77103e-08
-8.91886e-09
1.70477e-06
-4.30941e-09
5.12972e-08
-1.10219e-08
1.63533e-06
-5.07016e-09
4.96568e-08
-1.30169e-08
1.5048e-06
-5.5298e-09
4.28537e-08
-1.50359e-08
1.32792e-06
-5.78986e-09
3.15505e-08
-1.72618e-08
1.11054e-06
-5.86446e-09
1.68732e-08
-1.97922e-08
8.36911e-07
-5.37674e-09
-2.22252e-08
4.05246e-07
-3.2219e-09
3.96925e-08
-1.1782e-08
2.40288e-06
5.05893e-08
-1.93969e-08
2.29978e-06
5.54423e-08
-2.56972e-08
2.12403e-06
5.42338e-08
-3.16447e-08
1.89374e-06
4.72779e-08
-3.73259e-08
1.62334e-06
3.51461e-08
-4.27747e-08
1.31804e-06
1.88548e-08
-4.78495e-08
9.57996e-07
-5.11822e-08
4.20218e-07
4.16297e-08
-1.29501e-08
2.99977e-06
5.53297e-08
-2.54692e-08
2.82378e-06
6.1665e-08
-3.67822e-08
2.57725e-06
6.07542e-08
-4.73104e-08
2.28064e-06
5.31156e-08
-5.70221e-08
1.94876e-06
3.95543e-08
-6.58335e-08
1.58625e-06
2.12351e-08
-7.34584e-08
1.16969e-06
-7.78452e-08
5.5797e-07
4.26835e-08
-1.09159e-08
3.37248e-06
5.91487e-08
-2.74281e-08
3.18322e-06
6.70298e-08
-4.3315e-08
2.92353e-06
6.65958e-08
-5.79611e-08
2.61447e-06
5.84553e-08
-7.11797e-08
2.27092e-06
4.36557e-08
-8.27976e-08
1.89699e-06
2.36351e-08
-9.24679e-08
1.46698e-06
-9.76242e-08
8.2757e-07
3.9887e-08
-1.00625e-08
3.42594e-06
5.92487e-08
-2.82702e-08
3.29461e-06
6.88541e-08
-4.65747e-08
3.09003e-06
6.91602e-08
-6.34257e-08
2.83223e-06
6.09758e-08
-7.85329e-08
2.53553e-06
4.55008e-08
-9.16545e-08
2.20359e-06
2.44503e-08
-1.02508e-07
1.80998e-06
-1.08431e-07
1.19713e-06
3.54772e-08
-1.20611e-08
3.12237e-06
5.58973e-08
-3.00046e-08
3.11456e-06
6.64539e-08
-4.81297e-08
3.02773e-06
6.74201e-08
-6.47706e-08
2.8796e-06
5.96392e-08
-7.97374e-08
2.68391e-06
4.45267e-08
-9.28782e-08
2.44407e-06
2.40415e-08
-1.03812e-07
2.13515e-06
-1.0974e-07
1.60313e-06
3.57147e-08
2.48976e-06
-1.34037e-08
5.27244e-08
2.65317e-06
-3.1412e-08
6.1578e-08
2.72384e-06
-4.76633e-08
6.15117e-08
2.72333e-06
-6.21836e-08
5.32154e-08
2.66559e-06
-7.53989e-08
3.81024e-08
2.5542e-06
-8.73374e-08
1.88137e-08
2.3653e-06
-9.81437e-08
1.9557e-06
-1.07079e-07
6.88767e-08
-9.07349e-09
1.69764e-06
-5.0107e-09
7.45445e-08
-1.13646e-08
1.71546e-06
-4.80575e-09
7.51363e-08
-1.31614e-08
1.65272e-06
-4.52257e-09
7.04107e-08
-1.50313e-08
1.52891e-06
-4.12512e-09
6.0684e-08
-1.70765e-08
1.35838e-06
-3.63007e-09
4.66952e-08
-1.9315e-08
1.14672e-06
-2.98605e-09
2.82609e-08
-2.16345e-08
8.78752e-07
-1.86229e-09
-2.33224e-08
4.56369e-07
4.51646e-10
7.88808e-08
-1.98814e-08
2.40275e-06
8.41067e-08
-2.50543e-08
2.30839e-06
8.37448e-08
-3.00388e-08
2.14145e-06
7.77717e-08
-3.50182e-08
1.91976e-06
6.65671e-08
-3.99699e-08
1.65739e-06
5.07276e-08
-4.47512e-08
1.35924e-06
3.00135e-08
-4.89579e-08
1.00598e-06
-5.07547e-08
4.77759e-07
9.00952e-08
-2.58357e-08
2.99296e-06
9.59809e-08
-3.48106e-08
2.82781e-06
9.5203e-08
-4.36892e-08
2.59176e-06
8.80369e-08
-5.23543e-08
2.30514e-06
7.49041e-08
-6.05994e-08
1.98245e-06
5.66026e-08
-6.81258e-08
1.62801e-06
3.31364e-08
-7.44173e-08
1.21878e-06
-7.69714e-08
6.17437e-07
9.82425e-08
-2.79151e-08
3.3594e-06
1.05263e-07
-4.02959e-08
3.18182e-06
1.04596e-07
-5.26653e-08
2.93318e-06
9.66879e-08
-6.44915e-08
2.63445e-06
8.21475e-08
-7.54641e-08
2.30032e-06
6.17416e-08
-8.52417e-08
1.9346e-06
3.59204e-08
-9.32641e-08
1.51189e-06
-9.6599e-08
8.83189e-07
9.90756e-08
-3.01938e-08
3.40949e-06
1.08015e-07
-4.3452e-08
3.28896e-06
1.08196e-07
-5.72568e-08
3.09456e-06
1.00311e-07
-7.05065e-08
2.84623e-06
8.51851e-08
-8.27547e-08
2.55813e-06
6.3651e-08
-9.36861e-08
2.23372e-06
3.64078e-08
-1.02661e-07
1.84682e-06
-1.0686e-07
1.24382e-06
9.52744e-08
-3.37326e-08
3.1068e-06
1.04996e-07
-4.57617e-08
3.10727e-06
1.05821e-07
-5.87448e-08
3.0285e-06
9.83484e-08
-7.12938e-08
2.88798e-06
8.34129e-08
-8.30385e-08
2.69929e-06
6.18956e-08
-9.35464e-08
2.46569e-06
3.50711e-08
-1.02783e-07
2.16236e-06
-1.0733e-07
1.63873e-06
9.02559e-08
2.47877e-06
-3.65433e-08
9.88331e-08
2.64682e-06
-4.78128e-08
9.95727e-08
2.72283e-06
-5.82921e-08
9.22366e-08
2.72776e-06
-6.81863e-08
7.73522e-08
2.67525e-06
-7.77626e-08
5.58365e-08
2.56554e-06
-8.70519e-08
3.02007e-08
2.38401e-06
-9.56282e-08
1.9809e-06
-1.02159e-07
1.16643e-07
-1.58059e-08
1.71295e-06
-8.07553e-09
1.18291e-07
-1.64638e-08
1.73741e-06
-7.00905e-09
1.12877e-07
-1.76314e-08
1.6821e-06
-6.18424e-09
1.00194e-07
-1.93003e-08
1.56645e-06
-5.49098e-09
8.05505e-08
-2.1483e-08
1.40433e-06
-4.85203e-09
5.49698e-08
-2.40808e-08
1.20057e-06
-4.22438e-09
2.64831e-08
-2.69957e-08
9.37656e-07
-3.38408e-09
-2.9664e-08
5.14921e-07
-2.29021e-09
1.37321e-07
-3.55266e-08
2.41735e-06
1.35853e-07
-3.72363e-08
2.33072e-06
1.28066e-07
-4.06872e-08
2.17234e-06
1.13376e-07
-4.49177e-08
1.96003e-06
9.17649e-08
-4.97223e-08
1.70724e-06
6.38615e-08
-5.48409e-08
1.41797e-06
3.244e-08
-6.002e-08
1.07051e-06
-6.41221e-08
5.44676e-07
1.608e-07
-4.91952e-08
3.00476e-06
1.56766e-07
-5.32377e-08
2.84792e-06
1.46254e-07
-5.92885e-08
2.62092e-06
1.28595e-07
-6.62737e-08
2.34408e-06
1.0363e-07
-7.36396e-08
2.03134e-06
7.18003e-08
-8.09523e-08
1.68604e-06
3.57216e-08
-8.77805e-08
1.2828e-06
-9.24056e-08
6.81516e-07
1.79705e-07
-5.68073e-08
3.36747e-06
1.73449e-07
-6.323e-08
3.19814e-06
1.60477e-07
-7.12281e-08
2.95816e-06
1.40163e-07
-8.01813e-08
2.6687e-06
1.12236e-07
-8.93245e-08
2.344e-06
7.70096e-08
-9.80647e-08
1.98702e-06
3.68818e-08
-1.05698e-07
1.57023e-06
-1.09625e-07
9.37326e-07
1.87867e-07
-6.12669e-08
3.41449e-06
1.80535e-07
-6.80821e-08
3.30128e-06
1.66141e-07
-7.64086e-08
3.11427e-06
1.444e-07
-8.58566e-08
2.87382e-06
1.14981e-07
-9.54713e-08
2.59382e-06
7.83682e-08
-1.04598e-07
2.27702e-06
3.63847e-08
-1.12291e-07
1.89555e-06
-1.15522e-07
1.28604e-06
1.8532e-07
-6.41544e-08
3.11039e-06
1.77331e-07
-6.91667e-08
3.11652e-06
1.62456e-07
-7.62593e-08
3.04335e-06
1.4055e-07
-8.46035e-08
2.90883e-06
1.11388e-07
-9.32867e-08
2.7264e-06
7.54437e-08
-1.0152e-07
2.49882e-06
3.48106e-08
-1.09175e-07
2.19994e-06
-1.12094e-07
1.67016e-06
1.73089e-07
2.48246e-06
-6.80343e-08
1.66991e-07
2.65426e-06
-7.02763e-08
1.53352e-07
2.73413e-06
-7.38046e-08
1.3214e-07
2.74335e-06
-7.88032e-08
1.03468e-07
2.69492e-06
-8.49018e-08
6.89658e-08
2.58934e-06
-9.17668e-08
3.09723e-08
2.41163e-06
-9.85694e-08
2.00342e-06
-1.03516e-07
1.29841e-07
-2.05521e-08
1.72703e-06
-5.16606e-09
1.32008e-07
-1.93725e-08
1.75798e-06
-3.4561e-09
1.25047e-07
-1.99567e-08
1.71084e-06
-1.85798e-09
1.09375e-07
-2.13352e-08
1.60357e-06
-1.45045e-10
8.61719e-08
-2.32143e-08
1.44877e-06
1.94272e-09
5.71403e-08
-2.52445e-08
1.25042e-06
4.45286e-09
2.11455e-08
-2.70519e-08
9.92823e-07
7.98948e-09
-2.74071e-08
5.49368e-07
1.41238e-08
1.5535e-07
-4.46626e-08
2.43398e-06
1.55019e-07
-4.35787e-08
2.35526e-06
1.45778e-07
-4.54426e-08
2.20694e-06
1.26895e-07
-4.80887e-08
2.00556e-06
9.88532e-08
-5.09784e-08
1.76308e-06
6.29589e-08
-5.34891e-08
1.48221e-06
1.91817e-08
-5.46825e-08
1.14199e-06
-5.11723e-08
5.87614e-07
1.8361e-07
-6.33393e-08
3.02099e-06
1.80376e-07
-6.42307e-08
2.87185e-06
1.68765e-07
-6.79168e-08
2.65505e-06
1.47413e-07
-7.25183e-08
2.38982e-06
1.16424e-07
-7.71418e-08
2.08858e-06
7.66872e-08
-8.10394e-08
1.75324e-06
2.83599e-08
-8.29267e-08
1.35942e-06
-7.79215e-08
7.36674e-07
2.07172e-07
-7.37154e-08
3.38105e-06
2.00534e-07
-7.72877e-08
3.2179e-06
1.86869e-07
-8.25557e-08
2.98657e-06
1.6457e-07
-8.88785e-08
2.70744e-06
1.33274e-07
-9.524e-08
2.39346e-06
9.37813e-08
-1.00832e-07
2.04635e-06
4.4839e-08
-1.04336e-07
1.64074e-06
-1.00663e-07
1.0049e-06
2.17432e-07
-7.72657e-08
3.42413e-06
2.08419e-07
-8.19754e-08
3.31503e-06
1.9362e-07
-8.76388e-08
3.13417e-06
1.71795e-07
-9.46046e-08
2.90148e-06
1.42241e-07
-1.0182e-07
2.6299e-06
1.05631e-07
-1.08486e-07
2.32142e-06
5.90218e-08
-1.13491e-07
1.95129e-06
-1.1243e-07
1.35689e-06
2.12758e-07
-7.60083e-08
3.11579e-06
2.0236e-07
-7.91561e-08
3.12411e-06
1.87402e-07
-8.38357e-08
3.05452e-06
1.66957e-07
-9.00474e-08
2.92486e-06
1.40306e-07
-9.67285e-08
2.74802e-06
1.07656e-07
-1.03332e-07
2.52661e-06
6.54286e-08
-1.09072e-07
2.23774e-06
-1.10297e-07
1.73364e-06
1.9518e-07
2.48427e-06
-7.53202e-08
1.87193e-07
2.65681e-06
-7.37209e-08
1.73596e-07
2.7383e-06
-7.44256e-08
1.54518e-07
2.74995e-06
-7.74813e-08
1.29798e-07
2.70381e-06
-8.18873e-08
1.00235e-07
2.60371e-06
-8.65315e-08
6.28165e-08
2.43285e-06
-9.25326e-08
2.05162e-06
-9.56241e-08
2.52749e-07
-3.2135e-08
1.72354e-06
-1.48272e-08
2.95138e-07
-3.31459e-08
1.76343e-06
-1.48769e-08
3.2579e-07
-3.4863e-08
1.7299e-06
-1.49521e-08
3.3911e-07
-3.68652e-08
1.64197e-06
-1.49482e-08
3.30675e-07
-3.92174e-08
1.51147e-06
-1.49645e-08
2.97929e-07
-4.21491e-08
1.34089e-06
-1.52945e-08
2.31008e-07
-4.59057e-08
1.12234e-06
-1.63979e-08
-4.88417e-08
8.48625e-07
-1.93118e-08
2.60581e-07
-6.84763e-08
2.41778e-06
3.08134e-07
-7.30857e-08
2.34771e-06
3.44866e-07
-7.82873e-08
2.21366e-06
3.64985e-07
-8.39091e-08
2.03257e-06
3.63593e-07
-9.01228e-08
1.81554e-06
3.37049e-07
-9.74025e-08
1.56415e-06
2.7036e-07
-1.06509e-07
1.26941e-06
-1.16294e-07
9.25377e-07
2.69126e-07
-9.13182e-08
2.99372e-06
3.15742e-07
-9.87917e-08
2.85098e-06
3.52726e-07
-1.07072e-07
2.64686e-06
3.73909e-07
-1.15657e-07
2.40051e-06
3.73928e-07
-1.24648e-07
2.12331e-06
3.48397e-07
-1.34649e-07
1.81592e-06
2.81743e-07
-1.46672e-07
1.46613e-06
-1.60842e-07
1.06295e-06
2.72395e-07
-9.92384e-08
3.3467e-06
3.13106e-07
-1.08685e-07
3.18708e-06
3.45442e-07
-1.18699e-07
2.96589e-06
3.62866e-07
-1.28886e-07
2.70337e-06
3.5949e-07
-1.39146e-07
2.41137e-06
3.31113e-07
-1.49958e-07
2.09007e-06
2.64868e-07
-1.62367e-07
1.72254e-06
-1.77268e-07
1.28617e-06
2.63257e-07
-9.62044e-08
3.38738e-06
2.96039e-07
-1.05754e-07
3.27931e-06
3.21275e-07
-1.15607e-07
3.10582e-06
3.32487e-07
-1.25599e-07
2.88698e-06
3.23678e-07
-1.35466e-07
2.6349e-06
2.90888e-07
-1.45464e-07
2.34974e-06
2.26415e-07
-1.56471e-07
2.00981e-06
-1.68963e-07
1.57515e-06
2.42459e-07
-8.71863e-08
3.08181e-06
2.65993e-07
-9.49252e-08
3.08971e-06
2.82835e-07
-1.0305e-07
3.02515e-06
2.86713e-07
-1.11354e-07
2.90669e-06
2.71993e-07
-1.19439e-07
2.74667e-06
2.35203e-07
-1.27651e-07
2.54562e-06
1.74793e-07
-1.36596e-07
2.27835e-06
-1.46124e-07
1.88558e-06
2.15859e-07
2.45814e-06
-7.96151e-08
2.30797e-07
2.62941e-06
-8.25496e-08
2.38972e-07
2.71371e-06
-8.66588e-08
2.35396e-07
2.73374e-06
-9.16743e-08
2.1505e-07
2.70125e-06
-9.68443e-08
1.75557e-07
2.61938e-06
-1.02026e-07
1.20574e-07
2.46149e-06
-1.10095e-07
2.14396e-06
-1.17992e-07
4.22193e-07
-3.50748e-08
-2.16479e-08
1.66352e-06
5.3537e-07
-3.67497e-08
-2.03308e-08
1.70729e-06
6.31402e-07
-3.87701e-08
-1.78219e-08
1.69033e-06
6.95687e-07
-4.09661e-08
-1.34873e-08
1.63211e-06
7.07334e-07
-4.29102e-08
-7.0673e-09
1.54993e-06
6.33447e-07
-4.45762e-08
1.93743e-09
1.45754e-06
4.22138e-07
-4.5323e-08
1.47812e-08
1.36431e-06
-4.27663e-08
3.46737e-08
1.27894e-06
4.29283e-07
-8.46885e-08
2.33746e-06
5.56022e-07
-9.02742e-08
2.27447e-06
6.64686e-07
-9.33659e-08
2.15961e-06
7.39308e-07
-9.46281e-08
2.01174e-06
7.56816e-07
-9.35459e-08
1.84871e-06
6.80957e-07
-8.96869e-08
1.68511e-06
4.56955e-07
-8.16008e-08
1.52973e-06
-6.1949e-08
1.40159e-06
4.15594e-07
-1.15982e-07
2.89411e-06
5.44979e-07
-1.25591e-07
2.75688e-06
6.5898e-07
-1.3073e-07
2.57024e-06
7.41076e-07
-1.31654e-07
2.35561e-06
7.67296e-07
-1.28066e-07
2.13161e-06
6.98561e-07
-1.19215e-07
1.91412e-06
4.73321e-07
-1.02711e-07
1.71235e-06
-6.95742e-08
1.54397e-06
3.91583e-07
-1.26381e-07
3.23348e-06
5.15404e-07
-1.38188e-07
3.07586e-06
6.26761e-07
-1.44754e-07
2.86854e-06
7.09917e-07
-1.45398e-07
2.63391e-06
7.42096e-07
-1.39894e-07
2.39089e-06
6.83772e-07
-1.27454e-07
2.15659e-06
4.66224e-07
-1.05621e-07
1.94284e-06
-6.6021e-08
1.74902e-06
3.53883e-07
-1.19715e-07
3.26931e-06
4.66127e-07
-1.30324e-07
3.15913e-06
5.68189e-07
-1.35871e-07
2.9948e-06
6.4669e-07
-1.3513e-07
2.79807e-06
6.82235e-07
-1.28201e-07
2.58763e-06
6.37938e-07
-1.14729e-07
2.38124e-06
4.40038e-07
-9.30152e-08
2.19511e-06
-5.62367e-08
2.00561e-06
3.10606e-07
-1.00513e-07
2.96924e-06
4.06603e-07
-1.07376e-07
2.97071e-06
4.94944e-07
-1.09085e-07
2.90997e-06
5.64949e-07
-1.05026e-07
2.80648e-06
6.0096e-07
-9.56808e-08
2.67818e-06
5.71744e-07
-8.1459e-08
2.54154e-06
4.0625e-07
-6.16779e-08
2.41266e-06
-3.22421e-08
2.26763e-06
2.60301e-07
-7.3057e-08
2.36073e-06
3.3586e-07
-7.34865e-08
2.5199e-06
4.09358e-07
-7.06048e-08
2.60176e-06
4.72858e-07
-6.3316e-08
2.62843e-06
5.12856e-07
-5.10817e-08
2.61655e-06
5.02712e-07
-3.37655e-08
2.58267e-06
3.72973e-07
-1.2016e-08
2.54146e-06
2.05966e-08
2.46387e-06
2.37844e-08
4.44451e-08
4.32719e-06
-5.99624e-08
4.88213e-08
-3.67462e-09
6.26493e-06
-3.15112e-08
8.46571e-08
-2.3622e-08
6.75898e-06
-4.56886e-09
1.03075e-07
-2.34031e-08
7.03986e-06
1.4502e-08
9.93783e-08
-1.93764e-08
7.24067e-06
2.6385e-08
7.76931e-08
-2.19798e-08
7.35541e-06
3.6707e-08
4.27792e-08
-3.01979e-08
7.32322e-06
4.7069e-08
-4.37606e-08
6.81585e-06
5.78339e-08
1.29243e-07
-8.11986e-09
5.3264e-06
6.87253e-08
-3.85777e-08
6.4687e-06
9.80699e-08
-4.98258e-08
8.49856e-06
1.20966e-07
-3.01674e-08
8.58999e-06
1.27116e-07
-1.14437e-08
8.62155e-06
1.09251e-07
-1.42821e-09
8.59402e-06
6.65354e-08
1.55359e-09
8.43048e-06
-2.21943e-09
7.75134e-06
6.81857e-08
-9.56719e-08
5.78521e-06
-1.50464e-08
-8.23048e-08
6.80402e-06
1.23824e-08
-7.8463e-08
9.35383e-06
5.68236e-08
-4.3195e-08
9.3335e-06
8.62669e-08
-1.02775e-08
9.24597e-06
8.89862e-08
1.32497e-08
9.11886e-06
6.1429e-08
3.04366e-08
8.86567e-06
4.31946e-08
8.07868e-06
2.86431e-08
-1.31116e-07
5.15762e-06
-7.88411e-09
-1.25684e-07
7.25476e-06
2.16956e-08
-7.72509e-08
9.08543e-06
5.91009e-08
-3.43437e-08
9.01731e-06
8.50085e-08
3.03384e-09
8.92219e-06
8.66066e-08
3.50736e-08
8.78238e-06
5.95298e-08
6.39727e-08
8.518e-06
9.28864e-08
7.73063e-06
-2.091e-08
-1.64968e-07
5.39045e-06
-1.51772e-08
-1.05674e-07
7.52618e-06
1.44848e-08
-5.28883e-08
7.78477e-06
4.07424e-08
-1.1099e-08
7.8196e-06
5.48432e-08
2.48071e-08
7.79805e-06
5.23779e-08
5.72908e-08
7.71291e-06
3.3461e-08
8.74767e-08
7.49762e-06
1.17616e-07
6.80854e-06
2.97128e-08
-9.38658e-08
5.41364e-06
2.44313e-08
-4.75863e-08
5.84056e-06
2.85148e-08
-9.74754e-09
6.06223e-06
3.25281e-08
2.08749e-08
6.19354e-06
3.15057e-08
4.88185e-08
6.25213e-06
2.44925e-08
7.44748e-08
6.23692e-06
1.28654e-08
9.828e-08
6.095e-06
1.20265e-07
5.55066e-06
2.79291e-08
3.69264e-06
-3.31993e-08
1.88334e-08
4.06538e-06
-4.83226e-09
1.54507e-08
4.3377e-06
2.06847e-08
1.33054e-08
4.52402e-06
4.17027e-08
1.12178e-08
4.63697e-06
6.11354e-08
8.35798e-09
4.67628e-06
7.94221e-08
5.0172e-09
4.60354e-06
9.69727e-08
4.20284e-06
1.13723e-07
1.01076e-07
-6.1764e-10
3.88816e-06
-2.50855e-08
1.43835e-07
-1.98436e-08
6.22572e-06
7.38882e-10
1.71815e-07
-2.81471e-08
6.741e-06
1.81234e-08
1.7219e-07
-1.56638e-08
7.02972e-06
2.56851e-08
1.49731e-07
-1.30742e-08
7.24427e-06
3.20772e-08
1.10741e-07
-1.98974e-08
7.37466e-06
3.95235e-08
5.95262e-08
-3.16162e-08
7.35791e-06
4.81056e-08
-4.82138e-08
6.8662e-06
5.74253e-08
1.10979e-07
-6.00989e-08
3.2775e-06
1.34448e-07
-4.81392e-08
5.79126e-06
1.83188e-07
-4.55574e-08
8.47336e-06
2.06176e-07
-1.39071e-08
8.56553e-06
1.99513e-07
2.09087e-09
8.61308e-06
1.62627e-07
4.93222e-09
8.6061e-06
9.7633e-08
6.90195e-10
8.46312e-06
-5.93289e-09
7.80447e-06
7.39654e-08
-6.69018e-08
3.5701e-06
5.36728e-08
-8.36105e-08
5.78754e-06
1.1401e-07
-6.94867e-08
9.2617e-06
1.62905e-07
-2.3705e-08
9.29445e-06
1.80929e-07
4.86873e-09
9.22515e-06
1.60965e-07
2.18929e-08
9.12193e-06
1.01551e-07
3.33933e-08
8.89234e-06
4.23898e-08
8.12675e-06
1.36319e-07
-7.10226e-08
3.37281e-06
1.16045e-07
-9.45021e-08
6.41224e-06
1.50177e-07
-4.90014e-08
9.02644e-06
1.80238e-07
-8.16004e-09
8.97182e-06
1.86461e-07
2.28632e-08
8.89812e-06
1.60136e-07
4.83139e-08
8.78243e-06
9.91751e-08
7.17689e-08
8.54018e-06
9.63508e-08
7.77587e-06
9.11439e-08
-9.38618e-08
4.89748e-06
1.04096e-07
-5.21241e-08
7.38316e-06
1.24567e-07
-1.26251e-08
7.72801e-06
1.36932e-07
1.82637e-08
7.78098e-06
1.31568e-07
4.55335e-08
7.78083e-06
1.06242e-07
7.08367e-08
7.71589e-06
6.22252e-08
9.53e-08
7.51819e-06
1.20628e-07
6.8466e-06
8.39117e-08
-3.35943e-08
5.33033e-06
8.37709e-08
-2.75784e-09
5.79066e-06
8.65719e-08
2.07418e-08
6.02626e-06
8.39244e-08
4.1597e-08
6.17293e-06
7.35999e-08
6.16552e-08
6.24644e-06
5.55021e-08
8.11333e-08
6.24477e-06
3.0626e-08
9.99841e-08
6.11521e-06
1.17742e-07
5.58437e-06
5.30606e-08
3.66391e-06
2.6138e-09
5.18324e-08
4.04278e-06
2.14113e-08
5.04712e-08
4.32326e-06
3.6742e-08
4.69425e-08
4.51818e-06
5.10855e-08
4.07898e-08
4.63948e-06
6.54913e-08
3.1836e-08
4.68667e-06
7.9875e-08
1.95335e-08
4.6222e-06
9.42273e-08
4.23245e-06
1.07682e-07
2.36636e-07
-1.92948e-08
3.87117e-06
2.54078e-08
2.91198e-07
-3.4791e-08
6.19687e-06
4.42735e-08
2.91954e-07
-3.02056e-08
6.73238e-06
3.80791e-08
2.65812e-07
-2.27065e-08
7.04422e-06
3.44991e-08
2.19876e-07
-2.61373e-08
7.28116e-06
3.51842e-08
1.58507e-07
-3.51973e-08
7.43188e-06
3.94782e-08
8.38422e-08
-4.693e-08
7.43358e-06
4.59995e-08
-6.23752e-08
6.95881e-06
5.36542e-08
2.16911e-07
-4.31879e-08
3.07602e-06
4.46764e-07
-2.10963e-08
5.7845e-06
4.67009e-07
-6.46182e-09
8.44502e-06
4.34979e-07
3.36855e-09
8.5716e-06
3.70861e-07
1.83114e-10
8.65102e-06
2.76999e-07
-6.61932e-09
8.6716e-06
1.54438e-07
-1.39993e-08
8.55268e-06
-2.05103e-08
7.91186e-06
2.18798e-07
-1.83943e-08
3.54165e-06
4.41186e-07
-1.5524e-08
5.75538e-06
5.13303e-07
9.45086e-09
9.19073e-06
4.93583e-07
2.39014e-08
9.29376e-06
4.28379e-07
2.81325e-08
9.2626e-06