/*--------------------------------*- C++ -*----------------------------------*\
| =========                 |                                                 |
| \\      /  F ield         | OpenFOAM: The Open Source CFD Toolbox           |
|  \\    /   O peration     | Version:  plus.master.MPPICInterFoam            |
|   \\  /    A nd           | Web:      www.OpenFOAM.com                      |
|    \\/     M anipulation  |                                                 |
\*---------------------------------------------------------------------------*/
FoamFile
{
    version     2.0;
    format      ascii;
    class       volScalarField;
    location    "11.4";
    object      k;
}
// * * * * * * * * * * * * * * * * * * * * * * * * * * * * * * * * * * * * * //

dimensions      [0 2 -2 0 0 0 0];

internalField   nonuniform List<scalar> 
11822
(
0.0579015
0.061153
0.0611825
0.058626
0.0542737
0.0489083
0.0430496
0.068514
0.0728913
0.0723139
0.0681536
0.0620173
0.055047
0.0479572
0.0774327
0.0831281
0.0835969
0.0776614
0.0691723
0.0603605
0.0519065
0.0770619
0.083183
0.0886104
0.0851649
0.0745591
0.0640123
0.0544252
0.0751669
0.0764537
0.0856903
0.0872452
0.0764232
0.0650933
0.0550136
0.0734516
0.0760778
0.0832189
0.0836941
0.0736512
0.0630309
0.0534002
0.0688202
0.0747355
0.0776058
0.0745311
0.0668812
0.0581929
0.0497038
0.0574788
0.0606224
0.0606418
0.0581548
0.0539215
0.0486793
0.0429134
0.0677353
0.0718494
0.0712393
0.0672806
0.0614022
0.0546613
0.0477422
0.0751878
0.080791
0.0813238
0.0761587
0.0682394
0.059801
0.0516065
0.0755038
0.0785811
0.0863533
0.0829068
0.0733687
0.0633195
0.0540598
0.0719948
0.0732362
0.0843789
0.0844421
0.0751944
0.0643588
0.0546269
0.0718117
0.0735309
0.0815258
0.0811961
0.0725937
0.0623721
0.0530481
0.0677044
0.0718653
0.0751093
0.0731399
0.066083
0.0576795
0.0494316
0.0573212
0.0604129
0.0604461
0.0580083
0.0538446
0.0486491
0.0428991
0.06729
0.0712329
0.0706874
0.0668652
0.0611696
0.0545662
0.0477117
0.0741937
0.0795486
0.0803457
0.0753233
0.0677788
0.0595997
0.0515443
0.0755565
0.0827981
0.0848608
0.0817145
0.0726727
0.0630091
0.0539625
0.0697671
0.0789513
0.0840609
0.0833531
0.0744155
0.0639992
0.0545155
0.0660355
0.0736421
0.0805827
0.0801029
0.0718735
0.0620509
0.0529581
0.0648824
0.070364
0.0744578
0.0724679
0.0656099
0.057466
0.0493864
0.0572743
0.0603801
0.0604509
0.0580266
0.0538333
0.048578
0.0427693
0.0669556
0.0708583
0.0704854
0.066833
0.0611855
0.0545448
0.0476203
0.0739497
0.0794952
0.0796342
0.0749974
0.0677339
0.0596028
0.0514941
0.0762112
0.08354
0.0847127
0.0807776
0.0724071
0.0629869
0.0539393
0.0713929
0.0789462
0.0808792
0.0817166
0.0738174
0.0639125
0.0545007
0.0677411
0.0741741
0.0801092
0.0788833
0.0713852
0.0619766
0.0529525
0.0650489
0.0700686
0.0733281
0.0716736
0.0653546
0.0574391
0.0493884
0.0574176
0.0605369
0.0605877
0.0581187
0.0538654
0.0485838
0.0428209
0.0672351
0.0712782
0.0708671
0.0671172
0.0613241
0.0545776
0.0476272
0.0754401
0.0811381
0.0809684
0.0757217
0.0680491
0.0597145
0.0515067
0.0755909
0.0824646
0.0864026
0.0822477
0.0729238
0.0631944
0.0539843
0.0695346
0.0791093
0.0869137
0.084091
0.0744838
0.0641851
0.0545763
0.0675554
0.0746815
0.082109
0.0807103
0.071857
0.0622002
0.0530291
0.0648289
0.0710819
0.0746073
0.0725377
0.0656538
0.0576055
0.0494629
0.0574437
0.0605405
0.0605824
0.0580958
0.053879
0.0487519
0.0432975
0.0671352
0.0711806
0.0709079
0.0671327
0.0612823
0.0545865
0.0478673
0.0754595
0.081126
0.0811787
0.0759123
0.0680847
0.0596848
0.0516187
0.0766216
0.0795311
0.0870498
0.0826772
0.0730875
0.0631989
0.0540471
0.0752905
0.0790635
0.0870915
0.0847091
0.0747295
0.0642383
0.0546346
0.0704756
0.0756587
0.0823597
0.0811479
0.0720419
0.0622609
0.0531025
0.0663973
0.072846
0.0754807
0.0726477
0.0657397
0.0576615
0.0495801
0.0374001
0.0330193
0.0288293
0.0248335
0.0209756
0.0170879
0.012658
0.00534435
0.0412784
0.0359222
0.0310362
0.0265071
0.022223
0.0179871
0.0132565
0.00554309
0.0444227
0.0383925
0.0329526
0.0279754
0.0233251
0.018784
0.0137833
0.00574352
0.0464198
0.0400051
0.0342491
0.0290093
0.0241366
0.0194011
0.0142159
0.00594775
0.0468756
0.040459
0.0346993
0.0294447
0.0245436
0.0197636
0.0145107
0.00614211
0.0456589
0.039695
0.0342718
0.0292564
0.0245211
0.0198476
0.0146482
0.00632185
0.0430122
0.037978
0.0331505
0.02855
0.0241153
0.0196566
0.0146037
0.00646949
0.0373304
0.0329745
0.0287994
0.0248135
0.0209627
0.0170807
0.0126559
0.00536245
0.0411735
0.0358622
0.0309986
0.0264815
0.0222053
0.0179759
0.0132512
0.00555983
0.0442761
0.0383152
0.0329091
0.0279483
0.0233074
0.0187731
0.0137785
0.00575976
0.0462411
0.0399165
0.0342055
0.0289868
0.0241245
0.0193952
0.0142149
0.00596418
0.0466888
0.0403717
0.0346636
0.0294332
0.0245427
0.0197672
0.0145167
0.00615961
0.0454944
0.039623
0.0342508
0.0292605
0.0245353
0.0198642
0.0146633
0.00634115
0.0428864
0.0379257
0.0331444
0.028569
0.0241451
0.0196891
0.0146297
0.00649142
0.0373178
0.0329561
0.0287805
0.0248006
0.0209602
0.0170892
0.0126718
0.00536426
0.0411606
0.0358429
0.0309749
0.0264614
0.0221961
0.0179803
0.0132669
0.0055644
0.0442594
0.0382982
0.0328855
0.0279244
0.0232917
0.0187701
0.0137871
0.00576199
0.0462195
0.0399056
0.0341883
0.0289652
0.024106
0.0193852
0.014214
0.005962
0.0466699
0.0403717
0.0346589
0.0294209
0.0245279
0.0197553
0.0145095
0.00615434
0.0454908
0.0396386
0.0342628
0.0292632
0.0245309
0.0198566
0.0146551
0.00633483
0.0429012
0.0379552
0.0331723
0.0285883
0.024155
0.0196892
0.0146229
0.00648424
0.0371665
0.032804
0.0286462
0.0246951
0.0208855
0.0170383
0.012634
0.0053945
0.0410221
0.0356867
0.0308287
0.0263434
0.0221118
0.0179227
0.0132211
0.00558728
0.044148
0.038153
0.0327388
0.027801
0.0232023
0.0187108
0.0137434
0.00578559
0.0461387
0.0397837
0.034055
0.0288476
0.0240194
0.0193299
0.0141793
0.00599206
0.0466138
0.0402778
0.0345488
0.0293195
0.0244516
0.0197082
0.0144858
0.00618946
0.0454521
0.0395707
0.0341799
0.029184
0.0244701
0.0198201
0.0146408
0.0063697
0.0428714
0.0379081
0.0331149
0.0285321
0.0241108
0.0196624
0.0146139
0.00651265
0.037334
0.0331015
0.0291016
0.0253174
0.0216594
0.0179159
0.0135083
0.00581719
0.0411001
0.0358889
0.0311985
0.0269018
0.0228518
0.0188006
0.0141304
0.0060593
0.0441792
0.0382809
0.0330227
0.0282729
0.0238625
0.0195205
0.0146005
0.00624606
0.0461582
0.0398678
0.0342693
0.0292297
0.0245737
0.0200224
0.0149174
0.00638888
0.0466414
0.0403458
0.0347172
0.0296233
0.0248959
0.0202633
0.0150729
0.00649616
0.0454913
0.0396402
0.0343227
0.0294261
0.0248144
0.0202416
0.0150766
0.00658324
0.0429319
0.037995
0.0332517
0.0287341
0.0243776
0.0199745
0.0149252
0.00664859
0.0382753
0.0344338
0.0308703
0.0275385
0.0243065
0.0208934
0.0165711
0.00842532
0.0417665
0.036989
0.0327865
0.0290025
0.0254465
0.0217974
0.017279
0.00879751
0.0446467
0.0391705
0.0344092
0.0301945
0.0263099
0.0224091
0.0176868
0.0089908
0.0465067
0.0406005
0.0354726
0.03095
0.026809
0.0226967
0.0178034
0.00901192
0.0469394
0.0409802
0.0357712
0.0311413
0.0268771
0.0226386
0.017637
0.0088737
0.0457912
0.040225
0.0352593
0.0307506
0.0265237
0.0222742
0.0172568
0.00864385
0.0432669
0.0385517
0.0340788
0.0298597
0.0257975
0.0216354
0.016685
0.00836472
0.0605895
0.0535499
0.0467018
0.0400668
0.033731
0.0275204
0.0207171
0.0104068
0.0675536
0.0590524
0.0507346
0.0431319
0.0359846
0.0291326
0.0218155
0.0108676
0.0713607
0.0624136
0.0532402
0.0449129
0.0371901
0.0299052
0.0222597
0.0109454
0.0715144
0.0624111
0.0530842
0.0446548
0.0368855
0.0295821
0.0219333
0.0106499
0.0677283
0.0585899
0.0500888
0.0422262
0.0349849
0.0281159
0.02083
0.00997913
0.0602626
0.0524049
0.0450692
0.0382843
0.031968
0.0258549
0.0192134
0.00911048
0.0513969
0.0452085
0.0393333
0.0337906
0.0285025
0.0232393
0.0173467
0.00817263
0.0594717
0.0531915
0.0465001
0.0399201
0.0336277
0.027456
0.0206862
0.0104336
0.0645114
0.0578519
0.0503358
0.0429152
0.0358595
0.0290739
0.0218062
0.0109227
0.0665951
0.0609767
0.0528165
0.0446956
0.0370861
0.0298818
0.022289
0.0110258
0.069582
0.0615791
0.0527158
0.0444755
0.0368206
0.0295955
0.0219903
0.0107321
0.0665918
0.0581323
0.0498445
0.0421144
0.0349694
0.028162
0.0209024
0.010053
0.0598079
0.0521484
0.0449359
0.0382501
0.0320028
0.0259273
0.0192941
0.00917616
0.051161
0.0450957
0.0393116
0.0338309
0.0285782
0.0233276
0.0174272
0.00823037
0.0584313
0.0527485
0.0461912
0.0396894
0.0334613
0.0273417
0.0206137
0.0104378
0.0621067
0.0571462
0.0500204
0.0426962
0.0357163
0.0289887
0.0217606
0.0109477
0.0654878
0.0602235
0.0525506
0.0445395
0.0370124
0.0298599
0.0222899
0.0110694
0.0684301
0.0608747
0.0524763
0.0443715
0.0368041
0.0296215
0.0220235
0.0107773
0.0661832
0.0578655
0.049711
0.0420877
0.0350072
0.0282224
0.0209547
0.0100947
0.0595684
0.0520264
0.0449144
0.0382952
0.0320781
0.0260037
0.0193514
0.00921605
0.0511049
0.0451129
0.0393754
0.0339154
0.0286631
0.0233986
0.0174742
0.00826321
0.0579368
0.052194
0.0457349
0.0393579
0.0332346
0.0271913
0.0205197
0.0104347
0.0621723
0.0567341
0.0495662
0.042345
0.0354801
0.0288304
0.0216526
0.0109313
0.0653634
0.0598882
0.0521224
0.0442329
0.0368264
0.0297388
0.0221987
0.0110507
0.0681106
0.0604028
0.0521545
0.0441892
0.036715
0.0295677
0.0219751
0.0107668
0.0657718
0.0575858
0.0495817
0.0420537
0.0350139
0.028233
0.0209533
0.0100994
0.0593823
0.0519528
0.0449217
0.0383399
0.0321287
0.0260432
0.0193716
0.0092422
0.0510984
0.0451463
0.0394263
0.033967
0.0287069
0.023431
0.0174929
0.00828798
0.0578275
0.0517673
0.0453744
0.0390926
0.0330517
0.0270789
0.0204718
0.0104787
0.0625168
0.0564211
0.0491152
0.041997
0.0352194
0.0286428
0.0215373
0.0109414
0.0657514
0.0595299
0.0516438
0.043896
0.0365683
0.0295399
0.0220628
0.0110458
0.0681048
0.0603539
0.0519738
0.0440247
0.0365701
0.0294485
0.0218941
0.0107774
0.0663143
0.057689
0.0496001
0.0420458
0.0349992
0.028224
0.0209589
0.0101383
0.0595187
0.0520432
0.0450029
0.0384125
0.0321972
0.0261119
0.0194369
0.00929676
0.051208
0.045243
0.0395184
0.0340593
0.0288047
0.023534
0.0175895
0.00833789
0.0582063
0.0515726
0.0451464
0.0389098
0.0329391
0.0270452
0.020519
0.0111393
0.0645582
0.0565313
0.0488193
0.0416955
0.0349843
0.0284992
0.0214959
0.011567
0.0684509
0.0599502
0.051422
0.043613
0.0363357
0.0294011
0.0220333
0.0116868
0.0694909
0.0604841
0.0518105
0.0438482
0.0364542
0.0294292
0.0219787
0.0114749
0.0662653
0.0576109
0.0495435
0.0420302
0.0350633
0.0283902
0.0212175
0.0109209
0.0594952
0.0520744
0.0450822
0.0385659
0.0324548
0.0264826
0.0198939
0.0101708
0.0513117
0.0453991
0.0397568
0.0344113
0.0292891
0.0241446
0.0182808
0.0093346
0.0499719
0.0439689
0.0382258
0.0327972
0.0276225
0.0224816
0.0167327
0.00773597
0.0521932
0.0452849
0.0389921
0.0331998
0.0277679
0.0224493
0.0165899
0.00742702
0.0522646
0.0451241
0.0386704
0.0327801
0.0272982
0.0219706
0.0161501
0.00704533
0.0502849
0.0434322
0.0372161
0.0315317
0.0262363
0.0210902
0.0154714
0.00662948
0.0467898
0.0405529
0.0348622
0.0296234
0.024711
0.0199055
0.0146183
0.00620972
0.0424194
0.0369832
0.0319901
0.0273412
0.0229307
0.0185641
0.013694
0.0057994
0.0376103
0.0332099
0.0290061
0.0249939
0.0211142
0.0171993
0.0127381
0.00541192
0.0497574
0.0438755
0.0382182
0.0328466
0.0277002
0.0225661
0.0168065
0.00778433
0.0519376
0.0451823
0.0389853
0.0332457
0.0278371
0.0225212
0.0166503
0.00746681
0.0520035
0.0450192
0.0386556
0.0328116
0.027348
0.022022
0.0161929
0.00707754
0.0500578
0.0433383
0.0371952
0.0315459
0.0262643
0.0211204
0.0154974
0.00665674
0.0466238
0.0404798
0.0348382
0.0296222
0.024719
0.019916
0.0146261
0.00623508
0.0423128
0.0369314
0.0319664
0.0273314
0.0229279
0.0185649
0.013696
0.00582109
0.0375463
0.0331719
0.0289836
0.0249811
0.0211083
0.0171985
0.0127407
0.00543316
0.0497352
0.0439153
0.0382917
0.0329282
0.0277743
0.0226234
0.0168413
0.00780101
0.0519018
0.0452211
0.0390532
0.0333146
0.0278939
0.0225613
0.0166724
0.00747687
0.0519696
0.0450508
0.0387047
0.0328547
0.0273784
0.0220398
0.0161998
0.00708153
0.0500384
0.0433589
0.0372191
0.0315607
0.0262699
0.0211204
0.0154937
0.00665647
0.0466186
0.0404871
0.034839
0.0296147
0.0247073
0.0199033
0.0146133
0.00623372
0.042311
0.0369255
0.0319532
0.0273156
0.0229146
0.0185554
0.0136873
0.00582002
0.0375382
0.033157
0.0289666
0.024968
0.0211033
0.0172018
0.0127488
0.00543144
0.0497501
0.043951
0.0383297
0.0329591
0.0277972
0.0226401
0.0168528
0.00782026
0.0519257
0.0452494
0.0390688
0.0333171
0.0278915
0.0225617
0.0166778
0.00750108
0.0519856
0.045047
0.0386774
0.0328157
0.027343
0.0220185
0.0161946
0.00711094
0.0500256
0.0433084
0.0371445
0.0314832
0.0262077
0.0210826
0.01548
0.00669128
0.0465571
0.0403883
0.0347269
0.0295127
0.0246308
0.0198567
0.0145918
0.00626957
0.0421995
0.0367927
0.0318243
0.0272095
0.0228404
0.0185112
0.0136627
0.00585941
0.0373973
0.0330145
0.0288409
0.0248708
0.0210375
0.0171625
0.0127268
0.00546941
0.0498497
0.0440411
0.0384177
0.0330553
0.0279098
0.0227681
0.0169795
0.00787552
0.0520055
0.0453085
0.0391316
0.033406
0.0280202
0.022728
0.0168569
0.00759349
0.0520353
0.0450759
0.038727
0.0329191
0.0275159
0.0222535
0.0164544
0.00725342
0.0500443
0.0433267
0.037215
0.0316417
0.0264667
0.0214263
0.0158541
0.00689473
0.0465645
0.0404373
0.0348682
0.0297758
0.0250194
0.020344
0.0151077
0.00653458
0.0422447
0.0369271
0.0320863
0.0276173
0.0233872
0.0191582
0.0143206
0.00618703
0.0375455
0.0332817
0.0292526
0.0254346
0.0217377
0.0179524
0.0135057
0.00583701
0.0499318
0.0442063
0.0387079
0.0335096
0.0285469
0.0235725
0.0178832
0.00902025
0.0520678
0.0454883
0.0394931
0.034
0.0288664
0.023802
0.0180635
0.0089832
0.0520936
0.0452974
0.039197
0.033694
0.028613
0.0236389
0.0180059
0.00892041
0.05015
0.0436648
0.037873
0.0326716
0.02788
0.0231776
0.0177909
0.00884951
0.046812
0.0409931
0.0358066
0.031138
0.0268077
0.0225011
0.0174533
0.00874697
0.0427538
0.0378035
0.033382
0.0293596
0.0255664
0.0217021
0.0170217
0.00860192
0.0384416
0.0345497
0.0309362
0.0275505
0.0242636
0.0208008
0.016447
0.0083517
0.0440243
0.0388773
0.0339816
0.0293181
0.0248103
0.0202591
0.0150838
0.00678683
0.0512325
0.0447443
0.0387094
0.033088
0.0277684
0.0225165
0.0166908
0.00757177
0.0583082
0.0505974
0.0434162
0.0367982
0.0306448
0.0246933
0.0182385
0.00836189
0.0642457
0.0553912
0.0472757
0.0398409
0.0330096
0.0265015
0.0195563
0.00911001
0.0673228
0.0577894
0.0493269
0.0415395
0.0343972
0.0276263
0.0204364
0.00973215
0.0659183
0.0570945
0.0490306
0.0415128
0.0345483
0.0278925
0.0207709
0.0101107
0.0610598
0.0537499
0.0467105
0.03995
0.0335495
0.0273087
0.0204973
0.0102137
0.0438893
0.0388275
0.0339856
0.029352
0.0248568
0.0203059
0.0151224
0.00681364
0.0509192
0.044581
0.0386556
0.0331033
0.0278204
0.0225791
0.0167447
0.0076084
0.0577971
0.0502921
0.0432717
0.0367702
0.0306852
0.0247612
0.018305
0.00841293
0.0634671
0.0549408
0.0470419
0.0397614
0.0330298
0.026571
0.0196338
0.00916712
0.0661384
0.0572481
0.0490457
0.0414221
0.0343871
0.0276753
0.0205048
0.00979591
0.0648444
0.056687
0.0487935
0.0413897
0.034505
0.0279011
0.0208057
0.010171
0.0606339
0.0535318
0.0465526
0.039841
0.0334832
0.0272791
0.020496
0.0102538
0.043909
0.0388723
0.0340337
0.0293923
0.0248855
0.0203227
0.0151267
0.00681215
0.0508448
0.0445938
0.0387112
0.0331697
0.0278792
0.0226209
0.016768
0.00761541
0.0575512
0.0502093
0.0432946
0.0368418
0.030765
0.0248274
0.0183388
0.00843068
0.0630448
0.0547385
0.0469983
0.0398106
0.0331132
0.0266497
0.019686
0.00918921
0.0656505
0.0569929
0.0489375
0.0414205
0.0344393
0.0277385
0.0205533
0.00982708
0.0642706
0.056386
0.0486218
0.0413108
0.0344849
0.0279088
0.0208185
0.0102073
0.0599419
0.0531934
0.0463209
0.0396782
0.033375
0.0272122
0.0204584
0.0102701
0.0439122
0.0388605
0.0340087
0.029362
0.0248596
0.0203065
0.0151207
0.00683278
0.0508685
0.0446289
0.0387362
0.0331793
0.0278786
0.0226195
0.0167703
0.00762759
0.0574917
0.0502441
0.043355
0.0368914
0.0307933
0.0248358
0.0183359
0.00843411
0.0627206
0.0546878
0.0470402
0.0398718
0.0331593
0.0266725
0.0196881
0.00918881
0.0649375
0.0567643
0.0488737
0.0414264
0.0344591
0.0277479
0.0205488
0.00982197
0.0636571
0.0560253
0.04841
0.041199
0.0344267
0.027872
0.0207869
0.0102104
0.059441
0.052743
0.0459629
0.0394282
0.0332113
0.0271066
0.0203918
0.0102702
0.0439709
0.0389244
0.0340999
0.0294954
0.0250381
0.0205178
0.0153319
0.00692132
0.0509793
0.0447054
0.0388025
0.0332575
0.0279839
0.0227515
0.0169141
0.00769957
0.0576934
0.0503723
0.0434341
0.0369472
0.0308503
0.0249081
0.0184191
0.00848717
0.0631518
0.0548972
0.0471373
0.0399136
0.0331812
0.0266971
0.0197235
0.00922857
0.065577
0.0569667
0.0489326
0.0414249
0.0344363
0.0277278
0.0205436
0.00984373
0.0638998
0.0559344
0.0483109
0.0411078
0.0343508
0.0278175
0.0207587
0.0102364
0.0590349
0.0523342
0.0456751
0.0392307
0.0330801
0.0270279
0.0203588
0.0103029
0.044245
0.0393615
0.0347492
0.0303837
0.0261653
0.021841
0.0167402
0.00840108
0.0510814
0.0448933
0.0391378
0.0337896
0.0287338
0.0237003
0.0179712
0.00897499
0.0577571
0.050452
0.0435819
0.0372297
0.031312
0.0255484
0.0191792
0.00957452
0.0631908
0.0549415
0.0471902
0.0400352
0.0334288
0.027089
0.0202253
0.0101629
0.0656796
0.0569597
0.0489199
0.0414458
0.034544
0.0279478
0.0208603
0.0106458
0.0641151
0.0558542
0.0482231
0.0410527
0.034366
0.0279198
0.0209427
0.0109501
0.0590791
0.0521874
0.0455122
0.0391089
0.0330264
0.0270514
0.0204569
0.0109739
0.00156272
0.00375873
0.00479815
0.00535185
0.00552068
0.00538434
0.00502598
0.00452516
0.00152551
0.00368093
0.00470275
0.00524837
0.0054166
0.00528689
0.00494207
0.00446006
0.00152073
0.00366702
0.00468415
0.005223
0.00538332
0.00524608
0.00489604
0.00441341
0.00155519
0.00373123
0.0047603
0.00529778
0.00544829
0.00529639
0.00493022
0.00443322
0.00163038
0.00387775
0.00493443
0.00547724
0.00561874
0.00544794
0.00505697
0.00453349
0.00174036
0.00409653
0.0051898
0.0057398
0.00586894
0.00567124
0.00524339
0.0046779
0.00185949
0.00433486
0.00546278
0.00601606
0.00612806
0.00589931
0.00543286
0.00482701
0.00205791
0.00508001
0.00644688
0.00709412
0.00718645
0.00685812
0.00624629
0.00547878
0.00199912
0.00496788
0.00630951
0.006944
0.00703251
0.00670948
0.00611343
0.00537147
0.00199513
0.00495363
0.00628962
0.00691456
0.00699079
0.00665443
0.00604636
0.00529804
0.00204935
0.00505056
0.00640095
0.00702157
0.00708165
0.00672231
0.00608881
0.00531685
0.00215992
0.00526186
0.00664574
0.00727057
0.00731645
0.00692982
0.00626042
0.00544897
0.00231847
0.00557699
0.00700635
0.00763853
0.00766647
0.00724233
0.00652058
0.00564779
0.00248996
0.00592481
0.00739789
0.00803204
0.00803394
0.00756393
0.00678572
0.00585559
0.00284409
0.00704935
0.00884414
0.00955295
0.009465
0.00880045
0.00777927
0.00660633
0.00275282
0.00689876
0.00866215
0.00935384
0.00925717
0.00859277
0.00758598
0.00644592
0.00275391
0.00689047
0.00864743
0.00932688
0.00921344
0.008529
0.00750004
0.00634151
0.00283576
0.00703101
0.0088048
0.00947599
0.00933834
0.00862057
0.0075547
0.00636002
0.00298599
0.00731804
0.0091308
0.00980494
0.00964804
0.0088949
0.00778152
0.00653158
0.00319484
0.00774354
0.00961111
0.0102948
0.0101168
0.00931756
0.0081361
0.00680151
0.00341938
0.00822274
0.0101432
0.0108291
0.0106158
0.00975168
0.00848785
0.00707052
0.00439482
0.0101354
0.0124054
0.0130541
0.012591
0.0113587
0.00968734
0.00791012
0.00426106
0.0099435
0.0121794
0.0128092
0.0123325
0.0110885
0.00941844
0.00767599
0.0042768
0.0099493
0.0121751
0.0127886
0.0122907
0.0110212
0.00931705
0.00753279
0.00439447
0.0101486
0.0123935
0.0129936
0.0124612
0.0111453
0.00939164
0.00755638
0.00456985
0.0105143
0.0128074
0.0134113
0.0128565
0.0115006
0.00969191
0.00778366
0.00479247
0.0110409
0.0134075
0.0140313
0.0134589
0.0120562
0.0101705
0.00815178
0.00501372
0.0116428
0.01408
0.014719
0.0141098
0.0126226
0.0106176
0.00847588
0.00835174
0.0153102
0.0178046
0.0180483
0.0168366
0.0146617
0.0119699
0.00933934
0.00820085
0.015057
0.0175198
0.0177512
0.0165298
0.0143255
0.0115958
0.00898738
0.0082482
0.01509
0.0175308
0.0177342
0.0164836
0.0142463
0.0114623
0.0087549
0.00839213
0.0153764
0.0178378
0.0180186
0.0167178
0.01441
0.0115568
0.00878093
0.00851929
0.0158098
0.0183442
0.0185362
0.01721
0.014862
0.0119516
0.00907396
0.00862355
0.0163929
0.0190494
0.0192906
0.0179576
0.0155754
0.0125995
0.00958309
0.00865909
0.0170311
0.0198225
0.0201301
0.0187843
0.0163035
0.0131539
0.00994678
0.0184212
0.0244486
0.0260024
0.0250224
0.0223354
0.018532
0.0143334
0.0106565
0.0181367
0.0240258
0.0255782
0.0246182
0.021957
0.0181069
0.0137746
0.010145
0.0181605
0.0240561
0.0256019
0.0245995
0.0219015
0.0179946
0.0135594
0.0098173
0.0183274
0.0244442
0.0260313
0.0249978
0.0222278
0.0181983
0.0136594
0.00985477
0.0183612
0.0249035
0.0266269
0.0256335
0.0228245
0.0187548
0.0141644
0.0102607
0.0182999
0.0254808
0.0274273
0.0265506
0.0237374
0.0196562
0.0150268
0.01096
0.0180815
0.0260436
0.0282543
0.0275613
0.0247981
0.020604
0.0157301
0.0113754
0.00289672
0.00641166
0.00811924
0.00904091
0.00934789
0.00914031
0.00853004
0.00764314
0.00289776
0.00644702
0.00817784
0.0091219
0.00945097
0.00926304
0.0086677
0.00778924
0.00284227
0.00636142
0.00808219
0.0090229
0.00935708
0.00918182
0.00860462
0.00774709
0.00274008
0.00617579
0.00784617
0.00875514
0.00907391
0.0088997
0.00833853
0.00750814
0.00259295
0.00589653
0.00748183
0.00833559
0.00862058
0.00843624
0.0078882
0.0070901
0.00243629
0.00557956
0.00706555
0.00785019
0.0080914
0.00789058
0.00735343
0.00658988
0.00228226
0.00525854
0.0066422
0.00735286
0.00754478
0.0073215
0.00679001
0.00605782
0.00386284
0.00861035
0.0108707
0.0120384
0.0123316
0.0119091
0.0109418
0.00962551
0.00386009
0.00864781
0.0109411
0.0121337
0.0124533
0.0120545
0.0111051
0.00979817
0.00378889
0.00854351
0.0108286
0.0120097
0.0123312
0.0119457
0.0110181
0.00973783
0.00366272
0.00831621
0.0105419
0.0116746
0.0119708
0.0115843
0.0106785
0.00943677
0.00347445
0.00796914
0.0100865
0.0111379
0.0113843
0.0109828
0.0100967
0.00890229
0.00327441
0.00757614
0.00955714
0.0105122
0.0106962
0.0102711
0.00940145
0.00825729
0.00307506
0.00717797
0.00901943
0.00987465
0.00999004
0.00953257
0.00867107
0.00757153
0.00517771
0.011652
0.0146393
0.0160786
0.016289
0.0155112
0.0139895
0.0120223
0.00517165
0.0116908
0.0147153
0.0161845
0.0164271
0.015679
0.0141795
0.0122224
0.00508421
0.0115716
0.0145807
0.0160276
0.0162671
0.0155316
0.0140585
0.0121356
0.00493462
0.0113032
0.0142333
0.0156045
0.0158037
0.015063
0.0136212
0.0117592
0.00469936
0.0108735
0.0136684
0.014915
0.0150394
0.0142769
0.0128681
0.0110849
0.00444805
0.010395
0.0130028
0.0141132
0.0141449
0.0133451
0.0119621
0.0102576
0.00419748
0.00991534
0.0123358
0.0133119
0.0132445
0.0123931
0.0110201
0.00938165
0.00696665
0.0158904
0.0198022
0.0214795
0.0215038
0.0201873
0.0178341
0.0148756
0.00696057
0.0159171
0.0198689
0.0215842
0.0216511
0.020375
0.018052
0.015105
0.00686602
0.0157863
0.0196991
0.02138
0.0214363
0.0201691
0.0178783
0.0149796
0.00668734
0.0154778
0.0192604
0.0208309
0.0208236
0.019539
0.0172902
0.0144947
0.00640093
0.0149645
0.018539
0.0199303
0.0198092
0.0184852
0.0162869
0.0136328
0.00609448
0.0144116
0.017731
0.0189283
0.0186575
0.0172595
0.0150915
0.0125641
0.0058102
0.0138711
0.0169477
0.0179635
0.0175372
0.0160406
0.0138731
0.0114466
0.00903436
0.0219997
0.0267828
0.0285485
0.0282677
0.0262024
0.0226449
0.0181731
0.00898099
0.02199
0.0268086
0.0286249
0.0284101
0.0264082
0.022895
0.0184345
0.00887011
0.0218484
0.0265691
0.0283513
0.0281187
0.0261132
0.0226355
0.0182497
0.00871155
0.0215106
0.0259838
0.0276335
0.0273013
0.0252425
0.0218125
0.0176047
0.00858958
0.0209083
0.0250631
0.0264723
0.0259547
0.0238012
0.0204234
0.0164668
0.00860083
0.0203217
0.024184
0.0253087
0.0245249
0.0222031
0.0188252
0.0150538
0.00872308
0.0197335
0.0233492
0.0242278
0.0231859
0.0206613
0.0172399
0.0136215
0.0145157
0.0308637
0.0358385
0.0375536
0.0368527
0.0337213
0.0282927
0.021585
0.0144202
0.0307383
0.0357729
0.0375583
0.0369722
0.0339537
0.0285866
0.0218789
0.014238
0.0304957
0.0354357
0.0371905
0.0365824
0.033529
0.0281818
0.0215958
0.014354
0.0300542
0.0347046
0.0362975
0.0355246
0.0323088
0.0270073
0.0207241
0.0148954
0.0294866
0.0336656
0.0348844
0.0337897
0.0303378
0.0250732
0.0191889
0.0160454
0.0291285
0.0329164
0.0336659
0.0320853
0.0282981
0.0229525
0.0173046
0.0169537
0.0286412
0.032128
0.0325247
0.0305108
0.0263411
0.0208695
0.0154406
0.00214695
0.00497363
0.0062671
0.00691362
0.00706204
0.006817
0.00628709
0.00557978
0.00202365
0.00471898
0.00594092
0.00654332
0.00666847
0.00641998
0.00590509
0.00522857
0.00190567
0.00447529
0.00563926
0.0062141
0.00633468
0.00610087
0.00561551
0.00497781
0.00179397
0.00423589
0.00535031
0.00590673
0.00603164
0.00582031
0.00537023
0.00477456
0.00170863
0.00405329
0.00513138
0.00567762
0.00581029
0.0056194
0.00519725
0.00463213
0.00165348
0.0039406
0.00499954
0.00554584
0.0056904
0.00551826
0.00511736
0.00457277
0.00160967
0.00385367
0.00490438
0.00545696
0.00561636
0.00546416
0.00508534
0.00456207
0.00290486
0.00682456
0.00854391
0.00931408
0.00937083
0.00888232
0.00801988
0.00695081
0.00273677
0.00648589
0.00810527
0.00881587
0.00884184
0.00835004
0.00751024
0.00648604
0.00256276
0.00613417
0.00766944
0.00834204
0.00836283
0.00789396
0.00709944
0.00613405
0.00239663
0.00577328
0.00724009
0.00788776
0.00791647
0.00748203
0.00674107
0.00583895
0.0022691
0.00549927
0.00691713
0.00755326
0.00759629
0.00719433
0.00649637
0.00564041
0.00218796
0.00533299
0.00672457
0.00736219
0.00742413
0.00705098
0.0063848
0.00556008
0.00212527
0.00520896
0.00659031
0.00723676
0.00731865
0.0069721
0.00633575
0.00554081
0.00398444
0.00948296
0.0117394
0.0126061
0.0124627
0.0115705
0.0101939
0.00859146
0.00376441
0.00902995
0.011151
0.0119387
0.0117553
0.0108615
0.00951979
0.00798294
0.00353297
0.00852455
0.0105329
0.0112692
0.0110795
0.0102194
0.00894506
0.00749487
0.00330585
0.00800415
0.00992081
0.0106241
0.0104463
0.0096357
0.00843946
0.00708047
0.00312943
0.00761248
0.00946576
0.0101566
0.0100024
0.00924096
0.00810823
0.006817
0.00301517
0.00737308
0.00919234
0.00988732
0.00976257
0.009045
0.00795773
0.0067124
0.00293235
0.00720759
0.00901718
0.0097246
0.00962551
0.00894163
0.00789273
0.0066881
0.00558524
0.0133466
0.0162058
0.0170812
0.0165573
0.0150141
0.0128489
0.0104689
0.00539393
0.0127381
0.0154261
0.0161933
0.015613
0.0140726
0.0119656
0.00968738
0.00517974
0.0120374
0.0145822
0.0152743
0.01468
0.0131848
0.0111759
0.0090218
0.00491939
0.011333
0.0137521
0.014396
0.0138157
0.0123872
0.0104897
0.00846495
0.00471206
0.0108103
0.0131452
0.0137726
0.0132264
0.0118692
0.010062
0.00813522
0.00456963
0.0104885
0.0127802
0.0134132
0.0129096
0.0116204
0.00987506
0.00800588
0.00448666
0.0103025
0.012586
0.013233
0.0127585
0.0115075
0.00980688
0.00799314
0.0088325
0.0190542
0.0224313
0.0231138
0.0219231
0.01935
0.015956
0.0124301
0.00888875
0.0183068
0.0214438
0.0219501
0.0206504
0.0180776
0.0147889
0.0114535
0.00881334
0.0174486
0.0203665
0.0207396
0.0193929
0.0168661
0.0137104
0.0105436
0.00861744
0.0165741
0.019304
0.0195902
0.018249
0.0158022
0.0127941
0.00980734
0.00845841
0.0159422
0.0185468
0.0187984
0.0174984
0.0151532
0.0122701
0.00941286
0.00835282
0.0155731
0.018112
0.018359
0.0171092
0.0148723
0.0121014
0.00935283
0.00837417
0.0154479
0.0179633
0.0182127
0.0169901
0.0147937
0.0120699
0.00940117
0.0174519
0.0278782
0.0310429
0.0311043
0.0287724
0.0245216
0.0191659
0.0140003
0.0178673
0.0271148
0.0299041
0.0296401
0.0270345
0.0227115
0.0175774
0.0128428
0.0179965
0.0262303
0.0286695
0.0281454
0.0253899
0.0210686
0.0161179
0.0117335
0.0179047
0.0252825
0.0274067
0.0266879
0.0239054
0.0196695
0.0149064
0.0108428
0.0178792
0.0246446
0.026537
0.0257181
0.0229731
0.0188837
0.0142922
0.0103776
0.0179908
0.0243756
0.0261041
0.0252265
0.0225268
0.0186215
0.0142985
0.0104798
0.0183307
0.0245016
0.0261102
0.0251752
0.0224918
0.0186441
0.014393
0.0106793
0.00196691
0.00453978
0.00570102
0.006257
0.00635209
0.00609285
0.00558833
0.00494297
0.00207803
0.0047569
0.00596652
0.00654127
0.00663426
0.00635611
0.00582031
0.00513658
0.00221068
0.00502314
0.00630614
0.00692249
0.00703311
0.00675041
0.00619008
0.00546556
0.00236897
0.00533144
0.00670774
0.00738153
0.00752262
0.00724339
0.00666035
0.00589062
0.0025415
0.00566105
0.00713319
0.00787316
0.00805182
0.00778083
0.00717745
0.0063634
0.00269621
0.00597225
0.00753681
0.00834451
0.00856653
0.00831076
0.00769383
0.00684077
0.00282098
0.0062388
0.00788693
0.00875915
0.00902684
0.00879384
0.00817473
0.0072963
0.00265122
0.0062081
0.00773153
0.00837022
0.00834943
0.00783685
0.00700416
0.00601755
0.00281252
0.00649324
0.00809289
0.00876111
0.00874034
0.00820362
0.00732843
0.00628899
0.00299187
0.00684087
0.00854893
0.00927877
0.00928646
0.00874761
0.00784236
0.00674874
0.00319815
0.00724488
0.00908272
0.00989657
0.00995094
0.00942135
0.00848793
0.0073322
0.00342376
0.00767782
0.00963493
0.0105475
0.0106585
0.0101426
0.00918092
0.00796341
0.00362017
0.00807465
0.0101487
0.0111621
0.0113376
0.0108459
0.0098664
0.00859468
0.00377406
0.00840445
0.0105873
0.0116904
0.011931
0.0114733
0.0104924
0.00918667
0.00363689
0.00860288
0.0105905
0.0112851
0.0110452
0.0101248
0.00878402
0.00728799
0.00384866
0.00897507
0.0110708
0.0118096
0.0115746
0.0106243
0.00922557
0.0076569
0.00407962
0.00942729
0.0116753
0.0125009
0.0123083
0.0113589
0.0099242
0.00828472
0.00434746
0.00996039
0.0123844
0.0133287
0.0132038
0.0122721
0.0108032
0.0090771
0.00464253
0.0105266
0.0131114
0.0141959
0.0141523
0.0132405
0.0117273
0.00990775
0.00489216
0.0110264
0.0137721
0.0150009
0.0150501
0.0141742
0.0126336
0.010731
0.00507685
0.0114169
0.0143066
0.0156608
0.015802
0.0149764
0.013435
0.0114814
0.00515792
0.0121331
0.014638
0.015302
0.0146733
0.0131184
0.0110011
0.00874945
0.00537332
0.0125999
0.0152508
0.0159857
0.0153773
0.0137891
0.0115926
0.00924262
0.00563075
0.0131752
0.0160345
0.0168899
0.0163457
0.0147614
0.0125227
0.0100819
0.00595179
0.0138616
0.0169707
0.0179818
0.0175356
0.0159837
0.0137112
0.0111532
0.00632132
0.014587
0.0179327
0.0191285
0.0188017
0.017286
0.0149441
0.0122313
0.00663976
0.015207
0.0187853
0.0201795
0.0199861
0.0185283
0.0161458
0.0132913
0.00685407
0.0156428
0.0194246
0.0209902
0.0209232
0.0195412
0.0171607
0.0142201