/*--------------------------------*- C++ -*----------------------------------*\
| =========                 |                                                 |
| \\      /  F ield         | OpenFOAM: The Open Source CFD Toolbox           |
|  \\    /   O peration     | Version:  plus.master                           |
|   \\  /    A nd           | Web:      www.OpenFOAM.com                      |
|    \\/     M anipulation  |                                                 |
\*---------------------------------------------------------------------------*/
FoamFile
{
    version     2.0;
    format      ascii;
    class       volVectorField;
    location    "1.4";
    object      U;
}
// * * * * * * * * * * * * * * * * * * * * * * * * * * * * * * * * * * * * * //

dimensions      [0 1 -1 0 0 0 0];

internalField   nonuniform List<vector> 
47285
(
(0.104369 0.101815 -0.0806619)
(0.0936457 0.105039 -0.0598859)
(0.0847074 0.158119 0.000236555)
(-0.0696559 0.2778 0.11063)
(-0.138065 0.126727 -0.0114352)
(-0.135605 0.0829564 -0.0540655)
(-0.136731 0.0773732 -0.067236)
(0.115849 0.0957277 -0.0668195)
(0.113053 0.107276 -0.0203687)
(0.0968412 0.199299 0.144034)
(-0.174908 0.324746 0.306005)
(-0.177707 0.0969396 0.0181265)
(-0.157907 0.0633681 -0.0410689)
(-0.15023 0.0540901 -0.0695899)
(0.161399 0.0771955 -0.052464)
(0.194882 0.0982407 0.0402002)
(0.125383 0.120409 0.635312)
(-0.226636 0.140273 0.551724)
(-0.207996 0.0458434 0.0359959)
(-0.177024 0.0331344 -0.0389747)
(-0.169081 0.0271043 -0.0717319)
(0.203527 -0.021451 -0.0175054)
(0.253241 -0.0429608 0.0902499)
(0.228679 -0.144953 0.747124)
(-0.223312 -0.102256 0.677398)
(-0.221146 -0.0414266 0.047422)
(-0.18354 -0.029616 -0.0304483)
(-0.176615 -0.0238441 -0.06139)
(0.140888 -0.0903611 -0.0489192)
(0.150936 -0.137092 0.0193501)
(0.090694 -0.294123 0.277501)
(-0.207747 -0.279428 0.243672)
(-0.18072 -0.109707 0.0102166)
(-0.164277 -0.0768304 -0.0443362)
(-0.155694 -0.0592424 -0.0773217)
(0.115778 -0.109847 -0.0577996)
(0.10547 -0.129883 -0.0242509)
(0.0633731 -0.187773 0.00826677)
(-0.101615 -0.193483 0.0228969)
(-0.138945 -0.124323 -0.0181479)
(-0.146573 -0.0987329 -0.0489024)
(-0.138754 -0.0786511 -0.071125)
(0.106993 -0.122332 -0.0608526)
(0.0891722 -0.131386 -0.0530159)
(0.0506473 -0.163415 -0.0350707)
(-0.0700107 -0.180261 -0.0186237)
(-0.111308 -0.127987 -0.0504011)
(-0.1279 -0.107021 -0.0620164)
(-0.137714 -0.0945649 -0.0564292)
(-0.00896849 -0.0110689 0.0203732)
(-0.022674 -0.064762 0.171139)
(-0.015886 -0.112987 0.303035)
(0.0181366 0.00190665 0.579825)
(0.0170765 -0.0398388 0.274781)
(0.000282151 -0.00504794 0.151655)
(-0.0158573 0.00921801 -0.000588919)
(-0.0597219 -0.00830676 0.156074)
(-0.0606857 -0.0471647 0.3189)
(-0.0438484 -0.131381 0.86468)
(-0.0108938 0.0855053 0.949554)
(0.0249849 -0.0191242 0.475209)
(0.0318728 -0.00272759 0.243614)
(0.0133916 0.0112484 0.10281)
(-0.110632 -0.0049871 0.22001)
(-0.134213 -0.0215974 0.588179)
(-0.113088 -0.0851696 2.17169)
(0.0353783 0.00783051 1.56663)
(0.0629543 -0.00872413 0.614017)
(0.0679801 0.00497264 0.30374)
(0.0457973 0.0125459 0.141292)
(-0.069472 0.0277214 0.383082)
(0.0152466 0.0389711 0.716923)
(0.00933105 0.0232198 1.91583)
(0.059114 0.0501991 1.79998)
(0.0117951 0.0235168 0.594103)
(0.0352115 0.0184243 0.350492)
(0.027432 0.0105175 0.183857)
(-0.0859764 0.0366191 0.245938)
(-0.0833541 0.0522016 0.595325)
(-0.0357909 0.0155325 1.22099)
(-0.0266536 -0.0226341 0.929476)
(0.0194979 0.0239782 0.536012)
(0.0510679 0.0287664 0.30991)
(0.0309735 0.00855384 0.132165)
(-0.0195574 0.0226888 0.177464)
(-0.0139819 0.0427031 0.326891)
(0.0214781 0.0177567 0.491256)
(-0.0296524 -0.0315159 0.462838)
(-0.00717928 0.0190095 0.357975)
(-0.000479382 0.0119384 0.229729)
(-0.00480425 -0.0016223 0.060786)
(0.0245062 0.005597 0.0432349)
(0.0288828 0.0253689 0.206638)
(0.0267545 0.044001 0.285186)
(-0.0110627 -0.00930992 0.324945)
(-0.0256629 0.0176026 0.232129)
(-0.0337493 0.0033858 0.0996719)
(-0.0335463 -0.0119393 -0.0486875)
(-0.065713 -0.0625798 0.0435523)
(-0.0597758 -0.086757 0.098432)
(-0.0376551 -0.107998 0.119208)
(0.0189143 -0.10799 0.203258)
(0.0570932 -0.0841552 0.124878)
(0.0670279 -0.0663996 0.106076)
(0.0643894 -0.0474275 0.0378358)
(-0.0895928 -0.0535298 0.0941585)
(-0.0858524 -0.0774256 0.157407)
(-0.0499523 -0.104893 0.200585)
(0.0398513 -0.0958158 0.3521)
(0.0807127 -0.06955 0.200924)
(0.089623 -0.0507795 0.160099)
(0.0832569 -0.0365226 0.081798)
(-0.108231 -0.0341551 0.102961)
(-0.110208 -0.0467934 0.186132)
(-0.0588185 -0.0587491 0.260393)
(0.0744415 -0.0606541 0.417031)
(0.106432 -0.0403863 0.256161)
(0.10599 -0.0284867 0.184008)
(0.0953185 -0.0199358 0.0941766)
(-0.119496 0.0087112 0.177234)
(-0.120977 0.0215964 0.316157)
(-0.076812 0.0473881 0.457945)
(0.122262 0.0728097 0.740746)
(0.13649 0.0278344 0.401353)
(0.122685 0.014131 0.271793)
(0.10418 0.00817295 0.138945)
(-0.102668 0.0467962 0.121066)
(-0.0943205 0.0688342 0.209949)
(-0.049693 0.0927581 0.294355)
(0.0572857 0.113423 0.473794)
(0.0928876 0.0731616 0.27179)
(0.0991217 0.0510029 0.188577)
(0.0921137 0.0348665 0.0947565)
(-0.0814903 0.0639039 0.138342)
(-0.0657648 0.0919291 0.223163)
(-0.0336976 0.108365 0.25117)
(0.0272888 0.117272 0.378955)
(0.0637759 0.0872837 0.237454)
(0.0776229 0.0681433 0.176262)
(0.0771759 0.0475878 0.0754033)
(-0.0567704 0.0644428 0.0729956)
(-0.0444105 0.0928758 0.157488)
(-0.0213572 0.101798 0.168443)
(0.0170759 0.104012 0.243389)
(0.0457109 0.0861492 0.154421)
(0.056404 0.0718839 0.0970799)
(0.0568177 0.0512476 0.0213892)
(-0.0324892 -0.0330311 0.0205184)
(-0.0261139 -0.0399952 0.0423765)
(-0.0167852 -0.046784 0.0520032)
(0.00264502 -0.057791 0.0843814)
(0.0204924 -0.0424324 0.0535163)
(0.0296866 -0.0365098 0.0465237)
(0.0347674 -0.0293242 0.0184055)
(-0.0396264 -0.0265241 0.0408363)
(-0.0334218 -0.0335707 0.069288)
(-0.0234518 -0.0407907 0.0924114)
(0.00225644 -0.0503383 0.138894)
(0.025211 -0.0354174 0.0896737)
(0.0362743 -0.0283487 0.0730934)
(0.0415312 -0.0220132 0.0366267)
(-0.0468686 -0.0182046 0.0481086)
(-0.0413164 -0.0247969 0.0884055)
(-0.0279552 -0.0300346 0.125233)
(0.00457988 -0.0410141 0.162966)
(0.0285558 -0.0252927 0.119902)
(0.04147 -0.0184249 0.0876404)
(0.0466984 -0.0130678 0.0438859)
(-0.0585377 -0.00182652 0.0778116)
(-0.0541371 -0.00329962 0.132038)
(-0.0389968 -0.0044812 0.163332)
(0.00780553 -0.00639287 0.202384)
(0.0380658 -0.00411944 0.153358)
(0.0487745 -0.000857115 0.119968)
(0.0538194 0.000243689 0.0627079)
(-0.045107 0.0129158 0.0523622)
(-0.0388362 0.0163508 0.0918766)
(-0.0259707 0.0178789 0.130071)
(0.00348637 0.0210845 0.163554)
(0.0289209 0.0169481 0.1206)
(0.0410224 0.0162803 0.0865908)
(0.046116 0.0132822 0.0438127)
(-0.0417162 0.0245205 0.0613559)
(-0.0320936 0.0314586 0.101041)
(-0.0183589 0.0354551 0.110496)
(0.00587463 0.0394134 0.155671)
(0.0281381 0.0324363 0.106723)
(0.0387868 0.0289711 0.0810792)
(0.042898 0.0231061 0.0360279)
(-0.0351156 0.03493 0.0330137)
(-0.0256617 0.0426665 0.0668908)
(-0.0128327 0.0460181 0.0699728)
(0.0055891 0.0490786 0.0990422)
(0.0235322 0.0436595 0.0664368)
(0.0323451 0.0384598 0.0435134)
(0.0355346 0.0302698 0.0137256)
(-0.0146371 -0.0150955 0.0100105)
(-0.0119969 -0.0180561 0.0154384)
(-0.00782897 -0.0208887 0.0219196)
(0.000972783 -0.0234721 0.0372562)
(0.00969825 -0.0204754 0.0213869)
(0.0140718 -0.0175541 0.0148339)
(0.0165744 -0.0143179 0.00862919)
(-0.0175981 -0.0126318 0.0152343)
(-0.0150026 -0.0156416 0.023662)
(-0.0103233 -0.0181574 0.0389095)
(0.00110654 -0.0203403 0.0742253)
(0.0123703 -0.0177083 0.0367917)
(0.0172972 -0.0147616 0.0234996)
(0.0196969 -0.0115251 0.0135834)
(-0.0204608 -0.00876004 0.02181)
(-0.0175084 -0.0112592 0.0383881)
(-0.0116532 -0.0127486 0.0597492)
(0.00117935 -0.0141348 0.0934126)
(0.0139576 -0.0121714 0.0628929)
(0.0202279 -0.0100402 0.0376794)
(0.02257 -0.00731349 0.0190988)
(-0.0230997 -0.000780451 0.0367445)
(-0.0197439 -0.00103867 0.0688044)
(-0.0129329 -0.00146279 0.0938384)
(0.00167023 -0.00201302 0.130008)
(0.0157044 -0.00065433 0.0953473)
(0.0228818 -0.000131321 0.0664281)
(0.0249801 5.41572e-05 0.0289482)
(-0.0206148 0.00693448 0.0215541)
(-0.0173826 0.00883327 0.0353851)
(-0.011372 0.0101566 0.0630256)
(0.00191257 0.0108602 0.104107)
(0.0145707 0.0104927 0.0557713)
(0.0201713 0.00936281 0.0340004)
(0.0225594 0.00731743 0.0189173)
(-0.0186436 0.0117553 0.0178446)
(-0.0148552 0.0144304 0.0277791)
(-0.00918348 0.0169416 0.0376492)
(0.00216985 0.0194741 0.0705105)
(0.0132094 0.0167572 0.0369831)
(0.0180963 0.0145711 0.0241929)
(0.0202649 0.011793 0.0135379)
(-0.0157406 0.0159458 0.0119096)
(-0.0120185 0.019018 0.0187821)
(-0.00682969 0.0214152 0.0239722)
(0.00204964 0.0241184 0.0387522)
(0.0108373 0.0211037 0.023041)
(0.0150782 0.0182807 0.014883)
(0.0170782 0.0149203 0.00819697)
(-0.128991 0.080113 -0.0550859)
(-0.0894616 0.0645446 -0.0259956)
(-0.0996156 0.0714539 -0.023552)
(-0.0737043 0.0542961 -0.0200056)
(-0.0579823 0.0361104 -0.018443)
(-0.0469512 0.0288082 -0.0183487)
(-0.0336734 0.0305917 -0.0155246)
(-0.0366339 0.0226624 -0.0120318)
(-0.12054 0.0399924 -0.0829864)
(-0.0995947 0.0422815 -0.0756426)
(-0.0711888 0.0313256 -0.0443455)
(-0.0502884 0.0147097 -0.0205053)
(-0.0324382 0.00682952 -0.0105313)
(-0.0191341 0.00294023 -0.00539915)
(-0.00702126 0.0133451 -0.00632782)
(0.00165072 0.0153937 -0.00900233)
(-0.136076 0.0225237 -0.0903256)
(-0.105614 0.0226682 -0.0967052)
(-0.0773943 0.0203678 -0.0955589)
(-0.0557015 0.0107392 -0.0861171)
(-0.0384946 0.0079606 -0.0691695)
(-0.0262879 0.0060604 -0.0435964)
(-0.00980897 0.0126868 -0.0116495)
(-0.00259049 0.0108102 -0.00994812)
(-0.147157 -0.0141432 -0.075274)
(-0.110789 -0.00849864 -0.0804457)
(-0.0739506 -0.00312615 -0.0805868)
(-0.0450346 0.00035544 -0.0760246)
(-0.0255097 0.000713042 -0.071352)
(0.0188914 -0.000958029 -0.049062)
(0.0108139 -0.00158374 -0.0055942)
(0.0542999 -0.000840124 -0.0101505)
(-0.125765 -0.0428753 -0.0946194)
(-0.0987416 -0.0351351 -0.0997329)
(-0.0729987 -0.0264389 -0.0985368)
(-0.052385 -0.0114918 -0.0912827)
(-0.0327687 -0.0120916 -0.0759323)
(-0.0150547 -0.0173755 -0.0504827)
(-0.00222555 -0.016118 -0.00927949)
(0.00769593 -0.0103323 -0.00964065)
(-0.11218 -0.0603946 -0.082965)
(-0.0974833 -0.055838 -0.0723172)
(-0.0682464 -0.0356586 -0.0380225)
(-0.0502495 -0.0139067 -0.0179359)
(-0.0370919 -0.00956563 -0.010739)
(-0.0217486 -0.00948818 -0.00636887)
(-0.00959831 -0.0241498 -0.00706704)
(-0.00196505 -0.0228993 -0.00968997)
(-0.111281 -0.0768812 -0.0357618)
(-0.104714 -0.0735103 -0.0262272)
(-0.0895454 -0.065497 -0.0203747)
(-0.0791186 -0.046633 -0.0199131)
(-0.0609908 -0.035026 -0.0188871)
(-0.0471106 -0.0356463 -0.0182781)
(-0.0351858 -0.0344476 -0.0148766)
(-0.0371067 -0.0241953 -0.0113585)
(-0.024631 0.01057 -0.0869902)
(-0.0289972 0.0112369 -0.118563)
(-0.0271439 0.0112106 -0.109511)
(-0.0242716 0.0101911 -0.0892071)
(-0.021908 0.00919127 -0.067174)
(-0.0207475 0.00786348 -0.0487876)
(-0.0201157 0.00697197 -0.0360084)
(-0.0194597 0.00648168 -0.0272889)
(-0.00289464 0.00712634 -0.0314747)
(-0.0138549 0.00736362 -0.0936025)
(-0.0174693 0.00963541 -0.119503)
(-0.017609 0.00955127 -0.108504)
(-0.0162449 0.00862789 -0.0886818)
(-0.0147633 0.00692013 -0.0659705)
(-0.0137232 0.00497689 -0.046726)
(-0.0132743 0.00345976 -0.0303691)
(0.0187117 0.00612799 0.00690347)
(0.00419871 0.00392286 -0.0632061)
(-0.00178489 0.00487599 -0.0942625)
(-0.00543628 0.00585322 -0.0989904)
(-0.00862564 0.00627281 -0.0907311)
(-0.010932 0.00511096 -0.078267)
(-0.0109236 0.00242724 -0.0655221)
(-0.00976635 0.000368648 -0.0465851)
(0.0158177 0.00498866 0.0357944)
(0.00640545 0.00322163 -0.0361596)
(0.00426283 0.00259108 -0.0680779)
(0.00376232 0.00225685 -0.0775612)
(0.00230826 0.00190276 -0.0820861)
(8.27537e-05 0.00133334 -0.0823827)
(0.000544176 0.000632412 -0.0725679)
(0.00232762 0.000280002 -0.0506665)
(0.00962169 0.00235054 -0.00669316)
(-0.0009999 -6.63815e-05 -0.0732292)
(-0.00454555 -0.00285685 -0.100031)
(-0.00668503 -0.00455602 -0.101963)
(-0.00920748 -0.00519694 -0.0927141)
(-0.0114489 -0.00454098 -0.0793551)
(-0.0110931 -0.00203185 -0.0666344)
(-0.00917343 0.000149542 -0.0459117)
(-0.0129361 -0.00434622 -0.0589584)
(-0.0202304 -0.00851114 -0.108058)
(-0.0210051 -0.0115757 -0.126004)
(-0.019562 -0.0112467 -0.111832)
(-0.0177779 -0.00976086 -0.0890684)
(-0.0162181 -0.00789665 -0.06679)
(-0.0150367 -0.00577425 -0.0467255)
(-0.0143119 -0.0039717 -0.0302877)
(-0.0345324 -0.0144059 -0.110525)
(-0.0340654 -0.0159721 -0.121717)
(-0.0301817 -0.0147693 -0.107717)
(-0.0271142 -0.0125808 -0.0851618)
(-0.0249966 -0.010839 -0.0638167)
(-0.0233337 -0.00973614 -0.0463097)
(-0.0218451 -0.00906238 -0.0342377)
(-0.0202919 -0.00849289 -0.0258129)
(0.051446 -0.0374997 -0.0116411)
(0.036908 -0.0271191 -0.0330864)
(0.0245548 -0.0179085 -0.039)
(0.0149876 -0.0110302 -0.0365991)
(0.00805686 -0.00620869 -0.0311385)
(0.00321066 -0.00300174 -0.0256358)
(-5.83374e-05 -0.000913111 -0.0211545)
(-0.00216743 0.000424791 -0.017685)
(0.069542 -0.0309488 0.00998536)
(0.0518684 -0.0232314 -0.0263397)
(0.0352342 -0.0150082 -0.0390753)
(0.0220535 -0.00851767 -0.0393965)
(0.0123016 -0.00389035 -0.0332121)
(0.00545967 -0.000905335 -0.0260521)
(0.000881662 0.000818092 -0.0201893)
(-0.00196227 0.00162017 -0.0157948)
(0.0804942 -0.0169941 0.0154513)
(0.0623076 -0.0137594 -0.0247275)
(0.0442471 -0.0097383 -0.0393896)
(0.028985 -0.0060077 -0.0404073)
(0.0170622 -0.00291479 -0.0356874)
(0.00829961 -0.000682638 -0.0294877)
(0.00209665 0.000685269 -0.0235576)
(-0.00197475 0.00135175 -0.0180993)
(0.0857923 0.00509455 0.0330831)
(0.0668598 0.00338943 -0.018306)
(0.0486426 0.00234578 -0.0366735)
(0.0332615 0.00166386 -0.038951)
(0.0209419 0.0012063 -0.0355151)
(0.0114253 0.00087797 -0.0306273)
(0.00432678 0.000628968 -0.0260013)
(-0.000501881 0.000436201 -0.0209694)
(0.0778176 0.0264023 0.0144747)
(0.0594284 0.0195506 -0.025683)
(0.0420317 0.0135531 -0.0402397)
(0.0273309 0.00864603 -0.0412256)
(0.0158256 0.00479851 -0.0365718)
(0.00732435 0.00204373 -0.0302893)
(0.00130191 0.000319428 -0.0242083)
(-0.00261453 -0.000574922 -0.0188645)
(0.06418 0.0373352 0.0037032)
(0.0463395 0.0261861 -0.0298389)
(0.0307892 0.0164556 -0.0407408)
(0.0186931 0.00926102 -0.0398184)
(0.00981757 0.00426702 -0.0336086)
(0.00362421 0.00107384 -0.0265477)
(-0.000472316 -0.000748264 -0.0205927)
(-0.00294629 -0.00157209 -0.0160779)
(0.0436883 0.0378777 -0.0211987)
(0.0301325 0.0258173 -0.0381918)
(0.0192836 0.0162277 -0.0411217)
(0.0110626 0.00939512 -0.0372707)
(0.00514543 0.00474313 -0.0311298)
(0.00109338 0.00170967 -0.0254552)
(-0.00155656 -0.000205083 -0.0208828)
(-0.0031876 -0.00136843 -0.0173244)
(0.0311606 -0.0233168 0.000747175)
(0.0254842 -0.0184759 -0.00680936)
(0.0199074 -0.0142722 -0.0102231)
(0.0152406 -0.0108995 -0.0114655)
(0.0116049 -0.0083523 -0.0115903)
(0.00887825 -0.00645736 -0.011133)
(0.00687374 -0.00505298 -0.0103694)
(0.00539064 -0.00399565 -0.00943497)
(0.0378387 -0.0177548 0.0088336)
(0.0312747 -0.0138049 -0.00352593)
(0.0244984 -0.0104296 -0.00914191)
(0.0185535 -0.0077016 -0.0113158)
(0.0138664 -0.00566285 -0.0117496)
(0.0103719 -0.0042025 -0.0112655)
(0.00784622 -0.00319015 -0.0103076)
(0.00602976 -0.00249916 -0.00910609)
(0.0427579 -0.0102379 0.0133088)
(0.0355852 -0.00801592 -0.00115839)
(0.0278474 -0.00601891 -0.00804936)
(0.0210391 -0.00436785 -0.011073)
(0.0156083 -0.00309324 -0.012097)
(0.0114803 -0.00215987 -0.0119529)
(0.00843745 -0.00153335 -0.0110738)
(0.0062491 -0.00116063 -0.00973464)
(0.0479531 0.000436023 0.0202992)
(0.0392694 0.000500552 0.00155157)
(0.0302752 0.000447129 -0.0066452)
(0.022654 0.000392357 -0.010196)
(0.0167231 0.000341728 -0.0116546)
(0.0121652 0.000293018 -0.011828)
(0.00870669 0.000244868 -0.0111029)
(0.00617203 0.000198366 -0.00976618)
(0.0426804 0.0109752 0.0127276)
(0.0353556 0.00892123 -0.00183248)
(0.0277491 0.00695322 -0.00867677)
(0.0208772 0.00515318 -0.0116324)
(0.015426 0.00374064 -0.0125833)
(0.0112805 0.00269715 -0.0123445)
(0.00821718 0.00198368 -0.0113727)
(0.00601948 0.00154469 -0.00994475)
(0.0378592 0.0186231 0.00712555)
(0.030718 0.014525 -0.0051461)
(0.0238175 0.0110373 -0.0104494)
(0.0179768 0.00817755 -0.0123623)
(0.0134081 0.00602075 -0.0125811)
(0.0100008 0.00447709 -0.0119202)
(0.00753686 0.00341535 -0.0108154)
(0.0057663 0.00269982 -0.00949844)
(0.030846 0.0239721 -0.00234835)
(0.0247831 0.0187205 -0.00907538)
(0.0191762 0.0142699 -0.0118718)
(0.0146014 0.0107896 -0.0126741)
(0.0110911 0.00819941 -0.0124711)
(0.00847659 0.00630346 -0.0117647)
(0.00656297 0.00491972 -0.0108083)
(0.00515535 0.00389277 -0.00972513)
(0.0156238 -0.0118761 0.00408497)
(0.0137579 -0.00993765 0.00115468)
(0.0118767 -0.00833928 -0.00106114)
(0.0102385 -0.00709071 -0.00274534)
(0.00892992 -0.00614281 -0.00407286)
(0.00794174 -0.00544541 -0.00519449)
(0.007269 -0.00497691 -0.00616742)
(0.00686991 -0.00470242 -0.00655002)
(0.018341 -0.00941889 0.0068423)
(0.0160475 -0.00761364 0.00271483)
(0.0137941 -0.00619791 -0.000154968)
(0.0118234 -0.00513396 -0.00221912)
(0.0102276 -0.00434523 -0.00374611)
(0.00900887 -0.00377622 -0.00496004)
(0.0081778 -0.00340258 -0.00598776)
(0.0077065 -0.00320238 -0.00645504)
(0.0210112 -0.00565144 0.00925325)
(0.0183722 -0.00447825 0.00385768)
(0.0156568 -0.00354964 0.00043682)
(0.0132561 -0.0028537 -0.00193068)
(0.0113055 -0.00234058 -0.00364436)
(0.00981512 -0.00197064 -0.0049686)
(0.00878994 -0.00172895 -0.00605746)
(0.00820693 -0.00160441 -0.00657293)
(0.0227563 0.000155281 0.0123797)
(0.019703 0.000196543 0.00493322)
(0.0166089 0.000202273 0.000941159)
(0.0139274 0.000195204 -0.00164613)
(0.0117805 0.00018402 -0.00347792)
(0.0101477 0.000172262 -0.00487023)
(0.00901023 0.000161091 -0.00598238)
(0.00835088 0.000151687 -0.00648246)
(0.0210835 0.00594046 0.00909568)
(0.0184055 0.00486545 0.00371407)
(0.0156451 0.00395018 0.000295587)
(0.0132173 0.00323801 -0.00207169)
(0.0112536 0.00270115 -0.00377887)
(0.00975569 0.00230749 -0.00508641)
(0.00872648 0.0020454 -0.00614361)
(0.00814299 0.00190555 -0.00661487)
(0.0186276 0.00985445 0.00652301)
(0.0161429 0.00804077 0.00236478)
(0.0137734 0.00658178 -0.000493175)
(0.01175 0.0054757 -0.00252191)
(0.0101332 0.00465187 -0.00401189)
(0.00890802 0.00405487 -0.00518337)
(0.00807738 0.00366154 -0.00615484)
(0.00760541 0.0034477 -0.00655888)
(0.0157715 0.0123841 0.00357577)
(0.0137349 0.0103133 0.000666709)
(0.0117825 0.00862527 -0.00149086)
(0.0101226 0.00731975 -0.00311498)
(0.0088067 0.00633211 -0.00437991)
(0.00782024 0.00560933 -0.00543059)
(0.00715375 0.0051273 -0.00631741)
(0.00675744 0.00484541 -0.00661391)
(0.104258 -0.0957068 -0.053029)
(0.0829425 -0.0716639 -0.0255304)
(0.067622 -0.0632425 -0.0134835)
(0.0752367 -0.0699199 -0.0159402)
(0.0611799 -0.0572349 -0.0181259)
(0.0555806 -0.0425005 -0.0191712)
(0.0458058 -0.0288776 -0.0156767)
(0.0414526 -0.0203619 -0.0119281)
(0.107041 -0.0828621 -0.0834727)
(0.0878981 -0.0715459 -0.0913003)
(0.0654044 -0.0711951 -0.0823197)
(0.04486 -0.0533879 -0.0595694)
(0.0247393 -0.0251384 -0.0283401)
(0.0136482 -0.0072272 -0.0135279)
(0.00513217 -0.00121614 -0.0109826)
(0.00140946 0.00378082 -0.00729395)
(0.130054 -0.069078 -0.0862297)
(0.10006 -0.0562539 -0.101512)
(0.0700194 -0.0450243 -0.107837)
(0.0407428 -0.0307657 -0.109617)
(0.0152366 -0.0220946 -0.106714)
(-0.0041103 -0.0148375 -0.0986946)
(-0.0204325 -0.0157969 -0.084549)
(-0.0333168 -0.0169969 -0.0653195)
(0.179253 -0.0150201 -0.063201)
(0.129654 -0.010667 -0.0856558)
(0.0824855 -0.00746997 -0.0916408)
(0.0408516 -0.00541016 -0.0934463)
(0.00577805 -0.00531977 -0.0909624)
(-0.0246776 -0.004489 -0.0857933)
(-0.0512492 -0.00422766 -0.079432)
(-0.0789493 -0.00317671 -0.0700158)
(0.142843 0.0628283 -0.0858583)
(0.104434 0.0526882 -0.100608)
(0.0700873 0.0412541 -0.107105)
(0.0371699 0.0290186 -0.110141)
(0.00839792 0.0206657 -0.107664)
(-0.0138644 0.0150639 -0.101885)
(-0.0316438 0.0134217 -0.090541)
(-0.0484908 0.0186919 -0.0729476)
(0.105974 0.0769779 -0.0931637)
(0.0817096 0.0632662 -0.102564)
(0.0600373 0.0553175 -0.0972638)
(0.0364568 0.0538188 -0.0746927)
(0.0168539 0.0212208 -0.0271919)
(0.00664693 0.00646371 -0.0163407)
(-0.00246715 -0.00304908 -0.0111844)
(-0.00730172 -0.00423018 -0.00901672)
(0.102937 0.0879057 -0.0744768)
(0.0823367 0.0651679 -0.0423853)
(0.0826775 0.0722144 -0.0274575)
(0.0449775 0.0544954 -0.0122755)
(0.0555704 0.0634708 -0.0182272)
(0.0401308 0.0415889 -0.0186043)
(0.0352495 0.0293098 -0.0162478)
(0.0311822 0.0234843 -0.0125726)
(0.0251598 -0.006346 -0.0741287)
(0.0296213 -0.0122711 -0.120664)
(0.0268732 -0.0141507 -0.11996)
(0.0237249 -0.0136146 -0.0981965)
(0.0219337 -0.012472 -0.0746267)
(0.0210176 -0.0119914 -0.0539167)
(0.0206158 -0.0118217 -0.0390762)
(0.0202334 -0.0115738 -0.0289411)
(-0.0105668 0.0126126 0.0262388)
(-0.000986021 0.00366129 -0.0679064)
(0.00509591 -0.00511931 -0.10941)
(0.00821032 -0.0110995 -0.119514)
(0.00987798 -0.0129641 -0.110061)
(0.0102104 -0.0147475 -0.0924162)
(0.0109872 -0.0151355 -0.0708336)
(0.0124763 -0.0142907 -0.0506009)
(-0.0586183 0.0229854 0.0830145)
(-0.035888 0.0127693 -0.0228368)
(-0.0244723 0.00464802 -0.0796034)
(-0.0183456 -0.00160641 -0.104795)
(-0.0132201 -0.00598815 -0.109629)
(-0.0082048 -0.00963542 -0.102737)
(-0.00349428 -0.0116974 -0.0896556)
(0.000762599 -0.0118414 -0.0732831)
(-0.0699723 0.0153602 0.150486)
(-0.0519055 0.00919196 0.0208941)
(-0.0410046 0.00540697 -0.0432864)
(-0.0363297 0.00293389 -0.0744887)
(-0.0331366 0.0013549 -0.0849221)
(-0.0306976 0.00031035 -0.084056)
(-0.0290665 -0.000277676 -0.0793169)
(-0.0278861 -0.000525016 -0.0714558)
(-0.0767092 0.000263142 0.0744009)
(-0.0487488 0.00141532 -0.0220732)
(-0.0342951 0.00285488 -0.0751028)
(-0.0261745 0.00513564 -0.101156)
(-0.0200877 0.00765984 -0.108668)
(-0.0146021 0.0099872 -0.104013)
(-0.00956192 0.0119013 -0.0924342)
(-0.00512093 0.0124148 -0.0766878)
(-0.037282 -0.00190602 0.0162282)
(-0.0197229 0.00115189 -0.0690115)
(-0.00844672 0.00710242 -0.107623)
(-0.00128956 0.0123816 -0.117566)
(0.00241011 0.0140167 -0.112196)
(0.00386837 0.0147191 -0.0923577)
(0.0056978 0.0152626 -0.0714893)
(0.00802258 0.0147445 -0.0509825)
(0.00272436 0.00356593 -0.075524)
(0.0122601 0.00924258 -0.122475)
(0.0136738 0.0122404 -0.124439)
(0.0132184 0.0122121 -0.103855)
(0.0131005 0.0110489 -0.0768938)
(0.0139724 0.00998747 -0.0550114)
(0.0153079 0.00967983 -0.0392882)
(0.0163763 0.00969408 -0.0291468)
(-0.0502656 0.0507478 0.00488144)
(-0.0373749 0.0371859 -0.0276663)
(-0.0252812 0.0246116 -0.0391181)
(-0.0157066 0.0149642 -0.0387275)
(-0.0086132 0.00814398 -0.0337019)
(-0.00354287 0.00361519 -0.0279547)
(-5.44327e-06 0.000780683 -0.0230529)
(0.00241437 -0.000903077 -0.0191627)
(-0.0740059 0.0492955 0.0474955)
(-0.0600869 0.0375177 -0.00974496)
(-0.0435122 0.0252919 -0.0350035)
(-0.0289942 0.0152518 -0.0414828)
(-0.0175526 0.00775785 -0.0393574)
(-0.00888671 0.00253354 -0.0320973)
(-0.00250783 -0.000751685 -0.0252207)
(0.00189999 -0.00244725 -0.0197101)
(-0.0910731 0.0342861 0.0415227)
(-0.0752927 0.0259343 -0.0115784)
(-0.0576778 0.0185293 -0.0356822)
(-0.0411203 0.0124141 -0.0430726)
(-0.026659 0.00743829 -0.0419303)
(-0.0148633 0.00357816 -0.0369914)
(-0.00569658 0.000780314 -0.0312302)
(0.00115425 -0.00096421 -0.0253474)
(-0.102709 0.00411384 0.0663135)
(-0.0847428 0.00217325 -0.00346405)
(-0.0657081 0.00134504 -0.032399)
(-0.047965 0.000900503 -0.0409675)
(-0.0327769 0.000583006 -0.0407658)
(-0.020536 0.000350307 -0.0371649)
(-0.0108596 0.000203187 -0.0326796)
(-0.0031668 0.000135483 -0.027482)
(-0.0928728 -0.0274083 0.0310462)
(-0.0759119 -0.0222408 -0.0153229)
(-0.0585766 -0.0165151 -0.0362593)
(-0.0421504 -0.0111785 -0.0425207)
(-0.0278131 -0.00662334 -0.0414326)
(-0.015985 -0.00298453 -0.0371442)
(-0.00661229 -0.000287572 -0.0315523)
(0.00051517 0.00141431 -0.025542)
(-0.0773744 -0.0436715 0.0264514)
(-0.0616766 -0.0339863 -0.0179246)
(-0.0451552 -0.0233511 -0.0363916)
(-0.0306757 -0.0141209 -0.0403484)
(-0.0189856 -0.00694652 -0.0376868)
(-0.0100529 -0.00191139 -0.0312813)
(-0.00345819 0.00125713 -0.0246733)
(0.00117289 0.00287726 -0.0193255)
(-0.0561669 -0.0493484 -0.0066429)
(-0.0423084 -0.0362741 -0.0305022)
(-0.0293403 -0.0243016 -0.0381469)
(-0.01878 -0.0149642 -0.0368092)
(-0.0109138 -0.0083466 -0.0318428)
(-0.00526669 -0.00400085 -0.026453)
(-0.00127808 -0.00124699 -0.021957)
(0.00150534 0.000432181 -0.0184233)
(-0.032849 0.0285607 0.00662576)
(-0.0270374 0.0226954 -0.00437467)
(-0.0210799 0.0174222 -0.00913506)
(-0.0159855 0.0131728 -0.0109448)
(-0.0119658 0.00997424 -0.0113227)
(-0.00890813 0.00763959 -0.0109779)
(-0.00662625 0.00595174 -0.0102563)
(-0.00491154 0.00471947 -0.00932413)
(-0.0405747 0.0204235 0.0221528)
(-0.0343245 0.0162522 0.00238753)
(-0.0272397 0.0127647 -0.00626206)
(-0.0207115 0.00966283 -0.0100151)
(-0.0152735 0.00713268 -0.0113504)
(-0.0110437 0.00524301 -0.0113665)
(-0.00790332 0.00392691 -0.0106526)
(-0.00558655 0.00305528 -0.00951478)
(-0.0442282 0.0106969 0.0222506)
(-0.0380193 0.00893663 0.00513526)
(-0.0306472 0.00739666 -0.00418772)
(-0.0234975 0.00566791 -0.00904214)
(-0.0173165 0.00419157 -0.0112998)
(-0.0123423 0.00303761 -0.0119317)
(-0.0084862 0.00221267 -0.0115955)
(-0.00554627 0.00168821 -0.0105413)
(-0.052926 -0.00142953 0.0328718)
(-0.0438734 -0.000719065 0.0102341)
(-0.0343645 -0.000171181 -0.00139812)
(-0.0256657 -2.42774e-05 -0.00710558)
(-0.0187625 2.67122e-05 -0.00994513)
(-0.0132904 4.76389e-05 -0.0110524)
(-0.0089954 6.84224e-05 -0.0110888)
(-0.00565585 9.3546e-05 -0.0102197)
(-0.0442854 -0.0144926 0.0206515)
(-0.0378452 -0.0111425 0.00535926)
(-0.0304955 -0.00840092 -0.00374595)
(-0.0232592 -0.00605638 -0.00865103)
(-0.0171699 -0.00429829 -0.0110725)
(-0.0122413 -0.00299663 -0.0119171)
(-0.00837441 -0.00207866 -0.0116381)
(-0.00542028 -0.00149484 -0.0105332)
(-0.0375185 -0.0216768 0.0149853)
(-0.0317072 -0.0168977 0.00102912)
(-0.0253009 -0.0129243 -0.00604719)
(-0.0194368 -0.00954778 -0.0095015)
(-0.0144889 -0.00692016 -0.0108845)
(-0.0105596 -0.00499403 -0.0110039)
(-0.00757843 -0.00366767 -0.0103651)
(-0.0053488 -0.00280474 -0.00927876)
(-0.0300325 -0.0266648 0.00383838)
(-0.0248935 -0.0210735 -0.00418458)
(-0.0196228 -0.0162497 -0.00822238)
(-0.0150353 -0.0123773 -0.0100152)
(-0.011351 -0.00942208 -0.0105379)
(-0.00850843 -0.00724077 -0.0103536)
(-0.00635681 -0.0056541 -0.0097719)
(-0.00471826 -0.00449103 -0.00895618)
(-0.0152509 0.0135387 0.00640543)
(-0.0133868 0.0114369 0.00297124)
(-0.0114198 0.00959338 0.000410598)
(-0.00968941 0.00812457 -0.00151456)
(-0.00828649 0.0070016 -0.0030013)
(-0.00721121 0.00616679 -0.00421625)
(-0.00644765 0.00558966 -0.0052442)
(-0.00595448 0.00523574 -0.00570719)
(-0.0180768 0.0101266 0.00994425)
(-0.016069 0.00856774 0.00508685)
(-0.0138101 0.0071607 0.00173074)
(-0.0116949 0.00600135 -0.00071076)
(-0.00990678 0.00509492 -0.00251049)
(-0.00850853 0.00441642 -0.00389454)
(-0.00749227 0.0039468 -0.00502475)
(-0.00683631 0.00367573 -0.00560091)
(-0.0201515 0.00576364 0.0121559)
(-0.0181172 0.00489598 0.00636956)
(-0.0156289 0.00409817 0.00246791)
(-0.0131979 0.00341599 -0.000286105)
(-0.0110843 0.00287259 -0.00229332)
(-0.00939052 0.00246108 -0.00381003)
(-0.00812567 0.00217491 -0.0050222)
(-0.00729068 0.00201625 -0.0056553)
(-0.0219441 -0.000488412 0.0173613)
(-0.0194666 -0.000262265 0.00843054)
(-0.0166267 -0.000126623 0.00332614)
(-0.0139243 -4.83118e-05 0.000228647)
(-0.0115984 -1.5994e-06 -0.00192831)
(-0.00974329 2.75587e-05 -0.00353226)
(-0.00834736 4.96232e-05 -0.00479607)
(-0.00741761 6.90601e-05 -0.0054573)
(-0.0197174 -0.0068858 0.0122254)
(-0.0176885 -0.00548401 0.00648878)
(-0.0153065 -0.00435938 0.00248515)
(-0.0129695 -0.00349389 -0.000272511)
(-0.0109249 -0.0028466 -0.00227244)
(-0.00927181 -0.00237064 -0.00379232)
(-0.00802571 -0.00204 -0.00500967)
(-0.0072078 -0.00184872 -0.00564637)
(-0.0168479 -0.0105187 0.00886268)
(-0.0150291 -0.00862414 0.00454753)
(-0.0130744 -0.00706294 0.00144906)
(-0.0111977 -0.0058374 -0.000836749)
(-0.00956944 -0.0049026 -0.00254547)
(-0.00827018 -0.00420991 -0.00388427)
(-0.00731677 -0.00373405 -0.00500295)
(-0.00670704 -0.00346119 -0.00558592)
(-0.0141441 -0.0127696 0.00556931)
(-0.0125512 -0.0107642 0.00253809)
(-0.0108432 -0.00905298 0.000207767)
(-0.00929075 -0.0076904 -0.00158157)
(-0.00800724 -0.00664674 -0.00299169)
(-0.00700833 -0.00586777 -0.00417635)
(-0.00629489 -0.00532819 -0.00521433)
(-0.00583969 -0.00499954 -0.00570508)
(0.089568 0.0947091 -0.087672)
(0.0848333 0.0959326 -0.0687614)
(0.0522949 0.0717442 -0.0267524)
(0.0405953 0.063406 -0.0124297)
(0.0521628 0.0485526 -0.0114687)
(0.0634074 0.0416132 -0.0162819)
(0.0536838 0.0221129 -0.0159132)
(0.0456386 0.0169351 -0.012517)
(0.0790728 0.0944212 -0.0898975)
(0.0638599 0.075497 -0.105409)
(0.0471636 0.0617808 -0.106901)
(0.0372291 0.048895 -0.0974655)
(0.0509736 0.02912 -0.0696993)
(0.0160863 0.0167877 -0.0244077)
(0.00644062 0.0053762 -0.0146282)
(0.00726379 -0.00780623 -0.0118448)
(0.0730906 0.142016 -0.051871)
(0.0684106 0.109582 -0.078093)
(0.0691153 0.0827118 -0.0889463)
(0.0623303 0.0584511 -0.0959763)
(0.0514874 0.0347524 -0.0992719)
(0.0360274 0.0167213 -0.0978162)
(0.0334621 -0.000724811 -0.0920789)
(0.0361587 -0.0180066 -0.0833953)
(-0.0228839 0.28455 0.043778)
(-0.00719899 0.211327 0.000216338)
(0.000690012 0.169452 -0.0271238)
(0.00353929 0.116998 -0.0384637)
(0.00338891 0.0727342 -0.0473585)
(0.00259396 0.0364659 -0.0617748)
(0.00486129 -0.000315665 -0.0791661)
(0.00461987 -0.0283427 -0.0836725)
(-0.105272 0.132453 -0.0380021)
(-0.0874949 0.108973 -0.0621178)
(-0.0776367 0.0830222 -0.0747355)
(-0.0673274 0.0599676 -0.0843101)
(-0.0537064 0.0361206 -0.0916588)
(-0.0390408 0.01375 -0.0937191)
(-0.022049 -0.00162123 -0.0918808)
(-0.026224 -0.0209644 -0.0847734)
(-0.105526 0.0759195 -0.0761505)
(-0.0831124 0.0593423 -0.0934621)
(-0.0621363 0.0457908 -0.100392)
(-0.0446268 0.0343099 -0.100901)
(-0.0467973 0.0167538 -0.0842938)
(-0.0331389 -0.00575327 -0.0554489)
(0.000619064 -0.00314262 -0.0109381)
(0.000557185 -0.024059 -0.0112853)
(-0.114947 0.0780707 -0.0759616)
(-0.095494 0.0765687 -0.0560144)
(-0.0669468 0.0649297 -0.0286842)