/*--------------------------------*- C++ -*----------------------------------*\
| =========                 |                                                 |
| \\      /  F ield         | OpenFOAM: The Open Source CFD Toolbox           |
|  \\    /   O peration     | Version:  plus.master                           |
|   \\  /    A nd           | Web:      www.OpenFOAM.com                      |
|    \\/     M anipulation  |                                                 |
\*---------------------------------------------------------------------------*/
FoamFile
{
    version     2.0;
    format      ascii;
    class       vectorField;
    location    "11.6/lagrangian/kinematicCloud";
    object      U;
}
// * * * * * * * * * * * * * * * * * * * * * * * * * * * * * * * * * * * * * //


96597
(
(0.000452748 -0.00143615 0.000151287)
(-0.000359943 0.000181991 -0.00152214)
(-1.44849e-05 0.000240301 -0.00094217)
(0.00010003 0.000923419 0.000847282)
(-0.000344103 -7.16607e-05 0.00189945)
(0.0001176 0.000269755 -0.00104915)
(-0.000510757 0.000496706 -0.000796331)
(-0.00163991 -0.000112808 0.00266572)
(-0.000161657 -0.000853427 -0.00252806)
(0.000110221 7.17724e-06 0.000240106)
(-0.000474392 -8.13883e-05 0.00041713)
(-0.000478608 3.1207e-05 -0.000807844)
(0.000891461 -4.67749e-05 -0.00291876)
(-0.000572843 0.000462332 0.00443298)
(-0.000208595 0.000193755 0.000258616)
(-0.000182701 0.000318761 -0.00447806)
(-0.00116473 -0.00197665 -0.00092398)
(0.000197902 -0.000425543 0.00064561)
(-0.00061011 -2.27003e-05 0.000206097)
(-0.000301066 5.18733e-05 0.000375479)
(-6.12021e-05 -7.05629e-05 -0.00050358)
(-8.6551e-05 0.00018687 0.000293525)
(0.00018498 0.00043228 -0.000928803)
(0.000307343 0.000632386 0.0002907)
(-0.00035543 5.2572e-05 6.2901e-05)
(0.000612327 0.000422639 -1.45634e-05)
(0.000302215 0.000180673 -0.00400584)
(-8.65874e-06 0.00035465 0.000246417)
(0.000205447 0.000499343 0.000402067)
(-0.000455278 1.2691e-05 0.000229109)
(6.44147e-05 -0.000121803 -0.00216279)
(-8.22834e-05 -0.000119721 -0.00637083)
(0.000418064 -0.000341157 0.000205143)
(3.09232e-05 -3.30371e-05 0.00329028)
(-0.000195675 0.000154761 -0.000953189)
(-0.000605367 3.6933e-05 -0.00173574)
(-1.83191e-05 -0.000187195 0.000261606)
(0.000239371 0.000147231 -0.000459004)
(0.000760714 -0.00013093 0.000275248)
(-0.000270724 -0.000122688 -0.00122574)
(-0.000748422 0.0004471 -0.00199524)
(-6.97406e-05 0.00104683 0.000316048)
(6.40186e-05 0.000151154 -0.000339188)
(0.000350924 -0.000445031 -0.000857933)
(0.000242316 -0.000258147 0.000273613)
(-0.000357752 -4.68088e-06 -0.000208072)
(-0.000229105 1.11459e-05 -0.00614653)
(0.000917474 0.000802916 -0.00332075)
(-6.18669e-05 0.000751993 0.000252439)
(8.3731e-05 -0.000541297 6.88091e-05)
(-0.000529806 0.000168088 0.000268243)
(4.35479e-05 -0.000192999 0.000937274)
(-0.000614428 -0.000176865 -0.00310374)
(2.19083e-05 0.00017111 -0.00145535)
(-0.000510002 0.000150301 0.00027234)
(-0.000216066 -0.000539207 5.75453e-06)
(-0.000852527 7.6719e-05 0.000286158)
(-0.000303102 0.00105622 0.00162297)
(0.000307949 -0.000188599 0.000285107)
(-0.000555705 -0.00015923 -0.00599686)
(-0.000669408 8.25409e-05 0.00034104)
(-0.00071412 0.000226362 -0.00330777)
(-0.000466526 1.45045e-05 0.000398567)
(0.00030995 -0.000206276 0.000252267)
(3.95333e-05 0.000198234 -0.0013402)
(0.000239169 0.0006088 0.000282864)
(-8.06106e-06 0.000318092 -0.00128489)
(-0.00222747 0.0160391 0.000211695)
(-0.000531602 1.80023e-05 -5.79252e-05)
(-0.000480231 6.41856e-05 0.000142892)
(-0.00083825 0.000304236 0.000246545)
(-0.00100485 7.47383e-05 0.000370995)
(-0.000182685 -0.000799548 2.70419e-05)
(-0.000656521 -0.000246599 0.000230838)
(-8.81671e-05 9.54687e-05 -0.00114309)
(-0.000261137 0.000140678 -0.00150299)
(-5.87209e-05 6.40039e-05 -0.000610839)
(0.000540228 0.00235274 -0.00139726)
(-0.000364803 -5.73309e-06 0.000263943)
(-0.000671553 8.7689e-05 0.000345011)
(-0.000249389 -2.34569e-05 -0.00183993)
(0.000357781 3.67763e-05 -0.000126074)
(0.000401026 -0.000429263 0.00317061)
(-0.000754104 0.000375424 -0.00115743)
(0.000128101 -0.000241714 -7.44687e-05)
(-0.000375476 0.000204437 0.000254613)
(-0.000871377 -0.000138132 -0.00175258)
(0.000123764 0.000235259 0.0066108)
(-0.012502 -0.00073098 0.00015486)
(-0.000264448 -0.00104269 -0.00026784)
(-0.000493226 -8.45494e-05 0.0002138)
(-0.000711089 0.0071337 0.0002526)
(-0.000929802 0.000269048 -0.00132315)
(-5.85724e-05 0.00155731 -0.00410364)
(-0.00014455 2.75614e-05 -0.00291798)
(-5.75659e-05 9.59451e-05 -0.00312336)
(-0.000581188 -1.42465e-05 -0.000192318)
(-0.000339808 -8.28665e-05 0.000293582)
(0.000534567 -0.000308438 -0.00135024)
(0.000198935 -8.91682e-05 -0.00140149)
(-0.000123531 5.08042e-05 0.000288566)
(-0.000500536 0.000211772 0.000152792)
(-0.000292617 0.000281021 0.000286552)
(-0.000397899 -3.56216e-06 0.00752531)
(-0.000305003 -0.000363171 -0.00185791)
(0.000316423 -0.000353986 -0.00106061)
(2.33814e-05 0.000187543 7.31169e-05)
(0.000218571 -0.000233508 0.000373538)
(-0.000256066 -0.000142511 -0.00115725)
(0.00034033 -0.000528425 0.000301866)
(0.000347262 -0.000317861 0.000399709)
(-0.000502927 7.01045e-06 0.000441789)
(-0.000212992 7.71266e-05 0.000306679)
(-0.000773302 -3.56247e-05 0.000171883)
(-0.00036002 0.000323221 -0.000758621)
(-0.000472649 0.000472231 -0.00157019)
(-0.000436408 -0.00016094 -0.00437196)
(5.52767e-05 0.000388639 4.93847e-05)
(-0.000420301 -2.77084e-05 0.00016317)
(-0.000569577 0.000568647 -0.00201424)
(-0.000506749 4.8634e-05 0.000221866)
(0.000153051 0.000587661 0.000281029)
(-0.000634366 0.000226216 0.000125496)
(0.000428908 0.000854595 0.000299294)
(-0.000221869 0.000282652 -0.00125382)
(-0.000432698 -0.000855278 0.000286818)
(-0.000976225 3.97564e-05 0.000381904)
(-0.000207083 6.83653e-05 0.00322671)
(-0.000165289 -0.000122008 -0.00300604)
(-0.000436233 3.98601e-05 0.000559219)
(-0.000467718 0.000248722 0.00179312)
(-0.000421837 0.00040414 -0.00147661)
(-0.000154113 -0.00035888 0.000366214)
(-0.0014202 -0.000438518 -0.00140465)
(-0.000814463 0.00039918 0.000289888)
(-9.92796e-06 0.000408432 -0.00218996)
(-0.000987846 -0.000619529 -0.000905923)
(-0.000296076 -0.00099974 -0.000596271)
(4.13814e-05 0.000196122 0.00145252)
(0.000401613 -0.000280924 -0.000984739)
(8.77992e-05 1.77573e-05 -0.00659246)
(-0.000308703 0.00059766 -5.89989e-05)
(0.000297046 0.000611116 0.000284457)
(-0.000727661 0.000922086 0.00014204)
(-0.00084167 0.00031134 0.00026803)
(0.00028301 0.000223466 -0.00417898)
(0.000140092 -5.74399e-05 -0.000465288)
(-0.000565992 0.000656783 0.000281008)
(0.00022827 0.000512306 0.00026174)
(-0.000303134 0.000562781 0.000238233)
(-0.000175146 -0.000360614 -0.00360998)
(-0.00130238 -0.000406048 0.000889553)
(0.00249417 -0.000990165 -0.00178725)
(-0.000255585 -0.000739595 -0.000725019)
(-0.000386418 0.000196708 -0.000851321)
(1.09558e-05 0.000380726 0.000138625)
(-0.000512886 0.000553453 0.000211783)
(0.00019727 0.000436181 0.000387709)
(-0.000810443 0.000100499 0.000263961)
(-0.000172444 0.000353963 -0.00344243)
(-0.000172543 0.000193507 -0.000137271)
(-0.000814778 0.000656426 1.01604e-05)
(0.000207881 -0.000217958 0.000267093)
(-0.00156365 -0.00507815 -0.00171985)
(-0.00215372 0.0211149 -0.000110499)
(-2.20625e-05 2.8213e-05 0.000367163)
(-0.00159203 0.00694024 -6.2835e-05)
(-0.000150187 0.000283739 -0.00225749)
(-2.48209e-05 0.000125966 0.000541338)
(-0.000422757 0.000215763 0.00144486)
(-0.000314818 0.0228988 -0.00135003)
(0.000162649 -0.000335057 0.00185937)
(-0.000526158 0.000156668 -0.000719278)
(-0.004953 -0.00463387 0.000189641)
(5.24396e-05 -0.000186248 0.000402429)
(0.000217653 0.000774119 0.00019495)
(0.000793244 0.000106181 -0.00180034)
(-0.000475713 1.56939e-05 0.000281961)
(0.000424924 -0.00019341 -0.00243984)
(-0.000316303 -0.000123847 0.000414354)
(0.00144254 -0.000611261 0.000282782)
(0.00027143 -0.000343902 -0.000997823)
(0.000346323 -0.00043145 0.000278214)
(0.000229687 0.00050856 5.80538e-05)
(-6.72853e-05 -0.000130968 -0.000153083)
(-0.00078014 0.000925412 -0.00182365)
(-0.000720523 0.000368689 -0.00567746)
(-5.14086e-05 -4.7193e-06 0.000310723)
(-3.77454e-05 0.000242825 0.000218522)
(-0.000567637 9.95142e-05 0.000228364)
(-0.000775547 0.00021639 0.000290502)
(-0.000435006 6.61595e-05 0.000296528)
(-4.25607e-05 0.000236318 -0.00371893)
(-0.000497456 0.000225609 -0.00144195)
(0.000265978 0.000418478 -0.0021964)
(-0.000548669 -0.000668245 -0.000182042)
(-0.000174055 -3.87293e-05 -0.00384029)
(-0.000404187 0.000297035 -0.000999533)
(-0.000406205 -7.90913e-05 -0.000889531)
(-0.000173865 -0.000584444 0.000271969)
(-0.000885455 1.26752e-06 -0.000364229)
(-8.26704e-05 -4.69861e-05 -0.0019792)
(-0.000708675 -0.000203695 0.000198858)
(3.65616e-05 3.68171e-05 -0.00512778)
(-0.00031991 0.000509038 0.00355277)
(-0.000267512 4.89367e-05 -0.000444354)
(-0.000207476 7.99614e-05 -0.00371582)
(2.73767e-05 0.000207682 -0.00195836)
(0.00032512 0.000825642 -0.000863024)
(0.000312801 0.000544212 0.000320831)
(-0.000305483 6.01264e-07 0.00444463)
(-0.000900211 0.000498455 -0.00093248)
(-0.000607946 8.05963e-05 -0.002004)
(0.000191917 0.000484185 -1.48143e-05)
(-9.13222e-05 6.27514e-05 -0.00307832)
(-4.42931e-05 -0.00021973 -0.00112181)
(0.000364608 0.000507723 -0.00200529)
(0.000326007 0.000835352 -0.000843508)
(-0.000484519 0.000270546 1.42817e-05)
(-0.000113582 6.61358e-05 -0.00184416)
(-0.000693509 -0.000141142 -0.00105167)
(0.000344842 0.000207893 0.000249866)
(-0.000812307 0.000472698 0.000375508)
(-0.00016278 -0.000171687 0.00604569)
(0.000550358 -0.000448734 0.000256904)
(0.000255997 0.000541611 -0.0020321)
(-0.000120771 0.000199258 0.000273394)
(0.000336729 0.000575212 0.000285843)
(-0.000133724 0.000144895 0.000307328)
(-6.63496e-05 -3.92845e-05 -0.00319772)
(-0.000414207 4.98939e-05 0.00022613)
(-0.000712347 4.47463e-05 -0.000678081)
(-4.11491e-05 -5.56343e-05 0.00032117)
(-0.000228252 0.00588668 0.000299749)
(0.00340681 0.000392487 -0.0012361)
(0.0019313 0.000875515 -0.000880941)
(-0.000625982 0.000675799 0.000224318)
(0.000325947 -0.000576252 -0.00400096)
(-0.000871125 0.000189524 0.00137432)
(-0.000542328 -0.000103451 0.000254282)
(-0.000231149 -0.000147616 -0.0042187)
(-0.000698407 -0.000188146 0.000157967)
(-0.00011974 0.00068038 0.00026761)
(-0.000668057 -0.000240913 0.00222412)
(-7.70813e-06 0.000327756 0.000257543)
(0.000282956 -0.000170007 0.000277501)
(-0.000577908 0.000450458 0.00317047)
(0.000324063 -0.00021825 0.000277449)
(0.000106878 0.000859845 1.35634e-05)
(-0.000418085 -8.43068e-06 0.000351128)
(0.00214799 0.000778001 -0.00237649)
(0.000111493 -7.37241e-05 0.00513934)
(-0.00054589 0.000658964 0.000203261)
(0.000161643 -0.000178236 -0.00147222)
(-0.000104519 0.000163222 0.000297157)
(0.000800804 -0.000617281 -0.000683641)
(-8.39858e-05 -6.15001e-05 -0.00337817)
(-0.000316407 8.77142e-05 0.000309618)
(-0.000772236 0.00029784 0.000302079)
(0.000577091 -0.000469711 0.000295272)
(0.000280952 0.000430045 0.00573735)
(0.000105166 0.000277705 0.00481873)
(0.000285958 0.000608635 -0.000866616)
(-0.000205886 0.000176211 -3.39427e-05)
(-0.000236261 -0.00036284 -0.00175692)
(1.40122e-05 0.000175177 0.000184278)
(-0.000209093 -0.00275528 -0.00107305)
(-0.000524351 0.00054498 -0.00586157)
(-0.000986359 0.000222398 -0.00552161)
(-8.09187e-06 -7.63474e-05 0.00150534)
(-0.000141914 0.000374844 0.000293161)
(-0.00049227 3.43399e-05 -0.0031899)
(-0.00219271 0.000938844 0.000179483)
(0.00194977 0.000953277 0.00049208)
(-0.000589996 -0.000396011 0.00049042)
(-0.000384476 0.000573182 0.00545761)
(5.29896e-05 0.00042478 0.00272391)
(-0.000524471 0.000175922 0.000704056)
(0.000187252 -0.000377427 -0.00142088)
(-0.00093075 0.000556494 -0.00420782)
(-0.000710333 -0.000269558 0.00033423)
(-0.000513632 0.000151441 0.000270711)
(-0.000157241 -0.000414065 0.000336916)
(0.000290369 -0.000182178 0.000195276)
(-0.000311216 0.000111286 0.000240103)
(0.000400429 -0.000428567 0.000211908)
(-0.00185577 0.00679402 0.000735947)
(-0.000113008 -9.11569e-05 0.00417016)
(-0.000345804 0.000136972 -0.00145852)
(-0.00110426 0.000212309 0.00020562)
(-0.000873655 0.000220779 -0.000698548)
(0.000597587 -0.000340407 0.00029436)
(-0.00047265 -2.50994e-05 0.000283553)
(6.25241e-06 0.000217748 0.00272837)
(0.00043124 -0.000281052 0.000159329)
(-0.000377109 0.0001903 0.000299914)
(-0.000569888 -0.000117751 0.000265387)
(-0.000869881 -0.000285017 0.00268617)
(-0.000342597 0.000196763 -0.00083524)
(0.00198568 -0.003165 -2.01236e-05)
(-0.000529803 -0.000246185 -0.00165296)
(0.000332822 0.000383866 0.000178591)
(-0.00049047 7.58507e-06 0.00199673)
(0.00127545 -0.001709 5.26604e-07)
(0.000320847 -0.000353946 0.000235419)
(0.000131892 0.000614511 -0.00143496)
(-1.57608e-05 0.00071179 0.000367911)
(-0.000972943 0.000209603 0.000236048)
(-0.000775772 0.00030207 0.000284237)
(7.80755e-05 0.000492377 3.72758e-05)
(0.000108405 0.000568403 0.000186677)
(-0.000117542 0.000167421 -0.00137791)
(0.000472517 -0.000441736 0.00249958)
(-0.00059462 -0.000225082 -0.00139473)
(0.000268808 0.00129805 -0.0018563)
(-0.000397273 9.11544e-05 -0.00196558)
(-0.00021771 -0.000521322 0.000256896)
(0.000613954 -0.000411082 -0.0011185)
(0.000312235 0.000205831 0.000291314)
(-0.000594629 0.00059852 0.000707088)
(0.000391535 -0.000419547 0.00020396)
(-0.000675061 -0.000109588 0.000312113)
(-3.36037e-05 -5.87943e-05 -0.00417143)
(0.000930047 0.000853617 0.000161461)
(0.000103022 0.00147149 -0.000252498)
(0.00113632 0.000860599 0.000111212)
(-0.000461813 -2.53999e-05 0.000228932)
(-9.28575e-05 0.000128135 -0.00375632)
(-0.000313722 0.000700012 0.00223174)
(-0.000285151 -3.02508e-06 0.0020447)
(0.000189241 -0.000394249 0.000343612)
(-0.00016438 0.000321004 -0.00117419)
(-0.000612239 3.78006e-05 0.000224563)
(9.47271e-05 -0.000341196 -0.0014869)
(0.000199939 0.000582125 -0.000212009)
(-4.91956e-05 -0.0112985 -0.000761174)
(2.15573e-05 -0.00139094 -0.0019497)
(0.000255615 -0.000143204 0.00020233)
(-0.000492066 -0.000320715 -3.22096e-05)
(-0.000611657 -0.000228906 -0.00119621)
(-0.000317021 -0.00028642 -0.00194167)
(0.000108368 -0.000219865 3.83156e-05)
(-0.00056537 0.000547867 -0.00143756)
(-0.000536358 -0.000404904 -1.79636e-05)
(-0.000605116 -0.000356701 -0.000830472)
(-0.0181603 -0.00205322 -0.000935658)
(0.000347352 -0.000431804 -0.00087699)
(0.00101291 0.00079111 -0.00253066)
(0.000584072 0.000536679 0.000501303)
(-0.000729102 -0.000153937 0.000265887)
(-0.000397985 0.000117755 -0.00120408)
(-0.000549753 0.000210541 0.00024224)
(-6.34181e-07 0.000714242 0.000412498)
(-5.50698e-05 -3.27406e-05 -0.00117425)
(-0.00028349 0.000263953 -0.00104229)
(0.000288011 -0.000183152 -0.000755623)
(-0.000405161 0.000425959 0.00388587)
(-0.000177436 0.0003336 -0.00122806)
(-0.000695155 6.934e-05 0.000546689)
(-0.000240065 -9.05367e-05 0.00111437)
(-4.90025e-05 0.000140912 -0.000260186)
(-0.000166147 0.000218297 -0.000123919)
(0.000105051 -0.000642589 0.000270131)
(-0.000430932 4.25075e-05 6.3609e-05)
(-0.000204415 0.000399274 0.000293033)
(0.000109426 5.08763e-05 -0.00204124)
(0.00067351 8.18424e-05 -0.00182737)
(-1.15921e-05 0.000855719 0.000284524)
(-0.000192128 -8.20243e-05 0.00027259)
(0.000291967 -0.000198419 -0.00151603)
(-0.000133238 4.01245e-05 -0.00278414)
(0.000322724 -0.000198315 0.000276221)
(-0.00045282 3.57537e-05 -0.00144805)
(2.50104e-06 -0.000102365 0.000194814)
(0.000156056 0.000340425 -0.00293262)
(-0.000681577 -0.000252828 0.000264949)
(4.37268e-06 0.000304681 0.00609402)
(-0.00103713 0.000318544 0.000311031)
(-0.000679327 4.83374e-07 0.000272283)
(-0.000792585 0.000488978 0.00253162)
(-0.000340053 0.000327298 -5.28878e-05)
(2.40881e-06 -5.69431e-05 0.00157455)
(0.000554165 -0.000611311 2.42105e-05)
(-0.000975557 6.91811e-05 -0.00145556)
(-4.95715e-06 0.000702247 0.000400993)
(0.000315632 0.000856788 0.000265172)
(-0.00064535 6.9625e-05 0.000557248)
(-0.000243254 -0.000251038 0.00171051)
(-0.000515624 0.000301475 0.000278374)
(-4.85677e-05 0.000552413 -0.000871137)
(-0.000197294 0.000389575 0.00030006)
(-0.00114091 0.000336354 0.000245372)
(-0.000300332 0.000113054 0.00253553)
(0.000334553 -0.000228917 -0.000694176)
(0.000811067 0.000197808 -0.000797241)
(0.000243047 0.000585594 0.000259275)
(0.000244218 -0.000310329 0.000608806)
(-0.000943952 8.44065e-05 0.000361668)
(0.000261326 0.000617849 0.000207612)
(-0.000411637 0.000382116 0.00242545)
(-0.000517343 0.000120839 0.00564219)
(-0.000710646 8.83741e-06 0.000266975)
(-0.000105673 2.90902e-05 -0.000745352)
(-0.00014378 -0.00834583 0.00436902)
(-0.000798769 0.000193427 -0.000993585)
(0.000330515 0.000174329 0.000105458)
(-0.000424212 0.000269504 -0.00648135)
(-2.53583e-05 9.57647e-05 -0.00517903)
(3.90371e-05 -6.72713e-05 0.000187063)
(-7.54941e-05 -0.000152246 0.000300692)
(-0.000287253 -0.00057058 -0.00507596)
(-0.000290573 -0.000327227 -0.00360954)
(-0.000212753 -9.21283e-05 0.000276995)
(-9.36156e-06 -0.000238174 -0.00687702)
(0.000423014 -1.52742e-05 2.38642e-05)
(-3.55147e-05 -6.81718e-05 0.000239129)
(0.000304215 0.000615699 0.000279746)
(0.000674081 -0.000368316 0.00147586)
(-0.000154883 0.000128101 -0.00307577)
(-1.00295e-06 8.9209e-05 -0.000754276)
(9.61125e-05 -0.000657001 0.000220074)
(-0.000336716 7.64102e-05 -0.000453348)
(4.89031e-05 0.00085885 0.00011378)
(-0.000652889 -0.000971217 0.00110845)
(-0.000133381 0.000201875 1.53017e-05)
(-0.000560316 -2.52928e-05 -0.000594161)
(-0.000957406 -0.00657295 -0.00179586)
(-0.00118791 0.000315512 -0.00137123)
(0.000230621 9.6883e-05 0.000451585)
(8.97638e-05 0.000517846 0.00509227)
(-0.00027649 -9.01463e-05 -0.00145048)
(-0.00086605 -0.00054988 0.000671364)
(-0.000425849 0.000173816 0.000303172)
(0.000663985 -0.000806203 0.000258537)
(0.000342084 0.000415351 -0.00370635)
(-2.76281e-05 -0.000123964 0.000368727)
(-0.000457231 -0.000216007 0.00111307)
(0.000314082 -0.00035126 0.000224912)
(-0.000290781 -0.000102762 -0.00117082)
(-0.0001503 0.000395872 0.00141557)
(-0.000255329 0.000117757 0.000391062)
(0.000404597 -0.000415885 0.000525831)
(-0.000597177 0.000608394 0.000275763)
(-0.000364674 0.000208037 0.000269554)
(0.000247879 0.000544182 -0.00154332)
(-0.0018453 0.00149548 -0.00116586)
(0.000347233 0.000188644 0.000257213)
(0.000594404 -0.000319606 0.00181951)
(0.000325132 0.000318225 0.00550712)
(-0.000638573 0.000241616 -5.15929e-06)
(0.0017236 0.00885601 -0.00142124)
(-0.000368248 0.000237757 -0.000651523)
(0.000344893 -0.000258395 -0.00449708)
(-0.00152363 0.000784457 -0.00518482)
(-0.000199805 0.000201259 -0.00599596)
(0.000287303 0.00100557 0.000162917)
(-0.000200476 9.36769e-05 0.000373841)
(-0.000767545 0.000147703 0.00276321)
(-0.00414307 0.00573689 -0.00537145)
(-0.000561639 -0.000264938 0.00343723)
(-0.000514827 -6.41392e-05 -0.00375609)
(-0.000785173 4.69812e-05 0.00023235)
(-0.00858744 0.00360488 0.0011761)
(-0.000566642 0.000507959 -7.99328e-05)
(-0.000563033 0.000189485 -0.00118588)
(-0.00058935 8.55054e-05 -0.000898723)
(0.000166534 0.00044834 -0.00034619)
(-0.000677306 9.87829e-05 0.000405915)
(-0.0014246 -0.00205921 -0.000808681)
(0.000238349 0.000557112 0.000264461)
(0.0002615 0.00117661 0.00121935)
(-0.000167627 0.000311476 -0.00111087)
(3.22496e-05 -3.24633e-05 -0.00208575)
(0.000718751 0.000659957 0.00042486)
(9.55208e-06 -2.7583e-05 0.000404673)
(0.000433801 -0.000628348 0.00156878)
(-0.000473233 -0.000197186 -0.00120087)
(0.000224663 0.000240267 -0.000397137)
(-4.91315e-05 5.27505e-05 0.0039937)
(0.000266973 -0.00040296 0.000234058)
(-0.000493457 1.55791e-05 -0.0014928)
(0.000333563 -0.00023246 0.000169264)
(0.000346508 -0.000435538 -0.00271815)
(0.000391281 0.000328838 -0.00190968)
(-0.000769499 0.000145118 -0.00278299)
(-1.29405e-05 -0.000159814 -0.000754709)
(-0.000333555 0.000133354 -0.00014857)
(-0.000490485 3.19717e-05 -0.000622999)
(-0.0011556 -0.000512967 -0.00127857)
(0.000175111 -0.000332557 -0.00642806)
(-0.000318985 0.00025045 0.00573337)
(-8.30953e-05 -0.000301267 0.000463602)
(0.000130261 0.00057587 0.00135217)
(0.000320635 0.000230079 0.000280638)
(-0.000458102 0.000493327 0.000410472)
(-9.57123e-05 0.00027594 0.000182855)
(0.0017314 -0.0026489 0.000265749)
(0.000157379 -0.000151784 -0.000858387)
(-0.000395791 0.000204068 0.000266478)
(-0.000431108 -0.000382297 -0.000920364)
(-0.000741766 7.95206e-05 -0.00039841)
(-5.22858e-05 0.000780315 -0.0009534)
(-0.000307598 0.000301155 -0.000850995)
(5.33578e-05 0.000420869 -0.00109233)
(-0.00042953 -7.95789e-05 -0.000109106)
(0.000347793 -0.000451336 0.0014479)
(-0.000353962 -1.96832e-05 -0.00136846)
(-0.000107859 0.000121997 -0.00221337)
(-0.000381321 0.000203515 0.00029709)
(-0.000191052 0.000154848 0.000213627)
(4.67471e-05 -6.0245e-05 0.00112061)
(0.000703213 0.000746306 0.00511183)
(3.53083e-05 7.81277e-05 -0.000465744)
(0.000156533 -0.000338586 -0.00149032)
(0.000245794 0.00052195 0.000312587)
(-0.000243389 -8.1147e-05 0.000226366)
(-0.000413249 0.000168541 0.000317612)
(-8.68306e-06 0.000329152 0.000336235)
(0.00151034 -0.00141256 -0.00091801)
(-0.000137682 -0.000269404 0.000267441)
(0.000573394 -0.000105381 -0.00074061)
(6.01978e-05 0.00105389 0.00028226)
(-0.000376047 1.02669e-05 0.000136276)
(-0.00059671 9.3932e-05 0.000299771)
(-0.00032175 0.000335114 0.0021437)
(-0.000435212 0.000137658 -0.00151743)
(-0.00076204 -8.85384e-06 -0.000868885)
(0.00039483 -0.000281404 0.000394021)
(-0.000234024 0.0002713 0.000419012)
(-0.000743604 -0.000200676 0.000294938)
(-0.000152436 -0.000129831 0.000461254)
(-4.44653e-05 0.000921089 0.0024028)
(-3.34613e-05 -0.000748689 0.00168084)
(-0.000148587 0.000191592 0.00192737)
(-0.000388033 0.000199219 0.000290363)
(0.000806411 0.000740893 -0.00081286)
(0.000294799 0.000156402 -0.00535701)
(0.000220575 -0.000408716 0.000251077)
(0.000187246 0.00020853 0.00396877)
(-0.00065082 0.000273201 -0.0019242)
(0.000157257 0.000272353 0.000250285)
(-0.000561514 0.000183635 0.000284021)
(-1.69396e-05 0.000991319 -0.00111061)
(0.0041919 0.00318597 -0.00121263)
(-0.000153433 -0.000184815 -0.00115758)
(-0.000840978 -0.000267799 0.00171839)
(-0.000580251 0.000586595 0.00027862)
(-5.55464e-05 -0.000142733 0.000224099)
(-8.55599e-05 -0.000666738 0.000229722)
(-0.000162529 0.00110116 0.000815356)
(-8.89214e-06 0.000350059 -0.000253353)
(0.000575395 0.000351794 -0.00343146)
(-4.76153e-05 0.000342163 0.00350069)
(0.000237379 -0.000262883 0.000249554)
(0.000377256 -0.000471147 -0.000493815)
(-0.000702015 -0.000212259 -0.00119769)
(-0.00054949 5.05003e-05 -0.00158539)
(2.02902e-05 0.000176109 0.000400217)
(-0.000807136 0.00116626 4.027e-06)
(-0.000247745 0.000429401 0.00765179)
(0.000286903 0.00050075 0.000280376)
(0.000201978 0.000517041 0.000411807)
(0.000114934 0.000950972 -0.0014674)
(-0.00023247 0.0002821 0.00103857)
(0.000265623 0.000522011 0.000223735)
(-0.000567055 0.000550065 1.81284e-05)
(-0.000133153 -0.000241415 -0.00567693)
(8.00973e-05 0.000502482 0.0023175)
(-5.56011e-05 0.000272822 -0.00364073)
(-0.000264229 0.000100292 0.000278529)
(-0.00016123 -0.000638777 -0.00116689)
(0.000385339 -0.000488536 0.000204243)
(0.000295339 0.000590898 0.000539402)
(0.000364497 -0.000387865 0.000254866)
(-8.58079e-05 -0.000680765 -0.00281881)
(0.000250342 0.000634556 -0.00265312)
(-0.000668923 -0.000230871 0.000390922)
(2.16789e-06 0.000201882 0.00036471)
(-0.00116431 0.000661118 -0.000404523)
(0.00177619 -0.00273335 -0.00012089)
(0.000368169 -0.000399346 0.000298104)
(-0.00104436 3.65563e-05 0.00028324)
(-0.00010765 0.000719048 0.000276377)
(-0.00211489 0.00442394 0.00101887)
(0.000403181 -0.000338357 0.000199651)
(0.00014635 0.000457873 0.000279412)
(0.000944433 0.00138485 -0.0012627)
(-5.43487e-05 -6.9513e-05 -0.000850956)
(0.000370292 -0.000482947 -0.00224823)
(3.51569e-05 -6.05877e-06 0.00621063)
(0.000411431 -9.75471e-05 -0.00485969)
(-0.000857031 9.32781e-05 0.000307286)
(-0.000464467 0.000631387 0.000129386)
(-0.000727328 -8.00321e-05 0.000337749)
(-0.000784291 -0.000279454 -0.00319519)
(-0.000407963 -8.82948e-05 9.30218e-05)
(-1.23276e-05 0.000499115 0.00114169)
(0.000373791 -0.00014449 0.00129588)
(0.000357138 -0.000415004 0.00536136)
(-0.000176438 -0.000620648 0.000195257)
(0.000232242 0.000112559 0.000375481)
(0.00106587 -0.000528361 9.62186e-05)
(0.000372245 -0.000604611 -0.00228888)
(-0.000613955 -9.74783e-05 0.000303772)
(0.000504531 0.00279733 -0.00116532)
(-0.000450775 0.000430835 0.00026149)
(0.000338916 0.000222424 0.000247486)
(0.000322872 -0.000176253 -0.000833861)
(-0.000410483 0.000260401 -0.00450883)
(-0.000251451 0.000423282 -0.00418511)
(1.25323e-05 0.00019157 0.000286069)
(0.0003239 0.00031186 -0.0014104)
(-6.79841e-05 6.15503e-05 -0.00504262)
(-0.000694068 0.000703676 0.000374943)
(-0.000449108 0.000428765 0.00024356)
(-0.000228723 -0.000120589 0.000504956)
(-0.000157216 -0.000416145 -0.00247706)
(0.000483929 -0.000407248 0.000101585)
(0.000381594 4.09072e-05 0.00241006)
(-0.000528747 0.000158788 -0.00356954)
(0.002351 -0.00356288 -0.00118881)
(-0.000314424 0.000172702 -0.00557041)
(-9.88122e-05 0.00016358 0.000279092)
(-0.000114809 0.000576192 -0.000150313)
(-0.00070989 -0.0001803 0.000284901)
(-0.000611162 -0.000471914 -0.000808008)
(-0.000508905 0.000484475 -0.00664762)
(-0.000404844 0.000127626 -0.0015591)
(-0.000201097 -7.43843e-05 -0.000875602)
(0.000358496 0.000512083 -0.00408882)
(0.000812821 -0.000736668 0.000302066)
(3.94181e-05 -0.000247095 0.0053307)
(-0.000243184 0.000543244 0.000321339)
(0.000335791 -0.000231609 0.000380818)
(0.000263851 -0.000736035 0.000317616)
(0.000149505 -8.13088e-05 -0.00145259)
(-0.00126482 0.000335031 -0.00229636)
(-0.000818934 0.000261978 0.000965971)
(-0.000287772 -9.56621e-05 0.000244642)
(3.23517e-05 -0.000237433 0.00226135)
(-0.00054631 5.0309e-05 0.000273713)
(-0.000400576 3.47645e-05 0.00187316)
(0.000332839 -0.000228297 0.000279978)
(-0.00010623 -0.000469058 0.000890281)
(-0.000589331 0.000787647 0.000308619)
(0.000159468 -0.000173521 0.000389539)
(-8.32264e-05 0.000376611 -0.000835155)
(0.000194339 -0.000409803 0.000306784)
(2.48697e-05 -0.000973076 0.00166578)
(-0.000570723 -0.000104149 -0.00606925)
(0.000170316 -0.00033059 -0.00713273)
(0.00025057 -6.65163e-05 -0.00188163)
(0.000543851 -0.000444429 0.000263713)
(-0.00051811 1.62434e-05 0.000212753)
(0.000150865 -0.000377246 0.000626212)
(0.000718941 -0.000693468 0.00028565)
(-0.00118353 -0.000232067 0.00240013)
(-0.000574348 0.000467684 -0.00554839)
(-0.00117218 0.000248361 -0.000393153)
(-0.000391069 0.000190859 0.000205147)
(0.000209879 -0.000132237 0.000365312)
(-8.30039e-05 0.000376756 0.00419378)
(-0.000244113 -0.000207739 -0.00120891)
(0.000395848 -0.000425112 0.000209259)
(-0.000657888 -0.000194914 0.00475633)
(0.000368318 -0.000397463 0.000293722)
(-0.000459207 1.59017e-05 0.00267203)
(-0.000334788 3.2442e-05 -0.000220572)
(-5.64046e-05 0.000612864 0.000256467)
(-0.000625693 9.92575e-05 -0.000599449)
(0.00163327 -0.000126369 -0.00106203)
(-0.000835996 -0.00028593 -0.00337272)
(1.86612e-05 0.000178683 0.000264265)
(-0.00100679 7.07807e-05 0.000336944)
(-0.000596253 -0.000114744 0.000251595)
(-8.60161e-06 0.000387491 1.88418e-06)
(-9.88099e-05 -0.00135124 -0.000541184)
(0.00236594 0.000275868 0.00160939)
(-0.000677979 0.000248839 0.000376882)
(-7.99251e-05 5.40648e-05 0.00339688)
(-0.000232192 2.83797e-05 -0.00433415)
(-0.000673147 0.000256788 -0.00147734)
(-3.84314e-05 0.000294553 0.000389941)
(6.15672e-05 0.000532916 0.000248245)
(0.000116496 0.000610801 6.01485e-05)
(-0.000737051 0.000476654 -0.000644916)
(-0.000819016 6.88396e-05 -0.00017101)
(-7.34282e-05 -0.000163822 -4.1466e-05)
(-0.000290501 7.34965e-05 -0.0048844)
(-0.000624084 0.000599954 0.00144175)
(-0.000478426 5.18671e-05 -0.00155772)
(-7.75689e-05 0.00069119 0.000245262)
(0.000141472 -0.000382053 -0.0050283)
(0.000359409 -0.000223445 -0.00573643)
(-0.00249375 0.000333909 -0.00355012)
(-4.19965e-05 0.00016015 -0.00134667)
(-0.000546429 5.78404e-05 0.000410242)
(-0.000391145 0.00771816 -0.000286033)
(0.000215044 -0.000452625 -0.000853622)
(-0.000656487 5.00739e-05 0.00027846)
(-0.00107271 0.000320467 0.000324081)
(-0.000627434 -0.000643981 -0.00315294)
(-0.000348034 -0.000103161 -0.00281154)
(-0.000173107 0.000284607 0.00203534)
(-1.00521e-05 0.000417615 0.000238917)
(-1.5803e-05 8.08264e-05 -0.00373968)
(-5.8068e-05 -0.000107682 0.00567618)
(-0.000493886 0.000306008 0.000285624)
(-0.000493344 0.00049471 0.000220929)
(-0.000427468 -0.000347331 0.000260297)
(0.000808444 0.00075655 0.000257307)
(8.34624e-05 1.3075e-05 -0.00212104)
(-0.000193618 -0.00245296 -0.000944317)
(-0.000396571 4.56403e-05 -0.00116211)
(-3.78642e-05 -4.2167e-05 0.000518715)
(-0.000563904 -0.000364002 -0.0012599)
(0.000276733 0.000472279 0.000551777)
(-0.000116453 0.000712535 0.000237955)
(0.000287782 0.000681652 0.000270519)
(1.43529e-06 0.000173987 0.000257148)
(-0.000771406 5.11213e-05 0.000428502)
(-0.000248862 -0.000328423 0.00037135)
(0.00032419 -0.00021753 0.000280273)
(-0.0013214 0.000271969 0.00712408)
(-0.000746305 0.000411371 0.000279819)
(0.000206725 0.000699869 0.000223033)
(-0.00175917 0.00244445 -0.00183144)
(-0.000549365 5.63981e-05 0.000242419)
(-0.000322592 0.000839678 -0.00122296)
(-0.000879672 7.47672e-05 0.000175562)
(-0.000206025 0.000338194 0.000267416)
(2.04675e-05 0.000234941 -0.00330445)
(-0.000285425 0.0220589 0.000332634)
(0.000367109 -0.0005665 0.00154509)
(0.000223166 0.00065418 -0.00147288)
(-0.000514858 -1.71745e-06 0.000216397)
(-0.000418195 -0.000359413 0.00029696)
(-0.000591791 0.000598343 0.000295885)
(0.000338972 -0.000429449 0.000257064)
(-0.000497121 -8.57348e-05 0.000353296)
(0.000197027 0.000431857 0.000105649)
(-0.000318382 3.42996e-05 -0.000386428)
(-0.000820415 0.000303422 0.000227223)
(0.000247398 0.000560276 3.68062e-05)
(-0.000515549 -0.000295554 0.000273796)
(0.000347951 -6.88187e-05 -3.13324e-05)
(0.000348972 -0.00024641 7.55669e-06)
(-0.000615366 -0.000236584 -0.000988614)
(-0.00103444 0.000217939 0.00111976)
(-0.000644689 0.000607274 0.0035359)
(-0.000165746 -0.000574887 0.000499139)
(-0.000311329 0.000939627 -0.00378712)
(-8.08758e-05 -8.58811e-05 -0.000909844)
(-0.00032485 0.000396732 0.00283567)
(0.000286174 -0.000373791 0.000260976)
(-0.00258781 0.0166871 -0.000514495)
(0.000323615 0.000727494 0.00015488)