/*--------------------------------*- C++ -*----------------------------------*\
| =========                 |                                                 |
| \\      /  F ield         | OpenFOAM: The Open Source CFD Toolbox           |
|  \\    /   O peration     | Version:  plus.master.MPPICInterFoam            |
|   \\  /    A nd           | Web:      www.OpenFOAM.com                      |
|    \\/     M anipulation  |                                                 |
\*---------------------------------------------------------------------------*/
FoamFile
{
    version     2.0;
    format      ascii;
    class       volScalarField;
    location    "7.8";
    object      p_rgh;
}
// * * * * * * * * * * * * * * * * * * * * * * * * * * * * * * * * * * * * * //

dimensions      [1 -1 -2 0 0 0 0];

internalField   nonuniform List<scalar> 
11822
(
5666.08
5130.31
4842.84
4919.49
5280.39
5672.8
5738.76
4740.28
3065.21
2786.32
2873.48
3398.97
5007.16
5739.03
3742.43
2700.24
2683.7
2667.23
2656.36
4192.18
5723.92
3609.9
2708.33
3953.24
3952.08
2645.83
3997.33
5693.61
4039.58
2708.8
2710.92
2713.99
2710.18
4438.33
5739.17
5310.44
3958.85
3543.45
3544.11
4218.1
5394.81
5738.77
5739.26
5657.17
5540.93
5542.98
5694.84
5738.82
5738.65
5701.66
5352.53
5134.48
5179.51
5379.14
5689.1
5744.69
5157.92
3677.73
3749.95
4024.69
4042.21
5170.11
5745.22
4543.27
2854.74
2791.42
2834.04
2946.14
4691.92
5742.65
4465.01
3023.97
3926.43
3924.27
2592.59
4426.98
5708.27
4767.56
3028.56
2875.62
2937.38
3140.52
4767.99
5745.4
5535.67
4704.36
4279.94
4269.47
4754.52
5496.6
5744.8
5745.35
5725.16
5661.2
5650.95
5733.36
5744.95
5744.41
5728.3
5462.79
5203.28
5178.22
5382.73
5708.82
5747.73
5421.65
4321.59
4625.79
4691.2
4341.84
5209.6
5748
5064.83
3316.6
4126.59
3833.77
3130.25
4892.63
5748.21
4911.17
3122.99
3413.99
3377.85
2528.84
4638.14
5714.07
5199.44
3715.11
3105.89
2985.63
3701.52
4823.24
5748.31
5669.45
5085.55
4744.72
4720
4914.22
5575.12
5748.08
5748.21
5748.18
5729.25
5709.3
5748.44
5748.21
5747.79
5729.05
5419.1
5031.51
4921.32
5294.67
5710.68
5749.51
5381.86
4158.08
3928.91
3880.85
4046.21
5091.71
5749.37
4935.62
3118.27
3958.7
3388.54
2769.06
4639.34
5749.34
4762.66
2738.52
2465
2461.97
2462.1
4407.04
5710.58
5153.8
3668.84
2871.42
2621.73
3567.07
4647.01
5749.78
5674.43
4995.24
4566.39
4567.74
4756.1
5574.98
5749.86
5749.79
5749.88
5732.65
5712.29
5750.06
5749.97
5749.95
5726
5311.34
4684.58
4540.1
5184.46
5709.6
5752.11
5250.85
3467.16
2595.37
2527.62
3265.1
4950.29
5752.15
4464.76
2497.83
2490.87
2406.76
2404.67
4085.85
5741.52
4345.76
2409.58
2406.52
2405.11
2405.28
3897.62
5701.13
5023.58
3188.45
2424.91
2406.71
2944.55
4478.62
5752.19
5670.7
4801.92
4061.85
4200.52
4558.93
5565.42
5752.14
5752.05
5752.23
5728.87
5714.46
5752.39
5752.22
5752.13
5738.33
5336.63
4718.99
4600.11
5255.4
5729.91
5760.57
5268.56
3248.08
2380.17
2398.48
3158.56
5056.62
5761.15
4388.53
2370.75
2375.73
2543.22
2369.53
4155.14
5754.45
4342.63
2369.88
2970.79
2362.65
2486.31
4004.95
5718.21
5063.87
2978.91
2375.7
2498.93
2784.29
4645.12
5761.09
5698.24
4865.69
4052.78
4294.95
4694.66
5613.24
5760.4
5760.14
5760.79
5745.98
5740.93
5761.17
5760.42
5759.94
5738.57
5738.54
5738.52
5738.37
5737.77
5735.04
5737.67
5737.54
5738.59
5738.48
5738.46
5738.48
5738.54
5738.63
5738.75
5738.88
5738.64
5738.49
5738.46
5738.47
5738.53
5738.62
5738.74
5738.87
5738.51
5738.44
5738.43
5738.46
5738.51
5738.6
5738.73
5738.86
5738.63
5738.51
5738.47
5738.49
5738.54
5738.62
5738.74
5738.86
5738.53
5738.48
5738.48
5738.51
5738.56
5738.64
5738.75
5738.86
5738.55
5738.55
5738.56
5738.57
5738.61
5738.68
5738.76
5738.87
5744.18
5743.82
5743.52
5743.11
5742.29
5740.5
5742.14
5742.73
5744.39
5743.88
5743.52
5743.28
5743.14
5743.07
5743.08
5743.14
5744.58
5744
5743.59
5743.31
5743.13
5743.04
5743.05
5743.1
5744.47
5743.95
5743.56
5743.29
5743.11
5743.02
5743.02
5743.07
5744.46
5743.93
5743.54
5743.27
5743.09
5743.01
5743.01
5743.06
5744.18
5743.76
5743.45
5743.22
5743.07
5743.01
5743.01
5743.06
5743.96
5743.67
5743.42
5743.22
5743.09
5743.04
5743.03
5743.08
5747.38
5747.15
5746.94
5746.6
5745.82
5745.11
5745.4
5746.54
5747.63
5747.32
5747.05
5746.83
5746.67
5746.57
5746.55
5746.58
5747.84
5747.44
5747.11
5746.84
5746.65
5746.53
5746.51
5746.54
5747.9
5747.47
5747.11
5746.83
5746.63
5746.51
5746.49
5746.53
5747.87
5747.43
5747.08
5746.81
5746.62
5746.51
5746.49
5746.52
5747.65
5747.29
5746.99
5746.76
5746.61
5746.52
5746.5
5746.54
5747.42
5747.15
5746.92
5746.73
5746.61
5746.51
5746.52
5746.56
5749.56
5749.61
5749.59
5749.44
5748.9
5748.37
5747.66
5749.42
5749.66
5749.72
5749.7
5749.61
5749.52
5749.45
5749.42
5749.43
5749.72
5749.73
5749.67
5749.58
5749.48
5749.41
5749.39
5749.41
5749.83
5749.78
5749.69
5749.58
5749.48
5749.41
5749.39
5749.41
5749.87
5749.81
5749.72
5749.61
5749.51
5749.44
5749.41
5749.43
5749.9
5749.84
5749.75
5749.64
5749.55
5749.48
5749.45
5749.46
5749.93
5749.86
5749.77
5749.68
5749.6
5749.4
5749.5
5749.51
5751.87
5751.74
5751.54
5751.32
5751.04
5749.95
5749.11
5751.48
5752.05
5751.93
5751.74
5751.52
5751.34
5751.29
5751.43
5751.56
5752.13
5751.99
5751.79
5751.57
5751.39
5751.33
5751.47
5751.6
5752.15
5752
5751.8
5751.59
5751.4
5751.34
5751.48
5751.6
5752.1
5751.95
5751.75
5751.53
5751.35
5751.29
5751.44
5751.57
5752.03
5751.86
5751.65
5751.43
5751.25
5751.2
5751.36
5751.48
5751.94
5751.74
5751.52
5751.3
5751.15
5750.97
5751.29
5751.44
5759.94
5759.44
5758.83
5758.37
5757.99
5755.08
5754.8
5757.47
5760.14
5759.42
5758.79
5758.26
5757.85
5757.57
5757.44
5757.39
5760.33
5759.56
5758.89
5758.33
5757.91
5757.63
5757.52
5757.51
5760.32
5759.56
5758.9
5758.35
5757.94
5757.69
5757.61
5757.64
5760.09
5759.41
5758.81
5758.31
5757.95
5757.75
5757.72
5757.77
5759.74
5759.18
5758.66
5758.23
5757.94
5757.79
5757.8
5757.86
5759.52
5759.14
5758.72
5758.37
5758.15
5757.92
5758.07
5758.15
5738.78
5738.74
5738.7
5738.66
5738.67
5738.72
5738.82
5738.92
5739.1
5738.75
5738.62
5738.51
5738.56
5738.68
5738.8
5738.93
5676.53
5739.07
5738.75
5737.83
5738.19
5738.67
5738.81
5738.97
5532.78
5738.97
5738.67
5738.45
5738.51
5738.62
5738.77
5738.95
5598.76
5739.1
5738.72
5738.54
5737.95
5738.53
5738.77
5738.94
5739.43
5738.83
5738.63
5738.55
5738.4
5738.61
5738.75
5738.9
5738.83
5738.71
5738.64
5738.57
5738.53
5738.39
5738.76
5738.87
5744.59
5744.22
5743.87
5743.58
5743.38
5743.28
5743.27
5743.31
5745.05
5744.38
5743.9
5743.49
5743.35
5743.28
5743.28
5743.33
5730.54
5744.89
5744.22
5742.97
5743.28
5743.35
5743.33
5743.4
5679.55
5744.91
5744.24
5743.66
5743.47
5743.35
5743.33
5743.4
5702.58
5745.04
5744.29
5743.47
5742.88
5743.27
5743.33
5743.4
5745.56
5744.6
5744.03
5743.65
5743.22
5743.29
5743.29
5743.35
5744.81
5744.37
5743.96
5743.62
5743.37
5743.04
5743.28
5743.32
5747.83
5747.56
5747.29
5747.07
5746.91
5746.81
5746.77
5746.79
5748.09
5747.76
5747.39
5747.05
5746.92
5746.82
5746.78
5746.79
5748.07
5748.04
5747.48
5746.44
5746.93
5746.87
5746.81
5746.83
5746.06
5748.03
5747.62
5747.17
5747.01
5746.86
5746.8
5746.82
5747.27
5747.97
5747.57
5746.62
5746.37
5746.81
5746.79
5746.81
5748.03
5747.71
5747.39
5746.99
5746.75
5746.8
5746.76
5746.77
5747.77
5747.52
5747.27
5747.05
5746.86
5746.56
5746.75
5746.76
5749.92
5749.89
5749.83
5749.77
5749.7
5749.63
5749.59
5749.58
5749.77
5749.85
5749.78
5749.66
5749.64
5749.57
5749.53
5749.52
5749.65
5749.82
5749.33
5748.87
5749.59
5749.54
5749.5
5749.5
5749.37
5749.69
5749.68
5749.59
5749.56
5749.49
5749.46
5749.47
5749.01
5749.5
5749.58
5748.94
5749.05
5749.45
5749.43
5749.44
5749.14
5749.51
5749.59
5748.98
5749.37
5749.45
5749.42
5749.43
5749.36
5749.48
5749.52
5749.53
5749.31
5749.34
5749.41
5749.46
5751.94
5751.81
5751.64
5751.46
5751.32
5751.3
5751.45
5751.57
5751.94
5751.88
5751.7
5751.53
5751.42
5751.36
5751.49
5751.59
5752
5751.97
5751.3
5751.11
5751.49
5751.42
5751.53
5751.63
5751.98
5751.96
5751.83
5751.66
5751.49
5751.41
5751.52
5751.63
5751.8
5751.85
5751.71
5750.95
5751.24
5751.36
5751.47
5751.59
5751.69
5751.76
5751.65
5750.86
5751.26
5751.29
5751.42
5751.54
5751.63
5751.58
5751.48
5751.34
5750.79
5751.18
5751.29
5751.51
5759.61
5759.21
5758.71
5758.24
5757.86
5757.56
5757.36
5757.24
5759.9
5759.27
5758.66
5758.15
5757.69
5757.3
5757
5756.83
5760.58
5759.64
5758.39
5758.17
5757.69
5757.17
5756.78
5756.57
5761.03
5759.83
5758.99
5758.27
5757.62
5757.04
5756.59
5756.36
5761.09
5759.84
5758.94
5757.59
5757.5
5756.97
5756.52
5756.28
5760.51
5759.55
5758.74
5757.67
5757.41
5756.91
5756.5
5756.29
5759.93
5759.37
5758.74
5758.11
5757.14
5757.03
5756.67
5756.55
5738.89
5738.76
5738.65
5738.5
5738.55
5730.3
5732.6
5738.8
5739.2
5738.72
5738.53
5738.46
5735.23
5735.32
5723.63
5737.16
5739.38
5738.76
5738.53
5738.46
5738.15
5738.36
5738.48
5738.31
5739.31
5738.77
5738.55
5738.41
5738.49
5737.09
5738.04
5731.38
5739
5738.64
5738.5
5737.34
5737.98
5737.75
5729.09
5736.74
5738.59
5738.49
5738.46
5737.01
5736.53
5724.16
5732.33
5716.7
5738.53
5738.54
5738.54
5738.55
5735.09
5724.13
5737.22
5716.4
5744.87
5744.38
5743.93
5743.46
5743.35
5734.74
5738.39
5743.2
5745.31
5744.43
5743.87
5743.32
5740.18
5739.89
5727.88
5741.97
5745.57
5744.6
5743.99
5743.58
5743.03
5742.98
5743
5742.88
5745.53
5744.62
5744.03
5743.57
5743.36
5741.85
5742.6
5735.67
5745.14
5744.39
5743.88
5743.23
5742.97
5740.73
5736.7
5739.32
5744.5
5744.02
5743.65
5741.69
5741.68
5728.33
5741.63
5717.63
5744.14
5743.85
5743.58
5743.36
5739.46
5728.36
5742.23
5727.15
5747.85
5747.57
5747.28
5746.93
5746.81
5738.07
5743.52
5746.56
5748.13
5747.71
5747.35
5746.49
5745.06
5742.72
5731.08
5746.24
5748.26
5747.88
5747.48
5747.1
5746.69
5746.44
5741.51
5746.47
5748.22
5747.92
5747.52
5747.18
5746.89
5746.1
5746.07
5741.26
5748.16
5747.76
5747.41
5746.91
5746.55
5742.85
5744.71
5726.86
5747.71
5747.45
5747.2
5745.25
5745.87
5731.61
5743.39
5720.6
5747.45
5747.25
5747.04
5746.87
5743.25
5734.31
5743.42
5742.05
5749.47
5749.56
5749.57
5749.52
5749.28
5740.62
5747.77
5749.27
5749.44
5749.63
5749.68
5748.97
5749.12
5742.79
5733.48
5749.27
5749.41
5749.67
5749.72
5749.6
5749.46
5748.7
5734.2
5749.28
5749.5
5749.73
5749.76
5749.71
5749.54
5749.23
5748.63
5747.79
5749.63
5749.79
5749.8
5749.45
5749.24
5746.16
5748.33
5722.92
5749.65
5749.76
5749.77
5748.85
5748.78
5735.81
5730.25
5722.89
5749.7
5749.74
5749.69
5749.65
5747.19
5740.14
5725.94
5746.52
5751.71
5751.65
5751.52
5751.38
5750.54
5742.22
5750.88
5751.44
5751.95
5751.94
5751.82
5750.95
5751.21
5742.58
5742.7
5737.68
5752.17
5752.11
5751.98
5751.71
5751.59
5747.46
5741.4
5739.08
5752.33
5752.21
5752.06
5751.87
5751.59
5751.13
5750.7
5750.81
5752.31
5752.2
5752.04
5751.44
5751.23
5750.25
5750.38
5724.67
5752.14
5752.04
5751.89
5751.67
5750.72
5739.03
5724.47
5724.57
5751.98
5751.86
5751.67
5751.49
5750.66
5740.48
5724.49
5748.78
5759.99
5759.41
5758.78
5758.17
5756.17
5750.39
5756.21
5756.51
5760.77
5759.81
5759.01
5758.04
5757.62
5748.17
5750.71
5736.85
5761.51
5760.26
5759.35
5758.51
5757.85
5749.04
5748.23
5736.92
5761.55
5760.33
5759.45
5758.66
5757.82
5755.9
5755.89
5752.4
5761.11
5760.14
5759.34
5758.23
5757.69
5756.22
5755.69
5729.28
5760.43
5759.73
5759.06
5758.49
5757.53
5747.32
5729.78
5731.69
5760
5759.54
5758.98
5758.47
5758.05
5747.06
5730.13
5755.46
5738.51
5738.54
5738.35
5738.57
5738.62
5735.82
5738.41
5738.88
5738.55
5738.52
5737.03
5737.69
5738.6
5726.07
5737.02
5738.89
5738.74
5738.58
5738.1
5732.35
5737.36
5726.05
5734.94
5738.9
5738.78
5738.58
5738.4
5732.35
5737.44
5726.03
5734.82
5738.9
5738.81
5738.58
5738.48
5732.36
5737.6
5738.59
5738.42
5738.89
5738.96
5738.68
5738.56
5738.26
5738.44
5738.44
5738.74
5738.89
5738.86
5738.75
5738.67
5738.62
5738.63
5738.7
5738.8
5738.9
5743.93
5743.67
5743.21
5743.24
5743.09
5739.25
5742.84
5743.1
5744.28
5743.86
5740.93
5742.86
5743.11
5730.23
5741.97
5743.13
5744.74
5744.15
5741.88
5738.59
5742.27
5730.26
5740.36
5743.16
5744.98
5744.3
5742.87
5737.19
5742.4
5730.27
5739.95
5743.18
5745.02
5744.31
5743.51
5737.21
5742.74
5742.24
5742.76
5743.2
5744.96
5744.25
5743.77
5743.2
5742.93
5743
5743.17
5743.23
5744.67
5744.21
5743.81
5743.51
5743.32
5743.23
5743.23
5743.27
5747.4
5747.15
5746.76
5746.74
5745.92
5742.91
5746.49
5746.57
5747.73
5747.35
5744.44
5746.63
5744.27
5733.66
5746.21
5746.61
5748.13
5747.61
5744.61
5746.11
5745.72
5733.56
5745.13
5746.64
5748.3
5747.78
5744.88
5743.77
5746.09
5733.58
5744.56
5746.68
5748.29
5747.79
5745.89
5744.67
5745.27
5738.22
5746.31
5746.7
5748.17
5747.71
5747.32
5746.86
5746.45
5746.67
5746.7
5746.73
5747.78
5747.49
5747.22
5747.01
5746.86
5746.77
5746.74
5746.75
5749.93
5749.84
5749.72
5749.62
5744.73
5746.49
5749.52
5749.52
5750
5749.86
5748.18
5749.47
5736.33
5739.7
5749.48
5749.53
5750.12
5749.87
5747.18
5749.54
5744.87
5736.21
5748.98
5749.54
5750.15
5750
5747.22
5749.61
5749.17
5736.25
5748.45
5749.56
5750.12
5750.04
5747.93
5749.66
5745.06
5738.82
5749.32
5749.57
5750.04
5750.01
5749.91
5749.72
5749.34
5749.56
5749.57
5749.58
5749.83
5749.83
5749.81
5749.76
5749.69
5749.63
5749.59
5749.57
5751.96
5751.72
5751.54
5751.29
5740.78
5748.92
5751.33
5751.46
5752.1
5751.82
5751.52
5751.04
5736.52
5745.36
5751.45
5751.57
5752.25
5751.95
5749.21
5751.43
5737.09
5739.62
5751.46
5751.69
5752.32
5752.09
5749.96
5751.72
5750.69
5739.13
5751.23
5751.75
5752.3
5752.12
5750.87
5751.58
5744.88
5744.63
5751.53
5751.74
5752.14
5752.02
5751.79
5751.59
5751.18
5751.29
5751.53
5751.65
5751.88
5751.76
5751.61
5751.44
5751.31
5751.29
5751.44
5751.57
5759.56
5759.14
5758.77
5758.42
5748.43
5755.94
5758.14
5758.2
5759.76
5759.15
5758.73
5756.93
5743
5751.41
5757.97
5758.03
5760.12
5759.34
5758.46
5758.12
5743.06
5746.78
5757.95
5757.99
5760.29
5759.48
5758.86
5758.49
5747.53
5747.79
5757.84
5757.86
5760.19
5759.45
5758.86
5758.42
5751.12
5755
5757.73
5757.71
5759.87
5759.24
5758.65
5758.19
5757.63
5757.45
5757.54
5757.5
5759.62
5759.18
5758.7
5758.26
5757.92
5757.68
5757.53
5757.45
5704.6
5704.54
5704.53
5704.58
5704.64
5704.69
5704.74
5704.79
5704.66
5704.59
5704.59
5704.64
5704.7
5704.76
5704.81
5704.86
5704.69
5704.63
5704.63
5704.68
5704.74
5704.8
5704.85
5704.9
5704.71
5704.64
5704.64
5704.69
5704.75
5704.81
5704.86
5704.92
5704.69
5704.63
5704.63
5704.68
5704.74
5704.8
5704.86
5704.91
5704.66
5704.6
5704.6
5704.65
5704.71
5704.77
5704.83
5704.88
5704.62
5704.55
5704.55
5704.6
5704.66
5704.72
5704.78
5704.83
5704.33
5704.3
5704.37
5704.51
5704.63
5704.74
5704.82
5704.87
5704.39
5704.37
5704.44
5704.57
5704.7
5704.81
5704.88
5704.94
5704.43
5704.4
5704.48
5704.61
5704.74
5704.85
5704.93
5704.98
5704.44
5704.41
5704.49
5704.63
5704.75
5704.86
5704.94
5705
5704.42
5704.39
5704.47
5704.62
5704.74
5704.85
5704.93
5704.99
5704.39
5704.36
5704.44
5704.58
5704.71
5704.82
5704.9
5704.96
5704.33
5704.3
5704.39
5704.53
5704.66
5704.77
5704.85
5704.9
5703.9
5703.96
5704.15
5704.42
5704.67
5704.83
5704.92
5704.93
5703.99
5704.05
5704.23
5704.5
5704.75
5704.91
5704.99
5705
5704.04
5704.11
5704.28
5704.55
5704.79
5704.96
5705.04
5705.05
5704.06
5704.13
5704.3
5704.57
5704.8
5704.97
5705.05
5705.06
5704.05
5704.12
5704.29
5704.56
5704.79
5704.96
5705.04
5705.06
5704.02
5704.09
5704.26
5704.52
5704.76
5704.92
5705.01
5705.03
5703.97
5704.04
5704.2
5704.47
5704.7
5704.87
5704.95
5704.97
5702.05
5702.72
5703.57
5704.31
5704.81
5705.04
5705.07
5704.95
5702.12
5702.8
5703.66
5704.41
5704.9
5705.13
5705.15
5705.03
5702.14
5702.84
5703.71
5704.46
5704.95
5705.18
5705.2
5705.08
5702.13
5702.84
5703.72
5704.47
5704.96
5705.19
5705.21
5705.08
5702.08
5702.8
5703.69
5704.45
5704.94
5705.18
5705.21
5705.09
5702.03
5702.76
5703.66
5704.42
5704.91
5705.15
5705.18
5705.06
5702
5702.72
5703.62
5704.37
5704.86
5705.09
5705.12
5705.01
5703.03
5703.5
5704.5
5705.31
5705.76
5705.82
5705.55
5705.02
5703.39
5703.78
5704.71
5705.47
5705.88
5705.93
5705.66
5705.14
5703.67
5703.97
5704.83
5705.54
5705.94
5705.98
5705.72
5705.22
5703.82
5704.07
5704.89
5705.58
5705.96
5706
5705.74
5705.24
5703.75
5704.08
5704.91
5705.59
5705.96
5706
5705.75
5705.27
5703.72
5704.09
5704.91
5705.58
5705.94
5705.98
5705.73
5705.26
5703.72
5704.1
5704.93
5705.58
5705.93
5705.95
5705.69
5705.22
5692.1
5698.22
5703.8
5706.82
5707.85
5707.76
5707.11
5583.7
5692.21
5698.84
5704.23
5707.04
5707.97
5707.87
5707.23
5594.98
5692.08
5699.22
5704.47
5707.13
5707.98
5707.88
5707.24
5613.85
5691.98
5699.49
5704.65
5707.19
5707.99
5707.89
5707.26
5616.21
5692.17
5699.79
5704.82
5707.25
5708
5707.89
5707.26
5628.31
5692.33
5699.98
5704.93
5707.28
5708
5707.88
5707.25
5634.1
5692.4
5700.09
5705.03
5707.36
5708.05
5707.91
5707.25
5632.67
5704.05
5703.96
5703.93
5703.96
5703.99
5704.03
5704.07
5704.11
5703.99
5703.9
5703.87
5703.9
5703.93
5703.96
5704
5704.04
5703.95
5703.85
5703.82
5703.84
5703.87
5703.9
5703.94
5703.97
5703.91
5703.82
5703.79
5703.81
5703.83
5703.85
5703.89
5703.92
5703.89
5703.8
5703.77
5703.79
5703.81
5703.83
5703.86
5703.89
5703.89
5703.8
5703.77
5703.79
5703.81
5703.83
5703.86
5703.88
5703.92
5703.83
5703.8
5703.82
5703.83
5703.85
5703.88
5703.9
5703.72
5703.66
5703.7
5703.81
5703.91
5703.99
5704.05
5704.1
5703.67
5703.6
5703.63
5703.74
5703.82
5703.9
5703.97
5704.01
5703.61
5703.54
5703.56
5703.67
5703.75
5703.83
5703.89
5703.94
5703.57
5703.49
5703.52
5703.62
5703.7
5703.77
5703.83
5703.87
5703.55
5703.47
5703.5
5703.6
5703.67
5703.74
5703.8
5703.83
5703.55
5703.48
5703.5
5703.6
5703.68
5703.74
5703.79
5703.82
5703.57
5703.5
5703.52
5703.64
5703.71
5703.77
5703.81
5703.84
5703.24
5703.29
5703.42
5703.66
5703.86
5704
5704.06
5704.08
5703.15
5703.19
5703.33
5703.55
5703.75
5703.89
5703.96
5703.98
5703.07
5703.11
5703.24
5703.46
5703.66
5703.8
5703.87
5703.88
5703.01
5703.05
5703.18
5703.4
5703.59
5703.73
5703.79
5703.8
5702.99
5703.02
5703.15
5703.37
5703.56
5703.69
5703.74
5703.75
5702.98
5703.02
5703.15
5703.37
5703.57
5703.69
5703.73
5703.73
5703.01
5703.04
5703.17
5703.4
5703.59
5703.71
5703.75
5703.74
5701.53
5702.08
5702.84
5703.5
5703.93
5704.12
5704.13
5704.02
5701.45
5701.97
5702.71
5703.37
5703.79
5703.99
5703.99
5703.89
5701.38
5701.87
5702.6
5703.26
5703.68
5703.86
5703.87
5703.77
5701.32
5701.79
5702.51
5703.16
5703.58
5703.76
5703.76
5703.64
5701.29
5701.76
5702.47
5703.12
5703.54
5703.71
5703.7
5703.57
5701.29
5701.76
5702.48
5703.13
5703.54
5703.7
5703.68
5703.54
5701.31
5701.78
5702.5
5703.15
5703.56
5703.73
5703.69
5703.54
5702.28
5702.82
5703.77
5704.47
5704.81
5704.79
5704.51
5704.06
5702.04
5702.58
5703.52
5704.25
5704.59
5704.58
5704.3
5703.84
5701.78
5702.33
5703.29
5704.04
5704.4
5704.39
5704.1
5703.65
5701.58
5702.14
5703.11
5703.88
5704.25
5704.23
5703.93
5703.44
5701.45
5702.03
5703.02
5703.81
5704.18
5704.16
5703.84
5703.31
5701.39
5701.99
5703.01
5703.81
5704.2
5704.17
5703.82
5703.25
5701.33
5701.94
5702.99
5703.82
5704.22
5704.19
5703.83
5703.25
5692.38
5697.74
5703.11
5705.93
5706.69
5706.41
5705.61
5688.71
5692.28
5697.17
5702.62
5705.52
5706.35
5706.06
5705.32
5675.13
5692.05
5696.5
5702.09
5705.13
5706.04
5705.76
5705.02
5680.05
5691.91
5695.98
5701.71
5704.87
5705.84
5705.55
5704.82
5666
5691.89
5695.68
5701.52
5704.78
5705.8
5705.5
5704.74
5650.04
5691.91
5695.54
5701.5
5704.84
5705.91
5705.59
5704.78
5638.81
5691.84
5695.37
5701.4
5704.83
5705.96
5705.67
5704.84
5637.13
5703.96
5703.88
5703.85
5703.86
5703.88
5703.9
5703.93
5703.95
5704.03
5703.94
5703.91
5703.94
5703.96
5703.98
5704.01
5704.04
5704.12
5704.03
5704
5704.03
5704.05
5704.08
5704.11
5704.14
5704.22
5704.13
5704.11
5704.14
5704.17
5704.2
5704.24
5704.27
5704.32
5704.24
5704.22
5704.26
5704.3
5704.34
5704.38
5704.42
5704.43
5704.35
5704.34
5704.38
5704.43
5704.47
5704.51
5704.56
5704.53
5704.46
5704.45
5704.49
5704.54
5704.59
5704.64
5704.69
5703.62
5703.55
5703.57
5703.68
5703.76
5703.82
5703.86
5703.89
5703.69
5703.63
5703.65
5703.76
5703.84
5703.91
5703.95
5703.98
5703.79
5703.72
5703.75
5703.86
5703.95
5704.02
5704.07
5704.1
5703.9
5703.83
5703.87
5703.99
5704.08
5704.16
5704.22
5704.25
5704.02
5703.96
5704.01
5704.14
5704.24
5704.32
5704.38
5704.43
5704.13
5704.09
5704.13
5704.29
5704.39
5704.48
5704.55
5704.59
5704.25
5704.21
5704.27
5704.41
5704.53
5704.63
5704.7
5704.75
5703.05
5703.08
5703.22
5703.45
5703.65
5703.77
5703.81
5703.79
5703.13
5703.16
5703.3
5703.54
5703.74
5703.87
5703.91
5703.9
5703.23
5703.26
5703.4
5703.65
5703.85
5703.99
5704.04
5704.03
5703.36
5703.39
5703.54
5703.79
5704
5704.15
5704.21
5704.21
5703.5
5703.54
5703.7
5703.96
5704.18
5704.33
5704.4
5704.41
5703.64
5703.69
5703.86
5704.13
5704.37
5704.52
5704.6
5704.61
5703.78
5703.84
5704.02
5704.3
5704.54
5704.7
5704.78
5704.8
5701.34
5701.81
5702.53
5703.19
5703.61
5703.78
5703.75
5703.6
5701.4
5701.89
5702.62
5703.29
5703.72
5703.9
5703.88
5703.73
5701.48
5701.97
5702.72
5703.4
5703.84
5704.03
5704.02
5703.88
5701.58
5702.1
5702.86
5703.56
5704.01
5704.21
5704.21
5704.08
5701.7
5702.26
5703.04
5703.75
5704.22
5704.43
5704.44
5704.31
5701.83
5702.42
5703.23
5703.96
5704.44
5704.66
5704.68
5704.55
5701.95
5702.59
5703.42
5704.16
5704.65
5704.88
5704.9
5704.79
5701.33
5701.94
5702.99
5703.84
5704.26
5704.25
5703.9
5703.31
5701.42
5702.02
5703.09
5703.95
5704.4
5704.4
5704.06
5703.49
5701.58
5702.14
5703.2
5704.06
5704.52
5704.56
5704.24
5703.68
5701.81
5702.35
5703.4
5704.27
5704.74
5704.78
5704.48
5703.94
5702.1
5702.62
5703.66
5704.52
5704.99
5705.04
5704.75
5704.2
5702.41
5702.91
5703.96
5704.81
5705.27
5705.33
5705.05
5704.51
5702.72
5703.22
5704.26
5705.1
5705.56
5705.62
5705.34
5704.8
5691.45
5695.31
5701.36
5704.83
5706
5705.74
5704.93
5635.61
5689.47
5695.18
5701.53
5705
5706.19
5705.94
5705.14
5625.53
5688.79
5695.35
5701.7
5705.12
5706.31
5706.12
5705.35
5599.63
5690.57
5696.08
5702.05
5705.39
5706.56
5706.41
5705.67
5597.35
5691.02
5696.66
5702.49
5705.73
5706.87
5706.73
5706.03
5596.75
5690.76
5697.22
5702.99
5706.15
5707.24
5707.11
5706.43
5595.08
5691.02
5697.71
5703.42
5706.55
5707.61
5707.51
5706.85
5588.45
5704.55
5704.48
5704.48
5704.53
5704.58
5704.64
5704.7
5704.75
5704.48
5704.4
5704.39
5704.44
5704.49
5704.55
5704.6
5704.66
5704.39
5704.31
5704.3
5704.34
5704.39
5704.44
5704.5
5704.55
5704.31
5704.22
5704.2
5704.24
5704.29
5704.34
5704.39
5704.44
5704.23
5704.14
5704.12
5704.16
5704.2
5704.25
5704.29
5704.34
5704.16
5704.07
5704.05
5704.09
5704.13
5704.17
5704.21
5704.25
5704.1
5704.02
5703.99
5704.02
5704.06
5704.1
5704.14
5704.18
5704.26
5704.23
5704.3
5704.44
5704.57
5704.68
5704.76
5704.81
5704.17
5704.13
5704.2
5704.33
5704.46
5704.56
5704.64
5704.7
5704.08
5704.03
5704.09
5704.22
5704.33
5704.44
5704.52
5704.57
5703.98
5703.93
5703.99
5704.11
5704.22
5704.32
5704.4
5704.45
5703.9
5703.84
5703.88
5704.03
5704.13
5704.22
5704.3
5704.35
5703.84
5703.77
5703.81
5703.96
5704.05
5704.14
5704.2
5704.25
5703.78
5703.72
5703.75
5703.89
5703.98
5704.06
5704.13
5704.18
5703.89
5703.96
5704.12
5704.37
5704.6
5704.76
5704.85
5704.86
5703.78
5703.84
5703.99
5704.24
5704.47
5704.63
5704.71
5704.73
5703.65
5703.72
5703.86
5704.1
5704.33
5704.48
5704.56
5704.58
5703.54
5703.6
5703.74
5703.98
5704.2
5704.35
5704.43
5704.45
5703.45
5703.51
5703.65
5703.88
5704.1
5704.24
5704.32
5704.34
5703.38
5703.43
5703.57
5703.8
5704.01
5704.15
5704.22
5704.24
5703.31
5703.36
5703.5
5703.73
5703.93
5704.07
5704.15
5704.16
5701.95
5702.65
5703.53
5704.27
5704.75
5704.98
5705.01
5704.89
5701.83
5702.51
5703.38
5704.11
5704.59
5704.81
5704.84
5704.73
5701.71
5702.37
5703.23
5703.96
5704.43
5704.65
5704.67
5704.56
5701.62
5702.27
5703.11
5703.82
5704.28
5704.5
5704.52
5704.4
5701.59
5702.21
5703.02
5703.72
5704.17
5704.38
5704.39
5704.28
5701.58
5702.17
5702.96
5703.64
5704.07
5704.27
5704.28
5704.17
5701.57
5702.14
5702.91
5703.58
5704
5704.2
5704.21
5704.1
5703.75
5704.05
5704.85
5705.48
5705.81
5705.83
5705.58
5705.12
5703.54
5703.84
5704.63
5705.26
5705.59
5705.61
5705.36
5704.91
5703.29
5703.61
5704.42
5705.06
5705.39
5705.4
5705.15
5704.71
5703.06
5703.41
5704.23
5704.88
5705.21
5705.22
5704.96
5704.52
5702.86
5703.25
5704.1
5704.76
5705.08
5705.08
5704.82
5704.38
5702.67
5703.12
5704
5704.65
5704.97
5704.96
5704.69
5704.24
5702.47
5702.98
5703.9
5704.58
5704.9
5704.88
5704.61
5704.16
5692.26
5700.02
5704.95
5707.25
5707.91
5707.76
5707.1
5651.19
5692.05
5699.74
5704.64
5706.92
5707.58
5707.42
5706.77
5664.93
5691.79
5699.37
5704.29
5706.63
5707.29
5707.13
5706.47
5673.1
5691.72
5699.01
5703.99
5706.39
5707.06
5706.89
5706.2
5679.72
5691.91
5698.76
5703.8
5706.26
5706.94
5706.74
5706.02
5684.51
5692.23
5698.52
5703.62
5706.17
5706.85
5706.62
5705.88
5686.63
5692.37
5698.12
5703.38
5706.07
5706.8
5706.54
5705.76
5688.56
5705.23
5705.06
5705.15
5704.84
5704.87
5704.91
5704.96
5705.02
5705.1
5705.2
5705.33
5704.9
5704.94
5704.97
5705.02
5705.08
5705.16
5705.27
5705.4
5704.94
5704.98
5705.02
5705.06
5705.12
5705.21
5705.31
5705.45
5704.96
5704.99
5705.03
5705.08
5705.14
5705.22
5705.33
5705.46
5704.96
5704.99
5705.03
5705.08
5705.14
5705.22
5705.33
5705.47
5704.93
5704.96
5705.01
5705.06
5705.12
5705.2
5705.32
5705.46
5704.87
5704.91
5704.95
5705
5705.06
5705.14
5705.25
5705.39
5704.91
5704.94
5704.98
5705.03
5705.11
5705.21
5705.37
5705.57
5704.97
5705
5705.04
5705.08
5705.15
5705.27
5705.43
5705.63
5705.02
5705.05
5705.09
5705.14
5705.21
5705.32
5705.48
5705.69
5705.03
5705.06
5705.1
5705.14
5705.21
5705.33
5705.49
5705.7
5705.03
5705.06
5705.09
5705.14
5705.21
5705.32
5705.49
5705.7
5705
5705.03
5705.06
5705.11
5705.18
5705.29
5705.46
5705.67
5704.94
5704.97
5705
5705.05
5705.12
5705.24
5705.4
5705.61
5704.94
5704.94
5704.96
5705
5705.08
5705.21
5705.42
5705.68
5705
5704.99
5705
5705.03
5705.09
5705.22
5705.44
5705.71
5705.05
5705.04
5705.05
5705.07
5705.14
5705.28
5705.49
5705.77
5705.05
5705.05
5705.05
5705.07
5705.14
5705.27
5705.49
5705.77
5705.05
5705.05
5705.05
5705.07
5705.13
5705.27
5705.49
5705.77
5705.02
5705.02
5705.02
5705.05
5705.11
5705.25
5705.47
5705.74
5704.96
5704.95
5704.95
5704.97
5705.03
5705.17
5705.39
5705.64
5704.84
5704.78
5704.76
5704.78
5704.87
5705.02
5705.27
5705.56
5704.91
5704.84
5704.8
5704.81
5704.85
5694.31
5699.33
5705.47
5704.96
5704.89
5704.85
5704.83
5704.86
5702.55
5704.06
5705.59
5704.96
5704.89
5704.84
5704.81
5704.83
5701.28
5704.68
5705.59
5704.97
5704.89
5704.84
5704.82
5704.83
5702.3
5704.04
5705.58
5704.94
5704.87
5704.82
5704.8
5704.82
5701.95
5701.68
5705.41
5704.88
5704.8
5704.75
5704.74
5704.76
5688.97
5692.77
5705.16
5704.65
5704.4
5681.14
5703.95
5691.06
5651.31
5669.69
5705.44
5704.77
5704.52
5690.87
5704.74
5704.94
5510.58
5610.67
5705.7
5704.82
5704.61
5703.92
5704.8
5659.45
5517.45
5621.78
5705.74
5704.85
5704.65
5704.72
5702
5622.66
5519.77
5632.98
5705.7
5704.88
5704.67
5704.74
5703.3
5643.82
5507.13
5615.66
5705.76
5704.87
5704.07
5701.72
5704.92
5677.29
5500.62
5590.38
5705.68
5704.82
5704.55
5695.61
5704.85
5691.48
5473.11
5600.57
5705.48
5549.17
5316.17
5113.56
5470.23
5243.92
5228.85
5498.73
5418.43
5557.2
5283.81
5159.26
5494.6
5238.55
5414.36
5498.45
5404.93
5539.56
5239.69
5300.5
5412.38
5191.2
5404.55
5494.6
5386.07
5520.39
5267.92
5338.71
5342.26
5190.89
5429.79
5466.01
5388.53
5532.41
5262.02
5355.22
5366.01
5190.69
5399.62
5480.17
5382.99
5588.68
5229.88
5258.19
5473.24
5139.84
5351.18
5478.79
5399.14
5598.56
5297.67
5168.31
5519.43
5139.64
5379.51
5491.95
5423.58
5704.15
5704.18
5704.21
5704.26
5704.31
5704.39
5704.48
5704.6
5704.08
5704.11
5704.14
5704.19
5704.24
5704.31
5704.4
5704.52
5704.01
5704.04
5704.08
5704.12
5704.17
5704.24
5704.33
5704.45
5703.95
5703.98
5704.01
5704.06
5704.11
5704.18
5704.27
5704.38
5703.92
5703.95
5703.98
5704.02
5704.07
5704.14
5704.23
5704.34
5703.91
5703.94
5703.97
5704.01
5704.06
5704.13
5704.21
5704.33
5703.93
5703.95
5703.98
5704.02
5704.07
5704.14
5704.23
5704.34
5704.14
5704.17
5704.2
5704.25
5704.32
5704.43
5704.58
5704.77
5704.05
5704.08
5704.12
5704.17
5704.24
5704.34
5704.49
5704.68
5703.97
5704
5704.04
5704.09
5704.16
5704.26
5704.4
5704.59
5703.9
5703.93
5703.97
5704.01
5704.08
5704.18
5704.32
5704.5
5703.86
5703.89
5703.92
5703.97
5704.03
5704.13
5704.27
5704.45
5703.85
5703.87
5703.9
5703.95
5704.01
5704.11
5704.25
5704.43
5703.87
5703.89
5703.92
5703.96
5704.03
5704.12
5704.26
5704.44
5704.08
5704.08
5704.1
5704.13
5704.2
5704.34
5704.54
5704.8
5703.98
5703.99
5704
5704.04
5704.11
5704.24
5704.45
5704.7
5703.89
5703.9
5703.91
5703.95
5704.02
5704.15
5704.35
5704.6
5703.8
5703.81
5703.82
5703.86
5703.93
5704.06
5704.25
5704.5
5703.75
5703.75
5703.77
5703.8
5703.87
5704
5704.19
5704.44
5703.72
5703.72
5703.74
5703.77
5703.84
5703.97
5704.16
5704.41
5703.73
5703.73
5703.75
5703.78
5703.85
5703.98
5704.17
5704.42
5703.91
5703.83
5703.79
5703.79
5703.86
5704.01
5704.27
5704.58
5703.79
5703.72
5703.69
5703.69
5703.76
5703.91
5704.16
5704.48
5703.67
5703.62
5703.59
5703.61
5703.67
5703.82
5704.06
5704.37
5703.55
5703.5
5703.48
5703.5
5703.57
5703.71
5703.96
5704.26
5703.48
5703.43
5703.42
5703.44
5703.5
5703.65
5703.89
5704.19
5703.44
5703.39
5703.38
5703.4
5703.46
5703.61
5703.85
5704.15
5703.44
5703.4
5703.38
5703.41
5703.47
5703.61
5703.86
5704.15
5703.62
5703.3
5694.99
5703.39
5699.54
5664.7
5688.77
5704.17
5703.44
5703.21
5703.09
5703.21
5703.36
5663.71
5686.15
5704.07
5703.23
5703
5703.02
5703.17
5702.79
5663.89
5687.6
5703.95
5702.99
5702.82
5702.93
5703.06
5700.78
5668.43
5689.97
5703.82
5702.85
5702.72
5702.87
5703.01
5698.94
5669.47
5690.99
5703.74
5702.77
5702.66
5702.85
5702.99
5696.17
5668.42
5690.91
5703.71
5702.73
5702.63
5702.86
5703.02
5694.73
5669.33
5692.17
5703.71
5629.98
5436.65
5170.61
5479.16
5359.6
5193.9
5473.18
5474.39
5586.48
5509.26
5295.7
5390.63
5365.24
5244.12
5444.47
5489.92
5565.45
5361.82
5378.66
5471.8
5352.47
5265.03
5435.47
5496.46
5457.95
5298.55
5441.5
5480.96
5323.02
5263.95
5432.12
5502.06
5385.24
5275.57
5461.32
5487.27
5309.65
5257.3
5432.09
5506.14
5329.73
5247.45
5469.9
5500.07
5297.24
5244
5430.22
5507.2
5287.18
5200.42
5470.81
5521.3
5287.83
5242.87
5430.26
5505.99
5703.98
5704
5704.03
5704.07
5704.12
5704.19
5704.28
5704.39
5704.06
5704.09
5704.12
5704.16
5704.21
5704.27
5704.36
5704.48
5704.17
5704.19
5704.22
5704.26
5704.31
5704.38
5704.47
5704.59
5704.3
5704.33
5704.36
5704.4
5704.45
5704.52
5704.61
5704.72
5704.45
5704.48
5704.52
5704.56
5704.61
5704.68
5704.78
5704.9
5704.59
5704.63
5704.66