/*--------------------------------*- C++ -*----------------------------------*\
| =========                 |                                                 |
| \\      /  F ield         | OpenFOAM: The Open Source CFD Toolbox           |
|  \\    /   O peration     | Version:  plus.master.MPPICInterFoam            |
|   \\  /    A nd           | Web:      www.OpenFOAM.com                      |
|    \\/     M anipulation  |                                                 |
\*---------------------------------------------------------------------------*/
FoamFile
{
    version     2.0;
    format      ascii;
    class       volScalarField;
    location    "7.8";
    object      rho;
}
// * * * * * * * * * * * * * * * * * * * * * * * * * * * * * * * * * * * * * //

dimensions      [1 -3 0 0 0 0 0];

internalField   nonuniform List<scalar> 
11822
(
985.213
877.123
819.179
834.655
907.447
986.669
1000
798.408
460.467
404.12
421.736
527.873
852.354
1000
597.138
386.747
383.332
380.042
377.992
687.949
996.91
570.592
388.081
638.997
639.103
375.402
649.027
990.893
657.047
388.571
388.921
389.552
388.921
737.588
999.997
913.43
640.776
557.255
557.401
693.171
930.573
1000
1000
983.371
960.034
960.45
991.036
1000
999.994
991.289
922.086
878.938
887.855
927.434
988.907
1000
883.472
590.272
604.429
658.81
662.609
886.078
1000
761.633
427.166
414.383
422.98
445.53
791.284
999.392
746.412
460.63
639.102
639.117
375.005
739.244
992.676
806.135
461.727
431.54
443.839
484.133
806.455
999.999
958.34
793.585
709.66
707.608
803.665
950.749
1000
1000
995.849
983.18
981.17
997.531
1000
999.997
996.169
944.616
894.324
889.487
929.13
992.421
1000
936.64
723.14
782.166
794.989
727.25
895.591
1000
867.351
527.716
684.894
628.477
491.867
834.078
999.98
837.558
490.425
547.324
540.447
374.715
784.7
993.34
893.396
605.234
486.935
463.647
602.64
820.508
999.979
984.664
871.282
805.156
800.351
838.084
966.395
1000
1000
999.892
996.19
992.317
999.93
1000
1000
996.221
937.335
863.716
842.732
913.618
992.675
1000
930.337
697.853
654.712
645.506
676.473
875.07
1000
845.65
499.942
660.659
551.968
433.163
789.232
1000
812.592
427.403
375.372
374.727
374.513
744.871
992.573
886.82
604.418
452.705
405.033
584.955
790.322
1000
985.755
856.632
775.18
775.363
811.051
966.806
1000
1000
1000
996.72
992.831
1000
1000
1000
995.216
917.732
800.666
773.617
893.944
992.06
1000
906.513
573.297
410.393
397.584
535.401
850.26
1000
759.74
392.13
391.006
374.927
374.543
688.853
998.014
737.464
375.513
374.928
374.543
374.61
653.669
990.471
863.997
521.142
378.416
374.928
475.478
762.129
1000
984.845
822.548
684.341
710.245
777.111
965.157
1000
1000
1000
995.614
992.917
1000
1000
1000
995.861
921.876
808.337
786.537
906.902
994.223
1000
909.424
538.109
378.37
381.781
521.6
870.413
1000
747.79
376.838
377.291
408.292
376.398
704.818
998.693
739.421
376.71
486.809
374.793
397.726
677.246
992.058
871.863
488.785
377.677
400.195
452.799
794.89
1000
988.511
835.466
686.119
730.495
803.976
972.841
1000
1000
1000
997.174
996.217
1000
1000
1000
1000
1000
1000
999.968
999.838
999.269
999.778
999.729
1000
1000
1000
999.999
1000
1000
999.999
1000
1000
1000
1000
1000
1000
1000
1000
1000
1000
1000
1000
1000
1000
1000
1000
1000
1000
1000
1000
1000
1000
1000
1000
1000
1000
1000
1000
1000
1000
1000
1000
1000
1000
1000
1000
999.999
1000
1000
999.996
1000
1000
1000
1000
999.964
999.827
999.483
999.805
999.911
1000
1000
1000
999.999
1000
1000
999.999
1000
1000
1000
1000
1000
1000
1000
1000
1000
1000
1000
1000
1000
1000
1000
1000
1000
1000
1000
1000
1000
1000
1000
1000
1000
1000
1000
1000
1000
1000
1000
1000
1000
1000
1000
1000
1000
1000
1000
999.997
1000
1000
1000
999.999
999.964
999.835
999.709
999.767
999.983
1000
1000
1000
999.999
1000
1000
1000
1000
1000
1000
1000
1000
1000
1000
1000
1000
1000
1000
1000
1000
1000
1000
1000
1000
1000
1000
1000
1000
1000
1000
1000
1000
1000
1000
1000
1000
1000
1000
1000
1000
1000
1000
1000
1000
1000
999.993
999.998
1000
1000
1000
999.995
999.971
999.878
999.785
999.656
999.99
1000
1000
1000
999.999
1000
1000
1000
1000
1000
1000
1000
1000
1000
1000
1000
1000
1000
1000
1000
1000
1000
1000
1000
1000
1000
1000
1000
1000
1000
1000
1000
1000
1000
1000
1000
1000
1000
1000
1000
1000
1000
1000
1000
1000
1000
999.973
999.998
1000
1000
1000
999.992
999.984
999.959
999.759
999.572
999.99
1000
1000
1000
1000
1000
1000
1000
1000
1000
1000
1000
1000
1000
1000
1000
1000
1000
1000
1000
1000
1000
1000
1000
1000
1000
1000
1000
1000
1000
1000
1000
1000
1000
1000
1000
1000
1000
1000
1000
1000
1000
1000
1000
1000
999.999
999.968
999.997
1000
1000
1000
999.992
999.998
1000
999.515
999.493
999.996
1000
1000
1000
1000
1000
1000
1000
999.999
1000
1000
1000
1000
1000
1000
1000
1000
1000
1000
1000
1000
1000
1000
1000
1000
1000
1000
1000
1000
1000
1000
1000
1000
1000
1000
1000
1000
1000
1000
1000
1000
1000
1000
1000
1000
999.999
999.975
999.997
1000
1000
1000
1000
1000
1000
1000
1000
1000
1000
1000
1000
999.984
999.991
1000
1000
1000
987.242
1000
1000
999.839
999.916
999.999
1000
1000
958.33
1000
1000
999.977
999.991
1000
1000
1000
971.553
1000
1000
999.992
999.878
999.982
1000
1000
1000
1000
1000
1000
999.969
999.998
1000
1000
1000
1000
1000
999.997
999.989
999.948
1000
999.998
1000
1000
1000
1000
1000
1000
1000
1000
1000
1000
999.998
999.983
999.994
1000
1000
1000
996.94
1000
999.997
999.839
999.958
1000
1000
1000
986.846
1000
1000
999.975
999.995
1000
1000
1000
991.328
1000
1000
999.934
999.878
999.986
1000
1000
1000
1000
1000
1000
999.963
999.999
1000
1000
1000
1000
1000
1000
999.994
999.951
1000
999.998
1000
1000
1000
1000
1000
1000
1000
1000
999.999
1000
999.995
999.983
999.997
1000
1000
1000
999.908
1000
999.973
999.839
999.983
1000
1000
1000
999.513
999.998
999.999
999.979
999.998
1000
1000
1000
999.766
999.999
1000
999.879
999.878
999.994
1000
1000
1000
1000
1000
999.974
999.966
1000
1000
1000
1000
1000
1000
1000
999.996
999.958
999.999
999.999
1000
1000
1000
1000
1000
1000
1000
1000
1000
1000
999.992
999.986
999.999
1000
1000
1000
1000
1000
999.91
999.839
999.994
1000
1000
1000
1000
1000
999.998
999.991
999.999
1000
1000
1000
1000
1000
999.997
999.879
999.911
999.999
1000
1000
1000
1000
1000
999.887
999.974
1000
1000
1000
1000
1000
1000
999.999
999.963
999.974
999.992
1000
1000
1000
1000
1000
1000
1000
1000
1000
1000
1000
999.992
999.991
1000
1000
1000
1000
1000
1000
999.899
999.895
999.999
1000
1000
1000
1000.01
1000
999.997
999.996
999.999
1000
1000
1000
1000
1000
999.992
999.879
999.964
1000
1000
1000
1000
1000
999.997
999.879
999.984
1000
1000
1000
1000
1000
1000
999.999
999.916
999.991
999.984
1000
1000
1000
1000
1000
1000
1000
1000
1000
1000
1000
999.993
999.997
1000
1000
1000
1000
1000
1000
999.904
999.982
1000
1000
1000
1000
1000
999.999
999.998
999.997
999.999
1000
1000
1000
1000
1000
999.992
999.879
999.985
1000
1000
1000
1000
1000
999.992
999.924
999.993
1000
1000
1000
1000
1000
1000
999.998
999.923
999.99
999.988
1000
1000
1000
1000
999.984
999.994
998.313
998.756
999.981
1000
1000
1000
999.997
999.342
999.341
996.946
999.648
999.999
1000
1000
1000
999.932
999.954
999.947
999.88
999.999
1000
1000
999.985
999.996
999.697
999.858
998.481
1000
1000
1000
999.772
999.894
999.83
998.051
999.562
1000
1000
1000
999.707
999.599
997.09
998.709
995.526
1000
1000
1000
1000
999.295
997.069
999.682
995.456
1000
1000
1000
999.973
999.994
998.307
999.033
999.972
1000
1000
1000
999.959
999.378
999.338
996.947
999.724
999.999
1000
1000
999.996
999.934
999.945
999.946
999.906
999.999
1000
1000
999.988
999.994
999.72
999.865
998.481
1000
1000
1000
999.939
999.931
999.509
998.71
999.216
1000
1000
1000
999.664
999.693
997.069
999.692
994.928
1000
1000
1000
1000
999.258
997.07
999.805
996.817
1000
1000
1000
999.979
999.986
998.304
999.371
999.954
1000
1000
1000
999.885
999.644
999.211
996.948
999.889
999.984
1000
1000
999.988
999.953
999.931
998.981
999.934
999.973
1000
1000
999.995
999.985
999.859
999.861
998.923
1000
1000
1000
999.959
999.931
999.24
999.607
996.137
1000
1000
1000
999.664
999.817
997.07
999.359
994.927
1000
1000
1000
1000
999.322
997.597
999.37
999.098
1000
1000
1000
999.993
999.955
998.304
999.675
999.957
1000
1000
999.999
999.872
999.915
998.724
996.948
999.957
1000
1000
1000
999.985
999.978
999.851
997.085
999.956
1000
1000
1000
1000
999.984
999.939
999.831
999.668
1000
1000
1000
999.947
999.924
999.353
999.772
994.927
1000
1000
1000
999.837
999.837
997.383
996.332
994.927
999.994
1000
1000
1000
999.542
998.211
995.502
999.424
1000
1000
1000
1000
999.864
998.304
999.898
999.977
1000
1000
1000
999.872
999.953
998.355
998.355
997.391
1000
1000
1000
999.987
1000
999.246
998.092
997.636
1000
1000
1000
1000
999.985
999.918
999.818
999.818
1000
1000
999.999
999.923
999.918
999.752
999.756
994.927
1000
1000
999.999
999.991
999.843
997.671
994.926
994.927
999.99
999.999
1000
1000
999.871
997.972
994.942
999.465
1000
1000
1000
1000
999.735
998.756
999.891
999.981
1000
1000
999.999
999.953
999.994
998.361
998.903
996.394
1000
1000
1000
999.992
1000
998.494
998.428
996.394
1000
1000
1000
1000
999.974
999.734
999.818
999.227
1000
1000
999.998
999.923
999.938
999.765
999.74
994.929
1000
1000
999.997
1000
999.915
998.118
994.951
995.338
999.993
999.999
999.999
1000
1000
998.042
994.957
999.638
1000
1000
999.959
999.999
1000
999.422
999.926
1000
1000
1000
999.699
999.827
1000
997.45
999.646
1000
1000
1000
999.915
998.755
999.754
997.449
999.228
1000
1000
1000
999.975
998.755
999.775
997.45
999.206
1000
1000
1000
999.994
998.756
999.808
999.988
999.93
999.999
1000
1000
1000
999.941
999.97
999.955
999.993
1000
1000
1000
1000
1000
1000
1000
1000
1000
1000
999.999
999.956
999.999
999.996
999.246
999.956
1000
1000
999.998
999.482
999.908
999.988
997.449
999.78
1000
1000
1000
999.638
999.047
999.812
997.448
999.458
1000
1000
1000
999.813
998.756
999.831
997.448
999.373
1000
1000
1000
999.941
998.757
999.895
999.818
999.924
1000
1000
1000
999.999
999.947
999.931
999.963
999.996
1000
1000
1000
1000
1000
1000
1000
1000
1000
1000
999.997
999.965
999.995
999.862
999.289
999.988
1000
1000
999.99
999.482
999.953
999.527
997.479
999.928
1000
1000
999.99
999.482
999.829
999.794
997.448
999.711
1000
1000
999.997
999.516
999.362
999.857
997.448
999.594
1000
1000
1000
999.71
999.533
999.695
998.349
999.93
1000
1000
1000
999.997
999.961
999.919
999.984
999.997
1000
1000
1000
1000
1000
1000
1000
1000
1000
1000
999.993
999.987
999.986
999.069
999.415
999.999
1000
1000
999.983
999.683
999.952
997.461
998.12
999.991
1000
1000
999.971
999.482
999.955
999.089
997.448
999.894
1000
1000
999.99
999.482
999.96
999.901
997.447
999.79
1000
1000
999.998
999.617
999.969
999.115
997.939
999.952
1000
1000
1000
999.994
999.979
999.928
999.986
999.997
1000
1000
1000
1000
1000
1000
1000
1000
1000
1000
999.99
999.999
999.993
998.05
999.58
1000
1000
1000
999.98
999.962
999.915
997.223
998.892
1000
1000
1000
999.974
999.501
999.956
997.304
997.789
999.978
1000
1000
999.986
999.624
999.993
999.835
997.678
999.923
1000
1000
999.995
999.798
999.969
998.748
998.714
999.981
1000
1000
999.999
999.991
999.991
999.947
999.978
999.998
1000
1000
1000
1000
1000
1000
1000
1000
1000
1000
999.992
1000
1000
998.2
999.602
1000
1000
1000
999.986
1000
999.74
997.223
998.8
1000
1000
1000
999.977
999.919
999.938
997.223
997.945
1000
1000
999.999
999.984
999.977
1000
998.048
998.138
999.999
1000
999.999
999.994
999.993
1000
998.721
999.48
1000
1000
1000
1000
999.993
999.99
999.95
999.96
1000
1000
1000
1000
1000
1000
1000
1000
1000
1000
1000
1000
1000
1000
1000
1000
1000
1000
1000
1000
1000
1000
1000
1000
1000
1000
1000
1000
1000
1000
1000
1000
1000
1000
1000
1000
1000
1000
1000
1000
1000
1000
1000
1000
1000
1000
1000
1000
1000
1000
1000
1000
1000
1000
1000
1000
1000
1000
1000
1000
1000
1000
1000
1000
1000
1000
1000
1000
1000
1000
1000
1000
1000
1000
1000
1000
1000
1000
1000
1000
1000
1000
1000
1000
1000
1000
1000
1000
1000
1000
1000
1000
1000
1000
1000
1000
1000
1000
1000
1000
1000
1000
1000
1000
1000
1000
1000
1000
1000
1000
1000
1000
1000
1000
1000
1000
1000
1000
1000
1000
1000
1000
1000
1000
1000
1000
1000
1000
1000
1000
1000
1000
1000
1000
1000
1000
1000
1000
1000
1000
1000
1000
1000
1000
1000
1000
1000
1000
1000
1000
1000
1000
1000
1000
1000
1000
1000
1000
1000
1000
1000
1000
1000
1000
1000
1000
1000
1000
1000
1000
1000
1000
1000
1000
1000
1000
1000
1000
1000
1000
1000
1000
1000
1000
1000
1000
1000
1000
1000
1000
1000
1000
1000
1000
1000
1000
1000
1000
1000
1000
1000
1000
1000
1000
1000
1000
1000
1000
1000
1000
1000
1000
1000
1000
1000
1000
1000
1000
1000
1000
1000
1000
1000
1000
1000
1000
1000
1000
1000
1000
1000
1000
1000
1000
1000
1000
1000
1000
1000
1000
1000
1000
1000
1000
1000
1000
1000
1000
1000
1000
1000
1000
1000
1000
1000
1000
1000
1000
1000
1000
1000
1000
1000
1000
1000
1000
1000
1000
1000
1000
1000
1000
1000
1000
1000
1000
1000
1000
1000
1000
1000
1000
1000
1000
1000
1000
1000
1000
1000
1000
999.998
1000
1000
1000
1000
999.999
999.999
977.528
1000
1000
1000
1000
1000
999.999
999.999
979.569
1000
1000
1000
1000
1000
999.999
999.999
983.023
1000
1000
1000
1000
1000
999.999
999.999
983.449
1000
1000
1000
1000
1000
999.999
999.999
985.663
1000
1000
1000
1000
1000
999.999
999.999
986.72
1000
1000
1000
1000
1000
999.999
999.999
986.46
1000
1000
1000
1000
1000
1000
1000
1000
1000
1000
1000
1000
1000
1000
1000
1000
1000
1000
1000
1000
1000
1000
1000
1000
1000
1000
1000
1000
1000
1000
1000
1000
1000
1000
1000
1000
1000
1000
1000
1000
1000
1000
1000
1000
1000
1000
1000
1000
1000
1000
1000
1000
1000
1000
1000
1000
1000
1000
1000
1000
1000
1000
1000
1000
1000
1000
1000
1000
1000
1000
1000
1000
1000
1000
1000
1000
1000
1000
1000
1000
1000
1000
1000
1000
1000
1000
1000
1000
1000
1000
1000
1000
1000
1000
1000
1000
1000
1000
1000
1000
1000
1000
1000
1000
1000
1000
1000
1000
1000
1000
1000
1000
1000
1000
1000
1000
1000
1000
1000
1000
1000
1000
1000
1000
1000
1000
1000
1000
1000
1000
1000
1000
1000
1000
1000
1000
1000
1000
1000
1000
1000
1000
1000
1000
1000
1000
1000
1000
1000
1000
1000
1000
1000
1000
1000
1000
1000
1000
1000
1000
1000
1000
1000
1000
1000
1000
1000
1000
1000
1000
1000
1000
1000
1000
1000
1000
1000
1000
1000
1000
1000
1000
1000
1000
1000
1000
1000
1000
1000
1000
1000
1000
1000
1000
1000
1000
1000
1000
1000
1000
1000
1000
1000
1000
1000
1000
1000
1000
1000
1000
1000
1000
1000
1000
1000
1000
1000
1000
1000
1000
1000
1000
1000
1000
1000
1000
1000
1000
1000
1000
1000
1000
1000
1000
1000
1000
1000
1000
1000
1000
1000
1000
1000
1000
1000
1000
1000
1000
1000
1000
1000
1000
1000
1000
1000
1000
1000
1000
1000
1000
1000
1000
1000
1000
1000
1000
1000
1000
1000
1000
1000
1000
1000
1000
1000
1000
1000
1000
1000
1000
1000
1000
1000
1000
999.999
999.999
999.998
997.021
1000
1000
1000
1000
999.999
999.999
999.998
994.605
1000
1000
1000
1000
999.999
999.999
999.998
995.559
1000
1000
1000
1000
999.999
999.999
999.998
993.03
1000
1000
1000
1000
999.999
999.999
999.998
990.13
1000
1000
1000
1000
999.999
999.998
999.998
988.073
1000
1000
1000
1000
999.999
999.999
999.998
987.757
1000
1000
1000
1000
1000
1000
1000
1000
1000
1000
1000
1000
1000
1000
1000
1000
1000
1000
1000
1000
1000
1000
1000
1000
1000
1000
1000
1000
1000
1000
1000
1000
1000
1000
1000
1000
1000
1000
1000
1000
1000
1000
1000
1000
1000
1000
1000
1000
1000
1000
1000
1000
1000
1000
1000
1000
1000
1000
1000
1000
1000
1000
1000
1000
1000
1000
1000
1000
1000
1000
1000
1000
1000
1000
1000
1000
1000
1000
1000
1000
1000
1000
1000
1000
1000
1000
1000
1000
1000
1000
1000
1000
1000
1000
1000
1000
1000
1000
1000
1000
1000
1000
1000
1000
1000
1000
1000
1000
1000
1000
1000
1000
1000
1000
1000
1000
1000
1000
1000
1000
1000
1000
1000
1000
1000
1000
1000
1000
1000
1000
1000
1000
1000
1000
1000
1000
1000
1000
1000
1000
1000
1000
1000
1000
1000
1000
1000
1000
1000
1000
1000
1000
1000
1000
1000
1000
1000
1000
1000
1000
1000
1000
1000
1000
1000
1000
1000
1000
1000
1000
1000
1000
1000
1000
1000
1000
1000
1000
1000
1000
1000
1000
1000
1000
1000
1000
1000
1000
1000
1000
1000
1000
1000
1000
1000
1000
1000
1000
1000
1000
1000
1000
1000
1000
1000
1000
1000
1000
1000
1000
1000
1000
1000
1000
1000
1000
1000
1000
1000
1000
1000
1000
1000
1000
1000
1000
1000
1000
1000
1000
1000
1000
1000
1000
1000
1000
1000
1000
1000
1000
1000
1000
1000
1000
1000
1000
1000
1000
1000
1000
1000
1000
1000
1000
1000
1000
1000
1000
1000
1000
1000
1000
1000
1000
1000
999.998
1000
1000
1000
1000
1000
1000
1000
1000
1000
1000
1000
1000
1000
1000
999.944
1000
1000
1000
1000
999.999
999.998
987.461
999.589
999.953
1000
1000
1000
999.999
999.998
985.575
999.47
999.939
1000
1000
1000
999.999
999.998
980.781
999.799
999.995
1000
1000
1000
999.999
999.998
980.298
999.869
1000
1000
1000
1000
999.999
999.998
980.125
999.795
999.996
1000
1000
1000
999.999
999.999
979.743
999.828
999.998
1000
1000
1000
999.999
999.999
978.451
1000
1000
1000
1000
1000
1000
1000
1000
1000
1000
1000
1000
1000
1000
1000
1000
1000
1000
1000
1000
1000
1000
1000
1000
1000
1000
1000
1000
1000
1000
1000
1000
1000
1000
1000
1000
1000
1000
1000
1000
1000
1000
1000
1000
1000
1000
1000
1000
1000
1000
1000
1000
1000
1000
1000
1000
1000
1000
1000
1000
1000
1000
1000
1000
1000
1000
1000
1000
1000
1000
1000
1000
1000
1000
1000
1000
1000
1000
1000
1000
1000
1000
1000
1000
1000
1000
1000
1000
1000
1000
1000
1000
1000
1000
1000
1000
1000
1000
1000
1000
1000
1000
1000
1000
1000
1000
1000
1000
1000
1000
1000
1000
1000
1000
1000
1000
1000
1000
1000
1000
1000
1000
1000
1000
1000
1000
1000
1000
1000
1000
1000
1000
1000
1000
1000
1000
1000
1000
1000
1000
1000
1000
1000
1000
1000
1000
1000
1000
1000
1000
1000
1000
1000
1000
1000
1000
1000
1000
1000
1000
1000
1000
1000
1000
1000
1000
1000
1000
1000
1000
1000
1000
1000
1000
1000
1000
1000
1000
1000
1000
1000
1000
1000
1000
1000
1000
1000
1000
1000
1000
1000
1000
1000
1000
1000
1000
1000
1000
1000
1000
1000
1000
1000
1000
1000
1000
1000
1000
1000
1000
1000
1000
1000
1000
1000
1000
1000
1000
1000
1000
1000
1000
1000
1000
1000
1000
1000
1000
1000
1000
1000
1000
1000
1000
1000
1000
1000
1000
1000
1000
1000
1000
1000
1000
1000
1000
1000
1000
1000
1000
1000
1000
1000
1000
1000
1000
1000
1000
1000
1000
1000
1000
1000
1000
1000
1000
1000
1000
1000
1000
1000
1000
1000
1000
1000
1000
1000
1000
1000
1000
1000
1000
1000
1000
1000
999.999
999.999
989.875
1000
1000
1000
1000
999.999
999.999
999.999
992.447
1000
1000
1000
1000
999.999
999.999
999.998
993.997
1000
1000
1000
1000
999.999
999.999
999.998
995.253
1000
1000
1000
1000
999.999
999.999
999.998
996.159
1000
1000
1000
1000
999.999
999.999
999.998
996.581
1000
1000
1000
1000
999.999
999.999
999.998
996.96
1000
1000
1000
1000
1000
1000
1000
1000
1000
1000
1000
1000
1000
1000
1000
1000
1000
1000
1000
1000
1000
1000
1000
1000
1000
1000
1000
1000
1000
1000
1000
1000
1000
1000
1000
1000
1000
1000
1000
1000
1000
1000
1000
1000
1000
1000
1000
1000
1000
1000
1000
1000
1000
1000
1000
1000
1000
1000
1000
1000
1000
1000
1000
1000
1000
1000
1000
1000
1000
1000
1000
1000
1000
1000
1000
1000
1000
1000
1000
1000
1000
1000
1000
1000
1000
1000
1000
1000
1000
1000
1000
1000
1000
1000
1000
1000
1000
1000
1000
1000
1000
1000
1000
1000
1000
1000
1000
1000
1000
1000
1000
1000
1000
1000
1000
1000
1000
1000
1000
1000
1000
1000
1000
1000
1000
1000
1000
1000
1000
1000
999.999
1000
1000
1000
1000
1000
1000
1000
1000
1000
1000
1000
1000
1000
1000
1000
1000
1000
1000
1000
1000
1000
1000
1000
1000
1000
1000
1000
1000
1000
1000
1000
999.998
1000
1000
1000
1000
1000
1000
1000
999.992
1000
1000
1000
1000
1000
1000
1000
1000
1000
1000
1000
1000
1000
997.976
998.878
999.982
1000
1000
1000
1000
1000
999.539
999.768
999.999
1000
1000
1000
1000
1000
999.301
999.888
1000
1000
1000
1000
1000
1000
999.497
999.768
999.999
1000
1000
1000
1000
1000
999.435
999.325
999.967
1000
1000
1000
1000
1000
996.977
997.639
999.928
1000
1000
995.662
999.865
997.441
989.977
993.346
1000
1000
1000
997.449
999.982
1000
963.6
982.287
999.985
1000
1000
999.858
999.99
991.516
964.888
984.359
999.999
1000
1000
1000
999.472
984.648
965.331
986.462
1000
1000
1000
1000
999.709
988.595
962.957
983.215
1000
1000
999.898
999.447
1000
994.839
961.734
978.49
999.969
1000
1000
998.329
1000
997.502
956.59
980.4
999.933
971.213
928.418
891.092
956.447
914.944
912.129
961.621
946.953
972.664
922.448
899.447
960.875
913.925
946.141
961.513
944.431
969.43
914.333
925.38
945.788
905.183
944.318
960.773
940.944
965.907
919.512
932.383
932.925
905.115
948.937
955.538
941.39
968.11
918.423
935.405
937.28
905.065
943.386
958.106
940.361
978.426
912.525
917.609
956.907
895.669
934.474
957.843
943.306
980.245
924.995
901.11
965.368
895.654
939.717
960.293
947.812
1000
1000
1000
1000
1000
1000
1000
1000
1000
1000
1000
1000
1000
1000
1000
1000
1000
1000
1000
1000
1000
1000
1000
1000
1000
1000
1000
1000
1000
1000
1000
1000
1000
1000
1000
1000
1000
1000
1000
1000
1000
1000
1000
1000
1000
1000
1000
1000
1000
1000
1000
1000
1000
1000
1000
1000
1000
1000
1000
1000
1000
1000
1000
1000
1000
1000
1000
1000
1000
1000
1000
1000
1000
1000
1000
1000
1000
1000
1000
1000
1000
1000
1000
1000
1000
1000
1000
1000
1000
1000
1000
1000
1000
1000
1000
1000
1000
1000
1000
1000
1000
1000
1000
1000
1000
1000
1000
1000
1000
1000
1000
1000
1000
1000
1000
1000
1000
1000
1000
1000
1000
1000
1000
1000
1000
1000
1000
1000
1000
1000
1000
1000
1000
1000
1000
1000
1000
1000
1000
1000
1000
1000
1000
1000
1000
1000
1000
1000
1000
1000
1000
1000
1000
1000
1000
1000
1000
1000
1000
1000
1000
1000
1000
1000
1000
1000
1000
1000
1000
1000
1000
1000
1000
1000
1000
1000
1000
1000
1000
1000
1000
1000
1000
1000
1000
1000
1000
1000
1000
1000
1000
1000
1000
1000
1000
1000
1000
1000
1000
1000
1000
1000
1000
1000
1000
1000
1000
1000
1000
1000
1000
1000
1000
1000
1000
1000
1000
1000
1000
1000
1000
1000
1000
1000
1000
1000
998.476
1000
999.26
992.726
997.159
1000
1000
1000
1000
1000
1000
992.561
996.695
1000
1000
1000
1000
1000
999.91
992.614
996.989
1000
1000
1000
1000
1000
999.563
993.488
997.456
1000
1000
1000
1000
1000
999.234
993.696
997.658
1000
1000
1000
1000
1000
998.722
993.506
997.649
1000
1000
1000
1000
1000
998.452
993.674
997.883
1000
986.321
950.878
901.927
958.458
936.493
906.005
957.309
957.546
978.433
964.254
924.981
942.311
937.594
915.286
952.084
960.413
974.625
937.237
940.232
957.212
935.285
919.159
950.473
961.646
954.931
925.616
951.76
958.904
929.904
918.992
949.883
962.694
941.592
921.393
955.389
960.062
927.459
917.782
949.887
963.452
931.393
916.216
956.946
962.39
925.176
915.337
949.543
963.645
923.57
907.567
957.097
966.258
923.442
915.123
949.546
963.419
1000
1000
1000
1000
1000
1000
1000
1000
1000
1000
1000
1000
1000
1000
1000
1000
1000
1000
1000
1000
1000
1000
1000
1000
1000
1000
1000
1000
1000
1000
1000
1000
1000
1000
1000
1000
1000
1000
1000
1000
1000
1000
1000
1000
1000
1000
1000
1000
1000
1000
1000
1000
1000
1000
1000
1000
1000
1000
1000
1000
1000
1000
1000
1000
1000
1000
1000
1000
1000
1000
1000
1000
1000
1000
1000
1000
1000
1000
1000
1000
1000
1000
1000
1000
1000
1000
1000
1000
1000
1000
1000
1000
1000
1000
1000
1000
1000
1000
1000
1000
1000
1000
1000
1000
1000
1000
1000
1000
1000
1000
1000
1000
1000
1000
1000
1000
1000
1000
1000
1000
1000
1000
1000
1000
1000
1000
1000
1000
1000
1000
1000
1000
1000
1000
1000
1000
1000
1000
1000
1000
1000
1000
1000
1000
1000
1000
1000
1000
1000
1000
1000
1000
1000
1000
1000
1000
1000
1000
1000
1000
1000
1000
1000
1000
1000
1000
1000
1000
1000
1000
1000
1000
1000
1000
1000
1000
1000
1000
1000
1000
1000
1000
1000
1000
1000
1000
1000
1000
1000
1000
1000
1000
1000
1000
1000
1000
1000
1000
1000
1000
1000
1000
1000
1000
1000
1000
1000
1000
1000
1000
1000
1000
1000
1000
1000
1000
1000
1000
1000
1000
1000
1000
1000
1000
1000
1000
1000
1000
997.632
992.782
997.762
1000
1000
1000
1000
1000
996.674
991.256
997.52
1000
1000
1000
998.479
999.984
997.443
989.127
995.932
1000
1000
1000
996.012
999.964
995.522
987.525
997.053
1000
1000
1000
996.755
1000
997.275
992.528
997.21
1000
1000
1000
997.044
999.992
998.13
985.293
993.2
1000
1000
1000
995.919
999.787
998.052
989.904
994.923
1000
924.155
904.198
955.876
965.937
918.967
916.201
948.721
962.444
932.691
911.422
950.916
956.416
916.743
919.57
948.27
960.698
954.383
938.73
905.897
936.173
928.508
912.575
949.899
958.559
962.515
929.86
895.247
949.866
921.033
912.527
955.975
954.471
965.16
920.427
899.696
957.878
917.014
913.205
961.42
950.981
966.018
924.78
896.635
959.392
920.001
927.881
961.459
948.995
968.364
931.003
888.352
956.731
920.751
923.899
959.448
947.883
1000
1000
1000
1000
1000
1000
1000
1000
1000
1000
1000
1000
1000
1000
1000
1000
1000
1000
1000
1000
1000
1000
1000
1000
1000
1000
1000
1000
1000
1000
1000
1000
1000
1000
1000
1000
1000
1000
1000
1000
1000
1000
1000
1000
1000
1000
1000
1000
1000
1000
1000
1000
1000
1000
1000
1000
1000
1000
1000
1000
1000
1000
1000
1000
1000
1000
1000
1000
1000
1000
1000
1000
1000
1000
1000
1000
1000
1000
1000
1000
1000
1000
1000
1000
1000
1000
1000
1000
1000
1000
1000
1000
1000
1000
1000
1000
1000
1000
1000
1000
1000
1000
1000
1000
1000
1000
1000
1000
1000
1000
1000
1000
1000
1000
1000
1000
1000
1000
1000
1000
1000
1000
999.989
1000
1000
1000
1000
1000
1000
1000
999.999
1000
1000
1000
1000
1000
1000
1000
1000
1000
1000
1000
1000
1000
1000
1000
1000
1000
1000
1000
1000
1000
1000
1000
1000
1000
1000
1000
1000
1000
1000
1000
1000
1000
1000
1000
1000
1000
1000
1000
1000
1000
1000
1000
1000
1000
995.092
996.204
999.903
1000
1000
1000
1000
1000
999.245
999.332
999.981
1000
1000
1000
1000
1000
1000
999.817
999.997
1000
1000
1000
1000
1000
1000
999.935
1000
1000
1000
1000
1000
1000
1000
1000
1000
1000
1000
1000
1000
1000
1000
1000
1000
1000
1000
1000
1000
1000
1000
1000
1000
1000
1000
999.041
1000
997.861
952.463
979.086
999.926
1000
1000
999.584
1000
994.819
957.263
981.727
999.986
1000
1000
999.485
1000
993.132
964.171
985.083
999.998
1000
1000
999.736
1000
992.485
970.386
986.989
1000
1000
1000
999.719
1000
990.385
978.368
991.421
1000
1000
1000
999.655
1000
990.381
983.036
993.448
1000
1000
1000
999.1
1000
996.175
989.411
996.206
1000
982.831
926.57
906.679
959.693
895.639
943.327
959.289
947.335
983.54
926.335
913.571
962.665
895.636
927.718
957.843
947.78
984.613
930.019
911.299
965.591
895.639
916.075
958.934
949.097
984.548
929.792
915.361
964.448
898.846
908.604
960.867
949.433
985.463
930.692
914.704
963.822
912.555
904.715
954.54
952.309
985.67
925.34
916.837
969.414
918.299
904.179
955.56
954.552
986.469
939.052
909.638
962.423
930.797
904.618
955.196
956.849
999.226
973.909
920.358
910.237
972.646
999.463
1000
965.593
679.811
553.474
546.031
665.444
959.007
999.999
865.395
434.34
393.704
580.968
569.39
851.881
999.997
858.253
470.781
575.582
484.985
739.232
843.389
998.788
945.192
599.823
476.393
624.62
575.051
912.126
999.999
998.048
922.645
806.036
861.797
908.694
996.77
1000
1000
999.999
999.992
999.986
999.999
1000
1000
999.999
999.988
998.869
985.144
999.289
999.999
1000
999.982
866.837
794.23
727.882
755.306
982.734
999.999
999.942
673.548
459.536
588.445
611.183
887.404
999.994
987.761
639.611
426.544
648.628
733.253
835.9
993.438
999.977
714.737
529.203
595.918
601.844
920.026
999.997
999.998
972.386
867.148
869.305
915.048
991.719
1000
1000
999.998
999.995
999.995
999.996
999.999
1000
487.739
515.132
556.368
560.303
500.794
512.277
734.665
505.415
482.126
647.781
514.203
411.544
480.347
689.027
641.072
616.466
308.581
308.26
313.129
462.509
668.603
681.923
483.103
297.625
385.487
265.077
374.124
604.827
556.62
441.325
298.963
243.426
291.775
423.023
663.353
499.267
503.162
482.043
404.172
413.259
483.74
801.096
654.835
720.764
736.349
620.314
627.283
763.209
974.334
268.826
270.009
261.029
253.952
241.644
244.667
394.81
265.182
268.823
270.917
248.089
238.942
241.632
333.961
256.744
329.665
489.867
291.292
237.894
238.933
368.454
247.981
352.946
298.545
300.145
237.483
237.88
414.592
242.223
238.133
237.408
237.48
237.262
237.476
361.181
247.245
242.221
238.221
237.265
237.482
239.345
424.861
250.151
247.164
243.68
239.441
239.458
299.829
731.794
282.697
527.911
554.623
550.705
552.125
548.13
445.054
464.534
524.638
524.554
503.228
524.365
524.956
484.624
466.116
542.81
564.064
550.88
531.949
537.072
538.472
456.851
557.583
565.39
559.026
542.518
535.837
542.263
482.453
528.519
551.04
557.468
554.466
546.656
543.682
451.044
432.197
468.829
489.74
514.297
544.042
530.098
342.008
294.478
333.355
371.997
415.635
450.421
480.055
1
0.99992
0.999323
0.999834
0.999996
1
1
0.999922
9.57251
46.2895
41.5606
6.06066
0.999995
1
1.01074
35.5733
78.2561
67.6801
29.7073
0.999876
1
2.35919
35.9367
72.1336
70.1893
32.4435
0.999801
1
0.999963
15.7946
42.8208
37.3557
5.48388
0.999996
1
1
0.999945
3.51043
1.6969
0.999994
1
1
1
1
0.999995
0.999999
1
1.00001
1
1
1
1
1
1
1
1
1
1
1
1
1
1
1
1
1
1
1
1
1
1
1
1
1
1
1
1
1
1
1
1
1
1
1
1
1
1
1
1
1
1
1
1
1
1
1
1
1
1.00006
1
1
1
1
1
1
1
1
1
1
1
1
1
1
1
1
1
1
1
1
1
1
1
1
1
1
1
1
1
1
1
1
1
1
1
1.00001
1
1
1
1
1
1
1.00002
1
1
1
1.00001
1.00023
1.00037
1
1
1
1
1
1
1
1
1
1
1
1
1
1
1
1
1
1
1
1
1
1
1
1
1
1
1
1
1
1
1
1
1
1
1
1
1
1
1
1
1
1
1
1
1
1
1
1
1
1
1
1
1
1
1
1
1
1
1
1
1
1
1
1
1
1
1
1
1
1
1
1
1
1
1
1
1
1
1
1
1
1
1
1
1
1
1
1
1
1
1
1
1
1
1
1
1
1
1000
1000
999.999
1000
1000
999.871
999.805
999.84
1000
1000
1000
1000
1000
1000
1000
1000
1000
1000
1000
1000
1000
1000
1000
1000
1000
1000
1000
1000
1000
1000
1000
1000
1000
1000
1000
1000
1000
1000
1000
1000
1000
1000
1000
1000
1000
1000
1000
1000
1000
1000
1000
1000
1000
999.994
1000
1000
1000
1000
1000
1000
1000
1000
1000
1000
1000
1000
1000
1000
1000
1000
1000
1000.01
1000
1000
1000
1000
1000
1000
1000
1000
1000
1000
1000
1000
1000
1000
1000
1000
1000
1000
1000
1000
1000
1000
1000
1000
1000
1000
1000
1000
1000
1000
1000
1000.01
1000
1000
1000
1000
1000
1000
1000
1000
997
1000
1000
1000
1000
996.851
982.135
938.4
972.34
1000
1000
1000
1000
996.44
953.607
807.174
959.072
1000
1000
1000
1000
983.097
906.802
897.792
944.9
1000
1000
1000
1000
971.842
912.494
934.501
975.017
1000
1000
1000
1000
970.68
880.026
889.516
1000.01
1000
1000
1000
1000
989.74
888.348
722.719
1000
1000
1000
1000
998.65
981.797
960.728
757.236
913.25
999.714
986.8
979.78
948.903
527.748
13.8478
0.989257
841.109
999.332
986.646
972.012