/*--------------------------------*- C++ -*----------------------------------*\
| =========                 |                                                 |
| \\      /  F ield         | OpenFOAM: The Open Source CFD Toolbox           |
|  \\    /   O peration     | Version:  plus.master.MPPICInterFoam            |
|   \\  /    A nd           | Web:      www.OpenFOAM.com                      |
|    \\/     M anipulation  |                                                 |
\*---------------------------------------------------------------------------*/
FoamFile
{
    version     2.0;
    format      ascii;
    class       volScalarField;
    location    "1";
    object      epsilon;
}
// * * * * * * * * * * * * * * * * * * * * * * * * * * * * * * * * * * * * * //

dimensions      [0 2 -3 0 0 0 0];

internalField   nonuniform List<scalar> 
11821
(
0.000879392
0.000885735
0.000868034
0.000879398
0.000868037
0.000848198
0.00084788
0.000867432
0.000878052
0.000881435
0.000878069
0.00086747
0.000847986
0.000867435
0.000884407
0.000893784
0.000896775
0.000893807
0.000884453
0.000867542
0.000878058
0.000893787
0.000902403
0.000905146
0.000902432
0.000893845
0.00087818
0.000881444
0.00089678
0.000905148
0.000907808
0.000905186
0.00089686
0.0008816
0.000878081
0.000893813
0.000902435
0.000905187
0.00090249
0.000893921
0.000878165
0.000867483
0.00088446
0.000893847
0.000896861
0.00089392
0.000884488
0.000867484
0.000847995
0.000867544
0.00087818
0.000881599
0.000878164
0.000867483
0.000847919
0.000847937
0.000867459
0.000878052
0.00088141
0.000878021
0.000867402
0.000847897
0.000867458
0.000884407
0.000893764
0.000896734
0.000893745
0.000884371
0.000867437
0.000878054
0.000893765
0.000902366
0.000905089
0.000902353
0.00089374
0.000878044
0.000881414
0.000896737
0.00090509
0.00090773
0.000905079
0.000896715
0.000881406
0.000878028
0.000893749
0.000902356
0.00090508
0.000902342
0.000893721
0.00087801
0.000867412
0.000884377
0.000893743
0.000896716
0.000893721
0.00088433
0.00086737
0.000847909
0.000867442
0.000878045
0.000881407
0.000878009
0.00086737
0.000847834
0.000847995
0.000867496
0.000878071
0.000881414
0.000878014
0.000867389
0.000847883
0.000867494
0.000884433
0.000893778
0.000896738
0.00089374
0.000884359
0.000867422
0.000878071
0.000893779
0.000902373
0.000905089
0.000902347
0.000893728
0.000878026
0.000881417
0.000896741
0.00090509
0.000907725
0.00090507
0.000896701
0.000881389
0.000878022
0.000893745
0.00090235
0.000905071
0.00090233
0.000893708
0.000877998
0.000867402
0.000884368
0.000893733
0.000896704
0.000893709
0.000884322
0.000867368
0.000847899
0.000867431
0.000878032
0.000881393
0.000878001
0.00086737
0.000847843
0.000848008
0.000867506
0.000878079
0.000881423
0.000878027
0.000867407
0.000847906
0.000867504
0.000884442
0.000893786
0.000896746
0.00089375
0.000884372
0.000867435
0.000878079
0.000893786
0.000902381
0.000905096
0.000902356
0.000893737
0.000878036
0.000881425
0.000896748
0.000905097
0.000907733
0.000905079
0.000896712
0.000881402
0.000878033
0.000893753
0.000902357
0.00090508
0.000902342
0.000893724
0.000878019
0.000867416
0.000884376
0.000893739
0.000896713
0.000893724
0.000884346
0.0008674
0.000847915
0.000867438
0.000878038
0.000881403
0.00087802
0.000867402
0.000847888
0.000847981
0.000867486
0.000878068
0.000881421
0.000878034
0.00086742
0.000847919
0.000867482
0.000884425
0.000893775
0.000896741
0.00089375
0.000884374
0.000867436
0.000878063
0.000893773
0.00090237
0.00090509
0.000902352
0.000893736
0.000878033
0.000881415
0.000896737
0.000905088
0.000907726
0.000905076
0.000896712
0.000881403
0.000878027
0.000893744
0.000902348
0.000905074
0.000902341
0.000893729
0.000878029
0.000867411
0.000884366
0.000893729
0.000896708
0.000893727
0.000884358
0.000867423
0.000847904
0.000867422
0.000878023
0.000881396
0.000878026
0.000867422
0.000847924
0.000847943
0.000867453
0.000878039
0.000881396
0.000878012
0.000867398
0.000847894
0.000867449
0.000884395
0.000893748
0.000896716
0.000893725
0.000884349
0.000867406
0.000878033
0.000893745
0.000902344
0.000905065
0.000902327
0.000893709
0.000878003
0.000881388
0.000896711
0.000905062
0.000907702
0.000905052
0.000896687
0.000881375
0.000878002
0.000893718
0.000902323
0.00090505
0.000902318
0.000893706
0.000878006
0.000867386
0.000884339
0.000893703
0.000896683
0.000893705
0.000884339
0.000867406
0.000847877
0.000867392
0.000877994
0.00088137
0.000878003
0.000867405
0.000847914
0.000847937
0.00086744
0.000878022
0.000881377
0.000877992
0.000867379
0.000847879
0.00086744
0.00088438
0.000893728
0.000896694
0.000893703
0.000884328
0.00086739
0.000878023
0.000893729
0.000902323
0.000905042
0.000902303
0.000893686
0.000877983
0.000881378
0.000896696
0.000905043
0.000907679
0.000905026
0.000896659
0.000881348
0.000877995
0.000893707
0.000902306
0.000905027
0.000902291
0.000893674
0.000877971
0.000867386
0.000884335
0.000893692
0.000896664
0.000893676
0.000884302
0.000867361
0.000847891
0.0008674
0.000877992
0.000881355
0.000877976
0.000867364
0.000847861
0.000847936
0.000867436
0.000878017
0.00088137
0.000877986
0.000867376
0.000847887
0.000867435
0.000884371
0.000893718
0.000896684
0.000893695
0.000884326
0.000867399
0.000878017
0.000893718
0.000902311
0.000905029
0.000902292
0.00089368
0.000877987
0.000881372
0.000896685
0.00090503
0.000907664
0.000905012
0.000896648
0.000881343
0.00087799
0.000893699
0.000902295
0.000905014
0.000902274
0.000893656
0.000877953
0.000867385
0.000884332
0.000893685
0.000896652
0.000893659
0.000884277
0.00086733
0.0008479
0.000867408
0.000877995
0.000881351
0.00087796
0.000867335
0.000847816
0.000847889
0.000867405
0.000877996
0.000881356
0.000877973
0.000867365
0.000847879
0.000867398
0.000884345
0.000893701
0.000896672
0.000893686
0.000884319
0.000867397
0.000877987
0.000893697
0.000902298
0.000905021
0.000902288
0.000893679
0.000877991
0.000881347
0.000896668
0.000905019
0.000907659
0.000905011
0.000896651
0.00088135
0.000877966
0.000893682
0.000902286
0.00090501
0.000902275
0.000893661
0.000877962
0.000867359
0.000884314
0.000893676
0.000896649
0.00089366
0.000884282
0.000867339
0.000847867
0.000867388
0.000877985
0.000881348
0.000877962
0.000867341
0.000847824
0.000847841
0.000867375
0.000877983
0.000881355
0.00087798
0.000867373
0.000847878
0.00086737
0.00088433
0.000893698
0.000896678
0.000893697
0.000884328
0.000867397
0.000877977
0.000893697
0.000902305
0.000905034
0.000902303
0.000893692
0.000877995
0.000881351
0.000896676
0.000905033
0.000907676
0.000905029
0.000896667
0.00088136
0.000877978
0.000893695
0.000902301
0.000905028
0.000902295
0.000893681
0.000877978
0.000867371
0.000884325
0.000893689
0.000896665
0.00089368
0.000884304
0.000867361
0.000847869
0.000867388
0.000877988
0.000881356
0.000877977
0.000867362
0.000847851
0.000847888
0.000867422
0.000878036
0.000881415
0.000878046
0.000867438
0.00084793
0.000867426
0.000884387
0.000893757
0.00089674
0.000893758
0.000884382
0.000867433
0.000878043
0.00089376
0.000902368
0.000905096
0.000902361
0.00089374
0.000878025
0.000881425
0.000896745
0.000905098
0.000907738
0.000905086
0.000896715
0.000881392
0.000878058
0.000893765
0.000902365
0.000905088
0.000902351
0.00089373
0.000878016
0.000867451
0.000884391
0.000893746
0.000896718
0.000893731
0.000884354
0.000867404
0.000847943
0.000867441
0.000878031
0.000881397
0.00087802
0.000867408
0.000847897
0.000847979
0.000867518
0.000878134
0.000881516
0.000878147
0.000867536
0.000848019
0.000867522
0.000884486
0.000893857
0.00089684
0.000893857
0.000884477
0.000867518
0.00087814
0.000893859
0.000902467
0.000905194
0.000902457
0.000893833
0.000878111
0.000881522
0.000896843
0.000905195
0.000907835
0.000905183
0.00089681
0.000881484
0.000878153
0.000893861
0.00090246
0.000905184
0.000902449
0.00089383
0.000878118
0.000867541
0.000884481
0.000893836
0.000896813
0.000893832
0.000884461
0.000867519
0.000848023
0.000867522
0.000878115
0.000881489
0.000878122
0.000867523
0.000848026
0.000848041
0.000867594
0.000878214
0.000881599
0.00087823
0.000867616
0.000848097
0.000867595
0.000884568
0.000893941
0.000896926
0.000893943
0.000884564
0.000867607
0.000878216
0.000893942
0.000902549
0.000905276
0.000902541
0.000893918
0.0008782
0.000881598
0.000896924
0.000905275
0.000907916
0.000905265
0.000896896
0.000881574
0.000878226
0.000893939
0.000902538
0.000905263
0.000902531
0.000893916
0.00087821
0.000867609
0.000884555
0.000893912
0.000896891
0.000893914
0.000884548
0.000867613
0.000848081
0.000867591
0.000878189
0.000881567
0.000878206
0.000867613
0.000848124
0.000848078
0.000867631
0.000878243
0.00088162
0.000878245
0.000867628
0.000848109
0.000867631
0.000884603
0.000893967
0.000896945
0.000893958
0.000884576
0.000867622
0.000878244
0.000893967
0.000902567
0.000905288
0.000902549
0.000893925
0.000878209
0.00088162
0.000896944
0.000905287
0.000907922
0.000905267
0.000896897
0.000881576
0.000878243
0.000893954
0.000902545
0.000905265
0.000902529
0.000893911
0.000878203
0.000867623
0.000884568
0.000893918
0.000896891
0.000893908
0.000884537
0.000867598
0.000848095
0.000867604
0.000878195
0.000881567
0.000878198
0.000867597
0.000848098
0.000848059
0.000867597
0.000878195
0.000881561
0.000878181
0.000867565
0.000848056
0.000867595
0.000884553
0.000893907
0.000896876
0.000893887
0.000884509
0.000867565
0.000878193
0.000893906
0.000902497
0.000905215
0.000902475
0.000893857
0.000878151
0.00088156
0.000896875
0.000905214
0.000907846
0.000905193
0.000896827
0.000881516
0.000878181
0.000893885
0.000902474
0.000905192
0.000902455
0.000893841
0.000878141
0.000867567
0.000884506
0.000893854
0.000896825
0.00089384
0.000884471
0.000867535
0.000848053
0.000867557
0.000878145
0.000881512
0.00087814
0.000867536
0.000848038
0.000848023
0.000867549
0.000878144
0.00088151
0.000878136
0.000867532
0.000848041
0.000867548
0.000884499
0.000893852
0.000896827
0.000893846
0.00088448
0.00086755
0.000878143
0.000893852
0.000902449
0.000905175
0.000902445
0.000893837
0.000878143
0.000881513
0.000896828
0.000905175
0.000907816
0.000905171
0.000896814
0.000881512
0.000878142
0.000893848
0.000902446
0.000905172
0.000902442
0.000893835
0.000878142
0.000867541
0.000884484
0.000893839
0.000896815
0.000893836
0.000884472
0.000867544
0.000848049
0.000867551
0.000878143
0.000881513
0.000878145
0.000867546
0.000848058
0.000589474
0.00076289
0.000791452
0.000745545
0.000691839
0.000634189
0.000591012
0.000746004
0.000860176
0.000832095
0.000795508
0.000749922
0.000695791
0.000636971
0.000591576
0.000740169
0.000855599
0.000827163
0.000790544
0.000745108
0.000691516
0.00063385
0.000590628
0.000745198
0.000843054
0.000813561
0.00077644
0.000731355
0.000679411
0.00062524
0.000588576
0.000761612
0.000820912
0.000790923
0.000753714
0.000709796
0.000660948
0.000612568
0.000586309
0.000787718
0.000820864
0.000790944
0.000753766
0.000709859
0.000661011
0.000612623
0.000586362
0.000787854
0.000842916
0.00081357
0.000776531
0.000731498
0.000679599
0.000625479
0.000588867
0.000762223
0.000855174
0.000827053
0.000790538
0.000745161
0.000691622
0.000634013
0.000590873
0.000745759
0.000859112
0.000831424
0.000795186
0.000749755
0.000695687
0.000636892
0.000591505
0.000740053
0.00085507
0.00082689
0.000790387
0.000745003
0.000691437
0.000633784
0.000590563
0.000745085
0.000842784
0.000813395
0.000776319
0.000731256
0.000679323
0.000625153
0.000588479
0.000761438
0.000820733
0.000790782
0.000753591
0.000709679
0.000660829
0.000612437
0.000586151
0.000787419
0.000820757
0.000790831
0.000753655
0.000709753
0.000660907
0.000612518
0.00058624
0.000787587
0.000842792
0.000813441
0.000776401
0.000731374
0.000679476
0.000625343
0.000588722
0.000761918
0.000855009
0.000826871
0.000790404
0.000745054
0.000691521
0.000633906
0.000590739
0.000745451
0.000858965
0.000831303
0.000795089
0.00074967
0.000695605
0.000636804
0.000591391
0.000739785
0.000854957
0.0008268
0.000790311
0.000744933
0.000691368
0.000633711
0.000590475
0.000744883
0.000842698
0.000813323
0.000776255
0.000731196
0.000679261
0.000625086
0.000588395
0.000761241
0.000820664
0.000790721
0.000753535
0.000709625
0.000660772
0.000612373
0.000586068
0.000787224
0.000820743
0.000790821
0.000753651
0.00070976
0.000660929
0.000612558
0.000586302
0.00078771
0.000842773
0.000813422
0.000776381
0.000731355
0.000679458
0.000625325
0.000588699
0.000761844
0.000854988
0.000826846
0.000790374
0.000745018
0.000691475
0.000633843
0.000590642
0.000745196
0.000858946
0.000831282
0.000795064
0.000749637
0.000695558
0.000636738
0.000591285
0.000739501
0.000854947
0.000826791
0.000790299
0.000744917
0.000691345
0.000633676
0.000590418
0.000744712
0.0008427
0.000813331
0.000776266
0.000731209
0.000679274
0.000625095
0.000588395
0.000761193
0.00082068
0.000790746
0.000753569
0.000709668
0.000660824
0.000612435
0.000586142
0.000787354
0.000820769
0.000790854
0.000753694
0.000709814
0.000660996
0.000612639
0.000586407
0.000787929
0.000842787
0.000813435
0.000776394
0.000731366
0.000679466
0.000625329
0.000588696
0.000761817
0.000854996
0.000826851
0.000790374
0.00074501
0.000691457
0.000633811
0.000590584
0.000745029
0.000858959
0.000831294
0.000795073
0.000749642
0.000695557
0.000636728
0.000591259
0.000739396
0.000854972
0.000826821
0.000790333
0.000744955
0.000691384
0.000633716
0.000590455
0.000744735
0.000842741
0.000813382
0.000776329
0.000731281
0.000679356
0.000625185
0.000588496
0.000761363
0.000820738
0.000790816
0.000753653
0.000709764
0.000660933
0.000612555
0.000586286
0.000787639
0.000820779
0.000790866
0.000753708
0.000709831
0.000661015
0.000612661
0.000586434
0.000787989
0.000842782
0.000813423
0.000776373
0.000731333
0.000679418
0.000625262
0.000588597
0.000761591
0.000854988
0.000826836
0.000790349
0.000744971
0.000691403
0.000633737
0.000590479
0.000744783
0.00085896
0.000831292
0.000795067
0.000749632
0.000695543
0.000636708
0.00059123
0.000739319
0.000854988
0.000826842
0.000790361
0.00074499
0.000691427
0.000633768
0.00059052
0.00074486
0.000842774
0.000813429
0.000776389
0.000731357
0.000679446
0.000625292
0.00058863
0.000761641
0.000820789
0.000790882
0.000753734
0.000709861
0.000661044
0.000612682
0.000586443
0.000787971
0.000820747
0.00079083
0.000753669
0.000709787
0.000660965
0.000612602
0.000586356
0.000787819
0.000842742
0.000813375
0.000776313
0.000731258
0.000679325
0.000625144
0.000588436
0.00076122
0.00085495
0.000826788
0.000790288
0.000744896
0.00069131
0.000633622
0.000590325
0.000744426
0.000858927
0.000831253
0.000795021
0.000749576
0.000695477
0.000636629
0.000591126
0.000739076
0.000854964
0.000826818
0.000790336
0.000744963
0.000691398
0.000633734
0.000590473
0.000744749
0.000842761
0.00081342
0.000776386
0.000731361
0.000679459
0.000625317
0.000588673
0.000761756
0.000820786
0.000790888
0.000753752
0.000709893
0.000661094
0.000612759
0.000586565
0.000788282
0.000820739
0.000790827
0.00075367
0.000709791
0.000660971
0.000612608
0.00058636
0.00078782
0.000842735
0.000813376
0.000776325
0.000731281
0.000679358
0.000625186
0.000588483
0.000761277
0.000854936
0.000826783
0.000790294
0.000744913
0.000691337
0.000633656
0.000590358
0.000744441
0.000858902
0.000831232
0.000795003
0.000749563
0.000695465
0.000636616
0.0005911
0.000738975
0.000854925
0.000826775
0.000790289
0.000744912
0.000691339
0.000633664
0.000590378
0.000744524
0.000842709
0.00081336
0.000776317
0.000731282
0.000679368
0.000625209
0.000588533
0.000761456
0.000820723
0.000790817
0.000753671
0.000709803
0.000660995
0.000612648
0.000586432
0.000788041
0.000820765
0.000790866
0.000753722
0.000709857
0.000661053
0.00061271
0.000586502
0.000788161
0.000842762
0.000813426
0.000776402
0.000731392
0.000679511
0.000625395
0.000588788
0.00076198
0.000854957
0.000826826
0.000790364
0.000745018
0.000691485
0.000633858
0.00059065
0.000745099
0.000858908
0.000831252
0.000795042
0.000749623
0.000695551
0.000636732
0.000591262
0.000739322
0.000854911
0.000826764
0.000790282
0.000744908
0.000691341
0.000633669
0.000590385
0.00074452
0.000842671
0.000813313
0.000776259
0.000731211
0.000679284
0.000625108
0.000588402
0.00076117
0.000820663
0.00079074
0.000753574
0.000709683
0.00066085
0.000612471
0.0005862
0.000787548
0.000820763
0.000790866
0.000753723
0.00070986
0.000661059
0.000612722
0.00058653
0.000788279
0.000842767
0.000813437
0.000776421
0.000731423
0.000679559
0.000625468
0.000588911
0.000762322
0.000854967
0.000826843
0.000790392
0.000745059
0.000691542
0.00063394
0.000590779
0.00074544
0.000858921
0.000831272
0.000795071
0.000749663
0.000695605
0.000636805
0.000591372
0.000739603
0.000854925
0.000826783
0.000790307
0.000744941
0.000691382
0.000633723
0.000590463
0.000744707
0.000842683
0.000813326
0.000776275
0.000731229
0.000679303
0.00062513
0.000588428
0.000761216
0.000820672
0.000790748
0.000753581
0.000709688
0.00066085
0.000612464
0.000586181
0.000787474
0.000820747
0.000790838
0.000753682
0.000709804
0.000660985
0.000612626
0.000586397
0.000787978
0.000842752
0.000813403
0.000776365
0.000731338
0.000679437
0.000625298
0.000588657
0.000761743
0.000854957
0.000826815
0.000790339
0.000744976
0.000691422
0.000633771
0.000590527
0.000744862
0.00085892
0.000831256
0.000795037
0.000749607
0.000695521
0.000636686
0.000591194
0.000739184
0.000854933
0.000826784
0.000790298
0.000744921
0.000691349
0.000633676
0.000590391
0.000744537
0.000842703
0.000813346
0.000776294
0.000731248
0.000679322
0.000625149
0.000588447
0.000761241
0.000820701
0.000790782
0.000753622
0.000709736
0.000660907
0.000612533
0.000586268
0.000787641
0.000820775
0.000790857
0.000753692
0.000709805
0.000660976
0.000612607
0.000586359
0.00078785
0.00084276
0.000813385
0.000776313
0.000731246
0.000679299
0.000625102
0.000588369
0.000761047
0.00085496
0.000826786
0.000790273
0.000744865
0.000691262
0.000633554
0.000590218
0.000744119
0.000858929
0.000831239
0.000794989
0.000749525
0.000695404
0.000636529
0.000590974
0.000738639
0.000854955
0.000826789
0.000790285
0.000744888
0.000691295
0.000633595
0.000590267
0.000744189
0.000842739
0.000813376
0.000776318
0.000731264
0.00067933
0.000625143
0.000588418
0.000761098
0.000820746
0.000790828
0.000753669
0.000709784
0.000660957
0.000612583
0.000586318
0.00078769
0.000820852
0.000790923
0.000753746
0.000709845
0.000661004
0.00061262
0.000586353
0.000787748
0.000842832
0.00081344
0.000776349
0.000731261
0.000679293
0.000625072
0.000588303
0.000760789
0.000855035
0.000826847
0.000790317
0.000744893
0.000691274
0.000633549
0.000590187
0.000743927
0.000859016
0.000831319
0.00079506
0.000749589
0.000695461
0.000636579
0.00059101
0.00073859
0.000855059
0.000826894
0.000790392
0.000744996
0.000691405
0.000633708
0.000590383
0.00074431
0.000842861
0.000813508
0.000776459
0.000731415
0.000679492
0.000625319
0.000588616
0.000761406
0.000820888
0.000790982
0.000753834
0.000709964
0.000661151
0.000612797
0.000586568
0.000788125
0.000820926
0.000790984
0.000753791
0.000709874
0.000661015
0.000612613
0.000586316
0.000787537
0.000842921
0.000813526
0.00077643
0.000731341
0.000679375
0.000625161
0.000588403
0.000760901
0.000855129
0.000826944
0.000790418
0.000745001
0.000691392
0.000633681
0.00059034
0.000744161
0.000859113
0.000831421
0.00079517
0.000749707
0.000695589
0.000636719
0.000591169
0.000738843
0.000855158
0.000827
0.000790504
0.000745116
0.000691535
0.000633851
0.000590547
0.000744586
0.000842964
0.000813615
0.000776572
0.000731535
0.00067962
0.00062546
0.000588785
0.000761705
0.000820995
0.000791091
0.000753946
0.000710079
0.00066127
0.000612925
0.000586717
0.000788379
0.000820942
0.000790997
0.0007538
0.000709878
0.000661015
0.000612607
0.000586291
0.000787398
0.000842941
0.000813548
0.000776455
0.000731367
0.000679401
0.000625184
0.000588416
0.000760867
0.000855143
0.000826962
0.000790442
0.000745029
0.000691421
0.000633707
0.000590356
0.000744148
0.000859118
0.000831429
0.00079518
0.000749719
0.000695601
0.000636726
0.000591165
0.0007388
0.000855151
0.00082699
0.00079049
0.000745097
0.000691507
0.00063381
0.000590485
0.00074443
0.000842943
0.000813584
0.000776528
0.000731474
0.000679538
0.000625352
0.00058863
0.000761352
0.000820958
0.000791039
0.000753875
0.000709983
0.000661147
0.000612766
0.000586499
0.000787883
0.000820904
0.000790974
0.000753794
0.000709889
0.000661039
0.000612639
0.00058633
0.000787513
0.000842901
0.000813527
0.000776455
0.000731387
0.000679438
0.000625232
0.000588472
0.000761003
0.000855101
0.000826939
0.000790439
0.000745045
0.000691453
0.000633751
0.000590407
0.00074427
0.00085907
0.000831397
0.000795165
0.000749721
0.000695618
0.000636759
0.000591216
0.000738945
0.000855099
0.00082695
0.000790463
0.000745082
0.000691505
0.00063382
0.000590508
0.000744515
0.000842887
0.000813538
0.000776491
0.000731447
0.000679519
0.000625336
0.00058861
0.000761325
0.000820903
0.000790992
0.000753836
0.000709952
0.00066112
0.000612738
0.000586457
0.000787808
0.000820913
0.000791009
0.000753855
0.00070998
0.000661167
0.000612817
0.000586605
0.000788294
0.000842906
0.000813554
0.000776507
0.000731469
0.000679556
0.000625401
0.000588737
0.000761738
0.000855108
0.000826962
0.000790479
0.000745107
0.000691545
0.000633886
0.000590629
0.000744907
0.000859078
0.000831417
0.000795198
0.00074977
0.000695689
0.000636861
0.000591384
0.000739442
0.000855111
0.000826974
0.0007905
0.000745136
0.000691579
0.000633926
0.00059068
0.00074502
0.000842908
0.000813573
0.000776542
0.000731519
0.000679621
0.000625484
0.000588854
0.000762019
0.000820939
0.000791045
0.000753909
0.000710052
0.00066126
0.000612938
0.00058678
0.000788704
0.000820828
0.00079089
0.00075369
0.00070976
0.000660884
0.000612462
0.000586146
0.00078739
0.000842831
0.000813444
0.000776358
0.000731282
0.000679332
0.000625145
0.000588457
0.000761403
0.00085504
0.00082687
0.000790371
0.000744991
0.000691433
0.000633795
0.000590605
0.000745226
0.000859006
0.000831327
0.000795104
0.000749686
0.000695633
0.00063686
0.000591504
0.000740111
0.000855018
0.000826856
0.000790368
0.000745005
0.000691466
0.000633851
0.000590689
0.000745388
0.000842775
0.000813396
0.000776323
0.000731263
0.000679332
0.000625163
0.000588484
0.000761399
0.000820749
0.00079079
0.000753581
0.000709644
0.00066076
0.000612324
0.000585964
0.000786917
0.000820735
0.000790791
0.000753593
0.000709666
0.000660792
0.000612369
0.000586037
0.000787157
0.000842748
0.000813352
0.000776258
0.000731171
0.000679208
0.000625004
0.000588279
0.000761024
0.000854978
0.000826798
0.000790285
0.000744888
0.000691307
0.000633639
0.000590394
0.000744763
0.000858972
0.00083129
0.000795057
0.000749623
0.000695547
0.000636739
0.00059132
0.000739672
0.000855016
0.00082686
0.000790377
0.000745012
0.000691466
0.000633838
0.000590655
0.000745292
0.000842809
0.000813448
0.000776397
0.000731355
0.000679439
0.000625282
0.000588623
0.000761671
0.000820818
0.000790886
0.00075371
0.000709806
0.000660954
0.000612551
0.000586244
0.000787487
0.000820725
0.000790785
0.000753594
0.000709678
0.000660818
0.00061241
0.000586096
0.000787264
0.000842732
0.00081333
0.00077623
0.000731137
0.000679165
0.000624948
0.000588196
0.000760787
0.000854963
0.000826771
0.000790241
0.000744822
0.000691214
0.000633513
0.000590212
0.000744311
0.000858969
0.000831274
0.000795024
0.000749567
0.00069546
0.000636613
0.00059113
0.000739203
0.000855033
0.000826875
0.000790385
0.000745009
0.000691445
0.00063379
0.000590559
0.000745018
0.000842854
0.000813504
0.000776465
0.000731436
0.000679532
0.000625392
0.000588765
0.000761972
0.000820894
0.000790986
0.00075384
0.000709973
0.000661164
0.000612816
0.000586607
0.000788299
0.000820753
0.000790823
0.000753647
0.000709748
0.000660909
0.000612525
0.000586249
0.000787582
0.000842756
0.000813365
0.000776279
0.000731202
0.00067925
0.000625052
0.000588325
0.000761011
0.000854979
0.000826792
0.000790268
0.000744855
0.000691253
0.000633555
0.000590251
0.00074432
0.000858977
0.000831283
0.00079503
0.000749569
0.000695455
0.000636597
0.00059109
0.00073905
0.00085504
0.00082688
0.000790386
0.000745002
0.000691427
0.000633755
0.000590494
0.000744821
0.000842864
0.000813515
0.000776476
0.000731448
0.000679544
0.000625402
0.000588771
0.000761967
0.000820911
0.000791009
0.000753871
0.000710016
0.000661222
0.000612896
0.000586728
0.000788597
0.000820753
0.000790831
0.000753663
0.000709775
0.000660949
0.000612581
0.000586327
0.000787749
0.000842762
0.000813384
0.000776315
0.000731259
0.00067933
0.000625159
0.000588469
0.000761308
0.000854981
0.000826805
0.000790296
0.0007449
0.000691316
0.000633637
0.000590358
0.000744521
0.000858971
0.00083128
0.000795033
0.000749578
0.000695472
0.00063662
0.000591118
0.000739078
0.000855023
0.00082686
0.000790363
0.000744975
0.000691396
0.000633719
0.000590445
0.000744696
0.000842838
0.000813483
0.000776437
0.000731401
0.000679487
0.00062533
0.000588667
0.00076172
0.000820879
0.00079097
0.000753826
0.000709965
0.000661164
0.000612828
0.000586638
0.00078841
0.00082073
0.00079081
0.000753647
0.000709765
0.000660945
0.000612584
0.000586339
0.000787778
0.000842739
0.000813365
0.0007763
0.000731247
0.000679321
0.000625152
0.00058846
0.000761282
0.000854957
0.000826783
0.000790276
0.000744881
0.000691297
0.000633615
0.000590325
0.000744437
0.000858943
0.000831253
0.000795006
0.00074955
0.000695441
0.000636584
0.000591068
0.000738954
0.000854991
0.000826826
0.000790327
0.000744937
0.000691353
0.000633668
0.000590376
0.000744527
0.000842802
0.000813444
0.000776396
0.000731356
0.000679438
0.000625273
0.000588592
0.000761541
0.000820838
0.000790927
0.000753781
0.000709917
0.000661115
0.000612777
0.000586577
0.000788286
0.000820749
0.000790835
0.000753677
0.000709799
0.000660981
0.000612622
0.000586385
0.000787903
0.000842742
0.00081337
0.000776304
0.000731248
0.000679315
0.000625136
0.000588428
0.00076121
0.000854954
0.000826782
0.000790275
0.000744878
0.000691289
0.000633599
0.000590295
0.000744347
0.000858939
0.000831254
0.000795012
0.00074956
0.000695453
0.000636595
0.000591072
0.000738926
0.000854989
0.000826832
0.000790342
0.000744963
0.000691389
0.000633713
0.000590427
0.000744602
0.000842801
0.000813452
0.000776414
0.000731388
0.000679487
0.000625344
0.000588698
0.000761784
0.00082084
0.000790936
0.000753798
0.000709945
0.000661156
0.000612836
0.000586673
0.00078854
0.000820755
0.000790841
0.000753678
0.000709791
0.00066096
0.000612584
0.000586327
0.000787815
0.000842741
0.000813366
0.000776296
0.000731232
0.000679289
0.000625098
0.000588377
0.000761121
0.000854951
0.000826782
0.000790277
0.000744883
0.000691297
0.000633611
0.000590312
0.000744384
0.000858938
0.00083126
0.000795028
0.000749587
0.000695493
0.000636651
0.000591148
0.000739082
0.000854988
0.00082684
0.000790361
0.000744997
0.000691444
0.000633796
0.000590562
0.000744933
0.000842801
0.000813459
0.000776429
0.000731412
0.000679524
0.000625401
0.000588796
0.000762057
0.000820842
0.00079094
0.000753805
0.000709952
0.000661163
0.000612844
0.000586692
0.000788645
0.000820709
0.000790782
0.000753604
0.000709698
0.000660845
0.000612441
0.000586136
0.000787395
0.000842705
0.000813322
0.000776242
0.000731167
0.000679211
0.000625003
0.000588252
0.000760838
0.000854921
0.000826748
0.000790239
0.000744842
0.000691254
0.000633564
0.000590254
0.000744251
0.000858907
0.000831224
0.000794989
0.000749549
0.000695457
0.000636618
0.000591114
0.000739014
0.000854949
0.000826793
0.000790306
0.000744933
0.000691371
0.000633714
0.00059046
0.000744725
0.00084275
0.000813393
0.000776344
0.000731303
0.000679385
0.000625222
0.000588547
0.000761517
0.000820776
0.000790856
0.000753697
0.000709813
0.000660985
0.000612615
0.000586374
0.000787968
0.000820718
0.000790794
0.000753622
0.000709724
0.000660882
0.00061249
0.000586197
0.000787466
0.000842723
0.000813348
0.00077628
0.000731219
0.000679277
0.000625083
0.000588344
0.000760966
0.000854934
0.000826766
0.000790263
0.000744871
0.000691287
0.000633597
0.00059028
0.000744242
0.000858906
0.00083122
0.00079498
0.000749534
0.000695434
0.000636583
0.000591058
0.000738846
0.000854928
0.000826759
0.000790258
0.000744869
0.000691288
0.000633604
0.000590301
0.000744324
0.000842704
0.000813328
0.00077626
0.000731198
0.000679257
0.000625066
0.000588337
0.000761011
0.000820706
0.000790767
0.000753588
0.000709685
0.000660838
0.000612442
0.000586146
0.00078741
0.000820815
0.000790909
0.00075376
0.000709892
0.000661086
0.000612745
0.00058654
0.000788191
0.000842822
0.000813468
0.000776425
0.000731394
0.000679489
0.000625341
0.000588679
0.00076164
0.000855026
0.000826871
0.000790383
0.000745005
0.000691433
0.000633754
0.000590455
0.000744528
0.000858985
0.000831304
0.000795066
0.000749618
0.00069551
0.000636645
0.000591101
0.000738842
0.000854995
0.000826826
0.000790323
0.000744928
0.000691339
0.000633642
0.000590317
0.000744261
0.000842763
0.000813388
0.000776322
0.000731267
0.000679335
0.000625155
0.000588441
0.000761152
0.000820757
0.000790821
0.00075365
0.000709762
0.000660937
0.000612573
0.000586323
0.000787738
0.000820898
0.000790986
0.000753832
0.000709959
0.00066115
0.000612809
0.000586608
0.000788293
0.000842916
0.000813561
0.000776519
0.00073149
0.000679589
0.000625449
0.000588803
0.000761843
0.000855125
0.00082697
0.000790484
0.000745111
0.000691545
0.000633875
0.000590592
0.000744742
0.000859086
0.000831405
0.000795169
0.000749723
0.000695618
0.000636757
0.000591218
0.000738994
0.000855095
0.000826924
0.00079042
0.000745026
0.000691438
0.000633744
0.000590426
0.000744405
0.000842859
0.000813481
0.000776413
0.000731356
0.000679425
0.00062525
0.000588548
0.000761311
0.000820849
0.000790908
0.000753732
0.000709841
0.000661015
0.000612654
0.000586419
0.000787897
0.000820944
0.000791013
0.000753835
0.000709935
0.000661098
0.000612721
0.000586465
0.000787867
0.00084298
0.00081361
0.000776551
0.000731506
0.000679587
0.000625426
0.000588745
0.000761616
0.000855197
0.000827033
0.00079054
0.000745162
0.000691595
0.000633929
0.000590652
0.0007448
0.000859162
0.000831474
0.000795235
0.00074979
0.000695693
0.000636845
0.000591327
0.00073916
0.000855169
0.000826989
0.000790478
0.00074508
0.000691492
0.000633802
0.00059049
0.000744472
0.000842926
0.000813532
0.000776446
0.000731371
0.000679422
0.000625227
0.000588495
0.000761102
0.000820904
0.000790941
0.000753739