/*--------------------------------*- C++ -*----------------------------------*\
| =========                 |                                                 |
| \\      /  F ield         | OpenFOAM: The Open Source CFD Toolbox           |
|  \\    /   O peration     | Version:  plus.master.MPPICInterFoam            |
|   \\  /    A nd           | Web:      www.OpenFOAM.com                      |
|    \\/     M anipulation  |                                                 |
\*---------------------------------------------------------------------------*/
FoamFile
{
    version     2.0;
    format      ascii;
    class       Cloud<basicKinematicMPPICParcel>;
    location    "2.2/lagrangian/kinematicCloud";
    object      positions;
}
// * * * * * * * * * * * * * * * * * * * * * * * * * * * * * * * * * * * * * //

96597
(
(-0.0035413 -0.0216102 0.00872854) 823
(0.0207626 -0.0279492 0.000264363) 860
(0.00326918 0.0682176 0.0231862) 2430
(0.00487786 -0.0490276 0.000308182) 2091
(0.0262261 -0.0614278 0.000278457) 2110
(-0.0228653 -0.0455183 0.000295744) 2075
(0.0204138 -0.0443297 0.00293214) 2107
(-0.00226592 0.0181986 0.00492926) 1110
(0.0227921 0.0404201 0.000264554) 2354
(-0.0200711 0.00293674 0.0217108) 599
(-0.00261273 0.0617623 0.0181048) 2429
(0.030413 0.0524218 0.000281553) 2357
(0.0410052 0.013183 0.000266641) 1537
(-0.0152352 -0.00651553 0.00116185) 565
(0.0320442 0.0152846 0.00322016) 292
(0.0566953 -0.0027382 0.00757489) 1532
(0.0038541 -0.0157933 0.102669) 8244
(-0.0125035 0.0392011 0.000275633) 2377
(0.00502055 -0.0147654 0.00491928) 837
(-0.0447614 0.021293 0.000684542) 1795
(0.0355058 0.0143256 0.000285435) 1370
(0.020932 0.064235 0.000297646) 2366
(-0.0222526 0.02241 0.000364553) 1138
(-0.00382079 -0.108953 0.00666412) 3216
(-0.0435664 -0.0227185 0.00380692) 1827
(-0.0393038 -0.0219838 0.000300074) 1826
(0.0229168 -0.0242079 0.000287788) 859
(-0.0155174 -0.00325946 0.0396943) 725
(0.0111264 0.00418053 0.0448798) 181
(-0.0114028 -0.0583879 0.000850833) 2084
(-0.0222144 0.0223419 0.000330814) 1138
(-0.00240584 0.109002 0.0106207) 3496
(-0.0415888 -0.0208569 0.000286145) 1826
(0.0354934 -0.0199556 0.00029936) 1513
(-0.0203226 0.0257714 0.000249326) 1139
(0.0376518 -0.0123332 0.000304774) 1521
(-0.0357577 0.0159298 0.00298989) 1793
(-0.0227466 0.0185448 0.000301176) 530
(0.0128132 0.03568 0.00124138) 1471
(0.0419382 0.0135287 0.000274447) 1538
(-0.000973145 0.0571532 0.0133218) 2428
(-9.16553e-06 0.0639295 0.0220116) 2429
(-0.0387095 0.0252387 0.000291756) 1786
(-0.0679198 -0.00116046 0.0207141) 1870
(0.0185822 -0.0494161 0.00379649) 2107
(-0.0219479 -0.0399508 0.000292077) 2074
(0.0138936 0.0262777 0.000294567) 1098
(-0.0424376 0.0196626 0.000267703) 1794
(-0.0208743 0.0391557 0.00030457) 2386
(0.0338529 -0.0167755 0.00141754) 1366
(-0.00378752 -0.108959 0.0234684) 3272
(-0.00868794 0.0166008 0.000301613) 1126
(-0.0190454 -0.0415772 0.000244098) 2074
(-0.0165724 0.0342577 0.00246806) 1475
(0.0416424 -0.0112677 0.000286487) 1521
(-0.0177565 0.0348369 0.000274619) 2385
(0.0207313 -0.0220396 0.000248486) 858
(-0.00353582 -0.0567896 0.0193703) 2148
(0.0365735 -0.0108745 0.00453351) 1367
(0.0111094 -0.0108638 0.0248084) 55
(0.0214556 0.0413353 0.000242945) 2354
(0.0245493 0.0222482 0.000289197) 299
(0.00195481 0.0156668 0.000671255) 1109
(-0.0203511 0.0440846 0.0038535) 2386
(0.0142857 0.0597579 0.00130482) 2365
(0.0455969 -0.0113816 0.000307538) 1522
(0.0387477 -0.0134252 0.00032954) 1521
(0.0413932 0.0106273 0.00462633) 1537
(-0.022693 0.0399007 0.000284603) 2386
(0.0176585 -0.00373882 0.00105975) 262
(-0.00451041 0.012231 0.092139) 6415
(-0.0422814 -0.0254429 0.000295567) 1827
(0.00312779 -0.0152646 0.0774419) 8132
(0.00364259 0.10839 0.0138486) 3552
(0.0228472 0.0119244 0.0039946) 288
(-0.109007 -0.00118376 0.00951669) 2936
(0.00220391 -0.0152931 0.059328) 1061
(0.0444919 -0.0126642 0.000274181) 1522
(0.0227347 -0.0210671 0.000266251) 250
(0.0219768 0.0232993 0.00030202) 1091
(0.0202571 0.0438841 0.000411899) 2354
(0.0207085 0.0386221 0.000242991) 2354
(0.0141706 0.0253289 0.000275123) 1098
(0.0241632 -0.0241134 0.000294237) 251
(0.0594565 -0.000945756 0.00406962) 1532
(-0.0153521 -0.00724117 0.000295658) 565
(-0.0194398 -0.0045567 0.0407438) 727
(0.0182293 0.0328451 0.000290171) 1471
(0.00618988 0.0209531 0.000255163) 1103
(0.0112494 0.034818 0.0011586) 1472
(-0.0170064 -0.050463 0.00297046) 2083
(-0.0382524 0.0196134 0.000285514) 1793
(0.0269613 0.0179519 0.000285161) 299
(-0.0296692 0.0208355 0.000274097) 1400
(0.0164005 0.030976 0.000287434) 1100
(0.0272421 -0.0141968 0.000274718) 258
(0.00809994 0.0669139 0.0198472) 2422
(-0.0165468 0.00906154 0.000254404) 534
(-0.031173 0.0166728 0.000279007) 540
(-0.0073283 0.0190164 0.00027899) 1119
(0.0183931 0.0194909 0.00028071) 1088
(0.0202028 -0.0492442 0.00388676) 2107
(-0.0410933 -0.0160519 0.00374226) 1826
(-0.00118101 0.0127561 0.048197) 192
(0.0303326 -0.0138752 0.00362438) 259
(-0.0227148 -0.0285798 0.000314158) 1435
(0.0352845 0.0125047 0.000350109) 1370
(-0.0689945 0.00686752 0.0202722) 1870
(0.0116782 0.00409712 0.0504726) 181
(-0.0140354 0.0521617 0.000265425) 2379
(0.0151615 -0.00567809 0.00292857) 261
(-0.000559223 -0.0209761 0.0353523) 943
(-0.10882 0.0025575 0.000278897) 2936
(0.0140963 0.0327914 0.00103686) 1100
(-0.0151378 -0.000944141 0.0753796) 7452
(0.0539471 0.00254004 0.00027139) 1531
(-0.0259595 0.0121472 0.00172611) 538
(0.026416 -0.00804426 0.000281288) 265
(-0.00141286 -0.0151792 0.0448972) 997
(-0.00570441 0.0127145 0.0933312) 6414
(-0.0372701 0.0202334 0.000301528) 1793
(-0.00159559 0.0647859 0.020473) 2429
(-0.0208824 0.0391644 0.000282581) 2386
(0.0114603 -0.00847894 0.0885175) 6384
(0.0363145 -0.0207267 0.000332704) 1513
(0.0128456 0.00302409 0.0922259) 6956
(-0.0547438 0.0273155 0.000282374) 1797
(-0.0219393 0.00058275 0.028973) 664
(-0.0267631 0.0482056 0.000299041) 2388
(0.0353808 -0.0159431 0.000298979) 1513
(-0.000833885 0.10796 0.0414764) 3664
(-0.00222583 -0.0543259 0.0208992) 2148
(0.036923 0.0119145 0.000294305) 1537
(0.0138682 0.0332705 0.00075463) 1100
(0.0210892 -0.0398223 0.000268046) 2106
(-0.000560343 -0.0178552 0.0771416) 8125
(0.0179444 0.0209751 0.000274124) 1089
(-0.0491171 -0.0221478 0.00347542) 1827
(0.0290697 -0.00729588 0.000269953) 266
(-0.00387007 -0.0163381 0.0363489) 934
(0.0210571 -0.0392383 0.00129519) 2106
(0.0517783 0.0033912 0.000299355) 1531
(0.00470916 -0.0499221 0.000299172) 2091
(0.0219882 -0.0221854 0.00039231) 858
(-0.0223082 -0.0453392 0.000309279) 2075
(0.0300699 0.00887102 0.00029261) 283
(-0.0294083 0.0163285 0.000308744) 539
(0.0272616 0.0204781 0.000270739) 300
(0.00507663 -0.108928 0.0047343) 3216
(0.0173508 0.0257762 0.000282801) 1090
(0.0514879 0.00173174 0.0083975) 1531
(0.0242425 -0.0241139 0.000378358) 252
(0.013336 0.0334453 0.000944229) 1100
(0.0234082 0.0432057 0.000263594) 2355
(0.0211357 0.0486191 0.00481939) 2355
(-0.0158496 -0.00313095 0.12035) 7741
(0.0298113 0.0136862 0.00417851) 291
(-0.00291751 0.109003 0.0174723) 3552
(0.0185341 0.0377136 0.00026816) 2353
(0.0109135 -0.0203387 0.00032744) 847
(-0.0041073 -0.0158644 0.0402454) 990
(-0.000743018 0.0642206 0.0191825) 2429
(-0.0213391 0.0437258 0.00230912) 2386
(0.0134109 -0.0062701 0.0698469) 6820
(-0.0243456 0.0242812 0.000349405) 532
(0.0179207 0.00246005 0.0228539) 334
(0.0141734 -0.00479682 0.052363) 429
(-0.0151584 -0.00604417 0.0365636) 669
(0.0302336 0.00836178 0.000280554) 283
(-0.0401395 -0.019964 0.000292402) 1826
(0.00255191 0.0182035 0.000283157) 1102
(0.021741 -0.0215556 0.00026348) 250
(-0.0226858 -0.0253192 0.000343764) 812
(-0.00772685 -0.0147893 0.120481) 8332
(-0.0551321 0.0169106 0.00179161) 1804
(0.00241262 -0.0155036 0.0715133) 8076
(0.00782307 0.0260453 0.000276178) 1105
(-0.0421505 -0.0233142 0.000274904) 1826
(0.0232653 -0.0351307 0.000296639) 2113
(0.01478 -0.0203542 0.000287691) 856
(0.0208467 0.0221083 0.000247817) 1090
(-0.0190386 -0.000577225 0.0630302) 775
(0.0243728 -0.00387905 0.000316085) 264
(0.023782 0.0414117 0.000265435) 2354
(0.0208262 -0.0273625 0.000299293) 860
(-0.00133812 -0.0171635 0.047037) 998
(-0.0261449 -0.0133462 0.000274136) 570
(0.0144778 -0.0056734 0.0607576) 485
(0.0172872 -0.04832 0.00322598) 2107
(-0.0420967 -0.0200958 0.000250415) 1826
(0.0431074 -0.000518464 0.00486895) 1529
(-0.0105782 0.0156264 0.000270511) 1126
(-0.00109729 -0.056469 0.0241136) 2148
(0.0177655 -0.0442753 0.0038422) 2106
(-0.0184207 0.0388843 0.000269324) 2385
(0.0171701 -0.0181095 0.000291994) 856
(0.016247 0.017723 0.000251115) 1087
(-0.108986 -0.0031941 0.00202794) 2936
(0.0041361 0.0155891 0.000307736) 1101
(0.00994005 -0.0581928 0.00489096) 2100
(0.0215233 0.0110068 0.00477366) 288
(0.0113041 -0.00839284 0.0798253) 6335
(0.0240951 -0.0238817 0.000348376) 251
(0.00276728 0.0150304 0.00581934) 1101
(-0.0496147 0.0173119 0.000264633) 1803
(0.04194 -0.013268 0.000298816) 1522
(-0.0148772 0.00745381 0.00195669) 533
(-0.0148661 0.00556082 0.105158) 7612
(-0.015127 0.0363732 0.0035637) 2385
(-0.0196006 -0.0338891 0.000299158) 2073
(0.0157326 -0.00181635 0.000273877) 269
(-0.109003 -0.00175203 0.00870878) 2936
(-0.0306273 -0.0219497 0.000330216) 1406
(0.0357487 -0.00700623 0.0031752) 1367
(0.0226206 0.0129097 0.00441085) 289
(-0.0413609 0.0196366 0.000246322) 1794
(0.00216602 -0.0153957 0.0649879) 1061
(-0.040336 0.0182932 0.00255269) 1794
(-0.0155863 -0.00165698 0.0487284) 717
(-0.0012453 -0.0155095 0.0408341) 997
(-0.0404108 -0.0232205 0.000285691) 1826
(-0.000440836 -0.108991 0.00590302) 3216
(-0.0133206 0.0103653 0.104563) 7596
(0.0347267 0.0181463 0.000299771) 1545
(0.0194684 0.0222343 0.000240956) 1090
(0.00376561 -0.0589915 0.0169507) 2148
(-0.00227422 -0.0159508 0.0679207) 8061
(-0.0297207 -0.0541771 0.000284956) 2077
(0.0231942 -0.0232556 0.000350603) 859
(0.0347913 0.0191021 0.000277613) 1545
(0.0206695 0.0636032 0.000285459) 2366
(-0.0154815 -0.00486178 0.0864633) 7572
(0.0148833 0.0281392 0.000267945) 1099
(0.0280453 0.0600444 0.00028908) 2358
(-0.0264086 -0.0223515 0.000321698) 580
(0.0103327 -0.0149957 0.00118274) 845
(0.000760276 -0.108988 0.0102704) 3216
(0.028606 0.0188214 0.00148862) 300
(0.0471215 -0.00858996 0.0043084) 1522
(0.0218829 0.0412994 0.000258206) 2354
(-0.00819094 -0.0160699 0.12559) 8389
(0.0381139 0.0111605 0.00330908) 1537
(0.0117371 -0.00751663 0.065724) 209
(0.00701563 -0.10899 0.0162164) 3272
(0.0446112 -0.00735188 0.0054438) 1522
(-0.0229836 0.0211562 0.000288988) 530
(-0.0197225 -0.0378078 0.000271381) 2073
(0.0284172 -0.0141164 0.000263938) 259
(0.0304289 -0.0147363 0.000284053) 260
(-0.000827362 0.0700248 0.02838) 2486
(-0.0244805 -0.0448799 0.000296944) 2075
(-0.0629661 -0.0168875 0.00372) 1822
(0.0226609 -0.0406002 0.000280544) 2106
(0.0219374 0.0219201 0.000337228) 298
(0.0441381 -0.010455 0.000303981) 1522
(-0.0432757 -0.0230266 0.00027683) 1827
(0.0592912 0.00135608 0.00489442) 1532
(-0.0205995 0.0193363 0.000281621) 529
(-0.0271233 -0.0208225 0.000259435) 580
(-0.0100798 0.00892984 0.0596213) 231
(-0.0575093 -0.0173232 0.00277087) 1821
(0.0237242 -0.0246702 0.00028562) 860
(-0.108972 0.00177245 0.00160216) 2936
(0.0133209 0.0512334 0.000259187) 2363
(-0.0229352 -0.022889 0.000339073) 579
(-0.0151105 -0.0280486 0.000297958) 819
(0.0198149 -0.0258578 0.000282551) 859
(-0.0354784 0.0189645 0.000287829) 1793
(0.0160824 -0.00419066 0.00281154) 262
(0.00504525 -0.109003 0.00660974) 3216
(-0.0628479 -0.0185326 0.0035948) 1822
(0.0174816 0.0213364 0.000270532) 1089
(-0.0228647 0.0229684 0.000307191) 1139
(0.0301978 -0.00674886 0.00028279) 267
(0.0343343 -0.0213372 0.000356093) 1513
(-5.3832e-05 0.108931 0.00173711) 3496
(0.00583946 0.0152908 0.00158962) 1101
(-0.00525115 -0.0160925 0.0476747) 990
(0.0149781 0.00358284 0.00262148) 277
(0.0258202 -0.0134414 0.00504844) 258
(0.0172476 -0.0376396 0.00162782) 2105
(-0.0237617 0.0239371 0.000355358) 1139
(0.0199103 -0.0232657 0.000265434) 858
(0.0476006 -0.0095336 0.00291484) 1522
(-0.0126661 0.0297951 0.00396563) 1131
(0.018391 0.0481178 0.00347882) 2355
(-0.0202422 -0.0384336 0.00033477) 2073
(-0.075264 0.0278781 0.000313425) 1800
(-0.000697735 0.108975 0.0158373) 3552
(-0.020064 0.0442453 0.00398478) 2386
(0.0346153 0.0180139 0.000275364) 1545
(-0.0238244 0.0422535 0.000270502) 2386
(-0.023927 -0.0414398 0.000292828) 2074
(0.035692 0.0144737 0.000303949) 1545
(0.0159671 0.00659214 0.0043242) 286
(0.0116577 -0.00688705 0.0861561) 6384
(-0.00719557 -0.0649342 0.000280087) 2093
(-0.0169312 -0.00170435 0.0596502) 774
(-0.0156418 -0.0057879 0.0892519) 7572
(-0.0158646 -0.0327992 0.00392924) 1436
(-0.0185843 0.0380565 0.000305926) 2385
(0.00137042 -0.108952 0.00626226) 3216
(-0.0355455 0.019053 0.000276883) 1793
(-0.0183095 0.0353981 0.000308534) 2385
(0.0277721 -0.0517331 0.000316808) 2108
(0.0224832 -0.0222833 0.000357802) 250
(-0.035107 0.0165163 0.00220301) 1793
(-0.0103414 0.00793214 0.0950803) 6406
(-0.0244306 -0.0268041 0.00032855) 1435
(-0.0281891 0.0157846 0.000287358) 539
(0.0038504 -0.0150879 0.053071) 1061
(-0.040357 -0.0231617 0.000278241) 1826
(0.0558018 -0.00136845 0.000274666) 1532
(0.0234721 -0.00624139 0.000258117) 264
(0.000350622 0.0649587 0.0203537) 2429
(-0.0128509 -0.0173049 0.000313394) 807
(0.00533312 -0.015564 0.10635) 8300
(0.0351207 0.0165952 0.000289722) 1545
(-0.0222416 0.0224194 0.000347318) 1138
(-0.0173154 0.0247257 0.000230216) 1138
(-0.0675892 -0.0297121 0.000297439) 1831
(0.05308 0.00159541 0.00889846) 1531
(0.0184595 0.0189539 0.000233709) 1088
(-0.00106012 -0.0153131 0.0700869) 8068
(-0.0146297 -0.0124252 0.00143235) 573
(-0.0114368 -0.0129425 0.0829216) 8100
(0.0208325 0.0365158 0.000288181) 2353
(0.0192401 -0.0355869 0.000290881) 2105
(-0.0669676 -0.0190437 0.00676798) 1822
(0.0306734 -0.00175194 0.000288235) 275
(-0.0454591 0.0167164 0.0032071) 1794
(0.0126435 -0.0545852 0.000280433) 2100
(0.0218034 0.0381705 0.000306292) 2354
(-0.000114133 -0.0210496 0.0347551) 943
(0.0352294 -0.00980365 0.000254267) 1367
(0.0235823 0.0401727 0.000285147) 2354
(-0.0236152 0.0431251 0.000313771) 2387
(-0.00222799 0.0402048 0.000262363) 2369
(-0.0379454 0.0199482 0.000298381) 1793
(-0.0104179 0.0149524 0.0162505) 1189
(-0.0304466 0.0165544 0.000290978) 540
(0.0457648 0.0129819 0.00173159) 1538
(0.0220111 0.0211647 0.000255099) 298
(0.0223428 0.0219856 0.000263265) 298
(-0.0137576 0.0625059 0.00954061) 2381
(0.0176257 0.0333919 0.000306226) 1471
(-0.00194639 0.0660079 0.0217447) 2430
(-0.0146862 0.0629091 0.00231581) 2381
(0.0150193 -0.00182531 0.0434743) 437
(0.0227467 -0.0334155 0.000289807) 2113
(-0.00737244 0.0191757 0.000301227) 1119
(0.0146831 -0.0327195 0.00338987) 852
(0.01503 -0.0276583 0.000310699) 851
(-0.0528647 -0.0269831 0.00339591) 1828
(0.016551 -0.00453254 0.0025773) 262
(-0.0263108 -0.0201137 0.000250117) 579
(0.00913134 0.0322706 0.000305705) 1108
(-0.0190239 -0.0153941 0.00027508) 576
(0.0123604 -0.00509071 0.110458) 6489
(-0.00296346 -0.0247936 0.0220007) 888
(-0.03897 0.0201098 0.000290895) 1794
(0.00757247 0.0125615 0.0400994) 194
(-0.0464577 -0.0203709 0.00308064) 1827
(-0.0229569 -0.0404128 0.000274476) 2074
(0.024991 0.0192607 0.000252209) 299
(0.0227414 -0.022567 0.000301491) 251
(-0.0484575 -0.0238741 0.00226613) 1827
(-0.0197303 -0.044493 0.0034905) 2074
(0.00670165 -0.109019 0.00500342) 3216
(-0.0154071 -0.00145412 0.039819) 717
(-0.0565839 0.00940463 0.00632337) 1804
(0.0229777 0.0398632 0.000265198) 2354
(-0.0176083 -0.0356983 0.000322488) 2073
(0.0305846 -0.000190687 0.000317531) 275
(0.0215401 0.0408838 0.000242582) 2354
(-0.018755 0.0520193 0.00531767) 2388
(-0.0238443 -0.0236675 0.000351626) 579
(0.01843 -0.0405522 0.00337545) 2106
(-0.0385988 0.0198342 0.000311371) 1793
(0.0288998 -0.0129213 0.000283031) 259
(-0.0219536 0.0229469 0.000307273) 1138
(-0.036213 -0.0198581 0.000295292) 1825
(-0.0162318 0.0206441 0.0002835) 1136
(0.0262445 -0.0128534 0.00533842) 258
(0.018954 0.0325218 0.000758331) 1471
(-0.108994 0.0070567 0.0174562) 2992
(-0.0291119 -0.0156069 0.000288175) 571
(0.0103573 0.0368024 0.000283129) 1472
(-0.0456146 0.0187966 0.00224852) 1795
(0.00301397 -0.109013 0.00331728) 3216
(0.0398427 0.0126195 0.000266718) 1537
(-0.0485666 0.0256547 0.000262338) 1796
(-0.0232886 -0.0280381 0.000284489) 1435
(0.0187345 -0.0168139 0.000297091) 248
(-0.0134042 -0.017553 0.000309899) 807
(-0.0174387 0.0432243 0.00298307) 2386
(-0.0133923 0.0252849 0.000260001) 1130
(0.0216072 0.0392484 0.00027644) 2354
(-0.0010966 0.0488008 0.00103681) 2371
(-0.0123395 -0.108946 0.0054375) 3208
(0.0241295 -0.0436166 0.000288275) 2107
(0.00786515 -0.0153144 0.000290471) 845
(0.019152 -0.00674992 0.00140689) 263
(0.0155656 -0.00486254 0.0740421) 6828
(-0.0170598 -0.00957184 0.000302376) 566
(-0.0401803 0.0198372 0.000257786) 1794
(-0.0250464 -0.0248038 0.000327036) 580
(-0.00140776 0.0120783 0.0595024) 241
(0.00823299 0.00970171 0.0360323) 145
(-0.036245 -0.0196752 0.000268983) 1825
(0.026209 -0.0141039 0.000286439) 258
(0.0361561 -0.00932997 0.00393172) 1367
(0.0452429 0.00888159 0.00419136) 1538
(-0.0229661 -0.0408852 0.000270956) 2074
(-0.00225139 -0.108948 0.0150963) 3272
(0.0569221 0.00106904 0.000274623) 1532
(-0.0158712 -0.00324132 0.0323617) 670
(-0.0219563 0.0433268 0.00393971) 2386
(-0.0208174 -0.0367278 0.000308265) 2073
(0.00163448 -0.108894 0.000289074) 3216
(0.0503199 0.00120446 0.00962037) 1531
(2.48456e-05 0.0169165 0.0297379) 1222
(0.031376 -0.0062778 0.00259766) 267
(0.00220579 -0.0564634 0.0195837) 2148
(0.026762 0.00832585 0.000301669) 281
(-0.00139245 -0.0176201 0.0420392) 998
(-0.0154563 -0.00580029 0.0408376) 725
(-0.0150145 0.0356949 0.00315415) 2385
(-0.00283702 -0.0193995 0.0368287) 935
(0.0165893 0.00184143 0.0264381) 382
(0.0497036 -0.000619352 0.00453653) 1531
(0.00285135 -0.108749 0.000322343) 3216
(-0.0244144 0.0243868 0.000353717) 532
(0.0129277 0.000331655 0.0456669) 437
(-0.0612382 0.00419442 0.00571756) 1813
(-0.0227562 -0.0410025 0.000291621) 2074
(-0.0779077 -0.00260314 0.0314448) 1928
(-0.0235495 0.0396131 0.000279019) 2386
(0.0300281 0.00869712 0.0002827) 283
(-0.057275 0.00775312 0.000286359) 1804
(0.0355298 -0.0204515 0.000288089) 1513
(-0.0652909 0.000166791 0.021575) 1870
(-0.0192404 -0.0454536 0.00397898) 2075
(0.019001 0.0393311 0.000251691) 2354
(-0.0307938 0.0167387 0.00030701) 540
(0.0208603 0.0230895 0.00028806) 1090
(-0.00196224 0.0178207 0.0322575) 1222
(0.0375248 0.0100127 0.00452562) 1537
(0.0150466 0.00199692 0.0251376) 325
(-0.00326028 -0.0207966 0.0270931) 935
(0.0159394 -0.053254 0.00114694) 2100
(0.0195385 -0.0438618 0.00325828) 2106
(-0.022174 0.0324065 0.000261011) 2393
(-0.0170006 0.0579632 0.00108017) 2381
(0.0273417 0.0195192 0.000286726) 299
(-0.0190299 -0.0368239 0.00383954) 2073
(-0.0253547 -0.044629 0.000256951) 2075
(0.0231487 0.0230493 0.000362397) 299
(0.007978 0.0507329 0.000273722) 2363
(0.0141603 -0.058527 0.00257529) 2101
(-0.0190095 -0.0426385 0.000302735) 2074
(0.00215771 -0.108982 0.00406992) 3216
(0.0258173 0.0205404 0.000301202) 299
(0.0191765 0.0377458 0.000294765) 2353
(-0.0237473 0.0422647 0.000278019) 2386
(0.0158404 0.0165781 0.00137998) 1087
(-0.0434767 -0.022929 0.000637615) 1827
(-0.0412334 0.0201153 0.00026386) 1794
(-0.00943067 -0.0124102 0.0383181) 98
(0.0431931 0.000386048 0.00383714) 1529
(-0.0421189 -0.0236715 0.00027731) 1826
(-0.0201186 -0.0367503 0.000289565) 2073
(0.0428891 -0.00871067 0.00401781) 1522
(0.0363704 0.0144311 0.000294292) 1545
(-0.10877 0.00106652 0.000451641) 2936
(0.0173578 -0.0205333 0.00031972) 857
(0.0206544 0.0213884 0.000271905) 1090
(-0.0228624 -0.0227049 0.00037497) 579
(0.0238826 0.0238778 0.000417162) 299
(-0.109004 -0.00628868 0.017531) 2992
(0.0101822 -0.0149331 0.00224979) 845
(0.000604091 -0.108984 0.0106568) 3216
(-0.0263727 0.021419 0.000275447) 532
(-0.0298356 0.0151752 0.00136673) 539
(-0.108979 -0.00034058 0.0206661) 2992
(-0.0430754 0.0239939 0.000281383) 1795
(-0.0138015 -0.0502773 0.000315788) 2083
(0.00170316 0.109021 0.00210939) 3496
(-0.0396609 -0.0220179 0.00028487) 1826
(-0.0132247 0.0616031 0.0111031) 2381
(0.0248193 -0.024588 0.00032526) 252
(-0.109023 -0.00226465 0.0110593) 2936
(-0.0177336 0.0324109 0.000293154) 1475
(0.0384733 -0.00710598 0.00027514) 1521
(-0.00864467 -0.0123603 0.0336317) 99
(-0.0187582 -0.0362287 0.000246253) 2073
(-0.00901278 -0.0165202 0.000282961) 814
(0.00235592 -0.0574135 0.0243683) 2148
(-0.00126695 0.0155159 0.0359547) 1221
(0.0358715 0.0142995 0.000259889) 1545
(0.025926 0.013009 0.00457458) 290
(0.0244631 0.0213822 0.000291767) 299
(-0.0232889 -0.0232931 0.000317362) 811
(-0.0512993 -0.0178953 0.00291032) 1819
(-0.069218 0.000439992 0.0223682) 1870
(0.0190219 0.0376703 0.000271345) 2353
(-0.00384847 -0.0160165 0.0387171) 934
(0.00899282 -0.012637 0.0782854) 6327
(0.0193827 -0.0618519 0.0035074) 2101
(-0.0246175 0.0539587 0.00477674) 2388
(-0.023923 -0.023941 0.000333219) 811
(0.00341176 0.0597693 0.00687258) 2373
(0.0141128 0.0256519 0.000278034) 1098
(-0.0377605 0.0207394 0.000314752) 1793
(-0.0705125 0.000911028 0.0252482) 1870
(-0.0245966 -0.00251545 0.0220605) 608
(0.012419 0.108851 0.000314595) 3488
(-0.0302793 0.020987 0.0002542) 1400
(0.0189109 -0.0415112 0.000486548) 2106
(0.0246249 -0.0245104 0.000307773) 252
(-0.0403543 -0.0234943 0.000305271) 1826
(0.00872677 0.0154056 0.00132163) 1094
(-0.0233521 -0.0234968 0.000374339) 811
(-0.0575783 0.00928479 0.000305538) 1804
(-0.0324739 0.0165988 0.000294795) 1401
(-0.0209348 0.00216196 0.0397102) 719
(0.0224698 -0.0223573 0.000343471) 250
(0.00487134 0.0155618 0.000292764) 1101
(0.0240284 0.0242324 0.00036401) 1091
(-0.0234539 0.0235186 0.000345658) 1139
(-0.00890828 -0.0189991 0.0403106) 983
(0.0171951 0.0394152 0.0003168) 2353
(0.0400745 0.0088 0.00298713) 1537
(-0.0195026 -0.0338194 0.000299925) 2073
(0.0144044 0.0262121 0.000263745) 1098
(0.0449296 0.0110386 0.000275637) 1538
(-0.0153996 -0.00756237 0.0891798) 7580
(-0.0148222 -0.0110393 0.00119077) 573
(0.0227221 0.0454867 0.000764155) 2355
(0.0109932 0.0184374 0.000260592) 1095
(-0.0154384 -0.00713859 0.0989116) 7636
(0.0230771 0.0232214 0.000326496) 1091
(-0.0155237 0.00628552 0.001538) 541
(0.0208608 -0.0353126 0.000266401) 2105
(0.0440138 -0.00883409 0.000315145) 1522
(0.0449997 -0.0108157 0.00368454) 1522
(-0.0418659 -0.0244424 0.000328428) 1826
(0.0417018 0.00170976 0.000308039) 1529
(-0.109017 0.0021222 0.0215535) 2992
(-0.0154302 -0.00162683 0.0698073) 7452
(-0.042003 -0.0233919 0.00028573) 1826
(-0.0234712 -0.0425848 0.000258943) 2074
(-0.00377084 -0.10902 0.00138929) 3216
(-0.0218986 -0.0291473 0.000261325) 1435
(-0.0369522 -0.0203311 0.000276309) 1825
(-0.0776099 -0.0120457 0.0207369) 1880
(-0.0537006 0.0304536 0.00029049) 1797
(0.0195154 0.0352771 0.000288823) 2353
(-0.017593 -0.00881466 0.0322243) 678
(-0.00793049 0.0209073 0.000304696) 1119
(0.0142198 -0.00449819 0.065969) 485
(0.0597057 0.0014874 0.00490782) 1533
(-0.0605765 0.0125806 0.000274081) 1805
(0.034393 -0.0158802 0.000289508) 1366
(-0.025829 0.0460402 0.000317364) 2387
(-0.0425748 0.0172829 0.00331528) 1794
(-0.0169364 -0.000239253 0.0653696) 774
(0.023512 0.00496495 0.000320726) 280
(0.0367242 -0.000225699 0.00365774) 1368
(-0.0164094 -0.00124595 0.0353144) 662
(-0.0647257 0.00306383 0.018631) 1869
(0.0153001 -0.0602617 0.000269432) 2101
(0.0505149 -0.000750026 0.000302174) 1531
(0.0350641 -0.014207 0.000955708) 1366
(-0.0233888 0.0233436 0.000290566) 531
(0.0210535 0.0371341 0.000292779) 2353
(0.0277368 -0.00738946 0.000264506) 266
(-0.0256434 -0.0111699 0.00240445) 569
(-0.023506 -0.057582 0.00310028) 2077
(0.00895387 0.0286604 0.000266623) 1106
(0.000786797 -0.0669827 0.0348972) 2206
(-0.0544323 -0.0248072 0.00624978) 1829
(-0.016759 0.0412222 0.00257628) 2386
(0.0226605 -0.0260811 0.000274588) 860
(-0.0155494 -0.00162156 0.0851179) 7508
(0.0115036 -0.0205538 0.000271347) 848
(0.0451732 0.0133787 0.00232004) 1538
(-0.0204381 -0.0360309 0.000324736) 2073
(0.0551009 -0.00118635 0.00796097) 1532
(-0.0466439 -0.0202743 0.00293162) 1827
(-0.01083 -0.0177487 0.00029198) 815
(-0.02329 0.0234951 0.000318604) 1139
(0.0239241 -0.0237134 0.000302055) 251
(0.0226619 -0.0284763 0.000297147) 1441
(0.0242068 -0.0241413 0.00032832) 252
(0.0158674 0.0221273 0.000275995) 1089
(-0.0273793 -0.0214918 0.000279782) 580
(-0.0172829 -0.0218004 0.000277744) 809
(-0.020984 0.0226029 0.000283353) 1138
(-0.0464906 0.0250231 0.000292214) 1795
(-0.0393366 -0.0202499 0.000289831) 1826
(-0.0812772 -0.000420646 0.0337894) 1928
(0.0138651 -0.0598882 0.00212686) 2101
(0.00332772 0.10842 0.0140199) 3552
(0.0146792 0.000727332 0.0191877) 325
(-0.0661842 0.00769847 0.0181306) 1862
(-0.0123874 0.0642643 0.00846517) 2382
(-0.0159899 -0.0360695 0.00110322) 2073
(-0.108988 0.00319213 0.010173) 2936
(0.04439 0.0103685 0.00288064) 1538
(0.0560714 -0.00278053 0.00773196) 1532
(0.0421693 -0.0132746 0.00108648) 1522
(0.0400545 0.0112554 0.000267122) 1537
(-0.0200758 0.0448486 0.00391466) 2387
(0.0550957 -2.51531e-05 0.000303233) 1532
(-0.0153155 -0.00721939 0.0945358) 7580
(0.0183549 0.0585392 0.000290193) 2365
(-0.0693797 -0.00341194 0.0247447) 1870
(0.0125538 -0.00325282 0.0267899) 118
(-0.0217309 -0.0396621 0.00027313) 2074
(-0.0156454 -0.00627962 0.11951) 7740
(-0.0136039 -0.0324872 0.00390336) 820
(0.0381761 0.0117544 0.000288304) 1537
(0.0240088 -0.0240043 0.000312914) 251
(-0.0372064 -0.020106 0.000293617) 1825
(-0.031312 0.0218926 0.000258401) 1400
(-0.015511 -0.00082453 0.0402424) 717
(-0.0471311 0.0239083 0.000233695) 1795
(-0.0233012 -0.0231409 0.000347433) 579
(-0.0194286 -0.0101611 0.000283386) 567
(-0.0220151 -0.0163029 0.000273825) 577
(0.042802 -0.0125433 0.000269978) 1522
(-0.0187178 -0.0383907 0.00316753) 2073
(0.0305963 0.00666614 0.000273227) 283
(-0.0152218 0.0284271 0.000273804) 1131
(0.0264419 -0.0141066 0.000276302) 258
(0.0219967 -0.0377898 0.000376603) 2106
(-0.00311832 -0.108943 0.00825054) 3216
(-0.0041095 -0.108966 0.00984647) 3216
(0.00362505 -0.0473848 0.000270307) 2090
(0.000718531 0.109028 0.0041373) 3496
(-0.0181206 -0.00830301 0.0183903) 622
(-0.037317 -0.0165876 0.00364875) 1825
(-0.0220655 0.0393663 0.000311228) 2386
(-0.0240894 -0.0252929 0.000280756) 812
(0.0195621 -0.019496 0.000290978) 249
(0.0426324 0.0145826 0.000665306) 1538
(-0.00180615 -0.0172065 0.0423266) 998
(0.00197771 0.0645245 0.0204984) 2429
(-0.0151043 0.00735372 0.00101273) 533
(-0.000966922 -0.0650508 0.0330623) 2206
(-0.0216063 -0.0217583 0.000336096) 810
(-0.0421105 -0.0254139 0.000300337) 1827
(-0.0177732 -0.0336862 0.000300852) 1436
(0.0565805 -0.0020962 0.000309645) 1532
(-0.023393 -0.0494536 0.00264987) 2076
(0.0262458 -0.0451248 0.000295467) 2107
(-0.0239627 0.021671 0.0002682) 531
(-0.047011 -0.0234878 0.000290334) 1827
(-0.0141063 0.0383698 0.00334946) 2385
(0.00207303 0.0381069 0.000256935) 1473
(0.0221028 0.0416612 0.000293956) 2354
(-0.0412394 0.0225173 0.000282836) 1794
(-0.0379778 -0.0171949 0.0025887) 1825
(-0.0377966 0.0192028 0.000276161) 1793
(0.00254273 -0.108993 0.00925065) 3216
(-0.042395 -0.0253334 0.000288667) 1827
(0.0167525 0.0547507 0.000276221) 2364
(0.00463659 0.0683789 0.0248695) 2430
(-0.015339 -0.00731742 0.000291735) 565
(-0.00425065 0.0137952 0.0391497) 1229
(0.00264842 0.0106187 0.0891444) 6417
(-0.0518586 -0.0204823 0.00485424) 1828
(-0.0371486 0.020398 0.000308691) 1793
(0.022731 0.0226396 0.000284503) 299
(-0.0204294 -0.039769 0.000289664) 2074
(0.00395386 0.0151247 0.00234441) 1101
(-0.0125473 0.0571263 0.000273806) 2380
(-0.0608174 -0.0287368 0.000266271) 1830
(0.0342187 0.00950671 0.00356149) 284
(0.00390349 0.108879 0.000292326) 3496
(-0.0253301 0.0218824 0.000293436) 531
(-0.0231717 0.024237 0.000288429) 1139
(-0.0164644 -0.00706471 0.0750553) 7469
(-0.0302456 -0.0221324 0.000282423) 1406
(0.022647 0.0224517 0.000403276) 298
(0.0201175 -0.0349452 0.000264819) 2105
(0.0461448 -0.00772508 0.00557178) 1522
(0.0103162 -0.0181935 0.000311836) 847
(-0.00901442 -0.0171504 0.000287107) 814
(-0.00437515 0.108537 0.0130243) 3496
(-0.0243057 -0.0243614 0.000396269) 812
(-0.022249 0.0508328 0.00493986) 2388
(0.024067 0.0402061 0.000271471) 2354
(-0.024145 -0.0239171 0.000354815) 579
(0.0177741 0.0177434 0.000315326) 295
(-0.0599359 0.0156783 0.000287015) 1805
(0.0461723 -0.00839825 0.0052488) 1522
(-0.00519204 0.0155217 0.000300687) 1117
(0.021052 -0.0433363 0.000263321) 2106
(-0.023617 -0.0236548 0.000376601) 811
(-0.0263666 0.0456565 0.000328148) 2387
(0.0213757 0.0291318 0.000311516) 1470
(0.0139413 -0.00564904 0.0605464) 485
(0.00773383 -0.0541929 0.00604249) 2100
(-0.00682737 0.0138358 0.0314298) 1237
(0.00155073 0.0645419 0.0185795) 2429
(-0.0212478 -0.0224278 0.000307847) 810
(0.0596551 -0.000918315 0.00101822) 1533
(0.0219433 -0.0379528 0.000301271) 2106
(0.0251456 -0.0452657 0.00025061) 2107
(-0.0676449 -0.000741035 0.0202817) 1870
(0.000281264 0.0568358 0.0120369) 2372
(-0.0231452 0.0506584 0.000268479) 2388
(-0.0154278 -0.0064944 0.000284021) 565
(0.00708319 -0.0153113 0.000668099) 845
(-0.0536735 -0.0194427 0.00448512) 1828
(0.0391591 -0.00848721 0.00376284) 1521
(-0.000674486 -0.108969 0.00469468) 3216
(-0.0191715 -0.0393656 0.00446004) 2074
(0.0162378 0.0588055 0.00116333) 2365
(0.0407455 -0.00595912 0.000303053) 1521
(0.0350147 0.0165456 0.000273383) 1545
(0.0518801 -0.000351849 0.0123971) 1531
(0.0431215 -0.0158815 0.000302117) 1514
(-0.0698747 -0.000822009 0.0223157) 1870
(-0.0213923 -0.0310754 0.000262244) 1435
(-0.0648864 0.0270914 0.0057571) 1798
(0.0115513 0.00462152 0.0483869) 181
(-0.0491694 0.017686 0.00248403) 1795
(0.0252168 -0.0365994 0.000323145) 2114
(-0.0293301 0.0615801 0.000281066) 2390
(0.00409269 -0.015152 0.0771939) 8132
(-0.056185 0.0130415 0.000307855) 1804
(0.0154015 -0.00516643 0.000269224) 261
(0.0217157 0.0218593 0.000338676) 1090
(-0.0037501 -0.0161331 0.0391077) 934
(0.0474836 0.00952469 0.00530673) 1538
(-0.0681048 0.00400604 0.0195339) 1870
(-0.0192361 0.0350083 0.000284108) 2385
(0.0522753 0.00345305 0.00778319) 1531
(0.0354852 -0.0205407 0.000268544) 1513
(-0.011115 0.0581391 0.00722847) 2380
(0.0199544 0.0445473 0.00211313) 2355
(0.0172209 -0.0373139 0.00261301) 2105