/*--------------------------------*- C++ -*----------------------------------*\
| =========                 |                                                 |
| \\      /  F ield         | OpenFOAM: The Open Source CFD Toolbox           |
|  \\    /   O peration     | Version:  plus.master.MPPICInterFoam            |
|   \\  /    A nd           | Web:      www.OpenFOAM.com                      |
|    \\/     M anipulation  |                                                 |
\*---------------------------------------------------------------------------*/
FoamFile
{
    version     2.0;
    format      ascii;
    class       Cloud<basicKinematicMPPICParcel>;
    location    "9/lagrangian/kinematicCloud";
    object      positions;
}
// * * * * * * * * * * * * * * * * * * * * * * * * * * * * * * * * * * * * * //

3051
(
(-0.0546623 -0.010188 0.350901) 5433
(-0.0519052 -0.0142602 0.35172) 5432
(-0.0296929 -0.0478082 0.345192) 6305
(-0.0300466 -0.0474443 0.346369) 6297
(-0.0479126 -0.00929428 0.364396) 5544
(-0.0483177 -0.0116272 0.356583) 5488
(-0.0418377 -0.0334895 0.348702) 5448
(-0.037168 -0.0337931 0.358114) 5504
(-0.0413208 -0.0318052 0.348692) 5448
(-0.0471153 -0.00943739 0.36232) 5487
(-0.0375123 -0.0320705 0.36121) 5504
(-0.0400835 -0.0300027 0.352565) 5448
(-0.0307561 -0.0444262 0.350069) 6296
(-0.0400624 -0.0330037 0.344692) 5448
(-0.0303975 -0.0424685 0.357875) 6352
(-0.047329 -0.0148859 0.355157) 5488
(-0.0302526 -0.0434825 0.349459) 6296
(-0.0397305 -0.0325089 0.344833) 5448
(-0.0504754 -0.0145661 0.344645) 5432
(-0.0302692 -0.0430698 0.34861) 6296
(-0.0494923 -0.0114321 0.346924) 5432
(-0.0284321 -0.0390824 0.366145) 6407
(-0.028663 -0.0448335 0.346311) 6296
(-0.0301638 -0.0439301 0.344221) 6296
(-0.030452 -0.045357 0.343766) 6297
(-0.0282318 -0.0393455 0.362673) 6351
(-0.0343739 -0.0336556 0.368286) 5559
(-0.0262946 -0.0459291 0.344304) 6304
(-0.0423014 -0.030096 0.357376) 5504
(-0.0473862 -0.0136732 0.347979) 5432
(-0.0364685 -0.0339408 0.347857) 5448
(-0.0288052 -0.0455229 0.343725) 6296
(-0.0291217 -0.0409365 0.349471) 6296
(-0.0287948 -0.0440353 0.344062) 6296
(-0.0463352 -0.00930593 0.361511) 5487
(-0.0523381 -0.0104178 0.346102) 5432
(-0.0513821 0.00496407 0.359453) 5480
(-0.027503 -0.0439086 0.346283) 6304
(-0.0368207 -0.0310874 0.353619) 5503
(-0.0488158 -0.0137609 0.346451) 5432
(-0.0265255 -0.0416513 0.354995) 6352
(-0.0461002 -0.00815335 0.364638) 5543
(-0.048596 -0.00899115 0.348699) 5432
(-0.0469837 -0.00906241 0.353398) 5487
(-0.0393761 -0.0286504 0.357997) 5503
(-0.0504792 0.00499384 0.357057) 5480
(-0.0257601 -0.0471384 0.347185) 6304
(-0.049519 0.00170556 0.358084) 5480
(-0.0321113 -0.0429866 0.344377) 6296
(-0.0503303 0.00283669 0.356931) 5480
(-0.0328668 -0.0436467 0.345249) 6297
(-0.0481211 -0.0142968 0.347073) 5432
(-0.0501405 0.00498924 0.356195) 5480
(-0.0407649 -0.0290093 0.351821) 5448
(-0.0475505 -0.0087228 0.352842) 5431
(-0.0519334 -0.00053072 0.349017) 5424
(-0.0484176 -0.0154573 0.346864) 5432
(-0.0292382 -0.0414507 0.349437) 6296
(-0.0469752 -0.00961815 0.357982) 5487
(-0.044911 -0.00682752 0.373108) 5599
(-0.0330479 -0.0448084 0.343995) 6297
(-0.0491789 -0.0176395 0.34763) 5440
(-0.0537305 0.00434949 0.350756) 5424
(-0.0479675 0.0148559 0.361705) 5472
(-0.0471801 -0.0167186 0.349523) 5440
(-0.0519407 -0.0150728 0.344162) 5432
(-0.0355396 -0.0281887 0.376098) 5615
(-0.0511135 0.0054692 0.349518) 5424
(-0.0475263 0.0135779 0.361039) 5472
(-0.0480544 0.0019554 0.35771) 5479
(-0.0491764 0.00419327 0.354997) 5480
(-0.0410384 -0.0323868 0.346959) 5448
(-0.0473215 0.00341173 0.368575) 5535
(-0.0471023 0.0121363 0.360711) 5471
(-0.0263598 -0.0425778 0.354487) 6360
(-0.0528549 0.0059487 0.350369) 5424
(-0.0415386 -0.0232782 0.373853) 5607
(-0.0518899 0.0065328 0.353337) 5472
(-0.0458353 -0.0076074 0.369887) 5543
(-0.0416305 -0.0228498 0.371634) 5551
(-0.0437007 -0.0203038 0.367915) 5551
(-0.0427503 -0.00707128 0.378184) 5598
(-0.0501222 0.00641988 0.357133) 5472
(-0.0444368 -0.023824 0.365035) 5552
(-0.0461877 -0.021398 0.36478) 5552
(-0.0489214 0.015726 0.358651) 5472
(-0.0512642 -0.0131163 0.345433) 5432
(-0.0463384 0.0131261 0.361054) 5471
(-0.0441462 -0.0194148 0.367065) 5551
(-0.0479624 -0.0136911 0.355228) 5488
(-0.0523644 0.000685807 0.348241) 5424
(-0.0465851 -0.0110791 0.365369) 5543
(-0.044796 -0.0191504 0.363102) 5551
(-0.0479431 -0.0170213 0.356162) 5496
(-0.0535666 0.00556766 0.350797) 5424
(-0.0513676 -0.0156245 0.345913) 5432
(0.053741 -0.0148317 0.335381) 4465
(-0.0485682 0.0113797 0.35836) 5472
(-0.0361522 -0.0304057 0.362744) 5503
(-0.0473602 -0.0153285 0.358653) 5488
(0.0472383 -0.011032 0.350157) 4519
(-0.0545459 0.00277207 0.349962) 5425
(-0.0435065 -0.0199358 0.360918) 5495
(-0.041506 -0.0329826 0.350662) 5448
(-0.040755 -0.0365688 0.352152) 5449
(-0.0463189 -0.0125207 0.366595) 5543
(-0.0484025 -0.0125191 0.350893) 5432
(-0.0482449 0.0151648 0.357937) 5472
(-0.0539488 -0.0112453 0.345736) 5433
(-0.0409844 -0.03478 0.352468) 5448
(-0.0265706 -0.0336849 0.384615) 6518
(-0.0271839 -0.0381392 0.369338) 6407
(-0.036098 -0.0296559 0.366657) 5559
(-0.0472733 0.00166117 0.365232) 5535
(-0.0472604 -0.0190289 0.367309) 5552
(-0.03871 -0.0317756 0.355377) 5504
(-0.0401819 -0.0288021 0.36612) 5560
(-0.0405449 -0.0233724 0.365369) 5551
(-0.0489743 -0.01596 0.349253) 5432
(-0.0497909 -0.0142643 0.348871) 5432
(-0.0479862 -0.011968 0.356434) 5488
(0.0595514 -0.0162503 0.336981) 4466
(0.0474055 -0.00649306 0.359758) 4575
(-0.0372694 0.034769 0.37515) 5568
(-0.0443525 -0.0200343 0.359802) 5495
(-0.0487977 -0.00698916 0.36305) 5544
(-0.0471702 -0.01439 0.369318) 5544
(-0.0472359 -0.0134462 0.358118) 5488
(-0.0509491 0.0161409 0.359551) 5472
(-0.0461978 0.0227377 0.365519) 5520
(-0.0476953 -0.0141996 0.359759) 5488
(-0.0302217 -0.0406591 0.358313) 6352
(-0.0551599 -0.0119702 0.348235) 5433
(-0.0483724 0.0107723 0.360509) 5472
(-0.0454806 0.0147307 0.367352) 5527
(-0.0509671 -0.0111383 0.34913) 5432
(-0.04907 -0.0130352 0.354947) 5488
(-0.0539699 0.00110124 0.351532) 5424
(0.0504815 -0.012641 0.341874) 4464
(0.051529 -0.0127104 0.336784) 4464
(-0.044848 0.013246 0.371974) 5527
(-0.0473615 0.0171906 0.366071) 5520
(-0.0464057 0.0121248 0.362326) 5471
(-0.0256047 -0.0438048 0.355071) 6360
(-0.0495577 0.00182066 0.358103) 5480
(-0.0530278 0.000899365 0.352173) 5424
(0.0519439 -0.0145944 0.335983) 4464
(-0.0513038 -0.0110784 0.349939) 5432
(-0.0349101 -0.0337166 0.363156) 5559
(-0.0570549 -0.0108623 0.348248) 5433
(0.0487348 -0.0128307 0.356816) 4576
(0.0516746 -0.0138364 0.339838) 4464
(-0.0176814 -0.0439029 0.369102) 6415
(-0.0426304 -0.0187491 0.377195) 5607
(-0.0449949 0.0247096 0.364285) 5520
(-0.0508225 -0.0102443 0.353956) 5488
(-0.0518903 -0.0116557 0.350269) 5432
(-0.0488013 -0.0106699 0.35884) 5488
(-0.0440857 -0.0130705 0.37642) 5599
(0.0518557 -0.013886 0.340424) 4464
(-0.0465055 0.00153204 0.372984) 5591
(-0.0544573 0.00308644 0.351799) 5425
(-0.0390723 -0.0335867 0.356208) 5504
(-0.053151 0.000249424 0.352407) 5424
(-0.0240288 -0.0407807 0.36949) 6415
(-0.0457188 0.00291099 0.376319) 5591
(0.0526474 -0.0132823 0.338014) 4465
(-0.0480304 0.00563806 0.369643) 5527
(-0.0330748 -0.031849 0.37298) 5615
(-0.0338799 -0.0268454 0.392619) 5670
(-0.0475003 0.00540133 0.372977) 5583
(-0.0421693 -0.0181985 0.378297) 5607
(-0.0468123 -0.0209655 0.363025) 5552
(-0.0323881 -0.0396891 0.366988) 6408
(-0.0419634 -0.0111886 0.380084) 5598
(-0.0492486 0.00495045 0.363515) 5536
(-0.0454965 -0.0200416 0.364379) 5552
(-0.0373856 -0.029509 0.366398) 5559
(-0.0534412 -0.0146558 0.352213) 5433
(-0.0503397 -0.00936508 0.357635) 5488
(-0.0265763 -0.0433281 0.361336) 6360
(-0.0280298 -0.0415045 0.362966) 6352
(0.0490052 -0.0116215 0.356677) 4576
(0.0527161 -0.0115123 0.343316) 4520
(-0.0163483 -0.0432011 0.375348) 6471
(-0.0419688 -0.0108268 0.379933) 5598
(-0.0556388 -0.00890441 0.353992) 5489
(-0.0258743 -0.0432009 0.360843) 6360
(0.0514184 -0.0126651 0.348078) 4520
(-0.0166613 -0.0440116 0.374808) 6471
(-0.0413661 -0.0116973 0.383535) 5654
(-0.0459914 -0.0112372 0.370311) 5543
(-0.0523213 -0.00215316 0.357752) 5480
(-0.0327024 -0.0395814 0.367256) 6408
(-0.0237573 -0.0387852 0.377264) 6471
(-0.0451434 -0.0191959 0.366844) 5552
(-0.0381761 -0.0327186 0.363164) 5560
(-0.026937 -0.0425838 0.36395) 6408
(-0.0538782 -0.0144923 0.353903) 5489
(-0.0501748 0.0135775 0.36345) 5528
(0.0504037 -0.0106295 0.339019) 4464
(-0.0473597 -0.00945072 0.367334) 5543
(-0.0462167 -0.0231271 0.365398) 5552
(-0.0543983 -0.012812 0.354287) 5489
(-0.0305653 -0.0410025 0.362226) 6352
(-0.0385635 -0.0346407 0.360708) 5504
(0.0511934 -0.0124118 0.350676) 4520
(0.0519454 -0.0131918 0.338494) 4464
(-0.049049 0.00874999 0.372855) 5528
(-0.053962 -0.00798743 0.3567) 5489
(-0.0447936 -0.0268852 0.367828) 5552
(-0.048761 0.00540057 0.369805) 5536
(-0.0459239 -0.00887876 0.372112) 5543
(0.0478362 -0.00780532 0.365166) 4631
(0.0519792 -0.0151792 0.337572) 4464
(0.0473185 -0.00859761 0.344759) 4519
(-0.0465981 0.0243845 0.36705) 5520
(-0.048934 -0.00923829 0.363762) 5544
(0.0517296 -0.0138375 0.341031) 4464
(-0.0470927 -0.0147222 0.370533) 5544
(-0.0466812 0.0166492 0.373548) 5576
(-0.0501948 -0.0129861 0.35988) 5488
(-0.0516801 -0.0114849 0.357527) 5488
(-0.0520908 -0.0100772 0.357265) 5488
(0.0507831 -0.0127242 0.341399) 4464
(-0.0294043 -0.0393025 0.369401) 6408
(-0.0529643 -0.0165253 0.35638) 5489
(0.052614 -0.0155861 0.336913) 4465
(0.0526452 -0.0133665 0.339555) 4465
(-0.037067 -0.0275402 0.376614) 5615
(-0.0334651 -0.0274506 0.38156) 5614
(0.0532298 -0.0108891 0.34384) 4521
(0.0520352 -0.0150037 0.339302) 4464
(-0.0493675 0.0021148 0.366067) 5536
(-0.0511314 -0.0122873 0.359173) 5488
(-0.0496218 0.000822132 0.365389) 5536
(-0.0516426 0.0026269 0.36054) 5480
(0.0484409 -0.00610322 0.36553) 4631
(0.0523999 -0.0147203 0.33885) 4465
(-0.0159656 -0.0440682 0.378655) 6471
(-0.0382299 -0.0317566 0.36769) 5560
(-0.052543 -0.0136481 0.35762) 5489
(-0.0356945 -0.0330188 0.370183) 5559
(0.0531288 -0.0173536 0.335971) 4465
(-0.0148551 -0.0437962 0.380206) 6479
(-0.0159074 -0.0459042 0.377083) 6479
(-0.0503702 0.0114635 0.365814) 5528
(0.0502498 -0.00890215 0.36115) 4576
(0.0529074 -0.0137003 0.340163) 4465
(-0.0418225 -0.0104608 0.388973) 5654
(-0.0350577 -0.0331019 0.371507) 5559
(0.0490747 -0.00706145 0.36474) 4632
(0.0466433 -0.00715519 0.356615) 4575
(0.0558163 -0.0165844 0.334833) 4465
(0.0530552 -0.016193 0.340354) 4465
(-0.0485248 -0.0121055 0.366243) 5544
(0.0527601 -0.0118563 0.343525) 4520
(0.0510759 -0.0136368 0.345549) 4520
(-0.0475822 0.0163086 0.372887) 5528
(-0.0173109 -0.0438405 0.379674) 6471
(0.0555077 -0.0164226 0.336061) 4465
(0.054646 -0.0177994 0.335671) 4465
(-0.0305661 -0.0309828 0.39804) 6574
(-0.0270444 -0.0333499 0.388394) 6518
(-0.0225368 -0.0373593 0.386054) 6526
(-0.0465178 0.0163472 0.377322) 5576
(-0.0384838 0.0337895 0.368809) 5512
(0.0500676 -0.0174961 0.36298) 4576
(-0.0527362 -0.0112576 0.360075) 5488
(0.0495535 -0.0107545 0.35127) 4520
(0.0562725 -0.0166995 0.33531) 4465
(0.0533319 -0.0108112 0.343814) 4521
(0.0540984 -0.0189698 0.338065) 4457
(-0.0141903 -0.0427793 0.385059) 6535
(-0.049342 -0.00885366 0.368107) 5544
(-0.049357 -0.00659694 0.373848) 5600
(-0.0492874 0.000198609 0.368574) 5536
(-0.0144452 -0.0460692 0.377705) 6479
(0.049809 -0.0108239 0.361929) 4576
(0.0506705 -0.00998063 0.350803) 4520
(0.0495351 -0.0118664 0.349172) 4520
(0.0513441 -0.0131102 0.347358) 4520
(0.0530411 -0.011101 0.344007) 4521
(0.0542158 -0.0158237 0.338764) 4465
(0.0534783 -0.0126519 0.342272) 4465
(0.0551968 -0.0157886 0.338128) 4465
(0.0572002 -0.0161194 0.334597) 4465
(0.0518895 -0.0119963 0.344882) 4520
(0.0518699 -0.0126083 0.344943) 4520
(0.0544467 -0.0169092 0.338173) 4465
(-0.0424275 -0.00702453 0.390788) 5654
(-0.0148672 -0.0443855 0.37964) 6479
(-0.0524598 -0.00910456 0.362937) 5488
(-0.0563138 -0.000834529 0.353373) 5481
(0.0493801 -0.00730868 0.36637) 4632
(0.0499542 -0.0132923 0.349421) 4520
(0.0517182 -0.0122501 0.344536) 4520
(0.0533232 -0.0124106 0.342919) 4465
(0.0541595 -0.0144463 0.339676) 4465
(0.0525608 -0.0117226 0.3442) 4520
(0.0542784 -0.00157348 0.336558) 4473
(-0.0243937 -0.040427 0.377911) 6471
(-0.0422445 -0.00754111 0.394545) 5710
(-0.0448961 -0.0217342 0.371826) 5552
(0.0531107 -0.0124706 0.342964) 4465
(0.0594784 -0.0170542 0.33347) 4466
(0.0530203 -0.0124331 0.343039) 4465
(-0.0298047 -0.0385119 0.375545) 6463
(-0.043036 0.0222644 0.376829) 5575
(-0.0279654 -0.0369344 0.380093) 6463
(-0.0342062 -0.0286425 0.380266) 5615
(-0.0171015 -0.043025 0.38218) 6471
(-0.055757 -0.0100551 0.35924) 5489
(0.0503121 -0.0102422 0.362418) 4576
(0.0506263 -0.0121815 0.34726) 4520
(0.0521658 -0.0115188 0.34494) 4520
(-0.0465328 0.0292724 0.366864) 5513
(-0.044037 -0.019894 0.37595) 5607
(-0.0486207 -0.0232198 0.371747) 5552
(0.0510745 -0.00889487 0.363014) 4632
(0.0471216 -0.00883521 0.353871) 4575
(0.0544361 -0.0134627 0.340669) 4465
(-0.033823 -0.0252859 0.40198) 5726
(-0.0433381 -0.0195237 0.378185) 5607
(0.0493764 -0.0100641 0.354135) 4576
(0.0583769 -0.0159528 0.335104) 4466
(0.0527062 -0.0132139 0.343833) 4521
(-0.048086 -0.017752 0.378182) 5608
(-0.046695 0.00823293 0.379647) 5583
(-0.0471477 0.00419 0.376171) 5591
(-0.0493686 0.0130478 0.370388) 5528
(-0.0302033 0.0454334 0.359613) 7345
(-0.0428249 -0.012257 0.380641) 5599
(-0.0284226 -0.037708 0.379284) 6463
(-0.0519296 -0.000839166 0.364966) 5536
(-0.0566984 -0.00156118 0.352244) 5425
(0.0511994 -0.014173 0.347824) 4520
(0.0528548 -0.0120406 0.342872) 4465
(0.0537131 -0.0130217 0.34141) 4465
(-0.015097 -0.0405336 0.390015) 6526
(-0.0265232 0.0459697 0.36524) 7392
(-0.0565049 0.00186941 0.346928) 5425
(0.054829 -0.0106266 0.342025) 4465
(0.0539764 -0.0105722 0.342717) 4465
(0.0474999 -0.0133659 0.352052) 4520
(0.0495613 -0.015441 0.349088) 4520
(0.0556094 -0.00179004 0.33768) 4473
(-0.0321809 0.041575 0.366921) 7400
(-0.0364218 0.0314988 0.376281) 5567
(-0.0366031 0.034274 0.372445) 5512
(-0.0299755 0.0427629 0.36449) 7400
(-0.0493312 0.0237633 0.36472) 5521
(-0.05657 0.000108003 0.348296) 5425
(0.0542928 -0.0100463 0.342863) 4465
(0.0484342 -0.0151111 0.349836) 4520
(-0.0375729 -0.021977 0.386924) 5662
(-0.050965 -0.0100166 0.367529) 5544
(-0.0481526 0.0163443 0.37281) 5528
(0.0576543 -0.0100493 0.345094) 4521
(0.0471896 -0.011322 0.352641) 4519
(-0.0370622 -0.0219629 0.395402) 5718
(0.00885889 -0.0539656 0.365885) 6441
(-0.0421951 0.0210212 0.380289) 5575
(-0.0541513 0.00217765 0.361559) 5481
(0.0566708 -0.0122997 0.338176) 4465
(-0.0414279 -0.00756271 0.40593) 5766
(-0.0450495 0.0082437 0.381636) 5583
(-0.0241727 -0.0417909 0.380063) 6471
(-0.0427725 0.0190984 0.380715) 5575
(-0.0479766 0.0153994 0.372977) 5584
(-0.0360137 -0.0311604 0.37647) 5615
(-0.0383586 0.0366887 0.365279) 5512
(-0.0292218 0.0446828 0.361489) 7344
(0.0508164 -0.0134826 0.346749) 4520
(-0.0461423 -0.00977688 0.376057) 5599
(-0.0480124 0.0110485 0.374137) 5584
(-0.0019715 0.0556747 0.360601) 7321
(-0.0257856 0.0439632 0.364969) 7392
(-0.0560853 0.00290838 0.349096) 5425
(0.0542138 -0.0132174 0.338977) 4465
(-0.0267346 -0.0326993 0.401085) 6574
(-0.0240842 -0.041883 0.380423) 6471
(-0.0141852 0.0540131 0.371629) 7385
(-0.0371557 -0.0372696 0.371066) 6408
(-0.0256876 0.0442652 0.367752) 7392
(-0.0555983 0.0113482 0.34587) 5417
(-0.0264882 0.0481274 0.362387) 7337
(0.0548581 -0.0104959 0.341738) 4465
(0.0474281 -0.0139145 0.353917) 4576
(0.047065 -0.0139072 0.355061) 4576
(0.0530634 -0.00216065 0.341145) 4472
(-0.0468007 0.0212952 0.371781) 5520
(-0.0479644 0.0134898 0.373267) 5584
(-0.0336854 0.0439278 0.361786) 7345
(0.0526072 -0.0151736 0.366393) 4633
(-0.0526438 -0.0112572 0.366107) 5544
(-0.0557681 0.00326342 0.352621) 5425
(-0.0559453 -0.00232846 0.35571) 5481
(0.0537988 -0.00599085 0.351574) 4528
(-0.0560708 -0.0154265 0.35509) 5489
(0.0562719 -0.010584 0.341059) 4465
(-0.0413702 -0.0108669 0.39784) 5710
(-0.0414999 -0.011357 0.394268) 5710
(-0.0450938 -0.0127468 0.377597) 5599
(-0.00963527 -0.0507707 0.371935) 6424
(-0.00431646 0.0515451 0.365858) 7376
(-0.0569051 0.00411012 0.351406) 5425
(-0.0560367 0.00368592 0.352137) 5425
(0.0542657 -0.0106814 0.336528) 4465
(0.057301 -0.00198576 0.339465) 4473
(-0.0500225 0.00368852 0.374194) 5592
(-0.0256958 0.0461325 0.36317) 7392
(-0.0507215 0.0152739 0.363886) 5528
(0.0110698 0.0527317 0.356277) 7312
(0.0107378 0.054516 0.352071) 7257
(-0.019771 -0.0540737 0.358269) 6361
(-0.0263986 0.0475839 0.362277) 7337
(-0.0390014 0.0377698 0.357168) 5456
(-0.0391311 0.0377021 0.357037) 5457
(-0.00488714 -0.0532844 0.354332) 6376
(0.0610504 -0.00978253 0.339801) 4466
(-0.0491189 -0.00614182 0.382415) 5600
(-0.0260469 -0.034435 0.388614) 6518
(-0.0422232 -0.0169397 0.393176) 5719
(-0.0149573 -0.0408108 0.391405) 6526
(0.0104675 -0.0505777 0.37195) 6440
(-0.0263602 -0.0397248 0.381266) 6463
(0.00782237 -0.0512759 0.369963) 6440
(-0.0398754 0.0333843 0.367781) 5512
(-0.0410059 0.0352027 0.35656) 5456
(-0.0492672 0.0281898 0.348418) 5409
(0.0465526 -0.00833273 0.361855) 4575
(0.0514479 -0.0117316 0.347437) 4520
(0.0557428 -0.00716178 0.343863) 4521
(0.0598867 -0.018872 0.334667) 4466
(-0.0543762 0.013092 0.345564) 5417
(-0.0138103 -0.0420089 0.391188) 6535
(0.0513093 -0.00974424 0.36397) 4632
(-0.0209754 -0.0530305 0.355472) 6361
(-0.025214 0.0469795 0.366716) 7392
(-0.0561262 0.00383607 0.353057) 5425
(0.0109353 -0.0489448 0.361062) 6384
(-0.0166334 0.0467275 0.374659) 7448
(-0.0391536 0.0365617 0.35875) 5456
(-0.0543046 0.0176324 0.350153) 5417
(-0.0501678 0.0281403 0.344943) 5409
(0.052513 -0.0195787 0.344354) 4513
(-0.0334246 -0.0267987 0.393045) 5726
(-0.0356727 0.0300808 0.383017) 5623
(-0.0489014 -0.00882179 0.376022) 5600
(-0.0453374 -0.0207972 0.379141) 5608
(0.047206 -0.00988877 0.375681) 4687
(-0.054142 0.000310523 0.359921) 5481
(0.010737 -0.0532566 0.360329) 6385
(0.0101339 -0.0512412 0.360209) 6384
(0.0117172 -0.0517876 0.357501) 6384
(0.0456441 -0.00954039 0.363666) 4631
(0.0134259 -0.0554693 0.358082) 6385
(0.0106571 0.0522784 0.35608) 7312
(0.012104 -0.0510175 0.35807) 6384
(0.00936055 -0.0518242 0.357195) 6384
(-0.0276292 0.0471422 0.356341) 7337
(-0.0488242 -0.00725612 0.378513) 5600
(-0.0236794 -0.0367044 0.389129) 6518
(-0.0463072 0.0293793 0.368397) 5513
(-0.0487482 0.0230337 0.364338) 5520
(-0.0416841 0.0344871 0.361349) 5456
(-0.0396205 0.0357988 0.361705) 5456
(-0.0572003 0.00395916 0.348467) 5425
(0.0130101 -0.0547513 0.358696) 6385
(-0.0608808 -0.0051388 0.345967) 5426
(0.0136355 -0.0557152 0.357912) 6385
(-0.0484007 0.0287563 0.347442) 5409
(-0.0265274 0.0476536 0.359863) 7337
(-0.00080534 0.0573371 0.35173) 7265
(-0.0046543 -0.0457449 0.379007) 6487
(-0.0408763 0.0328699 0.366692) 5512
(-0.0592255 -0.00494099 0.355719) 5481
(0.00812991 -0.0528482 0.359369) 6384
(-0.0024016 0.0498999 0.369943) 7376
(0.0117951 -0.0485355 0.362933) 6384
(-0.00255544 -0.0542858 0.358524) 6377
(-0.0487506 0.0288505 0.346849) 5409
(-0.0322883 0.0460866 0.352315) 7289
(0.0102835 0.0554082 0.350901) 7257
(-0.0348409 -0.0256843 0.398856) 5726
(-0.0315651 0.039623 0.376418) 7456
(-0.0431937 -0.000265194 0.385165) 5646
(-0.0531694 -0.000370309 0.366109) 5536
(0.0483305 -0.00989294 0.376197) 4688
(-0.0539773 0.00130962 0.361559) 5480
(-0.0540225 0.000671976 0.359979) 5480
(-0.0553553 0.00351283 0.356218) 5481
(-0.0199081 -0.0519707 0.357078) 6361
(-0.0539838 0.0128925 0.353669) 5473
(0.0076178 0.0546562 0.353979) 7313
(-0.00331796 -0.0509331 0.359249) 6376
(0.0529291 -0.00899781 0.340536) 4464
(-0.0157026 0.050751 0.362356) 7328
(-0.0480218 0.00401724 0.380593) 5591
(-0.0473078 0.0288808 0.365556) 5521
(-0.0271367 0.0399671 0.380481) 7455
(0.0454914 -0.00873151 0.383322) 4743
(-0.046195 0.0202005 0.373504) 5576
(-0.0534556 0.000213839 0.365236) 5536
(-0.00430912 -0.0514676 0.360718) 6376
(-0.0599057 0.00504131 0.349415) 5426
(-0.0490443 0.0247281 0.361613) 5465
(0.00692911 -0.0560158 0.359752) 6385
(-0.0555441 -0.0112029 0.359175) 5489
(-0.0537181 -0.0146523 0.36481) 5545
(-0.00360322 -0.0533442 0.357278) 6376
(-0.0550916 0.0148964 0.343766) 5417
(-0.0421577 -0.0380819 0.350644) 5449
(-0.0425341 -0.0188687 0.386726) 5663
(-0.042863 -0.013333 0.384157) 5655
(-0.0137159 -0.0411962 0.393436) 6590
(-0.0407494 0.0335134 0.359311) 5456
(-0.02516 -0.036741 0.387882) 6519
(-0.0527538 -0.000631861 0.36792) 5536
(-0.0481508 -0.0233592 0.368227) 5552
(0.0104358 -0.0497371 0.374381) 6496
(-0.0534658 -0.000103738 0.364838) 5536
(-0.0132579 0.0477102 0.376913) 7440
(0.0129496 -0.0540176 0.3621) 6385
(-0.0478605 0.0300839 0.351935) 5401
(-0.034636 -0.0448037 0.360155) 6353
(-0.0428262 0.00362248 0.393744) 5702
(-0.0365934 -0.025998 0.396955) 5727
(-0.0438671 -0.00957694 0.382396) 5599
(-0.0239972 -0.0416604 0.385155) 6527
(-0.0347036 -0.0306928 0.381921) 5615
(-0.0509203 -0.0101585 0.373883) 5600
(0.0463148 -0.010223 0.379407) 4687
(-0.00656351 -0.0503329 0.374123) 6480
(-0.0184707 -0.0515155 0.355773) 6361
(0.0135571 -0.0536897 0.360466) 6385
(-0.0189299 -0.051316 0.35527) 6361
(-0.0407731 -0.0359529 0.357329) 5505
(-0.00516321 -0.0498361 0.363086) 6432
(0.0111959 -0.0485024 0.362183) 6384
(-0.0609477 -0.00541506 0.34836) 5426
(-0.00255688 0.0485169 0.372244) 7375
(-0.0478898 0.0288872 0.347303) 5409
(-0.0331757 -0.0452606 0.357533) 6353
(-0.0396925 0.0372954 0.353827) 5457
(-0.0512532 -0.00868916 0.376) 5600
(-0.0270483 0.0388329 0.38331) 7511
(-0.04734 -0.0258064 0.364002) 5552
(0.0465419 -0.00957859 0.380096) 4687
(0.00974261 -0.0497809 0.37211) 6440
(-0.0300538 -0.0462692 0.364433) 6409
(0.0535912 -0.00875045 0.359251) 4577
(0.0485465 -0.00871141 0.373919) 4688
(-0.0508805 0.0240429 0.348751) 5409
(-0.00631686 -0.0508268 0.361596) 6368
(-0.0141992 0.046626 0.378171) 7439
(-0.0417088 0.0390071 0.354868) 5457
(0.0562106 -0.00253805 0.342217) 4473
(0.0608234 -0.00198885 0.338863) 4474
(-0.0186991 0.0487253 0.362189) 7336
(-0.0184898 0.0525932 0.3617) 7337
(-0.0471969 -0.0113088 0.378379) 5599
(-0.0481994 -0.0142095 0.378043) 5600
(-0.0481691 -0.0154703 0.378775) 5600
(-0.0484781 -0.0119665 0.376687) 5600
(-0.0433099 0.00133463 0.386523) 5646
(-0.0391565 -0.0358814 0.366079) 5560
(-8.15283e-05 0.0501381 0.364028) 7376
(-0.0397281 -0.0362152 0.364668) 5560
(0.0471767 -0.00942602 0.377354) 4687
(-0.0188247 -0.05088 0.354654) 6360
(0.0139798 -0.0541566 0.35822) 6385
(-0.0547579 0.00350957 0.358518) 5481
(-0.0401866 -0.0372091 0.354109) 5505
(-0.0531268 0.0127552 0.352405) 5417
(-0.0436003 -0.0371764 0.349819) 5449
(0.0580692 0.00335551 0.335987) 4473
(-0.0292275 0.0467148 0.3551) 7337
(-0.0403712 -0.0110158 0.408502) 5766
(-0.0176641 -0.0416451 0.393494) 6583
(-0.0471565 -0.0131017 0.378506) 5600
(-0.0497709 -0.0217511 0.36927) 5553
(-0.0365452 -0.0323222 0.380422) 5615
(-0.0203574 -0.0492933 0.37475) 6472
(0.00139315 0.0574748 0.355751) 7321
(-0.00152997 -0.0530479 0.372633) 6432
(0.00969027 -0.0501674 0.374636) 6496
(-0.0401407 -0.0359379 0.363848) 5560
(-0.0522649 -0.00324772 0.374212) 5592
(-0.0261097 0.0391706 0.385881) 7511
(0.0527993 -0.00864983 0.36282) 4576
(-0.00527475 -0.0492343 0.364764) 6432
(-0.0486455 0.0266514 0.356746) 5465
(-0.00544515 -0.0488902 0.364208) 6432
(-0.0557935 -0.0106728 0.355359) 5489
(-0.0495983 0.0308376 0.34426) 5409
(-0.0374612 0.0351224 0.363051) 5512
(-0.056918 0.00282858 0.348789) 5425
(-0.0337759 0.0341872 0.385574) 7511
(-0.00753694 -0.0498047 0.377126) 6480
(-0.0160004 0.0439574 0.381647) 7447
(-0.0517307 0.0124084 0.361498) 5472
(0.0492373 -0.00906632 0.372783) 4632
(-0.0168762 -0.0506797 0.353078) 6312
(-0.0542288 0.0107651 0.355697) 5473
(-0.0570435 -0.0101171 0.352755) 5433
(0.00076519 0.0553427 0.358997) 7321
(-0.00368844 0.0533991 0.3568) 7320
(0.0575282 0.010746 0.347469) 4537
(-0.040876 -0.0128254 0.397868) 5710
(-0.0420001 -0.00643058 0.398777) 5710
(-0.013199 -0.0417746 0.396515) 6591
(-0.0480267 -0.0153984 0.379258) 5600
(-0.0245996 -0.0397164 0.385937) 6527
(-0.0129374 0.0456969 0.381013) 7439
(0.044319 -0.00791805 0.386206) 4743
(-0.047993 0.0297478 0.358418) 5465
(-0.00689577 0.0497866 0.368942) 7384
(-0.0162087 0.0438004 0.381894) 7447
(-0.00397122 -0.0483752 0.366457) 6431
(-0.00401327 -0.0531468 0.351297) 6320
(-0.0333687 0.043787 0.364757) 7401
(-0.0427663 -0.0363366 0.351001) 5449
(-0.0291361 0.0439468 0.359208) 7344
(-0.0134164 -0.0409989 0.399351) 6590
(-0.0245402 -0.0356902 0.393029) 6574
(-0.0491655 -0.0106429 0.377616) 5600
(-0.0255949 -0.0378264 0.38751) 6519
(-0.0391812 -0.0382396 0.366152) 5561
(-0.030902 -0.0419563 0.373369) 6464
(0.0455801 -0.0093038 0.383203) 4743
(-0.0530007 -0.0011948 0.364171) 5536
(-0.0177938 0.0516236 0.362763) 7329
(0.00888295 0.0484824 0.361436) 7312
(0.00683837 0.055774 0.355645) 7313
(0.00735235 0.0507682 0.359887) 7312
(-0.0166615 0.0493709 0.363665) 7384
(-0.0416478 0.0381226 0.354526) 5457
(0.061124 -0.00960236 0.335898) 4466
(-0.0567143 -0.0135586 0.350824) 5433
(-0.0468705 -0.0148916 0.380164) 5600
(-0.0526666 -0.00851369 0.37376) 5600
(-0.0146658 0.0428022 0.384384) 7495
(-0.0546799 -0.0100395 0.368904) 5545
(-0.050862 -0.00795927 0.378448) 5600
(-0.0476954 0.0309101 0.362426) 5457
(-0.0511407 0.00123649 0.375327) 5592
(-0.0134697 0.0424666 0.384932) 7495
(0.0550708 0.00840696 0.346435) 4537
(0.00997279 0.0517952 0.354262) 7312
(-0.0331165 -0.0364956 0.388372) 6520
(-0.0485576 -0.00611033 0.386397) 5655
(-0.0240902 -0.0345728 0.402466) 6574
(-0.0473166 -0.0110505 0.378473) 5599
(-0.015248 -0.0395588 0.403543) 6638
(-0.0359349 -0.0347427 0.380305) 5616
(-0.0475548 0.0300316 0.367332) 5513
(-0.0447185 -0.0252124 0.378511) 5608
(0.051643 -0.00972457 0.366809) 4632
(-0.0167602 -0.0491367 0.356696) 6368
(0.0493182 -0.00904906 0.373148) 4688
(-0.0174685 -0.0510763 0.354228) 6368
(-0.0567457 -0.00388917 0.357843) 5481
(-0.0131896 0.0427805 0.385203) 7495
(-0.0189711 -0.0503802 0.354287) 6360
(-0.00639142 -0.0520365 0.351262) 6312
(0.0610683 -0.01382 0.334834) 4466
(-0.0320952 0.043814 0.357676) 7345
(-0.0390149 -0.033064 0.372192) 5560
(-0.0520358 0.000976064 0.371464) 5536
(-0.0525287 0.00207813 0.365352) 5536
(-0.0509946 -0.0227673 0.36329) 5553
(-0.0423596 0.0205095 0.383104) 5631
(-0.0402797 -0.0354192 0.363569) 5560
(-0.02048 -0.051264 0.353794) 6361
(-0.0526343 -0.00119444 0.36637) 5536
(-0.0437639 -0.0350436 0.356025) 5505
(-0.0586666 -0.00248595 0.344746) 5425
(-0.0552614 0.0032441 0.357862) 5481
(-0.0576341 -0.00119308 0.345821) 5425
(-0.00652614 -0.0531901 0.349806) 6312
(-0.000539732 0.0513105 0.356552) 7320
(-0.054529 0.00253289 0.355192) 5481
(-0.00248009 0.0548241 0.354645) 7321
(-0.0180679 0.04905 0.363546) 7392
(-0.000406245 0.0544315 0.352478) 7265
(0.0605775 -0.000262565 0.336495) 4474
(0.0605817 0.00221047 0.336281) 4474
(0.0639009 0.00324154 0.335546) 4474
(-0.0467062 -0.000185885 0.38257) 5591
(-0.0358381 -0.030045 0.383147) 5671
(-0.0500426 -0.0123791 0.374278) 5600
(-0.027406 -0.0432209 0.376702) 6464
(-0.0511551 -0.0111697 0.372569) 5544
(-0.0498123 -0.00969884 0.377853) 5600
(-0.0479801 0.00248932 0.382497) 5591
(0.0102193 -0.0467623 0.38521) 6551
(-0.0204566 -0.0508465 0.354751) 6361
(-0.0604241 0.00552054 0.353853) 5482
(0.0118229 -0.0466083 0.368578) 6439
(-0.0569772 0.0119708 0.345814) 5417
(-0.0539107 0.0151275 0.34962) 5417
(-0.0577637 0.0124996 0.344761) 5417
(-0.0531377 -0.0147436 0.355226) 5489
(-0.0320121 -0.0436086 0.357161) 6352
(-0.00728818 0.0534083 0.358139) 7328
(0.058857 -0.000740827 0.338021) 4473
(-0.00424558 0.0565351 0.351522) 7265
(-0.0481915 -0.0123086 0.378368) 5600
(-0.0325354 0.027672 0.395236) 5678
(-0.0497278 -0.00693087 0.381096) 5600
(-0.0524124 -0.0153058 0.368413) 5545
(0.0458801 -0.00889569 0.383519) 4743
(0.011622 -0.0466756 0.37344) 6495
(-0.0225148 -0.0518896 0.356029) 6361
(-0.0163804 -0.0555403 0.353856) 6369
(-0.0574258 0.00146039 0.347178) 5425
(0.05565 -0.00625182 0.345886) 4529
(-0.06108 0.00099975 0.344479) 5426
(0.00896084 0.0530637 0.356504) 7312
(0.00880862 0.0531025 0.356288) 7312
(-0.0201452 0.0510905 0.36425) 7393
(-0.023243 -0.0352896 0.403872) 6630
(-0.0419355 -0.00678233 0.396528) 5710
(-0.0468788 -0.00826491 0.380693) 5599
(-0.0326526 -0.0326181 0.386864) 5671
(-0.0287447 -0.0428312 0.37541) 6464
(-0.0504007 -0.0105078 0.375698) 5600
(0.0560912 -0.0158587 0.358015) 4577
(-0.0441453 -0.0354641 0.363252) 5561
(0.0150044 -0.0542228 0.366952) 6441
(-0.0170293 -0.0478531 0.357451) 6360
(-0.038849 -0.038543 0.358481) 5505
(-0.00624031 -0.052928 0.350108) 6312
(-0.00523086 0.0498001 0.361104) 7320
(-0.00627451 -0.0555334 0.346763) 6313
(-0.0509797 0.0281977 0.346902) 5409
(0.0575716 0.00868797 0.351832) 4537
(0.0581362 0.00977438 0.350446) 4537
(-0.0335644 -0.035772 0.385888) 6520
(-0.0480579 -0.0141227 0.378734) 5600
(-0.00708766 0.0488442 0.37292) 7440
(-0.0357716 -0.0308274 0.38321) 5671
(-0.0524926 0.00294979 0.370073) 5536
(0.000578342 0.0489587 0.365339) 7376
(-0.0543791 0.00418116 0.363485) 5537
(-0.0519115 -0.000720467 0.368575) 5536
(-0.0523011 -0.00251107 0.36713) 5536
(-0.022559 -0.0523343 0.354903) 6361
(-0.0185287 -0.0484306 0.357588) 6360
(-0.0532537 -0.0168437 0.364222) 5545
(-0.0184301 -0.048081 0.358039) 6360
(-0.052415 -0.0147414 0.366156) 5545
(-0.0167446 -0.0471803 0.358069) 6360
(-0.00923793 -0.0536589 0.358178) 6369
(-0.031703 -0.0428003 0.365089) 6408
(-0.0558743 0.0117207 0.348261) 5417
(-0.0428234 0.0330921 0.364175) 5513
(-0.00680281 -0.0531385 0.350658) 6312
(-0.0612847 -0.00256332 0.345055) 5426
(-0.0397941 -0.0373132 0.353811) 5505
(-0.0508777 -0.026747 0.350229) 5441
(-0.0295985 0.048489 0.354738) 7337
(0.0605719 0.000148694 0.337148) 4474
(-0.0397206 0.0244215 0.392744) 5687
(-0.0603225 -0.00623453 0.360312) 5482
(-0.00283403 0.0465811 0.374878) 7431
(-0.0447761 -0.00104233 0.386977) 5647
(-0.0508465 -0.0115174 0.373212) 5600
(-0.0518037 -0.000528754 0.371684) 5536
(-0.0329249 0.0309107 0.392523) 5623
(-0.0504122 -0.00966476 0.37698) 5600
(-0.0507905 0.0100593 0.370955) 5528
(-0.0516856 0.0002037 0.370673) 5536
(-0.0469721 0.0252473 0.366176) 5520
(-0.0534414 0.00303732 0.357783) 5480
(-0.0171529 -0.0542149 0.352751) 6313
(-0.0560709 -0.01011 0.358172) 5489