/*--------------------------------*- C++ -*----------------------------------*\
| =========                 |                                                 |
| \\      /  F ield         | OpenFOAM: The Open Source CFD Toolbox           |
|  \\    /   O peration     | Version:  plus.master.MPPICInterFoam            |
|   \\  /    A nd           | Web:      www.OpenFOAM.com                      |
|    \\/     M anipulation  |                                                 |
\*---------------------------------------------------------------------------*/
FoamFile
{
    version     2.0;
    format      ascii;
    class       scalarField;
    location    "3.6/lagrangian/kinematicCloud";
    object      d;
}
// * * * * * * * * * * * * * * * * * * * * * * * * * * * * * * * * * * * * * //


505
(
0.000489611
0.000507699
0.000453605
0.000522293
0.000505942
0.000538346
0.000495243
0.000558641
0.000538788
0.000546882
0.000494764
0.00053018
0.000531082
0.000471479
0.000559051
0.00053138
0.000508925
0.000563349
0.000507222
0.000538359
0.000524359
0.000489223
0.000481199
0.000530541
0.000469076
0.000476962
0.000499425
0.000465579
0.000492355
0.000575267
0.000540578
0.000485746
0.000500805
0.000504387
0.000518339
0.000481044
0.000507374
0.000534244
0.000521313
0.000550907
0.000533607
0.000527941
0.000561088
0.000513285
0.000487863
0.000508123
0.000467937
0.00050378
0.000565325
0.000475306
0.000563664
0.00052164
0.0005567
0.000473444
0.000551111
0.000529585
0.000560145
0.000443621
0.000488607
0.000511279
0.000596973
0.000552624
0.000554928
0.000449047
0.000505395
0.000438858
0.000508338
0.000518944
0.000570965
0.000493346
0.000474092
0.000421314
0.000541975
0.000495051
0.000493302
0.000496134
0.000481409
0.000591112
0.000542002
0.000585505
0.000482217
0.000537049
0.000576277
0.000549967
0.000527271
0.00052154
0.000518866
0.000564195
0.000513288
0.000480123
0.000488399
0.000523453
0.000493948
0.000577654
0.000590231
0.000462264
0.000441808
0.000589046
0.000494874
0.000529989
0.000579644
0.000530505
0.000526965
0.000550315
0.000531946
0.000563441
0.000512417
0.000559493
0.000557315
0.000520799
0.000425372
0.000570306
0.00052672
0.000592187
0.000505872
0.000494594
0.000471997
0.00050938
0.000478829
0.00048456
0.000493059
0.000472742
0.000492385
0.000493862
0.000483253
0.00053686
0.000540101
0.000547627
0.000544051
0.000507443
0.000536407
0.000526024
0.000592529
0.000594561
0.000597857
0.000506861
0.000513644
0.00056942
0.000560045
0.000533494
0.000500364
0.000551741
0.000548152
0.000486511
0.000545342
0.000505423
0.00050914
0.000487059
0.000560216
0.000602359
0.000560285
0.000522632
0.000537652
0.000616284
0.000605452
0.000520327
0.000543699
0.000522301
0.000544401
0.000554526
0.000515544
0.00051462
0.000598375
0.000488247
0.000533833
0.000518965
0.000481084
0.000601822
0.000545237
0.000559375
0.000539329
0.000497523
0.000498498
0.000532029
0.000513361
0.000547887
0.000548115
0.000567567
0.000502008
0.000523395
0.000529045
0.000546413
0.000491226
0.000483276
0.000507218
0.000482928
0.000585976
0.000499313
0.000578727
0.000524261
0.000558581
0.000601293
0.000493932
0.000590929
0.000559999
0.000483991
0.000493252
0.000497672
0.000546765
0.000541904
0.000529721
0.000537211
0.000501107
0.00050487
0.00051032
0.000523181
0.000517663
0.000554558
0.000497927
0.000580045
0.000506614
0.000549529
0.000486388
0.000472173
0.000516565
0.000543224
0.000598564
0.000536487
0.00047707
0.000599871
0.000514973
0.000550838
0.000545034
0.000525476
0.000524505
0.000543147
0.000530217
0.000516985
0.000537106
0.000508179
0.00051153
0.000499418
0.000516216
0.000565237
0.000497804
0.000611818
0.000457915
0.000578981
0.000531988
0.000487709
0.000523191
0.000501864
0.000510856
0.00051117
0.000570622
0.000498161
0.000526457
0.000547042
0.000553797
0.000565362
0.000479488
0.0005504
0.0004994
0.00051961
0.000600059
0.00055955
0.000547392
0.000531981
0.000578611
0.000508257
0.000485764
0.000534526
0.000513213
0.000557946
0.000490966
0.000536618
0.000483941
0.000553327
0.000538669
0.000524756
0.000526969
0.000467338
0.00049198
0.000531321
0.00056691
0.000593726
0.000546668
0.000482839
0.000594663
0.000556882
0.000544071
0.000526697
0.000505006
0.000504772
0.000523885
0.000588101
0.000504414
0.000531137
0.000517513
0.000475714
0.000575225
0.000544563
0.000510627
0.000536419
0.000531001
0.000476588
0.00051607
0.000510523
0.000541784
0.00048066
0.000530397
0.000536795
0.000545935
0.000556917
0.000517607
0.000483553
0.000464086
0.000501701
0.000487468
0.000576701
0.000516465
0.000589512
0.000574106
0.000446729
0.000492572
0.000561283
0.000526994
0.000509835
0.000565366
0.000507477
0.000588945
0.000508104
0.000575381
0.000537453
0.000477682
0.00045588
0.000459177
0.000586503
0.000535176
0.000624363
0.000555007
0.000499234
0.000487121
0.00056116
0.000536608
0.000542397
0.000511279
0.000522293
0.000467688
0.000519697
0.00054143
0.000501128
0.000558379
0.000509951
0.000570311
0.000526858
0.000518409
0.000512226
0.000510256
0.000512707
0.000536004
0.000528559
0.00049168
0.000528249
0.000476402
0.000542669
0.000531288
0.000543207
0.000571962
0.000516499
0.000537227
0.000604058
0.000475072
0.000543188
0.000533369
0.000571336
0.000492702
0.000460461
0.000541557
0.000494147
0.000522538
0.000523038
0.000541366
0.000489739
0.000527485
0.000514915
0.000503198
0.0005606
0.00054212
0.000514712
0.000544688
0.000616672
0.000463599
0.000516635
0.000570341
0.00050829
0.000514437
0.00056945
0.000512799
0.000557527
0.000578925
0.000522143
0.000504774
0.000519873
0.000503648
0.00052828
0.000571082
0.000467576
0.00053932
0.00053848
0.000632718
0.00052048
0.000480349
0.00044448
0.000518162
0.000532125
0.000498606
0.000486616
0.000516501
0.000512588
0.000559863
0.000506158
0.000492702
0.00053813
0.000563906
0.00051317
0.00052801
0.000528949
0.000539771
0.000501843
0.000467332
0.000527093
0.000506742
0.000522614
0.000562439
0.000545793
0.000527273
0.000529831
0.000606474
0.000518166
0.000413192
0.000547003
0.000542689
0.000542078
0.000517389
0.000537241
0.000522458
0.000571484
0.000525587
0.000474664
0.000542803
0.000569591
0.00052832
0.000543102
0.000503868
0.000550159
0.000552021
0.000525472
0.000496214
0.000580151
0.000496681
0.000522778
0.000516753
0.000526583
0.000575932
0.000498636
0.000515616
0.000508986
0.000547094
0.000464543
0.000561398
0.000564537
0.000471223
0.000514636
0.000543225
0.000479611
0.000469912
0.000514892
0.000472406
0.000512028
0.000559741
0.000595283
0.00057733
0.000527264
0.000525651
0.000598361
0.000532857
0.000587906
0.00059305
0.000514691
0.000509728
0.000572143
0.000541814
0.000593791
0.000576684
0.000563551
0.00051754
0.000506268
0.000571655
0.000502001
0.000493157
0.000556492
0.000548559
0.000544178
0.000540504
0.000478586
0.000550509
0.000539714
0.000528853
0.000464804
0.00053916
0.000523749
0.000566409
0.000526586
0.000546896
)


// ************************************************************************* //
