/*--------------------------------*- C++ -*----------------------------------*\
| =========                 |                                                 |
| \\      /  F ield         | OpenFOAM: The Open Source CFD Toolbox           |
|  \\    /   O peration     | Version:  plus.master.MPPICInterFoam            |
|   \\  /    A nd           | Web:      www.OpenFOAM.com                      |
|    \\/     M anipulation  |                                                 |
\*---------------------------------------------------------------------------*/
FoamFile
{
    version     2.0;
    format      ascii;
    class       labelField;
    location    "3.6/lagrangian/kinematicCloud";
    object      origId;
}
// * * * * * * * * * * * * * * * * * * * * * * * * * * * * * * * * * * * * * //


505
(
20259
9946
26185
14213
32109
4396
12380
8872
8524
13385
19095
25434
20163
26738
1210
20059
1855
173
26615
1198
19261
155
22958
11450
28391
22477
21479
23703
9649
13082
14181
8711
22140
4095
29110
11479
1554
13630
1145
4928
7919
4578
10542
240
1293
22973
35296
8661
1958
5052
11727
4470
2724
540
6507
13989
1796
7589
8938
13063
20508
14545
6250
4155
13979
12768
12659
1896
3797
28606
18386
5090
10702
41496
6470
11596
615
8360
13503
24889
9526
5519
9519
17440
19774
11951
6935
13522
2397
35141
8415
3943
8803
16456
13693
1026
23650
17946
46063
8358
21727
28280
4959
8723
9745
13362
7626
5231
3228
21122
37343
6720
20190
32443
298
12252
7718
21083
16792
5740
15422
8391
23612
17184
43871
8327
8220
20232
8784
16770
2557
6490
15567
18099
22687
27390
12020
24218
16067
231
7278
13281
4054
15796
25875
8095
12500
8917
18499
22623
12923
207
16347
4565
7461
3474
4380
9530
10723
5355
10053
1147
7435
33936
29280
6463
31129
13805
4293
30797
11357
620
14194
13843
6224
1579
14897
12180
14829
13757
325
1376
13199
2987
3181
11639
2510
1265
19434
26222
6073
19126
30591
6339
13125
28945
32963
17565
1236
3440
6684
18705
2155
23997
36804
21227
3196
17049
13484
15168
14234
8078
11020
9301
17854
316
5278
12074
9247
584
6177
16085
11264
3327
22406
15703
16282
14940
24161
10124
9560
3563
44178
23744
16974
5617
12237
3408
17040
7506
8911
20015
5035
15296
1903
16923
38101
3719
13422
29983
1091
24779
11321
9085
22373
17951
16
15367
762
12004
10597
4733
20082
19986
4535
11430
4121
536
5282
30796
3287
1553
23278
18700
13404
2934
5665
226
9876
11029
21685
5222
26236
5435
9309
3896
7607
13658
23721
3096
7410
39605
23330
827
2317
5635
20215
1240
7064
42718
2653
13906
12899
10802
990
549
8620
34884
28426
16874
12939
25403
1837
8820
11093
7176
9736
3745
32436
5004
835
1513
22434
25149
3028
12271
5910
13371
6417
12489
6785
13992
8490
20026
26293
1233
44698
38252
9134
38977
39218
8967
11010
2172
4020
2565
10831
12034
14379
14933
14411
8054
10751
12974
2503
16837
47091
2004
7644
6450
6496
11972
27055
8732
11525
5806
17246
4277
10191
4084
13452
17032
13827
26228
44039
1059
4078
13013
18299
12931
3918
13039
1367
5662
17359
23468
23343
15785
9778
23234
27296
8042
25837
15452
6428
32550
18686
42228
4355
3760
7108
22225
28526
6104
1311
50529
43179
5702
16062
4893
15782
8171
11796
18458
22372
21896
8616
55878
10398
6215
25542
25751
38052
37877
19136
5953
35510
3685
17764
49223
2251
5149
11888
22503
27758
11438
25516
9109
31704
27689
1758
22463
16379
16328
6985
27057
7434
3126
7788
11006
38858
18021
41650
14035
8756
22040
3593
17765
7401
20753
4361
21142
30195
13416
21883
5996
2625
16926
5441
17202
13602
1923
14172
1424
123
2351
1495
2856
37104
5449
22358
21842
22010
39582
858
13991
7731
2034
6716
25433
27448
22250
22636
3449
37034
33392
25176
4331
9831
18689
25055
35650
36131
17241
25119
)


// ************************************************************************* //
