/*--------------------------------*- C++ -*----------------------------------*\
| =========                 |                                                 |
| \\      /  F ield         | OpenFOAM: The Open Source CFD Toolbox           |
|  \\    /   O peration     | Version:  plus.master.MPPICInterFoam            |
|   \\  /    A nd           | Web:      www.OpenFOAM.com                      |
|    \\/     M anipulation  |                                                 |
\*---------------------------------------------------------------------------*/
FoamFile
{
    version     2.0;
    format      ascii;
    class       volScalarField;
    location    "3.8";
    object      nut;
}
// * * * * * * * * * * * * * * * * * * * * * * * * * * * * * * * * * * * * * //

dimensions      [0 2 -1 0 0 0 0];

internalField   nonuniform List<scalar> 
11821
(
2.06695e-05
2.32948e-05
3.93193e-05
5.27312e-05
3.67609e-05
2.1506e-05
1.92653e-05
2.54519e-05
1.26758e-05
3.5953e-05
4.80882e-05
3.12818e-05
1.00035e-05
2.17322e-05
4.60775e-05
4.4175e-05
4.01203e-05
5.85219e-05
3.38066e-05
3.5067e-05
4.0688e-05
5.98135e-05
6.16201e-05
6.5074e-05
5.85999e-05
6.37298e-05
5.88794e-05
6.21634e-05
4.39253e-05
4.26366e-05
4.33386e-05
6.63347e-05
3.619e-05
3.58907e-05
4.08579e-05
2.48391e-05
1.297e-05
4.39481e-05
6.56201e-05
3.53301e-05
1.03234e-05
2.18724e-05
2.03492e-05
2.39901e-05
4.55211e-05
6.40753e-05
3.9756e-05
2.17353e-05
1.92559e-05
4.41954e-05
2.4096e-05
2.531e-05
3.34213e-05
2.26267e-05
2.28034e-05
4.49578e-05
2.51462e-05
3.09841e-05
6.298e-05
8.77561e-05
6.1466e-05
2.72785e-05
2.08773e-05
2.7623e-05
6.1975e-05
7.73222e-05
0.000118154
8.90106e-05
6.93462e-05
2.38989e-05
3.06046e-05
7.61842e-05
0.000131983
0.000140191
0.000120852
0.000116279
4.05626e-05
2.75719e-05
6.39434e-05
8.27092e-05
0.00012106
9.11047e-05
6.96148e-05
2.3328e-05
2.54416e-05
3.01486e-05
6.47859e-05
0.000108463
5.90332e-05
2.52159e-05
2.15205e-05
4.34225e-05
2.47369e-05
2.43659e-05
2.83264e-05
2.06161e-05
2.39426e-05
4.59706e-05
6.93392e-05
4.06552e-05
4.97254e-05
6.5659e-05
4.63277e-05
3.64118e-05
6.99405e-05
4.24823e-05
5.76091e-05
0.000105437
0.000147631
0.00011373
5.74554e-05
3.47515e-05
4.68138e-05
9.19776e-05
0.00014734
0.000174237
0.000155209
0.000120724
4.49868e-05
4.95292e-05
0.000101816
0.000196213
0.00018305
0.000177774
0.000175486
6.76115e-05
4.51792e-05
8.23413e-05
0.000133281
0.00016999
0.000164306
0.000109097
4.09196e-05
4.58918e-05
4.77915e-05
7.73729e-05
0.000123577
8.1432e-05
4.3458e-05
3.78581e-05
7.34556e-05
4.53504e-05
3.83838e-05
3.81079e-05
3.37984e-05
4.17749e-05
7.63747e-05
0.000109333
6.84875e-05
7.52762e-05
9.17784e-05
7.08198e-05
6.32062e-05
0.0001115
7.08863e-05
8.73439e-05
0.000147247
0.000198431
0.000157413
8.55759e-05
6.18912e-05
7.05866e-05
0.000126002
0.000200861
0.000214829
0.000205795
0.000157171
6.38036e-05
7.24998e-05
0.000132198
0.000237046
0.000213453
0.000211286
0.000208542
8.16904e-05
6.88426e-05
0.000105436
0.000165943
0.000204137
0.00020894
0.000132724
5.85803e-05
7.90035e-05
7.11591e-05
9.34352e-05
0.00011816
9.81242e-05
6.33196e-05
7.02788e-05
0.000118949
7.99078e-05
6.11485e-05
5.3647e-05
5.51309e-05
7.63207e-05
0.000123455
0.000121146
8.11775e-05
8.54046e-05
9.93034e-05
7.86918e-05
7.62778e-05
0.000125537
8.37437e-05
0.000101977
0.000167989
0.000222543
0.000172489
9.17892e-05
7.56668e-05
8.36122e-05
0.000146832
0.000233435
0.000228481
0.000225507
0.000160575
6.83189e-05
8.76175e-05
0.0001535
0.000247742
0.000240622
0.000225618
0.000206928
8.01463e-05
8.32844e-05
0.000122993
0.000186219
0.000244247
0.000224997
0.000133915
6.59134e-05
9.39037e-05
8.64605e-05
0.000107789
0.000121673
0.000106288
7.29147e-05
8.74968e-05
0.00013021
9.52627e-05
7.55083e-05
6.591e-05
6.84216e-05
9.3256e-05
0.000135798
1.92821e-05
1.93788e-05
1.90976e-05
1.88291e-05
1.8571e-05
1.83248e-05
1.81059e-05
1.78853e-05
1.94044e-05
1.92959e-05
1.92162e-05
1.89615e-05
1.86794e-05
1.84523e-05
1.82324e-05
1.80098e-05
2.49921e-05
2.06697e-05
1.95479e-05
1.90362e-05
1.86836e-05
1.84079e-05
1.8165e-05
1.79781e-05
3.42133e-05
2.28063e-05
1.98414e-05
1.91683e-05
1.88162e-05
1.85479e-05
1.82946e-05
1.80719e-05
2.51289e-05
2.06211e-05
1.94984e-05
1.90776e-05
1.86809e-05
1.84137e-05
1.82009e-05
1.79786e-05
1.94273e-05
1.93512e-05
1.92714e-05
1.89612e-05
1.86611e-05
1.83881e-05
1.8147e-05
1.79147e-05
1.91575e-05
1.92412e-05
1.89454e-05
1.86973e-05
1.85161e-05
1.82581e-05
1.80243e-05
1.77959e-05
6.99377e-05
7.76256e-05
7.97554e-05
8.00903e-05
7.97719e-05
7.92927e-05
7.88104e-05
7.83004e-05
4.66001e-05
6.79715e-05
7.56161e-05
7.79219e-05
7.82118e-05
7.78568e-05
7.73323e-05
7.67538e-05
2.03695e-05
4.90068e-05
6.83562e-05
7.5329e-05
7.72776e-05
7.74581e-05
7.70006e-05
7.63291e-05
1.36926e-05
3.3958e-05
6.21947e-05
7.35549e-05
7.69708e-05
7.76498e-05
7.73427e-05
7.66762e-05
2.15286e-05
4.98884e-05
6.83538e-05
7.52075e-05
7.72175e-05
7.74421e-05
7.69947e-05
7.62998e-05
4.89824e-05
6.8254e-05
7.53438e-05
7.7702e-05
7.81151e-05
7.78301e-05
7.73405e-05
7.67625e-05
6.99893e-05
7.72182e-05
7.95101e-05
7.99975e-05
7.97392e-05
7.92753e-05
7.87644e-05
7.81966e-05
0.000112111
0.000127233
0.000131961
0.000132327
0.000130089
0.000126084
0.000120892
0.000115125
7.4368e-05
0.000111244
0.000125303
0.000129362
0.000128673
0.000125294
0.000120248
0.000114374
3.66357e-05
8.24005e-05
0.000113791
0.000125021
0.000127099
0.000124815
0.000120122
0.000114243
2.69935e-05
6.15083e-05
0.000104707
0.000121971
0.000126193
0.000124707
0.000120289
0.000114446
3.96216e-05
8.44906e-05
0.00011361
0.000124575
0.000126859
0.000124773
0.000120208
0.000114401
8.00123e-05
0.000111314
0.00012419
0.000128542
0.000128283
0.000125223
0.000120381
0.000114623
0.000111496
0.000125236
0.000130483
0.000131436
0.000129634
0.000125933
0.00012095
0.000115323
0.000159438
0.000175076
0.000177243
0.000173683
0.000167629
0.000160958
0.000154582
0.000148174
0.000118068
0.000159512
0.000172428
0.000172745
0.00016783
0.000161228
0.000154663
0.000148128
7.02786e-05
0.000130943
0.000162391
0.000169863
0.000167394
0.000161469
0.000154993
0.000148445
5.19981e-05
0.0001101
0.000154553
0.000167538
0.000166934
0.000161589
0.000155251
0.000148719
7.58366e-05
0.000133797
0.000162298
0.000169356
0.000167104
0.000161429
0.000155135
0.000148708
0.000126627
0.000160282
0.00017123
0.000171696
0.000167282
0.000161114
0.00015486
0.000148543
0.000159902
0.000172804
0.000175121
0.00017222
0.000166793
0.000160618
0.000154619
0.000148497
0.000159408
0.000161131
0.000149806
0.00013381
0.000116691
9.96091e-05
8.26655e-05
6.69039e-05
0.000130639
0.000156719
0.000153587
0.000139185
0.000121474
0.000103361
8.53705e-05
6.85053e-05
8.73356e-05
0.000139011
0.000151566
0.00014177
0.000124724
0.000106149
8.74212e-05
6.97113e-05
6.72798e-05
0.000124348
0.000148091
0.000142007
0.000125793
0.000107198
8.82241e-05
7.0203e-05
9.41407e-05
0.000140941
0.000150983
0.000141066
0.000124307
0.000105978
8.74206e-05
6.98254e-05
0.000137482
0.00015622
0.000151842
0.000137858
0.000120705
0.000103016
8.53339e-05
6.869e-05
0.000158484
0.000158082
0.000147157
0.000131953
0.000115532
9.90002e-05
8.25027e-05
6.70944e-05
2.01761e-05
2.0061e-05
1.98086e-05
1.94147e-05
1.90702e-05
1.87548e-05
1.8465e-05
1.81794e-05
2.25479e-05
2.15096e-05
2.09114e-05
2.03981e-05
1.9907e-05
1.95532e-05
1.93819e-05
1.92646e-05
2.68238e-05
2.249e-05
2.16411e-05
2.12582e-05
2.09438e-05
2.07062e-05
2.05428e-05
2.0433e-05
3.13559e-05
2.35321e-05
2.22179e-05
2.19073e-05
2.17224e-05
2.15515e-05
2.14099e-05
2.13004e-05
2.7567e-05
2.29461e-05
2.21145e-05
2.17932e-05
2.15148e-05
2.12756e-05
2.1096e-05
2.09452e-05
2.33133e-05
2.22242e-05
2.14419e-05
2.09397e-05
2.04157e-05
2.00661e-05
1.98375e-05
1.96052e-05
2.08927e-05
2.07948e-05
2.03277e-05
1.98978e-05
1.94948e-05
1.9099e-05
1.87627e-05
1.84936e-05
6.89052e-05
7.99178e-05
8.37002e-05
8.47081e-05
8.45552e-05
8.39606e-05
8.32203e-05
8.23864e-05
4.72831e-05
7.03781e-05
8.18941e-05
8.65904e-05
8.81244e-05
8.81851e-05
8.76101e-05
8.66201e-05
2.78553e-05
5.45654e-05
7.64065e-05
8.68264e-05
9.09991e-05
9.23354e-05
9.23828e-05
9.17269e-05
2.096e-05
4.4954e-05
7.17343e-05
8.55123e-05
9.12022e-05
9.32679e-05
9.37373e-05
9.33989e-05
2.74218e-05
5.52424e-05
7.7629e-05
8.80342e-05
9.21185e-05
9.3398e-05
9.33963e-05
9.26779e-05
4.80723e-05
7.24395e-05
8.38713e-05
8.82896e-05
8.96496e-05
8.9663e-05
8.9039e-05
8.80457e-05
7.15312e-05
8.22597e-05
8.56053e-05
8.64046e-05
8.6166e-05
8.5558e-05
8.48194e-05
8.39678e-05
0.000107447
0.000125762
0.000133324
0.000135152
0.000133462
0.000129459
0.000123951
0.000117688
7.70131e-05
0.000109986
0.000127772
0.000134868
0.000135692
0.000132715
0.000127364
0.000120742
4.97376e-05
8.68118e-05
0.000117623
0.000132569
0.000137295
0.000136201
0.000131675
0.000125257
3.879e-05
7.24102e-05
0.000110664
0.0001306
0.000137717
0.000137871
0.000134159
0.000128399
4.70028e-05
8.6183e-05
0.000118806
0.000133866
0.00013829
0.000136922
0.000132203
0.000125657
7.44839e-05
0.000111721
0.000130274
0.00013687
0.000137114
0.000133701
0.000128046
0.00012121
0.00011017
0.000129471
0.000136186
0.000137198
0.000134919
0.000130492
0.000124662
0.00011814
0.000154765
0.000171604
0.000176128
0.000174045
0.000168652
0.000162124
0.000155611
0.000148917
0.000121731
0.000156688
0.000171931
0.000174734
0.000171018
0.000164613
0.000157701
0.00015058
8.60238e-05
0.000132622
0.000162665
0.000173215
0.000172693
0.000167196
0.000160209
0.000152699
6.8746e-05
0.000116384
0.000156052
0.000171806
0.000173464
0.000168867
0.000162367
0.000155332
8.00406e-05
0.000130287
0.000163219
0.000174179
0.000173372
0.000167544
0.000160304
0.000152617
0.000115222
0.000156963
0.000173969
0.000176456
0.000172072
0.000165095
0.000157759
0.000150329
0.000155384
0.000174881
0.000179045
0.00017609
0.000169891
0.000162712
0.00015568
0.000148559
0.000154919
0.000158191
0.000148767
0.000133724
0.000116855
9.9674e-05
8.25247e-05
6.65886e-05
0.000131596
0.0001538
0.000153303
0.000140633
0.000123223
0.000104633
8.58906e-05
6.82928e-05
9.97211e-05
0.00013783
0.000151665
0.000144537
0.000127978
0.00010845
8.82585e-05
6.91895e-05
8.25728e-05
0.000124932
0.000148691
0.000145728
0.000130213
0.000110602
8.99474e-05
7.02484e-05
9.27908e-05
0.000135856
0.000152422
0.000145453
0.000128548
0.000108718
8.83242e-05
6.91314e-05
0.000125592
0.000154721
0.000155469
0.000142255
0.000124163
0.00010506
8.59596e-05
6.8124e-05
0.00015631
0.000161745
0.000151757
0.000135774
0.000118095
0.00010029
8.26559e-05
6.6363e-05
2.03556e-05
2.05573e-05
2.02382e-05
1.98588e-05
1.94945e-05
1.91339e-05
1.8812e-05
1.85448e-05
2.04423e-05
2.02795e-05
2.05186e-05
2.01828e-05
1.99092e-05
1.97325e-05
1.95046e-05
1.92859e-05
2.52236e-05
2.23466e-05
2.16199e-05
2.11405e-05
2.08952e-05
2.06254e-05
2.03814e-05
2.01472e-05
2.97212e-05
2.32173e-05
2.20636e-05
2.17554e-05
2.15541e-05
2.13375e-05
2.11106e-05
2.0878e-05
2.44753e-05
2.21217e-05
2.15111e-05
2.10738e-05
2.07611e-05
2.046e-05
2.02249e-05
1.99998e-05
2.00506e-05
2.01418e-05
2.02225e-05
1.99845e-05
1.97405e-05
1.94685e-05
1.91976e-05
1.90171e-05
1.9611e-05
1.98679e-05
1.96561e-05
1.93466e-05
1.90631e-05
1.87883e-05
1.85425e-05
1.83165e-05
7.13617e-05
8.16371e-05
8.49425e-05
8.57125e-05
8.54598e-05
8.48675e-05
8.41809e-05
8.34215e-05
4.93458e-05
7.32613e-05
8.36855e-05
8.76793e-05
8.89035e-05
8.89078e-05
8.83845e-05
8.75428e-05
2.63215e-05
5.69685e-05
7.88471e-05
8.83545e-05
9.2077e-05
9.34224e-05
9.3719e-05
9.34297e-05
1.77129e-05
4.49392e-05
7.42023e-05
8.71651e-05
9.20971e-05
9.39435e-05
9.45292e-05
9.44627e-05
2.74776e-05
5.95913e-05
7.98054e-05
8.80981e-05
9.12718e-05
9.23956e-05
9.2604e-05
9.22799e-05
5.29015e-05
7.49131e-05
8.32824e-05
8.63022e-05
8.7146e-05
8.70666e-05
8.65808e-05
8.58387e-05
7.19659e-05
7.9796e-05
8.20635e-05
8.25054e-05
8.22437e-05
8.17651e-05
8.12363e-05
8.06558e-05
0.00011111
0.000129876
0.000136435
0.000137518
0.000135358
0.00013105
0.000125311
0.000118844
7.47977e-05
0.000114217
0.000132429
0.00013891
0.000139328
0.000136213
0.000130842
0.000124183
4.15063e-05
8.56853e-05
0.000122465
0.000138398
0.000143222
0.000142525
0.000138684
0.000133019
3.19731e-05
6.66813e-05
0.000114057
0.000136403
0.000143844
0.000144478
0.000141591
0.000136747
4.17773e-05
8.97251e-05
0.000124641
0.000138777
0.000142782
0.000141777
0.000137843
0.000132173
7.91935e-05
0.000118014
0.000133353
0.00013835
0.000138245
0.000135066
0.00012983
0.000123389
0.000114317
0.000129685
0.000134605
0.000135161
0.00013302
0.000128985
0.000123639
0.000117612
0.000156862
0.000176168
0.000180217
0.000177336
0.000171237
0.000164134
0.00015714
0.000150015
0.000115099
0.000160432
0.000178103
0.00018088
0.00017676
0.000170027
0.000162902
0.00015566
7.12677e-05
0.000129174
0.000168942
0.000182133
0.000182314
0.000177388
0.000171174
0.000164688
5.5716e-05
0.000107529
0.000160703
0.000181026
0.000184015
0.000180357
0.000175019
0.000169547
7.13145e-05
0.000133179
0.000171259
0.000182823
0.000182279
0.000177138
0.000170932
0.00016454
0.000120055
0.000164995
0.000179867
0.000181152
0.00017652
0.00016975
0.000162779
0.00015576
0.000161402
0.000177629
0.000179973
0.000176497
0.000170398
0.000163569
0.000156958
0.000150264
0.000157759
0.000162972
0.000152875
0.000136874
0.000119137
0.000101196
8.33568e-05
6.68122e-05
0.000126596
0.000158898
0.000160094
0.000146811
0.000128441
0.00010887
8.90704e-05
7.03252e-05
8.48973e-05
0.000137871
0.00015995
0.000153916
0.000136795
0.000116445
9.52122e-05
7.4821e-05
6.69271e-05
0.000120474
0.00015641
0.000155799
0.000140177
0.000120464
9.99204e-05
8.01745e-05
8.54116e-05
0.000141498
0.000161464
0.000154153
0.000136685
0.000116363
9.52618e-05
7.49977e-05
0.00013248
0.000162557
0.000160985
0.000146672
0.000128153
0.000108733
8.91421e-05
7.05738e-05
0.000161657
0.000163729
0.000152338
0.000136114
0.000118601
0.00010101
8.35086e-05
6.72253e-05
1.94497e-05
1.95453e-05
1.93344e-05
1.91261e-05
1.8939e-05
1.86686e-05
1.84087e-05
1.8146e-05
2.03652e-05
2.03553e-05
2.00499e-05
1.98066e-05
1.95925e-05
1.93316e-05
1.90863e-05
1.88864e-05
2.54438e-05
2.23994e-05
2.14312e-05
2.11132e-05
2.09804e-05
2.07891e-05
2.0492e-05
2.02652e-05
3.45844e-05
2.47817e-05
2.2447e-05
2.18938e-05
2.15587e-05
2.13345e-05
2.11289e-05
2.09625e-05
2.78123e-05
2.32532e-05
2.20396e-05
2.1681e-05
2.13983e-05
2.11197e-05
2.08491e-05
2.05352e-05
2.10913e-05
2.07835e-05
2.04214e-05
2.00671e-05
1.98271e-05
1.96188e-05
1.93191e-05
1.91244e-05
1.99772e-05
2.00262e-05
1.97511e-05
1.93906e-05
1.90285e-05
1.86827e-05
1.83882e-05
1.81307e-05
7.03189e-05
7.86093e-05
8.1431e-05
8.22044e-05
8.21177e-05
8.17285e-05
8.12214e-05
8.06024e-05
5.19615e-05
7.22457e-05
8.10548e-05
8.46142e-05
8.58226e-05
8.60053e-05
8.56817e-05
8.50407e-05
2.94933e-05
5.85896e-05
7.68744e-05
8.51852e-05
8.87339e-05
9.01336e-05
9.05633e-05
9.04085e-05
1.89571e-05
4.71822e-05
7.21273e-05
8.40864e-05
8.9402e-05
9.17544e-05
9.27342e-05
9.29453e-05
2.70514e-05
5.46218e-05
7.50125e-05
8.46774e-05
8.88545e-05
9.05765e-05
9.11587e-05
9.10802e-05
4.70231e-05
6.94963e-05
8.04936e-05
8.50905e-05
8.67297e-05
8.70142e-05
8.66808e-05
8.59927e-05
6.83515e-05
7.91733e-05
8.30492e-05
8.4149e-05
8.40858e-05
8.35844e-05
8.29334e-05
8.21793e-05
0.000111493
0.000126405
0.000132339
0.00013363
0.000131974
0.00012827
0.000123158
0.000117301
8.41682e-05
0.000115112
0.000129563
0.000135071
0.000135496
0.000132678
0.000127671
0.000121395
5.35252e-05
9.61708e-05
0.000122558
0.000134494
0.000138309
0.00013734
0.000133295
0.000127388
3.89999e-05
8.24473e-05
0.000116388
0.000132858
0.000139076
0.000139504
0.000136408
0.000131246
5.15172e-05
9.14466e-05
0.000119894
0.000133493
0.000138125
0.000137506
0.000133592
0.000127719
7.84019e-05
0.000110444
0.000127657
0.00013472
0.000135797
0.000133169
0.000128137
0.000121741
0.000107159
0.000125233
0.000132968
0.000134966
0.000133438
0.000129583
0.000124193
0.000118009
0.000160202
0.000173806
0.000176601
0.000173869
0.000168431
0.000162127
0.000155926
0.000149556
0.000131588
0.00016361
0.000175259
0.000176329
0.000172124
0.000165805
0.000159169
0.000152345
9.52799e-05
0.000145217
0.000169546
0.000176758
0.000175207
0.000169756
0.000163168
0.000156103
7.68015e-05
0.000132128
0.000164369
0.000175879
0.000176435
0.000172061
0.000166187
0.000159841
9.33347e-05
0.000140896
0.00016706
0.000175748
0.000174922
0.000169759
0.000163259
0.000156202
0.000125276
0.000158607
0.000172947
0.000175558
0.000172
0.00016586
0.000159197
0.000152263
0.000154859
0.00017143
0.000176104
0.000174172
0.000168913
0.000162496
0.000156064
0.000149421
0.000159202
0.000159253
0.000148501
0.000133187
0.000116495
9.96137e-05
8.27557e-05
6.70443e-05
0.000141357
0.000158996
0.00015508
0.000141211
0.000123651
0.000105188
8.65488e-05
6.89578e-05
0.000110508
0.000148636
0.000156279
0.000146452
0.000129275
0.000109713
8.94795e-05
7.02457e-05
9.31665e-05
0.000139174
0.000154532
0.000148029
0.000131856
0.000112354
9.17985e-05
7.20129e-05
0.000108226
0.000145162
0.000154788
0.000146113
0.000129337
0.000109854
8.95916e-05
7.02921e-05
0.000135158
0.000155368
0.000154001
0.000141201
0.000123889
0.000105358
8.65557e-05
6.87931e-05
0.000155009
0.000158077
0.000148773
0.000133828
0.000117021
9.98641e-05
8.27027e-05
6.67273e-05
1.76801e-05
1.78111e-05
1.78602e-05
1.79052e-05
1.7836e-05
1.76949e-05
1.7568e-05
7.76838e-05
7.60924e-05
7.55387e-05
7.58125e-05
7.55006e-05
7.60814e-05
7.75084e-05
0.000109533
0.000108782
0.000108634
0.000108815
0.000108825
0.000109086
0.000109821
0.000140168
0.000139945
0.000140154
0.000140391
0.000140499
0.000140515
0.000140727
5.38135e-05
5.40809e-05
5.42823e-05
5.43976e-05
5.44302e-05
5.43468e-05
5.41696e-05
1.79035e-05
1.90479e-05
2.0353e-05
2.12254e-05
2.08369e-05
1.93949e-05
1.82769e-05
8.13927e-05
8.53566e-05
9.059e-05
9.25731e-05
9.14632e-05
8.67321e-05
8.29098e-05
0.000111496
0.000114157
0.000118664
0.000122436
0.000118979
0.000114473
0.000111734
0.000140515
0.000141657
0.000143238
0.000146414
0.00014304
0.000141178
0.000139778
5.34304e-05
5.34424e-05
5.30544e-05
5.34347e-05
5.2964e-05
5.32025e-05
5.30656e-05
1.83198e-05
1.90936e-05
1.99356e-05
2.06546e-05
1.97801e-05
1.8879e-05
1.80912e-05
8.25035e-05
8.64145e-05
9.27094e-05
9.39503e-05
9.15456e-05
8.48045e-05
7.99089e-05
0.000112439
0.000117477
0.000127076
0.000131556
0.000126259
0.000116916
0.000111641
0.000141156
0.000146625
0.000156534
0.000162833
0.000156507
0.000146978
0.000141887
5.32897e-05
5.45025e-05
5.7168e-05
6.2436e-05
5.73963e-05
5.48034e-05
5.37864e-05
1.78562e-05
1.87149e-05
2.00715e-05
2.08311e-05
2.0301e-05
1.8996e-05
1.78619e-05
7.97863e-05
8.40649e-05
8.9785e-05
9.2616e-05
9.05112e-05
8.49688e-05
8.1256e-05
0.000111466
0.000115069
0.000121198
0.000125744
0.000121518
0.000115268
0.00011185
0.000141486
0.000143684
0.000147043
0.000151606
0.000147118
0.000143442
0.000141034
5.39522e-05
5.39704e-05
5.37939e-05
5.48308e-05
5.37908e-05
5.37266e-05
5.35115e-05
1.74993e-05
1.73292e-05
1.73721e-05
1.73138e-05
1.70988e-05
1.67761e-05
1.63699e-05
1.588e-05
1.7635e-05
1.72695e-05
1.70702e-05
1.70036e-05
1.68088e-05
1.65112e-05
1.61295e-05
1.5662e-05
1.77099e-05
1.73633e-05
1.70395e-05
1.68287e-05
1.65934e-05
1.63104e-05
1.59568e-05
1.55215e-05
1.77315e-05
1.7453e-05
1.71574e-05
1.69224e-05
1.65369e-05
1.61022e-05
1.57029e-05
1.52869e-05
1.768e-05
1.73314e-05
1.70191e-05
1.67827e-05
1.65448e-05
1.62686e-05
1.59202e-05
1.54881e-05
1.74915e-05
1.71249e-05
1.69674e-05
1.69073e-05
1.67172e-05
1.64232e-05
1.60448e-05
1.55804e-05
1.73687e-05
1.71901e-05
1.71998e-05
1.71517e-05
1.69459e-05
1.66301e-05
1.62295e-05
1.57441e-05
7.65194e-05
7.47828e-05
7.20076e-05
6.86985e-05
6.4952e-05
6.08015e-05
5.62913e-05
5.13629e-05
7.4954e-05
7.33785e-05
7.09886e-05
6.77961e-05
6.41481e-05
6.01057e-05
5.57081e-05
5.08973e-05
7.42718e-05
7.25871e-05
7.02964e-05
6.71763e-05
6.35881e-05
5.96279e-05
5.53282e-05
5.06183e-05
7.44189e-05
7.24644e-05
7.00439e-05
6.68387e-05
6.31904e-05
5.92457e-05
5.50039e-05
5.03803e-05
7.41997e-05
7.25219e-05
7.01821e-05
6.70526e-05
6.34438e-05
5.94796e-05
5.51883e-05
5.04954e-05
7.48848e-05
7.32418e-05
7.07386e-05
6.74643e-05
6.37732e-05
5.97276e-05
5.5351e-05
5.05758e-05
7.62525e-05
7.44088e-05
7.15853e-05
6.81512e-05
6.43375e-05
6.01766e-05
5.56906e-05
5.081e-05
0.000102829
9.61708e-05
9.18725e-05
8.77697e-05
8.23601e-05
7.58476e-05
6.8807e-05
6.15143e-05
0.000102444
9.62768e-05
9.18206e-05
8.76016e-05
8.21331e-05
7.56151e-05
6.85967e-05
6.13394e-05
0.000102471
9.65653e-05
9.1907e-05
8.75729e-05
8.20553e-05
7.55382e-05
6.85435e-05
6.13138e-05
0.00010267
9.67949e-05
9.19878e-05
8.75467e-05
8.19505e-05
7.53977e-05
6.84099e-05
6.12136e-05
0.000102677
9.68234e-05
9.20069e-05
8.75772e-05
8.20067e-05
7.54648e-05
6.84623e-05
6.12366e-05
0.000102779
9.67317e-05
9.19306e-05
8.75239e-05
8.1952e-05
7.5385e-05
6.83523e-05
6.1104e-05
0.000103199
9.67601e-05
9.19904e-05
8.76115e-05
8.20473e-05
7.54608e-05
6.83967e-05
6.11163e-05
0.000127581
0.000111558
0.000100512
9.40565e-05
8.79463e-05
8.07276e-05
7.28817e-05
6.48898e-05
0.000127695
0.000111935
0.000100884
9.4312e-05
8.80934e-05
8.08091e-05
7.29215e-05
6.48986e-05
0.000128088
0.000112417
0.000101267
9.45621e-05
8.82512e-05
8.09125e-05
7.299e-05
6.49412e-05
0.000128387
0.000112713
0.000101483
9.46851e-05
8.82971e-05
8.09066e-05
7.29578e-05
6.49001e-05
0.000128515
0.000112801
0.000101498
9.46657e-05
8.8282e-05
8.09023e-05
7.29566e-05
6.48977e-05
0.000128441
0.000112613
0.000101277
9.44602e-05
8.80942e-05
8.07239e-05
7.27875e-05
6.47434e-05
0.000128466
0.000112447
0.000101052
9.42547e-05
8.79258e-05
8.0581e-05
7.26636e-05
6.46398e-05
7.7918e-05
9.27297e-05
9.32745e-05
9.11324e-05
8.66966e-05
8.02942e-05
7.30182e-05
6.5536e-05
7.85718e-05
9.34689e-05
9.39405e-05
9.16568e-05
8.7093e-05
8.0593e-05
7.32268e-05
6.56618e-05
7.89462e-05
9.38716e-05
9.42596e-05
9.18719e-05
8.72291e-05
8.06747e-05
7.3265e-05
6.56641e-05
7.92299e-05
9.41846e-05
9.45198e-05
9.20554e-05
8.73411e-05
8.07323e-05
7.32833e-05
6.5654e-05
7.93045e-05
9.41892e-05
9.44739e-05
9.19983e-05
8.7293e-05
8.06955e-05
7.32554e-05
6.56354e-05
7.92622e-05
9.40842e-05
9.4347e-05
9.18789e-05
8.71797e-05
8.05858e-05
7.3155e-05
6.55498e-05
7.89404e-05
9.36641e-05
9.39136e-05
9.14849e-05
8.68299e-05
8.02755e-05
7.28926e-05
6.53438e-05
1.7696e-05
1.75838e-05
1.76962e-05
1.76166e-05
1.73666e-05
1.70033e-05
1.6554e-05
1.60185e-05
1.89107e-05
1.8692e-05
1.85371e-05
1.82742e-05
1.78758e-05
1.74249e-05
1.69005e-05
1.63223e-05
2.02939e-05
2.02837e-05
2.00897e-05
1.97271e-05
1.92944e-05
1.88471e-05
1.83256e-05
1.76929e-05
2.11772e-05
2.11648e-05
2.11865e-05
2.10133e-05
2.06248e-05
2.00056e-05
1.92977e-05
1.85413e-05
2.0757e-05
2.07234e-05
2.04979e-05
2.0093e-05
1.95774e-05
1.9048e-05
1.84977e-05
1.7858e-05
1.92327e-05
1.89651e-05
1.88119e-05
1.84965e-05
1.80746e-05
1.75918e-05
1.70417e-05
1.64351e-05
1.80789e-05
1.79498e-05
1.80247e-05
1.78875e-05
1.75931e-05
1.71955e-05
1.67189e-05
1.61601e-05
7.9733e-05
7.7211e-05
7.37517e-05
6.99303e-05
6.56907e-05
6.10553e-05
5.61009e-05
5.07811e-05
8.32921e-05
8.00639e-05
7.63359e-05
7.21781e-05
6.75599e-05
6.2409e-05
5.68364e-05
5.08111e-05
8.84731e-05
8.46888e-05
8.05977e-05
7.63338e-05
7.16783e-05
6.65609e-05
6.09923e-05
5.49732e-05
9.09512e-05
8.81636e-05
8.46163e-05
8.08049e-05
7.66539e-05
7.21793e-05
6.70317e-05
6.11299e-05
8.92392e-05
8.52841e-05
8.11124e-05
7.67888e-05
7.21029e-05
6.70285e-05
6.1423e-05
5.53144e-05
8.45597e-05
8.11756e-05
7.72424e-05
7.30341e-05
6.83472e-05
6.31496e-05
5.7507e-05
5.14159e-05
8.11e-05
7.8217e-05
7.45931e-05
7.07478e-05
6.64755e-05
6.17798e-05
5.67423e-05
5.13257e-05
0.000104023
9.63469e-05
9.17099e-05
8.73298e-05
8.1639e-05
7.48565e-05
6.76025e-05
6.01745e-05
0.000106458
9.83117e-05
9.3284e-05
8.85702e-05
8.25443e-05
7.5378e-05
6.76764e-05
5.97457e-05
0.000110908
0.000102319
9.63309e-05
9.05611e-05
8.34691e-05
7.53257e-05
6.6751e-05
5.79771e-05
0.000115408
0.000108014
0.000102451
9.71317e-05
9.08369e-05
8.40293e-05
7.74143e-05
7.10153e-05
0.000111138
0.000102421
9.64654e-05
9.07087e-05
8.36325e-05
7.55256e-05
6.7022e-05
5.83617e-05
0.000106619
9.82326e-05
9.33655e-05
8.87756e-05
8.28454e-05
7.57496e-05
6.81002e-05
6.02087e-05
0.000104018
9.59466e-05
9.15955e-05
8.74192e-05
8.18551e-05
7.51369e-05
6.79071e-05
6.04736e-05
0.000127417
0.000110886
9.95986e-05
9.30041e-05
8.67434e-05
7.94049e-05
7.15244e-05
6.35822e-05
0.000128404
0.000111735
0.000100288
9.34894e-05
8.6982e-05
7.93628e-05
7.11934e-05
6.29736e-05
0.000129646
0.000112347
0.0001002
9.23871e-05
8.44661e-05
7.53936e-05
6.608e-05
5.70729e-05
0.000133524
0.000117204
0.000105493
9.75099e-05
8.94137e-05
8.10066e-05
7.38744e-05
6.8892e-05
0.00012934
0.000112082
0.000100103
9.24483e-05
8.46529e-05
7.57196e-05
6.65911e-05
5.78334e-05
0.000127695
0.00011108
9.99097e-05
9.33627e-05
8.70191e-05
7.9509e-05
7.14215e-05
6.3267e-05
0.000126344
0.000109808
9.88765e-05
9.26376e-05
8.66087e-05
7.94129e-05
7.16273e-05
6.3744e-05
7.72249e-05
9.21001e-05
9.25948e-05
9.03206e-05
8.57233e-05
7.9235e-05
7.19851e-05
6.46005e-05
7.68746e-05
9.18791e-05
9.23607e-05
8.99557e-05
8.51534e-05
7.84374e-05
7.09798e-05
6.33982e-05
7.65037e-05
9.18753e-05
9.21094e-05
8.88488e-05
8.26849e-05
7.45838e-05
6.60669e-05
5.78276e-05
7.68988e-05
9.25404e-05
9.22594e-05
8.75743e-05
7.94977e-05
7.02318e-05
6.27997e-05
5.99502e-05
7.63007e-05
9.17588e-05
9.2132e-05
8.90022e-05
8.29653e-05
7.5005e-05
6.66522e-05
5.86099e-05
7.62524e-05
9.13549e-05
9.20502e-05
8.98301e-05
8.51614e-05
7.85426e-05
7.11614e-05
6.36407e-05
7.61791e-05
9.11649e-05
9.19593e-05
8.99602e-05
8.55574e-05
7.92017e-05
7.20545e-05
6.47448e-05
1.81129e-05
1.7933e-05
1.80688e-05
1.79942e-05
1.77352e-05
1.73583e-05
1.69001e-05
1.63548e-05
1.89805e-05
1.8804e-05
1.86598e-05
1.84478e-05
1.80405e-05
1.75565e-05
1.70291e-05
1.64418e-05
1.97523e-05
1.94812e-05
1.93155e-05
1.91156e-05
1.87065e-05
1.81821e-05
1.75171e-05
1.68219e-05
2.04387e-05
2.00997e-05
1.98406e-05
1.94977e-05
1.89103e-05
1.83176e-05
1.78135e-05
1.73579e-05
1.95858e-05
1.93232e-05
1.91371e-05
1.89183e-05
1.85104e-05
1.79942e-05
1.73632e-05
1.66952e-05
1.87423e-05
1.85757e-05
1.83937e-05
1.81663e-05
1.78235e-05
1.73772e-05
1.68788e-05
1.63244e-05
1.78854e-05
1.76702e-05
1.77125e-05
1.76581e-05
1.74236e-05
1.70795e-05
1.66553e-05
1.61483e-05
8.09314e-05
7.85615e-05
7.51766e-05
7.13565e-05
6.7021e-05
6.22497e-05
5.71599e-05
5.17133e-05
8.44769e-05
8.14295e-05
7.78253e-05
7.35027e-05
6.86146e-05
6.32274e-05
5.74938e-05
5.13911e-05
9.107e-05
8.81217e-05
8.41639e-05
7.93599e-05
7.399e-05
6.80779e-05
6.17357e-05
5.49357e-05
9.26133e-05
9.009e-05
8.65991e-05
8.21625e-05
7.68603e-05
7.04701e-05
6.31506e-05
5.57525e-05
8.99068e-05
8.69944e-05
8.31235e-05
7.83857e-05
7.30523e-05
6.71952e-05
6.09393e-05
5.42553e-05
8.30012e-05
8.02558e-05
7.68591e-05
7.27619e-05
6.80125e-05
6.27891e-05
5.72358e-05
5.13342e-05
7.8593e-05
7.66852e-05
7.37446e-05
7.01603e-05
6.60625e-05
6.15401e-05
5.66945e-05
5.14803e-05
0.000104687
9.65462e-05
9.21782e-05
8.79666e-05
8.23354e-05
7.5533e-05
6.82339e-05
6.07586e-05
0.000109468
0.000100852
9.54673e-05
9.04793e-05
8.41307e-05
7.6597e-05
6.86016e-05
6.05277e-05
0.000119731
0.000111941
0.000104873
9.8154e-05
9.03014e-05
8.14006e-05
7.20133e-05
6.22787e-05
0.000124967
0.000118054
0.000112052
0.000105532
9.81802e-05
9.01033e-05
8.14504e-05
7.20992e-05
0.000118977
0.000111305
0.00010435
9.77145e-05
8.99626e-05
8.11639e-05
7.18729e-05
6.22717e-05
0.000109191
0.000100996
9.55362e-05
9.05077e-05
8.41589e-05
7.66421e-05
6.86611e-05
6.05995e-05
0.000104424
9.70086e-05
9.25239e-05
8.82331e-05
8.25828e-05
7.58022e-05
6.85332e-05
6.10848e-05
0.000127588
0.000110785
9.96135e-05
9.32179e-05
8.70692e-05
7.97675e-05
7.19174e-05
6.40178e-05
0.000132947
0.000115479
0.000103206
9.57628e-05
8.86881e-05
8.05387e-05
7.20725e-05
6.38212e-05
0.000144129
0.000126864
0.00011329
0.000103565
9.40458e-05
8.38782e-05
7.36495e-05
6.30521e-05
0.00015251
0.00013693
0.000123833
0.000113859
0.000104941
9.60041e-05
8.68034e-05
7.70504e-05
0.000144248
0.000127069
0.000113455
0.00010368
9.41817e-05
8.40432e-05
7.38335e-05
6.3325e-05
0.000133603
0.000116218
0.00010374
9.60559e-05
8.88165e-05
8.05288e-05
7.19099e-05
6.35249e-05
0.000128762
0.000112146
0.000100756
9.40935e-05
8.77832e-05
8.0376e-05
7.24258e-05
6.44299e-05
7.65123e-05
9.1705e-05
9.2579e-05
9.05909e-05
8.61268e-05
7.96883e-05
7.24874e-05
6.51643e-05
7.84548e-05
9.43904e-05
9.51115e-05
9.24445e-05
8.70025e-05
7.96302e-05
7.19205e-05
6.44481e-05
8.58913e-05
0.000105227
0.000106295
0.00010202
9.46637e-05
8.63257e-05
7.73106e-05
6.71385e-05
9.62862e-05
0.000119055
0.000121075
0.000116464
0.000108194
9.79176e-05
8.65813e-05
7.51144e-05
8.62096e-05
0.000105394
0.000106325
0.000101943
9.44668e-05
8.59874e-05
7.68786e-05
6.66624e-05
7.9046e-05
9.48109e-05
9.53161e-05
9.24731e-05
8.68749e-05
7.93214e-05
7.14296e-05
6.38523e-05
7.77008e-05
9.27677e-05
9.34449e-05
9.1309e-05
8.67501e-05
8.0211e-05
7.28853e-05
6.54433e-05
1.76389e-05
1.75051e-05
1.75426e-05
1.74662e-05
1.7227e-05
1.68778e-05
1.64477e-05
1.59351e-05
1.8602e-05
1.84681e-05
1.83188e-05
1.81334e-05
1.77973e-05
1.73661e-05
1.68615e-05
1.63001e-05
1.98779e-05
1.96255e-05
1.95889e-05
1.93867e-05
1.90535e-05
1.86213e-05
1.80886e-05
1.74815e-05
2.07209e-05
2.05586e-05
2.04934e-05
2.03371e-05
1.99828e-05
1.93782e-05
1.86982e-05
1.80592e-05
2.01392e-05
1.98776e-05
1.98262e-05
1.95855e-05
1.92061e-05
1.87366e-05
1.81662e-05
1.75583e-05
1.88362e-05
1.86021e-05
1.84667e-05
1.82207e-05
1.7851e-05
1.73944e-05
1.68796e-05
1.6309e-05
1.76452e-05
1.75308e-05
1.7635e-05
1.75824e-05
1.73509e-05
1.69975e-05
1.65534e-05
1.60221e-05
7.83522e-05
7.61494e-05
7.29469e-05
6.92031e-05
6.50629e-05
6.05658e-05
5.57651e-05
5.06014e-05
8.23189e-05
7.94986e-05
7.59664e-05
7.18252e-05
6.72142e-05
6.21366e-05
5.66804e-05
5.07737e-05
8.82885e-05
8.55648e-05
8.16431e-05
7.72853e-05
7.24791e-05
6.72361e-05
6.16058e-05
5.54627e-05
9.14938e-05
8.93047e-05
8.60243e-05
8.20286e-05
7.75332e-05
7.25408e-05
6.68228e-05
6.04854e-05
8.90332e-05
8.6279e-05
8.22877e-05
7.78474e-05
7.2968e-05
6.76425e-05
6.19167e-05
5.56824e-05
8.31501e-05
8.02906e-05
7.66286e-05
7.24897e-05
6.78392e-05
6.27136e-05
5.7196e-05
5.12425e-05
7.96803e-05
7.72891e-05