/*--------------------------------*- C++ -*----------------------------------*\
| =========                 |                                                 |
| \\      /  F ield         | OpenFOAM: The Open Source CFD Toolbox           |
|  \\    /   O peration     | Version:  plus.master.MPPICInterFoam            |
|   \\  /    A nd           | Web:      www.OpenFOAM.com                      |
|    \\/     M anipulation  |                                                 |
\*---------------------------------------------------------------------------*/
FoamFile
{
    version     2.0;
    format      ascii;
    class       volScalarField;
    location    "4.8";
    object      k;
}
// * * * * * * * * * * * * * * * * * * * * * * * * * * * * * * * * * * * * * //

dimensions      [0 2 -2 0 0 0 0];

internalField   nonuniform List<scalar> 
11822
(
0.0397324
0.047019
0.0537471
0.0582741
0.0578777
0.0527141
0.045527
0.0459003
0.0557784
0.0656769
0.0725416
0.0720555
0.0644074
0.0540774
0.0507243
0.0636642
0.0764061
0.085082
0.0850863
0.0740123
0.0612858
0.0526403
0.0671649
0.0832017
0.0826888
0.0829017
0.0794644
0.0642611
0.05059
0.063295
0.076581
0.0807951
0.0810045
0.0741737
0.0608384
0.0457824
0.055488
0.0656773
0.0738917
0.0721939
0.0637807
0.0536824
0.039757
0.0468372
0.0533729
0.0578451
0.0572094
0.052269
0.0453776
0.0389466
0.0461192
0.0530046
0.0578464
0.0572892
0.0516814
0.0443574
0.0450958
0.0549109
0.0648247
0.0714437
0.0716315
0.0633158
0.0529513
0.0500983
0.0630307
0.0735365
0.0867537
0.0759599
0.0717602
0.0606151
0.0522357
0.0669613
0.0820311
0.0825234
0.0852961
0.0769739
0.0638794
0.0500863
0.0629672
0.0748096
0.0814397
0.0823438
0.0717615
0.0603495
0.0451329
0.0547425
0.064334
0.0723859
0.070657
0.0626613
0.0528424
0.0392016
0.0461652
0.0528301
0.057601
0.0568967
0.0515904
0.0445679
0.0379744
0.0445945
0.051142
0.0560801
0.0551374
0.0495797
0.0427107
0.0437735
0.0528496
0.062412
0.0715748
0.0695038
0.0603021
0.0507607
0.0486918
0.0610193
0.0719424
0.0776786
0.0775466
0.0700433
0.0583586
0.0509829
0.0655857
0.0767963
0.0784666
0.0840567
0.074235
0.062267
0.0488751
0.061249
0.0723401
0.0788958
0.0765888
0.0710725
0.0586437
0.0441226
0.0531222
0.0625351
0.0718
0.069947
0.0608402
0.0512379
0.038577
0.0451107
0.0515383
0.0564968
0.0556818
0.0502512
0.0434347
0.036986
0.0428054
0.0484494
0.0527244
0.0518553
0.0469925
0.0409452
0.0421985
0.0500734
0.0585461
0.0670127
0.0648086
0.0565881
0.0481293
0.0465434
0.05697
0.0666927
0.0739984
0.0760533
0.065712
0.0549
0.0486994
0.06152
0.0739987
0.0736051
0.0755702
0.0728008
0.0588842
0.0469428
0.0576725
0.068269
0.0745807
0.0750455
0.0667793
0.0555126
0.0428583
0.0507691
0.0588917
0.067623
0.0656513
0.0574583
0.048984
0.0379367
0.0437752
0.0494191
0.0538236
0.0530907
0.0481927
0.0420719
0.036283
0.0413105
0.0459335
0.0491787
0.0485434
0.044664
0.0394415
0.0409269
0.0476843
0.0548831
0.0615175
0.0601129
0.0533487
0.0457428
0.044642
0.0533923
0.0616577
0.0666586
0.0668985
0.0619016
0.0515
0.0464858
0.0570247
0.0689612
0.0680258
0.0693426
0.067782
0.0548041
0.0451872
0.0542097
0.0637199
0.0682937
0.0675103
0.0627828
0.0522057
0.0418491
0.0487092
0.055753
0.0620757
0.0608871
0.0544956
0.0468508
0.0375424
0.0426867
0.0474074
0.0507956
0.050248
0.0462484
0.0408879
0.0361512
0.0404839
0.0441639
0.0464446
0.0459217
0.0428818
0.0384708
0.040307
0.0458858
0.0513637
0.0555868
0.054779
0.0499053
0.0437994
0.0435218
0.0506205
0.0579345
0.062177
0.0602991
0.0569184
0.0484291
0.0450849
0.0533682
0.0629051
0.0643132
0.0643698
0.0622194
0.0511142
0.0441584
0.0514895
0.0592472
0.0647973
0.0627074
0.0583485
0.0493166
0.041423
0.0472281
0.0530139
0.0576357
0.0567793
0.0516437
0.0451734
0.0376186
0.0421641
0.0460887
0.0486271
0.0480906
0.044825
0.0401481
0.0378043
0.0321524
0.0272062
0.0228625
0.0189634
0.0152731
0.011295
0.00517008
0.0439483
0.0364452
0.0302399
0.0250219
0.0204992
0.0163493
0.0120049
0.00542113
0.0489491
0.0399897
0.0327224
0.0267633
0.0217235
0.0172015
0.0125647
0.00562954
0.0509484
0.0414098
0.0337361
0.0274966
0.0222619
0.0175962
0.0128392
0.00574497
0.0488109
0.040007
0.0328448
0.0269512
0.0219439
0.0174248
0.0127592
0.00573529
0.0438868
0.0365966
0.0305441
0.0254228
0.0209438
0.016788
0.0123823
0.00562402
0.0379771
0.0325262
0.0277277
0.0234742
0.0196076
0.0158921
0.0118194
0.00544877
0.0368774
0.0314245
0.0266804
0.0225043
0.0187256
0.0151169
0.0111994
0.00514475
0.0429056
0.0355884
0.0296165
0.024603
0.0202278
0.0161749
0.0118988
0.00539208
0.048022
0.0391328
0.032072
0.0263253
0.0214452
0.0170271
0.0124602
0.00560223
0.0501842
0.0406219
0.0331171
0.0270814
0.0220032
0.0174385
0.0127465
0.00572299
0.0480369
0.0392694
0.0322894
0.0265891
0.0217252
0.0172957
0.0126864
0.00572095
0.0430844
0.0359439
0.0300895
0.0251403
0.0207805
0.0166964
0.0123343
0.00561792
0.0373359
0.0320455
0.0274105
0.0232869
0.0195065
0.0158414
0.0117982
0.00545239
0.035832
0.0307239
0.0262282
0.0222125
0.0185285
0.0149743
0.0110962
0.00510929
0.0414994
0.0346697
0.0290429
0.0242488
0.0200002
0.0160168
0.0117865
0.00535197
0.0464884
0.0380957
0.0314273
0.0259381
0.0212055
0.0168649
0.0123448
0.00555896
0.0488074
0.0396345
0.0324977
0.0267148
0.021782
0.0172907
0.0126403
0.00568235
0.0467638
0.0383993
0.0317614
0.0262873
0.0215482
0.0171783
0.0126005
0.00568894
0.0420345
0.0352809
0.0297073
0.0249312
0.0206615
0.0166166
0.0122733
0.00559737
0.036645
0.031626
0.0271799
0.0231681
0.0194414
0.0157952
0.0117589
0.00544127
0.0347665
0.0300614
0.0258196
0.0219504
0.0183459
0.0148362
0.0109921
0.00507767
0.0399329
0.0337368
0.0284981
0.0239223
0.019788
0.015864
0.0116729
0.00531416
0.044462
0.0369091
0.03076
0.0255579
0.0209706
0.0167007
0.0122232
0.00551467
0.0467146
0.0383983
0.0318148
0.0263391
0.0215575
0.0171358
0.0125242
0.00563855
0.0449262
0.0373524
0.0311997
0.0259865
0.0213709
0.0170536
0.0125032
0.00565299
0.0407477
0.0345727
0.029339
0.0247384
0.0205458
0.0165288
0.0121988
0.00557242
0.0358912
0.031221
0.0269761
0.0230625
0.0193723
0.0157334
0.0116994
0.00542378
0.033915
0.029591
0.0255743
0.0218274
0.0182889
0.0148176
0.0109982
0.00508411
0.0385532
0.0329875
0.0281158
0.0237337
0.019697
0.015826
0.0116698
0.00532536
0.0425131
0.0358574
0.0302307
0.0252999
0.0208453
0.0166431
0.0122087
0.00552514
0.0444931
0.0372351
0.0312495
0.0260731
0.0214328
0.0170791
0.012509
0.00564948
0.0431018
0.0364126
0.0307601
0.0257945
0.0212891
0.0170206
0.0124989
0.0056655
0.0395899
0.0340084
0.0291004
0.0246527
0.0205209
0.016526
0.0122074
0.00558379
0.0352921
0.0309581
0.0268897
0.0230512
0.0193834
0.0157465
0.0117105
0.0054264
0.0335378
0.0295356
0.0257155
0.0221052
0.0186863
0.0153276
0.0115922
0.00592732
0.0376659
0.0326734
0.0281212
0.0239263
0.0200289
0.0162829
0.012225
0.00617551
0.0410529
0.0352544
0.0300914
0.0254118
0.0211193
0.0170525
0.0127275
0.00637642
0.0427697
0.0365178
0.0310638
0.0261619
0.0216882
0.0174686
0.0130083
0.00649568
0.0417579
0.0358941
0.0306786
0.0259365
0.0215694
0.0174172
0.0129933
0.00649801
0.03887
0.0338133
0.0291806
0.0248774
0.0208455
0.0169444
0.0127065
0.00639446
0.0350682
0.0310054
0.027082
0.023329
0.019735
0.0161762
0.0122082
0.00620649
0.0334128
0.0289208
0.0249416
0.0213628
0.0180402
0.0147665
0.0110841
0.00521911
0.0375774
0.0316972
0.0268389
0.022676
0.018946
0.0153775
0.0114696
0.00533755
0.0408501
0.033897
0.0283013
0.0236435
0.0195785
0.0157774
0.0117019
0.00540022
0.0421687
0.0347393
0.028822
0.0239495
0.0197448
0.0158533
0.0117228
0.00538675
0.0408517
0.0338146
0.0281529
0.0234489
0.0193598
0.0155577
0.0115087
0.00529063
0.0375067
0.03149
0.0265228
0.0222852
0.0185184
0.0149539
0.0111007
0.00513129
0.0331741
0.028536
0.0244392
0.0207826
0.0174271
0.0141709
0.0105712
0.00493466
0.0331116
0.028782
0.0249305
0.0214296
0.0181388
0.014865
0.0111643
0.00526565
0.0371441
0.0314637
0.0267727
0.0227155
0.0190322
0.0154689
0.0115437
0.00538076
0.0403748
0.0335919
0.0281782
0.0236466
0.0196422
0.015854
0.0117652
0.00543872
0.0416771
0.0343877
0.0286529
0.0239161
0.0197797
0.0159077
0.01177
0.00541885
0.040288
0.0334274
0.027954
0.0233852
0.0193657
0.015587
0.0115374
0.00531537
0.0369209
0.0311072
0.0263181
0.022201
0.0184985
0.0149591
0.0111115
0.00514867
0.0326691
0.0282012
0.0242477
0.0206887
0.0173882
0.0141576
0.010569
0.00494806
0.0328784
0.0287502
0.0250128
0.0215537
0.0182561
0.0149505
0.0112116
0.00528591
0.0366759
0.0313097
0.0267993
0.0228189
0.0191436
0.0155524
0.0115887
0.00539885
0.0397115
0.0333069
0.0281313
0.0237121
0.0197338
0.0159254
0.0118015
0.00545242
0.0409107
0.034015
0.0285435
0.023939
0.0198416
0.0159582
0.0117923
0.0054272
0.0394889
0.0330321
0.0278158
0.0233745
0.0193962
0.0156127
0.0115429
0.00531811
0.0362214
0.0307591
0.026182
0.0221693
0.0185014
0.0149602
0.0111001
0.00514614
0.0321632
0.0279324
0.0241265
0.0206423
0.0173678
0.0141377
0.0105436
0.00494145
0.0326858
0.028775
0.0251302
0.0216817
0.0183516
0.0149995
0.0112184
0.00528631
0.0361692
0.0311941
0.0268648
0.0229351
0.0192414
0.0156059
0.0115983
0.00539859
0.038849
0.0330098
0.0281118
0.0237914
0.0198157
0.0159712
0.0118068
0.00544976
0.0398377
0.0335939
0.0284527
0.0239747
0.0198963
0.015987
0.0117879
0.00542191
0.0384803
0.0326178
0.027702
0.0233778
0.0194222
0.0156202
0.0115256
0.00530981
0.0354764
0.0304431
0.0260821
0.022154
0.0185007
0.0149458
0.0110694
0.00513547
0.0316893
0.0277147
0.0240413
0.0206085
0.0173417
0.0141021
0.0104997
0.00492823
0.0326773
0.0289398
0.0253428
0.0218708
0.0184895
0.0150852
0.0112625
0.00529182
0.0358702
0.0312442
0.0270476
0.0231276
0.0193908
0.015703
0.0116539
0.00541734
0.0381834
0.0328877
0.0282224
0.0239571
0.0199565
0.016067
0.0118655
0.00547662
0.0389469
0.0333533
0.0284982
0.0241041
0.0200175
0.0160733
0.0118443
0.00545216
0.0376936
0.0323952
0.0277327
0.023484
0.0195234
0.0156942
0.0115766
0.00533788
0.034969
0.0303183
0.0261252
0.0222437
0.0185833
0.0150076
0.011114
0.00515764
0.0314338
0.0276703
0.024088
0.0206775
0.0174035
0.0141499
0.0105349
0.004939
0.0330541
0.0294198
0.0258369
0.0223516
0.0189684
0.0155828
0.0117808
0.00604964
0.0360467
0.0316741
0.0275549
0.0236378
0.0198984
0.0162274
0.0121986
0.00621114
0.0380842
0.0332096
0.0287003
0.0244691
0.020476
0.0166074
0.0124294
0.00629833
0.0386755
0.0335939
0.0289406
0.0246068
0.0205413
0.0166269
0.0124265
0.00629182
0.0375117
0.0326512
0.0281653
0.0239788
0.0200495
0.0162604
0.0121769
0.00618397
0.035005
0.0306437
0.0265693
0.0227367
0.019117
0.0155921
0.0117362
0.00600174
0.0316637
0.0280485
0.0245356
0.0211703
0.0179477
0.0147528
0.0111759
0.00577512
0.0334061
0.0287078
0.0245615
0.020861
0.0174696
0.0141864
0.0105676
0.0049179
0.0386275
0.0323357
0.027109
0.0226574
0.0187293
0.0150517
0.0111243
0.00510203
0.0433726
0.0356696
0.0294126
0.0242401
0.0198087
0.0157736
0.0115753
0.00525231
0.0463326
0.037701
0.0307966
0.025179
0.0204426
0.0161955
0.0118388
0.00534383
0.0459815
0.037499
0.0306923
0.0251323
0.0204274
0.016196
0.0118448
0.00534664
0.0425102
0.0351973
0.02919
0.024155
0.0197952
0.0157949
0.0116052
0.0052671
0.0374931
0.0318772
0.0269605
0.0226488
0.0187831
0.0151287
0.011192
0.00513449
0.0328533
0.0283294
0.0243313
0.0207355
0.0174065
0.0141555
0.0105544
0.00492696
0.0378732
0.031781
0.0267523
0.0224506
0.0186159
0.0149895
0.0110914
0.00510385
0.0425485
0.0349843
0.0289396
0.0239505
0.019642
0.0156777
0.0115214
0.0052463
0.0455285
0.0369527
0.0302469
0.0248254
0.0202303
0.0160681
0.0117643
0.00532928
0.0450827
0.0366938
0.0301024
0.0247458
0.0201864
0.0160459
0.0117546
0.00532523
0.0415234
0.0343911
0.0286107
0.0237696
0.0195468
0.0156347
0.0115066
0.00524136
0.036575
0.0311553
0.026441
0.0222959
0.0185493
0.0149745
0.0110965
0.00510902
0.0323014
0.0280221
0.0241782
0.0206641
0.0173676
0.0141232
0.010522
0.00491934
0.0369539
0.0312482
0.0264692
0.0223071
0.0185372
0.014934
0.0110449
0.00509008
0.0413081
0.0342182
0.0285091
0.0237197
0.0195123
0.0155914
0.0114559
0.00522379
0.0441478
0.036036
0.0297054
0.0245215
0.0200529
0.0159508
0.0116792
0.00529786
0.043615
0.0357344
0.0295237
0.0244069
0.0199802
0.0159072
0.0116554
0.00528813
0.0401814
0.0335239
0.0280752
0.0234418
0.0193366
0.015488
0.0114011
0.00520238
0.035536
0.0304595
0.0259927
0.0220065
0.018353
0.0148312
0.0109912
0.00507005
0.031782
0.0277683
0.0240651
0.0206099
0.0173278
0.0140796
0.0104747
0.00490687
0.0359824
0.0307505
0.0262313
0.0221914
0.018467
0.0148745
0.0109887
0.00507232
0.0398025
0.033412
0.0281039
0.0235148
0.0193941
0.0155053
0.0113844
0.00519828
0.042259
0.034994
0.0291601
0.0242337
0.0198865
0.0158362
0.0115912
0.00526502
0.041751
0.0346778
0.0289471
0.0240885
0.0197883
0.0157742
0.0115561
0.00525135
0.0386798
0.0326463
0.0275712
0.0231435
0.019144
0.0153491
0.0112971
0.00516584
0.0344828
0.0298063
0.0255902
0.0217476
0.0181711
0.0146918
0.0108838
0.00503377
0.0314857
0.0276944
0.0240917
0.0206669
0.0173844
0.0141274
0.0105134
0.00492079
0.0352555
0.0304599
0.0261569
0.0222035
0.0185037
0.0149145
0.0110278
0.00509435
0.0384971
0.0328093
0.0278701
0.0234483
0.0193923
0.0155268
0.0114171
0.00522287
0.0404535
0.0341212
0.0287813
0.024091
0.0198438
0.0158365
0.0116144
0.00528787
0.0400027
0.033798
0.0285425
0.0239173
0.0197239
0.0157606
0.0115715
0.00526973
0.0373866
0.0319686
0.0272411
0.0229918
0.0190801
0.0153315
0.0113077
0.00517805
0.0336488
0.0293499
0.025354
0.0216297
0.0181163
0.0146737
0.0108886
0.00503625
0.031683
0.0280528
0.0245319
0.0211638
0.0179429
0.0147526
0.0111812
0.00577806
0.0351085
0.0306598
0.0265278
0.0226698
0.019051
0.0155438
0.0117131
0.00599119
0.0378545
0.0327589
0.0281192
0.0238543
0.0199103
0.0161465
0.0121083
0.0061488
0.0393569
0.033837
0.0289064
0.0244297
0.0203247
0.0164378
0.0123005
0.00622378
0.0389082
0.0334761
0.0286238
0.0242169
0.0201736
0.0163378
0.0122389
0.00619207
0.0366585
0.0317865
0.0273589
0.0232883
0.0195137
0.0158872
0.0119509
0.00606949
0.0333054
0.0293234
0.0255207
0.0219321
0.0185386
0.0152073
0.0115016
0.00588593
0.0376896
0.0323092
0.0275723
0.0233759
0.0195583
0.0158817
0.0118374
0.0054834
0.0424859
0.0355116
0.0297717
0.0249175
0.0206485
0.0166457
0.0123448
0.00566531
0.0457963
0.0377113
0.0312331
0.025903
0.0213213
0.0171035
0.0126407
0.00577487
0.0461874
0.0379137
0.0313333
0.0259524
0.0213477
0.0171188
0.0126507
0.00578065
0.0433247
0.0359471
0.029977
0.0250128
0.020695
0.0166701
0.0123607
0.00567547
0.0387374
0.0327081
0.0277027
0.0234075
0.0195591
0.0158767
0.0118414
0.0054894
0.0336664
0.0291472
0.0251467
0.0215448
0.0181966
0.014894
0.011176
0.00524908
0.0371071
0.031884
0.0273067
0.0232335
0.019494
0.0158592
0.0118356
0.00549724
0.0418868
0.0350622
0.0295013
0.0247902
0.0206084
0.016647
0.0123604
0.00568572
0.0452917
0.0372896
0.030983
0.0258029
0.0213127
0.0171339
0.012678
0.00580424
0.0457214
0.0375241
0.0311171
0.0258887
0.0213725
0.0171765
0.0127073
0.00581746
0.0428028
0.0355884
0.0298128
0.0249924
0.0207512
0.0167495
0.0124315
0.00571684
0.0382685
0.032442
0.0276133
0.0234344
0.0196412
0.0159696
0.0119195
0.00553239
0.033362
0.0290066
0.0251337
0.0216102
0.0182949
0.014993
0.0112569
0.00529375
0.0364725
0.0315135
0.0271189
0.0231502
0.0194564
0.0158329
0.0118085
0.00548892
0.0410947
0.0346205
0.0293008
0.024725
0.0205991
0.0166469
0.0123515
0.00568343
0.0444715
0.0368268
0.0307916
0.0257667
0.0213379
0.0171637
0.0126898
0.00580863
0.0449366
0.0370968
0.0309678
0.0258942
0.0214343
0.017235
0.0127386
0.00582882
0.0420729
0.0352517
0.029735
0.0250467
0.0208451
0.0168293
0.0124767
0.00573417
0.0377592
0.0322606
0.0276266
0.023535
0.019756
0.0160592
0.0119704
0.00555323
0.0331244
0.0289737
0.0252162
0.0217355
0.018414
0.0150808
0.0113064
0.00531577
0.0357704
0.0311534
0.0269521
0.0230729
0.0194071
0.0157827
0.0117535
0.00546882
0.0400502
0.0341246
0.029104
0.0246636
0.0205784
0.0166227
0.0123138
0.00566707
0.0431493
0.0362197
0.0305771
0.0257279
0.0213497
0.0171678
0.0126706
0.00579641
0.0435958
0.0365156
0.0307971
0.0259004
0.021484
0.0172671
0.0127373
0.00582255
0.0410648
0.0348681
0.0296748
0.0251157
0.0209307
0.0168828
0.0124884
0.00573368
0.0371977
0.0321149
0.0276806
0.0236514
0.0198594
0.0161196
0.0119859
0.00555664
0.0329234
0.0289949
0.0253331
0.021865
0.0185124
0.0151334
0.0113172
0.00532024
0.0352178
0.0309276
0.0268929
0.0230789
0.0194261
0.0157956
0.011758
0.00546291
0.0391283
0.0337603
0.0290192
0.0246872
0.0206237
0.0166575
0.0123346
0.00567438
0.0418507
0.0357201
0.0304703
0.0257716
0.0214223
0.0172241
0.0127058
0.00581277
0.0422786
0.0360519
0.0307396
0.0259888
0.02159
0.0173454
0.0127855
0.00584534
0.0402128
0.0346428
0.0297411
0.0252685
0.0210696
0.0169783
0.012545
0.00575797
0.0368372
0.0321326
0.0278513
0.0238435
0.0200122
0.0162197
0.0120431
0.00557701
0.0329055
0.0291557
0.0255458
0.022057
0.0186547
0.0152242
0.0113669
0.00533134
0.035037
0.0310054
0.0271039
0.0233639
0.0197743
0.0162128
0.0122366
0.00622382
0.038651
0.033751
0.0292315
0.0249954
0.0209895
0.017082
0.0128138
0.00645424
0.0410863
0.03563
0.0306889
0.026108
0.0218102
0.0176587
0.0131864
0.00660638
0.0415536
0.0360244
0.0310193
0.0263726
0.0220083
0.0177955
0.0132715
0.00664381
0.0398905
0.0348206
0.030125
0.0257051
0.0215159
0.017443
0.0130361
0.00654925
0.0369283
0.0325046
0.0283172
0.0243139
0.0204778
0.016699
0.012544
0.00635406
0.0332651
0.0296226
0.0260306
0.0225303
0.0191266
0.0157152
0.0118803
0.00609202
0.000394094
0.000887883
0.00126854
0.00166587
0.00208561
0.00250644
0.00286103
0.00310095
0.000399291
0.000903688
0.00129637
0.00170818
0.00214372
0.00257599
0.00293629
0.00317732
0.000400891
0.000911918
0.00131409
0.00173803
0.00218714
0.00262935
0.00299525
0.00323849
0.000399964
0.000914022
0.00132255
0.00175508
0.00221376
0.00266384
0.00303483
0.00328051
0.000397556
0.000911798
0.00132344
0.00176066
0.00222479
0.00267929
0.00305286
0.00329929
0.000394938
0.000907087
0.0013183
0.0017558
0.00222082
0.00267651
0.00305101
0.00329791
0.000391895
0.000898576
0.00130447
0.00173603
0.00219513
0.00264686
0.0030194
0.00326579
0.000529764
0.00119195
0.00171058
0.00226044
0.00285533
0.00341912
0.00384352
0.00408928
0.000536349
0.00121518
0.0017515
0.00232187
0.00293889
0.00351159
0.00393603
0.00417762
0.000538492
0.00122887
0.00177956
0.00236742
0.00300335
0.00358259
0.00400831
0.00424823
0.000538071
0.00123528
0.00179585
0.00239583
0.00304449
0.0036319
0.00406002
0.00429941
0.000537302
0.00123828
0.00180515
0.00241309
0.00307018
0.00366237
0.00409169
0.00432975
0.000536723
0.00123778
0.00180595
0.00241603
0.00307596
0.00367066
0.00410104
0.00433889
0.000534255
0.00122861
0.00179019
0.00239313
0.00304675
0.00363981
0.00407029
0.00430872
0.000716362
0.00165387
0.00243212
0.00328931
0.00421344
0.00492528
0.00533533
0.00548946
0.000729162
0.00169832
0.0025075
0.00339609
0.00434817
0.00505129
0.00544912
0.00559072
0.000736099
0.00172952
0.00256553
0.00348493
0.00445664
0.005148
0.0055398
0.00567357
0.000739784
0.00174995
0.00260437
0.00354528
0.00453047
0.00522577
0.00561133
0.0057387
0.000744155
0.00176721
0.00263568
0.00359299
0.00458761
0.00528424
0.00566623
0.00578783
0.000747846
0.00177644
0.00265074
0.00361507
0.00461395
0.00531406
0.00569541
0.00581423
0.00074558
0.00176529
0.00263106
0.00358688
0.00458352
0.0052895
0.00567335
0.00579287
0.00104651
0.00260895
0.00403415
0.00564757
0.00681278
0.00745136
0.00765786
0.00754182
0.00107479
0.00270676
0.00419864
0.00585632
0.00700284
0.00761677
0.00779619
0.00765591
0.00109434
0.00278221
0.00433042
0.00602735
0.00716892
0.00776446
0.00791631
0.00775665
0.00111024
0.00284017
0.00442635
0.00614647
0.00728306
0.0078683
0.00801344
0.00784021
0.00112814
0.00289368
0.00450857
0.00624919
0.00738644
0.00796558
0.00810081
0.0079153
0.00114251
0.00292875
0.004558
0.00631319
0.00745307
0.00802985
0.00815959
0.00796664
0.0011424
0.00291868
0.00453801
0.0063005
0.00744592
0.00802654
0.00815785
0.00796388
0.00172906
0.00529776
0.00811769
0.0100754
0.0110769
0.0113703
0.0111086
0.0104533
0.00179395
0.00550011
0.00839692
0.0103352
0.0113082
0.0115636
0.0112587
0.0105648
0.00184494
0.00566753
0.00864012
0.0105712
0.0115263
0.0117549
0.0114086
0.0106781
0.00188885
0.00580759
0.00883391
0.010762
0.0116989
0.0118967
0.0115279
0.010776
0.00193346
0.00593698
0.00900546
0.010932
0.0118552
0.0120349
0.0116475
0.0108772
0.00196819
0.00603752
0.00913884
0.0110648
0.0119773
0.012145
0.0117453
0.0109622
0.00197088
0.00605814
0.00917839
0.0111111
0.0120202
0.0121835
0.0117808
0.0109928
0.00481329
0.0125388
0.0157862
0.0170284
0.0171919
0.0166598
0.0155926
0.014115
0.00492056
0.0127832
0.0160239
0.0172694
0.0174183
0.0168452
0.015721
0.0141857
0.00502217
0.0130283
0.0162756
0.017527
0.0176579
0.0170434
0.0158661
0.0142802
0.00511995
0.0132599
0.0165213
0.0177698
0.0178784
0.0172249
0.0160047
0.0143805
0.00522379
0.0134979
0.0167799
0.0180177
0.0180936
0.0174019
0.0161467
0.0144944
0.00534181
0.013784
0.0170828
0.0182876
0.0183133
0.0175792
0.0162939
0.0146196
0.00541056
0.01399
0.01731
0.0184839
0.0184628
0.017693
0.0163876
0.0147004
0.000322676
0.0007351
0.00106957
0.00143095
0.0018187
0.00222361
0.0025772
0.00282616
0.00030967
0.000711697
0.00104312
0.00140439
0.00179312
0.00220175
0.00256225
0.00282041
0.00030254
0.000699083
0.0010277
0.00138684
0.00177358
0.00218198
0.00254511
0.0028085
0.000306393
0.000705002
0.00103148
0.00138599
0.00176714
0.00216982
0.00252961
0.0027922
0.000316011
0.000720325
0.00104524
0.00139472
0.00176957
0.00216546
0.00251997
0.00277914
0.000324709
0.000733784
0.00105734
0.0014028
0.00177263
0.00216354
0.00251434
0.00277072
0.000331161
0.000743268
0.00106589
0.00140887
0.00177558
0.00216374
0.00251145
0.00276531
0.000453377
0.00102717
0.00149448
0.00199835
0.00254404
0.00309242
0.00352936
0.00379489
0.000434055
0.000992391
0.00145316
0.00195187
0.00249115
0.00303989
0.0034854
0.00376405
0.00042182
0.000969625
0.00142387
0.00191597
0.00244761
0.00299324
0.0034426
0.00373
0.000424213
0.000969959
0.00141866
0.00190318
0.00242644
0.00296496
0.00341257
0.0037021
0.000435297
0.000984595
0.0014295
0.00190745
0.0024237
0.00295565
0.00339942
0.0036881
0.000446269
0.00100004
0.00144269
0.00191614
0.00242751
0.00295554
0.00339778
0.0036846
0.000454686
0.00101203
0.00145381
0.00192531
0.00243479
0.00296059
0.00340001
0.00368479
0.000632675
0.00145503
0.00215329
0.00293325
0.00379446
0.00452697
0.00499429
0.00518703
0.000604311
0.00139735
0.0020749
0.00283216
0.00367195
0.0044098
0.00489779
0.00511442
0.000583971
0.00135396
0.00201274
0.00274867
0.00356782
0.00430497
0.00480807
0.00504279
0.000581352
0.00134021
0.00198574
0.00270586
0.003508
0.00423774
0.00474801
0.00499247
0.000590645
0.00134818
0.00198602
0.00269571
0.00348622
0.00421311
0.00472539
0.00497229
0.000601927
0.00136275
0.00199755
0.00270219
0.00348666
0.0042096
0.00472026
0.0049691
0.000611292
0.00137651
0.0020116
0.00271611
0.00350063
0.00421965
0.00472698
0.00497331
0.000936186
0.00229335
0.00354032
0.00496755
0.00627991
0.0070324
0.00732438
0.00726658
0.000886202
0.00217018
0.00335026
0.00469676
0.00602707
0.00681497
0.00715034
0.007136
0.000846498
0.0020689
0.00318997
0.00446686
0.00580014
0.0066144
0.00698521
0.0070079
0.000830028
0.00201511
0.00309708
0.00433428
0.00565281
0.00648187
0.00687125
0.00691781
0.000831863
0.00200203
0.00306348
0.0042783
0.00558243
0.00641423
0.00681702
0.00687595
0.000841037
0.00201086
0.00306525
0.00427011
0.00556285
0.00638961
0.00679521
0.00686159
0.00085123
0.00202815
0.00308552
0.00429119
0.00557838
0.00639774
0.00679861
0.00686255
0.00155171
0.004574
0.00716993
0.00934631
0.0105342
0.0109849
0.0108481
0.0102771
0.00145583
0.00425299
0.00672269
0.00892094
0.0101558
0.0106655
0.0105944
0.010089
0.00137323
0.00397581
0.00633319
0.00853069
0.00979941
0.0103581
0.0103451
0.00990025
0.00132333
0.00379668
0.00606866
0.0082398
0.00953508
0.0101317
0.0101605
0.00976118
0.00130509
0.00372034
0.00594111
0.00807944
0.00938023
0.00999362
0.010051
0.00968264
0.00130629
0.00371204
0.00590643
0.00802007
0.00931549
0.00993108
0.00999931
0.00964635
0.00131772
0.00375114
0.00594608
0.00804949
0.00932628
0.00992935
0.00999136
0.00963692
0.00416137
0.0108564
0.0144805
0.0160982
0.0165972
0.0163258
0.0154493
0.0141021
0.00390311
0.0101868
0.0138676
0.0155642
0.0161441
0.0159545
0.0151596
0.0138935
0.00367879
0.0096144
0.0133374
0.0150876
0.0157236
0.015595
0.0148689
0.0136787
0.00353198
0.00922625
0.0129503
0.0147259
0.0153931
0.0153056
0.0146351
0.0135115
0.00347943
0.00906822
0.012754
0.0145205
0.0151886
0.0151223
0.0144876
0.0134085
0.00349488
0.0090732
0.0127127
0.0144494
0.0150994
0.0150324
0.0144107
0.0133538
0.00356481
0.00922242
0.0128203
0.0145098
0.0151241
0.0150319
0.0143971
0.0133372
0.000334777
0.000749191
0.00107125
0.00141236
0.00177651
0.00216145
0.00250521
0.00275497
0.000337442
0.000755295
0.00107786
0.00141777
0.00177973
0.00216093
0.00250001
0.00274456
0.00034275
0.000767348
0.00109292
0.00143396
0.00179604
0.00217566
0.00251213
0.00275325
0.000352047
0.000787752
0.00111997
0.00146606
0.0018323
0.00221379
0.00255014
0.00278947
0.000363779
0.000813893
0.00115621
0.0015117
0.00188711
0.00227531
0.0026151
0.00285478
0.000375655
0.000841306
0.00119592
0.0015641
0.00195284
0.0023513
0.00269649
0.00293735
0.000385896
0.000866346
0.0012339
0.00161617
0.00201979
0.00242906
0.00277865
0.00301883
0.000459893
0.00102019
0.00146146
0.0019315
0.00243942
0.00296225
0.00339707
0.00367697
0.000463966
0.00102829
0.00146983
0.00193882
0.00244568
0.00296467
0.00339398
0.00366698
0.000470243
0.0010418
0.00148595
0.00195604
0.0024641
0.00298257
0.00340871
0.00367698
0.000480647
0.00106463
0.00151601
0.00199231
0.00250718
0.00302876
0.00345421
0.00371915
0.000493646
0.00109481
0.00155859
0.00204738
0.00257609
0.00310654
0.0035337
0.00379641
0.00050715
0.00112846
0.0016089
0.00211588
0.00266465
0.0032069
0.00363504
0.00389447
0.000519499
0.00116171
0.001661
0.00218892
0.00276025
0.00331367
0.00373962
0.00399192
0.000617968
0.00138754
0.00202377
0.00272946
0.00351581
0.00423007
0.00473
0.0049697
0.000623947
0.00139901
0.00203731
0.00274558
0.00353553
0.00424192
0.00473337
0.00496464
0.000631791
0.001416
0.00205887
0.00277202
0.00356821
0.00427407
0.00475761
0.00498061
0.000644249
0.00144532
0.00210017
0.00282634
0.00363593
0.00434266
0.00482067
0.00503513
0.000660465
0.00148753
0.00216351
0.00291272
0.00374491
0.0044583
0.00492676
0.00513134
0.000679169
0.00154039
0.00224708
0.0030297
0.00389112
0.00460861
0.00506013
0.00525143
0.000698684
0.00159857
0.00234128
0.00316235
0.00405517
0.00477251
0.00520094
0.00537245
0.000860316
0.00204632
0.00311126
0.00432349
0.00561123
0.00641965
0.00680867
0.0068619
0.000869333
0.00206582
0.0031418
0.00436779
0.00566037
0.0064592
0.00682878
0.00686618
0.000880955
0.00209473
0.00318915
0.00444245
0.0057325
0.00651475
0.0068704
0.00689187
0.000900018
0.00214758
0.00327641
0.0045778
0.00585972
0.00662616
0.00696283
0.0069665
0.000928295
0.00223196
0.00341487
0.00478477
0.00604624
0.00679124
0.00710718
0.00709017
0.000965677
0.00234862
0.00360556
0.00506262
0.00629356
0.00700583
0.00728856
0.00724254
0.00100831
0.00248376
0.00382595
0.00537911
0.00657116
0.00724291
0.0074842
0.00740007
0.0013318
0.00380317
0.00601825
0.00812275
0.00937701
0.0099609
0.0100056
0.0096357
0.00134638
0.0038548
0.00610654
0.00821491
0.00945337
0.0100246
0.0100436
0.00964737
0.00136832
0.00394212
0.00625557
0.00836394
0.00958188
0.0101215
0.0101108
0.00968403
0.00140644
0.00409755
0.00649285
0.00859118
0.00978272
0.0102891
0.0102425
0.00978179
0.00146474
0.0043338
0.00682534
0.00890083
0.0100534
0.0105157
0.0104278
0.00992987
0.00154234
0.00465669
0.00725625
0.00929344
0.0103954
0.0108028
0.0106582
0.0101104
0.00163634
0.00501724
0.00773692
0.0097294
0.0107741
0.0111171
0.010908
0.0103007
0.00364044
0.00939927
0.0129627
0.0146088
0.0151906
0.0150718
0.0144134
0.0133328
0.00369792
0.00954683
0.0130848
0.0147049
0.0152672
0.0151322
0.014449
0.0133358
0.00379942
0.00983837
0.0133372
0.0149166
0.0154425
0.0152694
0.014541
0.0133753
0.00394976
0.0102664
0.0137083
0.0152271
0.0156993
0.0154746
0.0146955
0.0134808
0.00413677
0.0107888
0.0141684
0.0156184
0.0160241
0.0157364
0.014897
0.0136263
0.00437696
0.0114472
0.0147654
0.0161243
0.0164347
0.0160599
0.0151426
0.0138032
0.00462775
0.0121021
0.015385
0.0166647
0.0168788
0.0164081
0.0154056
0.01399
0.000385579
0.00088206
0.00127765
0.00169712
0.00214314
0.00258511
0.00295182
0.00319552
0.000375728
0.000858334
0.00124089
0.00164541
0.00207505
0.0025043
0.00286289
0.00310224
0.000366211
0.000834724
0.00120432
0.00159426
0.00200795
0.00242435
0.00277445
0.00300893
0.000359234
0.000815574
0.00117387
0.00155134
0.00195144
0.00235667
0.00269923
0.00292927
0.000353399
0.000799137
0.00114835
0.00151643
0.0019068
0.00230443
0.00264217
0.0028697
0.000346415
0.000781747
0.00112416
0.00148667
0.00187207
0.00226742
0.0026054
0.002835
0.000336177
0.000760311
0.00109808
0.00145896
0.00184437
0.00224334
0.00258781
0.0028257
0.00052663
0.0012065
0.00175362
0.00233972
0.00297599
0.00356188
0.00399051
0.00422936
0.000514607
0.00117561
0.00170494
0.0022705
0.00288413
0.00345929
0.00388413
0.00412228
0.00050396
0.00114675
0.00165897
0.00220501
0.00279693
0.0033595
0.00377995
0.00401645
0.000497476
0.00112525
0.00162312
0.0021528
0.00272621
0.00327703
0.00369336
0.0039283
0.000492658
0.00110818
0.00159522
0.00211321
0.00267339
0.00321616
0.00363027
0.00386496
0.000485384
0.00108892
0.00156811
0.00207897
0.0026315
0.00317197
0.00358866
0.00382778
0.000472189
0.00106182
0.00153496
0.00204212
0.00259133
0.00313541
0.00356102
0.00381161
0.000733729
0.00172818
0.00256851
0.00349445
0.0044777
0.00519225
0.00558254
0.00570693
0.000716027
0.00167806
0.00248752
0.00338062
0.00433823
0.00505963
0.0054568
0.00558669
0.000701041
0.00163273
0.00241383
0.0032777
0.0042114
0.00493004
0.00533501
0.00546884
0.000692178
0.00159938
0.0023568
0.00319507
0.00410634
0.00481972
0.00523222
0.00537012
0.000686302
0.0015747
0.00231489
0.00313443
0.00402852
0.00473851
0.00515841
0.00530085
0.00067713
0.0015481
0.00227555
0.00308255
0.00396543
0.00467792
0.00510809
0.00525962
0.000659139
0.00150872
0.00222374
0.00302002
0.00389509
0.0046166
0.00506304
0.00523211
0.00112095
0.00284366
0.00441096
0.00615565
0.00731233
0.00790989
0.00805673