/*--------------------------------*- C++ -*----------------------------------*\
| =========                 |                                                 |
| \\      /  F ield         | OpenFOAM: The Open Source CFD Toolbox           |
|  \\    /   O peration     | Version:  plus.master.MPPICInterFoam            |
|   \\  /    A nd           | Web:      www.OpenFOAM.com                      |
|    \\/     M anipulation  |                                                 |
\*---------------------------------------------------------------------------*/
FoamFile
{
    version     2.0;
    format      ascii;
    class       vectorField;
    location    "13/lagrangian/kinematicCloud";
    object      U;
}
// * * * * * * * * * * * * * * * * * * * * * * * * * * * * * * * * * * * * * //


95309
(
(0.000839192 -0.00301977 -0.000829321)
(-0.000640925 0.000345262 0.000196981)
(-5.42334e-05 4.81111e-05 0.000453625)
(-0.000283934 0.000950994 0.000334626)
(-0.000258002 -7.82015e-05 0.00450628)
(-2.12492e-05 0.000438652 0.000334162)
(-0.000466458 0.000549056 -0.000439064)
(0.00161415 0.00203161 -0.00108968)
(-0.000667344 -0.000485708 -0.00070939)
(-7.70662e-05 6.26812e-05 0.000269977)
(-0.000524073 -0.000125313 0.00231709)
(-0.000695344 -5.33983e-05 0.000273193)
(0.00123171 -3.13694e-05 0.0014372)
(-0.000326569 0.000334983 -0.00508331)
(-0.000299917 -0.00100371 -0.00123203)
(7.90798e-05 -0.000359021 -0.00194176)
(0.000125936 -0.00412353 -0.00170265)
(8.3313e-05 -5.98909e-05 0.00689968)
(-0.00087449 4.25749e-05 0.00207601)
(-0.000354093 -6.31922e-05 0.000233907)
(2.3983e-05 -0.000370306 0.00501281)
(-3.00692e-05 9.82673e-05 0.000237948)
(9.90094e-05 0.000339044 -0.000126956)
(0.00115538 0.000881307 3.977e-05)
(-0.000651965 0.000352445 -0.00225874)
(0.000250474 7.41077e-05 0.000278017)
(-4.6175e-05 -7.00888e-05 0.00265931)
(-1.24589e-05 0.000512102 0.000249064)
(0.000143334 0.000435051 9.97657e-05)
(-0.000591391 9.02349e-05 -0.000817273)
(0.000482864 -0.000223837 0.00021536)
(-0.000626147 0.000196675 0.000273705)
(0.000873322 -0.000660897 -0.000200075)
(0.000502921 -0.000880729 -0.00365802)
(-0.000516488 -0.000333976 -2.35864e-05)
(-0.000443206 -2.11491e-05 4.29562e-05)
(-3.36753e-05 3.82781e-05 -0.00191429)
(-0.00011424 0.000195833 0.000947177)
(0.000841879 -0.000172245 0.00341512)
(-0.000202413 3.47021e-05 -0.00287878)
(-0.000465854 0.000354776 0.000388494)
(0.000165341 0.000956182 -0.00250063)
(-0.000869545 -0.000193266 -0.00451275)
(0.000682772 -0.000464162 0.000278302)
(8.47684e-05 -0.000176774 0.000247898)
(-0.000837709 0.000225802 -0.00251348)
(-0.000144086 1.63002e-05 -5.36692e-05)
(-0.000499418 0.000385307 -0.00112199)
(0.000183278 0.000792717 -0.00189611)
(0.000194755 -0.000782922 -0.00117286)
(-0.000442758 0.000131148 0.000216189)
(0.000218405 -0.000817402 -0.000208083)
(-0.00103597 0.000245426 0.000242752)
(-0.000231703 -0.000197609 0.000271494)
(-0.000602774 0.000226674 0.0002479)
(-0.000721742 -0.000526867 0.000253557)
(-0.00076825 -0.000150022 0.000514639)
(-0.000424782 -0.000294398 -0.00319006)
(0.000147652 -0.000438851 0.000283212)
(-0.000471903 -0.000323358 0.000131437)
(-0.000824814 0.000154366 -0.00179974)
(-0.000633609 0.000200095 0.00029496)
(-0.000798205 -9.14987e-05 0.000358481)
(2.75926e-05 -0.000169638 0.000160749)
(-0.000453461 0.000369079 -0.00223331)
(0.000127973 0.000530119 -0.000830208)
(-4.95487e-05 0.000549145 -0.000767509)
(0.000424573 -0.00467031 -0.000705417)
(-0.00055666 1.08437e-05 0.000284376)
(-0.000641747 0.000130172 0.00151676)
(-0.00092071 0.000192395 0.00010472)
(-0.00116563 -0.000252179 -0.00189662)
(-0.000696124 -0.000383293 0.00031776)
(-0.000703987 -0.000512375 0.00024129)
(-0.000759855 -0.000305562 0.000357152)
(-0.000393731 0.000185575 0.000116468)
(-5.06974e-05 1.45058e-05 0.00425481)
(0.000827957 0.000207694 0.00184766)
(-0.000528266 -0.000348914 -0.000800355)
(-0.000724416 -0.00037459 0.00020218)
(-0.000429151 -0.000285407 0.00019266)
(0.000265152 0.000786452 -0.000777208)
(0.00113013 -0.000765674 0.000210926)
(-0.000932032 -0.000137946 7.35981e-05)
(0.000326386 -0.000184179 -0.00163146)
(-0.000335455 -0.000342454 -0.00373812)
(-0.000865965 -6.12761e-06 0.000318457)
(-7.0065e-05 9.24842e-05 0.00029902)
(0.00311977 0.000275703 -0.000931858)
(-9.52433e-05 -0.000263777 0.00552559)
(-0.000336681 -4.09768e-05 -0.00208658)
(0.00056305 -0.00420096 0.000271578)
(-0.000680421 0.000492121 0.000291862)
(-6.82534e-05 0.0011013 0.000228113)
(-0.000229203 6.61509e-05 0.000629069)
(0.000275048 -0.000177763 0.00457723)
(-0.000952076 -3.22594e-05 0.000845541)
(-0.000126441 1.09443e-05 -0.00020357)
(0.000962174 -0.00088254 0.000421316)
(-0.000386383 -0.000442509 -0.0021623)
(9.33099e-05 -1.67764e-05 0.000219182)
(-0.000565624 -0.000104876 -0.00118059)
(-0.000310031 -0.000984231 0.000400337)
(-0.000305216 0.000137073 0.00602294)
(-0.000461734 -4.51591e-05 -0.0027979)
(0.00106063 -0.000702957 0.000365039)
(-7.86531e-05 7.91451e-05 -0.000229549)
(9.71678e-05 -0.000184233 0.00181958)
(-0.000224158 -8.96484e-05 -0.00167711)
(8.65332e-05 1.04973e-05 0.0019321)
(0.000109491 -0.000482183 -0.00115612)
(-0.000557808 5.60959e-05 0.000239971)
(-1.73143e-05 0.000427578 -1.93698e-06)
(-0.000887402 -0.000133043 0.000295415)
(-0.000528423 2.12762e-05 0.000418565)
(-0.000664283 0.000927474 0.000317511)
(-0.000542355 0.000246515 -0.00234818)
(3.38716e-05 0.000407472 0.000259492)
(-0.000477662 0.000204898 -0.0011016)
(-0.000434581 0.00060586 -0.000981044)
(-0.000489588 2.35099e-05 0.00031233)
(-0.000297454 0.0010651 -0.00111935)
(-0.000535733 0.000253509 0.000393093)
(-7.89765e-06 0.000466853 -0.000900586)
(-0.00213908 0.000103895 -1.05986e-06)
(0.000240893 -0.000428832 0.005589)
(-0.000461305 6.89352e-05 0.00212562)
(-0.000265509 -5.74027e-05 -0.00541986)
(-0.000423707 -0.000271588 -0.000289271)
(-0.000456554 3.86927e-05 0.00020452)
(-0.000682204 0.000352471 0.000264545)
(-0.000609123 2.11094e-05 0.000299999)
(-0.000776053 -0.000434327 -0.00175037)
(-0.000581185 -0.000329852 0.000333317)
(-0.00113161 0.000107548 0.00263801)
(-1.10653e-05 0.000462116 0.000344194)
(-0.000682589 -0.0004674 -0.000869268)
(-0.00037708 -0.000556803 -0.000388983)
(-8.8318e-05 9.66441e-05 0.000256025)
(0.000100469 -0.000303435 -0.00096024)
(-4.74182e-05 -0.000158349 0.00681519)
(-0.000709279 2.99381e-05 -0.00531892)
(0.00102119 0.000785024 0.000308871)
(-0.000437821 -0.000314295 -0.0011578)
(-0.00105042 0.000245493 0.000246105)
(0.000613127 0.000260866 0.000288917)
(0.00128142 -0.000353877 -0.00292959)
(-0.00061911 0.000181066 0.000253098)
(0.000130077 0.000434797 0.000440251)
(-0.000797454 0.000372012 -0.00688936)
(-0.000314363 0.000156869 -0.000875966)
(-0.000900474 -0.00014452 -0.00154593)
(-0.000735599 2.95385e-05 -0.00250706)
(-0.000768972 -0.000427369 -0.000150873)
(-0.000302289 4.55135e-05 -0.00359696)
(-6.83723e-05 -7.70859e-05 0.00376703)
(-0.000670031 0.000611885 -0.00110385)
(0.000230734 0.000490466 0.00014957)
(-0.000656192 7.10364e-05 -0.000972603)
(-0.000591165 0.000204801 -0.000875131)
(-3.87191e-05 0.000276303 0.000261438)
(-0.000680328 0.000612486 0.000266837)
(0.000111441 -0.000169299 0.000374707)
(-0.000314317 0.00158518 0.000137658)
(-0.000160878 -0.00472941 -0.00120996)
(9.91585e-05 1.35077e-05 0.000341256)
(-0.00115854 -0.00284935 0.000137288)
(-2.04451e-05 0.000382066 -0.00310292)
(-0.00205651 0.00114892 0.000353091)
(-0.000302888 4.89313e-05 -0.00411055)
(-0.00112295 -0.00278697 7.99815e-05)
(0.000360526 -0.000143042 0.000257696)
(0.0013009 0.000941615 0.000255362)
(-0.00554041 -0.000294111 -0.00175824)
(0.000459694 -0.000724971 -0.000455957)
(0.000263591 0.00132193 0.0060101)
(-0.000309809 0.00064477 -0.00319524)
(-0.000546876 1.00897e-05 0.000291886)
(0.000698254 -0.000326644 0.000118796)
(-0.000193213 4.74267e-05 -0.00438417)
(0.00323801 -0.000663509 -0.000623792)
(0.00051791 -0.000426906 0.00167247)
(0.000884663 -0.000623435 -0.000196974)
(0.000204816 0.000431999 0.00251464)
(-4.94756e-05 -0.000163705 0.00025493)
(-0.000633142 0.000333571 -0.00438349)
(-0.000950681 -0.000160513 0.000232917)
(-0.000266485 -0.000103984 0.000221488)
(-3.20191e-05 5.43258e-05 0.000320007)
(-0.000697336 0.000376727 0.000276501)
(-0.000734804 0.000414158 -0.00430679)
(-0.000283267 -5.45119e-05 -2.18892e-05)
(-0.000159773 -0.000163123 -6.01585e-06)
(-0.000353608 4.34521e-05 0.00325303)
(0.000307456 0.00014605 0.000342575)
(-0.000800116 9.63785e-05 0.000268687)
(-0.000103489 -0.000588264 -0.00244621)
(-0.000695936 0.00011384 5.62117e-05)
(-0.000529772 -0.000141672 -0.00159794)
(-0.000521654 -0.000355765 0.000210339)
(-0.000794903 -0.000118345 -0.00123061)
(-6.13831e-05 -7.44868e-05 0.000201718)
(-0.000597054 -0.000220298 -0.00140977)
(-0.000107512 -0.000136242 -0.00673027)
(0.000120195 0.000673428 0.000255241)
(-0.00113462 -0.001724 -0.0028216)
(-0.000272967 0.000112279 0.00109037)
(-8.78316e-05 8.84313e-05 -0.00319581)
(-2.35262e-05 0.000424864 0.000411771)
(0.000280979 0.000205667 0.000213773)
(-0.000177641 4.33546e-05 -0.000307818)
(-0.00102861 -0.000136017 -0.000289553)
(-0.000574122 0.000100128 -0.000960987)
(0.000119609 0.000405326 5.97807e-06)
(-8.77054e-05 2.0785e-05 0.00148502)
(0.000756074 -0.000675444 -0.00130312)
(0.00029815 0.000135335 -0.000887282)
(0.000228268 0.000420639 0.00192356)
(-0.000428369 0.00020133 0.000191009)
(2.61423e-05 2.73805e-07 -0.000999129)
(5.82855e-05 -0.000253189 -0.0027011)
(0.000359617 0.000542119 -0.00331804)
(-0.000596246 -4.69297e-05 0.000258783)
(-0.000706662 0.000368535 0.000245943)
(0.000813135 -0.000615992 0.00222881)
(-0.000728846 9.44326e-05 -0.00246067)
(-0.000159275 0.000286872 0.0015531)
(0.000375914 0.000371103 -0.00337396)
(-0.00110881 -0.00376698 -0.00229714)
(-8.67694e-05 -0.000244254 -0.00188594)
(-0.000661774 0.00022588 0.000247299)
(-0.00072202 8.39774e-05 -0.00252714)
(-6.94868e-05 -0.00015185 -0.000756422)
(-0.00106722 -0.00257495 7.71287e-05)
(0.00339574 0.000373348 -0.000951308)
(0.00333059 3.5041e-05 -0.000547261)
(-0.000299929 2.04135e-05 -0.000582307)
(0.000339197 -0.000277423 -0.00118636)
(-0.0012351 0.000309403 -0.00281212)
(-0.000879965 0.000122263 5.5422e-05)
(-0.000458352 -0.000457399 -0.00116963)
(-0.000602917 -0.000245149 0.000402527)
(0.0001384 0.000632004 7.39555e-05)
(-4.42731e-05 -0.00032709 0.0012529)
(-1.09586e-05 0.000453666 -0.00151047)
(0.00011059 -0.000342533 -0.000796308)
(-0.00051828 0.000288095 0.0016968)
(9.73107e-05 -0.000309597 0.00026756)
(-9.60448e-06 0.000694381 0.000182019)
(-0.000826216 8.10687e-05 -0.00088699)
(0.00388137 -0.000142928 -0.000735378)
(-0.000106002 -4.9411e-05 -0.00305891)
(-0.000335716 0.000142896 6.7305e-05)
(0.000162028 -0.00057032 0.00325422)
(-9.16384e-05 0.000107785 0.00228049)
(0.000832816 -0.000624133 0.000278442)
(9.8627e-05 -0.000551996 9.24173e-05)
(-0.000255705 0.000150162 0.000224166)
(-0.000846496 0.000240155 -0.00101134)
(0.000505546 -0.000529038 -0.000909343)
(0.000271108 0.00011279 -0.00108438)
(0.000911735 -0.000256525 -0.000884016)
(8.85169e-05 0.000346523 -0.00365567)
(-0.000316871 -0.00103115 0.000241741)
(-0.000467903 -3.37784e-05 -0.00242268)
(-9.18538e-05 8.26792e-05 0.000722451)
(0.000932293 -0.00168238 -6.93485e-05)
(-0.000546058 0.00030612 0.0040117)
(0.000247088 0.000146054 0.00864564)
(0.000112649 -0.000360286 0.00270883)
(-0.000159645 0.000490796 5.01459e-05)
(-0.000485365 4.06564e-05 0.000234389)
(0.00399665 -0.000991479 -0.0011394)
(0.00315997 0.00110758 -0.00375194)
(-0.00084643 -0.00058694 -0.00251856)
(-0.000511666 0.000662471 0.000203218)
(-7.5536e-05 0.000296181 3.39244e-05)
(-0.00116482 0.000142298 -0.000877972)
(0.000541261 -0.000369845 -0.00140606)
(-0.000261219 0.000638547 -0.00361385)
(-0.000695651 -0.000518324 -0.000974334)
(-0.000630967 0.000240054 0.000269951)
(-0.000743012 -0.000552666 0.000284117)
(0.00011006 -0.000215736 -0.00214013)
(-9.93328e-05 -0.000401975 0.00522373)
(0.000913235 -0.000614922 0.000280836)
(-0.000581663 -0.00623662 -0.00250296)
(-0.000214257 -0.000377145 -0.000847898)
(-0.000611314 -1.51499e-05 0.000256067)
(-0.00104108 -0.000178093 -0.000883095)
(-0.000893935 -9.51904e-05 0.000217995)
(0.000310537 0.000179245 1.37889e-05)
(-0.000476379 -0.000310478 0.000357697)
(-7.09147e-05 6.69323e-05 0.000268546)
(0.000244574 0.000167482 0.000211942)
(-0.000506897 0.000211673 0.000238339)
(-0.000330977 -0.000136663 -0.00238791)
(-0.000969111 -1.984e-05 0.00143635)
(-0.00042861 0.000512297 0.000227018)
(2.74346e-05 0.000365054 0.0003942)
(-0.000545327 -1.84217e-05 -0.00236925)
(0.000263892 0.000397944 0.000285812)
(-0.000364814 -0.000216516 0.000304735)
(0.0013713 -0.00143582 -0.000655202)
(0.000811483 -0.00055415 0.000441326)
(7.2932e-05 0.000376559 0.000256057)
(7.97696e-05 0.000604023 -0.0019146)
(-0.000804465 -0.000104881 -0.0014127)
(-0.000797037 0.000357848 0.00148468)
(6.82502e-05 0.000434499 0.000210847)
(8.63495e-05 0.000912843 0.000210158)
(-0.000153678 0.000225417 -0.00120056)
(0.000308395 -1.15898e-06 0.000299744)
(-0.000645001 -0.0004773 0.000223181)
(0.000216344 0.000893638 0.000241073)
(-0.000915641 0.000117912 -0.00146694)
(-0.000682802 -0.00049665 0.000214433)
(0.000512948 -0.000693812 0.000283183)
(0.000690055 0.000372291 -0.00141604)
(-0.000699429 0.000984923 0.000255065)
(0.00105239 -0.000723987 0.000261868)
(-0.000932907 3.59841e-05 -0.0003118)
(-0.000100889 -0.000317405 -0.00490751)
(0.000416442 0.00073186 -0.00195821)
(0.00146562 0.00141537 -0.00473039)
(0.00323307 0.00115098 0.000108445)
(-0.000535694 -0.000353277 0.000214817)
(-9.27596e-05 1.55159e-05 0.00170516)
(8.29049e-05 0.00046372 -0.00147276)
(-0.000164089 -5.67764e-05 -0.00207127)
(0.00027647 -0.000255567 0.000295103)
(-0.000190618 1.62707e-05 0.00424327)
(-0.000177974 8.96155e-05 -3.07921e-05)
(0.000138814 -4.44593e-05 0.000392457)
(0.000451865 0.000198658 0.000275904)
(0.000147931 0.00347766 -0.000614204)
(0.00147819 -0.00320638 -0.00083066)
(0.000189309 -0.000473306 -0.0016312)
(-0.000671943 -0.000696288 0.000312783)
(-0.00074408 -0.0005511 0.000298738)
(-5.14119e-05 -0.000582702 0.000399283)
(-0.000763622 4.49385e-05 0.000331976)
(-0.000482898 0.00051985 0.000169944)
(0.000754523 -0.00113843 0.000279863)
(0.000138499 0.000915885 -0.00180579)
(0.0139681 0.00088775 0.00483429)
(0.000748353 -0.000522767 -0.000250009)
(0.000365635 0.000125057 -0.00157684)
(0.000389329 0.000668668 -0.000388408)
(-0.00111285 -0.00021153 -0.000728225)
(-0.000443765 0.000166278 0.000366743)
(-0.000430026 -8.98265e-05 -0.00180676)
(5.76917e-05 0.000590188 0.000253391)
(-4.60874e-05 -8.12779e-05 -0.00146275)
(-0.000394272 -0.00126207 -0.0016505)
(0.000119056 -0.00032805 0.000407253)
(7.97039e-05 0.000567379 0.000255785)
(-0.000173698 0.000300094 -0.00102832)
(-0.000873234 4.63267e-05 0.000197846)
(-0.000405458 8.152e-05 -0.0023459)
(-0.000139607 -6.97053e-05 0.000149741)
(-0.000486724 0.000133515 7.72209e-05)
(0.00036121 -0.000720843 0.000330644)
(-0.000439818 4.26383e-05 0.00285335)
(-0.000205694 0.000418614 0.000332412)
(-0.000124462 -0.000307469 -0.00371208)
(0.000291146 -0.000147187 0.000263586)
(3.24829e-05 0.000456264 0.000449081)
(-0.000121405 4.05839e-06 0.00041273)
(3.85968e-05 -0.000252977 0.000247649)
(-0.00163219 -0.000439427 -0.00140526)
(0.000194733 4.25929e-05 0.000207185)
(-0.000562478 9.42695e-05 0.000337212)
(-0.000300769 9.27774e-05 0.000249159)
(2.59759e-05 0.000632696 0.000257363)
(-0.000684627 -0.000495748 0.00189995)
(0.000746091 -0.000275411 -0.00104873)
(-0.00112094 -0.000170589 -0.00114158)
(-0.000579207 -3.77132e-05 0.000139635)
(-0.000549811 0.000460881 0.00028082)
(-0.000559403 0.0006566 -0.00155609)
(-0.000142592 -0.000162819 -0.00386704)
(0.000368345 -0.000213305 0.000329739)
(-0.00136378 0.000947271 -0.00042045)
(0.000203136 0.000833322 0.000218224)
(1.43468e-05 0.000492525 0.000238336)
(-0.000938315 -0.000147303 -0.000389271)
(-0.000115123 -0.000481285 -0.00113777)
(-0.000394474 0.000378811 0.000260084)
(9.96792e-05 0.000759191 0.000270467)
(-0.000153093 0.000292274 -0.00146466)
(-0.000864027 -4.32589e-05 0.00235116)
(-0.000533349 -0.000432007 6.37818e-05)
(0.000123612 -0.000392401 -0.00250217)
(0.0031077 6.09729e-05 -0.00178352)
(9.09676e-05 0.000409791 0.00187924)
(0.000643632 -0.000515632 0.000235708)
(-0.000417063 4.88532e-05 0.000115335)
(0.000161404 0.000449969 -0.000795263)
(5.24874e-05 0.000424614 0.000100588)
(-0.00031891 5.4701e-05 -0.00220856)
(-0.000505874 0.000237543 -0.00371374)
(0.000100185 -2.09571e-05 0.000382466)
(-0.000206246 0.00375566 -0.000848108)
(-0.000144463 -0.000104523 0.00477777)
(0.000796131 0.000370275 -0.00318783)
(-0.000538936 0.000265715 0.0015347)
(-9.32559e-06 0.000125237 -0.00318745)
(-0.000507604 -0.000193034 -0.000226588)
(-5.12303e-05 -0.000177972 -0.00267046)
(0.000436913 -0.000644204 0.00214458)
(0.000243611 0.000100594 -0.00394018)
(-0.000138088 4.49816e-06 0.000308075)
(0.000533398 -0.000315919 0.000266511)
(0.000498382 0.00119671 0.00191428)
(-6.65317e-05 -0.000140674 0.000239572)
(0.00120371 0.000943967 -0.000988929)
(0.000254919 0.000169373 0.000378685)
(-0.000670163 0.00034734 -0.00186274)
(1.27568e-06 0.000108098 0.00135044)
(-4.5206e-05 -0.000551775 0.00028733)
(-0.00053308 0.000123444 -0.00584099)
(0.000205078 0.000796434 -0.00080587)
(-0.000112898 -0.0003047 -0.000646228)
(-8.64177e-05 0.000484889 -0.000759417)
(-0.000618538 -9.0291e-05 0.000891283)
(0.00331048 -0.00160808 -0.000354065)
(-0.00110533 -0.000106679 -0.000366659)
(0.000661001 0.000300416 0.000200732)
(1.25805e-05 0.000389736 0.000218238)
(-0.000121699 1.03674e-05 0.000197618)
(-0.000704008 -0.000563934 -0.000855733)
(-0.000235211 0.000129437 0.000279744)
(8.59007e-05 -0.00023599 0.000328623)
(0.000341899 0.000247032 -0.000804373)
(-4.27773e-05 -6.44248e-05 0.000260267)
(-0.000563401 -0.000414247 -0.000865542)
(0.00101112 -0.000673947 0.000388744)
(-0.000153992 1.80929e-05 -0.00045326)
(0.000522547 8.3964e-05 -0.00396749)
(-2.07456e-05 0.000254964 -0.000808465)
(0.000392561 -0.000682061 -0.00178392)
(-0.000742474 0.00105519 0.00028834)
(-0.000516515 0.000261734 0.000243075)
(0.000288566 0.000546945 -0.00537999)
(-0.000229374 0.000130539 -0.00289352)
(0.00061734 -0.000410381 -0.00584632)
(-0.000126349 -0.000165576 0.00195852)
(0.00111086 -0.000436705 0.000214032)
(-0.00105332 0.000313769 0.00222987)
(-0.0011483 -0.00290111 -8.3463e-05)
(-0.000741335 -9.3936e-05 0.000270582)
(0.00016691 -0.000406936 0.00180145)
(-0.000682671 6.36115e-05 -0.000930031)
(-0.000214069 0.000118213 -0.00125273)
(5.3973e-05 0.000408739 -0.000162177)
(-0.000546196 -0.000390185 -0.000828758)
(-0.000682036 -1.57901e-05 0.0015553)
(0.00119334 0.000336781 -0.000514871)
(-0.000680312 -0.000378204 0.000273225)
(-0.000736851 -0.000424739 0.00114685)
(-0.000580065 -8.96949e-05 9.84319e-05)
(0.00211568 -1.72384e-05 0.000323239)
(-0.000312947 0.000614818 -4.38877e-05)
(-0.000440466 0.000144788 -0.00235771)
(-0.000587399 0.000110779 0.000257021)
(0.000109747 0.000541113 0.000316216)
(-0.000518012 6.68384e-05 -4.49128e-05)
(-0.00040813 -0.000764425 -0.00593172)
(0.000153144 0.000508547 0.00019563)
(2.35845e-06 0.000627984 0.000251418)
(-0.000119544 0.000279428 0.00047624)
(0.000254976 -0.00010939 -0.00182347)
(0.00112014 0.000885036 0.00271661)
(8.38952e-05 1.36589e-06 0.00022701)
(1.8834e-06 -7.22606e-06 -0.00226969)
(-0.000751442 -0.000532573 -0.00156582)
(-0.000240235 0.000308622 -0.000437725)
(-0.000109171 1.73674e-05 -0.00585517)
(6.96001e-05 -8.53098e-05 0.000255611)
(-0.000363334 -0.000273888 -0.00431564)
(9.62743e-05 -0.000478889 -0.000246326)
(0.000688502 -0.000531373 0.000227475)
(-0.000370856 -0.00030909 -0.00259489)
(-0.000885318 0.000126123 0.00023428)
(-0.000267565 5.62571e-05 0.000164355)
(-0.000270916 0.000179953 -0.00184785)
(-0.000533191 4.68378e-05 -0.000666384)
(-0.000628719 0.000248764 -0.000820764)
(0.000290019 -0.000587122 -0.00548343)
(-0.000602734 -0.000494483 -0.000732381)
(-7.68331e-05 -8.21018e-06 0.00202552)
(0.000356931 0.000402408 0.000271452)
(-5.65506e-05 -0.000150508 0.000339492)
(-0.000693182 -8.70749e-05 6.56877e-06)
(-7.61712e-05 0.000331522 -0.00079555)
(1.29381e-05 0.00048361 -0.00290916)
(0.000239207 -0.000473045 -0.00131681)
(-0.000944299 0.000507817 0.00524478)
(-0.00027497 0.00125691 2.0242e-05)
(-0.000556611 -2.84479e-06 -0.00149902)
(-0.000389892 0.000951812 0.000351322)
(-0.00032385 -0.00106728 0.000410495)
(2.83031e-05 0.000313719 0.00199106)
(-4.41853e-05 -0.00053829 0.000192729)
(-7.37086e-05 -0.000222826 0.00123576)
(-0.00090766 0.000493706 -0.00247228)
(-0.000307719 -1.03805e-05 -0.0049811)
(-0.00055452 0.000274966 0.00106951)
(-0.000457197 -0.000302723 9.79032e-05)
(0.00028847 0.000219434 0.000205366)
(0.000349561 8.00546e-05 -0.00409063)
(0.000474959 -0.000666681 -0.00342802)
(0.00015503 -2.76053e-05 -0.000293967)
(0.00117236 0.000900888 -0.000112265)
(-0.000136334 -3.55725e-06 0.000227296)
(-0.000379451 0.000262937 -0.00320583)
(-1.42568e-05 0.000611647 0.00151295)
(0.00417992 -9.13815e-05 0.000275744)
(-0.000391339 9.4988e-05 -0.00234748)
(0.000249888 0.000245964 -0.000243499)
(0.00022062 0.000893741 0.00271938)
(-0.000568028 1.3611e-05 -0.000865703)
(-0.000877651 -3.39003e-05 -0.00537007)
(-0.000454494 -0.00131349 0.00147112)
(-0.000565935 0.000169059 0.000217852)
(-0.00086596 -0.000105761 0.000283255)
(9.11189e-05 -0.000370668 0.000452926)
(-0.000443537 -0.00149377 -0.00207037)
(-0.000528773 -0.00032517 -0.000838176)
(-0.000262715 4.68268e-05 0.00205309)
(0.000133182 0.000627484 0.000160557)
(-4.92718e-05 0.000361463 -0.00144583)
(-9.62418e-05 -0.000254509 0.000399937)
(-0.000963117 0.00050404 -0.000241122)
(0.000950431 0.00073969 -0.00135789)
(-0.000105974 -0.000206155 -0.00425557)
(0.000186284 -9.44623e-05 0.00022892)
(0.000406144 0.000266615 -0.0022068)
(-0.000654954 -0.000845803 -0.00290882)
(0.000974856 0.00102106 0.000249488)
(-0.000659249 0.000200564 0.000212471)
(0.000110941 0.000601629 0.000360055)
(-0.000337579 7.10169e-05 0.000362121)
(-0.000720703 -0.000697681 0.000313451)
(-0.00126072 -0.000274822 -0.00387726)
(-0.000613865 0.000877504 0.000219426)
(-2.65397e-05 -0.00015029 -0.00278894)
(-8.64729e-05 -0.000266171 0.000384608)
(-0.000428243 0.000707138 0.000303555)
(-1.45753e-05 0.000575293 -0.000434304)
(-0.000390947 0.000505134 -0.00311934)
(0.000948881 0.000738705 0.000439133)
(5.87643e-05 -0.000204278 0.000289359)
(0.000250278 -0.000128102 0.00312235)
(-0.00175943 0.00291185 -0.0021247)
(-0.000836144 -6.08045e-05 -0.00143941)
(-6.40844e-05 7.84442e-05 0.000268946)
(0.00116782 0.000243358 -0.00166005)
(-3.629e-05 0.000362224 -0.0017653)
(0.000285551 0.000454035 -0.00227312)
(0.000106993 0.000500491 0.000246192)
(4.7381e-05 0.000497456 -0.00284651)
(-0.000476111 -0.00164469 -0.00280509)
(-0.000131062 0.000137474 0.000321515)
(-0.000403733 0.000435416 0.00029626)
(-0.000114787 -0.000197192 -0.000967936)
(3.53122e-05 0.000386519 0.000271095)
(5.67635e-05 -0.000304187 -0.00420318)
(-0.000320105 -0.000274002 0.000266858)
(-0.000698211 -0.000384901 0.000301035)
(0.000603099 -0.00038882 0.000244784)
(0.00101263 0.000749775 -0.001544)
(0.000890844 -0.000603359 -0.0015903)
(-8.4125e-05 -0.000385346 0.000259578)
(0.00011711 0.000538697 0.000277822)
(-0.000624209 -0.000466829 -0.00148575)
(-6.23272e-05 6.4574e-05 -0.000719293)
(0.00175519 0.000593981 -0.000935906)
(-4.5497e-05 0.000359876 0.000321907)
(0.00144108 -0.000958207 -0.00258588)
(-0.000431973 8.4977e-05 0.00479344)
(0.000169965 0.000782221 0.00026021)
(-0.000857784 -0.00234488 -0.000769285)
(0.000664086 -0.000418169 0.000272322)
(-2.61977e-05 0.000473842 0.00340072)
(-0.000900349 2.05274e-05 -0.00248769)
(-8.03115e-05 -0.000183909 0.000300534)
(0.000341684 -0.000723462 -0.0051941)
(-0.000126533 -0.00024782 -0.00587717)
(0.000590862 -0.000329028 0.00064433)
(-0.00097275 -0.000134686 -0.00332205)
(-0.00052679 0.000670199 0.000244671)
(-0.000379372 -0.000102643 0.00025494)
(-0.000379267 0.000153015 -0.00176067)
(9.46379e-06 -0.00040632 -0.000740269)
(-1.1798e-05 0.00052521 0.000402527)
(0.000720738 -0.000118829 -0.00371571)
(0.000108125 -0.000381597 0.000997934)
(-0.000477328 -0.000447556 0.000286149)
(0.000444182 0.000128555 0.000256926)
(0.00229092 0.0002192 -0.0026646)
(0.000576199 -0.000719026 0.00233299)
(-0.000435131 -0.000121426 -6.75779e-05)
(0.00134991 4.47852e-05 -0.0014549)
(-0.000498247 0.000582966 -0.00233894)
(0.000642107 0.000374447 -0.000573707)
(3.948e-05 -0.000271184 0.000295903)
(-0.000689188 0.000163708 -0.00426353)
(-9.4792e-07 0.000454006 0.0015826)
(-7.70131e-05 7.41611e-05 -0.001482)
(0.000264031 0.000375591 0.000212509)
(-9.60568e-05 1.9158e-05 -0.00281429)
(-0.000669608 0.000951437 0.000360027)
(-0.000297619 0.000318071 -0.000975174)
(-0.00014758 2.42366e-05 -0.00024606)
(-3.34233e-05 -9.77445e-05 0.000202558)
(0.000150545 -0.000492552 -0.00133365)
(0.00133206 5.2585e-05 -0.000665035)
(-0.000561443 -0.000147147 0.000363309)
(-7.77867e-05 0.000397494 -0.000869711)
(-0.000173827 6.90162e-05 -0.00316683)
(-5.05727e-05 7.23091e-05 -0.000522065)
(0.000148203 0.000659418 -0.00108254)
(-0.000405165 -0.000262043 -8.64992e-05)
(-0.00259169 -0.000551281 -0.00145513)
(-0.000536216 0.000280479 -0.00190518)
(-0.000577316 0.000170784 0.000442819)
(-0.000126282 9.43767e-06 0.000214256)
(0.000438295 0.000339848 -0.000299726)
(-0.000390845 -4.50472e-05 -0.000299472)
(0.000259382 -8.9199e-05 9.57265e-05)
(-0.000321858 0.0008214 -0.00283387)
(0.000230219 0.000103844 0.000292361)
(0.000870202 -0.00105546 0.000241822)
(0.000263746 0.000480841 -0.00239839)
(-0.000589523 6.92342e-06 -0.000135432)
(-0.000561496 0.000192699 0.000411583)
(-0.000133853 2.302e-05 0.00144941)
(5.82303e-05 -0.000578172 0.00073031)
(-0.000570325 2.57128e-05 -0.00265215)
(-0.000449402 7.76138e-05 -0.00121867)
(8.68587e-05 -0.000325176 -0.00467826)
(-0.0005059 -0.000277569 0.000462044)
(-0.000418306 0.000486625 0.000280343)
(0.000135472 -0.000246145 -0.00387261)
(-0.000105141 0.000270156 0.0002842)
(0.000299267 -0.000174292 0.00030148)
(-2.21033e-05 0.000265843 0.000418838)
(-0.000807387 -0.000241182 -0.0058296)
(0.00031132 -0.000465314 -0.00458658)
(-0.000262074 -7.3396e-05 0.000281322)
(6.64685e-05 -0.000212356 0.000417654)
(-0.000619341 1.64129e-05 -0.000692259)
(0.00018584 -2.13775e-05 -0.000302126)
(-9.52098e-06 -4.87054e-05 -0.00251108)
(-0.000857616 -0.000128969 -0.000781436)
(-0.000498254 -4.56561e-05 0.000235973)
(-0.000699662 -5.07156e-05 0.000158581)
(-0.000622595 5.37873e-06 0.00124143)
(4.66161e-05 -0.000162179 0.000153201)
(0.000256796 0.000120097 -0.00216734)
(-0.000347524 0.00066363 -0.0024564)
(0.000859162 -0.000591368 -3.56899e-05)
(-0.000434212 0.000187928 -0.0008946)
(0.00120878 -0.000816866 0.000262137)
(-0.000494306 1.08053e-05 0.00179803)
(4.08341e-05 -4.07879e-05 0.00462657)
(-0.000278807 0.000814591 -0.0007436)
(-0.000790949 0.000186655 -0.00227656)
(0.00249524 0.000862763 0.000526985)
(-0.000402257 -0.000766064 -0.00585339)
(-7.22342e-05 7.68953e-05 -0.000725857)
(-0.000566069 0.000101781 -0.00478687)
(-0.000658859 -0.000156676 -0.00298119)
(-1.3322e-05 0.000563485 0.000282869)
(-0.000684479 -2.8018e-05 0.00443428)
(0.00279414 -0.000161447 0.000300661)
(-0.000771776 0.000189819 0.00017791)
(-8.58575e-05 1.6495e-05 -0.00069908)
(-0.000443396 -0.000314553 -2.08558e-05)
(-0.000707712 0.000364925 0.000284286)
(-0.000191449 0.000199397 -0.00326782)
(7.60426e-05 0.000366155 -0.000876942)
(0.000227749 0.000897419 0.000683921)
(-0.000678258 1.87954e-05 -0.0018331)
(-0.000672737 -8.94444e-05 -0.000180354)
(-0.00011004 -6.37912e-05 0.000934221)
(-0.000370946 0.000112877 -0.00290445)
(-0.000588714 0.00036316 -0.00529045)
(-0.000571261 2.26405e-05 0.000409389)
(0.00010235 0.000613079 0.000251785)
(9.64028e-05 -2.2389e-05 0.000247342)
(-0.000466964 8.83602e-05 -0.000599766)
(0.00139994 0.000276386 -0.00371711)
(-0.000196541 -9.83943e-05 0.000394172)
(-0.000571897 0.000158894 0.000310085)
(-0.00117859 -0.00286499 -0.00093505)
(3.28761e-05 -1.22157e-05 -0.00297812)
(-0.000484211 -2.15791e-05 -0.00150665)
(-0.000789234 -3.59696e-05 0.00016992)
(-0.000211312 -0.000126291 -0.00195894)
(-0.000370416 -0.000137187 -0.00490671)
(-0.000137949 0.0003896 0.000296727)
(-1.33158e-05 0.000526526 0.000238286)
(-1.01959e-05 5.47248e-05 -0.00230862)
(-0.000235403 -4.9763e-05 0.00248785)
(-0.000330814 0.000334565 0.000608161)
(-0.00101587 0.000413038 0.000281811)
(-0.000230102 -0.000460114 0.000407185)
(0.000275844 0.000504514 -0.000729788)
(6.83542e-05 3.56972e-05 -0.00650607)
(-0.00083895 0.00145551 -0.00151216)
(-0.000610498 0.000182482 0.000280378)
(3.51957e-05 -6.13583e-06 -0.00523079)
(-0.000163593 -0.000476718 -0.00311669)
(0.000364772 0.000601925 -0.000908028)
(0.000119726 0.000581802 -5.40324e-05)
(-7.66385e-05 0.000702246 -0.00136451)
(-8.24217e-05 9.82363e-05 0.000230307)
(-0.000867989 -0.00014371 -0.00293711)
(2.60233e-05 -0.000335833 0.002386)
(9.25321e-05 -0.000301269 0.000235394)
(-0.000652404 0.00153329 0.0022101)
(-0.000676937 0.000574222 -0.000855251)
(0.000253984 0.00111457 0.000241371)
(-0.00057332 -5.98991e-05 -0.00316837)
(-0.000477664 7.7851e-05 0.000547359)
(-0.000196558 6.50749e-05 -0.000733166)
(-0.000782217 -0.000116424 -0.000860159)
(-0.000308054 0.000844631 -0.00459282)
(-8.85936e-05 8.5316e-05 0.000290263)
(-0.00121592 -0.00303071 -0.000871023)
(0.000543078 -0.000648604 0.000666476)
(2.82855e-05 0.000620177 0.000202956)
(-0.000491521 -0.00021176 0.000191992)
(-0.000209246 -0.000501581 -0.000857786)
(-0.000687106 0.00097539 0.000298022)
(0.000700825 -0.000582202 0.000276279)
(-0.000415696 -0.000152103 0.00030091)
(0.000886252 0.000679325 -0.00149212)
(-0.000263181 4.3537e-05 -0.00182885)
(-0.00108781 0.000376691 0.000228529)
(4.55087e-05 0.000575438 0.000411994)
(-0.000622009 -0.000575813 -0.000787968)
(0.000867479 -0.000250169 -0.00148202)
(9.30279e-05 -0.000339572 -0.000124212)
(-0.000723236 -0.000537173 0.000279048)
(0.00112054 0.0015048 0.000585076)
(-0.000631521 0.000390704 0.00535743)
(-0.000683519 -0.000382651 0.000253406)
(0.000154352 0.000742344 0.000286357)
(-4.68256e-05 -0.000112215 0.000278702)
(-0.00035914 -0.00134412 0.000245436)
(0.000577337 -0.000369551 -0.00153111)