/*--------------------------------*- C++ -*----------------------------------*\
| =========                 |                                                 |
| \\      /  F ield         | OpenFOAM: The Open Source CFD Toolbox           |
|  \\    /   O peration     | Version:  plus.master.MPPICInterFoam            |
|   \\  /    A nd           | Web:      www.OpenFOAM.com                      |
|    \\/     M anipulation  |                                                 |
\*---------------------------------------------------------------------------*/
FoamFile
{
    version     2.0;
    format      ascii;
    class       volScalarField;
    location    "10.4";
    object      p;
}
// * * * * * * * * * * * * * * * * * * * * * * * * * * * * * * * * * * * * * //

dimensions      [1 -1 -2 0 0 0 0];

internalField   nonuniform List<scalar> 
11821
(
2311.1
2310.89
2311.64
2312.34
2311.48
2312.3
2233.13
2233.03
2232.82
2231.86
2230.39
2229.11
2228.07
2238.17
2238.81
2238.79
2236.26
2232.82
2230.57
2228.97
2247.61
2248.32
2248.48
2244.81
2236.86
2232.38
2229.96
2250.68
2247.75
2249.73
2250.65
2240.59
2233.82
2230.7
2249.89
2241.1
2248.66
2250.3
2241.32
2234.12
2230.96
2251.13
2248.13
2249.58
2250.13
2240.6
2233.96
2231
2248.16
2249.47
2248.95
2245
2236.99
2232.7
2230.49
2146.54
2146.91
2146.32
2144.94
2143.08
2141.14
2139.33
2151.01
2152.32
2151.25
2148.62
2145.78
2143.21
2140.81
2160.15
2163.35
2160.82
2154.41
2148.83
2145.26
2142.25
2171.57
2171.83
2169.11
2161.85
2151.88
2146.93
2143.36
2175.32
2175.66
2170.75
2165.44
2153.29
2147.57
2143.88
2173.27
2175.26
2172.57
2163.95
2152.39
2147.28
2143.71
2160.97
2164.55
2162.1
2155.45
2149.29
2145.65
2142.79
2047.55
2047.99
2047.93
2047.43
2046.65
2045.71
2044.73
2047.32
2048.03
2048.32
2048.18
2047.67
2046.68
2045.51
2045.68
2048.01
2048.26
2047.98
2048.23
2047.51
2046.21
2046.07
2058.15
2054.46
2048.49
2048.52
2048.13
2046.76
2049.85
2062.16
2059.16
2049.1
2048.54
2048.31
2046.96
2044.21
2054.11
2050.55
2047.03
2047.73
2047.93
2046.77
2042.48
2041.45
2043.06
2045.48
2047.28
2047.26
2046.26
1945.77
1945.97
1946.37
1946.77
1947.28
1947.74
1948.04
1942.47
1942.61
1943.83
1944.93
1946.27
1947.22
1947.79
1937.59
1940.74
1940.31
1942.19
1944.86
1946.64
1947.53
1934.01
1940.16
1943.79
1939.41
1943.58
1946.23
1947.38
1931.73
1941.36
1944.06
1938.65
1942.59
1946
1947.28
1931.19
1933.48
1939.3
1936.75
1942.63
1945.9
1947.24
1937.56
1937.63
1938.5
1940.3
1943.91
1946.31
1947.36
1852.16
1851.7
1852.05
1852.53
1853.22
1853.95
1854.6
1850.6
1849.56
1850.54
1851.06
1852.03
1853.13
1854.07
1851.5
1852.35
1851.57
1850.82
1851.17
1852.4
1853.59
1850.83
1846.76
1852.5
1850.23
1850.31
1851.78
1853.21
1846.9
1851.52
1850.65
1851.94
1847.88
1851.14
1852.92
1851.62
1848.16
1852.52
1850.7
1850.26
1851.76
1853.17
1853.93
1855.02
1854.88
1852.22
1851.63
1852.63
1853.64
1767.1
1766.75
1766.52
1766.14
1765.77
1765.51
1765.37
1769.55
1769.01
1768.74
1767.46
1766.32
1765.79
1765.49
1775.94
1775.43
1774.9
1771.43
1767.66
1766.26
1765.68
1776.4
1774.91
1776.4
1775.04
1769.22
1766.72
1765.83
1776.8
1779.26
1772.35
1776.96
1768.87
1766.68
1765.84
1777.06
1777.27
1777.47
1776.97
1770.07
1767.05
1766.04
1776.9
1777.2
1777.32
1774.07
1768.94
1766.84
1766.09
1680.71
1680.55
1680.05
1679.18
1678.17
1677.22
1676.45
1684.16
1684.02
1683.3
1681.33
1679.55
1678.19
1677.08
1692.45
1692.12
1690.48
1685.72
1681.38
1679.21
1677.72
1696.91
1695.26
1693.22
1690.58
1683.33
1680.05
1678.22
1698.72
1692.36
1692.96
1691.28
1683.85
1680.29
1678.42
1697.65
1695.48
1694.03
1692.08
1683.84
1680.28
1678.49
1694.02
1693.65
1692.65
1687.63
1682.12
1679.64
1678.23
1588.09
1588.09
1587.82
1587.27
1586.59
1585.89
1585.24
1589.14
1589.31
1589
1588.18
1587.41
1586.57
1585.74
1592.07
1593.73
1591.8
1589.5
1588.15
1587.2
1586.2
1596.76
1597.82
1595.81
1591.17
1588.76
1587.66
1586.54
1595.51
1595.69
1595.48
1591.7
1588.7
1587.75
1586.68
1593.42
1596.64
1596.09
1591.39
1588.69
1587.72
1586.71
1591.39
1592.79
1592.02
1589.64
1588.09
1587.35
1586.54
1492.91
1493.18
1493.33
1493.19
1492.98
1492.72
1492.43
1491.97
1492.69
1493.38
1493.35
1493.26
1492.99
1492.66
1491.23
1493.78
1493.94
1493.59
1493.52
1493.28
1492.88
1490.16
1498.21
1497.54
1493.89
1493.76
1493.57
1493.08
1492.03
1500.77
1501.82
1494.45
1493.65
1493.66
1493.18
1492.39
1498.65
1499.16
1493.38
1493.63
1493.64
1493.2
1491.92
1492.91
1493.17
1493.28
1493.45
1493.45
1493.09
1398.96
1399.06
1399.22
1399.28
1399.34
1399.39
1399.39
1398.29
1398.37
1398.97
1399.07
1399.26
1399.38
1399.42
1399.23
1399.3
1400.01
1399.35
1399.33
1399.47
1399.47
1399.1
1402.33
1402.17
1400.08
1399.67
1399.67
1399.58
1398.55
1402.55
1403.03
1400.58
1399.47
1399.72
1399.62
1400.44
1400.53
1405.71
1399.43
1399.48
1399.69
1399.61
1401.61
1401.89
1401.33
1399.9
1399.51
1399.65
1399.58
1307.39
1307.2
1307.15
1307.12
1307.18
1307.23
1307.25
1307.93
1307.31
1307.4
1307.12
1307.1
1307.21
1307.26
1311.13
1310.61
1309.58
1308.06
1307.28
1307.25
1307.28
1312.12
1309.3
1310.32
1309.29
1307.66
1307.39
1307.32
1309.31
1309.59
1307.17
1309.16
1307.4
1307.35
1307.29
1309.84
1306.64
1311.91
1309.34
1307.57
1307.36
1307.29
1311.54
1311.56
1311.95
1309.2
1307.6
1307.35
1307.28
1216.65
1216.5
1216.36
1216.17
1216.03
1215.9
1215.8
1217.63
1217.3
1217.2
1216.5
1216.18
1216.03
1215.89
1221.72
1221.7
1220.31
1217.98
1216.58
1216.2
1215.98
1224.19
1222.08
1221.65
1219.8
1217.07
1216.36
1216.04
1227.13
1222.86
1222.12
1219.21
1216.7
1216.25
1215.99
1224.39
1222.71
1222.14
1220.04
1216.98
1216.26
1215.98
1222.55
1221.64
1221.4
1218.57
1216.61
1216.11
1215.92
1124.45
1124.49
1124.52
1124.41
1124.31
1124.23
1124.18
1124.61
1124.79
1125.06
1124.6
1124.42
1124.32
1124.22
1127.64
1128.52
1127.54
1125.67
1124.7
1124.45
1124.27
1130.42
1130.1
1129.45
1126.87
1125.04
1124.57
1124.31
1130.95
1126.44
1130.97
1126.41
1124.65
1124.46
1124.28
1130.36
1130.5
1129.78
1127.15
1124.97
1124.51
1124.29
1128.21
1128.69
1128.15
1125.87
1124.6
1124.33
1124.23
1031.53
1031.66
1031.89
1031.96
1032.04
1032.17
1032.31
1030.86
1031.33
1031.92
1031.84
1031.93
1032.07
1032.21
1032.58
1034.04
1033.64
1032.48
1032
1032.06
1032.14
1033.13
1035
1034.93
1033.24
1032.15
1032.09
1032.12
1028.75
1032.44
1035.03
1032.69
1031.73
1031.98
1032.08
1029.67
1035.11
1035.58
1033.25
1032.02
1032.03
1032.12
1031.67
1033.89
1034.13
1032.51
1031.84
1031.98
1032.15
940.491
940.367
940.361
940.383
940.479
940.615
940.745
940.492
940.424
940.483
940.273
940.338
940.517
940.659
943.225
943.572
942.587
941.171
940.466
940.511
940.605
943.92
944.562
944.464
942.212
940.857
940.604
940.605
943.35
943.209
944.074
942.798
940.628
940.571
940.601
941.845
944.258
945.836
942.616
940.789
940.589
940.637
943.017
944.109
944.626
941.824
940.566
940.553
940.679
851.354
851.067
850.667
850.311
850.039
849.818
849.626
853.007
852.609
851.818
850.898
850.378
850.054
849.782
858.293
857.782
855.545
852.775
851.045
850.4
849.969
860.775
861.094
858.754
855.006
852.013
850.777
850.156
862.085
857.859
857.536
856.022
852.215
850.872
850.215
860.921
859.054
859.342
855.384
851.994
850.744
850.18
859.47
858.826
858.083
853.861
851.26
850.452
850.075
2316.08
2316.09
2314.42
2315.01
2315.47
2315.79
2315.96
2316.03
2312.4
2313.38
2314.18
2314.81
2315.3
2315.66
2315.88
2316
2312.29
2313.27
2314.07
2314.72
2315.22
2315.59
2315.83
2315.96
2312.63
2313.42
2314.14
2314.74
2315.21
2315.57
2315.82
2315.95
2313.04
2313.67
2314.26
2314.77
2315.19
2315.53
2315.78
2315.92
2227.16
2226.61
2226.17
2225.86
2225.64
2225.49
2225.38
2225.31
2227.7
2226.9
2226.34
2225.95
2225.7
2225.53
2225.41
2225.33
2228.33
2227.3
2226.59
2226.1
2225.78
2225.58
2225.45
2225.38
2228.82
2227.65
2226.83
2226.28
2225.92
2225.69
2225.56
2225.49
2229.06
2227.85
2227.02
2226.45
2226.07
2225.83
2225.71
2225.66
2229.2
2228.02
2227.21
2226.66
2226.29
2226.06
2225.95
2225.92
2229
2228.11
2227.4
2226.88
2226.54
2226.35
2226.27
2226.26
2137.88
2136.87
2136.03
2135.38
2134.9
2134.56
2134.33
2134.2
2138.86
2137.46
2136.38
2135.58
2135.01
2134.61
2134.34
2134.2
2139.82
2138.12
2136.84
2135.88
2135.2
2134.74
2134.44
2134.29
2140.59
2138.7
2137.27
2136.21
2135.46
2134.95
2134.63
2134.47
2141
2139.06
2137.6
2136.51
2135.74
2135.22
2134.89
2134.74
2141.04
2139.23
2137.84
2136.82
2136.08
2135.58
2135.28
2135.15
2140.51
2139.13
2137.97
2137.07
2136.42
2135.99
2135.75
2135.64
2043.93
2043.35
2042.86
2042.48
2042.19
2041.97
2041.8
2041.73
2044.51
2043.72
2043.1
2042.61
2042.25
2041.99
2041.81
2041.71
2045.03
2044.1
2043.35
2042.79
2042.37
2042.07
2041.88
2041.78
2045.45
2044.44
2043.62
2043
2042.54
2042.23
2042.02
2041.92
2045.65
2044.65
2043.83
2043.2
2042.74
2042.43
2042.22
2042.13
2045.58
2044.7
2043.97
2043.41
2042.98
2042.69
2042.5
2042.42
2045.1
2044.44
2043.9
2043.47
2043.16
2042.95
2042.82
2042.76
1948.23
1948.37
1948.5
1948.59
1948.66
1948.7
1948.71
1948.73
1948.13
1948.34
1948.48
1948.58
1948.64
1948.68
1948.7
1948.7
1948.02
1948.27
1948.44
1948.55
1948.63
1948.69
1948.72
1948.74
1947.96
1948.25
1948.44
1948.56
1948.66
1948.73
1948.77
1948.8
1947.9
1948.23
1948.45
1948.59
1948.7
1948.78
1948.84
1948.88
1947.83
1948.2
1948.46
1948.64
1948.76
1948.86
1948.92
1948.99
1947.61
1947.92
1948.25
1948.52
1948.72
1948.88
1948.99
1949.07
1855.03
1855.42
1855.74
1856
1856.2
1856.36
1856.46
1856.55
1854.72
1855.22
1855.62
1855.92
1856.16
1856.33
1856.45
1856.54
1854.43
1855.02
1855.48
1855.84
1856.11
1856.31
1856.46
1856.57
1854.2
1854.86
1855.38
1855.77
1856.08
1856.31
1856.47
1856.59
1854.04
1854.76
1855.32
1855.74
1856.06
1856.31
1856.49
1856.62
1854.13
1854.8
1855.35
1855.76
1856.08
1856.33
1856.53
1856.66
1854.17
1854.7
1855.23
1855.67
1856.02
1856.31
1856.53
1856.67
1765.23
1765.22
1765.23
1765.26
1765.31
1765.36
1765.42
1765.49
1765.28
1765.23
1765.23
1765.25
1765.3
1765.36
1765.43
1765.48
1765.38
1765.28
1765.25
1765.27
1765.32
1765.39
1765.46
1765.53
1765.47
1765.34
1765.3
1765.32
1765.37
1765.44
1765.52
1765.61
1765.52
1765.39
1765.36
1765.38
1765.43
1765.5
1765.6
1765.69
1765.7
1765.54
1765.49
1765.5
1765.55
1765.62
1765.72
1765.81
1765.69
1765.57
1765.55
1765.57
1765.64
1765.74
1765.86
1765.96
1675.84
1675.47
1675.16
1674.94
1674.81
1674.73
1674.71
1674.74
1676.23
1675.69
1675.29
1675.01
1674.83
1674.74
1674.71
1674.71
1676.63
1675.95
1675.46
1675.13
1674.91
1674.8
1674.76
1674.77
1676.98
1676.2
1675.65
1675.27
1675.03
1674.9
1674.86
1674.87
1677.18
1676.38
1675.82
1675.43
1675.18
1675.05
1675.01
1675.03
1677.35
1676.56
1676.01
1675.63
1675.39
1675.27
1675.23
1675.26
1677.21
1676.61
1676.15
1675.82
1675.61
1675.51
1675.5
1675.54
1584.69
1584.32
1584.01
1583.77
1583.6
1583.5
1583.45
1583.45
1585.03
1584.52
1584.12
1583.82
1583.61
1583.48
1583.42
1583.42
1585.36
1584.75
1584.28
1583.92
1583.68
1583.53
1583.47
1583.47
1585.62
1584.96
1584.45
1584.06
1583.8
1583.63
1583.57
1583.57
1585.79
1585.13
1584.61
1584.22
1583.95
1583.79
1583.72
1583.73
1585.91
1585.28
1584.79
1584.42
1584.17
1584.02
1583.96
1583.96
1585.71
1585.24
1584.87
1584.58
1584.37
1584.26
1584.22
1584.24
1492.15
1491.97
1491.82
1491.7
1491.62
1491.58
1491.56
1491.58
1492.33
1492.07
1491.87
1491.72
1491.62
1491.56
1491.53
1491.55
1492.5
1492.19
1491.95
1491.77
1491.65
1491.58
1491.56
1491.59
1492.67
1492.33
1492.06
1491.86
1491.73
1491.65
1491.63
1491.66
1492.77
1492.44
1492.17
1491.97
1491.84
1491.76
1491.75
1491.78
1492.81
1492.52
1492.29
1492.12
1491.99
1491.93
1491.91
1491.94
1492.56
1492.37
1492.25
1492.16
1492.1
1492.07
1492.08
1492.11
1399.34
1399.34
1399.36
1399.38
1399.41
1399.44
1399.48
1399.52
1399.39
1399.38
1399.38
1399.38
1399.39
1399.42
1399.46
1399.51
1399.45
1399.42
1399.4
1399.39
1399.4
1399.43
1399.48
1399.54
1399.53
1399.47
1399.44
1399.43
1399.44
1399.47
1399.52
1399.59
1399.57
1399.52
1399.5
1399.49
1399.49
1399.52
1399.58
1399.65
1399.56
1399.54
1399.55
1399.56
1399.58
1399.61
1399.66
1399.73
1399.34
1399.36
1399.44
1399.51
1399.59
1399.66
1399.74
1399.81
1307.24
1307.28
1307.34
1307.39
1307.45
1307.51
1307.58
1307.64
1307.26
1307.3
1307.35
1307.39
1307.44
1307.51
1307.58
1307.65
1307.29
1307.32
1307.35
1307.39
1307.44
1307.51
1307.59
1307.67
1307.32
1307.34
1307.37
1307.41
1307.46
1307.53
1307.61
1307.7
1307.31
1307.34
1307.38
1307.43
1307.48
1307.55
1307.64
1307.73
1307.3
1307.34
1307.4
1307.46
1307.52
1307.6
1307.68
1307.76
1307.14
1307.18
1307.28
1307.39
1307.5
1307.6
1307.7
1307.79
1215.71
1215.7
1215.72
1215.74
1215.78
1215.84
1215.9
1215.96
1215.78
1215.75
1215.74
1215.75
1215.78
1215.83
1215.9
1215.97
1215.84
1215.77
1215.74
1215.74
1215.77
1215.82
1215.9
1215.98
1215.87
1215.79
1215.75
1215.75
1215.78
1215.83
1215.91
1215.99
1215.86
1215.79
1215.75
1215.75
1215.78
1215.84
1215.92
1216
1215.86
1215.79
1215.77
1215.78
1215.81
1215.86
1215.94
1216.02
1215.7
1215.66
1215.68
1215.72
1215.78
1215.86
1215.95
1216.03
1124.11
1124.11
1124.12
1124.13
1124.17
1124.21
1124.28
1124.34
1124.13
1124.11
1124.1
1124.11
1124.14
1124.19
1124.26
1124.34
1124.16
1124.1
1124.08
1124.08
1124.11
1124.16
1124.24
1124.32
1124.17
1124.1
1124.07
1124.06
1124.09
1124.14
1124.22
1124.31
1124.16
1124.09
1124.06
1124.06
1124.08
1124.13
1124.21
1124.3
1124.17
1124.1
1124.07
1124.07
1124.1
1124.15
1124.23
1124.3
1124.03
1123.99
1124
1124.03
1124.07
1124.14
1124.22
1124.29
1032.36
1032.41
1032.45
1032.48
1032.52
1032.57
1032.64
1032.71
1032.27
1032.33
1032.37
1032.42
1032.47
1032.53
1032.61
1032.69
1032.19
1032.25
1032.3
1032.35
1032.4
1032.47
1032.56
1032.65
1032.16
1032.21
1032.26
1032.31
1032.36
1032.44
1032.53
1032.62
1032.15
1032.19
1032.24
1032.29
1032.34
1032.42
1032.51
1032.6
1032.18
1032.22
1032.26
1032.31
1032.36
1032.43
1032.52
1032.6
1032.12
1032.15
1032.21
1032.27
1032.34
1032.42
1032.51
1032.59
940.778
940.814
940.836
940.859
940.896
940.952
941.02
941.085
940.696
940.739
940.77
940.803
940.846
940.903
940.979
941.052
940.632
940.673
940.709
940.746
940.79
940.851
940.932
941.014
940.616
940.645
940.68
940.717
940.762
940.825
940.908
940.996
940.621
940.64
940.674
940.713
940.759
940.823
940.91
940.997
940.675
940.682
940.711
940.747
940.791
940.853
940.934
941.011
940.662
940.679
940.715
940.753
940.803
940.873
940.954
941.028
849.439
849.355
849.294
849.261
849.257
849.281
849.326
849.376
849.531
849.401
849.314
849.263
849.244
849.257
849.302
849.359
849.645
849.466
849.347
849.273
849.239
849.245
849.29
849.351
849.759
849.534
849.389
849.299
849.256
849.257
849.301
849.363
849.817
849.58
849.427
849.333
849.286
849.284
849.325
849.384
849.85
849.622
849.479
849.393
849.349
849.347
849.382
849.432
849.78
849.607
849.495
849.426
849.403
849.416
849.456
849.504
2239.08
2234.34
2232.49
2231.28
2230.47
2230.09
2230.13
2230.37
2246.72
2237.9
2233.89
2232.09
2231.06
2230.56
2230.58
2230.89
2248.66
2239.32
2234.38
2232.33
2231.24
2230.68
2230.66
2231.01
2247.1
2238.26
2233.96
2232.05
2230.96
2230.37
2230.33
2230.6
2240.64
2234.89
2232.4
2231.01
2230.14
2229.67
2229.61
2229.84
2234.2
2231.83
2230.53
2229.64
2229.06
2228.78
2228.78
2228.94
2231.32
2230.26
2229.45
2228.81
2228.35
2228.12
2228.1
2228.2
2152.58
2148.54
2146.19
2144.18
2142.69
2141.78
2141.39
2141.35
2159.86
2151.65
2147.96
2145.44
2143.57
2142.4
2141.9
2141.84
2163.69
2153.12
2148.74
2146.08
2144.03
2142.66
2142.02
2141.96
2159.77
2151.51
2147.87
2145.39
2143.45
2142.14
2141.52
2141.42
2152.41
2148.2
2145.67
2143.62
2142.04
2141
2140.48
2140.42
2147.46
2145.14
2143.23
2141.66
2140.49
2139.73
2139.38
2139.3
2144.53
2142.94
2141.49
2140.25
2139.32
2138.71
2138.41
2138.35
2044.44
2046.29
2046.71
2046.57
2046.37
2046.24
2046.19
2046.25
2041.7
2045.55
2046.85
2046.86
2046.61
2046.39
2046.32
2046.36
2040.75
2045.42
2047.23
2047.2
2046.85
2046.52
2046.35
2046.39
2043.19
2046.27
2047.37
2047.15
2046.69
2046.29
2046.1
2046.12
2045.85
2047.11
2047.16
2046.69
2046.19
2045.82
2045.65
2045.67
2047.09
2047.11
2046.6
2046.04
2045.57
2045.25
2045.16
2045.12
2047.14
2046.71
2046.06
2045.48
2045.04
2044.74
2044.6
2044.58
1940.94
1943.87
1945.95
1947.36
1948.36
1949.03
1949.49
1949.8
1936.99
1941.1
1944.35
1946.44
1947.72
1948.53
1949.11
1949.5
1938.89
1939.99
1943.83
1945.98
1947.35
1948.24
1948.9
1949.32
1937.07
1941.79
1944.67
1946.44
1947.56
1948.34
1948.9
1949.34
1940.95
1944
1946.03
1947.25
1948.08
1948.68
1949.14
1949.49
1944.4
1946.31
1947.35
1948.06
1948.58
1948.99
1949.34
1949.57
1946.84
1947.73
1948.22
1948.61
1948.93
1949.19
1949.39
1949.58
1852.62
1852.14
1853.28
1854.34
1855.24
1855.96
1856.55
1856.99
1853.65
1852.18
1852.66
1853.73
1854.7
1855.52
1856.24
1856.81
1854.6
1850.94
1851.45
1852.85
1854.02
1854.99
1855.83
1856.48
1852.72
1851.53
1852.04
1853.18
1854.22
1855.12
1855.91
1856.54
1851.67
1851.65
1852.8
1853.85
1854.76
1855.52
1856.19
1856.71
1851.56
1852.71
1853.72
1854.58
1855.31
1855.91
1856.4
1856.78
1853.03
1853.91
1854.6
1855.23
1855.76
1856.21
1856.57
1856.85
1772.24
1768.52
1767.63
1767.3
1767.22
1767.33
1767.62
1767.96
1776.99
1771.39
1768.59
1767.64
1767.32
1767.37
1767.72
1768.17
1777.32
1772.09
1768.6
1767.42
1767.1
1767.18
1767.57
1768.07
1776.57
1771.27
1768.3
1767.29
1767
1767.08
1767.44
1767.92
1772.35
1768.57
1767.3
1766.84
1766.75
1766.88
1767.22
1767.61
1767.87
1766.83
1766.49
1766.4
1766.45
1766.62
1766.88
1767.19
1766.49
1766.28
1766.23
1766.25
1766.31
1766.45
1766.65
1766.87
1686.46
1681.98
1680.42
1679.4
1678.74
1678.45
1678.49
1678.7
1693.34
1685.73
1681.96
1680.29
1679.34
1678.91
1678.92
1679.18
1694.17
1686.62
1682.33
1680.55
1679.55
1679.06
1679.04
1679.31
1693.43
1685.76
1682
1680.33
1679.36
1678.85
1678.8
1679.05
1686.81
1682.32
1680.43
1679.32
1678.6
1678.24
1678.29
1678.45
1681.59
1679.93
1678.95
1678.23
1677.76
1677.54
1677.54
1677.71
1679.5
1678.73
1678.09
1677.57
1677.2
1677.02
1677.02
1677.14
1587.88
1587.14
1587.18
1586.95
1586.74
1586.68
1586.79
1586.97
1588.68
1587.61
1587.6
1587.41
1587.13
1587.02
1587.09
1587.31
1590.76
1588.21
1587.94
1587.77
1587.42
1587.19
1587.21
1587.4
1591.23
1588.76
1588.25
1587.84
1587.37
1587.07
1587.03
1587.22
1589.26
1588.08
1587.72
1587.27
1586.86
1586.62
1586.61
1586.75
1587.9
1587.49
1587.04
1586.59
1586.25
1586.09
1586.06
1586.18
1587.47
1587.09
1586.62
1586.18
1585.85
1585.66
1585.63
1585.71
1492.07
1492.9
1493.41
1493.56
1493.67
1493.78
1493.92
1494.09
1490.5
1492.7
1493.3
1493.51
1493.58
1493.68
1493.81
1494.02
1488.77
1491.6
1492.85
1493.28
1493.39
1493.46
1493.6
1493.82
1488.75
1491.51
1492.72
1493.11
1493.21
1493.28
1493.43
1493.69
1491.24
1492.22
1492.85
1493.02
1493.06
1493.12
1493.25
1493.44
1492.19
1492.77
1492.91
1492.91
1492.9
1492.93
1493.02
1493.19
1492.97
1493.09
1492.99
1492.88
1492.81
1492.8
1492.85
1492.99
1401
1400.09
1400.21
1400.38
1400.56
1400.72
1400.9
1401.08
1402.42
1400.55
1400.02
1400.11
1400.24
1400.39
1400.6
1400.86
1401.98
1399.54
1399.37
1399.6
1399.79
1400
1400.27
1400.6
1399.54
1399.36
1399.24
1399.46
1399.65
1399.86
1400.14
1400.48
1399.11
1398.91
1399.26
1399.47
1399.66
1399.86
1400.1
1400.36
1398.64
1399.1
1399.35
1399.53
1399.7
1399.87
1400.06
1400.32
1399.19
1399.44
1399.53
1399.63
1399.76
1399.89
1400.03
1400.22
1308.98
1307.17
1307.41
1307.66
1307.86
1308.05
1308.27
1308.47
1311.57
1308.52
1307.61
1307.64
1307.75
1307.93
1308.19
1308.48
1312.58
1309.26
1307.72
1307.56
1307.63
1307.8
1308.1
1308.48
1312.64
1309.28
1307.9
1307.65
1307.66
1307.81
1308.09
1308.45
1309.67
1307.8
1307.55
1307.55
1307.64
1307.8
1308.04
1308.31
1307.5
1307.32
1307.39
1307.49
1307.61
1307.77
1307.97
1308.23
1307.3
1307.35
1307.43
1307.54
1307.65
1307.78
1307.94
1308.14
1218.45
1216.13
1216.02
1215.97
1215.98
1216.06
1216.22
1216.4
1222.41
1218.37
1216.77
1216.38
1216.21
1216.21
1216.39
1216.67
1223.17
1218.92
1216.98
1216.53
1216.35
1216.34
1216.53
1216.85
1222.54
1218.57
1217.02
1216.59
1216.4
1216.4
1216.57
1216.86
1219.17
1216.95
1216.5
1216.32
1216.24
1216.28
1216.44
1216.67
1216.69
1216.27
1216.19
1216.14
1216.12
1216.18
1216.33
1216.54
1216.27
1216.19
1216.15
1216.11
1216.11
1216.16
1216.28
1216.43
1124.72
1123.43
1123.65
1123.71
1123.77
1123.9
1124.08
1124.27
1126.98
1124.79
1124.14
1124.03
1123.98
1124.05
1124.25
1124.54
1127.69
1125.12
1124.23
1124.2
1124.15
1124.19
1124.37
1124.67
1127.07
1124.89
1124.37
1124.3
1124.23
1124.27
1124.44
1124.69
1125.3
1124.04
1124.12
1124.13
1124.14
1124.2
1124.35
1124.57
1123.93
1123.98
1124.1
1124.13
1124.16
1124.25
1124.4
1124.57
1124.22
1124.26
1124.25
1124.23
1124.25
1124.3
1124.43
1124.55
1030.11
1030.23
1030.92
1031.33
1031.65
1031.93
1032.2
1032.44
1028.36
1030.13
1030.54
1031.08
1031.46
1031.8
1032.13
1032.47
1028.03
1029.58
1030.08
1030.86
1031.3
1031.66
1032.01
1032.4
1029.98
1030.15
1030.62
1031.14
1031.48
1031.78
1032.11
1032.44
1030.95
1030.4
1031
1031.39
1031.65
1031.9
1032.17
1032.45
1030.56
1031.05
1031.49
1031.75
1031.96
1032.16
1032.38
1032.58
1031.52
1031.83
1031.98
1032.11
1032.23
1032.35
1032.53
1032.66
941.408
940.35
940.497
940.681
940.855
941.032
941.242
941.448
941.552
941.002
940.108
940.309
940.535
940.786
941.112
941.421
942.477
940.849
939.882
940.047
940.267
940.549
940.91
941.322
942.513
940.917
940.035
940.172
940.353
940.6
940.934
941.29
941.522
940.103
940.123
940.297
940.481
940.695
940.979
941.267
939.996
940.067
940.327
940.514
940.681
940.857
941.074
941.268
940.364
940.56
940.692
940.786
940.872
940.976
941.14
941.267
855.838
852.435
851.542
851.064
850.734
850.563
850.561
850.658
860.304
855.51
852.426
851.372
850.847
850.638
850.714
850.889
861.668
856.344
852.687
851.406
850.811
850.599
850.677
850.959
859.844
855.247
852.244
851.214
850.719
850.531
850.617
850.846
855.542
852.379
851.218
850.703
850.425
850.329
850.423
850.601
851.757
850.911
850.577
850.339
850.191
850.149
850.233
850.349
850.785
850.557
850.375
850.191
850.059
850.022
850.07
850.153
2230.99
2229.75
2228.78
2228.11
2227.68
2227.47
2227.44
2227.49
2230.68
2229.23
2228.24
2227.59
2227.19
2226.97
2226.89
2226.91
2230.27
2228.81
2227.82
2227.17
2226.75
2226.5
2226.39
2226.38
2229.63
2228.32
2227.41
2226.8
2226.4
2226.16
2226.04
2226.03
2228.72
2227.67
2226.93
2226.42
2226.08
2225.88
2225.77
2225.72
2227.88
2227.07
2226.49
2226.08
2225.8
2225.63
2225.53
2225.46
2227.22
2226.7
2226.27
2225.94
2225.71
2225.55
2225.45
2225.44
2143.72
2141.87
2140.33
2139.14
2138.29
2137.74
2137.46
2137.36
2143.79
2141.51
2139.79
2138.53
2137.63
2137.03
2136.69
2136.55
2143.16
2140.9
2139.17
2137.9
2136.98
2136.36
2135.99
2135.85
2142.08
2140
2138.41
2137.22
2136.36
2135.78
2135.42
2135.28
2140.68
2138.93
2137.56
2136.54
2135.8
2135.29
2134.97
2134.82
2139.23
2137.86
2136.77
2135.93
2135.32
2134.89
2134.61
2134.48
2138.02
2137.04
2136.2
2135.53
2135.04
2134.69
2134.45
2134.36
2046.41
2045.74
2045.2
2044.72
2044.34
2044.09
2043.94
2043.89
2046.87
2045.95
2045.17
2044.54
2044.04
2043.69
2043.48
2043.39
2046.73
2045.71
2044.84
2044.14
2043.61
2043.24
2043.02
2042.94
2046.24
2045.24
2044.39
2043.71
2043.2
2042.84
2042.63
2042.52
2045.56
2044.65
2043.9
2043.29
2042.84
2042.53
2042.33
2042.21
2044.79
2044.02
2043.39
2042.89
2042.52
2042.26
2042.07
2041.99
2044.09
2043.51
2043.02
2042.62
2042.32
2042.09
2041.92
2041.86
1946.56
1947.31
1947.98
1948.46
1948.8
1949.05
1949.22
1949.35
1947.13
1947.94
1948.44
1948.74
1948.93
1949.07
1949.18
1949.28
1947.47
1948.08
1948.45
1948.69
1948.84
1948.96
1949.05
1949.16
1947.68
1948.18
1948.48
1948.67
1948.8
1948.89
1949
1949.02
1947.93
1948.29
1948.53
1948.67
1948.78
1948.85
1948.94
1948.94
1948.13
1948.37
1948.54
1948.66
1948.75
1948.81
1948.83
1948.86
1948.33
1948.47
1948.58
1948.67
1948.73
1948.77
1948.78
1948.78
1852.97
1853.82
1854.62
1855.27
1855.79
1856.2
1856.52
1856.73
1853.12
1854.16
1854.93
1855.51
1855.94
1856.28
1856.54
1856.73
1853.38
1854.31
1855.01
1855.54
1855.95
1856.26
1856.5
1856.67
1853.73
1854.55
1855.17
1855.65
1856.02
1856.29
1856.53
1856.64
1854.17
1854.85
1855.38
1855.79
1856.1
1856.33
1856.54
1856.64
1854.62
1855.15
1855.57
1855.91
1856.17
1856.37
1856.51
1856.61
1855.08
1855.46
1855.78
1856.04
1856.24
1856.39
1856.49
1856.55
1766.25
1766
1765.9
1765.91
1766
1766.14
1766.32
1766.48
1766.1
1765.84
1765.77
1765.77
1765.83
1765.94
1766.08
1766.21
1765.88
1765.65
1765.58
1765.58
1765.63
1765.72
1765.85
1765.96
1765.68
1765.49
1765.44
1765.45
1765.51
1765.59
1765.72
1765.79
1765.47
1765.36
1765.33
1765.36
1765.42
1765.49
1765.61
1765.67
1765.3
1765.26
1765.27
1765.31
1765.36
1765.43
1765.5
1765.58
1765.25
1765.25
1765.27
1765.29
1765.33
1765.39
1765.44
1765.5
1679.06
1678.1
1677.37
1676.88
1676.58
1676.44
1676.44
1676.52
1678.87
1677.74
1677
1676.49
1676.18
1676.02
1675.99
1676.03
1678.38
1677.32
1676.6
1676.11
1675.79
1675.62
1675.6
1675.61
1677.76
1676.84
1676.19
1675.76
1675.48
1675.32
1675.28
1675.3
1677.05
1676.32
1675.79
1675.43
1675.2
1675.07
1675.06
1675.05
1676.39
1675.85
1675.46
1675.17
1674.99
1674.89
1674.85
1674.88
1675.89
1675.54
1675.24
1675.01
1674.86
1674.78
1674.75
1674.78
1587.07
1586.44
1585.94
1585.56
1585.29
1585.15
1585.11
1585.15
1587.12
1586.32
1585.73
1585.29
1584.97
1584.78
1584.71
1584.72
1586.79
1586.01
1585.39
1584.93
1584.6
1584.4
1584.33
1584.32
1586.33
1585.61
1585.04
1584.6
1584.29
1584.11
1584.02
1584.02
1585.78
1585.17
1584.67
1584.28
1584.01
1583.86
1583.78
1583.76
1585.25
1584.75
1584.34
1584.03
1583.81
1583.67
1583.6
1583.61
1584.79
1584.42
1584.1
1583.85
1583.68
1583.56
1583.51
1583.51
1492.55
1492.51
1492.51
1492.5
1492.48
1492.49
1492.54
1492.6
1492.98
1492.83
1492.68
1492.52
1492.39
1492.33
1492.33
1492.37
1493.04
1492.77
1492.52
1492.32
1492.18
1492.1
1492.09
1492.12
1492.89
1492.61
1492.35
1492.15
1492
1491.94
1491.91
1491.93
1492.68
1492.41
1492.17
1491.98
1491.85
1491.79
1491.75
1491.77
1492.44
1492.2
1492
1491.85
1491.74
1491.68
1491.68
1491.69
1492.23
1492.05
1491.89
1491.77
1491.69
1491.64
1491.63
1491.64
1398.8
1398.98
1399.24
1399.44
1399.59
1399.73
1399.86
1399.96
1399.21
1399.4
1399.52
1399.58
1399.64
1399.7
1399.79
1399.87
1399.36
1399.44
1399.48
1399.51
1399.54
1399.59
1399.67
1399.75
1399.38
1399.42
1399.45
1399.46
1399.49
1399.54
1399.6
1399.67
1399.39
1399.4
1399.41
1399.42
1399.44
1399.49
1399.53
1399.6
1399.38
1399.38
1399.39
1399.41
1399.43
1399.47
1399.57
1399.59
1399.39
1399.39
1399.4
1399.42
1399.45
1399.48
1399.53
1399.57
1307.09
1307.13
1307.24
1307.37
1307.51
1307.66
1307.8
1307.92
1307.21
1307.29
1307.37
1307.45
1307.54
1307.64
1307.75
1307.85
1307.21
1307.27
1307.34
1307.41
1307.48
1307.57
1307.67
1307.77
1307.21
1307.27
1307.33
1307.4
1307.47
1307.55
1307.64
1307.73
1307.24
1307.28
1307.33
1307.39
1307.45
1307.52
1307.6
1307.7
1307.24
1307.28
1307.34
1307.4
1307.46
1307.52
1307.67
1307.7
1307.27
1307.31
1307.36
1307.42
1307.48
1307.55
1307.62
1307.68
1216.16
1215.97
1215.9
1215.89
1215.94
1216.02
1216.13
1216.24
1216.2
1216.02
1215.93
1215.91
1215.93
1215.98
1216.07
1216.17
1216.09
1215.94
1215.87
1215.84
1215.86
1215.91
1216
1216.09
1215.99
1215.87
1215.81
1215.8
1215.83
1215.87
1215.96
1216.04
1215.89
1215.8
1215.77
1215.78
1215.8
1215.86
1215.93
1216.01
1215.79
1215.75
1215.75
1215.76
1215.8
1215.85
1216
1216.02
1215.74
1215.73
1215.74
1215.76
1215.8
1215.86
1215.93
1216.01
1124.09
1124.03
1124.04
1124.08
1124.14
1124.23
1124.34
1124.44
1124.3
1124.2
1124.16
1124.16
1124.18
1124.24
1124.33
1124.42
1124.31
1124.19
1124.13
1124.12
1124.14
1124.2
1124.29
1124.38
1124.25
1124.15
1124.11
1124.1
1124.13
1124.18
1124.26
1124.34
1124.18
1124.12
1124.1
1124.1
1124.13
1124.19
1124.27
1124.34
1124.14
1124.11
1124.1
1124.12
1124.15
1124.2
1124.27
1124.34
1124.13
1124.13
1124.13
1124.15
1124.18
1124.22
1124.29
1124.38
1031.55
1031.73
1031.93
1032.1
1032.24
1032.37
1032.51
1032.63
1031.85
1031.99
1032.12
1032.23
1032.32
1032.43
1032.55
1032.66
1031.98
1032.07
1032.15
1032.24
1032.33
1032.43
1032.55
1032.65
1032.04
1032.12
1032.2
1032.27
1032.35
1032.44
1032.54
1032.64
1032.12
1032.2
1032.27
1032.33
1032.4
1032.48
1032.59
1032.67
1032.24
1032.29
1032.34
1032.39
1032.44
1032.55
1032.6
1032.67
1032.37
1032.42
1032.45
1032.48
1032.53
1032.58
1032.65
1032.75
940.481
940.545
940.64
940.732
940.829
940.945
941.076
941.186
940.497
940.571
940.667
940.746
940.831
940.932
941.05
941.158
940.471
940.553
940.638
940.716
940.798
940.893
941.004
941.11
940.491
940.581
940.655
940.721
940.789
940.87
940.98
941.073
940.568
940.647
940.709
940.767
940.834
940.917
941.018
941.105
940.677
940.729
940.768
940.806
940.854
940.922
940.996
941.097
940.783
940.823
940.847
940.875
940.916
940.972
941.04
941.132
850.773
850.367
850.071
849.889
849.805
849.804
849.858
849.929
850.493
850.085
849.847
849.713
849.654
849.653
849.704
849.775
850.161
849.854
849.668
849.566
849.52
849.524
849.574
849.642
849.931
849.703
849.553
849.465
849.426
849.433
849.489
849.549
849.761
849.586
849.471
849.403
849.378
849.397
849.447
849.508
849.61
849.482
849.392
849.341
849.324
849.341
849.379
849.475
849.466
849.382
849.327
849.303
849.307
849.334
849.381
849.453
2312.87
2313.59
2314.22
2314.75
2315.29
2315.55
2315.82
2316
2311.87
2312.65
2313.41
2314.1
2314.73
2315.22
2315.62
2315.88
2311.25
2311.79
2312.68
2313.54
2314.41
2314.98
2315.51
2315.85
2312.01
2311.37
2312.04
2312.99
2313.87
2314.67
2315.32
2315.79
2311.48
2312.56
2313.58
2314.45
2315.25
2315.78
2315.25
2315.79
2229.28
2228.54
2227.9
2227.38
2227.14
2226.8
2226.72
2226.74
2230.74
2229.48
2228.52
2227.82
2227.46
2227.19
2227.12
2227.17
2233.03
2231.03
2229.65
2228.71
2228.21
2227.8
2227.71
2227.79
2236.84
2232.99
2231
2229.71
2228.89
2228.47
2228.36
2228.45
2240.04
2234.31
2231.85
2230.44
2229.51
2229.03
2228.99
2229.13
2240.41
2234.65
2232.07
2230.7
2229.86
2229.43
2229.44
2229.62
2238.25
2234.4
2232.48
2231.18
2230.32
2229.9
2229.89
2230.08
2141.26
2139.99
2138.84
2137.88
2137.26
2136.66
2136.4
2136.32
2143.43
2141.63
2140.08
2138.84
2138.04
2137.43
2137.08
2136.99
2146.16
2143.88
2141.9
2140.31
2139.25
2138.39
2137.99
2137.85
2149.53
2146.34
2143.86
2141.87
2140.42
2139.44
2138.95
2138.8
2152.72
2148.22
2145.34
2143.11
2141.47
2140.37
2139.85
2139.69
2153.9
2148.85
2145.87
2143.64
2142.04
2141.02
2140.55
2140.44
2152.1
2148.5
2145.93
2143.87
2142.36
2141.44
2141.02
2140.96
2045.79
2045.21
2044.61
2044.12
2043.75
2043.45
2043.3
2043.27
2046.6
2045.92
2045.25
2044.66
2044.31
2043.96
2043.76
2043.72
2047.37
2046.85
2046.12
2045.45
2045.01
2044.53
2044.33
2044.27
2047.48
2047.47