/*--------------------------------*- C++ -*----------------------------------*\
| =========                 |                                                 |
| \\      /  F ield         | OpenFOAM: The Open Source CFD Toolbox           |
|  \\    /   O peration     | Version:  plus.master.MPPICInterFoam            |
|   \\  /    A nd           | Web:      www.OpenFOAM.com                      |
|    \\/     M anipulation  |                                                 |
\*---------------------------------------------------------------------------*/
FoamFile
{
    version     2.0;
    format      ascii;
    class       surfaceScalarField;
    location    "10.4";
    object      phi;
}
// * * * * * * * * * * * * * * * * * * * * * * * * * * * * * * * * * * * * * //

dimensions      [0 3 -1 0 0 0 0];

internalField   nonuniform List<scalar> 
34018
(
2.90187e-07
5.88568e-06
1.71336e-07
2.46327e-07
4.795e-07
7.3952e-06
3.8613e-07
5.80888e-06
1.83586e-07
2.39013e-07
8.48058e-06
7.51195e-07
2.01163e-07
6.84482e-06
5.75228e-07
5.44992e-06
1.48474e-07
4.30507e-07
-5.70324e-07
-7.89008e-07
7.25386e-06
7.18451e-07
5.81506e-07
-3.8226e-07
-8.33375e-07
7.41541e-06
6.40191e-07
-1.67409e-07
-8.28746e-07
7.16881e-06
6.32724e-07
-5.53513e-09
-6.79145e-07
6.55356e-06
5.22215e-07
5.56535e-08
-4.39477e-07
5.69907e-06
3.56723e-07
6.07419e-08
-2.5582e-07
4.74487e-06
2.19631e-07
-1.3086e-07
3.77612e-06
4.55708e-08
1.1767e-07
-6.76592e-07
-8.48942e-07
8.8204e-06
9.52348e-07
-3.93428e-07
-7.28039e-07
9.13402e-06
-5.898e-08
-7.90369e-07
8.82528e-06
1.82346e-07
-7.3547e-07
7.9686e-06
2.28369e-07
-4.48385e-07
6.85071e-06
1.88858e-07
-2.32538e-07
5.66556e-06
-1.00033e-07
4.5108e-06
1.31066e-07
-7.1878e-07
-3.55638e-07
1.07898e-05
1.27851e-06
-4.222e-07
1.25543e-07
1.17452e-05
4.52366e-08
-1.07978e-07
1.11261e-05
4.76785e-07
-3.97008e-07
9.51332e-06
4.86209e-07
-2.4961e-07
7.97526e-06
3.64432e-07
-8.7039e-08
6.52005e-06
1.7473e-09
5.16673e-06
2.46263e-07
-5.00902e-07
1.55068e-07
1.33867e-05
1.27591e-06
-5.96756e-07
5.28903e-07
1.50796e-05
-1.67057e-07
3.15046e-07
1.39905e-05
6.0133e-07
1.36303e-07
1.12294e-05
6.90104e-07
1.20544e-07
8.90822e-06
5.13179e-07
1.58127e-07
7.17725e-06
1.60925e-07
5.65963e-06
3.48571e-07
-3.28917e-07
3.48937e-07
1.45876e-05
1.10643e-06
-8.43692e-07
7.27844e-08
1.68534e-05
-4.24421e-07
2.80436e-07
1.52794e-05
4.95419e-07
4.58844e-07
1.21457e-05
7.23096e-07
4.61689e-07
9.33717e-06
5.5717e-07
3.98276e-07
7.47859e-06
3.1964e-07
5.89643e-06
3.87701e-07
-5.56148e-07
8.89047e-07
1.33091e-05
1.30226e-06
-5.30146e-07
5.05871e-07
1.51172e-05
-1.01184e-07
7.5045e-07
1.42602e-05
6.3934e-07
1.01451e-06
1.15032e-05
7.28277e-07
8.30825e-07
9.08844e-06
5.40903e-07
6.21653e-07
7.35899e-06
4.56804e-07
5.84093e-06
3.71693e-07
-6.79013e-07
1.07487e-05
1.13652e-06
1.27533e-06
-2.89291e-07
1.17663e-05
1.41427e-06
1.69712e-07
1.13461e-05
1.46522e-06
5.51101e-07
9.85885e-06
1.35702e-06
5.42605e-07
8.33262e-06
9.87146e-07
4.1668e-07
6.88003e-06
7.12108e-07
5.51358e-06
3.02254e-07
5.07483e-07
-5.34491e-07
-3.29092e-07
7.29955e-06
5.8477e-07
2.33132e-07
-4.03527e-07
-4.01374e-07
7.41658e-06
2.69364e-07
-2.62042e-07
-3.75108e-07
7.14075e-06
2.61611e-07
-1.59345e-07
-2.65055e-07
6.519e-06
1.96999e-07
-1.04044e-07
-1.43277e-07
5.6686e-06
1.19183e-07
-7.32159e-08
-6.37513e-08
4.71801e-06
5.96821e-08
-1.44471e-08
3.75424e-06
-5.32373e-08
1.61686e-08
-6.57325e-07
-4.53388e-07
8.83421e-06
7.67984e-07
-4.15211e-07
-5.47328e-07
9.03773e-06
-2.03617e-07
-4.76087e-07
8.71505e-06
-8.18111e-08
-3.12908e-07
7.8943e-06
-3.92563e-08
-1.39022e-07
6.80422e-06
-2.78106e-08
-3.8978e-08
5.62963e-06
1.27365e-08
4.4815e-06
-2.5487e-08
-7.32736e-07
-4.35234e-07
1.04683e-05
1.03586e-06
-3.58431e-07
-3.08557e-07
1.11323e-05
-3.70763e-08
-2.71413e-07
1.06005e-05
9.30009e-08
-2.28804e-07
9.29876e-06
8.79575e-08
-4.47266e-08
7.88598e-06
5.34759e-08
4.72837e-08
6.46803e-06
7.88402e-08
5.12764e-06
2.65441e-08
-5.83406e-07
2.13018e-08
1.21568e-05
1.35676e-06
-2.30781e-07
-1.8646e-08
1.44371e-05
4.46952e-08
1.56353e-07
1.32865e-05
2.94276e-07
1.21944e-07
1.06291e-05
2.29087e-07
1.83726e-07
8.74511e-06
1.38871e-07
2.08178e-07
7.1067e-06
1.83864e-07
5.61295e-06
8.04671e-08
-4.97218e-07
4.98535e-07
1.31741e-05
1.43317e-06
-7.32436e-08
4.48133e-07
1.59621e-05
-2.72778e-08
3.12847e-07
1.50769e-05
3.51357e-07
4.80344e-07
1.14085e-05
2.70921e-07
4.59953e-07
9.14132e-06
1.68881e-07
3.7605e-07
7.41281e-06
2.91246e-07
5.85592e-06
1.02036e-07
-7.08916e-07
1.00207e-06
1.21617e-05
1.35249e-06
-2.56277e-07
1.08952e-06
1.40231e-05
6.89702e-08
1.0412e-06
1.32064e-05
3.11252e-07
9.01806e-07
1.08394e-05
2.31472e-07
6.56137e-07
8.97195e-06
1.42741e-07
4.98454e-07
7.32537e-06
3.65303e-07
5.81794e-06
9.16565e-08
-7.05203e-07
1.06389e-05
9.10967e-07
9.06154e-07
-2.90428e-07
1.12659e-05
1.17506e-06
-1.9724e-08
1.09928e-05
1.12371e-06
9.59848e-08
9.74265e-06
9.02243e-07
8.90746e-08
8.32898e-06
6.66505e-07
7.1428e-08
6.88603e-06
5.10043e-07
5.51231e-06
7.36339e-08
3.64543e-07
-4.41052e-07
4.0383e-07
7.23254e-06
3.48527e-07
-2.44179e-07
-4.56042e-07
3.80326e-07
7.32248e-06
-2.71033e-07
-4.23608e-07
3.25869e-07
7.02323e-06
-2.40935e-07
-3.74797e-07
2.8755e-07
6.39055e-06
-2.07658e-07
-3.09148e-07
2.25141e-07
5.54297e-06
-1.65048e-07
-2.3929e-07
1.66507e-07
4.60828e-06
-1.26294e-07
1.24019e-07
3.66902e-06
-1.7489e-07
-1.0301e-07
-5.6107e-07
4.82257e-07
8.8933e-06
4.23663e-07
-5.61977e-07
3.78918e-07
9.04014e-06
-5.22657e-07
3.27941e-07
8.6737e-06
-4.69836e-07
3.41856e-07
7.78753e-06
-3.84076e-07
2.75143e-07
6.6685e-06
-2.90679e-07
2.04813e-07
5.49781e-06
1.50686e-07
4.37352e-06
-2.09399e-07
-6.79103e-07
3.06454e-07
1.08462e-05
4.77097e-07
-6.30429e-07
2.03245e-08
1.14426e-05
-5.51417e-07
1.27879e-07
1.07211e-05
-5.31692e-07
2.95311e-07
9.32579e-06
-4.39536e-07
3.00414e-07
7.76847e-06
-3.28408e-07
2.38997e-07
6.32269e-06
1.80422e-07
5.00093e-06
-2.31457e-07
-1.08013e-06
2.01479e-07
1.25799e-05
7.62169e-07
-4.63577e-07
2.01147e-07
1.36397e-05
-3.78241e-07
2.03376e-07
1.31257e-05
-4.91927e-07
3.51765e-07
1.06859e-05
-4.55001e-07
3.41992e-07
8.66648e-06
-3.46658e-07
2.82005e-07
6.95539e-06
2.13882e-07
5.47506e-06
-2.42014e-07
-1.24753e-06
6.0972e-07
1.29234e-05
1.08979e-06
-5.00161e-07
7.91368e-07
1.46237e-05
-3.00784e-07
7.84059e-07
1.42965e-05
-4.81978e-07
4.89396e-07
1.14517e-05
-4.78207e-07
3.95042e-07
9.08429e-06
-3.64543e-07
3.12587e-07
7.26865e-06
2.34469e-07
5.71851e-06
-2.476e-07
-1.01938e-06
4.54744e-07
1.25973e-05
7.38731e-07
-4.65145e-07
8.96085e-07
1.3364e-05
-4.89862e-07
7.29446e-07
1.32859e-05
-5.8448e-07
4.39921e-07
1.09834e-05
-5.21151e-07
3.28469e-07
8.97521e-06
-3.75313e-07
2.90448e-07
7.20177e-06
2.238e-07
5.69295e-06
-2.39656e-07
-5.54427e-07
1.1252e-05
3.54475e-07
4.13267e-08
-6.27503e-07
1.20354e-05
1.99241e-07
-6.73685e-07
1.15647e-05
2.03825e-07
-6.53479e-07
9.99062e-06
1.716e-07
-5.12464e-07
8.30825e-06
2.08248e-07
-3.45668e-07
6.781e-06
2.28715e-07
5.40614e-06
-1.90967e-07
1.75368e-07
-3.469e-07
5.91997e-07
7.08076e-06
2.26482e-07
-3.19681e-07
-4.25453e-07
6.39694e-07
7.1498e-06
-3.88274e-07
-4.3142e-07
5.35978e-07
6.83775e-06
-3.44662e-07
-3.9165e-07
4.19486e-07
6.20563e-06
-2.74336e-07
-3.16342e-07
2.90807e-07
5.37587e-06
-1.99277e-07
-2.35304e-07
1.93651e-07
4.47379e-06
-1.39576e-07
1.29182e-07
3.573e-06
-1.64597e-07
-1.03539e-07
-4.54977e-07
8.19601e-07
8.86343e-06
2.57356e-07
-5.95211e-07
8.1664e-07
9.00356e-06
-6.04269e-07
6.50983e-07
8.56746e-06
-5.50736e-07
5.52843e-07
7.60127e-06
-4.3178e-07
3.74381e-07
6.46567e-06
-3.07437e-07
2.43494e-07
5.32303e-06
1.58108e-07
4.24392e-06
-2.07099e-07
-6.90148e-07
7.03345e-07
1.14372e-05
2.15803e-07
-7.40172e-07
4.74188e-07
1.1835e-05
-7.7513e-07
4.0235e-07
1.10038e-05
-7.28793e-07
5.24956e-07
9.30749e-06
-5.54706e-07
3.97212e-07
7.57135e-06
-3.79045e-07
2.71616e-07
6.11893e-06
1.81676e-07
4.84304e-06
-2.44811e-07
-1.0939e-06
4.92352e-07
1.35023e-05
3.8222e-07
-8.5472e-07
3.52398e-07
1.3522e-05
-6.68253e-07
2.41639e-07
1.30999e-05
-8.09869e-07
4.18367e-07
1.09338e-05
-6.58031e-07
3.85376e-07
8.52617e-06
-4.41495e-07
2.72782e-07
6.73761e-06
1.91378e-07
5.29893e-06
-2.74792e-07
-1.31996e-06
4.14305e-07
1.38655e-05
4.55557e-07
-9.42977e-07
7.18174e-07
1.38808e-05
-5.46232e-07
8.66431e-07
1.32743e-05
-9.19747e-07
4.67044e-07
1.1776e-05
-7.40183e-07
2.89374e-07
9.00025e-06
-4.85994e-07
2.35528e-07
7.0517e-06
1.76941e-07
5.53752e-06
-2.90541e-07
-8.68594e-07
2.54925e-08
1.35652e-05
2.89394e-07
-9.72478e-07
1.99891e-07
1.39858e-05
-7.95525e-07
3.04626e-07
1.36706e-05
-9.33274e-07
1.30994e-07
1.1457e-05
-7.28192e-07
1.54336e-07
8.9052e-06
-4.64034e-07
1.75136e-07
6.99804e-06
1.46475e-07
5.52269e-06
-2.6337e-07
-5.07318e-07
1.19043e-05
1.3732e-07
-2.57041e-07
-7.81627e-07
1.28102e-05
-3.01721e-07
-8.68572e-07
1.21509e-05
-1.95135e-07
-8.3946e-07
1.02038e-05
-1.11443e-07
-6.08862e-07
8.18291e-06
4.93092e-08
-3.79108e-07
6.59945e-06
1.26929e-07
5.26033e-06
-1.9163e-07
1.04767e-07
-2.94545e-07
7.52539e-08
6.96743e-06
2.83713e-07
4.88492e-08
-3.04949e-07
1.53454e-07
7.01051e-06
-3.97382e-09
-2.5625e-07
8.62655e-08
6.6899e-06
1.27271e-08
-1.8474e-07
4.14614e-08
6.06788e-06
2.46925e-08
-1.17006e-07
2.18517e-08
5.26369e-06
2.23708e-08
-6.46897e-08
1.01679e-08
4.39491e-06
1.66984e-08
5.31475e-09
3.52655e-06
-3.06377e-08
7.04787e-09
-3.68608e-07
2.45815e-07
8.70259e-06
3.58745e-07
-4.26134e-07
3.78134e-07
8.83607e-06
-3.52658e-07
2.28996e-07
8.35074e-06
-2.44309e-07
1.41661e-07
7.39299e-06
-1.45432e-07
9.23401e-08
6.29612e-06
-7.29603e-08
5.78894e-08
5.20274e-06
3.5312e-08
4.16935e-06
-2.85418e-08
-5.67255e-07
3.6934e-07
1.14919e-05
3.8898e-07
-5.08423e-07
4.85237e-07
1.1669e-05
-4.61453e-07
3.1116e-07
1.08742e-05
-3.00413e-07
2.44805e-07
9.0434e-06
-1.6691e-07
1.83877e-07
7.34607e-06
-7.47893e-08
1.25785e-07
5.95889e-06
8.12009e-08
4.74234e-06
-1.99132e-08
-6.17047e-07
3.91962e-07
1.36738e-05
4.22381e-07
-6.86471e-07
3.12826e-07
1.37638e-05
-5.02742e-07
3.01948e-07
1.29252e-05
-3.61819e-07
2.16721e-07
1.08208e-05
-2.15841e-07
2.94115e-07
8.26975e-06
-9.08126e-08
1.87765e-07
6.55034e-06
1.25698e-07
5.18007e-06
-1.62615e-08
-7.14545e-07
2.19028e-07
1.44889e-05
2.63885e-07
-6.14877e-07
1.0517e-07
1.39892e-05
-5.93921e-07
2.41189e-07
1.33136e-05
-7.1477e-07
3.77686e-07
1.17359e-05
-3.42538e-07
1.67615e-07
8.75446e-06
-1.31796e-07
1.74723e-07
6.85401e-06
1.38943e-07
5.41244e-06
-1.9899e-08
-5.19505e-07
5.34532e-08
1.3934e-05
3.16221e-07
-7.69141e-07
-7.30676e-08
1.44134e-05
-5.26744e-07
9.03879e-08
1.35783e-05
-4.22068e-07
1.79532e-07
1.15504e-05
-2.28234e-07
2.17474e-07
8.66154e-06
-7.79795e-08
2.05268e-07
6.81731e-06
1.60192e-07
5.40947e-06
1.40638e-08
-4.69613e-07
1.19724e-05
2.90629e-07
1.64128e-07
-4.86321e-07
1.27187e-05
3.48431e-08
-4.27497e-07
1.20103e-05
1.71722e-07
-2.96271e-07
9.99322e-06
2.58993e-07
-1.34999e-07
7.9754e-06
2.63841e-07
-2.41598e-08
6.45501e-06
2.38929e-07
5.17329e-06
5.64286e-08
1.66524e-07
-2.96281e-07
-4.24876e-07
6.93361e-06
3.79839e-07
3.75051e-07
-2.02473e-07
-4.06342e-07
6.9513e-06
3.71385e-07
-9.03713e-08
-3.99956e-07
6.62192e-06
3.55679e-07
3.55552e-09
-3.33141e-07
6.00996e-06
2.96949e-07
5.63592e-08
-2.32831e-07
5.22623e-06
2.17584e-07
7.76067e-08
-1.5648e-07
4.37812e-06
1.51639e-07
-1.04193e-07
3.52725e-06
7.94125e-08
1.01426e-07
-3.54697e-07
-3.83384e-07
8.50945e-06
5.05969e-07
-2.37023e-07
-2.94326e-07
8.60602e-06
-7.46939e-08
-3.48634e-07
8.13704e-06
5.96529e-08
-3.23621e-07
7.24858e-06
1.16054e-07
-2.04879e-07
6.2118e-06
1.28493e-07
-1.25604e-07
5.15959e-06
-7.92132e-08
4.15421e-06
1.18612e-07
-3.85119e-07
-1.2298e-08
1.08524e-05
6.53129e-07
-2.88828e-07
7.32986e-08
1.12045e-05
-4.26078e-08
3.16232e-09
1.02765e-05
1.67837e-07
-1.74471e-07
8.68372e-06
2.11666e-07
-8.98046e-08
7.18704e-06
1.99401e-07
-3.96606e-08
5.88502e-06
-1.97704e-08
4.71113e-06
1.71209e-07
-3.46988e-07
1.10894e-07
1.33433e-05
5.5426e-07
-3.64272e-07
1.43572e-07
1.37109e-05
-1.74807e-07
1.79708e-07
1.2559e-05
2.24335e-07
4.88043e-08
1.01984e-05
2.80934e-07
9.8807e-08
8.02453e-06
2.5527e-07
8.3487e-08
6.45285e-06
6.1249e-08
5.13769e-06
2.16531e-07
-3.04021e-07
1.59654e-07
1.43082e-05
4.35996e-07
-2.63185e-07
1.58537e-08
1.40762e-05
-3.974e-07
7.6233e-08
1.35513e-05
5.74746e-08
2.16195e-07
1.11136e-05
2.49132e-07
1.88252e-07
8.4735e-06
2.61839e-07
1.74669e-07
6.75008e-06
1.3012e-07
5.36837e-06
2.37001e-07
-3.92637e-07
2.73715e-07
1.3714e-05
4.986e-07
-3.47312e-07
1.97728e-07
1.41858e-05
-2.15335e-07
2.79115e-07
1.32432e-05
2.3829e-07
4.76046e-07
1.08368e-05
3.17476e-07
3.82611e-07
8.38799e-06
2.92753e-07
2.91863e-07
6.72473e-06
2.02319e-07
5.37379e-06
2.56271e-07
-3.2732e-07
1.14491e-05
5.20724e-07
6.03496e-07
-2.34209e-07
1.21972e-05
6.26303e-07
-2.84053e-09
1.13677e-05
6.90269e-07
2.49394e-07
9.52582e-06
6.91228e-07
2.93461e-07
7.80446e-06
5.09339e-07
2.76958e-07
6.39525e-06
3.68095e-07
5.15633e-06
2.57309e-07
2.38819e-07
-2.95237e-07
-4.356e-07
6.92509e-06
3.77553e-07
3.61697e-07
-1.8733e-07
-4.44676e-07
6.91688e-06
3.70936e-07
-7.21306e-08
-4.22397e-07
6.5782e-06
3.50845e-07
1.25223e-08
-3.30614e-07
5.97193e-06
2.83881e-07
5.73192e-08
-2.26421e-07
5.20136e-06
2.06466e-07
7.56841e-08
-1.53209e-07
4.36647e-06
1.46011e-07
-1.05319e-07
3.52827e-06
7.84047e-08
1.01209e-07
-3.43375e-07
-4.79259e-07
8.39217e-06
5.04148e-07
-1.93378e-07
-4.30439e-07
8.44136e-06
-2.92628e-08
-4.4618e-07
7.99668e-06
7.48472e-08
-3.4394e-07
7.1573e-06
1.14347e-07
-2.12699e-07
6.15847e-06
1.20574e-07
-1.29942e-07
5.13039e-06
-8.50923e-08
4.14277e-06
1.11911e-07
-2.94871e-07
-2.9688e-07
1.02976e-05
6.66668e-07
-1.84555e-07
-5.79668e-08
1.07215e-05
7.15902e-08
-2.47132e-07
9.82164e-06
2.04201e-07
-2.39808e-07
8.44662e-06
2.12274e-07
-1.20657e-07
7.08696e-06
1.88037e-07
-5.64866e-08
5.83553e-06
-3.33564e-08
4.6875e-06
1.59819e-07
-2.00316e-07
-5.56517e-08
1.25949e-05
7.07105e-07
-5.43692e-08
1.20057e-07
1.33866e-05
1.07095e-07
2.53303e-08
1.2125e-05
3.115e-07
4.61867e-08
9.70791e-06
3.02082e-07
5.3537e-08
7.85984e-06
2.51355e-07
6.14806e-08
6.38566e-06
4.42854e-08
5.10501e-06
2.06093e-07
2.80822e-08
1.8039e-07
1.35623e-05
4.823e-07
-2.01762e-07
4.4018e-08
1.43818e-05
-1.86852e-07
1.38264e-07
1.3424e-05
2.64059e-07
1.70578e-07
1.05386e-05
3.13484e-07
2.10359e-07
8.26739e-06
2.71589e-07
1.74355e-07
6.67897e-06
1.19521e-07
5.3347e-06
2.29967e-07
-1.62379e-07
4.37909e-07
1.29259e-05
6.93086e-07
-9.54798e-08
2.08244e-07
1.39543e-05
3.79425e-08
4.43482e-07
1.2804e-05
3.22915e-07
5.14242e-07
1.02082e-05
3.29019e-07
3.87556e-07
8.20446e-06
2.80539e-07
2.84354e-07
6.66308e-06
1.88206e-07
5.34641e-06
2.39224e-07
-2.29045e-07
1.09041e-05
5.65339e-07
6.46746e-07
-1.32033e-07
1.1568e-05
7.40971e-07
1.14645e-07
1.07826e-05
7.82217e-07
2.67093e-07
9.21405e-06
6.73429e-07
2.72444e-07
7.70265e-06
4.83736e-07
2.50201e-07
6.3589e-06
3.42824e-07
5.14274e-06
2.36917e-07
2.15062e-07
-2.8105e-07
-1.05325e-07
6.8881e-06
2.92431e-07
1.3093e-07
-2.26837e-07
-1.21471e-07
6.8566e-06
1.27558e-07
-1.53311e-07
-1.25036e-07
6.50508e-06
1.24702e-07
-9.08227e-08
-9.10507e-08
5.89985e-06
1.0061e-07
-4.17143e-08
-6.66153e-08
5.1406e-06
7.82037e-08
-6.09042e-09
-5.32631e-08
4.32204e-06
6.18103e-08
-4.56549e-08
3.50256e-06
1.68043e-08
4.85661e-08
-3.54472e-07
-9.85129e-08
8.35071e-06
3.89151e-07
-2.72338e-07
-1.17631e-07
8.35531e-06
-1.77352e-07
-1.20182e-07
7.89689e-06
-1.02634e-07
-6.78319e-08
7.0591e-06
-4.5012e-08
-3.98351e-08
6.07408e-06
-3.92825e-09
-2.92441e-08
5.06549e-06
-2.84515e-08
4.09987e-06
2.19231e-08
-3.78345e-07
-1.05801e-07
1.02036e-05
4.79401e-07
-2.53963e-07
-2.23105e-08
1.05019e-05
-1.45413e-07
-7.80128e-08
9.67066e-06
-7.39965e-08
-1.70958e-08
8.32417e-06
-2.28123e-08
1.61516e-08
6.97987e-06
1.41848e-08
1.76019e-08
5.75166e-06
5.26536e-09
4.62925e-06
3.85704e-08
-2.8713e-07
6.77198e-08
1.20229e-05
6.85427e-07
-1.43942e-07
1.11947e-07
1.31092e-05
-5.69307e-08
1.15436e-07
1.18443e-05
-2.11765e-08
1.24315e-07
9.53082e-06
1.18057e-08
1.11142e-07
7.73181e-06
3.84017e-08
8.88324e-08
6.28773e-06
5.33611e-08
5.03593e-06
5.92021e-08
-2.20535e-07
2.09241e-07
1.28758e-05
7.65328e-07
-1.52212e-07
1.52079e-07
1.42727e-05
-1.96973e-07
1.92225e-07
1.33921e-05
-4.45017e-08
2.02946e-07
1.03074e-05
8.63836e-09
1.94551e-07
8.13071e-06
4.46869e-08
1.52588e-07
6.57906e-06
9.72768e-08
5.26331e-06
7.20244e-08
-3.47233e-07
3.4601e-07
1.23973e-05
7.38957e-07
-1.63811e-07
3.61791e-07
1.35615e-05
-9.88359e-08
4.09978e-07
1.25212e-05
-3.46133e-08
3.43743e-07
1.00031e-05
8.74973e-09
2.65635e-07
8.08979e-06
4.79301e-08
2.03794e-07
6.57261e-06
1.29413e-07
5.28062e-06
8.14458e-08
-3.30609e-07
1.08361e-05
4.38754e-07
3.05809e-07
-2.45682e-07
1.13945e-05
4.50599e-07
-1.45039e-07
1.06512e-05
4.40644e-07
-8.07159e-08
9.14539e-06
3.47901e-07
-1.255e-08
7.6193e-06
2.80645e-07
4.67983e-08
6.28664e-06
2.16594e-07
5.08954e-06
1.01019e-07
1.28407e-07
-2.48675e-07
1.47853e-07
6.81349e-06
2.00885e-07
-2.54214e-08
-2.44163e-07
1.31387e-07
6.76626e-06
-4.54434e-08
-2.03261e-07
9.10232e-08
6.40525e-06
-3.20382e-08
-1.54621e-07
6.94056e-08
5.80196e-06
-2.01114e-08
-1.01569e-07
3.51659e-08
5.05557e-06
-3.29434e-09
-5.46927e-08
8.25834e-09
4.2573e-06
9.84575e-09
-1.05527e-08
3.46169e-06
-1.98132e-08
1.69324e-08
-3.56698e-07
2.66841e-07
8.31901e-06
2.6942e-07
-3.48614e-07
1.86962e-07
8.29193e-06
-2.9087e-07
1.31466e-07
7.79871e-06
-2.22434e-07
1.1764e-07
6.94261e-06
-1.4562e-07
6.90126e-08
5.96339e-06
-7.90976e-08
3.10969e-08
4.97587e-06
3.16755e-09
4.03779e-06
-3.09274e-08
-4.82107e-07
2.35662e-07
1.0426e-05
2.91276e-07
-4.44187e-07
1.16529e-07
1.05344e-05
-3.55631e-07
5.64699e-08
9.6566e-06
-2.69957e-07
1.33398e-07
8.22295e-06
-1.75149e-07
9.99446e-08
6.85404e-06
-9.26238e-08
5.87758e-08
5.64165e-06
2.38064e-08
4.54924e-06
-3.33753e-08
-7.30778e-07
9.85642e-08
1.23855e-05
5.05407e-07
-4.35584e-07
2.92347e-08
1.29012e-05
-2.82946e-07
2.33106e-08
1.17249e-05
-2.68347e-07
1.68894e-07
9.48052e-06
-1.80817e-07
1.41432e-07
7.60263e-06
-9.44782e-08
9.50053e-08
6.16501e-06
5.00374e-08
4.94409e-06
-2.88338e-08
-9.97042e-07
2.23944e-07
1.30301e-05
7.17144e-07
-6.06828e-07
2.97264e-07
1.36139e-05
-3.38004e-07
4.04751e-07
1.27414e-05
-2.97779e-07
2.185e-07
1.02172e-05
-1.97777e-07
1.61542e-07
8.01026e-06
-9.79167e-08
1.19844e-07
6.45425e-06
6.99896e-08
5.16796e-06
-2.26251e-08
-8.34832e-07
1.8751e-07
1.26502e-05
6.18431e-07
-4.9003e-07
3.8108e-07
1.3133e-05
-3.19063e-07
3.67124e-07
1.23883e-05
-3.08997e-07
1.78303e-07
1.00331e-05
-2.00316e-07
1.58775e-07
7.98383e-06
-9.25921e-08
1.2978e-07
6.4549e-06
7.7704e-08
5.18973e-06
-9.60309e-09
-4.6537e-07
1.11659e-05
3.04349e-07
1.85847e-08
-4.46825e-07
1.16336e-05
1.23222e-07
-3.99376e-07
1.08388e-05
1.3183e-07
-3.16202e-07
9.1392e-06
1.01261e-07
-1.85505e-07
7.521e-06
1.26484e-07
-6.97471e-08
6.18265e-06
1.17967e-07
5.01078e-06
2.52613e-08
6.1361e-08
-1.82241e-07
8.69588e-08
6.73647e-06
1.5035e-07
2.19917e-08
-1.85681e-07
1.07475e-07
6.6763e-06
-1.38691e-08
-1.60357e-07
8.25694e-08
6.30934e-06
-1.19893e-08
-1.20899e-07
5.37463e-08
5.71095e-06
-2.07543e-09
-7.4093e-08
1.76536e-08
4.9786e-06
1.24935e-08
-3.27476e-08
-7.74911e-09
4.20076e-06
2.33935e-08
-2.44142e-08
3.4286e-06
-3.60759e-09
2.84091e-08
-2.6515e-07
2.09045e-07
8.25945e-06
2.02794e-07
-2.84263e-07
2.00788e-07
8.21811e-06
-2.50022e-07
1.53771e-07
7.6932e-06
-1.87522e-07
1.09367e-07
6.82494e-06
-1.1473e-07
5.10159e-08
5.85719e-06
-5.29379e-08
1.24506e-08
4.8936e-06
-1.29736e-08
3.98397e-06
-1.08031e-08
-3.77003e-07
2.45282e-07
1.05631e-05
2.0406e-07
-4.18534e-07
1.74649e-07
1.06025e-05
-3.42176e-07
1.23175e-07
9.61077e-06
-2.44265e-07
1.29569e-07
8.10514e-06
-1.4378e-07
7.74173e-08
6.72712e-06
-6.36365e-08
3.65193e-08
5.53756e-06
5.20909e-09
4.47779e-06
-1.03402e-08
-6.51828e-07
1.31178e-07
1.27988e-05
3.52857e-07
-4.22939e-07
1.02144e-07
1.27452e-05
-3.10944e-07
9.63398e-08
1.16399e-05
-2.47691e-07
1.37626e-07
9.40921e-06
-1.52575e-07
1.13503e-07
7.47147e-06
-6.45527e-08
6.65253e-08
6.04702e-06
2.80983e-08
4.86081e-06
-3.9944e-09
-7.87693e-07
1.53719e-07
1.34084e-05
3.86846e-07
-6.11962e-07
2.33132e-07
1.33077e-05
-3.07424e-07
3.32178e-07
1.22011e-05
-2.95111e-07
1.8785e-07
1.01548e-05
-1.71826e-07
1.14041e-07
7.88652e-06
-6.72396e-08
8.4021e-08
6.33229e-06
4.47469e-08
5.08047e-06
3.69655e-09
-6.24071e-07
8.74936e-08
1.29891e-05
3.51654e-07
-5.48936e-07
1.31185e-07
1.31599e-05
-3.99162e-07
2.07043e-07
1.23638e-05
-2.98847e-07
7.60872e-08
1.00448e-05
-1.66754e-07
1.01708e-07
7.86435e-06
-5.65752e-08
9.15728e-08
6.33731e-06
5.23191e-08
5.10598e-06
1.96678e-08
-3.70213e-07
1.13906e-05
2.11007e-07
2.22133e-08
-3.9637e-07
1.18174e-05
-2.64323e-08
-3.52716e-07
1.09552e-05
4.71504e-08
-2.59667e-07
9.06919e-06
5.32315e-08
-1.32298e-07
7.40559e-06
9.00332e-08
-2.7324e-08
6.07893e-06
9.04314e-08
4.93922e-06
5.36704e-08
4.28969e-08
-1.30073e-07
-1.28376e-07
6.69202e-06
1.48276e-07
1.54616e-07
-1.0974e-07
-8.54017e-08
6.61918e-06
1.22498e-07
-7.57364e-08
-8.04455e-08
6.24794e-06
1.07949e-07
-3.91573e-08
-7.03713e-08
5.65302e-06
9.17613e-08
-4.12747e-09
-6.59944e-08
4.93076e-06
7.90281e-08
2.22983e-08
-6.32802e-08
4.16827e-06
6.95499e-08
-6.15762e-08
3.41407e-06
3.73235e-08
6.09741e-08
-1.57729e-07
-9.15005e-08
8.18451e-06
1.96118e-07
-1.52881e-07
-8.5262e-09
8.13668e-06
-1.12715e-07
-3.0323e-08
7.60309e-06
-6.02983e-08
-3.58186e-08
6.73829e-06
-1.21254e-08
-4.05989e-08
5.78396e-06
2.38722e-08
-4.56854e-08
4.84036e-06
-5.06335e-08
3.95298e-06
4.4001e-08
-1.51251e-07
7.62217e-09
1.03975e-05
2.18082e-07
-1.82839e-07
9.18307e-08
1.05343e-05
-1.2509e-07
5.08239e-08
9.47242e-06
-5.96062e-08
1.88513e-08
7.98529e-06
-4.47403e-09
1.81506e-09
6.62971e-06
3.59175e-08
-1.39443e-08
5.46547e-06
-2.77303e-08
4.43263e-06
5.84687e-08
-1.63066e-07
1.20916e-07
1.26565e-05
1.92661e-07
-1.41963e-07
6.01898e-08
1.27567e-05
-1.25162e-07
1.51762e-07
1.15227e-05
-4.87223e-08
9.31971e-08
9.25872e-06
9.20987e-09
5.81736e-08
7.35746e-06
5.05942e-08
3.03877e-08
5.96153e-06
3.30482e-09
4.80566e-06
7.49515e-08
-2.08383e-07
6.45489e-08
1.3604e-05
6.99168e-08
-1.89714e-07
1.29255e-07
1.32208e-05
-2.6568e-07
1.42026e-08
1.2415e-05
-1.11597e-07
6.55324e-08
1.00289e-05
-7.85503e-09
7.43111e-08
7.7671e-06
5.29599e-08
6.08331e-08
6.24131e-06
2.94564e-08
5.02135e-06
8.61734e-08
-1.95038e-07
3.09199e-08
1.30989e-05
1.19352e-07
-2.64514e-07
-2.82876e-08
1.33872e-05
-2.27223e-07
3.33764e-08
1.23075e-05
-7.94738e-08
7.38534e-08
9.88907e-06
9.10854e-09
1.04357e-07
7.74612e-06
6.62713e-08
9.09613e-08
6.25025e-06
5.06925e-08
5.05002e-06
1.01244e-07
-1.27344e-07
1.12147e-05
1.71336e-07
1.63252e-07
-1.69075e-07
1.17062e-05
1.24604e-07
-1.04744e-07
1.07622e-05
1.62292e-07
-3.97505e-08
8.9255e-06
1.52871e-07
2.73698e-08
7.30483e-06
1.38237e-07
8.07582e-08
6.00506e-06
1.11681e-07
4.89313e-06
1.23135e-07
5.45815e-08
-1.22657e-07
-1.85281e-07
6.66139e-06
1.5199e-07
1.8665e-07
-8.84518e-08
-1.62521e-07
6.57772e-06
1.69935e-07
-4.26228e-08
-1.5974e-07
6.2027e-06
1.59213e-07
-2.78491e-09
-1.30904e-07
5.60982e-06
1.34371e-07
2.834e-08
-1.06952e-07
4.89594e-06
1.10936e-07
4.85056e-08
-9.18239e-08
4.14664e-06
9.32741e-08
-8.21602e-08
3.40782e-06
5.73861e-08
7.93545e-08
-1.39572e-07
-1.87263e-07
8.13083e-06
1.95449e-07
-1.0987e-07
-1.27905e-07
8.07255e-06
-5.14885e-08
-1.4937e-07
7.53468e-06
-1.1356e-09
-1.15239e-07
6.67231e-06
3.62377e-08
-8.86818e-08
5.72854e-06
6.03116e-08
-7.62967e-08
4.80119e-06
-7.17885e-08
3.93237e-06
7.08673e-08
-9.23175e-08
-1.79641e-07
1.02496e-05
2.326e-07
-8.86849e-08
-1.64467e-08
1.04196e-05
-1.16573e-08
-1.16473e-07
9.36313e-06
3.58607e-08
-6.94258e-08
7.89215e-06
6.46287e-08
-4.21695e-08
6.55463e-06
8.40473e-08
-4.08571e-08
5.41058e-06
-4.6664e-08
4.39956e-06
9.2166e-08
-9.45902e-10
-2.08615e-07
1.24398e-05
2.4717e-07
3.40405e-08
-8.10662e-08
1.27869e-05
6.73421e-08
-6.14885e-08
1.14348e-05
7.51329e-08
4.63304e-08
9.13541e-06
9.2991e-08
3.04134e-08
7.26724e-06
1.07535e-07
1.12656e-08
5.89511e-06
-1.07647e-08
4.76371e-06
1.13669e-07
2.09605e-07
8.46958e-08
1.30077e-05
9.40143e-08
1.60755e-08
1.97361e-08
1.3314e-05
-1.36999e-07
3.77128e-08
1.24695e-05
7.5348e-09
3.07786e-08
9.90029e-06
7.82763e-08
5.81279e-08
7.66895e-06
1.111e-07
4.97513e-08
6.1701e-06
2.02256e-08
4.97562e-06
1.25991e-07
4.19847e-08
1.16383e-07
1.27994e-05
2.26174e-07
2.51604e-08
6.29695e-08
1.33608e-05
3.77438e-08
1.31284e-07
1.22013e-05
6.95181e-08
1.42174e-07
9.74611e-06
1.00679e-07
1.20555e-07
7.65262e-06
1.24033e-07
9.42867e-08
6.18244e-06
4.91771e-08
5.0065e-06
1.38747e-07
-1.01967e-08
1.10082e-05
1.61523e-07
1.71704e-07
-4.76236e-08
1.15697e-05
2.37129e-07
1.05162e-08
1.05883e-05
2.47374e-07
5.77383e-08
8.81031e-06
2.10281e-07
9.34002e-08
7.22647e-06
1.63255e-07
1.24504e-07
5.9475e-06
1.20854e-07
4.85711e-06
1.51921e-07
5.79301e-08
-1.35863e-07
-8.28003e-08
6.61431e-06
1.38638e-07
1.27153e-07
-1.07062e-07
-9.54944e-08
6.52075e-06
1.2369e-07
-5.71129e-08
-1.18339e-07
6.14286e-06
1.28442e-07
-1.24557e-08
-1.06046e-07
5.55508e-06
1.16338e-07
2.25313e-08
-9.59108e-08
4.85378e-06
1.03084e-07
4.56143e-08
-8.93456e-08
4.12107e-06
9.1851e-08
-8.44771e-08
3.39975e-06
5.61146e-08
8.20922e-08
-1.86729e-07
-3.23892e-08
8.08343e-06
1.83788e-07
-1.55802e-07
-5.78596e-08
8.00416e-06
-8.4456e-08
-1.06745e-07
7.45205e-06
-2.32563e-08
-8.64031e-08
6.59161e-06
2.31449e-08
-7.64561e-08
5.66265e-06
5.38362e-08
-7.46858e-08
4.75609e-06
-7.52966e-08
3.90879e-06
6.84552e-08
-2.0423e-07
-2.26678e-08
1.02272e-05
2.16999e-07
-1.71e-07
4.69472e-10
1.03286e-05
-6.28843e-08
-1.10747e-07
9.25921e-06
-3.85423e-09
-4.47961e-08
7.79163e-06
4.25918e-08
-3.46488e-08
6.46664e-06
7.34211e-08
-4.24243e-08
5.34765e-06
-5.25746e-08
4.36219e-06
8.80991e-08
-2.41084e-07
-3.44967e-08
1.23649e-05
3.27962e-07
-1.20536e-07
9.41923e-09
1.26577e-05
-2.68908e-10
-8.16349e-08
1.12857e-05
2.50208e-08
5.15494e-08
9.01419e-06
6.54464e-08
2.94753e-08
7.16283e-06
9.38997e-08
5.13434e-09
5.81915e-06
-1.94418e-08
4.71631e-06
1.08261e-07
-1.85682e-07
-1.90306e-08
1.27311e-05
4.47158e-07
-2.42144e-07
1.50679e-08
1.33651e-05
-1.86634e-07
1.44186e-07
1.21885e-05
-3.09287e-08
4.2968e-08
9.75341e-06
5.16885e-08
5.47063e-08
7.56129e-06
9.72086e-08
4.10127e-08
6.08878e-06
9.90466e-09
4.92378e-06
1.19781e-07
-1.59735e-07
2.09171e-08
1.2505e-05
4.14189e-07
-1.15376e-07
9.02826e-08
1.32416e-05
-8.3627e-09
1.98539e-07
1.20403e-05
1.73657e-08
1.38026e-07
9.62559e-06
6.80009e-08
1.08229e-07
7.54849e-06
1.0624e-07
8.10006e-08
6.10424e-06
3.62064e-08
4.95641e-06
1.30102e-07
-1.25085e-07
1.09386e-05
1.77294e-07
3.84833e-08
-1.40004e-07
1.14971e-05
1.78366e-07
-6.68863e-08
1.052e-05
1.94299e-07
-8.65493e-09
8.72827e-06
1.61959e-07
5.55524e-08
7.13733e-06
1.33155e-07
1.04604e-07
5.87971e-06
9.97677e-08
4.81447e-06
1.41568e-07
4.20498e-08
-1.17887e-07
-6.76457e-08
6.55859e-06
1.16043e-07
1.25219e-07
-9.15945e-08
-8.33068e-08
6.45561e-06
1.22228e-07
-4.38936e-08
-1.07633e-07
6.07654e-06
1.26545e-07
-8.1222e-10
-1.03809e-07
5.49762e-06
1.18419e-07
3.24481e-08
-1.009e-07
4.81244e-06
1.08852e-07
5.36147e-08
-9.76277e-08
4.09824e-06
9.94831e-08
-9.36339e-08
3.39497e-06
6.18536e-08
9.06681e-08
-1.96041e-07
2.55615e-08
8.01341e-06
1.72933e-07
-1.61081e-07
-2.67338e-08
7.91309e-06
-8.4462e-08
-8.1405e-08
7.34932e-06
-1.84141e-08
-7.83697e-08
6.50033e-06
3.15425e-08
-8.23206e-08
5.59417e-06
6.27695e-08
-8.52255e-08
4.71266e-06
-8.64365e-08
3.88829e-06
7.63495e-08
-3.10891e-07
1.0691e-07
1.02192e-05
2.37774e-07
-2.28043e-07
2.21179e-08
1.0197e-05
-9.60879e-08
-7.7435e-08
9.12317e-06
-1.0029e-08
-3.98734e-08
7.66744e-06
4.84931e-08
-4.51111e-08
6.37115e-06
8.27209e-08
-5.62396e-08
5.28482e-06
-6.63536e-08
4.32748e-06
9.75091e-08
-5.16512e-07
1.9e-07
1.23671e-05
4.31482e-07
-2.58322e-07
-2.25146e-08
1.24445e-05
-5.33173e-08
-3.89813e-08
1.10425e-05
1.55401e-08
4.27867e-08
8.86301e-06
7.33894e-08
1.49735e-08
7.04517e-06
1.05742e-07
-1.08573e-08
5.74154e-06
-3.47365e-08
4.67101e-06
1.19668e-07
-7.2884e-07
1.89847e-08
1.30809e-05
5.50028e-07
-4.46834e-07
8.85849e-08
1.29721e-05
-1.84761e-07
1.60035e-07
1.17276e-05
-2.3645e-08
5.83934e-08
9.57677e-06
6.73169e-08
4.6806e-08
7.43842e-06
1.13114e-07
2.77476e-08
6.00447e-06
-4.40509e-09
4.87346e-06
1.3326e-07
-6.00637e-07
-1.32653e-08
1.25941e-05
5.44054e-07
-3.39904e-07
1.09456e-07
1.29607e-05
-1.03694e-07
1.93597e-07
1.17714e-05
-4.21497e-09
1.15277e-07
9.46956e-06
7.2352e-08
9.13802e-08
7.42746e-06
1.18148e-07
6.4042e-08
6.02226e-06
2.10052e-08
4.90736e-06
1.41959e-07
-3.35954e-07
1.10064e-05
2.43294e-07
1.18912e-08
-2.53993e-07
1.13952e-05
1.30093e-07
-1.26737e-07
1.04389e-05
1.47622e-07
-2.35633e-08
8.61541e-06
1.25127e-07
6.1311e-08
7.03384e-06
1.10138e-07
1.15785e-07
5.80871e-06
8.06875e-08
4.77294e-06
1.51092e-07
2.7402e-08
-6.25069e-08
-2.06902e-07
6.52271e-06
9.35523e-08
2.11727e-07
-2.42137e-08
-1.96741e-07
6.41109e-06
2.03223e-07
1.57934e-08
-1.81898e-07
6.03226e-06
1.86346e-07
4.7607e-08
-1.59157e-07
5.46259e-06
1.62526e-07
6.93382e-08
-1.40802e-07
4.79127e-06
1.40344e-07
8.01903e-08
-1.26009e-07
4.09141e-06
1.22214e-07
-1.1416e-07
3.40192e-06
7.98482e-08
1.08041e-07
-1.11828e-07
-1.60254e-07
7.92843e-06
1.50412e-07
-6.0015e-08
-1.51892e-07
7.81679e-06
-1.35605e-09
-1.49542e-07
7.25838e-06
5.01506e-08
-1.41245e-07
6.43112e-06
8.36271e-08
-1.29098e-07
5.54931e-06
9.95685e-08
-1.18043e-07
4.68891e-06
-1.09346e-07
3.88247e-06
1.01092e-07
-1.94804e-07
-6.54954e-08
1.00806e-05
2.38986e-07
-9.32839e-08
-6.40749e-08
1.00078e-05
1.15124e-09
-7.67974e-08
8.95599e-06
7.89513e-08
-9.81938e-08
7.54679e-06
1.1716e-07
-9.50313e-08
6.29905e-06
1.3072e-07
-9.0583e-08
5.24413e-06
-9.00656e-08
4.30981e-06
1.29434e-07
-3.40474e-07
6.3669e-08
1.21512e-05
4.27304e-07
-1.25517e-07
-5.32073e-08
1.22189e-05
2.17617e-08
1.42432e-08
1.08043e-05
1.32463e-07
-3.06848e-08
8.68488e-06
1.60656e-07
-2.42115e-08
6.94617e-06
1.65082e-07
-4.03607e-08
5.687e-06
-5.63474e-08
4.64398e-06
1.58507e-07
-5.01653e-07
1.36047e-07
1.30367e-05
4.73537e-07
-2.98267e-07
8.08805e-08
1.26348e-05
-7.1687e-09
7.0796e-08
1.138e-05
1.07087e-07
5.79851e-08
9.37402e-06
1.69187e-07
2.79835e-08
7.32437e-06
1.81287e-07
9.36265e-09
5.94276e-06
-2.0155e-08
4.84163e-06
1.77159e-07
-5.16744e-07
1.00352e-07